/*--------------------------------*- C++ -*----------------------------------*\
| =========                 |                                                 |
| \\      /  F ield         | OpenFOAM: The Open Source CFD Toolbox           |
|  \\    /   O peration     | Version:  v2012                                 |
|   \\  /    A nd           | Website:  www.openfoam.com                      |
|    \\/     M anipulation  |                                                 |
\*---------------------------------------------------------------------------*/
FoamFile
{
    version     2.0;
    format      ascii;
    class       volVectorField;
    location    "8.9741551682";
    object      cellDisplacement;
}
// * * * * * * * * * * * * * * * * * * * * * * * * * * * * * * * * * * * * * //

dimensions      [0 1 0 0 0 0 0];


internalField   nonuniform List<vector> 
9200
(
(-0.040436901 0 0)
(-0.040623145 0 0)
(-0.11735212 0 0)
(-0.040859994 0 0)
(-0.11771625 0 0)
(-0.18871151 0 0)
(-0.041142372 0 0)
(-0.11834255 0 0)
(-0.1893239 0 0)
(-0.25503011 0 0)
(-0.041444781 0 0)
(-0.11910545 0 0)
(-0.19030285 0 0)
(-0.25578238 0 0)
(-0.31642352 0 0)
(-0.041753007 0 0)
(-0.11992843 0 0)
(-0.19147951 0 0)
(-0.25705268 0 0)
(-0.31738161 0 0)
(-0.37339744 0 0)
(-0.042056895 0 0)
(-0.12076993 0 0)
(-0.19275931 0 0)
(-0.25861127 0 0)
(-0.31893663 0 0)
(-0.37446005 0 0)
(-0.42606331 0 0)
(-0.042346457 0 0)
(-0.1215984 0 0)
(-0.19407122 0 0)
(-0.26031649 0 0)
(-0.32086741 0 0)
(-0.37629262 0 0)
(-0.42732245 0 0)
(-0.47488992 0 0)
(-0.042619591 0 0)
(-0.12239155 0 0)
(-0.19536202 0 0)
(-0.26206088 0 0)
(-0.3229671 0 0)
(-0.37856031 0 0)
(-0.42941198 0 0)
(-0.47625054 0 0)
(-0.51997134 0 0)
(-0.042869707 0 0)
(-0.12313439 0 0)
(-0.1965995 0 0)
(-0.26377948 0 0)
(-0.32512164 0 0)
(-0.38104994 0 0)
(-0.43202146 0 0)
(-0.47859656 0 0)
(-0.52152 0 0)
(-0.5617194 0 0)
(-0.043099292 0 0)
(-0.12381951 0 0)
(-0.197757 0 0)
(-0.2654276 0 0)
(-0.32724948 0 0)
(-0.38361528 0 0)
(-0.43491488 0 0)
(-0.48155719 0 0)
(-0.52412522 0 0)
(-0.56337623 0 0)
(-0.6002164 0 0)
(-0.043304212 0 0)
(-0.12444085 0 0)
(-0.19882404 0 0)
(-0.26697123 0 0)
(-0.32928787 0 0)
(-0.3861403 0 0)
(-0.43786862 0 0)
(-0.48480676 0 0)
(-0.52740366 0 0)
(-0.56624039 0 0)
(-0.60206327 0 0)
(-0.63581574 0 0)
(-0.043488774 0 0)
(-0.12500033 0 0)
(-0.1997902 0 0)
(-0.26839434 0 0)
(-0.33120395 0 0)
(-0.38856443 0 0)
(-0.44079793 0 0)
(-0.48819599 0 0)
(-0.53108046 0 0)
(-0.56987735 0 0)
(-0.60519543 0 0)
(-0.63778482 0 0)
(-0.66859368 0 0)
(-0.043650819 0 0)
(-0.12549618 0 0)
(-0.20065706 0 0)
(-0.26968477 0 0)
(-0.3329679 0 0)
(-0.39084279 0 0)
(-0.44361187 0 0)
(-0.49153605 0 0)
(-0.53486666 0 0)
(-0.57392002 0 0)
(-0.60916832 0 0)
(-0.64119313 0 0)
(-0.67075729 0 0)
(-0.69885226 0 0)
(-0.043794013 0 0)
(-0.12593431 0 0)
(-0.20142418 0 0)
(-0.27084245 0 0)
(-0.33457399 0 0)
(-0.39294557 0 0)
(-0.446256 0 0)
(-0.49475051 0 0)
(-0.53863888 0 0)
(-0.57816032 0 0)
(-0.61364957 0 0)
(-0.64554288 0 0)
(-0.67445106 0 0)
(-0.70115233 0 0)
(-0.7266628 0 0)
(-0.043918723 0 0)
(-0.12631658 0 0)
(-0.2020992 0 0)
(-0.27186855 0 0)
(-0.33601205 0 0)
(-0.39485908 0 0)
(-0.44870442 0 0)
(-0.4977802 0 0)
(-0.54227834 0 0)
(-0.58238816 0 0)
(-0.61832592 0 0)
(-0.65042207 0 0)
(-0.6791657 0 0)
(-0.70514249 0 0)
(-0.72916148 0 0)
(-0.75228054 0 0)
(-0.044027347 0 0)
(-0.12664965 0 0)
(-0.20268635 0 0)
(-0.27277077 0 0)
(-0.33729233 0 0)
(-0.39657794 0 0)
(-0.45093025 0 0)
(-0.50058269 0 0)
(-0.54571031 0 0)
(-0.58647002 0 0)
(-0.62301782 0 0)
(-0.65558073 0 0)
(-0.68451008 0 0)
(-0.7102561 0 0)
(-0.73345378 0 0)
(-0.75492883 0 0)
(-0.77577432 0 0)
(-0.044121667 0 0)
(-0.12693728 0 0)
(-0.20319517 0 0)
(-0.27355748 0 0)
(-0.3384155 0 0)
(-0.39810485 0 0)
(-0.45293602 0 0)
(-0.50314221 0 0)
(-0.54889059 0 0)
(-0.59032555 0 0)
(-0.62756785 0 0)
(-0.66075972 0 0)
(-0.6901301 0 0)
(-0.71603225 0 0)
(-0.73896108 0 0)
(-0.75953417 0 0)
(-0.7786242 0 0)
(-0.79736109 0 0)
(-0.044202544 0 0)
(-0.12718394 0 0)
(-0.20363238 0 0)
(-0.27423868 0 0)
(-0.33939943 0 0)
(-0.39945015 0 0)
(-0.45471624 0 0)
(-0.50544463 0 0)
(-0.55179715 0 0)
(-0.59390703 0 0)
(-0.63187635 0 0)
(-0.66580427 0 0)
(-0.69582038 0 0)
(-0.72217016 0 0)
(-0.74522862 0 0)
(-0.76546126 0 0)
(-0.78354536 0 0)
(-0.80037009 0 0)
(-0.81710619 0 0)
(-0.044272888 0 0)
(-0.12739602 0 0)
(-0.20400741 0 0)
(-0.27482586 0 0)
(-0.34024929 0 0)
(-0.40062359 0 0)
(-0.45628782 0 0)
(-0.50749917 0 0)
(-0.55441862 0 0)
(-0.59718195 0 0)
(-0.63588275 0 0)
(-0.67058634 0 0)
(-0.70136983 0 0)
(-0.7283782 0 0)
(-0.75186176 0 0)
(-0.77219375 0 0)
(-0.78988961 0 0)
(-0.80561637 0 0)
(-0.82031682 0 0)
(-0.83519317 0 0)
(-0.044332671 0 0)
(-0.12757488 0 0)
(-0.2043267 0 0)
(-0.2753283 0 0)
(-0.34098537 0 0)
(-0.40164349 0 0)
(-0.45765799 0 0)
(-0.50930914 0 0)
(-0.55675821 0 0)
(-0.60014345 0 0)
(-0.63955278 0 0)
(-0.67504013 0 0)
(-0.70665278 0 0)
(-0.73446213 0 0)
(-0.75861329 0 0)
(-0.77937554 0 0)
(-0.79713578 0 0)
(-0.81239489 0 0)
(-0.82588758 0 0)
(-0.83856915 0 0)
(-0.85168512 0 0)
(-0.044384947 0 0)
(-0.12772875 0 0)
(-0.20459908 0 0)
(-0.27575849 0 0)
(-0.34161395 0 0)
(-0.4025209 0 0)
(-0.45884875 0 0)
(-0.51089642 0 0)
(-0.55882635 0 0)
(-0.60278827 0 0)
(-0.64287764 0 0)
(-0.67913317 0 0)
(-0.71158608 0 0)
(-0.74027388 0 0)
(-0.76525181 0 0)
(-0.7866828 0 0)
(-0.80484554 0 0)
(-0.82013352 0 0)
(-0.83309913 0 0)
(-0.84447095 0 0)
(-0.85526043 0 0)
(-0.86673875 0 0)
(-0.044429329 0 0)
(-0.127857 0 0)
(-0.20483002 0 0)
(-0.27612335 0 0)
(-0.34215422 0 0)
(-0.40327631 0 0)
(-0.4598734 0 0)
(-0.51227299 0 0)
(-0.56063898 0 0)
(-0.60513171 0 0)
(-0.64585336 0 0)
(-0.68284303 0 0)
(-0.71612473 0 0)
(-0.74571071 0 0)
(-0.77161051 0 0)
(-0.79389265 0 0)
(-0.81273 0 0)
(-0.82841753 0 0)
(-0.8413666 0 0)
(-0.85212541 0 0)
(-0.86148975 0 0)
(-0.8704814 0 0)
(-0.88041382 0 0)
(-0.04446843 0 0)
(-0.12796808 0 0)
(-0.20502644 0 0)
(-0.2764349 0 0)
(-0.34261196 0 0)
(-0.40392023 0 0)
(-0.46075456 0 0)
(-0.51346484 0 0)
(-0.56221728 0 0)
(-0.60718707 0 0)
(-0.64849475 0 0)
(-0.68617617 0 0)
(-0.72024883 0 0)
(-0.75072195 0 0)
(-0.77758056 0 0)
(-0.80082198 0 0)
(-0.82052442 0 0)
(-0.83688753 0 0)
(-0.85020445 0 0)
(-0.86090352 0 0)
(-0.86958497 0 0)
(-0.87704165 0 0)
(-0.88435004 0 0)
(-0.89284363 0 0)
(-0.044501695 0 0)
(-0.12805972 0 0)
(-0.20519307 0 0)
(-0.27669776 0 0)
(-0.34300406 0 0)
(-0.40447213 0 0)
(-0.46150616 0 0)
(-0.51448712 0 0)
(-0.56358185 0 0)
(-0.60897941 0 0)
(-0.65081715 0 0)
(-0.68913632 0 0)
(-0.72395937 0 0)
(-0.75528829 0 0)
(-0.78309836 0 0)
(-0.80735613 0 0)
(-0.82805169 0 0)
(-0.84528943 0 0)
(-0.85927977 0 0)
(-0.87033377 0 0)
(-0.87889902 0 0)
(-0.88558048 0 0)
(-0.89123493 0 0)
(-0.89694577 0 0)
(-0.90408552 0 0)
(-0.044531235 0 0)
(-0.12814028 0 0)
(-0.20533552 0 0)
(-0.27692319 0 0)
(-0.34333522 0 0)
(-0.4049402 0 0)
(-0.46214863 0 0)
(-0.5153646 0 0)
(-0.56475683 0 0)
(-0.61053 0 0)
(-0.652846 0 0)
(-0.69174963 0 0)
(-0.72726476 0 0)
(-0.75940199 0 0)
(-0.788134 0 0)
(-0.81339982 0 0)
(-0.83514711 0 0)
(-0.85340714 0 0)
(-0.86829432 0 0)
(-0.88001985 0 0)
(-0.88890056 0 0)
(-0.89541394 0 0)
(-0.90021355 0 0)
(-0.90415531 0 0)
(-0.90837305 0 0)
(-0.91425357 0 0)
(-0.044556199 0 0)
(-0.12820676 0 0)
(-0.20545762 0 0)
(-0.27711381 0 0)
(-0.34361922 0 0)
(-0.40534106 0 0)
(-0.4626943 0 0)
(-0.51611233 0 0)
(-0.56576372 0 0)
(-0.61186657 0 0)
(-0.65460557 0 0)
(-0.69403361 0 0)
(-0.73018585 0 0)
(-0.76307774 0 0)
(-0.79268009 0 0)
(-0.81892975 0 0)
(-0.84175544 0 0)
(-0.86111716 0 0)
(-0.87704379 0 0)
(-0.8896693 0 0)
(-0.89921195 0 0)
(-0.90601608 0 0)
(-0.91058139 0 0)
(-0.9135711 0 0)
(-0.91589863 0 0)
(-0.91870211 0 0)
(-0.92340191 0 0)
(-0.044578693 0 0)
(-0.12826683 0 0)
(-0.20556375 0 0)
(-0.27727934 0 0)
(-0.34386001 0 0)
(-0.40568137 0 0)
(-0.46316097 0 0)
(-0.51675127 0 0)
(-0.56662498 0 0)
(-0.61301171 0 0)
(-0.65612436 0 0)
(-0.69602283 0 0)
(-0.73274818 0 0)
(-0.76633119 0 0)
(-0.79675279 0 0)
(-0.8239412 0 0)
(-0.847811 0 0)
(-0.86828888 0 0)
(-0.88534629 0 0)
(-0.89904244 0 0)
(-0.90950093 0 0)
(-0.91695444 0 0)
(-0.92176187 0 0)
(-0.92445679 0 0)
(-0.9257451 0 0)
(-0.92654053 0 0)
(-0.92802519 0 0)
(-0.93162742 0 0)
(-0.044597274 0 0)
(-0.12831676 0 0)
(-0.20565685 0 0)
(-0.27742133 0 0)
(-0.34406871 0 0)
(-0.40597417 0 0)
(-0.46355785 0 0)
(-0.51729504 0 0)
(-0.56735973 0 0)
(-0.61399137 0 0)
(-0.65742897 0 0)
(-0.69774025 0 0)
(-0.73498086 0 0)
(-0.76919367 0 0)
(-0.80036657 0 0)
(-0.82843301 0 0)
(-0.85330634 0 0)
(-0.87489452 0 0)
(-0.89312626 0 0)
(-0.90799046 0 0)
(-0.91953396 0 0)
(-0.92789964 0 0)
(-0.93333595 0 0)
(-0.93623628 0 0)
(-0.93715467 0 0)
(-0.93681013 0 0)
(-0.93616596 0 0)
(-0.93640463 0 0)
(-0.93898119 0 0)
(-0.044612969 0 0)
(-0.12836441 0 0)
(-0.20574031 0 0)
(-0.27754804 0 0)
(-0.34424851 0 0)
(-0.40622507 0 0)
(-0.46390036 0 0)
(-0.51776017 0 0)
(-0.56798646 0 0)
(-0.6148264 0 0)
(-0.65854594 0 0)
(-0.69922133 0 0)
(-0.73691637 0 0)
(-0.77169185 0 0)
(-0.80355434 0 0)
(-0.83243834 0 0)
(-0.85825345 0 0)
(-0.8809066 0 0)
(-0.90030743 0 0)
(-0.91637888 0 0)
(-0.92911194 0 0)
(-0.93858602 0 0)
(-0.94493824 0 0)
(-0.94844265 0 0)
(-0.94950934 0 0)
(-0.94872642 0 0)
(-0.94684938 0 0)
(-0.94484169 0 0)
(-0.94392176 0 0)
(-0.94554583 0 0)
(-0.044439288 0 0)
(-0.12840264 0 0)
(-0.20581746 0 0)
(-0.27766083 0 0)
(-0.34440772 0 0)
(-0.40644425 0 0)
(-0.46419449 0 0)
(-0.51815839 0 0)
(-0.56852195 0 0)
(-0.61553932 0 0)
(-0.65950014 0 0)
(-0.70048901 0 0)
(-0.73858487 0 0)
(-0.77386363 0 0)
(-0.80634461 0 0)
(-0.83597288 0 0)
(-0.86266647 0 0)
(-0.88633079 0 0)
(-0.90686176 0 0)
(-0.92415363 0 0)
(-0.9381431 0 0)
(-0.9488396 0 0)
(-0.95630561 0 0)
(-0.96071119 0 0)
(-0.96235016 0 0)
(-0.96166802 0 0)
(-0.95927067 0 0)
(-0.95592779 0 0)
(-0.95264387 0 0)
(-0.95063181 0 0)
(-0.95136835 0 0)
(-0.044230761 0 0)
(-0.12803342 0 0)
(-0.20588564 0 0)
(-0.2777652 0 0)
(-0.34455005 0 0)
(-0.4066364 0 0)
(-0.4644525 0 0)
(-0.51850169 0 0)
(-0.56898013 0 0)
(-0.61614708 0 0)
(-0.66031417 0 0)
(-0.70157568 0 0)
(-0.74001971 0 0)
(-0.77573854 0 0)
(-0.80877568 0 0)
(-0.83908267 0 0)
(-0.86658102 0 0)
(-0.89118247 0 0)
(-0.91278651 0 0)
(-0.93127429 0 0)
(-0.94653415 0 0)
(-0.95850924 0 0)
(-0.96721797 0 0)
(-0.97275141 0 0)
(-0.97528118 0 0)
(-0.97513496 0 0)
(-0.97277392 0 0)
(-0.96883574 0 0)
(-0.96412012 0 0)
(-0.95963051 0 0)
(-0.95660583 0 0)
(-0.95651854 0 0)
(-0.044040857 0 0)
(-0.12740769 0 0)
(-0.20534652 0 0)
(-0.2778579 0 0)
(-0.34468007 0 0)
(-0.40680845 0 0)
(-0.46467883 0 0)
(-0.5188004 0 0)
(-0.56937502 0 0)
(-0.61666885 0 0)
(-0.66100987 0 0)
(-0.70250163 0 0)
(-0.74124762 0 0)
(-0.77735469 0 0)
(-0.81088168 0 0)
(-0.84179284 0 0)
(-0.87002431 0 0)
(-0.89549498 0 0)
(-0.91810454 0 0)
(-0.93772915 0 0)
(-0.95424322 0 0)
(-0.96753509 0 0)
(-0.97756193 0 0)
(-0.9843595 0 0)
(-0.98801143 0 0)
(-0.98873016 0 0)
(-0.98686304 0 0)
(-0.98290477 0 0)
(-0.97750672 0 0)
(-0.97148328 0 0)
(-0.96586942 0 0)
(-0.96189231 0 0)
(-0.96103954 0 0)
(-0.043873543 0 0)
(-0.12684382 0 0)
(-0.20435949 0 0)
(-0.2771644 0 0)
(-0.34479606 0 0)
(-0.40696684 0 0)
(-0.46488307 0 0)
(-0.51906275 0 0)
(-0.56971712 0 0)
(-0.6171172 0 0)
(-0.66160487 0 0)
(-0.70329425 0 0)
(-0.7422994 0 0)
(-0.77873947 0 0)
(-0.8126996 0 0)
(-0.84415248 0 0)
(-0.87304259 0 0)
(-0.89930059 0 0)
(-0.92283882 0 0)
(-0.94353684 0 0)
(-0.96125172 0 0)
(-0.97584809 0 0)
(-0.98723144 0 0)
(-0.99536821 0 0)
(-1.0002981 0 0)
(-1.0021397 0 0)
(-1.0011136 0 0)
(-0.99760287 0 0)
(-0.99211505 0 0)
(-0.98532925 0 0)
(-0.97808424 0 0)
(-0.97141096 0 0)
(-0.96655307 0 0)
(-0.96499071 0 0)
(-0.043728162 0 0)
(-0.12634327 0 0)
(-0.20346785 0 0)
(-0.27585069 0 0)
(-0.34396499 0 0)
(-0.40710626 0 0)
(-0.46507094 0 0)
(-0.51929905 0 0)
(-0.57001775 0 0)
(-0.61750728 0 0)
(-0.66211704 0 0)
(-0.70397032 0 0)
(-0.74319647 0 0)
(-0.77992686 0 0)
(-0.8142638 0 0)
(-0.84618991 0 0)
(-0.87566818 0 0)
(-0.90264151 0 0)
(-0.92703198 0 0)
(-0.9487205 0 0)
(-0.96756819 0 0)
(-0.98342938 0 0)
(-0.99616949 0 0)
(-1.0056989 0 0)
(-1.0120008 0 0)
(-1.0151302 0 0)
(-1.0152093 0 0)
(-1.0125035 0 0)
(-1.0074126 0 0)
(-1.0004741 0 0)
(-0.99237681 0 0)
(-0.98397303 0 0)
(-0.97631571 0 0)
(-0.97063103 0 0)
(-0.96841116 0 0)
(-0.043607558 0 0)
(-0.12591331 0 0)
(-0.20268003 0 0)
(-0.2746636 0 0)
(-0.34235944 0 0)
(-0.40615805 0 0)
(-0.46523817 0 0)
(-0.51951245 0 0)
(-0.57028401 0 0)
(-0.6178488 0 0)
(-0.66255991 0 0)
(-0.70455192 0 0)
(-0.74396522 0 0)
(-0.78094079 0 0)
(-0.81560641 0 0)
(-0.84795115 0 0)
(-0.87794924 0 0)
(-0.90555848 0 0)
(-0.93071861 0 0)
(-0.95332329 0 0)
(-0.97322814 0 0)
(-0.99028299 0 0)
(-1.0043439 0 0)
(-1.0152758 0 0)
(-1.0230018 0 0)
(-1.0275154 0 0)
(-1.0288856 0 0)
(-1.0272719 0 0)
(-1.0229501 0 0)
(-1.016354 0 0)
(-1.008031 0 0)
(-0.99869255 0 0)
(-0.98920946 0 0)
(-0.98062709 0 0)
(-0.97417928 0 0)
(-0.97135088 0 0)
(-0.043511013 0 0)
(-0.12555361 0 0)
(-0.20200194 0 0)
(-0.27361581 0 0)
(-0.34090747 0 0)
(-0.40429293 0 0)
(-0.46418785 0 0)
(-0.51970476 0 0)
(-0.57052765 0 0)
(-0.61815337 0 0)
(-0.66294807 0 0)
(-0.70505274 0 0)
(-0.74462254 0 0)
(-0.78180938 0 0)
(-0.8167582 0 0)
(-0.84946315 0 0)
(-0.8799179 0 0)
(-0.90809434 0 0)
(-0.93394849 0 0)
(-0.957382 0 0)
(-0.97825987 0 0)
(-0.99643614 0 0)
(-1.0117541 0 0)
(-1.0240597 0 0)
(-1.0332305 0 0)
(-1.0391991 0 0)
(-1.0419748 0 0)
(-1.0416481 0 0)
(-1.0383898 0 0)
(-1.0325173 0 0)
(-1.0244793 0 0)
(-1.0148479 0 0)
(-1.0043402 0 0)
(-0.99383769 0 0)
(-0.98439862 0 0)
(-0.9772361 0 0)
(-0.97384583 0 0)
(-0.043440758 0 0)
(-0.12526943 0 0)
(-0.20143776 0 0)
(-0.2727143 0 0)
(-0.33962675 0 0)
(-0.40260894 0 0)
(-0.46209424 0 0)
(-0.51855489 0 0)
(-0.57074086 0 0)
(-0.61843106 0 0)
(-0.66329272 0 0)
(-0.70548996 0 0)
(-0.74519027 0 0)
(-0.78255306 0 0)
(-0.81774608 0 0)
(-0.85076621 0 0)
(-0.88161922 0 0)
(-0.91029201 0 0)
(-0.93676106 0 0)
(-0.96094629 0 0)
(-0.98271528 0 0)
(-1.0019234 0 0)
(-1.0184208 0 0)
(-1.0320451 0 0)
(-1.0426399 0 0)
(-1.0500892 0 0)
(-1.0543448 0 0)
(-1.0554264 0 0)
(-1.0534462 0 0)
(-1.0486116 0 0)
(-1.0412512 0 0)
(-1.0318441 0 0)
(-1.0209695 0 0)
(-1.0093601 0 0)
(-0.99791079 0 0)
(-0.9876681 0 0)
(-0.97984676 0 0)
(-0.97593833 0 0)
(-0.043396061 0 0)
(-0.1250612 0 0)
(-0.20099154 0 0)
(-0.271965 0 0)
(-0.3385243 0 0)
(-0.40112198 0 0)
(-0.46020436 0 0)
(-0.51625128 0 0)
(-0.56950934 0 0)
(-0.61867623 0 0)
(-0.66360342 0 0)
(-0.70587589 0 0)
(-0.74568188 0 0)
(-0.78319396 0 0)
(-0.81859633 0 0)
(-0.85188393 0 0)
(-0.88308186 0 0)
(-0.91219046 0 0)
(-0.93920549 0 0)
(-0.96405959 0 0)
(-0.98663182 0 0)
(-1.0067908 0 0)
(-1.0243851 0 0)
(-1.0392507 0 0)
(-1.0512225 0 0)
(-1.0601433 0 0)
(-1.0659108 0 0)
(-1.0684909 0 0)
(-1.0679264 0 0)
(-1.0643527 0 0)
(-1.0579915 0 0)
(-1.0492087 0 0)
(-1.0384961 0 0)
(-1.0264508 0 0)
(-1.0138082 0 0)
(-1.0014677 0 0)
(-0.99048185 0 0)
(-0.9820461 0 0)
(-0.97766124 0 0)
(-0.043378318 0 0)
(-0.12493146 0 0)
(-0.20066676 0 0)
(-0.2713732 0 0)
(-0.33760862 0 0)
(-0.39984406 0 0)
(-0.45853631 0 0)
(-0.51416771 0 0)
(-0.56701359 0 0)
(-0.61737589 0 0)
(-0.66387887 0 0)
(-0.70622144 0 0)
(-0.74611444 0 0)
(-0.78374981 0 0)
(-0.81933045 0 0)
(-0.85284935 0 0)
(-0.88434461 0 0)
(-0.91382974 0 0)
(-0.94132093 0 0)
(-0.9667712 0 0)
(-0.99006706 0 0)
(-1.0110842 0 0)
(-1.0296853 0 0)
(-1.0457107 0 0)
(-1.0589821 0 0)
(-1.0693262 0 0)
(-1.0766082 0 0)
(-1.0807349 0 0)
(-1.0816841 0 0)
(-1.0795165 0 0)
(-1.0743954 0 0)
(-1.0665755 0 0)
(-1.056433 0 0)
(-1.044485 0 0)
(-1.031333 0 0)
(-1.0177213 0 0)
(-1.0045551 0 0)
(-0.99287382 0 0)
(-0.98387261 0 0)
(-0.97904994 0 0)
(-0.12488083 0 0)
(-0.043380954 0 0)
(-0.20046529 0 0)
(-0.27094293 0 0)
(-0.33688536 0 0)
(-0.39878195 0 0)
(-0.4571032 0 0)
(-0.51233237 0 0)
(-0.56476127 0 0)
(-0.61471473 0 0)
(-0.66250878 0 0)
(-0.70652621 0 0)
(-0.74650161 0 0)
(-0.78423745 0 0)
(-0.81996963 0 0)
(-0.85368292 0 0)
(-0.88543217 0 0)
(-0.91524304 0 0)
(-0.94315115 0 0)
(-0.96912522 0 0)
(-0.99306149 0 0)
(-1.0148547 0 0)
(-1.0343753 0 0)
(-1.0514668 0 0)
(-1.0659566 0 0)
(-1.0776644 0 0)
(-1.0864243 0 0)
(-1.0920998 0 0)
(-1.0946154 0 0)
(-1.0939685 0 0)
(-1.0902473 0 0)
(-1.0836385 0 0)
(-1.0744118 0 0)
(-1.0629747 0 0)
(-1.0498548 0 0)
(-1.035665 0 0)
(-1.021148 0 0)
(-1.0072072 0 0)
(-0.99488406 0 0)
(-0.98535804 0 0)
(-0.98013456 0 0)
(-0.20038937 0 0)
(-0.12489183 0 0)
(-0.043404693 0 0)
(-0.27067764 0 0)
(-0.33636003 0 0)
(-0.39794432 0 0)
(-0.45591283 0 0)
(-0.51075271 0 0)
(-0.56277389 0 0)
(-0.61231364 0 0)
(-0.65969022 0 0)
(-0.7050957 0 0)
(-0.74683973 0 0)
(-0.78467501 0 0)
(-0.82053241 0 0)
(-0.85441037 0 0)
(-0.88637608 0 0)
(-0.91646504 0 0)
(-0.94473196 0 0)
(-0.97116581 0 0)
(-0.99567076 0 0)
(-1.018153 0 0)
(-1.0385015 0 0)
(-1.0565723 0 0)
(-1.0721924 0 0)
(-1.0851772 0 0)
(-1.0953463 0 0)
(-1.1025402 0 0)
(-1.1066428 0 0)
(-1.1075852 0 0)
(-1.1053867 0 0)
(-1.1001566 0 0)
(-1.0921097 0 0)
(-1.0815436 0 0)
(-1.0688743 0 0)
(-1.0546502 0 0)
(-1.0394844 0 0)
(-1.0241215 0 0)
(-1.0094646 0 0)
(-0.99654292 0 0)
(-0.98653456 0 0)
(-0.98094463 0 0)
(-0.27057885 0 0)
(-0.2004108 0 0)
(-0.12496617 0 0)
(-0.043454799 0 0)
(-0.33603664 0 0)
(-0.39733638 0 0)
(-0.4549746 0 0)
(-0.50944281 0 0)
(-0.56106717 0 0)
(-0.61019626 0 0)
(-0.65714518 0 0)
(-0.70213179 0 0)
(-0.74535885 0 0)
(-0.7850581 0 0)
(-0.82103365 0 0)
(-0.85505035 0 0)
(-0.8871976 0 0)
(-0.91752336 0 0)
(-0.94609975 0 0)
(-0.97293285 0 0)
(-0.99793361 0 0)
(-1.0210286 0 0)
(-1.0421209 0 0)
(-1.0610757 0 0)
(-1.0777312 0 0)
(-1.0919069 0 0)
(-1.1034138 0 0)
(-1.1120734 0 0)
(-1.1177388 0 0)
(-1.1202934 0 0)
(-1.119692 0 0)
(-1.1159784 0 0)
(-1.1092913 0 0)
(-1.0998656 0 0)
(-1.0880143 0 0)
(-1.0741775 0 0)
(-1.0589114 0 0)
(-1.0428337 0 0)
(-1.026684 0 0)
(-1.0113575 0 0)
(-0.99788427 0 0)
(-0.98743125 0 0)
(-0.98150746 0 0)
(-0.33591693 0 0)
(-0.27061083 0 0)
(-0.20053102 0 0)
(-0.12511845 0 0)
(-0.043531292 0 0)
(-0.39696295 0 0)
(-0.45429454 0 0)
(-0.50840918 0 0)
(-0.55965016 0 0)
(-0.60837843 0 0)
(-0.6549039 0 0)
(-0.69945545 0 0)
(-0.74225805 0 0)
(-0.78353866 0 0)
(-0.82147487 0 0)
(-0.85561928 0 0)
(-0.88791961 0 0)
(-0.91844601 0 0)
(-0.94728572 0 0)
(-0.97446427 0 0)
(-0.99989949 0 0)
(-1.0235309 0 0)
(-1.0452816 0 0)
(-1.0650345 0 0)
(-1.0826348 0 0)
(-1.0979063 0 0)
(-1.1106624 0 0)
(-1.1207155 0 0)
(-1.1278866 0 0)
(-1.1320352 0 0)
(-1.1330726 0 0)
(-1.1309649 0 0)
(-1.125783 0 0)
(-1.1176859 0 0)
(-1.1069346 0 0)
(-1.0938646 0 0)
(-1.0789222 0 0)
(-1.0626788 0 0)
(-1.0457473 0 0)
(-1.0288651 0 0)
(-1.0129206 0 0)
(-0.99893574 0 0)
(-0.98807489 0 0)
(-0.98184698 0 0)
(-0.3968267 0 0)
(-0.33595755 0 0)
(-0.27077326 0 0)
(-0.20077561 0 0)
(-0.12535115 0 0)
(-0.043633679 0 0)
(-0.45387776 0 0)
(-0.50766042 0 0)
(-0.5585339 0 0)
(-0.60687036 0 0)
(-0.65297881 0 0)
(-0.6970989 0 0)
(-0.73946103 0 0)
(-0.78031637 0 0)
(-0.81992526 0 0)
(-0.85611957 0 0)
(-0.88856265 0 0)
(-0.91925702 0 0)
(-0.94831923 0 0)
(-0.97579428 0 0)
(-1.0016032 0 0)
(-1.0257041 0 0)
(-1.0480378 0 0)
(-1.0685 0 0)
(-1.0869501 0 0)
(-1.1032238 0 0)
(-1.1171379 0 0)
(-1.1284997 0 0)
(-1.1371155 0 0)
(-1.1428179 0 0)
(-1.1454834 0 0)
(-1.1450267 0 0)
(-1.1414462 0 0)
(-1.1348364 0 0)
(-1.125384 0 0)
(-1.1133668 0 0)
(-1.0991343 0 0)
(-1.0831499 0 0)
(-1.0659885 0 0)
(-1.0482623 0 0)
(-1.0307012 0 0)
(-1.0141813 0 0)
(-0.99972601 0 0)
(-0.98849194 0 0)
(-0.98198829 0 0)
(-0.45372739 0 0)
(-0.39687549 0 0)
(-0.33615737 0 0)
(-0.27110311 0 0)
(-0.20114541 0 0)
(-0.12565866 0 0)
(-0.04376112 0 0)
(-0.50720185 0 0)
(-0.55772554 0 0)
(-0.6056831 0 0)
(-0.65138363 0 0)
(-0.69507583 0 0)
(-0.73699753 0 0)
(-0.7774121 0 0)
(-0.81659887 0 0)
(-0.8545484 0 0)
(-0.88912232 0 0)
(-0.9199757 0 0)
(-0.94922723 0 0)
(-0.97695369 0 0)
(-1.0030853 0 0)
(-1.0275925 0 0)
(-1.0504349 0 0)
(-1.0715269 0 0)
(-1.0907403 0 0)
(-1.1079208 0 0)
(-1.1228935 0 0)
(-1.1354705 0 0)
(-1.1454528 0 0)
(-1.1526487 0 0)
(-1.1568995 0 0)
(-1.1580946 0 0)
(-1.1561783 0 0)
(-1.1511642 0 0)
(-1.1431761 0 0)
(-1.1324184 0 0)
(-1.1191911 0 0)
(-1.1038615 0 0)
(-1.0868952 0 0)
(-1.0688771 0 0)
(-1.05041 0 0)
(-1.0322189 0 0)
(-1.0151683 0 0)
(-1.0002801 0 0)
(-0.98870408 0 0)
(-0.98195086 0 0)
(-0.50703554 0 0)
(-0.45378443 0 0)
(-0.39711088 0 0)
(-0.33656248 0 0)
(-0.27159804 0 0)
(-0.20163573 0 0)
(-0.12604446 0 0)
(-0.043913104 0 0)
(-0.55723081 0 0)
(-0.60482486 0 0)
(-0.65012798 0 0)
(-0.69339986 0 0)
(-0.73488432 0 0)
(-0.77485466 0 0)
(-0.81359794 0 0)
(-0.85112763 0 0)
(-0.88753613 0 0)
(-0.92060618 0 0)
(-0.9500305 0 0)
(-0.97796986 0 0)
(-1.0043768 0 0)
(-1.0292341 0 0)
(-1.0525203 0 0)
(-1.0741647 0 0)
(-1.0940535 0 0)
(-1.1120492 0 0)
(-1.127987 0 0)
(-1.1416834 0 0)
(-1.1529391 0 0)
(-1.1615551 0 0)
(-1.1673439 0 0)
(-1.1701612 0 0)
(-1.1699185 0 0)
(-1.166568 0 0)
(-1.1601581 0 0)
(-1.1508358 0 0)
(-1.13883 0 0)
(-1.1244523 0 0)
(-1.1080824 0 0)
(-1.0901959 0 0)
(-1.0713767 0 0)
(-1.0522218 0 0)
(-1.0334481 0 0)
(-1.0159072 0 0)
(-1.0006215 0 0)
(-0.98873557 0 0)
(-0.98175734 0 0)
(-0.55705361 0 0)
(-0.50709939 0 0)
(-0.4540498 0 0)
(-0.39758248 0 0)
(-0.33716891 0 0)
(-0.2722557 0 0)
(-0.20224589 0 0)
(-0.12649978 0 0)
(-0.044088168 0 0)
(-0.60430096 0 0)
(-0.64922094 0 0)
(-0.69208255 0 0)
(-0.73313465 0 0)
(-0.77266261 0 0)
(-0.81095819 0 0)
(-0.84804126 0 0)
(-0.8840212 0 0)
(-0.9190054 0 0)
(-0.95073602 0 0)
(-0.97886979 0 0)
(-1.0055082 0 0)
(-1.0306655 0 0)
(-1.0543343 0 0)
(-1.0764618 0 0)
(-1.0969482 0 0)
(-1.1156705 0 0)
(-1.1324759 0 0)
(-1.1471927 0 0)
(-1.1596271 0 0)
(-1.1695735 0 0)
(-1.1768317 0 0)
(-1.181227 0 0)
(-1.1826288 0 0)
(-1.1809642 0 0)
(-1.1762179 0 0)
(-1.1684548 0 0)
(-1.1578514 0 0)
(-1.1446499 0 0)
(-1.1291795 0 0)
(-1.1118328 0 0)
(-1.0930834 0 0)
(-1.0735195 0 0)
(-1.0537265 0 0)
(-1.0344144 0 0)
(-1.0164217 0 0)
(-1.0007733 0 0)
(-0.98860406 0 0)
(-0.98142315 0 0)
(-0.60411613 0 0)
(-0.55712277 0 0)
(-0.50739008 0 0)
(-0.4545805 0 0)
(-0.39829086 0 0)
(-0.33797545 0 0)
(-0.2730714 0 0)
(-0.20296958 0 0)
(-0.12702864 0 0)
(-0.044285853 0 0)
(-0.64866874 0 0)
(-0.69113163 0 0)
(-0.7317599 0 0)
(-0.77084815 0 0)
(-0.80869417 0 0)
(-0.84532796 0 0)
(-0.88085636 0 0)
(-0.91540637 0 0)
(-0.94913025 0 0)
(-0.97965279 0 0)
(-1.0065091 0 0)
(-1.0319203 0 0)
(-1.0559164 0 0)
(-1.0784623 0 0)
(-1.0994702 0 0)
(-1.1188352 0 0)
(-1.1364189 0 0)
(-1.1520608 0 0)
(-1.1655723 0 0)
(-1.1767527 0 0)
(-1.185397 0 0)
(-1.1913092 0 0)
(-1.1943244 0 0)
(-1.1943309 0 0)
(-1.1912779 0 0)
(-1.1851638 0 0)
(-1.1760911 0 0)
(-1.1642548 0 0)
(-1.1499169 0 0)
(-1.1334128 0 0)
(-1.1151456 0 0)
(-1.095591 0 0)
(-1.0753345 0 0)
(-1.0549508 0 0)
(-1.0351427 0 0)
(-1.016736 0 0)
(-1.000755 0 0)
(-0.98833187 0 0)
(-0.98096929 0 0)
(-0.64847467 0 0)
(-0.60419322 0 0)
(-0.55744083 0 0)
(-0.50797636 0 0)
(-0.45537571 0 0)
(-0.39922804 0 0)
(-0.33897463 0 0)
(-0.27404077 0 0)
(-0.20380513 0 0)
(-0.12762057 0 0)
(-0.044503437 0 0)
(-0.69055618 0 0)
(-0.73077 0 0)
(-0.76942373 0 0)
(-0.80682114 0 0)
(-0.84300032 0 0)
(-0.87807079 0 0)
(-0.91216352 0 0)
(-0.94545443 0 0)
(-0.97804963 0 0)
(-1.0073774 0 0)
(-1.0330255 0 0)
(-1.0573029 0 0)
(-1.0802074 0 0)
(-1.10167 0 0)
(-1.1216002 0 0)
(-1.1398732 0 0)
(-1.1563443 0 0)
(-1.1708373 0 0)
(-1.1831536 0 0)
(-1.1930886 0 0)
(-1.2004393 0 0)
(-1.2050127 0 0)
(-1.2066604 0 0)
(-1.2052891 0 0)
(-1.2008679 0 0)
(-1.1934301 0 0)
(-1.183094 0 0)
(-1.1700808 0 0)
(-1.1546608 0 0)
(-1.137181 0 0)
(-1.1180538 0 0)
(-1.0977478 0 0)
(-1.0768493 0 0)
(-1.0559212 0 0)
(-1.0356568 0 0)
(-1.0168688 0 0)
(-1.0005879 0 0)
(-0.98793216 0 0)
(-0.98040676 0 0)
(-0.69035663 0 0)
(-0.64855993 0 0)
(-0.60453478 0 0)
(-0.55807433 0 0)
(-0.50884971 0 0)
(-0.45642831 0 0)
(-0.40039297 0 0)
(-0.34016288 0 0)
(-0.27515794 0 0)
(-0.2047454 0 0)
(-0.12827796 0 0)
(-0.044685838 0 0)
(-0.7301709 0 0)
(-0.76839935 0 0)
(-0.80534976 0 0)
(-0.84107566 0 0)
(-0.87568601 0 0)
(-0.90931561 0 0)
(-0.94214242 0 0)
(-0.97429935 0 0)
(-1.0057799 0 0)
(-1.0339899 0 0)
(-1.0585222 0 0)
(-1.0817341 0 0)
(-1.1035889 0 0)
(-1.1240115 0 0)
(-1.1428933 0 0)
(-1.1601051 0 0)
(-1.1754805 0 0)
(-1.1888319 0 0)
(-1.1999606 0 0)
(-1.2086574 0 0)
(-1.2147167 0 0)
(-1.2179601 0 0)
(-1.2182544 0 0)
(-1.2155285 0 0)
(-1.2097774 0 0)
(-1.2010499 0 0)
(-1.1894989 0 0)
(-1.1753603 0 0)
(-1.1589181 0 0)
(-1.1405201 0 0)
(-1.1205874 0 0)
(-1.0995826 0 0)
(-1.0780907 0 0)
(-1.0566599 0 0)
(-1.0359769 0 0)
(-1.0168434 0 0)
(-1.0002867 0 0)
(-0.98742539 0 0)
(-0.97971293 0 0)
(-0.72996806 0 0)
(-0.69045272 0 0)
(-0.64892297 0 0)
(-0.60521218 0 0)
(-0.55902417 0 0)
(-0.51001095 0 0)
(-0.45773336 0 0)
(-0.40177273 0 0)
(-0.34153113 0 0)
(-0.27641537 0 0)
(-0.20578163 0 0)
(-0.12867735 0 0)
(-0.044679104 0 0)
(-0.76778058 0 0)
(-0.80429077 0 0)
(-0.83956413 0 0)
(-0.87371168 0 0)
(-0.90687552 0 0)
(-0.93923702 0 0)
(-0.97092645 0 0)
(-1.0019599 0 0)
(-1.0323983 0 0)
(-1.0595871 0 0)
(-1.0830792 0 0)
(-1.1052675 0 0)
(-1.1261175 0 0)
(-1.1455317 0 0)
(-1.1633975 0 0)
(-1.1795647 0 0)
(-1.1938541 0 0)
(-1.2060732 0 0)
(-1.2160181 0 0)
(-1.2234771 0 0)
(-1.2282499 0 0)
(-1.2301706 0 0)
(-1.2291283 0 0)
(-1.22507 0 0)
(-1.2180162 0 0)
(-1.2080484 0 0)
(-1.1953329 0 0)
(-1.180127 0 0)
(-1.1627176 0 0)
(-1.1434584 0 0)
(-1.1227761 0 0)
(-1.1011231 0 0)
(-1.0790821 0 0)
(-1.0571919 0 0)
(-1.036126 0 0)
(-1.0166737 0 0)
(-0.9998711 0 0)
(-0.98671239 0 0)
(-0.97885825 0 0)
(-0.76757429 0 0)
(-0.73007072 0 0)
(-0.69083955 0 0)
(-0.64964537 0 0)
(-0.6062265 0 0)
(-0.56027971 0 0)
(-0.51144595 0 0)
(-0.45928071 0 0)
(-0.40336435 0 0)
(-0.34307207 0 0)
(-0.27780192 0 0)
(-0.20636925 0 0)
(-0.12867037 0 0)
(-0.044671044 0 0)
(-0.80365113 0 0)
(-0.83847669 0 0)
(-0.87216377 0 0)
(-0.90485987 0 0)
(-0.93674761 0 0)
(-0.96796424 0 0)
(-0.99852857 0 0)
(-1.0285148 0 0)
(-1.0580099 0 0)
(-1.0842469 0 0)
(-1.1067454 0 0)
(-1.1279609 0 0)
(-1.147837 0 0)
(-1.1662788 0 0)
(-1.1831474 0 0)
(-1.1982774 0 0)
(-1.2114895 0 0)
(-1.2225826 0 0)
(-1.2313439 0 0)
(-1.2375658 0 0)
(-1.2410546 0 0)
(-1.2416631 0 0)
(-1.2393002 0 0)
(-1.2339389 0 0)
(-1.2256253 0 0)
(-1.2144569 0 0)
(-1.2006297 0 0)
(-1.1844104 0 0)
(-1.1660929 0 0)
(-1.1460274 0 0)
(-1.124648 0 0)
(-1.1023931 0 0)
(-1.0798488 0 0)
(-1.0575349 0 0)
(-1.0361192 0 0)
(-1.0163821 0 0)
(-0.99913684 0 0)
(-0.98580341 0 0)
(-0.97786959 0 0)
(-0.80343479 0 0)
(-0.76768338 0 0)
(-0.73048157 0 0)
(-0.69160595 0 0)
(-0.65072074 0 0)
(-0.60756613 0 0)
(-0.56183929 0 0)
(-0.51315333 0 0)
(-0.46106264 0 0)
(-0.40515405 0 0)
(-0.34476948 0 0)
(-0.27856363 0 0)
(-0.20634638 0 0)
(-0.12865454 0 0)
(-0.044659686 0 0)
(-0.83782094 0 0)
(-0.87104895 0 0)
(-0.90327775 0 0)
(-0.93469408 0 0)
(-0.96543139 0 0)
(-0.99551472 0 0)
(-1.0250235 0 0)
(-1.0540667 0 0)
(-1.0826949 0 0)
(-1.1080258 0 0)
(-1.1295784 0 0)
(-1.1498541 0 0)
(-1.1687974 0 0)
(-1.1862862 0 0)
(-1.202167 0 0)
(-1.2162717 0 0)
(-1.2284111 0 0)
(-1.238376 0 0)
(-1.2459523 0 0)
(-1.2509337 0 0)
(-1.253143 0 0)
(-1.2524508 0 0)
(-1.2487906 0 0)
(-1.2421554 0 0)
(-1.2326172 0 0)
(-1.2203028 0 0)
(-1.2054171 0 0)
(-1.1882428 0 0)
(-1.169072 0 0)
(-1.1482553 0 0)
(-1.1262291 0 0)
(-1.10342 0 0)
(-1.0804095 0 0)
(-1.0577129 0 0)
(-1.0359792 0 0)
(-1.0156214 0 0)
(-0.99811655 0 0)
(-0.98476276 0 0)
(-0.97673755 0 0)
(-0.83759975 0 0)
(-0.80354595 0 0)
(-0.7681124 0 0)
(-0.73128487 0 0)
(-0.69274219 0 0)
(-0.65214569 0 0)
(-0.60922802 0 0)
(-0.5636862 0 0)
(-0.51511597 0 0)
(-0.46306811 0 0)
(-0.40712495 0 0)
(-0.34568691 0 0)
(-0.27853737 0 0)
(-0.20631667 0 0)
(-0.12863831 0 0)
(-0.044647783 0 0)
(-0.87037698 0 0)
(-0.90214117 0 0)
(-0.93308243 0 0)
(-0.96333885 0 0)
(-0.99294123 0 0)
(-1.0219645 0 0)
(-1.0505217 0 0)
(-1.0786954 0 0)
(-1.1065043 0 0)
(-1.1309855 0 0)
(-1.1516268 0 0)
(-1.171003 0 0)
(-1.189034 0 0)
(-1.2055774 0 0)
(-1.2204824 0 0)
(-1.2335696 0 0)
(-1.2446339 0 0)
(-1.2534642 0 0)
(-1.2598498 0 0)
(-1.2635924 0 0)
(-1.2645282 0 0)
(-1.2625523 0 0)
(-1.2576174 0 0)
(-1.2497451 0 0)
(-1.2390312 0 0)
(-1.2256161 0 0)
(-1.2097274 0 0)
(-1.1916529 0 0)
(-1.1716855 0 0)
(-1.1501693 0 0)
(-1.1275461 0 0)
(-1.1042221 0 0)
(-1.0807893 0 0)
(-1.0577392 0 0)
(-1.0351928 0 0)
(-1.0144495 0 0)
(-0.99698202 0 0)
(-0.98359421 0 0)
(-0.97546816 0 0)
(-0.87015047 0 0)
(-0.83771437 0 0)
(-0.8039826 0 0)
(-0.76894762 0 0)
(-0.7324807 0 0)
(-0.69424772 0 0)
(-0.65390777 0 0)
(-0.61119632 0 0)
(-0.56581641 0 0)
(-0.51732745 0 0)
(-0.46527576 0 0)
(-0.4081762 0 0)
(-0.34565569 0 0)
(-0.27849883 0 0)
(-0.20628196 0 0)
(-0.12861277 0 0)
(-0.044631126 0 0)
(-0.9014555 0 0)
(-0.93192723 0 0)
(-0.96170094 0 0)
(-0.99081458 0 0)
(-1.0193494 0 0)
(-1.0474197 0 0)
(-1.0751065 0 0)
(-1.1024564 0 0)
(-1.1294947 0 0)
(-1.1531644 0 0)
(-1.1729413 0 0)
(-1.1914423 0 0)
(-1.208568 0 0)
(-1.224182 0 0)
(-1.238119 0 0)
(-1.2501845 0 0)
(-1.2601682 0 0)
(-1.2678594 0 0)
(-1.2730523 0 0)
(-1.2755549 0 0)
(-1.2752252 0 0)
(-1.2719813 0 0)
(-1.2658029 0 0)
(-1.2567299 0 0)
(-1.2448832 0 0)
(-1.2304253 0 0)
(-1.2135884 0 0)
(-1.194671 0 0)
(-1.1739607 0 0)
(-1.1517974 0 0)
(-1.1286198 0 0)
(-1.104827 0 0)
(-1.0810029 0 0)
(-1.0569305 0 0)
(-1.0338413 0 0)
(-1.0131851 0 0)
(-0.99573427 0 0)
(-0.98228779 0 0)
(-0.97405088 0 0)
(-0.90122615 0 0)
(-0.87026535 0 0)
(-0.8381615 0 0)
(-0.80484331 0 0)
(-0.77019079 0 0)
(-0.73405635 0 0)
(-0.69610657 0 0)
(-0.65600049 0 0)
(-0.6134651 0 0)
(-0.56821103 0 0)
(-0.51976065 0 0)
(-0.46643846 0 0)
(-0.40813204 0 0)
(-0.34560993 0 0)
(-0.27845401 0 0)
(-0.20623975 0 0)
(-0.12858215 0 0)
(-0.044612878 0 0)
(-0.93123131 0 0)
(-0.96052375 0 0)
(-0.98915214 0 0)
(-1.0171939 0 0)
(-1.0447677 0 0)
(-1.0719634 0 0)
(-1.0988286 0 0)
(-1.1254073 0 0)
(-1.1517187 0 0)
(-1.1746217 0 0)
(-1.1935564 0 0)
(-1.2111901 0 0)
(-1.2274286 0 0)
(-1.2421241 0 0)
(-1.2550896 0 0)
(-1.2661238 0 0)
(-1.2750197 0 0)
(-1.2815638 0 0)
(-1.2855525 0 0)
(-1.2868208 0 0)
(-1.2852432 0 0)
(-1.2807579 0 0)
(-1.2733664 0 0)
(-1.2631376 0 0)
(-1.2502108 0 0)
(-1.2347593 0 0)
(-1.2170307 0 0)
(-1.1973248 0 0)
(-1.1759243 0 0)
(-1.1531604 0 0)
(-1.1294758 0 0)
(-1.1052499 0 0)
(-1.0801722 0 0)
(-1.0553762 0 0)
(-1.0324244 0 0)
(-1.0118305 0 0)
(-0.99436513 0 0)
(-0.9808496 0 0)