/*--------------------------------*- C++ -*----------------------------------*\
| =========                 |                                                 |
| \\      /  F ield         | OpenFOAM: The Open Source CFD Toolbox           |
|  \\    /   O peration     | Version:  v2012                                 |
|   \\  /    A nd           | Website:  www.openfoam.com                      |
|    \\/     M anipulation  |                                                 |
\*---------------------------------------------------------------------------*/
FoamFile
{
    version     2.0;
    format      ascii;
    class       surfaceScalarField;
    location    "8.9741551682";
    object      meshPhi;
}
// * * * * * * * * * * * * * * * * * * * * * * * * * * * * * * * * * * * * * //

dimensions      [0 3 -1 0 0 0 0];
oriented        oriented;


internalField   nonuniform List<scalar> 
18180
(
0
0.04934574
0
0.045799283
8.50992e-14
0.092355839
0
0.042505378
0
0.085602191
-8.1896482e-14
0.1308437
-4.4262836e-14
0.039661283
0
0.079320618
0
0.12145977
0
0.1672926
-2.1694862e-17
0.037322869
0
0.074030743
0
0.11281077
0
0.15572734
0
0.20187623
0
0.035346764
4.2607541e-14
0.069637708
0
0.10523403
-7.8819943e-14
0.14494628
0
0.18850698
-2.9289157e-17
0.23489132
-2.2400613e-17
0.033586383
0
0.065852688
4.0982769e-14
0.098812272
0
0.13543432
0
0.17616095
0
0.21974538
7.0118102e-14
0.26577109
4.434064e-14
0.031957405
0
0.062447899
0
0.093247844
0
0.12705987
0
0.16482089
-7.2945184e-14
0.20582173
0
0.24907443
-2.5866756e-17
0.29496486
0
0.030421569
0
0.059259083
-4.1030339e-14
0.088168454
3.9452584e-14
0.11956305
7.5845533e-14
0.15450919
3.6485367e-14
0.19297388
7.0151837e-14
0.23388705
0
0.27665087
6.4914181e-14
0.32200742
4.4373139e-14
0.028958346
4.269092e-14
0.05622609
0
0.083410818
-1.62874e-17
0.1127758
0
0.14527426
-7.2998357e-14
0.1811457
0
0.21975458
-6.7524596e-14
0.26016035
0
0.30227023
0
0.34739819
0
0.027555313
-4.2704376e-14
0.053322156
0
0.078880788
0
0.10647874
-1.5930035e-17
0.13686153
3.6513057e-14
0.17022767
-3.5116634e-14
0.20645304
3.3774903e-14
0.24477982
0
0.28448694
0
0.32608802
0
0.37063019
4.4399643e-14
0.026203341
0
0.050532695
4.1053041e-14
0.074542838
0
0.10052816
-7.5943125e-14
0.12904644
-1.546651e-17
0.16020151
3.513085e-14
0.19403324
6.7550545e-14
0.23004987
6.4986174e-14
0.26773299
0
0.30696785
0
0.34799291
0
0.39211261
2.2217759e-14
0.024889674
0
0.0478514
0
0.070376522
0
0.094867429
-3.7991818e-14
0.1217203
3.6539766e-14
0.15091885
3.513009e-14
0.18246171
3.3803457e-14
0.21600394
0
0.25148531
-6.2536459e-14
0.28887277
-2.0973369e-17
0.32763014
0
0.36809391
0
0.41154533
4.4433016e-14
0.023603285
2.1368376e-14
0.045262038
0
0.066375612
0
0.089464565
-3.8003111e-14
0.11478511
0
0.14219743
0
0.17166958
-1.3457545e-17
0.20285975
-3.2516451e-14
0.23586837
-6.2588635e-14
0.27115275
3.0096615e-14
0.30832751
0
0.3466048
0
0.38639216
5.3578021e-14
0.42940288
2.2214488e-14
0.022337326
2.1362362e-14
0.042756116
-2.0541267e-14
0.062535429
0
0.084305786
0
0.10820523
0
0.13397383
0
0.16159782
0
0.1907097
-3.2543898e-14
0.22131501
1.1343624e-17
0.2541908
0
0.28951252
-2.8955402e-14
0.32631407
0
0.36388563
0
0.40305929
0
0.44543812
2.2231015e-14
0.021093801
2.1365904e-14
0.040328483
-8.5000922e-18
0.058854999
-1.9758009e-14
0.079383892
0
0.10195182
3.6573618e-14
0.12618876
-3.5182401e-14
0.15214143
0
0.17945239
0
0.2079943
-3.1320248e-14
0.23850819
-6.0245419e-14
0.27151205
-9.9127481e-18
0.30654628
-5.5737164e-14
0.3427502
-5.3634246e-14
0.37964649
-5.1597873e-14
0.41812275
-4.9645884e-14
0.46002394
0
0.019871148
0
0.037981265
-2.055682e-14
0.055332848
0
0.074696105
1.9015381e-14
0.096012703
0
0.11880596
0
0.14321149
-1.3614361e-17
0.16892435
0
0.19571065
0
0.22411509
0
0.25482229
1.0138354e-17
0.28772412
-9.1991387e-18
0.32227163
-2.6832034e-14
0.35779245
0
0.39389694
-4.9662985e-14
0.43171964
-1.1539155e-17
0.47306222
1.2938559e-17
0.018671015
0
0.035711873
2.0559627e-14
0.051973962
-8.4645937e-18
0.070243698
1.9010648e-14
0.090378404
1.829555e-14
0.11180003
0
0.13475205
0
0.15899983
0
0.18424112
0
0.21086017
0
0.23952145
2.9004791e-14
0.2702694
2.7911304e-14
0.30274664
2.6840424e-14
0.33666837
-2.5826749e-14
0.37145567
0
0.40678317
0
0.44394557
0
0.48490118
0
0.01749828
0
0.033519753
0
0.048783074
0
0.066027095
-8.4115636e-18
0.085043155
0
0.1051559
0
0.12672721
0
0.14959734
0
0.17343304
0
0.19851992
0
0.22534447
0
0.25408333
2.7919741e-14
0.28456078
-2.6858211e-14
0.31656188
-7.7500601e-18
0.34986263
-2.4853231e-14
0.38384214
-1.1817654e-17
0.41835335
-4.6012979e-14
0.4549416
-4.4274038e-14
0.49545815
0
0.01635964
0
0.031408204
-2.0555609e-14
0.045759223
1.9769773e-14
0.062042249
0
0.079998394
1.8294513e-14
0.09885702
0
0.11911367
6.9144591e-18
0.14067575
0
0.16317675
0
0.18687616
3.0180391e-14
0.21208318
0
0.23896487
0
0.26758369
0
0.29777877
2.586274e-14
0.32928901
2.4863761e-14
0.36184878
-2.3924146e-14
0.39501084
-4.6039387e-14
0.42876771
-4.4291887e-14
0.46479561
0
0.50498301
0
0.015263823
-2.138758e-14
0.029380992
0
0.042901581
0
0.058281072
1.9018629e-14
0.07522959
1.8297263e-14
0.092889311
1.7605445e-14
0.11189344
0
0.1322115
0
0.15342688
0
0.175827
0
0.19960933
2.9054002e-14
0.22482219
0
0.25164243
0
0.28021086
-2.5882063e-14
0.31012006
0
0.34096108
-2.3948635e-14
0.37274227
0
0.40506915
4.4309033e-14
0.43807879
8.3059166e-18
0.47360622
-4.1026393e-14
0.51347266
0
0.014217511
0
0.027447722
-2.0567324e-14
0.040208131
0
0.054737527
-1.9020577e-14
0.070724651
0
0.087241431
-1.7608379e-14
0.10504929
-1.6951661e-14
0.12418763
-6.3251937e-18
0.14416251
0
0.16531417
0
0.18779778
0
0.21154643
0
0.2367065
0
0.26365667
0
0.29215924
0
0.32150247
0
0.35158922
-5.8066439e-18
0.38255385
0
0.41409555
0
0.44640467
0
0.48148792
0
0.52113512
1.1123135e-14
0.013226331
0
0.025613219
0
0.037675585
0
0.051402869
0
0.066472698
1.8309407e-14
0.081903068
-7.3111551e-18
0.098569634
-1.6947825e-14
0.11658793
-6.3217861e-18
0.13536771
1.5698387e-14
0.15531562
0
0.17657391
0
0.19900956
0
0.2226786
0
0.24801373
0
0.27515812
0
0.30333423
0
0.33192905
0
0.361208
0
0.39141132
0
0.42215701
0
0.45381843
0
0.48852339
-3.8021625e-14
0.5279577
1.1123688e-14
0.012292505
0
0.023880462
0
0.035296949
0
0.048267932
-8.7806911e-18
0.062462347
1.8303466e-14
0.076861176
1.7620417e-14
0.092441186
0
0.10939328
-1.6314234e-14
0.12702931
0
0.14581718
-1.5119487e-14
0.16590551
0
0.18712188
0
0.20945118
0
0.23330419
-9.0240918e-18
0.25905071
0
0.28608865
-2.4009436e-14
0.31355971
0
0.34136723
-2.2209952e-14
0.36989564
0
0.39932209
2.0548451e-14
0.42936072
0
0.46042849
0
0.49480619
3.659916e-14
0.53408464
0
0.011417587
0
0.022249058
1.0285294e-14
0.033065632
0
0.045321021
0
0.058678443
1.8304995e-14
0.072102719
0
0.086651297
1.6959949e-14
0.10258708
-1.6323464e-14
0.11913294
-3.1418349e-14
0.13680903
-5.6468297e-18
0.1557745
-1.4557607e-14
0.17583109
4.8645952e-18
0.19693326
0
0.2194427
0
0.24372879
-8.5509894e-18
0.2695359
0
0.29605227
0
0.32279092
2.2236854e-14
0.34988722
0
0.3776884
-2.0571814e-14
0.40642499
0
0.43576778
-3.8065837e-14
0.46630003
0
0.50038636
-4.7729733e-18
0.53952848
-1.1118325e-14
0.010600462
0
0.020720013
0
0.030972369
4.6148865e-18
0.042550211
0
0.055107801
-1.8313843e-14
0.067615891
-7.1539509e-18
0.081185467
0
0.096155014
0
0.11166461
1.5709422e-14
0.12828126
0
0.14616938
-1.4562523e-14
0.16511369
0
0.18504509
1.3492844e-14
0.20630947
0
0.22921369
0
0.2536856
0
0.27913525
0
0.30498388
0
0.33110332
-2.1410358e-14
0.35754524
-2.0588448e-14
0.38467647
-1.9806001e-14
0.41274186
0
0.44147781
3.6642808e-14
0.47150282
0
0.50535431
3.3925554e-14
0.54440429
-2.224986e-14
0.0098393149
-1.0691481e-14
0.019291338
-1.0281415e-14
0.029009978
-9.8939099e-15
0.039943006
-9.5134278e-15
0.051738049
0
0.063388891
1.7625234e-14
0.076033075
0
0.090081845
0
0.10460928
1.5718125e-14
0.1202223
0
0.13708102
0
0.15495865
-4.898035e-18
0.17375927
1.3489842e-14
0.19385412
0
0.21549984
-2.5011732e-14
0.23860311
0
0.26279187
0
0.28767825
0
0.31301515
0
0.33858801
0
0.36442203
3.9659659e-18
0.39092294
-1.9069084e-14
0.41839288
0
0.44651801
0
0.4761038
0
0.5097531
0
0.5486871
-1.1125244e-14
0.0091312109
-5.1353279e-18
0.017959289
4.699274e-18
0.027170526
9.894257e-15
0.03748973
9.5138239e-15
0.048558699
3.6966018e-18
0.059412721
0
0.071182965
0
0.084352165
0
0.097952173
0
0.11261806
-1.5134753e-14
0.128498
1.4565382e-14
0.14535815
0
0.16306567
-1.3504907e-14
0.18203164
0
0.2025078
1.2513784e-14
0.22432259
0
0.2471803
0
0.27090568
0
0.2953592
0
0.32026456
-2.0637679e-14
0.34534759
-4.196712e-18
0.37059354
0
0.39650125
-2.9835767e-18
0.42338891
0
0.45099441
0
0.48016917
0
0.51363562
0
0.55245545
1.1119414e-14
0.0084737
-1.0697159e-14
0.016719456
-4.7748146e-18
0.025446668
4.7617904e-18
0.035180599
9.5186386e-15
0.04556063
-1.8312992e-14
0.055677767
8.8136978e-15
0.066624996
0
0.078951843
0
0.091679823
0
0.10545269
0
0.12040478
0
0.13629919
0
0.15295507
0
0.17082735
-4.6410624e-18
0.19019771
0
0.2108276
-1.2051966e-14
0.23240827
0
0.25486892
0
0.27825063
0
0.3023784
0
0.32688351
0
0.35144089
0
0.37610943
0
0.4014608
-2.6469648e-18
0.427839
-1.7001945e-14
0.45492969
0
0.4837476
-3.1467073e-14
0.51703509
0
0.55573204
0
0.0078595429
0
0.015568643
0
0.023831449
9.8852176e-15
0.033008384
0
0.04273439
9.1550418e-15
0.052169846
-3.4293812e-18
0.062346515
-8.4803475e-15
0.07386875
0
0.085776678
0
0.09871027
0
0.1127822
0
0.12776397
0
0.14341495
0
0.16022842
0
0.17854084
-4.4833692e-18
0.1980702
-1.2059691e-14
0.21846755
1.1607731e-14
0.23969394
6.6033391e-18
0.26191866
0
0.28505226
-2.0682894e-14
0.30881721
0
0.3328874
-3.9976963e-18
0.35691997
0
0.3810207
0
0.40586039
-1.7020731e-14
0.4317566
-1.6370274e-14
0.45841248
3.149098e-14
0.48689144
0
0.52002036
2.9161019e-14
0.55858947
3.5624342e-05
0.0085460929
0
0.01449574
0
0.022318245
0
0.030963667
9.5147504e-15
0.040072149
3.6217911e-18
0.048874802
-3.3902965e-18
0.058333508
8.4808364e-15
0.069088237
3.0724307e-18
0.080229329
0
0.092374164
1.5141825e-14
0.10561028
0
0.11973131
0
0.1344285
0
0.15022147
0
0.16751701
0
0.18600512
1.2058513e-14
0.20530118
0
0.22536382
1.1180327e-14
0.24641043
0
0.26848055
0
0.29132291
1.9913886e-14
0.31471801
-1.9155397e-14
0.33833222
0
0.36180751
0
0.38537332
0
0.4097543
1.6386635e-14
0.43522678
0
0.46145327
3.0322419e-14
0.48965466
0
0.52262724
0
0.56104276
5.9379161e-05
0.008450001
9.8130026e-05
0.015704561
0
0.020894799
0
0.029037875
0
0.037564315
-9.1592804e-15
0.0457803
8.8148252e-15
0.054571608
0
0.064599886
-8.167549e-15
0.075022873
-7.8605713e-15
0.086427763
0
0.098869236
0
0.1121781
-4.9462484e-18
0.1259764
0
0.14079018
0
0.15710514
-1.2539059e-14
0.17459912
-1.2068976e-14
0.19285472
-3.7079331e-18
0.21182185
0
0.23173052
3.1617219e-18
0.25272062
0
0.27457903
0
0.29707285
1.9178591e-14
0.32008496
0
0.34321955
1.774449e-14
0.36615419
1.7061263e-14
0.38921976
0
0.41318218
1.5778575e-14
0.4382629
4.5530857e-14
0.46414133
0
0.49208897
0
0.52490665
-2.7042745e-14
0.56313098
7.2832427e-05
0.0083541758
0.00016410496
0.015644974
0.00015085748
0.022580958
0
0.027216862
0
0.035202075
0
0.042876641
-3.3171184e-18
0.051049556
-8.4816281e-15
0.060391509
-8.164909e-15
0.07014358
-7.8641289e-15
0.0808521
7.5725129e-15
0.092539373
0
0.10507953
0
0.11803192
1.3520669e-14
0.13191474
-1.3020939e-14
0.14728616
0
0.16382459
1.2074689e-14
0.18108349
0
0.1990158
0
0.21785379
0
0.23773141
-1.0370222e-14
0.25855574
0
0.28012314
0
0.30230689
0
0.32494788
0
0.34758695
2.7990054e-18
0.36998277
-2.2829784e-18
0.39258896
0
0.41619568
-1.5930932e-18
0.44093828
-1.4614553e-14
0.46648787
0
0.49423299
-2.7056299e-14
0.52687149
2.6040557e-14
0.56490962
7.7499716e-05
0.0082632668
0.00020197776
0.015583033
0.00025354045
0.022673203
0.00019854087
0.029218358
0
0.032966628
0
0.04015259
0
0.047753379
-3.4050486e-18
0.056451973
-8.1652767e-15
0.065575876
0
0.075628287
0
0.08659881
2.8562044e-18
0.098411263
0
0.11056801
0
0.12356966
0
0.13803801
0
0.15365683
1.2084068e-14
0.16995668
-1.1636376e-14
0.18689361
-1.1200672e-14
0.20471644
-2.1569691e-14
0.22351267
-1.0382561e-14
0.2432332
0
0.26382739
0
0.28515869
0
0.30706377
0
0.32930562
0
0.35144479
2.4524889e-18
0.37333073
0
0.39553066
-1.5212937e-14
0.41882329
-1.463153e-14
0.44327004
-1.4071741e-14
0.46856106
-2.7076832e-14
0.4961159
2.6053493e-14
0.52858573
-2.5079342e-14
0.5664064
7.4875018e-05
0.0081783642
0.00021566585
0.015526185
0.00031356472
0.022752632
0.00033461995
0.029437516
0.00023941027
0.035094229
-9.1596231e-15
0.037578886
0
0.044668494
8.4822336e-15
0.052765008
0
0.061303388
7.8650107e-15
0.070738721
-1.5144339e-14
0.081028968
-7.2934075e-15
0.092149668
0
0.1035568
1.3530457e-14
0.11572621
0
0.12933622
0
0.14407189
0
0.15944623
-1.1638118e-14
0.17541909
0
0.19227774
0
0.21005976
-2.9168368e-18
0.22866851
-1.0001746e-14
0.2481673
-9.6224846e-15
0.26861566
0
0.28977078
0
0.31136148
0
0.33318971
0
0.35482637
0
0.37623607
1.5234129e-14
0.3980763
0
0.42111866
1.4088068e-14
0.4453106
-2.7101275e-14
0.47036212
0
0.49777893
0
0.53005214
0
0.567675
6.6358122e-05
0.0081000016
0.0002090794
0.015474962
0.00033637057
0.022824492
0.00041483607
0.029627721
0.00040338657
0.035403438
0.00027032369
0.039700521
0
0.041768233
0
0.049315421
0
0.057309106
0
0.066164892
3.0078514e-18
0.075812041
7.2939935e-15
0.086274581
0
0.096972555
0
0.10835625
0
0.12115214
0
0.13504412
0
0.14952759
0
0.16456513
1.1216648e-14
0.18049749
1.0797809e-14
0.19733139
0
0.21488881
0
0.23324208
9.6326415e-15
0.25265803
-9.2691463e-15
0.27303757
0
0.29395922
0
0.31521632
1.6499514e-14
0.33661071
0
0.3577724
-1.5256497e-14
0.37874399
0
0.40027548
1.2358391e-18
0.42309727
0
0.44707617
-1.3050024e-14
0.47195513
-1.510346e-18
0.49924103
0
0.53133537
-2.3261327e-14
0.5687202
5.3350399e-05
0.0080298829
0.00018593488
0.0154295
0.00032752074
0.022888214
0.00044601151
0.029796821
0.00049997599
0.035668181
0.00045514769
0.040132699
0.00029287519
0.043783639
0
0.046074304
0
0.053576303
0
0.061887627
7.56845e-15
0.070932553
-7.2915446e-15
0.080765866
0
0.090791489
0
0.1014342
6.5186409e-15
0.11345975
0
0.12654835
0
0.14017716
-1.1651214e-14
0.15430661
0
0.16934643
3.3352093e-18
0.18528584
-1.0406723e-14
0.20186591
1.001676e-14
0.21910883
-1.9288991e-14
0.23736166
-9.2818048e-15
0.25682866
8.9308374e-15
0.27711875
0
0.29775992
1.6523421e-14
0.31864564
-2.5395916e-18
0.33962316
0
0.36032489
0
0.38089214
0
0.40214549
1.358525e-14
0.42480764
-9.0125498e-19
0.44860738
-1.2566573e-14
0.47334424
0
0.50054085
-2.3272669e-14
0.53240798
-2.2403398e-14
0.56958018
3.7129416e-05
0.0079696576
0.00014996665
0.015390941
0.00029244119
0.022943427
0.0004350988
0.029943705
0.00053741567
0.035901223
0.00056374232
0.040500699
0.00049292238
0.044331008
0.00031227554
0.047937405
0
0.050073836
0
0.057887377
0
0.066368941
0
0.075607409
2.4993573e-18
0.084990801
0
0.09493707
-6.5196638e-15
0.10623376
-6.280336e-15
0.11855856
0
0.13137137
1.1651334e-14
0.14462181
-1.1226711e-14
0.15879882
0
0.17388803
1.0413403e-14
0.18955433
0
0.20576101
0
0.2228543
-9.2938209e-15
0.24123912
0
0.26075589
0
0.28084453
0
0.30117408
0
0.32169316
-1.530561e-14
0.34225061
0
0.36252556
0
0.38270815
0
0.40373228
0
0.42625617
-1.2581781e-14
0.44992398
0
0.47457589
-1.1724623e-18
0.50166028
0
0.5333143
-6.0191963e-19
0.57025209
1.8950526e-05
0.0079198989
0.00010468135
0.015360545
0.00023670267
0.022989987
0.00038917346
0.030067669
0.0005241118
0.036101471
0.00060559364
0.040823414
0.00061025557
0.044803115
0.00052531589
0.048621841
0.00032953941
0.051783934
0
0.05413101
0
0.06209975
0
0.070777565
-7.0264812e-15
0.07955107
2.2694795e-18
0.088840747
6.5180595e-15
0.099450661
6.2789451e-15
0.11104941
-6.0488942e-15
0.12308515
0
0.13548812
0
0.14883298
0
0.16311083
0
0.17791153
-1.0031562e-14
0.19315962
-9.6613795e-15
0.20916762
9.3007802e-15
0.22636749
-8.9516773e-15
0.24489258
-8.6137086e-15
0.26436101
8.2866935e-15
0.28422262
0
0.30423195
0
0.32437958
-1.4740023e-14
0.34454712
0
0.36440145
0
0.38423447
0
0.40505156
0
0.42748257
-1.2116595e-14
0.45105307
0
0.47563486
0
0.50262959
0
0.53403325
-2.0783258e-14
0.57076883
0.0078804884
0
5.3569685e-05
0.015338383
0.0001657324
0.023027574
0.00031541877
0.030168435
0.00046867708
0.036267787
0.00059028135
0.041099643
0.00065532706
0.04521573
0.00065010277
0.049213976
0.00055445141
0.05267192
0.00034464127
0.055653147
0
0.058092868
0
0.066253844
0
0.074453058
0
0.083123263
2.5184663e-18
0.093085959
0
0.10399537
0
0.11529336
1.8238443e-18
0.12688368
0
0.13942802
1.0819246e-14
0.15292973
1.0421814e-14
0.16690646
-1.0037949e-14
0.1812505
2.112573e-18
0.19625514
0
0.21231805
0
0.22969846
0
0.24829749
8.2960874e-15
0.26764792
-7.9805856e-15
0.28726888
0
0.30695484
0
0.32674936
-1.7024576e-18
0.34653084
0
0.36599979
0
0.38549745
0
0.40614003
1.2132283e-14
0.4284918
-5.4398628e-19
0.45200679
0
0.47656135
0
0.50343599
0
0.5346116
-2.0018621e-14
0.57112391
0.015324022
0
0.0078521704
-1.881464e-05
8.501979e-05
0.023055916
0.00022108644
0.030245916
0.00037974612
0.036400247
0.00052758247
0.041328417
0.00063855572
0.045567946
0.00069783589
0.049731998
0.00068629835
0.05345195
0.0005802537
0.056762502
0.0003581473
0.0593855
0
0.062002333
0
0.069678458
0
0.077765214
-6.5220592e-15
0.087119386
6.2832714e-15
0.097373087
0
0.10797081
0
0.11878543
-5.6171873e-15
0.13056157
0
0.14332318
0
0.15651277
-1.0046124e-14
0.16999655
0
0.18407202
0
0.19910258
-1.9086185e-18
0.21532793
8.6320564e-15
0.23282034
-1.7651277e-18
0.25141633
-7.9934727e-15
0.27064358
-7.6872382e-15
0.29000695
-1.4785552e-14
0.30937548
0
0.32882714
0
0.34825546
0
0.36734395
0
0.38653235
-1.2149571e-14
0.40700928
-1.1683351e-14
0.4293197
1.1237606e-14
0.45280491
1.0811598e-14
0.4773394
2.0806876e-14
0.50411322
0
0.53502021
0
0.57134077
0.023074712
0
0.015318483
-5.3413175e-05
0.0078362031
-3.6611649e-05
0.0001134941
0.030299358
0.00026611815
0.0364993
0.00042729802
0.041509431
0.00057055637
0.045859979
0.00067973758
0.050175501
0.00073684085
0.054139407
0.00071874225
0.057745102
0.00060339499
0.060731399
0.00036973495
0.063019419
0
0.065185335
0
0.0727483
0
0.08152573
6.2814508e-15
0.091157891
2.2018011e-18
0.10109371
0
0.11117113
-5.6204049e-15
0.12221229
5.4151584e-15
0.13426781
0
0.14670656
0
0.15937004
0
0.17256987
0
0.1866589
8.9780868e-15
0.20182526
-1.8033895e-18
0.21815785
-1.6633716e-14
0.23571978
8.0027119e-15
0.25430141
7.6986486e-15
0.27336507
1.268822e-18
0.29246952
0
0.31152684
0
0.33065559
-1.3164979e-14
0.34973656
0
0.36847208
-1.216831e-14
0.38735746
-1.1700319e-14
0.40769686
0
0.4299715
0
0.45345696
0
0.47800253
0
0.50463026
0
0.53529275
1.8574453e-14
0.57141442
0.03032758
0
0.023085689
-8.504372e-05
0.015322834
-0.00010409232
0.0078329669
-5.2265615e-05
0.00013657635
0.036564404
0.00029933457
0.041642796
0.00046199732
0.046091646
0.00060723722
0.050544396
0.00071792722
0.054732556
0.00077213527
0.058613791
0.00074786113
0.061931531
0.00062324087
0.064594416
0.00037756193
0.065854205
0
0.068037529
0
0.076280895
0
0.085322671
-2.1946848e-18
0.094632437
5.8341496e-15
0.10401948
0
0.11435943
0
0.12574129
-5.2157353e-15
0.13746416
0
0.1493451
0
0.1617171
0
0.1749356
0
0.18915012
-8.649764e-15
0.20440698
8.3263818e-15
0.22082301
0
0.23845513
-7.7112078e-15
0.25698526
-7.4173794e-15
0.27585126
7.1331708e-15
0.29467491
0
0.31343293
0
0.33225547
0
0.35101529
0
0.36939862
0
0.38801047
1.1267554e-14
0.40822641
0
0.43048037
0
0.45397786
0
0.47852365
0
0.50501759
0
0.53541435
-1.7892868e-14
0.57136843
0.036593733
0
0.030334913
-0.000113572
0.023088903
-0.00016583547
0.01533662
-0.00014874248
0.0078422396
-6.4607887e-05
0.00015358414
0.041728425
0.00032359041
0.046263298
0.00049162009
0.050838733
0.00064147966
0.055229758
0.00075275697
0.059365414
0.00080394968
0.062997175
0.00077278894
0.066001988
0.00063640689
0.067623144
0.00038118087
0.068332799
6.5207602e-15
0.071350667
0
0.079841199
-6.0557364e-15
0.088561907
-5.8350144e-15
0.097307059
5.6227726e-15
0.10698283
-5.4180977e-15
0.11771987
0
0.12876181
1.1690342e-18
0.13989797
0
0.1514852
9.334387e-15
0.16388998
-8.9922518e-15
0.17723891
0
0.19152711
0
0.20684899
-8.0245034e-15
0.22338609
0
0.24105892
7.4271656e-15
0.2594577
-1.2340089e-18
0.27809313
6.8704177e-15
0.29664633
0
0.31511995
0
0.33365773
1.220924e-14
0.35209924
0
0.37016207
0
0.388524
0
0.40863112
0
0.4308523
-1.0040193e-14
0.45437506
1.9321058e-14
0.4789375
1.8594733e-14
0.50525697
0
0.5354262
0
0.57119815
0.04176501
0
0.036594842
-0.00013661086
0.030321525
-0.00022139208
0.023082631
-0.00023693767
0.015359496
-0.00018397
0.0078646523
-7.2500963e-05
0.00016601425
0.046375076
0.0003443182
0.0510586
0.00051947002
0.055629374
0.00067295447
0.059996995
0.00078419133
0.063923483
0.00083108716
0.067253486
0.00078915525
0.069195731
0.00064242125
0.070290052
0.00038447498
0.071271978
0
0.074676881
0
0.082854771
0
0.091011236
-5.6254694e-15
0.1000604
0
0.11018081
5.2203673e-15
0.12057395
-5.0316625e-15
0.13100348
4.8480544e-15
0.14184781
0
0.15348815
0
0.16603629
0
0.17944923
0
0.19377427
-8.0320122e-15
0.20920897
0
0.22585738
-7.4378784e-15
0.24349652
-7.15615e-15
0.26172157
0
0.28012081
6.6171748e-15
0.29840527
0
0.31661179
0
0.33487759
0
0.35302633
0
0.37078361
0
0.38892856
0
0.40893039
-1.005198e-14
0.43111669
-2.3191107e-19
0.45466176
-9.305265e-15
0.47921111
-1.7912197e-14
0.50538363
0
0.53530553
-1.6605333e-14
0.57091922
0.046426225
0
0.0417627
-0.00015357946
0.036568039
-0.00026625658
0.030282848
-0.00031607258
0.023066789
-0.00029283975
0.015391841
-0.00020643398
0.0079008804
-7.4699995e-05
0.00017664868
0.051203753
0.00036388648
0.055930322
0.00054519563
0.060505915
0.00070139474
0.064706325
0.00081098354
0.06834384
0.00084874907
0.070591648
0.0007965332
0.072034175
0.00064799557
0.073455128
0.0003883037
0.074193386
0
0.077470011
0
0.085108917
0
0.093570049
-5.4203474e-15
0.10309657
1.6014494e-18
0.11287561
-5.0332132e-15
0.12263732
0
0.13277902
4.6720846e-15
0.14369798
0
0.15549951
0
0.16810911
8.3507779e-15
0.18153106
0
0.19593906
-7.7396717e-15
0.21152219
-1.5562429e-18
0.2282299
0
0.24575968
1.3784495e-14
0.26378637
-1.0194981e-18
0.28195059
-6.3731039e-15
0.29997965
0
0.31793033
0
0.33594039
-7.1762058e-19
0.35380586
0
0.37129377
0
0.3892467
-1.0065227e-14
0.40914958
9.6817255e-15
0.43127305
0
0.45483473
-8.2029181e-20
0.47937577
0
0.50536925
0
0.53507914
0
0.57053005
0.051272945
0
0.046430442
-0.00016602138
0.041720886
-0.00029931401
0.036506366
-0.00038004984
0.030218495
-0.00039022505
0.023040529
-0.00032808703
0.015434314
-0.00021259343
0.0079504322
-6.995048e-05
0.00018672364
0.056131197
0.00038203691
0.060889642
0.00056848312
0.065341307
0.00072570693
0.06926802
0.00082830128
0.071805732
0.00085648368
0.073578353
0.00080337964
0.075400646
0.00065456691
0.076602277
0.00039006455
0.076557765
5.836652e-15
0.079558076
0
0.087491509
0
0.096443231
-1.6137078e-18
0.10563751
1.1133788e-18
0.11477391
4.8507369e-15
0.12425405
4.6741213e-15
0.13449218
9.1943403e-19
0.14559121
0
0.15745304
0
0.17005021
8.0482507e-15
0.18352756
0
0.19807118
0
0.21376681
-7.177567e-15
0.23045758
0
0.24784565
-1.1199155e-18
0.26567763
-9.2923001e-19
0.28361044
6.1378682e-15
0.3013813
-1.179915e-14
0.31908854
0
0.33686002
-1.0904015e-14
0.35446638
0
0.37170454
-1.0079736e-14
0.38950184
9.6942082e-15
0.40929389
0
0.43135
8.9722384e-15
0.45490422
0
0.4794049
0
0.50524546
0
0.53474085
0
0.57005268
0.056229868
0
0.051285385
-0.00017670886
0.04638697
-0.00032360825
0.041629618
-0.00042726089
0.036410678
-0.00046915479
0.030129072
-0.00043652565
0.023003947
-0.00033710491
0.015486328
-0.00019887161
0.0080126455
-5.6874796e-05
0.00019608207
0.061145888
0.00039850117
0.065824907
0.00058841089
0.070021094
0.00074118951
0.07283257
0.00083568423
0.074916655
0.00086378955
0.077117873
0.00081144532
0.078744446
0.00065736231
0.079174801
0.00038803148
0.078217357
0
0.081784012
0
0.090196875
0
0.098835634
-1.1023338e-18
0.10738859
8.615565e-19
0.11624818
-4.6759148e-15
0.12584382
0
0.13627991
4.341872e-15
0.1474402
0
0.15926906
0
0.17189817
-1.5344375e-18
0.18548265
0
0.20015097
1.5086955e-18
0.21592062
0
0.2325536
0
0.24978162
-6.3959917e-15
0.26741409
0
0.28510655
-5.9105109e-15
0.30262441
0
0.32010481
0
0.33765402
-1.0500784e-14
0.35501178
0
0.37204103
-9.7079318e-15
0.3896983
-8.2177449e-20
0.4093824
-8.9821195e-15
0.4313346
4.9754111e-20
0.45487072
0
0.47933333
0
0.50500351
0
0.53432844
0
0.56948114
0.061272455
0
0.056249605
-0.00018683538
0.051241458
-0.0003445506
0.046280888
-0.00046201773
0.041490794
-0.0005275177
0.036282258
-0.00052477713
0.03001494
-0.00044770569
0.022957614
-0.00031440655
0.015547086
-0.00016146309
0.0080877155
-3.4072458e-05
0.00020459219
0.066153744
0.00041262555
0.070598517
0.00060100316
0.073666375
0.00074767368
0.076042187
0.00084271952
0.07859954
0.00087238956
0.080625118
0.00081483683
0.081492396
0.00065388419
0.081017797
0.00038428111
0.080007231
0
0.084312741
0
0.092443387
-1.092232e-18
0.10045744
-4.8543538e-15
0.10873684
4.6783609e-15
0.11772751
-4.5084082e-15
0.12753652
-9.1471507e-19
0.13803461
4.1861866e-15
0.14914249
0
0.16098773
0
0.17370268
7.4752853e-15
0.18740154
7.1953397e-15
0.20219126
-6.923854e-15
0.21800432
-6.6621129e-15
0.23454259
0
0.25158783
-6.1605242e-15
0.26900831
0
0.28645281
-5.6921259e-15
0.30372314
0
0.32099105
0
0.33833265
-4.3432354e-19
0.35546672
0
0.37230633
0
0.38984709
0
0.4093928
0
0.43124435
1.0816588e-19
0.45474216
8.0128136e-15
0.47914136
-1.5427357e-14
0.5046807
0
0.53381656
0
0.5688288
0.06632414
0
0.061297336
-0.00019623098
0.056190713
-0.00036432765
0.051121417
-0.00049209988
0.046111993
-0.00057055285
0.041303133
-0.00059018981
0.036121563
-0.00053821978
0.029877658
-0.00041663273
0.022901239
-0.00025435309
0.015616899
-9.6540503e-05
0.0081745982
1.1126684e-14
0.00021191091
0.070995636
0.00042147708
0.074301505
0.00060613757
0.076947957
0.00075382099
0.079839299
0.00085091077
0.082238496
0.00087573549
0.083517744
0.00081034633
0.083494485
0.00064748058
0.082990517
0.00038139079
0.08208646
0
0.086409472
0
0.093956058
-4.8546324e-15
0.10169744
4.6788597e-15
0.11011365
-4.5091293e-15
0.11933201
0
0.12920512
4.1869749e-15
0.13963225
-4.0337703e-15
0.15074395
0
0.16266344
0
0.17547493
0
0.18930063
6.934926e-15
0.20421364
0
0.22002388
-6.4180109e-15
0.2364144
-6.1705873e-15
0.25327003
-8.8372772e-19
0.2704667
5.702916e-15
0.28766063
5.4822083e-15
0.30469269
0
0.32176278
0
0.33891039
0
0.35583558
0
0.37251493
0
0.38992334
8.6621254e-15
0.40933801
0
0.43105926
1.527344e-19
0.45451824
7.7195309e-15
0.47886426
-1.4863195e-14
0.50424665
-1.4312915e-14
0.53323107
0
0.5680712
0.071206984
0
0.066368093
-0.0002048129
0.061220722
-0.00038262194
0.056029747
-0.0005204151
0.050924487
-0.00060797295
0.045879328
-0.00063847231
0.041064796
-0.00060545629
0.035930097
-0.00050089697
0.029714579
-0.00033617716
0.022833344
-0.00015141711
0.015691216
0
0.0075253348
0
0.00021646754
0.074734246
0.00042497121
0.077628555
0.00061096758
0.080829866
0.0007609592
0.083579357
0.00085390603
0.085245045
0.00087073384
0.085658966
0.00080229119
0.085631925
0.00064247867
0.085275367
0.0003778417
0.083740333
0
0.087825249
0
0.09510944
0
0.1029822
4.5105854e-15
0.11163732
9.4670273e-19
0.12091936
-4.1899701e-15
0.13070491
4.0363622e-15
0.14112707
0
0.15230752
0
0.16430986
0
0.17723595
6.9423881e-15
0.19120705
0
0.20620843
0
0.22195922
0
0.23818622
-5.9435303e-15
0.25483689
-8.1783221e-19
0.27180336
-5.4934353e-15
0.28874282
5.2793933e-15
0.30554248
0
0.32242586
0
0.33939846
-2.9152549e-19
0.35613157
-9.0182411e-15
0.37264719
-8.6734235e-15
0.38993892
-8.3435468e-15
0.40918825
-8.0281811e-15
0.43080081
-7.7260558e-15
0.45420736
0
0.47847388
0
0.50373158
0
0.53255117
0.0051706865
0.56202503
0.074960453
0
0.07126982
-0.00021224004
0.066284256
-0.00039935645
0.061014404
-0.00054645291
0.05576736
-0.00064300781
0.050651186
-0.00068069179
0.045580958
-0.00065508258
0.040777385
-0.00056361747
0.035708059
-0.00040420821
0.029525875
-0.00019950835
0.022747124
0
0.014503778
0
0.0081376365
1.1127037e-14
0.00021822104
0.078081252
0.00042824724
0.081566493
0.00061658244
0.084642907
0.00076333411
0.086669143
0.00084881018
0.08750307
0.00086200374
0.087941045
0.00079595917
0.08809567
0.00063649319
0.087122662
0.00037179804
0.084732975
0
0.088907734
0
0.096312405
0
0.10442767
-9.6731153e-19
0.11314997
-4.1910517e-15
0.1223288
0
0.13210167
-3.8918887e-15
0.14259105
7.4485309e-19
0.15384668
0
0.16594899
0
0.17901446
-1.5388284e-18
0.193133
-6.4369553e-15
0.20817643
-6.1917313e-15
0.22381746
0
0.23985761
-5.7245521e-15
0.25629752
-7.5020355e-19
0.27301961
0
0.28970511
-5.0836094e-15
0.30627962
0
0.32299568
0
0.33980336
-9.0325505e-15
0.35634593
0
0.37271664
8.3541565e-15
0.38986355
-8.0369378e-15
0.40896264
-7.7337496e-15
0.43044832
0
0.45381496
0
0.47800654
1.3793089e-14
0.5031178
0.010068382
0.52690114
0.0047017037
0.55633235
0.078304535
0
0.07502414
-0.00021684244
0.071182233
-0.00041389246
0.066038276
-0.0005702959
0.06067894
-0.00067500629
0.05540342
-0.00072002301
0.050301709
-0.00069888534
0.045220128
-0.00060989331
0.040444231
-0.00045504857
0.035455079
-0.00023995544
0.029302765
0
0.021049442
0
0.015606849
0
0.0088111933
6.0004968e-18
0.00021983103
0.082045487
0.00043204891
0.085423986
0.00061824776
0.08778472
0.00075853325
0.089018734
0.00084020513
0.089908185
0.00085505453
0.090555836
0.0007884915
0.090108067
0.00062611837
0.088276508
0.00036354015
0.085413277
4.6815895e-15
0.090037965
0
0.097678781
0
0.10586722
-8.3843947e-19
0.1144734
7.7348619e-19
0.12363536
3.893575e-15
0.13347539
3.7511035e-15
0.14403306
-3.6123194e-15
0.15537955
0
0.16760887
0
0.18082787
0
0.1950573
-1.2404906e-14
0.21007994
0
0.22557895
5.7351868e-15
0.24142953
5.5142577e-15
0.2576472
-5.3000804e-15
0.27412289
0
0.29055303
4.8958019e-15
0.30691652
0
0.32347741
0
0.34012992
-1.6119747e-19
0.35649035
0
0.37270787
0
0.3897147
-7.7418168e-15
0.40863085
7.4500852e-15
0.43003882
7.1711153e-15
0.45335004
6.8998047e-15
0.47741818
0.014827036
0.49774201
0.0091555118
0.52158563
0.0042016998
0.55104189
0.082264063
0
0.078348462
-0.00021852766
0.07492444
-0.00042292678
0.070904248
-0.00059108125
0.065630144
-0.00070430491
0.060213762
-0.0007555623
0.05493817
-0.00073935036
0.049878922
-0.00065119804