/*--------------------------------*- C++ -*----------------------------------*\
| =========                 |                                                 |
| \\      /  F ield         | OpenFOAM: The Open Source CFD Toolbox           |
|  \\    /   O peration     | Version:  v2012                                 |
|   \\  /    A nd           | Website:  www.openfoam.com                      |
|    \\/     M anipulation  |                                                 |
\*---------------------------------------------------------------------------*/
FoamFile
{
    version     2.0;
    format      ascii;
    class       surfaceScalarField;
    location    "8.9741551682";
    object      phi;
}
// * * * * * * * * * * * * * * * * * * * * * * * * * * * * * * * * * * * * * //

dimensions      [0 3 -1 0 0 0 0];
oriented        oriented;


internalField   nonuniform List<scalar> 
18180
(
0.0018080074
-3.4045411
0.0034366266
-3.1829852
0.0020032269
-3.4495545
0.0048871296
-2.9758416
0.0038167021
-3.2246016
0.0021039837
-3.4901463
0.0061449621
-2.782205
0.0054383468
-3.0142785
0.004017468
-3.2623726
0.0022485574
-3.5288438
0.007200983
-2.601465
0.0068508797
-2.817987
0.0057330489
-3.0494843
0.0043025271
-3.2986942
0.0023977489
-3.5658251
0.0080678811
-2.4326165
0.0080505729
-2.6349795
0.0072367175
-2.850694
0.0061528579
-3.0834701
0.0045985793
-3.3336747
0.0025522997
-3.6013925
0.0087479668
-2.2748235
0.0090425792
-2.4641144
0.0085246591
-2.665442
0.0077877084
-2.8825291
0.0065921259
-3.1166783
0.0049067626
-3.3672675
0.0027048509
-3.6349772
0.0092580035
-2.1272961
0.0098333357
-2.3044757
0.0095996686
-2.4925846
0.0092015602
-2.6951035
0.0083690006
-2.9136926
0.0070520603
-3.1484844
0.0052124625
-3.3991042
0.002850037
-3.667021
0.0096102556
-1.9893591
0.010435678
-2.1552001
0.010468086
-2.3310647
0.010396928
-2.5200951
0.0099226346
-2.7241064
0.0089824287
-2.9437759
0.0075112814
-3.1788485
0.0055051133
-3.4293357
0.002982143
-3.6970457
0.0098223326
-1.8603734
0.010863282
-2.0155912
0.011140623
-2.1800244
0.011377812
-2.3566529
0.011254639
-2.5471383
0.010690243
-2.7524508
0.0096006438
-2.972646
0.0079543086
-3.207571
0.0057737207
-3.4577466
0.0030961503
-3.7255326
0.0099110939
-1.7397604
0.011132592
-1.8850066
0.01163024
-2.0387355
0.012153488
-2.203868
0.01236674
-2.3818508
0.012176266
-2.5735778
0.011471935
-2.7796294
0.010203711
-2.9999206
0.0083654571
-3.2344894
0.00600859
-3.4844769
0.0031880028
-3.7519526
0.0098942366
-1.6269698
0.011261046
-1.7628663
0.011952147
-1.9065492
0.012734945
-2.0609643
0.013266047
-2.227335
0.013439874
-2.4064544
0.013125565
-2.599037
0.012243845
-2.8052664
0.010770994
-3.0252793
0.008730555
-3.2596922
0.0062015761
-3.5093953
0.0032548728
-3.7766899
0.0097881505
-1.5214862
0.011266538
-1.6486234
0.012122804
-1.7828807
0.013136003
-1.9272748
0.013961232
-2.0828517
0.014485544
-2.2502531
0.01455826
-2.4301473
0.014075148
-2.622839
0.012980546
-2.8289113
0.011283362
-3.0489719
0.0090371311
-3.2831901
0.0063464674
-3.5325879
0.0032948255
-3.7994174
0.0096083336
-1.4228262
0.011166322
-1.5417584
0.012159354
-1.6671841
0.013371847
-1.8022046
0.014464014
-1.9476953
0.015319149
-2.1041624
0.015771737
-2.2722173
0.015692004
-2.4521622
0.014995331
-2.6447182
0.013658015
-2.8509534
0.011723545
-3.0711131
0.0092751295
-3.3050934
0.006438965
-3.5540303
0.0033068866
-3.8205819
0.0093692843
-1.330539
0.010976968
-1.4417897
0.012078917
-1.5589513
0.013458794
-1.6852012
0.014787725
-1.821269
0.015949701
-1.9675145
0.016768574
-2.1245596
0.017093244
-2.2926587
0.016807627
-2.4724297
0.015856954
-2.6652396
0.01425374
-2.8718434
0.012077085
-3.0919016
0.0094371568
-3.3253724
0.006476642
-3.5738672
0.0032909502
-3.839908
0.0090841699
-1.2442126
0.010714205
-1.3482674
0.011898254
-1.4577079
0.013413571
-1.5757546
0.014947263
-1.7030068
0.016388069
-1.8396909
0.017554497
-1.9864681
0.01827782
-2.1435988
0.01841354
-2.3115492
0.017870924
-2.4916369
0.016631762
-2.6849388
0.014748127
-2.8915482
0.012332906
-3.1112335
0.0095187479
-3.3441754
0.0064588456
-3.5920985
0.003247716
-3.8577416
0.008764585
-1.1634565
0.010392642
-1.2607785
0.011633393
-1.3630069
0.01325296
-1.4733884
0.014958512
-1.5923946
0.016647157
-1.72012
0.018137267
-1.8572964
0.019247692
-2.0042209
0.019808468
-2.161252
0.01969399
-2.329493
0.018847825
-2.510167
0.017294438
-2.7036972
0.015125609
-2.9100663
0.012483756
-3.1292407
0.009518146
-3.3614851
0.0063865918
-3.6088343
0.0031785869
-3.8739585
0.0084207213
-1.0879101
0.010025538
-1.1789301
0.011299407
-1.2744372
0.012993403
-1.3776582
0.014837906
-1.4889501
0.01674144
-1.6082763
0.018527082
-1.7364559
0.020006892
-1.8738439
0.020990298
-2.0207195
0.021318193
-2.1780257
0.020894561
-2.3469461
0.019706495
-2.5280262
0.017823791
-2.7214179
0.015375016
-2.9273543
0.012526016
-3.1459118
0.0094362427
-3.377421
0.0062624592
-3.6241441
0.0030856313
-3.888883
0.0080613907
-1.0172381
0.0096248055
-1.1023581
0.010910192
-1.1916121
0.012650625
-1.2881476
0.014602015
-1.3922218
0.016686544
-1.5036727
0.018736258
-1.6234126
0.020562106
-1.7518565
0.021958826
-1.8892457
0.022737458
-2.0364175
0.022761237
-2.1943766
0.021976226
-2.3637777
0.020419086
-2.5449129
0.018203758
-2.7380619
0.015489914
-2.9435124
0.012459654
-3.1613217
0.0092762804
-3.392005
0.0060903457
-3.6381449
0.0029713704
-3.9024114
0.007694162
-0.95113021
0.0092008316
-1.030724
0.010478438
-1.1141658
0.0122394
-1.20446
0.014267018
-1.3017839
0.016498813
-1.4058479
0.018778885
-1.5176731
0.02092255
-1.6377216
0.022716484
-1.7661935
0.023947162
-1.9038985
0.024438426
-2.051658
0.024091256
-2.2101121
0.022903707
-2.3797627
0.020963505
-2.5608906
0.018423942
-2.7537231
0.015468402
-2.9585073
0.012287971
-3.1755021
0.0090436034
-3.4053726
0.0058751757
-3.6509027
0.0028386854
-3.9147749
0.0073252632
-0.889298
0.0087628529
-0.96371358
0.010015414
-1.0417544
0.011773378
-1.1262216
0.013848485
-1.2172289
0.016194681
-1.3143707
0.018670464
-1.4187759
0.021099747
-1.5309482
0.023268357
-1.6510246
0.02494504
-1.7798416
0.025917362
-1.9181106
0.026039525
-2.0663452
0.02526449
-2.2251504
0.023647324
-2.3950737
0.021323892
-2.5761318
0.018479511
-2.7684062
0.015313074
-2.9724259
0.01201718
-3.188534
0.0087451049
-3.4175536
0.0056225561
-3.6624971
0.0026905028
-3.9259551
0.0069599553
-0.83147144
0.0083186535
-0.9010377
0.0095312458
-0.97405655
0.011264924
-1.0530819
0.013360986
-1.1381777
0.015790435
-1.2288364
0.01842721
-1.3262874
0.021107361
-1.4310777
0.023622213
-1.543253
0.025731282
-1.6636981
0.027191157
-1.7930862
0.027808918
-1.9318171
0.027487726
-2.0804528
0.026242147
-2.2397595
0.024184187
-2.4098824
0.021491185
-2.5905259
0.018371359
-2.7820927
0.015030377
-2.9852507
0.011655796
-3.2004711
0.0083888269
-3.4286458
0.0053382326
-3.6730266
0.0025296682
-3.9361472
0.0066023283
-0.77739717
0.0078751191
-0.84242362
0.0090346458
-0.91076896
0.010725202
-0.98471157
0.012817965
-1.064274
0.015301602
-1.1488673
0.018065859
-1.2398033
0.020960469
-1.3376792
0.023788458
-1.442424
0.026308842
-1.5549837
0.028254945
-1.6760217
0.029388619
-1.8058777
0.029559199
-1.9450207
0.028733918
-2.0942518
0.026992803
-2.2540696
0.024499657
-2.4240659
0.021463593
-2.6040447
0.018105517
-2.7947866
0.014629993
-2.9970824
0.011213961
-3.2113576
0.0079830763
-3.4387044
0.0050277059
-3.6825601
0.0023587779
-3.9453286
0.0062558057
-0.72683531
0.0074377497
-0.78761393
0.00853349
-0.85160619
0.01016402
-0.92080012
0.012231588
-0.99518467
0.014742833
-1.0741037
0.017602787
-1.1589424
0.020675505
-1.250342
0.023779611
-1.3481117
0.026683453
-1.4532481
0.029106352
-1.566425
0.030769266
-1.6879503
0.031465299
-1.8182254
0.031107394
-1.9580198
0.029736022
-2.108032
0.027494046
-2.2679945
0.024587589
-2.4374153
0.021245731
-2.6166231
0.017692228
-2.8065365
0.014123848
-3.007903
0.01070242
-3.2212807
0.0075359569
-3.4478227
0.0046959992
-3.6911801
0.0021802582
-3.9536358
0.0059230935
-0.67956168
0.0070113761
-0.73636549
0.0080342932
-0.7962999
0.0095903473
-0.86105659
0.011612675
-0.93059172
0.014127469
-1.0042097
0.017053996
-1.083345
0.020269169
-1.1686819
0.02361033
-1.2599124
0.026863407
-1.3580714
0.029745569
-1.4638446
0.031943501
-1.5775248
0.033193365
-1.6994897
0.033347528
-1.8304571
0.032398528
-1.9711069
0.030461648
-2.1214848
0.027734076
-2.2811046
0.024450497
-2.4498513
0.020847901
-2.6282988
0.017144909
-2.8173503
0.013524933
-3.0178284
0.010131774
-3.2302836
0.0070549503
-3.4560532
0.0043477569
-3.6989278
0.0019964397
-3.961076
0.0056066655
-0.63536557
0.0065996639
-0.68845239
0.0075426352
-0.74459714
0.009011722
-0.80520586
0.010971119
-0.87020182
0.013467517
-0.93886922
0.016434264
-1.0126727
0.019758591
-1.0923382
0.023296301
-1.1774454
0.026859632
-1.2690569
0.030175426
-1.3678616
0.032906044
-1.4741464
0.034732234
-1.5882777
0.035439951
-1.7109583
0.034965343
-1.8427949
0.033388157
-1.9839902
0.030891471
-2.1342415
0.027711806
-2.2932975
0.024097971
-2.4614138
0.020284652
-2.6390966
0.016478577
-2.827292
0.012846291
-3.0268598
0.0095120445
-3.2384507
0.0065471034
-3.4634553
0.0039875183
-3.7058868
0.0018097288
-3.9677616
0.0053087595
-0.59404749
0.0062059481
-0.64366273
0.0070620652
-0.69626179
0.0084342916
-0.75299035
0.010315275
-0.81373785
0.012773883
-0.87778927
0.015757234
-0.94660937
0.019160022
-1.0209705
0.022854621
-1.1003508
0.026684773
-1.1858282
0.030401444
-1.2780827
0.033654046
-1.3773988
0.036072233
-1.4841319
0.037371367
-1.5990181
0.03742173
-1.7226051
0.036258956
-1.8550551
0.034046286
-1.9962513
0.031018983
-2.1460917
0.027435395
-2.3046662
0.023545329
-2.4721591
0.019572904
-2.6490677
0.015708732
-2.8364009
0.012100513
-3.0350993
0.0088527718
-3.2457966
0.0060193455
-3.4700881
0.0036200427
-3.7120959
0.0016226681
-3.9736671
0.005031398
-0.55542151
0.0058335096
-0.60179502
0.0065948281
-0.65107468
0.0078610769
-0.70416832
0.0096516982
-0.76094247
0.012055789
-0.82069443
0.015035248
-0.88486136
0.01848914
-0.95425758
0.022302111
-1.0282883
0.026353752
-1.1080285
0.030431326
-1.1941338
0.034186996
-1.2868928
0.037205773
-1.3866394
0.03912951
-1.4941625
0.039753978
-1.610004
0.039060203
-1.7342291
0.037184958
-1.866771
0.034359285
-2.0077054
0.030850015
-2.1571873
0.026920678
-2.3152909
0.022811394
-2.4821572
0.018730605
-2.6582611
0.014850551
-2.8447292
0.011299763
-3.0425423
0.0081634859
-3.2524171
0.0054789735
-3.4760124
0.0032505482
-3.7176063
0.0014378913
-3.9788733
0.0047753794
-0.51930997
0.0054868639
-0.56266311
0.0061429589
-0.60883053
0.0072924849
-0.65851616
0.0089830375
-0.71157056
0.011320494
-0.76732624
0.014278909
-0.82715036
0.017760303
-0.8919014
0.021656031
-0.96093916
0.025881934
-1.035317
0.030275497
-1.1156594
0.034506761
-1.2022548
0.038127006
-1.2954109
0.040703837
-1.3959754
0.041949256
-1.5045238
0.041779007
-1.6210426
0.040294672
-1.7454245
0.037719687
-1.87782
0.034329066
-2.0185294
0.030400438
-2.1676862
0.026188346
-2.3252869
0.021916614
-2.4914365
0.01777563
-2.666702
0.013918985
-2.852308
0.010456307
-3.0492852
0.0074541798
-3.2583276
0.0049339312
-3.4812743
0.0028845768
-3.7224525
0.001258067
-3.983408
0.004538569
-0.48554054
0.0051702071
-0.52608826
0.0057126035
-0.56934475
0.0067281283
-0.61582789
0.0083083488
-0.66539526
0.010571275
-0.71743056
0.013496958
-0.77321304
0.016986387
-0.8336202
0.020932536
-0.89800274
0.025286324
-0.96737399
0.029945533
-1.0423166
0.034617853
-1.1231297
0.038832432
-1.210076
0.042084956
-1.3040654
0.043996137
-1.4057358
0.044403594
-1.5150209
0.043363887
-1.6317518
0.041087844
-1.7560783
0.03785913
-1.8883998
0.033971038
-2.0289017
0.029693046
-2.1776297
0.02526174
-2.3346359
0.02088184
-2.5000218
0.016725841
-2.6744202
0.012929156
-2.8591805
0.0095830092
-3.0553317
0.006735713
-3.2636122
0.0043925768
-3.4859261
0.0025277549
-3.7267074
0.0010857758
-3.9873512
-0.00019787267
-0.53375631
0.0048840701
-0.4918906
0.0053141939
-0.53243945
0.0061745082
-0.57592334
0.0076248404
-0.62220815
0.0098078386
-0.67077224
0.012694745
-0.72279201
0.016178686
-0.77914706
0.020147112
-0.83919536
0.024583284
-0.90389719
0.029455632
-0.97378411
0.034526536
-1.0491744
0.039320706
-1.1302825
0.043265607
-1.2180631
0.045884035
-1.3132419
0.046923511
-1.41572
0.046382689
-1.5252707
0.04445339
-1.6420136
0.041427582
-1.7663633
0.037617756
-1.8986084
0.033310661
-2.0387899
0.028754883
-2.1870237
0.024165101
-2.3433639
0.019727994
-2.5079115
0.015599354
-2.681443
0.011896975
-2.8653883
0.0086937587
-3.0607599
0.0060193711
-3.2682798
0.0038632723
-3.4900248
0.0021852525
-3.7304138
0.00092319188
-3.9907277
-0.0035565938
-0.53501012
0.00020364925
-0.53633249
0.0049563604
-0.49793183
0.0056481811
-0.53863275
0.0069374003
-0.58183655
0.0090267938
-0.62713525
0.011875132
-0.67564943
0.015346082
-0.72822578
0.019313972
-0.78424855
0.023789751
-0.84460025
0.028819959
-0.90975658
0.034242198
-0.98006759
0.039592655
-1.0556914
0.044239976
-1.1376186
0.047604117
-1.2266669
0.049329133
-1.3227296
0.049342794
-1.4255297
0.04780807
-1.535146
0.045023857
-1.6519766
0.041326189
-1.7763819
0.03702405
-1.9084203
0.032379498
-2.0481645
0.027614271
-2.1958398
0.022922892
-2.3514462
0.018476403
-2.5151352
0.014415195
-2.6878076
0.010839451
-2.8709619
0.007802897
-3.0655795
0.0053164007
-3.2724209
0.0033536759
-3.4936276
0.0018612534
-3.7336313
0.00077164432
-3.9935875
-0.0056681239
-0.53614009
-0.0031189515
-0.53894847
0.00031137396
-0.53871476
0.0051681096
-0.50377382
0.0062652619
-0.54412481
0.0082301684
-0.58635225
0.011036785
-0.63156616
0.014496672
-0.68061992
0.018446151
-0.73290166
0.022921688
-0.78920972
0.028054578
-0.84994648
0.033774801
-0.91549948
0.039652152
-0.9859809
0.04500457
-1.0623943
0.049148372
-1.1456588
0.051612321
-1.2356695
0.052236982
-1.3321082
0.051145842
-1.4350285
0.04864016
-1.5447943
0.045083616
-1.6617349
0.040815416
-1.7860084
0.036115539
-1.9177004
0.031211523
-2.0569958
0.02630005
-2.2040799
0.021559821
-2.358897
0.0171492
-2.5216978
0.013193554
-2.6935309
0.0097740971
-2.8759466
0.0069246368
-3.0698631
0.0046370529
-3.2760509
0.002870118
-3.4967805
0.0015587106
-3.7363832
0.00063157048
-3.9959977
-0.0066714715
-0.53714125
-0.0052113862
-0.54131438
-0.0029914983
-0.54277651
0.00049661938
-0.54087921
0.0056353205
-0.50889364
0.0074343819
-0.54827954
0.010179262
-0.59037147
0.013633786
-0.63610569
0.017557642
-0.68491578
0.021995413
-0.73746009
0.027174917
-0.79407677
0.033137217
-0.85518079
0.039504176
-0.92083998
0.045558397
-0.99207247
0.050510874
-1.0698801
0.053765198
-1.1541823
0.055059582
-1.2446242
0.054462466
-1.3412349
0.052271623
-1.4443606
0.048880736
-1.5542503
0.044668242
-1.6710895
0.039940946
-1.7951054
0.034933987
-1.9264584
0.02984121
-2.0652938
0.024840794
-2.2117186
0.020101255
-2.3657069
0.015769758
-2.527622
0.011955106
-2.6986536
0.0087181596
-2.8803677
0.0060719471
-3.0736298
0.0039898905
-3.2792438
0.0024172287
-3.4995219
0.0012795701
-3.7387454
0.00050324621
-3.9979978
-0.0067145065
-0.53800231
-0.0062068451
-0.54342239
-0.0050772826
-0.54645822
-0.0028522014
-0.54632808
0.00088601175
-0.54224518
0.0066677944
-0.51273931
0.0093115879
-0.55192777
0.012757124
-0.59450643
0.016658143
-0.64005761
0.021029543
-0.68911275
0.026198506
-0.74188436
0.032342079
-0.79883249
0.039157048
-0.8599792
0.045901763
-0.92634155
0.051687372
-0.99901553
0.055781655
-1.0779304
0.057804799
-1.162717
0.057755507
-1.2533797
0.05591631
-1.3502637
0.052711695
-1.4535349
0.04856891
-1.5633068
0.043833551
-1.6799162
0.038754946
-1.8037147
0.033521469
-1.9347508
0.028301947
-2.0730527
0.02326521
-2.2187666
0.018573488
-2.3718922
0.014361745
-2.532934
0.010720148
-2.7032013
0.0076874391
-2.8842786
0.0052557197
-3.0769362
0.0033812579
-3.2820089
0.0019978721
-3.5019032
0.0010249269
-3.7407335
0.00038742344
-3.9996538
-0.005955486
-0.53871188
-0.0062494182
-0.54524975
-0.0060763901
-0.5497444
-0.0049971242
-0.5512686
-0.0025729312
-0.54899903
0.0018300748
-0.54228408
0.0084566074
-0.51607368
0.011867514
-0.55568509
0.015751418
-0.59814381
0.020040342
-0.64392991
0.025145972
-0.69313354
0.031405752
-0.74619364
0.038619283
-0.80311761
0.046038197
-0.86491508
0.052674657
-0.93275477
0.057656106
-1.0065979
0.060468393
-1.0860497
0.061022738
-1.1711031
0.059574735
-1.2621165
0.056574718
-1.3591804
0.052507588
-1.4623026
0.047772794
-1.5718196
0.042645524
-1.6882975
0.037310098
-1.8119252
0.031917803
-1.9425551
0.026626003
-2.0802683
0.021602193
-2.2252163
0.017002892
-2.3774794
0.012948382
-2.5376701
0.0095073339
-2.7072203
0.006695266
-2.8876968
0.0044841624
-3.0798046
0.0028151808
-3.2844192
0.0016132383
-3.5039536
0.00079464754
-3.742424
0.00028413079
-4.0009831
-0.0045620293
-0.5392627
-0.005496163
-0.54677148
-0.0061288839
-0.55260165
-0.006066553
-0.55567847
-0.0048542497
-0.55512433
-0.0017685739
-0.55031447
0.0035615615
-0.54176502
0.010979098
-0.51949134
0.014833783
-0.55902833
0.0190389
-0.60172089
0.024038752
-0.64759035
0.030347946
-0.69702956
0.037904315
-0.74999558
0.04597162
-0.80751268
0.05347209
-0.87081601
0.059383561
-0.93987843
0.063045353
-1.0143079
0.064263335
-1.0940694
0.063248647
-1.1795583
0.060471592
-1.2708017
0.056479389
-1.3676867
0.051741734
-1.4704916
0.046576823
-1.5798705
0.041172069
-1.6963301
0.035655479
-1.8197441
0.030159738
-1.9498895
0.024844639
-2.0869401
0.019880189
-2.2311061
0.015415118
-2.3824986
0.011551009
-2.5418619
0.0083325362
-2.7107276
0.0057519081
-2.8906749
0.0037626694
-3.0822833
0.0022934615
-3.2864886
0.0012630514
-3.5057218
0.00058725721
-3.7437997
0.00019093301
-4.002034
-0.0027097953
-0.53964953
-0.0041174282
-0.54796653
-0.0053819353
-0.55499728
-0.0061939238
-0.55951886
-0.0060803975
-0.56059417
-0.0042304328
-0.55760359
-0.00016224383
-0.55098902
0.006080632
-0.5413326
0.013913161
-0.52257025
0.018023423
-0.56232393
0.02289635
-0.6050598
0.029192538
-0.6511098
0.037028678
-0.70037886
0.045711465
-0.75388101
0.054079155
-0.8129193
0.060960391
-0.87749166
0.065530718
-0.94718681
0.067474843
-1.021964
0.066941615
-1.1022545
0.064406896
-1.1880352
0.06048411
-1.2790749
0.05572838
-1.3755685
0.050521876
-1.4781821
0.045069581
-1.5876454
0.03947514
-1.704077
0.033833562
-1.8271437
0.028280519
-1.9567395
0.02298738
-2.0930948
0.018126489
-2.2364449
0.013833845
-2.3869821
0.010188035
-2.5455334
0.0072082435
-2.7137708
0.0048643742
-2.8932251
0.003093979
-3.0844005
0.0018160761
-3.2882732
0.00094592359
-3.5071999
0.00040081423
-3.7449159
0.00010517139
-4.0028111
-0.00057367939
-0.53987343
-0.0022972457
-0.54881532
-0.0039920677
-0.5568997
-0.005511123
-0.5627584
-0.0063801544
-0.56536357
-0.005667987
-0.56412065
-0.0028087621
-0.55937682
0.0022844553
-0.55169672
0.0090220898
-0.5406176
0.017002382
-0.52560638
0.021724731
-0.56536468
0.027965401
-0.60824129
0.036015519
-0.6540403
0.045269578
-0.70378692
0.054500848
-0.75881629
0.062382517
-0.81915708
0.067919267
-0.8844068
0.070654382
-0.9544831
0.070655418
-1.029889
0.068388208
-1.1105479
0.064526352
-1.1961009
0.059726075
-1.2866779
0.054457641
-1.3829108
0.048964182
-1.4855899
0.043331609
-1.5951554
0.037606088
-1.7114547
0.031880073
-1.8341213
0.026309689
-1.9631197
0.021081958
-2.0987367
0.016366319
-2.2412739
0.012279703
-2.3909497
0.0088742384
-2.5487258
0.0061433391
-2.716369
0.0040366431
-2.8953942
0.0024786267
-3.0861921
0.0013816452
-3.2897679
0.00065985627
-3.5084283
0.00023362992
-3.7457633
2.7051122e-05
-4.0033549
-0.53995134
0.0016877391
-0.0002121318
-0.54932592
-0.0021244245
-0.55827902
-0.0041363074
-0.56537921
-0.0058713917
-0.56941184
-0.0062034542
-0.56981096
-0.0044784732
-0.56688833
-0.00050875778
-0.56111925
0.0051705035
-0.55212012
0.012035624
-0.53986469
0.02054025
-0.52838376
0.026682072
-0.56823545
0.034892585
-0.61079385
0.044665487
-0.65700841
0.054743543
-0.70827482
0.063650848
-0.76462934
0.070204425
-0.82568619
0.07379708
-0.89134803
0.074391712
-0.9621593
0.072422119
-1.0380197
0.068615184
-1.1184323
0.06373489
-1.2034487
0.058366238
-1.293682
0.052819459
-1.3899165
0.047176251
-1.4927655
0.041427938
-1.6023821
0.035603823
-1.7184653
0.029823183
-1.8406811
0.024273596
-1.9690343
0.019153766
-2.1038939
0.014621903
-2.2455998
0.01076972
-2.3944435
0.0076206162
-2.551466
0.005143357
-2.7185642
0.0032701266
-2.8971949
0.0019154765
-3.0876797
0.00098792261
-3.2910225
0.00040261886
-3.5094037
8.5100242e-05
-3.7463997
-3.6933902e-05
-4.003673
-0.54954714
0.001993701
-0.53991893
0.0039503484
4.6209458e-05
-0.55913337
-0.0021753931
-0.56736394
-0.0046309458
-0.57276254
-0.0059525109
-0.57466072
-0.0052852724
-0.57345569
-0.0023924961
-0.56956859
0.0022345045
-0.56255308
0.00804971
-0.5524604
0.015370736
-0.53878568
0.025369667
-0.53098082
0.033681755
-0.57044923
0.043923728
-0.61336424
0.054821175
-0.66108216
0.06476658
-0.71367768
0.072383868
-0.77078421
0.076895751
-0.83227693
0.078148451
-0.89878265
0.076516441
-0.97014878
0.07276096
-1.0457485
0.067760742
-1.1255483
0.062237254
-1.2101413
0.056602176
-1.3003122
0.050958471
-1.3967087
0.04524298
-1.4997025
0.039402657
-1.6092998
0.0334941
-1.7251319
0.027685456
-1.846831
0.022195768
-1.9744969
0.017225516
-2.1085753
0.012912154
-2.2494669
0.009317104
-2.3974841
0.0064345902
-2.5537922
0.0042109767
-2.7203743
0.0025642899
-2.8986716
0.001402259
-3.0888921
0.00063212321
-3.29203
0.00017183301
-3.5101676
-4.9172129e-05
-3.7467961
-9.22598e-05
-4.0037976
-0.55950842
0.002341825
-0.54953885
0.0042007256
-0.53978091
0.0060922668
0.00021537406
-0.56865998
-0.0026797334
-0.57545491
-0.0049836323
-0.57874031
-0.0053562717
-0.57905328
-0.0034694243
-0.57696822
0.00010558826
-0.57189763
0.0048761175
-0.56381112
0.011130205
-0.55243402
0.01992429
-0.53734396
0.032416681
-0.53289874
0.043066088
-0.57266144
0.054751536
-0.61705512
0.065737915
-0.666092
0.074454065
-0.7194685
0.0799466
-0.77703538
0.081921453
-0.83947679
0.080674199
-0.90664665
0.076977179
-0.97774839
0.071814318
-1.0526593
0.06606706
-1.1319514
0.060285593
-1.2164116
0.054628406
-1.3067048
0.048989784
-1.4032854
0.043218294
-1.5064175
0.037278534
-1.6159693
0.031292753
-1.7314607
0.025485615
-1.8525834
0.020097461
-1.9795202
0.015317169
-2.1128088
0.011252469
-2.2528833
0.0079315181
-2.4001092
0.0053205377
-2.5557268
0.0033466787
-2.7218442
0.0019172496
-2.8998384
0.00093608883
-3.0898481
0.00031135056
-3.2928327
-3.5189217e-05
-3.5106987
-0.00017229027
-3.7469886
-0.000146779
-4.0037245
-0.56921013
0.0027777125
-0.55951598
0.0046367953
-0.54930501
0.0062888728
-0.53950446
0.0079606774
-7.0999983e-05
-0.57740422
-0.0032749222
-0.58217915
-0.0048046408
-0.5837656
-0.0038699693
-0.58326465
-0.0013068996
-0.58009387
0.0023607436
-0.57391003
0.0076030575
-0.56461487
0.015368645
-0.5519949
0.026754984
-0.53489461
0.042123506
-0.53480835
0.054550037
-0.57599253
0.066575331
-0.62168948
0.076418651
-0.67153113
0.082942884
-0.72539056
0.08570867
-0.78401091
0.084898092
-0.84722969
0.081273081
-0.91413891
0.07591158
-0.98448419
0.069860169
-1.0587995
0.0638495
-1.137881
0.058139495
-1.2224139
0.052603628
-1.3129004
0.046983897
-1.4097161
0.041122106
-1.5129965
0.035061139
-1.6224215
0.02900949
-1.7374708
0.023240404
-1.8579317
0.0179982
-1.9841073
0.013445991
-2.1166022
0.009655009
-2.2558856
0.0066195235
-2.4023347
0.0042804471
-2.5573136
0.0025493434
-2.7230059
0.001326312
-2.9007375
0.00051390111
-3.0905716
2.5670449e-05
-3.2934147
-0.00022081428
-3.5110375
-0.00028043644
-3.7469765
-0.00019359743
-4.0034849
-0.57826746
0.002856754
-0.56919627
0.0053223482
-0.55915006
0.0067965731
-0.54880173
0.0081271426
-0.53905997
0.0093737498
-0.00076363552
-0.58493378
-0.0036722609
-0.58779363
-0.0037590587
-0.58850798
-0.0020962282
-0.58708424
0.00040854531
-0.58275516
0.0045669459
-0.57531339
0.011462896
-0.56492913
0.021961257
-0.55048874
0.0364371
-0.53206798
0.054235062
-0.53780652
0.067284993
-0.5802625
0.078280792
-0.62679085
0.085885688
-0.67714856
0.089504229
-0.73214946
0.089191371
-0.79166462
0.08566087
-0.85463799
0.080067013
-0.92072815
0.073628288
-0.9903924
0.067283436
-1.0644063
0.061449794
-1.1434946
0.056018847
-1.2282061
0.050625402
-1.3189839
0.044959921
-1.416117
0.038946074
-1.5194852
0.032745801
-1.6286303
0.026652273
-1.7431245
0.020966563
-1.8628715
0.015916292
-1.9882646
0.011626715
-2.1199761
0.0081290258
-2.258479
0.0053852014
-2.4042029
0.0033145451
-2.5585923
0.0018168349
-2.7239011
0.00078835188
-2.9013839
0.00013293283
-3.091076
-0.00023763066
-3.2938117
-0.00038706421
-3.5111702
-0.00037638404
-3.7468056
-0.00023582741
-4.0030788
-0.58625786
0.0022090701
-0.57820695
0.005744112
-0.56859923
0.0076467149
-0.55831518
0.0086351149
-0.54793977
0.00952491
-0.53845089
0.010152984
-0.0019073772
-0.59118774
-0.0033102515
-0.59289043
-0.0024079077
-0.59286493
-0.0009991606
-0.59036397
0.0018958762
-0.5846224
0.0079238983
-0.576089
0.017808376
-0.56412274
0.031605283
-0.54858507
0.048804588
-0.52996116
0.067866767
-0.54171451
0.080036984
-0.58503226
0.088771048
-0.63212554
0.093310267
-0.68370793
0.093554348
-0.73971042
0.090151946
-0.79900978
0.084302626
-0.86111527
0.077386312
-0.92643601
0.070584995
-0.99569692
0.064526061
-1.0696289
0.059171157
-1.1488573
0.05406357
-1.2338914
0.048717352
-1.3251013
0.042892494
-1.4225347
0.036664584
-1.5258416
0.030325665
-1.6345676
0.024231172
-1.7484168
0.018681783
-1.867396
0.013868909
-1.9919987
0.0098718092
-2.1229388
0.0066813657
-2.2607023
0.0042306418
-2.4057406
0.0024217769
-2.5596018
0.0011464736
-2.7245585
0.00030036148
-2.9018157
-0.00021183405
-3.0913885
-0.00047081914
-3.2940016
-0.00053553026
-3.5111377
-0.00046155121
-3.7464592
-0.00027329785
-4.0025266
-0.59320811
0.00054766934
-0.58616891
0.0051567529
-0.5771462
0.0081742145
-0.56724499
0.0094709962
-0.55694182
0.0099857764
-0.54672582
0.010295116
-0.53768661
0.010129528
-0.0026200924
-0.5965389
-0.0024760331
-0.59753845
-0.0018769336
-0.59673594
-0.00035380988
-0.59274081
0.0045689559
-0.58566771
0.013991344
-0.57566973
0.027446754
-0.56295676
0.044208192
-0.54741727
0.063033644
-0.52843775
0.081665269
-0.54613592
0.091585622
-0.59010098
0.097117565
-0.63849165
0.097994373
-0.69118414
0.094758054
-0.74701133
0.088639637
-0.80541016
0.081161288
-0.86666579
0.073759966
-0.93146115
0.067341812
-1.000524
0.062001494
-1.0745321
0.057216165
-1.1540917
0.052310828
-1.2396497
0.04683459
-1.3313566
0.040726744
-1.4289694
0.034247395
-1.5320264
0.027798293
-1.6401995
0.021760553
-1.7533254
0.016405069
-1.8715065
0.011872157
-1.9953176
0.0081916633
-2.1255119
0.0053168395
-2.262568
0.0031564885
-2.4069854
0.0016002144
-2.5603737
0.00053539103
-2.7250127
-0.00014152285
-2.9020424
-0.0005217515
-3.0915106
-0.00067918876
-3.2940225
-0.00066775126
-3.5109172
-0.00053699159
-3.7459691
-0.00030643072
-4.001831
-0.59904809
-0.0014501788
-0.59304955
0.0029265947
-0.58447965
0.0074830921
-0.57508113
0.0099006252
-0.56523715
0.010688772
-0.55504342
0.010689942
-0.54518559
0.010266825
-0.53677681
0.009144832
-0.0025701516
-0.60119507
-0.0023467486
-0.60186479
-0.0019950191
-0.59979721
0.0014734086
-0.59412168
0.010274064
-0.58539187
0.023691039
-0.57496067
0.040316039
-0.56258647
0.059016368
-0.54681341
0.077725323
-0.52725224
0.094283802
-0.55092216
0.10090376
-0.59626977
0.10249872
-0.64586918
0.099494401
-0.69846143
0.093106296
-0.75337629
0.084981937
-0.81084754
0.076829164
-0.87144815
0.069881768
-0.93589434
0.064454981
-1.004931
0.060000955
-1.0792579
0.055649715
-1.1594271
0.050695771
-1.245643
0.044883457
-1.3377579
0.038398046
-1.4353478
0.031671524
-1.5379856
0.025170512
-1.6455007
0.019259919
-1.7578401
0.014156429
-1.8751924
0.009940861
-1.998225
0.0065947382
-2.1277094
0.0040386266
-2.2641107
0.002162365
-2.4079584
0.00084753115
-2.560941
-1.7502911e-05
-2.7252811
-0.00054111821
-2.9020999
-0.00079946979
-3.0914598
-0.00086497675
-3.2938545
-0.00078509297
-3.5105453
-0.00060355708
-3.7453337
-0.00033551332
-4.0010181
-0.60362181
-0.0027666297
-0.59894179
-0.00023617755
-0.59077865
0.0047170929
-0.58158453
0.0089911843
-0.57235879
0.010919195
-0.56261872
0.011221829
-0.55265312
0.01059686
-0.54334302
0.00928342
-0.53573306
0.0070509959
-0.0026841223
-0.60568643
-0.0029037057
-0.60572139
-0.0010012213
-0.60186508
0.0066789983
-0.59400406
0.020090866
-0.58488182
0.036929305
-0.57517386
0.055724285
-0.56279506
0.074596616
-0.54652452
0.091442152
-0.52645822
0.10459994
-0.55684427
0.10703873
-0.60351515
0.10434691
-0.65311409
0.097727282
-0.70483349
0.088893492
-0.75876212
0.079820432
-0.81542858
0.072145088
-0.8754992
0.066487413
-0.93977576
0.062336637
-1.0090828
0.058637873
-1.0840941
0.054390172
-1.1650766
0.04907599
-1.2519153
0.042751329
-1.344265
0.035851656
-1.4416239
0.028929721
-1.5436808
0.022459916
-1.6504372
0.016753282
-1.761933
0.01195624
-1.8784509
0.0080883474
-2.0007348
0.0050876441
-2.1295524
0.0028484858
-2.2653422
0.0012471971
-2.4086945
0.00016255452
-2.5613175
-0.0005228353
-2.7253879
-0.00089970836
-2.9019843
-0.0010475391
-3.0912437
-0.0010300187
-3.293538
-0.00088872572
-3.5100181
-0.00066196664
-3.7445948
-0.000360889
-4.0000857
-0.60807088
-0.0030815582
-0.60391995
-0.0025658483
-0.59660268
0.00090120988
-0.58734982
0.0059695237
-0.57814451
0.0097970412
-0.56903206
0.011234973
-0.55939724
0.010966131
-0.54980248
0.0095623413
-0.54122278
0.0072012905
-0.53456819
0.0037093877
-0.0031800958
-0.61022399
-0.0025194533
-0.60880098
0.0036109791
-0.60230215
0.016638816
-0.59367361
0.033848131
-0.58546246
0.053044475
-0.57606224
0.072212238
-0.56331611
0.089412609
-0.54660383
0.10302257
-0.52705501
0.11152438
-0.56385865
0.10928481
-0.61069957
0.10249426
-0.65950288
0.092929107
-0.71021735
0.082785879
-0.76320689
0.074145866
-0.81912205
0.068064869
-0.87883136
0.064149851
-0.94329126
0.0611752
-1.0133387
0.057822793
-1.0893312
0.053235766
-1.1711552
0.047273531
-1.2584778
0.040336178
-1.3508333
0.033056584
-1.4477398
0.026033739
-1.5490609
0.019694143
-1.6549722
0.014267642
-1.7655907
0.009824159
-1.8812854
0.0063261388
-2.0028596
0.0036753126
-2.1310579
0.0017469923
-2.2662969
0.00040969065
-2.4092069
-0.00046271695
-2.5615264
-0.00097588365
-2.7253221
-0.0012205629
-2.901721
-0.0012681748
-3.090877
-0.0011758775
-3.2930588
-0.00097967698
-3.5093776
-0.00071286247
-3.743731
-0.00038284455
-3.9990505
-0.61311683
-0.002981242
-0.60902296
-0.0028300551
-0.60223609