/*--------------------------------*- C++ -*----------------------------------*\
| =========                 |                                                 |
| \\      /  F ield         | OpenFOAM: The Open Source CFD Toolbox           |
|  \\    /   O peration     | Version:  v2012                                 |
|   \\  /    A nd           | Website:  www.openfoam.com                      |
|    \\/     M anipulation  |                                                 |
\*---------------------------------------------------------------------------*/
FoamFile
{
    version     2.0;
    format      ascii;
    class       pointVectorField;
    location    "8.9741551682";
    object      pointDisplacement;
}
// * * * * * * * * * * * * * * * * * * * * * * * * * * * * * * * * * * * * * //

dimensions      [0 1 0 0 0 0 0];


internalField   nonuniform List<vector> 
18840
(
(-1.562639 -0 -0)
(-1.5624655 0 0)
(-1.5619469 0 0)
(-1.5610868 0 0)
(-1.559888 0 0)
(-1.5583523 0 0)
(-1.5564809 0 0)
(-1.5542745 0 0)
(-1.5517332 0 0)
(-1.5488564 0 0)
(-1.5456434 0 0)
(-1.5420928 0 0)
(-1.5382032 0 0)
(-1.5339724 0 0)
(-1.5293984 0 0)
(-1.5244785 0 0)
(-1.5192102 0 0)
(-1.5135907 0 0)
(-1.5076176 0 0)
(-1.5012834 0 0)
(-1.4932561 0 0)
(-1.562639 -0 -0)
(-1.5624647 0 0)
(-1.5619437 0 0)
(-1.56108 0 0)
(-1.5598767 0 0)
(-1.5583358 0 0)
(-1.5564587 0 0)
(-1.5542463 0 0)
(-1.5516988 0 0)
(-1.5488161 0 0)
(-1.5455974 0 0)
(-1.5420417 0 0)
(-1.5381476 0 0)
(-1.5339133 0 0)
(-1.529337 0 0)
(-1.5244164 0 0)
(-1.519149 0 0)
(-1.5135323 0 0)
(-1.5075637 0 0)
(-1.5012379 0 0)
(-1.4945578 0 0)
(-1.562639 -0 -0)
(-1.5624635 0 0)
(-1.5619394 0 0)
(-1.5610708 0 0)
(-1.5598612 0 0)
(-1.5583129 0 0)
(-1.5564276 0 0)
(-1.5542063 0 0)
(-1.5516496 0 0)
(-1.5487574 0 0)
(-1.5455292 0 0)
(-1.5419643 0 0)
(-1.5380616 0 0)
(-1.5338195 0 0)
(-1.5292363 0 0)
(-1.52431 0 0)
(-1.5190384 0 0)
(-1.5134192 0 0)
(-1.5074498 0 0)
(-1.5011268 0 0)
(-1.4943643 0 0)
(-1.562639 -0 -0)
(-1.5624625 0 0)
(-1.5619353 0 0)
(-1.5610622 0 0)
(-1.5598467 0 0)
(-1.5582916 0 0)
(-1.5563986 0 0)
(-1.5541691 0 0)
(-1.5516039 0 0)
(-1.548703 0 0)
(-1.5454664 0 0)
(-1.5418934 0 0)
(-1.537983 0 0)
(-1.533734 0 0)
(-1.5291451 0 0)
(-1.5242144 0 0)
(-1.5189401 0 0)
(-1.5133201 0 0)
(-1.5073522 0 0)
(-1.5010334 0 0)
(-1.4941984 0 0)
(-1.562639 -0 -0)
(-1.5624615 0 0)
(-1.5619315 0 0)
(-1.561054 0 0)
(-1.5598331 0 0)
(-1.5582715 0 0)
(-1.5563714 0 0)
(-1.5541344 0 0)
(-1.5515613 0 0)
(-1.5486525 0 0)
(-1.545408 0 0)
(-1.5418274 0 0)
(-1.5379101 0 0)
(-1.5336549 0 0)
(-1.5290607 0 0)
(-1.524126 0 0)
(-1.5188493 0 0)
(-1.5132288 0 0)
(-1.5072628 0 0)
(-1.5009486 0 0)
(-1.4940496 0 0)
(-1.562639 -0 -0)
(-1.5624605 0 0)
(-1.5619279 0 0)
(-1.5610463 0 0)
(-1.5598202 0 0)
(-1.5582526 0 0)
(-1.5563459 0 0)
(-1.5541017 0 0)
(-1.5515212 0 0)
(-1.548605 0 0)
(-1.5453531 0 0)
(-1.5417654 0 0)
(-1.5378412 0 0)
(-1.5335798 0 0)
(-1.5289802 0 0)
(-1.5240412 0 0)
(-1.5187613 0 0)
(-1.5131393 0 0)
(-1.5071736 0 0)
(-1.500862 0 0)
(-1.4939056 0 0)
(-1.562639 -0 -0)
(-1.5624596 0 0)
(-1.5619245 0 0)
(-1.5610391 0 0)
(-1.5598081 0 0)
(-1.5582349 0 0)
(-1.5563219 0 0)
(-1.554071 0 0)
(-1.5514835 0 0)
(-1.5485601 0 0)
(-1.5453011 0 0)
(-1.5417062 0 0)
(-1.5377752 0 0)
(-1.5335073 0 0)
(-1.5289016 0 0)
(-1.5239572 0 0)
(-1.5186727 0 0)
(-1.513047 0 0)
(-1.507079 0 0)
(-1.5007663 0 0)
(-1.4937586 0 0)
(-1.562639 -0 -0)
(-1.5624588 0 0)
(-1.5619213 0 0)
(-1.5610324 0 0)
(-1.5597968 0 0)
(-1.5582182 0 0)
(-1.5562993 0 0)
(-1.5540422 0 0)
(-1.551448 0 0)
(-1.5485177 0 0)
(-1.5452516 0 0)
(-1.5416495 0 0)
(-1.5377113 0 0)
(-1.5334363 0 0)
(-1.5288236 0 0)
(-1.5238723 0 0)
(-1.5185813 0 0)
(-1.5129493 0 0)
(-1.5069754 0 0)
(-1.5006576 0 0)
(-1.493604 0 0)
(-1.562639 -0 -0)
(-1.562458 0 0)
(-1.5619183 0 0)
(-1.561026 0 0)
(-1.5597862 0 0)
(-1.5582027 0 0)
(-1.5562783 0 0)
(-1.5540152 0 0)
(-1.5514147 0 0)
(-1.5484777 0 0)
(-1.5452045 0 0)
(-1.5415952 0 0)
(-1.5376494 0 0)
(-1.5333665 0 0)
(-1.5287457 0 0)
(-1.5237859 0 0)
(-1.5184861 0 0)
(-1.512845 0 0)
(-1.5068616 0 0)
(-1.500534 0 0)
(-1.4934399 0 0)
(-1.562639 -0 -0)
(-1.5624573 0 0)
(-1.5619155 0 0)
(-1.5610202 0 0)
(-1.5597765 0 0)
(-1.5581884 0 0)
(-1.5562589 0 0)
(-1.5539901 0 0)
(-1.5513836 0 0)
(-1.5484401 0 0)
(-1.5451601 0 0)
(-1.5415434 0 0)
(-1.5375896 0 0)
(-1.5332981 0 0)
(-1.528668 0 0)
(-1.5236981 0 0)
(-1.5183872 0 0)
(-1.512734 0 0)
(-1.5067372 0 0)
(-1.5003952 0 0)
(-1.4932666 0 0)
(-1.562639 -0 -0)
(-1.5624562 0 0)
(-1.5619115 0 0)
(-1.5610117 0 0)
(-1.5597621 0 0)
(-1.558167 0 0)
(-1.5562295 0 0)
(-1.5539517 0 0)
(-1.5513353 0 0)
(-1.5483809 0 0)
(-1.545089 0 0)
(-1.5414593 0 0)
(-1.5374914 0 0)
(-1.5331844 0 0)
(-1.5285374 0 0)
(-1.523549 0 0)
(-1.5182178 0 0)
(-1.5125423 0 0)
(-1.5065209 0 0)
(-1.5001523 0 0)
(-1.4929895 0 0)
(-1.562639 -0 -0)
(-1.5624655 0 0)
(-1.5619469 0 0)
(-1.5610868 0 0)
(-1.559888 0 0)
(-1.5583523 0 0)
(-1.5564809 0 0)
(-1.5542745 0 0)
(-1.5517332 0 0)
(-1.5488564 0 0)
(-1.5456434 0 0)
(-1.5420928 0 0)
(-1.5382032 0 0)
(-1.5339724 0 0)
(-1.5293984 0 0)
(-1.5244785 0 0)
(-1.5192102 0 0)
(-1.5135907 0 0)
(-1.5076176 0 0)
(-1.5012834 0 0)
(-1.4932561 0 0)
(-1.562639 -0 -0)
(-1.5624647 0 0)
(-1.5619437 0 0)
(-1.56108 0 0)
(-1.5598767 0 0)
(-1.5583358 0 0)
(-1.5564587 0 0)
(-1.5542463 0 0)
(-1.5516988 0 0)
(-1.5488161 0 0)
(-1.5455974 0 0)
(-1.5420417 0 0)
(-1.5381476 0 0)
(-1.5339133 0 0)
(-1.529337 0 0)
(-1.5244164 0 0)
(-1.519149 0 0)
(-1.5135323 0 0)
(-1.5075637 0 0)
(-1.5012379 0 0)
(-1.4945578 0 0)
(-1.562639 -0 -0)
(-1.5624635 0 0)
(-1.5619394 0 0)
(-1.5610708 0 0)
(-1.5598612 0 0)
(-1.5583129 0 0)
(-1.5564276 0 0)
(-1.5542063 0 0)
(-1.5516496 0 0)
(-1.5487574 0 0)
(-1.5455292 0 0)
(-1.5419643 0 0)
(-1.5380616 0 0)
(-1.5338195 0 0)
(-1.5292363 0 0)
(-1.52431 0 0)
(-1.5190384 0 0)
(-1.5134192 0 0)
(-1.5074498 0 0)
(-1.5011268 0 0)
(-1.4943643 0 0)
(-1.562639 -0 -0)
(-1.5624625 0 0)
(-1.5619353 0 0)
(-1.5610622 0 0)
(-1.5598467 0 0)
(-1.5582916 0 0)
(-1.5563986 0 0)
(-1.5541691 0 0)
(-1.5516039 0 0)
(-1.548703 0 0)
(-1.5454664 0 0)
(-1.5418934 0 0)
(-1.537983 0 0)
(-1.533734 0 0)
(-1.5291451 0 0)
(-1.5242144 0 0)
(-1.5189401 0 0)
(-1.5133201 0 0)
(-1.5073522 0 0)
(-1.5010334 0 0)
(-1.4941984 0 0)
(-1.562639 -0 -0)
(-1.5624615 0 0)
(-1.5619315 0 0)
(-1.561054 0 0)
(-1.5598331 0 0)
(-1.5582715 0 0)
(-1.5563714 0 0)
(-1.5541344 0 0)
(-1.5515613 0 0)
(-1.5486525 0 0)
(-1.545408 0 0)
(-1.5418274 0 0)
(-1.5379101 0 0)
(-1.5336549 0 0)
(-1.5290607 0 0)
(-1.524126 0 0)
(-1.5188493 0 0)
(-1.5132288 0 0)
(-1.5072628 0 0)
(-1.5009486 0 0)
(-1.4940496 0 0)
(-1.562639 -0 -0)
(-1.5624605 0 0)
(-1.5619279 0 0)
(-1.5610463 0 0)
(-1.5598202 0 0)
(-1.5582526 0 0)
(-1.5563459 0 0)
(-1.5541017 0 0)
(-1.5515212 0 0)
(-1.548605 0 0)
(-1.5453531 0 0)
(-1.5417654 0 0)
(-1.5378412 0 0)
(-1.5335798 0 0)
(-1.5289802 0 0)
(-1.5240412 0 0)
(-1.5187613 0 0)
(-1.5131393 0 0)
(-1.5071736 0 0)
(-1.500862 0 0)
(-1.4939056 0 0)
(-1.562639 -0 -0)
(-1.5624596 0 0)
(-1.5619245 0 0)
(-1.5610391 0 0)
(-1.5598081 0 0)
(-1.5582349 0 0)
(-1.5563219 0 0)
(-1.554071 0 0)
(-1.5514835 0 0)
(-1.5485601 0 0)
(-1.5453011 0 0)
(-1.5417062 0 0)
(-1.5377752 0 0)
(-1.5335073 0 0)
(-1.5289016 0 0)
(-1.5239572 0 0)
(-1.5186727 0 0)
(-1.513047 0 0)
(-1.507079 0 0)
(-1.5007663 0 0)
(-1.4937586 0 0)
(-1.562639 -0 -0)
(-1.5624588 0 0)
(-1.5619213 0 0)
(-1.5610324 0 0)
(-1.5597968 0 0)
(-1.5582182 0 0)
(-1.5562993 0 0)
(-1.5540422 0 0)
(-1.551448 0 0)
(-1.5485177 0 0)
(-1.5452516 0 0)
(-1.5416495 0 0)
(-1.5377113 0 0)
(-1.5334363 0 0)
(-1.5288236 0 0)
(-1.5238723 0 0)
(-1.5185813 0 0)
(-1.5129493 0 0)
(-1.5069754 0 0)
(-1.5006576 0 0)
(-1.493604 0 0)
(-1.562639 -0 -0)
(-1.562458 0 0)
(-1.5619183 0 0)
(-1.561026 0 0)
(-1.5597862 0 0)
(-1.5582027 0 0)
(-1.5562783 0 0)
(-1.5540152 0 0)
(-1.5514147 0 0)
(-1.5484777 0 0)
(-1.5452045 0 0)
(-1.5415952 0 0)
(-1.5376494 0 0)
(-1.5333665 0 0)
(-1.5287457 0 0)
(-1.5237859 0 0)
(-1.5184861 0 0)
(-1.512845 0 0)
(-1.5068616 0 0)
(-1.500534 0 0)
(-1.4934399 0 0)
(-1.562639 -0 -0)
(-1.5624573 0 0)
(-1.5619155 0 0)
(-1.5610202 0 0)
(-1.5597765 0 0)
(-1.5581884 0 0)
(-1.5562589 0 0)
(-1.5539901 0 0)
(-1.5513836 0 0)
(-1.5484401 0 0)
(-1.5451601 0 0)
(-1.5415434 0 0)
(-1.5375896 0 0)
(-1.5332981 0 0)
(-1.528668 0 0)
(-1.5236981 0 0)
(-1.5183872 0 0)
(-1.512734 0 0)
(-1.5067372 0 0)
(-1.5003952 0 0)
(-1.4932666 0 0)
(-1.562639 -0 -0)
(-1.5624562 0 0)
(-1.5619115 0 0)
(-1.5610117 0 0)
(-1.5597621 0 0)
(-1.558167 0 0)
(-1.5562295 0 0)
(-1.5539517 0 0)
(-1.5513353 0 0)
(-1.5483809 0 0)
(-1.545089 0 0)
(-1.5414593 0 0)
(-1.5374914 0 0)
(-1.5331844 0 0)
(-1.5285374 0 0)
(-1.523549 0 0)
(-1.5182178 0 0)
(-1.5125423 0 0)
(-1.5065209 0 0)
(-1.5001523 0 0)
(-1.4929895 0 0)
(-1.562639 -0 -0)
(-1.5624679 0 0)
(-1.5619558 0 0)
(-1.5611051 0 0)
(-1.5599174 0 0)
(-1.5583937 0 0)
(-1.5565343 0 0)
(-1.5543391 0 0)
(-1.5518073 0 0)
(-1.5489379 0 0)
(-1.5457293 0 0)
(-1.5421795 0 0)
(-1.5382864 0 0)
(-1.5340474 0 0)
(-1.5294594 0 0)
(-1.5245193 0 0)
(-1.5192237 0 0)
(-1.5135688 0 0)
(-1.5075507 0 0)
(-1.5011587 0 0)
(-1.4938204 0 0)
(-1.562639 -0 -0)
(-1.5624676 0 0)
(-1.5619549 0 0)
(-1.5611032 0 0)
(-1.5599142 0 0)
(-1.5583889 0 0)
(-1.5565277 0 0)
(-1.5543304 0 0)
(-1.5517964 0 0)
(-1.5489245 0 0)
(-1.5457132 0 0)
(-1.5421606 0 0)
(-1.5382645 0 0)
(-1.5340221 0 0)
(-1.5294307 0 0)
(-1.5244869 0 0)
(-1.5191872 0 0)
(-1.5135279 0 0)
(-1.507505 0 0)
(-1.5011078 0 0)
(-1.4937706 0 0)
(-1.562639 -0 -0)
(-1.5624671 0 0)
(-1.5619529 0 0)
(-1.561099 0 0)
(-1.5599071 0 0)
(-1.5583782 0 0)
(-1.5565128 0 0)
(-1.5543108 0 0)
(-1.5517715 0 0)
(-1.548894 0 0)
(-1.5456766 0 0)
(-1.5421176 0 0)
(-1.5382146 0 0)
(-1.5339651 0 0)
(-1.5293661 0 0)
(-1.5244143 0 0)
(-1.5191063 0 0)
(-1.5134383 0 0)
(-1.5074062 0 0)
(-1.5009996 0 0)
(-1.4936742 0 0)
(-1.562639 -0 -0)
(-1.5624667 0 0)
(-1.5619513 0 0)
(-1.5610955 0 0)
(-1.5599011 0 0)
(-1.5583694 0 0)
(-1.5565006 0 0)
(-1.5542949 0 0)
(-1.5517516 0 0)
(-1.5488698 0 0)
(-1.545648 0 0)
(-1.5420842 0 0)
(-1.5381764 0 0)
(-1.5339218 0 0)
(-1.5293176 0 0)
(-1.5243605 0 0)
(-1.519047 0 0)
(-1.5133733 0 0)
(-1.5073354 0 0)
(-1.5009232 0 0)
(-1.4936255 0 0)
(-1.562639 -0 -0)
(-1.5624664 0 0)
(-1.56195 0 0)
(-1.5610927 0 0)
(-1.5598964 0 0)
(-1.5583624 0 0)
(-1.5564912 0 0)
(-1.5542828 0 0)
(-1.5517367 0 0)
(-1.5488521 0 0)
(-1.5456273 0 0)
(-1.5420607 0 0)
(-1.53815 0 0)
(-1.5338927 0 0)
(-1.5292857 0 0)
(-1.524326 0 0)
(-1.51901 0 0)
(-1.5133338 0 0)
(-1.5072934 0 0)
(-1.5008795 0 0)
(-1.4936255 0 0)
(-1.562639 -0 -0)
(-1.5624661 0 0)
(-1.561949 0 0)
(-1.5610905 0 0)
(-1.5598929 0 0)
(-1.5583573 0 0)
(-1.5564845 0 0)
(-1.5542745 0 0)
(-1.5517268 0 0)
(-1.5488407 0 0)
(-1.5456147 0 0)
(-1.542047 0 0)
(-1.5381354 0 0)
(-1.5338775 0 0)
(-1.5292704 0 0)
(-1.5243108 0 0)
(-1.5189953 0 0)
(-1.5133199 0 0)
(-1.5072807 0 0)
(-1.5008689 0 0)
(-1.4936743 0 0)
(-1.562639 -0 -0)
(-1.5624659 0 0)
(-1.5619482 0 0)
(-1.561089 0 0)
(-1.5598905 0 0)
(-1.5583541 0 0)
(-1.5564805 0 0)
(-1.5542698 0 0)
(-1.5517218 0 0)
(-1.5488356 0 0)
(-1.5456099 0 0)
(-1.5420429 0 0)
(-1.5381326 0 0)
(-1.5338765 0 0)
(-1.5292717 0 0)
(-1.5243151 0 0)
(-1.5190031 0 0)
(-1.5133321 0 0)
(-1.5072978 0 0)
(-1.5008923 0 0)
(-1.4937726 0 0)
(-1.562639 -0 -0)
(-1.5624658 0 0)
(-1.5619477 0 0)
(-1.5610882 0 0)
(-1.5598893 0 0)
(-1.5583527 0 0)
(-1.5564791 0 0)
(-1.5542689 0 0)
(-1.5517217 0 0)
(-1.5488368 0 0)
(-1.5456129 0 0)
(-1.5420485 0 0)
(-1.5381415 0 0)
(-1.5338894 0 0)
(-1.5292896 0 0)
(-1.524339 0 0)
(-1.5190341 0 0)
(-1.5133712 0 0)
(-1.5073461 0 0)
(-1.5009518 0 0)
(-1.4939226 0 0)
(-1.562639 -0 -0)
(-1.5624657 0 0)
(-1.5619476 0 0)
(-1.5610879 0 0)
(-1.5598893 0 0)
(-1.5583531 0 0)
(-1.5564804 0 0)
(-1.5542716 0 0)
(-1.5517264 0 0)
(-1.5488441 0 0)
(-1.5456238 0 0)
(-1.5420637 0 0)
(-1.538162 0 0)
(-1.5339164 0 0)
(-1.5293243 0 0)
(-1.5243828 0 0)
(-1.5190885 0 0)
(-1.513438 0 0)
(-1.5074273 0 0)
(-1.5010503 0 0)
(-1.494128 0 0)
(-1.562639 -0 -0)
(-1.5624657 0 0)
(-1.5619477 0 0)
(-1.5610884 0 0)
(-1.5598904 0 0)
(-1.5583553 0 0)
(-1.5564843 0 0)
(-1.5542778 0 0)
(-1.5517358 0 0)
(-1.5488576 0 0)
(-1.5456422 0 0)
(-1.5420883 0 0)
(-1.538194 0 0)
(-1.5339573 0 0)
(-1.5293756 0 0)
(-1.5244462 0 0)
(-1.5191661 0 0)
(-1.5135323 0 0)
(-1.5075416 0 0)
(-1.5011875 0 0)
(-1.4943883 0 0)
(-1.562639 -0 -0)
(-1.5624679 0 0)
(-1.5619558 0 0)
(-1.5611051 0 0)
(-1.5599174 0 0)
(-1.5583937 0 0)
(-1.5565343 0 0)
(-1.5543391 0 0)
(-1.5518073 0 0)
(-1.5489379 0 0)
(-1.5457293 0 0)
(-1.5421795 0 0)
(-1.5382864 0 0)
(-1.5340474 0 0)
(-1.5294594 0 0)
(-1.5245193 0 0)
(-1.5192237 0 0)
(-1.5135688 0 0)
(-1.5075507 0 0)
(-1.5011587 0 0)
(-1.4938204 0 0)
(-1.562639 -0 -0)
(-1.5624676 0 0)
(-1.5619549 0 0)
(-1.5611032 0 0)
(-1.5599142 0 0)
(-1.5583889 0 0)
(-1.5565277 0 0)
(-1.5543304 0 0)
(-1.5517964 0 0)
(-1.5489245 0 0)
(-1.5457132 0 0)
(-1.5421606 0 0)
(-1.5382645 0 0)
(-1.5340221 0 0)
(-1.5294307 0 0)
(-1.5244869 0 0)
(-1.5191872 0 0)
(-1.5135279 0 0)
(-1.507505 0 0)
(-1.5011078 0 0)
(-1.4937706 0 0)
(-1.562639 -0 -0)
(-1.5624671 0 0)
(-1.5619529 0 0)
(-1.561099 0 0)
(-1.5599071 0 0)
(-1.5583782 0 0)
(-1.5565128 0 0)
(-1.5543108 0 0)
(-1.5517715 0 0)
(-1.548894 0 0)
(-1.5456766 0 0)
(-1.5421176 0 0)
(-1.5382146 0 0)
(-1.5339651 0 0)
(-1.5293661 0 0)
(-1.5244143 0 0)
(-1.5191063 0 0)
(-1.5134383 0 0)
(-1.5074062 0 0)
(-1.5009996 0 0)
(-1.4936742 0 0)
(-1.562639 -0 -0)
(-1.5624667 0 0)
(-1.5619513 0 0)
(-1.5610955 0 0)
(-1.5599011 0 0)
(-1.5583694 0 0)
(-1.5565006 0 0)
(-1.5542949 0 0)
(-1.5517516 0 0)
(-1.5488698 0 0)
(-1.545648 0 0)
(-1.5420842 0 0)
(-1.5381764 0 0)
(-1.5339218 0 0)
(-1.5293176 0 0)
(-1.5243605 0 0)
(-1.519047 0 0)
(-1.5133733 0 0)
(-1.5073354 0 0)
(-1.5009232 0 0)
(-1.4936255 0 0)
(-1.562639 -0 -0)
(-1.5624664 0 0)
(-1.56195 0 0)
(-1.5610927 0 0)
(-1.5598964 0 0)
(-1.5583624 0 0)
(-1.5564912 0 0)
(-1.5542828 0 0)
(-1.5517367 0 0)
(-1.5488521 0 0)
(-1.5456273 0 0)
(-1.5420607 0 0)
(-1.53815 0 0)
(-1.5338927 0 0)
(-1.5292857 0 0)
(-1.524326 0 0)
(-1.51901 0 0)
(-1.5133338 0 0)
(-1.5072934 0 0)
(-1.5008795 0 0)
(-1.4936255 0 0)
(-1.562639 -0 -0)
(-1.5624661 0 0)
(-1.561949 0 0)
(-1.5610905 0 0)
(-1.5598929 0 0)
(-1.5583573 0 0)
(-1.5564845 0 0)
(-1.5542745 0 0)
(-1.5517268 0 0)
(-1.5488407 0 0)
(-1.5456147 0 0)
(-1.542047 0 0)
(-1.5381354 0 0)
(-1.5338775 0 0)
(-1.5292704 0 0)
(-1.5243108 0 0)
(-1.5189953 0 0)
(-1.5133199 0 0)
(-1.5072807 0 0)
(-1.5008689 0 0)
(-1.4936743 0 0)
(-1.562639 -0 -0)
(-1.5624659 0 0)
(-1.5619482 0 0)
(-1.561089 0 0)
(-1.5598905 0 0)
(-1.5583541 0 0)
(-1.5564805 0 0)
(-1.5542698 0 0)
(-1.5517218 0 0)
(-1.5488356 0 0)
(-1.5456099 0 0)
(-1.5420429 0 0)
(-1.5381326 0 0)
(-1.5338765 0 0)
(-1.5292717 0 0)
(-1.5243151 0 0)
(-1.5190031 0 0)
(-1.5133321 0 0)
(-1.5072978 0 0)
(-1.5008923 0 0)
(-1.4937726 0 0)
(-1.562639 -0 -0)
(-1.5624658 0 0)
(-1.5619477 0 0)
(-1.5610882 0 0)
(-1.5598893 0 0)
(-1.5583527 0 0)
(-1.5564791 0 0)
(-1.5542689 0 0)
(-1.5517217 0 0)
(-1.5488368 0 0)
(-1.5456129 0 0)
(-1.5420485 0 0)
(-1.5381415 0 0)
(-1.5338894 0 0)
(-1.5292896 0 0)
(-1.524339 0 0)
(-1.5190341 0 0)
(-1.5133712 0 0)
(-1.5073461 0 0)
(-1.5009518 0 0)
(-1.4939226 0 0)
(-1.562639 -0 -0)
(-1.5624657 0 0)
(-1.5619476 0 0)
(-1.5610879 0 0)
(-1.5598893 0 0)
(-1.5583531 0 0)
(-1.5564804 0 0)
(-1.5542716 0 0)
(-1.5517264 0 0)
(-1.5488441 0 0)
(-1.5456238 0 0)
(-1.5420637 0 0)
(-1.538162 0 0)
(-1.5339164 0 0)
(-1.5293243 0 0)
(-1.5243828 0 0)
(-1.5190885 0 0)
(-1.513438 0 0)
(-1.5074273 0 0)
(-1.5010503 0 0)
(-1.494128 0 0)
(-1.562639 -0 -0)
(-1.5624657 0 0)
(-1.5619477 0 0)
(-1.5610884 0 0)
(-1.5598904 0 0)
(-1.5583553 0 0)
(-1.5564843 0 0)
(-1.5542778 0 0)
(-1.5517358 0 0)
(-1.5488576 0 0)
(-1.5456422 0 0)
(-1.5420883 0 0)
(-1.538194 0 0)
(-1.5339573 0 0)
(-1.5293756 0 0)
(-1.5244462 0 0)
(-1.5191661 0 0)
(-1.5135323 0 0)
(-1.5075416 0 0)
(-1.5011875 0 0)
(-1.4943883 0 0)
(-1.4848064 0 0)
(-1.4746413 0 0)
(-1.4638964 0 0)
(-1.4525843 0 0)
(-1.4407135 0 0)
(-1.4282996 0 0)
(-1.4153653 0 0)
(-1.4019326 0 0)
(-1.3880171 0 0)
(-1.373629 0 0)
(-1.3587759 0 0)
(-1.3434606 0 0)
(-1.3276821 0 0)
(-1.3114381 0 0)
(-1.2947195 0 0)
(-1.2775178 0 0)
(-1.2598238 0 0)
(-1.2416259 0 0)
(-1.2229079 0 0)
(-1.2036506 0 0)
(-1.1838272 0 0)
(-1.1634063 0 0)
(-1.1423538 0 0)
(-1.1206342 0 0)
(-1.098206 0 0)
(-1.0750094 0 0)
(-1.0509928 0 0)
(-1.0261024 0 0)
(-1.0002699 0 0)
(-0.97339907 0 0)
(-0.94540044 0 0)
(-0.91622654 0 0)
(-0.88580611 0 0)
(-0.85400036 0 0)
(-0.82065098 0 0)
(-0.78564707 0 0)
(-0.74892256 0 0)
(-0.71032362 0 0)
(-0.66958805 0 0)
(-0.62647997 0 0)
(-0.58078446 0 0)
(-0.53226244 0 0)
(-0.48062093 0 0)
(-0.42554008 0 0)
(-0.36666214 0 0)
(-0.30356978 0 0)
(-0.23584163 0 0)
(-0.16303394 0 0)
(-0.084574311 0 0)
(0 0 0)
(-1.4847721 0 0)
(-1.4746292 0 0)
(-1.4639045 0 0)
(-1.4526098 0 0)
(-1.4407534 0 0)
(-1.4283506 0 0)
(-1.4154247 0 0)
(-1.4019983 0 0)
(-1.3880869 0 0)
(-1.3737017 0 0)
(-1.3588501 0 0)
(-1.3435349 0 0)
(-1.3277553 0 0)
(-1.3115091 0 0)
(-1.2947888 0 0)
(-1.2775855 0 0)
(-1.2598898 0 0)
(-1.24169 0 0)
(-1.2229701 0 0)
(-1.2037105 0 0)
(-1.1838848 0 0)
(-1.1634617 0 0)
(-1.1424071 0 0)
(-1.1206851 0 0)
(-1.0982534 0 0)
(-1.0750542 0 0)
(-1.0510353 0 0)
(-1.0261433 0 0)
(-1.00031 0 0)
(-0.97343882 0 0)
(-0.94543956 0 0)
(-0.91626565 0 0)
(-0.88584601 0 0)
(-0.85403882 0 0)
(-0.82068759 0 0)
(-0.7856812 0 0)
(-0.74895541 0 0)
(-0.71035807 0 0)
(-0.66962476 0 0)
(-0.62651797 0 0)
(-0.58082264 0 0)
(-0.53229989 0 0)
(-0.48065541 0 0)
(-0.42557183 0 0)
(-0.36669164 0 0)
(-0.30359577 0 0)
(-0.23586351 0 0)
(-0.16305155 0 0)
(-0.084585118 0 0)
(0 0 0)
(-1.4847292 0 0)
(-1.4746579 0 0)
(-1.4640001 0 0)
(-1.4527668 0 0)
(-1.4409655 0 0)
(-1.4286116 0 0)
(-1.4157285 0 0)
(-1.4023392 0 0)
(-1.3884602 0 0)
(-1.3741028 0 0)
(-1.3592747 0 0)
(-1.343979 0 0)
(-1.3282151 0 0)
(-1.3119812 0 0)
(-1.2952711 0 0)
(-1.2780766 0 0)
(-1.2603876 0 0)
(-1.2421922 0 0)
(-1.2234752 0 0)
(-1.2042176 0 0)
(-1.1843926 0 0)
(-1.1639685 0 0)
(-1.1429123 0 0)
(-1.1211881 0 0)
(-1.0987518 0 0)
(-1.0755477 0 0)
(-1.0515239 0 0)
(-1.026627 0 0)
(-1.0007884 0 0)
(-0.97391166 0 0)
(-0.94590634 0 0)
(-0.91672612 0 0)
(-0.8862998 0 0)
(-0.85448313 0 0)
(-0.82112133 0 0)
(-0.78610203 0 0)
(-0.74936276 0 0)
(-0.71075298 0 0)
(-0.67000585 0 0)
(-0.62688257 0 0)
(-0.58116875 0 0)
(-0.53262516 0 0)
(-0.48095463 0 0)
(-0.42584239 0 0)
(-0.36693136 0 0)
(-0.3037993 0 0)
(-0.23602582 0 0)
(-0.16316818 0 0)
(-0.084648289 0 0)
(0 0 0)
(-1.4847736 0 0)
(-1.4748236 0 0)
(-1.4642797 0 0)
(-1.4531513 0 0)
(-1.4414456 0 0)
(-1.4291775 0 0)
(-1.4163706 0 0)
(-1.4030484 0 0)
(-1.3892284 0 0)
(-1.3749223 0 0)
(-1.3601381 0 0)
(-1.344879 0 0)
(-1.3291455 0 0)
(-1.3129364 0 0)
(-1.2962463 0 0)
(-1.279068 0 0)
(-1.2613915 0 0)
(-1.2432047 0 0)
(-1.2244932 0 0)
(-1.2052387 0 0)
(-1.1854147 0 0)
(-1.1649889 0 0)
(-1.143929 0 0)
(-1.1221996 0 0)
(-1.0997555 0 0)
(-1.0765422 0 0)
(-1.052508 0 0)
(-1.0276002 0 0)
(-1.00175 0 0)
(-0.97486039 0 0)
(-0.94684075 0 0)
(-0.91764535 0 0)
(-0.88720302 0 0)
(-0.85536668 0 0)
(-0.82198293 0 0)
(-0.7869387 0 0)
(-0.75017214 0 0)
(-0.71153331 0 0)
(-0.67075384 0 0)
(-0.62759466 0 0)
(-0.58184199 0 0)
(-0.53325491 0 0)
(-0.48153301 0 0)
(-0.42636452 0 0)
(-0.36739179 0 0)
(-0.3041886 0 0)
(-0.23633488 0 0)
(-0.16338826 0 0)
(-0.084765978 0 0)
(0 0 0)
(-1.4849056 0 0)
(-1.4751259 0 0)
(-1.4647423 0 0)
(-1.4537621 0 0)
(-1.442192 0 0)
(-1.4300464 0 0)
(-1.417349 0 0)
(-1.4041239 0 0)
(-1.3903897 0 0)
(-1.3761586 0 0)
(-1.3614387 0 0)
(-1.3462338 0 0)
(-1.3305454 0 0)
(-1.314373 0 0)
(-1.2977127 0 0)
(-1.2805582 0 0)
(-1.2628997 0 0)
(-1.2447252 0 0)
(-1.2260215 0 0)
(-1.2067713 0 0)
(-1.186948 0 0)
(-1.1665189 0 0)
(-1.145453 0 0)
(-1.1237157 0 0)
(-1.10126 0 0)
(-1.0780329 0 0)
(-1.0539833 0 0)
(-1.0290584 0 0)
(-1.0031893 0 0)
(-0.97627937 0 0)
(-0.94823744 0 0)
(-0.91901802 0 0)
(-0.88854975 0 0)
(-0.85668361 0 0)
(-0.82326689 0 0)
(-0.78818526 0 0)
(-0.75137741 0 0)
(-0.71269362 0 0)
(-0.67186387 0 0)
(-0.62864921 0 0)
(-0.58283729 0 0)
(-0.53418472 0 0)
(-0.48238659 0 0)
(-0.42713421 0 0)
(-0.36806951 0 0)
(-0.30476093 0 0)
(-0.23678834 0 0)
(-0.16370986 0 0)
(-0.084937221 0 0)
(0 0 0)
(-1.4851247 0 0)
(-1.4755636 0 0)
(-1.465386 0 0)
(-1.454597 0 0)
(-1.4432022 0 0)
(-1.4312158 0 0)
(-1.4186609 0 0)
(-1.4055628 0 0)
(-1.3919414 0 0)
(-1.3778095 0 0)
(-1.3631744 0 0)
(-1.348041 0 0)
(-1.3324121 0 0)
(-1.3162884 0 0)
(-1.2996673 0 0)
(-1.2825437 0 0)
(-1.2649086 0 0)
(-1.24675 0 0)
(-1.2280557 0 0)
(-1.2088101 0 0)
(-1.188987 0 0)
(-1.1685531 0 0)
(-1.1474783 0 0)
(-1.1257293 0 0)
(-1.1032586 0 0)
(-1.080013 0 0)
(-1.0559422 0 0)
(-1.0309937 0 0)
(-1.0050989 0 0)
(-0.9781607 0 0)
(-0.95008789 0 0)
(-0.92083543 0 0)
(-0.89033158 0 0)
(-0.85842517 0 0)
(-0.82496419 0 0)
(-0.78983342 0 0)
(-0.75297075 0 0)
(-0.71422583 0 0)
(-0.67332791 0 0)
(-0.63003906 0 0)
(-0.58414807 0 0)
(-0.53540796 0 0)
(-0.48350905 0 0)
(-0.42814621 0 0)
(-0.36895965 0 0)
(-0.30551205 0 0)
(-0.23738298 0 0)
(-0.16413093 0 0)
(-0.085160881 0 0)
(0 0 0)
(-1.4854306 0 0)
(-1.4761355 0 0)
(-1.4662091 0 0)
(-1.4556537 0 0)
(-1.4444741 0 0)
(-1.4326834 0 0)
(-1.4203042 0 0)
(-1.4073626 0 0)
(-1.3938808 0 0)
(-1.3798724 0 0)
(-1.3653435 0 0)
(-1.3502986 0 0)
(-1.3347429 0 0)
(-1.3186795 0 0)
(-1.3021069 0 0)
(-1.2850213 0 0)
(-1.2674143 0 0)
(-1.2492743 0 0)
(-1.2305908 0 0)
(-1.2113499 0 0)
(-1.1915255 0 0)
(-1.1710844 0 0)
(-1.1499975 0 0)
(-1.1282328 0 0)
(-1.1057422 0 0)
(-1.0824732 0 0)
(-1.0583756 0 0)
(-1.0333967 0 0)
(-1.0074682 0 0)
(-0.98049388 0 0)
(-0.95238194 0 0)
(-0.92308717 0 0)
(-0.89253751 0 0)
(-0.86058049 0 0)
(-0.82706418 0 0)
(-0.79187218 0 0)
(-0.75494123 0 0)
(-0.71611974 0 0)
(-0.6751365 0 0)
(-0.63175468 0 0)
(-0.585765 0 0)
(-0.53691627 0 0)
(-0.48489281 0 0)
(-0.42939314 0 0)
(-0.37005594 0 0)
(-0.30643683 0 0)
(-0.23811459 0 0)
(-0.16464816 0 0)
(-0.085435114 0 0)
(0 0 0)
(-1.4858245 0 0)
(-1.4768413 0 0)
(-1.4672102 0 0)
(-1.4569302 0 0)
(-1.446005 0 0)
(-1.4344474 0 0)
(-1.4222774 0 0)
(-1.409522 0 0)
(-1.396208 0 0)
(-1.3823485 0 0)
(-1.3679464 0 0)
(-1.3530053 0 0)
(-1.3375354 0 0)
(-1.3215432 0 0)
(-1.3050278 0 0)
(-1.2879867 0 0)
(-1.2704125 0 0)
(-1.2522933 0 0)
(-1.2336208 0 0)
(-1.2143837 0 0)
(-1.1945563 0 0)
(-1.174105 0 0)
(-1.1530017 0 0)
(-1.1312162 0 0)
(-1.1087008 0 0)
(-1.085403 0 0)
(-1.0612721 0 0)
(-1.0362555 0 0)
(-1.0102856 0 0)
(-0.98326661 0 0)
(-0.95510668 0 0)
(-0.92576036 0 0)
(-0.89515481 0 0)
(-0.8631362 0 0)
(-0.82955355 0 0)
(-0.79428897 0 0)
(-0.75727655 0 0)
(-0.71836292 0 0)
(-0.67727748 0 0)
(-0.63378499 0 0)
(-0.58767772 0 0)
(-0.53869949 0 0)
(-0.48652845 0 0)
(-0.4308669 0 0)
(-0.37135099 0 0)
(-0.30752891 0 0)
(-0.23897832 0 0)
(-0.16525823 0 0)
(-0.085758109 0 0)
(0 0 0)
(-1.4863089 0 0)
(-1.4776815 0 0)
(-1.4683885 0 0)
(-1.458424 0 0)
(-1.4477932 0 0)
(-1.4365095 0 0)
(-1.4245876 0 0)
(-1.4120516 0 0)
(-1.3989291 0 0)
(-1.3852366 0 0)
(-1.3709785 0 0)
(-1.3561588 0 0)
(-1.3407895 0 0)
(-1.3248794 0 0)
(-1.3084292 0 0)
(-1.2914384 0 0)
(-1.2738999 0 0)
(-1.2558015 0 0)
(-1.2371389 0 0)
(-1.2179041 0 0)
(-1.198071 0 0)
(-1.1776054 0 0)
(-1.1564807 0 0)
(-1.1346689 0 0)
(-1.1121224 0 0)
(-1.0887895 0 0)
(-1.0646189 0 0)
(-1.039557 0 0)
(-1.0135367 0 0)
(-0.9864642 0 0)
(-0.95824758 0 0)
(-0.92884031 0 0)
(-0.89816821 0 0)
(-0.86607718 0 0)
(-0.83241736 0 0)
(-0.79706863 0 0)
(-0.75996153 0 0)
(-0.72094113 0 0)
(-0.67973757 0 0)
(-0.63611693 0 0)
(-0.58987358 0 0)
(-0.54074613 0 0)
(-0.48840532 0 0)
(-0.43255756 0 0)
(-0.37283628 0 0)
(-0.30878121 0 0)
(-0.23996839 0 0)
(-0.16595683 0 0)
(-0.086127572 0 0)
(0 0 0)
(-1.4868829 0 0)
(-1.478653 0 0)
(-1.469738 0 0)
(-1.4601309 0 0)
(-1.4498378 0 0)
(-1.438866 0 0)
(-1.4272272 0 0)
(-1.4149412 0 0)
(-1.4020333 0 0)
(-1.3885267 0 0)
(-1.3744307 0 0)
(-1.3597504 0 0)
(-1.3444966 0 0)
(-1.3286788 0 0)
(-1.3122999 0 0)
(-1.2953602 0 0)
(-1.2778571 0 0)
(-1.2597813 0 0)
(-1.2411288 0 0)
(-1.2218939 0 0)
(-1.2020513 0 0)
(-1.1815661 0 0)
(-1.1604138 0 0)
(-1.1385689 0 0)
(-1.115985 0 0)
(-1.0926104 0 0)
(-1.0683931 0 0)
(-1.0432781 0 0)
(-1.0171988 0 0)
(-0.99006352 0 0)
(-0.96178125 0 0)
(-0.93230398 0 0)
(-0.90155516 0 0)
(-0.86938066 0 0)
(-0.83563313 0 0)
(-0.80018965 0 0)
(-0.76297548 0 0)
(-0.72383393 0 0)
(-0.68249729 0 0)
(-0.63873265 0 0)
(-0.59233593 0 0)
(-0.54304031 0 0)
(-0.49050904 0 0)
(-0.4344524 0 0)
(-0.37450043 0 0)
(-0.31018418 0 0)
(-0.24107753 0 0)
(-0.16673907 0 0)
(-0.086540845 0 0)
(0 0 0)
(-1.4857088 0 0)
(-1.4778682 0 0)
(-1.4693314 0 0)
(-1.4600948 0 0)
(-1.4501572 0 0)
(-1.4395182 0 0)
(-1.4281922 0 0)
(-1.4161952 0 0)
(-1.4035481 0 0)
(-1.3902748 0 0)
(-1.3763886 0 0)
(-1.3618975 0 0)
(-1.3468101 0 0)
(-1.3311362 0 0)
(-1.3148801 0 0)
(-1.2980446 0 0)
(-1.2806316 0 0)
(-1.2626338 0 0)
(-1.244045 0 0)
(-1.2248587 0 0)
(-1.2050544 0 0)
(-1.1845993 0 0)
(-1.163469 0 0)
(-1.1416387 0 0)
(-1.119063 0 0)
(-1.0956913 0 0)
(-1.0714712 0 0)
(-1.0463461 0 0)
(-1.0202499 0 0)
(-0.9930931 0 0)
(-0.96478515 0 0)
(-0.93527624 0 0)
(-0.90448876 0 0)
(-0.8722685 0 0)
(-0.83846953 0 0)
(-0.80296689 0 0)
(-0.76567969 0 0)
(-0.726451 0 0)
(-0.68501374 0 0)
(-0.64113569 0 0)
(-0.59461467 0 0)
(-0.54517992 0 0)
(-0.492486 0 0)
(-0.43624649 0 0)
(-0.37608912 0 0)
(-0.31153527 0 0)
(-0.24215566 0 0)
(-0.16750837 0 0)
(-0.086956963 0 0)
(0 0 0)
(-1.4848064 0 0)
(-1.4746413 0 0)
(-1.4638964 0 0)
(-1.4525843 0 0)
(-1.4407135 0 0)
(-1.4282996 0 0)
(-1.4153653 0 0)
(-1.4019326 0 0)
(-1.3880171 0 0)
(-1.373629 0 0)
(-1.3587759 0 0)
(-1.3434606 0 0)
(-1.3276821 0 0)
(-1.3114381 0 0)
(-1.2947195 0 0)
(-1.2775178 0 0)
(-1.2598238 0 0)
(-1.2416259 0 0)
(-1.2229079 0 0)
(-1.2036506 0 0)
(-1.1838272 0 0)
(-1.1634063 0 0)
(-1.1423538 0 0)
(-1.1206342 0 0)
(-1.098206 0 0)
(-1.0750094 0 0)
(-1.0509928 0 0)
(-1.0261024 0 0)
(-1.0002699 0 0)
(-0.97339907 0 0)
(-0.94540044 0 0)
(-0.91622654 0 0)
(-0.88580611 0 0)
(-0.85400036 0 0)
(-0.82065098 0 0)
(-0.78564707 0 0)
(-0.74892256 0 0)
(-0.71032362 0 0)
(-0.66958805 0 0)
(-0.62647997 0 0)
(-0.58078446 0 0)
(-0.53226244 0 0)
(-0.48062093 0 0)
(-0.42554008 0 0)
(-0.36666214 0 0)
(-0.30356978 0 0)
(-0.23584163 0 0)
(-0.16303394 0 0)
(-0.084574311 0 0)
(0 0 0)
(-1.4847721 0 0)
(-1.4746292 0 0)
(-1.4639045 0 0)
(-1.4526098 0 0)
(-1.4407534 0 0)
(-1.4283506 0 0)
(-1.4154247 0 0)
(-1.4019983 0 0)
(-1.3880869 0 0)
(-1.3737017 0 0)
(-1.3588501 0 0)
(-1.3435349 0 0)
(-1.3277553 0 0)
(-1.3115091 0 0)
(-1.2947888 0 0)
(-1.2775855 0 0)
(-1.2598898 0 0)
(-1.24169 0 0)
(-1.2229701 0 0)
(-1.2037105 0 0)
(-1.1838848 0 0)
(-1.1634617 0 0)
(-1.1424071 0 0)
(-1.1206851 0 0)
(-1.0982534 0 0)
(-1.0750542 0 0)
(-1.0510353 0 0)
(-1.0261433 0 0)
(-1.00031 0 0)
(-0.97343882 0 0)
(-0.94543956 0 0)
(-0.91626565 0 0)
(-0.88584601 0 0)
(-0.85403882 0 0)
(-0.82068759 0 0)
(-0.7856812 0 0)
(-0.74895541 0 0)
(-0.71035807 0 0)
(-0.66962476 0 0)
(-0.62651797 0 0)
(-0.58082264 0 0)
(-0.53229989 0 0)
(-0.48065541 0 0)
(-0.42557183 0 0)
(-0.36669164 0 0)
(-0.30359577 0 0)
(-0.23586351 0 0)
(-0.16305155 0 0)
(-0.084585118 0 0)
(0 0 0)
(-1.4847292 0 0)
(-1.4746579 0 0)
(-1.4640001 0 0)
(-1.4527668 0 0)
(-1.4409655 0 0)
(-1.4286116 0 0)
(-1.4157285 0 0)
(-1.4023392 0 0)
(-1.3884602 0 0)
(-1.3741028 0 0)
(-1.3592747 0 0)
(-1.343979 0 0)
(-1.3282151 0 0)
(-1.3119812 0 0)
(-1.2952711 0 0)
(-1.2780766 0 0)
(-1.2603876 0 0)
(-1.2421922 0 0)
(-1.2234752 0 0)
(-1.2042176 0 0)
(-1.1843926 0 0)
(-1.1639685 0 0)
(-1.1429123 0 0)
(-1.1211881 0 0)
(-1.0987518 0 0)
(-1.0755477 0 0)
(-1.0515239 0 0)
(-1.026627 0 0)
(-1.0007884 0 0)
(-0.97391166 0 0)
(-0.94590634 0 0)
(-0.91672612 0 0)
(-0.8862998 0 0)
(-0.85448313 0 0)
(-0.82112133 0 0)
(-0.78610203 0 0)
(-0.74936276 0 0)
(-0.71075298 0 0)
(-0.67000585 0 0)
(-0.62688257 0 0)
(-0.58116875 0 0)
(-0.53262516 0 0)
(-0.48095463 0 0)
(-0.42584239 0 0)
(-0.36693136 0 0)
(-0.3037993 0 0)
(-0.23602582 0 0)
(-0.16316818 0 0)
(-0.084648289 0 0)
(0 0 0)
(-1.4847736 0 0)
(-1.4748236 0 0)
(-1.4642797 0 0)
(-1.4531513 0 0)
(-1.4414456 0 0)
(-1.4291775 0 0)
(-1.4163706 0 0)
(-1.4030484 0 0)
(-1.3892284 0 0)
(-1.3749223 0 0)
(-1.3601381 0 0)
(-1.344879 0 0)
(-1.3291455 0 0)
(-1.3129364 0 0)
(-1.2962463 0 0)
(-1.279068 0 0)
(-1.2613915 0 0)
(-1.2432047 0 0)
(-1.2244932 0 0)
(-1.2052387 0 0)
(-1.1854147 0 0)
(-1.1649889 0 0)
(-1.143929 0 0)
(-1.1221996 0 0)
(-1.0997555 0 0)
(-1.0765422 0 0)
(-1.052508 0 0)
(-1.0276002 0 0)
(-1.00175 0 0)
(-0.97486039 0 0)
(-0.94684075 0 0)
(-0.91764535 0 0)
(-0.88720302 0 0)
(-0.85536668 0 0)
(-0.82198293 0 0)
(-0.7869387 0 0)
(-0.75017214 0 0)
(-0.71153331 0 0)
(-0.67075384 0 0)
(-0.62759466 0 0)
(-0.58184199 0 0)
(-0.53325491 0 0)
(-0.48153301 0 0)
(-0.42636452 0 0)
(-0.36739179 0 0)
(-0.3041886 0 0)
(-0.23633488 0 0)
(-0.16338826 0 0)
(-0.084765978 0 0)
(0 0 0)
(-1.4849056 0 0)
(-1.4751259 0 0)
(-1.4647423 0 0)
(-1.4537621 0 0)
(-1.442192 0 0)
(-1.4300464 0 0)
(-1.417349 0 0)
(-1.4041239 0 0)
(-1.3903897 0 0)
(-1.3761586 0 0)
(-1.3614387 0 0)
(-1.3462338 0 0)
(-1.3305454 0 0)
(-1.314373 0 0)
(-1.2977127 0 0)
(-1.2805582 0 0)
(-1.2628997 0 0)
(-1.2447252 0 0)
(-1.2260215 0 0)
(-1.2067713 0 0)
(-1.186948 0 0)
(-1.1665189 0 0)
(-1.145453 0 0)
(-1.1237157 0 0)
(-1.10126 0 0)
(-1.0780329 0 0)
(-1.0539833 0 0)
(-1.0290584 0 0)
(-1.0031893 0 0)
(-0.97627937 0 0)
(-0.94823744 0 0)
(-0.91901802 0 0)
(-0.88854975 0 0)
(-0.85668361 0 0)
(-0.82326689 0 0)
(-0.78818526 0 0)
(-0.75137741 0 0)
(-0.71269362 0 0)
(-0.67186387 0 0)
(-0.62864921 0 0)
(-0.58283729 0 0)
(-0.53418472 0 0)
(-0.48238659 0 0)
(-0.42713421 0 0)
(-0.36806951 0 0)
(-0.30476093 0 0)
(-0.23678834 0 0)
(-0.16370986 0 0)
(-0.084937221 0 0)
(0 0 0)
(-1.4851247 0 0)
(-1.4755636 0 0)
(-1.465386 0 0)
(-1.454597 0 0)
(-1.4432022 0 0)
(-1.4312158 0 0)
(-1.4186609 0 0)
(-1.4055628 0 0)
(-1.3919414 0 0)
(-1.3778095 0 0)
(-1.3631744 0 0)
(-1.348041 0 0)
(-1.3324121 0 0)
(-1.3162884 0 0)
(-1.2996673 0 0)
(-1.2825437 0 0)
(-1.2649086 0 0)
(-1.24675 0 0)
(-1.2280557 0 0)
(-1.2088101 0 0)
(-1.188987 0 0)
(-1.1685531 0 0)
(-1.1474783 0 0)
(-1.1257293 0 0)
(-1.1032586 0 0)
(-1.080013 0 0)
(-1.0559422 0 0)
(-1.0309937 0 0)