/*--------------------------------*- C++ -*----------------------------------*\
| =========                 |                                                 |
| \\      /  F ield         | OpenFOAM: The Open Source CFD Toolbox           |
|  \\    /   O peration     | Version:  v2012                                 |
|   \\  /    A nd           | Website:  www.openfoam.com                      |
|    \\/     M anipulation  |                                                 |
\*---------------------------------------------------------------------------*/
FoamFile
{
    version     2.0;
    format      ascii;
    class       volVectorField;
    location    "8.9741551682";
    object      U;
}
// * * * * * * * * * * * * * * * * * * * * * * * * * * * * * * * * * * * * * //

dimensions      [0 1 -1 0 0 0 0];


internalField   nonuniform List<vector> 
9200
(
(2.5041141 -0.0006931669 -1.5091469e-23)
(2.5039493 -0.0021110104 -3.8154511e-22)
(2.506271 -0.0008027465 3.9034449e-22)
(2.5037909 -0.0032495682 -1.5273833e-22)
(2.5060292 -0.0024328325 1.1184448e-23)
(2.5075637 -0.00087744953 7.3017251e-22)
(2.5034919 -0.004388093 2.0471791e-22)
(2.5057722 -0.0037510731 -1.9740835e-22)
(2.5072843 -0.0026602959 -7.7485742e-23)
(2.5092427 -0.00097157577 -5.6183378e-22)
(2.5031921 -0.0052402457 2.269413e-22)
(2.505328 -0.0050795365 1.4675905e-22)
(2.506974 -0.0041046423 -8.4371424e-22)
(2.508919 -0.0029600225 2.2060336e-22)
(2.5109592 -0.0010704692 -1.2907343e-21)
(2.5028255 -0.0060323699 1.6935378e-22)
(2.5048444 -0.0060783591 1.1060737e-22)
(2.506451 -0.0055713439 0)
(2.5085428 -0.0045714845 -6.8410507e-23)
(2.510599 -0.0032868352 1.1234933e-21)
(2.5128108 -0.001174511 3.7637389e-22)
(2.5024556 -0.0066126691 2.5591301e-22)
(2.5042747 -0.0070179203 -1.6769817e-22)
(2.5058699 -0.0066820591 0)
(2.5079243 -0.0062219428 -5.6410772e-22)
(2.5101641 -0.0050819217 1.0960406e-21)
(2.5124197 -0.0036438341 5.346678e-22)
(2.5147727 -0.0012807079 1.3254212e-21)
(2.5020652 -0.0070897093 6.5252574e-23)
(2.5036745 -0.0077142367 3.5140729e-22)
(2.5051858 -0.0077341707 -5.851936e-22)
(2.5072223 -0.0074852696 3.1288252e-22)
(2.5094611 -0.0069364916 -3.1425172e-22)
(2.5119311 -0.0056399532 6.5340119e-22)
(2.5143588 -0.0040222557 -7.7484061e-22)
(2.5168485 -0.0013867527 -2.7913477e-23)
(2.5016797 -0.0074163987 -1.0616692e-22)
(2.5030431 -0.0082952016 2.3178532e-22)
(2.5044573 -0.0085256996 -2.1223629e-22)
(2.506397 -0.0086906382 1.737066e-22)
(2.5086492 -0.0083746132 -9.3960612e-22)
(2.5111504 -0.0077213319 -6.1339663e-22)
(2.5138243 -0.0062311348 -1.7714641e-22)
(2.5164204 -0.0044145032 -6.1256153e-22)
(2.5190285 -0.001490167 -6.0481326e-22)
(2.5012984 -0.0076369265 -5.851093e-23)
(2.5024037 -0.0087025806 -1.6111066e-22)
(2.5036864 -0.0091933916 1.1538516e-22)
(2.5055076 -0.009615324 -4.2156846e-22)
(2.5076938 -0.0097566522 4.1991047e-22)
(2.5102351 -0.0093585223 -8.7630539e-22)
(2.5129784 -0.0085574722 9.8937831e-22)
(2.5158494 -0.0068438028 -4.8195125e-22)
(2.518596 -0.0048108928 0)
(2.5213015 -0.0015885513 0)
(2.5009302 -0.0077485909 -1.412234e-22)
(2.5017656 -0.0089866089 1.7716787e-22)
(2.5028991 -0.0096732573 -7.4030112e-23)
(2.5045611 -0.010405464 2.2920721e-22)
(2.5066529 -0.010840156 6.5272589e-22)
(2.5091552 -0.010943719 -4.9985338e-22)
(2.5119721 -0.010414673 -5.2991733e-22)
(2.5149539 -0.0094294106 1.5270943e-21)
(2.5180001 -0.0074642716 9.0853189e-22)
(2.5208754 -0.0052012443 -1.2842831e-21)
(2.5236522 -0.0016796241 2.550042e-23)
(2.5005784 -0.0077731809 1.7385647e-22)
(2.5011409 -0.009142226 2.2895665e-22)
(2.502107 -0.010017622 -1.1709784e-23)
(2.5035851 -0.010990422 -4.5102688e-23)
(2.5055376 -0.011778928 3.2778247e-23)
(2.5079661 -0.012215196 -2.2561612e-22)
(2.5107805 -0.0122274 -3.9920741e-22)
(2.5138725 -0.011524744 7.286411e-22)
(2.5170739 -0.010318322 0)
(2.5202681 -0.0080782996 0)
(2.5232441 -0.0055757484 -9.3966506e-22)
(2.5260627 -0.0017613005 2.2592272e-21)
(2.5002485 -0.007720628 8.9320898e-23)
(2.5005383 -0.0091933683 -1.8355274e-22)
(2.5013251 -0.010219869 2.035012e-22)
(2.5025954 -0.011424127 -6.2976237e-22)
(2.5043769 -0.012496044 -6.2786161e-22)
(2.5066824 -0.013333156 1.0040647e-22)
(2.5094541 -0.013715384 6.5166548e-22)
(2.5125865 -0.013587532 -5.5535755e-22)
(2.515938 -0.012666075 1.2451634e-21)
(2.5193333 -0.011204066 3.3614713e-23)
(2.5226409 -0.008671297 -1.7619641e-21)
(2.5256851 -0.0059255417 1.7181683e-21)
(2.5285136 -0.001831728 -1.4716372e-21)
(2.4999431 -0.00760508 -6.7615688e-23)
(2.4999652 -0.0091501658 -3.8963818e-22)
(2.5005644 -0.010304335 -1.2086211e-22)
(2.5016098 -0.01169815 -5.9409018e-22)
(2.5031899 -0.013045832 6.4082877e-23)
(2.5053337 -0.014214506 -2.3423271e-22)
(2.5080106 -0.015043993 5.5666837e-22)
(2.5111391 -0.015319926 3.7538719e-24)
(2.5145806 -0.014998199 1.0436623e-23)
(2.5181674 -0.013813901 -1.6432394e-23)
(2.5217216 -0.012065654 -2.4628662e-21)
(2.5251027 -0.0092289627 9.7013617e-22)
(2.5281787 -0.0062427091 1.2770701e-21)
(2.5309841 -0.0018892987 -3.888845e-21)
(2.4996631 -0.0074375157 1.3599105e-22)
(2.4994266 -0.0090285881 -1.4830178e-22)
(2.4998345 -0.010281067 -1.447525e-22)
(2.5006426 -0.011836998 7.1062369e-22)
(2.5019968 -0.013417774 7.3943922e-22)
(2.5039419 -0.014912816 1.0437529e-22)
(2.5064788 -0.016124148 -1.1022851e-21)
(2.5095499 -0.016891436 -2.6914631e-22)
(2.513035 -0.017000775 -6.9142855e-22)
(2.5167667 -0.016430108 6.2390961e-22)
(2.5205537 -0.014941753 -5.8825012e-22)
(2.5242242 -0.012882348 -2.7916867e-22)
(2.5276344 -0.0097378614 -3.9835886e-22)
(2.5307039 -0.0065201759 5.6261001e-23)
(2.5334532 -0.0019326917 2.3673435e-21)
(2.499409 -0.0072293164 -3.0375834e-22)
(2.4989264 -0.0088407643 1.6180784e-22)
(2.4991426 -0.010166844 5.1129072e-23)
(2.4997058 -0.011850498 6.0447297e-22)
(2.500815 -0.013635683 -4.5303358e-23)
(2.5025295 -0.015415083 -6.2495138e-23)
(2.5048828 -0.017007456 -1.906154e-21)
(2.5078457 -0.018207267 5.4498118e-22)
(2.5113218 -0.018846603 -1.1087875e-22)
(2.5151521 -0.018724973 2.1145471e-21)
(2.5191426 -0.017851028 -1.0866852e-21)
(2.5230852 -0.016022769 7.0436536e-24)
(2.526823 -0.013634566 2.8900254e-21)
(2.530215 -0.010185946 -1.3519252e-21)
(2.5332386 -0.0067518023 -1.6405053e-23)
(2.5359001 -0.0019609289 1.522645e-21)
(2.4991808 -0.0069900592 2.445974e-22)
(2.4984671 -0.0085998324 3.4617599e-22)
(2.4984938 -0.0099742477 4.8544774e-22)
(2.4988091 -0.011756078 -2.8612575e-22)
(2.4996592 -0.013708823 1.6732943e-22)
(2.5011166 -0.015743555 1.0266356e-21)
(2.5032466 -0.017677938 2.1370605e-21)
(2.5060521 -0.019315963 7.8773986e-22)
(2.5094644 -0.020435696 -1.2922988e-22)
(2.5133445 -0.020873853 -9.6912638e-22)
(2.5174943 -0.020455009 9.0921966e-22)
(2.5217003 -0.01922745 -8.1242312e-23)
(2.5257455 -0.017030937 -4.8529548e-22)
(2.5294966 -0.01430459 -9.5138295e-22)
(2.5328219 -0.010562936 1.4575488e-21)
(2.5357611 -0.0069326091 -9.5515447e-22)
(2.5383049 -0.0019734033 -1.8940634e-21)
(2.4989784 -0.0067281529 1.8150526e-22)
(2.4980495 -0.0083164526 2.7185697e-22)
(2.4978923 -0.00971773 -1.0506391e-22)
(2.4979601 -0.011566779 -4.9459461e-22)
(2.4985419 -0.013654821 5.3706983e-22)
(2.499721 -0.015906474 3.0513107e-22)
(2.5015931 -0.018155281 -4.869467e-22)
(2.5041937 -0.020198032 -3.0429304e-22)
(2.5074883 -0.021812688 -8.7712139e-22)
(2.5113618 -0.022772463 -1.277815e-21)
(2.5156295 -0.022930948 1.976302e-21)
(2.5200589 -0.022150732 -1.4699057e-21)
(2.5244255 -0.020526241 2.6662761e-21)
(2.5285138 -0.017942179 -3.024053e-22)
(2.5322219 -0.014877078 -2.0583588e-22)
(2.5354322 -0.010860582 9.6217666e-22)
(2.5382499 -0.0070589965 7.7230404e-23)
(2.5406488 -0.0019698709 1.2149513e-21)
(2.4988004 -0.006450877 -2.8736648e-22)
(2.4976745 -0.0080017375 -7.7625592e-23)
(2.49734 -0.0094081543 7.8612243e-22)
(2.4971647 -0.011298556 1.324309e-21)
(2.4974732 -0.013486976 -1.6895195e-22)
(2.4983584 -0.015921032 -2.573647e-21)
(2.4999433 -0.018446009 1.7341671e-21)
(2.5022955 -0.02086951 -2.8096227e-21)
(2.505418 -0.022954123 6.4239384e-22)
(2.5092286 -0.024461072 -1.948642e-22)
(2.5135591 -0.025171547 -6.0611687e-22)
(2.5181809 -0.024971121 1.4298871e-21)
(2.5228356 -0.023771381 -1.7748979e-21)
(2.5272988 -0.021716134 -1.5046243e-21)
(2.5313662 -0.018735203 3.4177868e-22)
(2.5349741 -0.015339467 -7.7138719e-23)
(2.5380232 -0.011072869 2.0618661e-21)
(2.5406849 -0.0071288432 -1.33091e-21)
(2.5429149 -0.0019504271 9.5622052e-22)
(2.4986458 -0.0061650544 -2.3201945e-22)
(2.4973408 -0.0076635928 -1.0909184e-23)
(2.4968389 -0.0090585913 -4.3953935e-23)
(2.4964265 -0.010962707 -5.7413139e-22)
(2.4964613 -0.013222553 7.1029293e-22)
(2.4970418 -0.015800525 3.9636447e-21)
(2.4983158 -0.01856593 2.3822914e-22)
(2.5003813 -0.021334267 1.6523784e-21)
(2.5032796 -0.023871311 -1.7094848e-21)
(2.5069673 -0.025912101 0)
(2.5113049 -0.027212696 -7.0346725e-22)
(2.5160691 -0.027579917 3.4403873e-22)
(2.5209939 -0.026945493 8.2999701e-22)
(2.5258069 -0.025277551 6.09287e-22)
(2.5302959 -0.022768941 -1.5107161e-21)
(2.5342765 -0.019392189 1.5823308e-22)
(2.5377283 -0.015682318 -7.8080831e-23)
(2.5405729 -0.011196133 -8.3592544e-23)
(2.5430477 -0.0071414782 1.8350019e-22)
(2.5450884 -0.0019154668 -5.0244479e-21)
(2.4985124 -0.0058755252 9.6902553e-23)
(2.4970483 -0.0073113816 2.9762714e-22)
(2.4963883 -0.0086768556 -1.0217522e-21)
(2.4957488 -0.010574686 -2.3599955e-21)
(2.4955115 -0.012873203 -9.6413254e-22)
(2.495782 -0.015563189 1.7004592e-21)
(2.4967276 -0.018527804 -1.8348052e-21)
(2.4984733 -0.02160542 2.5711083e-21)
(2.5010989 -0.024564412 2.7878894e-22)
(2.5046042 -0.027131328 -4.6223536e-24)
(2.5088863 -0.029023014 3.9350412e-22)
(2.5137412 -0.030009021 -1.5258433e-21)
(2.5188942 -0.02994024 1.3566839e-21)
(2.5240544 -0.028805551 -1.8349686e-21)
(2.5289489 -0.026632895 2.1947852e-22)
(2.5333887 -0.023660568 2.9852729e-22)
(2.5372171 -0.019899335 1.4623911e-21)
(2.5404601 -0.015899508 -1.4070891e-21)
(2.5430612 -0.011228984 -1.1520726e-21)
(2.5453219 -0.007097449 -5.5306338e-22)
(2.5471564 -0.0018656345 -2.4378117e-21)
(2.4983988 -0.0055872997 1.0636954e-22)
(2.4967941 -0.0069503347 -2.9613131e-23)
(2.4959889 -0.0082748615 -6.4221492e-22)
(2.4951316 -0.010142079 2.3582636e-21)
(2.4946289 -0.012456886 -8.4769385e-22)
(2.4945869 -0.015221077 -5.926329e-21)
(2.4951922 -0.018350131 -1.2433378e-22)
(2.496592 -0.021694274 -9.1683663e-22)
(2.4989008 -0.025042292 1.0339337e-21)
(2.5021653 -0.028114312 -1.4766665e-22)
(2.5063273 -0.030602496 2.0940672e-21)
(2.5112118 -0.032224078 1.5255619e-21)
(2.5165497 -0.032784207 8.7309981e-22)
(2.5220259 -0.032193907 1.00059e-21)
(2.5273399 -0.030505476 -4.2421756e-21)
(2.5322324 -0.027805636 8.1466889e-22)
(2.5365472 -0.024371835 2.9046388e-22)
(2.5401604 -0.020247166 -1.3981865e-21)
(2.543146 -0.015988157 -1.4422585e-21)
(2.5454697 -0.011171957 -1.5714212e-23)
(2.5474937 -0.0069981224 2.8691477e-22)
(2.5491086 -0.0018017562 1.0765665e-21)
(2.4983026 -0.0053033629 2.892069e-22)
(2.4965772 -0.0065883358 4.6632505e-22)
(2.4956379 -0.0078570631 2.5500827e-23)
(2.4945769 -0.0096801627 7.8435106e-22)
(2.4938146 -0.011980828 -3.68364e-22)
(2.4934632 -0.014794634 -2.7754917e-22)
(2.4937211 -0.018045273 -9.3478062e-22)
(2.4947549 -0.021618297 -3.548299e-21)
(2.4967099 -0.025313508 -2.0389025e-22)
(2.4996774 -0.028864226 -5.5103049e-21)
(2.5036531 -0.031941714 -2.9063042e-21)
(2.5085018 -0.034219767 1.7094777e-21)
(2.5139691 -0.03544129 -6.962644e-22)
(2.5197294 -0.035468653 2.500867e-21)
(2.5254441 -0.034284104 -2.6744596e-21)
(2.53082 -0.032004306 -1.3208876e-21)
(2.535624 -0.028769813 1.5273555e-21)
(2.5397398 -0.024888971 2.1092586e-21)
(2.5430795 -0.02043047 -1.5204811e-21)
(2.5457645 -0.015948164 -1.8185098e-21)
(2.5477821 -0.011026885 -1.7596463e-23)
(2.5495511 -0.0068452061 2.9053147e-21)
(2.5509365 -0.001724782 2.7877528e-21)
(2.4982228 -0.0050273884 5.3804899e-24)
(2.4963939 -0.0062281548 -3.7669013e-22)
(2.4953357 -0.0074344946 -4.3705126e-22)
(2.4940821 -0.009192045 -2.5594753e-21)
(2.4930715 -0.011464088 -1.5649287e-22)
(2.4924136 -0.014290915 1.6350128e-21)
(2.492323 -0.017635844 2.2223454e-22)
(2.4929777 -0.021389677 7.8958175e-22)
(2.4945475 -0.025392499 7.5057649e-22)
(2.4971679 -0.029385494 1.0322659e-21)
(2.5008903 -0.033037306 3.0155464e-21)
(2.5056329 -0.035981996 2.069199e-21)
(2.5111685 -0.037901938 -3.0780409e-21)
(2.5171674 -0.038593324 2.3469637e-21)
(2.5232647 -0.037992921 2.6348929e-21)
(2.5291182 -0.036158848 -2.2070315e-21)
(2.5344586 -0.033267797 2.1922523e-21)
(2.5390885 -0.029506077 -9.2335304e-23)
(2.5429355 -0.025203591 -1.7942295e-21)
(2.5459489 -0.020447722 5.8098438e-21)
(2.5482962 -0.01578138 4.0741432e-21)
(2.5499844 -0.010796182 7.0227701e-23)
(2.5514843 -0.006640464 7.8989865e-23)
(2.5526336 -0.0016357597 2.6031744e-21)
(2.4981577 -0.0047607 1.8226117e-22)
(2.4962439 -0.0058764881 -4.66128e-22)
(2.4950782 -0.007008643 -1.3602302e-23)
(2.4936493 -0.0086931251 6.604626e-22)
(2.4923977 -0.010907913 -1.5692355e-22)
(2.4914419 -0.013733111 9.4620153e-23)
(2.4910032 -0.017129026 2.3448674e-22)
(2.4912722 -0.021032205 4.2725886e-21)
(2.4924343 -0.025290198 4.7487839e-22)
(2.4946614 -0.02968716 7.0716245e-21)
(2.4980671 -0.033888577 2.2208739e-21)
(2.5026298 -0.037500999 -5.8307134e-22)
(2.5081652 -0.040148414 9.2044244e-22)
(2.5143509 -0.041555557 -3.2412426e-21)
(2.5207981 -0.041596374 3.4288239e-21)
(2.5271258 -0.04029189 -3.3950847e-21)
(2.5330092 -0.037773726 -6.8598061e-22)
(2.5382156 -0.034269674 2.1190755e-21)
(2.5425895 -0.030001781 -1.8668302e-21)
(2.546104 -0.025312055 1.3682399e-22)
(2.5487452 -0.020300069 1.7937299e-21)
(2.5507237 -0.015490675 3.3809019e-21)
(2.552065 -0.010482398 9.0604683e-23)
(2.5532855 -0.0063857734 3.3589347e-24)
(2.554195 -0.0015358509 -6.1756092e-21)
(2.4981074 -0.0045065295 -1.5460569e-23)
(2.4961252 -0.0055339409 6.7494311e-22)
(2.494866 -0.0065897965 7.417849e-22)
(2.4932739 -0.0081824611 2.2829744e-22)
(2.4917967 -0.010332842 -2.1962309e-22)
(2.4905467 -0.01312059 7.8234402e-22)
(2.4897664 -0.016552389 -6.1410497e-22)
(2.4896475 -0.020553284 -3.2607592e-21)
(2.490386 -0.025029411 1.5731022e-21)
(2.4921834 -0.029777424 4.1530399e-21)
(2.4952097 -0.03449723 -5.4574678e-21)
(2.499519 -0.038770797 2.6349849e-21)
(2.50498 -0.042165731 -4.1298838e-22)
(2.5112918 -0.044335458 -4.6111803e-21)
(2.5180503 -0.04508064 1.673891e-21)
(2.5248337 -0.044369686 1.8362706e-21)
(2.5312709 -0.042308701 -1.9508336e-21)
(2.537072 -0.039093841 2.3758136e-21)
(2.5420493 -0.034991952 -3.2204378e-21)
(2.5460918 -0.030250287 -2.4338575e-21)
(2.5492172 -0.025214264 4.2220185e-21)
(2.5514472 -0.019990193 -8.6209357e-21)
(2.5530323 -0.015079354 -6.4280211e-21)
(2.5540139 -0.010088322 -2.3959529e-22)
(2.5549484 -0.0060835575 2.6477236e-21)
(2.5556176 -0.0014263438 -2.491386e-21)
(2.4980713 -0.0042650804 -2.4245415e-24)
(2.4960408 -0.0052064529 -1.0865183e-22)
(2.4946954 -0.0061763379 3.3403149e-22)
(2.4929565 -0.0076755036 -9.3821584e-22)
(2.4912637 -0.0097343144 4.3513473e-22)
(2.4897328 -0.012479775 -1.7518855e-21)
(2.4886119 -0.015903793 -1.6350482e-21)
(2.48811 -0.019984598 -7.1681571e-22)
(2.4884174 -0.024617227 -3.2006529e-22)
(2.4897538 -0.029674846 -1.9098456e-21)
(2.492347 -0.034867438 -9.6346809e-23)
(2.4963263 -0.039785031 -8.8548949e-22)
(2.5016353 -0.043943398 -1.0768213e-21)
(2.508006 -0.04691473 2.1886606e-21)
(2.5150281 -0.048425229 -2.5462374e-22)
(2.5222438 -0.04837787 8.7149369e-22)
(2.5292302 -0.046841132 -8.3153896e-21)
(2.5356492 -0.043997758 3.4474148e-21)
(2.5412581 -0.040094546 -1.3555359e-21)
(2.5459179 -0.03542422 2.9450772e-21)
(2.5495614 -0.030249578 5.5551408e-21)
(2.5522493 -0.024912342 2.6887047e-21)
(2.5540363 -0.019521614 3.1037562e-21)
(2.5552093 -0.014551306 7.0772869e-22)
(2.5558234 -0.0096176577 3.9578178e-21)
(2.5564685 -0.0057373392 2.815031e-22)
(2.5568999 -0.0013086575 5.3765809e-21)
(2.4980474 -0.0040403224 1.5506909e-23)
(2.4959929 -0.0048928392 1.2040274e-22)
(2.4945697 -0.0057766865 -3.201868e-22)
(2.4926876 -0.0071663783 1.3823954e-21)
(2.4907978 -0.0091342521 5.7764613e-22)
(2.4889947 -0.011801764 -2.79442e-21)
(2.4875455 -0.015216451 -7.9254196e-22)
(2.4866609 -0.019322943 2.3117287e-21)
(2.4865373 -0.024087741 -1.5454666e-21)
(2.4873935 -0.029385069 -2.4501951e-21)
(2.4895014 -0.035010117 -3.954948e-22)
(2.4930807 -0.040543357 -6.40321e-21)
(2.4981545 -0.04546788 5.0043327e-21)
(2.5045108 -0.049279934 1.3293444e-21)
(2.5117427 -0.051610641 1.1174652e-21)
(2.5193589 -0.052296538 -4.5246681e-21)
(2.5268857 -0.051356333 -1.4001095e-21)
(2.5339301 -0.048951775 7.1565138e-22)
(2.5402046 -0.04532618 3.0096218e-21)
(2.5455188 -0.040760797 -4.3571381e-21)
(2.5497817 -0.03556205 -7.5583717e-22)
(2.5529675 -0.030000699 2.2109412e-21)
(2.5551771 -0.024409796 -1.0919923e-21)
(2.5564965 -0.018898863 9.2997788e-22)
(2.5572444 -0.013911872 3.9048349e-21)
(2.557488 -0.0090759501 -2.6128843e-21)
(2.5578434 -0.005352209 -2.186631e-21)
(2.558043 -0.0011843911 2.4330849e-21)
(2.4980285 -0.0038308582 -1.5012872e-22)
(2.495983 -0.0046003895 -1.6025201e-22)
(2.4944936 -0.0053853602 -3.750679e-22)
(2.492465 -0.0066676253 3.9937769e-22)
(2.4903793 -0.0085206101 1.0566777e-22)
(2.4883285 -0.011116263 1.6432255e-21)
(2.4865604 -0.014476964 2.1758562e-21)
(2.4853072 -0.018609227 8.4350041e-22)
(2.4847518 -0.023436591 -1.6812667e-21)
(2.4851149 -0.028940968 -2.7992587e-22)
(2.4866999 -0.034928365 0)
(2.4898055 -0.041046811 2.9365478e-22)
(2.4945635 -0.046734894 6.7393543e-21)
(2.5008253 -0.051412606 1.7717131e-21)
(2.5082062 -0.054622385 -2.5128325e-22)
(2.5161865 -0.056106662 3.5933086e-21)
(2.524238 -0.05583542 2.674705e-21)
(2.5319115 -0.053940298 -9.6533511e-21)
(2.5388681 -0.050658448 8.4977962e-21)
(2.5448793 -0.046273384 -2.4850847e-21)
(2.5498067 -0.041085331 6.6487022e-23)
(2.5536033 -0.035405133 -4.4851472e-21)
(2.5562816 -0.029506755 -7.8453834e-21)
(2.5579803 -0.023711705 -1.8939183e-21)
(2.558814 -0.018128532 -2.8615911e-22)
(2.5591297 -0.01316905 -3.8569199e-21)
(2.5590041 -0.0084713045 -4.6024803e-21)
(2.5590727 -0.0049350006 3.2113796e-21)
(2.5590502 -0.0010554614 -2.6065745e-21)
(2.498001 -0.003639827 -3.3174715e-23)
(2.4959974 -0.0043279015 -6.3333779e-22)
(2.4944831 -0.0050122973 -4.4249407e-22)
(2.492293 -0.0061659817 -6.6343525e-22)
(2.489994 -0.0079126982 6.6688085e-23)
(2.4877025 -0.010403914 3.0671905e-21)
(2.4856502 -0.013724469 1.940282e-21)
(2.4840416 -0.017825745 -6.8556259e-22)
(2.4830693 -0.022712096 1.0001109e-21)
(2.482931 -0.028336266 -2.190609e-21)
(2.4839574 -0.034649073 -4.2290718e-21)
(2.4865306 -0.04129565 0)
(2.4908843 -0.047735377 -4.3226433e-22)
(2.4969704 -0.053306049 5.7533498e-21)
(2.5044331 -0.057440035 2.4443275e-21)
(2.5127348 -0.059794354 1.3106753e-20)
(2.5212928 -0.060260559 -8.2020954e-21)
(2.5295929 -0.058944966 1.0961878e-21)
(2.537244 -0.056073607 2.4603063e-21)
(2.5439754 -0.051933919 -1.2023392e-21)
(2.5496176 -0.046829077 -2.8514057e-21)
(2.554078 -0.04106641 -1.6885994e-21)
(2.5573491 -0.034956007 1.5055385e-21)
(2.5594788 -0.028773032 -1.1998532e-22)
(2.5606413 -0.022825867 -3.126121e-21)
(2.560978 -0.017220677 -5.5735484e-22)
(2.5608596 -0.012334383 -7.3281423e-22)
(2.5603705 -0.0078145252 1.724842e-21)
(2.5601589 -0.004494089 -9.8288718e-22)
(2.5599257 -0.00092410793 -9.6860637e-22)
(2.4979453 -0.0034441455 -3.4141546e-23)
(2.4960018 -0.0040847437 -2.7631969e-22)
(2.4945374 -0.0046563117 3.3167037e-23)
(2.4922146 -0.0056758526 -5.3917158e-23)
(2.4896401 -0.007286708 -8.400603e-22)
(2.4870877 -0.0096943482 1.137019e-21)
(2.4847722 -0.0129319 0)
(2.4828564 -0.017023348 -5.8156472e-22)
(2.4814848 -0.021891951 1.661706e-21)
(2.4808527 -0.027624019 9.268993e-22)
(2.4812949 -0.03416337 -5.6357522e-21)
(2.4832721 -0.041306538 -3.3748423e-21)
(2.4871459 -0.048467583 -5.0859782e-21)
(2.4929647 -0.054942934 -9.4522224e-22)
(2.5004385 -0.06005651 -4.0257255e-22)
(2.5090148 -0.063340069 -2.8471824e-22)
(2.5180565 -0.064619312 -4.2273768e-21)
(2.5269803 -0.063948612 8.1597197e-21)
(2.5353323 -0.061552407 -3.7668072e-21)
(2.5428011 -0.057720921 1.1096014e-21)
(2.5491856 -0.052764794 -1.6001222e-21)
(2.5543675 -0.046990467 8.5911227e-21)
(2.5582928 -0.040706128 -2.6476636e-21)
(2.5609888 -0.03422004 -2.5912876e-21)
(2.5625372 -0.027808217 -9.3393878e-22)
(2.5631458 -0.021764366 -2.2485075e-21)
(2.5629804 -0.016189836 -3.2711919e-21)
(2.5624314 -0.011423062 3.568824e-21)
(2.5615887 -0.0071185594 -2.4318799e-21)
(2.5611062 -0.0040385908 -2.3426379e-21)
(2.5606738 -0.00079247472 2.7944097e-21)
(2.4978675 -0.0032350451 7.0362036e-23)
(2.4959474 -0.0038441913 1.5830902e-22)
(2.4946156 -0.0043380718 1.5102074e-22)
(2.4922698 -0.005191159 -4.2337722e-22)
(2.4893945 -0.0066651894 4.9416451e-22)
(2.4864693 -0.0089523822 2.033149e-21)
(2.4838856 -0.012142934 -1.6589866e-22)
(2.4817024 -0.016166958 7.4651374e-22)
(2.4799916 -0.021040729 -1.7648375e-23)
(2.4788803 -0.026776178 -9.4660392e-22)
(2.4787253 -0.033524112 1.0106147e-20)
(2.4800575 -0.041068376 -1.2599651e-20)
(2.4833639 -0.048935629 -7.8281984e-21)
(2.4888331 -0.0563213 -5.9617501e-21)
(2.4962368 -0.062449511 2.8653307e-21)
(2.5050367 -0.066738261 -7.2663659e-21)
(2.5145389 -0.068894969 4.8635328e-21)
(2.5240812 -0.068939872 1.003716e-21)
(2.5331406 -0.067076543 -4.3541931e-21)
(2.5413563 -0.063612185 8.3813153e-21)
(2.5485021 -0.058865782 -2.6910267e-22)
(2.5544373 -0.053148084 1.2873911e-21)
(2.559083 -0.046759912 4.4266133e-21)
(2.5624159 -0.040010062 -2.1729723e-21)
(2.564496 -0.033206606 1.2242279e-20)
(2.5654382 -0.026626041 3.9140968e-21)
(2.5654823 -0.020544642 2.5673801e-22)
(2.564816 -0.015055067 2.6489198e-21)
(2.5638449 -0.010453089 1.1652612e-21)
(2.5626619 -0.0063973743 -2.3079616e-21)
(2.5619206 -0.0035770871 1.0073024e-21)
(2.5613021 -0.00066206419 -1.7402178e-22)
(2.4978132 -0.0030233675 -2.2870257e-22)
(2.495856 -0.0035959259 -5.5841269e-23)
(2.4946397 -0.0040272571 6.9301625e-23)
(2.4924332 -0.0047507307 -5.1484608e-22)
(2.4893657 -0.0060279929 -4.3511876e-22)
(2.485953 -0.0082141256 -3.4170504e-21)
(2.4829581 -0.011311732 6.7893475e-22)
(2.4805347 -0.01531833 -2.305578e-22)
(2.4785395 -0.020113695 -2.7442107e-21)
(2.4770099 -0.025871116 -2.6204082e-21)
(2.476257 -0.032696437 2.6439008e-21)
(2.4769005 -0.040628064 6.2817383e-21)
(2.479569 -0.049127948 8.2156449e-21)
(2.4845891 -0.057432756 0)
(2.4918474 -0.064619166 -1.0339804e-21)
(2.5008117 -0.069965489 -8.582904e-21)
(2.5107477 -0.073084689 -3.1251265e-21)
(2.520907 -0.073905338 -9.9702234e-21)
(2.5306801 -0.072633933 2.8778496e-21)
(2.5396513 -0.069585456 -3.7864412e-21)
(2.5475663 -0.065104647 5.2396677e-21)
(2.5542742 -0.059506458 1.4494611e-21)
(2.5596773 -0.053087875 7.0492071e-22)
(2.5637236 -0.046143937 -1.1215227e-20)
(2.5664165 -0.038988257 5.4311422e-21)
(2.5678479 -0.031930772 1.4638084e-20)
(2.5681668 -0.025246406 5.5675112e-21)
(2.5676427 -0.019189474 -3.4368369e-21)
(2.5664825 -0.013838887 7.455087e-22)
(2.5651023 -0.009443738 -1.715896e-21)
(2.5635957 -0.0056645903 4.3975228e-21)
(2.56261 -0.0031166977 5.9064136e-22)
(2.5618248 -0.00053397392 6.7537117e-22)
(2.4977768 -0.0028111583 1.8309949e-22)
(2.4958103 -0.0033536387 7.5237598e-23)
(2.4946176 -0.0037188434 -7.3779141e-23)
(2.4925842 -0.0043147253 4.5080979e-22)
(2.4895766 -0.0054394112 7.5716177e-22)
(2.4857257 -0.0074345771 -8.8279323e-22)
(2.4821071 -0.010493354 3.2481319e-22)
(2.4793032 -0.014421316 -1.1846712e-21)
(2.4770901 -0.019195215 -9.0894747e-23)
(2.4751969 -0.024850776 -4.0107724e-21)
(2.4738888 -0.031769751 -9.6939045e-21)
(2.4738178 -0.039944376 1.1270459e-20)
(2.4757738 -0.049080603 5.4523772e-21)
(2.4802635 -0.058268036 4.2340583e-22)
(2.4872804 -0.06654662 -9.5935878e-21)
(2.4963529 -0.073026213 -7.5954978e-21)
(2.506693 -0.077167389 7.2464961e-22)
(2.5174666 -0.078844809 -8.2574302e-21)
(2.5279667 -0.078213061 2.7012772e-21)
(2.5377023 -0.075624838 -6.9464956e-21)
(2.54639 -0.07145191 1.1487675e-20)
(2.553874 -0.066031219 4.6588568e-22)
(2.5600556 -0.059651214 -3.928476e-21)
(2.5648606 -0.052593231 8.1259486e-23)
(2.568255 -0.045153719 9.5095486e-22)
(2.5702678 -0.037656808 2.0996106e-21)
(2.5710255 -0.030414417 -1.1367089e-20)
(2.5707111 -0.023695279 -4.4505428e-21)
(2.569622 -0.01772568 1.4119091e-21)
(2.5679803 -0.012565392 -4.3257488e-21)
(2.566208 -0.0084138067 4.5697438e-21)
(2.5643974 -0.0049322899 1.3984297e-21)
(2.5631839 -0.0026635152 -6.3751061e-22)
(2.5622557 -0.00040986003 -2.9594969e-22)
(2.4977419 -0.0026024617 8.1730068e-24)
(2.4958134 -0.0031201332 1.0071661e-22)
(2.4946573 -0.0034310465 -7.3536076e-24)
(2.4927091 -0.003883648 2.6382762e-22)
(2.4898584 -0.0048325702 1.3694371e-21)
(2.4858868 -0.0067100982 1.6479124e-21)
(2.4815818 -0.0096107374 -3.6784473e-21)
(2.478116 -0.013555463 -1.3148123e-21)
(2.475579 -0.018215502 7.4552415e-22)
(2.4734172 -0.02382669 1.7816081e-21)
(2.4715865 -0.030668515 -3.9184003e-21)
(2.4708091 -0.039112482 2.1497909e-21)
(2.4720018 -0.048748624 -1.5710698e-20)
(2.4758652 -0.058849214 -1.087058e-20)
(2.4825638 -0.068228215 -1.2641492e-20)
(2.4916681 -0.075894376 1.1575877e-20)
(2.5023836 -0.081153411 6.8906316e-21)
(2.5137723 -0.083742011 -9.0295439e-22)
(2.5250146 -0.083814644 -1.0561416e-21)
(2.5355319 -0.081717303 6.6662814e-21)
(2.5449942 -0.077883928 1.4087276e-21)
(2.5532476 -0.072682706 -4.7089966e-21)
(2.560207 -0.066407876 -2.172992e-21)
(2.565797 -0.059314464 0)
(2.5699502 -0.05167768 -3.828029e-21)
(2.5726473 -0.04380631 2.9263126e-21)
(2.5739468 -0.036038914 1.7762437e-21)
(2.5740129 -0.028686067 -6.9760061e-21)
(2.5730627 -0.022003228 -2.9405942e-21)
(2.571418 -0.016181957 -1.3134866e-21)
(2.5693122 -0.011258132 -5.3311422e-21)
(2.5671685 -0.0073801054 2.5531783e-23)
(2.5650753 -0.0042103024 -1.499991e-21)
(2.5636519 -0.0022234805 -4.1296683e-22)
(2.5625874 -0.00029187012 2.4695267e-22)
(2.4977016 -0.0023958698 4.8152181e-23)
(2.4958265 -0.002902354 -1.2966686e-22)
(2.4947717 -0.0031646899 -1.6578306e-22)
(2.4929155 -0.003490163 -2.4836311e-23)
(2.490168 -0.0042115788 -3.0216562e-22)
(2.4862194 -0.0059209696 -1.0626719e-21)
(2.4815712 -0.0087959637 -1.8119255e-21)
(2.4772478 -0.01261056 1.1335664e-21)
(2.4740928 -0.017287175 3.3915377e-22)
(2.4716017 -0.022706095 4.3083135e-21)
(2.4693455 -0.029534704 2.6545049e-21)
(2.4678541 -0.038037413 2.4274485e-22)
(2.468251 -0.048226423 4.5756442e-21)
(2.4714223 -0.059131781 1.2299579e-20)
(2.477702 -0.069670737 4.6107449e-21)
(2.4867807 -0.078575287 1.2042782e-20)
(2.497826 -0.085013238 3.7446146e-21)
(2.5098311 -0.08861356 2.5587446e-22)
(2.5218419 -0.089427906 -1.6936537e-22)
(2.5331632 -0.087860907 -5.7866957e-21)
(2.5434085 -0.084381084 -5.4145628e-21)
(2.5524179 -0.079425524 1.3184128e-21)
(2.560137 -0.073306255 3.0218711e-21)
(2.5665113 -0.066258763 2.9214963e-21)
(2.5714604 -0.058514505 -1.1830373e-22)
(2.5749152 -0.050359669 1.1052876e-20)
(2.5768748 -0.042125528 -2.0227142e-21)
(2.5774341 -0.034164673 -3.478336e-22)
(2.5767978 -0.026779297 6.7230386e-21)
(2.5752164 -0.020203 3.7047733e-21)
(2.5730314 -0.014586422 -9.2717167e-22)
(2.5704832 -0.0099382587 7.9433527e-21)
(2.5679913 -0.0063564212 -1.301584e-21)
(2.5656378 -0.0035059235 1.9094617e-21)
(2.5640233 -0.0018013888 5.740305e-22)
(2.5628287 -0.00018057308 -7.9055358e-22)
(2.497658 -0.0021878966 5.0750797e-22)
(2.4958101 -0.0026973582 2.2012227e-22)
(2.4949066 -0.0029276576 -7.0989083e-23)
(2.493219 -0.0031292969 -1.1737992e-22)
(2.4905909 -0.0036390566 -3.2443648e-22)
(2.4866621 -0.0050706142 -5.2700136e-23)
(2.4818137 -0.007852079 2.2166265e-21)
(2.4769741 -0.01175505 1.3797421e-22)
(2.472888 -0.016266041 3.2296816e-21)
(2.4698167 -0.021649448 -4.34768e-22)
(2.4671041 -0.028238849 -1.3710795e-21)
(2.4649673 -0.036891568 1.2359297e-21)
(2.4645162 -0.047401704 8.0000723e-21)
(2.4669283 -0.059202704 8.622777e-21)
(2.4727239 -0.07083519 1.3197318e-20)
(2.4816896 -0.081060536 -1.408516e-20)
(2.4930384 -0.088764084 -1.8486946e-20)
(2.5056521 -0.093430382 1.7566356e-22)
(2.5184591 -0.095074344 -6.1780755e-21)
(2.5306241 -0.094048495 1.5164306e-20)
(2.5416669 -0.090933518 2.6694412e-21)
(2.5514198 -0.086227615 -1.8190321e-22)
(2.5598659 -0.080296156 -3.5638324e-21)
(2.5669986 -0.073362759 9.1644795e-21)
(2.5727501 -0.065611117 -1.0147707e-21)
(2.5770167 -0.057272532 2.1988912e-22)
(2.5797288 -0.048663035 -4.3218989e-21)
(2.5809147 -0.040141729 7.0531381e-21)
(2.5807131 -0.032069459 -2.3487245e-21)
(2.5793712 -0.024730164 -3.0111401e-21)
(2.5771698 -0.018326841 8.3018105e-22)
(2.5744652 -0.012964507 -1.655628e-21)
(2.5714996 -0.0086232739 1.1937282e-21)
(2.5686849 -0.0053529995 0)
(2.5660936 -0.0028238409 -3.1127121e-22)
(2.5643067 -0.0013982545 -3.401088e-22)
(2.5630086 -6.8500407e-05 2.2662473e-23)
(2.4976171 -0.0019728533 -3.4217201e-22)
(2.4957275 -0.0025010481 2.1561864e-22)
(2.4949933 -0.002718067 1.723912e-23)
(2.4935634 -0.0028117447 6.5170831e-23)
(2.4911297 -0.0030981909 2.4064689e-23)
(2.4872802 -0.0042700042 -5.9875198e-24)
(2.4822463 -0.0067771536 2.2499357e-22)
(2.4769877 -0.01070494 3.7103451e-22)
(2.4723155 -0.015364282 1.5239192e-22)
(2.4682682 -0.020466188 -4.5715784e-21)
(2.4649232 -0.027009546 2.6743161e-21)
(2.4621081 -0.035495957 -7.3117822e-21)
(2.4608276 -0.046472677 -7.4585011e-21)
(2.462393 -0.05893794 -5.8321274e-21)
(2.4676169 -0.071795146 -8.3312623e-22)
(2.4764222 -0.083322223 1.9665103e-21)
(2.4880151 -0.092383164 -2.2836501e-21)
(2.5012482 -0.098223877 -2.6306877e-20)
(2.5148815 -0.10072888 2.8815545e-20)
(2.5279338 -0.10030259 -4.5996161e-21)
(2.5398097 -0.097532783 5.5496628e-22)
(2.5502974 -0.093064883 9.7395395e-21)
(2.5594289 -0.087327806 -1.1928664e-20)
(2.5672697 -0.080560449 5.4138589e-21)
(2.5737988 -0.07289493 1.0906224e-21)
(2.5788998 -0.064491784 -2.1878458e-20)
(2.5824413 -0.055612259 3.443211e-21)
(2.5843667 -0.04661676 -9.7589076e-21)
(2.5847464 -0.037890325 -9.3164503e-22)
(2.58377 -0.02979136 -1.5965951e-20)
(2.5817267 -0.022574383 -8.9636082e-21)
(2.5789233 -0.016404177 -1.6235112e-21)
(2.5757242 -0.011337515 -2.318974e-21)
(2.572369 -0.0073264698 -5.9319947e-21)
(2.5692581 -0.0043765657 -7.2325992e-22)
(2.5664516 -0.0021663272 4.2719002e-22)
(2.5645122 -0.0010120772 1.6673199e-23)
(2.5631145 5.2047392e-05 -9.077685e-22)