/*--------------------------------*- C++ -*----------------------------------*\
| =========                 |                                                 |
| \\      /  F ield         | OpenFOAM: The Open Source CFD Toolbox           |
|  \\    /   O peration     | Version:  v2012                                 |
|   \\  /    A nd           | Website:  www.openfoam.com                      |
|    \\/     M anipulation  |                                                 |
\*---------------------------------------------------------------------------*/
FoamFile
{
    version     2.0;
    format      ascii;
    class       surfaceVectorField;
    location    "8.9741551682";
    object      Uf;
}
// * * * * * * * * * * * * * * * * * * * * * * * * * * * * * * * * * * * * * //

dimensions      [0 1 -1 0 0 0 0];


internalField   nonuniform List<vector> 
18180
(
(2.5040289 -0.0014214405 -2.0445931e-22)
(2.5053729 -0.00074900526 1.9152442e-22)
(2.5038674 -0.0027010597 -2.6331141e-22)
(2.5051626 -0.0022750578 -1.8140839e-22)
(2.506146 -0.0016365669 1.9441174e-22)
(2.5068687 -0.00084081905 5.6355485e-22)
(2.5036364 -0.0038396108 3.1971732e-23)
(2.5049462 -0.0035052054 -1.7550297e-22)
(2.5058964 -0.0031173692 -9.6604803e-23)
(2.5066101 -0.0025487401 -3.4011023e-23)
(2.5074193 -0.0017868978 3.1281046e-22)
(2.5084397 -0.00092542802 7.1848859e-23)
(2.503337 -0.0048257181 2.1620143e-22)
(2.5045626 -0.0047405436 1.7518022e-22)
(2.5055427 -0.0044404008 -1.9563479e-23)
(2.5063294 -0.003931248 -5.2939852e-22)
(2.5071239 -0.0034112608 -4.7343191e-22)
(2.5081373 -0.0028130802 7.444943e-23)
(2.5090754 -0.001985207 -1.5750421e-22)
(2.5101186 -0.0010219806 -9.3333363e-22)
(2.5030027 -0.0056524315 1.9718407e-22)
(2.5041543 -0.0056674556 1.6765215e-22)
(2.5050781 -0.0055916021 1.2807818e-22)
(2.50585 -0.0053301714 6.9456929e-23)
(2.5067037 -0.0048664901 -4.0773191e-22)
(2.5077928 -0.0043426127 -4.4943136e-22)
(2.5087246 -0.0037978453 7.1256027e-23)
(2.5097767 -0.0031265961 6.8085645e-22)
(2.5107731 -0.0022005704 -4.3165345e-23)
(2.511909 -0.0011234982 -4.4093159e-22)
(2.5026343 -0.006329997 2.1408164e-22)
(2.5036693 -0.0065347299 -2.4281429e-24)
(2.50455 -0.0065681304 -3.3202881e-23)
(2.5053224 -0.0063860314 5.6596298e-23)
(2.5061507 -0.0061406967 0)
(2.5072204 -0.0059029804 -2.8843878e-22)
(2.5082232 -0.0054295441 -3.2455835e-22)
(2.509371 -0.0048316507 5.2509609e-22)
(2.5103743 -0.0042195733 1.1093072e-21)
(2.5115332 -0.0034687949 8.2338467e-22)
(2.5126087 -0.0024348343 4.5817337e-22)
(2.5138147 -0.0012286368 8.6006629e-22)
(2.5022539 -0.0068605303 1.5739251e-22)
(2.5031641 -0.0071741643 3.0458391e-22)
(2.5039645 -0.0073744837 1.0054217e-22)
(2.504701 -0.0073829707 -3.805076e-22)
(2.5055164 -0.0072308467 -3.0239134e-22)
(2.5065764 -0.0070914857 1.5947802e-22)
(2.5075616 -0.0068698274 -1.1093275e-22)
(2.5087101 -0.0065861444 -4.3651158e-22)
(2.5098008 -0.0060470565 3.6728216e-22)
(2.5110713 -0.0053663463 8.7104599e-22)
(2.5121672 -0.0046800053 5.9602309e-22)
(2.5134123 -0.0038367062 -1.3273705e-22)
(2.5145588 -0.0026820429 2.4009657e-22)
(2.5158343 -0.0013347549 6.356981e-22)
(2.501866 -0.0072574611 -2.3325835e-23)
(2.5026331 -0.0077041768 1.5013203e-22)
(2.5033482 -0.0080162171 2.8959418e-22)
(2.5040423 -0.0081278312 6.4098417e-23)
(2.5048093 -0.0081396143 -3.9247246e-22)
(2.5058189 -0.0082217154 -1.9926821e-22)
(2.5067959 -0.0081140728 2.4096501e-22)
(2.5079527 -0.0079385643 -3.2549725e-22)
(2.5090415 -0.0076743891 -6.3739674e-22)
(2.510329 -0.0073365174 -4.6603078e-22)
(2.5115277 -0.0067242211 -1.2071732e-24)
(2.5129008 -0.0059412633 2.3010501e-22)
(2.5140826 -0.0051674723 -4.6598342e-22)
(2.5154136 -0.004222169 -6.9249046e-22)
(2.5166273 -0.0029371996 -3.3003416e-22)
(2.5179624 -0.0014394576 -3.2186387e-22)
(2.5014827 -0.0075306428 -8.154127e-23)
(2.5020991 -0.0080719957 -1.3417165e-22)
(2.5027127 -0.008504087 2.876073e-23)
(2.5033471 -0.0087530174 1.724514e-22)
(2.5040589 -0.0088726789 -4.2941509e-23)
(2.5050067 -0.0090811162 -3.1893516e-22)
(2.5059375 -0.0091647826 -1.33895e-22)
(2.5070617 -0.0092339809 2.9919389e-22)
(2.5081555 -0.0090957359 -2.3709225e-22)
(2.5094648 -0.0088760991 -9.0657244e-22)
(2.5106774 -0.0085618507 -7.4925162e-22)
(2.5120875 -0.0081474893 2.0400716e-22)
(2.5133872 -0.007444227 4.2564567e-22)
(2.5148611 -0.0065433876 -3.3205805e-22)
(2.5161254 -0.0056722993 -5.4506902e-22)
(2.5175325 -0.0046165218 -3.0037968e-22)
(2.518805 -0.0031941169 -2.9227244e-22)
(2.520189 -0.0015403069 -2.9654381e-22)
(2.5011081 -0.0076940657 -1.0125179e-22)
(2.5015681 -0.0083248924 6.1616824e-23)
(2.502074 -0.008849488 1.369189e-23)
(2.5026396 -0.0091973598 -1.1672168e-22)
(2.5032795 -0.0094394165 1.7506606e-23)
(2.5041443 -0.0098112209 1.7340172e-22)
(2.5050185 -0.010025815 -8.528685e-23)
(2.5060956 -0.010239615 1.2624421e-22)
(2.5071559 -0.010312904 5.4021514e-22)
(2.5084462 -0.01036168 -4.8008163e-23)
(2.5096771 -0.010185846 -6.8177864e-22)
(2.5111265 -0.0098968103 -6.9976729e-22)
(2.5124584 -0.009511522 2.0430161e-22)
(2.5139906 -0.0090018631 1.263421e-21)
(2.5153867 -0.0081933788 5.5620485e-22)
(2.5169494 -0.007160022 2.2668109e-22)
(2.518288 -0.0061827754 4.6948046e-22)
(2.5197602 -0.0050098281 -6.5449587e-22)
(2.5210813 -0.003446355 -6.6366004e-22)
(2.5225008 -0.0016349638 1.2939937e-23)
(2.5007484 -0.0077610751 2.1591983e-23)
(2.5010504 -0.0084589626 4.7718576e-23)
(2.5014428 -0.0090660168 2.039294e-22)
(2.5019302 -0.0095121581 8.0887287e-23)
(2.5024897 -0.009851067 -4.1826513e-23)
(2.5032586 -0.010344651 -5.9285388e-23)
(2.5040567 -0.010705653 8.7460018e-23)
(2.5050634 -0.011105511 1.2908982e-22)
(2.5060766 -0.011327855 3.3237445e-22)
(2.5073298 -0.011540985 2.0506558e-22)
(2.5085407 -0.011597344 -3.5814469e-22)
(2.5099903 -0.011597966 -4.4932554e-22)
(2.5113563 -0.011360995 -4.6237486e-22)
(2.5129469 -0.010980426 1.1149091e-22)
(2.5143951 -0.010506466 1.114505e-21)
(2.5160392 -0.0098824377 7.4884729e-22)
(2.5175215 -0.0089552697 4.3905755e-22)
(2.5191592 -0.0077771987 4.4583813e-22)
(2.5205615 -0.0066866828 -6.2063633e-22)
(2.5220843 -0.005392098 -1.108663e-21)
(2.5234413 -0.0036876799 -4.7325291e-22)
(2.5248812 -0.0017212467 1.1638048e-21)
(2.5004079 -0.007745625 1.3017305e-22)
(2.5005527 -0.0084970901 -8.3816917e-24)
(2.5008295 -0.009168025 1.5793865e-23)
(2.5012324 -0.0096915574 2.1588476e-22)
(2.5017029 -0.010120724 9.9499459e-23)
(2.5023634 -0.010734551 -3.2701677e-22)
(2.5030737 -0.011214257 -3.4722176e-22)
(2.5039934 -0.011757828 -3.4212721e-22)
(2.5049378 -0.012147425 -3.0860135e-22)
(2.5061287 -0.012571078 6.6751194e-23)
(2.5073028 -0.012796082 -5.7147703e-23)
(2.5087318 -0.012979779 2.2148487e-22)
(2.5100951 -0.012993374 1.4381602e-22)
(2.511708 -0.012920589 -4.7878638e-22)
(2.513208 -0.012601901 6.5155902e-23)
(2.5149311 -0.01210641 9.9249751e-22)
(2.516487 -0.011525885 6.4341817e-22)
(2.5182297 -0.010769721 1.7130399e-23)
(2.519785 -0.0097125345 1.736999e-23)
(2.5214799 -0.0083805003 -8.9838439e-22)
(2.5229324 -0.0071718134 -1.3645825e-21)
(2.5244891 -0.0057540039 4.1475621e-22)
(2.5258676 -0.0039124085 1.9796332e-21)
(2.5273115 -0.0017971894 3.5801841e-22)
(2.5000907 -0.0076606036 8.2241349e-24)
(2.5000815 -0.0084493072 -1.5507903e-22)
(2.5002422 -0.0091701824 -2.900472e-22)
(2.5005558 -0.0097596984 -1.5168383e-22)
(2.500932 -0.010262487 3.5887183e-23)
(2.5014752 -0.01097338 -2.0323962e-22)
(2.5020861 -0.011564033 -6.1132893e-22)
(2.5029031 -0.012250697 -2.757675e-22)
(2.5037635 -0.012779865 -2.7030402e-22)
(2.5048719 -0.013371893 -4.2775586e-22)
(2.5059855 -0.013786742 -7.2514922e-23)
(2.507367 -0.014205087 3.3293486e-22)
(2.5087082 -0.014405931 6.02577e-22)
(2.5103207 -0.014533124 3.2147419e-22)
(2.5118386 -0.01448053 -2.664461e-22)
(2.5136097 -0.014306453 -2.6702125e-22)
(2.5152366 -0.0138842 6.0714163e-22)
(2.5170797 -0.013251032 6.0225011e-22)
(2.5187308 -0.012547247 7.753791e-24)
(2.5205541 -0.011643141 -1.2385816e-21)
(2.5221659 -0.010447196 -2.124145e-21)
(2.5238972 -0.008955484 -3.6936894e-22)
(2.5253841 -0.0076265368 1.3316292e-21)
(2.5269561 -0.0060871663 1.4933909e-21)
(2.5283405 -0.0041152993 -5.1236873e-23)
(2.5297716 -0.001861064 -2.7033565e-21)
(2.4997984 -0.0075181688 3.7598333e-23)
(2.499641 -0.0083306901 -1.0827507e-22)
(2.4996869 -0.0090865968 -2.6492725e-22)
(2.4999089 -0.0097266673 -2.6503926e-22)
(2.5001873 -0.010290978 -1.3320747e-22)
(2.5006066 -0.011085562 3.0295981e-22)
(2.50111 -0.011768526 8.0117914e-23)
(2.5018116 -0.012574625 8.5589569e-23)
(2.5025734 -0.013236168 4.1306993e-22)
(2.50358 -0.013997369 8.4108337e-23)
(2.5046145 -0.014575248 -5.9259685e-23)
(2.5059251 -0.015187745 -6.7662014e-22)
(2.5072191 -0.015600776 -3.0057577e-22)
(2.5088036 -0.015985509 1.3582015e-22)
(2.5103179 -0.016137043 -1.3726289e-22)
(2.5121134 -0.016176525 -3.5051397e-22)
(2.5137819 -0.016031804 -3.5223826e-22)
(2.5157015 -0.015727921 3.2227882e-22)
(2.5174436 -0.015180751 3.1445042e-22)
(2.5193884 -0.014388662 -3.0782356e-22)
(2.5211181 -0.013546712 -1.494198e-21)
(2.5229999 -0.012481839 -1.3500919e-21)
(2.5246487 -0.011141542 3.2457934e-22)
(2.5263939 -0.0094882908 2.7258131e-22)
(2.5278975 -0.0080400929 4.1131018e-22)
(2.529465 -0.0063840981 6.549764e-22)
(2.5308393 -0.004291683 -1.850207e-21)
(2.5322407 -0.0019114091 -7.0088332e-22)
(2.4995318 -0.0073296705 -9.1250924e-23)
(2.4992336 -0.0081528036 1.4915131e-22)
(2.4991681 -0.0089307787 1.1948539e-23)
(2.499298 -0.0096088469 -4.6638842e-23)
(2.499477 -0.010220758 -4.3530225e-23)
(2.4997686 -0.011081031 2.371399e-22)
(2.5001585 -0.011842231 6.5577029e-22)
(2.5007346 -0.012753767 3.2533994e-22)
(2.5013861 -0.013528745 3.3392546e-22)
(2.5022745 -0.014435724 3.3073099e-22)
(2.503212 -0.015170486 1.8145983e-23)
(2.5044292 -0.015980323 -9.2024378e-22)
(2.505654 -0.016580871 -1.5176765e-21)
(2.5071844 -0.017185753 -2.6407118e-22)
(2.5086693 -0.017570751 1.5154202e-22)
(2.510462 -0.017887815 -1.8731407e-22)
(2.5121497 -0.017960955 -3.9144068e-22)
(2.5141221 -0.017879437 7.3845454e-22)
(2.5159324 -0.017616006 1.3941622e-21)
(2.517984 -0.017154209 -2.4777258e-22)
(2.5198245 -0.016462053 -8.4580409e-22)
(2.5218481 -0.015492632 -2.8490396e-22)
(2.5236357 -0.014500345 -1.3127534e-22)
(2.5255507 -0.013265667 1.3357622e-21)
(2.5272151 -0.011778873 1.3008484e-21)
(2.5289497 -0.0099661924 -8.8426648e-22)
(2.5304512 -0.0084028443 -6.7140122e-22)
(2.5319943 -0.0066382016 1.9232882e-23)
(2.5333423 -0.0044376548 1.1355417e-21)
(2.5346979 -0.0019470783 1.9370055e-21)
(2.4992911 -0.0071054004 -2.0392502e-23)
(2.4988612 -0.0079279242 2.8022606e-23)
(2.498689 -0.0087155357 2.5708115e-22)
(2.4987273 -0.0094185965 3.2706668e-22)
(2.4988073 -0.010066043 2.7556525e-22)
(2.4989697 -0.010976898 -1.2077506e-22)
(2.4992424 -0.011799952 1.4425406e-22)
(2.4996855 -0.012797661 3.8166847e-22)
(2.5002177 -0.01367139 6.4574589e-23)
(2.5009739 -0.014709972 5.010105e-22)
(2.5017994 -0.01558305 5.0030942e-22)
(2.5029024 -0.016568303 1.0584447e-21)
(2.5040373 -0.017352238 1.8314573e-22)
(2.5054878 -0.018183903 -5.3334587e-22)
(2.5069189 -0.018781101 6.7042374e-22)
(2.5086805 -0.019342881 2.0141333e-22)
(2.510362 -0.019668186 -1.2036137e-22)
(2.5123621 -0.019879682 -5.4821997e-22)
(2.514218 -0.019843324 5.211292e-22)
(2.5163538 -0.019606585 1.5003505e-21)
(2.5182909 -0.019198151 -5.5354111e-23)
(2.520452 -0.018552435 -5.7434758e-22)
(2.5223696 -0.017697743 -3.8575646e-23)
(2.5244445 -0.016536512 -2.4383345e-22)
(2.5262662 -0.015385198 1.1459207e-21)
(2.5281867 -0.01397599 9.3259706e-22)
(2.5298438 -0.012344123 -1.1449541e-21)
(2.5315429 -0.010378043 7.9667654e-23)
(2.5330233 -0.0087065419 7.4523854e-22)
(2.5345221 -0.0068439283 -4.9475076e-22)
(2.5358283 -0.0045500628 2.4224491e-22)
(2.5371229 -0.0019672826 -2.1834346e-22)
(2.4990762 -0.0068544104 2.1199408e-22)
(2.4985239 -0.0076661809 2.584935e-22)
(2.4982513 -0.0084527391 3.0777106e-22)
(2.4982003 -0.0091697242 1.1614747e-22)
(2.498183 -0.0098404066 1.8029702e-22)
(2.4982163 -0.010785979 -1.4094741e-23)
(2.4983704 -0.011656503 -3.9385295e-22)
(2.4986757 -0.012723837 1.3344195e-22)
(2.4990818 -0.013678736 3.5839349e-22)
(2.4996948 -0.01482886 2.375597e-22)
(2.5003954 -0.015825405 6.5379891e-22)
(2.5013663 -0.016972627 2.5529024e-22)
(2.5023922 -0.017922861 7.8111842e-22)
(2.5037383 -0.018962189 8.9368291e-22)
(2.5050918 -0.019770519 2.2344302e-22)
(2.5067944 -0.020588275 -6.0633094e-23)
(2.5084433 -0.021149115 -5.1569131e-22)
(2.5104421 -0.021626476 -7.1301069e-22)
(2.51232 -0.021856775 -1.1286346e-21)
(2.5145187 -0.021922109 5.3301879e-22)
(2.5165307 -0.021744176 1.460606e-21)
(2.5188091 -0.021319113 -3.0307066e-22)
(2.5208522 -0.020741248 -7.9879224e-22)
(2.5230944 -0.019889281 1.3187579e-21)
(2.5250635 -0.01885805 1.1431796e-21)
(2.5271589 -0.017495276 -3.9210378e-22)
(2.5289888 -0.016180214 -6.1604368e-22)
(2.5308858 -0.014596304 -5.7148925e-22)
(2.5325119 -0.012824309 5.980375e-22)
(2.5341508 -0.010714596 1.2049023e-21)
(2.5355911 -0.008944559 3.5593645e-23)
(2.5370268 -0.0069970022 -4.2910508e-22)
(2.5382765 -0.0046266453 -8.7540192e-22)
(2.5394962 -0.0019716001 -3.100123e-22)
(2.4988864 -0.0065846465 -6.0788397e-23)
(2.4982223 -0.0073773603 5.013054e-23)
(2.4978557 -0.0081531543 9.1258617e-23)
(2.4977184 -0.008872994 5.3401491e-22)
(2.4976069 -0.0095565918 3.5546401e-22)
(2.4975134 -0.01052349 6.2350798e-22)
(2.4975491 -0.011426364 4.453351e-22)
(2.4977138 -0.01254547 -3.2862081e-22)
(2.4979896 -0.013565882 1.7223019e-22)
(2.4984512 -0.01480979 -1.048157e-21)
(2.4990169 -0.015911457 -1.1824809e-21)
(2.4998403 -0.017200664 1.0336537e-21)
(2.5007406 -0.018303055 6.6080773e-22)
(2.5019597 -0.01953844 -1.6705487e-21)
(2.5032128 -0.020543517 -1.5989032e-21)
(2.5048283 -0.021602486 1.7725679e-22)
(2.5064185 -0.022402014 -9.1931837e-23)
(2.5083868 -0.023162232 -5.2773025e-22)
(2.5102595 -0.023648197 -7.1822073e-22)
(2.512493 -0.023994962 -9.3714801e-22)
(2.5145597 -0.024092329 6.41903e-22)
(2.5169395 -0.023970556 1.6953002e-21)
(2.5190885 -0.023619905 2.8473622e-23)
(2.5214813 -0.022976562 -1.6271279e-21)
(2.523604 -0.022208159 3.7144976e-22)
(2.5258942 -0.021132566 5.410396e-22)
(2.527886 -0.019915097 -9.2360956e-22)
(2.5299691 -0.018346267 2.5831908e-23)
(2.5317797 -0.016866921 7.7125173e-23)
(2.5336238 -0.015112682 -1.4025938e-22)
(2.5351955 -0.013208875 4.2514021e-22)
(2.5367505 -0.010968742 1.5225139e-21)
(2.5381327 -0.0091120947 1.1027528e-21)
(2.5394877 -0.0070945768 -6.4027188e-22)
(2.5406675 -0.0046660865 -1.0061412e-22)
(2.5418002 -0.0019599598 1.0831189e-21)
(2.4987205 -0.0063029746 -2.5876533e-22)
(2.497955 -0.0070690611 -1.4600484e-22)
(2.497502 -0.0078264413 -4.3149172e-23)
(2.4972829 -0.0085405166 -6.0460688e-23)
(2.4970811 -0.0092263288 3.5717238e-22)
(2.496864 -0.010200519 9.2782855e-23)
(2.4967832 -0.011123366 3.4327481e-22)
(2.4968071 -0.01227918 1.0113314e-21)
(2.4969503 -0.013348007 2.8540305e-22)
(2.4972547 -0.014666063 1.9371984e-21)
(2.4976781 -0.015856147 8.045209e-22)
(2.4983416 -0.017268899 -1.1406984e-21)
(2.4991023 -0.018505176 9.6114181e-22)
(2.5001744 -0.019917828 1.6924893e-21)
(2.5013064 -0.021107269 -5.0390579e-22)
(2.5028076 -0.022399143 -2.2490377e-21)
(2.504313 -0.023427106 -5.7291534e-22)
(2.5062199 -0.024461393 3.1506672e-22)
(2.5080601 -0.025211488 -9.4171345e-23)
(2.5102995 -0.02586318 -4.5401441e-22)
(2.5123943 -0.026231108 -6.5642046e-22)
(2.51485 -0.026398749 -1.2198492e-22)
(2.5170897 -0.026324825 8.6880708e-22)
(2.519624 -0.025977178 1.1242266e-21)
(2.521884 -0.025425496 -4.2890869e-22)
(2.5243563 -0.02453886 -5.5844798e-22)
(2.5265279 -0.023563328 -4.1234073e-22)
(2.5288296 -0.022252592 -1.5077282e-21)
(2.5308132 -0.020843939 -6.1542532e-22)
(2.53285 -0.019069963 2.4844783e-22)
(2.5346136 -0.017429982 4.4480758e-23)
(2.5363762 -0.015514153 -7.7857621e-23)
(2.5378708 -0.013489978 9.5611603e-22)
(2.5393198 -0.011135664 9.682192e-22)
(2.540627 -0.0092062801 -6.8638514e-22)
(2.5418855 -0.00713527 -5.5983659e-22)
(2.5429835 -0.0046679936 5.569207e-22)
(2.5440189 -0.0019326096 -2.091085e-21)
(2.4985768 -0.0060152855 -6.2045186e-23)
(2.4977215 -0.0067494007 3.7986931e-23)
(2.4971897 -0.0074810195 1.4853064e-22)
(2.496893 -0.0081801516 -5.2621086e-22)
(2.496606 -0.0088603264 -5.4924205e-22)
(2.4962706 -0.0098313514 -1.2244689e-21)
(2.4960763 -0.010760484 -1.4969935e-21)
(2.4959601 -0.011936447 -7.7290688e-22)
(2.4959705 -0.013039912 -1.5497937e-22)
(2.496115 -0.014415438 1.2149196e-21)
(2.4963908 -0.015675057 2.7941314e-21)
(2.4968853 -0.017190358 1.0087468e-21)
(2.4974951 -0.018543263 -8.3301535e-22)
(2.4984029 -0.02011479 1.4266686e-21)
(2.4993953 -0.021471463 2.1271297e-21)
(2.5007571 -0.022980227 9.5246402e-22)
(2.5021527 -0.024227367 -6.8205922e-22)
(2.5039673 -0.025532451 -8.408011e-22)
(2.5057462 -0.026542044 -2.3885389e-24)
(2.5079592 -0.027497248 2.0273443e-22)
(2.5100551 -0.028150291 -1.3662957e-22)
(2.5125601 -0.028637546 -1.1245357e-21)
(2.5148662 -0.028841974 -6.221723e-22)
(2.5175206 -0.02878261 8.6167328e-22)
(2.519909 -0.02850097 1.1021445e-21)
(2.5225625 -0.02789328 -5.2783882e-22)
(2.5249014 -0.027116756 -6.536865e-22)
(2.5274136 -0.025968161 4.0925676e-22)
(2.5295999 -0.024774256 -6.1671089e-22)
(2.5318743 -0.02322326 -5.8945644e-22)
(2.5338178 -0.021623427 2.3072405e-22)
(2.5357747 -0.01965059 8.2272997e-22)
(2.5374642 -0.017857652 7.1789421e-22)
(2.5391182 -0.015792969 -7.5563404e-22)
(2.5405146 -0.013662638 -7.6746385e-22)
(2.5418378 -0.011212855 -6.2801072e-22)
(2.5430547 -0.0092261236 -5.0662606e-22)
(2.5442029 -0.0071190314 -1.9241186e-22)
(2.5452091 -0.0046327614 -2.7138835e-21)
(2.5461385 -0.0018900716 -3.7062149e-21)
(2.4984537 -0.0057264236 1.0179474e-22)
(2.4975191 -0.0064234183 3.1838061e-23)
(2.4969169 -0.0071243701 1.2852146e-22)
(2.4965489 -0.0078025627 -1.814809e-22)
(2.4961819 -0.0084680838 -8.2562167e-22)
(2.495733 -0.0094236835 7.0083021e-22)
(2.4954298 -0.010349696 7.8215695e-23)
(2.4951769 -0.011534002 -1.5892077e-21)
(2.4950554 -0.012655812 -9.0396177e-22)
(2.4950386 -0.014069772 -3.4930193e-21)
(2.4951644 -0.015383817 -2.2407393e-21)
(2.4954836 -0.016983411 7.7054995e-22)
(2.4959342 -0.018432703 -9.5091229e-22)
(2.496664 -0.020141346 -1.3670389e-21)
(2.4975011 -0.021648104 7.6871279e-22)
(2.4987005 -0.02335669 1.7887563e-21)
(2.499963 -0.024808526 6.6900637e-22)
(2.5016549 -0.026373221 6.1499641e-23)
(2.5033439 -0.027637811 -7.8538986e-23)
(2.5054971 -0.028899996 1.0659494e-21)
(2.507564 -0.029840419 1.272241e-21)
(2.5100867 -0.030654054 9.6782429e-22)
(2.5124342 -0.031157716 5.0895953e-23)
(2.5151866 -0.031423067 -3.0143584e-22)
(2.5176828 -0.031419042 1.1068071e-21)
(2.5205017 -0.031088564 1.1752543e-21)
(2.5230063 -0.030566964 -3.6980375e-22)
(2.5257368 -0.029671729 -3.0614448e-21)
(2.5281175 -0.028652345 -2.0858872e-21)
(2.5306266 -0.02723045 5.2273138e-22)
(2.5327912 -0.025812773 5.6521952e-22)
(2.5349994 -0.024022976 2.9441891e-22)
(2.5368709 -0.022236899 8.5685314e-22)
(2.5387157 -0.020076552 4.8870695e-24)
(2.5403052 -0.018142032 -1.4024891e-21)
(2.5418259 -0.015944658 -1.4250085e-21)
(2.543105 -0.013724674 -1.3020154e-21)
(2.544285 -0.011199908 -5.7307774e-22)
(2.5453983 -0.0091722186 -2.7540165e-22)
(2.5464247 -0.0070468262 -1.2508112e-22)
(2.5473307 -0.0045613427 -1.0298263e-21)
(2.5481474 -0.0018330829 -6.472002e-22)
(2.4983491 -0.0054404784 2.0085321e-22)
(2.4973465 -0.006097589 2.8987271e-22)
(2.496682 -0.0067627964 2.2666983e-22)
(2.4962478 -0.0074125851 -1.5173736e-24)
(2.4958075 -0.0080581337 -2.9716395e-22)
(2.4952525 -0.0089911449 8.5071802e-23)
(2.4948449 -0.0099018443 1.5449255e-21)
(2.4944583 -0.011079247 9.6856134e-22)
(2.4942081 -0.012209 -5.9999508e-22)
(2.4940316 -0.01364829 -5.5712563e-22)
(2.4940062 -0.014997889 -3.007272e-21)
(2.4941463 -0.01666027 -3.3826527e-21)
(2.494432 -0.01818954 -5.4313704e-22)
(2.4949734 -0.020015472 -1.8690543e-21)
(2.4956427 -0.021651316 -2.2766505e-21)
(2.4966602 -0.023538438 -5.5356304e-22)
(2.4977687 -0.025179094 3.9429069e-22)
(2.4993088 -0.026989672 -2.2992724e-21)
(2.5008797 -0.028499395 -2.9187691e-21)
(2.5029387 -0.030064445 -1.5531947e-21)
(2.5049455 -0.031294103 -4.8980482e-22)
(2.5074522 -0.032445557 1.9010007e-21)
(2.5098115 -0.033258325 1.6205965e-21)
(2.5126334 -0.033863306 3.9357079e-22)
(2.5152163 -0.034163706 6.2176049e-23)
(2.5181844 -0.034151991 1.7002426e-21)
(2.5208393 -0.03389797 1.7758035e-21)
(2.5237788 -0.033258922 -8.7494115e-22)
(2.5263603 -0.032471207 -3.4321267e-21)
(2.5291203 -0.031269178 -2.7538025e-21)
(2.5315026 -0.029995628 -2.8877737e-22)
(2.5339638 -0.02829691 1.1769516e-21)
(2.5360702 -0.02665609 9.2956485e-22)
(2.5381741 -0.024635318 1.2171932e-21)
(2.5399431 -0.022672593 4.1410565e-22)
(2.5416457 -0.020340545 -1.4596566e-21)
(2.5431116 -0.018279008 -1.4826762e-21)
(2.5444769 -0.015967756 -1.6339623e-21)
(2.545622 -0.013676292 -9.4723707e-22)
(2.5466442 -0.011098019 -1.805034e-23)
(2.5476427 -0.0090462228 1.2956674e-22)
(2.5485381 -0.0069201948 1.6216744e-21)
(2.5493373 -0.0044549719 2.0215594e-21)
(2.5500363 -0.0017625324 1.9484223e-21)
(2.4982614 -0.0051606275 1.4253554e-22)
(2.4972008 -0.0057747881 -5.0265669e-23)
(2.4964825 -0.0064018727 3.0684666e-23)
(2.4959895 -0.0070197086 5.5712816e-24)
(2.4954817 -0.0076378166 -2.1352948e-22)
(2.4948265 -0.0085375028 -1.2920862e-21)
(2.4943212 -0.0094267147 -9.4361461e-22)
(2.4938066 -0.010589386 3.0487895e-22)
(2.4934306 -0.01171173 -2.5887711e-22)
(2.4930959 -0.013158132 6.5263431e-22)
(2.4929208 -0.014531994 7.1078697e-22)
(2.4928811 -0.016242483 -2.2864557e-23)
(2.4929986 -0.017830297 -3.3688415e-22)
(2.4933445 -0.019749441 -5.6120681e-23)
(2.4938365 -0.021496636 -1.3066803e-21)
(2.4946559 -0.023541397 -1.3575096e-21)
(2.4955925 -0.025350335 2.8933083e-22)
(2.4969546 -0.027388254 4.2594049e-22)
(2.4983807 -0.029130365 -2.129462e-21)
(2.5003108 -0.030990437 -1.1664602e-21)
(2.5022255 -0.032506221 1.5374765e-22)
(2.5046798 -0.034000253 -3.7137643e-22)
(2.5070194 -0.035131492 1.8953573e-21)
(2.5098792 -0.036095847 -7.2963866e-22)
(2.512522 -0.036718061 -1.9269874e-21)
(2.5156161 -0.037047273 8.5694584e-22)
(2.5184056 -0.037092569 2.4213427e-21)
(2.521545 -0.036754805 2.5691494e-21)
(2.524318 -0.036215339 6.8927393e-23)
(2.5273263 -0.03523933 -2.4363153e-21)
(2.5299407 -0.034166925 -1.7787597e-21)
(2.5326798 -0.032648086 4.6899809e-22)
(2.5350219 -0.031116244 1.870906e-21)
(2.5373912 -0.029144949 7.0214175e-22)
(2.5394033 -0.027287451 9.717064e-22)
(2.541367 -0.025049259 1.2045106e-22)
(2.5430051 -0.022923608 -1.6619254e-21)
(2.5445387 -0.020439236 2.2155131e-21)
(2.5458598 -0.018267728 2.1230478e-21)
(2.5470507 -0.015863158 1.1852954e-21)
(2.5480477 -0.013519351 2.0966371e-21)
(2.5489003 -0.010909316 2.7150255e-23)
(2.549775 -0.0088502605 1.4403637e-21)
(2.5505323 -0.0067408735 1.4652984e-21)
(2.5512196 -0.0043149818 1.3880205e-21)
(2.5517977 -0.0016794203 2.693711e-21)
(2.4981892 -0.0048895293 9.6786242e-23)
(2.4970809 -0.0054602302 -2.3538844e-22)
(2.4963164 -0.0060460492 -4.2290851e-22)
(2.4957701 -0.0066260493 -1.9133688e-22)
(2.4952026 -0.0072137657 -2.182278e-22)
(2.4944561 -0.0080760164 1.223612e-22)
(2.4938585 -0.0089328952 -8.955279e-22)
(2.4932197 -0.010066579 -1.3349501e-21)
(2.4927233 -0.011175085 -1.5671543e-22)
(2.4922348 -0.01262046 -2.8403976e-23)
(2.4919115 -0.014000017 8.389971e-22)
(2.4916923 -0.015737174 9.2123496e-22)
(2.491641 -0.017371121 2.2856598e-22)
(2.491788 -0.019366467 2.2861131e-21)
(2.4920964 -0.021200944 2.589447e-21)
(2.4927057 -0.023377117 6.2952093e-22)
(2.4934555 -0.025335689 6.0810872e-22)
(2.4946155 -0.027580662 3.9711516e-21)
(2.4958727 -0.02953731 4.1530923e-21)
(2.4976409 -0.031679791 1.6363005e-21)
(2.4994314 -0.033474439 2.6049056e-21)
(2.5017952 -0.035311518 1.1821533e-21)
(2.5040811 -0.036766585 6.9867619e-22)
(2.5069436 -0.038104742 1.4876668e-21)
(2.5096166 -0.039065962 -1.0119111e-21)
(2.51281 -0.039763426 -3.161185e-21)
(2.5157121 -0.040132031 -5.405745e-22)
(2.5190349 -0.040123379 2.9009454e-21)
(2.5219902 -0.039867381 3.0451259e-21)
(2.5252456 -0.039164276 -4.3716174e-22)
(2.5280887 -0.038312263 -2.820903e-21)
(2.5311096 -0.036981661 -1.4321022e-21)
(2.5337097 -0.035614479 7.050774e-22)
(2.5363771 -0.03377827 2.1549706e-21)
(2.5386375 -0.031991142 1.050285e-21)
(2.5408728 -0.029758634 -9.9640789e-22)
(2.5427567 -0.027696183 -1.8317416e-21)
(2.5445477 -0.025258832 -8.1038024e-22)
(2.5460291 -0.022987295 2.8786472e-21)
(2.5473701 -0.020372461 3.7636589e-21)
(2.5485282 -0.018109685 2.8958647e-21)
(2.5495289 -0.015633233 3.7225612e-21)
(2.5503664 -0.013256536 1.7808712e-21)
(2.5510404 -0.010636283 8.0609713e-23)
(2.5517844 -0.0085865494 8.4991477e-23)
(2.5523983 -0.006510684 4.0456393e-23)
(2.5529705 -0.0041428193 1.2597412e-21)
(2.5534258 -0.0015848521 -1.8692366e-21)
(2.4981317 -0.0046292843 8.008542e-23)
(2.4969852 -0.0051548726 4.3343182e-22)
(2.4961825 -0.0056992343 1.235386e-22)
(2.4955897 -0.0062401348 1.4935219e-22)
(2.4949685 -0.0067914665 3.7675562e-22)
(2.4941371 -0.0076069348 1.0969596e-22)
(2.4934553 -0.0084282437 4.3713501e-22)
(2.4927003 -0.0095288461 2.1190375e-22)
(2.4920871 -0.010608919 -1.8932439e-22)
(2.4914468 -0.012035568 3.2176265e-22)
(2.4909793 -0.013414583 4.5001016e-22)
(2.4905839 -0.015169763 -2.6653463e-22)
(2.4903641 -0.016827773 -2.0403204e-22)
(2.4903109 -0.018873846 -1.5464566e-21)
(2.4904326 -0.020781361 3.7967155e-22)
(2.4908236 -0.023068887 2.8971336e-21)
(2.4913758 -0.025150831 1.0423909e-21)
(2.4923148 -0.027576436 2.348878e-21)
(2.4933809 -0.029729564 5.5634441e-21)
(2.4949547 -0.032137812 6.8838853e-22)
(2.4965905 -0.034199279 -1.7468716e-21)
(2.4988255 -0.036375965 2.4299136e-21)
(2.5010224 -0.038155321 1.0798242e-21)
(2.5038489 -0.039877566 -4.9431158e-22)
(2.5065193 -0.04119235 2.3141609e-22)
(2.5097807 -0.042281612 -1.901707e-21)
(2.5127702 -0.042997858 -3.9491222e-21)
(2.5162567 -0.043351533 -7.3726752e-22)
(2.5193783 -0.043408026 2.5220236e-21)
(2.5228716 -0.043009374 2.6147253e-21)
(2.5259415 -0.04241484 -6.9201168e-22)
(2.5292502 -0.041319477 -2.655571e-21)
(2.5321111 -0.04013776 -1.3395286e-21)
(2.5350864 -0.038446344 8.738821e-22)
(2.5376247 -0.036782995 2.2517301e-21)
(2.5401714 -0.034637678 -6.0191838e-22)
(2.5423104 -0.032604804 -2.5662233e-21)
(2.5443729 -0.030128379 -2.1552808e-21)
(2.5460977 -0.027877027 -1.191411e-21)
(2.547687 -0.0252622 2.218159e-21)
(2.5489891 -0.022864154 3.0483949e-21)
(2.5501177 -0.020142151 -3.5106654e-21)
(2.5510975 -0.017807671 -2.8203544e-21)
(2.5518956 -0.015281073 -1.616654e-21)
(2.5525648 -0.012890838 -3.2775914e-21)
(2.5530539 -0.010281592 -7.7628887e-23)
(2.5536619 -0.0082574831 -1.2218014e-22)
(2.5541291 -0.0062317817 1.3506259e-21)
(2.5545843 -0.0039402833 -1.6162298e-21)
(2.5549166 -0.0014800539 -4.29883e-21)
(2.4980887 -0.0043818135 -8.7239925e-24)
(2.4969152 -0.0048633277 -6.2735191e-23)
(2.4960816 -0.0053643926 2.7000781e-22)
(2.4954455 -0.0058614375 5.0099856e-22)
(2.4947779 -0.0063756167 5.3107186e-22)
(2.49387 -0.0071431771 -1.1452425e-22)
(2.4931099 -0.0079193588 -3.7451598e-22)
(2.4922438 -0.0089733988 3.3377906e-22)
(2.4915213 -0.01002224 1.1873235e-22)
(2.490736 -0.01142699 -1.0005213e-21)
(2.4901261 -0.012787058 -5.2725336e-22)
(2.4895551 -0.014538851 -4.4940483e-22)
(2.4891698 -0.016214798 -1.1416895e-21)
(2.4889189 -0.018301245 -6.6637767e-22)
(2.488853 -0.020255425 -1.9461525e-21)
(2.4890214 -0.022623952 -1.76239e-21)
(2.4893687 -0.024812473 5.9479495e-22)
(2.4900702 -0.02739622 -2.0181483e-22)
(2.4909279 -0.02971932 1.0200263e-21)
(2.4922792 -0.03237065 1.9888652e-21)
(2.4937304 -0.034684235 -2.6871196e-21)
(2.4957968 -0.037191193 -3.1302761e-21)
(2.4978692 -0.039291776 8.1580713e-22)
(2.5006197 -0.041406041 7.4637863e-22)
(2.5032517 -0.043083959 -7.560145e-22)
(2.5065462 -0.044585158 9.1236891e-22)
(2.5095939 -0.045672231 -1.0975139e-21)
(2.5132195 -0.046419065 -2.3962374e-21)
(2.5164887 -0.046817929 6.7739068e-22)
(2.520208 -0.046760524 1.2651238e-21)
(2.5234955 -0.046455626 1.3377609e-21)
(2.5270901 -0.045628885 -3.3353863e-21)
(2.5302165 -0.044670062 -5.2394056e-21)
(2.5335124 -0.043169291 7.9928053e-22)
(2.5363369 -0.04165125 2.9295033e-21)
(2.5392101 -0.03960371 4.7636865e-22)
(2.5416405 -0.037650899 -2.2568663e-21)
(2.5440211 -0.035212185 -7.913217e-23)
(2.5460019 -0.032948543 3.4534832e-22)
(2.5478572 -0.0302499 1.6362938e-21)
(2.5493951 -0.027828847 4.9108183e-21)
(2.550758 -0.025060398 3.4408301e-21)
(2.5518616 -0.022556597 -2.7774325e-21)
(2.5527617 -0.019751413 -2.6493548e-21)
(2.5535511 -0.01736514 -1.5030519e-21)
(2.554137 -0.014810281 -2.7942374e-21)
(2.5546316 -0.012425678 2.4988851e-22)
(2.5549319 -0.009848498 1.8974534e-21)
(2.5554006 -0.0078661815 3.3246729e-21)
(2.5557194 -0.0059071497 1.442787e-21)
(2.5560573 -0.0037098377 -1.0585209e-21)
(2.556268 -0.001366381 1.5171225e-21)
(2.4980589 -0.0041488561 6.8418251e-24)
(2.4968714 -0.0045850914 5.9939735e-23)
(2.496016 -0.0050442217 9.7159214e-24)
(2.4953407 -0.0054971611 -2.1648738e-22)
(2.4946305 -0.0059692008 -4.0463159e-24)
(2.4936483 -0.0066809566 8.6839013e-22)
(2.4928176 -0.007411622 2.6099653e-22)
(2.4918501 -0.0084189871 -1.6561855e-22)
(2.491023 -0.0094226529 5.0877963e-22)
(2.4900973 -0.010787954 -1.2107661e-21)
(2.4893514 -0.012127758 -2.29063e-21)
(2.4886112 -0.01387432 -1.2630239e-21)
(2.4880608 -0.015545607 -1.1996723e-21)
(2.4876124 -0.017645981 3.7599598e-22)
(2.4873611 -0.019639756 8.4821726e-22)
(2.487307 -0.022075224 -1.139029e-21)
(2.4874458 -0.024338816 -9.5330188e-22)
(2.4878997 -0.027046368 -1.4054641e-21)
(2.4885341 -0.029520612 -2.189074e-21)
(2.4896359 -0.032392974 -1.138348e-21)
(2.4908765 -0.034935807 -2.5093166e-22)
(2.492738 -0.037759075 -3.3093498e-21)
(2.4946492 -0.040172879 -3.7367457e-21)
(2.4972804 -0.042680155 2.117492e-21)
(2.4998366 -0.044729291 2.0655484e-21)
(2.5031265 -0.04666207 1.4892203e-22)
(2.5061999 -0.04813867 1.7446247e-21)
(2.5099368 -0.049307068 1.6377017e-21)
(2.5133305 -0.050078288 4.5436632e-22)
(2.5172596 -0.050397532 -2.429858e-21)
(2.5207531 -0.050415506 -1.9167786e-21)
(2.5246295 -0.049895351 -2.8571478e-22)
(2.5280188 -0.049192883 -4.742233e-21)
(2.5316396 -0.047916503 -3.714707e-21)
(2.534761 -0.0465804 2.0359244e-21)