/*--------------------------------*- C++ -*----------------------------------*\
| =========                 |                                                 |
| \\      /  F ield         | OpenFOAM: The Open Source CFD Toolbox           |
|  \\    /   O peration     | Version:  v2012                                 |
|   \\  /    A nd           | Website:  www.openfoam.com                      |
|    \\/     M anipulation  |                                                 |
\*---------------------------------------------------------------------------*/
FoamFile
{
    version     2.0;
    format      ascii;
    class       volVectorField;
    location    "115.351227390527441";
    object      cellDisplacement;
}
// * * * * * * * * * * * * * * * * * * * * * * * * * * * * * * * * * * * * * //

dimensions      [0 1 0 0 0 0 0];


internalField   nonuniform List<vector> 
9200
(
(0.055515694 0 0)
(0.055787004 0 0)
(0.16155304 0 0)
(0.056202804 0 0)
(0.16225131 0 0)
(0.26087805 0 0)
(0.056711374 0 0)
(0.16337249 0 0)
(0.26193481 0 0)
(0.35377658 0 0)
(0.057266843 0 0)
(0.1647553 0 0)
(0.26366078 0 0)
(0.35514666 0 0)
(0.44053443 0 0)
(0.057841429 0 0)
(0.1662843 0 0)
(0.26581337 0 0)
(0.35741484 0 0)
(0.44219041 0 0)
(0.52145479 0 0)
(0.058414064 0 0)
(0.16787463 0 0)
(0.26820552 0 0)
(0.36025639 0 0)
(0.44494933 0 0)
(0.52337437 0 0)
(0.59684227 0 0)
(0.058970145 0 0)
(0.16946493 0 0)
(0.27070067 0 0)
(0.36342678 0 0)
(0.44842401 0 0)
(0.52659317 0 0)
(0.59901203 0 0)
(0.66700203 0 0)
(0.059499696 0 0)
(0.1710128 0 0)
(0.27320231 0 0)
(0.36674469 0 0)
(0.45231259 0 0)
(0.53065677 0 0)
(0.60266238 0 0)
(0.66940983 0 0)
(0.73223011 0 0)
(0.059996304 0 0)
(0.17248941 0 0)
(0.27564161 0 0)
(0.37007799 0 0)
(0.45639187 0 0)
(0.53521803 0 0)
(0.60728665 0 0)
(0.67347647 0 0)
(0.73486883 0 0)
(0.79281623 0 0)
(0.060456475 0 0)
(0.17387592 0 0)
(0.27797133 0 0)
(0.37333301 0 0)
(0.46049696 0 0)
(0.54001255 0 0)
(0.61248746 0 0)
(0.67863674 0 0)
(0.73933575 0 0)
(0.79567906 0 0)
(0.84903719 0 0)
(0.060878479 0 0)
(0.17516182 0 0)
(0.28016145 0 0)
(0.37644553 0 0)
(0.46451124 0 0)
(0.544846 0 0)
(0.61796437 0 0)
(0.68445246 0 0)
(0.74501763 0 0)
(0.80053841 0 0)
(0.85211994 0 0)
(0.90116037 0 0)
(0.061262477 0 0)
(0.17634216 0 0)
(0.28219392 0 0)
(0.37937438 0 0)
(0.46835465 0 0)
(0.54957899 0 0)
(0.62349494 0 0)
(0.69058856 0 0)
(0.75143178 0 0)
(0.80672802 0 0)
(0.85736207 0 0)
(0.90445875 0 0)
(0.94943875 0 0)
(0.061609229 0 0)
(0.17741656 0 0)
(0.28406106 0 0)
(0.38209468 0 0)
(0.47197415 0 0)
(0.55411517 0 0)
(0.62891703 0 0)
(0.6967928 0 0)
(0.75820881 0 0)
(0.81372717 0 0)
(0.86405211 0 0)
(0.91007908 0 0)
(0.95294968 0 0)
(0.99411509 0 0)
(0.061920733 0 0)
(0.17838757 0 0)
(0.28576117 0 0)
(0.38459525 0 0)
(0.47533925 0 0)
(0.55839115 0 0)
(0.63411906 0 0)
(0.70288392 0 0)
(0.76507191 0 0)
(0.82113395 0 0)
(0.87162783 0 0)
(0.91726086 0 0)
(0.95894163 0 0)
(0.99783533 0 0)
(1.0354179 0 0)
(0.062198898 0 0)
(0.17925981 0 0)
(0.28729852 0 0)
(0.38687366 0 0)
(0.47843412 0 0)
(0.5623697 0 0)
(0.639028 0 0)
(0.70873436 0 0)
(0.77181834 0 0)
(0.82864505 0 0)
(0.87965548 0 0)
(0.92540569 0 0)
(0.9666108 0 0)
(1.0041952 0 0)
(1.0393445 0 0)
(1.0735654 0 0)
(0.062446454 0 0)
(0.18003941 0 0)
(0.28867977 0 0)
(0.38893476 0 0)
(0.48125633 0 0)
(0.56603151 0 0)
(0.64359847 0 0)
(0.71426017 0 0)
(0.77830552 0 0)
(0.83603776 0 0)
(0.88780748 0 0)
(0.9340489 0 0)
(0.97531997 0 0)
(1.0123452 0 0)
(1.0460669 0 0)
(1.0776954 0 0)
(1.1087621 0 0)
(0.062665682 0 0)
(0.18073297 0 0)
(0.28991468 0 0)
(0.39078763 0 0)
(0.48381016 0 0)
(0.56937246 0 0)
(0.64780896 0 0)
(0.71940967 0 0)
(0.78443848 0 0)
(0.84315498 0 0)
(0.89584156 0 0)
(0.94283722 0 0)
(0.9845739 0 0)
(1.0216136 0 0)
(1.0546939 0 0)
(1.084776 0 0)
(1.1130921 0 0)
(1.141203 0 0)
(0.062859373 0 0)
(0.18134774 0 0)
(0.29101341 0 0)
(0.39244459 0 0)
(0.48610763 0 0)
(0.57239771 0 0)
(0.65165214 0 0)
(0.72415692 0 0)
(0.79015959 0 0)
(0.84989073 0 0)
(0.90358567 0 0)
(0.95151022 0 0)
(0.99399617 0 0)
(1.0314754 0 0)
(1.0645175 0 0)
(1.0938739 0 0)
(1.1205256 0 0)
(1.1457297 0 0)
(1.1710702 0 0)
(0.063029819 0 0)
(0.1818907 0 0)
(0.29198751 0 0)
(0.39391959 0 0)
(0.48816255 0 0)
(0.57512007 0 0)
(0.65513491 0 0)
(0.72849349 0 0)
(0.79543738 0 0)
(0.85617979 0 0)
(0.91092261 0 0)
(0.95987952 0 0)
(1.0033059 0 0)
(1.0415293 0 0)
(1.0749836 0 0)
(1.1042477 0 0)
(1.1300896 0 0)
(1.1535108 0 0)
(1.1757896 0 0)
(1.1985368 0 0)
(0.06317957 0 0)
(0.18236898 0 0)
(0.29284786 0 0)
(0.39522743 0 0)
(0.489993 0 0)
(0.57755658 0 0)
(0.65826973 0 0)
(0.73242524 0 0)
(0.80026294 0 0)
(0.86198666 0 0)
(0.91777927 0 0)
(0.96781868 0 0)
(1.0123023 0 0)
(1.0514768 0 0)
(1.0856681 0 0)
(1.1153152 0 0)
(1.1410089 0 0)
(1.163534 0 0)
(1.1839122 0 0)
(1.2034451 0 0)
(1.2237643 0 0)
(0.063310703 0 0)
(0.18278904 0 0)
(0.29360576 0 0)
(0.39638309 0 0)
(0.49161608 0 0)
(0.57972706 0 0)
(0.66107718 0 0)
(0.73596679 0 0)
(0.80464026 0 0)
(0.86729996 0 0)
(0.92411711 0 0)
(0.97524632 0 0)
(1.0208455 0 0)
(1.0611005 0 0)
(1.0962529 0 0)
(1.1266285 0 0)
(1.1526736 0 0)
(1.1749927 0 0)
(1.1943884 0 0)
(1.2119027 0 0)
(1.228857 0 0)
(1.2469062 0 0)
(0.063425376 0 0)
(0.18315722 0 0)
(0.29427141 0 0)
(0.39740112 0 0)
(0.49305116 0 0)
(0.58165291 0 0)
(0.66357839 0 0)
(0.73913936 0 0)
(0.80858625 0 0)
(0.87212348 0 0)
(0.92991989 0 0)
(0.98211762 0 0)
(1.0288477 0 0)
(1.0702519 0 0)
(1.1065071 0 0)
(1.1378513 0 0)
(1.1646137 0 0)
(1.1872502 0 0)
(1.2063801 0 0)
(1.2228237 0 0)
(1.2376426 0 0)
(1.2521787 0 0)
(1.268105 0 0)
(0.063525405 0 0)
(0.18347919 0 0)
(0.29485495 0 0)
(0.39829565 0 0)
(0.4943153 0 0)
(0.58335548 0 0)
(0.66579889 0 0)
(0.74196783 0 0)
(0.81212234 0 0)
(0.8764741 0 0)
(0.93519306 0 0)
(0.98841578 0 0)
(1.0362584 0 0)
(1.0788334 0 0)
(1.1162698 0 0)
(1.1487377 0 0)
(1.1764742 0 0)
(1.199814 0 0)
(1.2192245 0 0)
(1.2353403 0 0)
(1.2490003 0 0)
(1.2612845 0 0)
(1.2735524 0 0)
(1.2874962 0 0)
(0.063612544 0 0)
(0.18376023 0 0)
(0.29536522 0 0)
(0.39907967 0 0)
(0.49542662 0 0)
(0.5848563 0 0)
(0.66776195 0 0)
(0.74447897 0 0)
(0.81527706 0 0)
(0.8803756 0 0)
(0.93995136 0 0)
(0.9941424 0 0)
(1.0430572 0 0)
(1.0867896 0 0)
(1.125436 0 0)
(1.1591156 0 0)
(1.1879945 0 0)
(1.2123112 0 0)
(1.2324081 0 0)
(1.2487651 0 0)
(1.2620335 0 0)
(1.2730692 0 0)
(1.2829703 0 0)
(1.2931133 0 0)
(1.3052053 0 0)
(0.063688321 0 0)
(0.18400515 0 0)
(0.29581087 0 0)
(0.39976556 0 0)
(0.49640056 0 0)
(0.58617531 0 0)
(0.6694931 0 0)
(0.74670056 0 0)
(0.81807849 0 0)
(0.88385751 0 0)
(0.94422233 0 0)
(0.99931538 0 0)
(1.0492448 0 0)
(1.0940959 0 0)
(1.1339441 0 0)
(1.168872 0 0)
(1.1989915 0 0)
(1.2244668 0 0)
(1.2455401 0 0)
(1.2625633 0 0)
(1.2760305 0 0)
(1.2866091 0 0)
(1.2951722 0 0)
(1.3028345 0 0)
(1.3109867 0 0)
(1.3213518 0 0)
(0.063754107 0 0)
(0.18421826 0 0)
(0.29619925 0 0)
(0.40036433 0 0)
(0.49725292 0 0)
(0.5873321 0 0)
(0.67101447 0 0)
(0.74865943 0 0)
(0.82055829 0 0)
(0.88695156 0 0)
(0.94803505 0 0)
(1.0039601 0 0)
(1.0548383 0 0)
(1.1007521 0 0)
(1.1417656 0 0)
(1.1779383 0 0)
(1.2093426 0 0)
(1.2360853 0 0)
(1.2583303 0 0)
(1.2763264 0 0)
(1.2904365 0 0)
(1.3011692 0 0)
(1.3092082 0 0)
(1.3154425 0 0)
(1.3210022 0 0)
(1.327292 0 0)
(1.336046 0 0)
(0.063811187 0 0)
(0.18440347 0 0)
(0.29653741 0 0)
(0.40088635 0 0)
(0.4979969 0 0)
(0.58834407 0 0)
(0.6723492 0 0)
(0.75038215 0 0)
(0.82274509 0 0)
(0.88969073 0 0)
(0.9514257 0 0)
(1.0081107 0 0)
(1.0598648 0 0)
(1.1067739 0 0)
(1.1488982 0 0)
(1.186283 0 0)
(1.218974 0 0)
(1.2470362 0 0)
(1.270573 0 0)
(1.2897512 0 0)
(1.3048267 0 0)
(1.3161754 0 0)
(1.3243208 0 0)
(1.3299627 0 0)
(1.3340051 0 0)
(1.3375921 0 0)
(1.3421391 0 0)
(1.3493928 0 0)
(0.06386054 0 0)
(0.18456415 0 0)
(0.29683132 0 0)
(0.40134064 0 0)
(0.49864565 0 0)
(0.58922797 0 0)
(0.67351672 0 0)
(0.75189305 0 0)
(0.82466916 0 0)
(0.89210784 0 0)
(0.9544279 0 0)
(1.0118023 0 0)
(1.064359 0 0)
(1.1121901 0 0)
(1.1553571 0 0)
(1.1939003 0 0)
(1.2278491 0 0)
(1.2572386 0 0)
(1.2821273 0 0)
(1.3026181 0 0)
(1.318882 0 0)
(1.3311859 0 0)
(1.3399177 0 0)
(1.3456165 0 0)
(1.348997 0 0)
(1.3509775 0 0)
(1.3527141 0 0)
(1.355633 0 0)
(1.3614889 0 0)
(0.063906073 0 0)
(0.18470343 0 0)
(0.29708662 0 0)
(0.40173562 0 0)
(0.49921011 0 0)
(0.58999836 0 0)
(0.67453682 0 0)
(0.75321567 0 0)
(0.82635671 0 0)
(0.89423438 0 0)
(0.95707884 0 0)
(1.0150742 0 0)
(1.0683593 0 0)
(1.1170356 0 0)
(1.1611711 0 0)
(1.2008053 0 0)
(1.2359598 0 0)
(1.2666511 0 0)
(1.2929059 0 0)
(1.3147788 0 0)
(1.332374 0 0)
(1.3458695 0 0)
(1.3555415 0 0)
(1.3617935 0 0)
(1.365179 0 0)
(1.3664275 0 0)
(1.3664697 0 0)
(1.3664727 0 0)
(1.3678703 0 0)
(1.3724264 0 0)
(0.063674375 0 0)
(0.18483146 0 0)
(0.29730801 0 0)
(0.40207859 0 0)
(0.49970091 0 0)
(0.59066908 0 0)
(0.67542586 0 0)
(0.75437076 0 0)
(0.82783444 0 0)
(0.8961007 0 0)
(0.95941123 0 0)
(1.0179631 0 0)
(1.0719061 0 0)
(1.1213519 0 0)
(1.1663769 0 0)
(1.207026 0 0)
(1.2433196 0 0)
(1.2752635 0 0)
(1.3028629 0 0)
(1.3261383 0 0)
(1.3451428 0 0)
(1.3599833 0 0)
(1.370846 0 0)
(1.378021 0 0)
(1.3819242 0 0)
(1.3831242 0 0)
(1.3823638 0 0)
(1.3805851 0 0)
(1.3789645 0 0)
(1.3789431 0 0)
(1.3822899 0 0)
(0.063383709 0 0)
(0.18434221 0 0)
(0.29751126 0 0)
(0.40237594 0 0)
(0.50012694 0 0)
(0.59125196 0 0)
(0.6762 0 0)
(0.75537814 0 0)
(0.82912495 0 0)
(0.89773455 0 0)
(0.96145921 0 0)
(1.0205074 0 0)
(1.07504 0 0)
(1.1251806 0 0)
(1.1710169 0 0)
(1.212601 0 0)
(1.2499567 0 0)
(1.2830869 0 0)
(1.3119845 0 0)
(1.3366458 0 0)
(1.3570869 0 0)
(1.3733607 0 0)
(1.3855801 0 0)
(1.3939414 0 0)
(1.3987453 0 0)
(1.4004244 0 0)
(1.3995603 0 0)
(1.3969085 0 0)
(1.3934206 0 0)
(1.3902814 0 0)
(1.3889359 0 0)
(1.3911602 0 0)
(0.063121826 0 0)
(0.18346307 0 0)
(0.29678887 0 0)
(0.40264847 0 0)
(0.50049625 0 0)
(0.59175807 0 0)
(0.67687272 0 0)
(0.75625492 0 0)
(0.8302507 0 0)
(0.89916227 0 0)
(0.96325209 0 0)
(1.0227409 0 0)
(1.0778003 0 0)
(1.1285658 0 0)
(1.1751357 0 0)
(1.2175734 0 0)
(1.2559097 0 0)
(1.2901496 0 0)
(1.3202802 0 0)
(1.3462831 0 0)
(1.3681492 0 0)
(1.3858915 0 0)
(1.399565 0 0)
(1.4092889 0 0)
(1.4152708 0 0)
(1.4178268 0 0)
(1.4174012 0 0)
(1.4145894 0 0)
(1.4101581 0 0)
(1.4050671 0 0)
(1.4005078 0 0)
(1.3979297 0 0)
(1.399111 0 0)
(0.06288905 0 0)
(0.18267256 0 0)
(0.29537912 0 0)
(0.40171702 0 0)
(0.50083412 0 0)
(0.59219675 0 0)
(0.67745691 0 0)
(0.75701731 0 0)
(0.83123045 0 0)
(0.90040721 0 0)
(0.96481927 0 0)
(1.024698 0 0)
(1.0802254 0 0)
(1.1315484 0 0)
(1.1787789 0 0)
(1.2219908 0 0)
(1.2612239 0 0)
(1.29649 0 0)
(1.3277772 0 0)
(1.3550591 0 0)
(1.3783095 0 0)
(1.3975136 0 0)
(1.412684 0 0)
(1.4238789 0 0)
(1.4312276 0 0)
(1.4349494 0 0)
(1.435372 0 0)
(1.4329558 0 0)
(1.4283071 0 0)
(1.4222029 0 0)
(1.4156099 0 0)
(1.4097247 0 0)
(1.4059981 0 0)
(1.4062129 0 0)
(0.062687193 0 0)
(0.18197053 0 0)
(0.29411252 0 0)
(0.39983012 0 0)
(0.49971688 0 0)
(0.59259747 0 0)
(0.67796327 0 0)
(0.75767915 0 0)
(0.83208244 0 0)
(0.90149128 0 0)
(0.96618577 0 0)
(1.0264082 0 0)
(1.0823502 0 0)
(1.1341701 0 0)
(1.1819911 0 0)
(1.2258999 0 0)
(1.2659479 0 0)
(1.3021552 0 0)
(1.3345146 0 0)
(1.3629992 0 0)
(1.3875728 0 0)
(1.4082018 0 0)
(1.4248685 0 0)
(1.4375856 0 0)
(1.4464184 0 0)
(1.4515051 0 0)
(1.453078 0 0)
(1.4514802 0 0)
(1.4471826 0 0)
(1.4408033 0 0)
(1.4331281 0 0)
(1.4251287 0 0)
(1.4180058 0 0)
(1.413212 0 0)
(1.4125302 0 0)
(0.062517982 0 0)
(0.18136253 0 0)
(0.29298807 0 0)
(0.3981355 0 0)
(0.49740231 0 0)
(0.59131654 0 0)
(0.67842506 0 0)
(0.75825287 0 0)
(0.83282201 0 0)
(0.90243357 0 0)
(0.96737588 0 0)
(1.0279006 0 0)
(1.0842084 0 0)
(1.1364679 0 0)
(1.1848152 0 0)
(1.2293489 0 0)
(1.2701316 0 0)
(1.3071947 0 0)
(1.3405397 0 0)
(1.3701426 0 0)
(1.3959639 0 0)
(1.4179586 0 0)
(1.4360889 0 0)
(1.4503345 0 0)
(1.4607113 0 0)
(1.4672913 0 0)
(1.4702254 0 0)
(1.4697588 0 0)
(1.4662455 0 0)
(1.4601711 0 0)
(1.4521625 0 0)
(1.443013 0 0)
(1.4336985 0 0)
(1.4254221 0 0)
(1.4196355 0 0)
(1.4181246 0 0)
(0.06238275 0 0)
(0.18085315 0 0)
(0.29201446 0 0)
(0.39663136 0 0)
(0.49532419 0 0)
(0.58861993 0 0)
(0.67700065 0 0)
(0.75877534 0 0)
(0.83346311 0 0)
(0.90325173 0 0)
(0.96841032 0 0)
(1.0292 0 0)
(1.0858297 0 0)
(1.138478 0 0)
(1.1872918 0 0)
(1.2323822 0 0)
(1.2738245 0 0)
(1.3116613 0 0)
(1.3459042 0 0)
(1.3765367 0 0)
(1.4035215 0 0)
(1.4268084 0 0)
(1.4463457 0 0)
(1.462091 0 0)
(1.4740248 0 0)
(1.4821668 0 0)
(1.4865995 0 0)
(1.4874844 0 0)
(1.4850804 0 0)
(1.4797557 0 0)
(1.4720048 0 0)
(1.4624639 0 0)
(1.4519327 0 0)
(1.4413889 0 0)
(1.4320379 0 0)
(1.4253308 0 0)
(1.4230519 0 0)
(0.062282701 0 0)
(0.18044649 0 0)
(0.29119912 0 0)
(0.39532919 0 0)
(0.49347994 0 0)
(0.58619951 0 0)
(0.67396335 0 0)
(0.75722636 0 0)
(0.83404596 0 0)
(0.90396086 0 0)
(0.96930854 0 0)
(1.0303301 0 0)
(1.0872421 0 0)
(1.1402321 0 0)
(1.1894585 0 0)
(1.2350439 0 0)
(1.2770746 0 0)
(1.3156061 0 0)
(1.3506621 0 0)
(1.3822351 0 0)
(1.4102938 0 0)
(1.4347886 0 0)
(1.4556605 0 0)
(1.4728523 0 0)
(1.4863199 0 0)
(1.4960443 0 0)
(1.5020531 0 0)
(1.5044378 0 0)
(1.5033741 0 0)
(1.4991335 0 0)
(1.492094 0 0)
(1.4827628 0 0)
(1.471782 0 0)
(1.4599567 0 0)
(1.4482661 0 0)
(1.4379154 0 0)
(1.4303536 0 0)
(1.4273658 0 0)
(0.062218582 0 0)
(0.18014562 0 0)
(0.29054828 0 0)
(0.39423885 0 0)
(0.4918835 0 0)
(0.58405158 0 0)
(0.67123785 0 0)
(0.7538869 0 0)
(0.83239002 0 0)
(0.90460428 0 0)
(0.97008706 0 0)
(1.0313112 0 0)
(1.0884702 0 0)
(1.1417607 0 0)
(1.1913503 0 0)
(1.2373729 0 0)
(1.2799272 0 0)
(1.31908 0 0)
(1.3548672 0 0)
(1.387293 0 0)
(1.4163345 0 0)
(1.4419473 0 0)
(1.4640705 0 0)
(1.4826375 0 0)
(1.4975887 0 0)
(1.5088785 0 0)
(1.5164917 0 0)
(1.5204627 0 0)
(1.5208963 0 0)
(1.5179792 0 0)
(1.5119966 0 0)
(1.5033384 0 0)
(1.4925189 0 0)
(1.4801868 0 0)
(1.4671511 0 0)
(1.4543907 0 0)
(1.4431106 0 0)
(1.4347578 0 0)
(1.4311148 0 0)
(0.062191074 0 0)
(0.17995295 0 0)
(0.2900669 0 0)
(0.39336861 0 0)
(0.4905469 0 0)
(0.58219253 0 0)
(0.6688191 0 0)
(0.75089063 0 0)
(0.82878296 0 0)
(0.90285795 0 0)
(0.97079222 0 0)
(1.0321616 0 0)
(1.0895368 0 0)
(1.1430899 0 0)
(1.1929988 0 0)
(1.2394075 0 0)
(1.282425 0 0)
(1.3221303 0 0)
(1.3585723 0 0)
(1.3917668 0 0)
(1.4217012 0 0)
(1.4483393 0 0)
(1.4716237 0 0)
(1.4914842 0 0)
(1.5078502 0 0)
(1.5206588 0 0)
(1.5298653 0 0)
(1.5354588 0 0)
(1.537485 0 0)
(1.5360585 0 0)
(1.5313814 0 0)
(1.5237501 0 0)
(1.5135624 0 0)
(1.5013429 0 0)
(1.4877437 0 0)
(1.4735769 0 0)
(1.4598207 0 0)
(1.4476778 0 0)
(1.438592 0 0)
(1.4343456 0 0)
(0.17987034 0 0)
(0.062191498 0 0)
(0.28975873 0 0)
(0.39272514 0 0)
(0.48948024 0 0)
(0.58063616 0 0)
(0.66672597 0 0)
(0.74823223 0 0)
(0.82554724 0 0)
(0.89901512 0 0)
(0.96897103 0 0)
(1.0329304 0 0)
(1.0904612 0 0)
(1.1442445 0 0)
(1.1944328 0 0)
(1.2411805 0 0)
(1.2846071 0 0)
(1.3248025 0 0)
(1.3618276 0 0)
(1.3957109 0 0)
(1.4264514 0 0)
(1.4540231 0 0)
(1.4783754 0 0)
(1.4994394 0 0)
(1.517139 0 0)
(1.5314 0 0)
(1.5421581 0 0)
(1.5493696 0 0)
(1.5530325 0 0)
(1.5532012 0 0)
(1.5500048 0 0)
(1.543656 0 0)
(1.5344638 0 0)
(1.5228353 0 0)
(1.5093001 0 0)
(1.4945145 0 0)
(1.4792922 0 0)
(1.464609 0 0)
(1.4516658 0 0)
(1.4419032 0 0)
(1.4371002 0 0)
(0.28962678 0 0)
(0.17987182 0 0)
(0.062219881 0 0)
(0.39231335 0 0)
(0.4886917 0 0)
(0.57939434 0 0)
(0.66497368 0 0)
(0.7459316 0 0)
(0.82267677 0 0)
(0.89556883 0 0)
(0.96492226 0 0)
(1.0310487 0 0)
(1.0912952 0 0)
(1.1452451 0 0)
(1.1956782 0 0)
(1.2427234 0 0)
(1.2865098 0 0)
(1.3271377 0 0)
(1.3646804 0 0)
(1.3991785 0 0)
(1.4306425 0 0)
(1.4590582 0 0)
(1.4843847 0 0)
(1.5065584 0 0)
(1.5255026 0 0)
(1.5411357 0 0)
(1.5533818 0 0)
(1.5621757 0 0)
(1.5674778 0 0)
(1.5692935 0 0)
(1.5676908 0 0)
(1.5628089 0 0)
(1.5548757 0 0)
(1.5442091 0 0)
(1.531222 0 0)
(1.5164523 0 0)
(1.500557 0 0)
(1.4843506 0 0)
(1.4688065 0 0)
(1.4551218 0 0)
(1.4447334 0 0)
(1.4394191 0 0)
(0.39213718 0 0)
(0.28962941 0 0)
(0.17995745 0 0)
(0.062284864 0 0)
(0.48818719 0 0)
(0.57847634 0 0)
(0.66357582 0 0)
(0.74400614 0 0)
(0.82019285 0 0)
(0.89251163 0 0)
(0.96129206 0 0)
(1.0268212 0 0)
(1.0893667 0 0)
(1.1461463 0 0)
(1.1967579 0 0)
(1.2440635 0 0)
(1.2881656 0 0)
(1.3291745 0 0)
(1.3671747 0 0)
(1.4022187 0 0)
(1.4343291 0 0)
(1.4635038 0 0)
(1.4897131 0 0)
(1.5129015 0 0)
(1.532996 0 0)
(1.5499135 0 0)
(1.5635694 0 0)
(1.5738846 0 0)
(1.5807955 0 0)
(1.5842681 0 0)
(1.584319 0 0)
(1.5810258 0 0)
(1.5745427 0 0)
(1.5651073 0 0)
(1.553048 0 0)
(1.5387842 0 0)
(1.5228572 0 0)
(1.5059252 0 0)
(1.4888027 0 0)
(1.4724591 0 0)
(1.4580882 0 0)
(1.4471234 0 0)
(1.4413387 0 0)
(0.48797161 0 0)
(0.39214098 0 0)
(0.28976661 0 0)
(0.18015312 0 0)
(0.062385806 0 0)
(0.57788926 0 0)
(0.66254266 0 0)
(0.74247006 0 0)
(0.81811422 0 0)
(0.88986658 0 0)
(0.95807194 0 0)
(1.0230312 0 0)
(1.0849849 0 0)
(1.1441834 0 0)
(1.1977284 0 0)
(1.2452254 0 0)
(1.2896042 0 0)
(1.3309474 0 0)
(1.3693508 0 0)
(1.4048783 0 0)
(1.4375634 0 0)
(1.4674169 0 0)
(1.4944213 0 0)
(1.518531 0 0)
(1.5396805 0 0)
(1.5577886 0 0)
(1.5727666 0 0)
(1.5845271 0 0)
(1.5929909 0 0)
(1.5980958 0 0)
(1.599817 0 0)
(1.59818 0 0)
(1.5932771 0 0)
(1.5852719 0 0)
(1.5744159 0 0)
(1.561044 0 0)
(1.5455793 0 0)
(1.5285692 0 0)
(1.5106701 0 0)
(1.4926955 0 0)
(1.4756111 0 0)
(1.4606061 0 0)
(1.4491098 0 0)
(1.4428939 0 0)
(0.57763863 0 0)
(0.4879765 0 0)
(0.39232471 0 0)
(0.29008001 0 0)
(0.18045705 0 0)
(0.062521926 0 0)
(0.6618823 0 0)
(0.74133518 0 0)
(0.81645622 0 0)
(0.88765314 0 0)
(0.95528624 0 0)
(1.0196699 0 0)
(1.0810577 0 0)
(1.1396704 0 0)
(1.195743 0 0)
(1.2462678 0 0)
(1.2908514 0 0)
(1.3324881 0 0)
(1.3712457 0 0)
(1.4071993 0 0)
(1.4403938 0 0)
(1.4708518 0 0)
(1.4985685 0 0)
(1.5235097 0 0)
(1.5456188 0 0)
(1.5648212 0 0)
(1.5810285 0 0)
(1.5941471 0 0)
(1.6040895 0 0)
(1.6107764 0 0)
(1.6141501 0 0)
(1.6141934 0 0)
(1.6109456 0 0)
(1.6045087 0 0)
(1.5950608 0 0)
(1.5828608 0 0)
(1.5682524 0 0)
(1.5516622 0 0)
(1.5336393 0 0)
(1.5148393 0 0)
(1.4960734 0 0)
(1.4783028 0 0)
(1.4627124 0 0)
(1.4507277 0 0)
(1.4441163 0 0)
(0.66160088 0 0)
(0.57764472 0 0)
(0.48820193 0 0)
(0.39274407 0 0)
(0.29056661 0 0)
(0.18086674 0 0)
(0.062692059 0 0)
(0.74060986 0 0)
(0.81523151 0 0)
(0.88588799 0 0)
(0.95295527 0 0)
(1.016762 0 0)
(1.0775747 0 0)
(1.1356264 0 0)
(1.1911197 0 0)
(1.2442708 0 0)
(1.2919686 0 0)
(1.3338239 0 0)
(1.3728924 0 0)
(1.4092211 0 0)
(1.4428651 0 0)
(1.4738591 0 0)
(1.5022111 0 0)
(1.5278986 0 0)
(1.5508754 0 0)
(1.571076 0 0)
(1.588416 0 0)
(1.602801 0 0)
(1.6141369 0 0)
(1.6223341 0 0)
(1.6273148 0 0)
(1.629027 0 0)
(1.6274656 0 0)
(1.6226792 0 0)
(1.6147845 0 0)
(1.6039679 0 0)
(1.5905005 0 0)
(1.5747296 0 0)
(1.5570835 0 0)
(1.5381155 0 0)
(1.5184773 0 0)
(1.4989774 0 0)
(1.4805726 0 0)
(1.4644427 0 0)
(1.4520089 0 0)
(1.4450348 0 0)
(0.74030131 0 0)
(0.6616083 0 0)
(0.5779074 0 0)
(0.48871628 0 0)
(0.3933951 0 0)
(0.29122265 0 0)
(0.1813793 0 0)
(0.062894854 0 0)
(0.81444912 0 0)
(0.8845842 0 0)
(0.95109664 0 0)
(1.0143292 0 0)
(1.0745621 0 0)
(1.1320402 0 0)
(1.1869779 0 0)
(1.2395564 0 0)
(1.2899703 0 0)
(1.3350186 0 0)
(1.3743207 0 0)
(1.4109785 0 0)
(1.4450183 0 0)
(1.476486 0 0)
(1.5054021 0 0)
(1.5317561 0 0)
(1.555513 0 0)
(1.5766178 0 0)
(1.5949942 0 0)
(1.6105495 0 0)
(1.6231865 0 0)
(1.6328102 0 0)
(1.639331 0 0)
(1.6426723 0 0)
(1.6427922 0 0)
(1.6396946 0 0)
(1.6334426 0 0)
(1.6241617 0 0)
(1.6120513 0 0)
(1.5973878 0 0)
(1.580525 0 0)
(1.5618921 0 0)
(1.5420428 0 0)
(1.5216258 0 0)
(1.5014461 0 0)
(1.4824554 0 0)
(1.4658289 0 0)
(1.4529822 0 0)
(1.4456766 0 0)
(0.81411675 0 0)
(0.74030967 0 0)
(0.66190444 0 0)
(0.5785067 0 0)
(0.48951472 0 0)
(0.39427291 0 0)
(0.29204311 0 0)
(0.18199044 0 0)
(0.063128595 0 0)
(0.88375171 0 0)
(0.94972404 0 0)
(1.0123893 0 0)
(1.0720417 0 0)
(1.1289387 0 0)
(1.1833056 0 0)
(1.2353343 0 0)
(1.2851827 0 0)
(1.3330289 0 0)
(1.3755957 0 0)
(1.4125031 0 0)
(1.4468907 0 0)
(1.4787756 0 0)
(1.5081908 0 0)
(1.5351375 0 0)
(1.5595922 0 0)
(1.5815116 0 0)
(1.6008287 0 0)
(1.617457 0 0)
(1.6313002 0 0)
(1.6422584 0 0)
(1.6502371 0 0)
(1.6551462 0 0)
(1.6569141 0 0)
(1.6555067 0 0)
(1.6509421 0 0)
(1.6432926 0 0)
(1.6326979 0 0)
(1.6193631 0 0)
(1.603575 0 0)
(1.5856887 0 0)
(1.5661327 0 0)
(1.5454634 0 0)
(1.5243239 0 0)
(1.5035154 0 0)
(1.4839846 0 0)
(1.4669 0 0)
(1.4536754 0 0)
(1.4460687 0 0)
(0.88339835 0 0)
(0.81412613 0 0)
(0.74063514 0 0)
(0.6625796 0 0)
(0.57943696 0 0)
(0.4905913 0 0)
(0.39537083 0 0)
(0.29302188 0 0)
(0.18269575 0 0)
(0.063391449 0 0)
(0.94884791 0 0)
(1.0109571 0 0)
(1.0700325 0 0)
(1.1263443 0 0)
(1.1801298 0 0)
(1.2315912 0 0)
(1.2808963 0 0)
(1.3281848 0 0)
(1.3736241 0 0)
(1.4138618 0 0)
(1.4485151 0 0)
(1.4807672 0 0)
(1.5106223 0 0)
(1.538094 0 0)
(1.5631701 0 0)
(1.5858193 0 0)
(1.6059859 0 0)
(1.6235911 0 0)
(1.6385425 0 0)
(1.650741 0 0)
(1.6600869 0 0)
(1.6664837 0 0)
(1.6698428 0 0)
(1.6700984 0 0)
(1.6672292 0 0)
(1.6612626 0 0)
(1.6522853 0 0)
(1.6404443 0 0)
(1.6259556 0 0)
(1.6091094 0 0)
(1.5902646 0 0)
(1.5698485 0 0)
(1.5484168 0 0)
(1.526608 0 0)
(1.5052188 0 0)
(1.4851885 0 0)
(1.467684 0 0)
(1.4541155 0 0)
(1.4462348 0 0)
(0.94847645 0 0)
(0.88340852 0 0)
(0.81447741 0 0)
(0.74137711 0 0)
(0.66362723 0 0)
(0.58069121 0 0)
(0.49193788 0 0)
(0.39668053 0 0)
(0.29415136 0 0)
(0.18348952 0 0)
(0.063683118 0 0)
(1.010043 0 0)
(1.0685491 0 0)
(1.1242764 0 0)
(1.1774737 0 0)
(1.2283545 0 0)
(1.2770967 0 0)
(1.3238491 0 0)
(1.3687387 0 0)
(1.4119169 0 0)
(1.4499609 0 0)
(1.4824953 0 0)
(1.5127378 0 0)
(1.5406732 0 0)
(1.5663003 0 0)
(1.5896004 0 0)
(1.6105294 0 0)
(1.6290182 0 0)
(1.644982 0 0)
(1.6583236 0 0)
(1.6689413 0 0)
(1.6767362 0 0)
(1.6816116 0 0)
(1.6834792 0 0)
(1.6822839 0 0)
(1.6780143 0 0)
(1.6707121 0 0)
(1.6604717 0 0)
(1.6474531 0 0)
(1.6318757 0 0)
(1.6140378 0 0)
(1.5942973 0 0)
(1.5730789 0 0)
(1.5509403 0 0)
(1.5285121 0 0)
(1.5065849 0 0)
(1.486096 0 0)
(1.4682086 0 0)
(1.4543265 0 0)
(1.4461967 0 0)
(1.009656 0 0)
(0.94848727 0 0)
(0.88378217 0 0)
(0.81527843 0 0)
(0.74252878 0 0)
(0.66503969 0 0)
(0.58226003 0 0)
(0.49354431 0 0)
(0.39819231 0 0)
(0.29542317 0 0)
(0.18437193 0 0)
(0.063915709 0 0)
(1.0676029 0 0)
(1.1227501 0 0)
(1.1753568 0 0)
(1.225648 0 0)
(1.2738117 0 0)
(1.3200063 0 0)
(1.3643676 0 0)
(1.4070043 0 0)
(1.448051 0 0)
(1.4840316 0 0)
(1.5145743 0 0)
(1.5429178 0 0)
(1.5690321 0 0)
(1.5929102 0 0)
(1.6145207 0 0)
(1.6338046 0 0)
(1.6506853 0 0)
(1.6650732 0 0)
(1.6768672 0 0)
(1.6859638 0 0)
(1.6922665 0 0)
(1.6956768 0 0)
(1.6961108 0 0)
(1.6935226 0 0)
(1.6879154 0 0)
(1.6793396 0 0)
(1.6679029 0 0)
(1.6537705 0 0)
(1.6371703 0 0)
(1.6184022 0 0)
(1.5978257 0 0)
(1.5758624 0 0)
(1.5530683 0 0)
(1.5300651 0 0)
(1.5076428 0 0)
(1.4867354 0 0)
(1.468498 0 0)
(1.4543307 0 0)
(1.4459539 0 0)
(1.0672027 0 0)
(1.0096671 0 0)
(0.94888021 0 0)
(0.88463491 0 0)
(0.81652182 0 0)
(0.74408129 0 0)
(0.66680607 0 0)
(0.5841316 0 0)
(0.49539863 0 0)
(0.39989441 0 0)
(0.29683798 0 0)
(0.18486421 0 0)
(0.063871014 0 0)
(1.121777 0 0)
(1.1737949 0 0)
(1.2234913 0 0)
(1.271065 0 0)
(1.3166846 0 0)
(1.360494 0 0)
(1.4026104 0 0)
(1.4431249 0 0)
(1.482165 0 0)
(1.5162044 0 0)
(1.544867 0 0)
(1.5714107 0 0)
(1.5958004 0 0)
(1.618017 0 0)
(1.6380126 0 0)
(1.6557204 0 0)
(1.6710592 0 0)
(1.683932 0 0)
(1.6942365 0 0)
(1.7018732 0 0)
(1.7067391 0 0)
(1.708736 0 0)
(1.7077896 0 0)
(1.7038676 0 0)
(1.6969816 0 0)
(1.6871961 0 0)
(1.6746248 0 0)
(1.6594437 0 0)
(1.6418814 0 0)
(1.6222445 0 0)
(1.6008894 0 0)
(1.5782334 0 0)
(1.5548298 0 0)
(1.5312963 0 0)
(1.5084221 0 0)
(1.4871315 0 0)
(1.4685749 0 0)
(1.4540458 0 0)
(1.4454899 0 0)
(1.1213662 0 0)
(1.0672143 0 0)
(1.0100765 0 0)
(0.94977785 0 0)
(0.88595876 0 0)
(0.81819818 0 0)
(0.74602326 0 0)
(0.66891357 0 0)
(0.58629195 0 0)
(0.49748668 0 0)
(0.40178901 0 0)
(0.29756537 0 0)
(0.18473884 0 0)
(0.063822456 0 0)
(1.1727993 0 0)
(1.2219004 0 0)
(1.2688769 0 0)
(1.3139077 0 0)
(1.3571462 0 0)
(1.3987174 0 0)
(1.4387205 0 0)
(1.4772383 0 0)
(1.5143894 0 0)
(1.5465947 0 0)
(1.5734763 0 0)
(1.5983179 0 0)
(1.6210719 0 0)
(1.6417019 0 0)
(1.660151 0 0)
(1.6763484 0 0)
(1.6902059 0 0)
(1.7016217 0 0)
(1.7104931 0 0)
(1.7167199 0 0)
(1.7202003 0 0)
(1.7208369 0 0)
(1.718566 0 0)
(1.7133657 0 0)
(1.7052619 0 0)
(1.6943263 0 0)
(1.6806841 0 0)
(1.6645142 0 0)
(1.6460514 0 0)
(1.6256022 0 0)
(1.6035228 0 0)
(1.5802215 0 0)
(1.556255 0 0)
(1.5322367 0 0)
(1.5089478 0 0)
(1.4873073 0 0)
(1.4682303 0 0)
(1.4534893 0 0)
(1.4448115 0 0)
(1.1723799 0 0)
(1.1213784 0 0)
(1.0676375 0 0)
(1.0110127 0 0)
(0.95117165 0 0)
(0.88774385 0 0)
(0.82029516 0 0)
(0.74833999 0 0)
(0.6713461 0 0)
(0.58872492 0 0)
(0.49981138 0 0)
(0.4027274 0 0)
(0.29736659 0 0)
(0.18460227 0 0)
(0.063766153 0 0)
(1.220887 0 0)
(1.2672632 0 0)
(1.311696 0 0)
(1.3543481 0 0)
(1.3953534 0 0)
(1.434819 0 0)
(1.4728349 0 0)
(1.5094736 0 0)
(1.5448386 0 0)
(1.5753058 0 0)
(1.6005049 0 0)
(1.6237341 0 0)
(1.6449277 0 0)
(1.6640389 0 0)
(1.681008 0 0)
(1.6957556 0 0)
(1.7081867 0 0)
(1.7181999 0 0)
(1.7256932 0 0)
(1.7305641 0 0)
(1.7327057 0 0)
(1.7320308 0 0)
(1.7284868 0 0)
(1.7220657 0 0)
(1.7128008 0 0)
(1.7007768 0 0)
(1.6861221 0 0)
(1.6690246 0 0)
(1.6497176 0 0)
(1.6285125 0 0)
(1.6057556 0 0)
(1.581857 0 0)
(1.5573759 0 0)
(1.5329119 0 0)
(1.5092439 0 0)
(1.4868921 0 0)
(1.467511 0 0)
(1.4527324 0 0)
(1.4439162 0 0)
(1.220461 0 0)
(1.1723924 0 0)
(1.1218133 0 0)
(1.0686068 0 0)
(1.0124671 0 0)
(0.95305146 0 0)
(0.88997697 0 0)
(0.82279698 0 0)
(0.75101457 0 0)
(0.67408586 0 0)
(0.59143372 0 0)
(0.50093774 0 0)
(0.40246152 0 0)
(0.29714997 0 0)
(0.18444408 0 0)
(0.063700887 0 0)
(1.2662361 0 0)
(1.3100656 0 0)
(1.3521199 0 0)
(1.3925423 0 0)
(1.4314482 0 0)
(1.4689352 0 0)
(1.5050821 0 0)
(1.5399448 0 0)
(1.5736159 0 0)
(1.6024401 0 0)
(1.6260482 0 0)
(1.6477409 0 0)
(1.667441 0 0)
(1.6850995 0 0)
(1.7006495 0 0)
(1.7140031 0 0)
(1.7250621 0 0)
(1.7337245 0 0)
(1.7398876 0 0)
(1.7434448 0 0)
(1.7442958 0 0)
(1.7423603 0 0)
(1.737598 0 0)
(1.73001 0 0)
(1.7196435 0 0)
(1.7065881 0 0)
(1.6909814 0 0)
(1.6730123 0 0)
(1.652918 0 0)
(1.6310026 0 0)
(1.6076183 0 0)
(1.5831736 0 0)
(1.5582186 0 0)
(1.5333466 0 0)
(1.5087537 0 0)
(1.4859606 0 0)
(1.4666136 0 0)
(1.4517705 0 0)
(1.442802 0 0)
(1.2658051 0 0)
(1.220474 0 0)
(1.172837 0 0)
(1.1228107 0 0)
(1.070113 0 0)
(1.0144288 0 0)
(0.95540317 0 0)
(0.89264148 0 0)
(0.82568536 0 0)
(0.7540265 0 0)
(0.67713667 0 0)
(0.59272619 0 0)
(0.50060856 0 0)
(0.40217066 0 0)
(0.29689939 0 0)
(0.18426117 0 0)
(0.063625813 0 0)
(1.3090285 0 0)
(1.3504779 0 0)
(1.3903044 0 0)
(1.4286322 0 0)
(1.4655667 0 0)
(1.5011935 0 0)
(1.5355752 0 0)
(1.5687557 0 0)
(1.600824 0 0)
(1.6280934 0 0)
(1.650188 0 0)
(1.6704106 0 0)
(1.6886831 0 0)
(1.7049508 0 0)
(1.7191357 0 0)
(1.7311473 0 0)
(1.7408853 0 0)
(1.7482449 0 0)
(1.7531235 0 0)
(1.7554158 0 0)
(1.7550207 0 0)
(1.7518725 0 0)
(1.745942 0 0)
(1.7372437 0 0)
(1.7258305 0 0)
(1.711803 0 0)
(1.6952995 0 0)
(1.6765159 0 0)
(1.6556791 0 0)
(1.6331054 0 0)
(1.6091462 0 0)
(1.5841981 0 0)
(1.5588087 0 0)
(1.5327838 0 0)
(1.5075791 0 0)
(1.4848796 0 0)
(1.465532 0 0)
(1.4506006 0 0)
(1.4414663 0 0)
(1.3085944 0 0)
(1.2658186 0 0)
(1.2209262 0 0)
(1.1738575 0 0)
(1.1243609 0 0)
(1.0721451 0 0)
(1.0168835 0 0)
(0.95820961 0 0)
(0.89571773 0 0)
(0.82893838 0 0)
(0.75738175 0 0)
(0.67857438 0 0)
(0.59233563 0 0)
(0.50024771 0 0)
(0.40183448 0 0)
(0.29661006 0 0)
(0.18405032 0 0)
(0.063539508 0 0)
(1.3494341 0 0)
(1.3886559 0 0)
(1.426391 0 0)
(1.4627532 0 0)
(1.4978355 0 0)
(1.5317068 0 0)
(1.5644178 0 0)
(1.5960079 0 0)
(1.6265589 0 0)
(1.6523491 0 0)
(1.6729955 0 0)
(1.6918128 0 0)
(1.7087211 0 0)
(1.7236526 0 0)
(1.7365249 0 0)
(1.7472438 0 0)
(1.7557065 0 0)
(1.7618092 0 0)
(1.7654462 0 0)
(1.7665115 0 0)
(1.7649178 0 0)
(1.7606066 0 0)
(1.7535618 0 0)
(1.7438059 0 0)
(1.7314036 0 0)
(1.7164585 0 0)
(1.6991151 0 0)
(1.6795608 0 0)
(1.6580346 0 0)
(1.6348563 0 0)
(1.6103666 0 0)
(1.584957 0 0)
(1.5581813 0 0)
(1.5313511 0 0)
(1.5062876 0 0)
(1.4836419 0 0)
(1.4642626 0 0)
(1.4492191 0 0)
(1.4399076 0 0)
(1.3489985 0 0)
(1.3086085 0 0)
(1.2662764 0 0)
(1.2219654 0 0)
(1.1754443 0 0)
(1.1264527 0 0)
(1.074688 0 0)
(1.0198128 0 0)
(0.96144986 0 0)
(0.89918294 0 0)
(0.83256285 0 0)
(0.75894514 0 0)
(0.67812448 0 0)
(0.59190747 0 0)
(0.49983052 0 0)
(0.4014457 0 0)
(0.29627652 0 0)
(0.18380805 0 0)
(0.063440525 0 0)
(1.3876088 0 0)
(1.4247407 0 0)
(1.4605147 0 0)
(1.4950315 0 0)
(1.5283672 0 0)
(1.5605786 0 0)
(1.591711 0 0)
(1.6217954 0 0)
(1.650906 0 0)
(1.6752795 0 0)
(1.6945385 0 0)
(1.7120164 0 0)
(1.7276141 0 0)
(1.74126 0 0)
(1.7528697 0 0)
(1.762342 0 0)
(1.7695732 0 0)
(1.7744602 0 0)
(1.7768971 0 0)
(1.7767819 0 0)
(1.7740323 0 0)
(1.768606 0 0)
(1.7604964 0 0)
(1.7497383 0 0)
(1.7364 0 0)
(1.7205936 0 0)
(1.7024528 0 0)
(1.6821813 0 0)
(1.6600212 0 0)
(1.6362841 0 0)
(1.6113069 0 0)
(1.5842762 0 0)
(1.5564886 0 0)
(1.5298369 0 0)
(1.5048712 0 0)
(1.482243 0 0)
(1.4628014 0 0)
(1.4476242 0 0)
(1.4381233 0 0)
(1.3871732 0 0)
(1.3490128 0 0)
(1.3090704 0 0)
(1.2673305 0 0)
(1.2235823 0 0)
(1.1775858 0 0)
(1.1290705 0 0)
(1.0777231 0 0)
(1.0231956 0 0)
(0.96510027 0 0)
(0.90304401 0 0)
(0.8342347 0 0)
(0.75843663 0 0)
(0.67763076 0 0)
(0.59141155 0 0)
(0.49934773 0 0)
(0.40099776 0 0)
(0.29589325 0 0)
(0.18352988 0 0)
(0.063327003 0 0)
(1.4236935 0 0)
(1.4588673 0 0)
(1.4928012 0 0)
(1.5255791 0 0)
(1.5572649 0 0)
(1.5879095 0 0)
(1.6175485 0 0)
(1.6462011 0 0)
(1.6739249 0 0)
(1.6969386 0 0)
(1.7148888 0 0)
(1.7310804 0 0)
(1.7454172 0 0)
(1.7578285 0 0)
(1.7682189 0 0)
(1.7764875 0 0)
(1.7825289 0 0)
(1.78624 0 0)
(1.7875152 0 0)
(1.7862567 0 0)
(1.7823988 0 0)
(1.7759066 0 0)
(1.7667857 0 0)
(1.7550768 0 0)
(1.7408583 0 0)
(1.7242321 0 0)
(1.7053475 0 0)
(1.6844154 0 0)
(1.6616682 0 0)
(1.6374168 0 0)
(1.6105859 0 0)
(1.5823301 0 0)
(1.5547505 0 0)
(1.5282316 0 0)
(1.5033248 0 0)
(1.4806796 0 0)
(1.4611462 0 0)
(1.4458129 0 0)
(1.4361124 0 0)
(1.4232591 0 0)
(1.3871879 0 0)
(1.3494772 0 0)
(1.3101354 0 0)
(1.2689707 0 0)
(1.2257643 0 0)
(1.1802663 0 0)
(1.1321953 0 0)
(1.0812279 0 0)
(1.0270062 0 0)
(0.96916842 0 0)
(0.90480799 0 0)
(0.83366748 0 0)
(0.75787672 0 0)
(0.67705891 0 0)
(0.5908385 0 0)
(0.49879137 0 0)
(0.40048244 0 0)
(0.29545303 0 0)