/*--------------------------------*- C++ -*----------------------------------*\
| =========                 |                                                 |
| \\      /  F ield         | OpenFOAM: The Open Source CFD Toolbox           |
|  \\    /   O peration     | Version:  v2012                                 |
|   \\  /    A nd           | Website:  www.openfoam.com                      |
|    \\/     M anipulation  |                                                 |
\*---------------------------------------------------------------------------*/
FoamFile
{
    version     2.0;
    format      ascii;
    class       surfaceScalarField;
    location    "115.351227390527441";
    object      meshPhi;
}
// * * * * * * * * * * * * * * * * * * * * * * * * * * * * * * * * * * * * * //

dimensions      [0 3 -1 0 0 0 0];
oriented        oriented;


internalField   nonuniform List<scalar> 
18180
(
0
-0.0027696359
0
-0.0025963884
-7.1223118e-14
-0.0055056658
-7.3610879e-14
-0.0023906482
0
-0.0050809594
2.2394983e-18
-0.0080580096
3.6772238e-14
-0.002171088
7.1139552e-14
-0.0046115137
0
-0.0073883116
0
-0.010384574
3.6735543e-14
-0.0019672098
0
-0.0041467956
-6.8787812e-14
-0.0066732507
0
-0.0095509573
0
-0.01257003
0
-0.0018050432
-3.5507262e-14
-0.0037721348
-1.0018752e-18
-0.0060189274
-6.6516098e-14
-0.008671582
0
-0.011600395
0
-0.014569934
-3.6660348e-14
-0.0016830852
0
-0.0034884536
6.8678978e-14
-0.0054923492
0
-0.0078617718
1.9696358e-18
-0.01060703
0
-0.013510238
-6.0191889e-14
-0.016426261
0
-0.0015846854
3.5443305e-14
-0.0032657372
-3.431054e-14
-0.0050937262
3.3208959e-14
-0.0072011287
0
-0.0096860883
6.2195228e-14
-0.012443282
0
-0.015276828
-5.8198408e-14
-0.018100905
0
-0.0015034624
0
-0.003085463
-3.4280263e-14
-0.0047879682
-3.3181914e-14
-0.0066930694
-6.4226961e-14
-0.0089177102
0
-0.011452831
0
-0.014147332
0
-0.016877072
-5.6268866e-14
-0.019628466
0
-0.0014328514
0
-0.0029301623
-3.4251893e-14
-0.0045376311
-3.3153948e-14
-0.0063009519
0
-0.0083110928
3.1053744e-14
-0.010605339
0
-0.01310005
0
-0.01569341
0
-0.018323445
-5.4401035e-14
-0.020989406
0
-0.0013693036
0
-0.0027899013
0
-0.0043183102
-3.3128767e-14
-0.0059791511
-3.2062444e-14
-0.0078239684
3.10288e-14
-0.0099087082
-3.0026027e-14
-0.012192881
-2.9053026e-14
-0.014597686
1.4233846e-18
-0.01708044
0
-0.019617598
0
-0.022219834
0
-0.0013102871
0
-0.002659052
0
-0.0041160318
0
-0.0056968755
0
-0.007420494
0
-0.0093370676
-9.481509e-19
-0.011428665
8.4440529e-19
-0.013635395
2.8089506e-14
-0.015933726
0
-0.018319544
0
-0.020775303
-5.0842001e-14
-0.023305181
1.82405e-14
-0.0012545935
0
-0.0025347115
0
-0.0039235864
0
-0.0054368373
0
-0.0070686291
0
-0.0088491301
-5.9959682e-14
-0.010774408
0
-0.012804343
-2.8068664e-14
-0.014918277
0
-0.017120674
0
-0.019416096
0
-0.021798784
0
-0.024278657
0
-0.001201196
-5.7748282e-19
-0.0024149273
0
-0.0037380965
0
-0.0051889413
0
-0.0067440966
0
-0.0084150037
0
-0.010198734
0
-0.012071941
-7.5669559e-19
-0.014022961
5.4274038e-14
-0.016049794
5.2506748e-14
-0.018162187
0
-0.020381702
0
-0.022704
0
-0.025133473
6.5779122e-19
-0.0011496805
-1.763206e-14
-0.0022986737
-1.7068256e-14
-0.0035579131
0
-0.0049499067
0
-0.0064371712
0
-0.0080180995
0
-0.0096831174
0
-0.011414519
2.80254e-14
-0.013220587
0
-0.015098265
0
-0.017038939
0
-0.019071082
4.9098857e-14
-0.021224519
0
-0.023500338
0
-0.025896664
0
-0.0010997923
-1.7624046e-14
-0.002185337
-1.7058897e-14
-0.0033821582
-1.6510325e-14
-0.0047182656
0
-0.0061424631
-3.0917931e-14
-0.0076459098
0
-0.0092135524
0
-0.010821889
0
-0.012492089
0
-0.014235721
2.6211509e-14
-0.016033127
2.5358731e-14
-0.017892303
-2.4531643e-14
-0.019855434
0
-0.021960114
0
-0.024199043
-4.4378673e-14
-0.026563159
1.8204455e-14
-0.001051167
-1.7615782e-14
-0.0020750381
-1.7051009e-14
-0.0032104562
5.9450922e-19
-0.0044930903
1.5967791e-14
-0.0058578941
0
-0.0072905653
0
-0.0087767729
-2.8923182e-14
-0.010281399
0
-0.011823571
0
-0.013443373
0
-0.015120761
2.5337033e-14
-0.016835302
4.1971888e-19
-0.018620927
0
-0.020528566
0
-0.022592524
0
-0.024807845
-4.2889575e-14
-0.027157993
1.819769e-14
-0.0010034456
0
-0.0019675823
0
-0.0030430084
1.649478e-14
-0.0042741974
-1.5960008e-14
-0.005582384
-5.439219e-19
-0.0069487214
0
-0.0083631371
0
-0.0097814042
0
-0.011211912
0
-0.012712787
0
-0.01427937
-2.5315414e-14
-0.015873372
2.4490219e-14
-0.017510098
0
-0.019233441
-2.2917142e-14
-0.021095752
0
-0.02313544
0
-0.025338616
0
-0.027679944
-1.8191723e-14
-0.0009565424
0
-0.0018630957
-1.7037706e-14
-0.0028802756
1.6488207e-14
-0.0040617614
1.5953604e-14
-0.0053158356
0
-0.0066186604
1.4930946e-14
-0.0079669044
0
-0.0093118996
0
-0.010647546
0
-0.012032623
0
-0.013491088
-2.529395e-14
-0.014983154
4.0846469e-19
-0.016495866
0
-0.018065363
2.838213e-19
-0.019737951
0
-0.021569484
0
-0.023596332
0
-0.02580202
0
-0.028148013
0
-0.00091052587
0
-0.0017617194
-5.9649241e-19
-0.0027225964
1.6482361e-14
-0.0038560918
1.5946746e-14
-0.0050580516
-1.5427377e-14
-0.0062994012
1.4924137e-14
-0.0075854078
1.4435513e-14
-0.0088644979
0
-0.010118318
0
-0.011399663
0
-0.012749743
0
-0.014143864
0
-0.015553637
4.7298187e-14
-0.016996015
2.2876559e-14
-0.018509995
2.2369548e-19
-0.020143947
0
-0.021959149
0
-0.023989349
0
-0.02620636
0
-0.028561082
1.8181867e-14
-0.00086531699
-1.7592917e-14
-0.0016638533
-1.7027868e-14
-0.0025702626
-1.647718e-14
-0.0036570349
6.2322311e-19
-0.0048088548
-1.5421335e-14
-0.0059903638
2.9834562e-14
-0.0072170082
0
-0.008435756
-3.7255057e-19
-0.0096177981
0
-0.010809114
-2.6108866e-14
-0.012055
0
-0.013348824
0
-0.014664281
-2.3627568e-14
-0.015999835
-2.285503e-14
-0.017382441
2.2108149e-14
-0.018852199
-2.1385138e-14
-0.020463214
0
-0.022276446
0
-0.024319647
0
-0.026559907
0
-0.028936528
-1.8177086e-14
-0.00082088836
0
-0.001569626
0
-0.0024236526
-1.6471937e-14
-0.0034646196
-6.369341e-19
-0.0045679104
5.7422621e-19
-0.0056913702
-1.4911102e-14
-0.0068609574
-1.4421277e-14
-0.008023602
2.7896364e-14
-0.0091404836
-3.1203172e-19
-0.010253124
0
-0.011405889
0
-0.012601152
-2.4406143e-14
-0.013821261
0
-0.015058825
2.2290712e-19
-0.016330645
-2.2086647e-14
-0.017664791
2.13644e-14
-0.019104189
0
-0.020704888
0
-0.022529122
0
-0.024599018
0
-0.026871092
0
-0.029274293
-9.0875323e-15
-0.0007772281
0
-0.0014791369
0
-0.0022832908
1.6468578e-14
-0.0032788947
0
-0.004335145
-1.5411754e-14
-0.0054024547
0
-0.0065166757
-2.8832205e-14
-0.0076265643
1.3941654e-14
-0.0086836748
0
-0.0097262064
0
-0.010797583
0
-0.011901905
0
-0.013027755
-2.3585987e-14
-0.014171079
0
-0.015340551
0
-0.016556432
-2.1342951e-14
-0.017852866
0
-0.019273937
8.2011746e-20
-0.020879485
-1.9312806e-14
-0.022728228
3.7352504e-14
-0.024834413
0
-0.027148004
2.6163151e-19
-0.029586432
0
-0.00073442494
8.791028e-15
-0.0013924187
0
-0.0021493433
0
-0.0031001368
0
-0.0041103993
1.5407535e-14
-0.0051232191
0
-0.0061839902
0
-0.0072435699
0
-0.0082450309
1.347569e-14
-0.0092246628
2.6171741e-19
-0.010225164
-1.2600246e-14
-0.011248577
0
-0.012285764
0
-0.013338921
-2.2791946e-14
-0.014410536
0
-0.015514664
0
-0.016685964
-2.0623237e-14
-0.017955895
-4.0491698e-20
-0.019372986
1.9294197e-14
-0.020996664
0
-0.022882809
0
-0.025035621
0
-0.027395947
2.3931862e-19
-0.029871923
9.0838925e-15
-0.00069271009
-8.7896544e-15
-0.0013096027
0
-0.0020218421
0
-0.0029282946
0
-0.0038934697
5.9009781e-19
-0.0048535023
0
-0.0058623801
-1.440645e-14
-0.0068740125
1.3930539e-14
-0.0078233312
0
-0.0087458342
2.5786395e-19
-0.009683979
1.2593034e-14
-0.010636749
1.2176455e-14
-0.011592854
0
-0.012559066
0
-0.013541571
2.2023378e-14
-0.014543734
0
-0.01559334
0
-0.016727353
-1.9926745e-14
-0.017983639
1.9273965e-14
-0.01941046
3.7283514e-14
-0.021067501
-1.8028545e-14
-0.023001497
-3.4865648e-14
-0.025207207
0
-0.027620212
0
-0.030141644
-3.8706517e-19
-0.00065227119
-8.7884575e-15
-0.0012307493
-1.7010754e-14
-0.0019008233
-3.6170311e-19
-0.0027632906
0
-0.0036842204
0
-0.0045931067
0
-0.0055515661
0
-0.0065174517
0
-0.0074174766
1.3464476e-14
-0.0082872109
0
-0.0091704989
0
-0.010061985
1.2169065e-14
-0.010945615
0
-0.01182937
0
-0.012727771
0
-0.01364192
0
-0.014578891
0
-0.015579045
0
-0.016690508
0
-0.017946152
0
-0.019398303
-3.6021055e-14
-0.021099788
1.7417475e-14
-0.023090905
-3.3682539e-14
-0.02535634
0
-0.027825853
0
-0.030394766
-9.0817112e-15
-0.00061321287
8.7874159e-15
-0.0011558346
0
-0.001786255
8.2280705e-15
-0.0026050594
0
-0.0034824116
0
-0.0043422212
0
-0.0052513489
-1.4398196e-14
-0.0061732429
-1.3921348e-14
-0.0070267662
1.3459457e-14
-0.0078473344
0
-0.0086813292
0
-0.009519712
-1.2162026e-14
-0.010340169
0
-0.011148683
-1.1368661e-14
-0.011964943
0
-0.012798843
0
-0.013643921
0
-0.014519793
1.9883824e-14
-0.015484628
0
-0.016583548
-8.82361e-20
-0.017854385
0
-0.01934425
3.4799652e-14
-0.021102225
-1.6826332e-14
-0.023158495
0
-0.025487929
0
-0.028017395
-3.0395647e-14
-0.030638462
0
-0.00057561526
2.9843825e-19
-0.0010846834
-3.0963403e-19
-0.0016779214
0
-0.002453693
-7.9583933e-15
-0.0032879383
7.6972856e-15
-0.0041006566
0
-0.0049619383
0
-0.0058411517
-1.3917687e-14
-0.0066505335
0
-0.0074250277
1.3007579e-14
-0.008214372
0
-0.0090061725
1.21558e-14
-0.0097715907
-1.1751333e-14
-0.010513992
-1.1360829e-14
-0.0112536
-1.5372319e-20
-0.012008507
0
-0.012776376
-2.0539429e-14
-0.013552104
0
-0.014375101
0
-0.015314768
0
-0.016418834
0
-0.017717082
0
-0.019258221
-3.7980551e-20
-0.021082096
-1.6254454e-14
-0.023210343
0
-0.025607118
0
-0.028198053
0
-0.030871033
0
-0.00053950466
0
-0.0010173351
0
-0.0015755931
-8.2265137e-15
-0.0023091793
-1.5915173e-14
-0.0031008865
0
-0.0038685095
7.4424083e-15
-0.0046835082
0
-0.0055210621
0
-0.0062884367
0
-0.007019667
0
-0.007768032
0
-0.0085183837
0
-0.0092355287
1.1744968e-14
-0.0099205543
-1.1353663e-14
-0.010591703
-1.0975992e-14
-0.011270177
0
-0.011963692
0
-0.012659812
0
-0.013367616
0
-0.014151339
0
-0.015083709
-1.7949043e-14
-0.016203338
0
-0.017544293
0
-0.019147679
-1.6237676e-14
-0.021046807
0
-0.023251603
3.0359777e-14
-0.025717198
0
-0.028370151
-2.8355133e-14
-0.031099514
0
-0.00050443502
0
-0.00095391691
0
-0.0014790365
3.7864113e-19
-0.0021714815
-3.6414303e-19
-0.0029214073
7.6952338e-15
-0.0036457288
2.838888e-19
-0.0044161212
7.1948532e-15
-0.0052130933
0
-0.0059402033
0
-0.0066303067
2.5474584e-19
-0.0073410213
1.2565218e-14
-0.0080544408
0
-0.008728567
-1.173923e-14
-0.0093636269
0
-0.0099756379
-1.1105291e-20
-0.010583798
-4.2415847e-20
-0.011203235
0
-0.011827683
0
-0.012448752
0
-0.013101674
-3.7074638e-14
-0.013860832
0
-0.014797073
0
-0.01594932
0
-0.017344109
1.6219261e-14
-0.019021111
-5.2923402e-20
-0.0210017
0
-0.023286113
7.5398807e-20
-0.025821521
0
-0.0285379
0
-0.031322737
-2.3071957e-06
-0.00055193152
-8.785383e-15
-0.00089350964
0
-0.001388156
0
-0.0020403468
7.9561694e-15
-0.0027493662
-1.538941e-14
-0.0034323166
-7.4406732e-15
-0.0041596056
7.1940369e-15
-0.0049171376
6.9543865e-15
-0.0056056843
1.3445715e-14
-0.0062566585
0
-0.0069322042
0
-0.0076124049
-1.2140708e-14
-0.00824805
0
-0.0088393701
1.9618073e-20
-0.0094007665
0
-0.0099472644
-5.6234891e-20
-0.01049659
0
-0.011051265
9.9028548e-15
-0.011599713
0
-0.012153138
0
-0.012763513
0
-0.013512409
0
-0.014468053
1.6749757e-14
-0.015663127
1.619955e-14
-0.01712566
-1.5666894e-14
-0.018884313
0
-0.020951703
1.4648751e-14
-0.023318386
0
-0.025924336
0
-0.028703412
-2.6446515e-14
-0.031546617
-3.8649088e-06
-0.00054862026
-6.1836753e-06
-0.00097273673
0
-0.0013021986
0
-0.0019155412
0
-0.0025845735
-7.6933773e-15
-0.0032279671
7.4395698e-15
-0.0039140852
7.1931006e-15
-0.004633221
-2.0860861e-14
-0.0052849495
6.7214585e-15
-0.0058983892
0
-0.0065407575
0
-0.0071907772
1.2136879e-14
-0.0077915814
0
-0.0083441578
1.1335991e-14
-0.008862606
-1.0955966e-14
-0.0093565899
0
-0.0098428939
-1.0224388e-19
-0.010329257
9.8944566e-15
-0.010808773
1.6485689e-19
-0.011284564
0
-0.011781975
0
-0.012364367
-1.7297675e-14
-0.013115748
0
-0.014102525
0
-0.015356024
0
-0.016895364
1.189655e-19
-0.018743392
-2.9266896e-14
-0.020901615
1.4148301e-14
-0.023351636
0
-0.026027837
0
-0.02887196
0
-0.031769574
-4.7631689e-06
-0.00054504974
-1.0382319e-05
-0.00097282163
-9.3974695e-06
-0.001409318
0
-0.0017966032
0
-0.0024269417
0
-0.0030326121
7.439144e-15
-0.0036794958
-2.6588924e-19
-0.00436147
0
-0.0049778961
0
-0.0055554223
-6.4954793e-15
-0.0061661437
1.2554919e-14
-0.006788147
-1.2133368e-14
-0.0073570675
0
-0.0078750286
0
-0.0083568385
0
-0.0088068012
-1.0583041e-14
-0.0092386991
-1.0228531e-14
-0.0096619853
-1.5095795e-19
-0.010075194
-9.557206e-15
-0.010483262
-9.2394771e-15
-0.010895266
0
-0.011346462
0
-0.011911726
1.6707972e-14
-0.01267992
0
-0.013711783
0
-0.015033789
-1.5114394e-14
-0.016660845
1.1777798e-19
-0.018603587
0
-0.020854882
0
-0.02338909
-2.6416051e-14
-0.02613636
0
-0.029043687
0
-0.031996513
-5.0917136e-06
-0.00054164425
-1.282622e-05
-0.00097224111
-1.5822462e-05
-0.0014162916
-1.2799541e-05
-0.0019290717
0
-0.0022759243
0
-0.0028462318
0
-0.0034557902
2.6852247e-19
-0.0041018417
-1.9111358e-19
-0.004684333
-6.7194019e-15
-0.0052273799
0
-0.0058078155
6.2761366e-15
-0.00640366
-1.2130272e-14
-0.0069429643
0
-0.0074294661
-1.1327047e-14
-0.0078798184
0
-0.0082930616
-1.0577362e-14
-0.0086792247
0
-0.0090482406
-1.6577865e-19
-0.0094001579
-9.5492989e-15
-0.0097441046
0
-0.010087263
-8.9241742e-15
-0.010439556
0
-0.01085275
0
-0.011416777
1.6138203e-14
-0.012213061
0
-0.013302539
0
-0.014706316
0
-0.016427864
-1.4117122e-14
-0.018469267
-1.365018e-14
-0.020815006
-5.0438403e-21
-0.023432169
-2.5510056e-14
-0.026251608
0
-0.029222066
2.3813692e-14
-0.032224801
-4.9400801e-06
-0.00053844651
-1.3743771e-05
-0.00097173384
-1.9601269e-05
-0.0014221413
-2.1575521e-05
-0.0019431969
-1.6214119e-05
-0.0024252195
0
-0.0026678374
0
-0.0032427397
0
-0.0038541136
1.9115677e-19
-0.0044039502
6.7185678e-15
-0.0049141831
0
-0.0054654153
6.2750976e-15
-0.0060364807
-6.0637754e-15
-0.0065480653
0
-0.0070056977
0
-0.0074287434
0
-0.0078111126
1.0572446e-14
-0.0081592085
0
-0.008482899
0
-0.0087808464
0
-0.0090641385
-9.2230206e-15
-0.0093457202
0
-0.0096221061
8.6195885e-15
-0.0099176753
0
-0.010310874
0
-0.010885777
0
-0.011724376
0
-0.012883835
0
-0.014378936
1.4099526e-14
-0.016202031
-1.3634323e-14
-0.018344071
-4.1926535e-20
-0.020783115
0
-0.02348531
1.0306915e-19
-0.026376606
0
-0.029406287
2.2993586e-14
-0.032455937
-4.3958565e-06
-0.00053549393
-1.3366568e-05
-0.00097130202
-2.1060218e-05
-0.0014275046
-2.6749433e-05
-0.0019551947
-2.7325525e-05
-0.0024484023
-1.8973497e-05
-0.0028217149
0
-0.0030394597
-7.1904244e-15
-0.0036178927
0
-0.0041365153
1.3264367e-19
-0.0046155119
-6.492518e-15
-0.0051386205
0
-0.0056858805
0
-0.006171412
-2.5046571e-20
-0.0066021884
0
-0.0070012225
0
-0.0073577529
0
-0.0076739628
1.0211281e-14
-0.0079604756
0
-0.0082132821
9.5351328e-15
-0.0084411993
9.2156024e-15
-0.0086640854
0
-0.008878328
0
-0.0090867659
-8.3246315e-15
-0.0093438352
0
-0.0097301974
0
-0.010329842
1.505496e-14
-0.011220887
0
-0.012463106
0
-0.014059015
0
-0.015987356
-1.3167537e-14
-0.018229981
-1.2730879e-14
-0.020762541
0
-0.023548917
2.3787271e-14
-0.026510692
0
-0.029596873
2.2200771e-14
-0.032686593
-3.5461871e-06
-0.00053283554
-1.1921486e-05
-0.00097090842
-2.0535327e-05
-0.0014323289
-2.8761379e-05
-0.0019656652
-3.3868223e-05
-0.0024677944
-3.1965878e-05
-0.0028548012
-2.1116862e-05
-0.0031927857
0
-0.0033919938
-6.9500406e-15
-0.0038816835
0
-0.0043311847
1.3448044e-19
-0.0048271159
-6.2732084e-15
-0.0053511433
0
-0.0058119998
5.856694e-15
-0.0062176977
5.6585616e-15
-0.0065953656
0
-0.0069299959
0
-0.0072195371
-1.6132666e-19
-0.0074757988
0
-0.007692176
9.5293145e-15
-0.0078724335
9.2085327e-15
-0.0080407945
0
-0.0082008672
8.6022318e-15
-0.0083421207
-8.3157397e-15
-0.0084947123
3.2236206e-19
-0.0087273824
1.5548472e-14
-0.0091218271
0
-0.009755299
1.4540338e-14
-0.010712051
0
-0.012047014
0
-0.013751591
0
-0.015787307
0
-0.018129369
-1.2293985e-14
-0.020753305
0
-0.023623772
0
-0.026653501
2.2191147e-14
-0.029791593
0
-0.032914648
-2.4752893e-06
-0.0005305222
-9.6383031e-06
-0.00097056135
-1.8359122e-05
-0.0014365663
-2.8058714e-05
-0.0019746564
-3.6396471e-05
-0.002484156
-3.9597095e-05
-0.0028818786
-3.5580681e-05
-0.0032384231
-2.2951097e-05
-0.0035398797
0
-0.0036378894
0
-0.0040610205
1.3510659e-19
-0.0045304126
0
-0.0050318016
-6.9856728e-20
-0.0054690955
-5.8555954e-15
-0.0058512042
-4.7098086e-21
-0.0062094378
3.4461871e-20
-0.0065254387
0
-0.0067924534
0
-0.0070241302
0
-0.0072120655
1.9047454e-14
-0.0073532096
-1.8404642e-14
-0.0074731665
0
-0.0075821565
-8.5945578e-15
-0.007667012
8.3070453e-15
-0.0077426705
8.0308756e-15
-0.0078568245
0
-0.0080803942
0
-0.0084924009
0
-0.0091723142
1.4042953e-14
-0.010203522
0
-0.011643242
0
-0.013461176
-1.5296044e-19
-0.0156042
0
-0.018042431
-2.098693e-20
-0.02075587
0
-0.023707498
0
-0.026803622
0
-0.029986951
-2.0693433e-14
-0.03313694
-1.2661418e-06
-0.00052857054
-6.7408453e-06
-0.00097027978
-1.4874583e-05
-0.0014401254
-2.509732e-05
-0.0019821112
-3.5483515e-05
-0.0024975197
-4.2522415e-05
-0.002904013
-4.407182e-05
-0.0032770104
-3.8687038e-05
-0.0036000683
-2.418906e-05
-0.003770609
0
-0.0038037205
0
-0.0042480708
0
-0.0047270114
-6.0597695e-15
-0.0051420766
5.8546567e-15
-0.0055019924
0
-0.005842244
5.4641785e-15
-0.0061419637
0
-0.0063898283
0
-0.0066014652
0
-0.0067676834
0
-0.0068780436
-9.1970007e-15
-0.0069569325
3.223185e-19
-0.0070192394
0
-0.007055232
-1.6599617e-14
-0.0070722178
8.0224628e-15
-0.0070987067
7.7552028e-15
-0.0071859149
-7.4985543e-15
-0.0074099378
0
-0.0078524351
0
-0.0085859854
-4.5499045e-19
-0.0097041706
0
-0.011256192
0
-0.013191335
-1.2264847e-14
-0.01543896
1.1858326e-14
-0.017969559
1.1463302e-14
-0.020768116
0
-0.023800223
0
-0.026957917
0
-0.030181507
1.8451682e-19
-0.033349702
-0.00052696204
0
-3.45429e-06
-0.00097006648
-1.0422535e-05
-0.0014429431
-2.0338745e-05
-0.001987926
-3.1714097e-05
-0.0025078743
-4.1419134e-05
-0.0029214173
-4.7321555e-05
-0.0033092225
-4.7948277e-05
-0.0036519796
-4.0780763e-05
-0.0038428078
-2.4686938e-05
-0.0039172771
0
-0.003979751
0
-0.0044358974
0
-0.0048302907
-5.8538394e-15
-0.0051694536
-5.6551949e-15
-0.0054927765
-5.4630571e-15
-0.005778051
0
-0.006009355
9.1250914e-20
-0.0062044089
0
-0.0063544329
0
-0.0064413413
-9.1919571e-15
-0.0064872596
0
-0.0065106545
8.5813547e-15
-0.0065035203
0
-0.006471798
1.6029607e-14
-0.0064345472
-7.7475074e-15
-0.0064195748
-7.489975e-15
-0.0064879226
0
-0.0067267007
0
-0.0072070924
0
-0.0080054373
0
-0.0092194785
0
-0.010892824
0
-0.012943561
-1.1843891e-14
-0.015291709
1.1450652e-14
-0.017908997
-8.4134755e-21
-0.020790349
-1.0697286e-14
-0.023899522
0
-0.027114699
0
-0.030368495
-1.9285517e-14
-0.033550701
-0.00096987199
0
-0.00052570238
1.2600972e-06
-5.3490744e-06
-0.0014449773
-1.4252993e-05
-0.0019920048
-2.5677994e-05
-0.0025151244
-3.6982186e-05
-0.0029342364
-4.6084327e-05
-0.0033351435
-5.1511947e-05
-0.0036965383
-5.055588e-05
-0.0039051255
-4.1628945e-05
-0.004002467
-2.4907528e-05
-0.0040751629
0
-0.0041580682
0
-0.0045330329
0
-0.0048530162
-5.9549914e-21
-0.0051602423
3.5813277e-20
-0.0054323568
-5.2760428e-15
-0.0056492053
-5.0964302e-15
-0.0058303538
4.9228631e-15
-0.0059684803
0
-0.0060379885
-9.1871107e-15
-0.0060583181
8.8754363e-15
-0.0060508888
0
-0.0060069995
0
-0.0059323396
-8.0073155e-15
-0.0058459171
7.7391796e-15
-0.0057575139
-7.4815061e-15
-0.0057051878
0
-0.0057719725
0
-0.006035807
0
-0.0065652799
0
-0.0074363265
0
-0.0087568165
0
-0.010553065
0
-0.012717682
-1.1436868e-14
-0.015161105
5.0481244e-20
-0.017861378
-1.068714e-14
-0.020821264
4.1657237e-20
-0.024003697
-1.9957511e-14
-0.027268095
0
-0.030547162
0
-0.033735884
-0.0014461886
0
-0.00096968109
3.4475834e-06
-0.00052482939
2.4520881e-06
-7.3141996e-06
-0.0019942992
-1.7977029e-05
-0.0025192044
-2.9913245e-05
-0.0029426585
-4.1133051e-05
-0.0033548474
-5.0192928e-05
-0.0037335229
-5.4333015e-05
-0.0039589323
-5.1619122e-05
-0.0040768389
-4.2032026e-05
-0.0041755905
-2.5127323e-05
-0.0042342859
0
-0.0042492968
5.8525224e-15
-0.0045522153
0
-0.0048438349
-3.5706683e-20
-0.00510372
5.2750665e-15
-0.0053078747
0
-0.005477138
-4.9212759e-15
-0.0056066004
4.7536118e-15
-0.0056637328
0
-0.0056646185
0
-0.005634165
-3.9440631e-19
-0.0055612297
0
-0.0054485531
0
-0.0053196265
0
-0.0051785593
-7.4726505e-15
-0.0050406729
-4.329571e-19
-0.0049698221
0
-0.0050465237
0
-0.0053467618
0
-0.0059324775
0
-0.0068857619
1.2214965e-14
-0.0083173418
0
-0.010238955
0
-0.012512171
0
-0.015045983
0
-0.017824695
1.0318409e-14
-0.020859247
-9.9711272e-15
-0.024109254
0
-0.027416158
0
-0.03071195
0
-0.033905248
-0.001994764
0
-0.0014466293
5.3501746e-06
-0.00096944476
6.7146105e-06
-0.00052437514
3.4972852e-06
-9.2157544e-06
-0.0025201993
-2.0921321e-05
-0.0029468839
-3.3260685e-05
-0.003368513
-4.4825994e-05
-0.0037627925
-5.2965609e-05
-0.0040041422
-5.5487084e-05
-0.0041413536
-5.2150463e-05
-0.0042642672
-4.2435645e-05
-0.0043498064
-2.5043883e-05
-0.0043028897
0
-0.004266234
0
-0.0045429444
0
-0.0047910873
-5.2741518e-15
-0.0049840506
5.0940976e-15
-0.0051430174
4.9199824e-15
-0.0052661124
4.7519349e-15
-0.0053147832
4.5899247e-15
-0.0053013843
0
-0.0052546027
0
-0.0051607155
0
-0.0050166695
0
-0.0048500951
4.578168e-19
-0.0046695642
0
-0.0044717437
7.2165153e-15
-0.0042977898
-2.7904617e-14
-0.0042210225
-6.7449141e-15
-0.0043204477
0
-0.0046645234
0
-0.0053159189
1.2198108e-14
-0.0063565899
1.179576e-14
-0.0079041269
0
-0.0099480838
2.2058759e-14
-0.012325258
0
-0.014944464
0
-0.017798014
5.9222432e-21
-0.020902064
0
-0.024212707
1.8599288e-14
-0.027554816
0
-0.030865099
-1.7346232e-14
-0.034055641
-0.0025181437
0
-0.0019936834
7.3114922e-06
-0.0014461996
1.0425544e-05
-0.00096912017
9.5818173e-06
-0.00052433129
4.3162106e-06
-1.0715323e-05
-0.0029471604
-2.3255022e-05
-0.0033763069
-3.6263734e-05
-0.0037842202
-4.7325162e-05
-0.0040406867
-5.4105016e-05
-0.0041959238
-5.6089304e-05
-0.0043410592
-5.2678634e-05
-0.004451661
-4.230789e-05
-0.0044303133
-2.4465136e-05
-0.0042962288
0
-0.0042571915
0
-0.0044936161
0
-0.0046766561
5.0929463e-15
-0.0048265552
1.1744119e-19
-0.0049447879
9.5013374e-15
-0.0049879969
-4.5883474e-15
-0.0049644319
1.9331242e-19
-0.0049068961
0
-0.0047995622
0
-0.0046317424
7.9888241e-15
-0.0044328988
0
-0.0042174578
-7.4587334e-15
-0.0039751744
7.2085393e-15
-0.0037304393
0
-0.0035383881
6.7360364e-15
-0.0034686845
0
-0.0035986104
0
-0.0039965969
0
-0.0047184298
0
-0.0058523293
0
-0.0075161711
0
-0.0096808818
0
-0.012155006
0
-0.014854477
9.9518122e-15
-0.017778687
8.3184586e-21
-0.020946744
-9.2927877e-15
-0.024312206
1.7954174e-14
-0.027684405
0
-0.031000695
1.6743041e-14
-0.034187676
-0.0029435048
0
-0.002513633
9.1929564e-06
-0.0019910458
1.4241505e-05
-0.0014447117
1.4877734e-05
-0.00096874168
1.1827434e-05
-0.00052477709
4.8319167e-06
-1.190677e-05
-0.003378274
-2.5363062e-05
-0.0037976602
-3.830411e-05
-0.0040683595
-4.8360676e-05
-0.0042405078
-5.4714272e-05
-0.0044058503
-5.6675885e-05
-0.0045395874
-5.2535286e-05
-0.0045425563
-4.1345351e-05
-0.0044337464
-2.3619605e-05
-0.0042646451
5.4595063e-15
-0.0042110644
0
-0.0043848306
0
-0.0045266158
-4.9179777e-15
-0.004640654
1.5727091e-19
-0.0046807504
0
-0.0046503749
-4.4300113e-15
-0.0045864605
2.1237941e-19
-0.0044720286
0
-0.0042881231
0
-0.0040632456
0
-0.0038167958
0
-0.0035399012
7.2020739e-15
-0.0032463278
6.9602196e-15
-0.0029735487
0
-0.0027725543
6.504446e-15
-0.0027168873
0
-0.0028883962
0
-0.0033451684
0
-0.00414439
0
-0.0053736115
0
-0.0071545403
0
-0.0094342295
0
-0.011998725
9.940547e-15
-0.014773879
0
-0.017764991
1.0119221e-20
-0.020992362
0
-0.024405242
0
-0.027800357
0
-0.031120943
0
-0.034298341
-0.0033743718
0
-0.0029367753
1.0671275e-05
-0.0025067441
1.7888592e-05
-0.0019865291
2.0311382e-05
-0.0014421862
1.8358825e-05
-0.00096828566
1.3235152e-05
-0.00052581548
4.9643695e-06
-1.2988033e-05
-0.0038029834
-2.6802725e-05
-0.0040869897
-3.9157604e-05
-0.0042750075
-4.8919761e-05
-0.0044585993
-5.5296855e-05
-0.0046134327
-5.6535753e-05
-0.0046397252
-5.1359614e-05
-0.0045554789
-3.9938405e-05
-0.0044117872
-2.2636232e-05
-0.0041975198
0
-0.0041086572
0
-0.0042423953
0
-0.0043523788
-1.5895454e-19
-0.0043907408
4.5857396e-15
-0.0043564281
0
-0.0042895254
0
-0.0041731174
0
-0.0039798675
0
-0.0037363959
7.7083036e-15
-0.0034658897
7.4465305e-15
-0.0031599235
0
-0.0028288687
5.2816872e-19
-0.0025007096
6.7204069e-15
-0.002206229
0
-0.0020017771
-4.4319278e-19
-0.0019728997
0
-0.0021920257
3.3441418e-19
-0.0027155269
0
-0.003595374
0
-0.0049218718
1.0621036e-14
-0.0068168364
0
-0.0092070617
-9.9284856e-15
-0.011854191
9.5973431e-15
-0.01470012
9.2756983e-15
-0.017755386
1.0411039e-20
-0.021035921
0
-0.024490291
1.6728478e-14
-0.027903098
0
-0.031221772
-1.5597022e-14
-0.034389609
-0.00380017
0
-0.0033656625
1.1848657e-05
-0.0029269132
2.0749556e-05
-0.0024971328
2.5491027e-05
-0.0019801593
2.5047726e-05
-0.0014385887
2.0525354e-05
-0.00096777516
1.3584721e-05
-0.00052741266
4.6320418e-06
-1.3731253e-05
-0.0040964707
-2.7413417e-05
-0.0042992569
-3.9622232e-05
-0.0044992314
-4.9447092e-05
-0.0046731252
-5.5167434e-05
-0.0047214782
-5.5284545e-05
-0.0046612694
-4.9634416e-05
-0.0045426338
-3.8306272e-05
-0.0043532279
-2.1462065e-05
-0.004076376
-5.091325e-15
-0.0039747242
-1.1852036e-19
-0.0040789594
4.7474856e-15
-0.004116448
-1.9838617e-19
-0.0040803964
2.0480575e-19
-0.0040130312
-8.5508696e-15
-0.0038984674
-2.4659896e-19
-0.0037016028
-3.9878248e-15
-0.0034463674
-7.7036405e-15
-0.0031592232
0
-0.0028297994
0
-0.0024665779
0
-0.0020969278
6.71387e-15
-0.001736351
-6.4893492e-15
-0.0014222694
6.2732839e-15
-0.0012309118
-4.3882822e-19
-0.0012389279
0
-0.0015151328
5.6711673e-15
-0.0021094731
0
-0.0030736117
0
-0.0044960215
0
-0.0065025676
0
-0.0089958954
0
-0.011718902
9.2656828e-15
-0.014631951
-8.9545838e-15
-0.017747526
-8.652313e-15
-0.021077096
-3.2131991e-20
-0.024564749
8.2835458e-20
-0.027990323
0
-0.031307044
1.5053111e-14
-0.034459294
-0.0040967331
0
-0.0037907822
1.2922591e-05
-0.0033522938
2.3028807e-05
-0.0029130055
2.9546761e-05
-0.002485006
3.1411786e-05
-0.0019720612
2.7982554e-05
-0.0014338087
2.1034572e-05
-0.00096702514
1.2653838e-05
-0.00052957461
3.7518698e-06
-1.4051639e-05
-0.0043131243
-2.7745551e-05
-0.0045277112
-4.0046679e-05
-0.0047185438
-4.9328362e-05
-0.00478758
-5.3958145e-05
-0.0047505944
-5.3450453e-05
-0.004656441
-4.7631683e-05
-0.0044921502
-3.6346028e-05
-0.0042392645
-2.0123753e-05
-0.003926173
0
-0.0038214462
0
-0.0038566514
0
-0.003820626
-2.0752318e-19
-0.0037545326
2.1864415e-19
-0.0036445059
-4.1274378e-15
-0.003448532
-3.986019e-15
-0.0031874667
-3.8494576e-15
-0.0028911264
7.436423e-15
-0.0025451813
0
-0.0021536506
0
-0.0017482226
0
-0.0013382988
6.4822716e-15
-0.00094534217
-5.3253768e-19
-0.0006323693
-6.0568748e-15
-0.00046675412
-4.2951261e-19
-0.00052189642
0
-0.00086013789
0
-0.0015303836
0
-0.0025788485
0
-0.0040958551
-2.8345005e-19
-0.0062087934
-9.5740401e-15
-0.008799632
0
-0.011591305
-8.9452534e-15
-0.01456688
1.8708406e-20
-0.017740871
6.4074949e-21
-0.021110419
1.6136109e-14
-0.0246281
6.8347574e-20
-0.028063564
0
-0.031372309
0
-0.03450909
-0.0043164569
0
-0.0040897225
1.3674267e-05
-0.0037750598
2.5110246e-05
-0.0033331532
3.2774155e-05
-0.0028950671
3.6382565e-05
-0.0024703617
3.5070371e-05
-0.0019621886
2.8653993e-05
-0.0014277357
1.9552074e-05
-0.00096617366
1.0227436e-05
-0.00053221111
2.2366735e-06
-1.422546e-05
-0.0045439232
-2.8038046e-05
-0.0047495895
-3.9945406e-05
-0.0048378137
-4.825783e-05
-0.0048230496
-5.2189699e-05
-0.0047527256
-5.1320398e-05
-0.004613192
-4.5233785e-05
-0.0043854755
-3.4124254e-05
-0.0040949653
-1.8731214e-05
-0.0037583616
0
-0.0036124107
0
-0.0035758509
0
-0.0035120188
-4.2729664e-15
-0.0034078016
4.1260743e-15
-0.0032165783
-1.1952704e-14
-0.0029546537
-2.7834417e-19
-0.0026554797
0
-0.0023008463
0
-0.0018867952
6.9357458e-15
-0.0014497344
6.7006667e-15
-0.001001926
6.0993406e-19
-0.00054354119
5.884157e-19
-0.00013508692
0
0.00015712599
0
0.00028326215
5.6548134e-15
0.00017519785
0
-0.00023115221
0
-0.00097823118
0
-0.0021118099
0
-0.0037199033
0
-0.0059346059
0
-0.0086157593
0
-0.011470006
-8.6354914e-15
-0.014504468
0
-0.01772988
2.5178212e-21
-0.021136023
7.7873693e-15
-0.024678248
1.5041348e-14
-0.028119831
1.4523191e-14
-0.031420985
0
-0.034536468
-0.0045478855
0
-0.0043114248
1.4011429e-05
-0.0040755026
2.6582203e-05
-0.00375185
3.5726003e-05
-0.0033081016
4.0327349e-05
-0.0028728406
4.0585595e-05
-0.0024531711
3.5895624e-05
-0.0019505378
2.6614357e-05
-0.0014202808
1.5757558e-05
-0.00096522108
6.0811425e-06
-0.00053487238
-9.08004e-15
-1.4371576e-05
-0.0047662569
-2.7960933e-05
-0.0048719741
-3.9082507e-05
-0.0048783032
-4.6689272e-05
-0.0048311011
-5.0129711e-05
-0.0047158034
-4.8768611e-05
-0.0045133501
-4.2511699e-05
-0.0042475091
-3.1802809e-05
-0.0039304382
-1.7240735e-05
-0.0035380749
4.5825216e-15
-0.0033481791
0
-0.0032841439
0
-0.0031861946
-2.5855452e-19
-0.0030018531
0
-0.0027434655
3.8459251e-15
-0.00244687
0
-0.0020908523
3.5875204e-15
-0.0016615568
0
-0.0011973632
0
-0.0007161009
0
-0.00020344586
0
0.00028467295
0
0.00067297796
-5.2410941e-19
0.00093158977
0
0.0010148109
-5.4611335e-15
0.00084715812
5.2800739e-15
0.00037142634
2.8070237e-19
-0.00045495318
0
-0.0016721204
0
-0.0033671908
9.2315472e-15
-0.0056778113
0
-0.008444245
0
-0.011353808
0
-0.014442847
-8.0548839e-15
-0.017714533
-4.6619555e-21
-0.021149337
7.5161457e-15
-0.024714286
0
-0.028160685
0
-0.031449849
0
-0.034543489
-0.0047686413
0
-0.0045421619
1.4190962e-05
-0.0042980912
2.7257144e-05
-0.0040523657
3.7837725e-05
-0.0037213805
4.3946105e-05
-0.0032769216
4.4945708e-05
-0.0028461812
4.1501731e-05
-0.0024332341
3.3328706e-05
-0.0019367537
2.1424874e-05
-0.0014115454
9.3390371e-06
-0.00096361562
0
-0.00048852437
0
-1.4327065e-05
-0.0048900723
-2.7357535e-05
-0.0049161449
-3.782149e-05
-0.00489118
-4.4861226e-05
-0.0047995545
-4.7665024e-05
-0.0046220915
-4.5877644e-05
-0.0043811472
-3.9660308e-05
-0.0040865337
-2.9303997e-05
-0.0037106044
-1.5585467e-05
-0.0032677514