/*--------------------------------*- C++ -*----------------------------------*\
| =========                 |                                                 |
| \\      /  F ield         | OpenFOAM: The Open Source CFD Toolbox           |
|  \\    /   O peration     | Version:  v2012                                 |
|   \\  /    A nd           | Website:  www.openfoam.com                      |
|    \\/     M anipulation  |                                                 |
\*---------------------------------------------------------------------------*/
FoamFile
{
    version     2.0;
    format      ascii;
    class       volScalarField;
    location    "115.351227390527441";
    object      p;
}
// * * * * * * * * * * * * * * * * * * * * * * * * * * * * * * * * * * * * * //

dimensions      [0 2 -2 0 0 0 0];


internalField   nonuniform List<scalar> 
9200
(
0.014962221
0.016570244
0.019995067
0.01733129
0.021565716
0.039334616
0.019885697
0.022296334
0.041379087
0.052914271
0.022822651
0.025090061
0.043409071
0.055128355
0.065947322
0.026625446
0.028440772
0.047625177
0.057379872
0.068199542
0.0770971
0.030883141
0.033255069
0.052588618
0.061755794
0.070626001
0.07924446
0.087055949
0.034299297
0.039524751
0.059063302
0.066886906
0.075067833
0.081666693
0.089051301
0.095890609
0.035778889
0.047856036
0.066722029
0.073337038
0.08022591
0.085885076
0.091394273
0.097711421
0.10381578
0.036320537
0.058218943
0.075473763
0.080767686
0.086490865
0.090733091
0.09531153
0.099923392
0.10545051
0.11096858
0.036131176
0.069867601
0.084844935
0.089110695
0.093485858
0.096463652
0.099774715
0.10348979
0.10752081
0.11239731
0.11740065
0.033845455
0.082529463
0.094494018
0.098122976
0.10103632
0.10271212
0.10492495
0.10752503
0.11073409
0.11433862
0.11870106
0.12325279
0.029443279
0.095592524
0.10413296
0.10748799
0.1088399
0.10928676
0.11042273
0.11207763
0.11435951
0.11721811
0.12050254
0.12444914
0.12863358
0.025048353
0.107191
0.11329775
0.11680974
0.11660253
0.11593947
0.11605872
0.11684807
0.11835916
0.12046729
0.12308914
0.12611238
0.12968353
0.13354737
0.020074223
0.11489283
0.12165546
0.12567117
0.12404219
0.12241616
0.12160567
0.12162275
0.12248052
0.12397366
0.12600669
0.12844294
0.13124738
0.1344684
0.13805503
0.013684507
0.12214064
0.12932806
0.13366611
0.13087003
0.12845681
0.12683495
0.12620582
0.12651049
0.12754105
0.12909781
0.13108714
0.13335715
0.13596812
0.13885961
0.14219822
0.0078055388
0.13031906
0.13608688
0.14052567
0.13684007
0.13383615
0.13155708
0.13042118
0.13029654
0.13094828
0.13220237
0.13383577
0.13578708
0.1378894
0.14031618
0.14289868
0.14600958
0.0020452303
0.13693141
0.14146822
0.14615703
0.14181634
0.1384056
0.13562731
0.13411645
0.13367671
0.13408093
0.1351055
0.13657322
0.13826367
0.14015737
0.14208231
0.14432447
0.14661775
0.14951879
-0.0044008917
0.14150416
0.14488446
0.15044564
0.14571008
0.1420676
0.13895571
0.13720161
0.13656068
0.1368018
0.13771324
0.13907694
0.14072101
0.14242993
0.14423265
0.14596589
0.1480207
0.15004337
0.15275184
-0.01179009
0.14425351
0.14651825
0.15323108
0.1484027
0.14473133
0.14147164
0.13960949
0.13887704
0.13904653
0.1399049
0.14127171
0.14292577
0.14468922
0.14636391
0.14803548
0.14956128
0.1514277
0.153199
0.1557323
-0.018851614
0.14490881
0.14641969
0.15446011
0.14980936
0.14633855
0.14313472
0.14131349
0.1405985
0.1407749
0.14163661
0.14304505
0.14481356
0.1466912
0.14850138
0.15007955
0.15157895
0.15288392
0.15456486
0.15610579
0.15848195
-0.024592284
0.14348573
0.14458594
0.15417935
0.14992397
0.14686275
0.14393093
0.14231267
0.14173289
0.14199348
0.14288987
0.14436127
0.14627139
0.14837624
0.15039252
0.15216357
0.15357932
0.15486954
0.15594581
0.15744954
0.15878346
0.16102127
-0.028345339
0.14016927
0.14105161
0.15247443
0.14878174
0.14630125
0.14386958
0.14263479
0.1423039
0.14273497
0.143691
0.14520722
0.14726029
0.14962418
0.15197998
0.15402993
0.15566768
0.15685759
0.15790973
0.15875737
0.16009801
0.16125086
0.16336976
-0.029704887
0.13510876
0.13592957
0.14947033
0.14644841
0.1446402
0.14299949
0.14232982
0.14238249
0.1430582
0.14409709
0.14561123
0.14775918
0.15038411
0.15313315
0.15562457
0.15758575
0.15899459
0.15990384
0.1607004
0.16132876
0.16252624
0.1635263
0.16554605
-0.028525471
0.12845646
0.12938688
0.14533894
0.14301771
0.14185985
0.14127011
0.14142478
0.14202352
0.14303491
0.14420904
0.14563267
0.14778469
0.1506159
0.15378426
0.1568072
0.15928668
0.16102662
0.16211787
0.16270567
0.16324273
0.16367084
0.16475035
0.16562764
0.16756807
-0.024848032
0.1203728
0.1216301
0.14029501
0.13861584
0.13791096
0.13869941
0.13987649
0.14121748
0.14267307
0.14414273
0.14536155
0.14738209
0.15031193
0.15386736
0.15749349
0.16062508
0.16291991
0.16430757
0.16500785
0.16525153
0.16553975
0.1657958
0.16678685
0.16757242
0.16945292
-0.019119455
0.11101074
0.11288832
0.13457776
0.13340318
0.13272908
0.1352784
0.13770966
0.14033137
0.14220036
0.14407563
0.14489271
0.14661917
0.14948772
0.1533411
0.15759106
0.16150535
0.16453122
0.16645877
0.16737726
0.16763559
0.16753296
0.16759728
0.16771745
0.16865265
0.16937768
0.17121682
-0.012894008
0.10056039
0.10338718
0.12843482
0.1275738
0.12622298
0.13093091
0.13499956
0.13915463
0.14203057
0.14409838
0.14435555
0.14558171
0.14817916
0.15217912
0.15702283
0.16181463
0.16576246
0.1684388
0.16982554
0.17018375
0.16997627
0.16954616
0.16942452
0.16945125
0.17036494
0.1710599
0.17287502
-0.0073824433
0.090429905
0.09355894
0.12209744
0.12137216
0.11825518
0.1255957
0.1316534
0.13740692
0.14209371
0.14377451
0.14381789
0.14437145
0.14644351
0.1503703
0.15571686
0.16144661
0.16649088
0.17015742
0.1722387
0.17293853
0.17267971
0.17201181
0.17129292
0.17103407
0.17101405
0.17194094
0.17263479
0.17444166
-0.0019125263
0.08164256
0.084184864
0.11578738
0.1150659
0.10866335
0.11917774
0.12758288
0.13517196
0.14198964
0.14345072
0.14336122
0.14307279
0.1443483
0.14791806
0.15360663
0.16029103
0.16659351
0.17149452
0.17454443
0.17581152
0.17572016
0.17482668
0.17373248
0.17278091
0.17244169
0.17242376
0.17339763
0.17411711
0.17592972
0.0041593665
0.07281472
0.075686135
0.10969571
0.10900293
0.097200461
0.11156618
0.12272515
0.13232068
0.14158684
0.14376434
0.1431202
0.1417853
0.14196986
0.14483497
0.15062858
0.15823336
0.16593659
0.17232533
0.17663717
0.17875671
0.17903973
0.17810359
0.17659786
0.17513768
0.17402338
0.17366578
0.17369887
0.17475145
0.17552056
0.17735094
0.011649082
0.063768884
0.068133119
0.10390027
0.10314267
0.083636991
0.10259986
0.11698301
0.12871775
0.14101698
0.1447579
0.14320244
0.1405971
0.13938958
0.14114437
0.14671699
0.155152
0.16437536
0.17251008
0.17840425
0.18169292
0.18262497
0.1818181
0.18003751
0.17797968
0.17623575
0.17503857
0.17472673
0.17485803
0.17601805
0.17685764
0.17871574
0.02204321
0.054052006
0.061640775
0.098248155
0.097662079
0.067877127
0.092227294
0.11026034
0.12409139
0.14029234
0.14621992
0.14364787
0.13955948
0.13667634
0.13687565
0.14180145
0.15091083
0.16175166
0.17189429
0.17971569
0.18453027
0.18642605
0.18599309
0.1840612
0.18148889
0.17897202
0.17704333
0.17584878
0.1756462
0.17591953
0.17721204
0.1781396
0.18003333
0.035783568
0.042891974
0.055045247
0.091673138
0.091794879
0.050844348
0.080764332
0.10258782
0.11808843
0.13935997
0.14797245
0.14437065
0.1386733
0.13388059
0.13205794
0.13579888
0.14535571
0.15788585
0.17030663
0.18042536
0.1871599
0.19038309
0.19061449
0.18872968
0.18570811
0.18244396
0.17958754
0.17758412
0.17647928
0.17644635
0.17690095
0.17834683
0.17937638
0.18131183
0.051941132
0.031207852
0.04744163
0.083553057
0.085192003
0.033946425
0.068757196
0.093915795
0.11054429
0.13837976
0.14963738
0.14521368
0.13787201
0.13100111
0.12672157
0.12860725
0.13829955
0.15257764
0.16755093
0.18036931
0.18945547
0.19441475
0.19565668
0.19406667
0.1907353
0.18672444
0.18290768
0.1798502
0.17788744
0.17695726
0.17714922
0.1778188
0.17943451
0.18057667
0.18255796
0.069163812
0.019384196
0.038641154
0.074383566
0.077251595
0.019092908
0.055351967
0.084245609
0.10135599
0.13721158
0.15080035
0.14592587
0.1370209
0.12799612
0.12087729
0.12009984
0.12950693
0.14558499
0.1634077
0.17935881
0.19127245
0.198419
0.201069
0.20008286
0.19663194
0.19194601
0.18710221
0.18290209
0.17979334
0.17798663
0.1773107
0.17777604
0.17868823
0.18048576
0.18174788
0.18377688
0.08614541
0.00682518
0.028839555
0.064326721
0.068185566
0.0038505293
0.041087526
0.072427732
0.090960302
0.13486308
0.15062313
0.14622322
0.13591149
0.12474206
0.11453764
0.11011682
0.1186738
0.13662125
0.15760514
0.17717807
0.19244321
0.20227163
0.20677452
0.20675979
0.2034454
0.19820594
0.19233383
0.18685806
0.18246381
0.17945743
0.17791733
0.17756735
0.17834678
0.17952286
0.18150986
0.18289615
0.18497377
0.10297132
-0.0056692387
0.019201407
0.053696066
0.058353062
-0.0094609666
0.021715738
0.058487492
0.079307958
0.12995286
0.14972192
0.14559416
0.13429247
0.12108512
0.10764477
0.098492025
0.10540389
0.12534092
0.14984706
0.1735518
0.19277785
0.20582159
0.21266605
0.21404558
0.2111899
0.20558704
0.19873183
0.19190496
0.18603017
0.18164102
0.17888766
0.17771603
0.17775388
0.17887971
0.18033465
0.18251465
0.18402655
0.18615412
0.1184682
-0.01597174
0.0093275892
0.042756382
0.048091413
-0.021267379
0.0016326811
0.039432258
0.065611914
0.12373668
0.14729366
0.14352962
0.13172045
0.1167866
0.10017218
0.085019649
0.089175192
0.1113126
0.13978393
0.16816124
0.19204652
0.20889326
0.2186003
0.22184764
0.21983888
0.21413584
0.20641161
0.19819868
0.19069622
0.18467446
0.18049023
0.1781317
0.17741858
0.17789518
0.17939118
0.18113386
0.18350662
0.18514321
0.1873182
0.13158657
-0.02709629
-0.0033470794
0.031712936
0.037427923
-0.032425766
-0.019392628
0.018113083
0.048840314
0.11331217
0.14401336
0.1385362
0.12782135
0.1115875
0.091875354
0.069635942
0.069250436
0.093978011
0.12691668
0.16049215
0.18999847
0.21126914
0.22439798
0.230025
0.22931449
0.22385162
0.21545037
0.20588257
0.19663744
0.18877033
0.18286031
0.17907309
0.17723762
0.17705918
0.17801391
0.17989542
0.18192896
0.18449082
0.18624911
0.18846247
-0.040585344
0.14194516
-0.016067842
0.021096975
0.026269372
-0.042960494
-0.041409138
-0.005210335
0.030505004
0.098603885
0.13582068
0.13179694
0.12155598
0.1054302
0.082808449
0.052139166
0.044722497
0.072589568
0.11083602
0.14979612
0.18628962
0.21270737
0.2298242
0.23838359
0.23947726
0.23467316
0.22587341
0.21506137
0.20401883
0.19411549
0.18621053
0.18066616
0.17745333
0.17625216
0.17666949
0.17813011
0.18040436
0.18272672
0.18547118
0.18734623
0.18959962
-0.027062734
-0.054218097
0.14829469
0.010896121
0.01460524
-0.052669026
-0.063073935
-0.029114247
0.011150289
0.079168331
0.12536616
0.11966512
0.11370868
0.097720228
0.072480578
0.032873023
0.014218086
0.046268351
0.090292792
0.1395438
0.18062314
0.21289401
0.23461253
0.24665985
0.25011721
0.24646518
0.23763819
0.22578522
0.2129677
0.20088868
0.19073003
0.18311486
0.1781754
0.17569431
0.17521942
0.17627797
0.17826079
0.18092762
0.18353249
0.18645097
0.18843644
0.19074874
0.00093326053
-0.039874387
-0.068420444
0.14867414
0.0026253713
-0.060803676
-0.08266
-0.052189148
-0.0083648652
0.055887354
0.1103403
0.10564934
0.10102651
0.089192561
0.060248797
0.010853817
-0.023198787
0.014146398
0.064605761
0.12158694
0.17278934
0.21149744
0.23839745
0.25454127
0.2609429
0.25900793
0.25061827
0.23803147
0.22355589
0.20923279
0.19660205
0.18660093
0.17959052
0.17547267
0.17385683
0.17417965
0.17590919
0.17841993
0.18147299
0.18435064
0.18743264
0.18952135
0.19186368
-0.0093473318
-0.0088390886
-0.056315207
-0.08491052
0.14137338
-0.066673054
-0.099316821
-0.07304479
-0.027435028
0.029949002
0.091272679
0.084658088
0.08770956
0.077643147
0.046361985
-0.011789348
-0.06609602
-0.023294077
0.033518317
0.098591953
0.16139289
0.20809218
0.24081501
0.26160832
0.27159168
0.2719888
0.26459217
0.25168665
0.23577995
0.21923604
0.20397627
0.19130197
0.18186341
0.17574882
0.17264073
0.17199731
0.17316819
0.1755836
0.17861898
0.182047
0.18518439
0.18841664
0.1906001
0.19287752
-0.069898551
-0.020867707
-0.018371691
-0.076128584
-0.10365849
0.1262699
-0.11231135
-0.090613071
-0.045680999
0.0035033269
0.066876348
0.057030049
0.067224973
0.067356989
0.033385734
-0.037511284
-0.10889093
-0.067014679
-0.00143968
0.069630258
0.14564159
0.20203188
0.24134375
0.26742136
0.28159271
0.28500588
0.27923484
0.26653456
0.24954151
0.23091082
0.21294946
0.19736403
0.18515532
0.17666122
0.17170061
0.16975758
0.17016599
0.1722149
0.1753183
0.17886775
0.18265455
0.18603465
0.18940178
0.19167095
0.19388149
-0.12105261
-0.070031074
-0.031546078
-0.027248671
-0.09698605
-0.12384767
0.10448516
-0.10421474
-0.061997309
-0.022205506
0.03640185
0.022750969
0.038468177
0.051854417
0.02303154
-0.056485153
-0.15403966
-0.1156135
-0.041201976
0.035353378
0.12543998
0.19255662
0.23949091
0.27140005
0.29045831
0.29755474
0.29412112
0.28224656
0.26463408
0.24417301
0.22354359
0.20488236
0.18959723
0.17834413
0.17114033
0.16755207
0.16689375
0.16840604
0.17134509
0.17512809
0.17917375
0.18329699
0.18689961
0.19038837
0.19273605
0.19493748
-0.11308801
-0.12477282
-0.067303874
-0.040889857
-0.035981236
-0.11616141
-0.14495389
0.07815005
-0.075325233
-0.046569069
5.0184936e-05
-0.018371879
0.0020939671
0.02927057
0.0096291599
-0.07320676
-0.18970613
-0.17309203
-0.087666117
-0.0027526654
0.10185197
0.17950694
0.23461772
0.27304558
0.29752146
0.30909797
0.30872708
0.29838786
0.28073256
0.25882727
0.23568453
0.21387936
0.19527096
0.18090156
0.17105716
0.16544298
0.16340068
0.16411072
0.16675452
0.17058093
0.17502456
0.17953921
0.18397155
0.18777854
0.19138064
0.19379862
0.19599712
-0.084788919
-0.1165303
-0.12374596
-0.061727507
-0.048273013
-0.044240153
-0.1334293
-0.16572921
0.049382202
-0.068428368
-0.040857093
-0.065437949
-0.040879086
0.00028476543
-0.0083496533
-0.091590396
-0.22982819
-0.22811293
-0.14628254
-0.046097579
0.074440412
0.16299228
0.22635385
0.27172296
0.30237081
0.31896602
0.3224746
0.31442149
0.29740069
0.27455565
0.24918584
0.22428291
0.20218738
0.18438874
0.17151651
0.16348173
0.15970176
0.15933269
0.16146196
0.16524426
0.16994007
0.17501173
0.17996015
0.18467729
0.18867786
0.19238362
0.19485561
0.19705578
-0.087184341
-0.08976474
-0.11524624
-0.11781971
-0.053569284
-0.053443414
-0.05240088
-0.14966123
-0.18499868
0.019836646
-0.084459663
-0.11640161
-0.088801332
-0.034742888
-0.03096555
-0.11169957
-0.26166204
-0.29854152
-0.20596681
-0.093425921
0.041760923
0.14256837
0.21424065
0.26703139
0.30411906
0.32664454
0.33469601
0.32974743
0.31409396
0.29092442
0.26373647
0.23590902
0.21026472
0.18879079
0.1725334
0.16168452
0.15579543
0.15403578
0.15542412
0.15899528
0.16390178
0.16942953
0.17508463
0.18043553
0.18542492
0.18960697
0.19339112
0.19589502
0.19811148
-0.12771554
-0.10225786
-0.091210624
-0.10995804
-0.10744269
-0.043045738
-0.053795259
-0.061513281
-0.16399476
-0.2008823
-0.0077723732
-0.17041118
-0.1402308
-0.075811798
-0.057773664
-0.13249442
-0.2935125
-0.3629055
-0.28949244
-0.14144564
0.0064167983
0.11947976
0.19801348
0.25835298
0.30257676
0.33128788
0.34482486
0.34369575
0.33020181
0.30738563
0.27890555
0.2484489
0.21931072
0.19400134
0.17405162
0.16001315
0.15163967
0.14816029
0.14855138
0.15174346
0.15674984
0.1627389
0.16904364
0.17524251
0.18098208
0.18623001
0.19055422
0.19437778
0.19690915
0.19916122
-0.22483359
-0.16871083
-0.10945657
-0.089005318
-0.10089368
-0.09327988
-0.030243895
-0.047744489
-0.070865787
-0.17541533
-0.21158038
-0.030483453
-0.19387764
-0.12159686
-0.088211455
-0.15409778
-0.32985619
-0.42853811
-0.36927542
-0.20892901
-0.039007687
0.095824038
0.17992834
0.24532036
0.29694662
0.33281889
0.35208449
0.35565509
0.34504403
0.32332185
0.29414324
0.26147153
0.22900906
0.199804
0.17592232
0.15835415
0.14713158
0.14159912
0.14072287
0.1433452
0.1483475
0.15474469
0.16174987
0.16878251
0.17551017
0.18162384
0.18707393
0.19147102
0.19532793
0.19792348
0.20026713
-0.24832551
-0.27643501
-0.20445806
-0.10627503
-0.081914185
-0.087521933
-0.076309999
-0.01520418
-0.035923546
-0.080122308
-0.18253852
-0.21635715
-0.048918969
-0.16896447
-0.12129583
-0.17667375
-0.36410108
-0.49291422
-0.45962937
-0.28799237
-0.099013929
0.059248449
0.16158367
0.22984362
0.28710758
0.33006514
0.35628467
0.36489489
0.35798457
0.33803846
0.30882556
0.27442285
0.23891983
0.2058598
0.17788489
0.15649671
0.14208558
0.13417568
0.13176223
0.13361761
0.1384983
0.14526593
0.15297502
0.16093656
0.16868181
0.17592276
0.18233255
0.18787822
0.19232886
0.19629531
0.19903849
0.20143286
-0.21491517
-0.29984758
-0.32041737
-0.23396814
-0.097963454
-0.068582443
-0.069302261
-0.056686048
0.00092920346
-0.019868412
-0.087970871
-0.18620492
-0.215094
-0.064240376
-0.15465994
-0.20085662
-0.39155962
-0.55180871
-0.54886144
-0.37561902
-0.16197627
0.013634022
0.12906341
0.2140961
0.2735891
0.32385652
0.35628343
0.37109518
0.36830104
0.35088525
0.32224188
0.28667062
0.24847908
0.2117045
0.17955581
0.1541124
0.1362096
0.12561996
0.12141328
0.12231379
0.12695851
0.13405552
0.1424962
0.15144585
0.16034905
0.16879128
0.1764398
0.18298899
0.18859753
0.19323559
0.19743815
0.20019195
0.20263712
-0.18306796
-0.25506864
-0.34240415
-0.35412975
-0.25561498
-0.090689174
-0.049624628
-0.048465531
-0.03506765
0.018693349
-0.0028850122
-0.093481705
-0.18548308
-0.20829792
-0.075632428
-0.225554
-0.40794621
-0.59957065
-0.63192275
-0.4642865
-0.22939463
-0.038777479
0.091915281
0.18332905
0.2598166
0.31219765
0.35332149
0.37326592
0.37560649
0.36111938
0.33372851
0.29748786
0.2570408
0.21675074
0.18042248
0.15074518
0.12908212
0.11554129
0.10931318
0.10909583
0.11341226
0.12081164
0.13001871
0.14004839
0.15022639
0.16005605
0.16905463
0.17689003
0.18352562
0.18940709
0.19446613
0.19856803
0.20138318
0.20387677
-0.24593521
-0.2049821
-0.28432504
-0.37266518
-0.3753258
-0.26774806
-0.084435155
-0.028313813
-0.026026893
-0.011414843
0.037308499
0.014882507
-0.095787876
-0.18002774
-0.19530626
-0.082364299
-0.41082205
-0.63062451
-0.70159333
-0.54796462
-0.30324829
-0.095610488
0.048353412
0.14937732
0.23043128
0.30020079
0.34389323
0.37222368
0.37897252
0.3683362
0.34251088
0.30619623
0.26385971
0.22032704
0.17985147
0.14580019
0.12014179
0.10340115
0.094959744
0.093504721
0.097441653
0.10515315
0.11518609
0.12640565
0.13801711
0.14941008
0.15998128
0.16923335
0.17717743
0.18421192
0.19073457
0.19562374
0.19975607
0.20260149
0.20513787
-0.40154308
-0.25946504
-0.22132798
-0.30093249
-0.38858604
-0.38353183
-0.27021843
-0.076072177
-0.0063270815
-0.0037113922
0.012086661
0.059260277
0.029856795
-0.093113986
-0.16883372
-0.17579818
-0.084185077
-0.64003597
-0.74980174
-0.61973505
-0.37676955
-0.15632616
0.0012426282
0.10910723
0.19796568
0.27275754
0.335741
0.36512528
0.3790627
0.37157105
0.34818346
0.31198843
0.2682434
0.22166256
0.17712055
0.13856311
0.10866885
0.088498058
0.077677801
0.074920403
0.078493591
0.086586937
0.097556689
0.1101109
0.12334424
0.1365278
0.14889513
0.15980058
0.16919531
0.1776912
0.18569757
0.19190207
0.19686345
0.20097557
0.20385299
0.20641629
-0.62513437
-0.37765055
-0.26264371
-0.22960206
-0.30264896
-0.38963931
-0.3794097
-0.2643343
-0.066925834
0.014259976
0.016953893
0.037635693
0.076830157
0.044907616
-0.084122573
-0.15114322
-0.15032563
-0.081515533
-0.76919728
-0.67220831
-0.44230173
-0.21786806
-0.049557607
0.06555768
0.15840897
0.24194241
0.3084883
0.3579984
0.3730973
0.37154152
0.34970968
0.31446584
0.26935382
0.22004817
0.17141576
0.12821665
0.093819037
0.069938494
0.056593483
0.052519361
0.055831877
0.064472555
0.076568807
0.09066779
0.10575759
0.12100122
0.13544628
0.1482482
0.15933626
0.16948547
0.17937435
0.1869151
0.19318777
0.19813213
0.202234
0.20513523
0.20771233
-0.75507661
-0.58328193
-0.34079901
-0.24980823
-0.22910114
-0.29093426
-0.3775082
-0.36437919
-0.25174886
-0.057676419
0.03350008
0.037863399
0.059136677
0.09538582
0.059900638
-0.068507576
-0.12729515
-0.12050041
-0.075178181
-0.69979375
-0.49171402
-0.27674149
-0.10208253
0.018036565
0.11512942
0.20254625
0.28086032
0.33576286
0.36750111
0.36514642
0.34793261
0.31251318
0.26681365
0.21461641
0.16199377
0.11386823
0.074610236
0.046685941
0.030592242
0.025232275
0.028483901
0.037966985
0.051504264
0.067454337
0.084714598
0.10234598
0.11920113
0.13420043
0.14723448
0.15933212
0.17144168
0.18065047
0.18829615
0.19449888
0.19944599
0.20352789
0.20644716
0.20902549
-0.69744766
-0.70585216
-0.52011133
-0.29386073
-0.22034261
-0.21853922
-0.27100278
-0.35490312
-0.34032151
-0.23165089
-0.047634821
0.053019317
0.056545825
0.081973231
0.11457943
0.074125189
-0.048465432
-0.098192241
-0.088460643
-0.066229631
-0.51884365
-0.32948017
-0.15410891
-0.032477193
0.067212224
0.15853621
0.24252561
0.31302909
0.34612666
0.35971085
0.33934943
0.30713517
0.2594292
0.2050304
0.14795181
0.094692734
0.050014135
0.017495914
-0.0016281101
-0.0083138828
-0.0048226193
0.0059597853
0.021428082
0.039686757
0.059544617
0.079984547
0.099647747
0.11719566
0.13248404
0.14685275
0.16164534
0.17281647
0.18215192
0.1896928
0.19586424
0.20079942
0.20485617
0.20778684
0.21035481
-0.52201565
-0.66220155
-0.62936709
-0.44149895
-0.24214632
-0.17999401
-0.19333142
-0.24534106
-0.32405614
-0.30980479
-0.20342535
-0.035104869
0.071085125
0.076614079
0.10419816
0.13255984
0.087576301
-0.026670986
-0.066011063
-0.055783132
-0.055938865
-0.36496513
-0.20328169
-0.084833856
0.015418816
0.10837165
0.19846515
0.27662102
0.33109017
0.33796712
0.33229675
0.29440026
0.24842182
0.19001895
0.12900446
0.069729919
0.019025498
-0.018880185
-0.041692339
-0.049761939
-0.045738011
-0.033012886
-0.014886474
0.0063575128
0.029414891
0.053212313
0.076181183
0.096690795
0.1145898
0.13162144
0.14964172
0.16315726
0.17449568
0.18365493
0.19115199
0.19727455
0.20219178
0.20621596
0.20915277
0.21169879
-0.37611265
-0.50407658
-0.59980424
-0.53522833
-0.35543673
-0.18858349
-0.13553522
-0.15471819
-0.21307568
-0.28784217
-0.27114218
-0.17648005
-0.016689455
0.087077076
0.096024679
0.12465509
0.14798446
0.10055872
-0.0037924264
-0.034585783
-0.027583771
-0.042706949
-0.24654061
-0.13705347
-0.039842465
0.053091421
0.14612627
0.23303874
0.30031932
0.33082295
0.30894788
0.28379203
0.22938994
0.1711002
0.1038016
0.038720577
-0.019420958
-0.063800827
-0.091182599
-0.10123004
-0.096306485
-0.080873371
-0.059064923
-0.033846033
-0.0067292488
0.021168137
0.048072775
0.072048803
0.092970008
0.1131231
0.13503905
0.15135024
0.16507732
0.17615328
0.18523102
0.19265989
0.19872957
0.20361881
0.207605
0.2105449
0.21305686
-0.28159363
-0.37209095
-0.46949279
-0.52020467
-0.4360378
-0.27165668
-0.13336264
-0.08922832
-0.11211163
-0.17467401
-0.24518582
-0.23602369
-0.1418437
0.0015945696
0.10121178
0.11432549
0.14205924
0.15992517
0.11243396
0.020319902
-0.0071851888
-0.0073188803
-0.030078557
-0.1871302
-0.097375306
-0.0072924879
0.086331572
0.17990651
0.25766842
0.30703925
0.30871545
0.25752601
0.21315157
0.14334412
0.074256496
0.00022817074
-0.065662471
-0.11851057
-0.15208911
-0.16478228
-0.15921439
-0.14009124
-0.11326712
-0.082664088
-0.050246751
-0.017220468
0.014446879
0.042511354
0.066946658
0.090754392
0.11737268
0.13702057
0.15360136
0.16694213
0.17789462
0.18685983
0.19421752
0.20022303
0.2050772
0.20902393
0.21196493
0.21442975
-0.23360368
-0.30837044
-0.36218699
-0.42336336
-0.43726387
-0.34267766
-0.19642487
-0.079304421
-0.044466601
-0.07197488
-0.13450452
-0.20790759
-0.19302674
-0.10858291
0.020684274
0.11273054
0.13039475
0.1555555
0.16740727
0.12170461
0.043398437
0.012495736
0.0081677136
-0.019388484
-0.15586397
-0.072207606
0.019236069
0.11603577
0.20494929
0.26667638
0.29239049
0.26315971
0.18251506
0.11917366
0.034820748
-0.043354196
-0.12123566
-0.18367446
-0.22592438
-0.24341692
-0.2372038
-0.21394232
-0.18035492
-0.14242589
-0.10292824
-0.063314046
-0.025767832
0.0071812954
0.035720064
0.063816565
0.09610421
0.11972993
0.13971882
0.15574797
0.16890263
0.17969103
0.18854408
0.1958166
0.20175043
0.2065695
0.21047578
0.2134089
0.2158149
-0.21415742
-0.2756414
-0.32668571
-0.34996629
-0.37369082
-0.35779605
-0.25942734
-0.13116431
-0.030873931
-0.0009278075
-0.034708689
-0.10429542
-0.16473236
-0.14939087
-0.077362206
0.039130213
0.12105756
0.14285634
0.16431955
0.16994953
0.12703475
0.061756652
0.027282698
0.018620895
-0.010942982
-0.14090556
-0.055084344
0.041543972
0.13863515
0.21476535
0.25545472
0.25344311
0.19327757
0.08246664
-8.8469905e-05
-0.09830886
-0.18328689
-0.26092922
-0.31419444
-0.33900167
-0.33464851
-0.30607408
-0.26416298
-0.21628472
-0.16717156
-0.11888094
-0.0739027
-0.035018879
-0.001643424
0.031492942
0.070620103
0.09897267
0.12302902
0.14224222
0.15800262
0.17091894
0.181548
0.19027285
0.19745143
0.20331654
0.20810473
0.21194798
0.21487624
0.21720037
-0.21275835
-0.27156856
-0.31251124
-0.33751927
-0.33534408
-0.32528309
-0.28599454
-0.18906286
-0.077024244
0.011151105
0.035590098
0.00013916136
-0.076373848
-0.11989377
-0.10356285
-0.049043277
0.057224867
0.12635
0.15045584
0.16797571
0.16780646
0.12798962
0.07276368
0.03829565
0.024566981
-0.004694803
-0.1365311
-0.043913677
0.05743435
0.147551
0.20421618
0.22034901
0.18902046
0.097933552
-0.045022663
-0.14773497
-0.25892621
-0.34726176
-0.41856511
-0.45484993
-0.45390808
-0.42240361
-0.36941013
-0.30853527
-0.24626087
-0.18627135
-0.13165023
-0.085394455
-0.046243794
-0.0071581185
0.040215911
0.074176373
0.10307335
0.12605336
0.14488659
0.1603105
0.17300068
0.18345166
0.19203914
0.19913025
0.20493647
0.20966275
0.21344096
0.2163641
0.21859463
-0.22525458
-0.28731464
-0.32704448
-0.34505976
-0.34422564
-0.32003073
-0.2836602
-0.22630478
-0.1328576
-0.035071616
0.041507105
0.071195414
0.024430429
-0.048646468
-0.075034195
-0.059704005
-0.021872756
0.071461534
0.12894655
0.15343152
0.16670251
0.16150601
0.12502572
0.078265772
0.04495968
0.027484603
-0.00030224266
-0.14095713
-0.039875953
0.061131032
0.13638549
0.16999127
0.15914474
0.098430651
-0.025081341
-0.2038878
-0.32827437
-0.4505249
-0.53673646
-0.59237049
-0.60163326
-0.5662078
-0.50341605
-0.42491563
-0.34474435
-0.26871026
-0.20121872
-0.14555561
-0.099377035
-0.053224155
0.0040960611
0.044691168
0.079339301
0.10675869
0.12921112
0.14757698
0.16268731
0.17513063
0.18539377
0.19385548
0.2008775
0.2065777
0.21124591
0.21495155
0.21787145
0.22003607
-0.25082759
-0.32150829
-0.36350587
-0.38095982
-0.3748101
-0.35096324
-0.3066982
-0.25046364
-0.18088417
-0.092743518
-0.0095824743
0.075530669
0.089325982
0.04742338
-0.023305436
-0.033563813
-0.023031135
0.0057686681
0.080700822
0.12947336
0.15209759
0.16109637
0.15203308
0.11927064
0.079547382
0.047987293
0.028378881
0.0025862696
-0.15482858
-0.047233629
0.046047279
0.10131798
0.10987214
0.07086534
-0.019962121
-0.17976827
-0.40003757
-0.54766645
-0.67663313
-0.75195789
-0.77825891
-0.74916845
-0.67131384
-0.57382468
-0.46902828
-0.37070902
-0.2856055
-0.21753281
-0.16258659
-0.10795347
-0.038633694
0.0097880842
0.051253155
0.083890438
0.11058823
0.13240069
0.15033781
0.16511219
0.1772993
0.18739237
0.19575793
0.20264616
0.20824495
0.21284824
0.21648098
0.21939741
0.22152315
-0.29003693
-0.37529581
-0.42472852
-0.44177582
-0.43385728
-0.40443207
-0.35845183
-0.29613039
-0.22612435
-0.15164829
-0.066454195
0.04041251
0.094043702
0.10562185
0.067788685
0.0027245063
-0.0010490572
0.0053646941
0.031688523
0.0876077
0.12796504
0.14735058
0.15229528
0.14085264
0.11180761
0.077639528
0.04841011
0.027904993
0.0043807804
-0.18094079
-0.071859188
0.0076669989
0.040668062
0.022310104
-0.045589334
-0.16973091
-0.37265886
-0.64167191
-0.81302485
-0.93964135
-0.99092044
-0.96987972
-0.89057375
-0.76339705
-0.62820572
-0.49878974
-0.38899264
-0.30398918
-0.23772632
-0.17277871
-0.088967717
-0.031341151
0.0181813
0.056929588
0.088593709
0.1144252
0.13565974
0.15314447
0.16757485
0.17953151
0.18949844
0.19768108
0.20444393
0.20993014
0.214472
0.21803069
0.2209375
0.22302404
-0.34449838
-0.44983524
-0.51515322
-0.53708717
-0.52371758
-0.48763686
-0.43402574
-0.36679885
-0.29063273
-0.21367167
-0.13483873
-0.034995109
0.057446189
0.11083233
0.11907069
0.083621729
0.028140011
0.021918134
0.0272843
0.050455887
0.092552955
0.12482222
0.1402768
0.14178712
0.12916835
0.10334289
0.073711037
0.046990482
0.026549903
0.0053764655
-0.2227578
-0.11770052
-0.055662728
-0.046751093
-0.093862087
-0.19307442
-0.35724186
-0.6136412
-0.939244
-1.1324033
-1.2396577
-1.2490386
-1.1584628
-1.0157073
-0.83385369
-0.66210162
-0.51748318
-0.40848888
-0.32707368
-0.24932658
-0.14799652
-0.079585219
-0.020565
0.025308807
0.062760345
0.093264967
0.11832481
0.13895989
0.15598662
0.17010845
0.18189664
0.19162472
0.19963624
0.20625956
0.21163859
0.21612129
0.21959291
0.22248243
0.22453668
-0.41396526
-0.54531745
-0.63723417
-0.67548158
-0.66147553
-0.61133215
-0.54290532
-0.46305482
-0.37846277
-0.29477315
-0.21049495
-0.11012918
-0.01046341
0.07618981
0.12247421
0.12727734
0.094759346
0.048687492
0.038962036
0.043745374
0.063570278
0.095486199
0.12054007
0.13193175
0.13072462
0.11757255
0.094495678
0.068585229
0.044360021
0.024675669
0.0057991055
-0.28262089
-0.18646417
-0.14407623
-0.16256914
-0.24083504
-0.37726841
-0.59277755
-0.91683172
-1.3050195
-1.5155295
-1.5742251
-1.5170183
-1.3300854
-1.1099242
-0.87463179
-0.67957894
-0.53643541
-0.4334096
-0.33946412
-0.21686058
-0.1359011
-0.065725451
-0.011581741
0.032583214
0.068497727
0.097985364
0.12225259
0.14229022
0.15890647
0.17280484
0.18428134
0.19378682
0.20160849
0.20810182
0.21337952
0.2177851
0.22114541
0.22402945
0.22607322
-0.49596951
-0.6554295
-0.78936695
-0.86067231
-0.8603798
-0.80016068
-0.70439868
-0.59841228
-0.49516824
-0.4005855
-0.30714349
-0.19528735
-0.087695576
0.011550432
0.088822596
0.12918695
0.13064851
0.10095483
0.063157472
0.051959996
0.055773285
0.072422681
0.096640176
0.11546255
0.12306952
0.11968633
0.10640031
0.085693525
0.062853368
0.041029765
0.022550322
0.005840206
-0.36019694
-0.27765139
-0.25892912
-0.30886311
-0.423515
-0.60774298
-0.89208718
-1.3015652
-1.7526499
-1.973817
-1.9356529
-1.7732905
-1.4632993
-1.1596293
-0.88902251
-0.69580673
-0.56125582
-0.44540202
-0.29682354
-0.20124061
-0.1180725
-0.054388729
-0.0024743729
0.039672482
0.074259399