/*--------------------------------*- C++ -*----------------------------------*\
| =========                 |                                                 |
| \\      /  F ield         | OpenFOAM: The Open Source CFD Toolbox           |
|  \\    /   O peration     | Version:  v2012                                 |
|   \\  /    A nd           | Website:  www.openfoam.com                      |
|    \\/     M anipulation  |                                                 |
\*---------------------------------------------------------------------------*/
FoamFile
{
    version     2.0;
    format      ascii;
    class       surfaceScalarField;
    location    "115.351227390527441";
    object      phi;
}
// * * * * * * * * * * * * * * * * * * * * * * * * * * * * * * * * * * * * * //

dimensions      [0 3 -1 0 0 0 0];
oriented        oriented;


internalField   nonuniform List<scalar> 
18180
(
-0.042482753
-3.4988425
-0.084639368
-3.2642363
-0.033006982
-3.4630995
-0.12648247
-3.0409864
-0.064530763
-3.2302279
-0.027329906
-3.4332173
-0.16977495
-2.8264589
-0.09448458
-3.0088117
-0.053058097
-3.2021924
-0.021554183
-3.4093365
-0.21433998
-2.6210187
-0.12297253
-2.7959953
-0.077102108
-2.982706
-0.041422985
-3.1801609
-0.016681845
-3.3904692
-0.2600484
-2.4237435
-0.14918672
-2.5929996
-0.099133502
-2.7720917
-0.059346829
-2.9627838
-0.031763995
-3.1630293
-0.012561729
-3.3759076
-0.30586343
-2.2343494
-0.17215276
-2.3990941
-0.11864795
-2.5717649
-0.074898306
-2.7546974
-0.044941781
-2.9476706
-0.023668354
-3.1500129
-0.0091827265
-3.3648685
-0.34918641
-2.05282
-0.19050887
-2.2144107
-0.13486155
-2.3812752
-0.087548389
-2.5574061
-0.055763416
-2.7420514
-0.033006952
-2.9364957
-0.017080954
-3.140348
-0.0064448316
-3.356749
-0.38460381
-1.8798715
-0.20292728
-2.0389008
-0.14674413
-2.2010059
-0.096655937
-2.3705683
-0.063790897
-2.547662
-0.040141128
-2.7331505
-0.023420293
-2.9284523
-0.011780618
-3.133412
-0.0042442936
-3.3509772
-0.4066663
-1.7156952
-0.20854986
-1.8728222
-0.15306684
-2.0311259
-0.10156788
-2.1945809
-0.068551358
-2.3641898
-0.044733187
-2.5413823
-0.027800014
-2.7271236
-0.015790148
-2.9228967
-0.0075574529
-3.1286525
-0.002476754
-3.3471395
-0.41161381
-1.5605312
-0.20607612
-1.7168119
-0.15255132
-1.8719496
-0.10169731
-2.029555
-0.069606405
-2.1920029
-0.046465108
-2.3608603
-0.029975842
-2.537619
-0.018112551
-2.7233035
-0.0097701321
-2.919297
-0.0042072024
-3.1256279
-0.0010569511
-3.3448521
-0.39665002
-1.4159667
-0.19357596
-1.5717416
-0.14429332
-1.7237437
-0.096558634
-1.8757097
-0.066606248
-2.0311138
-0.045111468
-2.1918434
-0.029743347
-2.3595728
-0.018581009
-2.535708
-0.010567027
-2.7211706
-0.005032969
-2.9172321
-0.0015492388
-3.1239779
9.8889334e-05
-3.3438656
-0.36117045
-1.2837836
-0.16982696
-1.4384912
-0.12798975
-1.5867806
-0.085845829
-1.7331357
-0.059376333
-1.8815679
-0.040556546
-2.0342401
-0.027006993
-2.1931424
-0.017076088
-2.3597021
-0.0098385405
-2.5351536
-0.004697042
-2.7203196
-0.0013029763
-2.9163819
0.00056009258
-3.1234156
0.0009690364
-3.3438612
-0.3086008
-1.1641833
-0.13491378
-1.3175364
-0.10402529
-1.4612523
-0.069545256
-1.6018158
-0.047961108
-1.7432437
-0.032819264
-1.8879588
-0.021775499
-2.038122
-0.013594532
-2.1953264
-0.007523893
-2.3607981
-0.0031254953
-2.5355936
-0.00011957304
-2.7204615
0.0016457548
-2.9165019
0.0022580013
-3.1237993
0.0016756138
-3.344682
-0.24332939
-1.0574812
-0.089404586
-1.208595
-0.073262897
-1.3471558
-0.048032786
-1.481553
-0.032608913
-1.6159198
-0.022064342
-1.7527246
-0.014182026
-1.8942841
-0.0082246031
-2.0422761
-0.0036728548
-2.1980288
-0.00029633967
-2.3625519
0.002053761
-2.5367778
0.0034712775
-2.7213781
0.0039854961
-2.9173866
0.003614422
-3.1249418
0.0022628819
-3.3461817
-0.16880927
-0.96498451
-0.034499841
-1.1113503
-0.036671344
-1.244103
-0.022065821
-1.3719625
-0.013770169
-1.4991992
-0.0086062817
-1.6281691
-0.0044740986
-1.7612371
-0.0011528844
-1.9002171
0.0015930716
-2.0464645
0.0037151856
-2.2010252
0.0052115478
-2.3647749
0.0060760701
-2.5385292
0.0063098431
-2.7229181
0.0058601059
-2.9188967
0.0047040319
-3.1266843
0.0027378061
-3.348253
-0.08913342
-0.88655779
0.026512752
-1.0250219
0.0043974141
-1.1513939
0.0074048938
-1.2724628
0.0079503462
-1.3925433
0.0071302309
-1.5137876
0.0070075325
-1.6385199
0.007349399
-1.7686715
0.0080613801
-1.9056837
0.0087730386
-2.050571
0.0092700334
-2.2041987
0.0094456301
-2.3673422
0.0092344944
-2.5407253
0.0085725062
-2.7249574
0.0073688162
-2.920929
0.0055791876
-3.1289168
0.0031125881
-3.3507708
-0.0070121727
-0.81917767
0.089583142
-0.94871177
0.048431565
-1.068088
0.039340296
-1.1822656
0.031824084
-1.2952473
0.024633126
-1.4089554
0.019843326
-1.5255508
0.016936059
-1.6471019
0.015463209
-1.7751428
0.014680003
-1.9107015
0.014106712
-2.0545717
0.013501215
-2.2075016
0.012745967
-2.3701789
0.011742079
-2.5432823
0.010388685
-2.72741
0.0085825826
-2.9233895
0.0062769769
-3.1315505
0.0034033592
-3.3536522
0.075514239
-0.76113146
0.15273333
-0.88146821
0.093897605
-0.99326512
0.072789304
-1.1005183
0.057175872
-1.2065757
0.043410955
-1.3129888
0.033608567
-1.4217025
0.027232466
-1.5348984
0.023482277
-1.6542548
0.02119411
-1.7808362
0.019549892
-1.9153663
0.018132888
-2.0584996
0.016770157
-2.2109033
0.015350897
-2.3732325
0.013751807
-2.5461409
0.011851401
-2.7302051
0.0095525845
-2.9262042
0.006823442
-3.1345071
0.0036221096
-3.3568062
0.15609459
-0.71094078
0.21428056
-0.82187352
0.13918755
-0.92589866
0.1068261
-1.0263261
0.083371185
-1.1257173
0.062980483
-1.2251617
0.047888338
-1.3263018
0.037846516
-1.4314189
0.031773615
-1.5423834
0.02804123
-1.6603498
0.025401893
-1.7859711
0.023205518
-1.9197862
0.021216396
-2.0623754
0.019331849
-2.2143841
0.017433094
-2.3764691
0.015373204
-2.5492567
0.013025913
-2.7332888
0.010315444
-2.9293032
0.0072374871
-3.1377182
0.0037770158
-3.3601702
0.23243319
-0.66724188
0.27276206
-0.76866895
0.18304152
-0.86491894
0.14063132
-0.95876944
0.1098655
-1.0518676
0.082934199
-1.1447387
0.0623085
-1.2386642
0.048397543
-1.3360025
0.039981405
-1.4388734
0.034927893
-1.5485792
0.031448344
-1.6657409
0.028573501
-1.79074
0.025983165
-1.9240325
0.023608269
-2.0662056
0.021368812
-2.2179334
0.019115349
-2.3798691
0.016682641
-2.5525942
0.013957113
-2.7366132
0.010897183
-2.9326326
0.0075334117
-3.141121
0.0038749039
-3.3636696
0.3028035
-0.6287285
0.32696875
-0.72074426
0.22450502
-0.80937265
0.1735938
-0.89698706
0.13624227
-0.98423534
0.10294941
-1.0710003
0.076565635
-1.1581253
0.058538266
-1.2479984
0.047753429
-1.3430698
0.041550607
-1.4448608
0.037466282
-1.5540004
0.034090007
-1.6707113
0.030972987
-1.7952574
0.028103629
-1.9281334
0.02548896
-2.0699949
0.023012758
-2.2215485
0.020483448
-2.3834179
0.017731929
-2.5561273
0.014675651
-2.740139
0.011316907
-2.9361368
0.0077227522
-3.1446577
0.0039218731
-3.3672537
0.36590611
-0.59431682
0.37603676
-0.67713825
0.26292009
-0.75844567
0.20528407
-0.84020768
0.1622099
-0.92208416
0.1228255
-1.0032769
0.090429965
-1.0840394
0.067967899
-1.1667893
0.054757073
-1.2543419
0.047607117
-1.3485406
0.043230905
-1.450081
0.039614807
-1.5590292
0.036102531
-1.6754142
0.032756796
-1.7995607
0.029729918
-1.9320926
0.026994417
-2.0737508
0.024358228
-2.2252352
0.021595304
-2.3871115
0.018555122
-2.5598322
0.015202953
-2.7438259
0.011589553
-2.9397682
0.0078157721
-3.1482747
0.0039235956
-3.3708652
0.42101613
-0.56294418
0.4193848
-0.63704967
0.29790497
-0.71145293
0.23541409
-0.78775884
0.18759746
-0.86476374
0.14246788
-0.94093847
0.10377307
-1.0158385
0.076444304
-1.0917889
0.060675088
-1.1720888
0.052799681
-1.2589935
0.048519359
-1.3533301
0.045018384
-1.4550336
0.041309744
-1.5638525
0.037532119
-1.6798784
0.034049499
-1.8036409
0.030996774
-1.9359208
0.028228668
-2.0774917
0.025470545
-2.2290074
0.022487885
-2.3909452
0.019174408
-2.5636865
0.015554824
-2.7476366
0.011728088
-2.9434793
0.0078222707
-3.1519254
0.0038856442
-3.3744653
0.46792812
-0.53377195
0.45684804
-0.59983224
0.32931398
-0.66782926
0.26381057
-0.73907046
0.21233256
-0.8117006
0.16187567
-0.88342843
0.11654161
-0.95296784
0.08378806
-1.0224922
0.065228901
-1.0957629
0.05683944
-1.1756278
0.053106538
-1.2631214
0.050182104
-1.3580822
0.046557234
-1.4599368
0.042427168
-1.5684743
0.038437413
-1.6840636
0.034978351
-1.8074892
0.0320208
-1.9396343
0.029268574
-2.0812484
0.02639137
-2.2328832
0.023183316
-2.3949167
0.019604445
-2.5676653
0.015744421
-2.7515342
0.011744796
-2.9472302
0.007752068
-3.1555676
0.0038134837
-3.3780091
0.50680413
-0.50623589
0.48860893
-0.5649948
0.3571884
-0.62711543
0.29039207
-0.69366931
0.23641223
-0.7623942
0.18113008
-0.83025538
0.12875589
-0.89494465
0.089881303
-0.95840601
0.068141957
-1.0248618
0.059467216
-1.0979268
0.05677537
-1.178872
0.054996981
-1.2675583
0.051831694
-1.3630478
0.047476208
-1.4647493
0.042923738
-1.5727919
0.038930273
-1.6879152
0.035678528
-1.8111118
0.032898667
-1.9432787
0.030165497
-2.0850593
0.027143812
-2.2368811
0.023693551
-2.3990179
0.019856128
-2.5717447
0.015784039
-2.7554841
0.01165209
-2.9509811
0.0076150054
-3.1591634
0.0037124034
-3.3814684
0.53795438
-0.48012286
0.51505863
-0.53218202
0.3816946
-0.5889455
0.31514785
-0.65116698
0.25988044
-0.7164184
0.20037022
-0.78097634
0.1404906
-0.84133184
0.094661625
-0.8991033
0.069242037
-0.95899678
0.060404932
-1.0253696
0.059294579
-1.1000519
0.059366299
-1.1828921
0.057143971
-1.2725923
0.052750399
-1.368119
0.047583367
-1.4692733
0.042885154
-1.5766757
0.039173581
-1.6914083
0.036280334
-1.8145526
0.033701245
-1.9469088
0.030947502
-2.08897
0.027736807
-2.2410162
0.02402485
-2.4032407
0.019939027
-2.5758972
0.015686339
-2.7594507
0.011462609
-2.9546971
0.0074208118
-3.1626803
0.0035874574
-3.3848121
0.56192976
-0.45543956
0.53655785
-0.50115061
0.40306872
-0.55303406
0.33812001
-0.61125021
0.28280926
-0.67341293
0.21977113
-0.73520107
0.15187809
-0.79174412
0.098081394
-0.8441618
0.068342304
-0.89772627
0.059286155
-0.95747974
0.060442017
-1.02615
0.06318328
-1.1035441
0.062520105
-1.1880163
0.058355308
-1.2780234
0.052537343
-1.372968
0.046922659
-1.4732673
0.042514182
-1.5800388
0.039352145
-1.6945719
0.036890604
-1.8178866
0.034469809
-1.950601
0.031622239
-2.0930201
0.028170137
-2.2452987
0.024181004
-2.4075687
0.019863198
-2.5800942
0.015464606
-2.7634009
0.01118909
-2.9583462
0.007178958
-3.1660911
0.0034433127
-3.3880229
0.57989147
-0.43195915
0.55320535
-0.47164534
0.42156939
-0.51916037
0.35938651
-0.57366931
0.30528165
-0.63307541
0.23952645
-0.69258768
0.1630857
-0.74582582
0.10014322
-0.79324682
0.065283719
-0.84065593
0.055851842
-0.89392282
0.06006528
-0.95676
0.06637977
-1.0290425
0.068001027
-1.1087956
0.064421455
-1.1939335
0.057949723
-1.2833581
0.051172111
-1.3772009
0.045750862
-1.4765488
0.042079309
-1.5828825
0.039633892
-1.6974997
0.037578079
-1.8212187
0.035215552
-1.9544254
0.03218222
-2.0972477
0.028438666
-2.2497292
0.024166003
-2.4119821
0.019639788
-2.5843047
0.015132704
-2.7673032
0.010844209
-2.9619014
0.0068983139
-3.169374
0.0032842525
-3.3910787
0.59312399
-0.40940968
0.56512943
-0.44346882
0.43750068
-0.48711493
0.37908353
-0.5382615
0.3273786
-0.59515403
0.25982748
-0.6528316
0.17429961
-0.70325397
0.10088017
-0.74603318
0.05994296
-0.78748692
0.049971618
-0.83443383
0.057969608
-0.8915058
0.068879035
-0.95897285
0.073640504
-1.0344718
0.071105585
-1.1153517
0.064022174
-1.1999509
0.055811628
-1.2880055
0.048979903
-1.3804969
0.04445886
-1.4790643
0.041845923
-1.5853056
0.040137417
-1.700325
0.03836665
-1.8246603
0.035924515
-1.9584543
0.032610316
-2.1016734
0.028536289
-2.2542997
0.023985303
-2.4164541
0.019281238
-2.5884984
0.01470493
-2.7711294
0.010440069
-2.9653388
0.0065871122
-3.1725092
0.0031141264
-3.3939696
0.59641753
-0.45280179
0.57300282
-0.41689399
0.45106744
-0.45660133
0.3974697
-0.50493979
0.34917678
-0.5594818
0.28081508
-0.61563071
0.18570308
-0.6637212
0.10034209
-0.70221488
0.05223491
-0.73793254
0.041456102
-0.77865495
0.053882367
-0.8300447
0.070584258
-0.89293964
0.079477973
-0.96461672
0.078563978
-1.0418194
0.070986065
-1.1222784
0.061065411
-1.205233
0.052344403
-1.2914572
0.046522883
-1.3827129
0.043460123
-1.4809065
0.042015595
-1.5874794
0.040914256
-1.7032107
0.039238939
-1.8283231
0.036564833
-1.9627379
0.032885683
-2.106309
0.028458319
-2.2589911
0.02364652
-2.4209562
0.018801264
-2.5926447
0.014195375
-2.7748525
0.0099881432
-2.968637
0.0062528244
-3.1754823
0.002936348
-3.396682
0.59581983
-0.46051165
0.57094503
-0.45031701
0.46245484
-0.42787271
0.41494232
-0.47354657
0.37060724
-0.52582602
0.30232688
-0.58051499
0.19736961
-0.62681548
0.098579121
-0.66148461
0.042098196
-0.69171036
0.030126613
-0.72631035
0.047603481
-0.77209196
0.071408298
-0.83061016
0.085559496
-0.89884199
0.086952641
-0.97290927
0.079086579
-1.0498967
0.067196144
-1.1284533
0.056033132
-1.2090261
0.048339745
-1.2934414
0.044430883
-1.3839261
0.043086277
-1.4822923
0.04269004
-1.5896263
0.041949618
-1.7063205
0.040146036
-1.832301
0.037095559
-1.9673133
0.032987963
-2.1111457
0.028203133
-2.263778
0.023159779
-2.4254557
0.018214166
-2.5967136
0.013617839
-2.7784489
0.0094990556
-2.9717798
0.0059021404
-3.1782796
0.0027539081
-3.399213
0.59048302
-0.46776339
0.56600757
-0.45514579
0.46756646
-0.45498265
0.43171733
-0.44415332
0.39146095
-0.49388888
0.32382864
-0.54687974
0.20889896
-0.59159281
0.095503671
-0.62329264
0.029479903
-0.64852164
0.015842093
-0.67715536
0.038958162
-0.71739728
0.071280461
-0.77171674
0.091939241
-0.83682362
0.096429119
-0.90823502
0.088575287
-0.9823853
0.074499038
-1.0572554
0.06027758
-1.1328157
0.050013332
-1.2108806
0.044734139
-1.2939987
0.043230882
-1.3843962
0.04352166
-1.4835133
0.043866682
-1.5919789
0.043175679
-1.7098028
0.041020675
-1.8366619
0.037473857
-1.9721899
0.032900564
-2.1161654
0.027773184
-2.268626
0.022537068
-2.4299184
0.017534736
-2.6006772
0.012985503
-2.7818979
0.0089825177
-2.9747516
0.0055409905
-3.1808949
0.0025694015
-3.4015555
0.58002354
-0.47410015
0.55815871
-0.45948489
0.47237553
-0.45950496
0.44356901
-0.46630177
0.41154922
-0.46376227
0.34472245
-0.51436339
0.21957489
-0.55713249
0.090552921
-0.58621972
0.014145365
-0.60763524
-0.0014949107
-0.63093516
0.027794188
-0.665739
0.070151793
-0.71603109
0.098660236
-0.77828291
0.10712895
-0.84745105
0.099697194
-0.91935214
0.08329016
-0.9912402
0.06534855
-1.0624539
0.05168146
-1.1346742
0.044366241
-1.2107746
0.042338914
-1.2934379
0.043235061
-1.3845056
0.044789818
-1.4848921
0.045457198
-1.5947541
0.044491513
-1.7137686
0.041789146
-1.8414441
0.037660834
-1.9773594
0.03261285
-2.1213325
0.027174666
-2.2734965
0.021792235
-2.4343102
0.016777828
-2.6045094
0.012310796
-2.7851831
0.0084473163
-2.9775427
0.0051745875
-3.1833217
0.0023850425
-3.4037122
0.56457417
-0.47924661
0.5479946
-0.46350504
0.47668075
-0.46333643
0.45640336
-0.47180364
0.42767733
-0.48191752
0.36455128
-0.48319918
0.22909003
-0.52348203
0.08309212
-0.54927337
-0.0047653123
-0.56700693
-0.022014347
-0.58688596
0.014008179
-0.61691111
0.067996014
-0.66335455
0.10576271
-0.72298915
0.11915974
-0.79025097
0.11267103
-0.86042561
0.093895081
-0.93002577
0.071550786
-0.99757629
0.053512138
-1.0644809
0.043341625
-1.133917
0.040306782
-1.2090785
0.041655676
-1.2922569
0.044511755
-1.3846927
0.046779905
-1.4867367
0.047317872
-1.5981224
0.045782128
-1.7182926
0.042381028
-1.846653
0.037625708
-1.982791
0.032120464
-2.1266057
0.026417711
-2.2783479
0.020940452
-2.438598
0.015958103
-2.6081886
0.011605302
-2.7882879
0.0079013416
-2.9801445
0.0048074487
-3.1855599
0.002202692
-3.4056838
0.5441303
-0.48294534
0.53634516
-0.46716468
0.4802724
-0.46663946
0.46997001
-0.47636485
0.44527408
-0.48888407
0.38288303
-0.49983381
0.23752041
-0.49125793
0.073280815
-0.51329557
-0.027872815
-0.52588347
-0.045884794
-0.54292492
-0.0022278547
-0.57042548
0.064830853
-0.61352549
0.11328431
-0.67074123
0.13259325
-0.73636854
0.12767953
-0.80526395
0.10663473
-0.87323625
0.079219239
-0.93783137
0.055701069
-0.99996396
0.041688468
-1.0630974
0.03703517
-1.1309851
0.038608626
-1.2064315
0.042821589
-1.2910341
0.046923947
-1.3853721
0.049293447
-1.4892861
0.049279453
-1.6022004
0.046934117
-1.7234016
0.042736378
-1.8522671
0.037347242
-1.9884385
0.03142594
-2.1319338
0.025515804
-2.2831379
0.019997823
-2.4427518
0.015089816
-2.6116937
0.010879725
-2.7912027
0.0073515735
-2.9825545
0.0044434467
-3.1876101
0.0020238809
-3.407477
0.51786676
-0.48554887
0.52358005
-0.46974626
0.4830651
-0.46949688
0.48395472
-0.48008399
0.46406125
-0.49463288
0.40245156
-0.50803321
0.24800522
-0.50992643
0.061894613
-0.4795192
-0.054496569
-0.48640803
-0.07298934
-0.49858425
-0.019858303
-0.52508287
0.060944044
-0.56632615
0.12127134
-0.62138639
0.14745941
-0.6855611
0.14485204
-0.75354787
0.12181241
-0.82051285
0.088710815
-0.88286605
0.058467596
-0.94079606
0.039446414
-0.9979902
0.032425374
-1.0588284
0.033917657
-1.1266945
0.039507914
-1.203581
0.045666095
-1.2903125
0.05020189
-1.3868726
0.052090571
-1.4927137
0.051171458
-1.6070461
0.047847151
-1.7290869
0.042808931
-1.8582376
0.036815113
-1.9942437
0.030538156
-2.1372636
0.024485224
-2.2878253
0.018980982
-2.4467436
0.014186648
-2.6150098
0.01014379
-2.7939201
0.0068041307
-2.9847724
0.0040858506
-3.1894773
0.0018498589
-3.4090988
0.48579292
-0.48591604
0.50903795
-0.47057133
0.4856018
-0.47181948
0.49801598
-0.48301651
0.48376274
-0.49926447
0.42296312
-0.51472272
0.25881023
-0.51844014
0.052864967
-0.50052674
-0.083489691
-0.45028018
-0.10262659
-0.45659144
-0.037838488
-0.48040484
0.057445527
-0.52137967
0.12985839
-0.57479525
0.16375019
-0.63763797
0.16425933
-0.70497665
0.13969129
-0.77149668
0.10040238
-0.83234196
0.062048532
-0.88664239
0.036658048
-0.93827143
0.026376248
-0.99228004
0.027403383
-1.0527134
0.034361375
-1.1220066
0.042786097
-1.2012349
0.049824204
-1.2905342
0.054013928
-1.3894339
0.0549265
-1.4971157
0.052839551
-1.6126679
0.048439761
-1.7353008
0.042568594
-1.8644996
0.03602951
-2.0001389
0.029471627
-2.1425404
0.023344408
-2.2923719
0.017906715
-2.4505506
0.013261455
-2.618125
0.0094062364
-2.7964385
0.0062642931
-2.9868007
0.003737373
-3.1911695
0.0016816201
-3.4105581
0.44790362
-0.48319389
0.49264857
-0.46908979
0.48880003
-0.47330348
0.51212329
-0.48538421
0.50399071
-0.50272253
0.4440781
-0.51995666
0.26936586
-0.52487474
0.042980452
-0.50817824
-0.11376543
-0.46999609
-0.1340258
-0.41871514
-0.056171202
-0.43807167
0.055573208
-0.47833592
0.13952547
-0.53093648
0.18145815
-0.59247031
0.18593249
-0.6593201
0.16049841
-0.72585125
0.11468388
-0.78591379
0.066698546
-0.83718297
0.033364514
-0.88360531
0.018776122
-0.93100533
0.018879863
-0.9841528
0.027176612
-1.0459826
0.038073362
-1.1178208
0.047947525
-1.199953
0.054844952
-1.2920092
0.058020262
-1.3931985
0.057576816
-1.5025234
0.054154801
-1.6190229
0.04865337
-1.7419719
0.042001388
-1.8709709
0.035000323
-2.0060546
0.028245542
-2.1477114
0.022113257
-2.2967437
0.01679147
-2.4541535
0.012326139
-2.6210326
0.0086747813
-2.7987562
0.0057365445
-2.9886456
0.003400201
-3.1926935
0.001519898
-3.4118653
-0.47690615
0.4044082
0.47476701
-0.46487412
0.49352439
-0.47334594
0.52648166
-0.48711881
0.524157
-0.50502851
0.46532848
-0.52355012
0.27898734
-0.52916968
0.03181434
-0.51332439
-0.14502816
-0.47665617
-0.17196676
-0.43188377
-0.074830816
-0.39987949
0.055330805
-0.43764145
0.15104848
-0.48975565
0.20065767
-0.55010862
0.20988824
-0.61643528
0.18442202
-0.6833079
0.13199898
-0.74329896
0.072702265
-0.79210293
0.029596702
-0.83366219
0.009510057
-0.87466558
0.0081523067
-0.92066855
0.017753561
-0.97517603
0.031333741
-1.0397587
0.044374707
-1.1148314
0.054385676
-1.2001314
0.060268773
-1.2949368
0.061907998
-1.3982277
0.059850948
-1.5089028
0.055019618
-1.6260345
0.048452777
-1.7490038
0.041108567
-1.8775638
0.033745799
-2.0119182
0.026882683
-2.1527286
0.020812297
-2.3009117
0.015651019
-2.4575389
0.011391499
-2.6237271
0.0079561207
-2.8008765
0.0052245993
-2.9903132
0.0030760687
-3.1940627
0.0013652449
-3.4130295
-0.45772043
0.45602074
-0.46774094
0.35629053
0.50041929
-0.47129918
0.54138131
-0.48770261
0.54368184
-0.50612248
0.48607187
-0.52534997
0.28715972
-0.53131001
0.019106956
-0.51607142
-0.17689424
-0.48119539
-0.21097633
-0.43747
-0.10649394
-0.40003785
0.056290144
-0.40066051
0.16463574
-0.45113157
0.22140971
-0.51048498
0.23611292
-0.57634251
0.21136291
-0.64343658
0.15268178
-0.70411954
0.080421564
-0.75119726
0.025458361
-0.78820052
-0.0015414133
-0.82292716
-0.0049821473
-0.86191415
0.0059001929
-0.90925156
0.022396995
-0.96674294
0.038934708
-1.0348899
0.052455329
-1.1135269
0.061491965
-1.2020316
0.06567379
-1.299417
0.065409179
-1.4045019
0.061600166
-1.5161743
0.055368926
-1.6335925
0.047825262
-1.7562896
0.039904863
-1.8841855
0.032290952
-2.0176663
0.025408074
-2.1575503
0.019462011
-2.3048533
0.014500104
-2.4606951
0.010467136
-2.6262072
0.0072559284
-2.8028037
0.0047314715
-2.9918152
0.0027663475
-3.1952851
0.0012182282
-3.4140625
-0.46680148
0.50997131
-0.44809655
0.43681687
-0.45844033
0.30575428
0.55730155
-0.48667704
0.56240849
-0.50590977
0.50562294
-0.52525309
0.29341646
-0.53119105
0.0048873807
-0.51669338
-0.20886078
-0.48383871
-0.25004056
-0.44194946
-0.14087094
-0.40290276
0.042596984
-0.38616044
0.18024981
-0.41618335
0.24358225
-0.47328492
0.26392022
-0.53830146
0.24071926
-0.60575538
0.176218
-0.66709728
0.089719274
-0.71358932
0.021021898
-0.74698455
-0.014537675
-0.775509
-0.020768211
-0.80751447
-0.0085720345
-0.84786608
0.011121688
-0.89846591
0.031492705
-0.95985938
0.0489019
-1.0319492
0.061523878
-1.1142262
0.068713847
-1.2057885
0.070698184
-1.3054414
0.068310705
-1.4119379
0.062719422
-1.5242138
0.055169251
-1.6415693
0.046778357
-1.7637137
0.038416244
-1.8907503
0.030665544
-2.0232379
0.023847856
-2.1621416
0.018082177
-2.3085505
0.01335218
-2.4636169
0.0095613775
-2.6284747
0.0065789097
-2.8045455
0.0042595204
-2.9931603
0.0024720615
-3.1963742
0.0010792785
-3.4149725
-0.48393142
0.57497274
-0.45968741
0.52203377
-0.43899326
0.41781115
-0.45246791
0.25436508
0.58055576
-0.50430717
0.52338644
-0.52325459
0.29748315
-0.5289018
-0.010634286
-0.5152668
-0.24043319
-0.48485171
-0.28830639
-0.44538659
-0.17730122
-0.40532163
0.027240497
-0.38735475
0.1835059
-0.38932289
0.26699126
-0.43957543
0.29245654
-0.50183051
0.27093395
-0.5685689
0.20046225
-0.63011931
0.099046757
-0.67658962
0.015398045
-0.70817649
-0.029590192
-0.73222385
-0.039388003
-0.75725156
-0.025833525
-0.79066299
-0.0025945807
-0.83462326
0.02195841
-0.88947617
0.043612028
-0.95516797
0.060223354
-1.0312987
0.070875512
-1.1170947
0.075579593
-1.2114128
0.075051049
-1.3129305
0.070456494
-1.420401
0.063146354
-1.5328731
0.054415988
-1.6498235
0.045336887
-1.7711635
0.036677113
-1.8971751
0.028902339
-2.0285832
0.022228148
-2.1664745
0.016691331
-2.3119912
0.012219199
-2.4663014
0.0086812874
-2.6305342
0.0059288364
-2.8061114
0.0038105213
-2.9943601
0.0021937813
-3.1973355
0.00094827683
-3.4157703
-0.50135108
0.59848958
-0.47890825
0.59473333
-0.45222579
0.53573799
-0.43215975
0.39794486
-0.45092366
0.20242355
0.53894682
-0.51945079
0.29923235
-0.52458436
-0.027105343
-0.5120236
-0.2710546
-0.48437313
-0.32507824
-0.44788946
-0.21466071
-0.40782345
0.0097227103
-0.38760621
0.1886024
-0.39235347
0.27978906
-0.40210289
0.32094645
-0.46807439
0.30096446
-0.53191034
0.22399505
-0.59221613
0.10687215
-0.6381022
0.0064517628
-0.66784157
-0.047721523
-0.69032327
-0.061167485
-0.71079472
-0.046101578
-0.737378
-0.018807938
-0.77490468
0.010300057
-0.82349388
0.036521868
-0.88296978
0.05748311
-0.95306036
0.072022583
-1.0331402
0.079914196
-1.1221706
0.081707642
-1.2188288
0.078513837
-1.3217402
0.071746064
-1.4297226
0.062857942
-1.541983
0.053129629
-1.6582137
0.04353919
-1.7785298
0.034727699
-1.9033884
0.027035307
-2.0336576
0.020574128
-2.1705275
0.01530634
-2.3151683
0.011111531
-2.4687509
0.0078326689
-2.6323934
0.0053086216
-2.80751
0.0033856957
-2.9954224
0.0019318876
-3.1981836
0.00082525244
-3.4164636
-0.5140811
0.55209149
-0.49629054
0.61638263
-0.47358954
0.61663499
-0.44449396
0.54854334
-0.43008155
0.37754492
-0.45295684
0.14978923
0.29862816
-0.51842684
-0.04410518
-0.50717407
-0.3002835
-0.48251959
-0.35942585
-0.44983145
-0.25158646
-0.41075515
-0.0098031034
-0.38809511
0.19421045
-0.39311313
0.29595682
-0.40850092
0.34088155
-0.42204595
0.32999203
-0.49714809
0.2463991
-0.55442318
0.11422705
-0.59972107
-0.005748857
-0.62608748
-0.070208004
-0.64561912
-0.086401524
-0.66542686
-0.069571966
-0.6877023
-0.03759129
-0.71902951
-0.0034601463
-0.76165591
0.027623938
-0.81516444
0.053239863
-0.87934264
0.072043768
-0.9537591
0.083568897
-1.0375237
0.088157243
-1.1293771
0.086806355
-1.2278871
0.080938205
-1.3316842
0.072130482
-1.4397053
0.061865885
-1.5513707
0.051350887
-1.6665994
0.041433503
-1.7857143
0.032611446
-1.9093262
0.025098144
-2.0384282
0.018909239
-2.1742867
0.013942149
-2.3180796
0.010037897
-2.4709699
0.0070201371
-2.6340593
0.0047203813
-2.8087517
0.0029857764
-2.9963604
0.0016870773
-3.1989251
0.0007116593
-3.4170646
-0.51071011
0.29567613
-0.50672068
0.5629341
-0.49130561
0.6346057
-0.46732961
0.64000638
-0.43989125
0.55882301
-0.43084309
0.35587326
-0.45836578
0.096852091
-0.061200189
-0.50091949
-0.32762503
-0.47955471
-0.39076301
-0.45098497
-0.28705734
-0.41414828
-0.030665374
-0.38968668
0.19922739
-0.39300792
0.31486329
-0.41199666
0.36311209
-0.43073711
0.35726239
-0.44936079
0.26733172
-0.51818312
0.12141464
-0.5617532
-0.018512523
-0.58713164
-0.096217161
-0.60032824
-0.1146939
-0.61765107
-0.095583579
-0.63977609
-0.058931867
-0.66677507
-0.019238911
-0.70374291
0.016975169
-0.75155887
0.047475837
-0.80999777
0.070860679
-0.87881642
0.086424275
-0.95732551
0.094271826
-1.0443839
0.095231199
-1.1385693
0.090670083
-1.2383898
0.082240907
-1.3425386
0.071606814
-1.4501426
0.060210549
-1.56086
0.049135939
-1.6748509
0.039074293
-1.7926289
0.030372725
-1.9149385
0.023122954
-2.0428691
0.017254687
-2.1777438
0.012611604
-2.320727
0.0090054158
-2.4729647
0.0062471767
-2.6355425
0.0041655035
-2.8098463
0.0026110947
-2.9971817
0.0014598451
-3.1995725
0.00060813476
-3.4175814
-0.49351678
-0.07798071
-0.50179604
0.29116852
-0.49946562
0.57150421
-0.4855166
0.65329569
-0.46125328
0.66190165
-0.43796934
0.5664174
-0.43408081
0.33202991
-0.46699673
0.044860995
-0.35251468
-0.47574943
-0.41854241
-0.45157479
-0.32028154
-0.41754585
-0.052256502
-0.39234847
0.2027077
-0.39306031
0.3355868
-0.41370597
0.38739123
-0.43627894
0.38605599
-0.4595736
0.29858423
-0.48071299
0.12782792
-0.52473033
-0.030696186
-0.54973297
-0.12355963
-0.56002509
-0.14468184
-0.57065063
-0.12247779
-0.59110025
-0.081825237
-0.61727378
-0.036919993
-0.6495655
0.0046886611
-0.6919899
0.040227047
-0.74488725
0.068429007
-0.80820219
0.088380771
-0.88146626
0.099924413
-0.96371004
0.10366994
-1.053587
0.10086458
-1.1495477
0.093172443
-1.2500922
0.082397241
-1.354063
0.070210927
-1.4608199
0.057955015
-1.5702851
0.046551515
-1.6828499
0.036518971
-1.799201
0.028054833
-1.9201846
0.021139363
-2.046965
0.015629055
-2.1808965
0.011325421
-2.3231152
0.0080196411
-2.4747451
0.0055162177
-2.6368521
0.0036447394
-2.8108055
0.0022616735
-2.9978963
0.0012497025
-3.2001288
0.00051361376
-3.4180253
-0.47139891
-0.37434972
-0.48626678
-0.093097765
-0.49259209
0.28470919
-0.49149286
0.57788753
-0.47925378
0.67179512
-0.45647742
0.68094026
-0.43816904
0.57097115
-0.44035424
0.30582796
-0.47840354
-0.004570468
-0.44212354
-0.45196502
-0.35069614
-0.42094362
-0.073184309
-0.39640813
0.20417933
-0.39371148
0.35693432
-0.41438004
0.41334397
-0.43965972
0.41591456
-0.46617868
0.33185346
-0.49294191
0.1554264
-0.50844155
-0.042259369
-0.51332043
-0.14997659
-0.52353832
-0.17497209
-0.53003066
-0.14952765
-0.54392664
-0.10437362
-0.56892039
-0.055799931
-0.59884378
-0.0091006817
-0.63629029
0.031585555
-0.68390365
0.064747103
-0.74181939
0.089362611
-0.80986018
0.10499472
-0.88725492
0.11199254
-0.97279127
0.11141959
-1.064933
0.1048795
-1.1620447
0.094258815
-1.2627179
0.081432781
-1.3660019
0.068010361
-1.4715302
0.055178806
-1.5794915
0.043670403
-1.690496
0.033824941
-1.8053713
0.025698503
-1.9250375
0.019173803
-2.050706
0.014048157
-2.1837469
0.010092195
-2.3252528
0.0070846406
-2.4763201
0.0048287614
-2.6380028
0.0031583533
-2.8116388
0.0019372599
-2.9985106
0.0010558113
-3.2006057
0.00042729381
-3.4184028
-0.45224388
-0.46107289
-0.46854594
-0.3917853
-0.47811177
-0.10716751
-0.48288775
0.27651449
-0.4831334
0.58217037
-0.4729453
0.68875764
-0.4532926
0.69659153
-0.44064168
0.57172078
-0.44966795
0.27753139
-0.49179991
-0.050046401
-0.37748368
-0.4249602
-0.092464252
-0.4014538
0.20388074
-0.39599965
0.37780881
-0.4145562
0.44025653
-0.44129172
0.44616395
-0.46994867
0.36703723
-0.50146023
0.1840154
-0.52166121
-0.030461017
-0.52038898
-0.1754382
-0.48806786
-0.20417156
-0.49461965
-0.17681851
-0.50304841
-0.12638773
-0.52225927
-0.074353141
-0.55079511
-0.024061797
-0.58437654
0.021665295
-0.62690202
0.059844978
-0.6795918
0.089323835
-0.742439
0.10937557
-0.81494494
0.12006273
-0.89607141
0.12220972
-0.98437616
0.11728452
-1.0781483
0.10718306
-1.1757584
0.093937154
-1.2759723
0.079415269
-1.3781039
0.065096737
-1.4820771
0.051972044
-1.5883453
0.040567296
-1.6977054
0.031047306
-1.8110961
0.023340732
-1.9294786
0.01724917
-2.0540909
0.012524947
-2.1863009
0.00891845
-2.3271491
0.0062031553
-2.4777055
0.0041856012
-2.6390044
0.0027062206
-2.8123577
0.0016373328
-2.9990358
0.0008774136
-3.2010072
0.00034857163
-3.418724
-0.43009746
-0.3994129
-0.45457613
-0.47483501
-0.46461572
-0.40499382
-0.46967137
-0.11997582
-0.4731241
0.26691068
-0.47458069
0.58420404
-0.46706801
0.70302322
-0.45175189
0.70822658
-0.44545906
0.5679698
-0.4617789
0.24794753
-0.50633958
-0.090354335
-0.10986031
-0.40735548
0.20285402
-0.40031668
0.39686345
-0.41502297
0.46733955
-0.44163667
0.47566866
-0.47083455
0.40270813
-0.50571588
0.21486914
-0.53244355
-0.016124491
-0.53614918
-0.18413727
-0.51189296
-0.23234977
-0.46015388
-0.20373623
-0.46799364
-0.14912601
-0.48063595
-0.092133514
-0.50488484
-0.039338967
-0.53599105
0.01059803
-0.57381706