/*--------------------------------*- C++ -*----------------------------------*\
| =========                 |                                                 |
| \\      /  F ield         | OpenFOAM: The Open Source CFD Toolbox           |
|  \\    /   O peration     | Version:  v2012                                 |
|   \\  /    A nd           | Website:  www.openfoam.com                      |
|    \\/     M anipulation  |                                                 |
\*---------------------------------------------------------------------------*/
FoamFile
{
    version     2.0;
    format      ascii;
    class       pointVectorField;
    location    "115.351227390527441";
    object      pointDisplacement;
}
// * * * * * * * * * * * * * * * * * * * * * * * * * * * * * * * * * * * * * //

dimensions      [0 1 0 0 0 0 0];


internalField   nonuniform List<vector> 
18840
(
(1.9948508 0 0)
(1.9947185 0 0)
(1.9943254 0 0)
(1.9936779 0 0)
(1.9927808 0 0)
(1.9916372 0 0)
(1.9902494 0 0)
(1.9886182 0 0)
(1.9867439 0 0)
(1.9846256 0 0)
(1.9822619 0 0)
(1.9796506 0 0)
(1.9767891 0 0)
(1.973674 0 0)
(1.9703015 0 0)
(1.9666673 0 0)
(1.9627668 0 0)
(1.9585949 0 0)
(1.9541464 0 0)
(1.9494192 0 0)
(1.9434036 0 0)
(1.9948508 0 0)
(1.9947181 0 0)
(1.9943235 0 0)
(1.9936734 0 0)
(1.9927726 0 0)
(1.9916244 0 0)
(1.9902306 0 0)
(1.9885926 0 0)
(1.9867103 0 0)
(1.984583 0 0)
(1.9822094 0 0)
(1.9795875 0 0)
(1.9767145 0 0)
(1.9735874 0 0)
(1.9702023 0 0)
(1.9665554 0 0)
(1.9626419 0 0)
(1.9584572 0 0)
(1.9539958 0 0)
(1.949254 0 0)
(1.9442059 0 0)
(1.9948508 0 0)
(1.9947173 0 0)
(1.9943206 0 0)
(1.9936669 0 0)
(1.9927609 0 0)
(1.9916059 0 0)
(1.990204 0 0)
(1.9885562 0 0)
(1.9866627 0 0)
(1.9845228 0 0)
(1.9821352 0 0)
(1.979498 0 0)
(1.9766086 0 0)
(1.9734639 0 0)
(1.9700603 0 0)
(1.9663939 0 0)
(1.9624603 0 0)
(1.9582545 0 0)
(1.9537715 0 0)
(1.9490057 0 0)
(1.9438609 0 0)
(1.9948508 0 0)
(1.9947167 0 0)
(1.9943178 0 0)
(1.9936605 0 0)
(1.9927494 0 0)
(1.9915877 0 0)
(1.9901775 0 0)
(1.9885198 0 0)
(1.9866149 0 0)
(1.984462 0 0)
(1.98206 0 0)
(1.9794068 0 0)
(1.9765 0 0)
(1.9733367 0 0)
(1.9699132 0 0)
(1.9662258 0 0)
(1.96227 0 0)
(1.9580413 0 0)
(1.9535347 0 0)
(1.9487453 0 0)
(1.9435158 0 0)
(1.9948508 0 0)
(1.994716 0 0)
(1.9943151 0 0)
(1.9936542 0 0)
(1.992738 0 0)
(1.9915696 0 0)
(1.990151 0 0)
(1.9884832 0 0)
(1.9865665 0 0)
(1.9844001 0 0)
(1.981983 0 0)
(1.9793131 0 0)
(1.9763879 0 0)
(1.9732046 0 0)
(1.9697597 0 0)
(1.9660494 0 0)
(1.9620695 0 0)
(1.9578154 0 0)
(1.9532824 0 0)
(1.9484662 0 0)
(1.9431549 0 0)
(1.9948508 0 0)
(1.9947153 0 0)
(1.9943124 0 0)
(1.993648 0 0)
(1.9927267 0 0)
(1.9915515 0 0)
(1.9901243 0 0)
(1.9884462 0 0)
(1.9865173 0 0)
(1.984337 0 0)
(1.9819039 0 0)
(1.9792163 0 0)
(1.9762716 0 0)
(1.9730669 0 0)
(1.9695989 0 0)
(1.9658636 0 0)
(1.961857 0 0)
(1.9575747 0 0)
(1.9530119 0 0)
(1.9481646 0 0)
(1.9427742 0 0)
(1.9948508 0 0)
(1.9947147 0 0)
(1.9943098 0 0)
(1.993642 0 0)
(1.9927154 0 0)
(1.9915334 0 0)
(1.9900975 0 0)
(1.9884087 0 0)
(1.9864672 0 0)
(1.9842723 0 0)
(1.9818226 0 0)
(1.9791162 0 0)
(1.9761507 0 0)
(1.9729231 0 0)
(1.9694299 0 0)
(1.9656675 0 0)
(1.9616315 0 0)
(1.9573177 0 0)
(1.9527213 0 0)
(1.9478384 0 0)
(1.9423713 0 0)
(1.9948508 0 0)
(1.9947141 0 0)
(1.9943073 0 0)
(1.9936359 0 0)
(1.9927042 0 0)
(1.9915151 0 0)
(1.9900703 0 0)
(1.9883707 0 0)
(1.9864162 0 0)
(1.984206 0 0)
(1.9817389 0 0)
(1.9790127 0 0)
(1.9760249 0 0)
(1.9727727 0 0)
(1.9692524 0 0)
(1.9654602 0 0)
(1.961392 0 0)
(1.9570432 0 0)
(1.9524093 0 0)
(1.9474858 0 0)
(1.9419449 0 0)
(1.9948508 0 0)
(1.9947135 0 0)
(1.9943047 0 0)
(1.9936299 0 0)
(1.9926929 0 0)
(1.9914967 0 0)
(1.9900428 0 0)
(1.988332 0 0)
(1.986364 0 0)
(1.984138 0 0)
(1.9816525 0 0)
(1.9789055 0 0)
(1.9758942 0 0)
(1.9726155 0 0)
(1.969066 0 0)
(1.9652417 0 0)
(1.9611382 0 0)
(1.956751 0 0)
(1.9520753 0 0)
(1.9471065 0 0)
(1.9414951 0 0)
(1.9948508 0 0)
(1.9947129 0 0)
(1.9943022 0 0)
(1.9936238 0 0)
(1.9926816 0 0)
(1.9914781 0 0)
(1.9900149 0 0)
(1.9882925 0 0)
(1.9863106 0 0)
(1.9840682 0 0)
(1.9815636 0 0)
(1.9787946 0 0)
(1.9757584 0 0)
(1.9724517 0 0)
(1.968871 0 0)
(1.965012 0 0)
(1.9608703 0 0)
(1.9564412 0 0)
(1.9517198 0 0)
(1.946701 0 0)
(1.9410227 0 0)
(1.9948508 0 0)
(1.994712 0 0)
(1.9942986 0 0)
(1.9936154 0 0)
(1.992666 0 0)
(1.991453 0 0)
(1.9899777 0 0)
(1.9882405 0 0)
(1.986241 0 0)
(1.9839779 0 0)
(1.9814495 0 0)
(1.9786532 0 0)
(1.9755862 0 0)
(1.9722451 0 0)
(1.9686258 0 0)
(1.9647243 0 0)
(1.9605358 0 0)
(1.9560554 0 0)
(1.9512779 0 0)
(1.9461979 0 0)
(1.9404519 0 0)
(1.9948508 0 0)
(1.9947185 0 0)
(1.9943254 0 0)
(1.9936779 0 0)
(1.9927808 0 0)
(1.9916372 0 0)
(1.9902494 0 0)
(1.9886182 0 0)
(1.9867439 0 0)
(1.9846256 0 0)
(1.9822619 0 0)
(1.9796506 0 0)
(1.9767891 0 0)
(1.973674 0 0)
(1.9703015 0 0)
(1.9666673 0 0)
(1.9627668 0 0)
(1.9585949 0 0)
(1.9541464 0 0)
(1.9494192 0 0)
(1.9434036 0 0)
(1.9948508 0 0)
(1.9947181 0 0)
(1.9943235 0 0)
(1.9936734 0 0)
(1.9927726 0 0)
(1.9916244 0 0)
(1.9902306 0 0)
(1.9885926 0 0)
(1.9867103 0 0)
(1.984583 0 0)
(1.9822094 0 0)
(1.9795875 0 0)
(1.9767145 0 0)
(1.9735874 0 0)
(1.9702023 0 0)
(1.9665554 0 0)
(1.9626419 0 0)
(1.9584572 0 0)
(1.9539958 0 0)
(1.949254 0 0)
(1.9442059 0 0)
(1.9948508 0 0)
(1.9947173 0 0)
(1.9943206 0 0)
(1.9936669 0 0)
(1.9927609 0 0)
(1.9916059 0 0)
(1.990204 0 0)
(1.9885562 0 0)
(1.9866627 0 0)
(1.9845228 0 0)
(1.9821352 0 0)
(1.979498 0 0)
(1.9766086 0 0)
(1.9734639 0 0)
(1.9700603 0 0)
(1.9663939 0 0)
(1.9624603 0 0)
(1.9582545 0 0)
(1.9537715 0 0)
(1.9490057 0 0)
(1.9438609 0 0)
(1.9948508 0 0)
(1.9947167 0 0)
(1.9943178 0 0)
(1.9936605 0 0)
(1.9927494 0 0)
(1.9915877 0 0)
(1.9901775 0 0)
(1.9885198 0 0)
(1.9866149 0 0)
(1.984462 0 0)
(1.98206 0 0)
(1.9794068 0 0)
(1.9765 0 0)
(1.9733367 0 0)
(1.9699132 0 0)
(1.9662258 0 0)
(1.96227 0 0)
(1.9580413 0 0)
(1.9535347 0 0)
(1.9487453 0 0)
(1.9435158 0 0)
(1.9948508 0 0)
(1.994716 0 0)
(1.9943151 0 0)
(1.9936542 0 0)
(1.992738 0 0)
(1.9915696 0 0)
(1.990151 0 0)
(1.9884832 0 0)
(1.9865665 0 0)
(1.9844001 0 0)
(1.981983 0 0)
(1.9793131 0 0)
(1.9763879 0 0)
(1.9732046 0 0)
(1.9697597 0 0)
(1.9660494 0 0)
(1.9620695 0 0)
(1.9578154 0 0)
(1.9532824 0 0)
(1.9484662 0 0)
(1.9431549 0 0)
(1.9948508 0 0)
(1.9947153 0 0)
(1.9943124 0 0)
(1.993648 0 0)
(1.9927267 0 0)
(1.9915515 0 0)
(1.9901243 0 0)
(1.9884462 0 0)
(1.9865173 0 0)
(1.984337 0 0)
(1.9819039 0 0)
(1.9792163 0 0)
(1.9762716 0 0)
(1.9730669 0 0)
(1.9695989 0 0)
(1.9658636 0 0)
(1.961857 0 0)
(1.9575747 0 0)
(1.9530119 0 0)
(1.9481646 0 0)
(1.9427742 0 0)
(1.9948508 0 0)
(1.9947147 0 0)
(1.9943098 0 0)
(1.993642 0 0)
(1.9927154 0 0)
(1.9915334 0 0)
(1.9900975 0 0)
(1.9884087 0 0)
(1.9864672 0 0)
(1.9842723 0 0)
(1.9818226 0 0)
(1.9791162 0 0)
(1.9761507 0 0)
(1.9729231 0 0)
(1.9694299 0 0)
(1.9656675 0 0)
(1.9616315 0 0)
(1.9573177 0 0)
(1.9527213 0 0)
(1.9478384 0 0)
(1.9423713 0 0)
(1.9948508 0 0)
(1.9947141 0 0)
(1.9943073 0 0)
(1.9936359 0 0)
(1.9927042 0 0)
(1.9915151 0 0)
(1.9900703 0 0)
(1.9883707 0 0)
(1.9864162 0 0)
(1.984206 0 0)
(1.9817389 0 0)
(1.9790127 0 0)
(1.9760249 0 0)
(1.9727727 0 0)
(1.9692524 0 0)
(1.9654602 0 0)
(1.961392 0 0)
(1.9570432 0 0)
(1.9524093 0 0)
(1.9474858 0 0)
(1.9419449 0 0)
(1.9948508 0 0)
(1.9947135 0 0)
(1.9943047 0 0)
(1.9936299 0 0)
(1.9926929 0 0)
(1.9914967 0 0)
(1.9900428 0 0)
(1.988332 0 0)
(1.986364 0 0)
(1.984138 0 0)
(1.9816525 0 0)
(1.9789055 0 0)
(1.9758942 0 0)
(1.9726155 0 0)
(1.969066 0 0)
(1.9652417 0 0)
(1.9611382 0 0)
(1.956751 0 0)
(1.9520753 0 0)
(1.9471065 0 0)
(1.9414951 0 0)
(1.9948508 0 0)
(1.9947129 0 0)
(1.9943022 0 0)
(1.9936238 0 0)
(1.9926816 0 0)
(1.9914781 0 0)
(1.9900149 0 0)
(1.9882925 0 0)
(1.9863106 0 0)
(1.9840682 0 0)
(1.9815636 0 0)
(1.9787946 0 0)
(1.9757584 0 0)
(1.9724517 0 0)
(1.968871 0 0)
(1.965012 0 0)
(1.9608703 0 0)
(1.9564412 0 0)
(1.9517198 0 0)
(1.946701 0 0)
(1.9410227 0 0)
(1.9948508 0 0)
(1.994712 0 0)
(1.9942986 0 0)
(1.9936154 0 0)
(1.992666 0 0)
(1.991453 0 0)
(1.9899777 0 0)
(1.9882405 0 0)
(1.986241 0 0)
(1.9839779 0 0)
(1.9814495 0 0)
(1.9786532 0 0)
(1.9755862 0 0)
(1.9722451 0 0)
(1.9686258 0 0)
(1.9647243 0 0)
(1.9605358 0 0)
(1.9560554 0 0)
(1.9512779 0 0)
(1.9461979 0 0)
(1.9404519 0 0)
(1.9948508 0 0)
(1.9947195 0 0)
(1.9943296 0 0)
(1.9936876 0 0)
(1.9927986 0 0)
(1.9916659 0 0)
(1.9902915 0 0)
(1.9886761 0 0)
(1.9868194 0 0)
(1.9847199 0 0)
(1.9823755 0 0)
(1.9797833 0 0)
(1.9769395 0 0)
(1.9738395 0 0)
(1.9704785 0 0)
(1.9668503 0 0)
(1.9629487 0 0)
(1.9587665 0 0)
(1.9542958 0 0)
(1.9495321 0 0)
(1.9440296 0 0)
(1.9948508 0 0)
(1.9947192 0 0)
(1.9943285 0 0)
(1.9936854 0 0)
(1.9927947 0 0)
(1.9916599 0 0)
(1.990283 0 0)
(1.9886647 0 0)
(1.9868046 0 0)
(1.9847015 0 0)
(1.9823532 0 0)
(1.9797566 0 0)
(1.9769082 0 0)
(1.9738033 0 0)
(1.970437 0 0)
(1.9668034 0 0)
(1.962896 0 0)
(1.9587077 0 0)
(1.9542307 0 0)
(1.9494605 0 0)
(1.9439566 0 0)
(1.9948508 0 0)
(1.9947188 0 0)
(1.9943268 0 0)
(1.9936817 0 0)
(1.9927883 0 0)
(1.9916501 0 0)
(1.9902692 0 0)
(1.9886462 0 0)
(1.9867809 0 0)
(1.984672 0 0)
(1.9823175 0 0)
(1.9797143 0 0)
(1.9768589 0 0)
(1.9737467 0 0)
(1.9703727 0 0)
(1.9667311 0 0)
(1.9628156 0 0)
(1.9586191 0 0)
(1.9541339 0 0)
(1.9493554 0 0)
(1.9438596 0 0)
(1.9948508 0 0)
(1.9947185 0 0)
(1.9943255 0 0)
(1.9936788 0 0)
(1.9927833 0 0)
(1.9916425 0 0)
(1.9902584 0 0)
(1.9886318 0 0)
(1.9867624 0 0)
(1.9846492 0 0)
(1.98229 0 0)
(1.9796819 0 0)
(1.9768214 0 0)
(1.973704 0 0)
(1.9703249 0 0)
(1.9666783 0 0)
(1.9627579 0 0)
(1.9585568 0 0)
(1.9540676 0 0)
(1.9492853 0 0)
(1.9438118 0 0)
(1.9948508 0 0)
(1.9947182 0 0)
(1.9943246 0 0)
(1.9936768 0 0)
(1.9927797 0 0)
(1.991637 0 0)
(1.9902506 0 0)
(1.9886215 0 0)
(1.9867493 0 0)
(1.984633 0 0)
(1.9822706 0 0)
(1.9796593 0 0)
(1.9767956 0 0)
(1.9736752 0 0)
(1.9702933 0 0)
(1.9666444 0 0)
(1.9627221 0 0)
(1.9585199 0 0)
(1.9540303 0 0)
(1.9492486 0 0)
(1.943811 0 0)
(1.9948508 0 0)
(1.9947181 0 0)
(1.9943241 0 0)
(1.9936756 0 0)
(1.9927776 0 0)
(1.9916338 0 0)
(1.990246 0 0)
(1.9886152 0 0)
(1.9867413 0 0)
(1.9846232 0 0)
(1.9822591 0 0)
(1.9796461 0 0)
(1.976781 0 0)
(1.9736595 0 0)
(1.970277 0 0)
(1.9666281 0 0)
(1.9627068 0 0)
(1.9585064 0 0)
(1.9540199 0 0)
(1.9492424 0 0)
(1.9438536 0 0)
(1.9948508 0 0)
(1.9947181 0 0)
(1.9943239 0 0)
(1.9936752 0 0)
(1.9927769 0 0)
(1.9916326 0 0)
(1.9902442 0 0)
(1.9886127 0 0)
(1.986738 0 0)
(1.9846193 0 0)
(1.9822546 0 0)
(1.9796413 0 0)
(1.9767762 0 0)
(1.9736554 0 0)
(1.9702742 0 0)
(1.9666274 0 0)
(1.9627092 0 0)
(1.9585133 0 0)
(1.9540327 0 0)
(1.9492623 0 0)
(1.9439344 0 0)
(1.9948508 0 0)
(1.9947182 0 0)
(1.9943242 0 0)
(1.9936756 0 0)
(1.9927775 0 0)
(1.9916332 0 0)
(1.9902448 0 0)
(1.9886134 0 0)
(1.9867388 0 0)
(1.9846203 0 0)
(1.982256 0 0)
(1.9796435 0 0)
(1.9767797 0 0)
(1.9736607 0 0)
(1.9702821 0 0)
(1.966639 0 0)
(1.9627258 0 0)
(1.9585363 0 0)
(1.9540639 0 0)
(1.949303 0 0)
(1.9440469 0 0)
(1.9948508 0 0)
(1.9947183 0 0)
(1.9943247 0 0)
(1.9936766 0 0)
(1.992779 0 0)
(1.9916353 0 0)
(1.9902475 0 0)
(1.9886167 0 0)
(1.9867429 0 0)
(1.9846253 0 0)
(1.9822621 0 0)
(1.9796511 0 0)
(1.9767892 0 0)
(1.973673 0 0)
(1.970298 0 0)
(1.9666596 0 0)
(1.9627524 0 0)
(1.9585707 0 0)
(1.9541081 0 0)
(1.9493585 0 0)
(1.9441844 0 0)
(1.9948508 0 0)
(1.9947185 0 0)
(1.9943255 0 0)
(1.9936782 0 0)
(1.9927815 0 0)
(1.9916387 0 0)
(1.990252 0 0)
(1.9886222 0 0)
(1.9867496 0 0)
(1.9846332 0 0)
(1.9822716 0 0)
(1.9796625 0 0)
(1.976803 0 0)
(1.9736897 0 0)
(1.9703186 0 0)
(1.9666852 0 0)
(1.9627845 0 0)
(1.9586111 0 0)
(1.9541592 0 0)
(1.9494244 0 0)
(1.9443495 0 0)
(1.9948508 0 0)
(1.9947195 0 0)
(1.9943296 0 0)
(1.9936876 0 0)
(1.9927986 0 0)
(1.9916659 0 0)
(1.9902915 0 0)
(1.9886761 0 0)
(1.9868194 0 0)
(1.9847199 0 0)
(1.9823755 0 0)
(1.9797833 0 0)
(1.9769395 0 0)
(1.9738395 0 0)
(1.9704785 0 0)
(1.9668503 0 0)
(1.9629487 0 0)
(1.9587665 0 0)
(1.9542958 0 0)
(1.9495321 0 0)
(1.9440296 0 0)
(1.9948508 0 0)
(1.9947192 0 0)
(1.9943285 0 0)
(1.9936854 0 0)
(1.9927947 0 0)
(1.9916599 0 0)
(1.990283 0 0)
(1.9886647 0 0)
(1.9868046 0 0)
(1.9847015 0 0)
(1.9823532 0 0)
(1.9797566 0 0)
(1.9769082 0 0)
(1.9738033 0 0)
(1.970437 0 0)
(1.9668034 0 0)
(1.962896 0 0)
(1.9587077 0 0)
(1.9542307 0 0)
(1.9494605 0 0)
(1.9439566 0 0)
(1.9948508 0 0)
(1.9947188 0 0)
(1.9943268 0 0)
(1.9936817 0 0)
(1.9927883 0 0)
(1.9916501 0 0)
(1.9902692 0 0)
(1.9886462 0 0)
(1.9867809 0 0)
(1.984672 0 0)
(1.9823175 0 0)
(1.9797143 0 0)
(1.9768589 0 0)
(1.9737467 0 0)
(1.9703727 0 0)
(1.9667311 0 0)
(1.9628156 0 0)
(1.9586191 0 0)
(1.9541339 0 0)
(1.9493554 0 0)
(1.9438596 0 0)
(1.9948508 0 0)
(1.9947185 0 0)
(1.9943255 0 0)
(1.9936788 0 0)
(1.9927833 0 0)
(1.9916425 0 0)
(1.9902584 0 0)
(1.9886318 0 0)
(1.9867624 0 0)
(1.9846492 0 0)
(1.98229 0 0)
(1.9796819 0 0)
(1.9768214 0 0)
(1.973704 0 0)
(1.9703249 0 0)
(1.9666783 0 0)
(1.9627579 0 0)
(1.9585568 0 0)
(1.9540676 0 0)
(1.9492853 0 0)
(1.9438118 0 0)
(1.9948508 0 0)
(1.9947182 0 0)
(1.9943246 0 0)
(1.9936768 0 0)
(1.9927797 0 0)
(1.991637 0 0)
(1.9902506 0 0)
(1.9886215 0 0)
(1.9867493 0 0)
(1.984633 0 0)
(1.9822706 0 0)
(1.9796593 0 0)
(1.9767956 0 0)
(1.9736752 0 0)
(1.9702933 0 0)
(1.9666444 0 0)
(1.9627221 0 0)
(1.9585199 0 0)
(1.9540303 0 0)
(1.9492486 0 0)
(1.943811 0 0)
(1.9948508 0 0)
(1.9947181 0 0)
(1.9943241 0 0)
(1.9936756 0 0)
(1.9927776 0 0)
(1.9916338 0 0)
(1.990246 0 0)
(1.9886152 0 0)
(1.9867413 0 0)
(1.9846232 0 0)
(1.9822591 0 0)
(1.9796461 0 0)
(1.976781 0 0)
(1.9736595 0 0)
(1.970277 0 0)
(1.9666281 0 0)
(1.9627068 0 0)
(1.9585064 0 0)
(1.9540199 0 0)
(1.9492424 0 0)
(1.9438536 0 0)
(1.9948508 0 0)
(1.9947181 0 0)
(1.9943239 0 0)
(1.9936752 0 0)
(1.9927769 0 0)
(1.9916326 0 0)
(1.9902442 0 0)
(1.9886127 0 0)
(1.986738 0 0)
(1.9846193 0 0)
(1.9822546 0 0)
(1.9796413 0 0)
(1.9767762 0 0)
(1.9736554 0 0)
(1.9702742 0 0)
(1.9666274 0 0)
(1.9627092 0 0)
(1.9585133 0 0)
(1.9540327 0 0)
(1.9492623 0 0)
(1.9439344 0 0)
(1.9948508 0 0)
(1.9947182 0 0)
(1.9943242 0 0)
(1.9936756 0 0)
(1.9927775 0 0)
(1.9916332 0 0)
(1.9902448 0 0)
(1.9886134 0 0)
(1.9867388 0 0)
(1.9846203 0 0)
(1.982256 0 0)
(1.9796435 0 0)
(1.9767797 0 0)
(1.9736607 0 0)
(1.9702821 0 0)
(1.966639 0 0)
(1.9627258 0 0)
(1.9585363 0 0)
(1.9540639 0 0)
(1.949303 0 0)
(1.9440469 0 0)
(1.9948508 0 0)
(1.9947183 0 0)
(1.9943247 0 0)
(1.9936766 0 0)
(1.992779 0 0)
(1.9916353 0 0)
(1.9902475 0 0)
(1.9886167 0 0)
(1.9867429 0 0)
(1.9846253 0 0)
(1.9822621 0 0)
(1.9796511 0 0)
(1.9767892 0 0)
(1.973673 0 0)
(1.970298 0 0)
(1.9666596 0 0)
(1.9627524 0 0)
(1.9585707 0 0)
(1.9541081 0 0)
(1.9493585 0 0)
(1.9441844 0 0)
(1.9948508 0 0)
(1.9947185 0 0)
(1.9943255 0 0)
(1.9936782 0 0)
(1.9927815 0 0)
(1.9916387 0 0)
(1.990252 0 0)
(1.9886222 0 0)
(1.9867496 0 0)
(1.9846332 0 0)
(1.9822716 0 0)
(1.9796625 0 0)
(1.976803 0 0)
(1.9736897 0 0)
(1.9703186 0 0)
(1.9666852 0 0)
(1.9627845 0 0)
(1.9586111 0 0)
(1.9541592 0 0)
(1.9494244 0 0)
(1.9443495 0 0)
(1.9372079 0 0)
(1.9294604 0 0)
(1.921215 0 0)
(1.9124548 0 0)
(1.9031658 0 0)
(1.8933327 0 0)
(1.8829384 0 0)
(1.8719635 0 0)
(1.8603844 0 0)
(1.8481717 0 0)
(1.8352947 0 0)
(1.8217226 0 0)
(1.8074239 0 0)
(1.7923641 0 0)
(1.7765046 0 0)
(1.7598025 0 0)
(1.742212 0 0)
(1.7236857 0 0)
(1.704173 0 0)
(1.6836196 0 0)
(1.6619667 0 0)
(1.6391503 0 0)
(1.6151011 0 0)
(1.5897455 0 0)
(1.5630055 0 0)
(1.5347955 0 0)
(1.505021 0 0)
(1.4735813 0 0)
(1.4403688 0 0)
(1.4052653 0 0)
(1.3681413 0 0)
(1.3288592 0 0)
(1.2872706 0 0)
(1.2432131 0 0)
(1.1965108 0 0)
(1.1469751 0 0)
(1.0943996 0 0)
(1.0385591 0 0)
(0.97921242 0 0)
(0.9161019 0 0)
(0.84894234 0 0)
(0.7774163 0 0)
(0.7011833 0 0)
(0.61987942 0 0)
(0.53309526 0 0)
(0.44037822 0 0)
(0.34124284 0 0)
(0.23515001 0 0)
(0.12148333 0 0)
(0 0 0)
(1.9371455 0 0)
(1.9294143 0 0)
(1.9211844 0 0)
(1.9124389 0 0)
(1.9031641 0 0)
(1.8933447 0 0)
(1.882964 0 0)
(1.872003 0 0)
(1.8604376 0 0)
(1.8482383 0 0)
(1.8353738 0 0)
(1.8218135 0 0)
(1.8075257 0 0)
(1.792476 0 0)
(1.7766262 0 0)
(1.7599331 0 0)
(1.7423509 0 0)
(1.7238322 0 0)
(1.7043266 0 0)
(1.6837796 0 0)
(1.6621325 0 0)
(1.6393215 0 0)
(1.615277 0 0)
(1.5899254 0 0)
(1.563189 0 0)
(1.5349821 0 0)
(1.50521 0 0)
(1.473772 0 0)
(1.4405607 0 0)
(1.4054577 0 0)
(1.3683336 0 0)
(1.3290505 0 0)
(1.2874604 0 0)
(1.2434005 0 0)
(1.1966951 0 0)
(1.1471554 0 0)
(1.094575 0 0)
(1.0387287 0 0)
(0.97937504 0 0)
(0.91625652 0 0)
(0.84908797 0 0)
(0.77755188 0 0)
(0.70130758 0 0)
(0.61999116 0 0)
(0.53319292 0 0)
(0.44046007 0 0)
(0.3413071 0 0)
(0.23519481 0 0)
(0.12150663 0 0)
(0 0 0)
(1.9370895 0 0)
(1.9294139 0 0)
(1.921237 0 0)
(1.9125419 0 0)
(1.9033152 0 0)
(1.8935418 0 0)
(1.8832054 0 0)
(1.8722871 0 0)
(1.8607626 0 0)
(1.8486022 0 0)
(1.8357745 0 0)
(1.8222485 0 0)
(1.8079928 0 0)
(1.7929734 0 0)
(1.7771521 0 0)
(1.7604857 0 0)
(1.7429284 0 0)
(1.7244327 0 0)
(1.7049484 0 0)
(1.6844211 0 0)
(1.6627918 0 0)
(1.6399969 0 0)
(1.6159668 0 0)
(1.590628 0 0)
(1.5639026 0 0)
(1.5357051 0 0)
(1.5059407 0 0)
(1.4745084 0 0)
(1.4413008 0 0)
(1.4061996 0 0)
(1.3690749 0 0)
(1.329789 0 0)
(1.2881937 0 0)
(1.2441259 0 0)
(1.1974098 0 0)
(1.1478563 0 0)
(1.0952588 0 0)
(1.0393919 0 0)
(0.98001362 0 0)
(0.9168664 0 0)
(0.84966475 0 0)
(0.7780908 0 0)
(0.70180342 0 0)
(0.62043814 0 0)
(0.53358462 0 0)
(0.44078953 0 0)
(0.34156676 0 0)
(0.23537654 0 0)
(0.12160152 0 0)
(0 0 0)
(1.9371153 0 0)
(1.9295355 0 0)
(1.92145 0 0)
(1.9128418 0 0)
(1.9036976 0 0)
(1.8940029 0 0)
(1.8837415 0 0)
(1.8728949 0 0)
(1.8614385 0 0)
(1.8493423 0 0)
(1.8365751 0 0)
(1.8231058 0 0)
(1.8089032 0 0)
(1.7939336 0 0)
(1.7781591 0 0)
(1.7615366 0 0)
(1.74402 0 0)
(1.7255621 0 0)
(1.7061126 0 0)
(1.6856169 0 0)
(1.6640163 0 0)
(1.6412473 0 0)
(1.6172401 0 0)
(1.5919212 0 0)
(1.565213 0 0)
(1.5370298 0 0)
(1.5072765 0 0)
(1.475852 0 0)
(1.442649 0 0)
(1.4075487 0 0)
(1.3704212 0 0)
(1.3311284 0 0)
(1.2895219 0 0)
(1.2454384 0 0)
(1.1987016 0 0)
(1.149122 0 0)
(1.0964927 0 0)
(1.0405877 0 0)
(0.98116436 0 0)
(0.91796484 0 0)
(0.85070301 0 0)
(0.77906031 0 0)
(0.70269478 0 0)
(0.62124104 0 0)
(0.53428777 0 0)
(0.44138058 0 0)
(0.34203239 0 0)
(0.23570226 0 0)
(0.12177144 0 0)
(0 0 0)
(1.9372198 0 0)
(1.9297755 0 0)
(1.9218192 0 0)
(1.913334 0 0)
(1.9043066 0 0)
(1.8947227 0 0)
(1.8845667 0 0)
(1.8738203 0 0)
(1.8624583 0 0)
(1.8504513 0 0)
(1.8377679 0 0)
(1.8243776 0 0)
(1.8102488 0 0)
(1.7953485 0 0)
(1.7796389 0 0)
(1.7630771 0 0)
(1.745617 0 0)
(1.7272113 0 0)
(1.7078099 0 0)
(1.6873579 0 0)
(1.6657967 0 0)
(1.6430629 0 0)
(1.6190868 0 0)
(1.593795 0 0)
(1.5671098 0 0)
(1.5389456 0 0)
(1.5092069 0 0)
(1.4777924 0 0)
(1.4445946 0 0)
(1.4094945 0 0)
(1.3723618 0 0)
(1.333058 0 0)
(1.2914345 0 0)
(1.2473276 0 0)
(1.2005602 0 0)
(1.1509424 0 0)
(1.0982668 0 0)
(1.0423064 0 0)
(0.98281804 0 0)
(0.91954303 0 0)
(0.8521944 0 0)
(0.78045255 0 0)
(0.70397455 0 0)
(0.62239343 0 0)
(0.53529672 0 0)
(0.44222855 0 0)
(0.34270026 0 0)
(0.23616924 0 0)
(0.12201505 0 0)
(0 0 0)
(1.9373984 0 0)
(1.9301287 0 0)
(1.9223388 0 0)
(1.9140121 0 0)
(1.9051349 0 0)
(1.8956935 0 0)
(1.8856729 0 0)
(1.8750544 0 0)
(1.8638127 0 0)
(1.8519189 0 0)
(1.839343 0 0)
(1.8260538 0 0)
(1.8120195 0 0)
(1.7972075 0 0)
(1.7815808 0 0)
(1.7650963 0 0)
(1.747708 0 0)
(1.729369 0 0)
(1.7100286 0 0)
(1.689632 0 0)
(1.6681206 0 0)
(1.6454313 0 0)
(1.6214942 0 0)
(1.5962361 0 0)
(1.5695796 0 0)
(1.5414389 0 0)
(1.511718 0 0)
(1.4803154 0 0)
(1.4471234 0 0)
(1.4120228 0 0)
(1.3748825 0 0)
(1.3355637 0 0)
(1.2939175 0 0)
(1.2497794 0 0)
(1.2029718 0 0)
(1.1533041 0 0)
(1.1005678 0 0)
(1.0445354 0 0)
(0.98496236 0 0)
(0.92158923 0 0)
(0.85412776 0 0)
(0.78225715 0 0)
(0.70563302 0 0)
(0.62388668 0 0)
(0.53660389 0 0)
(0.44332704 0 0)
(0.34356524 0 0)
(0.23677398 0 0)
(0.12233048 0 0)
(0 0 0)
(1.9376449 0 0)
(1.9305874 0 0)
(1.9230006 0 0)
(1.9148667 0 0)
(1.9061724 0 0)
(1.8969046 0 0)
(1.8870488 0 0)
(1.8765854 0 0)
(1.8654891 0 0)
(1.8537322 0 0)
(1.8412871 0 0)
(1.8281218 0 0)
(1.8142023 0 0)
(1.7994972 0 0)
(1.7839709 0 0)
(1.76758 0 0)
(1.7502786 0 0)
(1.7320201 0 0)
(1.7127537 0 0)
(1.6924237 0 0)
(1.6709723 0 0)
(1.6483362 0 0)
(1.6244456 0 0)
(1.5992276 0 0)
(1.5726053 0 0)
(1.5444922 0 0)
(1.5147921 0 0)
(1.4834033 0 0)
(1.4502176 0 0)
(1.4151153 0 0)
(1.377965 0 0)
(1.3386273 0 0)
(1.2969528 0 0)
(1.2527761 0 0)
(1.2059188 0 0)
(1.1561895 0 0)
(1.1033789 0 0)
(1.0472581 0 0)
(0.98758139 0 0)
(0.92408815 0 0)
(0.85648871 0 0)
(0.78446056 0 0)
(0.70765779 0 0)
(0.62570948 0 0)
(0.5381994 0 0)
(0.4446677 0 0)
(0.34462084 0 0)
(0.23751188 0 0)
(0.12271525 0 0)
(0 0 0)
(1.9379517 0 0)
(1.931143 0 0)
(1.9237943 0 0)
(1.9158866 0 0)
(1.9074068 0 0)
(1.8983424 0 0)
(1.8886801 0 0)
(1.8783995 0 0)
(1.8674731 0 0)
(1.8558763 0 0)
(1.8435866 0 0)
(1.8305682 0 0)
(1.8167824 0 0)
(1.8022017 0 0)
(1.7867927 0 0)
(1.7705111 0 0)
(1.7533109 0 0)
(1.7351466 0 0)
(1.7159669 0 0)
(1.6957146 0 0)
(1.6743325 0 0)
(1.6517583 0 0)
(1.6279211 0 0)
(1.6027491 0 0)
(1.5761658 0 0)
(1.5480843 0 0)
(1.5184078 0 0)
(1.4870341 0 0)
(1.453855 0 0)
(1.4187502 0 0)
(1.3815873 0 0)
(1.3422268 0 0)
(1.3005183 0 0)
(1.2562957 0 0)
(1.2093796 0 0)
(1.1595777 0 0)
(1.1066794 0 0)
(1.0504544 0 0)
(0.99065573 0 0)
(0.92702132 0 0)
(0.85925963 0 0)
(0.78704639 0 0)
(0.71003376 0 0)
(0.62784829 0 0)
(0.54007131 0 0)
(0.44624049 0 0)
(0.34585912 0 0)
(0.23837736 0 0)
(0.12316637 0 0)
(0 0 0)
(1.9383099 0 0)
(1.9317851 0 0)
(1.9247087 0 0)
(1.9170597 0 0)
(1.908824 0 0)
(1.8999924 0 0)
(1.8905539 0 0)
(1.8804853 0 0)
(1.8697565 0 0)
(1.8583444 0 0)
(1.8462279 0 0)
(1.8333728 0 0)
(1.8197411 0 0)
(1.8053044 0 0)
(1.7900298 0 0)
(1.773873 0 0)
(1.7567873 0 0)
(1.7387297 0 0)
(1.7196484 0 0)
(1.6994828 0 0)
(1.678179 0 0)
(1.6556749 0 0)
(1.6318974 0 0)
(1.6067765 0 0)
(1.5802367 0 0)
(1.5521903 0 0)
(1.5225397 0 0)
(1.4911824 0 0)
(1.45801 0 0)
(1.4229014 0 0)
(1.3857235 0 0)
(1.3463361 0 0)
(1.3045883 0 0)
(1.2603127 0 0)
(1.213329 0 0)
(1.1634437 0 0)
(1.110445 0 0)
(1.0541008 0 0)
(0.99416277 0 0)
(0.93036705 0 0)
(0.86242006 0 0)
(0.78999539 0 0)
(0.71274318 0 0)
(0.63028709 0 0)
(0.54220571 0 0)
(0.44803364 0 0)
(0.34727072 0 0)
(0.23936377 0 0)
(0.12368042 0 0)
(0 0 0)
(1.9387288 0 0)
(1.9325243 0 0)
(1.925755 0 0)
(1.918397 0 0)
(1.9104384 0 0)
(1.901873 0 0)
(1.892687 0 0)
(1.8828561 0 0)
(1.8723518 0 0)
(1.8611472 0 0)
(1.8492204 0 0)
(1.8365464 0 0)
(1.8230899 0 0)
(1.8088165 0 0)
(1.7936928 0 0)
(1.7776747 0 0)
(1.7607139 0 0)
(1.7427712 0 0)
(1.7237962 0 0)
(1.7037277 0 0)
(1.6825127 0 0)
(1.6600859 0 0)
(1.6363723 0 0)
(1.6113059 0 0)
(1.584813 0 0)
(1.5568041 0 0)
(1.5271808 0 0)
(1.4958402 0 0)
(1.4626736 0 0)
(1.4275591 0 0)
(1.3903628 0 0)
(1.3509438 0 0)
(1.3091506 0 0)
(1.2648144 0 0)
(1.2177538 0 0)
(1.167774 0 0)
(1.1146617 0 0)
(1.0581832 0 0)
(0.99808834 0 0)
(0.93411134 0 0)
(0.86595625 0 0)
(0.79329434 0 0)
(0.71577341 0 0)
(0.63301413 0 0)
(0.54459195 0 0)
(0.45003792 0 0)
(0.34884816 0 0)
(0.2404658 0 0)
(0.12425442 0 0)
(0 0 0)
(1.9377901 0 0)
(1.9318872 0 0)
(1.9254105 0 0)
(1.9183367 0 0)
(1.910657 0 0)
(1.9023606 0 0)
(1.8934281 0 0)
(1.88384 0 0)
(1.8735688 0 0)
(1.8625835 0 0)
(1.8508627 0 0)
(1.8383859 0 0)
(1.8251188 0 0)
(1.8110244 0 0)
(1.7960689 0 0)
(1.7802078 0 0)
(1.7633942 0 0)
(1.7455896 0 0)
(1.7267454 0 0)
(1.7068021 0 0)
(1.6857031 0 0)
(1.6633792 0 0)
(1.6397593 0 0)
(1.6147802 0 0)
(1.588367 0 0)
(1.5604296 0 0)
(1.5308687 0 0)
(1.4995812 0 0)
(1.4664581 0 0)
(1.4313765 0 0)
(1.3942019 0 0)
(1.3547928 0 0)
(1.3129965 0 0)
(1.2686432 0 0)
(1.2215501 0 0)
(1.1715211 0 0)
(1.1183413 0 0)
(1.0617752 0 0)
(1.0015706 0 0)
(0.93745939 0 0)
(0.86914337 0 0)
(0.79629113 0 0)
(0.7185478 0 0)
(0.63553077 0 0)
(0.54681205 0 0)
(0.45191886 0 0)
(0.35034296 0 0)
(0.24152357 0 0)
(0.12482009 0 0)
(0 0 0)
(1.9372079 0 0)
(1.9294604 0 0)
(1.921215 0 0)
(1.9124548 0 0)
(1.9031658 0 0)
(1.8933327 0 0)
(1.8829384 0 0)
(1.8719635 0 0)
(1.8603844 0 0)
(1.8481717 0 0)
(1.8352947 0 0)
(1.8217226 0 0)
(1.8074239 0 0)
(1.7923641 0 0)
(1.7765046 0 0)
(1.7598025 0 0)
(1.742212 0 0)
(1.7236857 0 0)
(1.704173 0 0)
(1.6836196 0 0)
(1.6619667 0 0)
(1.6391503 0 0)
(1.6151011 0 0)
(1.5897455 0 0)
(1.5630055 0 0)
(1.5347955 0 0)
(1.505021 0 0)
(1.4735813 0 0)
(1.4403688 0 0)
(1.4052653 0 0)
(1.3681413 0 0)
(1.3288592 0 0)
(1.2872706 0 0)
(1.2432131 0 0)
(1.1965108 0 0)
(1.1469751 0 0)
(1.0943996 0 0)
(1.0385591 0 0)
(0.97921242 0 0)
(0.9161019 0 0)
(0.84894234 0 0)
(0.7774163 0 0)
(0.7011833 0 0)
(0.61987942 0 0)
(0.53309526 0 0)
(0.44037822 0 0)
(0.34124284 0 0)
(0.23515001 0 0)
(0.12148333 0 0)
(0 0 0)
(1.9371455 0 0)
(1.9294143 0 0)
(1.9211844 0 0)
(1.9124389 0 0)
(1.9031641 0 0)
(1.8933447 0 0)
(1.882964 0 0)
(1.872003 0 0)
(1.8604376 0 0)
(1.8482383 0 0)
(1.8353738 0 0)
(1.8218135 0 0)
(1.8075257 0 0)
(1.792476 0 0)
(1.7766262 0 0)
(1.7599331 0 0)
(1.7423509 0 0)
(1.7238322 0 0)
(1.7043266 0 0)
(1.6837796 0 0)
(1.6621325 0 0)
(1.6393215 0 0)
(1.615277 0 0)
(1.5899254 0 0)
(1.563189 0 0)
(1.5349821 0 0)
(1.50521 0 0)
(1.473772 0 0)
(1.4405607 0 0)
(1.4054577 0 0)
(1.3683336 0 0)
(1.3290505 0 0)
(1.2874604 0 0)
(1.2434005 0 0)
(1.1966951 0 0)
(1.1471554 0 0)
(1.094575 0 0)
(1.0387287 0 0)
(0.97937504 0 0)
(0.91625652 0 0)
(0.84908797 0 0)
(0.77755188 0 0)
(0.70130758 0 0)
(0.61999116 0 0)
(0.53319292 0 0)
(0.44046007 0 0)
(0.3413071 0 0)
(0.23519481 0 0)
(0.12150663 0 0)
(0 0 0)
(1.9370895 0 0)
(1.9294139 0 0)
(1.921237 0 0)
(1.9125419 0 0)
(1.9033152 0 0)
(1.8935418 0 0)
(1.8832054 0 0)
(1.8722871 0 0)
(1.8607626 0 0)
(1.8486022 0 0)
(1.8357745 0 0)
(1.8222485 0 0)
(1.8079928 0 0)
(1.7929734 0 0)
(1.7771521 0 0)
(1.7604857 0 0)
(1.7429284 0 0)
(1.7244327 0 0)
(1.7049484 0 0)
(1.6844211 0 0)
(1.6627918 0 0)
(1.6399969 0 0)
(1.6159668 0 0)
(1.590628 0 0)
(1.5639026 0 0)
(1.5357051 0 0)
(1.5059407 0 0)
(1.4745084 0 0)
(1.4413008 0 0)
(1.4061996 0 0)
(1.3690749 0 0)
(1.329789 0 0)
(1.2881937 0 0)
(1.2441259 0 0)
(1.1974098 0 0)
(1.1478563 0 0)
(1.0952588 0 0)
(1.0393919 0 0)
(0.98001362 0 0)
(0.9168664 0 0)
(0.84966475 0 0)
(0.7780908 0 0)
(0.70180342 0 0)
(0.62043814 0 0)
(0.53358462 0 0)
(0.44078953 0 0)
(0.34156676 0 0)
(0.23537654 0 0)
(0.12160152 0 0)
(0 0 0)
(1.9371153 0 0)
(1.9295355 0 0)
(1.92145 0 0)
(1.9128418 0 0)
(1.9036976 0 0)
(1.8940029 0 0)
(1.8837415 0 0)
(1.8728949 0 0)
(1.8614385 0 0)
(1.8493423 0 0)
(1.8365751 0 0)
(1.8231058 0 0)
(1.8089032 0 0)
(1.7939336 0 0)
(1.7781591 0 0)
(1.7615366 0 0)
(1.74402 0 0)
(1.7255621 0 0)
(1.7061126 0 0)
(1.6856169 0 0)
(1.6640163 0 0)
(1.6412473 0 0)
(1.6172401 0 0)
(1.5919212 0 0)
(1.565213 0 0)
(1.5370298 0 0)
(1.5072765 0 0)
(1.475852 0 0)
(1.442649 0 0)
(1.4075487 0 0)
(1.3704212 0 0)
(1.3311284 0 0)
(1.2895219 0 0)
(1.2454384 0 0)
(1.1987016 0 0)
(1.149122 0 0)
(1.0964927 0 0)
(1.0405877 0 0)
(0.98116436 0 0)
(0.91796484 0 0)
(0.85070301 0 0)
(0.77906031 0 0)
(0.70269478 0 0)
(0.62124104 0 0)
(0.53428777 0 0)
(0.44138058 0 0)
(0.34203239 0 0)
(0.23570226 0 0)
(0.12177144 0 0)
(0 0 0)
(1.9372198 0 0)
(1.9297755 0 0)
(1.9218192 0 0)
(1.913334 0 0)
(1.9043066 0 0)
(1.8947227 0 0)
(1.8845667 0 0)
(1.8738203 0 0)
(1.8624583 0 0)
(1.8504513 0 0)
(1.8377679 0 0)
(1.8243776 0 0)
(1.8102488 0 0)
(1.7953485 0 0)
(1.7796389 0 0)
(1.7630771 0 0)
(1.745617 0 0)
(1.7272113 0 0)
(1.7078099 0 0)
(1.6873579 0 0)
(1.6657967 0 0)
(1.6430629 0 0)
(1.6190868 0 0)
(1.593795 0 0)
(1.5671098 0 0)
(1.5389456 0 0)
(1.5092069 0 0)
(1.4777924 0 0)
(1.4445946 0 0)
(1.4094945 0 0)
(1.3723618 0 0)
(1.333058 0 0)
(1.2914345 0 0)
(1.2473276 0 0)
(1.2005602 0 0)
(1.1509424 0 0)
(1.0982668 0 0)
(1.0423064 0 0)
(0.98281804 0 0)
(0.91954303 0 0)
(0.8521944 0 0)
(0.78045255 0 0)
(0.70397455 0 0)
(0.62239343 0 0)
(0.53529672 0 0)
(0.44222855 0 0)
(0.34270026 0 0)
(0.23616924 0 0)
(0.12201505 0 0)
(0 0 0)
(1.9373984 0 0)
(1.9301287 0 0)
(1.9223388 0 0)
(1.9140121 0 0)
(1.9051349 0 0)
(1.8956935 0 0)
(1.8856729 0 0)
(1.8750544 0 0)
(1.8638127 0 0)
(1.8519189 0 0)
(1.839343 0 0)
(1.8260538 0 0)
(1.8120195 0 0)
(1.7972075 0 0)
(1.7815808 0 0)
(1.7650963 0 0)
(1.747708 0 0)
(1.729369 0 0)
(1.7100286 0 0)
(1.689632 0 0)
(1.6681206 0 0)
(1.6454313 0 0)
(1.6214942 0 0)
(1.5962361 0 0)
(1.5695796 0 0)
(1.5414389 0 0)
(1.511718 0 0)
(1.4803154 0 0)
(1.4471234 0 0)
(1.4120228 0 0)
(1.3748825 0 0)
(1.3355637 0 0)
(1.2939175 0 0)
(1.2497794 0 0)
(1.2029718 0 0)
(1.1533041 0 0)
(1.1005678 0 0)
(1.0445354 0 0)
(0.98496236 0 0)
(0.92158923 0 0)
(0.85412776 0 0)
(0.78225715 0 0)
(0.70563302 0 0)
(0.62388668 0 0)
(0.53660389 0 0)
(0.44332704 0 0)
(0.34356524 0 0)
(0.23677398 0 0)
(0.12233048 0 0)
(0 0 0)
(1.9376449 0 0)
(1.9305874 0 0)
(1.9230006 0 0)
(1.9148667 0 0)
(1.9061724 0 0)
(1.8969046 0 0)
(1.8870488 0 0)
(1.8765854 0 0)
(1.8654891 0 0)
(1.8537322 0 0)
(1.8412871 0 0)
(1.8281218 0 0)
(1.8142023 0 0)
(1.7994972 0 0)
(1.7839709 0 0)
(1.76758 0 0)
(1.7502786 0 0)
(1.7320201 0 0)
(1.7127537 0 0)
(1.6924237 0 0)
(1.6709723 0 0)
(1.6483362 0 0)
(1.6244456 0 0)
(1.5992276 0 0)
(1.5726053 0 0)
(1.5444922 0 0)
(1.5147921 0 0)
(1.4834033 0 0)
(1.4502176 0 0)
(1.4151153 0 0)
(1.377965 0 0)
(1.3386273 0 0)
(1.2969528 0 0)
(1.2527761 0 0)
(1.2059188 0 0)
(1.1561895 0 0)
(1.1033789 0 0)
(1.0472581 0 0)
(0.98758139 0 0)
(0.92408815 0 0)
(0.85648871 0 0)
(0.78446056 0 0)
(0.70765779 0 0)
(0.62570948 0 0)
(0.5381994 0 0)
(0.4446677 0 0)
(0.34462084 0 0)
(0.23751188 0 0)
(0.12271525 0 0)
(0 0 0)
(1.9379517 0 0)
(1.931143 0 0)
(1.9237943 0 0)
(1.9158866 0 0)
(1.9074068 0 0)
(1.8983424 0 0)
(1.8886801 0 0)
(1.8783995 0 0)
(1.8674731 0 0)
(1.8558763 0 0)
(1.8435866 0 0)
(1.8305682 0 0)
(1.8167824 0 0)
(1.8022017 0 0)
(1.7867927 0 0)
(1.7705111 0 0)
(1.7533109 0 0)
(1.7351466 0 0)
(1.7159669 0 0)
(1.6957146 0 0)
(1.6743325 0 0)
(1.6517583 0 0)
(1.6279211 0 0)
(1.6027491 0 0)
(1.5761658 0 0)
(1.5480843 0 0)
(1.5184078 0 0)
(1.4870341 0 0)
(1.453855 0 0)
(1.4187502 0 0)
(1.3815873 0 0)
(1.3422268 0 0)
(1.3005183 0 0)
(1.2562957 0 0)
(1.2093796 0 0)
(1.1595777 0 0)
(1.1066794 0 0)
(1.0504544 0 0)
(0.99065573 0 0)
(0.92702132 0 0)
(0.85925963 0 0)
(0.78704639 0 0)
(0.71003376 0 0)
(0.62784829 0 0)
(0.54007131 0 0)
(0.44624049 0 0)
(0.34585912 0 0)