/*--------------------------------*- C++ -*----------------------------------*\
| =========                 |                                                 |
| \\      /  F ield         | OpenFOAM: The Open Source CFD Toolbox           |
|  \\    /   O peration     | Version:  v2012                                 |
|   \\  /    A nd           | Website:  www.openfoam.com                      |
|    \\/     M anipulation  |                                                 |
\*---------------------------------------------------------------------------*/
FoamFile
{
    version     2.0;
    format      ascii;
    class       volVectorField;
    location    "115.351227390527441";
    object      U;
}
// * * * * * * * * * * * * * * * * * * * * * * * * * * * * * * * * * * * * * //

dimensions      [0 1 -1 0 0 0 0];


internalField   nonuniform List<vector> 
9200
(
(2.6431828 0.017271262 5.8925084e-21)
(2.6387287 0.059372002 -7.8651872e-21)
(2.5961017 0.013978395 -3.8055749e-22)
(2.6306752 0.096059834 3.4190982e-22)
(2.5893493 0.047552067 1.4929785e-21)
(2.5803007 0.011894595 6.8197123e-22)
(2.6180647 0.1362944 -1.0241847e-20)
(2.5787327 0.07528969 1.11004e-21)
(2.5736569 0.040706858 3.9469406e-21)
(2.5603104 0.0096854104 -4.0714634e-22)
(2.5996572 0.17664999 -1.5877788e-21)
(2.5614518 0.10430406 -2.0896148e-21)
(2.5633888 0.063893247 -4.7651779e-21)
(2.5536071 0.033169989 -3.6280467e-21)
(2.5467247 0.0077356096 -1.0288356e-20)
(2.5743739 0.2189208 7.4535432e-21)
(2.5386786 0.13046824 5.1249181e-22)
(2.5474832 0.087634176 3.1744689e-21)
(2.5435261 0.051332218 -4.4025328e-21)
(2.5404222 0.026524853 -1.0418217e-22)
(2.5357628 0.0060257131 5.1280688e-21)
(2.5407679 0.26160424 -4.9984834e-21)
(2.5094854 0.15467351 3.2563915e-21)
(2.5269716 0.10816116 0)
(2.5280401 0.069301545 5.039528e-21)
(2.5311248 0.040532919 7.9878438e-22)
(2.5299246 0.0206248 4.0970714e-22)
(2.5277991 0.0045731295 2.3404199e-21)
(2.4968227 0.30385581 2.8601178e-21)
(2.4738122 0.17506835 6.6812449e-21)
(2.501454 0.12636222 -6.1384546e-22)
(2.5085802 0.083731547 -4.0448131e-21)
(2.5170705 0.053942416 -3.6702003e-21)
(2.5214826 0.031083342 2.0171312e-21)
(2.5225128 0.015549594 -2.4735977e-21)
(2.5220439 0.0033496009 -3.7786858e-21)
(2.4398119 0.34311919 2.8579322e-22)
(2.4319517 0.19046929 4.3665827e-22)
(2.4713326 0.14068848 2.7222762e-21)
(2.4850233 0.095282623 2.5500681e-21)
(2.4998214 0.063920599 5.1848878e-22)
(2.5088494 0.040672398 -6.8437085e-21)
(2.5149986 0.023073035 -7.3914163e-22)
(2.5173188 0.0112336 1.3852832e-21)
(2.5181333 0.0023138276 -2.6046886e-22)
(2.3683494 0.37133065 -7.8210208e-21)
(2.3856412 0.19934982 8.5453452e-23)
(2.4368115 0.15023604 -2.0655837e-21)
(2.4580728 0.10274127 -1.6827667e-22)
(2.4794585 0.070997662 4.0066311e-21)
(2.4936278 0.047100554 -8.0459773e-22)
(2.5038478 0.029581163 9.3421251e-22)
(2.510687 0.01634426 -6.8067195e-22)
(2.5139588 0.0075953883 -1.3320644e-21)
(2.5156781 0.0014205934 1.2131195e-22)
(2.2830331 0.3847638 8.6305361e-22)
(2.3368118 0.20160863 -9.4524902e-22)
(2.3981261 0.15365933 1.3858497e-21)
(2.4283997 0.10563647 -4.8449887e-22)
(2.4568269 0.07427309 -5.093477e-21)
(2.4759985 0.050773273 -1.1872378e-21)
(2.4906314 0.033312887 4.337612e-21)
(2.5009138 0.020369533 3.5914986e-21)
(2.5081367 0.01073165 -1.3169577e-21)
(2.51202 0.0045354841 -6.4564299e-22)
(2.5144077 0.00063496285 1.9736795e-21)
(2.1869065 0.38135698 -1.1876612e-20)
(2.287086 0.19492078 -1.2071149e-20)
(2.3560368 0.14968946 -2.5670573e-21)
(2.3971966 0.10329409 -7.027457e-21)
(2.432592 0.07343543 -5.971386e-21)
(2.4568426 0.05110186 -2.8265489e-21)
(2.4755797 0.034544649 1.0259652e-21)
(2.4894813 0.022038041 2.3187564e-21)
(2.4996149 0.012764046 -1.2413839e-21)
(2.5069181 0.0060483642 -1.7536875e-21)
(2.5111897 0.0019572798 2.8632978e-21)
(2.5141027 -4.2185073e-05 -1.1371004e-21)
(2.0865436 0.35871845 -1.5347486e-20)
(2.2384023 0.1777712 -1.0382469e-20)
(2.3124014 0.13758536 8.1313014e-22)
(2.3657467 0.095313113 3.8917565e-21)
(2.4076201 0.068124732 3.8599695e-21)
(2.4368398 0.04796128 4.9852361e-21)
(2.4595424 0.032940049 1.0236043e-21)
(2.4766334 0.021497602 -3.2697564e-21)
(2.489748 0.012854855 -2.5811425e-21)
(2.4994981 0.0064740462 2.6088569e-22)
(2.5067377 0.002120153 -1.1661655e-21)
(2.5112132 -0.00023386454 9.3292655e-22)
(2.5145264 -0.00056671999 -1.0517312e-21)
(1.9901864 0.31671874 8.8657167e-21)
(2.192021 0.1495 1.6347244e-20)
(2.2695314 0.11754575 8.3037095e-22)
(2.335146 0.08150039 2.384604e-21)
(2.3828114 0.058283828 4.3286323e-22)
(2.416858 0.041262906 -2.1779531e-22)
(2.4431321 0.028457147 2.4471241e-21)
(2.4631501 0.018621633 1.6362399e-21)
(2.4787771 0.011027677 -4.657378e-22)
(2.490973 0.0053425016 -6.6740637e-23)
(2.5002681 0.0012385668 1.0811157e-21)
(2.5073627 -0.0012009066 4.4440319e-21)
(2.511946 -0.0021230359 1.3117096e-21)
(2.5155375 -0.00099075123 -2.3719459e-21)
(1.9026327 0.26048027 2.9016283e-21)
(2.1479048 0.11138759 7.4424142e-22)
(2.2297376 0.090265082 3.1654076e-21)
(2.3064879 0.062009989 6.6297244e-21)
(2.3592253 0.044036132 5.0414503e-21)
(2.397715 0.031101384 1.802148e-21)
(2.4270749 0.021174992 1.8598496e-21)
(2.4495695 0.013419123 9.1741812e-22)
(2.4673935 0.0073176991 6.0447135e-22)
(2.4815683 0.0025644298 1.0149034e-22)
(2.4928873 -0.00085811417 0)
(2.5017034 -0.003169506 -7.9765884e-22)
(2.5086072 -0.0040322368 2.6947559e-21)
(2.51327 -0.0037637486 2.49572e-21)
(2.5170257 -0.0014104088 -1.0417625e-21)
(1.8292454 0.19532775 6.6522556e-21)
(2.1082422 0.062918493 2.6687609e-22)
(2.1950353 0.056527506 1.5660915e-21)
(2.2809067 0.037433816 2.5565835e-21)
(2.3378526 0.025771867 -4.4720097e-21)
(2.3801835 0.017739012 -6.723504e-22)
(2.4120114 0.011303778 1.6569898e-21)
(2.4365065 0.0060866427 -1.2522527e-21)
(2.4560546 0.0017503938 -2.0648481e-21)
(2.4718819 -0.0017062594 -4.2448453e-22)
(2.4847828 -0.0043610776 8.14109e-22)
(2.4952899 -0.0060468988 0)
(2.5036517 -0.0069357794 -2.7555668e-22)
(2.5103385 -0.0064849069 -1.9710247e-21)
(2.5150458 -0.0051967339 -3.4671118e-21)
(2.5189104 -0.0017844379 7.9880773e-21)
(1.7763004 0.12229215 3.4392399e-22)
(2.0760512 0.0052879991 -7.0229482e-21)
(2.1665322 0.017529705 1.0127934e-21)
(2.2592478 0.0087333199 2.3341523e-21)
(2.3194746 0.00410519 -6.8181008e-21)
(2.3649123 0.00161556 -5.7573208e-21)
(2.3985527 -0.00080608778 -1.6950384e-21)
(2.4244695 -0.0031251262 -2.1485126e-21)
(2.4452511 -0.0054174339 -9.5731209e-22)
(2.4622987 -0.0074542352 7.6960444e-22)
(2.4764716 -0.0090304969 -1.2964241e-21)
(2.4882644 -0.010127245 -5.734422e-22)
(2.4980494 -0.010461889 -9.3701476e-22)
(2.5059981 -0.010198022 -1.5753122e-21)
(2.5124665 -0.0086379768 8.2972819e-22)
(2.5171752 -0.0064588969 7.8193598e-22)
(2.5211096 -0.0021003005 6.394684e-22)
(1.7391158 0.046221212 -1.4713323e-21)
(2.0521354 -0.054846113 -3.6655166e-21)
(2.1441968 -0.025095585 -3.963431e-21)
(2.2419509 -0.023081349 3.5351128e-21)
(2.3046045 -0.020314318 5.6131865e-22)
(2.352403 -0.016780403 3.2871953e-21)
(2.3871889 -0.014737073 1.0024654e-21)
(2.4139045 -0.013851141 -5.6320287e-22)
(2.4353661 -0.013932566 -2.6394158e-22)
(2.4531993 -0.014395115 -4.1897534e-22)
(2.468278 -0.014874141 -9.5999702e-22)
(2.481075 -0.015098848 -1.5784317e-21)
(2.491923 -0.015022038 -5.1362144e-22)
(2.5010784 -0.014286985 9.530936e-23)
(2.5086565 -0.013061719 7.4020491e-23)
(2.5149155 -0.010542821 -2.3371281e-21)
(2.5195914 -0.0075743527 5.3639172e-21)
(2.5235551 -0.0023719999 -2.90948e-21)
(1.7161643 -0.030996755 -3.8336258e-21)
(2.0369119 -0.1163532 1.6530807e-20)
(2.1281212 -0.070208594 5.8694568e-21)
(2.2292179 -0.057065036 -1.803896e-21)
(2.2935551 -0.046751746 3.4600896e-21)
(2.3429747 -0.036903426 2.5067621e-21)
(2.3782941 -0.030008835 -4.8808586e-22)
(2.4051521 -0.025670685 -3.4938949e-22)
(2.4267139 -0.023416931 -1.3704587e-22)
(2.4448682 -0.022293711 1.0494274e-21)
(2.4604959 -0.021607943 2.9951798e-22)
(2.4739979 -0.021004339 -1.8758621e-22)
(2.4856546 -0.020242443 -4.4045762e-23)
(2.495701 -0.019264187 1.7700243e-21)
(2.5043174 -0.017657478 1.6681251e-21)
(2.5115652 -0.01560326 2.0665435e-21)
(2.517623 -0.012234468 -1.0628806e-21)
(2.5222376 -0.0085576849 -3.3676754e-21)
(2.5261897 -0.002607409 9.7726743e-22)
(1.7076193 -0.10751191 2.2661009e-21)
(2.0301482 -0.17707451 7.8811447e-21)
(2.1182335 -0.11591101 1.7618251e-21)
(2.2210521 -0.092131638 -2.2397271e-21)
(2.286384 -0.074405101 -3.3815124e-22)
(2.3368357 -0.05817866 1.3093613e-21)
(2.3721359 -0.046110522 -5.1140339e-22)
(2.398476 -0.038111765 8.3900622e-22)
(2.4195222 -0.033465934 9.6232532e-22)
(2.4375079 -0.030801721 5.6522253e-22)
(2.4533288 -0.029037416 5.9923904e-22)
(2.4672659 -0.027577272 1.2895541e-21)
(2.4794865 -0.026200806 4.8483454e-22)
(2.4901896 -0.024706651 -5.7240489e-23)
(2.4995642 -0.023014907 9.993804e-22)
(2.5077254 -0.020668802 1.9911181e-21)
(2.514679 -0.0178741 2.072208e-21)
(2.5205374 -0.013735687 9.926334e-22)
(2.5250627 -0.0094179504 -3.3435976e-21)
(2.5289629 -0.002808011 1.4810769e-21)
(1.7131803 -0.18124377 3.3824453e-21)
(2.0309176 -0.23548019 1.6614764e-21)
(2.1137974 -0.16075184 3.1805687e-21)
(2.21707 -0.12733964 3.16881e-22)
(2.2829494 -0.10264885 -4.7392117e-22)
(2.3340071 -0.080083915 -1.1716139e-22)
(2.3688538 -0.062587481 -7.8034357e-23)
(2.3940437 -0.050715254 2.6083198e-22)
(2.4139316 -0.043645335 -2.894613e-22)
(2.4312289 -0.039564106 -1.464999e-21)
(2.4468931 -0.03687133 -1.2008689e-21)
(2.4610287 -0.03467479 -7.7327302e-22)
(2.4736151 -0.032652708 -1.6270039e-21)
(2.4847643 -0.030718342 8.5560893e-22)
(2.4946734 -0.028671058 1.8918243e-21)
(2.5034947 -0.026389276 -2.0905163e-21)
(2.5112751 -0.023384858 9.4067951e-22)
(2.5179618 -0.019905983 -2.824634e-22)
(2.5236146 -0.015059365 8.7518721e-22)
(2.5280212 -0.010160213 6.1788578e-23)
(2.5318297 -0.0029752798 -1.7665326e-22)
(1.7312906 -0.25029522 -1.6623281e-20)
(2.0378247 -0.2902551 -3.746138e-21)
(2.1140445 -0.20362646 7.8098423e-21)
(2.2167323 -0.1619705 4.6472402e-23)
(2.2828852 -0.13097165 1.8371139e-22)
(2.3343941 -0.10222797 -1.5219935e-22)
(2.3685008 -0.079038287 5.5862799e-22)
(2.3919488 -0.063038552 -9.2567044e-22)
(2.4100057 -0.053524532 -3.5063246e-22)
(2.4260591 -0.048202004 -5.041156e-23)
(2.4412131 -0.044828847 6.7552724e-23)
(2.4553526 -0.042076476 3.4760816e-23)
(2.4681657 -0.03950651 7.8401086e-22)
(2.4796036 -0.037072705 4.6366397e-22)
(2.4898478 -0.034744316 3.080134e-22)
(2.4991089 -0.03226612 1.6410384e-21)
(2.5074865 -0.029465268 -5.2928815e-21)
(2.5149474 -0.025844627 -4.7543542e-21)
(2.521383 -0.021716011 -4.2913442e-21)
(2.5268152 -0.016211765 9.1911709e-22)
(2.5310717 -0.0107872 -2.2989802e-23)
(2.5347498 -0.0031106459 1.711704e-21)
(1.7605132 -0.31325041 3.5637427e-21)
(2.0493662 -0.3404323 2.2346111e-21)
(2.1181713 -0.24373617 -6.8260162e-21)
(2.2193816 -0.19548888 4.8909045e-21)
(2.2857193 -0.15900005 6.0084867e-22)
(2.3377986 -0.12430321 3.217211e-22)
(2.3710449 -0.095170611 -1.1905138e-22)
(2.3922503 -0.074699616 4.6052036e-23)
(2.4077637 -0.062664282 -3.6013566e-23)
(2.4219558 -0.056327716 4.2064257e-22)
(2.4362281 -0.052615889 1.195024e-21)
(2.4502145 -0.04959331 1.6039628e-21)
(2.4631906 -0.046611843 5.9959001e-22)
(2.4748329 -0.043717584 -1.0559419e-21)
(2.48526 -0.041015037 6.1209636e-22)
(2.4947543 -0.038420514 -1.1601581e-21)
(2.5035095 -0.035583608 2.3222897e-21)
(2.5115412 -0.03229103 5.7304114e-22)
(2.5187279 -0.028068049 -8.116452e-22)
(2.524915 -0.023311246 3.804194e-21)
(2.5301031 -0.017195524 3.7256057e-22)
(2.5341762 -0.01130097 -5.7543812e-22)
(2.5376872 -0.0032153282 -5.7294441e-21)
(1.7980515 -0.3689934 4.4973245e-22)
(2.0641082 -0.38535572 3.4079001e-21)
(2.1253151 -0.28056222 1.3703699e-21)
(2.2243084 -0.22752843 0)
(2.2909442 -0.18648139 -3.8354657e-21)
(2.3439407 -0.14616705 1.1000991e-21)
(2.3764439 -0.11076867 1.2206796e-21)
(2.3949379 -0.085376347 -1.4341371e-21)
(2.4071789 -0.070700391 1.875249e-22)
(2.4188299 -0.06355671 1.5281241e-22)
(2.4318026 -0.059932856 1.5557966e-22)
(2.4455065 -0.057039774 -5.6330807e-23)
(2.4586627 -0.053871505 -7.5427479e-23)
(2.4705207 -0.050557752 -2.6131567e-21)
(2.4810503 -0.047451248 -1.3934356e-21)
(2.4906006 -0.044626062 -1.0687594e-21)
(2.4995102 -0.041854439 -2.7476634e-22)
(2.5078974 -0.038683275 3.9229856e-22)
(2.5156649 -0.03489106 3.5565131e-21)
(2.5226042 -0.030061493 2.3854522e-21)
(2.5285313 -0.024692847 3.1086971e-21)
(2.5334449 -0.01801199 2.1411321e-22)
(2.5372999 -0.011704005 5.8016774e-25)
(2.5406104 -0.0032907376 -1.2499961e-21)
(1.8409783 -0.41700338 9.8189435e-21)
(2.0807392 -0.42464011 -3.9311699e-20)
(2.134611 -0.31385062 1.6332338e-21)
(2.2308161 -0.25785093 -6.7962076e-23)
(2.2980279 -0.21329501 0)
(2.3525364 -0.16775026 -2.4268714e-21)
(2.3845836 -0.12571155 -3.765224e-22)
(2.4000828 -0.094847021 1.0155304e-21)
(2.4082064 -0.07723055 -3.1831119e-22)
(2.4165319 -0.069546245 7.2246341e-23)
(2.4277363 -0.066499367 -2.1413708e-22)
(2.4410417 -0.064245217 4.4869288e-22)
(2.4544777 -0.061211731 -1.4324667e-21)
(2.4666738 -0.057569251 -1.3980425e-21)
(2.477323 -0.053987316 2.9119584e-22)
(2.4868072 -0.050848514 4.6919376e-22)
(2.4956512 -0.048032028 -2.037566e-22)
(2.5041555 -0.045123511 1.3555767e-21)
(2.512302 -0.041597652 -4.5587272e-22)
(2.5198651 -0.037271944 -9.4340697e-22)
(2.526563 -0.031822752 -5.373911e-22)
(2.532206 -0.025859509 -3.5356066e-21)
(2.5368091 -0.018662978 -4.4881653e-22)
(2.5404115 -0.011999856 6.9263122e-22)
(2.5434915 -0.0033384682 7.7549192e-21)
(1.8869652 -0.45736498 -1.9972845e-20)
(2.0981518 -0.45822103 -3.5128805e-20)
(2.1452471 -0.34355503 2.1722061e-21)
(2.2382622 -0.28632745 -4.7660767e-21)
(2.30644 -0.23939795 -6.5713967e-21)
(2.363284 -0.18910667 3.3628818e-22)
(2.3953701 -0.14002593 1.5905031e-22)
(2.4076851 -0.10278652 5.0133626e-21)
(2.4108791 -0.081936933 -1.9736529e-21)
(2.4149497 -0.073861359 3.8812396e-22)
(2.4237764 -0.072007879 1.0481935e-22)
(2.4365575 -0.071065117 -3.8871221e-22)
(2.4504563 -0.068597329 -2.9944035e-22)
(2.4632383 -0.064770557 -1.1319384e-21)
(2.4741445 -0.060640797 -1.7471756e-25)
(2.48352 -0.05702176 4.9696928e-21)
(2.4921044 -0.054059314 2.042866e-21)
(2.5004607 -0.051338252 5.6683037e-21)
(2.5087439 -0.048276121 8.0535366e-22)
(2.5167557 -0.044336554 -1.1919608e-22)
(2.5241474 -0.039427804 6.8417626e-22)
(2.5305896 -0.033345371 -5.2125466e-23)
(2.5359128 -0.026810068 -2.5173346e-21)
(2.5401664 -0.019151836 -1.3707913e-21)
(2.543483 -0.012193345 -2.9941577e-23)
(2.5463072 -0.0033602494 -2.1482224e-21)
(1.9352919 -0.49061507 4.4512077e-21)
(2.1154677 -0.48644217 4.9505993e-20)
(2.1565167 -0.36979141 -5.3956955e-21)
(2.2460772 -0.31291177 5.8681832e-22)
(2.3156768 -0.2648216 6.0231602e-21)
(2.3758504 -0.21035942 1.5270119e-20)
(2.4087431 -0.15371434 -9.360489e-22)
(2.417749 -0.10934656 -6.3150135e-21)
(2.4151673 -0.08448264 2.8420619e-23)
(2.4138332 -0.076183484 3.6346882e-22)
(2.4196781 -0.076162568 0)
(2.431746 -0.077330448 -2.6661302e-22)
(2.4463484 -0.07602598 2.6740609e-22)
(2.460098 -0.072237705 -1.273541e-21)
(2.4715431 -0.06748501 1.9818981e-21)
(2.4808734 -0.06316621 5.0967963e-22)
(2.4890492 -0.059841338 -2.1814244e-21)
(2.4969831 -0.057232995 -1.4889396e-21)
(2.5051054 -0.054622549 -6.8292328e-23)
(2.513338 -0.051332508 -3.9755054e-21)
(2.5212895 -0.046891897 -3.2359358e-21)
(2.5285134 -0.041345336 -1.7734177e-21)
(2.5346663 -0.034622103 -3.0816106e-22)
(2.5396258 -0.027545198 7.2067845e-22)
(2.5434899 -0.019483863 8.4590406e-22)
(2.5464901 -0.01229042 -1.515212e-21)
(2.5490376 -0.0033579187 -2.6808695e-21)
(1.9856869 -0.51632314 2.776362e-20)
(2.1322208 -0.50911657 7.1956379e-20)
(2.1678541 -0.39275541 -3.8794093e-20)
(2.2537734 -0.33762558 6.3684892e-21)
(2.3252721 -0.2896196 8.8566326e-21)
(2.3899139 -0.23168997 -2.1006327e-21)
(2.4246152 -0.16693073 5.2226215e-21)
(2.4302465 -0.11424836 -2.9429723e-21)
(2.4211085 -0.084743394 1.6617142e-21)
(2.4131261 -0.07654301 -3.2761517e-22)
(2.4150549 -0.078773941 9.8952521e-23)
(2.4262332 -0.082964698 4.050802e-22)
(2.4418529 -0.083517751 -5.0262817e-22)
(2.4570794 -0.080096509 -1.0147348e-21)
(2.4695072 -0.074664937 3.4503289e-22)
(2.4789909 -0.069362577 2.1708945e-21)
(2.4866789 -0.065363578 2.0608158e-23)
(2.4939167 -0.062662919 -2.1625315e-21)
(2.5015366 -0.060498617 -2.178533e-21)
(2.5096838 -0.057928755 -3.2961581e-21)
(2.5180024 -0.054287248 2.4275052e-21)
(2.5259285 -0.049242926 -7.3040503e-22)
(2.5329588 -0.043008194 -1.7156743e-21)
(2.5387728 -0.035647349 5.7263517e-22)
(2.5433193 -0.028068226 -1.682405e-22)
(2.5467552 -0.019666224 1.8893698e-21)
(2.5494121 -0.012297836 1.5601085e-21)
(2.5516668 -0.0033333859 -3.4538973e-24)
(2.0346964 -0.53553342 -5.5402144e-20)
(2.1485173 -0.52811145 -4.4522026e-20)
(2.1787077 -0.41263774 1.6261678e-20)
(2.2609339 -0.36052782 8.4356227e-21)
(2.3348131 -0.31389945 -4.828861e-21)
(2.405172 -0.25328924 -2.6384507e-20)
(2.4428945 -0.17983734 -1.1726194e-20)
(2.4452715 -0.1175471 2.4198409e-22)
(2.4285704 -0.082466097 -3.1179593e-21)
(2.4126145 -0.073567328 3.5662486e-24)
(2.4095405 -0.079213822 5.2122471e-23)
(2.4196169 -0.087770449 1.3668077e-22)
(2.4365917 -0.091146578 0)
(2.4539538 -0.088524086 0)
(2.4679853 -0.082393757 -1.1254719e-21)
(2.4779843 -0.075770062 2.0878935e-21)
(2.4852031 -0.070666189 8.2760857e-22)
(2.4914898 -0.067549598 1.2346606e-21)
(2.4982213 -0.065699486 3.1274523e-21)
(2.5059044 -0.063945276 2.9529203e-21)
(2.514305 -0.061263967 1.1855745e-22)
(2.5227962 -0.057113747 6.648676e-22)
(2.5306887 -0.051361472 1.773778e-21)
(2.537473 -0.044400424 2.0186521e-21)
(2.5428865 -0.036418548 -1.824814e-21)
(2.5469688 -0.028385226 -1.3449948e-21)
(2.5499406 -0.019707585 -5.3219919e-22)
(2.5522315 -0.012222821 3.8174853e-21)
(2.5541821 -0.0032886179 -7.4833633e-24)
(2.0798003 -0.55029599 1.0340161e-20)
(2.1655504 -0.54253536 1.5737569e-20)
(2.1878542 -0.42984807 4.6231056e-20)
(2.267344 -0.38169537 -1.8182181e-21)
(2.3439612 -0.33770834 8.9997679e-21)
(2.4213315 -0.27541942 -3.9803012e-22)
(2.4635024 -0.19263274 -3.9550838e-20)
(2.4628689 -0.11924725 -5.6635404e-21)
(2.4376562 -0.077443768 3.0474447e-21)
(2.4123241 -0.067854778 -3.8703996e-22)
(2.4029465 -0.077881173 -3.4390866e-23)
(2.4115406 -0.091663489 6.093423e-25)
(2.4302102 -0.098925819 -2.1687615e-22)
(2.4504419 -0.097726471 -2.0886085e-21)
(2.4668835 -0.090948733 -2.1354667e-21)
(2.4779506 -0.08262598 -8.5659016e-22)
(2.484848 -0.075863414 1.0889199e-21)
(2.4899684 -0.071854504 -1.1863596e-21)
(2.4953901 -0.070067854 8.2089527e-22)
(2.5021481 -0.069118487 3.0887037e-22)
(2.5102537 -0.067609559 -2.9476183e-21)
(2.5190751 -0.064600788 -2.9117405e-21)
(2.5277656 -0.059770278 -1.9588848e-21)
(2.5355752 -0.053216721 2.6634894e-21)
(2.5420391 -0.045508801 6.2737709e-22)
(2.5469832 -0.036936669 2.3373438e-22)
(2.5505507 -0.028504677 1.7611891e-21)
(2.5530271 -0.019617642 1.6833652e-22)
(2.5549343 -0.012072789 1.7484887e-22)
(2.5565738 -0.0032255995 3.5288307e-21)
(2.1266488 -0.56109453 6.9777574e-20)
(2.1830845 -0.55122231 2.3800914e-20)
(2.1930757 -0.44454456 1.3476695e-20)
(2.2731621 -0.40140482 5.577386e-20)
(2.352635 -0.3612409 -4.4428896e-20)
(2.4381087 -0.29818758 -1.7960901e-20)
(2.4863308 -0.20556939 4.8503549e-20)
(2.4830674 -0.11941887 1.3005476e-20)
(2.4484191 -0.069557708 -3.6483985e-22)
(2.4120828 -0.058920972 -5.7522941e-22)
(2.395041 -0.073949402 3.3763509e-22)
(2.4015595 -0.094629188 -3.3744929e-22)
(2.4223099 -0.10699637 -1.5922659e-21)
(2.4462445 -0.1079392 1.5982874e-21)
(2.4660713 -0.10065484 -2.8543298e-21)
(2.4789689 -0.090242809 -1.0349447e-21)
(2.4858545 -0.081144858 6.1350002e-22)
(2.4896587 -0.0755978 -3.5447763e-21)
(2.4933243 -0.073466122 8.0321836e-23)
(2.4986146 -0.073212385 -4.9414406e-22)
(2.5059405 -0.073012488 1.7315697e-21)
(2.5147571 -0.07147307 1.9943704e-21)
(2.5240855 -0.067883825 2.5989155e-21)
(2.5329403 -0.062206479 -1.4264825e-22)
(2.5405812 -0.054778975 -6.3795996e-22)
(2.5466345 -0.046324095 2.6384247e-22)
(2.5510375 -0.037206106 1.387696e-21)
(2.5540434 -0.028436938 4.7806898e-22)
(2.5559986 -0.019406702 7.2527071e-22)
(2.5575097 -0.011855138 -4.2472085e-21)
(2.5588349 -0.0031463007 -2.243526e-22)
(2.1793911 -0.5688994 -1.7402995e-20)
(2.198767 -0.55870328 -5.0721804e-20)
(2.1962851 -0.45700362 3.2315686e-20)
(2.2784409 -0.4199066 -2.4677536e-20)
(2.3609331 -0.38447907 -3.6137828e-21)
(2.4554336 -0.32189521 2.9053552e-21)
(2.5109963 -0.21871177 2.7919852e-20)
(2.5058067 -0.11810937 -1.1551222e-20)
(2.4608568 -0.058782913 -7.5720273e-21)
(2.411793 -0.046511296 4.7050724e-22)
(2.385467 -0.067308995 3.9455721e-21)
(2.3892229 -0.09641739 -6.7815825e-22)
(2.4124206 -0.11535661 -8.9906185e-22)
(2.4410119 -0.11939173 4.8702308e-21)
(2.4653726 -0.11187966 4.8053852e-21)
(2.4810969 -0.099000703 7.1271327e-21)
(2.4884758 -0.086776702 -2.2224848e-21)
(2.4909064 -0.078859637 1.0609066e-21)
(2.4923592 -0.075793457 4.0826807e-21)
(2.495558 -0.075989661 -1.0832598e-21)
(2.5015057 -0.077170767 -2.1011464e-21)
(2.5098621 -0.077388199 -1.7921508e-22)
(2.5195704 -0.075468988 1.7176101e-21)
(2.5294036 -0.071038567 6.2905762e-22)
(2.538331 -0.0643693 9.7134838e-22)
(2.5456889 -0.056022261 -1.4705962e-21)
(2.5512325 -0.046841554 -3.0541689e-22)
(2.5550242 -0.037234272 1.5056058e-21)
(2.5574273 -0.028193736 1.0655682e-22)
(2.5588419 -0.019085349 -1.4380087e-21)
(2.5599493 -0.011577113 3.5497999e-22)
(2.5609611 -0.0030526234 -1.4853049e-21)
(2.2334016 -0.5718618 -1.4621767e-19)
(2.2104614 -0.56121787 8.6919259e-20)
(2.2005784 -0.46882949 1.6233156e-21)
(2.2833139 -0.43765405 -4.2955579e-20)
(2.3685431 -0.40729061 1.3132837e-20)
(2.4723265 -0.34542173 2.8351524e-20)
(2.5351417 -0.23224409 -4.3776186e-20)
(2.5302188 -0.11532656 -1.6822037e-20)
(2.4748434 -0.044941226 1.7085197e-20)
(2.4113402 -0.030497636 2.6764962e-22)
(2.3739295 -0.057667239 1.2187441e-21)
(2.3741648 -0.096968503 -8.5112107e-22)
(2.4001374 -0.12411151 2.5407117e-21)
(2.4343773 -0.1323116 -1.8399644e-21)
(2.4645736 -0.12499702 7.4399589e-21)
(2.4843631 -0.10933552 1.01381e-21)
(2.4929706 -0.093095635 -8.1609904e-22)
(2.4940945 -0.08178247 -7.0040353e-22)
(2.4928828 -0.076986247 -5.0526188e-22)
(2.4932893 -0.077227383 2.8389711e-21)
(2.4971411 -0.079762967 -2.4651931e-21)
(2.5044522 -0.081998869 9.718227e-22)
(2.514161 -0.082172561 -5.1488234e-22)
(2.5248177 -0.079494298 -2.0658423e-21)
(2.5350683 -0.073980588 6.0828509e-22)
(2.5439296 -0.066207761 1.6304201e-21)
(2.5508711 -0.056925923 5.2696123e-22)
(2.5558031 -0.047060921 -2.5069667e-22)
(2.5589187 -0.037031151 -1.1658811e-21)
(2.560685 -0.027787755 -1.3392598e-21)
(2.5615462 -0.018664238 2.5843097e-22)
(2.5622475 -0.01124573 3.48976e-21)
(2.5629498 -0.0029463792 -1.3986549e-22)
(2.2841042 -0.56847409 2.8799017e-20)
(2.2190133 -0.55952555 1.1944276e-19)
(2.2054169 -0.47970336 -7.4403072e-20)
(2.2849448 -0.45579328 2.3442878e-20)
(2.3758185 -0.42888664 -4.1406602e-21)
(2.4870686 -0.36955152 -1.3304522e-19)
(2.555191 -0.24472028 8.0196908e-22)
(2.5523735 -0.11099499 8.0095638e-21)
(2.4889009 -0.028050837 -3.7520416e-21)
(2.4104384 -0.010486252 -2.8822004e-21)
(2.3601494 -0.044883453 8.648819e-23)
(2.3560276 -0.096192235 -3.1597795e-22)
(2.3850965 -0.13332067 1.3692748e-21)
(2.4259932 -0.1469271 -1.5330946e-21)
(2.4634318 -0.14038846 -5.9153247e-21)
(2.488759 -0.12172965 -3.3756789e-23)
(2.4996002 -0.10050937 3.5315886e-21)
(2.4996389 -0.08456405 0)
(2.4953334 -0.077019263 1.5298473e-23)
(2.4921739 -0.076717197 -5.5746128e-21)
(2.4930905 -0.080463888 -8.3677039e-21)
(2.498633 -0.08492477 5.209185e-21)
(2.5078306 -0.087625926 1.8907763e-22)
(2.5190427 -0.087229975 -4.2942631e-22)
(2.5305813 -0.083423901 1.0885238e-21)
(2.5410888 -0.07662369 3.2419237e-22)
(2.5497109 -0.067676455 3.8160481e-22)
(2.556093 -0.057475503 3.7295597e-22)
(2.5603151 -0.046986244 -2.6449815e-22)
(2.5626976 -0.036608889 -1.618338e-21)
(2.5638017 -0.027232353 1.6861369e-22)
(2.5641033 -0.018153943 -8.6592407e-22)
(2.5644007 -0.010867723 -1.9631445e-21)
(2.5648003 -0.0028292522 -3.1193618e-21)
(2.3279539 -0.55856719 2.2742706e-19)
(2.2250469 -0.55399442 6.8823072e-22)
(2.2096375 -0.48893978 5.0251159e-20)
(2.2842729 -0.47452999 -1.743486e-20)
(2.378375 -0.45166219 5.2287362e-20)
(2.4989719 -0.39145462 -4.1992644e-22)
(2.5694783 -0.25723565 6.8720519e-20)
(2.5679206 -0.10341828 3.446487e-20)
(2.4963466 -0.007536489 -2.5936935e-20)
(2.4063931 0.01338204 -2.8115166e-23)
(2.3437519 -0.028539622 -5.8437795e-21)
(2.3344628 -0.094065483 2.7406954e-21)
(2.366984 -0.1430434 -2.2814178e-21)
(2.4155235 -0.16340611 3.4717631e-22)
(2.4616655 -0.1584184 -2.1915324e-21)
(2.4942394 -0.13668417 8.7706795e-21)
(2.5086115 -0.10948173 -1.2034273e-21)
(2.5079846 -0.087465848 3.650655e-21)
(2.5001945 -0.075897636 -5.9438702e-22)
(2.4926256 -0.074265707 -3.9168918e-21)
(2.4896453 -0.078946347 -6.7897835e-22)
(2.4925543 -0.085769658 2.3799495e-22)
(2.500587 -0.091418316 -1.720884e-21)
(2.5119612 -0.093879587 -1.8653107e-21)
(2.524654 -0.092383831 -9.3692639e-22)
(2.5368992 -0.087123865 -1.1122626e-21)
(2.5474467 -0.078886409 2.2355248e-22)
(2.5556354 -0.068737955 1.3354286e-22)
(2.5613146 -0.057663177 -1.028035e-22)
(2.5647367 -0.046625638 5.6353237e-22)
(2.5663398 -0.035981478 2.241361e-21)
(2.566765 -0.026541346 1.1241229e-21)
(2.5665076 -0.017564878 2.2042909e-21)
(2.5664074 -0.010449507 -6.4027152e-21)
(2.5665135 -0.0027027922 9.6157152e-23)
(2.3645987 -0.54328059 -1.3817504e-19)
(2.2291654 -0.545728 -7.5333451e-20)
(2.2139921 -0.49644935 5.9254784e-20)
(2.2812639 -0.49297754 4.0176127e-20)
(2.3784457 -0.4759632 -1.0399007e-21)
(2.5041542 -0.41579034 8.7032519e-20)
(2.5791459 -0.26549021 3.0931925e-20)
(2.5778867 -0.094174822 -1.2270573e-21)
(2.4916489 0.01840656 2.0093483e-20)
(2.3892172 0.041366323 -6.6099885e-22)
(2.3225092 -0.0091076406 8.6632205e-23)
(2.3091457 -0.090457347 -1.0049425e-21)
(2.3455142 -0.15334808 1.4375182e-21)
(2.4026812 -0.18190373 9.8470014e-21)
(2.458976 -0.17937403 1.5984761e-21)
(2.5006989 -0.15471724 -2.3488739e-20)
(2.5202433 -0.12053186 -1.9061486e-20)
(2.5195929 -0.090783967 2.9809576e-22)
(2.5079879 -0.073667068 -1.3632971e-21)
(2.4950991 -0.069687573 3.3268221e-21)
(2.487135 -0.074883279 -3.7874198e-21)
(2.4864041 -0.084126628 2.7591969e-21)
(2.4924741 -0.093115815 2.902404e-21)
(2.5034811 -0.099029173 1.8798727e-21)
(2.5170827 -0.10051878 -9.1354387e-22)
(2.5310774 -0.097437343 -2.8050409e-21)
(2.5437667 -0.090462506 -3.1983319e-22)
(2.5540995 -0.080696913 -2.9695287e-22)
(2.5616532 -0.069364411 8.7536063e-22)
(2.5664932 -0.057487921 -2.4990493e-22)
(2.5690375 -0.045991008 1.6185376e-22)
(2.5698266 -0.035164477 -8.470482e-23)
(2.5695653 -0.025728848 -6.3975243e-22)
(2.5687556 -0.016907209 -3.0863077e-22)
(2.5682677 -0.0099971029 -3.2865692e-21)
(2.5680916 -0.0025684073 1.1618577e-21)
(2.3998412 -0.52091351 4.3147122e-21)
(2.2286328 -0.53475766 -7.5036143e-20)
(2.2183316 -0.50165384 -5.8262396e-20)
(2.2757713 -0.51098048 -2.1794372e-20)
(2.3760812 -0.50040517 -2.0187606e-20)
(2.5060093 -0.44339725 2.6472677e-20)
(2.5836262 -0.27935092 -1.599457e-19)
(2.5854893 -0.078925115 -9.7908969e-20)
(2.4791226 0.048378602 -5.0426253e-20)
(2.3547892 0.073562345 6.1449307e-21)
(2.2889251 0.013948681 -9.3934158e-22)
(2.2791826 -0.085773164 -9.9408306e-23)
(2.3205046 -0.16423192 4.8628321e-21)
(2.3871954 -0.20246868 3.3361745e-21)
(2.4550511 -0.20354433 1.0817053e-20)
(2.507984 -0.17630073 -1.5395197e-20)
(2.534691 -0.13422405 -8.2525503e-21)
(2.5349531 -0.094875811 -1.7826807e-20)
(2.5192663 -0.070369934 -5.1565469e-21)
(2.5000775 -0.062813297 6.9350968e-21)
(2.4859148 -0.067944654 2.541497e-21)
(2.4803976 -0.079584785 5.2521617e-21)
(2.4835669 -0.092270824 -7.4779824e-22)
(2.4935394 -0.10223718 -6.7029997e-22)
(2.5076797 -0.10743565 1.0152627e-21)
(2.5233421 -0.10726565 3.5102348e-21)
(2.5383323 -0.10219125 2.1338224e-22)
(2.5511415 -0.093318997 -3.9440438e-22)
(2.5609856 -0.08199648 1.5886555e-21)
(2.567707 -0.069538519 -5.4007134e-22)
(2.5715853 -0.056955461 5.3911656e-23)
(2.5731892 -0.045097737 3.8583321e-22)
(2.5731421 -0.034174724 -1.3001059e-21)
(2.5721955 -0.024809081 -1.4192155e-21)
(2.5708456 -0.016190788 -3.546877e-21)
(2.5699834 -0.0095161027 -4.3234785e-22)
(2.5695378 -0.0024273932 2.4679521e-23)
(2.4246033 -0.49212919 1.2167833e-19)
(2.220446 -0.52141754 -2.6670087e-21)
(2.2194253 -0.5052939 -1.9098168e-20)
(2.2685753 -0.52801165 -4.4528198e-20)
(2.3713354 -0.52485256 -2.0953196e-21)
(2.5037661 -0.47078273 2.8181427e-20)
(2.5827992 -0.29817518 -7.8256352e-21)
(2.5894731 -0.068730811 5.9244695e-20)
(2.4676614 0.0844782 -2.6120776e-20)
(2.3152097 0.10963248 -1.8500156e-20)
(2.2395646 0.036494347 -8.0935549e-22)
(2.241893 -0.0799609 4.1010031e-21)
(2.2917808 -0.17596334 6.2532942e-21)
(2.3689035 -0.22513485 -1.9471175e-20)
(2.4495359 -0.23099824 -1.5254454e-20)
(2.5158515 -0.20193511 4.2948187e-21)
(2.5521229 -0.15114169 3.0519237e-20)
(2.5545321 -0.10012127 5.7175146e-21)
(2.5346124 -0.066105766 6.8492538e-22)
(2.5080657 -0.053444123 2.7084739e-21)
(2.4863487 -0.057804466 1.4521941e-21)
(2.4747625 -0.071732839 2.8108119e-21)
(2.4739629 -0.088434229 8.9995821e-21)
(2.4821014 -0.10304715 -2.7415483e-21)
(2.4962811 -0.11271021 -2.5935171e-21)
(2.5134195 -0.1162569 2.8734932e-21)
(2.5307968 -0.11383258 -6.3931007e-22)
(2.5463817 -0.10645771 -1.3659605e-21)
(2.5589505 -0.095589689 -3.3450395e-22)
(2.5680302 -0.082741818 1.2380538e-21)
(2.5737362 -0.069253925 -2.0761827e-21)
(2.5765491 -0.056077963 2.2818703e-22)
(2.5771665 -0.043964252 1.7195477e-22)
(2.5762735 -0.033030011 4.6004039e-22)
(2.574651 -0.023796211 6.4531375e-23)
(2.572778 -0.015425067 -1.3523447e-21)
(2.5715575 -0.0090116699 -1.6433704e-22)
(2.5708555 -0.0022808838 -1.5961317e-21)
(2.4349219 -0.45674666 -2.4513218e-20)
(2.2021922 -0.50675718 -6.7727836e-20)
(2.2146465 -0.50844337 -8.9612415e-20)
(2.2620138 -0.54413692 -4.322096e-22)
(2.3643425 -0.5491169 3.978539e-20)
(2.4970264 -0.49748897 -7.3157924e-20)
(2.5779566 -0.31485757 5.691945e-21)
(2.5819189 -0.063620445 1.0097644e-19)
(2.4531467 0.11987525 5.7454595e-20)
(2.2802932 0.14834118 -4.3146958e-20)
(2.1846243 0.062163212 -1.3666204e-20)
(2.1945762 -0.076928495 5.7894292e-21)
(2.2593042 -0.18839854 -8.4071966e-21)