/*--------------------------------*- C++ -*----------------------------------*\
| =========                 |                                                 |
| \\      /  F ield         | OpenFOAM: The Open Source CFD Toolbox           |
|  \\    /   O peration     | Version:  v2012                                 |
|   \\  /    A nd           | Website:  www.openfoam.com                      |
|    \\/     M anipulation  |                                                 |
\*---------------------------------------------------------------------------*/
FoamFile
{
    version     2.0;
    format      ascii;
    class       surfaceVectorField;
    location    "115.351227390527441";
    object      Uf;
}
// * * * * * * * * * * * * * * * * * * * * * * * * * * * * * * * * * * * * * //

dimensions      [0 1 -1 0 0 0 0];


internalField   nonuniform List<vector> 
18180
(
(2.640881 0.039205386 -1.2173997e-21)
(2.6147039 0.015596468 2.7022047e-21)
(2.6345665 0.078156183 -3.6235384e-21)
(2.6086638 0.053358059 -3.1057972e-21)
(2.5926121 0.031525963 5.8768265e-22)
(2.5900551 0.012919319 1.5966052e-22)
(2.6241576 0.11688852 -5.1282163e-21)
(2.5988541 0.085492999 9.8277971e-22)
(2.5838625 0.061666088 1.2950687e-21)
(2.5834772 0.044073805 2.7406157e-21)
(2.5768672 0.026998248 2.3692916e-21)
(2.5696464 0.010771249 1.3818438e-22)
(2.6085508 0.15704377 -5.7690015e-21)
(2.5830706 0.12002059 -6.403354e-21)
(2.5698014 0.09035385 -5.4364744e-22)
(2.573243 0.069498879 -1.7699501e-21)
(2.5683502 0.052437785 -5.5560518e-22)
(2.5629255 0.036874347 9.5746152e-23)
(2.5568462 0.022021452 -2.0716859e-21)
(2.5535512 0.008694181 -5.4338389e-21)
(2.5865895 0.1984648 3.0852515e-21)
(2.5614636 0.15315873 -1.3935637e-22)
(2.5496817 0.11769409 -7.4474087e-22)
(2.5570009 0.095833845 5.8658008e-22)
(2.5551684 0.076249725 -6.617478e-22)
(2.5526949 0.057506068 -4.5256597e-21)
(2.5483971 0.04233865 -4.0283096e-21)
(2.547059 0.029791814 -1.8364935e-21)
(2.5434676 0.017626524 -5.0252561e-21)
(2.5410946 0.0068662504 -2.4505093e-21)
(2.5570046 0.2410326 1.0176766e-21)
(2.532994 0.18624264 5.3193693e-21)
(2.5235903 0.14291128 1.930661e-21)
(2.5357894 0.11913398 2.5195569e-22)
(2.5368821 0.098112629 1.5337923e-21)
(2.536856 0.078312266 4.1226447e-21)
(2.5355226 0.06069519 4.7735219e-22)
(2.5373882 0.045842263 -1.7427241e-21)
(2.5356172 0.033576084 3.624791e-22)
(2.5350184 0.023525099 1.5708257e-22)
(2.5327457 0.013727135 2.6896605e-21)
(2.531715 0.0052872018 3.7107927e-21)
(2.5180548 0.28378177 -9.3675875e-22)
(2.4970931 0.21759273 9.4017071e-22)
(2.4910479 0.16506311 5.0265106e-21)
(2.5089205 0.14028887 1.2889358e-21)
(2.5137831 0.1175239 -3.1725933e-22)
(2.5166989 0.095739112 -1.9585664e-21)
(2.5179826 0.07665515 3.4445692e-22)
(2.5226552 0.061493664 6.3056701e-22)
(2.5238612 0.047532911 -1.5108842e-21)
(2.526143 0.035728495 1.4034482e-21)
(2.5255617 0.025874115 1.2404365e-21)
(2.5261548 0.018044504 -1.0561983e-21)
(2.5250672 0.010378084 -1.4742062e-22)
(2.5248586 0.0039510526 -7.7006607e-22)
(2.4673568 0.32429029 1.529586e-21)
(2.453441 0.24619304 1.6279426e-21)
(2.4521768 0.18282998 3.4537703e-21)
(2.4764968 0.15760063 4.6687417e-21)
(2.485886 0.13369857 1.1103963e-21)
(2.4919512 0.11055888 8.6437029e-22)
(2.4964051 0.089672508 -6.3634491e-22)
(2.504351 0.073660744 -1.7248975e-21)
(2.5081557 0.059019185 -1.5053653e-21)
(2.5127883 0.047195578 -5.2836082e-21)
(2.5149535 0.036103145 -2.5623311e-21)
(2.5181817 0.02701081 6.1501303e-22)
(2.5186294 0.019311763 -1.5772182e-21)
(2.5198545 0.013355218 -5.1166973e-22)
(2.519602 0.007533278 -1.1099942e-21)
(2.5200468 0.0028229766 -1.9899245e-21)
(2.402877 0.35750959 -3.904154e-21)
(2.4026958 0.27001246 1.8393723e-22)
(2.4080166 0.19491973 2.551415e-22)
(2.4385168 0.17002726 -1.1004207e-21)
(2.4534908 0.14560293 2.4772397e-22)
(2.463191 0.12139325 1.0832047e-21)
(2.4710943 0.099081739 1.1451278e-21)
(2.4824548 0.082937691 3.3200569e-21)
(2.4892972 0.067566527 2.3212759e-21)
(2.4965374 0.055368807 -1.5416114e-22)
(2.5009824 0.043936074 -3.722531e-21)
(2.506298 0.035033493 -2.8893534e-21)
(2.5092356 0.026493588 1.2568072e-22)
(2.5127846 0.01965192 -7.0941456e-22)
(2.5138914 0.013775392 3.1758293e-22)
(2.5156011 0.0093838038 3.7061272e-24)
(2.5159759 0.0051312217 -8.1425962e-22)
(2.5168781 0.0018596661 -6.6356739e-23)
(2.3242547 0.37834114 -3.3327689e-21)
(2.345108 0.28503533 -4.3253947e-21)
(2.3604044 0.2004883 -4.4725115e-22)
(2.3954363 0.17613292 7.4646196e-22)
(2.4168175 0.15200227 -2.8175913e-22)
(2.4309374 0.12755867 -1.0549081e-21)
(2.4427367 0.10420167 -3.3171158e-22)
(2.4577338 0.088270071 -2.6721081e-21)
(2.4677617 0.072665916 -6.9661857e-22)
(2.4775223 0.060714949 1.325989e-21)
(2.4845164 0.04899854 -1.0023583e-21)
(2.492091 0.040090758 1.8097318e-21)
(2.4970172 0.031468931 2.6931802e-21)
(2.5023277 0.024897668 2.2852251e-21)
(2.505636 0.018473963 1.5272695e-21)
(2.5093783 0.013490595 -1.0041782e-21)
(2.5109499 0.0091401851 -1.3242571e-21)
(2.512963 0.006039583 -9.8132542e-22)
(2.5137876 0.0030971286 -2.750435e-22)
(2.5150294 0.0010211365 1.0631486e-21)
(2.2333518 0.3832465 -5.7212099e-21)
(2.2811451 0.28824639 -5.7124442e-21)
(2.311112 0.19826549 -6.6954638e-21)
(2.3484298 0.17522242 -1.7696163e-21)
(2.376373 0.15160972 -6.5714113e-22)
(2.396079 0.12805145 -2.8909518e-21)
(2.4122729 0.104417 -3.8661152e-21)
(2.4308284 0.08926784 -3.273843e-21)
(2.4443015 0.073842451 -5.5472099e-21)
(2.4566097 0.062492024 -3.9410002e-21)
(2.4660981 0.050934905 -2.0344884e-21)
(2.475767 0.042522468 -6.6253606e-23)
(2.4828522 0.033956823 2.6260496e-21)
(2.4900099 0.027580346 3.311189e-21)
(2.4950052 0.02120517 2.9337114e-21)
(2.5002383 0.016502594 1.1343152e-21)
(2.5037325 0.011822771 -1.2778997e-21)
(2.5075068 0.0083504301 -1.5390089e-21)
(2.5093833 0.005263029 -1.218289e-21)
(2.5115888 0.0032245639 1.138482e-21)
(2.5127447 0.0013671384 2.4334266e-21)
(2.514241 0.00029064478 3.9101829e-22)
(2.1350363 0.36958085 -1.367045e-20)
(2.213592 0.27786167 -1.1117042e-20)
(2.261925 0.18637412 -1.1198394e-20)
(2.2993737 0.16577637 -5.568107e-21)
(2.3334848 0.14350863 -8.2008225e-22)
(2.3597117 0.12204408 7.1615029e-22)
(2.3809423 0.099215706 -1.3840816e-21)
(2.4027067 0.085416301 -1.463466e-21)
(2.4196857 0.070714022 -8.9023506e-22)
(2.434482 0.060483397 -4.0121381e-22)
(2.4465045 0.049489401 1.210837e-21)
(2.4581905 0.041868192 -8.6911785e-22)
(2.4672911 0.033719307 1.024745e-21)
(2.4760689 0.027911001 -1.1580603e-21)
(2.4828411 0.021769607 -5.6956234e-22)
(2.4895983 0.017368903 -1.7250787e-22)
(2.4945154 0.012795647 -1.9338076e-21)
(2.4995423 0.0095658647 -4.7756586e-22)
(2.5030833 0.0062995416 -7.1251452e-22)
(2.5068196 0.0040510199 -1.4537074e-21)
(2.5088889 0.0020046776 7.8083733e-22)
(2.5112031 0.00084316682 1.8817736e-21)
(2.5126095 -0.00013231538 -6.7327601e-23)
(2.5143155 -0.00030890189 -1.0936922e-21)
(2.0367442 0.33674334 -2.8336024e-21)
(2.1463782 0.2523693 9.0527534e-22)
(2.2144315 0.16361722 3.432022e-21)
(2.2506903 0.14715167 -4.6831967e-21)
(2.2902451 0.12738081 8.220406e-22)
(2.3232118 0.10907358 1.611946e-21)
(2.3499315 0.088270616 3.1128216e-21)
(2.3744267 0.076489094 2.1341672e-21)
(2.3947982 0.063084521 2.0887441e-21)
(2.412027 0.054467166 1.8269919e-21)
(2.4265126 0.044526154 2.2961515e-21)
(2.4400059 0.038045125 3.7033783e-21)
(2.451061 0.030640823 1.7593256e-21)
(2.4613201 0.025659915 1.3213917e-21)
(2.4696648 0.020021847 -7.3417385e-22)
(2.4777011 0.016174186 -1.8491275e-21)
(2.4840779 0.011922366 -1.4878335e-21)
(2.4903555 0.0090351295 -1.3027062e-21)
(2.4950921 0.0058830683 9.1559177e-23)
(2.4998804 0.0038119781 6.7793647e-22)
(2.5033941 0.0016869769 -4.7221054e-24)
(2.5070475 0.00043146394 1.686431e-21)
(2.5092232 -0.00074970846 2.7474981e-21)
(2.5115787 -0.0011944918 1.1255292e-21)
(2.5131929 -0.001341305 1.6967648e-22)
(2.5150398 -0.00078233644 -1.7229863e-21)
(1.9449373 0.28789936 5.7833832e-21)
(2.0816634 0.21235378 4.7372566e-21)
(2.169221 0.13005903 8.283355e-21)
(2.2047327 0.11937819 9.9397241e-21)
(2.2489652 0.10359532 2.0371615e-21)
(2.2881696 0.089315528 3.7782775e-21)
(2.3203349 0.071556628 4.5785725e-21)
(2.34712 0.06245424 3.7352156e-21)
(2.3706215 0.050991608 2.8146923e-21)
(2.3901181 0.044463416 1.1289799e-21)
(2.4069643 0.036057715 8.2616726e-22)
(2.4220053 0.031049866 8.3848559e-22)
(2.4348332 0.024724129 2.1436028e-21)
(2.4463402 0.020811056 1.6693887e-21)
(2.4561312 0.015952097 1.264729e-21)
(2.4652821 0.012874114 1.111651e-21)
(2.4728936 0.009124585 8.7382959e-23)
(2.4801781 0.0067244125 -1.7733126e-22)
(2.4861124 0.0039176539 2.0206725e-23)
(2.4919352 0.0021896572 -3.2805721e-23)
(2.4964535 0.0001549196 5.2236332e-22)
(2.5009918 -0.0010028459 1.2581573e-22)
(2.5044378 -0.0022041909 1.7350071e-21)
(2.5079919 -0.002640602 3.5538927e-21)
(2.5102205 -0.0031267043 2.0264818e-21)
(2.5126152 -0.0029573391 1.9130739e-21)
(2.5143656 -0.0023994471 1.4362789e-22)
(2.5162916 -0.0012041522 -1.695754e-21)
(1.8647054 0.2271269 4.839992e-21)
(2.0222743 0.16007062 1.5623114e-21)
(2.1274067 0.086234345 4.9753339e-22)
(2.1630252 0.083485241 1.1619587e-21)
(2.211803 0.073001697 2.3388588e-21)
(2.2561853 0.063411766 2.8955922e-21)
(2.2932671 0.049451816 4.5246567e-21)
(2.3218839 0.043586119 9.8618093e-22)
(2.3481794 0.034691627 1.2470284e-22)
(2.3696542 0.030666083 2.1366783e-21)
(2.3886543 0.024258138 5.2326871e-22)
(2.4049127 0.021035784 1.7388108e-21)
(2.4192897 0.016114126 1.755006e-21)
(2.4317994 0.013503235 2.7758363e-22)
(2.4428182 0.0096582943 -2.0393513e-22)
(2.452838 0.0074860586 -5.9888501e-22)
(2.4615332 0.0044577661 -7.7512411e-22)
(2.4696546 0.0027292733 7.6205001e-23)
(2.4765621 0.00037174254 -1.703522e-22)
(2.4831908 -0.00095703911 4.6383128e-22)
(2.4886986 -0.0026629185 4.2075979e-22)
(2.4941014 -0.0034965365 0)
(2.4983887 -0.0046524382 -3.8540415e-22)
(2.502689 -0.0050846319 -5.3217834e-22)
(2.5060461 -0.0055220718 1.1596272e-21)
(2.5094839 -0.0052794256 3.2091117e-22)
(2.5117549 -0.005177916 1.8725734e-22)
(2.5141705 -0.0044924386 -5.3684314e-22)
(2.5160025 -0.0033525301 -2.2951662e-21)
(2.5179821 -0.0016006122 3.5502341e-21)
(1.8018831 0.15764342 3.3920717e-21)
(1.973634 0.09874684 -2.9908923e-22)
(2.0916057 0.033292737 -3.5005576e-21)
(2.1272585 0.039827514 6.4599436e-22)
(2.1803046 0.03655943 1.2801418e-21)
(2.2284742 0.032235882 1.917796e-21)
(2.2697131 0.0227302 2.4416283e-21)
(2.2996816 0.020487998 -2.2089896e-21)
(2.3283546 0.014658317 -5.6845066e-21)
(2.3514263 0.013490428 -5.1254324e-21)
(2.372291 0.0094680091 -3.3003635e-21)
(2.3894209 0.0083099966 -1.1922892e-21)
(2.4050556 0.0050871226 -7.5418478e-23)
(2.4182732 0.003967252 -2.778261e-22)
(2.4302855 0.0013548484 -1.7154654e-21)
(2.4409228 0.00023724035 -1.0940352e-21)
(2.450471 -0.001935026 -1.4924377e-21)
(2.4592081 -0.0029299462 -6.2918137e-22)
(2.466929 -0.0046642679 1.9266326e-22)
(2.4742039 -0.0054305104 -8.6783888e-22)
(2.4804873 -0.0067628263 -2.7669326e-22)
(2.486545 -0.0072931258 1.1225956e-22)
(2.4916589 -0.0081499935 -2.9637583e-22)
(2.4966879 -0.008291915 -4.7646137e-22)
(2.5007563 -0.0087488896 -6.1741967e-22)
(2.5048412 -0.0085946503 -9.3792242e-22)
(2.5080953 -0.0084001015 -1.7665105e-21)
(2.5114183 -0.0075797736 -5.4596102e-22)
(2.5137128 -0.0069721007 -1.2464538e-21)
(2.5161268 -0.0058385759 -1.306717e-21)
(2.5180136 -0.0041967384 4.2639902e-21)
(2.5200271 -0.0019450666 4.2509454e-21)
(1.7570834 0.083272733 -5.9420367e-22)
(1.9392332 0.032273615 -1.694109e-21)
(2.0636915 -0.025596254 -5.2878172e-21)
(2.0984066 -0.010178554 -5.8079474e-21)
(2.1549892 -0.004386022 -1.5589453e-21)
(2.2058087 -0.0031102015 2.2948928e-21)
(2.2503086 -0.0076316397 2.9548184e-21)
(2.2812447 -0.0060369849 1.5355796e-21)
(2.3117896 -0.008467686 -3.0043323e-21)
(2.3360814 -0.0065132054 -1.6808076e-21)
(2.3584473 -0.0078487683 -1.0829744e-21)
(2.3761159 -0.0066989203 -2.2999613e-21)
(2.3926796 -0.0079727821 -3.0091429e-22)
(2.4062931 -0.0074390075 -1.119581e-21)
(2.4190093 -0.0086428959 -1.3291853e-21)
(2.4299804 -0.0086203695 -1.1903071e-21)
(2.4401422 -0.0097991198 -5.9895748e-22)
(2.4492709 -0.0099824312 -6.8358799e-22)
(2.4575958 -0.01102299 1.5530605e-22)
(2.4653264 -0.011227184 -1.0985428e-22)
(2.4722368 -0.012039342 -1.122546e-21)
(2.4788033 -0.012116248 -1.4398208e-21)
(2.4845486 -0.012680276 -1.0928602e-21)
(2.490119 -0.012616274 -5.4043078e-22)
(2.494883 -0.012814449 -7.1818885e-22)
(2.4995862 -0.012406993 -4.1207511e-22)
(2.5034555 -0.012297292 -7.1187794e-22)
(2.5073474 -0.011654266 -7.3560628e-22)
(2.5104974 -0.010928487 4.3915833e-22)
(2.5137102 -0.0096066421 -7.8068682e-22)
(2.5160074 -0.0085559149 -8.3003632e-22)
(2.5184025 -0.0070261491 3.1120235e-21)
(2.520325 -0.0049368898 3.081035e-21)
(2.5223519 -0.0022384741 -1.1653328e-21)
(1.7272545 0.0065535497 -2.6921608e-21)
(1.9163471 -0.036391386 7.6791669e-21)
(2.0442679 -0.086519904 6.7719259e-21)
(2.077179 -0.06267929 1.1806004e-21)
(2.1358889 -0.048326056 1.1182184e-21)
(2.1884655 -0.041342646 -2.8074509e-21)
(2.2353704 -0.040563055 7.7589175e-22)
(2.2669424 -0.035118636 3.4969755e-21)
(2.2988941 -0.033911449 2.0594249e-21)
(2.3240067 -0.028748312 1.5503349e-21)
(2.3475304 -0.027130021 2.8838586e-21)
(2.3654229 -0.023506642 1.3678187e-21)
(2.3825919 -0.022589984 2.3212479e-22)
(2.3962632 -0.020296455 3.1514022e-22)
(2.4093811 -0.019929783 -4.5269963e-22)
(2.4203886 -0.018715103 -3.4652263e-22)
(2.4308944 -0.018809919 -1.9835856e-22)
(2.4401789 -0.018184099 4.0386436e-22)
(2.4488935 -0.018459111 3.3994169e-22)
(2.4568982 -0.018062804 -5.363525e-23)
(2.4642559 -0.01833597 -3.0903435e-22)
(2.471178 -0.017991379 -5.6723259e-22)
(2.4774173 -0.01814017 -8.5958749e-22)
(2.4833981 -0.017714428 -7.98195e-22)
(2.4886832 -0.017702461 -2.7092527e-22)
(2.4938405 -0.017179245 6.4763268e-22)
(2.4982991 -0.016858112 9.6086971e-22)
(2.5027233 -0.016000958 8.9511242e-22)
(2.5064139 -0.015418908 8.9791097e-22)
(2.5101341 -0.014354172 1.0872696e-21)
(2.513184 -0.013170078 -6.1187448e-23)
(2.5162912 -0.011403091 -1.6891281e-21)
(2.5185741 -0.0099602928 2.04246e-21)
(2.520936 -0.0080744283 9.2349595e-22)
(2.5228742 -0.0055858109 -3.1462728e-21)
(2.5248939 -0.0024917214 -9.3283557e-22)
(1.7117483 -0.070598521 -6.8132058e-22)
(1.9042514 -0.10522212 2.6033059e-21)
(2.0334165 -0.14756129 1.2060699e-20)
(2.0640651 -0.11615342 9.0245918e-21)
(2.1230113 -0.093727474 3.7466426e-21)
(2.1766142 -0.081348619 1.7475996e-21)
(2.2249978 -0.075081697 -2.0291337e-21)
(2.2569237 -0.065884522 -1.0588018e-21)
(2.2898491 -0.060952812 1.497146e-21)
(2.3154824 -0.052561251 2.3667124e-21)
(2.339802 -0.047834457 1.8879367e-21)
(2.357646 -0.041585237 9.7230414e-22)
(2.3751115 -0.038281259 -5.0013663e-22)
(2.3885058 -0.034128962 1.9561245e-22)
(2.4017018 -0.032065549 2.6479342e-22)
(2.4124335 -0.029634414 3.2182304e-22)
(2.4229971 -0.02858364 4.3113374e-22)
(2.4321886 -0.027172016 2.2003887e-22)
(2.4410642 -0.02666974 7.9917679e-22)
(2.4491612 -0.025722883 8.2051236e-22)
(2.4567917 -0.0254313 4.5442395e-22)
(2.4639307 -0.024643415 8.0294996e-22)
(2.4705186 -0.024383938 5.7585648e-22)
(2.4767832 -0.023646844 1.5581897e-22)
(2.4824667 -0.023312061 2.2930185e-22)
(2.487957 -0.022512604 -5.075549e-23)
(2.4928525 -0.022058866 8.2561387e-22)
(2.4976634 -0.021171537 1.3790884e-21)
(2.5018607 -0.02042797 1.3224894e-21)
(2.5060492 -0.019188842 1.832377e-21)
(2.5095807 -0.018200314 2.0275608e-21)
(2.5131478 -0.016758079 2.0694241e-21)
(2.5161015 -0.015167816 5.57425e-22)
(2.5191042 -0.012997918 -1.7550886e-23)
(2.5213589 -0.01120405 -1.1142044e-21)
(2.5236734 -0.0089951871 -3.3554304e-21)
(2.5256073 -0.0061519412 -1.2557328e-21)
(2.5275992 -0.0027094316 1.233415e-21)
(1.7104932 -0.14597559 2.8430181e-21)
(1.902222 -0.17253156 1.9587778e-21)
(2.0305458 -0.20708699 4.666867e-21)
(2.0582217 -0.1688027 5.0031525e-21)
(2.115941 -0.13898059 2.4950238e-21)
(2.1699853 -0.12171628 9.7942974e-22)
(2.2189942 -0.11022962 -9.1848052e-22)
(2.2510948 -0.097482781 -1.4263097e-21)
(2.284609 -0.08891344 -4.083171e-22)
(2.3105406 -0.077292302 -2.1984823e-22)
(2.3353738 -0.069428444 5.7212972e-22)
(2.3529504 -0.060421012 6.2094086e-22)
(2.3704397 -0.054573156 -2.8743495e-22)
(2.3832314 -0.048452009 -1.2713213e-22)
(2.3961853 -0.04458792 5.4019849e-22)
(2.4063131 -0.040925521 2.6132877e-22)
(2.4166329 -0.038700154 3.153792e-22)
(2.4254664 -0.036566795 -2.7334492e-22)
(2.4342628 -0.035310202 -4.8404504e-22)
(2.4422741 -0.033888136 -3.32824e-22)
(2.4500026 -0.033068967 -3.3111097e-22)
(2.4572375 -0.031904122 -9.6700704e-23)
(2.4640423 -0.031231057 2.2341033e-22)
(2.4704888 -0.030158274 -1.9196022e-22)
(2.4764519 -0.029518648 -6.0664982e-22)
(2.4821664 -0.028498124 6.7338205e-22)
(2.4873856 -0.027804711 4.1456087e-22)
(2.4924676 -0.026722696 9.3391798e-22)
(2.4970364 -0.025920137 1.4606366e-21)
(2.5015621 -0.02473091 -5.7194738e-22)
(2.5055388 -0.023629585 -1.1845273e-22)
(2.5095301 -0.022050042 1.4569233e-21)
(2.5129197 -0.020699369 1.4873895e-21)
(2.5163481 -0.018907423 8.7473332e-22)
(2.5192062 -0.016949055 3.3362445e-22)
(2.5221017 -0.014408867 9.3314755e-22)
(2.5243143 -0.012298 -1.163265e-21)
(2.5265666 -0.00979545 -1.611971e-21)
(2.5284763 -0.0066388818 7.4759577e-22)
(2.5304201 -0.0028930834 6.3790569e-22)
(1.7225395 -0.21742067 -6.9562867e-21)
(1.9092757 -0.23662817 6.0056182e-23)
(2.0344871 -0.26367541 -1.1331227e-21)
(2.0586857 -0.21931366 4.7862865e-21)
(2.1139251 -0.18282187 5.5729369e-21)
(2.1678992 -0.16136703 1.5272287e-21)
(2.2168955 -0.14515765 1.7713559e-22)
(2.2490807 -0.1291906 2.4918618e-22)
(2.2829162 -0.11721 -1.3405914e-22)
(2.3090704 -0.10243502 -3.0845988e-22)
(2.3342071 -0.091460847 -1.35269e-22)
(2.3513741 -0.079553169 2.0760219e-22)
(2.3686714 -0.071037679 2.5099509e-22)
(2.3805585 -0.062817052 -5.0900596e-22)
(2.392961 -0.057046959 -3.5236264e-22)
(2.4021433 -0.052143787 -4.6873946e-23)
(2.4119027 -0.048724889 -3.2107541e-22)
(2.4200969 -0.04596234 -1.6815822e-22)
(2.428557 -0.044010234 -7.3391193e-22)
(2.4363046 -0.04224124 -6.8590513e-22)
(2.4439576 -0.040969749 -5.4531516e-22)
(2.4511901 -0.039518264 -5.725347e-22)
(2.4580951 -0.038485939 -3.5565478e-22)
(2.4646523 -0.037131897 1.6952599e-23)
(2.4707986 -0.036181713 -3.8089773e-22)
(2.476656 -0.034900469 -5.6383293e-22)
(2.482097 -0.033986331 6.5303469e-22)
(2.4873471 -0.032765732 5.7713561e-22)
(2.4921793 -0.03180183 1.0732358e-21)
(2.4969284 -0.030499316 1.7642884e-21)
(2.5012279 -0.029409211 -1.6186722e-22)
(2.5055249 -0.027953573 -3.7190817e-21)
(2.509317 -0.026534216 -2.2811162e-21)
(2.5131428 -0.024635791 -1.9555738e-21)
(2.5164038 -0.022951309 -2.5937199e-21)
(2.5197016 -0.020826504 -2.3212474e-21)
(2.5224612 -0.018528999 -1.7950399e-21)
(2.5252418 -0.015645453 8.9733835e-22)
(2.5273979 -0.013247581 5.0486966e-22)
(2.529572 -0.010479095 1.8911417e-23)
(2.531438 -0.0070489876 -9.724071e-23)
(2.533314 -0.0030441287 7.8369966e-22)
(1.7463924 -0.28330887 -6.1909083e-21)
(1.9239795 -0.29608733 -7.0382399e-21)
(2.0437892 -0.31615018 -6.5536423e-22)
(2.0643768 -0.26663368 -5.311428e-21)
(2.1161772 -0.22429235 2.4619744e-22)
(2.1695809 -0.19948576 6.3261818e-21)
(2.2181014 -0.17923098 2.5500293e-21)
(2.2503656 -0.1604649 3.2828081e-22)
(2.2843498 -0.14539517 3.9928508e-22)
(2.3107902 -0.12758163 2.5313959e-22)
(2.3361535 -0.11357352 9.2720938e-23)
(2.3528526 -0.098640776 -1.3534655e-22)
(2.3698156 -0.087326827 2.0840323e-22)
(2.3805427 -0.076832518 3.0171166e-22)
(2.3921046 -0.069031263 -4.2347983e-22)
(2.399978 -0.06284833 -4.7456278e-22)
(2.408847 -0.05822669 -1.8803431e-22)
(2.4160891 -0.054949867 4.1552612e-23)
(2.4239384 -0.052385919 1.9303659e-22)
(2.4312358 -0.050446444 5.8186351e-22)
(2.4386368 -0.048842243 6.5025484e-22)
(2.4457885 -0.047251695 8.488492e-22)
(2.4526971 -0.045950447 8.4576966e-22)
(2.4593329 -0.044382916 3.219945e-22)
(2.4655944 -0.043165569 6.8869565e-22)
(2.4715509 -0.041648074 -1.5327508e-22)
(2.4771379 -0.040493879 -3.2173176e-22)
(2.4824771 -0.039077604 5.3914881e-22)
(2.4874766 -0.03796939 4.651776e-22)
(2.4923423 -0.036613866 -4.3862957e-22)
(2.4968582 -0.035439892 1.9323969e-22)
(2.5013475 -0.033953248 1.9874943e-21)
(2.505431 -0.032611133 -1.3569717e-21)
(2.5095495 -0.030902337 -2.309274e-21)
(2.5131869 -0.029185691 -2.0008965e-21)
(2.5168706 -0.02697539 -2.7492046e-21)
(2.5200107 -0.024974478 -2.4928877e-21)
(2.5231793 -0.022527315 -1.7410188e-22)
(2.5258331 -0.01991444 2.4102192e-21)
(2.5284869 -0.016712099 6.413108e-22)
(2.5305711 -0.01405526 1.8143719e-22)
(2.53265 -0.011048508 -3.0373477e-22)
(2.5344533 -0.0073841827 5.2971923e-22)
(2.536243 -0.0031638905 -2.0729755e-21)
(1.7799124 -0.34241546 1.9544722e-21)
(1.9449207 -0.34987918 3.4845321e-21)
(2.0569846 -0.36366912 2.8409489e-21)
(2.0741312 -0.31002363 1.7953792e-21)
(2.1218631 -0.26272939 -2.5902373e-21)
(2.1742504 -0.23549352 -3.3564475e-21)
(2.2219277 -0.21200237 2.3633436e-21)
(2.25436 -0.19091409 4.550008e-22)
(2.2884195 -0.17315483 -1.6917954e-21)
(2.315322 -0.15247606 8.5435518e-22)
(2.3409728 -0.13554277 7.2398148e-22)
(2.357267 -0.1174229 7.9012031e-22)
(2.3738351 -0.10317629 5.73317e-22)
(2.383164 -0.090190932 -7.8424612e-22)
(2.3936393 -0.080183782 -7.1891104e-22)
(2.3998348 -0.072666165 1.1728856e-22)
(2.4074615 -0.066797637 7.9512402e-23)
(2.4134062 -0.063117961 6.0003344e-23)
(2.4203403 -0.06005409 2.8222487e-22)
(2.4269782 -0.058160846 2.8585465e-22)
(2.433941 -0.056391833 6.5782076e-22)
(2.4409481 -0.054865543 5.5837452e-22)
(2.4477813 -0.053434604 7.4588226e-22)
(2.4545052 -0.051769003 7.4992542e-22)
(2.4608504 -0.050353586 2.5071966e-22)
(2.4669114 -0.048618613 -1.0342494e-21)
(2.4726042 -0.047239021 -1.8607701e-21)
(2.4779902 -0.045616419 -1.2275763e-21)
(2.4830843 -0.04432793 -4.244523e-22)
(2.4879747 -0.042851484 -2.427227e-22)
(2.4926075 -0.041612363 -1.1129187e-21)
(2.4971739 -0.04016688 -7.0938773e-22)
(2.5014424 -0.038819036 9.7999388e-22)
(2.5057428 -0.037159985 1.3407521e-21)
(2.5096579 -0.03558003 4.796237e-22)
(2.5136399 -0.033613327 2.0897023e-21)
(2.5171448 -0.031606335 1.4460405e-21)
(2.5207001 -0.029081873 8.1402686e-22)
(2.5237207 -0.026775407 3.0709259e-21)
(2.5267543 -0.024013918 3.450503e-21)
(2.5292908 -0.02110731 1.786688e-21)
(2.5318023 -0.017610785 2.918068e-22)
(2.5337982 -0.01472257 -1.6738451e-22)
(2.5357643 -0.011505964 -2.8223314e-22)
(2.5374871 -0.0076464614 -2.7681925e-21)
(2.5391732 -0.0032536852 -3.4510711e-21)
(1.8202353 -0.39405433 5.2915729e-21)
(1.9701151 -0.39725896 -1.9927825e-20)
(2.0727028 -0.40566408 -1.8668852e-20)
(2.0867865 -0.34903186 2.5059685e-21)
(2.130119 -0.29774683 1.5062137e-21)
(2.1811411 -0.26901409 6.3928803e-22)
(2.2276715 -0.24317087 -3.5121826e-23)
(2.2604453 -0.22029673 -5.1781486e-23)
(2.294605 -0.20030382 -1.853344e-21)
(2.322263 -0.17695893 -3.119372e-21)
(2.3483829 -0.15726201 -7.2260489e-22)
(2.3644231 -0.13576797 3.3710634e-22)
(2.3806505 -0.1184374 3.9525599e-22)
(2.3884412 -0.10267347 1.1163721e-21)
(2.3975967 -0.090216449 -1.681554e-22)
(2.4016888 -0.081234387 -8.6726844e-22)
(2.4077099 -0.074048138 -7.3892222e-23)
(2.4119583 -0.070113341 1.2631349e-22)
(2.4176423 -0.066636723 1.1117528e-22)
(2.4233888 -0.06505286 -2.7611905e-23)
(2.4297011 -0.063325846 -3.5494927e-23)
(2.4365076 -0.062125782 3.0463806e-22)
(2.443199 -0.060762327 2.0467557e-22)
(2.4500634 -0.059161471 -7.5519215e-22)
(2.4564998 -0.057658301 -7.7678237e-22)
(2.4627275 -0.05575213 -7.4805378e-22)
(2.4685325 -0.054169677 -1.9851437e-21)
(2.4739729 -0.052301999 -1.1338128e-21)
(2.4791239 -0.050813938 -5.2274845e-22)
(2.4839753 -0.049179037 -4.4615602e-22)
(2.48864 -0.047828092 -2.738716e-22)
(2.49317 -0.046358241 -6.2884017e-22)
(2.4975156 -0.045032836 -2.3806479e-22)
(2.5018752 -0.043516985 5.5439231e-22)
(2.5059634 -0.042008284 8.9017427e-22)
(2.5101401 -0.040165444 -3.9068053e-23)
(2.5139267 -0.038344498 1.4826881e-21)
(2.5178028 -0.036101927 1.2687162e-21)
(2.5211884 -0.033802578 6.6492294e-22)
(2.5246185 -0.030957253 8.9890386e-22)
(2.527514 -0.028353379 1.2242337e-21)
(2.5304003 -0.025286217 -2.706149e-22)
(2.5328046 -0.022107602 -1.7238711e-21)
(2.5351555 -0.018343098 -1.2287993e-22)
(2.5370462 -0.015251527 -2.3167589e-22)
(2.5388818 -0.011854487 3.5281868e-22)
(2.5405076 -0.0078384347 -2.4605456e-22)
(2.542075 -0.0033150171 3.3302745e-21)
(1.8647434 -0.43802681 -5.5768628e-21)
(1.9976582 -0.43793761 -1.3026495e-20)
(2.0897377 -0.44197072 -3.7150059e-20)
(2.101244 -0.38344544 -1.8228585e-20)
(2.1401075 -0.32919518 1.911765e-21)
(2.1895304 -0.29985694 -1.6194282e-21)
(2.2346641 -0.27255449 -2.49587e-21)
(2.2680129 -0.24847384 -3.3738638e-21)
(2.3023752 -0.22676247 -3.396002e-21)
(2.3311872 -0.20099832 1.7096038e-22)
(2.3580906 -0.17872835 -9.9890441e-22)
(2.3741298 -0.15365555 -1.112151e-21)
(2.3901579 -0.13304731 -9.9743465e-23)
(2.3963024 -0.11405547 2.3639588e-21)
(2.4040116 -0.098915238 3.0815868e-21)
(2.405581 -0.088282474 -5.0548965e-22)
(2.4095876 -0.079635626 -1.1737891e-21)
(2.4116537 -0.075517181 4.0913268e-23)
(2.4157142 -0.071766662 2.3549299e-22)
(2.4202669 -0.070797644 9.4450996e-23)
(2.4256898 -0.06934825 -4.9297479e-23)
(2.4322348 -0.06882113 -3.0291586e-22)
(2.4387242 -0.067771867 1.5908783e-23)
(2.4458247 -0.06645856 6.9172148e-23)
(2.4523994 -0.065026417 -8.4689301e-22)
(2.4589207 -0.063021771 -1.2796281e-21)
(2.4648983 -0.061281457 -1.2605119e-21)
(2.4704619 -0.059131501 -6.8712257e-22)
(2.4756803 -0.057411135 1.4060458e-22)
(2.480469 -0.055530652 2.6705895e-21)
(2.4851082 -0.054022024 2.7952521e-21)
(2.4895012 -0.052481481 1.2695072e-21)
(2.493818 -0.051133493 9.5741258e-22)
(2.4981003 -0.04971349 2.7844019e-21)
(2.5022458 -0.048322915 3.584633e-21)
(2.5064929 -0.046726846 1.0737505e-21)
(2.5104629 -0.045048373 1.9600254e-22)
(2.5145702 -0.042990599 -2.8464033e-22)
(2.518258 -0.040912687 -5.1740695e-22)
(2.522045 -0.03836839 -1.1647892e-22)
(2.5253145 -0.035770223 9.3981107e-23)
(2.5286117 -0.03259716 -2.9058072e-22)
(2.5313706 -0.029704315 -1.735182e-21)
(2.5340913 -0.026342981 -3.0176946e-21)
(2.5363458 -0.022915602 -1.5178992e-21)
(2.5385162 -0.018911631 -9.1775981e-22)
(2.5402848 -0.015645486 -3.7378211e-22)
(2.5419731 -0.012098277 3.2510087e-22)
(2.5434871 -0.0079634436 3.7317359e-21)
(2.5449229 -0.0033495492 2.7176396e-21)
(1.9119394 -0.47447956 -7.3510096e-21)
(2.0260719 -0.47213126 1.5185242e-20)
(2.1071003 -0.47276169 8.608707e-21)
(2.1165578 -0.4132917 -2.0017781e-20)
(2.151071 -0.35711257 -1.7387374e-21)
(2.1987593 -0.32797573 1.4199506e-21)
(2.2423008 -0.30006661 -1.9997986e-21)
(2.2764939 -0.27539801 7.1842758e-22)
(2.3112134 -0.25252563 -6.274053e-23)
(2.3416546 -0.22463572 4.532276e-21)
(2.3697781 -0.20002982 8.0538744e-21)
(2.3862024 -0.17111339 -3.1058777e-22)
(2.4022811 -0.14702761 -4.0688387e-22)
(2.4067193 -0.12442711 -3.1326931e-21)
(2.412886 -0.10613898 -8.41043e-22)
(2.4114824 -0.093479385 2.4786145e-21)
(2.4130952 -0.083219984 -9.3899099e-22)
(2.4123837 -0.079011248 -7.8521002e-22)
(2.4143727 -0.075114075 3.7538219e-22)
(2.4174426 -0.075030926 1.9075145e-22)
(2.4216584 -0.074173271 5.0648165e-23)
(2.4278472 -0.074714509 -8.4071951e-23)
(2.4340709 -0.074314302 -3.2560997e-22)
(2.4415321 -0.073588077 -5.6012213e-23)
(2.4483333 -0.072438161 -6.4838059e-24)
(2.4553435 -0.070448911 -7.9168683e-22)
(2.4616153 -0.068622938 -1.2051222e-21)
(2.4674447 -0.066151293 4.5170826e-22)
(2.4728 -0.064163432 1.0242264e-21)
(2.4775563 -0.061925336 2.5913237e-22)
(2.4821521 -0.060179099 2.6645758e-21)
(2.4863298 -0.058455815 1.3333921e-21)
(2.4905253 -0.057029829 -1.4044933e-22)
(2.4945888 -0.055673395 2.4659712e-22)
(2.4986633 -0.054372651 1.9690522e-21)
(2.5028281 -0.05300857 2.750664e-21)
(2.5068633 -0.051546275 3.5380242e-22)
(2.5110852 -0.049830535 -1.6286895e-21)
(2.5149892 -0.047954402 -2.1123712e-21)
(2.519065 -0.045636169 -1.7043942e-21)
(2.5226702 -0.043277436 -1.3419732e-21)
(2.5263698 -0.040403059 -5.6661141e-22)
(2.5295165 -0.037499165 -9.4178513e-22)
(2.5326636 -0.033994737 -1.8235065e-22)
(2.5352685 -0.03082382 -1.3755291e-21)
(2.5378011 -0.02718398 -8.7038182e-22)
(2.539887 -0.023533285 -2.8984533e-22)
(2.5418562 -0.019320725 -2.4353094e-22)
(2.5434866 -0.015909439 4.2271112e-22)
(2.5450118 -0.012242728 -7.8516654e-22)
(2.5464017 -0.0080254675 -1.8210853e-21)
(2.5476952 -0.0033590658 -2.4191623e-21)
(1.9613349 -0.50369924 1.6498534e-20)
(2.0548932 -0.50000873 3.8761492e-20)
(2.1241254 -0.49841261 6.1107861e-20)
(2.1319765 -0.43883914 4.6300754e-21)
(2.1623756 -0.38166296 -2.2655278e-20)
(2.2082465 -0.35343846 5.5474276e-22)
(2.2500544 -0.3256941 3.5746708e-21)
(2.2853729 -0.30107377 4.7906176e-21)
(2.3206355 -0.27763864 7.4874464e-21)
(2.3532436 -0.24797882 1.9009128e-21)
(2.3831182 -0.22131878 6.2932055e-21)
(2.400434 -0.18828031 1.0170471e-20)
(2.4169456 -0.16046225 2.2466639e-21)
(2.4196631 -0.13364781 -1.9564744e-21)
(2.4242076 -0.11181226 -4.5723809e-21)
(2.4194198 -0.09683645 -2.2616901e-21)
(2.4182377 -0.08458865 8.7249387e-22)
(2.4142079 -0.080444771 -1.5262737e-22)
(2.4134678 -0.076325276 6.3191319e-24)
(2.414615 -0.077499673 2.492847e-22)
(2.4172889 -0.077496455 5.1138792e-23)
(2.4230362 -0.079621619 2.031093e-22)
(2.428897 -0.08025722 8.0522845e-23)
(2.4368825 -0.080477161 -3.8664337e-22)
(2.444025 -0.079907586 -1.305581e-22)
(2.4517852 -0.078096401 -3.8896859e-22)
(2.4585379 -0.07629619 -1.1397846e-21)
(2.464858 -0.073472476 -4.50346e-22)
(2.4704909 -0.071181871 1.1359195e-21)
(2.4753133 -0.06844017 2.0780217e-21)
(2.4799005 -0.066348364 1.368256e-21)
(2.4838199 -0.06428389 2.6093546e-22)
(2.4878241 -0.06267474 -1.0433166e-21)
(2.4915272 -0.061276381 -2.1718153e-21)
(2.4953982 -0.060022295 -1.8370864e-21)
(2.4993053 -0.058893826 -1.8359387e-21)
(2.5032609 -0.057650032 -1.1589859e-21)
(2.5074408 -0.056304016 -1.7137581e-21)
(2.5114493 -0.054735245 -3.6243771e-21)
(2.5157157 -0.052835246 -7.1883773e-22)
(2.5195905 -0.050719468 -3.0871139e-22)
(2.5236523 -0.04808762 -1.9615755e-21)
(2.5271773 -0.045421422 -1.2343241e-21)
(2.530776 -0.042191083 -1.7440479e-21)
(2.5337838 -0.038977348 -1.0356441e-21)
(2.5367553 -0.035143572 1.3970493e-22)
(2.5391849 -0.031709255 6.4416256e-22)
(2.5415041 -0.027811237 2.6853625e-22)
(2.5434018 -0.023964951 3.2175774e-22)