/*--------------------------------*- C++ -*----------------------------------*\
| =========                 |                                                 |
| \\      /  F ield         | OpenFOAM: The Open Source CFD Toolbox           |
|  \\    /   O peration     | Version:  v2012                                 |
|   \\  /    A nd           | Website:  www.openfoam.com                      |
|    \\/     M anipulation  |                                                 |
\*---------------------------------------------------------------------------*/
FoamFile
{
    version     2.0;
    format      ascii;
    class       volVectorField;
    location    "91.205981213020209";
    object      cellDisplacement;
}
// * * * * * * * * * * * * * * * * * * * * * * * * * * * * * * * * * * * * * //

dimensions      [0 1 0 0 0 0 0];


internalField   nonuniform List<vector> 
9200
(
(-0.0050426521 0 0)
(-0.0050570336 0 0)
(-0.014608279 0 0)
(-0.0050854571 0 0)
(-0.014662676 0 0)
(-0.023505123 0 0)
(-0.0051113937 0 0)
(-0.014744224 0 0)
(-0.023594615 0 0)
(-0.031796103 0 0)
(-0.0051267997 0 0)
(-0.014805942 0 0)
(-0.023715952 0 0)
(-0.031910957 0 0)
(-0.039520926 0 0)
(-0.0051334382 0 0)
(-0.014844239 0 0)
(-0.023818937 0 0)
(-0.032066339 0 0)
(-0.039649117 0 0)
(-0.046746485 0 0)
(-0.0051353367 0 0)
(-0.0148636 0 0)
(-0.023898621 0 0)
(-0.032242144 0 0)
(-0.039868539 0 0)
(-0.046899463 0 0)
(-0.053509045 0 0)
(-0.0051299655 0 0)
(-0.014860166 0 0)
(-0.023926422 0 0)
(-0.032334197 0 0)
(-0.040043593 0 0)
(-0.047113077 0 0)
(-0.0536666 0 0)
(-0.059863745 0 0)
(-0.0051213937 0 0)
(-0.014843108 0 0)
(-0.02392236 0 0)
(-0.032389605 0 0)
(-0.040216202 0 0)
(-0.047384451 0 0)
(-0.053943831 0 0)
(-0.060048396 0 0)
(-0.065829876 0 0)
(-0.0051073161 0 0)
(-0.014808998 0 0)
(-0.023889102 0 0)
(-0.032391407 0 0)
(-0.040300944 0 0)
(-0.047574915 0 0)
(-0.054213406 0 0)
(-0.060330361 0 0)
(-0.066030445 0 0)
(-0.071450797 0 0)
(-0.005091113 0 0)
(-0.014765914 0 0)
(-0.023832227 0 0)
(-0.032352325 0 0)
(-0.040326865 0 0)
(-0.047713893 0 0)
(-0.05449044 0 0)
(-0.060693378 0 0)
(-0.066382358 0 0)
(-0.071687193 0 0)
(-0.076731715 0 0)
(-0.0050712785 0 0)
(-0.014710315 0 0)
(-0.023755493 0 0)
(-0.032282258 0 0)
(-0.040302332 0 0)
(-0.047788074 0 0)
(-0.054708791 0 0)
(-0.061027142 0 0)
(-0.066772437 0 0)
(-0.072068934 0 0)
(-0.076997601 0 0)
(-0.081709167 0 0)
(-0.0050504861 0 0)
(-0.014650186 0 0)
(-0.023662092 0 0)
(-0.032179905 0 0)
(-0.040232561 0 0)
(-0.047797773 0 0)
(-0.054843234 0 0)
(-0.061317779 0 0)
(-0.067206675 0 0)
(-0.072569062 0 0)
(-0.077465512 0 0)
(-0.082021879 0 0)
(-0.086380558 0 0)
(-0.005027871 0 0)
(-0.014581751 0 0)
(-0.023555065 0 0)
(-0.03205719 0 0)
(-0.040128505 0 0)
(-0.047751033 0 0)
(-0.054904638 0 0)
(-0.061539276 0 0)
(-0.067598811 0 0)
(-0.073073487 0 0)
(-0.078018999 0 0)
(-0.082545307 0 0)
(-0.086735854 0 0)
(-0.090778392 0 0)
(-0.0050053627 0 0)
(-0.014513104 0 0)
(-0.023438908 0 0)
(-0.031910198 0 0)
(-0.03998852 0 0)
(-0.047658946 0 0)
(-0.054903218 0 0)
(-0.06167856 0 0)
(-0.067925138 0 0)
(-0.073578104 0 0)
(-0.078652745 0 0)
(-0.083229296 0 0)
(-0.08736066 0 0)
(-0.091190081 0 0)
(-0.094894938 0 0)
(-0.0049826523 0 0)
(-0.014440123 0 0)
(-0.023314779 0 0)
(-0.031750695 0 0)
(-0.039826141 0 0)
(-0.047524282 0 0)
(-0.054839596 0 0)
(-0.061741064 0 0)
(-0.06815855 0 0)
(-0.074016632 0 0)
(-0.079278327 0 0)
(-0.083960889 0 0)
(-0.088129814 0 0)
(-0.091894125 0 0)
(-0.095360461 0 0)
(-0.098760564 0 0)
(-0.0049606996 0 0)
(-0.014369628 0 0)
(-0.023187956 0 0)
(-0.031575747 0 0)
(-0.039637129 0 0)
(-0.047356131 0 0)
(-0.05473023 0 0)
(-0.061730076 0 0)
(-0.068299032 0 0)
(-0.074363224 0 0)
(-0.079847336 0 0)
(-0.084717366 0 0)
(-0.089014906 0 0)
(-0.092814089 0 0)
(-0.096180611 0 0)
(-0.099291212 0 0)
(-0.1023651 0 0)
(-0.0049396984 0 0)
(-0.014298237 0 0)
(-0.023058817 0 0)
(-0.031396537 0 0)
(-0.039436795 0 0)
(-0.04715933 0 0)
(-0.054571094 0 0)
(-0.061661195 0 0)
(-0.068363506 0 0)
(-0.07461059 0 0)
(-0.080332262 0 0)
(-0.085442174 0 0)
(-0.089925694 0 0)
(-0.09382591 0 0)
(-0.097213542 0 0)
(-0.1002106 0 0)
(-0.10295879 0 0)
(-0.10573738 0 0)
(-0.0049199773 0 0)
(-0.014231447 0 0)
(-0.022932804 0 0)
(-0.031210142 0 0)
(-0.039219902 0 0)
(-0.046939576 0 0)
(-0.054380816 0 0)
(-0.061535621 0 0)
(-0.068349494 0 0)
(-0.074764392 0 0)
(-0.080703312 0 0)
(-0.086070657 0 0)
(-0.090804003 0 0)
(-0.094897716 0 0)
(-0.098407238 0 0)
(-0.10141332 0 0)
(-0.10400673 0 0)
(-0.10640298 0 0)
(-0.10886662 0 0)
(-0.0049020207 0 0)
(-0.014166312 0 0)
(-0.022808516 0 0)
(-0.031026219 0 0)
(-0.039001174 0 0)
(-0.046705029 0 0)
(-0.054154589 0 0)
(-0.061366651 0 0)
(-0.068278127 0 0)
(-0.074829008 0 0)
(-0.080963873 0 0)
(-0.086589617 0 0)
(-0.091605131 0 0)
(-0.095955708 0 0)
(-0.099660014 0 0)
(-0.10276095 0 0)
(-0.10534712 0 0)
(-0.10756618 0 0)
(-0.10960193 0 0)
(-0.11178057 0 0)
(-0.0048856323 0 0)
(-0.01410656 0 0)
(-0.022690704 0 0)
(-0.030842128 0 0)
(-0.03877554 0 0)
(-0.046458939 0 0)
(-0.053913049 0 0)
(-0.06115845 0 0)
(-0.068143849 0 0)
(-0.074821027 0 0)
(-0.08113073 0 0)
(-0.086987593 0 0)
(-0.092292836 0 0)
(-0.096942175 0 0)
(-0.10090442 0 0)
(-0.10420353 0 0)
(-0.10689943 0 0)
(-0.10909044 0 0)
(-0.11090239 0 0)
(-0.11259206 0 0)
(-0.11446925 0 0)
(-0.0048713531 0 0)
(-0.014050307 0 0)
(-0.022577883 0 0)
(-0.030666703 0 0)
(-0.03855565 0 0)
(-0.046210704 0 0)
(-0.053649633 0 0)
(-0.06092192 0 0)
(-0.067970814 0 0)
(-0.074743449 0 0)
(-0.081202471 0 0)
(-0.087274255 0 0)
(-0.092849347 0 0)
(-0.097813883 0 0)
(-0.10208997 0 0)
(-0.10565674 0 0)
(-0.10854993 0 0)
(-0.11081972 0 0)
(-0.1125833 0 0)
(-0.11401866 0 0)
(-0.11535424 0 0)
(-0.11695943 0 0)
(-0.0048587652 0 0)
(-0.013999921 0 0)
(-0.02247288 0 0)
(-0.030495947 0 0)
(-0.038336923 0 0)
(-0.04596014 0 0)
(-0.053384546 0 0)
(-0.060664719 0 0)
(-0.06775299 0 0)
(-0.074611248 0 0)
(-0.081201843 0 0)
(-0.087453084 0 0)
(-0.093272561 0 0)
(-0.098548467 0 0)
(-0.10316338 0 0)
(-0.10704932 0 0)
(-0.11021518 0 0)
(-0.11268573 0 0)
(-0.11453512 0 0)
(-0.11589261 0 0)
(-0.1169228 0 0)
(-0.11792231 0 0)
(-0.11924284 0 0)
(-0.0048483454 0 0)
(-0.013954085 0 0)
(-0.022374706 0 0)
(-0.03033807 0 0)
(-0.038129 0 0)
(-0.04571658 0 0)
(-0.05311055 0 0)
(-0.060393671 0 0)
(-0.06751496 0 0)
(-0.074431027 0 0)
(-0.081125559 0 0)
(-0.087543139 0 0)
(-0.093582382 0 0)
(-0.099139589 0 0)
(-0.10410349 0 0)
(-0.10834984 0 0)
(-0.11183811 0 0)
(-0.11458578 0 0)
(-0.11663057 0 0)
(-0.11803927 0 0)
(-0.11896655 0 0)
(-0.11962298 0 0)
(-0.12028043 0 0)
(-0.12134517 0 0)
(-0.0048395292 0 0)
(-0.013914247 0 0)
(-0.022286118 0 0)
(-0.030188186 0 0)
(-0.037928517 0 0)
(-0.045478795 0 0)
(-0.05284665 0 0)
(-0.060117721 0 0)
(-0.067249898 0 0)
(-0.074214257 0 0)
(-0.080997966 0 0)
(-0.087548825 0 0)
(-0.093778479 0 0)
(-0.099593834 0 0)
(-0.1048747 0 0)
(-0.10948506 0 0)
(-0.11334871 0 0)
(-0.11643899 0 0)
(-0.11876878 0 0)
(-0.12037062 0 0)
(-0.12134718 0 0)
(-0.12186367 0 0)
(-0.12212379 0 0)
(-0.12245999 0 0)
(-0.12326029 0 0)
(-0.0048324269 0 0)
(-0.013879245 0 0)
(-0.022205419 0 0)
(-0.030052982 0 0)
(-0.03774198 0 0)
(-0.045253531 0 0)
(-0.052583886 0 0)
(-0.059840252 0 0)
(-0.06698063 0 0)
(-0.073970779 0 0)
(-0.080816571 0 0)
(-0.087486824 0 0)
(-0.093886 0 0)
(-0.099919252 0 0)
(-0.10548987 0 0)
(-0.11046932 0 0)
(-0.11473184 0 0)
(-0.11820183 0 0)
(-0.120876 0 0)
(-0.12276582 0 0)
(-0.12392409 0 0)
(-0.12445118 0 0)
(-0.12454132 0 0)
(-0.12443688 0 0)
(-0.1244487 0 0)
(-0.12501274 0 0)
(-0.0048266783 0 0)
(-0.013849893 0 0)
(-0.022134745 0 0)
(-0.029927916 0 0)
(-0.037567303 0 0)
(-0.04503969 0 0)
(-0.05233925 0 0)
(-0.059571031 0 0)
(-0.066700852 0 0)
(-0.073708891 0 0)
(-0.080605698 0 0)
(-0.087365385 0 0)
(-0.093903734 0 0)
(-0.10013831 0 0)
(-0.10597035 0 0)
(-0.11127571 0 0)
(-0.11592033 0 0)
(-0.1197989 0 0)
(-0.12287529 0 0)
(-0.12512891 0 0)
(-0.12657793 0 0)
(-0.127278 0 0)
(-0.12736783 0 0)
(-0.12705018 0 0)
(-0.12656539 0 0)
(-0.12627564 0 0)
(-0.12659841 0 0)
(-0.0048220303 0 0)
(-0.013825076 0 0)
(-0.022072335 0 0)
(-0.029818823 0 0)
(-0.03740905 0 0)
(-0.044842732 0 0)
(-0.052103268 0 0)
(-0.059309679 0 0)
(-0.066429323 0 0)
(-0.073438972 0 0)
(-0.080362677 0 0)
(-0.087198158 0 0)
(-0.093858098 0 0)
(-0.10025669 0 0)
(-0.10631363 0 0)
(-0.11191894 0 0)
(-0.11693514 0 0)
(-0.1212353 0 0)
(-0.1247423 0 0)
(-0.12740568 0 0)
(-0.12921884 0 0)
(-0.13020554 0 0)
(-0.13044989 0 0)
(-0.13008948 0 0)
(-0.12935672 0 0)
(-0.12852313 0 0)
(-0.12793185 0 0)
(-0.12804106 0 0)
(-0.0048184773 0 0)
(-0.01380485 0 0)
(-0.022020147 0 0)
(-0.029721504 0 0)
(-0.037265873 0 0)
(-0.044661395 0 0)
(-0.051889533 0 0)
(-0.059064809 0 0)
(-0.066160342 0 0)
(-0.073165708 0 0)
(-0.080109022 0 0)
(-0.086996524 0 0)
(-0.093748467 0 0)
(-0.10029427 0 0)
(-0.10655472 0 0)
(-0.11242196 0 0)
(-0.11777197 0 0)
(-0.12247784 0 0)
(-0.12641683 0 0)
(-0.12951722 0 0)
(-0.13176117 0 0)
(-0.13312512 0 0)
(-0.13365093 0 0)
(-0.13342866 0 0)
(-0.13263376 0 0)
(-0.13150436 0 0)
(-0.13031293 0 0)
(-0.12944444 0 0)
(-0.12933769 0 0)
(-0.0048152342 0 0)
(-0.013789107 0 0)
(-0.021976795 0 0)
(-0.02964042 0 0)
(-0.03714101 0 0)
(-0.044499442 0 0)
(-0.051689781 0 0)
(-0.058834405 0 0)
(-0.065908243 0 0)
(-0.072898752 0 0)
(-0.079842426 0 0)
(-0.086769728 0 0)
(-0.093599981 0 0)
(-0.10025994 0 0)
(-0.10668803 0 0)
(-0.11279129 0 0)
(-0.11844821 0 0)
(-0.12352926 0 0)
(-0.12790174 0 0)
(-0.13146505 0 0)
(-0.13416759 0 0)
(-0.13596639 0 0)
(-0.13686514 0 0)
(-0.13691337 0 0)
(-0.1362311 0 0)
(-0.13499398 0 0)
(-0.13346806 0 0)
(-0.13194991 0 0)
(-0.13080698 0 0)
(-0.13051198 0 0)
(-0.0047937702 0 0)
(-0.013776406 0 0)
(-0.021943039 0 0)
(-0.029572849 0 0)
(-0.037033285 0 0)
(-0.044356209 0 0)
(-0.051515201 0 0)
(-0.058626546 0 0)
(-0.065668663 0 0)
(-0.072640415 0 0)
(-0.079580159 0 0)
(-0.086529454 0 0)
(-0.09341184 0 0)
(-0.10016985 0 0)
(-0.10674712 0 0)
(-0.1130532 0 0)
(-0.11897472 0 0)
(-0.12439575 0 0)
(-0.12918496 0 0)
(-0.13320984 0 0)
(-0.13637885 0 0)
(-0.13864711 0 0)
(-0.13999707 0 0)
(-0.14042142 0 0)
(-0.13999658 0 0)
(-0.13884853 0 0)
(-0.1371883 0 0)
(-0.13528481 0 0)
(-0.13343695 0 0)
(-0.13204562 0 0)
(-0.13156062 0 0)
(-0.0047691359 0 0)
(-0.013726141 0 0)
(-0.021918211 0 0)
(-0.02952129 0 0)
(-0.036944888 0 0)
(-0.044234059 0 0)
(-0.051358606 0 0)
(-0.058437719 0 0)
(-0.065451306 0 0)
(-0.072398115 0 0)
(-0.079320087 0 0)
(-0.086281458 0 0)
(-0.093206327 0 0)
(-0.10003521 0 0)
(-0.10672843 0 0)
(-0.1132114 0 0)
(-0.11937411 0 0)
(-0.12510182 0 0)
(-0.13026756 0 0)
(-0.13474289 0 0)
(-0.13839948 0 0)
(-0.14116038 0 0)
(-0.14299701 0 0)
(-0.14387132 0 0)
(-0.14381022 0 0)
(-0.14290022 0 0)
(-0.14129709 0 0)
(-0.13921163 0 0)
(-0.13693702 0 0)
(-0.13479021 0 0)
(-0.13315465 0 0)
(-0.13250618 0 0)
(-0.0047477013 0 0)
(-0.013652568 0 0)
(-0.021840073 0 0)
(-0.029484869 0 0)
(-0.036876154 0 0)
(-0.044133823 0 0)
(-0.05122816 0 0)
(-0.058274372 0 0)
(-0.065253323 0 0)
(-0.072172887 0 0)
(-0.079075168 0 0)
(-0.086037067 0 0)
(-0.092982731 0 0)
(-0.099867958 0 0)
(-0.10666124 0 0)
(-0.11329338 0 0)
(-0.11965841 0 0)
(-0.12565556 0 0)
(-0.13116891 0 0)
(-0.13606079 0 0)
(-0.14019545 0 0)
(-0.14346423 0 0)
(-0.14579945 0 0)
(-0.14717071 0 0)
(-0.14756882 0 0)
(-0.14701568 0 0)
(-0.14562941 0 0)
(-0.14357093 0 0)
(-0.14108213 0 0)
(-0.13845633 0 0)
(-0.1360122 0 0)
(-0.13415833 0 0)
(-0.13334469 0 0)
(-0.0047289359 0 0)
(-0.013588695 0 0)
(-0.021723524 0 0)
(-0.02938177 0 0)
(-0.036826766 0 0)
(-0.044054898 0 0)
(-0.051119996 0 0)
(-0.058133319 0 0)
(-0.065081237 0 0)
(-0.071970683 0 0)
(-0.078843548 0 0)
(-0.085798569 0 0)
(-0.092759069 0 0)
(-0.099679907 0 0)
(-0.10654482 0 0)
(-0.11330153 0 0)
(-0.1198469 0 0)
(-0.1260846 0 0)
(-0.13190015 0 0)
(-0.13717137 0 0)
(-0.14176458 0 0)
(-0.14554393 0 0)
(-0.14840656 0 0)
(-0.15030143 0 0)
(-0.15120613 0 0)
(-0.15110183 0 0)
(-0.15005264 0 0)
(-0.14818459 0 0)
(-0.14568541 0 0)
(-0.14279665 0 0)
(-0.13983095 0 0)
(-0.1371197 0 0)
(-0.13505149 0 0)
(-0.13409758 0 0)
(-0.0047134224 0 0)
(-0.013533251 0 0)
(-0.021622624 0 0)
(-0.029225308 0 0)
(-0.036696462 0 0)
(-0.044000046 0 0)
(-0.0510378 0 0)
(-0.05801918 0 0)
(-0.064933304 0 0)
(-0.071790856 0 0)
(-0.078632289 0 0)
(-0.085574968 0 0)
(-0.092534508 0 0)
(-0.099479395 0 0)
(-0.10640273 0 0)
(-0.11326186 0 0)
(-0.11995379 0 0)
(-0.12639523 0 0)
(-0.13248726 0 0)
(-0.13810206 0 0)
(-0.1431101 0 0)
(-0.14738199 0 0)
(-0.15078152 0 0)
(-0.15321981 0 0)
(-0.15465221 0 0)
(-0.15505923 0 0)
(-0.1544568 0 0)
(-0.15290872 0 0)
(-0.15057214 0 0)
(-0.14763766 0 0)
(-0.14437288 0 0)
(-0.1410889 0 0)
(-0.13811421 0 0)
(-0.1358569 0 0)
(-0.13476062 0 0)
(-0.0047006963 0 0)
(-0.013487708 0 0)
(-0.021537277 0 0)
(-0.029090732 0 0)
(-0.036497113 0 0)
(-0.043843931 0 0)
(-0.050981702 0 0)
(-0.057931927 0 0)
(-0.064812271 0 0)
(-0.071637259 0 0)
(-0.07844224 0 0)
(-0.085367004 0 0)
(-0.092323141 0 0)
(-0.09927733 0 0)
(-0.10623657 0 0)
(-0.11317636 0 0)
(-0.11999426 0 0)
(-0.12661487 0 0)
(-0.13294172 0 0)
(-0.13886097 0 0)
(-0.14425318 0 0)
(-0.14898178 0 0)
(-0.15290459 0 0)
(-0.15590358 0 0)
(-0.15789841 0 0)
(-0.15885321 0 0)
(-0.15876307 0 0)
(-0.15764284 0 0)
(-0.15559857 0 0)
(-0.15279404 0 0)
(-0.14944217 0 0)
(-0.14580967 0 0)
(-0.14222164 0 0)
(-0.13901229 0 0)
(-0.13656926 0 0)
(-0.13535271 0 0)
(-0.0046912622 0 0)
(-0.013450828 0 0)
(-0.021467791 0 0)
(-0.028977501 0 0)
(-0.036325989 0 0)
(-0.043604024 0 0)
(-0.050805293 0 0)
(-0.057871231 0 0)
(-0.064720988 0 0)
(-0.071511049 0 0)
(-0.078276182 0 0)
(-0.085181989 0 0)
(-0.092123873 0 0)
(-0.099079158 0 0)
(-0.10606374 0 0)
(-0.11306797 0 0)
(-0.1199843 0 0)
(-0.12674966 0 0)
(-0.13328636 0 0)
(-0.13947819 0 0)
(-0.1452071 0 0)
(-0.15035298 0 0)
(-0.15477479 0 0)
(-0.15832766 0 0)
(-0.16090119 0 0)
(-0.16243437 0 0)
(-0.16289066 0 0)
(-0.16227903 0 0)
(-0.16065085 0 0)
(-0.15811283 0 0)
(-0.1548577 0 0)
(-0.15109887 0 0)
(-0.14712409 0 0)
(-0.14325377 0 0)
(-0.1398144 0 0)
(-0.13720863 0 0)
(-0.13587029 0 0)
(-0.0046847469 0 0)
(-0.013424055 0 0)
(-0.021413937 0 0)
(-0.028886218 0 0)
(-0.036182445 0 0)
(-0.043396353 0 0)
(-0.050525948 0 0)
(-0.057671889 0 0)
(-0.064655606 0 0)
(-0.071411634 0 0)
(-0.078138467 0 0)
(-0.085019958 0 0)
(-0.091946817 0 0)
(-0.09889386 0 0)
(-0.10588754 0 0)
(-0.11293816 0 0)
(-0.11993494 0 0)
(-0.12682486 0 0)
(-0.13353469 0 0)
(-0.13996 0 0)
(-0.14599695 0 0)
(-0.15152231 0 0)
(-0.15639817 0 0)
(-0.160485 0 0)
(-0.16364197 0 0)
(-0.16577267 0 0)
(-0.16682136 0 0)
(-0.16676694 0 0)
(-0.16563672 0 0)
(-0.16348784 0 0)
(-0.16046564 0 0)
(-0.15676669 0 0)
(-0.15262145 0 0)
(-0.14831627 0 0)
(-0.14417907 0 0)
(-0.14053624 0 0)
(-0.13777062 0 0)
(-0.13632939 0 0)
(-0.0046815839 0 0)
(-0.013406208 0 0)
(-0.021376152 0 0)
(-0.028815931 0 0)
(-0.036066492 0 0)
(-0.04322324 0 0)
(-0.050284524 0 0)
(-0.057347483 0 0)
(-0.064430868 0 0)
(-0.071343039 0 0)
(-0.078027009 0 0)
(-0.084885322 0 0)
(-0.091791657 0 0)
(-0.09872505 0 0)
(-0.10571964 0 0)
(-0.11280512 0 0)
(-0.11986167 0 0)
(-0.12684649 0 0)
(-0.1337062 0 0)
(-0.140337 0 0)
(-0.14663733 0 0)
(-0.15250089 0 0)
(-0.15779779 0 0)
(-0.16237915 0 0)
(-0.16609857 0 0)
(-0.16883445 0 0)
(-0.17049973 0 0)
(-0.17104965 0 0)
(-0.1704683 0 0)
(-0.16880468 0 0)
(-0.16615022 0 0)
(-0.16265146 0 0)
(-0.15852924 0 0)
(-0.15401213 0 0)
(-0.14940233 0 0)
(-0.14501955 0 0)
(-0.14117775 0 0)
(-0.13827203 0 0)
(-0.1367283 0 0)
(-0.0046814525 0 0)
(-0.013398663 0 0)
(-0.021354173 0 0)
(-0.028767996 0 0)
(-0.035978486 0 0)
(-0.043082885 0 0)
(-0.050083002 0 0)
(-0.057068209 0 0)
(-0.064058273 0 0)
(-0.071084198 0 0)
(-0.077950271 0 0)
(-0.084781689 0 0)
(-0.09166439 0 0)
(-0.098579233 0 0)
(-0.10556475 0 0)
(-0.11267078 0 0)
(-0.11977187 0 0)
(-0.12683569 0 0)
(-0.13381575 0 0)
(-0.14061547 0 0)
(-0.14715071 0 0)
(-0.15331764 0 0)
(-0.15898638 0 0)
(-0.16402069 0 0)
(-0.16827599 0 0)
(-0.17160734 0 0)
(-0.17389878 0 0)
(-0.17508112 0 0)
(-0.17511162 0 0)
(-0.17399774 0 0)
(-0.17180916 0 0)
(-0.16864488 0 0)
(-0.16468413 0 0)
(-0.16015053 0 0)
(-0.15528391 0 0)
(-0.15038336 0 0)
(-0.14577024 0 0)
(-0.14175286 0 0)
(-0.13871052 0 0)
(-0.13708057 0 0)
(-0.013400466 0 0)
(-0.0046841159 0 0)
(-0.021348611 0 0)
(-0.028740962 0 0)
(-0.035917557 0 0)
(-0.042976335 0 0)
(-0.049919281 0 0)
(-0.056832225 0 0)
(-0.063738286 0 0)
(-0.070661229 0 0)
(-0.077659138 0 0)
(-0.084707808 0 0)
(-0.091569311 0 0)
(-0.098460816 0 0)
(-0.10542991 0 0)
(-0.11254832 0 0)
(-0.11967906 0 0)
(-0.12679833 0 0)
(-0.13387844 0 0)
(-0.14082349 0 0)
(-0.14755412 0 0)
(-0.15398325 0 0)
(-0.15999262 0 0)
(-0.16543999 0 0)
(-0.17018344 0 0)
(-0.1740841 0 0)
(-0.17699819 0 0)
(-0.17882319 0 0)
(-0.17949901 0 0)
(-0.17900053 0 0)
(-0.17734474 0 0)
(-0.17462623 0 0)
(-0.17097156 0 0)
(-0.1665615 0 0)
(-0.16163938 0 0)
(-0.15644046 0 0)
(-0.15127469 0 0)
(-0.14645038 0 0)
(-0.14226192 0 0)
(-0.1391003 0 0)
(-0.13738599 0 0)
(-0.021359031 0 0)
(-0.013410956 0 0)
(-0.0046892782 0 0)
(-0.028736658 0 0)
(-0.035885219 0 0)
(-0.042902839 0 0)
(-0.049794733 0 0)
(-0.056640939 0 0)
(-0.063465092 0 0)
(-0.070290401 0 0)
(-0.077183293 0 0)
(-0.084397211 0 0)
(-0.09150417 0 0)
(-0.098371479 0 0)
(-0.10532162 0 0)
(-0.11244062 0 0)
(-0.11958851 0 0)
(-0.12675053 0 0)
(-0.13390782 0 0)
(-0.14096712 0 0)
(-0.14786622 0 0)
(-0.15452624 0 0)
(-0.1608305 0 0)
(-0.16664727 0 0)
(-0.17184283 0 0)
(-0.17627234 0 0)
(-0.17978745 0 0)
(-0.18225929 0 0)
(-0.1835963 0 0)
(-0.18375299 0 0)
(-0.18271156 0 0)
(-0.18051625 0 0)
(-0.17727952 0 0)
(-0.17313753 0 0)
(-0.16829685 0 0)
(-0.16300214 0 0)
(-0.15749521 0 0)
(-0.15207773 0 0)
(-0.14705623 0 0)
(-0.14271685 0 0)
(-0.13944062 0 0)
(-0.13765542 0 0)
(-0.028753214 0 0)
(-0.021383306 0 0)
(-0.013429368 0 0)
(-0.004697847 0 0)
(-0.035879682 0 0)
(-0.042862704 0 0)
(-0.04970817 0 0)
(-0.056492839 0 0)
(-0.063244096 0 0)
(-0.069977777 0 0)
(-0.076764376 0 0)
(-0.083868797 0 0)
(-0.091170031 0 0)
(-0.09831725 0 0)
(-0.10524117 0 0)
(-0.11235468 0 0)
(-0.11951033 0 0)
(-0.12669815 0 0)
(-0.1339158 0 0)
(-0.14107025 0 0)
(-0.14810507 0 0)
(-0.15495793 0 0)
(-0.16152588 0 0)
(-0.16767506 0 0)
(-0.17327223 0 0)
(-0.17818608 0 0)
(-0.18227013 0 0)
(-0.18537379 0 0)
(-0.18737605 0 0)
(-0.1882069 0 0)
(-0.18782671 0 0)
(-0.18624095 0 0)
(-0.1835043 0 0)
(-0.17975275 0 0)
(-0.17514567 0 0)
(-0.16989118 0 0)
(-0.16424841 0 0)
(-0.15845141 0 0)
(-0.15280646 0 0)
(-0.14760373 0 0)
(-0.14311896 0 0)
(-0.13974272 0 0)
(-0.13789014 0 0)
(-0.035903441 0 0)
(-0.028789017 0 0)
(-0.021420863 0 0)
(-0.01345818 0 0)
(-0.004709587 0 0)
(-0.042856614 0 0)
(-0.049660472 0 0)
(-0.056389159 0 0)
(-0.063070687 0 0)
(-0.069718743 0 0)
(-0.076411309 0 0)
(-0.083409758 0 0)
(-0.09058608 0 0)
(-0.097953367 0 0)
(-0.10519735 0 0)
(-0.11229727 0 0)
(-0.11945076 0 0)
(-0.12665286 0 0)
(-0.13391414 0 0)
(-0.14113881 0 0)
(-0.14828559 0 0)
(-0.15530407 0 0)
(-0.16209515 0 0)
(-0.16853345 0 0)
(-0.17449752 0 0)
(-0.17985368 0 0)
(-0.18445987 0 0)
(-0.18816974 0 0)
(-0.19083276 0 0)
(-0.19234387 0 0)
(-0.19264718 0 0)
(-0.19172313 0 0)
(-0.18958574 0 0)
(-0.18631689 0 0)
(-0.18206653 0 0)
(-0.17700426 0 0)
(-0.17135734 0 0)
(-0.16538482 0 0)
(-0.15932232 0 0)
(-0.15346201 0 0)
(-0.14809115 0 0)
(-0.14347836 0 0)
(-0.14000769 0 0)
(-0.13809884 0 0)
(-0.042883631 0 0)
(-0.035949019 0 0)
(-0.028841829 0 0)
(-0.021475722 0 0)
(-0.013497301 0 0)
(-0.0047247816 0 0)
(-0.049651319 0 0)
(-0.056329138 0 0)
(-0.062948888 0 0)
(-0.069517799 0 0)
(-0.076117675 0 0)
(-0.083017379 0 0)
(-0.090080555 0 0)
(-0.097314671 0 0)
(-0.10480853 0 0)
(-0.1122662 0 0)
(-0.11941365 0 0)
(-0.12662182 0 0)
(-0.13391141 0 0)
(-0.14119082 0 0)
(-0.14842432 0 0)
(-0.15557611 0 0)
(-0.16256102 0 0)
(-0.16925482 0 0)
(-0.17553795 0 0)
(-0.18129069 0 0)
(-0.18637827 0 0)
(-0.19064671 0 0)
(-0.19394038 0 0)
(-0.19613636 0 0)
(-0.19714115 0 0)
(-0.19690794 0 0)
(-0.19542927 0 0)
(-0.1927466 0 0)
(-0.18894973 0 0)
(-0.18421111 0 0)
(-0.17871807 0 0)
(-0.17269854 0 0)
(-0.16642161 0 0)
(-0.16011038 0 0)
(-0.15405707 0 0)
(-0.14853176 0 0)
(-0.14379724 0 0)
(-0.14024455 0 0)
(-0.13828369 0 0)
(-0.049680913 0 0)
(-0.042939721 0 0)
(-0.036019542 0 0)
(-0.028917055 0 0)
(-0.021546528 0 0)
(-0.013546673 0 0)
(-0.0047431971 0 0)
(-0.056313679 0 0)
(-0.062876083 0 0)
(-0.069371797 0 0)
(-0.075889617 0 0)
(-0.08269547 0 0)
(-0.089648017 0 0)
(-0.096756432 0 0)
(-0.10411383 0 0)
(-0.11185578 0 0)
(-0.11940653 0 0)
(-0.12661 0 0)
(-0.13391617 0 0)
(-0.14123303 0 0)
(-0.14853323 0 0)
(-0.15579556 0 0)
(-0.16294092 0 0)
(-0.16984996 0 0)
(-0.17641767 0 0)
(-0.18252705 0 0)
(-0.18804511 0 0)
(-0.19282905 0 0)
(-0.1967259 0 0)
(-0.19958915 0 0)
(-0.20129469 0 0)
(-0.20176912 0 0)
(-0.20098247 0 0)
(-0.19895055 0 0)
(-0.1957228 0 0)
(-0.19141326 0 0)
(-0.18620483 0 0)
(-0.18029608 0 0)
(-0.17392774 0 0)
(-0.1673647 0 0)
(-0.16082891 0 0)
(-0.15459287 0 0)
(-0.14892542 0 0)
(-0.1440837 0 0)
(-0.14045546 0 0)
(-0.13845113 0 0)
(-0.056342398 0 0)
(-0.04974259 0 0)
(-0.043022633 0 0)
(-0.036116211 0 0)
(-0.029012988 0 0)
(-0.021635032 0 0)
(-0.01360676 0 0)
(-0.0047651025 0 0)
(-0.062854389 0 0)
(-0.069283944 0 0)
(-0.075722915 0 0)
(-0.082441187 0 0)
(-0.089294464 0 0)
(-0.096284017 0 0)
(-0.10350535 0 0)
(-0.11109554 0 0)
(-0.11896745 0 0)
(-0.12662734 0 0)
(-0.13393804 0 0)
(-0.1412766 0 0)
(-0.14862564 0 0)
(-0.15597317 0 0)
(-0.16325301 0 0)
(-0.17034817 0 0)
(-0.17715785 0 0)
(-0.18357902 0 0)
(-0.18948967 0 0)
(-0.1947456 0 0)
(-0.19919416 0 0)
(-0.20268344 0 0)
(-0.20507622 0 0)
(-0.20627391 0 0)
(-0.20620767 0 0)
(-0.20486557 0 0)
(-0.20227699 0 0)
(-0.1985175 0 0)
(-0.19370561 0 0)
(-0.18804355 0 0)
(-0.18174481 0 0)
(-0.17504869 0 0)
(-0.16822466 0 0)
(-0.16147895 0 0)
(-0.15508023 0 0)
(-0.14928227 0 0)
(-0.14434075 0 0)
(-0.14064687 0 0)
(-0.13860397 0 0)
(-0.062883506 0 0)
(-0.056407764 0 0)
(-0.049835792 0 0)
(-0.0431413 0 0)
(-0.036243012 0 0)
(-0.029131337 0 0)
(-0.021739254 0 0)
(-0.013676786 0 0)
(-0.0047902054 0 0)
(-0.069252902 0 0)
(-0.075621567 0 0)
(-0.082257746 0 0)
(-0.089014444 0 0)
(-0.095893349 0 0)
(-0.10299111 0 0)
(-0.11043565 0 0)
(-0.11814349 0 0)
(-0.12616356 0 0)
(-0.13397849 0 0)
(-0.1413327 0 0)
(-0.14871356 0 0)
(-0.15612551 0 0)
(-0.16351316 0 0)
(-0.17076032 0 0)
(-0.17777972 0 0)
(-0.18447603 0 0)
(-0.1907308 0 0)
(-0.1964102 0 0)
(-0.20136831 0 0)
(-0.20545006 0 0)
(-0.2085067 0 0)
(-0.21041762 0 0)
(-0.21108424 0 0)
(-0.21046025 0 0)
(-0.20855323 0 0)
(-0.20541694 0 0)
(-0.20113187 0 0)
(-0.19583781 0 0)
(-0.18974336 0 0)
(-0.18307352 0 0)
(-0.17607411 0 0)
(-0.16900618 0 0)
(-0.16207328 0 0)
(-0.15552074 0 0)
(-0.14960412 0 0)
(-0.14457507 0 0)
(-0.14082212 0 0)
(-0.13874673 0 0)
(-0.069279842 0 0)
(-0.062953707 0 0)
(-0.056509757 0 0)
(-0.049967652 0 0)
(-0.043291842 0 0)
(-0.036395795 0 0)
(-0.029270703 0 0)
(-0.02186247 0 0)
(-0.01375823 0 0)
(-0.0048190971 0 0)
(-0.075583656 0 0)
(-0.082142498 0 0)
(-0.088812974 0 0)
(-0.095587453 0 0)
(-0.10256441 0 0)
(-0.10987049 0 0)
(-0.11742247 0 0)
(-0.12527271 0 0)
(-0.13349391 0 0)
(-0.14140086 0 0)
(-0.14880456 0 0)
(-0.15626472 0 0)
(-0.16373625 0 0)
(-0.17111064 0 0)
(-0.17830407 0 0)
(-0.18523434 0 0)
(-0.19179625 0 0)
(-0.19785866 0 0)
(-0.20327733 0 0)
(-0.20790409 0 0)
(-0.21158863 0 0)
(-0.21418267 0 0)
(-0.21557432 0 0)
(-0.21569683 0 0)
(-0.21451031 0 0)
(-0.21204404 0 0)
(-0.20836363 0 0)
(-0.20357236 0 0)
(-0.19781083 0 0)
(-0.19130438 0 0)
(-0.18428978 0 0)
(-0.17700772 0 0)
(-0.16971928 0 0)
(-0.16261196 0 0)
(-0.15592313 0 0)
(-0.14989874 0 0)
(-0.14478978 0 0)
(-0.14098537 0 0)
(-0.13888315 0 0)
(-0.075610629 0 0)
(-0.069354911 0 0)
(-0.063066884 0 0)
(-0.056656186 0 0)
(-0.05013756 0 0)
(-0.04347873 0 0)
(-0.036578667 0 0)
(-0.029430934 0 0)
(-0.022001311 0 0)
(-0.01384986 0 0)
(-0.0048512825 0 0)
(-0.082098725 0 0)
(-0.088686511 0 0)
(-0.095363276 0 0)
(-0.10223035 0 0)
(-0.10940645 0 0)
(-0.11681034 0 0)
(-0.12449183 0 0)
(-0.13253193 0 0)
(-0.14089357 0 0)
(-0.14890993 0 0)
(-0.15640019 0 0)
(-0.16393567 0 0)
(-0.17141023 0 0)
(-0.178749 0 0)
(-0.18588093 0 0)
(-0.19270634 0 0)
(-0.1991044 0 0)
(-0.20494022 0 0)
(-0.21006802 0 0)
(-0.21433622 0 0)
(-0.21758895 0 0)
(-0.21969318 0 0)
(-0.22055874 0 0)
(-0.22011865 0 0)
(-0.21836247 0 0)
(-0.215336 0 0)
(-0.21112742 0 0)
(-0.20584194 0 0)
(-0.19963704 0 0)
(-0.1927411 0 0)
(-0.18540239 0 0)
(-0.17786084 0 0)
(-0.17036782 0 0)
(-0.16310587 0 0)
(-0.15629006 0 0)
(-0.15016907 0 0)
(-0.14498964 0 0)
(-0.14114142 0 0)
(-0.13901613 0 0)
(-0.082124519 0 0)
(-0.075691662 0 0)
(-0.069476828 0 0)
(-0.063228919 0 0)
(-0.056847549 0 0)
(-0.050346442 0 0)
(-0.043696756 0 0)
(-0.036787566 0 0)
(-0.029613546 0 0)
(-0.022158754 0 0)
(-0.013952859 0 0)
(-0.004881041 0 0)
(-0.088638286 0 0)
(-0.095223503 0 0)
(-0.10198441 0 0)
(-0.10903731 0 0)
(-0.1163026 0 0)
(-0.12383023 0 0)
(-0.13169334 0 0)
(-0.13985932 0 0)
(-0.14837383 0 0)
(-0.15654534 0 0)
(-0.16412557 0 0)
(-0.17167637 0 0)
(-0.17913279 0 0)
(-0.1864313 0 0)
(-0.19348566 0 0)
(-0.20018158 0 0)
(-0.20638823 0 0)
(-0.21196567 0 0)
(-0.21676953 0 0)
(-0.22064409 0 0)
(-0.2234361 0 0)
(-0.22502504 0 0)
(-0.22533562 0 0)
(-0.22433002 0 0)
(-0.22200543 0 0)
(-0.21843141 0 0)
(-0.21370446 0 0)
(-0.2079488 0 0)
(-0.20131918 0 0)
(-0.19405667 0 0)
(-0.18641952 0 0)
(-0.17863786 0 0)
(-0.1709603 0 0)
(-0.16355585 0 0)
(-0.15662819 0 0)
(-0.15042002 0 0)
(-0.14517927 0 0)
(-0.14129219 0 0)
(-0.13915094 0 0)
(-0.088666212 0 0)
(-0.082208569 0 0)
(-0.075824623 0 0)
(-0.069658433 0 0)
(-0.063444195 0 0)
(-0.057082968 0 0)
(-0.050593007 0 0)
(-0.043951995 0 0)
(-0.037026448 0 0)
(-0.02981619 0 0)
(-0.022331852 0 0)
(-0.014032348 0 0)
(-0.0048922449 0 0)
(-0.095166291 0 0)
(-0.10182996 0 0)
(-0.10876792 0 0)
(-0.11590205 0 0)
(-0.12327953 0 0)
(-0.13097632 0 0)
(-0.13895935 0 0)
(-0.14726571 0 0)
(-0.15598495 0 0)
(-0.16431152 0 0)
(-0.17192446 0 0)
(-0.17947258 0 0)
(-0.18690824 0 0)
(-0.19415463 0 0)
(-0.20110507 0 0)
(-0.20763998 0 0)
(-0.2136248 0 0)
(-0.21891719 0 0)
(-0.22336395 0 0)
(-0.22681169 0 0)
(-0.22911349 0 0)
(-0.23016705 0 0)
(-0.22992064 0 0)
(-0.22833781 0 0)
(-0.22544646 0 0)
(-0.22133083 0 0)
(-0.21610716 0 0)
(-0.20989753 0 0)
(-0.20286956 0 0)
(-0.19526386 0 0)
(-0.18734935 0 0)
(-0.17934816 0 0)
(-0.17150134 0 0)
(-0.1639711 0 0)
(-0.15694148 0 0)
(-0.15065722 0 0)
(-0.14536186 0 0)
(-0.14142071 0 0)
(-0.13928502 0 0)
(-0.0951933 0 0)
(-0.08875667 0 0)
(-0.082350313 0 0)
(-0.076024293 0 0)
(-0.069895702 0 0)
(-0.063706601 0 0)
(-0.057362928 0 0)
(-0.050877271 0 0)
(-0.044238512 0 0)
(-0.037293137 0 0)
(-0.03004326 0 0)
(-0.022463431 0 0)
(-0.014073941 0 0)
(-0.0049055547 0 0)
(-0.10176507 0 0)
(-0.10859377 0 0)
(-0.11560506 0 0)
(-0.12284583 0 0)
(-0.1303832 0 0)
(-0.13818689 0 0)
(-0.14629574 0 0)
(-0.15479877 0 0)
(-0.16373289 0 0)
(-0.1721581 0 0)
(-0.17978147 0 0)
(-0.18732843 0 0)
(-0.19473402 0 0)
(-0.20190477 0 0)
(-0.20872586 0 0)
(-0.2150693 0 0)
(-0.22080124 0 0)
(-0.22577425 0 0)
(-0.22983076 0 0)
(-0.23281707 0 0)
(-0.23460393 0 0)
(-0.2351053 0 0)
(-0.23428231 0 0)
(-0.23212805 0 0)
(-0.22867786 0 0)
(-0.22403979 0 0)
(-0.21833455 0 0)
(-0.21169842 0 0)
(-0.20429283 0 0)
(-0.196368 0 0)
(-0.18820005 0 0)
(-0.1799976 0 0)
(-0.17199705 0 0)
(-0.16435381 0 0)
(-0.15723473 0 0)
(-0.15088288 0 0)
(-0.14548199 0 0)
(-0.14153201 0 0)
(-0.13941621 0 0)
(-0.10179058 0 0)
(-0.095287051 0 0)
(-0.088908949 0 0)
(-0.08256243 0 0)
(-0.07628549 0 0)
(-0.070193196 0 0)
(-0.064023135 0 0)
(-0.05768632 0 0)
(-0.051200344 0 0)
(-0.044561404 0 0)
(-0.037588006 0 0)
(-0.030211696 0 0)
(-0.022537763 0 0)
(-0.014121034 0 0)
(-0.0049209055 0 0)
(-0.10851832 0 0)
(-0.11541406 0 0)
(-0.12252235 0 0)
(-0.12991027 0 0)
(-0.13754906 0 0)
(-0.14546917 0 0)
(-0.15375858 0 0)
(-0.16246527 0 0)
(-0.1715618 0 0)
(-0.1800732 0 0)
(-0.18770693 0 0)
(-0.1952428 0 0)
(-0.20259697 0 0)
(-0.2096645 0 0)
(-0.2163258 0 0)
(-0.22245258 0 0)
(-0.22789934 0 0)
(-0.23251554 0 0)
(-0.23614745 0 0)
(-0.23864712 0 0)
(-0.23989803 0 0)
(-0.23983538 0 0)
(-0.23843882 0 0)
(-0.23570731 0 0)
(-0.23170877 0 0)
(-0.22656094 0 0)
(-0.2204001 0 0)
(-0.21335709 0 0)
(-0.2056015 0 0)
(-0.19738052 0 0)
(-0.18897957 0 0)
(-0.18059199 0 0)
(-0.1724541 0 0)
(-0.16471127 0 0)
(-0.15751393 0 0)
(-0.15099384 0 0)
(-0.14555358 0 0)
(-0.14164525 0 0)
(-0.13954039 0 0)
(-0.1085394 0 0)
(-0.10188824 0 0)
(-0.095447435 0 0)
(-0.089137256 0 0)
(-0.082845545 0 0)
(-0.076612862 0 0)
(-0.07054434 0 0)
(-0.064385409 0 0)
(-0.058053737 0 0)
(-0.051560277 0 0)
(-0.044916324 0 0)
(-0.037809857 0 0)
(-0.030313142 0 0)
(-0.022620828 0 0)
(-0.014174834 0 0)
(-0.0049386534 0 0)
(-0.11532688 0 0)
(-0.12231404 0 0)
(-0.1295597 0 0)
(-0.13703764 0 0)
(-0.14478077 0 0)
(-0.15287369 0 0)
(-0.16135771 0 0)
(-0.17021354 0 0)
(-0.1794562 0 0)
(-0.18806078 0 0)
(-0.19570109 0 0)
(-0.20320524 0 0)
(-0.21048295 0 0)
(-0.21741836 0 0)
(-0.22389256 0 0)
(-0.22976924 0 0)
(-0.23489657 0 0)
(-0.23912346 0 0)
(-0.24230163 0 0)
(-0.24428756 0 0)
(-0.24498405 0 0)
(-0.24434456 0 0)
(-0.24236316 0 0)
(-0.23906883 0 0)
(-0.23453584 0 0)
(-0.22890268 0 0)
(-0.22230541 0 0)
(-0.21488443 0 0)
(-0.20680123 0 0)
(-0.19830839 0 0)
(-0.18969446 0 0)
(-0.18114037 0 0)
(-0.17287728 0 0)
(-0.16504836 0 0)
(-0.15761099 0 0)
(-0.1510102 0 0)
(-0.14563261 0 0)
(-0.14175435 0 0)
(-0.13966038 0 0)
(-0.11534504 0 0)
(-0.10863756 0 0)
(-0.10205624 0 0)
(-0.095691564 0 0)
(-0.089443123 0 0)
(-0.083197064 0 0)
(-0.076999619 0 0)
(-0.070954778 0 0)
(-0.06480116 0 0)
(-0.058466468 0 0)
(-0.051961285 0 0)
(-0.04517921 0 0)
(-0.037942773 0 0)
(-0.030429243 0 0)
(-0.022713852 0 0)
(-0.014234449 0 0)
(-0.0049589035 0 0)
(-0.12221634 0 0)
(-0.1293277 0 0)
(-0.13665807 0 0)
(-0.14423218 0 0)
(-0.15213403 0 0)
(-0.16040926 0 0)
(-0.16903723 0 0)
(-0.17802875 0 0)
(-0.18742767 0 0)
(-0.19611908 0 0)
(-0.20375044 0 0)
(-0.21120127 0 0)
(-0.21837176 0 0)
(-0.22515171 0 0)
(-0.23140795 0 0)
(-0.23699661 0 0)
(-0.24177171 0 0)
(-0.24558084 0 0)
(-0.24827241 0 0)
(-0.24972229 0 0)
(-0.2498509 0 0)
(-0.24862985 0 0)
(-0.24607412 0 0)
(-0.24221983 0 0)
(-0.23717038 0 0)
(-0.23106971 0 0)
(-0.2240647 0 0)
(-0.21628723 0 0)
(-0.20790326 0 0)