/*--------------------------------*- C++ -*----------------------------------*\
| =========                 |                                                 |
| \\      /  F ield         | OpenFOAM: The Open Source CFD Toolbox           |
|  \\    /   O peration     | Version:  v2012                                 |
|   \\  /    A nd           | Website:  www.openfoam.com                      |
|    \\/     M anipulation  |                                                 |
\*---------------------------------------------------------------------------*/
FoamFile
{
    version     2.0;
    format      ascii;
    class       surfaceScalarField;
    location    "91.205981213020209";
    object      meshPhi;
}
// * * * * * * * * * * * * * * * * * * * * * * * * * * * * * * * * * * * * * //

dimensions      [0 3 -1 0 0 0 0];
oriented        oriented;


internalField   nonuniform List<scalar> 
18180
(
0
0.061487049
0
0.056361784
1.0546805e-13
0.12244446
-1.0948631e-13
0.051762001
0
0.11295411
0
0.18321045
5.4718617e-14
0.048319785
0
0.10415197
0
0.16974672
-5.1684508e-17
0.24151331
-1.0949162e-13
0.045709131
0
0.096731112
-5.3618034e-17
0.15711626
0
0.22506273
0
0.29678643
5.4746148e-14
0.043597202
5.2740981e-14
0.090957409
0
0.1463523
9.7980944e-14
0.20967493
0
0.27730192
-9.1073138e-14
0.34754321
-2.7909229e-17
0.041722889
0
0.086221222
5.083249e-14
0.13708364
9.8011515e-14
0.19557099
9.4440579e-14
0.25913819
0
0.32536522
8.7744718e-14
0.3945948
5.4716728e-14
0.039890522
5.274029e-14
0.081930882
0
0.12903184
-4.902073e-14
0.18298521
0
0.24219477
0
0.30456612
0
0.36963907
-8.4619817e-14
0.43751066
0
0.038070257
0
0.077905934
0
0.12191921
0
0.1717817
-9.4474329e-14
0.22653406
4.5541552e-14
0.28488555
0
0.34636388
0
0.41020709
0
0.47700974
-5.4742722e-14
0.036265224
0
0.074009516
0
0.11533102
0
0.16168688
0
0.21235028
-4.5544265e-14
0.26658022
-8.7776301e-14
0.32426108
0
0.38474691
0
0.44741026
0
0.51280612
5.474103e-14
0.034493319
0
0.070226104
-1.016884e-13
0.10911349
0
0.15251593
4.7227689e-14
0.1996745
-4.5523678e-14
0.2499732
4.3880644e-14
0.3036609
8.4613468e-14
0.36061833
0
0.42003561
0
0.48130568
0
0.54566579
0
0.032766273
-5.2761416e-14
0.066558699
5.082935e-14
0.10317883
0
0.14403017
-4.7253682e-14
0.1882393
0
0.23507716
0
0.28494931
0
0.33808638
4.0773933e-14
0.39407589
0
0.45224532
0
0.51232117
7.3034902e-14
0.57542922
-2.7353067e-14
0.031092083
0
0.063021039
0
0.09749308
0
0.13605313
4.722844e-14
0.17773054
-4.552725e-14
0.22161894
4.3886837e-14
0.26804937
-4.2304454e-14
0.31738974
0
0.36972946
3.9306478e-14
0.42477232
-3.0182152e-17
0.48178534
0
0.54053359
-7.0427658e-14
0.60272691
0
0.029476019
-2.6364381e-14
0.059619462
0
0.092037633
0
0.12849111
0
0.16794015
0
0.20926639
4.3911436e-14
0.25270906
-4.2328698e-14
0.29859909
-4.0782726e-14
0.34737033
-3.9328174e-14
0.39904372
0
0.45297359
7.3047989e-14
0.50867621
0
0.56630787
-6.7888789e-14
0.62746184
-1.5886991e-17
0.027917249
0
0.056357841
-2.5411559e-14
0.086807693
0
0.12128432
0
0.15872044
0
0.19776481
0
0.23864944
0
0.28157671
-4.0806233e-14
0.32701232
-3.9316205e-14
0.3752805
-3.7897269e-14
0.42599464
0
0.47874842
7.0418378e-14
0.53327209
0
0.58978977
-2.0139898e-17
0.65019971
0
0.026415256
-1.436976e-17
0.053235923
-2.5423805e-14
0.081803751
1.3707886e-17
0.1144011
0
0.14999339
0
0.18694647
0
0.22556317
0
0.26595194
0
0.30835911
0
0.35346632
3.7919154e-14
0.40109221
-1.4454651e-17
0.45070878
-3.5214792e-14
0.50226863
0
0.55570733
-6.5428304e-14
0.61130105
0
0.6708363
-2.7364359e-14
0.024968511
2.6360504e-14
0.050255102
-2.5435998e-14
0.077030727
0
0.10783027
0
0.14170339
0
0.17670409
0
0.21324508
-4.2337874e-14
0.2514107
0
0.29120728
0
0.33344212
0
0.3781088
0
0.42470035
3.5221208e-14
0.47325068
0
0.52384383
-6.5460204e-14
0.57630117
-6.3070883e-14
0.63092604
0
0.68978684
0
0.023576977
2.6359226e-14
0.047413134
2.54078e-14
0.072489713
-1.3927384e-17
0.1015622
-1.3870595e-17
0.13381801
-2.2763988e-14
0.16697421
0
0.20155937
0
0.23774206
-1.9392849e-17
0.27527922
0
0.31486349
0
0.3567362
3.6563041e-14
0.40056976
1.349587e-17
0.44629706
3.3954888e-14
0.49400226
6.547429e-14
0.54362788
6.3082518e-14
0.5951217
0
0.64888279
-1.5301651e-17
0.70696624
0
0.022239279
-2.6357982e-14
0.044704581
2.5406504e-14
0.068183159
4.8996386e-14
0.095592117
4.7235489e-14
0.12631651
0
0.15771996
0
0.19043053
0
0.22477193
0
0.26026464
-3.9353828e-14
0.29746449
0
0.33672984
0
0.37794328
3.5236008e-14
0.42109752
0
0.46618066
-1.1210881e-17
0.51307038
3.1548503e-14
0.56180231
-6.0828068e-14
0.61236677
1.1722894e-13
0.66525655
0
0.7227156
0
0.020955238
0
0.042125181
-2.5405218e-14
0.064110467
-2.4504094e-14
0.089916077
0
0.11918289
0
0.14892462
-2.1958932e-14
0.17982369
2.1171417e-14
0.21241467
0
0.24601479
0
0.28108136
3.7926461e-14
0.31797094
0
0.35664697
0
0.39740906
0
0.44018753
0
0.48458482
-1.0285927e-17
0.53060829
0
0.57841977
0
0.62811751
5.6507981e-14
0.68019661
0
0.73695817
0
0.019725337
-2.63705e-14
0.039666849
2.5403954e-14
0.060267708
2.4502978e-14
0.084531508
0
0.11239861
0
0.14056279
-2.1970651e-14
0.16971873
-1.1069192e-17
0.20063034
2.0412597e-14
0.2324297
0
0.26553917
0
0.30033487
0
0.33666496
0
0.37505074
0
0.41566131
3.275117e-14
0.45787418
0
0.50149101
3.0421732e-14
0.54668136
0
0.5936763
-5.652196e-14
0.6424885
0
0.6937643
0
0.74993981
0
0.01854976
0
0.037323148
-1.3437098e-17
0.056643688
0
0.079430325
-2.3607657e-14
0.10594037
-1.3147901e-17
0.13261287
0
0.16009543
-4.2344269e-14
0.1893961
-2.0413349e-14
0.21946816
0
0.25072267
0
0.28364005
0
0.31787787
3.5258981e-14
0.35388322
0
0.39240901
0
0.43277596
-1.1027507e-17
0.47424384
9.7846926e-18
0.51705844
2.9327274e-14
0.56144927
0
0.60755387
-5.4483978e-14
0.65554269
0
0.70606136
5.0589585e-14
0.7616202
1.3688208e-14
0.017429713
0
0.035093545
0
0.053227292
2.4486558e-14
0.074605529
0
0.099792718
-2.2774302e-14
0.12505407
2.1946529e-14
0.1509332
-2.1172279e-14
0.17869258
-1.0033674e-17
0.20710037
1.9673666e-14
0.23656886
8.4467169e-18
0.26775031
0
0.3001383
0
0.33397599
-1.3418472e-17
0.37036874
0
0.4089595
0
0.44862057
6.0892724e-14
0.48929428
9.0007024e-18
0.53135022
-7.9462162e-18
0.57491306
0
0.62020364
0
0.66736014
0
0.71717971
0
0.7722226
0
0.016365458
1.3183886e-14
0.032978713
0
0.050009707
0
0.070048914
-2.3621065e-14
0.093938221
2.2760281e-14
0.11787157
-2.1946177e-14
0.14221788
-2.1172307e-14
0.16849506
0
0.19530512
1.9674545e-14
0.22303988
0
0.2525733
7.7308846e-18
0.28330915
0
0.31521935
0
0.34939024
3.2778218e-14
0.38608057
0
0.42423629
0
0.46314682
-9.2879086e-18
0.50312165
2.8290688e-14
0.54442178
-7.1923214e-18
0.58715613
0
0.63161439
-5.0624552e-14
0.67804503
0
0.72719651
0
0.78172565
0
0.015356739
0
0.030974901
6.7879084e-18
0.046980467
0
0.065748526
-2.3604736e-14
0.08836165
-2.277317e-14
0.11104141
0
0.13393394
0
0.15878345
0
0.18406118
1.968417e-14
0.21011707
-3.7960574e-14
0.23806452
0
0.2672572
1.7645189e-14
0.29741639
0
0.32950617
3.279944e-14
0.3641499
0
0.40064236
0
0.43810465
5.8727204e-14
0.47641859
2.8293656e-14
0.51573554
-2.7265247e-14
0.55627052
2.627281e-14
0.59822842
0
0.64195964
4.8788112e-14
0.68764013
0
0.73620177
0
0.79029605
-1.3670542e-14
0.014402588
0
0.029078716
-1.2699202e-14
0.044128006
1.2248908e-14
0.061693616
-4.7223483e-14
0.083053154
0
0.10454402
0
0.12606522
0
0.14953761
-4.0819213e-14
0.17335145
1.9675788e-14
0.19779278
0
0.22420595
3.6589567e-14
0.25192455
1.7640427e-14
0.28047647
-1.7008211e-14
0.310694
3.2807058e-14
0.34325659
0
0.37780078
0
0.41371606
0
0.45070896
-2.8313763e-14
0.48851413
2.7276952e-14
0.52719359
-2.628428e-14
0.56701772
2.5320681e-14
0.60823626
-2.4403287e-14
0.65120716
-4.7037081e-14
0.69625305
0
0.74425503
-6.7863146e-18
0.79793318
1.3670366e-14
0.01350098
-1.3175247e-14
0.027287342
1.2705618e-14
0.041441225
1.2248482e-14
0.05787289
-1.1801548e-14
0.078007625
4.5530338e-14
0.098364462
0
0.11859534
0
0.14073953
0
0.16315659
0
0.18605381
1.8973492e-14
0.21099452
0
0.23729063
0
0.26431198
0
0.29281349
-3.2807619e-14
0.32344139
0
0.35596217
0
0.39002955
0
0.42554377
0
0.46219331
2.729689e-14
0.49954444
2.6303424e-14
0.5375909
0
0.57671197
2.4414036e-14
0.61721583
-4.705129e-14
0.65951962
0
0.70392506
0
0.75146659
0
0.80483952
-8.5661195e-18
0.012649733
-7.6678944e-18
0.0255973
6.8950652e-18
0.038910445
-1.2241003e-14
0.054276314
-2.3610356e-14
0.073220447
1.1392885e-14
0.092490544
0
0.11150747
0
0.13237023
0
0.15345606
-1.9676483e-14
0.17488609
1.8982629e-14
0.19842055
-1.8305122e-14
0.22334688
0
0.24889486
-6.4783042e-18
0.27579227
1.6409993e-14
0.3046661
5.8521753e-18
0.33528262
3.0502526e-14
0.3673751
0
0.40110992
0
0.43641867
0
0.47274725
0
0.50956814
2.5350837e-14
0.54699002
-2.4426022e-14
0.5854391
2.3534211e-14
0.62524363
2.2679049e-14
0.66689157
4.3695879e-14
0.7107804
0
0.75790635
0
0.81101709
0
0.011846319
0
0.024004231
-6.9369533e-18
0.036528753
7.0845018e-18
0.050894195
-1.1808878e-14
0.068687733
1.1378509e-14
0.086914757
1.0978108e-14
0.1047899
0
0.12441361
0
0.14423123
0
0.16427149
0
0.18646846
1.8306033e-14
0.21008409
0
0.23420637
1.702163e-14
0.25957877
-1.641895e-14
0.28684989
-1.5824339e-14
0.31574368
1.525565e-14
0.34597306
2.9402016e-14
0.3778246
0
0.4114165
-2.7321439e-14
0.44642947
2.6329067e-14
0.48234851
2.5370384e-14
0.51864822
2.4438861e-14
0.55543661
0
0.59321842
-2.2690042e-14
0.63239391
3.6156438e-18
0.67347688
4.2119164e-14
0.71684741
0
0.76367171
-3.9117434e-14
0.81666666
0
0.011084351
0
0.022503171
0
0.034286731
-7.0721158e-18
0.047716737
8.0005027e-18
0.064405121
0
0.081629812
-1.0977956e-14
0.098432523
5.8348157e-18
0.11685876
0
0.13546517
1.9685163e-14
0.15419482
1.897477e-14
0.17512054
0
0.19748408
-1.7646551e-14
0.22023242
0
0.24414538
1.6415067e-14
0.26992105
3.1643154e-14
0.29724919
0
0.325784
1.4710714e-14
0.35579155
0
0.387571
0
0.42094278
0
0.45560134
0
0.49109251
0
0.52683085
2.355936e-14
0.5629971
-2.2697987e-14
0.60016777
2.1867784e-14
0.63874088
0
0.67926221
0
0.72224162
0
0.76886333
-3.7705619e-14
0.8217991
5.0924376e-05
0.012160672
0
0.021082562
0
0.032175931
0
0.044734711
-8.0030535e-18
0.060364359
-1.1378034e-14
0.076626329
0
0.092421145
-1.0585484e-14
0.10969437
4.9609998e-18
0.12714335
0
0.14463992
0
0.16436033
-1.8307321e-14
0.18553088
0
0.20695733
6.3631598e-18
0.2294664
0
0.2538358
0
0.27971453
1.5257849e-14
0.3066911
0
0.33499727
1.4185226e-14
0.36501941
0
0.39666054
2.6347147e-14
0.42967738
0
0.46397068
-2.4472119e-14
0.49902298
0
0.53420449
0
0.56975357
3.8913139e-18
0.60632572
0
0.64434867
0
0.68438908
-3.9138901e-14
0.72702807
0
0.7735856
0
0.82658281
8.5679625e-05
0.012135519
0.00014270028
0.022977823
0
0.030181551
0
0.041939535
0
0.056560208
0
0.071894514
5.9913939e-18
0.086740624
0
0.10291143
-4.9287727e-18
0.11925316
4.0576362e-18
0.13559308
1.8975012e-14
0.15417181
0
0.17420555
0
0.19436464
0
0.21552394
-1.641263e-14
0.23856024
0
0.26307791
1.5261006e-14
0.28860772
1.4714258e-14
0.31536127
0
0.34367854
0
0.37360363
0
0.40496334
0
0.43767165
-6.298325e-18
0.4716384
0
0.50623506
0
0.54081542
-2.1897165e-14
0.57576386
0
0.61178428
-2.8856533e-18
0.64926915
1.9577936e-14
0.68888046
3.7721861e-14
0.73131922
0
0.77790885
3.5029699e-14
0.83100012
0.00010602165
0.012107422
0.00024036881
0.023028373
0.00021972942
0.032683257
0
0.039314793
0
0.052984328
0
0.067425783
1.0965602e-14
0.081378016
1.0585279e-14
0.09649984
-1.0206924e-14
0.11178789
0
0.12703701
-9.4918403e-15
0.14453742
0
0.16348905
0
0.18243625
1.7020681e-14
0.20229672
0
0.22406512
0
0.24730164
0
0.27145673
0
0.29675728
0
0.3234865
0
0.35172047
0
0.38146478
0
0.41260133
0
0.44505713
0
0.47867171
0
0.51274942
-2.1907154e-14
0.54671695
0
0.58108038
0
0.61655961
-2.545328e-18
0.65358725
-1.8871227e-14
0.69285539
-3.6364483e-14
0.73517276
0
0.78189698
-3.3769792e-14
0.83514486
0.00011376854
0.01207925
0.00029782627
0.023070462
0.00037068756
0.032889751
0.00028736848
0.042235487
0
0.049618697
0
0.063208902
0
0.076321032
-5.71847e-18
0.090447498
4.8545573e-18
0.10473751
-3.9382644e-18
0.11895869
-9.491829e-15
0.13543465
0
0.15335981
0
0.17115042
0
0.18976504
1.6415414e-14
0.21032461
1.5830611e-14
0.23234897
0
0.25519008
-4.969725e-18
0.27911833
-2.8392489e-14
0.30438416
-1.3692876e-14
0.33100705
-3.9130235e-18
0.35910864
0
0.38876744
0
0.41975791
0
0.45192019
0
0.48511525
0
0.51861497
0
0.55195958
0
0.58575745
0
0.62074869
3.775991e-14
0.6573489
-1.8190031e-14
0.69635161
-3.5052138e-14
0.73867474
0
0.78559459
0
0.83901206
0.00011075125
0.012051107
0.000320009
0.023109037
0.00046004516
0.033076321
0.00048512707
0.04259765
0.00035408404
0.0528422
0
0.059212987
0
0.071555071
0
0.084739987
-4.8138435e-18
0.098088441
3.8782824e-18
0.11134367
0
0.12684601
-1.8308486e-14
0.14379633
0
0.1604867
-1.702227e-14
0.17790616
0
0.19731266
0
0.21819002
0
0.23977191
-1.4723899e-14
0.26238612
-1.4202176e-14
0.28629246
-1.3688776e-14
0.31143343
-3.9231601e-18
0.33793434
-3.7200635e-18
0.36608113
0
0.39571629
0
0.42645481
0
0.45828262
2.1936847e-14
0.49098345
0
0.52387499
0
0.55660156
-1.9612733e-14
0.58985467
-1.8890077e-14
0.62438291
-1.9246045e-18
0.66063865
-1.7531805e-14
0.69947502
-3.3787327e-14
0.74187112
0
0.7890587
-3.1653757e-18
0.84262344
9.8846061e-05
0.012023146
0.00031195853
0.023143233
0.00049512664
0.033249619
0.00060239651
0.042925503
0.00059718785
0.0533432
0.0004174042
0.062604945
0
0.067040447
0
0.07936082
0
0.091823343
9.8382875e-15
0.10418087
4.3961222e-18
0.11875535
0
0.13477772
-3.4183693e-18
0.1504231
8.5144138e-15
0.16670024
-1.6423825e-14
0.18500557
0
0.20479583
-1.5275853e-14
0.225168
0
0.24652041
0
0.26914462
-1.3697043e-14
0.29291877
1.3205599e-14
0.31792656
0
0.34450967
1.2266717e-14
0.37276403
-1.1821926e-14
0.40227563
0
0.43273914
0
0.46416353
0
0.49632697
0
0.52857435
0
0.56068321
0
0.59342001
0
0.62753857
-1.6377216e-18
0.66349187
5.0699054e-14
0.70225937
0
0.74482529
0
0.79226998
3.0243765e-14
0.84596697
7.9927234e-05
0.01199545
0.00027881893
0.023172242
0.00048349883
0.033407764
0.00064871385
0.043225205
0.00074096033
0.053788735
0.00070338008
0.063333736
0.00046689553
0.070398972
0
0.074270664
0
0.085923383
0
0.097450268
-4.4205548e-18
0.1111487
4.4875541e-18
0.12628282
0
0.14093826
8.5116831e-15
0.15612603
3.2393324e-18
0.1733778
0
0.19213847
0
0.21134994
0
0.23148438
0
0.25288885
2.7396931e-14
0.27538446
1.3206042e-14
0.29900825
0
0.32409183
-1.2276438e-14
0.35089146
0
0.3791545
0
0.40844837
0
0.43861227
0
0.46959723
2.0387684e-14
0.50114885
0
0.53273807
0
0.56423602
0
0.59649539
0
0.63023715
-1.4233517e-18
0.66598936
3.2580249e-14
0.70477433
-2.5712327e-18
0.74753441
0
0.79525833
-2.6559039e-18
0.84898479
5.5888977e-05
0.011967942
0.0002257837
0.02319564
0.00043286053
0.033549878
0.00063383925
0.043495571
0.00079726687
0.054187767
0.00087194573
0.063968084
0.00078676147
0.071394916
0.00050354796
0.077387811
0
0.080342799
9.83817e-15
0.091131643
0
0.10400274
-4.547064e-18
0.11828876
0
0.13200748
0
0.14616261
-8.2126344e-15
0.16240584
7.9210646e-15
0.1801882
0
0.19828656
0
0.21724868
0
0.23748721
0
0.25876677
1.3213948e-14
0.28110099
0
0.30479991
0
0.33010802
-3.4570122e-18
0.35698184
0
0.38513524
2.9326503e-18
0.4142444
0
0.44409535
0
0.47456725
0
0.50548227
0
0.53638686
0
0.56731269
0
0.59912798
1.4296236e-18
0.63254389
0
0.66816016
0
0.70703404
-3.0261423e-14
0.75004338
0
0.79795456
0
0.85169209
2.8619308e-05
0.01194101
0.00015810121
0.023212532
0.00035110858
0.033673998
0.00056782262
0.043735273
0.00077841542
0.054539822
0.00093742676
0.064528808
0.00097515187
0.072262366
0.00084823512
0.078594124
0.00053057534
0.083106374
0
0.085181526
0
0.097293596
0
0.11077068
-8.8287643e-15
0.12360597
0
0.13678693
-8.209639e-15
0.15206504
0
0.16891429
0
0.18594925
0
0.20378381
1.421303e-14
0.2229048
0
0.243024
0
0.26413008
3.7651029e-18
0.28653476
1.2283648e-14
0.3104246
-1.1841178e-14
0.33581455
-1.1416128e-14
0.36266916
-1.1001363e-14
0.39074744
1.060011e-14
0.41967795
0
0.44916426
0
0.47908587
0
0.5093157
0
0.53957385
0
0.56994772
0
0.60135352
0
0.63450629
1.5709481e-14
0.67007005
0
0.70909871
-2.9170283e-14
0.75231535
0
0.80040082
0
0.85406883
0.011914789
0
8.1073934e-05
0.023222557
0.00024626369
0.033777754
0.00046086994
0.043941874
0.00069685541
0.054842879
0.00091448547
0.065013599
0.0010482258
0.073024746
0.0010509992
0.079639589
0.00089317519
0.08453906
0.00054739319
0.087540973
0
0.090984955
0
0.10370079
-8.8255203e-15
0.11570964
-8.5149885e-15
0.12798051
3.2895345e-18
0.14233302
0
0.15828765
-7.6405911e-15
0.1743061
7.3693502e-15
0.19105897
0
0.20911265
0
0.22811931
1.3216668e-14
0.24804594
0
0.26923121
-1.2288359e-14
0.29181023
0
0.31573795
1.1419356e-14
0.34112104
0
0.3680245
1.0604873e-14
0.3960666
0
0.42475396
0
0.45382005
0
0.48314017
0
0.51271143
0
0.54232195
0
0.57218426
-1.6319095e-14
0.60322741
0
0.63616707
-1.5144477e-14
0.67175161
1.4589639e-14
0.71096888
-2.8118741e-14
0.75439129
0
0.80254848
2.6115261e-14
0.85615146
0.023225801
0
0.011889299
-2.8496992e-05
0.00012648069
0.033859802
0.00032346263
0.044112912
0.00056526566
0.055094545
0.00081796689
0.065419475
0.0010223248
0.073678171
0.0011292524
0.08054757
0.0011058996
0.085772227
0.00092130415
0.089249985
0.00056183788
0.09296382
0
0.097021393
0
0.10829112
0
0.11971621
-8.2133537e-15
0.1331847
3.5557212e-18
0.14827938
0
0.16332795
-1.4739952e-14
0.17904538
-7.1058868e-15
0.19607885
0
0.21402093
0
0.23281253
1.2748331e-14
0.25283127
0
0.27419312
3.4223362e-18
0.29676145
0
0.32063952
-2.2030497e-14
0.34615767
0
0.37316346
0
0.40106011
-9.8508385e-15
0.42945717
0
0.45806192
0
0.48677561
0
0.5156767
0
0.54467655
0
0.5740447
-1.5729724e-14
0.6047734
-1.5151101e-14
0.63759377
-8.0240643e-19
0.67326397
0
0.71268288
0
0.75621388
0
0.80444374
2.5175055e-14
0.85789984
0.033919566
0
0.023223494
-8.0945384e-05
0.011864848
-5.5415209e-05
0.00016624334
0.044247468
0.00039653502
0.055294126
0.00066296124
0.065743897
0.00091411487
0.074220045
0.0011008394
0.081317331
0.0011874077
0.086835496
0.0011405357
0.090733868
0.00094598856
0.095011522
0.00057838864
0.098568742
0
0.10128339
0
0.11196787
-8.2102344e-15
0.12459254
-3.619651e-18
0.13885541
2.780563e-18
0.15298567
0
0.16771575
-7.106597e-15
0.1837752
1.3713135e-14
0.2006993
0
0.21839683
0
0.23729468
0
0.25750974
0
0.27882561
3.0927799e-18
0.30127152
1.1018591e-14
0.32526469
1.0622231e-14
0.35104138
-2.8583407e-18
0.37807434
0
0.40574485
-9.497069e-15
0.43378881
0
0.46190514
0
0.49000701
1.6969582e-14
0.51826528
0
0.54664897
-1.5740143e-14
0.57558256
-8.5227807e-19
0.60607079
7.111778e-19
0.63881756
0
0.67463162
0
0.71420369
0
0.7578276
0
0.80603947
0
0.85936455
0.044343903
0
0.033959305
-0.0001266461
0.023216749
-0.00015761303
0.011842773
-7.8933378e-05
0.00020372759
0.055441515
0.00046470063
0.065985444
0.00074060619
0.074647443
0.00098393931
0.081948367
0.0011567793
0.087729348
0.0012243537
0.092021552
0.00117151
0.096815515
0.00097424273
0.10096833
0.00058825023
0.10227356
0
0.1046784
0
0.11652947
0
0.12998725
7.6389666e-15
0.14325045
7.3709837e-15
0.15704398
-7.1096818e-15
0.17217194
0
0.18812537
0
0.20477142
0
0.22258811
0
0.24171172
1.1860598e-14
0.26185998
0
0.2829818
1.103021e-14
0.30547942
-1.062889e-14
0.32984175
2.9216363e-18
0.35581934
-2.678915e-18
0.38269868
-1.9012562e-14
0.41008521
-9.1556957e-15
0.43775198
1.7636285e-14
0.46536754
0
0.49287481
0
0.52047696
0
0.54829884
0
0.5768365
2.92275e-14
0.60713529
0
0.63991536
-1.3563194e-14
0.67587706
0
0.7155676
-2.5187408e-14
0.75919856
0
0.80739857
0
0.86055214
0.05553495
0
0.044406519
-0.00016667837
0.033977546
-0.00024690565
0.023205996
-0.00022478663
0.011823697
-9.7245208e-05
0.00023856811
0.066143763
0.00051890021
0.07495789
0.00079685523
0.082439479
0.0010332677
0.088454855
0.0011925415
0.093110277
0.0012581679
0.098388987
0.0012068857
0.10307544
0.00099072952
0.10494742
0.00058891147
0.10508932
0
0.10895034
0
0.12164285
-7.6420332e-15
0.134094
7.3690219e-15
0.14700209
0
0.16124165
0
0.17626854
-6.6148874e-15
0.19190801
-6.378321e-15
0.20868462
1.2302857e-14
0.22676369
0
0.24580564
0
0.26570748
0
0.28681429
-1.0632198e-14
0.3096512
-1.0249826e-14
0.33433746
0
0.36033982
9.512982e-15
0.38700987
-2.1871059e-18
0.41408363
1.8635467e-18
0.44135467
0
0.46848347
0
0.49539389
-1.7106402e-18
0.52237635
0
0.54964888
0
0.57785138
-1.4086401e-14
0.60805485
0
0.64089233
-6.0661522e-19
0.67701007
0
0.71676282
0
0.76038039
0
0.80850116
0
0.86151415
0.066217608
0
0.055583952
-0.00020418338
0.044431985
-0.00032511962
0.033969957
-0.00035247734
0.023192242
-0.00027726978
0.011808281
-0.00010858712
0.00026625508
0.075149697
0.00055809845
0.08278912
0.00083633852
0.089012357
0.0010650633
0.093999641
0.0012258767
0.099727164
0.0012964876
0.10491405
0.0012273097
0.10729147
0.0009918289
0.10805175
0.00058894314
0.10879267
0
0.1137633
0
0.12548741
-7.3717325e-15
0.13756281
-2.5025607e-18
0.1509503
2.288791e-18
0.16509817
6.6156739e-15
0.17977854
-6.3812726e-15
0.19555768
1.921823e-18
0.21263488
0
0.23062303
0
0.24937448
-1.1037436e-14
0.26919499
0
0.29057036
1.0256341e-14
0.31379831
-9.883954e-15
0.33866812
-9.5232853e-15
0.36456596
9.1718628e-15
0.39099375
-2.0032198e-18
0.41773913
0
0.44462793
0
0.47127957
0
0.49761144
-1.5198327e-14
0.52397749
0
0.55074822
0
0.57867292
1.3577362e-14
0.608834
0
0.64180615
1.2602354e-14
0.67805763
2.428767e-14
0.71781895
-2.3406232e-14
0.76133408
0
0.80939914
0
0.86222345
0.075221234
0
0.066224226
-0.00023878648
0.055587283
-0.00039827688
0.044411494
-0.0004643164
0.033937033
-0.00043512065
0.023176258
-0.00030994964
0.011797072
-0.00011119589
0.00028626687
0.082997499
0.00058546606
0.089402952
0.0008619134
0.094687864
0.001095157
0.10082632
0.0012635262
0.10647814
0.0013184435
0.10934019
0.0012287297
0.11066202
0.00099214714
0.11208931
0.00059198398
0.11300396
7.6423198e-15
0.11735932
0
0.12870167
0
0.14127147
-2.3028091e-18
0.15457905
6.6163446e-15
0.16835269
0
0.18317843
0
0.199298
-5.9334786e-15
0.2162781
1.1450951e-14
0.23393516
0
0.25256125
1.0643185e-14
0.27260089
1.0262354e-14
0.29435302
0
0.31783413
0
0.34273478
0
0.36849802
-8.8447477e-15
0.39465393
0
0.42107628
1.5410866e-18
0.44759199
1.5796121e-14
0.47378247
0
0.49955097
0
0.52532866
0
0.55162201
0
0.57934505
0
0.60955035
-1.260827e-14
0.64265636
2.4296491e-14
0.67902133
0
0.71870255
0
0.76210848
0
0.81006912
-2.0962344e-14
0.86272718
0.083063767
0
0.075196527
-0.0002661872
0.066161925
-0.00046553036
0.055532796
-0.0005688951
0.04434538
-0.0005733281
0.03387972
-0.00048666172
0.023160848
-0.0003177693
0.011791385
-0.00010336637
0.00030019598
0.089628641
0.00060329914
0.095174991
0.00088647752
0.10168189
0.0011290873
0.10776245
0.0012849854
0.11108631
0.0013199318
0.11294906
0.0012293052
0.11500775
0.00099748761
0.11663082
0.00059238324
0.11596835
0
0.120351
0
0.13217883
0
0.14468499
-1.9067561e-18
0.15760031
1.8689867e-18
0.17151863
6.1569107e-15
0.18672204
5.9365218e-15
0.20274013
5.7270737e-15
0.21935368
0
0.2368506
0
0.25566182
1.0265188e-14
0.27604291
0
0.29806903
9.5379441e-15
0.32169332
0
0.34656976
0
0.37213467
0
0.39801564
-8.2115965e-15
0.4241144
7.9059232e-15
0.45026869
1.5225668e-14
0.47602021
0
0.50124666
1.4118346e-14
0.5264394
0
0.55232028
1.3095819e-14
0.57991469
0
0.61019886
0
0.64347795
1.1710624e-14
0.67990359
4.2324829e-19
0.71944115
0
0.76269197
0
0.81056451
0
0.8630336
0.089690588
0
0.083020631
-0.00028602165
0.075074079
-0.00051861171
0.066011901
-0.00066468014
0.055421368
-0.00070266161
0.044233047
-0.00064126798
0.033797771
-0.00049902415
0.023149736
-0.00029573131
0.011792592
-8.3369939e-05
0.00030928755
0.095460739
0.00062059435
0.10228956
0.0009140906
0.10876149
0.0011481505
0.11252256
0.0012864397
0.11490213
0.0013207832
0.11755812
0.0012359107
0.11983169
0.0009978136
0.11988558
0.00058732043
0.11832546
0
0.12360066
0
0.13538713
0
0.14749357
-1.8624377e-18
0.16054926
-6.1558192e-15
0.17487758
5.9394416e-15
0.18997665
5.7270084e-15
0.20559587
5.5245928e-15
0.22202251
0
0.23968964
0
0.25881943
0
0.27947103
0
0.30169967
-9.1947388e-15
0.32541197
8.858417e-15
0.35018651
0
0.37550961
0
0.4010837
7.9139697e-15
0.42686534
7.6217734e-15
0.45268258
0
0.47802173
0
0.50271548
-1.3608917e-14
0.5273605
-1.3105429e-14
0.55287821
0
0.58040767
-1.2159995e-14
0.61081144
4.4028251e-19
0.64425781
-4.6627743e-19
0.68067272
0
0.72003002
0
0.76313256
0
0.81087105
0
0.86318906
0.095545737
0
0.089630771
-0.0002998384
0.082869819
-0.0005571424
0.074829547
-0.00073994976
0.065776276
-0.00082071436
0.055252327
-0.00078625934
0.044072472
-0.00065742302
0.033693912
-0.00046434443
0.023143693
-0.00023876827
0.011801188
-4.9491394e-05
0.00031817189
0.10264667
0.00063996427
0.10946979
0.00092951895
0.11364282
0.0011495654
0.11651392
0.0012874635
0.11973241
0.0013278787
0.12262272
0.0012362502
0.1233349
0.00098929791
0.12252984
0.00058105339
0.12092923
0
0.12660372
0
0.13800386
0
0.15024043
6.1565793e-15
0.16372867
-5.9385921e-15
0.17795621
-1.4634469e-18
0.19262966
0
0.20804038
0
0.22463148
-2.055236e-14
0.24260989
9.9057822e-15
0.26199563
0
0.28286547
0
0.30528637
0
0.32899478
0
0.35355293
0
0.3785936
-1.6392369e-18
0.40387178
7.6284148e-15
0.42935176
-7.3452059e-15
0.45486254
0
0.47981073
0
0.5039908
-1.3116855e-14
0.52811497
0
0.55332785
1.2167565e-14
0.58082625
1.1721438e-14
0.61137756
4.0665017e-19
0.6449636
1.0882523e-14
0.68134231
0
0.72049566
-2.021593e-14
0.76339961
1.9485643e-14
0.81103965
1.8783529e-14
0.86316453
0.10275158
0
0.095478097
-0.00030886214
0.089452593
-0.0005841041
0.08258089
-0.00079482132
0.074465518
-0.00091298114
0.065456392
-0.0009182067
0.055026762
-0.00080653621
0.043861996
-0.00061134089
0.03356591
-0.00037466124
0.023143358
-0.00014188168
0.01181578
0
0.00032810574
0.10988479
0.00065075185
0.11444269
0.00093072258
0.11777683
0.0011505979
0.12152475
0.0012942821
0.12499651
0.0013279832
0.12634916
0.0012255839
0.12623894
0.00097879113
0.12542999
0.00057460065
0.12327777
6.61797e-15
0.12904705
0
0.14056359
6.1592821e-15
0.15324546
-5.9412806e-15
0.16664036
1.452664e-18
0.18042076
0
0.19486984
-1.2369734e-18
0.21044599
5.1394952e-15
0.22734968
0
0.24556899
0
0.26516063
0
0.286264
8.8731953e-15
0.30879049
8.5509892e-15
0.3323622
0
0.35665699
-7.9302849e-15
0.38141554
0
0.40639755
0
0.43160165
0
0.45682865
0
0.48140304
0
0.50509622
1.2641969e-14
0.52873534
0
0.5536749
1.1728209e-14
0.58118762
1.1298835e-14
0.61187668
3.5221446e-19
0.64558881
-3.5872943e-19
0.68190002
1.0110664e-14
0.72081662
0
0.76354732
-1.8785875e-14
0.81103904
1.8109417e-14
0.86298104
0.1100032
0
0.10266022
-0.00031766198
0.095260067
-0.00060167384
0.089119312
-0.00083350768
0.082156369
-0.00098062697
0.073981806
-0.0010206482
0.065052161
-0.00094185397
0.054743888
-0.00075049052
0.043601306
-0.00049280197
0.03341604
-0.00022241972
0.023140599
0
0.010770286
0
0.00033363311
0.11492004
0.00065165878
0.1186866
0.0009316406
0.12292958
0.0011565549
0.12694668
0.0012942358
0.12891572
0.0013165529
0.12948196
0.0012125521
0.12940026
0.00096775144
0.12805302
0.00056591093
0.12508486
0
0.13144211
0
0.14339672
0
0.15599923
5.7288285e-15
0.16893586
-5.527491e-15
0.18247498
0
0.1970915
-5.1426518e-15
0.21298672
4.9589034e-15
0.23012197
0
0.24852087
0
0.26834561
0
0.28965074
0
0.31215091
0
0.33548379
0
0.35950183
-7.6462093e-15
0.38398651
-1.3582065e-18
0.40869354
0
0.43363473
-6.8235997e-15
0.45859463
0
0.48282376
0
0.50605483
0
0.52922712
-1.1736165e-14
0.55394325
-1.1305078e-14
0.58147581
-2.1145053e-19
0.61230285
2.937278e-19
0.64611634
1.0113169e-14
0.68236815
9.7472221e-15
0.72102761
-1.8789441e-14
0.76355392
0
0.810873
0.0078794899
0.85474043
0.11507248
0
0.1098903
-0.00032747612
0.10237527
-0.00061863253
0.094848345
-0.00085853714
0.088632841
-0.0010287805
0.081597293
-0.0010962389
0.073376774
-0.0010459733
0.064563641
-0.00087650331
0.054405961
-0.0006054708
0.043290857
-0.00029210711
0.033235946
0
0.021277505
1.318515e-14
0.011523302
0
0.00033414144
0.11923995
0.00065236339
0.12394132
0.00093637842
0.12846671
0.001156337
0.13102346
0.0012830601
0.1322451
0.0013025634
0.13286673
0.0011987538
0.13226273
0.00095314875
0.13013534
0.00055606503
0.12686169
0
0.13410337
0
0.14599989
0
0.15814197
5.5285476e-15
0.17082188
0
0.18453191
-1.3200861e-18
0.19947382
0
0.21559138
1.3355176e-18
0.23288115
0
0.25149789
0
0.27155494
0
0.29293155
0
0.31527603
7.9483809e-15
0.33834925
0
0.3621164
7.3688481e-15
0.38634157
-1.2276865e-18
0.41076973
-6.8318213e-15
0.43546245
0
0.46018353
0
0.48409199
0
0.50687909
0
0.52962035
0
0.55413823
-1.0897482e-14
0.58170493
-3.1497874e-14
0.61262001
0
0.64656953
-9.7500919e-15
0.68271521
-1.879391e-14
0.72112042
-1.8113249e-14
0.76340027
0.015332869
0.80306495
0.0071725805
0.84706796
0.11943406
0
0.11497176
-0.00033300005
0.10954962
-0.00063754069
0.10184784
-0.00088238329
0.094243587
-0.0010596849
0.087996019
-0.0011508088
0.080906018
-0.0011235878
0.072652342
-0.00097245884
0.063993687
-0.00070737137
0.054014029
-0.00035923771
0.042928589
0
0.030710679
0
0.022761561
0
0.01233226
-1.3664636e-14
0.00033452453
0.12455756
0.00065557554
0.12955193
0.00093603526
0.13266276
0.0011463518
0.13451758
0.0012694339
0.13581887
0.0012875824
0.13594077
0.0011807265
0.13459352
0.0009365778
0.13221375
0.00054656604
0.12889257
0
0.13655172
0
0.14800739
0
0.1598785
0
0.17272657
5.1457379e-15
0.18677027
-1.3643172e-18
0.20192801
4.7841409e-15
0.21817493
0
0.23565872
0
0.25449995
0
0.27469288
0
0.2960353
0
0.31817662
1.9048335e-18
0.34099837
-7.3785362e-15
0.36452576
-7.1027414e-15
0.38848456
-1.36788e-14
0.41264164
-6.58449e-15
0.43710674
6.3393409e-15
0.46161389
0
0.4852263
0
0.5075835
-3.5469087e-19
0.52992666
0
0.55427978
0
0.58183089
1.0121094e-14
0.6128587
9.7532063e-15
0.64691122
-2.0907449e-19
0.68297844
0
0.7210457
0.022437859
0.75595803
0.013955738
0.79578121
0.0064168905
0.83998357
0.12477472
0
0.11934807
-0.00033360952
0.11461987
-0.00064830884
0.10892474
-0.00090903553
0.10108166
-0.0010885677
0.093448589
-0.0011853644
0.087211167
-0.0011804799
0.080083647
-0.0010448251
0.071812063
-0.0007840223
0.063347319
-0.00041991969
0.053554827
0
0.039951843
0
0.032754893
0
0.024336113
1.3185947e-14
0.013204949
-1.3681749e-14
0.00033613021
0.13020131
0.00065521441
0.13382921
0.00092791435
0.13628735
0.001134142
0.1382479
0.0012546904
0.13907342
0.0012681253
0.13849615
0.0011603401