/*--------------------------------*- C++ -*----------------------------------*\
| =========                 |                                                 |
| \\      /  F ield         | OpenFOAM: The Open Source CFD Toolbox           |
|  \\    /   O peration     | Version:  v2012                                 |
|   \\  /    A nd           | Website:  www.openfoam.com                      |
|    \\/     M anipulation  |                                                 |
\*---------------------------------------------------------------------------*/
FoamFile
{
    version     2.0;
    format      ascii;
    class       surfaceScalarField;
    location    "91.205981213020209";
    object      phi;
}
// * * * * * * * * * * * * * * * * * * * * * * * * * * * * * * * * * * * * * //

dimensions      [0 3 -1 0 0 0 0];
oriented        oriented;


internalField   nonuniform List<scalar> 
18180
(
-0.0043042792
-3.4472855
-0.0075947824
-3.2189201
0.00011125945
-3.5083542
-0.0094317421
-3.0048147
0.00077849722
-3.2761796
0.0014789948
-3.5705991
-0.009589098
-2.8037022
0.0023779888
-3.0588042
0.003383486
-3.3348767
0.0029185654
-3.6318206
-0.0078522483
-2.6159851
0.0050740958
-2.8548096
0.0059462178
-3.1143312
0.006150839
-3.393425
0.0038874263
-3.6909811
-0.0042300106
-2.4405056
0.0089553806
-2.6651147
0.0093973402
-2.9078819
0.0097751635
-3.1705142
0.0079736566
-3.4497504
0.0046122123
-3.7463501
0.0012230351
-2.276815
0.014045828
-2.4882201
0.013767073
-2.7156107
0.014029512
-2.9613549
0.012281274
-3.2242851
0.0093107491
-3.5025123
0.0050914078
-3.7984931
0.0083519684
-2.1241325
0.020244686
-2.3232219
0.019051499
-2.5363151
0.018907745
-2.7663905
0.017023631
-3.0127211
0.014117141
-3.2745194
0.010191866
-3.5518866
0.0053714858
-3.8467805
0.016898968
-1.9818916
0.027383826
-2.1692871
0.025160363
-2.3693191
0.024417145
-2.5845744
0.02218427
-2.8151
0.019205088
-3.0604998
0.015322234
-3.3214475
0.010709048
-3.5977922
0.0054895554
-3.8917691
0.026522669
-1.8494314
0.035237086
-2.0256842
0.031992906
-2.2135447
0.030493337
-2.4151629
0.027760166
-2.6307189
0.024550658
-2.8604917
0.020630975
-3.1051841
0.016028297
-3.3651498
0.010923534
-3.6404293
0.005477909
-3.9330434
0.036856625
-1.7260935
0.043580607
-1.8917358
0.039441953
-2.0682372
0.037072261
-2.2573086
0.033687039
-2.4590774
0.030132923
-2.6739241
0.026086995
-2.9030284
0.021467945
-3.146981
0.016319781
-3.4058347
0.010892357
-3.6797392
0.0053624617
-3.9712655
0.047571175
-1.6112204
0.052235827
-1.7668141
0.047420463
-1.9326671
0.044089676
-2.1101713
0.039899567
-2.2992445
0.035874594
-2.5002217
0.031654816
-2.714468
0.026994096
-2.94298
0.021817335
-3.1859361
0.016272761
-3.4434249
0.010663068
-3.7160553
0.0051642293
-4.0061932
0.058309318
-1.5042267
0.061065785
-1.6503051
0.055849779
-1.8061778
0.05149762
-1.9729493
0.046335724
-2.1503078
0.041690557
-2.3384401
0.037240149
-2.5387793
0.032566693
-2.752481
0.027387992
-2.9801938
0.021765335
-3.2221251
0.015948106
-3.4782499
0.010274129
-3.7493776
0.0048994621
-4.0383903
0.068693443
-1.4045228
0.06989972
-1.541588
0.064657489
-1.6881294
0.059276629
-1.8449549
0.052955117
-2.0114557
0.047491851
-2.1876449
0.042730895
-2.3750209
0.038081513
-2.5748438
0.032999757
-2.7880734
0.027355757
-3.0150984
0.021375156
-3.2557534
0.015393629
-3.5102603
0.0097557613
-3.7800082
0.0045809501
-4.0677062
0.078367589
-1.3115314
0.078568204
-1.4400731
0.073794007
-1.5779128
0.06744585
-1.7255453
0.059753173
-1.8819823
0.053201463
-2.04699
0.047998958
-2.2222961
0.043408592
-2.4092157
0.038553041
-2.6088103
0.033032179
-2.82166
0.026949857
-3.0476241
0.020692863
-3.2868275
0.014646905
-3.5397473
0.0091324377
-3.8080415
0.0042200716
-4.0946641
0.087011278
-1.2247154
0.086914188
-1.3451961
0.083249737
-1.4749747
0.076070769
-1.6141311
0.066760726
-1.761262
0.058761661
-1.9157685
0.052913143
-2.0797025
0.048390895
-2.2545809
0.043920193
-2.4413652
0.038716032
-2.6409482
0.03268899
-2.8532108
0.026199859
-3.0778452
0.019753068
-3.3154538
0.01373971
-3.5667898
0.0084261278
-3.8337589
0.0038285794
-4.1191293
0.094357235
-1.1435812
0.094789589
-1.2564307
0.093027852
-1.378769
0.085261384
-1.5101919
0.07405766
-1.6487303
0.064137252
-1.7933482
0.057341318
-1.9464953
0.052853555
-2.1100127
0.048938514
-2.2848545
0.044303452
-2.4720356
0.03854695
-2.6714486
0.031962929
-2.882582
0.025123719
-3.1057577
0.018586783
-3.3418761
0.012702364
-3.5916599
0.0076587209
-3.857214
0.0034194496
-4.1414993
0.10021356
-1.0676977
0.10206491
-1.1733011
0.1031599
-1.2887973
0.095154368
-1.4131935
0.081756224
-1.5438782
0.069340108
-1.679204
0.061161348
-1.8220236
0.056608596
-1.9747473
0.053417586
-2.1383603
0.049653832
-2.3138611
0.044459772
-2.5012425
0.037975728
-2.6999224
0.030836444
-2.9098914
0.023740982
-3.1316635
0.017227442
-3.3661852
0.011566168
-3.6143879
0.0068531481
-3.8786045
0.0030060515
-4.1616847
0.1043344
-0.9966699
0.10858692
-1.0953473
0.11370042
-1.2046117
0.10591623
-1.3226616
0.09002234
-1.4462139
0.074380684
-1.5728207
0.064266203
-1.7057652
0.059476207
-1.8481037
0.057144391
-2.0009967
0.05459987
-2.1654916
0.050330501
-2.3415982
0.044223283
-2.5286972
0.036924225
-2.7265379
0.029302706
-2.9353368
0.022081763
-3.155586
0.015714268
-3.3885078
0.010363986
-3.6351438
0.0060324243
-3.8980046
0.0026001845
-4.1800343
0.10643179
-0.93021913
0.11418043
-1.0221493
0.12471927
-1.125772
0.1177245
-1.2381529
0.099060247
-1.3552903
0.079331935
-1.4737732
0.066533611
-1.5971918
0.06125278
-1.7295259
0.059881111
-1.8720833
0.058951027
-2.0261646
0.056039411
-2.191707
0.050664098
-2.3679561
0.043421491
-2.5546602
0.035338371
-2.7516636
0.027378913
-2.9590381
0.020190749
-3.1776003
0.014092
-3.4088532
0.0091289125
-3.653991
0.005217615
-3.9155621
0.0022102152
-4.1964871
0.10627321
-0.8678176
0.11869332
-0.95344363
0.13632548
-1.051898
0.13077335
-1.1592419
0.10908743
-1.2706626
0.084297678
-1.3816359
0.067887571
-1.4959213
0.06169503
-1.6184407
0.061344252
-1.751004
0.062490884
-1.8951475
0.061443584
-2.0508222
0.057240198
-2.2169771
0.050344649
-2.3932831
0.041925177
-2.5794993
0.033208883
-2.7751802
0.025111622
-2.9808651
0.01812592
-3.1977073
0.012408434
-3.4273893
0.0078922872
-3.6710367
0.0044259299
-3.9313455
0.0018409577
-4.2113097
0.10381283
-0.80923796
0.12216555
-0.88888764
0.14853114
-0.98262614
0.14525225
-1.0855396
0.12035737
-1.1919207
0.089381274
-1.2959604
0.068264674
-1.4015457
0.06059328
-1.5144969
0.061430032
-1.6373643
0.065014499
-1.7718206
0.06638138
-1.9181862
0.063875131
-2.0750002
0.057702751
-2.2415535
0.049132043
-2.4178482
0.039679815
-2.6030849
0.030578396
-2.7970167
0.022573777
-3.0008804
0.015953678
-3.2160205
0.010710649
-3.4440852
0.0066819553
-3.6863469
0.0036701515
-3.9454717
0.0014953712
-4.2244854
0.099029474
-0.75423048
0.12455007
-0.82816627
0.16139242
-0.91765306
0.16134463
-1.0166804
0.13311484
-1.1186594
0.094717088
-1.2163702
0.067606397
-1.3136225
0.057785744
-1.4173353
0.059881706
-1.5306529
0.066247293
-1.6556978
0.070686381
-1.7931533
0.070477735
-1.9412871
0.065492818
-2.0988884
0.057029925
-2.2659369
0.046900046
-2.4416189
0.036714278
-2.6250653
0.027535793
-2.8170291
0.019856184
-3.0190747
0.013742473
-3.2325161
0.0090418976
-3.4590949
0.0055209232
-3.7000151
0.0029588788
-3.9580536
0.0011743863
-4.2362622
0.091957031
-0.7025589
0.12576988
-0.77099928
0.17495684
-0.85664684
0.17917466
-0.95230472
0.14759442
-1.0504926
0.1004553
-1.1424765
0.065857751
-1.2317854
0.053116508
-1.3265151
0.056348
-1.4304141
0.065960057
-1.5463051
0.074147759
-1.6751637
0.076939251
-1.8151736
0.073700243
-1.9645755
0.06568538
-2.1229581
0.054989805
-2.2897384
0.043650445
-2.4638319
0.033134197
-2.64519
0.024203337
-2.8352036
0.017056906
-3.0354607
0.011556946
-3.2472742
0.0074386337
-3.4724234
0.0044267714
-3.7121679
0.0022966874
-3.9691927
0.0008757137
-4.246641
0.082721656
-0.6540681
0.12580787
-0.71720633
0.18931178
-0.79935598
0.19887254
-0.89208354
0.16402447
-0.9870475
0.10675856
-1.0738991
0.062977392
-1.1556585
0.04640938
-1.2416439
0.050621954
-1.3363552
0.063965503
-1.4432315
0.076579778
-1.5637618
0.083142847
-1.6960511
0.082295778
-1.8378764
0.075160326
-1.9883373
0.06407431
-2.1468022
0.051537601
-2.3121874
0.039503324
-2.4840694
0.029101391
-2.6633598
0.020719535
-2.8514802
0.014271163
-3.0500237
0.0094527997
-3.2603607
0.005929119
-3.484271
0.003411316
-3.7228776
0.0016865003
-3.9790088
0.00059896255
-4.2558104
0.071471707
-0.60840642
0.12471444
-0.66669665
0.2045544
-0.74560206
0.22053534
-0.83573193
0.18261845
-0.92798214
0.11378759
-1.0102589
0.058922837
-1.0848683
0.037514125
-1.1623669
0.042513466
-1.2481034
0.060033018
-1.3461543
0.077827373
-1.458568
0.088964845
-1.5834438
0.091238263
-1.7182129
0.085505752
-1.8614994
0.07428137
-2.0122948
0.060539813
-2.1694553
0.046802026
-2.3325598
0.034669235
-2.5022415
0.024808956
-2.6795448
0.017222835
-2.8658899
0.011582493
-3.0629006
0.0074737333
-3.2719131
0.0045326973
-3.4946399
0.002481293
-3.7322853
0.0011323141
-3.9875954
0.00034630557
-4.2637938
0.058427033
-0.56495203
0.12258629
-0.61916303
0.22063631
-0.69514107
0.24414033
-0.78295193
0.20349298
-0.87292046
0.12170513
-0.95121099
0.053654777
-1.0190422
0.026299656
-1.0883282
0.031851775
-1.1653242
0.053983038
-1.2547557
0.077725048
-1.3592537
0.094279853
-1.4769677
0.10047131
-1.6050643
0.096757884
-1.7418021
0.085735474
-1.8857009
0.070833886
-2.0352944
0.055209065
-2.1900911
0.041050862
-2.3507691
0.029413273
-2.5183302
0.020455804
-2.6938081
0.013837005
-2.8785417
0.0090570961
-3.0741782
0.0056499805
-3.28201
0.0032604683
-3.5037315
0.0016391433
-3.7404642
0.0006341506
-3.9950948
0.00010885823
-4.270809
0.043962251
-0.52324819
0.11976032
-0.57422237
0.23741783
-0.64756765
0.26933914
-0.73317496
0.22628956
-0.82109607
0.13057696
-0.89627521
0.047135443
-0.95783467
0.012668406
-1.0191858
0.018498878
-1.0876918
0.045667749
-1.1687384
0.076134069
-1.2655315
0.098971209
-1.3762974
0.10992386
-1.4980244
0.10893278
-1.6287195
0.098550094
-1.7664693
0.082602546
-1.9093108
0.064924646
-2.056423
0.048412798
-2.2085334
0.03464144
-2.3668722
0.024017238
-2.5324456
0.016223264
-2.706218
0.010661247
-2.889545
0.0067409644
-3.0839963
0.0039986939
-3.290776
0.0021162542
-3.5115806
0.00088380458
-3.7475692
0.00018547242
-4.0016112
-0.00010251032
-4.276884
0.028452571
-0.48342767
0.11676506
-0.53160743
0.25504708
-0.60278307
0.29558322
-0.68579549
0.25027835
-0.77157517
0.14009963
-0.84431306
0.039293272
-0.90073239
-0.0034557012
-0.9546167
0.0023647361
-1.0149127
0.034982563
-1.087822
0.072950292
-1.177137
0.1029308
-1.2811546
0.11951466
-1.3967477
0.12202253
-1.5217981
0.11281902
-1.654046
0.096026888
-1.7909712
0.076165074
-1.9312417
0.056948023
-2.0754077
0.040622643
-2.2248212
0.027967067
-2.3808328
0.018743823
-2.5445674
0.012258668
-2.7168955
0.0077649103
-2.8990155
0.0046600913
-3.092437
0.0025255
-3.2983355
0.0010979706
-3.5183801
0.00021198184
-3.7536627
-0.00021628061
-4.0072627
-0.00028546389
-4.2822481
0.01216739
-0.4458793
0.11394029
-0.49125975
0.27354472
-0.56038757
0.32278296
-0.6411708
0.27518877
-0.72421683
0.14989847
-0.79431608
0.030095581
-0.84663313
-0.02216444
-0.89409251
-0.016617665
-0.94668586
0.021864975
-1.0117587
0.068111351
-1.0938322
0.10606953
-1.1912914
0.12915314
-1.3009415
0.13599149
-1.4206557
0.12860805
-1.5479294
0.11127656
-1.679695
0.089158158
-1.8140046
0.066874219
-1.9509864
0.047512101
-2.0920435
0.032378407
-2.2387588
0.021403571
-2.3926645
0.013809594
-2.5548623
0.0086657371
-2.725979
0.0051871723
-2.9071031
0.0028228243
-3.0996837
0.0012270311
-3.3048116
0.00019936235
-3.5241528
-0.00038192242
-3.7588913
-0.00058152658
-4.0121583
-0.00045355494
-4.286927
-0.012334809
-0.48182835
0.11149751
-0.45343474
0.29284402
-0.52023181
0.35010409
-0.59815668
0.30083159
-0.67946124
0.16011189
-0.74665146
0.019892564
-0.7949044
-0.043371496
-0.83668793
-0.038359452
-0.88263532
0.0062984877
-0.94029412
0.061591821
-1.0154046
0.10832225
-1.1064952
0.13874393
-1.2103554
0.15077499
-1.3249589
0.14594663
-1.4476847
0.12849931
-1.5749456
0.10413441
-1.7041132
0.078431967
-1.8347756
0.055492204
-1.9681943
0.037343456
-2.1060981
0.024209899
-2.2502998
0.015265789
-2.40249
0.009368518
-2.5634956
0.0055032761
-2.7336687
0.0029404213
-2.9139771
0.0012237098
-3.1058383
9.3771e-05
-3.3103138
-0.0005875898
-3.529074
-0.00090164398
-3.7633576
-0.00089825897
-4.0164359
-0.00059502502
-4.2911157
-0.037177288
-0.47384526
0.10275818
-0.48404888
0.31289911
-0.48258882
0.37743271
-0.55732403
0.32667757
-0.63582816
0.1709226
-0.70180211
0.0093714983
-0.74624469
-0.066632276
-0.7821339
-0.062517156
-0.82208901
-0.011602396
-0.87318416
0.053418654
-0.94165284
0.10964951
-1.0265771
0.14819005
-1.1247751
0.16628009
-1.2344271
0.16482253
-1.3529287
0.14780871
-1.4762362
0.12131712
-1.6010215
0.091880516
-1.7262319
0.064773908
-1.8527386
0.04297645
-1.9824115
0.027177959
-2.117369
0.01657012
-2.2595984
0.0097805556
-2.4105697
0.005508438
-2.5707128
0.0027897816
-2.740129
0.0010161021
-2.9197798
-0.0001521699
-3.1110509
-0.00088760235
-3.3149342
-0.0012750953
-3.5331919
-0.0013566553
-3.7671903
-0.0011704367
-4.0201837
-0.00071319593
-4.2948198
-0.062188948
-0.4658131
0.09548649
-0.47756409
0.32867836
-0.50975329
0.40468381
-0.51897317
0.35223418
-0.59392542
0.18339207
-0.65916321
-0.00063632615
-0.70127778
-0.091180231
-0.73145595
-0.088610435
-0.76491708
-0.031380515
-0.81009474
0.04369124
-0.87240109
0.11004756
-0.95136813
0.15739888
-1.0440167
0.18238663
-1.1488137
0.18517674
-1.2633225
0.16927629
-1.3831376
0.14091023
-1.5042081
0.1074906
-1.6247812
0.075597947
-1.7451812
0.04941783
-1.8672219
0.030333521
-1.9934283
0.017659766
-2.1260966
0.0097901538
-2.2669934
0.0050783946
-2.417173
0.0022571795
-2.5766945
0.00051215571
-2.7455266
-0.00060879435
-2.9246397
-0.0013257131
-3.1153881
-0.0017325766
-3.3187948
-0.0018698513
-3.5366537
-0.0017520319
-3.7704623
-0.0014038578
-4.0234812
-0.00081409229
-4.2981505
-0.087071672
-0.45833588
0.089163094
-0.4705102
0.34795815
-0.50685621
0.4282397
-0.54314878
0.37711638
-0.55415927
0.19570124
-0.61645916
-0.0089049699
-0.65978981
-0.11658245
-0.68494505
-0.11647805
-0.711826
-0.052647191
-0.75082121
0.032666214
-0.80746735
0.10953664
-0.88071256
0.16628529
-0.96791591
0.19895391
-1.0679127
0.20690335
-1.1785682
0.19291995
-1.29525
0.16308818
-1.413204
0.12553649
-1.5299156
0.088231531
-1.6450416
0.05683764
-1.7601215
0.033717562
-1.8779941
0.018468312
-2.0015395
0.0092676165
-2.1327307
0.0040627265
-2.2728408
0.0012013802
-2.4225607
-0.00040478492
-2.5816432
-0.0013645037
-2.7500135
-0.0019657395
-2.9286768
-0.0023200441
-3.1189897
-0.002456669
-3.3219697
-0.0023825627
-3.5395193
-0.0020936674
-3.7732744
-0.0016045777
-4.0263883
-0.00090128579
-4.3011164
-0.11139316
-0.45180786
0.083237678
-0.46346244
0.37002933
-0.50267659
0.45458209
-0.54310426
0.40101636
-0.57800956
0.20661189
-0.57466422
-0.01729759
-0.61641271
-0.14325801
-0.64153321
-0.14618679
-0.66287725
-0.075578934
-0.69550042
0.020624416
-0.74666673
0.10817675
-0.81446914
0.17477264
-0.89632679
0.21582174
-0.99153948
0.22985113
-1.0984081
0.21870193
-1.2122156
0.18798207
-1.3275668
0.14628564
-1.4411492
0.10296695
-1.5518252
0.065436895
-1.6606902
0.03738978
-1.770721
0.018929329
-1.8854276
0.0080659424
-2.0072866
0.002284428
-2.1376493
-0.00054817466
-2.2774537
-0.0018788444
-2.4269549
-0.0025296384
-2.585738
-0.0028876772
-2.7537336
-0.0030898452
-2.9320042
-0.0031583876
-3.1219223
-0.0030747481
-3.3245672
-0.0028227579
-3.5419137
-0.002387276
-3.7756881
-0.001776821
-4.0289769
-0.00097592666
-4.3037518
-0.13464702
-0.44646829
0.07726303
-0.45691729
0.3938956
-0.49750438
0.48316696
-0.54122792
0.42739837
-0.58047492
0.21929269
-0.60087051
-0.027036009
-0.57275326
-0.16968078
-0.59779569
-0.177767
-0.61703635
-0.10028974
-0.64425887
0.0075635048
-0.68985119
0.1060716
-0.75249329
0.18278858
-0.82911185
0.232822
-0.9195406
0.25382563
-1.0226134
0.24652087
-1.1337102
0.21567266
-1.2468842
0.16998697
-1.3580167
0.1201133
-1.4650541
0.075451829
-1.5684664
0.041433198
-1.6712267
0.018977505
-1.7773445
0.0060245864
-1.8900692
-0.000459102
-2.0111024
-0.003193468
-2.1412883
-0.0040831691
-2.2811303
-0.0042392774
-2.4305888
-0.0041883185
-2.5891368
-0.0041099038
-2.7567952
-0.0040161706
-2.9347117
-0.0038630977
-3.1242896
-0.0036005531
-3.3266427
-0.003199031
-3.5438863
-0.0026380899
-3.777781
-0.0019234408
-4.0312407
-0.0010389978
-4.3060564
-0.15649221
-0.44245166
0.070947575
-0.45126879
0.4183849
-0.49165949
0.51328936
-0.53764868
0.45572854
-0.5805651
0.23280975
-0.60426848
-0.034284973
-0.60188247
-0.19524071
-0.55442354
-0.20856886
-0.5735564
-0.12599018
-0.59696284
-0.0066345763
-0.63702862
0.10330772
-0.69461477
0.19027436
-0.76613962
0.2497783
-0.85177108
0.27860095
-0.95099348
0.27621569
-1.0594411
0.24617572
-1.1707674
0.19685932
-1.2800729
0.13999036
-1.3842622
0.087147069
-1.4829892
0.045961037
-1.5790838
0.018551055
-1.6769655
0.0029729352
-1.7806747
-0.0044003387
-1.8925184
-0.0069687896
-2.0134999
-0.0072217354
-2.1440229
-0.0066536929
-2.2841496
-0.0059847247
-2.4336142
-0.0054589356
-2.5919514
-0.00508332
-2.7592808
-0.0047775311
-2.9368727
-0.0044542962
-3.1261344
-0.0040463863
-3.3282928
-0.0035189927
-3.5455203
-0.0028507424
-3.7795628
-0.0020469219
-4.0332211
-0.0010915486
-4.3079826
-0.17676917
-0.4398531
0.064085525
-0.44673677
0.4422514
-0.48546229
0.54397028
-0.53241334
0.48513495
-0.57807395
0.24668683
-0.6047901
-0.041727301
-0.6052072
-0.21992945
-0.58468612
-0.23718429
-0.53188024
-0.15156233
-0.55319251
-0.021906029
-0.58824386
0.09982031
-0.64068128
0.19720643
-0.7072715
0.26651334
-0.78809901
0.30391923
-0.88336917
0.30756632
-0.98915451
0.27944428
-1.0988578
0.2270745
-1.2068813
0.16291697
-1.3090023
0.1008165
-1.4038095
0.051107825
-1.4938525
0.017618305
-1.5839427
-0.0012625535
-1.6787462
-0.0097963219
-1.7813691
-0.012137968
-1.89333
-0.011529256
-2.0149884
-0.0099597355
-2.1461999
-0.0084130885
-2.2866912
-0.0072302608
-2.4361763
-0.0064183789
-2.5942652
-0.0058560646
-2.7612789
-0.0054030967
-2.9385565
-0.0049495844
-3.1275379
-0.0044229444
-3.3295596
-0.0037892765
-3.5468415
-0.0030293236
-3.7810894
-0.0021495498
-4.0348593
-0.0011345586
-4.3095554
-0.19554066
-0.43858331
0.056437878
-0.44338236
0.46435597
-0.47923795
0.57406783
-0.52567921
0.51455932
-0.57286312
0.26014993
-0.60194357
-0.04986163
-0.60513844
-0.24395011
-0.58873043
-0.26923414
-0.55888541
-0.17600048
-0.51228082
-0.037940127
-0.54332036
0.095412415
-0.59060391
0.20354315
-0.65233521
0.28285754
-0.72839514
0.32951066
-0.81959287
0.34029401
-0.92260531
0.31535272
-1.030824
0.26075648
-1.138037
0.18919495
-1.2388154
0.11677412
-1.3304967
0.057039223
-1.4151042
0.016140681
-1.4978086
-0.0069098167
-1.5839201
-0.016923707
-1.6773254
-0.01899375
-1.7802006
-0.017270995
-1.8932004
-0.014370197
-2.0160115
-0.01162933
-2.1480526
-0.0095291535
-2.288911
-0.0080883251
-2.4383398
-0.0071367925
-2.5961714
-0.0064702093
-2.7628469
-0.0059178079
-2.9398138
-0.0053638741
-3.1285594
-0.0047393728
-3.3305194
-0.0040156206
-3.5479199
-0.0031774173
-3.7823335
-0.0022333867
-4.0362068
-0.0011689176
-4.3107632
-0.43857962
-0.21299439
0.048039729
-0.44138968
0.48371857
-0.47320533
0.60238525
-0.51771629
0.54286053
-0.56500646
0.27235978
-0.5955238
-0.058877718
-0.60149649
-0.26779666
-0.58887189
-0.29971254
-0.56455957
-0.20976637
-0.53010151
-0.053876193
-0.50214819
0.089945998
-0.54426114
0.20920556
-0.60120527
0.29867288
-0.6725251
0.35510788
-0.75953846
0.37410083
-0.8596223
0.35371482
-0.96635923
0.29795695
-1.0731342
0.21911079
-1.1732817
0.13534541
-1.2626012
0.063935987
-1.3424155
0.014089471
-1.4181541
-0.014147543
-1.4958464
-0.026068387
-1.5800888
-0.02786236
-1.6737633
-0.024741523
-1.7780854
-0.020122839
-1.8927669
-0.015807649
-2.0169092
-0.012472639
-2.1497649
-0.010164825
-2.2908888
-0.0086603247
-2.440212
-0.0076744257
-2.5977153
-0.0069608991
-2.7640403
-0.0063422325
-2.9407093
-0.0057095338
-3.12925
-0.0050033708
-3.3312133
-0.0042029565
-3.5487645
-0.0032981836
-3.7833446
-0.0023002732
-4.0372231
-0.0011954503
-4.3116504
-0.44088159
0.039111763
-0.44009164
-0.2291982
0.49964298
-0.46783156
0.6278501
-0.50886794
0.56889131
-0.55476815
0.28253218
-0.58565895
-0.068929809
-0.59411038
-0.2915829
-0.58531133
-0.3287202
-0.56620959
-0.24219413
-0.53721665
-0.083689367
-0.50627302
0.083737186
-0.50197581
0.21395526
-0.55360117
0.3138913
-0.62043026
0.38049746
-0.70311886
0.40871972
-0.80010371
0.3943502
-0.90529799
0.33872123
-1.0118628
0.2529411
-1.1119844
0.15688622
-1.1997308
0.072008652
-1.2753671
0.011466071
-1.3445774
-0.023142474
-1.4141211
-0.037529017
-1.489337
-0.039073725
-1.573779
-0.034257689
-1.6692837
-0.02747805
-1.7758692
-0.021138347
-1.8924298
-0.016186796
-2.0178982
-0.012723163
-2.1514484
-0.010465314
-2.2927192
-0.0090319124
-2.4418198
-0.0080805057
-2.5989503
-0.0073563071
-2.7648867
-0.0066928754
-2.941272
-0.0059966315
-3.1296835
-0.0052213769
-3.3317072
-0.004355531
-3.5494212
-0.0033943977
-3.7840731
-0.0023518799
-4.0379619
-0.0012149094
-4.3121839
-0.46354728
0.51174138
-0.44168486
0.029451741
-0.44355713
-0.24383524
0.64932574
-0.49953764
0.59152122
-0.54251033
0.28995596
-0.57268627
-0.080090624
-0.58319049
-0.3151366
-0.57816743
-0.35622161
-0.56417935
-0.27280551
-0.54077907
-0.11307016
-0.51398155
0.060894426
-0.48961357
0.21781573
-0.51009828
0.32833145
-0.57171807
0.40552649
-0.65033563
0.44392478
-0.74399462
0.43708319
-0.847543
0.38308332
-0.95404787
0.29102485
-1.0546764
0.18187255
-1.1415912
0.081546097
-1.2136441
0.0082702123
-1.2766534
-0.03412514
-1.3382732
-0.051632513
-1.4046501
-0.052990123
-1.4799306
-0.046157667
-1.5665042
-0.036714281
-1.6649312
-0.027825307
-1.7740931
-0.020804054
-1.8924972
-0.015838695
-2.0191143
-0.012586747
-2.1531702
-0.010551311
-2.2944312
-0.0092714777
-2.4432174
-0.0083932906
-2.5998858
-0.0076782042
-2.7654392
-0.0069826249
-2.9415834
-0.0062332622
-3.1298954
-0.0053987574
-3.3320316
-0.0044770085
-3.5498594
-0.0034685429
-3.7845702
-0.0023897105
-4.0383828
-0.0012279975
-4.3124206
-0.49018452
0.66570489
-0.45992118
0.51936853
-0.44429542
0.018914796
-0.44918876
-0.25563813
0.60965296
-0.52867061
0.29400143
-0.55704886
-0.092369957
-0.56913698
-0.3381321
-0.56780642
-0.3820793
-0.55869112
-0.30138073
-0.54087401
-0.14135397
-0.51880243
0.037620782
-0.49706056
0.20337149
-0.4794624
0.34206364
-0.52722548
0.42992751
-0.6006807
0.47939348
-0.69119903
0.48153436
-0.79284084
0.43070894
-0.89922692
0.33332595
-1.0008052
0.21073571
-1.0878897
0.093093892
-1.1572111
0.0046551705
-1.2142203
-0.047248585
-1.267947
-0.068662121
-1.3255938
-0.069971081
-1.3918253
-0.060794147
-1.469502
-0.048124575
-1.5596709
-0.036080908
-1.6614536
-0.026459381
-1.7730621
-0.019583611
-1.8930927
-0.015051946
-2.0206123
-0.012231722
-2.1549522
-0.010516927
-2.2960536
-0.0094305293
-2.4443919
-0.0086411923
-2.6005726
-0.0079428025
-2.765733
-0.0072213634
-2.9416598
-0.0064259021
-3.129966
-0.0055400179
-3.3322141
-0.004570593
-3.5501212
-0.0035228242
-3.784808
-0.0024151539
-4.0385548
-0.0012353502
-4.3123728
-0.51375137
0.62223249
-0.48055786
0.67606103
-0.45814446
0.52257703
-0.44939505
0.00782504
-0.45662884
-0.26411827
0.29412863
-0.53927393
-0.10569739
-0.55247216
-0.36014634
-0.55472769
-0.4061021
-0.55016658
-0.3278866
-0.53753437
-0.16816907
-0.52051299
0.014426477
-0.5021007
0.18870467
-0.48677531
0.33651071
-0.47731414
0.45378429
-0.55535419
0.51460898
-0.64100959
0.52696584
-0.74073726
0.48058442
-0.84646796
0.37855127
-0.94864992
0.24254211
-1.0367082
0.10664693
-1.1052254
0.0010467355
-1.1575158
-0.062513233
-1.2031313
-0.088928054
-1.251775
-0.090364933
-1.3090475
-0.078516961
-1.377935
-0.062008497
-1.4597899
-0.04612196
-1.5541256
-0.033285904
-1.6591475
-0.024022521
-1.7729344
-0.017877091
-1.894266
-0.014058644
-2.0223881
-0.011786279
-2.1567988
-0.010430805
-2.2975724
-0.0095456505
-2.4453868
-0.0088441858
-2.6010213
-0.008161773
-2.7658074
-0.0074165414
-2.9415887
-0.006579742
-3.1299033
-0.0056489693
-3.3322687
-0.0046390979
-3.5502002
-0.0035592558
-3.7848457
-0.0024294785
-4.0384632
-0.0012376024
-4.3120972
-0.51999848
0.28993165
-0.49776236
0.62846375
-0.47294669
0.68056727
-0.45792851
0.5204521
-0.45667883
-0.0034410316
-0.46533596
-0.2692592
-0.11988916
-0.53383545
-0.38066897
-0.539542
-0.42808395
-0.53912179
-0.35241451
-0.53105598
-0.19345945
-0.51882859
-0.0083394005
-0.50436178
0.173735
-0.49158364
0.33143662
-0.48520847
0.45775135
-0.48557349
0.54944056
-0.59499873
0.57259395
-0.69048225
0.53157473
-0.79519638
0.42489377
-0.89675867
0.27450762
-0.98447194
0.11961452
-1.0531858
-0.0034061875
-1.1044221
-0.079778653
-1.1442007
-0.11262933
-1.1832893
-0.11451886
-1.2311899
-0.099669016
-1.2913829
-0.078664879
-1.3650347
-0.058164704
-1.4518943
-0.041410073
-1.5503321
-0.029208137
-1.658188
-0.021062681
-1.7737327
-0.016000736
-1.8959794
-0.013031254
-2.0244163
-0.011340631
-2.158685
-0.010339246
-2.2989963
-0.0096409039
-2.4461912
-0.0090155479
-2.6012669
-0.0083432203
-2.7657023
-0.0075737514
-2.9413738
-0.0066989921
-3.1297671
-0.005728885
-3.3322265
-0.004685042
-3.5501305
-0.0035796594
-3.7846493
-0.0024338753
-4.0381649
-0.0012353127
-4.3115712
-0.51400141
-0.1346236
-0.50008084
0.28184863
-0.48291327
0.62746912
-0.46667172
0.67900814
-0.45931611
0.51242722
-0.465569
-0.014543291
-0.47496922
-0.27121245
-0.39912253
-0.52295786
-0.44784096
-0.52614795
-0.37515162
-0.52185703
-0.21749389
-0.5137175
-0.030374589
-0.50351142
0.15855986
-0.49370392
0.32663003
-0.49038449
0.46266399
-0.49456188
0.56486076
-0.50579697
0.6181053
-0.6441061
0.58324396
-0.74536574
0.4720716
-0.84608287
0.3054552
-0.93133499
0.12870065
-0.99681259
-0.012404788
-1.047587
-0.1002791
-1.087662
-0.1399158
-1.1205574
-0.14281203
-1.1583083
-0.12458083
-1.2094648
-0.098376687
-1.275077
-0.072416816
-1.3545653
-0.050947182
-1.446393
-0.035176885
-1.54843
-0.024589914
-1.6585929
-0.018005629
-1.775388
-0.014183584
-1.8981642
-0.01208674
-2.0266343
-0.010952157
-2.160575
-0.010270361
-2.3003064
-0.0097305585
-2.4468274
-0.009163368
-2.6013205
-0.0084925985
-2.7654556
-0.0076972012
-2.941092
-0.0067871097
-3.1295591
-0.0057826222
-3.3320926
-0.0047107032
-3.5498831
-0.0035857443
-3.7842718
-0.0024294245
-4.0376408
-0.0012289936
-4.3108459
-0.50577081
-0.41490939
-0.49476822
-0.14864234
-0.48074951
0.26933698
-0.46911805
0.61896477
-0.4617387
0.6711314
-0.46235456
0.49856086
-0.47562219
-0.025246279
-0.48507039
-0.270156
-0.46526558
-0.51187911
-0.39637975
-0.51043325
-0.24080979
-0.50532647
-0.051681352
-0.49921243
0.14347584
-0.49300211
0.32189752
-0.49267149
0.46839713
-0.50070052
0.58144838
-0.51609651
0.64820498
-0.53945342
0.63571317
-0.69956699
0.52127175
-0.79804305
0.33808863
-0.88212983
0.13572678
-0.94138239
-0.027721
-0.98466232
-0.12699578
-1.024414
-0.17135606
-1.0596639
-0.17559804
-1.090847
-0.15371781
-1.1320868
-0.12141394
-1.1895282
-0.089068391
-1.2618675
-0.06199566
-1.3472328
-0.04194494
-1.4434841
-0.028417178
-1.5484377
-0.019997793
-1.6602374
-0.01515171
-1.7777816
-0.012574908
-1.9007141
-0.011294968
-2.0289682
-0.010652451
-2.1624307
-0.010238303
-2.3014943
-0.0098215828
-2.4472799
-0.0092920779
-2.6012193
-0.0086134682
-2.765109
-0.0077901101
-2.9407375
-0.0068470267
-3.1293162
-0.0058127487
-3.3318728
-0.0047181852
-3.5494892
-0.0035790548
-3.7837056
-0.0024171116
-4.0369481
-0.0012191025
-4.3099333
-0.49695262
-0.4804104
-0.49027712
-0.42693857
-0.47572009
-0.16233149
-0.46271907
0.25265804
-0.45715276
0.60343661
-0.45834116
0.65683261
-0.46690621
0.47922031
-0.48627322
-0.03542384
-0.49516338
-0.26632957
-0.41648969
-0.49730727
-0.26414813
-0.4939436
-0.07262004
-0.49125239
0.12882278
-0.48918265
0.31725925
-0.49214616
0.47479497
-0.50376987
0.5990022
-0.52331669
0.68019948
-0.5517512
0.68342187
-0.59010655
0.57344364
-0.75498854
0.37529361
-0.83845633
0.14626901
-0.89548064
-0.044476713
-0.92757563
-0.15986292
-0.95515413
-0.20775691
-0.99126774
-0.21236662
-1.025751
-0.18756975
-1.0596639
-0.14817396
-1.1081658
-0.10828732
-1.1734668
-0.074630179
-1.2526611
-0.049503379
-1.343305
-0.032476773
-1.4431432
-0.02187567
-1.5501766
-0.015819829
-1.6629442
-0.012688175
-1.7807363
-0.011257714
-1.9035023
-0.010689377
-2.0313451
-0.010454177
-2.1642163
-0.010247058
-2.3025377
-0.0099159275
-2.4475771
-0.0094035467
-2.6009871
-0.0087081132
-2.7646839
-0.0078550265
-2.9403421
-0.0068813095
-3.1290275
-0.0058215907
-3.3315385
-0.004709405
-3.5489477
-0.0035609946
-3.7830024
-0.0023978332
-4.0360759
-0.0012060629
-4.3088826
-0.48298618
-0.43600199
-0.48368778
-0.49331004
-0.4746181
-0.43556519
-0.45825439
-0.17539248
-0.44709649
0.2324029
-0.44744854
0.58160831
-0.45641972
0.63608758
-0.47259645
0.45496469
-0.49693917
-0.045056112
-0.50478032
-0.26015159
-0.28836114
-0.47997776
-0.093894909
-0.47957483
0.11481433
-0.48190663
0.31296829
-0.48874617
0.48176166
-0.50390982
0.61738815
-0.52731239
0.71365844
-0.56051729
0.73492774
-0.60630332
0.63864384
-0.65849156
0.4175281
-0.8002261
0.16247321
-0.85727725
-0.057847532
-0.88485668
-0.19436588
-0.89625208
-0.2490548
-0.91693487
-0.25179589
-0.95449147
-0.22515254
-0.99061274
-0.17922797
-1.0312188
-0.13030064
-1.0890727
-0.088896466
-1.1623768
-0.057812632
-1.2477462
-0.036671841
-1.3426966
-0.023510395
-1.4450912
-0.016046311
-1.5533165
-0.012286017
-1.6664303
-0.010709821
-1.7840723
-0.010264104
-1.906414
-0.010276899
-2.0337024
-0.010354365
-2.165898
-0.010293857
-2.3034351
-0.010012235
-2.4477229
-0.0094980928
-2.6006468
-0.0087780299
-2.7641795
-0.0078941066
-2.9398954
-0.0068922688
-3.1286627
-0.0058112982
-3.3311062
-0.0046860814
-3.5482883
-0.0035328258
-3.7821344
-0.0023724482
-4.0350781
-0.0011902092
-4.3076679
-0.46393565
-0.31429935
-0.46957084
-0.45565739
-0.46960663
-0.50462002
-0.46025358
-0.44107966
-0.44332498
-0.18768021
-0.43468724
0.20953503
-0.43987015
0.55412472
-0.4558518
0.60912877
-0.47896445
0.42647807
-0.50709623
-0.054179252
-0.5135901
-0.25225558
-0.1164707
-0.46432824
0.10143056
-0.4708852
0.30949226
-0.48234576
0.489335
-0.50119347
0.63649573
-0.5282479
0.74826674
-0.56573886
0.78965321