/*--------------------------------*- C++ -*----------------------------------*\
| =========                 |                                                 |
| \\      /  F ield         | OpenFOAM: The Open Source CFD Toolbox           |
|  \\    /   O peration     | Version:  v2012                                 |
|   \\  /    A nd           | Website:  www.openfoam.com                      |
|    \\/     M anipulation  |                                                 |
\*---------------------------------------------------------------------------*/
FoamFile
{
    version     2.0;
    format      ascii;
    class       volVectorField;
    location    "91.205981213020209";
    object      U;
}
// * * * * * * * * * * * * * * * * * * * * * * * * * * * * * * * * * * * * * //

dimensions      [0 1 -1 0 0 0 0];


internalField   nonuniform List<vector> 
9200
(
(2.5308517 0.0016874731 2.3672061e-23)
(2.5275186 0.0053160595 2.8182732e-22)
(2.5272077 -4.8232643e-05 -4.9080647e-22)
(2.5229307 0.0072858254 2.5311205e-22)
(2.5247408 -0.00015220624 -1.2396331e-23)
(2.528777 -0.00063099416 -1.3087383e-22)
(2.5161475 0.0083285104 -6.9786017e-22)
(2.5217138 -0.0011325923 -5.0624948e-22)
(2.5266162 -0.0020178674 -1.9506279e-22)
(2.5301835 -0.0012283967 -5.4335859e-23)
(2.5083584 0.0076596028 4.5083712e-22)
(2.5170346 -0.0029385269 -2.4103723e-22)
(2.5241376 -0.003933294 -1.483405e-22)
(2.5284588 -0.0041507313 3.6158079e-22)
(2.5328777 -0.001691939 -7.5463975e-23)
(2.4996296 0.0054542336 9.2030667e-23)
(2.5119153 -0.0057147393 5.4389707e-22)
(2.5201983 -0.0066473947 4.4244821e-22)
(2.5266166 -0.0071349574 6.6748622e-22)
(2.5315336 -0.0057203003 6.4782246e-22)
(2.5360599 -0.0021008103 2.540604e-22)
(2.4905772 0.0017031514 1.8729307e-22)
(2.5062488 -0.0096084612 4.7678792e-22)
(2.5159173 -0.010056417 2.7321917e-22)
(2.523626 -0.010909623 1.4429867e-22)
(2.5301267 -0.0094892668 -2.9609747e-22)
(2.5350499 -0.0070089782 7.1484931e-23)
(2.5397328 -0.0024156056 9.5377184e-23)
(2.4815036 -0.0035580596 -1.3568016e-22)
(2.5005379 -0.014459677 -7.4270248e-22)
(2.5111834 -0.014442583 -4.3220362e-22)
(2.5204347 -0.015016616 -3.2543389e-22)
(2.5278277 -0.014026793 -6.7530548e-22)
(2.534026 -0.011435812 -3.3607338e-22)
(2.5390059 -0.0080070622 1.693942e-22)
(2.5436681 -0.0026432874 3.7180516e-23)
(2.4728 -0.010102231 0)
(2.494918 -0.020267319 1.2370784e-22)
(2.5064052 -0.019502525 -3.0186371e-22)
(2.5169356 -0.019930638 3.2082374e-22)
(2.525389 -0.018637894 3.5355857e-22)
(2.532322 -0.016603113 5.7976952e-22)
(2.5383071 -0.012950588 8.3144221e-23)
(2.5431994 -0.0087558838 1.4613614e-22)
(2.5477512 -0.0027988817 -2.7344468e-23)
(2.4646987 -0.017731738 -1.8373676e-23)
(2.489564 -0.02676571 1.1687028e-22)
(2.5016941 -0.025340272 -7.6096622e-23)
(2.513464 -0.025257345 1.8890789e-22)
(2.522731 -0.023920969 7.0129877e-22)
(2.5305245 -0.021642106 1.1066891e-21)
(2.5370963 -0.018616731 -1.7801742e-23)
(2.5427902 -0.014095685 -3.1049306e-22)
(2.5475266 -0.0092793705 2.4409986e-22)
(2.5518684 -0.002892628 0)
(2.4573052 -0.026092022 -4.0239145e-22)
(2.4845138 -0.033802391 2.6606958e-22)
(2.4972049 -0.031726876 -8.7446477e-23)
(2.5101218 -0.031177248 -1.0409806e-21)
(2.5201258 -0.029406982 -1.6370426e-21)
(2.5285633 -0.02723134 -1.2195552e-21)
(2.5358121 -0.024011478 -4.8612857e-22)
(2.5420173 -0.020157086 -3.610453e-22)
(2.5473874 -0.01490525 1.8379021e-22)
(2.5518794 -0.0096038749 -3.204157e-22)
(2.5559348 -0.0029306264 0)
(2.4506132 -0.034899008 5.8440056e-22)
(2.4797722 -0.041155113 -6.1905088e-22)
(2.4930142 -0.038646094 -1.9974014e-22)
(2.5070545 -0.03747809 3.3638593e-22)
(2.5176745 -0.035304849 1.6180989e-22)
(2.5266513 -0.032838152 -8.4879703e-22)
(2.5343807 -0.02986752 -7.7247762e-22)
(2.5411766 -0.025859251 3.7813053e-23)
(2.5470257 -0.021269587 3.656698e-22)
(2.5520069 -0.015415696 6.9412967e-23)
(2.5561761 -0.0097529163 2.9438643e-22)
(2.559881 -0.0029179666 -1.8961112e-23)
(2.4447522 -0.043890883 4.3815438e-22)
(2.4753225 -0.048729577 1.3474274e-21)
(2.4891715 -0.045998268 -3.1924321e-22)
(2.5043448 -0.04418977 -9.7342885e-22)
(2.5155228 -0.041389336 4.4231698e-22)
(2.5248759 -0.038675089 8.0013149e-22)
(2.5329503 -0.035602012 -1.8177216e-22)
(2.5401841 -0.031976267 2.9255732e-22)
(2.5465984 -0.027239825 2.1100308e-22)
(2.5520568 -0.021998143 1.9954816e-23)
(2.5565776 -0.015657639 -3.2369213e-22)
(2.5603486 -0.0097458697 5.9411963e-22)
(2.5636521 -0.0028587446 2.2874745e-22)
(2.4397809 -0.052758221 4.6651921e-22)
(2.4710819 -0.05638795 6.9215632e-23)
(2.4856668 -0.053723488 -2.9358302e-22)
(2.5020412 -0.0512312 -2.4365434e-22)
(2.5137798 -0.047693227 -1.0048657e-22)
(2.5233733 -0.044484341 8.1457231e-22)
(2.5315766 -0.041417397 6.203537e-22)
(2.5391133 -0.037893436 1.4522184e-22)
(2.5460111 -0.033626488 6.2854985e-22)
(2.5520529 -0.028197614 1.0341996e-21)
(2.5570567 -0.02237497 -1.1978319e-22)
(2.5610357 -0.015655617 -9.088178e-22)
(2.5643415 -0.0095968024 -4.7008989e-23)
(2.5672036 -0.0027564836 -3.3783527e-22)
(2.435649 -0.061174403 3.8428364e-24)
(2.4668991 -0.063975576 3.9539616e-22)
(2.4824006 -0.061755968 -1.2268063e-22)
(2.5001604 -0.058624498 -6.2370158e-23)
(2.5125609 -0.054143753 9.143597e-22)
(2.5222663 -0.05026633 4.6295413e-22)
(2.5303626 -0.047013986 1.0961484e-21)
(2.5379718 -0.043805275 -5.5807988e-22)
(2.5452574 -0.039806464 -4.1487278e-22)
(2.5518977 -0.034859202 -1.6736873e-22)
(2.5575139 -0.0287554 4.6412297e-22)
(2.5619694 -0.022421794 -8.4139341e-22)
(2.5653245 -0.015428089 3.1691062e-22)
(2.5681095 -0.0093157504 -1.2085399e-21)
(2.5704993 -0.0026153137 -6.8066995e-22)
(2.4322621 -0.068872871 -2.1496559e-21)
(2.4626012 -0.071344415 -8.5464999e-22)
(2.4792716 -0.070068159 -2.9954595e-22)
(2.498692 -0.066391492 -1.7047252e-22)
(2.5119708 -0.06079272 6.0586271e-22)
(2.5217005 -0.055907482 1.5068094e-23)
(2.5294103 -0.052340353 -7.1229348e-22)
(2.5368037 -0.049378799 -1.6190146e-22)
(2.5442885 -0.04597929 -2.7897796e-21)
(2.5515062 -0.041375593 -4.07121e-22)
(2.5578605 -0.035675869 3.3642056e-22)
(2.562939 -0.028918638 5.0712712e-22)
(2.5667367 -0.022151948 -7.9331693e-22)
(2.5693933 -0.01499024 1.3330876e-22)
(2.571616 -0.0089119421 2.1797577e-22)
(2.5735119 -0.0024409386 1.7126168e-21)
(2.429478 -0.075618157 -1.4309085e-21)
(2.4579708 -0.078394443 -6.0448032e-22)
(2.4761127 -0.078671537 -4.2816955e-22)
(2.4976349 -0.074628282 -7.5501873e-22)
(2.5120994 -0.067637993 -2.4438301e-22)
(2.5218168 -0.061403385 -2.6058349e-22)
(2.5288491 -0.057226998 -9.9595154e-22)
(2.5356549 -0.054522525 -9.4949778e-22)
(2.5430739 -0.051802716 1.4839846e-23)
(2.5507775 -0.047968683 3.4427628e-22)
(2.557942 -0.042565772 -4.383591e-22)
(2.5638788 -0.036048712 6.4454517e-22)
(2.5682686 -0.02868184 -2.2100387e-21)
(2.5712977 -0.021576084 7.493119e-22)
(2.5731978 -0.014357655 -1.2757056e-21)
(2.5748326 -0.0083977109 1.4271194e-21)
(2.5762232 -0.0022407195 3.3497028e-22)
(2.4271497 -0.081066201 5.1089644e-22)
(2.4528009 -0.084929248 4.1463882e-22)
(2.4727324 -0.087574918 -4.6853707e-22)
(2.4968933 -0.083441612 6.5421718e-23)
(2.5130795 -0.074854344 1.0977345e-21)
(2.522809 -0.066648294 3.2917401e-22)
(2.5288191 -0.061556708 -2.2190226e-22)
(2.5345933 -0.05901312 -1.9693134e-22)
(2.5415794 -0.057171509 1.9497905e-21)
(2.5496047 -0.054317677 9.4900244e-22)
(2.5576191 -0.049684267 -7.1862543e-22)
(2.5645798 -0.043293284 -4.4846087e-22)
(2.5698926 -0.03593489 1.5404918e-22)
(2.5734285 -0.028039039 -5.699275e-22)
(2.5755926 -0.020708444 -2.8162531e-21)
(2.5767017 -0.013549238 1.1736143e-21)
(2.577739 -0.0077910341 -1.5432295e-21)
(2.578625 -0.0020227924 -2.531003e-21)
(2.4253606 -0.085274782 1.1529976e-21)
(2.4468567 -0.090980567 -4.5881235e-22)
(2.4689464 -0.096793024 3.2832923e-22)
(2.4963898 -0.092978049 4.4561227e-22)
(2.5149611 -0.08246266 1.289525e-21)
(2.5248697 -0.071846092 7.310462e-22)
(2.5295447 -0.065130479 1.3291557e-21)
(2.5337183 -0.062617349 1.5892953e-21)
(2.5397845 -0.061820282 -1.3211281e-21)
(2.5478716 -0.060336384 -1.998813e-22)
(2.5567209 -0.056757724 7.6788482e-22)
(2.5648849 -0.050957436 6.2133329e-22)
(2.5713623 -0.043452662 1.0885166e-21)
(2.5758072 -0.03529499 -1.3871759e-21)
(2.5783366 -0.026993912 3.1045267e-22)
(2.5795665 -0.019571422 1.3142105e-21)
(2.5798769 -0.012588389 -7.943384e-22)
(2.5803226 -0.0071148942 -2.8127545e-21)
(2.580718 -0.0017945838 8.0943055e-23)
(2.4243198 -0.088098664 -1.3812331e-22)
(2.4398171 -0.096361068 2.1446546e-22)
(2.4644846 -0.10646185 2.2646122e-21)
(2.4960456 -0.10339522 -2.4951354e-21)
(2.5178344 -0.090765353 1.5795429e-21)
(2.5282111 -0.076731383 7.2902052e-22)
(2.5311255 -0.068104869 -1.6424422e-21)
(2.5331663 -0.06517702 1.3608003e-22)
(2.537696 -0.065484828 6.0209437e-22)
(2.545466 -0.065771149 -1.8559183e-21)
(2.5550645 -0.063745972 2.4794738e-21)
(2.5645791 -0.058832439 1.7206504e-21)
(2.5725262 -0.051586677 -1.8662233e-21)
(2.578169 -0.042947544 1.6903249e-21)
(2.5815073 -0.034109473 -2.9632223e-22)
(2.5829123 -0.025566468 -3.6478791e-22)
(2.5831739 -0.018197176 3.4407995e-21)
(2.582704 -0.011502401 2.6663541e-21)
(2.5825784 -0.0063932102 1.2700359e-21)
(2.5825125 -0.001561701 1.7782298e-21)
(2.4233876 -0.08900305 3.9649032e-21)
(2.4319497 -0.10062288 5.3947329e-23)
(2.4590895 -0.11658099 -1.8955941e-21)
(2.4957142 -0.11488802 -6.2650335e-22)
(2.5217893 -0.09987071 -7.297155e-21)
(2.5330515 -0.081740981 2.8292714e-22)
(2.5338836 -0.069879719 -9.99117e-22)
(2.5329218 -0.066556484 -2.6648705e-21)
(2.5352892 -0.068072229 1.7769273e-21)
(2.542277 -0.070412691 1.4181965e-21)
(2.55246 -0.070448843 2.9541389e-21)
(2.5634381 -0.066944484 -7.0737487e-22)
(2.5731505 -0.060201411 -2.4851815e-21)
(2.5803896 -0.05138689 1.7628655e-21)
(2.5848375 -0.04171671 -1.7467939e-21)
(2.5868716 -0.032388996 -9.24942e-23)
(2.5870842 -0.023795011 1.58055e-21)
(2.5863817 -0.01662638 -1.5775585e-21)
(2.585172 -0.010320664 2.4601778e-21)
(2.5845088 -0.0056459509 1.9139313e-21)
(2.5840258 -0.0013282474 -5.2111487e-23)
(2.4223169 -0.087839812 -1.6300476e-21)
(2.4225665 -0.104009 4.189054e-23)
(2.4524242 -0.12714301 -4.2275459e-21)
(2.4953321 -0.1275929 3.9544997e-21)
(2.5268977 -0.11005925 -5.7056728e-21)
(2.5395756 -0.086720212 9.3062935e-22)
(2.5381144 -0.070884381 1.3669155e-21)
(2.5332709 -0.066233597 4.0120404e-21)
(2.532634 -0.068667251 2.482636e-21)
(2.538174 -0.074011905 2.8101605e-21)
(2.548706 -0.07670732 4.7578184e-21)
(2.5612175 -0.075170571 1.3374682e-21)
(2.5729989 -0.069398812 3.2926387e-21)
(2.5822419 -0.060549084 -2.2922119e-21)
(2.5882478 -0.050229472 2.8312067e-21)
(2.5911882 -0.039749844 -2.2587003e-21)
(2.5917885 -0.030177106 1.0055025e-21)
(2.5907974 -0.021733914 5.7152888e-23)
(2.589171 -0.014905109 -6.7943296e-22)
(2.5872792 -0.0090725659 -1.4262731e-21)
(2.5861234 -0.0048874284 -1.0096367e-23)
(2.5852703 -0.0010973912 -5.9731852e-22)
(2.4210644 -0.084909865 -1.0758358e-20)
(2.4115152 -0.10671914 -2.2620718e-21)
(2.4445714 -0.13840563 3.60439e-21)
(2.4948389 -0.14174362 -1.6568254e-21)
(2.533192 -0.12156269 2.2672506e-21)
(2.548063 -0.091905933 3.5910142e-21)
(2.5439533 -0.070784257 -4.6535881e-21)
(2.5344677 -0.064177778 -8.3483782e-22)
(2.5297511 -0.068303772 3.037555e-22)
(2.5331832 -0.076248351 2.7691403e-21)
(2.5436126 -0.082299029 -5.3387287e-21)
(2.5576589 -0.083423628 -4.5879732e-22)
(2.5718055 -0.079144818 4.5187219e-21)
(2.583509 -0.070609429 -2.4811928e-21)
(2.591541 -0.059644723 6.11731e-22)
(2.5958386 -0.048066353 -1.2776164e-21)
(2.5970494 -0.037091635 1.5522719e-23)
(2.5961679 -0.027546371 1.1679592e-22)
(2.594017 -0.019448689 0)
(2.5915378 -0.013081093 0)
(2.5890327 -0.007785892 1.3430378e-21)
(2.5874365 -0.0041271028 3.4529004e-23)
(2.586255 -0.00087006507 7.3231499e-22)
(2.4193995 -0.079967403 0)
(2.3984198 -0.10820728 -6.81708e-22)
(2.4352033 -0.15023187 5.737342e-21)
(2.4940037 -0.15744499 -2.5032363e-21)
(2.5406844 -0.13460597 -6.644812e-23)
(2.5587208 -0.097416843 -2.2746334e-21)
(2.5517099 -0.069581136 5.3159974e-21)
(2.5366067 -0.060287807 -2.3370542e-23)
(2.5266427 -0.065452803 -3.8640024e-21)
(2.5271404 -0.076910079 -2.8386111e-21)
(2.5369924 -0.087040904 -9.0931514e-21)
(2.5525046 -0.091574036 -6.412729e-21)
(2.5692864 -0.089445885 1.158411e-21)
(2.5839372 -0.081623888 -6.269271e-23)
(2.5945474 -0.070198049 0)
(2.6006722 -0.057378509 2.2887312e-21)
(2.6029027 -0.044936819 -1.1625219e-21)
(2.6022773 -0.033835852 1.6499107e-21)
(2.5999491 -0.024590187 0)
(2.5967294 -0.017009926 -5.830421e-22)
(2.5934909 -0.011200192 -1.641133e-23)
(2.5904478 -0.0064856298 -1.9609142e-21)
(2.5884662 -0.0033691271 1.6130627e-21)
(2.5870165 -0.00064550344 -1.6207751e-21)
(2.4171333 -0.073253032 1.6010338e-20)
(2.3831732 -0.10892956 2.6704833e-21)
(2.4241577 -0.16271337 -5.4274885e-21)
(2.4926202 -0.1748281 -2.0480077e-21)
(2.5493904 -0.14942817 1.3498469e-22)
(2.5717658 -0.10340715 1.1510288e-21)
(2.5616316 -0.067224352 1.1933385e-21)
(2.5398395 -0.054274155 -9.3873195e-22)
(2.5234596 -0.060408763 4.8789696e-21)
(2.5198918 -0.07568916 4.9096256e-21)
(2.5286619 -0.090628593 1.952255e-21)
(2.5454866 -0.099479463 2.497596e-22)
(2.5651463 -0.10026955 -4.2799991e-21)
(2.5832531 -0.093696268 9.6457016e-21)
(2.5970578 -0.08202479 -3.2284562e-21)
(2.6055886 -0.067959801 3.3182092e-21)
(2.6092534 -0.053773174 1.4127653e-21)
(2.6092163 -0.040959424 -7.2627737e-22)
(2.60677 -0.030112615 1.128836e-21)
(2.6031035 -0.02141258 0)
(2.5989416 -0.014487284 4.5599812e-23)
(2.5950508 -0.009303408 -1.7355872e-21)
(2.5915476 -0.0051927537 -1.2148776e-21)
(2.5892347 -0.0026159219 -1.8524394e-21)
(2.587595 -0.00042583283 -5.6766502e-22)
(2.4135045 -0.064656235 -5.6205488e-21)
(2.3661043 -0.1082668 -4.0949757e-21)
(2.4114759 -0.17597428 -6.6616203e-21)
(2.4905981 -0.19402162 2.5255552e-21)
(2.5593093 -0.16623218 2.4847354e-20)
(2.5873555 -0.11005172 -4.4015237e-22)
(2.5739472 -0.063689159 -1.7657651e-20)
(2.5443428 -0.045962777 5.6312108e-21)
(2.5202027 -0.052816091 3.9269542e-22)
(2.5114781 -0.072354029 -6.9670817e-21)
(2.5184553 -0.092913749 2.8094962e-21)
(2.5363608 -0.10699695 2.1532603e-21)
(2.5590871 -0.11157169 -4.9678478e-21)
(2.5811642 -0.1068986 1.4106748e-21)
(2.5988455 -0.095317593 -2.9984968e-21)
(2.6104498 -0.080003278 -5.103695e-22)
(2.6160828 -0.063882936 1.2634561e-21)
(2.6169454 -0.048974312 -2.7409513e-21)
(2.6146145 -0.036313336 3.1574606e-21)
(2.6104739 -0.026072189 1.5097685e-21)
(2.6056342 -0.018117897 5.725366e-23)
(2.6006775 -0.011944224 5.8967933e-22)
(2.5962461 -0.0074249752 2.6484063e-22)
(2.5923601 -0.0039237519 -3.7326309e-22)
(2.5897663 -0.0018790025 -1.3590016e-21)
(2.5879301 -0.00019523666 -1.7957282e-22)
(2.4061012 -0.054621871 -1.821252e-20)
(2.3464442 -0.10723925 6.6968027e-22)
(2.3973376 -0.19000966 6.2236832e-21)
(2.4880519 -0.21509614 -7.5730192e-22)
(2.5704435 -0.18525786 -4.6780071e-21)
(2.6056585 -0.11749557 -3.1203592e-20)
(2.5888238 -0.058917999 1.436801e-21)
(2.5502411 -0.035274422 -1.296524e-21)
(2.5169276 -0.042440964 -2.2238582e-21)
(2.5018428 -0.066684569 -1.012013e-20)
(2.5062349 -0.093671357 -9.6861091e-22)
(2.5249094 -0.11396331 -2.2202654e-22)
(2.5508185 -0.12329328 -3.0425717e-21)
(2.5773661 -0.12129367 -8.605379e-21)
(2.5996591 -0.11024924 5.8857151e-21)
(2.6151086 -0.093769554 7.1567171e-22)
(2.6233414 -0.075486176 1.7761203e-21)
(2.6255283 -0.058139358 -3.2695433e-21)
(2.6234896 -0.0432246 -4.0233104e-21)
(2.6190037 -0.031213569 4.1605208e-21)
(2.6133834 -0.021868168 -2.5606957e-21)
(2.6075706 -0.014801792 -1.4309871e-22)
(2.6019741 -0.009434136 -1.3053427e-21)
(2.5971109 -0.0055917783 1.4601568e-21)
(2.5929138 -0.002690926 -2.185771e-21)
(2.5900888 -0.0011725865 3.8264611e-21)
(2.5880774 8.0035341e-05 1.5721625e-22)
(2.3922169 -0.043006413 1.2322426e-21)
(2.32245 -0.10456171 6.9858302e-21)
(2.3814163 -0.20480824 4.1037851e-21)
(2.4845134 -0.23790825 -9.6131868e-22)
(2.5823944 -0.20637087 -4.1318749e-20)
(2.6264323 -0.12589372 4.8244941e-21)
(2.6064616 -0.052866139 8.3120797e-21)
(2.5576228 -0.021997859 -7.3942072e-21)
(2.5136496 -0.029189233 -6.6958593e-21)
(2.4909422 -0.058465004 2.7279397e-21)
(2.4919016 -0.092727506 -4.2278383e-21)
(2.5109389 -0.1202299 -4.8134144e-21)
(2.5400709 -0.13535027 7.517764e-21)
(2.5715531 -0.13691902 5.5073951e-21)
(2.5992268 -0.1269889 -3.8947834e-21)
(2.6193923 -0.10951473 -1.5394604e-21)
(2.6309861 -0.088878371 3.7227456e-21)
(2.6350088 -0.068665562 1.9648414e-21)
(2.6335301 -0.051051473 -2.100973e-22)
(2.6287301 -0.036827577 2.3920448e-22)
(2.6223629 -0.025884445 -1.7067201e-21)
(2.6155343 -0.017642517 -4.0542522e-21)
(2.6089624 -0.011544546 -2.2507952e-22)
(2.6028764 -0.0069982805 1.219927e-22)
(2.5976815 -0.003823209 3.9266876e-21)
(2.5932345 -0.0015025021 2.2161285e-21)
(2.590234 -0.0004864144 7.3706663e-22)
(2.5880829 0.00030734098 9.5500255e-22)
(2.3720485 -0.030708333 0)
(2.2928461 -0.1026192 -2.7298292e-22)
(2.3632603 -0.22010697 3.5942238e-22)
(2.4786076 -0.26193449 1.1108249e-22)
(2.593085 -0.22906442 -5.7971616e-20)
(2.6468378 -0.13507714 6.1729812e-20)
(2.6264805 -0.04548784 -2.1394846e-20)
(2.5665855 -0.0060048624 7.1659447e-22)
(2.5104056 -0.01278988 2.6393944e-21)
(2.4787283 -0.047582844 7.758782e-21)
(2.4753761 -0.089930413 2.5498286e-21)
(2.4943064 -0.12565566 5.5384892e-22)
(2.5266142 -0.14764571 2.9297398e-21)
(2.5634285 -0.15378187 -1.0674564e-21)
(2.5972605 -0.14568552 -3.2428722e-21)
(2.6231034 -0.12750452 -3.2764057e-21)
(2.6389546 -0.10436691 5.0377783e-21)
(2.6454583 -0.080840996 -6.4142468e-23)
(2.6448633 -0.059959782 0)
(2.639838 -0.043041682 3.8317594e-23)
(2.6326197 -0.030107113 8.3871744e-22)
(2.6247356 -0.020535317 -1.3295895e-21)
(2.6169945 -0.01351432 3.0728911e-21)
(2.6098723 -0.0084073068 1.6143827e-22)
(2.6034336 -0.0046653951 -2.055761e-22)
(2.5979945 -0.0021311112 -1.7619784e-22)
(2.5933478 -0.00036430579 1.7819523e-21)
(2.590219 0.00019671378 -2.0009282e-21)
(2.5879434 0.00051733235 0)
(2.3479384 -0.017452989 0)
(2.2584044 -0.099153856 -7.5382491e-22)
(2.3424702 -0.23651521 2.514648e-22)
(2.4711075 -0.28678557 5.0074712e-22)
(2.6001143 -0.25255794 4.5876269e-20)
(2.6632659 -0.14486452 -4.0422207e-21)
(2.6460028 -0.036698409 3.1525903e-21)
(2.5764358 0.012654909 1.3705249e-20)
(2.5071773 0.0067062803 4.3096682e-21)
(2.4651977 -0.03386138 5.4527733e-21)
(2.4566096 -0.085182475 -9.7639224e-21)
(2.474921 -0.13011474 -1.0843588e-21)
(2.5102627 -0.16006899 -1.022164e-20)
(2.5527211 -0.1718571 4.9502187e-21)
(2.5934636 -0.16645117 3.5526042e-21)
(2.6260156 -0.14799653 -2.6951065e-21)
(2.647164 -0.12228632 1.3350374e-21)
(2.6569438 -0.094978705 6.139411e-22)
(2.657668 -0.070184816 -3.75845e-21)
(2.6525145 -0.049946564 6.2523928e-24)
(2.6443607 -0.034572324 -1.6925667e-22)
(2.6352096 -0.023369053 -1.4471355e-21)
(2.6262153 -0.015342003 -5.587065e-21)
(2.617852 -0.0095734057 5.4919703e-21)
(2.6103682 -0.0054313487 1.3348378e-21)
(2.6036943 -0.0024526443 2.0642494e-21)
(2.5980855 -0.00052091435 -6.050231e-21)
(2.5932842 0.00071917585 -4.3193137e-22)
(2.5900512 0.00086730499 -9.0636388e-22)
(2.5876712 0.00073713308 -1.0615298e-23)
(2.3182415 -0.0021086303 0)
(2.2207842 -0.097841305 0)
(2.3182457 -0.25316638 0)
(2.4600535 -0.31238247 -1.1453739e-20)
(2.606045 -0.27725096 8.5149301e-20)
(2.6770771 -0.15468962 -3.6387967e-20)
(2.6622789 -0.026546654 6.2428297e-20)
(2.5845566 0.034064683 -2.7690398e-21)
(2.5033463 0.029361542 1.7037917e-21)
(2.4502736 -0.017344699 1.0198977e-20)
(2.4355985 -0.078408843 3.6630488e-21)
(2.452748 -0.13351163 7.1958194e-22)
(2.4908945 -0.17249789 0)
(2.5391933 -0.19107713 -9.6939535e-22)
(2.5875408 -0.18935963 -7.4704922e-23)
(2.6278755 -0.17122083 1.0826226e-22)
(2.6554987 -0.14298176 -7.6994209e-22)
(2.6695259 -0.11143499 1.4917146e-21)
(2.6721384 -0.081991892 1.7815694e-21)
(2.6670201 -0.057684584 -1.4646338e-21)
(2.6578 -0.039277091 -1.4189573e-21)
(2.6471556 -0.026086366 -2.7620986e-21)
(2.6366288 -0.016871198 -3.0742572e-21)
(2.6269276 -0.010436064 -3.1940545e-21)
(2.6182043 -0.0058789197 -2.5598688e-21)
(2.6105185 -0.0026398596 -2.1279359e-21)
(2.6037042 -0.00036783983 1.1358962e-22)
(2.5979858 0.0010062715 1.9828003e-21)
(2.5930765 0.0017479572 1.0624616e-21)
(2.5897529 0.0015037674 1.1010604e-22)
(2.5872733 0.00092555633 0)
(2.2813911 0.015709741 0)
(2.1769738 -0.094703734 1.4858803e-22)
(2.2926038 -0.27145081 4.3169178e-22)
(2.4455945 -0.33753719 -9.8499717e-21)
(2.6036965 -0.30150831 -7.1221115e-20)
(2.6896835 -0.16519052 -2.9043264e-20)
(2.676802 -0.015441675 3.2906191e-20)
(2.5897333 0.058138958 1.8443783e-20)
(2.4966877 0.055036026 1.907759e-22)
(2.433791 0.0020107416 -4.7532016e-21)
(2.4123344 -0.069649618 1.0654876e-20)
(2.4278117 -0.13577274 3.1692598e-20)
(2.4684525 -0.18481077 -2.0041721e-20)
(2.522664 -0.21133855 -1.6768764e-20)
(2.5792074 -0.21442099 2.5119971e-21)
(2.6284029 -0.19737448 -8.5751489e-24)
(2.6638056 -0.16679393 5.3829932e-21)
(2.6832431 -0.13059667 -2.8442103e-21)
(2.6884855 -0.095697315 -5.8361608e-21)
(2.6836506 -0.066422674 1.2406574e-21)
(2.6732396 -0.044244068 3.2396834e-21)
(2.6607779 -0.028586314 4.0461761e-22)
(2.6483994 -0.017959516 3.2477383e-21)
(2.6370568 -0.010805513 2.0449e-21)
(2.6270128 -0.0059021661 3.2724971e-22)
(2.6181483 -0.0024619684 -3.3755239e-21)
(2.6103872 -4.1105295e-05 1.8543447e-21)
(2.603506 0.0015879981 -3.3100172e-21)
(2.5977211 0.0024508961 1.9875815e-21)
(2.5927449 0.0027238423 -1.1576957e-21)
(2.5893446 0.0020934372 3.0703069e-23)
(2.5867742 0.0010929888 1.6679342e-22)
(2.2437821 0.03511012 -1.5257924e-21)
(2.1284365 -0.090674854 1.14095e-20)
(2.2604765 -0.28982374 9.1317356e-21)
(2.4294939 -0.36300339 1.8133594e-20)
(2.5975823 -0.327497 1.5908341e-19)
(2.6956163 -0.17618843 -7.5314801e-20)
(2.6926892 -0.0047009602 -7.6904204e-20)
(2.5960708 0.083982246 -1.2755788e-20)
(2.4872008 0.083212174 -1.0027078e-20)
(2.414887 0.023882233 -3.7832216e-20)
(2.3868956 -0.058902057 -1.3311896e-20)
(2.4001934 -0.13688573 -1.2010289e-20)
(2.4429548 -0.19687619 -9.9858982e-21)
(2.5030062 -0.23249926 2.9532205e-21)
(2.5682083 -0.24159437 -9.3234871e-21)
(2.6272998 -0.22658808 3.6542861e-21)
(2.6718827 -0.19404882 -1.5193078e-21)
(2.6980995 -0.15287591 -2.9825189e-21)
(2.706922 -0.1116606 -2.6416508e-22)
(2.7027442 -0.076372778 1.9068685e-22)
(2.6910307 -0.049505604 -1.456219e-21)
(2.6763735 -0.030763358 3.1866732e-21)
(2.6616877 -0.018417627 3.5349827e-21)
(2.6483479 -0.010471019 1.4422718e-21)
(2.6366966 -0.0052931708 2.3128785e-21)
(2.6266113 -0.001781938 6.3951568e-22)
(2.6177745 0.00066927905 2.5265043e-21)
(2.6100308 0.0023678367 1.6648825e-21)
(2.6031381 0.0034192096 5.1900869e-22)
(2.597317 0.0038142461 -2.1056032e-21)
(2.5923013 0.0036480312 -5.3169625e-22)
(2.5888378 0.0026398757 -3.7979551e-22)
(2.5862047 0.0012495118 -1.4494157e-22)
(2.2076011 0.055713452 5.8435051e-21)
(2.0813529 -0.087115458 1.7750526e-20)
(2.2220556 -0.31009745 -1.2151076e-20)
(2.406448 -0.38985225 1.1139391e-20)
(2.5900501 -0.35070782 -3.1694871e-20)
(2.6949882 -0.19015132 5.0206476e-20)
(2.7111742 0.0050526231 -5.4794957e-20)
(2.6072611 0.11048008 -2.5984227e-20)
(2.4795071 0.11302749 2.520841e-21)
(2.3934743 0.047713942 1.4445947e-20)
(2.3593113 -0.046446113 2.4138239e-20)
(2.3700513 -0.13682458 -2.3623667e-20)
(2.4144954 -0.20859126 4.8254444e-20)
(2.480173 -0.25437869 1.1392861e-20)
(2.554319 -0.27076 6.5655594e-21)
(2.6242563 -0.25894044 1.1683992e-22)
(2.6794856 -0.22502712 -1.5596336e-22)
(2.7140467 -0.17869685 9.0199185e-21)
(2.727645 -0.13029114 -2.6835122e-21)
(2.7246696 -0.087789194 3.3320002e-21)
(2.7115868 -0.055119449 7.3133149e-22)
(2.694292 -0.032501841 -1.7274574e-21)
(2.676741 -0.018021919 -5.0046361e-21)
(2.660891 -0.0091752823 -2.7220412e-21)
(2.6472942 -0.003794558 -3.4365845e-21)
(2.6357517 -0.00038996084 1.8887687e-21)
(2.6258528 0.0019183039 5.7171879e-21)
(2.6171625 0.0035236858 -3.937764e-21)
(2.6094981 0.0045970695 -3.7608767e-21)
(2.6026312 0.0051336776 1.8102368e-21)
(2.5967965 0.0051001074 3.7156328e-22)
(2.5917587 0.0045230668 -9.7171157e-23)
(2.5882451 0.0031554921 -2.484807e-22)
(2.5855629 0.0013985059 8.257202e-22)
(2.1740986 0.076944747 -3.0210722e-20)
(2.03908 -0.082952962 -2.3606978e-20)
(2.1802637 -0.33224732 -2.1441948e-20)
(2.3767254 -0.41869341 -6.3457354e-21)
(2.5743264 -0.37718999 -1.8032536e-19)
(2.6896288 -0.19998318 9.6867654e-20)
(2.7112078 0.012696031 1.4347949e-19)
(2.6232544 0.13891014 2.0064546e-20)
(2.4749777 0.14501384 4.3329327e-21)
(2.3716771 0.07293533 2.7330775e-20)
(2.3295455 -0.032485696 6.860651e-21)
(2.33764 -0.13570605 -3.1998624e-20)
(2.3832378 -0.21982417 1.9633427e-21)
(2.4541843 -0.27678569 -1.6513661e-20)
(2.5373786 -0.30174441 8.4024252e-21)
(2.6189611 -0.29440489 -9.394973e-21)
(2.6863152 -0.25997242 5.5147535e-21)
(2.730984 -0.20847909 -8.2610352e-21)
(2.7508195 -0.15203452 -1.3685166e-20)
(2.7498085 -0.1009824 -4.2586897e-21)
(2.7353744 -0.061170659 -2.0500692e-21)
(2.7149539 -0.033684015 3.2080429e-21)
(2.6938522 -0.016519267 4.7662864e-22)
(2.6748488 -0.0066015781 -1.5514364e-21)
(2.658809 -0.0011077946 -1.1747387e-21)
(2.6455334 0.0019945791 1.0885929e-22)
(2.6344091 0.0039020137 1.2309416e-21)
(2.6248494 0.0052183276 -1.5949968e-21)
(2.6163789 0.0061215493 5.1994196e-23)
(2.6088298 0.0066608918 2.1295987e-21)
(2.6020108 0.006740376 5.4558458e-22)
(2.5961781 0.0063135554 7.31201e-22)
(2.5911303 0.0053519947 3.7128742e-22)
(2.5875787 0.00364737 -4.7714188e-23)
(2.5848603 0.0015398251 9.5279007e-22)
(2.1440698 0.098211869 -2.6360297e-20)
(2.0040486 -0.078095147 -8.0536417e-20)
(2.1369648 -0.35576639 -2.7549064e-22)
(2.3414729 -0.44868403 -1.1618759e-20)
(2.5488739 -0.40807348 2.6788041e-20)
(2.6769465 -0.21429695 -3.3522468e-23)
(2.6977676 0.023964448 -1.7728074e-19)
(2.6156976 0.16808801 -3.5968567e-21)
(2.4674387 0.18002427 1.9079204e-20)
(2.3511131 0.10060231 -7.1673502e-21)
(2.2980087 -0.017684956 -4.3200528e-20)
(2.3032149 -0.13347349 4.1382652e-21)
(2.3494239 -0.23053231 -2.3148294e-20)
(2.4251426 -0.29947211 1.8032534e-21)
(2.5172668 -0.33430739 2.4293843e-20)
(2.6111233 -0.33290452 -3.6787513e-21)
(2.6920373 -0.29902811 -6.166988e-21)
(2.7487299 -0.24263237 -8.014061e-21)
(2.7765687 -0.1773766 -1.9556346e-20)
(2.7785479 -0.11630942 -7.7211719e-21)
(2.7628993 -0.067782666 4.1156052e-21)
(2.7388408 -0.034195011 6.0089451e-21)
(2.7133814 -0.01362647 9.2224771e-21)
(2.6904142 -0.002388222 1.1561729e-21)
(2.6712965 0.0031430726 3.8115563e-21)
(2.6558667 0.0056821726 2.1175724e-21)
(2.643335 0.0069020087 1.6148749e-21)
(2.6328286 0.0076201395 -2.4392268e-21)
(2.6236929 0.008154815 -4.9085545e-21)
(2.6154766 0.0084896317 7.1208683e-21)
(2.6080583 0.0085760904 1.4661315e-21)
(2.6012979 0.0082488996 -3.6052798e-23)
(2.5954773 0.0074600825 3.1674155e-22)
(2.590429 0.0061377299 9.8450023e-23)
(2.58685 0.0041163857 3.1971031e-22)
(2.5841064 0.0016733228 -1.5398842e-21)
(2.1189563 0.11894594 7.5711256e-20)
(1.9776887 -0.072342203 2.1715152e-20)
(2.094176 -0.37953483 1.8034819e-20)
(2.3014358 -0.47962987 -9.9851458e-22)
(2.5157995 -0.4392642 -2.8194503e-20)
(2.6562472 -0.23396817 1.9696602e-23)
(2.6749828 0.031201878 -8.6306717e-20)
(2.5894057 0.19671905 3.4633302e-21)
(2.4531194 0.21549547 -8.224703e-22)
(2.3314874 0.13008334 -1.0518491e-21)
(2.2661684 -0.0011242067 -1.6013147e-20)
(2.2669089 -0.13059928 3.5781379e-20)
(2.3133663 -0.24051505 -3.6844436e-21)
(2.3932174 -0.32225684 3.2044445e-20)
(2.4939553 -0.36814045 -6.1184834e-21)
(2.6004566 -0.37422476 -1.4213186e-21)
(2.6962742 -0.34230334 4.7038668e-21)
(2.7670413 -0.28150935 5.8624529e-21)
(2.8049399 -0.2068224 9.480337e-21)
(2.8112568 -0.13419464 2.7259641e-20)
(2.794716 -0.075120338 6.2377088e-21)
(2.7664858 -0.033915821 4.2637086e-21)
(2.7357438 -0.0090396462 1.5081701e-21)
(2.7078277 0.0038795939 -2.7847441e-21)
(2.6848211 0.0093828529 -2.1555154e-21)
(2.6666924 0.011069691 -2.8135888e-21)
(2.6524519 0.011213294 -1.3465675e-22)
(2.6409269 0.010992892 1.5069676e-21)
(2.6311376 0.010827247 -1.3137736e-21)
(2.6224541 0.010773853 1.8667384e-21)
(2.6144961 0.010657396 -1.0024306e-21)
(2.6072089 0.01035989 -3.4476905e-21)
(2.6005101 0.009668665 -1.1790881e-21)
(2.5947077 0.008544889 -9.8411704e-22)
(2.5896662 0.0068828502 -7.6765163e-23)
(2.5860685 0.0045628519 -4.990963e-22)
(2.5833095 0.0017992307 -9.7384821e-22)
(2.1000952 0.13875309 4.0263968e-22)
(1.9598052 -0.065642488 6.7491989e-20)
(2.0538976 -0.40260012 2.635943e-20)
(2.257611 -0.51071891 1.4082383e-20)
(2.4758238 -0.47055882 2.4219977e-20)
(2.6259832 -0.25153097 -4.9584882e-20)
(2.6443449 0.032947994 1.3311138e-19)
(2.5570589 0.22266515 -8.6888095e-20)
(2.4306553 0.24820041 -3.033437e-20)
(2.3113568 0.1606011 4.6844092e-21)
(2.2357651 0.016078543 2.5103667e-20)
(2.229204 -0.12643952 9.5156746e-22)
(2.2753823 -0.24994135 1.6735313e-21)
(2.3586394 -0.34479704 -2.006915e-20)
(2.4674577 -0.4029493 -3.4071326e-20)
(2.5867472 -0.41811839 1.9888227e-20)
(2.698619 -0.38972131 -1.1699259e-20)
(2.7855717 -0.32544529 6.3806427e-21)
(2.8359132 -0.24088543 1.1607206e-20)
(2.8482638 -0.15509103 1.4022958e-20)
(2.831371 -0.083410346 -4.7298476e-21)
(2.7985166 -0.032767588 -2.5720294e-21)
(2.7614097 -0.0023800943 -3.7050812e-21)
(2.7273712 0.012663201 -5.566986e-21)
(2.6994694 0.018105604 -2.2601451e-21)
(2.6779367 0.018599353 9.5860651e-22)
(2.6615913 0.017218143 -1.2884989e-21)
(2.6488888 0.01559322 -3.5073882e-22)
(2.6384872 0.014370281 7.1533807e-21)
(2.6294312 0.013599653 2.540459e-21)
(2.6211842 0.013124942 1.7699939e-21)
(2.6134668 0.01265425 -8.992298e-22)
(2.6063006 0.012028732 1.7495177e-21)
(2.5996612 0.011008378 -1.4494346e-22)
(2.5938804 0.0095725849 -1.7572437e-22)
(2.5888518 0.007589608 -2.8388293e-22)
(2.5852431 0.0049874606 -4.7651076e-22)
(2.582477 0.0019178089 6.574727e-22)
(2.0881509 0.15742845 3.5679858e-20)
(1.9499204 -0.057894754 2.3285855e-20)
(2.018032 -0.4239059 -5.2920152e-20)
(2.2111205 -0.54094368 -4.6041237e-20)
(2.4285269 -0.5016924 -7.7260935e-20)
(2.5839638 -0.26757005 -9.6158786e-20)
(2.6039947 0.039647048 -1.1686644e-19)
(2.5209937 0.24561766 -5.2589667e-20)
(2.3998779 0.28113409 6.0194667e-20)
(2.2878135 0.18785233 -6.0409847e-21)
(2.2070032 0.036313917 4.8992412e-21)
(2.1911323 -0.12242108 1.704578e-21)