/*--------------------------------*- C++ -*----------------------------------*\
| =========                 |                                                 |
| \\      /  F ield         | OpenFOAM: The Open Source CFD Toolbox           |
|  \\    /   O peration     | Version:  v2012                                 |
|   \\  /    A nd           | Website:  www.openfoam.com                      |
|    \\/     M anipulation  |                                                 |
\*---------------------------------------------------------------------------*/
FoamFile
{
    version     2.0;
    format      ascii;
    class       volScalarField;
    location    "85.3128071783649489";
    object      p;
}
// * * * * * * * * * * * * * * * * * * * * * * * * * * * * * * * * * * * * * //

dimensions      [0 2 -2 0 0 0 0];


internalField   nonuniform List<scalar> 
9200
(
0.039018984
0.042892686
0.088607097
0.047986495
0.094890179
0.15010017
0.057485889
0.1028409
0.1596485
0.19858135
0.071169649
0.11692232
0.17292299
0.20948166
0.23944615
0.091283321
0.13593136
0.19493082
0.22509027
0.25090191
0.27197498
0.11976938
0.16179762
0.22421726
0.24993701
0.26758547
0.28329166
0.29762991
0.15691567
0.19649847
0.2624004
0.282196
0.29338929
0.29988769
0.30840881
0.31740025
0.18890628
0.24232619
0.30978584
0.32275771
0.32622169
0.3249766
0.32425719
0.32740916
0.33232623
0.20212775
0.2961727
0.36624371
0.37137648
0.36635035
0.35630096
0.3477737
0.34212546
0.3414559
0.34328537
0.19858673
0.36374879
0.43313353
0.42779598
0.41296703
0.39363469
0.37665982
0.36362533
0.35486865
0.35150648
0.35102703
0.18470517
0.44942371
0.50981168
0.49125688
0.46515714
0.43582543
0.41035908
0.38966521
0.37420835
0.36357482
0.35836303
0.35617623
0.18396863
0.52638402
0.58856985
0.55981061
0.52140396
0.48164583
0.44756297
0.4194909
0.39735456
0.38078211
0.36912548
0.3626778
0.35926042
0.18936966
0.5801354
0.66409851
0.62967165
0.57943448
0.5294133
0.48694675
0.45177798
0.42345787
0.40117407
0.38432279
0.37221687
0.36497692
0.36070986
0.1906488
0.60797608
0.72881483
0.69562716
0.63617517
0.57707694
0.52691813
0.48524004
0.45126103
0.42387497
0.40219241
0.38556989
0.37339638
0.36569275
0.36083731
0.18768596
0.61215071
0.77552412
0.75230056
0.68845996
0.62233492
0.56576795
0.51847589
0.47958344
0.44774058
0.42187377
0.40118151
0.38508289
0.37309206
0.36519006
0.35986509
0.17924017
0.59578019
0.7995769
0.79533102
0.73324029
0.66296062
0.60178079
0.55011329
0.50724721
0.47172072
0.44235365
0.41822369
0.39869405
0.38328462
0.37163809
0.36374523
0.35816175
0.16372473
0.55697755
0.79943606
0.82194516
0.76799502
0.69706853
0.63341704
0.57886104
0.53315669
0.49482689
0.46270314
0.4358106
0.41344179
0.39512727
0.38049789
0.36930597
0.36150688
0.35592201
0.13612141
0.49826601
0.77562239
0.83069393
0.7910026
0.72322086
0.65940416
0.60354803
0.55632207
0.51616434
0.48209472
0.45314164
0.42857493
0.40788483
0.39078751
0.37697481
0.36633779
0.35868663
0.35320316
0.095363446
0.42582901
0.73116196
0.82201447
0.80164187
0.74058201
0.67908312
0.62327787
0.57601656
0.5350317
0.49983833
0.46954739
0.44342376
0.42097456
0.40183335
0.3858932
0.37290846
0.36287649
0.35547148
0.35017066
0.043504836
0.3398914
0.67085075
0.7983284
0.80061609
0.74970139
0.69246428
0.63975089
0.59192507
0.55100306
0.51544379
0.48447867
0.45741337
0.43373561
0.41314887
0.39544016
0.38060588
0.36845226
0.35905696
0.3519775
0.34692184
-0.017287658
0.24223123
0.59903557
0.7627687
0.78964006
0.75017975
0.69887206
0.64940548
0.60404288
0.56384435
0.52860222
0.49756796
0.47011712
0.44575757
0.42417461
0.40522625
0.38882629
0.375047
0.36372655
0.35499297
0.34830521
0.34354511
-0.083315522
0.14009875
0.51990611
0.71919594
0.77089664
0.7437477
0.69933458
0.65426374
0.6119236
0.57344345
0.53912555
0.50857174
0.48124183
0.4566772
0.4345724
0.41477726
0.39727821
0.38208094
0.36931315
0.35882699
0.3507791
0.34453586
0.34011277
-0.14954154
0.044651809
0.44001408
0.67183099
0.74686093
0.73190619
0.69469418
0.65467824
0.61593733
0.57980803
0.546986
0.51738755
0.49062162
0.46627361
0.44405224
0.42381882
0.40555676
0.38935107
0.37527047
0.36348061
0.35383165
0.34649235
0.34073595
0.33668537
-0.21155443
-0.036392702
0.36654333
0.62451508
0.72000114
0.71625822
0.68596967
0.65126113
0.61651066
0.58316949
0.55227455
0.52403293
0.49820363
0.47443233
0.45244582
0.43211588
0.41344299
0.39651086
0.3814746
0.36844519
0.35761059
0.34880482
0.34219567
0.3369596
0.33331191
-0.26555878
-0.10421201
0.30392434
0.58021541
0.69251883
0.69834273
0.67420134
0.64471382
0.61412629
0.5838418
0.5551709
0.52860379
0.50402256
0.4811296
0.45967258
0.4395395
0.42074492
0.4033913
0.38763129
0.37366963
0.36164479
0.35175305
0.3437998
0.33794074
0.33325191
0.33003184
-0.30962519
-0.15174415
0.25299731
0.54078077
0.66614248
0.67954061
0.6603554
0.6357468
0.60929506
0.58217753
0.55590184
0.5312474
0.508174
0.48641475
0.46573049
0.44603348
0.42736253
0.40983416
0.39361572
0.37890773
0.36595166
0.35490152
0.3459496
0.33886116
0.33377014
0.32965013
0.32687661
-0.34297821
-0.18137106
0.21442982
0.50735831
0.64209158
0.66099972
0.64527367
0.62502632
0.6025194
0.57854127
0.55470766
0.53213477
0.51078581
0.49038388
0.47067879
0.45160789
0.4332532
0.41575943
0.39929769
0.38407527
0.37033028
0.35833281
0.34824256
0.34023552
0.33402629
0.32971903
0.32618449
0.32387097
-0.36573248
-0.19506023
0.18699999
0.48008118
0.62123938
0.64357855
0.62964136
0.61314238
0.59426738
0.57328784
0.55181648
0.53142891
0.51200582
0.4931626
0.47461797
0.45632575
0.43842986
0.42112995
0.40461108
0.38906678
0.37473534
0.36188984
0.35082362
0.34169163
0.33464119
0.32932678
0.32581619
0.32287922
0.32103387
-0.37878673
-0.19540316
0.16653337
0.45939163
0.60413646
0.62781499
0.61395712
0.60059114
0.58495374
0.56675047
0.54743033
0.5292608
0.51194802
0.49488198
0.47767917
0.46028975
0.44295025
0.42595202
0.40951778
0.39382687
0.37908558
0.36556634
0.35357886
0.34343395
0.33527012
0.32919321
0.32478922
0.32208509
0.31975316
0.31837942
-0.38465033
-0.18419696
0.15034066
0.44782595
0.59082275
0.61363992
0.59853848
0.58776818
0.57493333
0.55923355
0.54171897
0.52571928
0.51071075
0.49563024
0.47997412
0.4636264
0.44690704
0.43026736
0.41401028
0.39831312
0.38333617
0.36930681
0.35654236
0.34539155
0.33617404
0.32899797
0.323915
0.32043603
0.3185444
0.31682056
0.3159174
-0.38308636
-0.16389609
0.13857584
0.44390434
0.5807926
0.60072958
0.58404873
0.57497784
0.56450064
0.55101546
0.53481976
0.52083707
0.50835357
0.49550475
0.48166892
0.46647103
0.45041462
0.4341459
0.41810577
0.40249994
0.38744046
0.37307995
0.35968798
0.34764081
0.33732466
0.32905507
0.32289419
0.31882743
0.31628582
0.31520871
0.31409155
0.31365399
-0.37084058
-0.13285726
0.12766191
0.444006
0.57354375
0.58877938
0.57106899
0.56246769
0.55389103
0.54233961
0.52685066
0.51458532
0.5048696
0.49455908
0.48283416
0.46898458
0.4536183
0.43767958
0.4218418
0.40637444
0.39135429
0.37683854
0.36300336
0.3501896
0.33884257
0.32937803
0.32208978
0.31697725
0.31394894
0.31235384
0.31208879
0.31157271
0.31159219
-0.34733022
-0.099168272
0.12089829
0.44580479
0.56779937
0.57725987
0.55985903
0.55036371
0.54328639
0.53342491
0.51791175
0.50686465
0.50021823
0.49275191
0.48350559
0.47128691
0.45663388
0.44097851
0.42527303
0.40993433
0.39503253
0.38052319
0.36644767
0.35305177
0.34077478
0.33013299
0.32155535
0.31529264
0.31126502
0.30929577
0.30865218
0.30919221
0.30926752
0.30973231
-0.3152975
-0.06959692
0.12427586
0.44859348
0.56311171
0.56680326
0.550562
0.53866672
0.53280987
0.52443101
0.50812668
0.49749339
0.49429848
0.49000301
0.48371706
0.47346838
0.45961278
0.44415151
0.42846445
0.4131868
0.39842889
0.38405917
0.36995428
0.3562027
0.34316945
0.33141059
0.32150284
0.3138646
0.30867994
0.30577482
0.30488194
0.30519007
0.30652345
0.30717675
0.30807245
-0.27638451
-0.043521146
0.13947935
0.45477845
0.55781549
0.5592685
0.5427783
0.52727497
0.52262396
0.51550443
0.49760619
0.48622404
0.48696693
0.48616657
0.48338601
0.47560969
0.46268942
0.44730995
0.4314886
0.41614619
0.40149754
0.38735687
0.37342634
0.35957998
0.34602951
0.33330118
0.32206988
0.31294966
0.3063183
0.30226954
0.30052307
0.30071926
0.30197395
0.30408442
0.30529882
0.30660868
-0.23087085
-0.019122924
0.1643705
0.46327662
0.55311363
0.55364168
0.53520443
0.51652215
0.51276325
0.50675729
0.48662944
0.47268185
0.47804982
0.48104309
0.48235995
0.47773112
0.46593479
0.45055128
0.43441144
0.41882981
0.40419378
0.39031465
0.37673692
0.36307777
0.3493113
0.33584691
0.3233956
0.31273395
0.30447842
0.29893333
0.2960804
0.29552513
0.29681722
0.29900771
0.30187459
0.30363017
0.30533557
-0.17830377
0.0020279114
0.19257183
0.47247983
0.54998113
0.54966451
0.52635505
0.50569996
0.50315719
0.49818622
0.47519607
0.45650267
0.46730725
0.47435808
0.48033691
0.47977027
0.46940924
0.45393606
0.43728161
0.42125343
0.40647395
0.39282313
0.37973258
0.36654508
0.35291685
0.33903814
0.32557178
0.31340991
0.30339446
0.29610195
0.29173037
0.29013205
0.29079482
0.29318301
0.29629281
0.29989136
0.30216554
0.30424635
-0.12491352
0.016410703
0.21881051
0.48051007
0.54923815
0.5460462
0.51648098
0.49475395
0.49296122
0.48967321
0.46394368
0.43684039
0.454498
0.46577215
0.47689622
0.48156798
0.47309361
0.4574817
0.44012153
0.4234196
0.40829407
0.39476801
0.38223758
0.36978802
0.35669021
0.34280388
0.32863722
0.31512704
0.30331401
0.2940548
0.2878404
0.28473321
0.28444388
0.28634416
0.28982143
0.29382851
0.29813026
0.30089826
0.3033333
-0.078949284
0.028935344
0.24152343
0.48650776
0.54912551
0.54084106
0.50606457
0.48329058
0.4826961
0.48123125
0.45282979
0.41480786
0.43940228
0.45493925
0.47169704
0.48292379
0.47692349
0.46113749
0.44290225
0.42530785
0.4096027
0.39603303
0.38405882
0.37257343
0.36041786
0.34700579
0.33256635
0.31798452
0.30444939
0.29309381
0.28473035
0.27972064
0.27796759
0.27903445
0.28218306
0.28673496
0.29161194
0.29658529
0.29982056
0.30258797
0.048293497
-0.046960482
0.25988153
0.49036499
0.54806089
0.53410324
0.49487566
0.47100047
0.47173666
0.4724677
0.4436009
0.39043666
0.42215419
0.44203218
0.46384917
0.48344301
0.48068983
0.46478466
0.44553063
0.42685815
0.41033759
0.3964991
0.38499009
0.37463254
0.36383009
0.3514367
0.33726108
0.322018
0.30696853
0.29349568
0.28275279
0.27544799
0.27177471
0.27146019
0.27392081
0.27831908
0.28392373
0.28963842
0.29524908
0.29892384
0.30200116
0.27250291
0.075236568
-0.025214192
0.49105661
0.54450316
0.52671538
0.48231393
0.45728845
0.45981091
0.46264322
0.43335295
0.36878803
0.39985634
0.42720061
0.45303665
0.48271506
0.48417447
0.46816641
0.44783474
0.42796203
0.41040858
0.39604682
0.38481599
0.37566263
0.36660233
0.35581985
0.34254724
0.32718915
0.31098009
0.29550155
0.282247
0.27231235
0.26624461
0.26403848
0.26523741
0.26911794
0.2747572
0.28138561
0.28790163
0.29411334
0.29819879
0.30156323
0.4870031
0.28048094
0.099813446
-0.0092382828
0.53688596
0.51689077
0.46597595
0.44111424
0.44670646
0.45167041
0.42173524
0.34521007
0.37658972
0.40825996
0.44001652
0.48027241
0.48677029
0.47097183
0.44953373
0.42845032
0.4097012
0.39454339
0.38331523
0.37533159
0.36835391
0.35980774
0.34817229
0.33338
0.31652051
0.29930052
0.28352774
0.27071048
0.26181051
0.25716518
0.25654972
0.25932435
0.26463813
0.2714997
0.27911648
0.28639404
0.29316885
0.29763549
0.30126458
0.52393185
0.47714474
0.28374646
0.11202438
0.0026700662
0.50179243
0.44513975
0.42094579
0.43183767
0.4395985
0.4088282
0.32480152
0.34335278
0.39260882
0.42585014
0.47549566
0.48785647
0.4725683
0.45027731
0.42808244
0.40805512
0.39186285
0.38025801
0.3732715
0.36865077
0.36297925
0.35380258
0.34038881
0.32354533
0.30501364
0.2868674
0.27102732
0.25891872
0.25129967
0.24826035
0.24934655
0.25374362
0.2604906
0.26854643
0.27711067
0.28510691
0.29240552
0.29722357
0.30109567
0.48088261
0.50450812
0.4614128
0.28350204
0.11378825
0.01491297
0.41869267
0.3950537
0.41411147
0.42638884
0.39400228
0.30598017
0.30918152
0.3537067
0.40910545
0.46878095
0.48545657
0.4724874
0.44951999
0.42657627
0.40528072
0.38783736
0.37543472
0.36908087
0.36698647
0.36483741
0.35902016
0.34792645
0.33192248
0.31268152
0.2924769
0.27361718
0.25801739
0.24692746
0.24084355
0.23958386
0.24246541
0.24851463
0.2566816
0.26589515
0.27536078
0.28403007
0.29181241
0.29695276
0.3010467
0.38489293
0.45454675
0.47848166
0.44051051
0.27951315
0.11013913
0.026724503
0.36239255
0.39217151
0.4117141
0.37722747
0.28690473
0.27325867
0.31875583
0.38463919
0.45412369
0.48099523
0.4675569
0.44683508
0.42352508
0.40116711
0.38233542
0.36859479
0.36232783
0.3627887
0.36478313
0.36331556
0.35561401
0.34142637
0.32225347
0.30048871
0.27878167
0.25953737
0.24454987
0.23481194
0.23051364
0.23118983
0.23593985
0.24365327
0.25321466
0.26354131
0.27385724
0.28315182
0.29137872
0.29681368
0.30110826
0.32328061
0.34621709
0.42439454
0.44676391
0.41564449
0.27043714
0.10358802
0.036381385
0.36497609
0.39520796
0.35857996
0.26800811
0.23745328
0.28008966
0.3549321
0.43356739
0.4680678
0.46224754
0.44085359
0.41867638
0.39544885
0.37515654
0.35962717
0.35249916
0.35539515
0.36212865
0.36606756
0.36297772
0.35173529
0.33357772
0.31094069
0.28674801
0.26386781
0.24466535
0.23070743
0.22266223
0.22038533
0.22313042
0.22979963
0.23917218
0.25009023
0.26147705
0.27258803
0.28246074
0.29109516
0.29679724
0.30127096
0.33231812
0.27920926
0.30301253
0.39231611
0.41301718
0.38888359
0.25721361
0.095591368
0.043448345
0.37686109
0.33822529
0.2505584
0.20359734
0.24116416
0.32261273
0.40512175
0.45376507
0.44565209
0.43245295
0.41126368
0.38805014
0.36617106
0.34824408
0.33919443
0.34401779
0.35604482
0.36653448
0.36943703
0.36242886
0.34639395
0.32376129
0.29764696
0.27132994
0.24774353
0.22908394
0.21659769
0.21057806
0.21053436
0.21545446
0.22407079
0.23507986
0.24730403
0.25969085
0.27154141
0.28194828
0.29095318
0.29689206
0.3015246
0.35733978
0.29419342
0.23274589
0.25660132
0.35749554
0.38077415
0.36175465
0.24178644
0.087378684
0.048059415
0.31670316
0.23518649
0.1729413
0.20426379
0.28887916
0.37207024
0.43153199
0.4312089
0.41771114
0.40232159
0.37841678
0.35526492
0.33456776
0.32162427
0.32779715
0.34553831
0.36372285
0.37425539
0.37296835
0.36032551
0.33875453
0.31149188
0.28214923
0.25419541
0.23048102
0.2129147
0.20234649
0.19866363
0.20103443
0.20820669
0.21877409
0.23137835
0.24484645
0.25817137
0.27071011
0.28160723
0.29093975
0.29708303
0.30186195
0.29485463
0.33804208
0.25547782
0.18501286
0.20889314
0.3198505
0.35138557
0.3357697
0.22590319
0.079842273
0.050485389
0.2223974
0.1467935
0.17099489
0.25553965
0.33618072
0.40096881
0.40559557
0.40233911
0.38962206
0.36776735
0.34214917
0.31820678
0.29987668
0.30534029
0.32950229
0.35644137
0.37648962
0.38271612
0.37485536
0.35558711
0.32815531
0.29642836
0.26434034
0.23539147
0.21220869
0.19630926
0.18809085
0.187024
0.19195564
0.20142573
0.21392178
0.22806226
0.24270786
0.25691369
0.27008883
0.2814214
0.29103415
0.2973586
0.30227659
0.21259469
0.2741311
0.32052368
0.21873436
0.1381625
0.16297525
0.28134035
0.32583425
0.31203923
0.21070199
0.073406909
0.051092244
0.12664792
0.14295756
0.22514909
0.29753415
0.36181282
0.37068369
0.37618818
0.37868323
0.35530776
0.32794474
0.29971205
0.27263845
0.27593785
0.30664597
0.34325639
0.37514661
0.39077927
0.38947324
0.37377249
0.34734944
0.31411517
0.27837338
0.2442244
0.21504282
0.19310109
0.17944053
0.17397369
0.17576224
0.18336135
0.19513922
0.20951598
0.22512563
0.24088721
0.25591564
0.26965785
0.28135884
0.29122055
0.29772387
0.30277954
0.11362981
0.20673688
0.25573362
0.30505528
0.18438344
0.095148659
0.12117565
0.24398985
0.30349313
0.29118686
0.1969763
0.068563631
0.050476063
0.12156459
0.19996356
0.2577447
0.31745901
0.32628359
0.33859034
0.35862598
0.3470885
0.31306664
0.27852381
0.24152735
0.23578371
0.27585801
0.32230299
0.36881103
0.39632143
0.40320093
0.39272505
0.36860733
0.33497606
0.29632531
0.25726799
0.22190807
0.19334026
0.1733676
0.16249514
0.16013946
0.16497486
0.17530143
0.18936154
0.20555743
0.22257365
0.23938703
0.25515329
0.26937199
0.28139663
0.29151324
0.29825695
0.30337561
0.10809396
0.10923836
0.20400767
0.24268192
0.28931794
0.15361584
0.058727364
0.085584213
0.21049636
0.28384761
0.27341013
0.18503866
0.064831131
0.048965508
0.17977022
0.21836976
0.2700119
0.27438043
0.29045747
0.32651799
0.33352554
0.30330027
0.25927019
0.20267196
0.1862909
0.23329732
0.29044522
0.35570507
0.39815776
0.41526554
0.41154262
0.39129781
0.35857388
0.31803026
0.27464229
0.23318283
0.19758783
0.17052734
0.15324301
0.1456674
0.14672748
0.15474255
0.16780881
0.1841044
0.20206077
0.22041586
0.23817923
0.25456436
0.26919968
0.28157176
0.29206778
0.2989169
0.30406904
0.16455067
0.10384745
0.11267152
0.2046668
0.2388506
0.27233451
0.12951479
0.030987085
0.057911216
0.18269612
0.26776186
0.25854872
0.17373476
0.062542142
0.046569322
0.18502956
0.22200197
0.21508886
0.23078957
0.28292753
0.31142906
0.29039046
0.24497497
0.17252888
0.12320022
0.18477738
0.24397418
0.33305142
0.39474501
0.42448899
0.42933137
0.41450728
0.38426476
0.34309694
0.29626199
0.24907975
0.20630527
0.17153503
0.14688866
0.13297914
0.12915006
0.13385964
0.14512496
0.16091219
0.17939662
0.19904588
0.2186203
0.23718142
0.25410643
0.26920383
0.28217902
0.29277988
0.29967629
0.30486178
0.16388116
0.15596603
0.10850956
0.12434669
0.21015925
0.24284978
0.25530609
0.11485909
0.013417574
0.038554102
0.16139251
0.25643514
0.24557913
0.16433145
0.061427139
0.043655217
0.17600656
0.14841874
0.16258445
0.22795624
0.28053501
0.27187101
0.22942555
0.14399698
0.072382983
0.11424601
0.21629996
0.29993883
0.38413107
0.42958073
0.44483322
0.43726501
0.41111678
0.37089793
0.32179925
0.2696033
0.21979669
0.17692325
0.14408198
0.12273943
0.11283295
0.11311808
0.12163246
0.13617572
0.15466099
0.17527309
0.19647793
0.21708094
0.23633808
0.253878
0.26985579
0.28300643
0.2935976
0.30053283
0.30575357
0.13475231
0.15765216
0.15593351
0.12247639
0.1435169
0.22269218
0.2526394
0.2397728
0.11002369
0.0057826645
0.029571026
0.14620005
0.2486293
0.23467812
0.15716635
0.061929038
0.040595224
0.077800368
0.08855626
0.16377567
0.24182014
0.24705154
0.2102039
0.1199167
0.0093464925
0.041691044
0.14208011
0.25531891
0.3643842
0.42868914
0.45683141
0.45818942
0.43816142
0.40053256
0.35067617
0.29450673
0.23816176
0.18708142
0.14540995
0.11560991
0.098410467
0.093045162
0.097717001
0.11013471
0.12797351
0.14911183
0.17169807
0.19422384
0.21572672
0.23579011
0.25458969
0.27081029
0.28394641
0.29451215
0.30148847
0.30674711
0.011044229
0.10072165
0.16495775
0.16583595
0.1443574
0.168591
0.24264967
0.26862043
0.22887281
0.11266024
0.0087826192
0.027079916
0.13906263
0.24159716
0.22586163
0.15203178
0.064034335
0.037768588
0.0043912801
0.094517602
0.19388165
0.21630735
0.18601533
0.096354313
-0.043179544
-0.063730302
0.07080296
0.20042493
0.33569053
0.41967008
0.4634991
0.47610213
0.46382824
0.43101069
0.38204072
0.32328373
0.26124741
0.20220511
0.15133577
0.1122106
0.086530816
0.074221189
0.073824285
0.083083248
0.099485651
0.12060588
0.14423133
0.16850787
0.19219441
0.21475094
0.23654902
0.25572013
0.27188792
0.28497966
0.29552805
0.30254364
0.30784132
-0.073199108
-0.048238128
0.074838148
0.18070459
0.18258968
0.17296124
0.19835416
0.26838458
0.28929125
0.22655445
0.12120426
0.014381846
0.034609316
0.13592892
0.23606731
0.21866701
0.14856029
0.067227486
0.034189268
0.022500369
0.1387154
0.18043983
0.15787015
0.06991964
-0.093011342
-0.15856596
-0.045321898
0.14726141
0.30224031
0.40396828
0.46280032
0.48919213
0.48706122
0.46074126
0.41487589
0.35513759
0.28863318
0.22224182
0.16214547
0.1130611
0.077821688
0.057254206
0.050457486
0.055368999
0.069391066
0.089815972
0.11404679
0.13982147
0.16559237
0.19064567
0.21554553
0.23787893
0.25698535
0.27305464
0.28611428
0.29664503
0.30369866
0.30903636
-0.049379236
-0.14364037
-0.093943828
0.055702219
0.19914337
0.20672583
0.20597284
0.23104151
0.29697427
0.31497906
0.23455212
0.12759356
0.028839454
0.048240398
0.1371036
0.23204205
0.21256397
0.14657309
0.071572392
0.031731261
0.081495442
0.14129945
0.12646333
0.044110671
-0.14469663
-0.25658776
-0.15491304
0.052901497
0.25336877
0.3836489
0.45614047
0.49546688
0.50596402
0.48879901
0.44770581
0.3890805
0.31959612
0.246869
0.17788936
0.11852641
0.072836196
0.042750976
0.028157421
0.027396761
0.037926111
0.056830137
0.081114351
0.10805996
0.13574798
0.16328358
0.19144224
0.21711107
0.23935959
0.25833221
0.27432355
0.28734934
0.2978632
0.3049528
0.31033235
0.027103816
-0.11472723
-0.19795707
-0.12420719
0.04710183
0.21424845
0.23846427
0.24140507
0.26597157
0.32715357
0.34279665
0.25010506
0.13823247
0.049776416
0.068526295
0.14134052
0.22931575
0.20701897
0.14569656
0.077851665
0.030014582
0.10223954
0.095195675
0.02009257
-0.19444633
-0.35289173
-0.28548093
-0.056862192
0.17736323
0.34127205
0.44391232
0.4960266
0.51874983
0.51286015
0.47967083
0.42377079
0.35321864
0.27545524
0.19835141
0.12875584
0.072000197
0.031270225
0.0074790641
-0.0003867031
0.0053786752
0.021764572
0.04541446
0.073102491
0.10248324
0.13243567
0.16403228
0.19326854
0.21884655
0.24091345
0.25978065
0.27569256
0.28868518
0.29918144
0.30630443
0.311729
0.06781473
-0.020416095
-0.16433295
-0.23238343
-0.13764949
0.04941734
0.22768792
0.27296485
0.27790791
0.30136206
0.35426174
0.37590367
0.2660904
0.15406241
0.076716853
0.094260344
0.14763178
0.22700413
0.20152973
0.14394523
0.082849174
0.028445354
0.066368443
-0.0027680515
-0.23143901
-0.44051497
-0.41828872
-0.18128799
0.089736986
0.28285614
0.40663205
0.49107635
0.52587415
0.53220097
0.50802554
0.45816619
0.38820899
0.30716393
0.22300666
0.14364343
0.075550987
0.023274068
-0.011045692
-0.027510535
-0.027923073
-0.015223302
0.0069383288
0.034820486
0.065586383
0.097856059
0.13306014
0.16614315
0.19528961
0.22064457
0.24256903
0.26132745
0.27716221
0.29012
0.30059863
0.30775265
0.31322372
0.044268958
0.042303001
-0.054791461
-0.19302999
-0.24442648
-0.13493425
0.060499689
0.24296604
0.30446543
0.31163263
0.33353489
0.38949754
0.39857013
0.28242896
0.17442422
0.10990609
0.12380772
0.15573553
0.22354511
0.19576202
0.14117712
0.085172612
0.027657257
-0.026354852
-0.24958216
-0.50934271
-0.54517367
-0.31405873
-0.01164942
0.21087362
0.35894111
0.45995595
0.52880892
0.54536743
0.53387693
0.48994179
0.42346013
0.34074649
0.25111156
0.16278372
0.08349034
0.019069231
-0.026950109
-0.053506232
-0.061624292
-0.053944064
-0.034296064
-0.0069237731
0.024818317
0.059247574
0.098249087
0.13546963
0.16848076
0.19736191
0.22254454
0.2443215
0.26297381
0.2787298
0.29165189
0.3021147
0.30930161
0.31481471
-0.0471034
0.032423014
0.029840447
-0.069571177
-0.1978315
-0.23441748
-0.11795617
0.077902617
0.25898547
0.33076109
0.34208252
0.3700478
0.41362831
0.42169492
0.30017392
0.19965363
0.14761647
0.15570652
0.16918651
0.21945377
0.18982361
0.13834759
0.085099547
0.027292432
-0.24750225
-0.54908995
-0.65277835
-0.4460858
-0.12480756
0.12943664
0.29933315
0.41953898
0.50518781
0.55601272
0.55179504
0.52022996
0.4569785
0.37514099
0.28148385
0.18554145
0.09554052
0.01875579
-0.03988548
-0.077941615
-0.095359035
-0.094186968
-0.078252464
-0.052259574
-0.020092062
0.016265048
0.059261084
0.10096137
0.13814871
0.17085835
0.1995382
0.22454001
0.24617287
0.26471619
0.28039272
0.29328164
0.30373356
0.31094775
0.31650284
-0.2270506
-0.049029716
0.03291959
0.03070436
-0.060935114
-0.17916533
-0.20522828
-0.089922332
0.097818125
0.27471158
0.35271413
0.37379272
0.39731968
0.43835837
0.44604835
0.32166453
0.22824168
0.18794116
0.18559872
0.18670813
0.21416179
0.18424977
0.13516896
0.083555091
0.02681438
-0.55120157
-0.72456966
-0.56319961
-0.24039441
0.039797208
0.23258904
0.36693583
0.47223866
0.54126411
0.56922569
0.54118543
0.48885628
0.40836037
0.3131244
0.21082898
0.11118929
0.022184914
-0.049671511
-0.10046444
-0.12877458
-0.13572455
-0.12488605
-0.1013172
-0.069430316
-0.031492012
0.015697896
0.062268506
0.10400062
0.14085852
0.17334492
0.20181006
0.22663414
0.24811848
0.26655135
0.28215292
0.29502124
0.30544711
0.31268533
0.31828522
-0.51219076
-0.18742568
-0.027173129
0.048828583
0.041374145
-0.034507597
-0.14188822
-0.16096732
-0.053407163
0.1226767
0.29078241
0.37580501
0.39975502
0.4250693
0.46264159
0.46628538
0.34729959
0.25692064
0.22390097
0.20973286
0.20409546
0.21016001
0.17898918
0.13172817
0.081377129
0.026041638
-0.74480549
-0.64914171
-0.34582244
-0.05335483
0.1597586
0.30707224
0.42536902
0.51759645
0.56464555
0.56703075
0.51366445
0.4403478
0.34400269
0.23772396
0.12947395
0.028977535
-0.056334305
-0.12084547
-0.16156355
-0.17832802
-0.17413743
-0.15423772
-0.12350796
-0.084463655
-0.032906398
0.018976809
0.065679007
0.10706545
0.14368771
0.17592978
0.20418224
0.22882114
0.2501543
0.2684832
0.28403077
0.29685795
0.30724988
0.31451141
0.32015345
-0.70416941
-0.43032878
-0.12710378
0.012898637
0.078298121
0.066364526
0.0047511744
-0.09118333
-0.1038631
-0.010247452
0.15462303
0.31298518
0.39741866
0.42424721
0.44955531
0.48278549
0.47790912
0.37186856
0.28501277
0.25126871
0.23023949
0.2164951
0.20731351
0.1740927
0.12812221
0.079078238
0.025152772
-0.68747675
-0.42626832
-0.14427872
0.084291468
0.2410608
0.36962127
0.47690533
0.55327798
0.56995697
0.54085891
0.46617874
0.3741495
0.26418303
0.1495779
0.038327301
-0.060116753
-0.13900996
-0.19349758
-0.22178987
-0.22594276
-0.21115887
-0.18267482
-0.14314675
-0.087071864
-0.029400574
0.02275944
0.069116867
0.11026823
0.14662267
0.17861964
0.20664763
0.23109623
0.25228663
0.27054421
0.28600673
0.29878276
0.30913762
0.31642564
0.32210127
-0.66269283
-0.60261979
-0.32060688
-0.049602922
0.068980676
0.12062876
0.10850719
0.054791036
-0.030558322
-0.043122532
0.044102896
0.18283333
0.34299988
0.41683943
0.4453877
0.47039033
0.49641599
0.48213649
0.3898288
0.30984211
0.27140432
0.24560163
0.22455821
0.20484452
0.16952109
0.12446745
0.076706523
0.024246937
-0.46493589
-0.21569431
0.011623597
0.17233779
0.30557071
0.42559265
0.52024618
0.57435496
0.55424588
0.49408624
0.39843303
0.29036299
0.16949196
0.049550737
-0.06163872
-0.15507196
-0.22445146
-0.26594713
-0.28024686
-0.27222163
-0.24729943
-0.20811128
-0.14739536
-0.083408158
-0.025258388
0.026582192
0.072722843
0.11359165
0.14967243
0.18140585
0.2092006
0.23346884
0.25456296
0.2727063
0.28806801
0.3007896
0.31110825
0.31842519
0.32412853
-0.45307494
-0.57258228
-0.46191231
-0.19506105
0.033675601
0.13335958
0.17254058
0.16109341
0.11131294
0.037325719
0.029121801
0.087994199
0.21893879
0.36790318
0.43317288
0.46274454
0.48656563
0.50374728
0.48106441
0.40033492
0.32797436
0.28669656
0.2559619
0.2292236
0.20234144
0.16519744
0.1208464
0.074311141
0.023372224
-0.24311154
-0.049177545
0.10474766
0.23769686
0.36223776
0.47468261
0.5525293
0.57548218
0.51241332
0.42527939
0.31076724
0.18952879
0.060737955
-0.061432685
-0.16943883
-0.25444288
-0.31069663
-0.33701231
-0.33757373
-0.31777568
-0.2799799
-0.21457117
-0.14366939
-0.078935486
-0.021046526
0.03061955
0.076474981
0.11704735
0.1528264
0.18428179
0.21185446
0.23600535
0.25694465
0.27495132
0.29020693
0.30287683
0.31315975
0.3205009
0.32622878
-0.23019383
-0.39336705
-0.43953336
-0.30358827
-0.067344043
0.11569667
0.19965555
0.22956685
0.21667494
0.16955032
0.11027823
0.083863945
0.1444774
0.25452309
0.38719057
0.44619624
0.47539246
0.49621034
0.50464121
0.47552034
0.40439055
0.33967252
0.29642731
0.26221401
0.23124746
0.19958002
0.16105768
0.11730922
0.071936869
0.022553902
-0.090035878
0.044032165
0.16947091
0.29179638
0.41358316
0.51401903
0.56867304
0.55094948
0.44608362
0.33449331
0.20384582
0.072394554
-0.061228602
-0.18248117
-0.28366629
-0.35602363
-0.39622558
-0.40735987
-0.39451981
-0.35944241
-0.28937326
-0.2109106
-0.13891458
-0.074339881
-0.01655131
0.034843496
0.080387886
0.12062223
0.15607669
0.18726558
0.21469906
0.23865421
0.25940698
0.27726909
0.29242342
0.30504418
0.31528402
0.32264666
0.3284002
-0.11151208
-0.20079779
-0.29924016
-0.29013832
-0.14976629
0.048703632
0.19420193
0.26420639
0.28667946
0.27400294
0.22262007
0.16257997
0.14732684
0.19889334
0.29501546
0.40380044
0.45557065
0.4829331
0.49936956
0.49928724
0.46597082
0.40359581
0.34535294
0.30144053
0.26477064
0.23128775
0.19645858
0.15703957
0.11388519
0.069619507
0.021808981
-0.0043059888
0.10502491
0.21866849
0.33989809
0.45749371
0.5395893
0.56194322
0.49952113
0.35605994
0.2223134
0.078426984
-0.060305107
-0.19564376
-0.31233096
-0.40197915
-0.45791521
-0.48171073
-0.47793584
-0.44724886
-0.3726837
-0.28593993
-0.20594591
-0.13395134
-0.069362638
-0.011808534
0.039271854
0.084445123
0.12430675
0.15944734
0.19047586
0.21766698
0.2413825
0.26193699
0.27966135
0.29472055
0.30728139
0.31746325
0.32485757
0.33064762
-0.037187887
-0.11108842
-0.15653066
-0.18893379
-0.14908602
-0.015574554
0.1475817
0.26569142
0.32262665
0.34195614
0.3262641
0.26845871
0.21509106
0.20683075
0.25443465
0.33243823
0.4172333
0.46164264
0.48536075
0.496311
0.48880165
0.45394604
0.39913485
0.34614815
0.30286433
0.26525283
0.22971817
0.1929702
0.15310363
0.11058989
0.067394005
0.021136509
0.048188932
0.14643627
0.25913742
0.38263195
0.48876621
0.5455826
0.52741969
0.4220503
0.24333046
0.089495236
-0.064855868
-0.20802004
-0.34146675
-0.44866995
-0.52212798
-0.56077232
-0.5683898
-0.54415421
-0.46548766
-0.36967791
-0.28086736
-0.20064351
-0.12847013
-0.06404941
-0.0067972547
0.043883749
0.088634992
0.12813219
0.16309236
0.19382586
0.22071507
0.24417372
0.26453881
0.28213563
0.29708571
0.30955837
0.31968697
0.32714136
0.33290564
0.0015242993
-0.055210012
-0.089922197
-0.096351366
-0.080701081
-0.024648799
0.097834512
0.2294529
0.32623805
0.37524774
0.38670728
0.37526899
0.31499779
0.26405386
0.26208722
0.30208106
0.36496323
0.42798862
0.46464881
0.48354789
0.48849586
0.47544101
0.44087371
0.39198702
0.34365149
0.30162324
0.2636627
0.22693267
0.18916694
0.14923712
0.10743945
0.065283457
0.020533062
0.07821763
0.17577217
0.29353552
0.41560379
0.50212173
0.52514173
0.46498918
0.32001147
0.10883763
-0.063474144
-0.22568493
-0.37008776
-0.49661242
-0.58899919
-0.64471774
-0.66628218
-0.65092873
-0.56881064
-0.4631561
-0.36463569
-0.27527006
-0.19463833
-0.12252856
-0.058376418
-0.0015442248
0.048664578
0.092997587