/*--------------------------------*- C++ -*----------------------------------*\
| =========                 |                                                 |
| \\      /  F ield         | OpenFOAM: The Open Source CFD Toolbox           |
|  \\    /   O peration     | Version:  v2012                                 |
|   \\  /    A nd           | Website:  www.openfoam.com                      |
|    \\/     M anipulation  |                                                 |
\*---------------------------------------------------------------------------*/
FoamFile
{
    version     2.0;
    format      ascii;
    class       pointVectorField;
    location    "85.3128071783649489";
    object      pointDisplacement;
}
// * * * * * * * * * * * * * * * * * * * * * * * * * * * * * * * * * * * * * //

dimensions      [0 1 0 0 0 0 0];


internalField   nonuniform List<vector> 
18840
(
(1.2756199 0 0)
(1.2754517 0 0)
(1.274952 0 0)
(1.2741298 0 0)
(1.2729923 0 0)
(1.2715447 0 0)
(1.2697909 0 0)
(1.2677338 0 0)
(1.2653755 0 0)
(1.2627171 0 0)
(1.2597589 0 0)
(1.2565009 0 0)
(1.2529425 0 0)
(1.2490826 0 0)
(1.2449197 0 0)
(1.2404521 0 0)
(1.2356781 0 0)
(1.2305958 0 0)
(1.2252038 0 0)
(1.2195064 0 0)
(1.2123177 0 0)
(1.2756199 0 0)
(1.2754517 0 0)
(1.2749519 0 0)
(1.2741293 0 0)
(1.2729911 0 0)
(1.2715422 0 0)
(1.2697867 0 0)
(1.2677275 0 0)
(1.2653664 0 0)
(1.2627048 0 0)
(1.2597431 0 0)
(1.2564813 0 0)
(1.2529188 0 0)
(1.2490547 0 0)
(1.2448877 0 0)
(1.2404163 0 0)
(1.2356387 0 0)
(1.2305532 0 0)
(1.225158 0 0)
(1.2194542 0 0)
(1.2134402 0 0)
(1.2756199 0 0)
(1.2754514 0 0)
(1.2749508 0 0)
(1.2741267 0 0)
(1.2729861 0 0)
(1.2715341 0 0)
(1.2697745 0 0)
(1.2677103 0 0)
(1.2653434 0 0)
(1.2626752 0 0)
(1.2597061 0 0)
(1.2564363 0 0)
(1.2528653 0 0)
(1.2489923 0 0)
(1.244816 0 0)
(1.2403353 0 0)
(1.235548 0 0)
(1.2304526 0 0)
(1.2250466 0 0)
(1.2193276 0 0)
(1.2132104 0 0)
(1.2756199 0 0)
(1.2754513 0 0)
(1.2749501 0 0)
(1.2741249 0 0)
(1.2729824 0 0)
(1.2715277 0 0)
(1.2697646 0 0)
(1.2676959 0 0)
(1.2653238 0 0)
(1.2626495 0 0)
(1.2596736 0 0)
(1.2563963 0 0)
(1.2528173 0 0)
(1.2489359 0 0)
(1.2447511 0 0)
(1.2402615 0 0)
(1.2354654 0 0)
(1.2303613 0 0)
(1.2249469 0 0)
(1.2192207 0 0)
(1.2130251 0 0)
(1.2756199 0 0)
(1.2754512 0 0)
(1.2749497 0 0)
(1.2741236 0 0)
(1.2729796 0 0)
(1.2715227 0 0)
(1.2697564 0 0)
(1.2676838 0 0)
(1.2653068 0 0)
(1.2626268 0 0)
(1.2596444 0 0)
(1.25636 0 0)
(1.2527732 0 0)
(1.2488836 0 0)
(1.2446902 0 0)
(1.240192 0 0)
(1.2353876 0 0)
(1.2302755 0 0)
(1.224854 0 0)
(1.2191223 0 0)
(1.2128586 0 0)
(1.2756199 0 0)
(1.2754512 0 0)
(1.2749496 0 0)
(1.2741229 0 0)
(1.2729778 0 0)
(1.2715189 0 0)
(1.2697499 0 0)
(1.2676736 0 0)
(1.265292 0 0)
(1.2626065 0 0)
(1.2596177 0 0)
(1.2563261 0 0)
(1.2527315 0 0)
(1.2488336 0 0)
(1.2446315 0 0)
(1.2401244 0 0)
(1.2353112 0 0)
(1.2301907 0 0)
(1.2247618 0 0)
(1.2190241 0 0)
(1.2127002 0 0)
(1.2756199 0 0)
(1.2754513 0 0)
(1.2749497 0 0)
(1.2741228 0 0)
(1.2729767 0 0)
(1.2715163 0 0)
(1.2697448 0 0)
(1.2676652 0 0)
(1.2652791 0 0)
(1.2625882 0 0)
(1.2595931 0 0)
(1.2562942 0 0)
(1.2526914 0 0)
(1.2487847 0 0)
(1.2445732 0 0)
(1.2400564 0 0)
(1.2352333 0 0)
(1.2301033 0 0)
(1.2246652 0 0)
(1.2189195 0 0)
(1.212542 0 0)
(1.2756199 0 0)
(1.2754514 0 0)
(1.2749501 0 0)
(1.2741232 0 0)
(1.2729764 0 0)
(1.2715147 0 0)
(1.269741 0 0)
(1.2676582 0 0)
(1.265268 0 0)
(1.2625718 0 0)
(1.2595702 0 0)
(1.2562639 0 0)
(1.2526526 0 0)
(1.2487364 0 0)
(1.2445147 0 0)
(1.239987 0 0)
(1.2351525 0 0)
(1.2300108 0 0)
(1.2245613 0 0)
(1.2188042 0 0)
(1.212379 0 0)
(1.2756199 0 0)
(1.2754516 0 0)
(1.2749506 0 0)
(1.2741238 0 0)
(1.2729767 0 0)
(1.2715137 0 0)
(1.2697381 0 0)
(1.2676524 0 0)
(1.2652583 0 0)
(1.2625568 0 0)
(1.259549 0 0)
(1.2562349 0 0)
(1.2526148 0 0)
(1.2486885 0 0)
(1.2444556 0 0)
(1.2399157 0 0)
(1.2350681 0 0)
(1.2299125 0 0)
(1.2244485 0 0)
(1.2186762 0 0)
(1.212209 0 0)
(1.2756199 0 0)
(1.2754518 0 0)
(1.2749513 0 0)
(1.2741247 0 0)
(1.2729773 0 0)
(1.2715133 0 0)
(1.269736 0 0)
(1.2676476 0 0)
(1.2652496 0 0)
(1.2625432 0 0)
(1.2595289 0 0)
(1.2562071 0 0)
(1.2525778 0 0)
(1.2486407 0 0)
(1.2443957 0 0)
(1.2398421 0 0)
(1.2349796 0 0)
(1.2298076 0 0)
(1.224326 0 0)
(1.2185347 0 0)
(1.2120309 0 0)
(1.2756199 0 0)
(1.2754518 0 0)
(1.2749507 0 0)
(1.2741229 0 0)
(1.2729733 0 0)
(1.271506 0 0)
(1.269724 0 0)
(1.2676295 0 0)
(1.2652239 0 0)
(1.2625082 0 0)
(1.2594828 0 0)
(1.2561479 0 0)
(1.2525035 0 0)
(1.2485494 0 0)
(1.2442851 0 0)
(1.2397102 0 0)
(1.2348243 0 0)
(1.2296268 0 0)
(1.2241176 0 0)
(1.2182962 0 0)
(1.2117566 0 0)
(1.2756199 0 0)
(1.2754517 0 0)
(1.274952 0 0)
(1.2741298 0 0)
(1.2729923 0 0)
(1.2715447 0 0)
(1.2697909 0 0)
(1.2677338 0 0)
(1.2653755 0 0)
(1.2627171 0 0)
(1.2597589 0 0)
(1.2565009 0 0)
(1.2529425 0 0)
(1.2490826 0 0)
(1.2449197 0 0)
(1.2404521 0 0)
(1.2356781 0 0)
(1.2305958 0 0)
(1.2252038 0 0)
(1.2195064 0 0)
(1.2123177 0 0)
(1.2756199 0 0)
(1.2754517 0 0)
(1.2749519 0 0)
(1.2741293 0 0)
(1.2729911 0 0)
(1.2715422 0 0)
(1.2697867 0 0)
(1.2677275 0 0)
(1.2653664 0 0)
(1.2627048 0 0)
(1.2597431 0 0)
(1.2564813 0 0)
(1.2529188 0 0)
(1.2490547 0 0)
(1.2448877 0 0)
(1.2404163 0 0)
(1.2356387 0 0)
(1.2305532 0 0)
(1.225158 0 0)
(1.2194542 0 0)
(1.2134402 0 0)
(1.2756199 0 0)
(1.2754514 0 0)
(1.2749508 0 0)
(1.2741267 0 0)
(1.2729861 0 0)
(1.2715341 0 0)
(1.2697745 0 0)
(1.2677103 0 0)
(1.2653434 0 0)
(1.2626752 0 0)
(1.2597061 0 0)
(1.2564363 0 0)
(1.2528653 0 0)
(1.2489923 0 0)
(1.244816 0 0)
(1.2403353 0 0)
(1.235548 0 0)
(1.2304526 0 0)
(1.2250466 0 0)
(1.2193276 0 0)
(1.2132104 0 0)
(1.2756199 0 0)
(1.2754513 0 0)
(1.2749501 0 0)
(1.2741249 0 0)
(1.2729824 0 0)
(1.2715277 0 0)
(1.2697646 0 0)
(1.2676959 0 0)
(1.2653238 0 0)
(1.2626495 0 0)
(1.2596736 0 0)
(1.2563963 0 0)
(1.2528173 0 0)
(1.2489359 0 0)
(1.2447511 0 0)
(1.2402615 0 0)
(1.2354654 0 0)
(1.2303613 0 0)
(1.2249469 0 0)
(1.2192207 0 0)
(1.2130251 0 0)
(1.2756199 0 0)
(1.2754512 0 0)
(1.2749497 0 0)
(1.2741236 0 0)
(1.2729796 0 0)
(1.2715227 0 0)
(1.2697564 0 0)
(1.2676838 0 0)
(1.2653068 0 0)
(1.2626268 0 0)
(1.2596444 0 0)
(1.25636 0 0)
(1.2527732 0 0)
(1.2488836 0 0)
(1.2446902 0 0)
(1.240192 0 0)
(1.2353876 0 0)
(1.2302755 0 0)
(1.224854 0 0)
(1.2191223 0 0)
(1.2128586 0 0)
(1.2756199 0 0)
(1.2754512 0 0)
(1.2749496 0 0)
(1.2741229 0 0)
(1.2729778 0 0)
(1.2715189 0 0)
(1.2697499 0 0)
(1.2676736 0 0)
(1.265292 0 0)
(1.2626065 0 0)
(1.2596177 0 0)
(1.2563261 0 0)
(1.2527315 0 0)
(1.2488336 0 0)
(1.2446315 0 0)
(1.2401244 0 0)
(1.2353112 0 0)
(1.2301907 0 0)
(1.2247618 0 0)
(1.2190241 0 0)
(1.2127002 0 0)
(1.2756199 0 0)
(1.2754513 0 0)
(1.2749497 0 0)
(1.2741228 0 0)
(1.2729767 0 0)
(1.2715163 0 0)
(1.2697448 0 0)
(1.2676652 0 0)
(1.2652791 0 0)
(1.2625882 0 0)
(1.2595931 0 0)
(1.2562942 0 0)
(1.2526914 0 0)
(1.2487847 0 0)
(1.2445732 0 0)
(1.2400564 0 0)
(1.2352333 0 0)
(1.2301033 0 0)
(1.2246652 0 0)
(1.2189195 0 0)
(1.212542 0 0)
(1.2756199 0 0)
(1.2754514 0 0)
(1.2749501 0 0)
(1.2741232 0 0)
(1.2729764 0 0)
(1.2715147 0 0)
(1.269741 0 0)
(1.2676582 0 0)
(1.265268 0 0)
(1.2625718 0 0)
(1.2595702 0 0)
(1.2562639 0 0)
(1.2526526 0 0)
(1.2487364 0 0)
(1.2445147 0 0)
(1.239987 0 0)
(1.2351525 0 0)
(1.2300108 0 0)
(1.2245613 0 0)
(1.2188042 0 0)
(1.212379 0 0)
(1.2756199 0 0)
(1.2754516 0 0)
(1.2749506 0 0)
(1.2741238 0 0)
(1.2729767 0 0)
(1.2715137 0 0)
(1.2697381 0 0)
(1.2676524 0 0)
(1.2652583 0 0)
(1.2625568 0 0)
(1.259549 0 0)
(1.2562349 0 0)
(1.2526148 0 0)
(1.2486885 0 0)
(1.2444556 0 0)
(1.2399157 0 0)
(1.2350681 0 0)
(1.2299125 0 0)
(1.2244485 0 0)
(1.2186762 0 0)
(1.212209 0 0)
(1.2756199 0 0)
(1.2754518 0 0)
(1.2749513 0 0)
(1.2741247 0 0)
(1.2729773 0 0)
(1.2715133 0 0)
(1.269736 0 0)
(1.2676476 0 0)
(1.2652496 0 0)
(1.2625432 0 0)
(1.2595289 0 0)
(1.2562071 0 0)
(1.2525778 0 0)
(1.2486407 0 0)
(1.2443957 0 0)
(1.2398421 0 0)
(1.2349796 0 0)
(1.2298076 0 0)
(1.224326 0 0)
(1.2185347 0 0)
(1.2120309 0 0)
(1.2756199 0 0)
(1.2754518 0 0)
(1.2749507 0 0)
(1.2741229 0 0)
(1.2729733 0 0)
(1.271506 0 0)
(1.269724 0 0)
(1.2676295 0 0)
(1.2652239 0 0)
(1.2625082 0 0)
(1.2594828 0 0)
(1.2561479 0 0)
(1.2525035 0 0)
(1.2485494 0 0)
(1.2442851 0 0)
(1.2397102 0 0)
(1.2348243 0 0)
(1.2296268 0 0)
(1.2241176 0 0)
(1.2182962 0 0)
(1.2117566 0 0)
(1.2756199 0 0)
(1.2754488 0 0)
(1.274941 0 0)
(1.2741066 0 0)
(1.2729532 0 0)
(1.2714869 0 0)
(1.2697123 0 0)
(1.2676326 0 0)
(1.26525 0 0)
(1.2625657 0 0)
(1.2595802 0 0)
(1.2562933 0 0)
(1.2527043 0 0)
(1.2488119 0 0)
(1.2446146 0 0)
(1.2401101 0 0)
(1.235296 0 0)
(1.2301696 0 0)
(1.2247279 0 0)
(1.2189734 0 0)
(1.2123804 0 0)
(1.2756199 0 0)
(1.2754488 0 0)
(1.2749412 0 0)
(1.274107 0 0)
(1.272954 0 0)
(1.2714882 0 0)
(1.2697143 0 0)
(1.2676354 0 0)
(1.2652537 0 0)
(1.2625704 0 0)
(1.2595861 0 0)
(1.2563005 0 0)
(1.2527129 0 0)
(1.248822 0 0)
(1.2446261 0 0)
(1.240123 0 0)
(1.2353103 0 0)
(1.2301851 0 0)
(1.2247443 0 0)
(1.2189904 0 0)
(1.2124033 0 0)
(1.2756199 0 0)
(1.2754487 0 0)
(1.2749406 0 0)
(1.2741057 0 0)
(1.2729519 0 0)
(1.2714851 0 0)
(1.26971 0 0)
(1.2676297 0 0)
(1.2652465 0 0)
(1.2625616 0 0)
(1.2595756 0 0)
(1.2562881 0 0)
(1.2526985 0 0)
(1.2488055 0 0)
(1.2446072 0 0)
(1.2401015 0 0)
(1.2352859 0 0)
(1.2301573 0 0)
(1.2247128 0 0)
(1.2189544 0 0)
(1.2123813 0 0)
(1.2756199 0 0)
(1.2754486 0 0)
(1.2749405 0 0)
(1.2741057 0 0)
(1.2729518 0 0)
(1.271485 0 0)
(1.2697099 0 0)
(1.2676296 0 0)
(1.2652464 0 0)
(1.2625614 0 0)
(1.2595753 0 0)
(1.2562877 0 0)
(1.2526979 0 0)
(1.2488046 0 0)
(1.244606 0 0)
(1.2400997 0 0)
(1.2352833 0 0)
(1.2301537 0 0)
(1.2247078 0 0)
(1.2189471 0 0)
(1.2124011 0 0)
(1.2756199 0 0)
(1.2754488 0 0)
(1.274941 0 0)
(1.2741067 0 0)
(1.2729536 0 0)
(1.2714878 0 0)
(1.2697137 0 0)
(1.2676346 0 0)
(1.2652525 0 0)
(1.2625689 0 0)
(1.259584 0 0)
(1.2562979 0 0)
(1.2527094 0 0)
(1.2488176 0 0)
(1.2446203 0 0)
(1.2401154 0 0)
(1.2353001 0 0)
(1.2301716 0 0)
(1.2247263 0 0)
(1.2189653 0 0)
(1.2124593 0 0)
(1.2756199 0 0)
(1.275449 0 0)
(1.2749419 0 0)
(1.2741086 0 0)
(1.272957 0 0)
(1.271493 0 0)
(1.2697208 0 0)
(1.2676438 0 0)
(1.2652639 0 0)
(1.2625827 0 0)
(1.2596003 0 0)
(1.2563168 0 0)
(1.252731 0 0)
(1.2488419 0 0)
(1.2446474 0 0)
(1.2401454 0 0)
(1.2353328 0 0)
(1.230207 0 0)
(1.2247643 0 0)
(1.2190049 0 0)
(1.2125516 0 0)
(1.2756199 0 0)
(1.2754494 0 0)
(1.2749433 0 0)
(1.2741115 0 0)
(1.272962 0 0)
(1.2715003 0 0)
(1.2697308 0 0)
(1.2676566 0 0)
(1.2652798 0 0)
(1.2626018 0 0)
(1.2596229 0 0)
(1.2563428 0 0)
(1.2527608 0 0)
(1.2488756 0 0)
(1.2446851 0 0)
(1.2401871 0 0)
(1.2353789 0 0)
(1.2302575 0 0)
(1.2248191 0 0)
(1.2190634 0 0)
(1.2126754 0 0)
(1.2756199 0 0)
(1.2754498 0 0)
(1.2749451 0 0)
(1.2741154 0 0)
(1.2729683 0 0)
(1.2715097 0 0)
(1.2697435 0 0)
(1.267673 0 0)
(1.2653002 0 0)
(1.2626263 0 0)
(1.2596518 0 0)
(1.2563764 0 0)
(1.2527993 0 0)
(1.2489192 0 0)
(1.2447341 0 0)
(1.240242 0 0)
(1.2354401 0 0)
(1.2303253 0 0)
(1.224894 0 0)
(1.2191449 0 0)
(1.212835 0 0)
(1.2756199 0 0)
(1.2754504 0 0)
(1.2749473 0 0)
(1.2741201 0 0)
(1.2729762 0 0)
(1.2715212 0 0)
(1.2697592 0 0)
(1.2676932 0 0)
(1.2653253 0 0)
(1.2626567 0 0)
(1.2596877 0 0)
(1.2564182 0 0)
(1.2528473 0 0)
(1.2489739 0 0)
(1.2447961 0 0)
(1.2403119 0 0)
(1.2355186 0 0)
(1.2304135 0 0)
(1.2249931 0 0)
(1.2192554 0 0)
(1.2130377 0 0)
(1.2756199 0 0)
(1.2754511 0 0)
(1.27495 0 0)
(1.2741257 0 0)
(1.2729856 0 0)
(1.271535 0 0)
(1.269778 0 0)
(1.2677175 0 0)
(1.2653555 0 0)
(1.2626932 0 0)
(1.2597309 0 0)
(1.2564686 0 0)
(1.2529054 0 0)
(1.2490403 0 0)
(1.2448715 0 0)
(1.2403972 0 0)
(1.2356152 0 0)
(1.2305231 0 0)
(1.2251186 0 0)
(1.2194021 0 0)
(1.2133051 0 0)
(1.2756199 0 0)
(1.2754488 0 0)
(1.274941 0 0)
(1.2741066 0 0)
(1.2729532 0 0)
(1.2714869 0 0)
(1.2697123 0 0)
(1.2676326 0 0)
(1.26525 0 0)
(1.2625657 0 0)
(1.2595802 0 0)
(1.2562933 0 0)
(1.2527043 0 0)
(1.2488119 0 0)
(1.2446146 0 0)
(1.2401101 0 0)
(1.235296 0 0)
(1.2301696 0 0)
(1.2247279 0 0)
(1.2189734 0 0)
(1.2123804 0 0)
(1.2756199 0 0)
(1.2754488 0 0)
(1.2749412 0 0)
(1.274107 0 0)
(1.272954 0 0)
(1.2714882 0 0)
(1.2697143 0 0)
(1.2676354 0 0)
(1.2652537 0 0)
(1.2625704 0 0)
(1.2595861 0 0)
(1.2563005 0 0)
(1.2527129 0 0)
(1.248822 0 0)
(1.2446261 0 0)
(1.240123 0 0)
(1.2353103 0 0)
(1.2301851 0 0)
(1.2247443 0 0)
(1.2189904 0 0)
(1.2124033 0 0)
(1.2756199 0 0)
(1.2754487 0 0)
(1.2749406 0 0)
(1.2741057 0 0)
(1.2729519 0 0)
(1.2714851 0 0)
(1.26971 0 0)
(1.2676297 0 0)
(1.2652465 0 0)
(1.2625616 0 0)
(1.2595756 0 0)
(1.2562881 0 0)
(1.2526985 0 0)
(1.2488055 0 0)
(1.2446072 0 0)
(1.2401015 0 0)
(1.2352859 0 0)
(1.2301573 0 0)
(1.2247128 0 0)
(1.2189544 0 0)
(1.2123813 0 0)
(1.2756199 0 0)
(1.2754486 0 0)
(1.2749405 0 0)
(1.2741057 0 0)
(1.2729518 0 0)
(1.271485 0 0)
(1.2697099 0 0)
(1.2676296 0 0)
(1.2652464 0 0)
(1.2625614 0 0)
(1.2595753 0 0)
(1.2562877 0 0)
(1.2526979 0 0)
(1.2488046 0 0)
(1.244606 0 0)
(1.2400997 0 0)
(1.2352833 0 0)
(1.2301537 0 0)
(1.2247078 0 0)
(1.2189471 0 0)
(1.2124011 0 0)
(1.2756199 0 0)
(1.2754488 0 0)
(1.274941 0 0)
(1.2741067 0 0)
(1.2729536 0 0)
(1.2714878 0 0)
(1.2697137 0 0)
(1.2676346 0 0)
(1.2652525 0 0)
(1.2625689 0 0)
(1.259584 0 0)
(1.2562979 0 0)
(1.2527094 0 0)
(1.2488176 0 0)
(1.2446203 0 0)
(1.2401154 0 0)
(1.2353001 0 0)
(1.2301716 0 0)
(1.2247263 0 0)
(1.2189653 0 0)
(1.2124593 0 0)
(1.2756199 0 0)
(1.275449 0 0)
(1.2749419 0 0)
(1.2741086 0 0)
(1.272957 0 0)
(1.271493 0 0)
(1.2697208 0 0)
(1.2676438 0 0)
(1.2652639 0 0)
(1.2625827 0 0)
(1.2596003 0 0)
(1.2563168 0 0)
(1.252731 0 0)
(1.2488419 0 0)
(1.2446474 0 0)
(1.2401454 0 0)
(1.2353328 0 0)
(1.230207 0 0)
(1.2247643 0 0)
(1.2190049 0 0)
(1.2125516 0 0)
(1.2756199 0 0)
(1.2754494 0 0)
(1.2749433 0 0)
(1.2741115 0 0)
(1.272962 0 0)
(1.2715003 0 0)
(1.2697308 0 0)
(1.2676566 0 0)
(1.2652798 0 0)
(1.2626018 0 0)
(1.2596229 0 0)
(1.2563428 0 0)
(1.2527608 0 0)
(1.2488756 0 0)
(1.2446851 0 0)
(1.2401871 0 0)
(1.2353789 0 0)
(1.2302575 0 0)
(1.2248191 0 0)
(1.2190634 0 0)
(1.2126754 0 0)
(1.2756199 0 0)
(1.2754498 0 0)
(1.2749451 0 0)
(1.2741154 0 0)
(1.2729683 0 0)
(1.2715097 0 0)
(1.2697435 0 0)
(1.267673 0 0)
(1.2653002 0 0)
(1.2626263 0 0)
(1.2596518 0 0)
(1.2563764 0 0)
(1.2527993 0 0)
(1.2489192 0 0)
(1.2447341 0 0)
(1.240242 0 0)
(1.2354401 0 0)
(1.2303253 0 0)
(1.224894 0 0)
(1.2191449 0 0)
(1.212835 0 0)
(1.2756199 0 0)
(1.2754504 0 0)
(1.2749473 0 0)
(1.2741201 0 0)
(1.2729762 0 0)
(1.2715212 0 0)
(1.2697592 0 0)
(1.2676932 0 0)
(1.2653253 0 0)
(1.2626567 0 0)
(1.2596877 0 0)
(1.2564182 0 0)
(1.2528473 0 0)
(1.2489739 0 0)
(1.2447961 0 0)
(1.2403119 0 0)
(1.2355186 0 0)
(1.2304135 0 0)
(1.2249931 0 0)
(1.2192554 0 0)
(1.2130377 0 0)
(1.2756199 0 0)
(1.2754511 0 0)
(1.27495 0 0)
(1.2741257 0 0)
(1.2729856 0 0)
(1.271535 0 0)
(1.269778 0 0)
(1.2677175 0 0)
(1.2653555 0 0)
(1.2626932 0 0)
(1.2597309 0 0)
(1.2564686 0 0)
(1.2529054 0 0)
(1.2490403 0 0)
(1.2448715 0 0)
(1.2403972 0 0)
(1.2356152 0 0)
(1.2305231 0 0)
(1.2251186 0 0)
(1.2194021 0 0)
(1.2133051 0 0)
(1.2042749 0 0)
(1.1951501 0 0)
(1.185534 0 0)
(1.1754264 0 0)
(1.1648344 0 0)
(1.1537653 0 0)
(1.1422274 0 0)
(1.1302296 0 0)
(1.1177809 0 0)
(1.1048866 0 0)
(1.0915503 0 0)
(1.0777774 0 0)
(1.0635764 0 0)
(1.0489537 0 0)
(1.0339132 0 0)
(1.0184573 0 0)
(1.0025812 0 0)
(0.98628049 0 0)
(0.96955056 0 0)
(0.95238235 0 0)
(0.93475854 0 0)
(0.91666287 0 0)
(0.89808277 0 0)
(0.87900103 0 0)
(0.85938088 0 0)
(0.83917999 0 0)
(0.81837401 0 0)
(0.79693828 0 0)
(0.77484458 0 0)
(0.75203204 0 0)
(0.72844367 0 0)
(0.70405469 0 0)
(0.67881372 0 0)
(0.65261037 0 0)
(0.62535575 0 0)
(0.59703026 0 0)
(0.56755259 0 0)
(0.53675256 0 0)
(0.50446658 0 0)
(0.47060111 0 0)
(0.43515052 0 0)
(0.39787847 0 0)
(0.35840546 0 0)
(0.31654126 0 0)
(0.2721157 0 0)
(0.22482024 0 0)
(0.17430372 0 0)
(0.12026826 0 0)
(0.062264397 0 0)
(0 0 0)
(1.2043161 0 0)
(1.1952148 0 0)
(1.1856202 0 0)
(1.1755318 0 0)
(1.1649565 0 0)
(1.1539014 0 0)
(1.1423745 0 0)
(1.1303846 0 0)
(1.1179399 0 0)
(1.1050458 0 0)
(1.0917067 0 0)
(1.0779293 0 0)
(1.0637224 0 0)
(1.0490922 0 0)
(1.0340426 0 0)
(1.0185768 0 0)
(1.0026913 0 0)
(0.98638136 0 0)
(0.96964246 0 0)
(0.95246565 0 0)
(0.93483367 0 0)
(0.91672942 0 0)
(0.89814076 0 0)
(0.87905144 0 0)
(0.85942479 0 0)
(0.83921684 0 0)
(0.81840208 0 0)
(0.79695933 0 0)
(0.77486001 0 0)
(0.75204269 0 0)
(0.72844961 0 0)
(0.7040564 0 0)
(0.67881228 0 0)
(0.65260688 0 0)
(0.62535076 0 0)
(0.59702468 0 0)
(0.56754726 0 0)
(0.53674573 0 0)
(0.50445946 0 0)
(0.47059329 0 0)
(0.43514295 0 0)
(0.39787462 0 0)
(0.358406 0 0)
(0.31654604 0 0)
(0.27212411 0 0)
(0.2248315 0 0)
(0.17431394 0 0)
(0.1202741 0 0)
(0.062266381 0 0)
(0 0 0)
(1.2043455 0 0)
(1.1953114 0 0)
(1.1857794 0 0)
(1.1757488 0 0)
(1.1652259 0 0)
(1.1542175 0 0)
(1.1427316 0 0)
(1.1307766 0 0)
(1.1183601 0 0)
(1.105488 0 0)
(1.092166 0 0)
(1.0784017 0 0)
(1.0642038 0 0)
(1.049579 0 0)
(1.0345317 0 0)
(1.019065 0 0)
(1.003177 0 0)
(0.98686362 0 0)
(0.97011985 0 0)
(0.95293679 0 0)
(0.93529765 0 0)
(0.91718523 0 0)
(0.89858747 0 0)
(0.87948862 0 0)
(0.85985279 0 0)
(0.83963498 0 0)
(0.81880736 0 0)
(0.79735236 0 0)
(0.77524233 0 0)
(0.7524144 0 0)
(0.72880926 0 0)
(0.70440381 0 0)
(0.67914881 0 0)
(0.65293276 0 0)
(0.62566478 0 0)
(0.59732718 0 0)
(0.56783927 0 0)
(0.53702408 0 0)
(0.50472404 0 0)
(0.4708433 0 0)
(0.43537705 0 0)
(0.39809339 0 0)
(0.3586087 0 0)
(0.31673157 0 0)
(0.27229088 0 0)
(0.22497619 0 0)
(0.17442907 0 0)
(0.12035327 0 0)
(0.06230657 0 0)
(0 0 0)
(1.2044518 0 0)
(1.195529 0 0)
(1.186101 0 0)
(1.1761665 0 0)
(1.1657313 0 0)
(1.1548018 0 0)
(1.1433857 0 0)
(1.1314911 0 0)
(1.1191256 0 0)
(1.1062959 0 0)
(1.0930092 0 0)
(1.0792738 0 0)
(1.0650986 0 0)
(1.0504903 0 0)
(1.0354542 0 0)
(1.0199938 0 0)
(1.0041081 0 0)
(0.98779419 0 0)
(0.97104719 0 0)
(0.95385797 0 0)
(0.93621028 0 0)
(0.9180872 0 0)
(0.89947717 0 0)
(0.88036477 0 0)
(0.86071477 0 0)
(0.84048121 0 0)
(0.81963467 0 0)
(0.79816051 0 0)
(0.77603172 0 0)
(0.75318472 0 0)
(0.7295585 0 0)
(0.70513102 0 0)
(0.67985448 0 0)
(0.65361652 0 0)
(0.62632493 0 0)
(0.5979633 0 0)
(0.56845138 0 0)
(0.53760852 0 0)
(0.50527984 0 0)
(0.47136835 0 0)
(0.43586791 0 0)
(0.39854849 0 0)
(0.3590258 0 0)
(0.31710811 0 0)
(0.27262412 0 0)
(0.22526074 0 0)
(0.17465426 0 0)
(0.12050915 0 0)
(0.062386631 0 0)
(0 0 0)
(1.2046308 0 0)
(1.1958629 0 0)
(1.1865798 0 0)
(1.1767798 0 0)
(1.1664675 0 0)
(1.1556489 0 0)
(1.1443311 0 0)
(1.1325226 0 0)
(1.1202312 0 0)
(1.1074651 0 0)
(1.0942326 0 0)
(1.0805427 0 0)
(1.0664038 0 0)
(1.0518235 0 0)
(1.0368077 0 0)
(1.0213605 0 0)
(1.0054822 0 0)
(0.98917083 0 0)
(0.97242205 0 0)
(0.95522653 0 0)
(0.93756884 0 0)
(0.91943269 0 0)
(0.90080686 0 0)
(0.88167645 0 0)
(0.86200701 0 0)
(0.84175204 0 0)
(0.82088017 0 0)
(0.79937972 0 0)
(0.77722475 0 0)
(0.75435007 0 0)
(0.73069312 0 0)
(0.7062336 0 0)
(0.6809254 0 0)
(0.65465437 0 0)
(0.62732684 0 0)
(0.59892847 0 0)
(0.5693795 0 0)
(0.53849486 0 0)
(0.50612225 0 0)
(0.47216448 0 0)
(0.43661219 0 0)
(0.39923638 0 0)
(0.35965382 0 0)
(0.31767282 0 0)
(0.27312147 0 0)
(0.22568294 0 0)
(0.17498759 0 0)
(0.12074048 0 0)
(0.062506 0 0)
(0 0 0)
(1.2048775 0 0)
(1.1963076 0 0)
(1.1872099 0 0)
(1.1775823 0 0)
(1.1674279 0 0)
(1.1567523 0 0)
(1.1455623 0 0)
(1.1338665 0 0)
(1.1216734 0 0)
(1.1089927 0 0)
(1.0958344 0 0)
(1.082207 0 0)
(1.0681184 0 0)
(1.0535774 0 0)
(1.0385912 0 0)
(1.023164 0 0)
(1.0072976 0 0)
(0.99099174 0 0)
(0.9742425 0 0)
(0.95704042 0 0)
(0.93937081 0 0)
(0.9212185 0 0)
(0.90257305 0 0)
(0.88342011 0 0)
(0.86372553 0 0)
(0.84344266 0 0)
(0.82253938 0 0)
(0.80100552 0 0)
(0.77881609 0 0)
(0.75590494 0 0)
(0.73220811 0 0)
(0.70770659 0 0)
(0.68235569 0 0)
(0.65604028 0 0)
(0.62866523 0 0)
(0.60021753 0 0)
(0.57061769 0 0)
(0.53967747 0 0)
(0.50724618 0 0)
(0.47322603 0 0)
(0.43760431 0 0)
(0.40015257 0 0)
(0.3604888 0 0)
(0.31842179 0 0)
(0.27377916 0 0)
(0.22623973 0 0)
(0.17542674 0 0)
(0.1210456 0 0)
(0.0626638 0 0)
(0 0 0)
(1.205189 0 0)
(1.1968588 0 0)
(1.1879863 0 0)
(1.1785681 0 0)
(1.1686066 0 0)
(1.1581067 0 0)
(1.1470753 0 0)
(1.1355201 0 0)
(1.1234502 0 0)
(1.110877 0 0)
(1.0978132 0 0)
(1.0842664 0 0)
(1.0702424 0 0)
(1.0557516 0 0)
(1.0408035 0 0)
(1.025403 0 0)
(1.0095531 0 0)
(0.9932553 0 0)
(0.97650646 0 0)
(0.95929708 0 0)
(0.94161346 0 0)
(0.92344148 0 0)
(0.90477169 0 0)
(0.885591 0 0)
(0.86586558 0 0)
(0.84554813 0 0)
(0.82460628 0 0)
(0.80303186 0 0)
(0.78080005 0 0)
(0.75784312 0 0)
(0.7340966 0 0)
(0.70954306 0 0)
(0.68413886 0 0)
(0.65776758 0 0)
(0.6303328 0 0)
(0.60182312 0 0)
(0.57215905 0 0)
(0.54114905 0 0)
(0.50864435 0 0)
(0.47454649 0 0)
(0.43883828 0 0)
(0.40129087 0 0)
(0.36152496 0 0)
(0.31935009 0 0)
(0.27459297 0 0)
(0.22692716 0 0)
(0.1759685 0 0)
(0.12142241 0 0)
(0.06285894 0 0)
(0 0 0)
(1.2055679 0 0)
(1.1975178 0 0)
(1.1889091 0 0)
(1.1797366 0 0)
(1.1700021 0 0)
(1.1597105 0 0)
(1.1488688 0 0)
(1.1374836 0 0)
(1.1255616 0 0)
(1.1131178 0 0)
(1.1001702 0 0)
(1.0867225 0 0)
(1.0727758 0 0)
(1.0583452 0 0)
(1.0434438 0 0)
(1.0280764 0 0)
(1.0122469 0 0)
(0.99595942 0 0)
(0.97921182 0 0)
(0.96199383 0 0)
(0.94429316 0 0)
(0.92609747 0 0)
(0.90739826 0 0)
(0.88818406 0 0)
(0.86842131 0 0)
(0.84806206 0 0)
(0.82707455 0 0)
(0.80545172 0 0)
(0.78316883 0 0)
(0.76015699 0 0)
(0.73635124 0 0)
(0.7117353 0 0)
(0.68626636 0 0)
(0.65982766 0 0)
(0.63232159 0 0)
(0.60373723 0 0)
(0.57399495 0 0)
(0.54290131 0 0)
(0.51030897 0 0)
(0.47611781 0 0)
(0.44030588 0 0)
(0.40264422 0 0)
(0.36275616 0 0)
(0.32045195 0 0)
(0.27555733 0 0)
(0.22774062 0 0)
(0.17660939 0 0)
(0.12186839 0 0)
(0.063090031 0 0)
(0 0 0)
(1.2060213 0 0)
(1.1982902 0 0)
(1.1899823 0 0)
(1.1810906 0 0)
(1.1716158 0 0)
(1.1615649 0 0)
(1.1509464 0 0)
(1.1397619 0 0)
(1.1280161 0 0)
(1.1157252 0 0)
(1.1029086 0 0)
(1.089572 0 0)
(1.0757175 0 0)
(1.0613598 0 0)
(1.0465138 0 0)
(1.0311855 0 0)
(1.0153795 0 0)
(0.9991037 0 0)
(0.98235693 0 0)
(0.96512724 0 0)
(0.94740574 0 0)
(0.92918188 0 0)
(0.91044724 0 0)
(0.89119282 0 0)
(0.87138573 0 0)
(0.85097714 0 0)
(0.82993589 0 0)
(0.80825662 0 0)
(0.78591399 0 0)
(0.7628377 0 0)
(0.7389627 0 0)
(0.71427379 0 0)
(0.68872883 0 0)
(0.66221098 0 0)
(0.63462175 0 0)
(0.60594998 0 0)
(0.57611577 0 0)
(0.54492439 0 0)
(0.51223028 0 0)
(0.47793111 0 0)
(0.44199885 0 0)
(0.40420411 0 0)
(0.36417454 0 0)
(0.3217207 0 0)
(0.27666657 0 0)
(0.22867492 0 0)
(0.17734513 0 0)
(0.12238059 0 0)
(0.063355585 0 0)
(0 0 0)
(1.2065813 0 0)
(1.1992093 0 0)
(1.1912392 0 0)
(1.1826628 0 0)
(1.1734833 0 0)
(1.16371 0 0)
(1.1533456 0 0)
(1.1423884 0 0)
(1.130845 0 0)
(1.1187286 0 0)
(1.1060565 0 0)
(1.092844 0 0)
(1.0790964 0 0)
(1.0648232 0 0)
(1.0500403 0 0)
(1.034755 0 0)
(1.0189717 0 0)
(1.0027037 0 0)
(0.98595323 0 0)
(0.96870872 0 0)
(0.95096311 0 0)
(0.93270478 0 0)
(0.913926 0 0)
(0.8946224 0 0)
(0.87476197 0 0)
(0.85429489 0 0)
(0.83319108 0 0)
(0.81144594 0 0)
(0.78903329 0 0)
(0.7658819 0 0)
(0.74192725 0 0)
(0.71715404 0 0)
(0.69152029 0 0)
(0.66491113 0 0)
(0.63722713 0 0)
(0.60845473 0 0)
(0.5785138 0 0)
(0.54721072 0 0)
(0.51440104 0 0)
(0.47997872 0 0)
(0.44390908 0 0)
(0.4059632 0 0)
(0.36577362 0 0)
(0.32315036 0 0)
(0.27791496 0 0)
(0.22972513 0 0)
(0.17817183 0 0)
(0.12295624 0 0)
(0.063654049 0 0)
(0 0 0)
(1.2055673 0 0)
(1.198543 0 0)
(1.1909082 0 0)
(1.1826546 0 0)
(1.1737893 0 0)
(1.1643156 0 0)
(1.1542265 0 0)
(1.1435239 0 0)
(1.132219 0 0)
(1.1203194 0 0)
(1.1078393 0 0)
(1.0947983 0 0)
(1.0812033 0 0)
(1.0670622 0 0)
(1.0523908 0 0)
(1.0371973 0 0)
(1.0214881 0 0)
(1.0052787 0 0)
(0.98857418 0 0)
(0.97136614 0 0)
(0.95364493 0 0)
(0.93539728 0 0)
(0.91662052 0 0)
(0.89731379 0 0)
(0.87744429 0 0)
(0.85696213 0 0)
(0.83583757 0 0)
(0.81406703 0 0)
(0.79162405 0 0)
(0.76843666 0 0)
(0.74444031 0 0)
(0.71961914 0 0)
(0.69393195 0 0)
(0.66726564 0 0)
(0.63951966 0 0)
(0.61067708 0 0)
(0.58065946 0 0)
(0.54927315 0 0)
(0.51637488 0 0)
(0.48185602 0 0)
(0.44567278 0 0)
(0.40759922 0 0)
(0.36727164 0 0)
(0.32449892 0 0)
(0.27910068 0 0)
(0.23073061 0 0)
(0.1789706 0 0)
(0.12351888 0 0)
(0.063952906 0 0)
(0 0 0)
(1.2042749 0 0)
(1.1951501 0 0)
(1.185534 0 0)
(1.1754264 0 0)
(1.1648344 0 0)
(1.1537653 0 0)
(1.1422274 0 0)
(1.1302296 0 0)
(1.1177809 0 0)
(1.1048866 0 0)
(1.0915503 0 0)
(1.0777774 0 0)
(1.0635764 0 0)
(1.0489537 0 0)
(1.0339132 0 0)
(1.0184573 0 0)
(1.0025812 0 0)
(0.98628049 0 0)
(0.96955056 0 0)
(0.95238235 0 0)
(0.93475854 0 0)
(0.91666287 0 0)
(0.89808277 0 0)
(0.87900103 0 0)
(0.85938088 0 0)
(0.83917999 0 0)
(0.81837401 0 0)
(0.79693828 0 0)
(0.77484458 0 0)
(0.75203204 0 0)
(0.72844367 0 0)
(0.70405469 0 0)
(0.67881372 0 0)
(0.65261037 0 0)
(0.62535575 0 0)
(0.59703026 0 0)
(0.56755259 0 0)
(0.53675256 0 0)
(0.50446658 0 0)
(0.47060111 0 0)
(0.43515052 0 0)
(0.39787847 0 0)
(0.35840546 0 0)
(0.31654126 0 0)
(0.2721157 0 0)
(0.22482024 0 0)
(0.17430372 0 0)
(0.12026826 0 0)
(0.062264397 0 0)
(0 0 0)
(1.2043161 0 0)
(1.1952148 0 0)
(1.1856202 0 0)
(1.1755318 0 0)
(1.1649565 0 0)
(1.1539014 0 0)
(1.1423745 0 0)
(1.1303846 0 0)
(1.1179399 0 0)
(1.1050458 0 0)
(1.0917067 0 0)
(1.0779293 0 0)
(1.0637224 0 0)
(1.0490922 0 0)
(1.0340426 0 0)
(1.0185768 0 0)
(1.0026913 0 0)
(0.98638136 0 0)
(0.96964246 0 0)
(0.95246565 0 0)
(0.93483367 0 0)
(0.91672942 0 0)
(0.89814076 0 0)
(0.87905144 0 0)
(0.85942479 0 0)
(0.83921684 0 0)
(0.81840208 0 0)
(0.79695933 0 0)
(0.77486001 0 0)
(0.75204269 0 0)
(0.72844961 0 0)
(0.7040564 0 0)
(0.67881228 0 0)
(0.65260688 0 0)
(0.62535076 0 0)
(0.59702468 0 0)
(0.56754726 0 0)
(0.53674573 0 0)
(0.50445946 0 0)
(0.47059329 0 0)
(0.43514295 0 0)
(0.39787462 0 0)
(0.358406 0 0)
(0.31654604 0 0)
(0.27212411 0 0)
(0.2248315 0 0)
(0.17431394 0 0)
(0.1202741 0 0)
(0.062266381 0 0)
(0 0 0)
(1.2043455 0 0)
(1.1953114 0 0)
(1.1857794 0 0)
(1.1757488 0 0)
(1.1652259 0 0)
(1.1542175 0 0)
(1.1427316 0 0)
(1.1307766 0 0)
(1.1183601 0 0)
(1.105488 0 0)
(1.092166 0 0)
(1.0784017 0 0)
(1.0642038 0 0)
(1.049579 0 0)
(1.0345317 0 0)
(1.019065 0 0)
(1.003177 0 0)
(0.98686362 0 0)
(0.97011985 0 0)
(0.95293679 0 0)
(0.93529765 0 0)
(0.91718523 0 0)
(0.89858747 0 0)
(0.87948862 0 0)
(0.85985279 0 0)
(0.83963498 0 0)
(0.81880736 0 0)
(0.79735236 0 0)
(0.77524233 0 0)
(0.7524144 0 0)
(0.72880926 0 0)
(0.70440381 0 0)
(0.67914881 0 0)
(0.65293276 0 0)
(0.62566478 0 0)
(0.59732718 0 0)
(0.56783927 0 0)
(0.53702408 0 0)
(0.50472404 0 0)
(0.4708433 0 0)
(0.43537705 0 0)
(0.39809339 0 0)
(0.3586087 0 0)
(0.31673157 0 0)
(0.27229088 0 0)
(0.22497619 0 0)
(0.17442907 0 0)
(0.12035327 0 0)
(0.06230657 0 0)
(0 0 0)
(1.2044518 0 0)
(1.195529 0 0)
(1.186101 0 0)
(1.1761665 0 0)
(1.1657313 0 0)
(1.1548018 0 0)
(1.1433857 0 0)
(1.1314911 0 0)
(1.1191256 0 0)
(1.1062959 0 0)
(1.0930092 0 0)
(1.0792738 0 0)
(1.0650986 0 0)
(1.0504903 0 0)
(1.0354542 0 0)
(1.0199938 0 0)
(1.0041081 0 0)
(0.98779419 0 0)
(0.97104719 0 0)
(0.95385797 0 0)
(0.93621028 0 0)
(0.9180872 0 0)
(0.89947717 0 0)
(0.88036477 0 0)
(0.86071477 0 0)
(0.84048121 0 0)
(0.81963467 0 0)
(0.79816051 0 0)
(0.77603172 0 0)
(0.75318472 0 0)
(0.7295585 0 0)
(0.70513102 0 0)
(0.67985448 0 0)
(0.65361652 0 0)
(0.62632493 0 0)
(0.5979633 0 0)
(0.56845138 0 0)
(0.53760852 0 0)
(0.50527984 0 0)
(0.47136835 0 0)
(0.43586791 0 0)
(0.39854849 0 0)
(0.3590258 0 0)
(0.31710811 0 0)
(0.27262412 0 0)
(0.22526074 0 0)
(0.17465426 0 0)
(0.12050915 0 0)
(0.062386631 0 0)
(0 0 0)
(1.2046308 0 0)
(1.1958629 0 0)
(1.1865798 0 0)
(1.1767798 0 0)
(1.1664675 0 0)
(1.1556489 0 0)
(1.1443311 0 0)
(1.1325226 0 0)
(1.1202312 0 0)
(1.1074651 0 0)
(1.0942326 0 0)
(1.0805427 0 0)
(1.0664038 0 0)
(1.0518235 0 0)
(1.0368077 0 0)
(1.0213605 0 0)
(1.0054822 0 0)
(0.98917083 0 0)
(0.97242205 0 0)
(0.95522653 0 0)
(0.93756884 0 0)
(0.91943269 0 0)
(0.90080686 0 0)
(0.88167645 0 0)
(0.86200701 0 0)
(0.84175204 0 0)
(0.82088017 0 0)
(0.79937972 0 0)
(0.77722475 0 0)
(0.75435007 0 0)
(0.73069312 0 0)
(0.7062336 0 0)
(0.6809254 0 0)
(0.65465437 0 0)
(0.62732684 0 0)
(0.59892847 0 0)
(0.5693795 0 0)
(0.53849486 0 0)
(0.50612225 0 0)
(0.47216448 0 0)
(0.43661219 0 0)
(0.39923638 0 0)
(0.35965382 0 0)
(0.31767282 0 0)
(0.27312147 0 0)
(0.22568294 0 0)
(0.17498759 0 0)
(0.12074048 0 0)
(0.062506 0 0)
(0 0 0)
(1.2048775 0 0)
(1.1963076 0 0)
(1.1872099 0 0)
(1.1775823 0 0)
(1.1674279 0 0)
(1.1567523 0 0)
(1.1455623 0 0)
(1.1338665 0 0)
(1.1216734 0 0)
(1.1089927 0 0)
(1.0958344 0 0)
(1.082207 0 0)
(1.0681184 0 0)
(1.0535774 0 0)
(1.0385912 0 0)
(1.023164 0 0)
(1.0072976 0 0)
(0.99099174 0 0)
(0.9742425 0 0)
(0.95704042 0 0)
(0.93937081 0 0)
(0.9212185 0 0)
(0.90257305 0 0)
(0.88342011 0 0)
(0.86372553 0 0)
(0.84344266 0 0)
(0.82253938 0 0)
(0.80100552 0 0)
(0.77881609 0 0)
(0.75590494 0 0)
(0.73220811 0 0)
(0.70770659 0 0)
(0.68235569 0 0)
(0.65604028 0 0)
(0.62866523 0 0)
(0.60021753 0 0)
(0.57061769 0 0)
(0.53967747 0 0)
(0.50724618 0 0)
(0.47322603 0 0)
(0.43760431 0 0)
(0.40015257 0 0)
(0.3604888 0 0)
(0.31842179 0 0)
(0.27377916 0 0)
(0.22623973 0 0)
(0.17542674 0 0)
(0.1210456 0 0)
(0.0626638 0 0)
(0 0 0)
(1.205189 0 0)
(1.1968588 0 0)
(1.1879863 0 0)
(1.1785681 0 0)
(1.1686066 0 0)
(1.1581067 0 0)
(1.1470753 0 0)
(1.1355201 0 0)
(1.1234502 0 0)
(1.110877 0 0)
(1.0978132 0 0)
(1.0842664 0 0)
(1.0702424 0 0)
(1.0557516 0 0)
(1.0408035 0 0)
(1.025403 0 0)
(1.0095531 0 0)
(0.9932553 0 0)
(0.97650646 0 0)
(0.95929708 0 0)
(0.94161346 0 0)
(0.92344148 0 0)
(0.90477169 0 0)
(0.885591 0 0)
(0.86586558 0 0)
(0.84554813 0 0)
(0.82460628 0 0)
(0.80303186 0 0)
(0.78080005 0 0)
(0.75784312 0 0)
(0.7340966 0 0)
(0.70954306 0 0)
(0.68413886 0 0)
(0.65776758 0 0)
(0.6303328 0 0)
(0.60182312 0 0)
(0.57215905 0 0)
(0.54114905 0 0)
(0.50864435 0 0)
(0.47454649 0 0)
(0.43883828 0 0)
(0.40129087 0 0)
(0.36152496 0 0)
(0.31935009 0 0)
(0.27459297 0 0)
(0.22692716 0 0)
(0.1759685 0 0)
(0.12142241 0 0)
(0.06285894 0 0)
(0 0 0)
(1.2055679 0 0)
(1.1975178 0 0)
(1.1889091 0 0)
(1.1797366 0 0)
(1.1700021 0 0)
(1.1597105 0 0)
(1.1488688 0 0)
(1.1374836 0 0)
(1.1255616 0 0)
(1.1131178 0 0)
(1.1001702 0 0)
(1.0867225 0 0)
(1.0727758 0 0)
(1.0583452 0 0)
(1.0434438 0 0)
(1.0280764 0 0)
(1.0122469 0 0)
(0.99595942 0 0)
(0.97921182 0 0)
(0.96199383 0 0)
(0.94429316 0 0)
(0.92609747 0 0)