/*--------------------------------*- C++ -*----------------------------------*\
| =========                 |                                                 |
| \\      /  F ield         | OpenFOAM: The Open Source CFD Toolbox           |
|  \\    /   O peration     | Version:  v2012                                 |
|   \\  /    A nd           | Website:  www.openfoam.com                      |
|    \\/     M anipulation  |                                                 |
\*---------------------------------------------------------------------------*/
FoamFile
{
    version     2.0;
    format      ascii;
    class       surfaceVectorField;
    location    "85.3128071783649489";
    object      Uf;
}
// * * * * * * * * * * * * * * * * * * * * * * * * * * * * * * * * * * * * * //

dimensions      [0 1 -1 0 0 0 0];


internalField   nonuniform List<vector> 
18180
(
(2.7530598 0.04186255 -3.4622688e-20)
(2.7174283 0.018703111 -2.9165508e-20)
(2.7604064 0.085562964 -1.6711263e-20)
(2.7195676 0.065693198 -2.1889221e-20)
(2.6932278 0.044632504 -1.6462353e-20)
(2.6809117 0.018711046 -1.0406994e-22)
(2.7713051 0.13294314 -5.8224074e-22)
(2.7226819 0.1095207 6.3598215e-21)
(2.6925605 0.09037402 1.848477e-21)
(2.6795532 0.066001895 1.6425518e-20)
(2.6633449 0.042505592 3.2432302e-20)
(2.6473316 0.017527866 5.2548286e-21)
(2.7855572 0.18768486 0)
(2.725961 0.16077504 -8.6776866e-21)
(2.6904248 0.13887382 -2.2123479e-21)
(2.6773252 0.10888541 4.0864262e-21)
(2.6598551 0.085163752 1.7983057e-20)
(2.6435213 0.06176646 1.9126212e-20)
(2.6286798 0.039237889 -6.8975953e-21)
(2.6173994 0.015861621 -5.412549e-21)
(2.8022835 0.25261789 1.232179e-20)
(2.7280301 0.21839157 1.9240867e-21)
(2.6851363 0.19279768 -6.2866383e-21)
(2.6720535 0.15780344 -9.3996946e-21)
(2.6534646 0.12948379 -3.4722072e-21)
(2.6373067 0.10084226 -6.5847124e-21)
(2.6222867 0.077935654 -5.8647116e-21)
(2.6119607 0.055879253 -1.0106564e-20)
(2.6006859 0.034846885 -8.7401697e-21)
(2.5917319 0.013898207 2.8452764e-21)
(2.8211031 0.33129914 6.2705189e-21)
(2.7271059 0.28644914 1.4166308e-20)
(2.6746315 0.25399552 4.1608784e-21)
(2.6626348 0.21061149 8.5343195e-21)
(2.6425644 0.17702388 5.8126566e-21)
(2.6261698 0.14418878 1.4088158e-20)
(2.6115377 0.11704865 1.1465313e-20)
(2.6032096 0.090221111 4.3973717e-21)
(2.5928117 0.068585088 5.3670718e-22)
(2.5853942 0.048894232 -2.1742014e-21)
(2.5767558 0.030098878 8.9368258e-21)
(2.5703253 0.011862259 1.8048207e-22)
(2.839448 0.42747666 -1.77358e-20)
(2.7215037 0.36715511 -2.0120829e-20)
(2.6559984 0.32447893 -1.3187729e-20)
(2.6465991 0.27016229 -1.1360073e-20)
(2.6255258 0.22862223 -7.3019389e-21)
(2.6094067 0.18900601 1.5725534e-21)
(2.5949497 0.15736827 9.4500314e-21)
(2.5886036 0.12716927 7.2605054e-21)
(2.5800571 0.10171809 4.8091455e-22)
(2.5753259 0.078052358 3.2324478e-21)
(2.5681687 0.058712843 7.0287329e-22)
(2.5636411 0.041672491 6.3641098e-21)
(2.5573885 0.025357393 -1.9946823e-21)
(2.5529128 0.0098856156 -2.6538213e-21)
(2.8488639 0.54229803 -2.8226393e-20)
(2.7086646 0.46296589 -3.1105121e-20)
(2.6269627 0.40677784 -3.3581442e-20)
(2.6210249 0.33672654 -2.9246526e-20)
(2.5999016 0.2845699 -2.7624784e-20)
(2.5849136 0.23699543 -1.1746122e-20)
(2.5713503 0.19896004 -3.3381473e-21)
(2.567994 0.16357087 -1.2354316e-20)
(2.5613037 0.13445325 -1.4784707e-20)
(2.5591658 0.10843455 -1.6759133e-20)
(2.5546017 0.085993189 -1.4401874e-20)
(2.5531647 0.065768791 -1.0204003e-20)
(2.5487263 0.049018687 -4.9948848e-21)
(2.5462756 0.034682832 -6.6720994e-21)
(2.5419447 0.020885396 -7.3772407e-21)
(2.5390661 0.0080506689 -1.7420104e-22)
(2.8275907 0.6709293 -1.6125047e-20)
(2.6826295 0.57601479 -5.3623472e-21)
(2.5846335 0.50298151 -7.7348636e-21)
(2.5831156 0.41115544 -5.9251781e-21)
(2.5627734 0.34436094 -1.3679654e-21)
(2.5505681 0.28701277 -2.7411293e-21)
(2.5390057 0.2413181 1.2608623e-20)
(2.5398441 0.20038077 4.4545074e-21)
(2.5359919 0.16639487 -3.9909831e-21)
(2.5373048 0.13684784 -4.6621146e-21)
(2.5353028 0.11177348 -6.3622841e-21)
(2.5367931 0.090052422 -6.515626e-21)
(2.5353053 0.070898454 -2.3891137e-21)
(2.5360094 0.054107935 -5.2048284e-21)
(2.533607 0.040004044 -6.798628e-21)
(2.5327303 0.028225957 -5.6356291e-21)
(2.5299384 0.016820852 1.22859e-21)
(2.5282995 0.006400815 -2.0983315e-21)
(2.7159987 0.7999805 6.4252797e-21)
(2.6234028 0.70299216 3.6541329e-21)
(2.5179458 0.61274853 1.3886711e-20)
(2.5295045 0.49464675 2.4432827e-20)
(2.5114829 0.40713157 2.6663154e-20)
(2.5040627 0.33808222 1.7881184e-20)
(2.4962544 0.28315028 1.6942457e-20)
(2.503008 0.23599722 6.1006203e-21)
(2.5031895 0.1966521 -1.7469404e-21)
(2.5087894 0.16380154 7.5565601e-22)
(2.5102244 0.13545794 1.5024269e-22)
(2.5153535 0.11151748 3.4168092e-22)
(2.5166986 0.090609018 3.1105116e-22)
(2.5202898 0.072997014 4.0932324e-21)
(2.5208955 0.057121883 1.5276347e-21)
(2.5230568 0.04351153 2.8943186e-21)
(2.5221663 0.031910927 4.1473664e-21)
(2.5224104 0.02244913 3.3432554e-21)
(2.5208144 0.013227014 2.1747552e-22)
(2.520126 0.0049562534 -1.5782134e-21)
(2.4926124 0.89367062 1.5457555e-20)
(2.4856952 0.8192743 5.3637677e-20)
(2.4146481 0.72987633 5.1470258e-20)
(2.4487425 0.58412821 7.6686929e-21)
(2.4427038 0.47093605 1.7289912e-20)
(2.4436302 0.38856726 -4.770092e-21)
(2.4416515 0.32248004 -1.3319396e-20)
(2.45629 0.26895762 7.1647952e-21)
(2.4622401 0.22375872 -3.277195e-21)
(2.4732959 0.18763345 1.9293914e-21)
(2.47904 0.15610112 4.3240039e-21)
(2.4883634 0.13043903 2.4044733e-22)
(2.4932474 0.10751208 4.2365592e-22)
(2.5002478 0.088670815 -1.1517626e-21)
(2.5036388 0.071741897 2.4171571e-21)
(2.5084826 0.057793294 6.4724785e-21)
(2.5104803 0.044948288 7.8400982e-21)
(2.5135379 0.034165917 6.3709975e-22)
(2.5137277 0.024831787 -1.8172262e-22)
(2.5147503 0.017402415 1.8191711e-21)
(2.5140681 0.01011686 1.3574792e-22)
(2.5140907 0.0037219933 2.0632298e-22)
(2.1986278 0.94117924 -1.3070081e-20)
(2.2778031 0.89879684 3.2250247e-21)
(2.262851 0.82786463 3.929556e-20)
(2.3295144 0.66512919 6.0991524e-20)
(2.3485 0.52810071 1.9348139e-20)
(2.3665384 0.43511968 2.1860705e-20)
(2.3743018 0.3568943 1.095294e-21)
(2.3989827 0.29694491 -1.3523339e-20)
(2.4127383 0.24574777 5.9382727e-21)
(2.4305642 0.20700723 -9.0856207e-22)
(2.4418118 0.17242778 4.0737527e-21)
(2.4560625 0.14534438 1.1475678e-20)
(2.4650502 0.12075563 7.7102211e-21)
(2.475743 0.10127993 2.8155522e-21)
(2.4824364 0.08327011 1.3570757e-21)
(2.4903209 0.068788086 -4.9697632e-21)
(2.494894 0.055400427 -1.242265e-21)
(2.5003441 0.044602989 2.1624009e-21)
(2.5032032 0.034445198 -4.7609499e-21)
(2.5067667 0.026104812 -2.4624774e-22)
(2.5077052 0.018758812 1.6539365e-21)
(2.509245 0.013071696 3.4236532e-22)
(2.5092474 0.0074708141 4.1629215e-22)
(2.5097883 0.0026901529 7.9288874e-22)
(1.8783307 0.95116025 -2.0363396e-20)
(2.0173988 0.93413946 -5.1510359e-20)
(2.0615258 0.89384201 -3.6641641e-20)
(2.1654235 0.72134968 -4.680428e-20)
(2.2220416 0.56777954 -2.7480984e-20)
(2.2685957 0.47052365 2.6432599e-20)
(2.2941176 0.38248368 2.893143e-20)
(2.3311117 0.31742813 1.7882257e-20)
(2.3549019 0.26031841 4.2630324e-21)
(2.3808233 0.21992867 -1.4794571e-21)
(2.3989132 0.18293807 -8.0990411e-21)
(2.4187599 0.1552158 -4.5984771e-21)
(2.4325825 0.12933955 2.2945933e-21)
(2.447364 0.10963418 6.2104647e-21)
(2.4576526 0.091009585 1.5671474e-21)
(2.4686554 0.076573798 -5.4746269e-21)
(2.4761568 0.062755477 -1.1590492e-20)
(2.4842264 0.051893549 -9.4221778e-21)
(2.4893753 0.041544863 -6.311448e-21)
(2.495018 0.03338666 -1.1677747e-21)
(2.4983633 0.025542477 3.1798065e-21)
(2.5021591 0.019267848 1.4060763e-21)
(2.5035959 0.013625945 1.5903717e-22)
(2.5054616 0.0094051498 -2.1333359e-22)
(2.5059632 0.0052475512 1.344562e-22)
(2.5068712 0.0018401621 9.5729408e-22)
(1.569686 0.936471 -2.6253487e-22)
(1.7410466 0.93496823 2.177277e-21)
(1.8322559 0.91985016 -2.7050602e-20)
(1.9701224 0.74272745 -2.9302382e-20)
(2.0667132 0.57893186 -3.8839073e-20)
(2.1472945 0.48433319 -4.1347995e-20)
(2.2010396 0.39264078 9.6419657e-21)
(2.2536968 0.32675455 -6.1436163e-21)
(2.2899967 0.26508065 -1.7191937e-20)
(2.324892 0.22442991 -9.2074048e-21)
(2.3511785 0.18601113 -1.4873391e-20)
(2.3772407 0.1586589 -2.2876332e-21)
(2.3965649 0.13223888 1.1603033e-21)
(2.4157027 0.11303383 1.2810069e-25)
(2.429981 0.094242441 3.6727118e-21)
(2.4442604 0.080258411 2.1532047e-21)
(2.4547783 0.066478385 -4.5438235e-21)
(2.465401 0.056061435 -2.8684414e-21)
(2.4730635 0.045712453 -6.6166536e-22)
(2.4809138 0.037788951 -4.0430798e-21)
(2.4862441 0.029979242 8.7721263e-22)
(2.4918163 0.023990742 1.368011e-21)
(2.4953873 0.018097514 -3.5233306e-22)
(2.4992323 0.013543023 -3.0399293e-22)
(2.5009846 0.0093366882 -6.6488525e-22)
(2.503037 0.0063328081 -8.6695825e-22)
(2.5038902 0.0033952595 -1.0120761e-22)
(2.5050493 0.0011410769 3.2103968e-22)
(1.2990223 0.90525356 1.0842616e-20)
(1.4822769 0.90721372 1.4642361e-20)
(1.603404 0.9061989 1.7196267e-20)
(1.7678104 0.7271159 2.5975555e-20)
(1.8966353 0.55765324 2.4680112e-20)
(2.007854 0.4687493 -5.829236e-22)
(2.0958654 0.37978315 -2.5168639e-21)
(2.1679746 0.31979139 -1.3359938e-22)
(2.220364 0.25765794 -1.5280918e-20)
(2.2645581 0.21866505 -1.0039366e-20)
(2.2999789 0.18015308 -2.3437535e-21)
(2.3326532 0.15449912 -7.7438522e-22)
(2.3580866 0.12852351 1.1429645e-20)
(2.3817276 0.11059636 5.737732e-21)
(2.4002632 0.092323701 4.6506781e-21)
(2.4178427 0.079407798 2.1416585e-21)
(2.4315359 0.066092801 6.7984979e-22)
(2.4447168 0.056487472 1.7627986e-21)
(2.4548393 0.046558315 3.4627856e-21)
(2.464738 0.039284254 4.1528722e-21)
(2.4721805 0.031742011 1.0101279e-21)
(2.4795871 0.026166509 -3.2941115e-21)
(2.4848505 0.020439027 -2.9004948e-21)
(2.490198 0.016208535 1.2519865e-21)
(2.4938203 0.011934366 1.3230578e-21)
(2.4975967 0.0087940615 8.8399859e-22)
(2.499533 0.0057819416 7.1267387e-22)
(2.5016731 0.0037780904 -7.5444433e-22)
(2.5027656 0.0018590598 -3.6520366e-22)
(2.5040865 0.00056257096 4.6376582e-22)
(1.0827576 0.86456539 1.3877474e-20)
(1.2615119 0.85778247 2.8207104e-20)
(1.3960007 0.85976455 3.2091869e-20)
(1.5792207 0.6789042 1.6444406e-20)
(1.730337 0.50690523 2.4772075e-20)
(1.8636309 0.42330569 1.2535793e-20)
(1.9833867 0.33963184 -1.1800037e-20)
(2.0763667 0.29165763 5.552496e-21)
(2.1487297 0.23536661 7.9434475e-21)
(2.2024163 0.20112562 1.0521293e-20)
(2.2474224 0.16438025 1.590507e-20)
(2.2866032 0.14175299 -2.510104e-21)
(2.3185302 0.11747826 -1.022193e-21)
(2.3466287 0.10178005 1.3305771e-20)
(2.3695667 0.084778858 7.8819449e-21)
(2.3903796 0.073516451 9.7741994e-22)
(2.407272 0.061242859 -1.4153681e-21)
(2.4228944 0.052931922 -2.3772682e-21)
(2.4354841 0.043795614 -1.3968157e-21)
(2.4473438 0.037487792 7.3099811e-22)
(2.456753 0.030561836 1.3366562e-21)
(2.465781 0.025712391 3.5265483e-22)
(2.4727947 0.020406217 -3.7449693e-21)
(2.4796539 0.016682862 -2.2632371e-21)
(2.4847051 0.012638967 1.6839277e-21)
(2.4897459 0.0098167481 1.2756362e-21)
(2.4933076 0.0068694082 8.5039574e-22)
(2.4969433 0.0048796618 1.3836078e-21)
(2.4989677 0.0028487256 -3.529509e-24)
(2.50113 0.001661847 -3.5653078e-22)
(2.5023889 0.00057893783 4.3302868e-22)
(2.5037973 8.7470231e-05 6.2150155e-22)
(0.926743 0.82181863 1.5236937e-20)
(1.086617 0.79584525 8.6260733e-21)
(1.2207228 0.79008127 2.2154421e-20)
(1.4169765 0.60554795 2.3131689e-20)
(1.5831564 0.43222491 8.0562362e-21)
(1.7298363 0.35245092 5.7129518e-21)
(1.8728817 0.27347111 -6.4403698e-21)
(1.9841526 0.24071994 -9.2886795e-21)
(2.0780004 0.1959458 7.2323245e-21)
(2.1412956 0.1704314 2.0502739e-21)
(2.1962467 0.13836062 4.4059776e-21)
(2.2411663 0.12007627 5.172566e-21)
(2.2795017 0.098762584 -1.2484116e-20)
(2.3118048 0.086230597 -8.1628851e-21)
(2.339096 0.07139651 5.3067513e-21)
(2.3629301 0.062424088 5.1757422e-21)
(2.3829497 0.051755092 -1.3989569e-21)
(2.4008411 0.045163377 -5.0779256e-21)
(2.4157844 0.037273779 -6.0486843e-21)
(2.4294102 0.032291856 -3.2660695e-21)
(2.4407039 0.026295923 -1.2748285e-21)
(2.4512112 0.022439788 2.0595091e-21)
(2.4597786 0.017825523 1.1262664e-21)
(2.4679088 0.014824208 -3.0951026e-21)
(2.4744 0.011275813 -1.6835166e-21)
(2.4806808 0.0089987105 3.2518097e-22)
(2.485445 0.0063005736 -8.7677885e-23)
(2.4901423 0.0045965567 8.729874e-22)
(2.4935763 0.0027259075 1.3768759e-21)
(2.4970281 0.0016658149 4.7321345e-22)
(2.4990738 0.00043983272 1.4664651e-22)
(2.501209 -9.3733067e-05 8.1417271e-23)
(2.5025509 -0.00046708159 2.5692364e-22)
(2.5040232 -0.000292768 -5.2999388e-22)
(0.8284916 0.78258849 -1.6275824e-20)
(0.96016813 0.72963279 2.2374701e-20)
(1.083861 0.70527073 1.6208275e-20)
(1.288891 0.51544776 2.0616303e-20)
(1.4653884 0.33885683 2.1455843e-20)
(1.6182243 0.26231331 5.349032e-21)
(1.7749591 0.18653737 2.7476112e-21)
(1.8990573 0.16948625 7.4559829e-21)
(2.0118918 0.13914437 4.969828e-21)
(2.0840534 0.12596855 -8.5939442e-21)
(2.1492292 0.10226061 -1.3899654e-20)
(2.1986828 0.089747198 -4.7672201e-21)
(2.2427633 0.0726177 -4.1829284e-21)
(2.2787266 0.064076175 -3.2275648e-21)
(2.3101225 0.052283927 1.0208567e-21)
(2.3366256 0.046162578 -4.5578632e-21)
(2.3595644 0.037687525 -4.8501486e-21)
(2.3794499 0.033253081 6.9833451e-21)
(2.3965824 0.027010077 3.6208196e-21)
(2.411745 0.023663319 -6.3976772e-21)
(2.4247418 0.018933785 -3.7608596e-21)
(2.4364904 0.016327643 -6.904399e-22)
(2.4464811 0.012658882 2.4753746e-21)
(2.4557115 0.010603132 9.9755952e-23)
(2.4634228 0.0077454613 -3.9247407e-21)
(2.4706948 0.00613835 -1.2911881e-21)
(2.4766445 0.003952597 6.2232495e-22)
(2.4823589 0.0027997287 9.4179286e-22)
(2.4868015 0.0011639442 1.87015e-21)
(2.4911516 0.00034264018 1.5254955e-21)
(2.4944173 -0.00066591099 6.6971797e-22)
(2.4976709 -0.0009701982 -8.377993e-22)
(2.4996922 -0.0015621275 -9.1381761e-22)
(2.5017783 -0.00155371 -2.3708392e-21)
(2.5031783 -0.0013060827 -3.1591902e-21)
(2.5046322 -0.00064674083 -1.607904e-21)
(0.7767508 0.74898548 -1.9059138e-20)
(0.88226539 0.66149718 -7.3129155e-20)
(0.99065252 0.6107002 -3.729224e-20)
(1.2013184 0.41461963 -6.7317996e-21)
(1.3831776 0.23143826 -2.9792705e-21)
(1.5363914 0.15874316 1.8840445e-20)
(1.6982517 0.085327748 3.2768129e-21)
(1.8288077 0.083322618 1.6378024e-21)
(1.95501 0.067448149 6.0923416e-21)
(2.0337917 0.068859185 -8.8250839e-22)
(2.108647 0.056778296 -1.3896119e-20)
(2.1612809 0.051593353 -3.7592378e-21)
(2.21013 0.039922302 5.1196107e-21)
(2.2488409 0.035942039 4.6144923e-21)
(2.2838562 0.02788925 5.6592038e-21)
(2.3125421 0.025149276 5.745028e-22)
(2.3380823 0.019341256 -4.7427959e-21)
(2.3596099 0.017423302 1.4815886e-21)
(2.3786833 0.013198037 1.2809341e-20)
(2.395093 0.011800282 2.9110483e-21)
(2.4095833 0.0086039179 -6.6129856e-21)
(2.4223259 0.0074778522 -4.7747665e-21)
(2.4335182 0.0049840388 -1.8802017e-21)
(2.4436031 0.0040469352 1.3206316e-21)
(2.4523726 0.0020716186 -9.5320786e-22)
(2.4604696 0.0013272063 -2.567951e-21)
(2.4673619 -0.00023720919 -4.604127e-23)
(2.4738732 -0.00077770168 1.300317e-21)
(2.4792777 -0.0019104838 1.6142927e-21)
(2.4844671 -0.0021984967 2.5785843e-21)
(2.4885804 -0.0029977354 2.2624103e-21)
(2.4925944 -0.0031295084 3.3053402e-22)
(2.4956728 -0.0034340604 -1.1062785e-21)
(2.4987131 -0.0031415966 -8.4000232e-22)
(2.5007004 -0.0032103572 -2.222443e-21)
(2.5027308 -0.0027693023 -2.185935e-21)
(2.5041226 -0.0020637889 -6.9618473e-22)
(2.505561 -0.00097275948 3.1866912e-22)
(0.75360642 0.72042476 5.8058482e-21)
(0.84200742 0.59493873 2.6494431e-21)
(0.94014065 0.5101613 -4.8355872e-20)
(1.1563821 0.30575171 3.4385413e-20)
(1.3386696 0.11493005 6.4491669e-20)
(1.4883096 0.046867818 -2.7368607e-20)
(1.6479494 -0.02392314 -7.1328042e-21)
(1.7794031 -0.01231284 2.2787777e-21)
(1.9116471 -0.014695294 7.0628965e-22)
(1.9937993 0.0021026047 2.9223953e-21)
(2.0761836 0.0034159393 -3.670202e-21)
(2.1306063 0.0068599189 -5.5793928e-21)
(2.183094 0.0019444902 4.2216121e-21)
(2.2235232 0.002840807 5.9047098e-21)
(2.2612558 -0.0010527959 5.4373221e-21)
(2.2916881 -4.1235881e-05 7.3455198e-21)
(2.3192938 -0.0027982348 2.5360747e-21)
(2.3421543 -0.0018798531 -8.1402214e-21)
(2.3627787 -0.0038262538 -2.2898649e-21)
(2.3801858 -0.0030231944 6.8689102e-21)
(2.3958575 -0.0044402051 -2.6215391e-21)
(2.4093436 -0.0038679389 6.2853536e-24)
(2.4214817 -0.0049973655 1.850184e-21)
(2.4321863 -0.0046578231 -3.0048497e-21)
(2.4417699 -0.0055876477 1.5846305e-23)
(2.4504467 -0.0053854318 -9.7878032e-22)
(2.4581221 -0.0061310768 -2.5105869e-21)
(2.4652324 -0.0059434694 2.5059146e-21)
(2.4713992 -0.0064968563 3.8242085e-21)
(2.4772237 -0.0062915999 7.9794503e-22)
(2.4821356 -0.0066044664 1.7007903e-21)
(2.4868469 -0.0062417656 -9.9157064e-22)
(2.490648 -0.0063807885 -2.875377e-21)
(2.4943481 -0.0059760157 1.151637e-21)
(2.4972289 -0.0057264772 1.4398485e-21)
(2.5000615 -0.0049465851 1.7057793e-22)
(2.5019944 -0.0045818511 2.4535094e-22)
(2.5039451 -0.003788429 2.5497731e-21)
(2.5053216 -0.0026956714 3.5641724e-21)
(2.5067318 -0.0012243629 1.8073689e-21)
(0.75876542 0.69106015 3.9055167e-20)
(0.83716441 0.5272684 1.5162998e-19)
(0.93231818 0.40473515 1.5095773e-19)
(1.1493566 0.1935559 -1.0702543e-19)
(1.3311854 -0.0057889081 -2.9288198e-20)
(1.474314 -0.068028851 9.1999447e-20)
(1.62608 -0.13541036 5.1779891e-21)
(1.7534421 -0.11180782 -1.1605646e-20)
(1.884757 -0.10178212 -2.7368904e-21)
(1.9663948 -0.070756369 -2.2041164e-21)
(2.0529467 -0.055303406 -2.3525258e-23)
(2.1076581 -0.042746294 -4.4835052e-21)
(2.1625663 -0.039685645 -6.3092378e-21)
(2.2035146 -0.033936766 5.1462648e-21)
(2.2430143 -0.033275351 6.7589525e-21)
(2.2744894 -0.028613979 -2.4347328e-21)
(2.3037598 -0.027866623 -7.565593e-22)
(2.3275012 -0.024138573 4.3209761e-21)
(2.3494031 -0.023438895 -5.788911e-21)
(2.3674647 -0.020388014 -5.2369243e-21)
(2.3840954 -0.019738944 3.4159877e-21)
(2.3980248 -0.017402934 1.9984415e-21)
(2.4108815 -0.016935517 4.5655888e-21)
(2.4219257 -0.015244097 4.4112473e-22)
(2.4321082 -0.014971034 -4.1922923e-21)
(2.4411279 -0.013749944 1.4070902e-21)
(2.4493657 -0.013590176 4.8604504e-22)
(2.4568739 -0.012641365 -4.810404e-21)
(2.4636188 -0.012498469 -8.3168606e-23)
(2.4699076 -0.011661332 5.8148257e-21)
(2.4754258 -0.011481354 2.9733287e-21)
(2.4806567 -0.010706056 6.277254e-22)
(2.4851186 -0.010400276 -1.9440854e-21)
(2.4894017 -0.0095340545 -5.5925e-21)
(2.492908 -0.0091573394 -1.8112862e-21)
(2.4963151 -0.0083271115 3.0202096e-21)
(2.4990032 -0.0076351965 1.8409792e-21)
(2.5016386 -0.0064606501 2.762336e-23)
(2.5034983 -0.005737378 2.2124498e-21)
(2.50536 -0.0046507433 3.2587421e-21)
(2.5067118 -0.0032281025 1.5857033e-21)
(2.5080849 -0.0014281737 2.3974329e-21)
(0.80562393 0.65515308 1.2993185e-19)
(0.88821295 0.45564679 1.8511354e-20)
(0.98104483 0.29440824 1.2514187e-19)
(1.1810826 0.079617776 1.862469e-19)
(1.3588314 -0.12754828 -5.8200373e-20)
(1.4922242 -0.181662 -3.4817144e-20)
(1.6317406 -0.24421236 8.0317052e-20)
(1.7509656 -0.20985529 2.9259065e-20)
(1.8754928 -0.18889144 1.3697268e-20)
(1.953409 -0.14527882 1.0783022e-21)
(2.0397106 -0.11640517 1.8187139e-21)
(2.0930395 -0.094959164 1.9368322e-21)
(2.148897 -0.083316671 -2.2680352e-21)
(2.1893256 -0.072873325 -2.5037787e-21)
(2.2295715 -0.067597047 8.448649e-21)
(2.2615263 -0.05947875 9.9555181e-21)
(2.2918548 -0.055190506 1.2710305e-21)
(2.316194 -0.048617541 -1.0450091e-20)
(2.3389688 -0.045165887 -5.779311e-21)
(2.3574496 -0.039767707 3.3287088e-21)
(2.3747288 -0.036923427 3.9958891e-21)
(2.3888599 -0.032687387 -9.8985426e-22)
(2.4021587 -0.030501893 -2.4042116e-21)
(2.413286 -0.027361297 5.2687156e-21)
(2.4238059 -0.025780027 1.3614428e-21)
(2.4329159 -0.023481848 -5.1320384e-21)
(2.4414889 -0.022344378 1.7070306e-22)
(2.4491749 -0.020588861 1.8090296e-21)
(2.4563006 -0.019708291 -3.1991413e-21)
(2.4628654 -0.018259405 -2.0698016e-21)
(2.468827 -0.017494852 3.4998566e-21)
(2.4744244 -0.016191784 2.4509675e-22)
(2.4793812 -0.015472565 -2.0246337e-21)
(2.4840988 -0.014272479 -3.5427527e-23)
(2.4881579 -0.013496258 -3.4696942e-21)
(2.49206 -0.012242252 -2.1355079e-22)
(2.4952917 -0.011459939 4.3990127e-21)
(2.4984289 -0.010289439 1.8856496e-21)
(2.5009335 -0.0092390058 1.6450525e-22)
(2.5033826 -0.0077414243 -1.1502536e-21)
(2.5051601 -0.0067204292 -2.093095e-22)
(2.5069274 -0.0053849112 2.2799562e-21)
(2.5082457 -0.0036836756 3.0611468e-21)
(2.5095752 -0.0015984794 6.6080597e-22)
(0.88873974 0.60945141 2.134076e-20)
(0.99820191 0.37866398 -4.1347215e-20)
(1.096659 0.18284417 -1.4991592e-19)
(1.2600896 -0.032976433 1.9092359e-19)
(1.4184496 -0.24617704 2.5001827e-19)
(1.5382696 -0.29035782 2.9621541e-20)
(1.6617374 -0.34604489 5.3234801e-20)
(1.7690823 -0.302405 7.1947755e-20)
(1.8831094 -0.27167921 2.331968e-20)
(1.9541595 -0.21733555 1.3072936e-20)
(2.0365156 -0.17663588 1.1358211e-21)
(2.0868679 -0.14721836 1.7953915e-21)
(2.1418945 -0.12725507 1.9072212e-21)
(2.1809495 -0.11246731 5.5042333e-21)
(2.2209775 -0.10275627 5.4152382e-21)
(2.2528413 -0.091488192 6.808376e-21)
(2.2836713 -0.083883341 8.2171662e-21)
(2.3083247 -0.07454519 2.5836977e-22)
(2.3316713 -0.068360369 -1.088676e-20)
(2.3503506 -0.060582486 -4.3541674e-21)
(2.3680338 -0.055490736 4.3158109e-21)
(2.3821396 -0.049266716 1.1624129e-21)
(2.3956386 -0.045265571 -3.6153657e-21)
(2.4065924 -0.040594661 1.4488314e-21)
(2.4172 -0.0376302 8.7925359e-21)
(2.4261467 -0.034224579 -5.6003632e-22)
(2.4348123 -0.03206154 -6.7565491e-21)
(2.4424479 -0.029503909 -2.386487e-21)
(2.4497471 -0.027859681 -8.6932457e-22)
(2.4564032 -0.025799278 -1.9635429e-21)
(2.4626309 -0.024447381 -8.7198228e-22)
(2.4684383 -0.022666087 3.2854664e-21)
(2.4737451 -0.021463522 1.9252135e-22)
(2.4787642 -0.019826578 3.3325016e-22)
(2.4832365 -0.018708979 2.2587617e-21)
(2.4875099 -0.01719066 -1.5507938e-21)
(2.4912108 -0.016053848 1.5709406e-21)
(2.494774 -0.014497671 5.0482796e-21)
(2.4977529 -0.013392951 2.6705004e-21)
(2.5006428 -0.011945895 9.4541434e-22)
(2.5029737 -0.010601067 -2.9254655e-22)
(2.5052471 -0.0088341319 -1.097517e-21)
(2.5069369 -0.0075624661 1.2522944e-21)
(2.5086073 -0.0060134054 2.0353194e-21)
(2.5098856 -0.0040734516 -2.6042905e-22)
(2.5111658 -0.0017408562 -1.1873837e-21)
(0.99838798 0.55757364 -1.6148535e-19)
(1.1245491 0.30131825 -5.5403526e-20)
(1.2456163 0.074969428 -1.1617506e-19)
(1.3827095 -0.13944273 -1.4841553e-19)
(1.5043043 -0.35425927 1.7539558e-19)
(1.6080737 -0.39015436 1.7084878e-19)
(1.712187 -0.43758302 -3.9759433e-20)
(1.8043782 -0.38642215 -7.9719743e-20)
(1.9055566 -0.3470965 -6.4041732e-20)
(1.9670002 -0.28407729 8.6810958e-21)
(2.0424503 -0.23327861 -1.2795147e-21)
(2.0883448 -0.19725836 5.468233e-21)
(2.1409006 -0.1698102 6.162038e-21)
(2.1778866 -0.15133573 -3.8282791e-22)
(2.2168736 -0.13758058 2.9972986e-21)
(2.2481967 -0.12366483 -1.1690836e-22)
(2.2790086 -0.11310742 1.1233008e-21)
(2.3037847 -0.10123824 5.3327485e-21)
(2.3274603 -0.092440571 -2.2703729e-21)
(2.3462171 -0.082324933 -9.1253951e-21)
(2.3641131 -0.074976802 -2.897496e-21)
(2.3780318 -0.066702213 6.0527698e-21)
(2.3915265 -0.060811048 3.0825832e-21)
(2.40208 -0.054540378 -2.8744276e-21)
(2.4125353 -0.050120614 1.9452998e-21)
(2.4210649 -0.045582933 4.1068554e-21)
(2.429582 -0.042366805 -4.8476827e-21)
(2.4369369 -0.039036546 -6.2090304e-21)
(2.4441917 -0.036631255 -2.0500801e-21)
(2.4507495 -0.034010523 6.3947808e-22)
(2.4570666 -0.032082675 -3.7593858e-22)
(2.4629351 -0.029849731 2.8827145e-21)
(2.4684435 -0.028188242 6.8870228e-21)
(2.4736378 -0.026181653 1.5330955e-21)
(2.4783977 -0.024668341 1.6867841e-21)
(2.4829279 -0.022789458 5.4695021e-21)
(2.4869816 -0.021375367 1.9029303e-21)
(2.4908685 -0.019615184 -1.4296995e-21)
(2.494251 -0.018198447 1.8235328e-21)
(2.4975121 -0.016401824 2.510288e-21)
(2.5002596 -0.015036214 8.6947859e-22)
(2.5029229 -0.013359301 -4.0888157e-22)
(2.5050897 -0.011768494 -1.175025e-21)
(2.5071967 -0.0097724496 -1.2711907e-21)
(2.5087962 -0.0082868171 -5.6709645e-22)
(2.5103681 -0.0065528047 -1.0554128e-21)
(2.5116008 -0.0044058165 -1.9488267e-21)
(2.5128262 -0.0018599281 -3.7041694e-22)
(1.1330933 0.50061077 -2.2707736e-19)
(1.2762424 0.22318712 -4.7373573e-20)
(1.406448 -0.027762915 5.5218734e-20)
(1.5161169 -0.23391517 9.068489e-21)
(1.6110695 -0.44512042 -1.95661e-20)
(1.6955324 -0.47690607 -4.1089833e-20)
(1.7792256 -0.51649934 -4.8837111e-20)
(1.853386 -0.45974584 -3.726936e-20)
(1.940002 -0.41320764 -7.518559e-20)
(1.9898896 -0.34343965 -3.6560122e-20)
(2.0560964 -0.28431518 3.296856e-20)
(2.0962698 -0.24331557 1.2435065e-20)
(2.1449423 -0.20960507 1.9015002e-20)
(2.1793416 -0.18830767 -8.0843704e-22)
(2.2166072 -0.17110608 -7.1317943e-21)
(2.2470953 -0.1551613 -5.137908e-21)
(2.2774765 -0.14213388 -8.2180586e-21)
(2.3022833 -0.12808729 -4.6159063e-21)
(2.3261184 -0.11690918 -7.0915455e-22)
(2.3449349 -0.10454944 -4.1153991e-22)
(2.3629407 -0.094984898 -6.8932181e-21)
(2.3765863 -0.084608464 -7.1357673e-21)
(2.3899307 -0.076766229 1.2936657e-21)
(2.3998928 -0.068808031 4.7936028e-21)
(2.4099837 -0.062862383 -8.388427e-22)
(2.4178453 -0.057164929 1.167121e-22)
(2.4259729 -0.05287068 2.1433111e-21)
(2.4328063 -0.048806868 -3.9344228e-21)
(2.4397967 -0.045667173 -5.2083478e-21)
(2.4460654 -0.042564447 -6.6908351e-22)
(2.4522904 -0.040105822 1.9058251e-21)
(2.4580757 -0.037500616 1.9885734e-21)
(2.4636437 -0.035415885 5.1209179e-21)
(2.4689002 -0.033076681 2.3022481e-21)
(2.4738281 -0.031207743 -2.8551983e-21)
(2.4785156 -0.029043319 2.4172343e-21)
(2.4828139 -0.027306844 6.0201696e-21)
(2.4869257 -0.025249716 -3.7097888e-21)
(2.4906155 -0.023611786 -6.961649e-21)
(2.4941642 -0.021663497 2.1573837e-23)
(2.4972632 -0.0200248 6.4660417e-22)
(2.500254 -0.018031196 1.9795784e-21)
(2.5027894 -0.016449316 7.8195582e-22)
(2.5052443 -0.014576106 -5.7693204e-21)
(2.5072557 -0.012775705 -5.9325069e-21)
(2.5092042 -0.010581042 -9.6458875e-22)
(2.510712 -0.0089104357 -1.4352372e-21)
(2.5121848 -0.0070150685 -2.0852275e-21)
(2.5133664 -0.0046885923 -5.8818769e-22)
(2.5145316 -0.0019588008 -1.7116717e-21)
(1.2877232 0.4407616 -6.3145976e-20)
(1.446059 0.14769573 -7.1897361e-20)
(1.5822809 -0.12317607 1.012802e-19)
(1.6651343 -0.31827255 -4.1277307e-20)
(1.7329213 -0.52108871 -8.6721337e-20)
(1.7958034 -0.54824305 2.0006842e-20)
(1.8583876 -0.58186372 1.5573699e-22)
(1.9128008 -0.52117516 5.4345152e-20)
(1.9831595 -0.46891594 6.6963749e-20)
(2.0205355 -0.39413622 -3.0524249e-20)
(2.0757492 -0.32838276 6.8882715e-21)
(2.1092343 -0.28413325 4.0445507e-20)
(2.1528816 -0.24562717 2.1023926e-20)
(2.1843375 -0.22248395 4.5498643e-21)
(2.2193624 -0.20260673 -1.448199e-20)
(2.2488656 -0.1853171 -7.0046858e-21)
(2.2785318 -0.17038995 -5.1023279e-21)
(2.3033816 -0.15460359 -3.7099153e-21)
(2.3272942 -0.14137548 -2.2011703e-22)
(2.346264 -0.12691203 -1.1337116e-21)
(2.3643762 -0.11521756 -8.5772804e-22)
(2.3777533 -0.10268016 -2.7385082e-21)
(2.3908763 -0.092831623 -2.9031e-21)
(2.4001025 -0.083068148 -1.2513973e-21)
(2.4096535 -0.07550691 2.0292133e-21)
(2.4166013 -0.068594007 -7.9726147e-22)
(2.4241023 -0.063189105 1.1324873e-22)
(2.4301605 -0.058434894 7.9831679e-22)
(2.4366564 -0.054595637 -4.9885351e-21)
(2.4424358 -0.051111252 -2.5457334e-21)
(2.4483856 -0.04819556 1.8092103e-21)
(2.4539512 -0.045327191 1.3989209e-21)
(2.4594406 -0.042890823 1.4729981e-21)
(2.4646614 -0.040307701 2.4955699e-21)
(2.4696494 -0.038128976 -2.2326529e-22)
(2.4744114 -0.035714298 -5.793284e-21)
(2.4788602 -0.033701809 -8.3343812e-22)
(2.4831175 -0.031424017 8.0702728e-21)
(2.4870212 -0.029524711 -1.1354805e-21)
(2.4907704 -0.027333642 -9.2061907e-21)
(2.4941421 -0.025522793 -2.6112907e-21)
(2.4973934 -0.023423053 -2.2130537e-21)
(2.5002389 -0.021603012 -9.9388545e-22)
(2.5029867 -0.019441922 1.7895887e-21)
(2.5053271 -0.017675537 -4.4148822e-21)
(2.5075887 -0.015629729 -2.799503e-21)
(2.509452 -0.013647253 1.9665018e-21)
(2.5112482 -0.01127759 1.3120495e-21)
(2.5126634 -0.0094454848 7.3932442e-22)
(2.5140361 -0.0074086907 2.1962541e-21)
(2.5151613 -0.0049271219 1.1720281e-21)
(2.5162612 -0.0020396578 -2.8628086e-21)
(1.4546263 0.38021808 1.1000018e-19)
(1.6249195 0.076851432 6.0091452e-20)
(1.7627664 -0.2089172 5.370817e-20)
(1.8197701 -0.39040321 -1.2700149e-19)
(1.8620882 -0.58157239 -2.6612348e-19)
(1.9032592 -0.60491025 -1.1258617e-19)
(1.9448593 -0.63344033 -1.1645002e-20)
(1.9791266 -0.57027332 -6.2779959e-21)
(2.0318148 -0.51370925 4.5095618e-20)
(2.0565114 -0.43546877 5.3421986e-20)
(2.0996456 -0.36472919 -3.9375619e-20)
(2.1257854 -0.31894726 -1.1389452e-20)
(2.1635304 -0.27723247 2.0222086e-20)
(2.1918528 -0.25325824 1.7441303e-20)
(2.224262 -0.23159585 1.737818e-21)
(2.2527457 -0.21367296 -1.1078781e-20)
(2.2815374 -0.19747228 -3.924671e-21)
(2.3065438 -0.18043915 -1.6790681e-21)
(2.3305418 -0.16556696 -3.0454955e-22)
(2.3498695 -0.14918471 4.0436873e-21)
(2.3681889 -0.13548906 3.2419401e-21)
(2.3814079 -0.12072003 8.9558245e-22)
(2.3943272 -0.10880145 -8.6248785e-22)
(2.4027306 -0.097062299 -4.4085267e-22)
(2.4116119 -0.087765819 1.1635717e-21)
(2.4174046 -0.079537294 2.9142241e-21)
(2.4240468 -0.072961044 2.4443511e-22)
(2.429055 -0.067544983 -1.1531468e-21)
(2.4348132 -0.063041431 -5.2237024e-22)
(2.4398861 -0.059296873 -5.6480404e-21)
(2.4453676 -0.056017614 -3.3351117e-21)
(2.4505767 -0.053027492 2.4057972e-21)
(2.4558557 -0.050343373 2.0217258e-21)
(2.4609613 -0.047632224 3.5601566e-21)
(2.4659156 -0.045223881 4.5633372e-21)
(2.4706927 -0.042640021 -2.4833222e-22)
(2.4752132 -0.040395815 -5.5366779e-21)
(2.4795542 -0.037923093 1.1772453e-22)
(2.4835968 -0.035808931 8.5836978e-21)
(2.4874806 -0.033449633 5.3151677e-21)
(2.4910428 -0.031429303 -2.2462213e-21)
(2.4944759 -0.029134568 -8.0141646e-22)
(2.4975681 -0.027185379 -3.9553877e-22)
(2.5005567 -0.024957591 -1.2199786e-21)
(2.5031745 -0.022983551 1.4191818e-21)
(2.5057022 -0.020673914 -4.3138164e-21)
(2.5078617 -0.018745237 -2.7784543e-21)
(2.509942 -0.016543426 4.5415536e-21)
(2.5116629 -0.014400052 3.9619006e-21)
(2.5133111 -0.011874383 1.128929e-21)
(2.5146326 -0.0099004157 2.5161775e-21)
(2.5159038 -0.0077396266 2.6758557e-21)
(2.5169676 -0.0051250869 -1.1323367e-21)
(2.5179974 -0.0021040806 -1.1670052e-21)
(1.6266971 0.32091152 3.4629946e-20)