/*--------------------------------*- C++ -*----------------------------------*\
| =========                 |                                                 |
| \\      /  F ield         | OpenFOAM: The Open Source CFD Toolbox           |
|  \\    /   O peration     | Version:  v2012                                 |
|   \\  /    A nd           | Website:  www.openfoam.com                      |
|    \\/     M anipulation  |                                                 |
\*---------------------------------------------------------------------------*/
FoamFile
{
    version     2.0;
    format      ascii;
    class       volVectorField;
    location    "106.217607682188273";
    object      cellDisplacement;
}
// * * * * * * * * * * * * * * * * * * * * * * * * * * * * * * * * * * * * * //

dimensions      [0 1 0 0 0 0 0];


internalField   nonuniform List<vector> 
9200
(
(-0.030603617 0 0)
(-0.030755314 0 0)
(-0.088829993 0 0)
(-0.030943233 0 0)
(-0.089124628 0 0)
(-0.14285076 0 0)
(-0.03116064 0 0)
(-0.089616715 0 0)
(-0.14334095 0 0)
(-0.19308788 0 0)
(-0.031391151 0 0)
(-0.090209091 0 0)
(-0.14411818 0 0)
(-0.1936904 0 0)
(-0.23962833 0 0)
(-0.031623974 0 0)
(-0.090837154 0 0)
(-0.14502979 0 0)
(-0.19468959 0 0)
(-0.24038899 0 0)
(-0.28287482 0 0)
(-0.031851723 0 0)
(-0.09147251 0 0)
(-0.14600814 0 0)
(-0.19590313 0 0)
(-0.24162054 0 0)
(-0.28371876 0 0)
(-0.32289891 0 0)
(-0.032068555 0 0)
(-0.092094194 0 0)
(-0.14699919 0 0)
(-0.19721172 0 0)
(-0.243133 0 0)
(-0.28516653 0 0)
(-0.32389135 0 0)
(-0.36006849 0 0)
(-0.03227188 0 0)
(-0.092685765 0 0)
(-0.14796627 0 0)
(-0.19853044 0 0)
(-0.2447377 0 0)
(-0.28692005 0 0)
(-0.32552656 0 0)
(-0.36113556 0 0)
(-0.39443971 0 0)
(-0.032458658 0 0)
(-0.093238816 0 0)
(-0.14888771 0 0)
(-0.19981711 0 0)
(-0.24637449 0 0)
(-0.28885656 0 0)
(-0.32758312 0 0)
(-0.36297996 0 0)
(-0.39565236 0 0)
(-0.42633107 0 0)
(-0.032629414 0 0)
(-0.093746912 0 0)
(-0.14974535 0 0)
(-0.20104233 0 0)
(-0.24797277 0 0)
(-0.2908081 0 0)
(-0.32980099 0 0)
(-0.36526783 0 0)
(-0.39768748 0 0)
(-0.42762863 0 0)
(-0.45578805 0 0)
(-0.032782424 0 0)
(-0.094207923 0 0)
(-0.15053279 0 0)
(-0.20218242 0 0)
(-0.24948979 0 0)
(-0.29271501 0 0)
(-0.33207523 0 0)
(-0.36781309 0 0)
(-0.40026957 0 0)
(-0.42987887 0 0)
(-0.45723651 0 0)
(-0.48308645 0 0)
(-0.032920251 0 0)
(-0.094622167 0 0)
(-0.15124305 0 0)
(-0.20322719 0 0)
(-0.25090725 0 0)
(-0.29453247 0 0)
(-0.33430735 0 0)
(-0.37043055 0 0)
(-0.40312129 0 0)
(-0.43271237 0 0)
(-0.45969518 0 0)
(-0.48463291 0 0)
(-0.50826516 0 0)
(-0.033041366 0 0)
(-0.094990019 0 0)
(-0.15187889 0 0)
(-0.20416965 0 0)
(-0.25220071 0 0)
(-0.29622472 0 0)
(-0.33643241 0 0)
(-0.37299409 0 0)
(-0.40607273 0 0)
(-0.43590082 0 0)
(-0.46283553 0 0)
(-0.48731995 0 0)
(-0.50996762 0 0)
(-0.53155903 0 0)
(-0.033148838 0 0)
(-0.095314938 0 0)
(-0.15243924 0 0)
(-0.20500921 0 0)
(-0.25337098 0 0)
(-0.2977773 0 0)
(-0.33841286 0 0)
(-0.37543939 0 0)
(-0.40898956 0 0)
(-0.43921347 0 0)
(-0.46634375 0 0)
(-0.4907353 0 0)
(-0.51288216 0 0)
(-0.53337213 0 0)
(-0.55300479 0 0)
(-0.033241839 0 0)
(-0.095599084 0 0)
(-0.15293261 0 0)
(-0.20575049 0 0)
(-0.25440872 0 0)
(-0.29917544 0 0)
(-0.34022985 0 0)
(-0.37772526 0 0)
(-0.41177959 0 0)
(-0.44250217 0 0)
(-0.47002584 0 0)
(-0.49460431 0 0)
(-0.51662144 0 0)
(-0.53652964 0 0)
(-0.55497905 0 0)
(-0.5728045 0 0)
(-0.03332359 0 0)
(-0.095847542 0 0)
(-0.15335929 0 0)
(-0.20639651 0 0)
(-0.25532496 0 0)
(-0.30042273 0 0)
(-0.3418687 0 0)
(-0.3798198 0 0)
(-0.41438881 0 0)
(-0.44565349 0 0)
(-0.47369701 0 0)
(-0.49867028 0 0)
(-0.52083452 0 0)
(-0.54056933 0 0)
(-0.55838118 0 0)
(-0.57489996 0 0)
(-0.59099306 0 0)
(-0.033393328 0 0)
(-0.096061772 0 0)
(-0.15373011 0 0)
(-0.20695813 0 0)
(-0.25611945 0 0)
(-0.30151759 0 0)
(-0.34332971 0 0)
(-0.38171566 0 0)
(-0.41678394 0 0)
(-0.44860403 0 0)
(-0.47723193 0 0)
(-0.50274131 0 0)
(-0.52528909 0 0)
(-0.54516541 0 0)
(-0.56276151 0 0)
(-0.57855681 0 0)
(-0.59325278 0 0)
(-0.60774219 0 0)
(-0.033453783 0 0)
(-0.096247143 0 0)
(-0.15404604 0 0)
(-0.20743916 0 0)
(-0.2568084 0 0)
(-0.30247329 0 0)
(-0.34461519 0 0)
(-0.38340321 0 0)
(-0.41895434 0 0)
(-0.45132348 0 0)
(-0.48055486 0 0)
(-0.50669121 0 0)
(-0.52978883 0 0)
(-0.55003393 0 0)
(-0.56772823 0 0)
(-0.58326153 0 0)
(-0.59716792 0 0)
(-0.61013193 0 0)
(-0.62308706 0 0)
(-0.033504824 0 0)
(-0.096405293 0 0)
(-0.15431858 0 0)
(-0.207853 0 0)
(-0.25739477 0 0)
(-0.30329522 0 0)
(-0.3457348 0 0)
(-0.38489241 0 0)
(-0.42089152 0 0)
(-0.45378669 0 0)
(-0.48361679 0 0)
(-0.51039723 0 0)
(-0.53413856 0 0)
(-0.55494307 0 0)
(-0.57300872 0 0)
(-0.58863454 0 0)
(-0.60222857 0 0)
(-0.61431199 0 0)
(-0.62564292 0 0)
(-0.63717506 0 0)
(-0.033548795 0 0)
(-0.096540286 0 0)
(-0.15454754 0 0)
(-0.20820218 0 0)
(-0.25789587 0 0)
(-0.30399992 0 0)
(-0.34670031 0 0)
(-0.38618787 0 0)
(-0.42260316 0 0)
(-0.45599597 0 0)
(-0.48639679 0 0)
(-0.51382434 0 0)
(-0.53827123 0 0)
(-0.55975418 0 0)
(-0.57837438 0 0)
(-0.59435466 0 0)
(-0.60799549 0 0)
(-0.61971565 0 0)
(-0.63009082 0 0)
(-0.6398665 0 0)
(-0.65004093 0 0)
(-0.03358574 0 0)
(-0.096654337 0 0)
(-0.15474403 0 0)
(-0.20849992 0 0)
(-0.25831577 0 0)
(-0.30459581 0 0)
(-0.34752557 0 0)
(-0.38730792 0 0)
(-0.42409734 0 0)
(-0.45794827 0 0)
(-0.4888948 0 0)
(-0.5169493 0 0)
(-0.54209279 0 0)
(-0.56430298 0 0)
(-0.58361171 0 0)
(-0.60016121 0 0)
(-0.61415723 0 0)
(-0.6259101 0 0)
(-0.63586163 0 0)
(-0.64458489 0 0)
(-0.65289743 0 0)
(-0.66181005 0 0)
(-0.033617705 0 0)
(-0.096751449 0 0)
(-0.1549074 0 0)
(-0.20874816 0 0)
(-0.25867081 0 0)
(-0.30509901 0 0)
(-0.34822575 0 0)
(-0.388264 0 0)
(-0.42539054 0 0)
(-0.45966185 0 0)
(-0.49110949 0 0)
(-0.51975456 0 0)
(-0.54558029 0 0)
(-0.56854376 0 0)
(-0.58862627 0 0)
(-0.6058863 0 0)
(-0.62044881 0 0)
(-0.63253739 0 0)
(-0.6424706 0 0)
(-0.65071218 0 0)
(-0.65788789 0 0)
(-0.66480504 0 0)
(-0.67251773 0 0)
(-0.033644615 0 0)
(-0.096833102 0 0)
(-0.15504645 0 0)
(-0.20895754 0 0)
(-0.25896445 0 0)
(-0.30551858 0 0)
(-0.3488147 0 0)
(-0.38907663 0 0)
(-0.42649964 0 0)
(-0.46114623 0 0)
(-0.49305742 0 0)
(-0.52225785 0 0)
(-0.54872912 0 0)
(-0.5724274 0 0)
(-0.59331113 0 0)
(-0.61135991 0 0)
(-0.62663657 0 0)
(-0.63930265 0 0)
(-0.64956415 0 0)
(-0.65776307 0 0)
(-0.6643881 0 0)
(-0.67006699 0 0)
(-0.67567443 0 0)
(-0.68227167 0 0)
(-0.033668243 0 0)
(-0.096902431 0 0)
(-0.15516125 0 0)
(-0.20913041 0 0)
(-0.25921107 0 0)
(-0.30586834 0 0)
(-0.34930728 0 0)
(-0.38975977 0 0)
(-0.42744346 0 0)
(-0.46242661 0 0)
(-0.49475173 0 0)
(-0.52445734 0 0)
(-0.55153624 0 0)
(-0.57594167 0 0)
(-0.59761626 0 0)
(-0.61650552 0 0)
(-0.6326081 0 0)
(-0.64600744 0 0)
(-0.65683902 0 0)
(-0.66534107 0 0)
(-0.67186566 0 0)
(-0.67692942 0 0)
(-0.68120724 0 0)
(-0.68556617 0 0)
(-0.69110679 0 0)
(-0.033688296 0 0)
(-0.096960722 0 0)
(-0.15525884 0 0)
(-0.2092753 0 0)
(-0.25941354 0 0)
(-0.30615718 0 0)
(-0.34971664 0 0)
(-0.39033291 0 0)
(-0.42824148 0 0)
(-0.46351788 0 0)
(-0.49621564 0 0)
(-0.52638408 0 0)
(-0.55402172 0 0)
(-0.5790845 0 0)
(-0.60151912 0 0)
(-0.6212562 0 0)
(-0.63823693 0 0)
(-0.65246823 0 0)
(-0.6640403 0 0)
(-0.67311781 0 0)
(-0.6799279 0 0)
(-0.68485631 0 0)
(-0.68844153 0 0)
(-0.69136615 0 0)
(-0.69455688 0 0)
(-0.69911474 0 0)
(-0.033706036 0 0)
(-0.09701009 0 0)
(-0.15533968 0 0)
(-0.20939468 0 0)
(-0.25958255 0 0)
(-0.30639548 0 0)
(-0.35005504 0 0)
(-0.39080916 0 0)
(-0.42891183 0 0)
(-0.46444643 0 0)
(-0.49746981 0 0)
(-0.52804742 0 0)
(-0.55619526 0 0)
(-0.5818732 0 0)
(-0.60502567 0 0)
(-0.62557786 0 0)
(-0.64345518 0 0)
(-0.65859925 0 0)
(-0.67103251 0 0)
(-0.6808632 0 0)
(-0.68823447 0 0)
(-0.69341474 0 0)
(-0.69680066 0 0)
(-0.69896126 0 0)
(-0.70062113 0 0)
(-0.70269969 0 0)
(-0.70633049 0 0)
(-0.033721411 0 0)
(-0.097051864 0 0)
(-0.15540861 0 0)
(-0.20949477 0 0)
(-0.25972164 0 0)
(-0.30659191 0 0)
(-0.35033433 0 0)
(-0.39120565 0 0)
(-0.4294733 0 0)
(-0.46522829 0 0)
(-0.49853792 0 0)
(-0.529482 0 0)
(-0.55808915 0 0)
(-0.58432322 0 0)
(-0.60814055 0 0)
(-0.62947132 0 0)
(-0.64822036 0 0)
(-0.66430148 0 0)
(-0.6776755 0 0)
(-0.68837409 0 0)
(-0.69650408 0 0)
(-0.70224212 0 0)
(-0.70585123 0 0)
(-0.70776819 0 0)
(-0.70858057 0 0)
(-0.70902217 0 0)
(-0.7100631 0 0)
(-0.71283261 0 0)
(-0.033734795 0 0)
(-0.097086894 0 0)
(-0.15546674 0 0)
(-0.20957865 0 0)
(-0.25983895 0 0)
(-0.30675407 0 0)
(-0.3505642 0 0)
(-0.3915336 0 0)
(-0.42994149 0 0)
(-0.46588746 0 0)
(-0.4994429 0 0)
(-0.53070309 0 0)
(-0.5597191 0 0)
(-0.58646111 0 0)
(-0.61089155 0 0)
(-0.63294032 0 0)
(-0.65251929 0 0)
(-0.66953084 0 0)
(-0.68388603 0 0)
(-0.69555099 0 0)
(-0.70457553 0 0)
(-0.71107567 0 0)
(-0.7152183 0 0)
(-0.71731686 0 0)
(-0.71781572 0 0)
(-0.7173337 0 0)
(-0.71663905 0 0)
(-0.71669452 0 0)
(-0.71865505 0 0)
(-0.033745737 0 0)
(-0.097117544 0 0)
(-0.15551718 0 0)
(-0.20965009 0 0)
(-0.25993806 0 0)
(-0.30688988 0 0)
(-0.35075487 0 0)
(-0.39180632 0 0)
(-0.43033221 0 0)
(-0.46643864 0 0)
(-0.50020601 0 0)
(-0.53174389 0 0)
(-0.56112112 0 0)
(-0.58831229 0 0)
(-0.61329461 0 0)
(-0.63601327 0 0)
(-0.65637116 0 0)
(-0.67426616 0 0)
(-0.68960103 0 0)
(-0.70228415 0 0)
(-0.71229623 0 0)
(-0.71969389 0 0)
(-0.72459737 0 0)
(-0.7272137 0 0)
(-0.72785548 0 0)
(-0.72700736 0 0)
(-0.72530124 0 0)
(-0.72351609 0 0)
(-0.72265524 0 0)
(-0.72386444 0 0)
(-0.033614317 0 0)
(-0.097141089 0 0)
(-0.15556246 0 0)
(-0.2097137 0 0)
(-0.26002411 0 0)
(-0.3070043 0 0)
(-0.35091349 0 0)
(-0.39203352 0 0)
(-0.43065857 0 0)
(-0.46690226 0 0)
(-0.50084915 0 0)
(-0.53262089 0 0)
(-0.56231283 0 0)
(-0.58990491 0 0)
(-0.61538647 0 0)
(-0.63870822 0 0)
(-0.65978452 0 0)
(-0.67851887 0 0)
(-0.69479685 0 0)
(-0.7085042 0 0)
(-0.71956723 0 0)
(-0.72797579 0 0)
(-0.73379705 0 0)
(-0.7371673 0 0)
(-0.73829255 0 0)
(-0.73753794 0 0)
(-0.73539209 0 0)
(-0.73251569 0 0)
(-0.72971638 0 0)
(-0.72798745 0 0)
(-0.72849386 0 0)
(-0.033455928 0 0)
(-0.096854451 0 0)
(-0.15560035 0 0)
(-0.20976986 0 0)
(-0.26010215 0 0)
(-0.30710456 0 0)
(-0.35104899 0 0)
(-0.39222566 0 0)
(-0.4309334 0 0)
(-0.46729044 0 0)
(-0.50138925 0 0)
(-0.53336297 0 0)
(-0.56332877 0 0)
(-0.59126894 0 0)
(-0.61718872 0 0)
(-0.64106064 0 0)
(-0.6627975 0 0)
(-0.68230157 0 0)
(-0.69947067 0 0)
(-0.71418102 0 0)
(-0.72631209 0 0)
(-0.73579768 0 0)
(-0.74264893 0 0)
(-0.74693261 0 0)
(-0.74880074 0 0)
(-0.74850233 0 0)
(-0.74640231 0 0)
(-0.74302818 0 0)
(-0.73904815 0 0)
(-0.73527918 0 0)
(-0.73274523 0 0)
(-0.73260004 0 0)
(-0.033312124 0 0)
(-0.096373647 0 0)
(-0.1551804 0 0)
(-0.20982156 0 0)
(-0.26017364 0 0)
(-0.30719315 0 0)
(-0.35116626 0 0)
(-0.39239086 0 0)
(-0.43116697 0 0)
(-0.46761946 0 0)
(-0.50184567 0 0)
(-0.53398548 0 0)
(-0.56418556 0 0)
(-0.59243016 0 0)
(-0.61873967 0 0)
(-0.64309704 0 0)
(-0.66542716 0 0)
(-0.68564707 0 0)
(-0.70364867 0 0)
(-0.71930515 0 0)
(-0.73248993 0 0)
(-0.74308489 0 0)
(-0.7510387 0 0)
(-0.75636902 0 0)
(-0.75916032 0 0)
(-0.75958435 0 0)
(-0.75789665 0 0)
(-0.75451275 0 0)
(-0.74995877 0 0)
(-0.74492872 0 0)
(-0.74026131 0 0)
(-0.73696662 0 0)
(-0.73621438 0 0)
(-0.033184878 0 0)
(-0.095938911 0 0)
(-0.15442066 0 0)
(-0.20927941 0 0)
(-0.26024186 0 0)
(-0.30727906 0 0)
(-0.35127416 0 0)
(-0.39253663 0 0)
(-0.43136909 0 0)
(-0.46789899 0 0)
(-0.5022308 0 0)
(-0.53451111 0 0)
(-0.56491291 0 0)
(-0.59341805 0 0)
(-0.62006225 0 0)
(-0.6448535 0 0)
(-0.66771989 0 0)
(-0.68858111 0 0)
(-0.70734741 0 0)
(-0.7238982 0 0)
(-0.7380885 0 0)
(-0.74978049 0 0)
(-0.75887561 0 0)
(-0.76533345 0 0)
(-0.76918453 0 0)
(-0.77051849 0 0)
(-0.7695316 0 0)
(-0.76652156 0 0)
(-0.76190368 0 0)
(-0.75623806 0 0)
(-0.75022123 0 0)
(-0.74469743 0 0)
(-0.74069928 0 0)
(-0.73938461 0 0)
(-0.033074331 0 0)
(-0.095551412 0 0)
(-0.15373374 0 0)
(-0.20827184 0 0)
(-0.25959596 0 0)
(-0.30735584 0 0)
(-0.35137392 0 0)
(-0.39267095 0 0)
(-0.43154811 0 0)
(-0.4681416 0 0)
(-0.50256019 0 0)
(-0.53495392 0 0)
(-0.56552557 0 0)
(-0.59425415 0 0)
(-0.62119116 0 0)
(-0.64635989 0 0)
(-0.66969682 0 0)
(-0.6911419 0 0)
(-0.71060922 0 0)
(-0.72797744 0 0)
(-0.74311276 0 0)
(-0.7558702 0 0)
(-0.7661092 0 0)
(-0.77373791 0 0)
(-0.77873696 0 0)
(-0.78113897 0 0)
(-0.78105994 0 0)
(-0.77871911 0 0)
(-0.77442294 0 0)
(-0.7686332 0 0)
(-0.76190371 0 0)
(-0.7549524 0 0)
(-0.74863833 0 0)
(-0.74397699 0 0)
(-0.74214055 0 0)
(-0.032982096 0 0)
(-0.095216863 0 0)
(-0.15312318 0 0)
(-0.20735864 0 0)
(-0.25836838 0 0)
(-0.30661596 0 0)
(-0.35147027 0 0)
(-0.39279713 0 0)
(-0.43171081 0 0)
(-0.46835509 0 0)
(-0.50284358 0 0)
(-0.53533056 0 0)
(-0.56604749 0 0)
(-0.59496495 0 0)
(-0.62214858 0 0)
(-0.64764853 0 0)
(-0.67140459 0 0)
(-0.69336269 0 0)
(-0.71345807 0 0)
(-0.73158462 0 0)
(-0.74759946 0 0)
(-0.76135541 0 0)
(-0.77270941 0 0)
(-0.78152215 0 0)
(-0.78771673 0 0)
(-0.79128381 0 0)
(-0.79227583 0 0)
(-0.79081861 0 0)
(-0.78716035 0 0)
(-0.78164461 0 0)
(-0.77473208 0 0)
(-0.76700553 0 0)
(-0.75917936 0 0)
(-0.75211403 0 0)
(-0.74684089 0 0)
(-0.74452237 0 0)
(-0.03290781 0 0)
(-0.094934485 0 0)
(-0.15259628 0 0)
(-0.20655265 0 0)
(-0.25725732 0 0)
(-0.30518213 0 0)
(-0.35064408 0 0)
(-0.39291865 0 0)
(-0.43186609 0 0)
(-0.46854796 0 0)
(-0.50309259 0 0)
(-0.53565413 0 0)
(-0.56649139 0 0)
(-0.5955676 0 0)
(-0.6229633 0 0)
(-0.6487479 0 0)
(-0.67286445 0 0)
(-0.69528024 0 0)
(-0.71594214 0 0)
(-0.73474789 0 0)
(-0.75156817 0 0)
(-0.76626323 0 0)
(-0.77867356 0 0)
(-0.78864176 0 0)
(-0.79605621 0 0)
(-0.8008503 0 0)
(-0.8030215 0 0)
(-0.80263273 0 0)
(-0.79984374 0 0)
(-0.79492337 0 0)
(-0.78822636 0 0)
(-0.78025345 0 0)
(-0.77157617 0 0)
(-0.76292539 0 0)
(-0.7551696 0 0)
(-0.74932156 0 0)
(-0.74655795 0 0)
(-0.032853164 0 0)
(-0.094709481 0 0)
(-0.15215367 0 0)
(-0.20585568 0 0)
(-0.2562789 0 0)
(-0.3038919 0 0)
(-0.34903397 0 0)
(-0.392026 0 0)
(-0.43200978 0 0)
(-0.46872987 0 0)
(-0.50331698 0 0)
(-0.53593539 0 0)
(-0.56687478 0 0)
(-0.59608412 0 0)
(-0.62365539 0 0)
(-0.6496856 0 0)
(-0.6741191 0 0)
(-0.69693056 0 0)
(-0.71808875 0 0)
(-0.73751227 0 0)
(-0.75506991 0 0)
(-0.77062078 0 0)
(-0.78401941 0 0)
(-0.79510489 0 0)
(-0.80372489 0 0)
(-0.80976584 0 0)
(-0.81318028 0 0)
(-0.81397831 0 0)
(-0.81224952 0 0)
(-0.80816497 0 0)
(-0.80202275 0 0)
(-0.79421023 0 0)
(-0.78522541 0 0)
(-0.77566176 0 0)
(-0.76624177 0 0)
(-0.75783145 0 0)
(-0.75145452 0 0)
(-0.74828065 0 0)
(-0.032817354 0 0)
(-0.09454068 0 0)
(-0.15180146 0 0)
(-0.20527564 0 0)
(-0.25543428 0 0)
(-0.30275123 0 0)
(-0.34758074 0 0)
(-0.39025964 0 0)
(-0.43105642 0 0)
(-0.46889576 0 0)
(-0.50352237 0 0)
(-0.5361886 0 0)
(-0.5672095 0 0)
(-0.59652811 0 0)
(-0.62424763 0 0)
(-0.65048707 0 0)
(-0.67518804 0 0)
(-0.69834587 0 0)
(-0.71994528 0 0)
(-0.73991232 0 0)
(-0.75812971 0 0)
(-0.77447239 0 0)
(-0.78879044 0 0)
(-0.8009189 0 0)
(-0.8106941 0 0)
(-0.81797531 0 0)
(-0.82267284 0 0)
(-0.82473725 0 0)
(-0.82419737 0 0)
(-0.82115878 0 0)
(-0.81582747 0 0)
(-0.80851889 0 0)
(-0.79963135 0 0)
(-0.78969606 0 0)
(-0.77929055 0 0)
(-0.76914873 0 0)
(-0.76013867 0 0)
(-0.7532672 0 0)
(-0.74971656 0 0)
(-0.032801929 0 0)
(-0.094432124 0 0)
(-0.15153971 0 0)
(-0.20481375 0 0)
(-0.25473381 0 0)
(-0.30177341 0 0)
(-0.34630317 0 0)
(-0.38866741 0 0)
(-0.4291411 0 0)
(-0.46788221 0 0)
(-0.50371284 0 0)
(-0.53641798 0 0)
(-0.56750686 0 0)
(-0.59691645 0 0)
(-0.62475714 0 0)
(-0.65117414 0 0)
(-0.67610707 0 0)
(-0.69956031 0 0)
(-0.72153877 0 0)
(-0.74199114 0 0)
(-0.76080368 0 0)
(-0.77785381 0 0)
(-0.79300891 0 0)
(-0.80611249 0 0)
(-0.81699079 0 0)
(-0.82547943 0 0)
(-0.8314543 0 0)
(-0.83482353 0 0)
(-0.83555747 0 0)
(-0.83370343 0 0)
(-0.82939857 0 0)
(-0.82285873 0 0)
(-0.8144275 0 0)
(-0.80452949 0 0)
(-0.79369083 0 0)
(-0.78250432 0 0)
(-0.77169141 0 0)
(-0.76211504 0 0)
(-0.75478982 0 0)
(-0.75089338 0 0)
(-0.094382123 0 0)
(-0.032801294 0 0)
(-0.15137278 0 0)
(-0.20447576 0 0)
(-0.25417794 0 0)
(-0.30095937 0 0)
(-0.34520536 0 0)
(-0.38726862 0 0)
(-0.42741931 0 0)
(-0.46582676 0 0)
(-0.50263909 0 0)
(-0.53663208 0 0)
(-0.56778009 0 0)
(-0.59726204 0 0)
(-0.62520157 0 0)
(-0.65176768 0 0)
(-0.67689355 0 0)
(-0.7006004 0 0)
(-0.72291121 0 0)
(-0.74378516 0 0)
(-0.76311877 0 0)
(-0.78081109 0 0)
(-0.79673333 0 0)
(-0.8107299 0 0)
(-0.82263434 0 0)
(-0.83227709 0 0)
(-0.83949577 0 0)
(-0.84417072 0 0)
(-0.8462366 0 0)
(-0.84566709 0 0)
(-0.84253636 0 0)
(-0.83699835 0 0)
(-0.82930164 0 0)
(-0.81980245 0 0)
(-0.80893596 0 0)
(-0.79725344 0 0)
(-0.78532786 0 0)
(-0.77388808 0 0)
(-0.76379398 0 0)
(-0.75604734 0 0)
(-0.75183515 0 0)
(-0.15130003 0 0)
(-0.094380253 0 0)
(-0.032816839 0 0)
(-0.20426261 0 0)
(-0.25377454 0 0)
(-0.30031945 0 0)
(-0.34429778 0 0)
(-0.38606875 0 0)
(-0.42590447 0 0)
(-0.46398028 0 0)
(-0.50045494 0 0)
(-0.53550926 0 0)
(-0.56802444 0 0)
(-0.59757464 0 0)
(-0.62559659 0 0)
(-0.6522853 0 0)
(-0.67757567 0 0)
(-0.70149602 0 0)
(-0.72408758 0 0)
(-0.74533163 0 0)
(-0.76512927 0 0)
(-0.78338551 0 0)
(-0.79999152 0 0)
(-0.81480666 0 0)
(-0.8276653 0 0)
(-0.83839144 0 0)
(-0.84680883 0 0)
(-0.85277042 0 0)
(-0.85617477 0 0)
(-0.85694909 0 0)
(-0.85509846 0 0)
(-0.85071826 0 0)
(-0.84399425 0 0)
(-0.83518149 0 0)
(-0.82466072 0 0)
(-0.81288845 0 0)
(-0.80040727 0 0)
(-0.78779909 0 0)
(-0.77577745 0 0)
(-0.76519759 0 0)
(-0.75706547 0 0)
(-0.75256444 0 0)
(-0.20417706 0 0)
(-0.15130278 0 0)
(-0.094425131 0 0)
(-0.032851726 0 0)
(-0.25352341 0 0)
(-0.29985452 0 0)
(-0.34358353 0 0)
(-0.38507785 0 0)
(-0.42460847 0 0)
(-0.46235525 0 0)
(-0.49848744 0 0)
(-0.53320756 0 0)
(-0.56686599 0 0)
(-0.5978588 0 0)
(-0.62595336 0 0)
(-0.6527431 0 0)
(-0.67816894 0 0)
(-0.70226878 0 0)
(-0.72510255 0 0)
(-0.7466641 0 0)
(-0.76686061 0 0)
(-0.7856197 0 0)
(-0.80284301 0 0)
(-0.81839498 0 0)
(-0.83212044 0 0)
(-0.84385146 0 0)
(-0.85340835 0 0)
(-0.86061564 0 0)
(-0.86533324 0 0)
(-0.86746932 0 0)
(-0.8669789 0 0)
(-0.86387551 0 0)
(-0.85828688 0 0)
(-0.85041313 0 0)
(-0.8405382 0 0)
(-0.82905047 0 0)
(-0.81641483 0 0)
(-0.80319141 0 0)
(-0.78993989 0 0)
(-0.77737726 0 0)
(-0.76635434 0 0)
(-0.75786676 0 0)
(-0.75310344 0 0)
(-0.25342907 0 0)
(-0.20419143 0 0)
(-0.15138015 0 0)
(-0.094530973 0 0)
(-0.032906924 0 0)
(-0.29957096 0 0)
(-0.34306985 0 0)
(-0.38430078 0 0)
(-0.4235372 0 0)
(-0.46096639 0 0)
(-0.49676068 0 0)
(-0.53113405 0 0)
(-0.5644532 0 0)
(-0.59666233 0 0)
(-0.6262788 0 0)
(-0.65315713 0 0)
(-0.67869305 0 0)
(-0.70294278 0 0)
(-0.72597832 0 0)
(-0.74781383 0 0)
(-0.7683612 0 0)
(-0.78755538 0 0)
(-0.80531834 0 0)
(-0.82153319 0 0)
(-0.83605159 0 0)
(-0.848708 0 0)
(-0.85932251 0 0)
(-0.86771787 0 0)
(-0.87372187 0 0)
(-0.87720711 0 0)
(-0.87810098 0 0)
(-0.87635748 0 0)
(-0.87202877 0 0)
(-0.86526319 0 0)
(-0.85629021 0 0)
(-0.84539593 0 0)
(-0.83298925 0 0)
(-0.81955065 0 0)
(-0.8056273 0 0)
(-0.79178366 0 0)
(-0.77872066 0 0)
(-0.7672848 0 0)
(-0.7584725 0 0)
(-0.75347057 0 0)
(-0.29946873 0 0)
(-0.25345599 0 0)
(-0.20430594 0 0)
(-0.15155357 0 0)
(-0.094696681 0 0)
(-0.032981196 0 0)
(-0.34275923 0 0)
(-0.3837437 0 0)
(-0.42269929 0 0)
(-0.45981856 0 0)
(-0.49528136 0 0)
(-0.52931558 0 0)
(-0.56228571 0 0)
(-0.59414968 0 0)
(-0.62505315 0 0)
(-0.65352654 0 0)
(-0.67916506 0 0)
(-0.70353752 0 0)
(-0.72674239 0 0)
(-0.74881026 0 0)
(-0.76965396 0 0)
(-0.78922919 0 0)
(-0.80747255 0 0)
(-0.82427495 0 0)
(-0.83950084 0 0)
(-0.85299835 0 0)
(-0.86459458 0 0)
(-0.87410239 0 0)
(-0.88133961 0 0)
(-0.8861489 0 0)
(-0.88841339 0 0)
(-0.88806848 0 0)
(-0.885103 0 0)
(-0.8795808 0 0)
(-0.87168328 0 0)
(-0.86165078 0 0)
(-0.84979268 0 0)
(-0.83652078 0 0)
(-0.82232053 0 0)
(-0.8077499 0 0)
(-0.79335041 0 0)
(-0.77982463 0 0)
(-0.76801245 0 0)
(-0.75890333 0 0)
(-0.75368599 0 0)
(-0.34265459 0 0)
(-0.29951006 0 0)
(-0.25360582 0 0)
(-0.20454906 0 0)
(-0.15182212 0 0)
(-0.094921438 0 0)
(-0.033074838 0 0)
(-0.38341072 0 0)
(-0.42209933 0 0)
(-0.45892205 0 0)
(-0.49406178 0 0)
(-0.52775755 0 0)
(-0.56037931 0 0)
(-0.59188868 0 0)
(-0.62244568 0 0)
(-0.65227936 0 0)
(-0.67958329 0 0)
(-0.70406879 0 0)
(-0.72741525 0 0)
(-0.74967824 0 0)
(-0.7707785 0 0)
(-0.79067938 0 0)
(-0.80933555 0 0)
(-0.82665749 0 0)
(-0.84251969 0 0)
(-0.85678003 0 0)
(-0.86926813 0 0)
(-0.87980607 0 0)
(-0.88820943 0 0)
(-0.8942964 0 0)
(-0.89791613 0 0)
(-0.89897118 0 0)
(-0.89741472 0 0)
(-0.89324231 0 0)
(-0.88656069 0 0)
(-0.87756752 0 0)
(-0.86652864 0 0)
(-0.85375109 0 0)
(-0.8396621 0 0)
(-0.82475746 0 0)
(-0.80957875 0 0)
(-0.79466978 0 0)
(-0.7807167 0 0)
(-0.76855674 0 0)
(-0.75917696 0 0)
(-0.75376445 0 0)
(-0.38330332 0 0)
(-0.34271174 0 0)
(-0.2996948 0 0)
(-0.25391105 0 0)
(-0.2049181 0 0)
(-0.15218406 0 0)
(-0.095204944 0 0)
(-0.033186768 0 0)
(-0.42174204 0 0)
(-0.45828109 0 0)
(-0.49310768 0 0)
(-0.52647371 0 0)
(-0.55875031 0 0)
(-0.58990521 0 0)
(-0.62010029 0 0)
(-0.64958066 0 0)
(-0.67831706 0 0)
(-0.7045442 0 0)
(-0.7280153 0 0)
(-0.75044132 0 0)
(-0.77175594 0 0)
(-0.79193644 0 0)
(-0.81095477 0 0)
(-0.82873068 0 0)
(-0.84515162 0 0)
(-0.8600921 0 0)
(-0.87339574 0 0)
(-0.88488149 0 0)
(-0.89436573 0 0)
(-0.90166704 0 0)
(-0.90660552 0 0)
(-0.90904449 0 0)
(-0.90889893 0 0)
(-0.9061382 0 0)
(-0.90079631 0 0)
(-0.89299102 0 0)
(-0.88295063 0 0)
(-0.87094767 0 0)
(-0.85730659 0 0)
(-0.84245259 0 0)
(-0.82688287 0 0)
(-0.81114432 0 0)
(-0.79575968 0 0)
(-0.78141352 0 0)
(-0.768937 0 0)
(-0.75931196 0 0)
(-0.75372421 0 0)
(-0.42162998 0 0)
(-0.38337385 0 0)
(-0.34292996 0 0)
(-0.30006154 0 0)
(-0.25437083 0 0)
(-0.20541327 0 0)
(-0.15263767 0 0)
(-0.09554393 0 0)
(-0.033316603 0 0)
(-0.45790085 0 0)
(-0.49242671 0 0)
(-0.52546954 0 0)
(-0.55740453 0 0)
(-0.58820754 0 0)
(-0.61804519 0 0)
(-0.6471583 0 0)
(-0.67553444 0 0)
(-0.70325752 0 0)
(-0.72855173 0 0)
(-0.7511216 0 0)
(-0.77261563 0 0)
(-0.79303274 0 0)
(-0.81235768 0 0)
(-0.83052838 0 0)
(-0.84744337 0 0)
(-0.86299192 0 0)
(-0.87702434 0 0)
(-0.88937167 0 0)
(-0.89985764 0 0)
(-0.90829297 0 0)
(-0.91448874 0 0)
(-0.91828052 0 0)
(-0.91954427 0 0)
(-0.91821321 0 0)
(-0.91427994 0 0)
(-0.90778964 0 0)
(-0.89890044 0 0)
(-0.88785312 0 0)
(-0.87494062 0 0)
(-0.86048052 0 0)
(-0.84490846 0 0)
(-0.82872654 0 0)
(-0.81246464 0 0)
(-0.79664539 0 0)
(-0.78193796 0 0)
(-0.76917141 0 0)
(-0.75932264 0 0)
(-0.75357714 0 0)
(-0.45778431 0 0)
(-0.42170886 0 0)
(-0.38362004 0 0)
(-0.34335561 0 0)
(-0.30061035 0 0)
(-0.25498265 0 0)
(-0.20602877 0 0)
(-0.15317973 0 0)
(-0.095938349 0 0)
(-0.033463513 0 0)
(-0.49202316 0 0)
(-0.52475301 0 0)
(-0.55635362 0 0)
(-0.5868084 0 0)
(-0.61628647 0 0)
(-0.64503232 0 0)
(-0.67303888 0 0)
(-0.70039425 0 0)
(-0.72725224 0 0)
(-0.75172211 0 0)
(-0.77337988 0 0)
(-0.79399528 0 0)
(-0.81358296 0 0)
(-0.83209399 0 0)
(-0.84943646 0 0)
(-0.86551746 0 0)
(-0.8802054 0 0)
(-0.89333407 0 0)
(-0.90473016 0 0)
(-0.91421489 0 0)
(-0.92159689 0 0)
(-0.92668909 0 0)
(-0.92933605 0 0)
(-0.92943482 0 0)
(-0.92693094 0 0)
(-0.92184023 0 0)
(-0.91424501 0 0)
(-0.90431165 0 0)
(-0.8923082 0 0)
(-0.87853024 0 0)
(-0.86330608 0 0)
(-0.84706414 0 0)
(-0.83030763 0 0)
(-0.81356626 0 0)
(-0.79734363 0 0)
(-0.78230584 0 0)
(-0.76927517 0 0)
(-0.75922591 0 0)
(-0.75333979 0 0)
(-0.49189937 0 0)
(-0.45787204 0 0)
(-0.42198013 0 0)
(-0.38409348 0 0)
(-0.34398401 0 0)
(-0.3013354 0 0)
(-0.25574223 0 0)
(-0.20676491 0 0)
(-0.15380801 0 0)
(-0.096383976 0 0)
(-0.033626354 0 0)
(-0.52433009 0 0)
(-0.55560224 0 0)
(-0.58571395 0 0)
(-0.61483869 0 0)
(-0.64321699 0 0)
(-0.67084799 0 0)
(-0.6978236 0 0)
(-0.72431007 0 0)
(-0.75041723 0 0)
(-0.77405171 0 0)
(-0.79484764 0 0)
(-0.81465691 0 0)
(-0.83345704 0 0)
(-0.85117106 0 0)
(-0.86772129 0 0)
(-0.88298604 0 0)
(-0.89681204 0 0)
(-0.9090398 0 0)
(-0.91948976 0 0)
(-0.92797116 0 0)
(-0.93429565 0 0)
(-0.93828004 0 0)
(-0.93978571 0 0)
(-0.93872575 0 0)
(-0.93506997 0 0)
(-0.92885826 0 0)
(-0.92018519 0 0)
(-0.90925262 0 0)
(-0.89633652 0 0)
(-0.88174752 0 0)
(-0.86580302 0 0)
(-0.848936 0 0)
(-0.83165204 0 0)
(-0.81446585 0 0)
(-0.79787627 0 0)
(-0.78253569 0 0)
(-0.76926559 0 0)
(-0.75903305 0 0)
(-0.75302084 0 0)
(-0.52420094 0 0)
(-0.49199499 0 0)
(-0.45816648 0 0)
(-0.42249495 0 0)
(-0.38478886 0 0)
(-0.34481508 0 0)
(-0.30223611 0 0)
(-0.25664537 0 0)
(-0.20761348 0 0)
(-0.15451861 0 0)
(-0.096879941 0 0)
(-0.0337627 0 0)
(-0.55515688 0 0)
(-0.58493308 0 0)
(-0.61370647 0 0)
(-0.64171978 0 0)
(-0.66897913 0 0)
(-0.69557324 0 0)
(-0.72166953 0 0)
(-0.74739826 0 0)
(-0.77274409 0 0)
(-0.79560035 0 0)
(-0.81560666 0 0)
(-0.83465265 0 0)
(-0.85268407 0 0)
(-0.86963857 0 0)
(-0.88541346 0 0)
(-0.89986311 0 0)
(-0.91283377 0 0)
(-0.9241611 0 0)
(-0.93366027 0 0)
(-0.94113514 0 0)
(-0.94639399 0 0)
(-0.94926956 0 0)
(-0.94963855 0 0)
(-0.94743587 0 0)
(-0.94264707 0 0)
(-0.93533785 0 0)
(-0.92563552 0 0)
(-0.91374656 0 0)
(-0.89996964 0 0)
(-0.88461408 0 0)
(-0.86800102 0 0)
(-0.85055293 0 0)
(-0.83277802 0 0)
(-0.81518575 0 0)
(-0.79825835 0 0)
(-0.78264264 0 0)
(-0.76915392 0 0)
(-0.75875961 0 0)
(-0.75260793 0 0)
(-0.55502042 0 0)
(-0.52430408 0 0)
(-0.49230743 0 0)
(-0.45872139 0 0)
(-0.42325399 0 0)
(-0.38570581 0 0)
(-0.34583986 0 0)
(-0.30330276 0 0)
(-0.25768707 0 0)
(-0.20857314 0 0)
(-0.15530399 0 0)
(-0.097184644 0 0)
(-0.033757238 0 0)
(-0.58446978 0 0)
(-0.61289994 0 0)
(-0.6405517 0 0)
(-0.6674378 0 0)
(-0.69365113 0 0)
(-0.71936102 0 0)
(-0.74469409 0 0)
(-0.7696525 0 0)
(-0.79428903 0 0)
(-0.81644471 0 0)
(-0.83570967 0 0)
(-0.85401009 0 0)
(-0.8713142 0 0)
(-0.88753199 0 0)
(-0.90252841 0 0)
(-0.91616712 0 0)
(-0.92828996 0 0)
(-0.93871479 0 0)
(-0.94725355 0 0)
(-0.95371235 0 0)
(-0.95790188 0 0)
(-0.95966627 0 0)
(-0.95890734 0 0)
(-0.95557445 0 0)
(-0.94968153 0 0)
(-0.94131696 0 0)
(-0.93061824 0 0)
(-0.91782094 0 0)
(-0.90322843 0 0)
(-0.88715927 0 0)
(-0.86991949 0 0)
(-0.85193263 0 0)
(-0.83370745 0 0)
(-0.81574211 0 0)
(-0.79850756 0 0)
(-0.78264102 0 0)
(-0.76895689 0 0)
(-0.75833096 0 0)
(-0.75208008 0 0)
(-0.58432793 0 0)
(-0.55512296 0 0)
(-0.52463361 0 0)
(-0.49290122 0 0)
(-0.45953875 0 0)
(-0.4242489 0 0)
(-0.38683523 0 0)
(-0.34705775 0 0)
(-0.30453442 0 0)
(-0.25886094 0 0)
(-0.20963214 0 0)
(-0.15575484 0 0)
(-0.097182665 0 0)
(-0.033751032 0 0)
(-0.61242226 0 0)
(-0.63971738 0 0)
(-0.6662363 0 0)
(-0.69206982 0 0)
(-0.71738933 0 0)
(-0.7423266 0 0)
(-0.7668863 0 0)
(-0.7911276 0 0)
(-0.815136 0 0)
(-0.83663479 0 0)
(-0.85517871 0 0)
(-0.87278114 0 0)
(-0.88938248 0 0)
(-0.90486088 0 0)
(-0.91908726 0 0)
(-0.93192026 0 0)
(-0.94319017 0 0)
(-0.95270678 0 0)
(-0.96027791 0 0)
(-0.96571276 0 0)
(-0.96882587 0 0)
(-0.96948194 0 0)
(-0.96760243 0 0)
(-0.96316245 0 0)
(-0.95619129 0 0)
(-0.94680256 0 0)
(-0.93515966 0 0)
(-0.92149905 0 0)
(-0.90614262 0 0)
(-0.88940347 0 0)
(-0.87158495 0 0)
(-0.85309834 0 0)
(-0.83445841 0 0)
(-0.81615297 0 0)
(-0.79863865 0 0)
(-0.78254586 0 0)
(-0.76851083 0 0)
(-0.75775739 0 0)
(-0.75145412 0 0)
(-0.61227752 0 0)
(-0.58443516 0 0)
(-0.55546657 0 0)
(-0.52526017 0 0)
(-0.493769 0 0)
(-0.46060807 0 0)
(-0.42547816 0 0)
(-0.38817334 0 0)
(-0.34845655 0 0)
(-0.30592028 0 0)
(-0.26015847 0 0)
(-0.21022347 0 0)
(-0.15574765 0 0)
(-0.097177395 0 0)
(-0.033743753 0 0)
(-0.6392243 0 0)
(-0.66537917 0 0)
(-0.69083512 0 0)
(-0.71576944 0 0)
(-0.74030904 0 0)
(-0.764464 0 0)
(-0.78829675 0 0)
(-0.81190634 0 0)
(-0.83533882 0 0)
(-0.85620339 0 0)
(-0.87407315 0 0)
(-0.89100338 0 0)
(-0.90689795 0 0)
(-0.92164396 0 0)
(-0.93511185 0 0)
(-0.94713821 0 0)
(-0.95754396 0 0)
(-0.96614266 0 0)
(-0.97273527 0 0)
(-0.97712718 0 0)
(-0.97916157 0 0)
(-0.97871898 0 0)
(-0.97573768 0 0)
(-0.97021104 0 0)
(-0.96219857 0 0)
(-0.95183138 0 0)
(-0.93928148 0 0)
(-0.92480764 0 0)
(-0.90873286 0 0)
(-0.89137365 0 0)
(-0.8730164 0 0)
(-0.85406966 0 0)
(-0.83504848 0 0)
(-0.81643487 0 0)
(-0.79866584 0 0)
(-0.78207924 0 0)
(-0.76784692 0 0)
(-0.75708897 0 0)
(-0.75072247 0 0)
(-0.63907351 0 0)
(-0.61238942 0 0)
(-0.58479053 0 0)
(-0.55611633 0 0)
(-0.52617357 0 0)
(-0.49491017 0 0)
(-0.46192987 0 0)
(-0.42692995 0 0)
(-0.38971084 0 0)
(-0.35003304 0 0)
(-0.30745063 0 0)
(-0.26086921 0 0)
(-0.21022164 0 0)
(-0.15574005 0 0)
(-0.097172126 0 0)
(-0.033736232 0 0)
(-0.66487302 0 0)
(-0.68995595 0 0)
(-0.71450456 0 0)
(-0.73864847 0 0)
(-0.76240232 0 0)
(-0.78582425 0 0)
(-0.80901462 0 0)
(-0.83204227 0 0)
(-0.85492084 0 0)
(-0.87520485 0 0)
(-0.89243085 0 0)
(-0.90868454 0 0)
(-0.92388188 0 0)
(-0.93790706 0 0)
(-0.95061293 0 0)
(-0.96182456 0 0)
(-0.97135836 0 0)
(-0.9790237 0 0)
(-0.9846232 0 0)
(-0.98797654 0 0)
(-0.9889328 0 0)
(-0.9873952 0 0)
(-0.98332469 0 0)
(-0.97674305 0 0)
(-0.96772162 0 0)
(-0.95641347 0 0)
(-0.94301086 0 0)
(-0.92776963 0 0)
(-0.91102665 0 0)
(-0.89308923 0 0)
(-0.8742361 0 0)
(-0.85486367 0 0)
(-0.83549668 0 0)
(-0.81660128 0 0)
(-0.79817756 0 0)
(-0.78128965 0 0)
(-0.76710172 0 0)
(-0.75632754 0 0)
(-0.74988969 0 0)
(-0.66472029 0 0)
(-0.63918703 0 0)
(-0.61275699 0 0)
(-0.58546788 0 0)
(-0.55707341 0 0)
(-0.52737571 0 0)
(-0.49631282 0 0)
(-0.46348918 0 0)
(-0.42860068 0 0)
(-0.39143967 0 0)
(-0.35176872 0 0)
(-0.30828676 0 0)
(-0.26086767 0 0)
(-0.21021599 0 0)
(-0.15573128 0 0)
(-0.097162552 0 0)
(-0.033726945 0 0)
(-0.68943595 0 0)
(-0.71360546 0 0)
(-0.7373551 0 0)
(-0.76070498 0 0)
(-0.78371735 0 0)
(-0.80649281 0 0)
(-0.82909844 0 0)
(-0.8515686 0 0)
(-0.8739434 0 0)
(-0.89367669 0 0)
(-0.91025624 0 0)
(-0.92584474 0 0)
(-0.94036006 0 0)
(-0.95366494 0 0)
(-0.96559698 0 0)
(-0.97598412 0 0)
(-0.98463588 0 0)
(-0.9913526 0 0)
(-0.99594377 0 0)
(-0.99824407 0 0)
(-0.99812932 0 0)
(-0.99551304 0 0)
(-0.99038042 0 0)
(-0.98277126 0 0)
(-0.97278411 0 0)
(-0.960584 0 0)
(-0.94636921 0 0)
(-0.93041102 0 0)
(-0.9130444 0 0)
(-0.89457472 0 0)
(-0.8752628 0 0)
(-0.85550204 0 0)
(-0.8358171 0 0)
(-0.81608911 0 0)
(-0.79723608 0 0)
(-0.78043923 0 0)
(-0.76627793 0 0)
(-0.75546572 0 0)
(-0.74894754 0 0)
(-0.68927892 0 0)
(-0.66483751 0 0)
(-0.6395643 0 0)
(-0.61345756 0 0)
(-0.58646142 0 0)
(-0.55832701 0 0)
(-0.52885212 0 0)
(-0.49797415 0 0)
(-0.46528444 0 0)
(-0.43047828 0 0)
(-0.39334507 0 0)
(-0.35271199 0 0)
(-0.308298 0 0)
(-0.2608638 0 0)
(-0.21020893 0 0)
(-0.15572062 0 0)
(-0.097149887 0 0)
(-0.033716495 0 0)
(-0.71307384 0 0)
(-0.73643258 0 0)
(-0.75938425 0 0)
(-0.78198694 0 0)
(-0.80434348 0 0)
(-0.82652662 0 0)
(-0.84857278 0 0)