/*--------------------------------*- C++ -*----------------------------------*\
| =========                 |                                                 |
| \\      /  F ield         | OpenFOAM: The Open Source CFD Toolbox           |
|  \\    /   O peration     | Version:  v2012                                 |
|   \\  /    A nd           | Website:  www.openfoam.com                      |
|    \\/     M anipulation  |                                                 |
\*---------------------------------------------------------------------------*/
FoamFile
{
    version     2.0;
    format      ascii;
    class       surfaceScalarField;
    location    "106.217607682188273";
    object      meshPhi;
}
// * * * * * * * * * * * * * * * * * * * * * * * * * * * * * * * * * * * * * //

dimensions      [0 3 -1 0 0 0 0];
oriented        oriented;


internalField   nonuniform List<scalar> 
18180
(
-1.0120797e-13
0.051047253
0
0.047814128
-9.7437725e-14
0.10099006
0
0.044890731
0
0.094370835
0
0.14906799
0
0.042562752
0
0.088760294
0
0.13949613
9.0220003e-14
0.19457043
-2.3770069e-17
0.040660807
0
0.083972896
-9.3818053e-14
0.13099558
0
0.18222555
0
0.23793143
-5.0660152e-14
0.038847544
-4.8770836e-14
0.079728261
9.3822868e-14
0.1234993
9.0255767e-14
0.17101477
0
0.22274823
0
0.27855153
-5.0701589e-14
0.037046612
2.3018119e-17
0.075829367
4.6914324e-14
0.11685888
0
0.16086988
0
0.20887132
0
0.26097793
0
0.31686346
0
0.035227212
0
0.072069333
0
0.11080153
-9.0346551e-14
0.15172189
-4.3467228e-14
0.19605488
-8.3656713e-14
0.24468185
0
0.29689132
0
0.35251848
0
0.033405122
0
0.068355177
4.6940569e-14
0.10507084
4.5186132e-14
0.14341818
0
0.18436117
4.184002e-14
0.22946834
0
0.27854625
0
0.33056786
0
0.38570598
0
0.031606079
0
0.06468312
0
0.0995366
4.5198481e-14
0.13575013
1.8817652e-17
0.17384877
-4.1852617e-14
0.21550115
4.0275927e-14
0.26132628
-7.7522203e-14
0.31038604
0
0.36180879
-2.7102737e-17
0.41623926
0
0.029858202
0
0.061073895
0
0.094140883
-4.5210113e-14
0.12848899
0
0.16424324
1.7817245e-17
0.2027725
-1.7222087e-17
0.24528649
-3.8772796e-14
0.29141259
-3.0147535e-17
0.33997746
0
0.39066442
0
0.44436547
0
0.028181537
0
0.057565052
-4.6996342e-14
0.08889118
0
0.12150832
4.3497268e-14
0.15527281
0
0.19124058
-8.0569589e-14
0.2306937
-1.644958e-17
0.27365898
7.4640401e-14
0.31941731
7.1824271e-14
0.36732434
0
0.41712866
0
0.47014995
-2.5376781e-14
0.026587261
0
0.054185384
-4.6982665e-14
0.083814832
0
0.11477504
0
0.14676422
0
0.18062331
0
0.21737774
-3.8783353e-14
0.2572396
-1.5235885e-17
0.29998643
7.1862584e-14
0.34526897
-6.9178654e-14
0.39239175
0
0.44143494
-2.0832095e-17
0.49369554
-5.0775352e-14
0.02507861
0
0.050959418
0
0.078944315
0
0.10829378
8.703462e-14
0.13859948
4.1900677e-14
0.17059229
-4.0327355e-14
0.20505158
-3.881334e-14
0.24212151
3.7355627e-14
0.28179683
-7.1890582e-14
0.32424922
-3.4602064e-14
0.36902375
-6.6607042e-14
0.41540207
0
0.46357005
-1.8982916e-17
0.51510602
-1.3446021e-17
0.023662526
0
0.04790725
2.3510243e-14
0.074307865
0
0.10208823
0
0.1307525
4.1892486e-14
0.16101656
0
0.19350756
0
0.22819046
0
0.26496807
0
0.3045047
-1.3125601e-17
0.34676841
3.3304781e-14
0.39086156
-6.4132892e-14
0.4363646
0
0.48374167
-5.9422602e-14
0.53457979
0
0.022338884
0
0.045038449
-2.3501557e-14
0.069925054
0
0.096175319
0
0.12322537
0
0.15183042
0
0.18254701
0
0.21524023
0
0.24952262
-3.5982392e-14
0.28618281
-3.4618857e-14
0.32575861
3.3307439e-14
0.3674959
0
0.4108046
6.1733031e-14
0.45545181
0
0.50200866
-5.7217493e-14
0.55229472
-2.540433e-14
0.021098553
0
0.042352313
-1.1790029e-17
0.065800042
-2.2629573e-14
0.090568501
0
0.11602722
0
0.14301933
0
0.17206171
0
0.20302904
0
0.23523478
3.5997099e-14
0.26922351
3.4647963e-14
0.30616903
-3.3335275e-14
0.34559325
-1.1157623e-17
0.3865551
3.0890316e-14
0.42893536
5.944438e-14
0.47272197
5.723368e-14
0.51862813
5.5081191e-14
0.56831243
5.0799739e-14
0.019932138
2.4431922e-14
0.039837571
0
0.061927672
0
0.085271788
-9.8416326e-18
0.10917005
2.0967317e-14
0.13458348
0
0.16200897
0
0.19139882
-1.5312369e-17
0.22186237
0
0.25361193
0
0.2880534
-3.3364305e-14
0.32515151
1.1405999e-17
0.36383679
-1.0120942e-17
0.40385704
5.948212e-14
0.44536696
-5.7257808e-14
0.48839212
0
0.53363196
5.3040403e-14
0.58278734
0
0.018829062
0
0.037485675
2.3507825e-14
0.058296862
0
0.0802765
-9.825523e-18
0.10265779
2.096117e-14
0.12652913
0
0.15237519
0
0.18026528
0
0.20921236
0
0.23909616
0
0.27116721
0
0.30594971
-3.2129211e-14
0.34257974
0
0.38037204
-9.1445746e-18
0.41952219
2.8643856e-14
0.46021854
-1.4416563e-17
0.50255357
0
0.54721072
0
0.59585252
0
0.017781252
0
0.035280461
0
0.054888325
0
0.075569302
-9.7813565e-18
0.09648435
-9.152936e-18
0.11886237
0
0.14316388
1.9438525e-14
0.16959916
0
0.19713639
0
0.22538765
-3.4692193e-14
0.25539526
0
0.28793858
0
0.32247528
-1.043101e-17
0.35827629
9.3013851e-18
0.39528629
-8.2558379e-18
0.43365501
0
0.4736745
0
0.51535044
0
0.55943455
0
0.60767183
0
0.016783808
0
0.033208556
0
0.051683836
-2.2625774e-14
0.071127607
-2.1788897e-14
0.09063978
0
0.11158546
-2.0193248e-14
0.13438409
1.9433443e-14
0.15940102
-1.871138e-14
0.18558588
0
0.21236019
3.4704875e-14
0.24060102
3.339868e-14
0.27105663
0
0.30342916
0
0.33725364
0
0.37241477
2.8679061e-14
0.40876257
5.5187257e-14
0.4464822
-2.6556635e-14
0.48582306
-5.1130189e-14
0.52688928
0
0.57049016
4.7365998e-14
0.61827579
0
0.015834288
0
0.031256586
0
0.048661802
2.2638155e-14
0.066933767
0
0.085112157
0
0.10469271
2.0186883e-14
0.12604244
3.8872929e-14
0.14967995
0
0.17455113
7.1157491e-18
0.19992263
0
0.22658024
0
0.25519904
-3.2178961e-14
0.28552486
0
0.31727974
-2.9816455e-14
0.35054635
-2.8697993e-14
0.38520469
0
0.42102076
-6.8042676e-18
0.45809768
0
0.49681475
0
0.53730194
0
0.58041285
-4.5623063e-14
0.62779296
-1.2700067e-14
0.014928821
0
0.029411686
0
0.045801028
0
0.062964386
0
0.079887786
2.0969543e-14
0.098174554
-2.0197605e-14
0.11813977
0
0.14044102
-8.1734392e-18
0.16403609
-7.1660847e-18
0.18805268
1.7363449e-14
0.21324184
0
0.2402487
0
0.26876942
0
0.29851796
0
0.32978626
-2.8717233e-14
0.36269401
2.7631693e-14
0.39691068
-2.6593545e-14
0.43214413
-6.1528931e-18
0.46861474
0
0.50671938
0
0.54668321
0
0.58932787
0
0.63631058
-7.3021106e-18
0.014065091
6.1690607e-18
0.027663699
0
0.043085537
0
0.059201431
0
0.074952218
0
0.092019513
0
0.11067015
1.9441304e-14
0.13168215
-1.8721517e-14
0.15404154
-7.2065458e-18
0.17674167
-3.4729651e-14
0.2005361
0
0.22609181
0
0.25304384
0
0.28102854
2.9843114e-14
0.31037699
-2.8727597e-14
0.34134966
0
0.37381808
0
0.40753386
0
0.44223363
0
0.47811225
0
0.51569033
0
0.5550999
0
0.59729972
0
0.64395544
-2.5409017e-14
0.013240728
1.2226139e-14
0.026006804
-1.1756664e-14
0.040506276
0
0.055630021
0
0.07029084
-8.8748426e-18
0.086213413
0
0.10362355
-1.9443213e-14
0.1233977
-8.3833913e-18
0.14456229
-1.8032263e-14
0.16598705
3.4737961e-14
0.18844136
0
0.2126484
6.0347575e-18
0.23820641
0
0.26465929
0
0.29225701
-2.8755145e-14
0.32137382
0
0.3519725
2.6633912e-14
0.38396664
-6.4791921e-18
0.41721526
2.4674338e-14
0.45138628
2.3739165e-14
0.48674785
2.2849322e-14
0.52375553
0
0.56265831
0
0.60445018
-5.9982811e-18
0.65074653
0
0.012453769
1.2226405e-14
0.024435121
-1.1763119e-14
0.038056735
5.6757981e-18
0.052239501
0
0.065886266
0
0.080738917
2.0193386e-14
0.096986201
1.944484e-14
0.11557772
0
0.13559016
-7.2737682e-18
0.15578452
-1.7369326e-14
0.17694351
0
0.19987804
0
0.22415485
1.5518667e-14
0.24923627
0
0.27530144
0
0.30274472
0
0.33155379
0
0.36165323
-2.566091e-14
0.3932066
0
0.42602668
-2.3759475e-14
0.45974029
-2.2868205e-14
0.49456542
2.2005805e-14
0.53103791
0
0.56942287
0
0.61081891
0
0.65677777
-1.2708812e-14
0.011702877
-1.2220417e-14
0.022943634
0
0.035731354
1.1320628e-14
0.049022756
0
0.06172546
0
0.075580034
0
0.090744284
0
0.10820895
-1.8728122e-14
0.12711315
1.804498e-14
0.14612591
-1.7379163e-14
0.16603426
0
0.1877538
-1.6120524e-14
0.21082602
1.5519157e-14
0.23464691
0
0.25935892
0
0.2852613
2.7717547e-14
0.31241974
-7.5320165e-18
0.34077627
0
0.3704534
0
0.40165787
0
0.43409995
2.288411e-14
0.46733128
2.2020521e-14
0.50164294
0
0.53756466
0
0.57548556
0
0.61648055
3.7793555e-14
0.66210777
0
0.010986613
-6.2195585e-18
0.02152766
-1.1757206e-14
0.033525265
2.2635926e-14
0.045974286
-1.0897256e-14
0.057799414
1.0491489e-14
0.070723471
0
0.084879759
0
0.10127546
-1.8738406e-14
0.1191158
-1.8039856e-14
0.13699926
1.7381944e-14
0.15570382
0
0.17625562
0
0.19818562
-5.6906482e-18
0.22080562
-1.4956487e-14
0.24426884
4.6958585e-18
0.26878579
0
0.29439985
0
0.32118049
2.569616e-14
0.34916592
2.4732796e-14
0.3785273
4.7611398e-14
0.40941466
-2.2910789e-14
0.44145854
2.2045489e-14
0.47422558
-2.1212546e-14
0.50802693
0
0.54345579
-3.9286747e-14
0.58087102
0
0.62149498
-3.6404709e-14
0.66682929
0
0.010303162
-1.2220757e-14
0.020185955
-1.1763616e-14
0.031433471
-1.1315288e-14
0.043088242
0
0.054099432
-1.0491722e-14
0.066155857
-1.0098034e-14
0.079374964
-1.9457388e-14
0.094756641
0
0.11157895
1.8041731e-14
0.12839012
0
0.14594026
1.6744962e-14
0.16536733
0
0.18620463
0
0.20766692
1.4957224e-14
0.22995212
0
0.25322023
0
0.27741557
0
0.30267852
0
0.32919378
2.4754154e-14
0.35692448
-2.3830798e-14
0.38597717
2.2928251e-14
0.41653602
2.2063058e-14
0.44817463
2.1233336e-14
0.48048224
-3.4380369e-18
0.51382142
1.9656199e-14
0.54871924
0
0.5856778
0
0.62594338
3.5059623e-14
0.67095601
0
0.009647307
0
0.018917488
-1.1757481e-14
0.02945389
1.1315438e-14
0.040359034
4.4333588e-18
0.050615215
0
0.061864033
1.0094195e-14
0.074212951
-9.7291494e-15
0.088633487
0
0.10448235
0
0.12028199
0
0.13672901
1.6740895e-14
0.15507113
6.6343312e-18
0.17486042
-1.5539484e-14
0.19520062
0
0.21635031
-1.4416066e-14
0.23847074
0
0.26139401
1.3368755e-14
0.28522998
-2.57429e-14
0.3103326
-6.5653744e-18
0.33667889
-5.8808256e-18
0.36409186
-2.2956168e-14
0.39284817
2.2090468e-14
0.42306163
-4.1401862e-18
0.45429442
-2.0447648e-14
0.48618438
-3.9352023e-14
0.51905428
-2.6434651e-18
0.55345114
-4.4058795e-18
0.58994624
0
0.62986824
-3.2073348e-18
0.6745523
4.4314466e-05
0.010584054
0
0.017712294
-1.1763888e-14
0.027582822
0
0.037782104
0
0.047337667
1.0492088e-14
0.057834246
-1.0102786e-14
0.06937704
0
0.082887334
4.4556962e-18
0.097806881
-1.8052125e-14
0.11265523
0
0.12805388
1.6743189e-14
0.1453491
0
0.16413026
0
0.18337993
0
0.20342831
0
0.22446711
-4.4309672e-18
0.24623739
1.3372833e-14
0.26877642
0
0.29247105
0
0.31751594
0
0.34363295
2.2978871e-14
0.37074355
-2.2108807e-14
0.39918568
0
0.42905356
0
0.45988392
-1.9694774e-14
0.49135667
-1.8952574e-14
0.5237812
3.6471123e-14
0.55767716
-3.5100811e-14
0.59376043
0
0.63331878
-3.2529226e-14
0.67766723
7.4498001e-05
0.010556069
0.00012123757
0.019285552
0
0.025809009
0
0.035351003
0
0.044259894
-4.2390921e-18
0.054054148
1.0103028e-14
0.0648496
-4.4986471e-18
0.077502107
1.8734208e-14
0.091532978
-9.0192145e-15
0.10548965
1.7389669e-14
0.1198935
0
0.13617954
1.6131333e-14
0.1539907
0
0.1721826
5.4035997e-18
0.19115644
-1.4427044e-14
0.21116255
0
0.23186243
-1.3384076e-14
0.2532217
-1.2889081e-14
0.27559995
0
0.29933724
0
0.32426968
0
0.35008781
0
0.37690465
2.1297638e-14
0.40504812
-2.0492638e-14
0.43453623
-3.4458123e-18
0.46496423
-1.8969782e-14
0.49604225
1.8251909e-14
0.52804141
2.145174e-18
0.56148732
0
0.59715168
0
0.63635283
3.1330435e-14
0.68036724
9.2064995e-05
0.010520489
0.0002039072
0.019297869
0.00018589091
0.027863095
0
0.033045775
0
0.041374811
0
0.050513096
0
0.060616692
9.730232e-15
0.0724602
-9.372009e-15
0.085643075
9.0234376e-15
0.098760335
-8.6922188e-15
0.11222442
0
0.1275377
0
0.14441633
-1.5549596e-14
0.16158374
-1.4980488e-14
0.17951352
1.4431668e-14
0.19852558
1.3897393e-14
0.21820803
0
0.23848247
2.5786416e-14
0.25966829
0
0.28209339
3.2162401e-18
0.30579616
0
0.33051272
0
0.35606837
-2.1325732e-14
0.38262505
4.1036536e-14
0.41044012
-1.9743264e-14
0.43954957
0
0.46957191
0
0.50028714
-1.7582283e-14
0.53190705
0
0.56491873
0
0.60020552
0
0.63902844
0
0.6826685
9.8617456e-05
0.010479891
0.00025212758
0.019291374
0.00031263343
0.027935053
0.00024208592
0.035371141
0
0.038654882
0
0.047199811
0
0.056660046
-4.5150693e-18
0.06774635
0
0.080119184
-1.8051496e-14
0.092443264
8.6959996e-15
0.10501821
3.4741268e-18
0.11939787
0
0.13538055
0
0.15156088
-1.4983748e-14
0.16847869
0
0.18653016
1.3906981e-14
0.20523866
0
0.22448461
0
0.24457206
1.2424303e-14
0.26576655
0
0.28818324
-1.1518823e-14
0.31177589
0
0.33629265
0
0.36161996
-2.0544218e-14
0.38790738
0
0.41539439
3.803185e-14
0.44410052
3.6588634e-14
0.47375121
-1.7599158e-14
0.50414512
-2.1175836e-18
0.53541615
0
0.56804378
3.1363604e-14
0.6029541
0
0.64138004
2.9070899e-14
0.68460835
9.5789555e-05
0.01043467
0.0002702177
0.01927161
0.00038664649
0.027979407
0.0004069062
0.035520716
0.00028410799
0.041053421
0
0.044083229
0
0.052961536
9.7262826e-15
0.063338569
-4.5611782e-18
0.074942304
3.7946846e-18
0.086515311
-8.6932478e-15
0.098251034
8.3747947e-15
0.11173639
8.0721534e-15
0.12685831
0
0.14209036
0
0.15803097
-1.4439375e-14
0.17515659
1.3911399e-14
0.19292459
0
0.21118309
-3.7511525e-18
0.23024693
0
0.25031536
1.1969485e-14
0.27146761
-2.9782655e-18
0.29381747
2.752424e-18
0.31730202
0
0.34165597
0
0.36676368
0
0.39278326
0
0.4199161
0
0.44824668
-1.7622643e-14
0.47753625
0
0.50764404
-1.9247522e-18
0.53861291
-1.5694747e-14
0.570891
0
0.6054538
0
0.6434225
0
0.6862218
8.5259375e-05
0.010384743
0.00026263324
0.019239235
0.00041453657
0.02800439
0.00050297935
0.035624711
0.00047725743
0.041313611
0.00031598712
0.046474423
1.009938e-14
0.049489542
0
0.059215809
0
0.070091827
-3.8136565e-18
0.080955181
8.6968231e-15
0.091898553
-8.3753414e-15
0.10453109
-8.0729093e-15
0.11882816
0
0.13314974
1.498907e-14
0.14815087
-1.4437125e-14
0.16438442
1.3910439e-14
0.1812442
0
0.19854756
-1.291619e-14
0.21663761
0
0.2356732
0
0.25564499
1.1537741e-14
0.27669586
0
0.29900434
1.0696814e-14
0.32243485
0
0.34663068
0
0.37152925
-1.9065553e-14
0.39726526
0
0.42405433
0
0.45199852
0
0.48096079
0
0.51081575
-1.5711875e-14
0.54153229
-1.5117825e-14
0.57351371
0
0.60770146
0
0.64519257
0
0.68754731
6.8733765e-05
0.010331115
0.00023393668
0.019194978
0.00040316361
0.028011453
0.00053912493
0.035700761
0.00058973515
0.041513134
0.00053077292
0.046877828
0.00034470898
0.051847945
9.7264454e-15
0.055348803
-9.3732344e-15
0.065546759
0
0.075741787
-3.1415769e-18
0.085942466
0
0.097762364
-8.0698102e-15
0.11126825
-3.0486701e-18
0.12471966
0
0.13881913
0
0.15419524
0
0.17017747
1.3406859e-14
0.18655302
0
0.20370894
-1.2444782e-14
0.22178138
-1.1991159e-14
0.24066615
0
0.26046863
-2.6767989e-18
0.28147927
0
0.30383712
1.0306705e-14
0.32722317
0
0.35126462
0
0.37593278
-1.8366331e-14
0.40138067
0
0.42782067
0
0.45540382
-1.635e-14
0.48404316
1.5729374e-14
0.51369937
0
0.544216
-1.4562394e-14
0.5759209
0
0.60974833
0
0.64670755
0
0.68859611
4.7902548e-05
0.01027484
0.00018876017
0.01914149
0.00035940572
0.028002256
0.00052429425
0.03575053
0.00063193844
0.041673051
0.00065587319
0.047207808
0.00057943137
0.052470538
0.00037267593
0.057613921
-9.3731274e-15
0.061270859
0
0.070852872
0
0.080359122
-8.3796832e-15
0.091409816
8.0741394e-15
0.10415907
0
0.11678017
7.4938032e-15
0.13001759
7.221074e-15
0.14456838
0
0.15970555
0
0.17518049
0
0.19143257
0
0.20859645
1.1997746e-14
0.2264769
0
0.24512313
-1.1127465e-14
0.26484528
-2.5138842e-18
0.28595972
0
0.30838519
-9.9285056e-15
0.33169448
0
0.35556057
0
0.379992
0
0.40514489
0
0.43125234
1.6369236e-14
0.45846393
1.57468e-14
0.48682764
1.5150966e-14
0.51632615
-1.4825301e-18
0.54668694
1.4027648e-14
0.57814918
-2.7006373e-14
0.61157549
0
0.64798837
-2.5037273e-14
0.68938675
2.4444842e-05
0.01021699
0.00013168378
0.019080976
0.0002903026
0.027978677
0.00046748198
0.035775261
0.00061444267
0.041794151
0.0007029171
0.047486258
0.00071647888
0.053004741
0.00062697409
0.058463795
0.00039980151
0.063360763
0
0.066242076
0
0.075127941
0
0.085452655
-3.8627471e-18
0.097476107
3.0482268e-18
0.10931289
0
0.1217259
7.2220886e-15
0.13548478
0
0.14980772
0
0.16440989
0
0.17978811
0
0.19608724
0
0.21302378
0
0.23060386
0
0.24912281
-1.0726346e-14
0.26893864
-2.3975682e-18
0.29020924
9.9394769e-15
0.31267055
9.5684237e-15
0.33586965
0
0.35954841
0
0.38372418
0
0.40858956
0
0.43435979
0
0.46123206
-1.5169557e-14
0.48933256
1.4594009e-14
0.51872211
2.80821e-14
0.54895675
0
0.58018218
2.6014155e-14
0.6132181
0
0.64902536
2.4120194e-14
0.68995328
0.010158219
0
6.7276865e-05
0.019015519
0.00020277997
0.027943207
0.00037770671
0.035775659
0.00054781966
0.041876641
0.00068361332
0.047713822
0.00076849698
0.053469826
0.00077593979
0.059207285
0.0006727831
0.064435265
0.00042148746
0.068064281
0
0.070204908
0
0.079871701
0
0.091200912
-7.7807078e-15
0.10229704
2.7261632e-18
0.11392682
0
0.12692334
6.9606874e-15
0.14046266
2.1387365e-18
0.1542223
0
0.16875538
0
0.18422724
1.2005655e-14
0.20027085
-1.1569999e-14
0.21685092
0
0.23426097
0
0.25285128
0
0.27288817
-1.9904619e-14
0.29428797
0
0.31670133
0
0.33977585
0
0.36323725
0
0.38715491
0
0.41173234
0
0.43718283
0
0.46371479
1.4610353e-14
0.4915934
0
0.52089773
-1.352679e-14
0.55103997
1.3017174e-14
0.58205096
0
0.61462748
0
0.64984839
2.323803e-14
0.69031847
0.01894629
0
0.010100333
-2.4167075e-05
0.00010374889
0.027897918
0.00026395713
0.035754114
0.00044260441
0.041921579
0.0006096566
0.047890018
0.00074801366
0.053865475
0.00083292944
0.059857073
0.00083281164
0.065371572
0.00070915747
0.069355431
0.00043477178
0.071668657
0
0.074635909
-8.0715174e-15
0.085310402
0
0.095713579
-2.7194626e-18
0.10660073
2.9439488e-18
0.11886439
0
0.13164892
6.7095186e-15
0.14459655
-6.4664054e-15
0.15831258
0
0.17299503
0
0.1881882
-2.7952944e-18
0.20381957
0
0.22020114
-1.0740306e-14
0.23766995
0
0.25648887
0
0.27671802
0
0.2981529
0
0.32049961
-8.8806114e-15
0.34341607
1.7091632e-14
0.36665104
1.6441472e-14
0.39029777
0
0.41459489
0
0.43973582
0
0.46595484
-1.4074795e-14
0.49362199
1.2130197e-18
0.5228841
1.3028096e-14
0.55294917
0
0.58371247
0
0.61584416
0
0.65046684
2.2388733e-14
0.6904952
0.027844156
0
0.018876707
-6.6688643e-05
0.010045557
-4.684091e-05
0.00013512355
0.035712909
0.00030931848
0.041930894
0.00049274516
0.048015016
0.00066765557
0.054190905
0.00081131904
0.060412456
0.00089411566
0.066186647
0.00087772995
0.070475546
0.00073140145
0.073172265
0.00044496827
0.075751797
0
0.079763325
0
0.089540353
0
0.099725244
-2.9794303e-18
0.11128198
-6.962439e-15
0.12334527
-6.7127223e-15
0.13551232
-1.9407316e-14
0.14843965
-6.231381e-15
0.16236589
0
0.17675061
0
0.19147817
-2.3988578e-18
0.20688662
-1.0747439e-14
0.22331872
1.0352088e-14
0.24099945
9.9692575e-15
0.26004357
1.9199314e-14
0.28039927
9.2395924e-15
0.3018256
0
0.32407036
0
0.34681983
0
0.36979685
0
0.39316628
0
0.41719562
0
0.44204703
-1.4093531e-14
0.46795644
-1.2109819e-18
0.49545469
0
0.52469203
-1.2552419e-14
0.5546866
-2.4162037e-14
0.58519153
0
0.61684508
0
0.65090493
2.1571064e-14
0.69048874
0.035652859
0
0.027785439
-0.00010318044
0.018809131
-0.00012943236
0.0099956821
-6.6524375e-05
0.00015835356
0.041906693
0.00034449338
0.04809037
0.00054007684
0.054444026
0.00072474331
0.060872677
0.00087106336
0.066880409
0.00094215806
0.071451416
0.00090514884
0.074481872
0.00074883176
0.077532264
0.00045757835
0.080523394
-7.7785435e-15
0.083724431
0
0.09327888
7.2279955e-15
0.1041531
6.9631478e-15
0.11552452
2.1282474e-18
0.12694944
0
0.13911687
-1.24717e-14
0.15231797
1.7390642e-18
0.1659325
-1.1582445e-14
0.17979878
0
0.19428212
0
0.20974376
0
0.22637739
-9.9778673e-15
0.24428223
-9.6104289e-15
0.26350757
9.2500908e-15
0.28394437
8.903364e-15
0.30532895
8.5678127e-15
0.32744923
8.2448788e-15
0.3499906
1.585939e-14
0.37268964
0
0.39577875
1.4673995e-14
0.41955566
0
0.44412924
0
0.46976191
0
0.49711191
0
0.52634712
-9.3543862e-19
0.55624476
0
0.58646581
0
0.61767271
0
0.65115128
0
0.69033871
0.041849197
0
0.035579945
-0.00013456396
0.027723491
-0.00020059892
0.018744963
-0.00018407697
0.0099521306
-8.1747153e-05
0.00017643827
0.048117648
0.00037791402
0.054624526
0.00058666799
0.061236231
0.00077816508
0.067452196
0.00091773184
0.072282587
0.00097160634
0.07562908
0.00092699273
0.079106272
0.00077042882
0.082614978
0.00046734541
0.084052201
7.4970509e-15
0.087217452
0
0.097453817
0
0.10816489
-2.124964e-18
0.11888584
6.4720298e-15
0.13032571
0
0.1428272
0
0.15570915
-1.1587793e-14
0.16875604
0
0.18235922
0
0.19690334
0
0.21256754
-9.9879928e-15
0.22941121
2.2130192e-18
0.24750017
0
0.26689429
8.9162058e-15
0.28737027
0
0.30865725
0
0.33063677
-7.9415905e-15
0.3529432
0
0.37533331
0
0.39815047
0
0.42169262
0
0.44601034
0
0.47139004
1.2579168e-14
0.49862445
1.2104607e-14
0.52784451
-2.3297634e-14
0.55763542
1.121314e-14
0.5875729
0
0.61828942
0
0.65123941
-2.0025626e-14
0.69005911
0.048096674
0
0.041767949
-0.00015772426
0.035494703
-0.00026179327
0.027657644
-0.00028574955
0.018685724
-0.00022648959
0.009917348
-9.1115313e-05
0.00019371169
0.054732797
0.00041079233
0.061501532
0.00062998961
0.067901672
0.00081975411
0.072968913
0.00094638626
0.076611621
0.00099531799
0.080486446
0.00095422847
0.084465742
0.00078704927
0.08640887
0.00047119426
0.08708302
0
0.091139099
0
0.10124123
0
0.1112999
-1.998292e-18
0.12204448
2.1215698e-18
0.13387249
6.0120251e-15
0.1460541
-1.1591285e-14
0.15832297
5.5863799e-15
0.17109011
0
0.18476653
0
0.19952172
0
0.21538641
9.6254165e-15
0.23238775
9.2715151e-15
0.25066527
0
0.27019902
1.7182203e-14
0.29065622
-1.8553032e-18
0.31183838
0
0.33363969
0
0.35566386
0
0.37774287
0
0.40029614
0
0.42361811
0
0.44771039
1.1037685e-18
0.47287375
1.2117576e-14
0.49999981
0
0.52921095
-7.558012e-19
0.55886605
0
0.58848301
2.0801682e-14
0.61874137
0
0.65118275
-1.9295719e-14
0.68966536
0.054767742
0
0.048040345
-0.00017589875
0.041662864
-0.00030686684
0.035392318
-0.00037312836
0.027589119
-0.00035214594
0.018632891
-0.00025271358
0.0098933861
-9.320028e-05
0.00021068504
0.061668008
0.00044115054
0.068228266
0.00066359236
0.073510478
0.00084537367
0.077429174
0.00096973788
0.081670429
0.0010249983
0.08608742
0.00097505168
0.088487344
0.00079361894
0.089700372
0.00047403594
0.090531829
0
0.094699092
0
0.10416824
6.4717522e-15
0.11424998
-2.1578128e-18
0.12542648
1.8309525e-18
0.13694187
0
0.14847406
0
0.16044771
1.0598931e-18
0.17330168
0
0.1872013
1.0001665e-14
0.20215861
0
0.21814873
9.2779527e-15
0.23531494
0
0.25381048
0
0.27343245
0
0.29381721
7.9649449e-15
0.31486008
0
0.33644665
-7.3703406e-15
0.35816701
0
0.37992622
0
0.40222167
1.3114679e-14
0.42535217
-1.2612737e-14
0.44925035
-1.2132855e-14
0.47421965
-1.1673959e-14
0.50126387
-1.1232893e-14
0.53043598
-6.7823675e-19
0.5599435
1.0408287e-14
0.58922428
2.0042575e-14
0.61902052
0
0.65100525
-1.8592908e-14
0.68915331
0.061734388
0
0.054745514
-0.00019341568
0.047949252
-0.0003423917
0.041526152
-0.00043738058
0.035274765
-0.00046009359
0.027517519
-0.00039342281
0.018587482
-0.0002586984
0.0098805664
-8.6593449e-05
0.00022627831
0.068432145
0.00046465239
0.073906917
0.00068437357
0.078079674
0.00086651392
0.082655529
0.0009990409
0.087475687
0.0010474639
0.090311702
0.00098322221
0.092016827
0.00079867092
0.093440309
0.00047635224
0.093588715
0
0.097433424
0
0.10692035
-2.1926493e-18
0.11746502
6.0142801e-15
0.12834294
5.7991698e-15
0.13918266
0
0.15040666
0
0.16248049
1.0965679e-18
0.17557119
0
0.18967921
-9.6420038e-15
0.20473804
0
0.22085794
-8.945015e-15
0.23825201
8.6125652e-15
0.25692168
-8.2902893e-15
0.27655018
0
0.29683292
-1.678014e-18
0.31771763
7.3820016e-15
0.33905415
7.101208e-15
0.36045632
-1.3658396e-14
0.3818943
0
0.40394788
0
0.42690893
0
0.4506443
-1.1688472e-14
0.47545425
-2.2491894e-14
0.50240139
1.0822333e-14
0.53154024
-2.0833413e-14
0.56085572
1.002819e-14
0.58979057
-1.9312034e-14
0.61916838
1.8599171e-14
0.65069594
0
0.68855805
0.06851265
0
0.061723224
-0.0002105642
0.054664549
-0.00037675142
0.047812037
-0.00048827268
0.041360709
-0.00053931673
0.035143008
-0.00051422
0.027443895
-0.00040316011
0.018548547
-0.00024046815
0.0098794045
-6.9846831e-05
0.00023832767
0.074158535
0.00047926744
0.078562832
0.00070164298
0.083438912
0.000892802
0.088625439
0.00102101
0.091874023
0.0010563458
0.094048719
0.00098956334
0.096014039
0.00080247633
0.096760587
0.00047481028
0.095811267
6.4746705e-15
0.10000848
0
0.10996358
0
0.12023443
5.799022e-15
0.13042357
-5.5903454e-15
0.14094244
0
0.15227675
5.1936456e-15
0.1645989
1.0012754e-14
0.17790824
-9.6460107e-15
0.19209901
0
0.20724935
0
0.2235709
0
0.24118177
0
0.25995861
-7.9889591e-15
0.27954055
0
0.29969666
-1.5804549e-18
0.32039647
-7.1128624e-15
0.34147164
6.8404958e-15
0.36254006
0
0.38365813
1.2652161e-14
0.4054847
-1.216823e-14
0.42830811
0
0.45190706
1.125879e-14
0.47656539
1.0833865e-14
0.50343195
0
0.53249246
-1.0036073e-14
0.56161974
0
0.59021858
1.8608009e-14
0.61915947
0
0.65028335
1.7265194e-14
0.68788827
0.074264779
0
0.06849978
-0.00022619482
0.061633659
-0.00041030342
0.054506987
-0.0005375732
0.047630466
-0.0006023719
0.041167687
-0.00060275899
0.034997294
-0.00052715291
0.027369239
-0.00037504729
0.018517709
-0.00019399122
0.0098921363
-4.1506893e-05
0.00024586093
0.078878295
0.00049145396
0.084017998
0.00072302259
0.089532261
0.00091249425
0.093166682
0.001029739
0.095787558
0.0010632819
0.098265515
0.0009943839
0.099562829
0.00079991631
0.099232235
0.00047046693
0.097880805
0
0.10287309
0
0.11259056
0
0.12217239
5.5916309e-15
0.1320293
-5.3901691e-15
0.14266555
5.1955578e-15
0.15425679
-1.1495891e-18
0.16680835
0
0.18018535
0
0.19443658
0
0.20975938
0
0.22629954
0
0.24408892
7.9993888e-15
0.2629095
-7.6982455e-15
0.28240295
0
0.30240864
-7.1244651e-15
0.32290852
6.8506919e-15
0.34369093
0
0.36442245
0
0.38523099
0
0.40685227
0
0.42955347
0
0.45304546
-1.0845957e-14
0.477564
0
0.50431015
5.1549427e-19
0.53331737
0
0.56223909
9.3096889e-15
0.59049311
-1.7930496e-14
0.61903523
0
0.64977507
1.6637808e-14
0.68715642
0.07902377
0
0.07426103
-0.00023827215
0.068394797
-0.00044082714
0.061441891
-0.00058557528
0.054273424
-0.0006635131
0.047404489
-0.00067358911
0.040945715
-0.0006178549
0.034838076
-0.00049049966
0.027294135
-0.00030272334
0.018494693
-0.00011522429
0.0099181981
0
0.00025214729
0.084391839
0.00050640959
0.090192936
0.00073894311
0.094183668
0.00092032373
0.097226864
0.0010365238
0.10018962
0.0010683722
0.10201488
0.00099116463
0.10225447
0.00079276587
0.10156847
0.00046625498
0.10022702
0
0.10534957
0
0.11440492
0
0.12364324
-5.3925446e-15
0.13361934
0
0.14451714
-5.0107725e-15
0.15634989
4.8282614e-15
0.16895756
-9.3055015e-15
0.18236647
0
0.19676764
0
0.21228991
-8.3189456e-15
0.22902847
-8.0070739e-15
0.2469617
2.0261445e-18
0.26575952
0
0.28511324
0
0.30496822
0
0.32524128
0
0.34572177
0
0.36611751
0
0.38662932
0
0.40805296
1.1289424e-14
0.43066471
1.0859875e-14
0.45405834
0
0.47841331
-4.8030421e-19
0.50506304
9.6779288e-15
0.53398747
-3.4285797e-19
0.56272733
-1.7941074e-14
0.59063745
0
0.6187823
0
0.64919489
-3.2063128e-14
0.686344
0.084557585
0
0.079039879
-0.00024590048
0.074147513
-0.00046444516
0.068168964
-0.00062929631
0.061148535
-0.00072285586
0.053964452
-0.00074221906
0.047134543
-0.00069080377
0.040694098
-0.00057480983
0.034665763
-0.0003959653
0.027216765
-0.00017981581
0.018472914
0
0.0090564862
0
0.0002597882
0.090605715
0.0005174983
0.09492151
0.00074526855
0.098359656
0.00092641575
0.10178166
0.0010414739
0.10410938
0.0010649474
0.10490362
0.00098244543
0.10483536
0.00078579911
0.10418612
0.00046133746
0.1021768
0
0.10705062
0
0.11576087
0
0.12511307
5.1987028e-15
0.13535503
1.1823176e-18
0.14650206
4.8304619e-15
0.15838091
0
0.17099699
-4.4858796e-15
0.18454002
0
0.19911861
0
0.21481997
0
0.23174723
0
0.249765
1.9541538e-18
0.26847743
-1.7239633e-18
0.2876888
-6.8732256e-15
0.3073712
-1.2917891e-18
0.32739835
-6.357843e-15
0.34756626
-6.1127305e-15
0.36764257
0
0.38786188
0
0.40910967
0
0.4316458
0
0.45494421
0
0.47913337
9.6869248e-15
0.50564588
0
0.53452754
0
0.56306606
0
0.59064959
-1.6649696e-14
0.61844286
0
0.64853572
0.0062663399
0.67917031
0.09076827
0
0.084561509
-0.00025220911
0.07892387
-0.00047940622
0.073889537
-0.00066317182
0.067823323
-0.00077702039
0.060754974
-0.00080857818
0.053578388
-0.00076134289
0.046821738
-0.00064300421
0.040415521
-0.00046389212
0.034482105
-0.00023518878
0.027125093
0
0.016971303
0
0.0097070661
-1.2709587e-14
0.00026543538
0.095378233
0.00052191945
0.099180501
0.00075023617
0.10303707
0.00093079795
0.10584026
0.0010381202
0.10716814
0.0010557531
0.107697
0.0009739341
0.10769196
0.00077758553
0.1063681
0.00045376181
0.10336604
0
0.10831022
0
0.11712014
0
0.12673951
-1.0028379e-14
0.13723849
-4.8324079e-15
0.14842367
-4.6577376e-15
0.16028915
-4.4897203e-15
0.17302826
1.061412e-18
0.18673427
0
0.20145613
0
0.2173418
7.7262401e-15
0.2344501
-7.4366757e-15
0.25246173
1.8191983e-18
0.27103852
0
0.29011348
6.6213998e-15
0.30961418
-1.1932254e-18
0.32937814
1.2246214e-14
0.34925022
-5.8878822e-15
0.3690062
0
0.38894608
0
0.41003374
-1.0476255e-14
0.43251629
0
0.45570177
-9.6978028e-15
0.47969254
9.3329384e-15
0.50608907
0
0.53490364
8.6498055e-15
0.56329271
8.3295718e-15
0.59056287
-1.6040264e-14
0.61800109
0.012322852
0.64179728
0.0056991979
0.6724677
0.095551724
0
0.090734869
-0.00025970102
0.084401048
-0.00049166358
0.07863243
-0.00068464309
0.073486283
-0.00081908416
0.067358342
-0.00086947272
0.060260523
-0.00082934452
0.053118767
-0.00070873917
0.046467767
-0.00051921141
0.040111947
-0.00027549885
0.034270678
0
0.025112032
0
0.018145471
-2.4449669e-14
0.010406789
1.2709517e-14
0.00026767742
0.099686266
0.00052540324
0.10395008
0.00075376268
0.10720221
0.00092776176
0.10903754
0.001029272
0.11014207
0.0010466738
0.11075638
0.00096379222
0.11007258
0.00076458352
0.1077592
0.0004435278
0.10413788
0
0.10957223
0
0.11863956
0
0.12852353
4.8341173e-15
0.13905441
0
0.15020953
0
0.16219046
-4.3289615e-15
0.17508216
-8.339442e-15
0.18889963
0
0.20377473
0
0.21985663
0
0.23703272
0
0.25497673
0
0.27344968
0
0.29239373
6.3798269e-15
0.31169583
0
0.33120462
5.8978707e-15
0.35077492
0
0.37022496
0
0.38989818
0
0.41084784
1.0091148e-14
0.43326677
0
0.45633527
0
0.48010995
-1.7984439e-14
0.50635259
0
0.53517836