/*--------------------------------*- C++ -*----------------------------------*\
| =========                 |                                                 |
| \\      /  F ield         | OpenFOAM: The Open Source CFD Toolbox           |
|  \\    /   O peration     | Version:  v2012                                 |
|   \\  /    A nd           | Website:  www.openfoam.com                      |
|    \\/     M anipulation  |                                                 |
\*---------------------------------------------------------------------------*/
FoamFile
{
    version     2.0;
    format      ascii;
    class       pointVectorField;
    location    "106.217607682188273";
    object      pointDisplacement;
}
// * * * * * * * * * * * * * * * * * * * * * * * * * * * * * * * * * * * * * //

dimensions      [0 1 0 0 0 0 0];


internalField   nonuniform List<vector> 
18840
(
(-1.2482852 -0 -0)
(-1.2481326 0 0)
(-1.2476766 0 0)
(-1.2469207 0 0)
(-1.2458674 0 0)
(-1.2445186 0 0)
(-1.2428755 0 0)
(-1.2409386 0 0)
(-1.2387081 0 0)
(-1.2361836 0 0)
(-1.2333644 0 0)
(-1.2302492 0 0)
(-1.2268367 0 0)
(-1.2231251 0 0)
(-1.2191123 0 0)
(-1.214796 0 0)
(-1.2101738 0 0)
(-1.2052432 0 0)
(-1.2000018 0 0)
(-1.1944434 0 0)
(-1.1873999 0 0)
(-1.2482852 -0 -0)
(-1.2481321 0 0)
(-1.2476748 0 0)
(-1.246917 0 0)
(-1.2458615 0 0)
(-1.2445103 0 0)
(-1.2428647 0 0)
(-1.2409255 0 0)
(-1.2386929 0 0)
(-1.2361669 0 0)
(-1.2333466 0 0)
(-1.2302313 0 0)
(-1.2268196 0 0)
(-1.2231099 0 0)
(-1.2191004 0 0)
(-1.2147889 0 0)
(-1.2101734 0 0)
(-1.2052514 0 0)
(-1.2000207 0 0)
(-1.1944768 0 0)
(-1.188632 0 0)
(-1.2482852 -0 -0)
(-1.2481314 0 0)
(-1.2476721 0 0)
(-1.2469113 0 0)
(-1.245852 0 0)
(-1.2444966 0 0)
(-1.2428464 0 0)
(-1.2409025 0 0)
(-1.2386653 0 0)
(-1.2361348 0 0)
(-1.2333105 0 0)
(-1.2301918 0 0)
(-1.2267775 0 0)
(-1.2230662 0 0)
(-1.2190564 0 0)
(-1.2147461 0 0)
(-1.2101334 0 0)
(-1.2052162 0 0)
(-1.1999919 0 0)
(-1.1944579 0 0)
(-1.188548 0 0)
(-1.2482852 -0 -0)
(-1.2481307 0 0)
(-1.2476696 0 0)
(-1.2469061 0 0)
(-1.2458435 0 0)
(-1.2444843 0 0)
(-1.2428301 0 0)
(-1.2408822 0 0)
(-1.2386411 0 0)
(-1.2361071 0 0)
(-1.2332798 0 0)
(-1.2301588 0 0)
(-1.2267431 0 0)
(-1.2230315 0 0)
(-1.2190227 0 0)
(-1.2147152 0 0)
(-1.2101071 0 0)
(-1.2051966 0 0)
(-1.1999817 0 0)
(-1.19446 0 0)
(-1.1884955 0 0)
(-1.2482852 -0 -0)
(-1.2481301 0 0)
(-1.2476673 0 0)
(-1.2469014 0 0)
(-1.2458358 0 0)
(-1.2444732 0 0)
(-1.2428156 0 0)
(-1.2408642 0 0)
(-1.2386199 0 0)
(-1.236083 0 0)
(-1.2332534 0 0)
(-1.2301308 0 0)
(-1.2267144 0 0)
(-1.2230032 0 0)
(-1.2189962 0 0)
(-1.2146921 0 0)
(-1.2100893 0 0)
(-1.2051863 0 0)
(-1.1999817 0 0)
(-1.1944732 0 0)
(-1.1884622 0 0)
(-1.2482852 -0 -0)
(-1.2481296 0 0)
(-1.2476653 0 0)
(-1.246897 0 0)
(-1.2458288 0 0)
(-1.2444632 0 0)
(-1.2428025 0 0)
(-1.2408481 0 0)
(-1.238601 0 0)
(-1.2360617 0 0)
(-1.2332302 0 0)
(-1.2301063 0 0)
(-1.2266895 0 0)
(-1.222979 0 0)
(-1.2189738 0 0)
(-1.2146729 0 0)
(-1.210075 0 0)
(-1.205179 0 0)
(-1.1999836 0 0)
(-1.194487 0 0)
(-1.1884356 0 0)
(-1.2482852 -0 -0)
(-1.2481291 0 0)
(-1.2476634 0 0)
(-1.2468931 0 0)
(-1.2458224 0 0)
(-1.2444541 0 0)
(-1.2427906 0 0)
(-1.2408336 0 0)
(-1.238584 0 0)
(-1.2360425 0 0)
(-1.2332093 0 0)
(-1.2300842 0 0)
(-1.2266669 0 0)
(-1.2229567 0 0)
(-1.2189529 0 0)
(-1.2146544 0 0)
(-1.2100603 0 0)
(-1.2051696 0 0)
(-1.1999812 0 0)
(-1.1944934 0 0)
(-1.1884071 0 0)
(-1.2482852 -0 -0)
(-1.2481286 0 0)
(-1.2476617 0 0)
(-1.2468896 0 0)
(-1.2458166 0 0)
(-1.2444459 0 0)
(-1.2427799 0 0)
(-1.2408204 0 0)
(-1.2385686 0 0)
(-1.2360251 0 0)
(-1.2331901 0 0)
(-1.2300638 0 0)
(-1.2266457 0 0)
(-1.2229352 0 0)
(-1.2189318 0 0)
(-1.2146345 0 0)
(-1.2100424 0 0)
(-1.2051546 0 0)
(-1.1999702 0 0)
(-1.1944877 0 0)
(-1.1883714 0 0)
(-1.2482852 -0 -0)
(-1.2481282 0 0)
(-1.2476601 0 0)
(-1.2468864 0 0)
(-1.2458114 0 0)
(-1.2444386 0 0)
(-1.2427703 0 0)
(-1.2408086 0 0)
(-1.2385546 0 0)
(-1.2360092 0 0)
(-1.2331725 0 0)
(-1.2300446 0 0)
(-1.2266251 0 0)
(-1.2229137 0 0)
(-1.2189095 0 0)
(-1.2146118 0 0)
(-1.2100196 0 0)
(-1.2051321 0 0)
(-1.1999483 0 0)
(-1.1944671 0 0)
(-1.1883255 0 0)
(-1.2482852 -0 -0)
(-1.2481278 0 0)
(-1.2476588 0 0)
(-1.2468836 0 0)
(-1.2458069 0 0)
(-1.2444321 0 0)
(-1.2427618 0 0)
(-1.2407981 0 0)
(-1.2385421 0 0)
(-1.2359947 0 0)
(-1.2331561 0 0)
(-1.2300263 0 0)
(-1.226605 0 0)
(-1.2228917 0 0)
(-1.2188855 0 0)
(-1.2145856 0 0)
(-1.2099912 0 0)
(-1.2051011 0 0)
(-1.1999145 0 0)
(-1.1944303 0 0)
(-1.1882684 0 0)
(-1.2482852 -0 -0)
(-1.2481272 0 0)
(-1.2476563 0 0)
(-1.2468785 0 0)
(-1.2457982 0 0)
(-1.2444193 0 0)
(-1.2427444 0 0)
(-1.2407756 0 0)
(-1.238514 0 0)
(-1.2359606 0 0)
(-1.2331156 0 0)
(-1.2299788 0 0)
(-1.2265501 0 0)
(-1.2228286 0 0)
(-1.2188135 0 0)
(-1.214504 0 0)
(-1.209899 0 0)
(-1.2049972 0 0)
(-1.1997978 0 0)
(-1.1942997 0 0)
(-1.1881179 0 0)
(-1.2482852 -0 -0)
(-1.2481326 0 0)
(-1.2476766 0 0)
(-1.2469207 0 0)
(-1.2458674 0 0)
(-1.2445186 0 0)
(-1.2428755 0 0)
(-1.2409386 0 0)
(-1.2387081 0 0)
(-1.2361836 0 0)
(-1.2333644 0 0)
(-1.2302492 0 0)
(-1.2268367 0 0)
(-1.2231251 0 0)
(-1.2191123 0 0)
(-1.214796 0 0)
(-1.2101738 0 0)
(-1.2052432 0 0)
(-1.2000018 0 0)
(-1.1944434 0 0)
(-1.1873999 0 0)
(-1.2482852 -0 -0)
(-1.2481321 0 0)
(-1.2476748 0 0)
(-1.246917 0 0)
(-1.2458615 0 0)
(-1.2445103 0 0)
(-1.2428647 0 0)
(-1.2409255 0 0)
(-1.2386929 0 0)
(-1.2361669 0 0)
(-1.2333466 0 0)
(-1.2302313 0 0)
(-1.2268196 0 0)
(-1.2231099 0 0)
(-1.2191004 0 0)
(-1.2147889 0 0)
(-1.2101734 0 0)
(-1.2052514 0 0)
(-1.2000207 0 0)
(-1.1944768 0 0)
(-1.188632 0 0)
(-1.2482852 -0 -0)
(-1.2481314 0 0)
(-1.2476721 0 0)
(-1.2469113 0 0)
(-1.245852 0 0)
(-1.2444966 0 0)
(-1.2428464 0 0)
(-1.2409025 0 0)
(-1.2386653 0 0)
(-1.2361348 0 0)
(-1.2333105 0 0)
(-1.2301918 0 0)
(-1.2267775 0 0)
(-1.2230662 0 0)
(-1.2190564 0 0)
(-1.2147461 0 0)
(-1.2101334 0 0)
(-1.2052162 0 0)
(-1.1999919 0 0)
(-1.1944579 0 0)
(-1.188548 0 0)
(-1.2482852 -0 -0)
(-1.2481307 0 0)
(-1.2476696 0 0)
(-1.2469061 0 0)
(-1.2458435 0 0)
(-1.2444843 0 0)
(-1.2428301 0 0)
(-1.2408822 0 0)
(-1.2386411 0 0)
(-1.2361071 0 0)
(-1.2332798 0 0)
(-1.2301588 0 0)
(-1.2267431 0 0)
(-1.2230315 0 0)
(-1.2190227 0 0)
(-1.2147152 0 0)
(-1.2101071 0 0)
(-1.2051966 0 0)
(-1.1999817 0 0)
(-1.19446 0 0)
(-1.1884955 0 0)
(-1.2482852 -0 -0)
(-1.2481301 0 0)
(-1.2476673 0 0)
(-1.2469014 0 0)
(-1.2458358 0 0)
(-1.2444732 0 0)
(-1.2428156 0 0)
(-1.2408642 0 0)
(-1.2386199 0 0)
(-1.236083 0 0)
(-1.2332534 0 0)
(-1.2301308 0 0)
(-1.2267144 0 0)
(-1.2230032 0 0)
(-1.2189962 0 0)
(-1.2146921 0 0)
(-1.2100893 0 0)
(-1.2051863 0 0)
(-1.1999817 0 0)
(-1.1944732 0 0)
(-1.1884622 0 0)
(-1.2482852 -0 -0)
(-1.2481296 0 0)
(-1.2476653 0 0)
(-1.246897 0 0)
(-1.2458288 0 0)
(-1.2444632 0 0)
(-1.2428025 0 0)
(-1.2408481 0 0)
(-1.238601 0 0)
(-1.2360617 0 0)
(-1.2332302 0 0)
(-1.2301063 0 0)
(-1.2266895 0 0)
(-1.222979 0 0)
(-1.2189738 0 0)
(-1.2146729 0 0)
(-1.210075 0 0)
(-1.205179 0 0)
(-1.1999836 0 0)
(-1.194487 0 0)
(-1.1884356 0 0)
(-1.2482852 -0 -0)
(-1.2481291 0 0)
(-1.2476634 0 0)
(-1.2468931 0 0)
(-1.2458224 0 0)
(-1.2444541 0 0)
(-1.2427906 0 0)
(-1.2408336 0 0)
(-1.238584 0 0)
(-1.2360425 0 0)
(-1.2332093 0 0)
(-1.2300842 0 0)
(-1.2266669 0 0)
(-1.2229567 0 0)
(-1.2189529 0 0)
(-1.2146544 0 0)
(-1.2100603 0 0)
(-1.2051696 0 0)
(-1.1999812 0 0)
(-1.1944934 0 0)
(-1.1884071 0 0)
(-1.2482852 -0 -0)
(-1.2481286 0 0)
(-1.2476617 0 0)
(-1.2468896 0 0)
(-1.2458166 0 0)
(-1.2444459 0 0)
(-1.2427799 0 0)
(-1.2408204 0 0)
(-1.2385686 0 0)
(-1.2360251 0 0)
(-1.2331901 0 0)
(-1.2300638 0 0)
(-1.2266457 0 0)
(-1.2229352 0 0)
(-1.2189318 0 0)
(-1.2146345 0 0)
(-1.2100424 0 0)
(-1.2051546 0 0)
(-1.1999702 0 0)
(-1.1944877 0 0)
(-1.1883714 0 0)
(-1.2482852 -0 -0)
(-1.2481282 0 0)
(-1.2476601 0 0)
(-1.2468864 0 0)
(-1.2458114 0 0)
(-1.2444386 0 0)
(-1.2427703 0 0)
(-1.2408086 0 0)
(-1.2385546 0 0)
(-1.2360092 0 0)
(-1.2331725 0 0)
(-1.2300446 0 0)
(-1.2266251 0 0)
(-1.2229137 0 0)
(-1.2189095 0 0)
(-1.2146118 0 0)
(-1.2100196 0 0)
(-1.2051321 0 0)
(-1.1999483 0 0)
(-1.1944671 0 0)
(-1.1883255 0 0)
(-1.2482852 -0 -0)
(-1.2481278 0 0)
(-1.2476588 0 0)
(-1.2468836 0 0)
(-1.2458069 0 0)
(-1.2444321 0 0)
(-1.2427618 0 0)
(-1.2407981 0 0)
(-1.2385421 0 0)
(-1.2359947 0 0)
(-1.2331561 0 0)
(-1.2300263 0 0)
(-1.226605 0 0)
(-1.2228917 0 0)
(-1.2188855 0 0)
(-1.2145856 0 0)
(-1.2099912 0 0)
(-1.2051011 0 0)
(-1.1999145 0 0)
(-1.1944303 0 0)
(-1.1882684 0 0)
(-1.2482852 -0 -0)
(-1.2481272 0 0)
(-1.2476563 0 0)
(-1.2468785 0 0)
(-1.2457982 0 0)
(-1.2444193 0 0)
(-1.2427444 0 0)
(-1.2407756 0 0)
(-1.238514 0 0)
(-1.2359606 0 0)
(-1.2331156 0 0)
(-1.2299788 0 0)
(-1.2265501 0 0)
(-1.2228286 0 0)
(-1.2188135 0 0)
(-1.214504 0 0)
(-1.209899 0 0)
(-1.2049972 0 0)
(-1.1997978 0 0)
(-1.1942997 0 0)
(-1.1881179 0 0)
(-1.2482852 -0 -0)
(-1.2481328 0 0)
(-1.2476772 0 0)
(-1.2469207 0 0)
(-1.2458652 0 0)
(-1.2445118 0 0)
(-1.2428612 0 0)
(-1.2409136 0 0)
(-1.2386687 0 0)
(-1.236126 0 0)
(-1.2332844 0 0)
(-1.2301427 0 0)
(-1.2266993 0 0)
(-1.2229524 0 0)
(-1.2189 0 0)
(-1.2145396 0 0)
(-1.2098688 0 0)
(-1.2048848 0 0)
(-1.1995846 0 0)
(-1.19396 0 0)
(-1.1875075 0 0)
(-1.2482852 -0 -0)
(-1.2481328 0 0)
(-1.2476769 0 0)
(-1.2469202 0 0)
(-1.2458644 0 0)
(-1.2445107 0 0)
(-1.2428599 0 0)
(-1.2409121 0 0)
(-1.238667 0 0)
(-1.2361241 0 0)
(-1.2332822 0 0)
(-1.2301403 0 0)
(-1.2266965 0 0)
(-1.2229491 0 0)
(-1.2188959 0 0)
(-1.2145344 0 0)
(-1.209862 0 0)
(-1.2048759 0 0)
(-1.1995729 0 0)
(-1.1939448 0 0)
(-1.1874935 0 0)
(-1.2482852 -0 -0)
(-1.2481325 0 0)
(-1.2476757 0 0)
(-1.2469177 0 0)
(-1.2458603 0 0)
(-1.2445046 0 0)
(-1.2428515 0 0)
(-1.2409012 0 0)
(-1.2386534 0 0)
(-1.2361075 0 0)
(-1.2332625 0 0)
(-1.2301171 0 0)
(-1.2266696 0 0)
(-1.2229181 0 0)
(-1.2188604 0 0)
(-1.2144939 0 0)
(-1.209816 0 0)
(-1.2048237 0 0)
(-1.1995138 0 0)
(-1.1938781 0 0)
(-1.1874368 0 0)
(-1.2482852 -0 -0)
(-1.2481322 0 0)
(-1.2476749 0 0)
(-1.246916 0 0)
(-1.2458574 0 0)
(-1.2445005 0 0)
(-1.2428459 0 0)
(-1.2408941 0 0)
(-1.2386447 0 0)
(-1.2360971 0 0)
(-1.2332503 0 0)
(-1.230103 0 0)
(-1.2266535 0 0)
(-1.2228998 0 0)
(-1.2188395 0 0)
(-1.2144703 0 0)
(-1.2097892 0 0)
(-1.2047932 0 0)
(-1.199479 0 0)
(-1.1938387 0 0)
(-1.1874214 0 0)
(-1.2482852 -0 -0)
(-1.2481321 0 0)
(-1.2476744 0 0)
(-1.2469149 0 0)
(-1.2458557 0 0)
(-1.2444982 0 0)
(-1.2428431 0 0)
(-1.2408907 0 0)
(-1.2386408 0 0)
(-1.2360929 0 0)
(-1.2332458 0 0)
(-1.2300983 0 0)
(-1.2266485 0 0)
(-1.2228945 0 0)
(-1.218834 0 0)
(-1.2144643 0 0)
(-1.2097825 0 0)
(-1.2047855 0 0)
(-1.19947 0 0)
(-1.1938284 0 0)
(-1.1874489 0 0)
(-1.2482852 -0 -0)
(-1.248132 0 0)
(-1.2476742 0 0)
(-1.2469145 0 0)
(-1.2458553 0 0)
(-1.2444978 0 0)
(-1.242843 0 0)
(-1.2408911 0 0)
(-1.2386419 0 0)
(-1.236095 0 0)
(-1.2332491 0 0)
(-1.230103 0 0)
(-1.2266549 0 0)
(-1.2229027 0 0)
(-1.2188442 0 0)
(-1.2144765 0 0)
(-1.2097968 0 0)
(-1.2048018 0 0)
(-1.1994882 0 0)
(-1.1938488 0 0)
(-1.1875207 0 0)
(-1.2482852 -0 -0)
(-1.248132 0 0)
(-1.2476742 0 0)
(-1.2469149 0 0)
(-1.2458561 0 0)
(-1.2444994 0 0)
(-1.2428457 0 0)
(-1.2408953 0 0)
(-1.238648 0 0)
(-1.2361034 0 0)
(-1.2332602 0 0)
(-1.2301173 0 0)
(-1.2266728 0 0)
(-1.2229247 0 0)
(-1.2188706 0 0)
(-1.2145077 0 0)
(-1.2098331 0 0)
(-1.2048434 0 0)
(-1.1995353 0 0)
(-1.193902 0 0)
(-1.1876391 0 0)
(-1.2482852 -0 -0)
(-1.2481321 0 0)
(-1.2476746 0 0)
(-1.2469158 0 0)
(-1.2458581 0 0)
(-1.2445029 0 0)
(-1.2428511 0 0)
(-1.2409032 0 0)
(-1.2386591 0 0)
(-1.2361181 0 0)
(-1.2332794 0 0)
(-1.2301415 0 0)
(-1.2267028 0 0)
(-1.222961 0 0)
(-1.218914 0 0)
(-1.2145589 0 0)
(-1.2098928 0 0)
(-1.2049123 0 0)
(-1.1996139 0 0)
(-1.1939913 0 0)
(-1.1878076 0 0)
(-1.2482852 -0 -0)
(-1.2481323 0 0)
(-1.2476753 0 0)
(-1.2469175 0 0)
(-1.2458613 0 0)
(-1.2445082 0 0)
(-1.2428593 0 0)
(-1.240915 0 0)
(-1.2386752 0 0)
(-1.2361394 0 0)
(-1.2333067 0 0)
(-1.2301758 0 0)
(-1.2267449 0 0)
(-1.2230121 0 0)
(-1.218975 0 0)
(-1.2146311 0 0)
(-1.2099772 0 0)
(-1.2050104 0 0)
(-1.199727 0 0)
(-1.1941214 0 0)
(-1.1880318 0 0)
(-1.2482852 -0 -0)
(-1.2481325 0 0)
(-1.2476763 0 0)
(-1.2469199 0 0)
(-1.2458658 0 0)
(-1.2445155 0 0)
(-1.2428703 0 0)
(-1.2409306 0 0)
(-1.2386964 0 0)
(-1.2361672 0 0)
(-1.2333423 0 0)
(-1.2302202 0 0)
(-1.2267995 0 0)
(-1.2230782 0 0)
(-1.2190541 0 0)
(-1.2147247 0 0)
(-1.2100872 0 0)
(-1.2051388 0 0)
(-1.1998765 0 0)
(-1.1942945 0 0)
(-1.1883146 0 0)
(-1.2482852 -0 -0)
(-1.2481328 0 0)
(-1.2476772 0 0)
(-1.2469207 0 0)
(-1.2458652 0 0)
(-1.2445118 0 0)
(-1.2428612 0 0)
(-1.2409136 0 0)
(-1.2386687 0 0)
(-1.236126 0 0)
(-1.2332844 0 0)
(-1.2301427 0 0)
(-1.2266993 0 0)
(-1.2229524 0 0)
(-1.2189 0 0)
(-1.2145396 0 0)
(-1.2098688 0 0)
(-1.2048848 0 0)
(-1.1995846 0 0)
(-1.19396 0 0)
(-1.1875075 0 0)
(-1.2482852 -0 -0)
(-1.2481328 0 0)
(-1.2476769 0 0)
(-1.2469202 0 0)
(-1.2458644 0 0)
(-1.2445107 0 0)
(-1.2428599 0 0)
(-1.2409121 0 0)
(-1.238667 0 0)
(-1.2361241 0 0)
(-1.2332822 0 0)
(-1.2301403 0 0)
(-1.2266965 0 0)
(-1.2229491 0 0)
(-1.2188959 0 0)
(-1.2145344 0 0)
(-1.209862 0 0)
(-1.2048759 0 0)
(-1.1995729 0 0)
(-1.1939448 0 0)
(-1.1874935 0 0)
(-1.2482852 -0 -0)
(-1.2481325 0 0)
(-1.2476757 0 0)
(-1.2469177 0 0)
(-1.2458603 0 0)
(-1.2445046 0 0)
(-1.2428515 0 0)
(-1.2409012 0 0)
(-1.2386534 0 0)
(-1.2361075 0 0)
(-1.2332625 0 0)
(-1.2301171 0 0)
(-1.2266696 0 0)
(-1.2229181 0 0)
(-1.2188604 0 0)
(-1.2144939 0 0)
(-1.209816 0 0)
(-1.2048237 0 0)
(-1.1995138 0 0)
(-1.1938781 0 0)
(-1.1874368 0 0)
(-1.2482852 -0 -0)
(-1.2481322 0 0)
(-1.2476749 0 0)
(-1.246916 0 0)
(-1.2458574 0 0)
(-1.2445005 0 0)
(-1.2428459 0 0)
(-1.2408941 0 0)
(-1.2386447 0 0)
(-1.2360971 0 0)
(-1.2332503 0 0)
(-1.230103 0 0)
(-1.2266535 0 0)
(-1.2228998 0 0)
(-1.2188395 0 0)
(-1.2144703 0 0)
(-1.2097892 0 0)
(-1.2047932 0 0)
(-1.199479 0 0)
(-1.1938387 0 0)
(-1.1874214 0 0)
(-1.2482852 -0 -0)
(-1.2481321 0 0)
(-1.2476744 0 0)
(-1.2469149 0 0)
(-1.2458557 0 0)
(-1.2444982 0 0)
(-1.2428431 0 0)
(-1.2408907 0 0)
(-1.2386408 0 0)
(-1.2360929 0 0)
(-1.2332458 0 0)
(-1.2300983 0 0)
(-1.2266485 0 0)
(-1.2228945 0 0)
(-1.218834 0 0)
(-1.2144643 0 0)
(-1.2097825 0 0)
(-1.2047855 0 0)
(-1.19947 0 0)
(-1.1938284 0 0)
(-1.1874489 0 0)
(-1.2482852 -0 -0)
(-1.248132 0 0)
(-1.2476742 0 0)
(-1.2469145 0 0)
(-1.2458553 0 0)
(-1.2444978 0 0)
(-1.242843 0 0)
(-1.2408911 0 0)
(-1.2386419 0 0)
(-1.236095 0 0)
(-1.2332491 0 0)
(-1.230103 0 0)
(-1.2266549 0 0)
(-1.2229027 0 0)
(-1.2188442 0 0)
(-1.2144765 0 0)
(-1.2097968 0 0)
(-1.2048018 0 0)
(-1.1994882 0 0)
(-1.1938488 0 0)
(-1.1875207 0 0)
(-1.2482852 -0 -0)
(-1.248132 0 0)
(-1.2476742 0 0)
(-1.2469149 0 0)
(-1.2458561 0 0)
(-1.2444994 0 0)
(-1.2428457 0 0)
(-1.2408953 0 0)
(-1.238648 0 0)
(-1.2361034 0 0)
(-1.2332602 0 0)
(-1.2301173 0 0)
(-1.2266728 0 0)
(-1.2229247 0 0)
(-1.2188706 0 0)
(-1.2145077 0 0)
(-1.2098331 0 0)
(-1.2048434 0 0)
(-1.1995353 0 0)
(-1.193902 0 0)
(-1.1876391 0 0)
(-1.2482852 -0 -0)
(-1.2481321 0 0)
(-1.2476746 0 0)
(-1.2469158 0 0)
(-1.2458581 0 0)
(-1.2445029 0 0)
(-1.2428511 0 0)
(-1.2409032 0 0)
(-1.2386591 0 0)
(-1.2361181 0 0)
(-1.2332794 0 0)
(-1.2301415 0 0)
(-1.2267028 0 0)
(-1.222961 0 0)
(-1.218914 0 0)
(-1.2145589 0 0)
(-1.2098928 0 0)
(-1.2049123 0 0)
(-1.1996139 0 0)
(-1.1939913 0 0)
(-1.1878076 0 0)
(-1.2482852 -0 -0)
(-1.2481323 0 0)
(-1.2476753 0 0)
(-1.2469175 0 0)
(-1.2458613 0 0)
(-1.2445082 0 0)
(-1.2428593 0 0)
(-1.240915 0 0)
(-1.2386752 0 0)
(-1.2361394 0 0)
(-1.2333067 0 0)
(-1.2301758 0 0)
(-1.2267449 0 0)
(-1.2230121 0 0)
(-1.218975 0 0)
(-1.2146311 0 0)
(-1.2099772 0 0)
(-1.2050104 0 0)
(-1.199727 0 0)
(-1.1941214 0 0)
(-1.1880318 0 0)
(-1.2482852 -0 -0)
(-1.2481325 0 0)
(-1.2476763 0 0)
(-1.2469199 0 0)
(-1.2458658 0 0)
(-1.2445155 0 0)
(-1.2428703 0 0)
(-1.2409306 0 0)
(-1.2386964 0 0)
(-1.2361672 0 0)
(-1.2333423 0 0)
(-1.2302202 0 0)
(-1.2267995 0 0)
(-1.2230782 0 0)
(-1.2190541 0 0)
(-1.2147247 0 0)
(-1.2100872 0 0)
(-1.2051388 0 0)
(-1.1998765 0 0)
(-1.1942945 0 0)
(-1.1883146 0 0)
(-1.1795856 0 0)
(-1.1706576 0 0)
(-1.1612262 0 0)
(-1.1513018 0 0)
(-1.1408923 0 0)
(-1.1300124 0 0)
(-1.1186844 0 0)
(-1.1069297 0 0)
(-1.0947635 0 0)
(-1.082199 0 0)
(-1.0692483 0 0)
(-1.0559188 0 0)
(-1.042215 0 0)
(-1.0281424 0 0)
(-1.0137083 0 0)
(-0.99891666 0 0)
(-0.98376193 0 0)
(-0.96824087 0 0)
(-0.95234454 0 0)
(-0.93605889 0 0)
(-0.91937141 0 0)
(-0.90226684 0 0)
(-0.88471627 0 0)
(-0.86669035 0 0)
(-0.84816847 0 0)
(-0.82912507 0 0)
(-0.80951879 0 0)
(-0.78929808 0 0)
(-0.76842074 0 0)
(-0.74681555 0 0)
(-0.72441613 0 0)
(-0.7011979 0 0)
(-0.67710483 0 0)
(-0.65200689 0 0)
(-0.62579105 0 0)
(-0.59842392 0 0)
(-0.5698016 0 0)
(-0.53974706 0 0)
(-0.50819531 0 0)
(-0.47499545 0 0)
(-0.4398706 0 0)
(-0.40264139 0 0)
(-0.36316559 0 0)
(-0.3212606 0 0)
(-0.2766627 0 0)
(-0.22903528 0 0)
(-0.17799445 0 0)
(-0.12312756 0 0)
(-0.063915053 0 0)
(0 0 0)
(-1.179584 0 0)
(-1.1706733 0 0)
(-1.1612571 0 0)
(-1.1513451 0 0)
(-1.1409447 0 0)
(-1.1300711 0 0)
(-1.118747 0 0)
(-1.1069943 0 0)
(-1.0948287 0 0)
(-1.0822639 0 0)
(-1.0693122 0 0)
(-1.0559813 0 0)
(-1.0422758 0 0)
(-1.028201 0 0)
(-1.0137642 0 0)
(-0.99896817 0 0)
(-0.98380907 0 0)
(-0.96828482 0 0)
(-0.95238582 0 0)
(-0.93609694 0 0)
(-0.91940573 0 0)
(-0.9022976 0 0)
(-0.88474404 0 0)
(-0.86671489 0 0)
(-0.8481896 0 0)
(-0.82914318 0 0)
(-0.8095331 0 0)
(-0.78931014 0 0)
(-0.7684316 0 0)
(-0.74682527 0 0)
(-0.72442408 0 0)
(-0.70120427 0 0)
(-0.67711065 0 0)
(-0.65201251 0 0)
(-0.62579588 0 0)
(-0.59842806 0 0)
(-0.56980601 0 0)
(-0.53974935 0 0)
(-0.50819634 0 0)
(-0.47499738 0 0)
(-0.43987408 0 0)
(-0.40264735 0 0)
(-0.36317572 0 0)
(-0.32127756 0 0)
(-0.27668565 0 0)
(-0.22906207 0 0)
(-0.17802345 0 0)
(-0.12315364 0 0)
(-0.063929931 0 0)
(0 0 0)
(-1.1795729 0 0)
(-1.1707227 0 0)
(-1.1613626 0 0)
(-1.1515013 0 0)
(-1.1411461 0 0)
(-1.1303116 0 0)
(-1.1190213 0 0)
(-1.1072978 0 0)
(-1.0951573 0 0)
(-1.0826136 0 0)
(-1.0696795 0 0)
(-1.0563634 0 0)
(-1.0426701 0 0)
(-1.0286051 0 0)
(-1.0141749 0 0)
(-0.99938243 0 0)
(-0.98422515 0 0)
(-0.96870173 0 0)
(-0.95280277 0 0)
(-0.9365127 0 0)
(-0.91981868 0 0)
(-0.9027063 0 0)
(-0.88514821 0 0)
(-0.86711408 0 0)
(-0.8485829 0 0)
(-0.82952962 0 0)
(-0.80991169 0 0)
(-0.78968209 0 0)
(-0.76879677 0 0)
(-0.74718328 0 0)
(-0.72477437 0 0)
(-0.70154654 0 0)
(-0.67744497 0 0)
(-0.65233857 0 0)
(-0.62611286 0 0)
(-0.59873541 0 0)
(-0.57010325 0 0)
(-0.54003338 0 0)
(-0.5084668 0 0)
(-0.47525407 0 0)
(-0.44011634 0 0)
(-0.40287559 0 0)
(-0.36339054 0 0)
(-0.32147884 0 0)
(-0.27686959 0 0)
(-0.22922439 0 0)
(-0.17815952 0 0)
(-0.12325489 0 0)
(-0.063984278 0 0)
(0 0 0)
(-1.1796375 0 0)
(-1.1708912 0 0)
(-1.1616281 0 0)
(-1.1518558 0 0)
(-1.1415809 0 0)
(-1.130818 0 0)
(-1.1195908 0 0)
(-1.1079222 0 0)
(-1.0958295 0 0)
(-1.0833271 0 0)
(-1.0704279 0 0)
(-1.0571408 0 0)
(-1.0434713 0 0)
(-1.0294256 0 0)
(-1.0150096 0 0)
(-1.0002261 0 0)
(-0.9850744 0 0)
(-0.96955389 0 0)
(-0.95365527 0 0)
(-0.93736318 0 0)
(-0.92066465 0 0)
(-0.90354539 0 0)
(-0.88597901 0 0)
(-0.86793526 0 0)
(-0.84939311 0 0)
(-0.8303276 0 0)
(-0.81069554 0 0)
(-0.79045222 0 0)
(-0.76955289 0 0)
(-0.74792445 0 0)
(-0.7254993 0 0)
(-0.7022547 0 0)
(-0.67813633 0 0)
(-0.65301206 0 0)
(-0.62676664 0 0)
(-0.59936843 0 0)
(-0.57071451 0 0)
(-0.54061856 0 0)
(-0.509024 0 0)
(-0.47578183 0 0)
(-0.44061239 0 0)
(-0.40333902 0 0)
(-0.36382086 0 0)
(-0.32187395 0 0)
(-0.27722249 0 0)
(-0.22952816 0 0)
(-0.17840716 0 0)
(-0.12343446 0 0)
(-0.064079614 0 0)
(0 0 0)
(-1.179779 0 0)
(-1.1711796 0 0)
(-1.162054 0 0)
(-1.1524084 0 0)
(-1.142249 0 0)
(-1.1315897 0 0)
(-1.1204545 0 0)
(-1.1088669 0 0)
(-1.096845 0 0)
(-1.084404 0 0)
(-1.0715569 0 0)
(-1.0583131 0 0)
(-1.0446792 0 0)
(-1.0306619 0 0)
(-1.0162673 0 0)
(-1.0014985 0 0)
(-0.98635618 0 0)
(-0.97084005 0 0)
(-0.95494201 0 0)
(-0.93864709 0 0)
(-0.92194201 0 0)
(-0.90481263 0 0)
(-0.88723393 0 0)
(-0.86917606 0 0)
(-0.85061768 0 0)
(-0.83153392 0 0)
(-0.81188168 0 0)
(-0.7916176 0 0)
(-0.77069627 0 0)
(-0.74904476 0 0)
(-0.72659521 0 0)
(-0.70332515 0 0)
(-0.67918052 0 0)
(-0.65402847 0 0)
(-0.62775319 0 0)
(-0.6003233 0 0)
(-0.57163538 0 0)
(-0.54150093 0 0)
(-0.50986468 0 0)
(-0.47657687 0 0)
(-0.44135831 0 0)
(-0.40403431 0 0)
(-0.36446392 0 0)
(-0.32245992 0 0)
(-0.27774161 0 0)
(-0.22997136 0 0)
(-0.17876449 0 0)
(-0.12369073 0 0)
(-0.06421516 0 0)
(0 0 0)
(-1.1799983 0 0)
(-1.1715879 0 0)
(-1.1626399 0 0)
(-1.1531585 0 0)
(-1.1431492 0 0)
(-1.1326258 0 0)
(-1.1216116 0 0)
(-1.1101307 0 0)
(-1.0982025 0 0)
(-1.0858432 0 0)
(-1.0730659 0 0)
(-1.0598797 0 0)
(-1.0462928 0 0)
(-1.032313 0 0)
(-1.0179469 0 0)
(-1.0031982 0 0)
(-0.98806866 0 0)
(-0.97255853 0 0)
(-0.95666075 0 0)
(-0.94036148 0 0)
(-0.92364751 0 0)
(-0.90650488 0 0)
(-0.88890941 0 0)
(-0.87083213 0 0)
(-0.85225204 0 0)
(-0.83314416 0 0)
(-0.81346504 0 0)
(-0.79317265 0 0)
(-0.77222171 0 0)
(-0.7505389 0 0)
(-0.72805609 0 0)
(-0.70475165 0 0)
(-0.68057165 0 0)
(-0.65538202 0 0)
(-0.62906615 0 0)
(-0.60159349 0 0)
(-0.57285991 0 0)
(-0.54267422 0 0)
(-0.5109824 0 0)
(-0.4776339 0 0)
(-0.44234943 0 0)
(-0.40495662 0 0)
(-0.36531467 0 0)
(-0.32323254 0 0)
(-0.27842323 0 0)
(-0.23055042 0 0)
(-0.17922872 0 0)
(-0.12402194 0 0)
(-0.064389962 0 0)
(0 0 0)
(-1.1802969 0 0)
(-1.1721168 0 0)
(-1.1633856 0 0)
(-1.1541054 0 0)
(-1.144281 0 0)
(-1.1339256 0 0)
(-1.1230618 0 0)
(-1.1117133 0 0)
(-1.0999011 0 0)
(-1.0876438 0 0)
(-1.0749544 0 0)
(-1.0618404 0 0)
(-1.0483118 0 0)
(-1.0343785 0 0)
(-1.0200477 0 0)
(-1.0053242 0 0)
(-0.99021028 0 0)
(-0.97470697 0 0)
(-0.95880897 0 0)
(-0.94250354 0 0)
(-0.92577763 0 0)
(-0.90861779 0 0)
(-0.89100094 0 0)
(-0.87289881 0 0)
(-0.85429086 0 0)
(-0.83515239 0 0)
(-0.81543974 0 0)
(-0.79511117 0 0)
(-0.77412208 0 0)
(-0.7523996 0 0)
(-0.72987506 0 0)
(-0.70652701 0 0)
(-0.68230177 0 0)
(-0.6570646 0 0)
(-0.63069797 0 0)
(-0.60317151 0 0)
(-0.5743802 0 0)
(-0.54413104 0 0)
(-0.51237045 0 0)
(-0.4789459 0 0)
(-0.44357884 0 0)
(-0.40609988 0 0)
(-0.36636783 0 0)
(-0.32418637 0 0)
(-0.2792625 0 0)
(-0.23126148 0 0)
(-0.17979654 0 0)
(-0.1244255 0 0)
(-0.064602649 0 0)
(0 0 0)
(-1.1806774 0 0)
(-1.1727677 0 0)
(-1.1642917 0 0)
(-1.1552488 0 0)
(-1.1456432 0 0)
(-1.1354884 0 0)
(-1.1248052 0 0)
(-1.1136148 0 0)
(-1.1019409 0 0)
(-1.0898076 0 0)
(-1.0772246 0 0)
(-1.064196 0 0)
(-1.0507359 0 0)
(-1.0368578 0 0)
(-1.022569 0 0)
(-1.007875 0 0)
(-0.99277939 0 0)
(-0.97728332 0 0)
(-0.96138354 0 0)
(-0.94506949 0 0)
(-0.92832826 0 0)
(-0.91114681 0 0)
(-0.89350311 0 0)
(-0.87536988 0 0)
(-0.8567276 0 0)
(-0.83755191 0 0)
(-0.81779824 0 0)
(-0.79742528 0 0)
(-0.77638952 0 0)
(-0.75461853 0 0)
(-0.73204315 0 0)
(-0.70864211 0 0)
(-0.68436194 0 0)
(-0.65906712 0 0)
(-0.63263918 0 0)
(-0.60504789 0 0)
(-0.57618725 0 0)
(-0.54586213 0 0)
(-0.5140195 0 0)
(-0.48050466 0 0)
(-0.4450391 0 0)
(-0.40745673 0 0)
(-0.36761626 0 0)
(-0.32531528 0 0)
(-0.28025383 0 0)
(-0.23209957 0 0)
(-0.18046404 0 0)
(-0.12489862 0 0)
(-0.064851765 0 0)
(0 0 0)
(-1.1811442 0 0)
(-1.173543 0 0)
(-1.1653591 0 0)
(-1.156588 0 0)
(-1.1472357 0 0)
(-1.1373166 0 0)
(-1.1268467 0 0)
(-1.1158438 0 0)
(-1.1043325 0 0)
(-1.0923387 0 0)
(-1.0798748 0 0)
(-1.0669464 0 0)
(-1.0535675 0 0)
(-1.0397531 0 0)
(-1.0255123 0 0)
(-1.0108519 0 0)
(-0.99577569 0 0)
(-0.98028513 0 0)
(-0.96438087 0 0)
(-0.94805523 0 0)
(-0.93129467 0 0)
(-0.91408624 0 0)
(-0.89640949 0 0)
(-0.8782385 0 0)
(-0.85955476 0 0)
(-0.84033445 0 0)
(-0.82053221 0 0)
(-0.80010619 0 0)
(-0.77901426 0 0)
(-0.75718556 0 0)
(-0.73455049 0 0)
(-0.71108688 0 0)
(-0.6867412 0 0)
(-0.66137849 0 0)
(-0.63487931 0 0)
(-0.60721224 0 0)
(-0.57827021 0 0)
(-0.54785735 0 0)
(-0.51592007 0 0)
(-0.48230046 0 0)
(-0.44672094 0 0)
(-0.40901889 0 0)
(-0.36905247 0 0)
(-0.326612 0 0)
(-0.28139092 0 0)
(-0.23305939 0 0)
(-0.18122673 0 0)
(-0.12543804 0 0)
(-0.06513563 0 0)
(0 0 0)
(-1.1817 0 0)
(-1.1744429 0 0)
(-1.1665852 0 0)
(-1.1581222 0 0)
(-1.1490617 0 0)
(-1.1394123 0 0)
(-1.1291845 0 0)
(-1.1183972 0 0)
(-1.1070712 0 0)
(-1.0952316 0 0)
(-1.082901 0 0)
(-1.0700883 0 0)
(-1.0568028 0 0)
(-1.0430605 0 0)
(-1.0288723 0 0)
(-1.014245 0 0)
(-0.99918654 0 0)
(-0.98370103 0 0)
(-0.96779061 0 0)
(-0.95145002 0 0)
(-0.93466528 0 0)
(-0.91742324 0 0)
(-0.89970634 0 0)
(-0.88149022 0 0)
(-0.86275754 0 0)
(-0.8434852 0 0)
(-0.82362628 0 0)
(-0.80313844 0 0)
(-0.78198077 0 0)
(-0.76008489 0 0)
(-0.73738119 0 0)
(-0.71384547 0 0)
(-0.68942388 0 0)
(-0.66398313 0 0)
(-0.63740283 0 0)
(-0.60964918 0 0)
(-0.58061433 0 0)
(-0.55010209 0 0)
(-0.518058 0 0)
(-0.4843205 0 0)
(-0.44861268 0 0)
(-0.41077521 0 0)
(-0.37066582 0 0)
(-0.32806728 0 0)
(-0.28266557 0 0)
(-0.23413384 0 0)
(-0.18207899 0 0)
(-0.12603983 0 0)
(-0.06545219 0 0)
(0 0 0)
(-1.1807265 0 0)
(-1.1738055 0 0)
(-1.1662744 0 0)
(-1.1581326 0 0)
(-1.1493821 0 0)
(-1.1400213 0 0)
(-1.1300621 0 0)
(-1.1195249 0 0)
(-1.1084253 0 0)
(-1.0967862 0 0)
(-1.0846354 0 0)
(-1.0719834 0 0)
(-1.058838 0 0)
(-1.0452159 0 0)
(-1.0311282 0 0)
(-1.0165836 0 0)
(-1.0015938 0 0)
(-0.98616437 0 0)
(-0.97029764 0 0)
(-0.95398856 0 0)
(-0.93722353 0 0)
(-0.9199928 0 0)
(-0.9022809 0 0)
(-0.88406273 0 0)
(-0.86532228 0 0)
(-0.84603754 0 0)
(-0.82616098 0 0)
(-0.80564907 0 0)
(-0.78446224 0 0)
(-0.7625348 0 0)
(-0.73979692 0 0)
(-0.7162215 0 0)
(-0.69175532 0 0)
(-0.66626723 0 0)
(-0.63963577 0 0)
(-0.61182326 0 0)
(-0.58272333 0 0)
(-0.55213908 0 0)
(-0.52001229 0 0)
(-0.48618138 0 0)
(-0.45036915 0 0)
(-0.41241866 0 0)
(-0.37218681 0 0)
(-0.32944905 0 0)
(-0.28388442 0 0)
(-0.23516887 0 0)
(-0.18290681 0 0)
(-0.12663069 0 0)
(-0.065770402 0 0)
(0 0 0)
(-1.1795856 0 0)
(-1.1706576 0 0)
(-1.1612262 0 0)
(-1.1513018 0 0)
(-1.1408923 0 0)
(-1.1300124 0 0)
(-1.1186844 0 0)
(-1.1069297 0 0)
(-1.0947635 0 0)
(-1.082199 0 0)
(-1.0692483 0 0)
(-1.0559188 0 0)
(-1.042215 0 0)
(-1.0281424 0 0)
(-1.0137083 0 0)
(-0.99891666 0 0)
(-0.98376193 0 0)
(-0.96824087 0 0)
(-0.95234454 0 0)
(-0.93605889 0 0)
(-0.91937141 0 0)
(-0.90226684 0 0)
(-0.88471627 0 0)
(-0.86669035 0 0)
(-0.84816847 0 0)
(-0.82912507 0 0)
(-0.80951879 0 0)
(-0.78929808 0 0)
(-0.76842074 0 0)
(-0.74681555 0 0)
(-0.72441613 0 0)
(-0.7011979 0 0)
(-0.67710483 0 0)
(-0.65200689 0 0)
(-0.62579105 0 0)
(-0.59842392 0 0)
(-0.5698016 0 0)
(-0.53974706 0 0)
(-0.50819531 0 0)
(-0.47499545 0 0)
(-0.4398706 0 0)
(-0.40264139 0 0)
(-0.36316559 0 0)
(-0.3212606 0 0)
(-0.2766627 0 0)
(-0.22903528 0 0)
(-0.17799445 0 0)
(-0.12312756 0 0)
(-0.063915053 0 0)
(0 0 0)
(-1.179584 0 0)
(-1.1706733 0 0)
(-1.1612571 0 0)
(-1.1513451 0 0)
(-1.1409447 0 0)
(-1.1300711 0 0)
(-1.118747 0 0)
(-1.1069943 0 0)
(-1.0948287 0 0)
(-1.0822639 0 0)
(-1.0693122 0 0)
(-1.0559813 0 0)
(-1.0422758 0 0)
(-1.028201 0 0)
(-1.0137642 0 0)
(-0.99896817 0 0)
(-0.98380907 0 0)
(-0.96828482 0 0)
(-0.95238582 0 0)
(-0.93609694 0 0)
(-0.91940573 0 0)
(-0.9022976 0 0)
(-0.88474404 0 0)
(-0.86671489 0 0)
(-0.8481896 0 0)
(-0.82914318 0 0)
(-0.8095331 0 0)
(-0.78931014 0 0)
(-0.7684316 0 0)
(-0.74682527 0 0)
(-0.72442408 0 0)
(-0.70120427 0 0)
(-0.67711065 0 0)
(-0.65201251 0 0)
(-0.62579588 0 0)
(-0.59842806 0 0)
(-0.56980601 0 0)
(-0.53974935 0 0)
(-0.50819634 0 0)
(-0.47499738 0 0)
(-0.43987408 0 0)
(-0.40264735 0 0)
(-0.36317572 0 0)
(-0.32127756 0 0)
(-0.27668565 0 0)
(-0.22906207 0 0)
(-0.17802345 0 0)
(-0.12315364 0 0)
(-0.063929931 0 0)
(0 0 0)
(-1.1795729 0 0)
(-1.1707227 0 0)
(-1.1613626 0 0)
(-1.1515013 0 0)
(-1.1411461 0 0)
(-1.1303116 0 0)
(-1.1190213 0 0)
(-1.1072978 0 0)
(-1.0951573 0 0)
(-1.0826136 0 0)
(-1.0696795 0 0)
(-1.0563634 0 0)
(-1.0426701 0 0)
(-1.0286051 0 0)
(-1.0141749 0 0)
(-0.99938243 0 0)
(-0.98422515 0 0)
(-0.96870173 0 0)
(-0.95280277 0 0)
(-0.9365127 0 0)
(-0.91981868 0 0)
(-0.9027063 0 0)
(-0.88514821 0 0)
(-0.86711408 0 0)
(-0.8485829 0 0)
(-0.82952962 0 0)
(-0.80991169 0 0)
(-0.78968209 0 0)
(-0.76879677 0 0)
(-0.74718328 0 0)
(-0.72477437 0 0)
(-0.70154654 0 0)
(-0.67744497 0 0)
(-0.65233857 0 0)
(-0.62611286 0 0)
(-0.59873541 0 0)
(-0.57010325 0 0)
(-0.54003338 0 0)
(-0.5084668 0 0)
(-0.47525407 0 0)
(-0.44011634 0 0)
(-0.40287559 0 0)
(-0.36339054 0 0)
(-0.32147884 0 0)
(-0.27686959 0 0)
(-0.22922439 0 0)
(-0.17815952 0 0)
(-0.12325489 0 0)
(-0.063984278 0 0)
(0 0 0)
(-1.1796375 0 0)
(-1.1708912 0 0)
(-1.1616281 0 0)
(-1.1518558 0 0)
(-1.1415809 0 0)
(-1.130818 0 0)
(-1.1195908 0 0)
(-1.1079222 0 0)
(-1.0958295 0 0)
(-1.0833271 0 0)
(-1.0704279 0 0)
(-1.0571408 0 0)
(-1.0434713 0 0)
(-1.0294256 0 0)
(-1.0150096 0 0)
(-1.0002261 0 0)
(-0.9850744 0 0)
(-0.96955389 0 0)
(-0.95365527 0 0)
(-0.93736318 0 0)
(-0.92066465 0 0)
(-0.90354539 0 0)
(-0.88597901 0 0)
(-0.86793526 0 0)
(-0.84939311 0 0)
(-0.8303276 0 0)
(-0.81069554 0 0)
(-0.79045222 0 0)
(-0.76955289 0 0)
(-0.74792445 0 0)
(-0.7254993 0 0)
(-0.7022547 0 0)
(-0.67813633 0 0)
(-0.65301206 0 0)
(-0.62676664 0 0)
(-0.59936843 0 0)
(-0.57071451 0 0)
(-0.54061856 0 0)
(-0.509024 0 0)
(-0.47578183 0 0)
(-0.44061239 0 0)
(-0.40333902 0 0)
(-0.36382086 0 0)
(-0.32187395 0 0)
(-0.27722249 0 0)
(-0.22952816 0 0)
(-0.17840716 0 0)
(-0.12343446 0 0)
(-0.064079614 0 0)
(0 0 0)
(-1.179779 0 0)
(-1.1711796 0 0)
(-1.162054 0 0)
(-1.1524084 0 0)
(-1.142249 0 0)
(-1.1315897 0 0)
(-1.1204545 0 0)
(-1.1088669 0 0)
(-1.096845 0 0)
(-1.084404 0 0)
(-1.0715569 0 0)
(-1.0583131 0 0)
(-1.0446792 0 0)
(-1.0306619 0 0)
(-1.0162673 0 0)
(-1.0014985 0 0)
(-0.98635618 0 0)
(-0.97084005 0 0)
(-0.95494201 0 0)
(-0.93864709 0 0)
(-0.92194201 0 0)
(-0.90481263 0 0)
(-0.88723393 0 0)
(-0.86917606 0 0)
(-0.85061768 0 0)
(-0.83153392 0 0)
(-0.81188168 0 0)
(-0.7916176 0 0)
(-0.77069627 0 0)
(-0.74904476 0 0)
(-0.72659521 0 0)
(-0.70332515 0 0)
(-0.67918052 0 0)
(-0.65402847 0 0)
(-0.62775319 0 0)
(-0.6003233 0 0)
(-0.57163538 0 0)
(-0.54150093 0 0)
(-0.50986468 0 0)
(-0.47657687 0 0)
(-0.44135831 0 0)
(-0.40403431 0 0)
(-0.36446392 0 0)
(-0.32245992 0 0)
(-0.27774161 0 0)
(-0.22997136 0 0)
(-0.17876449 0 0)
(-0.12369073 0 0)
(-0.06421516 0 0)
(0 0 0)
(-1.1799983 0 0)
(-1.1715879 0 0)
(-1.1626399 0 0)
(-1.1531585 0 0)
(-1.1431492 0 0)
(-1.1326258 0 0)
(-1.1216116 0 0)
(-1.1101307 0 0)
(-1.0982025 0 0)
(-1.0858432 0 0)
(-1.0730659 0 0)
(-1.0598797 0 0)
(-1.0462928 0 0)