/*--------------------------------*- C++ -*----------------------------------*\
| =========                 |                                                 |
| \\      /  F ield         | OpenFOAM: The Open Source CFD Toolbox           |
|  \\    /   O peration     | Version:  v2012                                 |
|   \\  /    A nd           | Website:  www.openfoam.com                      |
|    \\/     M anipulation  |                                                 |
\*---------------------------------------------------------------------------*/
FoamFile
{
    version     2.0;
    format      ascii;
    class       volVectorField;
    location    "106.217607682188273";
    object      U;
}
// * * * * * * * * * * * * * * * * * * * * * * * * * * * * * * * * * * * * * //

dimensions      [0 1 -1 0 0 0 0];


internalField   nonuniform List<vector> 
9200
(
(2.6577342 -0.0013974097 -3.3574868e-22)
(2.6566962 -0.0058603696 -1.655012e-21)
(2.6638071 -0.0019789552 2.8960517e-22)
(2.6553036 -0.0091246933 1.3044295e-21)
(2.6633954 -0.0087340317 7.1424651e-22)
(2.6685409 -0.0021641242 1.031561e-21)
(2.6528659 -0.013181192 -5.2324613e-22)
(2.6624495 -0.013991938 1.0057117e-21)
(2.6687965 -0.0094233995 4.6583746e-22)
(2.6739055 -0.0021798853 -1.5082364e-22)
(2.6494336 -0.016838719 -3.9524266e-22)
(2.6608431 -0.020662188 -2.0676506e-22)
(2.6686403 -0.015350591 -4.3414581e-22)
(2.6749758 -0.009641088 -8.5125635e-22)
(2.678833 -0.0019547306 -2.880283e-22)
(2.6449006 -0.020647335 -6.8219173e-22)
(2.6580664 -0.027375424 -3.0866078e-22)
(2.668256 -0.023043011 -7.4437315e-22)
(2.6759486 -0.01599697 9.5576809e-22)
(2.6808048 -0.0088792913 7.9291087e-24)
(2.6829793 -0.0014922109 -1.5816004e-22)
(2.6391418 -0.024104864 -1.521574e-21)
(2.6540516 -0.034799565 8.1114835e-22)
(2.6668515 -0.031243458 -5.0716508e-22)
(2.6772808 -0.024505177 -1.3919063e-21)
(2.6832056 -0.015048629 6.3273139e-22)
(2.6858379 -0.0071837295 -8.7642487e-24)
(2.6858593 -0.00068469618 -4.3542658e-22)
(2.6322019 -0.027188691 -7.8384864e-24)
(2.648372 -0.042420828 2.445641e-21)
(2.6642935 -0.04067403 2.9172882e-21)
(2.6779343 -0.034118179 6.0824936e-22)
(2.6867074 -0.023657535 -2.0237256e-21)
(2.689855 -0.012505722 7.9323312e-22)
(2.689587 -0.0045745804 -1.2642496e-21)
(2.6870834 0.000495838 8.5423294e-22)
(2.6241255 -0.02959679 9.9822892e-22)
(2.6409248 -0.050095604 1.0403282e-21)
(2.6599509 -0.050941614 -1.2377167e-22)
(2.6777296 -0.045647988 -6.8423052e-24)
(2.6901445 -0.033966724 3.5670172e-22)
(2.6958243 -0.020420602 -3.2466891e-22)
(2.6952084 -0.0083083701 -7.6837005e-22)
(2.6916912 -0.0011700158 -4.0270184e-22)
(2.6864923 0.0016666671 1.4436142e-21)
(2.6150939 -0.031149124 1.628435e-21)
(2.6315314 -0.057385017 -1.7059549e-21)
(2.6535105 -0.061915135 -1.9888981e-21)
(2.6758435 -0.058922389 -1.1505969e-23)
(2.6933457 -0.046891745 2.1872921e-21)
(2.7025732 -0.030503992 -2.22349e-21)
(2.7037243 -0.014628454 2.7777255e-22)
(2.698652 -0.0026483984 2.3433367e-22)
(2.6917964 0.0028306163 1.7659869e-22)
(2.6840668 0.0028890055 -3.4214287e-21)
(2.6053554 -0.03162659 -3.8086544e-22)
(2.6201956 -0.063835884 2.9369813e-21)
(2.6445293 -0.073192071 -1.9171455e-21)
(2.6717662 -0.073921416 4.40696e-22)
(2.6953842 -0.062565062 7.81928e-22)
(2.7100402 -0.043777025 5.1293611e-22)
(2.7140158 -0.023327735 1.1129335e-22)
(2.709504 -0.0064566723 1.6282397e-21)
(2.6997401 0.004091487 -3.0437056e-21)
(2.6896976 0.0071407234 1.5605009e-21)
(2.6798643 0.0041047231 1.3261453e-22)
(2.595259 -0.030859325 0)
(2.6069988 -0.068920577 1.6322951e-21)
(2.632714 -0.084275115 3.3451957e-21)
(2.6647773 -0.090401695 7.3548083e-21)
(2.6956291 -0.08118815 3.1556759e-22)
(2.7173198 -0.060709929 5.1590214e-21)
(2.7262517 -0.035495616 2.3902527e-21)
(2.7231307 -0.012536617 1.3908912e-22)
(2.7124153 0.0036042533 2.7272295e-21)
(2.6982353 0.011452271 -2.2689221e-21)
(2.6854817 0.01145813 2.0390692e-21)
(2.6740782 0.005212804 5.7732225e-21)
(2.5852162 -0.028716058 -2.5003591e-23)
(2.5921529 -0.072072335 5.8623547e-23)
(2.6178257 -0.094565324 2.4051483e-21)
(2.654263 -0.1079431 -2.2228934e-21)
(2.6931431 -0.1028286 8.854742e-22)
(2.723805 -0.081799843 -2.8209308e-21)
(2.7397091 -0.051907881 -4.2977041e-21)
(2.7400574 -0.02191573 -5.6870103e-22)
(2.728683 0.001263103 -1.6945083e-21)
(2.7119353 0.014775233 -1.3303224e-22)
(2.6941179 0.018875674 2.519846e-21)
(2.6793925 0.0154987 -2.5066689e-22)
(2.6670021 0.0061468895 -1.4677992e-22)
(2.5756901 -0.025167483 -1.0925687e-22)
(2.5759817 -0.072730345 9.0455592e-22)
(2.5997575 -0.10337595 1.1205757e-21)
(2.6396207 -0.12599393 -9.2483401e-21)
(2.6870233 -0.12732015 -1.433221e-20)
(2.7284839 -0.10755288 -1.0436892e-21)
(2.7540074 -0.073367015 8.4050823e-21)
(2.7598952 -0.035550607 -5.9326553e-21)
(2.7495279 -0.0036649573 -5.8797405e-21)
(2.7298131 0.016973652 3.0685113e-21)
(2.7079286 0.026165764 1.7556859e-21)
(2.6876152 0.025830276 6.2279282e-21)
(2.6717637 0.019034476 -8.9568201e-22)
(2.658968 0.0069040686 -1.0281298e-20)
(2.5672301 -0.020159325 9.5839514e-22)
(2.5589142 -0.070356758 8.3046695e-22)
(2.5785334 -0.10999228 -5.2907905e-21)
(2.6203656 -0.14384007 2.2875488e-21)
(2.6762956 -0.15436024 1.5574772e-21)
(2.7302964 -0.13822831 1.2820823e-21)
(2.7682835 -0.10088378 1.823733e-21)
(2.7827261 -0.054462495 5.8715656e-21)
(2.7749461 -0.012111287 5.8264469e-21)
(2.7531349 0.017802236 -6.8041165e-21)
(2.7261596 0.033241098 5.9097133e-21)
(2.7006832 0.036879312 1.7369321e-21)
(2.6791496 0.031894385 -1.571275e-21)
(2.6629988 0.021914653 1.3199056e-21)
(2.6503114 0.0074745792 3.4087175e-21)
(2.5608561 -0.013709789 -4.9165881e-23)
(2.5414205 -0.064412771 1.884637e-21)
(2.554266 -0.11368269 -7.7866226e-22)
(2.5961208 -0.16066074 -9.3917952e-22)
(2.6600138 -0.18339922 2.4174603e-21)
(2.7279877 -0.17400776 1.1865545e-20)
(2.7815694 -0.13527329 -6.3362163e-21)
(2.8081513 -0.080104965 -2.4512568e-21)
(2.8056165 -0.025062841 3.5488609e-21)
(2.7822905 0.016533402 -3.6605673e-21)
(2.7500805 0.040428085 8.8090042e-21)
(2.7179569 0.048626526 -2.060002e-21)
(2.6907635 0.046193748 -1.6939381e-21)
(2.6692429 0.036793469 3.3520605e-22)
(2.6535138 0.024070254 -1.3213065e-21)
(2.641347 0.007852935 4.3207969e-21)
(2.5571778 -0.0059931252 -6.7275912e-22)
(2.5245526 -0.054457922 2.8741239e-21)
(2.5270773 -0.11370214 6.4941926e-21)
(2.5665508 -0.17549135 -1.1099257e-20)
(2.63719 -0.21365006 -4.5948215e-21)
(2.7201276 -0.21476916 -1.4418211e-20)
(2.7925353 -0.17742119 1.3717449e-20)
(2.8356758 -0.11385478 -5.1870841e-21)
(2.8419296 -0.04414966 -1.1765477e-20)
(2.8184554 0.012632196 5.9230814e-21)
(2.7803465 0.047397648 -5.413663e-21)
(2.740557 0.061956808 2.5327899e-21)
(2.7059921 0.061954033 -2.6427284e-21)
(2.6789049 0.053641736 2.1903529e-22)
(2.6584392 0.040403621 -4.1088019e-23)
(2.6436919 0.025501592 1.7786288e-21)
(2.6323485 0.0080502477 -6.5682526e-21)
(2.5545037 0.002729951 0)
(2.509912 -0.039681296 -5.9930284e-21)
(2.497049 -0.10944035 1.2442387e-20)
(2.5316335 -0.18738252 -6.7587974e-21)
(2.606997 -0.24404928 1.0487798e-20)
(2.7050939 -0.26004303 1.6637318e-20)
(2.799416 -0.22792924 -2.2906938e-21)
(2.8643737 -0.15742745 -1.2371336e-20)
(2.8842504 -0.070983341 -4.0971138e-20)
(2.8627867 0.0047735174 3.0926604e-21)
(2.8183781 0.054271025 -6.8796887e-21)
(2.7691224 0.077013983 8.7104815e-22)
(2.7256734 0.08051333 -2.8296705e-21)
(2.6913426 0.072468249 -1.6117202e-22)
(2.6658824 0.059022171 3.9540375e-21)
(2.6472416 0.042729959 3.4491225e-22)
(2.6338598 0.026259627 1.5744293e-21)
(2.6235385 0.0080878387 3.4729154e-23)
(2.5546043 0.013017663 7.3950003e-22)
(2.4939273 -0.020220479 4.3850046e-21)
(2.4648267 -0.10031462 -1.2094489e-21)
(2.4920757 -0.19578051 4.3577625e-21)
(2.5695861 -0.27384895 -1.6138538e-20)
(2.6819961 -0.3093025 -7.3117403e-22)
(2.800474 -0.28723535 -2.2360262e-20)
(2.8928907 -0.21245051 -5.9553224e-20)
(2.9327758 -0.10781768 8.0696528e-21)
(2.9167205 -0.0082476848 1.0315293e-20)
(2.8657432 0.060620904 1.5195283e-20)
(2.8049796 0.094662472 -6.0255376e-22)
(2.750201 0.10239813 1.2389516e-21)
(2.7070405 0.09490398 -3.3286995e-21)
(2.6751532 0.079860742 4.7280155e-21)
(2.652406 0.062358829 3.2569324e-24)
(2.6360746 0.043872212 1.3152113e-21)
(2.6242779 0.02642719 -7.7280348e-22)
(2.615086 0.0079913305 3.8234606e-21)
(2.5577537 0.024342844 0)
(2.4794169 0.0035098333 -6.2383058e-22)
(2.4315166 -0.086053159 5.4992058e-21)
(2.4487395 -0.2004331 -2.7502582e-21)
(2.5258866 -0.30232685 9.4223084e-21)
(2.6509963 -0.36224387 2.640821e-20)
(2.795117 -0.35631932 -1.2655069e-20)
(2.9205767 -0.28116373 -1.2255709e-20)
(2.9881117 -0.15735152 2.0675464e-22)
(2.9819924 -0.0282616 -4.5735797e-20)
(2.924501 0.066253352 7.3158603e-21)
(2.8496034 0.11543151 -1.5447451e-20)
(2.7804788 0.12905251 9.4555713e-22)
(2.7260253 0.12167327 7.4288813e-21)
(2.6863816 0.10467703 -3.1322426e-21)
(2.6584596 0.084196459 -2.87142e-21)
(2.6390611 0.063834332 -2.2527609e-21)
(2.625268 0.043987891 -1.7634983e-21)
(2.6151395 0.026102684 -1.2522726e-21)
(2.6071101 0.0077874475 2.2352473e-21)
(2.5628046 0.036803447 3.1059357e-21)
(2.4673582 0.031611061 -8.1147556e-21)
(2.3973103 -0.067128916 -2.3151499e-21)
(2.4025749 -0.20104264 -1.0105042e-20)
(2.47646 -0.32843349 1.9334986e-20)
(2.6113231 -0.41710102 5.8416214e-21)
(2.7811831 -0.43441826 3.660058e-20)
(2.9458234 -0.36602938 7.7632042e-20)
(3.0516577 -0.22397779 1.4550701e-20)
(3.06225 -0.058170227 -8.3640843e-20)
(2.9977614 0.070581974 -3.2057347e-20)
(2.9048849 0.1403595 -4.1532434e-21)
(2.8174096 0.16173397 2.6766854e-21)
(2.7486211 0.15450415 1.3498072e-22)
(2.6992191 0.13419639 6.2498516e-21)
(2.6652276 0.10998949 6.6627675e-21)
(2.6420915 0.085794138 1.4524041e-21)
(2.6262868 0.063723044 -5.8965383e-21)
(2.6150573 0.043260717 -2.1630249e-21)
(2.6065765 0.025387641 -1.2741194e-21)
(2.5996868 0.0075018578 0)
(2.5676076 0.050139603 -5.4500754e-22)
(2.4577735 0.064095944 -5.022178e-21)
(2.3623335 -0.043449389 7.9729084e-21)
(2.3540847 -0.19725956 9.2822979e-22)
(2.4217387 -0.3508479 -9.3270688e-21)
(2.5617707 -0.47090984 -1.4488306e-20)
(2.7529437 -0.51816865 -2.3661821e-20)
(2.9592666 -0.46424891 5.1171455e-20)
(3.1172478 -0.30982042 5.4959617e-20)
(3.1594379 -0.10261023 4.3330581e-20)
(3.0912967 0.071940826 5.0022671e-21)
(2.9744191 0.1704021 -3.055788e-20)
(2.8621405 0.20242242 -1.7698735e-20)
(2.7749656 0.19495789 1.3420157e-20)
(2.7134316 0.17013633 -7.9367054e-21)
(2.6720585 0.14031277 -1.6693652e-21)
(2.6447612 0.1113919 -4.498053e-21)
(2.6266438 0.085108671 2.8124617e-21)
(2.6143807 0.062335645 8.9721627e-22)
(2.6055939 0.041877154 0)
(2.5986682 0.024378347 0)
(2.5928562 0.007157738 1.0957317e-21)
(2.5668635 0.063832339 -7.0501641e-21)
(2.4486591 0.10008254 3.3227659e-21)
(2.3261546 -0.014982523 2.5488641e-20)
(2.3036589 -0.18918402 -1.0039313e-20)
(2.3626467 -0.36854105 -1.4545544e-20)
(2.5019833 -0.52069071 1.1749408e-20)
(2.7071597 -0.60218453 -1.4346309e-20)
(2.9510192 -0.5711895 3.6602332e-22)
(3.1665181 -0.41058747 8.1002658e-20)
(3.259526 -0.16033063 6.0752251e-20)
(3.2037306 0.068976494 7.4985275e-20)
(3.0637449 0.20608364 4.584896e-20)
(2.9173535 0.25324646 4.7300569e-20)
(2.8051567 0.2453306 -2.0009651e-20)
(2.7284616 0.21394626 2.7566239e-21)
(2.6782937 0.17666611 -3.838632e-22)
(2.6462242 0.14096421 -6.3809771e-21)
(2.6257852 0.10962473 4.4402642e-22)
(2.612493 0.08263789 -2.9073414e-21)
(2.6035184 0.059979648 9.2591213e-22)
(2.5969599 0.040011082 -2.9116889e-21)
(2.5914516 0.023160883 9.4610949e-22)
(2.5866307 0.0067751062 -6.5025226e-23)
(2.5532287 0.078174743 -3.2577541e-21)
(2.4385519 0.13967859 -3.1290079e-23)
(2.287901 0.018150856 -2.528942e-20)
(2.251629 -0.17714892 -3.5257878e-21)
(2.3005985 -0.38115391 3.5729937e-21)
(2.4337708 -0.56422306 -1.1684669e-20)
(2.6432053 -0.68203255 1.0482848e-20)
(2.9131671 -0.68025243 -8.924697e-20)
(3.1930175 -0.52098773 -1.4622434e-19)
(3.3425645 -0.22708783 4.9879306e-20)
(3.3140345 0.067433244 -6.5528322e-20)
(3.1665014 0.25062709 1.0493099e-19)
(2.9865505 0.31712703 -5.2133291e-20)
(2.8400928 0.30813581 -2.3157618e-21)
(2.7434707 0.26766044 -9.3949289e-21)
(2.682896 0.22012248 -1.3591121e-21)
(2.6455675 0.1756909 5.6127459e-21)
(2.6227798 0.13733979 1.6361431e-21)
(2.6087636 0.1054663 3.609407e-21)
(2.5998351 0.078859806 -2.835889e-22)
(2.5937789 0.05693507 2.120409e-22)
(2.5891837 0.037815276 -1.9645595e-21)
(2.5849318 0.021808881 6.2970422e-23)
(2.5810017 0.0063706186 -1.6679326e-21)
(2.523138 0.094577958 1.9760391e-22)
(2.4031705 0.18142265 -6.582984e-22)
(2.2448827 0.055935502 -2.3710166e-20)
(2.1978493 -0.16186845 1.7237478e-21)
(2.2373915 -0.38884306 8.1406395e-21)
(2.3596793 -0.5995849 -8.0315021e-21)
(2.5633622 -0.75426779 -4.6829353e-20)
(2.8460793 -0.78562252 -7.8687171e-20)
(3.1744032 -0.63805733 1.8742141e-20)
(3.4013007 -0.30113047 3.6158944e-19)
(3.4096569 0.06938161 -1.1091453e-19)
(3.2592926 0.30964078 -7.162127e-20)
(3.0608467 0.39976826 -6.3625242e-20)
(2.8810307 0.38738649 4.713093e-20)
(2.7576958 0.333348 -2.3570417e-20)
(2.6844629 0.27214523 2.9377049e-20)
(2.6415167 0.2161673 8.9517717e-21)
(2.6166175 0.16909481 0)
(2.6022674 0.13063331 -2.3682988e-21)
(2.5938941 0.099637274 -4.0854573e-21)
(2.5887301 0.074196916 1.9163666e-21)
(2.5851702 0.053442197 1.9078109e-21)
(2.582255 0.035417986 1.5315242e-21)
(2.5790903 0.020383058 -8.0303085e-22)
(2.5759456 0.0059577146 -1.1472759e-21)
(2.4818125 0.11335754 -1.9873329e-21)
(2.3444138 0.22227791 -1.0923959e-20)
(2.1972404 0.096853955 -1.0882591e-20)
(2.142253 -0.14443689 1.9215721e-20)
(2.1745435 -0.39228144 -3.0660563e-20)
(2.2825438 -0.62699711 1.1069632e-20)
(2.4708216 -0.81327124 2.8736911e-20)
(2.7469368 -0.88005722 1.9057817e-20)
(3.1132229 -0.75285467 6.9290377e-20)
(3.4009337 -0.38513409 -3.1820822e-19)
(3.4688035 0.069409143 7.50774e-20)
(3.3365788 0.3812898 4.0391926e-21)
(3.1171047 0.50304694 9.5639561e-20)
(2.9192323 0.48845001 -1.5382006e-20)
(2.7707239 0.41433554 4.9438724e-21)
(2.6812605 0.33394187 4.4291818e-21)
(2.6324818 0.26321963 1.3889575e-20)
(2.6059907 0.2050235 5.1903474e-21)
(2.5920176 0.15867517 1.1888587e-21)
(2.5848424 0.12190509 -1.1655807e-21)
(2.5811853 0.092752388 -6.6356281e-22)
(2.5791437 0.069000931 0)
(2.5776517 0.049697913 2.0713271e-21)
(2.5761364 0.032922891 1.5544951e-21)
(2.5738931 0.018931941 -2.1580068e-22)
(2.5714292 0.0055468997 7.1248239e-22)
(2.4341691 0.13305112 4.9815552e-21)
(2.2823366 0.26228691 -3.9375397e-20)
(2.1431099 0.13657292 -1.4456834e-22)
(2.0856997 -0.12605592 -1.1614803e-21)
(2.1130576 -0.39231889 5.6242961e-21)
(2.2050341 -0.64510343 7.9734647e-21)
(2.3688019 -0.86001706 -4.9653159e-20)
(2.6196734 -0.95208017 7.2391718e-20)
(2.9924337 -0.85224192 -1.1326e-20)
(3.3387472 -0.45763256 -2.2571925e-19)
(3.4702227 0.069659603 -1.1209587e-21)
(3.4034985 0.47157455 2.2585784e-19)
(3.1454918 0.6264192 2.672077e-20)
(2.9318502 0.61059362 -5.7943919e-20)
(2.7758 0.51433671 3.4373675e-20)
(2.6718305 0.40733162 1.5412801e-20)
(2.6164701 0.31720365 -1.1654048e-20)
(2.5893836 0.24538996 -1.507884e-20)
(2.5768167 0.18934413 -3.0901819e-22)
(2.5717953 0.14595452 9.2221378e-22)
(2.5704046 0.11202266 3.7670476e-21)
(2.570524 0.0853049 1.9451406e-21)
(2.570982 0.063550965 -5.0253972e-22)
(2.5711519 0.045857388 -5.0326113e-22)
(2.5707739 0.030411062 5.3810001e-22)
(2.5692959 0.017493153 -8.7080462e-23)
(2.5674131 0.0051461457 -1.3737315e-21)
(2.3830289 0.15326646 -1.4785941e-21)
(2.2164134 0.30125037 5.5108563e-21)
(2.0814628 0.17305978 -7.8037565e-21)
(2.0293855 -0.107893 -1.0923003e-21)
(2.0538047 -0.3900804 2.8757008e-21)
(2.1294993 -0.65546185 -3.6961215e-20)
(2.2616283 -0.88857179 1.7008519e-21)
(2.4721145 -0.99888634 -8.6861268e-20)
(2.8170452 -0.93155465 -1.0684639e-21)
(3.1819599 -0.50137139 4.0100849e-19)
(3.3596488 0.096532924 -2.1074845e-19)
(3.3682256 0.59300193 1.6103956e-20)
(3.1281032 0.78528556 7.7542547e-20)
(2.9069855 0.7539746 -2.9815465e-20)
(2.7533133 0.63062496 -1.7560285e-20)
(2.6521268 0.49433469 -1.8967921e-20)
(2.5915458 0.37850945 -1.4851912e-20)
(2.5650095 0.28989629 -1.3946306e-20)
(2.5553715 0.22248013 -4.5591163e-21)
(2.5537477 0.17125962 1.2051147e-22)
(2.5556474 0.13212037 1.0062468e-21)
(2.5587042 0.10165226 2.0530085e-22)
(2.5617283 0.077671126 1.330588e-21)
(2.5641179 0.058059492 3.3822964e-22)
(2.5655822 0.042038644 -3.5080341e-22)
(2.5661041 0.027943869 -3.9563341e-22)
(2.5652494 0.016094965 4.1618783e-22)
(2.5638549 0.0047612773 1.2698891e-21)
(2.3313133 0.17329396 4.777374e-22)
(2.1513592 0.33837077 3.9269361e-20)
(2.0172853 0.20682771 -2.7315677e-20)
(1.9728787 -0.091533284 -1.3879595e-20)
(1.9977372 -0.38652431 1.50247e-21)
(2.0581522 -0.6587978 8.682076e-21)
(2.1544265 -0.90159736 -1.9744484e-20)
(2.3145711 -1.0204168 4.4111006e-20)
(2.6031207 -0.97792579 -1.3734253e-19)
(2.945326 -0.51600981 -7.6782489e-19)
(3.1286219 0.16011705 2.395382e-20)
(3.1326002 0.72822182 -3.1145554e-19)
(3.0173032 0.97473898 2.1822573e-19)
(2.838956 0.92436308 3.4413859e-20)
(2.6904442 0.75846753 -4.6371574e-20)
(2.6090876 0.59172107 -2.0282834e-20)
(2.5554514 0.44763836 -1.2073141e-20)
(2.5310119 0.33798278 -1.0289056e-20)
(2.5262917 0.25735062 -1.6249865e-21)
(2.5296962 0.19738605 4.809028e-21)
(2.5361337 0.15234183 4.2677424e-21)
(2.5431021 0.11803831 1.6182084e-21)
(2.5494202 0.091277884 2.4969941e-21)
(2.5545844 0.070125162 -2.2410316e-22)
(2.5584095 0.052681915 -4.606042e-22)
(2.5608469 0.038328287 -3.6437803e-22)
(2.5620596 0.025566159 3.4779517e-22)
(2.5617017 0.014757827 9.5649489e-22)
(2.5607114 0.0043963654 1.3816754e-21)
(2.2810185 0.1929677 -3.0756865e-21)
(2.091478 0.37343092 2.5113085e-21)
(1.9555912 0.2377656 -1.7962979e-20)
(1.9162072 -0.0777419 2.800218e-20)
(1.9455002 -0.38257209 -4.5913512e-20)
(1.9927247 -0.65647531 -2.0567992e-21)
(2.0523521 -0.89950806 -4.772495e-20)
(2.1575648 -1.0227546 -3.4182674e-20)
(2.3698185 -0.99487172 9.8013138e-20)
(2.658138 -0.50358295 1.8697187e-19)
(2.8274151 0.24097525 5.8387676e-20)
(2.8485754 0.87174879 -3.1519694e-19)
(2.8004497 1.1567312 -3.6673282e-19)
(2.7030752 1.105606 7.3586245e-20)
(2.590416 0.89849802 -5.1621739e-20)
(2.5291389 0.69103518 -1.7300079e-21)
(2.5018204 0.52235479 1.7993382e-21)
(2.4858086 0.3889156 1.4295708e-20)
(2.4881883 0.29293192 -7.9186512e-21)
(2.4986739 0.22335628 1.5710925e-21)
(2.5111614 0.17211043 4.1129699e-21)
(2.5231614 0.13366691 -5.2763079e-22)
(2.5336299 0.10429992 -1.6828399e-21)
(2.5422119 0.081232356 2.7671943e-22)
(2.5488729 0.062857347 5.9154218e-22)
(2.5537132 0.04752711 7.229345e-22)
(2.5568495 0.034787285 7.4655537e-22)
(2.558573 0.023309291 -3.5377096e-22)
(2.5586013 0.01349581 -8.589235e-22)
(2.5579403 0.0040540163 -7.5930522e-22)
(2.2293827 0.2122786 -4.6872744e-21)
(2.0388507 0.40667044 2.6241535e-20)
(1.9009224 0.2656785 -4.6333393e-20)
(1.8616593 -0.066723005 1.4580928e-21)
(1.8972949 -0.37901477 1.5889674e-21)
(1.934371 -0.65026211 1.545635e-20)
(1.9597737 -0.88664678 -1.9008223e-20)
(2.0092091 -1.0109592 1.0252983e-20)
(2.1357375 -0.97723041 2.9565046e-20)
(2.3461021 -0.46735665 1.4664372e-19)
(2.4842029 0.33039974 -2.8068225e-21)
(2.5142813 1.0172585 -2.5054903e-19)
(2.512385 1.3217154 -1.3303085e-19)
(2.4914738 1.273758 -2.6552772e-20)
(2.4466793 1.0413981 0)
(2.4139542 0.78937689 5.2088491e-23)
(2.4200648 0.59461246 1.4878587e-20)
(2.42721 0.44120729 -8.9051588e-22)
(2.4398871 0.32778751 1.0072093e-21)
(2.4598486 0.24799336 -6.1467282e-21)
(2.4801511 0.19035816 -1.8325852e-21)
(2.4984554 0.14792025 -1.1609979e-21)
(2.5140026 0.11591433 -4.7341994e-22)
(2.5267105 0.09128149 1.0634409e-21)
(2.5367504 0.071730461 9.7585503e-23)
(2.5443827 0.055992571 -2.4773803e-21)
(2.549891 0.04266733 -2.9150857e-22)
(2.5534971 0.031456258 7.6772409e-22)
(2.5555788 0.021193854 -9.7957596e-23)
(2.5558986 0.01231785 -8.42492e-22)
(2.5555009 0.003735584 -1.2868628e-23)
(2.1761717 0.23230366 6.3844844e-21)
(1.9918106 0.43917243 5.0966948e-20)
(1.8563141 0.29052216 3.5286015e-20)
(1.8124325 -0.057693112 3.8008301e-21)
(1.8532931 -0.37689248 3.003486e-20)
(1.8836484 -0.64141961 1.6090595e-20)
(1.8791302 -0.8662532 6.1862934e-20)
(1.8753878 -0.98438339 -3.9526607e-20)
(1.9162837 -0.93686433 -2.3146218e-19)
(2.0332156 -0.41386206 1.0240061e-19)
(2.12667 0.42278775 -2.3847572e-20)
(2.1577496 1.1514286 1.3947132e-19)
(2.191995 1.4654185 2.5900271e-19)
(2.2297869 1.4193078 -1.3145948e-19)
(2.2517929 1.1691685 1.3666662e-20)
(2.2701079 0.88474071 -1.7349338e-20)
(2.3065888 0.65729966 -1.3651537e-20)
(2.3502608 0.48980422 -2.3750698e-20)
(2.3807107 0.36036398 3.5348541e-21)
(2.4125947 0.2697068 -8.8987964e-21)
(2.4427408 0.20592347 -1.6518349e-21)
(2.4687323 0.15975384 2.4464921e-21)
(2.4903426 0.12553161 -1.4317005e-21)
(2.5078957 0.099469189 -2.0093578e-21)
(2.5218699 0.07920006 2.9099878e-21)
(2.5327359 0.062899239 -3.87252e-21)
(2.5409204 0.049606405 2.526608e-21)
(2.5468152 0.0381468 2.2113485e-23)
(2.550703 0.028359999 -1.0951977e-21)
(2.553016 0.019231966 6.4994314e-23)
(2.5535468 0.011228834 1.3806157e-22)
(2.5533551 0.0034413547 8.0166882e-22)
(2.1249252 0.2514557 -4.066861e-22)
(1.9524044 0.47119692 -1.0883812e-19)
(1.8199429 0.31715399 2.7793556e-19)
(1.7721323 -0.052691538 4.7981852e-20)
(1.8138224 -0.37545827 -2.5975309e-20)
(1.8405331 -0.63169367 -4.0090948e-20)
(1.8111101 -0.8410436 1.4786671e-20)
(1.759761 -0.94599186 -6.1671451e-20)
(1.7218194 -0.87993582 -1.2495243e-19)
(1.7415244 -0.34652389 1.7723856e-19)
(1.7795292 0.51091228 4.2204105e-20)
(1.8081089 1.2676003 2.0729166e-19)
(1.8704592 1.5831693 -3.1801286e-19)
(1.9528212 1.5379525 -2.2744108e-20)
(2.021491 1.2729629 -9.2033353e-20)
(2.0962694 0.96642368 2.5310289e-20)
(2.1693718 0.7096789 9.4224567e-22)
(2.2498249 0.52687845 2.3929201e-21)
(2.3097725 0.38809875 9.6997832e-21)
(2.3567151 0.28677646 1.9428862e-20)
(2.398841 0.21735612 -2.1324638e-20)
(2.4339862 0.168124 8.7681841e-21)
(2.4626526 0.13220294 -2.6455387e-21)
(2.485751 0.10527688 -9.5382565e-22)
(2.5041817 0.084511765 7.6132632e-22)
(2.5186955 0.068161021 5.7710554e-22)
(2.5299042 0.054803019 -3.7774773e-22)
(2.5383134 0.043738351 2.7587277e-21)
(2.5443705 0.033988763 -2.3465404e-21)
(2.5483879 0.025511204 8.096176e-22)
(2.5508278 0.017429191 2.0361786e-22)
(2.5515023 0.010230492 3.1607901e-22)
(2.5514678 0.0031710904 1.4974708e-22)
(2.0778286 0.26878614 -6.936535e-21)
(1.9228134 0.5002106 -4.8091501e-20)
(1.795315 0.3469318 1.7199843e-21)
(1.7370539 -0.042392421 5.4402415e-20)
(1.7807045 -0.37795722 -4.2886636e-21)
(1.8045307 -0.62115277 -9.5463407e-21)
(1.7552599 -0.81266145 4.672294e-20)
(1.6637598 -0.90109386 -1.0406548e-19)
(1.5579409 -0.81162861 -2.5850961e-20)
(1.487423 -0.2705346 6.5552423e-19)
(1.4650226 0.59053142 -6.1395268e-19)
(1.4893108 1.3593757 1.1597659e-19)
(1.5744784 1.6723812 -1.1763337e-19)
(1.6858696 1.6278943 -1.988852e-20)
(1.7813636 1.3535983 -3.7696174e-20)
(1.8950806 1.0260763 6.1403512e-20)
(2.0150425 0.74978948 -7.228806e-21)
(2.1279322 0.54849555 1.8322085e-20)
(2.2248746 0.40600455 1.7118203e-20)
(2.2926692 0.29748186 8.8072336e-21)
(2.3486823 0.22310769 -1.0709114e-20)
(2.3945061 0.17181253 3.1483148e-21)
(2.4311822 0.13506287 2.6175399e-21)
(2.460462 0.10788917 4.9716083e-22)
(2.4837997 0.087239287 -4.8852733e-21)
(2.5023138 0.071088596 -1.5952481e-21)
(2.516839 0.0581952 -9.7545857e-23)
(2.5280284 0.047462943 -2.1688361e-21)
(2.5364105 0.038402206 4.2492194e-21)
(2.5424543 0.030201033 -1.1404656e-24)
(2.5464804 0.02291346 6.7688957e-23)
(2.548963 0.015786109 2.7674071e-24)
(2.5497256 0.0093221481 -7.0343626e-23)
(2.549807 0.0029252704 -1.5242107e-21)
(2.0373115 0.28377716 -4.0107855e-21)
(1.9038442 0.52513756 7.7201378e-20)
(1.7859189 0.37395082 1.4495381e-19)
(1.7139228 -0.027622185 2.8341259e-19)
(1.7492437 -0.37495992 3.8077976e-20)
(1.7749689 -0.61276095 2.3808921e-20)
(1.7109958 -0.78290256 -7.6631768e-20)
(1.5868307 -0.85315067 3.8884113e-19)
(1.4263425 -0.73770707 1.8354604e-19)
(1.2799918 -0.19164718 -6.7696609e-19)
(1.2009341 0.6610113 -9.1091052e-20)
(1.2196548 1.4249649 2.2704102e-19)
(1.3227383 1.7331432 -6.5738656e-20)
(1.44719 1.6923545 1.8710437e-20)
(1.5513084 1.4143804 3.5787746e-20)
(1.6797249 1.0653709 -1.6757742e-19)
(1.8433436 0.77217231 2.2040342e-20)
(1.9925407 0.55552319 8.773234e-21)
(2.1247495 0.40870453 1.1123786e-20)
(2.2210204 0.2995738 -3.7910632e-21)
(2.2929589 0.22166388 9.3993729e-21)
(2.3508902 0.16962766 -2.7929697e-21)
(2.3964536 0.13315192 8.3242613e-21)
(2.4324422 0.10664169 2.1906566e-22)
(2.4610277 0.086713744 -5.7138084e-21)
(2.4837915 0.071353705 7.0623258e-21)
(2.5018499 0.059164838 -2.440786e-21)
(2.5160122 0.049286193 -2.7057243e-21)
(2.5269161 0.040871422 8.2061283e-22)
(2.5350814 0.033593838 8.4502623e-22)
(2.5409769 0.026780284 2.4065838e-21)
(2.5449173 0.020563635 -1.6581814e-21)
(2.5473755 0.014299606 -1.8229635e-23)
(2.548181 0.0085013253 1.924791e-23)
(2.5483436 0.0027034124 -7.1618962e-22)
(2.0058434 0.29602077 -2.7422897e-22)
(1.8960391 0.54526936 2.3275543e-20)
(1.7922479 0.39935661 4.9128394e-20)
(1.703367 -0.014338971 -3.0750405e-19)
(1.7218168 -0.36935474 -3.2638346e-20)
(1.7511808 -0.59873282 -4.2257241e-20)
(1.6756246 -0.75437155 1.4763093e-19)
(1.5280531 -0.80486639 8.9765209e-20)
(1.3251362 -0.66268003 1.5577961e-21)
(1.1211279 -0.11420145 -1.1101012e-18)
(0.99648882 0.72097661 7.9390528e-20)
(1.0099518 1.4660337 -2.5574507e-19)
(1.1251349 1.7704693 -9.0612201e-20)
(1.2471419 1.735237 -5.6485443e-19)
(1.3424325 1.4604255 3.2303361e-19)
(1.4642533 1.0913489 2.2281953e-20)
(1.6548664 0.7750395 3.2735101e-20)
(1.8482222 0.54759243 -1.2909184e-21)
(2.0126341 0.39457094 -1.9284661e-21)
(2.1417254 0.28964178 -2.1289174e-21)
(2.2329414 0.211794 1.7042289e-20)
(2.3040323 0.16040194 -3.3558239e-21)
(2.3592642 0.12563116 -4.0353843e-21)
(2.4023423 0.10083664 2.3518278e-21)
(2.4363668 0.082467921 6.08761e-21)
(2.4634978 0.068430262 -7.1354231e-21)
(2.4851891 0.057476894 1.6584255e-21)
(2.5024391 0.048660555 5.0910178e-21)
(2.5159796 0.041389432 -5.0833468e-22)
(2.5264066 0.03500241 7.1954844e-21)
(2.5342149 0.029296916 -5.7364636e-21)
(2.5398604 0.023715319 1.0432797e-21)
(2.543643 0.018453734 -2.660771e-21)
(2.5460246 0.012963894 -4.8071808e-22)
(2.5468366 0.007764265 2.2088298e-22)
(2.5470518 0.0025038075 8.7929609e-22)
(1.984045 0.30528786 -4.2755853e-21)
(1.9001418 0.56027342 -2.1906044e-21)
(1.8118825 0.42233759 -3.0606385e-19)
(1.7052287 -0.00055442466 -3.9465716e-19)
(1.7040161 -0.36494194 -1.3880321e-21)
(1.730856 -0.58365906 -1.3365556e-20)
(1.6547633 -0.72322874 7.3892421e-20)
(1.4815887 -0.75624978 -1.3589345e-19)
(1.2509574 -0.59110938 7.143579e-21)
(1.0047912 -0.041668998 1.1540394e-18)
(0.8502281 0.76845383 4.5655709e-19)
(0.86280578 1.4852932 -6.3129589e-19)
(0.98268209 1.7894443 6.4567124e-20)
(1.0886924 1.7640722 -2.4692977e-19)
(1.1591586 1.498867 -3.1210652e-20)
(1.2572855 1.1120735 1.0649577e-19)
(1.4540232 0.76224417 9.2974301e-20)
(1.6939278 0.52228005 -2.6631001e-21)
(1.8942717 0.36486563 7.2654633e-21)
(2.0552829 0.2646696 -6.1706325e-22)
(2.1700742 0.19220903 1.1541612e-20)
(2.2551511 0.1432136 -2.018379e-20)
(2.3206568 0.11175931 8.0310516e-21)
(2.3710321 0.089948997 1.4215895e-20)
(2.4105139 0.07404595 4.6592958e-21)
(2.4419624 0.062028491 -1.5597071e-20)
(2.4672507 0.052733863 4.8000618e-21)
(2.4875862 0.045433075 0)
(2.5038061 0.039474323 -7.2947108e-21)
(2.5165502 0.034444783 5.0485101e-21)
(2.5263658 0.029818501 -2.3329348e-21)
(2.5337166 0.02548705 -1.2228157e-21)
(2.5390378 0.020989531 -2.1413086e-21)
(2.5426091 0.016572379 -1.2436251e-22)
(2.5448743 0.011771316 1.0476076e-22)
(2.5456643 0.0071063454 1.4852791e-22)
(2.5459084 0.0023248642 1.4426062e-21)
(1.9715586 0.31135556 -1.1465e-21)
(1.9155099 0.56994933 3.1704718e-20)
(1.8422703 0.44249895 2.8674583e-21)
(1.7209374 0.014035168 3.1593565e-19)
(1.6994246 -0.36122243 4.0154586e-20)
(1.7151029 -0.57062971 2.9355049e-20)
(1.6425956 -0.69064708 -1.3636683e-19)
(1.4594102 -0.71114266 6.0955809e-21)
(1.1955806 -0.51938845 6.087167e-19)
(0.92467756 0.02193594 1.369879e-18)
(0.76206635 0.80418175 2.1704853e-19)
(0.77283943 1.4879579 3.3108503e-20)
(0.88932965 1.7957885 5.770155e-20)
(0.96985271 1.7855262 5.0640543e-19)
(1.0019212 1.5366379 -6.7047894e-19)
(1.0620341 1.1345201 -1.7913786e-19)
(1.2465164 0.74042217 -6.7159341e-20)
(1.5274812 0.47830796 1.7340199e-20)
(1.7729279 0.31991708 1.1946526e-20)
(1.9643171 0.22402425 -2.8241241e-23)
(2.1054322 0.16121812 -7.0386449e-21)
(2.2058057 0.11751117 1.4040946e-20)
(2.2818458 0.090986631 1.2692339e-21)
(2.3395681 0.073591474 -4.4429997e-21)
(2.3843301 0.06119565 -1.1405952e-22)
(2.4198659 0.051899723 2.7630434e-21)
(2.4485499 0.044794986 -8.6668061e-21)
(2.471843 0.039315232 7.2847607e-21)
(2.4906781 0.035041178 -6.1099332e-22)
(2.5057352 0.031497444 7.9083618e-21)
(2.5175697 0.028384507 4.7752187e-21)
(2.5266832 0.0252757 4.9222107e-21)
(2.533507 0.02213478 -8.8020008e-23)
(2.5384519 0.018582782 1.6275698e-21)
(2.5417736 0.014905958 2.9002684e-21)
(2.5438932 0.010712992 2.3956019e-22)
(2.5446394 0.0065224205 -2.365886e-22)
(2.5448934 0.0021650793 -4.955751e-23)
(1.9708508 0.31394433 -1.0892202e-21)
(1.9393008 0.57421172 4.6484236e-20)
(1.88372 0.45899982 -4.3889718e-20)
(1.7533732 0.029382426 3.4934622e-22)
(1.7035619 -0.35682757 4.550123e-22)
(1.705464 -0.56014555 1.601981e-20)
(1.6384481 -0.65949724 -1.6558478e-21)
(1.448075 -0.66826514 -1.5389117e-19)
(1.1762604 -0.46555248 -5.3126962e-19)
(0.87498912 0.085287938 -1.4651618e-18)
(0.71839251 0.83412499 1.6649625e-19)
(0.72848172 1.4824638 5.2469178e-19)
(0.83553241 1.7939655 -1.3930919e-19)
(0.88601999 1.8047618 2.6280628e-19)
(0.86985954 1.5788934 3.2463234e-21)
(0.87921416 1.1635116 -3.451562e-19)
(1.0373828 0.71594988 -1.3364571e-19)
(1.3487501 0.41662639 -9.3135903e-21)
(1.6484182 0.25828961 6.847285e-20)
(1.8726133 0.16870751 -1.0935677e-20)
(2.040105 0.11746718 -3.3137985e-21)
(2.1576437 0.082936415 2.8949264e-21)
(2.2441677 0.063015577 4.4282016e-21)
(2.3091244 0.051591112 -1.5569432e-22)
(2.3588014 0.043811484 7.2735004e-21)
(2.3980028 0.038014329 -1.2806712e-20)
(2.4297092 0.033577527 -2.3651347e-20)
(2.4556821 0.030283113 6.9627309e-21)
(2.476962 0.027889231 -4.7599582e-22)