/*--------------------------------*- C++ -*----------------------------------*\
| =========                 |                                                 |
| \\      /  F ield         | OpenFOAM: The Open Source CFD Toolbox           |
|  \\    /   O peration     | Version:  v2012                                 |
|   \\  /    A nd           | Website:  www.openfoam.com                      |
|    \\/     M anipulation  |                                                 |
\*---------------------------------------------------------------------------*/
FoamFile
{
    version     2.0;
    format      ascii;
    class       surfaceVectorField;
    location    "106.217607682188273";
    object      Uf;
}
// * * * * * * * * * * * * * * * * * * * * * * * * * * * * * * * * * * * * * //

dimensions      [0 1 -1 0 0 0 0];


internalField   nonuniform List<vector> 
18180
(
(2.6571978 -0.0037319456 -1.0174908e-21)
(2.6610691 -0.0016937043 -1.7281933e-23)
(2.6559766 -0.0075228804 -1.2573225e-22)
(2.6603426 -0.0073245415 -4.5040932e-22)
(2.6635943 -0.0055360839 5.0904175e-22)
(2.6660544 -0.0020733021 6.6768116e-22)
(2.6540439 -0.011245974 3.5999248e-22)
(2.6591687 -0.011604656 1.1548264e-21)
(2.6629066 -0.011394712 8.6486105e-22)
(2.6659847 -0.0090852439 5.9119163e-22)
(2.668673 -0.006004492 7.3921865e-22)
(2.6712586 -0.0021721535 4.2906665e-22)
(2.6510923 -0.015063781 -4.5710168e-22)
(2.6571444 -0.016992967 -3.6199379e-22)
(2.6616194 -0.017481032 3.7916954e-22)
(2.6654379 -0.014684173 2.7199723e-22)
(2.6687158 -0.012413145 7.6996958e-25)
(2.6719251 -0.0095343133 -2.0530214e-22)
(2.6744586 -0.0061404693 -5.1277862e-22)
(2.6763809 -0.0020651516 -2.2037817e-22)
(2.6470913 -0.018822976 -5.4352056e-22)
(2.6540075 -0.022207535 -3.4880782e-22)
(2.6594083 -0.024119791 -2.5941898e-22)
(2.6644583 -0.02187529 -4.8071915e-22)
(2.6684417 -0.019376766 -5.9445499e-22)
(2.6723418 -0.015679943 2.7410349e-22)
(2.6754785 -0.012838009 8.2527292e-23)
(2.6779007 -0.0092528816 -4.1345843e-22)
(2.6798519 -0.0056429398 -1.3508953e-22)
(2.6809119 -0.0017190516 -2.2185555e-22)
(2.6419248 -0.022438137 -1.1159343e-21)
(2.6496843 -0.027858488 7.7009972e-23)
(2.6559918 -0.031238418 2.6999268e-22)
(2.6623958 -0.029346395 -4.0591369e-22)
(2.6675302 -0.027270291 -6.2179714e-22)
(2.6728286 -0.023788053 -1.0743334e-21)
(2.676637 -0.020442481 -2.5738787e-22)
(2.6795991 -0.015513691 7.9335445e-22)
(2.6820454 -0.01197061 3.307972e-22)
(2.6833355 -0.0080153082 -5.7679702e-25)
(2.6844565 -0.0045288041 -8.0958323e-23)
(2.6844122 -0.0010807506 -3.0013475e-22)
(2.6355556 -0.025709142 -7.3936403e-22)
(2.6438815 -0.033437749 4.9991338e-22)
(2.6511167 -0.038752573 1.6557621e-21)
(2.6591546 -0.037793028 1.8844139e-21)
(2.6655297 -0.036152235 1.2624024e-21)
(2.6724696 -0.032708287 6.2767238e-23)
(2.6776185 -0.029458269 -3.5833523e-22)
(2.6820317 -0.024073191 -1.7138512e-21)
(2.6850151 -0.019534038 -7.399884e-22)
(2.6865485 -0.01375286 7.1660515e-22)
(2.6879137 -0.0098397576 4.0567009e-22)
(2.6877275 -0.0058542774 -6.4846781e-22)
(2.6877856 -0.002771553 -8.6372882e-22)
(2.6864744 -8.3193182e-05 2.2184773e-22)
(2.6280285 -0.02843855 5.1203982e-22)
(2.6365761 -0.038861063 5.2626347e-22)
(2.6445237 -0.046414026 1.7194529e-21)
(2.6542089 -0.046762912 1.1362841e-21)
(2.6620495 -0.04600845 1.3458348e-21)
(2.671111 -0.043208567 1.4255953e-21)
(2.6778285 -0.040109011 2.9040376e-22)
(2.6840982 -0.034040922 4.8007289e-22)
(2.6884835 -0.028958917 -7.9365151e-22)
(2.691295 -0.022008103 -1.1579911e-21)
(2.6929396 -0.016610999 2.1555943e-22)
(2.69254 -0.010366999 -2.4444083e-24)
(2.6924919 -0.0064153093 -1.0080026e-21)
(2.69063 -0.0028398738 -8.2527874e-22)
(2.6894645 -0.00042026072 2.0470026e-22)
(2.6867759 0.001092385 1.1543983e-21)
(2.6194584 -0.030403646 1.323885e-21)
(2.6277007 -0.043756681 -3.7973609e-22)
(2.6360708 -0.053889409 -3.7880315e-22)
(2.6473528 -0.056118833 -5.033613e-22)
(2.6566229 -0.0566581 -1.0875691e-21)
(2.6680259 -0.055008346 -6.6564469e-23)
(2.676755 -0.052539578 -9.2522335e-24)
(2.6856268 -0.046281652 1.1145757e-21)
(2.6917987 -0.040663454 1.3026492e-21)
(2.696403 -0.032202207 -9.5799943e-22)
(2.6993118 -0.025585266 -1.305874e-21)
(2.6997903 -0.017469252 -2.3579307e-23)
(2.699609 -0.0115639 -2.2777842e-22)
(2.6969298 -0.0054244882 -2.5747998e-22)
(2.6952882 -0.001845796 -7.3512551e-23)
(2.6917263 0.00086834622 -1.0754575e-22)
(2.6892332 0.0022021774 7.88873e-22)
(2.6852581 0.002289443 -1.0351057e-21)
(2.6100616 -0.031394199 5.9013458e-22)
(2.6173579 -0.047805389 2.2952401e-21)
(2.6256736 -0.060748192 6.9327511e-22)
(2.6382746 -0.065440447 -1.8135783e-21)
(2.6488695 -0.067794657 -1.9518201e-21)
(2.6628054 -0.068033176 -7.5084772e-22)
(2.6737366 -0.066726174 2.2216796e-22)
(2.685744 -0.060778417 3.9620538e-22)
(2.6943991 -0.05501096 1.461077e-21)
(2.7017595 -0.04530452 1.3341522e-21)
(2.7064317 -0.037352522 -8.0945965e-22)
(2.7083182 -0.02684736 -1.0248402e-21)
(2.7090424 -0.019051766 1.9174553e-22)
(2.706621 -0.010464753 9.6584851e-22)
(2.7042597 -0.0045909712 9.5462986e-22)
(2.6991901 0.00078560969 -1.4358302e-21)
(2.6959013 0.003559526 -1.4874959e-21)
(2.6907308 0.005026584 8.8136249e-22)
(2.6869766 0.0050049157 -8.4697725e-22)
(2.6819367 0.003508394 -1.610686e-21)
(2.6001381 -0.031223045 -1.8405341e-22)
(2.6057272 -0.050630865 6.4040318e-22)
(2.6133761 -0.066492734 2.2627846e-21)
(2.6268267 -0.074252085 3.1403536e-21)
(2.6384238 -0.078978327 8.0216873e-22)
(2.6548698 -0.081961638 2.8083661e-21)
(2.6681547 -0.082505506 4.01355e-21)
(2.683882 -0.077624083 3.769373e-22)
(2.6955107 -0.072230169 5.4093804e-22)
(2.7064517 -0.061619609 3.0121836e-21)
(2.7138019 -0.052517088 2.9137717e-21)
(2.7181829 -0.039557257 1.4561798e-21)
(2.7203386 -0.029565298 1.2889267e-21)
(2.7185772 -0.017829412 1.1670889e-22)
(2.7165454 -0.0094996731 8.5873341e-22)
(2.7109435 -0.0013305643 2.188171e-21)
(2.7062899 0.0038575285 -6.160328e-23)
(2.6989691 0.0078417402 -2.6489613e-21)
(2.6941094 0.0094766226 -4.1835116e-22)
(2.6875625 0.0093403602 1.8032137e-21)
(2.6827672 0.0078297756 1.1177884e-21)
(2.6769338 0.0046692583 3.0060359e-21)
(2.5900693 -0.029740757 -1.2920646e-23)
(2.5931112 -0.051860989 2.3893655e-23)
(2.5993271 -0.070578105 8.1909674e-22)
(2.6129235 -0.081989775 2.0261501e-21)
(2.6250204 -0.089655151 2.8594248e-21)
(2.6437682 -0.096335759 5.0784994e-22)
(2.659344 -0.099548041 2.4055295e-21)
(2.6792144 -0.096733725 4.0589703e-21)
(2.6943445 -0.092433049 6.1006535e-22)
(2.7098661 -0.081499592 -1.2748352e-21)
(2.720671 -0.071615453 1.0354231e-21)
(2.7285733 -0.056224847 3.4072314e-22)
(2.7332057 -0.043917666 -1.0656941e-21)
(2.7331617 -0.028576359 8.8266782e-22)
(2.7318774 -0.017288668 -2.2665424e-22)
(2.7259111 -0.0055056495 -7.9511291e-22)
(2.7208214 0.0024408011 4.4234027e-22)
(2.7121655 0.0092957139 1.269969e-21)
(2.7053147 0.013210989 -1.1652149e-21)
(2.6961496 0.015234326 1.7086407e-22)
(2.6899445 0.015393141 2.2875096e-21)
(2.6823997 0.013516674 8.7250148e-22)
(2.6768244 0.010469479 2.6603403e-21)
(2.6704931 0.0056886841 2.7571388e-21)
(2.5802935 -0.02685381 -6.8541772e-23)
(2.5799128 -0.051145584 4.4870184e-22)
(2.5837964 -0.072440363 4.9576269e-22)
(2.5966078 -0.088025605 5.9981105e-22)
(2.6084889 -0.099179883 1.7413407e-21)
(2.6290822 -0.11058067 -3.5272036e-21)
(2.6466966 -0.11736428 -5.8533052e-21)
(2.6709841 -0.11781657 -8.3941512e-21)
(2.6899807 -0.11556577 -6.9782564e-21)
(2.7110332 -0.1052355 -9.7474045e-23)
(2.7262228 -0.095136667 -1.9025482e-21)
(2.7390035 -0.077502846 2.9110552e-21)
(2.7470976 -0.062943897 2.2663697e-21)
(2.749809 -0.043573484 -5.1306998e-21)
(2.7503084 -0.028838429 -3.3404687e-21)
(2.7447894 -0.012616965 -3.2640534e-21)
(2.7394543 -0.001180185 -3.8571757e-21)
(2.7292218 0.0092674097 7.3215042e-22)
(2.7211734 0.016030178 1.5213273e-21)
(2.7099067 0.020578386 8.3047788e-22)
(2.7012545 0.022694335 2.1249728e-21)
(2.690829 0.02241879 4.4090108e-21)
(2.6836416 0.020917945 3.0971233e-21)
(2.6755305 0.01730003 -5.7928304e-22)
(2.6694627 0.012769046 -5.3377899e-22)
(2.6629297 0.0065326331 -5.3099683e-21)
(2.5713183 -0.022541689 4.4245814e-22)
(2.5666337 -0.048196172 3.6963533e-22)
(2.567162 -0.071523977 8.6627e-22)
(2.578038 -0.091720314 -2.2527136e-21)
(2.5887898 -0.10685102 -2.1925331e-21)
(2.6105178 -0.12399569 1.7152347e-21)
(2.6296706 -0.13531432 -3.2871255e-21)
(2.6584038 -0.14044785 -3.7461323e-21)
(2.6814798 -0.14139386 -6.121197e-21)
(2.7089769 -0.13287786 -6.3764702e-21)
(2.7294205 -0.1234527 1.5814896e-22)
(2.7485461 -0.1041545 4.1725879e-22)
(2.7613845 -0.087547545 5.0042087e-21)
(2.7683705 -0.063734731 7.114293e-21)
(2.7716929 -0.045184154 1.6706176e-22)
(2.7674038 -0.023608337 5.8335526e-23)
(2.7626624 -0.0078579259 1.6927849e-22)
(2.7512991 0.007272182 -6.3582099e-21)
(2.7418643 0.017535557 -2.0330231e-21)
(2.7279646 0.02526135 4.5160125e-21)
(2.7173492 0.029945216 3.9022205e-21)
(2.7042694 0.03162385 1.7461315e-21)
(2.694368 0.031590938 3.9072536e-21)
(2.6833331 0.028919644 2.2545054e-21)
(2.6755803 0.025731472 -1.244791e-21)
(2.6673237 0.02050177 2.3307771e-22)
(2.6610509 0.014644772 -4.2863258e-21)
(2.6545774 0.0071947074 -3.306785e-21)
(2.5639363 -0.016820908 4.3773084e-22)
(2.5538247 -0.042711522 1.4287895e-21)
(2.5498742 -0.067291021 1.3752176e-21)
(2.5574616 -0.092437293 1.0417381e-23)
(2.5659931 -0.1119433 -2.9591155e-21)
(2.5878987 -0.13581205 -3.0733206e-21)
(2.607837 -0.15262784 6.2011847e-22)
(2.6407583 -0.16399724 2.3537437e-21)
(2.6678819 -0.1694796 2.0018762e-21)
(2.7025848 -0.16437082 6.8095689e-21)
(2.7291034 -0.15678913 6.7510845e-21)
(2.7562069 -0.13672228 -2.5993897e-21)
(2.7751489 -0.11863154 -2.3928911e-21)
(2.7882224 -0.090296461 -3.2846546e-22)
(2.7958644 -0.06755633 1.5708169e-21)
(2.7941191 -0.039483491 4.6533945e-21)
(2.7907946 -0.018579145 4.6495329e-21)
(2.7785632 0.0024825492 9.9316304e-22)
(2.7682006 0.017307608 -5.1797374e-21)
(2.7515875 0.029329179 1.1511398e-21)
(2.7385203 0.037112038 7.4078718e-21)
(2.7220238 0.041079183 1.8449058e-21)
(2.7096091 0.043051817 -2.2507078e-22)
(2.6956722 0.04162448 -1.0953295e-23)
(2.6851509 0.039325916 -1.6346596e-21)
(2.6741349 0.034390165 -5.9400934e-22)
(2.6662254 0.029625064 8.1106915e-22)
(2.65819 0.02301279 -2.3648814e-23)
(2.6519663 0.016053585 9.6446178e-22)
(2.6457615 0.0076673211 3.8733793e-21)
(2.5589553 -0.0097286288 -3.7141312e-22)
(2.5425153 -0.034476032 1.4395002e-21)
(2.5327039 -0.059224322 2.3959635e-21)
(2.5351548 -0.089532622 4.2337896e-21)
(2.540216 -0.11372054 2.9796507e-21)
(2.5611123 -0.14517941 -6.0377806e-21)
(2.5808403 -0.1684075 -6.1894752e-21)
(2.6173652 -0.18766115 -2.7946592e-21)
(2.6482195 -0.19914779 -1.2061721e-21)
(2.6906662 -0.19938253 -6.1604676e-21)
(2.723926 -0.19515885 -1.7166377e-21)
(2.760719 -0.17574654 1.2821336e-20)
(2.787236 -0.15705478 4.0264774e-21)
(2.8086537 -0.12435997 -5.7864028e-21)
(2.8223744 -0.097377075 -3.864979e-21)
(2.8249195 -0.061785864 -7.1964767e-21)
(2.8243809 -0.034616898 -4.3646514e-21)
(2.8119528 -0.005858251 4.758417e-21)
(2.8009782 0.014662189 1.2916337e-21)
(2.7813023 0.032257233 -4.5534331e-21)
(2.7657199 0.044244036 1.4597089e-21)
(2.7452881 0.051395669 5.6115823e-21)
(2.7296351 0.055658602 3.1323118e-22)
(2.7119226 0.055415981 -2.3439228e-21)
(2.6986326 0.054407499 -2.1842072e-21)
(2.6847671 0.049987962 -7.1937211e-22)
(2.6742356 0.045529108 2.7517658e-22)
(2.663769 0.038632569 1.3792839e-22)
(2.6560589 0.032505387 -6.5976506e-22)
(2.6485301 0.024799405 2.5795727e-22)
(2.6425587 0.016991695 3.0071253e-21)
(2.6367766 0.0079534445 -1.2266113e-21)
(2.5557959 -0.0014490843 -3.251041e-22)
(2.5337362 -0.023161798 -3.3841232e-21)
(2.5169869 -0.046762312 -1.708072e-21)
(2.5116839 -0.082479303 7.7503981e-21)
(2.5115599 -0.11151714 9.5679836e-21)
(2.5302051 -0.1512486 -2.4877615e-22)
(2.548507 -0.18169812 -8.8562844e-21)
(2.5876402 -0.21042458 -9.9901684e-23)
(2.6215876 -0.22946997 3.1992258e-21)
(2.67191 -0.23728774 6.2175218e-21)
(2.7123589 -0.2382654 1.629856e-21)
(2.7605097 -0.22147398 -8.2394417e-21)
(2.7960909 -0.20353916 5.4452348e-21)
(2.8285705 -0.16723373 4.2616362e-22)
(2.8505053 -0.13620758 -8.8995162e-21)
(2.8597467 -0.092011897 -2.346733e-20)
(2.8637985 -0.057624548 -2.6857243e-20)
(2.8522585 -0.019225016 -4.2371609e-21)
(2.841363 0.0087521305 4.4605023e-21)
(2.8183877 0.033844838 -5.9917633e-22)
(2.7999986 0.051256421 -6.1712038e-21)
(2.7747082 0.0624851 -2.2119702e-21)
(2.7553176 0.069938757 1.6741213e-21)
(2.733064 0.071409885 -1.9907379e-22)
(2.716162 0.071653681 -2.7393265e-21)
(2.6985939 0.067310136 -1.3785176e-21)
(2.6853318 0.063404409 2.2571501e-23)
(2.6723121 0.056382596 2.1300182e-21)
(2.6622853 0.050040257 2.0233224e-21)
(2.6527602 0.041588675 1.5555801e-22)
(2.6455262 0.034377496 1.0377711e-21)
(2.6386991 0.025887731 1.6732046e-21)
(2.6331295 0.017490339 -2.3605101e-21)
(2.627871 0.008069389 -3.2039879e-21)
(2.5545557 0.0081158836 3.82145e-22)
(2.5249261 -0.0089667515 2.2347501e-21)
(2.5016518 -0.029557307 -6.3005687e-22)
(2.4882245 -0.070582756 -3.5551575e-21)
(2.4803978 -0.10476602 5.38764e-21)
(2.4955728 -0.15343814 8.3226511e-21)
(2.5111916 -0.19175688 -1.0141968e-21)
(2.5516547 -0.2314408 -1.1538087e-20)
(2.5876646 -0.25952916 -3.2715925e-21)
(2.6454589 -0.27729632 4.7717051e-21)
(2.693158 -0.28559708 7.6620489e-21)
(2.7539206 -0.27389738 -3.231136e-21)
(2.7999628 -0.25861462 -1.2661694e-20)
(2.8464778 -0.22004219 -3.1463488e-20)
(2.8791098 -0.18570119 -3.6752492e-20)
(2.898204 -0.13215123 -1.9578164e-21)
(2.9093256 -0.089533667 -1.5629648e-20)
(2.9002712 -0.039021873 -1.484404e-20)
(2.8906563 -0.0015295752 6.8248695e-21)
(2.8641551 0.033224429 9.2581093e-21)
(2.8428532 0.057987426 4.5271576e-21)
(2.811659 0.074847263 -3.6819146e-21)
(2.7876509 0.086436955 1.0959709e-22)
(2.7596155 0.0899449 1.0584706e-21)
(2.7383474 0.091971305 -7.2731067e-22)
(2.7162766 0.087843947 -3.1054921e-21)
(2.6994541 0.084128271 -1.7979104e-21)
(2.6831541 0.076233961 2.3295519e-21)
(2.6706728 0.069791977 4.3539714e-21)
(2.6590516 0.060721838 1.948205e-21)
(2.6499102 0.052876573 1.6836873e-22)
(2.6415728 0.043311793 8.392211e-22)
(2.6350043 0.035318369 1.4404817e-21)
(2.6289905 0.026344959 3.8075837e-22)
(2.6239206 0.017602984 -3.8256379e-22)
(2.6192401 0.0080386667 1.9648528e-21)
(2.5562318 0.018911444 3.5735423e-22)
(2.5183081 0.0081715691 4.4692868e-23)
(2.4864289 -0.0078869335 1.7966242e-21)
(2.4636287 -0.053771949 4.9647805e-21)
(2.4476133 -0.09288473 2.2573345e-21)
(2.4579439 -0.15133372 -1.9946107e-21)
(2.4696812 -0.19819318 6.8460704e-22)
(2.5102174 -0.2500702 6.9383103e-21)
(2.547004 -0.28862035 -2.9297097e-21)
(2.6114869 -0.31888667 5.5389997e-21)
(2.6659767 -0.33674649 1.329331e-20)
(2.740233 -0.33325746 -6.77683e-21)
(2.7977058 -0.32294015 -1.734506e-20)
(2.8612917 -0.28414136 -1.7212491e-20)
(2.9071975 -0.24780859 -3.5112213e-20)
(2.9399102 -0.18437717 -2.9109391e-20)
(2.9613704 -0.13281371 4.0065351e-21)
(2.9569569 -0.067286871 -1.926968e-20)
(2.9504491 -0.01786828 -1.8648556e-20)
(2.9204155 0.02970571 8.7873196e-21)
(2.8961054 0.064106794 1.1123712e-20)
(2.8576727 0.088541932 -3.9380641e-22)
(2.828038 0.10582673 -8.2733348e-21)
(2.7926966 0.11218062 1.6041531e-22)
(2.7658463 0.11640314 1.0873475e-21)
(2.7380273 0.11221662 4.3922531e-21)
(2.7168504 0.10882102 2.2299808e-21)
(2.6966013 0.099882165 -3.2093754e-21)
(2.6809552 0.092710539 6.664545e-22)
(2.666697 0.082069232 8.5664257e-22)
(2.655534 0.073618794 -1.4821523e-21)
(2.6456342 0.06311037 -1.1460307e-21)
(2.6376178 0.054181883 -5.2845744e-22)
(2.6305842 0.043931084 -2.5318837e-22)
(2.6247895 0.035449004 -1.2847309e-21)
(2.619631 0.026261852 -1.0170619e-21)
(2.6151136 0.017393398 1.2005775e-21)
(2.6110278 0.0078874611 3.0145771e-21)
(2.5603638 0.030819666 1.6050338e-21)
(2.5143919 0.028046403 -4.123379e-21)
(2.4731854 0.018223518 -4.4948697e-21)
(2.4393282 -0.032491224 -1.4857927e-21)
(2.41384 -0.076244747 1.4610292e-21)
(2.4182992 -0.14465037 -2.4523834e-21)
(2.4248833 -0.20071314 -6.5509394e-21)
(2.4640165 -0.26565431 8.502855e-21)
(2.5003448 -0.31581969 1.4544801e-20)
(2.5700299 -0.36080462 7.5979614e-21)
(2.6304948 -0.39069325 1.5780235e-20)
(2.7183784 -0.39901636 3.1600935e-20)
(2.7879166 -0.39678089 1.2798108e-20)
(2.8720355 -0.36126635 3.33481e-20)
(2.933623 -0.32487788 3.4194014e-20)
(2.9852625 -0.2520264 1.4002136e-21)
(3.0209489 -0.19103192 7.6189585e-21)
(3.0243909 -0.10682226 -4.2506708e-20)
(3.0234649 -0.042651998 -6.5322956e-20)
(2.9895548 0.022092118 -3.8767844e-20)
(2.9623574 0.069222879 -1.3029728e-20)
(2.9147127 0.10400286 1.4733895e-21)
(2.8781691 0.12893343 -9.611386e-21)
(2.8335079 0.13901709 -6.2147897e-21)
(2.7995619 0.14627205 1.840074e-21)
(2.7644644 0.1420168 5.3263781e-22)
(2.737701 0.13877715 3.659969e-21)
(2.7124931 0.12805204 6.7984108e-21)
(2.693015 0.11995529 1.7156612e-21)
(2.6756723 0.10738291 1.857518e-21)
(2.6619568 0.097518834 2.0550626e-21)
(2.6501569 0.085010153 -6.6876616e-22)
(2.640627 0.075139129 -3.3823173e-22)
(2.6325724 0.063777542 -4.1052611e-21)
(2.6257945 0.054174341 -3.8991429e-21)
(2.6200764 0.043617404 -1.9688948e-21)
(2.615097 0.034911029 -1.7228892e-21)
(2.6107827 0.025738405 -1.2643473e-21)
(2.6068344 0.016927512 4.2178613e-22)
(2.6033314 0.0076419572 1.096551e-21)
(2.5652866 0.043644161 1.219259e-21)
(2.5124518 0.05071232 -1.0365392e-21)
(2.4624052 0.048650245 -6.5166207e-21)
(2.4159696 -0.0066437415 7.4515009e-23)
(2.3792355 -0.054853378 3.0013553e-21)
(2.3770278 -0.13344191 -6.623898e-22)
(2.3775169 -0.19900259 -4.4034417e-21)
(2.4137179 -0.27737407 -9.7086411e-21)
(2.4481821 -0.33996486 4.5235002e-21)
(2.5207826 -0.40102524 2.1022347e-21)
(2.5857164 -0.44496261 -4.6640878e-21)
(2.6850185 -0.46859405 -9.1467035e-21)
(2.7665901 -0.47776506 5.4594907e-21)
(2.8729606 -0.44961711 4.4023556e-20)
(2.9527702 -0.41693221 6.395841e-20)
(3.0303733 -0.33738893 6.5947774e-20)
(3.0855514 -0.26766159 3.5432012e-20)
(3.1041362 -0.16214496 2.921146e-20)
(3.1124714 -0.079603416 -1.8028958e-20)
(3.0762689 0.008111279 -3.8420036e-20)
(3.0460949 0.072263264 -1.2907172e-20)
(2.9861246 0.12142915 -3.1273428e-20)
(2.9408155 0.15677175 -1.7797395e-20)
(2.8835722 0.1719722 -1.1053324e-20)
(2.8405233 0.18324692 -7.851841e-21)
(2.7961146 0.17865659 8.1494428e-21)
(2.7622338 0.17560631 6.9997097e-21)
(2.7308746 0.1624662 -3.9767708e-21)
(2.7065629 0.15282334 -1.0805902e-21)
(2.6854763 0.13731154 2.2157439e-21)
(2.6687572 0.12563733 2.3574295e-21)
(2.6548493 0.1107036 9.77313e-22)
(2.643471 0.098993619 -1.6222806e-21)
(2.6342463 0.085444803 2.145241e-21)
(2.6264713 0.074720122 -1.3964596e-21)
(2.6202338 0.063016205 -2.4332219e-21)
(2.6147077 0.053102899 -5.8172974e-22)
(2.6102426 0.042555868 -1.0611268e-21)
(2.6060688 0.033848913 -6.1574064e-22)
(2.6025508 0.024873472 -6.2505134e-22)
(2.5991604 0.016267987 0)
(2.5962084 0.0073265544 5.5818935e-22)
(2.5672231 0.057234232 -3.9066434e-21)
(2.5103047 0.075592432 1.4262079e-21)
(2.4530635 0.083047076 -7.0980024e-22)
(2.3934653 0.023793055 1.0527473e-20)
(2.3436375 -0.028641184 1.7024434e-20)
(2.3343445 -0.117714 -1.1884762e-21)
(2.3280264 -0.19295604 -4.739413e-21)
(2.3599903 -0.28453366 -6.9691743e-21)
(2.3912021 -0.3598728 -1.2023789e-20)
(2.4637484 -0.43738241 1.4112074e-21)
(2.5308749 -0.49666267 -9.2965203e-22)
(2.6379223 -0.53779255 -1.4415963e-20)
(2.7292844 -0.56174586 -1.8847938e-20)
(2.8564436 -0.54518366 -1.1421218e-20)
(2.9550047 -0.51942347 2.4917419e-20)
(3.0614803 -0.43690585 6.6367866e-20)
(3.1427083 -0.36136342 6.841742e-20)
(3.1857963 -0.2336594 5.79104e-20)
(3.2111582 -0.13072678 5.2333188e-20)
(3.1808101 -0.015201224 5.9455267e-20)
(3.1493961 0.071667751 4.1165455e-20)
(3.0775572 0.14027036 2.5784083e-20)
(3.020577 0.19026049 8.9242956e-21)
(2.9460501 0.21259882 9.1022833e-21)
(2.8906707 0.22941248 1.5888291e-20)
(2.8336108 0.22427681 -1.8875893e-20)
(2.790566 0.2212797 -3.8537783e-21)
(2.7515359 0.20462889 7.9882353e-21)
(2.7211978 0.19285403 -2.4112806e-21)
(2.6956606 0.17346175 -4.0893206e-21)
(2.6752803 0.15909182 -1.0051289e-21)
(2.658961 0.14064419 -4.069461e-21)
(2.6455171 0.12662194 -5.4709808e-21)
(2.6351251 0.11049149 -1.9805252e-21)
(2.6262001 0.097736677 1.5886664e-21)
(2.6194499 0.083849927 -1.0128198e-22)
(2.6134053 0.072767833 -1.0686476e-21)
(2.6088542 0.061135418 9.1183445e-22)
(2.6045214 0.051215939 4.7843743e-22)
(2.6011987 0.040926524 -1.4838505e-21)
(2.5977854 0.032398126 -1.5045594e-21)
(2.5949931 0.023758143 4.8196673e-22)
(2.5921304 0.015470977 1.0184148e-21)
(2.5896849 0.0069628186 5.0441693e-22)
(2.5598175 0.071057038 -5.0903775e-21)
(2.5044255 0.10248718 -3.4729646e-21)
(2.443436 0.12084429 1.5895044e-21)
(2.3704804 0.058325123 -1.1278739e-20)
(2.3063865 0.0023881639 -7.5173791e-22)
(2.2901451 -0.097620535 1.0693893e-20)
(2.2767716 -0.18276357 -6.6733458e-21)
(2.3037143 -0.2869993 -3.1034503e-21)
(2.3305824 -0.37488414 -5.18252e-21)
(2.4003029 -0.46824008 -1.3087961e-20)
(2.4667336 -0.54315771 -3.6046116e-22)
(2.5763942 -0.60289137 1.1104142e-20)
(2.6741106 -0.64357964 -1.5155646e-21)
(2.8165544 -0.6419614 -5.25029e-20)
(2.9314588 -0.62824023 -4.5942231e-20)
(3.070491 -0.54560894 -7.4413412e-20)
(3.1802117 -0.46745767 -3.6417866e-20)
(3.2496714 -0.31709738 6.548638e-20)
(3.3024362 -0.19290966 5.5133656e-20)
(3.2855105 -0.044305639 -3.4869491e-21)
(3.2607296 0.069190408 2.3755764e-21)
(3.1849849 0.1615044 9.0238945e-20)
(3.1168432 0.23094763 7.6378948e-20)
(3.0254631 0.26264189 -4.0608361e-21)
(2.9531098 0.28750713 -4.0800977e-21)
(2.8787641 0.28120191 2.1905934e-20)
(2.823209 0.27824145 -1.0866783e-20)
(2.7741075 0.25670279 -1.4657881e-20)
(2.7362171 0.2418288 -3.5223057e-21)
(2.7054241 0.21709121 6.6013569e-22)
(2.6806717 0.19911727 -8.8778695e-22)
(2.6617034 0.17616879 2.691462e-21)
(2.6458849 0.1588647 -1.8370565e-22)
(2.6343187 0.13911768 -2.2970977e-21)
(2.6242323 0.12387936 1.0600016e-21)
(2.6171312 0.10750629 2.0564794e-21)
(2.610566 0.094388739 4.5990727e-22)
(2.6060525 0.080713249 -1.5707787e-21)
(2.6016152 0.069676379 3.0095098e-22)
(2.59856 0.058428681 5.6225659e-22)
(2.5953162 0.048741537 -1.2976018e-21)
(2.5929995 0.038892499 -2.4292064e-21)
(2.5902797 0.030678408 -5.5791898e-22)
(2.5881301 0.022472153 4.9622477e-22)
(2.5857528 0.014584615 1.116096e-24)
(2.5837624 0.0065690565 -8.8156479e-22)
(2.5376788 0.086582757 -1.4721424e-21)
(2.4789707 0.13079541 -1.932923e-21)
(2.420268 0.16116182 -3.5530691e-22)
(2.3449254 0.096997559 -1.2099181e-20)
(2.2656706 0.037954935 -2.4473314e-20)
(2.2438421 -0.07358468 -1.1523977e-20)
(2.2238375 -0.16898078 -8.1300429e-22)
(2.2458973 -0.28501402 2.4185891e-21)
(2.2679353 -0.38490905 5.9333964e-21)
(2.3324628 -0.49244296 -2.3553052e-21)
(2.3954829 -0.5825578 -9.7968434e-21)
(2.5023669 -0.66104614 -2.9545929e-20)
(2.6019454 -0.71938752 -1.9133944e-20)
(2.7533514 -0.73481317 -3.5157804e-20)
(2.8784988 -0.73529489 -8.3790091e-20)
(3.041752 -0.65875026 -3.437017e-20)
(3.1833984 -0.5823068 -6.0976885e-20)
(3.2883568 -0.40897035 1.1245078e-19)
(3.3729166 -0.26567017 2.1095621e-19)
(3.3744339 -0.076066331 -3.2025513e-20)
(3.3634472 0.069275855 -8.8981539e-20)
(3.2861487 0.19080598 -6.8631874e-20)
(3.2144505 0.28262545 1.3699054e-20)
(3.1141604 0.32658814 1.9074432e-20)
(3.024942 0.36131179 -5.8071587e-20)
(2.9339762 0.35290891 -1.5716441e-21)
(2.8612465 0.34989313 2.3234721e-20)
(2.7986509 0.32097504 -1.3225832e-20)
(2.7508211 0.30182509 -1.671969e-20)
(2.7136412 0.26994339 1.0354386e-20)
(2.6837056 0.24702116 1.4522695e-20)
(2.6619168 0.21810711 3.8930029e-21)
(2.6434744 0.19655326 7.33805e-21)
(2.6308632 0.17233065 2.753714e-21)
(2.6195957 0.15368621 7.9073924e-22)
(2.6123489 0.13392343 -4.0368129e-22)
(2.605407 0.11839896 5.2070772e-22)
(2.6011962 0.10249695 -3.0873044e-22)
(2.5967653 0.089551004 -2.248027e-21)
(2.5941805 0.07648449 8.3707918e-22)
(2.5911701 0.065798025 1.0926781e-21)
(2.5893938 0.055155766 1.0758823e-21)
(2.5871099 0.045877126 3.6355745e-23)
(2.5856534 0.036594072 -1.8348088e-22)
(2.5835486 0.028790936 8.2181355e-22)
(2.5819549 0.021082556 -3.7817943e-22)
(2.580014 0.013648695 -1.2209979e-21)
(2.5784247 0.0061602842 -1.4028168e-21)
(2.5017824 0.10440243 -9.3149777e-22)
(2.4332477 0.15966129 -5.4706079e-21)
(2.372807 0.20230771 -5.9632519e-21)
(2.3048947 0.13832041 -5.8493439e-21)
(2.2202627 0.077573034 -1.7081299e-20)
(2.1940796 -0.04617156 -1.8441185e-21)
(2.169119 -0.15248253 1.0763018e-20)
(2.1872309 -0.27927104 -1.4776973e-20)
(2.2049138 -0.39035167 -1.1910514e-20)
(2.2625295 -0.51018039 9.6329161e-21)
(2.3198183 -0.61369684 1.8392967e-21)
(2.4187019 -0.70845153 1.0700491e-20)
(2.5155406 -0.78522895 -7.7794703e-21)
(2.6667161 -0.81835957 -1.3098504e-20)
(2.7948463 -0.83464 -2.8176366e-20)
(2.9768362 -0.76892225 -3.4767739e-21)
(3.1427878 -0.69781893 4.4863336e-20)
(3.2760956 -0.50919404 -1.5330063e-19)
(3.401111 -0.34498472 1.0301048e-20)
(3.433803 -0.11238336 2.1564846e-19)
(3.4402209 0.071104114 -1.4803198e-20)
(3.3723544 0.22825509 -5.2361826e-20)
(3.2992298 0.34883751 -3.2524129e-20)
(3.1889889 0.40814461 1.3573666e-20)
(3.0899173 0.45447585 1.8672973e-20)
(2.9905677 0.44492981 -3.9052449e-20)
(2.9007706 0.4404649 1.4828548e-20)
(2.8255867 0.40110899 2.5642831e-20)
(2.7644278 0.37560986 -8.836417e-21)
(2.7190496 0.33364868 -9.3540154e-21)
(2.6828082 0.30414343 1.6486096e-20)
(2.6580996 0.26759805 2.1488308e-20)
(2.6368483 0.24043782 1.1503182e-20)
(2.6234649 0.21049066 7.0358186e-21)
(2.6111266 0.18758534 2.6818758e-21)
(2.6041029 0.16378715 6.0557797e-22)
(2.5969713 0.14505611 -5.3031184e-22)
(2.5933963 0.12618723 -1.7556508e-21)
(2.5892171 0.11107343 -2.5767596e-21)
(2.5874208 0.096130146 -2.342478e-21)
(2.5848317 0.083743386 5.8331725e-22)
(2.5838456 0.071550083 9.4016665e-22)
(2.5820563 0.061429503 9.2203667e-22)
(2.5813386 0.051534848 1.9917823e-21)
(2.5798764 0.04278599 1.8104479e-21)
(2.5791363 0.034146977 1.5428966e-21)
(2.5775639 0.026818086 4.1516685e-22)
(2.576441 0.019643858 -5.0389267e-22)
(2.574885 0.01269509 -6.6594015e-22)
(2.5736432 0.0057484471 -1.9991192e-22)
(2.457192 0.12349123 1.6139575e-21)
(2.3800482 0.18926117 -2.1042604e-20)
(2.3123344 0.24281664 -2.5626725e-20)
(2.24997 0.17859625 -5.430229e-21)
(2.1692675 0.11775265 -5.3335313e-21)
(2.1412958 -0.01673771 -5.9288669e-21)
(2.1130281 -0.13452904 8.6854515e-21)
(2.1282175 -0.27074012 1.2290509e-20)
(2.1427696 -0.39199909 -1.1909757e-20)
(2.1925225 -0.52109147 -1.0977181e-20)
(2.2424894 -0.63615025 9.4696386e-21)
(2.3289966 -0.74571274 -1.9865999e-20)
(2.4181015 -0.83786026 -1.1772283e-20)
(2.5591798 -0.88399649 5.074853e-20)
(2.6811719 -0.91693088 4.661876e-20)
(2.8646844 -0.86587795 3.5806159e-21)
(3.050804 -0.80671806 2.7631112e-20)
(3.2131281 -0.60244684 -8.0981366e-20)
(3.3687984 -0.42467808 -2.7041398e-19)
(3.4324199 -0.15346891 -1.5669497e-19)
(3.4695369 0.070826219 3.5701717e-20)
(3.4353732 0.27425284 1.5187751e-19)
(3.3711594 0.43182595 1.1866337e-19)
(3.241966 0.506135 1.5591913e-20)
(3.1317735 0.56948971 6.0026372e-20)
(3.0256933 0.55781181 1.7698571e-20)
(2.9257524 0.55238037 -3.7375212e-20)
(2.847226 0.50162964 9.9605444e-21)
(2.7733469 0.4664355 2.0151041e-20)
(2.7206993 0.41076603 1.0276151e-20)
(2.6763878 0.37203199 1.0104624e-20)
(2.6483788 0.32541545 -3.7816752e-21)
(2.6242084 0.29109681 6.9090051e-22)
(2.6105674 0.25413769 -8.6566078e-22)
(2.5974097 0.22581496 -5.2828496e-21)
(2.5911395 0.19703691 2.3866617e-21)
(2.5841633 0.17444356 4.1490551e-22)
(2.5817164 0.15219562 1.0530369e-21)
(2.578101 0.13426833 -8.6824245e-23)
(2.5774848 0.11687118 1.3477924e-21)
(2.5756149 0.10264528 1.6257125e-21)
(2.5757509 0.08895873 6.6693996e-22)
(2.5746899 0.077389271 1.0050478e-21)
(2.5749828 0.066224754 -2.5599307e-22)
(2.5742055 0.056809328 7.4140509e-22)
(2.5743378 0.047741562 7.5982609e-22)
(2.5735608 0.039598102 4.9122701e-22)
(2.5734023 0.031643374 1.036741e-21)
(2.5722813 0.024824781 1.7375955e-22)
(2.5715492 0.01819903 -1.502305e-22)
(2.5703268 0.011748577 2.9931201e-22)
(2.5693815 0.0053427599 -3.5022665e-22)
(2.4077415 0.14339992 1.643164e-21)
(2.3218507 0.21877636 5.2525302e-21)
(2.2482696 0.28225821 -1.617964e-20)
(2.1892122 0.21681001 -2.328483e-20)
(2.1112527 0.15555944 -4.1025876e-21)
(2.0853478 0.011996776 -6.2811974e-22)
(2.0565984 -0.11630264 -1.1257303e-21)
(2.0698025 -0.26058389 8.9557587e-22)
(2.0824376 -0.39085927 4.2039124e-21)
(2.1240674 -0.52638684 -1.607224e-20)
(2.1660003 -0.65026333 -1.524726e-20)
(2.2371554 -0.76914187 4.7778537e-21)
(2.3134183 -0.87484545 -2.3115201e-20)
(2.4345391 -0.93077157 -6.8607472e-20)
(2.5434204 -0.9760339 -9.9043629e-21)
(2.7112262 -0.94161332 3.4809516e-20)
(2.9017998 -0.89606698 -6.0253094e-21)
(3.072085 -0.67348909 1.9870676e-19)
(3.2577262 -0.48415266 9.8147235e-20)
(3.3381413 -0.17533849 -2.1773742e-19)
(3.4130832 0.079718756 -1.0944689e-19)
(3.4169583 0.33622391 7.6524304e-21)
(3.3852712 0.53287505 1.1746756e-19)
(3.2654362 0.63135094 1.5031574e-19)
(3.1365063 0.70995207 5.2982627e-20)
(3.0285327 0.69136831 -2.5428824e-21)
(2.9190017 0.6861558 -4.3408883e-20)
(2.8423219 0.62078916 -3.7375422e-20)
(2.7641804 0.57486121 7.5378213e-21)
(2.7131995 0.50414681 7.134568e-21)
(2.6616491 0.45247787 -2.3524874e-21)
(2.6310438 0.39265077 -2.0841251e-24)
(2.6035914 0.34892317 -1.3306429e-20)
(2.5902765 0.30329473 -1.2824354e-20)
(2.5767893 0.26833566 -1.4493652e-20)
(2.5720528 0.23372088 -9.7206112e-21)
(2.5657359 0.20639644 -2.5050471e-21)
(2.5650553 0.18013272 -9.0233296e-23)
(2.5624702 0.15895694 5.0797781e-22)
(2.5635602 0.13890791 9.6501769e-22)
(2.5627796 0.12235178 2.3405629e-21)
(2.5644368 0.10674025 1.9508681e-21)
(2.5644168 0.093695119 1.0461802e-21)
(2.5660375 0.08141639 1.6293617e-21)
(2.5662007 0.070816971 4.446259e-22)
(2.5674808 0.060753674 -7.4255536e-23)
(2.5675174 0.052121669 -6.8463072e-23)
(2.5683111 0.043912155 -4.2559947e-22)
(2.5680913 0.036413419 7.87939e-23)
(2.5683923 0.029154295 6.2457458e-23)
(2.5676466 0.0228606 -2.4651763e-22)
(2.5672324 0.016780933 1.6928187e-22)
(2.566295 0.010827816 -4.4879964e-22)
(2.5655986 0.0049501003 -2.7097082e-23)
(2.3563039 0.16354129 -4.6762588e-22)
(2.2625815 0.24760801 1.9289232e-20)
(2.1827955 0.3203242 2.2956152e-20)
(2.1248852 0.25312551 -1.1219302e-20)