/*--------------------------------*- C++ -*----------------------------------*\
| =========                 |                                                 |
| \\      /  F ield         | OpenFOAM: The Open Source CFD Toolbox           |
|  \\    /   O peration     | Version:  6                                     |
|   \\  /    A nd           | Web:      www.OpenFOAM.com                      |
|    \\/     M anipulation  |                                                 |
\*---------------------------------------------------------------------------*/
FoamFile
{
    version     2.0;
    format      ascii;
    class       pointVectorField;
    object      pointDisplacement;
}
// * * * * * * * * * * * * * * * * * * * * * * * * * * * * * * * * * * * * * //

dimensions      [0 1 0 0 0 0 0];

internalField   uniform (0 0 0);

boundaryField
{

    in
    {
        type            fixedValue;
        value           uniform (0 0 0);
    }
    out
    {
        type            fixedValue;
        value           uniform (0 0 0);
    }
    sym1
    {
        type            symmetryPlane;
    }

    sym2
    {
        type            symmetryPlane;
    }

    frontAndBackPlanes
    {
        type            empty;
    }
    cylinder
    {
        type            oscillatingDisplacement;
        value           uniform ( 0 0 0 );
        //amplitude       ( 0 0.2 0 );
        amplitude       ( 0 1 0 );
        omega           6.28318;			//rad/s
    }

/*
angularOscillatingDisplacement
angularOscillatingVelocity
calculated
codedFixedValue
cyclic
cyclicACMI
cyclicAMI
cyclicSlip
empty
fixedNormalSlip
fixedValue
nonuniformTransformCyclic
oscillatingDisplacement
oscillatingVelocity
processor
processorCyclic
slip
solidBodyMotionDisplacement
surfaceDisplacement
surfaceSlipDisplacement
symmetry
symmetryPlane
timeVaryingMappedFixedValue
timeVaryingUniformFixedValue
uniformFixedValue
uniformInterpolatedDisplacement
value
waveDisplacement
wedge
zeroGradient
*/

}

// ************************************************************************* //
