/*--------------------------------*- C++ -*----------------------------------*\
| =========                 |                                                 |
| \\      /  F ield         | OpenFOAM: The Open Source CFD Toolbox           |
|  \\    /   O peration     | Version:  v2012                                 |
|   \\  /    A nd           | Website:  www.openfoam.com                      |
|    \\/     M anipulation  |                                                 |
\*---------------------------------------------------------------------------*/
FoamFile
{
    version     2.0;
    format      ascii;
    class       volVectorField;
    location    "92.6076404136068163";
    object      cellDisplacement;
}
// * * * * * * * * * * * * * * * * * * * * * * * * * * * * * * * * * * * * * //

dimensions      [0 1 0 0 0 0 0];


internalField   nonuniform List<vector> 
9200
(
(-0.037981343 0 0)
(-0.038156342 0 0)
(-0.11024016 0 0)
(-0.038380283 0 0)
(-0.110583 0 0)
(-0.17729874 0 0)
(-0.038645195 0 0)
(-0.11117165 0 0)
(-0.17787777 0 0)
(-0.23965444 0 0)
(-0.038931991 0 0)
(-0.11189457 0 0)
(-0.17880638 0 0)
(-0.24036867 0 0)
(-0.29740105 0 0)
(-0.039224055 0 0)
(-0.11267342 0 0)
(-0.17992035 0 0)
(-0.24157455 0 0)
(-0.29831504 0 0)
(-0.35101246 0 0)
(-0.039512356 0 0)
(-0.11347262 0 0)
(-0.18113605 0 0)
(-0.24305654 0 0)
(-0.2997985 0 0)
(-0.35202849 0 0)
(-0.40057605 0 0)
(-0.039786931 0 0)
(-0.11425738 0 0)
(-0.18237882 0 0)
(-0.24467408 0 0)
(-0.30163383 0 0)
(-0.35377421 0 0)
(-0.40177745 0 0)
(-0.44653021 0 0)
(-0.040045359 0 0)
(-0.11500883 0 0)
(-0.18360199 0 0)
(-0.24632727 0 0)
(-0.30362861 0 0)
(-0.35593664 0 0)
(-0.40377339 0 0)
(-0.44782912 0 0)
(-0.48896119 0 0)
(-0.040282309 0 0)
(-0.11571111 0 0)
(-0.1847708 0 0)
(-0.24795154 0 0)
(-0.30566727 0 0)
(-0.35829778 0 0)
(-0.40625516 0 0)
(-0.4500634 0 0)
(-0.49043515 0 0)
(-0.52825628 0 0)
(-0.040499167 0 0)
(-0.11635886 0 0)
(-0.18586449 0 0)
(-0.24950652 0 0)
(-0.30767691 0 0)
(-0.36072892 0 0)
(-0.40900512 0 0)
(-0.4528807 0 0)
(-0.49291484 0 0)
(-0.52983244 0 0)
(-0.56449593 0 0)
(-0.040693404 0 0)
(-0.11694581 0 0)
(-0.18686993 0 0)
(-0.25096004 0 0)
(-0.30959605 0 0)
(-0.36310895 0 0)
(-0.41179684 0 0)
(-0.45596003 0 0)
(-0.49602471 0 0)
(-0.53254995 0 0)
(-0.56624762 0 0)
(-0.59801123 0 0)
(-0.040867702 0 0)
(-0.1174745 0 0)
(-0.18778185 0 0)
(-0.25229916 0 0)
(-0.31139659 0 0)
(-0.36539088 0 0)
(-0.41456359 0 0)
(-0.45916913 0 0)
(-0.49951127 0 0)
(-0.53600212 0 0)
(-0.56922033 0 0)
(-0.59987878 0 0)
(-0.62887677 0 0)
(-0.041021699 0 0)
(-0.11794339 0 0)
(-0.18859826 0 0)
(-0.25351257 0 0)
(-0.31305257 0 0)
(-0.36752845 0 0)
(-0.417209 0 0)
(-0.46231996 0 0)
(-0.5030914 0 0)
(-0.53982948 0 0)
(-0.57298532 0 0)
(-0.60310948 0 0)
(-0.63092662 0 0)
(-0.65737541 0 0)
(-0.041157072 0 0)
(-0.11835769 0 0)
(-0.18932281 0 0)
(-0.25460169 0 0)
(-0.31455895 0 0)
(-0.36949981 0 0)
(-0.41969292 0 0)
(-0.46534928 0 0)
(-0.506655 0 0)
(-0.54384119 0 0)
(-0.57722955 0 0)
(-0.60723279 0 0)
(-0.63442889 0 0)
(-0.65955528 0 0)
(-0.68357467 0 0)
(-0.04127616 0 0)
(-0.1187201 0 0)
(-0.18995904 0 0)
(-0.25556691 0 0)
(-0.31590876 0 0)
(-0.37129225 0 0)
(-0.42198787 0 0)
(-0.46819808 0 0)
(-0.51008921 0 0)
(-0.54783822 0 0)
(-0.58165579 0 0)
(-0.61185504 0 0)
(-0.63889638 0 0)
(-0.66333654 0 0)
(-0.68594225 0 0)
(-0.70771398 0 0)
(-0.041379209 0 0)
(-0.1190358 0 0)
(-0.19051459 0 0)
(-0.25641682 0 0)
(-0.31711006 0 0)
(-0.37290243 0 0)
(-0.42407402 0 0)
(-0.47083134 0 0)
(-0.51332435 0 0)
(-0.55169607 0 0)
(-0.58609676 0 0)
(-0.61674153 0 0)
(-0.64396286 0 0)
(-0.66818689 0 0)
(-0.69001316 0 0)
(-0.71022453 0 0)
(-0.72985686 0 0)
(-0.041469992 0 0)
(-0.11930985 0 0)
(-0.1909952 0 0)
(-0.25715787 0 0)
(-0.31816557 0 0)
(-0.37433336 0 0)
(-0.42595289 0 0)
(-0.47323401 0 0)
(-0.51631996 0 0)
(-0.55533854 0 0)
(-0.59040239 0 0)
(-0.62164707 0 0)
(-0.64928952 0 0)
(-0.67366382 0 0)
(-0.69523673 0 0)
(-0.71459282 0 0)
(-0.73255972 0 0)
(-0.75020778 0 0)
(-0.041547184 0 0)
(-0.11954462 0 0)
(-0.19141014 0 0)
(-0.25780111 0 0)
(-0.31909011 0 0)
(-0.37559425 0 0)
(-0.42762079 0 0)
(-0.4753948 0 0)
(-0.51905609 0 0)
(-0.55872147 0 0)
(-0.59448322 0 0)
(-0.62643153 0 0)
(-0.65468812 0 0)
(-0.67948692 0 0)
(-0.70118339 0 0)
(-0.72021829 0 0)
(-0.73723089 0 0)
(-0.75306312 0 0)
(-0.76882588 0 0)
(-0.041615619 0 0)
(-0.1197482 0 0)
(-0.19176573 0 0)
(-0.25835559 0 0)
(-0.31989032 0 0)
(-0.37669487 0 0)
(-0.429093 0 0)
(-0.47732248 0 0)
(-0.52152243 0 0)
(-0.56181211 0 0)
(-0.59827498 0 0)
(-0.63096617 0 0)
(-0.65995508 0 0)
(-0.68538003 0 0)
(-0.70748001 0 0)
(-0.72660863 0 0)
(-0.74325313 0 0)
(-0.75804427 0 0)
(-0.7718746 0 0)
(-0.78588498 0 0)
(-0.041673266 0 0)
(-0.11991961 0 0)
(-0.19207012 0 0)
(-0.25883186 0 0)
(-0.32058362 0 0)
(-0.37765156 0 0)
(-0.43037646 0 0)
(-0.47902016 0 0)
(-0.52372296 0 0)
(-0.56460628 0 0)
(-0.60174773 0 0)
(-0.63519089 0 0)
(-0.66497275 0 0)
(-0.69116018 0 0)
(-0.7138931 0 0)
(-0.73342849 0 0)
(-0.75013484 0 0)
(-0.76448413 0 0)
(-0.77716799 0 0)
(-0.78909241 0 0)
(-0.80144175 0 0)
(-0.04172486 0 0)
(-0.12006888 0 0)
(-0.19232995 0 0)
(-0.25923971 0 0)
(-0.32117715 0 0)
(-0.3784754 0 0)
(-0.43149153 0 0)
(-0.48050859 0 0)
(-0.52566737 0 0)
(-0.56709933 0 0)
(-0.60489131 0 0)
(-0.63907139 0 0)
(-0.66965904 0 0)
(-0.69668456 0 0)
(-0.72020215 0 0)
(-0.74037105 0 0)
(-0.75745776 0 0)
(-0.77183494 0 0)
(-0.78402094 0 0)
(-0.79470293 0 0)
(-0.80484118 0 0)
(-0.81564528 0 0)
(-0.041768246 0 0)
(-0.12019315 0 0)
(-0.19255158 0 0)
(-0.25958759 0 0)
(-0.32168785 0 0)
(-0.37918472 0 0)
(-0.43245054 0 0)
(-0.48179844 0 0)
(-0.52737076 0 0)
(-0.56930842 0 0)
(-0.607703 0 0)
(-0.64258576 0 0)
(-0.67396804 0 0)
(-0.70184834 0 0)
(-0.72623627 0 0)
(-0.74721539 0 0)
(-0.76494924 0 0)
(-0.77970638 0 0)
(-0.79187817 0 0)
(-0.80198161 0 0)
(-0.81076709 0 0)
(-0.81920563 0 0)
(-0.82854923 0 0)
(-0.041807423 0 0)
(-0.12030245 0 0)
(-0.19274052 0 0)
(-0.25988481 0 0)
(-0.3221219 0 0)
(-0.37979033 0 0)
(-0.43327507 0 0)
(-0.48291475 0 0)
(-0.52885343 0 0)
(-0.57124378 0 0)
(-0.61019751 0 0)
(-0.64574212 0 0)
(-0.67788181 0 0)
(-0.70661148 0 0)
(-0.73191495 0 0)
(-0.75380448 0 0)
(-0.77235818 0 0)
(-0.78775765 0 0)
(-0.80027859 0 0)
(-0.81032678 0 0)
(-0.81846715 0 0)
(-0.82544928 0 0)
(-0.83229649 0 0)
(-0.84028072 0 0)
(-0.041840482 0 0)
(-0.12039256 0 0)
(-0.19290185 0 0)
(-0.26013762 0 0)
(-0.32249459 0 0)
(-0.38030962 0 0)
(-0.43397759 0 0)
(-0.48387097 0 0)
(-0.53013391 0 0)
(-0.57293182 0 0)
(-0.61238939 0 0)
(-0.64854235 0 0)
(-0.68140144 0 0)
(-0.71095233 0 0)
(-0.73716137 0 0)
(-0.7600017 0 0)
(-0.77949204 0 0)
(-0.79573644 0 0)
(-0.80890661 0 0)
(-0.81929321 0 0)
(-0.82732685 0 0)
(-0.83357687 0 0)
(-0.83885325 0 0)
(-0.84418783 0 0)
(-0.85089161 0 0)
(-0.041870456 0 0)
(-0.12047308 0 0)
(-0.19304036 0 0)
(-0.26035468 0 0)
(-0.32281054 0 0)
(-0.38075116 0 0)
(-0.43457814 0 0)
(-0.48469135 0 0)
(-0.5312364 0 0)
(-0.57439001 0 0)
(-0.6143032 0 0)
(-0.65101446 0 0)
(-0.6845347 0 0)
(-0.71485877 0 0)
(-0.74194982 0 0)
(-0.76575419 0 0)
(-0.78624427 0 0)
(-0.80345459 0 0)
(-0.81747777 0 0)
(-0.82850513 0 0)
(-0.83683901 0 0)
(-0.84293329 0 0)
(-0.84740223 0 0)
(-0.85105713 0 0)
(-0.85497812 0 0)
(-0.8604909 0 0)
(-0.041895588 0 0)
(-0.12053958 0 0)
(-0.19315999 0 0)
(-0.2605402 0 0)
(-0.32308253 0 0)
(-0.38112975 0 0)
(-0.4350875 0 0)
(-0.48538923 0 0)
(-0.53217949 0 0)
(-0.5756475 0 0)
(-0.61596186 0 0)
(-0.65317208 0 0)
(-0.68730326 0 0)
(-0.71835266 0 0)
(-0.74627905 0 0)
(-0.7710237 0 0)
(-0.79253212 0 0)
(-0.81077246 0 0)
(-0.82578015 0 0)
(-0.83767685 0 0)
(-0.84664833 0 0)
(-0.85302073 0 0)
(-0.85727229 0 0)
(-0.86002737 0 0)
(-0.86215251 0 0)
(-0.86473291 0 0)
(-0.86912793 0 0)
(-0.041918442 0 0)
(-0.12060046 0 0)
(-0.19326455 0 0)
(-0.26070166 0 0)
(-0.32331419 0 0)
(-0.38145248 0 0)
(-0.43552373 0 0)
(-0.48598569 0 0)
(-0.53298652 0 0)
(-0.57672299 0 0)
(-0.6173925 0 0)
(-0.65505166 0 0)
(-0.68973007 0 0)
(-0.72144013 0 0)
(-0.75015107 0 0)
(-0.77579661 0 0)
(-0.79830313 0 0)
(-0.81760522 0 0)
(-0.83368496 0 0)
(-0.84659416 0 0)
(-0.85643747 0 0)
(-0.86343005 0 0)
(-0.86791367 0 0)
(-0.87039378 0 0)
(-0.87153591 0 0)
(-0.87220899 0 0)
(-0.87353942 0 0)
(-0.87689528 0 0)
(-0.041937232 0 0)
(-0.12065111 0 0)
(-0.19335718 0 0)
(-0.26084191 0 0)
(-0.32351599 0 0)
(-0.38173071 0 0)
(-0.43589427 0 0)
(-0.48649238 0 0)
(-0.53367356 0 0)
(-0.57764388 0 0)
(-0.61862078 0 0)
(-0.65667142 0 0)
(-0.69184362 0 0)
(-0.72415999 0 0)
(-0.75359266 0 0)
(-0.78007875 0 0)
(-0.80354402 0 0)
(-0.82390456 0 0)
(-0.84109248 0 0)
(-0.85509447 0 0)
(-0.86596734 0 0)
(-0.87384114 0 0)
(-0.87893032 0 0)
(-0.8816093 0 0)
(-0.88240674 0 0)
(-0.88200058 0 0)
(-0.88130781 0 0)
(-0.88145592 0 0)
(-0.88383993 0 0)
(-0.041953168 0 0)
(-0.12069973 0 0)
(-0.19344069 0 0)
(-0.26096737 0 0)
(-0.32369075 0 0)
(-0.38197044 0 0)
(-0.43621498 0 0)
(-0.4869265 0 0)
(-0.53426043 0 0)
(-0.57842748 0 0)
(-0.61967153 0 0)
(-0.6580687 0 0)
(-0.69367451 0 0)
(-0.72652904 0 0)
(-0.75662215 0 0)
(-0.78389288 0 0)
(-0.80826353 0 0)
(-0.82964081 0 0)
(-0.84793849 0 0)
(-0.863089 0 0)
(-0.87508903 0 0)
(-0.88400962 0 0)
(-0.88997273 0 0)
(-0.89323106 0 0)
(-0.89417334 0 0)
(-0.89335751 0 0)
(-0.89149687 0 0)
(-0.88951068 0 0)
(-0.8885596 0 0)
(-0.89004087 0 0)
(-0.041790748 0 0)
(-0.12073913 0 0)
(-0.19351884 0 0)
(-0.2610803 0 0)
(-0.32384635 0 0)
(-0.38218059 0 0)
(-0.4364905 0 0)
(-0.48729761 0 0)
(-0.53476104 0 0)
(-0.57909767 0 0)
(-0.62056902 0 0)
(-0.65926207 0 0)
(-0.69525123 0 0)
(-0.72859094 0 0)
(-0.75927881 0 0)
(-0.78726189 0 0)
(-0.81247257 0 0)
(-0.83481901 0 0)
(-0.85419359 0 0)
(-0.87050182 0 0)
(-0.88368864 0 0)
(-0.89375609 0 0)
(-0.90077707 0 0)
(-0.90490647 0 0)
(-0.90640223 0 0)
(-0.90568768 0 0)
(-0.90334039 0 0)
(-0.90008809 0 0)
(-0.89689034 0 0)
(-0.89490206 0 0)
(-0.89554155 0 0)
(-0.041595433 0 0)
(-0.12039578 0 0)
(-0.19358868 0 0)
(-0.26118492 0 0)
(-0.32398602 0 0)
(-0.38236589 0 0)
(-0.43673349 0 0)
(-0.48761896 0 0)
(-0.53519059 0 0)
(-0.57966846 0 0)
(-0.62133431 0 0)
(-0.66028552 0 0)
(-0.69660618 0 0)
(-0.73036709 0 0)
(-0.76158782 0 0)
(-0.7902212 0 0)
(-0.81620662 0 0)
(-0.83945181 0 0)
(-0.85985079 0 0)
(-0.87729426 0 0)
(-0.89168491 0 0)
(-0.90297055 0 0)
(-0.91116836 0 0)
(-0.9163646 0 0)
(-0.91871345 0 0)
(-0.9185164 0 0)
(-0.91620967 0 0)
(-0.91239912 0 0)
(-0.90784268 0 0)
(-0.90350067 0 0)
(-0.90055085 0 0)
(-0.90040844 0 0)
(-0.041417794 0 0)
(-0.11981125 0 0)
(-0.19308852 0 0)
(-0.26127908 0 0)
(-0.32411417 0 0)
(-0.38253249 0 0)
(-0.43694747 0 0)
(-0.48789846 0 0)
(-0.53556088 0 0)
(-0.58016002 0 0)
(-0.62198891 0 0)
(-0.66115602 0 0)
(-0.69776407 0 0)
(-0.7318991 0 0)
(-0.76359175 0 0)
(-0.79280368 0 0)
(-0.81948943 0 0)
(-0.84357057 0 0)
(-0.86493226 0 0)
(-0.88345776 0 0)
(-0.8990377 0 0)
(-0.91157228 0 0)
(-0.92101868 0 0)
(-0.92740142 0 0)
(-0.93081859 0 0)
(-0.93145996 0 0)
(-0.92963395 0 0)
(-0.92581195 0 0)
(-0.9206153 0 0)
(-0.91481616 0 0)
(-0.9094064 0 0)
(-0.90555125 0 0)
(-0.90468183 0 0)
(-0.041261311 0 0)
(-0.11928524 0 0)
(-0.19216732 0 0)
(-0.26063393 0 0)
(-0.32422912 0 0)
(-0.38268599 0 0)
(-0.4371421 0 0)
(-0.48814613 0 0)
(-0.53588321 0 0)
(-0.58058269 0 0)
(-0.62254902 0 0)
(-0.6619015 0 0)
(-0.69875524 0 0)
(-0.73320904 0 0)
(-0.76531708 0 0)
(-0.79504723 0 0)
(-0.82236721 0 0)
(-0.84720485 0 0)
(-0.86945582 0 0)
(-0.88900556 0 0)
(-0.9057269 0 0)
(-0.91949811 0 0)
(-0.93023207 0 0)
(-0.93789325 0 0)
(-0.94251804 0 0)
(-0.94422292 0 0)
(-0.94320596 0 0)
(-0.93982016 0 0)
(-0.93454578 0 0)
(-0.92803024 0 0)
(-0.9210699 0 0)
(-0.91465434 0 0)
(-0.90996205 0 0)
(-0.90841797 0 0)
(-0.041125726 0 0)
(-0.11881886 0 0)
(-0.19133682 0 0)
(-0.25940634 0 0)
(-0.32345411 0 0)
(-0.38282219 0 0)
(-0.43732177 0 0)
(-0.48836926 0 0)
(-0.53616758 0 0)
(-0.58095213 0 0)
(-0.62303203 0 0)
(-0.66253705 0 0)
(-0.69959956 0 0)
(-0.73433228 0 0)
(-0.76680352 0 0)
(-0.79698754 0 0)
(-0.82486894 0 0)
(-0.85039587 0 0)
(-0.87346453 0 0)
(-0.89395955 0 0)
(-0.91176049 0 0)
(-0.92673358 0 0)
(-0.93875379 0 0)
(-0.9477378 0 0)
(-0.95366557 0 0)
(-0.95658003 0 0)
(-0.95661683 0 0)
(-0.95401263 0 0)
(-0.94912861 0 0)
(-0.9424767 0 0)
(-0.9347147 0 0)
(-0.92665248 0 0)
(-0.91930224 0 0)
(-0.91382332 0 0)
(-0.91165378 0 0)
(-0.04101335 0 0)
(-0.11841905 0 0)
(-0.19060374 0 0)
(-0.25829826 0 0)
(-0.32195128 0 0)
(-0.38193564 0 0)
(-0.43748393 0 0)
(-0.48857339 0 0)
(-0.53642122 0 0)
(-0.58127657 0 0)
(-0.62345064 0 0)
(-0.66308408 0 0)
(-0.70032258 0 0)
(-0.73529008 0 0)
(-0.76807625 0 0)
(-0.79865977 0 0)
(-0.82704172 0 0)
(-0.85318201 0 0)
(-0.87698831 0 0)
(-0.89835926 0 0)
(-0.91716916 0 0)
(-0.93327829 0 0)
(-0.94655228 0 0)
(-0.95686691 0 0)
(-0.96414866 0 0)
(-0.96838571 0 0)
(-0.96964146 0 0)
(-0.96807405 0 0)
(-0.96393174 0 0)
(-0.95761831 0 0)
(-0.94965045 0 0)
(-0.94070768 0 0)
(-0.93161907 0 0)
(-0.92339053 0 0)
(-0.91718553 0 0)
(-0.91443624 0 0)
(-0.040923947 0 0)
(-0.1180855 0 0)
(-0.18997455 0 0)
(-0.25732164 0 0)
(-0.32059375 0 0)
(-0.3801882 0 0)
(-0.4365015 0 0)
(-0.48875813 0 0)
(-0.53665514 0 0)
(-0.58156772 0 0)
(-0.6238187 0 0)
(-0.66355614 0 0)
(-0.70094079 0 0)
(-0.73611009 0 0)
(-0.7691695 0 0)
(-0.80009835 0 0)
(-0.82891544 0 0)
(-0.85560471 0 0)
(-0.88007829 0 0)
(-0.90223932 0 0)
(-0.92197827 0 0)
(-0.93915832 0 0)
(-0.95362872 0 0)
(-0.96524709 0 0)
(-0.9738999 0 0)
(-0.97952151 0 0)
(-0.98211509 0 0)
(-0.98175629 0 0)
(-0.97862957 0 0)
(-0.97301927 0 0)
(-0.96533667 0 0)
(-0.95612556 0 0)
(-0.9460707 0 0)
(-0.93601233 0 0)
(-0.92697012 0 0)
(-0.92008447 0 0)
(-0.91679967 0 0)
(-0.040859185 0 0)
(-0.1178231 0 0)
(-0.18945214 0 0)
(-0.25648272 0 0)
(-0.31939735 0 0)
(-0.37861132 0 0)
(-0.43454004 0 0)
(-0.48768277 0 0)
(-0.5368624 0 0)
(-0.5818347 0 0)
(-0.62414693 0 0)
(-0.66396819 0 0)
(-0.70147413 0 0)
(-0.73681226 0 0)
(-0.77010556 0 0)
(-0.80133363 0 0)
(-0.83053287 0 0)
(-0.85770404 0 0)
(-0.88276794 0 0)
(-0.90564703 0 0)
(-0.92623752 0 0)
(-0.94440335 0 0)
(-0.95999814 0 0)
(-0.97287041 0 0)
(-0.98287523 0 0)
(-0.98990336 0 0)
(-0.99390616 0 0)
(-0.99489543 0 0)
(-0.99297363 0 0)
(-0.98834904 0 0)
(-0.98132064 0 0)
(-0.97233765 0 0)
(-0.96194348 0 0)
(-0.95084007 0 0)
(-0.93988146 0 0)
(-0.93007626 0 0)
(-0.92256297 0 0)
(-0.91878353 0 0)
(-0.040818844 0 0)
(-0.11763242 0 0)
(-0.18904125 0 0)
(-0.25578715 0 0)
(-0.31836915 0 0)
(-0.3772208 0 0)
(-0.43277056 0 0)
(-0.48552177 0 0)
(-0.53571007 0 0)
(-0.58207267 0 0)
(-0.62444378 0 0)
(-0.66433417 0 0)
(-0.70193721 0 0)
(-0.73741629 0 0)
(-0.77091126 0 0)
(-0.80239586 0 0)
(-0.83192221 0 0)
(-0.85951771 0 0)
(-0.88510863 0 0)
(-0.90862405 0 0)
(-0.92998108 0 0)
(-0.94905757 0 0)
(-0.96570031 0 0)
(-0.97975382 0 0)
(-0.99106684 0 0)
(-0.99949296 0 0)
(-1.0049334 0 0)
(-1.007351 0 0)
(-1.0067806 0 0)
(-1.0033398 0 0)
(-0.99726493 0 0)
(-0.98888784 0 0)
(-0.97866391 0 0)
(-0.96715705 0 0)
(-0.95507017 0 0)
(-0.94326376 0 0)
(-0.93275306 0 0)
(-0.92465383 0 0)
(-0.92041953 0 0)
(-0.040803774 0 0)
(-0.11751557 0 0)
(-0.18874418 0 0)
(-0.25523991 0 0)
(-0.31751654 0 0)
(-0.37602665 0 0)
(-0.43121133 0 0)
(-0.48357049 0 0)
(-0.53336755 0 0)
(-0.58085418 0 0)
(-0.62470942 0 0)
(-0.66466149 0 0)
(-0.70234374 0 0)
(-0.73794155 0 0)
(-0.77160668 0 0)
(-0.80331007 0 0)
(-0.83311934 0 0)
(-0.86108385 0 0)
(-0.88713303 0 0)
(-0.91121695 0 0)
(-0.93326539 0 0)
(-0.95316273 0 0)
(-0.97076767 0 0)
(-0.98592823 0 0)
(-0.9984781 0 0)
(-1.0082564 0 0)
(-1.0151363 0 0)
(-1.0190256 0 0)
(-1.0198987 0 0)
(-1.0178067 0 0)
(-1.0128995 0 0)
(-1.0054357 0 0)
(-0.99576162 0 0)
(-0.98436456 0 0)
(-0.9718036 0 0)
(-0.95879362 0 0)
(-0.94620285 0 0)
(-0.93503215 0 0)
(-0.92639342 0 0)
(-0.92174033 0 0)
(-0.11747345 0 0)
(-0.040808219 0 0)
(-0.18856352 0 0)
(-0.2548445 0 0)
(-0.31684537 0 0)
(-0.37503658 0 0)
(-0.4298728 0 0)
(-0.48185287 0 0)
(-0.53125637 0 0)
(-0.57835284 0 0)
(-0.62342375 0 0)
(-0.66495412 0 0)
(-0.70271068 0 0)
(-0.73840085 0 0)
(-0.77221163 0 0)
(-0.80410103 0 0)
(-0.83414973 0 0)
(-0.86243407 0 0)
(-0.88888754 0 0)
(-0.91346793 0 0)
(-0.93612705 0 0)
(-0.95676892 0 0)
(-0.97525397 0 0)
(-0.99143126 0 0)
(-1.0051418 0 0)
(-1.0162175 0 0)
(-1.0245024 0 0)
(-1.0298656 0 0)
(-1.0322308 0 0)
(-1.0315901 0 0)
(-1.0280227 0 0)
(-1.0216946 0 0)
(-1.0128924 0 0)
(-1.0019898 0 0)
(-0.989478 0 0)
(-0.97593042 0 0)
(-0.96205833 0 0)
(-0.94873127 0 0)
(-0.93695176 0 0)
(-0.92781173 0 0)
(-0.9227753 0 0)
(-0.18850051 0 0)
(-0.11748918 0 0)
(-0.040832413 0 0)
(-0.25460442 0 0)
(-0.31636009 0 0)
(-0.37425724 0 0)
(-0.42876414 0 0)
(-0.48037774 0 0)
(-0.52939571 0 0)
(-0.57609923 0 0)
(-0.62077335 0 0)
(-0.66360813 0 0)
(-0.70303105 0 0)
(-0.73881622 0 0)
(-0.77274565 0 0)
(-0.80478952 0 0)
(-0.83504154 0 0)
(-0.86360126 0 0)
(-0.89040153 0 0)
(-0.91541847 0 0)
(-0.9386208 0 0)
(-0.95992349 0 0)
(-0.97919996 0 0)
(-0.99631349 0 0)
(-1.0111027 0 0)
(-1.0233937 0 0)
(-1.0330182 0 0)
(-1.0398263 0 0)
(-1.0437037 0 0)
(-1.0445779 0 0)
(-1.0424639 0 0)
(-1.0374613 0 0)
(-1.0297675 0 0)
(-1.0196876 0 0)
(-1.0076094 0 0)
(-0.99404916 0 0)
(-0.97957107 0 0)
(-0.96489333 0 0)
(-0.95088729 0 0)
(-0.93854013 0 0)
(-0.92893905 0 0)
(-0.92355148 0 0)
(-0.25452056 0 0)
(-0.18852927 0 0)
(-0.1175648 0 0)
(-0.040881722 0 0)
(-0.31606519 0 0)
(-0.37369499 0 0)
(-0.42789214 0 0)
(-0.47915663 0 0)
(-0.52780066 0 0)
(-0.5741135 0 0)
(-0.61838126 0 0)
(-0.66081806 0 0)
(-0.70163559 0 0)
(-0.73917883 0 0)
(-0.77321976 0 0)
(-0.8053941 0 0)
(-0.83581763 0 0)
(-0.86461195 0 0)
(-0.89171439 0 0)
(-0.91710767 0 0)
(-0.94078187 0 0)
(-0.96267427 0 0)
(-0.9826639 0 0)
(-1.0006201 0 0)
(-1.0163968 0 0)
(-1.0298242 0 0)
(-1.0407228 0 0)
(-1.0489246 0 0)
(-1.0542897 0 0)
(-1.0567019 0 0)
(-1.0561113 0 0)
(-1.0525565 0 0)
(-1.0461677 0 0)
(-1.037156 0 0)
(-1.0258516 0 0)
(-1.0126645 0 0)
(-0.99811277 0 0)
(-0.98276792 0 0)
(-0.96734088 0 0)
(-0.95269954 0 0)
(-0.93982963 0 0)
(-0.92980301 0 0)
(-0.92409569 0 0)
(-0.31596136 0 0)
(-0.25455991 0 0)
(-0.1886505 0 0)
(-0.11771346 0 0)
(-0.040955737 0 0)
(-0.3733527 0 0)
(-0.42726434 0 0)
(-0.47819681 0 0)
(-0.52647919 0 0)
(-0.57241209 0 0)
(-0.61627711 0 0)
(-0.65829769 0 0)
(-0.69870701 0 0)
(-0.73774389 0 0)
(-0.77364116 0 0)
(-0.80593482 0 0)
(-0.83649857 0 0)
(-0.86549303 0 0)
(-0.89285129 0 0)
(-0.91857046 0 0)
(-0.94265876 0 0)
(-0.96506771 0 0)
(-0.98568741 0 0)
(-1.0044066 0 0)
(-1.0210859 0 0)
(-1.0355583 0 0)
(-1.0476467 0 0)
(-1.0571745 0 0)
(-1.063973 0 0)
(-1.0679051 0 0)
(-1.0688792 0 0)
(-1.0668566 0 0)
(-1.0619043 0 0)
(-1.0541721 0 0)
(-1.0438998 0 0)
(-1.0314312 0 0)
(-1.0171892 0 0)
(-1.0017094 0 0)
(-0.98555099 0 0)
(-0.96942666 0 0)
(-0.95420094 0 0)
(-0.94084594 0 0)
(-0.93042876 0 0)
(-0.92442972 0 0)
(-0.37323447 0 0)
(-0.31600874 0 0)
(-0.25472125 0 0)
(-0.18888864 0 0)
(-0.11793804 0 0)
(-0.041054359 0 0)
(-0.4268835 0 0)
(-0.47750537 0 0)
(-0.52544201 0 0)
(-0.57100253 0 0)
(-0.61447061 0 0)
(-0.65608203 0 0)
(-0.69606937 0 0)
(-0.73469396 0 0)
(-0.77217243 0 0)
(-0.80640714 0 0)
(-0.83710698 0 0)
(-0.86626754 0 0)
(-0.89384345 0 0)
(-0.9198406 0 0)
(-0.94428356 0 0)
(-0.96714645 0 0)
(-0.98832683 0 0)
(-1.0077214 0 0)
(-1.0252105 0 0)
(-1.0406405 0 0)
(-1.0538347 0 0)
(-1.0646094 0 0)
(-1.0727828 0 0)
(-1.0781951 0 0)
(-1.0807235 0 0)
(-1.0802782 0 0)
(-1.0768535 0 0)
(-1.0705403 0 0)
(-1.0615172 0 0)
(-1.0500342 0 0)
(-1.0364565 0 0)
(-1.0212236 0 0)
(-1.0048706 0 0)
(-0.98795752 0 0)
(-0.97118737 0 0)
(-0.95541713 0 0)
(-0.94161658 0 0)
(-0.93084152 0 0)
(-0.92457824 0 0)
(-0.42675452 0 0)
(-0.37328951 0 0)
(-0.31620513 0 0)
(-0.25504024 0 0)
(-0.18924406 0 0)
(-0.11823248 0 0)
(-0.041176406 0 0)
(-0.47708795 0 0)
(-0.5246953 0 0)
(-0.56989732 0 0)
(-0.61297687 0 0)
(-0.65417847 0 0)
(-0.69374482 0 0)
(-0.73194999 0 0)
(-0.76902401 0 0)
(-0.80492158 0 0)
(-0.83763866 0 0)
(-0.86695385 0 0)
(-0.89471418 0 0)
(-0.92094666 0 0)
(-0.94569663 0 0)
(-0.96895296 0 0)
(-0.99062065 0 0)
(-1.010617 0 0)
(-1.0288352 0 0)
(-1.0451306 0 0)
(-1.0593351 0 0)
(-1.0712687 0 0)
(-1.0807436 0 0)
(-1.0875782 0 0)
(-1.0916183 0 0)
(-1.0927518 0 0)
(-1.0909179 0 0)
(-1.0861264 0 0)
(-1.0784995 0 0)
(-1.0682317 0 0)
(-1.0555971 0 0)
(-1.0409692 0 0)
(-1.0247994 0 0)
(-1.0076329 0 0)
(-0.99001481 0 0)
(-0.97264617 0 0)
(-0.95637572 0 0)
(-0.94216466 0 0)
(-0.93106158 0 0)
(-0.92455894 0 0)
(-0.4769461 0 0)
(-0.42681981 0 0)
(-0.37352103 0 0)
(-0.31659503 0 0)
(-0.25551347 0 0)
(-0.18971245 0 0)
(-0.11860083 0 0)
(-0.041321699 0 0)
(-0.52424476 0 0)
(-0.56910159 0 0)
(-0.61180268 0 0)
(-0.65260548 0 0)
(-0.69175389 0 0)
(-0.72953148 0 0)
(-0.7661822 0 0)
(-0.80167765 0 0)
(-0.83613897 0 0)
(-0.86755729 0 0)
(-0.89548416 0 0)
(-0.92191592 0 0)
(-0.94692634 0 0)
(-0.97052291 0 0)
(-0.99261901 0 0)
(-1.0131408 0 0)
(-1.0320018 0 0)
(-1.0490757 0 0)
(-1.0642032 0 0)
(-1.077206 0 0)
(-1.0878944 0 0)
(-1.0960817 0 0)
(-1.1015881 0 0)
(-1.1042707 0 0)
(-1.1040372 0 0)
(-1.1008357 0 0)
(-1.0947129 0 0)
(-1.0858129 0 0)
(-1.0743559 0 0)
(-1.0606212 0 0)
(-1.044999 0 0)
(-1.0279527 0 0)
(-1.0100249 0 0)
(-0.99175559 0 0)
(-0.97383373 0 0)
(-0.9571004 0 0)
(-0.94251289 0 0)
(-0.93111213 0 0)
(-0.92439405 0 0)
(-0.5240937 0 0)
(-0.47702123 0 0)
(-0.42708207 0 0)
(-0.37397382 0 0)
(-0.31717333 0 0)
(-0.25614 0 0)
(-0.1902931 0 0)
(-0.11903386 0 0)
(-0.041488541 0 0)
(-0.56862297 0 0)
(-0.61095908 0 0)
(-0.65136839 0 0)
(-0.69010409 0 0)
(-0.72746205 0 0)
(-0.7636865 0 0)
(-0.79875727 0 0)
(-0.8328098 0 0)
(-0.86604312 0 0)
(-0.89616011 0 0)
(-0.92277406 0 0)
(-0.94800385 0 0)
(-0.97189209 0 0)
(-0.9943556 0 0)
(-1.0153385 0 0)
(-1.0347702 0 0)
(-1.0525371 0 0)
(-1.0684926 0 0)
(-1.0824701 0 0)
(-1.0942837 0 0)
(-1.1037384 0 0)
(-1.1106447 0 0)
(-1.1148337 0 0)
(-1.1161729 0 0)
(-1.1145847 0 0)
(-1.1100513 0 0)
(-1.1026367 0 0)
(-1.0925146 0 0)
(-1.0799174 0 0)
(-1.0651423 0 0)
(-1.0485829 0 0)
(-1.0307133 0 0)
(-1.0120791 0 0)
(-0.99320453 0 0)
(-0.9747722 0 0)
(-0.95761428 0 0)
(-0.94268253 0 0)
(-0.93100966 0 0)
(-0.92409754 0 0)
(-0.56846304 0 0)
(-0.52417511 0 0)
(-0.47731054 0 0)
(-0.42759303 0 0)
(-0.37465017 0 0)
(-0.31794018 0 0)
(-0.2569138 0 0)
(-0.1909798 0 0)
(-0.11953622 0 0)
(-0.041676751 0 0)
(-0.61044931 0 0)
(-0.65048014 0 0)
(-0.6888109 0 0)
(-0.72574668 0 0)
(-0.76154353 0 0)
(-0.79618705 0 0)
(-0.82981515 0 0)
(-0.86263384 0 0)
(-0.89463987 0 0)
(-0.92352196 0 0)
(-0.94895676 0 0)
(-0.97309176 0 0)
(-0.99587239 0 0)
(-1.0172531 0 0)
(-1.0371804 0 0)
(-1.0555606 0 0)
(-1.07226 0 0)
(-1.0871221 0 0)
(-1.0999638 0 0)
(-1.110595 0 0)
(-1.1188221 0 0)
(-1.1244576 0 0)
(-1.1273385 0 0)
(-1.1273502 0 0)
(-1.1244376 0 0)
(-1.1185981 0 0)
(-1.1099333 0 0)
(-1.0986345 0 0)
(-1.0849544 0 0)
(-1.0691911 0 0)
(-1.0517499 0 0)
(-1.0331132 0 0)
(-1.0138217 0 0)
(-0.99438938 0 0)
(-0.97548714 0 0)
(-0.95793926 0 0)
(-0.94269249 0 0)
(-0.93077561 0 0)
(-0.92368997 0 0)
(-0.61027923 0 0)
(-0.5685519 0 0)
(-0.52449108 0 0)
(-0.47787798 0 0)
(-0.42835368 0 0)
(-0.37554082 0 0)
(-0.31888719 0 0)
(-0.25783237 0 0)
(-0.19177124 0 0)
(-0.12009703 0 0)
(-0.04188348 0 0)
(-0.64994406 0 0)
(-0.6878791 0 0)
(-0.72440285 0 0)
(-0.75977377 0 0)
(-0.79398643 0 0)
(-0.82717982 0 0)
(-0.85956337 0 0)
(-0.89115559 0 0)
(-0.92200492 0 0)
(-0.94978641 0 0)
(-0.97414886 0 0)
(-0.99719983 0 0)
(-1.0189228 0 0)
(-1.0392842 0 0)
(-1.058203 0 0)
(-1.0755597 0 0)
(-1.0912134 0 0)
(-1.1049935 0 0)
(-1.1167088 0 0)
(-1.1261653 0 0)
(-1.1331714 0 0)
(-1.1375405 0 0)
(-1.1391227 0 0)
(-1.137821 0 0)
(-1.133602 0 0)
(-1.1264983 0 0)
(-1.1166271 0 0)
(-1.1042057 0 0)
(-1.0894939 0 0)
(-1.0728015 0 0)
(-1.0545329 0 0)
(-1.0351803 0 0)
(-1.0152813 0 0)
(-0.99533347 0 0)
(-0.97599972 0 0)
(-0.95809418 0 0)
(-0.94256233 0 0)
(-0.93042211 0 0)
(-0.92318131 0 0)
(-0.64976589 0 0)
(-0.61037189 0 0)
(-0.5688889 0 0)
(-0.52510429 0 0)
(-0.47871669 0 0)
(-0.42935581 0 0)
(-0.37664665 0 0)
(-0.32001243 0 0)
(-0.25888825 0 0)
(-0.19266011 0 0)
(-0.12071969 0 0)
(-0.0420569 0 0)
(-0.68731897 0 0)
(-0.72343466 0 0)
(-0.75838169 0 0)
(-0.79216483 0 0)
(-0.8249255 0 0)
(-0.85686798 0 0)
(-0.88801754 0 0)
(-0.91844989 0 0)
(-0.94827557 0 0)
(-0.9750717 0 0)
(-0.99836856 0 0)
(-1.0203842 0 0)
(-1.0411178 0 0)
(-1.060506 0 0)
(-1.0784443 0 0)
(-1.0948059 0 0)
(-1.1094281 0 0)
(-1.1221314 0 0)
(-1.1327262 0 0)
(-1.1410148 0 0)
(-1.146801 0 0)
(-1.149909 0 0)
(-1.1502027 0 0)
(-1.1476081 0 0)
(-1.1421187 0 0)
(-1.1337831 0 0)
(-1.1227524 0 0)
(-1.1092569 0 0)
(-1.0935714 0 0)
(-1.0760021 0 0)
(-1.0569598 0 0)
(-1.0369428 0 0)
(-1.0164819 0 0)
(-0.99606036 0 0)
(-0.97633049 0 0)
(-0.95809977 0 0)
(-0.94230636 0 0)
(-0.92996906 0 0)
(-0.92255156 0 0)
(-0.68713133 0 0)
(-0.64986488 0 0)
(-0.61072842 0 0)
(-0.56954441 0 0)
(-0.52601574 0 0)
(-0.47982594 0 0)
(-0.43059608 0 0)
(-0.37795368 0 0)
(-0.32130576 0 0)
(-0.26007634 0 0)
(-0.19363902 0 0)
(-0.12109818 0 0)
(-0.042051643 0 0)
(-0.72285213 0 0)
(-0.75738202 0 0)
(-0.79073683 0 0)
(-0.8230596 0 0)
(-0.85455894 0 0)
(-0.88526548 0 0)
(-0.91525445 0 0)
(-0.94465543 0 0)
(-0.97356694 0 0)
(-0.99938815 0 0)
(-1.0216708 0 0)
(-1.0427232 0 0)
(-1.0625185 0 0)
(-1.0809639 0 0)
(-1.0979489 0 0)
(-1.1133277 0 0)
(-1.1269269 0 0)
(-1.1385617 0 0)
(-1.1480391 0 0)
(-1.1551588 0 0)
(-1.1597271 0 0)
(-1.1615778 0 0)
(-1.1605971 0 0)
(-1.15673 0 0)
(-1.1499962 0 0)
(-1.1404765 0 0)
(-1.128334 0 0)
(-1.1138205 0 0)
(-1.0972133 0 0)
(-1.0788242 0 0)
(-1.0590595 0 0)
(-1.0384269 0 0)
(-1.0174481 0 0)
(-0.99659166 0 0)
(-0.97649993 0 0)
(-0.95797048 0 0)
(-0.94194289 0 0)
(-0.92932161 0 0)
(-0.92177249 0 0)
(-0.72265781 0 0)
(-0.68723494 0 0)
(-0.65024124 0 0)
(-0.61142327 0 0)
(-0.57051641 0 0)
(-0.52721487 0 0)
(-0.48119435 0 0)
(-0.4320644 0 0)
(-0.37946113 0 0)
(-0.32276195 0 0)
(-0.26138394 0 0)
(-0.19419428 0 0)
(-0.12109425 0 0)
(-0.042045241 0 0)
(-0.75677731 0 0)
(-0.78970839 0 0)
(-0.82159821 0 0)
(-0.85265251 0 0)
(-0.88290829 0 0)
(-0.91244918 0 0)
(-0.94140493 0 0)
(-0.96988507 0 0)
(-0.99789729 0 0)
(-1.0227893 0 0)
(-1.0441351 0 0)
(-1.0642786 0 0)
(-1.0831647 0 0)
(-1.1006999 0 0)
(-1.1167475 0 0)
(-1.1311486 0 0)
(-1.1437314 0 0)
(-1.1543034 0 0)
(-1.1626636 0 0)
(-1.1686137 0 0)
(-1.1719634 0 0)
(-1.172564 0 0)
(-1.1703225 0 0)
(-1.1652108 0 0)
(-1.1572739 0 0)
(-1.146608 0 0)
(-1.1334049 0 0)
(-1.1179243 0 0)
(-1.1004529 0 0)
(-1.0812946 0 0)
(-1.0608589 0 0)
(-1.0396568 0 0)
(-1.0182021 0 0)
(-0.99694598 0 0)
(-0.97652356 0 0)
(-0.9577259 0 0)
(-0.94127675 0 0)
(-0.92849085 0 0)
(-0.92086913 0 0)
(-0.75657438 0 0)
(-0.72276345 0 0)
(-0.68762832 0 0)
(-0.65097456 0 0)
(-0.61245283 0 0)
(-0.57179691 0 0)
(-0.52870047 0 0)
(-0.48281829 0 0)
(-0.433754 0 0)
(-0.38115372 0 0)
(-0.32436407 0 0)
(-0.26210435 0 0)
(-0.19417503 0 0)
(-0.12108093 0 0)
(-0.042035071 0 0)
(-0.78908917 0 0)
(-0.82054678 0 0)
(-0.8511566 0 0)
(-0.88096429 0 0)
(-0.91005117 0 0)
(-0.93855153 0 0)
(-0.96657719 0 0)
(-0.99415744 0 0)
(-1.0213214 0 0)
(-1.0453608 0 0)
(-1.0658242 0 0)
(-1.0850904 0 0)
(-1.1031028 0 0)
(-1.1197424 0 0)
(-1.1348603 0 0)
(-1.1482943 0 0)
(-1.1598637 0 0)
(-1.1693702 0 0)
(-1.1766104 0 0)
(-1.1813853 0 0)
(-1.1835182 0 0)
(-1.1828781 0 0)
(-1.1793974 0 0)
(-1.1730689 0 0)
(-1.1639632 0 0)
(-1.1522037 0 0)
(-1.1379905 0 0)
(-1.1215995 0 0)
(-1.1033154 0 0)
(-1.0834423 0 0)
(-1.0623833 0 0)
(-1.0406573 0 0)
(-1.018764 0 0)
(-0.99714424 0 0)
(-0.97642163 0 0)
(-0.95703656 0 0)
(-0.94034019 0 0)
(-0.92753752 0 0)
(-0.91983207 0 0)
(-0.78888077 0 0)
(-0.75668069 0 0)
(-0.72317087 0 0)
(-0.68839541 0 0)
(-0.65205972 0 0)
(-0.61381172 0 0)
(-0.5733804 0 0)
(-0.53045649 0 0)
(-0.484684 0 0)
(-0.43565482 0 0)
(-0.38301831 0 0)
(-0.32523349 0 0)
(-0.26208172 0 0)
(-0.19414802 0 0)
(-0.12106743 0 0)
(-0.042024579 0 0)
(-0.81991475 0 0)
(-0.85008301 0 0)
(-0.87943964 0 0)
(-0.90807106 0 0)
(-0.9361151 0 0)
(-0.96367955 0 0)
(-0.99079836 0 0)
(-1.017528 0 0)
(-1.04392 0 0)
(-1.0671684 0 0)
(-1.086782 0 0)
(-1.1052078 0 0)
(-1.1223635 0 0)
(-1.1381128 0 0)
(-1.1523106 0 0)
(-1.164784 0 0)
(-1.1753378 0 0)
(-1.1837723 0 0)
(-1.1898856 0 0)
(-1.1934843 0 0)
(-1.1944038 0 0)
(-1.1925377 0 0)
(-1.1878392 0 0)
(-1.1803296 0 0)
(-1.170102 0 0)
(-1.1572921 0 0)
(-1.1421224 0 0)
(-1.1248726 0 0)
(-1.1058311 0 0)
(-1.0852924 0 0)
(-1.0636582 0 0)
(-1.0414478 0 0)
(-1.0191553 0 0)
(-0.99720109 0 0)
(-0.97570738 0 0)
(-0.95595719 0 0)
(-0.9392978 0 0)
(-0.92646558 0 0)
(-0.91866732 0 0)
(-0.81970416 0 0)
(-0.78898929 0 0)
(-0.75709546 0 0)
(-0.72396409 0 0)
(-0.68953256 0 0)
(-0.65349256 0 0)
(-0.61549027 0 0)
(-0.57525432 0 0)
(-0.53247925 0 0)
(-0.48678296 0 0)
(-0.43774692 0 0)
(-0.38401654 0 0)
(-0.32520971 0 0)
(-0.2620488 0 0)
(-0.19411684 0 0)
(-0.12104383 0 0)
(-0.042008731 0 0)
(-0.84943626 0 0)
(-0.87834723 0 0)
(-0.90652168 0 0)
(-0.9341032 0 0)
(-0.96120343 0 0)
(-0.98785889 0 0)
(-1.0141258 0 0)
(-1.0400785 0 0)
(-1.0657562 0 0)
(-1.0882505 0 0)
(-1.1070556 0 0)
(-1.1246596 0 0)
(-1.1409645 0 0)
(-1.155838 0 0)
(-1.1691212 0 0)
(-1.1806289 0 0)
(-1.1901616 0 0)
(-1.1975185 0 0)
(-1.202501 0 0)
(-1.2049198 0 0)
(-1.204632 0 0)
(-1.2015549 0 0)
(-1.1956688 0 0)
(-1.1870132 0 0)
(-1.1757047 0 0)
(-1.1619004 0 0)
(-1.1458262 0 0)
(-1.1277734 0 0)
(-1.1080248 0 0)
(-1.0868703 0 0)
(-1.064704 0 0)
(-1.0420527 0 0)
(-1.019392 0 0)
(-0.99646375 0 0)
(-0.9744575 0 0)
(-0.9547937 0 0)
(-0.93815047 0 0)
(-0.92526504 0 0)
(-0.91736461 0 0)
(-0.84922191 0 0)
(-0.81981642 0 0)
(-0.78941439 0 0)
(-0.75791245 0 0)
(-0.72514331 0 0)
(-0.69103123 0 0)
(-0.65526116 0 0)
(-0.6174803 0 0)
(-0.57741085 0 0)
(-0.5347516 0 0)
(-0.48909228 0 0)
(-0.43885612 0 0)
(-0.38398602 0 0)
(-0.32517385 0 0)
(-0.26200812 0 0)
(-0.19407684 0 0)
(-0.12101573 0 0)
(-0.04199175 0 0)
(-0.87769095 0 0)
(-0.90540971 0 0)
(-0.9325305 0 0)
(-0.95916286 0 0)
(-0.98534775 0 0)
(-1.0111474 0 0)
(-1.0366368 0 0)
(-1.0618727 0 0)
(-1.0868781 0 0)
(-1.1086593 0 0)
(-1.1266748 0 0)
(-1.1434629 0 0)
(-1.1589322 0 0)
(-1.1729388 0 0)
(-1.1853036 0 0)
(-1.1958362 0 0)
(-1.2043398 0 0)
(-1.2106101 0 0)
(-1.2144494 0 0)
(-1.2156919 0 0)
(-1.2142122 0 0)
(-1.2099492 0 0)
(-1.202905 0 0)
(-1.1931466 0 0)
(-1.1808081 0 0)
(-1.166056 0 0)
(-1.1491319 0 0)
(-1.1303272 0 0)