/*--------------------------------*- C++ -*----------------------------------*\
| =========                 |                                                 |
| \\      /  F ield         | OpenFOAM: The Open Source CFD Toolbox           |
|  \\    /   O peration     | Version:  v2012                                 |
|   \\  /    A nd           | Website:  www.openfoam.com                      |
|    \\/     M anipulation  |                                                 |
\*---------------------------------------------------------------------------*/
FoamFile
{
    version     2.0;
    format      ascii;
    class       surfaceScalarField;
    location    "92.6076404136068163";
    object      meshPhi;
}
// * * * * * * * * * * * * * * * * * * * * * * * * * * * * * * * * * * * * * //

dimensions      [0 3 -1 0 0 0 0];
oriented        oriented;


internalField   nonuniform List<scalar> 
18180
(
-4.6803484e-17
0.052966521
0
0.049532621
0
0.1015048
0
0.046621914
0
0.095303985
-8.7912672e-14
0.14598407
-4.7521751e-14
0.044240801
0
0.089900284
0
0.13675855
0
0.18605493
-4.7542493e-14
0.042022034
4.5730265e-14
0.084911715
8.7917865e-14
0.12857444
0
0.17393539
8.1345204e-14
0.22318261
9.5101833e-14
0.039775383
4.572601e-14
0.079886643
0
0.12046853
0
0.16230976
0
0.20800401
0
0.25851858
0
0.037577371
4.5765417e-14
0.074926431
0
0.11250477
0
0.15143637
-3.2039211e-17
0.19393566
0
0.24113739
0
0.29176229
0
0.035479121
9.1543353e-14
0.070314238
0
0.10517862
-1.665185e-17
0.14137541
0
0.18095762
0
0.22516084
0
0.27283929
0
0.32303596
0
0.033494986
-4.5798633e-14
0.06605857
-4.4040293e-14
0.098505145
0
0.13211245
-4.0735638e-14
0.16897946
-3.9164623e-14
0.21071676
7.5344092e-14
0.25576062
0
0.30260972
0
0.35157823
4.761075e-14
0.031617902
0
0.062097678
0
0.092410948
4.2351737e-14
0.12384768
4.0749958e-14
0.15815351
-3.9211562e-14
0.19738586
0
0.24022078
0
0.28435125
0
0.32979497
0
0.37789399
0
0.029839113
-4.5827258e-14
0.058385294
0
0.086760517
4.2382199e-14
0.11638751
-4.0763804e-14
0.14834576
1.6425103e-17
0.18480348
-1.6371558e-17
0.22550623
-7.2541504e-14
0.26764405
-6.9797915e-14
0.31029817
0
0.35456467
-2.1065752e-17
0.40161659
-4.7664247e-14
0.028148198
0
0.054889996
-4.4080574e-14
0.081441873
0
0.10946097
0
0.13945668
3.9206612e-14
0.17314535
-3.7712649e-14
0.21132788
-3.6292507e-14
0.25168127
0
0.29231738
0
0.3337864
0
0.37702688
-1.9247427e-17
0.42338127
-2.3824785e-14
0.026527696
0
0.051592104
0
0.076406929
-4.2389014e-14
0.10293195
-4.0772641e-14
0.13130645
3.9236155e-14
0.16251999
3.7727031e-14
0.19784627
0
0.23610808
-6.9852767e-14
0.2750954
-3.3599248e-14
0.31453934
-6.4648442e-14
0.3550493
0
0.39744261
5.9833117e-14
0.44300499
0
0.024961527
2.2930058e-14
0.048463327
0
0.071634454
0
0.096715292
0
0.12364596
0
0.15280943
0
0.18536507
-3.632214e-14
0.22104375
-3.4928029e-14
0.25826225
-3.3614251e-14
0.29606352
3.2327043e-14
0.33459515
0
0.37434087
0
0.41593382
5.7591071e-14
0.46098984
-1.3278024e-17
0.023440248
0
0.045484226
0
0.067113363
0
0.090796659
0
0.11637583
-3.925989e-14
0.14382078
-3.7769727e-14
0.17397727
0
0.20690725
0
0.24197209
3.3630364e-14
0.27824832
-1.1120159e-17
0.31509957
3.1115723e-14
0.35286047
0
0.39178618
0
0.43270446
0
0.47716781
0
0.021964343
-2.2937909e-14
0.04264377
0
0.062835008
-2.1208444e-14
0.085173862
0
0.10944664
0
0.13535004
-3.7781615e-14
0.16351189
0
0.19394432
0
0.2264906
0
0.26098514
-3.2358868e-14
0.29642941
-1.0050565e-17
0.33237302
-8.9725879e-18
0.36934566
0
0.40761425
0
0.44789737
0
0.49195354
-2.3854887e-14
0.020531258
-2.2941047e-14
0.039937517
-2.2062207e-14
0.058791198
0
0.079850737
0
0.10285826
0
0.12731133
0
0.15375925
-3.6362727e-14
0.18208786
0
0.21210092
0
0.24438898
-3.2387395e-14
0.27847991
3.1159146e-14
0.31297276
-9.1365806e-18
0.34803116
-2.883952e-14
0.38435969
-1.4539317e-17
0.42192923
0
0.46165228
-1.1768122e-17
0.50526689
0
0.019140706
2.2932842e-14
0.037358279
0
0.054980274
-9.1080737e-18
0.074828409
0
0.096613239
0
0.11967288
0
0.14457222
0
0.17115113
3.4986805e-14
0.19899862
0
0.22891957
0
0.26126156
0
0.29458447
-2.9985446e-14
0.32799777
-2.8856836e-14
0.36226322
0
0.39792806
0
0.43488643
0
0.47408909
-4.9459383e-14
0.51742265
0
0.017798108
0
0.034899188
0
0.05140114
9.1908031e-18
0.070106875
-9.0461068e-18
0.090714619
1.9639138e-14
0.11242566
8.0269691e-18
0.13587356
0
0.16093253
0
0.18700914
0
0.21474217
0
0.2449445
0
0.27691273
3.0003619e-14
0.30915237
-2.8866899e-14
0.34157914
-7.5365526e-18
0.37518181
-2.6718652e-14
0.41023245
-1.1823943e-17
0.44654373
0
0.48531817
0
0.52834717
-2.3862502e-14
0.016509927
0
0.032559938
-2.2069561e-14
0.048045955
2.1220228e-14
0.065678743
0
0.085158376
1.9642258e-14
0.1055615
-1.8909342e-14
0.12762775
-1.818941e-14
0.15130314
0
0.17584894
0
0.20174221
3.242369e-14
0.22978183
0
0.25989986
0
0.29101986
0
0.32223095
-2.7791187e-14
0.35388705
2.6736916e-14
0.38684894
0
0.42127996
-4.9504838e-14
0.45707038
0
0.49546387
0
0.53828101
0
0.015285685
2.2938675e-14
0.030339859
0
0.044906773
0
0.061531735
-2.0425925e-14
0.079931722
-1.965338e-14
0.099072029
1.8904643e-14
0.11981372
0
0.14219809
-1.7510084e-14
0.1653514
0
0.18969279
0
0.21581895
-3.1228153e-14
0.24382048
0
0.27339988
-2.8904833e-14
0.30364343
0
0.33397029
-2.6756502e-14
0.36495978
2.574721e-14
0.39737533
-2.4763905e-14
0.43126187
-4.7658905e-14
0.46653047
0
0.50459132
4.4120412e-14
0.54720925
0
0.014131154
0
0.028245567
-2.2072851e-14
0.04197543
0
0.057653703
2.0427936e-14
0.075020255
-8.417279e-18
0.092947554
1.8907564e-14
0.11241431
-3.6409855e-14
0.13358486
-1.7521537e-14
0.15542457
-1.6857837e-14
0.17836347
0
0.20288109
0
0.22888649
0
0.25645123
0
0.285382
0
0.31483966
0
0.34449269
0
0.37496715
2.4783019e-14
0.40686167
2.3846626e-14
0.44022271
0
0.47503231
0
0.51281401
0
0.55531469
6.2726209e-18
0.0130508
0
0.02627803
0
0.039241891
0
0.054029482
0
0.070408889
-1.964927e-14
0.087178732
-1.8918158e-14
0.10542064
-1.8200223e-14
0.12544028
-7.0553881e-18
0.14602561
0
0.1676484
0
0.19077147
0
0.21506127
-3.0073099e-14
0.24051546
2.8941707e-14
0.267635
0
0.29607993
0
0.32487781
0
0.35401144
-2.4803622e-14
0.38401849
-4.7732372e-14
0.41543298
-2.2954515e-14
0.44826821
0
0.48262319
0
0.52018336
0
0.5625756
-6.1896027e-18
0.012045144
5.5140518e-18
0.024436
0
0.036693579
0
0.050643698
0
0.066080886
1.9659346e-14
0.081751146
1.8912273e-14
0.098821492
1.8202933e-14
0.11774292
-1.752186e-14
0.13713086
1.6866952e-14
0.15749332
1.6236385e-14
0.17935178
1.5634798e-14
0.20219574
-3.0087921e-14
0.2258019
0
0.25086231
2.7868909e-14
0.2777633
0
0.30567762
0
0.33392572
0
0.3626231
0
0.3922052
-4.4858578e-18
0.42309979
0
0.45543872
0
0.48941348
0
0.52680642
-3.9381928e-14
0.56912816
-1.1928658e-14
0.01111511
0
0.02271534
1.1038094e-14
0.034318014
0
0.047479211
0
0.062016482
1.9652417e-14
0.076649339
0
0.092602198
-1.8205268e-14
0.11047437
0
0.1287173
1.687073e-14
0.14787174
-6.287358e-18
0.16854999
0
0.19012822
-1.5050713e-14
0.21220024
2.8974742e-14
0.23529932
0
0.26029622
-7.5730126e-18
0.28698018
0
0.3143412
0
0.34209572
-2.3909322e-14
0.37042375
0
0.39955492
-4.0299581e-18
0.42997873
2.1279357e-14
0.46183668
4.0943036e-14
0.49545881
0
0.53270971
0
0.5749759
6.0293754e-18
0.010258343
-1.1471881e-14
0.021113608
1.103361e-14
0.032102007
-1.0614156e-14
0.044518747
0
0.058196587
0
0.071855473
-1.8923716e-14
0.086747776
0
0.10361543
0
0.12076771
0
0.13876485
0
0.15832722
-5.8091273e-18
0.1787506
0
0.19950995
1.449896e-14
0.22096408
0
0.24405052
0
0.26913992
-2.5851227e-14
0.29538484
0
0.32214764
0
0.34951655
0
0.37746916
0
0.40617493
-2.1302878e-14
0.4361103
2.0491915e-14
0.46752867
0
0.50083138
0
0.53798764
0
0.58022719
-1.19356e-14
0.009471392
0
0.019626082
0
0.030033459
-5.0149432e-18
0.041745133
1.0217199e-14
0.054603775
0
0.067352666
0
0.081245391
-1.8217258e-14
0.097148703
1.753679e-14
0.1132624
-1.6876912e-14
0.13015625
0
0.14865934
-3.1294317e-14
0.1680007
1.5067292e-14
0.18758354
-1.4505564e-14
0.20768097
0
0.22905904
0
0.25238367
0
0.27729616
0
0.30292539
0
0.32919419
0
0.35624062
-2.2169216e-14
0.383853
-2.1320997e-14
0.41212675
-2.0511938e-14
0.44161114
-1.9730796e-14
0.47256542
0
0.50557626
0
0.54266907
3.5151053e-14
0.58485621
0
0.0087502749
-1.1478047e-14
0.018246102
0
0.028101526
0
0.039144546
0
0.051222595
9.8319281e-15
0.06312516
0
0.076080768
0
0.091054187
1.7531555e-14
0.10618389
0
0.12202771
0
0.13952305
-5.9887416e-18
0.15784386
0
0.17632574
1.4507199e-14
0.1952341
1.3966784e-14
0.2151849
0
0.23681703
0
0.2601845
0
0.28460068
2.397039e-14
0.30966096
0
0.33558969
-2.2188146e-14
0.36236331
0
0.38961892
-2.0530473e-14
0.41747854
1.9747834e-14
0.44646911
0
0.47700888
3.6549361e-14
0.50977165
0
0.54681775
0
0.58894319
0
0.0080917303
0
0.016967423
-5.1316166e-18
0.026295984
5.1129984e-18
0.036704191
-4.9297335e-18
0.048040887
9.8282095e-15
0.059158601
9.4635573e-15
0.071238192
-1.8220104e-14
0.085313986
0
0.099511582
-1.6888002e-14
0.11435992
0
0.13089689
0
0.14825194
1.5071481e-14
0.16568495
0
0.18349966
1.3973214e-14
0.20224731
0
0.22239717
-1.2949886e-14
0.24414533
0
0.26722532
0
0.29114141
-2.30909e-14
0.3157745
0
0.34141874
0
0.36790895
-2.0557033e-14
0.39482125
0
0.42224945
3.8031046e-14
0.45079454
1.8291321e-14
0.48090917
0
0.51345958
0
0.550462
0
0.59250316
0
0.0074865507
0
0.015784867
-1.103455e-14
0.024607911
-5.1589193e-18
0.034413888
4.9407289e-18
0.045046213
-9.8285543e-15
0.055436682
0
0.066702257
9.1148124e-15
0.079910881
0
0.093226579
0
0.1071356
-1.6263519e-14
0.12275609
1.5660658e-14
0.13919714
1.5080411e-14
0.15563194
1.4517324e-14
0.17240383
0
0.19007159
-3.8027453e-18
0.20896864
1.2957917e-14
0.22923136
1.2476954e-14
0.25082531
0
0.27355714
0
0.29703563
0
0.3213192
0
0.34672241
0
0.37294233
1.9792656e-14
0.39949761
-1.9037105e-14
0.42652069
-2.2741535e-18
0.45459715
0
0.48434518
0
0.51671065
-3.2610157e-14
0.55367355
0
0.59561154
3.3831525e-05
0.0081240887
0
0.014685484
0
0.023029345
0
0.032261881
-4.9477213e-18
0.042228737
-9.828858e-15
0.05194355
0
0.062454197
9.1068817e-15
0.074827455
8.7714757e-15
0.087310599
0
0.10033654
0
0.11507764
-1.5663299e-14
0.13065164
0
0.14613639
0
0.16190938
-1.398818e-14
0.17856754
0
0.19636961
-3.6158256e-18
0.21535624
-1.2485423e-14
0.23546743
0
0.25685294
0
0.27929828
0
0.30237858
-4.1258139e-18
0.32637452
0
0.35155291
1.9816587e-14
0.37749286
0
0.40371467
0
0.43033542
0
0.45798181
1.6960629e-14
0.48734659
0
0.51956143
0
0.55648322
0
0.59827351
5.6299101e-05
0.0080182662
9.7136862e-05
0.015894948
0
0.021545742
0
0.030238197
0
0.039576469
-4.0648662e-18
0.048662792
9.4646257e-15
0.058476052
-4.198853e-18
0.070049296
-8.771994e-15
0.081745852
3.2069202e-18
0.093945021
0
0.10783854
0
0.12258607
-1.5086692e-14
0.13717186
0
0.15198772
3.9964445e-18
0.16768451
0
0.18448309
0
0.2023745
-3.3004443e-18
0.22118144
1.202418e-14
0.24115113
0
0.2624384
0
0.28452938
0
0.30723264
2.0625322e-14
0.33099337
1.9840888e-14
0.35596083
0
0.38161917
1.8354822e-14
0.40750827
2.1895303e-18
0.43374394
-1.6980907e-14
0.46093234
-3.266651e-14
0.48998081
0
0.52207523
0
0.55894191
0
0.60053542
6.8974259e-05
0.0079162628
0.00016224895
0.015816697
0.00015425471
0.023268385
-1.0620746e-14
0.028330067
0
0.037079022
0
0.045583185
-3.8473542e-18
0.054751109
4.1854048e-18
0.065562009
0
0.076516353
0
0.087941118
8.1344109e-15
0.10101791
-1.5661012e-14
0.1149732
0
0.12870645
0
0.14261192
0
0.15739198
-1.3476186e-14
0.17324512
1.2977846e-14
0.19015598
1.2500289e-14
0.20785598
2.4064783e-14
0.22649051
1.1583358e-14
0.2464633
1.1151933e-14
0.2675626
0
0.28925892
0
0.31166747
1.9865169e-14
0.33524678
0
0.35997888
0
0.38534641
1.7675794e-14
0.41091546
0
0.43676484
1.6350544e-14
0.46354396
0
0.4922699
3.0264008e-14
0.52428289
0
0.56106325
0
0.60244193
7.334232e-05
0.007822781
0.0001994911
0.015737167
0.00025903004
0.02334687
0.00020568947
0.030406078
0
0.034720982
0
0.042693781
0
0.051263437
-9.1121459e-15
0.061353052
3.5743904e-18
0.071605573
-3.2012508e-18
0.082304428
0
0.094593532
-1.566587e-14
0.10778599
0
0.12071252
0
0.13375386
1.3996516e-14
0.14766165
0
0.16261395
1.2986923e-14
0.17861675
0
0.19533743
0
0.21280588
-2.8041239e-18
0.23145568
0
0.25138868
1.0742779e-14
0.27217613
0
0.29354687
0
0.3157663
-1.9136291e-14
0.33915529
0
0.36364038
0
0.38871104
0
0.41396445
1.7480039e-18
0.43945334
-1.5748284e-14
0.46581261
3.0292561e-14
0.49428704
-2.9147224e-14
0.52622911
0
0.56290844
0
0.6040297
7.0835247e-05
0.0077383856
0.00021283983
0.015663967
0.00032008558
0.023411604
0.00034655862
0.030630885
0.00025085599
0.036972453
0
0.039970882
0
0.047997382
0
0.057404641
8.7696018e-15
0.066997424
0
0.077016185
8.1355692e-15
0.088547598
0
0.10100175
2.6019129e-18
0.11316268
0
0.12538731
0
0.13846841
-1.3488371e-14
0.15256013
0
0.16770473
-1.2509062e-14
0.18352777
-1.2049679e-14
0.19998121
0
0.21742103
1.1168009e-14
0.23607248
-1.0752848e-14
0.25583819
0
0.27636423
0
0.29751296
0
0.31955931
1.842788e-14
0.34274775
0
0.36695981
0
0.39173714
0
0.41669647
1.5766643e-14
0.44184202
-1.5164361e-14
0.46782367
-1.4587305e-14
0.49603913
0
0.5279403
0
0.56447982
-2.6005661e-14
0.60534333
6.2781482e-05
0.0076631975
0.0002062046
0.015597521
0.0003430992
0.023468862
0.00042949878
0.030828433
0.00042284764
0.037322984
0.00028649446
0.042261907
0
0.044930012
0
0.053700894
0
0.062675419
-3.2030261e-18
0.072058295
8.136014e-15
0.082863512
-7.8325e-15
0.094601933
7.5448142e-15
0.10603357
2.0825166e-18
0.11748932
0
0.12978941
0
0.14305676
-1.2995976e-14
0.15738601
0
0.17236404
-1.2052786e-14
0.18789151
0
0.2042751
1.1178899e-14
0.22170092
-1.0764589e-14
0.24026963
0
0.25988956
0
0.28021161
0
0.30118259
0
0.32307147
-2.7391555e-18
0.34603539
0
0.36997454
0
0.394454
-1.578803e-14
0.41914036
0
0.44396303
-1.0738987e-18
0.46955915
0
0.49758675
2.7032639e-14
0.52944359
0
0.56584195
2.5046291e-14
0.60639784
5.0493878e-05
0.0075985043
0.00018329027
0.015537825
0.00033381864
0.023518298
0.00046164687
0.031004582
0.00052431907
0.037631398
0.00048291778
0.042775627
0.00031397857
0.047170469
-9.1084054e-15
0.050217885
0
0.058623874
0
0.067412929
-3.4607054e-18
0.077527624
3.3869456e-18
0.088569286
0
0.099303321
0
0.11003619
1.9898946e-18
0.12160233
1.3490911e-14
0.13408211
0
0.14763237
0
0.16180704
0
0.17646538
2.7807213e-18
0.19190805
0
0.20824836
-1.0768585e-14
0.2255687
-1.0368918e-14
0.24408821
0
0.26363568
9.6037582e-15
0.28378688
0
0.30460642
0
0.3263247
-1.7096858e-14
0.34905261
0
0.37269097
0
0.39688693
1.5202785e-14
0.42131691
-1.462087e-14
0.44583334
-9.4572701e-19
0.47109506
1.3529556e-14
0.49893401
0
0.53077501
0
0.56697058
0
0.60722868
3.5165501e-05
0.0075455168
0.00014778582
0.015486422
0.00029785871
0.023559817
0.00045023615
0.031158755
0.00056382728
0.037906903
0.00059882724
0.043230591
0.00052936241
0.047851646
0.00033890653
0.052301366
0
0.054809705
0
0.063061438
0
0.072520794
-3.3991895e-18
0.082890711
-7.5460755e-15
0.092952024
0
0.10300614
1.4009019e-14
0.1138844
-6.7467626e-15
0.12561358
1.3003035e-14
0.13842124
1.2522772e-14
0.15182953
-1.2066219e-14
0.16565838
0
0.18023254
0
0.19562194
-1.0778859e-14
0.2118031
0
0.22910278
-2.051292e-18
0.24769196
-1.8745859e-18
0.26712026
0
0.28710605
0
0.30779824
0
0.32933592
-1.6466321e-14
0.35179726
0
0.37514189
0
0.39905148
0
0.42324916
0
0.44748705
-8.3731348e-19
0.47243255
0
0.500146
0
0.53192897
0
0.56791271
-5.8625574e-19
0.60784384
1.7964981e-05
0.00750449
0.00010314182
0.015444681
0.00024093375
0.02359359
0.00040263724
0.031290715
0.00055013477
0.038149037
0.00064400697
0.043638239
0.00065650057
0.048457476
0.00057102207
0.053106935
0.00036031585
0.056697345
0
0.058970054
0
0.067823844
0
0.077549182
7.5465797e-15
0.086964945
2.016359e-18
0.096378752
7.0064387e-15
0.10661371
0
0.11763112
2.0065277e-18
0.12973098
0
0.14240753
0
0.15544151
0
0.16919693
1.1199572e-14
0.18372812
0
0.1989174
1.0384245e-14
0.21501725
0
0.23244903
0
0.25104935
-9.2627947e-15
0.27033432
0
0.29020478
1.7143572e-14
0.31077174
0
0.33209728
-2.0980599e-18
0.35428951
0
0.37732586
0
0.40097187
-1.4101104e-14
0.42495853
0
0.4489562
-7.479395e-19
0.47363877
0
0.50120653
0
0.53292881
2.3248103e-14
0.56865046
2.2382405e-14
0.60827334
0.0074749169
0
5.2780302e-05
0.015412713
0.00016860369
0.023619764
0.00032628329
0.031400404
0.00049220665
0.038357173
0.00062846473
0.043997515
0.00070612886
0.048995371
0.0007077139
0.05381459
0.0006066447
0.057684079
0.00037637157
0.06062559
0
0.06340662
0
0.072527381
0
0.081329706
-1.9989003e-18
0.090138207
7.0072581e-15
0.099770517
-6.7508231e-15
0.1101137
2.0369424e-18
0.12153927
6.266578e-15
0.13351952
0
0.14578922
0
0.15876493
0
0.17250075
-1.0790412e-14
0.18680408
1.0393892e-14
0.2018274
-1.9333414e-18
0.21805515
0
0.23562661
-9.2734596e-15
0.25414381
-1.5929026e-18
0.27331214
-8.5837808e-15
0.29310438
-1.6515891e-14
0.31351744
0
0.33461776
-1.5273741e-14
0.35653344
0
0.37927765
0
0.4026595
0
0.42647185
1.3060783e-14
0.45026296
1.2562685e-14
0.47469932
0
0.50216106
0
0.53376861
0
0.56923197
0
0.60852044
0.015389743
0
0.0074573418
-1.7880646e-05
8.6451881e-05
0.023638329
0.00022869103
0.031488142
0.00039903787
0.038530956
0.0005623578
0.0443065
0.00068916271
0.049463663
0.00076068694
0.054434775
0.00075130063
0.058545348
0.00063366553
0.061825406
0.00039026742
0.064762988
0
0.067789214
0
0.076034986
7.2718748e-15
0.084270984
7.0059481e-15
0.093335045
0
0.10304282
0
0.1138242
-6.2679807e-15
0.12514115
-6.0373764e-15
0.13667883
0
0.14890922
0
0.16189544
1.0796314e-14
0.17538809
-1.0398858e-14
0.18946444
-1.0014286e-14
0.20455578
9.6420275e-15
0.22097884
0
0.23857049
8.9329891e-15
0.25698581
8.5954035e-15
0.27610131
-8.268737e-15
0.29580094
0
0.31603909
0
0.33690981
-1.4710043e-14
0.35855667
0
0.38099632
0
0.4041428
0
0.42780134
0
0.45142407
1.2099585e-14
0.47566357
0
0.50298703
0
0.5344809
0
0.56963206
-2.0769101e-14
0.60860809
0.023648957
0
0.015377301
-5.2641701e-05
0.0074528308
-3.4846824e-05
0.00011740101
0.03155376
0.00027980851
0.038670328
0.00045600197
0.044563922
0.0006166728
0.049860846
0.00074186216
0.054966588
0.00080695577
0.059297624
0.00078476187
0.062876937
0.00065705018
0.066161118
0.00040311843
0.068788489
0
0.071031204
0
0.078764297
-7.0065622e-15
0.087288252
1.3500984e-14
0.096395568
2.0994878e-18
0.10656538
0
0.11724992
0
0.12808817
1.4163749e-18
0.13960435
0
0.15188082
0
0.16461324
0
0.17783042
0
0.19191142
1.7941483e-18
0.20719828
-1.7723177e-18
0.22373408
8.9449576e-15
0.2412753
-1.5160096e-18
0.25964258
0
0.27871783
7.9663623e-15
0.29830138
0
0.31834625
0
0.33898806
1.4165494e-14
0.36036279
0
0.38251639
1.3097869e-14
0.40542692
1.2594975e-14
0.42896855
1.2114802e-14
0.45245616
2.3308215e-14
0.47651698
0
0.5037304
0
0.53504095
0
0.56988572
-2.0007335e-14
0.60854008
0.03159674
0
0.023653974
-8.6418818e-05
0.015376758
-0.00010262354
0.0074617287
-4.9830784e-05
0.00014370087
0.03877509
0.00031980122
0.044768782
0.00050003916
0.050184807
0.00066341955
0.055408934
0.00078643951
0.05993849
0.00084278048
0.063792317
0.00081364353
0.067384214
0.00067838054
0.070366664
0.00041095516
0.071624508
0
0.073573774
0
0.081611227
0
0.090154112
-6.5071519e-15
0.09973817
0
0.1098224
0
0.11999489
-5.8214491e-15
0.1308288
5.6092113e-15
0.14242907
0
0.1544422
0
0.16686196
-1.7275946e-18
0.18004674
0
0.19428833
0
0.20972271
0
0.22630106
1.7235833e-14
0.24382484
0
0.26216222
7.9783097e-15
0.28117483
1.1722554e-18
0.30060187
0
0.32044375
0
0.34085888
-1.3824085e-18
0.36197351
0
0.38383354
0
0.4065374
0
0.42998136
0
0.45337803
0
0.47729501
-1.0801484e-14
0.50435273
0
0.53547124
0
0.56998167
1.3293281e-19
0.60834109
0.038844058
0
0.03162172
-0.00011752838
0.02365412
-0.00016849307
0.015387877
-0.00014671987
0.0074834733
-6.170618e-05
0.00016427511
0.044920451
0.00035066182
0.050434588
0.00053757933
0.05576082
0.0007027732
0.060465583
0.00082121684
0.064567404
0.00087371806
0.068444108
0.00083959053
0.071738279
0.00069106921
0.073376867
0.00041259885
0.073769798
-7.0092682e-15
0.076256278
0
0.084300397
0
0.093322842
-1.9772724e-18
0.10283552
-6.0413149e-15
0.11237639
-5.8228255e-15
0.12255944
-5.6095241e-15
0.13351685
-5.4052305e-15
0.14484722
0
0.15651243
0
0.16887982
0
0.18219642
0
0.19657728
8.9637137e-15
0.21212255
0
0.22875183
0
0.24624896
7.9885017e-15
0.26454305
7.6843633e-15
0.28345498
0
0.30270622
0
0.32233738
0
0.34253568
1.3138943e-14
0.36339671
0
0.38498035
-1.2147844e-14
0.4074761
1.1682901e-14
0.43086348
1.1238305e-14
0.45419125
1.0811838e-14
0.47797007
0
0.50488622
0
0.53575694
1.9282402e-14
0.56996161
0
0.60801388
0.045017317
0
0.038885632
-0.00014397244
0.03162914
-0.00022919766
0.023648
-0.00024073742
0.015409781
-0.00018156741
0.0075189672
-6.9383355e-05
0.00018010864
0.050609475
0.00037675721
0.056021343
0.00056908029
0.06087761
0.0007336793
0.065199384
0.00085117907
0.069337014
0.00090109485
0.072922256
0.00085479448
0.074888873
0.00069369465
0.07572483
0.00041230318
0.076067503
-6.7518345e-15
0.078786115
0
0.087297475
0
0.096265829
0
0.10521074
1.419695e-18
0.11477496
0
0.1251204
0
0.13580247
-5.2101187e-15
0.14675129
-1.0041144e-14
0.15835697
0
0.17084554
-9.3168256e-15
0.18427716
0
0.19877191
0
0.21444195
0
0.23111025
-7.9995414e-15
0.24855619
-1.2925159e-18
0.26678153
7.4022536e-15
0.28556594
0
0.30461397
0
0.32403989
0
0.3440373
0
0.36465541
0
0.38595468
0
0.40827211
0
0.43161394
4.5351067e-19
0.45490255
-3.7419732e-19
0.47856984
-1.0022554e-14
0.5052843
0
0.53593298
-1.8576159e-14
0.56980666
-1.7888963e-14
0.60757552
0.050707953
0
0.045070609
-0.00016464691
0.038900063
-0.00028087358
0.031614715
-0.00032739194
0.023635225
-0.00029756516
0.015443705
-0.00020390529
0.0075690089
-7.1636193e-05
0.0001933888
0.056189945
0.00039856106
0.061173596
0.00059392027
0.065686523
0.00076024103
0.070061333
0.00087740176
0.073917492
0.00091695663
0.076194751
0.00085795746
0.077423272
0.00069344359
0.078265156
0.00041156913
0.078207837
6.5087367e-15
0.081617791
0
0.090088423
0
0.098476407
-1.4138059e-18
0.10745006
1.4575822e-18
0.11721551
-5.4086832e-15
0.12728389
0
0.13755166
8.0734772e-19
0.14843899
9.6769661e-15
0.16016948
0
0.17275488
0
0.18627091
0
0.20092784
8.3241671e-15
0.21672862
0
0.23336829
-7.707222e-15
0.25074061
7.4139623e-15
0.26888054
7.1302733e-15
0.2875024
6.857147e-15
0.30634025
1.3184064e-14
0.32556886
0
0.34537592
-9.7508265e-19
0.36575697
0
0.38678728
0
0.40892278
0
0.43225064
0
0.45551304
-3.1597588e-19
0.47905425
0
0.50558783
1.8587369e-14
0.53597504
0
0.56954296
0
0.60703112
0.056265127
0
0.050744402
-0.00018044663
0.045078915
-0.00032124343
0.038879349
-0.00040133545
0.031577953
-0.00040447627
0.023615229
-0.00033348425
0.015490869
-0.00021017867
0.0076333028
-6.7238355e-05
0.00020444748
0.061352701
0.0004157962
0.066027277
0.00061524077
0.07061511
0.00078338482
0.074723089
0.00089249327
0.077294245
0.0009201684
0.078894436
0.00085788696
0.080184477
0.00069269777
0.080660183
0.00041083847
0.080630701
6.2730139e-15
0.08425089
0
0.092152402
5.8259798e-15
0.1005658
5.6134233e-15
0.10977426
1.2193558e-18
0.11926431
5.2138324e-15
0.12888868
-5.0249915e-15
0.1390971
0
0.15012055
0
0.16193879
0
0.17458011
8.6531837e-15
0.18823807
0
0.20307733
-8.0199019e-15
0.2189341
-7.7193378e-15
0.23550834
7.4253092e-15
0.25280448
-1.1470877e-18
0.27083917
-6.8690385e-15
0.28927348
0
0.30789119
1.2698925e-14
0.3269327
0
0.34656448
-1.1737547e-14
0.36671806
0
0.38747273
0
0.40945134
-1.0438979e-14
0.43276746
0
0.45602806
9.6634804e-15
0.47944458
0
0.50575883
0
0.53590845
1.7241839e-14
0.56916722
0
0.60640381
0.06141311
0
0.056268202
-0.00019353196
0.050716545
-0.00035195416
0.045029732
-0.00045908205
0.03882388
-0.00049599379
0.031518752
-0.00045283073
0.023588485
-0.00034280243
0.015550642
-0.00019684422
0.007710853
-5.4794958e-05
0.00021318737
0.066220506
0.00043057711
0.070997655
0.00063372315
0.075338182
0.00079650689
0.078186373
0.00089551941
0.08013577
0.00092038821
0.081851592
0.00085737799
0.082814239
0.0006917178
0.08333589
0.00040971743
0.082829026
-6.0456669e-15
0.086183669
0
0.094103252
5.6159116e-15
0.10277585
-1.2408568e-18
0.11171857
8.6252338e-19
0.12073676
0
0.13030364
0
0.14066368
0
0.15177189
-8.9928607e-15
0.16362188
0
0.17636564
0
0.19020706
0
0.20518517
0
0.22103664
0
0.23754044
7.1546392e-15
0.25476084
-1.0705855e-18
0.27265328
0
0.29087625
-6.3601243e-15
0.30927912
-1.2228936e-14
0.32814434
0
0.34761269
-7.5560202e-19
0.36754757
1.08689e-14
0.38803743
0
0.40985251
-2.3601559e-19
0.4331886
0
0.45643657
-9.3091926e-15
0.47971317
8.9601329e-15
0.50583483
-1.7251825e-14
0.5357249
0
0.5687185
5.993462e-19
0.60569378
0.066266043
0
0.061382654
-0.00020435255
0.056199408
-0.00037730172
0.050607469
-0.00050275537
0.044924798
-0.00056740803
0.038734343
-0.00055546094
0.031436991
-0.00046486898
0.023555473
-0.00031992726
0.015621318
-0.00015999937
0.0078018371
-3.2909187e-05
0.00022068382
0.071207955
0.00044338244
0.075762605
0.00064417082
0.078871156
0.00079918005
0.081145868
0.00089599023
0.083262057
0.00092032638
0.084690397
0.00085666003
0.085722137
0.00069005906
0.085763496
0.00040594898
0.084326431
0
0.088010582
0
0.096198144
0
0.10462192
-8.4887438e-19
0.11307109
-5.0276549e-15
0.12203408
4.8451428e-15
0.13176846
4.6688723e-15
0.14221098
-4.4984836e-15
0.1533327
0
0.16525628
-8.3490019e-15
0.17814833
0
0.19216062
0
0.20723337
0
0.22306365
0
0.23949213
-1.3783521e-14
0.25660141
6.6268384e-15
0.27432118
0
0.29232362
6.4066527e-19
0.31051342
-1.1778421e-14
0.32921535
0
0.34853987
0
0.36826075
-1.046852e-14
0.38847968
-1.0068045e-14
0.4101556
0
0.43350304
0
0.45674412
8.9678039e-15
0.47988929
0
0.50578567
-1.6621228e-14
0.53546785
0
0.56817479
0
0.60491487
0.071245078
0
0.066196734
-0.00021285456
0.061262894
-0.00039820239
0.056037714
-0.00053871616
0.050417973
-0.00062105801
0.044762896
-0.00063549452
0.03861058
-0.00057040366
0.031333617
-0.0004330565
0.023515026
-0.00025899813
0.015703518
-9.5801839e-05
0.0079046418
0
0.00022718427
0.075994803
0.00045061095
0.079348735
0.00064632842
0.081924005
0.00079977585
0.084413634
0.00089629673
0.086284343
0.00091988219
0.087802326
0.00085476452
0.088349883
0.00068378405
0.087467194
0.00040016782
0.085726204
0
0.089989031
0
0.097950739
5.217849e-15
0.10586929
5.0290649e-15
0.1142599
-4.846852e-15
0.12340653
0
0.13322376
-4.5017402e-15
0.14366276
0
0.15483799
0
0.16687331
0
0.17992452
0
0.19410694
0
0.20924433
-7.1749567e-15
0.22501329
-6.9035204e-15
0.24134278
0
0.25831868
6.3829728e-15
0.27584376
6.1366264e-15
0.29362341
5.8999162e-15
0.31160915
0
0.33016391
0
0.34935199
0
0.36886574
0
0.38882387
0
0.41035242
-9.3290944e-15
0.43373075
1.2489568e-19
0.45694845
-8.6395011e-15
0.47995165
-8.316466e-15
0.50566728
0
0.53510868
0
0.56756255
0
0.60403466
0.076031502
0
0.071146329
-0.00022014489
0.066014868
-0.00041452093
0.061029424
-0.00056835358
0.055783628
-0.00066522542
0.050146426
-0.00069512415
0.04454317
-0.00065259456
0.038452945
-0.00053151974
0.031205281
-0.00034982867
0.023464844
-0.00015431614
0.015792474
0
0.0072926998
0
0.00023087214
0.079619916
0.00045212044
0.082470844
0.00064690718
0.085303076
0.00080034913
0.0875925
0.00089622264
0.089570755
0.0009180665
0.090609029
0.00084707421
0.090238488
0.00067413558
0.089087511
0.00039428799
0.08727203
0
0.091645195
0
0.099110879
0
0.10696246
-4.849167e-15
0.11555071
-4.6727759e-15
0.12477815
-4.5039604e-15
0.13457622
-8.6790929e-15
0.14505752
4.1803635e-15
0.15631902
0
0.16848278
7.7546795e-15
0.18172033
-7.4669585e-15
0.19605219
1.5001038e-18
0.21119911
6.9142768e-15
0.22687586
0
0.24309125
0
0.25990927
6.1478377e-15
0.27723346
-5.9108499e-15
0.29478859
0
0.31257832
0
0.33099592
0
0.35006152
-4.8952628e-19
0.36937111
-9.7108745e-15
0.38906409
5.1528858e-20
0.41046558
8.9864617e-15
0.43385569
0
0.4570636
-8.3555731e-21
0.47993012
-1.0092662e-19
0.50543643
1.5430105e-14
0.53467789
0
0.56683098
0.0055027848
0.59752509
0.079684402
0
0.0759158
-0.00022652322
0.070913015
-0.00042849348
0.065691609
-0.00059126398
0.06068436
-0.00070161983
0.055438694
-0.0007442898
0.049791139
-0.00071321421
0.044263331
-0.0006080413
0.038259633
-0.00042945826
0.031050257
-0.00020784809
0.023398567
0
0.014610693
0
0.0079030158
0
0.00023168024
0.082788936
0.00045258046
0.085928463
0.00064758394
0.088611847
0.00080053326
0.091022947
0.00089461006
0.092533273
0.00090996331
0.092665534
0.00083526819
0.092059657
0.00066448164
0.090853093
0.00038802906
0.088492928
0
0.092731423
0
0.10012175
0
0.1081773
-8.2688698e-19
0.1168477
-4.505176e-15
0.12604109
0
0.13587309
8.3670505e-15
0.14642492
0
0.1577854
0
0.17011506
0
0.18355147
0
0.19798887
0
0.21308122
-6.6601192e-15
0.22864786
6.4053773e-15
0.24473416
0
0.26138238
0
0.27849227
-5.6925504e-15
0.29582802
0
0.31343089
0
0.33172302
0
0.35067207
0
0.36978705
0
0.3892197
0
0.41048403
0
0.43390746
0
0.45707431
0
0.47979816
-1.3078447e-19
0.50514448
-1.4862071e-14
0.53411032
0.010717031
0.56077194
0.0050030534
0.59140173
0.082882276
0
0.079591102
-0.00023025275
0.075648471
-0.00044081104
0.070510887
-0.00061083554
0.065230523
-0.00072943747
0.060230908
-0.00078495138
0.055004777
-0.00076352519
0.049353596
-0.0006638476
0.04392893
-0.00049133055
0.038029397
-0.00025524865
0.030862961
0
0.021678316
1.1042286e-14
0.015738075
1.1480953e-14
0.0085791694
-1.193249e-14
0.00023192266
0.086289986
0.0004531553
0.089338367
0.00064792049
0.092155276
0.00079920465
0.094115194
0.00088685554
0.094738473
0.00089743129
0.09466236
0.0008235469
0.094023556
0.0006539018
0.09226581
0.00037975199
0.089165135
0
0.09367306
0
0.1012629
0
0.10940391
-7.450669e-19
0.11802683
7.151763e-19
0.12725021
-4.1863827e-15
0.13714334
-6.9076397e-19
0.14777064
-7.7691278e-15
0.15927166
0
0.17179553
0
0.18539897
6.932637e-15
0.19986819
0
0.21487187
1.2013796e-18
0.23032035
-6.1710349e-15
0.24627156
5.9320804e-15
0.26273383
-5.7032868e-15
0.27963195
-5.4821853e-15
0.29675162
5.2697396e-15
0.31417604
0
0.33235144
0
0.35120323
9.3670414e-15
0.37011847
0
0.38929148
0
0.41043936
8.3394867e-15
0.43386069
0
0.45699988
1.0599073e-19
0.47959343
0
0.50471677
0.015700845
0.52846175
0.0097449003
0.55506451
0.004470505
0.58572027
0.086389122
0
0.082806568
-0.00023119875
0.079340994
-0.00044819938
0.075188825
-0.00062824214
0.069943072
-0.0007531051
0.064633491
-0.00081550536
0.059671977
-0.00080527664
0.054484925
-0.00071065906
0.048836711