/*--------------------------------*- C++ -*----------------------------------*\
| =========                 |                                                 |
| \\      /  F ield         | OpenFOAM: The Open Source CFD Toolbox           |
|  \\    /   O peration     | Version:  v2012                                 |
|   \\  /    A nd           | Website:  www.openfoam.com                      |
|    \\/     M anipulation  |                                                 |
\*---------------------------------------------------------------------------*/
FoamFile
{
    version     2.0;
    format      ascii;
    class       surfaceScalarField;
    location    "92.6076404136068163";
    object      phi;
}
// * * * * * * * * * * * * * * * * * * * * * * * * * * * * * * * * * * * * * //

dimensions      [0 3 -1 0 0 0 0];
oriented        oriented;


internalField   nonuniform List<scalar> 
18180
(
0.0022614818
-3.4476115
0.0049011693
-3.2222892
0.0044447532
-3.5005945
0.0082035566
-3.0120514
0.0090901565
-3.272706
0.0049204544
-3.5499942
0.012356202
-2.8149428
0.013964694
-3.0602043
0.009945791
-3.3191859
0.0054003402
-3.5954654
0.01742152
-2.6307422
0.01931113
-2.8609601
0.015088832
-3.1040215
0.01080884
-3.3617712
0.0055498139
-3.6381429
0.023405394
-2.4582789
0.02510737
-2.674403
0.020553187
-2.9019813
0.016235893
-3.1431839
0.011056872
-3.4013469
0.0055260985
-3.679005
0.030234489
-2.2971403
0.031370138
-2.4996928
0.026313175
-2.7127812
0.021847505
-2.9385607
0.016534756
-3.1802877
0.010985147
-3.4399394
0.0053591301
-3.7176078
0.037825752
-2.1466729
0.038034757
-2.3365418
0.032359743
-2.5359915
0.027609264
-2.7474136
0.022132571
-2.9736798
0.016399774
-3.2169275
0.010644309
-3.4769264
0.0050886309
-3.7539701
0.04607482
-2.0062743
0.045049411
-2.184267
0.038618318
-2.3709912
0.033493407
-2.5688095
0.027814763
-2.7806998
0.021918531
-3.0089577
0.015895942
-3.2527789
0.010109189
-3.5117174
0.0047375385
-3.78725
0.054893379
-1.8752964
0.05236205
-2.0421896
0.04500642
-2.2170075
0.039404247
-2.4022446
0.033548774
-2.6005846
0.027516026
-2.8147037
0.021271638
-3.0438374
0.01511926
-3.2863796
0.009422246
-3.5435874
0.0043254709
-3.8178912
0.064213312
-1.7531329
0.059943559
-1.9096453
0.051433022
-2.073279
0.04522783
-2.2468077
0.03923046
-2.4324244
0.033175129
-2.6328936
0.026767495
-2.8483199
0.020288377
-3.0764298
0.014121043
-3.3170253
0.0086178748
-3.5726495
0.003872135
-3.8454859
0.073990391
-1.6391882
0.067798443
-1.7860387
0.057815784
-1.9390846
0.050828519
-2.1015802
0.044730126
-2.2753765
0.03880652
-2.4628554
0.032397996
-2.6650485
0.025640391
-2.879847
0.019009493
-3.1059916
0.012942702
-3.3448384
0.007728696
-3.5989683
0.0033991383
-3.8706497
0.084207276
-1.5328779
0.075953754
-1.6707874
0.064088024
-1.8138278
0.056065443
-1.9658116
0.049885884
-2.1285814
0.044295245
-2.3039285
0.038110607
-2.4932689
0.031227998
-2.6954163
0.024139545
-2.9083911
0.017469033
-3.1327399
0.011624943
-3.3699975
0.0067902993
-3.6227751
0.0029272015
-3.8932007
0.094877042
-1.4336935
0.084499988
-1.5633598
0.07019954
-1.6969413
0.060785213
-1.838856
0.054514154
-1.9911539
0.049487698
-2.1552769
0.043836378
-2.3324994
0.037048727
-2.5222871
0.02959944
-2.7230304
0.022272103
-2.9341623
0.015709809
-3.1568806
0.010215192
-3.392714
0.0058391099
-3.6441783
0.0024723565
-3.9136579
0.10603167
-1.3411006
0.093538504
-1.4632548
0.076159821
-1.5879701
0.064846492
-1.7201648
0.058411052
-1.8624134
0.054196918
-2.0160379
0.049470466
-2.1820788
0.043095862
-2.3600887
0.035437163
-2.5490532
0.027464025
-2.7482084
0.020071878
-2.9575605
0.013793187
-3.1787239
0.0087662954
-3.4130865
0.004907692
-3.6633842
0.0020437556
-3.9318796
0.11771548
-1.254622
0.10322844
-1.369994
0.081936275
-1.486382
0.068114278
-1.6092984
0.061394225
-1.7417979
0.058211267
-1.885402
0.054882473
-2.041141
0.049335818
-2.2082858
0.041709421
-2.3859443
0.033132711
-2.5737349
0.02483037
-2.771148
0.017612637
-2.9786534
0.011796119
-3.1982389
0.0073313858
-3.4313382
0.0040211658
-3.6805546
0.0016454801
-3.9483108
0.12998398
-1.1738397
0.11376484
-1.2831316
0.087577481
-1.3917827
0.070429883
-1.5057133
0.063229091
-1.6288176
0.061286179
-1.7627375
0.059921861
-1.9088506
0.055721115
-2.0661023
0.048459254
-2.2331922
0.039386584
-2.4100965
0.030094875
-2.5964942
0.021782318
-2.791861
0.015002168
-2.9975175
0.00980149
-3.215723
0.0059575995
-3.4475896
0.0031967211
-3.6958607
0.0012801281
-3.9629043
0.14290456
-1.098346
0.12532953
-1.2022314
0.093184769
-1.3037816
0.071686384
-1.4090764
0.063636273
-1.522883
0.063103658
-1.6474497
0.064399847
-1.7844764
0.062184264
-1.9327056
0.055727478
-2.0902813
0.046333862
-2.2569581
0.036002531
-2.4328768
0.026410702
-2.6172271
0.018467434
-2.8103513
0.012364777
-3.0143129
0.0078861907
-3.23122
0.0046816187
-3.4620317
0.0024445843
-3.709462
0.00094758207
-3.9760076
0.15653806
-1.0277648
0.13812771
-1.1269026
0.098831879
-1.2219214
0.071799632
-1.3190215
0.062331313
-1.4236576
0.063630411
-1.5392222
0.068157037
-1.6674076
0.068638495
-1.807291
0.063543391
-1.9563795
0.054094167
-2.1137851
0.042701969
-2.2796825
0.031635325
-2.4537526
0.022277763
-2.6356054
0.01506883
-2.8266367
0.0098207985
-3.0291661
0.0061115751
-3.2449543
0.0035272529
-3.4747717
0.0017690655
-3.7215125
0.00064444352
-3.9875766
0.17092832
-0.96176137
0.15236283
-1.0567618
0.10462501
-1.1458425
0.070681726
-1.2350811
0.059146306
-1.330888
0.06266975
-1.4375439
0.070936333
-1.5572036
0.075003308
-1.689202
0.071929668
-1.8305936
0.062789741
-1.9798082
0.050366552
-2.1364894
0.037612753
-2.3006153
0.026543694
-2.4721256
0.017961
-2.6515761
0.011770648
-2.8408945
0.0074687498
-3.0421904
0.0045179495
-3.2569925
0.0025051573
-3.4860344
0.0011718366
-3.7321856
0.00036631724
-3.9978767
0.18613107
-0.90001614
0.16821341
-0.99144188
0.11069001
-1.0751736
0.068250409
-1.156897
0.053962285
-1.24415
0.059790257
-1.3419221
0.0725244
-1.4533842
0.081108203
-1.5778788
0.080886563
-1.7122071
0.072543783
-1.8541915
0.059185941
-2.0027043
0.044532283
-2.1574476
0.031394759
-2.3189664
0.021103409
-2.4878916
0.013737195
-2.665282
0.0087272299
-2.8532257
0.0053746934
-3.0535735
0.0031239719
-3.2675933
0.0016147561
-3.4959375
0.00065244411
-3.7415992
0.00011770897
-4.0069227
0.20220126
-0.8422315
0.18583442
-0.93059703
0.11716307
-1.0095505
0.064441635
-1.0841118
0.046606238
-1.1630295
0.054737963
-1.2521136
0.072765901
-1.3555059
0.086811355
-1.4728584
0.090400807
-1.6006195
0.083467798
-1.7361432
0.069364237
-1.8775581
0.052610647
-2.0238502
0.036993576
-2.1756771
0.024570033
-2.3344151
0.015724154
-2.5010748
0.0098446901
-2.6769219
0.0060439126
-2.8639023
0.0035697014
-3.0635056
0.0019300167
-3.2768694
0.00084839797
-3.5046353
0.00020341413
-3.7499076
-9.0653339e-05
-4.0149375
0.21915662
-0.78815361
0.20533532
-0.87387928
0.12418236
-0.94861265
0.059200103
-1.016363
0.036935286
-1.087196
0.047339616
-1.1677896
0.071441272
-1.263262
0.09202154
-1.3737421
0.10043917
-1.4953376
0.095664799
-1.6250404
0.081111554
-1.7602985
0.062093709
-1.8992214
0.043534546
-2.0420201
0.028459186
-2.1907501
0.01773437
-2.3471233
0.010768497
-2.5120368
0.0064491665
-2.6868459
0.0037713573
-2.8731553
0.0020544496
-3.0722013
0.00092293131
-3.2849894
0.00019467728
-3.5122174
-0.00018256755
-3.757185
-0.0002589395
-4.0219394
0.23688322
-0.73741559
0.22665945
-0.82086295
0.1318799
-0.89199236
0.052483618
-0.95329797
0.024845407
-1.0163246
0.0374422
-1.0886408
0.068369284
-1.1763604
0.096605468
-1.2801682
0.11094794
-1.3959414
0.10921237
-1.5203528
0.09463438
-1.6502666
0.073250263
-1.7828794
0.051248999
-1.9176765
0.032893846
-2.0568016
0.019778587
-2.2029226
0.011431105
-2.3573836
0.0064938516
-2.5211294
0.0036320555
-2.6953182
0.0019118742
-2.8811994
0.00080778213
-3.079753
8.1198712e-05
-3.2920464
-0.00036193588
-3.5188283
-0.00052635114
-3.7635407
-0.00041422165
-4.0280778
0.25512109
-0.6895379
0.24937522
-0.77080156
0.14028572
-0.83915079
0.044280256
-0.89457463
0.010276014
-0.95010137
0.024930148
-1.014381
0.063400717
-1.0945233
0.10043066
-1.1918385
0.12185861
-1.3020533
0.12415316
-1.4216231
0.11012428
-1.5468994
0.086365093
-1.6741578
0.060404331
-1.8020392
0.038030102
-1.9323101
0.021876013
-2.068333
0.011754305
-2.2124627
0.0060553728
-2.3656087
0.003029625
-2.5286969
0.0013987404
-2.7026057
0.00043223246
-2.8881736
-0.00020559514
-3.0863452
-0.00062048672
-3.2981858
-0.00083045701
-3.5245695
-0.00081671724
-3.7690415
-0.00054511833
-4.0333804
0.27370847
-0.64429302
0.2730579
-0.72321908
0.14932133
-0.78922383
0.034646847
-0.83971811
-0.0067988318
-0.88821716
0.0097359918
-0.9447462
0.056423113
-1.0175018
0.10338157
-1.1084875
0.13307946
-1.2133526
0.1404956
-1.3284433
0.12774634
-1.4497006
0.10172823
-1.5724632
0.071303262
-1.6944385
0.04405992
-1.8168329
0.024061243
-1.9432466
0.011647655
-2.07707
0.0049851271
-2.2197971
0.0018103276
-2.3721958
0.00038680782
-2.5351058
-0.00030200621
-2.7089169
-0.00072173228
-2.8942774
-0.001022325
-3.0920749
-0.0012072168
-3.3035011
-0.0012327594
-3.5295261
-0.0010637456
-3.7738008
-0.00065405449
-4.0379776
0.29253387
-0.60159773
0.29762454
-0.6782274
0.15890397
-0.74172157
0.023843152
-0.78806326
-0.026366707
-0.83023527
-0.0081655902
-0.87947166
0.047362379
-0.94507538
0.10536449
-1.0298856
0.14450528
-1.1295603
0.15820659
-1.2404522
0.14762503
-1.3582165
0.11962329
-1.4772692
0.084277412
-1.5942702
0.051217138
-1.7097667
0.026388462
-1.827255
0.011011307
-1.9509434
0.0031048503
-2.083346
-0.00021319514
-2.2253141
-0.0012830832
-2.3775725
-0.0015120391
-2.5406199
-0.0015533314
-2.7144691
-0.0016119654
-2.8996396
-0.0016832918
-3.0970997
-0.0016988842
-3.3080717
-0.0015782261
-3.5337565
-0.001277355
-3.7778589
-0.00075086547
-4.0418558
0.31110206
-0.56066078
0.32285187
-0.63559977
0.16909442
-0.6968933
0.012249645
-0.73923915
-0.048270821
-0.77563661
-0.028679
-0.81824324
0.036195985
-0.87703337
0.10631075
-0.95583045
0.15602221
-1.0504377
0.17720828
-1.1573273
0.16983533
-1.2720293
0.14031132
-1.388089
0.099683499
-1.5010003
0.059775931
-1.6104796
0.028938568
-1.7198208
0.0097392583
-1.833741
0.00020611953
-1.9558455
-0.0032671671
-2.0875965
-0.0038035811
-2.2295292
-0.0033414506
-2.3821386
-0.002795878
-2.5455
-0.0024519966
-2.719395
-0.002299163
-2.9043755
-0.0022245037
-3.101432
-0.0021151258
-3.3119783
-0.001876275
-3.5373529
-0.0014633518
-3.7812951
-0.00083553011
-4.0451072
0.32943095
-0.52192567
0.34823477
-0.59426083
0.18043835
-0.65499358
0.00037461608
-0.69362093
-0.072059411
-0.7243469
-0.051559412
-0.7606922
0.023013238
-0.81317352
0.10618609
-0.88614192
0.16751296
-0.97577858
0.19738048
-1.078786
0.1943925
-1.1907536
0.16401858
-1.3044654
0.11788653
-1.4141331
0.070058293
-1.5184566
0.031824429
-1.6203787
0.0077206365
-1.7250144
-0.0039505425
-1.8369126
-0.0076188571
-1.9585346
-0.007403986
-2.0905369
-0.005959301
-2.2330249
-0.0045615164
-2.386202
-0.0036121959
-2.5498855
-0.0030913432
-2.7238052
-0.0028370667
-2.9085339
-0.0026741788
-3.1051984
-0.0024713223
-3.3152835
-0.0021344654
-3.5403698
-0.0016247855
-3.7841501
-0.00090859463
-4.0477586
0.34747097
-0.48549429
0.37330006
-0.5546841
0.19303808
-0.61450105
-0.010940257
-0.65179661
-0.097226924
-0.67679545
-0.076518438
-0.70678367
0.0080652496
-0.75328787
0.10500116
-0.82066128
0.17886139
-0.90540294
0.2185623
-1.0045844
0.22124729
-1.1140369
0.19092026
-1.2259556
0.1392534
-1.3332123
0.082423826
-1.4332175
0.035193234
-1.5283973
0.0048511141
-1.6242305
-0.0096376574
-1.7261615
-0.013579241
-1.8376322
-0.012352699
-1.9599177
-0.0095615929
-2.0928288
-0.0069779728
-2.2361531
-0.0051668838
-2.389951
-0.0041023352
-2.5539078
-0.0035522868
-2.7277663
-0.0032692855
-2.91221
-0.0030547222
-3.1084176
-0.0027789871
-3.318075
-0.0023583921
-3.5428872
-0.0017641795
-3.7865061
-0.0009711589
-4.0498958
0.36160957
-0.52745987
0.39761841
-0.51701157
0.20485349
-0.57374399
-0.021292776
-0.6118025
-0.12400086
-0.63283752
-0.10355296
-0.65665826
-0.0085120893
-0.69722384
0.10282398
-0.75923589
0.18994831
-0.83914792
0.24055115
-0.93450175
0.25027544
-1.0415546
0.22112563
-1.1521378
0.16413129
-1.2577727
0.097272493
-1.3543384
0.039238116
-1.4434261
0.0010358876
-1.5308801
-0.017154179
-1.6231015
-0.021510092
-1.7244667
-0.018961298
-1.8370512
-0.014371553
-1.9608489
-0.010185177
-2.0949645
-0.0071949353
-2.2391804
-0.0053691062
-2.3935147
-0.0043866968
-2.557624
-0.0038989981
-2.7313537
-0.0036287025
-2.9154508
-0.0033826022
-3.1111986
-0.003046349
-3.3203884
-0.0025522203
-3.54495
-0.0018836287
-3.7884033
-0.0010240268
-4.0515338
0.37781203
-0.52322064
0.41910542
-0.55681488
0.21478735
-0.53380569
-0.032386246
-0.56985937
-0.15210936
-0.59100859
-0.13285581
-0.60996873
-0.026815569
-0.64488728
0.099714523
-0.70170948
0.20066082
-0.77686679
0.26311768
-0.86834888
0.28127904
-0.97300735
0.25465749
-1.0825949
0.19282539
-1.1873522
0.11502352
-1.2813751
0.044193576
-1.365069
-0.0038082211
-1.4444976
-0.026851066
-1.5271881
-0.031815563
-1.6186213
-0.027578144
-1.7215336
-0.02063853
-1.8363697
-0.014334083
-1.9619311
-0.0097732464
-2.0972403
-0.0069233064
-2.242245
-0.0053447612
-2.3969646
-0.0045582766
-2.561091
-0.0041783098
-2.7345977
-0.0039383866
-2.9183035
-0.0036691465
-3.1135264
-0.0032791844
-3.3222957
-0.0027190611
-3.5466283
-0.0019848122
-3.7899012
-0.00106792
-4.0527278
0.39575636
-0.51762808
0.44279901
-0.55477777
0.22216169
-0.57171691
-0.0446325
-0.52834376
-0.17973831
-0.54907124
-0.16373125
-0.56613986
-0.046698041
-0.59617457
0.095682253
-0.64794097
0.21093786
-0.71845358
0.28606237
-0.80600674
0.31405279
-0.90819552
0.29149038
-1.0169749
0.22560191
-1.1214918
0.13610805
-1.2138767
0.050345543
-1.2929313
-0.0097531991
-1.3646846
-0.039063158
-1.4379584
-0.044936086
-1.519549
-0.038600809
-1.6129077
-0.028635407
-1.7188489
-0.019581358
-1.8362467
-0.012973152
-1.9634607
-0.0087831316
-2.0998153
-0.0064183963
-2.2454248
-0.0052261967
-2.4003147
-0.0046823477
-2.5643142
-0.0044215266
-2.7375217
-0.0042132612
-2.9207803
-0.003921772
-3.1154954
-0.0034814803
-3.3238224
-0.0028613071
-3.5479595
-0.0020691641
-3.7910213
-0.0011035333
-4.0535308
0.41490371
-0.51066965
0.46807503
-0.55076225
0.22972367
-0.56997469
-0.059253741
-0.56443905
-0.2061336
-0.50833939
-0.19347796
-0.52493929
-0.067463171
-0.55105498
0.090755995
-0.59785026
0.22077142
-0.6638181
0.30924202
-0.7474213
0.3484441
-0.84705047
0.331635
-0.95510822
0.2627634
-1.0598757
0.16105534
-1.1514865
0.058058224
-1.2266392
-0.016878737
-1.2910277
-0.054170934
-1.3549485
-0.061374648
-1.4267012
-0.052458456
-1.5106413
-0.03865781
-1.6078505
-0.02608552
-1.7172701
-0.016853537
-1.8369798
-0.010948575
-1.9655832
-0.0075786457
-2.1027539
-0.0058653119
-2.2486942
-0.0051022354
-2.4035563
-0.0047999741
-2.5673004
-0.0046473263
-2.7401366
-0.0044621325
-2.9229284
-0.0041450774
-3.1171004
-0.003656057
-3.3250447
-0.0029809061
-3.548994
-0.0021379935
-3.791832
-0.0011315368
-4.053987
0.43455832
-0.50244033
0.49419755
-0.54464671
0.23699023
-0.5657643
-0.074334277
-0.56231904
-0.23531418
-0.5420757
-0.22110631
-0.48596094
-0.088333812
-0.50937225
0.084956401
-0.5513966
0.2301167
-0.61283991
0.33250654
-0.69249322
0.38420777
-0.78942814
0.37491539
-0.89673908
0.30444
-1.0021615
0.19040588
-1.093901
0.067937751
-1.1660806
-0.025099278
-1.2233171
-0.072550355
-1.2777391
-0.081663362
-1.3395708
-0.069625759
-1.4141777
-0.05101599
-1.5028983
-0.033999439
-1.6045533
-0.021454575
-1.7171186
-0.013394234
-1.8387222
-0.008771045
-1.9683569
-0.0064140248
-2.1059982
-0.0053819929
-2.2520069
-0.0050247246
-2.406651
-0.0049331063
-2.5700407
-0.0048651543
-2.7424656
-0.0046895498
-2.9247726
-0.0043418382
-3.1184257
-0.003804999
-3.3259728
-0.0030795553
-3.5497636
-0.0021925272
-3.7923424
-0.0011525796
-4.054148
0.45393359
-0.49311092
0.5203623
-0.53645758
0.24353247
-0.55901686
-0.090092905
-0.55750544
-0.26369015
-0.54080716
-0.25436803
-0.51438993
-0.10849271
-0.47076117
0.078292086
-0.50841145
0.23884432
-0.565395
0.35562694
-0.64102117
0.42081339
-0.73494617
0.42063035
-0.84119743
0.34981874
-0.94714963
0.22369624
-1.0397785
0.080144079
-1.1105095
-0.034099989
-1.1616682
-0.09447358
-1.2062198
-0.10635683
-1.2577049
-0.090592911
-1.3229674
-0.066029993
-1.4034576
-0.043464128
-1.4977135
-0.026790105
-1.603415
-0.016063114
-1.718501
-0.0099092945
-1.8414314
-0.0067831572
-1.9716574
-0.0054418789
-2.1094504
-0.0050308819
-2.2552884
-0.0050172185
-2.4095816
-0.0050900809
-2.5725326
-0.0050782288
-2.7445208
-0.0048973665
-2.9263381
-0.004513732
-3.1194525
-0.0039300117
-3.3266699
-0.0031588072
-3.5503006
-0.0022339527
-3.7926231
-0.001167296
-4.0540352
0.4722176
-0.48292255
0.54570468
-0.52630501
0.2489146
-0.54975121
-0.10658799
-0.55008965
-0.29147156
-0.53662847
-0.28601733
-0.51480693
-0.13922787
-0.48887732
0.071174743
-0.4689317
0.24672277
-0.52121288
0.37832351
-0.59282908
0.45759062
-0.68326774
0.46762978
-0.78765138
0.39742229
-0.89350237
0.25893894
-0.98639495
0.092718977
-1.0564664
-0.044700458
-1.1042017
-0.12018045
-1.140537
-0.1360238
-1.1809738
-0.11587269
-1.2365265
-0.084013742
-1.3090002
-0.054599542
-1.3962955
-0.032840338
-1.495531
-0.018860511
-1.6044361
-0.010870584
-1.7212859
-0.0068508977
-1.8449389
-0.0051763607
-1.9753468
-0.0047329388
-2.1130016
-0.0048332694
-2.2584895
-0.0050835457
-2.4123046
-0.0052705077
-2.5747733
-0.00528603
-2.7463087
-0.0050859302
-2.9276362
-0.0046618899
-3.1202565
-0.004032588
-3.3271434
-0.003220147
-3.5506458
-0.0022634142
-3.7926557
-0.0011762965
-4.0536898
0.48863162
-0.47217697
0.56934076
-0.51441105
0.25277809
-0.53815454
-0.12382118
-0.54014706
-0.31875568
-0.52974736
-0.31595899
-0.51240191
-0.1688492
-0.490477
0.049827414
-0.47299979
0.25375252
-0.48055326
0.40023709
-0.54756401
0.49395729
-0.63430362
0.51504897
-0.73605001
0.44634677
-0.84095859
0.29515325
-0.9334195
0.10347571
-1.0009999
-0.059989872
-1.0451883
-0.15109644
-1.0776248
-0.17133589
-1.109422
-0.14609697
-1.1546009
-0.10526685
-1.2190405
-0.067492444
-1.2998211
-0.03954428
-1.3931463
-0.021649008
-1.4962766
-0.011492285
-1.6074182
-0.0064602511
-1.7251611
-0.0044509156
-1.8489835
-0.0040241575
-1.9792474
-0.0042993208
-2.1165468
-0.0047831443
-2.2615346
-0.0052159857
-2.41481
-0.0054690926
-2.5767548
-0.0054861252
-2.7478408
-0.0052548979
-2.9286969
-0.0047871973
-3.1208394
-0.0041141551
-3.3274614
-0.0032650103
-3.5507982
-0.0022820285
-3.7924921
-0.0011801653
-4.0531248
0.50248687
-0.46120964
0.59039454
-0.50108527
0.25481444
-0.52449764
-0.14167812
-0.5279809
-0.34547727
-0.52040206
-0.34418974
-0.50729313
-0.19683772
-0.48976741
0.028764384
-0.47490137
0.24461065
-0.46861422
0.42120452
-0.50568105
0.5294619
-0.58783103
0.5624815
-0.68676455
0.49683133
-0.7906088
0.33425672
-0.8834888
0.11503584
-0.9485872
-0.080166283
-0.9845702
-0.18952778
-1.0108743
-0.21300717
-1.0399398
-0.18197563
-1.0771553
-0.13018656
-1.1332197
-0.082180417
-1.2078481
-0.046791824
-1.2958691
-0.024245067
-1.3937643
-0.011570955
-1.4995442
-0.0054187961
-1.611817
-0.0031013579
-1.7297247
-0.0027753634
-1.853331
-0.0033186901
-1.9832015
-0.0041165143
-2.1199748
-0.0048594053
-2.2643834
-0.0054007823
-2.4170623
-0.0056784516
-2.5784828
-0.0056754067
-2.7491297
-0.0054037441
-2.9295495
-0.0048905102
-3.1212693
-0.0041761099
-3.3276108
-0.0032948033
-3.5507853
-0.0022908558
-3.7921191
-0.0011794537
-4.0523748
-0.45042966
0.51320094
0.6080277
-0.48670066
0.25475304
-0.50912663
-0.15994452
-0.5139617
-0.37149089
-0.50897581
-0.37077091
-0.49965383
-0.22294113
-0.48659648
0.008416927
-0.47491376
0.23566547
-0.47077966
0.42511333
-0.47682765
0.56399096
-0.54464667
0.60971645
-0.63976951
0.54933105
-0.7430448
0.37852126
-0.83804661
0.13321357
-0.9050583
-0.098553804
-0.93369967
-0.23380899
-0.94419713
-0.26118334
-0.9664867
-0.22311583
-1.0021813
-0.15924497
-1.0514203
-0.098703596
-1.1200004
-0.054411318
-1.2033046
-0.026416569
-1.2966076
-0.010864499
-1.3975087
-0.003501052
-1.5046395
-0.00093557342
-1.6170773
-0.00083562518
-1.7346423
-0.0017800158
-1.8577693
-0.0030036613
-1.98706
-0.0041409823
-2.1232137
-0.0050342485
-2.2669939
-0.0056223669
-2.4190702
-0.0058908468
-2.579955
-0.0058508249
-2.7501959
-0.0055320539
-2.9302148
-0.0049727396
-3.1215332
-0.0042198567
-3.3276403
-0.0033108771
-3.550605
-0.0022909135
-3.7915892
-0.0011746778
-4.0514472
-0.47168861
0.62142461
-0.44013315
0.52017944
0.25234129
-0.49243238
-0.17835463
-0.4984873
-0.39656946
-0.49592051
-0.39580756
-0.48982238
-0.24715593
-0.4808882
-0.010904761
-0.47276717
0.2269937
-0.47111741
0.42971852
-0.47978347
0.58234317
-0.49970754
0.65678478
-0.5960976
0.60383087
-0.69777694
0.42828259
-0.7957474
0.16016222
-0.86819209
-0.10883367
-0.89805074
-0.27766196
-0.89355721
-0.31521756
-0.89376479
-0.26776349
-0.92499835
-0.19169217
-0.97285414
-0.11718798
-1.0360665
-0.062169782
-1.1151292
-0.02788178
-1.2044997
-0.0090960945
-1.3011043
-0.00045399906
-1.4034794
0.002262654
-1.5107816
0.0019651411
-1.6227201
0.00044041151
-1.7396519
-0.0013584701
-1.8621111
-0.0030002902
-1.9907224
-0.004322963
-2.126217
-0.005279312
-2.2693602
-0.0058658313
-2.4208139
-0.006099237
-2.5811899
-0.0060097929
-2.7510476
-0.0056396661
-2.9307089
-0.0050348935
-3.1216824
-0.0042467798
-3.3275303
-0.0033145409
-3.5502937
-0.0022831456
-3.7908808
-0.0011663154
-4.0503686
-0.47487525
0.24735517
-0.45636386
0.629788
-0.43101577
0.5232844
-0.19656869
-0.48202247
-0.42038384
-0.48173588
-0.41940354
-0.47825114
-0.26973488
-0.47272529
-0.029000867
-0.4682762
0.21869459
-0.46938656
0.43494296
-0.48082453
0.60210439
-0.50414718
0.69304034
-0.54039172
0.66011618
-0.65562489
0.48244554
-0.75466919
0.19392046
-0.83252291
-0.11167743
-0.86840884
-0.31761321
-0.86162204
-0.37426912
-0.83793136
-0.31701216
-0.84746314
-0.22489621
-0.89471983
-0.13715629
-0.95585743
-0.069854197
-1.0310999
-0.028301247
-1.1171521
-0.0059626185
-1.2100802
0.0039939832
-1.3081948
0.0067258466
-1.4106979
0.0058124811
-1.5173338
0.003476472
-1.6284129
0.00090785484
-1.7445347
-0.0013791443
-1.8662326
-0.0032258387
-1.9941267
-0.0046150559
-2.1289595
-0.0055692072
-2.2714629
-0.0061182368
-2.4223149
-0.0062977274
-2.5821861
-0.0061503493
-2.7517042
-0.0057267002
-2.9310492
-0.0050780601
-3.1217045
-0.0042582595
-3.32733
-0.0033070247
-3.5498299
-0.0022684427
-3.7900323
-0.0011548077
-4.0491458
-0.46511198
-0.21416235
-0.45711617
0.23991723
-0.4417933
0.63269158
-0.42327579
0.52220726
-0.44254755
-0.46694398
-0.44163363
-0.46546805
-0.29114966
-0.46234061
-0.045898245
-0.46129755
0.21098947
-0.46552246
0.44067682
-0.47967314
0.62314228
-0.50652629
0.73212047
-0.54770813
0.71726906
-0.60079156
0.5397669
-0.71548883
0.23217264
-0.7957683
-0.11063353
-0.83643268
-0.35457976
-0.83478489
-0.43686412
-0.80228405
-0.37559137
-0.78209712
-0.25915766
-0.81594232
-0.15634878
-0.87835206
-0.077166731
-0.95110627
-0.027301898
-1.0343479
-0.0011352974
-1.1241957
0.010118336
-1.2185815
0.012693187
-1.3166866
0.010901344
-1.4183537
0.0074689667
-1.5238758
0.0038850065
-1.6339097
0.00077442587
-1.7491453
-0.0017112308
-1.8700477
-0.0036053298
-1.9972339
-0.0049767804
-2.1314228
-0.0058826942
-2.2733092
-0.0063690839
-2.4235607
-0.0064817402
-2.5829652
-0.0062711623
-2.7521725
-0.0057935497
-2.9312556
-0.0051034026
-3.1216374
-0.0042556236
-3.3270037
-0.0032895016
-3.5492391
-0.0022476191
-3.7890355
-0.0011405601
-4.0478062
-0.45208353
-0.46267961
-0.4489226
-0.23020614
-0.43983701
0.22976565
-0.42825867
0.62979241
-0.4173177
0.5166386
-0.46255624
-0.45201119
-0.31202886
-0.45010528
-0.061911618
-0.45177741
0.20412525
-0.45940632
0.44693822
-0.47639121
0.64531627
-0.506559
0.77367627
-0.55259735
0.77926739
-0.61299678
0.61501584
-0.6785984
0.27289992
-0.75889861
-0.10788537
-0.80120563
-0.38976324
-0.80441793
-0.49999418
-0.77475218
-0.44440766
-0.73602176
-0.30090702
-0.7429123
-0.17304401
-0.80193514
-0.082921497
-0.87501544
-0.024539833
-0.95593857
0.0057219594
-1.043223
0.018179746
-1.1344068
0.020395949
-1.2285732
0.01742677
-1.3256119
0.01256195
-1.4258975
0.007660283
-1.5300752
0.0035036607
-1.6390197
0.00023858367
-1.7533753
-0.0022404862
-1.8735169
-0.0040772998
-2.000027
-0.00537589
-2.1336064
-0.0062032845
-2.2748982
-0.0066103225
-2.4245789
-0.0066478934
-2.5835272
-0.0063714857
-2.7524767
-0.0058408352
-2.9313314
-0.0051121215
-3.121456
-0.0042401708
-3.3265866
-0.0032630556
-3.5485094
-0.0022214377
-3.7879345
-0.0011239473
-4.0463551
-0.43837607
-0.48227269
-0.43859361
-0.48012853
-0.43319259
-0.24471391
-0.42366878
0.21698788
-0.41638692
0.62097017
-0.41339255
0.5064232
-0.33306585
-0.43649267
-0.077657731
-0.43978509
0.19827863
-0.45091388
0.45388153
-0.47099588
0.66849301
-0.50431502
0.81749346
-0.55491584
0.84586838
-0.62251266
0.69622523
-0.69683523
0.34991381
-0.7583223
-0.10432158
-0.76499224
-0.42339265
-0.7705733
-0.56079906
-0.74655604
-0.51813406
-0.703401
-0.35487428
-0.68445307
-0.19080427
-0.72771302
-0.084968245
-0.80217401
-0.019562112
-0.88189723
0.014923425
-0.96698458
0.028422334
-1.0554314
0.030048387
-1.14614
0.025576515
-1.2389175
0.018897874
-1.3342672
0.012318133
-1.4329137
0.0068400548
-1.5357188
0.0026247426
-1.6436444
-0.00053037319
-1.7571963
-0.0028772254
-1.8766248
-0.0045953025
-2.0025101
-0.0057884891
-2.1355228
-0.0065187149
-2.2762485
-0.0068360192
-2.4253651
-0.0067938884
-2.5839008
-0.00645106
-2.7526169
-0.0058693674
-2.9312854
-0.0051054403
-3.1211905
-0.004213121
-3.3260346
-0.0032287193
-3.5476781
-0.0021905942
-3.7867129
-0.001105307
-4.0448114
-0.42201442
-0.35493803
-0.42596835
-0.50091828
-0.42540273
-0.49505242
-0.41884335
-0.25740786
-0.4094428
0.20187515
-0.4067644
0.60643962
-0.41151154
0.49152735
-0.094002491
-0.42554501
0.19347433
-0.43996253
0.46180044
-0.46350195
0.69257555
-0.49984943
0.86320442
-0.55458277
0.91626302
-0.62864513
0.78419178
-0.71317788
0.43387682
-0.7836197
-0.056009231
-0.80918654
-0.45589568
-0.73532089
-0.61824163
-0.71592168
-0.59143753
-0.67546315
-0.41924736
-0.64126724
-0.21640813
-0.66128975
-0.082935575
-0.73190917
-0.011296234
-0.81218909
0.026704778
-0.89536629
0.041048954
-0.98142371
0.041816539
-1.0691088
0.03551834
-1.1580756
0.026615558
-1.2487912
0.017938574
-1.3421743
0.01080406
-1.4391358
0.0054266312
-1.5407051
0.0014907131
-1.6477645
-0.0014057865
-1.7606042
-0.0035572017
-1.8793891
-0.0051269072
-2.0047006
-0.0061977478
-2.1371824
-0.0068202501
-2.2773658
-0.0070420155
-2.4259496
-0.0069182733
-2.5840842
-0.0065100285
-2.752613
-0.0058800778
-2.9311213
-0.005084574
-3.1208034
-0.0041756752
-3.3253911
-0.0031874462
-3.5467233
-0.002155728
-3.7853988
-0.0010849303
-4.0431821
-0.40944599
-0.11193471
-0.40786282
-0.37853691
-0.41344712
-0.51889615
-0.41347245
-0.50756749
-0.4064484
-0.2682679
-0.39797371
0.18494886
-0.39947637
0.58648886
-0.4118755
0.47192901
0.18950509
-0.42654441
0.47109761
-0.45393526
0.71753069
-0.49324068
0.91030643
-0.55151919
0.98952131
-0.63119335
0.87646098
-0.72367622
0.52453296
-0.80675966
0.00047718822
-0.84278227
-0.44916053
-0.8187554
-0.67239519
-0.68380043
-0.6610131
-0.64841008
-0.48896602
-0.60783389
-0.25296393
-0.60703564
-0.080923378
-0.66535075
0.0017727981
-0.746583
0.041262729
-0.82829247
0.056184048
-0.91218294
0.055829323
-0.9972058
0.047391392
-1.0828071
0.035843375
-1.1692706
0.024599658
-1.2576017
0.015405521
-1.3489812
0.0086031562
-1.4444524
0.0037617137
-1.54504
0.00027930421
-1.6514082
-0.0023018402
-1.7636307
-0.0042388176
-1.8818282
-0.0056510412
-2.0066112
-0.0065923721
-2.1385988
-0.0071018714
-2.2782671
-0.0072255219
-2.4263278
-0.0070203115
-2.5841025
-0.0065488267
-2.752461
-0.0058740132
-2.9308469
-0.0050507478
-3.1203187
-0.0041289594
-3.3246206
-0.0031401256
-3.5456723
-0.0021173894
-3.7839906
-0.0010630841
-4.0414917
-0.41078361
0.18589918
-0.39201231
-0.13311549
-0.39334818
-0.40410197
-0.40157589
-0.53680525
-0.4031264
-0.51804076
-0.39635654
-0.27774025
-0.38986243
0.16724662
-0.39460986
0.56129254
-0.41451801
0.44781427
0.48222645
-0.44233844
0.7434431
-0.48463339
0.95825719
-0.54576484
1.0647163
-0.63008147
0.97160002
-0.72914926
0.62017511
-0.82233804
0.063380438
-0.87245735
-0.4374052
-0.85749418
-0.7020148
-0.79174383
-0.72568502
-0.62106129
-0.55916338
-0.58016358
-0.29819223
-0.56481563
-0.084043502
-0.60585982
0.019548049
-0.68459845
0.05908077
-0.765816
0.073815518
-0.84749053
0.072124416
-0.93012937
0.061294352
-1.0127918
0.046700409
-1.0954497
0.03237832
-1.1790182
0.020648436
-1.2649525
0.01209425
-1.3545749
0.0061912478
-1.448914
0.0020898901
-1.5488069
-0.00089766296
-1.6546265
-0.0031668715
-1.7663054
-0.0048981716
-1.883969
-0.0061549918
-2.0082602
-0.0069650591
-2.1397838
-0.007359592
-2.2789625
-0.0073848164
-2.426528
-0.0070997691
-2.5839527
-0.0065681517
-2.752188
-0.0058522862
-2.9304538
-0.0050051795
-3.1197111
-0.0040740488
-3.3237627
-0.0030875241
-3.5445187
-0.002076083
-3.7825289
-0.0010399983
-4.0397416
-0.42879669
0.49559978
-0.39201118
0.18098795
-0.37398259
-0.15778017
-0.37897964
-0.43212515
-0.39040554
-0.5555187
-0.39458438
-0.52696904
-0.38916361
-0.28627553
-0.38435158
0.14896064
-0.39239845
0.53122567
-0.41935976
0.41970899
0.77054969
-0.47422259
1.0064607
-0.53741155
1.1405964
-0.62502559
1.0689745
-0.73031911
0.7201617
-0.83223774
0.13247381
-0.89433317
-0.42239707
-0.89053833
-0.72792796
-0.83428897
-0.7848349
-0.7344973
-0.62676264
-0.55528894
-0.34954737
-0.53090334
-0.094841043
-0.55586416
0.039164754
-0.62682905
0.08083044
-0.70764544
0.093815488
-0.78728078
0.090684656
-0.86759806
0.07726965
-0.94766548
0.05928703
-1.0270129
0.04135762
-1.1062117
0.026536306
-1.1868596
0.015824055
-1.2707305
0.0086597344
-1.3590704
0.0039029408
-1.4526787
0.00055805611
-1.5521032
-0.0019792779
-1.657482
-0.0039777667
-1.7686732
-0.0055236854
-1.8858346
-0.0066316439
-2.0096646
-0.0073112454
-2.1407594
-0.0075908485
-2.2794696
-0.0075189419
-2.4265511
-0.0071568618
-2.5836671
-0.0065688874
-2.7517859
-0.0058161045
-2.9299505
-0.0049490422
-3.1190122
-0.0040118729
-3.3227892
-0.0030303512
-3.5433073
-0.0020322714
-3.7809929
-0.0010158469
-4.0379469
-0.46225281
0.79924747
-0.41124284
0.51023022
-0.37279719
0.17493292
-0.3555243
-0.18650434
-0.36479476
-0.46311081
-0.37999674
-0.5760668
-0.38724579
-0.53604551