/*--------------------------------*- C++ -*----------------------------------*\
| =========                 |                                                 |
| \\      /  F ield         | OpenFOAM: The Open Source CFD Toolbox           |
|  \\    /   O peration     | Version:  v2012                                 |
|   \\  /    A nd           | Website:  www.openfoam.com                      |
|    \\/     M anipulation  |                                                 |
\*---------------------------------------------------------------------------*/
FoamFile
{
    version     2.0;
    format      ascii;
    class       pointVectorField;
    location    "92.6076404136068163";
    object      pointDisplacement;
}
// * * * * * * * * * * * * * * * * * * * * * * * * * * * * * * * * * * * * * //

dimensions      [0 1 0 0 0 0 0];


internalField   nonuniform List<vector> 
18840
(
(-1.479547 -0 -0)
(-1.4793811 0 0)
(-1.4788851 0 0)
(-1.4780626 0 0)
(-1.4769162 0 0)
(-1.4754477 0 0)
(-1.4736582 0 0)
(-1.4715485 0 0)
(-1.4691184 0 0)
(-1.4663676 0 0)
(-1.463295 0 0)
(-1.4598994 0 0)
(-1.456179 0 0)
(-1.4521317 0 0)
(-1.4477552 0 0)
(-1.4430467 0 0)
(-1.4380035 0 0)
(-1.4326224 0 0)
(-1.4269006 0 0)
(-1.4208304 0 0)
(-1.4131329 0 0)
(-1.479547 -0 -0)
(-1.4793804 0 0)
(-1.4788824 0 0)
(-1.478057 0 0)
(-1.4769068 0 0)
(-1.4754341 0 0)
(-1.4736401 0 0)
(-1.4715256 0 0)
(-1.4690908 0 0)
(-1.4663355 0 0)
(-1.4632588 0 0)
(-1.4598596 0 0)
(-1.4561363 0 0)
(-1.4520872 0 0)
(-1.44771 0 0)
(-1.4430023 0 0)
(-1.4379615 0 0)
(-1.4325847 0 0)
(-1.4268693 0 0)
(-1.4208096 0 0)
(-1.4144112 0 0)
(-1.479547 -0 -0)
(-1.4793794 0 0)
(-1.4788786 0 0)
(-1.4780489 0 0)
(-1.4768933 0 0)
(-1.4754142 0 0)
(-1.4736131 0 0)
(-1.471491 0 0)
(-1.4690484 0 0)
(-1.4662851 0 0)
(-1.4632006 0 0)
(-1.4597938 0 0)
(-1.4560636 0 0)
(-1.4520083 0 0)
(-1.447626 0 0)
(-1.4429145 0 0)
(-1.4378716 0 0)
(-1.4324947 0 0)
(-1.4267811 0 0)
(-1.4207277 0 0)
(-1.4142546 0 0)
(-1.479547 -0 -0)
(-1.4793784 0 0)
(-1.4788751 0 0)
(-1.4780413 0 0)
(-1.4768806 0 0)
(-1.4753954 0 0)
(-1.4735877 0 0)
(-1.4714586 0 0)
(-1.4690086 0 0)
(-1.466238 0 0)
(-1.4631464 0 0)
(-1.4597329 0 0)
(-1.4559966 0 0)
(-1.451936 0 0)
(-1.4475495 0 0)
(-1.4428353 0 0)
(-1.4377915 0 0)
(-1.4324159 0 0)
(-1.4267064 0 0)
(-1.4206601 0 0)
(-1.4141205 0 0)
(-1.479547 -0 -0)
(-1.4793775 0 0)
(-1.4788717 0 0)
(-1.4780341 0 0)
(-1.4768685 0 0)
(-1.4753777 0 0)
(-1.4735637 0 0)
(-1.4714279 0 0)
(-1.4689711 0 0)
(-1.4661936 0 0)
(-1.4630952 0 0)
(-1.4596754 0 0)
(-1.4559333 0 0)
(-1.4518677 0 0)
(-1.4474773 0 0)
(-1.4427606 0 0)
(-1.4377158 0 0)
(-1.4323413 0 0)
(-1.4266356 0 0)
(-1.420596 0 0)
(-1.4139971 0 0)
(-1.479547 -0 -0)
(-1.4793767 0 0)
(-1.4788684 0 0)
(-1.4780272 0 0)
(-1.476857 0 0)
(-1.4753608 0 0)
(-1.4735408 0 0)
(-1.4713986 0 0)
(-1.4689352 0 0)
(-1.4661511 0 0)
(-1.4630461 0 0)
(-1.45962 0 0)
(-1.4558721 0 0)
(-1.4518012 0 0)
(-1.4474064 0 0)
(-1.4426863 0 0)
(-1.4376394 0 0)
(-1.4322646 0 0)
(-1.4265604 0 0)
(-1.4205247 0 0)
(-1.4138722 0 0)
(-1.479547 -0 -0)
(-1.4793759 0 0)
(-1.4788653 0 0)
(-1.4780206 0 0)
(-1.4768461 0 0)
(-1.4753447 0 0)
(-1.473519 0 0)
(-1.4713707 0 0)
(-1.4689008 0 0)
(-1.46611 0 0)
(-1.4629984 0 0)
(-1.4595658 0 0)
(-1.4558115 0 0)
(-1.4517347 0 0)
(-1.4473345 0 0)
(-1.4426096 0 0)
(-1.4375588 0 0)
(-1.432181 0 0)
(-1.4264751 0 0)
(-1.4204392 0 0)
(-1.4137382 0 0)
(-1.479547 -0 -0)
(-1.4793751 0 0)
(-1.4788623 0 0)
(-1.4780144 0 0)
(-1.4768356 0 0)
(-1.4753294 0 0)
(-1.4734982 0 0)
(-1.4713439 0 0)
(-1.4688677 0 0)
(-1.4660702 0 0)
(-1.4629517 0 0)
(-1.4595121 0 0)
(-1.4557509 0 0)
(-1.4516673 0 0)
(-1.4472602 0 0)
(-1.4425288 0 0)
(-1.4374717 0 0)
(-1.432088 0 0)
(-1.4263766 0 0)
(-1.4203358 0 0)
(-1.4135911 0 0)
(-1.479547 -0 -0)
(-1.4793743 0 0)
(-1.4788595 0 0)
(-1.4780083 0 0)
(-1.4768256 0 0)
(-1.4753147 0 0)
(-1.4734783 0 0)
(-1.4713182 0 0)
(-1.4688357 0 0)
(-1.4660316 0 0)
(-1.462906 0 0)
(-1.459459 0 0)
(-1.4556901 0 0)
(-1.4515985 0 0)
(-1.4471832 0 0)
(-1.4424433 0 0)
(-1.4373774 0 0)
(-1.4319845 0 0)
(-1.4262636 0 0)
(-1.4202133 0 0)
(-1.4134297 0 0)
(-1.479547 -0 -0)
(-1.4793736 0 0)
(-1.4788567 0 0)
(-1.4780026 0 0)
(-1.476816 0 0)
(-1.4753006 0 0)
(-1.4734591 0 0)
(-1.4712935 0 0)
(-1.4688049 0 0)
(-1.4659941 0 0)
(-1.4628613 0 0)
(-1.4594066 0 0)
(-1.4556293 0 0)
(-1.4515286 0 0)
(-1.4471037 0 0)
(-1.4423533 0 0)
(-1.4372761 0 0)
(-1.4318709 0 0)
(-1.4261366 0 0)
(-1.4200719 0 0)
(-1.4132547 0 0)
(-1.479547 -0 -0)
(-1.4793726 0 0)
(-1.4788527 0 0)
(-1.477994 0 0)
(-1.4768016 0 0)
(-1.4752792 0 0)
(-1.4734297 0 0)
(-1.4712549 0 0)
(-1.4687563 0 0)
(-1.4659345 0 0)
(-1.4627897 0 0)
(-1.4593217 0 0)
(-1.4555299 0 0)
(-1.4514135 0 0)
(-1.4469713 0 0)
(-1.4422021 0 0)
(-1.4371045 0 0)
(-1.4316769 0 0)
(-1.4259182 0 0)
(-1.4198271 0 0)
(-1.4129769 0 0)
(-1.479547 -0 -0)
(-1.4793811 0 0)
(-1.4788851 0 0)
(-1.4780626 0 0)
(-1.4769162 0 0)
(-1.4754477 0 0)
(-1.4736582 0 0)
(-1.4715485 0 0)
(-1.4691184 0 0)
(-1.4663676 0 0)
(-1.463295 0 0)
(-1.4598994 0 0)
(-1.456179 0 0)
(-1.4521317 0 0)
(-1.4477552 0 0)
(-1.4430467 0 0)
(-1.4380035 0 0)
(-1.4326224 0 0)
(-1.4269006 0 0)
(-1.4208304 0 0)
(-1.4131329 0 0)
(-1.479547 -0 -0)
(-1.4793804 0 0)
(-1.4788824 0 0)
(-1.478057 0 0)
(-1.4769068 0 0)
(-1.4754341 0 0)
(-1.4736401 0 0)
(-1.4715256 0 0)
(-1.4690908 0 0)
(-1.4663355 0 0)
(-1.4632588 0 0)
(-1.4598596 0 0)
(-1.4561363 0 0)
(-1.4520872 0 0)
(-1.44771 0 0)
(-1.4430023 0 0)
(-1.4379615 0 0)
(-1.4325847 0 0)
(-1.4268693 0 0)
(-1.4208096 0 0)
(-1.4144112 0 0)
(-1.479547 -0 -0)
(-1.4793794 0 0)
(-1.4788786 0 0)
(-1.4780489 0 0)
(-1.4768933 0 0)
(-1.4754142 0 0)
(-1.4736131 0 0)
(-1.471491 0 0)
(-1.4690484 0 0)
(-1.4662851 0 0)
(-1.4632006 0 0)
(-1.4597938 0 0)
(-1.4560636 0 0)
(-1.4520083 0 0)
(-1.447626 0 0)
(-1.4429145 0 0)
(-1.4378716 0 0)
(-1.4324947 0 0)
(-1.4267811 0 0)
(-1.4207277 0 0)
(-1.4142546 0 0)
(-1.479547 -0 -0)
(-1.4793784 0 0)
(-1.4788751 0 0)
(-1.4780413 0 0)
(-1.4768806 0 0)
(-1.4753954 0 0)
(-1.4735877 0 0)
(-1.4714586 0 0)
(-1.4690086 0 0)
(-1.466238 0 0)
(-1.4631464 0 0)
(-1.4597329 0 0)
(-1.4559966 0 0)
(-1.451936 0 0)
(-1.4475495 0 0)
(-1.4428353 0 0)
(-1.4377915 0 0)
(-1.4324159 0 0)
(-1.4267064 0 0)
(-1.4206601 0 0)
(-1.4141205 0 0)
(-1.479547 -0 -0)
(-1.4793775 0 0)
(-1.4788717 0 0)
(-1.4780341 0 0)
(-1.4768685 0 0)
(-1.4753777 0 0)
(-1.4735637 0 0)
(-1.4714279 0 0)
(-1.4689711 0 0)
(-1.4661936 0 0)
(-1.4630952 0 0)
(-1.4596754 0 0)
(-1.4559333 0 0)
(-1.4518677 0 0)
(-1.4474773 0 0)
(-1.4427606 0 0)
(-1.4377158 0 0)
(-1.4323413 0 0)
(-1.4266356 0 0)
(-1.420596 0 0)
(-1.4139971 0 0)
(-1.479547 -0 -0)
(-1.4793767 0 0)
(-1.4788684 0 0)
(-1.4780272 0 0)
(-1.476857 0 0)
(-1.4753608 0 0)
(-1.4735408 0 0)
(-1.4713986 0 0)
(-1.4689352 0 0)
(-1.4661511 0 0)
(-1.4630461 0 0)
(-1.45962 0 0)
(-1.4558721 0 0)
(-1.4518012 0 0)
(-1.4474064 0 0)
(-1.4426863 0 0)
(-1.4376394 0 0)
(-1.4322646 0 0)
(-1.4265604 0 0)
(-1.4205247 0 0)
(-1.4138722 0 0)
(-1.479547 -0 -0)
(-1.4793759 0 0)
(-1.4788653 0 0)
(-1.4780206 0 0)
(-1.4768461 0 0)
(-1.4753447 0 0)
(-1.473519 0 0)
(-1.4713707 0 0)
(-1.4689008 0 0)
(-1.46611 0 0)
(-1.4629984 0 0)
(-1.4595658 0 0)
(-1.4558115 0 0)
(-1.4517347 0 0)
(-1.4473345 0 0)
(-1.4426096 0 0)
(-1.4375588 0 0)
(-1.432181 0 0)
(-1.4264751 0 0)
(-1.4204392 0 0)
(-1.4137382 0 0)
(-1.479547 -0 -0)
(-1.4793751 0 0)
(-1.4788623 0 0)
(-1.4780144 0 0)
(-1.4768356 0 0)
(-1.4753294 0 0)
(-1.4734982 0 0)
(-1.4713439 0 0)
(-1.4688677 0 0)
(-1.4660702 0 0)
(-1.4629517 0 0)
(-1.4595121 0 0)
(-1.4557509 0 0)
(-1.4516673 0 0)
(-1.4472602 0 0)
(-1.4425288 0 0)
(-1.4374717 0 0)
(-1.432088 0 0)
(-1.4263766 0 0)
(-1.4203358 0 0)
(-1.4135911 0 0)
(-1.479547 -0 -0)
(-1.4793743 0 0)
(-1.4788595 0 0)
(-1.4780083 0 0)
(-1.4768256 0 0)
(-1.4753147 0 0)
(-1.4734783 0 0)
(-1.4713182 0 0)
(-1.4688357 0 0)
(-1.4660316 0 0)
(-1.462906 0 0)
(-1.459459 0 0)
(-1.4556901 0 0)
(-1.4515985 0 0)
(-1.4471832 0 0)
(-1.4424433 0 0)
(-1.4373774 0 0)
(-1.4319845 0 0)
(-1.4262636 0 0)
(-1.4202133 0 0)
(-1.4134297 0 0)
(-1.479547 -0 -0)
(-1.4793736 0 0)
(-1.4788567 0 0)
(-1.4780026 0 0)
(-1.476816 0 0)
(-1.4753006 0 0)
(-1.4734591 0 0)
(-1.4712935 0 0)
(-1.4688049 0 0)
(-1.4659941 0 0)
(-1.4628613 0 0)
(-1.4594066 0 0)
(-1.4556293 0 0)
(-1.4515286 0 0)
(-1.4471037 0 0)
(-1.4423533 0 0)
(-1.4372761 0 0)
(-1.4318709 0 0)
(-1.4261366 0 0)
(-1.4200719 0 0)
(-1.4132547 0 0)
(-1.479547 -0 -0)
(-1.4793726 0 0)
(-1.4788527 0 0)
(-1.477994 0 0)
(-1.4768016 0 0)
(-1.4752792 0 0)
(-1.4734297 0 0)
(-1.4712549 0 0)
(-1.4687563 0 0)
(-1.4659345 0 0)
(-1.4627897 0 0)
(-1.4593217 0 0)
(-1.4555299 0 0)
(-1.4514135 0 0)
(-1.4469713 0 0)
(-1.4422021 0 0)
(-1.4371045 0 0)
(-1.4316769 0 0)
(-1.4259182 0 0)
(-1.4198271 0 0)
(-1.4129769 0 0)
(-1.479547 -0 -0)
(-1.4793823 0 0)
(-1.4788893 0 0)
(-1.4780704 0 0)
(-1.4769273 0 0)
(-1.4754611 0 0)
(-1.4736721 0 0)
(-1.4715605 0 0)
(-1.4691256 0 0)
(-1.4663666 0 0)
(-1.4632822 0 0)
(-1.4598707 0 0)
(-1.4561301 0 0)
(-1.4520582 0 0)
(-1.4476524 0 0)
(-1.4429098 0 0)
(-1.4378273 0 0)
(-1.4324016 0 0)
(-1.4266291 0 0)
(-1.4204998 0 0)
(-1.4134648 0 0)
(-1.479547 -0 -0)
(-1.4793821 0 0)
(-1.4788888 0 0)
(-1.4780695 0 0)
(-1.4769258 0 0)
(-1.4754589 0 0)
(-1.4736693 0 0)
(-1.4715569 0 0)
(-1.4691214 0 0)
(-1.4663617 0 0)
(-1.4632765 0 0)
(-1.4598642 0 0)
(-1.4561228 0 0)
(-1.45205 0 0)
(-1.4476431 0 0)
(-1.4428992 0 0)
(-1.4378152 0 0)
(-1.4323875 0 0)
(-1.4266125 0 0)
(-1.4204803 0 0)
(-1.4134479 0 0)
(-1.479547 -0 -0)
(-1.4793817 0 0)
(-1.4788874 0 0)
(-1.4780664 0 0)
(-1.4769206 0 0)
(-1.4754512 0 0)
(-1.4736586 0 0)
(-1.4715431 0 0)
(-1.469104 0 0)
(-1.4663405 0 0)
(-1.4632513 0 0)
(-1.4598348 0 0)
(-1.4560889 0 0)
(-1.4520112 0 0)
(-1.4475992 0 0)
(-1.4428498 0 0)
(-1.4377598 0 0)
(-1.4323257 0 0)
(-1.4265438 0 0)
(-1.4204042 0 0)
(-1.4133841 0 0)
(-1.479547 -0 -0)
(-1.4793815 0 0)
(-1.4788862 0 0)
(-1.478064 0 0)
(-1.4769166 0 0)
(-1.4754453 0 0)
(-1.4736507 0 0)
(-1.4715329 0 0)
(-1.4690915 0 0)
(-1.4663256 0 0)
(-1.4632338 0 0)
(-1.4598147 0 0)
(-1.456066 0 0)
(-1.4519855 0 0)
(-1.4475704 0 0)
(-1.4428177 0 0)
(-1.4377242 0 0)
(-1.4322863 0 0)
(-1.4265001 0 0)
(-1.4203564 0 0)
(-1.4133636 0 0)
(-1.479547 -0 -0)
(-1.4793812 0 0)
(-1.4788854 0 0)
(-1.4780623 0 0)
(-1.4769139 0 0)
(-1.4754414 0 0)
(-1.4736456 0 0)
(-1.4715265 0 0)
(-1.4690839 0 0)
(-1.4663168 0 0)
(-1.463224 0 0)
(-1.4598038 0 0)
(-1.4560542 0 0)
(-1.4519728 0 0)
(-1.4475568 0 0)
(-1.4428032 0 0)
(-1.4377087 0 0)
(-1.4322697 0 0)
(-1.4264823 0 0)
(-1.4203376 0 0)
(-1.413387 0 0)
(-1.479547 -0 -0)
(-1.4793811 0 0)
(-1.4788849 0 0)
(-1.4780612 0 0)
(-1.4769123 0 0)
(-1.4754393 0 0)
(-1.473643 0 0)
(-1.4715237 0 0)
(-1.469081 0 0)
(-1.4663141 0 0)
(-1.4632217 0 0)
(-1.4598021 0 0)
(-1.4560534 0 0)
(-1.4519731 0 0)
(-1.4475584 0 0)
(-1.4428063 0 0)
(-1.4377135 0 0)
(-1.4322761 0 0)
(-1.4264905 0 0)
(-1.4203482 0 0)
(-1.4134543 0 0)
(-1.479547 -0 -0)
(-1.479381 0 0)
(-1.4788846 0 0)
(-1.4780608 0 0)
(-1.4769118 0 0)
(-1.4754389 0 0)
(-1.4736431 0 0)
(-1.4715245 0 0)
(-1.4690828 0 0)
(-1.4663173 0 0)
(-1.4632268 0 0)
(-1.4598095 0 0)
(-1.4560635 0 0)
(-1.4519863 0 0)
(-1.4475753 0 0)
(-1.4428272 0 0)
(-1.4377387 0 0)
(-1.4323062 0 0)
(-1.4265255 0 0)
(-1.4203893 0 0)
(-1.4135666 0 0)
(-1.479547 -0 -0)
(-1.479381 0 0)
(-1.4788846 0 0)
(-1.478061 0 0)
(-1.4769124 0 0)
(-1.4754403 0 0)
(-1.4736456 0 0)
(-1.4715287 0 0)
(-1.4690892 0 0)
(-1.4663264 0 0)
(-1.4632392 0 0)
(-1.4598259 0 0)
(-1.4560845 0 0)
(-1.4520126 0 0)
(-1.4476076 0 0)
(-1.4428662 0 0)
(-1.4377853 0 0)
(-1.4323609 0 0)
(-1.4265891 0 0)
(-1.4204629 0 0)
(-1.4137258 0 0)
(-1.479547 -0 -0)
(-1.4793811 0 0)
(-1.4788849 0 0)
(-1.4780618 0 0)
(-1.4769141 0 0)
(-1.4754434 0 0)
(-1.4736507 0 0)
(-1.4715362 0 0)
(-1.4691 0 0)
(-1.4663412 0 0)
(-1.4632588 0 0)
(-1.4598512 0 0)
(-1.4561164 0 0)
(-1.4520521 0 0)
(-1.4476556 0 0)
(-1.442924 0 0)
(-1.4378539 0 0)
(-1.4324416 0 0)
(-1.4266833 0 0)
(-1.4205728 0 0)
(-1.4139363 0 0)
(-1.479547 -0 -0)
(-1.4793812 0 0)
(-1.4788855 0 0)
(-1.4780633 0 0)
(-1.4769169 0 0)
(-1.4754481 0 0)
(-1.4736581 0 0)
(-1.4715471 0 0)
(-1.4691152 0 0)
(-1.4663616 0 0)
(-1.4632855 0 0)
(-1.4598852 0 0)
(-1.4561589 0 0)
(-1.4521045 0 0)
(-1.4477192 0 0)
(-1.4430004 0 0)
(-1.4379447 0 0)
(-1.4325489 0 0)
(-1.4268095 0 0)
(-1.4207201 0 0)
(-1.4141991 0 0)
(-1.479547 -0 -0)
(-1.4793823 0 0)
(-1.4788893 0 0)
(-1.4780704 0 0)
(-1.4769273 0 0)
(-1.4754611 0 0)
(-1.4736721 0 0)
(-1.4715605 0 0)
(-1.4691256 0 0)
(-1.4663666 0 0)
(-1.4632822 0 0)
(-1.4598707 0 0)
(-1.4561301 0 0)
(-1.4520582 0 0)
(-1.4476524 0 0)
(-1.4429098 0 0)
(-1.4378273 0 0)
(-1.4324016 0 0)
(-1.4266291 0 0)
(-1.4204998 0 0)
(-1.4134648 0 0)
(-1.479547 -0 -0)
(-1.4793821 0 0)
(-1.4788888 0 0)
(-1.4780695 0 0)
(-1.4769258 0 0)
(-1.4754589 0 0)
(-1.4736693 0 0)
(-1.4715569 0 0)
(-1.4691214 0 0)
(-1.4663617 0 0)
(-1.4632765 0 0)
(-1.4598642 0 0)
(-1.4561228 0 0)
(-1.45205 0 0)
(-1.4476431 0 0)
(-1.4428992 0 0)
(-1.4378152 0 0)
(-1.4323875 0 0)
(-1.4266125 0 0)
(-1.4204803 0 0)
(-1.4134479 0 0)
(-1.479547 -0 -0)
(-1.4793817 0 0)
(-1.4788874 0 0)
(-1.4780664 0 0)
(-1.4769206 0 0)
(-1.4754512 0 0)
(-1.4736586 0 0)
(-1.4715431 0 0)
(-1.469104 0 0)
(-1.4663405 0 0)
(-1.4632513 0 0)
(-1.4598348 0 0)
(-1.4560889 0 0)
(-1.4520112 0 0)
(-1.4475992 0 0)
(-1.4428498 0 0)
(-1.4377598 0 0)
(-1.4323257 0 0)
(-1.4265438 0 0)
(-1.4204042 0 0)
(-1.4133841 0 0)
(-1.479547 -0 -0)
(-1.4793815 0 0)
(-1.4788862 0 0)
(-1.478064 0 0)
(-1.4769166 0 0)
(-1.4754453 0 0)
(-1.4736507 0 0)
(-1.4715329 0 0)
(-1.4690915 0 0)
(-1.4663256 0 0)
(-1.4632338 0 0)
(-1.4598147 0 0)
(-1.456066 0 0)
(-1.4519855 0 0)
(-1.4475704 0 0)
(-1.4428177 0 0)
(-1.4377242 0 0)
(-1.4322863 0 0)
(-1.4265001 0 0)
(-1.4203564 0 0)
(-1.4133636 0 0)
(-1.479547 -0 -0)
(-1.4793812 0 0)
(-1.4788854 0 0)
(-1.4780623 0 0)
(-1.4769139 0 0)
(-1.4754414 0 0)
(-1.4736456 0 0)
(-1.4715265 0 0)
(-1.4690839 0 0)
(-1.4663168 0 0)
(-1.463224 0 0)
(-1.4598038 0 0)
(-1.4560542 0 0)
(-1.4519728 0 0)
(-1.4475568 0 0)
(-1.4428032 0 0)
(-1.4377087 0 0)
(-1.4322697 0 0)
(-1.4264823 0 0)
(-1.4203376 0 0)
(-1.413387 0 0)
(-1.479547 -0 -0)
(-1.4793811 0 0)
(-1.4788849 0 0)
(-1.4780612 0 0)
(-1.4769123 0 0)
(-1.4754393 0 0)
(-1.473643 0 0)
(-1.4715237 0 0)
(-1.469081 0 0)
(-1.4663141 0 0)
(-1.4632217 0 0)
(-1.4598021 0 0)
(-1.4560534 0 0)
(-1.4519731 0 0)
(-1.4475584 0 0)
(-1.4428063 0 0)
(-1.4377135 0 0)
(-1.4322761 0 0)
(-1.4264905 0 0)
(-1.4203482 0 0)
(-1.4134543 0 0)
(-1.479547 -0 -0)
(-1.479381 0 0)
(-1.4788846 0 0)
(-1.4780608 0 0)
(-1.4769118 0 0)
(-1.4754389 0 0)
(-1.4736431 0 0)
(-1.4715245 0 0)
(-1.4690828 0 0)
(-1.4663173 0 0)
(-1.4632268 0 0)
(-1.4598095 0 0)
(-1.4560635 0 0)
(-1.4519863 0 0)
(-1.4475753 0 0)
(-1.4428272 0 0)
(-1.4377387 0 0)
(-1.4323062 0 0)
(-1.4265255 0 0)
(-1.4203893 0 0)
(-1.4135666 0 0)
(-1.479547 -0 -0)
(-1.479381 0 0)
(-1.4788846 0 0)
(-1.478061 0 0)
(-1.4769124 0 0)
(-1.4754403 0 0)
(-1.4736456 0 0)
(-1.4715287 0 0)
(-1.4690892 0 0)
(-1.4663264 0 0)
(-1.4632392 0 0)
(-1.4598259 0 0)
(-1.4560845 0 0)
(-1.4520126 0 0)
(-1.4476076 0 0)
(-1.4428662 0 0)
(-1.4377853 0 0)
(-1.4323609 0 0)
(-1.4265891 0 0)
(-1.4204629 0 0)
(-1.4137258 0 0)
(-1.479547 -0 -0)
(-1.4793811 0 0)
(-1.4788849 0 0)
(-1.4780618 0 0)
(-1.4769141 0 0)
(-1.4754434 0 0)
(-1.4736507 0 0)
(-1.4715362 0 0)
(-1.4691 0 0)
(-1.4663412 0 0)
(-1.4632588 0 0)
(-1.4598512 0 0)
(-1.4561164 0 0)
(-1.4520521 0 0)
(-1.4476556 0 0)
(-1.442924 0 0)
(-1.4378539 0 0)
(-1.4324416 0 0)
(-1.4266833 0 0)
(-1.4205728 0 0)
(-1.4139363 0 0)
(-1.479547 -0 -0)
(-1.4793812 0 0)
(-1.4788855 0 0)
(-1.4780633 0 0)
(-1.4769169 0 0)
(-1.4754481 0 0)
(-1.4736581 0 0)
(-1.4715471 0 0)
(-1.4691152 0 0)
(-1.4663616 0 0)
(-1.4632855 0 0)
(-1.4598852 0 0)
(-1.4561589 0 0)
(-1.4521045 0 0)
(-1.4477192 0 0)
(-1.4430004 0 0)
(-1.4379447 0 0)
(-1.4325489 0 0)
(-1.4268095 0 0)
(-1.4207201 0 0)
(-1.4141991 0 0)
(-1.4048237 0 0)
(-1.3950788 0 0)
(-1.3847758 0 0)
(-1.3739238 0 0)
(-1.3625294 0 0)
(-1.3506098 0 0)
(-1.3381937 0 0)
(-1.3253091 0 0)
(-1.3119747 0 0)
(-1.2982023 0 0)
(-1.2840001 0 0)
(-1.2693707 0 0)
(-1.2543126 0 0)
(-1.2388224 0 0)
(-1.2228906 0 0)
(-1.2065078 0 0)
(-1.1896645 0 0)
(-1.1723489 0 0)
(-1.1545447 0 0)
(-1.1362337 0 0)
(-1.1173914 0 0)
(-1.0979881 0 0)
(-1.0779907 0 0)
(-1.0573655 0 0)
(-1.0360752 0 0)
(-1.0140635 0 0)
(-0.99127553 0 0)
(-0.96764391 0 0)
(-0.94310569 0 0)
(-0.9176159 0 0)
(-0.89110436 0 0)
(-0.86345696 0 0)
(-0.83457606 0 0)
(-0.80441166 0 0)
(-0.77285398 0 0)
(-0.73975128 0 0)
(-0.70503925 0 0)
(-0.66860386 0 0)
(-0.63018957 0 0)
(-0.58955155 0 0)
(-0.54647363 0 0)
(-0.50073166 0 0)
(-0.45208076 0 0)
(-0.40024549 0 0)
(-0.34487385 0 0)
(-0.28554662 0 0)
(-0.2218493 0 0)
(-0.15336309 0 0)
(-0.079556427 0 0)
(0 0 0)
(-1.4048223 0 0)
(-1.3950987 0 0)
(-1.3848151 0 0)
(-1.3739801 0 0)
(-1.3625997 0 0)
(-1.350691 0 0)
(-1.3382831 0 0)
(-1.3254041 0 0)
(-1.3120729 0 0)
(-1.2983018 0 0)
(-1.2840992 0 0)
(-1.2694677 0 0)
(-1.2544059 0 0)
(-1.2389113 0 0)
(-1.2229752 0 0)
(-1.2065883 0 0)
(-1.1897409 0 0)
(-1.1724209 0 0)
(-1.1546123 0 0)
(-1.1362966 0 0)
(-1.1174496 0 0)
(-1.0980419 0 0)
(-1.0780405 0 0)
(-1.0574115 0 0)
(-1.0361169 0 0)
(-1.0141025 0 0)
(-0.99131263 0 0)
(-0.96768004 0 0)
(-0.94314116 0 0)
(-0.91765044 0 0)
(-0.89113828 0 0)
(-0.86349115 0 0)
(-0.83461059 0 0)
(-0.80444601 0 0)
(-0.7728877 0 0)
(-0.73978207 0 0)
(-0.70506689 0 0)
(-0.66862916 0 0)
(-0.63021333 0 0)
(-0.58957349 0 0)
(-0.54649398 0 0)
(-0.50075146 0 0)
(-0.45209977 0 0)
(-0.4002646 0 0)
(-0.34489237 0 0)
(-0.28556202 0 0)
(-0.22186103 0 0)
(-0.15337265 0 0)
(-0.079562979 0 0)
(0 0 0)
(-1.4048099 0 0)
(-1.3951547 0 0)
(-1.3849352 0 0)
(-1.374159 0 0)
(-1.3628318 0 0)
(-1.3509704 0 0)
(-1.3386037 0 0)
(-1.3257603 0 0)
(-1.3124594 0 0)
(-1.2987138 0 0)
(-1.284532 0 0)
(-1.2699168 0 0)
(-1.2548677 0 0)
(-1.2393821 0 0)
(-1.2234531 0 0)
(-1.2070719 0 0)
(-1.1902281 0 0)
(-1.1729097 0 0)
(-1.1551012 0 0)
(-1.1367846 0 0)
(-1.1179356 0 0)
(-1.0985245 0 0)
(-1.0785192 0 0)
(-1.0578863 0 0)
(-1.0365862 0 0)
(-1.0145667 0 0)
(-0.99177258 0 0)
(-0.96813588 0 0)
(-0.94359192 0 0)
(-0.9180953 0 0)
(-0.89157743 0 0)
(-0.86392458 0 0)
(-0.83503692 0 0)
(-0.804864 0 0)
(-0.773297 0 0)
(-0.74017874 0 0)
(-0.70544862 0 0)
(-0.6689953 0 0)
(-0.63056258 0 0)
(-0.5899039 0 0)
(-0.5468049 0 0)
(-0.50104268 0 0)
(-0.45236819 0 0)
(-0.40050848 0 0)
(-0.34510862 0 0)
(-0.28574432 0 0)
(-0.22200472 0 0)
(-0.15347532 0 0)
(-0.07961889 0 0)
(0 0 0)
(-1.4048785 0 0)
(-1.395339 0 0)
(-1.3852283 0 0)
(-1.3745527 0 0)
(-1.3633175 0 0)
(-1.351539 0 0)
(-1.3392458 0 0)
(-1.3264666 0 0)
(-1.3132217 0 0)
(-1.2995243 0 0)
(-1.2853827 0 0)
(-1.2708005 0 0)
(-1.2557779 0 0)
(-1.2403133 0 0)
(-1.2244008 0 0)
(-1.2080322 0 0)
(-1.1911975 0 0)
(-1.1738843 0 0)
(-1.1560781 0 0)
(-1.1377615 0 0)
(-1.1189104 0 0)
(-1.0994949 0 0)
(-1.0794837 0 0)
(-1.0588438 0 0)
(-1.037535 0 0)
(-1.0155063 0 0)
(-0.99270241 0 0)
(-0.96905578 0 0)
(-0.94450055 0 0)
(-0.91899118 0 0)
(-0.89245984 0 0)
(-0.86479267 0 0)
(-0.83588879 0 0)
(-0.80569777 0 0)
(-0.77411107 0 0)
(-0.74096869 0 0)
(-0.70621055 0 0)
(-0.66972573 0 0)
(-0.6312585 0 0)
(-0.59056248 0 0)
(-0.5474246 0 0)
(-0.50162121 0 0)
(-0.45289977 0 0)
(-0.40098921 0 0)
(-0.34553254 0 0)
(-0.28610125 0 0)
(-0.22228637 0 0)
(-0.15367537 0 0)
(-0.079726233 0 0)
(0 0 0)
(-1.405028 0 0)
(-1.3956512 0 0)
(-1.3856937 0 0)
(-1.3751602 0 0)
(-1.3640554 0 0)
(-1.352395 0 0)
(-1.3402074 0 0)
(-1.3275215 0 0)
(-1.3143582 0 0)
(-1.3007315 0 0)
(-1.2866499 0 0)
(-1.2721174 0 0)
(-1.2571356 0 0)
(-1.2417034 0 0)
(-1.2258164 0 0)
(-1.2094676 0 0)
(-1.1926472 0 0)
(-1.1753427 0 0)
(-1.1575407 0 0)
(-1.1392249 0 0)
(-1.1203714 0 0)
(-1.1009498 0 0)
(-1.08093 0 0)
(-1.0602805 0 0)
(-1.0389591 0 0)
(-1.0169165 0 0)
(-0.99409801 0 0)
(-0.97043543 0 0)
(-0.94586198 0 0)
(-0.92033276 0 0)
(-0.89378058 0 0)
(-0.86609052 0 0)
(-0.83716066 0 0)
(-0.80694149 0 0)
(-0.77532467 0 0)
(-0.74214629 0 0)
(-0.7073466 0 0)
(-0.67081529 0 0)
(-0.63229644 0 0)
(-0.59154452 0 0)
(-0.5483484 0 0)
(-0.50248286 0 0)
(-0.45369074 0 0)
(-0.40170305 0 0)
(-0.34616097 0 0)
(-0.28663039 0 0)
(-0.22270387 0 0)
(-0.15397097 0 0)
(-0.079884091 0 0)
(0 0 0)
(-1.4052579 0 0)
(-1.39609 0 0)
(-1.3863295 0 0)
(-1.3759792 0 0)
(-1.3650432 0 0)
(-1.3535363 0 0)
(-1.3414864 0 0)
(-1.3289222 0 0)
(-1.3158661 0 0)
(-1.302333 0 0)
(-1.2883313 0 0)
(-1.2738653 0 0)
(-1.258938 0 0)
(-1.2435498 0 0)
(-1.2276974 0 0)
(-1.2113753 0 0)
(-1.1945741 0 0)
(-1.1772815 0 0)
(-1.1594851 0 0)
(-1.1411703 0 0)
(-1.1223136 0 0)
(-1.1028841 0 0)
(-1.082853 0 0)
(-1.0621899 0 0)
(-1.0408524 0 0)
(-1.0187912 0 0)
(-0.99595224 0 0)
(-0.97226729 0 0)
(-0.94766894 0 0)
(-0.92211265 0 0)
(-0.89553157 0 0)
(-0.86780985 0 0)
(-0.83884481 0 0)
(-0.80858757 0 0)
(-0.77692953 0 0)
(-0.74370379 0 0)
(-0.70884952 0 0)
(-0.67225614 0 0)
(-0.63366878 0 0)
(-0.59284333 0 0)
(-0.54957015 0 0)
(-0.50362154 0 0)
(-0.45473531 0 0)
(-0.40264518 0 0)
(-0.3469894 0 0)
(-0.28732777 0 0)
(-0.2232542 0 0)
(-0.15436028 0 0)
(-0.080091406 0 0)
(0 0 0)
(-1.4055682 0 0)
(-1.3966542 0 0)
(-1.387134 0 0)
(-1.3770077 0 0)
(-1.3662785 0 0)
(-1.3549607 0 0)
(-1.3430806 0 0)
(-1.3306669 0 0)
(-1.3177428 0 0)
(-1.3043261 0 0)
(-1.2904251 0 0)
(-1.2760422 0 0)
(-1.2611828 0 0)
(-1.2458497 0 0)
(-1.2300409 0 0)
(-1.2137521 0 0)
(-1.1969746 0 0)
(-1.1796964 0 0)
(-1.1619068 0 0)
(-1.1435929 0 0)
(-1.1247313 0 0)
(-1.1052915 0 0)
(-1.0852457 0 0)
(-1.0645649 0 0)
(-1.0432065 0 0)
(-1.0211218 0 0)
(-0.99825673 0 0)
(-0.97454258 0 0)
(-0.94991175 0 0)
(-0.92432096 0 0)
(-0.89770325 0 0)
(-0.86994098 0 0)
(-0.84093083 0 0)
(-0.81062549 0 0)
(-0.77891579 0 0)
(-0.74563084 0 0)
(-0.71070886 0 0)
(-0.67403871 0 0)
(-0.63536652 0 0)
(-0.59444997 0 0)
(-0.55108126 0 0)
(-0.50502941 0 0)
(-0.45602635 0 0)
(-0.40380871 0 0)
(-0.348012 0 0)
(-0.28818865 0 0)
(-0.2239335 0 0)
(-0.15484013 0 0)
(-0.080346415 0 0)
(0 0 0)
(-1.4059598 0 0)
(-1.3973436 0 0)
(-1.3881058 0 0)
(-1.3782434 0 0)
(-1.3677587 0 0)
(-1.3566658 0 0)
(-1.3449889 0 0)
(-1.3327537 0 0)
(-1.3199867 0 0)
(-1.3067109 0 0)
(-1.2929313 0 0)
(-1.2786467 0 0)
(-1.2638674 0 0)
(-1.2486001 0 0)
(-1.2328434 0 0)
(-1.2165941 0 0)
(-1.1998448 0 0)
(-1.1825832 0 0)
(-1.1648004 0 0)
(-1.1464863 0 0)
(-1.1276181 0 0)
(-1.1081648 0 0)
(-1.0881002 0 0)
(-1.0673967 0 0)
(-1.0460123 0 0)
(-1.0238983 0 0)
(-1.0010008 0 0)
(-0.97725043 0 0)
(-0.95257956 0 0)
(-0.92694625 0 0)
(-0.90028353 0 0)
(-0.87247176 0 0)
(-0.84340693 0 0)
(-0.81304335 0 0)
(-0.78127112 0 0)
(-0.74791581 0 0)
(-0.71291324 0 0)
(-0.6761512 0 0)
(-0.63737821 0 0)
(-0.59635407 0 0)
(-0.55287202 0 0)
(-0.50669711 0 0)
(-0.45755518 0 0)
(-0.40518611 0 0)
(-0.34922185 0 0)
(-0.28920707 0 0)
(-0.22473723 0 0)
(-0.15540749 0 0)
(-0.080647412 0 0)
(0 0 0)
(-1.4064356 0 0)
(-1.3981589 0 0)
(-1.3892444 0 0)
(-1.3796843 0 0)
(-1.3694823 0 0)
(-1.3586527 0 0)
(-1.3472146 0 0)
(-1.3351903 0 0)
(-1.3226071 0 0)
(-1.3094896 0 0)
(-1.295846 0 0)
(-1.2816766 0 0)
(-1.2669921 0 0)
(-1.2518009 0 0)
(-1.2361039 0 0)
(-1.2199001 0 0)
(-1.2031819 0 0)
(-1.1859368 0 0)
(-1.1681598 0 0)
(-1.1498439 0 0)
(-1.1309662 0 0)
(-1.1114954 0 0)
(-1.0914067 0 0)
(-1.070675 0 0)
(-1.0492585 0 0)
(-1.027109 0 0)
(-1.0041726 0 0)
(-0.9803785 0 0)
(-0.95565907 0 0)
(-0.92997479 0 0)
(-0.90325885 0 0)
(-0.8753885 0 0)
(-0.84625883 0 0)
(-0.81582673 0 0)
(-0.78398172 0 0)
(-0.75054459 0 0)
(-0.71544858 0 0)
(-0.67858034 0 0)
(-0.63969125 0 0)
(-0.59854338 0 0)
(-0.55493075 0 0)
(-0.50861385 0 0)
(-0.45931181 0 0)
(-0.40676804 0 0)
(-0.35061097 0 0)
(-0.29037648 0 0)
(-0.22566003 0 0)
(-0.15605828 0 0)
(-0.080992214 0 0)
(0 0 0)
(-1.406996 0 0)
(-1.3990985 0 0)
(-1.3905455 0 0)
(-1.3813279 0 0)
(-1.3714502 0 0)
(-1.3609205 0 0)
(-1.3497529 0 0)
(-1.3379701 0 0)
(-1.3255956 0 0)
(-1.312653 0 0)
(-1.2991612 0 0)
(-1.2851247 0 0)
(-1.2705489 0 0)
(-1.255444 0 0)
(-1.2398128 0 0)
(-1.2236552 0 0)
(-1.2069679 0 0)
(-1.1897411 0 0)
(-1.1719701 0 0)
(-1.1536501 0 0)
(-1.1347592 0 0)
(-1.1152655 0 0)
(-1.0951466 0 0)
(-1.0743801 0 0)
(-1.0529249 0 0)
(-1.0307332 0 0)
(-1.0077509 0 0)
(-0.98390556 0 0)
(-0.95912929 0 0)
(-0.93338532 0 0)
(-0.90660749 0 0)
(-0.87866979 0 0)
(-0.8494658 0 0)
(-0.81895504 0 0)
(-0.78702689 0 0)
(-0.75349766 0 0)
(-0.71829586 0 0)
(-0.68130711 0 0)
(-0.6422876 0 0)
(-0.60100135 0 0)
(-0.55724196 0 0)
(-0.51076496 0 0)
(-0.46128288 0 0)
(-0.40854271 0 0)
(-0.35216877 0 0)
(-0.29168794 0 0)
(-0.22669515 0 0)
(-0.15678797 0 0)
(-0.081378304 0 0)
(0 0 0)
(-1.4058816 0 0)
(-1.3983566 0 0)
(-1.3901655 0 0)
(-1.3813028 0 0)
(-1.3717667 0 0)
(-1.361556 0 0)
(-1.3506857 0 0)
(-1.3391809 0 0)
(-1.3270583 0 0)
(-1.3143395 0 0)
(-1.3010486 0 0)
(-1.2871922 0 0)
(-1.2727742 0 0)
(-1.2578051 0 0)
(-1.2422893 0 0)
(-1.2262291 0 0)
(-1.2096254 0 0)
(-1.1924701 0 0)
(-1.1747567 0 0)
(-1.1564797 0 0)
(-1.1376216 0 0)
(-1.1181528 0 0)
(-1.0980513 0 0)
(-1.0772956 0 0)
(-1.0558453 0 0)
(-1.0336539 0 0)
(-1.0106675 0 0)
(-0.98681239 0 0)
(-0.96201966 0 0)
(-0.9362545 0 0)
(-0.90945253 0 0)
(-0.88148516 0 0)
(-0.8522437 0 0)
(-0.82168887 0 0)
(-0.78971231 0 0)
(-0.7561252 0 0)
(-0.72085051 0 0)
(-0.68377378 0 0)
(-0.64465468 0 0)
(-0.60325936 0 0)
(-0.55938121 0 0)
(-0.51277171 0 0)
(-0.46313574 0 0)
(-0.41022313 0 0)
(-0.3536559 0 0)
(-0.29295092 0 0)
(-0.22770146 0 0)
(-0.15750567 0 0)
(-0.081767085 0 0)
(0 0 0)
(-1.4048237 0 0)
(-1.3950788 0 0)
(-1.3847758 0 0)
(-1.3739238 0 0)
(-1.3625294 0 0)
(-1.3506098 0 0)
(-1.3381937 0 0)
(-1.3253091 0 0)
(-1.3119747 0 0)
(-1.2982023 0 0)
(-1.2840001 0 0)
(-1.2693707 0 0)
(-1.2543126 0 0)
(-1.2388224 0 0)
(-1.2228906 0 0)
(-1.2065078 0 0)
(-1.1896645 0 0)
(-1.1723489 0 0)
(-1.1545447 0 0)
(-1.1362337 0 0)
(-1.1173914 0 0)
(-1.0979881 0 0)
(-1.0779907 0 0)
(-1.0573655 0 0)
(-1.0360752 0 0)
(-1.0140635 0 0)
(-0.99127553 0 0)
(-0.96764391 0 0)
(-0.94310569 0 0)
(-0.9176159 0 0)
(-0.89110436 0 0)
(-0.86345696 0 0)
(-0.83457606 0 0)
(-0.80441166 0 0)
(-0.77285398 0 0)
(-0.73975128 0 0)
(-0.70503925 0 0)
(-0.66860386 0 0)
(-0.63018957 0 0)
(-0.58955155 0 0)
(-0.54647363 0 0)
(-0.50073166 0 0)
(-0.45208076 0 0)
(-0.40024549 0 0)
(-0.34487385 0 0)
(-0.28554662 0 0)
(-0.2218493 0 0)
(-0.15336309 0 0)
(-0.079556427 0 0)
(0 0 0)
(-1.4048223 0 0)
(-1.3950987 0 0)
(-1.3848151 0 0)
(-1.3739801 0 0)
(-1.3625997 0 0)
(-1.350691 0 0)
(-1.3382831 0 0)
(-1.3254041 0 0)
(-1.3120729 0 0)
(-1.2983018 0 0)
(-1.2840992 0 0)
(-1.2694677 0 0)
(-1.2544059 0 0)
(-1.2389113 0 0)
(-1.2229752 0 0)
(-1.2065883 0 0)
(-1.1897409 0 0)
(-1.1724209 0 0)
(-1.1546123 0 0)
(-1.1362966 0 0)
(-1.1174496 0 0)
(-1.0980419 0 0)
(-1.0780405 0 0)
(-1.0574115 0 0)
(-1.0361169 0 0)
(-1.0141025 0 0)
(-0.99131263 0 0)
(-0.96768004 0 0)
(-0.94314116 0 0)
(-0.91765044 0 0)
(-0.89113828 0 0)
(-0.86349115 0 0)
(-0.83461059 0 0)
(-0.80444601 0 0)
(-0.7728877 0 0)
(-0.73978207 0 0)
(-0.70506689 0 0)
(-0.66862916 0 0)
(-0.63021333 0 0)
(-0.58957349 0 0)
(-0.54649398 0 0)
(-0.50075146 0 0)
(-0.45209977 0 0)
(-0.4002646 0 0)
(-0.34489237 0 0)
(-0.28556202 0 0)
(-0.22186103 0 0)
(-0.15337265 0 0)
(-0.079562979 0 0)
(0 0 0)
(-1.4048099 0 0)
(-1.3951547 0 0)
(-1.3849352 0 0)
(-1.374159 0 0)
(-1.3628318 0 0)
(-1.3509704 0 0)
(-1.3386037 0 0)
(-1.3257603 0 0)
(-1.3124594 0 0)
(-1.2987138 0 0)
(-1.284532 0 0)
(-1.2699168 0 0)
(-1.2548677 0 0)
(-1.2393821 0 0)
(-1.2234531 0 0)
(-1.2070719 0 0)
(-1.1902281 0 0)
(-1.1729097 0 0)
(-1.1551012 0 0)
(-1.1367846 0 0)
(-1.1179356 0 0)
(-1.0985245 0 0)
(-1.0785192 0 0)
(-1.0578863 0 0)
(-1.0365862 0 0)
(-1.0145667 0 0)
(-0.99177258 0 0)
(-0.96813588 0 0)
(-0.94359192 0 0)
(-0.9180953 0 0)
(-0.89157743 0 0)
(-0.86392458 0 0)
(-0.83503692 0 0)
(-0.804864 0 0)
(-0.773297 0 0)
(-0.74017874 0 0)
(-0.70544862 0 0)
(-0.6689953 0 0)
(-0.63056258 0 0)
(-0.5899039 0 0)
(-0.5468049 0 0)
(-0.50104268 0 0)
(-0.45236819 0 0)
(-0.40050848 0 0)
(-0.34510862 0 0)
(-0.28574432 0 0)
(-0.22200472 0 0)
(-0.15347532 0 0)
(-0.07961889 0 0)
(0 0 0)
(-1.4048785 0 0)
(-1.395339 0 0)
(-1.3852283 0 0)
(-1.3745527 0 0)
(-1.3633175 0 0)
(-1.351539 0 0)
(-1.3392458 0 0)
(-1.3264666 0 0)
(-1.3132217 0 0)
(-1.2995243 0 0)
(-1.2853827 0 0)
(-1.2708005 0 0)
(-1.2557779 0 0)
(-1.2403133 0 0)
(-1.2244008 0 0)
(-1.2080322 0 0)
(-1.1911975 0 0)
(-1.1738843 0 0)
(-1.1560781 0 0)
(-1.1377615 0 0)
(-1.1189104 0 0)
(-1.0994949 0 0)
(-1.0794837 0 0)
(-1.0588438 0 0)
(-1.037535 0 0)
(-1.0155063 0 0)
(-0.99270241 0 0)
(-0.96905578 0 0)
(-0.94450055 0 0)
(-0.91899118 0 0)
(-0.89245984 0 0)
(-0.86479267 0 0)
(-0.83588879 0 0)
(-0.80569777 0 0)
(-0.77411107 0 0)
(-0.74096869 0 0)
(-0.70621055 0 0)
(-0.66972573 0 0)
(-0.6312585 0 0)
(-0.59056248 0 0)
(-0.5474246 0 0)
(-0.50162121 0 0)
(-0.45289977 0 0)
(-0.40098921 0 0)
(-0.34553254 0 0)
(-0.28610125 0 0)
(-0.22228637 0 0)
(-0.15367537 0 0)
(-0.079726233 0 0)
(0 0 0)
(-1.405028 0 0)
(-1.3956512 0 0)
(-1.3856937 0 0)
(-1.3751602 0 0)
(-1.3640554 0 0)
(-1.352395 0 0)
(-1.3402074 0 0)
(-1.3275215 0 0)
(-1.3143582 0 0)
(-1.3007315 0 0)
(-1.2866499 0 0)
(-1.2721174 0 0)
(-1.2571356 0 0)
(-1.2417034 0 0)
(-1.2258164 0 0)
(-1.2094676 0 0)
(-1.1926472 0 0)
(-1.1753427 0 0)
(-1.1575407 0 0)
(-1.1392249 0 0)
(-1.1203714 0 0)
(-1.1009498 0 0)
(-1.08093 0 0)
(-1.0602805 0 0)
(-1.0389591 0 0)
(-1.0169165 0 0)
(-0.99409801 0 0)
(-0.97043543 0 0)
(-0.94586198 0 0)
(-0.92033276 0 0)
(-0.89378058 0 0)
(-0.86609052 0 0)
(-0.83716066 0 0)
(-0.80694149 0 0)
(-0.77532467 0 0)
(-0.74214629 0 0)
(-0.7073466 0 0)
(-0.67081529 0 0)
(-0.63229644 0 0)
(-0.59154452 0 0)
(-0.5483484 0 0)
(-0.50248286 0 0)
(-0.45369074 0 0)
(-0.40170305 0 0)
(-0.34616097 0 0)
(-0.28663039 0 0)
(-0.22270387 0 0)
(-0.15397097 0 0)
(-0.079884091 0 0)
(0 0 0)
(-1.4052579 0 0)
(-1.39609 0 0)
(-1.3863295 0 0)
(-1.3759792 0 0)
(-1.3650432 0 0)
(-1.3535363 0 0)
(-1.3414864 0 0)
(-1.3289222 0 0)
(-1.3158661 0 0)
(-1.302333 0 0)
(-1.2883313 0 0)
(-1.2738653 0 0)
(-1.258938 0 0)
(-1.2435498 0 0)
(-1.2276974 0 0)
(-1.2113753 0 0)
(-1.1945741 0 0)
(-1.1772815 0 0)
(-1.1594851 0 0)
(-1.1411703 0 0)
(-1.1223136 0 0)
(-1.1028841 0 0)
(-1.082853 0 0)