/*--------------------------------*- C++ -*----------------------------------*\
| =========                 |                                                 |
| \\      /  F ield         | OpenFOAM: The Open Source CFD Toolbox           |
|  \\    /   O peration     | Version:  v2012                                 |
|   \\  /    A nd           | Website:  www.openfoam.com                      |
|    \\/     M anipulation  |                                                 |
\*---------------------------------------------------------------------------*/
FoamFile
{
    version     2.0;
    format      ascii;
    class       volVectorField;
    location    "92.6076404136068163";
    object      U;
}
// * * * * * * * * * * * * * * * * * * * * * * * * * * * * * * * * * * * * * //

dimensions      [0 1 -1 0 0 0 0];


internalField   nonuniform List<vector> 
9200
(
(2.5331081 -0.00083328876 6.402622e-24)
(2.5314559 -0.0026967916 2.5752743e-22)
(2.5364209 -0.0016730767 -4.5110368e-22)
(2.5296155 -0.0049397017 -8.1763812e-22)
(2.5354285 -0.0055371406 3.8299617e-22)
(2.5398347 -0.0019459826 -8.4700626e-23)
(2.5266665 -0.0079123699 2.3124244e-23)
(2.5345782 -0.009209843 6.4931975e-22)
(2.5391233 -0.0063521213 3.4011584e-23)
(2.5437305 -0.002240908 1.2293552e-22)
(2.5235213 -0.011449576 1.5016343e-23)
(2.5330534 -0.013542432 2.0878022e-22)
(2.5385276 -0.010427011 -2.164491e-22)
(2.5433477 -0.0072242111 -5.8473704e-22)
(2.5478731 -0.0024036361 -1.8955917e-22)
(2.5200514 -0.015857995 -5.4944595e-22)
(2.531552 -0.01795673 -2.2028167e-22)
(2.5374483 -0.015122716 -7.7503224e-22)
(2.5431339 -0.011737308 -5.7820168e-22)
(2.5477474 -0.0077057014 1.7096912e-22)
(2.5520336 -0.002489927 9.6123322e-23)
(2.5166153 -0.020854199 8.6477485e-22)
(2.5299469 -0.022988647 6.1570684e-22)
(2.5363964 -0.019740522 4.2082028e-22)
(2.5426401 -0.016833032 3.3379264e-22)
(2.5478104 -0.012457352 3.1499713e-22)
(2.5521499 -0.0079705396 1.5363389e-22)
(2.5561257 -0.0025074602 -1.091881e-22)
(2.5132778 -0.026561957 -8.7720321e-22)
(2.5284739 -0.02821462 1.1311683e-22)
(2.5352862 -0.024874057 1.920338e-22)
(2.5422092 -0.02169438 5.1312489e-22)
(2.5477469 -0.017778547 4.4918958e-22)
(2.5524822 -0.012850476 6.1066868e-23)
(2.556465 -0.0080329504 2.6784347e-22)
(2.5600462 -0.002466528 1.7465289e-22)
(2.5101809 -0.03277715 5.7732455e-23)
(2.5271927 -0.033846189 -3.7388118e-21)
(2.5342995 -0.030049677 -2.6468659e-21)
(2.5417595 -0.026968807 2.4352943e-22)
(2.547745 -0.022787843 6.1119435e-22)
(2.5528372 -0.018311337 -4.0448388e-22)
(2.557056 -0.01293522 5.8999886e-23)
(2.560598 -0.0079305903 7.4140127e-23)
(2.5637327 -0.0023730541 -8.7768355e-22)
(2.5073744 -0.039498592 1.4773808e-21)
(2.5262155 -0.03968008 9.9607505e-22)
(2.5334988 -0.035475003 -1.5449653e-22)
(2.5413964 -0.032130711 -5.0704601e-22)
(2.5477222 -0.028164719 1.6005359e-22)
(2.5532572 -0.023437455 4.9292774e-22)
(2.5578226 -0.0184485 -9.2957848e-22)
(2.5614544 -0.012766069 2.9993394e-22)
(2.5644897 -0.0076806579 0)
(2.5671304 -0.0022342136 2.5117725e-23)
(2.5048923 -0.046612419 -8.0037188e-22)
(2.5256195 -0.045771593 1.5622301e-21)
(2.5329958 -0.040915907 2.3607251e-21)
(2.5411478 -0.037378287 1.7050408e-21)
(2.5477026 -0.033359392 -6.4067196e-22)
(2.5536593 -0.028940957 4.2688956e-22)
(2.5586724 -0.023652256 6.8360809e-23)
(2.5626527 -0.018248264 -3.1289463e-22)
(2.5656171 -0.012368029 9.4031315e-22)
(2.5680881 -0.007297567 4.561035e-23)
(2.5702013 -0.0020589703 -1.8825701e-22)
(2.5027379 -0.05411098 -6.4810953e-22)
(2.5254947 -0.052044546 -2.3790778e-22)
(2.532885 -0.046377709 -9.7828766e-22)
(2.5410814 -0.042437008 6.9518427e-22)
(2.5476647 -0.038564419 6.3742628e-22)
(2.5539817 -0.034276499 -1.5745086e-21)
(2.5595352 -0.029290713 5.5554032e-22)
(2.5639816 -0.023474262 -2.9269941e-22)
(2.5672647 -0.017726945 2.1899641e-22)
(2.5694864 -0.011760954 -8.5395473e-22)
(2.5713537 -0.0067995267 2.0365135e-22)
(2.572922 -0.0018579867 5.0002113e-23)
(2.5008556 -0.061941639 8.9297827e-22)
(2.5259074 -0.058589331 -1.5022186e-21)
(2.5332918 -0.051746158 -1.3726088e-21)
(2.5412665 -0.047255289 -2.8281788e-21)
(2.5476115 -0.043476372 -1.3402173e-21)
(2.5541475 -0.039649384 5.8319759e-23)
(2.5602717 -0.034851209 2.2380879e-21)
(2.5654011 -0.029216112 6.7251296e-23)
(2.5691224 -0.022890805 -1.7730502e-22)
(2.5715855 -0.016896025 1.1492043e-21)
(2.5730118 -0.010965778 -2.5368379e-21)
(2.5742566 -0.0062130799 -1.0720452e-21)
(2.5752862 -0.0016419452 -6.9801579e-22)
(2.4992384 -0.070123192 -1.1229242e-23)
(2.5269123 -0.065329248 4.5035581e-22)
(2.5343064 -0.057051279 4.3983305e-22)
(2.541795 -0.051692897 1.0620615e-21)
(2.5475498 -0.048015151 -5.0096327e-22)
(2.5540795 -0.044760141 4.8016232e-23)
(2.5607637 -0.040573395 3.8271906e-22)
(2.566713 -0.035013909 -9.965421e-23)
(2.571197 -0.028647294 2.6536381e-22)
(2.5740024 -0.021886319 5.2531101e-22)
(2.5755391 -0.015774193 -9.4501309e-23)
(2.5761506 -0.010011336 1.3858437e-21)
(2.5767791 -0.0055694932 3.136061e-23)
(2.5773011 -0.0014195149 -1.3859293e-21)
(2.4977641 -0.078661198 -2.1204786e-21)
(2.5286377 -0.072524889 2.2713884e-21)
(2.5361252 -0.062082743 2.9624572e-22)
(2.5427497 -0.055621853 8.6035599e-22)
(2.5474903 -0.052004745 2.0029651e-21)
(2.5536945 -0.049537332 -6.2783084e-23)
(2.5608614 -0.046203197 -4.6046297e-21)
(2.5677837 -0.041155613 -7.4584708e-22)
(2.5732568 -0.034598934 1.6062815e-23)
(2.576801 -0.027515753 6.0707517e-22)
(2.5785094 -0.020463665 5.7110014e-22)
(2.5790567 -0.014398452 5.6294541e-22)
(2.5788722 -0.0089349844 2.2772803e-21)
(2.5789165 -0.0048969908 -1.3503225e-21)
(2.578985 -0.0011964906 2.6584687e-21)
(2.4963177 -0.087603391 1.8238912e-21)
(2.5310923 -0.080058365 3.9565879e-22)
(2.5388746 -0.067207308 6.7983565e-22)
(2.5443596 -0.058787609 -1.3159919e-21)
(2.5474906 -0.055158074 -4.2244514e-21)
(2.5529077 -0.053757801 -7.4001284e-22)
(2.5604031 -0.051715013 1.5596931e-21)
(2.5684161 -0.047458196 -2.1498531e-21)
(2.5751823 -0.041083444 -2.3939941e-21)
(2.5797417 -0.033447959 1.0212058e-21)
(2.5820445 -0.02579115 1.9366583e-21)
(2.5825332 -0.018661079 -1.2191737e-21)
(2.5820876 -0.012824975 -1.0878438e-21)
(2.5811621 -0.0077793925 -3.1706409e-24)
(2.5806776 -0.0042153095 6.1008689e-23)
(2.5803615 -0.00097682406 5.6119734e-21)
(2.494835 -0.09696151 1.4725567e-21)
(2.5342958 -0.088296579 -4.6627342e-21)
(2.5427549 -0.071884066 3.6059119e-21)
(2.5465693 -0.061517886 -3.6894115e-22)
(2.5476367 -0.057410348 4.8028837e-21)
(2.5516807 -0.057142209 1.3440181e-21)
(2.5592211 -0.05691677 -1.5215238e-21)
(2.5684054 -0.053964477 3.0388955e-21)
(2.5767632 -0.047997991 -5.6026494e-22)
(2.5827471 -0.040058372 1.2766944e-21)
(2.5859182 -0.031469983 -1.1909246e-22)
(2.5867514 -0.023507114 1.4064433e-21)
(2.5859858 -0.016553788 2.451843e-21)
(2.5846066 -0.011123015 -4.2065464e-21)
(2.5830247 -0.0065876372 -1.2143736e-21)
(2.5820837 -0.0035367423 1.8308426e-21)
(2.5814493 -0.00076342966 -3.0419953e-22)
(2.4931811 -0.10681202 1.9112821e-21)
(2.5383251 -0.097230807 -6.4018887e-21)
(2.5479298 -0.076732866 -1.3461814e-22)
(2.5497109 -0.062927714 -7.1546664e-22)
(2.5477415 -0.058651849 5.9780341e-22)
(2.5498743 -0.059823215 -6.4976514e-22)
(2.557143 -0.061676468 -2.6012395e-21)
(2.5675287 -0.060572262 4.9280193e-21)
(2.5777922 -0.055467582 9.9229855e-22)
(2.5856286 -0.047318531 -2.2483074e-21)
(2.5901154 -0.037889755 1.9664026e-21)
(2.5915119 -0.028680805 2.07213e-21)
(2.5907736 -0.020763599 -2.6129356e-21)
(2.5888165 -0.014244361 -2.2206518e-22)
(2.5866174 -0.0093653435 7.0087148e-22)
(2.584483 -0.0053987474 0)
(2.5831643 -0.0028695957 1.6334092e-21)
(2.5822703 -0.00055694479 -4.0359332e-21)
(2.4912379 -0.11720952 1.2504874e-22)
(2.5432169 -0.10711608 1.3287785e-21)
(2.55449 -0.08147181 -4.9347903e-21)
(2.5540741 -0.063628143 3.0229721e-21)
(2.5480349 -0.058324554 3.2794234e-21)
(2.5475241 -0.060454736 7.0225275e-21)
(2.5539366 -0.065842375 3.2687938e-21)
(2.5655372 -0.06723811 -2.2967043e-21)
(2.5780284 -0.063494729 -2.0879241e-21)
(2.5882171 -0.055431274 -4.8864179e-21)
(2.5944978 -0.045076017 4.4866678e-21)
(2.5968693 -0.034555335 -5.2831802e-22)
(2.5962804 -0.025207706 9.9663171e-22)
(2.5940174 -0.017711063 -1.2139386e-22)
(2.591018 -0.011846489 -2.4067961e-21)
(2.588149 -0.0076187051 1.4402627e-21)
(2.5855744 -0.0042444893 -9.1213971e-22)
(2.583952 -0.0022187865 -1.8457464e-21)
(2.5828693 -0.00035536148 -3.4322737e-21)
(2.4889437 -0.12817596 -4.9090433e-21)
(2.5489715 -0.11808289 1.4002568e-20)
(2.5626674 -0.086301764 -5.102462e-21)
(2.5596406 -0.063248462 -1.0995466e-21)
(2.5488386 -0.056182531 6.5327077e-22)
(2.5445315 -0.060742878 4.9862075e-21)
(2.5496543 -0.069052922 -3.963368e-21)
(2.5621969 -0.073824842 -6.1261072e-21)
(2.5772091 -0.072123834 2.9455577e-21)
(2.5903021 -0.064497089 6.2492633e-21)
(2.5989709 -0.053285063 -2.5060617e-21)
(2.6027524 -0.041178849 1.3612342e-21)
(2.6026247 -0.030211355 2.1669748e-21)
(2.6000596 -0.021265679 -1.4599308e-21)
(2.5964568 -0.014523389 0)
(2.5926239 -0.0094676444 -1.978987e-21)
(2.58925 -0.0059365247 1.0743927e-21)
(2.5863455 -0.0031469384 7.1261103e-23)
(2.5844822 -0.0015910754 -1.4554795e-21)
(2.5832633 -0.00013309211 2.6897161e-22)
(2.4861302 -0.13976082 -6.3102778e-22)
(2.5555705 -0.13028834 0)
(2.5726187 -0.091314288 5.5277004e-21)
(2.5666438 -0.061710016 -4.7074464e-21)
(2.5501402 -0.052491726 -7.0929167e-21)
(2.5408345 -0.058937742 -1.5446819e-20)
(2.5440344 -0.071326814 -6.7969328e-21)
(2.5572709 -0.08029504 -1.814691e-23)
(2.5750695 -0.081363246 -5.1957746e-21)
(2.5916547 -0.074668131 4.3832237e-21)
(2.6033989 -0.062693478 -9.8405251e-21)
(2.6091642 -0.048821731 3.1440582e-21)
(2.6098027 -0.035809124 -2.7044096e-21)
(2.6071067 -0.025159685 -7.1562132e-23)
(2.6027882 -0.017114764 -4.0951441e-22)
(2.5981306 -0.011368272 8.66122e-23)
(2.5936994 -0.0071951671 -9.2825177e-22)
(2.5899798 -0.0043553897 -7.8342747e-23)
(2.5868453 -0.0021176144 9.4980709e-22)
(2.5847998 -0.0010024406 2.7764935e-21)
(2.5834044 0.00011458474 3.0498651e-21)
(2.4826467 -0.15200455 -1.0896417e-20)
(2.5629949 -0.14389706 3.7095978e-22)
(2.5844736 -0.096611649 4.9932466e-21)
(2.5752712 -0.058996712 6.4662702e-21)
(2.5519656 -0.046828509 -6.1861942e-22)
(2.5365601 -0.055217222 -3.7576345e-21)
(2.5367485 -0.072299096 9.1943368e-21)
(2.5505153 -0.086366464 8.2433606e-21)
(2.5713038 -0.091207248 1.9998086e-21)
(2.5920193 -0.08607397 -9.6760575e-21)
(2.607634 -0.073543831 7.827575e-21)
(2.6160744 -0.057696278 0)
(2.6179172 -0.042237875 3.6930561e-23)
(2.6152054 -0.029381477 -2.5005775e-22)
(2.6101946 -0.019783769 -1.6463154e-21)
(2.604508 -0.013011668 -1.1152946e-21)
(2.5991289 -0.0083830265 -5.0875446e-23)
(2.5943285 -0.0050886352 2.1764393e-21)
(2.5904014 -0.0028953631 -3.343188e-21)
(2.5871166 -0.0011601104 1.9944884e-21)
(2.5849488 -0.00045930868 2.0183805e-21)
(2.5834117 0.00030124242 2.5916028e-23)
(2.4785164 -0.16494916 7.9665161e-21)
(2.5711877 -0.15900623 1.5657484e-20)
(2.5983097 -0.10230765 -6.5545561e-21)
(2.5856616 -0.055051468 2.209716e-21)
(2.5544295 -0.039085932 3.256781e-21)
(2.5316383 -0.049378601 1.0245535e-20)
(2.5278164 -0.07181835 5.9417162e-21)
(2.5416919 -0.0920179 2.0283619e-22)
(2.5656338 -0.10163865 1.268488e-20)
(2.5911232 -0.098832578 -6.7056345e-21)
(2.6114982 -0.086071686 8.6409182e-21)
(2.6234579 -0.068092431 -4.180549e-21)
(2.6270527 -0.049691469 3.4625188e-21)
(2.6245374 -0.034088832 1.6282645e-22)
(2.6187421 -0.022451599 5.6716175e-22)
(2.6119286 -0.014471941 -1.7277393e-21)
(2.6053445 -0.0091689178 -3.7610222e-22)
(2.5995729 -0.0056608992 1.3973313e-21)
(2.5946013 -0.0031790321 2.4726695e-21)
(2.5905757 -0.0015622795 -2.1587179e-21)
(2.5871925 -0.00027508799 -2.0220561e-21)
(2.5849476 5.8015204e-05 -1.1802212e-21)
(2.5832989 0.00044445886 -9.6838349e-22)
(2.473674 -0.17859461 6.0595224e-21)
(2.5800663 -0.17568753 -2.5188888e-20)
(2.6140849 -0.10852187 -1.2870475e-21)
(2.5979148 -0.049827064 -1.6160114e-20)
(2.5576058 -0.029194681 2.3845851e-21)
(2.5260752 -0.041210446 -1.056449e-21)
(2.5171752 -0.069713883 -4.2543598e-21)
(2.5306042 -0.097084925 -3.819346e-21)
(2.5578054 -0.11260524 -2.8195073e-21)
(2.588678 -0.11305603 -2.3065419e-21)
(2.6147879 -0.10052296 -7.4370919e-21)
(2.6312673 -0.080314439 5.0134573e-21)
(2.6373265 -0.058444524 0)
(2.6352824 -0.039401059 4.505543e-21)
(2.6286508 -0.025165602 -2.3464409e-21)
(2.6204414 -0.01559878 1.3614667e-21)
(2.6124832 -0.0095499561 1.6394093e-21)
(2.6054743 -0.0057308212 -9.8378431e-22)
(2.5995936 -0.0032488303 -1.6995008e-22)
(2.5946023 -0.0014727702 6.347327e-24)
(2.5905579 -0.00035045537 2.3210072e-21)
(2.5871084 0.00054022595 -1.5080738e-22)
(2.5848 0.00055440361 -1.7563163e-21)
(2.5830388 0.00061479493 8.1817707e-23)
(2.4676363 -0.19272756 -4.6128076e-21)
(2.5887897 -0.19368249 -2.0430004e-20)
(2.6310687 -0.11534141 -1.5927896e-20)
(2.6120854 -0.043280545 9.8726357e-22)
(2.5615466 -0.01703325 8.637485e-22)
(2.5198776 -0.030625092 -3.2919884e-21)
(2.5047511 -0.065795894 -1.3914095e-21)
(2.5171192 -0.10144664 3.8435688e-22)
(2.5475629 -0.12404731 6.7959141e-22)
(2.5843915 -0.12880724 8.3397008e-22)
(2.6172696 -0.11712927 -7.3862988e-22)
(2.6394317 -0.094697369 2.5599951e-21)
(2.6488536 -0.068801629 -1.6370367e-21)
(2.6476842 -0.045505678 2.1972422e-21)
(2.6401486 -0.027928777 -1.3755272e-21)
(2.6302547 -0.016320794 -4.3677048e-21)
(2.6205444 -0.0093167758 -2.0676037e-21)
(2.6121176 -0.0052393188 -3.1014364e-21)
(2.605092 -0.0027681183 4.749145e-21)
(2.5993162 -0.0011537578 1.0777814e-21)
(2.5944044 4.1788776e-05 1.2511997e-21)
(2.5903903 0.00075402884 2.5938355e-21)
(2.5869038 0.0012946563 -3.891529e-22)
(2.5845305 0.0010117827 1.5753898e-21)
(2.5826704 0.00077229355 -1.0144071e-21)
(2.4597678 -0.20721494 0)
(2.5956721 -0.21271483 3.2487707e-20)
(2.6466612 -0.12269153 5.4811226e-20)
(2.6276398 -0.03544167 6.8751756e-21)
(2.5662832 -0.0025257593 5.918012e-21)
(2.5130699 -0.017473934 -1.8899e-21)
(2.4904996 -0.059950691 0)
(2.5011299 -0.10497044 4.5916524e-22)
(2.5347023 -0.13587637 9.4847434e-22)
(2.5779828 -0.14612065 2.0198496e-20)
(2.6186839 -0.13610092 -7.0782923e-22)
(2.6478449 -0.11158745 -2.9754234e-21)
(2.661747 -0.081119226 6.8121579e-22)
(2.6620117 -0.052620969 5.7671669e-22)
(2.6535509 -0.030783205 -1.4406738e-22)
(2.6415824 -0.016511477 -7.0663516e-21)
(2.6296786 -0.0082952185 -1.4550107e-21)
(2.6194303 -0.0039425079 2.7789475e-22)
(2.6111214 -0.0016460891 -1.131564e-21)
(2.6043821 -0.00028710174 5.5678517e-21)
(2.5988488 0.00064733221 2.7749702e-21)
(2.5940701 0.0013871898 6.0183182e-23)
(2.5901027 0.00176759 -1.5962733e-21)
(2.5865997 0.0019992354 2.1039451e-21)
(2.5841631 0.0014319234 8.6441767e-23)
(2.5822236 0.0008999552 1.6074121e-22)
(2.4500529 -0.22189602 -1.084795e-20)
(2.6005225 -0.23236926 0)
(2.6599579 -0.13067332 4.3943105e-20)
(2.6430852 -0.026415528 -2.6119778e-20)
(2.5713398 0.014249725 1.0259128e-20)
(2.5056179 -0.0017572731 -1.4364908e-20)
(2.4744199 -0.05205917 1.2183669e-21)
(2.4825755 -0.10754765 2.0508419e-20)
(2.5190734 -0.14799004 -1.7466704e-20)
(2.5691893 -0.16498235 -1.3117489e-21)
(2.6187493 -0.15761035 1.0490121e-21)
(2.6563616 -0.13133203 -3.9252367e-21)
(2.6760972 -0.095790478 3.5146234e-21)
(2.6785675 -0.061024087 -3.2253887e-22)
(2.6692206 -0.033782588 4.611758e-21)
(2.6547315 -0.01604432 -8.5654321e-22)
(2.6400264 -0.0062485696 1.6052864e-22)
(2.6274742 -0.00159747 -3.0352158e-21)
(2.6175297 0.00036631057 8.0892247e-22)
(2.6097694 0.0012258712 4.7092798e-21)
(2.6035011 0.0017531709 -6.7733746e-21)
(2.598274 0.0021964232 -6.6327465e-21)
(2.5936474 0.0025916919 -5.6621094e-21)
(2.5897222 0.0027042023 -8.0637595e-22)
(2.5862051 0.002661287 1.0508552e-21)
(2.5837068 0.0018320741 -1.5459109e-22)
(2.5816977 0.0010253085 1.9522863e-22)
(2.4371995 -0.23667365 4.184011e-21)
(2.6035951 -0.25277523 3.7269618e-20)
(2.6725359 -0.13885812 -5.0050603e-20)
(2.656898 -0.016438557 -6.20953e-21)
(2.5755302 0.033293785 -1.9328101e-21)
(2.4970932 0.01652359 -8.7474958e-21)
(2.4565035 -0.042093826 0)
(2.4614528 -0.10908572 -3.1417544e-21)
(2.5005821 -0.1602684 -7.550011e-21)
(2.5577846 -0.18533541 -1.9740408e-20)
(2.6171729 -0.18177337 5.9252766e-21)
(2.6647848 -0.15426163 5.2055925e-21)
(2.691965 -0.11324644 4.1879969e-21)
(2.6976616 -0.071036277 7.9556203e-23)
(2.6875894 -0.037024844 7.5045309e-22)
(2.6700636 -0.014771044 -1.5584167e-21)
(2.6518079 -0.0029009346 2.688136e-21)
(2.6362758 0.0020990272 1.5806161e-21)
(2.6242786 0.0035380905 3.2891315e-21)
(2.6152499 0.0036117006 1.6980324e-22)
(2.6082898 0.0034478463 -2.3965912e-21)
(2.6025683 0.0034218034 -3.8016675e-21)
(2.5976513 0.0035420727 -2.2375365e-21)
(2.5931666 0.0036857479 2.0492298e-21)
(2.5892705 0.0035791385 1.0669099e-21)
(2.5857327 0.0032881909 -3.0660027e-21)
(2.5831734 0.0022189635 1.819016e-21)
(2.5811038 0.0011452557 1.5933551e-22)
(2.4211933 -0.25112475 2.7618007e-20)
(2.6000316 -0.2733468 3.8913594e-20)
(2.6831089 -0.14797262 -5.8375932e-20)
(2.6701598 -0.0058849768 -5.353003e-20)
(2.5787411 0.054355508 -1.7836934e-20)
(2.486658 0.037227657 1.3277447e-20)
(2.4367061 -0.030036229 -1.2800265e-20)
(2.4378033 -0.10954398 -1.869371e-20)
(2.4792056 -0.17258443 -3.230798e-20)
(2.5435868 -0.20706665 -2.9769919e-21)
(2.6136571 -0.20864979 1.2013091e-20)
(2.6728747 -0.18067115 3.4755135e-21)
(2.7093534 -0.13393555 -3.7394979e-21)
(2.7196185 -0.083047427 -2.4882485e-21)
(2.7091262 -0.040621938 -2.6155088e-21)
(2.688021 -0.012557318 -9.6675387e-22)
(2.6652844 0.0020749938 -3.8531987e-21)
(2.6459151 0.0075172776 1.1322335e-21)
(2.6312666 0.008185081 1.4690937e-22)
(2.6206931 0.0071257526 3.1423089e-21)
(2.6129246 0.0059128648 1.1751869e-21)
(2.6068506 0.0051350656 -2.961621e-21)
(2.6016641 0.0048010462 2.6345783e-21)
(2.5970207 0.0047332464 2.8809472e-21)
(2.5926472 0.0046963166 2.7311524e-21)
(2.5887611 0.0044058929 3.4813495e-21)
(2.5851941 0.0038862225 1.8282314e-22)
(2.5825743 0.002592119 -1.7322787e-21)
(2.5804512 0.0012582031 7.9217252e-22)
(2.4032983 -0.26548229 1.5691427e-20)
(2.5938728 -0.29431501 -4.5167327e-20)
(2.6874317 -0.15790606 9.6659082e-21)
(2.6874315 0.0043810007 2.9992079e-20)
(2.5837961 0.076638663 5.7898738e-21)
(2.4751752 0.060052559 8.9498051e-21)
(2.414859 -0.016112685 4.2544051e-21)
(2.4117518 -0.10888368 -1.0337802e-20)
(2.4549885 -0.18481989 6.0739057e-21)
(2.5264777 -0.23002311 1.3415525e-20)
(2.6079157 -0.23821584 -8.1257172e-21)
(2.6803393 -0.21080867 -4.3463076e-21)
(2.7282128 -0.15831859 2.7971908e-21)
(2.7447185 -0.097490661 -9.9878562e-22)
(2.7343718 -0.044768302 -5.4462666e-21)
(2.7091012 -0.0092227739 -1.6872544e-21)
(2.6807727 0.0090299892 -2.257107e-21)
(2.6564812 0.015085105 -1.2781979e-21)
(2.6384174 0.014699762 -1.1920736e-21)
(2.6258829 0.012046768 5.0820801e-21)
(2.6172032 0.0093613402 -6.9202769e-22)
(2.6107913 0.0074566874 5.590766e-21)
(2.6055597 0.0064198903 3.3998911e-21)
(2.6008352 0.0059721589 -4.4679396e-21)
(2.5964042 0.0058147278 -1.958136e-21)
(2.5921013 0.0056458809 -3.3160905e-21)
(2.5882035 0.0051947409 -5.0562069e-22)
(2.5845985 0.0044592901 -2.5565813e-22)
(2.5819182 0.0029515424 -1.2522406e-21)
(2.5797481 0.0013649576 7.5095947e-22)
(2.3799084 -0.28046727 -9.0152035e-21)
(2.585956 -0.31413514 -4.8009883e-20)
(2.6851312 -0.16920699 8.0323947e-20)
(2.7010625 0.014210644 1.2279318e-19)
(2.5931338 0.10039036 -5.0779562e-20)
(2.464749 0.084541065 -3.4742957e-21)
(2.3912472 -0.00049899394 -3.3124265e-21)
(2.3834741 -0.10718098 2.997868e-20)
(2.4280438 -0.19683571 8.9432843e-20)
(2.5063896 -0.25400407 1.1161353e-20)
(2.5996802 -0.27038615 -1.3415216e-20)
(2.6868484 -0.24484367 7.1590298e-21)
(2.7484078 -0.18684235 3.7640878e-21)
(2.7732325 -0.11486215 2.4674786e-21)
(2.763844 -0.049678377 3.8160825e-22)
(2.7338856 -0.0046674156 2.5192988e-21)
(2.6986528 0.018401734 -2.018719e-21)
(2.6680771 0.025295266 2.7163296e-21)
(2.6456247 0.023519238 -2.5251094e-21)
(2.6306034 0.01872257 -1.4863406e-21)
(2.6208252 0.013998358 -3.6772754e-22)
(2.6141416 0.010541634 -4.2901231e-21)
(2.6089913 0.0084533109 -3.2412067e-21)
(2.6044714 0.0074312313 3.9102119e-21)
(2.6001014 0.0070069679 6.1826771e-22)
(2.5958102 0.0068234444 9.4111992e-22)
(2.591535 0.0065516768 -3.6594741e-22)
(2.5876041 0.0059527874 -1.5923663e-21)
(2.5839532 0.0050098418 7.365599e-22)
(2.5812131 0.003297496 6.2674326e-22)
(2.5790019 0.0014656701 -7.5006468e-22)
(2.3503775 -0.29683394 -3.0960392e-21)
(2.5706571 -0.33571889 -9.2776851e-20)
(2.6772252 -0.17768175 0)
(2.6950169 0.023179637 2.3875603e-21)
(2.5998199 0.12607843 9.1594741e-20)
(2.4542971 0.11150838 6.6535878e-21)
(2.3665958 0.016552031 2.2124735e-20)
(2.3530831 -0.10443842 -2.2197692e-20)
(2.3985316 -0.20852949 -5.8542037e-21)
(2.4832952 -0.27875491 2.141868e-21)
(2.5886715 -0.30495851 2.1842849e-21)
(2.6919984 -0.28287586 5.619108e-21)
(2.76971 -0.21991894 1.6123119e-20)
(2.8053424 -0.13568915 5.3170895e-21)
(2.7981288 -0.055635857 -1.8642824e-21)
(2.7629874 0.0012683677 1.0088772e-21)
(2.7193253 0.030605467 -1.2423819e-21)
(2.6808426 0.038712011 3.0211855e-21)
(2.6527638 0.035157969 2.4745379e-21)
(2.6345808 0.027521777 5.8116007e-21)
(2.6234756 0.020082037 -6.9035574e-23)
(2.6165547 0.014503078 -4.0479563e-21)
(2.611691 0.010993336 5.639199e-21)
(2.607584 0.0091030691 -3.6416683e-21)
(2.6035994 0.0082811833 9.2434119e-22)
(2.5994635 0.0079636437 4.3732093e-21)
(2.5952387 0.0077873845 2.3306333e-22)
(2.5909504 0.007425774 1.2912172e-21)
(2.5869675 0.0066844983 -1.3069899e-21)
(2.5832647 0.0055391997 1.0430033e-21)
(2.5804661 0.0036298465 -1.3971044e-21)
(2.5782197 0.0015604331 -2.0776205e-22)
(2.3159157 -0.31377307 -7.0855887e-21)
(2.5474481 -0.35950494 -1.1259617e-21)
(2.663038 -0.1873837 -4.9024805e-20)
(2.6756859 0.034334791 1.5791628e-19)
(2.5829953 0.15198484 -4.9165303e-20)
(2.4399708 0.14080209 -1.1196858e-20)
(2.3412519 0.035623979 -1.4948854e-20)
(2.3207814 -0.10088275 4.2745187e-20)
(2.3666743 -0.21972338 -4.2037644e-20)
(2.4572555 -0.30403434 -1.7329726e-20)
(2.574687 -0.34168493 8.1220369e-21)
(2.6953389 -0.32485025 5.6935833e-21)
(2.791734 -0.25790036 -2.2610153e-21)
(2.8411103 -0.16052293 -2.7118576e-20)
(2.8377464 -0.062999722 1.4220095e-20)
(2.7970834 0.0087329495 1.2764472e-21)
(2.7433009 0.046155454 4.5862665e-22)
(2.6948868 0.055970362 -3.1870372e-21)
(2.6596862 0.050185781 -2.0795869e-21)
(2.6374967 0.038868992 -3.0251489e-21)
(2.6247699 0.027857233 7.8941549e-21)
(2.6176661 0.019488745 -2.5642245e-21)
(2.6133015 0.014059926 5.119323e-21)
(2.609909 0.01102129 5.2866592e-21)
(2.6065677 0.0095761472 1.0653802e-21)
(2.6029291 0.0090583964 3.9121662e-21)
(2.59891 0.0088852986 9.3318327e-22)
(2.5946841 0.0087258931 1.0707831e-22)
(2.5903474 0.0082757734 -1.6457803e-22)
(2.5862973 0.0073922829 3.2608783e-23)
(2.5825385 0.0060478871 7.2568056e-22)
(2.5796838 0.0039483162 4.61264e-22)
(2.5774079 0.0016493973 -1.6149946e-22)
(2.2774044 -0.33096324 2.732194e-21)
(2.5176378 -0.38357033 2.4153131e-19)
(2.641095 -0.19870477 1.4714249e-19)
(2.6484152 0.044528949 -4.8126468e-20)
(2.5538093 0.17694521 -7.4050086e-20)
(2.4207759 0.17017896 1.7569162e-20)
(2.315865 0.055752635 -1.6449257e-20)
(2.2872605 -0.096111269 1.5556054e-20)
(2.3327744 -0.23053823 1.5554952e-20)
(2.4286074 -0.32960322 -7.4386967e-21)
(2.5578871 -0.38033696 7.2341557e-21)
(2.6967598 -0.37078772 1.2849882e-20)
(2.8142117 -0.30108125 1.4054248e-20)
(2.8805518 -0.18992467 2.7352537e-20)
(2.8831608 -0.072164522 -8.6514932e-21)
(2.8367967 0.017755397 -2.041054e-21)
(2.7710327 0.065578816 9.1312459e-21)
(2.7103861 0.077777388 4.6707378e-21)
(2.6661975 0.069241926 -3.0834813e-21)
(2.638969 0.053214502 -4.610183e-21)
(2.6242666 0.037594143 1.0644111e-21)
(2.6170459 0.025599352 4.1808478e-22)
(2.6134554 0.017691821 1.194826e-21)
(2.6111081 0.01312345 -4.6927415e-23)
(2.6087637 0.010877703 -9.0411343e-21)
(2.6059009 0.010003342 -6.7719065e-22)
(2.6024297 0.0098267074 -1.9596652e-21)
(2.5984227 0.0098009216 -8.0311654e-23)
(2.5941386 0.0096509078 4.0729487e-21)
(2.5897251 0.0091057677 1.0271762e-21)
(2.5855962 0.0080770993 4.274012e-22)
(2.5817798 0.0065359697 5.0939243e-22)
(2.5788721 0.0042526423 3.3725289e-22)
(2.5765723 0.0017327151 3.24389e-22)
(2.2360312 -0.34801486 -3.7003775e-21)
(2.4805496 -0.40760325 9.2693616e-20)
(2.6089793 -0.20819034 1.029362e-19)
(2.6126119 0.053673243 1.6036185e-19)
(2.5188017 0.20124768 5.4883303e-20)
(2.3956797 0.19697592 6.6802808e-20)
(2.2907914 0.077309083 3.1313101e-20)
(2.2536761 -0.091033495 3.8600422e-20)
(2.297249 -0.24063321 -5.2029952e-20)
(2.3978584 -0.3554583 2.4984376e-20)
(2.5387203 -0.42077587 -1.5497045e-20)
(2.6966463 -0.42064071 -6.5897963e-21)
(2.8374438 -0.34994752 -2.7561406e-20)
(2.9240994 -0.22468818 -6.024681e-21)
(2.9352699 -0.083716427 -3.2156926e-21)
(2.8829946 0.028388167 -1.5902937e-21)
(2.8029626 0.089392432 -5.1725284e-21)
(2.7274069 0.10488662 2.7881212e-21)
(2.6720674 0.093021129 3.9344369e-21)
(2.6385476 0.071046166 7.2670393e-21)
(2.6214521 0.049547755 5.0327304e-21)
(2.6142128 0.032930285 -1.187414e-21)
(2.6117355 0.021853685 -9.9765612e-22)
(2.6108473 0.015356359 -5.8305387e-22)
(2.609888 0.012059132 -6.2355698e-21)
(2.6081679 0.010749883 2.7625992e-21)
(2.6055209 0.010475263 9.1516602e-22)
(2.6020628 0.010627238 -2.3211139e-21)
(2.5979815 0.010727598 3.6205095e-22)
(2.5935936 0.010568564 -3.9163532e-22)
(2.5890819 0.0099173259 -1.6002145e-21)
(2.5848671 0.0087389951 -1.090541e-21)
(2.5809934 0.0070033044 1.3734811e-22)
(2.5780366 0.0045426461 5.1967574e-22)
(2.5757186 0.0018105521 2.0969038e-22)
(2.1930644 -0.36442649 2.2127653e-21)
(2.4359754 -0.43119125 -1.1755619e-19)
(2.5665045 -0.2159876 -2.8041485e-19)
(2.5676986 0.066081222 1.1846498e-19)
(2.4777789 0.22568112 -4.2472874e-20)
(2.362572 0.22512111 5.8343727e-20)
(2.2643237 0.095858582 0)
(2.2206098 -0.083364166 -1.237173e-20)
(2.2606754 -0.25075222 1.1232791e-20)
(2.3653483 -0.3810765 -1.16875e-20)
(2.5173057 -0.46263148 3.7468816e-21)
(2.6946816 -0.47410864 7.4563241e-21)
(2.8606754 -0.40422533 -6.5597292e-20)
(2.9713477 -0.26536257 -4.8828079e-20)
(2.9948016 -0.098668346 4.8008012e-20)
(2.9375666 0.040263913 -4.9454457e-20)
(2.8401898 0.11817448 -5.413303e-21)
(2.7460042 0.13811777 -3.254212e-21)
(2.6769685 0.12227195 -4.1305975e-21)
(2.6357063 0.09286597 -2.0219397e-21)
(2.6157388 0.063966622 4.7404686e-21)
(2.6086259 0.041524182 5.0956481e-21)
(2.607692 0.026482558 -5.0511097e-21)
(2.6087642 0.017575566 -4.0061863e-21)
(2.609663 0.013000702 3.5120115e-21)
(2.6094807 0.011128553 3.2260356e-23)
(2.6080087 0.010761817 1.1320215e-21)
(2.6053579 0.011046895 1.8009183e-21)
(2.6017892 0.011482457 -3.8554308e-23)
(2.5975667 0.01167326 -1.4249982e-21)
(2.5930412 0.011480842 -2.5400766e-21)
(2.5884169 0.010710376 1.4740752e-22)
(2.5841126 0.0093775405 -4.2012809e-22)
(2.5801836 0.0074497151 -9.7562812e-23)
(2.5771824 0.0048182549 6.8948268e-23)
(2.5748516 0.0018830938 -8.1675328e-22)
(2.1498021 -0.37965541 1.5590663e-20)
(2.3842366 -0.4536464 -1.5567499e-19)
(2.5142975 -0.22202697 8.0965535e-20)
(2.5139315 0.079946548 -3.0485339e-19)
(2.4280595 0.25103463 4.2625739e-20)
(2.3246609 0.25520109 -9.9818801e-20)
(2.2313582 0.11997098 6.3348265e-21)
(2.1896199 -0.0790191 -5.5934034e-20)
(2.2232829 -0.25848482 2.3118007e-21)
(2.3313452 -0.4069728 -2.3009773e-20)
(2.4932406 -0.50490385 1.8876688e-20)
(2.6890211 -0.52974026 7.0141592e-20)
(2.880611 -0.46237718 -3.0888214e-20)
(3.0168278 -0.31008314 7.4772691e-20)
(3.0566696 -0.11623321 -1.68075e-19)
(2.9991767 0.052976901 7.4913948e-21)
(2.8849026 0.15202799 1.0610339e-20)
(2.7670474 0.17829337 7.2661319e-21)
(2.6804832 0.15777907 -4.6764573e-21)
(2.6298218 0.11919087 -2.3285604e-21)
(2.6064634 0.081064764 2.5682927e-21)
(2.5996894 0.051380969 -7.0383878e-22)
(2.6008415 0.031437694 3.7284479e-21)
(2.6044894 0.019597705 3.4749624e-22)
(2.6078062 0.013484202 -2.9963833e-21)
(2.6096282 0.01098006 8.1432993e-21)
(2.6096963 0.010494479 8.185368e-22)
(2.6081688 0.010983041 3.518317e-21)
(2.6053444 0.011744791 8.4337019e-22)
(2.6015728 0.012400884 2.2061302e-21)
(2.5971606 0.012639377 -3.0596087e-21)
(2.5924746 0.012386988 -5.294116e-22)
(2.5877294 0.011483902 9.1635285e-22)
(2.5833352 0.00999213 -5.8496687e-22)
(2.5793547 0.0078750966 8.8744433e-22)
(2.5763142 0.0050795251 -1.1737775e-21)
(2.5739758 0.0019505403 1.9881208e-21)
(2.1075603 -0.39315554 2.6871878e-20)
(2.3262113 -0.47432626 4.3668631e-20)
(2.4531793 -0.22613032 1.4851097e-19)
(2.4512591 0.095545261 -1.4388016e-21)
(2.3704011 0.27704946 -1.8482581e-19)
(2.278445 0.28415015 -1.3907602e-19)
(2.1954593 0.14978398 5.9881087e-21)
(2.1534681 -0.065868621 1.0574302e-20)
(2.1885446 -0.26953605 -1.1845136e-20)
(2.2952245 -0.43060136 -1.6008334e-20)
(2.4662907 -0.54751537 -4.0152761e-21)
(2.678164 -0.58633153 -9.7161807e-20)
(2.8930931 -0.52203885 -9.4551978e-20)
(3.0545649 -0.35596092 -1.5230633e-19)
(3.1093563 -0.13201433 -2.2354335e-21)
(3.0539708 0.069767258 7.5804963e-20)
(2.9311143 0.19182944 2.5373127e-20)
(2.7920454 0.2261577 -1.7109446e-21)
(2.682776 0.20029631 -1.661136e-22)
(2.6201415 0.15051203 3.6997464e-21)
(2.5928856 0.10102284 1.7915191e-21)
(2.586759 0.062427177 -2.7990793e-21)
(2.5906775 0.036516217 -2.756797e-21)
(2.5976497 0.021151464 2.6382013e-21)
(2.6040537 0.013251549 5.8627188e-21)
(2.6084167 0.010048726 -1.4932757e-21)
(2.6104394 0.0094997117 -6.3221224e-21)
(2.6103476 0.010237041 2.2802782e-21)
(2.60854 0.011439448 -1.8947492e-21)
(2.6054209 0.012574827 7.6510726e-22)
(2.6013824 0.013381453 2.8418412e-21)
(2.5967486 0.013623262 6.7401706e-22)
(2.5918886 0.013284659 -1.6160413e-21)
(2.5870195 0.012236454 -1.3689187e-21)
(2.5825379 0.01058218 -3.8651562e-22)
(2.5785107 0.0082794673 -3.2226351e-22)
(2.5754362 0.0053266223 7.0352775e-23)
(2.5730952 0.0020131043 -1.6476113e-22)
(2.0675601 -0.40438145 -2.1354992e-20)
(2.2632859 -0.49258876 4.0102949e-20)
(2.3843605 -0.22804904 -5.5996272e-20)
(2.3809735 0.11247753 5.4657377e-23)
(2.3059214 0.30347922 1.1463777e-19)
(2.2247845 0.31294057 -5.8016793e-20)
(2.1538839 0.1770658 2.9976954e-20)
(2.1144809 -0.044836147 -1.3683949e-20)
(2.1475799 -0.2703501 2.2120404e-20)
(2.2612997 -0.45774633 1.0361687e-20)
(2.4354174 -0.58788866 -8.4760371e-21)