/*--------------------------------*- C++ -*----------------------------------*\
| =========                 |                                                 |
| \\      /  F ield         | OpenFOAM: The Open Source CFD Toolbox           |
|  \\    /   O peration     | Version:  v2012                                 |
|   \\  /    A nd           | Website:  www.openfoam.com                      |
|    \\/     M anipulation  |                                                 |
\*---------------------------------------------------------------------------*/
FoamFile
{
    version     2.0;
    format      ascii;
    class       volVectorField;
    location    "41.9635860759583679";
    object      cellDisplacement;
}
// * * * * * * * * * * * * * * * * * * * * * * * * * * * * * * * * * * * * * //

dimensions      [0 1 0 0 0 0 0];


internalField   nonuniform List<vector> 
9200
(
(-0.0073061395 0 0)
(-0.0073442618 0 0)
(-0.021242322 0 0)
(-0.0073999676 0 0)
(-0.021325308 0 0)
(-0.034243342 0 0)
(-0.0074817174 0 0)
(-0.021475162 0 0)
(-0.034367759 0 0)
(-0.046303007 0 0)
(-0.0075852228 0 0)
(-0.021708006 0 0)
(-0.034609495 0 0)
(-0.046470859 0 0)
(-0.057448931 0 0)
(-0.0077050452 0 0)
(-0.021999463 0 0)
(-0.034962654 0 0)
(-0.046788349 0 0)
(-0.057655299 0 0)
(-0.067669719 0 0)
(-0.007828719 0 0)
(-0.022324148 0 0)
(-0.035398084 0 0)
(-0.047220939 0 0)
(-0.058011445 0 0)
(-0.067903073 0 0)
(-0.077032074 0 0)
(-0.0079596119 0 0)
(-0.022677162 0 0)
(-0.035904655 0 0)
(-0.047786219 0 0)
(-0.058525135 0 0)
(-0.068314222 0 0)
(-0.077293799 0 0)
(-0.085554527 0 0)
(-0.0080882625 0 0)
(-0.023037769 0 0)
(-0.036454964 0 0)
(-0.048447437 0 0)
(-0.059184538 0 0)
(-0.068887149 0 0)
(-0.077742914 0 0)
(-0.085836954 0 0)
(-0.09331697 0 0)
(-0.0082182296 0 0)
(-0.023407356 0 0)
(-0.037027429 0 0)
(-0.04916725 0 0)
(-0.0599503 0 0)
(-0.069582624 0 0)
(-0.078333197 0 0)
(-0.086319183 0 0)
(-0.093615997 0 0)
(-0.10033975 0 0)
(-0.0083428448 0 0)
(-0.023769523 0 0)
(-0.037610978 0 0)
(-0.049929752 0 0)
(-0.060817163 0 0)
(-0.070464406 0 0)
(-0.079135355 0 0)
(-0.086988977 0 0)
(-0.094128469 0 0)
(-0.1006467 0 0)
(-0.10670881 0 0)
(-0.0084647612 0 0)
(-0.024128742 0 0)
(-0.038192162 0 0)
(-0.050704473 0 0)
(-0.061736623 0 0)
(-0.071436108 0 0)
(-0.080036693 0 0)
(-0.087768278 0 0)
(-0.09479378 0 0)
(-0.10117271 0 0)
(-0.10701901 0 0)
(-0.11244507 0 0)
(-0.0085795497 0 0)
(-0.024471299 0 0)
(-0.038763823 0 0)
(-0.051486284 0 0)
(-0.062682126 0 0)
(-0.072481106 0 0)
(-0.081090855 0 0)
(-0.088752357 0 0)
(-0.095659836 0 0)
(-0.10188633 0 0)
(-0.10754527 0 0)
(-0.11274633 0 0)
(-0.11762941 0 0)
(-0.0086891254 0 0)
(-0.02480345 0 0)
(-0.039319403 0 0)
(-0.052253595 0 0)
(-0.06363483 0 0)
(-0.073566286 0 0)
(-0.082227562 0 0)
(-0.089846519 0 0)
(-0.09662845 0 0)
(-0.10271124 0 0)
(-0.10822789 0 0)
(-0.11325792 0 0)
(-0.11791672 0 0)
(-0.12227791 0 0)
(-0.008790826 0 0)
(-0.025113615 0 0)
(-0.039852184 0 0)
(-0.053007263 0 0)
(-0.064578292 0 0)
(-0.074657844 0 0)
(-0.083409857 0 0)
(-0.091033354 0 0)
(-0.097727783 0 0)
(-0.1037014 0 0)
(-0.1090897 0 0)
(-0.11394185 0 0)
(-0.11839668 0 0)
(-0.12254054 0 0)
(-0.12646933 0 0)
(-0.0088858459 0 0)
(-0.025408921 0 0)
(-0.040361132 0 0)
(-0.053731133 0 0)
(-0.065502365 0 0)
(-0.075749664 0 0)
(-0.084613696 0 0)
(-0.092279824 0 0)
(-0.098937435 0 0)
(-0.1047975 0 0)
(-0.11002878 0 0)
(-0.11472568 0 0)
(-0.11901566 0 0)
(-0.12297869 0 0)
(-0.12670462 0 0)
(-0.13021707 0 0)
(-0.0089731706 0 0)
(-0.025681122 0 0)
(-0.04084064 0 0)
(-0.054428839 0 0)
(-0.066398785 0 0)
(-0.076816545 0 0)
(-0.085811469 0 0)
(-0.093557406 0 0)
(-0.10021931 0 0)
(-0.10599479 0 0)
(-0.11108988 0 0)
(-0.11565702 0 0)
(-0.11978991 0 0)
(-0.12355438 0 0)
(-0.12708327 0 0)
(-0.13041474 0 0)
(-0.13359253 0 0)
(-0.0090532803 0 0)
(-0.025936112 0 0)
(-0.041291803 0 0)
(-0.055087121 0 0)
(-0.067258747 0 0)
(-0.077859621 0 0)
(-0.08699658 0 0)
(-0.094836591 0 0)
(-0.10153511 0 0)
(-0.10727103 0 0)
(-0.11224176 0 0)
(-0.11665229 0 0)
(-0.1206208 0 0)
(-0.12421182 0 0)
(-0.1275622 0 0)
(-0.13072751 0 0)
(-0.13375054 0 0)
(-0.13660338 0 0)
(-0.0091260847 0 0)
(-0.026168252 0 0)
(-0.041710066 0 0)
(-0.055712336 0 0)
(-0.068080285 0 0)
(-0.078861195 0 0)
(-0.088147733 0 0)
(-0.096104971 0 0)
(-0.10286829 0 0)
(-0.10859629 0 0)
(-0.11348883 0 0)
(-0.11775247 0 0)
(-0.12154991 0 0)
(-0.12499176 0 0)
(-0.12816058 0 0)
(-0.13112452 0 0)
(-0.13398222 0 0)
(-0.1367142 0 0)
(-0.13931518 0 0)
(-0.0091916531 0 0)
(-0.026382506 0 0)
(-0.042098735 0 0)
(-0.056293081 0 0)
(-0.068853913 0 0)
(-0.079823003 0 0)
(-0.089265287 0 0)
(-0.097346017 0 0)
(-0.10419056 0 0)
(-0.10994857 0 0)
(-0.11479956 0 0)
(-0.11893863 0 0)
(-0.12256039 0 0)
(-0.12582048 0 0)
(-0.12880154 0 0)
(-0.13157552 0 0)
(-0.13425986 0 0)
(-0.13686336 0 0)
(-0.13937917 0 0)
(-0.14173206 0 0)
(-0.0092505316 0 0)
(-0.026575895 0 0)
(-0.042455045 0 0)
(-0.056837595 0 0)
(-0.069583364 0 0)
(-0.080733805 0 0)
(-0.09033231 0 0)
(-0.098549906 0 0)
(-0.10549634 0 0)
(-0.11129731 0 0)
(-0.11613679 0 0)
(-0.12019585 0 0)
(-0.12365486 0 0)
(-0.12672005 0 0)
(-0.12951733 0 0)
(-0.13212164 0 0)
(-0.13461017 0 0)
(-0.1370307 0 0)
(-0.13943238 0 0)
(-0.14174295 0 0)
(-0.14391097 0 0)
(-0.0093026328 0 0)
(-0.026751688 0 0)
(-0.042782121 0 0)
(-0.057335928 0 0)
(-0.070259629 0 0)
(-0.081594761 0 0)
(-0.091351684 0 0)
(-0.099708749 0 0)
(-0.10676487 0 0)
(-0.11263564 0 0)
(-0.11749055 0 0)
(-0.12149649 0 0)
(-0.12483194 0 0)
(-0.12770366 0 0)
(-0.13028819 0 0)
(-0.13269571 0 0)
(-0.13498215 0 0)
(-0.13720996 0 0)
(-0.13946261 0 0)
(-0.14170119 0 0)
(-0.14386957 0 0)
(-0.14585118 0 0)
(-0.0093487123 0 0)
(-0.026908552 0 0)
(-0.043079649 0 0)
(-0.057798034 0 0)
(-0.070888886 0 0)
(-0.08239818 0 0)
(-0.092310688 0 0)
(-0.10081305 0 0)
(-0.10799451 0 0)
(-0.11394214 0 0)
(-0.11882908 0 0)
(-0.12282165 0 0)
(-0.12607038 0 0)
(-0.12876897 0 0)
(-0.13113541 0 0)
(-0.13332677 0 0)
(-0.13540804 0 0)
(-0.13744992 0 0)
(-0.13950887 0 0)
(-0.14160016 0 0)
(-0.14372248 0 0)
(-0.14575372 0 0)
(-0.14760272 0 0)
(-0.0093886949 0 0)
(-0.027048876 0 0)
(-0.043349702 0 0)
(-0.058214588 0 0)
(-0.071462893 0 0)
(-0.083146826 0 0)
(-0.093212885 0 0)
(-0.10186105 0 0)
(-0.10917056 0 0)
(-0.11521292 0 0)
(-0.12015311 0 0)
(-0.12414402 0 0)
(-0.12733571 0 0)
(-0.12990291 0 0)
(-0.13205168 0 0)
(-0.13400369 0 0)
(-0.13586873 0 0)
(-0.13769811 0 0)
(-0.13954651 0 0)
(-0.14145828 0 0)
(-0.14347315 0 0)
(-0.14550481 0 0)
(-0.14745142 0 0)
(-0.14916263 0 0)
(-0.009423455 0 0)
(-0.027172241 0 0)
(-0.043591774 0 0)
(-0.058596441 0 0)
(-0.071990462 0 0)
(-0.083835443 0 0)
(-0.094050175 0 0)
(-0.10284438 0 0)
(-0.11029197 0 0)
(-0.11643361 0 0)
(-0.12143617 0 0)
(-0.12545544 0 0)
(-0.12861978 0 0)
(-0.13108556 0 0)
(-0.1330661 0 0)
(-0.13479026 0 0)
(-0.13640165 0 0)
(-0.13798906 0 0)
(-0.1396115 0 0)
(-0.14133332 0 0)
(-0.1431739 0 0)
(-0.14511092 0 0)
(-0.14709276 0 0)
(-0.14895494 0 0)
(-0.15057265 0 0)
(-0.0094532516 0 0)
(-0.027280774 0 0)
(-0.043808681 0 0)
(-0.0589368 0 0)
(-0.072465173 0 0)
(-0.084468173 0 0)
(-0.09482589 0 0)
(-0.10376385 0 0)
(-0.1113486 0 0)
(-0.11760118 0 0)
(-0.12268328 0 0)
(-0.12673871 0 0)
(-0.12989277 0 0)
(-0.13229871 0 0)
(-0.13414302 0 0)
(-0.13563954 0 0)
(-0.13698654 0 0)
(-0.13832147 0 0)
(-0.13970149 0 0)
(-0.14119043 0 0)
(-0.14282608 0 0)
(-0.14461238 0 0)
(-0.14654419 0 0)
(-0.14849149 0 0)
(-0.15031109 0 0)
(-0.15182706 0 0)
(-0.0094787078 0 0)
(-0.027374562 0 0)
(-0.044000155 0 0)
(-0.059244577 0 0)
(-0.072895423 0 0)
(-0.085040243 0 0)
(-0.095535765 0 0)
(-0.10461326 0 0)
(-0.11234023 0 0)
(-0.11870587 0 0)
(-0.1238722 0 0)
(-0.12798585 0 0)
(-0.13115469 0 0)
(-0.13351261 0 0)
(-0.13525065 0 0)
(-0.13657528 0 0)
(-0.13768852 0 0)
(-0.13875446 0 0)
(-0.13985575 0 0)
(-0.14107618 0 0)
(-0.14247184 0 0)
(-0.14407974 0 0)
(-0.14587272 0 0)
(-0.14779165 0 0)
(-0.14973807 0 0)
(-0.15151113 0 0)
(-0.15296101 0 0)
(-0.0095004182 0 0)
(-0.027455611 0 0)
(-0.044168908 0 0)
(-0.059514454 0 0)
(-0.073277309 0 0)
(-0.085558239 0 0)
(-0.096183003 0 0)
(-0.10539541 0 0)
(-0.11326062 0 0)
(-0.11974503 0 0)
(-0.12500878 0 0)
(-0.1291871 0 0)
(-0.13238065 0 0)
(-0.13472271 0 0)
(-0.13638896 0 0)
(-0.13756873 0 0)
(-0.13846207 0 0)
(-0.1392516 0 0)
(-0.14006147 0 0)
(-0.14099707 0 0)
(-0.14212421 0 0)
(-0.14349342 0 0)
(-0.14510374 0 0)
(-0.14691662 0 0)
(-0.14888327 0 0)
(-0.15083498 0 0)
(-0.15259397 0 0)
(-0.15396835 0 0)
(-0.0095185399 0 0)
(-0.027524699 0 0)
(-0.044314379 0 0)
(-0.059753534 0 0)
(-0.073617585 0 0)
(-0.086017145 0 0)
(-0.096766252 0 0)
(-0.10610763 0 0)
(-0.11411023 0 0)
(-0.12071313 0 0)
(-0.12607599 0 0)
(-0.13033403 0 0)
(-0.133574 0 0)
(-0.13590765 0 0)
(-0.13751612 0 0)
(-0.13858905 0 0)
(-0.13930473 0 0)
(-0.13983911 0 0)
(-0.14036867 0 0)
(-0.1410113 0 0)
(-0.14182805 0 0)
(-0.14291044 0 0)
(-0.14428502 0 0)
(-0.14594812 0 0)
(-0.14782767 0 0)
(-0.14982887 0 0)
(-0.15181236 0 0)
(-0.15355031 0 0)
(-0.15487704 0 0)
(-0.0095341492 0 0)
(-0.02758245 0 0)
(-0.04443862 0 0)
(-0.059958457 0 0)
(-0.073913376 0 0)
(-0.086424889 0 0)
(-0.097288376 0 0)
(-0.106752 0 0)
(-0.11488562 0 0)
(-0.1216087 0 0)
(-0.12707922 0 0)
(-0.13142264 0 0)
(-0.13471468 0 0)
(-0.13706371 0 0)
(-0.13864396 0 0)
(-0.13962971 0 0)
(-0.1401924 0 0)
(-0.14050641 0 0)
(-0.14075427 0 0)
(-0.1410823 0 0)
(-0.14158175 0 0)
(-0.14235158 0 0)
(-0.14344549 0 0)
(-0.1448823 0 0)
(-0.14661774 0 0)
(-0.14857182 0 0)
(-0.15065578 0 0)
(-0.15267032 0 0)
(-0.15441118 0 0)
(-0.15568016 0 0)
(-0.0095052298 0 0)
(-0.027631281 0 0)
(-0.044542348 0 0)
(-0.060133126 0 0)
(-0.074170349 0 0)
(-0.08677788 0 0)
(-0.09775022 0 0)
(-0.10732945 0 0)
(-0.11558896 0 0)
(-0.12242912 0 0)
(-0.12800677 0 0)
(-0.13244427 0 0)
(-0.13580618 0 0)
(-0.13817676 0 0)
(-0.13973626 0 0)
(-0.1406627 0 0)
(-0.14111343 0 0)
(-0.1412418 0 0)
(-0.14122443 0 0)
(-0.14124311 0 0)
(-0.14143205 0 0)
(-0.14187498 0 0)
(-0.14263568 0 0)
(-0.14378583 0 0)
(-0.14530774 0 0)
(-0.14715632 0 0)
(-0.14921845 0 0)
(-0.15136786 0 0)
(-0.15343282 0 0)
(-0.15516716 0 0)
(-0.15640015 0 0)
(-0.0094665761 0 0)
(-0.027578795 0 0)
(-0.044626294 0 0)
(-0.06027715 0 0)
(-0.074387377 0 0)
(-0.087082886 0 0)
(-0.098153935 0 0)
(-0.10784099 0 0)
(-0.1162177 0 0)
(-0.12317365 0 0)
(-0.12886296 0 0)
(-0.1333988 0 0)
(-0.13683348 0 0)
(-0.13924255 0 0)
(-0.14080692 0 0)
(-0.14169082 0 0)
(-0.14204441 0 0)
(-0.14201699 0 0)
(-0.14177626 0 0)
(-0.1414939 0 0)
(-0.14134742 0 0)
(-0.14145124 0 0)
(-0.14186638 0 0)
(-0.14268773 0 0)
(-0.14393864 0 0)
(-0.14559252 0 0)
(-0.14756385 0 0)
(-0.14973753 0 0)
(-0.15198903 0 0)
(-0.15409786 0 0)
(-0.15584324 0 0)
(-0.15703114 0 0)
(-0.0094302058 0 0)
(-0.027462754 0 0)
(-0.044556518 0 0)
(-0.060390896 0 0)
(-0.074566083 0 0)
(-0.087337681 0 0)
(-0.098501517 0 0)
(-0.10828973 0 0)
(-0.11677604 0 0)
(-0.12384263 0 0)
(-0.1296414 0 0)
(-0.13427859 0 0)
(-0.13779924 0 0)
(-0.14025224 0 0)
(-0.14182549 0 0)
(-0.1426873 0 0)
(-0.14297802 0 0)
(-0.1428267 0 0)
(-0.14238632 0 0)
(-0.14183815 0 0)
(-0.14136372 0 0)
(-0.14111308 0 0)
(-0.14118836 0 0)
(-0.14165458 0 0)
(-0.14256488 0 0)
(-0.14395403 0 0)
(-0.14575288 0 0)
(-0.14787854 0 0)
(-0.15018533 0 0)
(-0.15251844 0 0)
(-0.1546845 0 0)
(-0.15642984 0 0)
(-0.15759005 0 0)
(-0.0093973171 0 0)
(-0.027353938 0 0)
(-0.044371843 0 0)
(-0.060304859 0 0)
(-0.074708568 0 0)
(-0.087545105 0 0)
(-0.098793157 0 0)
(-0.10867563 0 0)
(-0.11726321 0 0)
(-0.12443666 0 0)
(-0.13034517 0 0)
(-0.13508621 0 0)
(-0.13869378 0 0)
(-0.14120047 0 0)
(-0.14280403 0 0)
(-0.14365917 0 0)
(-0.14389872 0 0)
(-0.14364449 0 0)
(-0.14304763 0 0)
(-0.14226814 0 0)
(-0.14148081 0 0)
(-0.14086802 0 0)
(-0.14057208 0 0)
(-0.14066961 0 0)
(-0.14121483 0 0)
(-0.1422786 0 0)
(-0.14383667 0 0)
(-0.14581644 0 0)
(-0.14809691 0 0)
(-0.15053536 0 0)
(-0.15297611 0 0)
(-0.15518769 0 0)
(-0.15694711 0 0)
(-0.15807165 0 0)
(-0.0093676916 0 0)
(-0.027255263 0 0)
(-0.044198818 0 0)
(-0.06006025 0 0)
(-0.074612132 0 0)
(-0.087706989 0 0)
(-0.099034152 0 0)
(-0.10900437 0 0)
(-0.11768336 0 0)
(-0.12495739 0 0)
(-0.13097193 0 0)
(-0.13581573 0 0)
(-0.13951832 0 0)
(-0.14208289 0 0)
(-0.14371852 0 0)
(-0.14458196 0 0)
(-0.14479843 0 0)
(-0.14447155 0 0)
(-0.1437339 0 0)
(-0.14275382 0 0)
(-0.14169762 0 0)
(-0.14073418 0 0)
(-0.1400495 0 0)
(-0.13976384 0 0)
(-0.13994308 0 0)
(-0.14063805 0 0)
(-0.14187187 0 0)
(-0.14362884 0 0)
(-0.1457934 0 0)
(-0.14825091 0 0)
(-0.15083218 0 0)
(-0.15335779 0 0)
(-0.15562425 0 0)
(-0.15738619 0 0)
(-0.15848907 0 0)
(-0.0093422766 0 0)
(-0.027166556 0 0)
(-0.044039831 0 0)
(-0.059830898 0 0)
(-0.074323437 0 0)
(-0.087597801 0 0)
(-0.099220676 0 0)
(-0.10927066 0 0)
(-0.11803696 0 0)
(-0.12540582 0 0)
(-0.13152359 0 0)
(-0.13647089 0 0)
(-0.14026802 0 0)
(-0.14289507 0 0)
(-0.14457886 0 0)
(-0.14546384 0 0)
(-0.14566804 0 0)
(-0.14528352 0 0)
(-0.14444162 0 0)
(-0.14329449 0 0)
(-0.14199485 0 0)
(-0.14072062 0 0)
(-0.13966281 0 0)
(-0.13896344 0 0)
(-0.13873158 0 0)
(-0.13903388 0 0)
(-0.13989949 0 0)
(-0.14135694 0 0)
(-0.14333149 0 0)
(-0.14570657 0 0)
(-0.14833383 0 0)
(-0.15105258 0 0)
(-0.15368049 0 0)
(-0.15598774 0 0)
(-0.15776407 0 0)
(-0.15883913 0 0)
(-0.0093208124 0 0)
(-0.027089833 0 0)
(-0.043896601 0 0)
(-0.059619104 0 0)
(-0.074050108 0 0)
(-0.0872669 0 0)
(-0.099119068 0 0)
(-0.10948421 0 0)
(-0.11832313 0 0)
(-0.12578289 0 0)
(-0.13200126 0 0)
(-0.13704796 0 0)
(-0.14094273 0 0)
(-0.14363496 0 0)
(-0.14536696 0 0)
(-0.14628336 0 0)
(-0.14649706 0 0)
(-0.14608318 0 0)
(-0.14515134 0 0)
(-0.14386033 0 0)
(-0.14236305 0 0)
(-0.14081287 0 0)
(-0.13938949 0 0)
(-0.1382752 0 0)
(-0.13761898 0 0)
(-0.13750359 0 0)
(-0.13798545 0 0)
(-0.13907963 0 0)
(-0.14076673 0 0)
(-0.14298021 0 0)
(-0.14556137 0 0)
(-0.14837228 0 0)
(-0.1512312 0 0)
(-0.15393773 0 0)
(-0.15629326 0 0)
(-0.15807301 0 0)
(-0.15913091 0 0)
(-0.009303931 0 0)
(-0.027025047 0 0)
(-0.043771233 0 0)
(-0.059428384 0 0)
(-0.073797812 0 0)
(-0.086952229 0 0)
(-0.098768779 0 0)
(-0.10938538 0 0)
(-0.11854808 0 0)
(-0.12609263 0 0)
(-0.13240346 0 0)
(-0.13754992 0 0)
(-0.14154043 0 0)
(-0.14429879 0 0)
(-0.14609068 0 0)
(-0.1470491 0 0)
(-0.14728148 0 0)
(-0.14684857 0 0)
(-0.14585753 0 0)
(-0.14445517 0 0)
(-0.14277797 0 0)
(-0.14098137 0 0)
(-0.13924147 0 0)
(-0.13774312 0 0)
(-0.13665327 0 0)
(-0.13608101 0 0)
(-0.13612117 0 0)
(-0.13681606 0 0)
(-0.1381539 0 0)
(-0.14011402 0 0)
(-0.14257333 0 0)
(-0.14537669 0 0)
(-0.14835774 0 0)
(-0.1513467 0 0)
(-0.15414422 0 0)
(-0.15653308 0 0)
(-0.15832671 0 0)
(-0.15936266 0 0)
(-0.0092914124 0 0)
(-0.026973451 0 0)
(-0.043664436 0 0)
(-0.059260776 0 0)
(-0.073568989 0 0)
(-0.086660853 0 0)
(-0.098438845 0 0)
(-0.10903023 0 0)
(-0.11845316 0 0)
(-0.12633268 0 0)
(-0.13273702 0 0)
(-0.1379767 0 0)
(-0.1420603 0 0)
(-0.14488649 0 0)
(-0.14673792 0 0)
(-0.14774418 0 0)
(-0.14801045 0 0)
(-0.14758287 0 0)
(-0.14654573 0 0)
(-0.14505024 0 0)
(-0.14323325 0 0)
(-0.14123049 0 0)
(-0.13920325 0 0)
(-0.13733776 0 0)
(-0.13581852 0 0)
(-0.13478548 0 0)
(-0.13435885 0 0)
(-0.13460979 0 0)
(-0.13556553 0 0)
(-0.13719137 0 0)
(-0.13942097 0 0)
(-0.14213939 0 0)
(-0.14515373 0 0)
(-0.14831143 0 0)
(-0.15142733 0 0)
(-0.15429282 0 0)
(-0.15672157 0 0)
(-0.15851963 0 0)
(-0.15954043 0 0)
(-0.0092836148 0 0)
(-0.026935032 0 0)
(-0.04357807 0 0)
(-0.05911792 0 0)
(-0.073367233 0 0)
(-0.0863956 0 0)
(-0.098128728 0 0)
(-0.10868716 0 0)
(-0.11809253 0 0)
(-0.12625904 0 0)
(-0.13299549 0 0)
(-0.13832497 0 0)
(-0.14250279 0 0)
(-0.14539622 0 0)
(-0.14731365 0 0)
(-0.14837598 0 0)
(-0.14868377 0 0)
(-0.14826795 0 0)
(-0.14720796 0 0)
(-0.14564987 0 0)
(-0.14371079 0 0)
(-0.141524 0 0)
(-0.13925008 0 0)
(-0.13706002 0 0)
(-0.13513164 0 0)
(-0.13364972 0 0)
(-0.13275007 0 0)
(-0.13250904 0 0)
(-0.13300771 0 0)
(-0.13424799 0 0)
(-0.13616829 0 0)
(-0.13869872 0 0)
(-0.14167404 0 0)
(-0.14490716 0 0)
(-0.14822322 0 0)
(-0.15145437 0 0)
(-0.15439683 0 0)
(-0.15685141 0 0)
(-0.15866211 0 0)
(-0.15966425 0 0)
(-0.026910162 0 0)
(-0.0092790041 0 0)
(-0.04351172 0 0)
(-0.059001898 0 0)
(-0.073194658 0 0)
(-0.086160753 0 0)
(-0.097848167 0 0)
(-0.10836885 0 0)
(-0.1177417 0 0)
(-0.12591003 0 0)
(-0.13294669 0 0)
(-0.13860186 0 0)
(-0.14286093 0 0)
(-0.14582603 0 0)
(-0.14781131 0 0)
(-0.14893242 0 0)
(-0.14929142 0 0)
(-0.14890668 0 0)
(-0.14783496 0 0)
(-0.14622779 0 0)
(-0.14420092 0 0)
(-0.14186814 0 0)
(-0.13937509 0 0)
(-0.13688928 0 0)
(-0.13458973 0 0)
(-0.1326673 0 0)
(-0.1312827 0 0)
(-0.13054192 0 0)
(-0.13054572 0 0)
(-0.13133564 0 0)
(-0.13289712 0 0)
(-0.13514222 0 0)
(-0.13796198 0 0)
(-0.14119964 0 0)
(-0.144635 0 0)
(-0.14811081 0 0)
(-0.15145083 0 0)
(-0.15444939 0 0)
(-0.15693531 0 0)
(-0.15875097 0 0)
(-0.15973721 0 0)
(-0.043467145 0 0)
(-0.026894921 0 0)
(-0.0092776851 0 0)
(-0.058912566 0 0)
(-0.073052636 0 0)
(-0.085959037 0 0)
(-0.097596976 0 0)
(-0.10807431 0 0)
(-0.1174133 0 0)
(-0.12557306 0 0)
(-0.13262253 0 0)
(-0.13857744 0 0)
(-0.14314234 0 0)
(-0.14617871 0 0)
(-0.14823148 0 0)
(-0.14941881 0 0)
(-0.14983499 0 0)
(-0.14948514 0 0)
(-0.14841886 0 0)
(-0.14678872 0 0)
(-0.14469083 0 0)
(-0.14223126 0 0)
(-0.13955403 0 0)
(-0.13681789 0 0)
(-0.13418602 0 0)
(-0.13184302 0 0)
(-0.12997978 0 0)
(-0.12874642 0 0)
(-0.12823795 0 0)
(-0.12851523 0 0)
(-0.12962533 0 0)
(-0.13152024 0 0)
(-0.13409049 0 0)
(-0.13722013 0 0)
(-0.14070997 0 0)
(-0.14434891 0 0)
(-0.147964 0 0)
(-0.15140017 0 0)
(-0.15446195 0 0)
(-0.15696786 0 0)
(-0.15879277 0 0)
(-0.15976055 0 0)
(-0.058852023 0 0)
(-0.043436452 0 0)
(-0.026888911 0 0)
(-0.0092808979 0 0)
(-0.072943202 0 0)
(-0.085791835 0 0)
(-0.097381167 0 0)
(-0.10781301 0 0)
(-0.11710774 0 0)
(-0.12525017 0 0)
(-0.13230887 0 0)
(-0.13830009 0 0)
(-0.14314436 0 0)
(-0.1464491 0 0)
(-0.14857598 0 0)
(-0.14982956 0 0)
(-0.15030702 0 0)
(-0.15000565 0 0)
(-0.14895375 0 0)
(-0.14730987 0 0)
(-0.14516851 0 0)
(-0.14261656 0 0)
(-0.13978227 0 0)
(-0.13682008 0 0)
(-0.13389128 0 0)
(-0.13117451 0 0)
(-0.12885089 0 0)
(-0.12710918 0 0)
(-0.1260794 0 0)
(-0.1258276 0 0)
(-0.12643267 0 0)
(-0.12789217 0 0)
(-0.1301462 0 0)
(-0.133059 0 0)
(-0.13648077 0 0)
(-0.1402218 0 0)
(-0.14404411 0 0)
(-0.14779695 0 0)
(-0.15132169 0 0)
(-0.15442915 0 0)
(-0.15695832 0 0)
(-0.15878611 0 0)
(-0.15973512 0 0)
(-0.072865916 0 0)
(-0.058810108 0 0)
(-0.043421317 0 0)
(-0.026896637 0 0)
(-0.0092884586 0 0)
(-0.085662062 0 0)
(-0.097201333 0 0)
(-0.1075845 0 0)
(-0.1168345 0 0)
(-0.12495124 0 0)
(-0.13200283 0 0)
(-0.13801817 0 0)
(-0.14291785 0 0)
(-0.14648328 0 0)
(-0.14883953 0 0)
(-0.15016332 0 0)
(-0.15070656 0 0)
(-0.15045771 0 0)
(-0.14943186 0 0)
(-0.14779554 0 0)
(-0.14562567 0 0)
(-0.14299752 0 0)
(-0.14003594 0 0)
(-0.1368887 0 0)
(-0.13370155 0 0)
(-0.13064168 0 0)
(-0.12789777 0 0)
(-0.12566024 0 0)
(-0.12409435 0 0)
(-0.12331528 0 0)
(-0.12338465 0 0)
(-0.1243336 0 0)
(-0.12616317 0 0)
(-0.12877806 0 0)
(-0.13202654 0 0)
(-0.13575074 0 0)
(-0.13972711 0 0)
(-0.14373001 0 0)
(-0.14759955 0 0)
(-0.15120142 0 0)
(-0.15435972 0 0)
(-0.15690239 0 0)
(-0.15873434 0 0)
(-0.15966368 0 0)
(-0.085568518 0 0)
(-0.072812491 0 0)
(-0.058788924 0 0)
(-0.043425379 0 0)
(-0.026916553 0 0)
(-0.0093002715 0 0)
(-0.09705946 0 0)
(-0.10739396 0 0)
(-0.11659389 0 0)
(-0.12467837 0 0)
(-0.13171799 0 0)
(-0.13774448 0 0)
(-0.14267664 0 0)
(-0.14630681 0 0)
(-0.14890072 0 0)
(-0.1504252 0 0)
(-0.15103261 0 0)
(-0.15084071 0 0)
(-0.14985079 0 0)
(-0.14822829 0 0)
(-0.14605024 0 0)
(-0.14337484 0 0)
(-0.140311 0 0)
(-0.13700222 0 0)
(-0.13358706 0 0)
(-0.1302322 0 0)
(-0.12711023 0 0)
(-0.12440388 0 0)
(-0.12230504 0 0)
(-0.12097128 0 0)
(-0.12048793 0 0)
(-0.12089541 0 0)
(-0.12223348 0 0)
(-0.12444761 0 0)
(-0.1274385 0 0)
(-0.13102856 0 0)
(-0.13503262 0 0)
(-0.13923858 0 0)
(-0.14339957 0 0)
(-0.14738353 0 0)
(-0.15105492 0 0)
(-0.15424994 0 0)
(-0.15680653 0 0)
(-0.15863819 0 0)
(-0.15954514 0 0)
(-0.09695744 0 0)
(-0.085502816 0 0)
(-0.072780124 0 0)
(-0.058794742 0 0)
(-0.043450925 0 0)
(-0.02694958 0 0)
(-0.0093159853 0 0)
(-0.1072419 0 0)
(-0.11639119 0 0)
(-0.12443819 0 0)
(-0.13145332 0 0)
(-0.13747949 0 0)
(-0.14243736 0 0)
(-0.1461177 0 0)
(-0.14877827 0 0)
(-0.15051281 0 0)
(-0.15128009 0 0)
(-0.15115108 0 0)
(-0.1502046 0 0)
(-0.14861052 0 0)
(-0.1464369 0 0)
(-0.1437274 0 0)
(-0.14058583 0 0)
(-0.1371509 0 0)
(-0.1335457 0 0)
(-0.12992179 0 0)
(-0.12645921 0 0)
(-0.12333317 0 0)
(-0.12072143 0 0)
(-0.11882124 0 0)
(-0.11776758 0 0)
(-0.11762694 0 0)
(-0.11842633 0 0)
(-0.12015585 0 0)
(-0.12276634 0 0)
(-0.12612517 0 0)
(-0.13004523 0 0)
(-0.13433143 0 0)
(-0.13874604 0 0)
(-0.14306109 0 0)
(-0.14714002 0 0)
(-0.15087203 0 0)
(-0.1541053 0 0)
(-0.15666853 0 0)
(-0.15849811 0 0)
(-0.15938298 0 0)
(-0.10712987 0 0)
(-0.096880995 0 0)
(-0.085462137 0 0)
(-0.07278194 0 0)
(-0.058828891 0 0)
(-0.043493647 0 0)
(-0.026993119 0 0)
(-0.0093353739 0 0)
(-0.11622722 0 0)
(-0.12423208 0 0)
(-0.13121804 0 0)
(-0.13723389 0 0)
(-0.1421982 0 0)
(-0.1459163 0 0)
(-0.14863874 0 0)
(-0.15045742 0 0)
(-0.15140547 0 0)
(-0.15138145 0 0)
(-0.15048773 0 0)
(-0.14893157 0 0)
(-0.14677544 0 0)
(-0.14405434 0 0)
(-0.14085659 0 0)
(-0.13731772 0 0)
(-0.13354899 0 0)
(-0.12969911 0 0)
(-0.12593659 0 0)
(-0.12242521 0 0)
(-0.11934549 0 0)
(-0.11689653 0 0)
(-0.11525312 0 0)
(-0.11452789 0 0)
(-0.1147628 0 0)
(-0.11596077 0 0)
(-0.11811526 0 0)
(-0.12112341 0 0)
(-0.12485601 0 0)
(-0.12910274 0 0)
(-0.13364517 0 0)
(-0.13826024 0 0)
(-0.14270629 0 0)
(-0.14687809 0 0)
(-0.15066314 0 0)
(-0.15392345 0 0)
(-0.15649166 0 0)
(-0.15831621 0 0)
(-0.15917514 0 0)
(-0.11610393 0 0)
(-0.10704614 0 0)
(-0.096833507 0 0)
(-0.085460935 0 0)
(-0.072812914 0 0)
(-0.058887876 0 0)
(-0.043556124 0 0)
(-0.027048449 0 0)
(-0.009358006 0 0)
(-0.1240636 0 0)
(-0.13101188 0 0)
(-0.13700792 0 0)
(-0.14197308 0 0)
(-0.14571469 0 0)
(-0.14847998 0 0)
(-0.15037075 0 0)
(-0.15142107 0 0)
(-0.15154166 0 0)
(-0.15070094 0 0)
(-0.14918619 0 0)
(-0.1470594 0 0)
(-0.14433945 0 0)
(-0.14110494 0 0)
(-0.13749111 0 0)
(-0.13359398 0 0)
(-0.12954412 0 0)
(-0.12551399 0 0)
(-0.12166748 0 0)
(-0.11816435 0 0)
(-0.11519554 0 0)
(-0.11296576 0 0)
(-0.11163335 0 0)
(-0.11127359 0 0)
(-0.11191994 0 0)
(-0.11355528 0 0)
(-0.11612528 0 0)
(-0.11953518 0 0)
(-0.12362563 0 0)
(-0.12818278 0 0)
(-0.1329775 0 0)
(-0.13776997 0 0)
(-0.14234299 0 0)
(-0.14658989 0 0)
(-0.15042056 0 0)
(-0.15370693 0 0)
(-0.15627492 0 0)
(-0.15809098 0 0)
(-0.15892624 0 0)
(-0.1239335 0 0)
(-0.11600904 0 0)
(-0.10698773 0 0)
(-0.096822369 0 0)
(-0.085493974 0 0)
(-0.072876261 0 0)
(-0.058972304 0 0)
(-0.043631498 0 0)
(-0.027111714 0 0)
(-0.0093831336 0 0)
(-0.13083893 0 0)
(-0.13680891 0 0)
(-0.1417604 0 0)
(-0.145515 0 0)
(-0.14831561 0 0)
(-0.15026533 0 0)
(-0.15140185 0 0)
(-0.15163637 0 0)
(-0.1508934 0 0)
(-0.14937622 0 0)
(-0.14728404 0 0)
(-0.14457833 0 0)
(-0.14132731 0 0)
(-0.13765804 0 0)
(-0.13365535 0 0)
(-0.12944329 0 0)
(-0.12518553 0 0)
(-0.12103279 0 0)
(-0.1171467 0 0)
(-0.11370869 0 0)
(-0.11091571 0 0)
(-0.10897026 0 0)
(-0.10799512 0 0)
(-0.10804217 0 0)
(-0.10912037 0 0)
(-0.11119095 0 0)
(-0.11419892 0 0)
(-0.11800044 0 0)
(-0.12244707 0 0)
(-0.12730416 0 0)
(-0.13232342 0 0)
(-0.13728456 0 0)
(-0.14196282 0 0)
(-0.14628222 0 0)
(-0.1501507 0 0)
(-0.15345535 0 0)
(-0.15601979 0 0)
(-0.15782627 0 0)
(-0.15863255 0 0)
(-0.1307005 0 0)
(-0.12382851 0 0)
(-0.11594141 0 0)
(-0.10697179 0 0)
(-0.096852105 0 0)
(-0.085563945 0 0)
(-0.072963828 0 0)
(-0.059079386 0 0)
(-0.043723326 0 0)
(-0.027183817 0 0)
(-0.0094105167 0 0)
(-0.13663631 0 0)
(-0.1415692 0 0)
(-0.14532675 0 0)
(-0.14814629 0 0)
(-0.15014093 0 0)
(-0.15134841 0 0)
(-0.15168699 0 0)
(-0.15107513 0 0)
(-0.1496043 0 0)
(-0.14744051 0 0)
(-0.14476303 0 0)
(-0.14151003 0 0)
(-0.13780723 0 0)
(-0.13372854 0 0)
(-0.12937957 0 0)
(-0.12492311 0 0)
(-0.12051039 0 0)
(-0.11628473 0 0)
(-0.11241627 0 0)
(-0.10911086 0 0)
(-0.10657782 0 0)
(-0.10496567 0 0)
(-0.10437512 0 0)
(-0.10484903 0 0)
(-0.10638445 0 0)
(-0.10891422 0 0)
(-0.11234082 0 0)
(-0.11653088 0 0)
(-0.12131148 0 0)
(-0.12644988 0 0)
(-0.13168616 0 0)
(-0.13679368 0 0)
(-0.14157258 0 0)
(-0.14594939 0 0)
(-0.14984965 0 0)
(-0.15316861 0 0)
(-0.155727 0 0)
(-0.15751812 0 0)
(-0.15829924 0 0)
(-0.13649376 0 0)
(-0.13058294 0 0)
(-0.12374997 0 0)
(-0.11591621 0 0)
(-0.10699083 0 0)
(-0.096914319 0 0)
(-0.085665452 0 0)
(-0.073080256 0 0)
(-0.059206217 0 0)
(-0.043824759 0 0)
(-0.027261355 0 0)
(-0.009427772 0 0)
(-0.14139856 0 0)
(-0.14515005 0 0)
(-0.14798061 0 0)
(-0.15000903 0 0)
(-0.15127176 0 0)
(-0.15169136 0 0)
(-0.15119715 0 0)
(-0.14987732 0 0)
(-0.14771113 0 0)
(-0.14488196 0 0)
(-0.14164355 0 0)
(-0.1379266 0 0)
(-0.13379294 0 0)
(-0.12933789 0 0)
(-0.12472038 0 0)
(-0.12007665 0 0)
(-0.11554721 0 0)
(-0.11130045 0 0)
(-0.10752584 0 0)
(-0.10442611 0 0)
(-0.10218701 0 0)
(-0.10095176 0 0)
(-0.10079025 0 0)
(-0.10172609 0 0)
(-0.10372671 0 0)
(-0.10670497 0 0)
(-0.11056176 0 0)
(-0.11512156 0 0)
(-0.12022841 0 0)
(-0.12563292 0 0)
(-0.13105872 0 0)
(-0.13630414 0 0)
(-0.14116548 0 0)
(-0.14559552 0 0)
(-0.1495196 0 0)
(-0.15284742 0 0)
(-0.15539496 0 0)
(-0.15717182 0 0)
(-0.1579085 0 0)
(-0.14125264 0 0)
(-0.1363688 0 0)
(-0.13048917 0 0)
(-0.12370849 0 0)
(-0.11592826 0 0)
(-0.10705067 0 0)
(-0.097013606 0 0)
(-0.085798351 0 0)
(-0.073216078 0 0)
(-0.059351543 0 0)
(-0.043937947 0 0)
(-0.027276249 0 0)
(-0.0094013828 0 0)
(-0.14499055 0 0)
(-0.14782053 0 0)
(-0.14987026 0 0)
(-0.15117507 0 0)
(-0.15166408 0 0)
(-0.15126809 0 0)
(-0.15007706 0 0)
(-0.14808069 0 0)
(-0.14519192 0 0)
(-0.14172584 0 0)
(-0.13800841 0 0)
(-0.13384005 0 0)
(-0.12930457 0 0)
(-0.1245517 0 0)
(-0.11971798 0 0)
(-0.1149273 0 0)
(-0.11033452 0 0)
(-0.10613213 0 0)
(-0.1025221 0 0)
(-0.099697038 0 0)
(-0.097818602 0 0)
(-0.096987382 0 0)
(-0.097274379 0 0)
(-0.098682096 0 0)
(-0.10116231 0 0)
(-0.10459947 0 0)
(-0.10885975 0 0)
(-0.11378057 0 0)
(-0.11918774 0 0)
(-0.12483801 0 0)
(-0.13044375 0 0)
(-0.13580765 0 0)
(-0.14074609 0 0)
(-0.14521681 0 0)
(-0.14915838 0 0)
(-0.15248858 0 0)
(-0.15502636 0 0)
(-0.15678177 0 0)
(-0.15746095 0 0)
(-0.14484795 0 0)
(-0.14112068 0 0)
(-0.13626119 0 0)
(-0.13042787 0 0)
(-0.12370576 0 0)
(-0.11598036 0 0)
(-0.10713858 0 0)
(-0.097139164 0 0)
(-0.085956998 0 0)
(-0.073372263 0 0)
(-0.059508241 0 0)
(-0.043939802 0 0)
(-0.027191161 0 0)
(-0.0093707951 0 0)
(-0.14766875 0 0)
(-0.14973149 0 0)
(-0.15106642 0 0)
(-0.15160594 0 0)
(-0.15129321 0 0)
(-0.15021727 0 0)
(-0.14836954 0 0)
(-0.14566437 0 0)
(-0.14206762 0 0)
(-0.13803985 0 0)
(-0.13385844 0 0)
(-0.12926592 0 0)
(-0.12440956 0 0)
(-0.11941438 0 0)
(-0.11439528 0 0)
(-0.10950396 0 0)
(-0.10492228 0 0)
(-0.1008419 0 0)
(-0.097458712 0 0)
(-0.094952796 0 0)
(-0.093456124 0 0)
(-0.093072189 0 0)
(-0.093841022 0 0)
(-0.095743015 0 0)
(-0.0986983 0 0)
(-0.10257703 0 0)
(-0.10724292 0 0)
(-0.11249954 0 0)
(-0.11819535 0 0)
(-0.1240734 0 0)
(-0.12983372 0 0)
(-0.13530796 0 0)
(-0.14030985 0 0)
(-0.14481247 0 0)
(-0.14876384 0 0)
(-0.1520958 0 0)
(-0.15463834 0 0)
(-0.15634544 0 0)
(-0.15696218 0 0)
(-0.14752903 0 0)
(-0.14471443 0 0)
(-0.14100273 0 0)
(-0.13618486 0 0)
(-0.13040329 0 0)
(-0.1237356 0 0)
(-0.11606464 0 0)
(-0.10726252 0 0)
(-0.097293451 0 0)
(-0.086135708 0 0)
(-0.07354356 0 0)
(-0.059512535 0 0)
(-0.043792909 0 0)
(-0.02709442 0 0)
(-0.0093359412 0 0)
(-0.14959397 0 0)
(-0.15094764 0 0)
(-0.15152712 0 0)
(-0.15128131 0 0)
(-0.1502987 0 0)
(-0.14858074 0 0)
(-0.14604567 0 0)
(-0.14265116 0 0)
(-0.13841963 0 0)
(-0.1338319 0 0)
(-0.12920646 0 0)
(-0.12427364 0 0)
(-0.1191506 0 0)
(-0.1139426 0 0)
(-0.1087854 0 0)
(-0.10385998 0 0)
(-0.099359081 0 0)
(-0.095466894 0 0)
(-0.092362961 0 0)
(-0.090222807 0 0)
(-0.089167464 0 0)
(-0.089252777 0 0)
(-0.090516504 0 0)
(-0.092911372 0 0)
(-0.096345748 0 0)
(-0.10066452 0 0)
(-0.10570405 0 0)
(-0.11128342 0 0)
(-0.11723985 0 0)
(-0.12332557 0 0)
(-0.12923092 0 0)
(-0.13480051 0 0)
(-0.13985529 0 0)
(-0.14438256 0 0)
(-0.14833907 0 0)
(-0.15171328 0 0)
(-0.1542221 0 0)
(-0.15585482 0 0)
(-0.15642008 0 0)
(-0.14945933 0 0)
(-0.14739072 0 0)
(-0.14459049 0 0)
(-0.14091152 0 0)
(-0.13613504 0 0)
(-0.13040585 0 0)
(-0.12379949 0 0)
(-0.11618286 0 0)
(-0.10740617 0 0)
(-0.097466674 0 0)
(-0.086331867 0 0)
(-0.073526564 0 0)
(-0.059316552 0 0)
(-0.043626601 0 0)
(-0.026984421 0 0)
(-0.0092960299 0 0)
(-0.15082299 0 0)
(-0.15142844 0 0)
(-0.15123609 0 0)
(-0.15033408 0 0)
(-0.14872564 0 0)
(-0.14633332 0 0)
(-0.14312145 0 0)
(-0.13910732 0 0)
(-0.13424596 0 0)
(-0.12911714 0 0)
(-0.12412941 0 0)
(-0.11890804 0 0)
(-0.11354304 0 0)
(-0.10816267 0 0)
(-0.10294038 0 0)
(-0.0980585 0 0)
(-0.093698029 0 0)
(-0.090041052 0 0)
(-0.08727384 0 0)
(-0.085545564 0 0)
(-0.084942411 0 0)
(-0.085531388 0 0)
(-0.087309171 0 0)
(-0.090207218 0 0)
(-0.094105615 0 0)
(-0.098841281 0 0)
(-0.10424863 0 0)
(-0.11012225 0 0)
(-0.1163246 0 0)
(-0.12259961 0 0)
(-0.1286284 0 0)
(-0.13428096 0 0)
(-0.1393814 0 0)
(-0.1439221 0 0)
(-0.14796574 0 0)
(-0.15132979 0 0)
(-0.1537496 0 0)
(-0.15531907 0 0)
(-0.15582759 0 0)
(-0.15069357 0 0)
(-0.149324 0 0)
(-0.14725966 0 0)
(-0.14448439 0 0)
(-0.14084202 0 0)
(-0.1361146 0 0)
(-0.13044081 0 0)
(-0.12388813 0 0)
(-0.11632369 0 0)
(-0.10757368 0 0)
(-0.097657128 0 0)
(-0.086307447 0 0)
(-0.073281116 0 0)
(-0.059090926 0 0)
(-0.043439548 0 0)
(-0.026861031 0 0)
(-0.0092508821 0 0)
(-0.15131502 0 0)
(-0.15116452 0 0)
(-0.15032487 0 0)
(-0.14880957 0 0)
(-0.14654481 0 0)
(-0.14349394 0 0)
(-0.13967421 0 0)
(-0.13504407 0 0)
(-0.12956095 0 0)
(-0.12396728 0 0)
(-0.11867275 0 0)
(-0.11318292 0 0)
(-0.10761426 0 0)
(-0.10212925 0 0)
(-0.096912204 0 0)
(-0.092136926 0 0)
(-0.087974259 0 0)
(-0.084609096 0 0)
(-0.082222253 0 0)
(-0.080944634 0 0)
(-0.080843691 0 0)
(-0.08194435 0 0)
(-0.084238945 0 0)
(-0.087627353 0 0)
(-0.091984256 0 0)
(-0.097125692 0 0)
(-0.10286652 0 0)
(-0.10901854 0 0)
(-0.11544114 0 0)
(-0.12188496 0 0)
(-0.12802333 0 0)
(-0.13374935 0 0)
(-0.13888234 0 0)
(-0.14357033 0 0)
(-0.14762793 0 0)
(-0.15088406 0 0)
(-0.15322746 0 0)
(-0.15472984 0 0)
(-0.15519379 0 0)
(-0.15118818 0 0)
(-0.1505553 0 0)
(-0.14918457 0 0)