/*--------------------------------*- C++ -*----------------------------------*\
| =========                 |                                                 |
| \\      /  F ield         | OpenFOAM: The Open Source CFD Toolbox           |
|  \\    /   O peration     | Version:  v2012                                 |
|   \\  /    A nd           | Website:  www.openfoam.com                      |
|    \\/     M anipulation  |                                                 |
\*---------------------------------------------------------------------------*/
FoamFile
{
    version     2.0;
    format      ascii;
    class       surfaceScalarField;
    location    "41.9635860759583679";
    object      meshPhi;
}
// * * * * * * * * * * * * * * * * * * * * * * * * * * * * * * * * * * * * * //

dimensions      [0 3 -1 0 0 0 0];
oriented        oriented;


internalField   nonuniform List<scalar> 
18180
(
7.4500576e-14
-0.052934298
0
-0.048796762
-7.1759147e-14
-0.10632001
0
-0.045216488
0
-0.098290156
6.9202181e-14
-0.16006771
-3.7239289e-14
-0.04271575
-7.1770402e-14
-0.091109995
0
-0.14833942
6.6688193e-14
-0.21208279
7.4539778e-14
-0.040957913
0
-0.085233593
0
-0.13724176
0
-0.19719877
0
-0.2623787
0
-0.039532394
-3.5895378e-14
-0.080719459
0
-0.12776513
0
-0.18304561
0
-0.24455669
-6.1880731e-14
-0.30973229
2.567456e-17
-0.038207839
-3.5925065e-14
-0.077147465
2.2527705e-17
-0.11998155
6.6677911e-14
-0.17011581
0
-0.22749025
0
-0.28935014
0
-0.35450848
0
-0.036834239
-3.5908324e-14
-0.073936384
0
-0.11341266
3.3353465e-14
-0.15867632
0
-0.21157787
0
-0.2700541
0
-0.331531
5.7494146e-14
-0.39589452
0
-0.035393033
0
-0.07083771
3.462408e-14
-0.10770051
-2.1922831e-17
-0.1490178
2.2362501e-17
-0.19739472
-3.0966373e-14
-0.2519002
0
-0.30998023
0
-0.37061334
5.5400022e-14
-0.43443452
0
-0.033899813
0
-0.067747316
3.4607959e-14
-0.10247527
0
-0.14067339
0
-0.18483789
0
-0.23515498
5.9655817e-14
-0.2896657
0
-0.34685891
0
-0.40673941
0
-0.46963833
0
-0.032380094
0
-0.064657545
0
-0.097464978
0
-0.13306977
2.1803615e-17
-0.17374623
0
-0.22011098
2.0582371e-17
-0.27070111
0
-0.32427232
5.5402786e-14
-0.38082348
0
-0.43994564
5.1439188e-14
-0.50207764
0
-0.030858187
-3.5961345e-14
-0.061587863
2.2655666e-17
-0.092594333
0
-0.1259673
3.2129102e-14
-0.16379662
0
-0.20663846
2.9820803e-14
-0.25330979
-2.8732616e-14
-0.30305082
0
-0.35612807
3.1649562e-17
-0.41207879
0
-0.47038525
0
-0.53148676
-1.8667083e-14
-0.029348839
0
-0.058562186
0
-0.0878496
0
-0.11918106
3.2133873e-14
-0.15455639
0
-0.19441578
-2.9822833e-14
-0.23758877
-1.8637087e-17
-0.28349063
2.7719465e-14
-0.3327392
2.667611e-14
-0.38543006
5.1438737e-14
-0.44081756
0
-0.49818222
4.7764442e-14
-0.55845588
0
-0.027865663
0
-0.055599062
0
-0.083236861
0
-0.1126641
-3.2138754e-14
-0.14584001
-3.0959474e-14
-0.18317822
2.984572e-14
-0.22341394
0
-0.26584417
-2.7685289e-14
-0.31129621
2.6691934e-14
-0.36036865
-5.1423162e-14
-0.41263002
0
-0.46712807
0
-0.52354318
-4.6006448e-14
-0.58283548
0
-0.02641438
-1.7977369e-14
-0.052710258
0
-0.078768256
0
-0.1063936
0
-0.13753975
0
-0.17267603
0
-0.21047367
0
-0.25002898
2.7702842e-14
-0.29210589
-2.6691561e-14
-0.33744185
2.571832e-14
-0.38604643
0
-0.43756389
0
-0.49123617
4.6004068e-14
-0.54664141
1.9718499e-17
-0.60511738
-1.8661374e-14
-0.025001318
1.3356653e-17
-0.049905491
0
-0.074452947
0
-0.10036962
0
-0.12960858
0
-0.16274243
0
-0.19844117
0
-0.23561236
0
-0.27479916
-2.6674566e-14
-0.31682975
-2.5717393e-14
-0.36180225
2.4780351e-14
-0.40977473
2.3866198e-14
-0.4605784
0
-0.51323444
0
-0.56763595
0
-0.6252023
1.8679285e-14
-0.023630586
0
-0.047193669
-1.7325234e-14
-0.070303771
1.6700582e-14
-0.094600069
1.6076661e-14
-0.12202193
0
-0.15328922
0
-0.18710639
0
-0.22221626
0
-0.25900234
0
-0.29826069
0
-0.34001683
-2.4778672e-14
-0.38434731
-2.3864051e-14
-0.43168006
2.2997725e-14
-0.48164288
-4.4328694e-14
-0.53332045
4.2742511e-14
-0.58669336
4.1194788e-14
-0.64352934
0
-0.022306115
1.361466e-17
-0.044582119
0
-0.066329695
3.3406233e-14
-0.089095546
-1.6078999e-14
-0.1147749
0
-0.14426862
0
-0.17633638
0
-0.20959945
0
-0.24434797
0
-0.28117872
0
-0.32014094
1.4149349e-17
-0.36132406
0
-0.40515547
0
-0.45189879
2.2161372e-14
-0.50098956
0
-0.55154354
0
-0.60396245
0
-0.66003544
0
-0.021029738
-1.3730435e-17
-0.042071886
-1.7330306e-14
-0.062537346
1.6694939e-14
-0.083862283
1.0586652e-17
-0.10786817
0
-0.13565558
-1.08479e-17
-0.16607174
0
-0.19759615
0
-0.23050684
-2.6673524e-14
-0.26522184
0
-0.30169616
-2.4760256e-14
-0.34014196
0
-0.38097684
-2.3003803e-14
-0.42443837
1.0865298e-17
-0.47046283
0
-0.51855467
4.118565e-14
-0.56810002
3.9697209e-14
-0.61960635
0
-0.67505694
-1.8670306e-14
-0.01980298
0
-0.039664529
-1.7344286e-14
-0.05892645
0
-0.078899288
1.6093958e-14
-0.10130459
-1.5491441e-14
-0.12743909
-1.4921458e-14
-0.15628142
0
-0.18613491
0
-0.21733301
0
-0.25020462
-2.5697047e-14
-0.28447425
0
-0.32040362
0
-0.3586802
1.2312657e-17
-0.39937094
2.2154206e-14
-0.44225158
-2.1352004e-14
-0.487445
-2.0589226e-14
-0.5345588
0
-0.58306159
0
-0.63372901
3.6877053e-14
-0.68855486
0
-0.018628083
1.8005549e-14
-0.037357592
-1.7346475e-14
-0.055496071
0
-0.074207119
0
-0.095085929
-1.5493269e-14
-0.11961429
0
-0.14695086
-1.4374161e-14
-0.17518829
0
-0.20473683
0
-0.23595192
0
-0.26832189
0
-0.30198631
0
-0.33788881
0
-0.37622534
0
-0.41645566
0
-0.45860624
2.0585044e-14
-0.50288602
0
-0.5490249
-3.8237727e-14
-0.59660018
0
-0.64648775
0
-0.70081689
0
-0.017506112
0
-0.035150157
1.7348505e-14
-0.052241156
-1.6711973e-14
-0.069781859
-1.6097817e-14
-0.089215096
-1.5495021e-14
-0.1121882
2.9860075e-14
-0.13807143
1.008935e-17
-0.16474162
0
-0.19268692
0
-0.22235776
0
-0.25305839
0
-0.2847237
0
-0.31835691
0
-0.35461166
2.2145731e-14
-0.39274871
0
-0.43224301
0
-0.47351563
8.2621309e-18
-0.51692868
-1.9114312e-14
-0.56214025
0
-0.60878977
0
-0.65797793
0
-0.7118272
9.3374683e-15
-0.016438755
0
-0.033045636
0
-0.049155352
-1.670324e-14
-0.065616584
0
-0.0836886
-1.5507699e-14
-0.10516108
-1.4925837e-14
-0.12963506
1.4376617e-14
-0.15478883
9.3019521e-18
-0.18116766
-1.3337896e-14
-0.20937066
0
-0.23855767
0
-0.26846111
0
-0.30005279
0
-0.33432678
0
-0.3706377
2.134922e-14
-0.40801845
0
-0.4466531
1.9823303e-14
-0.48709454
1.9123939e-14
-0.52961459
1.8428166e-14
-0.57395931
0
-0.61979686
0
-0.66835046
0
-0.72179502
0
-0.015426143
8.9982034e-15
-0.031046749
0
-0.046232584
0
-0.061695844
0
-0.078497587
0
-0.098526324
-1.4938634e-14
-0.12163604
1.0159519e-17
-0.14532176
0
-0.17017299
-1.3338374e-14
-0.19696723
1.2856282e-14
-0.22473593
0
-0.25306394
0
-0.28283106
0
-0.31508869
0
-0.34964404
0
-0.38538382
0
-0.42191525
0
-0.45975521
-1.9110912e-14
-0.4993693
1.8422765e-14
-0.54111621
-1.7754517e-14
-0.5846513
0
-0.62970196
0
-0.67765523
3.1825516e-14
-0.73071479
9.3385854e-15
-0.01446812
0
-0.029151824
0
-0.043465846
0
-0.058001976
0
-0.073626655
0
-0.092274996
0
-0.11406362
-1.4389202e-14
-0.13633631
0
-0.15970334
-1.3338905e-14
-0.18513351
1.2856562e-14
-0.21155504
0
-0.23840943
-6.6535207e-18
-0.26650783
2.298387e-14
-0.29686296
0
-0.32959971
2.1339829e-14
-0.36377454
0
-0.39866807
1.9820875e-14
-0.43449042
0
-0.47160693
0
-0.51049242
6.1038375e-18
-0.55148708
0
-0.59429916
0
-0.63862023
0
-0.68602389
0
-0.73875139
-9.3470675e-15
-0.013563645
9.0065626e-15
-0.027358672
0
-0.040847987
0
-0.054515874
0
-0.069059539
0
-0.086400527
0
-0.10690787
0
-0.12782512
-1.3859367e-14
-0.14975756
9.2168395e-18
-0.17386555
-1.2848475e-14
-0.19899638
-1.2368677e-14
-0.22444433
6.669966e-18
-0.25100499
-1.1490729e-14
-0.27963332
0
-0.31049964
0
-0.3429517
0
-0.37635823
0
-0.41063314
1.9090754e-14
-0.44586173
-1.8403182e-14
-0.48233475
-6.3172261e-18
-0.52053532
-1.7105862e-14
-0.56090836
-1.6497901e-14
-0.60300998
0
-0.64661785
0
-0.69349393
2.9568526e-14
-0.74591774
9.3474674e-15
-0.012710597
-7.1733195e-18
-0.025665574
0
-0.038371814
2.5074246e-14
-0.051222728
-8.0525812e-15
-0.064776671
0
-0.080890637
0
-0.100154
1.438127e-14
-0.11977916
-1.3851012e-14
-0.14033209
-9.3228296e-18
-0.16315853
0
-0.18705007
0
-0.2111476
1.1927451e-14
-0.23624421
1.1496201e-14
-0.26328393
0
-0.29237748
0
-0.3230245
0
-0.35480685
-3.9609291e-14
-0.38764082
0
-0.42145179
1.8396336e-14
-0.45618695
-1.7735025e-14
-0.49204847
-5.721758e-18
-0.52964719
5.0064983e-18
-0.56939938
1.5901317e-14
-0.61086567
3.0663471e-14
-0.65379345
0
-0.70019429
0
-0.75233462
0
-0.011906704
9.0075448e-15
-0.024069484
8.6725811e-15
-0.036031471
-8.3604255e-15
-0.048111165
0
-0.060759012
-5.2720372e-18
-0.07572934
1.4943478e-14
-0.093789107
0
-0.11218318
0
-0.13141841
0
-0.15300516
-1.2857871e-14
-0.17570403
1.2383394e-14
-0.19850021
0
-0.22219742
1.1488823e-14
-0.24775571
0
-0.2752243
-1.0663423e-14
-0.30412629
0
-0.33417468
1.9794042e-14
-0.36545876
1.6844041e-17
-0.39793784
1.8396953e-14
-0.43135212
0
-0.46555346
-1.7091657e-14
-0.50084318
-1.6484939e-14
-0.53788154
4.5560698e-18
-0.57712334
0
-0.61794092
0
-0.66021674
0
-0.7061379
-2.7468034e-14
-0.75802087
0
-0.011149439
0
-0.02256611
8.6792132e-15
-0.03382302
-8.3609027e-15
-0.045170797
8.0535769e-15
-0.056987207
0
-0.070899005
0
-0.087795966
0
-0.10502182
0
-0.12300693
1.3350813e-14
-0.14339202
0
-0.16494053
0
-0.18648726
1.1926738e-14
-0.20884031
2.2969614e-14
-0.23300313
1.1066727e-14
-0.25897981
0
-0.2862708
-1.0272498e-14
-0.31463517
0
-0.34430314
0
-0.37529767
1.8390087e-14
-0.4073884
0
-0.44035706
1.7083906e-14
-0.47405662
0
-0.5088043
1.5883384e-14
-0.5453617
4.1130631e-18
-0.58407894
-3.5824506e-18
-0.62432625
-2.8483304e-14
-0.66595064
0
-0.71143421
4.4160709e-18
-0.76307062
0
-0.010432581
0
-0.021150169
-8.6858403e-15
-0.03174
0
-0.042394275
-4.8884983e-18
-0.053443752
7.7526895e-15
-0.066377776
-7.4726124e-15
-0.082157186
-7.1971316e-15
-0.098279904
0
-0.11508504
0
-0.13430435
0
-0.15474301
0
-0.17508818
1.1926515e-14
-0.19615396
6.5891349e-18
-0.21899687
-1.10657e-14
-0.24358126
0
-0.26938935
1.0270419e-14
-0.29618042
0
-0.32422413
0
-0.35370626
0
-0.38438272
-3.5425272e-14
-0.41606417
0
-0.44859472
-1.646399e-14
-0.48177673
0
-0.51603083
-4.2588364e-18
-0.55213069
3.747436e-18
-0.59041675
0
-0.63005424
2.7461276e-14
-0.67105187
0
-0.71610197
0
-0.76751983
-4.7940226e-05
-0.011447062
-9.0011563e-15
-0.019810129
0
-0.029774926
0
-0.039772793
4.875476e-18
-0.05011075
7.7530716e-15
-0.062145594
0
-0.07685844
0
-0.091941333
0
-0.1076406
0
-0.12572851
0
-0.14509196
0
-0.16428687
0
-0.1841193
-1.1486946e-14
-0.20570705
-1.1058332e-14
-0.22898388
-1.065889e-14
-0.25340889
5.3071846e-18
-0.27873295
4.8183234e-18
-0.30523422
0
-0.33322349
0
-0.36249474
0
-0.3927606
3.4148744e-14
-0.42404154
1.6455543e-14
-0.45612788
0
-0.48882252
0
-0.52259305
-3.8628301e-18
-0.55828388
-1.4230179e-14
-0.59611566
1.3722934e-14
-0.63521193
0
-0.67558682
2.5518762e-14
-0.7202527
0
-0.7714477
-8.0678983e-05
-0.011425806
-0.00013413968
-0.021585414
0
-0.027912157
0
-0.037299048
0
-0.046977182
7.7584809e-15
-0.058184867
-7.4732651e-15
-0.07188577
-1.4390653e-14
-0.085989918
0
-0.10065701
-4.8526698e-18
-0.11764915
0
-0.13596919
0
-0.15406249
1.1926288e-14
-0.17271957
0
-0.19311239
-1.106409e-14
-0.2151513
0
-0.23827056
-1.02616e-14
-0.26222235
4.8626228e-18
-0.28729102
0
-0.31378074
0
-0.34164921
0
-0.37059771
0
-0.40049947
0
-0.4314181
0
-0.46306288
0
-0.49523268
-1.4747687e-14
-0.52854308
-1.4226419e-14
-0.56385416
1.3719843e-14
-0.60130835
-1.3230724e-14
-0.63981972
0
-0.67961421
-2.4602345e-14
-0.7239151
0
-0.77489338
-9.9874254e-05
-0.011403087
-0.0002259334
-0.021627563
-0.00020435346
-0.030199716
0
-0.034953084
0
-0.044033331
0
-0.054478707
5.6986447e-18
-0.067226877
7.1931033e-15
-0.080407917
0
-0.094111946
6.6766814e-15
-0.11004817
-4.7263487e-18
-0.12735686
0
-0.14439548
0
-0.16193656
-1.1479462e-14
-0.18119187
0
-0.20205282
-1.0656801e-14
-0.22393511
0
-0.24657687
-9.8895369e-15
-0.27029359
-9.5238536e-15
-0.29535091
9.1816923e-15
-0.32177982
0
-0.34946373
0
-0.37813489
0
-0.40772471
-1.5849207e-14
-0.43826206
0
-0.46941002
2.9486294e-14
-0.50105969
0
-0.5339381
0
-0.56891615
-1.3222115e-14
-0.60596401
0
-0.6439629
0
-0.6832088
0
-0.7271828
0
-0.77791617
-0.00010722389
-0.011381617
-0.00027994532
-0.021662555
-0.00034449703
-0.030359859
-0.00025956855
-0.037512924
0
-0.0412512
0
-0.051009943
0
-0.062862427
7.1983857e-15
-0.07517774
0
-0.08798465
1.3349017e-14
-0.10290885
0
-0.11923857
-3.8328211e-18
-0.13526727
0
-0.15174724
0
-0.16992483
6.7438838e-18
-0.18966155
1.0649808e-14
-0.21036548
-5.4203769e-18
-0.23174991
4.9371665e-18
-0.25418192
9.5215367e-15
-0.27790006
0
-0.30290506
0
-0.32922791
8.5216778e-15
-0.35676201
0
-0.38521701
0
-0.41448723
5.2999235e-18
-0.44460146
0
-0.47522199
0
-0.50634947
-1.3701607e-14
-0.53882881
0
-0.57349424
2.5287074e-18
-0.6102002
-2.103167e-18
-0.64766016
2.3709344e-14
-0.686418
0
-0.73007419
-2.20371e-14
-0.78055445
-0.00010445034
-0.011361664
-0.00030082783
-0.021695799
-0.00042724838
-0.03050012
-0.00043762268
-0.037783857
-0.00030328117
-0.043944127
-7.7589695e-15
-0.047750005
0
-0.058774647
0
-0.070280612
4.4754333e-18
-0.082253932
6.6723084e-15
-0.096214677
-6.4309664e-15
-0.11159854
6.1889128e-15
-0.12665909
5.9598431e-15
-0.14213014
0
-0.15928533
0
-0.17795024
6.2666138e-18
-0.19753166
0
-0.21770649
9.8813071e-15
-0.23890195
4.666961e-18
-0.26136191
0
-0.28501613
-2.6518335e-14
-0.30991257
8.5215467e-15
-0.33618578
8.2105094e-15
-0.36365675
0
-0.39188715
0
-0.4208132
0
-0.45045226
0
-0.48053099
0
-0.51115984
0
-0.54326079
-1.2741302e-14
-0.57764348
-1.2286194e-14
-0.6139895
1.1848809e-14
-0.65098275
2.2854665e-14
-0.68929803
0
-0.73266584
0
-0.78283706
-9.3294062e-05
-0.011343466
-0.00029332858
-0.021727002
-0.00045955386
-0.03062969
-0.00054272172
-0.038018271
-0.00051117206
-0.04437162
-0.00034136093
-0.050469737
0
-0.054932235
0
-0.065698683
0
-0.076898385
4.8696217e-18
-0.089949926
-4.8758782e-18
-0.10441952
0
-0.1185544
0
-0.13306483
5.7393083e-15
-0.14925009
0
-0.16689319
0
-0.18540541
0
-0.20441565
-9.8849155e-15
-0.22441737
0
-0.24567901
0
-0.26806252
-8.839142e-15
-0.29157407
0
-0.31645404
8.2099192e-15
-0.34281275
0
-0.37021859
0
-0.39818995
0
-0.42670798
0
-0.45585645
0
-0.48538562
0
-0.51551281
1.2733707e-14
-0.54725678
0
-0.58139051
2.0579469e-18
-0.61741745
4.5690991e-14
-0.65394628
0
-0.69188531
0
-0.73495705
1.8215186e-18
-0.78479649
-7.5511065e-05
-0.011327171
-0.00026225677
-0.021755604
-0.00044853546
-0.030747732
-0.00058378147
-0.038230768
-0.00063384145
-0.044743868
-0.00057523613
-0.051052526
-0.00037896782
-0.057553531
0
-0.06138802
6.9285627e-15
-0.071895362
0
-0.08408918
6.4314585e-15
-0.097686872
-3.8574205e-18
-0.11093476
0
-0.12453497
0
-0.13979617
-5.5309919e-15
-0.15646342
0
-0.1739591
1.0261527e-14
-0.19185094
0
-0.21069758
0
-0.23081007
0
-0.25199272
3.9753364e-18
-0.27420353
-8.5146604e-15
-0.29769131
1.6412076e-14
-0.32275042
3.4269817e-18
-0.34919883
-7.6257213e-15
-0.37646031
0
-0.40411652
0
-0.43221116
0
-0.46082804
0
-0.4897964
1.2722436e-14
-0.51943404
-1.2272239e-14
-0.55086242
-1.1839454e-14
-0.58476985
1.8465547e-18
-0.62047149
0
-0.65661784
0
-0.69421846
2.0475698e-14
-0.73700518
-1.9738764e-14
-0.7864385
-5.2858386e-05
-0.011312823
-0.00021247075
-0.021781099
-0.00040139634
-0.030853634
-0.00056977045
-0.038419845
-0.00068162351
-0.045077467
-0.00071309724
-0.051562191
-0.00063791566
-0.058243813
-0.00041332261
-0.063866884
0
-0.067199506
0
-0.078606546
0
-0.091374886
3.8546899e-18
-0.10378176
-3.3004965e-18
-0.11651851
0
-0.13090139
-5.5273302e-15
-0.14663454
5.3237462e-15
-0.16316314
0
-0.17998374
9.8777564e-15
-0.19771772
0
-0.21672468
0
-0.23675708
0
-0.25774611
0
-0.27991828
-8.2023921e-15
-0.30360023
-7.9023147e-15
-0.3288811
7.6212183e-15
-0.35533929
-7.3479333e-15
-0.38238127
0
-0.40970144
0
-0.43732532
3.8915602e-18
-0.46539495
0
-0.49378645
0
-0.52296216
2.1645315e-18
-0.55410304
-1.1412978e-14
-0.5878079
-1.1005764e-14
-0.62323528
0
-0.65900137
2.0471064e-14
-0.6963258
0
-0.73878525
0
-0.78779524
-2.7101804e-05
-0.01130067
-0.00014886772
-0.021802972
-0.00032548761
-0.030945916
-0.0005099301
-0.038584474
-0.00066512167
-0.045370863
-0.00076663498
-0.052011645
-0.00078985142
-0.058837582
-0.00069503866
-0.064762065
-0.00044064671
-0.069488855
4.8452074e-18
-0.073465153
0
-0.085455921
0
-0.097074249
5.9632621e-15
-0.10899259
-5.742606e-15
-0.12254019
5.527208e-15
-0.13737994
0
-0.15298779
5.1274518e-15
-0.16878636
0
-0.18545181
-9.5133216e-15
-0.20339676
0
-0.22232366
8.8319958e-15
-0.24214607
8.5052844e-15
-0.263087
0
-0.28545457
0
-0.30946733
7.6168017e-15
-0.33488559
-7.339998e-15
-0.36120329
-2.873812e-18
-0.38800293
0
-0.41493679
0
-0.442067
-1.2702776e-14
-0.46955271
0
-0.49739131
0
-0.52612886
0
-0.55701482
0
-0.59053964
1.4964708e-18
-0.62569612
0
-0.66115704
0
-0.69821054
1.9025688e-14
-0.74034591
1.8342091e-14
-0.7888613
-0.01129079
0
-7.6394618e-05
-0.021821078
-0.00022825623
-0.03102328
-0.0004135095
-0.038723263
-0.00059510734
-0.045621222
-0.00074785953
-0.052399686
-0.00084825993
-0.059352336
-0.0008598285
-0.065531393
-0.00074116924
-0.07066264
-0.00046496219
-0.075486715
0
-0.079887103
0
-0.090789419
0
-0.10193542
-5.738938e-15
-0.11469025
-3.6524598e-18
-0.12867493
0
-0.14340441
5.1299459e-15
-0.15822929
-2.4528841e-18
-0.17387228
0
-0.19080269
0
-0.20866594
3.9856021e-18
-0.22736377
8.5065608e-15
-0.24714508
-3.6102052e-18
-0.26829336
-7.8946201e-15
-0.29102204
3.5478198e-18
-0.31526248
7.3385247e-15
-0.34065124
0
-0.36680064
0
-0.39330753
0
-0.41983584
0
-0.44643114
0
-0.47334913
0
-0.50063401
-1.1396505e-14
-0.52896084
1.7246609e-18
-0.55961435
-1.0605821e-14
-0.59299608
1.3446973e-18
-0.62791911
0
-0.6630652
0
-0.69990285
0
-0.74163761
8.3108407e-19
-0.78966763
-0.021835323
0
-0.01128296
2.7064229e-05
-0.00011722802
-0.031085099
-0.0002900118
-0.038835131
-0.00048247554
-0.045827227
-0.0006689052
-0.052725601
-0.00082662337
-0.059788625
-0.00092261611
-0.066202056
-0.00091715092
-0.071687939
-0.0007824755
-0.0769423
-0.00048876669
-0.081580743
0
-0.084865662
0
-0.095323475
0
-0.10732061
-5.5270207e-15
-0.12049284
-3.4010469e-18
-0.13438516
0
-0.14828488
0
-0.16295242
0
-0.17891552
0
-0.1957599
0
-0.21337177
0
-0.2320392
8.1897357e-15
-0.25203985
0
-0.27354083
0
-0.2965519
1.4664563e-14
-0.32088529
3.215287e-18
-0.3461872
2.9079876e-18
-0.3721235
0
-0.39832254
1.2685316e-14
-0.4243959
0
-0.45045416
-1.1803056e-14
-0.47678505
0
-0.50354033
-1.0988258e-14
-0.53147526
1.0599821e-14
-0.56194269
0
-0.59520393
1.2050136e-18
-0.62988714
0
-0.66479193
0
-0.70135989
0
-0.74270111
1.7042556e-14
-0.79021206
-0.031130578
0
-0.021846423
7.6409508e-05
-0.011277353
5.2713598e-05
-0.00014895652
-0.038919465
-0.00033829766
-0.045988416
-0.00054213745
-0.052987458
-0.00073865384
-0.060147089
-0.00089836785
-0.066772413
-0.00098438097
-0.072586619
-0.00096872253
-0.07822195
-0.00082263931
-0.083321001
-0.00050627668
-0.086140142
0
-0.089104178
0
-0.10040129
0
-0.11280371
3.4377326e-18
-0.12589753
-2.6776129e-18
-0.13892504
-2.4139428e-18
-0.15266629
0
-0.1677094
4.582356e-15
-0.18357989
0
-0.20014548
0
-0.21773778
0
-0.23664693
0
-0.25699659
0
-0.27878831
7.3297148e-15
-0.30196846
-7.0659528e-15
-0.32634667
0
-0.35152821
-6.567441e-15
-0.3772029
0
-0.40303129
0
-0.4286386
0
-0.45413964
0
-0.47989804
0
-0.50612235
1.0592881e-14
-0.53371189
1.0218398e-14
-0.56402842
-1.2506246e-18
-0.59718941
9.5050557e-15
-0.63166582
-9.165547e-15
-0.66628507
0
-0.70261176
0
-0.74351201
-1.6427174e-14
-0.79053674
-0.038974829
0
-0.031161579
0.00011741433
-0.021855162
0.00014893443
-0.011274763
7.5209915e-05
-0.00017372749
-0.046104595
-0.00038000382
-0.053184842
-0.00059814069
-0.060427327
-0.00080223802
-0.067240763
-0.00095877982
-0.073355033
-0.001040108
-0.079339931
-0.0010184539
-0.08484685
-0.00085203107
-0.088150517
-0.00051547588
-0.089925215
0
-0.093887366
0
-0.10557802
5.3231582e-15
-0.1179155
2.6699125e-18
-0.13012368
-2.3929262e-18
-0.14298756
4.7549002e-15
-0.15715561
0
-0.17209985
0
-0.18766026
0
-0.20421607
0
-0.22207615
0
-0.24134004
0
-0.26197002
7.3221549e-15
-0.28394357
-7.0578891e-15
-0.30729726
-3.3246648e-18
-0.3316855
6.564955e-15
-0.35664486
0
-0.38201749
-2.2959001e-18
-0.4074522
1.1785061e-14
-0.43255621
0
-0.45750926
-1.0968487e-14
-0.48268212
0
-0.50842144
0
-0.53570305
0
-0.56590544
9.4999963e-15
-0.59897852
0
-0.63322994
7.6319498e-19
-0.66761568
0
-0.7036378
-1.6425616e-14
-0.74412679
0
-0.79064472
-0.046173783
0
-0.039006898
0.0001492247
-0.031177138
0.00022898116
-0.021861671
0.00021263813
-0.01127549
9.2814948e-05
-0.00019508828
-0.053318032
-0.00041895415
-0.060629004
-0.0006492429
-0.067606542
-0.00085633076
-0.073990003
-0.0010133684
-0.080293074
-0.0010935566
-0.086175482
-0.0010546906
-0.089903588
-0.00086750217
-0.092221011
-0.00052299878
-0.094261961
-5.530723e-15
-0.098769726
0
-0.11040999
0
-0.12185515
-4.9370771e-15
-0.13388979
-2.5208558e-18
-0.14722649
4.5815415e-15
-0.16128961
-4.4103604e-15
-0.17588901
-4.2496281e-15
-0.1914472
0
-0.20829927
0
-0.22652672
0
-0.24606268
0
-0.26684399
-7.0570789e-15
-0.28902515
0
-0.31255432
6.5597889e-15
-0.33685919
2.8954527e-18
-0.36155202
0
-0.3865675
0
-0.41155748
0
-0.43616744
0
-0.46056469
2.1997608e-18
-0.48518691
0
-0.51045999
9.8446269e-15
-0.53748042
0
-0.56760283
-9.1590786e-15
-0.60059825
8.7748363e-19
-0.63464856
-6.3602454e-19
-0.66872576
0
-0.70448153
3.166522e-14
-0.74451628
-1.5262979e-14
-0.79057127
-0.053385857
0
-0.046204724
0.00017398474
-0.039014625
0.0002910411
-0.031173893
0.00032703194
-0.02186643
0.00026258019
-0.011279625
0.00010381119
-0.00021493973
-0.060752614
-0.0004545165
-0.06786975
-0.00069314932
-0.0744901
-0.00090535267
-0.081079756
-0.0010653549
-0.087304203
-0.0011322592
-0.091432646
-0.0010739761
-0.094238862
-0.00088063333
-0.096914916
-0.00053127149
-0.098665776
0
-0.10331924
0
-0.11409516
0
-0.12534895
2.5371336e-18
-0.13788713
-2.310703e-18
-0.15111873
0
-0.1648032
0
-0.17940406
8.1833109e-15
-0.19528604
0
-0.21251972
0
-0.23102246
0
-0.25066818
0
-0.27163107
6.7950132e-15
-0.29412657
6.5547323e-15
-0.31776332
0
-0.34186093
6.0966286e-15
-0.3662134
5.8836998e-15
-0.39082983
0
-0.41536565
0
-0.43947509
0
-0.4633412
1.0195935e-14
-0.48741911
0
-0.51227139
0
-0.53907879
0
-0.56915539
-9.4461107e-19
-0.60207148
8.5150761e-15
-0.63587109
-8.2096155e-15
-0.66967581
1.5830308e-14
-0.70510621
0
-0.74472383
-1.4711995e-14
-0.79032284
-0.060797087
0
-0.053399954
0.00019526497
-0.046196492
0.0003392856
-0.038990975
0.00041567048
-0.03115201
0.00040392723
-0.021869439
0.00029385015
-0.011287248
0.00010647557
-0.00023308247
-0.068029435
-0.00048529763
-0.074853695
-0.00073296066
-0.081697486
-0.00095169626
-0.088230643
-0.001102885
-0.09273272
-0.0011531194
-0.09600443
-0.0010907998
-0.099261772
-0.00089513525
-0.10168283
-0.00053747442
-0.10267614
0
-0.10676903
4.9391036e-15
-0.11734439
0
-0.12911289
-9.1572516e-15
-0.14155069
-1.9149546e-18
-0.15437294
-4.2465906e-15
-0.16805916
4.0918417e-15
-0.18300785
-1.9473471e-18
-0.19928581
0
-0.21680323
0
-0.23538252
0
-0.25516594
0
-0.27648128
-6.5498529e-15
-0.29924735
6.3156543e-15
-0.32282667
3.0137674e-18
-0.34663039
5.875648e-15
-0.37060624
0
-0.39479209
5.4679883e-15
-0.41887027
0
-0.44250394
0
-0.46585161
1.7749855e-18
-0.48941772
0
-0.5138785
0
-0.54053143
0
-0.57058542
-8.5113911e-15
-0.60340448
8.2081517e-15
-0.63694489
7.9135469e-15
-0.67041345
0
-0.70555439
0
-0.74474733
-1.4180714e-14
-0.7899384
-0.068082999
0
-0.060782046
0.00021493638
-0.053358051
0.00038066891
-0.046139192
0.00048455515
-0.038936213
0.00051340005
-0.031111574
0.00045204518
-0.021872675
0.0003015876
-0.011298802
9.9117984e-05
-0.00024888482
-0.07507869
-0.00051324865
-0.082144612
-0.0007703745
-0.088952327
-0.0009851198
-0.093799814
-0.001123401
-0.097512156
-0.0011716479
-0.10132127
-0.0011093026
-0.10435901
-0.0009058884
-0.10600501
-0.00053879514
-0.10554973
0
-0.10980274
0
-0.12087878
0
-0.1325584
1.9032829e-18
-0.14456824
-1.7726518e-18
-0.15738567
0
-0.17143758
3.9405763e-15
-0.1867927
0
-0.20336723
0
-0.22093429
0
-0.2395966
3.5963157e-18
-0.25971083
0
-0.28139948
0
-0.30429526
0
-0.32768389
0
-0.35113137
2.4285571e-18
-0.37470019
0
-0.39846255
5.2711373e-15
-0.42208952
0
-0.44526114
0
-0.46812116
-9.4748299e-15
-0.49118713
0
-0.51531751
0
-0.54186999
-8.5068916e-15
-0.57191437
-7.8992328e-19
-0.60459834
7.911629e-15
-0.63783831
0
-0.67100855
0
-0.70582078
0
-0.74463683
0
-0.78942024
-0.075163112
0
-0.068056167
0.00023293112
-0.060707814
0.00041892666
-0.053246642
0.00054351445
-0.046034742
0.00059846159
-0.038851898
0.0005745153
-0.031052401
0.00046384501
-0.021878338
0.00028092849
-0.011314955
8.0042854e-05
-0.00026322927
-0.082419387
-0.00053936587
-0.089467483
-0.00079729762
-0.094629852
-0.0010034609
-0.098755391
-0.0011418925
-0.10308629
-0.0011921161
-0.10670683
-0.0011227921
-0.10895049
-0.00090779615
-0.10914454
-0.00053540621
-0.10800381
0
-0.11310924
0
-0.12411261
-4.4088694e-15
-0.1353597
0
-0.14735455
0
-0.16054823
0
-0.17501278
-3.7907242e-15
-0.19067926
-1.905633e-18
-0.20728089
0
-0.22488209
0
-0.24384419
-6.5372969e-15
-0.26437054
0
-0.28631667
0
-0.30915585
-5.8613356e-15
-0.33225865
0
-0.35533391
5.4583893e-15
-0.37850998
5.2672197e-15
-0.40183418
-5.083129e-15
-0.42502549
9.8086099e-15
-0.44777082
0
-0.47016039
-9.134668e-15
-0.49277036
0
-0.51661534
0
-0.54311258
8.2015894e-15
-0.57312707
7.9085705e-15
-0.6056651
-7.6258759e-15
-0.63860294
0
-0.67142026
0
-0.7059515
0
-0.74437165
1.3174119e-14
-0.78880207
-0.082519937
0
-0.075138096
0.00024870468
-0.067950047
0.00045393554
-0.060555643
0.00059806065
-0.053067069
0.00067109581
-0.045882261
0.00066972138
-0.038736975
0.00058941567
-0.030976166
0.00043189805
-0.021886107
0.0002269962
-0.011335536
4.7560717e-05
-0.00027657355
-0.089774287
-0.00055810026
-0.095218923
-0.00081221138
-0.099727647
-0.0010204371
-0.10455129
-0.001162366
-0.10872042
-0.0012068209
-0.11153419
-0.0011251455
-0.11232027
-0.00090207776
-0.11187043
-0.00053128946
-0.11072241
0
-0.11613311
0
-0.12671936
-4.247047e-15
-0.137939
4.0901266e-15
-0.15031107
-2.0002199e-18
-0.16391816
-7.5858499e-15
-0.17871092
-3.6523351e-15
-0.19438693
-3.5202362e-15
-0.21097608
0
-0.2288481
0
-0.24822161
0
-0.26904553
0
-0.29104726
-3.2397205e-18
-0.31372022
5.6515491e-15
-0.33651779
0
-0.35924635
5.2614687e-15
-0.38202152
-5.0758956e-15
-0.4049225
-1.3998105e-18
-0.42770017
0
-0.45004637
0
-0.47199939
-8.8067827e-15
-0.49418186
0
-0.51779456
-8.1967529e-15
-0.54424774
0
-0.57424288
0
-0.60659221
-1.4701877e-14
-0.6391992
7.0875217e-15
-0.67170441
0
-0.70591586
0
-0.74399532
0
-0.78808458
-0.089869233
0
-0.082484253
0.0002630267
-0.075004196
0.00048460527
-0.067741386
0.00064803534
-0.060325911
0.00073847162
-0.052817306
0.0007507771
-0.045682007
0.000687131
-0.03859011
0.00054860834
-0.030880981
0.00034873194
-0.021895382
0.0001349563
-0.011358305
0
-0.00028612145
-0.095565211
-0.00056855978
-0.10042504
-0.00082625734
-0.10570932
-0.0010391516
-0.11039532
-0.0011768304
-0.1137488
-0.0012092046
-0.1151153
-0.0011179818
-0.11529563
-0.00089525832
-0.11488976
-0.00052688198
-0.11314962
0
-0.11856462
0
-0.12911332
0
-0.14070063
0
-0.1534853
-3.7932342e-15
-0.1674328
-3.6513599e-15
-0.18222091
0
-0.19784283
3.3884632e-15
-0.21467919
0
-0.23295008
0
-0.25261751
6.0702986e-15
-0.2735453
0
-0.29549933
1.1288861e-14
-0.31798144
-5.4441185e-15
-0.34049216
-5.2556376e-15
-0.36286813
1.9214594e-18
-0.38524691
-4.8935105e-15
-0.40772848
0
-0.43012824
0
-0.45210822
0
-0.47365624
-8.4918189e-15
-0.49544991
8.1918494e-15
-0.51885078
7.9026806e-15
-0.54528965
-1.5242685e-14
-0.57522256
7.3489659e-15
-0.60738315
0
-0.63966078
0
-0.67181079
-7.3104324e-20
-0.70576339
0
-0.74349714
-6.6368743e-19
-0.7872737
-0.095665681
0
-0.0897984
0.00027623205
-0.082312547
0.00051246221
-0.074732247
0.00069171186
-0.067432247
0.00080027647
-0.060021029
0.00082632663
-0.052495273
0.00077002295
-0.045429727
0.00063954712
-0.03841015
0.000442745
-0.030768227
0.00020715745
-0.021897081
-9.0065848e-15
-0.010357432
0
-0.00029149169
-0.10084645
-0.00057860848
-0.10655693
-0.00084173871
-0.11172703
-0.0010521526
-0.11558744
-0.0011791231
-0.11751625
-0.0012015939
-0.11831569
-0.0011096285
-0.11858505
-0.00088783746
-0.11760127
-0.00051996983
-0.11498848
0
-0.12079494
0
-0.13168986
0
-0.14368471
2.1240342e-18
-0.15681962
-1.9753676e-18
-0.17075299
-3.5179484e-15
-0.18544848
3.3889256e-15
-0.2012991
0
-0.21852779
0
-0.2370781
6.0657818e-15
-0.25685243
-5.8450617e-15
-0.27780162
0
-0.29967478
-5.4382375e-15
-0.32195435
5.2497928e-15
-0.34417393
-5.0661309e-15
-0.36620148
0
-0.38818463
4.7192969e-15
-0.4102837
-4.5550034e-15
-0.43232377
0
-0.4539735
0
-0.47515044
1.0075654e-18
-0.49657112
-7.8982122e-15
-0.51980286
-7.6177095e-15
-0.54621229
-7.3465775e-15
-0.57608687
-7.0845371e-15
-0.60801439
6.8306816e-15
-0.63996077
-6.5848745e-15
-0.67182628
-2.1247318e-19
-0.7054795
-1.2238021e-14
-0.7428908
-0.0071907004
-0.77913375
-0.10099117
0
-0.095575557
0.00028562533
-0.089562575
0.00053803753
-0.081967463
0.00073129667
-0.074325022
0.0008540165
-0.06702442
0.00089573646
-0.059643093
0.00084781
-0.052102755
0.00071645607
-0.045130832
0.00051618974
-0.038197562
0.00026279117
-0.030627866
0
-0.02013376
0
-0.011081361
9.337672e-15
-0.00029675139
-0.10709112
-0.00058968477
-0.11271018
-0.0008523555
-0.11704353
-0.0010541383
-0.11951056
-0.0011717491
-0.12091406
-0.0011927426
-0.12183894
-0.0011004628
-0.1215464
-0.00087627347
-0.11969476
-0.0005113102
-0.11663189
0
-0.12319817
0
-0.1344889
0
-0.14683973
-3.6497448e-15
-0.15995233
-1.7781859e-18
-0.17376291
-3.387739e-15
-0.1886728
0
-0.2049125
-3.1447468e-15
-0.22240817
0
-0.24105181
0
-0.26085591
3.2073107e-18
-0.28181146
0
-0.30359176
5.2413462e-15
-0.32564676
5.060269e-15
-0.34757616
0
-0.36925436
1.6029542e-18
-0.3908666
1.2904407e-18
-0.41258723
0
-0.4343068
0
-0.45566292
0
-0.47649053
-7.8920495e-15
-0.49757326
0
-0.52064387
-7.3435953e-15
-0.54703328
-7.0819739e-15
-0.57677745
6.8286347e-15
-0.60851393
6.5838085e-15
-0.64015927
6.3469433e-15
-0.67169689
0
-0.70506452
-0.01409297
-0.73526654
-0.0065407583
-0.77153217
-0.10730978
0
-0.10092138
0.00029101774
-0.095296485
0.00055617563
-0.089119378