/*--------------------------------*- C++ -*----------------------------------*\
| =========                 |                                                 |
| \\      /  F ield         | OpenFOAM: The Open Source CFD Toolbox           |
|  \\    /   O peration     | Version:  v2012                                 |
|   \\  /    A nd           | Website:  www.openfoam.com                      |
|    \\/     M anipulation  |                                                 |
\*---------------------------------------------------------------------------*/
FoamFile
{
    version     2.0;
    format      ascii;
    class       volScalarField;
    location    "41.9635860759583679";
    object      p;
}
// * * * * * * * * * * * * * * * * * * * * * * * * * * * * * * * * * * * * * //

dimensions      [0 2 -2 0 0 0 0];


internalField   nonuniform List<scalar> 
9200
(
0.0079658998
0.0078744431
0.024812864
0.0077655859
0.024548603
0.04022779
0.0075773703
0.024204946
0.039827339
0.055504142
0.0073444734
0.023601947
0.039297589
0.055011685
0.070410099
0.0070254767
0.022824501
0.038381411
0.054359354
0.06987513
0.085048882
0.0066480085
0.021769452
0.037200377
0.053230308
0.069170775
0.084519571
0.099387701
0.0061741197
0.020465558
0.035616247
0.051777286
0.067947399
0.083829531
0.098901031
0.11340785
0.0056214279
0.018839515
0.033661309
0.049836689
0.066381371
0.082621095
0.098281854
0.11299631
0.12705034
0.0049788825
0.016890936
0.031244436
0.047443688
0.064293847
0.081086385
0.09718223
0.11248704
0.12676292
0.14029576
0.0042270182
0.014576907
0.028354234
0.044494432
0.061726976
0.07904072
0.095802387
0.11156857
0.12638426
0.14013706
0.15319092
0.0033688228
0.011886056
0.024937959
0.040972857
0.058572469
0.076535215
0.093957835
0.11043816
0.12569695
0.13991407
0.15308113
0.1656118
0.0024260947
0.0088148073
0.020970707
0.036819733
0.05481819
0.073463532
0.09171022
0.10891618
0.12487982
0.13948574
0.15302854
0.16558035
0.17752915
0.001339643
0.0053667375
0.016425461
0.031998135
0.050401575
0.069821682
0.088956138
0.10707497
0.12376604
0.13901544
0.15285591
0.16568126
0.17759733
0.18900988
0.00016850688
0.0015199763
0.011278029
0.026477458
0.045295436
0.06555381
0.085698017
0.10481121
0.12243581
0.13835923
0.15274293
0.16574625
0.17784219
0.18912906
0.20002
-0.0010880847
-0.0026737431
0.0055549939
0.020223031
0.039466515
0.060648988
0.08188712
0.10212891
0.1207882
0.13760316
0.15255373
0.16597226
0.17810914
0.18948908
0.20017789
0.21056933
-0.0024036172
-0.0071640843
-0.0007712136
0.013212917
0.032888697
0.05508358
0.077520866
0.098975386
0.11882461
0.13665595
0.15239496
0.16622757
0.17863584
0.18992037
0.20061846
0.21074914
0.22067628
-0.0037677694
-0.011887213
-0.0076766238
0.0054148321
0.025534432
0.048858199
0.072589331
0.095336328
0.11647977
0.1355191
0.15218349
0.16664319
0.17928253
0.19068798
0.20116861
0.21123791
0.22085795
0.230354
-0.0052017138
-0.016794046
-0.015141405
-0.0032048482
0.017373707
0.041967647
0.067112656
0.091192043
0.11371284
0.13412035
0.15193685
0.16715274
0.18021006
0.19165359
0.20210949
0.21185752
0.22136329
0.23052412
0.23962064
-0.0066299568
-0.021804421
-0.023142423
-0.012690843
0.0083669223
0.034415756
0.061116112
0.086544991
0.11046279
0.13239892
0.15158873
0.16779633
0.18136896
0.19299753
0.20330795
0.21290275
0.22200378
0.23101778
0.23977176
0.24852547
-0.0080131064
-0.026820973
-0.031646499
-0.023098228
-0.0015418993
0.026202767
0.054642909
0.081413192
0.10666695
0.13025224
0.15107981
0.16853288
0.18282773
0.19468953
0.20495522
0.21424328
0.22308694
0.23163338
0.24022995
0.24862861
0.25710434
-0.0093756306
-0.031764978
-0.040611908
-0.03450163
-0.012430674
0.017322246
0.047740544
0.075839793
0.10225638
0.12755362
0.15029563
0.1693251
0.18457727
0.19681924
0.20703572
0.2160762
0.22448175
0.23269342
0.24077858
0.24902742
0.25711965
0.26534091
-0.011139832
-0.036607372
-0.05004129
-0.046994478
-0.024407084
0.0077602692
0.04045613
0.069892538
0.097158542
0.12412992
0.14908767
0.17008774
0.18662153
0.19940891
0.2096507
0.21839342
0.22638807
0.2340624
0.24176115
0.24947447
0.25743736
0.26526828
0.27324604
-0.013508519
-0.041089459
-0.06006274
-0.060718844
-0.037612207
-0.002505335
0.032829087
0.063673337
0.09130633
0.11975847
0.14723798
0.17069457
0.18893136
0.20250337
0.21284276
0.22129848
0.22879917
0.23594167
0.24303429
0.25033298
0.25775683
0.2654959
0.27310238
0.28085525
-0.017495897
-0.044557632
-0.070677345
-0.075994436
-0.052231483
-0.013501522
0.024882415
0.057311589
0.084647252
0.11416679
0.14446093
0.17095447
0.19144745
0.20613013
0.21667904
0.22483863
0.23181374
0.23832237
0.24480078
0.25145067
0.25845242
0.26566293
0.27322695
0.28064758
0.28820268
-0.025322523
-0.04458494
-0.082961836
-0.093466981
-0.068721827
-0.025273286
0.016620506
0.050958869
0.077163638
0.10698273
0.14039335
0.1705949
0.19406339
0.21030687
0.22122029
0.22908258
0.23547167
0.24129457
0.24704854
0.25303303
0.25936556
0.26616161
0.27322901
0.28066114
0.28792612
0.29531143
-0.037491565
-0.038173296
-0.095919823
-0.11117653
-0.087514749
-0.037953051
0.0080323534
0.044772224
0.068912044
0.097756874
0.13454305
0.16923956
0.19660538
0.21503283
0.22652959
0.23409301
0.23982653
0.24488471
0.24985945
0.25506581
0.26070421
0.26683191
0.27350482
0.28048523
0.28782114
0.29496346
0.302185
-0.049282251
-0.027881392
-0.10928554
-0.12855897
-0.10665263
-0.051559309
-0.00090441285
0.03888039
0.06007147
0.085907975
0.12634382
0.16638154
0.19879756
0.22027508
0.23267121
0.23993504
0.24491997
0.24912292
0.2532462
0.25762618
0.26245716
0.26787758
0.27389828
0.28052399
0.28746607
0.29472958
0.30176532
0.30884562
-0.057237849
-0.020636505
-0.12094266
-0.14543532
-0.1257078
-0.067506052
-0.010290196
0.033284509
0.051017326
0.070657635
0.11509148
0.16137853
0.20023849
0.22594972
0.23970289
0.246677
0.25078849
0.25401868
0.25721556
0.26071816
0.26470044
0.26929748
0.27461262
0.28060993
0.28725054
0.29419037
0.30142803
0.30835186
0.31531312
-0.063763509
-0.018746226
-0.13041105
-0.1604623
-0.142699
-0.083710954
-0.019989445
0.028067236
0.042460631
0.051017565
0.099889582
0.15341165
0.20032981
0.23189084
0.24766832
0.25438335
0.25746445
0.25956576
0.26174455
0.26433155
0.26743822
0.27117146
0.2756524
0.28095862
0.28701067
0.2937196
0.30069433
0.30792471
0.31474237
0.32157992
-0.071024735
-0.020655745
-0.13821981
-0.17397531
-0.1581247
-0.098155278
-0.030025284
0.022888523
0.035350376
0.025707324
0.079688553
0.14147458
0.19824311
0.23779951
0.25657527
0.26310676
0.26496875
0.26574374
0.26678241
0.268419
0.2706544
0.2735128
0.27711193
0.28157861
0.28696636
0.29314255
0.2999624
0.30699787
0.3142187
0.32095105
0.32765517
-0.077481529
-0.028143578
-0.14434024
-0.18843879
-0.1721311
-0.11133935
-0.040727745
0.017188517
0.027314852
-0.0071316349
0.053180571
0.12417629
0.19285927
0.24321303
0.26636712
0.27286776
0.27330292
0.27251274
0.27225454
0.27289384
0.27429123
0.27631341
0.27901869
0.28257902
0.28713007
0.29268216
0.29904298
0.30600678
0.3131178
0.32033396
0.32698551
0.33355056
-0.080930504
-0.037968028
-0.14838176
-0.20358835
-0.18539717
-0.12216192
-0.050319984
0.011157316
0.017020956
-0.043931206
0.019636333
0.09999791
0.18232797
0.24738536
0.27689651
0.28362551
0.2824313
0.27981141
0.27805945
0.2776368
0.27824359
0.27952237
0.28138682
0.28401155
0.28762644
0.29235761
0.29815067
0.30474604
0.31187754
0.31907111
0.32627837
0.33284714
0.33927235
-0.082098871
-0.045039715
-0.15696211
-0.21814658
-0.19678904
-0.13032967
-0.057767494
0.0053577855
0.004347561
-0.075688504
-0.019136474
0.069513933
0.16473689
0.24897776
0.28780547
0.29523676
0.29225239
0.28754595
0.28407617
0.28249295
0.28236692
0.2830392
0.28419055
0.28592079
0.28853429
0.29230404
0.29731028
0.30341372
0.31028311
0.31759803
0.324873
0.33206286
0.33854288
0.34481933
-0.081284101
-0.054609142
-0.1754537
-0.23344872
-0.20896827
-0.13598477
-0.062112239
0.00020102807
-0.0081151413
-0.10097833
-0.065772638
0.032187066
0.13963992
0.2466248
0.29845026
0.30736788
0.30255971
0.2955675
0.2901552
0.28727779
0.28646545
0.28672195
0.28735243
0.28832182
0.2899343
0.29262771
0.29666237
0.30203646
0.30851072
0.31568264
0.32318837
0.33053832
0.33769628
0.3440821
0.35019285
-0.078546791
-0.069418699
-0.20028829
-0.25286606
-0.22193081
-0.14199856
-0.063380643
-0.0041452146
-0.019240543
-0.12377543
-0.11681684
-0.015866449
0.10700615
0.23929016
0.30806131
0.31949741
0.31298281
0.303645
0.29610762
0.29177099
0.2902917
0.29034807
0.29078662
0.29119026
0.29189228
0.29344591
0.2963364
0.30075435
0.30658395
0.31347829
0.32096971
0.32866051
0.33607519
0.34318551
0.34946837
0.35540808
-0.074381646
-0.089787011
-0.23464406
-0.27546374
-0.23584778
-0.14752656
-0.064336048
-0.0072466225
-0.028138108
-0.1460654
-0.16731507
-0.071759907
0.070601974
0.22540435
0.31503776
0.33073699
0.32296936
0.31143215
0.30170348
0.29574716
0.29357335
0.29366288
0.29424912
0.29446614
0.29444626
0.29487781
0.29648239
0.29971279
0.30463563
0.31099915
0.31834924
0.32616621
0.33402716
0.34149053
0.34853588
0.35470567
0.36048518
-0.068522027
-0.1128586
-0.28708087
-0.30008579
-0.25309846
-0.15315769
-0.061909297
-0.0093455127
-0.034461921
-0.16540345
-0.2133034
-0.1271506
0.032400322
0.20326699
0.31697497
0.3389328
0.3316509
0.31843219
0.30664077
0.29898383
0.29606653
0.29639352
0.29754529
0.29801748
0.29760623
0.29702886
0.29726923
0.2990869
0.30281811
0.30836351
0.31532596
0.32315219
0.33128987
0.33930099
0.3467894
0.35375155
0.35979747
0.36541945
-0.065443409
-0.13738641
-0.34947351
-0.32197951
-0.2730009
-0.15823177
-0.05681963
-0.0078317947
-0.03407545
-0.18198042
-0.253138
-0.17732922
-0.0060281549
0.17456106
0.31250155
0.34102646
0.33746348
0.32393124
0.31062329
0.30115759
0.29740011
0.29818493
0.30041138
0.30168844
0.30133829
0.29999177
0.29886699
0.29908651
0.30132106
0.30572075
0.31199519
0.31960439
0.32791267
0.33634982
0.34448718
0.35197548
0.35883543
0.36474608
0.37020266
-0.064234459
-0.15744748
-0.41033406
-0.35040514
-0.29392556
-0.1621361
-0.049729264
-0.0012599998
-0.029325488
-0.18720582
-0.28723316
-0.22295275
-0.043314392
0.14320492
0.30030445
0.33520279
0.33796134
0.32707433
0.31305783
0.30198927
0.29722211
0.29862299
0.30247629
0.30525864
0.30557473
0.30383309
0.30144926
0.29993679
0.300383
0.30326299
0.30849363
0.31558573
0.32386953
0.33265255
0.34135865
0.34959073
0.35705116
0.36378929
0.36955333
0.37483863
-0.17657379
-0.059028883
-0.47243421
-0.39736475
-0.31917503
-0.16601604
-0.039441899
0.0097075203
-0.022135799
-0.18705125
-0.30839837
-0.26243446
-0.07914578
0.11168025
0.2794504
0.32115038
0.33085814
0.3267778
0.31344177
0.30113445
0.29512711
0.29722526
0.30330617
0.30843828
0.31019431
0.3085957
0.30517832
0.30188156
0.3002701
0.30124301
0.30500312
0.3112105
0.31918592
0.32815172
0.33738607
0.34632425
0.35461439
0.36201767
0.36861433
0.37422101
0.37932986
-0.53953889
-0.20318227
-0.049473885
-0.45821338
-0.35069924
-0.17164615
-0.025805572
0.023961401
-0.012954927
-0.17625895
-0.32720004
-0.29134208
-0.11011521
0.080926678
0.2517214
0.29912532
0.31541701
0.32136054
0.31120533
0.29825158
0.29067497
0.29343627
0.30234499
0.31091798
0.31507435
0.31429002
0.3102049
0.30516532
0.30128041
0.29995128
0.30177546
0.30663848
0.31394268
0.32284036
0.33247669
0.34212151
0.35125052
0.35955898
0.36687542
0.37331148
0.37875076
0.38367854
-0.5298047
-0.6117942
-0.23656176
-0.036005746
-0.39011174
-0.18133881
-0.010042337
0.041843576
0.0012933059
-0.15546391
-0.33194251
-0.32466897
-0.13542183
0.051020679
0.22390839
0.27045874
0.29178933
0.30981241
0.30580619
0.29296723
0.28341568
0.28658664
0.29899481
0.31202039
0.31987568
0.32088605
0.31665627
0.31003052
0.30372218
0.29972151
0.29910757
0.30210523
0.30826717
0.31675598
0.32658653
0.33686335
0.34686728
0.35613803
0.36442391
0.37162433
0.37788148
0.38314399
0.38788688
-0.43920431
-0.61828992
-0.68886745
-0.27379547
-0.01860359
-0.19713931
0.0063249066
0.063544653
0.02176445
-0.12698182
-0.32442837
-0.34554173
-0.16803241
0.013312738
0.19450442
0.23957037
0.26266673
0.29190103
0.29666963
0.2850665
0.27286847
0.27581125
0.29249865
0.31125425
0.32426362
0.32826683
0.32461711
0.31669894
0.30790786
0.30090533
0.29734931
0.29789615
0.30236467
0.30998336
0.31970827
0.33045518
0.34131843
0.35162573
0.36098547
0.36920776
0.37626389
0.38232461
0.3874019
0.39195712
-0.21659306
-0.49483849
-0.72326857
-0.76923525
-0.3128116
0.0024602232
0.021921822
0.08792094
0.046536115
-0.091778278
-0.30345857
-0.35348403
-0.19475648
-0.021960534
0.14470206
0.20845118
0.22860472
0.26832532
0.28342209
0.27419158
0.25870036
0.2600434
0.28178544
0.30781944
0.32775188
0.33624682
0.33412094
0.32534872
0.31412847
0.30386318
0.29687513
0.29435781
0.29649149
0.30268549
0.31187333
0.32284674
0.33447179
0.34584544
0.35639675
0.36579023
0.37390839
0.38079271
0.38664068
0.39152604
0.39589183
0.035534039
-0.23578648
-0.55037224
-0.83265436
-0.85117335
-0.35291447
0.027239629
0.11363802
0.074482952
-0.050361291
-0.26935853
-0.34539428
-0.21507341
-0.044656399
0.10115345
0.15921047
0.19544155
0.23949973
0.26620686
0.26035223
0.24051047
0.23796634
0.26560068
0.30057214
0.32962913
0.34452153
0.34512634
0.33610241
0.32262595
0.30893279
0.29807338
0.29186737
0.2909719
0.29507332
0.30319226
0.31401191
0.32620722
0.33865158
0.35046279
0.36117668
0.3705484
0.37852214
0.38520845
0.39083004
0.39551908
0.39969395
0.13927538
0.045842598
-0.25708167
-0.60955688
-0.93738844
-0.93175846
-0.39162325
0.053492759
0.10518771
-0.0040234361
-0.2236038
-0.32048979
-0.22219996
-0.051777085
0.058088815
0.12219323
0.14671064
0.20756331
0.24525486
0.24347972
0.21904444
0.20773825
0.24252303
0.28811701
0.32888286
0.35260434
0.35745587
0.34898588
0.33356746
0.31639438
0.30130944
0.29082243
0.28616625
0.28743062
0.29381679
0.30399702
0.31645901
0.32981677
0.34297664
0.35515337
0.36595982
0.37525361
0.38304368
0.38950962
0.39489523
0.3993841
0.4033656
0.13800593
0.16308015
0.052601163
-0.28256405
-0.67481759
-1.0371238
-1.0082586
-0.4263035
0.077672916
0.044316968
-0.16873383
-0.28011743
-0.21110034
-0.047411963
0.02348346
0.079133074
0.10367962
0.16784109
0.22200956
0.22290004
0.19336781
0.16727922
0.2105561
0.26881613
0.32415436
0.35976546
0.37077863
0.36391162
0.34699949
0.32643358
0.30688612
0.29160048
0.2824633
0.28008164
0.28397287
0.29288404
0.30519484
0.31925842
0.33369421
0.34746182
0.35991206
0.37073675
0.37989681
0.38746904
0.39369875
0.39883989
0.40312176
0.40690766
0.091316722
0.17106394
0.1834277
0.0558703
-0.31233088
-0.7411507
-1.1309441
-1.0781208
-0.45633083
0.098639648
-0.10811368
-0.2273034
-0.18450866
-0.037414255
-0.0029434016
0.036680218
0.054740541
0.12664353
0.19403575
0.19927723
0.16025096
0.11221623
0.16675648
0.23993289
0.31353204
0.3649953
0.38456427
0.380564
0.36282335
0.33908948
0.3149977
0.2945185
0.28023866
0.27338769
0.27392994
0.28082608
0.29241768
0.30686067
0.32244223
0.33784379
0.35210495
0.36472737
0.37549392
0.38447076
0.39180049
0.39778025
0.40266242
0.40672825
0.41032227
-0.046375367
0.13490087
0.20246255
0.19915692
0.056426586
-0.34448784
-0.80407679
-1.2171108
-1.1389155
-0.48105804
0.11595166
-0.1659696
-0.1459197
-0.021972078
-0.021834349
-0.0026080459
0.0048514558
0.080019288
0.16501212
0.17564052
0.11882864
0.059362847
0.11055508
0.19837114
0.293461
0.36667859
0.39797627
0.39842989
0.38072863
0.35423053
0.3256773
0.29978002
0.27981688
0.26770752
0.26400203
0.26801929
0.27819595
0.2925365
0.30904883
0.32603455
0.34225572
0.35689213
0.36958105
0.38022011
0.38897748
0.39604333
0.4017485
0.4063515
0.41020259
0.41361707
-0.10109021
0.014071834
0.17296251
0.2292578
0.21010871
0.055487076
-0.37721862
-0.85975607
-1.293537
-1.188116
-0.50016821
0.12773116
-0.098458323
-0.0034145715
-0.033771126
-0.033312394
-0.043875571
0.028576681
0.12859949
0.1546795
0.08970419
0.0051987828
0.043206349
0.14748294
0.26057931
0.36209576
0.40960557
0.41669475
0.40012345
0.37148068
0.33876461
0.30742257
0.28141531
0.26336454
0.25451328
0.25470943
0.26263609
0.27625994
0.29333401
0.31179537
0.33004173
0.34691968
0.36179777
0.37445724
0.38491705
0.39342337
0.40018658
0.40557975
0.40990134
0.4135614
0.41695417
-0.044694973
-0.03626952
0.069788873
0.20506258
0.24925922
0.216951
0.054133724
-0.40701547
-0.90624108
-1.3585195
-1.2246603
-0.5085511
0.1341168
0.019492518
-0.030692507
-0.053910899
-0.089136515
-0.023968201
0.083882969
0.12987669
0.06707548
-0.041687286
-0.040677594
0.082967131
0.21610699
0.34871149
0.41756083
0.4340453
0.42018761
0.39018118
0.35384693
0.31728493
0.2850934
0.26059174
0.24577241
0.24116562
0.24589376
0.25803518
0.27516502
0.29487848
0.3151222
0.33443414
0.35180502
0.36679986
0.37935755
0.38959251
0.39779005
0.40419005
0.40926111
0.41334303
0.41696266
0.42038699
0.048862538
0.011088086
0.02516127
0.12003026
0.23120101
0.26379131
0.22076949
0.051842328
-0.42968453
-0.94394987
-1.4096754
-1.2406791
-0.50738474
0.13474175
-0.011508911
-0.065781099
-0.12850419
-0.0766456
0.034878842
0.099749071
0.045694301
-0.099524118
-0.11276554
0.0024235284
0.1652922
0.32646644
0.41924736
0.44904022
0.43954134
0.40964487
0.37025442
0.32895155
0.29072235
0.25948554
0.23802162
0.22766097
0.22815995
0.23790702
0.25443531
0.27502817
0.29721212
0.31902923
0.33917859
0.35688593
0.37189995
0.3842915
0.39421853
0.40201528
0.40803111
0.41284901
0.41684225
0.42043306
0.42382322
0.014948755
0.082918756
0.064801479
0.081769238
0.16399874
0.25038828
0.27312457
0.22332791
0.049265671
-0.44146419
-0.97175263
-1.4425962
-1.2423374
-0.49876541
0.13049274
-0.070413032
-0.16040585
-0.12509059
-0.014217236
0.065547357
0.023230675
-0.1442999
-0.20664821
-0.069672146
0.11301225
0.29582867
0.4116629
0.45891275
0.45691488
0.42811541
0.38705708
0.34175289
0.29793038
0.2599784
0.2313996
0.21443123
0.20964489
0.21596373
0.23106265
0.25201981
0.27592894
0.30034543
0.32347119
0.34425181
0.3621656
0.37710986
0.38921867
0.39870423
0.40606365
0.41179867
0.41654228
0.42036695
0.42392466
0.42725911
-0.067228089
0.046390451
0.11794002
0.11392918
0.13124919
0.19800384
0.26385414
0.27909301
0.22830588
0.049347366
-0.44029183
-0.99285187
-1.4625236
-1.2279608
-0.48030016
0.12165559
-0.18115241
-0.16548874
-0.06027154
0.030624306
-0.0013135134
-0.18136122
-0.28470847
-0.17741358
0.056913024
0.25706421
0.39513072
0.45967917
0.46972783
0.44460698
0.40288116
0.35475973
0.30611317
0.26178512
0.22591661
0.20164783
0.1905522
0.19232042
0.20500743
0.22563385
0.25092716
0.27789592
0.3042562
0.3283918
0.34966413
0.36765932
0.38237322
0.39401097
0.40299738
0.41006826
0.41574688
0.42020857
0.42393482
0.42742826
0.43069249
-0.18944993
-0.058088724
0.080924089
0.15024062
0.15464599
0.17193514
0.22339666
0.27294616
0.2820002
0.2363155
0.053291316
-0.43532521
-1.0145976
-1.4630665
-1.1941228
-0.45854997
0.10476271
-0.19524167
-0.098553432
-0.0024180931
-0.025872013
-0.2147843
-0.3552037
-0.27864461
-0.037018897
0.19362465
0.36870887
0.45164389
0.47524472
0.45652266
0.41652406
0.36675241
0.31444132
0.26442675
0.22140137
0.18939635
0.17106026
0.16711384
0.17625602
0.19568051
0.22184198
0.25122595
0.28090861
0.30891108
0.33386935
0.35543253
0.37329024
0.38751416
0.39859443
0.40728761
0.41437353
0.41960319
0.42394206
0.42752654
0.43094133
0.43412058
-0.21106261
-0.18558961
-0.045199256
0.11230295
0.1775878
0.18718254
0.20263472
0.2414296
0.27961315
0.28386957
0.24482701
0.051368588
-0.42825842
-1.0242943
-1.4402563
-1.1401047
-0.44166476
0.076285776
-0.12530424
-0.029738359
-0.048764869
-0.23834934
-0.41420216
-0.37543317
-0.13828715
0.11087653
0.30682044
0.43366997
0.47185512
0.46339482
0.42572578
0.37654387
0.32183563
0.26722799
0.21754144
0.17762662
0.15130661
0.14048817
0.14483809
0.16198691
0.18831375
0.21982384
0.25290758
0.28494476
0.31425138
0.33988197
0.36145316
0.37882136
0.39243058
0.40323176
0.41205329
0.41851134
0.42355629
0.42770862
0.43114096
0.43445916
0.43754059
-0.13690387
-0.21162641
-0.16819888
-0.027343705
0.13701061
0.19959019
0.21174495
0.22492802
0.25439067
0.28544248
0.28640569
0.24842306
0.047102122
-0.40967502
-1.0150735
-1.3884702
-1.0626299
-0.42931994
0.032842919
-0.046794455
-0.066650894
-0.24670456
-0.45602729
-0.45871323
-0.2372759
0.025761634
0.2393835
0.37610948
0.46089123
0.46017512
0.43063106
0.38238767
0.32728128
0.26930604
0.2138519
0.16621001
0.13134491
0.11259104
0.11081146
0.12443369
0.14998893
0.18313597
0.21961551
0.25595764
0.29003684
0.32040496
0.34629962
0.36741083
0.38411451
0.39747856
0.4085946
0.41656352
0.42277959
0.42755079
0.43151024
0.43477114
0.43797742
0.44094961
-0.05397506
-0.13488299
-0.19492558
-0.13996225
-0.0020460125
0.15698725
0.21691047
0.23005435
0.24135112
0.26443721
0.29120619
0.28803768
0.25158074
0.045500888
-0.37920156
-0.9814848
-1.3026832
-0.95788474
-0.42105664
-0.027103152
-0.077604882
-0.23899606
-0.47455595
-0.52230575
-0.3236342
-0.056385522
0.1605853
0.31892084
0.41542302
0.45253363
0.42602933
0.38380802
0.32932061
0.26988311
0.20969975
0.15486787
0.1112223
0.08353691
0.074271561
0.08293464
0.10656126
0.14061979
0.18024765
0.22123346
0.26046031
0.29620929
0.32718436
0.35270945
0.3731214
0.38964507
0.40360125
0.41360027
0.42124476
0.42709405
0.43159375
0.43533772
0.43841128
0.44149128
0.44434471
-0.07857533
-0.049727032
-0.11708911
-0.16308305
-0.10242858
0.026671344
0.17372698
0.23085645
0.24419586
0.25404943
0.27296323
0.29776675
0.29081225
0.25500355
0.048846989
-0.33766985
-0.9188406
-1.1794786
-0.83003272
-0.41727854
-0.095615683
-0.21597153
-0.46552364
-0.55799229
-0.3927523
-0.13528404
0.081232394
0.24817958
0.36849465
0.42092033
0.41818657
0.37733191
0.3276181
0.26773954
0.20456943
0.14325392
0.090853576
0.05350694
0.035327609
0.037459775
0.057743975
0.091752265
0.13408047
0.17971298
0.22481796
0.26646893
0.30329824
0.33404754
0.35887005
0.37921263
0.3967303
0.40924992
0.41882492
0.42597325
0.43146947
0.43567313
0.43918434
0.44205468
0.44499615
0.44772302
-0.17726424
-0.06099024
-0.030221756
-0.084166421
-0.11849549
-0.058155453
0.056319555
0.18843518
0.24244822
0.2556322
0.2647277
0.28179766
0.30372699
0.29608431
0.26071532
0.059715465
-0.28671207
-0.82354456
-1.0191795
-0.68689998
-0.41962349
-0.1701689
-0.42764148
-0.55753136
-0.43709477
-0.19896817
0.0049817577
0.17302277
0.30270344
0.38534819
0.39596073
0.36830608
0.31932403
0.26283891
0.19750629
0.13112406
0.070195391
0.022568034
-0.0057773347
-0.01197203
0.0033080949
0.035995683
0.080353883
0.13052228
0.18173592
0.23056775
0.27357906
0.31060997
0.34067443
0.3656054
0.38751186
0.40320673
0.41517498
0.42409153
0.43077479
0.43589069
0.43978132
0.44304161
0.44569483
0.4484883
0.45108164
-0.36381401
-0.12204745
-0.025543514
0.0014686157
-0.0373785
-0.064603783
-0.009189206
0.085032932
0.20204358
0.2523879
0.2656667
0.27549432
0.29098667
0.30983581
0.30515318
0.26997004
0.081811482
-0.22539821
-0.69405217
-0.82560733
-0.53940994
-0.42651307
-0.24794661
-0.51767016
-0.44723633
-0.2404013
-0.057984575
0.096886971
0.22974444
0.32657702
0.37321681
0.34975405
0.30918962
0.25265429
0.1887967
0.11782192
0.049259924
-0.009028175
-0.048902532
-0.065163839
-0.056913708
-0.027142005
0.018241393
0.072654804
0.13026747
0.1865646
0.23818611
0.28142726
0.31771403
0.34814027
0.37543188
0.39504623
0.41002852
0.42112795
0.42944152
0.43563034
0.44034976
0.4439079
0.44690162
0.44932667
0.45196418
0.45441774
-0.44484217
-0.27704479
-0.056835479
0.024161944
0.040124353
0.016365261
-0.0055023
0.04135872
0.11159121
0.21551081
0.26154349
0.27592669
0.28501481
0.30146871
0.3164291
0.31753565
0.28387151
0.11925213
-0.14896264
-0.53123431
-0.60471737
-0.38840708
-0.43871348
-0.32022236
-0.41952386
-0.25463601
-0.096807753
0.028471374
0.15077419
0.25458582
0.31885408
0.33858432
0.29323108
0.24194294
0.17604932
0.10397013
0.027733404
-0.041073631
-0.093545284
-0.12201151
-0.12290021
-0.098103835
-0.053072948
0.004977515
0.069156019
0.13368932
0.19378904
0.24595575
0.28902803
0.3260068
0.35988568
0.38430885
0.40300893
0.41685171
0.42717199
0.43485121
0.44053198
0.44483445
0.44804332
0.45075915
0.45294552
0.45541722
0.4577284
-0.35762626
-0.3452159
-0.17903565
0.012892834
0.082662634
0.087543546
0.068466849
0.054759762
0.090232695
0.13927857
0.22944359
0.27113939
0.28499202
0.29516882
0.31154729
0.32403605
0.33165213
0.30330018
0.1717752
-0.052607099
-0.33289861
-0.37050612
-0.24265011
-0.45519463
-0.37211799
-0.23808528
-0.11438555
-0.025593556
0.072567042
0.17024049
0.24995709
0.29780368
0.29169505
0.22931681
0.16444301
0.087264344
0.0065635843
-0.073481427
-0.13941429
-0.18185198
-0.19471536
-0.17718058
-0.13437968
-0.07369521
-0.0030385054
0.070396373
0.14031345
0.20184711
0.2537227
0.29825
0.34016234
0.37045753
0.39371579
0.41092888
0.42376937
0.43327767
0.44031336
0.44546563
0.44933386
0.45218231
0.45460963
0.4565416
0.45884466
0.46101088
-0.19292287
-0.27193914
-0.23452139
-0.078377582
0.081433591
0.14282584
0.14518985
0.11925698
0.11257628
0.13633936
0.1696174
0.24281951
0.28037799
0.29468259
0.30558263
0.32207812
0.33449253
0.34740787
0.3288954
0.23317499
0.06236241
-0.12604148
-0.14208666
-0.11316398
-0.46461749
-0.38916424
-0.11607245
-0.061614931
0.0017595391
0.081018651
0.16137338
0.22709897
0.26574744
0.2359868
0.15526868
0.073493095
-0.016427194
-0.10505287
-0.18595451
-0.24448785
-0.2716942
-0.26473018
-0.22640169
-0.16457205
-0.087862052
-0.0050032269
0.075824331
0.14820416
0.20991458
0.26381923
0.31542074
0.35286725
0.38168563
0.40301141
0.41894035
0.43074499
0.43943944
0.4458121
0.45041917
0.45384338
0.45632087
0.45843778
0.46011199
0.46224176
0.46426278
-0.098320497
-0.12987277
-0.17579844
-0.12283332
0.015095805
0.14687452
0.19992195
0.20204292
0.16835474
0.16275961
0.18138147
0.19552017
0.25741197
0.28983452
0.30453858
0.31667341
0.33324646
0.34807448
0.36563405
0.3604542
0.30083754
0.18912628
0.078759518
0.06717023
-0.0055957881
-0.44995624
-0.36667196
-0.078154355
-0.054529474
-0.010616206
0.052712979
0.13025227
0.20430941
0.22379957
0.17100717
0.067169564
-0.03472722
-0.13769242
-0.2319091
-0.30883618
-0.35398293
-0.36031173
-0.32989715
-0.26888806
-0.18697181
-0.094421842
-0.0014844941
0.083063451
0.15621833
0.22106531
0.28470352
0.33079853
0.3663855
0.39269984
0.41238672
0.42699795
0.43777596
0.4456398
0.45133433
0.45538924
0.4583603
0.4604376
0.46224226
0.46365036
0.46560469
0.46748159
-0.076263385
-0.063785306
-0.061834855
-0.076069405
-0.01648499
0.099131267
0.20738131
0.25252209
0.25015818
0.21150185
0.20931349
0.21060106
0.22479668
0.27102634
0.29938009
0.31436613
0.32816948
0.34592517
0.36437497
0.38696657
0.39701731
0.37285194
0.31913932
0.27058338
0.24715177
0.081177497
-0.40106818
-0.30911439
-0.091305497
-0.098706843
-0.063573654
-0.0015913522
0.10581887
0.18242106
0.17072016
0.093128917
-0.039588118
-0.164222
-0.27861297
-0.37394008
-0.43994676
-0.46469792
-0.44492313
-0.38792743
-0.30217951
-0.19985246
-0.093995409
0.0045527249
0.090719144
0.16840814
0.24666848
0.30339949
0.34718656
0.37953974
0.40376928
0.42178479
0.43510387
0.44484344
0.45186505
0.45687865
0.4603755
0.4628553
0.46453336
0.46601477
0.46715244
0.46892966
0.47066406
-0.10588369
-0.059391569
-0.019462354
0.0083188932
0.019838809
0.07873799
0.17423789
0.25814246
0.29542307
0.28918578
0.2471266
0.23417623
0.23798697
0.24909781
0.2843957
0.30901567
0.32446959
0.34003121
0.35986194
0.38274261
0.41138889
0.43708107
0.44593055
0.44180225
0.43785567
0.38972874
0.15248673
-0.32110252
-0.22796695
-0.16852284
-0.18246515
-0.15525902
-0.027777548
0.10758735
0.14594521
0.10532281
-0.0026447941
-0.17012753
-0.31861487
-0.44007359
-0.52949011
-0.57577483
-0.57304843
-0.52253308
-0.43542857
-0.3236671
-0.20399483
-0.090188775
0.01130947
0.10397956
0.19991176
0.26955305
0.32336321
0.36299646
0.39270689
0.414822
0.43121524
0.44323838
0.45193374
0.45811673
0.46244819
0.4653393
0.46733237
0.46859803
0.46975074
0.47061436
0.47221144
0.47380662
-0.20947904
-0.10434825
-0.031458211
0.028183543
0.073950419
0.10404451
0.15641001
0.23344179
0.29944025
0.32928467
0.31761902
0.27043831
0.25826667
0.25906365
0.26989306
0.29691122
0.3187602
0.33492605
0.35247718
0.37487568
0.40249634
0.43809693
0.4785919
0.51564238
0.5480141
0.56759956
0.49052206
0.20841398
-0.21437261
-0.1386838
-0.29722522
-0.33189932
-0.20426001
-0.0065102825
0.096822962
0.095447826
0.02300115
-0.12237304
-0.32946497
-0.50049339
-0.62114757
-0.69511957
-0.7119167
-0.67497458
-0.58860563
-0.46852705
-0.3340252
-0.20402084
-0.085253429
0.025351699
0.142824
0.22803834
0.29401058
0.34245378
0.37875299
0.40579527
0.42587857
0.44065799
0.45138867
0.45905245
0.46440293
0.46799306
0.47028869
0.47177958
0.47262725
0.47344649
0.47402915
0.47544289
0.47690803
-0.38942453
-0.2175044
-0.087730072
0.00285199
0.073463536
0.12829402
0.16928036
0.21824235
0.27931143
0.33093656
0.35168503
0.33604875
0.29036597
0.27742276
0.27758793
0.28700611
0.30872406
0.32856049
0.34570895
0.36541929
0.39079995
0.42326477
0.46591066
0.51903872
0.57706211
0.63183253
0.65379859
0.54875503
0.25264415
-0.088436375
-0.057575316
-0.51064716
-0.40949069
-0.16802392
0.020656111
0.065553749
0.028776248
-0.082695255
-0.27270761
-0.52180681
-0.71074222
-0.81877871
-0.86582068
-0.8431533
-0.76456641
-0.63740756
-0.48747768
-0.33917875
-0.20234398
-0.070741534
0.073288963
0.17744802
0.25811985
0.31717002
0.36139581
0.39433826
0.41884159
0.43691956
0.45010224
0.45956578
0.4662143
0.47066043
0.47352671
0.47520974
0.47619323
0.47661816
0.47709258
0.47738449
0.47862013
0.47997175
-0.66792349
-0.44711135
-0.20053225
-0.059366343
0.037950571
0.1129564
0.17155408
0.21751293
0.26251497
0.31049325
0.34975509
0.36885035
0.34331279
0.30733706
0.2935258
0.2927031
0.3015149
0.31971995
0.33838084
0.35674115
0.37874984
0.40730924
0.44443257
0.49333988
0.55558387
0.6254024
0.68655819
0.69527136
0.56902277
0.29229626
0.038266341
0.0045082295
-0.63463513
-0.36091941
-0.085868472
0.016428821
0.017701552
-0.060486869
-0.21949246
-0.46033365
-0.74968307
-0.9479217
-1.0276655
-1.0348353
-0.96241908
-0.83403723
-0.66799868
-0.49989766
-0.34181565
-0.18811496
-0.011299339
0.11601858
0.21452891
0.28630975
0.34003568
0.38003437
0.40981208
0.43182838
0.44793781
0.45956621
0.46779322
0.47334029
0.47690937
0.47903351
0.48009968
0.48057187
0.48055932
0.480669
0.48067302
0.48175036
0.48290661