/*--------------------------------*- C++ -*----------------------------------*\
| =========                 |                                                 |
| \\      /  F ield         | OpenFOAM: The Open Source CFD Toolbox           |
|  \\    /   O peration     | Version:  v2012                                 |
|   \\  /    A nd           | Website:  www.openfoam.com                      |
|    \\/     M anipulation  |                                                 |
\*---------------------------------------------------------------------------*/
FoamFile
{
    version     2.0;
    format      ascii;
    class       surfaceScalarField;
    location    "41.9635860759583679";
    object      phi;
}
// * * * * * * * * * * * * * * * * * * * * * * * * * * * * * * * * * * * * * //

dimensions      [0 3 -1 0 0 0 0];
oriented        oriented;


internalField   nonuniform List<scalar> 
18180
(
0.0027180904
-3.3950656
0.0052582302
-3.1762122
0.0025612522
-3.3442411
0.0076292627
-2.971591
0.004989964
-3.1291475
0.0024940684
-3.2929875
0.0098082122
-2.7796514
0.0073049346
-2.9280125
0.0048838999
-3.0814881
0.002341876
-3.2433143
0.011770677
-2.5996281
0.0095319911
-2.7393606
0.0072154624
-2.8842123
0.0046210241
-3.0349079
0.0021363311
-3.1951547
0.013493308
-2.431062
0.011656341
-2.5619909
0.009543093
-2.6991567
0.006899538
-2.840687
0.0042526702
-2.9896663
0.0018654174
-3.1496665
0.014922818
-2.2732611
0.013658717
-2.3954493
0.01187343
-2.5250592
0.0092559194
-2.6591624
0.0064165376
-2.7984062
0.0037431895
-2.9467506
0.0015457293
-3.106436
0.016023475
-2.1256611
0.015493182
-2.2393671
0.014205224
-2.3615159
0.011723978
-2.4888324
0.008722348
-2.6200061
0.0057007431
-2.7577999
0.0031160125
-2.9061401
0.0011955662
-3.0662456
0.016745313
-1.9875667
0.017101343
-2.0932658
0.016514367
-2.2079121
0.014334506
-2.3285212
0.011232032
-2.4526237
0.007838391
-2.5818214
0.0047797669
-2.7195375
0.0024063866
-2.8682685
0.00083418111
-3.0285397
0.017039
-1.8583506
0.01839742
-1.9565085
0.01875453
-2.0638684
0.017099781
-2.1777045
0.01400924
-2.2954784
0.010239445
-2.4172645
0.0066309718
-2.5459071
0.0037073243
-2.6839598
0.0016642883
-2.8329726
0.00047597112
-2.9938119
0.016851345
-1.7374393
0.019280351
-1.8284758
0.020861667
-1.928898
0.020016288
-2.0361904
0.017106991
-2.1477294
0.012993773
-2.2629596
0.0087620484
-2.3838495
0.0051722789
-2.5127655
0.0025638846
-2.6508948
0.00094348101
-2.8002339
0.00014340827
-2.961516
0.01616624
-1.6243009
0.019642972
-1.7085942
0.022751066
-1.8024285
0.023058336
-1.9034377
0.020571987
-2.0089286
0.016191184
-2.1180346
0.011275691
-2.2322744
0.0068889648
-2.3532164
0.0035803115
-2.4819262
0.0014375507
-2.6201336
0.00029156254
-2.7699424
-0.00012128
-2.9319856
0.014953902
-1.5184918
0.019350776
-1.5963047
0.02429244
-1.6838738
0.026174314
-1.7789577
0.024438194
-1.8787148
0.019925149
-1.9820434
0.01428366
-2.0900922
0.0089555503
-2.2041602
0.0047807717
-2.3247285
0.0019896141
-2.4531762
0.0004119885
-2.5915152
-0.00025275161
-2.742014
-0.00031087715
-2.9047056
0.0131745
-1.4195801
0.01822894
-1.4911198
0.025335474
-1.5726731
0.029282832
-1.6621679
0.028727917
-1.7565885
0.024288049
-1.8544559
0.01791097
-1.9566725
0.011486345
-2.0643676
0.0062436065
-2.1778174
0.0026297001
-2.2977392
0.00052617082
-2.4260905
-0.00045227808
-2.5650052
-0.0006808989
-2.716283
-0.00045429658
-2.8798717
0.010806511
-1.3271685
0.016095657
-1.3926022
0.025704052
-1.4683191
0.032307067
-1.5525406
0.033439531
-1.6420038
0.029372471
-1.7348369
0.022293441
-1.8315429
0.014615421
-1.9331866
0.0080636715
-2.039926
0.0034076143
-2.1524497
0.00062423413
-2.2721594
-0.00071117145
-2.4008977
-0.0011121789
-2.5404658
-0.0009725947
-2.6926665
-0.00054056847
-2.8570492
0.0078472318
-1.2408779
0.012762843
-1.3003446
0.025206438
-1.3703619
0.035119978
-1.4495307
0.038574369
-1.5344605
0.035265594
-1.6226943
0.027575426
-1.7143537
0.018496644
-1.8102854
0.010357896
-1.9107106
0.0043777735
-2.0161723
0.00072036527
-2.1281854
-0.0010846163
-2.2480577
-0.0016677944
-2.3773276
-0.0015651185
-2.517875
-0.0011381307
-2.6710744
-0.00057620036
-2.8363881
0.0043005092
-1.1603443
0.0080454072
-1.2139681
0.023629863
-1.2783697
0.037583812
-1.3526786
0.044105814
-1.4334098
0.042038855
-1.5175531
0.033911453
-1.6046663
0.023301751
-1.6953837
0.013266628
-1.7898042
0.0056163097
-1.8884876
0.00081860264
-1.9930834
-0.0015879485
-2.1051371
-0.0023985233
-2.2254216
-0.0023160509
-2.3555122
-0.0018197781
-2.4971073
-0.0011970957
-2.6513961
-0.00056759727
-2.8174935
0.00016761466
-1.0852359
0.0017628441
-1.1331102
0.020749945
-1.1919521
0.039550819
-1.261545
0.049993502
-1.3383914
0.049764776
-1.4188891
0.041438576
-1.502033
0.029223009
-1.5880945
0.016956162
-1.6769416
0.0072161269
-1.7692276
0.00093750488
-1.8667263
-0.0022702556
-1.9710939
-0.00336815
-2.0833593
-0.003282218
-2.2042367
-0.0026696187
-2.3353156
-0.0018995769
-2.4781818
-0.0011667948
-2.6335278
-0.0005211494
-2.8004662
-0.0045095462
-1.0152708
-0.0062511019
-1.0574562
0.016344161
-1.1107492
0.040865183
-1.1757339
0.056190466
-1.2489693
0.058498139
-1.3262441
0.050304296
-1.4059517
0.036453444
-1.4880037
0.021621351
-1.5718523
0.0092964618
-1.658148
0.0010976442
-1.7488703
-0.0031712041
-1.8458243
-0.0046506886
-1.9501586
-0.0045510247
-2.0628076
-0.0037501978
-2.1845921
-0.0027650605
-2.3168851
-0.0018358875
-2.4609562
-0.001064709
-2.6173403
-0.00044901908
-2.7849957
-0.009704559
-0.95003478
-0.016154718
-0.98673238
0.010185077
-1.0344425
0.041371219
-1.0948933
0.062649044
-1.1647502
0.068279595
-1.2391799
0.060634499
-1.3159485
0.045198645
-1.3946337
0.027481622
-1.4741271
0.012004926
-1.554863
0.0013354879
-1.6391335
-0.0043463392
-1.7289877
-0.0063409983
-1.8255958
-0.0062141128
-1.9301014
-0.0051543604
-2.0435902
-0.0038535868
-2.1665214
-0.0026511272
-2.3000657
-0.0016635982
-2.4453958
-0.00091430114
-2.6027524
-0.00036608569
-2.7711317
-0.015694123
-0.8883463
-0.028213944
-0.92042094
0.0020621568
-0.96277792
0.040909878
-1.0187005
0.069326235
-1.0853839
0.079137206
-1.1572981
0.072532108
-1.2315657
0.055652071
-1.3074951
0.034782367
-1.3833325
0.015523997
-1.4590273
0.0017002263
-1.5371105
-0.0058588948
-1.6201089
-0.0085533044
-1.7092902
-0.0083925459
-1.8058722
-0.0069770314
-1.911194
-0.0052519897
-2.0258371
-0.003663809
-2.1500677
-0.0023809244
-2.2848823
-0.0014185017
-2.431353
-0.00074171373
-2.589618
-0.00028601145
-2.7585837
-0.023277981
-0.8295165
-0.043125558
-0.85691261
-0.0083127876
-0.89516243
0.039326693
-0.94690895
0.076189249
-1.0105556
0.091086895
-1.0802313
0.086071009
-1.1523798
0.067988415
-1.2261113
0.043785365
-1.2989994
0.020074966
-1.3702626
0.0022641958
-1.4424848
-0.0077777037
-1.5187899
-0.011426606
-1.600865
-0.011227841
-1.6897321
-0.0093392806
-1.7869866
-0.0070460521
-1.8936126
-0.0049488034
-2.0096427
-0.0032588373
-2.1351472
-0.0020069763
-2.2711784
-0.0011347131
-2.4187704
-0.00056831274
-2.5778455
-0.00021126883
-2.7473621
-0.031186776
-0.77701954
-0.061634562
-0.79546797
-0.021320051
-0.82990015
0.03657427
-0.87903458
0.083204535
-0.94001749
0.10413508
-1.0076578
0.10128877
-1.0780022
0.08234799
-1.150022
0.054764159
-1.220664
0.025923381
-1.2881641
0.0031269466
-1.3549254
-0.010178142
-1.4246816
-0.015132075
-1.4997553
-0.014898498
-1.5812244
-0.012379694
-1.6706657
-0.0093388518
-1.769424
-0.0065755417
-1.8775758
-0.0043581666
-1.9949645
-0.0027140315
-2.1217542
-0.0015776381
-2.2589164
-0.000841365
-2.4074902
-0.00040031891
-2.5672839
-0.00014434796
-2.7372499
-0.035384639
-0.73445142
-0.081922496
-0.74212362
-0.036765503
-0.76683557
0.032950662
-0.81373605
0.090496442
-0.87344548
0.11826709
-0.93931178
0.11818419
-1.0080782
0.098825056
-1.0787925
0.06798682
-1.1478605
0.033380568
-1.2123217
0.0044277043
-1.2740996
-0.013138313
-1.337459
-0.01987644
-1.4055673
-0.019621535
-1.4799964
-0.016266818
-1.56202
-0.012241536
-1.6530168
-0.008620653
-1.7534821
-0.0057303018
-1.8631015
-0.0035869171
-1.9818169
-0.0020967022
-2.1097335
-0.0011343897
-2.2479314
-0.00056083587
-2.3974246
-0.00024711669
-2.5578764
-9.1073662e-05
-2.7282391
-0.0332417
-0.69979111
-0.09897673
-0.7036715
-0.053205006
-0.71326502
0.028653862
-0.75076938
0.098763836
-0.81007264
0.13354849
-0.87494947
0.13670327
-0.94229357
0.11745824
-1.0120111
0.083706148
-1.0801303
0.042807228
-1.1423267
0.0063518618
-1.199658
-0.016733855
-1.2568305
-0.025903455
-1.3179881
-0.025662325
-1.3854946
-0.021200431
-1.4605517
-0.015879019
-1.5442521
-0.011156836
-1.6371964
-0.0074254249
-1.7392118
-0.004661179
-1.8501755
-0.0027273075
-1.9700631
-0.0014635878
-2.0990334
-0.00071081974
-2.2381336
-0.00031125884
-2.3884422
-0.00012229909
-2.5494765
-5.414286e-05
-2.7201483
-0.023988864
-0.66967315
-0.10994364
-0.67593365
-0.071016806
-0.67416354
0.022152491
-0.69571362
0.10849363
-0.74944161
0.1504571
-0.81420737
0.15675771
-0.88037103
0.13821891
-0.94929274
0.10213876
-1.0170225
0.054609345
-1.0777702
0.0091331426
-1.1312451
-0.021043571
-1.182459
-0.033496936
-1.2366415
-0.033342469
-1.2971824
-0.027420014
-1.3656384
-0.020388315
-1.4426905
-0.014252732
-1.5285725
-0.0094793653
-1.6231774
-0.0059660431
-1.7265356
-0.0034931012
-1.8386819
-0.0018540322
-1.9596298
-0.00086009833
-2.0894629
-0.00033319081
-2.2294008
-0.00010714905
-2.3804597
-3.1967137e-05
-2.5420287
-3.7080152e-05
-2.7129449
-0.0081647127
-0.64157572
-0.11424695
-0.65326792
-0.088677412
-0.6472599
0.011290704
-0.65292701
0.11607963
-0.69303882
0.16953456
-0.75668798
0.17836386
-0.82206006
0.16100156
-0.89028239
0.12344428
-0.95809129
0.069236956
-1.0182491
0.013075097
-1.0685276
-0.026106923
-1.1140305
-0.042972941
-1.1611831
-0.043048085
-1.2146569
-0.035210314
-1.276648
-0.025920826
-1.347581
-0.017966874
-1.4271212
-0.011909646
-1.5148596
-0.0075100568
-1.6108147
-0.0044100208
-1.7152935
-0.0023221069
-1.8285001
-0.0010244315
-1.9503536
-0.0003203358
-2.0809847
-2.0175688e-05
-2.2216321
3.9197204e-05
-2.3733553
1.7948932e-05
-2.5353833
-3.1178617e-05
-2.7064969
0.013016135
-0.61405055
-0.11199486
-0.63246892
-0.10518713
-0.62639231
-0.0057990562
-0.62043079
0.11816909
-0.64548019
0.18954914
-0.70210072
0.20165691
-0.76708256
0.18563624
-0.83466555
0.14770465
-0.90290351
0.087171984
-0.96335326
0.018525619
-1.0111542
-0.031974131
-1.0512103
-0.054698641
-1.091255
-0.055234069
-1.1374856
-0.044909325
-1.1930176
-0.03264179
-1.2581782
-0.022343963
-1.3320537
-0.01470607
-1.4136728
-0.0092754772
-1.5027972
-0.0054721037
-1.5998523
-0.0028774796
-1.7053716
-0.0012175334
-1.8195123
-0.00028026854
-1.9421593
0.00012936815
-2.0734103
0.00021639081
-2.2147341
0.00013415609
-2.3670482
3.0646489e-05
-2.5295015
-3.6523496e-05
-2.7007741
0.038197541
-0.58638978
-0.10359902
-0.61178699
-0.12007458
-0.60782792
-0.028166466
-0.59488557
0.11240153
-0.60578718
0.20598785
-0.6517789
0.22691474
-0.71529193
0.21202127
-0.78223488
0.17493147
-0.85106863
0.10894942
-0.91270734
0.025920152
-0.95881242
-0.038646922
-0.99369814
-0.069054345
-1.0265145
-0.070430134
-1.0652532
-0.056913348
-1.1142575
-0.040730927
-1.1738819
-0.027408922
-1.2426044
-0.017823595
-1.3188077
-0.011207317
-1.4019021
-0.0066456221
-1.4921731
-0.0035118685
-1.590213
-0.001447705
-1.6966383
-0.00022673953
-1.8116047
0.00035004005
-1.9348998
0.00048427831
-2.0667226
0.00037087305
-2.2085855
0.00016845593
-2.3614521
1.6808234e-05
-2.5242586
-6.9453061e-05
-2.6956549
0.065878299
-0.55830435
-0.08975303
-0.59023504
-0.13312507
-0.58956261
-0.05407875
-0.57334438
0.098973907
-0.573185
0.21678301
-0.60719178
0.2528501
-0.66645608
0.24014668
-0.7329334
0.20509007
-0.80233025
0.13517976
-0.86600156
0.035880369
-0.91131657
-0.046068257
-0.94124343
-0.086469832
-0.96661596
-0.089241223
-0.99754683
-0.071682761
-1.0399057
-0.050380023
-1.0941989
-0.03316099
-1.1582202
-0.021173557
-1.2296654
-0.013204823
-1.3074071
-0.0078584918
-1.3916042
-0.0041929865
-1.4828162
-0.0017134658
-1.5817096
-0.00016953206
-1.6889754
0.00062056785
-1.8046487
0.00085325236
-1.9284998
0.00073000285
-2.0607439
0.00044468405
-2.2031337
0.00014990627
-2.356484
-4.534104e-05
-2.5196149
-0.00010843117
-2.6910972
0.095597785
-0.62359069
-0.071426292
-0.56725354
-0.14408499
-0.57065036
-0.082164146
-0.55344442
0.078765881
-0.54541988
0.2205623
-0.56826244
0.2770522
-0.62091322
0.27003111
-0.68655637
0.2379099
-0.75639253
0.16614455
-0.82265157
0.049033278
-0.86836686
-0.053942928
-0.89389803
-0.10730846
-0.91137368
-0.11233567
-0.93396842
-0.089741604
-0.96950097
-0.061790134
-1.0186679
-0.039566069
-1.0784502
-0.024616937
-1.1457231
-0.015113048
-1.2187578
-0.0089918063
-1.2974853
-0.0048563578
-1.3825629
-0.0019965927
-1.4745557
-0.00011840508
-1.5742275
0.00093101847
-1.6822401
0.0013124142
-1.7985457
0.0012207837
-1.9228374
0.00086838845
-2.0554687
0.0004425068
-2.1982686
8.0461138e-05
-2.3520748
-0.00012676778
-2.5154459
-0.00015643324
-2.6870129
0.13150331
-0.63364101
-0.049094115
-0.63565038
-0.15237325
-0.55086325
-0.11104332
-0.53424707
0.052881888
-0.52035604
0.21703656
-0.53382002
0.2973175
-0.57878757
0.30046219
-0.64221282
0.2714173
-0.71134809
0.20046949
-0.78070893
0.06475252
-0.82813013
-0.06240686
-0.85093239
-0.1317941
-0.86097969
-0.14044739
-0.87426888
-0.11167296
-0.90259281
-0.075162899
-0.94684153
-0.046548446
-1.0028721
-0.027957434
-1.0665516
-0.016717481
-1.1355721
-0.009872883
-1.2094511
-0.0053974719
-1.2888412
-0.0022576804
-1.374563
-7.5690848e-05
-1.4672219
0.0012593666
-1.5676209
0.0018444342
-1.6763619
0.0018381978
-1.793213
0.0014532528
-1.917852
0.00090574173
-2.0507392
0.00037218674
-2.1939525
-2.9308903e-05
-2.3481449
-0.00022621904
-2.5117137
-0.00021571192
-2.6833516
0.17358163
-0.64165039
-0.01823056
-0.65421101
-0.16131849
-0.61788648
-0.1395958
-0.51526984
0.022897838
-0.49752874
0.20733417
-0.50315212
0.31257262
-0.54003314
0.3299402
-0.59974343
0.3040245
-0.66669798
0.23406541
-0.73555285
0.080634367
-0.78688307
-0.07387551
-0.80823519
-0.16078769
-0.81406474
-0.17440877
-0.81854601
-0.13818646
-0.83881495
-0.090687058
-0.87828485
-0.053979334
-0.93110434
-0.030937263
-0.99182102
-0.017741118
-1.0574681
-0.01027064
-1.1271753
-0.0056667919
-1.2013672
-0.0024298951
-1.2811318
-3.5823868e-05
-1.3673776
0.0015823217
-1.4607008
0.0024214684
-1.5618508
0.0025646496
-1.6712614
0.0022000728
-1.7885648
0.0015576778
-1.9134419
0.0008519959
-2.0465634
0.00024395823
-2.1900826
-0.00016798054
-2.3446086
-0.00034081762
-2.5083209
-0.00028219929
-2.6800466
0.22094924
-0.64695034
0.021450141
-0.67101761
-0.16368058
-0.64297649
-0.17620696
-0.57370254
-0.0097695019
-0.47630439
0.19224658
-0.47546454
0.32254898
-0.50474476
0.35698576
-0.55912784
0.33478389
-0.6229261
0.26540442
-0.68924009
0.095669147
-0.74139723
-0.091219013
-0.76162915
-0.19720397
-0.76446715
-0.21518034
-0.76530489
-0.1702426
-0.77802019
-0.10858325
-0.8126061
-0.061661761
-0.86278763
-0.033233284
-0.92120327
-0.017846548
-0.98410913
-0.0098962112
-1.0502884
-0.0054653952
-1.1199286
-0.0024163405
-1.1940825
1.8135135e-05
-1.2741037
0.0018714134
-1.3609042
0.0030018022
-1.4549418
0.003368386
-1.5568426
0.003094567
-1.6668661
0.0024054322
-1.7845219
0.0015449949
-1.9095568
0.00071935912
-2.0428026
6.9271496e-05
-2.1866226
-0.00033273977
-2.3414074
-0.00046500432
-2.5052467
-0.0003480984
-2.6770602
0.27254198
-0.64917349
0.069696337
-0.68486147
-0.15856769
-0.66721017
-0.21063336
-0.60094804
-0.057754083
-0.51898347
0.17259452
-0.45015352
0.32706434
-0.47221519
0.38009086
-0.52043168
0.3627486
-0.58001635
0.29391784
-0.64320949
0.10771372
-0.69259497
-0.1125237
-0.71267202
-0.24395836
-0.70801189
-0.26355806
-0.70855134
-0.20824607
-0.71927601
-0.12921801
-0.74951531
-0.069328684
-0.79759818
-0.034456454
-0.85441241
-0.016642387
-0.91522744
-0.0084066563
-0.97848261
-0.004546006
-1.0442003
-0.0020857397
-1.1133013
0.00011652764
-1.1872861
0.0020931407
-1.2676553
0.0035290241
-1.3551054
0.0041976922
-1.4499203
0.004106115
-1.5525451
0.0034412627
-1.6630915
0.0024656041
-1.7810105
0.0014288374
-1.9061171
0.0005210283
-2.0394651
-0.00014260539
-2.1834902
-0.00051455894
-2.3384779
-0.00059408391
-2.502409
-0.0004132309
-2.6743643
0.32705324
-0.6475214
0.1255789
-0.69469822
-0.1448776
-0.68958536
-0.24162991
-0.62859037
-0.10890476
-0.54300171
0.1346891
-0.47421108
0.32615657
-0.44206352
0.39860872
-0.48380902
0.3871932
-0.53825851
0.31879824
-0.59720076
0.11422089
-0.64151182
-0.13710975
-0.66105307
-0.29926355
-0.65096109
-0.31961114
-0.64483886
-0.25021654
-0.65897302
-0.15238902
-0.68864984
-0.076689613
-0.7352704
-0.034151231
-0.79119252
-0.013698529
-0.85057921
-0.0054162075
-0.91151728
-0.0026144305
-0.97385625
-0.0012696155
-1.0384749
0.00030392704
-1.1068617
0.0022083626
-1.1808395
0.0039281051
-1.2617515
0.0049781687
-1.3499911
0.0051809367
-1.4455909
0.0046404585
-1.5488897
0.0036148554
-1.6598878
0.0023947473
-1.7779804
0.0012243396
-1.9030734
0.00027026428
-2.03645
-0.00038167042
-2.1806595
-0.00070606975
-2.3357786
-0.00072402251
-2.499807
-0.00047672103
-2.6719282
0.38337022
-0.64223446
0.18843135
-0.69999279
-0.12187239
-0.70869372
-0.26754914
-0.656024
-0.16220574
-0.56844113
0.090624866
-0.49202269
0.3075594
-0.44815115
0.4122116
-0.44921061
0.40753344
-0.49795257
0.33902842
-0.55129789
0.11529176
-0.59053468
-0.16462662
-0.6074797
-0.35617207
-0.59816398
-0.38146114
-0.58237974
-0.29336574
-0.59447633
-0.17547204
-0.62882409
-0.083266241
-0.67562768
-0.031804221
-0.73133549
-0.0085612944
-0.78993706
-0.00050887358
-0.84917284
0.00067279011
-0.90866349
0.00023791033
-0.96924654
0.00063798598
-1.0325126
0.0021725216
-1.1004398
0.0041036445
-1.1747733
0.0056077255
-1.2564545
0.0062382938
-1.3455453
0.0059546102
-1.4419335
0.004977821
-1.5458419
0.0036280845
-1.6571999
0.0022088839
-1.7753593
0.00094727537
-1.900371
-1.9230153e-05
-2.0337584
-0.00063656317
-2.1780575
-0.00090106792
-2.3332684
-0.00085131324
-2.4973843
-0.00053647911
-2.6697497
0.44108154
-0.63420135
0.2570934
-0.70049236
-0.089350156
-0.72346414
-0.28669439
-0.68189037
-0.21591385
-0.5954214
0.039685215
-0.51054529
0.28308052
-0.46009357
0.41224346
-0.44145634
0.42323242
-0.45909811
0.35394801
-0.50616097
0.112104
-0.54082443
-0.19383801
-0.55522841
-0.40931979
-0.54874823
-0.44330946
-0.52994924
-0.33810011
-0.530807
-0.19479144
-0.56845721
-0.087524632
-0.61854105
-0.026887339
-0.67467778
-0.00076711721
-0.73310256
0.0067285093
-0.79122743
0.0056606469
-0.8484073
0.0026482872
-0.90535913
0.0011888945
-0.96388852
0.0019348937
-1.0261443
0.0039362354
-1.094132
0.0059531293
-1.1691978
0.0071650456
-1.2517964
0.0073074137
-1.3417839
0.0065174626
-1.4389062
0.0051263351
-1.5433501
0.0034959741
-1.6549589
0.0019251051
-1.7730966
0.0006132223
-1.8979654
-0.0003370561
-2.0312941
-0.00089953766
-2.1756755
-0.0010943998
-2.330918
-0.00097330825
-2.4951674
-0.00059195061
-2.667801
0.49964386
-0.62364112
0.33105039
-0.6977318
-0.048588129
-0.73216548
-0.29793772
-0.7045498
-0.26809592
-0.62277379
-0.017725539
-0.53102293
0.25227598
-0.47231343
0.40678039
-0.44783053
0.43052868
-0.44268998
0.36342497
-0.46230942
0.10526745
-0.49247505
-0.22342367
-0.5055394
-0.45784031
-0.50149705
-0.50042993
-0.48560608
-0.38581417
-0.47575663
-0.21082024
-0.50842495
-0.086692212
-0.56366641
-0.018788735
-0.62117159
0.010110027
-0.67987589
0.016672873
-0.73744795
0.012731257
-0.79290905
0.00624882
-0.84666695
0.0020631047
-0.90069704
0.0014401834
-0.95752672
0.003281936
-1.0194855
0.0058460195
-1.0881608
0.007811873
-1.164223
0.0085895428
-1.2478431
0.0081705959
-1.3386954
0.0068679443
-1.4364901
0.0050967219
-1.5413459
0.0032353722
-1.6531025
0.0015609326
-1.7711325
0.00023688113
-1.8958076
-0.00067043147
-2.0290624
-0.0011635362
-2.1734506
-0.0012819226
-2.3287246
-0.0010882893
-2.4931104
-0.00064317621
-2.6660918
-0.61091882
0.55846597
0.41021498
-0.69235778
-0.0018211279
-0.73537572
-0.29991082
-0.72251145
-0.31694894
-0.64873006
-0.080701
-0.55278828
0.21310258
-0.48445043
0.39564156
-0.454316
0.43339992
-0.44450068
0.37497348
-0.44777567
0.096199701
-0.44681972
-0.25211002
-0.4584552
-0.50190329
-0.45661526
-0.55128762
-0.44494171
-0.43442742
-0.4308581
-0.22770229
-0.45285012
-0.079226334
-0.51064933
-0.0065081555
-0.57086107
0.024372669
-0.63008335
0.02966692
-0.68760076
0.022260585
-0.74193716
0.011332074
-0.79299329
0.0033691872
-0.84276667
0.00062834096
-0.89431774
0.001971182
-0.95042081
0.0050807438
-1.0129546
0.0079897978
-1.0827414
0.0096552668
-1.1599841
0.0098433682
-1.2446169
0.0088087721
-1.3362721
0.0070072801
-1.4346042
0.0049027274
-1.5397706
0.0028644306
-1.651574
0.0011336867
-1.7694298
-0.00016686392
-1.8938548
-0.001010597
-2.0269923
-0.0014226577
-2.1714018
-0.0014604297
-2.3266602
-0.001195079
-2.4912668
-0.00068985632
-2.6645956
-0.68457344
0.49433774
-0.5959343
0.61670167
0.05040417
-0.73543009
-0.29311007
-0.73448811
-0.3604511
-0.67201796
-0.14807727
-0.57432837
0.16454462
-0.49686302
0.37771522
-0.45961159
0.43071267
-0.44529621
0.38243443
-0.44536446
0.10614025
-0.45113342
-0.27850105
-0.41545013
-0.54088109
-0.41494334
-0.59520339
-0.40731429
-0.4803212
-0.39324534
-0.24746989
-0.40538027
-0.06699198
-0.46020401
0.01127908
-0.52371344
0.042153453
-0.58359862
0.045965601
-0.64142482
0.034590813
-0.69522515
0.018217359
-0.74414702
0.0052494998
-0.78997883
-0.00055709162
-0.83633377
-0.00019242834
-0.88662426
0.0034120799
-0.94312934
0.0074682887
-1.0068971
0.010320205
-1.0780835
0.011408829
-1.1565345
0.010878418
-1.2421265
0.0092058357
-1.3344476
0.0069415293
-1.4332071
0.0045609935
-1.5385608
0.0024020137
-1.6503279
0.00065977215
-1.7679281
-0.00058954237
-1.892068
-0.0013493467
-2.0250976
-0.0016721556
-2.1694633
-0.0016275447
-2.3247707
-0.0012927429
-2.4896004
-0.00073166849
-2.6633195
-0.73289937
0.10790813
-0.67431148
0.58320198
-0.57796704
0.67281782
-0.27990049
-0.74094635
-0.397093
-0.6908371
-0.2183223
-0.59473946
0.10700031
-0.50945053
0.35180996
-0.46399821
0.42266786
-0.44511499
0.38425809
-0.44039962
0.11298753
-0.44549916
-0.27650419
-0.44806461
-0.57481405
-0.37727865
-0.63228574
-0.37278318
-0.52144598
-0.36070641
-0.26892001
-0.36639052
-0.053733811
-0.41409856
0.03499751
-0.47954103
0.063551974
-0.54035497
0.065667364
-0.59863601
0.050024158
-0.65247259
0.027253104
-0.69989489
0.0078798109
-0.7421696
-0.0021827519
-0.78339644
-0.0034431366
-0.82783559
0.00055296715
-0.87834859
0.0059745962
-0.93617427
0.010360966
-1.0015969
0.012705976
-1.0743013
0.012978553
-1.1539259
0.0116497
-1.2403276
0.0093532026
-1.3331738
0.0066822188
-1.4322153
0.0040905942
-1.5376674
0.0018671503
-1.6492986
0.0001546285
-1.7665865
-0.0010164353
-1.8904154
-0.0016798899
-2.0233112
-0.0019083525
-2.1676894
-0.0017815825
-2.3230299
-0.00138066
-2.4881405
-0.00076847362
-2.6622263
-0.7426415
-0.26246307
-0.72752307
0.17031745
-0.65871029
0.67445051
-0.55690206
0.7252053
-0.42773169
-0.7032871
-0.28903506
-0.61309006
0.041378491
-0.52181829
0.31721977
-0.4678628
0.4088461
-0.44361943
0.378859
-0.4328912
0.11609373
-0.4366851
-0.27433726
-0.44249082
-0.58570085
-0.43287727
-0.66339852
-0.34138269
-0.55675438
-0.33229805
-0.290547
-0.33396763
-0.042024955
-0.37387323
0.063344507
-0.43838303
0.08874862
-0.50024835
0.088663479
-0.55896064
0.068807522
-0.613339
0.038804828
-0.65995372
0.01146864
-0.69914534
-0.004305108
-0.73535413
-0.0080253487
-0.77384079
-0.003821614
-0.81830574
0.0031939055
-0.8702391
0.0095169804
-0.92999145
0.013541022
-0.99731526
0.014983051
-1.0714912
0.014274275
-1.1521296
0.012124083
-1.2391809
0.0092518829
-1.3323738
0.0062461871
-1.4315868
0.0035122897
-1.5370135
0.0012784777
-1.6484313
-0.00036805073
-1.7653579
-0.0014396209
-1.8888666
-0.0019968364
-2.0216586
-0.0021285174
-2.1660118
-0.0019214626
-2.3214631
-0.0014585326
-2.4868357
-0.00080028188
-2.6613181
-0.70888766
-0.45446031
-0.73927914
-0.2430109
-0.71621946
0.23703704
-0.63797961
0.76605126
-0.53334647
0.77272833
-0.35719067
-0.62810297
-0.030862871
-0.53358372
0.27371744
-0.47128975
0.38847442
-0.44084433
0.3656729
-0.42352202
0.11445948
-0.4243463
-0.27283688
-0.43292608
-0.59256512
-0.43120403
-0.68561328
-0.40580275
-0.58648481
-0.3067699
-0.3113348
-0.30667828
-0.032490375
-0.33956256
0.093912492
-0.4006751
0.11764284
-0.46303832
0.11468206
-0.52213293
0.091109937
-0.57747389
0.053265218
-0.62401245
0.016258178
-0.66066006
-0.0069555334
-0.69204435
-0.014206407
-0.72445043
-0.010084782
-0.76270366
-0.0012285537
-0.8088017
0.0074942386
-0.8629593
0.01369173
-0.92496847
0.016740255
-0.99416531
0.016993587
-1.0696605
0.015224507
-1.1511247
0.012284235
-1.238602
0.0089125993
-1.3319848
0.0056546131
-1.4312244
0.0028477913
-1.5365442
0.00065341271
-1.6476754
-0.00089688762
-1.7642032
-0.0018514665
-1.8873922
-0.0022960252
-2.0200725
-0.0023307708
-2.1644924
-0.0020465824
-2.3200313
-0.0015263489
-2.4857201
-0.0008271819
-2.6605643
-0.63861139
-0.42044995
-0.70831798
-0.47839762
-0.73068164
-0.22085305
-0.69882553
0.30709713
-0.61364788
0.85689367
-0.50772863
0.81467166
-0.10734897
-0.5443863
0.22153923
-0.47435949
0.36094191
-0.43703686
0.34480895
-0.41299864
0.10723349
-0.40931309
-0.27206394
-0.41978451
-0.59558654
-0.42536292
-0.70150712
-0.41025866
-0.62703187
-0.36032061
-0.33030703
-0.28324816
-0.025861177
-0.30962231
0.12447112
-0.36662739
0.14949429
-0.42852922
0.14342169
-0.4878857
0.1169697
-0.5444791
0.071059238
-0.59175286
0.022567566
-0.626483
-0.010123891
-0.65327125
-0.022279861
-0.67947515
-0.018649631
-0.71128009
-0.0076888274
-0.7514563
0.0039709741
-0.80017702
0.012914401
-0.85697297
0.018078977
-0.92130545
0.019702692
-0.99221303
0.018609369
-1.068783
0.015783175
-1.1508155
0.012129422
-1.2385112
0.0083546986
-1.3319084
0.0049318651
-1.4310762
0.0021189578
-1.5361984
1.0252294e-05
-1.6469842
-0.0014196939
-1.7630824
-0.0022457639
-1.8859692
-0.0025743824
-2.0186063
-0.0025139109
-2.163075
-0.0021567614
-2.3187762
-0.0015842862
-2.4847555
-0.00084930249
-2.6599635
-0.55347964
-0.18528443
-0.64488093
-0.47688704
-0.70187
-0.5001927
-0.71646582
-0.19552031
-0.67681217
0.37947011
-0.58640706
0.94613064
-0.48048202
0.85060236
0.16129784
-0.47708954
0.32584376
-0.43248524
0.31678152
-0.40197444
0.093980815
-0.39270874
-0.2721282
-0.40384969
-0.59422434
-0.41649578
-0.71175226
-0.4098847
-0.65935837
-0.37280037
-0.3822208
-0.30385899
-0.020048
-0.28561154
0.15368525
-0.33558721
0.18316703
-0.3965362
0.17459156
-0.45603554
0.1463531
-0.51401489
0.092691123
-0.56285504
0.030776486
-0.59635799
-0.013824984
-0.61878214
-0.032554497
-0.63871311
-0.029971111
-0.66379361
-0.016619223
-0.69785194
-0.001394195
-0.74124093
0.010952647
-0.79309448
0.018816627
-0.85264727
0.02228409
-0.9191174
0.022219898
-0.99143072
0.0197422
-1.0687798
0.015930821
-1.1511123
0.011673816
-1.2388014
0.0076043226
-1.3320704
0.0041040331
-1.4310627
0.0013467692
-1.5359278
-0.00064240689
-1.6463088
-0.0019280564
-1.7619701
-0.0026176916
-1.8845929
-0.0028297698
-2.0172166
-0.0026773529
-2.1618168
-0.0022521281
-2.3176602
-0.0016326734
-2.4839486
-0.00086689349
-2.659481
-0.47930515
0.094176189
-0.56033365
-0.26266455
-0.64512257
-0.52665832
-0.68991707
-0.5197385
-0.69722969
-0.16741632
-0.65126058
0.45351765
-0.55680152
1.0330278
-0.45248685
0.87986642
0.28307514
-0.42750808
0.28239685
-0.39102936
0.074995843
-0.37591595
-0.2730843
-0.38630123
-0.58827348
-0.40505083
-0.71595831
-0.40689205
-0.68310687
-0.3808248
-0.43095559
-0.319375
-0.054054139
-0.26644047
0.18128766
-0.31018024
0.21805466
-0.36694045
0.20790436
-0.42640348
0.17911392
-0.48577881
0.11876905
-0.53708009
0.041498043
-0.57019817
-0.017954962
-0.58844317
-0.045329808
-0.60192541
-0.0445546
-0.61999855
-0.028490509
-0.64770825
-0.0089608299
-0.68574041
0.0075484182
-0.73291849
0.018770693
-0.78800064
0.02461466
-0.85012062
0.025988981
-0.9183855
0.024145103
-0.99173967
0.020344889
-1.0695234
0.015672149
-1.1518914
0.010943861
-1.2393838
0.0066922254
-1.3323891
0.003197793
-1.4311443
0.00055033512
-1.5356815
-0.0012862418
-1.6456121
-0.002414624
-1.7608442
-0.0029636578
-1.8832652
-0.0030608747
-2.0159397
-0.0028209747
-2.1606529
-0.0023330649
-2.3166934
-0.001671913
-2.4832541
-0.00088025359
-2.6591189
-0.42235659
0.23295781
-0.48089273
0.021776456
-0.56393773
-0.33670362
-0.63915433
-0.57047645
-0.67299817
-0.53698539
-0.6738924
-0.1371053
-0.62271851
0.52860257
-0.52530353
1.1164447
-0.42417945
0.90204231
0.24267852
-0.38069908
0.051200354
-0.360142
-0.27489407
-0.36861648
-0.57770936
-0.39202972
-0.71363954
-0.40182522
-0.69789824
-0.38663231
-0.47454742
-0.33242459
-0.0926504
-0.27727021
0.18237962
-0.26454294
0.25261791
-0.341437
0.24289337
-0.39869563
0.21470378
-0.45919203
0.14947242
-0.51369587
0.05537916
-0.54779865
-0.022085571
-0.56249236
-0.060859532
-0.56902688
-0.062944578
-0.57962177
-0.043804917
-0.60073634
-0.019090749
-0.63333074
0.0024631512
-0.67599543
0.017773041
-0.72700365
0.026578128
-0.78510352
0.029846123
-0.849403
0.028969577
-0.91900742
0.025393275
-0.99297826
0.020407484
-1.0708871
0.015031787
-1.1530433
0.0099748611
-1.2401567
0.0056515947
-1.3328036
0.0022392537
-1.43125
-0.00024898983
-1.5354209
-0.0019121783
-1.644872
-0.0028736393
-1.7597215
-0.0032811621
-1.8819781
-0.0032670732
-2.014729
-0.0029450464
-2.1596292
-0.0024000794
-2.3158345
-0.0017025006
-2.482697
-0.00088965215
-2.6588474
-0.37134136
0.19875689
-0.4172039
0.17610221
-0.48269751
-0.052442527
-0.56336437
-0.40536371
-0.62724427
-0.6093256
-0.65151947
-0.55239922
-0.64720267
-0.10495147
-0.59165855
0.60408738
-0.49239427
1.1952846
-0.39585561
0.91696246
0.024117598
-0.34652421
-0.27725641
-0.35226743
-0.56290423
-0.37851507
-0.70437218
-0.39562264
-0.70383555
-0.39028352
-0.51160721
-0.34466113
-0.13237898
-0.28910888
0.17768835
-0.26948637
0.27496342
-0.28363856
0.27829898
-0.37381874
0.25178588
-0.43317097
0.18219968
-0.48933999
0.071542267
-0.52690245
-0.02615829
-0.54035599
-0.079111016
-0.54054273
-0.085723537
-0.54254025
-0.063100992
-0.5566305
-0.032132523
-0.58372856
-0.0045209276
-0.62196924
0.01567947
-0.66922687
0.028075573
-0.7237705
0.033726922
-0.78441995
0.034188689
-0.85036297
0.031091978
-0.92079369
0.025933994
-0.99499323
0.019950344
-1.0727173
0.014049369
-1.1544431
0.0088077313
-1.2410373
0.0045162264