/*--------------------------------*- C++ -*----------------------------------*\
| =========                 |                                                 |
| \\      /  F ield         | OpenFOAM: The Open Source CFD Toolbox           |
|  \\    /   O peration     | Version:  v2012                                 |
|   \\  /    A nd           | Website:  www.openfoam.com                      |
|    \\/     M anipulation  |                                                 |
\*---------------------------------------------------------------------------*/
FoamFile
{
    version     2.0;
    format      ascii;
    class       pointVectorField;
    location    "41.9635860759583679";
    object      pointDisplacement;
}
// * * * * * * * * * * * * * * * * * * * * * * * * * * * * * * * * * * * * * //

dimensions      [0 1 0 0 0 0 0];


internalField   nonuniform List<vector> 
18840
(
(0.068102458 0 0)
(0.067991784 0 0)
(0.067662591 0 0)
(0.067119878 0 0)
(0.066367824 0 0)
(0.0654094 0 0)
(0.064247617 0 0)
(0.062884541 0 0)
(0.061322195 0 0)
(0.059561859 0 0)
(0.05760488 0 0)
(0.05545197 0 0)
(0.053103997 0 0)
(0.050561285 0 0)
(0.047824511 0 0)
(0.044893672 0 0)
(0.04176904 0 0)
(0.038450417 0 0)
(0.034938409 0 0)
(0.031235474 0 0)
(0.026585396 0 0)
(0.068102458 0 0)
(0.067992045 0 0)
(0.067663612 0 0)
(0.067122301 0 0)
(0.066372214 0 0)
(0.06541659 0 0)
(0.064258047 0 0)
(0.062898841 0 0)
(0.061340791 0 0)
(0.059585451 0 0)
(0.057634004 0 0)
(0.055487485 0 0)
(0.053146634 0 0)
(0.05061216 0 0)
(0.047884525 0 0)
(0.044964166 0 0)
(0.04185126 0 0)
(0.038546114 0 0)
(0.035049105 0 0)
(0.031362182 0 0)
(0.027511332 0 0)
(0.068102458 0 0)
(0.067992235 0 0)
(0.067664344 0 0)
(0.067123951 0 0)
(0.066375251 0 0)
(0.065421485 0 0)
(0.064265283 0 0)
(0.062908849 0 0)
(0.061354111 0 0)
(0.05960264 0 0)
(0.057655796 0 0)
(0.055514679 0 0)
(0.05318027 0 0)
(0.050653356 0 0)
(0.047934669 0 0)
(0.045024739 0 0)
(0.041924035 0 0)
(0.038632874 0 0)
(0.035151563 0 0)
(0.031480179 0 0)
(0.027595099 0 0)
(0.068102458 0 0)
(0.067992563 0 0)
(0.067665614 0 0)
(0.067126733 0 0)
(0.066380131 0 0)
(0.065429083 0 0)
(0.064276221 0 0)
(0.06292379 0 0)
(0.06137378 0 0)
(0.059627873 0 0)
(0.057687554 0 0)
(0.055554088 0 0)
(0.053228649 0 0)
(0.050712249 0 0)
(0.048005856 0 0)
(0.045110292 0 0)
(0.042026357 0 0)
(0.03875472 0 0)
(0.035296056 0 0)
(0.031651077 0 0)
(0.027752358 0 0)
(0.068102458 0 0)
(0.067993015 0 0)
(0.067667365 0 0)
(0.067130544 0 0)
(0.066386732 0 0)
(0.065439217 0 0)
(0.064290663 0 0)
(0.062943371 0 0)
(0.061399414 0 0)
(0.059660596 0 0)
(0.057728548 0 0)
(0.05560472 0 0)
(0.053290501 0 0)
(0.050787161 0 0)
(0.048095968 0 0)
(0.045218091 0 0)
(0.042154745 0 0)
(0.038907053 0 0)
(0.035476229 0 0)
(0.031863692 0 0)
(0.027962183 0 0)
(0.068102458 0 0)
(0.067993584 0 0)
(0.067669566 0 0)
(0.067135324 0 0)
(0.066394957 0 0)
(0.065451757 0 0)
(0.064308423 0 0)
(0.062967329 0 0)
(0.061430623 0 0)
(0.059700249 0 0)
(0.057777976 0 0)
(0.055665467 0 0)
(0.053364312 0 0)
(0.050876088 0 0)
(0.048202341 0 0)
(0.045344649 0 0)
(0.042304599 0 0)
(0.039083855 0 0)
(0.035684098 0 0)
(0.032107443 0 0)
(0.028211409 0 0)
(0.068102458 0 0)
(0.067994266 0 0)
(0.067672207 0 0)
(0.067141039 0 0)
(0.066404762 0 0)
(0.065466618 0 0)
(0.064329359 0 0)
(0.062995416 0 0)
(0.061467036 0 0)
(0.059746254 0 0)
(0.057835018 0 0)
(0.055735142 0 0)
(0.053448487 0 0)
(0.050976837 0 0)
(0.048322125 0 0)
(0.045486183 0 0)
(0.042471119 0 0)
(0.039278895 0 0)
(0.035911867 0 0)
(0.032372465 0 0)
(0.028488678 0 0)
(0.068102458 0 0)
(0.067995051 0 0)
(0.067675258 0 0)
(0.067147643 0 0)
(0.066416067 0 0)
(0.065483703 0 0)
(0.064353319 0 0)
(0.063027401 0 0)
(0.061508271 0 0)
(0.059798057 0 0)
(0.057898848 0 0)
(0.055812617 0 0)
(0.053541446 0 0)
(0.051087355 0 0)
(0.048452579 0 0)
(0.045639246 0 0)
(0.042649838 0 0)
(0.039486708 0 0)
(0.036152656 0 0)
(0.032650518 0 0)
(0.028784214 0 0)
(0.068102458 0 0)
(0.067995928 0 0)
(0.067678666 0 0)
(0.06715504 0 0)
(0.06642873 0 0)
(0.065502835 0 0)
(0.06438008 0 0)
(0.063063 0 0)
(0.061553935 0 0)
(0.05985511 0 0)
(0.057968691 0 0)
(0.055896851 0 0)
(0.053641783 0 0)
(0.051205811 0 0)
(0.048591318 0 0)
(0.045800852 0 0)
(0.042837028 0 0)
(0.03970274 0 0)
(0.036400901 0 0)
(0.032934935 0 0)
(0.029090177 0 0)
(0.068102458 0 0)
(0.06799689 0 0)
(0.067682397 0 0)
(0.067163132 0 0)
(0.066442606 0 0)
(0.065523799 0 0)
(0.064409391 0 0)
(0.063101891 0 0)
(0.061603645 0 0)
(0.059916908 0 0)
(0.05804392 0 0)
(0.055986976 0 0)
(0.053748421 0 0)
(0.051330753 0 0)
(0.048736564 0 0)
(0.045968655 0 0)
(0.043029894 0 0)
(0.039923439 0 0)
(0.036652462 0 0)
(0.033220597 0 0)
(0.029401079 0 0)
(0.068102458 0 0)
(0.067997714 0 0)
(0.067685588 0 0)
(0.067170057 0 0)
(0.06645447 0 0)
(0.065541728 0 0)
(0.06443443 0 0)
(0.063135058 0 0)
(0.061645938 0 0)
(0.05996933 0 0)
(0.058107537 0 0)
(0.056062918 0 0)
(0.053837983 0 0)
(0.051435345 0 0)
(0.048857825 0 0)
(0.046108369 0 0)
(0.043190162 0 0)
(0.040106486 0 0)
(0.036860835 0 0)
(0.033456826 0 0)
(0.029663301 0 0)
(0.068102458 0 0)
(0.067991784 0 0)
(0.067662591 0 0)
(0.067119878 0 0)
(0.066367824 0 0)
(0.0654094 0 0)
(0.064247617 0 0)
(0.062884541 0 0)
(0.061322195 0 0)
(0.059561859 0 0)
(0.05760488 0 0)
(0.05545197 0 0)
(0.053103997 0 0)
(0.050561285 0 0)
(0.047824511 0 0)
(0.044893672 0 0)
(0.04176904 0 0)
(0.038450417 0 0)
(0.034938409 0 0)
(0.031235474 0 0)
(0.026585396 0 0)
(0.068102458 0 0)
(0.067992045 0 0)
(0.067663612 0 0)
(0.067122301 0 0)
(0.066372214 0 0)
(0.06541659 0 0)
(0.064258047 0 0)
(0.062898841 0 0)
(0.061340791 0 0)
(0.059585451 0 0)
(0.057634004 0 0)
(0.055487485 0 0)
(0.053146634 0 0)
(0.05061216 0 0)
(0.047884525 0 0)
(0.044964166 0 0)
(0.04185126 0 0)
(0.038546114 0 0)
(0.035049105 0 0)
(0.031362182 0 0)
(0.027511332 0 0)
(0.068102458 0 0)
(0.067992235 0 0)
(0.067664344 0 0)
(0.067123951 0 0)
(0.066375251 0 0)
(0.065421485 0 0)
(0.064265283 0 0)
(0.062908849 0 0)
(0.061354111 0 0)
(0.05960264 0 0)
(0.057655796 0 0)
(0.055514679 0 0)
(0.05318027 0 0)
(0.050653356 0 0)
(0.047934669 0 0)
(0.045024739 0 0)
(0.041924035 0 0)
(0.038632874 0 0)
(0.035151563 0 0)
(0.031480179 0 0)
(0.027595099 0 0)
(0.068102458 0 0)
(0.067992563 0 0)
(0.067665614 0 0)
(0.067126733 0 0)
(0.066380131 0 0)
(0.065429083 0 0)
(0.064276221 0 0)
(0.06292379 0 0)
(0.06137378 0 0)
(0.059627873 0 0)
(0.057687554 0 0)
(0.055554088 0 0)
(0.053228649 0 0)
(0.050712249 0 0)
(0.048005856 0 0)
(0.045110292 0 0)
(0.042026357 0 0)
(0.03875472 0 0)
(0.035296056 0 0)
(0.031651077 0 0)
(0.027752358 0 0)
(0.068102458 0 0)
(0.067993015 0 0)
(0.067667365 0 0)
(0.067130544 0 0)
(0.066386732 0 0)
(0.065439217 0 0)
(0.064290663 0 0)
(0.062943371 0 0)
(0.061399414 0 0)
(0.059660596 0 0)
(0.057728548 0 0)
(0.05560472 0 0)
(0.053290501 0 0)
(0.050787161 0 0)
(0.048095968 0 0)
(0.045218091 0 0)
(0.042154745 0 0)
(0.038907053 0 0)
(0.035476229 0 0)
(0.031863692 0 0)
(0.027962183 0 0)
(0.068102458 0 0)
(0.067993584 0 0)
(0.067669566 0 0)
(0.067135324 0 0)
(0.066394957 0 0)
(0.065451757 0 0)
(0.064308423 0 0)
(0.062967329 0 0)
(0.061430623 0 0)
(0.059700249 0 0)
(0.057777976 0 0)
(0.055665467 0 0)
(0.053364312 0 0)
(0.050876088 0 0)
(0.048202341 0 0)
(0.045344649 0 0)
(0.042304599 0 0)
(0.039083855 0 0)
(0.035684098 0 0)
(0.032107443 0 0)
(0.028211409 0 0)
(0.068102458 0 0)
(0.067994266 0 0)
(0.067672207 0 0)
(0.067141039 0 0)
(0.066404762 0 0)
(0.065466618 0 0)
(0.064329359 0 0)
(0.062995416 0 0)
(0.061467036 0 0)
(0.059746254 0 0)
(0.057835018 0 0)
(0.055735142 0 0)
(0.053448487 0 0)
(0.050976837 0 0)
(0.048322125 0 0)
(0.045486183 0 0)
(0.042471119 0 0)
(0.039278895 0 0)
(0.035911867 0 0)
(0.032372465 0 0)
(0.028488678 0 0)
(0.068102458 0 0)
(0.067995051 0 0)
(0.067675258 0 0)
(0.067147643 0 0)
(0.066416067 0 0)
(0.065483703 0 0)
(0.064353319 0 0)
(0.063027401 0 0)
(0.061508271 0 0)
(0.059798057 0 0)
(0.057898848 0 0)
(0.055812617 0 0)
(0.053541446 0 0)
(0.051087355 0 0)
(0.048452579 0 0)
(0.045639246 0 0)
(0.042649838 0 0)
(0.039486708 0 0)
(0.036152656 0 0)
(0.032650518 0 0)
(0.028784214 0 0)
(0.068102458 0 0)
(0.067995928 0 0)
(0.067678666 0 0)
(0.06715504 0 0)
(0.06642873 0 0)
(0.065502835 0 0)
(0.06438008 0 0)
(0.063063 0 0)
(0.061553935 0 0)
(0.05985511 0 0)
(0.057968691 0 0)
(0.055896851 0 0)
(0.053641783 0 0)
(0.051205811 0 0)
(0.048591318 0 0)
(0.045800852 0 0)
(0.042837028 0 0)
(0.03970274 0 0)
(0.036400901 0 0)
(0.032934935 0 0)
(0.029090177 0 0)
(0.068102458 0 0)
(0.06799689 0 0)
(0.067682397 0 0)
(0.067163132 0 0)
(0.066442606 0 0)
(0.065523799 0 0)
(0.064409391 0 0)
(0.063101891 0 0)
(0.061603645 0 0)
(0.059916908 0 0)
(0.05804392 0 0)
(0.055986976 0 0)
(0.053748421 0 0)
(0.051330753 0 0)
(0.048736564 0 0)
(0.045968655 0 0)
(0.043029894 0 0)
(0.039923439 0 0)
(0.036652462 0 0)
(0.033220597 0 0)
(0.029401079 0 0)
(0.068102458 0 0)
(0.067997714 0 0)
(0.067685588 0 0)
(0.067170057 0 0)
(0.06645447 0 0)
(0.065541728 0 0)
(0.06443443 0 0)
(0.063135058 0 0)
(0.061645938 0 0)
(0.05996933 0 0)
(0.058107537 0 0)
(0.056062918 0 0)
(0.053837983 0 0)
(0.051435345 0 0)
(0.048857825 0 0)
(0.046108369 0 0)
(0.043190162 0 0)
(0.040106486 0 0)
(0.036860835 0 0)
(0.033456826 0 0)
(0.029663301 0 0)
(0.068102458 0 0)
(0.06798813 0 0)
(0.067648415 0 0)
(0.067089177 0 0)
(0.06631514 0 0)
(0.065330405 0 0)
(0.064138421 0 0)
(0.062741946 0 0)
(0.061143393 0 0)
(0.059344726 0 0)
(0.05734777 0 0)
(0.055153996 0 0)
(0.052764912 0 0)
(0.05018169 0 0)
(0.047405662 0 0)
(0.044437809 0 0)
(0.041279381 0 0)
(0.037931263 0 0)
(0.034394703 0 0)
(0.030672955 0 0)
(0.026433813 0 0)
(0.068102458 0 0)
(0.067988354 0 0)
(0.067649313 0 0)
(0.067091186 0 0)
(0.066318678 0 0)
(0.065335874 0 0)
(0.064146201 0 0)
(0.062752394 0 0)
(0.061156841 0 0)
(0.059361481 0 0)
(0.05736811 0 0)
(0.055178165 0 0)
(0.05279312 0 0)
(0.0502141 0 0)
(0.047442389 0 0)
(0.044478908 0 0)
(0.041324833 0 0)
(0.037980967 0 0)
(0.034448463 0 0)
(0.030730434 0 0)
(0.02649774 0 0)
(0.068102458 0 0)
(0.06798841 0 0)
(0.067649538 0 0)
(0.067091702 0 0)
(0.066319593 0 0)
(0.065337283 0 0)
(0.064148176 0 0)
(0.062754983 0 0)
(0.061160064 0 0)
(0.059365324 0 0)
(0.05737252 0 0)
(0.05518305 0 0)
(0.052798331 0 0)
(0.050219436 0 0)
(0.047447579 0 0)
(0.044483605 0 0)
(0.041328601 0 0)
(0.037983263 0 0)
(0.034448628 0 0)
(0.03072757 0 0)
(0.026503379 0 0)
(0.068102458 0 0)
(0.067988531 0 0)
(0.067650008 0 0)
(0.067092714 0 0)
(0.066321309 0 0)
(0.065339825 0 0)
(0.064151617 0 0)
(0.062759355 0 0)
(0.061165344 0 0)
(0.059371439 0 0)
(0.057379331 0 0)
(0.055190351 0 0)
(0.052805839 0 0)
(0.050226787 0 0)
(0.047454311 0 0)
(0.044489155 0 0)
(0.041332283 0 0)
(0.037984261 0 0)
(0.034445974 0 0)
(0.030719967 0 0)
(0.026509587 0 0)
(0.068102458 0 0)
(0.067988724 0 0)
(0.067650748 0 0)
(0.067094293 0 0)
(0.066323957 0 0)
(0.065343706 0 0)
(0.064156826 0 0)
(0.062765927 0 0)
(0.061173244 0 0)
(0.059380562 0 0)
(0.057389488 0 0)
(0.055201269 0 0)
(0.052817141 0 0)
(0.050237996 0 0)
(0.047464827 0 0)
(0.044498256 0 0)
(0.041339093 0 0)
(0.037987748 0 0)
(0.034444924 0 0)
(0.030712758 0 0)
(0.026521925 0 0)
(0.068102458 0 0)
(0.067989001 0 0)
(0.067651809 0 0)
(0.067096553 0 0)
(0.066327744 0 0)
(0.065349249 0 0)
(0.064164271 0 0)
(0.062775352 0 0)
(0.061184643 0 0)
(0.059393854 0 0)
(0.05740449 0 0)
(0.055217702 0 0)
(0.052834604 0 0)
(0.050255969 0 0)
(0.047482653 0 0)
(0.044515134 0 0)
(0.041354045 0 0)
(0.03799961 0 0)
(0.034452325 0 0)
(0.030713848 0 0)
(0.026548972 0 0)
(0.068102458 0 0)
(0.067989377 0 0)
(0.067653255 0 0)
(0.067099647 0 0)
(0.066332941 0 0)
(0.065356874 0 0)
(0.06417456 0 0)
(0.062788474 0 0)
(0.06120069 0 0)
(0.059412831 0 0)
(0.057426302 0 0)
(0.05524215 0 0)
(0.052861351 0 0)
(0.050284557 0 0)
(0.047512475 0 0)
(0.044545435 0 0)
(0.041383865 0 0)
(0.038027775 0 0)
(0.034477425 0 0)
(0.030733928 0 0)
(0.026602396 0 0)
(0.068102458 0 0)
(0.067989868 0 0)
(0.067655154 0 0)
(0.067103734 0 0)
(0.066339837 0 0)
(0.065367037 0 0)
(0.064188375 0 0)
(0.062806276 0 0)
(0.061222741 0 0)
(0.059439318 0 0)
(0.057457315 0 0)
(0.055277681 0 0)
(0.052901249 0 0)
(0.050328566 0 0)
(0.047560205 0 0)
(0.044596355 0 0)
(0.041437213 0 0)
(0.038082576 0 0)
(0.034532417 0 0)
(0.030787177 0 0)
(0.026697641 0 0)
(0.068102458 0 0)
(0.067990479 0 0)
(0.06765753 0 0)
(0.067108873 0 0)
(0.066348532 0 0)
(0.065380036 0 0)
(0.064206204 0 0)
(0.062829579 0 0)
(0.061251967 0 0)
(0.059474996 0 0)
(0.057499744 0 0)
(0.055327245 0 0)
(0.052958043 0 0)
(0.050392828 0 0)
(0.047631826 0 0)
(0.044675394 0 0)
(0.041523271 0 0)
(0.038175396 0 0)
(0.034631068 0 0)
(0.030890278 0 0)
(0.026852993 0 0)
(0.068102458 0 0)
(0.067991196 0 0)
(0.067660311 0 0)
(0.067114831 0 0)
(0.066358879 0 0)
(0.06539558 0 0)
(0.064227958 0 0)
(0.062858261 0 0)
(0.061288461 0 0)
(0.05951992 0 0)
(0.057553898 0 0)
(0.055391163 0 0)
(0.053032454 0 0)
(0.050478168 0 0)
(0.047728802 0 0)
(0.044784416 0 0)
(0.041644967 0 0)
(0.038310141 0 0)
(0.034779644 0 0)
(0.031053807 0 0)
(0.027087514 0 0)
(0.068102458 0 0)
(0.06798813 0 0)
(0.067648415 0 0)
(0.067089177 0 0)
(0.06631514 0 0)
(0.065330405 0 0)
(0.064138421 0 0)
(0.062741946 0 0)
(0.061143393 0 0)
(0.059344726 0 0)
(0.05734777 0 0)
(0.055153996 0 0)
(0.052764912 0 0)
(0.05018169 0 0)
(0.047405662 0 0)
(0.044437809 0 0)
(0.041279381 0 0)
(0.037931263 0 0)
(0.034394703 0 0)
(0.030672955 0 0)
(0.026433813 0 0)
(0.068102458 0 0)
(0.067988354 0 0)
(0.067649313 0 0)
(0.067091186 0 0)
(0.066318678 0 0)
(0.065335874 0 0)
(0.064146201 0 0)
(0.062752394 0 0)
(0.061156841 0 0)
(0.059361481 0 0)
(0.05736811 0 0)
(0.055178165 0 0)
(0.05279312 0 0)
(0.0502141 0 0)
(0.047442389 0 0)
(0.044478908 0 0)
(0.041324833 0 0)
(0.037980967 0 0)
(0.034448463 0 0)
(0.030730434 0 0)
(0.02649774 0 0)
(0.068102458 0 0)
(0.06798841 0 0)
(0.067649538 0 0)
(0.067091702 0 0)
(0.066319593 0 0)
(0.065337283 0 0)
(0.064148176 0 0)
(0.062754983 0 0)
(0.061160064 0 0)
(0.059365324 0 0)
(0.05737252 0 0)
(0.05518305 0 0)
(0.052798331 0 0)
(0.050219436 0 0)
(0.047447579 0 0)
(0.044483605 0 0)
(0.041328601 0 0)
(0.037983263 0 0)
(0.034448628 0 0)
(0.03072757 0 0)
(0.026503379 0 0)
(0.068102458 0 0)
(0.067988531 0 0)
(0.067650008 0 0)
(0.067092714 0 0)
(0.066321309 0 0)
(0.065339825 0 0)
(0.064151617 0 0)
(0.062759355 0 0)
(0.061165344 0 0)
(0.059371439 0 0)
(0.057379331 0 0)
(0.055190351 0 0)
(0.052805839 0 0)
(0.050226787 0 0)
(0.047454311 0 0)
(0.044489155 0 0)
(0.041332283 0 0)
(0.037984261 0 0)
(0.034445974 0 0)
(0.030719967 0 0)
(0.026509587 0 0)
(0.068102458 0 0)
(0.067988724 0 0)
(0.067650748 0 0)
(0.067094293 0 0)
(0.066323957 0 0)
(0.065343706 0 0)
(0.064156826 0 0)
(0.062765927 0 0)
(0.061173244 0 0)
(0.059380562 0 0)
(0.057389488 0 0)
(0.055201269 0 0)
(0.052817141 0 0)
(0.050237996 0 0)
(0.047464827 0 0)
(0.044498256 0 0)
(0.041339093 0 0)
(0.037987748 0 0)
(0.034444924 0 0)
(0.030712758 0 0)
(0.026521925 0 0)
(0.068102458 0 0)
(0.067989001 0 0)
(0.067651809 0 0)
(0.067096553 0 0)
(0.066327744 0 0)
(0.065349249 0 0)
(0.064164271 0 0)
(0.062775352 0 0)
(0.061184643 0 0)
(0.059393854 0 0)
(0.05740449 0 0)
(0.055217702 0 0)
(0.052834604 0 0)
(0.050255969 0 0)
(0.047482653 0 0)
(0.044515134 0 0)
(0.041354045 0 0)
(0.03799961 0 0)
(0.034452325 0 0)
(0.030713848 0 0)
(0.026548972 0 0)
(0.068102458 0 0)
(0.067989377 0 0)
(0.067653255 0 0)
(0.067099647 0 0)
(0.066332941 0 0)
(0.065356874 0 0)
(0.06417456 0 0)
(0.062788474 0 0)
(0.06120069 0 0)
(0.059412831 0 0)
(0.057426302 0 0)
(0.05524215 0 0)
(0.052861351 0 0)
(0.050284557 0 0)
(0.047512475 0 0)
(0.044545435 0 0)
(0.041383865 0 0)
(0.038027775 0 0)
(0.034477425 0 0)
(0.030733928 0 0)
(0.026602396 0 0)
(0.068102458 0 0)
(0.067989868 0 0)
(0.067655154 0 0)
(0.067103734 0 0)
(0.066339837 0 0)
(0.065367037 0 0)
(0.064188375 0 0)
(0.062806276 0 0)
(0.061222741 0 0)
(0.059439318 0 0)
(0.057457315 0 0)
(0.055277681 0 0)
(0.052901249 0 0)
(0.050328566 0 0)
(0.047560205 0 0)
(0.044596355 0 0)
(0.041437213 0 0)
(0.038082576 0 0)
(0.034532417 0 0)
(0.030787177 0 0)
(0.026697641 0 0)
(0.068102458 0 0)
(0.067990479 0 0)
(0.06765753 0 0)
(0.067108873 0 0)
(0.066348532 0 0)
(0.065380036 0 0)
(0.064206204 0 0)
(0.062829579 0 0)
(0.061251967 0 0)
(0.059474996 0 0)
(0.057499744 0 0)
(0.055327245 0 0)
(0.052958043 0 0)
(0.050392828 0 0)
(0.047631826 0 0)
(0.044675394 0 0)
(0.041523271 0 0)
(0.038175396 0 0)
(0.034631068 0 0)
(0.030890278 0 0)
(0.026852993 0 0)
(0.068102458 0 0)
(0.067991196 0 0)
(0.067660311 0 0)
(0.067114831 0 0)
(0.066358879 0 0)
(0.06539558 0 0)
(0.064227958 0 0)
(0.062858261 0 0)
(0.061288461 0 0)
(0.05951992 0 0)
(0.057553898 0 0)
(0.055391163 0 0)
(0.053032454 0 0)
(0.050478168 0 0)
(0.047728802 0 0)
(0.044784416 0 0)
(0.041644967 0 0)
(0.038310141 0 0)
(0.034779644 0 0)
(0.031053807 0 0)
(0.027087514 0 0)
(0.021256249 0 0)
(0.015463114 0 0)
(0.009396644 0 0)
(0.0030646302 0 0)
(-0.003519685 0 0)
(-0.010341831 0 0)
(-0.017380997 0 0)
(-0.024602092 0 0)
(-0.031953767 0 0)
(-0.039384681 0 0)
(-0.046854104 0 0)
(-0.054319746 0 0)
(-0.061737182 0 0)
(-0.069069613 0 0)
(-0.076286736 0 0)
(-0.083356059 0 0)
(-0.09024508 0 0)
(-0.096920874 0 0)
(-0.10335234 0 0)
(-0.1095202 0 0)
(-0.11538849 0 0)
(-0.12091027 0 0)
(-0.12604937 0 0)
(-0.13079282 0 0)
(-0.13512231 0 0)
(-0.13899693 0 0)
(-0.14237772 0 0)
(-0.14524078 0 0)
(-0.14756052 0 0)
(-0.14929306 0 0)
(-0.15044178 0 0)
(-0.15099681 0 0)
(-0.15087172 0 0)
(-0.15001053 0 0)
(-0.14842995 0 0)
(-0.14612677 0 0)
(-0.14299296 0 0)
(-0.13882186 0 0)
(-0.13355323 0 0)
(-0.12728206 0 0)
(-0.11999423 0 0)
(-0.11160331 0 0)
(-0.10204088 0 0)
(-0.091271467 0 0)
(-0.079239199 0 0)
(-0.065895243 0 0)
(-0.051210571 0 0)
(-0.03525461 0 0)
(-0.018177842 0 0)
(0 0 0)
(0.02133272 0 0)
(0.015554255 0 0)
(0.0095003555 0 0)
(0.0031786704 0 0)
(-0.0033977759 0 0)
(-0.010214746 0 0)
(-0.017252207 0 0)
(-0.02447495 0 0)
(-0.031832155 0 0)
(-0.039273528 0 0)
(-0.046756113 0 0)
(-0.054236266 0 0)
(-0.061669345 0 0)
(-0.069017669 0 0)
(-0.076250085 0 0)
(-0.083334552 0 0)
(-0.090239389 0 0)
(-0.096931689 0 0)
(-0.10337955 0 0)
(-0.10956192 0 0)
(-0.11544388 0 0)
(-0.12097845 0 0)
(-0.12612866 0 0)
(-0.13088139 0 0)
(-0.13521988 0 0)
(-0.13910278 0 0)
(-0.14249027 0 0)
(-0.14536066 0 0)
(-0.1476853 0 0)
(-0.14942078 0 0)
(-0.15057177 0 0)
(-0.15112917 0 0)
(-0.15100562 0 0)
(-0.15014436 0 0)
(-0.14856606 0 0)
(-0.14626413 0 0)
(-0.14312994 0 0)
(-0.13895631 0 0)
(-0.13368193 0 0)
(-0.12740246 0 0)
(-0.12010503 0 0)
(-0.11170418 0 0)
(-0.10213178 0 0)
(-0.091353312 0 0)
(-0.079309273 0 0)
(-0.065951391 0 0)
(-0.051253246 0 0)
(-0.035282256 0 0)
(-0.01819042 0 0)
(0 0 0)
(0.021370485 0 0)
(0.015633435 0 0)
(0.0096172621 0 0)
(0.0033294525 0 0)
(-0.0032172018 0 0)
(-0.010008955 0 0)
(-0.017026179 0 0)
(-0.024234806 0 0)
(-0.031584809 0 0)
(-0.039025337 0 0)
(-0.046513158 0 0)
(-0.054002904 0 0)
(-0.06144822 0 0)
(-0.068810676 0 0)
(-0.076058581 0 0)
(-0.083160727 0 0)
(-0.090085134 0 0)
(-0.096798351 0 0)
(-0.10326922 0 0)
(-0.10947399 0 0)
(-0.11537727 0 0)
(-0.12093317 0 0)
(-0.12610426 0 0)
(-0.13087631 0 0)
(-0.13523303 0 0)
(-0.1391336 0 0)
(-0.14253826 0 0)
(-0.14542573 0 0)
(-0.14776446 0 0)
(-0.14951279 0 0)
(-0.15067546 0 0)
(-0.15124348 0 0)
(-0.15112922 0 0)
(-0.15027594 0 0)
(-0.14870701 0 0)
(-0.14641258 0 0)
(-0.14328468 0 0)
(-0.13911433 0 0)
(-0.13383869 0 0)
(-0.12755511 0 0)
(-0.12025166 0 0)
(-0.11184224 0 0)
(-0.10225903 0 0)
(-0.091470404 0 0)
(-0.079412137 0 0)
(-0.066035944 0 0)
(-0.051318898 0 0)
(-0.035326329 0 0)
(-0.018211879 0 0)
(0 0 0)
(0.021428942 0 0)
(0.015759733 0 0)
(0.0098059094 0 0)
(0.0035747281 0 0)
(-0.002921351 0 0)
(-0.0096690681 0 0)
(-0.016649756 0 0)
(-0.02383007 0 0)
(-0.031161135 0 0)
(-0.038592807 0 0)
(-0.046079785 0 0)
(-0.053575328 0 0)
(-0.061032346 0 0)
(-0.068410224 0 0)
(-0.075676462 0 0)
(-0.082800863 0 0)
(-0.089751263 0 0)
(-0.09649336 0 0)
(-0.10299545 0 0)
(-0.10923241 0 0)
(-0.1151683 0 0)
(-0.12075647 0 0)
(-0.12595966 0 0)
(-0.13076307 0 0)
(-0.1351504 0 0)
(-0.13908043 0 0)
(-0.14251335 0 0)
(-0.14542939 0 0)
(-0.14779373 0 0)
(-0.14956536 0 0)
(-0.15074995 0 0)
(-0.15133879 0 0)
(-0.15124313 0 0)
(-0.15040592 0 0)
(-0.14885412 0 0)
(-0.14657469 0 0)
(-0.1434593 0 0)
(-0.13929787 0 0)
(-0.13402659 0 0)
(-0.12774379 0 0)
(-0.12043729 0 0)
(-0.11201994 0 0)
(-0.10242554 0 0)
(-0.091625581 0 0)
(-0.07954986 0 0)
(-0.066150831 0 0)
(-0.0514092 0 0)
(-0.035387904 0 0)
(-0.018242688 0 0)
(0 0 0)
(0.021513377 0 0)
(0.015937972 0 0)
(0.010070763 0 0)
(0.0039185808 0 0)
(-0.0025065841 0 0)
(-0.0091921157 0 0)
(-0.016120084 0 0)
(-0.023258662 0 0)
(-0.030559754 0 0)
(-0.037973107 0 0)
(-0.045452995 0 0)
(-0.052950983 0 0)
(-0.060418049 0 0)
(-0.067812043 0 0)
(-0.075099897 0 0)
(-0.082251714 0 0)
(-0.089234221 0 0)
(-0.0960122 0 0)
(-0.10255461 0 0)
(-0.10883384 0 0)
(-0.11481254 0 0)
(-0.12044418 0 0)
(-0.12569159 0 0)
(-0.13053856 0 0)
(-0.13496823 0 0)
(-0.13893962 0 0)
(-0.14241284 0 0)
(-0.14536843 0 0)
(-0.14776958 0 0)
(-0.14957607 0 0)
(-0.1507932 0 0)
(-0.15141237 0 0)
(-0.15134441 0 0)
(-0.15053224 0 0)
(-0.14900503 0 0)
(-0.1467475 0 0)
(-0.1436517 0 0)
(-0.13950533 0 0)
(-0.13424348 0 0)
(-0.1279661 0 0)
(-0.12066013 0 0)
(-0.11223608 0 0)
(-0.10262984 0 0)
(-0.091817436 0 0)
(-0.079721603 0 0)
(-0.066295174 0 0)
(-0.05152332 0 0)
(-0.03546653 0 0)
(-0.018282724 0 0)
(0 0 0)
(0.021632144 0 0)
(0.016176078 0 0)
(0.010419467 0 0)
(0.0043684245 0 0)
(-0.0019658025 0 0)
(-0.0085712703 0 0)
(-0.015431243 0 0)
(-0.022514541 0 0)
(-0.029774343 0 0)
(-0.037160796 0 0)
(-0.044626558 0 0)
(-0.052122623 0 0)
(-0.059598382 0 0)
(-0.067009447 0 0)
(-0.074321862 0 0)
(-0.081505822 0 0)
(-0.088527018 0 0)
(-0.095348755 0 0)
(-0.10193991 0 0)
(-0.10827163 0 0)
(-0.11430446 0 0)
(-0.11999085 0 0)
(-0.12529387 0 0)
(-0.13019695 0 0)
(-0.13468195 0 0)
(-0.13870674 0 0)
(-0.14223175 0 0)
(-0.14523866 0 0)
(-0.14768853 0 0)
(-0.14954065 0 0)
(-0.15080094 0 0)
(-0.15146092 0 0)
(-0.15143004 0 0)
(-0.15065132 0 0)
(-0.14915658 0 0)
(-0.14692841 0 0)
(-0.14385833 0 0)
(-0.139733 0 0)
(-0.13448678 0 0)
(-0.12821983 0 0)
(-0.12091743 0 0)
(-0.1124877 0 0)
(-0.10286985 0 0)
(-0.092044258 0 0)
(-0.079925447 0 0)
(-0.066467633 0 0)
(-0.051660407 0 0)
(-0.035561549 0 0)
(-0.01833157 0 0)
(0 0 0)
(0.021796783 0 0)
(0.016485115 0 0)
(0.010862735 0 0)
(0.0049346157 0 0)
(-0.001288998 0 0)
(-0.0077970241 0 0)
(-0.014573518 0 0)
(-0.021588929 0 0)
(-0.028796689 0 0)
(-0.036146424 0 0)
(-0.043591143 0 0)
(-0.05108069 0 0)
(-0.058562908 0 0)
(-0.06599177 0 0)
(-0.073332153 0 0)
(-0.080553433 0 0)
(-0.087619635 0 0)
(-0.094493139 0 0)
(-0.10114259 0 0)
(-0.107537 0 0)
(-0.11363492 0 0)
(-0.11938806 0 0)
(-0.12475921 0 0)
(-0.12973094 0 0)
(-0.13428396 0 0)
(-0.13837497 0 0)
(-0.14196412 0 0)
(-0.14503376 0 0)
(-0.14754443 0 0)
(-0.14945424 0 0)
(-0.15076842 0 0)
(-0.15147898 0 0)
(-0.15149481 0 0)
(-0.15075886 0 0)
(-0.1493042 0 0)
(-0.14711236 0 0)
(-0.14407503 0 0)
(-0.1399771 0 0)
(-0.13475226 0 0)
(-0.12850074 0 0)
(-0.1212058 0 0)
(-0.11277223 0 0)
(-0.10314274 0 0)
(-0.092303368 0 0)
(-0.080159489 0 0)
(-0.066666403 0 0)
(-0.051818891 0 0)
(-0.035672009 0 0)
(-0.018388821 0 0)
(0 0 0)
(0.022022499 0 0)
(0.016879406 0 0)
(0.011414054 0 0)
(0.0056299295 0 0)
(-0.0004641823 0 0)
(-0.0068580024 0 0)
(-0.013536406 0 0)
(-0.020470546 0 0)
(-0.027614539 0 0)
(-0.034917755 0 0)
(-0.042332941 0 0)
(-0.04981086 0 0)
(-0.057298487 0 0)
(-0.064746535 0 0)
(-0.072117914 0 0)
(-0.079381557 0 0)
(-0.086499893 0 0)
(-0.093433615 0 0)
(-0.1001507 0 0)
(-0.1066188 0 0)
(-0.11279379 0 0)
(-0.11862577 0 0)
(-0.12407745 0 0)
(-0.12913125 0 0)
(-0.13376621 0 0)
(-0.13793649 0 0)
(-0.14160183 0 0)
(-0.14474665 0 0)
(-0.14733053 0 0)
(-0.14930973 0 0)
(-0.15068899 0 0)
(-0.15146074 0 0)
(-0.15153312 0 0)
(-0.15084893 0 0)
(-0.14944265 0 0)
(-0.14729412 0 0)
(-0.14429568 0 0)
(-0.14023185 0 0)
(-0.13503525 0 0)
(-0.1288046 0 0)
(-0.12152056 0 0)
(-0.11308496 0 0)
(-0.10344482 0 0)
(-0.092591545 0 0)
(-0.080420549 0 0)
(-0.066889135 0 0)
(-0.05199715 0 0)
(-0.035796713 0 0)
(-0.018453803 0 0)
(0 0 0)
(0.022326411 0 0)
(0.017373781 0 0)
(0.012086321 0 0)
(0.0064658186 0 0)
(0.00051892063 0 0)
(-0.0057441882 0 0)
(-0.012306843 0 0)
(-0.019141934 0 0)
(-0.026208033 0 0)
(-0.033455714 0 0)
(-0.040836966 0 0)
(-0.048299963 0 0)
(-0.055790256 0 0)
(-0.063257128 0 0)
(-0.070662907 0 0)
(-0.077974807 0 0)
(-0.085152491 0 0)
(-0.09215518 0 0)
(-0.098950859 0 0)
(-0.1055044 0 0)
(-0.11176843 0 0)
(-0.11769202 0 0)
(-0.12323777 0 0)
(-0.1283875 0 0)
(-0.13311842 0 0)
(-0.13738173 0 0)
(-0.14113638 0 0)
(-0.14436851 0 0)
(-0.14703821 0 0)
(-0.14909971 0 0)
(-0.15055571 0 0)
(-0.15139871 0 0)
(-0.15153762 0 0)
(-0.15091529 0 0)
(-0.14956536 0 0)
(-0.14746658 0 0)
(-0.14451385 0 0)
(-0.14049138 0 0)
(-0.13532968 0 0)
(-0.1291253 0 0)
(-0.12185632 0 0)
(-0.1134213 0 0)
(-0.10377152 0 0)
(-0.092904652 0 0)
(-0.080705348 0 0)
(-0.067132932 0 0)
(-0.052192829 0 0)
(-0.035934226 0 0)
(-0.018525865 0 0)
(0 0 0)
(0.022730854 0 0)
(0.017987689 0 0)
(0.01289693 0 0)
(0.0074589255 0 0)
(0.0016786248 0 0)
(-0.0044319439 0 0)
(-0.010858224 0 0)
(-0.017576306 0 0)
(-0.024549989 0 0)
(-0.031733944 0 0)
(-0.039076058 0 0)
(-0.046520632 0 0)
(-0.054011435 0 0)
(-0.061498532 0 0)
(-0.068943352 0 0)
(-0.076310898 0 0)
(-0.083558362 0 0)
(-0.090641368 0 0)
(-0.097526461 0 0)
(-0.1041779 0 0)
(-0.11054487 0 0)
(-0.11657394 0 0)
(-0.12222766 0 0)
(-0.12748827 0 0)
(-0.13233087 0 0)
(-0.13670194 0 0)
(-0.14055907 0 0)
(-0.14389157 0 0)
(-0.14666003 0 0)
(-0.14881678 0 0)
(-0.15036154 0 0)
(-0.15128647 0 0)
(-0.15150224 0 0)
(-0.15095179 0 0)
(-0.14966663 0 0)
(-0.14762376 0 0)
(-0.14472253 0 0)
(-0.14074877 0 0)
(-0.1356298 0 0)
(-0.1294572 0 0)
(-0.12220682 0 0)
(-0.11377517 0 0)
(-0.10411781 0 0)
(-0.09323796 0 0)
(-0.081009477 0 0)
(-0.067394394 0 0)
(-0.052403512 0 0)
(-0.036082891 0 0)
(-0.018604091 0 0)
(0 0 0)
(0.022159567 0 0)
(0.017624974 0 0)
(0.012737282 0 0)
(0.0074943287 0 0)
(0.0019033216 0 0)
(-0.0040281766 0 0)
(-0.010288511 0 0)
(-0.016853578 0 0)
(-0.023692185 0 0)
(-0.030765388 0 0)
(-0.038019373 0 0)
(-0.045396022 0 0)
(-0.052837505 0 0)
(-0.060294396 0 0)
(-0.067728239 0 0)
(-0.075102318 0 0)
(-0.082370435 0 0)
(-0.089485227 0 0)
(-0.096413282 0 0)
(-0.10311847 0 0)
(-0.10954744 0 0)
(-0.115644 0 0)
(-0.12136954 0 0)
(-0.12670663 0 0)
(-0.13162956 0 0)
(-0.13608096 0 0)
(-0.1400163 0 0)
(-0.14342646 0 0)
(-0.14627372 0 0)
(-0.14850847 0 0)
(-0.15012702 0 0)
(-0.15112099 0 0)
(-0.15140389 0 0)
(-0.15091717 0 0)
(-0.1496897 0 0)
(-0.14769789 0 0)
(-0.14484511 0 0)
(-0.14092057 0 0)
(-0.13584527 0 0)
(-0.1297081 0 0)
(-0.12248238 0 0)
(-0.11406177 0 0)
(-0.10440405 0 0)
(-0.093519494 0 0)
(-0.081271717 0 0)
(-0.067623165 0 0)
(-0.052591192 0 0)
(-0.03621821 0 0)
(-0.018678086 0 0)
(0 0 0)
(0.021256249 0 0)
(0.015463114 0 0)
(0.009396644 0 0)
(0.0030646302 0 0)
(-0.003519685 0 0)
(-0.010341831 0 0)
(-0.017380997 0 0)
(-0.024602092 0 0)
(-0.031953767 0 0)
(-0.039384681 0 0)
(-0.046854104 0 0)
(-0.054319746 0 0)
(-0.061737182 0 0)
(-0.069069613 0 0)
(-0.076286736 0 0)
(-0.083356059 0 0)
(-0.09024508 0 0)
(-0.096920874 0 0)
(-0.10335234 0 0)
(-0.1095202 0 0)
(-0.11538849 0 0)
(-0.12091027 0 0)
(-0.12604937 0 0)
(-0.13079282 0 0)
(-0.13512231 0 0)
(-0.13899693 0 0)
(-0.14237772 0 0)
(-0.14524078 0 0)
(-0.14756052 0 0)
(-0.14929306 0 0)
(-0.15044178 0 0)
(-0.15099681 0 0)
(-0.15087172 0 0)
(-0.15001053 0 0)
(-0.14842995 0 0)
(-0.14612677 0 0)
(-0.14299296 0 0)
(-0.13882186 0 0)
(-0.13355323 0 0)
(-0.12728206 0 0)
(-0.11999423 0 0)
(-0.11160331 0 0)
(-0.10204088 0 0)
(-0.091271467 0 0)
(-0.079239199 0 0)
(-0.065895243 0 0)
(-0.051210571 0 0)
(-0.03525461 0 0)
(-0.018177842 0 0)
(0 0 0)
(0.02133272 0 0)
(0.015554255 0 0)
(0.0095003555 0 0)
(0.0031786704 0 0)
(-0.0033977759 0 0)
(-0.010214746 0 0)
(-0.017252207 0 0)
(-0.02447495 0 0)
(-0.031832155 0 0)
(-0.039273528 0 0)
(-0.046756113 0 0)
(-0.054236266 0 0)
(-0.061669345 0 0)
(-0.069017669 0 0)
(-0.076250085 0 0)
(-0.083334552 0 0)
(-0.090239389 0 0)
(-0.096931689 0 0)
(-0.10337955 0 0)
(-0.10956192 0 0)
(-0.11544388 0 0)
(-0.12097845 0 0)
(-0.12612866 0 0)
(-0.13088139 0 0)
(-0.13521988 0 0)
(-0.13910278 0 0)
(-0.14249027 0 0)
(-0.14536066 0 0)
(-0.1476853 0 0)
(-0.14942078 0 0)
(-0.15057177 0 0)
(-0.15112917 0 0)
(-0.15100562 0 0)
(-0.15014436 0 0)
(-0.14856606 0 0)
(-0.14626413 0 0)
(-0.14312994 0 0)
(-0.13895631 0 0)
(-0.13368193 0 0)
(-0.12740246 0 0)
(-0.12010503 0 0)
(-0.11170418 0 0)
(-0.10213178 0 0)
(-0.091353312 0 0)
(-0.079309273 0 0)
(-0.065951391 0 0)
(-0.051253246 0 0)
(-0.035282256 0 0)
(-0.01819042 0 0)
(0 0 0)
(0.021370485 0 0)
(0.015633435 0 0)
(0.0096172621 0 0)
(0.0033294525 0 0)
(-0.0032172018 0 0)
(-0.010008955 0 0)
(-0.017026179 0 0)
(-0.024234806 0 0)
(-0.031584809 0 0)
(-0.039025337 0 0)
(-0.046513158 0 0)
(-0.054002904 0 0)
(-0.06144822 0 0)
(-0.068810676 0 0)
(-0.076058581 0 0)
(-0.083160727 0 0)
(-0.090085134 0 0)
(-0.096798351 0 0)
(-0.10326922 0 0)
(-0.10947399 0 0)
(-0.11537727 0 0)
(-0.12093317 0 0)
(-0.12610426 0 0)
(-0.13087631 0 0)
(-0.13523303 0 0)
(-0.1391336 0 0)
(-0.14253826 0 0)
(-0.14542573 0 0)
(-0.14776446 0 0)
(-0.14951279 0 0)
(-0.15067546 0 0)
(-0.15124348 0 0)
(-0.15112922 0 0)
(-0.15027594 0 0)
(-0.14870701 0 0)
(-0.14641258 0 0)
(-0.14328468 0 0)
(-0.13911433 0 0)
(-0.13383869 0 0)
(-0.12755511 0 0)
(-0.12025166 0 0)
(-0.11184224 0 0)
(-0.10225903 0 0)
(-0.091470404 0 0)
(-0.079412137 0 0)
(-0.066035944 0 0)
(-0.051318898 0 0)
(-0.035326329 0 0)
(-0.018211879 0 0)
(0 0 0)
(0.021428942 0 0)
(0.015759733 0 0)
(0.0098059094 0 0)
(0.0035747281 0 0)
(-0.002921351 0 0)
(-0.0096690681 0 0)
(-0.016649756 0 0)
(-0.02383007 0 0)
(-0.031161135 0 0)
(-0.038592807 0 0)
(-0.046079785 0 0)
(-0.053575328 0 0)
(-0.061032346 0 0)
(-0.068410224 0 0)
(-0.075676462 0 0)
(-0.082800863 0 0)
(-0.089751263 0 0)
(-0.09649336 0 0)
(-0.10299545 0 0)
(-0.10923241 0 0)
(-0.1151683 0 0)
(-0.12075647 0 0)
(-0.12595966 0 0)
(-0.13076307 0 0)
(-0.1351504 0 0)
(-0.13908043 0 0)
(-0.14251335 0 0)
(-0.14542939 0 0)
(-0.14779373 0 0)
(-0.14956536 0 0)
(-0.15074995 0 0)
(-0.15133879 0 0)
(-0.15124313 0 0)