/*--------------------------------*- C++ -*----------------------------------*\
| =========                 |                                                 |
| \\      /  F ield         | OpenFOAM: The Open Source CFD Toolbox           |
|  \\    /   O peration     | Version:  v2012                                 |
|   \\  /    A nd           | Website:  www.openfoam.com                      |
|    \\/     M anipulation  |                                                 |
\*---------------------------------------------------------------------------*/
FoamFile
{
    version     2.0;
    format      ascii;
    class       volVectorField;
    location    "41.9635860759583679";
    object      U;
}
// * * * * * * * * * * * * * * * * * * * * * * * * * * * * * * * * * * * * * //

dimensions      [0 1 -1 0 0 0 0];


internalField   nonuniform List<vector> 
9200
(
(2.572813 -0.0010570235 3.2843813e-21)
(2.5734339 -0.003362826 3.4614398e-21)
(2.5759618 -0.00095732705 3.2231921e-21)
(2.5743721 -0.0052890162 -4.6862206e-23)
(2.5765926 -0.0033422658 -2.5561763e-22)
(2.5774416 -0.00091861479 0)
(2.5756325 -0.0072846815 -5.6913655e-21)
(2.577534 -0.0051987315 3.1049858e-21)
(2.5781086 -0.0034088764 -5.9120634e-21)
(2.5793709 -0.00084537668 1.6266021e-23)
(2.5770455 -0.0089159995 2.6082869e-21)
(2.5787684 -0.0072889394 -3.9952897e-21)
(2.5791117 -0.005281106 -2.0033951e-22)
(2.5800944 -0.0033569062 1.2584445e-21)
(2.5810178 -0.00075548387 -7.5412248e-24)
(2.5785874 -0.010520929 8.1257435e-23)
(2.5801001 -0.0090604082 -2.9452017e-22)
(2.5804524 -0.0075137861 1.9422036e-21)
(2.5812017 -0.0051895375 -5.4956577e-21)
(2.5818257 -0.0032115176 2.4003808e-21)
(2.5825333 -0.00064421676 8.0107566e-21)
(2.5801214 -0.011790003 9.8977702e-22)
(2.5814944 -0.010913133 3.224136e-22)
(2.5818966 -0.0094785021 1.3419814e-21)
(2.5827113 -0.007501819 4.0918665e-21)
(2.5830778 -0.0049612321 2.585596e-21)
(2.5834448 -0.0029418154 1.6930461e-21)
(2.5838115 -0.00051813301 -3.5940267e-21)
(2.5816152 -0.012876677 -3.9529558e-21)
(2.582757 -0.012526303 1.1975809e-21)
(2.5834006 -0.011633412 -2.8928417e-21)
(2.5843544 -0.0096068838 -4.160269e-21)
(2.584825 -0.0072820745 -3.4405823e-23)
(2.5848664 -0.0045321295 5.2004055e-21)
(2.5848314 -0.0025580294 3.0148219e-21)
(2.5848384 -0.00038430028 -1.4413739e-20)
(2.5830017 -0.013622273 9.4121502e-23)
(2.5838467 -0.014043526 -2.2183828e-21)
(2.5847456 -0.013662897 -9.4162006e-22)
(2.5860864 -0.01202623 1.9513943e-21)
(2.5867769 -0.0094534772 -3.6543775e-21)
(2.5868895 -0.0067507031 -1.7273002e-21)
(2.5864266 -0.0039068376 1.8728283e-22)
(2.5859519 -0.0020777217 -9.8829587e-21)
(2.5856 -0.00024719339 3.4692781e-21)
(2.5842706 -0.014071899 6.8888527e-22)
(2.5846391 -0.01530126 -6.9772629e-22)
(2.5858537 -0.015728136 -3.4189781e-21)
(2.5876664 -0.014464362 -1.8513361e-21)
(2.5888998 -0.012053415 2.8936059e-21)
(2.5892198 -0.00886084 9.0050283e-21)
(2.5887327 -0.0059042328 -3.3311668e-22)
(2.5877062 -0.0031120928 3.7510267e-21)
(2.5867669 -0.0015315321 8.5475666e-22)
(2.5860977 -8.4736249e-05 1.0344104e-20)
(2.5854346 -0.014124876 -1.5843572e-21)
(2.5850877 -0.016274089 1.9903938e-21)
(2.5865636 -0.017667399 1.551483e-21)
(2.5889933 -0.017116714 -1.6169305e-21)
(2.5909494 -0.014813312 -4.5576478e-23)
(2.5918456 -0.011483652 -1.1564832e-21)
(2.5914668 -0.0078061107 -4.8253627e-21)
(2.5902683 -0.0047778451 -9.0420251e-22)
(2.5886521 -0.0022010217 -3.8902316e-21)
(2.5872796 -0.00096402778 6.4022211e-21)
(2.5863069 0.0001133996 1.405694e-20)
(2.5864851 -0.013763973 -5.886765e-22)
(2.5851775 -0.016810176 -2.5271704e-21)
(2.5867796 -0.019472981 3.1876244e-21)
(2.5898686 -0.01986489 -4.8921282e-21)
(2.5928212 -0.017971705 4.0595393e-21)
(2.5945374 -0.014376024 2.4280812e-21)
(2.5946481 -0.010257511 -7.3290221e-21)
(2.5933791 -0.0063273261 -3.5221864e-21)
(2.5914129 -0.003453148 1.9578816e-21)
(2.5892482 -0.0012407255 -1.1061292e-20)
(2.5875223 -0.00042113279 -1.2056225e-20)
(2.5863057 0.00024732895 -7.2083727e-21)
(2.5875566 -0.012989367 1.5025316e-21)
(2.5849041 -0.016895696 -3.1761604e-21)
(2.5863996 -0.021033296 1.3150873e-21)
(2.5901466 -0.022731652 0)
(2.5943025 -0.021467066 -1.7838411e-21)
(2.5972114 -0.017821682 -1.1816091e-22)
(2.5980788 -0.013030766 1.649199e-21)
(2.5970917 -0.008407872 -1.694821e-22)
(2.5948252 -0.0045342304 5.0946125e-21)
(2.5921307 -0.0020382934 -5.8805553e-21)
(2.5895033 -0.00030687576 -6.0667283e-21)
(2.5875238 7.2173108e-05 6.0064468e-22)
(2.5861446 0.00032401307 -1.1598732e-20)
(2.5887656 -0.011766857 1.1846613e-21)
(2.584283 -0.016323787 -1.6874133e-21)
(2.5853047 -0.022220565 -5.090551e-21)
(2.5896532 -0.025621164 7.5845392e-22)
(2.5952254 -0.025374814 -4.1614566e-21)
(2.5996703 -0.021814009 3.7770117e-21)
(2.6017161 -0.016442942 1.685439e-21)
(2.6012502 -0.010790783 2.0767846e-21)
(2.5989718 -0.0060744193 6.082396e-21)
(2.5957329 -0.002581538 9.7029268e-23)
(2.5924289 -0.00064894371 -1.6408112e-21)
(2.5894559 0.00053093796 2.2040824e-21)
(2.5873104 0.00048950952 8.2649489e-21)
(2.5858436 0.00042089619 2.119314e-21)
(2.5902082 -0.010056233 -1.984366e-21)
(2.5833665 -0.014973191 6.4752684e-22)
(2.5834306 -0.022896767 3.9424185e-21)
(2.5882223 -0.028476986 4.3322623e-22)
(2.5953688 -0.029686635 2.5150864e-21)
(2.601766 -0.026486864 -5.7302853e-21)
(2.6054066 -0.020527188 7.2623532e-21)
(2.6058674 -0.013805298 -4.3411139e-21)
(2.6037411 -0.0078241019 -3.626302e-21)
(2.6001594 -0.0034699713 2.2265237e-22)
(2.5960875 -0.00064105953 2.09244e-21)
(2.5923512 0.00061139536 -2.9500425e-21)
(2.5891732 0.0012272715 6.4563861e-21)
(2.5869416 0.00080084978 -9.5890548e-24)
(2.5854645 0.00049907472 -5.0767209e-21)
(2.591981 -0.0078513898 0)
(2.5822454 -0.012672236 3.6564004e-21)
(2.5807142 -0.022887805 2.9793177e-21)
(2.5856633 -0.031208381 2.5575315e-21)
(2.5945816 -0.034405294 -2.7402865e-21)
(2.6032813 -0.031922492 -4.3809474e-21)
(2.6090504 -0.025472183 7.7305256e-21)
(2.6108526 -0.017502417 -1.5907956e-21)
(2.609203 -0.010098061 1.0939168e-21)
(2.6053332 -0.0044146919 -3.8332311e-21)
(2.6006125 -0.00084105238 -4.5195104e-22)
(2.5959349 0.0011273879 -1.8361214e-22)
(2.5919615 0.001663481 -1.9758454e-21)
(2.5887232 0.0017566003 2.2769649e-21)
(2.586485 0.0010051232 0)
(2.5850401 0.00054330022 5.9077045e-21)
(2.594195 -0.0051754458 5.2944103e-22)
(2.5810084 -0.0092721795 5.9906312e-21)
(2.5770864 -0.022020141 -8.3266341e-21)
(2.5818347 -0.033682196 1.4468892e-21)
(2.5925838 -0.039524398 4.7498699e-22)
(2.6040785 -0.038197573 3.437701e-21)
(2.6124865 -0.031422802 -3.5253161e-21)
(2.6161768 -0.02210275 5.7864401e-22)
(2.6153383 -0.012935727 -1.8173765e-21)
(2.6113716 -0.0056892377 5.7749199e-21)
(2.6059306 -0.00091026235 -2.9020938e-21)
(2.6003788 0.0015768919 5.1911272e-21)
(2.5953717 0.0025996702 -4.4077072e-21)
(2.5913448 0.0024566169 9.6303347e-21)
(2.5881653 0.0021070091 3.1842085e-23)
(2.5859894 0.0011183978 1.1815561e-20)
(2.5846048 0.00055501848 -8.3033898e-22)
(2.5970124 -0.0020004102 -2.5495278e-21)
(2.5797398 -0.0046362308 -9.4505556e-21)
(2.5724991 -0.020112549 -1.6772012e-20)
(2.576564 -0.035770041 -8.0538431e-21)
(2.5891833 -0.045008562 -1.8983222e-21)
(2.6038877 -0.04538521 -6.915451e-21)
(2.6155964 -0.038530575 -4.1525762e-21)
(2.6217657 -0.027786896 1.1045249e-20)
(2.622202 -0.016552624 -7.498849e-21)
(2.6183164 -0.0072875296 7.422753e-23)
(2.6121924 -0.0010605577 -2.4813541e-21)
(2.6055757 0.0023426452 -4.8562458e-21)
(2.5995757 0.0035957852 1.9767842e-21)
(2.5945168 0.003700393 2.6577965e-22)
(2.5905952 0.0029726778 -8.7544431e-21)
(2.5875617 0.00228197 -3.1345178e-21)
(2.5854948 0.0011437791 -9.1755283e-22)
(2.5841922 0.00053911111 -2.0802928e-21)
(2.6006048 0.0016439102 1.2252277e-21)
(2.5785756 0.0014485777 -3.196824e-21)
(2.5669066 -0.016943942 4.9360819e-21)
(2.5696752 -0.037340835 1.3182803e-20)
(2.584163 -0.0508126 7.055185e-21)
(2.6025183 -0.053552244 8.1714231e-22)
(2.6181845 -0.046943344 8.6456509e-23)
(2.6275574 -0.034764714 -3.8468475e-21)
(2.6298233 -0.021133392 3.7425799e-21)
(2.6263028 -0.0093759252 2.0699027e-21)
(2.6194671 -0.0012133906 1.6850111e-21)
(2.611689 0.0032856244 -6.128636e-21)
(2.6044302 0.0050590825 4.8000534e-21)
(2.598368 0.0050952742 -1.0534172e-20)
(2.5934918 0.0044005874 7.7553765e-21)
(2.589796 0.0032196475 4.531296e-21)
(2.586967 0.0022963641 6.3592918e-21)
(2.5850331 0.0010816548 -1.1533e-20)
(2.5838299 0.00050136774 2.8086244e-21)
(2.6048911 0.0057260784 -6.186562e-22)
(2.5777584 0.0091036397 9.3966636e-21)
(2.5602846 -0.012312153 1.6616173e-20)
(2.560993 -0.038230605 1.7258286e-20)
(2.5773038 -0.056895319 5.3209133e-21)
(2.5997593 -0.062744637 9.1168949e-21)
(2.6200862 -0.056805884 -2.2626632e-21)
(2.6334546 -0.043253109 3.6913639e-21)
(2.6382456 -0.026909625 -5.8993867e-22)
(2.6354603 -0.012092397 -7.811533e-21)
(2.6279414 -0.0014470613 4.4314592e-21)
(2.6187711 0.0045616443 -1.0453158e-22)
(2.6100711 0.006921577 6.3623121e-21)
(2.602729 0.0070563921 -2.098982e-22)
(2.5969352 0.0060287041 5.7808415e-21)
(2.5924105 0.0047108538 -6.0448524e-21)
(2.589016 0.003222961 6.7554324e-21)
(2.5864196 0.0021739655 -1.1386136e-21)
(2.5846269 0.00095073718 -3.6446849e-21)
(2.5835248 0.00044960603 -3.2718381e-21)
(2.6083146 0.010152068 7.1804671e-21)
(2.5771311 0.018408446 -1.0533853e-20)
(2.552705 -0.0060250591 -2.8980948e-20)
(2.5503466 -0.038307764 -3.0616149e-20)
(2.5683986 -0.063204692 -1.4212126e-21)
(2.5954083 -0.072998444 3.1860655e-22)
(2.6211192 -0.068241732 1.3935732e-21)
(2.6393466 -0.053466282 1.4767943e-21)
(2.6474977 -0.03414453 -2.8923166e-21)
(2.6459594 -0.015625181 6.1485301e-21)
(2.6378095 -0.001797365 -3.7950809e-21)
(2.6270109 0.0062018035 -6.910376e-21)
(2.616505 0.0093979377 2.9740146e-22)
(2.6076766 0.0095657284 8.3795455e-21)
(2.6007288 0.0082639488 1.2889345e-21)
(2.5954406 0.0064123744 4.6475069e-21)
(2.5913673 0.0046707235 -2.0347029e-21)
(2.5883072 0.0030199102 -9.0976772e-21)
(2.5859436 0.0019460941 -9.3795886e-21)
(2.5842893 0.00078416346 2.5268154e-22)
(2.5832743 0.00039836479 7.9735338e-21)
(2.6110493 0.015531228 1.3299124e-22)
(2.5734629 0.02972242 2.435968e-21)
(2.5432527 0.0020805751 1.3832334e-20)
(2.5376837 -0.037414821 1.2014594e-20)
(2.5572459 -0.069713258 -9.0888585e-21)
(2.5892851 -0.084332225 1.1375102e-21)
(2.6211046 -0.081339252 -4.4680757e-22)
(2.645095 -0.06561072 5.7094019e-21)
(2.6575853 -0.043115999 5.2019895e-23)
(2.6579811 -0.020213508 -6.9755996e-21)
(2.6493358 -0.0023336778 -3.5040078e-21)
(2.6366026 0.008299696 7.3434708e-21)
(2.6238662 0.012619586 -9.1459467e-21)
(2.6131567 0.01286879 -2.1708522e-21)
(2.604886 0.011111836 -1.8384447e-21)
(2.5986649 0.0087086123 -4.1681999e-21)
(2.5940159 0.0063071152 -5.7434373e-21)
(2.590432 0.0043378649 5.7676349e-21)
(2.5877048 0.0026561343 -3.5451368e-21)
(2.5855567 0.0016479323 3.7213986e-21)
(2.5840257 0.00061239048 3.5626733e-21)
(2.5830938 0.00036032402 -5.8145778e-22)
(2.618436 0.022401471 -1.2474263e-20)
(2.5632024 0.044050164 -1.0553158e-20)
(2.5274514 0.012319467 4.6869539e-20)
(2.5220503 -0.035450467 1.7517473e-20)
(2.5437461 -0.076378567 -9.8807763e-21)
(2.5812263 -0.096759859 2.1524964e-20)
(2.6198766 -0.096162116 -1.3434458e-20)
(2.6505372 -0.079852188 6.9498143e-22)
(2.668485 -0.054129038 1.7657392e-22)
(2.6717121 -0.026126488 2.3567157e-21)
(2.6628235 -0.0031691212 8.0606276e-22)
(2.6478202 0.010949094 2.8728418e-22)
(2.6322775 0.016791399 4.1339481e-21)
(2.6192093 0.017153967 6.3404889e-21)
(2.6092874 0.014813628 -1.5673937e-21)
(2.6020434 0.011605433 -3.890024e-21)
(2.5967228 0.0084847668 7.7213911e-22)
(2.592755 0.0057998017 -1.3638189e-22)
(2.5896505 0.0037796103 -2.7836362e-21)
(2.5872305 0.0021815821 2.5104716e-22)
(2.5852719 0.0013124919 3.4955256e-21)
(2.5838379 0.00042790386 -6.6369278e-24)
(2.5829643 0.00032896186 -7.8835057e-21)
(2.635337 0.028213745 -5.8670053e-21)
(2.5634983 0.061732492 9.2259967e-21)
(2.5042129 0.025111989 -1.3493934e-20)
(2.4991736 -0.032454902 -1.3519598e-20)
(2.5273455 -0.083191556 -1.6180012e-20)
(2.5711499 -0.11028039 -1.884918e-21)
(2.6172836 -0.11272591 4.2747724e-21)
(2.6554831 -0.096327534 -3.6459896e-22)
(2.680119 -0.067483369 1.6433562e-20)
(2.6873439 -0.033706017 -6.7477184e-21)
(2.6786279 -0.0044257924 -4.2417587e-22)
(2.6609916 0.014235406 1.3587863e-20)
(2.6419257 0.022157885 5.0141728e-21)
(2.6258401 0.022683917 -1.0209662e-20)
(2.6138743 0.01956309 7.1045838e-21)
(2.6054025 0.015311594 -1.656164e-21)
(2.5994103 0.011195703 -1.990912e-21)
(2.5950283 0.0077232726 8.587446e-21)
(2.5917161 0.0049883125 0)
(2.5890481 0.0030666311 1.423574e-22)
(2.586894 0.0016454766 9.0452041e-21)
(2.5850891 0.00096716558 5.7274587e-24)
(2.5837232 0.00024311977 4.4592463e-21)
(2.5828794 0.00029791508 2.468163e-20)
(2.6624842 0.029906532 3.5122456e-21)
(2.5987564 0.078830033 6.7001543e-21)
(2.4949601 0.039607439 -5.6568514e-20)
(2.4683785 -0.028863306 -3.6786783e-20)
(2.5054077 -0.090480862 2.5832371e-21)
(2.5589178 -0.12487861 -2.3851088e-21)
(2.6132171 -0.13101115 3.2355292e-21)
(2.6597251 -0.11510489 1.480452e-21)
(2.6923521 -0.083476752 -1.5782011e-20)
(2.7050248 -0.043334919 -2.8687507e-21)
(2.6971506 -0.0063180449 9.262853e-21)
(2.6765225 0.018275255 8.0427148e-21)
(2.6530362 0.028997769 6.0504786e-21)
(2.6330811 0.029784447 6.6208241e-21)
(2.6185297 0.025612766 -2.5206886e-22)
(2.6086082 0.019984208 -1.1480844e-21)
(2.601873 0.014600422 2.097343e-21)
(2.5971529 0.010081863 -8.4908046e-22)
(2.593652 0.0065663093 -1.3430758e-22)
(2.5909272 0.003971208 0)
(2.5886335 0.0022680974 5.486913e-23)
(2.5866937 0.0010935268 -1.085479e-21)
(2.5849963 0.00063666562 -3.7322602e-24)
(2.5836725 8.9541517e-05 4.4615257e-21)
(2.5828276 0.00027423306 7.9878755e-22)
(2.696418 0.025727736 2.3920764e-20)
(2.6636729 0.09041814 6.8457121e-21)
(2.5304247 0.054959083 -5.2746754e-20)
(2.4548101 -0.024175097 -5.6983097e-20)
(2.4765312 -0.099114441 3.7196972e-20)
(2.5436615 -0.1407619 3.9346393e-21)
(2.6076252 -0.15093302 -3.567429e-21)
(2.6630391 -0.13620107 -8.8351524e-21)
(2.7049801 -0.10237033 -2.0281084e-21)
(2.7248858 -0.055453295 6.8043956e-21)
(2.718817 -0.0090814832 -1.3133165e-20)
(2.6948786 0.023135925 8.0022326e-22)
(2.6658965 0.037656058 2.8599455e-21)
(2.6409612 0.038837114 -8.0410246e-21)
(2.6231221 0.033272978 2.0999552e-21)
(2.6114527 0.025808974 4.5553406e-21)
(2.6039371 0.018797732 -8.2789991e-22)
(2.5989151 0.012985692 -3.7372314e-21)
(2.5953518 0.0084710254 4.4655915e-21)
(2.5926215 0.0051509184 -1.0226209e-20)
(2.5903944 0.0028416543 -3.909139e-22)
(2.5884026 0.001448043 -8.231126e-21)
(2.5866181 0.00056870318 -1.5550222e-21)
(2.5849787 0.00034705278 9.8956569e-21)
(2.5836727 -2.2386394e-05 -7.356902e-21)
(2.5827953 0.00026185676 -2.2097438e-20)
(2.7331785 0.01501773 -3.7736178e-21)
(2.7450918 0.096590038 1.0466727e-19)
(2.6030188 0.071043181 6.0729915e-20)
(2.4715422 -0.016897352 5.3145224e-20)
(2.4514597 -0.10813224 -1.033354e-19)
(2.5242455 -0.15848978 -2.932476e-20)
(2.6004309 -0.1724147 -1.3026361e-20)
(2.665205 -0.15954207 -1.5808552e-20)
(2.7177095 -0.12438378 1.1472287e-20)
(2.7469818 -0.070564893 -7.6439238e-21)
(2.7440929 -0.01303081 5.4409011e-21)
(2.7166238 0.028913951 -8.8399798e-23)
(2.6808427 0.048516962 -3.5227148e-21)
(2.649519 0.050318405 -8.131578e-21)
(2.6274708 0.042897368 -7.9821382e-21)
(2.6136878 0.033002937 -2.6336386e-21)
(2.605355 0.023879981 -8.8132804e-21)
(2.6001369 0.016474531 -4.343584e-21)
(2.596612 0.010770774 -3.5133183e-21)
(2.5940251 0.0065522882 2.7279338e-21)
(2.5919346 0.0036001632 -2.8233007e-21)
(2.5901078 0.0016839743 -1.0164815e-22)
(2.5883405 0.00066334054 9.7143474e-21)
(2.586652 0.00010816668 9.377657e-21)
(2.5850191 0.00012418486 -7.2674189e-22)
(2.5837078 -7.4389209e-05 -4.5932117e-21)
(2.5827728 0.00026109353 -2.8090939e-21)
(2.7697674 -0.00081225081 -1.5365268e-21)
(2.8329403 0.09797472 2.5279621e-20)
(2.6950613 0.086279239 1.1991794e-19)
(2.5266706 -0.0041765302 -1.9903984e-20)
(2.4536823 -0.11368617 1.3908389e-20)
(2.499579 -0.17837192 -5.7806231e-20)
(2.591238 -0.1955377 9.671961e-21)
(2.6660339 -0.18499379 -1.1590443e-20)
(2.730145 -0.14965457 -1.272277e-20)
(2.7712755 -0.08920373 -1.1342901e-20)
(2.7734292 -0.018591105 7.3677602e-21)
(2.7423571 0.035661853 -6.7974881e-21)
(2.6982975 0.062020771 5.3363994e-21)
(2.6587945 0.064781453 -1.3350275e-21)
(2.631345 0.054922199 -1.3643001e-21)
(2.6149896 0.041786359 7.9433053e-23)
(2.6058355 0.029937226 -4.9895513e-21)
(2.6005805 0.020550868 -1.6049394e-21)
(2.5972764 0.013460622 1.3264441e-21)
(2.5949548 0.0082164802 3.9920596e-21)
(2.5931515 0.0044849804 -3.9176868e-21)
(2.5915709 0.0020195366 1.0240894e-20)
(2.5900481 0.00057100321 -4.2423278e-21)
(2.5884243 -3.7013655e-05 1.664728e-20)
(2.5867783 -0.00025869266 -1.0685264e-20)
(2.5851042 -1.2624928e-05 -9.8372636e-21)
(2.5837588 -9.3560271e-05 -1.0471413e-20)
(2.582751 0.00027527592 -2.7990931e-21)
(2.8038581 -0.020280184 1.7207738e-21)
(2.9203085 0.093879585 -7.2777126e-20)
(2.7952681 0.10008044 -4.1013579e-21)
(2.6049721 0.014237099 -4.1025298e-20)
(2.4746891 -0.11238411 1.0976562e-19)
(2.4809861 -0.19728873 1.3076222e-20)
(2.5799272 -0.22052512 5.0405772e-20)
(2.6654018 -0.21231649 -4.4890204e-22)
(2.7418038 -0.1782311 9.9259623e-22)
(2.7976196 -0.1119359 -5.807021e-21)
(2.8072599 -0.026192239 1.2346152e-20)
(2.7727389 0.043370406 1.6283289e-21)
(2.7187142 0.078649364 6.5889014e-24)
(2.6688357 0.082886781 8.5971106e-21)
(2.6344481 0.069849958 4.2334983e-21)
(2.6149498 0.052414798 3.6794332e-21)
(2.605013 0.037015413 1.9182718e-21)
(2.5999804 0.025187028 3.9434752e-21)
(2.5971532 0.01647739 3.2907772e-21)
(2.5952904 0.010115522 1.7603925e-21)
(2.5938841 0.0055259051 3.2608012e-22)
(2.5926906 0.0023964167 -1.3873781e-21)
(2.5914994 0.00049651406 1.5086926e-21)
(2.5901913 -0.00043665221 -6.4511383e-21)
(2.5886338 -0.000613719 -2.2053092e-20)
(2.5869728 -0.00050850993 -4.1566435e-21)
(2.5852164 -5.6911432e-05 0)
(2.5838088 -7.6786883e-05 9.5572372e-22)
(2.5827134 0.0003019078 0)
(2.8347925 -0.041846655 -9.4844982e-22)
(3.0019612 0.083661772 4.1170622e-23)
(2.8963432 0.11252461 -4.2721873e-20)
(2.6949432 0.036672682 1.468675e-19)
(2.5161542 -0.10326208 -1.7489644e-21)
(2.4780108 -0.21154565 2.9692422e-20)
(2.5652862 -0.24719989 1.445678e-22)
(2.6635597 -0.24141649 -2.1733332e-21)
(2.7525293 -0.21002453 -3.2629209e-21)
(2.8258948 -0.13943059 1.2921962e-20)
(2.8461441 -0.036410828 3.5901759e-21)
(2.808524 0.052099366 3.1476181e-22)
(2.7425861 0.09891737 4.6703752e-21)
(2.6796802 0.10538404 2.0888725e-21)
(2.6364109 0.088274826 -4.700304e-21)
(2.6130585 0.065152013 3.9061212e-22)
(2.6024397 0.045141831 6.3354215e-21)
(2.5980196 0.03027328 5.977129e-21)
(2.5960489 0.019712209 3.7647324e-21)
(2.5949026 0.012154459 1.559972e-21)
(2.5940491 0.0066942215 -6.1409256e-21)
(2.5933228 0.0028461722 -4.1512814e-21)
(2.5925964 0.00038542941 -2.138394e-21)
(2.591688 -0.00089860701 3.1951508e-22)
(2.5905068 -0.0012900503 4.7378451e-21)
(2.5889466 -0.0010397031 -8.3658159e-21)
(2.5872116 -0.0006284652 -1.5977774e-21)
(2.5853343 -1.6453598e-05 6.3752185e-21)
(2.5838428 5.941578e-05 1.3122054e-20)
(2.5826491 0.00034058875 0)
(2.8605985 -0.067813499 -8.3597871e-23)
(3.0729175 0.070700537 -2.7491728e-20)
(2.9934989 0.12286817 -9.2974904e-21)
(2.7890603 0.061670538 -1.2245687e-19)
(2.5738741 -0.08699248 -3.2637371e-20)
(2.491727 -0.21910226 7.260475e-20)
(2.5518262 -0.27361341 -2.0408132e-20)
(2.660935 -0.27263375 8.1618713e-21)
(2.76256 -0.24551797 1.6016652e-20)
(2.8561497 -0.17249217 2.0260833e-20)
(2.8908318 -0.050194285 -2.5247512e-20)
(2.8510663 0.061661951 1.1035176e-20)
(2.7707114 0.12338694 -3.3048566e-21)
(2.6913243 0.13313833 -3.6398892e-21)
(2.6367668 0.11087693 -9.7137462e-21)
(2.6086904 0.080284235 -1.3397487e-21)
(2.597577 0.054288214 -1.0823281e-21)
(2.5943275 0.035642392 -1.0214113e-21)
(2.5937537 0.022952136 0)
(2.5936914 0.014190831 1.8649859e-21)
(2.5935793 0.0078974793 -1.8522515e-22)
(2.5934129 0.0033570855 -4.6351529e-21)
(2.5931977 0.00027930328 5.3333323e-21)
(2.5928256 -0.0014720607 4.0695017e-22)
(2.5921046 -0.0021115451 1.9709618e-21)
(2.5909634 -0.0019547489 6.4907335e-21)
(2.5893353 -0.0012960593 1.2449514e-20)
(2.5874755 -0.00061199702 7.2853043e-21)
(2.585448 0.00012448519 2.9204653e-21)
(2.583847 0.00022252795 -1.4792197e-23)
(2.5825531 0.00039360545 0)
(2.8785386 -0.099209454 2.4187945e-21)
(3.1362079 0.051530835 6.6593271e-20)
(3.0839601 0.13194132 4.2550855e-21)
(2.8827767 0.089080103 4.6877462e-20)
(2.6394999 -0.064892904 1.3553527e-19)
(2.5161154 -0.21922496 1.3067456e-20)
(2.542961 -0.29712748 -2.777416e-21)
(2.6566525 -0.30514294 3.7468844e-20)
(2.7715961 -0.28305225 2.3498648e-20)
(2.8878287 -0.2106604 -4.2582358e-20)
(2.9401837 -0.068004 -2.3039975e-20)
(2.9010458 0.071506018 7.3695116e-21)
(2.8049626 0.15237236 1.1162507e-20)
(2.7041551 0.16707361 1.1034657e-21)
(2.6349279 0.13843214 -9.7930801e-21)
(2.6010896 0.098101077 1.0739622e-20)
(2.5897879 0.064377314 -9.3994493e-21)
(2.5884803 0.041030456 -1.4596186e-20)
(2.5900422 0.02590847 -5.2906002e-21)
(2.5915775 0.015972639 3.9847197e-21)
(2.5924658 0.009006117 1.7021667e-21)
(2.5929407 0.0038672453 1.1271965e-22)
(2.5932652 0.00019409828 4.8122095e-21)
(2.5934507 -0.0021045964 1.0235787e-21)
(2.5933386 -0.0031189945 1.775851e-21)
(2.5927153 -0.0031012758 2.2650068e-21)
(2.5915329 -0.0024081795 1.108735e-20)
(2.5897744 -0.0013741242 2.6003776e-21)
(2.5877469 -0.00045913476 1.1576151e-20)
(2.5855466 0.00034876364 -6.6631477e-21)
(2.5838128 0.00042811536 4.4007807e-21)
(2.582416 0.00047559236 1.3820431e-20)
(2.8865156 -0.13470639 1.2493775e-21)
(3.1975362 0.023731938 2.0634492e-20)
(3.1715552 0.13832309 1.6951217e-21)
(2.9743081 0.1146826 2.3784335e-19)
(2.710337 -0.037157097 1.1564056e-19)
(2.5462293 -0.21279581 -4.7210723e-20)
(2.5404469 -0.3157087 -2.8048817e-20)
(2.6503627 -0.3378159 -2.0788164e-21)
(2.7756914 -0.31999419 -2.5437383e-20)
(2.909319 -0.25029507 1.1530059e-20)
(2.9843164 -0.087121434 -1.6215217e-21)
(2.9518598 0.082865561 3.0729942e-20)
(2.8440723 0.18627419 -2.0061051e-20)
(2.7196763 0.20812755 -7.4243338e-21)
(2.6304633 0.17176592 -6.2503359e-21)
(2.5893496 0.1188907 -1.9323624e-21)
(2.5783401 0.07525495 -3.6097167e-21)
(2.580002 0.04608736 -1.6921261e-21)
(2.5846801 0.028178837 2.9878656e-21)
(2.5885056 0.017170977 7.789018e-21)
(2.5907533 0.0097906516 3.6009438e-21)
(2.5919682 0.0042970416 -4.614548e-22)
(2.5928019 0.00011554003 1.0583491e-21)
(2.593526 -0.0027481832 2.3836395e-21)
(2.5940389 -0.0042559662 -4.5610975e-21)
(2.5941003 -0.004513033 -6.4295342e-21)
(2.5934866 -0.0038398556 2.4166005e-21)
(2.5921863 -0.002638182 -3.8507438e-21)
(2.5902405 -0.0012735098 6.6091977e-21)
(2.5880086 -0.00017737724 -6.5671986e-21)
(2.5856156 0.0006547202 -1.6133067e-20)
(2.583736 0.00068039238 8.8821295e-21)
(2.5822303 0.00058202004 -1.0139526e-21)
(2.8854457 -0.17435666 8.3412582e-23)
(3.2513686 -0.0087963124 -1.8460664e-20)
(3.2597 0.14081959 2.1595007e-21)
(3.0698174 0.14343762 2.7004885e-20)
(2.7839315 -0.0083604678 -1.2293182e-19)
(2.5835205 -0.19960631 -6.4571121e-20)
(2.5475663 -0.32911427 -6.4687891e-20)
(2.642561 -0.36824548 -1.5817477e-20)
(2.7742765 -0.35565184 -1.8624334e-20)
(2.9181971 -0.28881141 8.2570864e-20)
(3.0021486 -0.10576363 -9.6220653e-22)
(2.9905664 0.10010326 -5.9371796e-20)
(2.8728729 0.22746451 1.6007236e-20)
(2.7343529 0.25776365 8.319545e-21)
(2.6236135 0.21197073 3.3494238e-20)
(2.5724716 0.14288941 5.4784543e-21)
(2.5624103 0.086682757 -8.2877208e-21)
(2.56838 0.050355301 7.804752e-21)
(2.5774232 0.029266408 4.5480316e-21)
(2.5844506 0.017342242 -6.5793519e-22)
(2.5885474 0.0099563767 -1.4974684e-21)
(2.5906343 0.004488818 -1.7260908e-21)
(2.5919074 3.6673491e-05 1.6962491e-22)
(2.593052 -0.0033658317 1.3342409e-22)
(2.5941504 -0.0054446008 -1.7225599e-23)
(2.5949306 -0.0061365415 1.6786818e-21)
(2.5950792 -0.0056228889 4.9169702e-22)
(2.5943865 -0.0043107613 5.8320168e-21)
(2.5928956 -0.0026421396 -1.7237237e-21)
(2.5907114 -0.0010007836 -3.7216814e-21)
(2.5882442 0.00022307217 0)
(2.5856454 0.0010329542 -3.7187371e-21)
(2.5836144 0.00097002828 -9.8125642e-21)
(2.5819951 0.0006799314 -8.7345851e-21)
(2.8744916 -0.21723134 1.2256462e-20)
(3.2911852 -0.048533148 -2.6624482e-20)
(3.3418803 0.13728589 2.2622643e-21)
(3.1741394 0.17430522 -4.2148946e-20)
(2.8652651 0.028448769 -1.7407085e-19)
(2.6267978 -0.18415444 2.0390246e-20)
(2.5596697 -0.33603855 -3.4151611e-21)
(2.6336139 -0.3957394 3.3073264e-20)
(2.766726 -0.38821384 -1.9186307e-20)
(2.9162446 -0.32315748 3.8102573e-20)
(3.004798 -0.12289024 0)
(3.0123972 0.12482923 -2.5708048e-20)
(2.8753761 0.28029697 8.5354274e-20)
(2.7275847 0.31745604 -2.0766561e-20)
(2.6109187 0.26072375 -1.5538829e-20)
(2.5496327 0.17048672 -4.0855927e-21)
(2.5410849 0.098290799 -1.0182443e-20)
(2.5530862 0.053279353 1.0205632e-20)
(2.5680373 0.028572388 -1.4857313e-21)
(2.5794154 0.015955209 -3.0964486e-21)
(2.5860184 0.0091075735 -6.4017215e-21)
(2.5891699 0.0042439019 -9.0383413e-21)
(2.5907719 -9.675913e-05 -5.9177196e-21)
(2.5921288 -0.0038846152 4.6588522e-23)
(2.5936497 -0.0066038244 3.1837028e-21)
(2.59512 -0.0078739518 2.0938501e-21)
(2.5961009 -0.0077146329 -2.3356656e-21)
(2.5962433 -0.0064269625 4.0088791e-21)
(2.5953831 -0.0045073784 -6.0879854e-21)
(2.5936341 -0.0024252377 2.6787383e-21)
(2.5911671 -0.00056705534 1.3046819e-21)
(2.588441 0.00072927705 -2.7268967e-22)
(2.5856286 0.0014726617 3.4657122e-21)
(2.5834438 0.0012902738 -8.8535022e-21)
(2.5817124 0.00077710862 1.669691e-20)
(2.851154 -0.26241321 -4.5286047e-20)
(3.3140589 -0.094671236 8.246531e-20)
(3.4129244 0.12812726 5.9832319e-21)
(3.279105 0.20336012 4.5619383e-20)
(2.9597338 0.074219999 -6.2670395e-20)
(2.6776664 -0.15778268 4.4956007e-20)
(2.5750314 -0.33969651 1.0904096e-20)
(2.6243801 -0.41774339 -1.6686165e-20)
(2.7530634 -0.41789823 4.6939186e-22)
(2.9025021 -0.35522489 -4.3357039e-20)
(2.9976302 -0.13415487 8.1388225e-20)
(3.0065432 0.15461886 1.0197065e-19)
(2.8595131 0.34801821 1.311421e-20)
(2.6824555 0.38745494 4.4899328e-22)
(2.5763245 0.31754266 -1.838566e-20)
(2.5190833 0.20235045 -1.7015995e-20)
(2.5134262 0.10964773 8.9810318e-21)
(2.5336033 0.054187219 -1.5068659e-21)
(2.556311 0.02542422 0)
(2.5734438 0.012391006 1.7537474e-21)
(2.5834028 0.0067796112 -4.9067168e-22)
(2.5879011 0.0032918073 -1.4959741e-21)
(2.5896957 -0.00034508168 5.7327524e-22)
(2.5909486 -0.0042458839 5.1175378e-22)
(2.5926029 -0.00758925 0)
(2.5946039 -0.009614051 -1.7817072e-22)
(2.5964292 -0.010010259 -2.3506501e-22)
(2.5975253 -0.0089632017 1.3785267e-22)
(2.5975598 -0.0069123426 5.958145e-21)
(2.5964449 -0.0044314995 -4.7559601e-21)
(2.5943768 -0.0019985466 -9.8925017e-21)
(2.5915917 1.313422e-05 -5.7810249e-22)
(2.5885892 0.0013274191 4.902603e-21)
(2.5855599 0.0019627958 5.3810332e-21)
(2.5832215 0.0016337836 4.8267892e-21)
(2.581381 0.00087852935 -1.2647082e-20)
(2.8157449 -0.30900687 -2.8708159e-20)
(3.3146914 -0.14677104 -7.0785804e-22)
(3.4667533 0.11279095 -2.001627e-19)
(3.3805511 0.22958367 1.8009113e-21)
(3.0614491 0.12264699 3.9385479e-20)
(2.737976 -0.11963583 -4.2378528e-20)
(2.5959827 -0.3324487 -5.614907e-21)
(2.614639 -0.4359794 -1.8308267e-20)
(2.7343537 -0.4428138 -1.5018651e-20)
(2.8783849 -0.37980955 -2.8987239e-20)
(2.9765475 -0.13894055 -1.1069375e-20)
(2.9678246 0.18750424 3.6608475e-21)
(2.8261151 0.4238569 -4.5472788e-20)
(2.6223344 0.46786591 -9.3513663e-21)
(2.5067937 0.37739578 1.6620969e-20)
(2.4738355 0.23705364 1.2792519e-21)
(2.4786666 0.12028486 1.2810946e-20)
(2.5094523 0.052326224 -1.2899065e-20)
(2.5420722 0.019090184 1.1464077e-20)
(2.5666022 0.0059663826 -2.2537896e-21)
(2.5810014 0.0024170474 -5.0352165e-21)
(2.5872493 0.0013176854 -1.9290845e-21)
(2.589091 -0.0008062055 3.6381066e-22)
(2.589816 -0.004361832 3.6790709e-21)
(2.5911592 -0.0082408434 2.8878627e-21)
(2.5933902 -0.011160805 2.0838717e-21)
(2.5959483 -0.012386722 -1.7375557e-21)
(2.5980729 -0.011821341 2.9630891e-22)
(2.5991757 -0.0098598966 1.5168408e-21)
(2.598994 -0.0070740785 1.9586735e-21)
(2.5975414 -0.0040918592 6.5429364e-21)
(2.5951011 -0.0013775652 8.2602683e-23)
(2.5919719 0.00072295188 -8.3291683e-21)
(2.5886817 0.0020031644 2.6437706e-20)
(2.5854362 0.0024931306 2.1519706e-20)
(2.5829475 0.0019924594 -6.0229368e-21)
(2.5809997 0.00098016975 -1.6775816e-20)
(2.7692391 -0.35608243 6.2059109e-20)
(3.2950586 -0.20381995 -3.7089312e-19)
(3.5036977 0.088700158 3.9065595e-19)
(3.4719366 0.25103492 9.8508884e-20)
(3.1696173 0.17481028 8.8115488e-20)
(2.8085908 -0.074831509 -6.2230606e-21)
(2.6200274 -0.31435851 -6.6052119e-22)
(2.6014575 -0.44661057 4.8727611e-22)
(2.7104583 -0.4629434 -1.5211085e-21)
(2.8441705 -0.40275219 3.6761487e-20)
(2.9371362 -0.13663849 -7.9978117e-20)
(2.9123824 0.22304485 -4.0948424e-19)
(2.7784685 0.49625658 7.0188624e-21)
(2.5778584 0.55362592 -2.1884798e-20)
(2.4235948 0.43798968 -1.8281759e-21)
(2.4043129 0.26868977 -6.7838834e-21)
(2.4356354 0.12905521 5.2472604e-22)
(2.4802578 0.04682985 -4.2622969e-21)
(2.5252356 0.0088305863 1.1025946e-21)
(2.5589778 -0.0040234099 4.3587952e-22)
(2.5791186 -0.0046118513 -2.2974162e-22)
(2.5877061 -0.0021092325 9.4317011e-22)
(2.589483 -0.0016088739 4.4434308e-22)
(2.5891483 -0.0041430384 -3.7223181e-21)
(2.5895671 -0.0083365711 -1.4085178e-22)
(2.5915512 -0.01228026 2.2506583e-21)
(2.5945939 -0.014622344 2.1477211e-21)
(2.597717 -0.014885629 -8.9138953e-23)
(2.6000378 -0.013270977 -1.9367003e-22)
(2.601018 -0.01038805 -4.3927611e-21)
(2.6005097 -0.0069145987 -4.8458604e-21)
(2.5986433 -0.0035027795 -3.5943899e-21)
(2.5957869 -0.000581219 0)
(2.5922954 0.0015444538 -5.4408985e-21)
(2.5887136 0.0027420224 5.0818073e-21)
(2.5852562 0.003053951 -7.3390256e-21)
(2.5826231 0.0023595229 4.4756226e-22)
(2.5805778 0.0010818526 -9.7375795e-22)
(2.7133102 -0.4036995 3.5020211e-21)
(3.2622895 -0.26537793 -3.9807531e-20)
(3.5183541 0.055087521 5.4082643e-19)
(3.544698 0.26696764 -5.2858978e-20)
(3.2794684 0.22664918 -4.4099228e-20)
(2.8918971 -0.021834945 2.0237708e-20)
(2.6437428 -0.2886761 -1.7848152e-20)
(2.597766 -0.44954054 -3.956859e-22)
(2.6770987 -0.47955447 3.3938388e-21)
(2.7982582 -0.41339936 3.5767547e-20)