/*--------------------------------*- C++ -*----------------------------------*\
| =========                 |                                                 |
| \\      /  F ield         | OpenFOAM: The Open Source CFD Toolbox           |
|  \\    /   O peration     | Version:  v2012                                 |
|   \\  /    A nd           | Website:  www.openfoam.com                      |
|    \\/     M anipulation  |                                                 |
\*---------------------------------------------------------------------------*/
FoamFile
{
    version     2.0;
    format      ascii;
    class       surfaceVectorField;
    location    "41.9635860759583679";
    object      Uf;
}
// * * * * * * * * * * * * * * * * * * * * * * * * * * * * * * * * * * * * * //

dimensions      [0 1 -1 0 0 0 0];


internalField   nonuniform List<vector> 
18180
(
(2.5731339 -0.0022519388 3.3758791e-21)
(2.5746713 -0.0010062562 3.2532226e-21)
(2.5739187 -0.0043561403 1.6484857e-21)
(2.5752931 -0.0033523733 1.568651e-21)
(2.5762878 -0.0022016886 1.4254635e-21)
(2.5765838 -0.00093761081 1.5819746e-21)
(2.5750234 -0.006319707 -2.9637064e-21)
(2.576228 -0.0052430693 1.5595441e-21)
(2.5770791 -0.0042891924 1.4810148e-21)
(2.5772324 -0.0033761706 -3.136117e-21)
(2.5777863 -0.0022246831 -3.0551505e-21)
(2.5784462 -0.000881319 8.2834865e-24)
(2.5763627 -0.0081234275 -1.4024791e-21)
(2.5774607 -0.0072868879 -4.8276831e-21)
(2.5781719 -0.0062784406 -5.6415035e-22)
(2.5782044 -0.0052406521 1.4217677e-21)
(2.5786269 -0.0043561426 -2.9604565e-21)
(2.5791406 -0.0033824141 -2.2604656e-21)
(2.5797448 -0.0021676844 6.5818161e-22)
(2.5801949 -0.00079959693 4.1790903e-24)
(2.5778423 -0.0097470752 1.3024359e-21)
(2.5788113 -0.0089895803 1.1300927e-21)
(2.5794566 -0.0081914896 -2.0828922e-21)
(2.5794934 -0.0074034024 -9.7162507e-22)
(2.5798045 -0.0064352293 9.06844e-22)
(2.5801951 -0.0052344797 -2.8970119e-21)
(2.5806666 -0.004277113 -2.231833e-21)
(2.5809605 -0.0032828619 1.8398215e-21)
(2.5814353 -0.0020520729 1.236792e-21)
(2.5817901 -0.00069881921 4.0759167e-21)
(2.5793801 -0.011171395 5.5073716e-22)
(2.5802499 -0.010720697 2.0535177e-22)
(2.5808206 -0.010015545 2.4283476e-23)
(2.5808842 -0.0092732744 5.3714555e-22)
(2.5811987 -0.0085102677 1.6320337e-21)
(2.5816182 -0.0075076981 3.0373238e-21)
(2.5819818 -0.0063856471 -5.4118167e-22)
(2.5821406 -0.0050732638 -1.3799664e-21)
(2.5824727 -0.0040847865 2.4960935e-21)
(2.5826504 -0.003074167 2.0401581e-21)
(2.5830043 -0.0018595225 4.7459752e-21)
(2.583183 -0.00058000607 2.1008024e-21)
(2.5808933 -0.012352411 -1.5643893e-21)
(2.5816052 -0.012164994 1.0955988e-21)
(2.5821469 -0.01173401 7.7465974e-22)
(2.5823386 -0.011279884 -1.3149846e-21)
(2.5826738 -0.01058696 -8.4639126e-22)
(2.5831585 -0.0095438879 -1.4601246e-21)
(2.5835604 -0.0085657597 -1.7250846e-22)
(2.5837695 -0.0073899009 1.9904841e-21)
(2.5839807 -0.0061628845 1.231673e-21)
(2.5839883 -0.004742703 3.9172307e-21)
(2.5841794 -0.0037312229 3.5055279e-21)
(2.5841498 -0.0027463643 2.3661871e-21)
(2.5843385 -0.0015990551 -1.7879299e-22)
(2.5843373 -0.00044997637 -9.1041736e-21)
(2.5823317 -0.013260736 -1.861623e-21)
(2.5828448 -0.013470914 -3.0696372e-21)
(2.5833201 -0.013307495 -5.6762911e-22)
(2.5836506 -0.013105067 1.0816438e-22)
(2.5840956 -0.012664124 -1.8845376e-21)
(2.5847715 -0.011833465 -4.2572321e-22)
(2.5852494 -0.01084858 -1.0020146e-21)
(2.5855677 -0.0095287444 -3.9026309e-21)
(2.5858337 -0.0083770025 -1.9050708e-21)
(2.585875 -0.0070114608 -8.9655054e-22)
(2.5859119 -0.00568228 1.6204087e-21)
(2.58566 -0.0042136862 2.6473686e-21)
(2.5856557 -0.0032234113 1.5536472e-21)
(2.5854038 -0.0023134236 -3.5536513e-21)
(2.5854138 -0.001283537 -1.2072381e-20)
(2.58523 -0.00031447644 -5.3064637e-21)
(2.5836574 -0.013855245 4.0146678e-22)
(2.5838738 -0.014477303 -3.0912398e-22)
(2.5842562 -0.014685964 -1.4325797e-21)
(2.5847612 -0.01490138 -2.8280635e-21)
(2.5853182 -0.014720235 -2.2218055e-21)
(2.5862261 -0.014071059 -1.4049172e-21)
(2.5869029 -0.013262424 -1.3693356e-23)
(2.5874959 -0.012040057 2.4305861e-21)
(2.5878739 -0.010786412 -2.7063815e-22)
(2.5880182 -0.0091516594 2.7927505e-21)
(2.5880937 -0.0078125771 3.8187739e-21)
(2.5878273 -0.0063196192 -1.0173057e-21)
(2.5876183 -0.0049442951 -8.1641641e-23)
(2.587081 -0.0035020981 2.0021321e-21)
(2.5868585 -0.002583381 -2.837379e-21)
(2.5863708 -0.0017995651 -4.414564e-21)
(2.586203 -0.00092939132 2.1181782e-21)
(2.5858529 -0.00016445952 6.9703899e-21)
(2.5848721 -0.014095368 -4.8581715e-22)
(2.5846647 -0.015193355 1.3516775e-21)
(2.5848709 -0.015795916 6.9136747e-22)
(2.5855238 -0.016506205 4.477278e-22)
(2.5862206 -0.016714024 -8.5047481e-22)
(2.587432 -0.016435295 -2.5012298e-21)
(2.5883521 -0.01581846 -1.7302057e-21)
(2.5893114 -0.014642053 -9.3168643e-22)
(2.589959 -0.013451914 1.3747573e-21)
(2.5903952 -0.011763241 8.3096951e-22)
(2.5905767 -0.010205018 3.7539399e-21)
(2.5903631 -0.0083236916 1.9615516e-21)
(2.5901456 -0.0068589034 -2.6545503e-21)
(2.5895182 -0.0053305957 -6.239555e-22)
(2.5890302 -0.0039798582 1.3453622e-21)
(2.5881923 -0.0026481116 -1.4045551e-22)
(2.5877411 -0.0018542086 -1.5972959e-21)
(2.5870339 -0.0012425226 3.6800276e-21)
(2.5867085 -0.00055032262 8.3070642e-21)
(2.5862084 1.6166324e-05 1.223491e-20)
(2.5859774 -0.01393737 -1.0698366e-21)
(2.5852086 -0.015492336 -2.0635459e-21)
(2.5851341 -0.016550809 -3.4407019e-22)
(2.5858643 -0.017903141 2.598536e-21)
(2.5866752 -0.018588493 2.3969651e-21)
(2.5882089 -0.018786514 -1.7314622e-21)
(2.5894456 -0.018513397 -3.3094045e-21)
(2.5909108 -0.017552122 1.2740543e-21)
(2.5919167 -0.016424326 2.0757736e-21)
(2.5927691 -0.014590598 1.2142309e-21)
(2.5932366 -0.012949048 6.9588134e-22)
(2.5932717 -0.010859201 -4.3000383e-21)
(2.5931108 -0.009062799 -6.1191646e-21)
(2.592445 -0.0070530046 -4.1616861e-21)
(2.5918758 -0.0055522989 -2.2570863e-21)
(2.5908567 -0.004103213 5.5338702e-22)
(2.5900788 -0.002856393 -8.6811896e-22)
(2.5889609 -0.0017119735 -7.5422442e-21)
(2.5882969 -0.0010908546 -2.6223634e-21)
(2.5874074 -0.00068755225 -2.9980027e-21)
(2.586935 -0.00017206926 5.6246611e-22)
(2.5863155 0.00018160318 3.2274125e-21)
(2.5870388 -0.013368189 4.9196229e-22)
(2.5855189 -0.015358758 -1.9063632e-21)
(2.5850362 -0.016858912 -2.8625381e-21)
(2.585731 -0.018960854 -5.6904537e-22)
(2.5865832 -0.020268284 2.2199844e-21)
(2.588437 -0.02113253 1.5620837e-21)
(2.5900123 -0.021323427 -2.3640975e-21)
(2.5920879 -0.020680832 -3.3090837e-21)
(2.5935867 -0.019748245 1.0399343e-21)
(2.5950458 -0.017895285 1.9314849e-21)
(2.5959192 -0.016133831 1.1122851e-21)
(2.5963396 -0.013690899 2.0314062e-21)
(2.596421 -0.011662044 -2.6894035e-21)
(2.5958979 -0.0093155299 -3.6829518e-21)
(2.5952976 -0.0073948546 -1.7896227e-21)
(2.5941228 -0.0054141451 8.6636556e-22)
(2.5931763 -0.0039886835 3.5788403e-21)
(2.5917858 -0.0027326024 -2.034042e-21)
(2.5907378 -0.0016620843 -8.3840499e-21)
(2.5893833 -0.00076514794 -8.5177181e-21)
(2.588546 -0.00034983522 -8.9610359e-21)
(2.5875259 -0.0001699125 -5.6105206e-21)
(2.5869352 0.00015100937 -3.1729077e-21)
(2.5862249 0.00028638049 -9.4441797e-21)
(2.5881813 -0.012363443 1.3382708e-21)
(2.5856848 -0.014687365 -1.1964879e-22)
(2.5845832 -0.016605099 -2.4068445e-21)
(2.5850544 -0.019607483 -4.1511122e-21)
(2.5858338 -0.021637508 -1.9950506e-21)
(2.5879726 -0.023369774 1.0299359e-21)
(2.5898916 -0.024200808 3.9193442e-22)
(2.5926844 -0.024077765 -2.1194427e-21)
(2.5947794 -0.023456158 -3.0124893e-21)
(2.5970208 -0.021643745 1.048858e-21)
(2.598482 -0.01985233 1.8947042e-21)
(2.5995042 -0.017119493 8.0040525e-22)
(2.5999584 -0.014772073 1.6679265e-21)
(2.5997003 -0.011889974 1.8673494e-21)
(2.5992407 -0.0096129134 9.9131303e-22)
(2.5980582 -0.0072194873 3.0150186e-21)
(2.5969681 -0.0053259943 5.6050675e-21)
(2.5952968 -0.0035397693 2.5494378e-21)
(2.5939922 -0.0023003673 -2.7915262e-21)
(2.592291 -0.0013307391 -3.721362e-21)
(2.5910152 -0.00049433655 -3.7795444e-21)
(2.5894866 0.00011978968 -1.8546932e-21)
(2.5885222 0.00031471548 1.4292548e-21)
(2.587421 0.00028470242 4.5037396e-21)
(2.586747 0.00040168161 -1.3337634e-21)
(2.5859928 0.00037335049 -4.6128325e-21)
(2.5895111 -0.010890429 -4.5294967e-22)
(2.585788 -0.013399621 9.1112181e-22)
(2.5838094 -0.015639701 -4.8082237e-22)
(2.5838022 -0.019671215 1.1786673e-21)
(2.5843363 -0.022562521 -4.227263e-22)
(2.5866718 -0.0254068 -2.277327e-21)
(2.5889138 -0.027070325 5.9039099e-22)
(2.5925016 -0.027691663 1.6531205e-21)
(2.5952995 -0.027569313 -7.1131298e-22)
(2.598536 -0.025941164 -4.9604769e-21)
(2.6007532 -0.024196352 -1.1359668e-21)
(2.6025908 -0.021158624 5.5521109e-21)
(2.6036232 -0.018521968 4.5673744e-21)
(2.6038379 -0.015099606 -1.3838721e-21)
(2.6036362 -0.012329087 -1.239765e-21)
(2.6025299 -0.0092798879 -8.2708827e-22)
(2.6014364 -0.0069556433 1.0652447e-21)
(2.5995886 -0.0047480212 3.0987851e-21)
(2.5980204 -0.0030404571 1.6194752e-22)
(2.5959236 -0.0015932999 1.1132522e-21)
(2.5943196 -0.00063135513 2.8842351e-22)
(2.5923962 -7.0943402e-06 -2.3075646e-21)
(2.5909521 0.00056317671 -4.5942789e-22)
(2.5893166 0.0008855513 4.3696155e-21)
(2.588273 0.00087981552 7.3303332e-21)
(2.5871256 0.00064805893 4.051133e-21)
(2.586411 0.00060911823 1.0191574e-21)
(2.5856536 0.00046070775 -1.5452125e-21)
(2.5911243 -0.0089315542 -9.5893304e-22)
(2.5859314 -0.011388371 8.8967373e-22)
(2.5827872 -0.013807131 2.2023784e-21)
(2.5819684 -0.019003882 1.8350524e-21)
(2.5820269 -0.022886793 3.4447318e-21)
(2.5844038 -0.027129668 3.2333905e-21)
(2.5869 -0.029861015 1.5309714e-21)
(2.5913808 -0.031496242 -1.1830827e-21)
(2.594962 -0.032086007 -2.0065994e-22)
(2.5993729 -0.030825356 -9.9717735e-22)
(2.602549 -0.029257904 -5.033004e-21)
(2.6054764 -0.025970076 1.1254656e-21)
(2.6072896 -0.023051875 7.5042866e-21)
(2.6081895 -0.018986668 2.753707e-21)
(2.6084436 -0.015687018 -2.9198474e-21)
(2.6075792 -0.011917219 -1.5730487e-21)
(2.6065636 -0.0089832437 -1.1870425e-21)
(2.6045667 -0.0060877305 -3.7316897e-21)
(2.602833 -0.0039399593 -1.8733103e-21)
(2.600404 -0.002131114 -1.2169525e-22)
(2.5984259 -0.00074904446 7.7756997e-22)
(2.596021 0.00025956224 9.3329669e-22)
(2.5942032 0.00088559261 -1.5204259e-21)
(2.5921605 0.0011471836 -2.4539153e-21)
(2.5906141 0.0014371736 2.0988216e-21)
(2.5889485 0.0014968331 4.3280975e-21)
(2.5878623 0.0013041168 1.1720429e-21)
(2.5867118 0.00090487428 -4.7350956e-24)
(2.5859919 0.00075209312 -2.4532116e-21)
(2.5852499 0.00052159587 5.1695592e-22)
(2.5931251 -0.0064847571 2.7359235e-22)
(2.5862221 -0.0085748761 3.0495947e-21)
(2.5816062 -0.010946464 4.8626284e-21)
(2.5795559 -0.017432854 -2.4462703e-21)
(2.5788395 -0.022439974 -2.8630924e-21)
(2.5810632 -0.028385131 2.1988554e-21)
(2.5836848 -0.032455603 1.9836013e-21)
(2.5890837 -0.035443726 1.4968574e-21)
(2.5935492 -0.037007401 -1.0787737e-21)
(2.5993867 -0.036336738 4.0630142e-22)
(2.6036933 -0.035123544 -3.4059708e-22)
(2.6079739 -0.031667998 -3.9449901e-21)
(2.6108261 -0.028510812 1.9139513e-21)
(2.6126917 -0.023756103 4.0879724e-21)
(2.613604 -0.019851689 -4.6970759e-22)
(2.6131518 -0.015176582 -1.7061954e-21)
(2.6123735 -0.011538972 -4.1054432e-22)
(2.6103252 -0.0078526642 3.4779617e-21)
(2.6084536 -0.0050618207 1.1319845e-21)
(2.6056548 -0.0026299301 -3.3590088e-21)
(2.6033608 -0.00086443781 -1.7181197e-21)
(2.600507 0.0003903571 2.4219854e-21)
(2.5982314 0.0013507107 2.5939156e-21)
(2.5956576 0.0018771767 -2.3348382e-21)
(2.5937238 0.0021553118 -3.2325718e-21)
(2.5916536 0.0020673914 3.9347428e-21)
(2.590078 0.0020987809 6.077017e-21)
(2.5884427 0.0019350445 1.1336362e-21)
(2.5873533 0.0015835872 1.645522e-23)
(2.5862346 0.0010628067 6.0169306e-21)
(2.5855307 0.00083184792 8.9607269e-21)
(2.5848196 0.00054926745 2.4764826e-21)
(2.5956509 -0.0035533483 -1.0616403e-21)
(2.5867692 -0.0049008228 -4.5534318e-21)
(2.5803529 -0.0068993876 -1.9887104e-21)
(2.5765768 -0.014792841 -5.6018184e-21)
(2.5747159 -0.021033083 -1.2690833e-20)
(2.5765257 -0.029022643 -8.1877018e-21)
(2.579111 -0.034726967 -3.4626694e-21)
(2.5854409 -0.039450757 -2.5689446e-22)
(2.5908266 -0.042307837 -7.5143596e-22)
(2.5983036 -0.042509415 -3.2874699e-21)
(2.6039799 -0.04186416 -1.912375e-21)
(2.6099564 -0.038367199 -4.2822172e-22)
(2.6140936 -0.035058249 -3.8494592e-21)
(2.6172284 -0.029570987 3.8964069e-21)
(2.619065 -0.025007159 5.9873971e-21)
(2.6192611 -0.019275998 -3.534795e-21)
(2.6188852 -0.014779063 -4.7533722e-21)
(2.6168752 -0.010059071 -8.5396175e-22)
(2.6149604 -0.0064940586 2.8289718e-21)
(2.6118113 -0.003331877 1.5699895e-21)
(2.6091665 -0.00098238104 -2.6846666e-21)
(2.6057687 0.00074639419 -3.8973275e-21)
(2.6030644 0.0019776765 -1.1100762e-24)
(2.5999835 0.002605065 3.5541199e-21)
(2.5975442 0.003099921 -1.1083504e-21)
(2.5949448 0.003160229 -2.0276406e-21)
(2.592984 0.0031060902 4.7909384e-21)
(2.590968 0.0027194217 2.6776606e-22)
(2.589421 0.0025322953 -4.508727e-21)
(2.5878605 0.002196106 -1.5805771e-21)
(2.5868019 0.0017283617 4.0897003e-21)
(2.5857388 0.0011313226 5.3314343e-21)
(2.5850647 0.00085025615 -8.7540883e-22)
(2.5843958 0.000546918 -1.4668469e-21)
(2.5988688 -0.00013847635 -5.9888945e-22)
(2.5877179 -0.00024401876 -2.8791686e-21)
(2.5791382 -0.0015115306 -6.2188911e-21)
(2.573037 -0.010904111 -2.1238135e-21)
(2.5696091 -0.018466864 -5.5542102e-21)
(2.570673 -0.028886514 -1.5160054e-21)
(2.5730042 -0.036538856 2.9203274e-21)
(2.5802545 -0.043431322 -3.5845986e-22)
(2.586589 -0.047948542 2.7284645e-21)
(2.5959322 -0.049360074 -5.1524536e-22)
(2.60318 -0.04955167 -2.9195695e-21)
(2.6111942 -0.046178862 -3.3502744e-21)
(2.6169338 -0.042835509 -1.9620127e-21)
(2.6217119 -0.036612562 -3.9968601e-21)
(2.6247586 -0.031359497 3.3495715e-21)
(2.6258846 -0.024398123 7.3258106e-21)
(2.6261404 -0.018888582 -1.6896662e-21)
(2.6243115 -0.01289743 -2.6245256e-21)
(2.6224435 -0.0083440017 1.1055315e-21)
(2.6189284 -0.0041939564 8.9461471e-22)
(2.6159517 -0.0011251355 -3.2828923e-22)
(2.6119598 0.0011529173 -4.3389129e-21)
(2.6087349 0.0028276822 -5.5137869e-21)
(2.6050099 0.003726079 6.1608403e-23)
(2.6020844 0.0043535421 3.435788e-21)
(2.5989721 0.0043594321 -4.3947729e-21)
(2.596507 0.0044023716 -5.315414e-21)
(2.5940015 0.0040569723 4.0799609e-21)
(2.5920921 0.0037153816 -2.2249061e-22)
(2.5901918 0.0030984455 -1.9887697e-21)
(2.5887163 0.0027429469 8.2703043e-22)
(2.5872605 0.0022892996 1.7000881e-21)
(2.5862556 0.0017480141 2.8429655e-21)
(2.5852603 0.0011121436 -6.3232274e-21)
(2.5846267 0.00081002834 -6.9652126e-21)
(2.5840066 0.00051989148 4.0924024e-22)
(2.6028198 0.0037251774 2.7238269e-22)
(2.5893103 0.0054427161 5.3865926e-21)
(2.5781533 0.0053592562 3.3109699e-21)
(2.5689899 -0.0055591988 6.8976805e-21)
(2.5634847 -0.014543778 1.0971855e-20)
(2.5633895 -0.027784742 1.1211802e-20)
(2.5651886 -0.03774761 1.5288837e-20)
(2.5733234 -0.047300121 9.178535e-21)
(2.5806184 -0.053884423 6.1589875e-21)
(2.5920589 -0.056889965 8.1052929e-21)
(2.6010926 -0.058240358 5.1061105e-21)
(2.611512 -0.05520953 -7.5373228e-22)
(2.6191672 -0.051994736 -1.127475e-21)
(2.625999 -0.045063857 1.9208839e-21)
(2.6306048 -0.039115495 4.8614959e-23)
(2.6330141 -0.030763882 -2.1879954e-21)
(2.6341756 -0.024084419 1.503686e-21)
(2.6327132 -0.0165286 -2.1422493e-21)
(2.6310351 -0.010749497 -3.0365098e-21)
(2.6271668 -0.0053376631 3.2726866e-21)
(2.6238464 -0.0013173875 3.1042998e-21)
(2.6191426 0.0017278394 7.7358069e-22)
(2.6153488 0.0039502074 -3.0155224e-21)
(2.6108888 0.0051373794 2.3298864e-22)
(2.6073453 0.0060120173 5.6073963e-21)
(2.6035795 0.006076269 2.2485532e-21)
(2.6006217 0.006105023 -5.1987847e-21)
(2.5976475 0.0055706369 -2.2251317e-21)
(2.5952713 0.0052200537 6.734972e-21)
(2.5929461 0.0045585903 7.2750351e-22)
(2.5911472 0.0039933346 -9.3427814e-22)
(2.5894012 0.0032213341 5.663894e-21)
(2.5880259 0.0027508103 6.5640106e-21)
(2.5866889 0.0022340348 2.5411218e-21)
(2.5857496 0.0016550653 -6.1613894e-21)
(2.5848261 0.0010149887 -7.5160994e-21)
(2.5842418 0.00072413862 -5.2628659e-22)
(2.5836713 0.00047501 -2.8763127e-22)
(2.6066602 0.0080157691 3.4116242e-21)
(2.5914278 0.012184434 -5.6710853e-21)
(2.5774342 0.013848305 -9.0261948e-22)
(2.5645641 0.0013993257 -1.0147953e-20)
(2.5563678 -0.0090619428 -6.9465118e-21)
(2.5545766 -0.025551109 -7.439372e-21)
(2.5554914 -0.038209765 -7.4811939e-21)
(2.5644539 -0.050950197 7.7350697e-21)
(2.572702 -0.060069806 1.8368669e-21)
(2.586475 -0.065097248 2.7730238e-21)
(2.5975109 -0.06797042 4.5703022e-21)
(2.6107161 -0.06554469 5.1830756e-21)
(2.62062 -0.062665626 -3.7326516e-22)
(2.6299568 -0.055105019 -3.6094549e-22)
(2.6364993 -0.04849536 2.5469588e-21)
(2.6406158 -0.038613762 3.3803098e-22)
(2.6430267 -0.030610776 -1.7797258e-21)
(2.6421863 -0.021162081 2.8422031e-21)
(2.6408859 -0.013881153 -5.9742426e-22)
(2.6366884 -0.0068489228 -5.7645981e-21)
(2.633041 -0.0016029043 1.8022084e-22)
(2.6275058 0.0024485819 -1.3451515e-21)
(2.6230292 0.0054144966 -3.6216266e-21)
(2.6176495 0.0070247602 1.001763e-22)
(2.613396 0.0081981758 3.2280914e-21)
(2.6088731 0.0082682037 7.3896783e-21)
(2.6052859 0.0083372587 4.228972e-21)
(2.6017228 0.0076713656 5.534275e-22)
(2.5988957 0.0071757852 3.4594977e-21)
(2.5961807 0.00622409 5.2036729e-21)
(2.5939764 0.0055664375 -5.1920237e-22)
(2.5918825 0.0046904161 -4.0026815e-21)
(2.5902311 0.0039730757 2.2128192e-21)
(2.5886563 0.0031195598 -1.317567e-21)
(2.587395 0.0025864538 -5.2517383e-21)
(2.5861773 0.0020579276 -5.3351284e-21)
(2.5853073 0.0014746786 -6.6083757e-21)
(2.5844545 0.00086591524 -1.6600848e-21)
(2.5839199 0.00061255973 -1.4504512e-21)
(2.583398 0.00042351356 2.4544012e-21)
(2.6097278 0.012961828 3.5386027e-21)
(2.5916528 0.020118028 4.7695652e-21)
(2.5752356 0.024183242 -3.8315644e-21)
(2.559208 0.010093602 1.8751094e-21)
(2.5478204 -0.0018345322 -6.8568012e-21)
(2.5442445 -0.022011138 -8.1154941e-21)
(2.5438029 -0.037778795 -8.5863526e-21)
(2.5534509 -0.054302989 -1.966461e-20)
(2.5626354 -0.066463524 -5.3835325e-21)
(2.5789887 -0.073965858 -1.1936632e-22)
(2.5922441 -0.078769571 7.4178257e-22)
(2.6086183 -0.077247052 -7.1255663e-23)
(2.6211116 -0.074954232 4.4253713e-22)
(2.6334307 -0.066901852 3.5866492e-21)
(2.6423171 -0.059706233 3.6640441e-21)
(2.6486387 -0.048194406 7.5098132e-22)
(2.6527106 -0.038740662 -1.3707896e-21)
(2.6528338 -0.027048852 -4.9722692e-21)
(2.6521718 -0.017949884 -6.3358696e-22)
(2.6477087 -0.0088554186 1.232157e-21)
(2.643766 -0.0020407237 -3.644663e-21)
(2.6372411 0.0033452598 1.8780941e-21)
(2.6319677 0.0072993071 4.556432e-22)
(2.6254515 0.0094704282 -8.0489938e-21)
(2.6203091 0.011059842 -4.5827236e-21)
(2.6148286 0.011165618 -9.5969044e-22)
(2.6105086 0.011261827 2.9272843e-21)
(2.6062722 0.010353126 3.1750979e-21)
(2.6028772 0.0097150366 -3.272476e-22)
(2.5996866 0.0084903978 -1.4905109e-21)
(2.5971069 0.0075879382 9.1669843e-23)
(2.5947194 0.0063587681 -6.4417132e-22)
(2.5927361 0.0054919074 -3.9513309e-21)
(2.5908928 0.0045012168 1.9385898e-21)
(2.5894052 0.0037025003 -1.4154656e-21)
(2.5880008 0.0028346642 -6.2701509e-21)
(2.5868538 0.0022883298 -6.364421e-21)
(2.5857465 0.0017942644 -2.7083175e-21)
(2.5849443 0.001241246 2.0452533e-21)
(2.5841545 0.00069669491 1.9381611e-21)
(2.5836626 0.00049653335 5.694105e-21)
(2.5831844 0.00037899435 3.6173019e-21)
(2.6148665 0.019223776 -6.3819618e-21)
(2.5883238 0.03005411 -5.3004792e-21)
(2.5681607 0.036960937 -4.2763064e-21)
(2.5490505 0.020860281 2.5064577e-20)
(2.5350872 0.0073943697 3.0904634e-20)
(2.5314621 -0.017033143 1.5709191e-20)
(2.529605 -0.036312429 1.4858257e-20)
(2.5402339 -0.057259595 8.6256996e-22)
(2.5502698 -0.073034238 -9.4980891e-21)
(2.5694211 -0.083489401 6.5030735e-21)
(2.5851207 -0.090653496 1.1672922e-20)
(2.6050467 -0.09035816 -6.2900847e-21)
(2.62047 -0.088936523 -7.1583164e-21)
(2.6362566 -0.080582161 1.3475847e-22)
(2.6479073 -0.072935028 3.1181417e-21)
(2.6570043 -0.059762488 2.8914738e-21)
(2.6632179 -0.048765315 1.1638489e-22)
(2.6647486 -0.034462311 1.2259178e-21)
(2.6650768 -0.02321143 -2.1529727e-21)
(2.6604696 -0.011532132 -3.0110696e-21)
(2.6563058 -0.0027176698 -1.276695e-21)
(2.6486176 0.0044316098 -1.5729647e-21)
(2.6423996 0.0096904227 3.6970233e-21)
(2.6344554 0.012624665 5.7087669e-21)
(2.628213 0.014776877 -2.2831936e-21)
(2.6215342 0.014928953 -1.258467e-21)
(2.6162846 0.015069036 2.2276628e-21)
(2.6112086 0.013859263 -1.8635125e-21)
(2.6071606 0.013006913 -1.6983695e-21)
(2.6034498 0.011363206 -2.8829033e-21)
(2.6004109 0.010182161 -4.0244421e-21)
(2.5976815 0.0085946119 -1.6522477e-21)
(2.5954148 0.0074198215 -2.3762579e-21)
(2.5933762 0.006048764 -2.8880671e-21)
(2.5916325 0.0050689734 2.7164961e-21)
(2.5900347 0.0040535807 1.4130076e-21)
(2.5887103 0.0032384291 -3.1516009e-21)
(2.587463 0.002414481 -1.6120292e-21)
(2.5864217 0.0018993064 1.9279611e-21)
(2.5854108 0.0014771215 3.6063811e-21)
(2.5846697 0.00098676152 3.5279725e-21)
(2.5839291 0.0005184489 1.7451632e-21)
(2.5834783 0.00038053182 -2.8440366e-22)
(2.5830266 0.00034435439 -4.2996526e-21)
(2.6271698 0.025753259 -9.0598759e-21)
(2.5929217 0.042430176 -1.4301716e-21)
(2.5633553 0.052819471 -3.3204831e-22)
(2.5317766 0.034406439 -1.2065131e-20)
(2.5154427 0.018962595 1.5676076e-20)
(2.5118589 -0.01048318 1.6124572e-20)
(2.5102286 -0.033767258 1.4787531e-21)
(2.5240455 -0.059765683 3.6691415e-22)
(2.535271 -0.079749918 -1.3135967e-20)
(2.5576852 -0.09364657 -5.8087016e-21)
(2.5760192 -0.10362843 9.4276713e-21)
(2.5998452 -0.10489277 1.2738452e-20)
(2.6185366 -0.10465101 -4.2830173e-21)
(2.6382641 -0.096246906 -6.7773364e-21)
(2.653093 -0.088331815 1.4743081e-22)
(2.6655965 -0.073552017 8.7115464e-21)
(2.674497 -0.060988926 8.5775903e-21)
(2.6780096 -0.04372623 -3.3503658e-21)
(2.67979 -0.02997265 -2.3481467e-21)
(2.6752398 -0.015073272 9.4002174e-22)
(2.6709907 -0.0037532258 1.7031396e-22)
(2.661949 0.0056956441 7.3163984e-21)
(2.6546268 0.012681751 7.1606514e-21)
(2.6448924 0.016658018 2.6948733e-21)
(2.6372635 0.019570744 4.5888274e-21)
(2.629054 0.019792514 -3.1716253e-21)
(2.622636 0.019998727 -2.212318e-21)
(2.6165228 0.018380903 6.7296467e-21)
(2.6116578 0.017244841 2.9141595e-21)
(2.6073238 0.015067221 -1.6126034e-21)
(2.6037793 0.013498501 -2.7355925e-21)
(2.6007093 0.011396763 -2.9228535e-21)
(2.5981117 0.0098612786 -6.5577802e-22)
(2.5958628 0.0080969667 4.752167e-21)
(2.5939298 0.0067807643 4.3720229e-21)
(2.5922269 0.0053865545 -6.6923398e-23)
(2.590718 0.0043805366 -1.3450726e-21)
(2.5893435 0.0034165395 -1.2936313e-21)
(2.5881698 0.0026413751 1.9487715e-22)
(2.5870583 0.0019085875 4.7291887e-21)
(2.5861102 0.0014611802 6.3635438e-21)
(2.5851775 0.0011366489 1.7184943e-21)
(2.5844845 0.0007211488 -2.472071e-25)
(2.5837781 0.00033381156 2.2673911e-21)
(2.5833565 0.00026974202 -1.5050522e-21)
(2.5829188 0.00031315285 8.6984889e-21)
(2.6493656 0.02921788 -1.0201471e-21)
(2.6205796 0.05398907 5.3282775e-22)
(2.5817184 0.070200179 7.920736e-21)
(2.5266413 0.050466126 -2.4280874e-20)
(2.4994314 0.032697083 -3.5753207e-20)
(2.4845551 -0.0023766185 -2.535712e-20)
(2.4832599 -0.030418707 -2.5543169e-20)
(2.501435 -0.062008352 -5.3178673e-21)
(2.5160089 -0.086729876 -6.4839086e-21)
(2.5434396 -0.10442517 -9.1534807e-21)
(2.5648288 -0.11767972 -2.1433969e-21)
(2.5929198 -0.12084049 7.1164316e-22)
(2.6151822 -0.12209624 3.7377315e-21)
(2.6392798 -0.11393845 2.8514815e-21)
(2.6576752 -0.1059972 5.8885287e-22)
(2.6742618 -0.089781828 -8.2176775e-21)
(2.6864406 -0.075709585 -2.1426503e-22)
(2.6926459 -0.055182635 6.5928426e-21)
(2.6964807 -0.03859328 -4.7432012e-21)
(2.692311 -0.01975574 1.4073516e-21)
(2.6881998 -0.0053144783 4.581772e-21)
(2.677615 0.0071368783 3.8884463e-21)
(2.6690175 0.016370603 1.0722291e-20)
(2.6570386 0.02175437 9.7487118e-21)
(2.6476673 0.025708862 5.5497097e-21)
(2.6374977 0.026042218 5.832498e-21)
(2.6295821 0.026342254 -1.5120088e-21)
(2.622159 0.024175557 -5.1381039e-21)
(2.6162801 0.02266403 3.3027794e-21)
(2.6112114 0.019777541 2.9015263e-21)
(2.6070592 0.017698209 -1.3935944e-21)
(2.603613 0.0149494 2.5543158e-22)
(2.600683 0.012931632 1.2185814e-22)
(2.5982639 0.010628457 -1.4094122e-21)
(2.5961263 0.0089181734 3.7107163e-21)
(2.5943285 0.0071340839 4.1458559e-21)
(2.5927166 0.0057911695 -6.9409484e-23)
(2.5913142 0.004470364 0)
(2.5900192 0.0035114979 6.8787734e-23)
(2.5888361 0.0026599987 9.7806304e-23)
(2.587793 0.0019706262 4.3990522e-21)
(2.5867906 0.0013644169 3.8865422e-21)
(2.5859183 0.0010105429 -5.581986e-22)
(2.5850404 0.00079887368 8.9415562e-25)
(2.5843811 0.00046185572 2.1528454e-21)
(2.5836961 0.00016491807 4.4603925e-21)
(2.5832893 0.0001765655 1.4232333e-20)
(2.5828508 0.00028585622 1.2520723e-20)
(2.68002 0.02744688 1.4058641e-20)
(2.669343 0.060720411 5.2098089e-21)
(2.6323029 0.084808054 6.7753732e-21)
(2.5610038 0.066675076 -2.3574021e-20)
(2.5132868 0.047313372 -5.4593574e-20)
(2.4728959 0.0071240166 -5.6779664e-20)
(2.4613669 -0.026449682 -4.7223462e-20)
(2.4713467 -0.064643212 8.9575258e-22)
(2.4904855 -0.094643965 2.0470269e-20)
(2.5249554 -0.11609209 3.2703722e-21)
(2.5510339 -0.13287256 8.806918e-22)
(2.5841818 -0.13815068 -3.0037861e-21)
(2.6103274 -0.14121624 -2.7998038e-22)
(2.6391396 -0.13365581 -2.9127087e-21)
(2.6614377 -0.12597226 -3.8502607e-21)
(2.6828071 -0.1086184 -3.0669118e-22)
(2.6988778 -0.093208273 -8.6745004e-21)
(2.7086439 -0.069201754 -4.2771659e-21)
(2.7152883 -0.049490036 2.1299968e-21)
(2.7119731 -0.025887361 -8.0970444e-21)
(2.7083471 -0.0076239152 -2.3106824e-21)
(2.6960554 0.0086844178 4.9491322e-21)
(2.6860084 0.020851191 4.3000101e-21)
(2.6712396 0.028146692 5.4028388e-21)
(2.6596821 0.033506652 4.4016946e-21)
(2.646994 0.034009172 -1.1269683e-21)
(2.6371534 0.034456343 -9.5610058e-22)
(2.6280676 0.031561143 4.3182257e-21)
(2.620903 0.029543343 9.6341784e-22)
(2.6149498 0.025712661 2.1963737e-21)
(2.6100782 0.022962446 1.799375e-21)
(2.6062381 0.019379939 -9.8501763e-22)
(2.6029397 0.016740481 5.8560412e-22)
(2.6003696 0.013778074 -8.7407626e-22)
(2.5980636 0.011559694 -2.3416568e-21)
(2.5962366 0.009261522 1.8574887e-21)
(2.5945305 0.0075280121 2.2429019e-21)
(2.5931271 0.0058455259 -5.2735766e-21)
(2.5918028 0.0045691578 -5.2848834e-21)
(2.590655 0.003396004 -1.9906547e-22)
(2.5895435 0.0025433435 -1.7551063e-22)
(2.5885145 0.0018505108 -4.1645038e-21)
(2.5875769 0.0012811795 -4.7783208e-21)
(2.5866537 0.0008262826 -1.3246109e-21)
(2.5858344 0.00058187788 -8.0542741e-22)
(2.5849857 0.00048919475 5.0370122e-21)
(2.5843475 0.00023714011 7.2698072e-21)
(2.5836712 3.2548365e-05 -1.5563297e-21)
(2.5832643 0.00010889851 -3.4158917e-21)
(2.5828104 0.00026793112 -1.0859699e-20)
(2.7154146 0.019806083 9.6092713e-21)
(2.7306165 0.061811947 6.5040662e-20)
(2.7057472 0.094199067 5.7396349e-20)
(2.6283847 0.080553518 3.4259081e-20)
(2.5679386 0.063147937 5.8937716e-21)
(2.498736 0.018363494 1.1848787e-21)
(2.4634566 -0.020446761 -7.2919967e-23)
(2.4515638 -0.066935645 -8.059199e-20)
(2.4635753 -0.10395873 -3.5424787e-20)
(2.5009619 -0.12935815 3.3133552e-21)
(2.533628 -0.14968241 -1.3252547e-20)
(2.573167 -0.15688594 -4.6933652e-21)
(2.6039074 -0.16191978 -8.4554493e-21)
(2.6377032 -0.15531963 -9.8024963e-21)
(2.6641584 -0.14822591 -1.2438742e-20)
(2.6909955 -0.13018195 1.5088523e-21)
(2.7115582 -0.1137257 4.9483999e-21)
(2.7259138 -0.08616827 -4.8886707e-21)
(2.7363042 -0.063131948 -6.6199209e-22)
(2.7345127 -0.033844316 6.1098774e-21)
(2.7318787 -0.010961992 -3.534698e-21)
(2.7177448 0.010271908 -6.4886325e-21)
(2.7061158 0.026221655 3.4100993e-22)
(2.6878874 0.036063737 -1.4017265e-21)
(2.6736203 0.043331372 -4.3844079e-22)
(2.6577074 0.044105347 -2.7386399e-21)
(2.6453837 0.044773013 -8.0878205e-21)
(2.6341732 0.040904987 -8.0147983e-21)
(2.6253694 0.038216705 -3.1102849e-21)
(2.6183487 0.033135391 -3.0959905e-22)
(2.6126077 0.029489845 8.4017226e-22)
(2.6083562 0.024826529 -2.2532862e-21)
(2.6046699 0.021391437 -4.9546697e-21)
(2.6020034 0.017614556 -2.6183905e-21)
(2.5995465 0.014761564 -4.0505907e-21)
(2.5977421 0.011857693 -3.6231984e-21)
(2.5960031 0.0096386038 3.4212037e-22)
(2.5946758 0.0074938954 3.5806777e-21)
(2.5933469 0.0058542207 -3.5315168e-21)
(2.5922708 0.0043612119 -6.4563471e-21)
(2.5911904 0.0032230283 -1.6479734e-21)
(2.590247 0.0022521348 -2.4361275e-22)
(2.5892839 0.0015507935 -4.0298098e-21)
(2.5883688 0.0010484624 9.0685152e-22)
(2.5875082 0.00062307724 4.2689612e-21)
(2.5866338 0.00033419672 4.0119053e-21)
(2.5858434 0.00020781651 9.6279578e-21)
(2.5849987 0.00023356973 4.4868079e-21)
(2.5843685 6.4306516e-05 -3.9305262e-21)
(2.5836889 -4.8866249e-05 -5.9496262e-21)
(2.5832669 7.7372317e-05 -1.305164e-20)
(2.5827827 0.00026146799 -1.2276122e-20)
(2.7520864 0.0067408076 -2.6175664e-21)
(2.7963944 0.057260518 1.1021599e-20)
(2.7904888 0.097880681 6.3642543e-20)
(2.7134486 0.091342171 1.1243385e-19)
(2.650583 0.078846325 9.1316119e-20)
(2.5623677 0.032734533 1.9662333e-20)
(2.5000305 -0.010420573 1.539608e-20)
(2.4606866 -0.06619344 3.3139641e-20)
(2.4526083 -0.11121889 -4.2748189e-20)
(2.4762232 -0.14391012 -8.0150122e-20)
(2.5114987 -0.16864803 -4.4042911e-20)
(2.5591412 -0.17736233 -9.4609138e-21)
(2.5956804 -0.18422367 -1.2967114e-21)
(2.6348287 -0.17882393 -1.2294969e-20)
(2.6656333 -0.17264487 -1.3628791e-20)
(2.6985512 -0.15450624 -1.4236737e-20)
(2.7241357 -0.1374391 -1.0308316e-21)
(2.7442684 -0.10646194 -1.4934687e-22)
(2.7595359 -0.080038832 -9.5554259e-21)
(2.7601895 -0.044090283 1.0945564e-23)
(2.7592529 -0.015692941 6.4366377e-21)
(2.7432402 0.011771659 -7.9109654e-22)
(2.7299219 0.032531095 -3.5554484e-21)
(2.7074884 0.045777132 2.6858876e-21)
(2.6898628 0.055591901 1.0554278e-21)
(2.6698301 0.056800992 -2.4083867e-21)
(2.6543124 0.057811168 -4.6192847e-21)
(2.6403814 0.052663079 -4.6789167e-21)
(2.6294729 0.049081521 -4.5621717e-21)
(2.6211549 0.042331428 -3.8761645e-21)
(2.6143605 0.037499824 -1.2315635e-21)
(2.6096967 0.031441528 -3.833184e-21)
(2.6056033 0.026972953 -6.8372143e-21)
(2.602922 0.022184477 -5.1420986e-21)
(2.6003661 0.018551664 -2.9282692e-21)
(2.5986778 0.014939598 -1.4559324e-21)
(2.5969553 0.012137146 -1.012143e-21)
(2.5957666 0.0094699556 3.0892645e-22)
(2.5945056 0.0073936711 3.3812339e-21)