/*--------------------------------*- C++ -*----------------------------------*\
| =========                 |                                                 |
| \\      /  F ield         | OpenFOAM: The Open Source CFD Toolbox           |
|  \\    /   O peration     | Version:  v2012                                 |
|   \\  /    A nd           | Website:  www.openfoam.com                      |
|    \\/     M anipulation  |                                                 |
\*---------------------------------------------------------------------------*/
FoamFile
{
    version     2.0;
    format      ascii;
    class       volVectorField;
    location    "21.828410048542551";
    object      cellDisplacement;
}
// * * * * * * * * * * * * * * * * * * * * * * * * * * * * * * * * * * * * * //

dimensions      [0 1 0 0 0 0 0];


internalField   nonuniform List<vector> 
9200
(
(-0.016090517 0 0)
(-0.016148565 0 0)
(-0.046687957 0 0)
(-0.016243688 0 0)
(-0.046847158 0 0)
(-0.075180403 0 0)
(-0.016352455 0 0)
(-0.047102499 0 0)
(-0.075426255 0 0)
(-0.10170237 0 0)
(-0.01646029 0 0)
(-0.04738278 0 0)
(-0.075806885 0 0)
(-0.10201558 0 0)
(-0.12636276 0 0)
(-0.016564749 0 0)
(-0.047671253 0 0)
(-0.076244231 0 0)
(-0.10250922 0 0)
(-0.126735 0 0)
(-0.14930337 0 0)
(-0.016665349 0 0)
(-0.047956962 0 0)
(-0.076704951 0 0)
(-0.10311213 0 0)
(-0.12736156 0 0)
(-0.14974493 0 0)
(-0.17062616 0 0)
(-0.016756759 0 0)
(-0.048225491 0 0)
(-0.077150539 0 0)
(-0.10372495 0 0)
(-0.12809907 0 0)
(-0.1504703 0 0)
(-0.1711239 0 0)
(-0.1904504 0 0)
(-0.016840529 0 0)
(-0.048475147 0 0)
(-0.077570731 0 0)
(-0.10432653 0 0)
(-0.12887989 0 0)
(-0.15136255 0 0)
(-0.1719703 0 0)
(-0.19101652 0 0)
(-0.20886264 0 0)
(-0.016913269 0 0)
(-0.048697243 0 0)
(-0.077957026 0 0)
(-0.10489472 0 0)
(-0.12964889 0 0)
(-0.15232175 0 0)
(-0.17301971 0 0)
(-0.19197122 0 0)
(-0.20949243 0 0)
(-0.22597256 0 0)
(-0.016977054 0 0)
(-0.048894331 0 0)
(-0.078301065 0 0)
(-0.10541223 0 0)
(-0.1303712 0 0)
(-0.15326185 0 0)
(-0.17415386 0 0)
(-0.19317973 0 0)
(-0.21057498 0 0)
(-0.226677 0 0)
(-0.24184974 0 0)
(-0.017030463 0 0)
(-0.049062019 0 0)
(-0.078602264 0 0)
(-0.10587557 0 0)
(-0.13102847 0 0)
(-0.15414493 0 0)
(-0.17528056 0 0)
(-0.19449782 0 0)
(-0.21193829 0 0)
(-0.22787534 0 0)
(-0.24262393 0 0)
(-0.25658935 0 0)
(-0.01707547 0 0)
(-0.049205053 0 0)
(-0.078858636 0 0)
(-0.1062756 0 0)
(-0.13161618 0 0)
(-0.15495561 0 0)
(-0.17635121 0 0)
(-0.19584237 0 0)
(-0.2134665 0 0)
(-0.22941232 0 0)
(-0.24396273 0 0)
(-0.25744695 0 0)
(-0.27025041 0 0)
(-0.017111821 0 0)
(-0.049321797 0 0)
(-0.079072467 0 0)
(-0.10661669 0 0)
(-0.13212488 0 0)
(-0.15567359 0 0)
(-0.17732193 0 0)
(-0.19709283 0 0)
(-0.21498634 0 0)
(-0.23110908 0 0)
(-0.2456627 0 0)
(-0.2589183 0 0)
(-0.27119008 0 0)
(-0.28292119 0 0)
(-0.017141032 0 0)
(-0.049416602 0 0)
(-0.079246022 0 0)
(-0.10689656 0 0)
(-0.13255848 0 0)
(-0.15630385 0 0)
(-0.17818722 0 0)
(-0.19824604 0 0)
(-0.21647291 0 0)
(-0.23288424 0 0)
(-0.24758721 0 0)
(-0.26081055 0 0)
(-0.27281715 0 0)
(-0.28395274 0 0)
(-0.29464559 0 0)
(-0.01716366 0 0)
(-0.049490591 0 0)
(-0.079383725 0 0)
(-0.10712386 0 0)
(-0.13291643 0 0)
(-0.15683617 0 0)
(-0.17894358 0 0)
(-0.19927582 0 0)
(-0.21782481 0 0)
(-0.23456945 0 0)
(-0.24954946 0 0)
(-0.26292677 0 0)
(-0.27489755 0 0)
(-0.28572989 0 0)
(-0.29576635 0 0)
(-0.3055001 0 0)
(-0.017180971 0 0)
(-0.049547243 0 0)
(-0.079489604 0 0)
(-0.10729941 0 0)
(-0.13320617 0 0)
(-0.15728405 0 0)
(-0.17958987 0 0)
(-0.20017503 0 0)
(-0.21903898 0 0)
(-0.23614728 0 0)
(-0.25149442 0 0)
(-0.26515444 0 0)
(-0.27725853 0 0)
(-0.28802323 0 0)
(-0.29771515 0 0)
(-0.30671998 0 0)
(-0.31551993 0 0)
(-0.017193687 0 0)
(-0.049588722 0 0)
(-0.079567703 0 0)
(-0.10743323 0 0)
(-0.13343335 0 0)
(-0.15764363 0 0)
(-0.1801312 0 0)
(-0.20095177 0 0)
(-0.22010921 0 0)
(-0.23757413 0 0)
(-0.25331988 0 0)
(-0.26733887 0 0)
(-0.27970876 0 0)
(-0.29060836 0 0)
(-0.30022075 0 0)
(-0.30883509 0 0)
(-0.31683805 0 0)
(-0.32477672 0 0)
(-0.017202878 0 0)
(-0.049617075 0 0)
(-0.079621999 0 0)
(-0.10752767 0 0)
(-0.13360516 0 0)
(-0.15793211 0 0)
(-0.18057349 0 0)
(-0.20160181 0 0)
(-0.22103303 0 0)
(-0.23883774 0 0)
(-0.25497886 0 0)
(-0.26941871 0 0)
(-0.28217479 0 0)
(-0.29335073 0 0)
(-0.30307862 0 0)
(-0.31157548 0 0)
(-0.31913676 0 0)
(-0.32619919 0 0)
(-0.3332968 0 0)
(-0.017209286 0 0)
(-0.04963557 0 0)
(-0.079656933 0 0)
(-0.10759299 0 0)
(-0.13373027 0 0)
(-0.15814875 0 0)
(-0.1809252 0 0)
(-0.20214102 0 0)
(-0.22181979 0 0)
(-0.23993603 0 0)
(-0.25645727 0 0)
(-0.27133473 0 0)
(-0.28453169 0 0)
(-0.29607588 0 0)
(-0.30607409 0 0)
(-0.31468924 0 0)
(-0.32211133 0 0)
(-0.32867595 0 0)
(-0.334821 0 0)
(-0.34114414 0 0)
(-0.017213796 0 0)
(-0.049645377 0 0)
(-0.079674814 0 0)
(-0.10763041 0 0)
(-0.13381449 0 0)
(-0.15831146 0 0)
(-0.18119704 0 0)
(-0.20257071 0 0)
(-0.22247178 0 0)
(-0.2408769 0 0)
(-0.25775485 0 0)
(-0.27305559 0 0)
(-0.2867262 0 0)
(-0.29873068 0 0)
(-0.30911619 0 0)
(-0.31800324 0 0)
(-0.32551859 0 0)
(-0.33190105 0 0)
(-0.33749035 0 0)
(-0.34277531 0 0)
(-0.34834056 0 0)
(-0.017216978 0 0)
(-0.049649707 0 0)
(-0.079680279 0 0)
(-0.10764993 0 0)
(-0.13386781 0 0)
(-0.15842102 0 0)
(-0.18139769 0 0)
(-0.20290879 0 0)
(-0.22300584 0 0)
(-0.24166707 0 0)
(-0.25887182 0 0)
(-0.2745754 0 0)
(-0.28870892 0 0)
(-0.30121097 0 0)
(-0.31206988 0 0)
(-0.32133763 0 0)
(-0.32912232 0 0)
(-0.3355905 0 0)
(-0.34096471 0 0)
(-0.34563059 0 0)
(-0.35007676 0 0)
(-0.35494673 0 0)
(-0.017219443 0 0)
(-0.049649406 0 0)
(-0.079675693 0 0)
(-0.10765161 0 0)
(-0.13389353 0 0)
(-0.15849317 0 0)
(-0.18153942 0 0)
(-0.20316083 0 0)
(-0.22342746 0 0)
(-0.24231933 0 0)
(-0.25982216 0 0)
(-0.27589352 0 0)
(-0.29046895 0 0)
(-0.30347773 0 0)
(-0.31486212 0 0)
(-0.32461385 0 0)
(-0.33280095 0 0)
(-0.3395384 0 0)
(-0.34496707 0 0)
(-0.34936681 0 0)
(-0.35312797 0 0)
(-0.35678995 0 0)
(-0.36097989 0 0)
(-0.017221543 0 0)
(-0.049646912 0 0)
(-0.079664301 0 0)
(-0.10764361 0 0)
(-0.13390084 0 0)
(-0.15852948 0 0)
(-0.18163052 0 0)
(-0.20334436 0 0)
(-0.22375653 0 0)
(-0.24284662 0 0)
(-0.26061233 0 0)
(-0.27702512 0 0)
(-0.29201371 0 0)
(-0.30550521 0 0)
(-0.31743289 0 0)
(-0.32773359 0 0)
(-0.33641323 0 0)
(-0.34354137 0 0)
(-0.34923265 0 0)
(-0.35367091 0 0)
(-0.35712313 0 0)
(-0.36002928 0 0)
(-0.36292665 0 0)
(-0.36649513 0 0)
(-0.017223617 0 0)
(-0.049643 0 0)
(-0.079647938 0 0)
(-0.10762567 0 0)
(-0.1338917 0 0)
(-0.15854292 0 0)
(-0.18168274 0 0)
(-0.20346608 0 0)
(-0.22399972 0 0)
(-0.24326257 0 0)
(-0.26126225 0 0)
(-0.27797729 0 0)
(-0.29334433 0 0)
(-0.30729478 0 0)
(-0.3197497 0 0)
(-0.33062616 0 0)
(-0.33987681 0 0)
(-0.34751291 0 0)
(-0.35361222 0 0)
(-0.35830045 0 0)
(-0.36175085 0 0)
(-0.36429076 0 0)
(-0.36636128 0 0)
(-0.36854634 0 0)
(-0.37150745 0 0)
(-0.017225783 0 0)
(-0.049639011 0 0)
(-0.079629116 0 0)
(-0.10760462 0 0)
(-0.13387432 0 0)
(-0.15853515 0 0)
(-0.18170243 0 0)
(-0.20354132 0 0)
(-0.22417655 0 0)
(-0.24358349 0 0)
(-0.26178161 0 0)
(-0.27876966 0 0)
(-0.29448201 0 0)
(-0.30884929 0 0)
(-0.32180334 0 0)
(-0.33325477 0 0)
(-0.34311255 0 0)
(-0.35133334 0 0)
(-0.35795043 0 0)
(-0.36303479 0 0)
(-0.36672135 0 0)
(-0.36923174 0 0)
(-0.37088412 0 0)
(-0.37216706 0 0)
(-0.37365992 0 0)
(-0.37606892 0 0)
(-0.017228156 0 0)
(-0.049635654 0 0)
(-0.079609762 0 0)
(-0.10757994 0 0)
(-0.13384934 0 0)
(-0.15851573 0 0)
(-0.18169959 0 0)
(-0.20357659 0 0)
(-0.22429349 0 0)
(-0.24382208 0 0)
(-0.26219277 0 0)
(-0.27941501 0 0)
(-0.29543266 0 0)
(-0.31018681 0 0)
(-0.32360591 0 0)
(-0.33560149 0 0)
(-0.34607738 0 0)
(-0.35493651 0 0)
(-0.36215222 0 0)
(-0.36776187 0 0)
(-0.37185336 0 0)
(-0.37457804 0 0)
(-0.37615318 0 0)
(-0.37695458 0 0)
(-0.37747011 0 0)
(-0.37832113 0 0)
(-0.380192 0 0)
(-0.017230693 0 0)
(-0.049633381 0 0)
(-0.079591377 0 0)
(-0.10755679 0 0)
(-0.13382315 0 0)
(-0.15848668 0 0)
(-0.18167937 0 0)
(-0.20358503 0 0)
(-0.22436763 0 0)
(-0.24399474 0 0)
(-0.26250538 0 0)
(-0.27993346 0 0)
(-0.296224 0 0)
(-0.31131909 0 0)
(-0.32516264 0 0)
(-0.33767291 0 0)
(-0.34874075 0 0)
(-0.35825161 0 0)
(-0.36612731 0 0)
(-0.37235216 0 0)
(-0.3769764 0 0)
(-0.38008554 0 0)
(-0.38185285 0 0)
(-0.38254016 0 0)
(-0.38251548 0 0)
(-0.3823105 0 0)
(-0.3825398 0 0)
(-0.38392389 0 0)
(-0.017233565 0 0)
(-0.049632747 0 0)
(-0.079575717 0 0)
(-0.1075349 0 0)
(-0.13379615 0 0)
(-0.15845496 0 0)
(-0.18164924 0 0)
(-0.20357116 0 0)
(-0.22440443 0 0)
(-0.2441114 0 0)
(-0.26274087 0 0)
(-0.28034078 0 0)
(-0.29686408 0 0)
(-0.31226754 0 0)
(-0.326498 0 0)
(-0.33947413 0 0)
(-0.35109857 0 0)
(-0.36125351 0 0)
(-0.36981811 0 0)
(-0.3767221 0 0)
(-0.38197454 0 0)
(-0.38562113 0 0)
(-0.38777165 0 0)
(-0.38861809 0 0)
(-0.3884252 0 0)
(-0.38761302 0 0)
(-0.38670961 0 0)
(-0.38636515 0 0)
(-0.38727584 0 0)
(-0.01723632 0 0)
(-0.049634399 0 0)
(-0.07956426 0 0)
(-0.10751829 0 0)
(-0.13377328 0 0)
(-0.15842229 0 0)
(-0.18161329 0 0)
(-0.20354624 0 0)
(-0.22441777 0 0)
(-0.24418692 0 0)
(-0.26290794 0 0)
(-0.28065446 0 0)
(-0.29738197 0 0)
(-0.31304987 0 0)
(-0.32762228 0 0)
(-0.34103117 0 0)
(-0.35317162 0 0)
(-0.36392781 0 0)
(-0.3731782 0 0)
(-0.38079984 0 0)
(-0.38674539 0 0)
(-0.3910319 0 0)
(-0.39372126 0 0)
(-0.39492434 0 0)
(-0.39486028 0 0)
(-0.39383455 0 0)
(-0.39226067 0 0)
(-0.39070442 0 0)
(-0.38980687 0 0)
(-0.39029172 0 0)
(-0.01716784 0 0)
(-0.049637322 0 0)
(-0.079557863 0 0)
(-0.10750725 0 0)
(-0.13375484 0 0)
(-0.15839334 0 0)
(-0.18157738 0 0)
(-0.20351271 0 0)
(-0.22441184 0 0)
(-0.24422875 0 0)
(-0.26302485 0 0)
(-0.28089009 0 0)
(-0.2977854 0 0)
(-0.31368608 0 0)
(-0.32856449 0 0)
(-0.34235555 0 0)
(-0.35496593 0 0)
(-0.36628751 0 0)
(-0.37618585 0 0)
(-0.38452232 0 0)
(-0.39121261 0 0)
(-0.39621916 0 0)
(-0.39955995 0 0)
(-0.40129837 0 0)
(-0.40158004 0 0)
(-0.40064214 0 0)
(-0.39879623 0 0)
(-0.3965003 0 0)
(-0.3943144 0 0)
(-0.39290905 0 0)
(-0.39298119 0 0)
(-0.017086211 0 0)
(-0.04948593 0 0)
(-0.07955773 0 0)
(-0.10750354 0 0)
(-0.13374347 0 0)
(-0.15836992 0 0)
(-0.18154422 0 0)
(-0.20347914 0 0)
(-0.22439682 0 0)
(-0.24424864 0 0)
(-0.26309884 0 0)
(-0.28106198 0 0)
(-0.29810176 0 0)
(-0.3141971 0 0)
(-0.32933736 0 0)
(-0.34347529 0 0)
(-0.35651432 0 0)
(-0.36834499 0 0)
(-0.37884837 0 0)
(-0.38788734 0 0)
(-0.39533392 0 0)
(-0.40110135 0 0)
(-0.40517118 0 0)
(-0.40756726 0 0)
(-0.40837697 0 0)
(-0.40775061 0 0)
(-0.40595535 0 0)
(-0.40333627 0 0)
(-0.40034541 0 0)
(-0.39757413 0 0)
(-0.39568096 0 0)
(-0.39538333 0 0)
(-0.017013176 0 0)
(-0.049239124 0 0)
(-0.079329412 0 0)
(-0.10750811 0 0)
(-0.13374158 0 0)
(-0.15835431 0 0)
(-0.18151799 0 0)
(-0.20344738 0 0)
(-0.22437629 0 0)
(-0.24425241 0 0)
(-0.26314465 0 0)
(-0.28118457 0 0)
(-0.29833787 0 0)
(-0.31459957 0 0)
(-0.32997021 0 0)
(-0.34440759 0 0)
(-0.357826 0 0)
(-0.37012928 0 0)
(-0.38119416 0 0)
(-0.39088247 0 0)
(-0.39905747 0 0)
(-0.40560554 0 0)
(-0.41046828 0 0)
(-0.41361615 0 0)
(-0.41508633 0 0)
(-0.41497582 0 0)
(-0.41347124 0 0)
(-0.41085434 0 0)
(-0.40747921 0 0)
(-0.40383411 0 0)
(-0.40050126 0 0)
(-0.39816239 0 0)
(-0.39750715 0 0)
(-0.016949241 0 0)
(-0.04901845 0 0)
(-0.078934098 0 0)
(-0.10721697 0 0)
(-0.13374735 0 0)
(-0.15835074 0 0)
(-0.18150194 0 0)
(-0.20342404 0 0)
(-0.22435769 0 0)
(-0.24424939 0 0)
(-0.26316803 0 0)
(-0.28126843 0 0)
(-0.29851701 0 0)
(-0.31491442 0 0)
(-0.33047599 0 0)
(-0.34517929 0 0)
(-0.35893857 0 0)
(-0.37165741 0 0)
(-0.38322824 0 0)
(-0.39352357 0 0)
(-0.40239972 0 0)
(-0.40972236 0 0)
(-0.41539579 0 0)
(-0.41935069 0 0)
(-0.42157676 0 0)
(-0.42212346 0 0)
(-0.42111854 0 0)
(-0.41875253 0 0)
(-0.41533592 0 0)
(-0.41125113 0 0)
(-0.40697973 0 0)
(-0.40312839 0 0)
(-0.40036236 0 0)
(-0.39938809 0 0)
(-0.016894726 0 0)
(-0.048825061 0 0)
(-0.078580369 0 0)
(-0.10669299 0 0)
(-0.1333971 0 0)
(-0.15835592 0 0)
(-0.18149722 0 0)
(-0.20341148 0 0)
(-0.22434389 0 0)
(-0.2442431 0 0)
(-0.26317768 0 0)
(-0.28132485 0 0)
(-0.29864508 0 0)
(-0.31515425 0 0)
(-0.33088074 0 0)
(-0.34580976 0 0)
(-0.35986229 0 0)
(-0.37295901 0 0)
(-0.38499415 0 0)
(-0.39584042 0 0)
(-0.4053654 0 0)
(-0.41343283 0 0)
(-0.41990655 0 0)
(-0.42469204 0 0)
(-0.42775061 0 0)
(-0.42906539 0 0)
(-0.42870931 0 0)
(-0.4268214 0 0)
(-0.42362707 0 0)
(-0.4194472 0 0)
(-0.41467402 0 0)
(-0.40981788 0 0)
(-0.40547047 0 0)
(-0.4023159 0 0)
(-0.40103413 0 0)
(-0.016850108 0 0)
(-0.048660247 0 0)
(-0.078271114 0 0)
(-0.10622376 0 0)
(-0.13275131 0 0)
(-0.15794806 0 0)
(-0.181507 0 0)
(-0.20341225 0 0)
(-0.22433879 0 0)
(-0.2442395 0 0)
(-0.26318073 0 0)
(-0.28136224 0 0)
(-0.29874064 0 0)
(-0.31533836 0 0)
(-0.33119689 0 0)
(-0.34632177 0 0)
(-0.36063403 0 0)
(-0.37405663 0 0)
(-0.3864992 0 0)
(-0.3978498 0 0)
(-0.40797772 0 0)
(-0.41674272 0 0)
(-0.42399819 0 0)
(-0.42962285 0 0)
(-0.43354063 0 0)
(-0.43569551 0 0)
(-0.43610203 0 0)
(-0.43484949 0 0)
(-0.43210834 0 0)
(-0.42810576 0 0)
(-0.42318923 0 0)
(-0.41777334 0 0)
(-0.41236023 0 0)
(-0.40755779 0 0)
(-0.40403128 0 0)
(-0.40247608 0 0)
(-0.0168155 0 0)
(-0.04852518 0 0)
(-0.078007735 0 0)
(-0.10581378 0 0)
(-0.13217518 0 0)
(-0.15718743 0 0)
(-0.18104506 0 0)
(-0.2034293 0 0)
(-0.2243476 0 0)
(-0.24424367 0 0)
(-0.26318105 0 0)
(-0.28138911 0 0)
(-0.29880904 0 0)
(-0.31547599 0 0)
(-0.33144577 0 0)
(-0.34673405 0 0)
(-0.36126374 0 0)
(-0.37497634 0 0)
(-0.38778766 0 0)
(-0.39958755 0 0)
(-0.41025732 0 0)
(-0.41966716 0 0)
(-0.42766998 0 0)
(-0.43411606 0 0)
(-0.43888987 0 0)
(-0.44192308 0 0)
(-0.44318782 0 0)
(-0.44269752 0 0)
(-0.44057294 0 0)
(-0.43699445 0 0)
(-0.43222003 0 0)
(-0.42660294 0 0)
(-0.42056847 0 0)
(-0.41463934 0 0)
(-0.40940261 0 0)
(-0.40553938 0 0)
(-0.40372157 0 0)
(-0.016791465 0 0)
(-0.048420322 0 0)
(-0.077791685 0 0)
(-0.10546412 0 0)
(-0.13167007 0 0)
(-0.15651007 0 0)
(-0.18018199 0 0)
(-0.20292344 0 0)
(-0.22436693 0 0)
(-0.24425593 0 0)
(-0.26318857 0 0)
(-0.2814124 0 0)
(-0.29886328 0 0)
(-0.31558332 0 0)
(-0.33163876 0 0)
(-0.34706541 0 0)
(-0.36178493 0 0)
(-0.37574254 0 0)
(-0.38886899 0 0)
(-0.40107169 0 0)
(-0.41223726 0 0)
(-0.4222385 0 0)
(-0.43093118 0 0)
(-0.43816795 0 0)
(-0.44379924 0 0)
(-0.44772132 0 0)
(-0.44988373 0 0)
(-0.45024894 0 0)
(-0.4488707 0 0)
(-0.44588527 0 0)
(-0.44150327 0 0)
(-0.43598053 0 0)
(-0.42969282 0 0)
(-0.42308417 0 0)
(-0.41666541 0 0)
(-0.41103287 0 0)
(-0.40684799 0 0)
(-0.40479785 0 0)
(-0.016777815 0 0)
(-0.048347164 0 0)
(-0.077624885 0 0)
(-0.10517753 0 0)
(-0.13124091 0 0)
(-0.15591632 0 0)
(-0.17941031 0 0)
(-0.20196645 0 0)
(-0.22381653 0 0)
(-0.24428219 0 0)
(-0.26320139 0 0)
(-0.28143683 0 0)
(-0.29890957 0 0)
(-0.31566759 0 0)
(-0.33179242 0 0)
(-0.34733283 0 0)
(-0.36220639 0 0)
(-0.3763767 0 0)
(-0.3897844 0 0)
(-0.40233955 0 0)
(-0.41394165 0 0)
(-0.42447714 0 0)
(-0.43381 0 0)
(-0.44178469 0 0)
(-0.44824471 0 0)
(-0.45305589 0 0)
(-0.45612365 0 0)
(-0.45740037 0 0)
(-0.45688384 0 0)
(-0.454632 0 0)
(-0.45081451 0 0)
(-0.44564881 0 0)
(-0.43941649 0 0)
(-0.43249459 0 0)
(-0.42533724 0 0)
(-0.41846841 0 0)
(-0.41245856 0 0)
(-0.40798346 0 0)
(-0.40571183 0 0)
(-0.016775094 0 0)
(-0.048305188 0 0)
(-0.077507503 0 0)
(-0.10495539 0 0)
(-0.1308882 0 0)
(-0.15541291 0 0)
(-0.17873785 0 0)
(-0.20111124 0 0)
(-0.22276146 0 0)
(-0.24368136 0 0)
(-0.2632314 0 0)
(-0.28147146 0 0)
(-0.29895492 0 0)
(-0.31574074 0 0)
(-0.33191666 0 0)
(-0.3475505 0 0)
(-0.36255619 0 0)
(-0.37690331 0 0)
(-0.39054465 0 0)
(-0.40340899 0 0)
(-0.41540291 0 0)
(-0.42642093 0 0)
(-0.43632932 0 0)
(-0.44498464 0 0)
(-0.45223204 0 0)
(-0.45791321 0 0)
(-0.46189739 0 0)
(-0.46410763 0 0)
(-0.46451214 0 0)
(-0.46310855 0 0)
(-0.45999962 0 0)
(-0.45536699 0 0)
(-0.44945482 0 0)
(-0.44253892 0 0)
(-0.43501492 0 0)
(-0.42735161 0 0)
(-0.42005692 0 0)
(-0.41370446 0 0)
(-0.4089534 0 0)
(-0.40648663 0 0)
(-0.048296074 0 0)
(-0.016780593 0 0)
(-0.077441603 0 0)
(-0.10479918 0 0)
(-0.13061554 0 0)
(-0.15499926 0 0)
(-0.17816553 0 0)
(-0.20036636 0 0)
(-0.22182163 0 0)
(-0.24253464 0 0)
(-0.26258398 0 0)
(-0.28151297 0 0)
(-0.29900878 0 0)
(-0.31581124 0 0)
(-0.33202387 0 0)
(-0.34773233 0 0)
(-0.36284205 0 0)
(-0.37733839 0 0)
(-0.3911853 0 0)
(-0.40431505 0 0)
(-0.41664725 0 0)
(-0.42809132 0 0)
(-0.43852644 0 0)
(-0.44780581 0 0)
(-0.45577855 0 0)
(-0.462291 0 0)
(-0.46718131 0 0)
(-0.47033195 0 0)
(-0.47167785 0 0)
(-0.47119933 0 0)
(-0.46893259 0 0)
(-0.46498481 0 0)
(-0.45956981 0 0)
(-0.45293486 0 0)
(-0.4453757 0 0)
(-0.43728535 0 0)
(-0.42914148 0 0)
(-0.42145751 0 0)
(-0.41477934 0 0)
(-0.4097805 0 0)
(-0.40712911 0 0)
(-0.077426182 0 0)
(-0.048311615 0 0)
(-0.016794845 0 0)
(-0.10471038 0 0)
(-0.13042336 0 0)
(-0.15468033 0 0)
(-0.17769807 0 0)
(-0.19973262 0 0)
(-0.22099772 0 0)
(-0.24150517 0 0)
(-0.26134699 0 0)
(-0.28083745 0 0)
(-0.29906757 0 0)
(-0.31588418 0 0)
(-0.33212433 0 0)
(-0.34788938 0 0)
(-0.36308603 0 0)
(-0.37770366 0 0)
(-0.39171674 0 0)
(-0.4050745 0 0)
(-0.41770374 0 0)
(-0.42952642 0 0)
(-0.44042678 0 0)
(-0.45027005 0 0)
(-0.45891448 0 0)
(-0.46620134 0 0)
(-0.47196317 0 0)
(-0.47605212 0 0)
(-0.47836171 0 0)
(-0.47884304 0 0)
(-0.47749831 0 0)
(-0.47436946 0 0)
(-0.46960601 0 0)
(-0.46343024 0 0)
(-0.4561121 0 0)
(-0.44793764 0 0)
(-0.43931372 0 0)
(-0.4307297 0 0)
(-0.42267793 0 0)
(-0.41570455 0 0)
(-0.41047221 0 0)
(-0.40765917 0 0)
(-0.10468898 0 0)
(-0.077452959 0 0)
(-0.048353785 0 0)
(-0.016819435 0 0)
(-0.13031394 0 0)
(-0.15445634 0 0)
(-0.1773368 0 0)
(-0.19921517 0 0)
(-0.22029921 0 0)
(-0.24060761 0 0)
(-0.26023537 0 0)
(-0.27951758 0 0)
(-0.29836177 0 0)
(-0.31596739 0 0)
(-0.33222447 0 0)
(-0.34803237 0 0)
(-0.36329521 0 0)
(-0.37801154 0 0)
(-0.39216856 0 0)
(-0.40571828 0 0)
(-0.41859873 0 0)
(-0.43074788 0 0)
(-0.44206584 0 0)
(-0.45241883 0 0)
(-0.46166848 0 0)
(-0.46966952 0 0)
(-0.47625586 0 0)
(-0.48125579 0 0)
(-0.48452897 0 0)
(-0.48599254 0 0)
(-0.48560684 0 0)
(-0.4833935 0 0)
(-0.4794321 0 0)
(-0.47387523 0 0)
(-0.46697451 0 0)
(-0.45899955 0 0)
(-0.45025045 0 0)
(-0.4411292 0 0)
(-0.43212814 0 0)
(-0.42374087 0 0)
(-0.41648865 0 0)
(-0.41104725 0 0)
(-0.40808324 0 0)
(-0.13028767 0 0)
(-0.10472198 0 0)
(-0.077519497 0 0)
(-0.04842689 0 0)
(-0.016854933 0 0)
(-0.15432979 0 0)
(-0.17708455 0 0)
(-0.19881541 0 0)
(-0.21972503 0 0)
(-0.23984032 0 0)
(-0.25926855 0 0)
(-0.27834074 0 0)
(-0.29696546 0 0)
(-0.31522592 0 0)
(-0.33233387 0 0)
(-0.34817235 0 0)
(-0.36348494 0 0)
(-0.37828027 0 0)
(-0.39254985 0 0)
(-0.40626073 0 0)
(-0.41935682 0 0)
(-0.43179093 0 0)
(-0.44347104 0 0)
(-0.4542746 0 0)
(-0.46407707 0 0)
(-0.47273287 0 0)
(-0.48007971 0 0)
(-0.48594919 0 0)
(-0.49016975 0 0)
(-0.49261855 0 0)
(-0.49322734 0 0)
(-0.49197926 0 0)
(-0.48891856 0 0)
(-0.48413232 0 0)
(-0.47781095 0 0)
(-0.47021108 0 0)
(-0.46162002 0 0)
(-0.45232501 0 0)
(-0.44273853 0 0)
(-0.43335812 0 0)
(-0.42465437 0 0)
(-0.41715001 0 0)
(-0.41151347 0 0)
(-0.4084176 0 0)
(-0.15430108 0 0)
(-0.13032725 0 0)
(-0.10480811 0 0)
(-0.077639339 0 0)
(-0.048533262 0 0)
(-0.01690044 0 0)
(-0.17694264 0 0)
(-0.19853636 0 0)
(-0.21928233 0 0)
(-0.2392133 0 0)
(-0.25844119 0 0)
(-0.27730936 0 0)
(-0.29572167 0 0)
(-0.31375209 0 0)
(-0.3315639 0 0)
(-0.34831054 0 0)
(-0.36366546 0 0)
(-0.37852104 0 0)
(-0.3928836 0 0)
(-0.40672706 0 0)
(-0.42000191 0 0)
(-0.43267612 0 0)
(-0.44467454 0 0)
(-0.45587883 0 0)
(-0.46617037 0 0)
(-0.47541902 0 0)
(-0.48346971 0 0)
(-0.49014801 0 0)
(-0.49527622 0 0)
(-0.49870101 0 0)
(-0.50031553 0 0)
(-0.50007137 0 0)
(-0.49796449 0 0)
(-0.49406285 0 0)
(-0.48848627 0 0)
(-0.48142623 0 0)
(-0.47316492 0 0)
(-0.4639861 0 0)
(-0.45418567 0 0)
(-0.44416844 0 0)
(-0.43442919 0 0)
(-0.42543781 0 0)
(-0.41769701 0 0)
(-0.41188643 0 0)
(-0.40866881 0 0)
(-0.17691185 0 0)
(-0.1543496 0 0)
(-0.13043327 0 0)
(-0.10496319 0 0)
(-0.077808732 0 0)
(-0.048669457 0 0)
(-0.016956387 0 0)
(-0.19837984 0 0)
(-0.21897052 0 0)
(-0.23872519 0 0)
(-0.25776678 0 0)
(-0.27643401 0 0)
(-0.29463161 0 0)
(-0.31243439 0 0)
(-0.33001121 0 0)
(-0.34752038 0 0)
(-0.36383847 0 0)
(-0.37874543 0 0)
(-0.39318048 0 0)
(-0.40712969 0 0)
(-0.42055397 0 0)
(-0.43343364 0 0)
(-0.44570375 0 0)
(-0.45725412 0 0)
(-0.46798366 0 0)
(-0.47776799 0 0)
(-0.48645425 0 0)
(-0.49387845 0 0)
(-0.4998649 0 0)
(-0.5042367 0 0)
(-0.50685152 0 0)
(-0.50762756 0 0)
(-0.5065271 0 0)
(-0.50357403 0 0)
(-0.49885781 0 0)
(-0.49250521 0 0)
(-0.48473949 0 0)
(-0.47584545 0 0)
(-0.46611949 0 0)
(-0.45584227 0 0)
(-0.44542456 0 0)
(-0.43536086 0 0)
(-0.4260992 0 0)
(-0.41814491 0 0)
(-0.41217397 0 0)
(-0.4088505 0 0)
(-0.19834616 0 0)
(-0.17697001 0 0)
(-0.1544764 0 0)
(-0.13062205 0 0)
(-0.10518463 0 0)
(-0.078031066 0 0)
(-0.048838175 0 0)
(-0.017021775 0 0)
(-0.218794 0 0)
(-0.23838338 0 0)
(-0.25724251 0 0)
(-0.27571425 0 0)
(-0.2937076 0 0)
(-0.31128708 0 0)
(-0.3286239 0 0)
(-0.34589202 0 0)
(-0.36302906 0 0)
(-0.37896106 0 0)
(-0.39345415 0 0)
(-0.4074878 0 0)
(-0.42103311 0 0)
(-0.4340821 0 0)
(-0.44658544 0 0)
(-0.45843845 0 0)
(-0.46954848 0 0)
(-0.47980794 0 0)
(-0.48907541 0 0)
(-0.49718388 0 0)
(-0.50396109 0 0)
(-0.50923433 0 0)
(-0.51282814 0 0)
(-0.51462107 0 0)
(-0.51455056 0 0)
(-0.51260255 0 0)
(-0.50881397 0 0)
(-0.50329779 0 0)
(-0.49620725 0 0)
(-0.48776466 0 0)
(-0.47827624 0 0)
(-0.46803227 0 0)
(-0.45731675 0 0)
(-0.44653141 0 0)
(-0.43616126 0 0)
(-0.42665427 0 0)
(-0.41850207 0 0)
(-0.4123883 0 0)
(-0.40896879 0 0)
(-0.21875274 0 0)
(-0.19841025 0 0)
(-0.17711539 0 0)
(-0.15470006 0 0)
(-0.13089436 0 0)
(-0.10547328 0 0)
(-0.078300868 0 0)
(-0.049034966 0 0)
(-0.017096874 0 0)
(-0.238187 0 0)
(-0.25687649 0 0)
(-0.27515849 0 0)
(-0.29294773 0 0)
(-0.31031006 0 0)
(-0.3274176 0 0)
(-0.34444176 0 0)
(-0.36133063 0 0)
(-0.37812862 0 0)
(-0.39371456 0 0)
(-0.40781685 0 0)
(-0.42145741 0 0)
(-0.43464539 0 0)
(-0.44734426 0 0)
(-0.45945325 0 0)
(-0.47089662 0 0)
(-0.48157828 0 0)
(-0.49136203 0 0)
(-0.50009069 0 0)
(-0.50759951 0 0)
(-0.51371124 0 0)
(-0.51824425 0 0)
(-0.52104327 0 0)
(-0.52200673 0 0)
(-0.52109319 0 0)
(-0.51830163 0 0)
(-0.51369807 0 0)
(-0.50741206 0 0)
(-0.49960355 0 0)
(-0.49051977 0 0)
(-0.48046768 0 0)
(-0.469745 0 0)
(-0.45861861 0 0)
(-0.44749348 0 0)
(-0.43684732 0 0)
(-0.42711166 0 0)
(-0.41878144 0 0)
(-0.41253763 0 0)
(-0.40903395 0 0)
(-0.23813961 0 0)
(-0.21881847 0 0)
(-0.1985704 0 0)
(-0.17737382 0 0)
(-0.15502256 0 0)
(-0.13124685 0 0)
(-0.10582601 0 0)
(-0.078621634 0 0)
(-0.049262615 0 0)
(-0.017180956 0 0)
(-0.25666798 0 0)
(-0.27476571 0 0)
(-0.29236136 0 0)
(-0.30951181 0 0)
(-0.32639066 0 0)
(-0.34317609 0 0)
(-0.35981879 0 0)
(-0.37635694 0 0)
(-0.39286065 0 0)
(-0.40811914 0 0)
(-0.42184075 0 0)
(-0.43514239 0 0)
(-0.44800254 0 0)
(-0.46033067 0 0)
(-0.47205854 0 0)
(-0.48310698 0 0)
(-0.49335393 0 0)
(-0.50264422 0 0)
(-0.51081459 0 0)
(-0.51769949 0 0)
(-0.523119 0 0)
(-0.52689197 0 0)
(-0.52887954 0 0)
(-0.52900992 0 0)
(-0.52725343 0 0)
(-0.52363537 0 0)
(-0.51823384 0 0)
(-0.5111997 0 0)
(-0.50271357 0 0)
(-0.49301948 0 0)
(-0.4824415 0 0)
(-0.4712692 0 0)
(-0.4597679 0 0)
(-0.44833265 0 0)
(-0.43742658 0 0)
(-0.42748424 0 0)
(-0.41899088 0 0)
(-0.41263119 0 0)
(-0.40905245 0 0)
(-0.25661948 0 0)
(-0.23820937 0 0)
(-0.21899186 0 0)
(-0.19885483 0 0)
(-0.17774119 0 0)
(-0.15543885 0 0)
(-0.13168051 0 0)
(-0.10624298 0 0)
(-0.078987376 0 0)
(-0.049516836 0 0)
(-0.01727382 0 0)
(-0.27454207 0 0)
(-0.29194763 0 0)
(-0.3088921 0 0)
(-0.32555247 0 0)
(-0.3421023 0 0)
(-0.35849858 0 0)
(-0.37477786 0 0)
(-0.39101178 0 0)
(-0.40725087 0 0)
(-0.42219505 0 0)
(-0.43558814 0 0)
(-0.44858092 0 0)
(-0.46109093 0 0)
(-0.47306193 0 0)
(-0.48443003 0 0)
(-0.49508134 0 0)
(-0.5048706 0 0)
(-0.51364582 0 0)
(-0.52123981 0 0)
(-0.52747732 0 0)
(-0.53217914 0 0)
(-0.53517019 0 0)
(-0.53633808 0 0)
(-0.53563149 0 0)
(-0.53304257 0 0)
(-0.52860908 0 0)
(-0.52243662 0 0)
(-0.51468778 0 0)
(-0.50554881 0 0)
(-0.49528117 0 0)
(-0.4842088 0 0)
(-0.47262354 0 0)
(-0.46077337 0 0)
(-0.44905313 0 0)
(-0.43791342 0 0)
(-0.42778085 0 0)
(-0.41914065 0 0)
(-0.41267752 0 0)
(-0.4090325 0 0)
(-0.27448629 0 0)
(-0.25669782 0 0)
(-0.23839583 0 0)
(-0.21929979 0 0)
(-0.1992597 0 0)
(-0.17822034 0 0)
(-0.1559516 0 0)
(-0.13219027 0 0)
(-0.10672134 0 0)
(-0.079401549 0 0)
(-0.049799352 0 0)
(-0.017352897 0 0)
(-0.29171209 0 0)
(-0.30845751 0 0)
(-0.32490188 0 0)
(-0.34122207 0 0)
(-0.35737925 0 0)
(-0.3734036 0 0)
(-0.38936339 0 0)
(-0.40532142 0 0)
(-0.42130778 0 0)
(-0.43599732 0 0)
(-0.44909973 0 0)
(-0.46175818 0 0)
(-0.47393359 0 0)
(-0.48557396 0 0)
(-0.49658053 0 0)
(-0.5068144 0 0)
(-0.51612725 0 0)
(-0.52436434 0 0)
(-0.53135774 0 0)
(-0.53692055 0 0)
(-0.54086781 0 0)
(-0.54306196 0 0)
(-0.543411 0 0)
(-0.54187507 0 0)
(-0.53846117 0 0)
(-0.53323658 0 0)
(-0.52631588 0 0)
(-0.51787974 0 0)
(-0.5081291 0 0)
(-0.49731996 0 0)
(-0.48578926 0 0)
(-0.47381926 0 0)
(-0.46165215 0 0)
(-0.44967264 0 0)
(-0.43831539 0 0)
(-0.42801081 0 0)
(-0.4192388 0 0)
(-0.412683 0 0)
(-0.40897109 0 0)
(-0.29165405 0 0)
(-0.27456424 0 0)
(-0.25690029 0 0)
(-0.23873108 0 0)
(-0.21974354 0 0)
(-0.19978522 0 0)
(-0.17880382 0 0)
(-0.15655326 0 0)
(-0.13277668 0 0)
(-0.10725827 0 0)
(-0.079856676 0 0)
(-0.049983929 0 0)
(-0.017359936 0 0)
(-0.30820763 0 0)
(-0.32444577 0 0)
(-0.34054128 0 0)
(-0.3564616 0 0)
(-0.37223642 0 0)
(-0.38793202 0 0)
(-0.40360874 0 0)
(-0.41930775 0 0)
(-0.43509678 0 0)
(-0.44956603 0 0)
(-0.46235513 0 0)
(-0.47469887 0 0)
(-0.48656974 0 0)
(-0.49788128 0 0)
(-0.50850193 0 0)
(-0.51829739 0 0)
(-0.52711656 0 0)
(-0.5347934 0 0)
(-0.54115244 0 0)
(-0.54600933 0 0)
(-0.54919645 0 0)
(-0.55058572 0 0)
(-0.55010851 0 0)
(-0.54774379 0 0)
(-0.54352294 0 0)
(-0.53752508 0 0)
(-0.52988861 0 0)
(-0.52080047 0 0)
(-0.51046642 0 0)
(-0.49915227 0 0)
(-0.48719464 0 0)
(-0.47487339 0 0)
(-0.46241342 0 0)
(-0.45019715 0 0)
(-0.43864422 0 0)
(-0.42818397 0 0)
(-0.4192936 0 0)
(-0.41260939 0 0)
(-0.40886107 0 0)
(-0.30814634 0 0)
(-0.29173611 0 0)
(-0.27477507 0 0)
(-0.25726377 0 0)
(-0.23921121 0 0)
(-0.2203179 0 0)
(-0.20042714 0 0)
(-0.17949461 0 0)
(-0.15724684 0 0)
(-0.13343571 0 0)
(-0.10785225 0 0)
(-0.080143842 0 0)
(-0.05001351 0 0)
(-0.017367412 0 0)
(-0.32418354 0 0)
(-0.34006057 0 0)
(-0.35575179 0 0)
(-0.37128193 0 0)
(-0.38671551 0 0)
(-0.40211565 0 0)
(-0.41752787 0 0)
(-0.433026 0 0)
(-0.44865768 0 0)
(-0.46288689 0 0)
(-0.47537805 0 0)
(-0.48744296 0 0)
(-0.49901452 0 0)
(-0.50997353 0 0)
(-0.52019103 0 0)
(-0.52952783 0 0)
(-0.53782951 0 0)
(-0.54491998 0 0)
(-0.55061435 0 0)
(-0.55473608 0 0)
(-0.55713747 0 0)
(-0.55772073 0 0)
(-0.55642372 0 0)
(-0.5532444 0 0)
(-0.54823127 0 0)
(-0.54149056 0 0)
(-0.53316566 0 0)
(-0.52345709 0 0)
(-0.51258022 0 0)
(-0.5007934 0 0)
(-0.48844225 0 0)
(-0.47579662 0 0)
(-0.46307176 0 0)
(-0.45064055 0 0)
(-0.4389078 0 0)
(-0.42830719 0 0)
(-0.41920492 0 0)
(-0.4124621 0 0)
(-0.40870494 0 0)
(-0.32411858 0 0)
(-0.30823092 0 0)
(-0.29195785 0 0)
(-0.27515437 0 0)
(-0.25778135 0 0)
(-0.23983793 0 0)
(-0.22102421 0 0)
(-0.20118431 0 0)
(-0.18028456 0 0)
(-0.15802524 0 0)
(-0.13416378 0 0)
(-0.10820775 0 0)
(-0.080198258 0 0)
(-0.050044711 0 0)
(-0.017375737 0 0)
(-0.33978452 0 0)
(-0.35525156 0 0)
(-0.37054196 0 0)
(-0.38572266 0 0)
(-0.40085227 0 0)
(-0.41598122 0 0)
(-0.4311821 0 0)
(-0.44651152 0 0)
(-0.46197261 0 0)
(-0.47598698 0 0)
(-0.48821614 0 0)
(-0.50000706 0 0)
(-0.5112551 0 0)
(-0.52184319 0 0)
(-0.53164119 0 0)
(-0.54049897 0 0)
(-0.54825137 0 0)
(-0.55472042 0 0)
(-0.55972436 0 0)
(-0.56309753 0 0)
(-0.56471487 0 0)
(-0.56448434 0 0)
(-0.56236726 0 0)
(-0.55838214 0 0)
(-0.5526018 0 0)
(-0.54514198 0 0)
(-0.53616472 0 0)
(-0.52587202 0 0)
(-0.51448306 0 0)
(-0.5022587 0 0)
(-0.48954461 0 0)
(-0.47660373 0 0)
(-0.46363627 0 0)
(-0.45101018 0 0)
(-0.43911587 0 0)
(-0.42820273 0 0)
(-0.41899256 0 0)
(-0.41227603 0 0)
(-0.40849982 0 0)
(-0.33971255 0 0)
(-0.32420567 0 0)
(-0.3084621 0 0)
(-0.29235693 0 0)
(-0.27570137 0 0)
(-0.25845477 0 0)
(-0.24060285 0 0)
(-0.2218551 0 0)
(-0.20205356 0 0)
(-0.18117394 0 0)
(-0.15888639 0 0)
(-0.13459464 0 0)
(-0.10826674 0 0)
(-0.080259302 0 0)
(-0.050080376 0 0)
(-0.017384732 0 0)
(-0.3549635 0 0)
(-0.37002069 0 0)
(-0.38495234 0 0)
(-0.39981641 0 0)
(-0.41466871 0 0)
(-0.42958213 0 0)
(-0.44460589 0 0)
(-0.4597518 0 0)
(-0.47506621 0 0)
(-0.48890799 0 0)
(-0.500887 0 0)
(-0.51237925 0 0)
(-0.5232865 0 0)
(-0.53348688 0 0)
(-0.54284395 0 0)
(-0.55119752 0 0)
(-0.55837118 0 0)
(-0.56418913 0 0)
(-0.56848171 0 0)
(-0.57109047 0 0)
(-0.5719037 0 0)
(-0.57086221 0 0)
(-0.5679364 0 0)
(-0.56316679 0 0)
(-0.55664084 0 0)
(-0.54849694 0 0)
(-0.53889824 0 0)
(-0.5280555 0 0)
(-0.516193 0 0)
(-0.50356329 0 0)
(-0.49051634 0 0)
(-0.47730509 0 0)
(-0.46411752 0 0)
(-0.45131625 0 0)
(-0.43899399 0 0)
(-0.42790141 0 0)
(-0.41875042 0 0)
(-0.41204488 0 0)
(-0.40824656 0 0)
(-0.35488947 0 0)
(-0.33979961 0 0)
(-0.32444497 0 0)
(-0.3088809 0 0)
(-0.29293366 0 0)
(-0.27641157 0 0)
(-0.25927543 0 0)
(-0.24150809 0 0)
(-0.22281086 0 0)
(-0.20303109 0 0)
(-0.18215487 0 0)
(-0.15939227 0 0)
(-0.13466302 0 0)
(-0.1083334 0 0)
(-0.080323801 0 0)
(-0.050117085 0 0)
(-0.017394596 0 0)
(-0.36971948 0 0)
(-0.38441051 0 0)
(-0.39901575 0 0)
(-0.41359555 0 0)
(-0.42822293 0 0)
(-0.44294882 0 0)
(-0.45778369 0 0)
(-0.47277488 0 0)
(-0.48798746 0 0)
(-0.50166629 0 0)
(-0.51337433 0 0)
(-0.52455352 0 0)
(-0.53510427 0 0)
(-0.54489829 0 0)
(-0.55378597 0 0)
(-0.56160084 0 0)
(-0.56816911 0 0)
(-0.57331738 0 0)
(-0.57687552 0 0)
(-0.57870583 0 0)
(-0.57872276 0 0)
(-0.57686902 0 0)
(-0.57314343 0 0)
(-0.56760621 0 0)
(-0.5603655 0 0)
(-0.55156626 0 0)
(-0.54138435 0 0)
(-0.53002765 0 0)
(-0.51772392 0 0)
(-0.50472156 0 0)
(-0.49137024 0 0)
(-0.47791192 0 0)
(-0.46452755 0 0)
(-0.45117847 0 0)
(-0.43858858 0 0)
(-0.42758451 0 0)
(-0.41847393 0 0)
(-0.4117719 0 0)
(-0.40794124 0 0)
(-0.36964038 0 0)
(-0.35497873 0 0)
(-0.34004502 0 0)
(-0.32488061 0 0)
(-0.30948489 0 0)
(-0.29368271 0 0)
(-0.27728396 0 0)
(-0.26024499 0 0)
(-0.24254432 0 0)
(-0.22388554 0 0)
(-0.2041136 0 0)
(-0.1827266 0 0)
(-0.15947715 0 0)
(-0.13474294 0 0)
(-0.10840987 0 0)
(-0.080391966 0 0)
(-0.050156463 0 0)
(-0.017404853 0 0)
(-0.38409768 0 0)
(-0.39844914 0 0)
(-0.41276237 0 0)
(-0.42711279 0 0)