/*--------------------------------*- C++ -*----------------------------------*\
| =========                 |                                                 |
| \\      /  F ield         | OpenFOAM: The Open Source CFD Toolbox           |
|  \\    /   O peration     | Version:  v2012                                 |
|   \\  /    A nd           | Website:  www.openfoam.com                      |
|    \\/     M anipulation  |                                                 |
\*---------------------------------------------------------------------------*/
FoamFile
{
    version     2.0;
    format      ascii;
    class       surfaceScalarField;
    location    "21.828410048542551";
    object      meshPhi;
}
// * * * * * * * * * * * * * * * * * * * * * * * * * * * * * * * * * * * * * //

dimensions      [0 3 -1 0 0 0 0];
oriented        oriented;


internalField   nonuniform List<scalar> 
18180
(
-1.0731959e-13
0.057403049
0
0.052390628
-1.0339335e-13
0.11550461
1.0730138e-13
0.047819337
0
0.10603105
9.9542732e-14
0.17428089
0
0.044445753
0
0.09719353
0
0.16068699
9.5886554e-14
0.23121136
-2.4486186e-17
0.042000734
0
0.089896708
0
0.14764405
0
0.21414034
9.236786e-14
0.28547316
2.5073537e-17
0.040070905
5.1699036e-14
0.084332562
0
0.13667399
0
0.19775928
0
0.26507877
8.8981791e-14
0.33568557
1.073922e-13
0.038372639
-5.1706025e-14
0.079945259
-2.5026021e-17
0.12779562
-4.7960278e-14
0.18321002
0
0.24543372
0
0.3124558
8.5721701e-14
0.38228436
0
0.036717399
0
0.07606845
0
0.12042874
-4.7992321e-14
0.17087995
-4.6200741e-14
0.22749456
0
0.2899286
0
0.35632661
0
0.42468776
0
0.035056804
0
0.072422225
0
0.11404677
0
0.16057491
-4.6232045e-14
0.2119699
0
0.2691645
-4.2500606e-17
0.33155485
0
0.39662316
7.9561456e-14
0.46356263
0
0.033383643
0
0.068862268
4.9814946e-14
0.10818023
4.7980425e-14
0.15171701
4.6239185e-14
0.19889757
4.4515372e-14
0.25092296
4.2898731e-14
0.30857186
-8.2641207e-14
0.37003075
0
0.43346644
0
0.49864607
-1.0743887e-13
0.031709045
-2.5992606e-17
0.065352567
0
0.10257382
0
0.14369971
4.622205e-14
0.18760978
-4.4523259e-14
0.2351039
-2.1586684e-17
0.28806373
-4.1328356e-14
0.34551664
7.9580574e-14
0.40537135
0
0.46686721
0
0.53058375
0
0.030047379
0
0.061891013
0
0.097120858
0
0.13615762
0
0.17748704
0
0.22139528
0
0.27013325
-4.1336964e-14
0.32345558
3.9816165e-14
0.37945918
0
0.4373989
0
0.49714264
0
0.5592483
2.6870329e-14
0.028407168
0
0.058489174
0
0.09178777
4.799431e-14
0.12890022
0
0.1680924
2.2361736e-17
0.20911811
-4.2923287e-14
0.2540654
-4.1325136e-14
0.30353434
3.9806071e-14
0.35589975
-3.8360443e-14
0.41015612
0
0.46637877
0
0.5244557
0
0.585442
2.6857445e-14
0.026796315
2.5881495e-14
0.05516318
0
0.086579502
0
0.12186184
0
0.15913625
0
0.19769196
4.2909078e-14
0.23940415
-4.1354536e-14
0.28538387
3.9834495e-14
0.33432977
-1.69874e-17
0.3851045
7.3887888e-14
0.43787803
-2.6814995e-17
0.49255632
0
0.54926121
-6.6070107e-14
0.60909754
-1.4308794e-17
0.025225913
2.5869139e-14
0.051934675
0
0.081517779
0
0.11503592
0
0.15051766
0
0.18688332
0
0.22583022
-4.1362521e-14
0.26861104
0
0.31428238
3.8379479e-14
0.3618482
-3.6953365e-14
0.41139604
7.1205771e-14
0.46288551
6.857732e-14
0.51625552
0
0.57172936
0
0.63075957
0
0.023705451
-5.1766363e-14
0.048823441
0
0.076630533
-2.4000986e-14
0.10844123
0
0.14221128
-4.4574362e-14
0.17653615
0
0.21300585
0
0.25293578
0
0.29558332
0
0.34006136
0
0.38650839
1.0681831e-13
0.43505326
0
0.48550653
6.6075621e-14
0.53770479
0
0.59214538
0
0.65030633
0
0.022240799
0
0.045842521
2.4916939e-14
0.071944906
-2.4015228e-14
0.10209804
0
0.13422557
0
0.16661157
0
0.20079975
0
0.23819856
0
0.27815473
0
0.31974727
-3.699001e-14
0.36320583
1.3918682e-17
0.4088576
3.4308566e-14
0.45655016
-6.6106584e-14
0.50597726
0
0.55712941
0
0.61064417
-1.5877575e-17
0.66827694
2.6874528e-14
0.020836439
-2.5884002e-14
0.043000706
0
0.067481699
-1.3696059e-17
0.096026511
2.3123828e-14
0.12657178
-2.2279208e-14
0.15709848
0
0.18914225
0
0.22424869
-3.9868721e-14
0.26182692
0
0.30089045
0
0.34160058
3.5628385e-14
0.38432204
0
0.42913729
-1.1330696e-17
0.47600939
-3.1843412e-14
0.52454031
6.1344493e-14
0.57471272
0
0.62749859
0
0.6845853
0
0.019497786
-2.5870687e-14
0.040299741
0
0.063251577
1.3839963e-17
0.090244104
-1.3234524e-17
0.11925493
0
0.14799891
0
0.17800897
0
0.21098993
-3.9875421e-14
0.24641965
3.8400225e-14
0.28325229
0
0.32148695
0
0.36151543
0
0.40345021
-3.3071136e-14
0.44754253
3.1855316e-14
0.49369624
3.0683224e-14
0.5413118
0
0.59065469
5.6949147e-14
0.64282307
5.484524e-14
0.6995837
0
0.018227806
-2.5884206e-14
0.037740051
-2.4917466e-14
0.059255945
2.4002542e-14
0.084758946
1.3423313e-17
0.11228056
-1.1348161e-17
0.1393135
0
0.16738569
2.0695615e-14
0.1983785
0
0.2318167
-3.8425325e-14
0.26661606
-3.7020832e-14
0.30268891
0
0.34035797
3.4344453e-14
0.37961907
3.3083968e-14
0.42074674
3.187855e-14
0.46423154
3.0695745e-14
0.50967771
2.9565492e-14
0.55650067
0
0.60510011
0
0.65676682
5.2844687e-14
0.71317127
0
0.017029727
0
0.035324458
-2.4917398e-14
0.055494362
1.4122414e-17
0.079571682
-2.3138738e-14
0.10564682
0
0.13104051
-2.1490178e-14
0.15726722
-2.0697432e-14
0.18638733
1.9943266e-14
0.21795755
3.8432205e-14
0.25085587
0
0.28499782
0
0.32053075
0
0.3573857
0
0.39579354
3.1881692e-14
0.4363741
0
0.47937711
-8.4791979e-18
0.52418953
0
0.57023637
0
0.61816609
0
0.66942984
5.0917311e-14
0.72568539
0
0.015904793
0
0.033054675
-2.4930431e-14
0.051962979
1.4256248e-17
0.074675965
2.3139018e-14
0.099348518
0
0.12317386
2.1480968e-14
0.14764831
-2.0698955e-14
0.17499924
-1.9945519e-14
0.20481556
1.9219136e-14
0.23589092
0
0.26821384
0
0.3018201
-3.4381007e-14
0.33649417
0
0.37246411
0
0.41033686
0
0.45058731
0
0.49316287
-2.8509902e-14
0.53735407
0
0.58266144
0
0.62997974
0
0.68095369
0
0.7370695
1.3437551e-14
0.014852569
0
0.030925938
2.4930266e-14
0.048654247
-2.4016703e-14
0.070060112
-2.3125273e-14
0.093372525
-2.228301e-14
0.11570745
-2.1481644e-14
0.13852441
0
0.16420317
3.9875172e-14
0.19236809
1.9212835e-14
0.22169108
0
0.25226768
0
0.28411913
0
0.31683868
-3.3134002e-14
0.350565
0
0.38604504
0
0.42370087
-2.9616247e-14
0.46363422
2.8524827e-14
0.50579211
-2.7471999e-14
0.54932256
-5.2908611e-14
0.5938636
5.095062e-14
0.64064888
0
0.69143646
4.7271656e-14
0.74755257
-1.3437549e-14
0.013870834
6.8189577e-18
0.028932492
0
0.045556775
0
0.065710346
2.3125215e-14
0.087707505
0
0.10863284
0
0.12988846
-2.0701238e-14
0.15398482
-1.99491e-14
0.18059506
-1.9224078e-14
0.20823679
0
0.23711765
1.7851296e-14
0.26732721
0
0.29831177
0
0.33005615
-3.1933111e-14
0.36336024
0
0.39871015
0
0.43609182
-2.8540454e-14
0.47572656
0
0.51737279
2.6465546e-14
0.56015883
2.5487907e-14
0.60396251
4.9093992e-14
0.65028256
0
0.70095356
0
0.7570782
-1.3437548e-14
0.012956551
1.2941685e-14
0.027067641
-2.49232e-14
0.042657582
0
0.061614177
0
0.082340724
-2.2294627e-14
0.10193842
0
0.12173243
-2.0692078e-14
0.14433003
1.9940417e-14
0.16947439
0
0.19550954
-8.2269376e-18
0.2227448
0
0.25138317
1.7205181e-14
0.28078238
0
0.31078543
0
0.34209308
3.0766633e-14
0.37538864
-2.9646985e-14
0.41060407
0
0.44771823
2.7496196e-14
0.48695447
2.6487911e-14
0.52798508
-5.8089651e-18
0.56996689
0
0.61303544
0
0.65893515
0
0.70959698
-7.6350737e-18
0.76584994
7.1600677e-18
0.012106371
0
0.025324863
-1.2464816e-14
0.039943525
1.2015562e-14
0.057758737
0
0.077260246
-2.2283432e-14
0.095611891
-2.1482667e-14
0.11404584
0
0.13522241
0
0.15898215
0
0.18349012
0
0.2091318
3.5700578e-14
0.23625516
0
0.26415663
-1.6577206e-14
0.29258216
0
0.32213334
0
0.35357003
2.966228e-14
0.38688477
0
0.42183961
-2.7512602e-14
0.45862335
-7.0548735e-18
0.4973715
2.5524598e-14
0.53766069
-5.2664227e-18
0.5788139
0
0.6211531
0
0.66671414
0
0.71743469
0
0.77384632
-1.3437563e-14
0.01131592
0
0.023696659
0
0.037403343
-7.3554741e-18
0.054131789
0
0.072456689
0
0.089638113
0
0.10681395
0
0.1266452
0
0.14909029
0
0.17214951
-8.2707927e-18
0.1962622
0
0.221923
-1.7219579e-14
0.2483808
0
0.27533652
1.5984143e-14
0.30332969
0
0.33303758
2.9676969e-14
0.36460199
-2.8579754e-14
0.39776185
0
0.43244955
-2.6522062e-14
0.46884994
-2.554192e-14
0.50697921
5.6536004e-18
0.54648994
-2.3684789e-14
0.58674901
-2.2807381e-14
0.62839528
0
0.67367702
0
0.72456201
0
0.78120892
0
0.010581519
1.2934495e-14
0.022175608
1.2464622e-14
0.035026243
1.2008163e-14
0.050721758
1.1562356e-14
0.067920724
5.578644e-18
0.0840028
2.1473488e-14
0.1000177
0
0.11857791
1.9943012e-14
0.13976891
0
0.16145859
-1.8525791e-14
0.18411152
0
0.2083657
0
0.23343016
1.6585386e-14
0.25896713
-1.5989006e-14
0.28551386
0
0.31364663
0
0.34353966
0
0.37507926
2.7545575e-14
0.40805266
0
0.44245316
-2.5552824e-14
0.47838297
0
0.51584692
5.1319804e-18
0.5544639
0
0.59384151
0
0.63483296
4.2320836e-14
0.67992309
0
0.73101402
3.9263858e-14
0.78791802
0
0.0098994698
-1.2941308e-14
0.020755479
0
0.032803701
7.4002584e-18
0.047518165
0
0.063643
-1.114164e-14
0.078693551
-2.1473556e-14
0.093638581
0
0.11100108
0
0.13098987
-1.9231198e-14
0.15138276
0
0.17265024
1.7865142e-14
0.19556059
1.7211366e-14
0.21927903
0
0.24343488
-5.4908274e-18
0.26861045
0
0.29530919
1.4851729e-14
0.32361558
0
0.35351694
0
0.38494965
-2.6556707e-14
0.41775023
-2.557769e-14
0.45182235
0
0.48724517
2.3719488e-14
0.52394369
4.5673943e-14
0.56165797
-3.7727027e-18
0.60014283
2.1175902e-14
0.64054276
0
0.68548363
0
0.7368753
0
0.79408575
0
0.0092607491
0
0.019429893
0
0.030724336
1.2000721e-14
0.0445118
7.1580492e-18
0.059613502
0
0.073698091
2.147821e-14
0.087656197
4.9566354e-18
0.10389351
-1.994402e-14
0.12272549
1.9222728e-14
0.14189105
-1.8536673e-14
0.16184564
0
0.18347578
0
0.205903
0
0.22871212
-1.5997296e-14
0.25255913
-1.5417525e-14
0.27793044
-1.4857526e-14
0.30477176
-1.4311634e-14
0.3330234
0
0.36283809
0
0.39421368
2.5588009e-14
0.42682361
2.4643873e-14
0.46055606
0
0.49540411
0
0.53129947
0
0.56807573
-3.3611366e-18
0.60573371
2.0404576e-14
0.64557096
3.9294343e-14
0.6904523
0
0.74217911
-3.6461733e-14
0.79972004
4.2550289e-05
0.010160592
0
0.018184354
0
0.028778648
1.2008148e-14
0.041688503
1.1562231e-14
0.055821321
-1.1141554e-14
0.069001466
1.0736793e-14
0.082049184
-1.0352199e-14
0.09723092
9.9775627e-15
0.11494828
0
0.13295045
0
0.15166638
0
0.17208033
0
0.19327285
0
0.21477211
-1.6000765e-14
0.2373243
0
0.26143783
-5.1365647e-18
0.28693006
0
0.31362023
0
0.34171545
0
0.37155162
2.5605213e-14
0.40290824
0
0.43531375
4.7507538e-14
0.46863605
2.2870705e-14
0.50285598
-2.2026375e-14
0.53792137
-2.1203616e-14
0.57381767
-2.0419101e-14
0.61064312
1.9661401e-14
0.65000201
-3.7867847e-14
0.69488005
-3.6472346e-14
0.74701564
0
0.80489614
7.1620922e-05
0.010142096
0.00012162084
0.019797541
0
0.026951701
0
0.039035468
0
0.052253745
-1.114707e-14
0.064589067
4.6075829e-18
0.07679524
1.0347339e-14
0.09098959
-5.3973201e-18
0.10763505
9.6165377e-15
0.12453262
0
0.14208279
0
0.16133924
0
0.18135701
0
0.20159049
5.6187073e-18
0.22287727
-5.5245765e-18
0.24578451
0
0.27002026
0
0.29527582
1.3806795e-14
0.3217011
1.3302498e-14
0.34981618
0
0.37976184
0
0.41105263
0
0.4431863
-2.2889571e-14
0.47605382
-2.2040346e-14
0.50962095
0
0.54389108
0
0.57888615
-2.6017099e-18
0.61496114
-3.7888687e-14
0.65390035
3.6485286e-14
0.69885301
0
0.75141076
3.3852162e-14
0.80962349
8.8723644e-05
0.010126393
0.00020473764
0.019817269
0.00019303586
0.029137476
0
0.036538782
0
0.04889754
0
0.060447061
-1.0741408e-14
0.071877099
1.0352356e-14
0.085146619
-1.9944969e-14
0.10076367
-9.616725e-15
0.11660688
4.1239557e-18
0.13306334
0
0.15122098
0
0.17012166
0
0.18913665
0
0.20919518
1.5423575e-14
0.23094009
0
0.25398092
1.4328563e-14
0.27791329
-4.2462293e-18
0.30279892
0
0.32914739
3.7569855e-18
0.35744958
0
0.38750117
0
0.41863929
-5.9984426e-18
0.45045413
0
0.4828273
0
0.51575426
0
0.54922583
2.954656e-18
0.58337868
-1.8959196e-14
0.6187347
-3.6509338e-14
0.65734089
3.5157484e-14
0.70242977
0
0.75544045
-3.2624872e-14
0.81395494
9.5357399e-05
0.010116444
0.00025363416
0.019833691
0.00032515334
0.029267759
0.00026178699
0.039177966
0
0.045727738
0
0.056560627
0
0.067272348
-4.9311398e-18
0.079677637
9.9780252e-15
0.094311201
-9.6122334e-15
0.10914517
-4.1185434e-18
0.12457352
4.1921273e-18
0.14169097
0
0.1595319
0
0.17738185
0
0.19625085
0
0.21687474
0
0.23877628
1.4333135e-14
0.26145875
1.3814212e-14
0.2849325
-3.8511069e-18
0.30964507
-1.2830413e-14
0.33621874
-1.2356915e-14
0.36476892
0
0.39478368
0
0.42570196
-2.208431e-14
0.45712966
0
0.48899756
0
0.52128416
-1.9709379e-14
0.55398703
0
0.58731753
-1.9922311e-18
0.62204555
1.7591048e-14
0.6603942
-3.0550647e-18
0.7056855
0
0.75912119
0
0.81791469
9.303297e-05
0.010111986
0.00027258207
0.019853416
0.0004029761
0.029380886
0.00044103185
0.039425598
0.00032667049
0.048621259
0
0.052893964
0
0.062960833
0
0.074558342
0
0.08825076
-9.6123544e-15
0.10212236
0
0.11658244
8.9360831e-15
0.13271867
-8.6102243e-15
0.14955602
0
0.16629429
0
0.18401598
-5.8355912e-18
0.20356196
1.4878971e-14
0.22437339
0
0.24586331
0
0.26802549
-1.3322152e-14
0.29126675
-1.2837401e-14
0.31617175
0
0.34307853
1.1914864e-14
0.37172201
0
0.40159952
0
0.43223601
-2.1283762e-14
0.46325871
0
0.49459322
0
0.52624694
-1.8992272e-14
0.5582139
1.8284277e-14
0.59079471
1.7602175e-14
0.62493524
3.3900263e-14
0.66313276
3.2646124e-14
0.70866542
0
0.76251903
0
0.82152966
8.3251402e-05
0.010112946
0.00026589408
0.019875982
0.00043319979
0.029484641
0.00054649029
0.039638155
0.00054986381
0.049000861
0.00037739494
0.055840473
1.0736673e-14
0.05890418
0
0.069766536
0
0.082560719
-4.5820634e-18
0.095514735
9.2701601e-15
0.10906443
0
0.12427327
0
0.14016207
8.3045619e-15
0.15584541
-1.6012596e-14
0.1724641
-1.5437298e-14
0.19097302
0
0.21074167
0
0.23109199
0
0.25200388
0
0.2738909
1.2843805e-14
0.29727352
0
0.32252803
1.1919718e-14
0.34965892
1.1485181e-14
0.37828026
0
0.40796584
-2.1298283e-14
0.43829818
0
0.46885604
0
0.49964203
0
0.53069552
-2.6726781e-18
0.56197988
0
0.59382662
-1.5108096e-18
0.62748162
-1.633413e-14
0.66561412
0
0.71141999
0
0.76562792
0
0.82481956
6.7536003e-05
0.010119343
0.00023790122
0.019901645
0.00042261058
0.029577868
0.00058731721
0.039821812
0.00068081478
0.049319323
0.00063497829
0.05641503
0.00041268955
0.061788788
0
0.065266968
0
0.077218199
0
0.089301734
-4.0944461e-18
0.10199375
-8.932329e-15
0.11632879
0
0.13131935
-8.3050624e-15
0.14600474
8.009814e-15
0.1615694
0
0.17908233
0
0.19785037
0
0.21710978
1.3832009e-14
0.23682509
0
0.25743527
1.2846062e-14
0.2794328
1.2379218e-14
0.30316018
0
0.32873181
-1.1493894e-14
0.35594699
0
0.38445275
0
0.41392997
0
0.44389426
1.9763357e-14
0.47394908
0
0.50418963
0
0.53468315
0
0.56531538
0
0.59649389
-1.3172614e-18
0.6297344
1.5740028e-14
0.66788158
0
0.71396195
0
0.7684964
-2.5842637e-18
0.82779304
4.739835e-05
0.010131129
0.00019294669
0.019930863
0.00037808624
0.029660696
0.00057268939
0.039976878
0.00073102403
0.049590883
0.00078592922
0.056905867
0.00069472417
0.062614562
0.00044216951
0.0680063
0
0.072184977
0
0.083462025
-9.270407e-15
0.095346426
-8.9368795e-15
0.10885498
-8.6111397e-15
0.12299738
0
0.13674362
0
0.1513061
7.7205852e-15
0.16786235
0
0.18567234
0
0.20388542
-4.218956e-18
0.22245433
0
0.24184662
1.2854885e-14
0.26256214
1.2385471e-14
0.28491117
0
0.30896657
-3.3776962e-18
0.33468738
1.1076703e-14
0.36188906
0
0.39027159
0
0.41950311
0
0.44904146
0
0.47855272
0
0.50827353
0
0.53824765
0
0.56827059
0
0.59882832
-1.1634227e-18
0.63174479
0
0.66996421
-2.9216425e-14
0.71633136
0
0.77109541
0
0.83047875
2.4373759e-05
0.010148247
0.00013537871
0.019963391
0.00030655942
0.029733712
0.00051207527
0.040103636
0.00071220785
0.049816595
0.00084366698
0.057334138
0.00086029381
0.063334686
0.00074473577
0.0690823
0.00047160591
0.074653798
9.6124991e-15
0.07795326
0
0.089101314
0
0.101826
0
0.11516413
8.3058462e-15
0.1280331
8.0082856e-15
0.14164679
-3.1200983e-18
0.15728764
3.0938423e-18
0.17417979
0
0.19138936
0
0.2088581
1.3337043e-14
0.22708873
0
0.24659039
0
0.26766471
1.194143e-14
0.29032332
0
0.3145521
-3.2345509e-18
0.34035873
1.0677566e-14
0.3675323
0
0.39577364
0
0.4246866
0
0.45373034
-3.5044084e-18
0.48270346
0
0.51192906
0
0.54141861
0
0.5708863
0
0.60089335
-1.0197444e-18
0.63354266
0
0.67189819
2.8153144e-14
0.71850678
0
0.77347079
-2.088672e-18
0.83286975
0.010170429
0
6.9592754e-05
0.019998991
0.00021501861
0.029797147
0.00041489789
0.040202653
0.00063627254
0.049997014
0.00082179313
0.057698894
0.00092403404
0.06397055
0.00092265838
0.07002505
0.00079396055
0.075921397
0.00049601232
0.080031552
-9.2704008e-15
0.083223374
0
0.095217714
0
0.10779469
-2.9564341e-18
0.11984616
-8.0061155e-15
0.13256684
0
0.14733057
0
0.16334211
7.1783409e-15
0.1795933
0
0.196005
-2.6684639e-14
0.2131234
0
0.23147098
0
0.25135395
1.195097e-14
0.27272835
1.1513391e-14
0.29554816
0
0.319927
-3.1610739e-18
0.34583828
0
0.37296471
-9.9115802e-15
0.40095901
0
0.4294666
1.8374492e-14
0.45798828
-1.7690839e-14
0.48642326
0
0.51518103
0
0.5442459
1.5777176e-14
0.57321297
0
0.60270833
-9.1073289e-19
0.63517042
9.0300569e-19
0.67368957
2.7131032e-14
0.72051915
0
0.77558284
2.5181205e-14
0.83499495
0.020037754
0
0.010197273
-2.4502576e-05
0.00011046874
0.029850145
0.00029076882
0.040274389
0.00051508682
0.050132714
0.00073402916
0.057998795
0.00090056928
0.064517949
0.00099132009
0.070845998
0.00098306156
0.077011141
0.00083416995
0.081490409
0.00051314363
0.08492841
0
0.088991195
0
0.1008615
0
0.11215775
-2.6408626e-18
0.12404151
0
0.13796566
-7.4427793e-15
0.15312951
0
0.16846588
2.0559898e-18
0.18386669
0
0.19991987
0
0.21716394
0
0.23592131
0
0.25610576
-1.1519811e-14
0.27761891
0
0.30061197
1.0694727e-14
0.32522998
1.0301669e-14
0.35120135
0
0.37813265
-9.5531657e-15
0.40580749
-1.8394697e-14
0.43385031
0
0.46183075
1.7044797e-14
0.48974235
0
0.51807649
-1.5792823e-14
0.54676462
0
0.57527862
-1.4637023e-14
0.6043255
1.4093074e-14
0.63666916
0
0.67535977
0
0.72231397
0
0.77747161
0
0.83684256
0.029891961
0
0.020080691
-6.9914667e-05
0.010229083
-4.7903144e-05
0.00014924533
0.040318922
0.00036066497
0.050223933
0.00059415484
0.058233146
0.00080478143
0.064974011
0.0009663362
0.071542799
0.0010554377
0.07793867
0.0010317537
0.082729437
0.00086282168
0.08668682
0.00052900554
0.090335811
0
0.094312045
0
0.10494195
0
0.11604574
-7.7231974e-15
0.12916228
-7.4433561e-15
0.14351476
-1.4357549e-14
0.15797741
0
0.17241693
-6.6731634e-15
0.1874523
0
0.20363663
0
0.22132413
0
0.24039091
1.152903e-14
0.26069134
0
0.28236937
0
0.30566656
0
0.3304958
9.9305466e-15
0.35638212
-2.6904825e-18
0.38303306
0
0.41030138
0
0.43785143
0
0.46528195
-2.5016292e-18
0.49269242
0
0.52064322
-1.6683212e-18
0.54900962
1.4650025e-14
0.57711404
0
0.60579142
-1.3582605e-14
0.6380649
0
0.67687248
0
0.72392542
0
0.77910034
2.33896e-14
0.83845326
0.040335397
0
0.029925285
-0.00011080665
0.020127982
-0.00013663777
0.010266434
-6.8620808e-05
0.00018496974
0.050271397
0.00041597555
0.058401543
0.00065171456
0.065336234
0.00086372181
0.072113835
0.0010280767
0.078706079
0.0011064875
0.083779336
0.001066972
0.08820817
0.0008901941
0.092472408
0.00054329264
0.095206267
0
0.098130165
0
0.10855654
0
0.12089641
-3.3908959e-18
0.13446586
-7.1781164e-15
0.14809747
6.9239308e-15
0.16162606
-1.6766689e-18
0.17569528
6.4368497e-15
0.19086464
0
0.20752602
0
0.22553355
0
0.24469676
0
0.26514291
1.0713084e-14
0.28714307
1.0318501e-14
0.31079673
1.9882247e-14
0.33569442
9.5725481e-15
0.36133212
9.2174071e-15
0.38761712
2.1603069e-18
0.4144561
0
0.4414753
0
0.46836778
1.5827499e-14
0.49530694
0
0.52291762
0
0.55099558
0
0.57876259
0
0.60714756
0
0.63935921
-1.2606282e-14
0.67825239
-1.3576296e-18
0.72532083
0
0.78052344
2.2542793e-14
0.83981664
0.050274677
0
0.040329776
-0.00014936348
0.029950338
-0.00021633957
0.020179161
-0.00019565502
0.010309312
-8.5039885e-05
0.00021332195
0.058503817
0.00045647041
0.065603748
0.00069950287
0.072559006
0.00091813004
0.079316866
0.0010766577
0.084642874
0.0011441878
0.089511092
0.001101606
0.094341593
0.00091461382
0.09766174
0.00055004735
0.09850386
0
0.10151467
0
0.11314328
0
0.12595746
-2.7569349e-18
0.13879763
6.9247316e-15
0.15146246
0
0.1646191
-1.28746e-14
0.17882143
1.7606088e-18
0.19450198
0
0.21149712
0
0.2295782
0
0.24887229
0
0.26964173
1.0329532e-14
0.29204971
-9.9513915e-15
0.31591509
-9.5848814e-15
0.34068158
9.2271382e-15
0.36599055
1.7767974e-14
0.39189059
0
0.41825033
0
0.44474532
0
0.47111656
0
0.49761642
0
0.52491321
-1.4130683e-14
0.55276365
2.7208492e-14
0.58025896
0
0.6084081
-6.8906566e-19
0.64057138
0
0.6794835
-1.1992033e-18
0.72654361
-2.2548147e-14
0.78171346
0
0.84097183
0.058539239
0
0.05024553
-0.00018482799
0.040302768
-0.00029123723
0.029964153
-0.00030939528
0.020234676
-0.00024238115
0.010357646
-9.5536284e-05
0.00023416816
0.065775078
0.0004899562
0.072877595
0.00074299457
0.079774027
0.00096060548
0.085326279
0.0011131906
0.090596888
0.0011820719
0.095953771
0.001132431
0.099811239
0.00092601749
0.10124133
0.00055029347
0.10136524
0
0.10584639
0
0.11796169
7.1820238e-15
0.13004942
6.9234747e-15
0.14189681
1.5952547e-18
0.15419245
1.5647599e-18
0.16747927
6.2089767e-15
0.18222382
-1.1969493e-14
0.19825125
0
0.21529634
0
0.23349487
0
0.25310623
0
0.27427324
0
0.29697641
-9.5938682e-15
0.32088439
0
0.34540383
0
0.3703383
0
0.39582086
8.2437197e-15
0.42170556
0
0.4476764
0
0.47356048
-1.7258101e-18
0.49964015
0
0.52666951
-1.3616525e-14
0.55433346
0
0.5816254
7.7960846e-19
0.60959558
-6.5662334e-19
0.64170341
1.1707896e-14
0.68059223
-2.2557499e-14
0.72755417
0
0.78271406
0
0.8419014
0.065847605
0
0.058524396
-0.0002131494
0.050185093
-0.00036012658
0.040249251
-0.00041591387
0.029965714
-0.00038275032
0.020294858
-0.00027218956
0.010411665
-9.8443092e-05
0.00025133549
0.073069282
0.00052000723
0.080081132
0.00077666509
0.085834455
0.00099312073
0.091469315
0.0011507795
0.097309745
0.001215774
0.10167606
0.0011467439
0.1036392
0.00092665234
0.10441138
0.00055127926
0.10517487
0
0.11041047
0
0.12182481
0
0.13290509
-1.5539947e-18
0.14438566
1.5275805e-18
0.15680594
-1.241862e-14
0.17066171
-5.9880926e-15
0.18576642
5.7717548e-15
0.2018164
-1.1132281e-14
0.21896551
0
0.23748723
1.0339547e-14
0.25747801
0
0.27895267
-9.5989148e-15
0.30183418
0
0.32565731
0
0.34984345
8.5722715e-15
0.37436385
0
0.39942102
0
0.42482089
0
0.45030631
0
0.47571493
0
0.50141048
0
0.52819986
-1.3121158e-14
0.55573397
-8.6557805e-19
0.58286926
-1.2164046e-14
0.61071896
-1.1715341e-14
0.6427716
0
0.68153198
0
0.72839267
0
0.78350342
0
0.84264886
0.073131528
0
0.065841811
-0.0002340904
0.0584601
-0.00041531703
0.0500843
-0.00051398222
0.040168536
-0.00051372488
0.029954871
-0.0004291225
0.020359137
-0.00028035868
0.010470975
-9.2070612e-05
0.00026657234
0.080241084
0.00054317935
0.086173448
0.00080290128
0.092130678
0.0010272788
0.098409494
0.0011842231
0.10325378
0.0012313264
0.10573594
0.0011478276
0.10710403
0.00092890553
0.10858267
0.00055464365
0.1091718
0
0.1140388
0
0.12446203
0
0.1351755
0
0.14677767
-6.2094876e-15
0.15978256
5.9894242e-15
0.17400932
-5.7733924e-15
0.18910751
1.6583891e-18
0.20524692
1.0732759e-14
0.2227322
-1.0345365e-14
0.24162574
-9.9737291e-15
0.26189704
0
0.28360369
3.3728602e-18
0.30658788
0
0.33018942
0
0.35394146
-2.172977e-18
0.37805008
-7.9543902e-15
0.40268755
1.4847517e-18
0.42763685
-1.4732206e-14
0.45264202
0
0.47761419
-1.3134781e-18
0.50294582
0
0.52953569
1.2643921e-14
0.5569634
-1.2174357e-14
0.5840119
1.1723224e-14
0.61179341
1.1289376e-14
0.64373443
-1.0875379e-14
0.68233465
2.0953134e-14
0.72904886
0
0.78412896
0
0.8431953
0.080255896
0
0.073091381
-0.00025116958
0.065758033
-0.00045617529
0.05833127
-0.00059279801
0.049944555
-0.0006345087
0.040060064
-0.00057496375
0.0299308
-0.00044117219
0.0204267
-0.00026209967
0.010535738
-7.4708806e-05
0.00027827507
0.086347939
0.00056151007
0.092582859
0.00083093299
0.09925343
0.0010574747
0.10454126
0.001199611
0.10752307
0.0012329813
0.10947084
0.0011511263
0.11160711
0.00093466778
0.11291355
0.00055499818
0.11218551
0
0.11647355
0
0.12653484
0
0.13736467
-1.7632701e-18
0.14956246
-5.9887043e-15
0.16294981
5.7748281e-15
0.177138
5.5683019e-15
0.19230605
1.7254384e-18
0.20879917
0
0.22666206
0
0.24580067
0
0.26628857
0
0.28820636
-8.9216104e-15
0.31116069
0
0.33440133
8.274154e-15
0.35770358
-1.979491e-18
0.38140776
7.6637583e-15
0.40564763
-7.3755342e-15
0.43015365
-2.0659043e-18
0.45471843
0
0.47927125
-1.3151045e-14
0.50427419
0
0.53067734
0
0.55805244
0
0.5850602
0
0.61279596
-5.5823101e-19
0.64461246
0
0.68298367
0
0.72956181
0
0.78456977
1.8752457e-14
0.84358016
0.086360455
0
0.080162165
-0.00026610754
0.072949738
-0.00048931693
0.065576028
-0.00065110523
0.058140368
-0.00073189801
0.049766346
-0.00070984923
0.039923674
-0.00059004753
0.029894183
-0.00041160952
0.020497826
-0.00021257193
0.010606157
-4.4609131e-05
0.00028765658
0.09282892
0.0005813058
0.099840474
0.00085567789
0.10553653
0.0010715303
0.1089925
0.0012017276
0.11150001
0.0012371538
0.11426666
0.0011586503
0.1162319
0.0009351967
0.11620158
0.00054935926
0.11399487
0
0.11836732
0
0.12853658
6.2111994e-15
0.1399643
-1.8952695e-18
0.15255114
0
0.16587794
0
0.18011243
5.3705263e-15
0.19565104
1.8242448e-18
0.21253731
-9.9856288e-15
0.23061729
0
0.2499252
0
0.27065404
0
0.29273233
8.6035858e-15
0.3154594
-8.2839079e-15
0.33823003
0
0.36111354
-1.7911286e-18
0.38444658
0
0.40830548
1.1927413e-18
0.43240377
0
0.45654231
1.3164154e-14
0.48071851
0
0.50540056
-2.4392448e-14
0.53165696
0
0.55900042
2.2610942e-14
0.58602001
6.0117572e-19
0.61373338
-4.9027592e-19
0.64536466
1.0102284e-14
0.68350975
0
0.72990434
1.8756176e-14
0.7848774
-1.8075825e-14
0.84377713
0.092869919
0
0.086255774
-0.00027761282
0.079961164
-0.00051820635
0.072679909
-0.00069814108
0.065295954
-0.00080379998
0.057889218
-0.00081899972
0.049550305
-0.00072824395
0.039761799
-0.00054945632
0.029840803
-0.00033302977
0.020573233
-0.00012686889
0.01067899
1.343984e-14
0.00029786981
0.10017079
0.00059877809
0.10623885
0.00086724986
0.11013812
0.001073863
0.11318251
0.0012063156
0.116552
0.0012454232
0.1191513
0.0011591219
0.11974989
0.00092541739
0.11823612
0.00053945305
0.11527107
0
0.12020815
0
0.13095319
0
0.14277916
0
0.15528854
-5.5712771e-15
0.16863741
-5.3722562e-15
0.18325681
-5.1816217e-15
0.19921008
-4.993537e-15
0.2162915
0
0.2344927
0
0.25402053
0
0.274984
0
0.29698701
-8.2905593e-15
0.31933127
0
0.34167932
0
0.36419489
0
0.38717898
0
0.41068489
0
0.43439366
0
0.45815057
0
0.48195758
-1.2209475e-14
0.50635384
1.1752209e-14
0.53247592
-1.1315199e-14
0.55983115
0
0.58687729
-1.049295e-14
0.61456507
-4.370692e-19
0.64601511
0
0.68387211
1.8761989e-14
0.73013343
-1.8079232e-14
0.78502798
0
0.8437882
0.1002433
0
0.092758402
-0.00028696311
0.086033507
-0.00054059768
0.079618891
-0.00073916113
0.07228192
-0.00086143138
0.064918225
-0.0008992451
0.057578004
-0.00084045848
0.049297543
-0.00067802147
0.039570136
-0.00044363472
0.029770121
-0.0001982455
0.02064385
0
0.0097815868
0
0.00030688321
0.10664724
0.00060701366
0.11095615
0.00086946007
0.11450864
0.0010784445
0.11845472
0.001214644
0.12166006
0.0012458568
0.12287392
0.0011466694
0.121975
0.00090840554
0.1197236
0.00052813482
0.11651916
0
0.12245633
0
0.13359723
0
0.14533877
0
0.15784889
1.7482559e-18
0.17158861
0
0.18664545
0
0.20278017
4.817706e-15
0.21993737
0
0.23830875
0
0.25807465
-8.6206392e-15
0.27909517
0
0.30084655
-7.9913859e-15
0.32279573
-2.0829068e-18
0.34478624
0
0.36696427
0
0.38962149
0
0.41280249
0
0.43615951
0
0.45954364
0
0.48302225
-1.1764891e-14
0.50714232
0
0.53316195
0
0.56052615
0
0.58763278
0
0.61530299
-9.7417122e-15
0.64651602
0
0.68412274
0
0.73023831
0
0.78498118
0.0076798964
0.83591606
0.10675818
0
0.10011616
-0.00029713414
0.0924955
-0.00055880466
0.085652072
-0.00077116933
0.079137451
-0.00091185986
0.071754837
-0.00096305482
0.064441559
-0.00092240984
0.057206882
-0.00078273719
0.049008437
-0.0005474323
0.03934592
-0.00026345053
0.02967179
0
0.01904313
0
0.010508323
-1.3432869e-14
0.00031117279
0.11144467
0.00060878564
0.11547072
0.00087356607
0.11996671
0.0010860905
0.12374812
0.0012149636
0.12555849
0.0012322334
0.12526522
0.0011252928
0.12364834
0.00088940305
0.12121439
0.00051797418
0.11817996
0
0.12492709
0
0.13599345
0
0.14771541
0
0.16061671
0
0.17481398
0
0.19004376
9.6367388e-15
0.20621346
-4.6445344e-15
0.22349497
0
0.24208501
0
0.26196667
8.3078582e-15
0.28284794
0
0.30428443
-7.702587e-15
0.32590573
0
0.34757547
7.1372318e-15
0.3694402
6.8666947e-15
0.39179816
6.6074966e-15
0.41468159
-6.3581376e-15
0.43770566
1.2238345e-14
0.46075199
0
0.48391308
-1.1336049e-14
0.50778984
0
0.5337039
-1.0508255e-14
0.5611145
-1.0119736e-14
0.58828134
0
0.61591729
-9.3893806e-15
0.64690713
-9.0458035e-15
0.68424754
0
0.73015727
0.014745288
0.77756139
0.0069922291
0.82858681
0.11160031
0
0.1066346
-0.00030614028
0.09979111
-0.00057844745
0.092033519
-0.00079715384
0.085108524
-0.0009516008
0.078516981
-0.0010193685
0.071099435
-0.00098711452
0.063871387
-0.00085859506
0.056775186
-0.00063228209
0.048680359
-0.00032515473
0.039082391
0
0.027471889
0
0.020430692
1.2937064e-14
0.01128822
7.6552558e-18
0.00031217072
0.11606398
0.00061191257
0.12107908
0.00087993504
0.12540694
0.0010862837
0.12778949
0.0012014698
0.12809251
0.0012089714
0.1271004
0.001101785
0.12536398
0.00087235765
0.12315467
0.00050910077
0.12005763
-5.7792938e-15
0.12716963
0
0.13820364
0
0.15030674
-1.9509038e-18
0.16367989
-4.9995842e-15
0.17804872
0
0.19328043
4.6471439e-15
0.20953086
0
0.22700264
0
0.24572458
8.3188284e-15
0.26555236
0
0.28622956
0
0.30738095
0
0.32869467
0
0.35007622
0
0.37164596
-1.1310467e-18
0.3937224
0
0.41633919
6.1269992e-15
0.43905343
0
0.46177393
0
0.48465853
-1.092406e-14
0.50828941
0
0.5341322
0
0.56158375
-9.7527034e-15
0.58883623
9.3943484e-15
0.61642258
-2.0104275e-19
0.64715655
0
0.68421128
0.021347502
0.72314153
0.013422773
0.77062507
0.0062567624
0.82184961
0.11628402
0
0.11149464
-0.00031051971
0.10627602
-0.00059588073
0.099213015
-0.00082485823
0.091369581
-0.00098363732
0.084399138
-0.0010641684
0.077758467
-0.0010448394
0.070317363
-0.00091797785
0.063207502
-0.00069311693
0.056282269
-0.00037575596
0.048298303
0
0.036430652
0
0.029360298
-2.4926951e-14
0.021906733