/*--------------------------------*- C++ -*----------------------------------*\
| =========                 |                                                 |
| \\      /  F ield         | OpenFOAM: The Open Source CFD Toolbox           |
|  \\    /   O peration     | Version:  v2012                                 |
|   \\  /    A nd           | Website:  www.openfoam.com                      |
|    \\/     M anipulation  |                                                 |
\*---------------------------------------------------------------------------*/
FoamFile
{
    version     2.0;
    format      ascii;
    class       volScalarField;
    location    "21.828410048542551";
    object      p;
}
// * * * * * * * * * * * * * * * * * * * * * * * * * * * * * * * * * * * * * //

dimensions      [0 2 -2 0 0 0 0];


internalField   nonuniform List<scalar> 
9200
(
0.0024597124
0.0022921318
0.012092323
0.0023081403
0.011849307
0.017554911
0.0021213267
0.011944371
0.017095912
0.023616587
0.0020595244
0.011801452
0.016993596
0.022937327
0.029370991
0.0019151778
0.011952496
0.016564735
0.022546725
0.028414329
0.035313264
0.0017866332
0.012180163
0.016494452
0.021721658
0.027597026
0.034038389
0.04149517
0.0015439668
0.012697725
0.016621222
0.021235577
0.026143629
0.032692697
0.039919949
0.048042621
0.0010658371
0.013439277
0.017274911
0.021009556
0.02487483
0.030428177
0.037981943
0.046303111
0.055125099
0.0007582499
0.014456323
0.018536228
0.0214926
0.023759963
0.028046574
0.03479914
0.043760094
0.053254453
0.062819036
-0.00018006074
0.015918372
0.02055926
0.022920675
0.023314092
0.025520019
0.031064479
0.039668698
0.050251412
0.060776327
0.070969203
-0.0019622525
0.017676489
0.02299407
0.025624416
0.023869863
0.023356632
0.026694894
0.034515649
0.04541201
0.057615175
0.068987809
0.079529279
-0.0048701106
0.019356022
0.026918445
0.030090026
0.025911722
0.021936077
0.022104401
0.028095556
0.038991579
0.052322814
0.065865311
0.077748438
0.088344946
-0.0093001898
0.020437168
0.03146928
0.035381532
0.029885622
0.021816056
0.017618992
0.020631242
0.030623638
0.045038679
0.060522376
0.074942345
0.086921514
0.097236514
-0.01585491
0.020777774
0.035757017
0.04260052
0.036140711
0.023558496
0.013749101
0.012273531
0.020238794
0.035196148
0.05298512
0.070022271
0.084655653
0.096291194
0.10602034
-0.025149185
0.019863868
0.040005591
0.052538366
0.045239342
0.02780915
0.011082468
0.003347995
0.0076819631
0.022366905
0.042478345
0.062924576
0.08060795
0.094748359
0.10562558
0.1145297
-0.037901627
0.017024615
0.043624088
0.064032018
0.057626061
0.03519385
0.010282237
-0.0057123315
-0.0070673203
0.0059681982
0.028213655
0.052689469
0.074598913
0.091923863
0.10492333
0.1147003
0.12261989
-0.054866431
0.011286544
0.04563623
0.076918159
0.07341491
0.04621502
0.012042983
-0.014358379
-0.02395823
-0.014529805
0.0091693389
0.038350561
0.065722104
0.08756219
0.10353722
0.11488518
0.12332786
0.1301779
-0.076623715
0.0015823998
0.044895995
0.090589566
0.092607715
0.061221589
0.016982099
-0.021968028
-0.042777862
-0.039747641
-0.015644818
0.018423454
0.052965617
0.080939812
0.1011924
0.11501333
0.12437653
0.13136535
0.13712888
-0.10388844
-0.013110776
0.040203751
0.10408537
0.11503563
0.080260556
0.025542636
-0.027946243
-0.063164886
-0.070250295
-0.047927492
-0.0075942863
0.034933079
0.0711236
0.097411675
0.11483055
0.12596912
0.13319737
0.13871743
0.14343251
-0.13685407
-0.034661191
0.030299466
0.11617654
0.1402979
0.10303321
0.037866402
-0.031807738
-0.084710838
-0.10644477
-0.089436292
-0.043751835
0.0098973518
0.056874375
0.091461824
0.11412865
0.1278903
0.13610647
0.14121265
0.14533355
0.14908039
-0.17519102
-0.066768457
0.013574184
0.12504821
0.16780756
0.12882752
0.053695807
-0.033315318
-0.10701389
-0.1486311
-0.14220355
-0.092281101
-0.025280391
0.036390461
0.08244008
0.11243615
0.13018483
0.13991619
0.14522529
0.14834981
0.15120218
0.15408822
-0.21174629
-0.11388757
-0.012433875
0.12863865
0.19660474
0.15646962
0.072306209
-0.03250995
-0.12975886
-0.19705761
-0.20832858
-0.15712341
-0.074269183
0.0069992812
0.068928893
0.10927314
0.13264118
0.14488249
0.15060604
0.15321864
0.15458984
0.15634258
0.15849099
-0.24148263
-0.17774741
-0.05132371
0.12335975
0.22579067
0.1843982
0.092474907
-0.029965041
-0.15303044
-0.25195056
-0.29039098
-0.2428863
-0.14242552
-0.034868616
0.048981466
0.10377917
0.13518216
0.15100624
0.15776801
0.15980266
0.16005907
0.15995585
0.16079676
0.16233575
-0.26765526
-0.25190655
-0.10727301
0.10249252
0.25409171
0.21062852
0.11257193
-0.026308678
-0.17701072
-0.31391809
-0.39207747
-0.35497687
-0.23685741
-0.094123364
0.019805192
0.094843611
0.13747907
0.15852927
0.16685734
0.1686169
0.16746976
0.16577998
0.16450119
0.16462184
0.16567754
-0.29078969
-0.3245198
-0.17264729
0.072761227
0.2785944
0.23280286
0.13050651
-0.022619355
-0.20085161
-0.38063097
-0.51591399
-0.50476975
-0.35684717
-0.17733358
-0.02247712
0.080754657
0.13916098
0.16752203
0.17832692
0.17988505
0.1773897
0.17366098
0.17045746
0.16829902
0.16788354
0.16857428
-0.3097495
-0.39526347
-0.23708061
0.04410329
0.29090543
0.25168116
0.14393761
-0.020205689
-0.22437376
-0.45035763
-0.6578122
-0.6982555
-0.53398497
-0.29511759
-0.083390624
0.059190321
0.1395047
0.17814047
0.19248676
0.19416882
0.1900636
0.18418027
0.17849035
0.17419407
0.1714331
0.17065109
0.17108427
-0.32340023
-0.46122444
-0.29800692
0.010446862
0.28513265
0.25745468
0.15061647
-0.020412042
-0.24708803
-0.5193982
-0.81818999
-0.93769918
-0.76649533
-0.46565294
-0.17401452
0.026488999
0.13754715
0.19034717
0.20978598
0.21187535
0.20608052
0.19756167
0.18916632
0.18210723
0.17710571
0.17399118
0.17299331
0.1732634
-0.33144446
-0.51908703
-0.35284107
-0.027441054
0.26498732
0.25112151
0.14849243
-0.024195955
-0.26902761
-0.582149
-0.9866211
-1.2204353
-1.0583536
-0.69161983
-0.30698619
-0.025203989
0.13137924
0.20403324
0.23053726
0.23355285
0.22584049
0.21436556
0.20266169
0.1925711
0.18467666
0.179312
0.17605978
0.17497601
0.17516398
-0.33426093
-0.56693459
-0.39955647
-0.066596395
0.23423981
0.23185319
0.13666872
-0.031688701
-0.28919544
-0.63166219
-1.1561534
-1.5161468
-1.4106003
-0.9783172
-0.48298436
-0.10228755
0.11674959
0.21847668
0.25501523
0.25960007
0.24985904
0.23492107
0.21947538
0.20570001
0.19463356
0.18636563
0.18092933
0.17772101
0.17666015
0.17683354
-0.33062509
-0.60408962
-0.43731516
-0.10428065
0.19481138
0.19999172
0.11464851
-0.043283319
-0.30418904
-0.66421597
-1.3130828
-1.8208658
-1.84602
-1.3507254
-0.7177934
-0.20558984
0.090598195
0.23174076
0.28306828
0.29034148
0.27845832
0.25963943
0.23983512
0.22191705
0.20702386
0.19558957
0.1873337
0.18206664
0.17905024
0.17810088
0.17831452
-0.32153638
-0.631929
-0.46663409
-0.14063767
0.14938683
0.15727748
0.082762487
-0.059154797
-0.31635991
-0.69179862
-1.4418436
-2.101297
-2.2748574
-1.8031404
-1.0389286
-0.34845974
0.051112923
0.24222291
0.31386033
0.32573228
0.31183172
0.28868981
0.26402177
0.24134187
0.22219282
0.20696539
0.19565926
0.18772777
0.18282271
0.1801151
0.179347
0.17964406
-0.30710405
-0.65045501
-0.48985243
-0.17397539
0.10187358
0.10598974
0.04268629
-0.078587465
-0.3249949
-0.72414003
-1.5190623
-2.3238623
-2.6469651
-2.2350709
-1.3768713
-0.53765224
-0.0079971967
0.24802895
0.34629393
0.36522491
0.34980017
0.32207149
0.29203756
0.26412902
0.24015986
0.22076612
0.20582648
0.19504129
0.18767895
0.18328503
0.18097492
0.18044101
0.18085419
-0.2874897
-0.65585324
-0.50786151
-0.20517227
0.053125218
0.049652166
-0.0025042426
-0.10135121
-0.3254039
-0.75266922
-1.5387058
-2.4637116
-2.9321373
-2.5972817
-1.701242
-0.75101088
-0.091026004
0.24538699
0.37840404
0.40774021
0.3917253
0.35940132
0.32369524
0.29013496
0.26097349
0.23692652
0.21804546
0.20387283
0.19390962
0.18730176
0.1835295
0.18168087
0.18141919
0.18197208
-0.26321835
-0.64758889
-0.5158234
-0.22864966
-0.0042285791
-0.0079625344
-0.050896703
-0.12678829
-0.32378967
-0.76848496
-1.5159411
-2.5147082
-3.1047093
-2.8636603
-1.9783886
-0.96566889
-0.19732738
0.23013609
0.4068831
0.45119479
0.4363732
0.39985362
0.35842981
0.3190281
0.28438093
0.25541547
0.23218413
0.21438013
0.20133225
0.19241372
0.18669417
0.1836208
0.18227626
0.18231212
0.18302042
-0.23504054
-0.62542242
-0.51275672
-0.23923078
-0.059546695
-0.072638297
-0.099113941
-0.15351797
-0.32342725
-0.76265007
-1.4607387
-2.4827303
-3.1603524
-3.0191474
-2.1882376
-1.1660441
-0.32317781
0.19543099
0.42716057
0.4920918
0.48164156
0.44202875
0.39527508
0.35012501
0.30996013
0.27591021
0.24815807
0.22638133
0.21006221
0.19839656
0.19067941
0.18593858
0.18361303
0.18279719
0.18314508
0.18401789
-0.20384641
-0.5897093
-0.49780088
-0.23580078
-0.11197554
-0.13683303
-0.15054674
-0.17828511
-0.31943255
-0.73260501
-1.3777163
-2.3810878
-3.109284
-3.064505
-2.322648
-1.3429608
-0.46706007
0.13202353
0.43109658
0.52559212
0.52417486
0.48385589
0.43276695
0.38240303
0.33697882
0.29794948
0.26560991
0.2397615
0.21988226
0.20533191
0.1952245
0.18881108
0.18510307
0.18355072
0.18327319
0.18393867
0.18497959
-0.17067587
-0.54153614
-0.46973945
-0.21841058
-0.1576063
-0.20239454
-0.20067237
-0.20095062
-0.31036679
-0.68929393
-1.2727047
-2.2280273
-2.96932
-3.0128868
-2.3845986
-1.4917232
-0.62809424
0.032043973
0.40660658
0.54473836
0.55924842
0.52241766
0.46891712
0.41444692
0.36443609
0.32081124
0.2840813
0.2541569
0.23066468
0.21297838
0.20038419
0.1919457
0.18689381
0.18424289
0.18346977
0.18372801
0.1847093
0.1859175
-0.13672437
-0.48283154
-0.42737198
-0.19016449
-0.19498711
-0.26541787
-0.25364375
-0.21695458
-0.29323042
-0.64057304
-1.1547041
-2.0422026
-2.7658008
-2.8826412
-2.3831067
-1.6100488
-0.80644014
-0.10973759
0.34105335
0.53923255
0.58104821
0.55375255
0.50120959
0.44445629
0.39103779
0.34357394
0.30290349
0.26914293
0.24205966
0.22120783
0.20590083
0.19537542
0.1886643
0.18499573
0.18340201
0.18339856
0.18418024
0.18546984
0.18684093
-0.10325184
-0.41617582
-0.3717233
-0.15535896
-0.22245407
-0.32197256
-0.30758558
-0.23214002
-0.27075545
-0.57141813
-1.0351381
-1.8386777
-2.5217613
-2.694458
-2.3300341
-1.7045031
-0.99729448
-0.29512798
0.22352761
0.49641561
0.58246631
0.5730878
0.52663087
0.4703202
0.41525921
0.36511085
0.32127119
0.28413231
0.2536959
0.22969698
0.21165327
0.19883137
0.19042951
0.18546267
0.18317028
0.18261456
0.18335893
0.18464418
0.18623003
0.18775691
-0.3444773
-0.071349939
-0.30585036
-0.11581991
-0.23905631
-0.36882579
-0.35746834
-0.24901398
-0.25151619
-0.49556952
-0.8857973
-1.632716
-2.2653257
-2.4768969
-2.2380643
-1.7714404
-1.1915327
-0.52191262
0.045397084
0.40370367
0.5547445
0.57542105
0.54173367
0.48971436
0.43545237
0.38419741
0.33825319
0.29846107
0.26508408
0.23813791
0.21735085
0.20220268
0.19191182
0.18564319
0.18240457
0.1814583
0.1819063
0.18336712
0.18513031
0.18699704
0.18867051
-0.23304778
-0.27059554
-0.042006833
-0.07236426
-0.24528584
-0.40356529
-0.39956436
-0.2672574
-0.23382879
-0.4218543
-0.740992
-1.3936938
-2.0117033
-2.2588171
-2.1247368
-1.8040046
-1.3864025
-0.78765097
-0.19966934
0.24957808
0.48798085
0.55555001
0.54278377
0.50008693
0.44971291
0.3995256
0.35287729
0.31139826
0.27571204
0.24614548
0.22275131
0.20523209
0.19301088
0.1852517
0.18109052
0.17953806
0.17988992
0.1812958
0.18343463
0.18564602
0.18777583
0.1895853
-0.027689431
-0.15656856
-0.19729561
-0.015088654
-0.24269466
-0.42484959
-0.43102366
-0.28327282
-0.21572855
-0.34898829
-0.6028091
-1.1615086
-1.7344494
-2.0392592
-2.0062094
-1.8138698
-1.5790299
-1.0934434
-0.51886611
0.023231185
0.37179246
0.50775585
0.52638437
0.49894896
0.45619751
0.40971946
0.36409573
0.3221974
0.28503426
0.25335186
0.22757009
0.20773923
0.19349946
0.18419628
0.17893422
0.17682676
0.17689797
0.17848627
0.18079561
0.18356906
0.18619609
0.18856957
0.19050352
-0.23099354
0.01601406
-0.079843576
-0.12673713
0.0092870999
-0.43234607
-0.45029902
-0.29497742
-0.19699267
-0.27664317
-0.468712
-0.93290691
-1.4641596
-1.7841938
-1.8781665
-1.8223381
-1.7645463
-1.4331378
-0.92180234
-0.28595459
0.19736554
0.42706545
0.49026472
0.48604586
0.45408188
0.41362079
0.37132808
0.33021629
0.29253307
0.25938584
0.23157011
0.20952956
0.19325131
0.18227378
0.1758486
0.17302097
0.17289133
0.17450806
0.1772609
0.18041335
0.18377474
0.18678325
0.1893801
0.19142639
-0.42664834
-0.21026783
0.058131787
-0.0063685978
-0.060889111
0.030998531
-0.45683851
-0.3008145
-0.17636642
-0.20526121
-0.34147327
-0.71559126
-1.1885197
-1.5403884
-1.708063
-1.8252474
-1.9431598
-1.7846416
-1.4067746
-0.6870793
-0.037342502
0.30847824
0.4307307
0.45664905
0.44178653
0.41054253
0.37338399
0.33488982
0.29781963
0.26395526
0.23454944
0.2104831
0.19214678
0.17940278
0.17164725
0.16803446
0.16755567
0.1693104
0.17238278
0.17622108
0.18015257
0.1840535
0.18740852
0.19020806
0.1923543
-0.45060067
-0.40925807
-0.18268203
0.097715089
0.061702704
-0.0009352276
0.050354587
-0.29844919
-0.15177368
-0.13510283
-0.22283069
-0.51560505
-0.92430684
-1.2806449
-1.5317979
-1.7783316
-2.1149437
-2.1335913
-1.9442376
-1.180065
-0.34432901
0.15063266
0.34788975
0.41156515
0.4183908
0.39972806
0.36998963
0.3357357
0.30058052
0.26687558
0.23641009
0.21054603
0.19016491
0.17551816
0.16628484
0.16168895
0.16080153
0.16256716
0.16609941
0.17052886
0.17536917
0.18001365
0.18440508
0.18807157
0.19105306
0.19328696
-0.28632705
-0.43226282
-0.38155375
-0.15082287
0.13412732
0.12332681
0.052532632
0.067650104
-0.12350397
-0.066741577
-0.11303248
-0.33471966
-0.6791126
-1.0239592
-1.3255239
-1.6853861
-2.2450633
-2.5152021
-2.4980503
-1.745064
-0.7170106
-0.04603417
0.24195946
0.35068363
0.38368015
0.38073848
0.36076453
0.33245476
0.30057356
0.26804179
0.23713972
0.20978023
0.18737411
0.17067776
0.1597234
0.15396966
0.15244854
0.15418184
0.15807188
0.1632651
0.1689475
0.17470402
0.17999434
0.18482749
0.18877087
0.19191389
0.19422341
-0.092992832
-0.26565218
-0.40269907
-0.34622235
-0.11678377
0.16726904
0.17721285
0.09923492
0.083001194
-0.0017855787
-0.012629931
-0.1735898
-0.45700866
-0.77665161
-1.1098218
-1.5574584
-2.2682081
-2.9392001
-3.0892462
-2.3548353
-1.1426982
-0.27734393
0.11460038
0.27482519
0.33788136
0.3535792
0.34550794
0.32491398
0.29769061
0.26742945
0.23683166
0.20833364
0.18396057
0.16504247
0.15208603
0.14483625
0.14251469
0.14396157
0.14819355
0.15407686
0.16080628
0.16763514
0.1742206
0.1800902
0.1853173
0.18950403
0.19278905
0.19516241
0.05858761
-0.060234344
-0.23750476
-0.36414525
-0.30565072
-0.082484011
0.19646702
0.22264072
0.13887883
0.096660239
0.077681997
-0.032580617
-0.26030506
-0.54732538
-0.88943169
-1.4056304
-2.2207415
-3.1832852
-3.7949465
-2.9628527
-1.6119962
-0.53604949
-0.030794767
0.18564079
0.28182087
0.31850788
0.32429341
0.31301745
0.29191552
0.26509749
0.2356563
0.20647605
0.18021683
0.15889376
0.1435912
0.13446049
0.13092137
0.13196215
0.1362413
0.14284407
0.15058021
0.158715
0.16658142
0.173909
0.18029537
0.18587006
0.19026835
0.1936774
0.19610299
0.15731416
0.1140537
-0.025907561
-0.20318759
-0.3189462
-0.2622112
-0.048680693
0.22081854
0.25972627
0.17115452
0.10895764
0.088425675
-0.090303068
-0.34087345
-0.67432254
-1.226332
-2.0987137
-3.362261
-4.3373356
-3.7584583
-2.1005603
-0.81162046
-0.19071652
0.085785418
0.2166973
0.27615322
0.29724387
0.29681438
0.28321285
0.26114441
0.23384102
0.20455509
0.17655752
0.15263322
0.1345842
0.12309022
0.11787707
0.11803397
0.12235415
0.12927198
0.1381391
0.14757041
0.15697898
0.16577444
0.1737615
0.18060359
0.18648129
0.19106138
0.19457783
0.1970447
0.1899907
0.22620328
0.16379984
0.0095600595
-0.16437222
-0.26938475
-0.2174945
-0.016133906
0.23965103
0.28861258
0.19567154
0.11919073
0.053134166
-0.16030828
-0.47246153
-1.0251406
-1.9342329
-3.4399256
-4.8357701
-4.5292851
-2.7146344
-1.0988986
-0.35755484
-0.022364235
0.14436593
0.22719409
0.26477151
0.27625138
0.27158915
0.25561261
0.23162685
0.20297184
0.17348585
0.14678758
0.12553792
0.11110097
0.10363278
0.10241059
0.1062173
0.11374038
0.12322238
0.13405795
0.14502863
0.15558305
0.16520963
0.1737788
0.18100725
0.18714726
0.19188066
0.19548744
0.19803343
0.17136736
0.27353733
0.2836938
0.20807421
0.045359652
-0.12269548
-0.21827951
-0.17280058
0.014708948
0.25330865
0.30993195
0.21215591
0.12592735
-0.0069079294
-0.29040331
-0.81981299
-1.7425151
-3.4244275
-5.2195341
-5.2840682
-3.4439346
-1.4539113
-0.53294769
-0.13382885
0.066303973
0.17292077
0.22704973
0.251492
0.25685971
0.24850735
0.22918371
0.20214049
0.17156874
0.14198233
0.11705055
0.098998233
0.088564771
0.085325361
0.088130209
0.095504663
0.10594706
0.11791351
0.13057585
0.14293394
0.15451111
0.16487036
0.17394343
0.18149662
0.18786374
0.19272283
0.19645605
0.19909018
0.12008889
0.26710265
0.34003739
0.33073985
0.24663831
0.080766505
-0.079786688
-0.16790615
-0.12916349
0.043369267
0.2629591
0.32442632
0.22307467
0.12943482
-0.13224219
-0.62675496
-1.5399572
-3.3370031
-5.4593849
-5.9426801
-4.1858189
-1.9274287
-0.73669345
-0.25019816
-0.014098
0.11385286
0.18500636
0.22222117
0.23893903
0.23961657
0.22660493
0.20241393
0.17140305
0.13891937
0.10982526
0.087408101
0.073173972
0.067129863
0.068277817
0.075096285
0.085906357
0.099137519
0.1133414
0.12766599
0.14127018
0.15374795
0.16471701
0.17421802
0.18206435
0.18862355
0.19365961
0.19750372
0.20018738
0.00089314019
0.22338389
0.34182226
0.3915882
0.36798093
0.27924542
0.11523677
-0.037062726
-0.11996604
-0.087444859
0.06910654
0.27027419
0.33305735
0.23193554
0.12993161
-0.45557571
-1.3378224
-3.1932942
-5.5320715
-6.4290473
-4.8891425
-2.4293724
-1.0361885
-0.37765141
-0.09835489
0.052725932
0.13818919
0.18903533
0.21715271
0.22865907
0.22377098
0.20406811
0.17354673
0.13835312
0.1046512
0.077061444
0.058072721
0.048288847
0.046966587
0.052594755
0.063354296
0.077434275
0.093258748
0.10947943
0.12531122
0.14002222
0.15326808
0.16473857
0.17460955
0.18270983
0.1895361
0.19471125
0.19859997
0.2013252
-0.30943525
0.11186132
0.30362405
0.39845774
0.42986034
0.39627693
0.30579205
0.14821005
0.0043617097
-0.074627936
-0.047562488
0.091232021
0.27615967
0.33731935
0.23827991
0.12763508
-1.1413421
-2.9935743
-5.4354244
-6.6866544
-5.4596915
-2.957051
-1.3644959
-0.56983687
-0.18817195
-0.013081654
0.089396806
0.15045984
0.19170116
0.21485519
0.22034014
0.20718764
0.17851595
0.14101791
0.10238459
0.068776837
0.043971046
0.02936498
0.024601128
0.028245519
0.038363585
0.052923423
0.07006529
0.088278876
0.10630795
0.12349918
0.13915079
0.15302095
0.164949
0.17514059
0.18361689
0.1906159
0.19581779
0.19974495
0.20250376
-0.96267401
-0.17656987
0.19978737
0.36419596
0.43943975
0.45668588
0.41675818
0.32650339
0.17817647
0.042701544
-0.030727533
-0.012560215
0.11264657
0.27941852
0.33707214
0.2417547
0.12291845
-2.7325014
-5.1855547
-6.6878261
-5.8303781
-3.4774257
-1.7058319
-0.7848093
-0.32130185
-0.080705985
0.033989128
0.10957603
0.16029355
0.19792359
0.2157169
0.2115785
0.18668065
0.1476721
0.10387797
0.063442511
0.031658595
0.011005101
0.0016675294
0.0023774127
0.011117051
0.025635003
0.043790531
0.06377277
0.084198095
0.10381291
0.12218002
0.1385761
0.15296703
0.16532742
0.17607248
0.18476732
0.19175955
0.19698083
0.20093827
0.20372299
-2.4378745
-0.7964803
-0.060777422
0.26721077
0.40767034
0.46732888
0.47418315
0.43059161
0.34222976
0.20444143
0.075923732
0.0071570112
0.02086803
0.13172058
0.27985686
0.332143
0.24243158
0.11620309
-4.8105544
-6.4424103
-5.9567078
-3.8923765
-2.0382995
-1.0081054
-0.47033614
-0.18153899
-0.019613978
0.058953941
0.12596278
0.17531525
0.20907852
0.21703464
0.1981746
0.15892042
0.11006421
0.06195533
0.021986544
-0.0060801331
-0.021282114
-0.024616682
-0.018139566
-0.0043171862
0.014416304
0.03594115
0.05856545
0.081020771
0.10200349
0.12123123
0.1382447
0.15316223
0.16632521
0.1773295
0.18598797
0.19297023
0.19819867
0.20217934
0.2049826
-4.3492467
-2.1405394
-0.63982587
0.030584169
0.3160209
0.43680002
0.48445366
0.48406561
0.43898688
0.3545757
0.22631105
0.10006194
0.042174063
0.051714301
0.14864038
0.27758053
0.32205342
0.24070661
0.10747279
-5.9948746
-5.8262111
-4.13231
-2.323555
-1.2282599
-0.62573878
-0.293598
-0.1029853
0.012704858
0.078736437
0.14940433
0.19833764
0.22235181
0.2132189
0.17527782
0.12165031
0.065300967
0.015817988
-0.021136596
-0.043653658
-0.052298513
-0.049113503
-0.036772021
-0.018014843
0.0047107436
0.029404258
0.054458726
0.078565104
0.10063702
0.12057545
0.13826076
0.15432439
0.1677856
0.17867837
0.18728321
0.19424536
0.19947039
0.2034673
0.2062821
-5.4061514
-3.8433325
-1.8474618
-0.5020002
0.099710768
0.34918024
0.45437874
0.49343482
0.48842336
0.44345792
0.36293225
0.24093347
0.11946221
0.074996319
0.079945401
0.16221912
0.27344944
0.30680916
0.2369995
0.099237208
-5.4753227
-4.1806377
-2.5154598
-1.4275196
-0.78100488
-0.41157906
-0.19314154
-0.066231078
0.035631461
0.10950406
0.18455377
0.22677428
0.23067651
0.19725885
0.13947138
0.074231874
0.0140912
-0.033404436
-0.064833822
-0.080211376
-0.081486383
-0.071535968
-0.053423934
-0.029942213
-0.0034199867
0.024211837
0.051325845
0.076652779
0.099605564
0.12039134
0.13968154
0.15607974
0.16934519
0.18011088
0.18864969
0.19558352
0.20079441
0.20480104
0.20762079
-4.9660179
-4.7427209
-3.3246146
-1.5784614
-0.3858257
0.1501757
0.36974738
0.46328903
0.49629277
0.48791433
0.44350007
0.36646539
0.24821456
0.1372174
0.10358457
0.10461754
0.17263339
0.26804088
0.28868757
0.22943026
0.094878754
-4.0425457
-2.6068361
-1.5837396
-0.92461279
-0.53263299
-0.28753564
-0.14848989
-0.049149122
0.070112664
0.15818251
0.22945552
0.25145199
0.22412859
0.16414163
0.089735464
0.017503655
-0.04207842
-0.084218133
-0.10790599
-0.11494351
-0.10840567
-0.09170968
-0.068016307
-0.039992263
-0.0099079657
0.020212505
0.048829915
0.075125617
0.099196106
0.12218774
0.14184516
0.15794852
0.17098866
0.18162675
0.19008655
0.19698244
0.20216889
0.20617929
0.20899795
-3.7454216
-4.3718035
-4.0503684
-2.8420955
-1.3394197
-0.29053937
0.18503531
0.38037662
0.46488118
0.49275344
0.48261473
0.44052241
0.3622126
0.25441976
0.15345201
0.12610953
0.12486123
0.18007625
0.26019162
0.27019128
0.2154675
0.094180315
-2.5939404
-1.6709539
-1.042958
-0.64867141
-0.38648497
-0.23413684
-0.13757031
-0.020495505
0.12606988
0.22317477
0.27210597
0.25788208
0.19539691
0.11229813
0.027074557
-0.046594402
-0.1012029
-0.13496358
-0.14920104
-0.14719844
-0.13277168
-0.10949202
-0.080380485
-0.048051524
-0.014936252
0.01696951
0.046788489
0.074402169
0.10151561
0.12489311
0.1441383
0.15989787
0.172719
0.1832202
0.19159105
0.19843956
0.2035916
0.20760059
0.21041278
-2.4671551
-3.3484853
-3.7387158
-3.3822636
-2.4041104
-1.1290282
-0.21475871
0.20615146
0.38224653
0.45907426
0.48434144
0.47704501
0.43103029
0.35718555
0.25880814
0.169462
0.14357156
0.14091333
0.18463038
0.24803013
0.25088212
0.19570579
0.096294599
-1.6819398
-1.1244112
-0.74951991
-0.48272408
-0.32824105
-0.23669676
-0.12292095
0.039270926
0.20534037
0.29134004
0.29316066
0.23543859
0.14211286
0.043039838
-0.046020455
-0.11540557
-0.16101859
-0.18403058
-0.18777908
-0.17653975
-0.15435614
-0.12463486
-0.09034326
-0.054338306
-0.019080532
0.014244233
0.045831508
0.077412277
0.10492463
0.12775574
0.14649906
0.16193305
0.17453314
0.18488877
0.19316003
0.19995209
0.20506049
0.20906391
0.21186417
-1.6315053
-2.2582523
-2.9007275
-3.1125567
-2.769731
-1.9977454
-0.94342496
-0.15853999
0.21547169
0.37642033
0.4487402
0.47872509
0.46595519
0.42117082
0.35047558
0.26114546
0.18356459
0.15762165
0.15329919
0.18681816
0.23333138
0.22987878
0.17136855
0.097094706
-1.163202
-0.82552644
-0.56778219
-0.42216967
-0.35151582
-0.25187315
-0.065623282
0.13233465
0.2992734
0.33651453
0.27839908
0.18088752
0.065992725
-0.04043037
-0.12609888
-0.18590237
-0.21930424
-0.23008841
-0.22299777
-0.20262674
-0.17281187
-0.13689012
-0.098163729
-0.059591263
-0.022653054
0.012891421
0.049676232
0.081707856
0.10852768
0.1306627
0.1489511
0.16405576
0.17642848
0.18662858
0.19478997
0.20151748
0.20657591
0.2105668
0.21335087
-1.1598095
-1.5292752
-2.0000198
-2.4526924
-2.5350071
-2.2329548
-1.622725
-0.78161273
-0.11890932
0.21664098
0.36661908
0.44389231
0.46795212
0.45417988
0.4092291
0.34227377
0.26167405
0.19406992
0.16893576
0.16276665
0.18675073
0.21781578
0.20745937
0.14699205
0.089607817
-0.86525341
-0.63347225
-0.50465857
-0.4689359
-0.38607622
-0.19733332
0.029551986
0.26365165
0.37315667
0.33580095
0.22333828
0.09684464
-0.02889596
-0.1336923
-0.20918651
-0.2550685
-0.27419887
-0.27221586
-0.25437197
-0.22499296
-0.18780034
-0.14656465
-0.10477781
-0.064209621
-0.024495218
0.017847343
0.055033147
0.086246564
0.11213905
0.13365903
0.15148955
0.1662642
0.17840098
0.18843564
0.19647822
0.20313718
0.2081353
0.21210639
0.21487142
-0.86509832
-1.11282
-1.3880398
-1.7214444
-2.0353478
-2.0366166
-1.7765573
-1.2996254
-0.64741299
-0.087657329
0.21425439
0.36469178
0.43509727
0.45616707
0.44000061
0.39603169
0.33287459
0.26065569
0.20150822
0.17744263
0.16931955
0.18461396
0.20222313
0.18459399
0.12523564
0.077225846
-0.67382922
-0.58748428
-0.58997533
-0.53030604
-0.37959765
-0.11484799
0.18274944
0.39062338
0.39196942
0.28150118
0.13151122
-0.011516034
-0.13703224
-0.23160563
-0.29124503
-0.32033861
-0.32440358
-0.30974143
-0.28129578
-0.24319542
-0.19968701
-0.15483399
-0.11068989
-0.066663648
-0.018237642
0.024534619
0.060707287
0.090742054
0.11583374
0.13673787
0.15411574
0.1685541
0.18044631
0.1903075
0.19823001
0.20480573
0.20973426
0.21368029
0.21642435
-0.69370693
-0.83976406
-1.0276771
-1.2217046
-1.4461294
-1.6536376
-1.6223844
-1.4027764
-1.0370147
-0.52604512
-0.056667693
0.22096535
0.36180212
0.42537698
0.44175196
0.42426465
0.38120306
0.32259315
0.25812556
0.20632378
0.1831112
0.17321894
0.18039102
0.18677782
0.16393755
0.10612948
0.063692861
-0.67323081
-0.68136271
-0.66843528
-0.54959637
-0.28991919
0.044707091
0.36455143
0.45704527
0.34530515
0.18097051
0.0092337427
-0.13736997
-0.25196653
-0.32884713
-0.36876014
-0.3799073
-0.36900883
-0.34189903
-0.30321234
-0.25767526
-0.20993928
-0.16233257
-0.1139163
-0.058857408
-0.0099886581
0.031619018
0.066276896
0.095310619
0.11960176
0.13990401
0.15682545
0.1709212
0.18256293
0.19225377
0.20003843
0.20651603
0.21136943
0.21528619
0.21800805
-0.71010836
-0.69803103
-0.79198635
-0.91517728
-1.0458956
-1.1880726
-1.3151985
-1.280324
-1.1014438
-0.82397586
-0.40800449
-0.020789427
0.23332452
0.35773107
0.41292521
0.4255755
0.40693321
0.36567628
0.3114904
0.25418504
0.20873582
0.18605251
0.17441233
0.1744979
0.17131635
0.14532507
0.089772195
0.051320006
-0.72311946
-0.77777795
-0.69163015
-0.42574078
-0.068905408
0.29983175
0.48915278
0.44801872
0.24409631
0.041897941
-0.13519845
-0.27270592
-0.36685557
-0.42065204
-0.43921929
-0.43256559
-0.40707184
-0.36801653
-0.32066394
-0.27025623
-0.21935492
-0.16652735
-0.10428783
-0.048784536
-0.0012259235
0.038504994
0.071910574
0.099937896
0.1234534
0.14315374
0.15961513
0.17336556
0.18476768
0.19426345
0.20189362
0.20826398
0.21303769
0.21692165
0.21962034
-0.73642501
-0.67573666
-0.6729666
-0.71305443
-0.78666224
-0.87121813
-0.95666918
-1.0293056
-1.0023397
-0.870072
-0.63412593
-0.31069211
0.028485982
0.24218599
0.35098383
0.39874933
0.40771229
0.38844446
0.3493128
0.29969944
0.24893107
0.20878424
0.18672313
0.17326229
0.16777397
0.15643257
0.12858323
0.0762167
0.0410681
-0.84353577
-0.79091243
-0.53676316
-0.16255905
0.22211749
0.50242421
0.52624503
0.36394678
0.096403239
-0.1257047
-0.29225939
-0.40878521
-0.47533536
-0.50353585
-0.50100822
-0.47717824
-0.43781875
-0.38877825
-0.33590962
-0.28194359
-0.22474459
-0.15477898
-0.09210572
-0.038046211
0.007227235
0.045435703
0.077585922
0.10464188
0.127386
0.1464846
0.16248764
0.17591336
0.18704492
0.19632345
0.20379025
0.21004616
0.21473597
0.21858347
0.22125856
-0.86049128
-0.71506613
-0.60728953
-0.60280982
-0.60725861
-0.65090424
-0.70449043
-0.75489068
-0.79799052
-0.78019074
-0.67181619
-0.48940033
-0.20541525
0.066957272
0.24829748
0.34232479
0.38289213
0.38863124
0.36909224
0.33239797
0.28732309
0.24244573
0.20678993
0.18519491
0.17020985
0.1601693
0.14288059
0.11352922
0.065174739
0.032834328
-0.84052055
-0.61650575
-0.26452527
0.12284132
0.47446273
0.59914471
0.47375415
0.22216517
-0.085964174
-0.31066805
-0.45133232
-0.53712868
-0.57255612
-0.57535655
-0.55277735
-0.51288666
-0.462142
-0.40697624
-0.35022012
-0.28877489
-0.21055101
-0.14018878
-0.079063421
-0.027754022
0.01570469
0.052381229
0.083329915
0.10942156
0.13139919
0.14990339
0.16548185
0.17854217
0.18937764
0.19842766
0.20572431
0.21185929
0.21646019
0.22026757
0.22292083
-0.83529793
-0.81350474
-0.66060048
-0.51935711
-0.49880778
-0.48939505
-0.51515373
-0.54967983
-0.58216467
-0.61066728
-0.59567639
-0.5237316
-0.35083958
-0.12388458
0.1002119
0.25141735
0.33189185
0.36580923
0.36867267
0.34924328
0.31516573
0.27452744
0.23486169
0.20297056
0.1817053
0.16536079
0.15108064
0.13017321
0.10003007
0.056135975
0.026373422
-0.66250446
-0.36325996
-0.021253511
0.34622526
0.62878274
0.58165894
0.34699626
0.033456725
-0.29121797
-0.49986668
-0.60157089
-0.65094667
-0.65560283
-0.63458942
-0.59361082
-0.54087877
-0.48349328
-0.4242225
-0.35874051
-0.2717799
-0.19324478
-0.12448845
-0.066635619
-0.017458484
0.024164481
0.059382394
0.089143172
0.11427969
0.13550523
0.15346499
0.1685666
0.18123123
0.19175834
0.20057238
0.2076924
0.21369785
0.21820448
0.22197099
0.22460782
-0.66426405
-0.76342336
-0.71538478
-0.56856826
-0.4281474
-0.39021964
-0.37378271
-0.38655207
-0.41130586
-0.43455759
-0.45599018
-0.46377592
-0.38274455
-0.24374622
-0.0546428
0.12636682
0.25220296
0.3200049
0.34780984
0.34822979
0.32920592
0.29785046
0.26142099
0.22632318
0.19749562
0.17638504
0.15895696
0.14147031
0.11823492
0.088152194
0.048709079
0.021367786
-0.43764343
-0.17999773
0.12931184
0.481788
0.65676124
0.47113766
0.1613276
-0.19103373
-0.50540176
-0.67893943
-0.73369348
-0.74618321
-0.72280019
-0.68036783
-0.62510937
-0.56543562
-0.50391733
-0.43465944
-0.33855715
-0.25145015
-0.17451074
-0.10960841
-0.054226206
-0.0072181401
0.03266431
0.066443235
0.095032306
0.11923573
0.13977905
0.15712704
0.17171684
0.18397209
0.19418343
0.20275478
0.20968803
0.21555242
0.21996403
0.22369505
0.22626722
-0.47746937