/*--------------------------------*- C++ -*----------------------------------*\
| =========                 |                                                 |
| \\      /  F ield         | OpenFOAM: The Open Source CFD Toolbox           |
|  \\    /   O peration     | Version:  v2012                                 |
|   \\  /    A nd           | Website:  www.openfoam.com                      |
|    \\/     M anipulation  |                                                 |
\*---------------------------------------------------------------------------*/
FoamFile
{
    version     2.0;
    format      ascii;
    class       surfaceScalarField;
    location    "21.828410048542551";
    object      phi;
}
// * * * * * * * * * * * * * * * * * * * * * * * * * * * * * * * * * * * * * //

dimensions      [0 3 -1 0 0 0 0];
oriented        oriented;


internalField   nonuniform List<scalar> 
18180
(
0.0097220666
-3.5658157
0.019179095
-3.3335867
0.0093791015
-3.6332963
0.028296147
-3.1166929
0.018506495
-3.3963546
0.0088253165
-3.7008979
0.037364091
-2.9149569
0.027356613
-3.1749172
0.017457672
-3.4596429
0.0081615597
-3.76599
0.04632021
-2.7270363
0.036094004
-2.9691452
0.025908249
-3.2338183
0.016255671
-3.5211903
0.0073494742
-3.8276012
0.055271431
-2.5517619
0.04461094
-2.7778851
0.034301812
-3.0243161
0.024316175
-3.2919941
0.014776103
-3.5795554
0.0063698794
-3.8841835
0.064231547
-2.3880512
0.052817429
-2.5998427
0.042510337
-2.8295566
0.032511679
-3.0790476
0.022388337
-3.3472807
0.01294979
-3.6335123
0.0051977966
-3.9359801
0.073310493
-2.2351192
0.060524872
-2.4334544
0.050351376
-2.6481672
0.040725477
-2.8808548
0.030432302
-3.1313761
0.019972476
-3.3987983
0.010701673
-3.682887
0.0038219769
-3.9822055
0.082426512
-2.0923032
0.067542983
-2.2778421
0.057506404
-2.4785878
0.048770319
-2.6963582
0.038880799
-2.9303932
0.027772061
-3.1808456
0.016893523
-3.4466164
0.0080134116
-3.727375
0.0022529467
-4.0233333
0.091912294
-1.9591036
0.073586665
-2.1321524
0.063567101
-2.3196608
0.056283337
-2.523771
0.047635539
-2.7434356
0.036466102
-2.9780403
0.024179424
-3.2275389
0.013060098
-3.490139
0.0049281946
-3.7668935
0.00050649229
-4.0589232
0.10222286
-1.8352277
0.078585169
-1.9960711
0.068172048
-2.1704689
0.062785028
-2.361682
0.056421122
-2.5684494
0.046120025
-2.7892959
0.032841295
-3.023843
0.019424401
-3.270848
0.0084976366
-3.529049
0.001551573
-3.8013394
-0.0012197943
-4.0896411
0.11365082
-1.7201805
0.082393373
-1.8692179
0.070786533
-2.0304538
0.067670489
-2.2089382
0.064833842
-2.4038821
0.056655421
-2.6127703
0.04314083
-2.8346248
0.027522702
-3.0673331
0.013466786
-3.3097597
0.0033711913
-3.5628962
-0.0019273707
-3.8309072
-0.0028506405
-4.115455
0.12668545
-1.613541
0.084905153
-1.7511341
0.070666962
-1.8989951
0.070139572
-2.0647023
0.07230011
-2.2483392
0.067886266
-2.446744
0.055253074
-2.6575527
0.037803185
-2.8783063
0.020315317
-3.1066258
0.0064850707
-3.3435705
-0.0020378328
-3.5917656
-0.0053631193
-3.8557078
-0.0043542129
-4.1372945
0.14190474
-1.5149092
0.086181476
-1.6415733
0.067290676
-1.7758481
0.069473643
-1.9284032
0.078099339
-2.1007375
0.079479385
-2.2895319
0.069289889
-2.4910668
0.050697697
-2.7017656
0.029627096
-2.9184135
0.011376213
-3.1407217
-0.0011058269
-3.3722244
-0.0074397801
-3.6158665
-0.0085216124
-3.8763459
-0.0056582779
-4.1552918
0.15996458
-1.4238825
0.086358848
-1.5402249
0.060196549
-1.6608338
0.064757783
-1.7995887
0.081455993
-1.9604157
0.090995805
-2.140001
0.085260671
-2.3336409
0.066639068
-2.5362151
0.042037023
-2.7430741
0.01866139
-2.9532172
0.0012050118
-3.1693241
-0.0089109379
-3.3957607
-0.012491476
-3.6355958
-0.011261314
-3.893211
-0.0067109369
-4.1702429
0.18154625
-1.3399943
0.085699539
-1.4468207
0.048890449
-1.5536147
0.054941884
-1.6779414
0.081432434
-1.8267405
0.10176121
-1.9971996
0.103059
-2.1839219
0.086021174
-2.3801286
0.058262029
-2.5794124
0.029079165
-2.7792708
0.0054942398
-2.9821666
-0.0094886221
-3.1924036
-0.016317148
-3.4145561
-0.016915868
-3.6513905
-0.013483078
-3.9068549
-0.0074975187
-4.1822921
0.2073187
-1.262771
0.08458711
-1.361019
0.032891108
-1.4539428
0.039089046
-1.5632293
0.076938328
-1.6992316
0.11104841
-1.8604279
0.12243763
-2.0408418
0.10916454
-2.232258
0.079064776
-2.4261503
0.04352574
-2.6180229
0.012447022
-2.8093681
-0.0088308827
-3.0051735
-0.019901625
-3.210316
-0.022867436
-3.4290752
-0.020518547
-3.6637797
-0.015139863
-3.9177114
-0.0080222282
-4.1922405
0.23779272
-1.1915418
0.083509792
-1.2824536
0.011812682
-1.3615797
0.016263504
-1.4551989
0.066889627
-1.5776544
0.11810049
-1.7291566
0.14301974
-1.9035407
0.13629449
-2.0914207
0.10521714
-2.2820387
0.063040087
-2.4684004
0.022958334
-2.6503875
-0.0064222113
-2.832893
-0.023155355
-3.0221995
-0.029224683
-3.223418
-0.028222022
-3.4399348
-0.02320249
-3.6733004
-0.016234149
-3.9263538
-0.0083029655
-4.2002459
0.2735476
-1.1257925
0.082992016
-1.2104873
-0.014725971
-1.2761658
-0.014424803
-1.3536538
0.050211145
-1.4617488
0.12203132
-1.6030123
0.164299
-1.7713463
0.16748311
-1.956577
0.1374677
-2.1458422
0.088785631
-2.3292096
0.038156759
-2.5041953
-0.0015934662
-2.6751311
-0.025866912
-2.8493096
-0.036160327
-3.0336691
-0.036879514
-3.2324474
-0.032200515
-3.4477083
-0.024961853
-3.6805146
-0.016807462
-3.9331738
-0.008369685
-4.2068746
0.31614596
-1.0667127
0.083969244
-1.145012
-0.047199906
-1.1969696
-0.053857123
-1.2582409
0.025804787
-1.3512839
0.12191191
-1.481688
0.18560293
-1.643703
0.20259109
-1.8268238
0.17645032
-2.0163864
0.12202532
-2.1992783
0.059373995
-2.3698635
0.0064931975
-2.531153
-0.02773679
-2.6913649
-0.043804803
-2.8589616
-0.046886255
-3.0403513
-0.042544592
-3.2380848
-0.034777549
-3.4530814
-0.025862669
-3.6859049
-0.016927143
-3.9385601
-0.0082592179
-4.212203
0.36716599
-1.0157822
0.089189465
-1.0890295
-0.085541776
-1.1244244
-0.10251645
-1.168626
-0.0072262684
-1.2460977
0.11695482
-1.3650868
0.20619393
-1.5202327
0.24121949
-1.7013331
0.22259234
-1.8925449
0.16403935
-2.0774396
0.088208773
-2.2464949
0.019091298
-2.4003034
-0.028300548
-2.5476169
-0.052316562
-2.6990276
-0.058670966
-2.8628043
-0.054778434
-3.0432631
-0.046155827
-3.2412183
-0.036051169
-3.4566286
-0.02601836
-3.6898796
-0.016673732
-3.9428086
-0.008009881
-4.2167072
0.41835364
-0.96490462
0.10110427
-1.043722
-0.12960504
-1.0616048
-0.16091825
-1.0852042
-0.049378426
-1.1462507
0.1068399
-1.2535098
0.22570682
-1.4012075
0.28306784
-1.5798131
0.27622204
-1.773391
0.21611071
-1.9625496
0.12649537
-2.1330842
0.037636595
-2.2818624
-0.026972886
-2.4175945
-0.061836267
-2.5531756
-0.072784016
-2.6994579
-0.069525925
-2.86227
-0.059704565
-3.0435001
-0.047855921
-3.2425781
-0.036200316
-3.4588718
-0.025566394
-3.6928006
-0.016130526
-3.9462118
-0.0076581073
-4.2204332
0.46622185
-0.90547637
0.11832322
-0.99714471
-0.18146474
-1.0074619
-0.23085371
-1.0097665
-0.10141314
-1.051866
0.091576755
-1.1473465
0.24406053
-1.2872141
0.32799898
-1.4626935
0.33792681
-1.6588867
0.27990464
-1.8540605
0.17659793
-2.029029
0.064072303
-2.1754252
-0.022933955
-2.30092
-0.072537239
-2.4209643
-0.089893558
-2.549647
-0.087582032
-2.6947658
-0.0761223
-2.8588992
-0.061874385
-3.0421109
-0.047921222
-3.2428257
-0.035443389
-3.4601969
-0.024648726
-3.6949516
-0.015376396
-3.9489763
-0.0072363377
-4.2236799
0.51023455
-0.84337864
0.13584215
-0.93707523
-0.23926263
-0.95397766
-0.31460518
-0.94076651
-0.16550805
-0.96331896
0.071105599
-1.0466552
0.26087521
-1.1783421
0.37487477
-1.3495503
0.40693869
-1.5480972
0.35653955
-1.7513903
0.24158795
-1.9344771
0.10140571
-2.0814219
-0.015010585
-2.1975412
-0.084599781
-2.3020749
-0.11085733
-2.4127958
-0.10993779
-2.5399564
-0.096278738
-2.6870003
-0.07877552
-2.8540904
-0.061714157
-3.0398986
-0.046690739
-3.2424146
-0.034005044
-3.4609395
-0.023398756
-3.6965629
-0.014481112
-3.9512486
-0.0067721191
-4.2264334
0.54911506
-0.77927752
0.14196278
-0.86269608
-0.30206748
-0.88799547
-0.41236118
-0.87227907
-0.2426863
-0.88021864
0.044874242
-0.95131852
0.27568517
-1.0745647
0.42139609
-1.2393051
0.47956107
-1.4376622
0.44289043
-1.6493626
0.32159236
-1.8459027
0.15271022
-2.0000471
-0.00088468031
-2.109003
-0.097868332
-2.1967463
-0.13671662
-2.2882525
-0.13784783
-2.3969142
-0.1212418
-2.5268872
-0.099362099
-2.6780401
-0.078147918
-2.8488845
-0.059745885
-3.0374558
-0.044509699
-3.241718
-0.032093845
-3.4613174
-0.021933177
-3.6977634
-0.013503343
-3.9531608
-0.0062877322
-4.2289174
0.58190998
-0.71523535
0.1399413
-0.78962436
-0.37034725
-0.80729219
-0.51493007
-0.80052773
-0.32912825
-0.80148318
0.012889368
-0.86150493
0.28838426
-0.97612503
0.46546574
-1.1321244
0.55163051
-1.3260266
0.533138
-1.5419255
0.41084118
-1.7522337
0.2155786
-1.9222815
0.020179553
-2.0338848
-0.11187984
-2.1067912
-0.16865178
-2.176159
-0.17285989
-2.2647174
-0.15232218
-2.3773299
-0.12458047
-2.5129044
-0.097868725
-2.6692244
-0.075041918
-2.8440055
-0.056493171
-3.0351479
-0.041693622
-3.2409652
-0.029889552
-3.4614786
-0.020348754
-3.698697
-0.012490021
-3.9547963
-0.0058004957
-4.2311133
0.60831764
-0.65198802
0.13328601
-0.72017035
-0.4401266
-0.73192348
-0.60849745
-0.72791308
-0.41721351
-0.72714042
-0.022921713
-0.77804997
0.29929162
-0.88361435
0.50596428
-1.0292229
0.6199947
-1.2143564
0.62351007
-1.429566
0.50571739
-1.6495738
0.28514685
-1.8345931
0.043910659
-1.9581382
-0.12844989
-2.0284946
-0.20834885
-2.0778417
-0.21705231
-2.1428709
-0.1911024
-2.2369692
-0.15553675
-2.3572507
-0.12158869
-2.4997944
-0.093031819
-2.6614611
-0.070246026
-2.8398604
-0.052424612
-3.0332462
-0.0385087
-3.2402812
-0.027538268
-3.4615313
-0.018721627
-3.6994282
-0.01147712
-3.956247
-0.0053233269
-4.2331526
0.62886988
-0.59104711
0.12318654
-0.65274825
-0.50833193
-0.6632946
-0.69427817
-0.65946118
-0.50135998
-0.65755554
-0.060055877
-0.70155237
0.30867271
-0.79781065
0.54262557
-0.9320396
0.68263772
-1.1049897
0.71089627
-1.314111
0.60392639
-1.539737
0.36394439
-1.7404749
0.069544716
-1.8717343
-0.15144946
-1.945725
-0.2585001
-1.9885207
-0.27335286
-2.0318581
-0.23973923
-2.1047361
-0.19348902
-2.2094942
-0.15007726
-2.339053
-0.11415977
-2.48867
-0.086030668
-2.6552095
-0.06444665
-2.8367061
-0.047925118
-3.0318037
-0.035166109
-3.2397459
-0.025152471
-3.4615381
-0.017109006
-3.7000424
-0.010491018
-3.9575313
-0.0048653538
-4.2349963
0.64423681
-0.53346121
0.11144021
-0.58947473
-0.572173
-0.59953528
-0.77335789
-0.5967068
-0.58064409
-0.59309831
-0.096722614
-0.63166164
0.31679071
-0.71930615
0.57548164
-0.8416501
0.7379225
-0.99973634
0.79113525
-1.1968425
0.70201949
-1.4233957
0.44879377
-1.6360355
0.10381351
-1.785657
-0.17880631
-1.8543822
-0.320626
-1.8932424
-0.34400962
-1.9276593
-0.30116183
-1.9804044
-0.24002837
-2.0681741
-0.1841158
-2.185326
-0.13883542
-2.3240749
-0.10404413
-2.4800258
-0.077858319
-2.65066
-0.058189967
-2.834538
-0.043290694
-3.0308732
-0.031823471
-3.2393762
-0.022814265
-3.4615427
-0.015551786
-3.7005422
-0.0095499285
-3.958708
-0.0044326471
-4.2367314
0.6552134
-0.4800159
0.0992517
-0.53080312
-0.6298866
-0.54172999
-0.84410518
-0.54049608
-0.65374672
-0.53569951
-0.1313666
-0.56850942
0.32443344
-0.64826701
0.60465191
-0.75873135
0.78447258
-0.89992459
0.85936282
-1.0788651
0.79098914
-1.296275
0.53232555
-1.517753
0.14462665
-1.687191
-0.2087093
-1.7651871
-0.39476483
-1.7893676
-0.42933154
-1.8172405
-0.3769299
-1.8613538
-0.29730952
-1.9325311
-0.22452853
-2.0370825
-0.1673775
-2.166048
-0.12438596
-2.3128064
-0.092658712
-2.4739591
-0.06927474
-2.6477342
-0.051879778
-2.8333047
-0.038733974
-3.0303805
-0.028591801
-3.2391895
-0.020580337
-3.4615423
-0.014077267
-3.7009835
-0.0086655862
-3.9597789
-0.0040288713
-4.2383369
0.65750083
-0.50303361
0.087674082
-0.47736189
-0.68040701
-0.48963147
-0.90596699
-0.49083235
-0.71961344
-0.48593888
-0.163556
-0.51289807
0.33219184
-0.58461891
0.63040291
-0.68359273
0.82149377
-0.80680732
0.91147395
-0.96226067
0.86259323
-1.1602445
0.59976495
-1.3739491
0.16630331
-1.5492268
-0.2470527
-1.6577167
-0.48612417
-1.6824399
-0.53174627
-1.6958316
-0.46585543
-1.7373146
-0.36629745
-1.8012143
-0.27241876
-1.8933329
-0.19995268
-2.0132208
-0.1470049
-2.1521236
-0.10871731
-2.305238
-0.081037717
-2.4702761
-0.060815678
-2.6462502
-0.045792763
-2.8328678
-0.034397615
-3.0303166
-0.025543885
-3.2391354
-0.018486615
-3.461564
-0.012702166
-3.7013747
-0.0078446938
-3.9607996
-0.0036558223
-4.2398571
0.65792429
-0.48003425
0.078077999
-0.50319609
-0.72332376
-0.44321248
-0.95870513
-0.44715015
-0.77776
-0.44325103
-0.19335044
-0.46491219
0.33975821
-0.52825821
0.65314401
-0.61630042
0.84898568
-0.72148877
0.9461603
-0.85107801
0.91319871
-1.0219985
0.64214823
-1.2123007
0.15650809
-1.3734306
-0.31357211
-1.491025
-0.6015723
-1.5503738
-0.65479812
-1.5678483
-0.56891212
-1.6013573
-0.44414797
-1.6678098
-0.32829376
-1.7534202
-0.23669285
-1.8646935
-0.17162713
-1.9968088
-0.12573167
-2.1432536
-0.093201225
-2.300947
-0.06986866
-2.4686409
-0.052826231
-2.6459817
-0.040102539
-2.8331326
-0.030368764
-3.0305602
-0.022722582
-3.2392175
-0.016553358
-3.4616112
-0.011435134
-3.7017572
-0.0070901339
-3.9617604
-0.0033139466
-4.2412705
0.65625551
-0.45643639
0.07104989
-0.48276443
-0.75544974
-0.48060309
-1.0026605
-0.40884423
-0.82789424
-0.40687799
-0.22080234
-0.42399245
0.34650718
-0.47894919
0.6732143
-0.55667987
0.86764617
-0.64473498
0.96485639
-0.74915668
0.94211022
-0.88852024
0.65844599
-1.0474345
0.12340987
-1.1879849
-0.40166135
-1.293121
-0.73000689
-1.3701951
-0.79397393
-1.4192608
-0.68663786
-1.4583189
-0.52847217
-1.5249262
-0.38915123
-1.6144754
-0.27756652
-1.7199928
-0.19774928
-1.8462047
-0.1431821
-1.9870977
-0.10532385
-2.1387176
-0.078684683
-2.2993988
-0.059559978
-2.4686806
-0.04550398
-2.6467135
-0.034904781
-2.8339313
-0.026692806
-3.0310825
-0.020148615
-3.2393958
-0.014789144
-3.4616977
-0.010278863
-3.7021452
-0.0064020461
-3.962702
-0.0030026983
-4.2425993
0.65233512
-0.43280021
0.066355802
-0.4614985
-0.77981891
-0.46797788
-1.0391799
-0.4543859
-0.87011465
-0.37581278
-0.24586772
-0.3894757
0.35197242
-0.43628297
0.69071151
-0.50424695
0.8785239
-0.57672219
0.97008182
-0.65834192
0.95018666
-0.76519976
0.65139655
-0.89009843
0.074128586
-1.0064641
-0.49777297
-1.0991334
-0.85762666
-1.1726154
-0.93054072
-1.2413079
-0.80866428
-1.3050706
-0.61969097
-1.374578
-0.45007228
-1.4710243
-0.32052117
-1.5783669
-0.22474293
-1.7000705
-0.16029056
-1.8364156
-0.11678058
-1.9829235
-0.086771406
-2.1376936
-0.065616307
-2.300018
-0.050314941
-2.4700399
-0.038940192
-2.648208
-0.030238792
-2.8351465
-0.023385475
-3.0317845
-0.017827018
-3.2396687
-0.013194248
-3.4618356
-0.0092318537
-3.7025712
-0.0057786341
-3.9636068
-0.0027208661
-4.2438382
0.64612283
-0.40971145
0.063893566
-0.4400939
-0.79609805
-0.45484437
-1.0669368
-0.45055807
-0.91808636
-0.41618416
-0.26839058
-0.36045614
0.35571404
-0.39961752
0.70552076
-0.45837821
0.8830016
-0.51729778
0.96460711
-0.57905864
0.94018646
-0.65577899
0.62544535
-0.74739372
0.014913881
-0.83874877
-0.59405005
-0.9169494
-0.9785943
-0.98479992
-1.0560423
-1.0544249
-0.9225771
-1.1348937
-0.71123481
-1.2206137
-0.50970447
-1.3215125
-0.36048037
-1.4373994
-0.25130795
-1.5583286
-0.17606739
-1.6911535
-0.12674789
-1.8334014
-0.09349686
-1.9830139
-0.070512501
-2.1393314
-0.054169827
-2.3022922
-0.042197214
-2.4723786
-0.033153433
-2.6502562
-0.026106188
-2.8366527
-0.02044249
-3.0326462
-0.015752011
-3.2400007
-0.011763315
-3.4620427
-0.0082897839
-3.7030399
-0.0052168169
-3.9645087
-0.0024667902
-4.2449863
0.6376828
-0.38776249
0.063573441
-0.41914863
-0.80384539
-0.44200801
-1.085599
-0.44654487
-0.9573046
-0.42113829
-0.31411198
-0.37805937
0.35753915
-0.36829146
0.71752987
-0.41843234
0.88262544
-0.46600443
0.95117459
-0.51112923
0.91616328
-0.56197753
0.5852034
-0.62322787
-0.049121777
-0.69080146
-0.68451887
-0.75456934
-1.086241
-0.81547248
-1.1661433
-0.881656
-1.0238798
-0.96030186
-0.79204126
-1.0608059
-0.56606489
-1.1703939
-0.39330665
-1.2945516
-0.27409345
-1.4206207
-0.1893641
-1.5513881
-0.13420832
-1.6902735
-0.098100839
-1.8353557
-0.073672254
-1.9862205
-0.056631532
-2.1429319
-0.044343696
-2.305743
-0.035181335
-2.4753995
-0.028116822
-2.6526941
-0.022484511
-2.8383766
-0.017846621
-3.0335835
-0.013911047
-3.2403993
-0.010487416
-3.4623265
-0.0074465251
-3.7035648
-0.0047127077
-3.9653716
-0.0022385682
-4.2460377
0.62717063
-0.36754351
0.065381679
-0.39933143
-0.80284281
-0.42984251
-1.0948977
-0.44308728
-0.98694225
-0.42671934
-0.35628066
-0.38664136
0.33079752
-0.35767874
0.72653044
-0.38365481
0.87882547
-0.42208403
0.93207286
-0.45364373
0.882092
-0.48353697
0.53505487
-0.51909335
-0.11388442
-0.56551131
-0.7649155
-0.61624751
-1.1762637
-0.67027062
-1.2566546
-0.7315794
-1.1118326
-0.80058063
-0.85989765
-0.89881358
-0.61208279
-1.020521
-0.41793486
-1.1511971
-0.28834095
-1.285846
-0.19842165
-1.4174498
-0.13803455
-1.5537657
-0.099714998
-1.6949474
-0.074448294
-1.8407521
-0.0572109
-1.9916052
-0.045006189
-2.1478655
-0.036034515
-2.3099829
-0.029191185
-2.4788727
-0.02377713
-2.6553891
-0.019337365
-2.8402214
-0.015573247
-3.0345885
-0.012287518
-3.240852
-0.0093554963
-3.462685
-0.0066949185
-3.7041246
-0.0042619947
-3.9662167
-0.0020341586
-4.246977
0.61485611
-0.34959918
0.069355642
-0.38128403
-0.79312155
-0.41876722
-1.0947513
-0.44037338
-1.0062665
-0.43358229
-0.39416313
-0.39657436
0.30297632
-0.36530173
0.71329191
-0.3510999
0.87208906
-0.38383641
0.90935613
-0.40561112
0.84141329
-0.41900971
0.47918128
-0.4345246
-0.17626535
-0.46338101
-0.83265901
-0.50319206
-1.246435
-0.55137762
-1.3275179
-0.60570022
-1.1860702
-0.66393174
-0.91943603
-0.74707729
-0.64392313
-0.87231779
-0.43201943
-1.011458
-0.29113773
-1.1535271
-0.20020355
-1.2895425
-0.13708959
-1.4242011
-0.097401378
-1.5620349
-0.072159051
-1.7031787
-0.055393965
-1.8483879
-0.043792894
-1.9983917
-0.03540845
-2.1536388
-0.029088475
-2.3146892
-0.024125515
-2.4826082
-0.020068193
-2.6582228
-0.016621464
-2.8421284
-0.013593973
-3.0356165
-0.010862837
-3.241355
-0.0083554837
-3.463107
-0.0060273307
-3.7047286
-0.0038601743
-3.9669897
-0.001851499
-4.2478112
0.60118482
-0.33441689
0.075563166
-0.3655814
-0.77501029
-0.40912662
-1.0851744
-0.43872639
-1.0148199
-0.44164092
-0.42692081
-0.4086256
0.27499419
-0.37518662
0.69944428
-0.35822439
0.84997964
-0.33610959
0.88409239
-0.36434096
0.79695353
-0.36679065
0.42119408
-0.36750208
-0.2341555
-0.3829436
-0.88656295
-0.41451279
-1.2967128
-0.45781738
-1.3813966
-0.50348046
-1.2482546
-0.54983327
-0.97449683
-0.61458797
-0.66590841
-0.73006469
-0.43146096
-0.87751066
-0.28177455
-1.025565
-0.19132385
-1.1675094
-0.13000082
-1.3020434
-0.090263626
-1.4369244
-0.066128663
-1.5737366
-0.050678992
-1.7135369
-0.04032169
-1.8573612
-0.033006202
-2.0059774
-0.027570806
-2.1598453
-0.023334314
-2.3196312
-0.019874817
-2.4864571
-0.016919652
-2.6610956
-0.014291327
-2.8440467
-0.011879231
-3.0366652
-0.0096177735
-3.2418906
-0.0074750187
-3.4635933
-0.0054360273
-3.7053282
-0.0035027648
-3.9677138
-0.001688554
-4.2485137
-0.32232506
0.58669755
0.084096427
-0.3527351
-0.74906623
-0.40126767
-1.066326
-0.43834677
-1.0123267
-0.451037
-0.45298946
-0.42343269
0.24653032
-0.38686188
0.68473011
-0.36734074
0.8287105
-0.3441167
0.85144751
-0.30933847
0.75053332
-0.32319087
0.36343823
-0.3151512
-0.28613659
-0.32148967
-0.92662077
-0.3475678
-1.3290937
-0.3866657
-1.4222332
-0.42266459
-1.3021201
-0.45566943
-1.0272804
-0.50246316
-0.6846573
-0.60045472
-0.41566994
-0.75012102
-0.25881404
-0.90485342
-0.17003913
-1.0516133
-0.11487557
-1.1876983
-0.077573598
-1.3199583
-0.055738313
-1.4526896
-0.042617224
-1.5872779
-0.034251719
-1.7250393
-0.028563635
-1.8669891
-0.024426125
-2.0139021
-0.021225303
-2.1662123
-0.018602813
-2.324623
-0.016331426
-2.4902973
-0.014262353
-2.6639518
-0.012302115
-2.8459505
-0.010399858
-3.0376981
-0.008533419
-3.24246
-0.0067019625
-3.4641188
-0.004913461
-3.7059299
-0.0031854052
-3.968329
-0.0015433764
-4.2490955
-0.34301511
0.09498874
-0.31324529
0.57195913
-0.7160723
-0.39547565
-1.038599
-0.43934783
-0.99902867
-0.46145369
-0.47150242
-0.44043806
0.21839978
-0.40209775
0.66904336
-0.37811925
0.80771423
-0.35351966
0.81912388
-0.31770024
0.71436588
-0.27858103
0.30895483
-0.27447529
-0.33061683
-0.27631475
-0.95363284
-0.29884067
-1.3468097
-0.33404714
-1.4541329
-0.36016481
-1.3517999
-0.37878376
-1.0798696
-0.40820408
-0.70414314
-0.48725071
-0.38856127
-0.63147826
-0.22005111
-0.79292448
-0.13619104
-0.94315183
-0.08989693
-1.0813437
-0.058696059
-1.2114664
-0.04052018
-1.3402402
-0.03085421
-1.4697556
-0.025317293
-1.6015754
-0.021875557
-1.7368953
-0.019489483
-1.8767742
-0.017657952
-2.0218531
-0.016124732
-2.1725328
-0.014737734
-2.3295358
-0.013395213
-2.4940599
-0.012031312
-2.6667414
-0.010611412
-2.8478046
-0.0091281509
-3.0387205
-0.0075917203
-3.2430689
-0.0060247167
-3.4646777
-0.0044524141
-3.7064577
-0.0029039667
-3.9688572
-0.0014141183
-4.249529
-0.39187361
-0.67695753
-0.33667612
0.10860607
-0.30748996
0.55788091
-1.0026793
-0.44172253
-0.9756236
-0.47254803
-0.48201353
-0.45890313
0.19138991
-0.42030762
0.65092723
-0.39098148
0.7872625
-0.36483256
0.7873452
-0.32765687
0.67511459
-0.28399504
0.2961468
-0.2717094
-0.36492236
-0.2454906
-0.96910801
-0.26492004
-1.3536968
-0.29584151
-1.4804989
-0.31280194
-1.400426
-0.31708782
-1.134112
-0.32938926
-0.72556992
-0.39072837
-0.35478878
-0.5246088
-0.16496829
-0.69027785
-0.089559685
-0.84371603
-0.054367331
-0.98315104
-0.032938368
-1.111687
-0.020243218
-1.2364938
-0.015157209
-1.3609918
-0.013354866
-1.4869839
-0.01282066
-1.6158111
-0.012664687
-1.7486205
-0.01254661
-1.8863795
-0.012357042
-2.0296219
-0.012052188
-2.1786696
-0.011600487
-2.3342806
-0.010976118
-2.4976818
-0.010167334
-2.6694304
-0.0091801284
-2.8495881
-0.008038368
-3.0397398
-0.0067758207
-3.2437136
-0.0054324171
-3.4652104
-0.0040461442
-3.7069269
-0.0026545707
-3.9692454
-0.0012990856
-4.2498406
-0.44539932
-0.95944783
-0.39130069
-0.63206676
-0.33339376
0.1246777
-0.30553365
0.54547802
-0.94312182
-0.48400109
-0.48447149
-0.4780895
0.16633411
-0.44079735
0.62986233
-0.40627993
0.76660659
-0.37746149
0.75597312
-0.33937589
0.63388477
-0.29210993
0.27659823
-0.27059324
-0.33631427
-0.30573124
-0.97545751
-0.24295922
-1.3537691
-0.26846232
-1.5037474
-0.27744367
-1.4494561
-0.2690754
-1.1908913
-0.26489124
-0.74853699
-0.31007084
-0.31706115
-0.43173434
-0.095275518
-0.59771391
-0.029521271
-0.75420566
-0.0086802946
-0.89361249
0.00026010398
-1.0206554
0.0051458902
-1.1415277
0.0045671079
-1.2609919
0.0016842712
-1.3811611
-0.0013709704
-1.5036322
-0.0039369249
-1.6294889
-0.0058767048
-1.7598745
-0.0072738594
-1.8956174
-0.0082341612
-2.0370638
-0.0088234045
-2.1845325
-0.0090712755
-2.3387999
-0.0089949862
-2.5011286
-0.0086175378
-2.671979
-0.0079729351
-2.851302
-0.0071069748
-3.0407648
-0.006070241
-3.2443701
-0.0049150504
-3.4657214
-0.0036883958
-3.7072885
-0.0024336498
-3.969534
-0.0011967023
-4.2500073
-0.49549882
-0.90277663
-0.45148279
-0.90952085
-0.39200789
-0.58316945
-0.33371355
0.14300388
-0.30641596
0.53485145
-0.47917857
-0.49732378
0.14396316
-0.46272551
0.60591784
-0.42391142
0.74484442
-0.39161084
0.72524144
-0.35263677
0.59157171
-0.3028718
0.25284319
-0.27469972
-0.31379881
-0.29866936
-0.9202274
-0.36480899
-1.3505032
-0.24960964
-1.525163
-0.25163351
-1.4986399
-0.23332091
-1.2491975
-0.21510089
-0.7716849
-0.24510831
-0.27596617
-0.35415885
-0.013509669
-0.51662635
0.044065487
-0.67493801
0.046354372
-0.81321142
0.040753961
-0.938151
0.035419908
-1.0551049
0.02806327
-1.1695226
0.019682313
-1.2838965
0.012391175
-1.4000416
0.0066224173
-1.5191787
0.0022899249
-1.6423139
-0.00091801221
-1.7705038
-0.0032994765
-1.9043463
-0.0050534381
-2.0441038
-0.0062848653
-2.1900677
-0.0070480583
-2.3430563
-0.0073831229
-2.5043586
-0.0073353628
-2.6743846
-0.0069582929
-2.8529471
-0.0063127445
-3.0417828
-0.0054609289
-3.2450364
-0.0044634741
-3.4661774
-0.0033734677
-3.7075715
-0.0022379257
-3.9696828
-0.0011055332
-4.2500569
-0.51599194
-0.46673669
-0.50794433
-0.85604602
-0.45723603
-0.85450327
-0.39457442
-0.53200051
-0.33663409
0.16334338
-0.30908789
0.52552376
0.12481116
-0.48522073
0.57950653
-0.44337851
0.72126895
-0.40737583
0.6949301
-0.36719286
0.54920327
-0.31619136
0.2259473
-0.28249906
-0.29759844
-0.29658755
-0.8665812
-0.35627112
-1.2992716
-0.41945229
-1.5447628
-0.2343415
-1.5469011
-0.20819075
-1.3053903
-0.18122006
-0.7932889
-0.19659607
-0.23100464
-0.29279983
0.077422945
-0.44795164
0.12960961
-0.60557286
0.10968882
-0.74202173
0.087714021
-0.8639707
0.070368054
-0.97701581
0.055102532
-1.0863781
0.040483316
-1.1949551
0.028286802
-1.3047189
0.018844849
-1.4172334
0.011803187
-1.5334142
0.006593568
-1.6541733
0.002670794
-1.7804043
-0.00033305816
-1.9125219
-0.0026257895
-2.050694
-0.0043101691
-2.1952495
-0.0054446312
-2.3470186
-0.0060813725
-2.5073689
-0.0062801273
-2.6766326
-0.0061083255
-2.854518
-0.0056367413
-3.0427945
-0.004935242
-3.2456966
-0.0040694377
-3.4665902
-0.0030961735
-3.7077238
-0.0020644407
-3.9697245
-0.0010242743
-4.2499622
-0.50739535
0.10914037
-0.53410015
-0.44864658
-0.51870655
-0.80428253
-0.46352522
-0.7957129
-0.39873456
-0.47955773
-0.34100571
0.18535379
-0.31319148
0.51760101
0.55131229
-0.46408207
0.69551673
-0.42460685
0.6645692
-0.38289143
0.50775931
-0.33177186
0.19737486
-0.29430049
-0.28533251
-0.30057062
-0.81473582
-0.35248163
-1.2433484
-0.41574066
-1.5311132
-0.43746281
-1.5929488
-0.19285784
-1.3573673
-0.16007691
-0.8114573
-0.16590733
-0.18277447
-0.2473151
0.17431057
-0.39230095
0.22485621
-0.54638068
0.18041531
-0.67984195
0.14002252
-0.79789538
0.10948773
-0.90675955
0.085195551
-1.0111012
0.063741748
-1.1140083
0.046070212
-1.217418
0.032500867
-1.3232327
0.022451566
-1.4326547
0.015068998
-1.5463292
0.009526109
-1.6650541
0.0052346376
-1.7895722
0.0018484917
-1.9201115
-0.00080139503
-2.0568327
-0.0027956723
-2.2000529
-0.0041884511
-2.3506818
-0.005038896
-2.5101405
-0.0054164923
-2.6787249
-0.0053985157
-2.856
-0.0050622537
-3.0437908
-0.0044818779
-3.2463524
-0.0037255244
-3.4669006
-0.0028518746
-3.7077749
-0.001910522
-3.9696276
-0.00095175939
-4.2497579
-0.48518906
0.52207341
-0.52797337
0.095930258
-0.55036528
-0.42506069
-0.52849971
-0.74898922
-0.47006484
-0.73448763
-0.40401866
-0.42615843
-0.34686652
0.20908952
-0.31884078
0.51124638
0.66747239
-0.4429561
0.63366142
-0.39955789
0.46772275
-0.34896087
0.16819819
-0.30941187
-0.2761775
-0.30936798
-0.76514259
-0.3543083
-1.1844625
-0.41505355
-1.507696
-0.4437068
-1.6279104
-0.40705278
-1.4063429
-0.14751053
-0.82554014
-0.14863129
-0.13357972
-0.21737248
0.27438636
-0.34978289
0.32652853
-0.49694988
0.25690003
-0.62621301
0.19629756
-0.73945807
0.15193822
-0.8437764
0.11781175
-0.94314243
0.089038878
-1.0405368
0.065417968
-1.1377751
0.047306484
-1.2368746
0.033961806
-1.3394966
0.024260879
-1.4463787
0.017058334
-1.5579595
0.011487966
-1.6749937
0.0070262849
-1.7980165
0.0034139456
-1.9271428
0.00053853504
-2.0625026
-0.0016565197
-2.2044841
-0.0032185445
-2.3540375
-0.0042121067
-2.5126807
-0.0047138081
-2.6806391
-0.0048074364
-2.8573975
-0.0045745967
-3.0447726
-0.0040907901
-3.2469499
-0.0034251663
-3.46713
-0.0026364119
-3.7077052
-0.001773787
-3.9694311
-0.00088694314
-4.2494174
-0.46181796
0.63724349
-0.5045837
0.49168535
-0.5477494
0.086238529
-0.56445421
-0.39717568
-0.53704742
-0.69166214
-0.47657916
-0.67197109
-0.41022663
-0.37235793
-0.35412313
0.23439789
-0.32629288
0.50636102
0.60178576
-0.41692239
0.42927889
-0.36728205
0.13962372
-0.3273128
-0.2691603
-0.32243408
-0.71854995
-0.36019819
-1.1252617
-0.41732917
-1.4772436
-0.45023128
-1.6511093
-0.42521887
-1.4919077
-0.32505673
-0.83534305
-0.14014237
-0.084761846
-0.19952198
0.37410131
-0.3192766
0.4308035
-0.45684266
0.33707644
-0.58029355
0.25501243
-0.68805655
0.19666857
-0.78738695
0.15234029
-0.88185719
0.11591313
-0.97394654
0.08598662
-1.0652804
0.062943071
-1.1578032
0.046023617
-1.2535391
0.033871375
-1.3536799
0.025001008
-1.4585332
0.018213212
-1.5684468
0.012749654
-1.6840747
0.0082275488
-1.8057902
0.0044921593
-1.9336132
0.0014873463
-2.0677229
-0.00082301109
-2.2085367
-0.0024835424
-2.3570945
-0.0035638305
-2.5149723
-0.0041456142
-2.6823899
-0.0043164891
-2.8587039
-0.0041608591
-3.045705
-0.0037532058
-3.2474999
-0.0031625561
-3.4672529
-0.0024461004
-3.7075458
-0.0016521045
-3.9691067
-0.00082888955
-4.2489734
-0.434605
0.56874651
-0.47900481
0.60485992
-0.52464769
0.46163008
-0.56504644
0.079780931
-0.57599638
-0.36628343
-0.54416699
-0.63370524
-0.48275233
-0.60942318
-0.41707193
-0.31890617
-0.36262252
0.26071591
-0.33563733
0.50262501
0.39246726
-0.38631789
0.11267547
-0.34734179
-0.26330807
-0.33924634
-0.67489922
-0.37040797
-1.0668367
-0.42256886
-1.4398593
-0.45959528
-1.6639928
-0.4421965
-1.5618327
-0.35896208
-0.95011917
-0.21263933
-0.033561022
-0.19323696
0.47057847
-0.29800088
0.53418054
-0.42525327
0.41840826
-0.54116316
0.31469564
-0.64290489
0.24254768
-0.73691009
0.1881221
-0.82651376
0.14389492
-0.91357712
0.10743498
-0.99935013
0.079101211
-1.0855631
0.058314252
-1.1744593
0.043572474
-1.2677662
0.033048945
-1.3660265
0.025149278
-1.469298
0.018815308
-1.5779225
0.013493926
-1.6923799
0.0089683744
-1.8129243
0.0051816588
-1.9395577
0.002121797
-2.0724915
-0.00023798216
-2.2122295
-0.0019401411
-2.3598445
-0.0030625714
-2.517035
-0.0036891489
-2.6839653
-0.0039097701
-2.8599148
-0.0038097654
-3.0465859
-0.0034615242
-3.2479532
-0.002932581
-3.4672925
-0.0022776752
-3.7072628
-0.0015435685
-3.9686997
-0.00077670824
-4.2483936
-0.40568887
0.35732933
-0.4509401
0.53486581
-0.49762417
0.57107707
-0.54269414
0.43238272
-0.57935964
0.076141299
-0.5848445
-0.3336417
-0.54972741
-0.57633839
-0.48836565
-0.54803768
-0.42426285
-0.26668739
-0.37219193
0.28721772
-0.34681209
0.49962106
0.088003676
-0.36870452
-0.25797073
-0.35882061
-0.6345176
-0.38402529
-1.0103465
-0.43096036
-1.3966147
-0.47083467
-1.6644673
-0.4640922
-1.6148349
-0.39293619
-1.051985
-0.25950684
-0.1039502
-0.1440658
0.56498841
-0.28948774