/*--------------------------------*- C++ -*----------------------------------*\
| =========                 |                                                 |
| \\      /  F ield         | OpenFOAM: The Open Source CFD Toolbox           |
|  \\    /   O peration     | Version:  v2012                                 |
|   \\  /    A nd           | Website:  www.openfoam.com                      |
|    \\/     M anipulation  |                                                 |
\*---------------------------------------------------------------------------*/
FoamFile
{
    version     2.0;
    format      ascii;
    class       volVectorField;
    location    "21.828410048542551";
    object      U;
}
// * * * * * * * * * * * * * * * * * * * * * * * * * * * * * * * * * * * * * //

dimensions      [0 1 -1 0 0 0 0];


internalField   nonuniform List<vector> 
9200
(
(2.6131254 -0.0034093145 7.0183793e-24)
(2.6132423 -0.012119163 -8.4394394e-23)
(2.6243851 -0.0033519674 1.0718525e-23)
(2.6135459 -0.019047473 4.4135556e-22)
(2.6249381 -0.012162944 5.0593806e-22)
(2.6298849 -0.0032174719 1.0526357e-21)
(2.613841 -0.026850677 -6.9150038e-22)
(2.6256277 -0.019080979 -4.0658522e-22)
(2.6306686 -0.011906833 9.9368384e-22)
(2.6365923 -0.0030225212 1.1332164e-21)
(2.6142158 -0.033973593 -1.5548895e-21)
(2.6266428 -0.026948213 1.2698149e-22)
(2.6315951 -0.018706248 2.7867392e-24)
(2.6377201 -0.011475091 1.4731777e-21)
(2.6423238 -0.0027619484 -1.2207834e-21)
(2.6146504 -0.041393402 -4.0155897e-22)
(2.6276922 -0.034045682 5.0128861e-22)
(2.6329215 -0.026529881 7.6042924e-23)
(2.6390122 -0.018122025 1.8334474e-21)
(2.6438536 -0.010768557 -9.1162788e-23)
(2.6475125 -0.0024295589 -1.3129406e-21)
(2.6152175 -0.048634613 5.2518017e-22)
(2.628912 -0.041284662 8.2771324e-23)
(2.634173 -0.033636933 6.8093661e-22)
(2.640858 -0.025937989 -4.5028364e-22)
(2.6456266 -0.017167168 1.8632403e-21)
(2.6495247 -0.0097213895 -1.2822232e-21)
(2.6518668 -0.0020116983 1.3674425e-21)
(2.6160129 -0.056002644 1.4631019e-21)
(2.6302599 -0.048018201 1.2546502e-21)
(2.6354051 -0.040866118 2.6589386e-22)
(2.6425258 -0.033238953 -9.5321361e-22)
(2.6481706 -0.024931899 -7.0868688e-22)
(2.6519534 -0.015706434 -9.1906194e-22)
(2.6544023 -0.0082571192 -9.3220406e-22)
(2.6552899 -0.0014866944 -2.1840297e-21)
(2.6174272 -0.063398758 2.0885181e-22)
(2.6319433 -0.054330689 1.9005507e-21)
(2.6364167 -0.0474905 2.7056803e-22)
(2.643983 -0.04082327 7.308103e-22)
(2.6505129 -0.032545749 -3.1336317e-22)
(2.6554852 -0.023270412 6.1419451e-22)
(2.6576594 -0.013575249 -2.108985e-21)
(2.6583244 -0.0063351853 2.3885752e-22)
(2.6576048 -0.00079465193 1.0159087e-21)
(2.6191736 -0.07091682 1.9768952e-23)
(2.6338125 -0.059924824 3.4758488e-22)
(2.6372655 -0.053439841 -5.9530992e-22)
(2.6447976 -0.04797068 0)
(2.6525277 -0.040816686 -1.7582193e-22)
(2.6589561 -0.031160194 -1.8214186e-22)
(2.6624559 -0.02064386 1.1519103e-21)
(2.6625429 -0.010654645 -1.2734052e-21)
(2.6611011 -0.0039703921 -8.8790634e-22)
(2.6586479 0.0001839049 2.6188532e-21)
(2.6215702 -0.078947455 4.6725482e-22)
(2.6367529 -0.06459602 -2.344051e-21)
(2.6380359 -0.058251113 -6.056245e-22)
(2.6448126 -0.054526972 1.1090405e-22)
(2.6535437 -0.049149461 1.294899e-22)
(2.6621897 -0.040232682 -4.4327274e-22)
(2.6675359 -0.028539812 -2.7767325e-21)
(2.6688089 -0.016808732 1.0922106e-21)
(2.6663018 -0.0069030679 2.1245279e-21)
(2.6626309 -0.0012218606 1.3005656e-22)
(2.6583799 0.0011201227 3.2739247e-21)
(2.6251291 -0.087688499 6.2917237e-22)
(2.6414964 -0.068525011 -2.9062903e-22)
(2.6389742 -0.061509288 2.1211329e-21)
(2.6438157 -0.059854179 1.8478307e-21)
(2.6531662 -0.057412861 4.750833e-22)
(2.6643318 -0.050125184 -1.5621599e-22)
(2.6727357 -0.038182268 1.293507e-21)
(2.6758926 -0.024210132 -1.0071543e-21)
(2.6741077 -0.011652512 -7.8535058e-22)
(2.6686637 -0.0024005489 8.6696408e-22)
(2.6627975 0.0018133451 5.3834881e-21)
(2.6568479 0.0020214726 -4.5422472e-22)
(2.6298805 -0.09758904 2.2668439e-21)
(2.6480586 -0.071098483 -7.8065251e-22)
(2.6401327 -0.063007149 2.0484561e-21)
(2.6417417 -0.063545588 3.8349361e-22)
(2.6508589 -0.065068313 6.7080531e-22)
(2.6648048 -0.060861927 9.1425918e-22)
(2.6771207 -0.04950956 2.6920499e-21)
(2.6837216 -0.033828163 -3.7339906e-21)
(2.6833886 -0.017888252 1.6176663e-21)
(2.6779111 -0.0052396131 2.6170291e-21)
(2.6694295 0.0026479273 -2.7364298e-21)
(2.6615052 0.0049834235 1.3980731e-21)
(2.6541339 0.0029081503 -9.7929742e-21)
(2.6360155 -0.10896651 -2.5050069e-21)
(2.6572147 -0.072818167 3.0581162e-21)
(2.6421635 -0.061505576 2.5734804e-21)
(2.6385151 -0.064394099 -4.686389e-23)
(2.6461272 -0.071636687 -3.9865109e-21)
(2.6627898 -0.072152494 2.0947312e-21)
(2.6800362 -0.06278213 5.0296019e-22)
(2.6914057 -0.045916426 1.1380875e-21)
(2.6942498 -0.026592065 9.6694709e-22)
(2.6893067 -0.0095717051 -1.4084397e-21)
(2.6798441 0.002179268 -1.2983829e-21)
(2.6685096 0.0079957314 -4.6124861e-22)
(2.6588105 0.0081261039 4.4195104e-21)
(2.6503591 0.00373588 -1.2020025e-21)
(2.643687 -0.12238544 -5.8238636e-21)
(2.6696932 -0.073422511 1.5541543e-21)
(2.6457725 -0.057125348 8.752568e-22)
(2.6342599 -0.062455325 -9.680022e-22)
(2.6386553 -0.076000327 -2.5866568e-21)
(2.657506 -0.083600425 1.2581565e-21)
(2.680511 -0.078043712 -2.7811955e-21)
(2.6983514 -0.060999353 2.8107227e-22)
(2.7059696 -0.038288295 -3.365827e-22)
(2.7032183 -0.016308372 -7.9955062e-22)
(2.6929702 0.00042984053 3.3563035e-22)
(2.6796388 0.010196931 -6.8283119e-22)
(2.665914 0.013353915 2.9332621e-21)
(2.6548719 0.011092017 -4.9232274e-21)
(2.6456983 0.0044534197 4.1174955e-21)
(2.6529501 -0.13839492 -6.5622725e-21)
(2.6863328 -0.073227911 1.9427836e-22)
(2.6514804 -0.049266474 -5.9941822e-21)
(2.6292545 -0.056051984 -7.552031e-21)
(2.6279709 -0.07803342 -9.638265e-22)
(2.6481788 -0.094742247 1.2571486e-21)
(2.6775812 -0.095247886 1.4968315e-21)
(2.7035953 -0.079525228 3.4177281e-21)
(2.7181679 -0.05373315 1.1130499e-21)
(2.7191882 -0.026145854 -1.2797941e-21)
(2.7095167 -0.0032990814 1.4522286e-21)
(2.6939078 0.011536086 4.2114377e-21)
(2.6772139 0.018340041 1.8326918e-21)
(2.6617663 0.018434064 4.7794898e-21)
(2.6498844 0.013754231 -8.1511991e-21)
(2.6403493 0.0050580584 1.2163115e-21)
(2.6638378 -0.15754077 3.6799025e-21)
(2.7078499 -0.072478719 2.0263177e-21)
(2.6600312 -0.037536451 2.1687118e-21)
(2.6237666 -0.044698472 -2.4057547e-21)
(2.6136649 -0.076190152 4.7643065e-21)
(2.6339667 -0.10476058 3.2144792e-21)
(2.6701373 -0.11423776 1.7400337e-21)
(2.7061276 -0.10186615 4.8663596e-22)
(2.730076 -0.073779871 -4.3317661e-21)
(2.7371946 -0.039970195 1.6411926e-22)
(2.7293055 -0.0097367745 -4.5777159e-21)
(2.7122686 0.011656312 3.4958513e-22)
(2.6918923 0.023025102 -2.1041028e-21)
(2.6727074 0.026116376 6.9704739e-22)
(2.6562952 0.022992428 -3.2833354e-21)
(2.6440787 0.016018373 9.9368944e-21)
(2.6345118 0.0055470664 -1.3610442e-21)
(2.6761684 -0.18031356 1.7189745e-20)
(2.7349951 -0.071517416 1.0264692e-20)
(2.6722276 -0.021421574 4.3644011e-21)
(2.6181079 -0.027478542 2.0617262e-20)
(2.5956117 -0.069642491 2.557208e-20)
(2.6140523 -0.11303971 -6.8074517e-21)
(2.6570716 -0.13468909 1.648026e-21)
(2.7047489 -0.12833799 -3.5840603e-21)
(2.7408466 -0.099240805 -1.0200463e-20)
(2.7568588 -0.058954087 -8.4631543e-21)
(2.7527664 -0.019722392 -7.7823912e-21)
(2.7348276 0.0099236787 8.8997203e-22)
(2.7109649 0.027457174 4.8464053e-22)
(2.6869905 0.034107467 -5.6461754e-21)
(2.6664065 0.033105001 2.6410009e-22)
(2.6497898 0.02685417 -1.174319e-21)
(2.6376998 0.01783137 -3.740232e-22)
(2.6283772 0.0059141738 -5.1256351e-21)
(2.6894122 -0.20715673 -2.9122332e-21)
(2.7678646 -0.070811285 -2.1865288e-20)
(2.6888417 -0.00055488914 2.4042525e-21)
(2.6127561 -0.0033304945 2.3982082e-21)
(2.5736154 -0.057410852 1.8366593e-20)
(2.5877953 -0.11871479 -1.967427e-20)
(2.6372867 -0.15616687 2.6046222e-21)
(2.6981628 -0.15912008 1.7758721e-21)
(2.7493977 -0.13099855 7.4788994e-21)
(2.7777406 -0.084282912 3.5537081e-21)
(2.7800723 -0.03456089 9.6219923e-21)
(2.7624271 0.0057969459 -4.7360653e-21)
(2.7347742 0.031247437 4.5504483e-21)
(2.7055876 0.042872345 -1.7200521e-21)
(2.6795697 0.044088847 1.7627013e-21)
(2.6587036 0.0389997 -4.5209204e-21)
(2.6425628 0.029920175 -4.6066422e-22)
(2.6309815 0.019178975 -1.2079594e-20)
(2.6221181 0.0061611716 3.8726574e-21)
(2.7048913 -0.23847756 -4.0402895e-20)
(2.8072441 -0.070995864 -2.9421343e-20)
(2.7097905 0.025188749 1.8151729e-21)
(2.6078797 0.028265254 -1.5723512e-20)
(2.5474909 -0.038325542 -1.2535231e-20)
(2.5545421 -0.12092236 -1.1031544e-20)
(2.6097099 -0.17809449 6.7613859e-21)
(2.6849761 -0.19419799 9.429272e-21)
(2.7544242 -0.16983391 1.4322484e-20)
(2.7991859 -0.11740461 -3.4225919e-21)
(2.8114075 -0.055587834 1.0395047e-20)
(2.7957661 -0.0018979548 8.1020812e-21)
(2.7644189 0.034274204 -1.3212756e-20)
(2.7289229 0.052343813 -3.6952679e-21)
(2.6966109 0.056785396 2.8324585e-22)
(2.6701825 0.052460678 5.313334e-21)
(2.6500369 0.043627603 -2.0528603e-21)
(2.6349178 0.032162382 1.6620516e-22)
(2.6241318 0.020077718 -1.3493923e-21)
(2.6158814 0.0062974935 8.0356753e-22)
(2.7277332 -0.27652613 1.2236586e-20)
(2.8611299 -0.073096743 2.9619765e-20)
(2.7371032 0.056038292 -5.4519874e-21)
(2.6032074 0.067985999 -6.3429264e-21)
(2.5168514 -0.011507992 -3.4713222e-20)
(2.513636 -0.11870745 -1.6266747e-20)
(2.5732326 -0.19969629 -1.1136105e-20)
(2.663645 -0.23331994 -1.0524277e-21)
(2.7543374 -0.216362 -1.9067754e-20)
(2.8201976 -0.15976908 -1.3174103e-20)
(2.8468984 -0.084608502 -3.0992941e-21)
(2.8358489 -0.014270462 8.3306064e-21)
(2.8009767 0.035898559 -1.8094939e-21)
(2.7581318 0.062917324 7.2715698e-21)
(2.7178758 0.071431486 -7.7600692e-21)
(2.6848337 0.068370011 2.290463e-23)
(2.6594669 0.058936337 -2.9461053e-21)
(2.6408354 0.046941851 3.9855067e-21)
(2.6271262 0.033611262 2.3281608e-21)
(2.6173251 0.020566228 6.8106666e-21)
(2.6097849 0.0063365696 -2.7320058e-21)
(2.765315 -0.31846137 -5.4833833e-20)
(2.9381413 -0.080406107 4.6410008e-22)
(2.782161 0.091960143 -2.5593986e-20)
(2.6012171 0.11639639 -1.3027029e-20)
(2.4816419 0.023723697 -7.3225625e-21)
(2.4648916 -0.11149287 3.2380817e-20)
(2.5273644 -0.2202503 -6.5496986e-21)
(2.632812 -0.27590797 4.7238166e-22)
(2.7472276 -0.27093692 -2.8478591e-20)
(2.8393381 -0.21282735 3.7647203e-21)
(2.8863689 -0.12359858 4.7599413e-21)
(2.8836635 -0.032929763 -4.9438021e-21)
(2.8460761 0.035595525 -3.722733e-21)
(2.794434 0.074619583 -1.7378141e-21)
(2.744312 0.088910584 7.6186933e-21)
(2.7028038 0.087183836 1.1549103e-20)
(2.6712071 0.07716509 1.3660766e-22)
(2.6480521 0.063441005 7.8408428e-22)
(2.6314794 0.048997388 2.1430717e-21)
(2.6194136 0.034339179 -1.8811641e-21)
(2.6106999 0.020696785 -2.4571581e-22)
(2.6039184 0.0062935336 1.1371257e-21)
(2.776541 -0.36039434 7.3038357e-20)
(2.9900448 -0.091843938 6.2258144e-20)
(2.8500099 0.13272874 -5.9253911e-20)
(2.610616 0.17353164 -2.6161364e-21)
(2.4427921 0.067804161 1.2628601e-21)
(2.4088268 -0.099189778 9.6951394e-20)
(2.472846 -0.23972754 -1.4904225e-20)
(2.5927241 -0.32191023 -7.9801469e-22)
(2.7322593 -0.33394043 1.3331966e-20)
(2.8552359 -0.27806526 2.7373766e-20)
(2.9294276 -0.17491453 1.9540415e-21)
(2.9402813 -0.059870301 -2.5435822e-20)
(2.9013829 0.032470848 -1.6570524e-20)
(2.8395572 0.087764669 -2.7473891e-21)
(2.7769424 0.10986802 -2.7855553e-21)
(2.724695 0.11013662 -6.5922444e-21)
(2.6851467 0.098871315 3.2761257e-21)
(2.6566723 0.083060634 -8.8737497e-22)
(2.6364905 0.066069228 1.3988048e-21)
(2.6222796 0.049920073 3.8746424e-21)
(2.6119548 0.034443668 -6.1371278e-22)
(2.6043591 0.020527951 -1.3699246e-21)
(2.5983456 0.0061838457 -3.2257208e-21)
(2.7665528 -0.39896494 3.5192599e-20)
(3.0013391 -0.10731591 -1.0418009e-19)
(2.9251654 0.18166617 3.6485844e-20)
(2.628557 0.24209935 -1.777036e-20)
(2.4033505 0.1215106 -7.1044253e-21)
(2.3456435 -0.081849673 4.2825907e-20)
(2.410597 -0.25795995 5.4775495e-22)
(2.5440691 -0.37105778 -1.8408657e-20)
(2.7096048 -0.40627445 -3.4151748e-20)
(2.8679973 -0.35783731 -3.8363006e-20)
(2.9768515 -0.24175525 -1.0525131e-20)
(3.0076535 -0.097927743 3.3747529e-20)
(2.969145 0.025418994 -2.5512032e-21)
(2.8954024 0.10248272 1.8409896e-20)
(2.8171597 0.13542362 1.556644e-20)
(2.7510856 0.13829356 -2.1887857e-20)
(2.701476 0.12545507 -8.8987216e-21)
(2.6663287 0.10634256 -6.3952813e-21)
(2.6420443 0.086222761 -3.3535068e-22)
(2.6252229 0.067030058 -1.8201177e-21)
(2.6134699 0.049876452 -3.7213018e-22)
(2.6048756 0.03403315 2.9085858e-21)
(2.5983735 0.020118892 1.7412838e-21)
(2.5931077 0.0060222687 1.6777085e-21)
(2.7384174 -0.43266313 2.3390514e-20)
(2.9939715 -0.1190082 -7.2348755e-20)
(2.942103 0.23727652 1.9532236e-19)
(2.6296365 0.32791775 -1.7234319e-20)
(2.3617396 0.18778728 -1.5074797e-21)
(2.2752395 -0.059250387 -5.8522853e-20)
(2.3408549 -0.27439045 1.4911487e-20)
(2.4858652 -0.42128417 -7.2634208e-21)
(2.67596 -0.48523971 -2.7315435e-21)
(2.8732626 -0.45209744 -1.9242925e-20)
(3.0275194 -0.32809768 1.0170996e-20)
(3.0892289 -0.15162024 -3.9763421e-20)
(3.0541622 0.012139169 5.8730538e-20)
(2.9649958 0.11904034 -4.0627162e-20)
(2.8664981 0.1667823 0)
(2.7827313 0.17331936 -1.6885375e-21)
(2.7202347 0.15813687 2.712169e-20)
(2.6768206 0.1346764 3.7107236e-21)
(2.64756 0.10989152 -7.2858513e-21)
(2.6279546 0.086996971 2.4096767e-22)
(2.6145689 0.066594345 6.9082755e-21)
(2.6052107 0.049048554 -2.5652656e-21)
(2.5982581 0.033216105 -9.3185193e-22)
(2.5927863 0.019525455 1.5974716e-22)
(2.5882271 0.0058222132 2.7241492e-21)
(2.6970095 -0.46166102 7.8527768e-20)
(2.9595809 -0.12087395 2.4924082e-19)
(2.8549776 0.29472354 8.2375639e-20)
(2.5885393 0.42389519 -1.251123e-19)
(2.3099181 0.2672728 -2.4560516e-20)
(2.19847 -0.03082186 -3.9284476e-20)
(2.2636089 -0.28859944 2.6976456e-20)
(2.4174268 -0.46984124 -1.4580194e-21)
(2.6260716 -0.56583214 1.5441094e-22)
(2.8588444 -0.55409209 8.518788e-20)
(3.0659066 -0.42963892 5.3115603e-20)
(3.1771377 -0.22346826 -1.7469081e-19)
(3.1599423 -0.011268986 5.821245e-20)
(3.0548049 0.1366553 -7.8783218e-20)
(2.9279035 0.20553552 3.40668e-20)
(2.8203678 0.21711216 1.4396806e-21)
(2.7414493 0.19875143 -1.2150362e-20)
(2.6876915 0.16919561 9.5891891e-21)
(2.6525249 0.13832322 6.181758e-21)
(2.6297453 0.11008716 2.6898096e-21)
(2.6148402 0.085817588 -4.626303e-21)
(2.604735 0.065052095 -2.8731827e-21)
(2.5975991 0.047615413 2.8269693e-21)
(2.5921482 0.032093752 -1.805722e-23)
(2.5876188 0.01879778 1.0762616e-22)
(2.5837119 0.0055953839 0)
(2.6413594 -0.48591115 -1.0812373e-19)
(2.9012973 -0.11563706 -3.3113288e-19)
(2.7616962 0.35562942 -2.3749788e-19)
(2.5124191 0.51330954 8.2890965e-20)
(2.2462883 0.35206132 5.2360606e-21)
(2.1183398 0.0028872715 2.5646321e-20)
(2.1797061 -0.30071804 -1.0896538e-20)
(2.3398505 -0.51490963 1.070662e-20)
(2.5591354 -0.6436335 8.5469558e-21)
(2.8184567 -0.65769196 8.3246942e-20)
(3.0743433 -0.53886079 -3.8961643e-21)
(3.2443952 -0.30481875 2.5602351e-19)
(3.26773 -0.042093625 -8.5390334e-21)
(3.1644971 0.1549588 3.1833034e-20)
(3.0072704 0.25294205 9.3167716e-21)
(2.865768 0.27209501 7.2337789e-21)
(2.7649145 0.24934648 -9.2287823e-23)
(2.6983314 0.2115702 8.9433111e-21)
(2.6561127 0.17239729 -1.1733101e-20)
(2.6298745 0.1373303 2.918966e-21)
(2.6134756 0.1076193 4.8061796e-21)
(2.6029627 0.083137325 -1.2824205e-21)
(2.5958332 0.062682461 -3.6044935e-21)
(2.5906809 0.045741117 -2.9790449e-22)
(2.5865629 0.03075577 -1.3084964e-22)
(2.5828749 0.017979138 -6.9999582e-22)
(2.5795587 0.005351676 -9.2407207e-24)
(2.5731573 -0.50507727 -1.4605524e-20)
(2.8213478 -0.10838333 -9.8211582e-20)
(2.6736526 0.41753179 3.3775359e-20)
(2.4311138 0.59508616 6.5980441e-20)
(2.1742988 0.43445562 -3.2016766e-20)
(2.0370384 0.039070879 -1.0984983e-21)
(2.0920963 -0.31103371 -1.7999321e-21)
(2.2558962 -0.55585635 1.7526601e-20)
(2.4781945 -0.71615041 2.1397674e-20)
(2.7529613 -0.75977899 -3.0501512e-20)
(3.0525982 -0.65278798 -1.131146e-19)
(3.2847651 -0.39381743 2.7142266e-19)
(3.3501157 -0.071872384 -1.4203628e-19)
(3.2672481 0.18074915 -2.7361094e-20)
(3.1001797 0.31279726 -7.0486913e-20)
(2.9226998 0.34131407 1.3710477e-20)
(2.7907621 0.31244226 -4.3356744e-22)
(2.7077523 0.26354114 2.1450004e-21)
(2.6572728 0.21340706 2.6751279e-20)
(2.6273002 0.16927079 1.2671958e-21)
(2.6096493 0.13278443 -4.1238546e-21)
(2.5990686 0.10318431 -6.5397985e-23)
(2.5924414 0.079380341 4.5876371e-21)
(2.5879016 0.059735529 3.7165231e-22)
(2.5844631 0.04356834 7.2434727e-23)
(2.5814981 0.029278402 -8.2203116e-22)
(2.5785459 0.017105646 1.3709288e-21)
(2.5757559 0.0050992072 1.4728051e-21)
(2.4959939 -0.51978275 -3.5115534e-21)
(2.727296 -0.09881106 9.7697081e-20)
(2.5754152 0.47598493 4.1388614e-19)
(2.3473631 0.67090788 -9.1590353e-20)
(2.0952525 0.51233613 -1.2432857e-19)
(1.9535065 0.075878651 2.8747193e-20)
(2.0043562 -0.31991415 -1.9127232e-20)
(2.1687087 -0.5926786 -6.0049444e-21)
(2.387585 -0.78135477 -4.2817528e-20)
(2.6662681 -0.85678303 -1.7611601e-19)
(2.99999 -0.77084312 -2.8240754e-19)
(3.2954666 -0.49452312 -5.0371769e-19)
(3.4183837 -0.10733875 2.565536e-19)
(3.3474845 0.21532894 8.878547e-21)
(3.1788576 0.3907405 -3.3795729e-20)
(2.9855901 0.43076936 8.2552786e-21)
(2.8204049 0.39156194 1.2625157e-21)
(2.7147365 0.32711989 -5.6718534e-21)
(2.6545432 0.26253157 -1.1894552e-21)
(2.6207505 0.20674352 -8.3470417e-21)
(2.6022467 0.16151244 2.885591e-21)
(2.5922087 0.12574268 1.1380613e-21)
(2.586631 0.097414024 1.48547e-22)
(2.5832902 0.074916075 -1.4325636e-21)
(2.5809254 0.056423517 -5.6299285e-22)
(2.5789251 0.04121598 -2.2709326e-22)
(2.5769347 0.027724225 6.3072856e-22)
(2.574614 0.016206573 -7.6707353e-22)
(2.5722866 0.0048444651 -1.5436869e-21)
(2.4133569 -0.53023591 -7.0685188e-21)
(2.6238602 -0.088841522 -1.5487682e-19)
(2.4765244 0.52961363 -9.5997227e-20)
(2.2651978 0.73953958 9.9797985e-20)
(2.0190095 0.58507192 7.49495e-20)
(1.8705594 0.11153591 -1.8485729e-19)
(1.9185513 -0.32779266 -2.9516255e-20)
(2.0813132 -0.62548587 -1.1249941e-20)
(2.2913477 -0.83772073 -3.1960862e-20)
(2.5609261 -0.94279403 -6.8140879e-20)
(2.9116237 -0.88443965 -6.2583623e-20)
(3.2667138 -0.60175781 1.4737623e-19)
(3.4475174 -0.15803476 2.8175518e-19)
(3.4293585 0.25053003 2.9833558e-19)
(3.2361047 0.48134354 -2.9389395e-20)
(3.0290149 0.5422222 -4.7841899e-20)
(2.8492493 0.49243929 9.4085179e-22)
(2.7187418 0.40498357 -2.2624893e-21)
(2.6460018 0.32099545 5.7230023e-21)
(2.6085957 0.25029846 -1.8585221e-20)
(2.5899652 0.19419724 -5.9065565e-21)
(2.5813066 0.15070392 6.3669088e-21)
(2.577604 0.11712892 8.6496809e-23)
(2.5761217 0.090840493 -2.3460576e-21)
(2.5754517 0.070048723 -1.0081541e-21)
(2.5748542 0.052918662 -1.9032584e-22)
(2.5740283 0.038779539 -6.6766587e-24)
(2.5728437 0.026143006 8.1788838e-23)
(2.5710561 0.015304987 3.0340428e-22)
(2.5691302 0.0045924893 -1.0820669e-21)
(2.3205986 -0.53923771 -7.4621626e-20)
(2.5159064 -0.078042781 2.351238e-19)
(2.3785116 0.57764572 -9.0923761e-20)
(2.1878527 0.7999507 4.0958192e-20)
(1.9525261 0.6515627 5.4907195e-19)
(1.7965206 0.14473758 -4.4726207e-20)
(1.8366557 -0.33533481 2.7884282e-21)
(1.9965377 -0.65447302 -4.756389e-21)
(2.1930065 -0.88415809 -1.7947062e-20)
(2.439676 -1.0132033 -5.5373623e-21)
(2.7847026 -0.98097768 1.2393098e-19)
(3.1711605 -0.69655889 3.968714e-19)
(3.4183638 -0.20298937 -3.8136279e-19)
(3.4776744 0.29418023 1.4619167e-21)
(3.2862585 0.58921128 8.5778464e-20)
(3.0424427 0.67067543 -1.3164419e-19)
(2.8548026 0.6145363 -1.707124e-20)
(2.7166564 0.50140389 1.0636815e-21)
(2.6298156 0.39010858 -7.4562965e-21)
(2.5887934 0.30037309 -1.3131856e-20)
(2.5712412 0.23082394 -1.9945498e-21)
(2.5651659 0.17809596 -1.5827002e-21)
(2.5643958 0.13816948 -9.9934912e-22)
(2.5656848 0.10769085 2.296716e-21)
(2.5674062 0.083886107 1.1868735e-21)
(2.5688245 0.065017165 3.233311e-22)
(2.5696167 0.04935531 6.2505112e-22)
(2.5697231 0.03633317 5.4223812e-23)
(2.5691901 0.024573139 -7.8278208e-22)
(2.5678455 0.014418558 8.9976751e-22)
(2.5662642 0.0043470868 -4.2120817e-21)
(2.2187714 -0.54609054 -8.4855672e-20)
(2.4016685 -0.070632806 -1.3930211e-19)
(2.2848463 0.61917447 -1.40259e-20)
(2.1168402 0.85224274 -4.5447428e-20)
(1.8983772 0.71067545 -9.5890525e-20)
(1.7355937 0.17585916 -1.2423019e-19)
(1.7617741 -0.34303628 -2.7496609e-21)
(1.9168595 -0.67993059 -4.1148283e-20)
(2.0957622 -0.91901443 1.3665385e-20)
(2.3086466 -1.0627789 1.2438887e-20)
(2.622638 -1.0527898 1.1947386e-19)
(3.0036432 -0.76552523 -9.2653258e-20)
(3.2763645 -0.21104925 -2.2615739e-19)
(3.3695905 0.36569355 -2.6312575e-19)
(3.2703493 0.73769228 2.7453261e-19)
(3.026622 0.82998587 7.6547531e-20)
(2.8205096 0.75274972 -2.7154318e-20)
(2.6918687 0.61529345 -2.4292378e-20)
(2.6037843 0.47220485 2.5426486e-20)
(2.559062 0.35705523 1.4115123e-20)
(2.5442631 0.27118427 1.6016098e-20)
(2.5424393 0.20747118 2.1074724e-21)
(2.5459965 0.1602945 -2.7927783e-21)
(2.5511678 0.12493231 7.9998089e-22)
(2.5561864 0.097996629 9.6221689e-23)
(2.5602998 0.076869242 3.104122e-22)
(2.5632847 0.060000906 1.4557861e-22)
(2.5651308 0.045834315 -5.3943756e-22)
(2.5659551 0.033932518 -5.2471176e-22)
(2.5659366 0.023043308 -4.5626478e-22)
(2.5649538 0.013560398 -1.0532459e-21)
(2.5636653 0.0041110271 4.0368487e-22)
(2.1151485 -0.54998391 2.6455686e-19)
(2.2793848 -0.067825991 -4.5858061e-20)
(2.1920676 0.65320185 -3.4104373e-20)
(2.0529681 0.89683899 -1.2645396e-19)
(1.8561602 0.76122429 -1.7133279e-19)
(1.6884266 0.20441306 4.1285256e-19)
(1.6974591 -0.35005699 9.1053765e-20)
(1.8442142 -0.70248149 3.1666321e-20)
(2.0027243 -0.94423209 2.2493149e-20)
(2.17581 -1.0920277 2.2950931e-20)
(2.4377016 -1.1008354 2.2365275e-20)
(2.7807432 -0.80229977 1.2779928e-19)
(3.0354973 -0.17957228 5.4553626e-19)
(3.1160485 0.46884075 2.2545827e-19)
(3.0772247 0.91259146 4.319653e-19)
(2.929095 1.0260694 -7.6393517e-20)
(2.7510067 0.91623776 -1.0180803e-19)
(2.6248554 0.73829784 1.7940803e-22)
(2.5586482 0.56663536 2.1414447e-20)
(2.5173524 0.420731 2.0188425e-20)
(2.5070025 0.31455566 9.2320045e-21)
(2.5116949 0.23816677 -3.5962072e-22)
(2.5213503 0.18277148 -1.773031e-22)
(2.5317808 0.14214996 -1.5189649e-21)
(2.5411482 0.11172979 5.7901525e-22)
(2.5487935 0.088453251 6.8839725e-23)
(2.5545979 0.070017896 -3.4792256e-22)
(2.5587006 0.055128867 -2.3697001e-22)
(2.5613113 0.04242835 2.3029016e-22)
(2.5626681 0.031617779 -6.0043059e-22)
(2.5630447 0.021574159 1.5025182e-22)
(2.5623526 0.012739866 -1.6068097e-21)
(2.5613102 0.0038862364 4.0724013e-21)
(2.0121303 -0.55066661 5.6165404e-20)
(2.1540609 -0.064829762 -1.7772955e-20)
(2.0973834 0.6778895 2.5182124e-21)
(1.9936639 0.93497754 8.088596e-20)
(1.8248947 0.80504709 1.890415e-19)
(1.6566683 0.22953547 3.9798811e-19)
(1.6464673 -0.35651003 1.4343778e-19)
(1.7797937 -0.72214497 8.2008356e-20)
(1.9165933 -0.96103418 2.5259409e-20)
(2.0476269 -1.1051861 2.9811668e-20)
(2.2447815 -1.1246894 -2.5106497e-21)
(2.5253986 -0.80791523 9.0391324e-20)
(2.7389581 -0.1259812 3.3024258e-19)
(2.8084825 0.59465434 6.0151255e-19)
(2.7811912 1.0884037 -2.0055737e-20)
(2.7159458 1.226698 -4.660388e-20)
(2.6213595 1.100422 1.3008473e-19)
(2.517518 0.87178064 -6.654104e-20)
(2.4774049 0.66442276 1.6809253e-20)
(2.4597296 0.49090262 1.3956214e-20)
(2.4575337 0.35994768 -2.871834e-22)
(2.4714685 0.26901981 -2.2642903e-20)
(2.4894426 0.20467671 1.332564e-20)
(2.5067753 0.15845828 1.7115967e-21)
(2.5217224 0.1245788 -3.55391e-21)
(2.5338257 0.099056943 -3.0468521e-21)
(2.5431823 0.079334281 3.7973858e-22)
(2.550096 0.063486189 4.761936e-21)
(2.5549424 0.050488884 -1.5536385e-21)
(2.558075 0.039187247 4.1504063e-22)
(2.5598075 0.029416639 4.9981038e-23)
(2.5604772 0.020179841 2.9316598e-22)
(2.5600141 0.011963285 7.0953707e-22)
(2.5591764 0.0036739566 1.5155588e-21)
(1.9119996 -0.54841188 -2.8930807e-19)
(2.0287173 -0.062802726 -9.7539669e-22)
(2.002372 0.6982761 -1.38024e-20)
(1.9398823 0.9672451 6.2046654e-20)
(1.8024901 0.84830204 -2.1705494e-19)
(1.6402271 0.25055379 -1.1200282e-19)
(1.6099467 -0.35985338 -1.2109763e-19)
(1.7245217 -0.73950497 9.4082634e-20)
(1.8395905 -0.96880896 4.2355298e-22)
(1.9283769 -1.104328 -4.0273613e-20)
(2.0568876 -1.1218225 -4.372366e-20)
(2.259136 -0.78709033 -3.1389913e-21)
(2.4167458 -0.056646741 -3.0844686e-19)
(2.4658495 0.72351839 -2.5986611e-19)
(2.4514851 1.2607517 -7.5220128e-20)
(2.4238124 1.4135495 4.0874552e-19)
(2.3996952 1.2774835 -1.7580098e-19)
(2.3677961 1.0161744 4.8826639e-20)
(2.3539924 0.75902761 8.8066251e-21)
(2.3763626 0.5613527 -2.299677e-20)
(2.3941564 0.40618584 -7.6446083e-21)
(2.420372 0.29843759 -4.3262672e-21)
(2.449383 0.22466042 4.0685517e-21)
(2.4755329 0.17283665 -7.5966055e-21)
(2.4974453 0.13560838 9.1929909e-21)
(2.5150289 0.10814512 -4.6387563e-21)
(2.5287082 0.08721829 1.5844466e-21)
(2.5390467 0.070809184 3.7423047e-21)
(2.5466021 0.057370676 -2.9922544e-22)
(2.5518882 0.046136664 4.5865609e-22)
(2.5553434 0.036142891 7.1815413e-22)
(2.5573214 0.027346903 1.1644451e-22)
(2.5581986 0.018869356 7.496983e-22)
(2.5579118 0.011234575 1.5017291e-21)
(2.5572426 0.0034748933 5.5658755e-22)
(1.8170831 -0.54344653 -1.2966155e-20)
(1.9064026 -0.061757093 -5.7061026e-21)
(1.9113483 0.71154377 2.9269445e-20)
(1.8891511 0.99212984 -1.2368685e-20)
(1.7929106 0.89475821 -3.6424635e-19)
(1.6343678 0.28374426 -1.9172872e-19)
(1.5896451 -0.36809169 8.8892279e-20)
(1.6788944 -0.7526559 -1.4941737e-20)
(1.7732171 -0.97043628 2.3261813e-20)
(1.8215771 -1.0931096 -5.608739e-20)
(1.8835338 -1.100196 4.204709e-20)
(2.0002237 -0.7463296 -2.1051597e-20)
(2.0931755 0.021756615 -2.4385358e-20)
(2.1158959 0.84742632 -3.9716412e-19)
(2.1086408 1.4186683 3.7968639e-19)
(2.1099288 1.5833037 6.0745242e-21)
(2.1188541 1.4356985 -5.2119485e-20)
(2.1559915 1.1512617 9.384245e-20)
(2.1954111 0.85228564 -6.6395395e-21)
(2.2573356 0.62181133 -1.6893683e-20)
(2.3136277 0.45000115 -1.0837731e-20)
(2.3574229 0.32451578 1.698629e-20)
(2.400489 0.24104648 -2.9062279e-20)
(2.4376469 0.18392621 4.245325e-21)
(2.4680381 0.14381906 7.8457697e-21)
(2.4921815 0.1148063 -1.0678038e-20)
(2.5109798 0.093151422 -1.8846922e-21)
(2.5253525 0.076377345 -4.8761123e-21)
(2.5361111 0.062970099 4.9574698e-21)
(2.5439428 0.051724775 -6.2057473e-21)
(2.5494275 0.042103582 1.0245698e-21)
(2.5530448 0.033313436 -1.3517004e-21)
(2.5551623 0.025418738 4.9676776e-23)
(2.5561757 0.017647701 -4.6904699e-23)
(2.5560209 0.010555772 -2.3933847e-21)
(2.5554887 0.0032893294 -3.8611826e-21)
(1.7297482 -0.53588863 2.0628543e-19)
(1.7902871 -0.061928746 -7.5833918e-20)
(1.8263106 0.71745544 -1.0801484e-19)
(1.8448601 1.008712 -1.966511e-20)
(1.7890102 0.93033298 -8.3255297e-20)
(1.6487942 0.33100015 -3.5738302e-19)
(1.5782907 -0.35681997 3.547719e-20)
(1.64536 -0.76713984 -1.6926465e-19)
(1.7180705 -0.9675062 2.5836147e-20)
(1.7294561 -1.0749687 -1.6512116e-19)
(1.7305594 -1.0659413 -1.410639e-19)
(1.7627507 -0.69052066 1.5401712e-19)
(1.7875903 0.10345812 -6.7053246e-20)
(1.7814138 0.96016503 -6.4860216e-20)
(1.7797881 1.5543177 1.587869e-19)
(1.8052213 1.7262507 -1.2783842e-19)
(1.8323236 1.575518 2.4436718e-19)
(1.8917631 1.2631612 -3.306196e-20)
(1.9986563 0.93647251 -7.8452724e-22)
(2.1048546 0.6685701 -1.0408097e-20)
(2.2097344 0.48342741 -1.869036e-21)
(2.2822318 0.34506896 -2.9833082e-21)
(2.3423942 0.25179697 2.0689329e-20)
(2.3930097 0.19018914 6.5917859e-21)
(2.4334751 0.14796445 -6.7324877e-21)
(2.465273 0.11813612 4.6499071e-21)
(2.4899683 0.096293248 1.3335086e-21)
(2.5089565 0.079717881 6.2142796e-21)
(2.5233768 0.066598745 2.3678832e-22)
(2.5341362 0.05585424 -3.9075079e-21)
(2.5419658 0.046570756 3.2724328e-21)
(2.5474621 0.038403142 -2.9756163e-22)
(2.5511148 0.030706785 -1.6108141e-21)
(2.5532866 0.02363653 1.7052877e-22)
(2.5543784 0.016516816 1.0915587e-22)
(2.5543185 0.0099274719 1.3013879e-22)
(2.5538961 0.0031172288 -7.0162459e-22)
(1.6520685 -0.52599116 -1.1735125e-19)
(1.6834405 -0.063572218 3.5530156e-19)
(1.7494683 0.71523759 -1.6441186e-19)
(1.8078579 1.0165204 6.8767893e-21)
(1.7934227 0.95737048 -1.8367504e-19)
(1.6745918 0.37011107 2.3051289e-19)
(1.5816442 -0.32943086 2.5758395e-19)
(1.6150433 -0.7675091 -1.8684377e-20)
(1.6729 -0.96369845 7.0347841e-20)
(1.6536844 -1.0505576 3.5874463e-19)
(1.6001477 -1.021294 -3.6847134e-19)
(1.5556429 -0.62474255 -4.6304631e-19)
(1.5146172 0.18393186 -1.8404443e-19)
(1.4800296 1.0576984 -3.6174485e-19)
(1.4855584 1.6641321 -9.3492802e-20)
(1.5286085 1.83993 -1.5904597e-20)
(1.5667676 1.6949711 5.5264562e-20)
(1.6171847 1.3583094 1.0934695e-19)
(1.7589811 0.99766579 1.0388662e-20)
(1.926725 0.70156908 -1.5908278e-20)
(2.0790144 0.49823989 -8.0619286e-21)
(2.1938056 0.35611425 4.048516e-21)
(2.2753772 0.2548169 -1.3163164e-20)
(2.3418675 0.18988163 2.1566129e-20)
(2.3940433 0.14673702 0)
(2.4345548 0.11706814 0)
(2.4658597 0.095874172 -3.722372e-21)
(2.4899741 0.080087493 5.2061783e-21)
(2.5084489 0.067845505 3.2875413e-21)
(2.5224623 0.05788147 -3.9330556e-22)
(2.5329192 0.049461568 -3.9285194e-21)
(2.5405402 0.041909219 4.8651417e-23)
(2.5459062 0.035036095 5.1276777e-23)
(2.5494963 0.028323376 4.719797e-22)
(2.5516555 0.022000376 -7.16282e-23)
(2.5527789 0.015476345 -4.8658169e-22)
(2.5527834 0.0093491743 1.8470205e-21)
(2.5524477 0.0029583148 2.5483313e-21)
(1.5855613 -0.51420178 -5.6945721e-21)
(1.5886996 -0.066943185 1.066174e-19)
(1.682771 0.705231 7.3989302e-20)
(1.7793752 1.0158714 -5.3994007e-20)
(1.8062906 0.97447714 2.0197195e-19)
(1.7130682 0.40673302 -1.7190708e-22)
(1.5951307 -0.30309732 1.0540902e-19)
(1.5968471 -0.75902941 1.0797137e-19)
(1.6386029 -0.95092092 -5.7542976e-21)
(1.5893068 -1.0228752 2.3097329e-19)
(1.4941169 -0.97108674 5.6762619e-19)
(1.3824977 -0.55370141 -5.5712838e-19)
(1.2833471 0.260218 3.6119284e-20)
(1.223999 1.1373134 2.2093169e-19)
(1.2389179 1.7463349 1.3608489e-19)
(1.2939786 1.9271012 -7.7842564e-20)
(1.3300667 1.7944321 -2.2375048e-19)
(1.3614827 1.4449647 1.7539825e-19)
(1.494043 1.0370729 -1.253379e-19)
(1.7225163 0.71385638 -3.6241244e-20)
(1.9267969 0.49235704 -1.5252666e-20)
(2.0900135 0.35107061 -1.7002798e-20)
(2.2005227 0.24803271 -1.8708257e-20)
(2.2848874 0.18120324 -5.0183192e-21)