/*--------------------------------*- C++ -*----------------------------------*\
| =========                 |                                                 |
| \\      /  F ield         | OpenFOAM: The Open Source CFD Toolbox           |
|  \\    /   O peration     | Version:  v2012                                 |
|   \\  /    A nd           | Website:  www.openfoam.com                      |
|    \\/     M anipulation  |                                                 |
\*---------------------------------------------------------------------------*/
FoamFile
{
    version     2.0;
    format      ascii;
    class       surfaceVectorField;
    location    "21.828410048542551";
    object      Uf;
}
// * * * * * * * * * * * * * * * * * * * * * * * * * * * * * * * * * * * * * //

dimensions      [0 1 -1 0 0 0 0];


internalField   nonuniform List<vector> 
18180
(
(2.6131858 -0.0079415993 -4.0220467e-23)
(2.6197825 -0.0033800967 8.3196699e-24)
(2.6133991 -0.0156648 1.8729062e-22)
(2.6201595 -0.012141576 2.1627326e-22)
(2.6246709 -0.0079523781 2.6662952e-22)
(2.6267858 -0.0032834498 5.4193203e-22)
(2.6136984 -0.023107679 -1.4405432e-22)
(2.6206878 -0.0190647 9.4780253e-24)
(2.6252945 -0.015689767 3.438339e-23)
(2.627447 -0.012032404 7.5881294e-22)
(2.6302899 -0.0077682321 1.0221715e-21)
(2.6333757 -0.0031181777 1.0934915e-21)
(2.6140347 -0.030507862 -1.1376608e-21)
(2.6214233 -0.026900551 -2.6805074e-22)
(2.6261523 -0.023189869 -1.3086048e-22)
(2.628243 -0.018889981 -2.0297762e-22)
(2.6311474 -0.015365293 4.8162793e-22)
(2.6343394 -0.011686946 1.2370603e-21)
(2.6371751 -0.0074578862 1.3088961e-21)
(2.63947 -0.0028897955 -6.5786391e-23)
(2.6144404 -0.037814312 -9.5889989e-22)
(2.6222161 -0.034010534 -5.0760406e-22)
(2.6271851 -0.030592044 3.2040709e-22)
(2.6293984 -0.02673498 1.0651269e-22)
(2.6322805 -0.022800222 4.0642468e-23)
(2.6354574 -0.018408707 9.3328917e-22)
(2.6383878 -0.014852877 1.6593506e-21)
(2.6408022 -0.011115205 6.7638589e-22)
(2.6431143 -0.0069716864 -6.3703643e-22)
(2.6449579 -0.0025926479 -1.267679e-21)
(2.6149435 -0.045114613 7.7339138e-23)
(2.6231648 -0.041338271 -1.5486982e-22)
(2.6283225 -0.037805168 2.8501694e-22)
(2.6305281 -0.03383731 5.9279468e-22)
(2.6335682 -0.030182587 3.8862583e-22)
(2.6370599 -0.026228446 -1.920434e-22)
(2.639966 -0.02221503 6.5331089e-22)
(2.642339 -0.017635649 1.8486224e-21)
(2.6447698 -0.014015366 9.1879447e-22)
(2.6467322 -0.010235188 -6.9781821e-22)
(2.6485523 -0.0062725035 -1.297067e-21)
(2.6497144 -0.0022167254 5.211221e-23)
(2.6156286 -0.052420386 1.0098578e-21)
(2.6242737 -0.048320931 8.9673257e-22)
(2.6296086 -0.044753448 6.8834882e-22)
(2.6317285 -0.041071286 1.7604744e-22)
(2.6348097 -0.037400121 4.6646025e-22)
(2.6385396 -0.033434279 -1.5142253e-22)
(2.6417198 -0.02969817 -7.1017599e-22)
(2.6445411 -0.025425515 -5.8292858e-22)
(2.6469412 -0.021233072 5.3417698e-22)
(2.6488383 -0.016423151 4.463527e-22)
(2.6507798 -0.012750744 -1.0945561e-21)
(2.6519865 -0.0089755747 -1.1039463e-21)
(2.6531771 -0.0053130976 1.7906916e-22)
(2.6535957 -0.0017442956 -4.4142868e-22)
(2.6167437 -0.059821734 8.1495821e-22)
(2.6257239 -0.055151351 1.6859166e-21)
(2.6311298 -0.051277497 1.5884249e-21)
(2.6328739 -0.047749212 7.5339252e-22)
(2.6359278 -0.044292604 2.6830928e-22)
(2.6399111 -0.040844367 5.026996e-22)
(2.6432788 -0.037195707 -8.2982953e-23)
(2.6465564 -0.032885849 -6.273104e-22)
(2.649381 -0.028857614 -5.0440118e-22)
(2.6518844 -0.024085633 -3.5185941e-23)
(2.6537785 -0.019662915 -1.2674107e-22)
(2.6548349 -0.014620933 -1.5239831e-21)
(2.6560854 -0.010938076 -1.5403163e-21)
(2.6563819 -0.0072782128 -3.3574884e-22)
(2.656858 -0.0040553241 -9.3197115e-22)
(2.6564497 -0.0011342162 -5.5402706e-22)
(2.6183297 -0.067252317 1.1114144e-22)
(2.6276603 -0.06162965 2.8768314e-22)
(2.6329092 -0.057216636 1.0980409e-21)
(2.6340976 -0.053876718 6.2924153e-22)
(2.6368553 -0.050580379 -1.7688227e-22)
(2.6408576 -0.047735171 1.3275434e-22)
(2.6444039 -0.044536942 3.5315854e-22)
(2.6483064 -0.040819896 2.6902681e-22)
(2.6515541 -0.036862982 -2.4228797e-22)
(2.6548026 -0.03184003 -2.468106e-22)
(2.6572788 -0.027337144 2.0268416e-22)
(2.6590055 -0.021932601 8.8806964e-22)
(2.660138 -0.0172643 -4.2389716e-22)
(2.660123 -0.012087686 -1.6834017e-21)
(2.6605044 -0.0085018318 -5.4261706e-22)
(2.6597298 -0.0051307349 -3.3502972e-22)
(2.6594115 -0.0024813521 3.2088318e-23)
(2.6581322 -0.00029625255 1.8323203e-21)
(2.6204121 -0.074983915 2.5101198e-22)
(2.6303747 -0.067697659 -1.1842647e-21)
(2.635332 -0.062329903 -1.0433475e-21)
(2.6353711 -0.059072084 -1.3794993e-22)
(2.6376636 -0.055904895 -6.0064008e-22)
(2.6413282 -0.053993682 -2.3560122e-22)
(2.6448054 -0.051391111 5.7310622e-23)
(2.6492405 -0.048571068 6.5953894e-23)
(2.6530527 -0.0451564 -1.805005e-23)
(2.657443 -0.04051923 -3.122081e-22)
(2.6606271 -0.035888768 -3.1708235e-22)
(2.6632898 -0.029825526 -1.5017196e-21)
(2.665081 -0.024705855 -8.7822859e-22)
(2.6656593 -0.018690502 1.1215038e-21)
(2.6657809 -0.013854095 -5.0960708e-23)
(2.6644345 -0.0087438655 4.5723364e-22)
(2.6637886 -0.0054272474 6.6879225e-22)
(2.6618675 -0.0025705053 -3.6998968e-22)
(2.6607061 -0.00057903111 1.3327375e-21)
(2.6585106 0.00066073543 2.9524832e-21)
(2.6234093 -0.083387955 5.5092764e-22)
(2.6344274 -0.073639081 8.1216555e-23)
(2.6392042 -0.066557864 -1.2829208e-21)
(2.637194 -0.063023511 -6.9620272e-23)
(2.6385208 -0.059948943 8.0345876e-22)
(2.6412445 -0.059067758 6.4403472e-22)
(2.6442975 -0.057320953 1.0084774e-21)
(2.6490841 -0.055996862 2.9639256e-22)
(2.6533486 -0.053477061 3.0807789e-22)
(2.6590437 -0.049646426 -1.6027344e-23)
(2.6632966 -0.045381981 -2.9493474e-22)
(2.6675194 -0.039188318 4.4130664e-22)
(2.6702229 -0.033549778 -6.7342631e-22)
(2.6717477 -0.026334563 -1.8778026e-21)
(2.6724694 -0.020601456 7.3595296e-24)
(2.671474 -0.014182531 1.3426349e-22)
(2.6703355 -0.0093566748 6.2083507e-22)
(2.6674862 -0.0046098438 1.4848877e-21)
(2.6657484 -0.0017735828 5.1085853e-22)
(2.6627042 0.00032402015 2.8062006e-21)
(2.6606627 0.0014474363 4.3640656e-21)
(2.6576 0.0015791906 1.3751263e-21)
(2.6275844 -0.092703259 1.4754606e-21)
(2.6401458 -0.079238573 -8.0115246e-23)
(2.6448875 -0.069778039 -5.4385513e-22)
(2.6399829 -0.065714132 9.0083453e-22)
(2.6395729 -0.062242935 2.0835763e-21)
(2.6407574 -0.062546635 1.2326166e-21)
(2.6427439 -0.061774901 1.0911183e-21)
(2.647474 -0.062509938 1.2483364e-21)
(2.6519739 -0.061442852 5.7622431e-22)
(2.6591203 -0.059169565 6.9961872e-22)
(2.6645762 -0.05573973 3.969586e-22)
(2.670801 -0.04981159 1.2944524e-21)
(2.6750016 -0.044062838 2.0162085e-21)
(2.6782722 -0.035964576 -1.2670815e-21)
(2.6799382 -0.029184408 -2.4162501e-21)
(2.679659 -0.020990225 3.2970912e-22)
(2.6789037 -0.01482528 4.5641119e-22)
(2.6760178 -0.0083863054 9.4752336e-22)
(2.6734423 -0.0038529119 1.7713161e-21)
(2.6690454 0.00017070045 -9.6828026e-22)
(2.6662246 0.0022867732 1.1874751e-21)
(2.6621419 0.003427893 3.3536794e-21)
(2.6592546 0.0035110088 5.0296986e-22)
(2.6554718 0.0024730624 -5.210521e-21)
(2.6330508 -0.10332898 -1.9907719e-22)
(2.6479781 -0.084972012 2.6698949e-21)
(2.6527902 -0.071900864 1.203086e-21)
(2.6440639 -0.066211858 9.278531e-22)
(2.6411822 -0.062133577 2.3197697e-21)
(2.6398017 -0.063713782 9.7633876e-22)
(2.6400743 -0.06402327 1.6110121e-22)
(2.6441188 -0.067666687 -1.8422676e-21)
(2.6484137 -0.068510766 -1.7359097e-21)
(2.656996 -0.068676456 1.3960354e-21)
(2.6637635 -0.066779374 1.5242766e-21)
(2.6725212 -0.061839866 7.0611088e-22)
(2.6786273 -0.056423741 1.5608281e-21)
(2.6843216 -0.047679445 1.9006001e-21)
(2.6876924 -0.040077002 -1.2163382e-21)
(2.68901 -0.030142628 -1.3397496e-21)
(2.6890011 -0.022359699 1.2814074e-21)
(2.6863548 -0.013652489 7.6445188e-23)
(2.6837998 -0.0074101926 5.3686874e-22)
(2.6788709 -0.001461099 6.2288907e-22)
(2.6748113 0.0024173829 -1.9933164e-21)
(2.6689582 0.0053715951 -1.5776683e-21)
(2.6651247 0.0066045933 4.3726077e-22)
(2.660139 0.0065840012 2.9369073e-21)
(2.6565506 0.0055663306 -2.4485328e-21)
(2.6522208 0.0033297132 -5.4175557e-21)
(2.6399799 -0.11573657 -4.2200763e-21)
(2.658433 -0.090861894 -4.3737539e-22)
(2.6636632 -0.072978172 2.2809211e-21)
(2.6501066 -0.064824354 1.9462224e-21)
(2.6440285 -0.059161793 1.6958982e-21)
(2.6387849 -0.061989553 7.6965179e-22)
(2.6363162 -0.063410778 -5.2287437e-22)
(2.6388181 -0.07030555 -1.3427334e-21)
(2.642266 -0.073998684 -3.2631209e-21)
(2.6520231 -0.077730057 -1.3153291e-21)
(2.6600594 -0.078173394 1.6624238e-21)
(2.6717859 -0.0751529 -3.875918e-22)
(2.6802815 -0.070746165 -1.1941454e-21)
(2.6892744 -0.061874047 3.9285859e-22)
(2.6949949 -0.05373577 6.9522309e-22)
(2.6987208 -0.042031229 3.8703016e-22)
(2.700306 -0.032600793 2.9334909e-22)
(2.6987431 -0.021354415 6.726294e-23)
(2.6964955 -0.012995966 -1.0937974e-21)
(2.6911453 -0.004477865 -5.2018416e-22)
(2.686627 0.001311488 -4.5400948e-22)
(2.6797353 0.0062626709 -9.844575e-22)
(2.6742606 0.0091600802 -5.7575144e-22)
(2.6671937 0.010724651 1.2675795e-21)
(2.6624813 0.010892168 3.6514874e-21)
(2.6568151 0.0096366381 -3.3830726e-22)
(2.6526912 0.0075077129 -3.1249793e-21)
(2.6479961 0.0041013198 1.5072258e-21)
(2.6484739 -0.13046095 -6.2054481e-21)
(2.672037 -0.097346331 -2.7583601e-21)
(2.678292 -0.073125633 8.5141648e-22)
(2.6587483 -0.061117677 -2.2907916e-21)
(2.6487221 -0.052922443 -2.6746339e-21)
(2.6382531 -0.05657891 -3.4221703e-21)
(2.6316733 -0.059102967 -4.3703939e-21)
(2.6314082 -0.070389737 -9.6587543e-22)
(2.633134 -0.077172547 -1.7480392e-21)
(2.6437021 -0.085545915 -6.2507811e-22)
(2.6526861 -0.089490474 1.2576356e-21)
(2.6677311 -0.089532497 1.3797141e-21)
(2.678997 -0.087039734 -5.7049347e-22)
(2.692167 -0.078798129 3.7938605e-22)
(2.7010612 -0.070618797 1.9019495e-21)
(2.7083076 -0.057298496 7.047969e-22)
(2.7122731 -0.046245404 4.1251451e-22)
(2.7125879 -0.032103983 -8.1695815e-22)
(2.7114707 -0.021312937 -1.0477151e-21)
(2.7063691 -0.0096826974 3.4726904e-22)
(2.7015205 -0.0014287502 9.1262834e-22)
(2.6934223 0.0060862358 2.3095558e-21)
(2.6870123 0.010968657 1.8462637e-21)
(2.6784085 0.014344169 5.9878031e-22)
(2.6717532 0.015962766 2.3645444e-21)
(2.6638139 0.015941202 3.8735414e-21)
(2.6584346 0.014939628 9.0664777e-23)
(2.6523452 0.012447865 -6.5672305e-21)
(2.6478615 0.009241995 -2.2224543e-21)
(2.6429854 0.004761357 2.6399238e-21)
(2.6585765 -0.14805771 -1.2694577e-21)
(2.6892059 -0.10481916 -2.187418e-21)
(2.6974521 -0.07256534 1.1410155e-21)
(2.6707779 -0.055047125 1.1930293e-21)
(2.6558992 -0.042981245 -1.7758706e-21)
(2.6385502 -0.046940103 -4.1664513e-21)
(2.6264185 -0.050141874 -4.8926138e-21)
(2.6218469 -0.066308926 -1.279096e-21)
(2.6205781 -0.077144758 1.9962633e-21)
(2.631351 -0.091645952 1.1642167e-21)
(2.6408345 -0.10006807 2.2686214e-21)
(2.6593998 -0.10467129 1.5030807e-21)
(2.6737345 -0.10519569 1.6225083e-21)
(2.692017 -0.098618398 9.7855096e-22)
(2.7049039 -0.091142441 1.9030711e-21)
(2.7169096 -0.076598944 -5.2305426e-22)
(2.7243214 -0.064080257 -1.7005617e-21)
(2.72769 -0.046723541 6.1889107e-22)
(2.7284929 -0.033202118 -5.3365628e-22)
(2.724243 -0.017788715 -2.9593859e-21)
(2.7197425 -0.0065125371 -1.6637143e-21)
(2.7108767 0.0043175998 8.8596877e-22)
(2.7033957 0.011676421 2.2158485e-21)
(2.6928848 0.0173873 9.9463793e-22)
(2.6847989 0.020845772 -2.0162272e-22)
(2.6749346 0.022300427 1.2527486e-21)
(2.6674201 0.022435581 2.6699036e-21)
(2.6589965 0.020755583 6.7467381e-22)
(2.6531972 0.018564902 -5.6357315e-21)
(2.6469418 0.014907334 1.0610132e-21)
(2.6422765 0.010716568 5.7227378e-21)
(2.6373873 0.0053071036 -9.6328301e-23)
(2.6702098 -0.16907239 1.0661346e-20)
(2.7103274 -0.1137226 7.0245996e-21)
(2.7218776 -0.071622013 6.2836419e-21)
(2.6869353 -0.046470905 3.2172901e-21)
(2.6663339 -0.028915069 3.3033723e-21)
(2.6402142 -0.032413872 1.1565282e-20)
(2.6208424 -0.035672764 9.4917642e-21)
(2.6102233 -0.057403101 1.1843789e-20)
(2.6043356 -0.072883062 1.5517024e-20)
(2.6143186 -0.094958037 -1.1292478e-21)
(2.6236757 -0.10919175 -1.9644794e-21)
(2.6458266 -0.12000304 2.4166949e-21)
(2.6633855 -0.12496188 1.6924878e-21)
(2.6876735 -0.1214187 -9.6964278e-22)
(2.7054152 -0.11564556 -1.6169224e-21)
(2.7236068 -0.10052886 -4.956107e-21)
(2.7356418 -0.086942254 -7.3644297e-21)
(2.7434783 -0.066229007 -6.4275756e-21)
(2.7473561 -0.049683978 -4.2940039e-21)
(2.7449651 -0.029658079 -3.8828814e-21)
(2.7414288 -0.014749572 -6.2337138e-21)
(2.7320439 0.00027607374 -1.7976074e-21)
(2.7239258 0.010863657 6.2882604e-22)
(2.7116023 0.0197034 4.1809406e-22)
(2.7017479 0.025417098 -7.6639127e-22)
(2.6894163 0.028669122 -3.9058598e-21)
(2.6800881 0.030319899 -2.5807586e-21)
(2.6695214 0.029675544 4.7655257e-22)
(2.6615201 0.028244425 -1.4502196e-21)
(2.6530003 0.024959147 -2.2092293e-21)
(2.6470299 0.021635895 4.1951941e-21)
(2.6408436 0.016941704 4.6855977e-21)
(2.6361592 0.011901036 -8.509945e-22)
(2.6313975 0.0057340273 -3.2785332e-21)
(2.6830124 -0.19392156 6.8016911e-21)
(2.7352906 -0.12453533 -2.704289e-21)
(2.751981 -0.070708948 -6.3390532e-21)
(2.7079771 -0.035370122 6.2542395e-21)
(2.6808132 -0.010384567 3.3514591e-21)
(2.6438753 -0.012207393 3.3696543e-21)
(2.6153423 -0.014841734 1.1202257e-20)
(2.596603 -0.042723746 1.9470967e-20)
(2.5842448 -0.063361081 2.1848533e-20)
(2.5922516 -0.094635394 2.5279945e-21)
(2.6004836 -0.11611804 -1.3456556e-20)
(2.626064 -0.13500404 -2.0160009e-21)
(2.6468475 -0.14595414 2.1423579e-21)
(2.677937 -0.14713121 1.7131352e-21)
(2.7013455 -0.14436624 -8.1427208e-22)
(2.7272702 -0.12969269 2.0500162e-21)
(2.7452654 -0.11567849 -1.0645846e-21)
(2.7593187 -0.091622694 -3.1958461e-21)
(2.7676495 -0.071941826 -2.2534457e-21)
(2.7684222 -0.046530841 7.4709869e-22)
(2.7668766 -0.027197375 1.2112331e-21)
(2.7575621 -0.0067258136 -6.2229358e-21)
(2.7490894 0.0078979812 -2.0172367e-21)
(2.7347862 0.020783348 2.754157e-21)
(2.7232682 0.0295626 2.5856065e-21)
(2.7082519 0.035307677 -6.4103971e-22)
(2.6966004 0.038735589 -3.6173947e-21)
(2.6832438 0.039190695 -1.8764328e-21)
(2.6732084 0.038835461 1.0384855e-21)
(2.6625095 0.036107023 -2.1728445e-21)
(2.6543959 0.033148228 -2.903648e-21)
(2.6461271 0.028415618 -8.0920219e-22)
(2.6402127 0.024078423 -4.1879467e-22)
(2.6342904 0.018517678 -6.3366407e-21)
(2.629723 0.012784131 -8.7191352e-21)
(2.6251979 0.0060399638 -5.4285582e-22)
(2.6974113 -0.22307765 -2.2286211e-20)
(2.7641921 -0.13779864 -1.6415625e-20)
(2.7882147 -0.070270092 -2.5770019e-20)
(2.7340849 -0.0219103 -9.8028785e-21)
(2.6996674 0.012945558 2.0998348e-21)
(2.6499997 0.014124022 -6.8288921e-21)
(2.6102361 0.013163546 -6.9665108e-21)
(2.5811761 -0.021154157 -5.2075487e-21)
(2.5601151 -0.047560723 2.3975755e-21)
(2.5647214 -0.08975757 3.3887959e-21)
(2.5706112 -0.11997627 -1.5208014e-20)
(2.5992368 -0.14895622 -6.2109439e-21)
(2.6230361 -0.16765629 4.7526821e-21)
(2.6615633 -0.17553507 6.0802289e-21)
(2.6913485 -0.17738059 5.7308391e-21)
(2.7266127 -0.16457606 8.1697236e-21)
(2.7519952 -0.1511102 1.101536e-20)
(2.7743581 -0.1240751 1.9271641e-21)
(2.7888225 -0.10130027 -5.1302314e-23)
(2.7944993 -0.069668908 7.037745e-21)
(2.7962647 -0.045189396 1.0021466e-20)
(2.7878827 -0.017926458 8.8479572e-21)
(2.7796547 0.0019589893 1.8979405e-21)
(2.7633963 0.020299544 -9.0558738e-21)
(2.7500928 0.03301272 -4.6284917e-21)
(2.7318246 0.041991047 3.5483875e-22)
(2.7176459 0.047910589 -2.7407198e-21)
(2.7010627 0.049957726 -6.9982946e-22)
(2.6883755 0.050729578 9.9821324e-22)
(2.6748269 0.048352325 3.5709614e-21)
(2.6646352 0.045986524 5.6079462e-22)
(2.6543154 0.041356546 -3.2639767e-21)
(2.646425 0.037011687 -1.2834151e-21)
(2.6386853 0.031062068 -1.4289242e-22)
(2.6330156 0.025872793 -5.7516339e-21)
(2.6275032 0.019636682 -6.6139047e-21)
(2.6231587 0.013375006 1.1741355e-21)
(2.6189485 0.0062305953 2.3095933e-21)
(2.7166953 -0.25781496 -1.3200472e-20)
(2.8015672 -0.15423474 -4.7341233e-21)
(2.8350906 -0.071097414 1.0892604e-21)
(2.7666378 -0.0062866126 -1.7214334e-20)
(2.7239049 0.041493211 -1.9402687e-21)
(2.6582157 0.046986756 -2.3400426e-21)
(2.6054652 0.049147493 -1.0875925e-20)
(2.5638468 0.0080080938 -2.5395131e-20)
(2.5316574 -0.02444202 -2.3996084e-20)
(2.5312976 -0.079264221 -1.4435688e-20)
(2.5334032 -0.11985373 -1.3736917e-20)
(2.5644566 -0.16104081 -1.1087357e-20)
(2.5908597 -0.18938288 -2.4873897e-21)
(2.6372421 -0.20621904 2.7820672e-21)
(2.673953 -0.21454105 4.0127406e-21)
(2.720156 -0.2054851 -5.086356e-21)
(2.7543793 -0.19393268 -2.9321626e-21)
(2.7874725 -0.16470778 3.1968247e-22)
(2.8100437 -0.13919729 -8.4617146e-21)
(2.8229182 -0.10070216 -3.2579514e-21)
(2.8297474 -0.070298893 3.4218727e-21)
(2.8235317 -0.034546136 9.3676125e-21)
(2.8164786 -0.0079801164 8.2201701e-21)
(2.7982937 0.017350487 3.0545452e-21)
(2.7833097 0.03538631 -7.3202478e-21)
(2.7612525 0.048860877 -2.7763503e-21)
(2.7440162 0.058016607 1.9716953e-21)
(2.7233642 0.062064244 -5.7653205e-21)
(2.7075992 0.064468175 -3.8730122e-21)
(2.6906694 0.062684897 1.506621e-22)
(2.6777532 0.060734117 2.5795942e-21)
(2.6647627 0.055758453 1.1069994e-21)
(2.6549097 0.051545445 -2.5144299e-21)
(2.6453734 0.045315423 1.0246233e-21)
(2.6379756 0.039798693 2.1397821e-21)
(2.630963 0.032900245 1.2672634e-21)
(2.6256791 0.027043705 5.5096121e-22)
(2.6206732 0.020326497 2.8071411e-21)
(2.6166274 0.013698316 3.9077638e-21)
(2.6127815 0.0063173914 -9.9706746e-22)
(2.7471543 -0.29942046 -2.2423302e-20)
(2.853897 -0.17662456 6.2397866e-21)
(2.900927 -0.075517587 1.4553017e-20)
(2.8155189 0.010980662 1.4947646e-21)
(2.7603877 0.07519949 -1.5860749e-20)
(2.6708394 0.08678071 -9.3102231e-21)
(2.6021789 0.093551166 -9.7970597e-21)
(2.5445261 0.045442648 -6.8418616e-21)
(2.4986563 0.0068445172 -2.055862e-20)
(2.4916678 -0.062430273 -5.4712555e-22)
(2.4884465 -0.11497657 8.8726852e-21)
(2.5211358 -0.17042149 -1.1321553e-20)
(2.5495295 -0.21038195 -8.7660114e-21)
(2.6037387 -0.23850809 -5.2243429e-21)
(2.6477117 -0.25542554 -2.6446397e-22)
(2.7061836 -0.2524765 -1.5019294e-20)
(2.7506633 -0.24461458 -2.3930886e-20)
(2.7971863 -0.2145615 -7.4403462e-21)
(2.8300885 -0.18709024 -4.4208848e-21)
(2.8530969 -0.14134826 -4.0412852e-21)
(2.8672948 -0.10441466 9.6196693e-22)
(2.8650899 -0.058290358 -4.0175779e-21)
(2.8605568 -0.023456178 1.4711227e-21)
(2.8408373 0.011124193 2.2087414e-21)
(2.8242814 0.036092781 -2.7981417e-21)
(2.7976888 0.055617135 -1.7760348e-21)
(2.7768905 0.069262511 2.6160979e-21)
(2.7511922 0.076154174 7.4356307e-21)
(2.7315363 0.080637969 1.8664954e-22)
(2.7102848 0.079453223 2.06308e-21)
(2.6941194 0.07816372 5.9788516e-21)
(2.6779499 0.072848851 8.7124285e-23)
(2.6655334 0.068379088 -1.353175e-21)
(2.6536867 0.061230332 -1.0499141e-21)
(2.6445644 0.055453869 2.3312329e-21)
(2.6360892 0.047988637 3.0434973e-21)
(2.6293757 0.041553529 2.2325187e-21)
(2.6232087 0.033981952 1.8440838e-22)
(2.6184043 0.027647359 2.3192262e-21)
(2.6139569 0.020632708 3.2164148e-21)
(2.6102578 0.013787809 -1.4472054e-21)
(2.6068007 0.0063146495 -7.6149971e-22)
(2.7711163 -0.34116305 1.1246505e-20)
(2.8999335 -0.20302409 4.8120257e-21)
(2.9649634 -0.085606409 3.2397367e-20)
(2.887945 0.028161439 -2.9955728e-20)
(2.8172233 0.11393588 -4.2988402e-20)
(2.6977808 0.13350731 -1.3890526e-20)
(2.6060742 0.1468453 -7.6470051e-21)
(2.5249169 0.09164795 -5.7491124e-21)
(2.4615656 0.046769284 -2.8858906e-21)
(2.4460316 -0.038875875 4.5783802e-20)
(2.4359192 -0.10503029 6.574877e-20)
(2.4695391 -0.17680026 8.3017347e-21)
(2.4991911 -0.23028159 -1.0867032e-20)
(2.5609464 -0.27202147 -3.6185558e-21)
(2.6120961 -0.29971641 -1.8411239e-22)
(2.6836127 -0.30546095 7.0210907e-21)
(2.7394925 -0.30351586 -6.8725632e-21)
(2.8019231 -0.27456667 -3.6220144e-23)
(2.8475534 -0.24643979 1.5964847e-20)
(2.8841507 -0.19351934 2.8426564e-21)
(2.9086196 -0.14970354 3.3099867e-21)
(2.9129534 -0.091144334 -1.0616818e-20)
(2.9129206 -0.046228896 -1.5532995e-20)
(2.8922921 0.00037558936 -1.0895832e-20)
(2.8746554 0.034388025 -1.0361723e-20)
(2.8427949 0.062162054 -3.2288988e-21)
(2.8177509 0.081833674 -2.2594987e-21)
(2.7856698 0.092569173 -2.27137e-21)
(2.7611732 0.0999918 2.2424793e-21)
(2.7344499 0.099719468 3.9833171e-22)
(2.7141157 0.099161232 2.1749251e-21)
(2.6938956 0.093135439 7.3360333e-21)
(2.6784101 0.088408691 1.7588841e-21)
(2.6638536 0.080167291 -3.9037247e-22)
(2.6525064 0.073576368 -7.9603589e-23)
(2.6421907 0.064779388 1.0971456e-21)
(2.6340687 0.057788986 1.758488e-21)
(2.6268083 0.049467244 3.0221176e-21)
(2.6208946 0.04237674 1.0930556e-21)
(2.6156225 0.034392372 -1.2356693e-21)
(2.6113484 0.027759127 -4.3587515e-22)
(2.6074747 0.020610791 -8.1826136e-22)
(2.6041462 0.013681336 -1.5840151e-22)
(2.6010825 0.0062376693 -1.0848198e-21)
(2.7713794 -0.38019894 5.348085e-20)
(2.9104323 -0.23147738 -1.7235904e-20)
(2.9958813 -0.10018666 -2.3752037e-20)
(2.9525509 0.047477846 4.9130127e-20)
(2.888848 0.15952684 -9.7785332e-21)
(2.7397528 0.1884349 -3.8124957e-20)
(2.6198874 0.21066476 -1.0447369e-20)
(2.5109117 0.14703712 -4.9020413e-21)
(2.42241 0.096053862 -3.0610885e-21)
(2.3948988 -0.0084139836 2.2430742e-20)
(2.3761757 -0.090024256 6.8981088e-20)
(2.4103474 -0.18004793 4.7855202e-20)
(2.4406778 -0.24899948 -6.9191589e-21)
(2.5095882 -0.30660794 -1.6688866e-20)
(2.5675809 -0.34726905 -9.8985651e-21)
(2.652662 -0.36487222 -1.7777348e-20)
(2.7205523 -0.37128179 -1.1205779e-20)
(2.8014114 -0.34610961 -1.2992984e-20)
(2.8618304 -0.31914256 -6.5962456e-21)
(2.9158461 -0.2595736 8.0745472e-21)
(2.9539341 -0.20895883 -4.49462e-21)
(2.9678884 -0.13570858 1.8144145e-20)
(2.9750958 -0.078680282 5.1471279e-21)
(2.9543754 -0.01643731 -1.3782323e-20)
(2.9363986 0.029229635 -9.326124e-21)
(2.8983682 0.068122915 1.2449906e-21)
(2.8684146 0.095958957 8.1853901e-21)
(2.8283588 0.11203355 6.5632827e-21)
(2.797724 0.12344356 6.6975334e-21)
(2.763969 0.12434271 -1.2513197e-20)
(2.7383318 0.12485457 -1.4495933e-20)
(2.7129968 0.11793698 -7.766809e-21)
(2.6935845 0.11266273 -3.0149397e-21)
(2.6756352 0.10267578 -1.6404069e-21)
(2.661662 0.095079364 -3.7334443e-21)
(2.649261 0.084670829 -6.1490026e-22)
(2.6393603 0.076460302 5.0272546e-22)
(2.6307719 0.066558471 -2.4050734e-22)
(2.6238005 0.058720123 9.3201286e-22)
(2.617803 0.04989782 1.7118442e-21)
(2.6127377 0.042401534 -4.8887931e-22)
(2.6083545 0.034234582 1.1801392e-21)
(2.604626 0.027462866 8.4095527e-22)
(2.6013132 0.020319617 2.1435875e-22)
(2.59836 0.01341721 -6.5900557e-22)
(2.5956792 0.0061015559 -7.2851997e-22)
(2.7520133 -0.41609089 2.9093649e-20)
(2.8988456 -0.25635563 -1.9588807e-20)
(2.9975317 -0.11502127 -8.7730624e-20)
(2.9676798 0.068214146 4.8381924e-20)
(2.9339183 0.21033902 1.185677e-19)
(2.7759219 0.25615687 9.1244348e-21)
(2.6291149 0.28709257 -1.7493351e-20)
(2.5004337 0.21443829 -9.4876162e-21)
(2.3818473 0.15676117 -4.2120989e-21)
(2.3396496 0.029449897 -3.3291582e-20)
(2.309261 -0.069899484 -9.5479092e-21)
(2.3437357 -0.17990607 2.8609207e-20)
(2.3745566 -0.26614844 7.9704607e-21)
(2.4495924 -0.34113263 -3.4300714e-21)
(2.5139913 -0.39687915 -1.2649189e-20)
(2.6119231 -0.42920365 -1.04253e-20)
(2.6922184 -0.44706851 -1.7914965e-20)
(2.7935556 -0.42960935 -2.6559713e-20)
(2.8707182 -0.40647196 -2.8482521e-20)
(2.9477519 -0.34269174 -1.3648423e-20)
(3.0030344 -0.2858103 1.6971236e-22)
(3.031973 -0.19585381 -2.541382e-20)
(3.0498077 -0.12449762 -4.2393423e-21)
(3.0303917 -0.041877718 4.6469367e-20)
(3.0130773 0.01912575 2.9115908e-20)
(2.9669642 0.073093026 -2.1940245e-20)
(2.9313641 0.11187702 -1.2096954e-20)
(2.8809753 0.13522464 9.0120716e-21)
(2.8426546 0.15216739 7.5227211e-21)
(2.7999225 0.15472015 6.8015415e-21)
(2.7674379 0.15664979 -1.1450268e-20)
(2.7355651 0.1483977 3.0695277e-21)
(2.7111691 0.14242121 9.7139421e-21)
(2.6890256 0.13015051 -2.477445e-21)
(2.6717501 0.12098424 -1.1732788e-21)
(2.6568252 0.10814963 -6.848808e-21)
(2.6448944 0.098412056 -3.9268192e-21)
(2.6348962 0.08661691 -4.1852257e-23)
(2.6266344 0.077311346 -7.551122e-22)
(2.6198104 0.066808101 2.6250213e-21)
(2.6140377 0.058467331 3.3898264e-21)
(2.60927 0.049454794 -1.4890497e-21)
(2.6050487 0.041774098 8.0079978e-23)
(2.6015083 0.033617033 9.5271218e-22)
(2.5983139 0.026842692 3.5996853e-22)
(2.5955292 0.019816661 9.3583122e-22)
(2.5929416 0.013031686 8.9329776e-22)
(2.5906224 0.0059203834 2.2106572e-21)
(2.7170191 -0.44779756 5.1883721e-20)
(2.8638928 -0.27383776 1.3843863e-19)
(2.9761995 -0.12020487 9.3838971e-20)
(2.9202314 0.091740365 6.4644176e-21)
(2.8970793 0.26555391 1.3695494e-19)
(2.7624234 0.33232722 3.2115057e-20)
(2.6083987 0.37630095 -7.2982315e-20)
(2.4771957 0.2970317 -2.0965575e-20)
(2.3349598 0.22986074 -1.3420572e-20)
(2.2799044 0.076450832 -2.0747107e-20)
(2.2355674 -0.044112872 -4.8581064e-20)
(2.2695557 -0.17605199 -1.4980244e-20)
(2.3009367 -0.28125341 2.1146274e-20)
(2.3807106 -0.37392268 6.5754151e-21)
(2.4504986 -0.44611342 -4.2633877e-21)
(2.5582128 -0.49489283 -3.486027e-21)
(2.6501795 -0.52681573 -1.2401878e-21)
(2.7704814 -0.52030191 4.2039355e-20)
(2.8658118 -0.50486455 3.4722841e-20)
(2.9698848 -0.44065995 1.7582748e-20)
(3.0473562 -0.38040382 3.2362941e-20)
(3.1005991 -0.27481533 -8.3962709e-20)
(3.1346561 -0.18744783 -1.0948759e-19)
(3.1237677 -0.080149273 1.0127005e-20)
(3.1088239 0.0011269263 5.8462817e-20)
(3.0542381 0.075544655 -1.1304295e-20)
(3.0114041 0.12938179 -6.034404e-20)
(2.9465185 0.16308351 -2.5573886e-21)
(2.8982286 0.18758844 1.7603575e-20)
(2.8434544 0.19240955 7.3310855e-22)
(2.8021792 0.19632693 -7.2091456e-23)
(2.7619951 0.18626882 -7.0159434e-21)
(2.7311968 0.17925458 6.8288071e-21)
(2.7038165 0.16376764 1.8193578e-20)
(2.6824378 0.15251564 6.7482542e-21)
(2.6645253 0.13653314 4.9690811e-21)
(2.6501255 0.12454427 -3.2688184e-22)
(2.6385251 0.10999096 -2.2147372e-21)
(2.6288799 0.098868669 1.5063269e-21)
(2.6212934 0.086396263 -2.2377629e-21)
(2.6147091 0.076484239 9.4815224e-22)
(2.6095687 0.06580888 1.9268399e-21)
(2.6049649 0.057267647 -2.7243729e-21)
(2.6013376 0.04831867 1.8021734e-22)
(2.5979176 0.040638974 1.0104401e-21)
(2.5951477 0.032644506 -4.6647222e-22)
(2.5924566 0.025977375 6.7868718e-23)
(2.5901548 0.019154862 1.3320281e-22)
(2.5879128 0.012557391 1.3720543e-21)
(2.5859273 0.0057066933 1.3367886e-21)
(2.6682512 -0.47454134 -1.7927914e-20)
(2.8101022 -0.28539572 -1.3015421e-19)
(2.9294617 -0.11849428 -5.0678563e-20)
(2.8563331 0.12184948 1.3035739e-21)
(2.8067726 0.32558296 -8.2925264e-20)
(2.6815909 0.40605596 8.2637304e-20)
(2.5492027 0.4699021 -1.7622637e-20)
(2.4272342 0.38731098 -5.8725475e-20)
(2.2770362 0.3117351 -9.1625698e-21)
(2.213057 0.13262272 1.0095553e-21)
(2.1570612 -0.012670667 -5.7302618e-21)
(2.1885173 -0.16827275 -2.4827261e-20)
(2.2202506 -0.29420615 7.4048972e-21)
(2.3034737 -0.40384569 1.8691204e-20)
(2.3773379 -0.49275246 4.8282577e-21)
(2.4907604 -0.55834117 3.6367838e-21)
(2.5914814 -0.60595108 4.4913787e-21)
(2.7264889 -0.61261026 4.2486411e-20)
(2.8379735 -0.60768801 8.4184877e-20)
(2.9675515 -0.54633544 3.9825402e-20)
(3.0702663 -0.4859128 2.3654254e-20)
(3.1522065 -0.36607506 1.5643715e-19)
(3.2118933 -0.26457069 4.7882999e-20)
(3.2208486 -0.13110794 -9.0085705e-20)
(3.2156417 -0.025699253 2.3718573e-20)
(3.1616847 0.073375637 4.478001e-20)
(3.1114879 0.14786149 -2.162277e-20)
(3.0311739 0.19586708 -3.3948621e-20)
(2.9689155 0.23132143 2.1277482e-20)
(2.8969476 0.23942567 2.0403317e-20)
(2.8438276 0.24608202 4.4336822e-21)
(2.792559 0.23352458 6.9352431e-22)
(2.7535744 0.22509042 -5.9196345e-21)
(2.7197156 0.20527802 -1.4090261e-21)
(2.6931894 0.19111625 9.2554497e-21)
(2.671718 0.17082547 -1.2688015e-21)
(2.6543788 0.15587864 -3.0751708e-21)
(2.6410401 0.13781732 4.5137636e-21)
(2.6298121 0.12410196 2.8082182e-21)
(2.6214822 0.10883026 3.7675817e-21)
(2.6141351 0.097014228 2.4759348e-22)
(2.6088011 0.084452571 -2.9255633e-21)
(2.6038192 0.074351842 -2.0512117e-21)
(2.6002054 0.063845283 -3.2456202e-21)
(2.5966866 0.055350933 -4.9629239e-22)
(2.594077 0.046660868 1.2357653e-21)
(2.59139 0.039129456 -1.626621e-22)
(2.5893037 0.031412343 -7.5500301e-23)
(2.5870732 0.02493701 -1.5603432e-23)
(2.5852024 0.018380862 -3.036809e-22)
(2.5832794 0.012022558 -3.6172449e-22)
(2.581596 0.0054712691 -4.7061084e-24)
(2.6061147 -0.49607609 -5.9796462e-20)
(2.7381945 -0.29359696 -1.0307473e-19)
(2.8599818 -0.11285989 -2.1076625e-19)
(2.7834984 0.15595081 -1.4525429e-19)
(2.716198 0.38693121 -9.7312182e-20)
(2.5955228 0.47759169 -8.2927765e-20)
(2.470403 0.55528941 7.4152128e-20)
(2.3545939 0.47315022 2.4368095e-20)
(2.2090864 0.39516682 -1.401505e-20)
(2.1393966 0.19265695 2.0099041e-21)
(2.0763257 0.022532833 1.1825429e-20)
(2.1036467 -0.15698399 1.1670431e-20)
(2.1344321 -0.30533203 -6.1956987e-21)
(2.2196868 -0.43064373 3.5772005e-21)
(2.2964657 -0.53561178 1.4230961e-20)
(2.4116386 -0.61738617 1.6150748e-20)
(2.517308 -0.68101388 1.5187758e-20)
(2.6614697 -0.70277816 -1.1337289e-20)
(2.7846111 -0.71064557 2.4465917e-20)
(2.937524 -0.65519474 -1.6742552e-20)
(3.0631063 -0.59806068 -6.033593e-20)
(3.1748031 -0.46499902 1.3629551e-19)
(3.2652566 -0.34989519 2.6398113e-19)
(3.2944814 -0.18619824 5.322902e-20)
(3.310303 -0.055910077 -7.7524104e-20)
(3.2665152 0.071378175 -1.8123099e-20)
(3.2175934 0.16971559 1.2445905e-21)
(3.1324974 0.23532685 -2.0303633e-20)
(3.0552805 0.28567364 -3.1921153e-20)
(2.9652478 0.29793729 1.1554014e-20)
(2.8951867 0.30886609 1.058052e-20)
(2.8282195 0.29263742 3.2749982e-21)
(2.7782707 0.28225718 -2.6863686e-22)
(2.7361267 0.25657313 1.0975824e-21)
(2.7031994 0.23847173 5.4304701e-21)
(2.6775703 0.21250484 1.7989762e-20)
(2.6567122 0.19353986 8.15248e-21)
(2.6415047 0.17080483 -5.1040475e-21)
(2.6285444 0.15375266 2.065473e-21)
(2.619602 0.13501518 -6.6754829e-22)
(2.6114985 0.12054984 1.9192723e-22)
(2.6061495 0.10536069 2.3279116e-21)
(2.6009506 0.093425193 -6.5357169e-22)
(2.5976082 0.081223996 1.7078439e-21)
(2.5940806 0.071266877 6.2848501e-22)
(2.5917946 0.061181662 -1.5795463e-21)
(2.5892448 0.052924847 4.8067361e-23)
(2.5875138 0.044634571 -1.0929875e-22)
(2.5854779 0.037362234 -2.5807153e-23)
(2.5839827 0.030003379 -4.8285481e-22)
(2.5821635 0.023781496 -7.6305611e-22)
(2.5806693 0.017534289 3.5468268e-22)
(2.5790353 0.011450821 7.0396499e-22)