/*--------------------------------*- C++ -*----------------------------------*\
| =========                 |                                                 |
| \\      /  F ield         | OpenFOAM: The Open Source CFD Toolbox           |
|  \\    /   O peration     | Version:  v2012                                 |
|   \\  /    A nd           | Website:  www.openfoam.com                      |
|    \\/     M anipulation  |                                                 |
\*---------------------------------------------------------------------------*/
FoamFile
{
    version     2.0;
    format      ascii;
    class       volVectorField;
    location    "6.14070038";
    object      cellDisplacement;
}
// * * * * * * * * * * * * * * * * * * * * * * * * * * * * * * * * * * * * * //

dimensions      [0 1 0 0 0 0 0];


internalField   nonuniform List<vector> 
9200
(
(0.027357649 0 0)
(0.027471379 0 0)
(0.079505994 0 0)
(0.027677137 0 0)
(0.079844598 0 0)
(0.12829851 0 0)
(0.027926817 0 0)
(0.080381975 0 0)
(0.12878531 0 0)
(0.17378362 0 0)
(0.028204825 0 0)
(0.081050594 0 0)
(0.12960192 0 0)
(0.17443348 0 0)
(0.21618814 0 0)
(0.028503469 0 0)
(0.081822937 0 0)
(0.13064482 0 0)
(0.17550212 0 0)
(0.21695029 0 0)
(0.25558325 0 0)
(0.028805639 0 0)
(0.08264397 0 0)
(0.13183889 0 0)
(0.17687476 0 0)
(0.21825156 0 0)
(0.25648233 0 0)
(0.29219792 0 0)
(0.029104035 0 0)
(0.083481163 0 0)
(0.13311062 0 0)
(0.17842773 0 0)
(0.21989843 0 0)
(0.25798021 0 0)
(0.29318667 0 0)
(0.32610889 0 0)
(0.02939273 0 0)
(0.084310368 0 0)
(0.13441861 0 0)
(0.18011005 0 0)
(0.22179606 0 0)
(0.25990192 0 0)
(0.29487821 0 0)
(0.32721318 0 0)
(0.35754118 0 0)
(0.029667957 0 0)
(0.085115066 0 0)
(0.13571907 0 0)
(0.18183902 0 0)
(0.22383674 0 0)
(0.26209676 0 0)
(0.29703408 0 0)
(0.3290713 0 0)
(0.35872162 0 0)
(0.38657688 0 0)
(0.02992743 0 0)
(0.085884002 0 0)
(0.13698293 0 0)
(0.18356151 0 0)
(0.22593808 0 0)
(0.26445132 0 0)
(0.29949672 0 0)
(0.33145491 0 0)
(0.36074323 0 0)
(0.38785484 0 0)
(0.41342728 0 0)
(0.030169654 0 0)
(0.086610315 0 0)
(0.13819431 0 0)
(0.18524229 0 0)
(0.2280426 0 0)
(0.26689486 0 0)
(0.30214881 0 0)
(0.33416739 0 0)
(0.36332299 0 0)
(0.39001621 0 0)
(0.41476821 0 0)
(0.43816861 0 0)
(0.030393865 0 0)
(0.087289232 0 0)
(0.13933813 0 0)
(0.18685195 0 0)
(0.23010102 0 0)
(0.26934653 0 0)
(0.3048958 0 0)
(0.33708943 0 0)
(0.36627488 0 0)
(0.39279365 0 0)
(0.4170689 0 0)
(0.43959336 0 0)
(0.46099988 0 0)
(0.030600031 0 0)
(0.087919351 0 0)
(0.14041075 0 0)
(0.18837876 0 0)
(0.23207812 0 0)
(0.27174708 0 0)
(0.30765401 0 0)
(0.34010228 0 0)
(0.36943161 0 0)
(0.39595478 0 0)
(0.42001297 0 0)
(0.44201324 0 0)
(0.46247931 0 0)
(0.48199327 0 0)
(0.030788149 0 0)
(0.088499191 0 0)
(0.14140538 0 0)
(0.18980732 0 0)
(0.23395512 0 0)
(0.27406241 0 0)
(0.31036764 0 0)
(0.34314893 0 0)
(0.37270999 0 0)
(0.39935248 0 0)
(0.42338219 0 0)
(0.44512706 0 0)
(0.4650184 0 0)
(0.4835442 0 0)
(0.50133021 0 0)
(0.030959045 0 0)
(0.089030498 0 0)
(0.14232419 0 0)
(0.19113834 0 0)
(0.23571702 0 0)
(0.27626079 0 0)
(0.31299018 0 0)
(0.34615189 0 0)
(0.37601416 0 0)
(0.40286292 0 0)
(0.42699025 0 0)
(0.44867809 0 0)
(0.4682748 0 0)
(0.48618575 0 0)
(0.50292815 0 0)
(0.51907637 0 0)
(0.03111311 0 0)
(0.089513428 0 0)
(0.14316522 0 0)
(0.19236417 0 0)
(0.23735793 0 0)
(0.27833254 0 0)
(0.31548573 0 0)
(0.34905444 0 0)
(0.37927509 0 0)
(0.40639745 0 0)
(0.43071528 0 0)
(0.45249171 0 0)
(0.47200412 0 0)
(0.48958709 0 0)
(0.50567159 0 0)
(0.52073504 0 0)
(0.53539425 0 0)
(0.031251553 0 0)
(0.089951428 0 0)
(0.14393366 0 0)
(0.19349191 0 0)
(0.23887566 0 0)
(0.28026288 0 0)
(0.31784059 0 0)
(0.35182816 0 0)
(0.3824382 0 0)
(0.40989768 0 0)
(0.43447069 0 0)
(0.45641968 0 0)
(0.47599793 0 0)
(0.49347124 0 0)
(0.50919399 0 0)
(0.52356536 0 0)
(0.53709298 0 0)
(0.55034231 0 0)
(0.031374997 0 0)
(0.090345453 0 0)
(0.14463027 0 0)
(0.19451914 0 0)
(0.24027 0 0)
(0.28205472 0 0)
(0.32003923 0 0)
(0.35444185 0 0)
(0.38546498 0 0)
(0.41330075 0 0)
(0.43818355 0 0)
(0.4603745 0 0)
(0.48012019 0 0)
(0.49764372 0 0)
(0.51322942 0 0)
(0.52721056 0 0)
(0.54000923 0 0)
(0.55209184 0 0)
(0.56406355 0 0)
(0.031484761 0 0)
(0.09069956 0 0)
(0.14526127 0 0)
(0.19545487 0 0)
(0.24154539 0 0)
(0.28370145 0 0)
(0.32208164 0 0)
(0.35689361 0 0)
(0.38832499 0 0)
(0.41655696 0 0)
(0.4417959 0 0)
(0.46427458 0 0)
(0.48425018 0 0)
(0.50193657 0 0)
(0.51755437 0 0)
(0.53137618 0 0)
(0.54375588 0 0)
(0.55508071 0 0)
(0.56584676 0 0)
(0.57660927 0 0)
(0.03158157 0 0)
(0.091015108 0 0)
(0.14582862 0 0)
(0.19629997 0 0)
(0.24270437 0 0)
(0.28521335 0 0)
(0.32396432 0 0)
(0.35916688 0 0)
(0.39100801 0 0)
(0.41964507 0 0)
(0.44526202 0 0)
(0.46808008 0 0)
(0.48833585 0 0)
(0.50624717 0 0)
(0.52201535 0 0)
(0.53585187 0 0)
(0.54804807 0 0)
(0.55892983 0 0)
(0.56890712 0 0)
(0.5784345 0 0)
(0.58810365 0 0)
(0.031666714 0 0)
(0.091296163 0 0)
(0.14633878 0 0)
(0.19706347 0 0)
(0.24375552 0 0)
(0.28658804 0 0)
(0.32569218 0 0)
(0.36127226 0 0)
(0.39350447 0 0)
(0.42254026 0 0)
(0.44855382 0 0)
(0.47174023 0 0)
(0.49231238 0 0)
(0.51049219 0 0)
(0.52648262 0 0)
(0.54045901 0 0)
(0.55265046 0 0)
(0.56332974 0 0)
(0.57284 0 0)
(0.58155486 0 0)
(0.58995714 0 0)
(0.59859149 0 0)
(0.031741002 0 0)
(0.09154432 0 0)
(0.14679402 0 0)
(0.19774866 0 0)
(0.24470276 0 0)
(0.28783902 0 0)
(0.32726945 0 0)
(0.36320136 0 0)
(0.3958146 0 0)
(0.42524328 0 0)
(0.45164444 0 0)
(0.47521277 0 0)
(0.49613936 0 0)
(0.51461939 0 0)
(0.53087532 0 0)
(0.54507885 0 0)
(0.55739861 0 0)
(0.56805668 0 0)
(0.57734397 0 0)
(0.58557206 0 0)
(0.59313651 0 0)
(0.60047974 0 0)
(0.60817947 0 0)
(0.031805591 0 0)
(0.091763156 0 0)
(0.14720036 0 0)
(0.19836288 0 0)
(0.24555537 0 0)
(0.28896584 0 0)
(0.32870277 0 0)
(0.36497039 0 0)
(0.39794131 0 0)
(0.42774422 0 0)
(0.45453148 0 0)
(0.47848543 0 0)
(0.49978107 0 0)
(0.51860583 0 0)
(0.53516547 0 0)
(0.54962732 0 0)
(0.56215366 0 0)
(0.57292427 0 0)
(0.58217379 0 0)
(0.5901636 0 0)
(0.5972222 0 0)
(0.60370861 0 0)
(0.6100918 0 0)
(0.61690653 0 0)
(0.031861334 0 0)
(0.091954567 0 0)
(0.14756004 0 0)
(0.19891078 0 0)
(0.24631859 0 0)
(0.28998354 0 0)
(0.33000039 0 0)
(0.36657561 0 0)
(0.39988794 0 0)
(0.43005298 0 0)
(0.45720624 0 0)
(0.48153587 0 0)
(0.50321527 0 0)
(0.52240283 0 0)
(0.53927805 0 0)
(0.55402913 0 0)
(0.56682591 0 0)
(0.57780643 0 0)
(0.58715531 0 0)
(0.59509397 0 0)
(0.60189803 0 0)
(0.60786338 0 0)
(0.61336964 0 0)
(0.6188481 0 0)
(0.62486357 0 0)
(0.031909254 0 0)
(0.0921216 0 0)
(0.14787838 0 0)
(0.19939784 0 0)
(0.24700066 0 0)
(0.29089237 0 0)
(0.33116863 0 0)
(0.36803454 0 0)
(0.40166416 0 0)
(0.43216783 0 0)
(0.45967581 0 0)
(0.48437219 0 0)
(0.50642134 0 0)
(0.52597789 0 0)
(0.54320615 0 0)
(0.5582823 0 0)
(0.57137388 0 0)
(0.58260793 0 0)
(0.59214504 0 0)
(0.60017007 0 0)
(0.60691011 0 0)
(0.61260952 0 0)
(0.61758057 0 0)
(0.62216753 0 0)
(0.62682649 0 0)
(0.63208411 0 0)
(0.031950255 0 0)
(0.092266234 0 0)
(0.14815751 0 0)
(0.19982911 0 0)
(0.24760688 0 0)
(0.2917069 0 0)
(0.33221806 0 0)
(0.36934688 0 0)
(0.40327437 0 0)
(0.43410184 0 0)
(0.46194123 0 0)
(0.48698413 0 0)
(0.50940041 0 0)
(0.52932953 0 0)
(0.54691703 0 0)
(0.56232803 0 0)
(0.57572739 0 0)
(0.58725188 0 0)
(0.59704645 0 0)
(0.6052591 0 0)
(0.61207537 0 0)
(0.61770134 0 0)
(0.62239462 0 0)
(0.6264356 0 0)
(0.63018758 0 0)
(0.63407266 0 0)
(0.63864551 0 0)
(0.031985037 0 0)
(0.092391021 0 0)
(0.14840181 0 0)
(0.20020864 0 0)
(0.24814427 0 0)
(0.29242897 0 0)
(0.33315485 0 0)
(0.37052931 0 0)
(0.40473126 0 0)
(0.43585779 0 0)
(0.4640126 0 0)
(0.48938829 0 0)
(0.51214923 0 0)
(0.53243434 0 0)
(0.55038632 0 0)
(0.56614935 0 0)
(0.5798711 0 0)
(0.59171246 0 0)
(0.60180607 0 0)
(0.61025973 0 0)
(0.61724535 0 0)
(0.62293883 0 0)
(0.62755035 0 0)
(0.63130624 0 0)
(0.63450278 0 0)
(0.63747041 0 0)
(0.64065421 0 0)
(0.64457598 0 0)
(0.032014655 0 0)
(0.09249749 0 0)
(0.14861342 0 0)
(0.20054145 0 0)
(0.24861815 0 0)
(0.29307057 0 0)
(0.3339895 0 0)
(0.3715836 0 0)
(0.40603932 0 0)
(0.43744944 0 0)
(0.46589632 0 0)
(0.49158095 0 0)
(0.51467555 0 0)
(0.53530985 0 0)
(0.55361398 0 0)
(0.56972679 0 0)
(0.58378843 0 0)
(0.59595127 0 0)
(0.60634999 0 0)
(0.61509253 0 0)
(0.62232088 0 0)
(0.62818366 0 0)
(0.63285575 0 0)
(0.63652476 0 0)
(0.63942873 0 0)
(0.64183436 0 0)
(0.64408923 0 0)
(0.64660821 0 0)
(0.64994195 0 0)
(0.032040328 0 0)
(0.092588266 0 0)
(0.14879593 0 0)
(0.20083036 0 0)
(0.24903347 0 0)
(0.29363396 0 0)
(0.33472722 0 0)
(0.37252468 0 0)
(0.40721242 0 0)
(0.43888177 0 0)
(0.46760308 0 0)
(0.49358163 0 0)
(0.51698619 0 0)
(0.53794545 0 0)
(0.55659152 0 0)
(0.57305711 0 0)
(0.5874641 0 0)
(0.5999503 0 0)
(0.61066271 0 0)
(0.61972503 0 0)
(0.62724172 0 0)
(0.63333002 0 0)
(0.63815887 0 0)
(0.64188403 0 0)
(0.64469738 0 0)
(0.6468069 0 0)
(0.64849461 0 0)
(0.65007838 0 0)
(0.65199424 0 0)
(0.65476765 0 0)
(0.031925635 0 0)
(0.09266598 0 0)
(0.14895031 0 0)
(0.20108059 0 0)
(0.24939609 0 0)
(0.2941287 0 0)
(0.33537788 0 0)
(0.37335582 0 0)
(0.40825488 0 0)
(0.44016833 0 0)
(0.46914194 0 0)
(0.49539032 0 0)
(0.51908978 0 0)
(0.54036327 0 0)
(0.55933279 0 0)
(0.57613185 0 0)
(0.59087969 0 0)
(0.60370269 0 0)
(0.61473077 0 0)
(0.62410539 0 0)
(0.63193282 0 0)
(0.63830071 0 0)
(0.64335688 0 0)
(0.64724078 0 0)
(0.65010753 0 0)
(0.65212563 0 0)
(0.65351366 0 0)
(0.65452761 0 0)
(0.65550036 0 0)
(0.65684282 0 0)
(0.65911043 0 0)
(0.03178085 0 0)
(0.092430342 0 0)
(0.14908308 0 0)
(0.20129229 0 0)
(0.24970759 0 0)
(0.29455795 0 0)
(0.33594623 0 0)
(0.37408936 0 0)
(0.40918065 0 0)
(0.44131571 0 0)
(0.47052286 0 0)
(0.49702612 0 0)
(0.52099861 0 0)
(0.54256094 0 0)
(0.56183678 0 0)
(0.57896185 0 0)
(0.59404355 0 0)
(0.607195 0 0)
(0.61854751 0 0)
(0.62823386 0 0)
(0.63637065 0 0)
(0.64305617 0 0)
(0.6483875 0 0)
(0.65248511 0 0)
(0.65550379 0 0)
(0.65757544 0 0)
(0.65887284 0 0)
(0.6595869 0 0)
(0.65998848 0 0)
(0.66038443 0 0)
(0.66120616 0 0)
(0.66299099 0 0)
(0.031649044 0 0)
(0.091996008 0 0)
(0.14874295 0 0)
(0.20147608 0 0)
(0.24997575 0 0)
(0.29492735 0 0)
(0.33644043 0 0)
(0.37472956 0 0)
(0.40999444 0 0)
(0.44233596 0 0)
(0.47175623 0 0)
(0.49849158 0 0)
(0.52272032 0 0)
(0.54455939 0 0)
(0.56412222 0 0)
(0.58154981 0 0)
(0.5969482 0 0)
(0.61042981 0 0)
(0.62210828 0 0)
(0.632104 0 0)
(0.64054608 0 0)
(0.64754418 0 0)
(0.65317898 0 0)
(0.65754374 0 0)
(0.66078064 0 0)
(0.66300866 0 0)
(0.6643609 0 0)
(0.66498765 0 0)
(0.66508895 0 0)
(0.66491429 0 0)
(0.66478379 0 0)
(0.66510898 0 0)
(0.66645841 0 0)
(0.031531025 0 0)
(0.091602189 0 0)
(0.14805426 0 0)
(0.2010459 0 0)
(0.25020315 0 0)
(0.29524213 0 0)
(0.3368651 0 0)
(0.37528584 0 0)
(0.41070812 0 0)
(0.44323623 0 0)
(0.47285131 0 0)
(0.499804 0 0)
(0.52426955 0 0)
(0.54636154 0 0)
(0.56619192 0 0)
(0.58390995 0 0)
(0.59961383 0 0)
(0.61340367 0 0)
(0.62539996 0 0)
(0.63571408 0 0)
(0.64445567 0 0)
(0.65175234 0 0)
(0.65769929 0 0)
(0.66237423 0 0)
(0.66587391 0 0)
(0.66831181 0 0)
(0.6698196 0 0)
(0.67050555 0 0)
(0.67052442 0 0)
(0.67005188 0 0)
(0.66935204 0 0)
(0.66872319 0 0)
(0.66859708 0 0)
(0.66953142 0 0)
(0.03142766 0 0)
(0.091249874 0 0)
(0.14742885 0 0)
(0.20013448 0 0)
(0.24969741 0 0)
(0.29550836 0 0)
(0.33722444 0 0)
(0.3757639 0 0)
(0.41132683 0 0)
(0.44402654 0 0)
(0.47381816 0 0)
(0.50096737 0 0)
(0.52565273 0 0)
(0.54798518 0 0)
(0.56806489 0 0)
(0.58605114 0 0)
(0.60203918 0 0)
(0.61612994 0 0)
(0.62843537 0 0)
(0.6390558 0 0)
(0.64810184 0 0)
(0.65569431 0 0)
(0.66193929 0 0)
(0.66692256 0 0)
(0.67071764 0 0)
(0.67341439 0 0)
(0.67513936 0 0)
(0.6759888 0 0)
(0.67607226 0 0)
(0.67552421 0 0)
(0.67452833 0 0)
(0.67333261 0 0)
(0.67224776 0 0)
(0.67169128 0 0)
(0.67225128 0 0)
(0.03134017 0 0)
(0.090942853 0 0)
(0.14687098 0 0)
(0.19930645 0 0)
(0.24858516 0 0)
(0.29492926 0 0)
(0.33753071 0 0)
(0.37616793 0 0)
(0.4118585 0 0)
(0.44471405 0 0)
(0.47466463 0 0)
(0.50199638 0 0)
(0.52688468 0 0)
(0.54943649 0 0)
(0.56974566 0 0)
(0.58798623 0 0)
(0.6042471 0 0)
(0.6186151 0 0)
(0.63121107 0 0)
(0.64213814 0 0)
(0.65148618 0 0)
(0.65936574 0 0)
(0.66589705 0 0)
(0.67117764 0 0)
(0.67527679 0 0)
(0.67827442 0 0)
(0.68025617 0 0)
(0.68131953 0 0)
(0.68157129 0 0)
(0.68109612 0 0)
(0.68003306 0 0)
(0.67854542 0 0)
(0.67689616 0 0)
(0.67537829 0 0)
(0.67443102 0 0)
(0.67463536 0 0)
(0.031268956 0 0)
(0.090683097 0 0)
(0.14638433 0 0)
(0.19856993 0 0)
(0.24757986 0 0)
(0.29363725 0 0)
(0.33688968 0 0)
(0.37651289 0 0)
(0.41231052 0 0)
(0.44530486 0 0)
(0.47540019 0 0)
(0.50289641 0 0)
(0.5279712 0 0)
(0.55072978 0 0)
(0.57125192 0 0)
(0.58972693 0 0)
(0.60623923 0 0)
(0.62087385 0 0)
(0.63374958 0 0)
(0.64496011 0 0)
(0.65459986 0 0)
(0.66277178 0 0)
(0.66958133 0 0)
(0.67514323 0 0)
(0.67954032 0 0)
(0.68283844 0 0)
(0.68510942 0 0)
(0.68643079 0 0)
(0.68690738 0 0)
(0.68661182 0 0)
(0.68563047 0 0)
(0.68408546 0 0)
(0.68214729 0 0)
(0.68006721 0 0)
(0.6781535 0 0)
(0.6768346 0 0)
(0.67671724 0 0)
(0.031215141 0 0)
(0.090473306 0 0)
(0.14597401 0 0)
(0.19792712 0 0)
(0.2466806 0 0)
(0.29246754 0 0)
(0.33544553 0 0)
(0.37582477 0 0)
(0.4126924 0 0)
(0.44580727 0 0)
(0.47603205 0 0)
(0.50367873 0 0)
(0.52892547 0 0)
(0.55187296 0 0)
(0.57258959 0 0)
(0.59128436 0 0)
(0.60803741 0 0)
(0.62291709 0 0)
(0.63605065 0 0)
(0.64753916 0 0)
(0.6574614 0 0)
(0.66591048 0 0)
(0.6729972 0 0)
(0.67883122 0 0)
(0.68350586 0 0)
(0.68709608 0 0)
(0.6896629 0 0)
(0.69128112 0 0)
(0.69201694 0 0)
(0.69194838 0 0)
(0.69115668 0 0)
(0.6897048 0 0)
(0.68772006 0 0)
(0.68535636 0 0)
(0.68288139 0 0)
(0.68059099 0 0)
(0.67893499 0 0)
(0.6785129 0 0)
(0.031178691 0 0)
(0.090314856 0 0)
(0.14564265 0 0)
(0.1973872 0 0)
(0.24589971 0 0)
(0.29142066 0 0)
(0.33413304 0 0)
(0.37425172 0 0)
(0.41197456 0 0)
(0.44622852 0 0)
(0.47656574 0 0)
(0.50435055 0 0)
(0.52975372 0 0)
(0.55287713 0 0)
(0.5737739 0 0)
(0.5926713 0 0)
(0.60964535 0 0)
(0.62475705 0 0)
(0.63813864 0 0)
(0.64988159 0 0)
(0.66006811 0 0)
(0.66879333 0 0)
(0.67615233 0 0)
(0.68224686 0 0)
(0.68718468 0 0)
(0.69105256 0 0)
(0.69390884 0 0)
(0.69581941 0 0)
(0.6968449 0 0)
(0.69704157 0 0)
(0.6964912 0 0)
(0.69524382 0 0)
(0.69336375 0 0)
(0.69096537 0 0)
(0.68821003 0 0)
(0.68535827 0 0)
(0.68272423 0 0)
(0.68074825 0 0)
(0.6800496 0 0)
(0.031160501 0 0)
(0.090209253 0 0)
(0.14539362 0 0)
(0.19695134 0 0)
(0.24523973 0 0)
(0.29051003 0 0)
(0.3329609 0 0)
(0.37282079 0 0)
(0.41029718 0 0)
(0.4454885 0 0)
(0.4770165 0 0)
(0.50491724 0 0)
(0.53046429 0 0)
(0.55375029 0 0)
(0.57481134 0 0)
(0.59389729 0 0)
(0.61108189 0 0)
(0.62640716 0 0)
(0.64001464 0 0)
(0.65200433 0 0)
(0.66244566 0 0)
(0.67142392 0 0)
(0.67904344 0 0)
(0.68540053 0 0)
(0.69058802 0 0)
(0.6947107 0 0)
(0.69784301 0 0)
(0.7000393 0 0)
(0.70135517 0 0)
(0.70185212 0 0)
(0.70157201 0 0)
(0.70057284 0 0)
(0.69891179 0 0)
(0.69663174 0 0)
(0.69385402 0 0)
(0.69072655 0 0)
(0.68752969 0 0)
(0.68456809 0 0)
(0.68230192 0 0)
(0.6813423 0 0)
(0.090157372 0 0)
(0.031155717 0 0)
(0.14522842 0 0)
(0.19662563 0 0)
(0.24470978 0 0)
(0.28973963 0 0)
(0.33193665 0 0)
(0.37154245 0 0)
(0.40877467 0 0)
(0.44373099 0 0)
(0.47625475 0 0)
(0.50539693 0 0)
(0.53106682 0 0)
(0.55449921 0 0)
(0.57571442 0 0)
(0.59497443 0 0)
(0.6123524 0 0)
(0.6278778 0 0)
(0.64170204 0 0)
(0.65391767 0 0)
(0.66459386 0 0)
(0.67381923 0 0)
(0.68168963 0 0)
(0.68829297 0 0)
(0.69372668 0 0)
(0.69809264 0 0)
(0.70147703 0 0)
(0.70394498 0 0)
(0.70554442 0 0)
(0.70633178 0 0)
(0.70634939 0 0)
(0.70563154 0 0)
(0.7042359 0 0)
(0.70219245 0 0)
(0.6995461 0 0)
(0.6964081 0 0)
(0.69293825 0 0)
(0.68941074 0 0)
(0.6861515 0 0)
(0.68361072 0 0)
(0.68241288 0 0)
(0.14514881 0 0)
(0.090146309 0 0)
(0.031164983 0 0)
(0.19641058 0 0)
(0.24431116 0 0)
(0.28911947 0 0)
(0.3310719 0 0)
(0.37042375 0 0)
(0.40740926 0 0)
(0.4421333 0 0)
(0.474432 0 0)
(0.50462372 0 0)
(0.53157072 0 0)
(0.55513423 0 0)
(0.57649095 0 0)
(0.59591153 0 0)
(0.61347176 0 0)
(0.6291821 0 0)
(0.6432023 0 0)
(0.65563506 0 0)
(0.6665383 0 0)
(0.67598891 0 0)
(0.68409249 0 0)
(0.69094031 0 0)
(0.69661319 0 0)
(0.70120729 0 0)
(0.70482379 0 0)
(0.70754135 0 0)
(0.70940959 0 0)
(0.71047854 0 0)
(0.71078867 0 0)
(0.71038192 0 0)
(0.7092767 0 0)
(0.70750965 0 0)
(0.70511773 0 0)
(0.70212631 0 0)
(0.69865691 0 0)
(0.69485996 0 0)
(0.69103044 0 0)
(0.68748767 0 0)
(0.68469723 0 0)
(0.68327524 0 0)
(0.19630944 0 0)
(0.14513389 0 0)
(0.090176259 0 0)
(0.031192115 0 0)
(0.24404907 0 0)
(0.28865161 0 0)
(0.3303716 0 0)
(0.36947766 0 0)
(0.40621612 0 0)
(0.44069937 0 0)
(0.47277179 0 0)
(0.50275278 0 0)
(0.53080155 0 0)
(0.555662 0 0)
(0.57714583 0 0)
(0.59671693 0 0)
(0.61444628 0 0)
(0.63032829 0 0)
(0.64453644 0 0)
(0.65716853 0 0)
(0.6682797 0 0)
(0.67794832 0 0)
(0.68627639 0 0)
(0.69334672 0 0)
(0.69924649 0 0)
(0.704068 0 0)
(0.70790209 0 0)
(0.7108446 0 0)
(0.71296176 0 0)
(0.71429778 0 0)
(0.71489079 0 0)
(0.71478026 0 0)
(0.71398818 0 0)
(0.71252698 0 0)
(0.71043066 0 0)
(0.70771362 0 0)
(0.70440427 0 0)
(0.70061756 0 0)
(0.69652037 0 0)
(0.6924011 0 0)
(0.68860117 0 0)
(0.68557469 0 0)
(0.68394702 0 0)
(0.24392421 0 0)
(0.19629365 0 0)
(0.14518364 0 0)
(0.090259843 0 0)
(0.031237326 0 0)
(0.28834226 0 0)
(0.32984365 0 0)
(0.36870975 0 0)
(0.4052029 0 0)
(0.43944427 0 0)
(0.47128301 0 0)
(0.50104639 0 0)
(0.52890135 0 0)
(0.55489982 0 0)
(0.57769968 0 0)
(0.59740174 0 0)
(0.61528544 0 0)
(0.63132853 0 0)
(0.64570686 0 0)
(0.65852863 0 0)
(0.6698409 0 0)
(0.679709 0 0)
(0.68824299 0 0)
(0.69553181 0 0)
(0.70164928 0 0)
(0.7066813 0 0)
(0.71072593 0 0)
(0.71387754 0 0)
(0.71621424 0 0)
(0.71779413 0 0)
(0.71865412 0 0)
(0.71882959 0 0)
(0.71833962 0 0)
(0.71720739 0 0)
(0.71542942 0 0)
(0.71302201 0 0)
(0.71000708 0 0)
(0.70639503 0 0)
(0.70231674 0 0)
(0.69793169 0 0)
(0.69354852 0 0)
(0.68950407 0 0)
(0.68626167 0 0)
(0.68444136 0 0)
(0.28819194 0 0)
(0.2439036 0 0)
(0.19636324 0 0)
(0.14531888 0 0)
(0.090396635 0 0)
(0.031299684 0 0)
(0.32949051 0 0)
(0.3681279 0 0)
(0.40438031 0 0)
(0.43837795 0 0)
(0.46997822 0 0)
(0.49951721 0 0)
(0.52717166 0 0)
(0.5529867 0 0)
(0.57694489 0 0)
(0.59797555 0 0)
(0.61599896 0 0)
(0.6321908 0 0)
(0.64673081 0 0)
(0.65972759 0 0)
(0.6712236 0 0)
(0.68128252 0 0)
(0.69001609 0 0)
(0.69750362 0 0)
(0.70382291 0 0)
(0.70906295 0 0)
(0.71331008 0 0)
(0.71665479 0 0)
(0.71918993 0 0)
(0.72098759 0 0)
(0.72209 0 0)
(0.722533 0 0)
(0.72233536 0 0)
(0.72151315 0 0)
(0.72007042 0 0)
(0.71800049 0 0)
(0.71531523 0 0)
(0.71201821 0 0)
(0.70812691 0 0)
(0.70376697 0 0)
(0.6991192 0 0)
(0.6944836 0 0)
(0.69021651 0 0)
(0.68677058 0 0)
(0.68477227 0 0)
(0.32931667 0 0)
(0.2881632 0 0)
(0.24398699 0 0)
(0.19654618 0 0)
(0.14553761 0 0)
(0.090584765 0 0)
(0.031379033 0 0)
(0.36773634 0 0)
(0.40375386 0 0)
(0.4375102 0 0)
(0.46886999 0 0)
(0.49817465 0 0)
(0.52561526 0 0)
(0.55124471 0 0)
(0.5750359 0 0)
(0.59724246 0 0)
(0.61659514 0 0)
(0.63292127 0 0)
(0.64761263 0 0)
(0.66077393 0 0)
(0.67244663 0 0)
(0.68268161 0 0)
(0.69159706 0 0)
(0.69927867 0 0)
(0.70579278 0 0)
(0.71122086 0 0)
(0.71565842 0 0)
(0.71919352 0 0)
(0.72190939 0 0)
(0.72389576 0 0)
(0.72521353 0 0)
(0.7258984 0 0)
(0.72597292 0 0)
(0.72545059 0 0)
(0.72432726 0 0)
(0.72261047 0 0)
(0.72027849 0 0)
(0.71732782 0 0)
(0.71377118 0 0)
(0.70961128 0 0)
(0.70499341 0 0)
(0.7000936 0 0)
(0.69522797 0 0)
(0.69074942 0 0)
(0.68711616 0 0)
(0.68495175 0 0)
(0.36753794 0 0)
(0.32927702 0 0)
(0.28825473 0 0)
(0.24420681 0 0)
(0.19683898 0 0)
(0.14583842 0 0)
(0.09082326 0 0)
(0.031474312 0 0)
(0.40332946 0 0)
(0.43684849 0 0)
(0.46796776 0 0)
(0.49703502 0 0)
(0.52425141 0 0)
(0.54967381 0 0)
(0.57328942 0 0)
(0.59533927 0 0)
(0.6158841 0 0)
(0.63353694 0 0)
(0.64836034 0 0)
(0.66167671 0 0)
(0.67351326 0 0)
(0.68391544 0 0)
(0.69300735 0 0)
(0.7008669 0 0)
(0.70756018 0 0)
(0.71317231 0 0)
(0.71779173 0 0)
(0.72150101 0 0)
(0.72438967 0 0)
(0.72654779 0 0)
(0.72804967 0 0)
(0.72894647 0 0)
(0.72926419 0 0)
(0.72902075 0 0)
(0.72820866 0 0)
(0.72682209 0 0)
(0.72485228 0 0)
(0.72227694 0 0)
(0.71908696 0 0)
(0.71528141 0 0)
(0.71087388 0 0)
(0.70600551 0 0)
(0.70087652 0 0)
(0.69579098 0 0)
(0.69111905 0 0)
(0.68730965 0 0)
(0.68499094 0 0)
(0.40311087 0 0)
(0.36748619 0 0)
(0.32937218 0 0)
(0.2885066 0 0)
(0.24456243 0 0)
(0.1972408 0 0)
(0.14621749 0 0)
(0.091109016 0 0)
(0.031584756 0 0)
(0.43639689 0 0)
(0.46727992 0 0)
(0.4961057 0 0)
(0.52308977 0 0)
(0.54829743 0 0)
(0.57172156 0 0)
(0.593604 0 0)
(0.61400036 0 0)
(0.63285187 0 0)
(0.64899147 0 0)
(0.66244536 0 0)
(0.67443547 0 0)
(0.6849952 0 0)
(0.69424836 0 0)
(0.70228057 0 0)
(0.70914838 0 0)
(0.71492772 0 0)
(0.71971499 0 0)
(0.72359606 0 0)
(0.72664894 0 0)
(0.72896158 0 0)
(0.73062274 0 0)
(0.73169987 0 0)
(0.73222853 0 0)
(0.73223098 0 0)
(0.73170775 0 0)
(0.73064502 0 0)
(0.72901793 0 0)
(0.72682381 0 0)
(0.72402725 0 0)
(0.72060602 0 0)
(0.71657078 0 0)
(0.71192356 0 0)
(0.70682634 0 0)
(0.70147757 0 0)
(0.69619068 0 0)
(0.69133556 0 0)
(0.68736277 0 0)
(0.68490151 0 0)
(0.43616132 0 0)
(0.40304564 0 0)
(0.36757877 0 0)
(0.32964559 0 0)
(0.28891526 0 0)
(0.24504772 0 0)
(0.19774493 0 0)
(0.14667253 0 0)
(0.091440174 0 0)
(0.031709291 0 0)
(0.46681156 0 0)
(0.49539646 0 0)
(0.52214421 0 0)
(0.54712264 0 0)
(0.57034085 0 0)
(0.59203974 0 0)
(0.61228247 0 0)
(0.63100849 0 0)
(0.64833981 0 0)
(0.66308977 0 0)
(0.67522088 0 0)
(0.68592868 0 0)
(0.69533774 0 0)
(0.70353005 0 0)
(0.71055851 0 0)
(0.7165012 0 0)
(0.72145055 0 0)
(0.72548576 0 0)
(0.72869129 0 0)
(0.73115386 0 0)
(0.73295659 0 0)
(0.73418478 0 0)
(0.73489309 0 0)
(0.73510777 0 0)
(0.73483682 0 0)
(0.73407443 0 0)
(0.73278641 0 0)
(0.73094816 0 0)
(0.72854376 0 0)
(0.72554036 0 0)
(0.7219088 0 0)
(0.71765187 0 0)
(0.71278347 0 0)
(0.70746407 0 0)
(0.70191451 0 0)
(0.69643569 0 0)
(0.69141155 0 0)
(0.68728648 0 0)
(0.68469204 0 0)
(0.46656661 0 0)
(0.4360851 0 0)
(0.40313621 0 0)
(0.367867 0 0)
(0.33009378 0 0)
(0.28947673 0 0)
(0.24566136 0 0)
(0.19835003 0 0)
(0.14719787 0 0)
(0.091813034 0 0)
(0.031846879 0 0)
(0.4949129 0 0)
(0.52142115 0 0)
(0.54616648 0 0)
(0.56916757 0 0)
(0.59066668 0 0)
(0.61073163 0 0)
(0.62932034 0 0)
(0.64654693 0 0)
(0.66247989 0 0)
(0.67587822 0 0)
(0.68672252 0 0)
(0.69627874 0 0)
(0.7046244 0 0)
(0.71180962 0 0)
(0.717903 0 0)
(0.72300146 0 0)
(0.72718896 0 0)
(0.73053994 0 0)
(0.73313775 0 0)
(0.73507253 0 0)
(0.73643105 0 0)
(0.73728419 0 0)
(0.73767596 0 0)
(0.73762019 0 0)
(0.73711868 0 0)
(0.73614582 0 0)
(0.73466283 0 0)
(0.73262848 0 0)
(0.73003597 0 0)
(0.72684199 0 0)
(0.72300547 0 0)
(0.71854354 0 0)
(0.71346142 0 0)
(0.70793816 0 0)
(0.7021959 0 0)
(0.69654019 0 0)
(0.69135664 0 0)
(0.68708977 0 0)
(0.68437306 0 0)
(0.49465865 0 0)
(0.46648908 0 0)
(0.43617212 0 0)
(0.40343084 0 0)
(0.36834321 0 0)
(0.33071289 0 0)
(0.29018606 0 0)
(0.24639276 0 0)
(0.19904619 0 0)
(0.14778937 0 0)
(0.092225806 0 0)
(0.031955466 0 0)
(0.52092829 0 0)
(0.54543354 0 0)
(0.56820776 0 0)
(0.58949528 0 0)
(0.60937049 0 0)
(0.62779945 0 0)
(0.64490102 0 0)
(0.66074097 0 0)
(0.6753102 0 0)
(0.68739127 0 0)
(0.69708001 0 0)
(0.70557172 0 0)
(0.71290365 0 0)
(0.71914319 0 0)
(0.7243879 0 0)
(0.72871371 0 0)
(0.73219846 0 0)
(0.73492887 0 0)
(0.7369876 0 0)
(0.73846036 0 0)
(0.73943264 0 0)
(0.73996719 0 0)
(0.74008959 0 0)
(0.73980823 0 0)
(0.73910749 0 0)
(0.73795562 0 0)
(0.73629488 0 0)
(0.73408685 0 0)
(0.73131496 0 0)
(0.7279411 0 0)
(0.72391645 0 0)
(0.71925657 0 0)
(0.71397632 0 0)
(0.70825522 0 0)
(0.7023356 0 0)
(0.69651198 0 0)
(0.69118061 0 0)
(0.6867827 0 0)
(0.68393029 0 0)
(0.52066952 0 0)
(0.49457723 0 0)
(0.46657792 0 0)
(0.43647392 0 0)
(0.40393081 0 0)
(0.36900748 0 0)
(0.33149608 0 0)
(0.29103674 0 0)
(0.2472397 0 0)
(0.19983035 0 0)
(0.14844349 0 0)
(0.092442028 0 0)
(0.031924303 0 0)
(0.54493369 0 0)
(0.56747575 0 0)
(0.58854062 0 0)
(0.608208 0 0)
(0.62645939 0 0)
(0.64341783 0 0)
(0.65914733 0 0)
(0.67363553 0 0)
(0.6868672 0 0)
(0.69775611 0 0)
(0.70638063 0 0)
(0.71385297 0 0)
(0.72023145 0 0)
(0.72561163 0 0)
(0.73007439 0 0)
(0.73368933 0 0)
(0.73653794 0 0)
(0.73871079 0 0)
(0.74029231 0 0)
(0.74136395 0 0)
(0.74200881 0 0)
(0.74227405 0 0)
(0.74217366 0 0)
(0.74170111 0 0)
(0.74083455 0 0)
(0.73952348 0 0)
(0.7377075 0 0)
(0.73533477 0 0)
(0.73240061 0 0)
(0.7288586 0 0)
(0.72465002 0 0)
(0.71980632 0 0)
(0.71433563 0 0)
(0.70843093 0 0)
(0.70234177 0 0)
(0.69636242 0 0)
(0.69089276 0 0)
(0.68632903 0 0)
(0.68335445 0 0)
(0.54466979 0 0)
(0.52058485 0 0)
(0.49466613 0 0)
(0.46689186 0 0)
(0.43699119 0 0)
(0.40462615 0 0)
(0.3698479 0 0)
(0.33243701 0 0)
(0.29201963 0 0)
(0.24818969 0 0)
(0.20069561 0 0)
(0.14874927 0 0)
(0.092345627 0 0)
(0.03188951 0 0)
(0.56697431 0 0)
(0.58780921 0 0)
(0.60726031 0 0)
(0.6253174 0 0)
(0.642108 0 0)
(0.6577052 0 0)
(0.67210007 0 0)
(0.6852726 0 0)
(0.69728066 0 0)
(0.7070597 0 0)
(0.7146639 0 0)
(0.72117569 0 0)
(0.726689 0 0)
(0.73127915 0 0)
(0.73501447 0 0)
(0.73797976 0 0)
(0.74026085 0 0)
(0.74193975 0 0)
(0.74310576 0 0)
(0.74384499 0 0)
(0.74421445 0 0)
(0.74425144 0 0)
(0.74396313 0 0)
(0.74333467 0 0)
(0.74232395 0 0)
(0.74087693 0 0)
(0.73891621 0 0)
(0.73639532 0 0)
(0.73330347 0 0)
(0.7296018 0 0)
(0.7252228 0 0)
(0.72020288 0 0)
(0.71455306 0 0)
(0.70847169 0 0)
(0.70222487 0 0)
(0.69609938 0 0)
(0.6904236 0 0)
(0.68572965 0 0)
(0.68265591 0 0)
(0.56671106 0 0)
(0.54458222 0 0)
(0.52067599 0 0)
(0.49498796 0 0)
(0.46742536 0 0)
(0.43771469 0 0)
(0.40551602 0 0)
(0.37086207 0 0)
(0.33352556 0 0)
(0.29312678 0 0)
(0.24924232 0 0)
(0.20107811 0 0)
(0.14858447 0 0)
(0.09223633 0 0)
(0.031848971 0 0)
(0.58731032 0 0)
(0.60653379 0 0)
(0.6243834 0 0)
(0.64099195 0 0)
(0.6564342 0 0)
(0.67070714 0 0)
(0.68380358 0 0)
(0.69577303 0 0)
(0.70663762 0 0)
(0.71534361 0 0)
(0.72198149 0 0)
(0.72762254 0 0)
(0.73233781 0 0)
(0.73619241 0 0)
(0.73926427 0 0)
(0.74164461 0 0)
(0.7434191 0 0)
(0.74466995 0 0)
(0.74548318 0 0)
(0.74593233 0 0)
(0.74607322 0 0)
(0.74592822 0 0)
(0.74549167 0 0)
(0.74473171 0 0)
(0.74360167 0 0)
(0.74203097 0 0)
(0.73994163 0 0)
(0.73727718 0 0)
(0.73404051 0 0)
(0.7301875 0 0)
(0.72564227 0 0)
(0.72045657 0 0)
(0.7146361 0 0)
(0.70838912 0 0)
(0.70199324 0 0)
(0.69561287 0 0)
(0.68978196 0 0)
(0.68501076 0 0)
(0.68183762 0 0)
(0.58704696 0 0)
(0.56662366 0 0)
(0.54467219 0 0)
(0.52100038 0 0)
(0.49553353 0 0)
(0.46817561 0 0)
(0.43864226 0 0)
(0.40658587 0 0)
(0.37203487 0 0)
(0.33475061 0 0)
(0.29434961 0 0)
(0.24969106 0 0)
(0.20084828 0 0)
(0.14839674 0 0)
(0.092110362 0 0)
(0.031802125 0 0)
(0.60603742 0 0)
(0.62366982 0 0)
(0.6400774 0 0)
(0.6553474 0 0)
(0.66947958 0 0)
(0.682472 0 0)
(0.69437879 0 0)
(0.70521843 0 0)
(0.71497482 0 0)
(0.72266043 0 0)
(0.72842045 0 0)
(0.73325672 0 0)
(0.73722466 0 0)
(0.74040266 0 0)
(0.7428799 0 0)
(0.74473809 0 0)
(0.74606469 0 0)
(0.74694888 0 0)
(0.74746997 0 0)
(0.74768919 0 0)
(0.74764109 0 0)
(0.7473465 0 0)
(0.7467869 0 0)
(0.74592184 0 0)
(0.74468572 0 0)
(0.74300773 0 0)
(0.74079509 0 0)
(0.73799912 0 0)
(0.73462017 0 0)
(0.73062196 0 0)
(0.72591988 0 0)
(0.72057663 0 0)
(0.71459366 0 0)
(0.70819032 0 0)
(0.70149122 0 0)
(0.6949181 0 0)
(0.68902665 0 0)
(0.68417417 0 0)
(0.68089528 0 0)
(0.60577534 0 0)
(0.58695865 0 0)
(0.56671218 0 0)
(0.54499837 0 0)
(0.52155728 0 0)
(0.49630324 0 0)
(0.46913228 0 0)
(0.43975987 0 0)
(0.40783028 0 0)
(0.37335854 0 0)
(0.33610818 0 0)
(0.29486475 0 0)
(0.24940591 0 0)
(0.2005871 0 0)
(0.14818052 0 0)
(0.091965474 0 0)
(0.031747778 0 0)
(0.62318128 0 0)
(0.63937777 0 0)
(0.65445942 0 0)
(0.66842809 0 0)
(0.68129379 0 0)
(0.69311427 0 0)
(0.70390647 0 0)
(0.71365139 0 0)
(0.72234451 0 0)
(0.72909338 0 0)
(0.73404343 0 0)
(0.73812291 0 0)
(0.74140267 0 0)
(0.74397053 0 0)
(0.74591295 0 0)
(0.74731217 0 0)
(0.74825632 0 0)
(0.74883167 0 0)
(0.74910798 0 0)
(0.7491308 0 0)
(0.74893724 0 0)
(0.74852979 0 0)
(0.747877 0 0)
(0.74692208 0 0)
(0.74559735 0 0)
(0.7438183 0 0)
(0.74149344 0 0)
(0.73856775 0 0)
(0.73505588 0 0)
(0.73091714 0 0)
(0.72606332 0 0)
(0.72056985 0 0)
(0.71443485 0 0)
(0.7076769 0 0)
(0.70074173 0 0)
(0.69411791 0 0)
(0.68815864 0 0)
(0.68321587 0 0)
(0.67983264 0 0)
(0.62292449 0 0)
(0.6056858 0 0)
(0.58704571 0 0)
(0.56703974 0 0)
(0.54556 0 0)
(0.52233647 0 0)
(0.49728254 0 0)
(0.4702892 0 0)
(0.44106024 0 0)
(0.40923316 0 0)
(0.37482556 0 0)
(0.33666306 0 0)
(0.29453171 0 0)
(0.24907989 0 0)
(0.20028603 0 0)
(0.14793377 0 0)
(0.091799965 0 0)
(0.031685366 0 0)
(0.6388981 0 0)
(0.65377843 0 0)
(0.66756896 0 0)
(0.68028607 0 0)
(0.69199166 0 0)
(0.70271069 0 0)
(0.71242628 0 0)
(0.7211275 0 0)
(0.72883204 0 0)
(0.73470418 0 0)
(0.73889157 0 0)
(0.74227201 0 0)
(0.74493094 0 0)
(0.74695007 0 0)
(0.74841367 0 0)
(0.74941393 0 0)
(0.75003638 0 0)
(0.75035479 0 0)
(0.75043471 0 0)
(0.75031594 0 0)
(0.75000858 0 0)
(0.74951281 0 0)
(0.74878278 0 0)
(0.74775645 0 0)
(0.7463494 0 0)
(0.74448019 0 0)
(0.74204483 0 0)
(0.73899758 0 0)
(0.73535346 0 0)
(0.73107853 0 0)
(0.72608045 0 0)
(0.7204454 0 0)
(0.71391966 0 0)
(0.7068766 0 0)
(0.69989461 0 0)
(0.69321135 0 0)
(0.68717399 0 0)
(0.68213874 0 0)
(0.67864458 0 0)
(0.63864475 0 0)
(0.62283769 0 0)
(0.60577111 0 0)
(0.58736894 0 0)
(0.56759878 0 0)
(0.54634589 0 0)
(0.52333457 0 0)
(0.49846857 0 0)
(0.47163185 0 0)
(0.44252656 0 0)
(0.4107902 0 0)
(0.37541069 0 0)
(0.33627907 0 0)
(0.29415029 0 0)
(0.2487064 0 0)
(0.19994416 0 0)
(0.14765293 0 0)
(0.091611001 0 0)
(0.031613557 0 0)
(0.65331309 0 0)
(0.66690979 0 0)
(0.67946031 0 0)
(0.69103145 0 0)
(0.70165024 0 0)
(0.71130481 0 0)
(0.71999325 0 0)
(0.72772558 0 0)
(0.7344993 0 0)
(0.73953618 0 0)
(0.74301519 0 0)
(0.74576338 0 0)
(0.74786084 0 0)
(0.74939 0 0)
(0.75043973 0 0)
(0.75109962 0 0)
(0.75145037 0 0)
(0.75156458 0 0)
(0.75149299 0 0)
(0.75125672 0 0)
(0.75087092 0 0)
(0.75031307 0 0)
(0.74952715 0 0)
(0.74843696 0 0)
(0.74695909 0 0)
(0.74500149 0 0)
(0.74246281 0 0)
(0.73929396 0 0)
(0.73552307 0 0)
(0.73111593 0 0)
(0.72598059 0 0)
(0.71993136 0 0)
(0.71308262 0 0)
(0.70598732 0 0)
(0.69894908 0 0)
(0.69219587 0 0)
(0.68607552 0 0)
(0.68093843 0 0)
(0.67733549 0 0)
(0.65306734 0 0)
(0.63855791 0 0)
(0.62292101 0 0)
(0.60609003 0 0)
(0.58792601 0 0)
(0.56838777 0 0)
(0.54735374 0 0)