/*--------------------------------*- C++ -*----------------------------------*\
| =========                 |                                                 |
| \\      /  F ield         | OpenFOAM: The Open Source CFD Toolbox           |
|  \\    /   O peration     | Version:  v2012                                 |
|   \\  /    A nd           | Website:  www.openfoam.com                      |
|    \\/     M anipulation  |                                                 |
\*---------------------------------------------------------------------------*/
FoamFile
{
    version     2.0;
    format      ascii;
    class       volScalarField;
    location    "6.14070038";
    object      p;
}
// * * * * * * * * * * * * * * * * * * * * * * * * * * * * * * * * * * * * * //

dimensions      [0 2 -2 0 0 0 0];


internalField   nonuniform List<scalar> 
9200
(
-0.0010080874
-0.00097960777
-0.0026044298
-0.00092578466
-0.0025339337
-0.004545808
-0.00086672494
-0.0024020437
-0.0044231042
-0.0064345452
-0.00077950153
-0.0022468576
-0.0041996284
-0.0062656302
-0.0083785514
-0.00069197666
-0.0020316978
-0.0039246023
-0.0059582917
-0.0081672867
-0.010366217
-0.00058950095
-0.0018062406
-0.0035564424
-0.0055729902
-0.0077798264
-0.01011826
-0.012414718
-0.00048621089
-0.001549154
-0.003160362
-0.0050630099
-0.0072893129
-0.0096568556
-0.012136847
-0.014528026
-0.00037859151
-0.0012853889
-0.0027141998
-0.0045067655
-0.0066414009
-0.0090699737
-0.011608978
-0.014228331
-0.016707559
-0.00027177509
-0.0010119067
-0.00225162
-0.0038815445
-0.0059277091
-0.0082921193
-0.010936284
-0.013643497
-0.016395861
-0.018950323
-0.00016625251
-0.00073889911
-0.0017725631
-0.0032288088
-0.0051238502
-0.0074278798
-0.010038215
-0.012898368
-0.01576589
-0.018637995
-0.021249158
-6.4141475e-05
-0.00046905528
-0.0012925867
-0.0025513007
-0.0042790091
-0.0064497353
-0.0090318328
-0.011892978
-0.014964958
-0.017977209
-0.020949389
-0.023593725
3.3484529e-05
-0.00020727657
-0.00081776276
-0.0018696926
-0.0033985207
-0.0054141751
-0.0078849121
-0.010756205
-0.013868832
-0.017140683
-0.020274835
-0.023321079
-0.02597018
0.00012566193
4.347845e-05
-0.00035629657
-0.0011934341
-0.0025083045
-0.0043288419
-0.0066605774
-0.0094490672
-0.012617245
-0.01597482
-0.01942677
-0.022652391
-0.025740701
-0.028362526
0.00021191525
0.00028071871
8.6575155e-05
-0.00053416957
-0.0016214031
-0.0032248652
-0.005368223
-0.0080404449
-0.011162353
-0.014628891
-0.018216985
-0.021820659
-0.025100091
-0.0281931
-0.030752187
0.00029193907
0.0005030134
0.00050650843
0.00010027154
-0.00075328874
-0.0021191209
-0.0040442199
-0.0065408189
-0.0095774109
-0.013043643
-0.016802632
-0.020597812
-0.024316248
-0.027604932
-0.03066051
-0.033119467
0.00036563138
0.00070948283
0.00090069808
0.00070340261
8.5178233e-05
-0.0010313158
-0.0027094863
-0.0049915683
-0.0078731095
-0.011295126
-0.015110314
-0.019146864
-0.023116264
-0.026903866
-0.030150996
-0.033123309
-0.035443296
0.00043310821
0.00089978124
0.0012674271
0.0012708604
0.00088492285
2.4163546e-05
-0.0013884024
-0.0034177756
-0.0060952791
-0.0093928998
-0.013216799
-0.01737744
-0.021666891
-0.025767613
-0.029570414
-0.032719816
-0.035560339
-0.037702649
0.00049468626
0.0010739814
0.0016059614
0.0017998623
0.0016396032
0.0010350998
-9.9461414e-05
-0.0018489141
-0.0042731865
-0.0073864063
-0.011128925
-0.01536461
-0.019857689
-0.02436431
-0.028543225
-0.032299483
-0.035290864
-0.037949728
-0.039876308
0.00055066339
0.0012325218
0.0019163451
0.0022890559
0.0023449994
0.0019926399
0.0011413206
-0.00030823482
-0.0024417349
-0.005308932
-0.0088985358
-0.01311028
-0.01775918
-0.022560513
-0.027236637
-0.031430433
-0.035071732
-0.037842066
-0.040269204
-0.041944203
0.00060130345
0.0013760681
0.0021992256
0.002738249
0.0029988261
0.0028906213
0.0023219012
0.0011837043
-0.00062959521
-0.0032009243
-0.006562211
-0.01066709
-0.015365976
-0.02041899
-0.025491352
-0.030276744
-0.034412679
-0.037865224
-0.040350302
-0.042496959
-0.043887224
0.00064696374
0.0015054112
0.0024557003
0.0031481465
0.0036004081
0.0037253817
0.0034335424
0.0026108373
0.0011373069
-0.0010970767
-0.0041659654
-0.0080738775
-0.012729153
-0.017924101
-0.023358992
-0.028650764
-0.033472728
-0.0374696
-0.040655893
-0.042792062
-0.044611983
-0.045688303
0.00068803542
0.0016214677
0.0026871593
0.0035201609
0.0041503241
0.004495397
0.0044706139
0.0039610824
0.0028379236
0.00097045224
-0.001750925
-0.0053817481
-0.0098883134
-0.015122623
-0.02081043
-0.026589534
-0.032033886
-0.036807656
-0.040577367
-0.043418138
-0.045144013
-0.046594792
-0.047332151
0.00072492001
0.001725195
0.0028952236
0.003856161
0.0046501738
0.0052008151
0.005430265
0.0052260768
0.004455881
0.0029745981
0.00064371582
-0.0026384181
-0.0068985801
-0.012052709
-0.017884807
-0.02404696
-0.030115333
-0.035629781
-0.040259654
-0.043709148
-0.046125479
-0.047383641
-0.048427649
-0.048806123
0.0007579614
0.0018176207
0.0030815828
0.0041583896
0.0051022102
0.0058432178
0.0063117833
0.0064010356
0.0059791343
0.0048935755
0.0029837723
0.00010921933
-0.0038140983
-0.0087719114
-0.014615946
-0.021050748
-0.02765046
-0.03393434
-0.039421127
-0.043802139
-0.046835755
-0.048751243
-0.049489716
-0.050095152
-0.050099895
0.00078752097
0.0018997056
0.0032480375
0.0044291993
0.0055092629
0.0064250722
0.007116449
0.0074838104
0.0074001673
0.0067105193
0.0052408259
0.0028187541
-0.00068981827
-0.0053399443
-0.011061458
-0.017626763
-0.024651376
-0.031630954
-0.038037029
-0.043384078
-0.047404317
-0.049926327
-0.051269207
-0.0514429
-0.05158433
-0.051205955
0.00081382098
0.0019724975
0.0033962652
0.0046711425
0.005874322
0.0069497289
0.0078466803
0.0084750093
0.0087146331
0.0084141782
0.0073918304
0.0054538246
0.0024226842
-0.0018197383
-0.0072849568
-0.013829536
-0.021131876
-0.028711698
-0.035990303
-0.042405566
-0.047488437
-0.051031797
-0.052949129
-0.053654346
-0.053226081
-0.052884966
-0.052119246
0.0008371815
0.0020368378
0.0035280597
0.0048865897
0.006200725
0.0074207462
0.008506248
0.0093766281
0.0099219536
0.0099970034
0.009420594
0.0079836539
0.0054777408
0.0017273383
-0.0033567478
-0.0097240998
-0.017139186
-0.025173628
-0.03324879
-0.040720764
-0.047013598
-0.051698062
-0.054647465
-0.055872472
-0.055883405
-0.054824791
-0.053989546
-0.05283756
0.00085761563
0.0020938102
0.0036448637
0.0050781223
0.0064915425
0.0078422804
0.0090991446
0.010192704
0.011023172
0.011456535
0.011315086
0.010385654
0.0084352211
0.0052450554
0.00065197461
-0.005386368
-0.012736362
-0.021051891
-0.02978782
-0.038269504
-0.045804059
-0.05182614
-0.055971658
-0.058212533
-0.058665539
-0.057935516
-0.056227342
-0.054893403
-0.053361128
0.00087536773
0.0021439794
0.0037484549
0.0052477997
0.0067502169
0.008218088
0.0096303796
0.010927448
0.012022365
0.012792113
0.013070067
0.012641754
0.01126439
0.0086823079
0.0046734594
-0.00089687088
-0.0080021827
-0.016402818
-0.025624865
-0.035000475
-0.043768606
-0.051210536
-0.056800151
-0.060263841
-0.061687607
-0.061299257
-0.059792562
-0.057425045
-0.055594552
-0.053692254
0.00088816329
0.0021886506
0.0038397762
0.0053982063
0.0069794296
0.0085525681
0.010104346
0.011586739
0.01292365
0.014007511
0.014682148
0.014742753
0.013939343
0.011998253
0.008644077
0.0036647396
-0.0030248997
-0.01130426
-0.020803992
-0.030907455
-0.040824846
-0.049727155
-0.056899249
-0.061885329
-0.064526386
-0.065033852
-0.06374698
-0.061439604
-0.058412145
-0.056093545
-0.053834664
0.00089932142
0.0022234751
0.0039209149
0.0055306857
0.0071826786
0.0088490235
0.010526523
0.012175503
0.013733777
0.015106262
0.016154315
0.016681219
0.016445354
0.015157097
0.012510864
0.0082210714
0.0021043849
-0.0058491453
-0.01539677
-0.02601572
-0.036937006
-0.047259105
-0.056111581
-0.062818194
-0.067025492
-0.068709679
-0.068214068
-0.065985222
-0.062865008
-0.059185847
-0.056393135
-0.053794547
0.00090958588
0.0022519402
0.0039831274
0.0056483874
0.0073616747
0.009112015
0.010900821
0.012700443
0.014458041
0.016095945
0.017488784
0.018458647
0.018769326
0.018136642
0.0162258
0.012705059
0.0072939253
-0.00013846133
-0.0094962455
-0.020384052
-0.032104579
-0.043735434
-0.054283726
-0.062873197
-0.068905541
-0.072160104
-0.072764208
-0.071193814
-0.067994066
-0.064060626
-0.059746146
-0.056498267
-0.053581478
0.00091910425
0.0022782313
0.0040316888
0.005737939
0.0075208108
0.0093435681
0.011233054
0.013166025
0.015104539
0.016981938
0.018693845
0.020074947
0.020910243
0.020916123
0.019756904
0.017054039
0.012460842
0.0057220599
-0.0032102989
-0.014099458
-0.026365599
-0.039122821
-0.051305314
-0.061860128
-0.069948591
-0.07509105
-0.077226238
-0.076642167
-0.073942205
-0.069757598
-0.065021711
-0.06009569
-0.056415973
-0.053205972
0.00092776558
0.0023027766
0.0040765203
0.0058064944
0.0076399712
0.0095495754
0.011525511
0.013579569
0.015678201
0.017773907
0.019774476
0.021538928
0.022864394
0.023490612
0.023073243
0.021223529
0.017525549
0.011632643
0.0033432318
-0.0072714341
-0.019793395
-0.033430301
-0.04710357
-0.059626531
-0.069929623
-0.077260907
-0.081298299
-0.082160599
-0.080298761
-0.076432733
-0.071264006
-0.065746862
-0.060239367
-0.056154907
-0.052673581
0.00093567956
0.0023253673
0.0041182671
0.0058698894
0.0077288007
0.0097011648
0.01178593
0.013943562
0.016188188
0.018477066
0.020742098
0.022854452
0.024640757
0.02585103
0.026164073
0.025169555
0.02242809
0.017494792
0.010047675
-2.6399404e-05
-0.012491857
-0.026708111
-0.041649986
-0.056055072
-0.068653727
-0.078413961
-0.084721698
-0.087447137
-0.08690155
-0.08369356
-0.078643704
-0.072505707
-0.066237744
-0.06018399
-0.055724303
-0.05198663
0.00094284079
0.0023461761
0.004156639
0.0059290729
0.0078111559
0.0098110986
0.011973948
0.014267999
0.016637053
0.019102809
0.021601835
0.024034943
0.026241022
0.028005976
0.029012623
0.028873061
0.027108308
0.02323004
0.016784372
0.0075038633
-0.0045899438
-0.019045454
-0.034961737
-0.051071857
-0.065955844
-0.078315087
-0.087216511
-0.092233936
-0.093456433
-0.091391097
-0.086791431
-0.080558633
-0.073479175
-0.066498795
-0.059938163
-0.055133787
-0.051161824
0.00094929498
0.0023651752
0.0041919268
0.0059835654
0.0078883324
0.0099131998
0.012106014
0.014497763
0.017037596
0.019653475
0.022367792
0.025084782
0.027680938
0.029953422
0.031626113
0.032306749
0.031535821
0.028758476
0.02345361
0.015180713
0.0037694496
-0.010565004
-0.027102253
-0.044650803
-0.061710757
-0.076751477
-0.088512517
-0.096225187
-0.099695133
-0.099246873
-0.095576579
-0.089563411
-0.082166256
-0.074184736
-0.066536914
-0.059512263
-0.054394582
-0.050242788
0.00095507436
0.0023824214
0.0042241126
0.0060337568
0.0079595489
0.010009194
0.012228982
0.014653731
0.017315877
0.02014547
0.023041585
0.02602145
0.028963085
0.031711865
0.033996635
0.035474899
0.035669499
0.034034756
0.029952028
0.022881329
0.012430127
-0.0014141268
-0.018176588
-0.036817631
-0.055840106
-0.073543008
-0.088352224
-0.099123477
-0.10531592
-0.10700127
-0.10474358
-0.099412148
-0.091987061
-0.083460473
-0.074626213
-0.066361197
-0.058917867
-0.053520398
-0.049260187
0.0009602368
0.002397907
0.0042533154
0.006079585
0.008025277
0.010097998
0.012344961
0.014799318
0.017498272
0.02048094
0.023644346
0.026844897
0.03010938
0.033280401
0.036145674
0.038360962
0.039508686
0.03899969
0.036215174
0.030475826
0.021245722
0.0082388422
-0.0083268988
-0.027646403
-0.048319423
-0.068552244
-0.086500989
-0.10063337
-0.11000443
-0.11435738
-0.11405031
-0.10987859
-0.10285976
-0.094046672
-0.08444006
-0.074810573
-0.065982571
-0.05816677
-0.052524938
-0.04816151
0.0024116377
0.00096468482
0.0042795708
0.0061211875
0.0080853809
0.010180155
0.012452484
0.014937021
0.01766903
0.02069312
0.024048042
0.02758252
0.031116524
0.034687026
0.038066435
0.040989274
0.04302498
0.043644861
0.042160671
0.037876368
0.030058166
0.018225825
0.0022754868
-0.017260675
-0.039177576
-0.061693975
-0.082758881
-0.10047016
-0.11343735
-0.12099596
-0.12321581
-0.1207462
-0.11459264
-0.10588982
-0.095733115
-0.08510831
-0.074747536
-0.065413319
-0.057270555
-0.051418008
-0.046937375
0.0043029526
0.002423203
0.00096839775
0.0061585795
0.0081400154
0.010255393
0.012552218
0.015064855
0.017831005
0.02089213
0.024294312
0.028068187
0.032020691
0.035922657
0.039795048
0.043344037
0.046245292
0.047925648
0.047768506
0.044971912
0.038752215
0.028361234
0.013445897
-0.0058220152
-0.028503574
-0.052937504
-0.076972102
-0.098372732
-0.11528886
-0.12657873
-0.13192883
-0.13176043
-0.12700171
-0.11883668
-0.10848137
-0.097043592
-0.085472649
-0.074449079
-0.064666577
-0.056241254
-0.050206939
-0.045620061
0.0061918383
0.0043227238
0.0024326181
0.00097145434
0.0081891539
0.010323891
0.012643648
0.015183707
0.017981433
0.021081719
0.024525088
0.028354479
0.032606859
0.037036317
0.0413129
0.04547153
0.049141339
0.051870644
0.05297199
0.051726326
0.04718277
0.038499364
0.024975414
0.0064777337
-0.016432441
-0.042319997
-0.069038555
-0.094115506
-0.11524317
-0.13075182
-0.13985104
-0.14263111
-0.13986828
-0.13274127
-0.12257259
-0.11062209
-0.097981273
-0.085544012
-0.073928804
-0.063755944
-0.055091956
-0.048903098
-0.0442077
0.0082328773
0.0062198403
0.0043388844
0.002440311
0.00097380357
0.010385554
0.012727019
0.015292691
0.018121559
0.021257998
0.024746055
0.028622388
0.032941886
0.037749923
0.042687599
0.047338568
0.051771782
0.055434523
0.057799436
0.058043893
0.05529245
0.04845649
0.036686907
0.019415406
-0.0031491057
-0.029930207
-0.058926393
-0.087517241
-0.11300604
-0.13315694
-0.14661691
-0.15303558
-0.15293528
-0.14742852
-0.13790259
-0.12577368
-0.11230804
-0.098554595
-0.085335976
-0.073201365
-0.062695385
-0.053836697
-0.047527411
-0.042721832
0.010440451
0.0082695607
0.0062425945
0.0043521769
0.002446295
0.00097539989
0.012802136
0.015392143
0.018250081
0.021422571
0.024951907
0.028880049
0.033253392
0.038150525
0.043560692
0.049038257
0.054083412
0.058690494
0.062181929
0.063950186
0.062948191
0.058148572
0.048355774
0.032784844
0.011124057
-0.015927489
-0.046657552
-0.078463142
-0.10831568
-0.13344075
-0.15184253
-0.16261507
-0.16591108
-0.16268479
-0.15434569
-0.14243808
-0.12842474
-0.11354292
-0.098776093
-0.084863926
-0.072282415
-0.061499706
-0.052487859
-0.046096333
-0.041194007
0.012869094
0.010486322
0.0082992093
0.0062612223
0.0043625695
0.0024505746
0.00097618001
0.015481702
0.018367289
0.021573894
0.025144686
0.029120113
0.033554194
0.03851884
0.044049052
0.050108656
0.056202901
0.061559293
0.066208513
0.069344464
0.070169805
0.067395597
0.059866336
0.04632278
0.026158842
-0.00051222419
-0.032343431
-0.066889633
-0.10096553
-0.13126725
-0.15513224
-0.17098069
-0.17846264
-0.17826337
-0.17173978
-0.16054254
-0.14631541
-0.13052134
-0.11433656
-0.098661147
-0.084145087
-0.071189224
-0.060184737
-0.051054242
-0.044609113
-0.0396422
0.015561655
0.012924857
0.010523167
0.0083234283
0.0062756911
0.0043700327
0.0024531176
0.0009761097
0.018472629
0.021711886
0.025322501
0.029346134
0.033833262
0.038875441
0.044493359
0.050703753
0.057539816
0.064209133
0.06976531
0.074333506
0.076813606
0.076208018
0.070981955
0.059878251
0.041662247
0.016078143
-0.016135889
-0.052835484
-0.09079345
-0.12633854
-0.15609055
-0.17771683
-0.1902185
-0.19387475
-0.18989434
-0.17998195
-0.16596172
-0.14951716
-0.13206801
-0.11470327
-0.098228244
-0.083199409
-0.069940485
-0.058765512
-0.049546484
-0.043067148
-0.038069379
0.018566718
0.015628147
0.012969429
0.010553208
0.0083421854
0.0062859848
0.004374482
0.0024539353
0.00097509829
0.021836134
0.025485141
0.029554511
0.034097922
0.039201742
0.044929104
0.051230135
0.0582956
0.065897919
0.073068515
0.078757689
0.083007095
0.084384085
0.081699901
0.073150435
0.057446968
0.033538465
0.0017378691
-0.036375206
-0.077742922
-0.11838882
-0.15433873
-0.18239133
-0.20076938
-0.20918703
-0.20857865
-0.20063012
-0.18731818
-0.17056592
-0.15203858
-0.13307623
-0.11466212
-0.09750064
-0.082049515
-0.068552568
-0.057251796
-0.047977785
-0.041486058
-0.036485259
0.021946573
0.01864491
0.015681195
0.013005756
0.010576427
0.0083554872
0.0062919979
0.004375907
0.0024529166
0.00097314797
0.025632905
0.029745814
0.034341684
0.039508542
0.045327328
0.051744921
0.058947013
0.066892639
0.075194839
0.082890485
0.088528431
0.092076281
0.091741682
0.08611967
0.073145539
0.051648316
0.020988018
-0.017699783
-0.061783067
-0.10725003
-0.149514
-0.18456626
-0.20967529
-0.22382464
-0.22752011
-0.22232662
-0.21032763
-0.19368179
-0.17433549
-0.15388509
-0.13356472
-0.11423972
-0.096505598
-0.080715884
-0.067035001
-0.055646298
-0.046361815
-0.039879912
-0.034894601
0.025762675
0.022037603
0.018707122
0.015724464
0.013033814
0.010592865
0.0083632052
0.0062937489
0.004374111
0.0024501483
0.00097015944
0.029918373
0.03457065
0.039783464
0.045705884
0.052203068
0.059576767
0.067751422
0.076482398
0.08559214
0.093723021
0.098975429
0.10129112
0.098409655
0.088718293
0.06997986
0.041370318
0.0029535125
-0.043038553
-0.092764254
-0.14133147
-0.18380131
-0.21647103
-0.23737228
-0.24640249
-0.24487375
-0.23490708
-0.21887791
-0.19903032
-0.17726549
-0.155073
-0.13356304
-0.11346889
-0.095267194
-0.079208762
-0.065398193
-0.053970873
-0.044720071
-0.038260889
-0.033297721
0.030066714
0.025868153
0.022108648
0.01875793
0.015757762
0.013053678
0.010602371
0.0083654157
0.0062909743
0.0043692119
0.0024454435
0.00096507856
0.034778951
0.040039676
0.046046982
0.052636348
0.060116072
0.068599136
0.077581247
0.087273362
0.097193773
0.1055208
0.10991634
0.11024441
0.10367015
0.08847194
0.062415794
0.025333173
-0.021649624
-0.074959699
-0.12949709
-0.17970547
-0.22067053
-0.24937524
-0.26486733
-0.26803591
-0.26094395
-0.24615139
-0.22620464
-0.20334218
-0.17936681
-0.15563417
-0.133112
-0.11237721
-0.093796282
-0.077534275
-0.063664838
-0.052263409
-0.043067239
-0.036619281
-0.031617829
0.034967412
0.030188838
0.025948424
0.022166154
0.018796643
0.015781286
0.013065171
0.010605123
0.0083617872
0.0062838848
0.0043609158
0.0024328351
0.00095461991
0.04026201
0.046362435
0.053025735
0.060599292
0.06935594
0.078665239
0.088686188
0.099437272
0.11000477
0.11818464
0.12102178
0.11827705
0.10649471
0.084042873
0.04896537
0.0021483003
-0.05383364
-0.11391837
-0.17185686
-0.22180405
-0.25934413
-0.28251103
-0.2915396
-0.28829809
-0.2754791
-0.25593406
-0.23226071
-0.20661851
-0.1806726
-0.15561523
-0.1322466
-0.11097541
-0.092098456
-0.075726156
-0.06189122
-0.050547083
-0.041379958
-0.034834257
-0.029840214
0.040467794
0.035097066
0.03027992
0.02601037
0.022209557
0.018823754
0.015794795
0.013068631
0.010600715
0.0083526917
0.0062720269
0.0043364153
0.0024090932
0.00094193407
0.0466269
0.05339655
0.060972183
0.070069706
0.079633979
0.090066869
0.10130585
0.11303323
0.12400829
0.13148881
0.13170636
0.12438969
0.10548329
0.073752855
0.027931981
-0.029577441
-0.094410979
-0.16003052
-0.21935293
-0.26677539
-0.29888768
-0.31506944
-0.31680185
-0.30682366
-0.28828361
-0.26416989
-0.23703098
-0.20889151
-0.1812365
-0.15505604
-0.13097074
-0.10926877
-0.090218677
-0.073866786
-0.060110486
-0.048768568
-0.039476576
-0.032930134
-0.028003699
0.046879318
0.040634371
0.035185131
0.03034631
0.02605699
0.022239389
0.018839011
0.015798883
0.013063562
0.010589738
0.0083375283
0.006235487
0.0042911154
0.0023809729
0.00092685696
0.053768736
0.061248526
0.070693545
0.080537751
0.091278257
0.10313042
0.11552751
0.12814303
0.13909184
0.14495826
0.14102584
0.1271572
0.098806226
0.055597541
-0.0024907275
-0.071094272
-0.14384209
-0.21296768
-0.27110287
-0.3135159
-0.33826907
-0.34625696
-0.34013466
-0.32331832
-0.29921694
-0.27081849
-0.24054346
-0.21022193
-0.18110437
-0.1539596
-0.12928223
-0.10731703
-0.088271941
-0.072002695
-0.058232934
-0.046628793
-0.037454611
-0.030947712
-0.026088868
0.054140698
0.047084578
0.040771195
0.03525634
0.030394958
0.026088363
0.02225559
0.018843341
0.015792932
0.013050844
0.010571429
0.0082872259
0.0061684004
0.0042375187
0.0023474158
0.00090931151
0.061387252
0.071285185
0.081350487
0.092371664
0.10473087
0.11795654
0.13150024
0.14481101
0.15491666
0.15775087
0.14757059
0.12463477
0.084180783
0.027327678
-0.044060188
-0.12331712
-0.2020748
-0.27188613
-0.32584859
-0.3607393
-0.376435
-0.37534827
-0.36110648
-0.33756186
-0.30820055
-0.27589869
-0.24286619
-0.21066213
-0.18027655
-0.15231994
-0.12725712
-0.10527642
-0.086322139
-0.069992009
-0.055806441
-0.044355484
-0.035341064
-0.02889321
-0.024083553
0.061272929
0.054338703
0.047179235
0.040883679
0.035306882
0.030428512
0.026104329
0.022259425
0.018835984
0.01577821
0.013029562
0.010505345
0.0081940459
0.0060891788
0.0041739126
0.0023077617
0.0008890212
0.071752788
0.082100824
0.093319774
0.10618013
0.12008078
0.13475269
0.14938617
0.16291468
0.17079809
0.1685268
0.14933498
0.11428739
0.05892122
-0.013393581
-0.098258448
-0.18659997
-0.26841207
-0.33541192
-0.38202357
-0.40707299
-0.41238915
-0.40172254
-0.37938395
-0.34941975
-0.31523656
-0.27948381
-0.24405799
-0.21020755
-0.17874361
-0.15025226
-0.12512052
-0.10323351
-0.084161502
-0.067169171
-0.053230879
-0.041978888
-0.03315217
-0.026766314
-0.022002708
0.072363763
0.061540443
0.054161901
0.047275392
0.040940156
0.035347267
0.030443826
0.026107024
0.022249844
0.018818769
0.015753673
0.012944837
0.010381355
0.0080843938
0.0059951943
0.0040992338
0.0022609982
0.00086574457
0.082763129
0.094095555
0.10745215
0.12199171
0.13758199
0.15378966
0.16923307
0.18204961
0.18556967
0.17527668
0.14359225
0.092992312
0.020080522
-0.068740302
-0.16599934
-0.26052102
-0.34144031
-0.40169144
-0.43787051
-0.45116866
-0.44525231
-0.42488703
-0.39475103
-0.35886763
-0.32040314
-0.28163889
-0.24410587
-0.20884278
-0.17664718
-0.14803328
-0.12298411
-0.100895
-0.080847541
-0.064175011
-0.050533307
-0.039530487
-0.030885287
-0.024569444
-0.019858713
0.083646053
0.072514766
0.062305962
0.054088153
0.047337468
0.040975282
0.035364298
0.030445702
0.026094392
0.022229463
0.018790495
0.015646312
0.012783557
0.010235949
0.0079545584
0.0058849334
0.0040118101
0.0022062544
0.00083912513
0.09474773
0.1085399
0.12365994
0.14008248
0.15761116
0.1752639
0.19087557
0.20139676
0.1973898
0.17513343
0.126837
0.057142715
-0.035290539
-0.14036316
-0.24731509
-0.34372886
-0.41904015
-0.46852355
-0.4915923
-0.49179884
-0.47430841
-0.44450834
-0.40714186
-0.36598393
-0.32377413
-0.28234223
-0.24298665
-0.20674732
-0.17435337
-0.1458113
-0.12044382
-0.096959739
-0.077336668
-0.061037914
-0.047768076
-0.037002845
-0.028544487
-0.022305099
-0.017652517
0.095023263
0.083857059
0.072496495
0.062758476
0.054317658
0.047337311
0.040985436
0.03536467
0.030429709
0.026070197
0.022196714
0.018655431
0.015439389
0.012595079
0.010064095
0.0078026051
0.0057559397
0.003910157
0.0021424827
0.00080880115
0.10948287
0.12509852
0.14223538
0.1609176
0.18051449
0.19920808
0.21382332
0.21952217
0.20349982
0.16423618
0.094835575
0.0028909853
-0.10973025
-0.22895579
-0.34109105
-0.43388564
-0.49851395
-0.53355517
-0.54149646
-0.52793547
-0.49905564
-0.46045692
-0.41663116
-0.37084785
-0.32531374
-0.28156286
-0.24092932
-0.20439493
-0.17205293
-0.1430448
-0.11574129
-0.092799636
-0.073654582
-0.057843767
-0.044920648
-0.034401347
-0.026132727
-0.019976472
-0.015387175
0.11012208
0.095351917
0.083479288
0.07260146
0.062811524
0.054436611
0.047326866
0.040971507
0.035342148
0.030401238
0.026031903
0.022027557
0.018392298
0.015198447
0.012372747
0.0098634492
0.0076251872
0.0056060882
0.0037924708
0.0020686789
0.0007743527
0.12628962
0.14405607
0.1637268
0.18497079
0.20652924
0.22539979
0.23707695
0.23409598
0.20000625
0.13769587
0.042834964
-0.073406596
-0.20481256
-0.3338382
-0.44490028
-0.52776121
-0.57682489
-0.59448663
-0.58612366
-0.55883555
-0.51926868
-0.47279647
-0.42330462
-0.37341127
-0.32497553
-0.2795893
-0.23853986
-0.20202908
-0.16903059
-0.13739861
-0.11078621
-0.08843367
-0.069930787
-0.054567508
-0.041998823
-0.031728799
-0.023654233
-0.017586912
-0.013064815
0.12722159
0.11045801
0.095626268
0.083455569
0.072546083
0.062869759
0.054465368
0.047296577
0.040927469
0.035305473
0.030355648
0.025820806
0.021694783
0.018087092
0.014914819
0.012113821
0.0096296227
0.0074195225
0.00543277
0.0036569965
0.0019837565
0.00073535719
0.1455022
0.16603583
0.18872155
0.21266609
0.23571048
0.25321057
0.25883602
0.24158826
0.18174679
0.089725286
-0.033988721
-0.17451584
-0.32055448
-0.45263631
-0.55501042
-0.62150992
-0.65088811
-0.64927316
-0.62438643
-0.58413086
-0.53498838
-0.48162527
-0.42710013
-0.37362221
-0.32312524
-0.27718831
-0.23612595
-0.19871912
-0.16222866
-0.13147469
-0.10558073
-0.084049787
-0.066125692
-0.051219579
-0.039005371
-0.028990255
-0.021113185
-0.015139233
-0.01068817
0.14663725
0.12760774
0.11049058
0.095656987
0.083343402
0.072482154
0.062819219
0.054450931
0.047226665
0.040870531
0.035245698
0.030092191
0.025401714
0.021310267
0.017728599
0.014585409
0.011812663
0.0093591522
0.0071821087
0.0052334921
0.0035018278
0.0018866607
0.00069138109
0.16780213
0.19172835
0.21781667
0.24433356
0.26781702
0.28133727
0.27613727
0.23699743
0.14230883
0.014037063
-0.13976341
-0.30150396
-0.45490245
-0.58114341
-0.66665801
-0.71106527
-0.71786468
-0.69633898
-0.65570299
-0.60381856
-0.54632891
-0.48687229
-0.42796277
-0.37194057
-0.32073091
-0.27474551
-0.23249214
-0.19051145
-0.15513112
-0.12524423
-0.10039092
-0.079588266
-0.062253395
-0.047801968
-0.035946566
-0.026190518
-0.018512689
-0.012634797
-0.0082610419
0.16916523
0.14710011
0.12751879
0.11032736
0.095577126
0.08317097
0.072302564
0.062728651
0.05436497
0.047153698
0.040781831
0.034913636
0.029564982
0.024919053
0.020859524
0.017313448
0.014203074
0.011465113
0.0090475293
0.0069096875
0.0050055377
0.0033251097
0.0017763442
0.00064201397
0.19396889
0.22190614
0.25160168
0.28015544
0.30207568
0.30742741
0.28446378
0.21368592
0.074307847
-0.095340733
-0.27686795
-0.45294589
-0.60338133
-0.71353696
-0.77455968
-0.79254892
-0.77548065
-0.73478241
-0.67999971
-0.61802377
-0.5532189
-0.48847492
-0.42647209
-0.36957372
-0.31827643
-0.27074312
-0.22258284
-0.18200211
-0.14765689
-0.11907631
-0.095129793
-0.075067666
-0.058314641
-0.044321938
-0.03282801
-0.023331953
-0.015852927
-0.010078673
-0.0057862636
0.1956281
0.16972393
0.14700533
0.1272189
0.11004386
0.09535036
0.082900745
0.072089478
0.062552249
0.054260724
0.047024267
0.040358978
0.034247655
0.028960062
0.024353948
0.020339091
0.01683264
0.01376298
0.011065513
0.0086907213
0.0065986717
0.0047463035
0.0031250021
0.0016518502
0.00058689076
0.22493625
0.25743561
0.29067974
0.31998893
0.33680922
0.32761964
0.27741253
0.16341985
-0.029877255
-0.24274314
-0.44483405
-0.62427385
-0.75913331
-0.84303036
-0.87348509
-0.86272923
-0.8223514
-0.76440366
-0.69742639
-0.62669058
-0.55560094
-0.48715707
-0.42412647
-0.36711998
-0.31385102
-0.25878239
-0.21238324
-0.1730288
-0.14030953
-0.11284736
-0.08982169
-0.070486535
-0.054317767
-0.040785556
-0.029651345
-0.020410271
-0.013143702
-0.0074752437
-0.0032669122
0.22706055
0.19632727
0.16965936
0.14661867
0.1267309
0.10961056
0.094987026
0.082572017
0.071783859
0.062362409
0.054074653
0.046487115
0.039514521
0.033488222
0.028252254
0.023703347
0.019737694
0.016280731
0.013258143
0.010609078
0.0082842153
0.0062457078
0.0044532166
0.0028998289
0.0015123532
0.00052583557
0.26182947
0.29937327
0.33558228
0.36300109
0.36892242
0.33607446
0.24651213
0.076773003
-0.17669586
-0.42930393
-0.63940047
-0.80750783
-0.9136585
-0.96268868
-0.95888365
-0.9195206
-0.85807899
-0.78536659
-0.70796377
-0.62981322
-0.5543834
-0.48477611
-0.4216641
-0.36220197
-0.29943198
-0.24657132
-0.20161255
-0.1642689
-0.1329168
-0.10658917
-0.084461863
-0.065854131
-0.050269143
-0.03719286
-0.026407306
-0.017439553
-0.010390438
-0.0048293642
-0.00070590665
0.26478812
0.22798295
0.19627547
0.16917543
0.1459532
0.1260444
0.10901871
0.094521799
0.082133173
0.071467773
0.062065763
0.053387468
0.045418325
0.038559854
0.032600447
0.027440083
0.022953161
0.019049414
0.015649189
0.012683102
0.010090314
0.007823953
0.0058474918
0.00412398
0.0026481438
0.0013572402
0.00045872177
0.30612395
0.34896575
0.38642778
0.40708627
0.3932989
0.32460525
0.18122421
-0.055742808
-0.36955632
-0.65152402
-0.85179912
-0.99198208
-1.0579442
-1.066225
-1.0276145
-0.9622092
-0.88285929
-0.7977284
-0.71167374
-0.62853763
-0.55185534
-0.48225599
-0.4161582
-0.34485348
-0.28484608
-0.23365845
-0.19117012
-0.15548605
-0.12551965
-0.10029195
-0.079060152
-0.061176732
-0.046166715
-0.03352737
-0.023116389
-0.014426355
-0.0075988846
-0.0021452321
0.0018934966
0.31063625
0.26604857
0.22782524
0.19559877
0.16827571
0.14496532
0.12514784
0.10829831
0.093903172
0.081672811
0.071021786
0.061163902
0.05203228
0.044220626
0.037444986
0.031586454
0.026505798
0.022097374
0.018263938
0.014932009
0.012031306
0.0095045597
0.0073059393
0.0054011699
0.0037566507
0.0023688832
0.0011861189
0.00038534153
0.35972391
0.40730674
0.44226935
0.44811791
0.40226325
0.28234913
0.069491562
-0.24161611
-0.60708669
-0.89989387
-1.0691574
-1.1659802
-1.1834453
-1.14898
-1.0784103
-0.99102035
-0.89687324
-0.80170682
-0.71001271
-0.62565766
-0.54917263
-0.47602948
-0.39534223
-0.3274821
-0.26939851
-0.2212246
-0.1807361
-0.14673309
-0.11810153
-0.093965366
-0.073622148
-0.056449335
-0.041984995
-0.029817221
-0.019786367
-0.011378198
-0.0047731372
0.0005727412
0.0045269597
0.36704426
0.31243641
0.26556443
0.22669816
0.19428728
0.16685827
0.1436717
0.12406604
0.10737633
0.093240601
0.081048029
0.069843013
0.059435748
0.050527379
0.042822106
0.03617876
0.030423338
0.025444043
0.021123639
0.017374962
0.014121512
0.011297665
0.0088472021
0.0067269052
0.0049044066
0.0033498809
0.0020615003
0.00099892688
0.00030577722
0.42460918
0.4745909
0.5002121
0.47921069
0.38501295
0.19548394
-0.1003641
-0.48413978
-0.88129898
-1.1586234
-1.2767369
-1.3180919
-1.2833233
-1.208795
-1.1114691
-1.0063363
-0.90055518
-0.79915952
-0.70639678
-0.62260582
-0.54204094
-0.45114055
-0.3747286
-0.30905647
-0.25462502
-0.20884191
-0.17037804
-0.13798358
-0.11067314
-0.087613734
-0.068139248
-0.051635202
-0.037761353
-0.026071289
-0.016425996
-0.0082993
-0.0019173612
0.003318424
0.007189566
0.43664331
0.36973274
0.31129318
0.26351958
0.22461878
0.19220393
0.16499035
0.1420814