/*--------------------------------*- C++ -*----------------------------------*\
| =========                 |                                                 |
| \\      /  F ield         | OpenFOAM: The Open Source CFD Toolbox           |
|  \\    /   O peration     | Version:  v2012                                 |
|   \\  /    A nd           | Website:  www.openfoam.com                      |
|    \\/     M anipulation  |                                                 |
\*---------------------------------------------------------------------------*/
FoamFile
{
    version     2.0;
    format      ascii;
    class       surfaceScalarField;
    location    "6.14070038";
    object      phi;
}
// * * * * * * * * * * * * * * * * * * * * * * * * * * * * * * * * * * * * * //

dimensions      [0 3 -1 0 0 0 0];
oriented        oriented;


internalField   nonuniform List<scalar> 
18180
(
0.0009513905
-3.4131409
0.0018096125
-3.1908671
0.0011020843
-3.4726324
0.0025658996
-2.9839753
0.002096425
-3.2459786
0.0011802212
-3.5278249
0.0032196403
-2.791274
0.0029784446
-3.0351383
0.0022461835
-3.2972494
0.0012834746
-3.5794371
0.0037631993
-2.6108491
0.0037379239
-2.8390297
0.0031944262
-3.0820372
0.002445894
-3.3447746
0.0013889115
-3.6270209
0.0042052118
-2.4413645
0.0043745285
-2.6551565
0.0040124245
-2.8811833
0.0034823829
-3.1249658
0.0026505621
-3.3893124
0.0014989221
-3.6718787
0.0045482834
-2.2825248
0.0048917145
-2.4825749
0.0047014664
-2.6937094
0.004380781
-2.9198356
0.0037790092
-3.1660225
0.0028651359
-3.4315232
0.0016103351
-3.7135921
0.0048020364
-2.1340126
0.0052958464
-2.3211089
0.005263211
-2.5185039
0.0051412876
-2.7286555
0.004762648
-2.9570647
0.0040915229
-3.2056633
0.003083511
-3.4713231
0.0017210887
-3.7528604
0.0049746569
-1.995228
0.0055956518
-2.1701815
0.0057047567
-2.3548092
0.005765548
-2.5505698
0.0056005559
-2.7623661
0.005167524
-2.993842
0.0044114213
-3.2436908
0.0033017787
-3.5087142
0.0018288481
-3.7892085
0.005076245
-1.8655106
0.0058011616
-2.0291847
0.0060344399
-2.2019781
0.0062600002
-2.3847501
0.0062939908
-2.5813709
0.0060908167
-2.7963109
0.0055849069
-3.0300597
0.0047332321
-3.2797587
0.003515449
-3.5435857
0.0019313368
-3.8233833
0.0051164859
-1.7442427
0.005923345
-1.897411
0.0062627425
-2.059221
0.0066329468
-2.2301585
0.0068484594
-2.4132581
0.0068621017
-2.6127673
0.0066001156
-2.8305234
0.0060081194
-3.0648322
0.005050598
-3.3135611
0.00372011
-3.5761967
0.0020262541
-3.8552093
0.0051050024
-1.6308513
0.0059733601
-1.7742215
0.0064008129
-1.925798
0.0068948576
-2.0858394
0.0072718474
-2.2567937
0.0074856701
-2.4422868
0.0074571058
-2.6447686
0.007121067
-2.8638483
0.0064293461
-3.0976492
0.0053572334
-3.3451356
0.0039113056
-3.6066881
0.0021113135
-3.8852523
0.0050506136
-1.5248184
0.0059621709
-1.6590179
0.0064602809
-1.8010506
0.0070571915
-1.9509647
0.0075742718
-2.1108608
0.0079685796
-2.2838305
0.0081585474
-2.4722486
0.0080712768
-2.6764502
0.0076447483
-2.8954783
0.0068406841
-3.1283143
0.0056467473
-3.3746538
0.0040846211
-3.63524
0.0021843855
-3.913155
0.0049613418
-1.4256658
0.005900043
-1.5512692
0.0064525959
-1.6843788
0.0071320492
-1.8248421
0.00776718
-1.9745331
0.0083201991
-2.1362277
0.0087102124
-2.3118235
0.0088594156
-2.5019483
0.0086950456
-2.7065376
0.0081620616
-2.9251054
0.007233991
-3.15699
0.0059127878
-3.4021747
0.0042359366
-3.6618687
0.002243723
-3.9394431
0.0048445076
-1.3329488
0.0057964049
-1.4504881
0.0063887382
-1.5752428
0.0071315767
-1.7068703
0.0078629151
-1.847043
0.0085516384
-1.9983695
0.0091203485
-2.162345
0.0094896989
-2.3394511
0.0095787451
-2.5302002
0.0093186738
-2.7348318
0.0086634844
-2.9528625
0.0076010094
-3.183689
0.0061493302
-3.4277987
0.0043617422
-3.6867463
0.0022881037
-3.9637716
0.0047065569
-1.2462545
0.0056598749
-1.3562245
0.0062789455
-1.4731516
0.0070675851
-1.596509
0.0078741368
-1.7277642
0.008675201
-1.869474
0.009399277
-2.0228589
0.0099686729
-2.1880996
0.010297998
-2.3658419
0.010306555
-2.5570498
0.0099315501
-2.7616344
0.0091390567
-2.9788064
0.0079337047
-3.2085095
0.0063510091
-3.4516253
0.0044593486
-3.7098694
0.0023168177
-3.9865326
0.0045530657
-1.1651954
0.0054980693
-1.2680612
0.0061325439
-1.3776441
0.0069512359
-1.4932626
0.0078133896
-1.6161516
0.0087038519
-1.7488691
0.009558883
-1.8925134
0.010305376
-2.0469639
0.010857067
-2.2127783
0.011125359
-2.3912599
0.011031614
-2.5827939
0.010522315
-2.7867709
0.0095788302
-3.0029202
0.0082246964
-3.2315313
0.0065133578
-3.47375
0.0045268499
-3.7313412
0.0023295089
-4.0074171
0.0043887729
-1.0894098
0.0053175959
-1.1856074
0.0059578563
-1.2882967
0.0067928262
-1.3966719
0.007692726
-1.5117128
0.0086507388
-1.6359932
0.0096121283
-1.7705865
0.010510812
-1.9151402
0.011263237
-2.0700453
0.011776702
-2.2366478
0.01196063
-2.4157798
0.01174171
-2.6070899
0.011079381
-2.8102071
0.0099733962
-3.0252832
0.0084675962
-3.2528794
0.0066328296
-3.4942187
0.004562993
-3.7511533
0.0023260263
-4.0268634
0.0042176191
-1.0185569
0.0051240931
-1.1085
0.0057621553
-1.2047129
0.0066016506
-1.3063122
0.0075234282
-1.4139966
0.0085287371
-1.5303464
0.0095725255
-1.6564794
0.010597547
-1.7918662
0.011526072
-1.9367391
0.012265439
-2.0924115
0.012717019
-2.2599435
0.012791139
-2.4391584
0.012423822
-2.629744
0.011591327
-2.8319293
0.010314243
-3.0460062
0.0086570591
-3.2725916
0.0067068198
-3.5131006
0.0045670537
-3.7694715
0.002306379
-4.0446232
0.0040428322
-0.95231839
0.0049223057
-1.0363966
0.0055516811
-1.1265248
0.0063859171
-1.2217834
0.0073158229
-1.3225809
0.0083501209
-1.4314754
0.0094536302
-1.549671
0.010579123
-1.6765022
0.011657254
-1.8120844
0.012599113
-1.9577025
0.013302545
-2.1143696
0.013665397
-2.2821462
0.01360291
-2.4608514
0.01306483
-2.6507166
0.012047502
-2.8520626
0.010593895
-3.06513
0.0087888648
-3.2907628
0.0067336621
-3.5305117
0.0045388705
-3.7862997
0.0022708701
-4.0610512
0.0038670517
-0.89039482
0.0047161608
-0.96897748
0.0053316951
-1.0533849
0.0061527369
-1.1427072
0.0070791552
-1.2370665
0.0081263092
-1.3389579
0.0092686276
-1.4496937
0.010469541
-1.5685124
0.011669931
-1.6954132
0.012787944
-1.8316829
0.01372219
-1.9782516
0.01436281
-2.1352461
0.014607743
-2.3027177
0.014381676
-2.4809154
0.013652128
-2.6701659
0.012438142
-2.8706613
0.01080605
-3.0827691
0.0088599364
-3.3075015
0.0067127288
-3.5465213
0.0044790113
-3.8017689
0.0022201415
-4.0759422
0.0036924155
-0.83250681
0.0045088435
-0.90594218
0.0051065697
-0.98496978
0.0059081494
-1.0687295
0.006821539
-1.1570745
0.0078676863
-1.2523933
0.0090300311
-1.3561181
0.01028273
-1.4674156
0.011578179
-1.5861716
0.012844162
-1.7137175
0.013984018
-1.8509169
0.01488498
-1.9978054
0.01543256
-2.1545743
0.015528947
-2.3217065
0.015112965
-2.499544
0.014173575
-2.6881933
0.012754543
-2.8878619
0.010945659
-3.0990323
0.008868507
-3.3229035
0.0066445564
-3.5612135
0.004388732
-3.815892
0.0021552474
-4.089676
0.0035206092
-0.77839248
0.0043029004
-0.84701069
0.0048798677
-0.92097841
0.0056571939
-0.99951814
0.0065499401
-1.082248
0.0075835142
-1.1714061
0.0087494057
-1.2685377
0.010032225
-1.3727753
0.011396446
-1.4838761
0.012781469
-1.6032398
0.014098698
-1.7317227
0.015237071
-1.8691973
0.016074855
-2.0158146
0.016496563
-2.1723276
0.016413445
-2.3393452
0.015782684
-2.5168674
0.01461789
-2.7049247
0.012989186
-2.9037567
0.011009184
-3.114013
0.0088143016
-3.3370384
0.006530661
-3.5746459
0.0042699817
-3.8288357
0.0020775616
-4.1020794
0.0033529363
-0.72780504
0.0041003235
-0.79191895
0.0046544486
-0.8611292
0.0054039948
-0.93476463
0.0062702337
-1.0122509
0.0072818515
-1.0956424
0.0084372669
-1.1865766
0.0097307613
-1.2841854
0.011139105
-1.3880888
0.012614484
-1.499762
0.014079025
-1.620103
0.015427484
-1.7488098
0.016536271
-1.8859108
0.017277579
-2.0322667
0.017538953
-2.1888693
0.017245381
-2.3558839
0.016376901
-2.5330637
0.01497469
-2.720452
0.01313612
-2.9184312
0.010994865
-3.1277765
0.0086983524
-3.349978
0.0063734795
-3.5869423
0.0041252442
-3.8406082
0.0019887194
-4.1134523
0.0031903827
-0.68051439
0.0039026391
-0.7404182
0.0044325557
-0.80515906
0.0051518762
-0.87418263
0.0059872594
-0.94676945
0.0069696101
-1.0247691
0.0081028943
-1.1098787
0.0093901567
-1.2012655
0.010819994
-1.2984079
0.012358172
-1.4028447
0.013939326
-1.5155587
0.015467446
-1.6360952
0.016822061
-1.7643342
0.017869007
-1.9011233
0.01847744
-2.0476875
0.018542574
-2.2045368
0.018008428
-2.3714422
0.016882122
-2.5481671
0.015234998
-2.7348434
0.013191321
-2.931948
0.010902554
-3.1404071
0.0085229647
-3.3618282
0.0061761955
-3.5981464
0.0039574814
-3.8513344
0.0018904683
-4.1236593
0.0030336714
-0.63630531
0.0037109679
-0.69227588
0.0042159251
-0.75282051
0.0049034483
-0.81750568
0.0057049458
-0.88550763
0.006652531
-0.95847034
0.0077544187
-1.0381096
0.0090209988
-1.1236576
0.010452202
-1.2144547
0.012027326
-1.3120852
0.013694838
-1.4176465
0.015370426
-1.5305409
0.01694113
-1.6505256
0.018272315
-1.7783865
0.019220971
-1.9153791
0.019657099
-2.0623906
0.019489268
-2.2194004
0.018686107
-2.3860588
0.017286
-2.5622633
0.015391802
-2.7481658
0.013152603
-2.9444022
0.010733728
-3.1520006
0.0082915573
-3.3726462
0.0059427409
-3.6083484
0.0037699411
-3.8610365
0.0017846023
-4.1330049
0.0028833121
-0.59497506
0.0035260996
-0.64727448
0.0040058455
-0.70388254
0.0046607356
-0.76448327
0.0054263833
-0.82818928
0.0063353554
-0.89644627
0.0073986694
-0.97095266
0.0086327763
-1.0510259
0.010047668
-1.1358757
0.011636229
-1.2271121
0.013361081
-1.3259568
0.015151478
-1.4316959
0.016905402
-1.5439628
0.018493187
-1.6635056
0.019766299
-1.7915472
0.020575528
-1.9291557
0.020797114
-2.0765312
0.020359732
-2.2334542
0.019262402
-2.3997994
0.017577829
-2.5753833
0.015439981
-2.7604935
0.013019713
-2.955867
0.010491369
-3.162609
0.0080086904
-3.3825074
0.0056775956
-3.6175842
0.0035660548
-3.8698533
0.0016728982
-4.1414148
0.0027396537
-0.55633602
0.003348523
-0.60520806
0.0038032608
-0.65812878
0.0044252331
-0.7148832
0.0051539842
-0.77455887
0.0060218169
-0.83841846
0.0070414328
-0.9081149
0.0082335649
-0.98305647
0.0096173049
-1.0623395
0.011198168
-1.1475726
0.01295341
-1.2401135
0.014826533
-1.3391441
0.01672911
-1.4441775
0.018541178
-1.555963
0.020114988
-1.6756787
0.021289033
-1.8043727
0.021912686
-1.942466
0.021875859
-2.0899357
0.021134424
-2.246736
0.019722594
-2.4126694
0.017748804
-2.5875986
0.015376611
-2.771886
0.012794335
-2.9663892
0.010180064
-3.1722987
0.0076798306
-3.3914476
0.0053856587
-3.6259631
0.0033493194
-3.8778317
0.0015570542
-4.1491295
0.0026029996
-0.52021134
0.0031785363
-0.56588556
0.0036087925
-0.61535174
0.0041980357
-0.66848815
0.0048895178
-0.72438051
0.0057148794
-0.78412963
0.0066872827
-0.84932061
0.0078304002
-0.91945598
0.009170541
-0.99353298
0.010725507
-1.0731369
0.012486443
-1.159759
0.014411815
-1.2525008
0.016428159
-1.3507476
0.018428955
-1.4552643
0.020273275
-1.5672032
0.021794309
-1.68754
0.022821262
-1.8167901
0.023209532
-1.9551352
0.022870855
-2.1026558
0.021794649
-2.2592769
0.020053483
-2.4247429
0.017792242
-2.5989416
0.015201046
-2.7823824
0.012480282
-2.9760289
0.0098057643
-3.1811137
0.0073111717
-3.3995609
0.005072066
-3.6335265
0.0031231483
-3.8850817
0.0014386816
-4.1560725
0.0024735485
-0.48643472
0.0030163536
-0.52912724
0.0034228915
-0.57536163
0.0039798548
-0.62509328
0.0046342848
-0.67743318
0.0054166893
-0.73333979
0.0063399654
-0.79431347
0.0074288986
-0.85994722
0.0087158075
-0.92915884
0.010229107
-1.0034909
0.011974013
-1.0845589
0.01392322
-1.1714027
0.016019263
-1.2632799
0.018171713
-1.360978
0.020251419
-1.4656419
0.022093261
-1.5781744
0.023513628
-1.6990803
0.024339612
-1.8286596
0.02444119
-1.9672518
0.02375942
-2.1148248
0.022322275
-2.2711378
0.020243743
-2.4360273
0.017704081
-2.6094636
0.014915338
-2.7920453
0.012083316
-2.9848399
0.009375582
-3.189136
0.0069093978
-3.4068808
0.0047419455
-3.6403635
0.0028908256
-3.8916297
0.0013192924
-4.1624402
-0.0021380805
-0.53482203
0.0028623886
-0.49476113
0.0032458997
-0.53797783
0.0037712237
-0.58450811
0.0043891188
-0.63351133
0.0051288636
-0.68582482
0.0060021968
-0.74285232
0.0070338539
-0.80426802
0.0082599271
-0.86893522
0.0097188954
-0.93833817
0.011428519
-1.0141935
0.013376032
-1.0955076
0.015519442
-1.1814066
0.01778617
-1.2727075
0.020063052
-1.3705529
0.022192725
-1.4757896
0.023986359
-1.5888874
0.025250092
-1.7101395
0.025817631
-1.8401214
0.025581576
-1.9789779
0.024518606
-2.1263972
0.022700655
-2.2823202
0.020284622
-2.4465836
0.017483334
-2.6191972
0.014524111
-2.8009197
0.011610921
-2.9928845
0.0088975147
-3.1963894
0.0064813378
-3.4134824
0.0044003132
-3.6464984
0.0026554454
-3.8975736
0.0012002678
-4.1681668
-0.005371235
-0.53615901
-0.0016929346
-0.53952648
0.0030782385
-0.50302264
0.0035725707
-0.54655099
0.0041546844
-0.59242272
0.0048524248
-0.64137311
0.0056761597
-0.69471188
0.0066488264
-0.7521732
0.0078089912
-0.81259672
0.0092030333
-0.87739409
0.010861486
-0.94836415
0.012784338
-1.0244922
0.014945304
-1.104782
0.017290041
-1.1900798
0.01972424
-1.2815389
0.022103869
-1.3799386
0.024241777
-1.4857366
0.025931306
-1.5991524
0.026977075
-1.7208199
0.027227078
-1.8512755
0.026603433
-1.9902388
0.025126013
-2.137413
0.022915213
-2.2928523
0.020170818
-2.4564138
0.017132356
-2.6281969
0.014034424
-2.8090565
0.011072025
-3.0001813
0.0083799937
-3.2029388
0.0060338159
-3.4193848
0.0040519577
-3.6520199
0.0024198414
-3.9029308
0.0010828321
-4.1734035
-0.0073586017
-0.53736726
-0.0048954082
-0.54220717
-0.0014090775
-0.54415627
0.0033844676
-0.51103967
0.003931543
-0.55398626
0.0045882572
-0.59979007
0.0053633174
-0.64967459
0.0062769581
-0.7034376
0.0073676627
-0.7598935
0.0086890746
-0.82039525
0.010282591
-0.88678538
0.012161371
-0.95805376
0.014312699
-1.0330816
0.016701032
-1.1127491
0.019252779
-1.1982226
0.021841214
-1.2902134
0.024287543
-1.3891779
0.026379867
-1.4952505
0.027902493
-1.6090244
0.028665424
-1.731321
0.028537099
-1.8621438
0.027478422
-2.0010099
0.025560374
-2.1478492
0.022954966
-2.3027583
0.01990091
-2.4655771
0.016656623
-2.636496
0.013455478
-2.816472
0.010476434
-3.006789
0.0078316862
-3.2088042
0.0055734714
-3.4246667
0.0037013182
-3.656956
0.0021865665
-3.9077872
0.0009680284
-4.1780685
-0.0082422844
-0.53843894
-0.0068758323
-0.54462718
-0.0045692041
-0.54815532
-0.0010420509
-0.54853385
0.0037204104
-0.51801584
0.0043370534
-0.56089304
0.0050650192
-0.60754522
0.0059205965
-0.65784304
0.0069404156
-0.71059774
0.0081828862
-0.76709136
0.0097009205
-0.82919252
0.011518596
-0.89590432
0.013636647
-0.96600197
0.016036578
-1.04039
0.018667064
-1.1202567
0.02142198
-1.2062336
0.024135682
-1.2987926
0.026598693
-1.3979941
0.028583545
-1.5043534
0.029871293
-1.6187697
0.030281811
-1.74161
0.029713932
-1.8725677
0.02817822
-2.0112803
0.025803667
-2.1577505
0.022813064
-2.3120562
0.019477442
-2.4740974
0.016064694
-2.6441254
0.012797995
-2.8232252
0.0098345956
-3.0127335
0.0072612335
-3.2140595
0.0051065711
-3.4293636
0.0033524424
-3.6613866
0.0019578636
-3.9121377
0.00085676344
-4.1822815
-0.0081709879
-0.5393673
-0.0077733171
-0.54677253
-0.006531162
-0.55175695
-0.0041678775
-0.55383515
-0.00064482619
-0.55186017
0.0040996153
-0.52449668
0.0047821219
-0.56813852
0.0055820092
-0.61519271
0.0065308271
-0.66449003
0.0076902683
-0.7172504
0.0091234213
-0.77533132
0.010866656
-0.83777571
0.012930645
-0.90325341
0.015313454
-0.9727009
0.017985757
-1.0473165
0.020864655
-1.1276478
0.023802003
-1.2141979
0.026596193
-1.3069542
0.029016981
-1.4063505
0.030826339
-1.5132948
0.031803976
-1.6283496
0.031788496
-1.7515518
0.030722365
-1.882569
0.02867687
-2.021086
0.025842108
-2.167122
0.022487456
-2.3208039
0.018906944
-2.4820137
0.015367406
-2.6511225
0.012073943
-2.8293367
0.0091572424
-3.0180742
0.0066769754
-3.2187268
0.004638926
-3.4335412
0.0030089261
-3.6653439
0.0017356599
-3.9160635
0.00074983447
-4.1859511
-0.0073003532
-0.54014533
-0.0077341966
-0.5486286
-0.0074311772
-0.55494348
-0.0061183529
-0.55859952
-0.0037363453
-0.55850269
-0.00020450505
-0.55471394
0.004515264
-0.531267
0.0052624289
-0.57529678
0.0061426168
-0.62137213
0.0072157833
-0.67064823
0.0085566291
-0.7249696
0.010213366
-0.78340958
0.012206931
-0.8445661
0.014547206
-0.90938821
0.017227155
-0.97909836
0.020188717
-1.0541293
0.023304484
-1.1350395
0.02638574
-1.2217473
0.02920618
-1.3146038
0.031519593
-1.4145216
0.033076084
-1.5221267
0.03366039
-1.6376822
0.033143899
-1.7611858
0.0315278
-1.8922321
0.028952015
-2.030475
0.025667013
-2.1760356
0.021980905
-2.3290116
0.018199282
-2.4893478
0.014577753
-2.6575152
0.011296095
-2.8348546
0.0084550182
-3.0228242
0.0060868022
-3.2228681
0.0041757779
-3.4372567
0.0026738842
-3.6689063
0.0015215231
-3.9195308
0.00064786161
-4.189181
-0.0057911757
-0.54076804
-0.0069114754
-0.55018134
-0.0074136307
-0.55769261
-0.007028259
-0.56280826
-0.0056780729
-0.56447179
-0.0032643814
-0.56271383
0.00026788116
-0.55788269
0.0049621196
-0.53796158
0.0057780164
-0.58105126
0.0067648049
-0.62708279
0.0080050321
-0.6778774
0.0095651175
-0.73256868
0.011474106
-0.7896778
0.013751727
-0.85018041
0.016408674
-0.9153067
0.019413622
-0.98537047
0.022662944
-1.0609897
0.025984081
-1.1420217
0.029160765
-1.2287276
0.031947633
-1.3220435
0.034077979
-1.4226142
0.035292344
-1.5307767
0.0353938
-1.6468366
0.034304832
-1.7706098
0.032098197
-1.9015542
0.0289864
-2.0394813
0.0252754
-2.1844962
0.021300736
-2.3367172
0.017367524
-2.4961295
0.013710249
-2.6633366
0.010477534
-2.8397879
0.0077382307
-3.0270422
0.0054979629
-3.2265315
0.0037217336
-3.4405778
0.0023499307
-3.6720908
0.0013166693
-3.9226124
0.00055113595
-4.1919213
-0.003808486
-0.5412312
-0.0054625018
-0.55142079
-0.0066275139
-0.55998561
-0.0070388836
-0.56643358
-0.0066008199
-0.5697489
-0.0052003717
-0.5699124
-0.0027656419
-0.567208
0.00076432665
-0.56099564
0.0054374785
-0.54332459
0.0063417588
-0.58635965
0.0074751727
-0.63385298
0.0089249246
-0.68501753
0.010737968
-0.73834988
0.012936605
-0.79481079
0.015545867
-0.85566419
0.018558389
-0.92107594
0.021897704
-0.99173915
0.025410839
-1.0674477
0.028895105
-1.1483725
0.032114617
-1.2354772
0.034797526
-1.3294284
0.036653984
-1.430557
0.037425701
-1.5393008
0.036953653
-1.6558691
0.035229101
-1.7797995
0.032406019
-1.9105871
0.028768974
-2.0481296
0.02466989
-2.1925335
0.020458694
-2.3439238
0.016427359
-2.5023835
0.012780416
-2.668601
0.0096312987
-2.8441942
0.0070165561
-3.0307691
0.0049169525
-3.2297869
0.0032807347
-3.4435609
0.0020391824
-3.6749562
0.0011220547
-3.9252922
0.00045975787
-4.194271
-0.0015204238
-0.54153133
-0.0035491403
-0.55233785
-0.0052281435
-0.56180713
-0.0062972883
-0.56945219
-0.006643656
-0.57429762
-0.0061407065
-0.57627974
-0.0047010546
-0.57560733
-0.0022490264
-0.57161108
0.0012859368
-0.56275726
0.0059495148
-0.54828076
0.0069751709
-0.59270066
0.0082994728
-0.64055845
0.0099993197
-0.69034775
0.012107545
-0.74303953
0.014649824
-0.79989818
0.017640228
-0.86096535
0.0210291
-0.92698821
0.024686951
-0.99771477
0.028427891
-1.0732065
0.032030761
-1.1544688
0.035231289
-1.2421939
0.037722721
-1.3366758
0.0391983
-1.4383896
0.039419985
-1.5478306
0.038287617
-1.6648284
0.035877193
-1.7887765
0.032429569
-1.9193356
0.028295134
-2.0564299
0.023859059
-2.2001417
0.019470598
-2.3506695
0.015396411
-2.5081175
0.011804213
-2.6733469
0.0087699422
-2.8481047
0.0062988458
-3.034065
0.0043494373
-3.2326989
0.0028560552
-3.4462543
0.0017432922
-3.6775175
0.00093854341
-3.9276436
0.00037417166
-4.1961897
-0.54166572
0.00090280276
-0.0013362717
-0.55292646
-0.0033739703
-0.56314597
-0.0049551516
-0.57184381
-0.0059508346
-0.578089
-0.0062209698
-0.58177147
-0.0056639277
-0.58303553
-0.0041905594
-0.58117859
-0.0017111993
-0.57463118
0.0018374185
-0.56416503
0.0065142
-0.55422348
0.0077015443
-0.59899788
0.0092640545
-0.64547891
0.01126385
-0.694625
0.013727468
-0.74775953
0.016672307
-0.80476225
0.020076053
-0.86645417
0.023833986
-0.93252091
0.027780141
-1.0029176
0.03171256
-1.0786865
0.035383078
-1.1605506
0.038485134
-1.2487726
0.040677292
-1.3438166
0.041651814
-1.4462999
0.041213582
-1.5563866
0.039343341
-1.6736493
0.036214625
-1.7975465
0.032154185
-1.9278171
0.02756772
-2.0643793
0.022857153
-2.2073504
0.018355487
-2.3569321
0.014293632
-2.5133546
0.010797506
-2.677603
0.0079052105
-2.8515707
0.005592982
-3.0369998
0.0038002156
-3.2353211
0.0024503172
-3.4487019
0.0014635097
-3.679828
0.00076682574
-3.9296382
0.00029532467
-4.1977638
-0.55318223
0.0010092891
-0.54166832
0.0033261033
-0.001226589
-0.56399375
-0.0031680361
-0.57359406
-0.0046705958
-0.58109804
-0.0055822226
-0.58635311
-0.0057862105
-0.58944369
-0.0051804971
-0.58964829
-0.0036629031
-0.58534496
-0.0011483405
-0.57728476
0.002421629
-0.56664674
0.0071507293
-0.56013335
0.0085490524
-0.60356354
0.010410383
-0.64938151
0.012778673
-0.69899608
0.015664333
-0.75221398
0.019054151
-0.80985607
0.022872713
-0.87158231
0.026974669
-0.93720572
0.031179905
-1.0078162
0.035265068
-1.0841692
0.038936095
-1.1664844
0.041837117
-1.2552181
0.043602879
-1.3510403
0.043946359
-1.4543161
0.042741816
-1.5649283
0.040071762
-1.6823601
0.03621365
-1.8061271
0.03157385
-1.9360196
0.026597116
-2.0719858
0.021683471
-2.2141318
0.017135021
-2.3627344
0.013138476
-2.5181112
0.0097755028
-2.6814065
0.0070477833
-2.8546463
0.0049057827
-3.0396267
0.0032732232
-3.2377081
0.0020655209
-3.4509431
0.0012007133
-3.6818737
0.00060705282
-3.9313358
0.00022299271
-4.1989793
-0.56434489
0.001050602
-0.55317355
0.0033549343
-0.5415398
0.0056149527
-0.001094211
-0.57469279
-0.0029553747
-0.58330552
-0.00436955
-0.58999635
-0.0052053209
-0.59479288
-0.0053482025
-0.59696092
-0.0046843417
-0.59485469
-0.0031142021
-0.58913947
-0.00056532073
-0.58102141
0.0030507337
-0.56911177
0.0078861924
-0.56439382
0.0095658267
-0.60714594
0.011807794
-0.6534224
0.014619111
-0.70306792
0.017977037
-0.75693926
0.021821432
-0.81461139
0.026034162
-0.87578787
0.030456445
-0.94156247
0.034894051
-1.0127369
0.03908057
-1.0894867
0.042661162
-1.1722474
0.045234049
-1.2617494
0.046428254
-1.3584453
0.046006139
-1.4624431
0.043939701
-1.5734901
0.040428885
-1.6909987
0.035855703
-1.8145199
0.030691999
-1.9439441
0.025400915
-2.0792227
0.020361563
-2.2204828
0.015832353
-2.3680614
0.01195021
-2.5224155
0.0087523742
-2.6847954
0.0062071134
-2.857385
0.0042429752
-3.0420117
0.0027715513
-3.2398978
0.0017031
-3.4529844
0.00095541324
-3.6836913
0.00045907034
-3.9327191
0.00015632246
-4.1999224
-0.575133
0.0011064301
-0.56430276
0.0033277365
-0.55290218
0.0055688017
-0.54124504
0.007599094
-0.00096001027
-0.58469904
-0.0027316856
-0.59267831
-0.0040636401
-0.59905074
-0.0048287765
-0.60307257
-0.0049011255
-0.60308845
-0.004168997
-0.59967334
-0.0025513653
-0.59400019
4.3694057e-05
-0.58468939
0.0037515224
-0.56993626
0.0087725417
-0.56773296
0.010832354
-0.61088209
0.013541775
-0.65713692
0.016851999
-0.70744181
0.020698354
-0.76135075
0.024980087
-0.81837558
0.029566325
-0.87964143
0.034293216
-0.94596397
0.038929585
-1.0174726
0.043143926
-1.0945845
0.046515054
-1.1780892
0.048606308
-1.2685086
0.049069141
-1.3660494
0.047749913
-1.470733
0.04474432
-1.5821123
0.040379748
-1.6995357
0.035133399
-1.8227066
0.029521739
-1.9515551
0.024003232
-2.0860584
0.018918118
-2.2263778
0.014471271
-2.3729422
0.010747212
-2.5262821
0.0077409316
-2.6878097
0.0053913233
-2.8598549
0.0036091805
-3.044188
0.0022975182
-3.2419167
0.0013639838
-3.4548498
0.0007277726
-3.685247
0.00032272209
-3.9338497
9.3296835e-05
-4.200569
-0.58526925
0.001159043
-0.57505188
0.0033067437
-0.56386988
0.0054757556
-0.55229901
0.0074840923
-0.54078575
0.0091103643
-0.00082007936
-0.59438368
-0.0025058922
-0.60219467
-0.0037604206
-0.60794735
-0.0044450315
-0.6099879
-0.004434321
-0.60880106
-0.0036414745
-0.60551925
-0.0019747803
-0.59873606
0.0006989225
-0.58668198
0.0045704881
-0.5698867
0.009900378
-0.57121671
0.012446443
-0.61427236
0.015686612
-0.6611743
0.019516073
-0.7115245
0.023835573
-0.76471205
0.028534423
-0.82176749
0.033486867
-0.88356521
0.038503478
-0.95015737
0.043287384
-1.0219288
0.047426791
-1.0997478
0.050435438
-1.1841916
0.051865496
-1.275526
0.051429765
-1.3739123
0.049094388
-1.4792074
0.04510048
-1.5907591
0.039901681
-1.7079694
0.034051639
-1.8306553
0.028085505
-1.9588103
0.022433485
-2.0924669
0.017381654
-2.2318272
0.013075143
-2.3773621
0.0095465467
-2.5297443
0.0067524437
-2.6905124
0.0046071378
-2.8620905
0.0030079881
-3.0462039
0.0018527278
-3.2437854
0.0010486598
-3.4565005
0.00051769204
-3.68658
0.00019764646
-3.9347071
3.3872673e-05
-4.200981
-0.59510199
0.0012123505
-0.58518643
0.0032776629
-0.57445409
0.0053805508
-0.56294242
0.0073313388
-0.55136825
0.0089358969
-0.54016476
0.0099837042
-0.00067965755
-0.60420829
-0.0022841901
-0.61155627
-0.0034521783
-0.61550611
-0.0040397767
-0.61645446
-0.0039520239
-0.61548359
-0.0031075671
-0.61119937
-0.0013773877
-0.60176498
0.0014316553
-0.58779438
0.005592481
-0.57000811
0.01138179
-0.57435896
0.014490667
-0.61798858
0.018286075
-0.66494558
0.022619034
-0.71451854
0.027388624
-0.76768574
0.032502846
-0.82525527
0.03782439
-0.88725653
0.043105642
-0.9540028
0.047958707
-1.0264257
0.051880462
-1.1051935
0.054335624
-1.190591
0.054904408
-1.2828707
0.053405784
-1.3821204
0.049960319
-1.4878891
0.044964896
-1.5994176
0.038986433
-1.7162537
0.032627856
-1.8383137
0.026413928
-1.9656676
0.020724832
-2.0984314
0.015781257
-2.2368115
0.011666238
-2.3813521
0.0083635107
-2.5328377
0.0057964712
-2.6929339
0.0038599397
-2.8641404
0.0024420077
-3.0480761
0.0014381567
-3.2454864
0.00075723552
-3.4579613
0.000324921
-3.6876686
8.3654649e-05
-3.9353453
-1.7477408e-05
-4.201163
-0.60507817
0.0012657235
-0.59503729
0.0032444561
-0.58445508
0.0052728002
-0.57320234
0.0071681713
-0.56152823
0.0087330415
-0.55011577
0.0097623334
-0.5393866
0.01005831
-0.00054272407
-0.6138768
-0.002059974
-0.61960646
-0.0031200917
-0.62257677
-0.0036110082
-0.62382007
-0.0034679404
-0.62197414
-0.0025807726
-0.61515756
-0.00074888968
-0.60392878
0.002317304
-0.58908662
0.0069405834
-0.56978315
0.013310584
-0.57781048
0.017014184
-0.62145998
0.021347172
-0.66761003
0.026153147
-0.71712056
0.031372913
-0.77078156
0.036921892
-0.82848781
0.042615248
-0.89052229
0.048114545
-0.95785631
0.052915431
-1.0312142
0.056427039
-1.1109566
0.058101765
-1.1973727
0.057598583
-1.2906834
0.054890609
-1.3906872
0.050278294
-1.4967103
0.044310546
-1.6080365
0.037641974
-1.7243377
0.030891375
-1.8456242
0.024544135
-1.9720956
0.018912567
-2.1039317
0.014145409
-2.2413379
0.010264984
-2.3849171
0.0072114398
-2.5355954
0.0048808748
-2.6951157
0.0031538094
-2.8660243
0.001912986
-3.0498121
0.0010542173
-3.2470343
0.00048947057
-3.4592079
0.00014909701
-3.6885538
-1.7997157e-05
-3.9357604
-6.0689721e-05
-4.2011796
-0.61489521
0.0013186254
-0.60504015
0.0032109143
-0.59419404
0.0051562658
-0.58290235
0.0069882676
-0.57130626
0.0085117049
-0.55963741
0.0095225945
-0.54855063
0.0098060477
-0.53845669
0.0091785359
-0.00040635745
-0.62226277
-0.0018132055
-0.62712826
-0.0027547234
-0.63047124
-0.0031810189
-0.63097522
-0.0030211999
-0.62674343
-0.0020751064
-0.61826127
-2.6209058e-05
-0.60627574
0.0034904621
-0.59002447
0.0087221607
-0.56981446
0.015743953
-0.58101086
0.020022864
-0.6238219
0.024850785
-0.66988053
0.030126572
-0.71986475
0.035829796
-0.77360269
0.041845192
-0.83121715
0.047901069
-0.89375309
0.053529198
-0.96199708
0.058096716
-1.0363236
0.060952893
-1.1171284
0.061592278
-1.2046979
0.059812994
-1.298997
0.055784014
-1.3995719
0.049996034
-1.5056365
0.043130078
-1.6165601
0.0358925
-1.73215
0.028881734
-1.852542
0.022517754
-1.9780618
0.017032441
-2.1089525
0.012500969
-2.2454081
0.0088896087
-2.3880967
0.0061015374
-2.5380406
0.0040118185
-2.6970786
0.0024916484
-2.8677528
0.0014218824
-3.0514153
0.00070082397
-3.2483928
0.0002448479
-3.4602703
-1.0379392e-05
-3.6892151
-0.00011456986
-3.9359956
-0.00010297663
-4.2010098
-0.6234553
0.0013680594
-0.6148783
0.0031798564
-0.60410096
0.0050379585
-0.59236342
0.006795069
-0.58054011
0.0082696664
-0.56877961
0.0092560751
-0.557283
0.0095448971
-0.54668355
0.0089140461
-0.53738121
0.0071956726
-0.00025699624
-0.63008402
-0.0015264238
-0.63539296
-0.0023815476
-0.63813818
-0.0028164285
-0.63642624
-0.0026553236
-0.63066985
-0.0015426975
-0.62154335
0.00093779645
-0.60827071
0.0050797643
-0.59118493
0.011010339
-0.5695037
0.018687784
-0.58312809
0.023481975
-0.6257769
0.028793141
-0.67230809
0.034582444
-0.72231457
0.040828289
-0.77584386
0.047343004
-0.83386545
0.053714638
-0.89725569
0.059314687
-0.96644294
0.063397539
-1.0418521
0.065304676
-1.1239124
0.064643793
-1.2126622
0.061411853
-1.3078175
0.056001085
-1.4087478
0.049083427
-1.5146175
0.041437117
-1.6249173
0.033777226
-1.7396302
0.026646422
-1.8590171
0.020378699
-1.9835388
0.015119139
-2.1134963
0.010872395
-2.2490498
0.0075557756
-2.3908977
0.0050428729
-2.5402038
0.0031938885
-2.6988324
0.0018752767
-2.8693277
0.00096894321
-3.0528403
0.00037750182
-3.2495785
2.3213984e-05
-3.4611181
-0.00015451915
-3.6896986
-0.00019933488
-3.9360406
-0.0001397841
-4.2007081
-0.6314197
0.0014106661
-0.62347201
0.0031427193
-0.61383604
0.0049226144
-0.60201768
0.0065976215
-0.58955893
0.0080097774
-0.5773847
0.0089651897
-0.56564119
0.0092501697
-0.55448095
0.0086511682
-0.544528
0.0069399599
-0.53616631
0.0039676428
-7.6578722e-05
-0.63855372
-0.001219502
-0.64340776
-0.0020937145
-0.64412906
-0.0025987254
-0.64105645
-0.0023389984
-0.63476527
-0.00081945076
-0.62447616
0.0022951405
-0.61045799
0.0071757632
-0.59192926
0.013825097
-0.56803465
0.022087829
-0.58483645
0.027370763
-0.62788559
0.033215752
-0.67442942
0.039603133
-0.72412139
0.046467943
-0.77795107
0.053487354
-0.836761
0.060056621
-0.90103252
0.065384706
-0.9712969
0.068660018
-1.0480477
0.069293025
-1.1314499
0.067081556
-1.2212946
0.062269927
-1.3171392
0.055480258
-1.4181566
0.047536443
-1.5235394
0.039266279
-1.6330184
0.031348099
-1.7467062
0.024238112
-1.8650047
0.018171003
-1.9885134
0.013205023
-2.1175713
0.0092812362
-2.2522717
0.006276497
-2.3933524
0.0040424193
-2.5420932
0.002430193
-2.7003872
0.0013055265
-2.8707074
0.00055382777
-3.054096
8.3609007e-05
-3.2505623