/*--------------------------------*- C++ -*----------------------------------*\
| =========                 |                                                 |
| \\      /  F ield         | OpenFOAM: The Open Source CFD Toolbox           |
|  \\    /   O peration     | Version:  v2012                                 |
|   \\  /    A nd           | Website:  www.openfoam.com                      |
|    \\/     M anipulation  |                                                 |
\*---------------------------------------------------------------------------*/
FoamFile
{
    version     2.0;
    format      ascii;
    class       pointVectorField;
    location    "6.14070038";
    object      pointDisplacement;
}
// * * * * * * * * * * * * * * * * * * * * * * * * * * * * * * * * * * * * * //

dimensions      [0 1 0 0 0 0 0];


internalField   nonuniform List<vector> 
18840
(
(0.73864056 0 0)
(0.73866667 0 0)
(0.73874446 0 0)
(0.73887292 0 0)
(0.73905103 0 0)
(0.73927768 0 0)
(0.73955166 0 0)
(0.7398716 0 0)
(0.7402361 0 0)
(0.74064366 0 0)
(0.74109261 0 0)
(0.74158127 0 0)
(0.74210779 0 0)
(0.74267031 0 0)
(0.74326675 0 0)
(0.74389509 0 0)
(0.74455311 0 0)
(0.74523857 0 0)
(0.74594872 0 0)
(0.74668059 0 0)
(0.74756763 0 0)
(0.73864056 0 0)
(0.73866632 0 0)
(0.73874307 0 0)
(0.73886979 0 0)
(0.73904544 0 0)
(0.73926891 0 0)
(0.73953894 0 0)
(0.73985422 0 0)
(0.74021329 0 0)
(0.74061464 0 0)
(0.7410566 0 0)
(0.74153744 0 0)
(0.7420553 0 0)
(0.74260824 0 0)
(0.74319425 0 0)
(0.74381116 0 0)
(0.74445679 0 0)
(0.74512877 0 0)
(0.74582452 0 0)
(0.74654106 0 0)
(0.74725106 0 0)
(0.73864056 0 0)
(0.73866598 0 0)
(0.73874172 0 0)
(0.73886674 0 0)
(0.73903997 0 0)
(0.73926026 0 0)
(0.73952634 0 0)
(0.73983684 0 0)
(0.74019028 0 0)
(0.74058506 0 0)
(0.7410195 0 0)
(0.74149174 0 0)
(0.74199989 0 0)
(0.74254189 0 0)
(0.74311562 0 0)
(0.74371884 0 0)
(0.74434923 0 0)
(0.74500438 0 0)
(0.74568173 0 0)
(0.74637864 0 0)
(0.74707618 0 0)
(0.73864056 0 0)
(0.73866559 0 0)
(0.73874016 0 0)
(0.73886322 0 0)
(0.73903368 0 0)
(0.73925034 0 0)
(0.73951189 0 0)
(0.73981691 0 0)
(0.74016385 0 0)
(0.74055105 0 0)
(0.74097671 0 0)
(0.74143889 0 0)
(0.74193556 0 0)
(0.74246454 0 0)
(0.74302354 0 0)
(0.74361015 0 0)
(0.74422188 0 0)
(0.7448561 0 0)
(0.74551008 0 0)
(0.74618098 0 0)
(0.7468573 0 0)
(0.73864056 0 0)
(0.73866513 0 0)
(0.73873836 0 0)
(0.73885918 0 0)
(0.73902649 0 0)
(0.73923906 0 0)
(0.73949549 0 0)
(0.73979432 0 0)
(0.74013391 0 0)
(0.74051252 0 0)
(0.74092822 0 0)
(0.74137897 0 0)
(0.74186256 0 0)
(0.74237663 0 0)
(0.74291872 0 0)
(0.7434862 0 0)
(0.74407635 0 0)
(0.74468624 0 0)
(0.74531292 0 0)
(0.74595321 0 0)
(0.74660257 0 0)
(0.73864056 0 0)
(0.73866462 0 0)
(0.73873631 0 0)
(0.7388546 0 0)
(0.73901836 0 0)
(0.73922635 0 0)
(0.73947711 0 0)
(0.73976904 0 0)
(0.74010048 0 0)
(0.74046955 0 0)
(0.74087424 0 0)
(0.74131232 0 0)
(0.74178143 0 0)
(0.74227902 0 0)
(0.74280239 0 0)
(0.7433487 0 0)
(0.74391492 0 0)
(0.74449792 0 0)
(0.74509434 0 0)
(0.74570078 0 0)
(0.74631871 0 0)
(0.73864056 0 0)
(0.73866405 0 0)
(0.73873402 0 0)
(0.73884946 0 0)
(0.73900928 0 0)
(0.73921218 0 0)
(0.73945667 0 0)
(0.73974104 0 0)
(0.74006356 0 0)
(0.74042222 0 0)
(0.74081491 0 0)
(0.74123925 0 0)
(0.7416927 0 0)
(0.74217249 0 0)
(0.7426757 0 0)
(0.74319925 0 0)
(0.74373983 0 0)
(0.74429401 0 0)
(0.74485807 0 0)
(0.74542832 0 0)
(0.74601147 0 0)
(0.73864056 0 0)
(0.73866341 0 0)
(0.73873149 0 0)
(0.73884378 0 0)
(0.73899923 0 0)
(0.73919654 0 0)
(0.73943414 0 0)
(0.73971026 0 0)
(0.74002304 0 0)
(0.74037044 0 0)
(0.74075019 0 0)
(0.74115979 0 0)
(0.74159649 0 0)
(0.74205737 0 0)
(0.74253923 0 0)
(0.74303874 0 0)
(0.74355236 0 0)
(0.74407628 0 0)
(0.74460655 0 0)
(0.74513897 0 0)
(0.7456848 0 0)
(0.73864056 0 0)
(0.73866271 0 0)
(0.7387287 0 0)
(0.73883756 0 0)
(0.73898822 0 0)
(0.7391794 0 0)
(0.73940948 0 0)
(0.73967663 0 0)
(0.73997887 0 0)
(0.74031412 0 0)
(0.74067997 0 0)
(0.74107381 0 0)
(0.74149272 0 0)
(0.74193359 0 0)
(0.74239302 0 0)
(0.74286741 0 0)
(0.74335293 0 0)
(0.74384552 0 0)
(0.74434086 0 0)
(0.7448344 0 0)
(0.74534092 0 0)
(0.73864056 0 0)
(0.73866195 0 0)
(0.73872569 0 0)
(0.7388308 0 0)
(0.73897626 0 0)
(0.73916079 0 0)
(0.73938274 0 0)
(0.73964019 0 0)
(0.7399311 0 0)
(0.7402533 0 0)
(0.7406043 0 0)
(0.74098137 0 0)
(0.74138145 0 0)
(0.74180126 0 0)
(0.74223721 0 0)
(0.74268548 0 0)
(0.74314195 0 0)
(0.74360229 0 0)
(0.74406187 0 0)
(0.7445158 0 0)
(0.7449817 0 0)
(0.73864056 0 0)
(0.73866118 0 0)
(0.73872261 0 0)
(0.73882389 0 0)
(0.73896402 0 0)
(0.73914172 0 0)
(0.7393553 0 0)
(0.73960276 0 0)
(0.73988199 0 0)
(0.74019074 0 0)
(0.74052643 0 0)
(0.74088622 0 0)
(0.74126693 0 0)
(0.74166511 0 0)
(0.742077 0 0)
(0.74249855 0 0)
(0.74292543 0 0)
(0.743353 0 0)
(0.74377635 0 0)
(0.74419024 0 0)
(0.7446145 0 0)
(0.73864056 0 0)
(0.73866667 0 0)
(0.73874446 0 0)
(0.73887292 0 0)
(0.73905103 0 0)
(0.73927768 0 0)
(0.73955166 0 0)
(0.7398716 0 0)
(0.7402361 0 0)
(0.74064366 0 0)
(0.74109261 0 0)
(0.74158127 0 0)
(0.74210779 0 0)
(0.74267031 0 0)
(0.74326675 0 0)
(0.74389509 0 0)
(0.74455311 0 0)
(0.74523857 0 0)
(0.74594872 0 0)
(0.74668059 0 0)
(0.74756763 0 0)
(0.73864056 0 0)
(0.73866632 0 0)
(0.73874307 0 0)
(0.73886979 0 0)
(0.73904544 0 0)
(0.73926891 0 0)
(0.73953894 0 0)
(0.73985422 0 0)
(0.74021329 0 0)
(0.74061464 0 0)
(0.7410566 0 0)
(0.74153744 0 0)
(0.7420553 0 0)
(0.74260824 0 0)
(0.74319425 0 0)
(0.74381116 0 0)
(0.74445679 0 0)
(0.74512877 0 0)
(0.74582452 0 0)
(0.74654106 0 0)
(0.74725106 0 0)
(0.73864056 0 0)
(0.73866598 0 0)
(0.73874172 0 0)
(0.73886674 0 0)
(0.73903997 0 0)
(0.73926026 0 0)
(0.73952634 0 0)
(0.73983684 0 0)
(0.74019028 0 0)
(0.74058506 0 0)
(0.7410195 0 0)
(0.74149174 0 0)
(0.74199989 0 0)
(0.74254189 0 0)
(0.74311562 0 0)
(0.74371884 0 0)
(0.74434923 0 0)
(0.74500438 0 0)
(0.74568173 0 0)
(0.74637864 0 0)
(0.74707618 0 0)
(0.73864056 0 0)
(0.73866559 0 0)
(0.73874016 0 0)
(0.73886322 0 0)
(0.73903368 0 0)
(0.73925034 0 0)
(0.73951189 0 0)
(0.73981691 0 0)
(0.74016385 0 0)
(0.74055105 0 0)
(0.74097671 0 0)
(0.74143889 0 0)
(0.74193556 0 0)
(0.74246454 0 0)
(0.74302354 0 0)
(0.74361015 0 0)
(0.74422188 0 0)
(0.7448561 0 0)
(0.74551008 0 0)
(0.74618098 0 0)
(0.7468573 0 0)
(0.73864056 0 0)
(0.73866513 0 0)
(0.73873836 0 0)
(0.73885918 0 0)
(0.73902649 0 0)
(0.73923906 0 0)
(0.73949549 0 0)
(0.73979432 0 0)
(0.74013391 0 0)
(0.74051252 0 0)
(0.74092822 0 0)
(0.74137897 0 0)
(0.74186256 0 0)
(0.74237663 0 0)
(0.74291872 0 0)
(0.7434862 0 0)
(0.74407635 0 0)
(0.74468624 0 0)
(0.74531292 0 0)
(0.74595321 0 0)
(0.74660257 0 0)
(0.73864056 0 0)
(0.73866462 0 0)
(0.73873631 0 0)
(0.7388546 0 0)
(0.73901836 0 0)
(0.73922635 0 0)
(0.73947711 0 0)
(0.73976904 0 0)
(0.74010048 0 0)
(0.74046955 0 0)
(0.74087424 0 0)
(0.74131232 0 0)
(0.74178143 0 0)
(0.74227902 0 0)
(0.74280239 0 0)
(0.7433487 0 0)
(0.74391492 0 0)
(0.74449792 0 0)
(0.74509434 0 0)
(0.74570078 0 0)
(0.74631871 0 0)
(0.73864056 0 0)
(0.73866405 0 0)
(0.73873402 0 0)
(0.73884946 0 0)
(0.73900928 0 0)
(0.73921218 0 0)
(0.73945667 0 0)
(0.73974104 0 0)
(0.74006356 0 0)
(0.74042222 0 0)
(0.74081491 0 0)
(0.74123925 0 0)
(0.7416927 0 0)
(0.74217249 0 0)
(0.7426757 0 0)
(0.74319925 0 0)
(0.74373983 0 0)
(0.74429401 0 0)
(0.74485807 0 0)
(0.74542832 0 0)
(0.74601147 0 0)
(0.73864056 0 0)
(0.73866341 0 0)
(0.73873149 0 0)
(0.73884378 0 0)
(0.73899923 0 0)
(0.73919654 0 0)
(0.73943414 0 0)
(0.73971026 0 0)
(0.74002304 0 0)
(0.74037044 0 0)
(0.74075019 0 0)
(0.74115979 0 0)
(0.74159649 0 0)
(0.74205737 0 0)
(0.74253923 0 0)
(0.74303874 0 0)
(0.74355236 0 0)
(0.74407628 0 0)
(0.74460655 0 0)
(0.74513897 0 0)
(0.7456848 0 0)
(0.73864056 0 0)
(0.73866271 0 0)
(0.7387287 0 0)
(0.73883756 0 0)
(0.73898822 0 0)
(0.7391794 0 0)
(0.73940948 0 0)
(0.73967663 0 0)
(0.73997887 0 0)
(0.74031412 0 0)
(0.74067997 0 0)
(0.74107381 0 0)
(0.74149272 0 0)
(0.74193359 0 0)
(0.74239302 0 0)
(0.74286741 0 0)
(0.74335293 0 0)
(0.74384552 0 0)
(0.74434086 0 0)
(0.7448344 0 0)
(0.74534092 0 0)
(0.73864056 0 0)
(0.73866195 0 0)
(0.73872569 0 0)
(0.7388308 0 0)
(0.73897626 0 0)
(0.73916079 0 0)
(0.73938274 0 0)
(0.73964019 0 0)
(0.7399311 0 0)
(0.7402533 0 0)
(0.7406043 0 0)
(0.74098137 0 0)
(0.74138145 0 0)
(0.74180126 0 0)
(0.74223721 0 0)
(0.74268548 0 0)
(0.74314195 0 0)
(0.74360229 0 0)
(0.74406187 0 0)
(0.7445158 0 0)
(0.7449817 0 0)
(0.73864056 0 0)
(0.73866118 0 0)
(0.73872261 0 0)
(0.73882389 0 0)
(0.73896402 0 0)
(0.73914172 0 0)
(0.7393553 0 0)
(0.73960276 0 0)
(0.73988199 0 0)
(0.74019074 0 0)
(0.74052643 0 0)
(0.74088622 0 0)
(0.74126693 0 0)
(0.74166511 0 0)
(0.742077 0 0)
(0.74249855 0 0)
(0.74292543 0 0)
(0.743353 0 0)
(0.74377635 0 0)
(0.74419024 0 0)
(0.7446145 0 0)
(0.73864056 0 0)
(0.73867193 0 0)
(0.73876543 0 0)
(0.73891978 0 0)
(0.73913365 0 0)
(0.73940557 0 0)
(0.73973379 0 0)
(0.74011625 0 0)
(0.74055066 0 0)
(0.74103441 0 0)
(0.7415646 0 0)
(0.74213804 0 0)
(0.74275125 0 0)
(0.7434005 0 0)
(0.74408186 0 0)
(0.74479123 0 0)
(0.74552442 0 0)
(0.7462771 0 0)
(0.74704487 0 0)
(0.74782325 0 0)
(0.74867249 0 0)
(0.73864056 0 0)
(0.73867125 0 0)
(0.73876269 0 0)
(0.73891359 0 0)
(0.73912258 0 0)
(0.73938816 0 0)
(0.7397086 0 0)
(0.74008186 0 0)
(0.74050573 0 0)
(0.74097772 0 0)
(0.74149509 0 0)
(0.74205484 0 0)
(0.7426537 0 0)
(0.74328817 0 0)
(0.74395454 0 0)
(0.74464894 0 0)
(0.74536735 0 0)
(0.74610558 0 0)
(0.74685933 0 0)
(0.74762417 0 0)
(0.74846175 0 0)
(0.73864056 0 0)
(0.73867063 0 0)
(0.73876019 0 0)
(0.73890794 0 0)
(0.7391125 0 0)
(0.7393724 0 0)
(0.73968591 0 0)
(0.74005108 0 0)
(0.74046578 0 0)
(0.74092766 0 0)
(0.74143416 0 0)
(0.74198242 0 0)
(0.7425694 0 0)
(0.74319178 0 0)
(0.74384609 0 0)
(0.74452863 0 0)
(0.74523557 0 0)
(0.7459629 0 0)
(0.74670642 0 0)
(0.74746178 0 0)
(0.7482898 0 0)
(0.73864056 0 0)
(0.73867002 0 0)
(0.73875777 0 0)
(0.73890251 0 0)
(0.7391029 0 0)
(0.73935747 0 0)
(0.73966458 0 0)
(0.74002237 0 0)
(0.74042882 0 0)
(0.74088171 0 0)
(0.74137862 0 0)
(0.7419169 0 0)
(0.74249367 0 0)
(0.74310583 0 0)
(0.74375012 0 0)
(0.74442307 0 0)
(0.74512107 0 0)
(0.74584027 0 0)
(0.74657669 0 0)
(0.74732609 0 0)
(0.74814658 0 0)
(0.73864056 0 0)
(0.73866945 0 0)
(0.73875551 0 0)
(0.73889745 0 0)
(0.73909398 0 0)
(0.73934369 0 0)
(0.73964502 0 0)
(0.73999618 0 0)
(0.74039528 0 0)
(0.74084024 0 0)
(0.74132878 0 0)
(0.74185842 0 0)
(0.74242649 0 0)
(0.7430301 0 0)
(0.74366622 0 0)
(0.7443316 0 0)
(0.7450229 0 0)
(0.7457365 0 0)
(0.74646866 0 0)
(0.74721538 0 0)
(0.74803014 0 0)
(0.73864056 0 0)
(0.73866892 0 0)
(0.73875341 0 0)
(0.73889278 0 0)
(0.73908578 0 0)
(0.73933107 0 0)
(0.73962716 0 0)
(0.73997238 0 0)
(0.74036491 0 0)
(0.74080283 0 0)
(0.74128401 0 0)
(0.74180614 0 0)
(0.74236674 0 0)
(0.74296315 0 0)
(0.74359257 0 0)
(0.74425202 0 0)
(0.74493841 0 0)
(0.74564841 0 0)
(0.74637859 0 0)
(0.74712526 0 0)
(0.74793555 0 0)
(0.73864056 0 0)
(0.73866843 0 0)
(0.73875146 0 0)
(0.73888844 0 0)
(0.73907818 0 0)
(0.73931942 0 0)
(0.73961072 0 0)
(0.7399505 0 0)
(0.74033708 0 0)
(0.74076863 0 0)
(0.74124319 0 0)
(0.7417586 0 0)
(0.74231259 0 0)
(0.74290272 0 0)
(0.74352642 0 0)
(0.74418097 0 0)
(0.74486355 0 0)
(0.74557116 0 0)
(0.74630069 0 0)
(0.74704885 0 0)
(0.747855 0 0)
(0.73864056 0 0)
(0.73866797 0 0)
(0.73874962 0 0)
(0.73888435 0 0)
(0.73907104 0 0)
(0.73930847 0 0)
(0.73959529 0 0)
(0.73993 0 0)
(0.740311 0 0)
(0.7407366 0 0)
(0.74120495 0 0)
(0.74171407 0 0)
(0.74226186 0 0)
(0.74284607 0 0)
(0.74346436 0 0)
(0.74411426 0 0)
(0.74479321 0 0)
(0.74549851 0 0)
(0.74622743 0 0)
(0.74697706 0 0)
(0.74777809 0 0)
(0.73864056 0 0)
(0.73866752 0 0)
(0.73874784 0 0)
(0.73888042 0 0)
(0.73906417 0 0)
(0.73929794 0 0)
(0.73958045 0 0)
(0.73991024 0 0)
(0.74028583 0 0)
(0.7407056 0 0)
(0.74116783 0 0)
(0.74167065 0 0)
(0.7422121 0 0)
(0.74279013 0 0)
(0.74340257 0 0)
(0.74404714 0 0)
(0.74472149 0 0)
(0.74542322 0 0)
(0.74614987 0 0)
(0.7468989 0 0)
(0.74769202 0 0)
(0.73864056 0 0)
(0.73866708 0 0)
(0.7387461 0 0)
(0.73887655 0 0)
(0.73905744 0 0)
(0.7392876 0 0)
(0.73956583 0 0)
(0.73989071 0 0)
(0.74026082 0 0)
(0.74067462 0 0)
(0.74113046 0 0)
(0.74162655 0 0)
(0.74216104 0 0)
(0.74273203 0 0)
(0.74333739 0 0)
(0.74397505 0 0)
(0.74464273 0 0)
(0.74533829 0 0)
(0.74605912 0 0)
(0.74680271 0 0)
(0.74758175 0 0)
(0.73864056 0 0)
(0.73867193 0 0)
(0.73876543 0 0)
(0.73891978 0 0)
(0.73913365 0 0)
(0.73940557 0 0)
(0.73973379 0 0)
(0.74011625 0 0)
(0.74055066 0 0)
(0.74103441 0 0)
(0.7415646 0 0)
(0.74213804 0 0)
(0.74275125 0 0)
(0.7434005 0 0)
(0.74408186 0 0)
(0.74479123 0 0)
(0.74552442 0 0)
(0.7462771 0 0)
(0.74704487 0 0)
(0.74782325 0 0)
(0.74867249 0 0)
(0.73864056 0 0)
(0.73867125 0 0)
(0.73876269 0 0)
(0.73891359 0 0)
(0.73912258 0 0)
(0.73938816 0 0)
(0.7397086 0 0)
(0.74008186 0 0)
(0.74050573 0 0)
(0.74097772 0 0)
(0.74149509 0 0)
(0.74205484 0 0)
(0.7426537 0 0)
(0.74328817 0 0)
(0.74395454 0 0)
(0.74464894 0 0)
(0.74536735 0 0)
(0.74610558 0 0)
(0.74685933 0 0)
(0.74762417 0 0)
(0.74846175 0 0)
(0.73864056 0 0)
(0.73867063 0 0)
(0.73876019 0 0)
(0.73890794 0 0)
(0.7391125 0 0)
(0.7393724 0 0)
(0.73968591 0 0)
(0.74005108 0 0)
(0.74046578 0 0)
(0.74092766 0 0)
(0.74143416 0 0)
(0.74198242 0 0)
(0.7425694 0 0)
(0.74319178 0 0)
(0.74384609 0 0)
(0.74452863 0 0)
(0.74523557 0 0)
(0.7459629 0 0)
(0.74670642 0 0)
(0.74746178 0 0)
(0.7482898 0 0)
(0.73864056 0 0)
(0.73867002 0 0)
(0.73875777 0 0)
(0.73890251 0 0)
(0.7391029 0 0)
(0.73935747 0 0)
(0.73966458 0 0)
(0.74002237 0 0)
(0.74042882 0 0)
(0.74088171 0 0)
(0.74137862 0 0)
(0.7419169 0 0)
(0.74249367 0 0)
(0.74310583 0 0)
(0.74375012 0 0)
(0.74442307 0 0)
(0.74512107 0 0)
(0.74584027 0 0)
(0.74657669 0 0)
(0.74732609 0 0)
(0.74814658 0 0)
(0.73864056 0 0)
(0.73866945 0 0)
(0.73875551 0 0)
(0.73889745 0 0)
(0.73909398 0 0)
(0.73934369 0 0)
(0.73964502 0 0)
(0.73999618 0 0)
(0.74039528 0 0)
(0.74084024 0 0)
(0.74132878 0 0)
(0.74185842 0 0)
(0.74242649 0 0)
(0.7430301 0 0)
(0.74366622 0 0)
(0.7443316 0 0)
(0.7450229 0 0)
(0.7457365 0 0)
(0.74646866 0 0)
(0.74721538 0 0)
(0.74803014 0 0)
(0.73864056 0 0)
(0.73866892 0 0)
(0.73875341 0 0)
(0.73889278 0 0)
(0.73908578 0 0)
(0.73933107 0 0)
(0.73962716 0 0)
(0.73997238 0 0)
(0.74036491 0 0)
(0.74080283 0 0)
(0.74128401 0 0)
(0.74180614 0 0)
(0.74236674 0 0)
(0.74296315 0 0)
(0.74359257 0 0)
(0.74425202 0 0)
(0.74493841 0 0)
(0.74564841 0 0)
(0.74637859 0 0)
(0.74712526 0 0)
(0.74793555 0 0)
(0.73864056 0 0)
(0.73866843 0 0)
(0.73875146 0 0)
(0.73888844 0 0)
(0.73907818 0 0)
(0.73931942 0 0)
(0.73961072 0 0)
(0.7399505 0 0)
(0.74033708 0 0)
(0.74076863 0 0)
(0.74124319 0 0)
(0.7417586 0 0)
(0.74231259 0 0)
(0.74290272 0 0)
(0.74352642 0 0)
(0.74418097 0 0)
(0.74486355 0 0)
(0.74557116 0 0)
(0.74630069 0 0)
(0.74704885 0 0)
(0.747855 0 0)
(0.73864056 0 0)
(0.73866797 0 0)
(0.73874962 0 0)
(0.73888435 0 0)
(0.73907104 0 0)
(0.73930847 0 0)
(0.73959529 0 0)
(0.73993 0 0)
(0.740311 0 0)
(0.7407366 0 0)
(0.74120495 0 0)
(0.74171407 0 0)
(0.74226186 0 0)
(0.74284607 0 0)
(0.74346436 0 0)
(0.74411426 0 0)
(0.74479321 0 0)
(0.74549851 0 0)
(0.74622743 0 0)
(0.74697706 0 0)
(0.74777809 0 0)
(0.73864056 0 0)
(0.73866752 0 0)
(0.73874784 0 0)
(0.73888042 0 0)
(0.73906417 0 0)
(0.73929794 0 0)
(0.73958045 0 0)
(0.73991024 0 0)
(0.74028583 0 0)
(0.7407056 0 0)
(0.74116783 0 0)
(0.74167065 0 0)
(0.7422121 0 0)
(0.74279013 0 0)
(0.74340257 0 0)
(0.74404714 0 0)
(0.74472149 0 0)
(0.74542322 0 0)
(0.74614987 0 0)
(0.7468989 0 0)
(0.74769202 0 0)
(0.73864056 0 0)
(0.73866708 0 0)
(0.7387461 0 0)
(0.73887655 0 0)
(0.73905744 0 0)
(0.7392876 0 0)
(0.73956583 0 0)
(0.73989071 0 0)
(0.74026082 0 0)
(0.74067462 0 0)
(0.74113046 0 0)
(0.74162655 0 0)
(0.74216104 0 0)
(0.74273203 0 0)
(0.74333739 0 0)
(0.74397505 0 0)
(0.74464273 0 0)
(0.74533829 0 0)
(0.74605912 0 0)
(0.74680271 0 0)
(0.74758175 0 0)
(0.74966017 0 0)
(0.75070868 0 0)
(0.75174196 0 0)
(0.75274552 0 0)
(0.75370429 0 0)
(0.75460049 0 0)
(0.75541038 0 0)
(0.75610312 0 0)
(0.75664367 0 0)
(0.75699416 0 0)
(0.75711363 0 0)
(0.75695966 0 0)
(0.75649364 0 0)
(0.75567931 0 0)
(0.75447704 0 0)
(0.75284181 0 0)
(0.75072969 0 0)
(0.74810326 0 0)
(0.74491801 0 0)
(0.74113035 0 0)
(0.73669834 0 0)
(0.73157479 0 0)
(0.72571057 0 0)
(0.71906439 0 0)
(0.71158858 0 0)
(0.70321928 0 0)
(0.69389324 0 0)
(0.6835637 0 0)
(0.67217013 0 0)
(0.65961926 0 0)
(0.64583272 0 0)
(0.63076433 0 0)
(0.61433325 0 0)
(0.59639927 0 0)
(0.57687335 0 0)
(0.55569127 0 0)
(0.53267851 0 0)
(0.50768288 0 0)
(0.48064276 0 0)
(0.45140589 0 0)
(0.41969357 0 0)
(0.38540172 0 0)
(0.34852595 0 0)
(0.30887508 0 0)
(0.2662019 0 0)
(0.22028435 0 0)
(0.17092068 0 0)
(0.11787101 0 0)
(0.060908291 0 0)
(0 0 0)
(0.74944168 0 0)
(0.75048502 0 0)
(0.75151503 0 0)
(0.75251804 0 0)
(0.75347998 0 0)
(0.75438395 0 0)
(0.75520654 0 0)
(0.75591609 0 0)
(0.75647637 0 0)
(0.75684883 0 0)
(0.75699109 0 0)
(0.75685952 0 0)
(0.75641518 0 0)
(0.75562168 0 0)
(0.75443921 0 0)
(0.75282313 0 0)
(0.75073065 0 0)
(0.74812278 0 0)
(0.74495383 0 0)
(0.74118107 0 0)
(0.73676363 0 0)
(0.73165418 0 0)
(0.72580287 0 0)
(0.71916823 0 0)
(0.71170359 0 0)
(0.70334494 0 0)
(0.69402803 0 0)
(0.68370588 0 0)
(0.67231929 0 0)
(0.65977494 0 0)
(0.64599314 0 0)
(0.63092761 0 0)
(0.6144989 0 0)
(0.59656644 0 0)
(0.57703985 0 0)
(0.55585735 0 0)
(0.53284241 0 0)
(0.50784256 0 0)
(0.48079706 0 0)
(0.45155414 0 0)
(0.41983215 0 0)
(0.38552514 0 0)
(0.34863221 0 0)
(0.30896419 0 0)
(0.26627483 0 0)
(0.22034284 0 0)
(0.1709678 0 0)
(0.11790635 0 0)
(0.06092785 0 0)
(0 0 0)
(0.74926001 0 0)
(0.75029468 0 0)
(0.75131839 0 0)
(0.75231816 0 0)
(0.75328087 0 0)
(0.75419069 0 0)
(0.75502448 0 0)
(0.75575025 0 0)
(0.75633109 0 0)
(0.75672719 0 0)
(0.75689507 0 0)
(0.75679032 0 0)
(0.7563733 0 0)
(0.7556072 0 0)
(0.75445209 0 0)
(0.75286399 0 0)
(0.75080035 0 0)
(0.74822068 0 0)
(0.74507876 0 0)
(0.74133172 0 0)
(0.7369392 0 0)
(0.73185421 0 0)
(0.72602671 0 0)
(0.71941424 0 0)
(0.71197049 0 0)
(0.70363189 0 0)
(0.69433372 0 0)
(0.68402792 0 0)
(0.67265593 0 0)
(0.66012491 0 0)
(0.64635443 0 0)
(0.63129749 0 0)
(0.61487517 0 0)
(0.59694697 0 0)
(0.57742199 0 0)
(0.55623989 0 0)
(0.53322173 0 0)
(0.50821545 0 0)
(0.48116045 0 0)
(0.45190493 0 0)
(0.42016543 0 0)
(0.3858342 0 0)
(0.34891239 0 0)
(0.3092119 0 0)
(0.26648763 0 0)
(0.22051987 0 0)
(0.1711094 0 0)
(0.11800841 0 0)
(0.060982541 0 0)
(0 0 0)
(0.74910558 0 0)
(0.75012885 0 0)
(0.75114417 0 0)
(0.75213906 0 0)
(0.75310122 0 0)
(0.75401572 0 0)
(0.75486018 0 0)
(0.75560254 0 0)
(0.75620531 0 0)
(0.75662768 0 0)
(0.75682502 0 0)
(0.75675233 0 0)
(0.75636951 0 0)
(0.75563908 0 0)
(0.7545205 0 0)
(0.75297032 0 0)
(0.75094627 0 0)
(0.74840601 0 0)
(0.74530266 0 0)
(0.74159355 0 0)
(0.73723813 0 0)
(0.73218936 0 0)
(0.72639715 0 0)
(0.71981836 0 0)
(0.71240672 0 0)
(0.70409857 0 0)
(0.69482867 0 0)
(0.68454845 0 0)
(0.6731997 0 0)
(0.66068933 0 0)
(0.64693624 0 0)
(0.63189329 0 0)
(0.61548192 0 0)
(0.59756083 0 0)
(0.57803854 0 0)
(0.55685714 0 0)
(0.53383467 0 0)
(0.50881849 0 0)
(0.48174866 0 0)
(0.45247339 0 0)
(0.42070768 0 0)
(0.38634162 0 0)
(0.34937753 0 0)
(0.30962818 0 0)
(0.26684903 0 0)
(0.22082234 0 0)
(0.17135049 0 0)
(0.1181806 0 0)
(0.061074026 0 0)
(0 0 0)
(0.74897629 0 0)
(0.7499853 0 0)
(0.75099008 0 0)
(0.75197848 0 0)
(0.75293883 0 0)
(0.75385706 0 0)
(0.75471151 0 0)
(0.75547046 0 0)
(0.75609602 0 0)
(0.75654657 0 0)
(0.75677664 0 0)
(0.7567409 0 0)
(0.75639865 0 0)
(0.75571157 0 0)
(0.75463869 0 0)
(0.75313645 0 0)
(0.75116215 0 0)
(0.74867215 0 0)
(0.74561935 0 0)
(0.74196014 0 0)
(0.73765363 0 0)
(0.73265299 0 0)
(0.726908 0 0)
(0.7203744 0 0)
(0.71300568 0 0)
(0.70473833 0 0)
(0.69550673 0 0)
(0.68526144 0 0)
(0.67394415 0 0)
(0.66146169 0 0)
(0.64773263 0 0)
(0.63270938 0 0)
(0.61631307 0 0)
(0.59840169 0 0)
(0.5788839 0 0)
(0.55770333 0 0)
(0.53467519 0 0)
(0.50964651 0 0)
(0.48255719 0 0)
(0.45325483 0 0)
(0.42145406 0 0)
(0.38704325 0 0)
(0.35002422 0 0)
(0.31020968 0 0)
(0.2673559 0 0)
(0.2212479 0 0)
(0.17168933 0 0)
(0.11842148 0 0)
(0.06120152 0 0)
(0 0 0)
(0.74886692 0 0)
(0.74985861 0 0)
(0.75085045 0 0)
(0.75183058 0 0)
(0.7527878 0 0)
(0.75370874 0 0)
(0.75457243 0 0)
(0.75534768 0 0)
(0.7559965 0 0)
(0.7564765 0 0)
(0.75674202 0 0)
(0.75674767 0 0)
(0.75645204 0 0)
(0.75581582 0 0)
(0.75479736 0 0)
(0.75335276 0 0)
(0.75143855 0 0)
(0.74900974 0 0)
(0.74601885 0 0)
(0.74242174 0 0)
(0.73817654 0 0)
(0.73323593 0 0)
(0.7275496 0 0)
(0.72107285 0 0)
(0.71375848 0 0)
(0.70554233 0 0)
(0.69635857 0 0)
(0.68615766 0 0)
(0.67488081 0 0)
(0.66243373 0 0)
(0.64873472 0 0)
(0.63373687 0 0)
(0.61736056 0 0)
(0.59946178 0 0)
(0.57994983 0 0)
(0.55877065 0 0)
(0.53573616 0 0)
(0.51069215 0 0)
(0.48357885 0 0)
(0.45424302 0 0)
(0.42239881 0 0)
(0.38793324 0 0)
(0.35084681 0 0)
(0.31095178 0 0)
(0.26800459 0 0)
(0.22179328 0 0)
(0.17212306 0 0)
(0.11872915 0 0)
(0.061364018 0 0)
(0 0 0)
(0.74876942 0 0)
(0.74974063 0 0)
(0.75071691 0 0)
(0.75168678 0 0)
(0.75263938 0 0)
(0.75356175 0 0)
(0.75443377 0 0)
(0.75522467 0 0)
(0.75589633 0 0)
(0.75640669 0 0)
(0.75671021 0 0)
(0.75676125 0 0)
(0.75651765 0 0)
(0.75593933 0 0)
(0.75498388 0 0)
(0.7536064 0 0)
(0.75176234 0 0)
(0.74940587 0 0)
(0.7464887 0 0)
(0.74296557 0 0)
(0.73879388 0 0)
(0.73392561 0 0)
(0.72830988 0 0)
(0.72190147 0 0)
(0.71465263 0 0)
(0.70649846 0 0)
(0.69737265 0 0)
(0.68722555 0 0)
(0.67599781 0 0)
(0.66359379 0 0)
(0.6499316 0 0)
(0.63496488 0 0)
(0.6186131 0 0)
(0.60073009 0 0)
(0.58122589 0 0)
(0.56004849 0 0)
(0.53700711 0 0)
(0.51194607 0 0)
(0.4848049 0 0)
(0.45542914 0 0)
(0.4235336 0 0)
(0.38900417 0 0)
(0.35183877 0 0)
(0.3118482 0 0)
(0.26878946 0 0)
(0.22245405 0 0)
(0.17264836 0 0)
(0.11910107 0 0)
(0.061560094 0 0)
(0 0 0)
(0.74867305 0 0)
(0.74962074 0 0)
(0.75057898 0 0)
(0.75153661 0 0)
(0.75248289 0 0)
(0.75340528 0 0)
(0.754284 0 0)
(0.75508904 0 0)
(0.75578309 0 0)
(0.75632431 0 0)
(0.75666764 0 0)
(0.7567675 0 0)
(0.75658112 0 0)
(0.75606745 0 0)
(0.75518294 0 0)
(0.75388167 0 0)
(0.75211813 0 0)
(0.74984506 0 0)
(0.74701301 0 0)
(0.74357614 0 0)
(0.7394906 0 0)
(0.73470684 0 0)
(0.72917348 0 0)
(0.72284526 0 0)
(0.71567366 0 0)
(0.70759225 0 0)
(0.69853422 0 0)
(0.68845062 0 0)
(0.67728132 0 0)
(0.66492819 0 0)
(0.65130922 0 0)
(0.63637962 0 0)
(0.62005773 0 0)
(0.60219394 0 0)
(0.58269904 0 0)
(0.5615244 0 0)
(0.53847612 0 0)
(0.51339643 0 0)
(0.4862239 0 0)
(0.45680281 0 0)
(0.42484887 0 0)
(0.39024681 0 0)
(0.35299133 0 0)
(0.31289138 0 0)
(0.26970408 0 0)
(0.22322469 0 0)
(0.17326072 0 0)
(0.11953413 0 0)
(0.061788146 0 0)
(0 0 0)
(0.7485646 0 0)
(0.74948629 0 0)
(0.75042455 0 0)
(0.75136821 0 0)
(0.75230637 0 0)
(0.75322654 0 0)
(0.75410975 0 0)
(0.75492702 0 0)
(0.75564218 0 0)
(0.75621442 0 0)
(0.75659923 0 0)
(0.75675103 0 0)
(0.75662645 0 0)
(0.75618351 0 0)
(0.75537763 0 0)
(0.75416156 0 0)
(0.75248839 0 0)
(0.75030955 0 0)
(0.74757423 0 0)
(0.74423571 0 0)
(0.7402488 0 0)
(0.735562 0 0)
(0.73012319 0 0)
(0.7238871 0 0)
(0.7168043 0 0)
(0.70880663 0 0)
(0.69982673 0 0)
(0.68981639 0 0)
(0.67871458 0 0)
(0.66642041 0 0)
(0.65285177 0 0)
(0.63796557 0 0)
(0.62167873 0 0)
(0.6038378 0 0)
(0.58435454 0 0)
(0.56318338 0 0)
(0.54012839 0 0)
(0.51502968 0 0)
(0.48782318 0 0)
(0.45835148 0 0)
(0.42633271 0 0)
(0.39165051 0 0)
(0.3542947 0 0)
(0.31407212 0 0)
(0.27074045 0 0)
(0.22409868 0 0)
(0.17395508 0 0)
(0.12002466 0 0)
(0.062046203 0 0)
(0 0 0)
(0.74842847 0 0)
(0.74932348 0 0)
(0.75024071 0 0)
(0.7511684 0 0)
(0.7520957 0 0)
(0.75301133 0 0)
(0.75389684 0 0)
(0.75472409 0 0)
(0.75545918 0 0)
(0.75606267 0 0)
(0.75649033 0 0)
(0.75669671 0 0)
(0.75663825 0 0)
(0.75627207 0 0)
(0.75555213 0 0)
(0.75442965 0 0)
(0.75285658 0 0)
(0.75078264 0 0)
(0.74815565 0 0)
(0.74492832 0 0)
(0.74105305 0 0)
(0.73647555 0 0)
(0.73114332 0 0)
(0.72501161 0 0)
(0.71802979 0 0)
(0.71012705 0 0)
(0.70123549 0 0)
(0.69130837 0 0)
(0.68028369 0 0)
(0.66805674 0 0)
(0.6545453 0 0)
(0.639709 0 0)
(0.62346301 0 0)
(0.60564888 0 0)
(0.58617919 0 0)
(0.56501251 0 0)
(0.54195129 0 0)
(0.51683339 0 0)
(0.48959056 0 0)
(0.46006375 0 0)
(0.42797466 0 0)
(0.39320513 0 0)
(0.35573915 0 0)
(0.31538174 0 0)
(0.27189108 0 0)
(0.22506957 0 0)
(0.1747261 0 0)
(0.12056898 0 0)
(0.062332362 0 0)
(0 0 0)
(0.74845671 0 0)
(0.74931795 0 0)
(0.75020317 0 0)
(0.75110061 0 0)
(0.7520015 0 0)
(0.75289562 0 0)
(0.75376374 0 0)
(0.75457902 0 0)
(0.75530944 0 0)
(0.75591755 0 0)
(0.75636009 0 0)
(0.7565922 0 0)
(0.7565703 0 0)
(0.75625117 0 0)
(0.75558796 0 0)
(0.7545311 0 0)
(0.75303137 0 0)
(0.75103742 0 0)
(0.7484962 0 0)
(0.74535879 0 0)
(0.74157546 0 0)
(0.73709076 0 0)
(0.73185161 0 0)
(0.72581264 0 0)
(0.71892234 0 0)
(0.71110793 0 0)
(0.70230057 0 0)
(0.69245418 0 0)
(0.68150625 0 0)
(0.66934952 0 0)
(0.65590065 0 0)
(0.64112062 0 0)
(0.6249237 0 0)
(0.60714862 0 0)
(0.58770613 0 0)
(0.56655782 0 0)
(0.54350713 0 0)
(0.51838788 0 0)
(0.49112804 0 0)
(0.46156674 0 0)
(0.42943078 0 0)
(0.39459721 0 0)
(0.35704474 0 0)
(0.31657659 0 0)
(0.27295092 0 0)
(0.22597268 0 0)
(0.17545106 0 0)
(0.12108811 0 0)
(0.06261293 0 0)
(0 0 0)
(0.74966017 0 0)
(0.75070868 0 0)
(0.75174196 0 0)
(0.75274552 0 0)
(0.75370429 0 0)
(0.75460049 0 0)
(0.75541038 0 0)
(0.75610312 0 0)
(0.75664367 0 0)
(0.75699416 0 0)
(0.75711363 0 0)
(0.75695966 0 0)
(0.75649364 0 0)
(0.75567931 0 0)
(0.75447704 0 0)
(0.75284181 0 0)
(0.75072969 0 0)
(0.74810326 0 0)
(0.74491801 0 0)
(0.74113035 0 0)
(0.73669834 0 0)
(0.73157479 0 0)
(0.72571057 0 0)
(0.71906439 0 0)
(0.71158858 0 0)
(0.70321928 0 0)
(0.69389324 0 0)
(0.6835637 0 0)
(0.67217013 0 0)
(0.65961926 0 0)
(0.64583272 0 0)
(0.63076433 0 0)
(0.61433325 0 0)
(0.59639927 0 0)
(0.57687335 0 0)
(0.55569127 0 0)
(0.53267851 0 0)
(0.50768288 0 0)
(0.48064276 0 0)
(0.45140589 0 0)
(0.41969357 0 0)
(0.38540172 0 0)
(0.34852595 0 0)
(0.30887508 0 0)
(0.2662019 0 0)
(0.22028435 0 0)
(0.17092068 0 0)
(0.11787101 0 0)
(0.060908291 0 0)
(0 0 0)
(0.74944168 0 0)
(0.75048502 0 0)
(0.75151503 0 0)
(0.75251804 0 0)
(0.75347998 0 0)
(0.75438395 0 0)
(0.75520654 0 0)
(0.75591609 0 0)
(0.75647637 0 0)
(0.75684883 0 0)
(0.75699109 0 0)
(0.75685952 0 0)
(0.75641518 0 0)
(0.75562168 0 0)
(0.75443921 0 0)
(0.75282313 0 0)
(0.75073065 0 0)
(0.74812278 0 0)
(0.74495383 0 0)
(0.74118107 0 0)
(0.73676363 0 0)
(0.73165418 0 0)
(0.72580287 0 0)
(0.71916823 0 0)
(0.71170359 0 0)
(0.70334494 0 0)
(0.69402803 0 0)
(0.68370588 0 0)
(0.67231929 0 0)
(0.65977494 0 0)
(0.64599314 0 0)
(0.63092761 0 0)
(0.6144989 0 0)
(0.59656644 0 0)
(0.57703985 0 0)
(0.55585735 0 0)
(0.53284241 0 0)
(0.50784256 0 0)
(0.48079706 0 0)
(0.45155414 0 0)
(0.41983215 0 0)
(0.38552514 0 0)
(0.34863221 0 0)
(0.30896419 0 0)
(0.26627483 0 0)
(0.22034284 0 0)
(0.1709678 0 0)
(0.11790635 0 0)
(0.06092785 0 0)
(0 0 0)
(0.74926001 0 0)
(0.75029468 0 0)
(0.75131839 0 0)
(0.75231816 0 0)
(0.75328087 0 0)
(0.75419069 0 0)
(0.75502448 0 0)
(0.75575025 0 0)
(0.75633109 0 0)
(0.75672719 0 0)
(0.75689507 0 0)
(0.75679032 0 0)
(0.7563733 0 0)
(0.7556072 0 0)
(0.75445209 0 0)
(0.75286399 0 0)
(0.75080035 0 0)
(0.74822068 0 0)
(0.74507876 0 0)
(0.74133172 0 0)
(0.7369392 0 0)
(0.73185421 0 0)
(0.72602671 0 0)
(0.71941424 0 0)
(0.71197049 0 0)
(0.70363189 0 0)
(0.69433372 0 0)
(0.68402792 0 0)
(0.67265593 0 0)
(0.66012491 0 0)
(0.64635443 0 0)
(0.63129749 0 0)
(0.61487517 0 0)
(0.59694697 0 0)
(0.57742199 0 0)
(0.55623989 0 0)
(0.53322173 0 0)
(0.50821545 0 0)
(0.48116045 0 0)
(0.45190493 0 0)
(0.42016543 0 0)
(0.3858342 0 0)
(0.34891239 0 0)
(0.3092119 0 0)
(0.26648763 0 0)
(0.22051987 0 0)
(0.1711094 0 0)
(0.11800841 0 0)
(0.060982541 0 0)
(0 0 0)
(0.74910558 0 0)
(0.75012885 0 0)
(0.75114417 0 0)
(0.75213906 0 0)
(0.75310122 0 0)
(0.75401572 0 0)
(0.75486018 0 0)
(0.75560254 0 0)
(0.75620531 0 0)
(0.75662768 0 0)
(0.75682502 0 0)
(0.75675233 0 0)
(0.75636951 0 0)
(0.75563908 0 0)
(0.7545205 0 0)
(0.75297032 0 0)
(0.75094627 0 0)
(0.74840601 0 0)
(0.74530266 0 0)
(0.74159355 0 0)
(0.73723813 0 0)
(0.73218936 0 0)
(0.72639715 0 0)
(0.71981836 0 0)
(0.71240672 0 0)
(0.70409857 0 0)
(0.69482867 0 0)
(0.68454845 0 0)
(0.6731997 0 0)
(0.66068933 0 0)
(0.64693624 0 0)
(0.63189329 0 0)
(0.61548192 0 0)
(0.59756083 0 0)
(0.57803854 0 0)
(0.55685714 0 0)
(0.53383467 0 0)
(0.50881849 0 0)
(0.48174866 0 0)
(0.45247339 0 0)
(0.42070768 0 0)
(0.38634162 0 0)
(0.34937753 0 0)
(0.30962818 0 0)
(0.26684903 0 0)
(0.22082234 0 0)
(0.17135049 0 0)
(0.1181806 0 0)
(0.061074026 0 0)
(0 0 0)
(0.74897629 0 0)
(0.7499853 0 0)
(0.75099008 0 0)
(0.75197848 0 0)
(0.75293883 0 0)
(0.75385706 0 0)
(0.75471151 0 0)
(0.75547046 0 0)
(0.75609602 0 0)
(0.75654657 0 0)
(0.75677664 0 0)
(0.7567409 0 0)
(0.75639865 0 0)
(0.75571157 0 0)
(0.75463869 0 0)
(0.75313645 0 0)
(0.75116215 0 0)
(0.74867215 0 0)
(0.74561935 0 0)
(0.74196014 0 0)
(0.73765363 0 0)
(0.73265299 0 0)
(0.726908 0 0)
(0.7203744 0 0)
(0.71300568 0 0)
(0.70473833 0 0)
(0.69550673 0 0)
(0.68526144 0 0)
(0.67394415 0 0)
(0.66146169 0 0)
(0.64773263 0 0)
(0.63270938 0 0)
(0.61631307 0 0)
(0.59840169 0 0)
(0.5788839 0 0)
(0.55770333 0 0)
(0.53467519 0 0)
(0.50964651 0 0)
(0.48255719 0 0)
(0.45325483 0 0)
(0.42145406 0 0)
(0.38704325 0 0)
(0.35002422 0 0)
(0.31020968 0 0)
(0.2673559 0 0)
(0.2212479 0 0)
(0.17168933 0 0)
(0.11842148 0 0)
(0.06120152 0 0)
(0 0 0)
(0.74886692 0 0)
(0.74985861 0 0)
(0.75085045 0 0)
(0.75183058 0 0)
(0.7527878 0 0)
(0.75370874 0 0)
(0.75457243 0 0)
(0.75534768 0 0)
(0.7559965 0 0)
(0.7564765 0 0)
(0.75674202 0 0)
(0.75674767 0 0)
(0.75645204 0 0)
(0.75581582 0 0)
(0.75479736 0 0)
(0.75335276 0 0)
(0.75143855 0 0)
(0.74900974 0 0)
(0.74601885 0 0)
(0.74242174 0 0)
(0.73817654 0 0)
(0.73323593 0 0)
(0.7275496 0 0)
(0.72107285 0 0)
(0.71375848 0 0)
(0.70554233 0 0)
(0.69635857 0 0)
(0.68615766 0 0)
(0.67488081 0 0)
(0.66243373 0 0)
(0.64873472 0 0)
(0.63373687 0 0)
(0.61736056 0 0)
(0.59946178 0 0)
(0.57994983 0 0)
(0.55877065 0 0)
(0.53573616 0 0)
(0.51069215 0 0)
(0.48357885 0 0)
(0.45424302 0 0)
(0.42239881 0 0)
(0.38793324 0 0)
(0.35084681 0 0)
(0.31095178 0 0)
(0.26800459 0 0)
(0.22179328 0 0)
(0.17212306 0 0)
(0.11872915 0 0)
(0.061364018 0 0)
(0 0 0)
(0.74876942 0 0)