/*--------------------------------*- C++ -*----------------------------------*\
| =========                 |                                                 |
| \\      /  F ield         | OpenFOAM: The Open Source CFD Toolbox           |
|  \\    /   O peration     | Version:  v2012                                 |
|   \\  /    A nd           | Website:  www.openfoam.com                      |
|    \\/     M anipulation  |                                                 |
\*---------------------------------------------------------------------------*/
FoamFile
{
    version     2.0;
    format      ascii;
    class       volVectorField;
    location    "6.14070038";
    object      U;
}
// * * * * * * * * * * * * * * * * * * * * * * * * * * * * * * * * * * * * * //

dimensions      [0 1 -1 0 0 0 0];


internalField   nonuniform List<vector> 
9200
(
(2.5032826 -0.0003884234 -1.6881114e-22)
(2.503135 -0.0012530084 -8.7586943e-22)
(2.5044319 -0.00046656069 3.7891938e-23)
(2.5029782 -0.0019068249 -3.245506e-22)
(2.5042439 -0.0015038832 -4.4361531e-22)
(2.5051604 -0.00051929845 -1.2447392e-23)
(2.5027093 -0.0025740494 4.0931813e-24)
(2.5040267 -0.0022900399 8.244976e-23)
(2.5049471 -0.0016681535 9.5449327e-22)
(2.5061073 -0.0005845072 -2.3129284e-22)
(2.5024283 -0.0030734401 -7.0633088e-23)
(2.5036768 -0.0030958422 1.4453054e-22)
(2.504696 -0.0025416759 1.1965179e-22)
(2.5058631 -0.0018800978 -1.4901079e-23)
(2.5070957 -0.00065393421 4.2587521e-22)
(2.5021019 -0.0035262717 7.0548029e-23)
(2.5032924 -0.0036978992 5.3027084e-23)
(2.5042936 -0.0034397959 9.9932842e-23)
(2.5055684 -0.002867178 -3.9125584e-23)
(2.506822 -0.0021084304 2.5092644e-22)
(2.5081751 -0.00072850758 1.1512896e-22)
(2.5017705 -0.0038642195 4.5360531e-23)
(2.5028532 -0.0042476272 1.9067339e-22)
(2.5038479 -0.004112861 1.074141e-22)
(2.5051008 -0.0038856696 -6.7315803e-22)
(2.5064847 -0.003219302 8.702832e-22)
(2.5078726 -0.0023582787 -6.3387952e-23)
(2.5093349 -0.00080710387 -4.9103007e-22)
(2.501431 -0.0041328992 6.7723326e-23)
(2.5023967 -0.0046578417 6.5286102e-23)
(2.503337 -0.0047298522 -6.9720431e-23)
(2.504577 -0.004653521 2.7441832e-23)
(2.5059531 -0.0043695956 1.7723694e-22)
(2.5074918 -0.0036060381 5.0663586e-22)
(2.5090055 -0.0026259379 -1.0178239e-21)
(2.5105789 -0.00088884627 -1.7739142e-22)
(2.5010982 -0.0043198398 -8.5489033e-23)
(2.5019275 -0.0049862582 5.8938116e-23)
(2.5028032 -0.0051925298 -1.8813605e-23)
(2.5039754 -0.0053604445 -1.3584204e-22)
(2.5053516 -0.0052439414 8.8744374e-23)
(2.5068955 -0.0049029033 5.4509326e-22)
(2.5085821 -0.0040219803 -6.4598144e-22)
(2.5102252 -0.0029090285 -1.6946105e-23)
(2.5119047 -0.00097265292 0)
(2.5007751 -0.0044424501 -1.7544403e-22)
(2.5014615 -0.0052154491 7.3348093e-23)
(2.5022519 -0.0055650634 -1.5080574e-22)
(2.5033423 -0.0058950681 1.9651817e-22)
(2.5046589 -0.0060525941 0)
(2.5062138 -0.0058985113 -1.8658793e-22)
(2.5079228 -0.0054787565 -1.1549952e-22)
(2.5097611 -0.0044636765 -5.4678219e-22)
(2.5115305 -0.003204239 9.7054529e-22)
(2.5133095 -0.0010573387 -1.3877999e-23)
(2.5004673 -0.0045053949 1.8285245e-23)
(2.5010061 -0.0053671683 4.6924618e-23)
(2.5017017 -0.0058271041 -4.1171664e-22)
(2.5026852 -0.0063288258 -3.3104832e-22)
(2.5039248 -0.0066708992 4.2835974e-22)
(2.5054262 -0.0068238509 1.2043627e-22)
(2.5071611 -0.0066098565 4.6672218e-23)
(2.5090421 -0.0060929988 -7.0591523e-22)
(2.511029 -0.0049261963 1.0141788e-22)
(2.5129193 -0.0035077875 -6.3536662e-23)
(2.5147885 -0.0011415989 -2.4598556e-21)
(2.5001773 -0.004518797 8.5450214e-24)
(2.5005688 -0.0054461414 -1.3996547e-22)
(2.5011614 -0.006002697 7.4100108e-24)
(2.5020256 -0.006637678 -2.2118299e-22)
(2.5031589 -0.0071770205 7.3464136e-23)
(2.5045854 -0.0075406601 -3.3668421e-22)
(2.5062778 -0.0076667805 4.3365682e-22)
(2.5082021 -0.0073738499 3.5681341e-22)
(2.5102556 -0.0067394497 -7.3149998e-22)
(2.5123853 -0.0054038867 -7.2004077e-23)
(2.514388 -0.0038152071 -1.7132036e-21)
(2.5163352 -0.0012240206 1.6570077e-22)
(2.4999076 -0.0044901953 1.2141346e-23)
(2.5001543 -0.0054646547 -7.5528065e-24)
(2.5006404 -0.0060964227 6.1392371e-22)
(2.5013745 -0.0068481898 -2.9382048e-22)
(2.5023856 -0.0075429529 -2.5198251e-22)
(2.5037032 -0.0081332853 2.5283223e-22)
(2.5053272 -0.0084976032 2.4979312e-22)
(2.5072238 -0.0085777871 1.3597692e-22)
(2.5093413 -0.0081838956 -8.9830391e-22)
(2.511565 -0.0074108911 8.0894704e-22)
(2.5138277 -0.00589017 3.4321352e-22)
(2.5159308 -0.0041213638 -8.5259272e-23)
(2.5179414 -0.0013031127 2.302629e-21)
(2.4996592 -0.0044272038 1.5470953e-22)
(2.4997662 -0.0054315493 1.7736489e-22)
(2.5001447 -0.0061217392 2.0067473e-22)
(2.5007437 -0.0069647154 -1.3931398e-22)
(2.5016182 -0.0077974287 2.1037251e-22)
(2.5028066 -0.0085694233 9.2959201e-23)
(2.5043234 -0.0091920469 -3.693478e-22)
(2.5061618 -0.0095393563 -2.725184e-24)
(2.5082713 -0.0095504581 1.7942968e-22)
(2.5105831 -0.0090320658 1.2856012e-22)
(2.5129702 -0.0080987372 1.6192613e-21)
(2.5153521 -0.0063776295 -9.4502374e-22)
(2.5175406 -0.0044207184 3.3548346e-22)
(2.5195974 -0.0013773729 2.6304051e-21)
(2.4994318 -0.004336517 4.0418162e-23)
(2.4994061 -0.0053561403 -4.0506255e-23)
(2.4996789 -0.0060882559 -3.6814725e-22)
(2.500141 -0.0070021204 2.5901506e-22)
(2.5008708 -0.0079443368 -3.378061e-22)
(2.5019115 -0.0088795419 -1.9813855e-23)
(2.503296 -0.0097132002 1.0108031e-22)
(2.5050325 -0.010352666 9.2597234e-23)
(2.5070987 -0.010660509 -6.4504611e-22)
(2.5094273 -0.010576809 -3.1723855e-22)
(2.5119301 -0.009908638 3.4695991e-22)
(2.5144696 -0.0087931017 1.1225286e-21)
(2.5169531 -0.0068582329 -8.238327e-22)
(2.5192085 -0.0047078357 3.2832057e-23)
(2.5212923 -0.0014453797 2.3835888e-22)
(2.4992249 -0.0042242526 -1.918083e-22)
(2.499075 -0.0052465838 -1.4265719e-23)
(2.4992457 -0.0060063935 3.2547813e-23)
(2.4995723 -0.0069709489 9.9459447e-22)
(2.5001532 -0.0079997956 -6.8184948e-22)
(2.5010347 -0.0090667699 2.2377104e-22)
(2.5022636 -0.010092642 -4.4504077e-22)
(2.5038675 -0.010975889 -1.0669398e-22)
(2.5058422 -0.011611406 -2.3836704e-22)
(2.5081479 -0.011853903 6.5010399e-22)
(2.5106978 -0.011646643 2.1103538e-22)
(2.5133837 -0.010802098 -1.9211439e-21)
(2.5160596 -0.0094830657 -3.2360666e-21)
(2.5186234 -0.0073237004 1.377138e-21)
(2.5209246 -0.0049778252 5.0398419e-22)
(2.5230147 -0.0015058722 -1.1582069e-21)
(2.4990376 -0.0040957036 -1.9427302e-22)
(2.4987725 -0.0051103423 -2.6369732e-22)
(2.4988463 -0.0058852985 2.4232215e-22)
(2.4990415 -0.0068829178 8.9202326e-23)
(2.4994732 -0.0079751999 4.062162e-22)
(2.5001884 -0.0091482519 -2.027763e-23)
(2.5012455 -0.010332345 -5.5685392e-22)
(2.5026881 -0.011440911 2.2523706e-22)
(2.5045347 -0.012356097 1.2213421e-23)
(2.5067652 -0.012962723 -8.0749743e-22)
(2.5093187 -0.01310979 -7.8045395e-24)
(2.5120875 -0.012747439 1.3177304e-21)
(2.5149433 -0.011699383 9.8637001e-23)
(2.5177349 -0.01015718 -1.2044073e-21)
(2.5203541 -0.0077658174 4.6622429e-22)
(2.5226776 -0.0052263933 0)
(2.5247527 -0.0015577758 4.3737395e-22)
(2.4988689 -0.003955436 1.8249483e-22)
(2.4984979 -0.0049539212 -1.7014158e-22)
(2.4984809 -0.0057333847 -3.1519493e-22)
(2.4985508 -0.006748403 -7.2768064e-22)
(2.4988362 -0.0078835779 1.2735658e-22)
(2.4993825 -0.0091361106 -3.327545e-22)
(2.5002569 -0.010450097 1.4368115e-21)
(2.5015167 -0.011748057 -1.3739233e-22)
(2.5032001 -0.012925798 -2.6617305e-22)
(2.5053126 -0.013850695 4.4654342e-22)
(2.5078142 -0.014398195 -2.6882095e-22)
(2.5106197 -0.014415544 7.2417612e-25)
(2.5135995 -0.013864526 4.3337157e-22)
(2.5166065 -0.012586411 1.7381508e-21)
(2.5194882 -0.010803916 1.841579e-21)
(2.522135 -0.0081765722 1.172535e-21)
(2.5244557 -0.0054495396 -3.7518938e-23)
(2.5264941 -0.0016001811 -4.1655487e-22)
(2.4987174 -0.0038073509 1.2945971e-22)
(2.4982499 -0.0047829282 2.4203578e-22)
(2.4981487 -0.005558038 -2.0356089e-22)
(2.4981008 -0.0065770857 -6.0500075e-22)
(2.4982454 -0.0077366008 -3.6766993e-22)
(2.4986242 -0.0090446592 2.1777447e-22)
(2.4993102 -0.010458505 5.7531679e-22)
(2.5003712 -0.011915228 -9.2418254e-23)
(2.5018637 -0.013318606 -1.6269101e-23)
(2.5038166 -0.014547256 3.0660264e-22)
(2.5062172 -0.015453519 -3.5963595e-22)
(2.5090018 -0.015906044 -2.3557439e-22)
(2.512058 -0.01575575 1.054978e-21)
(2.5152349 -0.014981644 -9.4471679e-22)
(2.5183686 -0.013448584 -6.1691948e-22)
(2.5213107 -0.011411885 7.4697845e-23)
(2.5239544 -0.0085482392 -8.109773e-23)
(2.5262462 -0.00564325 1.9691358e-21)
(2.528227 -0.0016323118 -6.2535124e-22)
(2.4985819 -0.0036545988 3.0050107e-22)
(2.4980269 -0.0046021262 3.3593649e-22)
(2.4978485 -0.0053656799 2.6533678e-22)
(2.4976911 -0.0063775506 5.8166062e-22)
(2.4977023 -0.0075453347 -2.7244983e-22)
(2.4979181 -0.008886911 8.0817218e-24)
(2.4984147 -0.010373031 -5.3917213e-22)
(2.4992671 -0.01195514 3.1998789e-22)
(2.5005468 -0.013551843 0)
(2.502305 -0.015047595 2.8232109e-22)
(2.5045562 -0.016302223 -1.1009943e-21)
(2.5072649 -0.017154674 5.5224168e-23)
(2.5103397 -0.017471088 2.985901e-22)
(2.5136393 -0.017112741 1.9184973e-21)
(2.5169925 -0.016081487 -1.3640708e-21)
(2.5202232 -0.014271046 7.4286757e-22)
(2.5231918 -0.011969944 6.0549938e-22)
(2.5257999 -0.0088735864 -1.92848e-21)
(2.5280364 -0.0058035235 6.3182109e-22)
(2.5299393 -0.0016535358 -1.8376369e-21)
(2.498461 -0.0034996868 -1.1568739e-22)
(2.4978272 -0.0044155114 6.0102857e-23)
(2.4975784 -0.0051617626 2.9677127e-22)
(2.4973204 -0.0061573443 5.10639e-22)
(2.4972068 -0.0073197188 4.5071442e-22)
(2.497267 -0.0086754462 -7.4999449e-22)
(2.4975772 -0.010207982 -3.540807e-22)
(2.4982166 -0.011884136 -3.7716242e-23)
(2.4992682 -0.013637808 2.2820483e-23)
(2.5008026 -0.0153676 -3.095135e-22)
(2.5028613 -0.016935814 -9.2643511e-23)
(2.505439 -0.018183714 6.3193937e-22)
(2.5084723 -0.018940342 6.2014706e-22)
(2.5118383 -0.019075249 -8.3573017e-22)
(2.5153669 -0.018467146 4.2047404e-23)
(2.5188691 -0.017145981 -9.0892438e-23)
(2.5221615 -0.015038854 -5.9024135e-22)
(2.5251196 -0.012467425 1.7297523e-23)
(2.5276581 -0.0091462137 -7.4486538e-22)
(2.5298133 -0.0059267247 -1.2512226e-21)
(2.5316192 -0.0016634105 7.8539819e-22)
(2.4983534 -0.003344824 -1.2134178e-22)
(2.4976488 -0.0042263035 -3.045691e-22)
(2.4973366 -0.0049508719 -1.8571443e-23)
(2.4969867 -0.0059229169 -3.0950483e-22)
(2.4967579 -0.0070686163 6.1505162e-22)
(2.4966716 -0.0084217215 1.0945125e-21)
(2.4968017 -0.0099775181 -2.5702482e-22)
(2.4972285 -0.011717645 -1.0122336e-21)
(2.4980431 -0.013593297 7.3630349e-22)
(2.499332 -0.015518459 4.1591604e-23)
(2.5011611 -0.017367705 8.9346194e-22)
(2.5035561 -0.018980123 -6.3716873e-22)
(2.5064862 -0.020180486 4.6188171e-22)
(2.5098551 -0.020793223 4.9095277e-22)
(2.5135064 -0.020698041 1.3602562e-21)
(2.5172416 -0.019798114 -1.8295451e-21)
(2.5208586 -0.01815646 1.4644553e-22)
(2.5241728 -0.015737347 -1.4334259e-21)
(2.5270812 -0.012894542 1.3282015e-21)
(2.5295158 -0.009360831 7.9711217e-22)
(2.5315645 -0.0060100145 -7.6485526e-22)
(2.5332558 -0.0016617352 5.6535215e-22)
(2.4982577 -0.0031916643 -1.0766446e-22)
(2.49749 -0.0040371773 -6.2346862e-23)
(2.4971207 -0.0047367423 4.0658533e-22)
(2.4966878 -0.0056797487 -1.0288067e-22)
(2.4963536 -0.0067996795 5.5725414e-22)
(2.4961312 -0.0081361458 3.6620605e-22)
(2.4960902 -0.00969471 2.7005669e-23)
(2.4963092 -0.011471406 6.2967485e-22)
(2.4968834 -0.013434555 1.2210644e-21)
(2.4979118 -0.015516813 3.416326e-22)
(2.4994814 -0.017607089 5.7399374e-23)
(2.5016477 -0.01955359 -1.1379358e-21)
(2.5044144 -0.021172984 -9.4729799e-22)
(2.5077189 -0.022277363 1.1345206e-21)
(2.5114279 -0.022692907 -1.2512348e-21)
(2.5153501 -0.022316661 3.0286881e-22)
(2.5192615 -0.021083424 1.7483635e-21)
(2.5229525 -0.019094071 -1.7021129e-21)
(2.5262444 -0.016352711 3.2585989e-21)
(2.5290624 -0.013242755 -1.9700318e-21)
(2.5313595 -0.0095133515 -1.0948194e-21)
(2.5332782 -0.0060516134 -2.3628822e-23)
(2.5348389 -0.001648563 -1.3710556e-21)
(2.4981727 -0.0030416048 -9.5103144e-23)
(2.4973489 -0.0038501397 -4.6063536e-22)
(2.4969287 -0.0045224897 -4.1316906e-22)
(2.496421 -0.0054322819 -4.7184195e-22)
(2.4959914 -0.0065195079 -1.6264314e-22)
(2.495644 -0.0078277975 -9.4311462e-22)
(2.495443 -0.0093717315 -4.800201e-22)
(2.4954622 -0.011160098 6.8426199e-22)
(2.495798 -0.01317879 -9.2107217e-22)
(2.4965574 -0.015379256 -5.3959988e-22)
(2.4978452 -0.017669644 -1.5041742e-21)
(2.4997435 -0.01991025 -4.6084523e-22)
(2.5022909 -0.021922414 -1.043713e-21)
(2.5054625 -0.02350273 -9.7540799e-24)
(2.5091581 -0.024455434 -9.2453985e-22)
(2.5132034 -0.024615727 9.8559747e-22)
(2.5173728 -0.023905936 -7.4307447e-22)
(2.5214218 -0.0222999 -5.2591856e-22)
(2.52514 -0.019940452 5.7480519e-22)
(2.5283623 -0.016872496 4.1031606e-22)
(2.5310489 -0.013504981 -1.1831073e-21)
(2.5331765 -0.0096008659 -4.406789e-22)
(2.5349433 -0.0060508444 -8.1032323e-23)
(2.5363595 -0.0016241783 6.0991947e-23)
(2.4980973 -0.0028955207 -3.3930362e-23)
(2.4972238 -0.0036669512 1.7865714e-22)
(2.4967583 -0.0043104075 -4.0475603e-22)
(2.4961837 -0.005184298 -9.4573829e-22)
(2.4956682 -0.0062334477 -5.5296146e-22)
(2.4952074 -0.0075046915 6.8517766e-22)
(2.4948586 -0.0090192536 1.3598861e-21)
(2.4946891 -0.010797875 -9.9392591e-22)
(2.4947926 -0.012842168 -2.5250324e-21)
(2.495281 -0.015124251 5.9795123e-22)
(2.4962719 -0.01757168 -9.546367e-22)
(2.4978708 -0.020063796 -2.0094943e-22)
(2.5001492 -0.022430625 9.4299818e-23)
(2.5031218 -0.024467344 -8.3894103e-22)
(2.506728 -0.025953519 2.5849519e-22)
(2.5108236 -0.026691571 -5.9611228e-23)
(2.5151916 -0.02653447 1.5869647e-23)
(2.5195747 -0.025438671 3.8471296e-22)
(2.5237141 -0.023424175 -2.2281249e-21)
(2.5274073 -0.020678364 1.6153563e-21)
(2.5305111 -0.017285899 -2.0441032e-21)
(2.5330258 -0.013675702 2.0532599e-21)
(2.5349543 -0.0096216487 1.6606177e-21)
(2.5365498 -0.006008018 1.0071432e-21)
(2.53781 -0.0015890468 1.2993267e-21)
(2.4980302 -0.0027544441 -3.1291729e-23)
(2.497113 -0.0034885574 1.8077761e-22)
(2.4966074 -0.0041026225 3.7107e-22)
(2.4959732 -0.0049384934 2.4121189e-22)
(2.495381 -0.005946171 7.2374266e-22)
(2.494818 -0.0071733008 -1.1492123e-21)
(2.4943345 -0.0086470471 -6.981545e-22)
(2.4939891 -0.01039706 -1.216473e-21)
(2.4938706 -0.012441032 -1.1986468e-21)
(2.4940909 -0.014769191 -2.0914648e-22)
(2.4947773 -0.017332526 1.7799174e-21)
(2.4960534 -0.02002941 1.719117e-22)
(2.4980207 -0.022708076 -7.5074974e-22)
(2.5007332 -0.025167443 -5.9412087e-22)
(2.5041739 -0.027177303 2.5715721e-23)
(2.5082381 -0.028504443 2.0505864e-22)
(2.5127332 -0.028957814 -1.7585494e-21)
(2.5173989 -0.028418586 4.4238034e-22)
(2.5219517 -0.026886454 5.198487e-23)
(2.5261267 -0.024433457 2.9324404e-23)
(2.5297389 -0.021292102 -5.8334163e-22)
(2.5326741 -0.017583951 -3.1755861e-21)
(2.5349783 -0.013751128 -1.4387998e-22)
(2.5366811 -0.0095752236 -1.4215199e-21)
(2.5380887 -0.0059242601 1.3799139e-21)
(2.5391839 -0.0015437719 -6.3901829e-22)
(2.49797 -0.0026184198 2.6615749e-23)
(2.4970147 -0.0033163363 -1.1617344e-22)
(2.4964739 -0.0039001422 -1.1324415e-22)
(2.4957871 -0.0046975415 -1.0077219e-22)
(2.4951264 -0.0056608816 -6.1984084e-22)
(2.4944723 -0.0068395191 3.1876237e-22)
(2.4938672 -0.0082628844 -7.7350161e-22)
(2.4933606 -0.0099695888 1.8876926e-21)
(2.4930324 -0.011989253 1.2961561e-21)
(2.4929931 -0.014332798 -1.797442e-21)
(2.4933732 -0.016970428 -4.100556e-22)
(2.4943119 -0.019826663 1.2868594e-21)
(2.4959346 -0.022767754 1.4414427e-21)
(2.4983326 -0.02560881 -1.3353805e-22)
(2.5015345 -0.028116037 1.5247828e-22)
(2.5054823 -0.030035521 -9.2899026e-22)
(2.5100194 -0.031128467 4.5315673e-22)
(2.5149013 -0.031221415 -5.5933282e-22)
(2.5198275 -0.030234988 3.0719435e-21)
(2.5244956 -0.028220502 -2.7310078e-21)
(2.5286446 -0.025306071 3.3643305e-23)
(2.5321168 -0.021767838 -1.5902347e-21)
(2.5348345 -0.01775978 -1.3572418e-21)
(2.5368921 -0.013729381 2.2744381e-21)
(2.5383463 -0.0094624003 1.970848e-22)
(2.5395525 -0.0058013371 -1.507303e-21)
(2.5404763 -0.0014890582 -1.2816993e-21)
(2.4979153 -0.0024887724 -5.6952531e-23)
(2.4969268 -0.0031499707 -3.2659229e-22)
(2.4963558 -0.0037047942 -4.4969443e-22)
(2.4956225 -0.0044624817 8.0490256e-23)
(2.4949016 -0.0053810269 -6.0048108e-22)
(2.4941663 -0.0065071912 1.1411738e-21)
(2.4934529 -0.0078743347 -4.2206497e-22)
(2.4927997 -0.0095245526 1.0705266e-21)
(2.4922778 -0.011501449 1.5772196e-21)
(2.4919896 -0.013830253 2.7276025e-21)
(2.492069 -0.016506613 1.1052185e-22)
(2.4926622 -0.019474135 -2.3734934e-21)
(2.4939164 -0.022628525 2.204111e-21)
(2.4959543 -0.02580093 4.8822086e-22)
(2.4988498 -0.028769228 -4.3970627e-22)
(2.5025957 -0.031265707 -1.3999106e-21)
(2.5070825 -0.033017859 1.1642566e-21)
(2.5120955 -0.033792214 -3.1689852e-21)
(2.517338 -0.033445549 1.5090593e-21)
(2.5224746 -0.031948897 1.7367656e-21)
(2.5271937 -0.029412315 -7.563983e-22)
(2.5312496 -0.026021993 9.0734017e-22)
(2.5345218 -0.022094124 3.8206933e-22)
(2.536975 -0.017808951 2.7013902e-21)
(2.5387536 -0.013610583 2.9461312e-23)
(2.5399402 -0.0092852069 4.8720249e-21)
(2.5409347 -0.0056415144 -5.8031729e-22)
(2.5416835 -0.0014256977 -4.6256572e-22)
(2.4978659 -0.0023641462 -1.7619403e-24)
(2.4968478 -0.0029914553 2.3480023e-22)
(2.4962504 -0.0035159589 1.3671909e-22)
(2.4954772 -0.0042357853 1.2507914e-21)
(2.4947031 -0.0051076372 1.243219e-21)
(2.4938966 -0.006180902 -8.367747e-22)
(2.4930869 -0.0074859703 -1.0326681e-21)
(2.4923031 -0.0090718191 -1.3074593e-21)
(2.4916029 -0.010987792 -7.9247656e-22)
(2.4910821 -0.013279497 -8.2928435e-22)
(2.4908687 -0.015957231 3.9203225e-21)
(2.4911174 -0.018995492 1.6134651e-21)
(2.491987 -0.022308604 1.1026756e-22)
(2.4936294 -0.025760674 3.9258702e-21)
(2.4961591 -0.02914133 -1.040636e-21)
(2.4996216 -0.032186514 8.6070164e-22)
(2.5039615 -0.034597286 -1.3577537e-21)
(2.5090085 -0.03609228 1.2220907e-21)
(2.5144862 -0.036456581 -2.9297896e-22)
(2.5200479 -0.035590063 3.5317617e-21)
(2.5253321 -0.033524494 -3.0949048e-21)
(2.530029 -0.030434375 2.8364709e-21)
(2.5339208 -0.026563617 9.719464e-22)
(2.5369335 -0.022262473 1.8763963e-21)
(2.5390786 -0.017729674 1.1154875e-21)
(2.5405501 -0.013396753 -5.3105546e-21)
(2.5414545 -0.0090467288 -1.0382205e-21)
(2.5422306 -0.0054474547 1.2898536e-21)
(2.5428029 -0.0013545581 1.1621965e-21)
(2.4978236 -0.0022470991 1.5560509e-23)
(2.4967775 -0.0028380441 1.2604918e-22)
(2.4961562 -0.0033365697 6.4608911e-22)
(2.4953479 -0.0040162687 -4.6003507e-23)
(2.4945282 -0.0048441266 -3.3821437e-22)
(2.4936589 -0.0058616137 -3.06249e-22)
(2.4927653 -0.007104084 8.7795533e-23)
(2.4918651 -0.0086165754 3.5971313e-22)
(2.4910053 -0.010461312 1.8558642e-21)
(2.490267 -0.012691278 -3.743337e-21)
(2.4897765 -0.015344301 -1.9587469e-21)
(2.4896848 -0.018407491 -2.8347932e-22)
(2.4901643 -0.021833673 1.3837749e-22)
(2.4913851 -0.025504959 -5.432574e-22)
(2.4934998 -0.029245624 -1.0134768e-22)
(2.4966041 -0.032795642 5.2321403e-21)
(2.5007014 -0.035848502 5.3451082e-22)
(2.5056766 -0.038082269 -1.677228e-22)
(2.5112913 -0.039219353 -1.3513794e-21)
(2.5172061 -0.039077259 1.2814443e-21)
(2.52303 -0.037611926 -6.6926467e-22)
(2.5283858 -0.034925721 -1.0157841e-21)
(2.53298 -0.031261231 1.0338994e-21)
(2.5366349 -0.026916657 -2.2214613e-21)
(2.5393309 -0.022267779 -1.2229801e-22)
(2.5411289 -0.017522779 -7.7843341e-22)
(2.5422706 -0.013091583 -9.7553715e-22)
(2.5428826 -0.0087509179 -2.7087798e-21)
(2.5434365 -0.0052221531 -9.6209644e-22)
(2.5438333 -0.0012765725 -1.5255443e-22)
(2.4977846 -0.0021244078 1.0398117e-23)
(2.4967181 -0.0026947147 -1.7645243e-22)
(2.4960731 -0.0031626072 -1.4628501e-22)
(2.495233 -0.00380814 -1.3806984e-21)
(2.4943729 -0.004588463 -7.9760464e-22)
(2.4934499 -0.0055541378 2.4358844e-22)
(2.4924826 -0.0067294476 1.1302945e-21)
(2.4914817 -0.0081676944 -3.3674158e-22)
(2.4904783 -0.0099273099 -4.6595636e-23)
(2.4895437 -0.012082975 6.3274011e-22)
(2.4887897 -0.014678468 1.0177898e-21)
(2.4883715 -0.017736902 -1.0184284e-21)
(2.4884597 -0.021220702 -1.5447879e-22)
(2.4892443 -0.025060613 -4.1883331e-21)
(2.4909052 -0.029096535 -2.2614492e-22)
(2.4935863 -0.033100907 9.0459631e-22)
(2.4973502 -0.036760534 4.7749082e-22)
(2.5021444 -0.039732484 -2.9943958e-21)
(2.5077839 -0.041683274 2.3480326e-21)
(2.5139574 -0.0423525 3.8812505e-22)
(2.5202634 -0.04160481 8.4138755e-23)
(2.5262757 -0.039465984 -2.0453062e-21)
(2.5316157 -0.036117671 9.2612118e-23)
(2.5360214 -0.031870805 2.7396925e-21)
(2.539367 -0.027070859 3.0228852e-21)
(2.5416933 -0.022108411 4.5192819e-22)
(2.543111 -0.017191502 6.0650603e-22)
(2.5439054 -0.012700167 5.7950581e-21)
(2.5442191 -0.0084024136 8.4347937e-22)
(2.5445503 -0.0049688733 -6.7386385e-22)
(2.5447743 -0.0011927025 8.9396937e-23)
(2.497748 -0.0019926127 -1.8124306e-22)
(2.4966617 -0.0025444067 -2.6500428e-22)
(2.496004 -0.003001793 -1.6254646e-22)
(2.4951326 -0.003605383 -2.0116295e-22)
(2.4942358 -0.0043466743 2.7515133e-22)
(2.4932647 -0.0052552259 -7.627691e-22)
(2.4922351 -0.0063690457 5.662959e-22)
(2.4911462 -0.0077254209 2.0818701e-22)
(2.4900188 -0.0093985278 -1.9769873e-21)
(2.4889043 -0.011459022 7.292961e-22)
(2.4879099 -0.013982983 1.0805563e-21)
(2.4871765 -0.016993598 2.5174992e-21)
(2.4868841 -0.020501537 -1.3024321e-22)
(2.4872241 -0.024444339 5.1399736e-21)
(2.4884048 -0.028720725 -3.295653e-21)
(2.4906088 -0.033112773 -1.4994555e-21)
(2.4939567 -0.037333602 8.1435907e-22)
(2.4984627 -0.041021231 -1.0560059e-22)
(2.5040061 -0.043805785 2.1934722e-22)
(2.5103234 -0.045353997 1.1900309e-22)
(2.5170271 -0.045437484 3.207737e-22)
(2.5236586 -0.043985127 -3.0534928e-21)
(2.529769 -0.041106595 4.3956384e-21)
(2.5349959 -0.037068387 2.9624624e-23)
(2.5391245 -0.032245507 -1.2083832e-22)
(2.5420913 -0.027020306 8.4917499e-22)
(2.5440006 -0.02178605 1.3367862e-22)
(2.5450111 -0.016741198 8.118783e-22)
(2.5454462 -0.012228745 -1.5150743e-21)
(2.5454601 -0.0080063764 5.4801537e-22)
(2.5455709 -0.0046910582 2.230888e-22)
(2.5456267 -0.0011039029 -4.122956e-22)
(2.4977166 -0.0018600959 1.1012734e-22)
(2.4966154 -0.0023816105 4.0896593e-23)
(2.4959392 -0.0028314384 6.3220808e-23)
(2.4950503 -0.0034195541 5.176381e-22)
(2.4941171 -0.0041100391 1.0721875e-21)
(2.4931022 -0.0049735145 -6.8151645e-22)
(2.4920168 -0.0060180149 -7.264051e-23)
(2.490855 -0.0073001951 -6.1381434e-22)
(2.4896185 -0.0088738677 1.4825764e-21)
(2.4883478 -0.010837867 2.4269429e-21)
(2.4871285 -0.01326007 -4.564769e-21)
(2.4861041 -0.016208371 1.4354902e-21)
(2.485439 -0.019684732 -6.0870447e-22)
(2.4853396 -0.023692799 2.3062441e-21)
(2.486022 -0.028134015 1.8210175e-21)
(2.487708 -0.03285604 -6.1511321e-21)
(2.4905685 -0.037572385 -2.6099768e-21)
(2.4946847 -0.041938729 -1.2664485e-21)
(2.5000086 -0.045552449 1.2884445e-22)
(2.5063405 -0.048025493 5.093884e-21)
(2.5133302 -0.049037915 -1.7610185e-21)
(2.5205128 -0.048412299 -1.341368e-21)
(2.5273826 -0.046161159 0)
(2.5334859 -0.042489941 1.7397813e-21)
(2.5384954 -0.037750475 3.6683183e-22)
(2.5422587 -0.032372872 -3.3300136e-21)
(2.5447821 -0.026763392 -2.2612859e-21)
(2.5462341 -0.021305411 2.1944128e-22)
(2.5468171 -0.016179048 -4.0174878e-21)
(2.5468868 -0.011684471 -2.785252e-21)
(2.5466033 -0.00756832 -7.3801737e-22)
(2.5464983 -0.0043922202 -2.6041519e-22)
(2.5463925 -0.0010111219 2.748453e-22)
(2.4976865 -0.001725333 -8.7655833e-23)
(2.4965782 -0.0022195178 2.9882411e-22)
(2.4958859 -0.0026462016 1.3817076e-22)
(2.4949722 -0.0032208232 1.5370121e-22)
(2.4940218 -0.0038952694 1.2068707e-22)
(2.492963 -0.0046966121 -4.7283444e-23)
(2.4918272 -0.0056888664 4.7566064e-22)
(2.490601 -0.0068849545 3.8935538e-22)
(2.4892756 -0.0083691145 1.8326993e-21)
(2.4878643 -0.010215495 -8.6456721e-22)
(2.4864472 -0.012536328 -2.9037517e-21)
(2.4851455 -0.015379783 2.9013878e-21)
(2.4841322 -0.018810033 2.565875e-21)
(2.4835964 -0.022812836 -1.5841802e-22)
(2.4837772 -0.02737702 -4.6932841e-22)
(2.4849146 -0.03234485 -2.2051989e-21)
(2.4872296 -0.037497781 -1.9658062e-21)
(2.490865 -0.042481628 2.6127797e-21)
(2.4958482 -0.046900874 -3.9414052e-21)
(2.5020568 -0.050318087 -1.5700941e-21)
(2.5091994 -0.052336158 3.0363674e-21)
(2.5168319 -0.052667206 -1.3954841e-21)
(2.5244166 -0.051208686 0)
(2.5314166 -0.048075663 1.526991e-22)
(2.5373946 -0.043576249 -4.187084e-21)
(2.5420787 -0.038142208 -4.5942527e-22)
(2.5453917 -0.032245799 3.7289642e-21)
(2.5474143 -0.026302654 4.3222702e-22)
(2.5483765 -0.02067394 -1.0946944e-21)
(2.5485192 -0.015513757 5.8297654e-22)
(2.5482225 -0.011075169 1.3768017e-21)
(2.5476475 -0.0070939496 -1.6073028e-22)
(2.5473337 -0.0040758781 -6.9687957e-22)
(2.5470743 -0.00091533334 3.3607843e-22)
(2.4976568 -0.0015897454 -1.1874017e-24)
(2.4965428 -0.0020542324 -3.4826353e-23)
(2.4958452 -0.0024626295 -4.3836713e-23)
(2.49491 -0.0030034474 1.3818899e-22)
(2.4939298 -0.0036631684 -6.8169361e-22)
(2.4928535 -0.0044479209 1.4038712e-21)
(2.491667 -0.0053644112 -1.1668631e-21)
(2.490385 -0.0064980834 1.0397838e-21)
(2.4889826 -0.0078737343 -1.3886909e-21)
(2.4874557 -0.0096154691 -6.2353717e-22)
(2.4858545 -0.011802388 2.6843671e-21)
(2.4843058 -0.01454551 -2.0681872e-21)
(2.4829559 -0.017871008 -2.1596522e-21)
(2.4820063 -0.021853883 -7.5816213e-21)
(2.4816814 -0.026454625 -2.0286868e-22)
(2.4822552 -0.031622446 -1.3019525e-21)
(2.4839791 -0.037121148 3.6581314e-21)
(2.4870556 -0.042664429 -1.0826667e-21)
(2.4915855 -0.047836987 -4.0685432e-21)
(2.4975297 -0.052194156 -1.1532194e-21)
(2.5046763 -0.055267801 3.4729345e-21)
(2.5126287 -0.056667362 -2.1616076e-21)
(2.5208459 -0.056163721 0)
(2.5287287 -0.053755167 0)
(2.5357311 -0.049674058 5.9454838e-23)
(2.5414566 -0.044331463 -2.025131e-21)
(2.5457074 -0.038228157 -2.018544e-21)
(2.5484913 -0.031862586 3.5719863e-21)
(2.5499642 -0.025644519 -3.9131824e-21)
(2.5504128 -0.019901472 -7.763095e-22)
(2.5501091 -0.014755224 -1.4103147e-21)
(2.5494501 -0.010409099 -6.3543219e-22)
(2.5485929 -0.0065890199 4.7367084e-23)
(2.5480792 -0.0037455158 -1.2138027e-22)
(2.547674 -0.00081747342 1.353926e-21)
(2.4976287 -0.0014527187 7.0963526e-23)
(2.4965076 -0.0018883063 7.6129018e-23)
(2.4958069 -0.0022749657 5.9039248e-23)
(2.4948654 -0.0027895457 2.5248802e-22)
(2.4938579 -0.0034080487 1.0396447e-22)
(2.4927453 -0.004176314 2.0294705e-22)
(2.4915431 -0.0050766269 -1.6857456e-22)
(2.4902064 -0.0061162252 0)
(2.4887431 -0.0074147272 -1.9376972e-21)
(2.4871145 -0.0090210522 1.2637213e-21)
(2.4853564 -0.011092483 3.9487009e-21)
(2.4835701 -0.013687704 1.2750683e-21)
(2.4819177 -0.016919404 -1.0791394e-21)
(2.4805639 -0.020803425 -5.2020598e-21)
(2.4797513 -0.025425865 3.0651848e-21)
(2.4797475 -0.030691602 1.2112513e-21)
(2.4808505 -0.036486737 4.2431936e-21)
(2.4833047 -0.042494124 4.5064051e-22)
(2.4872801 -0.048365765 8.337406e-21)
(2.4928242 -0.053625905 7.9050742e-22)
(2.4998156 -0.057777748 -8.5544119e-21)
(2.5079337 -0.060332845 3.8177057e-21)
(2.5166651 -0.060933689 -1.3068154e-21)
(2.5253761 -0.059441983 0)
(2.5334261 -0.055980422 -2.842013e-21)
(2.5402866 -0.050906746 -8.5094233e-21)
(2.5456274 -0.044728441 -3.839262e-21)
(2.549341 -0.037999609 -5.1519196e-21)
(2.5515259 -0.031226856 -4.6557566e-21)
(2.5524103 -0.024798982 5.7696043e-22)
(2.5523302 -0.018999813 1.0304639e-21)
(2.5515809 -0.013914198 8.2125239e-22)
(2.5505683 -0.0096947255 -1.8771814e-23)
(2.5494408 -0.0060592186 -5.912275e-22)
(2.5487374 -0.0034044374 2.0391646e-21)
(2.5481935 -0.00071827044 -5.5112692e-23)
(2.4976028 -0.0013146777 4.7061045e-23)
(2.4964739 -0.0017206342 -2.8925762e-23)
(2.4957686 -0.0020869157 9.8923643e-23)
(2.4948243 -0.002570468 9.1883785e-23)
(2.4938102 -0.0031586959 1.5109422e-22)
(2.4926624 -0.0038762388 -9.8607126e-22)
(2.491416 -0.004759335 1.0082328e-21)
(2.4900703 -0.0057825592 1.2035354e-21)
(2.4885529 -0.0069605313 3.5384078e-22)
(2.4868499 -0.0084709425 -1.1022056e-21)
(2.484944 -0.010378921 -3.6526567e-22)
(2.4829464 -0.012854775 -4.4792189e-21)
(2.4809973 -0.015925484 3.2695314e-21)
(2.4792787 -0.019729774 -1.8767785e-21)
(2.4779849 -0.024271351 5.6591093e-21)
(2.4774135 -0.029620284 5.6506353e-21)
(2.4778693 -0.03559502 1.6648152e-22)
(2.4796539 -0.042013976 4.5261139e-21)
(2.4829903 -0.048487564 -8.9547072e-22)
(2.4880068 -0.054604964 5.41482e-22)
(2.4946837 -0.059821506 -7.9697967e-22)
(2.5027943 -0.063589709 -3.766254e-21)
(2.5118887 -0.065424546 7.9016503e-23)
(2.5213317 -0.065037304 0)
(2.5304112 -0.062412888 -9.1162629e-21)
(2.5384722 -0.057816251 5.7107512e-22)
(2.5450349 -0.051731004 -2.6099477e-21)
(2.5498586 -0.044747926 7.4301996e-23)
(2.5529387 -0.037454805 2.0788604e-21)
(2.5544654 -0.030347323 4.8731874e-21)
(2.5547335 -0.023779141 3.0537208e-21)
(2.5541186 -0.017982281 4.0282133e-21)
(2.5529306 -0.013001932 2.3083748e-21)
(2.5515769 -0.0089404947 -2.4482387e-23)
(2.5501932 -0.0055100441 -2.3399999e-22)
(2.5493113 -0.0030555395 5.3269165e-22)
(2.548638 -0.00061825193 9.5908456e-23)
(2.4975795 -0.0011756573 -8.3136153e-23)
(2.4964429 -0.0015519463 -5.0526016e-23)
(2.4957318 -0.0018968117 -2.1552058e-22)
(2.4947829 -0.0023515349 -5.3133053e-22)
(2.4937673 -0.0029028692 1.8860616e-23)
(2.4926126 -0.0035846673 7.0217788e-22)
(2.4913189 -0.0044067678 1.4327941e-22)
(2.4899201 -0.0054116831 6.5102174e-22)
(2.488411 -0.0065700143 4.487047e-24)
(2.4866545 -0.0079219839 -1.1244658e-21)
(2.4846366 -0.0097152636 -2.4891271e-21)
(2.4824197 -0.012001554 -1.4693077e-21)
(2.4801994 -0.014956348 -2.1767722e-21)
(2.4781222 -0.018588057 1.0413415e-21)
(2.4763933 -0.023077627 1.137345e-21)
(2.4752565 -0.02838177 0)
(2.4750639 -0.034522002 -1.3040992e-21)
(2.4761379 -0.041221698 4.2477168e-21)
(2.4787669 -0.048241879 -9.9042437e-21)
(2.4831462 -0.055121979 -4.1551064e-21)
(2.489352 -0.061373034 1.1574637e-20)
(2.4972737 -0.06637431 -1.0116897e-20)
(2.5065512 -0.069543527 3.392142e-21)
(2.5165889 -0.070435973 2.961912e-21)
(2.5266348 -0.068871588 -2.0736817e-21)
(2.5359226 -0.064987151 2.5365255e-22)
(2.5438176 -0.059200253 9.1658614e-21)
(2.5499198 -0.052112736 1.0922139e-20)
(2.5540989 -0.044379342 7.9735171e-21)
(2.5564603 -0.036598967 3.8356991e-21)
(2.5572826 -0.029237351 2.5744814e-21)
(2.5569175 -0.022600617 -1.5171177e-21)
(2.5557703 -0.016863221 -2.0710201e-21)
(2.5541562 -0.012029874 8.5780494e-23)