/*--------------------------------*- C++ -*----------------------------------*\
| =========                 |                                                 |
| \\      /  F ield         | OpenFOAM: The Open Source CFD Toolbox           |
|  \\    /   O peration     | Version:  v2012                                 |
|   \\  /    A nd           | Website:  www.openfoam.com                      |
|    \\/     M anipulation  |                                                 |
\*---------------------------------------------------------------------------*/
FoamFile
{
    version     2.0;
    format      ascii;
    class       surfaceVectorField;
    location    "6.14070038";
    object      Uf;
}
// * * * * * * * * * * * * * * * * * * * * * * * * * * * * * * * * * * * * * //

dimensions      [0 1 -1 0 0 0 0];


internalField   nonuniform List<vector> 
18180
(
(2.5032063 -0.00083531812 -5.3420491e-22)
(2.5039473 -0.00042818333 -6.3629764e-23)
(2.5030539 -0.0015892647 -5.9095038e-22)
(2.5037765 -0.0013806489 -6.5507782e-22)
(2.5043347 -0.0010025522 -2.1094233e-22)
(2.5047703 -0.00049339534 1.2443359e-23)
(2.5028392 -0.0022543028 -1.547065e-22)
(2.5035841 -0.0021017957 -1.1745052e-22)
(2.5041316 -0.0019075175 -1.7174951e-22)
(2.5045708 -0.0015874737 2.6837643e-22)
(2.5050502 -0.001112012 4.8724862e-22)
(2.5056517 -0.00055247354 -1.2369443e-22)
(2.5025641 -0.0028299007 -3.4525878e-23)
(2.5032693 -0.0028395231 7.5552161e-23)
(2.5038459 -0.0027109235 1.1453302e-22)
(2.5043382 -0.002418084 1.0137704e-22)
(2.5048173 -0.0021167886 5.2305638e-22)
(2.5054224 -0.001775979 4.6129339e-22)
(2.5059811 -0.0012524915 -1.1946599e-22)
(2.5066101 -0.00061982957 1.030543e-22)
(2.5022596 -0.0033092648 2.3307096e-24)
(2.502928 -0.003391144 -7.7125312e-24)
(2.5034781 -0.0034035085 9.7241321e-23)
(2.5039643 -0.0032708549 1.2054109e-22)
(2.504488 -0.0030112818 1.0946112e-22)
(2.5051488 -0.0027072721 3.8871205e-23)
(2.5057108 -0.0023872926 -2.7419998e-23)
(2.5063511 -0.0019962658 1.2034857e-22)
(2.5069543 -0.0014037737 3.3546538e-22)
(2.5076473 -0.00069187405 2.677778e-22)
(2.5019306 -0.0036998247 5.7530854e-23)
(2.5025368 -0.0038932691 1.3166836e-22)
(2.5030654 -0.0039848691 1.2416343e-22)
(2.5035518 -0.0039090349 7.9465657e-23)
(2.5040633 -0.0037837037 1.0379915e-22)
(2.5047129 -0.003666628 -2.9381284e-22)
(2.5053268 -0.00339985 -3.6678941e-22)
(2.506035 -0.0030463253 4.2354824e-22)
(2.5066477 -0.0026793841 5.7100137e-22)
(2.5073591 -0.0022355422 9.1014226e-23)
(2.5080188 -0.0015690326 2.2875301e-23)
(2.5087666 -0.00076849433 -1.9323573e-22)
(2.501595 -0.0040036905 5.691786e-23)
(2.5021329 -0.0042679797 5.5498495e-23)
(2.5026173 -0.0044579916 1.258724e-22)
(2.5030797 -0.004492977 5.8200228e-23)
(2.5035839 -0.0044351815 1.5870622e-23)
(2.5042269 -0.0043879116 6.6728046e-23)
(2.5048301 -0.0042783192 -3.1109033e-22)
(2.5055352 -0.0041318701 -2.4051214e-22)
(2.50621 -0.0038210453 5.1212247e-22)
(2.5069998 -0.0034160551 6.8514752e-22)
(2.5076758 -0.0029996339 2.3119188e-22)
(2.5084506 -0.0024944528 -5.4897191e-22)
(2.5091647 -0.0017458202 -7.632654e-22)
(2.5099691 -0.00084869137 -3.3143395e-22)
(2.501259 -0.004229156 -1.1458219e-23)
(2.5017186 -0.0045670474 6.3253589e-23)
(2.5021542 -0.0048284953 6.2005421e-23)
(2.5025875 -0.0049298741 2.2501857e-23)
(2.5030612 -0.004967159 -4.34116e-23)
(2.5036693 -0.005050651 -1.0335944e-22)
(2.5042661 -0.0050228409 -5.6943196e-23)
(2.5049722 -0.0049538973 5.862969e-23)
(2.5056422 -0.0048170736 1.3150444e-22)
(2.5064355 -0.0046409152 3.6438695e-22)
(2.5071836 -0.0042845983 5.2651028e-22)
(2.5080483 -0.0038176511 -7.9772963e-23)
(2.5087867 -0.0033434542 -8.2566155e-22)
(2.5096276 -0.0027699634 -5.0860993e-22)
(2.5103961 -0.0019325024 -9.4476904e-23)
(2.5112543 -0.00093148444 -8.7120498e-23)
(2.5009312 -0.0043832742 -1.3197847e-22)
(2.5013089 -0.0047754799 -4.6776739e-24)
(2.5016867 -0.0051041386 6.6385271e-23)
(2.5020803 -0.0052807256 -4.7763563e-23)
(2.5025183 -0.0053861315 -8.7027633e-23)
(2.5030841 -0.0055499256 9.0331297e-23)
(2.5036482 -0.0056348647 3.5922045e-23)
(2.5043246 -0.0057125699 -6.66505e-23)
(2.5049936 -0.0056664355 4.2881538e-23)
(2.5057934 -0.0055769492 -5.1331746e-23)
(2.5065432 -0.0054128938 1.6696555e-22)
(2.5074203 -0.0051958695 2.0901053e-22)
(2.5082414 -0.0047843735 -3.7183398e-22)
(2.5091837 -0.0042466968 -5.9551232e-22)
(2.5099854 -0.0037079032 -2.9075667e-22)
(2.5108905 -0.0030592216 4.8540986e-22)
(2.5117113 -0.002126841 5.0155543e-22)
(2.51262 -0.0010157389 -7.0608127e-24)
(2.500616 -0.0044748138 -7.5323721e-23)
(2.5009093 -0.0049128967 -6.2002527e-23)
(2.5012261 -0.0052938994 5.9692327e-23)
(2.5015752 -0.0055266186 -1.7341202e-22)
(2.5019675 -0.0056997764 -2.8564523e-22)
(2.502478 -0.0059536017 -2.4287235e-22)
(2.5030027 -0.0061204933 -7.6128902e-23)
(2.5036404 -0.0062897598 3.1457142e-22)
(2.5042795 -0.0063702577 2.2137575e-22)
(2.5050526 -0.0064449611 6.1271619e-23)
(2.5058068 -0.0063819895 -2.7919294e-23)
(2.5066983 -0.0062604061 -6.8187512e-23)
(2.5075291 -0.0060586743 -3.1690503e-23)
(2.5084945 -0.0057912551 -4.1610099e-22)
(2.5093895 -0.0053165518 -6.2902033e-22)
(2.5104077 -0.0046989895 -2.1713822e-22)
(2.5112713 -0.0040888246 5.2139516e-22)
(2.512238 -0.0033586761 4.4442886e-22)
(2.5131079 -0.0023262929 -3.9540432e-23)
(2.5140623 -0.0011002088 -1.2583561e-21)
(2.5003174 -0.004512209 1.3251468e-23)
(2.5005267 -0.0049839936 -6.2071106e-23)
(2.5007801 -0.0054076401 -4.9660586e-23)
(2.5010803 -0.0056904735 2.6823198e-23)
(2.5014224 -0.0059178116 -1.9511118e-22)
(2.5018712 -0.0062394531 -3.1478774e-22)
(2.5023443 -0.0064876581 -2.7426984e-22)
(2.5029282 -0.0067603258 -1.2538782e-22)
(2.503529 -0.0069339727 2.4494993e-22)
(2.5042643 -0.007113374 3.9150159e-23)
(2.5049917 -0.0071925096 -1.1580211e-22)
(2.5058624 -0.0072526847 2.8011675e-22)
(2.5067046 -0.0071621068 2.4666345e-22)
(2.5076933 -0.0069985385 2.0445951e-22)
(2.508608 -0.0067502831 -1.5670689e-22)
(2.5096615 -0.0064218867 -7.1873453e-22)
(2.5106293 -0.0058755488 -3.2902388e-22)
(2.5117203 -0.0051692304 1.3300706e-23)
(2.5126434 -0.004481462 -6.7912471e-23)
(2.5136671 -0.0036641964 -9.0281159e-22)
(2.5145815 -0.0025278984 -2.0740036e-21)
(2.5155754 -0.0011835343 -1.1239973e-21)
(2.5000379 -0.0045038687 1.0403604e-23)
(2.5001647 -0.0049999941 3.5539792e-25)
(2.5003546 -0.0054554316 -7.153457e-23)
(2.5006039 -0.0057769425 2.435898e-22)
(2.5008921 -0.0060506187 3.2085629e-22)
(2.5012735 -0.0064328072 -1.4610223e-22)
(2.5016891 -0.0067464005 -2.5872204e-22)
(2.5022108 -0.007098211 -2.3685154e-22)
(2.5027593 -0.0073653428 -9.4726318e-23)
(2.5034392 -0.0076634971 1.6493499e-22)
(2.5041295 -0.0078487691 -3.2023711e-23)
(2.504966 -0.0080274915 -3.8316426e-23)
(2.5057865 -0.008094559 3.3863701e-22)
(2.5067622 -0.008130251 2.8221054e-22)
(2.5076965 -0.0080029382 2.4268678e-22)
(2.5087842 -0.0077859648 -2.8201158e-22)
(2.5097831 -0.0074813276 -8.1770256e-22)
(2.5109236 -0.0070810557 5.2236548e-23)
(2.5119614 -0.0064548863 3.8326001e-22)
(2.5131201 -0.0056512962 1.3925057e-22)
(2.5140984 -0.0048802543 -6.5048505e-22)
(2.5151731 -0.0039709762 -8.8492212e-22)
(2.5161262 -0.0027282898 3.6010654e-23)
(2.517152 -0.0012642628 1.2529683e-21)
(2.4997792 -0.0044575191 8.5820306e-23)
(2.4998266 -0.0049690998 9.619607e-23)
(2.4999537 -0.0054471998 8.8012302e-23)
(2.5001514 -0.0057989084 9.8371722e-23)
(2.5003842 -0.0061090667 4.0035734e-22)
(2.5006955 -0.0065381295 2.3074209e-22)
(2.5010485 -0.0069077666 -2.1397177e-22)
(2.5015006 -0.0073310838 -3.7326188e-23)
(2.501989 -0.0076744196 -1.3038151e-23)
(2.5026031 -0.0080651399 -7.6500321e-23)
(2.5032398 -0.0083579639 1.7021032e-22)
(2.5040221 -0.0086719096 -6.3695848e-23)
(2.5048084 -0.0088587549 -7.0176136e-23)
(2.5057552 -0.0090275857 1.2090653e-22)
(2.506675 -0.0090734576 6.429656e-23)
(2.5077598 -0.0090726351 1.5808402e-22)
(2.5087883 -0.008897984 -3.4134017e-22)
(2.5099755 -0.0086154118 -3.7586624e-22)
(2.5110576 -0.0082442218 4.5733045e-22)
(2.5122815 -0.0077608481 1.2212175e-21)
(2.5133845 -0.0070469244 1.0026575e-21)
(2.5146039 -0.0061381823 -3.1222651e-22)
(2.5156318 -0.0052788889 -5.2956931e-22)
(2.5167497 -0.0042736752 1.2881389e-22)
(2.5177343 -0.002923842 1.2860562e-21)
(2.5187832 -0.0013408973 2.469404e-21)
(2.4995417 -0.0043802053 9.5644251e-23)
(2.4995136 -0.00489979 5.539807e-23)
(2.4995801 -0.0053922613 6.4769998e-23)
(2.4997269 -0.0057656032 -1.0001703e-22)
(2.499904 -0.0061038886 -9.3290362e-23)
(2.5001442 -0.006569594 2.3035295e-22)
(2.5004322 -0.0069834654 6.6541218e-23)
(2.5008105 -0.0074630617 -2.4029057e-22)
(2.5012319 -0.0078726191 -7.2924557e-23)
(2.5017705 -0.0083479183 9.3270873e-23)
(2.502344 -0.0087297362 3.4678434e-23)
(2.503059 -0.0091512925 9.7090698e-23)
(2.5037924 -0.0094608355 -1.2623265e-22)
(2.5046879 -0.0097824967 -1.3433425e-22)
(2.5055782 -0.009962467 4.6536893e-23)
(2.506642 -0.01010974 -3.2994321e-22)
(2.5076653 -0.010123322 -2.4665332e-22)
(2.5088625 -0.010072621 -7.291382e-23)
(2.5099858 -0.0098392832 -1.0182455e-22)
(2.5112706 -0.0094780374 2.3967671e-22)
(2.5124327 -0.0090297869 9.6175072e-22)
(2.5137343 -0.0084520166 1.3666529e-21)
(2.5148961 -0.0076429371 1.2345754e-22)
(2.516167 -0.0066221583 -8.833864e-22)
(2.517237 -0.0056705442 -2.6362861e-22)
(2.5183887 -0.0045668065 1.8149233e-22)
(2.5193964 -0.0031109686 1.2880433e-21)
(2.5204587 -0.0014119766 1.4132909e-21)
(2.4993248 -0.0042783708 -7.9594884e-23)
(2.4992262 -0.0047995028 1.2910904e-23)
(2.499235 -0.0052991931 -2.6945312e-23)
(2.4993325 -0.0056869047 -3.344677e-24)
(2.499455 -0.0060454039 -1.6107036e-22)
(2.4996249 -0.0065372857 3.25086e-22)
(2.4998471 -0.0069852821 6.3915887e-22)
(2.5001491 -0.0075096481 -2.1961684e-22)
(2.5004999 -0.0079723046 -5.1560625e-22)
(2.5009569 -0.0085153344 -5.2119871e-23)
(2.5014584 -0.0089755369 1.0606976e-22)
(2.502094 -0.0094966731 -2.3614024e-22)
(2.5027624 -0.0099095101 -1.8115261e-22)
(2.5035907 -0.010355571 -4.6235138e-24)
(2.5044305 -0.010674498 -1.0395291e-23)
(2.5054484 -0.01099304 -7.5782242e-23)
(2.5064494 -0.011155373 -4.3487733e-22)
(2.5076362 -0.011267651 1.3879636e-23)
(2.5087661 -0.011236601 1.8267577e-22)
(2.5100767 -0.011121101 -4.8803858e-23)
(2.5112933 -0.010816859 2.7671547e-22)
(2.5126717 -0.010363209 -8.0701441e-22)
(2.5139084 -0.0098272843 -4.5040348e-22)
(2.5152795 -0.0091441488 -1.0951008e-21)
(2.5164914 -0.00823336 -2.0704387e-21)
(2.5178029 -0.0070950656 2.9602424e-22)
(2.5189061 -0.0060483247 7.2754259e-22)
(2.5200808 -0.0048452122 2.7256188e-22)
(2.5211023 -0.0032863976 3.7562741e-22)
(2.5221673 -0.0014761608 -4.7219438e-22)
(2.4991281 -0.0041577008 -1.9308204e-22)
(2.498964 -0.0046750401 -2.2837936e-22)
(2.4989186 -0.0051758513 -1.4316984e-22)
(2.4989692 -0.005571473 1.1625584e-22)
(2.4990393 -0.0059432552 1.4095757e-22)
(2.4991409 -0.0064522846 6.1368057e-23)
(2.499298 -0.0069247107 5.2669401e-22)
(2.4995236 -0.0074818196 6.9520087e-22)
(2.4998018 -0.0079861927 -1.1954348e-22)
(2.5001734 -0.0085840289 -3.4529614e-22)
(2.5005973 -0.0091081138 9.7648012e-23)
(2.5011451 -0.0097105923 -1.7360856e-22)
(2.5017374 -0.010215793 -5.0282518e-22)
(2.5024835 -0.010778545 -1.040439e-22)
(2.503258 -0.011216696 6.4846055e-23)
(2.5042112 -0.011678052 -4.560466e-23)
(2.5051665 -0.011996446 -1.0886891e-22)
(2.506316 -0.012298885 -5.2791792e-22)
(2.5074333 -0.012431161 -1.0317197e-22)
(2.5087473 -0.012492847 3.1583329e-22)
(2.5099851 -0.012403331 9.7940967e-23)
(2.5114077 -0.012206697 7.7377891e-22)
(2.5127138 -0.011818657 -2.4732844e-22)
(2.5141789 -0.011258624 -8.9349522e-22)
(2.5154827 -0.01062467 -1.5127359e-21)
(2.5169125 -0.0098260554 -2.2023515e-21)
(2.5181642 -0.0088082299 4.3036206e-23)
(2.5195035 -0.0075486572 9.1365187e-22)
(2.5206297 -0.0064056348 4.8447064e-22)
(2.5218154 -0.0051043052 2.4754391e-22)
(2.5228405 -0.003447238 -5.5967482e-22)
(2.5238974 -0.0015322837 -3.4638415e-22)
(2.4989504 -0.0040231221 4.3633409e-25)
(2.4987262 -0.0045323116 -1.8254216e-22)
(2.4986306 -0.0050291918 -2.153487e-22)
(2.4986371 -0.0054272544 -2.8989302e-22)
(2.4986574 -0.0058062453 -4.5797228e-23)
(2.4986939 -0.0063243626 -2.5111722e-22)
(2.4987879 -0.006812633 -3.3295573e-22)
(2.4989386 -0.0073919604 1.0861179e-22)
(2.499144 -0.007926919 2.6210365e-22)
(2.4994289 -0.0085657669 3.029093e-23)
(2.4997719 -0.0091409497 -1.8176354e-22)
(2.5002261 -0.0098105225 7.2073292e-22)
(2.5007346 -0.010392412 4.7345925e-22)
(2.5013873 -0.011052555 -3.4345858e-22)
(2.5020827 -0.011599043 3.7832615e-23)
(2.5029531 -0.012196323 -2.4765854e-23)
(2.503845 -0.012651391 -1.3165474e-22)
(2.5049352 -0.013116462 2.3383526e-22)
(2.5060145 -0.013422402 -1.5942012e-22)
(2.5073033 -0.013693026 -5.3401668e-22)
(2.5085412 -0.013780777 -1.4269531e-22)
(2.5099843 -0.013774114 -3.4653066e-24)
(2.5113289 -0.013610929 6.37115e-22)
(2.5128595 -0.013315791 8.6777777e-22)
(2.5142488 -0.012830759 2.7162395e-22)
(2.5157909 -0.012150698 9.3282301e-22)
(2.5171517 -0.011409112 3.1626534e-22)
(2.5186272 -0.010486247 3.4542822e-22)
(2.5199066 -0.0093575718 1.1769849e-21)
(2.5212594 -0.0079748217 8.2553693e-22)
(2.5223972 -0.0067362751 6.0594148e-22)
(2.5235809 -0.0053399408 -1.9090979e-23)
(2.5245992 -0.0035908391 1.9196145e-22)
(2.5256369 -0.0015793548 2.9322703e-24)
(2.4987906 -0.0038788293 1.5508699e-22)
(2.4985116 -0.0043764132 2.1278378e-22)
(2.4983697 -0.0048652591 4.2866527e-23)
(2.4983353 -0.0052612022 -1.8714114e-22)
(2.4983092 -0.0056422417 -2.5750375e-22)
(2.4982843 -0.0061625781 -4.6261814e-22)
(2.4983183 -0.0066591089 -6.6428097e-22)
(2.4983966 -0.0072511052 -5.4454004e-22)
(2.4985309 -0.0078066466 -1.2846859e-22)
(2.4987296 -0.0084742304 1.7329067e-22)
(2.4989906 -0.009087747 -4.8245747e-23)
(2.4993482 -0.0098088325 1.2942761e-22)
(2.4997676 -0.010453316 9.9159778e-22)
(2.5003186 -0.011195445 6.5884107e-22)
(2.5009247 -0.011833711 -1.1415007e-22)
(2.5016977 -0.012547043 -7.5771798e-23)
(2.5025095 -0.013128439 -1.3702465e-22)
(2.5035188 -0.013750695 2.5227378e-23)
(2.5045394 -0.014212082 3.7422323e-22)
(2.5057779 -0.014666129 3.6389004e-23)
(2.5069888 -0.014945129 -3.157532e-22)
(2.508423 -0.015165331 -2.5250801e-22)
(2.5097835 -0.015192035 -1.2139239e-22)
(2.5113552 -0.015097407 5.3756037e-22)
(2.5128029 -0.014844323 7.5461097e-22)
(2.514434 -0.014432903 -2.6725834e-22)
(2.5158976 -0.013837922 3.5167815e-22)
(2.5175041 -0.013025089 5.3986795e-22)
(2.5189096 -0.012167469 5.7106367e-22)
(2.5204153 -0.011113265 9.4250615e-22)
(2.521709 -0.0098715812 6.0519168e-22)
(2.5230596 -0.0083656923 5.3453668e-22)
(2.5241966 -0.0070343383 -6.0039519e-23)
(2.525365 -0.0055481115 9.8355774e-22)
(2.526366 -0.0037146217 8.1630838e-22)
(2.5273739 -0.0016165324 -5.2271832e-22)
(2.4986474 -0.0037283167 2.1785127e-22)
(2.4983188 -0.0042116843 2.3449551e-22)
(2.4981347 -0.0046892194 2.9056232e-22)
(2.4980627 -0.0050793381 2.5388834e-22)
(2.4979935 -0.0054581319 3.875913e-23)
(2.4979117 -0.0059749266 1.9587687e-22)
(2.4978891 -0.0064732319 8.2512532e-24)
(2.4978989 -0.0070696397 -4.3582953e-22)
(2.4979647 -0.007636783 -3.1846122e-22)
(2.4980796 -0.0083217732 -1.7652128e-22)
(2.4982593 -0.0089619619 1.0940732e-22)
(2.4985196 -0.0097204201 -1.672984e-22)
(2.4988474 -0.01041308 -6.4072426e-25)
(2.4992914 -0.011219878 4.457089e-22)
(2.4998006 -0.01193468 1.2070968e-22)
(2.5004648 -0.012747821 -4.5401435e-23)
(2.5011831 -0.01343854 -7.8613675e-24)
(2.5020934 -0.014198201 1.348195e-22)
(2.5030354 -0.014805847 2.9405416e-22)
(2.5041984 -0.015440084 -4.1035516e-22)
(2.5053588 -0.015894233 -7.4276242e-22)
(2.5067557 -0.016318994 -1.485665e-22)
(2.5081042 -0.016553834 -8.5293015e-23)
(2.5096872 -0.016702293 3.6813844e-23)
(2.51117 -0.016649636 6.6408532e-22)
(2.5128661 -0.016446165 1.4943334e-21)
(2.5144103 -0.016086503 5.3495884e-22)
(2.5161312 -0.015541242 -1.1576261e-21)
(2.5176575 -0.014824107 -1.0030373e-21)
(2.5193129 -0.013867066 7.496698e-23)
(2.5207487 -0.012886528 4.1999741e-22)
(2.5222672 -0.011695846 3.4466298e-22)
(2.5235603 -0.01034072 2.737233e-22)
(2.524892 -0.0087137943 -1.020853e-21)
(2.5260156 -0.0072941696 -4.5066048e-23)
(2.5271552 -0.0057248099 1.2886355e-21)
(2.5281285 -0.0038160802 2.4322493e-23)
(2.5290961 -0.0016431135 -1.2422414e-21)
(2.4985194 -0.0035744511 8.5421966e-23)
(2.4981461 -0.0040417057 1.7773984e-22)
(2.4979237 -0.0045054264 1.9339007e-22)
(2.4978176 -0.0048867756 3.1601433e-22)
(2.4977089 -0.0052598328 2.8158165e-22)
(2.4975746 -0.0057684021 3.9012015e-22)
(2.4974995 -0.0062630477 5.4495765e-22)
(2.4974452 -0.0068568373 5.1504736e-22)
(2.4974462 -0.0074277879 1.0127241e-22)
(2.4974809 -0.0081202318 -5.1538482e-22)
(2.4975816 -0.008776438 -3.8368338e-22)
(2.4977461 -0.0095589564 -1.7615619e-22)
(2.4979819 -0.01028637 -4.4351885e-22)
(2.4983166 -0.011141764 -2.840669e-22)
(2.4987242 -0.011917074 1.3512995e-22)
(2.4992716 -0.012811159 1.6916581e-22)
(2.499886 -0.013595117 1.1793409e-23)
(2.5006821 -0.014475574 -1.5746294e-22)
(2.5015286 -0.015212623 -2.3533263e-23)
(2.5025939 -0.016008207 9.0619666e-23)
(2.5036803 -0.016630227 -5.7988932e-22)
(2.5050115 -0.017259437 -2.1933154e-22)
(2.5063213 -0.017689476 3.5326402e-22)
(2.507885 -0.018063162 3.4264713e-22)
(2.5093747 -0.018234047 4.6476677e-22)
(2.5111069 -0.018287252 -2.7854517e-22)
(2.5127086 -0.018135684 4.9514582e-22)
(2.5145216 -0.017801852 9.6296515e-22)
(2.5161524 -0.017319063 -6.3740653e-22)
(2.517949 -0.016623112 -7.1625618e-22)
(2.5195234 -0.01577275 3.119923e-22)
(2.5212096 -0.014661728 6.4542904e-23)
(2.5226593 -0.013553149 -1.2439479e-23)
(2.5241717 -0.012223087 3.061979e-22)
(2.5254483 -0.01075594 -9.2293864e-22)
(2.5267437 -0.0090123191 -1.3258661e-21)
(2.5278409 -0.0075105538 -7.9619322e-23)
(2.5289384 -0.0058662204 -3.2639316e-22)
(2.5298742 -0.0038929702 -1.5345935e-21)
(2.5307918 -0.0016585624 -5.0283969e-22)
(2.4984054 -0.003419581 -1.1860947e-22)
(2.4979919 -0.0038693469 -2.1177185e-22)
(2.497735 -0.004317489 -1.2835323e-22)
(2.497598 -0.0046878105 2.0083795e-23)
(2.4974534 -0.0050523421 1.338074e-22)
(2.4972713 -0.0055489642 -1.1842369e-23)
(2.497148 -0.0060355362 8.6801527e-23)
(2.4970343 -0.0066209144 5.6375624e-22)
(2.4969748 -0.0071890376 5.3564155e-22)
(2.496934 -0.007880317 7.7821914e-22)
(2.4969593 -0.0085431509 2.0322289e-22)
(2.4970311 -0.0093378259 -4.9921384e-22)
(2.4971764 -0.01008747 -3.039234e-22)
(2.4974019 -0.010975982 -6.889012e-22)
(2.497706 -0.011796555 -5.413359e-22)
(2.4981318 -0.012753631 3.5605454e-22)
(2.4986351 -0.01361336 3.9154089e-22)
(2.4993055 -0.014594549 3.2370101e-23)
(2.5000426 -0.01544453 -1.2806612e-22)
(2.500991 -0.016385126 3.0250092e-22)
(2.5019827 -0.017159067 4.1696488e-22)
(2.5032215 -0.017975852 -3.6967872e-22)
(2.504466 -0.018596611 -2.392043e-23)
(2.5059785 -0.019199594 5.4541767e-22)
(2.5074459 -0.019585342 5.3835754e-22)
(2.5091818 -0.019883041 5.5441409e-22)
(2.5108134 -0.01996809 -1.5011786e-22)
(2.5126916 -0.019900906 2.809995e-22)
(2.5144054 -0.019630206 7.2328106e-22)
(2.5163236 -0.019144347 -9.1094227e-22)
(2.518028 -0.018522448 -9.8940478e-22)
(2.5198825 -0.017660134 2.9613567e-23)
(2.5214882 -0.01666693 -2.0953283e-22)
(2.5231846 -0.015394276 -1.0192863e-21)
(2.5246303 -0.014154568 -7.324108e-22)
(2.5261164 -0.01268477 6.8407703e-22)
(2.52736 -0.011109055 3.2645519e-22)
(2.5286014 -0.0092554306 3.9417041e-23)
(2.5296595 -0.0076790292 -1.9269056e-22)
(2.5307021 -0.0059691133 -1.0037228e-21)
(2.5315909 -0.0039435573 -1.573132e-23)
(2.5324497 -0.0016625596 6.7351582e-22)
(2.4983039 -0.0032656116 -1.1427362e-22)
(2.4978546 -0.0036970538 -9.1331003e-23)
(2.4975668 -0.0041283381 -1.7939324e-22)
(2.497402 -0.0044859246 5.7592186e-23)
(2.497225 -0.0048398166 2.0114192e-22)
(2.4969996 -0.0053216539 -6.1458598e-23)
(2.4968322 -0.005796633 -2.0272502e-22)
(2.4966644 -0.0063689324 1.3141114e-22)
(2.496549 -0.0069287738 5.8518279e-22)
(2.4964379 -0.0076116784 4.884623e-22)
(2.4963923 -0.0082729994 7.1813427e-22)
(2.496376 -0.0090693058 5.5144647e-22)
(2.496434 -0.0098299611 -1.1024171e-22)
(2.4965525 -0.010737493 1.9413875e-22)
(2.4967535 -0.011588758 -1.6371594e-22)
(2.4970558 -0.012591082 1.2421528e-22)
(2.4974438 -0.013509574 9.8682223e-22)
(2.4979807 -0.01457184 5.3551995e-22)
(2.498598 -0.015516157 1.9664926e-22)
(2.4994139 -0.016581015 4.9633758e-23)
(2.500293 -0.017490629 4.6139474e-22)
(2.5014156 -0.018479762 -1.4121211e-22)
(2.5025699 -0.019277129 -8.95959e-22)
(2.5040002 -0.020095756 -7.9495472e-22)
(2.5054155 -0.020695702 -2.663637e-22)
(2.5071205 -0.021247316 8.0411325e-22)
(2.5087512 -0.021565643 8.2353996e-22)
(2.5106614 -0.021759752 -3.9547478e-22)
(2.5124322 -0.0217355 1.0673164e-23)
(2.5144488 -0.021521591 8.2224507e-22)
(2.5162641 -0.021111304 -7.2754227e-22)
(2.5182718 -0.020452097 -9.0231658e-24)
(2.5200332 -0.019676101 9.7429351e-22)
(2.5219246 -0.018633547 -7.9430344e-22)
(2.5235422 -0.017489767 -1.5722789e-21)
(2.5252261 -0.016050478 9.5410653e-22)
(2.5266487 -0.014678887 2.3257952e-21)
(2.5280876 -0.01307174 -3.5014064e-22)
(2.5292815 -0.01139307 -6.3289193e-22)
(2.5304518 -0.0094384514 -1.6564005e-22)
(2.5314586 -0.0077961426 -9.3537292e-22)
(2.5324342 -0.0060311883 -3.8765795e-22)
(2.5332673 -0.003966778 2.6098266e-22)
(2.534059 -0.0016550337 -4.2007172e-22)
(2.4982137 -0.003114048 -1.0117304e-22)
(2.4977326 -0.0035266599 -2.8756886e-22)
(2.4974171 -0.0039403212 -2.6817424e-22)
(2.4972275 -0.0042840168 -2.4103595e-22)
(2.4970215 -0.0046256494 -1.7047869e-23)
(2.4967571 -0.0050905655 -4.025923e-23)
(2.4965499 -0.0055512988 -2.93553e-22)
(2.4963329 -0.0061069409 -1.3328223e-22)
(2.4961664 -0.0066540794 1.8522365e-22)
(2.4959909 -0.0073226935 -2.0605238e-22)
(2.4958794 -0.0079757213 -3.1043003e-22)
(2.4957807 -0.0087647029 -6.4278302e-23)
(2.4957558 -0.0095264138 -2.3501764e-22)
(2.4957714 -0.010440188 3.6136865e-22)
(2.4958715 -0.01130888 6.5788473e-22)
(2.4960513 -0.012339997 -1.5923918e-22)
(2.4963225 -0.013300528 1.1403618e-22)
(2.4967214 -0.014423873 3.253555e-22)
(2.4972119 -0.015443938 -1.1377705e-22)
(2.4978834 -0.016612025 -5.9687565e-22)
(2.4986359 -0.017638057 -7.4960161e-22)
(2.4996217 -0.018778804 -2.0626158e-22)
(2.5006636 -0.019737535 -7.8802417e-22)
(2.5019829 -0.020758738 -1.0913432e-21)
(2.503317 -0.02156174 -9.9712396e-22)
(2.5049558 -0.022358281 -4.7028893e-22)
(2.5065528 -0.022914164 5.4317595e-22)
(2.5084586 -0.023385521 8.6873074e-23)
(2.5102549 -0.023610746 -1.0824035e-21)
(2.5123372 -0.023671223 -1.1311288e-22)
(2.5142407 -0.023513 6.5569323e-22)
(2.5163832 -0.023125294 -2.2932789e-22)
(2.5182855 -0.022555177 4.6082439e-22)
(2.5203626 -0.021702396 5.911357e-22)
(2.5221615 -0.020758877 -1.0942741e-21)
(2.5240656 -0.019524748 -5.4351251e-22)
(2.5256737 -0.018225047 1.871661e-21)
(2.5273209 -0.016617214 1.8092265e-21)
(2.5287006 -0.01511552 -7.3991418e-22)
(2.5300713 -0.013376202 -1.5695891e-21)
(2.531199 -0.011602334 -1.1404447e-21)
(2.5322818 -0.0095578934 -7.6193944e-22)
(2.5332256 -0.0078595621 -2.3915027e-22)
(2.5341231 -0.0060512271 -5.2841007e-23)
(2.5348928 -0.0039622711 -7.0440667e-22)
(2.5356104 -0.0016361553 -6.4228642e-22)
(2.4981337 -0.002966057 -6.3490443e-23)
(2.4976244 -0.003359747 4.4547513e-23)
(2.4972843 -0.0037552772 -1.3026275e-22)
(2.4970726 -0.0040842397 -4.3221157e-22)
(2.4968406 -0.0044125666 -4.0882138e-22)
(2.4965413 -0.0048591535 -6.8407924e-22)
(2.4962984 -0.0053035976 -7.1674215e-22)
(2.4960371 -0.0058398418 -5.1308971e-22)
(2.4958244 -0.0063709392 -3.6435238e-22)
(2.4955902 -0.0070206818 2.6864797e-22)
(2.4954184 -0.0076597965 -1.0164144e-22)
(2.4952434 -0.0084339056 2.284437e-22)
(2.495141 -0.0091882689 4.7081336e-22)
(2.4950594 -0.010097247 -7.4146193e-22)
(2.4950627 -0.010971252 -1.8299998e-22)
(2.4951229 -0.012015813 -9.4848527e-22)
(2.4952784 -0.013002939 -1.7499761e-21)
(2.4955381 -0.014168492 -1.4829866e-22)
(2.4958978 -0.015245421 4.8270551e-23)
(2.4964171 -0.016494606 -7.5074559e-22)
(2.4970321 -0.0176172 -1.2201809e-21)
(2.497865 -0.018887646 -8.4049864e-22)
(2.4987757 -0.019988468 -3.265347e-22)
(2.4999581 -0.021192493 -1.7840499e-22)
(2.5011841 -0.022185305 -4.5560395e-22)
(2.5027226 -0.023217177 -9.3952878e-22)
(2.5042529 -0.024003773 -4.3826561e-22)
(2.5061151 -0.02474963 1.2672994e-22)
(2.5079022 -0.025234692 -3.1316573e-22)
(2.5100131 -0.025593153 -4.8333496e-22)
(2.5119736 -0.025697253 4.4544929e-22)
(2.5142207 -0.025591983 4.9218332e-22)
(2.5162456 -0.025274317 -3.5086367e-22)
(2.5184966 -0.024685817 -1.6922395e-22)
(2.5204673 -0.023936509 -5.5318431e-23)
(2.5225894 -0.022871972 -1.3920732e-21)
(2.5244031 -0.021749762 -8.7370188e-22)
(2.5262932 -0.020315945 1.104295e-21)
(2.5278688 -0.018857796 1.0330586e-21)
(2.529454 -0.017082872 -8.3865931e-22)
(2.530771 -0.015455446 -1.6280526e-21)
(2.5320526 -0.013591867 4.6335437e-22)
(2.5330986 -0.011732584 8.4813501e-22)
(2.5340787 -0.00961145 6.2819055e-22)
(2.5349489 -0.0078681 8.1900983e-22)
(2.5357584 -0.0060290551 4.729495e-22)
(2.5364578 -0.0039303062 5.4993706e-22)
(2.5370954 -0.0016063013 6.911905e-22)
(2.4980626 -0.002822523 -3.256678e-23)
(2.4975285 -0.0031972262 7.5291916e-23)
(2.4971666 -0.0035746181 1.7975295e-22)
(2.4969354 -0.00388854 2.7623319e-22)
(2.4966803 -0.0042027103 -3.8259996e-24)
(2.4963499 -0.0046299165 -7.6162608e-23)
(2.4960749 -0.0050568099 -3.3234761e-22)
(2.4957741 -0.0055718697 -9.6462944e-23)
(2.4955197 -0.0060842864 1.0681375e-22)
(2.4952328 -0.0067115625 -8.5627745e-22)
(2.4950062 -0.0073325079 -2.6280081e-22)
(2.4947617 -0.0080858221 -1.8535157e-23)
(2.4945877 -0.0088256374 2.9632714e-22)
(2.4944154 -0.0097201801 4.9229451e-23)
(2.4943274 -0.010589179 -1.1089346e-21)
(2.4942732 -0.011633796 -1.098039e-21)
(2.4943161 -0.012632916 -1.8395768e-21)
(2.4944378 -0.013822488 -1.3468773e-21)
(2.494666 -0.014938632 1.8085536e-22)
(2.4950289 -0.016247661 1.1992602e-21)
(2.4954995 -0.01744587 4.5853921e-22)
(2.496167 -0.018822023 -3.821513e-22)
(2.4969316 -0.020044283 -8.2603664e-24)
(2.4979552 -0.02140907 -4.8066887e-22)
(2.4990492 -0.022573287 -3.424092e-22)
(2.5004557 -0.023823004 -2.559534e-22)
(2.5018874 -0.02483029 -7.1242171e-22)
(2.503667 -0.025846091 -3.9901088e-22)
(2.5054081 -0.026589887 1.381985e-22)
(2.5075056 -0.027251386 2.3130643e-22)
(2.5094875 -0.027635315 7.7165778e-23)
(2.5118028 -0.027844623 -9.2405553e-22)
(2.5139211 -0.027797534 -9.011219e-22)
(2.5163199 -0.027493125 2.3288899e-22)
(2.5184503 -0.026990461 4.1451452e-22)
(2.5207869 -0.026175343 2.1540817e-22)
(2.5228033 -0.02522925 -1.0498029e-21)
(2.5249422 -0.023937747 -1.0794185e-21)
(2.5267455 -0.022628583 7.9572365e-22)
(2.5285926 -0.02099068 4.96254e-22)
(2.530112 -0.019374642 -1.2892101e-21)
(2.5316097 -0.017437581 -2.6198891e-21)
(2.5328441 -0.015691353 -6.4889765e-22)
(2.5340169 -0.013714096 9.3515922e-22)
(2.5349667 -0.011781036 7.2809315e-22)
(2.5358305 -0.0095980313 9.2121394e-23)
(2.5366176 -0.0078216903 -2.4792979e-22)
(2.5373305 -0.005965398 1.1966425e-21)
(2.537954 -0.0038716723 1.3409719e-21)
(2.538507 -0.0015660073 3.1287293e-22)
(2.4979991 -0.0026840971 -1.3665844e-24)
(2.4974436 -0.0030403054 -7.4471254e-23)
(2.4970622 -0.0033993835 2.7320373e-23)
(2.4968139 -0.0036978949 3.1384093e-23)
(2.4965384 -0.0039977409 1.2078745e-22)
(2.4961805 -0.0044052591 1.3093855e-22)
(2.495877 -0.0048135154 6.4482114e-23)
(2.495541 -0.0053059791 -1.968108e-22)
(2.4952494 -0.0057981357 2.9407299e-23)
(2.4949153 -0.0064006292 5.1772705e-22)
(2.4946393 -0.0069999134 -3.9059233e-22)
(2.4943321 -0.0077275864 -9.5808536e-22)
(2.494093 -0.0084473845 -7.3709246e-22)
(2.4938375 -0.0093198609 6.1738443e-22)
(2.4936643 -0.010174606 3.8770466e-22)
(2.4935021 -0.011207057 6.1775246e-23)
(2.4934374 -0.012205724 9.0625892e-23)
(2.4934255 -0.013403415 -1.5032688e-21)
(2.4935235 -0.014541397 -1.0299516e-21)
(2.4937291 -0.015889017 -3.1155061e-22)
(2.4940517 -0.017143051 6.4817515e-22)
(2.4945461 -0.018601389 1.5290745e-21)
(2.4951535 -0.019922314 7.4809869e-22)
(2.4960008 -0.021422536 8.1780191e-22)
(2.4969427 -0.022737399 3.8214064e-22)
(2.498189 -0.02418384 -4.3766237e-22)
(2.4994926 -0.025395468 -3.5609907e-22)
(2.5011516 -0.026667587 -2.1231796e-22)
(2.5028099 -0.027664777 9.1224489e-23)
(2.5048503 -0.0286315 -4.618522e-22)
(2.506814 -0.02930134 -3.8099788e-22)
(2.509154 -0.029839517 3.3129368e-22)
(2.5113308 -0.030088541 -6.1557883e-22)
(2.5138437 -0.030109538 -1.148362e-21)
(2.5161082 -0.029879852 -7.5287952e-23)
(2.5186393 -0.029342805 1.780392e-21)
(2.520854 -0.028630524 1.612646e-21)
(2.5232481 -0.027565269 -1.364134e-21)
(2.5252837 -0.026407432 -1.3971648e-21)
(2.5274077 -0.024877498 3.1522125e-23)
(2.5291733 -0.02337649 -2.644957e-22)
(2.5309472 -0.021534201 -1.0961156e-21)
(2.5323861 -0.019764077 -2.3563089e-21)
(2.5337711 -0.01767344 -2.2502544e-21)
(2.534904 -0.015817862 -7.7091891e-22)
(2.5359496 -0.013740072 1.0873285e-21)
(2.5367901 -0.011746509 4.8846791e-22)
(2.5375259 -0.0095178154 -5.9780061e-22)
(2.5382218 -0.0077213237 7.6865736e-22)
(2.5388313 -0.0058617077 -8.943519e-23)
(2.5393744 -0.0037875647 -1.0877239e-21)
(2.5398396 -0.0015159285 -9.6617686e-22)
(2.4979417 -0.0025512402 -1.6570164e-23)
(2.4973677 -0.0028888454 -1.5332144e-22)
(2.4969693 -0.0032303085 -2.2491273e-22)
(2.4967062 -0.0035139108 -2.8582307e-22)
(2.4964129 -0.0037988936 -2.8711362e-22)
(2.4960307 -0.0041862054 -1.4822992e-23)
(2.495702 -0.0045757182 -7.0999599e-24)
(2.4953349 -0.0050452371 -3.550171e-22)
(2.4950102 -0.0055156462 -6.0983615e-22)
(2.4946342 -0.0060914115 2.7599641e-22)
(2.4943142 -0.0066670218 7.4376706e-22)
(2.4939509 -0.0073659443 -5.7986308e-23)
(2.4936531 -0.0080609695 -5.9188625e-22)
(2.4933219 -0.0089047322 1.6459995e-22)
(2.4930707 -0.0097382378 1.4653967e-21)
(2.4928086 -0.010748895 1.7297459e-21)
(2.4926425 -0.011735294 1.4414047e-21)
(2.4925023 -0.012925809 2.0243647e-21)
(2.4924745 -0.014070962 5.4102191e-22)
(2.4925252 -0.015438671 -8.2680536e-22)
(2.4926992 -0.01672812 -1.4103032e-22)
(2.4930161 -0.018244159 -1.4094944e-21)
(2.4934594 -0.019641956 -6.0474813e-22)
(2.4941178 -0.021252102 1.7543104e-21)
(2.4948916 -0.02269349 1.8355768e-21)
(2.4959541 -0.024310894 9.5647094e-22)
(2.4971035 -0.025707006 1.8777645e-22)
(2.4986069 -0.027216711 -2.9040022e-22)
(2.5001471 -0.02845449 -1.5355237e-22)
(2.5020864 -0.029718502 -6.3953689e-22)