/*--------------------------------*- C++ -*----------------------------------*\
| =========                 |                                                 |
| \\      /  F ield         | OpenFOAM: The Open Source CFD Toolbox           |
|  \\    /   O peration     | Version:  v2012                                 |
|   \\  /    A nd           | Website:  www.openfoam.com                      |
|    \\/     M anipulation  |                                                 |
\*---------------------------------------------------------------------------*/
FoamFile
{
    version     2.0;
    format      ascii;
    class       volVectorField;
    location    "117.16882180965662";
    object      cellDisplacement;
}
// * * * * * * * * * * * * * * * * * * * * * * * * * * * * * * * * * * * * * //

dimensions      [0 1 0 0 0 0 0];


internalField   nonuniform List<vector> 
9200
(
(0.040913775 0 0)
(0.041091242 0 0)
(0.11902093 0 0)
(0.041400636 0 0)
(0.11951628 0 0)
(0.1921431 0 0)
(0.04174206 0 0)
(0.12027325 0 0)
(0.19286414 0 0)
(0.2604468 0 0)
(0.042149874 0 0)
(0.12126478 0 0)
(0.19408576 0 0)
(0.26140779 0 0)
(0.32417259 0 0)
(0.042578689 0 0)
(0.12237762 0 0)
(0.1956019 0 0)
(0.26298072 0 0)
(0.3253216 0 0)
(0.38351684 0 0)
(0.043013055 0 0)
(0.12355184 0 0)
(0.19731547 0 0)
(0.26499088 0 0)
(0.32726593 0 0)
(0.3848631 0 0)
(0.43872685 0 0)
(0.043439142 0 0)
(0.12475144 0 0)
(0.19915473 0 0)
(0.26726632 0 0)
(0.32970153 0 0)
(0.38709595 0 0)
(0.4402273 0 0)
(0.48999448 0 0)
(0.043848433 0 0)
(0.12593386 0 0)
(0.20102859 0 0)
(0.2696881 0 0)
(0.33247011 0 0)
(0.38995755 0 0)
(0.44278327 0 0)
(0.49166597 0 0)
(0.53757181 0 0)
(0.044236127 0 0)
(0.12707505 0 0)
(0.20288315 0 0)
(0.27216241 0 0)
(0.33541634 0 0)
(0.3931839 0 0)
(0.44600437 0 0)
(0.49447462 0 0)
(0.53938653 0 0)
(0.58165292 0 0)
(0.044597459 0 0)
(0.1281579 0 0)
(0.20467739 0 0)
(0.27461931 0 0)
(0.33844229 0 0)
(0.39662488 0 0)
(0.44965874 0 0)
(0.4980718 0 0)
(0.54247825 0 0)
(0.58361808 0 0)
(0.62247509 0 0)
(0.044932639 0 0)
(0.12917278 0 0)
(0.2063842 0 0)
(0.27700289 0 0)
(0.34145083 0 0)
(0.40015481 0 0)
(0.45356014 0 0)
(0.50214022 0 0)
(0.54639645 0 0)
(0.58693579 0 0)
(0.62456578 0 0)
(0.66021207 0 0)
(0.045238768 0 0)
(0.13011341 0 0)
(0.2079878 0 0)
(0.27927383 0 0)
(0.34437228 0 0)
(0.40366635 0 0)
(0.45754942 0 0)
(0.5064618 0 0)
(0.55084356 0 0)
(0.59119425 0 0)
(0.62813981 0 0)
(0.66243795 0 0)
(0.69508935 0 0)
(0.045518697 0 0)
(0.13097901 0 0)
(0.20947801 0 0)
(0.28141156 0 0)
(0.34716369 0 0)
(0.40708833 0 0)
(0.461538 0 0)
(0.51090267 0 0)
(0.55558614 0 0)
(0.59601772 0 0)
(0.63268745 0 0)
(0.66622014 0 0)
(0.69743551 0 0)
(0.72726942 0 0)
(0.045770758 0 0)
(0.13176829 0 0)
(0.21085227 0 0)
(0.28340062 0 0)
(0.34979152 0 0)
(0.41036241 0 0)
(0.46542759 0 0)
(0.51533177 0 0)
(0.56044465 0 0)
(0.60115134 0 0)
(0.63785913 0 0)
(0.67107973 0 0)
(0.70144825 0 0)
(0.72973784 0 0)
(0.75695734 0 0)
(0.045998805 0 0)
(0.13248562 0 0)
(0.21211017 0 0)
(0.28523766 0 0)
(0.35224296 0 0)
(0.41345084 0 0)
(0.46915309 0 0)
(0.5196563 0 0)
(0.56528935 0 0)
(0.60641164 0 0)
(0.64337805 0 0)
(0.67659697 0 0)
(0.70657263 0 0)
(0.73394213 0 0)
(0.75953341 0 0)
(0.78429261 0 0)
(0.046202665 0 0)
(0.13313276 0 0)
(0.21325513 0 0)
(0.28692061 0 0)
(0.35450617 0 0)
(0.41633446 0 0)
(0.47267532 0 0)
(0.52380732 0 0)
(0.57003062 0 0)
(0.61166257 0 0)
(0.6490278 0 0)
(0.68247648 0 0)
(0.71240998 0 0)
(0.73935453 0 0)
(0.76394939 0 0)
(0.78697973 0 0)
(0.80946358 0 0)
(0.046385424 0 0)
(0.13371529 0 0)
(0.21429199 0 0)
(0.28845468 0 0)
(0.35658457 0 0)
(0.41900222 0 0)
(0.47596581 0 0)
(0.52773669 0 0)
(0.57458766 0 0)
(0.61679912 0 0)
(0.6546678 0 0)
(0.6885072 0 0)
(0.71864753 0 0)
(0.74550952 0 0)
(0.76960408 0 0)
(0.79157407 0 0)
(0.81225325 0 0)
(0.83259554 0 0)
(0.046548017 0 0)
(0.13423656 0 0)
(0.2152266 0 0)
(0.28984445 0 0)
(0.35847759 0 0)
(0.42145289 0 0)
(0.47901656 0 0)
(0.53141246 0 0)
(0.57890284 0 0)
(0.62173799 0 0)
(0.660176 0 0)
(0.69451216 0 0)
(0.72503646 0 0)
(0.75207997 0 0)
(0.7760545 0 0)
(0.79749426 0 0)
(0.81703874 0 0)
(0.83548625 0 0)
(0.85385665 0 0)
(0.046692623 0 0)
(0.13470215 0 0)
(0.21606622 0 0)
(0.29109878 0 0)
(0.36019647 0 0)
(0.42369036 0 0)
(0.48182093 0 0)
(0.53482305 0 0)
(0.58294794 0 0)
(0.62642505 0 0)
(0.66548628 0 0)
(0.70039218 0 0)
(0.73141068 0 0)
(0.758824 0 0)
(0.78295565 0 0)
(0.80423732 0 0)
(0.82318198 0 0)
(0.84043595 0 0)
(0.85683935 0 0)
(0.8733523 0 0)
(0.046821183 0 0)
(0.13511712 0 0)
(0.21681685 0 0)
(0.29222522 0 0)
(0.36174602 0 0)
(0.42572142 0 0)
(0.48438656 0 0)
(0.53796235 0 0)
(0.58670073 0 0)
(0.63082252 0 0)
(0.67053052 0 0)
(0.70605361 0 0)
(0.73764031 0 0)
(0.76554546 0 0)
(0.79003373 0 0)
(0.81144565 0 0)
(0.83019728 0 0)
(0.84682393 0 0)
(0.86196412 0 0)
(0.87642688 0 0)
(0.89123391 0 0)
(0.046934609 0 0)
(0.13548505 0 0)
(0.21748654 0 0)
(0.29323375 0 0)
(0.36314084 0 0)
(0.42755785 0 0)
(0.48671829 0 0)
(0.54083554 0 0)
(0.59016155 0 0)
(0.63490794 0 0)
(0.67526512 0 0)
(0.7114356 0 0)
(0.7436383 0 0)
(0.77211538 0 0)
(0.79709849 0 0)
(0.81885246 0 0)
(0.83770988 0 0)
(0.85410752 0 0)
(0.86855513 0 0)
(0.88170261 0 0)
(0.89439459 0 0)
(0.9075939 0 0)
(0.047035349 0 0)
(0.13581229 0 0)
(0.2180811 0 0)
(0.29413288 0 0)
(0.36438825 0 0)
(0.42920963 0 0)
(0.48883048 0 0)
(0.5434504 0 0)
(0.59332805 0 0)
(0.63867741 0 0)
(0.67967189 0 0)
(0.71649492 0 0)
(0.74934793 0 0)
(0.77844465 0 0)
(0.80399977 0 0)
(0.82624037 0 0)
(0.84542518 0 0)
(0.86190304 0 0)
(0.87608883 0 0)
(0.88851742 0 0)
(0.89982744 0 0)
(0.9108378 0 0)
(0.92256568 0 0)
(0.0471235 0 0)
(0.13610025 0 0)
(0.21860777 0 0)
(0.29493201 0 0)
(0.36550282 0 0)
(0.43069102 0 0)
(0.49073215 0 0)
(0.54581912 0 0)
(0.59621506 0 0)
(0.64213181 0 0)
(0.68373819 0 0)
(0.72120771 0 0)
(0.75472164 0 0)
(0.78446828 0 0)
(0.81064798 0 0)
(0.83346644 0 0)
(0.85313288 0 0)
(0.86992068 0 0)
(0.88416433 0 0)
(0.89629742 0 0)
(0.90682806 0 0)
(0.91640886 0 0)
(0.92588699 0 0)
(0.93622638 0 0)
(0.047201706 0 0)
(0.13635553 0 0)
(0.21907195 0 0)
(0.29563957 0 0)
(0.36649258 0 0)
(0.43201258 0 0)
(0.49244104 0 0)
(0.54795592 0 0)
(0.59882924 0 0)
(0.64528138 0 0)
(0.6874713 0 0)
(0.72556081 0 0)
(0.75972757 0 0)
(0.79013951 0 0)
(0.81696909 0 0)
(0.84041552 0 0)
(0.86066498 0 0)
(0.87792662 0 0)
(0.89246519 0 0)
(0.90463239 0 0)
(0.91483732 0 0)
(0.92361444 0 0)
(0.93160143 0 0)
(0.93962371 0 0)
(0.94869434 0 0)
(0.047269534 0 0)
(0.1365784 0 0)
(0.21948061 0 0)
(0.29626409 0 0)
(0.36737098 0 0)
(0.4331896 0 0)
(0.49396705 0 0)
(0.54987469 0 0)
(0.60119154 0 0)
(0.64813897 0 0)
(0.6908753 0 0)
(0.72955879 0 0)
(0.76435926 0 0)
(0.79543045 0 0)
(0.82292986 0 0)
(0.84703402 0 0)
(0.86791826 0 0)
(0.88576128 0 0)
(0.90076574 0 0)
(0.91321101 0 0)
(0.9234283 0 0)
(0.93184805 0 0)
(0.93897528 0 0)
(0.94546492 0 0)
(0.95216399 0 0)
(0.96003646 0 0)
(0.047329753 0 0)
(0.1367756 0 0)
(0.21983804 0 0)
(0.29681315 0 0)
(0.36814594 0 0)
(0.43423221 0 0)
(0.49532848 0 0)
(0.55159262 0 0)
(0.6033124 0 0)
(0.65072035 0 0)
(0.69396933 0 0)
(0.73320848 0 0)
(0.76861167 0 0)
(0.80032897 0 0)
(0.82849652 0 0)
(0.85326983 0 0)
(0.87481639 0 0)
(0.89330037 0 0)
(0.90888439 0 0)
(0.92178489 0 0)
(0.93226701 0 0)
(0.94067737 0 0)
(0.94741961 0 0)
(0.95302545 0 0)
(0.95813444 0 0)
(0.96357577 0 0)
(0.97035583 0 0)
(0.04738126 0 0)
(0.1369462 0 0)
(0.22015031 0 0)
(0.29729396 0 0)
(0.36882881 0 0)
(0.43515424 0 0)
(0.49653391 0 0)
(0.55312301 0 0)
(0.60521441 0 0)
(0.65304348 0 0)
(0.69676477 0 0)
(0.73652557 0 0)
(0.77249956 0 0)
(0.80483032 0 0)
(0.83364958 0 0)
(0.85909635 0 0)
(0.88131636 0 0)
(0.90047098 0 0)
(0.91670542 0 0)
(0.9301823 0 0)
(0.94111012 0 0)
(0.94976914 0 0)
(0.95648294 0 0)
(0.96167571 0 0)
(0.96584999 0 0)
(0.96966373 0 0)
(0.97396138 0 0)
(0.97970823 0 0)
(0.047427302 0 0)
(0.13709667 0 0)
(0.22042075 0 0)
(0.29771304 0 0)
(0.36942684 0 0)
(0.43596542 0 0)
(0.49760178 0 0)
(0.55448329 0 0)
(0.60690874 0 0)
(0.65512495 0 0)
(0.69928539 0 0)
(0.73952694 0 0)
(0.77603164 0 0)
(0.808947 0 0)
(0.83839241 0 0)
(0.86449556 0 0)
(0.88739397 0 0)
(0.90722984 0 0)
(0.92414063 0 0)
(0.93826746 0 0)
(0.94976795 0 0)
(0.95886297 0 0)
(0.96581248 0 0)
(0.97095688 0 0)
(0.97469318 0 0)
(0.97754998 0 0)
(0.98016847 0 0)
(0.98337872 0 0)
(0.98818394 0 0)
(0.047467863 0 0)
(0.13722459 0 0)
(0.22065489 0 0)
(0.29807655 0 0)
(0.3699493 0 0)
(0.43667737 0 0)
(0.49853855 0 0)
(0.55568485 0 0)
(0.60841711 0 0)
(0.65698448 0 0)
(0.7015445 0 0)
(0.74223141 0 0)
(0.77923212 0 0)
(0.81269099 0 0)
(0.84272761 0 0)
(0.86946707 0 0)
(0.89303262 0 0)
(0.91354861 0 0)
(0.93114793 0 0)
(0.94596126 0 0)
(0.9581134 0 0)
(0.96777429 0 0)
(0.97515155 0 0)
(0.98051806 0 0)
(0.98418916 0 0)
(0.98658194 0 0)
(0.98819784 0 0)
(0.98969569 0 0)
(0.99191722 0 0)
(0.99583144 0 0)
(0.0473028 0 0)
(0.13734098 0 0)
(0.22085401 0 0)
(0.29838926 0 0)
(0.37040256 0 0)
(0.43729817 0 0)
(0.49936165 0 0)
(0.55674451 0 0)
(0.60975029 0 0)
(0.65863727 0 0)
(0.70356687 0 0)
(0.74466021 0 0)
(0.78211485 0 0)
(0.81608302 0 0)
(0.8466762 0 0)
(0.87401374 0 0)
(0.89822205 0 0)
(0.91941225 0 0)
(0.93769491 0 0)
(0.95320225 0 0)
(0.96604945 0 0)
(0.97636163 0 0)
(0.98430011 0 0)
(0.99008477 0 0)
(0.99396641 0 0)
(0.99627774 0 0)
(0.99740765 0 0)
(0.99788184 0 0)
(0.99834376 0 0)
(0.99962522 0 0)
(1.0027284 0 0)
(0.047092489 0 0)
(0.13699286 0 0)
(0.22103008 0 0)
(0.29865711 0 0)
(0.37079331 0 0)
(0.43783769 0 0)
(0.50007664 0 0)
(0.55767233 0 0)
(0.61092793 0 0)
(0.66010315 0 0)
(0.70536626 0 0)
(0.7468313 0 0)
(0.78470673 0 0)
(0.81914261 0 0)
(0.85025146 0 0)
(0.87815475 0 0)
(0.90297544 0 0)
(0.92481479 0 0)
(0.94377604 0 0)
(0.95997588 0 0)
(0.97352603 0 0)
(0.98453554 0 0)
(0.99312407 0 0)
(0.99946433 0 0)
(1.0037568 0 0)
(1.0062656 0 0)
(1.0072993 0 0)
(1.0072651 0 0)
(1.0066631 0 0)
(1.0061548 0 0)
(1.0065804 0 0)
(1.0089157 0 0)
(0.046903573 0 0)
(0.13635562 0 0)
(0.22051028 0 0)
(0.29889106 0 0)
(0.37112807 0 0)
(0.43830317 0 0)
(0.50069828 0 0)
(0.5584829 0 0)
(0.61195984 0 0)
(0.66139562 0 0)
(0.70696529 0 0)
(0.74876716 0 0)
(0.78702287 0 0)
(0.82189221 0 0)
(0.85348093 0 0)
(0.88190645 0 0)
(0.90730038 0 0)
(0.92976503 0 0)
(0.94938574 0 0)
(0.9662641 0 0)
(0.98051154 0 0)
(0.99223195 0 0)
(1.0015201 0 0)
(1.0085068 0 0)
(1.0133509 0 0)
(1.0162634 0 0)
(1.0174844 0 0)
(1.01734 0 0)
(1.0162104 0 0)
(1.0146184 0 0)
(1.0132121 0 0)
(1.0128246 0 0)
(1.0144605 0 0)
(0.046734301 0 0)
(0.13577839 0 0)
(0.21947769 0 0)
(0.29822387 0 0)
(0.37142046 0 0)
(0.43870056 0 0)
(0.50123138 0 0)
(0.55918462 0 0)
(0.6128627 0 0)
(0.66253245 0 0)
(0.70837745 0 0)
(0.75048394 0 0)
(0.78908977 0 0)
(0.82435392 0 0)
(0.85638213 0 0)
(0.88529337 0 0)
(0.91122419 0 0)
(0.93427191 0 0)
(0.95452241 0 0)
(0.97206602 0 0)
(0.98699659 0 0)
(0.99942188 0 0)
(1.0094311 0 0)
(1.017119 0 0)
(1.0226078 0 0)
(1.0260665 0 0)
(1.027685 0 0)
(1.0277172 0 0)
(1.0264651 0 0)
(1.0243257 0 0)
(1.0217997 0 0)
(1.0195528 0 0)
(1.0184247 0 0)
(1.0193988 0 0)
(0.046588318 0 0)
(0.1352668 0 0)
(0.21854419 0 0)
(0.29684129 0 0)
(0.37062591 0 0)
(0.43904861 0 0)
(0.50168608 0 0)
(0.55978886 0 0)
(0.61364547 0 0)
(0.66352522 0 0)
(0.70962134 0 0)
(0.75200263 0 0)
(0.79092147 0 0)
(0.8265485 0 0)
(0.85898301 0 0)
(0.88833812 0 0)
(0.9147625 0 0)
(0.93836045 0 0)
(0.95920711 0 0)
(0.97738439 0 0)
(0.99298318 0 0)
(1.006098 0 0)
(1.0168181 0 0)
(1.0252291 0 0)
(1.0314197 0 0)
(1.0355212 0 0)
(1.037683 0 0)
(1.0381068 0 0)
(1.0370224 0 0)
(1.0347492 0 0)
(1.0316589 0 0)
(1.0282734 0 0)
(1.0252474 0 0)
(1.0234162 0 0)
(1.0237879 0 0)
(0.046464861 0 0)
(0.13482116 0 0)
(0.2177144 0 0)
(0.29559346 0 0)
(0.36893615 0 0)
(0.43814058 0 0)
(0.50208134 0 0)
(0.56030416 0 0)
(0.61432035 0 0)
(0.66438906 0 0)
(0.71071034 0 0)
(0.75333689 0 0)
(0.79254241 0 0)
(0.82849795 0 0)
(0.86130187 0 0)
(0.89106506 0 0)
(0.91794729 0 0)
(0.94205064 0 0)
(0.96345255 0 0)
(0.98223514 0 0)
(0.99847721 0 0)
(1.0122602 0 0)
(1.0236747 0 0)
(1.0328061 0 0)
(1.0397246 0 0)
(1.0445269 0 0)
(1.0473308 0 0)
(1.0482943 0 0)
(1.0475969 0 0)
(1.0454823 0 0)
(1.0422479 0 0)
(1.0382804 0 0)
(1.0340836 0 0)
(1.0303293 0 0)
(1.0278567 0 0)
(1.0276586 0 0)
(0.046366869 0 0)
(0.13444844 0 0)
(0.21699288 0 0)
(0.29448169 0 0)
(0.36741111 0 0)
(0.43617897 0 0)
(0.50107234 0 0)
(0.56075135 0 0)
(0.61489715 0 0)
(0.66513442 0 0)
(0.71165798 0 0)
(0.75450523 0 0)
(0.79396526 0 0)
(0.83022038 0 0)
(0.86336431 0 0)
(0.89349835 0 0)
(0.92079638 0 0)
(0.94537046 0 0)
(0.96729081 0 0)
(0.98663428 0 0)
(1.0034854 0 0)
(1.0179159 0 0)
(1.0299987 0 0)
(1.0398284 0 0)
(1.0474767 0 0)
(1.0530102 0 0)
(1.0565163 0 0)
(1.0581208 0 0)
(1.0579614 0 0)
(1.0562296 0 0)
(1.0531464 0 0)
(1.0490257 0 0)
(1.0442311 0 0)
(1.0392875 0 0)
(1.0348579 0 0)
(1.0317774 0 0)
(1.0310599 0 0)
(0.046293541 0 0)
(0.13414877 0 0)
(0.2163874 0 0)
(0.29351587 0 0)
(0.36605195 0 0)
(0.43440689 0 0)
(0.4988667 0 0)
(0.55966573 0 0)
(0.61539705 0 0)
(0.66577064 0 0)
(0.71247761 0 0)
(0.75551997 0 0)
(0.79521131 0 0)
(0.83173636 0 0)
(0.86518785 0 0)
(0.89565943 0 0)
(0.92334101 0 0)
(0.94834409 0 0)
(0.97074042 0 0)
(0.99061005 0 0)
(1.0080341 0 0)
(1.0230771 0 0)
(1.0358077 0 0)
(1.0463107 0 0)
(1.0546651 0 0)
(1.0609335 0 0)
(1.0651737 0 0)
(1.0674806 0 0)
(1.0679627 0 0)
(1.0667667 0 0)
(1.0640632 0 0)
(1.0600859 0 0)
(1.0551297 0 0)
(1.0495717 0 0)
(1.0439232 0 0)
(1.0388629 0 0)
(1.0352274 0 0)
(1.0340196 0 0)
(0.046246906 0 0)
(0.13392713 0 0)
(0.21590126 0 0)
(0.29270343 0 0)
(0.36487083 0 0)
(0.43282823 0 0)
(0.49687435 0 0)
(0.55725621 0 0)
(0.61425103 0 0)
(0.66632519 0 0)
(0.71317575 0 0)
(0.75639459 0 0)
(0.79629182 0 0)
(0.83306124 0 0)
(0.86679447 0 0)
(0.89757196 0 0)
(0.92559915 0 0)
(0.9509981 0 0)
(0.97383539 0 0)
(0.99418653 0 0)
(1.012141 0 0)
(1.0277661 0 0)
(1.0411154 0 0)
(1.0522618 0 0)
(1.0612913 0 0)
(1.0682744 0 0)
(1.073255 0 0)
(1.0762975 0 0)
(1.077484 0 0)
(1.0769302 0 0)
(1.0747617 0 0)
(1.0711619 0 0)
(1.0663427 0 0)
(1.0606156 0 0)
(1.0543368 0 0)
(1.0480397 0 0)
(1.0423943 0 0)
(1.0382338 0 0)
(1.0365788 0 0)
(0.04622619 0 0)
(0.13378315 0 0)
(0.21553953 0 0)
(0.29205109 0 0)
(0.36387672 0 0)
(0.43145527 0 0)
(0.49509908 0 0)
(0.55508052 0 0)
(0.61166945 0 0)
(0.66512909 0 0)
(0.71378225 0 0)
(0.75714167 0 0)
(0.79722313 0 0)
(0.83421325 0 0)
(0.86820024 0 0)
(0.89925466 0 0)
(0.9275989 0 0)
(0.95335714 0 0)
(0.97659601 0 0)
(0.99739284 0 0)
(1.0158404 0 0)
(1.0320023 0 0)
(1.0459344 0 0)
(1.0576995 0 0)
(1.0673719 0 0)
(1.0750374 0 0)
(1.0807449 0 0)
(1.0845323 0 0)
(1.0864568 0 0)
(1.0866086 0 0)
(1.0850841 0 0)
(1.0820183 0 0)
(1.0775752 0 0)
(1.0719783 0 0)
(1.065523 0 0)
(1.0585787 0 0)
(1.0516696 0 0)
(1.045479 0 0)
(1.0408383 0 0)
(1.0387618 0 0)
(0.13371967 0 0)
(0.046225976 0 0)
(0.21530423 0 0)
(0.29156418 0 0)
(0.36307775 0 0)
(0.43029958 0 0)
(0.49355507 0 0)
(0.55314027 0 0)
(0.60933892 0 0)
(0.66240401 0 0)
(0.71254713 0 0)
(0.75778568 0 0)
(0.79801773 0 0)
(0.83520583 0 0)
(0.86942307 0 0)
(0.90072828 0 0)
(0.92935714 0 0)
(0.95544471 0 0)
(0.97905359 0 0)
(1.0002559 0 0)
(1.0191541 0 0)
(1.035818 0 0)
(1.0502958 0 0)
(1.0626437 0 0)
(1.0729372 0 0)
(1.0812564 0 0)
(1.0876505 0 0)
(1.0921619 0 0)
(1.0948324 0 0)
(1.0957242 0 0)
(1.0949084 0 0)
(1.0924888 0 0)
(1.0885799 0 0)
(1.0833586 0 0)
(1.0770281 0 0)
(1.0699004 0 0)
(1.0623267 0 0)
(1.0548553 0 0)
(1.048159 0 0)
(1.0430652 0 0)
(1.0406037 0 0)
(0.21519803 0 0)
(0.13371634 0 0)
(0.046245473 0 0)
(0.29124613 0 0)
(0.36248068 0 0)
(0.42937039 0 0)
(0.49225519 0 0)
(0.55145305 0 0)
(0.6072591 0 0)
(0.65994028 0 0)
(0.70969881 0 0)
(0.75652334 0 0)
(0.79870157 0 0)
(0.83605143 0 0)
(0.87047756 0 0)
(0.90200889 0 0)
(0.93089787 0 0)
(0.95728372 0 0)
(0.98122844 0 0)
(1.0028026 0 0)
(1.0221164 0 0)
(1.0392386 0 0)
(1.05422 0 0)
(1.0671185 0 0)
(1.0779988 0 0)
(1.0869309 0 0)
(1.0939773 0 0)
(1.0991888 0 0)
(1.1025947 0 0)
(1.1042359 0 0)
(1.1041636 0 0)
(1.1024553 0 0)
(1.0991959 0 0)
(1.0945089 0 0)
(1.0885541 0 0)
(1.0815449 0 0)
(1.0737796 0 0)
(1.0656263 0 0)
(1.057625 0 0)
(1.0504581 0 0)
(1.0449494 0 0)
(1.0421264 0 0)
(0.29110043 0 0)
(0.21518988 0 0)
(0.13377383 0 0)
(0.046291637 0 0)
(0.36208929 0 0)
(0.42867491 0 0)
(0.49120983 0 0)
(0.55003149 0 0)
(0.60545014 0 0)
(0.6577437 0 0)
(0.70712135 0 0)
(0.75357417 0 0)
(0.79742121 0 0)
(0.83678114 0 0)
(0.87137525 0 0)
(0.90311276 0 0)
(0.93223707 0 0)
(0.95889447 0 0)
(0.98314685 0 0)
(1.0050586 0 0)
(1.0247492 0 0)
(1.0422956 0 0)
(1.0577438 0 0)
(1.0711476 0 0)
(1.0825764 0 0)
(1.0920976 0 0)
(1.0997712 0 0)
(1.1056458 0 0)
(1.109748 0 0)
(1.1121202 0 0)
(1.1127997 0 0)
(1.1118387 0 0)
(1.1092948 0 0)
(1.1052612 0 0)
(1.0998418 0 0)
(1.0932093 0 0)
(1.0855583 0 0)
(1.0772047 0 0)
(1.0685024 0 0)
(1.0600152 0 0)
(1.0524118 0 0)
(1.0465127 0 0)
(1.0433591 0 0)
(0.3619084 0 0)
(0.29108499 0 0)
(0.21527968 0 0)
(0.13391108 0 0)
(0.046363619 0 0)
(0.42821905 0 0)
(0.49042714 0 0)
(0.54888811 0 0)
(0.60392463 0 0)
(0.65583017 0 0)
(0.7048227 0 0)
(0.75090848 0 0)
(0.79439564 0 0)
(0.83549113 0 0)
(0.87214857 0 0)
(0.90405572 0 0)
(0.93339197 0 0)
(0.96029688 0 0)
(0.98482801 0 0)
(1.007047 0 0)
(1.0270838 0 0)
(1.0450155 0 0)
(1.0608899 0 0)
(1.0747642 0 0)
(1.0867057 0 0)
(1.0967768 0 0)
(1.1050361 0 0)
(1.1115337 0 0)
(1.1163018 0 0)
(1.1193804 0 0)
(1.1208001 0 0)
(1.1205953 0 0)
(1.1188037 0 0)
(1.1154898 0 0)
(1.1107285 0 0)
(1.1046324 0 0)
(1.0973599 0 0)
(1.0891145 0 0)
(1.0802014 0 0)
(1.070995 0 0)
(1.0620503 0 0)
(1.0540418 0 0)
(1.0477845 0 0)
(1.0443213 0 0)
(0.42800631 0 0)
(0.36188598 0 0)
(0.29120096 0 0)
(0.21549855 0 0)
(0.13412596 0 0)
(0.046460818 0 0)
(0.4899136 0 0)
(0.54803129 0 0)
(0.6026967 0 0)
(0.65421707 0 0)
(0.70281831 0 0)
(0.74852654 0 0)
(0.79166041 0 0)
(0.83240989 0 0)
(0.87085954 0 0)
(0.90486502 0 0)
(0.93438034 0 0)
(0.96150885 0 0)
(0.98629296 0 0)
(1.0087909 0 0)
(1.0291405 0 0)
(1.0474263 0 0)
(1.0636936 0 0)
(1.0779955 0 0)
(1.090406 0 0)
(1.1009916 0 0)
(1.1098033 0 0)
(1.1168858 0 0)
(1.1222887 0 0)
(1.1260444 0 0)
(1.1281679 0 0)
(1.1287015 0 0)
(1.1276706 0 0)
(1.1251146 0 0)
(1.1210783 0 0)
(1.115646 0 0)
(1.1089116 0 0)
(1.1010469 0 0)
(1.0922378 0 0)
(1.0828096 0 0)
(1.0731253 0 0)
(1.0637619 0 0)
(1.0553775 0 0)
(1.0487843 0 0)
(1.0450374 0 0)
(0.48967329 0 0)
(0.42797885 0 0)
(0.36202398 0 0)
(0.29148808 0 0)
(0.21584375 0 0)
(0.13441778 0 0)
(0.046582496 0 0)
(0.54746838 0 0)
(0.60177518 0 0)
(0.65291645 0 0)
(0.70112786 0 0)
(0.74645135 0 0)
(0.78921473 0 0)
(0.8296203 0 0)
(0.86774049 0 0)
(0.90359148 0 0)
(0.93522714 0 0)
(0.96254318 0 0)
(0.98756008 0 0)
(1.0103108 0 0)
(1.0309461 0 0)
(1.0495532 0 0)
(1.0661771 0 0)
(1.0808732 0 0)
(1.0937181 0 0)
(1.1047763 0 0)
(1.114099 0 0)
(1.121732 0 0)
(1.1277249 0 0)
(1.1321131 0 0)
(1.1349128 0 0)
(1.1361595 0 0)
(1.1358775 0 0)
(1.1340886 0 0)
(1.1308171 0 0)
(1.1261152 0 0)
(1.1200508 0 0)
(1.1127258 0 0)
(1.1042999 0 0)
(1.0949691 0 0)
(1.0850495 0 0)
(1.0749284 0 0)
(1.0651715 0 0)
(1.0564382 0 0)
(1.0495366 0 0)
(1.0455255 0 0)
(0.54720399 0 0)
(0.48964092 0 0)
(0.42813526 0 0)
(0.36237026 0 0)
(0.29194485 0 0)
(0.21631289 0 0)
(0.13478234 0 0)
(0.046727084 0 0)
(0.60116736 0 0)
(0.65193932 0 0)
(0.6997633 0 0)
(0.74469827 0 0)
(0.78708338 0 0)
(0.82712787 0 0)
(0.86491452 0 0)
(0.90045599 0 0)
(0.93397525 0 0)
(0.9634347 0 0)
(0.98864118 0 0)
(1.0116237 0 0)
(1.0325193 0 0)
(1.05142 0 0)
(1.0683713 0 0)
(1.0834246 0 0)
(1.0966627 0 0)
(1.1081571 0 0)
(1.1179579 0 0)
(1.1261043 0 0)
(1.1326426 0 0)
(1.1376204 0 0)
(1.1410677 0 0)
(1.1429978 0 0)
(1.143426 0 0)
(1.1423874 0 0)
(1.1398896 0 0)
(1.13596 0 0)
(1.1306323 0 0)
(1.1239843 0 0)
(1.1161009 0 0)
(1.1071551 0 0)
(1.0973287 0 0)
(1.0869579 0 0)
(1.0764231 0 0)
(1.0663056 0 0)
(1.0572485 0 0)
(1.0500588 0 0)
(1.045805 0 0)
(0.60087945 0 0)
(0.54716554 0 0)
(0.48981582 0 0)
(0.42853579 0 0)
(0.36292393 0 0)
(0.29256562 0 0)
(0.21690112 0 0)
(0.13521872 0 0)
(0.046893889 0 0)
(0.65129333 0 0)
(0.69873663 0 0)
(0.74328431 0 0)
(0.78528158 0 0)
(0.8249528 0 0)
(0.86238983 0 0)
(0.89761818 0 0)
(0.93083898 0 0)
(0.96220579 0 0)
(0.9895731 0 0)
(1.012749 0 0)
(1.0338795 0 0)
(1.0530488 0 0)
(1.0702969 0 0)
(1.0856776 0 0)
(1.0992781 0 0)
(1.1111702 0 0)
(1.1214058 0 0)
(1.1300264 0 0)
(1.1370768 0 0)
(1.1425995 0 0)
(1.1466401 0 0)
(1.1492168 0 0)
(1.1503298 0 0)
(1.1500128 0 0)
(1.1482769 0 0)
(1.1451288 0 0)
(1.1405818 0 0)
(1.1346768 0 0)
(1.1274781 0 0)
(1.1190768 0 0)
(1.1096374 0 0)
(1.0993527 0 0)
(1.0885513 0 0)
(1.0776391 0 0)
(1.0671831 0 0)
(1.0578261 0 0)
(1.0503707 0 0)
(1.0458924 0 0)
(0.65098366 0 0)
(0.60083183 0 0)
(0.54735337 0 0)
(0.49026467 0 0)
(0.42917403 0 0)
(0.36367719 0 0)
(0.29334669 0 0)
(0.21760431 0 0)
(0.13571962 0 0)
(0.047080392 0 0)
(0.69805613 0 0)
(0.74221924 0 0)
(0.783827 0 0)
(0.82311523 0 0)
(0.86018497 0 0)
(0.8950788 0 0)
(0.92800257 0 0)
(0.95908408 0 0)
(0.9883756 0 0)
(1.0137133 0 0)
(1.0350468 0 0)
(1.0544595 0 0)
(1.0719789 0 0)
(1.0876565 0 0)
(1.1015837 0 0)
(1.11384 0 0)
(1.1244789 0 0)
(1.1335376 0 0)
(1.1410579 0 0)
(1.1470889 0 0)
(1.1516759 0 0)
(1.1548486 0 0)
(1.1566197 0 0)
(1.1569931 0 0)
(1.1559788 0 0)
(1.1535975 0 0)
(1.1498402 0 0)
(1.1447249 0 0)
(1.1382758 0 0)
(1.1305674 0 0)
(1.1216757 0 0)
(1.1117787 0 0)
(1.1010588 0 0)
(1.0898625 0 0)
(1.0785934 0 0)
(1.0678264 0 0)
(1.0581902 0 0)
(1.0504887 0 0)
(1.0458045 0 0)
(0.69772612 0 0)
(0.65092841 0 0)
(0.60102683 0 0)
(0.54783903 0 0)
(0.49098153 0 0)
(0.43004676 0 0)
(0.36462671 0 0)
(0.29427992 0 0)
(0.21841616 0 0)
(0.1362843 0 0)
(0.047286878 0 0)
(0.74151285 0 0)
(0.78273022 0 0)
(0.8216299 0 0)
(0.85832256 0 0)
(0.89286359 0 0)
(0.92546154 0 0)
(0.95625455 0 0)
(0.98527951 0 0)
(1.0125608 0 0)
(1.0360454 0 0)
(1.0556672 0 0)
(1.0734362 0 0)
(1.0893847 0 0)
(1.1036124 0 0)
(1.1162003 0 0)
(1.1272039 0 0)
(1.1366619 0 0)
(1.1446206 0 0)
(1.1511234 0 0)
(1.156213 0 0)
(1.159932 0 0)
(1.162306 0 0)
(1.1633337 0 0)
(1.1630119 0 0)
(1.1613656 0 0)
(1.1583881 0 0)
(1.1540717 0 0)
(1.1484218 0 0)
(1.1414695 0 0)
(1.1332794 0 0)
(1.1239318 0 0)
(1.1136006 0 0)
(1.1024783 0 0)
(1.0909063 0 0)
(1.0793108 0 0)
(1.0682514 0 0)
(1.058357 0 0)
(1.0504292 0 0)
(1.045556 0 0)
(0.7411707 0 0)
(0.69766237 0 0)
(0.6511257 0 0)
(0.6015395 0 0)
(0.54861855 0 0)
(0.49196126 0 0)
(0.43114307 0 0)
(0.36576068 0 0)
(0.29535816 0 0)
(0.21932907 0 0)
(0.13690733 0 0)
(0.047448341 0 0)
(0.78200117 0 0)
(0.82051047 0 0)
(0.85681635 0 0)
(0.89098991 0 0)
(0.92324631 0 0)
(0.95372441 0 0)
(0.98246997 0 0)
(1.0095039 0 0)
(1.0349414 0 0)
(1.056706 0 0)
(1.0746839 0 0)
(1.0908813 0 0)
(1.1053823 0 0)
(1.1182724 0 0)
(1.1296124 0 0)
(1.1394382 0 0)
(1.147793 0 0)
(1.154729 0 0)
(1.1602885 0 0)
(1.1645074 0 0)
(1.167428 0 0)
(1.1690641 0 0)
(1.16941 0 0)
(1.1684623 0 0)
(1.1662222 0 0)
(1.1626931 0 0)
(1.1578515 0 0)
(1.1517085 0 0)
(1.1442808 0 0)
(1.1356438 0 0)
(1.1258643 0 0)
(1.1151307 0 0)
(1.1036276 0 0)
(1.0917101 0 0)
(1.0798052 0 0)
(1.0684765 0 0)
(1.0583431 0 0)
(1.0502072 0 0)
(1.0451375 0 0)
(0.78164651 0 0)
(0.74110189 0 0)
(0.69786116 0 0)
(0.65166141 0 0)
(0.60236815 0 0)
(0.54968353 0 0)
(0.49319494 0 0)
(0.43245735 0 0)
(0.36707256 0 0)
(0.29657184 0 0)
(0.2203416 0 0)
(0.13724022 0 0)
(0.047403084 0 0)
(0.81976547 0 0)
(0.85568091 0 0)
(0.88947686 0 0)
(0.92137038 0 0)
(0.95151386 0 0)
(0.97995912 0 0)
(1.0067344 0 0)
(1.0319377 0 0)
(1.0556491 0 0)
(1.0757576 0 0)
(1.092167 0 0)
(1.1069172 0 0)
(1.1200851 0 0)
(1.1317297 0 0)
(1.1418886 0 0)
(1.1506097 0 0)
(1.1579444 0 0)
(1.1639324 0 0)
(1.1686158 0 0)
(1.1720377 0 0)
(1.1742247 0 0)
(1.1751826 0 0)
(1.174899 0 0)
(1.1733636 0 0)
(1.1705871 0 0)
(1.166546 0 0)
(1.1612208 0 0)
(1.1546126 0 0)
(1.1467439 0 0)
(1.1376839 0 0)
(1.1275024 0 0)
(1.116388 0 0)
(1.1045321 0 0)
(1.0922857 0 0)
(1.0800965 0 0)
(1.0685176 0 0)
(1.0581633 0 0)
(1.0497682 0 0)
(1.0445353 0 0)
(0.81940256 0 0)
(0.78157211 0 0)
(0.74130745 0 0)
(0.698415 0 0)
(0.65252613 0 0)
(0.60350069 0 0)
(0.55102662 0 0)
(0.49467214 0 0)
(0.43397469 0 0)
(0.36854862 0 0)
(0.29791808 0 0)
(0.22083866 0 0)
(0.13710926 0 0)
(0.047351754 0 0)
(0.85492518 0 0)
(0.88833564 0 0)
(0.91985658 0 0)
(0.94964592 0 0)
(0.97776298 0 0)
(1.0042527 0 0)
(1.0292176 0 0)
(1.0527113 0 0)
(1.0747543 0 0)
(1.0932681 0 0)
(1.1082365 0 0)
(1.121657 0 0)
(1.1335816 0 0)
(1.1440472 0 0)
(1.1530984 0 0)
(1.1607945 0 0)
(1.1671815 0 0)
(1.1722935 0 0)
(1.1761724 0 0)
(1.1788593 0 0)
(1.1803735 0 0)
(1.1807059 0 0)
(1.1798474 0 0)
(1.1777829 0 0)
(1.1744994 0 0)
(1.1699844 0 0)
(1.1642034 0 0)
(1.1571647 0 0)
(1.1488783 0 0)
(1.1394248 0 0)
(1.1288632 0 0)
(1.1173951 0 0)
(1.105206 0 0)
(1.0926552 0 0)
(1.0802003 0 0)
(1.068389 0 0)
(1.0576951 0 0)
(1.0491192 0 0)
(1.0437601 0 0)
(0.85455644 0 0)
(0.81932574 0 0)
(0.78177977 0 0)
(0.74187694 0 0)
(0.69931267 0 0)
(0.65371679 0 0)
(0.60493266 0 0)
(0.55263418 0 0)
(0.49638041 0 0)
(0.43568438 0 0)
(0.37018759 0 0)
(0.29855124 0 0)
(0.22064091 0 0)
(0.13696478 0 0)
(0.047293561 0 0)
(0.88757783 0 0)
(0.91871346 0 0)
(0.94813516 0 0)
(0.97590876 0 0)
(1.002086 0 0)
(1.0267762 0 0)
(1.0500437 0 0)
(1.0718902 0 0)
(1.0923284 0 0)
(1.1093653 0 0)
(1.1230067 0 0)
(1.1351885 0 0)
(1.1459335 0 0)
(1.155289 0 0)
(1.1633172 0 0)
(1.1700625 0 0)
(1.1755662 0 0)
(1.1798704 0 0)
(1.1830124 0 0)
(1.1850283 0 0)
(1.1859242 0 0)
(1.1856869 0 0)
(1.1842982 0 0)
(1.1817354 0 0)
(1.1779937 0 0)
(1.1730362 0 0)
(1.1668341 0 0)
(1.1593879 0 0)
(1.1507128 0 0)
(1.1408868 0 0)
(1.1299703 0 0)
(1.1181682 0 0)
(1.1056679 0 0)
(1.0928329 0 0)
(1.0801316 0 0)
(1.0678852 0 0)
(1.0569617 0 0)
(1.0483038 0 0)
(1.0428133 0 0)
(0.88720933 0 0)
(0.85447781 0 0)
(0.8195347 0 0)
(0.782361 0 0)
(0.74280644 0 0)
(0.70055239 0 0)
(0.6552186 0 0)
(0.60664606 0 0)
(0.55449364 0 0)
(0.49830275 0 0)
(0.43758311 0 0)
(0.37093456 0 0)
(0.29828292 0 0)
(0.2204166 0 0)
(0.13679743 0 0)
(0.047226108 0 0)
(0.91795487 0 0)
(0.9469978 0 0)
(0.97440795 0 0)
(1.0002522 0 0)
(1.0246461 0 0)
(1.0476536 0 0)
(1.0692855 0 0)
(1.0895465 0 0)
(1.1084913 0 0)
(1.1241679 0 0)
(1.1365718 0 0)
(1.1475729 0 0)
(1.1572055 0 0)
(1.1655336 0 0)
(1.172611 0 0)
(1.1784737 0 0)
(1.1831627 0 0)
(1.1867239 0 0)
(1.1891958 0 0)
(1.1905977 0 0)
(1.1909275 0 0)
(1.1901648 0 0)
(1.1882924 0 0)
(1.1852792 0 0)
(1.1811014 0 0)
(1.1757336 0 0)
(1.1691329 0 0)
(1.1613081 0 0)
(1.1522645 0 0)
(1.1420907 0 0)
(1.130838 0 0)
(1.1187237 0 0)
(1.1059356 0 0)
(1.0928351 0 0)
(1.0795891 0 0)
(1.0670416 0 0)
(1.0560736 0 0)
(1.0473225 0 0)
(1.0416909 0 0)
(0.91758559 0 0)
(0.88713146 0 0)
(0.8546881 0 0)
(0.82012698 0 0)
(0.78331272 0 0)
(0.74408503 0 0)
(0.70211711 0 0)
(0.65702377 0 0)
(0.608631 0 0)
(0.55658814 0 0)
(0.50043861 0 0)
(0.43842968 0 0)
(0.37059528 0 0)
(0.2979811 0 0)
(0.22015597 0 0)
(0.13660801 0 0)
(0.047150401 0 0)
(0.9462416 0 0)
(0.97327894 0 0)
(0.99877223 0 0)
(1.0228407 0 0)
(1.0455631 0 0)
(1.0669529 0 0)
(1.087019 0 0)
(1.105801 0 0)
(1.1233562 0 0)
(1.1377576 0 0)
(1.1489849 0 0)
(1.1588718 0 0)
(1.1674767 0 0)
(1.1748521 0 0)
(1.1810393 0 0)
(1.1860856 0 0)
(1.1900317 0 0)
(1.1929162 0 0)
(1.194773 0 0)
(1.195615 0 0)
(1.1954254 0 0)
(1.1941851 0 0)
(1.1918647 0 0)
(1.1884265 0 0)
(1.1838534 0 0)
(1.1780998 0 0)
(1.171129 0 0)
(1.162945 0 0)
(1.1535565 0 0)
(1.1430516 0 0)
(1.1314833 0 0)
(1.119081 0 0)
(1.1060211 0 0)
(1.0922604 0 0)
(1.0786223 0 0)
(1.0660607 0 0)
(1.0550302 0 0)
(1.0461702 0 0)
(1.0403949 0 0)
(0.94587607 0 0)
(0.91750734 0 0)
(0.88734481 0 0)
(0.85528802 0 0)
(0.82109408 0 0)
(0.7846223 0 0)
(0.74570477 0 0)
(0.70399987 0 0)
(0.65911204 0 0)
(0.61086573 0 0)
(0.55891394 0 0)
(0.50137727 0 0)
(0.43802624 0 0)
(0.37021455 0 0)
(0.29763184 0 0)
(0.21985599 0 0)
(0.13639238 0 0)
(0.047064277 0 0)
(0.9725286 0 0)
(0.99765698 0 0)
(1.0213845 0 0)
(1.0437951 0 0)
(1.0649098 0 0)
(1.0847498 0 0)
(1.1033583 0 0)
(1.1207697 0 0)
(1.1370171 0 0)
(1.150194 0 0)
(1.1603058 0 0)
(1.1691642 0 0)
(1.1768151 0 0)
(1.1833006 0 0)
(1.1886655 0 0)
(1.192961 0 0)
(1.1962271 0 0)
(1.1984938 0 0)
(1.1997929 0 0)
(1.2001237 0 0)
(1.1994625 0 0)
(1.1977807 0 0)
(1.1950505 0 0)
(1.1912257 0 0)
(1.1862744 0 0)
(1.1801618 0 0)
(1.1728398 0 0)
(1.16432 0 0)
(1.1546025 0 0)
(1.1437857 0 0)
(1.1319254 0 0)
(1.1192506 0 0)
(1.1054294 0 0)
(1.0911712 0 0)
(1.0775364 0 0)
(1.0649366 0 0)
(1.0538264 0 0)
(1.0448493 0 0)
(1.0389206 0 0)
(0.97216662 0 0)
(0.94579916 0 0)
(0.91772007 0 0)
(0.88794813 0 0)
(0.85626745 0 0)
(0.82242974 0 0)
(0.78628291 0 0)
(0.7476485 0 0)
(0.70617831 0 0)
(0.66146787 0 0)
(0.61334994 0 0)
(0.55992129 0 0)
(0.50091673 0 0)
(0.43757149 0 0)
(0.36977555 0 0)
(0.29723089 0 0)
(0.21951101 0 0)
(0.13614933 0 0)
(0.046967859 0 0)
(0.99691893 0 0)
(1.0202859 0 0)
(1.0423655 0 0)
(1.0631833 0 0)
(1.0827648 0 0)
(1.1011606 0 0)
(1.118412 0 0)
(1.1345326 0 0)
(1.1495268 0 0)
(1.1615371 0 0)
(1.1706177 0 0)
(1.1785208 0 0)
(1.1852767 0 0)
(1.1909364 0 0)
(1.1955513 0 0)
(1.1991605 0 0)
(1.2018023 0 0)
(1.203512 0 0)
(1.2043044 0 0)
(1.2041691 0 0)
(1.2030744 0 0)
(1.2009915 0 0)
(1.1978792 0 0)
(1.1936877 0 0)
(1.1883912 0 0)
(1.1819391 0 0)
(1.1742887 0 0)
(1.1654469 0 0)
(1.1554186 0 0)
(1.144312 0 0)
(1.1321755 0 0)
(1.118645 0 0)
(1.1042305 0 0)
(1.0899818 0 0)
(1.0763241 0 0)
(1.0636693 0 0)
(1.052464 0 0)
(1.0433542 0 0)
(1.0372714 0 0)
(0.99656378 0 0)
(0.9720912 0 0)
(0.94601195 0 0)
(0.91832398 0 0)
(0.88893625 0 0)
(0.85762139 0 0)
(0.8241187 0 0)
(0.78827418 0 0)
(0.74990143 0 0)
(0.70863717 0 0)
(0.66408716 0 0)
(0.61440586 0 0)
(0.55939742 0 0)
(0.50039351 0 0)
(0.43705114 0 0)
(0.36927472 0 0)
(0.29677209 0 0)
(0.21911956 0 0)
(0.13587488 0 0)
(0.046859181 0 0)
(1.0195599 0 0)
(1.0412906 0 0)
(1.0617862 0 0)
(1.0810842 0 0)
(1.0992399 0 0)
(1.1162961 0 0)
(1.13227 0 0)
(1.1471501 0 0)
(1.1609389 0 0)
(1.1718662 0 0)
(1.1799919 0 0)
(1.1869971 0 0)
(1.1929226 0 0)
(1.1978246 0 0)
(1.2017513 0 0)
(1.2047349 0 0)
(1.206812 0 0)
(1.2080153 0 0)
(1.2083499 0 0)
(1.2077881 0 0)
(1.2062988 0 0)
(1.2038426 0 0)
(1.2003798 0 0)
(1.195852 0 0)
(1.190224 0 0)
(1.1834542 0 0)
(1.1754883 0 0)
(1.1663422 0 0)
(1.1560249 0 0)
(1.1446423 0 0)