/*--------------------------------*- C++ -*----------------------------------*\
| =========                 |                                                 |
| \\      /  F ield         | OpenFOAM: The Open Source CFD Toolbox           |
|  \\    /   O peration     | Version:  v2012                                 |
|   \\  /    A nd           | Website:  www.openfoam.com                      |
|    \\/     M anipulation  |                                                 |
\*---------------------------------------------------------------------------*/
FoamFile
{
    version     2.0;
    format      ascii;
    class       surfaceScalarField;
    location    "117.16882180965662";
    object      phi;
}
// * * * * * * * * * * * * * * * * * * * * * * * * * * * * * * * * * * * * * //

dimensions      [0 3 -1 0 0 0 0];
oriented        oriented;


internalField   nonuniform List<scalar> 
18180
(
-0.020961678
-3.4628856
-0.040698111
-3.2312012
-0.012832048
-3.4956758
-0.058013093
-3.0117064
-0.02410794
-3.2617498
-0.0095206764
-3.5283641
-0.0729856
-2.8021141
-0.033330418
-3.0404038
-0.01752446
-3.2922103
-0.0060275748
-3.5610573
-0.08491689
-2.6041121
-0.040197275
-2.8294591
-0.02392278
-3.0686741
-0.010877804
-3.3233469
-0.0034924101
-3.5941513
-0.093260145
-2.4177903
-0.044334693
-2.6314456
-0.028277047
-2.8567491
-0.01436498
-3.0984877
-0.0060667159
-3.3551147
-0.0014583026
-3.62674
-0.097348073
-2.243457
-0.045544209
-2.4459302
-0.030346383
-2.65849
-0.01611627
-2.8857039
-0.0075344447
-3.129447
-0.0022528029
-3.386881
0.00014173494
-3.6593342
-0.09672602
-2.0807559
-0.043709906
-2.2727687
-0.029924178
-2.4734285
-0.015984921
-2.6869819
-0.0075999709
-2.9160934
-0.0021632649
-3.1608171
0.00069150454
-3.4184118
0.0013418345
-3.691078
-0.091006491
-1.9296289
-0.038720171
-2.1116136
-0.026888884
-2.3013128
-0.013876775
-2.5019012
-0.0061645107
-2.7168777
-0.00096237229
-2.9472813
0.0019619796
-3.1919791
0.0030138754
-3.4491226
0.00228563
-3.7220663
-0.080076295
-1.7897972
-0.030597563
-1.962127
-0.021270089
-2.1413671
-0.0098262547
-2.3300898
-0.0031903184
-2.5314582
0.0014176169
-2.7477102
0.0040875331
-2.9781973
0.0051781547
-3.2222203
0.0048357884
-3.4789634
0.0030493215
-3.7517371
-0.06431637
-1.6608218
-0.019495355
-1.8238616
-0.013287478
-1.9929661
-0.0039711053
-2.1705561
0.001251036
-2.3592932
0.004981584
-2.5616914
0.0071220772
-2.778302
0.0080090651
-3.0082152
0.0077032641
-3.2514045
0.0062695382
-3.5076678
0.0036525668
-3.7805311
-0.043980487
-1.542543
-0.0054953727
-1.6964259
-0.0033005853
-1.8554627
0.0034539946
-2.0224785
0.0070151239
-2.1995102
0.0096456132
-2.3889487
0.011057899
-2.5917761
0.011518417
-2.8079005
0.011072038
-3.0370062
0.0096934458
-3.2794437
0.007389224
-3.5353271
0.0041098112
-3.8080087
-0.019575915
-1.4341782
0.010682301
-1.5790176
0.0081198658
-1.7282366
0.012136174
-1.8850742
0.013876276
-2.0511793
0.015273546
-2.228501
0.015816236
-2.418181
0.01570219
-2.6206522
0.014935671
-2.8361593
0.013480218
-3.0645693
0.011250889
-3.3062679
0.0082452448
-3.5616842
0.0044409453
-3.8343701
0.0082145449
-1.3348165
0.028061541
-1.4705912
0.020498865
-1.610584
0.021704343
-1.7576178
0.021554086
-1.9133302
0.021676459
-2.0793859
0.021288042
-2.2567353
0.020490803
-2.4460497
0.019286125
-2.6481008
0.017616624
-2.8631091
0.015367613
-3.0907872
0.012445515
-3.3317997
0.0088723634
-3.5868375
0.0046632723
-3.859267
0.038425844
-1.2438156
0.046235229
-1.3708058
0.033750692
-1.5018564
0.031803612
-1.6394174
0.02973213
-1.7851973
0.028638
-1.9407204
0.027335164
-2.1066731
0.02580077
-2.2835223
0.024061157
-2.4725099
0.022084855
-2.6743419
0.019721382
-2.8887372
0.016823991
-3.1157018
0.013325995
-3.3560641
0.0092969961
-3.6107198
0.0047900391
-3.8830333
0.070070143
-1.1605062
0.064901008
-1.2791243
0.047517861
-1.4014467
0.042059818
-1.5298102
0.038083904
-1.6660516
0.035925075
-1.8116571
0.033811362
-1.9671014
0.031538829
-2.1324613
0.029192656
-2.3089489
0.026822079
-2.497848
0.024282483
-2.6992557
0.021357414
-2.9130183
0.017909351
-3.1393072
0.013928555
-3.3791144
0.0095416911
-3.633407
0.0048331418
-3.9054225
0.10229309
-1.0841852
0.083741846
-1.1948686
0.061322271
-1.3087088
0.052059275
-1.4281562
0.046282104
-1.5552266
0.043300918
-1.6914241
0.040572595
-1.8371301
0.03762105
-1.9919656
0.034615272
-2.1567637
0.031761691
-2.3331798
0.028980406
-2.5219129
0.026005584
-2.7228607
0.02259537
-2.9360055
0.018666133
-3.1617009
0.014282947
-3.4009085
0.0096275377
-3.6548022
0.0048041534
-3.9266228
0.13445998
-1.0141482
0.10246581
-1.1173631
0.074738502
-1.2230242
0.061417676
-1.3338434
0.054000298
-1.4520836
0.050523707
-1.57933
0.047484582
-1.7159533
0.043983104
-1.861145
0.040283772
-2.0152342
0.036843845
-2.1798949
0.033737303
-2.3562571
0.030686268
-2.5446663
0.027337234
-2.7451786
0.023482463
-2.9577794
0.019127276
-3.1828308
0.014416325
-3.4214837
0.0095750332
-3.674975
0.0047140121
-3.9464385
0.16616897
-0.94978827
0.12085903
-1.0459848
0.087423218
-1.1438038
0.069790561
-1.246296
0.06092256
-1.3560246
0.057353983
-1.4747309
0.054427268
-1.6028603
0.050587179
-1.739192
0.046183733
-1.8835209
0.042031426
-2.0372429
0.038478917
-2.2017533
0.035303717
-2.3779168
0.032042098
-2.5661444
0.028329892
-2.766322
0.024051798
-2.9783382
0.019321387
-3.2027952
0.014354636
-3.4408523
0.0094038688
-3.6939368
0.0045727931
-3.9651021
0.19704483
-0.89031562
0.13881154
-0.98023269
0.099102245
-1.0704943
0.076861308
-1.1649528
0.066744285
-1.2664849
0.063553416
-1.3770255
0.061296703
-1.4972131
0.05742625
-1.625387
0.052339538
-1.7607786
0.047321553
-1.9044477
0.043149006
-2.0578103
0.039758069
-2.222122
0.036596926
-2.3983094
0.033110313
-2.5865097
0.029014654
-2.7863239
0.02432888
-2.9977765
0.019275138
-3.2216049
0.014122839
-3.459104
0.0091324187
-3.7117307
0.0043896329
-3.9824962
0.22698561
-0.83529648
0.15622077
-0.91932597
0.10947956
-1.0025767
0.08236957
-1.0893112
0.071203471
-1.1829426
0.068882549
-1.2856465
0.067999455
-1.3984152
0.064523658
-1.5191111
0.058818805
-1.6463334
0.05275373
-1.7807984
0.047719465
-1.9238266
0.043956869
-2.0768192
0.040874651
-2.2412724
0.037699674
-2.4177642
0.033920138
-2.6058854
0.029409058
-2.8053106
0.024335423
-3.0161536
0.019013951
-3.2393655
0.013744318
-3.476218
0.0087775749
-3.7283638
0.0041726422
-3.9987662
0.25595622
-0.7842698
0.17319524
-0.86304302
0.11870802
-0.93972003
0.086040982
-1.0188327
0.074102825
-1.1049588
0.073114913
-1.2000888
0.074459899
-1.3059161
0.071929796
-1.4197887
0.065732263
-1.5395853
0.058414456
-1.6656284
0.052198323
-1.7991319
0.047823688
-1.9415251
0.044743536
-2.0946394
0.041951103
-2.2596237
0.038643151
-2.4363512
0.034476749
-2.6243678
0.029522988
-2.8233489
0.024091252
-3.0335479
0.018561888
-3.2560597
0.013240955
-3.4922738
0.0083545129
-3.7438694
0.0039289929
-4.0138235
0.2839807
-0.73682459
0.18980476
-0.81088328
0.12667588
-0.88143756
0.087842259
-0.95342365
0.075186671
-1.0319367
0.075963079
-1.1198593
0.080605682
-1.2192151
0.079722665
-1.3268952
0.073229066
-1.4399903
0.064440027
-1.5583588
0.056634027
-1.683072
0.051304802
-1.815581
0.048074487
-1.9578708
0.045702906
-2.1116524
0.043029945
-2.2772591
0.03941689
-2.4542168
0.034770397
-2.6420494
0.029362841
-2.8405077
0.023615237
-3.0499697
0.017942051
-3.2717709
0.012632826
-3.50725
0.0078769843
-3.7582987
0.0036649694
-4.0278198
0.31112073
-0.69260201
0.20615388
-0.76246698
0.13333557
-0.82729017
0.087595193
-0.89244798
0.073930668
-0.96351125
0.077348001
-1.04457
0.086372428
-1.1378257
0.087987404
-1.2399318
0.08149376
-1.3470539
0.07101017
-1.4584751
0.061119016
-1.5750824
0.05437272
-1.6983426
0.050746108
-1.8304189
0.048783474
-1.9734224
0.046904561
-2.1281384
0.044082421
-2.2943129
0.039982207
-2.4714401
0.034784208
-2.6589983
0.028934425
-2.8567983
0.022926577
-3.0654748
0.017176586
-3.286481
0.011938811
-3.5212338
0.0073573954
-3.7716606
0.0033861352
-4.0407159
0.33745856
-0.65124273
0.22237563
-0.71745977
0.13869758
-0.77695004
0.085212682
-0.83555108
0.070198495
-0.8994259
0.077183588
-0.97384653
0.091728682
-1.0613877
0.096844586
-1.1584402
0.090734508
-1.2602996
0.078352976
-1.3655239
0.065784582
-1.4746606
0.057026792
-1.5892528
0.052649195
-1.7116701
0.051014915
-1.8443278
0.050073143
-1.9884514
0.048300696
-2.1441222
0.045030549
-2.3109027
0.040286758
-2.4881208
0.034500743
-2.675226
0.028245991
-2.8722807
0.022045332
-3.0800739
0.016287381
-3.3002521
0.011176617
-3.5341902
0.0068071388
-3.7840113
0.0030974521
-4.0526022
0.36297286
-0.61238257
0.23859551
-0.67549138
0.14279572
-0.73010104
0.080654181
-0.78244898
0.06397902
-0.83944671
0.0752753
-0.90732261
0.096632319
-0.98951156
0.10636966
-1.0820109
0.10117931
-1.1792864
0.086729289
-1.279057
0.070812639
-1.3813961
0.059299577
-1.4878108
0.053672763
-1.6010096
0.052215304
-1.7237752
0.052328792
-1.857668
0.051877349
-2.0031023
0.04976183
-2.1598381
0.04577136
-2.3271681
0.040276686
-2.5042723
0.03390788
-2.690783
0.027309767
-2.8869512
0.020993529
-3.0937768
0.015296241
-3.3130616
0.010363223
-3.5461994
0.0062365967
-3.795342
0.0028035495
-4.0634577
0.38741867
-0.57565097
0.25477754
-0.63603326
0.14571591
-0.68642163
0.073910812
-0.73285575
0.055216442
-0.78323997
0.071382511
-0.8447197
0.10102314
-0.92181305
0.11663914
-1.0102517
0.11303832
-1.1035873
0.09642303
-1.1986566
0.076411045
-1.2948619
0.061244057
-1.393616
0.053745635
-1.4979782
0.052216268
-1.6112327
0.05345623
-1.735285
0.054600877
-1.8707695
0.053999375
-2.0177416
0.051114973
-2.1755531
0.046197706
-2.3431716
0.03990711
-2.5199376
0.033002212
-2.7056501
0.026143772
-2.9007954
0.01979535
-3.1065785
0.014225133
-3.3249486
0.0095146673
-3.5572115
0.0056553859
-3.8057312
0.0025089497
-4.0733739
0.41045988
-0.54073936
0.27061426
-0.59843877
0.1476021
-0.64543792
0.065000589
-0.6864754
0.043861056
-0.73052168
0.065340169
-0.78577777
0.1048316
-0.85800252
0.1277509
-0.94279686
0.1265159
-1.0328054
0.1077346
-1.1239136
0.082820774
-1.2146732
0.062934995
-1.306257
0.052772319
-1.4021291
0.05084171
-1.5062048
0.053233563
-1.620776
0.056247559
-1.7466787
0.057548042
-1.8841507
0.056172356
-2.0327226
0.052178732
-2.1912803
0.04621602
-2.3589103
0.03914849
-2.5350754
0.031791965
-2.7197939
0.024772042
-2.9137892
0.018477177
-3.1184711
0.013095825
-3.3358837
0.0086460945
-3.567303
0.0050723881
-3.8151605
0.0022179835
-4.0823669
0.43192823
-0.50759802
0.28564622
-0.56224595
0.14830854
-0.60621067
0.053880929
-0.64277209
0.029834056
-0.68096299
0.057022866
-0.73024991
0.10800208
-0.79783429
0.13978486
-0.87933248
0.14181558
-0.96657326
0.12096973
-1.0544381
0.090308315
-1.1404432
0.064466498
-1.225364
0.050692458
-1.3130785
0.047899814
-1.4082076
0.051427058
-1.5136188
0.05658753
-1.6302986
0.060200306
-1.7585552
0.060780439
-1.8981632
0.05811509
-2.0480529
0.052791175
-2.2070297
0.045757104
-2.3743338
0.037991314
-2.5496304
0.03029738
-2.7331645
0.023224421
-2.9259164
0.017066787
-3.1294506
0.011929471
-3.3458757
0.0077715142
-3.5764297
0.0044957
-3.8237166
0.001934622
-4.0904879
0.45175051
-0.47603009
0.29965939
-0.52765055
0.14746743
-0.56805027
0.040175011
-0.60047236
0.012954999
-0.63392453
0.046400418
-0.67789622
0.11050345
-0.74108221
0.15279449
-0.81958335
0.15911044
-0.90454476
0.13641929
-0.98984259
0.099160071
-1.0717997
0.065943844
-1.15056
0.047439186
-1.230445
0.04322405
-1.3168698
0.047831554
-1.4133386
0.055388744
-1.5211012
0.061743527
-1.6404977
0.064763438
-1.7714315
0.063885026
-1.9129433
0.059572484
-2.0637008
0.05282604
-2.2227047
0.044783091
-2.3893538
0.036446789
-2.5635178
0.028550151
-2.7457305
0.021535011
-2.9371537
0.0155924
-3.1394806
0.010746261
-3.3549235
0.0069035129
-3.5846932
0.0039326143
-3.8313927
0.0016626034
-4.0977736
0.46683049
-0.52217477
0.31266948
-0.49467956
0.14463916
-0.53107613
0.023530547
-0.55890917
-0.006942795
-0.58814262
0.033653452
-0.62828138
0.11239161
-0.68758973
0.16683003
-0.76331746
0.17853706
-0.84640239
0.1543512
-0.92975604
0.10966714
-1.0083589
0.067478289
-1.0814769
0.042949382
-1.1538549
0.036643306
-1.2318004
0.042223905
-1.3195257
0.052435412
-1.4186167
0.061967801
-1.5294793
0.067939187
-1.6520258
0.069353371
-1.7854143
0.066484739
-1.9283359
0.060340617
-2.0795577
0.052203661
-2.2382009
0.043288942
-2.4038469
0.034545878
-2.5766808
0.026590863
-2.7574437
0.019740451
-2.947463
0.014081817
-3.14859
0.0095646192
-3.3630826
0.0060531139
-3.5920844
0.0033895456
-3.8382946
0.0014051897
-4.1042826
0.48273714
-0.52416324
0.32173185
-0.5373951
0.14032084
-0.49625198
0.0041254106
-0.51872882
-0.02972592
-0.54324918
0.019469169
-0.58064086
0.11398653
-0.63718504
0.18197359
-0.71041262
0.20021028
-0.79189254
0.1750058
-0.87382971
0.12213451
-0.94975984
0.069177858
-1.01773
0.037154343
-1.0829341
0.027992118
-1.1526258
0.034398439
-1.2318001
0.047519013
-1.3224221
0.060675955
-1.4250073
0.070128524
-1.5394788
0.074376953
-1.665021
0.073439195
-1.8003895
0.068274021
-1.9442685
0.060281465
-2.0954994
0.050893123
-2.253352
0.041300938
-2.4177204
0.032335418
-2.5890377
0.024466146
-2.7682536
0.017878206
-2.9568547
0.012561049
-3.156791
0.0084010321
-3.3703843
0.0052296898
-3.5987009
0.002871424
-3.8444097
0.0011637403
-4.1100703
0.49907523
-0.52549919
0.33162068
-0.54020247
0.13102992
-0.5345405
-0.017500336
-0.48125652
-0.054681777
-0.50046997
0.00464614
-0.53471619
0.11607572
-0.58957142
0.19831649
-0.66070838
0.22412601
-0.74077302
0.19851487
-0.82169943
0.13687979
-0.89566691
0.071162488
-0.95897096
0.029981274
-1.0172952
0.017105058
-1.0789719
0.024163498
-1.1497994
0.040455947
-1.2321535
0.05769204
-1.3266846
0.071163266
-1.4333711
0.078810867
-1.5513744
0.080335782
-1.6794419
0.076586085
-1.8163195
0.069036419
-1.960654
0.059325767
-2.111345
0.048910258
-2.2680222
0.038871243
-2.4308516
0.029873756
-2.600517
0.022225719
-2.7781476
0.015984357
-2.9653354
0.011053798
-3.1641396
0.0072696132
-3.3768721
0.0044407825
-3.6045349
0.0023815892
-3.8498366
0.0009380045
-4.1151658
0.51555423
-0.52606846
0.34181904
-0.54183984
0.12030296
-0.53598034
-0.046112505
-0.51308871
-0.081388577
-0.46083538
-0.010414206
-0.49133476
0.11945612
-0.54449924
0.21608791
-0.61404953
0.24990758
-0.69250727
0.22447172
-0.77258033
0.1539749
-0.84546832
0.073536158
-0.90485113
0.021362522
-0.95660023
0.0038356713
-1.0104704
0.011342635
-1.0731624
0.031091401
-1.1474751
0.052871666
-1.2341628
0.070895905
-1.3333073
0.082515209
-1.4440804
0.087066231
-1.5651515
0.085222577
-1.6952942
0.078476916
-1.833118
0.068649297
-1.9772172
0.057470908
-2.1268809
0.046310456
-2.2820397
0.03607156
-2.4431344
0.027226053
-2.6110745
0.019918931
-2.7871194
0.014092436
-2.9729404
0.0095806889
-3.1706454
0.0061820106
-3.3825893
0.0036921561
-3.6096877
0.0019230929
-3.8545733
0.00073043128
-4.1196333
0.53192449
-0.52579549
0.35190458
-0.54229071
0.10791215
-0.53602387
-0.076984171
-0.51233257
-0.11630748
-0.48490088
-0.025474339
-0.45135673
0.12417503
-0.50204364
0.23540363
-0.57007163
0.27723119
-0.64698966
0.2518495
-0.72531438
0.17260808
-0.79749528
0.075985116
-0.85433917
0.011203351
-0.90047577
-0.01195399
-0.94679378
-0.0042114569
-1.0015486
0.019307074
-1.0680586
0.0461098
-1.1471386
0.069208989
-1.238955
0.085362926
-1.3427538
0.093519148
-1.4571365
0.094115923
-1.5807972
0.088597068
-1.7124311
0.078918605
-1.85045
0.067081316
-1.9937019
0.05477183
-2.1418855
0.043179998
-2.2952514
0.03298618
-2.4544869
0.024459061
-2.6206863
0.017592601
-2.7951834
0.012232127
-2.9796799
0.0081590068
-3.176379
0.0051473816
-3.3876014
0.0029880295
-3.6141682
0.0014988744
-3.8587248
0.00054384911
-4.1235101
0.54797803
-0.52466263
0.36150369
-0.5415281
0.093796607
-0.5348202
-0.10956248
-0.51072961
-0.15235949
-0.48307873
-0.050446048
-0.46589344
0.13008959
-0.46287389
0.25605383
-0.52852316
0.30543544
-0.60351686
0.28017212
-0.68034256
0.19172969
-0.75034728
0.077757744
-0.80532835
-0.00099284763
-0.84749117
-0.03041792
-0.88755302
-0.022651147
-0.934624
0.005023623
-0.99360262
0.037350499
-1.0653312
0.066022718
-1.1500378
0.087247081
-1.2470701
0.099584152
-1.3550235
0.10318583
-1.4725062
0.099373415
-1.5982297
0.090175667
-1.7305544
0.077837061
-1.8679619
0.064380623
-2.0097952
0.051329547
-2.1561415
0.039626259
-2.307524
0.02970436
-2.4648613
0.021637476
-2.6293438
0.015288878
-2.8023425
0.010428651
-2.9856125
0.0068025593
-3.1813796
0.0041725781
-3.3919641
0.0023313231
-3.6180645
0.001108985
-3.8622798
0.00037488515
-4.1268631
0.56353283
-0.52267088
0.3702808
-0.53957181
0.078108349
-0.53255374
-0.14315252
-0.50857162
-0.18895451
-0.48099125
-0.076194364
-0.46340257
0.12591328
-0.46761396
0.27770883
-0.48995064
0.33388274
-0.56186117
0.30869998
-0.63669988
0.21098082
-0.70515277
0.079033529
-0.75734698
-0.01576562
-0.79549718
-0.05171874
-0.83131236
-0.044079906
-0.87204945
-0.011817817
-0.92379211
0.026587424
-0.98848844
0.061303739
-1.0663188
0.088087008
-1.1567646
0.10515671
-1.2584891
0.11234096
-1.3700674
0.11076188
-1.4901381
0.1024438
-1.6170633
0.089825261
-1.7491359
0.075264961
-1.8852491
0.060661599
-2.0252129
0.047278351
-2.169455
0.035767035
-2.3187768
0.026314559
-2.4742224
0.018820541
-2.6370409
0.013044051
-2.8086465
0.0087024429
-2.9907822
0.0055218509
-3.1857273
0.0032622466
-3.3957278
0.0017235902
-3.6213806
0.00075108921
-3.8653272
0.00021797075
-4.1296995
0.57829682
-0.51983803
0.3779785
-0.53650072
0.061099614
-0.5293432
-0.17708371
-0.50601865
-0.2254178
-0.47901821
-0.10280049
-0.46055394
0.12291365
-0.46637043
0.29055815
-0.48609346
0.36217518
-0.52280234
0.33687858
-0.59434845
0.23010412
-0.66104573
0.079747924
-0.71128079
-0.032251538
-0.74542848
-0.075740494
-0.77620265
-0.06818345
-0.81280385
-0.031195376
-0.85836837
0.01387403
-0.91635486
0.055065603
-0.98758796
0.087835154
-1.0716282
0.11014324
-1.1672658
0.121481
-1.2731301
0.12269814
-1.3878125
0.11572305
-1.5096073
0.10311777
-1.6367189
0.087551205
-1.7677023
0.071326116
-1.9019419
0.056088394
-2.0396876
0.042771282
-2.1816979
0.03172189
-2.3289426
0.022899195
-2.4825519
0.016059906
-2.6438154
0.010887873
-2.8141327
0.0070692552
-2.9952547
0.0043242617
-3.1894597
0.002419092
-3.3989456
0.0011651045
-3.6242029
0.00042325691
-3.8678661
6.6453944e-05
-4.1320749
0.59178451
-0.51612653
0.3843394
-0.53233212
0.043089268
-0.52533278
-0.21066799
-0.50320664
-0.26102471
-0.47736873
-0.13006404
-0.45800865
0.12030757
-0.46397727
0.30641028
-0.48789504
0.38403399
-0.51266787
0.36433544
-0.55425195
0.24899989
-0.61814185
0.082501117
-0.66892294
-0.048971407
-0.69878811
-0.10179452
-0.72373386
-0.094058774
-0.75560606
-0.05260608
-0.79678977
-0.00069707103
-0.84871025
0.047378007
-0.91364707
0.086476975
-0.99148347
0.11446549
-1.0811543
0.13050055
-1.1814301
0.13509489
-1.2909396
0.12998527
-1.4078767
0.11776329
-1.5302961
0.10135568
-1.6565882
0.083477823
-1.7857706
0.066215303
-1.9176969
0.050856173
-2.0530332
0.037967824
-2.1927643
0.027604298
-2.3379865
0.019531064
-2.4898739
0.013398401
-2.6497002
0.0088435513
-2.8188616
0.0055403719
-2.9990788
0.003214409
-3.192651
0.0016441746
-3.4016779
0.00065525076
-3.6265475
0.00012413997
-3.8699918
-7.0045696e-05
-4.1340044
-0.51168119
0.60364442
0.38915968
-0.52708176
0.024521383
-0.52066405
-0.24319532
-0.50030154
-0.29512652
-0.4761026
-0.15742403
-0.45633484
0.11748638
-0.46126779
0.32446262
-0.48773087
0.40884873
-0.51748244
0.39076053
-0.54319263
0.26739214
-0.5772365
0.086283109
-0.62677131
-0.064524696
-0.65729076
-0.12821907
-0.6763796
-0.12124594
-0.70152188
-0.075000577
-0.73832135
-0.016734155
-0.78531659
0.038357431
-0.84432291
0.084038024
-0.91617009
0.11806263
-0.99999373
0.13929144
-1.0947547
0.14784495
-1.1992286
0.14516979
-1.3115481
0.13377969
-1.4295509
0.11677813
-1.551453
0.097271205
-1.6760871
0.077829521
-1.8029128
0.060176131
-1.9322574
0.045174383
-2.0650976
0.033022444
-2.202595
0.023515892
-2.345916
0.016271184
-2.496221
0.010869729
-2.6547519
0.0069279539
-2.8228758
0.0041230837
-3.0023212
0.0021944867
-3.1953644
0.00093723334
-3.4039813
0.00019300151
-3.6284888
-0.00014543534
-3.8716963
-0.00018893635
-4.1355528
-0.5209645
0.39230594
-0.50657449
0.61348348
0.0060337374
-0.51554538
-0.27393899
-0.49746136
-0.32721368
-0.47524626
-0.18414689
-0.45576434
0.11394422
-0.45891302
0.34378399
-0.48631328
0.43613981
-0.51983904
0.41961496
-0.55050758
0.29289928
-0.57341909
0.089429175
-0.58495172
-0.079265102
-0.61568189
-0.15605666
-0.63315427
-0.14974864
-0.65256046
-0.098159501
-0.68319629
-0.033468845
-0.72581754
0.02819097
-0.77945012
0.080574662
-0.84554508
0.12089628
-0.92364428
0.14774824
-1.0129417
0.16082126
-1.1124418
0.16118368
-1.2203193
0.15114963
-1.334198
0.1338917
-1.452006
0.1128528
-1.5724331
0.091109948
-1.6947362
0.07090167
-1.8188174
0.053478648
-1.9454216
0.03925063
-2.0757897
0.02807571
-2.2111789
0.019542822
-2.3527636
0.013167972
-2.5016458
0.0084986458
-2.659012
0.0051522357
-2.8262482
0.0028211723
-3.0050682
0.0012646416
-3.1976746
0.00029691673
-3.4058965
-0.00022317636
-3.6300353
-0.0003928623
-3.8730431
-0.00029853349
-4.1367248
-0.51012315
-0.011803603
-0.51419102
0.39378329
-0.50097805
0.62172951
-0.30222297
-0.49484362
-0.35681238
-0.47492201
-0.20951264
-0.45631009
0.1094757
-0.45744549
0.36327878
-0.48415035
0.46520816
-0.52023759
0.45046248
-0.55492046
0.32096742
-0.58340794
0.10396915
-0.59263684
-0.094084024
-0.5735399
-0.18385671
-0.59129878
-0.17918016
-0.60812399
-0.12266898
-0.63262002
-0.050599077
-0.66998173
0.017264682
-0.71887276
0.07616311
-0.77946257
0.12294516
-0.85198045
0.15577186
-0.9358576
0.17388469
-1.0304003
0.17789859
-1.1339223
0.16981295
-1.2439298
0.15273424
-1.3580084
0.13035124
-1.4745471
0.10623882
-1.5926815
0.083218979
-1.7121042
0.063035049
-1.8331936
0.046397811
-1.9570534
0.033277381
-2.085075
0.023248276
-2.2185473
0.015753994
-2.3585811
0.010257273
-2.5061948
0.0063017336
-2.6625569
0.0035224702
-2.8290527
0.0016354509
-3.0073834
0.0004233664
-3.1996235
-0.00027855892
-3.4074656
-0.00059558679
-3.6312559
-0.00061247495
-3.8740358
-0.00039726638
-4.1375782
-0.49257918
-0.32738605
-0.50486238
-0.028166495
-0.50729782
0.39396209
-0.49491297
0.6286288
-0.38342075
-0.47531457
-0.23318095
-0.45771396
0.1040943
-0.45709767
0.38184537
-0.48176822
0.49509445
-0.51892658
0.48246989
-0.55653214
0.35116479
-0.59005624
0.11934168
-0.60358396
-0.098187476
-0.5919813
-0.21073878
-0.54982532
-0.20820797
-0.566395
-0.14812027
-0.58698549
-0.068661862
-0.61817774
0.0059305576
-0.66232945
0.070917172
-0.7178048
0.12420843
-0.78487528
0.16327099
-0.86338473
0.18688656
-0.9529584
0.19515925
-1.0521415
0.18966345
-1.1584278
0.1732993
-1.2691336
0.14987022
-1.3821946
0.12339466
-1.4965015
0.097328316
-1.6116508
0.074017949
-1.7278177
0.05458818
-1.8458573
0.039194438
-1.9670908
0.027422311
-2.0929807
0.018637472
-2.2247532
0.012200732
-2.3634231
0.0075632749
-2.5099481
0.0042883181
-2.6654505
0.0020404274
-2.8313583
0.00056428538
-3.0093292
-0.00033173231
-3.2012598
-0.00079379715
-3.4087229
-0.00092656536
-3.6321614
-0.00080664467
-3.874748
-0.00048467847
-4.1381231
-0.47665944
-0.40643141
-0.49137043
-0.34853028
-0.49960592
-0.042924206
-0.50029014
0.39319755
-0.48845705
0.63447113
-0.25516009
-0.45981109
0.098288475
-0.45808618
0.39850966
-0.47952622
0.52463225
-0.51622537
0.5144763
-0.55526396
0.38222868
-0.59262338
0.13534632
-0.61097006
-0.10151631
-0.60378858
-0.2318504
-0.57405336
-0.23590125
-0.52598895
-0.17342961
-0.54514696
-0.087941775
-0.57105417
-0.0059479713
-0.60969786
0.065041023
-0.66039816
0.12468121
-0.72220527
0.17017092
-0.79541107
0.19967703
-0.87999389
0.21278275
-0.97480054
0.21055357
-1.0774258
0.19553008
-1.185012
0.17147292
-1.2950802
0.14274481
-1.4060423
0.11344075
-1.517245
0.086622202
-1.6288446
0.063965059
-1.7416193
0.04591013
-1.8567071
0.032099777
-1.9755498
0.021822085
-2.0995625
0.014316176
-2.2298635
0.0089177731
-2.3673768
0.0050997341
-2.5129727
0.0024615557
-2.6677668
0.0007044196
-2.8332307
-0.00039527648
-3.0109515
-0.0010059076
-3.2026171
-0.001250578
-3.4097074
-0.0012186323
-3.6328008
-0.0009769616
-3.8751726
-0.00056092711
-4.1384096
-0.46298199
-0.275313
-0.47986597
-0.42503183
-0.49027958
-0.36553833
-0.49452575
-0.055777381
-0.4933324
0.39193158
-0.48174542
0.63953782
0.092671774
-0.46037144
0.41278186
-0.4781268
0.55264971
-0.51248779
0.54521703
-0.5513324
0.41264313
-0.59077796
0.15121921
-0.61350074
-0.10496723
-0.61113053
-0.25176158
-0.58715473
-0.26510221
-0.54870684
-0.19760237
-0.50561789
-0.10782241
-0.5283721
-0.018899981
-0.56123897
0.058658396
-0.60703719
0.12439966
-0.66383461
0.1764043
-0.73181986
0.21211337
-0.81140234
0.23057385
-0.90176206
0.23228867
-1.0006916
0.21931569
-1.1053172
0.19517856
-1.2127979
0.16442946
-1.3209743
0.13177218
-1.428732
0.10106539
-1.5360861
0.07469358
-1.6438997
0.053521637
-1.7533519
0.037317601
-1.8657464
0.025304783
-1.9824916
0.016579621
-2.104903
0.010333736
-2.2339758
0.005924955
-2.3705191
0.0028715799
-2.5153481
0.00081948069
-2.6695734
-0.00048950922
-2.8347314
-0.0012502983
-3.0123036
-0.001602479
-3.2037416
-0.001652754
-3.4104293
-0.0014744363
-3.6331785
-0.0011250085
-3.875365
-0.00062640503
-4.1384433
-0.46387526
0.087397923
-0.46855468
-0.29308525
-0.48343652
-0.43896992
-0.48972225
-0.3780485
-0.48980001
-0.066411662
-0.48657215
0.39061857
-0.47517337
0.64413824
0.42478672
-0.47814684
0.57769981
-0.50814179
0.57341982
-0.5450853
0.44083336
-0.58467681
0.16592578
-0.61057202
-0.10887078
-0.61328585
-0.27128252
-0.59497429
-0.29320403
-0.56300592
-0.22936527
-0.5207081
-0.12706331
-0.48926024
-0.033011203
-0.51716102
0.051514859
-0.55760308
0.1234407
-0.60960121
0.18191982
-0.67249325
0.22406286
-0.74707578
0.24832942
-0.83291039
0.25464838
-0.9280587
0.24448385
-1.0297373
0.22094508
-1.1349261
0.18856237
-1.2408724
0.15253524
-1.3458166
0.11758551
-1.4494226
0.086967252
-1.5525387
0.062143607
-1.6565919
0.043117926
-1.7629991
0.029076199
-1.8730336
0.018954243
-1.9880153
0.011764558
-2.1091154
0.0067182199
-2.2371856
0.0032294899
-2.3729404
0.000876655
-2.5171397
-0.00064106749
-2.6709451
-0.0015496284
-2.8359175
-0.0020048723
-3.0134243
-0.0021266781
-3.2046311
-0.0020042771
-3.4109144
-0.0016966887
-3.6333378
-0.0012524223
-3.8753259
-0.00068181562
-4.1382714
-0.47959642
0.43473659
-0.46867951
0.081372167
-0.476511
-0.3064426
-0.48777924
-0.44800006
-0.48970337
-0.38587177
-0.48556192
-0.074527599
-0.48060971
0.38991745
-0.46877357
0.64821306
0.59830979
-0.50373911
0.5978311
-0.53696841
0.46517344
-0.57461591
0.17818326
-0.60209056
-0.11362976
-0.60957449
-0.29064287
-0.59736563
-0.32035797
-0.57185846
-0.25998999
-0.5362218
-0.15799558
-0.49260676
-0.047321024
-0.47764057
0.04323433
-0.51217749
0.12183227
-0.55933164
0.18668093
-0.61728557
0.2354141
-0.6869185
0.26584876
-0.76813626
0.27737999
-0.85937428
0.27081918
-0.95805656
0.2486675
-1.0610857
0.21519975
-1.1652781
0.17593618
-1.2681048
0.13644163
-1.3685977
0.1010089
-1.4674731
0.071915119
-1.5663124
0.049551103
-1.6668677
0.033122111
-1.7706098
0.021389352
-1.8786934
0.013146101
-1.9922577
0.0074161172
-2.11232
0.0034796309
-2.2395971
0.00082844684
-2.3747092
-0.00089234563
-2.5184276
-0.0019362106
-2.6719363
-0.0024823789
-2.8368352
-0.0026660054
-3.0143234
-0.0025837686
-3.2053135
-0.0023090612
-3.4111774
-0.0018880642
-3.6332902
-0.001360903
-3.8751072
-0.00072820816
-4.137896
-0.49983839
0.61355629
-0.48095351
0.44123671
-0.47708974
0.075822842
-0.48595948
-0.3146492
-0.49263771
-0.45213856
-0.49018724
-0.38898733
-0.48157496
-0.080662717
-0.47475945
0.38977116
-0.46276846
0.6514088
0.61720416
-0.52754079
0.48409023
-0.561095
0.18678517
-0.58842717
-0.11966762
-0.59988146
-0.3097677
-0.59395347
-0.34618499
-0.57564033
-0.28935748
-0.54638206
-0.18787387
-0.50923326
-0.07640906
-0.46616259
0.034014783
-0.4715121
0.11926652
-0.51276751
0.19072541
-0.5660981
0.24606204
-0.63078722
0.2829499
-0.70736168
0.30022293
-0.7945199
0.2980435
-0.89005845
0.27817643
-0.99098674
0.24434956
-1.0937479
0.20214627
-1.1951048
0.15790711
-1.293252
0.1170793
-1.3884749
0.083005071
-1.4824526
0.056681017
-1.5772412
0.037424815
-1.6747682
0.023819612
-1.7763451
0.014394549
-1.8828886
0.0079348364
-1.9953689
0.0035476854
-2.1146407
0.00061360269
-2.241295
-0.0012884807
-2.3759181
-0.0024483103
-2.5192769
-0.0030690535
-2.6726059
-0.0032966834
-2.8374972
-0.0032407614
-3.0150271
-0.0029790648
-3.2057713
-0.0025709344
-3.4112487
-0.0020511224
-3.6330684
-0.0014520872
-3.8746995
-0.00076646077
-4.1373589
-0.51742616
0.63035701
-0.49497192
0.62256772
-0.48562108
0.44398893
-0.48725311
0.071018065
-0.49626759
-0.31734744
-0.49784268
-0.45153635
-0.49059173
-0.38771994
-0.47793546
-0.084572216
-0.4690342
0.3899125
-0.45771222
0.65327263
0.49613647
-0.54480008
0.19063847
-0.57019385
-0.12737296
-0.58461001
-0.32836623
-0.58483849
-0.37010517
-0.57417865
-0.31716789
-0.55176009
-0.21629862
-0.52089137
-0.105225
-0.48314993
0.007744593
-0.44292566
0.11577098
-0.47098499
0.19391842
-0.5185039
0.25596321
-0.57864985
0.2994588
-0.65044939
0.32291773
-0.73341502
0.32585973
-0.82560397
0.30921651
-0.92432468
0.27593768
-1.0259
0.23131553
-1.1263476
0.18226018
-1.2229187
0.13547215
-1.3151984
0.095623346
-1.4047972
0.064592131
-1.4940922
0.041965418
-1.5853812
0.026165057
-1.6804796
0.015403831
-1.7804001
0.0081672441
-1.885814
0.0033379234
-1.9975024
0.00015234931
-2.1161859
-0.0018947599
-2.242383
-0.0031381759
-2.3766336
-0.0038042216
-2.5197518
-0.0040535023
-2.6729706
-0.0040017686
-2.8379392
-0.0037361281
-3.0155034
-0.0033177577
-3.2060412
-0.0027935272
-3.4111313
-0.0021883158
-3.6326765
-0.0015275157
-3.8741508
-0.00079723042
-4.1366584
-0.5265998
0.50010863
-0.50540488
0.63635445
-0.49351732
0.62544716
-0.49158494
0.44253619
-0.49842586
0.067114855
-0.50677445
-0.31467065
-0.50329949
-0.44585841
-0.49139418
-0.38201586
-0.4748363
-0.085827159
-0.46379687
0.38988284
-0.45386496
0.65287415
0.18890639
-0.54833133
-0.13687337
-0.5646297
-0.34596167
-0.57061114
-0.39142193
-0.56769194
-0.34290402
-0.55240085
-0.24324769
-0.52778686
-0.13283266
-0.49609598
-0.019670949
-0.45887441
0.093260557
-0.4233084
0.19639155
-0.47583905
0.26498857
-0.52999617
0.31525996
-0.5974239
0.34520135
-0.67592053
0.35393549
-0.76457499
0.34150225
-0.86092777