/*--------------------------------*- C++ -*----------------------------------*\
| =========                 |                                                 |
| \\      /  F ield         | OpenFOAM: The Open Source CFD Toolbox           |
|  \\    /   O peration     | Version:  v2012                                 |
|   \\  /    A nd           | Website:  www.openfoam.com                      |
|    \\/     M anipulation  |                                                 |
\*---------------------------------------------------------------------------*/
FoamFile
{
    version     2.0;
    format      ascii;
    class       pointVectorField;
    location    "117.16882180965662";
    object      pointDisplacement;
}
// * * * * * * * * * * * * * * * * * * * * * * * * * * * * * * * * * * * * * //

dimensions      [0 1 0 0 0 0 0];


internalField   nonuniform List<vector> 
18840
(
(1.2593042 0 0)
(1.2592893 0 0)
(1.2592449 0 0)
(1.2591713 0 0)
(1.2590685 0 0)
(1.2589359 0 0)
(1.2587728 0 0)
(1.2585778 0 0)
(1.2583497 0 0)
(1.2580863 0 0)
(1.2577857 0 0)
(1.2574453 0 0)
(1.2570625 0 0)
(1.2566343 0 0)
(1.2561576 0 0)
(1.2556289 0 0)
(1.2550444 0 0)
(1.2544003 0 0)
(1.2536919 0 0)
(1.2529144 0 0)
(1.2518787 0 0)
(1.2593042 0 0)
(1.2592888 0 0)
(1.2592429 0 0)
(1.259167 0 0)
(1.2590608 0 0)
(1.258924 0 0)
(1.2587557 0 0)
(1.2585547 0 0)
(1.2583197 0 0)
(1.2580486 0 0)
(1.2577394 0 0)
(1.2573897 0 0)
(1.2569968 0 0)
(1.2565579 0 0)
(1.2560697 0 0)
(1.255529 0 0)
(1.254932 0 0)
(1.2542749 0 0)
(1.2535534 0 0)
(1.2527626 0 0)
(1.2518738 0 0)
(1.2593042 0 0)
(1.2592882 0 0)
(1.2592408 0 0)
(1.2591621 0 0)
(1.2590521 0 0)
(1.2589105 0 0)
(1.2587363 0 0)
(1.2585284 0 0)
(1.2582854 0 0)
(1.2580052 0 0)
(1.2576859 0 0)
(1.2573249 0 0)
(1.2569196 0 0)
(1.2564671 0 0)
(1.2559643 0 0)
(1.2554077 0 0)
(1.2547939 0 0)
(1.2541189 0 0)
(1.2533786 0 0)
(1.2525689 0 0)
(1.2516469 0 0)
(1.2593042 0 0)
(1.2592877 0 0)
(1.2592384 0 0)
(1.2591568 0 0)
(1.2590428 0 0)
(1.2588959 0 0)
(1.2587153 0 0)
(1.2584998 0 0)
(1.2582479 0 0)
(1.2579576 0 0)
(1.2576269 0 0)
(1.2572531 0 0)
(1.2568336 0 0)
(1.2563654 0 0)
(1.2558453 0 0)
(1.2552699 0 0)
(1.2546355 0 0)
(1.2539382 0 0)
(1.253174 0 0)
(1.2523386 0 0)
(1.2513768 0 0)
(1.2593042 0 0)
(1.259287 0 0)
(1.2592359 0 0)
(1.2591511 0 0)
(1.2590327 0 0)
(1.2588801 0 0)
(1.2586925 0 0)
(1.2584687 0 0)
(1.2582071 0 0)
(1.2579057 0 0)
(1.2575622 0 0)
(1.2571742 0 0)
(1.2567387 0 0)
(1.2562527 0 0)
(1.2557128 0 0)
(1.2551156 0 0)
(1.2544571 0 0)
(1.2537334 0 0)
(1.2529403 0 0)
(1.2520734 0 0)
(1.2510665 0 0)
(1.2593042 0 0)
(1.2592863 0 0)
(1.2592331 0 0)
(1.259145 0 0)
(1.2590218 0 0)
(1.2588631 0 0)
(1.258668 0 0)
(1.2584352 0 0)
(1.258163 0 0)
(1.2578495 0 0)
(1.2574922 0 0)
(1.2570885 0 0)
(1.2566354 0 0)
(1.2561296 0 0)
(1.2555677 0 0)
(1.254946 0 0)
(1.2542604 0 0)
(1.2535067 0 0)
(1.2526805 0 0)
(1.2517771 0 0)
(1.2507214 0 0)
(1.2593042 0 0)
(1.2592856 0 0)
(1.2592302 0 0)
(1.2591383 0 0)
(1.25901 0 0)
(1.2588447 0 0)
(1.2586415 0 0)
(1.2583991 0 0)
(1.2581157 0 0)
(1.2577891 0 0)
(1.257417 0 0)
(1.2569963 0 0)
(1.2565242 0 0)
(1.255997 0 0)
(1.2554111 0 0)
(1.2547626 0 0)
(1.2540472 0 0)
(1.2532605 0 0)
(1.2523977 0 0)
(1.2514539 0 0)
(1.2503469 0 0)
(1.2593042 0 0)
(1.2592848 0 0)
(1.259227 0 0)
(1.2591312 0 0)
(1.2589974 0 0)
(1.258825 0 0)
(1.2586131 0 0)
(1.2583603 0 0)
(1.2580647 0 0)
(1.2577243 0 0)
(1.2573362 0 0)
(1.2568975 0 0)
(1.2564049 0 0)
(1.2558548 0 0)
(1.2552433 0 0)
(1.254566 0 0)
(1.2538187 0 0)
(1.2529964 0 0)
(1.2520942 0 0)
(1.2511066 0 0)
(1.2499465 0 0)
(1.2593042 0 0)
(1.2592839 0 0)
(1.2592235 0 0)
(1.2591235 0 0)
(1.2589837 0 0)
(1.2588037 0 0)
(1.2585824 0 0)
(1.2583185 0 0)
(1.2580099 0 0)
(1.2576545 0 0)
(1.2572494 0 0)
(1.2567914 0 0)
(1.2562771 0 0)
(1.2557026 0 0)
(1.2550637 0 0)
(1.2543559 0 0)
(1.2535746 0 0)
(1.2527145 0 0)
(1.2517703 0 0)
(1.2507365 0 0)
(1.2495222 0 0)
(1.2593042 0 0)
(1.259283 0 0)
(1.2592199 0 0)
(1.2591153 0 0)
(1.2589692 0 0)
(1.258781 0 0)
(1.2585497 0 0)
(1.2582738 0 0)
(1.2579513 0 0)
(1.2575798 0 0)
(1.2571564 0 0)
(1.2566779 0 0)
(1.2561404 0 0)
(1.2555399 0 0)
(1.254872 0 0)
(1.254132 0 0)
(1.2533147 0 0)
(1.2524148 0 0)
(1.2514267 0 0)
(1.2503442 0 0)
(1.2490757 0 0)
(1.2593042 0 0)
(1.259282 0 0)
(1.2592159 0 0)
(1.2591064 0 0)
(1.2589533 0 0)
(1.2587561 0 0)
(1.2585137 0 0)
(1.2582245 0 0)
(1.2578865 0 0)
(1.2574973 0 0)
(1.2570537 0 0)
(1.2565523 0 0)
(1.2559892 0 0)
(1.2553602 0 0)
(1.2546605 0 0)
(1.2538852 0 0)
(1.2530289 0 0)
(1.2520858 0 0)
(1.2510501 0 0)
(1.2499153 0 0)
(1.2485913 0 0)
(1.2593042 0 0)
(1.2592893 0 0)
(1.2592449 0 0)
(1.2591713 0 0)
(1.2590685 0 0)
(1.2589359 0 0)
(1.2587728 0 0)
(1.2585778 0 0)
(1.2583497 0 0)
(1.2580863 0 0)
(1.2577857 0 0)
(1.2574453 0 0)
(1.2570625 0 0)
(1.2566343 0 0)
(1.2561576 0 0)
(1.2556289 0 0)
(1.2550444 0 0)
(1.2544003 0 0)
(1.2536919 0 0)
(1.2529144 0 0)
(1.2518787 0 0)
(1.2593042 0 0)
(1.2592888 0 0)
(1.2592429 0 0)
(1.259167 0 0)
(1.2590608 0 0)
(1.258924 0 0)
(1.2587557 0 0)
(1.2585547 0 0)
(1.2583197 0 0)
(1.2580486 0 0)
(1.2577394 0 0)
(1.2573897 0 0)
(1.2569968 0 0)
(1.2565579 0 0)
(1.2560697 0 0)
(1.255529 0 0)
(1.254932 0 0)
(1.2542749 0 0)
(1.2535534 0 0)
(1.2527626 0 0)
(1.2518738 0 0)
(1.2593042 0 0)
(1.2592882 0 0)
(1.2592408 0 0)
(1.2591621 0 0)
(1.2590521 0 0)
(1.2589105 0 0)
(1.2587363 0 0)
(1.2585284 0 0)
(1.2582854 0 0)
(1.2580052 0 0)
(1.2576859 0 0)
(1.2573249 0 0)
(1.2569196 0 0)
(1.2564671 0 0)
(1.2559643 0 0)
(1.2554077 0 0)
(1.2547939 0 0)
(1.2541189 0 0)
(1.2533786 0 0)
(1.2525689 0 0)
(1.2516469 0 0)
(1.2593042 0 0)
(1.2592877 0 0)
(1.2592384 0 0)
(1.2591568 0 0)
(1.2590428 0 0)
(1.2588959 0 0)
(1.2587153 0 0)
(1.2584998 0 0)
(1.2582479 0 0)
(1.2579576 0 0)
(1.2576269 0 0)
(1.2572531 0 0)
(1.2568336 0 0)
(1.2563654 0 0)
(1.2558453 0 0)
(1.2552699 0 0)
(1.2546355 0 0)
(1.2539382 0 0)
(1.253174 0 0)
(1.2523386 0 0)
(1.2513768 0 0)
(1.2593042 0 0)
(1.259287 0 0)
(1.2592359 0 0)
(1.2591511 0 0)
(1.2590327 0 0)
(1.2588801 0 0)
(1.2586925 0 0)
(1.2584687 0 0)
(1.2582071 0 0)
(1.2579057 0 0)
(1.2575622 0 0)
(1.2571742 0 0)
(1.2567387 0 0)
(1.2562527 0 0)
(1.2557128 0 0)
(1.2551156 0 0)
(1.2544571 0 0)
(1.2537334 0 0)
(1.2529403 0 0)
(1.2520734 0 0)
(1.2510665 0 0)
(1.2593042 0 0)
(1.2592863 0 0)
(1.2592331 0 0)
(1.259145 0 0)
(1.2590218 0 0)
(1.2588631 0 0)
(1.258668 0 0)
(1.2584352 0 0)
(1.258163 0 0)
(1.2578495 0 0)
(1.2574922 0 0)
(1.2570885 0 0)
(1.2566354 0 0)
(1.2561296 0 0)
(1.2555677 0 0)
(1.254946 0 0)
(1.2542604 0 0)
(1.2535067 0 0)
(1.2526805 0 0)
(1.2517771 0 0)
(1.2507214 0 0)
(1.2593042 0 0)
(1.2592856 0 0)
(1.2592302 0 0)
(1.2591383 0 0)
(1.25901 0 0)
(1.2588447 0 0)
(1.2586415 0 0)
(1.2583991 0 0)
(1.2581157 0 0)
(1.2577891 0 0)
(1.257417 0 0)
(1.2569963 0 0)
(1.2565242 0 0)
(1.255997 0 0)
(1.2554111 0 0)
(1.2547626 0 0)
(1.2540472 0 0)
(1.2532605 0 0)
(1.2523977 0 0)
(1.2514539 0 0)
(1.2503469 0 0)
(1.2593042 0 0)
(1.2592848 0 0)
(1.259227 0 0)
(1.2591312 0 0)
(1.2589974 0 0)
(1.258825 0 0)
(1.2586131 0 0)
(1.2583603 0 0)
(1.2580647 0 0)
(1.2577243 0 0)
(1.2573362 0 0)
(1.2568975 0 0)
(1.2564049 0 0)
(1.2558548 0 0)
(1.2552433 0 0)
(1.254566 0 0)
(1.2538187 0 0)
(1.2529964 0 0)
(1.2520942 0 0)
(1.2511066 0 0)
(1.2499465 0 0)
(1.2593042 0 0)
(1.2592839 0 0)
(1.2592235 0 0)
(1.2591235 0 0)
(1.2589837 0 0)
(1.2588037 0 0)
(1.2585824 0 0)
(1.2583185 0 0)
(1.2580099 0 0)
(1.2576545 0 0)
(1.2572494 0 0)
(1.2567914 0 0)
(1.2562771 0 0)
(1.2557026 0 0)
(1.2550637 0 0)
(1.2543559 0 0)
(1.2535746 0 0)
(1.2527145 0 0)
(1.2517703 0 0)
(1.2507365 0 0)
(1.2495222 0 0)
(1.2593042 0 0)
(1.259283 0 0)
(1.2592199 0 0)
(1.2591153 0 0)
(1.2589692 0 0)
(1.258781 0 0)
(1.2585497 0 0)
(1.2582738 0 0)
(1.2579513 0 0)
(1.2575798 0 0)
(1.2571564 0 0)
(1.2566779 0 0)
(1.2561404 0 0)
(1.2555399 0 0)
(1.254872 0 0)
(1.254132 0 0)
(1.2533147 0 0)
(1.2524148 0 0)
(1.2514267 0 0)
(1.2503442 0 0)
(1.2490757 0 0)
(1.2593042 0 0)
(1.259282 0 0)
(1.2592159 0 0)
(1.2591064 0 0)
(1.2589533 0 0)
(1.2587561 0 0)
(1.2585137 0 0)
(1.2582245 0 0)
(1.2578865 0 0)
(1.2574973 0 0)
(1.2570537 0 0)
(1.2565523 0 0)
(1.2559892 0 0)
(1.2553602 0 0)
(1.2546605 0 0)
(1.2538852 0 0)
(1.2530289 0 0)
(1.2520858 0 0)
(1.2510501 0 0)
(1.2499153 0 0)
(1.2485913 0 0)
(1.2593042 0 0)
(1.2592933 0 0)
(1.2592607 0 0)
(1.2592064 0 0)
(1.2591299 0 0)
(1.2590304 0 0)
(1.2589062 0 0)
(1.2587555 0 0)
(1.2585759 0 0)
(1.2583645 0 0)
(1.2581179 0 0)
(1.2578324 0 0)
(1.2575038 0 0)
(1.2571274 0 0)
(1.2566983 0 0)
(1.2562111 0 0)
(1.25566 0 0)
(1.255039 0 0)
(1.2543415 0 0)
(1.2535609 0 0)
(1.2526134 0 0)
(1.2593042 0 0)
(1.2592928 0 0)
(1.2592587 0 0)
(1.2592021 0 0)
(1.2591223 0 0)
(1.2590186 0 0)
(1.2588894 0 0)
(1.2587329 0 0)
(1.2585466 0 0)
(1.2583279 0 0)
(1.2580733 0 0)
(1.2577794 0 0)
(1.2574418 0 0)
(1.2570562 0 0)
(1.2566176 0 0)
(1.2561208 0 0)
(1.2555602 0 0)
(1.2549299 0 0)
(1.2542235 0 0)
(1.2534343 0 0)
(1.2524812 0 0)
(1.2593042 0 0)
(1.2592923 0 0)
(1.2592568 0 0)
(1.2591978 0 0)
(1.2591149 0 0)
(1.2590072 0 0)
(1.2588732 0 0)
(1.2587112 0 0)
(1.2585188 0 0)
(1.2582933 0 0)
(1.2580316 0 0)
(1.25773 0 0)
(1.2573846 0 0)
(1.256991 0 0)
(1.2565445 0 0)
(1.2560399 0 0)
(1.2554719 0 0)
(1.2548347 0 0)
(1.2541221 0 0)
(1.2533276 0 0)
(1.2523738 0 0)
(1.2593042 0 0)
(1.2592919 0 0)
(1.2592551 0 0)
(1.2591939 0 0)
(1.259108 0 0)
(1.2589966 0 0)
(1.2588584 0 0)
(1.2586914 0 0)
(1.2584936 0 0)
(1.2582623 0 0)
(1.2579945 0 0)
(1.2576866 0 0)
(1.2573349 0 0)
(1.2569352 0 0)
(1.2564829 0 0)
(1.2559731 0 0)
(1.2554006 0 0)
(1.2547598 0 0)
(1.2540447 0 0)
(1.2532492 0 0)
(1.2523005 0 0)
(1.2593042 0 0)
(1.2592914 0 0)
(1.2592534 0 0)
(1.2591903 0 0)
(1.2591017 0 0)
(1.2589869 0 0)
(1.2588447 0 0)
(1.2586733 0 0)
(1.2584707 0 0)
(1.2582343 0 0)
(1.2579612 0 0)
(1.2576481 0 0)
(1.2572914 0 0)
(1.256887 0 0)
(1.2564306 0 0)
(1.2559174 0 0)
(1.2553427 0 0)
(1.2547009 0 0)
(1.2539864 0 0)
(1.2531932 0 0)
(1.2522549 0 0)
(1.2593042 0 0)
(1.259291 0 0)
(1.2592519 0 0)
(1.2591869 0 0)
(1.2590958 0 0)
(1.2589779 0 0)
(1.258832 0 0)
(1.2586566 0 0)
(1.2584496 0 0)
(1.2582087 0 0)
(1.257931 0 0)
(1.2576135 0 0)
(1.2572526 0 0)
(1.2568446 0 0)
(1.2563854 0 0)
(1.2558704 0 0)
(1.255295 0 0)
(1.2546541 0 0)
(1.2539424 0 0)
(1.2531541 0 0)
(1.2522303 0 0)
(1.2593042 0 0)
(1.2592907 0 0)
(1.2592504 0 0)
(1.2591837 0 0)
(1.2590903 0 0)
(1.2589695 0 0)
(1.2588202 0 0)
(1.258641 0 0)
(1.25843 0 0)
(1.258185 0 0)
(1.2579032 0 0)
(1.2575817 0 0)
(1.2572173 0 0)
(1.2568064 0 0)
(1.2563451 0 0)
(1.2558291 0 0)
(1.2552541 0 0)
(1.2546153 0 0)
(1.2539075 0 0)
(1.2531255 0 0)
(1.2522193 0 0)
(1.2593042 0 0)
(1.2592903 0 0)
(1.2592491 0 0)
(1.2591807 0 0)
(1.259085 0 0)
(1.2589614 0 0)
(1.2588089 0 0)
(1.2586261 0 0)
(1.2584112 0 0)
(1.258162 0 0)
(1.2578763 0 0)
(1.257551 0 0)
(1.2571832 0 0)
(1.2567695 0 0)
(1.2563061 0 0)
(1.2557892 0 0)
(1.2552145 0 0)
(1.2545776 0 0)
(1.2538736 0 0)
(1.2530977 0 0)
(1.252211 0 0)
(1.2593042 0 0)
(1.25929 0 0)
(1.2592478 0 0)
(1.2591777 0 0)
(1.2590798 0 0)
(1.2589534 0 0)
(1.2587976 0 0)
(1.2586111 0 0)
(1.2583922 0 0)
(1.258139 0 0)
(1.257849 0 0)
(1.2575197 0 0)
(1.2571481 0 0)
(1.256731 0 0)
(1.256265 0 0)
(1.2557463 0 0)
(1.255171 0 0)
(1.2545347 0 0)
(1.2538331 0 0)
(1.2530613 0 0)
(1.2521939 0 0)
(1.2593042 0 0)
(1.2592897 0 0)
(1.2592464 0 0)
(1.2591748 0 0)
(1.2590746 0 0)
(1.2589453 0 0)
(1.2587862 0 0)
(1.258596 0 0)
(1.258373 0 0)
(1.2581153 0 0)
(1.2578208 0 0)
(1.2574869 0 0)
(1.2571108 0 0)
(1.2566896 0 0)
(1.2562198 0 0)
(1.2556979 0 0)
(1.2551201 0 0)
(1.2544824 0 0)
(1.2537802 0 0)
(1.253009 0 0)
(1.2521589 0 0)
(1.2593042 0 0)
(1.2592933 0 0)
(1.2592607 0 0)
(1.2592064 0 0)
(1.2591299 0 0)
(1.2590304 0 0)
(1.2589062 0 0)
(1.2587555 0 0)
(1.2585759 0 0)
(1.2583645 0 0)
(1.2581179 0 0)
(1.2578324 0 0)
(1.2575038 0 0)
(1.2571274 0 0)
(1.2566983 0 0)
(1.2562111 0 0)
(1.25566 0 0)
(1.255039 0 0)
(1.2543415 0 0)
(1.2535609 0 0)
(1.2526134 0 0)
(1.2593042 0 0)
(1.2592928 0 0)
(1.2592587 0 0)
(1.2592021 0 0)
(1.2591223 0 0)
(1.2590186 0 0)
(1.2588894 0 0)
(1.2587329 0 0)
(1.2585466 0 0)
(1.2583279 0 0)
(1.2580733 0 0)
(1.2577794 0 0)
(1.2574418 0 0)
(1.2570562 0 0)
(1.2566176 0 0)
(1.2561208 0 0)
(1.2555602 0 0)
(1.2549299 0 0)
(1.2542235 0 0)
(1.2534343 0 0)
(1.2524812 0 0)
(1.2593042 0 0)
(1.2592923 0 0)
(1.2592568 0 0)
(1.2591978 0 0)
(1.2591149 0 0)
(1.2590072 0 0)
(1.2588732 0 0)
(1.2587112 0 0)
(1.2585188 0 0)
(1.2582933 0 0)
(1.2580316 0 0)
(1.25773 0 0)
(1.2573846 0 0)
(1.256991 0 0)
(1.2565445 0 0)
(1.2560399 0 0)
(1.2554719 0 0)
(1.2548347 0 0)
(1.2541221 0 0)
(1.2533276 0 0)
(1.2523738 0 0)
(1.2593042 0 0)
(1.2592919 0 0)
(1.2592551 0 0)
(1.2591939 0 0)
(1.259108 0 0)
(1.2589966 0 0)
(1.2588584 0 0)
(1.2586914 0 0)
(1.2584936 0 0)
(1.2582623 0 0)
(1.2579945 0 0)
(1.2576866 0 0)
(1.2573349 0 0)
(1.2569352 0 0)
(1.2564829 0 0)
(1.2559731 0 0)
(1.2554006 0 0)
(1.2547598 0 0)
(1.2540447 0 0)
(1.2532492 0 0)
(1.2523005 0 0)
(1.2593042 0 0)
(1.2592914 0 0)
(1.2592534 0 0)
(1.2591903 0 0)
(1.2591017 0 0)
(1.2589869 0 0)
(1.2588447 0 0)
(1.2586733 0 0)
(1.2584707 0 0)
(1.2582343 0 0)
(1.2579612 0 0)
(1.2576481 0 0)
(1.2572914 0 0)
(1.256887 0 0)
(1.2564306 0 0)
(1.2559174 0 0)
(1.2553427 0 0)
(1.2547009 0 0)
(1.2539864 0 0)
(1.2531932 0 0)
(1.2522549 0 0)
(1.2593042 0 0)
(1.259291 0 0)
(1.2592519 0 0)
(1.2591869 0 0)
(1.2590958 0 0)
(1.2589779 0 0)
(1.258832 0 0)
(1.2586566 0 0)
(1.2584496 0 0)
(1.2582087 0 0)
(1.257931 0 0)
(1.2576135 0 0)
(1.2572526 0 0)
(1.2568446 0 0)
(1.2563854 0 0)
(1.2558704 0 0)
(1.255295 0 0)
(1.2546541 0 0)
(1.2539424 0 0)
(1.2531541 0 0)
(1.2522303 0 0)
(1.2593042 0 0)
(1.2592907 0 0)
(1.2592504 0 0)
(1.2591837 0 0)
(1.2590903 0 0)
(1.2589695 0 0)
(1.2588202 0 0)
(1.258641 0 0)
(1.25843 0 0)
(1.258185 0 0)
(1.2579032 0 0)
(1.2575817 0 0)
(1.2572173 0 0)
(1.2568064 0 0)
(1.2563451 0 0)
(1.2558291 0 0)
(1.2552541 0 0)
(1.2546153 0 0)
(1.2539075 0 0)
(1.2531255 0 0)
(1.2522193 0 0)
(1.2593042 0 0)
(1.2592903 0 0)
(1.2592491 0 0)
(1.2591807 0 0)
(1.259085 0 0)
(1.2589614 0 0)
(1.2588089 0 0)
(1.2586261 0 0)
(1.2584112 0 0)
(1.258162 0 0)
(1.2578763 0 0)
(1.257551 0 0)
(1.2571832 0 0)
(1.2567695 0 0)
(1.2563061 0 0)
(1.2557892 0 0)
(1.2552145 0 0)
(1.2545776 0 0)
(1.2538736 0 0)
(1.2530977 0 0)
(1.252211 0 0)
(1.2593042 0 0)
(1.25929 0 0)
(1.2592478 0 0)
(1.2591777 0 0)
(1.2590798 0 0)
(1.2589534 0 0)
(1.2587976 0 0)
(1.2586111 0 0)
(1.2583922 0 0)
(1.258139 0 0)
(1.257849 0 0)
(1.2575197 0 0)
(1.2571481 0 0)
(1.256731 0 0)
(1.256265 0 0)
(1.2557463 0 0)
(1.255171 0 0)
(1.2545347 0 0)
(1.2538331 0 0)
(1.2530613 0 0)
(1.2521939 0 0)
(1.2593042 0 0)
(1.2592897 0 0)
(1.2592464 0 0)
(1.2591748 0 0)
(1.2590746 0 0)
(1.2589453 0 0)
(1.2587862 0 0)
(1.258596 0 0)
(1.258373 0 0)
(1.2581153 0 0)
(1.2578208 0 0)
(1.2574869 0 0)
(1.2571108 0 0)
(1.2566896 0 0)
(1.2562198 0 0)
(1.2556979 0 0)
(1.2551201 0 0)
(1.2544824 0 0)
(1.2537802 0 0)
(1.253009 0 0)
(1.2521589 0 0)
(1.2513807 0 0)
(1.2499119 0 0)
(1.2482702 0 0)
(1.2464383 0 0)
(1.2443974 0 0)
(1.2421263 0 0)
(1.2396 0 0)
(1.2367862 0 0)
(1.2336461 0 0)
(1.2301394 0 0)
(1.2262253 0 0)
(1.2218609 0 0)
(1.2170024 0 0)
(1.2116039 0 0)
(1.2056159 0 0)
(1.1989882 0 0)
(1.191675 0 0)
(1.1836283 0 0)
(1.1747938 0 0)
(1.1651145 0 0)
(1.1545387 0 0)
(1.1430102 0 0)
(1.1304609 0 0)
(1.1168208 0 0)
(1.1020269 0 0)
(1.0860185 0 0)
(1.0687 0 0)
(1.0499624 0 0)
(1.0297135 0 0)
(1.0078784 0 0)
(0.98435998 0 0)
(0.95902053 0 0)
(0.93173566 0 0)
(0.90240901 0 0)
(0.87090243 0 0)
(0.83700884 0 0)
(0.80056543 0 0)
(0.76146288 0 0)
(0.71951855 0 0)
(0.6744439 0 0)
(0.62604117 0 0)
(0.5741738 0 0)
(0.51859515 0 0)
(0.45902191 0 0)
(0.39516727 0 0)
(0.32674525 0 0)
(0.25342459 0 0)
(0.1747712 0 0)
(0.090327589 0 0)
(0 0 0)
(1.251249 0 0)
(1.2497846 0 0)
(1.2481487 0 0)
(1.2463242 0 0)
(1.2442922 0 0)
(1.2420316 0 0)
(1.2395175 0 0)
(1.2367172 0 0)
(1.2335919 0 0)
(1.2301006 0 0)
(1.2262017 0 0)
(1.2218527 0 0)
(1.2170101 0 0)
(1.2116277 0 0)
(1.2056558 0 0)
(1.1990438 0 0)
(1.1917456 0 0)
(1.183714 0 0)
(1.1748941 0 0)
(1.165228 0 0)
(1.1546642 0 0)
(1.143147 0 0)
(1.1306086 0 0)
(1.1169784 0 0)
(1.1021947 0 0)
(1.0861948 0 0)
(1.0688834 0 0)
(1.0501524 0 0)
(1.0299093 0 0)
(1.0080789 0 0)
(0.98456417 0 0)
(0.95922789 0 0)
(0.93194491 0 0)
(0.90261868 0 0)
(0.87111152 0 0)
(0.83721578 0 0)
(0.80076743 0 0)
(0.76165743 0 0)
(0.71970415 0 0)
(0.67461797 0 0)
(0.62620089 0 0)
(0.57431844 0 0)
(0.51872471 0 0)
(0.45913677 0 0)
(0.39526606 0 0)
(0.32682594 0 0)
(0.2534851 0 0)
(0.17481062 0 0)
(0.090346691 0 0)
(0 0 0)
(1.2511497 0 0)
(1.2496986 0 0)
(1.2480775 0 0)
(1.2462694 0 0)
(1.2442555 0 0)
(1.2420149 0 0)
(1.2395225 0 0)
(1.2367458 0 0)
(1.2336454 0 0)
(1.2301798 0 0)
(1.2263072 0 0)
(1.2219851 0 0)
(1.2171702 0 0)
(1.2118161 0 0)
(1.2058728 0 0)
(1.1992894 0 0)
(1.1920196 0 0)
(1.1840158 0 0)
(1.1752231 0 0)
(1.1655836 0 0)
(1.1550445 0 0)
(1.1435506 0 0)
(1.1310344 0 0)
(1.1174259 0 0)
(1.1026631 0 0)
(1.0866816 0 0)
(1.0693871 0 0)
(1.0506715 0 0)
(1.0304413 0 0)
(1.0086214 0 0)
(0.98511603 0 0)
(0.95978691 0 0)
(0.93250787 0 0)
(0.90318282 0 0)
(0.87167489 0 0)
(0.83777462 0 0)
(0.80131613 0 0)
(0.76219136 0 0)
(0.72021986 0 0)
(0.67511057 0 0)
(0.6266649 0 0)
(0.57475046 0 0)
(0.5191214 0 0)
(0.45949393 0 0)
(0.39557795 0 0)
(0.3270868 0 0)
(0.25368842 0 0)
(0.17495005 0 0)
(0.090417793 0 0)
(0 0 0)
(1.2510928 0 0)
(1.2496648 0 0)
(1.2480684 0 0)
(1.2462866 0 0)
(1.2443009 0 0)
(1.2420907 0 0)
(1.2396311 0 0)
(1.2368894 0 0)
(1.2338256 0 0)
(1.2303977 0 0)
(1.2265638 0 0)
(1.2222815 0 0)
(1.2175076 0 0)
(1.2121954 0 0)
(1.2062945 0 0)
(1.1997537 0 0)
(1.1925264 0 0)
(1.1845647 0 0)
(1.1758132 0 0)
(1.1662136 0 0)
(1.1557128 0 0)
(1.1442553 0 0)
(1.1317737 0 0)
(1.1181983 0 0)
(1.1034676 0 0)
(1.0875149 0 0)
(1.0702466 0 0)
(1.0515547 0 0)
(1.0313447 0 0)
(1.0095415 0 0)
(0.98604984 0 0)
(0.96073086 0 0)
(0.93345748 0 0)
(0.90413387 0 0)
(0.87262339 0 0)
(0.83871458 0 0)
(0.80223987 0 0)
(0.76309198 0 0)
(0.72109095 0 0)
(0.67594477 0 0)
(0.62745482 0 0)
(0.57548973 0 0)
(0.51980259 0 0)
(0.46010829 0 0)
(0.39611566 0 0)
(0.3275382 0 0)
(0.25404233 0 0)
(0.17519451 0 0)
(0.09054338 0 0)
(0 0 0)
(1.2510716 0 0)
(1.249676 0 0)
(1.2481139 0 0)
(1.2463681 0 0)
(1.2444208 0 0)
(1.2422517 0 0)
(1.2398363 0 0)
(1.2371408 0 0)
(1.234125 0 0)
(1.2307468 0 0)
(1.2269642 0 0)
(1.2227345 0 0)
(1.2180146 0 0)
(1.2127577 0 0)
(1.2069128 0 0)
(1.2004288 0 0)
(1.1932581 0 0)
(1.1853522 0 0)
(1.1766556 0 0)
(1.1671098 0 0)
(1.1566606 0 0)
(1.1452523 0 0)
(1.1328176 0 0)
(1.119287 0 0)
(1.104599 0 0)
(1.0886856 0 0)
(1.0714533 0 0)
(1.0527932 0 0)
(1.0326103 0 0)
(1.0108299 0 0)
(0.98735707 0 0)
(0.96205139 0 0)
(0.93478486 0 0)
(0.90546292 0 0)
(0.87394874 0 0)
(0.8400277 0 0)
(0.80353058 0 0)
(0.76435144 0 0)
(0.72231058 0 0)
(0.67711433 0 0)
(0.6285642 0 0)
(0.57652999 0 0)
(0.52076285 0 0)
(0.46097502 0 0)
(0.39687478 0 0)
(0.3281764 0 0)
(0.25454399 0 0)
(0.1755422 0 0)
(0.090722571 0 0)
(0 0 0)
(1.2510789 0 0)
(1.2497247 0 0)
(1.2482059 0 0)
(1.2465054 0 0)
(1.2446063 0 0)
(1.2424889 0 0)
(1.240128 0 0)
(1.2374895 0 0)
(1.2345329 0 0)
(1.231216 0 0)
(1.2274966 0 0)
(1.2233323 0 0)
(1.2186795 0 0)
(1.2134911 0 0)
(1.2077159 0 0)
(1.2013024 0 0)
(1.1942023 0 0)
(1.1863664 0 0)
(1.1777384 0 0)
(1.1682596 0 0)
(1.1578756 0 0)
(1.1465296 0 0)
(1.1341539 0 0)
(1.1206796 0 0)
(1.1060453 0 0)
(1.0901816 0 0)
(1.0729945 0 0)
(1.0543745 0 0)
(1.0342261 0 0)
(1.0124748 0 0)
(0.98902547 0 0)
(0.96373618 0 0)
(0.93647848 0 0)
(0.90715865 0 0)
(0.87563937 0 0)
(0.8417026 0 0)
(0.80517763 0 0)
(0.76595976 0 0)
(0.7238688 0 0)
(0.67860958 0 0)
(0.62998437 0 0)
(0.57786334 0 0)
(0.52199454 0 0)
(0.4620872 0 0)
(0.39784944 0 0)
(0.32899659 0 0)
(0.25518942 0 0)
(0.17599025 0 0)
(0.090953897 0 0)
(0 0 0)
(1.2511064 0 0)
(1.249802 0 0)
(1.248335 0 0)
(1.2466888 0 0)
(1.2448468 0 0)
(1.2427902 0 0)
(1.2404935 0 0)
(1.2379219 0 0)
(1.2350344 0 0)
(1.2317899 0 0)
(1.2281461 0 0)
(1.2240597 0 0)
(1.2194866 0 0)
(1.2143798 0 0)
(1.2086878 0 0)
(1.2023586 0 0)
(1.195343 0 0)
(1.1875909 0 0)
(1.1790454 0 0)
(1.1696473 0 0)
(1.1593415 0 0)
(1.1480707 0 0)
(1.1357666 0 0)
(1.1223601 0 0)
(1.10779 0 0)
(1.0919865 0 0)
(1.0748544 0 0)
(1.0562827 0 0)
(1.0361759 0 0)
(1.0144602 0 0)
(0.99103971 0 0)
(0.96577005 0 0)
(0.9385227 0 0)
(0.90920571 0 0)
(0.87768065 0 0)
(0.84372504 0 0)
(0.80716682 0 0)
(0.76790316 0 0)
(0.72575298 0 0)
(0.68041871 0 0)
(0.63170386 0 0)
(0.57947879 0 0)
(0.52348785 0 0)
(0.46343607 0 0)
(0.39903177 0 0)
(0.32999202 0 0)
(0.25597355 0 0)
(0.17653525 0 0)
(0.091235497 0 0)
(0 0 0)
(1.2511426 0 0)
(1.2498964 0 0)
(1.2484894 0 0)
(1.2469056 0 0)
(1.2451291 0 0)
(1.2431415 0 0)
(1.2409174 0 0)
(1.238421 0 0)
(1.2356124 0 0)
(1.2324511 0 0)
(1.2288946 0 0)
(1.2248983 0 0)
(1.2204172 0 0)
(1.2154046 0 0)
(1.2098091 0 0)
(1.2035776 0 0)
(1.1966605 0 0)
(1.1890065 0 0)
(1.1805571 0 0)
(1.1712529 0 0)
(1.1610389 0 0)
(1.1498566 0 0)
(1.1376362 0 0)
(1.1243085 0 0)
(1.1098137 0 0)
(1.0940808 0 0)
(1.0770131 0 0)
(1.0584982 0 0)
(1.0384404 0 0)
(1.0167668 0 0)
(0.99338033 0 0)
(0.96813397 0 0)
(0.94089917 0 0)
(0.91158582 0 0)
(0.88005433 0 0)
(0.84607727 0 0)
(0.80948127 0 0)
(0.77016533 0 0)
(0.72794704 0 0)
(0.68252653 0 0)
(0.63370859 0 0)
(0.58136339 0 0)
(0.52523069 0 0)
(0.46501066 0 0)
(0.40041231 0 0)
(0.33115487 0 0)
(0.25689007 0 0)
(0.17717267 0 0)
(0.091565021 0 0)
(0 0 0)
(1.251175 0 0)
(1.2499946 0 0)
(1.2486555 0 0)
(1.2471418 0 0)
(1.2454382 0 0)
(1.2435269 0 0)
(1.2413829 0 0)
(1.2389705 0 0)
(1.2362499 0 0)
(1.2331808 0 0)
(1.2297212 0 0)
(1.2258261 0 0)
(1.2214494 0 0)
(1.2165441 0 0)
(1.2110582 0 0)
(1.2049381 0 0)
(1.1981332 0 0)
(1.190591 0 0)
(1.1822509 0 0)
(1.1730539 0 0)
(1.1629451 0 0)
(1.1518644 0 0)
(1.1397399 0 0)
(1.1265025 0 0)
(1.1120934 0 0)
(1.0964415 0 0)
(1.0794481 0 0)
(1.0609985 0 0)
(1.0409969 0 0)
(1.019372 0 0)
(0.99602541 0 0)
(0.97080629 0 0)
(0.94358597 0 0)
(0.91427733 0 0)
(0.88273946 0 0)
(0.84873893 0 0)
(0.81210087 0 0)
(0.77272678 0 0)
(0.73043276 0 0)
(0.68491594 0 0)
(0.63598213 0 0)
(0.58350145 0 0)
(0.52720878 0 0)
(0.46679825 0 0)
(0.40197988 0 0)
(0.33247557 0 0)
(0.25793154 0 0)
(0.17789756 0 0)
(0.091939916 0 0)
(0 0 0)
(1.2511939 0 0)
(1.2500879 0 0)
(1.2488247 0 0)
(1.2473885 0 0)
(1.2457651 0 0)
(1.2439363 0 0)
(1.2418775 0 0)
(1.2395554 0 0)
(1.2369306 0 0)
(1.2339624 0 0)
(1.2306093 0 0)
(1.2268264 0 0)
(1.2225671 0 0)
(1.2177824 0 0)
(1.2124194 0 0)
(1.2064236 0 0)
(1.1997434 0 0)
(1.1923258 0 0)
(1.1841094 0 0)
(1.1750338 0 0)
(1.1650442 0 0)
(1.1540786 0 0)
(1.1420619 0 0)
(1.1289255 0 0)
(1.114613 0 0)
(1.0990523 0 0)
(1.0821428 0 0)
(1.0637673 0 0)
(1.0438295 0 0)
(1.0222597 0 0)
(0.99895867 0 0)
(0.97377093 0 0)
(0.94656753 0 0)
(0.91726449 0 0)
(0.88571989 0 0)
(0.85169406 0 0)
(0.81501027 0 0)
(0.77557257 0 0)
(0.73319525 0 0)
(0.68757255 0 0)
(0.63851099 0 0)
(0.58588015 0 0)
(0.52940986 0 0)
(0.46878757 0 0)
(0.40372462 0 0)
(0.33394581 0 0)
(0.25909117 0 0)
(0.178705 0 0)
(0.092357612 0 0)
(0 0 0)
(1.2509463 0 0)
(1.249901 0 0)
(1.2486987 0 0)
(1.2473252 0 0)
(1.2457658 0 0)
(1.2440016 0 0)
(1.2420086 0 0)
(1.2397565 0 0)
(1.2372069 0 0)
(1.2343187 0 0)
(1.2310511 0 0)
(1.2273597 0 0)
(1.2231971 0 0)
(1.218513 0 0)
(1.2132539 0 0)
(1.2073647 0 0)
(1.2007934 0 0)
(1.1934873 0 0)
(1.1853841 0 0)
(1.1764211 0 0)
(1.166542 0 0)
(1.1556849 0 0)
(1.1437739 0 0)
(1.1307399 0 0)
(1.116526 0 0)
(1.1010607 0 0)
(1.0842423 0 0)
(1.065951 0 0)
(1.0460891 0 0)
(1.0245883 0 0)
(1.0013492 0 0)
(0.9762125 0 0)
(0.94904724 0 0)
(0.919772 0 0)
(0.88824481 0 0)
(0.85422165 0 0)
(0.81752139 0 0)
(0.77804989 0 0)
(0.73562058 0 0)
(0.6899265 0 0)
(0.64077147 0 0)
(0.58802487 0 0)
(0.53141183 0 0)
(0.4706126 0 0)
(0.40533878 0 0)
(0.33531854 0 0)
(0.26018541 0 0)
(0.17947741 0 0)
(0.092768114 0 0)
(0 0 0)
(1.2513807 0 0)
(1.2499119 0 0)
(1.2482702 0 0)
(1.2464383 0 0)
(1.2443974 0 0)
(1.2421263 0 0)
(1.2396 0 0)
(1.2367862 0 0)
(1.2336461 0 0)
(1.2301394 0 0)
(1.2262253 0 0)
(1.2218609 0 0)
(1.2170024 0 0)
(1.2116039 0 0)
(1.2056159 0 0)
(1.1989882 0 0)
(1.191675 0 0)
(1.1836283 0 0)
(1.1747938 0 0)
(1.1651145 0 0)
(1.1545387 0 0)
(1.1430102 0 0)
(1.1304609 0 0)
(1.1168208 0 0)
(1.1020269 0 0)
(1.0860185 0 0)
(1.0687 0 0)
(1.0499624 0 0)
(1.0297135 0 0)
(1.0078784 0 0)
(0.98435998 0 0)
(0.95902053 0 0)
(0.93173566 0 0)
(0.90240901 0 0)
(0.87090243 0 0)
(0.83700884 0 0)
(0.80056543 0 0)
(0.76146288 0 0)
(0.71951855 0 0)
(0.6744439 0 0)
(0.62604117 0 0)
(0.5741738 0 0)
(0.51859515 0 0)
(0.45902191 0 0)
(0.39516727 0 0)
(0.32674525 0 0)
(0.25342459 0 0)
(0.1747712 0 0)
(0.090327589 0 0)
(0 0 0)
(1.251249 0 0)
(1.2497846 0 0)
(1.2481487 0 0)
(1.2463242 0 0)
(1.2442922 0 0)
(1.2420316 0 0)
(1.2395175 0 0)
(1.2367172 0 0)
(1.2335919 0 0)
(1.2301006 0 0)
(1.2262017 0 0)
(1.2218527 0 0)
(1.2170101 0 0)
(1.2116277 0 0)
(1.2056558 0 0)
(1.1990438 0 0)
(1.1917456 0 0)
(1.183714 0 0)
(1.1748941 0 0)
(1.165228 0 0)
(1.1546642 0 0)
(1.143147 0 0)
(1.1306086 0 0)
(1.1169784 0 0)
(1.1021947 0 0)
(1.0861948 0 0)
(1.0688834 0 0)
(1.0501524 0 0)
(1.0299093 0 0)
(1.0080789 0 0)
(0.98456417 0 0)
(0.95922789 0 0)
(0.93194491 0 0)
(0.90261868 0 0)
(0.87111152 0 0)
(0.83721578 0 0)
(0.80076743 0 0)
(0.76165743 0 0)
(0.71970415 0 0)
(0.67461797 0 0)
(0.62620089 0 0)
(0.57431844 0 0)
(0.51872471 0 0)
(0.45913677 0 0)
(0.39526606 0 0)
(0.32682594 0 0)
(0.2534851 0 0)
(0.17481062 0 0)
(0.090346691 0 0)
(0 0 0)
(1.2511497 0 0)
(1.2496986 0 0)
(1.2480775 0 0)
(1.2462694 0 0)
(1.2442555 0 0)
(1.2420149 0 0)
(1.2395225 0 0)
(1.2367458 0 0)
(1.2336454 0 0)
(1.2301798 0 0)
(1.2263072 0 0)
(1.2219851 0 0)
(1.2171702 0 0)
(1.2118161 0 0)
(1.2058728 0 0)
(1.1992894 0 0)
(1.1920196 0 0)
(1.1840158 0 0)
(1.1752231 0 0)
(1.1655836 0 0)
(1.1550445 0 0)
(1.1435506 0 0)
(1.1310344 0 0)
(1.1174259 0 0)
(1.1026631 0 0)
(1.0866816 0 0)
(1.0693871 0 0)
(1.0506715 0 0)
(1.0304413 0 0)
(1.0086214 0 0)
(0.98511603 0 0)
(0.95978691 0 0)
(0.93250787 0 0)
(0.90318282 0 0)
(0.87167489 0 0)
(0.83777462 0 0)
(0.80131613 0 0)
(0.76219136 0 0)
(0.72021986 0 0)
(0.67511057 0 0)
(0.6266649 0 0)
(0.57475046 0 0)
(0.5191214 0 0)
(0.45949393 0 0)
(0.39557795 0 0)
(0.3270868 0 0)
(0.25368842 0 0)
(0.17495005 0 0)
(0.090417793 0 0)
(0 0 0)
(1.2510928 0 0)
(1.2496648 0 0)
(1.2480684 0 0)
(1.2462866 0 0)
(1.2443009 0 0)
(1.2420907 0 0)
(1.2396311 0 0)
(1.2368894 0 0)
(1.2338256 0 0)
(1.2303977 0 0)
(1.2265638 0 0)
(1.2222815 0 0)
(1.2175076 0 0)
(1.2121954 0 0)
(1.2062945 0 0)
(1.1997537 0 0)
(1.1925264 0 0)
(1.1845647 0 0)
(1.1758132 0 0)
(1.1662136 0 0)
(1.1557128 0 0)
(1.1442553 0 0)
(1.1317737 0 0)
(1.1181983 0 0)
(1.1034676 0 0)
(1.0875149 0 0)
(1.0702466 0 0)
(1.0515547 0 0)
(1.0313447 0 0)
(1.0095415 0 0)
(0.98604984 0 0)
(0.96073086 0 0)
(0.93345748 0 0)
(0.90413387 0 0)
(0.87262339 0 0)
(0.83871458 0 0)
(0.80223987 0 0)
(0.76309198 0 0)
(0.72109095 0 0)
(0.67594477 0 0)
(0.62745482 0 0)
(0.57548973 0 0)
(0.51980259 0 0)
(0.46010829 0 0)
(0.39611566 0 0)
(0.3275382 0 0)
(0.25404233 0 0)
(0.17519451 0 0)
(0.09054338 0 0)
(0 0 0)
(1.2510716 0 0)
(1.249676 0 0)
(1.2481139 0 0)
(1.2463681 0 0)
(1.2444208 0 0)
(1.2422517 0 0)
(1.2398363 0 0)
(1.2371408 0 0)
(1.234125 0 0)
(1.2307468 0 0)
(1.2269642 0 0)
(1.2227345 0 0)
(1.2180146 0 0)
(1.2127577 0 0)
(1.2069128 0 0)
(1.2004288 0 0)
(1.1932581 0 0)
(1.1853522 0 0)
(1.1766556 0 0)
(1.1671098 0 0)
(1.1566606 0 0)
(1.1452523 0 0)
(1.1328176 0 0)
(1.119287 0 0)
(1.104599 0 0)
(1.0886856 0 0)
(1.0714533 0 0)
(1.0527932 0 0)
(1.0326103 0 0)
(1.0108299 0 0)
(0.98735707 0 0)
(0.96205139 0 0)
(0.93478486 0 0)
(0.90546292 0 0)
(0.87394874 0 0)
(0.8400277 0 0)
(0.80353058 0 0)
(0.76435144 0 0)
(0.72231058 0 0)
(0.67711433 0 0)
(0.6285642 0 0)
(0.57652999 0 0)
(0.52076285 0 0)
(0.46097502 0 0)
(0.39687478 0 0)
(0.3281764 0 0)
(0.25454399 0 0)
(0.1755422 0 0)
(0.090722571 0 0)
(0 0 0)
(1.2510789 0 0)
(1.2497247 0 0)
(1.2482059 0 0)
(1.2465054 0 0)
(1.2446063 0 0)
(1.2424889 0 0)
(1.240128 0 0)
(1.2374895 0 0)
(1.2345329 0 0)
(1.231216 0 0)
(1.2274966 0 0)
(1.2233323 0 0)
(1.2186795 0 0)
(1.2134911 0 0)
(1.2077159 0 0)
(1.2013024 0 0)
(1.1942023 0 0)
(1.1863664 0 0)
(1.1777384 0 0)
(1.1682596 0 0)
(1.1578756 0 0)
(1.1465296 0 0)
(1.1341539 0 0)
(1.1206796 0 0)
(1.1060453 0 0)
(1.0901816 0 0)
(1.0729945 0 0)
(1.0543745 0 0)
(1.0342261 0 0)
(1.0124748 0 0)
(0.98902547 0 0)
(0.96373618 0 0)
(0.93647848 0 0)
(0.90715865 0 0)
(0.87563937 0 0)
(0.8417026 0 0)
(0.80517763 0 0)
(0.76595976 0 0)
(0.7238688 0 0)
(0.67860958 0 0)
(0.62998437 0 0)
(0.57786334 0 0)
(0.52199454 0 0)
(0.4620872 0 0)
(0.39784944 0 0)
(0.32899659 0 0)
(0.25518942 0 0)
(0.17599025 0 0)
(0.090953897 0 0)
(0 0 0)
(1.2511064 0 0)
(1.249802 0 0)
(1.248335 0 0)
(1.2466888 0 0)
(1.2448468 0 0)
(1.2427902 0 0)
(1.2404935 0 0)
(1.2379219 0 0)
(1.2350344 0 0)
(1.2317899 0 0)
(1.2281461 0 0)
(1.2240597 0 0)
(1.2194866 0 0)
(1.2143798 0 0)
(1.2086878 0 0)
(1.2023586 0 0)
(1.195343 0 0)
(1.1875909 0 0)
(1.1790454 0 0)
(1.1696473 0 0)
(1.1593415 0 0)
(1.1480707 0 0)
(1.1357666 0 0)
(1.1223601 0 0)
(1.10779 0 0)
(1.0919865 0 0)
(1.0748544 0 0)
(1.0562827 0 0)
(1.0361759 0 0)
(1.0144602 0 0)
(0.99103971 0 0)
(0.96577005 0 0)
(0.9385227 0 0)
(0.90920571 0 0)
(0.87768065 0 0)
(0.84372504 0 0)
(0.80716682 0 0)
(0.76790316 0 0)
(0.72575298 0 0)
(0.68041871 0 0)
(0.63170386 0 0)
(0.57947879 0 0)
(0.52348785 0 0)
(0.46343607 0 0)
(0.39903177 0 0)
(0.32999202 0 0)
(0.25597355 0 0)
(0.17653525 0 0)
(0.091235497 0 0)
(0 0 0)
(1.2511426 0 0)
(1.2498964 0 0)
(1.2484894 0 0)
(1.2469056 0 0)
(1.2451291 0 0)
(1.2431415 0 0)
(1.2409174 0 0)
(1.238421 0 0)
(1.2356124 0 0)
(1.2324511 0 0)
(1.2288946 0 0)
(1.2248983 0 0)
(1.2204172 0 0)
(1.2154046 0 0)
(1.2098091 0 0)
(1.2035776 0 0)
(1.1966605 0 0)
(1.1890065 0 0)
(1.1805571 0 0)
(1.1712529 0 0)
(1.1610389 0 0)
(1.1498566 0 0)
(1.1376362 0 0)
(1.1243085 0 0)
(1.1098137 0 0)
(1.0940808 0 0)
(1.0770131 0 0)
(1.0584982 0 0)
(1.0384404 0 0)
(1.0167668 0 0)
(0.99338033 0 0)
(0.96813397 0 0)
(0.94089917 0 0)
(0.91158582 0 0)
(0.88005433 0 0)
(0.84607727 0 0)