/*--------------------------------*- C++ -*----------------------------------*\
| =========                 |                                                 |
| \\      /  F ield         | OpenFOAM: The Open Source CFD Toolbox           |
|  \\    /   O peration     | Version:  v2012                                 |
|   \\  /    A nd           | Website:  www.openfoam.com                      |
|    \\/     M anipulation  |                                                 |
\*---------------------------------------------------------------------------*/
FoamFile
{
    version     2.0;
    format      ascii;
    class       volVectorField;
    location    "117.16882180965662";
    object      U;
}
// * * * * * * * * * * * * * * * * * * * * * * * * * * * * * * * * * * * * * //

dimensions      [0 1 -1 0 0 0 0];


internalField   nonuniform List<vector> 
9200
(
(2.5640393 0.008477617 1.5117518e-21)
(2.5583699 0.028522684 -2.3723956e-23)
(2.5426208 0.0054916642 -3.3237391e-22)
(2.5491702 0.044253374 1.99911e-21)
(2.536543 0.01790755 -5.0588852e-22)
(2.5371844 0.0041966278 -4.4976032e-22)
(2.5356423 0.059519883 2.2051424e-21)
(2.5289003 0.026841537 3.6173662e-22)
(2.5325239 0.013624566 1.2530285e-22)
(2.5307665 0.0027797806 4.2196286e-22)
(2.5186726 0.071549191 -4.1527058e-23)
(2.517398 0.034905086 3.2346415e-22)
(2.5258098 0.020120276 -6.5791163e-23)
(2.5264953 0.0089008598 7.4652492e-22)
(2.527572 0.0016763752 -4.8251716e-22)
(2.4983732 0.081115568 1.0261683e-22)
(2.5037442 0.039983229 5.8238826e-23)
(2.5157289 0.025736538 -6.1763417e-22)
(2.5206956 0.012798872 -5.8977048e-22)
(2.5239689 0.0053036057 -6.8712616e-23)
(2.5257221 0.00071671035 7.886773e-22)
(2.4753245 0.086895179 4.2029593e-22)
(2.488044 0.042653526 1.8423653e-23)
(2.5038608 0.028801579 -4.7208692e-22)
(2.5120839 0.015704352 -3.5038886e-22)
(2.5190346 0.0072526253 -7.5249159e-22)
(2.5226115 0.0022665716 -3.5451333e-23)
(2.5253251 -8.5642492e-05 -7.5824218e-23)
(2.4500637 0.08868908 -2.0909299e-21)
(2.4711781 0.042399668 4.6156112e-22)
(2.4902864 0.029735338 2.9848467e-22)
(2.5021335 0.016508581 3.3470394e-22)
(2.5117199 0.0082243615 -1.0144753e-21)
(2.5184292 0.0026037706 2.2079788e-22)
(2.5225959 -0.00024481553 -8.7207041e-22)
(2.5259218 -0.0006977333 -1.1499724e-21)
(2.4234115 0.086074563 4.4037468e-23)
(2.4537674 0.039333065 -1.9921626e-21)
(2.4757891 0.028134005 1.2712843e-21)
(2.4909478 0.015452044 7.3359704e-22)
(2.5033546 0.0075398428 1.1212704e-21)
(2.5122213 0.0020021263 3.8791945e-22)
(2.5191113 -0.0012185743 2.184474e-22)
(2.5235181 -0.0023726434 6.0653251e-23)
(2.5273107 -0.0011788664 -8.4243517e-22)
(2.3963451 0.078693789 -2.7498123e-23)
(2.4366882 0.033218442 -1.3563669e-21)
(2.4609034 0.023969012 -3.5134021e-22)
(2.47927 0.01239622 -9.2887889e-22)
(2.4940237 0.0052701766 -5.1405108e-22)
(2.5052024 0.00013723814 3.4891008e-22)
(2.5138415 -0.0030863029 1.1667802e-21)
(2.5206187 -0.0044203072 2.175021e-22)
(2.5252507 -0.0041883458 6.5406485e-22)
(2.5293283 -0.0016356031 4.4274862e-22)
(2.3699741 0.066363065 8.0796989e-22)
(2.4206571 0.024191091 -1.9479288e-21)
(2.4462802 0.017375818 5.8116506e-22)
(2.467526 0.0074181919 -7.7939437e-22)
(2.4843559 0.001453795 -1.2555001e-21)
(2.4974206 -0.0030712047 -9.4866096e-22)
(2.5079496 -0.005864358 -6.1342505e-22)
(2.5161476 -0.0073580791 8.3010545e-22)
(2.5228084 -0.0071426043 2.0416164e-22)
(2.5275886 -0.0057465413 -2.8328078e-22)
(2.5318564 -0.0020449631 2.3920347e-22)
(2.3455157 0.050444501 -3.6124599e-21)
(2.4063429 0.012799785 1.1727869e-21)
(2.4324667 0.008630564 -2.845512e-22)
(2.4562273 0.00074300958 -7.0282891e-23)
(2.4746828 -0.0038711833 -2.181384e-22)
(2.4894218 -0.0074564467 1.9547455e-22)
(2.5014355 -0.0097824188 3.939667e-22)
(2.5111867 -0.010877756 -7.6234924e-22)
(2.5190248 -0.010991581 -8.1578553e-22)
(2.5255265 -0.0094906334 -7.0186403e-22)
(2.5303922 -0.007086795 7.8884145e-23)
(2.5347774 -0.0023849878 -1.0856511e-22)
(2.3238016 0.030083922 2.4929518e-22)
(2.3941348 -0.0018126371 1.9697303e-21)
(2.4200367 -0.0018387773 1.4828016e-21)
(2.4457646 -0.0073910487 8.9725643e-22)
(2.4653873 -0.010447897 -2.3956308e-22)
(2.4814661 -0.01302419 -8.3562108e-22)
(2.4947701 -0.014573742 6.0705424e-22)
(2.5057161 -0.015372181 1.0537901e-22)
(2.5148335 -0.015139593 -8.8347459e-22)
(2.5223266 -0.014124392 -5.3629013e-22)
(2.5286664 -0.011523332 3.5922624e-22)
(2.5335577 -0.0082342473 3.4763463e-22)
(2.53799 -0.0026624989 2.1922539e-22)
(2.304846 0.0062296545 4.0505935e-21)
(2.3833414 -0.017778926 -1.9182735e-21)
(2.4092327 -0.01346857 9.3842441e-22)
(2.4364481 -0.016609906 1.1934173e-21)
(2.45673 -0.018055768 1.2000114e-21)
(2.4738363 -0.01950594 3.4655458e-22)
(2.4881607 -0.020302077 8.44044e-23)
(2.5001395 -0.02048522 -2.2993476e-23)
(2.5102201 -0.020119228 1.3210202e-21)
(2.5187752 -0.018826987 1.7579058e-21)
(2.5259662 -0.016844234 6.4025501e-22)
(2.5321345 -0.013275183 8.04679e-22)
(2.5369995 -0.009202371 -1.5754525e-22)
(2.5414072 -0.0028874003 -2.4701504e-23)
(2.2894635 -0.020248037 2.8593889e-21)
(2.3748896 -0.034406275 -2.2702221e-21)
(2.4003619 -0.025918706 -1.4899379e-21)
(2.4284557 -0.02656283 -1.7438172e-21)
(2.4489033 -0.026356943 -6.0583709e-22)
(2.4667042 -0.02673907 -1.9013313e-22)
(2.4818234 -0.026715371 1.9262221e-23)
(2.4946361 -0.026336933 -7.492232e-22)
(2.5055285 -0.025499933 -3.9051569e-22)
(2.5148614 -0.024235817 7.251807e-22)
(2.5229531 -0.022050995 1.0413793e-22)
(2.5298727 -0.019204048 7.051844e-23)
(2.5358533 -0.014765653 -7.0550661e-23)
(2.5406389 -0.0099991234 2.366164e-22)
(2.5449531 -0.003063648 1.4064298e-22)
(2.2780642 -0.048492695 -6.8185612e-21)
(2.369166 -0.051748262 2.0340212e-21)
(2.3936855 -0.039133721 4.7447076e-22)
(2.4218952 -0.0368933 9.1018607e-22)
(2.4420112 -0.035029797 -3.8654675e-22)
(2.4601677 -0.034450662 -5.3327056e-22)
(2.4758775 -0.033717144 -6.5686464e-22)
(2.4893885 -0.032694089 -4.2351548e-22)
(2.5009232 -0.031442697 2.5025342e-22)
(2.5108784 -0.029856494 -1.267997e-21)
(2.519609 -0.02785886 -1.5541093e-21)
(2.5273213 -0.024879062 -3.0528138e-22)
(2.5339906 -0.021232135 -2.971201e-22)
(2.5397547 -0.016005602 -8.1037e-23)
(2.5444045 -0.010630897 5.5878463e-23)
(2.5485608 -0.0031935586 -3.9078203e-23)
(2.270695 -0.077631801 -4.5175036e-21)
(2.3662944 -0.069447404 -2.793153e-22)
(2.3893673 -0.052648682 -7.6903572e-22)
(2.4168928 -0.047185845 1.0067652e-21)
(2.4361034 -0.043724477 -1.811451e-22)
(2.4542405 -0.042398965 0)
(2.4703734 -0.041112026 7.1403528e-22)
(2.4845012 -0.039520054 8.0723263e-22)
(2.4965759 -0.037724396 7.9783728e-22)
(2.50698 -0.035870892 1.0392388e-21)
(2.5161802 -0.033716612 2.555485e-22)
(2.5244461 -0.031075593 5.0807338e-23)
(2.53185 -0.02734705 -1.235881e-22)
(2.5382713 -0.022942486 6.8377054e-23)
(2.5437775 -0.01700243 -6.5817362e-23)
(2.5482328 -0.011104626 -1.004804e-22)
(2.552172 -0.0032798453 1.4300697e-22)
(2.2670848 -0.10699193 4.5973753e-21)
(2.3662511 -0.087157855 -3.7091341e-21)
(2.3874575 -0.065966654 -2.927496e-22)
(2.4135002 -0.057022066 -2.255591e-22)
(2.4311583 -0.052101869 -1.8271641e-21)
(2.4488622 -0.050322402 2.8006976e-22)
(2.4652845 -0.048756082 -2.3754767e-22)
(2.4800217 -0.046693984 1.0911173e-22)
(2.4926036 -0.044346698 2.7459794e-22)
(2.5033379 -0.042048732 -3.4005777e-22)
(2.5128048 -0.039809227 7.3105653e-22)
(2.5214435 -0.037192429 9.9182792e-22)
(2.5293754 -0.033934812 3.68593e-22)
(2.5365159 -0.029470991 8.2790774e-23)
(2.5426702 -0.024342563 7.8119244e-23)
(2.5478659 -0.017763759 -8.7318206e-23)
(2.552067 -0.011428581 -8.8223568e-23)
(2.5557372 -0.0033253409 1.8180945e-22)
(2.2668946 -0.13610071 4.5879225e-21)
(2.3689335 -0.10469231 2.9361817e-21)
(2.3879545 -0.078768446 4.8093575e-21)
(2.4117239 -0.066020859 2.566731e-22)
(2.4271106 -0.059812424 -4.6127011e-22)
(2.4439123 -0.057960348 -2.1511016e-22)
(2.4605115 -0.05650367 0)
(2.4759324 -0.054168566 -2.1893679e-22)
(2.4890866 -0.051237535 -8.3492067e-22)
(2.5000928 -0.048399669 -1.0639967e-21)
(2.5096506 -0.045881515 -1.2057803e-21)
(2.5184257 -0.043406369 -1.130026e-21)
(2.5267067 -0.040353764 -4.6043229e-22)
(2.5344079 -0.036458144 -1.1670359e-22)
(2.5412979 -0.031255967 3.3856152e-24)
(2.5471445 -0.025438447 5.2791113e-22)
(2.5519691 -0.018298915 -2.79556e-22)
(2.5558577 -0.011612182 1.7433917e-22)
(2.5592144 -0.0033328839 -3.3163038e-24)
(2.269562 -0.16463447 -1.5776077e-20)
(2.3744925 -0.1218085 1.2157544e-21)
(2.3908686 -0.090684972 1.4215868e-21)
(2.4115069 -0.073965581 -7.6455469e-22)
(2.4238639 -0.06656342 2.1597947e-21)
(2.4392279 -0.0650481 -3.0465484e-22)
(2.4558902 -0.064226052 -8.6883027e-23)
(2.4721538 -0.061911344 6.5941365e-22)
(2.4860609 -0.058413746 3.6778405e-22)
(2.4973724 -0.05486199 -1.1847848e-21)
(2.5068754 -0.05192146 -9.3448843e-22)
(2.5155419 -0.04942574 4.6267842e-23)
(2.5239178 -0.046769388 -1.1982344e-21)
(2.5320246 -0.043234813 -1.0223307e-21)
(2.5395565 -0.038648854 3.6846844e-23)
(2.5461732 -0.032702416 5.0315816e-22)
(2.5516525 -0.026237255 -1.4732191e-22)
(2.5560408 -0.018618842 -1.4669853e-22)
(2.5595623 -0.011665356 -2.0464538e-22)
(2.5625691 -0.003305313 1.9602337e-24)
(2.2744962 -0.19232364 9.5535517e-21)
(2.3820087 -0.13844588 1.0048589e-21)
(2.396277 -0.10153805 -2.2971813e-21)
(2.4127269 -0.080254977 2.6800507e-22)
(2.4212793 -0.072036721 2.1466766e-21)
(2.4345842 -0.071365065 1.7318392e-22)
(2.4511928 -0.071820849 -2.2333425e-22)
(2.4685503 -0.069931399 -1.0037258e-21)
(2.4835233 -0.065921709 -4.8157778e-22)
(2.4952873 -0.061467968 1.0387267e-21)
(2.5046467 -0.05783776 1.1717392e-21)
(2.5129471 -0.055196685 2.271633e-22)
(2.521121 -0.052851902 1.0198035e-21)
(2.5293904 -0.049959447 1.2255729e-21)
(2.5374563 -0.045840094 -4.2270275e-22)
(2.5448282 -0.040498911 -4.7269188e-22)
(2.5511146 -0.033809581 3.0200104e-22)
(2.5561526 -0.026747579 1.3082921e-22)
(2.5600391 -0.018735384 7.3049204e-22)
(2.5631447 -0.011597974 3.7699503e-24)
(2.5657731 -0.003245402 -2.4988387e-22)
(2.2813374 -0.21913659 2.36849e-20)
(2.3918835 -0.15465635 -5.5345728e-21)
(2.403551 -0.11098819 -1.0164936e-21)
(2.4151162 -0.085194395 1.600524e-21)
(2.4193317 -0.075745198 6.3723986e-22)
(2.4297669 -0.076535167 6.7885847e-22)
(2.4461392 -0.079191966 7.0251327e-23)
(2.4649266 -0.078277395 1.7243833e-22)
(2.4814305 -0.073871086 1.1023446e-22)
(2.4939352 -0.068287426 -4.0358561e-22)
(2.5031404 -0.063627101 9.7945872e-22)
(2.510822 -0.060570236 1.0116742e-21)
(2.5184419 -0.05849959 1.7719603e-22)
(2.5265638 -0.056272476 1.6350527e-21)
(2.5349665 -0.052990584 -9.9179785e-23)
(2.5430523 -0.048151185 -2.6805674e-22)
(2.5502189 -0.041993884 1.4557973e-22)
(2.5560896 -0.034576922 1.2811713e-22)
(2.5606041 -0.026979068 5.8938778e-22)
(2.5639264 -0.018660639 -1.4785959e-22)
(2.5665747 -0.011419548 2.4941208e-22)
(2.5688039 -0.0031557624 1.992915e-23)
(2.2896624 -0.24507528 -2.3286027e-20)
(2.4038983 -0.1704582 -3.0104341e-22)
(2.4133208 -0.11950296 -1.7397373e-21)
(2.4198851 -0.087824258 -2.5062202e-21)
(2.4175266 -0.078181011 -1.7123424e-21)
(2.4245245 -0.0806783 2.02038e-21)
(2.4404402 -0.086216846 -1.0494928e-23)
(2.4610505 -0.087008785 4.8147456e-22)
(2.4796942 -0.082415373 -4.1784154e-23)
(2.4934018 -0.075460417 9.2417155e-22)
(2.502545 -0.069319275 -2.8956408e-22)
(2.5093734 -0.065471302 -1.7722146e-21)
(2.5160396 -0.063496907 7.3323876e-22)
(2.5236172 -0.062032197 1.6079214e-22)
(2.53208 -0.059726509 -7.6261455e-22)
(2.5407593 -0.055834442 -1.301307e-21)
(2.5488439 -0.050133417 -5.917306e-22)
(2.5557108 -0.043116149 1.8106494e-22)
(2.5610602 -0.035004602 1.1027118e-21)
(2.5649668 -0.026942082 -4.3189982e-22)
(2.5676693 -0.018406743 -6.2483725e-22)
(2.5698274 -0.011139155 -3.1625761e-22)
(2.5716441 -0.003038818 2.780427e-22)
(2.2990738 -0.27016723 1.3476633e-20)
(2.4178616 -0.18597968 -4.3758297e-22)
(2.4251513 -0.12664828 8.8777356e-22)
(2.425978 -0.088766687 -9.3452889e-22)
(2.4159604 -0.07840965 -1.907643e-21)
(2.4184461 -0.08274719 2.4767819e-21)
(2.4336791 -0.093012107 6.2954406e-22)
(2.4566439 -0.096247325 -1.1673139e-22)
(2.4782041 -0.091750902 -8.3797407e-22)
(2.4937469 -0.083176739 4.2133998e-22)
(2.5030694 -0.07500357 -5.4092962e-22)
(2.5088386 -0.069838113 8.7870356e-23)
(2.5141067 -0.067683962 -9.6947039e-22)
(2.5206555 -0.06696562 -3.0992318e-21)
(2.5288 -0.065884078 -1.4555768e-21)
(2.5378725 -0.0631795 5.3248283e-22)
(2.5468535 -0.058429365 -1.4194644e-23)
(2.5548375 -0.051742055 -2.3173924e-23)
(2.5612719 -0.043847307 -2.7137563e-22)
(2.5659837 -0.035094076 -3.803693e-23)
(2.5692022 -0.02664785 -8.6407523e-22)
(2.5712387 -0.017986042 0)
(2.5728832 -0.010765466 0)
(2.5742807 -0.0028968611 8.2376407e-22)
(2.3090242 -0.29450007 4.9760063e-20)
(2.4336036 -0.20129742 -2.9795913e-21)
(2.4389695 -0.13252977 3.4823743e-21)
(2.4332789 -0.087548005 2.1453168e-21)
(2.414496 -0.075672047 2.0848804e-22)
(2.4112395 -0.083561314 -1.772181e-21)
(2.4256951 -0.099078964 1.6453269e-23)
(2.4513837 -0.10609479 -3.1482332e-22)
(2.4767985 -0.10212901 -3.8940517e-22)
(2.4950381 -0.091692461 5.6498994e-22)
(2.5049104 -0.080818097 7.8094127e-22)
(2.5094943 -0.073656732 -6.8107115e-22)
(2.5128752 -0.070890058 1.6800506e-21)
(2.5178155 -0.070837255 -6.917581e-22)
(2.5251552 -0.071155534 -2.3156078e-22)
(2.5343192 -0.07002258 3.3548297e-21)
(2.5441037 -0.066535999 2.9521952e-22)
(2.5532929 -0.060691385 -4.9312081e-22)
(2.5610124 -0.052928147 9.3551567e-24)
(2.5668571 -0.044170685 1.675335e-22)
(2.5708146 -0.03484915 -6.8592039e-22)
(2.5732739 -0.026109042 1.4816081e-21)
(2.5746099 -0.017411451 -6.2148386e-24)
(2.5757271 -0.010306858 4.517995e-22)
(2.5767045 -0.0027322688 -6.3582325e-23)
(2.3192127 -0.31809813 -3.499478e-21)
(2.4508026 -0.21657047 6.922825e-21)
(2.4547016 -0.13715512 -3.4110217e-23)
(2.4418562 -0.084110158 -6.6405062e-23)
(2.4132113 -0.070607609 7.0482773e-23)
(2.4027934 -0.082601075 -3.5286391e-21)
(2.4161399 -0.10490863 -8.7762062e-22)
(2.4450428 -0.11665945 3.4838633e-22)
(2.4753125 -0.11378781 1.5221324e-21)
(2.4973046 -0.10131093 5.0471291e-22)
(2.5083224 -0.086970601 5.1570845e-22)
(2.5116187 -0.076932571 0)
(2.5126037 -0.072993578 -3.400918e-23)
(2.5152706 -0.073393111 1.3966766e-21)
(2.5211991 -0.075258981 3.4732096e-21)
(2.5300429 -0.076048297 7.2034411e-22)
(2.5404492 -0.074311455 -6.9130825e-22)
(2.550875 -0.069658171 8.3146472e-22)
(2.5600768 -0.062525699 9.8607279e-23)
(2.5673227 -0.05364438 1.1761495e-21)
(2.5724116 -0.044074141 -2.1863661e-21)
(2.5755064 -0.034277338 -1.4423921e-21)
(2.577149 -0.025340434 -7.6977305e-22)
(2.577763 -0.016696752 1.1909115e-21)
(2.5783487 -0.0097716484 -9.3436294e-22)
(2.5789101 -0.0025478465 -2.3631086e-22)
(2.3296828 -0.34089295 -7.3357308e-20)
(2.4684636 -0.23178504 2.9373123e-21)
(2.4718969 -0.14062544 4.2528865e-21)
(2.4516868 -0.078464057 1.5535217e-21)
(2.4119517 -0.062914164 -8.5204228e-22)
(2.3930334 -0.079604215 0)
(2.4045589 -0.11014681 0)
(2.4373053 -0.1280577 -5.026205e-24)
(2.473535 -0.12702906 1.0689948e-21)
(2.5005716 -0.11237063 -4.8775793e-21)
(2.5135232 -0.0937033 -1.2393502e-21)
(2.5155949 -0.079746713 0)
(2.513602 -0.0738116 -1.2772847e-22)
(2.513217 -0.074345884 -5.7187195e-22)
(2.5170133 -0.077877025 6.3829027e-22)
(2.5250035 -0.080959871 -2.0093456e-21)
(2.53575 -0.081459366 -5.467402e-22)
(2.5473751 -0.07854122 1.0184091e-21)
(2.558218 -0.07238614 -1.6488068e-21)
(2.5671619 -0.063837986 1.2556028e-21)
(2.5737022 -0.053850869 2.3142251e-21)
(2.5778741 -0.043552836 -2.7890293e-21)
(2.5800138 -0.033391052 2.6062892e-22)
(2.5807988 -0.024359348 5.8312329e-22)
(2.5806829 -0.015856737 -7.0475444e-22)
(2.5807417 -0.0091686025 5.3960273e-22)
(2.5808949 -0.0023470748 4.5362841e-22)
(2.3401039 -0.36256273 -2.8406984e-20)
(2.4846918 -0.24696623 -9.9127866e-21)
(2.4891469 -0.14292299 -3.7184728e-22)
(2.462818 -0.070696341 3.5583673e-22)
(2.4105622 -0.052518172 -4.5424019e-21)
(2.3816872 -0.074307765 0)
(2.3906369 -0.1147683 0)
(2.4277568 -0.14037996 -9.0937311e-22)
(2.4712359 -0.14206657 -2.1164901e-22)
(2.5048236 -0.12523583 4.4788559e-21)
(2.5207561 -0.10131171 -7.4299599e-21)
(2.5217328 -0.082157914 6.3897375e-22)
(2.5162429 -0.073288026 8.3565622e-22)
(2.5119497 -0.073527543 6.1069319e-22)
(2.5127094 -0.078689166 -3.8641234e-23)
(2.5191807 -0.084419452 -1.7344572e-21)
(2.5298742 -0.08769903 9.1778638e-22)
(2.5425806 -0.087085969 -1.8433937e-21)
(2.5551791 -0.082463012 0)
(2.5660976 -0.074557634 2.0975727e-22)
(2.5744692 -0.064544877 -1.3106001e-21)
(2.5800705 -0.053520247 -4.157833e-21)
(2.5831814 -0.042611355 2.1858371e-21)
(2.5842951 -0.032208244 1.8414876e-21)
(2.5841994 -0.023185741 6.0300533e-22)
(2.5833593 -0.014907146 -3.9039809e-22)
(2.5829037 -0.008507437 -1.8631449e-22)
(2.5826594 -0.0021339772 -4.4025613e-22)
(2.3500231 -0.38299834 1.7137557e-20)
(2.4979021 -0.26150397 1.9904388e-20)
(2.5041971 -0.14442837 1.707802e-21)
(2.4747408 -0.060621487 -5.8357982e-21)
(2.4085718 -0.039424035 -5.7960397e-22)
(2.3684908 -0.066779406 -8.7933434e-23)
(2.3741294 -0.11870759 -3.3354519e-21)
(2.4160976 -0.15371089 4.5283268e-22)
(2.4681804 -0.15917608 -3.7883017e-21)
(2.5100297 -0.14028539 5.6511029e-21)
(2.5302503 -0.11011741 3.4815744e-21)
(2.5304228 -0.084300998 -1.8649006e-21)
(2.5208414 -0.071279767 2.9633066e-21)
(2.5116129 -0.070596891 3.5539469e-23)
(2.5084224 -0.077357003 -2.1961953e-21)
(2.5125736 -0.086081772 -1.3793525e-21)
(2.5227024 -0.092706564 -2.9986996e-22)
(2.5362783 -0.095053254 -7.2973205e-22)
(2.5506899 -0.09256089 -3.3199031e-21)
(2.5638426 -0.085820365 -1.3308099e-21)
(2.5744209 -0.076025399 2.2082456e-21)
(2.581893 -0.064582656 -6.9260601e-22)
(2.5863396 -0.052641298 -5.0518448e-21)
(2.5882725 -0.041264725 2.3559755e-21)
(2.5883138 -0.030752353 1.7138037e-21)
(2.5873327 -0.02184191 -2.8917968e-21)
(2.5857866 -0.013864416 3.7006185e-22)
(2.5848353 -0.0077989469 -7.2102198e-22)
(2.5842101 -0.0019128966 -3.0706502e-22)
(2.3585241 -0.40162442 4.7472799e-20)
(2.5086046 -0.27546423 3.7123168e-20)
(2.5149366 -0.14425027 -1.7480818e-20)
(2.4831805 -0.048514979 2.9731206e-20)
(2.4039343 -0.023317006 1.0842379e-20)
(2.3529651 -0.056429139 -2.3080153e-21)
(2.3547616 -0.12195777 6.908106e-22)
(2.4020764 -0.16816918 -6.3577583e-22)
(2.4641201 -0.17856967 4.7879638e-21)
(2.5161319 -0.15789575 4.7801035e-21)
(2.5422384 -0.12047925 2.621266e-21)
(2.5420405 -0.086294223 -3.6030368e-21)
(2.5277863 -0.067724175 -1.0993891e-22)
(2.5125783 -0.065337435 -6.2275969e-22)
(2.5042687 -0.073554778 -4.9652946e-21)
(2.5051947 -0.0855884 -6.1808127e-21)
(2.5141303 -0.096148304 4.7537395e-22)
(2.528263 -0.10215973 4.0276982e-21)
(2.5444734 -0.10250121 -3.3238437e-22)
(2.560088 -0.097501445 -2.5903052e-21)
(2.5732594 -0.088376346 2.4623343e-21)
(2.5830514 -0.076671144 -1.5258339e-21)
(2.5893122 -0.063913252 2.4315466e-21)
(2.5924211 -0.051220628 1.8298666e-21)
(2.5930914 -0.039538231 4.0023003e-21)
(2.5920402 -0.029051623 4.9784016e-23)
(2.5901861 -0.020351913 4.3670103e-23)
(2.5879634 -0.012745241 -4.8111182e-22)
(2.5865403 -0.0070550608 -9.761299e-23)
(2.5855552 -0.0016883701 -2.9917418e-23)
(2.3652229 -0.42077399 1.4593789e-21)
(2.5159895 -0.28773997 1.7375121e-20)
(2.5225607 -0.14291253 -1.4262345e-20)
(2.4840763 -0.032953162 3.7562823e-20)
(2.3910721 -0.004320308 2.4408547e-22)
(2.3332773 -0.04427321 2.8949299e-22)
(2.3323336 -0.12435132 2.3035869e-21)
(2.3854793 -0.18376118 -1.1937902e-21)
(2.4588075 -0.20045636 1.0005031e-20)
(2.5230286 -0.17841202 -3.3381312e-21)
(2.5569105 -0.13277351 1.9578049e-20)
(2.5569813 -0.088294491 6.3876671e-21)
(2.5374483 -0.062502745 -2.9633931e-21)
(2.515084 -0.057512852 2.0484366e-21)
(2.5004137 -0.066965947 -1.3633327e-21)
(2.4970645 -0.082598683 5.185058e-21)
(2.5040682 -0.097687965 3.0572638e-21)
(2.5183419 -0.10811233 1.1275558e-21)
(2.5362548 -0.11206112 2.6821316e-21)
(2.5545126 -0.10949604 -2.5908644e-21)
(2.5706575 -0.10154953 1.2138211e-22)
(2.5832555 -0.089934696 -4.941923e-22)
(2.5918243 -0.076415022 -1.8410916e-22)
(2.5966002 -0.062527036 -2.5093839e-21)
(2.5982315 -0.049282356 -3.2779243e-22)
(2.5975906 -0.037466188 -1.4452823e-21)
(2.5954516 -0.027137962 -3.8604853e-21)
(2.5927524 -0.018740807 6.5353487e-22)
(2.5898917 -0.011566104 -4.5467306e-23)
(2.588025 -0.0062888026 -1.061908e-22)
(2.5866953 -0.0014640295 2.9167848e-24)
(2.3709431 -0.44075587 -3.9575781e-20)
(2.5202128 -0.30127003 -2.0576867e-20)
(2.5282207 -0.1385763 2.2772374e-20)
(2.476291 -0.015304201 -4.5515233e-20)
(2.3669371 0.018088323 -4.047028e-21)
(2.3049565 -0.028764614 -3.3026724e-21)
(2.3062875 -0.12640042 4.0679346e-21)
(2.3663987 -0.20058378 6.5470507e-22)
(2.4521175 -0.22492396 3.0214656e-21)
(2.5305964 -0.20214694 -1.9021142e-20)
(2.5744442 -0.14737275 1.2623454e-20)
(2.5755856 -0.090446823 -2.2025406e-20)
(2.550198 -0.055569927 -2.518783e-21)
(2.5193886 -0.046847666 2.4969108e-21)
(2.4969798 -0.057282207 1.68533e-21)
(2.488208 -0.076781253 7.5894656e-21)
(2.4924407 -0.097000011 2.4898312e-21)
(2.5063411 -0.11261215 -1.717593e-21)
(2.5257701 -0.12100531 4.7014184e-21)
(2.5467916 -0.12165581 3.48658e-21)
(2.5662715 -0.11552141 -2.8470397e-21)
(2.5821811 -0.10440201 1.4234168e-21)
(2.5936111 -0.090354136 -2.1817966e-21)
(2.6005623 -0.075220203 2.5892366e-21)
(2.6036347 -0.060442506 1.4553569e-21)
(2.6036971 -0.046866147 1.8173007e-22)
(2.6017321 -0.035089994 -2.908869e-21)
(2.5985331 -0.025045567 -1.1305079e-21)
(2.59503 -0.017033845 -1.2811824e-22)
(2.5915763 -0.010342894 1.5357228e-22)
(2.5892965 -0.0055121778 1.6849979e-22)
(2.5876421 -0.0012411636 -2.5652031e-23)
(2.3752188 -0.46017628 4.2879318e-22)
(2.5216339 -0.31578975 -5.4146331e-20)
(2.5310799 -0.13463173 -1.3569511e-20)
(2.4678381 0.0063072539 -4.0985673e-20)
(2.3365396 0.042674551 6.0753462e-22)
(2.2662305 -0.014096317 5.5167846e-22)
(2.2750832 -0.12790631 -5.5488802e-22)
(2.3450772 -0.21880093 1.0982424e-21)
(2.4442803 -0.25222721 -2.525446e-21)
(2.5387915 -0.22939403 1.5404705e-20)
(2.5950429 -0.16468714 -3.1685056e-20)
(2.5982459 -0.092892751 -2.1410323e-20)
(2.5663329 -0.046790074 1.2917174e-20)
(2.525716 -0.033183475 -4.7978813e-21)
(2.4940789 -0.044179478 -1.5079379e-21)
(2.4786366 -0.067842409 3.5090744e-21)
(2.4791852 -0.093783262 -3.0787492e-21)
(2.4921104 -0.11537141 2.1990259e-23)
(2.5127769 -0.12908729 6.0112825e-21)
(2.5366072 -0.13381643 9.2101925e-22)
(2.5597474 -0.1302274 2.5009697e-21)
(2.5794838 -0.1201329 4.1070934e-22)
(2.5943707 -0.10583126 -2.5313881e-21)
(2.6040823 -0.089555619 -1.8019347e-21)
(2.6090895 -0.073092859 -1.9350792e-21)
(2.6103049 -0.057703454 -3.7089114e-21)
(2.6087574 -0.044024117 5.4458619e-22)
(2.6054885 -0.032455809 1.7905704e-21)
(2.6012773 -0.022809511 2.8999738e-21)
(2.5970218 -0.015255631 5.2099561e-22)
(2.5930244 -0.0090904613 8.0311986e-22)
(2.5903636 -0.0047333361 2.3177708e-22)
(2.5884382 -0.001021567 3.9174348e-23)
(2.3769914 -0.47875398 -2.8391367e-21)
(2.5199899 -0.32921407 -1.7932764e-20)
(2.5286389 -0.12970346 1.6120548e-20)
(2.4520425 0.029734266 -1.6185517e-20)
(2.3054917 0.069809334 0)
(2.2222721 0.0036806703 -9.9676607e-21)
(2.2377272 -0.13144572 6.9328921e-22)
(2.3216068 -0.23832772 6.4530257e-21)
(2.4351146 -0.28205898 -3.9865292e-21)
(2.5471704 -0.26027279 -1.2732847e-21)
(2.6185395 -0.18512474 3.1458915e-20)
(2.6253899 -0.095821987 4.5036431e-20)
(2.5862573 -0.036078404 -2.4629872e-20)
(2.5342392 -0.016177666 -7.2086168e-21)
(2.4917671 -0.027457929 -2.9377372e-21)
(2.4683505 -0.055500917 -6.4620093e-21)
(2.4642455 -0.087785028 2.4166794e-21)
(2.4755285 -0.11612654 5.3654932e-21)
(2.4970648 -0.13606343 -1.1635413e-20)
(2.5236622 -0.14579469 -2.6079593e-21)
(2.5507322 -0.14558447 0)
(2.5748035 -0.13715123 -3.3392358e-21)
(2.5937811 -0.12298612 1.5705582e-21)
(2.6068986 -0.10569615 5.3004891e-22)
(2.614422 -0.08752311 2.7237654e-21)
(2.6172434 -0.070078367 -1.1499304e-21)
(2.6165169 -0.054374328 -2.2711666e-21)
(2.6133665 -0.040817143 4.0704633e-23)
(2.6088433 -0.029612182 4.7708674e-22)
(2.6036834 -0.020464428 5.4418572e-22)
(2.5987346 -0.013429358 -6.8955311e-23)
(2.5942457 -0.0078221251 3.6547096e-23)
(2.5912383 -0.0039605943 -5.0014897e-23)
(2.5890722 -0.00081169244 0)
(2.3757581 -0.49615592 -3.3046994e-21)
(2.5151144 -0.34173698 1.5936917e-20)
(2.520463 -0.12126201 1.902747e-20)
(2.4270949 0.056120611 -1.6992053e-20)
(2.2701333 0.10074286 0)
(2.1786057 0.017780022 -5.0517737e-21)
(2.1960798 -0.13462562 -7.284532e-21)
(2.2955277 -0.2600739 1.1636841e-21)
(2.4246561 -0.31379603 1.4630922e-20)
(2.5533295 -0.29341474 2.3676186e-20)
(2.6418271 -0.20823305 3.9441803e-20)
(2.6558041 -0.099242586 9.4620408e-21)
(2.610269 -0.023354809 -3.261629e-20)
(2.5452258 0.0042958742 9.5755323e-21)
(2.4900854 -0.0067197601 -3.5075299e-21)
(2.4573022 -0.039591413 -6.415517e-21)
(2.4475748 -0.078792514 -1.7462312e-21)
(2.4565055 -0.11465832 5.7451405e-21)
(2.4784659 -0.14170353 -1.2890328e-20)
(2.5076935 -0.15739732 1.0073841e-21)
(2.5388874 -0.1614833 2.8010565e-21)
(2.5677721 -0.15546263 -9.3589729e-22)
(2.5914986 -0.14193049 -2.1318577e-21)
(2.6087317 -0.12385241 -4.2969157e-21)
(2.6194246 -0.10394445 -1.9862126e-22)
(2.6243968 -0.084299016 1.6888651e-21)
(2.6248832 -0.066254806 2.0818971e-21)
(2.6221974 -0.050534643 9.8890387e-21)
(2.6174935 -0.037311059 1.2620733e-21)
(2.6117897 -0.026607832 -2.2311883e-22)
(2.6057564 -0.018043396 -5.9136271e-22)
(2.6001788 -0.011576357 -1.1181048e-21)
(2.5952514 -0.0065497108 -6.0205157e-22)
(2.5919345 -0.0032082371 1.9782378e-22)
(2.589524 -0.00061485059 0)
(2.3712973 -0.5124025 2.8245648e-21)
(2.5066837 -0.3529023 5.3053804e-20)
(2.5066162 -0.10970785 -4.669356e-22)
(2.3986435 0.0870197 7.0589021e-20)
(2.2337044 0.13552764 -3.1964684e-21)
(2.1315697 0.037728998 4.1033485e-20)
(2.1551563 -0.14320203 2.8970833e-20)
(2.2664253 -0.28231877 -8.3479571e-21)
(2.4114281 -0.34741796 8.2135827e-21)
(2.557469 -0.32829328 -5.5944941e-21)
(2.6593158 -0.23238084 -5.8269764e-20)
(2.6826439 -0.10226947 -1.9472063e-20)
(2.635447 -0.0082902359 5.8118808e-20)
(2.558693 0.028421948 5.9061746e-21)
(2.4890734 0.018057965 -4.4016472e-22)
(2.4454464 -0.019844699 1.2291826e-20)
(2.4291139 -0.066700099 7.0672409e-21)
(2.4349887 -0.11079531 -1.7558256e-20)
(2.4568641 -0.14580703 1.1044983e-20)
(2.4884881 -0.16842714 -1.4317499e-21)
(2.5239044 -0.17779054 1.2944336e-20)
(2.5580269 -0.17504222 -1.9493289e-21)
(2.587164 -0.16276212 3.2352378e-21)
(2.6092784 -0.1442177 3.654986e-21)
(2.6238786 -0.12262402 0)
(2.6316214 -0.10060792 4.4051743e-21)
(2.6338009 -0.079975574 -4.5227686e-21)
(2.631896 -0.061724831 -6.3432051e-21)
(2.6272948 -0.046273105 4.6454168e-21)
(2.6211226 -0.033573112 4.843787e-22)
(2.61433 -0.023489805 -1.7889716e-21)
(2.6075068 -0.015577136 4.6398139e-22)
(2.6013678 -0.0097158974 7.8066457e-23)
(2.5960522 -0.0052839746 -9.0606142e-23)
(2.592463 -0.0024839393 -3.1868607e-22)
(2.5898705 -0.00042405847 4.9145043e-22)
(2.3635455 -0.52740645 -3.3027415e-20)
(2.4946846 -0.36230246 -1.747304e-20)
(2.487576 -0.095348228 -4.4915224e-20)
(2.368359 0.12048556 2.7080675e-21)
(2.1993617 0.17285111 -5.291469e-20)
(2.0862171 0.063851485 1.4260153e-21)
(2.1071042 -0.14606068 -1.3376182e-20)
(2.2376163 -0.30897828 -1.3880876e-20)
(2.3945393 -0.38103321 -2.4025889e-20)
(2.5559605 -0.36312445 -4.6870291e-20)
(2.6739009 -0.25775454 -2.3312396e-20)
(2.7007071 -0.10412341 3.0425286e-20)
(2.6548624 0.0099978122 9.9078977e-21)
(2.5704362 0.056523921 -2.096225e-20)
(2.488585 0.047145953 -3.0301719e-22)
(2.4326524 0.0036656799 -1.4902371e-21)
(2.4088278 -0.05139519 -2.2726853e-21)
(2.4109557 -0.10445438 -8.6085665e-21)
(2.4322042 -0.14820816 1.1906752e-20)
(2.4658949 -0.17869468 -5.6047631e-22)
(2.5055227 -0.1943501 -1.8469762e-21)
(2.5452231 -0.19582945 1.9808577e-21)
(2.5804107 -0.18554921 1.3558741e-21)
(2.6082133 -0.16697971 -1.4906872e-21)
(2.6275427 -0.14382389 5.665517e-21)
(2.6387725 -0.11930993 -2.3447435e-22)
(2.6431945 -0.095791805 2.9665787e-21)
(2.6424653 -0.074683641 2.6167515e-22)
(2.6381995 -0.056606972 -4.7051534e-21)
(2.6317787 -0.041682073 -2.7755208e-21)
(2.6242509 -0.029668964 -1.3372372e-22)
(2.6164742 -0.020302071 1.0476184e-22)
(2.6089488 -0.013093486 2.7935857e-22)
(2.6023164 -0.0078648214 7.8635403e-22)
(2.5966598 -0.0040343036 9.4908435e-23)
(2.5928328 -0.0017794545 3.825912e-22)
(2.5900905 -0.00022385261 -1.3960097e-21)
(2.3531886 -0.54098912 -2.4243479e-20)
(2.479156 -0.36994581 -3.6827533e-20)
(2.4638105 -0.078539954 -8.799402e-20)
(2.3378733 0.15585689 -5.4563418e-20)
(2.1687649 0.21170856 -2.1201651e-20)
(2.045345 0.090423679 -8.9311988e-20)
(2.0556828 -0.14475618 -8.2168147e-20)
(2.1986226 -0.33123192 2.982955e-20)
(2.3767136 -0.41585203 -3.1486105e-20)
(2.5477443 -0.39904044 -6.9468623e-21)
(2.6810306 -0.28046459 -9.5748672e-20)
(2.7153644 -0.10514271 3.2065846e-20)
(2.6691036 0.032054224 -1.5996478e-20)
(2.572698 0.088809025 -5.5456126e-21)
(2.4850644 0.080757817 2.6512621e-21)
(2.4188219 0.031114917 -3.5166255e-21)
(2.3866162 -0.03299837 -5.6201099e-21)
(2.3844369 -0.095582029 2.107658e-21)
(2.4044944 -0.14880185 -2.0275517e-20)
(2.4398375 -0.18802065 3.0191968e-21)
(2.4835424 -0.21098845 -2.0225846e-20)
(2.529054 -0.21772521 1.9748869e-20)
(2.5708744 -0.21031799 -3.1079635e-21)
(2.6051918 -0.19230372 -1.3725591e-21)
(2.630151 -0.16781239 -5.8556718e-21)
(2.6456886 -0.14071687 -2.785471e-22)
(2.653001 -0.114024 -4.1475284e-21)
(2.6538971 -0.089660079 -5.2034124e-21)
(2.6502633 -0.068580236 5.9058338e-22)
(2.643742 -0.051027225 -8.4888241e-22)
(2.6356385 -0.03685279 -1.5458869e-21)
(2.6268873 -0.025660393 2.490118e-21)
(2.6182384 -0.017084566 1.4864084e-21)
(2.6100997 -0.010617113 -1.2126786e-21)
(2.6030412 -0.0060372346 -2.7177302e-22)
(2.5970883 -0.002808083 -6.7988191e-22)
(2.5930578 -0.0010867849 4.9938685e-22)
(2.5901912 2.1730378e-05 -6.5538785e-22)
(2.3410461 -0.55291395 3.9512919e-20)
(2.459464 -0.37570832 9.4799273e-22)
(2.436192 -0.059707766 4.1280111e-20)
(2.308246 0.1921342 -1.9647581e-20)
(2.1421723 0.25106732 1.2354522e-19)
(2.0104309 0.11994651 -2.6070981e-20)
(2.0071915 -0.14446235 -2.5357957e-20)
(2.1525828 -0.35255697 -7.0611646e-22)
(2.346569 -0.44892058 -2.5659766e-20)
(2.5364648 -0.43213097 -3.3349244e-21)
(2.6796308 -0.30781354 -1.2196192e-19)
(2.7227156 -0.1062659 -9.3961639e-20)