/*--------------------------------*- C++ -*----------------------------------*\
| =========                 |                                                 |
| \\      /  F ield         | OpenFOAM: The Open Source CFD Toolbox           |
|  \\    /   O peration     | Version:  v2012                                 |
|   \\  /    A nd           | Website:  www.openfoam.com                      |
|    \\/     M anipulation  |                                                 |
\*---------------------------------------------------------------------------*/
FoamFile
{
    version     2.0;
    format      ascii;
    class       volVectorField;
    location    "44.0127461100179858";
    object      cellDisplacement;
}
// * * * * * * * * * * * * * * * * * * * * * * * * * * * * * * * * * * * * * //

dimensions      [0 1 0 0 0 0 0];


internalField   nonuniform List<vector> 
9200
(
(0.040866924 0 0)
(0.041072367 0 0)
(0.11882523 0 0)
(0.041354073 0 0)
(0.11931689 0 0)
(0.19170426 0 0)
(0.041734389 0 0)
(0.12014882 0 0)
(0.19247382 0 0)
(0.25976655 0 0)
(0.042113061 0 0)
(0.12111458 0 0)
(0.19369507 0 0)
(0.26073886 0 0)
(0.32322751 0 0)
(0.042500073 0 0)
(0.12217215 0 0)
(0.1952305 0 0)
(0.26237613 0 0)
(0.32441599 0 0)
(0.38236175 0 0)
(0.042876374 0 0)
(0.12324209 0 0)
(0.19689866 0 0)
(0.26438941 0 0)
(0.32637567 0 0)
(0.38372802 0 0)
(0.43739845 0 0)
(0.043238813 0 0)
(0.12429571 0 0)
(0.19859157 0 0)
(0.26660412 0 0)
(0.3288631 0 0)
(0.38605171 0 0)
(0.43896416 0 0)
(0.48860841 0 0)
(0.043582838 0 0)
(0.1253028 0 0)
(0.20025102 0 0)
(0.26887818 0 0)
(0.33160676 0 0)
(0.38895243 0 0)
(0.44158235 0 0)
(0.49034534 0 0)
(0.53619777 0 0)
(0.04390204 0 0)
(0.12625908 0 0)
(0.20185229 0 0)
(0.27111896 0 0)
(0.33443799 0 0)
(0.39219664 0 0)
(0.44492177 0 0)
(0.49330404 0 0)
(0.53812202 0 0)
(0.58040921 0 0)
(0.044197671 0 0)
(0.1271474 0 0)
(0.20336097 0 0)
(0.2732725 0 0)
(0.33722697 0 0)
(0.39555368 0 0)
(0.44864913 0 0)
(0.49703355 0 0)
(0.54137224 0 0)
(0.58250617 0 0)
(0.62142757 0 0)
(0.044465361 0 0)
(0.12796459 0 0)
(0.20476636 0 0)
(0.27530207 0 0)
(0.33990655 0 0)
(0.39887934 0 0)
(0.45252498 0 0)
(0.50122835 0 0)
(0.54552719 0 0)
(0.58609199 0 0)
(0.62371365 0 0)
(0.65947894 0 0)
(0.04470837 0 0)
(0.12870649 0 0)
(0.20605285 0 0)
(0.27719009 0 0)
(0.34243629 0 0)
(0.40207594 0 0)
(0.45638162 0 0)
(0.50562396 0 0)
(0.55019882 0 0)
(0.5906371 0 0)
(0.62759632 0 0)
(0.66194185 0 0)
(0.69472166 0 0)
(0.044924184 0 0)
(0.12937332 0 0)
(0.20722042 0 0)
(0.27891793 0 0)
(0.34478263 0 0)
(0.40509173 0 0)
(0.46009019 0 0)
(0.50999839 0 0)
(0.55509507 0 0)
(0.59577337 0 0)
(0.63257084 0 0)
(0.6661605 0 0)
(0.69737144 0 0)
(0.72735621 0 0)
(0.045117484 0 0)
(0.12996875 0 0)
(0.20826571 0 0)
(0.28048488 0 0)
(0.34693682 0 0)
(0.40788794 0 0)
(0.4635844 0 0)
(0.51422396 0 0)
(0.55999938 0 0)
(0.60118407 0 0)
(0.63818934 0 0)
(0.67153413 0 0)
(0.70189812 0 0)
(0.73018752 0 0)
(0.75752047 0 0)
(0.04528683 0 0)
(0.13049474 0 0)
(0.20919589 0 0)
(0.28188777 0 0)
(0.3488839 0 0)
(0.4104543 0 0)
(0.4668348 0 0)
(0.51821191 0 0)
(0.56474978 0 0)
(0.60662083 0 0)
(0.64411214 0 0)
(0.67763097 0 0)
(0.70771254 0 0)
(0.73505563 0 0)
(0.76054356 0 0)
(0.78540044 0 0)
(0.045436373 0 0)
(0.13095802 0 0)
(0.21001462 0 0)
(0.28313538 0 0)
(0.35063442 0 0)
(0.41277627 0 0)
(0.46980885 0 0)
(0.52191794 0 0)
(0.56923715 0 0)
(0.61189648 0 0)
(0.65008311 0 0)
(0.68408198 0 0)
(0.71430684 0 0)
(0.74128177 0 0)
(0.76572839 0 0)
(0.78860917 0 0)
(0.81111332 0 0)
(0.045566475 0 0)
(0.13136276 0 0)
(0.21073345 0 0)
(0.28423418 0 0)
(0.35218533 0 0)
(0.41486024 0 0)
(0.47250924 0 0)
(0.52531385 0 0)
(0.57340669 0 0)
(0.61689729 0 0)
(0.65589941 0 0)
(0.6905944 0 0)
(0.72128591 0 0)
(0.74837116 0 0)
(0.77240681 0 0)
(0.79413895 0 0)
(0.81451242 0 0)
(0.83482453 0 0)
(0.045680011 0 0)
(0.13171617 0 0)
(0.2113579 0 0)
(0.28519691 0 0)
(0.35355842 0 0)
(0.41671178 0 0)
(0.47492562 0 0)
(0.52839593 0 0)
(0.57723751 0 0)
(0.62154996 0 0)
(0.66142914 0 0)
(0.69696771 0 0)
(0.72835809 0 0)
(0.7559006 0 0)
(0.78000992 0 0)
(0.80123918 0 0)
(0.82036738 0 0)
(0.83841111 0 0)
(0.85663551 0 0)
(0.045778573 0 0)
(0.13202254 0 0)
(0.21190094 0 0)
(0.28603509 0 0)
(0.35475664 0 0)
(0.41834544 0 0)
(0.4770797 0 0)
(0.5311608 0 0)
(0.58071027 0 0)
(0.62582626 0 0)
(0.66658216 0 0)
(0.70303526 0 0)
(0.73528874 0 0)
(0.7635371 0 0)
(0.78808992 0 0)
(0.80935435 0 0)
(0.8279286 0 0)
(0.84461305 0 0)
(0.86041381 0 0)
(0.87669919 0 0)
(0.045863186 0 0)
(0.13228722 0 0)
(0.21236835 0 0)
(0.28676121 0 0)
(0.35580607 0 0)
(0.41977797 0 0)
(0.47897452 0 0)
(0.53362278 0 0)
(0.58383713 0 0)
(0.62970848 0 0)
(0.67131796 0 0)
(0.70870848 0 0)
(0.74191762 0 0)
(0.7710474 0 0)
(0.79631058 0 0)
(0.81800455 0 0)
(0.83656898 0 0)
(0.85260239 0 0)
(0.8669426 0 0)
(0.88066376 0 0)
(0.89510177 0 0)
(0.045936985 0 0)
(0.13251607 0 0)
(0.21277325 0 0)
(0.28738826 0 0)
(0.35671093 0 0)
(0.42102524 0 0)
(0.48064009 0 0)
(0.5357965 0 0)
(0.58661831 0 0)
(0.63320583 0 0)
(0.67563155 0 0)
(0.71393326 0 0)
(0.74813168 0 0)
(0.77825121 0 0)
(0.80440789 0 0)
(0.82681509 0 0)
(0.84578847 0 0)
(0.86176466 0 0)
(0.87539532 0 0)
(0.88753511 0 0)
(0.89925204 0 0)
(0.91197971 0 0)
(0.045999523 0 0)
(0.13271153 0 0)
(0.21311937 0 0)
(0.28792679 0 0)
(0.35749722 0 0)
(0.42210877 0 0)
(0.48208627 0 0)
(0.53770345 0 0)
(0.58908323 0 0)
(0.63632397 0 0)
(0.6795143 0 0)
(0.71869434 0 0)
(0.75386425 0 0)
(0.785019 0 0)
(0.81219766 0 0)
(0.83551895 0 0)
(0.85520546 0 0)
(0.87156863 0 0)
(0.88508833 0 0)
(0.89641655 0 0)
(0.90644862 0 0)
(0.91631142 0 0)
(0.92740795 0 0)
(0.046054636 0 0)
(0.13288075 0 0)
(0.21341963 0 0)
(0.28839006 0 0)
(0.35816922 0 0)
(0.42304332 0 0)
(0.48334564 0 0)
(0.53936734 0 0)
(0.59124314 0 0)
(0.6390862 0 0)
(0.68298785 0 0)
(0.72298835 0 0)
(0.75909211 0 0)
(0.79128223 0 0)
(0.81954143 0 0)
(0.84390837 0 0)
(0.86452188 0 0)
(0.88159628 0 0)
(0.89547255 0 0)
(0.9066343 0 0)
(0.91578748 0 0)
(0.92384084 0 0)
(0.93191954 0 0)
(0.94151204 0 0)
(0.046100918 0 0)
(0.13302467 0 0)
(0.21367582 0 0)
(0.2887858 0 0)
(0.35875042 0 0)
(0.42385089 0 0)
(0.48442883 0 0)
(0.54081079 0 0)
(0.59313486 0 0)
(0.64151467 0 0)
(0.68606261 0 0)
(0.72683298 0 0)
(0.76382001 0 0)
(0.79700345 0 0)
(0.8263562 0 0)
(0.85184758 0 0)
(0.87352988 0 0)
(0.89154481 0 0)
(0.90612389 0 0)
(0.9176096 0 0)
(0.92653388 0 0)
(0.933602 0 0)
(0.93976426 0 0)
(0.94619697 0 0)
(0.9543563 0 0)
(0.046142261 0 0)
(0.13315014 0 0)
(0.21389876 0 0)
(0.28912585 0 0)
(0.35924416 0 0)
(0.42454269 0 0)
(0.48536662 0 0)
(0.54206075 0 0)
(0.59477432 0 0)
(0.6436382 0 0)
(0.68877427 0 0)
(0.73024467 0 0)
(0.76805374 0 0)
(0.80218465 0 0)
(0.83259521 0 0)
(0.85922931 0 0)
(0.8820709 0 0)
(0.90117967 0 0)
(0.91670727 0 0)
(0.92888444 0 0)
(0.93809272 0 0)
(0.94486823 0 0)
(0.9499706 0 0)
(0.9543596 0 0)
(0.95921004 0 0)
(0.96605246 0 0)
(0.046176766 0 0)
(0.13325637 0 0)
(0.21408954 0 0)
(0.28941601 0 0)
(0.35967053 0 0)
(0.425139 0 0)
(0.48616865 0 0)
(0.54313686 0 0)
(0.59619835 0 0)
(0.64548582 0 0)
(0.69114328 0 0)
(0.73325452 0 0)
(0.77182327 0 0)
(0.80683187 0 0)
(0.83824871 0 0)
(0.86600879 0 0)
(0.89004384 0 0)
(0.91034328 0 0)
(0.92698644 0 0)
(0.94011909 0 0)
(0.94999958 0 0)
(0.95701633 0 0)
(0.96175521 0 0)
(0.96497517 0 0)
(0.96767492 0 0)
(0.97106941 0 0)
(0.97665708 0 0)
(0.046208147 0 0)
(0.13335013 0 0)
(0.21425724 0 0)
(0.28966687 0 0)
(0.36003248 0 0)
(0.42564867 0 0)
(0.48686262 0 0)
(0.54406489 0 0)
(0.59742294 0 0)
(0.647086 0 0)
(0.69320982 0 0)
(0.735892 0 0)
(0.77514893 0 0)
(0.81097598 0 0)
(0.84333737 0 0)
(0.87216582 0 0)
(0.897384 0 0)
(0.918921 0 0)
(0.93678143 0 0)
(0.95104823 0 0)
(0.96188406 0 0)
(0.96955177 0 0)
(0.97448263 0 0)
(0.97726729 0 0)
(0.97871673 0 0)
(0.97983418 0 0)
(0.98183251 0 0)
(0.98627183 0 0)
(0.04623387 0 0)
(0.13342976 0 0)
(0.21440254 0 0)
(0.28988257 0 0)
(0.36034615 0 0)
(0.42608837 0 0)
(0.48745526 0 0)
(0.54486096 0 0)
(0.59848164 0 0)
(0.64846888 0 0)
(0.69499744 0 0)
(0.73819181 0 0)
(0.77807271 0 0)
(0.81463984 0 0)
(0.84787497 0 0)
(0.87771541 0 0)
(0.90406704 0 0)
(0.9268379 0 0)
(0.94597603 0 0)
(0.96149225 0 0)
(0.97347766 0 0)
(0.98209667 0 0)
(0.98764896 0 0)
(0.99057365 0 0)
(0.99151014 0 0)
(0.99126652 0 0)
(0.99088113 0 0)
(0.99159851 0 0)
(0.99494562 0 0)
(0.046258711 0 0)
(0.13350196 0 0)
(0.21453197 0 0)
(0.29007158 0 0)
(0.36061445 0 0)
(0.4264653 0 0)
(0.48797059 0 0)
(0.54554829 0 0)
(0.59938853 0 0)
(0.64965914 0 0)
(0.69654528 0 0)
(0.74018849 0 0)
(0.7806216 0 0)
(0.81786341 0 0)
(0.85190194 0 0)
(0.88267537 0 0)
(0.91009668 0 0)
(0.93406665 0 0)
(0.9544892 0 0)
(0.971316 0 0)
(0.98457571 0 0)
(0.99435689 0 0)
(1.0008497 0 0)
(1.0043635 0 0)
(1.0053818 0 0)
(1.0045473 0 0)
(1.0027163 0 0)
(1.0009261 0 0)
(1.0004173 0 0)
(1.0027682 0 0)
(0.046084057 0 0)
(0.1335674 0 0)
(0.21464745 0 0)
(0.29023801 0 0)
(0.36084987 0 0)
(0.4267932 0 0)
(0.48841285 0 0)
(0.54613879 0 0)
(0.60017194 0 0)
(0.65068472 0 0)
(0.69787527 0 0)
(0.74191451 0 0)
(0.78284128 0 0)
(0.82068096 0 0)
(0.85544441 0 0)
(0.88708423 0 0)
(0.91550373 0 0)
(0.9406021 0 0)
(0.96228164 0 0)
(0.98044222 0 0)
(0.9950457 0 0)
(1.0061247 0 0)
(1.0137849 0 0)
(1.0182243 0 0)
(1.0197921 0 0)
(1.0189791 0 0)
(1.0164741 0 0)
(1.0131284 0 0)
(1.0100088 0 0)
(1.0083784 0 0)
(1.0097829 0 0)
(0.04587011 0 0)
(0.1331979 0 0)
(0.21475799 0 0)
(0.2903874 0 0)
(0.36105625 0 0)
(0.42707785 0 0)
(0.48880103 0 0)
(0.54665133 0 0)
(0.60084343 0 0)
(0.65156512 0 0)
(0.69902147 0 0)
(0.7434045 0 0)
(0.78475961 0 0)
(0.82313418 0 0)
(0.85855242 0 0)
(0.89097363 0 0)
(0.92031224 0 0)
(0.94647317 0 0)
(0.96934605 0 0)
(0.98881498 0 0)
(1.0047924 0 0)
(1.0172479 0 0)
(1.0262244 0 0)
(1.0318324 0 0)
(1.0343038 0 0)
(1.0339982 0 0)
(1.0314493 0 0)
(1.0273475 0 0)
(1.0225865 0 0)
(1.0182263 0 0)
(1.0155257 0 0)
(1.0160702 0 0)
(0.045676652 0 0)
(0.13255227 0 0)
(0.21421659 0 0)
(0.2905315 0 0)
(0.36124083 0 0)
(0.42732924 0 0)
(0.48913862 0 0)
(0.54709522 0 0)
(0.60142596 0 0)
(0.65232426 0 0)
(0.70000344 0 0)
(0.74468559 0 0)
(0.78642011 0 0)
(0.82526069 0 0)
(0.86125719 0 0)
(0.89439003 0 0)
(0.92457156 0 0)
(0.95170539 0 0)
(0.97569615 0 0)
(0.99642527 0 0)
(1.0137657 0 0)
(1.0276329 0 0)
(1.0380143 0 0)
(1.0449539 0 0)
(1.0485874 0 0)
(1.0491591 0 0)
(1.047069 0 0)
(1.042856 0 0)
(1.037253 0 0)
(1.0311447 0 0)
(1.0256149 0 0)
(1.0219383 0 0)
(1.0216681 0 0)
(0.045506446 0 0)
(0.13197447 0 0)
(0.21319143 0 0)
(0.28982783 0 0)
(0.36141819 0 0)
(0.42755432 0 0)
(0.48944008 0 0)
(0.54748568 0 0)
(0.60192902 0 0)
(0.6529776 0 0)
(0.70084887 0 0)
(0.74578906 0 0)
(0.78784736 0 0)
(0.82709847 0 0)
(0.86360964 0 0)
(0.89737381 0 0)
(0.92831386 0 0)
(0.9563482 0 0)
(0.98137699 0 0)
(1.0032841 0 0)
(1.021942 0 0)
(1.0372196 0 0)
(1.0490455 0 0)
(1.0574147 0 0)
(1.062388 0 0)
(1.0641113 0 0)
(1.0628655 0 0)
(1.0590606 0 0)
(1.0532753 0 0)
(1.0462409 0 0)
(1.0388786 0 0)
(1.0322601 0 0)
(1.0276547 0 0)
(1.0266467 0 0)
(0.045358882 0 0)
(0.13146194 0 0)
(0.21227248 0 0)
(0.28845263 0 0)
(0.3605685 0 0)
(0.4277686 0 0)
(0.48971016 0 0)
(0.54783078 0 0)
(0.60237014 0 0)
(0.65354469 0 0)
(0.70157501 0 0)
(0.7467367 0 0)
(0.7890805 0 0)
(0.8286843 0 0)
(0.86564119 0 0)
(0.89997059 0 0)
(0.93159657 0 0)
(0.96043917 0 0)
(0.98641853 0 0)
(1.009428 0 0)
(1.0293273 0 0)
(1.0459702 0 0)
(1.0592503 0 0)
(1.0691038 0 0)
(1.0755286 0 0)
(1.0785951 0 0)
(1.0784828 0 0)
(1.0754856 0 0)
(1.0700519 0 0)
(1.0627634 0 0)
(1.0543884 0 0)
(1.0458358 0 0)
(1.0381952 0 0)
(1.0327455 0 0)
(1.03104 0 0)
(0.04523669 0 0)
(0.13102168 0 0)
(0.21145995 0 0)
(0.28721961 0 0)
(0.35887582 0 0)
(0.42679598 0 0)
(0.48996852 0 0)
(0.54814018 0 0)
(0.6027589 0 0)
(0.65403786 0 0)
(0.70220285 0 0)
(0.74755576 0 0)
(0.79013943 0 0)
(0.83005005 0 0)
(0.8673987 0 0)
(0.90222263 0 0)
(0.93445342 0 0)
(0.96403111 0 0)
(0.9908796 0 0)
(1.0148952 0 0)
(1.0359522 0 0)
(1.0539028 0 0)
(1.0686044 0 0)
(1.0799476 0 0)
(1.0878819 0 0)
(1.0924152 0 0)
(1.0936423 0 0)
(1.0917562 0 0)
(1.0870878 0 0)
(1.0800933 0 0)
(1.0713897 0 0)
(1.0617408 0 0)
(1.0520849 0 0)
(1.0434948 0 0)
(1.0372447 0 0)
(1.0349098 0 0)
(0.045139513 0 0)
(0.13065427 0 0)
(0.21076053 0 0)
(0.28613101 0 0)
(0.35735785 0 0)
(0.42482135 0 0)
(0.48889211 0 0)
(0.54843535 0 0)
(0.60310576 0 0)
(0.65447179 0 0)
(0.70274814 0 0)
(0.74826289 0 0)
(0.79105737 0 0)
(0.8312287 0 0)
(0.86891053 0 0)
(0.90417047 0 0)
(0.93694214 0 0)
(0.96716841 0 0)
(0.99479628 0 0)
(1.0197394 0 0)
(1.0418689 0 0)
(1.0610362 0 0)
(1.0770901 0 0)
(1.0898973 0 0)
(1.099366 0 0)
(1.1054409 0 0)
(1.1081448 0 0)
(1.1075893 0 0)
(1.1040029 0 0)
(1.0977278 0 0)
(1.0892562 0 0)
(1.0792043 0 0)
(1.0683674 0 0)
(1.0576673 0 0)
(1.0481894 0 0)
(1.0412137 0 0)
(1.0382861 0 0)
(0.045069123 0 0)
(0.13036459 0 0)
(0.21017804 0 0)
(0.28519324 0 0)
(0.35601844 0 0)
(0.42305381 0 0)
(0.48667185 0 0)
(0.5472574 0 0)
(0.60343585 0 0)
(0.65485869 0 0)
(0.70322584 0 0)
(0.74888006 0 0)
(0.79184974 0 0)
(0.8322454 0 0)
(0.87021685 0 0)
(0.90585465 0 0)
(0.9390945 0 0)
(0.96990088 0 0)
(0.99823125 0 0)
(1.0240064 0 0)
(1.0471135 0 0)
(1.0674132 0 0)
(1.0847476 0 0)
(1.0989646 0 0)
(1.1099415 0 0)
(1.1175812 0 0)
(1.121844 0 0)
(1.1227691 0 0)
(1.1204971 0 0)
(1.1152712 0 0)
(1.1074683 0 0)
(1.0975862 0 0)
(1.0862707 0 0)
(1.0743086 0 0)
(1.0626445 0 0)
(1.052344 0 0)
(1.0446829 0 0)
(1.041222 0 0)
(0.045025369 0 0)
(0.13015298 0 0)
(0.20971782 0 0)
(0.28441376 0 0)
(0.35486426 0 0)
(0.42149285 0 0)
(0.48468493 0 0)
(0.54480652 0 0)
(0.60216437 0 0)
(0.65522176 0 0)
(0.70365198 0 0)
(0.74942188 0 0)
(0.79254365 0 0)
(0.83312832 0 0)
(0.87134206 0 0)
(0.90730821 0 0)
(0.94096288 0 0)
(0.97227372 0 0)
(1.0012219 0 0)
(1.027751 0 0)
(1.0517518 0 0)
(1.0730875 0 0)
(1.0916091 0 0)
(1.1071619 0 0)
(1.1195925 0 0)
(1.1287784 0 0)
(1.1346418 0 0)
(1.1371451 0 0)
(1.136351 0 0)
(1.1324189 0 0)
(1.1256262 0 0)
(1.1163596 0 0)
(1.105148 0 0)
(1.092633 0 0)
(1.0796269 0 0)
(1.0670532 0 0)
(1.0559867 0 0)
(1.047706 0 0)
(1.0437447 0 0)
(0.045009021 0 0)
(0.13002237 0 0)
(0.20938215 0 0)
(0.28379711 0 0)
(0.35390553 0 0)
(0.42015047 0 0)
(0.48293089 0 0)
(0.54261255 0 0)
(0.59949947 0 0)
(0.65386974 0 0)
(0.70405195 0 0)
(0.74990363 0 0)
(0.79315236 0 0)
(0.83389682 0 0)
(0.87231904 0 0)
(0.90856661 0 0)
(0.94257483 0 0)
(0.97433029 0 0)
(1.0038283 0 0)
(1.0310236 0 0)
(1.0558236 0 0)
(1.078107 0 0)
(1.0977275 0 0)
(1.1145276 0 0)
(1.1283446 0 0)
(1.1390333 0 0)
(1.1464833 0 0)
(1.1506097 0 0)
(1.1513997 0 0)
(1.1489366 0 0)
(1.1434104 0 0)
(1.135112 0 0)
(1.1244592 0 0)
(1.1119831 0 0)
(1.0983498 0 0)
(1.0843583 0 0)
(1.0709481 0 0)
(1.0591733 0 0)
(1.0503102 0 0)
(1.0459002 0 0)
(0.12997329 0 0)
(0.045013826 0 0)
(0.20917471 0 0)
(0.28334873 0 0)
(0.35314716 0 0)
(0.41903461 0 0)
(0.4814228 0 0)
(0.54067799 0 0)
(0.5971143 0 0)
(0.65100885 0 0)
(0.70263222 0 0)
(0.75035638 0 0)
(0.79369421 0 0)
(0.83457318 0 0)
(0.87316805 0 0)
(0.90965645 0 0)
(0.9439751 0 0)
(0.97611244 0 0)
(1.0060857 0 0)
(1.0338751 0 0)
(1.0593957 0 0)
(1.0825327 0 0)
(1.1031515 0 0)
(1.1211041 0 0)
(1.1362278 0 0)
(1.1483556 0 0)
(1.1573447 0 0)
(1.1630907 0 0)
(1.1655288 0 0)
(1.1646555 0 0)
(1.1605832 0 0)
(1.1535198 0 0)
(1.1437882 0 0)
(1.1318127 0 0)
(1.1181505 0 0)
(1.1034598 0 0)
(1.0885595 0 0)
(1.0743616 0 0)
(1.0619297 0 0)
(1.0525413 0 0)
(1.0477124 0 0)
(0.20909606 0 0)
(0.1299874 0 0)
(0.045039526 0 0)
(0.28307108 0 0)
(0.3525963 0 0)
(0.41815412 0 0)
(0.48016999 0 0)
(0.53901393 0 0)
(0.5950126 0 0)
(0.64845192 0 0)
(0.69960101 0 0)
(0.74888039 0 0)
(0.79420111 0 0)
(0.83517385 0 0)
(0.87391487 0 0)
(0.91060749 0 0)
(0.94518673 0 0)
(0.97765583 0 0)
(1.0080471 0 0)
(1.0363546 0 0)
(1.0625088 0 0)
(1.0864135 0 0)
(1.1079427 0 0)
(1.1269531 0 0)
(1.1432852 0 0)
(1.1567733 0 0)
(1.1672494 0 0)
(1.1745773 0 0)
(1.1786656 0 0)
(1.1794513 0 0)
(1.1769625 0 0)
(1.1713325 0 0)
(1.1627988 0 0)
(1.1516955 0 0)
(1.1384731 0 0)
(1.1236879 0 0)
(1.1080181 0 0)
(1.0922613 0 0)
(1.0773419 0 0)
(1.0643038 0 0)
(1.0544239 0 0)
(1.0492204 0 0)
(0.28296757 0 0)
(0.20911804 0 0)
(0.13006492 0 0)
(0.04509271 0 0)
(0.35225578 0 0)
(0.41751464 0 0)
(0.47918197 0 0)
(0.53763326 0 0)
(0.59320534 0 0)
(0.64619697 0 0)
(0.69689327 0 0)
(0.74569637 0 0)
(0.79267813 0 0)
(0.83573322 0 0)
(0.87457771 0 0)
(0.91144157 0 0)
(0.94624527 0 0)
(0.97899657 0 0)
(1.0097438 0 0)
(1.0385066 0 0)
(1.0652248 0 0)
(1.0898113 0 0)
(1.112154 0 0)
(1.1321243 0 0)
(1.1495716 0 0)
(1.164326 0 0)
(1.1762136 0 0)
(1.1850739 0 0)
(1.1907767 0 0)
(1.193237 0 0)
(1.1924186 0 0)
(1.1883642 0 0)
(1.1812376 0 0)
(1.1712916 0 0)
(1.1588885 0 0)
(1.1444818 0 0)
(1.1286491 0 0)
(1.1120567 0 0)
(1.0955146 0 0)
(1.079917 0 0)
(1.0663193 0 0)
(1.0559974 0 0)
(1.0504459 0 0)
(0.3521297 0 0)
(0.28299789 0 0)
(0.20923922 0 0)
(0.13022351 0 0)
(0.045172212 0 0)
(0.41712137 0 0)
(0.47846525 0 0)
(0.53654407 0 0)
(0.59170694 0 0)
(0.64426033 0 0)
(0.69450592 0 0)
(0.74285129 0 0)
(0.78935248 0 0)
(0.83417184 0 0)
(0.87519416 0 0)
(0.91218005 0 0)
(0.9471718 0 0)
(0.98016324 0 0)
(1.0112198 0 0)
(1.0403752 0 0)
(1.0675819 0 0)
(1.0927724 0 0)
(1.1158455 0 0)
(1.1366842 0 0)
(1.1551438 0 0)
(1.1710655 0 0)
(1.1842765 0 0)
(1.1945992 0 0)
(1.2018745 0 0)
(1.2059852 0 0)
(1.2068612 0 0)
(1.2044758 0 0)
(1.1989067 0 0)
(1.1903371 0 0)
(1.1790463 0 0)
(1.1654051 0 0)
(1.149888 0 0)
(1.1330679 0 0)
(1.1156266 0 0)
(1.0983456 0 0)
(1.0821296 0 0)
(1.0680168 0 0)
(1.0572839 0 0)
(1.0514221 0 0)
(0.4169777 0 0)
(0.35216882 0 0)
(0.28316282 0 0)
(0.20949067 0 0)
(0.1304636 0 0)
(0.045278577 0 0)
(0.47802565 0 0)
(0.53575538 0 0)
(0.590526 0 0)
(0.64265411 0 0)
(0.69245635 0 0)
(0.74034542 0 0)
(0.78638308 0 0)
(0.8307181 0 0)
(0.87360207 0 0)
(0.91286379 0 0)
(0.94799036 0 0)
(0.98118488 0 0)
(1.0125025 0 0)
(1.0419975 0 0)
(1.0696337 0 0)
(1.0953536 0 0)
(1.1190701 0 0)
(1.1406831 0 0)
(1.1600635 0 0)
(1.1770545 0 0)
(1.1914875 0 0)
(1.2031868 0 0)
(1.2119726 0 0)
(1.2176936 0 0)
(1.2202428 0 0)
(1.2195647 0 0)
(1.2156626 0 0)
(1.2086305 0 0)
(1.1986804 0 0)
(1.1861041 0 0)
(1.1712955 0 0)
(1.154729 0 0)
(1.1369937 0 0)
(1.1187543 0 0)
(1.1008 0 0)
(1.0840041 0 0)
(1.0694179 0 0)
(1.0583162 0 0)
(1.0521684 0 0)
(0.47786692 0 0)
(0.41702672 0 0)
(0.35237345 0 0)
(0.2835013 0 0)
(0.20986857 0 0)
(0.13078136 0 0)
(0.045409652 0 0)
(0.53527188 0 0)
(0.58967184 0 0)
(0.64138964 0 0)
(0.69075732 0 0)
(0.73819373 0 0)
(0.78376929 0 0)
(0.8276376 0 0)
(0.87003244 0 0)
(0.91124276 0 0)
(0.94874465 0 0)
(0.98208634 0 0)
(1.0136256 0 0)
(1.0434108 0 0)
(1.0714142 0 0)
(1.0975964 0 0)
(1.1218821 0 0)
(1.1441863 0 0)
(1.1643897 0 0)
(1.1823498 0 0)
(1.1979074 0 0)
(1.210885 0 0)
(1.2210976 0 0)
(1.2283723 0 0)
(1.2325664 0 0)
(1.2335867 0 0)
(1.2313983 0 0)
(1.2260196 0 0)
(1.2175787 0 0)
(1.2063041 0 0)
(1.1925097 0 0)
(1.1765951 0 0)
(1.1590505 0 0)
(1.1404558 0 0)
(1.1214871 0 0)
(1.1029 0 0)
(1.0855774 0 0)
(1.0705574 0 0)
(1.0591148 0 0)
(1.0527116 0 0)
(0.53509913 0 0)
(0.47792478 0 0)
(0.41726909 0 0)
(0.35279266 0 0)
(0.28401158 0 0)
(0.21037268 0 0)
(0.1311774 0 0)
(0.045566089 0 0)
(0.58915067 0 0)
(0.6404759 0 0)
(0.68942014 0 0)
(0.73641092 0 0)
(0.78152619 0 0)
(0.82492631 0 0)
(0.86685107 0 0)
(0.90756124 0 0)
(0.94710219 0 0)
(0.98291082 0 0)
(1.0146153 0 0)
(1.0446468 0 0)
(1.0729672 0 0)
(1.0995501 0 0)
(1.1243304 0 0)
(1.1472413 0 0)
(1.1681821 0 0)
(1.1870173 0 0)
(1.2035956 0 0)
(1.2177497 0 0)
(1.2292954 0 0)
(1.2380464 0 0)
(1.2438343 0 0)
(1.2465297 0 0)
(1.2460519 0 0)
(1.2423875 0 0)
(1.2355854 0 0)
(1.2257897 0 0)
(1.2132543 0 0)
(1.1983017 0 0)
(1.1813497 0 0)
(1.1628856 0 0)
(1.1434989 0 0)
(1.1238463 0 0)
(1.1046852 0 0)
(1.086871 0 0)
(1.0714548 0 0)
(1.0597064 0 0)
(1.0530694 0 0)
(0.5889666 0 0)
(0.53516495 0 0)
(0.47819869 0 0)
(0.41776098 0 0)
(0.35342279 0 0)
(0.28468996 0 0)
(0.21099752 0 0)
(0.13164586 0 0)
(0.045744978 0 0)
(0.63991893 0 0)
(0.68845542 0 0)
(0.73500798 0 0)
(0.77966892 0 0)
(0.82260132 0 0)
(0.86405143 0 0)
(0.9042802 0 0)
(0.94331788 0 0)
(0.98125766 0 0)
(1.0155176 0 0)
(1.0457333 0 0)
(1.0743236 0 0)
(1.1012499 0 0)
(1.1264617 0 0)
(1.1499073 0 0)
(1.1714978 0 0)
(1.1911134 0 0)
(1.2086176 0 0)
(1.2238478 0 0)
(1.2366241 0 0)
(1.2467602 0 0)
(1.2540694 0 0)
(1.2583928 0 0)
(1.2596141 0 0)
(1.2576726 0 0)
(1.2525784 0 0)
(1.2443973 0 0)
(1.2333043 0 0)
(1.2195659 0 0)
(1.2035217 0 0)
(1.1855923 0 0)
(1.1662763 0 0)
(1.1461486 0 0)
(1.1258746 0 0)
(1.1061756 0 0)
(1.0879172 0 0)
(1.0721382 0 0)
(1.0601097 0 0)
(1.0532652 0 0)
(0.63972502 0 0)
(0.58904296 0 0)
(0.53546969 0 0)
(0.47875395 0 0)
(0.41850052 0 0)
(0.35426106 0 0)
(0.28553275 0 0)
(0.21174166 0 0)
(0.1321881 0 0)
(0.045947294 0 0)
(0.68786779 0 0)
(0.73399514 0 0)
(0.77820915 0 0)
(0.82067691 0 0)
(0.86165221 0 0)
(0.90139563 0 0)
(0.93994571 0 0)
(0.97738003 0 0)
(1.0138597 0 0)
(1.0467235 0 0)
(1.0755151 0 0)
(1.1027358 0 0)
(1.1283185 0 0)
(1.1522268 0 0)
(1.174391 0 0)
(1.1947018 0 0)
(1.2130337 0 0)
(1.2292388 0 0)
(1.2431444 0 0)
(1.2545643 0 0)
(1.2633075 0 0)
(1.2691943 0 0)
(1.2720762 0 0)
(1.2718528 0 0)
(1.2684813 0 0)
(1.2619971 0 0)
(1.2524935 0 0)
(1.2401592 0 0)
(1.2252818 0 0)
(1.2082056 0 0)
(1.1893646 0 0)
(1.1692514 0 0)
(1.1484443 0 0)
(1.1275898 0 0)
(1.107405 0 0)
(1.0887336 0 0)
(1.0726255 0 0)
(1.0603474 0 0)
(1.053315 0 0)
(0.68766652 0 0)
(0.63980851 0 0)
(0.58937749 0 0)
(0.53608516 0 0)
(0.47958641 0 0)
(0.41948129 0 0)
(0.35530075 0 0)
(0.28653368 0 0)
(0.21259665 0 0)
(0.13279609 0 0)
(0.046170357 0 0)
(0.73337957 0 0)
(0.77715644 0 0)
(0.81916532 0 0)
(0.85966671 0 0)
(0.89892278 0 0)
(0.93698354 0 0)
(0.97392995 0 0)
(1.0098983 0 0)
(1.0450629 0 0)
(1.0765981 0 0)
(1.1040402 0 0)
(1.1299402 0 0)
(1.1542501 0 0)
(1.1769138 0 0)
(1.1978351 0 0)
(1.2169067 0 0)
(1.2339909 0 0)
(1.2489223 0 0)
(1.2615223 0 0)
(1.2716016 0 0)
(1.278969 0 0)
(1.2834509 0 0)
(1.2849141 0 0)
(1.2832735 0 0)
(1.2785111 0 0)
(1.2706865 0 0)
(1.2599091 0 0)
(1.2463933 0 0)
(1.2304356 0 0)
(1.2123921 0 0)
(1.192697 0 0)
(1.171849 0 0)
(1.150409 0 0)
(1.1290287 0 0)
(1.1083903 0 0)
(1.0893475 0 0)
(1.0729422 0 0)
(1.0604373 0 0)
(1.0532371 0 0)
(0.73316678 0 0)
(0.68775724 0 0)
(0.64017179 0 0)
(0.590051 0 0)
(0.5370064 0 0)
(0.48069133 0 0)
(0.4207 0 0)
(0.35653728 0 0)
(0.28768805 0 0)
(0.21356185 0 0)
(0.13347315 0 0)
(0.04635343 0 0)
(0.77651895 0 0)
(0.81807632 0 0)
(0.85810798 0 0)
(0.89687777 0 0)
(0.93444361 0 0)
(0.97089667 0 0)
(1.0063773 0 0)
(1.0410246 0 0)
(1.0749441 0 0)
(1.1052176 0 0)
(1.1313608 0 0)
(1.1560155 0 0)
(1.1791127 0 0)
(1.2005709 0 0)
(1.2202945 0 0)
(1.2381628 0 0)
(1.2540225 0 0)
(1.2677002 0 0)
(1.2790118 0 0)
(1.2877657 0 0)
(1.2937708 0 0)
(1.2968657 0 0)
(1.2969326 0 0)
(1.2939078 0 0)
(1.2877934 0 0)
(1.2786737 0 0)
(1.2666815 0 0)
(1.2520418 0 0)
(1.2350672 0 0)
(1.2161146 0 0)
(1.1956271 0 0)
(1.174095 0 0)
(1.1520764 0 0)
(1.130206 0 0)
(1.1091601 0 0)
(1.0897778 0 0)
(1.0731046 0 0)
(1.0603972 0 0)
(1.0530262 0 0)
(0.77630099 0 0)
(0.73326315 0 0)
(0.68814535 0 0)
(0.64089547 0 0)
(0.591055 0 0)
(0.53822833 0 0)
(0.4820603 0 0)
(0.42214559 0 0)
(0.35796141 0 0)
(0.28898616 0 0)
(0.21463053 0 0)
(0.13387257 0 0)
(0.046336761 0 0)
(0.81741727 0 0)
(0.85698603 0 0)
(0.89527126 0 0)
(0.93234509 0 0)
(0.96829936 0 0)
(1.0032812 0 0)
(1.0374343 0 0)
(1.0708364 0 0)
(1.1035807 0 0)
(1.132642 0 0)
(1.1575612 0 0)
(1.181032 0 0)
(1.2029555 0 0)
(1.2232536 0 0)
(1.2418195 0 0)
(1.2585103 0 0)
(1.2731638 0 0)
(1.2856038 0 0)
(1.2956385 0 0)
(1.303073 0 0)
(1.3077309 0 0)
(1.3094608 0 0)
(1.3081592 0 0)
(1.3037829 0 0)
(1.2963609 0 0)
(1.2859992 0 0)
(1.2728444 0 0)
(1.2571416 0 0)
(1.2392086 0 0)
(1.2194087 0 0)
(1.1981831 0 0)
(1.1760224 0 0)
(1.1534657 0 0)
(1.1311534 0 0)
(1.109734 0 0)
(1.0900474 0 0)
(1.0731328 0 0)
(1.0601507 0 0)
(1.052668 0 0)
(0.8171941 0 0)
(0.77640454 0 0)
(0.73366684 0 0)
(0.68891367 0 0)
(0.64197826 0 0)
(0.59238774 0 0)
(0.53974207 0 0)
(0.48368651 0 0)
(0.42381187 0 0)
(0.35956473 0 0)
(0.29043005 0 0)
(0.21521749 0 0)
(0.13383369 0 0)
(0.046319646 0 0)
(0.85630762 0 0)
(0.89411477 0 0)
(0.9306962 0 0)
(0.96615084 0 0)
(1.0006321 0 0)
(1.0342823 0 0)
(1.0671853 0 0)
(1.0994097 0 0)
(1.1310249 0 0)
(1.1589519 0 0)
(1.182712 0 0)
(1.2050378 0 0)
(1.2258362 0 0)
(1.2450155 0 0)
(1.2624474 0 0)
(1.2779795 0 0)
(1.2914449 0 0)
(1.3026584 0 0)
(1.3114243 0 0)
(1.3175558 0 0)
(1.3208814 0 0)
(1.3212634 0 0)
(1.3186193 0 0)
(1.3129301 0 0)
(1.3042445 0 0)
(1.292691 0 0)
(1.2784342 0 0)
(1.2617265 0 0)
(1.2428966 0 0)
(1.2223053 0 0)
(1.2003981 0 0)
(1.1776524 0 0)
(1.154605 0 0)
(1.1318896 0 0)
(1.1101354 0 0)
(1.0901728 0 0)
(1.0728342 0 0)
(1.0597112 0 0)
(1.0521687 0 0)
(0.85607962 0 0)
(0.81730155 0 0)
(0.77682669 0 0)
(0.73447455 0 0)
(0.69006288 0 0)
(0.64340855 0 0)
(0.59403557 0 0)
(0.54153921 0 0)
(0.48555701 0 0)
(0.42568712 0 0)
(0.36134689 0 0)
(0.29119697 0 0)
(0.215148 0 0)
(0.13378951 0 0)
(0.046298112 0 0)
(0.89341458 0 0)
(0.92951054 0 0)
(0.96446539 0 0)
(0.99844009 0 0)
(1.0315829 0 0)
(1.0639829 0 0)
(1.0957097 0 0)
(1.1268042 0 0)
(1.1573623 0 0)
(1.184218 0 0)
(1.2068595 0 0)
(1.2280914 0 0)
(1.2478086 0 0)
(1.2658952 0 0)
(1.2822113 0 0)
(1.2966023 0 0)
(1.3088913 0 0)
(1.3188844 0 0)
(1.326388 0 0)
(1.3312238 0 0)
(1.3332346 0 0)
(1.3322939 0 0)
(1.3283404 0 0)
(1.3213768 0 0)
(1.3114772 0 0)
(1.2987877 0 0)
(1.2834835 0 0)
(1.2658314 0 0)
(1.2461617 0 0)
(1.2248367 0 0)
(1.2022945 0 0)
(1.1790127 0 0)
(1.1555192 0 0)
(1.1324405 0 0)
(1.110382 0 0)
(1.0898146 0 0)
(1.0722497 0 0)
(1.0591436 0 0)
(1.0515247 0 0)
(0.89317776 0 0)
(0.8561911 0 0)
(0.81774049 0 0)
(0.77767051 0 0)
(0.7356777 0 0)
(0.69157901 0 0)
(0.6451818 0 0)
(0.59599321 0 0)
(0.54360806 0 0)
(0.48766484 0 0)
(0.42776855 0 0)
(0.36227997 0 0)
(0.29111599 0 0)
(0.21507832 0 0)
(0.13373668 0 0)
(0.046273106 0 0)
(0.92879271 0 0)
(0.96325085 0 0)
(0.99672158 0 0)
(1.0293527 0 0)
(1.0612396 0 0)
(1.0924601 0 0)
(1.1230594 0 0)
(1.1530973 0 0)
(1.1826638 0 0)
(1.2084889 0 0)
(1.2300632 0 0)
(1.2502483 0 0)
(1.2689098 0 0)
(1.2859216 0 0)
(1.3011419 0 0)
(1.314405 0 0)
(1.3255227 0 0)
(1.3342995 0 0)
(1.3405498 0 0)
(1.3441066 0 0)
(1.3448183 0 0)
(1.3425783 0 0)
(1.3373481 0 0)
(1.3291547 0 0)
(1.3180897 0 0)
(1.3043179 0 0)
(1.2880274 0 0)
(1.2694883 0 0)
(1.2490373 0 0)
(1.2270264 0 0)
(1.2039006 0 0)
(1.180131 0 0)
(1.1562311 0 0)
(1.1328233 0 0)
(1.1099596 0 0)
(1.0890377 0 0)
(1.0715562 0 0)
(1.0584414 0 0)
(1.0507358 0 0)
(0.92855082 0 0)
(0.89329028 0 0)
(0.85664356 0 0)
(0.81861376 0 0)
(0.77892597 0 0)
(0.73727184 0 0)
(0.69345896 0 0)
(0.64728175 0 0)
(0.59824401 0 0)
(0.5459348 0 0)
(0.49000303 0 0)
(0.42884579 0 0)
(0.36218613 0 0)
(0.29102853 0 0)
(0.21499499 0 0)
(0.13367139 0 0)
(0.046242622 0 0)
(0.96251683 0 0)
(0.99548305 0 0)
(1.0276011 0 0)
(1.0589752 0 0)
(1.0896815 0 0)
(1.1197737 0 0)
(1.1493146 0 0)
(1.1783573 0 0)
(1.2069768 0 0)
(1.2318256 0 0)
(1.2523816 0 0)
(1.2715456 0 0)
(1.2891697 0 0)
(1.3051276 0 0)
(1.319266 0 0)
(1.3314062 0 0)
(1.3413559 0 0)
(1.3489233 0 0)
(1.3539289 0 0)
(1.3562149 0 0)
(1.3556484 0 0)
(1.3521387 0 0)
(1.3456708 0 0)
(1.3362918 0 0)
(1.3241151 0 0)
(1.3093185 0 0)
(1.2920969 0 0)
(1.2727299 0 0)
(1.2515462 0 0)
(1.2289032 0 0)
(1.2052466 0 0)
(1.1810304 0 0)
(1.1567642 0 0)
(1.1323324 0 0)
(1.1089588 0 0)
(1.0881772 0 0)
(1.0707479 0 0)
(1.057605 0 0)
(1.0497976 0 0)
(0.96226735 0 0)
(0.92866527 0 0)
(0.89375147 0 0)
(0.85754354 0 0)
(0.81991731 0 0)
(0.78058978 0 0)
(0.73924346 0 0)
(0.69568446 0 0)
(0.6496994 0 0)
(0.60077753 0 0)
(0.54852119 0 0)
(0.49119691 0 0)
(0.42872616 0 0)
(0.36208363 0 0)
(0.2909276 0 0)
(0.21489909 0 0)
(0.13359144 0 0)
(0.04620627 0 0)
(0.99473461 0 0)
(1.0263404 0 0)
(1.0571961 0 0)
(1.0873837 0 0)
(1.1169622 0 0)
(1.145998 0 0)
(1.1745435 0 0)
(1.2026363 0 0)
(1.2303619 0 0)
(1.2542865 0 0)
(1.2738519 0 0)
(1.2920107 0 0)
(1.3086208 0 0)
(1.3235408 0 0)
(1.3366029 0 0)
(1.3476218 0 0)
(1.3564059 0 0)
(1.3627681 0 0)
(1.3665392 0 0)
(1.3675744 0 0)
(1.3657507 0 0)
(1.3610016 0 0)
(1.353335 0 0)
(1.3428201 0 0)
(1.3295838 0 0)
(1.313818 0 0)
(1.2957254 0 0)
(1.2755789 0 0)
(1.2537178 0 0)
(1.2304987 0 0)
(1.2063563 0 0)
(1.181736 0 0)
(1.1562031 0 0)
(1.1310823 0 0)
(1.107903 0 0)
(1.0872272 0 0)
(1.0698229 0 0)
(1.0566274 0 0)
(1.0487115 0 0)
(0.99448014 0 0)
(0.96238164 0 0)
(0.92913614 0 0)
(0.89467554 0 0)
(0.85888771 0 0)
(0.82164077 0 0)
(0.78264678 0 0)
(0.74158303 0 0)
(0.69824684 0 0)
(0.65241736 0 0)
(0.6035919 0 0)
(0.54982541 0 0)
(0.49104646 0 0)
(0.42860033 0 0)
(0.361964 0 0)
(0.2908038 0 0)
(0.21478354 0 0)
(0.13349526 0 0)
(0.046162772 0 0)
(1.0255758 0 0)
(1.0559169 0 0)
(1.0855823 0 0)
(1.1146394 0 0)
(1.1431593 0 0)
(1.1711989 0 0)
(1.1987975 0 0)
(1.2259968 0 0)
(1.2528825 0 0)
(1.2759086 0 0)
(1.2944979 0 0)
(1.3116794 0 0)
(1.3272912 0 0)
(1.3411787 0 0)
(1.3531669 0 0)
(1.3630663 0 0)
(1.3706871 0 0)
(1.3758513 0 0)
(1.3783989 0 0)
(1.3781969 0 0)
(1.3751432 0 0)
(1.3691904 0 0)
(1.3603703 0 0)
(1.3487683 0 0)
(1.3345288 0 0)
(1.3178514 0 0)
(1.2989342 0 0)
(1.2780656 0 0)
(1.2555861 0 0)
(1.2318386 0 0)
(1.207256 0 0)
(1.1811199 0 0)
(1.1546901 0 0)
(1.1298098 0 0)
(1.1067868 0 0)
(1.0861832 0 0)
(1.0687758 0 0)
(1.0555116 0 0)
(1.0474717 0 0)
(1.0253152 0 0)
(0.99459451 0 0)
(0.96285842 0 0)
(0.93008094 0 0)
(0.89605447 0 0)
(0.86066481 0 0)
(0.82377663 0 0)
(0.78508976 0 0)
(0.74427427 0 0)
(0.70112716 0 0)
(0.65543578 0 0)
(0.60500353 0 0)
(0.54965528 0 0)
(0.49089044 0 0)
(0.42844457 0 0)
(0.36181288 0 0)
(0.29065631 0 0)
(0.21464693 0 0)
(0.13337834 0 0)
(0.046110225 0 0)
(1.0551405 0 0)
(1.0842826 0 0)
(1.1128151 0 0)
(1.1408152 0 0)
(1.168339 0 0)
(1.1954311 0 0)
(1.2221381 0 0)
(1.2484965 0 0)
(1.2745652 0 0)
(1.2967056 0 0)
(1.3143574 0 0)
(1.3305799 0 0)
(1.3451993 0 0)
(1.3580572 0 0)
(1.3689705 0 0)
(1.3777506 0 0)
(1.3842133 0 0)
(1.3881871 0 0)
(1.3895242 0 0)
(1.3881076 0 0)
(1.3838507 0 0)
(1.3767324 0 0)
(1.3668039 0 0)
(1.3541683 0 0)
(1.3389802 0 0)
(1.3214371 0 0)
(1.3017538 0 0)
(1.2802253 0 0)
(1.2571767 0 0)
(1.2329491 0 0)
(1.2066011 0 0)
(1.1793475 0 0)
(1.153188 0 0)
(1.128508 0 0)