/*--------------------------------*- C++ -*----------------------------------*\
| =========                 |                                                 |
| \\      /  F ield         | OpenFOAM: The Open Source CFD Toolbox           |
|  \\    /   O peration     | Version:  v2012                                 |
|   \\  /    A nd           | Website:  www.openfoam.com                      |
|    \\/     M anipulation  |                                                 |
\*---------------------------------------------------------------------------*/
FoamFile
{
    version     2.0;
    format      ascii;
    class       surfaceScalarField;
    location    "44.0127461100179858";
    object      meshPhi;
}
// * * * * * * * * * * * * * * * * * * * * * * * * * * * * * * * * * * * * * //

dimensions      [0 3 -1 0 0 0 0];
oriented        oriented;


internalField   nonuniform List<scalar> 
18180
(
8.5200872e-14
-0.042150099
0
-0.037956087
0
-0.084074626
8.5114276e-14
-0.034062963
0
-0.076203984
0
-0.12603125
0
-0.03127245
0
-0.068761034
0
-0.11497701
0
-0.16651955
0
-0.029014902
4.1081809e-14
-0.062882242
-7.940455e-14
-0.10433824
0
-0.15312147
-7.4183129e-14
-0.20502979
0
-0.02751976
-4.1040095e-14
-0.058989492
3.9699493e-14
-0.096288995
0
-0.14047547
0
-0.18974694
7.1705167e-14
-0.24051271
0
-0.027327021
4.1015368e-14
-0.057240712
1.9195735e-17
-0.091388079
0
-0.13083833
0
-0.17564012
0
-0.22390579
-6.9246153e-14
-0.27385884
0
-0.027900298
0
-0.057139905
0
-0.089036261
3.8341278e-14
-0.12471027
3.7047845e-14
-0.16444924
-7.1624732e-14
-0.20851264
0
-0.25577902
2.7485359e-17
-0.30468852
0
-0.028491329
4.0968326e-14
-0.057732792
3.9634489e-14
-0.088197132
-2.0051141e-17
-0.12107966
-3.7027668e-14
-0.1565416
-7.1623589e-14
-0.19566938
6.9230162e-14
-0.23910677
0
-0.28530774
0
-0.33353269
0
-0.02850512
0
-0.057855857
3.9613483e-14
-0.087484953
0
-0.11834039
3.7006968e-14
-0.15077731
3.5792025e-14
-0.18555515
3.4597907e-14
-0.22445046
0
-0.26749387
0
-0.31279594
-6.2432887e-14
-0.36002861
0
-0.027781476
0
-0.056618418
0
-0.085564558
7.6556008e-14
-0.11498202
0
-0.14529004
0
-0.17706188
1.5230114e-17
-0.21210723
-3.3409209e-14
-0.25148547
0
-0.29397015
0
-0.33822123
0
-0.38501342
0
-0.026608148
0
-0.054231991
2.0710473e-17
-0.082267013
0
-0.11055192
3.6967282e-14
-0.13933354
-3.5751102e-14
-0.16931591
0
-0.20172763
1.4790552e-17
-0.23761633
0
-0.27689894
6.2411253e-14
-0.3185333
0
-0.36198161
5.827679e-14
-0.40821792
-2.1162938e-14
-0.025288325
0
-0.05139165
0
-0.078215133
1.8766138e-17
-0.10544159
0
-0.13306447
0
-0.16180313
1.5455305e-17
-0.19255114
0
-0.22583697
-3.2255429e-14
-0.26189544
0
-0.30058135
6.028568e-14
-0.34132751
0
-0.38404641
0
-0.43003138
1.2758249e-17
-0.023970656
0
-0.048479038
0
-0.07393369
0
-0.10007104
-3.6932508e-14
-0.12664968
0
-0.15431147
0
-0.18392517
3.3366134e-14
-0.2155752
-3.2249946e-14
-0.24892801
1.315499e-17
-0.2845029
3.0114047e-14
-0.32245537
0
-0.36247301
0
-0.40463207
0
-0.45017359
-2.1136307e-14
-0.022693633
0
-0.045657888
0
-0.069702691
0
-0.094711461
0
-0.12026669
0
-0.14693034
0
-0.17552492
0
-0.20601212
3.2215394e-14
-0.23748685
3.1137238e-14
-0.27031999
3.0107139e-14
-0.30542651
0
-0.34275815
0
-0.38210122
0
-0.42376755
5.2511519e-14
-0.46920977
2.114358e-14
-0.021466981
1.1468587e-17
-0.042972422
0
-0.065632084
1.9090174e-14
-0.089504734
3.6903572e-14
-0.11401518
0
-0.13968004
-3.4469932e-14
-0.16720309
0
-0.19655163
0
-0.22675002
1.3156879e-17
-0.25749194
0
-0.28997912
2.9089963e-14
-0.32480122
1.0273993e-17
-0.36153927
-5.4301856e-14
-0.40034053
0
-0.44171034
5.0715861e-14
-0.48696896
0
-0.020289731
2.0433681e-14
-0.040430014
0
-0.061761219
1.9094642e-14
-0.084511097
0
-0.10794748
0
-0.13255374
0
-0.15893773
0
-0.1869794
0
-0.21591464
-3.1109659e-14
-0.2451982
0
-0.27569295
0
-0.30830636
-2.8073669e-14
-0.34276474
0
-0.37894551
0
-0.41732331
0
-0.45847365
0
-0.50371333
0
-0.019159558
0
-0.038025604
1.0713359e-17
-0.05809541
1.0269409e-17
-0.079751077
1.84496e-14
-0.10210019
-1.7829397e-14
-0.12559381
0
-0.15080773
0
-0.17744677
0
-0.20497522
0
-0.23312655
0
-0.26223893
2.9037012e-14
-0.29293365
2.8052612e-14
-0.32540401
-2.7112826e-14
-0.35939364
0
-0.39506062
0
-0.43319023
0
-0.47418901
-4.7288262e-14
-0.51926416
4.2247896e-14
-0.01806768
-2.0414308e-14
-0.035751947
1.9746272e-14
-0.054629705
0
-0.075229072
-1.8435412e-14
-0.096494369
1.7824132e-14
-0.11883769
1.7214323e-14
-0.14287189
0
-0.16815558
0
-0.19426141
1.3206591e-17
-0.22123684
0
-0.24928061
0
-0.27852381
0
-0.30915826
0
-0.34128367
-2.6183914e-14
-0.374761
-2.5306735e-14
-0.41008913
0
-0.44801982
-9.4550043e-14
-0.4889036
0
-0.53397414
0
-0.017008978
0
-0.033599812
-1.9743012e-14
-0.051355714
1.9082187e-14
-0.070940029
-1.8431215e-14
-0.091137771
1.7828471e-14
-0.11231049
-1.7208827e-14
-0.1351694
1.662677e-14
-0.15915985
0
-0.18387167
0
-0.20957849
-2.9994484e-14
-0.23661648
0
-0.26483484
0
-0.29390322
0
-0.32420713
-2.6171104e-14
-0.35593169
2.5294225e-14
-0.38902065
0
-0.42407751
0
-0.46191402
0
-0.50272659
-4.4100089e-14
-0.54772157
0
-0.015980284
0
-0.031561636
0
-0.048267955
0
-0.066873986
-1.8427554e-14
-0.086029297
0
-0.10602887
0
-0.12772404
-1.6621051e-14
-0.15047519
1.6057779e-14
-0.17384434
0
-0.19827636
0
-0.22421933
0
-0.25151169
0
-0.27942373
0
-0.30808874
2.6148592e-14
-0.3381102
0
-0.36948785
7.6841079e-18
-0.40223024
0
-0.43712945
0
-0.47489284
0
-0.51566867
-4.2585525e-14
-0.56064148
0
-0.01498147
0
-0.02963112
0
-0.045359881
0
-0.063022002
1.8424378e-14
-0.081166216
1.7811837e-14
-0.10000553
-1.720854e-14
-0.1205533
8.1623852e-18
-0.14211484
1.605907e-14
-0.16418003
-1.5513456e-14
-0.18735013
0
-0.21210651
2.8945869e-14
-0.23835009
1.1246265e-17
-0.26534382
0
-0.29271134
0
-0.32110227
2.5248988e-14
-0.35093325
-7.7777966e-18
-0.38198939
-2.357208e-14
-0.41447515
-2.2789837e-14
-0.44925416
0
-0.48703102
0
-0.52773884
0
-0.5726194
1.0553269e-14
-0.014016169
0
-0.027803519
0
-0.042623845
0
-0.059374709
0
-0.076546843
0
-0.094252601
1.7204877e-14
-0.11367388
-3.3231163e-14
-0.13408799
1.6053735e-14
-0.15488046
0
-0.17678844
-1.4979645e-14
-0.20031811
0
-0.22534636
0
-0.25130773
2.7013852e-14
-0.27768272
0
-0.30479891
0
-0.33317125
0
-0.36276171
-2.3563386e-14
-0.39351281
2.2775066e-14
-0.42578845
2.2012636e-14
-0.46052908
0
-0.49828154
0
-0.53898486
0
-0.58386288
1.0559126e-14
-0.013088643
1.0201188e-14
-0.026074577
0
-0.040050615
0
-0.055921741
1.8429418e-14
-0.07216339
0
-0.088773652
0
-0.10709693
1.6615792e-14
-0.12640576
1.6041843e-14
-0.14595794
0
-0.16661315
0
-0.18892182
1.4456858e-14
-0.21266291
-2.7942004e-14
-0.23743
0
-0.26291672
9.3190455e-18
-0.28908977
0
-0.31616761
0
-0.3443433
0
-0.37363617
0
-0.40409334
5.9986709e-18
-0.43621507
-2.1249695e-14
-0.47092144
0
-0.50872283
0
-0.54944253
0
-0.59432458
-2.11099e-14
-0.012200874
0
-0.02443991
-5.6152038e-18
-0.037628818
0
-0.052650087
0
-0.068003269
0
-0.0835662
0
-0.10082638
0
-0.11907284
0
-0.13742567
0
-0.15684721
6.4173895e-18
-0.17796037
0
-0.20045577
1.3957335e-14
-0.22399025
0
-0.24847789
2.6060929e-14
-0.27382704
0
-0.29989368
0
-0.32675224
0
-0.35462774
6.6072754e-18
-0.38358296
-2.1967993e-14
-0.41378254
0
-0.44577303
0
-0.4804808
0
-0.51834414
0
-0.5591702
3.7026445e-14
-0.6040778
-6.6996712e-18
-0.011355304
-1.0205733e-14
-0.022894614
-9.8544563e-15
-0.035348477
0
-0.049550347
0
-0.06405566
0
-0.078624055
0
-0.09485877
0
-0.11209081
0
-0.12929138
-1.5485767e-14
-0.1475073
0
-0.16746001
1.4449774e-14
-0.18876698
-1.395e-14
-0.21108718
1.3474189e-14
-0.2344743
0
-0.25895803
0
-0.28423063
-4.8610641e-14
-0.30996606
0
-0.33645711
0
-0.36400606
0
-0.39264878
0
-0.42261282
0
-0.45449109
3.9627931e-14
-0.48922509
0
-0.52725286
0
-0.56816898
3.5748566e-14
-0.61309284
-1.0543666e-14
-0.010554942
-1.0205215e-14
-0.021435318
9.8652977e-15
-0.0332006
0
-0.04661254
-9.2121788e-15
-0.060309733
0
-0.073943567
0
-0.089190969
0
-0.10545305
0
-0.12155766
-6.4014196e-18
-0.13860585
1.4957345e-14
-0.1574365
0
-0.17760778
1.3949042e-14
-0.19875767
5.2969169e-18
-0.22103115
-5.0396149e-18
-0.24453975
0
-0.26900366
2.4278908e-14
-0.29384318
0
-0.31912045
0
-0.34530303
-2.1912548e-14
-0.37253659
0
-0.40087642
-2.0478935e-14
-0.43063154
-1.9790733e-14
-0.4624276
3.8261853e-14
-0.49725355
0
-0.53544261
0
-0.57652622
-3.4506346e-14
-0.62149183
-2.1112836e-14
-0.0098017732
0
-0.020057921
-9.8648712e-15
-0.031176904
0
-0.043828023
0
-0.056753024
-4.4428391e-18
-0.069514826
0
-0.083819423
0
-0.099152962
0
-0.11422132
0
-0.13015089
1.4946864e-14
-0.14790101
0
-0.16698289
0
-0.18699968
1.3464769e-14
-0.20817821
-1.2998779e-14
-0.23063695
0
-0.25415466
0
-0.27818054
0
-0.30244886
0
-0.32738105
0
-0.35332091
0
-0.38025406
-2.0449365e-14
-0.40832886
0
-0.43789696
4.1024535e-18
-0.46964633
1.847291e-14
-0.50459297
-3.5696747e-14
-0.54301534
0
-0.58425505
0
-0.62928272
0
-0.0090969408
0
-0.018760936
9.8645031e-15
-0.029270044
-5.9422595e-18
-0.04118847
-9.2057244e-15
-0.053375036
4.4295648e-18
-0.065328491
-4.4575548e-18
-0.078737215
0
-0.09318062
0
-0.10727574
0
-0.12214323
-1.4943329e-14
-0.13885711
0
-0.15689311
0
-0.17580591
0
-0.19590404
-1.2991318e-14
-0.2172958
-1.2546738e-14
-0.23973908
0
-0.26281444
0
-0.2862038
2.2630889e-14
-0.31012088
0
-0.33489796
0
-0.36058161
4.0852845e-14
-0.3872325
0
-0.41506089
1.9085342e-14
-0.4444735
-1.84488e-14
-0.47621225
5.3501658e-14
-0.51131622
-3.4463985e-14
-0.5499762
0
-0.59143232
0
-0.63648785
0
-0.0084360551
0
-0.017542856
0
-0.027472967
0
-0.038689289
-9.2105544e-15
-0.050168035
-8.8978408e-15
-0.061371815
1.7189646e-14
-0.073934321
0
-0.087525981
0
-0.10070921
0
-0.11457196
1.4946719e-14
-0.13030253
1.4424903e-14
-0.14733576
0
-0.1651732
1.345293e-14
-0.18420974
0
-0.20455471
1.2543721e-14
-0.2258764
0
-0.2478587
0
-0.27034914
0
-0.29339223
0
-0.31715198
-2.1104848e-14
-0.34172126
2.0398294e-14
-0.36714437
4.4556762e-18
-0.39352576
1.9064904e-14
-0.42113396
3.6856177e-14
-0.4504261
3.3669205e-18
-0.48217385
0
-0.51746368
-3.3272702e-14
-0.55642417
0
-0.59803823
0
-0.64312124
-3.8231476e-05
-0.0091717967
0
-0.016393616
0
-0.025780023
0
-0.03632291
0
-0.047124281
-8.8973071e-15
-0.057633305
0
-0.069396902
0
-0.082175378
8.0110804e-15
-0.094506628
-1.5471334e-14
-0.10742414
0
-0.12222528
0
-0.13830437
0
-0.15509705
0
-0.17309451
0
-0.19242434
0
-0.21266444
4.3260239e-18
-0.23350722
0
-0.25494565
-1.1293609e-14
-0.27708915
0
-0.29998722
-2.1085992e-14
-0.32358583
0
-0.3479113
-1.9696248e-14
-0.37306029
0
-0.39918992
3.6057577e-18
-0.42661232
3.5579209e-14
-0.45580775
3.0572306e-18
-0.48760023
-1.6623475e-14
-0.52311791
3.2127482e-14
-0.5623478
0
-0.60415562
0
-0.64924158
-6.3738329e-05
-0.0090693644
-0.00010935479
-0.017820558
0
-0.024177433
0
-0.034082456
0
-0.044235486
4.4101817e-18
-0.05409862
0
-0.065114932
0
-0.077115885
3.3394262e-18
-0.088653369
-2.9611849e-18
-0.10068195
0
-0.11460875
0
-0.12978642
-1.3919842e-14
-0.14556788
0
-0.16254952
1.297313e-14
-0.18090344
-1.2525227e-14
-0.20011561
1.2094168e-14
-0.21984335
0
-0.24016013
0
-0.26130407
1.0896942e-14
-0.28336292
0
-0.30611583
0
-0.32944931
0
-0.35349404
0
-0.37837856
0
-0.40428322
-1.7765743e-14
-0.43155382
0
-0.46068068
1.6604579e-14
-0.49254267
1.6045565e-14
-0.52830495
0
-0.56782256
0
-0.60976866
4.9782241e-18
-0.65488323
-7.8195479e-05
-0.0089684018
-0.00018326704
-0.017808288
-0.00017352446
-0.026167734
0
-0.031952229
0
-0.041494431
0
-0.050758841
8.5931793e-15
-0.061075816
0
-0.072337651
0
-0.08313393
-7.7340184e-15
-0.094329267
-7.4699457e-15
-0.10743317
0
-0.12176352
0
-0.13657154
-1.3434236e-14
-0.15256354
0
-0.16997865
-5.1068984e-18
-0.18821835
1.2091758e-14
-0.20689758
-1.1671477e-14
-0.22613065
3.4507881e-18
-0.24620932
1.0889888e-14
-0.26730752
0
-0.28922532
0
-0.31169932
0
-0.33473953
1.8987709e-14
-0.35851079
0
-0.38314953
0
-0.40886743
1.7154179e-14
-0.43601277
-3.3164109e-14
-0.46509451
2.5276239e-18
-0.497061
1.549007e-14
-0.53306878
2.9939746e-14
-0.57283606
0
-0.61494812
0
-0.66003714
-8.3249689e-05
-0.0088740273
-0.00022596261
-0.017786279
-0.00029218499
-0.026307621
-0.00023182575
-0.034299025
5.359693e-18
-0.038882618
0
-0.047605872
0
-0.057270211
-8.2940317e-15
-0.06782929
-3.3008535e-18
-0.077932534
0
-0.088346934
0
-0.10067992
-7.2102363e-15
-0.11421561
0
-0.1280927
0
-0.14312273
-1.2964116e-14
-0.15963464
0
-0.17695242
0
-0.19463813
0
-0.21284149
0
-0.23186765
0
-0.25191274
0
-0.27287704
-1.0153059e-14
-0.29452288
0
-0.31670304
0
-0.33947945
-1.8324875e-14
-0.3630005
0
-0.3874334
0
-0.41299137
0
-0.44003353
-1.6009416e-14
-0.46910634
1.5474917e-14
-0.50118081
-2.2612055e-18
-0.53743119
-2.8896473e-14
-0.57745729
0
-0.61965954
0
-0.66474038
-8.0481734e-05
-0.0087879406
-0.00024165582
-0.017760769
-0.00036188484
-0.026424017
-0.00039081647
-0.034546083
-0.00028190122
-0.04141569
0
-0.044616283
0
-0.053687711
0
-0.063578732
-8.0087128e-15
-0.07303266
7.7328307e-15
-0.082718437
0
-0.094328926
7.2093197e-15
-0.1071196
-6.9586741e-15
-0.12011175
1.3427971e-14
-0.13421168
0
-0.14985249
0
-0.16629077
-1.2080241e-14
-0.18302808
1.1657835e-14
-0.20024754
3.5133419e-18
-0.21825451
1.0871776e-14
-0.23723872
-1.0496673e-14
-0.25714248
1.014215e-14
-0.27783244
0
-0.29922254
0
-0.32118622
3.6879946e-18
-0.34371815
0
-0.36702193
0
-0.39127495
0
-0.4166947
-1.5984643e-14
-0.44367013
-1.5455026e-14
-0.47274813
-1.4936612e-14
-0.50494973
1.4436904e-14
-0.54144005
0
-0.58166299
0
-0.62397733
2.6020146e-14
-0.66901533
-7.1407432e-05
-0.0087114155
-0.00023456445
-0.017732285
-0.00038862805
-0.026523568
-0.00048452937
-0.034754284
-0.00047503197
-0.041806501
-0.00032052376
-0.047210716
0
-0.050301893
0
-0.059571885
0
-0.068417124
7.7351208e-15
-0.077424665
7.4644603e-15
-0.088358311
0
-0.10045187
0
-0.11260535
6.7127277e-15
-0.12580942
0
-0.14061316
1.2505586e-14
-0.15621036
0
-0.17203626
0
-0.18831184
0
-0.20532675
1.0863813e-14
-0.22326114
-1.0487593e-14
-0.24208678
1.0131896e-14
-0.26170988
9.7875068e-15
-0.28217641
0
-0.30341257
0
-0.32518127
0
-0.34750397
0
-0.37061708
0
-0.39471137
0
-0.42002639
2.1406278e-18
-0.44695747
0
-0.47606355
1.9134946e-18
-0.50839492
-1.3933858e-14
-0.54510936
0
-0.58551027
0
-0.62787562
3.4316523e-18
-0.67290955
-5.7460915e-05
-0.0086447109
-0.00020882718
-0.017701239
-0.00037863057
-0.026604217
-0.00052085946
-0.034933185
-0.00058878147
-0.042138719
-0.00054032893
-0.047810545
-0.00035136154
-0.052841126
0
-0.055776248
0
-0.064068825
0
-0.072449669
3.3806435e-18
-0.082744503
7.2043615e-15
-0.09418603
0
-0.10554904
-6.7116408e-15
-0.11789524
-2.968093e-18
-0.13189606
0
-0.14668741
0
-0.16163489
-1.1646876e-14
-0.17700082
0
-0.19305182
1.0853395e-14
-0.20994145
1.0482097e-14
-0.22769128
-1.0122346e-14
-0.24623129
2.1789457e-18
-0.26564088
-9.4452579e-15
-0.28603408
-1.8685866e-18
-0.3071732
0
-0.32875813
0
-0.3508806
0
-0.37382102
0
-0.3977876
0
-0.423024
0
-0.44993511
1.4400489e-14
-0.47908339
-1.3918563e-14
-0.51156174
1.3451602e-14
-0.54846771
0
-0.58898271
0
-0.631423
0
-0.67640534
-4.0028853e-05
-0.0085878382
-0.00016852049
-0.017667814
-0.00033814694
-0.026664646
-0.00050790614
-0.035081105
-0.00063275028
-0.042426552
-0.0006699459
-0.04833169
-0.00059253536
-0.053619176
-0.00037825692
-0.058144176
0
-0.05995123
0
-0.067781255
0
-0.077470308
3.5465087e-18
-0.088296251
0
-0.098920088
0
-0.1104479
-6.4759201e-15
-0.12367679
0
-0.13769953
0
-0.15179856
0
-0.16628821
3.4872849e-18
-0.1814166
-1.08469e-14
-0.19728569
-1.0474451e-14
-0.21396424
0
-0.23144466
9.7670623e-15
-0.24980752
-1.886486e-14
-0.26920464
0
-0.2895685
-1.6882498e-18
-0.31056351
0
-0.33194739
0
-0.35388133
-1.5910781e-14
-0.37667446
0
-0.40054183
0
-0.42572376
-1.4380299e-14
-0.45262821
1.3901054e-14
-0.4818485
1.6185607e-18
-0.5144707
0
-0.55153101
0
-0.5921419
0
-0.63459022
0
-0.67954962
-2.0444915e-05
-0.0085413938
-0.0001176497
-0.017632099
-0.00027360033
-0.026704215
-0.00045400556
-0.035197502
-0.00061691136
-0.042669172
-0.00072025098
-0.048787982
-0.00073489238
-0.054301305
-0.00063751474
-0.059079522
-0.00039753385
-0.062063319
0
-0.063387899
0
-0.072520868
0
-0.082757546
6.9552202e-15
-0.092693936
-2.6621877e-18
-0.10344787
0
-0.11593272
2.8966529e-18
-0.12921936
-6.0320009e-15
-0.14250285
0
-0.1561509
0
-0.17040263
-1.0841075e-14
-0.18530274
0
-0.20094633
-2.0208869e-14
-0.21739586
-9.7558747e-15
-0.23473989
9.4242932e-15
-0.25310513
9.1039722e-15
-0.2725142
1.7204436e-18
-0.29279096
-8.5008723e-15
-0.31360442
1.6433834e-14
-0.33478593
-1.5885142e-14
-0.35654473
-1.5358817e-14
-0.37921671
0
-0.40300794
0
-0.42814582
1.3883258e-14
-0.45507598
0
-0.48438894
1.4987782e-18
-0.51715615
0
-0.55434229
0
-0.59497108
0
-0.63744837
0
-0.68235267
-0.0085055222
0
-6.0180574e-05
-0.017594252
-0.00019141586
-0.026722961
-0.00036763527
-0.035282416
-0.00055143175
-0.042867425
-0.0007024948
-0.049178291
-0.00079033811
-0.054899698
-0.00079033179
-0.059895375
-0.00066972112
-0.063195262
-0.00040843843
-0.06520062
0
-0.067867845
0
-0.07754541
0
-0.086842319
0
-0.096871242
-6.4770066e-15
-0.10864255
0
-0.12122244
-6.0282058e-15
-0.13372403
-5.8193322e-15
-0.14656442
1.1231333e-14
-0.15998723
0
-0.1739763
0
-0.1886383
0
-0.20409324
0
-0.22043463
0
-0.23779326
9.09169e-15
-0.25621345
1.7568407e-14
-0.27557844
-8.4873212e-15
-0.29570435
-1.3606721e-18
-0.31632022
0
-0.33729959
0
-0.35890666
0
-0.38147946
0
-0.40520509
1.3862271e-14
-0.43032689
1.3401529e-14
-0.45730405
-1.2953993e-14
-0.48673196
0
-0.51965987
-1.2095387e-14
-0.5569194
0
-0.5975281
0
-0.63997801
0
-0.68486325
-0.017554293
0
-0.0084799977
2.0322434e-05
-9.8061691e-05
-0.026720303
-0.00025739869
-0.035335463
-0.00044657087
-0.043020981
-0.00062817912
-0.049502638
-0.00077109801
-0.055411615
-0.00084960404
-0.060612804
-0.00082995896
-0.064188898
-0.00068826046
-0.066555984
-0.00041922422
-0.06941051
0
-0.072616896
0
-0.081339828
0
-0.090695997
-6.4731009e-15
-0.10178269
-6.2487532e-15
-0.11368355
0
-0.12543809
-1.9526589e-18
-0.13750697
5.612037e-15
-0.15014503
0
-0.16327954
0
-0.17701801
0
-0.1915265
0
-0.20690107
0
-0.22326859
1.8772654e-18
-0.2407026
-1.7547068e-14
-0.25911674
0
-0.27837797
0
-0.29832471
0
-0.3187293
0
-0.33952591
0
-0.36099838
0
-0.38348221
0
-0.40716732
0
-0.43228952
0
-0.45933988
0
-0.48893071
1.342698e-18
-0.52201944
0
-0.55928909
0
-0.59980316
0
-0.64224319
0
-0.68706026
-0.026695699
0
-0.017512985
5.9872267e-05
-0.0084649489
3.9552764e-05
-0.00013195505
-0.035356435
-0.00031273288
-0.043128897
-0.00050893894
-0.049760058
-0.00068966414
-0.055835614
-0.00082862311
-0.061228603
-0.00089201291
-0.065067654
-0.0008532066
-0.06776047
-0.00070674728
-0.071019134
-0.00043284782
-0.073848148
0
-0.076146187
6.7080202e-15
-0.08490134
0
-0.095333282
6.2478743e-15
-0.10657893
6.0258096e-15
-0.11762062
0
-0.12895397
0
-0.14085051
-1.4620797e-18
-0.15318457
0
-0.16605499
0
-0.1796688
0
-0.19412494
9.3964661e-15
-0.20952232
9.0730673e-15
-0.22596253
0
-0.24343476
1.693145e-14
-0.26179844
1.4495937e-18
-0.28090688
-7.9049108e-15
-0.3006573
-7.6425163e-15
-0.32086638
0
-0.34149019
0
-0.36283877
1.3816833e-14
-0.38525653
0
-0.40891539
0
-0.43406042
1.2486863e-14
-0.46121698
1.2067522e-14
-0.49101255
-1.1660716e-14
-0.524252
0
-0.5614646
-2.1760214e-14
-0.60185144
0
-0.64421841
0
-0.68899096
-0.035345221
0
-0.02665213
9.7685718e-05
-0.017470733
0.00011645282
-0.0084613367
5.6452599e-05
-0.00016037649
-0.043190289
-0.00035655658
-0.049948345
-0.0005588703
-0.056169954
-0.00074093634
-0.061739706
-0.00086989668
-0.065828936
-0.00091726464
-0.06882979
-0.00087648602
-0.072457351
-0.00072992419
-0.075728995
-0.0004420634
-0.076986035
0
-0.079455928
0
-0.089273743
0
-0.099884774
6.0271621e-15
-0.11024818
5.8133172e-15
-0.12088346
-5.6106516e-15
-0.13207814
-5.4117902e-15
-0.14366094
0
-0.15571737
0
-0.16848821
-9.7271304e-15
-0.1820745
-9.3893441e-15
-0.19654284
0
-0.21199175
-8.7551727e-15
-0.2284892
-8.4546625e-15
-0.24596528
-8.1680581e-15
-0.26424375
-7.8930837e-15
-0.28318187
-7.6291228e-15
-0.30272909
7.3754631e-15
-0.32275121
0
-0.34321509
1.3791562e-14
-0.36445841
2.6675e-14
-0.38682319
0
-0.41047493
0
-0.43565642
1.2052806e-14
-0.46296389
-1.1648591e-14
-0.49300661
1.2393345e-18
-0.52637275
0
-0.5634671
2.1000792e-14
-0.60365749
0
-0.64596941
0
-0.69065941
-0.043204536
0
-0.035308407
0.00013161317
-0.026590428
0.00018996067
-0.017427201
0.00016597598
-0.0084693249
6.9764614e-05
-0.00018292359
-0.050065485
-0.00039159416
-0.05641221
-0.00060027468
-0.062142923
-0.0007778282
-0.066470072
-0.00089486315
-0.069761337
-0.00094268363
-0.073732127
-0.00090539104
-0.077401436
-0.00074558714
-0.079124053
-0.00044584898
-0.079880756
0
-0.083570834
0
-0.093578241
0
-0.10329851
5.8142116e-15
-0.11327003
5.6076603e-15
-0.12380351
-5.4116475e-15
-0.13468108
5.2200278e-15
-0.14597391
-1.0703596e-18
-0.15795127
0
-0.17071708
0
-0.18430806
-9.0574714e-15
-0.1987914
0
-0.21429347
0
-0.23085377
8.1591113e-15
-0.24833222
7.8831592e-15
-0.2664783
-7.6171863e-15
-0.28520767
0
-0.30456781
-7.1197337e-15
-0.32441069
0
-0.34472479
0
-0.36587826
1.2874772e-14
-0.38820713
0
-0.41185643
0
-0.43710441
0
-0.46461093
0
-0.49491952
-1.0861249e-14
-0.52838857
-1.0492478e-14
-0.56530778
0
-0.60526543
0
-0.64747428
0
-0.692109
-0.05010926
0
-0.043182386
0.00016013564
-0.03524688
0.0002560796
-0.026508134
0.00027050176
-0.017382277
0.00020466569
-0.0084887154
7.8220375e-05
-0.00020092275
-0.056560154
-0.00042053833
-0.062436498
-0.00063020728
-0.066987214
-0.00080051547
-0.070552695
-0.00091997731
-0.074839179
-0.00097386706
-0.078881701
-0.00092500031
-0.081029899
-0.00075223353
-0.082274675
-0.0004503454
-0.083552283
0
-0.08761273
0
-0.09675162
0
-0.10609436
1.7268479e-18
-0.11599975
-1.4220037e-18
-0.12621753
-5.2183408e-15
-0.13679509
2.1062708e-18
-0.14802634
4.8584021e-15
-0.16001883
0
-0.17278595
0
-0.1863543
0
-0.20087475
8.4379489e-15
-0.21647251
0
-0.2330947
0
-0.25051277
0
-0.26848752
1.0542211e-18
-0.28701905
7.1075118e-15
-0.30619186
-6.8721496e-15
-0.32586441
0
-0.34604475
0
-0.3671229
1.242805e-14
-0.38941692
0
-0.4130855
1.1616182e-14
-0.43843193
0
-0.46617229
0
-0.49676844
1.048295e-14
-0.53031819
1.0124259e-14
-0.5669806
0
-0.60666449
0
-0.64878713
0
-0.6933137
-0.056612028
0
-0.050092809
0.00018277222
-0.043124899
0.00031180876
-0.035156031
0.000364847
-0.026405256
0.00033306733
-0.017335755
0.00022879421
-0.0085193047
8.0501388e-05
-0.00021575234
-0.062619462
-0.00044159162
-0.06737794
-0.00064891895
-0.071200599
-0.0008231853
-0.075773628
-0.00095045387
-0.080163302
-0.00099515634
-0.082716748
-0.00093351355
-0.084414114
-0.0007598091
-0.086185441
-0.00045574438
-0.087110935
-6.0230876e-15
-0.090560027
0
-0.099337966
-5.607329e-15
-0.10864632
5.409053e-15
-0.11824484
0
-0.12815304
5.0341815e-15
-0.13868273
0
-0.1499457
4.6860228e-15
-0.16194087
0
-0.17465073
0
-0.18822916
8.4298639e-15
-0.20284923
0
-0.2185468
7.8610118e-15
-0.23519463
-7.5948291e-15
-0.2525141
7.339579e-15
-0.27029496
-7.0946259e-15
-0.28862483
6.8600361e-15
-0.30762524
0
-0.32713608
0
-0.3471942
0
-0.36820159
-2.3991856e-14
-0.39047781
0
-0.41417875
1.121223e-14
-0.43965696
8.7956615e-19
-0.4676599
1.0470889e-14
-0.49856186
1.0116372e-14
-0.53213175
0
-0.56849436
0
-0.6078949
0
-0.6498785
0
-0.69431204
-0.06269035
0
-0.056584679
0.00020075791
-0.050015641
0.00035597022
-0.043023649
0.00044464852
-0.035036735
0.00044946919
-0.026282308
0.00037155413
-0.017288453
0.00023461983
-0.008562494
7.5288611e-05
-0.00022661701
-0.067640197
-0.00045495592
-0.071700944
-0.00066748711
-0.076530773
-0.00085049032
-0.081239298
-0.00097135887
-0.084176751
-0.0010044508
-0.086303152
-0.00094280667
-0.088534284
-0.00076868418
-0.089983224
-0.00045729629
-0.089565741
0
-0.092956432
0
-0.10172212
-5.4080064e-15
-0.11073885
1.1135872e-18
-0.12002088
-5.0326033e-15
-0.12989218
-4.8543707e-15
-0.14046721
4.68468e-15
-0.15173681
4.5188544e-15
-0.16364384
0
-0.17633324
0
-0.19000497
0
-0.20474689
0
-0.22052988
7.584546e-15
-0.23716596
7.3297604e-15
-0.25434523
0
-0.27191188
6.8481297e-15
-0.29004733
6.6213752e-15
-0.30887887
6.4023695e-15
-0.32824226
0
-0.34818687
0
-0.36913854
0
-0.39140029
0
-0.41515661
0
-0.44078677
1.0459528e-14
-0.46908582
1.0105112e-14
-0.50027413
9.7622755e-15
-0.53383552
0
-0.56984491
-1.8204664e-14
-0.60893967
0
-0.65079876
0
-0.69510508
-0.067771255
0
-0.062673117
0.00021559105
-0.056477734
0.00039094433
-0.049864739
0.00050771019
-0.04288021
0.00054836048
-0.03489
0.00050165238
-0.02614008
0.00037997557
-0.017239939
0.000218423
-0.0086192257
6.1146047e-05
-0.00023361553
-0.072051105
-0.00046806916
-0.077107583
-0.00068955822
-0.082103663
-0.00086920484
-0.08540405
-0.00098052206
-0.087934287
-0.0010143293
-0.090601206
-0.00095339277
-0.092529939
-0.00077096986
-0.092680219
-0.0004540524
-0.091473538
0
-0.095180697
0
-0.10367726
5.2144619e-15
-0.11237515
1.0098321e-18
-0.12162693
0
-0.13155363
0
-0.14214205
-4.5172759e-15
-0.15329665
0
-0.16515213
0
-0.17792722
0
-0.19172509
0
-0.20658306
0
-0.22243552
0
-0.23901675
1.1147586e-18
-0.25599568
0
-0.27333729
7.27123e-19
-0.29129332
6.3911998e-15
-0.30997611
0
-0.32919705
0
-0.34904238
0
-0.36994462
1.1178214e-14
-0.39220514
0
-0.41602289
-1.0445185e-14
-0.44183661
0
-0.47042814
0
-0.50190432
9.6953966e-19
-0.53538158
-9.0969963e-15
-0.57104228
0
-0.60982583
1.6954447e-14
-0.65152388
0
-0.69572919
-0.072248067
0
-0.067801715
0.00022666268
-0.062568174
0.00041990877
-0.056274023
0.00055746779
-0.049643336
0.00062620859
-0.042696862
0.00061278981
-0.034717096
0.00051328794
-0.025978447
0.00035252452
-0.017191144
0.00017644951
-0.0086885719
3.6576645e-05
-0.00024041027
-0.077502691
-0.00048346808
-0.082752522
-0.00070472316
-0.086391046
-0.00087754452
-0.089301755
-0.00099002948
-0.092376709
-0.0010253359
-0.094766513
-0.00095605298
-0.0954385
-0.00076562512
-0.094827632
-0.00044874508
-0.093203349
0
-0.09700718
0
-0.105194
0
-0.11386258
-4.85128e-15
-0.12317869
-9.309718e-19
-0.13312437
4.5159487e-15
-0.14357467
-4.3566254e-15
-0.15464878
-4.2056089e-15
-0.16658282
0
-0.17948117
0
-0.19340395
7.5674997e-15
-0.20837993
0
-0.22426826
7.061209e-15
-0.24071537
-6.8244242e-15
-0.25745466
0
-0.27458545
-1.2758448e-14
-0.29238484
6.1691934e-15
-0.31092289
5.9657811e-15
-0.33001913
0
-0.34977586
-1.1158668e-14
-0.3706395
0
-0.39289474
0
-0.41679617
-1.0081163e-14
-0.44279334
9.7412607e-15
-0.47169044
9.4105482e-15
-0.50338929
8.8889334e-19
-0.53678996
0
-0.57207046
1.6947488e-14
-0.61054598
0
-0.65209916
0
-0.69615708
-0.077714176
0
-0.072325517
0.00023397547
-0.067731625
0.00044177319
-0.062353112
0.00059893433
-0.055975777
0.00068734792
-0.049351957
0.00069981208
-0.042476111
0.00062791058
-0.034520367
0.00047647163
-0.025796671
0.00028359006
-0.017141399
0.00010490049
-0.0087657747
0
-0.00024826262
-0.083183563
-0.00049408113
-0.087131145
-0.00071153686
-0.090399191
-0.00088583226
-0.093853248
-0.0010003279
-0.0966816
-0.0010278858
-0.097858984
-0.00094939128
-0.097800219
-0.0007567431
-0.096775714
-0.00044198145
-0.09453924
0
-0.098420415
0
-0.10657495
0
-0.11531307
-4.67847e-15
-0.12465445
-7.7562462e-19
-0.13444416
0
-0.14478658
-4.2016063e-15
-0.15593427
-4.0555069e-15
-0.16798761
0
-0.18100349
1.511726e-14
-0.19506532
-7.2991168e-15
-0.21014933
0
-0.2259906
0
-0.24221744
0
-0.258715
0
-0.27567235
5.5215584e-19
-0.29333022
5.9550477e-15
-0.31174255
-5.7592591e-15
-0.33072309
0
-0.35040348
0
-0.37122661
0
-0.39348853
1.0067787e-14
-0.41747313
0
-0.44366778
0
-0.47281655
0
-0.50474425
7.824122e-19
-0.53802079
8.4681786e-15
-0.57295042
0
-0.61112873
0
-0.65248947
0
-0.69642908
-0.083394959
0
-0.077780221
0.00024087062
-0.072281902
0.00045635253
-0.067531581
0.00063062692
-0.062029965
0.00073874288
-0.055581766
0.00076776668
-0.048990898
0.00071703499
-0.042217076
0.00058381534
-0.03429756
0.00038347276
-0.025595615
0.00016778738
-0.017085467
-1.0196336e-14
-0.0080469212
0
-0.00025366619
-0.087619583
-0.00049887568
-0.091219115
-0.00071807748
-0.095024095
-0.00089461438
-0.098264766
-0.0010025626
-0.099929778
-0.0010207354
-0.10040395
-0.00093839093
-0.099941671
-0.00074521893
-0.098311653
-0.00043321179
-0.095481153
0
-0.099707297
0
-0.10793037
0
-0.11670033
7.6403241e-19
-0.12587124
4.3524382e-15
-0.13553086
0
-0.14594316
4.0527025e-15
-0.15720624
-3.9114214e-15
-0.16936321
-7.5504965e-15
-0.18251994
0
-0.19672237
-7.0418929e-15
-0.21182053
0
-0.22750596
0
-0.24350094
-6.3561935e-15
-0.25980185
6.1458358e-15
-0.27661472
9.5537408e-19
-0.29414865
-5.7480777e-15
-0.31244363
0
-0.33132545
0
-0.35093251
0
-0.37172473
-1.0052355e-14
-0.39399084
0
-0.41806927
0
-0.44442065
0
-0.47382215
-8.7633934e-15
-0.5059184
6.9633474e-19
-0.53910701
0
-0.57367576
0
-0.61155872
0
-0.65274193
-0.006355351
-0.69019403
-0.087852533
0
-0.08343365
0.00024858563
-0.0776976
0.00046983826
-0.072078195
0.00065187815
-0.067203999
0.00077855648
-0.061599926
0.00082552709
-0.055093727
0.00078611719
-0.048556323
0.00066645788
-0.041916476
0.00047065567
-0.034047985
0.00022697026
-0.025372039
0
-0.01566174
0
-0.0086617132
-1.0547635e-14
-0.00025612475
-0.091755432
-0.00050331763
-0.095883564
-0.00072483733
-0.099506765
-0.00089639514
-0.10164135
-0.00099553349
-0.10262837
-0.0010088934
-0.10271189
-0.00092403456
-0.10165439
-0.00073050067
-0.099450795
-0.00042352991
-0.096311151
0
-0.10097836
0
-0.10923389
0
-0.11782598
-4.3507172e-15
-0.12684688
-6.0442e-19
-0.13657205
0
-0.14709704
3.9084821e-15
-0.15844615
-3.7725244e-15
-0.17073231
0
-0.18403718
0
-0.19828883
1.1749564e-18
-0.21329423
0
-0.22879337
6.3453925e-15
-0.24459136
6.1353464e-15
-0.2607382
0
-0.27742871
0
-0.29485055
-5.5488136e-15
-0.31304669
5.3665406e-15
-0.33183374
0
-0.3513785
0
-0.37214059
0
-0.39441664
0
-0.41856436
-1.8123754e-14
-0.44507024
8.7548702e-15
-0.4746552
0
-0.50694843
-8.1645011e-15
-0.54000681
-7.8822412e-15
-0.57426912
1.5221946e-14
-0.61185171
-0.012326711
-0.64688108
-0.0057885953
-0.68439816
-0.092001938
0
-0.087885096
0.00025387735
-0.083298425
0.00048470394
-0.077421065
0.00067116191
-0.071713882
0.0008053195
-0.0667482
0.0008709554
-0.061065012
0.00084576458
-0.054512744
0.0007300483
-0.048051048
0.00053713528
-0.041571055
0.00027908823
-0.033762899
0
-0.023366942
0
-0.016705924
0
-0.009316308
-1.054797e-14
-0.00025832934