/*--------------------------------*- C++ -*----------------------------------*\
| =========                 |                                                 |
| \\      /  F ield         | OpenFOAM: The Open Source CFD Toolbox           |
|  \\    /   O peration     | Version:  v2012                                 |
|   \\  /    A nd           | Website:  www.openfoam.com                      |
|    \\/     M anipulation  |                                                 |
\*---------------------------------------------------------------------------*/
FoamFile
{
    version     2.0;
    format      ascii;
    class       volScalarField;
    location    "44.0127461100179858";
    object      p;
}
// * * * * * * * * * * * * * * * * * * * * * * * * * * * * * * * * * * * * * //

dimensions      [0 2 -2 0 0 0 0];


internalField   nonuniform List<scalar> 
9200
(
0.014773129
0.014800883
0.044868759
0.014916147
0.045120357
0.073040652
0.015014337
0.04553883
0.073418027
0.10024502
0.015192619
0.046096201
0.073999216
0.10070793
0.12621697
0.015364576
0.046898104
0.074805044
0.10144512
0.12674437
0.15105366
0.015589509
0.047829705
0.075918228
0.10249093
0.12758873
0.15163081
0.1747765
0.015823879
0.048971535
0.077211494
0.10390074
0.1288094
0.15253918
0.17536638
0.19743901
0.016091367
0.050259663
0.078750978
0.1055548
0.13044356
0.15387142
0.17629482
0.19800476
0.21909649
0.0163729
0.051721325
0.080447121
0.10750153
0.13237988
0.15566755
0.17766886
0.19890479
0.21960435
0.23981544
0.016679358
0.053325776
0.082300671
0.1096334
0.13466472
0.1578251
0.179548
0.20024599
0.22042463
0.24023536
0.25967031
0.017012473
0.055080893
0.084249367
0.11192266
0.13718129
0.16040094
0.18183936
0.20211555
0.22165559
0.24092599
0.25997412
0.27873631
0.017381568
0.056979182
0.086262946
0.11426711
0.13989052
0.16328929
0.18462692
0.20443289
0.2234138
0.24197133
0.26048968
0.27889939
0.29707318
0.017787233
0.059025254
0.088294526
0.11657295
0.14265874
0.16645382
0.1878247
0.20731313
0.22563087
0.24351521
0.26128049
0.27920147
0.29708796
0.31476825
0.018220346
0.061219309
0.090315522
0.11871569
0.1453483
0.16976209
0.19142583
0.21069871
0.22844935
0.24549912
0.2625143
0.27967947
0.29714876
0.31461833
0.33194328
0.018666445
0.063562268
0.092308905
0.12056129
0.14777185
0.17307325
0.19532843
0.21462531
0.23184054
0.24808492
0.26413908
0.28052214
0.29726833
0.31441751
0.33156067
0.34854448
0.019103098
0.066048681
0.094283881
0.12196227
0.14970241
0.17618148
0.19942588
0.21904309
0.23587924
0.251265
0.26632724
0.28167962
0.29765713
0.31414613
0.33108261
0.34796011
0.36459905
0.019499299
0.068656184
0.096281928
0.12276949
0.15086315
0.17882853
0.20354212
0.2239088
0.24056686
0.25513762
0.26908123
0.28332935
0.29826311
0.3140358
0.33040608
0.34721359
0.36387953
0.38025077
0.019819026
0.071343724
0.09836931
0.12284186
0.15090787
0.18069188
0.2074444
0.22912531
0.24592673
0.25973644
0.27250738
0.2854753
0.29926698
0.31403179
0.32976663
0.3461298
0.36287981
0.37941742
0.39555812
0.020032328
0.074055992
0.10063369
0.12208932
0.149396
0.18136604
0.21082134
0.23455265
0.25195279
0.26512419
0.27664785
0.28821984
0.30066924
0.31431582
0.32911853
0.34494991
0.36139147
0.3781468
0.39456109
0.41046816
0.020186194
0.076728839
0.10315807
0.12049927
0.14585106
0.18035653
0.21326787
0.23998044
0.25862445
0.27134798
0.28157109
0.29159663
0.30256315
0.31488652
0.32863815
0.34364041
0.35967391
0.37625515
0.39304859
0.40935338
0.42500632
0.020333763
0.079258291
0.10594752
0.11817234
0.13967776
0.1771119
0.21427424
0.2451005
0.26588657
0.27845623
0.28733072
0.29565816
0.30496621
0.31582812
0.32833004
0.34237583
0.35769987
0.37401519
0.39077742
0.40762173
0.4238245
0.43924141
0.020696192
0.081671722
0.10912247
0.11543591
0.1301053
0.17099215
0.21320189
0.24947169
0.27363166
0.28648676
0.29398005
0.30043533
0.30790489
0.31714353
0.32827368
0.34116963
0.35564682
0.37138298
0.38803635
0.40500394
0.42189816
0.43799274
0.45322885
0.021739579
0.083763723
0.11254345
0.11292706
0.1161307
0.16153207
0.20929254
0.25247029
0.28167111
0.29545713
0.30156255
0.30595193
0.31137448
0.31883387
0.3284668
0.3401076
0.35354093
0.36854904
0.38476564
0.40179118
0.41897239
0.43590141
0.45186293
0.46692615
0.025389368
0.084705107
0.11525297
0.10968748
0.096233463
0.14760712
0.20154618
0.25325437
0.28970572
0.30534523
0.3101009
0.31221874
0.31535644
0.32085964
0.32889715
0.33919493
0.3514831
0.36554909
0.38116429
0.39791231
0.41532629
0.43271148
0.44964938
0.46544962
0.48025924
0.031604164
0.082868472
0.11760409
0.10515986
0.071380096
0.12829444
0.18879129
0.25047876
0.29725598
0.31606507
0.31957773
0.3192226
0.3198157
0.32315827
0.32950328
0.33842478
0.34950038
0.3625072
0.37727879
0.3935636
0.41087805
0.42868055
0.44624371
0.46315574
0.47876786
0.49323412
0.038524405
0.078179065
0.12014127
0.09955746
0.049371487
0.10411766
0.17120557
0.24265127
0.30348548
0.32740006
0.32990462
0.3269144
0.32469533
0.32564193
0.33018982
0.33773658
0.34761068
0.3594834
0.37325689
0.38880214
0.40581051
0.42371093
0.4418844
0.4595881
0.47641968
0.49180669
0.50590891
0.047447687
0.072713455
0.12342036
0.093738562
0.032136879
0.071961026
0.14866605
0.22897458
0.30748907
0.33894838
0.34087055
0.33518107
0.32992193
0.32820414
0.33082506
0.33702989
0.34578233
0.35653742
0.3691985
0.38379488
0.40018587
0.41796305
0.43645253
0.45495941
0.47275456
0.48944182
0.50456484
0.51830516
0.056545232
0.069110942
0.12787577
0.087671443
0.016757835
0.033530104
0.11588413
0.20841799
0.30836779
0.35012091
0.35212493
0.34380845
0.33537834
0.33072205
0.33125143
0.33615693
0.3439431
0.35369028
0.36521521
0.37868154
0.39418225
0.41149566
0.43007444
0.44913672
0.46792292
0.48574171
0.50222313
0.51704094
0.5303958
0.065646883
0.06699883
0.13222425
0.082673235
0.0033855812
-0.004571256
0.075259231
0.18359334
0.30463536
0.35965659
0.36304941
0.35245726
0.34088988
0.33304044
0.33125819
0.33492644
0.3419702
0.35092707
0.36139663
0.37362712
0.38797211
0.40448617
0.42279707
0.44219296
0.46178917
0.48079012
0.4985486
0.5147604
0.52922716
0.5421657
0.074539935
0.067072253
0.13610494
0.080870997
-0.0067417652
-0.03839862
0.035372064
0.15740951
0.29516906
0.36567319
0.37226246
0.36058094
0.3461794
0.33499533
0.330653
0.33310502
0.33970114
0.34819022
0.35780708
0.36879436
0.38176728
0.39712766
0.4147824
0.43415449
0.45436048
0.4744299
0.49355971
0.51117402
0.52704672
0.54111657
0.55361165
0.082586711
0.069773578
0.13929514
0.084485505
-0.012907892
-0.06756717
-0.00055453768
0.1299188
0.28000605
0.36691866
0.37769376
0.36720348
0.35083906
0.33639476
0.3292347
0.33047546
0.33694983
0.34538965
0.35448326
0.36433632
0.37579774
0.38966528
0.40622814
0.4251537
0.44562922
0.46660918
0.48707611
0.50621906
0.52361252
0.53907282
0.55270148
0.56472769
0.088871844
0.076407379
0.14314653
0.093388679
-0.014419192
-0.090050957
-0.030552962
0.10216356
0.26014688
0.36311761
0.3777504
0.37078969
0.35436402
0.33697741
0.3266464
0.32669413
0.33334813
0.34238064
0.35142723
0.36039352
0.37029986
0.38238213
0.39739465
0.4153741
0.4356856
0.45727627
0.47896141
0.49973444
0.51878704
0.5358499
0.55082836
0.56397427
0.57550883
0.094188632
0.086971862
0.150805
0.10788625
-0.012427399
-0.10526618
-0.054449899
0.076571619
0.23763345
0.35468332
0.37190969
0.36973337
0.35648553
0.33646264
0.32258456
0.32138993
0.32869192
0.33890146
0.34857945
0.35708015
0.36551114
0.37558277
0.3885983
0.40507018
0.42468026
0.44646139
0.46913992
0.49143513
0.51236226
0.5312273
0.54787122
0.56230243
0.57492823
0.58595086
0.099395457
0.099570001
0.16392641
0.12559919
-0.0033557374
-0.1147485
-0.073776551
0.055515232
0.21515677
0.34203821
0.36025937
0.36318791
0.35532856
0.33456897
0.3166342
0.31408508
0.32257219
0.33476125
0.345895
0.35447656
0.36165063
0.36958468
0.38019062
0.39456837
0.41283839
0.43426704
0.45755724
0.48124935
0.50403882
0.52497444
0.54352535
0.55966089
0.57348431
0.58555748
0.59605149
0.1036039
0.11357461
0.18393201
0.14575209
0.011522299
-0.11449812
-0.087691565
0.04020135
0.19482812
0.32543561
0.34320726
0.35089674
0.35051722
0.33086948
0.30834628
0.30416697
0.31449962
0.3295602
0.34319064
0.35262527
0.35891014
0.36469244
0.37254737
0.38424268
0.40047125
0.42086503
0.44425183
0.46903608
0.49362192
0.51675253
0.53754836
0.55566159
0.57120287
0.58436387
0.59585663
0.60580941
0.10592265
0.12945308
0.20855326
0.16835988
0.033082647
-0.10831946
-0.094226598
0.03127518
0.17727819
0.3059834
0.32139273
0.33318255
0.34158693
0.32489456
0.29724895
0.29079563
0.30386655
0.32282473
0.34018602
0.35149601
0.35743663
0.36118155
0.36603501
0.37450314
0.38794912
0.40652467
0.42932184
0.45474191
0.48094177
0.50627348
0.52954983
0.55006043
0.56761439
0.58248128
0.59493199
0.60582164
0.61522444
0.10545685
0.14638991
0.23433855
0.193901
0.059957484
-0.091863998
-0.097661522
0.02721286
0.16211824
0.28731225
0.29677121
0.31056875
0.32871901
0.31649587
0.28300039
0.27284544
0.28988138
0.3138913
0.3364875
0.35096676
0.3572994
0.35926842
0.36098631
0.36575595
0.37569097
0.39158436
0.41296648
0.43837427
0.46582761
0.4933021
0.51919774
0.54241068
0.56248246
0.57936097
0.59348092
0.60518079
0.61544989
0.62429768
0.10153838
0.16319709
0.26066412
0.22282675
0.091227714
-0.066994184
-0.090992056
0.024262598
0.14420223
0.26817051
0.27093703
0.28520514
0.31231043
0.30505377
0.26513556
0.248787
0.2714947
0.30190718
0.33147132
0.35078364
0.35846916
0.35907971
0.3576618
0.35837161
0.3641218
0.37644534
0.39546233
0.4200379
0.44817208
0.4775727
0.50613524
0.53235261
0.55531018
0.57478244
0.59087832
0.60418775
0.61510387
0.62474017
0.63303144
0.093675423
0.17833673
0.28646335
0.25402431
0.12581902
-0.033978996
-0.075039592
0.027798838
0.13000419
0.23830772
0.2459441
0.25726104
0.29261842
0.29014617
0.24294226
0.21628295
0.24715779
0.28563569
0.32424313
0.35051654
0.36078238
0.36061932
0.35621089
0.35263997
0.35363684
0.36153002
0.37716333
0.39991466
0.42796772
0.4588406
0.49001037
0.51943344
0.54570625
0.56820452
0.58692697
0.60214411
0.61458924
0.6246964
0.63369277
0.64142927
0.19019914
0.081651856
0.31034791
0.28543002
0.16259902
0.0055832946
-0.04917241
0.037046327
0.12366741
0.21231694
0.21174293
0.23121463
0.27007557
0.27249652
0.21808178
0.17787952
0.2159946
0.26357086
0.31339619
0.34950785
0.36389316
0.36373511
0.35663495
0.34872228
0.34455076
0.34724572
0.35846384
0.37827739
0.40527062
0.43696084
0.47046861
0.50315789
0.53312961
0.55920531
0.58104749
0.59888263
0.61313736
0.62467466
0.63395534
0.64230941
0.64949583
0.33078519
0.19760841
0.065820729
0.3152485
0.20055519
0.049572059
-0.014603201
0.051656156
0.12703041
0.18450863
0.18370701
0.19888325
0.24539427
0.25345036
0.19005247
0.13828308
0.1762013
0.23574052
0.29696214
0.34674566
0.36721594
0.36809017
0.35875225
0.3466118
0.33704494
0.33393333
0.33976668
0.35546043
0.3802327
0.41183957
0.44718789
0.48310184
0.51701277
0.54718169
0.57279881
0.59379278
0.610617
0.623839
0.63443544
0.64287946
0.65059322
0.6572367
0.34190745
0.34636569
0.19988597
0.047019178
0.23850904
0.09555932
0.025682371
0.07281532
0.13576113
0.1602532
0.15336174
0.17071353
0.21557118
0.23313761
0.16109233
0.096900398
0.12550563
0.19955525
0.27307382
0.34076363
0.36986381
0.37304982
0.36216125
0.34609896
0.33112598
0.32181181
0.32143611
0.33183587
0.35308788
0.38346693
0.41989697
0.45876981
0.49675974
0.53150892
0.56152513
0.5864262
0.60639375
0.62209954
0.63423257
0.64386544
0.65146928
0.65854828
0.66465825
0.27524103
0.36320166
0.35622986
0.19708818
0.026696534
0.14147065
0.068394995
0.10041738
0.14714733
0.14046006
0.12457341
0.13382929
0.18674482
0.21471657
0.13028428
0.053588147
0.068672533
0.15275825
0.24321381
0.33004439
0.37058055
0.37774291
0.3662098
0.34674669
0.32659198
0.31093584
0.30374456
0.30777743
0.32413744
0.35192574
0.38839081
0.42967213
0.4717675
0.51143973
0.54655937
0.57609119
0.60002344
0.61880496
0.63330269
0.64430473
0.65296071
0.65972634
0.6661796
0.67176778
0.18498398
0.30876904
0.38036834
0.36033896
0.18979322
0.0063240656
0.11093573
0.13178862
0.16213213
0.12620262
0.097597624
0.10071268
0.15742696
0.1981304
0.10893371
0.0072981112
0.013875635
0.10066428
0.21064249
0.31373101
0.36749945
0.38106289
0.36999157
0.34789957
0.32301927
0.30116449
0.28683047
0.28361297
0.2937317
0.31739116
0.35254615
0.39537231
0.44132664
0.48620458
0.52706044
0.56207757
0.59079367
0.61352586
0.63098402
0.64420289
0.65404502
0.66171853
0.66765309
0.67349341
0.67857378
0.1522842
0.22550614
0.33561773
0.39397069
0.35924475
0.1780367
-0.012936585
0.16390906
0.1807145
0.11703466
0.07380069
0.0693844
0.126955
0.17794419
0.090232811
-0.02621911
-0.043147206
0.046501733
0.17500623
0.29103826
0.3584349
0.38110034
0.37261676
0.34866502
0.3197782
0.29215226
0.27066795
0.25958924
0.26223608
0.28013478
0.3123407
0.3554915
0.40471757
0.45493871
0.50207337
0.54348618
0.57796813
0.60554284
0.62687115
0.64289326
0.65478028
0.6634444
0.67013704
0.67525398
0.68049822
0.68508552
0.19567442
0.19225015
0.26182091
0.35477387
0.40219461
0.3543387
0.16193491
-0.031322345
0.19983708
0.11247203
0.055304637
0.041585429
0.096923314
0.1527487
0.074884689
-0.064998495
-0.090096126
-0.0088039787
0.13242146
0.26173617
0.34215478
0.37563639
0.37214808
0.3479744
0.31604748
0.28337348
0.25505861
0.23584013
0.23000668
0.24051
0.26788615
0.30973241
0.3612559
0.41663902
0.47053275
0.51925478
0.56059907
0.59411382
0.62025051
0.64000228
0.65449957
0.66501657
0.67249471
0.67821766
0.68253758
0.68720377
0.6913114
0.21726387
0.22497968
0.22892132
0.29089258
0.36881881
0.40676843
0.34689392
0.14351976
-0.055338162
0.11412913
0.043080138
0.018202686
0.070027703
0.12639295
0.061561993
-0.096845225
-0.14835146
-0.056551736
0.088562481
0.22837289
0.31973047
0.36309337
0.36705946
0.34449414
0.31089413
0.27415256
0.2396572
0.21237607
0.19736039
0.19894981
0.21943908
0.2579411
0.31029343
0.37025172
0.43124783
0.48808704
0.53755903
0.57826292
0.61039181
0.6348334
0.65286754
0.66577156
0.67489448
0.68119279
0.68596886
0.68951465
0.6936169
0.69725755
0.12250445
0.23265177
0.24920434
0.25950472
0.31337386
0.3789369
0.40928169
0.33740274
0.12800501
-0.083894791
0.037596995
0.0008692867
0.047058476
0.10231441
0.047923787
-0.12274876
-0.19551191
-0.11900954
0.045360783
0.19384684
0.29533603
0.344443
0.35559541
0.33705335
0.3032825
0.26375156
0.22399985
0.18910347
0.16456414
0.15594441
0.16742982
0.20015452
0.25129262
0.31470124
0.3827616
0.44858812
0.50742953
0.55681859
0.59631912
0.62668422
0.64921401
0.66541697
0.67667895
0.6844041
0.68954663
0.6934027
0.696189
0.69973864
0.70293152
0.039009706
0.13545739
0.2458812
0.26948113
0.28337139
0.33044194
0.38680285
0.41064067
0.32895003
0.12086809
-0.11593628
-0.0094840921
0.030045273
0.082596104
0.03586743
-0.14189761
-0.23684257
-0.17650485
-0.010774604
0.14868319
0.26908413
0.32370357
0.33855307
0.32401054
0.29232346
0.25139068
0.20759236
0.16583974
0.1318398
0.11203871
0.11246129
0.13666494
0.18391346
0.24894495
0.32351989
0.39894794
0.46858549
0.52831779
0.57685025
0.61460191
0.64287804
0.66331628
0.6776018
0.68720193
0.69355229
0.69756974
0.70051782
0.70255155
0.70557383
0.70835036
-0.011747316
0.046564553
0.15249721
0.25789094
0.28595577
0.30174528
0.34365372
0.39291491
0.41161952
0.32125902
0.12198675
-0.14884748
0.021142063
0.06688968
0.027445163
-0.15166145
-0.26866979
-0.2295397
-0.065014863
0.096076945
0.22358493
0.30237865
0.31608552
0.30526208
0.27702104
0.2364408
0.18992293
0.14239333
0.099359738
0.067821228
0.055329818
0.068057253
0.10811192
0.17209077
0.25184941
0.3371324
0.41889017
0.49092037
0.55049229
0.59742918
0.6329501
0.65886064
0.67706532
0.68938791
0.69734498
0.70235393
0.70525342
0.70728935
0.70860179
0.711151
0.71378061
0.019814477
-0.0061009981
0.06053374
0.17141366
0.26987431
0.2995155
0.31631968
0.35581033
0.39834638
0.41367373
0.31517695
0.12904595
-0.17829369
0.057450518
0.025063883
-0.14949758
-0.28796403
-0.27318341
-0.11763913
0.039899918
0.17849874
0.2592663
0.29526678
0.27800461
0.25706388
0.21824221
0.17064764
0.11854567
0.067311742
0.023899794
-0.0029887275
-0.0047188992
0.02424587
0.083497547
0.16613339
0.26078402
0.35575742
0.44239564
0.5153317
0.57367644
0.618325
0.65119981
0.67452032
0.69040636
0.70077527
0.70712396
0.71078986
0.71255093
0.71370933
0.71439102
0.71669877
0.71930688
0.057404737
0.025338549
0.0079939441
0.079318192
0.19013362
0.28187389
0.31123622
0.32854564
0.36704177
0.40352391
0.41740067
0.3094561
0.13537324
-0.20205659
0.026894217
-0.13395232
-0.29169402
-0.30279524
-0.16611034
-0.0097604646
0.12604292
0.2206755
0.25868214
0.24954571
0.23072818
0.19683303
0.14934688
0.094246154
0.03582966
-0.019062425
-0.061372646
-0.080356546
-0.066782904
-0.017014479
0.064833185
0.16741432
0.2763194
0.37947189
0.46890744
0.54140339
0.59756197
0.63930356
0.66918726
0.68977249
0.70333161
0.71177968
0.71650525
0.71878351
0.71944389
0.71986563
0.72011613
0.72227741
0.72477831
0.034772183
0.066441527
0.038407198
0.029264283
0.10120523
0.20792758
0.29371293
0.32192742
0.33931552
0.37655268
0.40792939
0.42045367
0.30425538
0.139784
-0.21948604
-0.10531928
-0.27778198
-0.31441445
-0.20273535
-0.0486983
0.074333013
0.17040007
0.22792159
0.21008459
0.20177925
0.17100157
0.12631232
0.069294889
0.0052104159
-0.060480821
-0.11855437
-0.15719805
-0.16351074
-0.12896778
-0.053186954
0.054267005
0.17707162
0.2988741
0.4079199
0.49809624
0.56876794
0.62181719
0.66012782
0.68678486
0.7045963
0.7158549
0.72234754
0.72537262
0.72630271
0.72606989
0.72592807
0.72576559
0.72782485
0.73018743
-0.066509999
0.053229203
0.083649293
0.058201035
0.056543639
0.12504491
0.22417715
0.30476187
0.3320061
0.34917358
0.38532903
0.41283562
0.42363436
0.30094881
0.14414338
-0.22958468
-0.24582776
-0.30517111
-0.22200856
-0.078835475
0.025301605
0.11562406
0.1789654
0.20514448
0.16597602
0.14361019
0.10058376
0.044226942
-0.024541019
-0.099600279
-0.17332092
-0.23322844
-0.26377351
-0.25103796
-0.18846753
-0.081198266
0.05381455
0.19597722
0.32834345
0.44046743
0.52947249
0.59695553
0.64610212
0.68060808
0.70395033
0.71900007
0.72789524
0.7323102
0.73367561
0.73355261
0.73258186
0.73175996
0.73141511
0.73332531
0.73552981
-0.19776923
-0.019097738
0.080786217
0.10746516
0.083867404
0.088335996
0.15075046
0.23978923
0.31490035
0.34157761
0.3586228
0.3934786
0.42010048
0.42758409
0.30177869
0.14873756
-0.2293543
-0.2747819
-0.2221402
-0.099509138
-0.017561729
0.05760899
0.12159875
0.15335806
0.14081536
0.11284135
0.075362062
0.018030612
-0.052592207
-0.13616726
-0.22428264
-0.3063624
-0.3647822
-0.38070093
-0.3403585
-0.24118419
-0.097796336
0.065337748
0.22467038
0.36390791
0.47637604
0.56237333
0.62547488
0.6701361
0.7006676
0.72068065
0.7328652
0.7392156
0.74159329
0.74170766
0.74067958
0.73865884
0.73762322
0.73703324
0.73877381
0.74080026
-0.22608332
-0.13627692
0.032746189
0.11606135
0.1357676
0.11467533
0.12312768
0.17756972
0.25487357
0.32446178
0.35080949
0.36805488
0.40065086
0.42963146
0.43237367
0.30794416
0.1540095
-0.21529397
-0.20124781
-0.10926394
-0.052550623
8.5586511e-05
0.055320907
0.088893198
0.098712846
0.091315258
0.051033798
-0.0057231367
-0.080167311
-0.16889862
-0.27081971
-0.37427703
-0.46350879
-0.51467414
-0.50697884
-0.42685686
-0.28233878
-0.099698791
0.090415566
0.26279197
0.40489477
0.51488817
0.59608995
0.65391177
0.6937866
0.72028221
0.73680547
0.74586568
0.7497107
0.75060476
0.74962826
0.74710269
0.74480581
0.74346345
0.74261653
0.74416225
0.74599394
-0.16184507
-0.16329602
-0.068267137
0.085064184
0.15509557
0.16591257
0.14988198
0.15855768
0.20417635
0.27018094
0.33365003
0.36015265
0.37760151
0.40763933
0.43995189
0.43850202
0.31914556
0.16273344
-0.18441697
-0.10569531
-0.072293377
-0.054194254
-0.014007844
0.010912044
0.034430896
0.053924671
0.039971242
-0.024814482
-0.10305684
-0.19943109
-0.31097267
-0.43561057
-0.55643524
-0.64883034
-0.68512817
-0.63895315
-0.50450667
-0.30698181
-0.083580341
0.1292772
0.30916227
0.45012048
0.55500614
0.63001349
0.68204412
0.71699141
0.73921034
0.75188335
0.7578564
0.75993499
0.75954141
0.75650032
0.75364009
0.75093438
0.74928194
0.74815314
0.74948337
0.75110601
-0.087340314
-0.11051641
-0.094196938
0.000468645
0.13560428
0.1939277
0.19465167
0.18603135
0.19288491
0.23035083
0.28604291
0.34269738
0.3692691
0.38803933
0.41608791
0.45052686
0.44699986
0.33518182
0.17761263
-0.13788174
-0.078496479
-0.098031178
-0.084788975
-0.081424627
-0.050131482
-0.0049200656
0.015611164
-0.024933118
-0.11740289
-0.22234547
-0.3470898
-0.48750264
-0.64090242
-0.77823832
-0.86898726
-0.87487255
-0.76822486
-0.56604191
-0.308654
-0.047483463
0.18043685
0.362182
0.49816828
0.59581795
0.66378021
0.70974417
0.73941013
0.7568612
0.76571807
0.76957811
0.77015729
0.76698825
0.76353997
0.76015586
0.75705379
0.75506339
0.75363354
0.75472962
0.75613162
-0.076917591
-0.056711699
-0.053771453
-0.024049479
0.065825046
0.18283621
0.23093326
0.22247027
0.21835837
0.22435776
0.2558954
0.30044024
0.35201405
0.37844054
0.39899973
0.42668628
0.4617918
0.45874707
0.35652782
0.20261204
-0.082235394
-0.12818622
-0.15466251
-0.18480676
-0.15858198
-0.084888794
-0.0273862
-0.035581566
-0.10577635
-0.23231236
-0.37159496
-0.53324861
-0.71274217
-0.89863786
-1.0516619
-1.1300775
-1.0748059
-0.88534852
-0.60041422
-0.28079928
0.0070804
0.24258734
0.41998777
0.54769025
0.63673299
0.69715001
0.73653361
0.76025928
0.77297312
0.77928527
0.78141645
0.77832932
0.7746668
0.77054476
0.76667173
0.76314425
0.76079688
0.75904737
0.75989435
0.76106596
-0.1389462
-0.063020264
-0.018218318
0.0050953419
0.042498609
0.12595798
0.2249916
0.26519858
0.25144257
0.24542883
0.25348126
0.27484041
0.31613382
0.36131349
0.38766946
0.41035866
0.43930354
0.47453066
0.47485719
0.38507761
0.24284881
-0.019802963
-0.21663072
-0.29392663
-0.28401854
-0.18645707
-0.087798979
-0.060721401
-0.10380839
-0.20613646
-0.37820483
-0.56196524
-0.77467295
-1.0038589
-1.2240635
-1.3951034
-1.427496
-1.2819715
-0.98139052
-0.5959037
-0.22285968
0.080231953
0.31269359
0.48058062
0.59775169
0.67731931
0.72944868
0.76138029
0.77919344
0.78881543
0.79314748
0.79049352
0.78680924
0.78228319
0.7775549
0.77316269
0.76919374
0.76646983
0.76438487
0.76497245
0.76590492
-0.26160256
-0.13004063
-0.037514148
0.02383655
0.062192866
0.10346366
0.17941877
0.26050564
0.29431212
0.28019823
0.2694611
0.27411952
0.29499567
0.33056547
0.37073
0.39736212
0.42217552
0.45319779
0.48926717
0.49414603
0.42150968
0.2996757
0.042572098
-0.39828178
-0.42329769
-0.30884496
-0.1647812
-0.097811867
-0.11464702
-0.1896272
-0.33377334
-0.56672767
-0.81243409
-1.0933142
-1.375676
-1.6482359
-1.806272
-1.7482391
-1.4818094
-1.030413
-0.54680842
-0.14219719
0.16564023
0.38760647
0.54245739
0.64762307
0.7166199
0.75932504
0.78383114
0.79784502
0.80520445
0.80334889
0.7999695
0.7951793
0.78990415
0.78453883
0.77961649
0.77518734
0.77207076
0.76963785
0.76995741
0.77064575
-0.48732904
-0.28911831
-0.11133537
-0.0070823411
0.065216397
0.11363278
0.1567654
0.22320015
0.28970654
0.31807256
0.30402309
0.28794852
0.29376062
0.31259759
0.34430852
0.38017789
0.40737615
0.43438837
0.4676358
0.5056862
0.51632222
0.46410968
0.36294966
0.098809236
-0.56362261
-0.4449223
-0.26040296
-0.14491914
-0.13359676
-0.18632216
-0.29939905
-0.49939441
-0.81548343
-1.1528792
-1.5100995
-1.8732982
-2.1800322
-2.2390248
-2.0309321
-1.5740621
-0.98883017
-0.46106592
-0.038880036
0.25908629
0.4649042
0.60444849
0.69592804
0.75288241
0.78619102
0.80596255
0.81738253
0.81679695
0.81405651
0.80925985
0.80354391
0.79748978
0.79148495
0.78601619
0.78111176
0.77759093
0.77479565
0.77484001
0.77528551
-0.68565641
-0.55278797
-0.30354603
-0.089705507
0.023918053
0.10281356
0.15632835
0.20130045
0.25807262
0.31269093
0.3349456
0.32016172
0.30479075
0.31048953
0.32873666
0.356865
0.38966539
0.41759931
0.4468571
0.4825526
0.52336309
0.54219618
0.51049318
0.42501229
0.14493454
-0.58401716
-0.3670146
-0.20095155
-0.15831841
-0.18915748
-0.28006122
-0.44254392
-0.71971679
-1.1502994
-1.620088
-2.0719306
-2.5410727
-2.7156253
-2.609536
-2.1924709
-1.5411917
-0.9021278
-0.33636364
0.078584344
0.35658584
0.54284014
0.66452989
0.74036835
0.78535879
0.81265617
0.82941969
0.83069495
0.82902057
0.82446337
0.81852172
0.81185278
0.80503029
0.79837458
0.79234728
0.7869577
0.78301538
0.77984779
0.77961735
0.77982066
-0.7043993
-0.77241767
-0.58335512
-0.30238428
-0.068417213
0.054533228
0.13507536
0.19085108
0.23558873
0.28366411
0.3279185
0.34800485
0.33085497
0.31598976
0.32567855
0.3427474
0.3684488
0.39905596
0.42788995
0.45939011
0.49764508
0.54171524
0.56891243
0.55543349
0.48135879
0.1788538
-0.47325262
-0.26141333
-0.18764001
-0.1948283
-0.26606425
-0.40371586
-0.63419916
-1.0202072
-1.601719
-2.2503327
-2.7973958
-3.1412388
-3.1452613
-2.8029657
-2.192724
-1.472485
-0.77511866
-0.188857
0.20225576
0.45555178
0.61862601
0.71952036
0.77999223
0.81726531
0.84098918
0.84486132
0.84477983
0.84077414
0.83480012
0.82769174
0.82009987
0.81250562
0.80519261
0.79860056
0.79270524
0.78832813
0.78479372
0.78428439
0.78424861
-0.56110507
-0.78589634
-0.80680476
-0.58092401
-0.28139283
-0.045082111
0.082319298
0.1613043
0.21659478
0.25884056
0.29993071
0.34167614
0.35357545
0.33919894
0.32889146
0.33826014
0.35486281
0.3790169
0.40824343
0.43805488
0.47170265
0.51239384
0.55957174
0.59400646
0.59388583
0.52598087
0.19938681
-0.3187667
-0.21884686
-0.20261203
-0.25295868
-0.37035938
-0.56964991
-0.89790082
-1.4346325
-2.1845747
-3.0044315
-3.4594437
-3.6009935
-3.3330182
-2.7581183
-2.0300713
-1.2983387
-0.58256657
-0.032712576
0.32865744
0.55273236
0.68772041
0.76816105
0.8187104
0.85164498
0.85906917
0.86122974
0.85815027
0.85239019
0.84498691
0.83677033
0.82826452
0.81990081
0.81193053
0.80474992
0.79833355
0.79353319
0.78962576
0.78883677
0.78856711
-0.36742973
-0.61688326
-0.80983032
-0.78985471
-0.54835995
-0.2486574
-0.019647944
0.10612163
0.18089168
0.23304355
0.27278529
0.3153795
0.34775892
0.35734876
0.34557069
0.33943629
0.34871498
0.36524712
0.38860038
0.41706491
0.44785518
0.48339405
0.52606899
0.57538836
0.61431234
0.62096183
0.54947176
0.21158612
-0.24612483
-0.21015124
-0.24042438
-0.33659953
-0.51165509
-0.79691026
-1.2697036
-1.994257
-2.8811479
-3.7229156
-3.9201675
-3.7522884
-3.2272784
-2.4930625
-1.7251037
-1.0086228
-0.36573224
0.12890566
0.45374539
0.64207494
0.74813915
0.81542635
0.86052928
0.87303158
0.8782359
0.87653629
0.87127992
0.86376824
0.85503471
0.84573739
0.83633314
0.8272087
0.8185551
0.81076876
0.80385348
0.79862137
0.79433816
0.79327038
0.79277381
-0.26492637
-0.40075237
-0.62585923
-0.77615556
-0.72917713
-0.49266647
-0.21034454
0.0049535863
0.12506888
0.19412658
0.24289998
0.28707989
0.32425698
0.3520559
0.35841661
0.35042994
0.34763759
0.35735792
0.37414869
0.39718999
0.42533643
0.45698944
0.49394582
0.53772785
0.5873289
0.62651764
0.63177398
0.54839201
0.21726689
-0.21295805
-0.22695072
-0.30281878
-0.45276929
-0.70475488
-1.1175682
-1.7997462
-2.6922739
-3.571142
-4.1539693
-4.0362292
-3.5803433
-2.8703587
-2.073452
-1.3355588
-0.69808477
-0.14684803
0.28799926
0.57197458
0.71926758
0.8065739
0.86668133
0.88615858
0.8956193
0.89585405
0.89144961
0.884043
0.8749357
0.8649258
0.85458238
0.84430075
0.83438728
0.82503414
0.81667714
0.80925433
0.80358613
0.79892567
0.79758068
0.7968662
-0.20736527
-0.2652791
-0.40713684
-0.58418466
-0.69654914
-0.63766793
-0.4222802
-0.17086439
0.026344313
0.13993151
0.20352326
0.25560919
0.29653313
0.33058227
0.35250005
0.35799748
0.35359892
0.35396417
0.36449734
0.3817413
0.404777
0.43283721
0.46508389
0.50272649
0.54625291
0.5934615
0.6276829
0.62273596
0.52185311
0.21255808
-0.20971223
-0.26820692
-0.39362486
-0.61315706
-0.97453393
-1.5797677
-2.4472749
-3.4484461
-4.0700889
-4.2402799
-3.8570681
-3.1601685
-2.364256
-1.5894769
-0.92987319
-0.3989176
0.065354146
0.44659207
0.67412217
0.79168591
0.87058506
0.89775025
0.91296483
0.91599034
0.91285822
0.90581313
0.89649191
0.88587983
0.87465507
0.86330329
0.85211477
0.84139919
0.83139954
0.82246365
0.81452864
0.80842091
0.80338272
0.80176236
0.80084284
-0.184705
-0.18953997
-0.24701838
-0.38039135
-0.5058174
-0.58771119
-0.52869718
-0.34493317
-0.13399682
0.046884932
0.1525952
0.21747806
0.26564862
0.30403049
0.33315937
0.35114839
0.35674141
0.35562457
0.35879685
0.37038072
0.38816277
0.41131704
0.43931525
0.47169492
0.5090072
0.55044393
0.59204381
0.61566003
0.59335283
0.47162756
0.20011513
-0.23009818
-0.33431887
-0.52173601
-0.83731062
-1.3577446
-2.1511909
-3.1935694
-4.0809128
-4.2026716
-4.089427
-3.4280252
-2.6091399
-1.820592
-1.1162774
-0.55726219
-0.1365905
0.28120766
0.59364088
0.76204654
0.87123632
0.90771958
0.92994
0.93664214
0.93543002
0.92905699
0.91971696
0.90862324
0.89660422
0.88422463
0.8718345
0.85973393
0.84829127
0.83763941
0.8281206
0.81966829
0.81311791
0.80770323
0.80581225
0.80470499
-0.18614094
-0.15005041
-0.15802063
-0.21124496
-0.31959934
-0.40791552
-0.46527456
-0.41398077
-0.26645139
-0.095963155
0.069167466
0.1700554
0.23016609
0.27469015
0.30875804
0.33389332
0.34909916
0.355041
0.35680829
0.362522
0.37518751
0.39349579
0.41673059
0.44447775
0.47631977
0.51199966
0.54914116
0.58117629
0.58983254
0.54647277
0.40296169
0.19293657
-0.27290766
-0.43116519
-0.70231446
-1.153505
-1.8536413
-2.836827
-3.8196805
-4.4567724
-4.1353794
-3.6660794
-2.8599977
-2.0403667
-1.3142801
-0.69770411
-0.24597704
0.11939234
0.50716185
0.7080267
0.85691296
0.91508779
0.94649006
0.95756802
0.95895415
0.95371495
0.9445961
0.93317293
0.92045629
0.90711674
0.89355351
0.88013301
0.86722325
0.85505247
0.84374542
0.83363796
0.82466425
0.81766916
0.81188325
0.80973385
0.80834234
-0.20757988
-0.13521654
-0.1061996
-0.11284262
-0.15511856
-0.23226597
-0.30028908
-0.34186353
-0.30182884
-0.18798504
-0.048470661
0.09463519
0.18860374
0.24212129
0.28157531
0.31173073
0.33332482
0.34666662
0.35319529
0.35748533
0.36536847
0.37905039
0.39776199
0.42089172
0.44799412
0.47841502
0.51091519
0.54140585
0.5613805
0.55140628
0.48744667
0.32545582
0.17936495
-0.3406224
-0.56968185
-0.95742929
-1.5723151
-2.4612514
-3.4741462
-4.2267689
-4.3734671
-3.7728659
-3.0813606
-2.2683416
-1.5202384
-0.87686108
-0.35152093
0.033564709
0.42204217
0.66557023
0.80688791
0.9227252
0.96022885