/*--------------------------------*- C++ -*----------------------------------*\
| =========                 |                                                 |
| \\      /  F ield         | OpenFOAM: The Open Source CFD Toolbox           |
|  \\    /   O peration     | Version:  v2012                                 |
|   \\  /    A nd           | Website:  www.openfoam.com                      |
|    \\/     M anipulation  |                                                 |
\*---------------------------------------------------------------------------*/
FoamFile
{
    version     2.0;
    format      ascii;
    class       pointVectorField;
    location    "44.0127461100179858";
    object      pointDisplacement;
}
// * * * * * * * * * * * * * * * * * * * * * * * * * * * * * * * * * * * * * //

dimensions      [0 1 0 0 0 0 0];


internalField   nonuniform List<vector> 
18840
(
(1.6339893 0 0)
(1.6338166 0 0)
(1.6333036 0 0)
(1.6324596 0 0)
(1.6312918 0 0)
(1.6298052 0 0)
(1.6280038 0 0)
(1.6258901 0 0)
(1.6234656 0 0)
(1.6207311 0 0)
(1.6176862 0 0)
(1.6143301 0 0)
(1.6106615 0 0)
(1.6066784 0 0)
(1.6023782 0 0)
(1.5977581 0 0)
(1.5928151 0 0)
(1.5875459 0 0)
(1.5819472 0 0)
(1.5760219 0 0)
(1.568528 0 0)
(1.6339893 0 0)
(1.6338165 0 0)
(1.6333031 0 0)
(1.6324581 0 0)
(1.6312887 0 0)
(1.6297998 0 0)
(1.6279954 0 0)
(1.6258779 0 0)
(1.6234488 0 0)
(1.620709 0 0)
(1.6176583 0 0)
(1.6142958 0 0)
(1.6106202 0 0)
(1.6066297 0 0)
(1.6023219 0 0)
(1.5976941 0 0)
(1.5927433 0 0)
(1.5874663 0 0)
(1.5818595 0 0)
(1.5759224 0 0)
(1.5696448 0 0)
(1.6339893 0 0)
(1.6338161 0 0)
(1.6333015 0 0)
(1.6324543 0 0)
(1.6312817 0 0)
(1.6297885 0 0)
(1.6279784 0 0)
(1.6258542 0 0)
(1.6234173 0 0)
(1.6206685 0 0)
(1.6176077 0 0)
(1.6142343 0 0)
(1.6105468 0 0)
(1.6065438 0 0)
(1.6022227 0 0)
(1.5975812 0 0)
(1.5926161 0 0)
(1.5873242 0 0)
(1.5817017 0 0)
(1.5757446 0 0)
(1.5693566 0 0)
(1.6339893 0 0)
(1.6338158 0 0)
(1.6333003 0 0)
(1.6324513 0 0)
(1.6312758 0 0)
(1.6297787 0 0)
(1.6279636 0 0)
(1.6258331 0 0)
(1.6233888 0 0)
(1.6206315 0 0)
(1.6175611 0 0)
(1.6141771 0 0)
(1.6104782 0 0)
(1.6064629 0 0)
(1.602129 0 0)
(1.597474 0 0)
(1.5924951 0 0)
(1.5871893 0 0)
(1.5815529 0 0)
(1.575583 0 0)
(1.5691081 0 0)
(1.6339893 0 0)
(1.6338156 0 0)
(1.6332993 0 0)
(1.6324488 0 0)
(1.6312708 0 0)
(1.6297702 0 0)
(1.6279504 0 0)
(1.6258141 0 0)
(1.6233628 0 0)
(1.6205972 0 0)
(1.6175174 0 0)
(1.6141229 0 0)
(1.6104126 0 0)
(1.606385 0 0)
(1.6020381 0 0)
(1.5973696 0 0)
(1.5923768 0 0)
(1.587057 0 0)
(1.581407 0 0)
(1.5754247 0 0)
(1.5688713 0 0)
(1.6339893 0 0)
(1.6338155 0 0)
(1.6332986 0 0)
(1.6324468 0 0)
(1.6312667 0 0)
(1.6297628 0 0)
(1.6279387 0 0)
(1.6257967 0 0)
(1.6233385 0 0)
(1.6205647 0 0)
(1.6174755 0 0)
(1.6140705 0 0)
(1.6103484 0 0)
(1.6063081 0 0)
(1.6019476 0 0)
(1.5972648 0 0)
(1.5922572 0 0)
(1.5869224 0 0)
(1.5812575 0 0)
(1.5752608 0 0)
(1.5686353 0 0)
(1.6339893 0 0)
(1.6338154 0 0)
(1.6332982 0 0)
(1.6324453 0 0)
(1.6312632 0 0)
(1.6297563 0 0)
(1.627928 0 0)
(1.6257806 0 0)
(1.6233154 0 0)
(1.6205335 0 0)
(1.6174347 0 0)
(1.6140186 0 0)
(1.6102843 0 0)
(1.6062305 0 0)
(1.6018553 0 0)
(1.5971569 0 0)
(1.5921328 0 0)
(1.5867809 0 0)
(1.5810984 0 0)
(1.5750841 0 0)
(1.5683919 0 0)
(1.6339893 0 0)
(1.6338154 0 0)
(1.6332979 0 0)
(1.6324442 0 0)
(1.6312603 0 0)
(1.6297506 0 0)
(1.6279182 0 0)
(1.6257654 0 0)
(1.6232934 0 0)
(1.6205031 0 0)
(1.6173943 0 0)
(1.6139668 0 0)
(1.6102194 0 0)
(1.606151 0 0)
(1.6017598 0 0)
(1.597044 0 0)
(1.5920012 0 0)
(1.5866294 0 0)
(1.5809261 0 0)
(1.5748898 0 0)
(1.5681362 0 0)
(1.6339893 0 0)
(1.6338154 0 0)
(1.6332977 0 0)
(1.6324433 0 0)
(1.6312578 0 0)
(1.6297453 0 0)
(1.627909 0 0)
(1.6257508 0 0)
(1.623272 0 0)
(1.6204731 0 0)
(1.6173541 0 0)
(1.6139145 0 0)
(1.6101533 0 0)
(1.6060691 0 0)
(1.6016604 0 0)
(1.5969252 0 0)
(1.5918613 0 0)
(1.5864665 0 0)
(1.5807386 0 0)
(1.5746757 0 0)
(1.5678659 0 0)
(1.6339893 0 0)
(1.6338155 0 0)
(1.6332977 0 0)
(1.6324426 0 0)
(1.6312555 0 0)
(1.6297404 0 0)
(1.6279002 0 0)
(1.6257367 0 0)
(1.623251 0 0)
(1.6204434 0 0)
(1.6173139 0 0)
(1.6138617 0 0)
(1.6100858 0 0)
(1.6059847 0 0)
(1.6015569 0 0)
(1.5968002 0 0)
(1.5917126 0 0)
(1.5862917 0 0)
(1.5805353 0 0)
(1.5744411 0 0)
(1.5675805 0 0)
(1.6339893 0 0)
(1.6338152 0 0)
(1.6332964 0 0)
(1.6324391 0 0)
(1.6312484 0 0)
(1.629728 0 0)
(1.6278808 0 0)
(1.6257083 0 0)
(1.6232115 0 0)
(1.6203905 0 0)
(1.6172452 0 0)
(1.6137745 0 0)
(1.6099774 0 0)
(1.6058523 0 0)
(1.6013974 0 0)
(1.5966107 0 0)
(1.5914898 0 0)
(1.5860325 0 0)
(1.5802362 0 0)
(1.5740983 0 0)
(1.5671868 0 0)
(1.6339893 0 0)
(1.6338166 0 0)
(1.6333036 0 0)
(1.6324596 0 0)
(1.6312918 0 0)
(1.6298052 0 0)
(1.6280038 0 0)
(1.6258901 0 0)
(1.6234656 0 0)
(1.6207311 0 0)
(1.6176862 0 0)
(1.6143301 0 0)
(1.6106615 0 0)
(1.6066784 0 0)
(1.6023782 0 0)
(1.5977581 0 0)
(1.5928151 0 0)
(1.5875459 0 0)
(1.5819472 0 0)
(1.5760219 0 0)
(1.568528 0 0)
(1.6339893 0 0)
(1.6338165 0 0)
(1.6333031 0 0)
(1.6324581 0 0)
(1.6312887 0 0)
(1.6297998 0 0)
(1.6279954 0 0)
(1.6258779 0 0)
(1.6234488 0 0)
(1.620709 0 0)
(1.6176583 0 0)
(1.6142958 0 0)
(1.6106202 0 0)
(1.6066297 0 0)
(1.6023219 0 0)
(1.5976941 0 0)
(1.5927433 0 0)
(1.5874663 0 0)
(1.5818595 0 0)
(1.5759224 0 0)
(1.5696448 0 0)
(1.6339893 0 0)
(1.6338161 0 0)
(1.6333015 0 0)
(1.6324543 0 0)
(1.6312817 0 0)
(1.6297885 0 0)
(1.6279784 0 0)
(1.6258542 0 0)
(1.6234173 0 0)
(1.6206685 0 0)
(1.6176077 0 0)
(1.6142343 0 0)
(1.6105468 0 0)
(1.6065438 0 0)
(1.6022227 0 0)
(1.5975812 0 0)
(1.5926161 0 0)
(1.5873242 0 0)
(1.5817017 0 0)
(1.5757446 0 0)
(1.5693566 0 0)
(1.6339893 0 0)
(1.6338158 0 0)
(1.6333003 0 0)
(1.6324513 0 0)
(1.6312758 0 0)
(1.6297787 0 0)
(1.6279636 0 0)
(1.6258331 0 0)
(1.6233888 0 0)
(1.6206315 0 0)
(1.6175611 0 0)
(1.6141771 0 0)
(1.6104782 0 0)
(1.6064629 0 0)
(1.602129 0 0)
(1.597474 0 0)
(1.5924951 0 0)
(1.5871893 0 0)
(1.5815529 0 0)
(1.575583 0 0)
(1.5691081 0 0)
(1.6339893 0 0)
(1.6338156 0 0)
(1.6332993 0 0)
(1.6324488 0 0)
(1.6312708 0 0)
(1.6297702 0 0)
(1.6279504 0 0)
(1.6258141 0 0)
(1.6233628 0 0)
(1.6205972 0 0)
(1.6175174 0 0)
(1.6141229 0 0)
(1.6104126 0 0)
(1.606385 0 0)
(1.6020381 0 0)
(1.5973696 0 0)
(1.5923768 0 0)
(1.587057 0 0)
(1.581407 0 0)
(1.5754247 0 0)
(1.5688713 0 0)
(1.6339893 0 0)
(1.6338155 0 0)
(1.6332986 0 0)
(1.6324468 0 0)
(1.6312667 0 0)
(1.6297628 0 0)
(1.6279387 0 0)
(1.6257967 0 0)
(1.6233385 0 0)
(1.6205647 0 0)
(1.6174755 0 0)
(1.6140705 0 0)
(1.6103484 0 0)
(1.6063081 0 0)
(1.6019476 0 0)
(1.5972648 0 0)
(1.5922572 0 0)
(1.5869224 0 0)
(1.5812575 0 0)
(1.5752608 0 0)
(1.5686353 0 0)
(1.6339893 0 0)
(1.6338154 0 0)
(1.6332982 0 0)
(1.6324453 0 0)
(1.6312632 0 0)
(1.6297563 0 0)
(1.627928 0 0)
(1.6257806 0 0)
(1.6233154 0 0)
(1.6205335 0 0)
(1.6174347 0 0)
(1.6140186 0 0)
(1.6102843 0 0)
(1.6062305 0 0)
(1.6018553 0 0)
(1.5971569 0 0)
(1.5921328 0 0)
(1.5867809 0 0)
(1.5810984 0 0)
(1.5750841 0 0)
(1.5683919 0 0)
(1.6339893 0 0)
(1.6338154 0 0)
(1.6332979 0 0)
(1.6324442 0 0)
(1.6312603 0 0)
(1.6297506 0 0)
(1.6279182 0 0)
(1.6257654 0 0)
(1.6232934 0 0)
(1.6205031 0 0)
(1.6173943 0 0)
(1.6139668 0 0)
(1.6102194 0 0)
(1.606151 0 0)
(1.6017598 0 0)
(1.597044 0 0)
(1.5920012 0 0)
(1.5866294 0 0)
(1.5809261 0 0)
(1.5748898 0 0)
(1.5681362 0 0)
(1.6339893 0 0)
(1.6338154 0 0)
(1.6332977 0 0)
(1.6324433 0 0)
(1.6312578 0 0)
(1.6297453 0 0)
(1.627909 0 0)
(1.6257508 0 0)
(1.623272 0 0)
(1.6204731 0 0)
(1.6173541 0 0)
(1.6139145 0 0)
(1.6101533 0 0)
(1.6060691 0 0)
(1.6016604 0 0)
(1.5969252 0 0)
(1.5918613 0 0)
(1.5864665 0 0)
(1.5807386 0 0)
(1.5746757 0 0)
(1.5678659 0 0)
(1.6339893 0 0)
(1.6338155 0 0)
(1.6332977 0 0)
(1.6324426 0 0)
(1.6312555 0 0)
(1.6297404 0 0)
(1.6279002 0 0)
(1.6257367 0 0)
(1.623251 0 0)
(1.6204434 0 0)
(1.6173139 0 0)
(1.6138617 0 0)
(1.6100858 0 0)
(1.6059847 0 0)
(1.6015569 0 0)
(1.5968002 0 0)
(1.5917126 0 0)
(1.5862917 0 0)
(1.5805353 0 0)
(1.5744411 0 0)
(1.5675805 0 0)
(1.6339893 0 0)
(1.6338152 0 0)
(1.6332964 0 0)
(1.6324391 0 0)
(1.6312484 0 0)
(1.629728 0 0)
(1.6278808 0 0)
(1.6257083 0 0)
(1.6232115 0 0)
(1.6203905 0 0)
(1.6172452 0 0)
(1.6137745 0 0)
(1.6099774 0 0)
(1.6058523 0 0)
(1.6013974 0 0)
(1.5966107 0 0)
(1.5914898 0 0)
(1.5860325 0 0)
(1.5802362 0 0)
(1.5740983 0 0)
(1.5671868 0 0)
(1.6339893 0 0)
(1.6338142 0 0)
(1.6332948 0 0)
(1.6324411 0 0)
(1.6312609 0 0)
(1.6297604 0 0)
(1.6279437 0 0)
(1.6258137 0 0)
(1.6233721 0 0)
(1.6206196 0 0)
(1.6175559 0 0)
(1.61418 0 0)
(1.6104903 0 0)
(1.6064842 0 0)
(1.602159 0 0)
(1.5975111 0 0)
(1.5925366 0 0)
(1.5872311 0 0)
(1.5815899 0 0)
(1.575614 0 0)
(1.5687535 0 0)
(1.6339893 0 0)
(1.6338142 0 0)
(1.6332948 0 0)
(1.6324412 0 0)
(1.6312613 0 0)
(1.629761 0 0)
(1.6279446 0 0)
(1.6258151 0 0)
(1.6233741 0 0)
(1.6206222 0 0)
(1.6175593 0 0)
(1.6141843 0 0)
(1.6104954 0 0)
(1.6064902 0 0)
(1.6021659 0 0)
(1.5975187 0 0)
(1.5925449 0 0)
(1.5872398 0 0)
(1.5815987 0 0)
(1.5756224 0 0)
(1.5687669 0 0)
(1.6339893 0 0)
(1.633814 0 0)
(1.633294 0 0)
(1.6324396 0 0)
(1.6312585 0 0)
(1.6297568 0 0)
(1.6279388 0 0)
(1.6258075 0 0)
(1.6233645 0 0)
(1.6206104 0 0)
(1.6175451 0 0)
(1.6141674 0 0)
(1.6104758 0 0)
(1.6064676 0 0)
(1.60214 0 0)
(1.5974894 0 0)
(1.5925117 0 0)
(1.5872025 0 0)
(1.5815567 0 0)
(1.575575 0 0)
(1.5687334 0 0)
(1.6339893 0 0)
(1.633814 0 0)
(1.6332938 0 0)
(1.632439 0 0)
(1.6312576 0 0)
(1.6297555 0 0)
(1.6279371 0 0)
(1.6258051 0 0)
(1.6233614 0 0)
(1.6206066 0 0)
(1.6175404 0 0)
(1.6141619 0 0)
(1.6104691 0 0)
(1.6064598 0 0)
(1.602131 0 0)
(1.597479 0 0)
(1.5924997 0 0)
(1.5871887 0 0)
(1.5815409 0 0)
(1.5755564 0 0)
(1.5687431 0 0)
(1.6339893 0 0)
(1.633814 0 0)
(1.633294 0 0)
(1.6324396 0 0)
(1.6312585 0 0)
(1.629757 0 0)
(1.627939 0 0)
(1.6258076 0 0)
(1.6233644 0 0)
(1.6206101 0 0)
(1.6175445 0 0)
(1.6141664 0 0)
(1.6104742 0 0)
(1.6064654 0 0)
(1.6021371 0 0)
(1.5974857 0 0)
(1.5925069 0 0)
(1.5871964 0 0)
(1.5815491 0 0)
(1.5755643 0 0)
(1.5687931 0 0)
(1.6339893 0 0)
(1.6338142 0 0)
(1.6332947 0 0)
(1.6324411 0 0)
(1.6312611 0 0)
(1.6297609 0 0)
(1.6279443 0 0)
(1.6258144 0 0)
(1.6233727 0 0)
(1.6206201 0 0)
(1.6175561 0 0)
(1.6141798 0 0)
(1.6104894 0 0)
(1.6064827 0 0)
(1.6021564 0 0)
(1.5975072 0 0)
(1.5925308 0 0)
(1.5872228 0 0)
(1.5815781 0 0)
(1.5755953 0 0)
(1.56888 0 0)
(1.6339893 0 0)
(1.6338145 0 0)
(1.6332959 0 0)
(1.6324435 0 0)
(1.6312653 0 0)
(1.629767 0 0)
(1.6279526 0 0)
(1.6258249 0 0)
(1.6233857 0 0)
(1.6206355 0 0)
(1.6175742 0 0)
(1.6142007 0 0)
(1.6105133 0 0)
(1.6065097 0 0)
(1.6021869 0 0)
(1.5975414 0 0)
(1.592569 0 0)
(1.5872655 0 0)
(1.5816255 0 0)
(1.5756471 0 0)
(1.5690011 0 0)
(1.6339893 0 0)
(1.633815 0 0)
(1.6332975 0 0)
(1.6324469 0 0)
(1.6312709 0 0)
(1.6297752 0 0)
(1.6279636 0 0)
(1.625839 0 0)
(1.623403 0 0)
(1.6206563 0 0)
(1.6175986 0 0)
(1.614229 0 0)
(1.6105457 0 0)
(1.6065466 0 0)
(1.6022286 0 0)
(1.5975885 0 0)
(1.5926221 0 0)
(1.5873252 0 0)
(1.5816926 0 0)
(1.5757214 0 0)
(1.569158 0 0)
(1.6339893 0 0)
(1.6338155 0 0)
(1.6332995 0 0)
(1.6324512 0 0)
(1.631278 0 0)
(1.6297854 0 0)
(1.6279774 0 0)
(1.6258566 0 0)
(1.6234248 0 0)
(1.6206825 0 0)
(1.6176295 0 0)
(1.6142648 0 0)
(1.6105869 0 0)
(1.6065936 0 0)
(1.602282 0 0)
(1.597649 0 0)
(1.5926907 0 0)
(1.587403 0 0)
(1.5817811 0 0)
(1.5758211 0 0)
(1.5693543 0 0)
(1.6339893 0 0)
(1.6338162 0 0)
(1.633302 0 0)
(1.6324563 0 0)
(1.6312865 0 0)
(1.6297977 0 0)
(1.627994 0 0)
(1.625878 0 0)
(1.6234511 0 0)
(1.6207142 0 0)
(1.6176668 0 0)
(1.6143082 0 0)
(1.6106368 0 0)
(1.6066506 0 0)
(1.6023468 0 0)
(1.5977225 0 0)
(1.5927742 0 0)
(1.5874983 0 0)
(1.5818907 0 0)
(1.5759504 0 0)
(1.5696077 0 0)
(1.6339893 0 0)
(1.6338142 0 0)
(1.6332948 0 0)
(1.6324411 0 0)
(1.6312609 0 0)
(1.6297604 0 0)
(1.6279437 0 0)
(1.6258137 0 0)
(1.6233721 0 0)
(1.6206196 0 0)
(1.6175559 0 0)
(1.61418 0 0)
(1.6104903 0 0)
(1.6064842 0 0)
(1.602159 0 0)
(1.5975111 0 0)
(1.5925366 0 0)
(1.5872311 0 0)
(1.5815899 0 0)
(1.575614 0 0)
(1.5687535 0 0)
(1.6339893 0 0)
(1.6338142 0 0)
(1.6332948 0 0)
(1.6324412 0 0)
(1.6312613 0 0)
(1.629761 0 0)
(1.6279446 0 0)
(1.6258151 0 0)
(1.6233741 0 0)
(1.6206222 0 0)
(1.6175593 0 0)
(1.6141843 0 0)
(1.6104954 0 0)
(1.6064902 0 0)
(1.6021659 0 0)
(1.5975187 0 0)
(1.5925449 0 0)
(1.5872398 0 0)
(1.5815987 0 0)
(1.5756224 0 0)
(1.5687669 0 0)
(1.6339893 0 0)
(1.633814 0 0)
(1.633294 0 0)
(1.6324396 0 0)
(1.6312585 0 0)
(1.6297568 0 0)
(1.6279388 0 0)
(1.6258075 0 0)
(1.6233645 0 0)
(1.6206104 0 0)
(1.6175451 0 0)
(1.6141674 0 0)
(1.6104758 0 0)
(1.6064676 0 0)
(1.60214 0 0)
(1.5974894 0 0)
(1.5925117 0 0)
(1.5872025 0 0)
(1.5815567 0 0)
(1.575575 0 0)
(1.5687334 0 0)
(1.6339893 0 0)
(1.633814 0 0)
(1.6332938 0 0)
(1.632439 0 0)
(1.6312576 0 0)
(1.6297555 0 0)
(1.6279371 0 0)
(1.6258051 0 0)
(1.6233614 0 0)
(1.6206066 0 0)
(1.6175404 0 0)
(1.6141619 0 0)
(1.6104691 0 0)
(1.6064598 0 0)
(1.602131 0 0)
(1.597479 0 0)
(1.5924997 0 0)
(1.5871887 0 0)
(1.5815409 0 0)
(1.5755564 0 0)
(1.5687431 0 0)
(1.6339893 0 0)
(1.633814 0 0)
(1.633294 0 0)
(1.6324396 0 0)
(1.6312585 0 0)
(1.629757 0 0)
(1.627939 0 0)
(1.6258076 0 0)
(1.6233644 0 0)
(1.6206101 0 0)
(1.6175445 0 0)
(1.6141664 0 0)
(1.6104742 0 0)
(1.6064654 0 0)
(1.6021371 0 0)
(1.5974857 0 0)
(1.5925069 0 0)
(1.5871964 0 0)
(1.5815491 0 0)
(1.5755643 0 0)
(1.5687931 0 0)
(1.6339893 0 0)
(1.6338142 0 0)
(1.6332947 0 0)
(1.6324411 0 0)
(1.6312611 0 0)
(1.6297609 0 0)
(1.6279443 0 0)
(1.6258144 0 0)
(1.6233727 0 0)
(1.6206201 0 0)
(1.6175561 0 0)
(1.6141798 0 0)
(1.6104894 0 0)
(1.6064827 0 0)
(1.6021564 0 0)
(1.5975072 0 0)
(1.5925308 0 0)
(1.5872228 0 0)
(1.5815781 0 0)
(1.5755953 0 0)
(1.56888 0 0)
(1.6339893 0 0)
(1.6338145 0 0)
(1.6332959 0 0)
(1.6324435 0 0)
(1.6312653 0 0)
(1.629767 0 0)
(1.6279526 0 0)
(1.6258249 0 0)
(1.6233857 0 0)
(1.6206355 0 0)
(1.6175742 0 0)
(1.6142007 0 0)
(1.6105133 0 0)
(1.6065097 0 0)
(1.6021869 0 0)
(1.5975414 0 0)
(1.592569 0 0)
(1.5872655 0 0)
(1.5816255 0 0)
(1.5756471 0 0)
(1.5690011 0 0)
(1.6339893 0 0)
(1.633815 0 0)
(1.6332975 0 0)
(1.6324469 0 0)
(1.6312709 0 0)
(1.6297752 0 0)
(1.6279636 0 0)
(1.625839 0 0)
(1.623403 0 0)
(1.6206563 0 0)
(1.6175986 0 0)
(1.614229 0 0)
(1.6105457 0 0)
(1.6065466 0 0)
(1.6022286 0 0)
(1.5975885 0 0)
(1.5926221 0 0)
(1.5873252 0 0)
(1.5816926 0 0)
(1.5757214 0 0)
(1.569158 0 0)
(1.6339893 0 0)
(1.6338155 0 0)
(1.6332995 0 0)
(1.6324512 0 0)
(1.631278 0 0)
(1.6297854 0 0)
(1.6279774 0 0)
(1.6258566 0 0)
(1.6234248 0 0)
(1.6206825 0 0)
(1.6176295 0 0)
(1.6142648 0 0)
(1.6105869 0 0)
(1.6065936 0 0)
(1.602282 0 0)
(1.597649 0 0)
(1.5926907 0 0)
(1.587403 0 0)
(1.5817811 0 0)
(1.5758211 0 0)
(1.5693543 0 0)
(1.6339893 0 0)
(1.6338162 0 0)
(1.633302 0 0)
(1.6324563 0 0)
(1.6312865 0 0)
(1.6297977 0 0)
(1.627994 0 0)
(1.625878 0 0)
(1.6234511 0 0)
(1.6207142 0 0)
(1.6176668 0 0)
(1.6143082 0 0)
(1.6106368 0 0)
(1.6066506 0 0)
(1.6023468 0 0)
(1.5977225 0 0)
(1.5927742 0 0)
(1.5874983 0 0)
(1.5818907 0 0)
(1.5759504 0 0)
(1.5696077 0 0)
(1.5603007 0 0)
(1.550764 0 0)
(1.5406891 0 0)
(1.5300697 0 0)
(1.5189062 0 0)
(1.5071984 0 0)
(1.4949461 0 0)
(1.4821496 0 0)
(1.4688086 0 0)
(1.4549199 0 0)
(1.4404775 0 0)
(1.4254753 0 0)
(1.4099081 0 0)
(1.3937683 0 0)
(1.3770464 0 0)
(1.3597325 0 0)
(1.3418169 0 0)
(1.3232841 0 0)
(1.3041079 0 0)
(1.2842641 0 0)
(1.2637234 0 0)
(1.2424495 0 0)
(1.2204039 0 0)
(1.1975466 0 0)
(1.1738259 0 0)
(1.1491835 0 0)
(1.1235624 0 0)
(1.0969026 0 0)
(1.0691358 0 0)
(1.0401879 0 0)
(1.009996 0 0)
(0.97847829 0 0)
(0.94552007 0 0)
(0.91098227 0 0)
(0.87475406 0 0)
(0.83676964 0 0)
(0.7968883 0 0)
(0.75488346 0 0)
(0.71057545 0 0)
(0.66386454 0 0)
(0.61452652 0 0)
(0.56222655 0 0)
(0.50669114 0 0)
(0.44764765 0 0)
(0.38479836 0 0)
(0.3178147 0 0)
(0.24632188 0 0)
(0.16985164 0 0)
(0.087841812 0 0)
(0 0 0)
(1.5603319 0 0)
(1.5508186 0 0)
(1.540765 0 0)
(1.5301646 0 0)
(1.5190176 0 0)
(1.5073238 0 0)
(1.4950831 0 0)
(1.4822956 0 0)
(1.4689608 0 0)
(1.4550752 0 0)
(1.4406336 0 0)
(1.4256307 0 0)
(1.4100613 0 0)
(1.3939181 0 0)
(1.3771918 0 0)
(1.3598731 0 0)
(1.3419521 0 0)
(1.3234126 0 0)
(1.30423 0 0)
(1.2843808 0 0)
(1.263835 0 0)
(1.2425553 0 0)
(1.2205036 0 0)
(1.1976404 0 0)
(1.1739143 0 0)
(1.1492663 0 0)
(1.1236394 0 0)
(1.0969742 0 0)
(1.0692014 0 0)
(1.0402488 0 0)
(1.0100532 0 0)
(0.97853181 0 0)
(0.94557008 0 0)
(0.91102925 0 0)
(0.87479807 0 0)
(0.83681137 0 0)
(0.79692942 0 0)
(0.75492474 0 0)
(0.71061589 0 0)
(0.66390376 0 0)
(0.61456544 0 0)
(0.56226518 0 0)
(0.50672881 0 0)
(0.44768328 0 0)
(0.38483184 0 0)
(0.31784449 0 0)
(0.24634612 0 0)
(0.16986881 0 0)
(0.087850677 0 0)
(0 0 0)
(1.5603515 0 0)
(1.5509077 0 0)
(1.540919 0 0)
(1.5303787 0 0)
(1.5192867 0 0)
(1.5076426 0 0)
(1.4954466 0 0)
(1.4826986 0 0)
(1.4693977 0 0)
(1.4555406 0 0)
(1.4411231 0 0)
(1.4261404 0 0)
(1.4105876 0 0)
(1.3944575 0 0)
(1.3777416 0 0)
(1.3604312 0 0)
(1.3425159 0 0)
(1.3239794 0 0)
(1.3047986 0 0)
(1.2849502 0 0)
(1.2644041 0 0)
(1.2431227 0 0)
(1.2210679 0 0)
(1.1982002 0 0)
(1.1744693 0 0)
(1.1498158 0 0)
(1.1241822 0 0)
(1.097509 0 0)
(1.069727 0 0)
(1.0407659 0 0)
(1.0105608 0 0)
(0.97902905 0 0)
(0.94605658 0 0)
(0.91150417 0 0)
(0.87525971 0 0)
(0.83725936 0 0)
(0.79736472 0 0)
(0.75534664 0 0)
(0.71102122 0 0)
(0.66428977 0 0)
(0.61493064 0 0)
(0.56260684 0 0)
(0.50704384 0 0)
(0.4479686 0 0)
(0.38508433 0 0)
(0.3180582 0 0)
(0.24651485 0 0)
(0.16998736 0 0)
(0.087912962 0 0)
(0 0 0)
(1.5604516 0 0)
(1.5511243 0 0)
(1.5412448 0 0)
(1.5308059 0 0)
(1.5198072 0 0)
(1.5082484 0 0)
(1.4961295 0 0)
(1.4834504 0 0)
(1.47021 0 0)
(1.4564056 0 0)
(1.442034 0 0)
(1.4270913 0 0)
(1.4115722 0 0)
(1.3954703 0 0)
(1.3787779 0 0)
(1.3614869 0 0)
(1.3435866 0 0)
(1.3250606 0 0)
(1.3058875 0 0)
(1.2860443 0 0)
(1.2655005 0 0)
(1.2442188 0 0)
(1.2221612 0 0)
(1.1992887 0 0)
(1.1755512 0 0)
(1.1508894 0 0)
(1.1252456 0 0)
(1.0985602 0 0)
(1.0707634 0 0)
(1.0417869 0 0)
(1.0115647 0 0)
(0.98001379 0 0)
(0.94702052 0 0)
(0.91244523 0 0)
(0.87617507 0 0)
(0.83814764 0 0)
(0.79822557 0 0)
(0.7561777 0 0)
(0.71181793 0 0)
(0.66504719 0 0)
(0.61564399 0 0)
(0.56327077 0 0)
(0.50765319 0 0)
(0.44851829 0 0)
(0.38556805 0 0)
(0.31846551 0 0)
(0.24683543 0 0)
(0.17021238 0 0)
(0.088031152 0 0)
(0 0 0)
(1.5606285 0 0)
(1.5514642 0 0)
(1.5417375 0 0)
(1.5314413 0 0)
(1.5205743 0 0)
(1.509136 0 0)
(1.4971262 0 0)
(1.4845452 0 0)
(1.4713918 0 0)
(1.4576646 0 0)
(1.4433611 0 0)
(1.4284782 0 0)
(1.4130106 0 0)
(1.3969521 0 0)
(1.3802962 0 0)
(1.3630355 0 0)
(1.3451592 0 0)
(1.3266515 0 0)
(1.307492 0 0)
(1.2876577 0 0)
(1.2671188 0 0)
(1.2458383 0 0)
(1.2237783 0 0)
(1.2008998 0 0)
(1.1771539 0 0)
(1.1524812 0 0)
(1.1268235 0 0)
(1.1001212 0 0)
(1.0723043 0 0)
(1.0433056 0 0)
(1.0130582 0 0)
(0.9814793 0 0)
(0.94845551 0 0)
(0.91384608 0 0)
(0.87753757 0 0)
(0.83946965 0 0)
(0.79950568 0 0)
(0.75741178 0 0)
(0.71299955 0 0)
(0.66616959 0 0)
(0.61669996 0 0)
(0.56425193 0 0)
(0.50855207 0 0)
(0.44932796 0 0)
(0.38627922 0 0)
(0.31906336 0 0)
(0.2473054 0 0)
(0.17054192 0 0)
(0.088204269 0 0)
(0 0 0)
(1.5608782 0 0)
(1.5519226 0 0)
(1.5423921 0 0)
(1.5322793 0 0)
(1.5215818 0 0)
(1.5102991 0 0)
(1.4984309 0 0)
(1.4859774 0 0)
(1.4729379 0 0)
(1.4593122 0 0)
(1.4450997 0 0)
(1.4302972 0 0)
(1.414899 0 0)
(1.3988993 0 0)
(1.3822927 0 0)
(1.3650727 0 0)
(1.347229 0 0)
(1.3287468 0 0)
(1.3096066 0 0)
(1.2897851 0 0)
(1.2692532 0 0)
(1.2479748 0 0)
(1.2259121 0 0)
(1.2030267 0 0)
(1.1792701 0 0)
(1.1545833 0 0)
(1.1289079 0 0)
(1.102184 0 0)
(1.0743412 0 0)
(1.0453134 0 0)
(1.0150328 0 0)
(0.98341705 0 0)
(0.95035261 0 0)
(0.91569773 0 0)
(0.87933859 0 0)
(0.84121695 0 0)
(0.80119637 0 0)
(0.75904015 0 0)
(0.71455793 0 0)
(0.66764947 0 0)
(0.61809092 0 0)
(0.56554309 0 0)
(0.50973394 0 0)
(0.45039185 0 0)
(0.38721266 0 0)
(0.3198473 0 0)
(0.24792129 0 0)
(0.17097372 0 0)
(0.088431079 0 0)
(0 0 0)
(1.5611974 0 0)
(1.552495 0 0)
(1.5432033 0 0)
(1.5333135 0 0)
(1.5228231 0 0)
(1.5117311 0 0)
(1.5000374 0 0)
(1.4877416 0 0)
(1.4748433 0 0)
(1.4613435 0 0)
(1.4472444 0 0)
(1.4325433 0 0)
(1.4172332 0 0)
(1.4013075 0 0)
(1.3847624 0 0)
(1.3675933 0 0)
(1.3497907 0 0)
(1.3313409 0 0)
(1.3122249 0 0)
(1.2924194 0 0)
(1.2718965 0 0)
(1.2506206 0 0)
(1.2285543 0 0)
(1.2056602 0 0)
(1.1818906 0 0)
(1.1571861 0 0)
(1.1314886 0 0)
(1.1047382 0 0)
(1.0768639 0 0)
(1.0477994 0 0)
(1.0174773 0 0)
(0.9858158 0 0)
(0.95270087 0 0)
(0.91798917 0 0)
(0.88156679 0 0)
(0.84337825 0 0)
(0.80328683 0 0)
(0.76105216 0 0)
(0.71648231 0 0)
(0.66947623 0 0)
(0.61980738 0 0)
(0.56713545 0 0)
(0.51119056 0 0)
(0.45170232 0 0)
(0.38836172 0 0)
(0.32081177 0 0)
(0.24867871 0 0)
(0.17150455 0 0)
(0.088709888 0 0)
(0 0 0)
(1.5615864 0 0)
(1.5531805 0 0)
(1.5441689 0 0)
(1.534541 0 0)
(1.524294 0 0)
(1.5134272 0 0)
(1.5019412 0 0)
(1.4898344 0 0)
(1.4771038 0 0)
(1.463754 0 0)
(1.449792 0 0)
(1.4352144 0 0)
(1.4200106 0 0)
(1.4041722 0 0)
(1.3876998 0 0)
(1.3705915 0 0)
(1.3528375 0 0)
(1.3344262 0 0)
(1.3153393 0 0)
(1.2955527 0 0)
(1.2750397 0 0)
(1.2537662 0 0)
(1.2316948 0 0)
(1.2087898 0 0)
(1.1850039 0 0)
(1.1602776 0 0)
(1.1345535 0 0)
(1.1077714 0 0)
(1.0798593 0 0)
(1.0507508 0 0)
(1.0203787 0 0)
(0.98866214 0 0)
(0.95548664 0 0)
(0.9207069 0 0)
(0.88420897 0 0)
(0.84594036 0 0)
(0.80576375 0 0)
(0.76343473 0 0)
(0.71876024 0 0)
(0.67163804 0 0)
(0.62183766 0 0)
(0.56901805 0 0)
(0.512912 0 0)
(0.45325049 0 0)
(0.38971841 0 0)
(0.32195001 0 0)
(0.24957238 0 0)
(0.17213075 0 0)
(0.089038695 0 0)
(0 0 0)
(1.5620475 0 0)
(1.5539799 0 0)
(1.5452883 0 0)
(1.5359601 0 0)
(1.5259911 0 0)
(1.515384 0 0)
(1.504141 0 0)
(1.492256 0 0)
(1.479724 0 0)
(1.4665507 0 0)
(1.4527444 0 0)
(1.4383048 0 0)
(1.4232216 0 0)
(1.4074862 0 0)
(1.3911005 0 0)
(1.3740629 0 0)
(1.3563644 0 0)
(1.3379968 0 0)
(1.3189424 0 0)
(1.2991752 0 0)
(1.2786722 0 0)
(1.2574006 0 0)
(1.2353219 0 0)
(1.2124025 0 0)
(1.1885965 0 0)
(1.1638439 0 0)
(1.1380879 0 0)
(1.1112685 0 0)
(1.0833124 0 0)
(1.0541522 0 0)
(1.0237212 0 0)
(0.99194014 0 0)
(0.95869418 0 0)
(0.92383523 0 0)
(0.88724925 0 0)
(0.8488875 0 0)
(0.80861177 0 0)
(0.76617294 0 0)
(0.72137683 0 0)
(0.6741203 0 0)
(0.62416844 0 0)
(0.57117858 0 0)
(0.51488667 0 0)
(0.45502579 0 0)
(0.39127362 0 0)
(0.32325437 0 0)
(0.25059618 0 0)
(0.17284776 0 0)
(0.089415075 0 0)
(0 0 0)
(1.5626086 0 0)
(1.5549219 0 0)
(1.5465903 0 0)
(1.5375992 0 0)
(1.5279472 0 0)
(1.5176394 0 0)
(1.506673 0 0)
(1.4950387 0 0)
(1.4827342 0 0)
(1.4697617 0 0)
(1.4561284 0 0)
(1.4418413 0 0)
(1.4268933 0 0)
(1.4112759 0 0)
(1.3949902 0 0)
(1.3780315 0 0)
(1.3603913 0 0)
(1.3420668 0 0)
(1.323044 0 0)
(1.3032971 0 0)
(1.2828051 0 0)
(1.2615328 0 0)
(1.2394415 0 0)
(1.2165022 0 0)
(1.1926704 0 0)
(1.167885 0 0)
(1.1420903 0 0)
(1.1152269 0 0)
(1.0872191 0 0)
(1.0579986 0 0)
(1.0274987 0 0)
(0.99564251 0 0)
(0.96231531 0 0)
(0.9273654 0 0)
(0.89067837 0 0)
(0.85220987 0 0)
(0.81182055 0 0)
(0.76925594 0 0)
(0.72432136 0 0)
(0.6769126 0 0)
(0.62678924 0 0)
(0.57360701 0 0)
(0.51710524 0 0)
(0.45701963 0 0)
(0.3930195 0 0)
(0.32471807 0 0)
(0.2517447 0 0)
(0.17365173 0 0)
(0.089836814 0 0)
(0 0 0)
(1.5615118 0 0)
(1.5541905 0 0)
(1.5462124 0 0)
(1.5375625 0 0)
(1.5282433 0 0)
(1.5182539 0 0)
(1.5075816 0 0)
(1.4962213 0 0)
(1.4841754 0 0)
(1.4714405 0 0)
(1.4580212 0 0)
(1.4439287 0 0)
(1.4291577 0 0)
(1.4136999 0 0)
(1.3975557 0 0)
(1.3807197 0 0)
(1.3631848 0 0)
(1.3449503 0 0)
(1.3260051 0 0)
(1.3063269 0 0)
(1.2858918 0 0)
(1.2646618 0 0)
(1.2426029 0 0)
(1.21969 0 0)
(1.195877 0 0)
(1.1711029 0 0)
(1.1453132 0 0)
(1.1184485 0 0)
(1.0904321 0 0)
(1.0611939 0 0)
(1.0306675 0 0)
(0.99877744 0 0)
(0.96540991 0 0)
(0.93041008 0 0)
(0.89366212 0 0)
(0.85512423 0 0)
(0.81465853 0 0)
(0.77200548 0 0)
(0.72696885 0 0)
(0.67944161 0 0)
(0.62918103 0 0)
(0.57584004 0 0)
(0.51916061 0 0)
(0.4588811 0 0)
(0.39466299 0 0)
(0.32610778 0 0)
(0.25284509 0 0)
(0.17443139 0 0)
(0.090256372 0 0)
(0 0 0)
(1.5603007 0 0)
(1.550764 0 0)
(1.5406891 0 0)
(1.5300697 0 0)
(1.5189062 0 0)
(1.5071984 0 0)
(1.4949461 0 0)
(1.4821496 0 0)
(1.4688086 0 0)
(1.4549199 0 0)
(1.4404775 0 0)
(1.4254753 0 0)
(1.4099081 0 0)
(1.3937683 0 0)
(1.3770464 0 0)
(1.3597325 0 0)
(1.3418169 0 0)
(1.3232841 0 0)
(1.3041079 0 0)
(1.2842641 0 0)
(1.2637234 0 0)
(1.2424495 0 0)
(1.2204039 0 0)
(1.1975466 0 0)
(1.1738259 0 0)
(1.1491835 0 0)
(1.1235624 0 0)
(1.0969026 0 0)
(1.0691358 0 0)
(1.0401879 0 0)
(1.009996 0 0)
(0.97847829 0 0)
(0.94552007 0 0)
(0.91098227 0 0)
(0.87475406 0 0)
(0.83676964 0 0)
(0.7968883 0 0)
(0.75488346 0 0)
(0.71057545 0 0)
(0.66386454 0 0)
(0.61452652 0 0)
(0.56222655 0 0)
(0.50669114 0 0)
(0.44764765 0 0)
(0.38479836 0 0)
(0.3178147 0 0)
(0.24632188 0 0)
(0.16985164 0 0)
(0.087841812 0 0)
(0 0 0)
(1.5603319 0 0)
(1.5508186 0 0)
(1.540765 0 0)
(1.5301646 0 0)
(1.5190176 0 0)
(1.5073238 0 0)
(1.4950831 0 0)
(1.4822956 0 0)
(1.4689608 0 0)
(1.4550752 0 0)
(1.4406336 0 0)
(1.4256307 0 0)
(1.4100613 0 0)
(1.3939181 0 0)
(1.3771918 0 0)
(1.3598731 0 0)
(1.3419521 0 0)
(1.3234126 0 0)
(1.30423 0 0)
(1.2843808 0 0)
(1.263835 0 0)
(1.2425553 0 0)
(1.2205036 0 0)
(1.1976404 0 0)
(1.1739143 0 0)
(1.1492663 0 0)
(1.1236394 0 0)
(1.0969742 0 0)
(1.0692014 0 0)
(1.0402488 0 0)
(1.0100532 0 0)
(0.97853181 0 0)
(0.94557008 0 0)
(0.91102925 0 0)
(0.87479807 0 0)
(0.83681137 0 0)
(0.79692942 0 0)
(0.75492474 0 0)
(0.71061589 0 0)
(0.66390376 0 0)
(0.61456544 0 0)
(0.56226518 0 0)
(0.50672881 0 0)
(0.44768328 0 0)
(0.38483184 0 0)
(0.31784449 0 0)
(0.24634612 0 0)
(0.16986881 0 0)
(0.087850677 0 0)
(0 0 0)
(1.5603515 0 0)
(1.5509077 0 0)
(1.540919 0 0)
(1.5303787 0 0)
(1.5192867 0 0)
(1.5076426 0 0)
(1.4954466 0 0)
(1.4826986 0 0)
(1.4693977 0 0)
(1.4555406 0 0)
(1.4411231 0 0)
(1.4261404 0 0)
(1.4105876 0 0)
(1.3944575 0 0)
(1.3777416 0 0)
(1.3604312 0 0)
(1.3425159 0 0)
(1.3239794 0 0)
(1.3047986 0 0)
(1.2849502 0 0)
(1.2644041 0 0)
(1.2431227 0 0)
(1.2210679 0 0)
(1.1982002 0 0)
(1.1744693 0 0)
(1.1498158 0 0)
(1.1241822 0 0)
(1.097509 0 0)
(1.069727 0 0)
(1.0407659 0 0)
(1.0105608 0 0)
(0.97902905 0 0)
(0.94605658 0 0)
(0.91150417 0 0)
(0.87525971 0 0)
(0.83725936 0 0)
(0.79736472 0 0)
(0.75534664 0 0)
(0.71102122 0 0)
(0.66428977 0 0)
(0.61493064 0 0)
(0.56260684 0 0)
(0.50704384 0 0)
(0.4479686 0 0)
(0.38508433 0 0)
(0.3180582 0 0)
(0.24651485 0 0)
(0.16998736 0 0)
(0.087912962 0 0)
(0 0 0)
(1.5604516 0 0)
(1.5511243 0 0)
(1.5412448 0 0)
(1.5308059 0 0)
(1.5198072 0 0)
(1.5082484 0 0)
(1.4961295 0 0)
(1.4834504 0 0)
(1.47021 0 0)
(1.4564056 0 0)
(1.442034 0 0)
(1.4270913 0 0)
(1.4115722 0 0)
(1.3954703 0 0)
(1.3787779 0 0)
(1.3614869 0 0)
(1.3435866 0 0)
(1.3250606 0 0)
(1.3058875 0 0)
(1.2860443 0 0)
(1.2655005 0 0)
(1.2442188 0 0)
(1.2221612 0 0)
(1.1992887 0 0)
(1.1755512 0 0)
(1.1508894 0 0)
(1.1252456 0 0)
(1.0985602 0 0)
(1.0707634 0 0)
(1.0417869 0 0)
(1.0115647 0 0)
(0.98001379 0 0)
(0.94702052 0 0)
(0.91244523 0 0)
(0.87617507 0 0)
(0.83814764 0 0)
(0.79822557 0 0)
(0.7561777 0 0)
(0.71181793 0 0)
(0.66504719 0 0)
(0.61564399 0 0)
(0.56327077 0 0)
(0.50765319 0 0)
(0.44851829 0 0)
(0.38556805 0 0)
(0.31846551 0 0)
(0.24683543 0 0)
(0.17021238 0 0)
(0.088031152 0 0)
(0 0 0)
(1.5606285 0 0)
(1.5514642 0 0)
(1.5417375 0 0)
(1.5314413 0 0)
(1.5205743 0 0)
(1.509136 0 0)
(1.4971262 0 0)
(1.4845452 0 0)
(1.4713918 0 0)
(1.4576646 0 0)
(1.4433611 0 0)
(1.4284782 0 0)
(1.4130106 0 0)
(1.3969521 0 0)
(1.3802962 0 0)
(1.3630355 0 0)
(1.3451592 0 0)
(1.3266515 0 0)
(1.307492 0 0)
(1.2876577 0 0)
(1.2671188 0 0)
(1.2458383 0 0)
(1.2237783 0 0)
(1.2008998 0 0)
(1.1771539 0 0)
(1.1524812 0 0)
(1.1268235 0 0)
(1.1001212 0 0)
(1.0723043 0 0)
(1.0433056 0 0)
(1.0130582 0 0)
(0.9814793 0 0)
(0.94845551 0 0)
(0.91384608 0 0)
(0.87753757 0 0)
(0.83946965 0 0)
(0.79950568 0 0)
(0.75741178 0 0)
(0.71299955 0 0)
(0.66616959 0 0)
(0.61669996 0 0)
(0.56425193 0 0)
(0.50855207 0 0)
(0.44932796 0 0)
(0.38627922 0 0)
(0.31906336 0 0)
(0.2473054 0 0)
(0.17054192 0 0)
(0.088204269 0 0)
(0 0 0)
(1.5608782 0 0)
(1.5519226 0 0)
(1.5423921 0 0)
(1.5322793 0 0)
(1.5215818 0 0)
(1.5102991 0 0)
(1.4984309 0 0)
(1.4859774 0 0)
(1.4729379 0 0)
(1.4593122 0 0)
(1.4450997 0 0)
(1.4302972 0 0)
(1.414899 0 0)
(1.3988993 0 0)
(1.3822927 0 0)
(1.3650727 0 0)
(1.347229 0 0)
(1.3287468 0 0)
(1.3096066 0 0)
(1.2897851 0 0)
(1.2692532 0 0)
(1.2479748 0 0)
(1.2259121 0 0)
(1.2030267 0 0)
(1.1792701 0 0)
(1.1545833 0 0)
(1.1289079 0 0)
(1.102184 0 0)
(1.0743412 0 0)
(1.0453134 0 0)
(1.0150328 0 0)
(0.98341705 0 0)
(0.95035261 0 0)
(0.91569773 0 0)
(0.87933859 0 0)
(0.84121695 0 0)
(0.80119637 0 0)
(0.75904015 0 0)
(0.71455793 0 0)
(0.66764947 0 0)
(0.61809092 0 0)
(0.56554309 0 0)
(0.50973394 0 0)
(0.45039185 0 0)
(0.38721266 0 0)
(0.3198473 0 0)
(0.24792129 0 0)
(0.17097372 0 0)
(0.088431079 0 0)
(0 0 0)
(1.5611974 0 0)
(1.552495 0 0)
(1.5432033 0 0)
(1.5333135 0 0)
(1.5228231 0 0)
(1.5117311 0 0)
(1.5000374 0 0)
(1.4877416 0 0)
(1.4748433 0 0)
(1.4613435 0 0)
(1.4472444 0 0)
(1.4325433 0 0)
(1.4172332 0 0)
(1.4013075 0 0)
(1.3847624 0 0)
(1.3675933 0 0)
(1.3497907 0 0)
(1.3313409 0 0)
(1.3122249 0 0)
(1.2924194 0 0)
(1.2718965 0 0)
(1.2506206 0 0)
(1.2285543 0 0)
(1.2056602 0 0)
(1.1818906 0 0)
(1.1571861 0 0)
(1.1314886 0 0)
(1.1047382 0 0)
(1.0768639 0 0)
(1.0477994 0 0)
(1.0174773 0 0)
(0.9858158 0 0)
(0.95270087 0 0)
(0.91798917 0 0)
(0.88156679 0 0)
(0.84337825 0 0)
(0.80328683 0 0)
(0.76105216 0 0)
(0.71648231 0 0)
(0.66947623 0 0)
(0.61980738 0 0)
(0.56713545 0 0)
(0.51119056 0 0)
(0.45170232 0 0)
(0.38836172 0 0)
(0.32081177 0 0)
(0.24867871 0 0)
(0.17150455 0 0)
(0.088709888 0 0)
(0 0 0)
(1.5615864 0 0)
(1.5531805 0 0)
(1.5441689 0 0)
(1.534541 0 0)
(1.524294 0 0)
(1.5134272 0 0)
(1.5019412 0 0)
(1.4898344 0 0)
(1.4771038 0 0)
(1.463754 0 0)
(1.449792 0 0)
(1.4352144 0 0)
(1.4200106 0 0)
(1.4041722 0 0)
(1.3876998 0 0)
(1.3705915 0 0)
(1.3528375 0 0)
(1.3344262 0 0)
(1.3153393 0 0)
(1.2955527 0 0)
(1.2750397 0 0)
(1.2537662 0 0)
(1.2316948 0 0)
(1.2087898 0 0)
(1.1850039 0 0)
(1.1602776 0 0)
(1.1345535 0 0)
(1.1077714 0 0)
(1.0798593 0 0)
(1.0507508 0 0)
(1.0203787 0 0)
(0.98866214 0 0)
(0.95548664 0 0)
(0.9207069 0 0)
(0.88420897 0 0)
(0.84594036 0 0)