/*--------------------------------*- C++ -*----------------------------------*\
| =========                 |                                                 |
| \\      /  F ield         | OpenFOAM: The Open Source CFD Toolbox           |
|  \\    /   O peration     | Version:  v2012                                 |
|   \\  /    A nd           | Website:  www.openfoam.com                      |
|    \\/     M anipulation  |                                                 |
\*---------------------------------------------------------------------------*/
FoamFile
{
    version     2.0;
    format      ascii;
    class       volVectorField;
    location    "44.0127461100179858";
    object      U;
}
// * * * * * * * * * * * * * * * * * * * * * * * * * * * * * * * * * * * * * //

dimensions      [0 1 -1 0 0 0 0];


internalField   nonuniform List<vector> 
9200
(
(2.6315065 -0.00067744099 -5.2402218e-25)
(2.6325078 -0.0028893085 3.286988e-21)
(2.6337358 -0.00044342401 3.5662198e-21)
(2.6341254 -0.0044925958 1.1709167e-20)
(2.6349667 -0.0020395692 3.256921e-21)
(2.6342344 -0.00027991373 -4.0022495e-21)
(2.6363435 -0.0066917056 3.6451732e-21)
(2.6368581 -0.0031316146 -1.4185612e-21)
(2.6355391 -0.0013345652 -5.9958484e-21)
(2.6347567 -5.8834506e-05 -1.1208076e-20)
(2.6389526 -0.0088051315 0)
(2.6396105 -0.0048625638 1.1010362e-20)
(2.6375741 -0.0019814308 -2.5876131e-21)
(2.6361119 -0.00052844806 4.7122589e-22)
(2.6347471 0.00018847608 -2.1346336e-21)
(2.6418446 -0.011429253 -5.4228626e-21)
(2.6429224 -0.0065508929 7.265363e-21)
(2.6405626 -0.0032007478 -3.9421634e-21)
(2.6382754 -0.0006412394 1.1444669e-20)
(2.6360943 0.00026820045 5.9123909e-21)
(2.6344008 0.00041018219 -6.8297368e-22)
(2.6448318 -0.0143195 3.6331284e-21)
(2.6467964 -0.008850012 -5.3425883e-21)
(2.6442389 -0.0043411136 -1.2604772e-21)
(2.6414737 -0.0012408203 -2.7912929e-21)
(2.6382983 0.0007068808 -1.8938285e-21)
(2.6357077 0.00099640962 4.8438342e-21)
(2.6337449 0.00058131129 1.6307407e-20)
(2.6477803 -0.017747862 1.9393121e-21)
(2.6510418 -0.011538888 8.0044937e-21)
(2.6486418 -0.0060404715 3.6545375e-21)
(2.6454781 -0.0016876887 -1.3725892e-20)
(2.64157 0.00076824592 -7.6219262e-21)
(2.6378617 0.001956864 -1.3470046e-20)
(2.634974 0.001601195 -3.5720613e-22)
(2.6328852 0.00070147327 2.9381555e-21)
(2.6505127 -0.02167717 -2.0442722e-21)
(2.6555968 -0.014957847 -2.5856483e-21)
(2.6536344 -0.0080744838 -6.2260214e-21)
(2.6503703 -0.0025899364 5.4009028e-21)
(2.6457031 0.0010970258 -1.1391916e-22)
(2.6410746 0.0026508148 -1.9213563e-20)
(2.636998 0.0029977512 -1.4369255e-20)
(2.6339975 0.0020413823 -4.9208661e-21)
(2.631908 0.0007782955 -6.2761542e-21)
(2.6528642 -0.026225374 7.6158286e-21)
(2.6603078 -0.019137016 -1.6394879e-21)
(2.6592108 -0.010797617 -2.5161721e-21)
(2.6560673 -0.0036998045 -5.1296903e-21)
(2.650827 0.0011393817 2.4610355e-21)
(2.6451355 0.0037457005 1.870018e-21)
(2.6400183 0.0042360285 5.0282633e-21)
(2.6358377 0.0037545329 7.1844833e-21)
(2.632881 0.0022937106 1.6062909e-23)
(2.6308989 0.00080904997 -6.3851206e-21)
(2.6546504 -0.031416759 -2.1134559e-21)
(2.6650566 -0.02427442 3.2215379e-21)
(2.665284 -0.014256204 8.7103913e-21)
(2.6626325 -0.0053656984 3.3898738e-21)
(2.6568925 0.0011899795 4.0366026e-21)
(2.6502119 0.004757741 1.3001577e-23)
(2.6438137 0.0060006385 3.6205005e-21)
(2.6385603 0.0053981523 1.2004428e-20)
(2.6345059 0.0041880461 1.9886477e-20)
(2.6317315 0.0023559571 -5.6514168e-21)
(2.6299332 0.00078732784 4.0634157e-21)
(2.6557231 -0.037289809 1.7546209e-21)
(2.6696744 -0.030495606 -5.511484e-22)
(2.6718038 -0.018685629 -3.3364032e-21)
(2.6700594 -0.0076256165 -9.9203363e-22)
(2.6640334 0.00094499409 -2.726749e-21)
(2.656259 0.0060383201 -3.1951903e-22)
(2.6485554 0.0078843005 -4.4519667e-21)
(2.6419375 0.0076647683 -3.6202093e-21)
(2.6368655 0.0060680632 2.0140912e-21)
(2.6331302 0.0042932998 -3.668779e-21)
(2.6306381 0.0022432822 6.4325551e-21)
(2.6290723 0.00071592968 1.3742869e-20)
(2.6558831 -0.043854995 1.1218794e-22)
(2.6740245 -0.037937525 6.9782249e-21)
(2.6786771 -0.024254394 3.0560278e-21)
(2.6783899 -0.010730314 -1.0397972e-20)
(2.6723167 0.00041750802 -5.6845121e-21)
(2.6634572 0.0073648311 6.1357608e-22)
(2.6541812 0.010294354 7.4938248e-21)
(2.6461126 0.010214077 9.3267631e-22)
(2.6397315 0.0086266335 -1.2469904e-20)
(2.6351054 0.0062348355 2.2279159e-21)
(2.6318206 0.0040948515 -4.9054132e-21)
(2.6296691 0.001983024 5.1548098e-21)
(2.6283647 0.00060725846 -5.9804637e-21)
(2.6549705 -0.051105763 -1.9779861e-22)
(2.6779061 -0.046712649 6.7882186e-23)
(2.6858166 -0.031163221 -4.5681651e-21)
(2.6876395 -0.014873032 -1.1455996e-21)
(2.6818901 -0.00059967127 -1.0281717e-21)
(2.6719106 0.0088381744 4.4160476e-21)
(2.6608711 0.01310333 2.6850946e-21)
(2.6509864 0.013494599 2.4963407e-21)
(2.6431964 0.011569627 1.0684313e-20)
(2.6374313 0.0088653957 5.4867037e-21)
(2.6334292 0.0059363722 -1.5175187e-22)
(2.6306644 0.0036405163 1.8520686e-20)
(2.6288714 0.0016099398 -5.9474383e-21)
(2.6278362 0.00047866035 1.877309e-20)
(2.6528258 -0.059019157 -1.4810916e-21)
(2.6811421 -0.056913435 3.0705762e-21)
(2.6930827 -0.039596961 2.6180471e-21)
(2.6978225 -0.020312263 -5.229451e-22)
(2.6928953 -0.0022581092 1.5774779e-21)
(2.6818417 0.010357088 8.3364789e-21)
(2.6687171 0.016514665 3.4496369e-22)
(2.6566917 0.017461586 -3.3806911e-21)
(2.6471159 0.015361635 -4.9033792e-21)
(2.6401415 0.011913428 -7.8749332e-21)
(2.635242 0.0084366514 1.2950538e-20)
(2.6319534 0.0052458326 6.3082296e-22)
(2.6297224 0.0029929946 -8.7749244e-22)
(2.6282714 0.0011599527 7.2825677e-21)
(2.6274732 0.00035651665 -1.501073e-21)
(2.6492995 -0.067565551 3.7447733e-21)
(2.6835521 -0.06859646 -2.2047203e-21)
(2.7003228 -0.049731113 -2.3483169e-21)
(2.708919 -0.027316184 -1.7995032e-21)
(2.7055007 -0.0047982932 8.2816034e-21)
(2.6934772 0.011887242 -5.4619937e-21)
(2.6779407 0.02056342 -9.3752229e-22)
(2.6632583 0.02239903 -5.0138299e-21)
(2.6515461 0.020006187 -6.5780512e-22)
(2.6430494 0.015832734 -3.1167142e-21)
(2.6372384 0.011326959 -4.288614e-21)
(2.6333209 0.0074492882 2.5111935e-21)
(2.6307574 0.0042577288 -2.7359765e-22)
(2.6290275 0.002221318 -1.2710433e-20)
(2.6278769 0.00067327957 -4.2319226e-22)
(2.6272937 0.00027845565 -2.1887716e-20)
(2.6442615 -0.076700111 -1.0627975e-20)
(2.6849605 -0.081783253 3.2792072e-21)
(2.7073478 -0.06171211 3.6902917e-21)
(2.7208817 -0.036178051 -3.8433973e-21)
(2.7198763 -0.0084867921 -2.5089193e-21)
(2.7071139 0.01332162 -2.6614429e-21)
(2.6887713 0.025377523 -7.4293733e-21)
(2.6708272 0.028462346 -7.0040644e-21)
(2.6564256 0.025821541 4.0865398e-22)
(2.6461321 0.020635331 2.6092686e-21)
(2.6392007 0.015030476 3.6773778e-21)
(2.6347023 0.0099712678 2.0289682e-21)
(2.6317707 0.0060417837 -2.9775509e-21)
(2.6298852 0.0030766048 -3.1473741e-21)
(2.6285886 0.0013955611 7.7082548e-21)
(2.627687 0.00020772936 -1.1676554e-20)
(2.6272568 0.00019685889 1.0560032e-23)
(2.6376052 -0.086381268 1.5131087e-21)
(2.6852127 -0.0964511 -4.4968803e-21)
(2.7139444 -0.075642249 1.3474732e-21)
(2.7336045 -0.04719847 5.5617104e-21)
(2.7361925 -0.013659121 -7.1121963e-22)
(2.7230859 0.014538433 1.0563788e-20)
(2.7015227 0.031057111 8.0314617e-21)
(2.6795322 0.035921369 1.0961805e-20)
(2.6617681 0.033021009 1.0784348e-21)
(2.6492406 0.026619855 -8.5049356e-22)
(2.6410467 0.019537471 -4.5668187e-22)
(2.6358647 0.013196103 -4.8556211e-21)
(2.6326663 0.0080461207 3.1218653e-22)
(2.630645 0.0043628229 0)
(2.6293495 0.001808786 0)
(2.6283962 0.00058399167 -5.2032994e-22)
(2.6276895 -0.00018710358 1.8339748e-20)
(2.6273036 0.0001181732 -5.1273832e-21)
(2.6292848 -0.096555164 -5.0940131e-21)
(2.6841792 -0.11253716 -1.0200366e-21)
(2.7198733 -0.091578923 3.2933087e-22)
(2.7469383 -0.060667489 3.4668502e-21)
(2.7545925 -0.020692318 -3.0746445e-21)
(2.7417716 0.015352542 3.079106e-21)
(2.716563 0.037717821 1.9163476e-22)
(2.6895675 0.045064332 2.3849367e-21)
(2.6675456 0.04193546 5.8834759e-21)
(2.6522633 0.033980426 4.2872022e-22)
(2.6425697 0.02508769 6.0237511e-22)
(2.6366948 0.017078597 5.4153308e-21)
(2.6332085 0.010619159 2.890059e-22)
(2.6311915 0.0057582022 1.2546357e-20)
(2.629958 0.0025576016 -1.0013193e-22)
(2.6291406 0.00055491417 -7.916384e-21)
(2.6284252 -0.00015119209 -7.650182e-21)
(2.6278434 -0.00050029642 -2.1675066e-21)
(2.6274344 7.5745828e-05 1.0832805e-20)
(2.619019 -0.10713783 1.1229928e-21)
(2.6817666 -0.12992703 -2.5159804e-22)
(2.7248717 -0.10951634 -2.894483e-21)
(2.7606461 -0.076856591 -8.3767786e-22)
(2.7752067 -0.030030857 -4.0615386e-22)
(2.7635862 0.015560641 3.3022845e-21)
(2.7343265 0.045467129 1.6020309e-21)
(2.7011629 0.056234843 -1.2657914e-20)
(2.6737429 0.052937474 -1.3636846e-21)
(2.6550159 0.04300419 -1.2669595e-21)
(2.6435789 0.03180001 -6.78358e-22)
(2.6369684 0.021786817 6.2070195e-21)
(2.6332788 0.013682255 1.9626085e-22)
(2.6312931 0.0075848852 3.9103235e-21)
(2.6302863 0.0033006503 4.9684905e-21)
(2.629694 0.00075880844 -1.4649145e-22)
(2.6292327 -0.00059703305 5.3574363e-22)
(2.6286467 -0.00075685818 -4.4143955e-21)
(2.6281001 -0.00072774073 -1.2557094e-20)
(2.6276152 5.5853789e-05 -1.301477e-21)
(2.6055426 -0.11822441 -1.7441021e-22)
(2.6779315 -0.14849971 5.8743947e-21)
(2.7286549 -0.12938561 -2.8836972e-22)
(2.774394 -0.095984809 7.5839955e-23)
(2.7980837 -0.042191871 1.2800801e-20)
(2.7889581 0.01487605 -8.3981012e-23)
(2.7553168 0.054417964 -3.769163e-21)
(2.7145978 0.069830652 2.3304363e-21)
(2.6803271 0.066475495 6.3073127e-21)
(2.6572762 0.054005531 1.0178687e-21)
(2.6437984 0.039842278 6.3659467e-21)
(2.6364778 0.027347151 -2.0406335e-21)
(2.6326706 0.017342979 -7.8416176e-21)
(2.630842 0.0097434714 -8.7723897e-21)
(2.6301082 0.0043442041 -1.1088883e-20)
(2.6299259 0.00084189277 -6.7401875e-21)
(2.6298176 -0.00091942642 1.892925e-20)
(2.6295828 -0.0015750748 -1.3882123e-20)
(2.6290207 -0.001195607 6.7905935e-22)
(2.6284191 -0.00085302627 1.098861e-20)
(2.6278093 5.1386436e-05 -1.0283412e-20)
(2.5885147 -0.12993769 2.6392118e-21)
(2.6727024 -0.16820528 2.7296504e-21)
(2.7310918 -0.15103239 4.5940534e-21)
(2.7878005 -0.11820471 4.9069892e-23)
(2.8232062 -0.057713446 3.6357839e-21)
(2.8183328 0.012915115 -7.4461846e-21)
(2.7800502 0.064658216 3.0246077e-21)
(2.7301982 0.086296272 2.3033206e-21)
(2.6872582 0.083088343 4.2017082e-21)
(2.6587502 0.067351707 -2.4992458e-21)
(2.6428908 0.049367817 2.3253945e-21)
(2.6349407 0.03378983 3.2202604e-21)
(2.631211 0.021552654 -3.005865e-21)
(2.6296694 0.012306622 -3.5811291e-21)
(2.6293307 0.0055849242 3.5092107e-21)
(2.6296049 0.0011020915 -2.9727318e-21)
(2.6300675 -0.0014782275 -5.2494787e-21)
(2.6302855 -0.0023849026 -1.0483409e-20)
(2.6301424 -0.0023269471 1.6250572e-21)
(2.6294949 -0.001451448 4.8406694e-21)
(2.6287586 -0.00085713065 -1.1999347e-20)
(2.6279778 7.5040252e-05 -8.5324398e-22)
(2.5708326 -0.14234324 3.5676813e-21)
(2.6662658 -0.18936589 2.4311372e-21)
(2.7324244 -0.17437063 -1.8937253e-22)
(2.800709 -0.14363069 -6.9242063e-21)
(2.850637 -0.077265691 -2.1427415e-20)
(2.8523209 0.0092791258 1.0652016e-20)
(2.8091934 0.076273189 1.330648e-21)
(2.748298 0.10613409 -1.5930843e-21)
(2.6944733 0.10339985 -7.5341812e-21)
(2.659069 0.083478152 -3.2562818e-21)
(2.640425 0.060524554 -6.0119526e-22)
(2.6320246 0.041086221 -2.8594277e-21)
(2.6286817 0.026233663 -2.3402755e-21)
(2.6276668 0.015187959 2.8852504e-21)
(2.6278256 0.0070902842 3.8706619e-21)
(2.628651 0.0014466523 -7.5359216e-22)
(2.6297208 -0.0019822391 -5.2617073e-22)
(2.6306569 -0.0035486127 1.3734961e-21)
(2.6310478 -0.0035670238 -1.9734651e-20)
(2.6308622 -0.0028165838 2.1977853e-20)
(2.6300206 -0.0015169084 -1.5390098e-20)
(2.6290805 -0.00073104186 -1.9157403e-20)
(2.6280823 0.00015750118 3.0055645e-22)
(2.5656291 -0.15437742 4.6070059e-21)
(2.6564674 -0.21241818 -2.2537746e-21)
(2.7335084 -0.19940567 -1.1671734e-20)
(2.8127698 -0.17256973 6.3579053e-21)
(2.8802098 -0.10156875 1.1118664e-20)
(2.8915199 0.0032480482 -1.0446409e-20)
(2.8438926 0.089232052 2.6402188e-21)
(2.7694853 0.12987464 3.1915561e-21)
(2.7018677 0.12813247 -9.5063955e-21)
(2.6577663 0.10288162 -1.4185714e-21)
(2.6358662 0.073461168 2.815469e-21)
(2.6273199 0.049143402 -5.1566935e-21)
(2.6248469 0.031220291 -1.6190403e-21)
(2.6247172 0.018257313 -1.6471959e-21)
(2.6255535 0.0087786499 -1.6823291e-21)
(2.6269621 0.0019631099 1.9861988e-21)
(2.6287081 -0.0025033361 -3.4126531e-21)
(2.6303947 -0.0047885702 3.9234161e-21)
(2.6316367 -0.0052861846 -5.4784049e-21)
(2.6320481 -0.0044182375 -1.1110872e-21)
(2.6316881 -0.0030238215 9.7389774e-21)
(2.6305557 -0.0013799389 -6.3728438e-21)
(2.6293529 -0.00047835892 7.1320022e-21)
(2.6281095 0.0002690694 6.9181278e-21)
(2.5745379 -0.16353254 -2.1344928e-20)
(2.6452386 -0.23594837 -4.6801675e-21)
(2.7337734 -0.22532886 -3.740128e-21)
(2.8243359 -0.20334192 -8.2496645e-21)
(2.9096424 -0.13019766 -4.3368731e-20)
(2.9343437 -0.0053629719 -1.3430485e-20)
(2.8843381 0.10327948 2.362143e-20)
(2.7950456 0.15794156 -3.9244552e-21)
(2.7095648 0.15808462 -5.6310399e-22)
(2.6542598 0.12613481 4.8778755e-22)
(2.6285596 0.088309981 -7.4238294e-22)
(2.6203363 0.057806373 2.8090122e-21)
(2.6194349 0.036245154 2.7971233e-21)
(2.620729 0.021286846 -1.0743543e-22)
(2.6225024 0.010528313 1.6991737e-22)
(2.6245522 0.0026106205 1.6968083e-21)
(2.6269266 -0.0029206638 1.1727957e-21)
(2.6294245 -0.0061497514 6.515044e-22)
(2.6315695 -0.0072265219 8.0852899e-21)
(2.6329503 -0.0066316158 -1.0118665e-20)
(2.6332287 -0.0049100591 1.3143954e-21)
(2.6325687 -0.0029424263 -1.041208e-21)
(2.6310629 -0.0010378031 3.0985668e-20)
(2.6295471 -0.00010724153 -2.228176e-21)
(2.628042 0.00041064881 2.4305088e-22)
(2.6012692 -0.16749104 -2.314395e-20)
(2.6366716 -0.25805012 -1.6239223e-20)
(2.731879 -0.25111947 -2.7660665e-21)
(2.8285057 -0.23386241 -1.0966649e-20)
(2.9335912 -0.16075234 6.2393913e-21)
(2.9746934 -0.014452137 7.8965606e-21)
(2.9247687 0.11950793 -1.9471137e-20)
(2.8237489 0.19086369 1.4764025e-20)
(2.7183153 0.19412231 -5.0249549e-21)
(2.6480086 0.15386425 3.5331438e-21)
(2.6177165 0.10518821 -2.63503e-22)
(2.6104987 0.066834055 1.1084794e-21)
(2.612139 0.040945881 1.490022e-21)
(2.6156212 0.023932765 2.9471573e-21)
(2.6187287 0.012128632 -5.5401915e-22)
(2.6214897 0.0033277799 3.1522437e-21)
(2.6244156 -0.0032106532 5.3884271e-21)
(2.6276203 -0.0074790829 -9.1918595e-21)
(2.6307452 -0.0094100739 1.214022e-21)
(2.633191 -0.0092283787 -2.133355e-22)
(2.6345389 -0.0075453973 5.1440721e-21)
(2.6345325 -0.005029514 1.8497272e-20)
(2.6334599 -0.0025783181 -3.2267204e-20)
(2.6315083 -0.00051244044 1.9013285e-20)
(2.6296372 0.00036931075 9.9808515e-22)
(2.6278544 0.00058612323 0)
(2.6372743 -0.16680386 -1.7064575e-20)
(2.6314441 -0.27739964 3.6697453e-20)
(2.727747 -0.27575039 1.4661429e-20)
(2.8266257 -0.26246454 1.638112e-20)
(2.9405764 -0.19028244 9.7391437e-20)
(2.99178 -0.022874086 -5.1833597e-20)
(2.9569387 0.14086402 -2.9327216e-20)
(2.8448969 0.23021071 -9.9639547e-21)
(2.7257077 0.23748775 -3.9163803e-21)
(2.6387818 0.18687958 -3.0428116e-21)
(2.6024443 0.12416891 -8.7289404e-21)
(2.5971507 0.075897196 1.9428873e-21)
(2.6026239 0.044845924 -4.1594235e-21)
(2.609327 0.02575111 -3.3049362e-22)
(2.6143434 0.013259453 -7.5440963e-22)
(2.617947 0.0039887243 1.0996222e-22)
(2.621281 -0.0033428829 1.2620988e-22)
(2.62501 -0.0086805739 3.5950561e-21)
(2.628998 -0.011661599 1.3038699e-21)
(2.6326306 -0.012218161 -1.2527621e-20)
(2.6352045 -0.010743655 3.694038e-21)
(2.6363417 -0.0080048535 1.6918985e-20)
(2.635904 -0.0047774693 -8.0685771e-22)
(2.6343192 -0.0019461142 1.39599e-20)
(2.6318655 0.0001718794 -8.1717838e-21)
(2.6296089 0.00093041395 6.5548761e-21)
(2.6275227 0.00079782764 1.9585332e-23)
(2.6797366 -0.16199623 -1.4319935e-20)
(2.6348643 -0.29185379 1.3131879e-20)
(2.7214688 -0.29808664 1.9148346e-20)
(2.8196081 -0.28855434 -1.5811238e-21)
(2.9370386 -0.21753282 2.1419218e-20)
(2.9954873 -0.031922801 7.6584539e-20)
(2.9843722 0.16797351 7.2417453e-20)
(2.8484032 0.27804797 -2.8921895e-20)
(2.7191656 0.28909325 1.512926e-20)
(2.624262 0.22634658 4.9162688e-21)
(2.5818866 0.14538545 -1.288751e-20)
(2.5795548 0.084557839 -9.5973833e-21)
(2.5905321 0.047358042 -3.8634086e-21)
(2.6018002 0.026176517 -5.7891205e-23)
(2.609519 0.013513159 2.6519822e-22)
(2.6141866 0.004383132 -2.542961e-21)
(2.6177539 -0.0033149862 -3.1439468e-21)
(2.621688 -0.0096250454 1.0131968e-22)
(2.6263098 -0.013822326 -3.0187483e-21)
(2.6310501 -0.01541979 7.3940489e-21)
(2.6350437 -0.014515038 1.3369739e-20)
(2.6375513 -0.011735393 -8.0295258e-21)
(2.6382958 -0.0080012715 5.8397937e-22)
(2.6372905 -0.0041661949 -1.5812307e-20)
(2.6351063 -0.0010658932 2.278018e-20)
(2.6321137 0.0010012199 2.0654658e-21)
(2.6294545 0.0015541491 5.6584823e-22)
(2.6270565 0.00098502642 1.1065206e-20)
(2.7291766 -0.15303171 1.9927971e-20)
(2.6434156 -0.30087967 -2.1393722e-20)
(2.7135926 -0.31667898 -2.4923108e-20)
(2.8060026 -0.31136653 -3.1943297e-20)
(2.9248394 -0.24117137 -3.3959052e-20)
(2.9904297 -0.037906765 7.121518e-20)
(2.9883299 0.19845319 -1.7134687e-20)
(2.8407394 0.33694654 1.4353866e-20)
(2.6879491 0.34844218 -1.2186527e-20)
(2.5949779 0.27209658 -1.3616475e-20)
(2.5546205 0.16909858 1.2664492e-20)
(2.5569412 0.092297837 4.2180077e-21)
(2.5754943 0.047799163 -4.8315744e-21)
(2.5930103 0.024541743 2.6550775e-21)
(2.6044878 0.012359325 1.6840204e-21)
(2.6105732 0.0042398862 -3.8277452e-21)
(2.6141771 -0.0031706117 -4.7300014e-22)
(2.6178781 -0.010169596 1.0094862e-21)
(2.6227198 -0.015678333 1.1300064e-21)
(2.6283619 -0.018633727 -4.1492847e-21)
(2.6337778 -0.018692438 -6.5078406e-21)
(2.6379403 -0.016245726 2.0137403e-20)
(2.6401659 -0.012178503 -1.2821366e-20)
(2.6403372 -0.0075377901 -5.7428491e-21)
(2.6386409 -0.0032152818 9.8595185e-22)
(2.6357897 3.7055669e-05 -3.1333888e-20)
(2.632232 0.001957077 1.1156636e-20)
(2.6291621 0.0022273141 9.9763029e-21)
(2.6264697 0.0011852353 -7.6944396e-22)
(2.7798064 -0.14136859 7.1174574e-20)
(2.6533786 -0.30435899 -1.3485227e-21)
(2.7052692 -0.33059842 -2.7933432e-20)
(2.7858835 -0.32978558 7.3190715e-21)
(2.898841 -0.25949599 -5.3354599e-20)
(2.9672932 -0.036507654 -6.1338901e-20)
(2.9509788 0.23127899 7.1999651e-20)
(2.8204217 0.40478281 -3.5891549e-20)
(2.6438658 0.41614401 1.4388302e-21)
(2.5422447 0.32109947 -3.807055e-21)
(2.5163669 0.19440725 8.7256424e-21)
(2.5285946 0.098540168 4.9517388e-21)
(2.557166 0.045395247 5.1367736e-21)
(2.5829413 0.020113938 -1.7268742e-21)
(2.5995387 0.0092034017 -5.0231718e-22)
(2.6075661 0.003186997 9.2208074e-22)
(2.6110201 -0.0029733166 5.3624329e-22)
(2.61392 -0.010174967 4.147678e-22)
(2.6183849 -0.016962868 5.9276288e-21)
(2.6245183 -0.02159006 -1.1650942e-21)
(2.6312381 -0.023063268 6.2425383e-21)
(2.6371711 -0.021403167 -1.0114729e-20)
(2.6412617 -0.017360209 -1.2449533e-20)
(2.6429755 -0.012059133 6.9352807e-21)
(2.6424017 -0.0066276875 1.6346158e-20)
(2.6399061 -0.0019498026 1.2256532e-20)
(2.6363424 0.0013340801 -3.899134e-21)
(2.632204 0.0030166856 -1.1618956e-20)
(2.6287252 0.0029440067 1.6399459e-23)
(2.6257507 0.0013973942 -2.3519603e-20)
(2.8347974 -0.12547311 -4.2462174e-20)
(2.6699844 -0.30289035 7.6720356e-21)
(2.6970162 -0.33942241 1.4978579e-20)
(2.7607292 -0.34335412 -1.9232632e-20)
(2.8615059 -0.27224479 -2.5592505e-20)
(2.9229448 -0.028182078 2.9676263e-23)
(2.8879834 0.26702433 9.4707096e-20)
(2.7743364 0.47148816 1.8360186e-20)
(2.6028255 0.4904409 -6.8672531e-21)
(2.4763606 0.3717727 8.5004357e-21)
(2.4614476 0.21771923 6.9930926e-21)
(2.4936195 0.10230202 -1.8322185e-20)
(2.5352547 0.039300861 1.1454143e-20)
(2.5716346 0.012093944 -3.6121198e-21)
(2.5949812 0.0033624503 1.5973652e-21)
(2.6057039 0.00082730313 4.5812182e-22)
(2.6088697 -0.0028435613 -2.1943126e-21)
(2.6102814 -0.0094779812 -7.365199e-22)
(2.6135657 -0.017376662 6.6814191e-22)
(2.619568 -0.023936196 1.4504562e-21)
(2.6272742 -0.027337538 -1.9406726e-21)
(2.6349942 -0.027010246 -1.5466893e-21)
(2.6411943 -0.023466371 -7.2115902e-22)
(2.6449323 -0.017816478 -1.3814332e-20)
(2.645901 -0.011374735 2.3971029e-20)
(2.644426 -0.0052922973 -6.8569187e-21)
(2.641045 -0.00040012421 -7.5195518e-22)
(2.6367373 0.0027976082 1.4577978e-20)
(2.63202 0.0041602279 -2.7722912e-20)
(2.628145 0.0036960288 6.2681209e-21)
(2.6249064 0.0016158605 1.4129342e-20)
(2.9012834 -0.10456578 4.7172845e-21)
(2.6925187 -0.29512764 1.9487593e-21)
(2.6875555 -0.34341519 1.5144967e-20)
(2.7317095 -0.35193523 1.1362674e-20)
(2.8144649 -0.2783683 3.3892104e-21)
(2.8636705 -0.016166643 6.5178552e-22)
(2.8239583 0.30490138 -1.3483684e-19)
(2.7145524 0.53168372 4.1440969e-20)
(2.5625152 0.56289673 -4.1871446e-20)
(2.4169531 0.42553505 4.043911e-22)
(2.3920755 0.23612192 -1.7199718e-21)
(2.4502531 0.10131657 4.3030168e-21)
(2.5097836 0.028669251 3.7640341e-21)
(2.5591152 -0.00029303814 6.1045005e-22)
(2.5911663 -0.0059367326 7.3266856e-22)
(2.6056215 -0.0033795882 -2.6216476e-21)
(2.6083723 -0.002934968 3.6308912e-22)
(2.6075484 -0.0079330602 3.4710672e-21)
(2.6086335 -0.016560864 -1.4042579e-21)
(2.6136392 -0.025262049 -2.3166375e-22)
(2.6218062 -0.031123803 -1.0709269e-21)
(2.6311545 -0.032792932 1.1487123e-21)
(2.6396425 -0.030339658 -9.2769108e-21)
(2.64578 -0.024796692 1.4896759e-20)
(2.6488607 -0.017583976 -5.7129128e-22)
(2.6488603 -0.010134264 7.4556159e-22)
(2.6463482 -0.0035590126 -1.7397755e-20)
(2.6420273 0.0014003031 -5.3027252e-21)
(2.6369568 0.0044018594 1.9244553e-20)
(2.6316752 0.0053689953 -5.198689e-21)
(2.6274247 0.0044723297 -1.4999203e-20)
(2.6239428 0.0018377642 1.148509e-20)
(2.9758673 -0.07845558 4.0899375e-20)
(2.7115173 -0.27991788 -1.3023391e-20)
(2.6784646 -0.34172754 1.9673511e-20)
(2.6984449 -0.35545858 7.0389854e-20)
(2.760567 -0.27947978 -6.4792758e-21)
(2.7936091 -0.00072410862 -9.7135914e-22)
(2.7497562 0.34193675 -2.6517703e-19)
(2.6485091 0.58667367 -1.4009746e-20)
(2.5158647 0.62769599 3.6136291e-20)
(2.3687156 0.48199872 5.5092869e-21)
(2.3207328 0.25156546 6.6199442e-22)
(2.3971677 0.092879034 -1.1423204e-21)
(2.4809848 0.012544187 -3.5817675e-22)
(2.5454892 -0.017818232 -2.2555716e-21)
(2.5884397 -0.019421126 -6.5933603e-21)
(2.6079558 -0.01002911 1.1133974e-21)
(2.6104713 -0.0034354112 -3.3503356e-21)
(2.6064651 -0.0053580092 1.9906334e-21)
(2.6040586 -0.014126459 -1.8355362e-21)
(2.6069438 -0.025075131 1.8695043e-21)
(2.614807 -0.033960984 2.2980518e-21)
(2.625443 -0.038366448 1.61393e-21)
(2.6362564 -0.03775346 -5.0651923e-22)
(2.6451407 -0.032902562 1.5562575e-21)
(2.6508292 -0.025318654 1.7333866e-21)
(2.6529431 -0.016646541 9.1476695e-21)
(2.6517713 -0.0083576072 -1.377874e-20)
(2.6481124 -0.0014620446 -7.5053986e-22)
(2.6428202 0.0034172337 -2.5334412e-20)
(2.6369908 0.0061188489 5.5314165e-21)
(2.6311693 0.006625087 -8.9363378e-22)
(2.6265698 0.0052628064 2.5897201e-21)
(2.6228677 0.0020595775 1.0601408e-20)
(3.0538111 -0.046959495 7.9168959e-21)
(2.7321071 -0.25729861 -4.8434349e-21)
(2.6711569 -0.3339594 -3.8218151e-20)
(2.662547 -0.35349272 -1.2781268e-21)
(2.7003379 -0.27320691 -8.6263493e-21)
(2.7165542 0.016313208 2.8934299e-20)
(2.6687762 0.37674171 3.5804378e-20)
(2.5767169 0.63592165 -1.1946139e-19)
(2.4635266 0.68453671 1.8145417e-19)
(2.3258323 0.53775171 -3.3054238e-20)
(2.2586307 0.26768328 2.6938901e-21)
(2.3371713 0.076472525 -1.0899904e-21)
(2.4488131 -0.010188396 9.6974556e-22)
(2.531001 -0.041088154 4.7136124e-21)
(2.5871035 -0.037814148 5.9653101e-21)
(2.6134084 -0.019664736 -2.0822231e-21)
(2.6159223 -0.0045854185 -1.2387795e-21)
(2.6077354 -0.0015630989 3.8030622e-21)
(2.6004188 -0.0095983812 2.781513e-21)
(2.5997634 -0.022821324 -4.8832959e-21)
(2.606305 -0.035296573 3.2117717e-21)
(2.6176787 -0.043273855 -1.4250702e-21)
(2.6307096 -0.045367802 -1.5071161e-21)
(2.6425868 -0.041979823 0)
(2.6513912 -0.034555632 9.5647443e-22)
(2.6562169 -0.024974435 -3.8909977e-21)
(2.6570689 -0.015004594 -5.0688868e-21)
(2.6545524 -0.0060744159 6.7377374e-21)
(2.6496753 0.00095723977 -6.4818635e-21)
(2.6433964 0.0056168959 2.2567622e-21)
(2.636832 0.0079222801 -1.3096508e-20)
(2.6305048 0.0079119727 4.2910636e-22)
(2.6255874 0.0060586048 5.6981353e-21)
(2.6216904 0.0022769768 -1.6794001e-21)
(3.1323456 -0.010963881 -5.7596623e-21)
(2.760795 -0.22636495 -2.3730723e-20)
(2.664838 -0.31970186 2.9100366e-20)
(2.6245842 -0.34702801 2.3857913e-21)
(2.6368098 -0.26669543 0)
(2.6353657 0.03802492 -4.0233878e-22)
(2.5853998 0.40999515 3.1624801e-20)
(2.5035788 0.67881564 -1.1307374e-20)
(2.4096498 0.73282113 1.1236565e-19)
(2.2861343 0.58905001 -3.5192571e-20)
(2.2093453 0.28509088 1.0112281e-20)
(2.277321 0.054801557 -3.7659432e-20)
(2.4128945 -0.040841961 -7.3741992e-21)
(2.5160789 -0.070350497 -6.3417745e-21)
(2.5873632 -0.061789158 9.4784445e-21)
(2.6226528 -0.032979865 9.8550666e-21)
(2.6256999 -0.0066119952 8.0526692e-21)
(2.6123624 0.0036000941 -7.7914858e-21)
(2.5983505 -0.0024948383 9.8676441e-22)
(2.592444 -0.017864939 2.7763902e-22)
(2.5963685 -0.034511689 3.1589647e-21)
(2.6077146 -0.046968814 -4.1227019e-21)
(2.622685 -0.052773241 6.0920106e-21)
(2.6376948 -0.051762173 -2.3644071e-21)
(2.6500628 -0.045231179 2.7068418e-21)
(2.6582494 -0.035176593 1.7290888e-21)
(2.6617998 -0.02372916 3.9672962e-21)
(2.661127 -0.0126759 -1.7314063e-20)
(2.6571266 -0.0033236801 7.6216715e-22)
(2.6509973 0.0036553862 5.6918477e-21)
(2.6437411 0.0079636928 1.8758586e-20)
(2.6364783 0.0097870836 -1.6318467e-20)
(2.6296871 0.0092145354 1.613559e-20)
(2.6244859 0.0068518839 -7.2401183e-21)
(2.6204207 0.0024904399 -1.4739582e-20)
(3.2100615 0.028708986 -1.7224398e-20)
(2.7974205 -0.18679252 2.4195631e-20)
(2.6593416 -0.29870856 8.6950539e-20)
(2.5858567 -0.33372843 3.8476845e-20)
(2.5693377 -0.25836828 -3.5326985e-20)
(2.5553482 0.053284904 6.2648051e-21)
(2.5041856 0.44036046 -1.708647e-20)
(2.4328146 0.71587122 1.3734547e-19)
(2.3572368 0.77263327 -1.6648795e-19)
(2.2502835 0.63416757 9.555459e-21)
(2.1720102 0.3025629 -2.1183176e-20)
(2.2244226 0.031311767 1.3617435e-20)
(2.3741363 -0.079057129 2.2219884e-20)
(2.500765 -0.10595892 1.027729e-20)
(2.5893663 -0.091839554 1.2541857e-20)
(2.636258 -0.050637143 8.4279735e-21)
(2.6407704 -0.0098519508 1.9593964e-21)
(2.6212891 0.01035774 -5.2733695e-21)
(2.5985588 0.0077144756 5.7663242e-21)
(2.5853418 -0.0095156935 9.3491736e-22)
(2.5850911 -0.030920126 -5.1023705e-21)
(2.595424 -0.048847754 5.0551237e-21)
(2.6118856 -0.059476877 -1.4859985e-21)
(2.6300353 -0.061918278 1.4485622e-22)
(2.6463471 -0.057173065 -2.0759826e-21)
(2.6585244 -0.047291621 8.09282e-21)
(2.665536 -0.034674643 -1.1638787e-20)
(2.6674252 -0.021573977 1.1985574e-20)
(2.6650092 -0.0096941302 5.9819268e-21)
(2.6594331 -0.00015495156 -7.1176382e-21)
(2.6520409 0.0065882607 1.4813295e-20)
(2.6438434 0.01042201 -8.0515116e-21)
(2.6359314 0.011689735 -8.0897392e-21)
(2.628724 0.010519204 -3.6788812e-20)
(2.6232748 0.0076357521 8.4536457e-21)
(2.6190684 0.0026998412 -3.1221313e-22)
(3.2829024 0.071281732 -2.2720268e-21)
(2.8390357 -0.13864715 -3.2948542e-20)
(2.6554607 -0.26978664 -1.8051887e-19)
(2.5467182 -0.31336723 2.3047875e-19)
(2.499766 -0.24233832 -1.3996768e-19)
(2.4712052 0.059506 2.5169488e-21)
(2.4253173 0.46132054 4.2294179e-20)
(2.3665397 0.74602011 -3.801019e-21)
(2.3083759 0.80463028 -1.0293365e-19)
(2.2191727 0.67185985 3.5563492e-20)
(2.144954 0.31934425 -7.3798168e-20)
(2.1817398 0.0082240412 -2.8408817e-20)
(2.3354352 -0.12272917 2.1193738e-21)
(2.48488 -0.14792591 -1.9215113e-20)
(2.5931183 -0.12820207 -5.2837659e-22)
(2.6547064 -0.07340364 -1.4658833e-20)
(2.6620893 -0.014598458 -2.9565172e-20)
(2.6354959 0.018899641 -8.3320133e-22)
(2.6018073 0.021654339 -1.5329265e-21)
(2.5788542 0.0029661491 -2.2771242e-21)
(2.5725558 -0.023789811 -2.8135932e-22)
(2.5806894 -0.048262406 2.1205838e-21)
(2.5980283 -0.064938851 -2.4703202e-21)
(2.6191911 -0.072037368 -1.6403919e-21)
(2.6397279 -0.070148622 1.8481855e-21)
(2.6564964 -0.06125513 6.9381103e-22)
(2.6677527 -0.047987579 1.9109381e-21)
(2.6730494 -0.032996257 -6.6877635e-22)
(2.6729403 -0.018527153 -1.01325e-20)
(2.6686108 -0.0061073491 1.8736715e-20)
(2.6614257 0.0033751192 0)
(2.6527832 0.0097119751 -7.666051e-22)
(2.643699 0.012958106 2.610192e-20)
(2.6351966 0.013608631 1.7139067e-20)
(2.6276248 0.011814008 -1.592901e-20)
(2.6219648 0.00840431 1.2108447e-23)
(2.617644 0.0029038154 9.9411015e-22)
(3.3465327 0.11521008 5.4362956e-21)
(2.8853816 -0.082070139 -3.0198599e-20)
(2.6538288 -0.23237112 1.3884277e-19)
(2.5080012 -0.28587265 5.2806644e-21)
(2.4295925 -0.21958361 -5.3506705e-20)
(2.3821967 0.074682468 -7.8359077e-20)
(2.3447336 0.4675748 1.1958623e-21)
(2.3039623 0.76730647 -2.3033564e-20)
(2.2644449 0.8296576 1.0535149e-19)
(2.193375 0.70092866 -3.8094059e-21)
(2.1249606 0.33405792 8.8038341e-20)
(2.1485126 -0.01297395 5.0503723e-21)
(2.3001605 -0.16965575 -2.3809014e-20)
(2.4687572 -0.19634775 1.2161687e-21)
(2.5988527 -0.17110688 -3.762471e-20)
(2.678478 -0.10206311 1.7846356e-22)
(2.6907168 -0.021264142 -2.4037851e-21)
(2.656027 0.029453838 -6.1085023e-21)
(2.6088308 0.039977679 -5.9008822e-22)
(2.5733504 0.020410498 -1.6951487e-23)
(2.5588196 -0.012354759 -6.8028053e-22)
(2.5633762 -0.044551221 -7.248833e-22)
(2.5808449 -0.068596186 1.6331525e-21)
(2.604762 -0.081665141 1.2518049e-21)
(2.629694 -0.083845122 -4.0924857e-21)
(2.6515869 -0.076947162 -1.3091921e-21)
(2.6678818 -0.063720015 7.0484315e-21)
(2.6774892 -0.047197601 -1.2277292e-20)
(2.6805786 -0.030127618 3.6404826e-21)
(2.6781989 -0.014632501 3.6641897e-21)
(2.6718399 -0.0019794573 -1.8059687e-20)
(2.6630506 0.0072050651 -1.6621171e-20)
(2.6532105 0.012976925 -7.970076e-21)
(2.6433092 0.015539981 -2.6224841e-21)
(2.6342825 0.015524212 -1.4385535e-21)
(2.6264004 0.013088483 2.5835482e-20)
(2.6205668 0.009152596 3.3610324e-24)
(2.6161574 0.0031011449 -1.0463281e-21)
(3.3960711 0.15867707 1.0177283e-20)
(2.9357403 -0.017838214 -3.135363e-20)
(2.6545144 -0.18633084 4.5228315e-20)
(2.4708683 -0.25091424 -2.7657417e-19)
(2.3609091 -0.1902715 1.9581622e-19)
(2.2933587 0.092010173 -7.5464354e-21)
(2.2602337 0.47842291 4.2186849e-20)
(2.2447289 0.77725655 5.5198575e-21)
(2.225669 0.84949191 2.1753854e-20)