/*--------------------------------*- C++ -*----------------------------------*\
| =========                 |                                                 |
| \\      /  F ield         | OpenFOAM: The Open Source CFD Toolbox           |
|  \\    /   O peration     | Version:  v2012                                 |
|   \\  /    A nd           | Website:  www.openfoam.com                      |
|    \\/     M anipulation  |                                                 |
\*---------------------------------------------------------------------------*/
FoamFile
{
    version     2.0;
    format      ascii;
    class       surfaceScalarField;
    location    "45.4230374874372984";
    object      meshPhi;
}
// * * * * * * * * * * * * * * * * * * * * * * * * * * * * * * * * * * * * * //

dimensions      [0 3 -1 0 0 0 0];
oriented        oriented;


internalField   nonuniform List<scalar> 
18180
(
5.3263789e-18
-0.0059960292
0
-0.0056219169
0
-0.011825655
0
-0.0051969847
0
-0.010939284
0
-0.017227591
-4.3212757e-14
-0.004751389
-8.3598756e-14
-0.0099873161
0
-0.015850936
7.825053e-14
-0.022173221
2.4745057e-18
-0.0043324252
0
-0.0090537284
0
-0.014410825
0
-0.020457085
7.5661453e-14
-0.026847095
-4.3126234e-14
-0.0039913152
2.2928315e-18
-0.0082927598
2.1763239e-18
-0.013103189
0
-0.018691465
0
-0.02485866
0
-0.031186457
-4.308326e-14
-0.0037270665
0
-0.0077005512
4.035633e-14
-0.012043123
3.9055287e-14
-0.017083664
0
-0.022878345
0
-0.029029067
0
-0.035308424
0
-0.0035076691
2.3241316e-18
-0.0072192412
4.0319689e-14
-0.01121826
3.9026783e-14
-0.015760371
3.7768143e-14
-0.021056251
7.3089434e-14
-0.026916961
0
-0.032978131
-6.8389173e-14
-0.039138283
4.3005283e-14
-0.0033214585
0
-0.0068165942
4.0287665e-14
-0.010560788
0
-0.014712679
0
-0.019513446
0
-0.024958616
3.9510907e-18
-0.030747993
0
-0.03664691
6.6124194e-14
-0.042721292
-4.2966248e-14
-0.0031557267
0
-0.0064606608
4.0252268e-14
-0.010003952
0
-0.013872895
3.7707804e-14
-0.018255896
-3.6491092e-14
-0.023243611
7.0622035e-14
-0.028668196
0
-0.034306974
0
-0.040052288
-6.3925427e-14
-0.046002181
0
-0.0030038777
0
-0.0061329027
0
-0.0095033849
-3.8932944e-14
-0.013160428
3.7680401e-14
-0.017207375
3.6462973e-14
-0.021777714
-3.5284107e-14
-0.026809123
0
-0.032120943
0
-0.037587862
0
-0.043185005
6.1802568e-14
-0.049061765
0
-0.002861293
0
-0.0058228922
0
-0.0090332449
0
-0.012520702
0
-0.016313364
2.2066655e-18
-0.020528104
0
-0.025168752
3.4117126e-14
-0.030123194
-1.7369532e-18
-0.035286758
0
-0.040601329
0
-0.046079074
0
-0.051864398
2.1436949e-14
-0.0027259763
0
-0.0055257436
0
-0.0085799576
0
-0.011920811
0
-0.015519247
0
-0.019434089
3.5231971e-14
-0.023703038
-1.9397407e-18
-0.028300879
1.7699648e-18
-0.033155459
0
-0.038183929
0
-0.043357337
0
-0.048727713
0
-0.054464455
-2.1424379e-14
-0.0025963494
2.0732971e-14
-0.005238558
0
-0.0081388964
0
-0.011340688
3.759833e-14
-0.014775913
0
-0.018447249
0
-0.022381778
-3.4062422e-14
-0.026617361
-3.2959119e-14
-0.031160724
0
-0.035921899
6.1699201e-14
-0.040815024
0
-0.045871625
0
-0.051161073
0
-0.05683404
1.4105928e-18
-0.0024718961
-2.0721801e-14
-0.0049602938
0
-0.0077084005
0
-0.010774425
0
-0.014063103
2.2452597e-18
-0.017537297
0
-0.021189804
0
-0.025071062
3.293305e-14
-0.029283735
-3.1862966e-14
-0.033787446
1.4687337e-18
-0.038435297
-5.9642402e-14
-0.043203719
0
-0.048160546
0
-0.05338768
1.9390014e-18
-0.059031363
0
-0.002352299
0
-0.0046904396
-2.0047921e-14
-0.0072881587
0
-0.010220896
0
-0.013370377
3.6335429e-14
-0.016676461
0
-0.020102483
0
-0.023673222
0
-0.027537907
-3.1835556e-14
-0.03175126
0
-0.036175654
1.3212443e-18
-0.040703105
1.171286e-18
-0.045360954
5.5765506e-14
-0.050246524
0
-0.055429263
0
-0.061038234
1.4587882e-18
-0.0022368923
0
-0.0044297077
-2.0037507e-14
-0.0068789505
0
-0.0096802737
1.8764953e-14
-0.012694876
0
-0.015848169
0
-0.019088781
0
-0.022403214
0
-0.025933153
0
-0.029832821
-6.154995e-14
-0.034019912
-1.3461911e-18
-0.038332376
1.1837246e-18
-0.04273937
-2.7861913e-14
-0.047308643
5.3898488e-14
-0.052134483
0
-0.057291168
-5.039498e-14
-0.062896555
0
-0.0021250103
0
-0.0041781051
4.0062371e-14
-0.0064822
0
-0.0091541822
1.2570279e-18
-0.012036203
-1.8147496e-14
-0.015045526
0
-0.018126217
0
-0.021233374
0
-0.02447998
0
-0.028063627
0
-0.031976669
0
-0.036064669
0
-0.040255125
-2.7837477e-14
-0.044559153
0
-0.049052314
0
-0.053845929
-5.0374358e-14
-0.058994025
0
-0.064592329
-2.1379318e-14
-0.0020164723
-2.068794e-14
-0.0039360264
2.002454e-14
-0.006099745
1.9376356e-14
-0.0086449157
0
-0.011395976
-1.8137581e-14
-0.014265677
-1.0731656e-18
-0.017201566
0
-0.020137644
0
-0.023152402
0
-0.026435516
0
-0.030056124
0
-0.033903119
2.8752111e-14
-0.037874639
0
-0.041957745
-2.6904371e-14
-0.046173932
0
-0.050616429
5.0341483e-14
-0.055392475
0
-0.060551656
-4.7061063e-14
-0.066165419
0
-0.00191135
0
-0.003703833
2.0016866e-14
-0.0057327994
0
-0.0081545604
0
-0.010776535
-1.8129718e-14
-0.013508721
-1.7537343e-14
-0.016309126
0
-0.019094562
0
-0.021915214
0
-0.024941216
1.4770798e-18
-0.028274191
0
-0.031854095
0
-0.035591678
0
-0.039461785
2.6879573e-14
-0.04345445
8.178964e-19
-0.047603353
0
-0.052013633
0
-0.05679631
0
-0.061977827
0
-0.067608319
0
-0.0018093967
-2.0676331e-14
-0.0034821765
0
-0.0053822871
0
-0.007684153
-1.8733967e-14
-0.010179622
0
-0.012775954
1.1041396e-18
-0.015446934
-1.6954893e-14
-0.018095345
0
-0.020749287
0
-0.023561788
0
-0.026632579
2.9674062e-14
-0.029934171
0
-0.033414756
0
-0.037058418
9.0656717e-19
-0.040843685
2.5976353e-14
-0.044764302
0
-0.048865673
0
-0.053263326
0
-0.058061984
0
-0.06328336
0
-0.068949998
0
-0.001710459
0
-0.0032711744
0
-0.0050489477
0
-0.0072344033
-1.3392794e-18
-0.0096063656
-1.8116422e-14
-0.012069321
1.1210787e-18
-0.014615411
9.6105535e-19
-0.017136016
0
-0.019639721
0
-0.022269908
0
-0.025117442
0
-0.028160589
0
-0.031368357
0
-0.034755415
0
-0.038323265
-7.7853366e-14
-0.042042704
0
-0.045907542
2.4281207e-14
-0.049976337
0
-0.054373989
0
-0.059210142
0
-0.064481149
0
-0.070184187
-1.0681084e-14
-0.0016144113
0
-0.0030707771
0
-0.0047335852
0
-0.0068059438
3.7447664e-14
-0.0090579374
0
-0.011390491
-1.7516591e-14
-0.013815523
-1.6940403e-14
-0.016215165
1.6383084e-14
-0.018580526
-1.5842087e-14
-0.021049623
-7.0795445e-19
-0.02370802
0
-0.026529044
0
-0.02947778
9.8052298e-19
-0.032592326
0
-0.035910178
0
-0.039415048
0
-0.043076493
-5.9869917e-19
-0.04689827
2.3462179e-14
-0.050949957
-2.2691411e-14
-0.055366193
4.3887884e-14
-0.06024939
0
-0.065584749
-4.1013389e-14
-0.07133559
-2.1355451e-14
-0.0015212964
1.0331876e-14
-0.0028808211
0
-0.0044362644
0
-0.0063992365
1.8720065e-14
-0.0085350333
0
-0.01074056
1.7511133e-14
-0.013048238
0
-0.015331843
1.6376219e-14
-0.017567346
0
-0.019890977
0
-0.02238588
1.4805311e-14
-0.025019142
0
-0.027744026
0
-0.030600696
2.6780173e-14
-0.03364531
0
-0.036895827
0
-0.040345268
0
-0.043961614
0
-0.047753269
2.266969e-14
-0.051803107
0
-0.056251169
0
-0.061197171
0
-0.066601204
-3.9621741e-14
-0.072401405
1.0676167e-14
-0.0014314575
1.0330286e-14
-0.0027012576
9.9973299e-15
-0.0041566734
0
-0.0060139823
1.8714767e-14
-0.0080376686
0
-0.01012014
0
-0.012313831
0
-0.014485991
0
-0.016598155
0
-0.018787781
7.040539e-19
-0.021137065
-1.47972e-14
-0.023609359
-1.4307584e-14
-0.026143976
0
-0.028770451
0
-0.031558129
2.5876413e-14
-0.034537818
-2.5025729e-14
-0.037729959
0
-0.041132244
0
-0.044712428
0
-0.048488439
-4.3804975e-14
-0.052551286
0
-0.057042878
-4.0964707e-14
-0.062056615
0
-0.067540605
-3.8275338e-14
-0.073398171
-1.0675609e-14
-0.0013451524
-1.0328901e-14
-0.0025319341
9.996488e-15
-0.0038944126
-7.2621813e-19
-0.0056495238
0
-0.0075654104
0
-0.0095293886
1.7503239e-14
-0.011612607
0
-0.013677542
0
-0.01567182
0
-0.017735702
0
-0.019952954
6.4979278e-19
-0.022283796
-1.4298112e-14
-0.02465435
1.3824487e-14
-0.027082175
0
-0.029642318
0
-0.032370549
2.500175e-14
-0.035282855
0
-0.038421129
0
-0.041788237
0
-0.045346193
-2.1879125e-14
-0.049119895
-2.11607e-14
-0.053205147
-2.0464429e-14
-0.057748787
7.4143556e-19
-0.062842819
0
-0.068408837
0
-0.074323508
1.0674434e-14
-0.0012624698
-1.0328303e-14
-0.0023725293
9.9952178e-15
-0.0036488526
7.3337029e-19
-0.0053051522
9.3534516e-15
-0.0071172744
0
-0.0089684011
0
-0.010944364
1.0302102e-18
-0.012905873
0
-0.014787721
1.581571e-14
-0.01673267
1.5290616e-14
-0.018827244
0
-0.021030798
5.5066885e-19
-0.023257945
0
-0.02551473
0
-0.027871711
0
-0.030376845
0
-0.033037586
2.4155407e-14
-0.035887463
0
-0.038987402
0
-0.04233009
3.3151717e-19
-0.045876682
2.113732e-14
-0.049657862
0
-0.053776906
1.9769716e-14
-0.058382684
3.8230146e-14
-0.063560655
0
-0.069216732
3.5713452e-14
-0.075190677
-1.0673415e-14
-0.0011834379
1.0327254e-14
-0.00222243
9.9934929e-15
-0.0034191075
0
-0.0049803083
-9.352856e-15
-0.0066922866
-6.3963157e-19
-0.0084361972
-1.7496248e-14
-0.010308746
1.6916068e-14
-0.012170211
8.2160807e-19
-0.013944649
0
-0.015776786
0
-0.01775658
0
-0.019843236
0
-0.021940816
1.3807539e-14
-0.024047664
3.700272e-19
-0.026226712
1.2904993e-14
-0.02853089
0
-0.030976306
0
-0.033570049
0
-0.036368436
0
-0.039439989
2.1828776e-14
-0.042771092
-4.2225465e-14
-0.046316111
2.0420071e-14
-0.050115722
-1.9748853e-14
-0.054277273
1.9097418e-14
-0.058952423
0
-0.064221836
0
-0.069966041
0
-0.075999173
0
-0.0011079909
0
-0.0020814419
-9.9925303e-15
-0.0032042668
9.6677252e-15
-0.0046742506
0
-0.006289868
9.0451817e-15
-0.0079320252
-6.173185e-19
-0.0097049264
0
-0.011469115
0
-0.013141386
1.5807201e-14
-0.014866575
0
-0.016738144
1.4769184e-14
-0.018716292
1.4276585e-14
-0.020694607
0
-0.022667091
1.3339872e-14
-0.024690762
1.2895828e-14
-0.026815374
0
-0.029066173
0
-0.031448672
0
-0.033979693
-2.254415e-14
-0.036737299
0
-0.039795293
0
-0.043122225
-2.0395833e-14
-0.046676171
-1.9726554e-14
-0.050504135
2.2896325e-19
-0.05471742
1.8447381e-14
-0.059466377
5.5680427e-19
-0.064827274
0
-0.070664585
0
-0.07675673
0
-0.0010352182
0
-0.0019495487
0
-0.0030034145
9.6675733e-15
-0.0043862225
-7.3368232e-19
-0.0059093899
9.0440779e-15
-0.0074546699
0
-0.009131579
-8.4554997e-15
-0.010801405
8.1997496e-19
-0.01237636
0
-0.01399991
0
-0.015769248
0
-0.017646712
-1.4270672e-14
-0.019513849
0
-0.021363078
-1.3332151e-14
-0.02324966
2.9026137e-19
-0.025216135
1.2457854e-14
-0.027288835
1.2043733e-14
-0.029485179
0
-0.031803515
0
-0.03427741
-2.1778119e-14
-0.037007704
0
-0.040059884
0
-0.043395148
0
-0.046968546
-1.9055566e-14
-0.050834514
1.8428111e-14
-0.055103354
1.7818711e-14
-0.059929449
3.4453206e-14
-0.065386843
0
-0.071313659
-3.2174948e-14
-0.077463463
-4.7339318e-06
-0.001132437
0
-0.0018248166
0
-0.0028159089
0
-0.0041150301
-9.3498605e-15
-0.0055496263
-9.0431173e-15
-0.0070029588
8.7437307e-15
-0.0085868028
5.3636344e-19
-0.010165135
-8.1727914e-15
-0.011648029
1.5800029e-14
-0.013175542
0
-0.014847507
-1.4759504e-14
-0.016630881
0
-0.018394275
1.378672e-14
-0.020129433
3.377066e-19
-0.021892578
0
-0.023720018
2.28157e-19
-0.025632421
0
-0.027654289
-1.1634111e-14
-0.029793454
0
-0.032048043
0
-0.034474442
2.1037445e-14
-0.037188094
0
-0.040248003
0
-0.043600682
1.9032153e-14
-0.047203885
0
-0.051113225
1.7800009e-14
-0.055443594
1.9938276e-19
-0.060350018
-3.3275481e-14
-0.065902579
0
-0.071921732
-3.1072406e-14
-0.078125264
-7.9328971e-06
-0.0011258656
-1.2648947e-05
-0.0019862388
9.9916928e-15
-0.0026399341
0
-0.0038595959
0
-0.0052092918
6.4935286e-19
-0.0065750787
-8.7434124e-15
-0.0080691839
0
-0.0095588542
-8.1711238e-15
-0.0109551
-7.8985458e-15
-0.012391821
0
-0.013971136
0
-0.015666032
1.4260731e-14
-0.017331974
0
-0.018960709
-3.2955674e-19
-0.020611749
0
-0.022316151
0
-0.024086053
0
-0.025945694
0
-0.02791808
0
-0.029998241
0
-0.03219079
0
-0.034580442
0
-0.037290094
0
-0.04036757
0
-0.043750642
-1.8383619e-14
-0.047389998
-1.7779106e-14
-0.051349494
-3.4384997e-14
-0.055744079
1.6622655e-14
-0.060732775
0
-0.066382374
0
-0.072487316
-3.0006238e-14
-0.078743085
-9.7816623e-06
-0.0011190263
-2.1245617e-05
-0.0019869192
-1.9107203e-05
-0.0028567762
0
-0.0036183548
0
-0.0048874246
0
-0.0061699397
6.3540951e-19
-0.007577285
-5.4018003e-19
-0.0089813763
0
-0.010296024
7.8972626e-15
-0.011647474
0
-0.013138581
0
-0.01474966
0
-0.016323592
1.3776895e-14
-0.017852563
0
-0.019400677
-1.2865601e-14
-0.020995053
1.2433472e-14
-0.022639207
0
-0.024352188
1.1614685e-14
-0.026164279
1.1227547e-14
-0.028087011
-4.6464205e-20
-0.030103575
0
-0.03223965
0
-0.034603898
1.9628384e-14
-0.037322602
0
-0.040431754
0
-0.043851633
0
-0.047535495
1.7172208e-14
-0.051549388
0
-0.056012227
0
-0.061083251
-3.103615e-14
-0.06682549
0
-0.07301631
0
-0.079318846
-1.0463798e-05
-0.0011127166
-2.6261914e-05
-0.0019867585
-3.2185638e-05
-0.0028718668
-2.5852666e-05
-0.0038854071
0
-0.004582128
0
-0.0057866175
0
-0.0071102097
-8.4508641e-15
-0.0084317081
-4.0664675e-19
-0.0096693799
0
-0.010940605
-7.6309327e-15
-0.012347869
-7.3747845e-15
-0.013879862
1.4252959e-14
-0.015366501
0
-0.016801298
0
-0.018254164
0
-0.01974926
-1.2426833e-14
-0.021281515
0
-0.022864433
0
-0.024527829
1.1218091e-14
-0.026296911
-1.0844041e-14
-0.028164868
0
-0.030114661
0
-0.0322014
0
-0.034555729
0
-0.037296585
0
-0.040445871
0
-0.043913268
-1.7150598e-14
-0.04764706
-1.6585583e-14
-0.051720219
1.6037321e-14
-0.056251421
1.5504345e-14
-0.061403707
-2.9971636e-14
-0.067239529
0
-0.073507906
0
-0.079854487
-1.0161266e-05
-0.0011070354
-2.816191e-05
-0.0019871253
-3.9900208e-05
-0.0028855546
-4.3605936e-05
-0.0039158555
-3.2660434e-05
-0.0048838531
0
-0.0054223869
0
-0.0066667208
0
-0.0079090645
4.0578763e-19
-0.0090737756
-3.5506594e-19
-0.010270039
0
-0.011597365
0
-0.013054315
-7.1248804e-15
-0.014458293
0
-0.015804171
0
-0.017168373
0
-0.018572743
1.2420879e-14
-0.020004601
-1.200226e-14
-0.021472281
1.1598517e-14
-0.023002054
-1.1209384e-14
-0.02462353
0
-0.026347789
1.047331e-14
-0.028150356
0
-0.030032687
0
-0.032086413
0
-0.03444485
0
-0.037219915
0
-0.040420727
1.7127904e-14
-0.043941734
1.6564531e-14
-0.047731746
-1.6018307e-14
-0.051865189
0
-0.05646667
1.4972689e-14
-0.061702229
0
-0.06762599
0
-0.073969406
0
-0.080351431
-9.0516065e-06
-0.0011020513
-2.7415321e-05
-0.0019880226
-4.2909324e-05
-0.0028989928
-5.4112306e-05
-0.0039434738
-5.5085952e-05
-0.0049337307
-3.8403979e-05
-0.0057350143
0
-0.0062442115
0
-0.007412528
0
-0.0085083596
7.8943222e-15
-0.0096341163
7.6287847e-15
-0.010885789
0
-0.012270911
0
-0.013596765
-1.9132021e-19
-0.014858578
1.3300052e-14
-0.016139913
0
-0.017461254
1.2415566e-14
-0.018801864
0
-0.020166494
-1.1591485e-14
-0.021578159
1.1201425e-14
-0.023063136
0
-0.024644196
-2.710968e-20
-0.026311618
-6.5122251e-20
-0.028040966
0
-0.029868938
0
-0.031905249
0
-0.034282136
-1.7685977e-14
-0.037101516
0
-0.040362232
0
-0.043945384
0
-0.047793293
1.5469803e-14
-0.051989709
8.9781559e-20
-0.056663027
1.4458671e-14
-0.06198183
0
-0.067990924
0
-0.074397412
0
-0.080811679
-7.3111467e-06
-0.0010978563
-2.44791e-05
-0.0019893754
-4.1887581e-05
-0.0029120614
-5.8252596e-05
-0.0039693131
-6.8351883e-05
-0.0049778799
-6.4737902e-05
-0.0058032915
-4.3135727e-05
-0.0065536489
8.4501659e-15
-0.0069389565
0
-0.0079723886
0
-0.0090318501
-7.6279143e-15
-0.010211879
-3.8324784e-19
-0.011527796
0
-0.012779509
6.8813233e-15
-0.013962077
-6.6483134e-15
-0.015165908
0
-0.016410681
0
-0.017668007
1.0408118e-19
-0.018939748
0
-0.020246904
1.1194185e-14
-0.021609574
-1.0817445e-14
-0.02305358
-1.0454498e-14
-0.02458595
0
-0.026184391
9.768403e-15
-0.027846087
0
-0.029634833
0
-0.031669802
0
-0.034075015
0
-0.036949832
0
-0.040279661
0
-0.043927827
4.9577563e-21
-0.047837215
-1.4939628e-14
-0.052097372
8.2113365e-20
-0.056845273
0
-0.06224652
0
-0.068332027
0
-0.074796864
0
-0.08123438
-5.1106365e-06
-0.0010945595
-1.9817075e-05
-0.0019911868
-3.7498764e-05
-0.0029246196
-5.691189e-05
-0.0039933616
-7.3558882e-05
-0.0050175717
-8.0260898e-05
-0.0058609081
-7.2657226e-05
-0.0066412502
-4.6958324e-05
-0.0072302475
0
-0.0074623791
0
-0.0084623234
0
-0.0095738897
3.9077922e-19
-0.010823594
0
-0.012004574
0
-0.013112383
0
-0.01424337
0
-0.015417445
0
-0.016598296
0
-0.017785515
0
-0.019000047
0
-0.02025476
-1.0810012e-14
-0.021573026
0
-0.02297118
-1.0095769e-14
-0.02444111
9.7583967e-15
-0.025970753
0
-0.027577013
0
-0.029342389
0
-0.03138805
0
-0.033834294
0
-0.036772597
0
-0.040177594
-1.5429503e-14
-0.04389554
0
-0.047866829
1.4427018e-14
-0.052192429
1.3947507e-14
-0.057015052
-1.3481197e-14
-0.062495981
0
-0.068653761
2.51724e-14
-0.075164231
0
-0.081622362
-2.6184109e-06
-0.0010922063
-1.388031e-05
-0.0019934835
-3.0428066e-05
-0.0029364208
-5.0991396e-05
-0.0040153814
-7.1833944e-05
-0.0050526694
-8.6283696e-05
-0.0059097995
-8.9984216e-05
-0.0067148768
-7.90541e-05
-0.007341662
-4.9444253e-05
-0.0077243459
0
-0.0079215074
0
-0.0089701894
7.3691515e-15
-0.010155706
7.1202566e-15
-0.011270078
-1.7688535e-19
-0.0123076
0
-0.013369998
0
-0.01447811
6.201406e-15
-0.015588473
0
-0.016698294
0
-0.017830112
0
-0.018989799
0
-0.020195756
8.3118937e-20
-0.021467229
1.0087284e-14
-0.022808113
0
-0.024215734
0
-0.025683126
0
-0.027244683
1.8834929e-19
-0.029000045
0
-0.031070837
0
-0.033566036
-1.593214e-14
-0.03657664
0
-0.040062165
0
-0.043851497
0
-0.047886137
1.393153e-14
-0.052276606
0
-0.057174167
0
-0.062733303
0
-0.068953899
0
-0.075505954
2.3471638e-14
-0.081974581
-0.0010907597
0
-7.1247822e-06
-0.0019962629
-2.1357056e-05
-0.0029472786
-4.140092e-05
-0.0040350377
-6.4326316e-05
-0.0050830068
-8.4156573e-05
-0.0059503758
-9.6622477e-05
-0.0067763352
-9.7870214e-05
-0.0074362309
-8.3234391e-05
-0.0078607329
-5.0948437e-05
-0.0081514852
0
-0.0083987743
0
-0.0095215694
0
-0.010574041
-6.877806e-15
-0.011545936
-6.644348e-15
-0.012543644
0
-0.013589985
-6.1997857e-15
-0.014634892
0
-0.015673249
0
-0.016730626
0
-0.017806488
0
-0.018913258
-1.0431683e-14
-0.02007085
-1.0079512e-14
-0.021287546
-9.7405999e-15
-0.022572351
0
-0.023920818
-9.1000627e-15
-0.025328961
0
-0.02685649
8.5063987e-15
-0.028619189
0
-0.030724907
0
-0.033278873
-1.5386363e-14
-0.036366992
0
-0.039937619
0
-0.043800502
-1.3914229e-14
-0.047897047
1.3452571e-14
-0.052352089
-1.3004007e-14
-0.057324702
1.2567902e-14
-0.062959018
-2.4287422e-14
-0.069236105
0
-0.075816243
0
-0.082293473
-0.0019994274
0
-0.0010902334
2.6158851e-06
-1.0981497e-05
-0.0029570772
-2.9072774e-05
-0.0040519757
-5.2192894e-05
-0.0051082011
-7.5257225e-05
-0.0059829587
-9.4120736e-05
-0.0068261086
-0.00010504764
-0.0075170265
-0.00010305031
-0.007977847
-8.5810578e-05
-0.0083202725
-5.2159267e-05
-0.0085936857
0
-0.0089191885
7.1187446e-15
-0.0099143453
0
-0.010825697
1.3599211e-19
-0.011762611
6.4170347e-15
-0.012750513
0
-0.013734344
1.1974175e-14
-0.014706464
-9.5729254e-21
-0.015696289
0
-0.016697557
0
-0.017716805
0
-0.018773816
0
-0.019876626
9.7326865e-15
-0.021039925
9.4052838e-15
-0.02227248
-9.0903147e-15
-0.023556577
8.7872032e-15
-0.024909088
-8.4956764e-15
-0.026423354
0
-0.028207401
0
-0.030359507
1.5364404e-14
-0.03297765
-1.4858946e-14
-0.036149994
0
-0.039808772
0
-0.043744371
-1.7234226e-20
-0.0479025
0
-0.052422765
-1.2555788e-14
-0.057469641
0
-0.063172843
0
-0.069495769
0
-0.07609992
0
-0.082577239
-0.0029656903
0
-0.0020029369
7.1385084e-06
-0.0010907122
5.101588e-06
-1.4952262e-05
-0.0040659746
-3.6623045e-05
-0.0051278929
-6.097891e-05
-0.0060079173
-8.4049358e-05
-0.0068647464
-0.00010228596
-0.0075838716
-0.00011062814
-0.0080789154
-0.00010629725
-0.0084671573
-8.7936344e-05
-0.008797165
-5.3401374e-05
-0.0090748049
0
-0.0092871712
0
-0.010145228
0
-0.011024697
1.2373658e-19
-0.011957421
-7.8661267e-20
-0.012883993
0
-0.01379442
-5.781236e-15
-0.014722472
2.0640387e-20
-0.015657162
0
-0.016598599
0
-0.017567192
0
-0.018568982
-2.0242587e-19
-0.019617273
0
-0.020732374
-9.0816832e-15
-0.021903345
-8.7778613e-15
-0.023120442
-8.485458e-15
-0.024438424
-8.203965e-15
-0.025956715
0
-0.027775369
0
-0.029980386
0
-0.0326701
0
-0.035930057
0
-0.039678964
-1.3418385e-14
-0.043686507
1.2973862e-14
-0.047905574
0
-0.052490615
5.9763845e-20
-0.057607811
0
-0.063373594
0
-0.069734656
0
-0.076351576
0
-0.082829515
-0.0040768378
0
-0.0029731704
1.1030141e-05
-0.0020066763
1.3933554e-05
-0.0010922629
7.2934181e-06
-1.8819573e-05
-0.0051420706
-4.2730753e-05
-0.006025619
-6.8015053e-05
-0.0068929528
-9.1309725e-05
-0.0076368284
-0.00010774643
-0.0081637774
-0.0001141684
-0.0085947664
-0.00010902397
-0.0089768472
-9.0100691e-05
-0.0093124593
-5.4147213e-05
-0.0093946101
0
-0.0095003454
0
-0.010327989
6.41509e-15
-0.011207946
6.196117e-15
-0.012081007
-2.7816908e-20
-0.01293399
5.7796953e-15
-0.013805192
5.5820959e-15
-0.014679901
5.3800431e-20
-0.015551951
0
-0.016442648
0
-0.017356141
0
-0.018300406
0
-0.019301277
9.0734894e-15
-0.020361217
0
-0.021462338
8.4758124e-15
-0.022626939
-8.1937543e-15
-0.02392974
-2.8064692e-19
-0.025468188
-7.6602755e-15
-0.02732951
0
-0.029595655
0
-0.032360288
1.3856616e-14
-0.03571198
0
-0.039550902
0
-0.043628616
0
-0.047908198
0
-0.052556746
0
-0.057739663
1.1309449e-14
-0.063557952
0
-0.069948294
0
-0.076578205
0
-0.083048326
-0.0051506768
0
-0.0040850431
1.5018954e-05
-0.0029792578
2.154349e-05
-0.0020105271
1.9929936e-05
-0.0010948559
9.0240921e-06
-2.1931422e-05
-0.0060364766
-4.7602308e-05
-0.0069112424
-7.3858289e-05
-0.0076759464
-9.6208031e-05
-0.0082323025
-0.00011125011
-0.0087027852
-0.0001171896
-0.0091330215
-0.00011176885
-0.0095222902
-9.1370493e-05
-0.0096599415
-5.3871089e-05
-0.0095547749
0
-0.0096692052
0
-0.01049964
0
-0.011322635
2.4343839e-20
-0.01212223
-5.7783556e-15
-0.012940748
5.5805239e-15
-0.013761094
-5.3895607e-15
-0.014570884
0
-0.015392654
0
-0.016229495
0
-0.017082182
9.3830682e-15
-0.017977346
0
-0.018926488
-8.7602797e-15
-0.019916586
0
-0.020957722
-3.3978187e-19
-0.022091981
0
-0.023396719
0
-0.024965229
7.3975189e-15
-0.026878758
0
-0.02920965
-1.3836392e-14
-0.032053899
-1.3380974e-14
-0.035498176
0
-0.039427104
0
-0.043572778
0
-0.047911171
0
-0.052620848
-1.1299183e-14
-0.057861219
0
-0.063725541
0
-0.070139888
0
-0.07677333
0
-0.083236462
-0.0060405039
0
-0.0051547852
1.8869878e-05
-0.0040904593
2.9329646e-05
-0.0029835275
3.0818706e-05
-0.0020145337
2.4661627e-05
-0.0010986472
1.0129381e-05
-2.4404094e-05
-0.006919796
-5.1666973e-05
-0.0077012836
-7.7833999e-05
-0.0082841322
-9.9386369e-05
-0.0087910219
-0.00011426567
-0.009265253
-0.00012018874
-0.0097042926
-0.0001133614
-0.0098936484
-9.0904918e-05
-0.0098434341
-5.299514e-05
-0.0096713552
0
-0.0098297235
0
-0.010606343
0
-0.011356556
1.592814e-21
-0.012125912
-5.5790983e-15
-0.012896492
5.3879044e-15
-0.013650182
0
-0.014410631
5.0254997e-15
-0.015180853
9.7074682e-15
-0.015953985
0
-0.016754473
-9.0591002e-15
-0.01759848
-8.7529441e-15
-0.018480025
-8.4580154e-15
-0.019409951
-8.1749844e-15
-0.020412002
0
-0.021530071
0
-0.02284756
-2.9162383e-19
-0.024457307
2.4578932e-19
-0.026427454
0
-0.028828596
0
-0.031753506
0
-0.03529197
0
-0.039308755
0
-0.043518969
-1.691484e-20
-0.04791492
-1.1287698e-14
-0.052682162
1.0908216e-14
-0.057974263
-1.0539189e-14
-0.063873784
-2.0361107e-14
-0.070305133
0
-0.076942263
0
-0.083392172
-0.0069187417
0
-0.006039378
2.1943154e-05
-0.0051543861
3.6818177e-05
-0.0040923379
4.1941716e-05
-0.0029859692
3.8126549e-05
-0.0020186174
2.7668678e-05
-0.0011038488
1.0436375e-05
-2.647187e-05
-0.0077128532
-5.4454948e-05
-0.0083191703
-8.044168e-05
-0.0088592041
-0.00010213036
-0.0093733165
-0.00011722407
-0.009858076
-0.00012192155
-0.010097032
-0.00011279537
-0.010098463
-8.9442845e-05
-0.0099844167
-5.1975243e-05
-0.0097807326
6.1940036e-15
-0.0099289051
0
-0.010634648
5.7761588e-15
-0.011357708
0
-0.012082468
-5.386383e-15
-0.01278531
-9.0632337e-20
-0.013490835
5.0232612e-15
-0.014202909
4.8515027e-15
-0.014907198
-9.37182e-15
-0.015624958
0
-0.016375064
0
-0.01715303
0
-0.017974425
8.1665041e-15
-0.018863845
0
-0.019837411
-7.6302636e-15
-0.020948252
-3.3665217e-19
-0.022292156
0
-0.023949304
0
-0.025982516
0
-0.028455638
0
-0.031462946
-1.2477066e-14
-0.035094447
0
-0.03919684
0
-0.043467871
1.1275025e-14
-0.047918949
0
-0.052741031
1.053025e-14
-0.058074465
0
-0.064002883
1.9653513e-14
-0.070446797
0
-0.077080113
0
-0.083519321
-0.0077108779
0
-0.0069103831
2.4368436e-05
-0.0060328616
4.2774644e-05
-0.0051486614
5.261048e-05
-0.0040906971
5.1864657e-05
-0.0029864459
4.2738604e-05
-0.0020227929
2.8476198e-05
-0.0011104346
9.7671356e-06
-2.7901497e-05
-0.0083375587
-5.630257e-05
-0.0089069725
-8.2701155e-05
-0.0094569511
-0.00010480386
-0.0099833904
-0.00011892743
-0.010269388
-0.0001213169
-0.010321356
-0.00011099879
-0.010262213
-8.7761735e-05
-0.010118368
-5.0796772e-05
-0.009829558
5.9810231e-15
-0.0099536919
0
-0.010633521
0
-0.011315512
-7.1521392e-20
-0.01197234
9.5008511e-20
-0.012628415
-1.1330045e-19
-0.013289302
0
-0.013933936
1.6285087e-19
-0.014579952
0
-0.015248355
0
-0.015932398
0
-0.016648301
0
-0.017430486
-7.8842474e-15
-0.018285787
0
-0.019234681
0
-0.020355113
7.1230968e-15
-0.021735756
-2.8763961e-19
-0.023448365
6.6611192e-15
-0.025547272
0
-0.02809485
1.2458892e-14
-0.031183567
-1.2047559e-14
-0.034907276
0
-0.03909113
0
-0.043418742
-1.6112644e-20
-0.047923423
0
-0.052794302
-2.0330046e-14
-0.058163445
0
-0.064110584
0
-0.070561722
0
-0.07719362
-1.7684909e-14
-0.083616099
-0.008339406
0
-0.007698702
2.6397634e-05
-0.0068949755
4.7463217e-05
-0.0060188521
6.1069874e-05
-0.0051379625
6.5014269e-05
-0.0040857294
5.810524e-05
-0.0029846799
4.3918173e-05
-0.0020267532
2.6601854e-05
-0.0011184583
7.9365626e-06
-2.88587e-05
-0.0089342788
-5.7904263e-05
-0.0095160409
-8.4874972e-05
-0.010079897
-0.00010632423
-0.01041018
-0.00011834606
-0.010510958
-0.00011940918
-0.010505249
-0.00010893684
-0.01041867
-8.5783303e-05
-0.010189375
-4.9290136e-05
-0.0098060383
0
-0.0099512892
0
-0.010592465
0
-0.01120759
-9.8957558e-20
-0.011819048
-5.0198971e-15
-0.01243457
4.8475533e-15
-0.013027319
-9.3626117e-15
-0.013611138
1.8323638e-19
-0.01420958
0
-0.014811765
0
-0.01542886
0
-0.016105039
-7.8767224e-15
-0.016853447
-7.61209e-15
-0.017674204
-7.3584075e-15
-0.018616271
7.1138985e-15
-0.019759734
-6.8784257e-15
-0.021186637
-6.6513911e-15
-0.022958416
0
-0.025126409
0
-0.027747792
0
-0.030917369
-1.1632746e-14
-0.034730146
0
-0.038991723
-1.0872561e-14
-0.043371651
-1.0508861e-14
-0.047925636
1.0155475e-14
-0.052842692
-9.8121357e-15
-0.058234585
0
-0.064197589
-1.8309154e-14
-0.070653455
0
-0.077277345
0
-0.083685436
-0.0089410235
0
-0.0083288058
2.7822358e-05
-0.0076767203
5.1381664e-05
-0.0068699821
6.7709412e-05
-0.0059971774
7.5403223e-05
-0.0051222768
7.2797157e-05
-0.004077304
5.9672564e-05
-0.0029804985
4.0940563e-05
-0.0020308486
2.1566656e-05
-0.0011277398
4.7474553e-06
-2.9688322e-05
-0.009550406
-5.9429057e-05
-0.010147345
-8.6103788e-05
-0.010518887
-0.00010581832
-0.010666342
-0.00011651193
-0.010712295
-0.00011722166
-0.010681228
-0.00010651525
-0.010509781
-8.3273563e-05
-0.01018574
-4.7585652e-05
-0.0097574246
0
-0.0099116494
0
-0.010487739
0
-0.011058777
5.0185177e-15
-0.011633497
0
-0.012181198
0
-0.012711121
-4.5188786e-15
-0.013249794
4.3643115e-15
-0.013782686
0
-0.014311767
-4.7382171e-19
-0.014886344
0
-0.015533051
0
-0.016239739
0
-0.017036872
0
-0.017990785
0
-0.019170744
6.641518e-15
-0.020649124
0
-0.022484437
0
-0.024721301
0
-0.027416803
0
-0.030664481
1.1231762e-14
-0.034563457
-1.0858933e-14
-0.038897962
-3.1490306e-14
-0.043325157
-1.8115395e-20
-0.047926026
-9.8032646e-15
-0.05287844
1.8942606e-14
-0.058290302
-9.1488444e-15
-0.064262398
1.7671051e-14
-0.070719388
-5.2797648e-20
-0.077337234
3.2539687e-20
-0.083724345
-0.0095600769
0
-0.0089318128
2.8792563e-05
-0.0083059073
5.4149528e-05
-0.007642323
7.3253459e-05
-0.0068347594
8.3529717e-05
-0.0059672569
8.4352439e-05
-0.005101523
7.4732306e-05
-0.004065411
5.5591571e-05
-0.0029737775
3.3094826e-05
-0.0020351258
1.2865477e-05
-0.0011373369
0
-3.0468366e-05
-0.010185691
-6.0285472e-05
-0.010595034
-8.5701211e-05
-0.01078677
-0.00010419434
-0.010882439
-0.00011439532
-0.010904871
-0.00011463286
-0.010790275
-0.00010342588
-0.010524911
-8.042941e-05
-0.010155728
-4.5801527e-05
-0.0096742668
0
-0.0098118076
0
-0.010344257
0
-0.010881764
-1.5615729e-19
-0.011389803
1.8569641e-19
-0.011873205
0
-0.01236095
0
-0.01283604
-4.2126284e-15
-0.013289592
0
-0.013770775
0
-0.014317608
7.5966091e-15
-0.014917556
-7.3417427e-15
-0.01559131
7.0961661e-15
-0.016393263
0
-0.017372638
0
-0.01859373
1.2826489e-14
-0.020128969
0
-0.022027971
5.9975288e-15
-0.024334817
0
-0.027102481
0
-0.03042533
0
-0.034406526
0
-0.038809855
-1.0133674e-14
-0.043279079
-2.0282845e-20
-0.047920053
0
-0.052903007
9.1420087e-15
-0.05832523
0
-0.064305829
0
-0.07076345
1.6466033e-14
-0.077368358
0
-0.08373592
-0.010195019
0
-0.0095503116
2.9627456e-05
-0.0089069174
5.6046904e-05
-0.0082671148
7.7191914e-05
-0.0075953669
9.031855e-05
-0.0067885543
9.3357121e-05
-0.0059287529
8.6510131e-05
-0.0050752863
6.9600626e-05
-0.004049387
4.4892823e-05
-0.0029647594
1.9677555e-05
-0.0020384801
0
-0.0010426968
0
-3.0903002e-05
-0.010638573
-6.0006557e-05
-0.010871734
-8.4399017e-05
-0.011014815
-0.00010231657
-0.011088714
-0.00011188651
-0.0110294
-0.00011134136
-0.010822315
-9.9929892e-05
-0.010512486
-7.7441568e-05
-0.010089349
-4.3857499e-05
-0.0095354209
0
-0.0096757088
0
-0.010175712
0
-0.010648464
-4.6762036e-15
-0.011091616
2.0247083e-19
-0.011535744
0
-0.011962898
-4.2104865e-15
-0.012353601
2.6762831e-19
-0.012751959
0
-0.013205156
0
-0.013709616
0
-0.014270893
0
-0.014938549
6.8513497e-15
-0.015757976
0
-0.016766978
6.4039289e-15
-0.018034894
1.2385034e-14
-0.019627702
0
-0.021592104
5.7912387e-15
-0.023967622
0
-0.026805335
0
-0.030199559
0
-0.03425946
0
-0.038726368
4.5144172e-20
-0.043232823
0
-0.047907931
3.3309964e-21
-0.05290974
8.8238161e-15
-0.058340765
8.5222482e-15
-0.064327871
-1.6458827e-14
-0.070783781
1.5893309e-14
-0.077375124
-0.00076062156
-0.082960199
-0.010649483
0
-0.010181688
3.0397179e-05
-0.0095211839
5.7668556e-05
-0.0088620474
7.9901254e-05
-0.0082125918
9.5167867e-05
-0.0075355741
0.00010089372
-0.0067311292
9.5643271e-05
-0.0058809152
8.0473037e-05
-0.0050430441