/*--------------------------------*- C++ -*----------------------------------*\
| =========                 |                                                 |
| \\      /  F ield         | OpenFOAM: The Open Source CFD Toolbox           |
|  \\    /   O peration     | Version:  v2012                                 |
|   \\  /    A nd           | Website:  www.openfoam.com                      |
|    \\/     M anipulation  |                                                 |
\*---------------------------------------------------------------------------*/
FoamFile
{
    version     2.0;
    format      ascii;
    class       volScalarField;
    location    "45.4230374874372984";
    object      p;
}
// * * * * * * * * * * * * * * * * * * * * * * * * * * * * * * * * * * * * * //

dimensions      [0 2 -2 0 0 0 0];


internalField   nonuniform List<scalar> 
9200
(
0.0035952783
0.003658835
0.010869119
0.0037429658
0.011071344
0.017794718
0.0038644163
0.011399307
0.018111347
0.024357708
0.004031055
0.011912004
0.018635706
0.024752781
0.030474572
0.0041911788
0.012628388
0.019445116
0.025433236
0.03089637
0.036161683
0.0043624999
0.013515047
0.020569068
0.026479134
0.031662815
0.03656766
0.041442638
0.0044712771
0.014624949
0.021965793
0.027943059
0.032833874
0.037355462
0.041787863
0.046456715
0.0044895724
0.015897979
0.023699114
0.029793134
0.034494602
0.038544182
0.042530541
0.046669705
0.051118076
0.0043214665
0.017330087
0.02569518
0.032115918
0.036618865
0.040261238
0.043626541
0.047259603
0.051229308
0.05538279
0.0038684077
0.018835426
0.027937197
0.034859146
0.039318792
0.042481582
0.045252816
0.048152319
0.051586403
0.055306325
0.059634922
0.0029744959
0.020318279
0.03030791
0.038033682
0.042566759
0.045339904
0.047379481
0.049551236
0.052193721
0.055570071
0.059356211
0.063889018
0.0014520267
0.02161606
0.03266743
0.041554214
0.046411727
0.048827056
0.050156728
0.051414883
0.05325223
0.055841377
0.059349147
0.063394323
0.067991435
-0.00095174988
0.02252
0.034793951
0.045320167
0.050821095
0.053021161
0.05357958
0.053898361
0.054715637
0.056473484
0.059209323
0.06299702
0.067232298
0.072102248
-0.0045829892
0.022728056
0.036392954
0.049149809
0.055768898
0.057930443
0.057734205
0.056990279
0.056732766
0.05742518
0.059333114
0.062375287
0.066541363
0.071088465
0.076254335
-0.0098259659
0.021827649
0.037073323
0.052784321
0.061175824
0.063587507
0.062637695
0.060768067
0.059287383
0.058848927
0.059682921
0.061932478
0.065417402
0.070060462
0.074994919
0.080488017
-0.017087174
0.019320219
0.036365119
0.055858385
0.066921443
0.069998254
0.068334322
0.065233157
0.062439016
0.060726379
0.060423571
0.061609912
0.06435978
0.06841057
0.073613152
0.078994712
0.084849748
-0.026998232
0.015563245
0.03371022
0.057873551
0.072817094
0.077163221
0.07484727
0.07040804
0.066161855
0.063101869
0.061535869
0.061599826
0.063313981
0.066699329
0.071421638
0.077250659
0.083124819
0.089364571
-0.039942659
0.0080091873
0.028461164
0.058161545
0.078578546
0.085061339
0.082200296
0.076289328
0.070441221
0.065922797
0.063064995
0.061898325
0.062499011
0.064883846
0.069026673
0.074511447
0.081016242
0.08741617
0.093988171
-0.056372403
-0.0038155984
0.019659528
0.055859845
0.083801701
0.093640052
0.090401893
0.082870956
0.075227557
0.069136768
0.064946845
0.062559352
0.061938599
0.063209746
0.066399134
0.071411252
0.077734414
0.08494528
0.091893577
0.098689325
-0.072762709
-0.021035778
0.0065291524
0.049713228
0.087898528
0.1028023
0.099434662
0.09012874
0.080465453
0.072643166
0.067102975
0.063531118
0.061715442
0.061737599
0.063807952
0.06793551
0.073918472
0.081138058
0.089068292
0.096563812
0.10368214
-0.08450744
-0.041630325
-0.010498384
0.038453772
0.089942465
0.11235333
0.1092304
0.098012837
0.086084263
0.076324984
0.069397398
0.064739643
0.061814774
0.060592488
0.061354187
0.064367157
0.069567794
0.076609891
0.084762049
0.09340824
0.10140408
0.10901379
-0.091081186
-0.066889661
-0.033004096
0.021492762
0.089010275
0.12196213
0.11962742
0.10642125
0.09200379
0.080047517
0.071662223
0.066047211
0.062198282
0.059815336
0.059209863
0.060845522
0.064966072
0.071371138
0.07954217
0.088637399
0.097976333
0.1064217
0.11436168
-0.094131022
-0.096407745
-0.064894446
-0.0026501912
0.084090738
0.13121126
0.13034948
0.11517708
0.098119238
0.083673596
0.073698881
0.067276298
0.062765877
0.059430343
0.05748274
0.057585375
0.060282268
0.065691731
0.07342031
0.082764603
0.092788621
0.102782
0.11163689
0.11970814
-0.096351412
-0.12536557
-0.10330324
-0.031742062
0.07338718
0.13926585
0.14087143
0.12398897
0.10430286
0.087070215
0.075282728
0.068209848
0.063377009
0.05940996
0.05627436
0.05476152
0.055762358
0.059756269
0.06663863
0.07578745
0.086316653
0.097235347
0.10781777
0.11701335
0.1252299
-0.096164028
-0.1531174
-0.14164144
-0.061548873
0.055981926
0.14503207
0.1499885
0.13236749
0.11028553
0.090093203
0.076181539
0.068589248
0.063846452
0.059689378
0.055650688
0.052554408
0.05163811
0.053823944
0.059380659
0.067905383
0.078537232
0.090228456
0.10198406
0.11306913
0.12255588
0.13089343
-0.092940609
-0.17797422
-0.17592753
-0.090802657
0.03189547
0.14812562
0.15602989
0.13936281
0.11581134
0.092406303
0.076074199
0.068131128
0.063950402
0.060159996
0.055647597
0.051126852
0.048158531
0.048165837
0.051895638
0.059284803
0.069589517
0.081721292
0.09452308
0.10702421
0.1185128
0.12823491
0.13662217
-0.0866444
-0.19821705
-0.20505934
-0.11753065
0.0056639625
0.1479408
0.15769748
0.14358542
0.12038937
0.094033674
0.075042595
0.066525249
0.063452637
0.060679647
0.056267847
0.050620614
0.045572619
0.043080094
0.044470432
0.050138822
0.05960686
0.071779265
0.085379124
0.099208549
0.11234376
0.12413245
0.13401914
0.14240428
-0.077333391
-0.21292654
-0.22782188
-0.13939002
-0.016986879
0.14162434
0.15411817
0.14377084
0.12332815
0.094687052
0.072446834
0.063631959
0.062116034
0.061068188
0.05748512
0.051154371
0.044116596
0.038881875
0.037426839
0.040742235
0.048739226
0.060485331
0.074544533
0.08954221
0.1042643
0.1179188
0.12990366
0.13988089
0.14821292
-0.065369389
-0.22194409
-0.24376241
-0.15525697
-0.034515661
0.12749126
0.14471517
0.13903276
0.12509189
0.094185256
0.067937812
0.058852445
0.059279688
0.061087649
0.059228022
0.052815284
0.044007608
0.035880987
0.031120115
0.031410063
0.037220529
0.047893994
0.062047936
0.077936655
0.094220203
0.10968779
0.12372215
0.13579683
0.14579179
0.15402227
-0.049720852
-0.22575418
-0.25336868
-0.16603881
-0.048861961
0.10752867
0.12979434
0.1291321
0.12240762
0.092293245
0.06108586
0.051731572
0.054749939
0.060384687
0.061379679
0.055648494
0.045424054
0.034369298
0.025908285
0.022506953
0.02532407
0.034174138
0.047798376
0.064400002
0.081992926
0.0993769
0.11544724
0.12971922
0.14178013
0.15172503
0.1598094
-0.029701947
-0.22401364
-0.25714342
-0.17314782
-0.060684431
0.084889204
0.11037096
0.11431619
0.11630157
0.088597439
0.051328014
0.041698152
0.048055666
0.058590856
0.063733319
0.059647467
0.048491332
0.034590337
0.022134962
0.01441045
0.013387362
0.019521027
0.031882797
0.048627412
0.067625783
0.086690126
0.105026
0.12150803
0.13587152
0.147821
0.15765358
0.16555282
-0.0058141428
-0.2168107
-0.25493118
-0.1767687
-0.069059369
0.062238289
0.087284522
0.095115209
0.10675042
0.082978258
0.038041639
0.027960904
0.038550318
0.055212364
0.066074903
0.064725701
0.053256611
0.036713864
0.020088582
0.007493608
0.0017733062
0.0042009695
0.014385017
0.030618389
0.050518368
0.07182297
0.091887211
0.11114994
0.12782064
0.14213869
0.1538874
0.16355178
0.17123256
0.021471594
-0.20387785
-0.24796641
-0.1774085
-0.074436385
0.041298907
0.062310135
0.072593607
0.093958518
0.074777127
0.020281245
0.0095308098
0.025369999
0.049591008
0.067934619
0.070725266
0.059676106
0.040804522
0.019966756
0.0020772596
-0.0091415984
-0.011482327
-0.0045486102
0.01030958
0.030617725
0.053577146
0.077088658
0.098153985
0.11766216
0.13433295
0.14848002
0.1599486
0.16939621
0.17683063
0.051730603
-0.18635677
-0.23512485
-0.17635425
-0.077853449
0.021353796
0.037430991
0.048446633
0.078303498
0.064046868
-0.0019838054
-0.014778428
0.0072838402
0.040732106
0.068790686
0.07732941
0.06757888
0.046795895
0.021836562
-0.0016131059
-0.019016425
-0.027185561
-0.024733225
-0.012320686
0.0076719568
0.032059142
0.057874807
0.082752447
0.10487755
0.12449141
0.1409919
0.15485596
0.165976
0.17516579
0.18233117
0.083042453
-0.16447991
-0.21750168
-0.17122945
-0.075913279
-0.002701747
0.013980584
0.023214778
0.06010718
0.051834901
-0.026782228
-0.043858198
-0.016647254
0.027288023
0.067791244
0.084049035
0.076634178
0.054460378
0.025600129
-0.0034946761
-0.027591166
-0.042570883
-0.045913808
-0.03728142
-0.018560549
0.0067894506
0.035074823
0.063348037
0.089362199
0.11204956
0.13156911
0.14774517
0.16122916
0.17194352
0.18084196
0.18772049
0.11285084
-0.13978241
-0.19649959
-0.16123323
-0.069050919
-0.023947375
-0.014867655
0.00074826516
0.039480263
0.038717389
-0.052693719
-0.078112425
-0.03974831
0.0088244661
0.063883382
0.090144347
0.086366461
0.063389327
0.030969343
-0.003665059
-0.034737492
-0.057345549
-0.067801656
-0.064483835
-0.048374822
-0.022738497
0.0078936363
0.039748868
0.06995202
0.096763446
0.11960692
0.1388268
0.15454274
0.16756528
0.177828
0.18640878
0.19298705
0.13926704
-0.11473112
-0.17348984
-0.14660679
-0.059962372
-0.044253459
-0.039753972
-0.029515299
0.017023697
0.022816763
-0.080893135
-0.1163982
-0.076495737
-0.01531094
0.056026409
0.094671731
0.095937545
0.072964556
0.037454363
-0.0024246508
-0.040499004
-0.071310585
-0.090098592
-0.093769984
-0.081942319
-0.057238307
-0.02440098
0.011159916
0.046031379
0.07763864
0.104823
0.12746814
0.14619718
0.16133804
0.17383353
0.18360927
0.19185279
0.19812145
0.15992
-0.091379337
-0.1495438
-0.12901076
-0.049778466
-0.061304738
-0.064802374
-0.054711313
-0.0094627221
0.0047390764
-0.10541363
-0.15602323
-0.11987697
-0.045906414
0.042487166
0.096129493
0.10429065
0.08234764
0.044363192
-0.00027550034
-0.045111454
-0.084399938
-0.11253508
-0.12490929
-0.11936153
-0.097233609
-0.063145849
-0.023168961
0.016554428
0.053832949
0.086305091
0.11339914
0.13554393
0.15361639
0.16808895
0.18000697
0.1892702
0.19716295
0.20311623
0.17332482
-0.070437787
-0.12475089
-0.10935432
-0.038774225
-0.075278739
-0.087534176
-0.081515064
-0.03527075
-0.0091336095
-0.1278651
-0.1925523
-0.16366865
-0.080069113
0.022836667
0.092704226
0.10992912
0.090473216
0.050840367
0.0021014412
-0.048993453
-0.096698739
-0.13489787
-0.1576089
-0.16061304
-0.14324409
-0.10927108
-0.065477133
-0.018639937
0.023599395
0.063185259
0.095767111
0.12235364
0.14374547
0.16102567
0.17475828
0.18606254
0.19479662
0.20233052
0.20796582
-0.051301585
0.17824589
-0.099240056
-0.087677676
-0.028749702
-0.086371466
-0.10776054
-0.10697643
-0.059981499
-0.019590089
-0.14444936
-0.22929397
-0.20690797
-0.11450865
-0.0014660519
0.083998157
0.11118611
0.096084944
0.055881686
0.0038927892
-0.052717411
-0.10843862
-0.15704826
-0.19151861
-0.20551897
-0.19568029
-0.16391588
-0.11703237
-0.063692576
-0.010447123
0.034176175
0.073730656
0.10582994
0.13155365
0.15198937
0.16837269
0.18131405
0.19198107
0.20017724
0.20734891
0.21266627
-0.074937226
-0.035977923
0.17641814
-0.065518977
-0.020860471
-0.093156354
-0.12465578
-0.12920905
-0.082109961
-0.032041589
-0.16229087
-0.25713506
-0.25152817
-0.15031456
-0.030208413
0.069967874
0.10766462
0.09753812
0.058366272
0.0041972622
-0.05694854
-0.11996901
-0.17892731
-0.22624396
-0.25371617
-0.25476291
-0.22819776
-0.17982709
-0.11954999
-0.057531206
-0.00098071341
0.046077951
0.085187902
0.1163053
0.14087599
0.16020055
0.17561215
0.18772951
0.19774721
0.20540348
0.21221342
0.21721498
-0.046412634
-0.053305688
-0.023665052
0.17006127
-0.014362659
-0.094558598
-0.13685222
-0.14738643
-0.099850796
-0.049032834
-0.17603299
-0.28765782
-0.28903611
-0.18653636
-0.063036317
0.050668721
0.099166883
0.094163795
0.057062624
0.0021266599
-0.062381405
-0.13168833
-0.20051221
-0.26131593
-0.30456577
-0.32041719
-0.30313728
-0.256022
-0.18932916
-0.11600982
-0.04753207
0.011581075
0.059247157
0.097293244
0.12701621
0.15021035
0.16831372
0.18270605
0.19398321
0.2033493
0.2104691
0.2169208
0.22161056
-0.0079862867
-0.030759505
-0.035677132
-0.01258919
0.16053077
-0.091629118
-0.14416893
-0.16118955
-0.1146768
-0.069230924
-0.1861276
-0.31157984
-0.33371992
-0.22325739
-0.095973654
0.028840883
0.085571077
0.085589596
0.051009709
-0.003152352
-0.069650916
-0.14399009
-0.22178899
-0.29614983
-0.3571094
-0.39195272
-0.38941868
-0.34796976
-0.2765855
-0.19074747
-0.10620892
-0.03330437
0.026493528
0.073401219
0.10979809
0.1378028
0.1594611
0.17627412
0.18962391
0.20005882
0.20877869
0.21536944
0.22146909
0.22585291
-0.08542292
-0.001423378
-0.018559289
-0.022334474
-0.0018653786
0.14768607
-0.14640882
-0.16997306
-0.1279623
-0.088598616
-0.19271594
-0.33023253
-0.36925642
-0.27309778
-0.12678621
0.0058419342
0.06909395
0.072414223
0.039394681
-0.012318489
-0.079291058
-0.1571834
-0.24274069
-0.33013085
-0.41013763
-0.46823935
-0.48710105
-0.45794367
-0.3857431
-0.28676713
-0.18328762
-0.091194848
-0.015918987
0.043119692
0.08820744
0.12247268
0.14852594
0.16854837
0.18403788
0.19634248
0.20594409
0.21402866
0.22010123
0.22585801
0.22994344
-0.14365123
-0.076983178
0.0049949071
-0.0085085271
-0.011987202
0.0080188064
0.13137562
-0.17336198
-0.13772134
-0.10493099
-0.19347943
-0.3417971
-0.40090318
-0.31771173
-0.15914754
-0.029775449
0.051054165
0.053911462
0.022943329
-0.026087035
-0.091612584
-0.17149572
-0.26326765
-0.36259815
-0.46218678
-0.54732419
-0.59559565
-0.58792166
-0.52209735
-0.41085548
-0.28415806
-0.16759798
-0.071125073
0.0040026222
0.060866346
0.1033349
0.13511451
0.1590693
0.17740846
0.19157165
0.20284438
0.21162934
0.21909418
0.22466366
0.23008962
0.23388454
-0.17093
-0.13639972
-0.066317695
0.011157669
0.00049994275
-0.001951192
0.016509251
0.1126567
-0.14197392
-0.1176193
-0.18605638
-0.34464573
-0.42133367
-0.35356905
-0.19299746
-0.067373001
0.01611004
0.034863474
-0.00036545131
-0.044329003
-0.10691424
-0.18695278
-0.28323626
-0.39284836
-0.51150635
-0.62641816
-0.71205837
-0.73818296
-0.69074075
-0.57242233
-0.41732361
-0.26871928
-0.14418112
-0.047067384
0.025664162
0.07920024
0.11848412
0.1475535
0.16934034
0.18599317
0.1988506
0.20911583
0.21710715
0.22397389
0.22905973
0.234167
0.23767765
-0.13998035
-0.16292416
-0.12503001
-0.053114993
0.017841355
0.0088277197
0.009232406
0.02544731
0.092130085
-0.12340057
-0.1716738
-0.33702544
-0.43024152
-0.37865689
-0.22657364
-0.10952797
-0.016230129
0.0026380867
-0.025090193
-0.067766647
-0.12501059
-0.20359957
-0.30235328
-0.42031942
-0.55627089
-0.70262576
-0.8332633
-0.90935271
-0.89741407
-0.78396694
-0.59638947
-0.4035803
-0.24154683
-0.11473506
-0.020248468
0.048281985
0.097655755
0.13340239
0.15965443
0.17926932
0.19426698
0.20585543
0.21514642
0.22237543
0.2286723
0.23329386
0.23809052
0.24132236
-0.1206434
-0.13185149
-0.14925094
-0.11121329
-0.038554182
0.025784584
0.017043244
0.019867345
0.035567634
0.07192492
-0.15389087
-0.31809611
-0.42594214
-0.39182136
-0.25621883
-0.15107532
-0.057809272
-0.026669776
-0.058831722
-0.093038208
-0.14654878
-0.22094279
-0.32054362
-0.44439369
-0.59495234
-0.77267212
-0.95449102
-1.101618
-1.15462
-1.0685637
-0.84667157
-0.5895813
-0.37298781
-0.20537615
-0.081007648
0.0081145813
0.071160644
0.11584762
0.14788932
0.17131575
0.18880545
0.20220318
0.21257213
0.22093333
0.22744061
0.23319561
0.2373643
0.24185635
0.24482042
-0.13284947
-0.11092823
-0.11724963
-0.13083485
-0.095539313
-0.024822414
0.034387306
0.025659515
0.029538176
0.046563298
0.053841904
-0.2884169
-0.40752805
-0.3929718
-0.27739193
-0.1895071
-0.10413231
-0.069834489
-0.074395989
-0.12347026
-0.16894123
-0.23956316
-0.33715449
-0.46494469
-0.62640654
-0.83307146
-1.0688737
-1.3017853
-1.4524957
-1.4329813
-1.194066
-0.85615316
-0.55549746
-0.32840845
-0.16246434
-0.0448573
0.036955379
0.093724008
0.133475
0.16179543
0.18246457
0.1979121
0.20978352
0.21899724
0.22648531
0.23231111
0.2375391
0.24126015
0.24546564
0.24818338
-0.2499641
-0.10779314
-0.096310587
-0.096623581
-0.10865996
-0.077944942
-0.012188804
0.042686941
0.034736835
0.038132685
0.058587364
0.038861618
-0.37549124
-0.38122339
-0.28834126
-0.22430799
-0.15472783
-0.12100235
-0.12074746
-0.14607238
-0.19244381
-0.2568645
-0.35310913
-0.48106861
-0.65061008
-0.88097443
-1.1699852
-1.4939573
-1.7692844
-1.8344579
-1.6075007
-1.2062192
-0.81600937
-0.50079135
-0.27253328
-0.11561102
-0.0079206352
0.065404713
0.11552627
0.15031659
0.17501528
0.19305077
0.20656629
0.21700423
0.2251422
0.23181324
0.23697862
0.24168299
0.24498001
0.24893946
0.25158136
-0.33219197
-0.20401327
-0.080583937
-0.078670409
-0.072966533
-0.083749596
-0.057945735
0.00028897284
0.050605598
0.044303449
0.044303052
0.069298713
0.02647199
-0.35588521
-0.2917113
-0.25060846
-0.20483219
-0.17996306
-0.17959813
-0.18399209
-0.20684273
-0.27080505
-0.36532882
-0.4944871
-0.66656878
-0.91349011
-1.2535359
-1.6608056
-2.0864653
-2.2739037
-2.1076409
-1.6707978
-1.1878301
-0.75809684
-0.42943197
-0.21032168
-0.067501549
0.028491806
0.092799883
0.1362432
0.16621963
0.1874802
0.20304623
0.21476472
0.22387979
0.2310205
0.23690507
0.24141285
0.24562418
0.2485626
0.25243772
0.25505837
-0.3180215
-0.27706447
-0.15418627
-0.052065678
-0.05763487
-0.049204143
-0.057704624
-0.036572874
0.012843486
0.058140689
0.054069557
0.049166763
0.077641831
0.016432951
-0.28423639
-0.25805401
-0.25123178
-0.24254726
-0.25048888
-0.24006585
-0.23353591
-0.27156255
-0.37053564
-0.50077234
-0.67746153
-0.92992852
-1.3060927
-1.786461
-2.3756644
-2.7268852
-2.6468441
-2.1970633
-1.6412289
-1.120638
-0.67157808
-0.34671847
-0.1465614
-0.02016015
0.063406035
0.1186682
0.15565502
0.18109009
0.19915661
0.21244937
0.22252517
0.23042613
0.23661685
0.24172053
0.24560921
0.24942579
0.25216907
0.25597476
0.25852578
-0.26232793
-0.27075799
-0.22128418
-0.10454578
-0.022872253
-0.033644923
-0.02619393
-0.032144232
-0.015794163
0.025640842
0.065253001
0.063025297
0.055232066
0.084096942
0.0082302819
-0.25095645
-0.29092712
-0.30430488
-0.33183305
-0.31188848
-0.27665743
-0.28159553
-0.35592386
-0.49705286
-0.67611771
-0.93631118
-1.3323808
-1.8710039
-2.611511
-3.1560697
-3.2147847
-2.7743454
-2.1047257
-1.4740494
-0.96178492
-0.55365045
-0.26153279
-0.084223975
0.024993533
0.096156592
0.14269896
0.17363365
0.19488925
0.21004677
0.22128152
0.22986569
0.2366265
0.2418836
0.24625553
0.24966056
0.25325352
0.25575766
0.25951383
0.26197802
-0.23686036
-0.22878979
-0.22059298
-0.16616629
-0.05901751
0.0066381672
-0.0086603113
-0.0048241826
-0.0077438366
0.0041038426
0.038748826
0.071954304
0.071511733
0.063017387
0.088531837
0.00029308805
-0.31611245
-0.36203515
-0.42242971
-0.39795568
-0.33454273
-0.30341465
-0.3497742
-0.4635344
-0.66187866
-0.92309654
-1.3400852
-1.9297027
-2.7688974
-3.5188774
-3.7702849
-3.4048509
-2.655552
-1.8633764
-1.2417642
-0.78882072
-0.43331525
-0.17814089
-0.025306291
0.067036127
0.12632417
0.16472356
0.19013702
0.2076267
0.22017581
0.22956223
0.23677152
0.24243234
0.24682055
0.25063392
0.25374282
0.2569818
0.25936728
0.26304304
0.26541312
-0.32327792
-0.21790548
-0.18825626
-0.16978445
-0.11325583
-0.018604906
0.035206064
0.016533625
0.014485229
0.014935909
0.023042898
0.050648956
0.079094522
0.080388726
0.072679715
0.092324793
-0.0090819539
-0.41406968
-0.51675247
-0.49405828
-0.40617084
-0.33389828
-0.35354126
-0.43936228
-0.60317747
-0.8898932
-1.3136695
-1.9561099
-2.8280267
-3.7766586
-4.2553613
-4.0381531
-3.2827708
-2.3491218
-1.5537616
-1.0028743
-0.61867082
-0.31692778
-0.099614338
0.028966466
0.10539956
0.15368632
0.18470291
0.20518847
0.21933188
0.22956372
0.23728487
0.24320509
0.24785302
0.25157998
0.25502951
0.25762972
0.26074583
0.26297429
0.26656123
0.268828
-0.45731528
-0.31757338
-0.19433383
-0.1447605
-0.11920507
-0.063635077
0.017385769
0.061512491
0.041055618
0.032669469
0.036227493
0.038050682
0.061908035
0.086622722
0.089623075
0.083885869
0.098575943
-0.019401339
-0.60424088
-0.59551539
-0.48608057
-0.37186013
-0.36272188
-0.42582275
-0.55602589
-0.79450171
-1.2364669
-1.9417617
-2.8136442
-3.9182978
-4.6185049
-4.6039427
-3.9271172
-2.9146141
-1.9499383
-1.2398579
-0.78010278
-0.4620872
-0.20893914
-0.027661944
0.077965243
0.13978308
0.17820173
0.20268377
0.21882324
0.23002406
0.23822221
0.24444283
0.24919465
0.25305883
0.25631968
0.25911454
0.26157067
0.26450637
0.26657927
0.2700639
0.27221997
-0.67469451
-0.48653181
-0.30083869
-0.16537807
-0.10286823
-0.070900105
-0.018941898
0.049156424
0.08411328
0.063164881
0.050690029
0.051965608
0.053219596
0.072570902
0.094131792
0.099262614
0.095662853
0.10912765
-0.027717014
-0.70192845
-0.5694044
-0.41759855
-0.37526371
-0.41582465
-0.52254984
-0.71493053
-1.0795781
-1.7914512
-2.7644436
-3.931986
-4.8372342
-5.0401998
-4.5148447
-3.5053721
-2.4148977
-1.5426536
-0.95641815
-0.58494592
-0.32271981
-0.1112754
0.037063768
0.12143659
0.1701601
0.19994667
0.2187076
0.2310584
0.23974886
0.24620675
0.25109715
0.25490804
0.25815402
0.26062818
0.26327139
0.2655058
0.26826839
0.27017502
0.27354743
0.27558618
-0.7814144
-0.72106513
-0.4975575
-0.27681067
-0.13473811
-0.065525191
-0.028103144
0.01847181
0.075404538
0.10197504
0.080497179
0.064796395
0.066718368
0.067130221
0.083755017
0.10198543
0.10916133
0.10769525
0.12197885
-0.032029529
-0.65081511
-0.4669066
-0.39024176
-0.40684743
-0.49226531
-0.65456502
-0.94696025
-1.5352652
-2.5043642
-3.8671279
-4.8879476
-5.3055658
-4.9709682
-4.0518846
-2.9058527
-1.8984259
-1.179247
-0.71587816
-0.41739712
-0.20017789
-0.024605321
0.094313588
0.15937884
0.19669728
0.2189725
0.23278608
0.24199605
0.24867015
0.25363176
0.2573771
0.26034126
0.26270056
0.26502385
0.26741684
0.2694456
0.27202276
0.27375656
0.27700792
0.27892379
-0.7141652
-0.83145899
-0.73630889
-0.49353378
-0.2497793
-0.10541999
-0.033828741
0.0072857209
0.048709742
0.095452166
0.11479997
0.093239283
0.077631719
0.07954315
0.080330871
0.094357444
0.11010923
0.11908757
0.11953296
0.13433767
-0.032560139
-0.51298068
-0.40450605
-0.39873064
-0.46162235
-0.59934547
-0.84258181
-1.3127948
-2.1656838
-3.4613496
-4.8211921
-5.3824565
-5.2422974
-4.4744708
-3.3628098
-2.2756939
-1.4398168
-0.87835004
-0.51587497
-0.27337742
-0.093195699
0.05144012
0.14351024
0.19215262
0.21949898
0.23528823
0.24510972
0.25197441
0.25698514
0.26053104
0.26308165
0.26513659
0.26734454
0.26939991
0.27156813
0.2733782
0.27576426
0.27731817
0.280442
0.28222999
-0.54679037
-0.74885748
-0.8432984
-0.72339797
-0.47643898
-0.2220701
-0.078992208
-0.0069669477
0.035187214
0.071849181
0.10922071
0.12458968
0.10213691
0.088696231
0.091150334
0.092312732
0.10440966
0.11834842
0.12893829
0.13076153
0.14507071
-0.028727277
-0.41457287
-0.38989135
-0.43115323
-0.54411058
-0.75019131
-1.1297456
-1.8523029
-3.0088447
-4.3843719
-5.3367965
-5.3588051
-4.7394218
-3.7203839
-2.6326457
-1.716477
-1.0671015
-0.63601321
-0.34829117
-0.14873975
-0.00030073936
0.11697904
0.18519887
0.21989255
0.23856969
0.24921993
0.25628305
0.2613148
0.26454714
0.266379
0.26812088
0.27002593
0.27196063
0.2737807
0.27571061
0.27729814
0.27948649
0.28085445
0.28384717
0.28550235
-0.41975605
-0.56361487
-0.74914644
-0.81896636
-0.68599295
-0.44871545
-0.19544305
-0.056491469
0.014100846
0.054906047
0.087549201
0.12122736
0.12938835
0.10959065
0.098805749
0.10096174
0.10314075
0.11381778
0.12654318
0.13846432
0.14107081
0.15397718
-0.020782078
-0.37747273
-0.40047628
-0.49012251
-0.66146369
-0.97306959
-1.5584703
-2.5686401
-3.9235396
-4.9541434
-5.3426022
-4.8960098
-3.9667827
-2.934192
-1.983723
-1.267384
-0.77578421
-0.43898883
-0.2054564
-0.04102743
0.080127882
0.17117873
0.21967015
0.24250164
0.25440547
0.2617602
0.26680772
0.2695696
0.27032453
0.27164886
0.27322775
0.27487997
0.27657862
0.27814889
0.27983901
0.28119821
0.28318378
0.28436026
0.28722053
0.28873883
-0.3584945
-0.41904046
-0.55943072
-0.71769924
-0.76386458
-0.62992095
-0.4129259
-0.172148
-0.03880903
0.028943036
0.067969513
0.10191155
0.12682653
0.13320906
0.11575709
0.10742861
0.10925698
0.1125779
0.12253477
0.13447963
0.14733591
0.14998567
0.16071888
-0.010076242
-0.36675511
-0.43690202
-0.5768462
-0.83259723
-1.2981773
-2.1277083
-3.386014
-4.5944119
-5.1160146
-4.9484547
-4.1494702
-3.1599228
-2.220718
-1.4663061
-0.92576076
-0.54579131
-0.27488527
-0.082639196
0.051653312
0.14910985
0.21523109
0.24691008
0.26066792
0.26852907
0.27366183
0.27577071
0.27495449
0.27579898
0.27691983
0.27829781
0.27973007
0.28117887
0.28249983
0.28394586
0.28507225
0.28685071
0.28783007
0.29055699
0.29193864
-0.32860433
-0.32988564
-0.40208954
-0.52948717
-0.65969645
-0.68594933
-0.56144096
-0.37216446
-0.15415147
-0.025108289
0.039462736
0.081355494
0.11092869
0.13251162
0.13505426
0.12108229
0.11443485
0.1164672
0.12082931
0.13048776
0.14192699
0.15519859
0.1570823
0.16490627
0.00092635546
-0.3826717
-0.49666726
-0.70374885
-1.0777766
-1.7307617
-2.8117538
-4.0507728
-4.8707377
-4.8400685
-4.2497919
-3.3202653
-2.4140929
-1.6550972
-1.0807092
-0.66419919
-0.35777475
-0.13521641
0.023724608
0.13190672
0.20631771
0.24954181
0.2680321
0.27665512
0.28203508
0.28332954
0.28030842
0.2805983
0.2811441
0.28216375
0.28335512
0.28455579
0.28575736
0.28682637
0.28802513
0.28891371
0.29047957
0.29125947
0.2938527
0.29509975
-0.32636693
-0.2852138
-0.29329205
-0.36351724
-0.47610189
-0.58150546
-0.59394675
-0.48645389
-0.32824543
-0.13651932
-0.013300587
0.052169303
0.090552411
0.11807742
0.13471384
0.13598138
0.12539289
0.12032499
0.12276336
0.12803491
0.13761839
0.14864028
0.16170296
0.16204364
0.16607146
0.010571882
-0.41904821
-0.5858722
-0.88428578
-1.4035658
-2.2797321
-3.4426048
-4.4145152
-4.7694706
-4.2648393
-3.4106641
-2.5570045
-1.8179184
-1.2388746
-0.79178922
-0.45494206
-0.19930971
-0.013803392
0.11618216
0.19958258
0.25012341
0.27539727
0.28629656
0.29205832
0.29237499
0.28640856
0.28607491
0.28588513
0.28649229
0.28738193
0.28838119
0.28935399
0.29030788
0.29112322
0.29206914
0.29271217
0.29406427
0.29464766
0.29710432
0.29822073
-0.34256688
-0.26766375
-0.23716129
-0.24876883
-0.31090202
-0.40777836
-0.49095342
-0.49596419
-0.40895207
-0.28186438
-0.11464269
0.0019572526
0.062827139
0.0986026
0.12236506
0.13562038
0.13624538
0.12871159
0.12529817
0.12828911
0.13431007
0.14385669
0.15437704
0.16653254
0.16468131
0.16404897
0.019090473
-0.47712058
-0.71262393
-1.1237756
-1.8179094
-2.8282687
-3.8622107
-4.4664833
-4.3547679
-3.5262647
-2.6532068
-1.9328009
-1.3825205
-0.92972542
-0.56448543
-0.27972451
-0.062794944
0.092445664
0.192378
0.25248109
0.28217594
0.29704857
0.30401368
0.30305087
0.29320248
0.29224743
0.29111628
0.29123722
0.29179619
0.29256306
0.2933734
0.29412043
0.29482641
0.29538135
0.29606312
0.29646295
0.29760306
0.29799007
0.30030877
0.30130054
-0.37513491
-0.26691125
-0.20762041
-0.18516991
-0.19732296
-0.25076687
-0.33281263
-0.3955226
-0.39934268
-0.3336465
-0.23116702
-0.090870548
0.01936478
0.07292414
0.10466478
0.12516819
0.13573265
0.13634607
0.13136793
0.12952788
0.13315147
0.13972308
0.14912424
0.15890426
0.1694339
0.16494635
0.15885
0.027599798
-0.56061775
-0.88108613
-1.4244181
-2.2576341
-3.2401842
-4.0114952
-4.2203298
-3.7236427
-2.8433883
-2.0195219
-1.4855596
-1.0611787
-0.68762884
-0.37570418
-0.12812136
0.056662841
0.18058712
0.25032292
0.28887455
0.30836036
0.31779194
0.31571733
0.30064529
0.29907955
0.29678852
0.29633425
0.29651868
0.2970606
0.29770431
0.2983307
0.2988533
0.29930172
0.29958069
0.30000483
0.30016652
0.30109096
0.30128196
0.30346311
0.30433806
-0.42473636
-0.27844704
-0.19318333
-0.14695596
-0.13064898
-0.14240185
-0.18778525
-0.2595573
-0.30689688
-0.31118109
-0.25598194
-0.18955927
-0.058895115
0.034902059
0.081631816
0.10958869
0.12699895
0.13561846
0.13644445
0.13369145
0.13311728
0.13747014
0.14430087
0.15332987
0.16201162
0.17022263
0.16273603
0.14957883
0.034928197
-0.6722159
-1.0918797
-1.7555385
-2.6231453
-3.4503473
-3.9027995
-3.7516186
-3.0510876
-2.2694346
-1.5773832
-1.1609704
-0.81023484
-0.48746447
-0.21220502
0.0059595083
0.15899456
0.24702874
0.29477186
0.32034282
0.3328372
0.33041261
0.30896515
0.30649262
0.30280344
0.30168876
0.30144455
0.30176463
0.30228078
0.30280959
0.30325436
0.30353844
0.30370608
0.30372488
0.30389585
0.30381774
0.30452212
0.30451852
0.30656463
0.30733106
-0.4926601
-0.30118306
-0.18798749
-0.12202965
-0.086864699
-0.075680572
-0.087255877
-0.12540489
-0.18740493
-0.22997736
-0.22857196
-0.19760177
-0.13820037
-0.030437075
0.048893108
0.089462842
0.11359367
0.12835545
0.13551488
0.13673785
0.13587526
0.13642957
0.14126591
0.14804676
0.15637484
0.16351662
0.16874725
0.1577491
0.13911788
0.040622871
-0.81309549
-1.3291864
-2.0538126
-2.8490076
-3.4480634
-3.5848279
-3.1687776
-2.4958333
-1.8429687
-1.2591708
-0.91128712
-0.60322645
-0.31451704
-0.065675134
0.12317971
0.23886818
0.29844625
0.33405416
0.34928242
0.34643012
0.31833047
0.31456266
0.30901475
0.30715723
0.30642959
0.30653455
0.30696565
0.30746799
0.30788434
0.30812603
0.30813828
0.3080528
0.30781664
0.30773204
0.30740829
0.30788916
0.30769765
0.30961053
0.31027662
-0.58078309
-0.33580758
-0.19012446
-0.10394018
-0.05424636
-0.028786751
-0.02247228
-0.034052222
-0.0666894
-0.11679695
-0.16069837
-0.1693648
-0.13709044
-0.091272601
-0.0026164332
0.061562603
0.096395177
0.11706411
0.12952109
0.13562882
0.1372964
0.13778761
0.1396393
0.14449826
0.15090916
0.15815671
0.16327599
0.16493605
0.1501527
0.12834435
0.044781589
-0.97594872
-1.5573025
-2.2663175
-2.9168221
-3.2649973
-3.1412001
-2.6666382
-2.0643426
-1.5165981
-1.0171057
-0.70466163
-0.42419839
-0.15912363
0.066540569
0.21716745
0.29697
0.34302907
0.36736763
0.36316033
0.32805401
0.32349862
0.31536197
0.3125419
0.3112784
0.31118332
0.31158533
0.31214353
0.31263288
0.31290462
0.31289535
0.31268123
0.31234514
0.31185313
0.31150304
0.31092664
0.31118899
0.31082167
0.31259794
0.31317442
-0.68757017
-0.38503002
-0.20040365
-0.090654649
-0.026520416
0.0092285011
0.025897252
0.027694124
0.015286902
-0.012258683
-0.055084787
-0.11018389
-0.11056301
-0.086176662
-0.045903982
0.021969808