/*--------------------------------*- C++ -*----------------------------------*\
| =========                 |                                                 |
| \\      /  F ield         | OpenFOAM: The Open Source CFD Toolbox           |
|  \\    /   O peration     | Version:  v2012                                 |
|   \\  /    A nd           | Website:  www.openfoam.com                      |
|    \\/     M anipulation  |                                                 |
\*---------------------------------------------------------------------------*/
FoamFile
{
    version     2.0;
    format      ascii;
    class       surfaceScalarField;
    location    "45.4230374874372984";
    object      phi;
}
// * * * * * * * * * * * * * * * * * * * * * * * * * * * * * * * * * * * * * //

dimensions      [0 3 -1 0 0 0 0];
oriented        oriented;


internalField   nonuniform List<scalar> 
18180
(
9.4094831e-05
-3.554326
0.00017217002
-3.3254134
-0.00092573375
-3.5475706
0.00028056852
-3.1123592
-0.0019268655
-3.3190949
-0.0013152805
-3.5408534
0.00047009022
-2.9142514
-0.0030164859
-3.1064792
-0.0027349993
-3.3127635
-0.0016085086
-3.5342992
0.00078366294
-2.7297232
-0.0042489986
-2.9087165
-0.0043296486
-3.1004611
-0.0033578673
-3.306408
-0.0016862707
-3.5279391
0.0013390056
-2.5578524
-0.0056428771
-2.724369
-0.0062076225
-2.9027891
-0.0053492164
-3.0941891
-0.0035326057
-3.3001601
-0.0015861032
-3.5220136
0.0022445136
-2.3976655
-0.0071752145
-2.5526109
-0.0084392629
-2.718387
-0.007745483
-2.8964123
-0.0056595794
-3.0878752
-0.0033334571
-3.2942424
-0.0013287324
-3.5165629
0.0036741484
-2.2484412
-0.0088150857
-2.3925335
-0.011085316
-2.5464471
-0.01066592
-2.7117493
-0.0082617001
-2.8898376
-0.0053697115
-3.0818003
-0.0028112109
-3.2888108
-0.00095141475
-3.5117817
0.0058185481
-2.1094259
-0.010484822
-2.2434625
-0.014193945
-2.3860833
-0.014239799
-2.5393788
-0.011484592
-2.7047734
-0.0078963023
-2.8834087
-0.0045620683
-3.0762185
-0.0020478774
-3.2840456
-0.00050900024
-3.5076896
0.0089207196
-1.9799615
-0.012078856
-2.1046927
-0.017802882
-2.2366662
-0.018596167
-2.3784148
-0.015498255
-2.5318219
-0.011061641
-2.6978779
-0.0067699757
-2.8774912
-0.0033748132
-3.0713325
-0.0011428247
-3.2800064
-5.607869e-05
-3.5043527
0.013258509
-1.8594201
-0.013445088
-1.9756181
-0.021939744
-2.0975131
-0.023878203
-2.2282277
-0.020477599
-2.370101
-0.015042478
-2.5243193
-0.0095672636
-2.6915151
-0.0050875703
-2.8723257
-0.0019613765
-3.0672331
-0.00020640984
-3.2767233
0.00037499134
-3.5016681
0.019153533
-1.7472162
-0.014383072
-1.8556631
-0.026619007
-1.9680385
-0.030244653
-2.0881293
-0.026625841
-2.2189265
-0.020015607
-2.3618072
-0.013110967
-2.5173845
-0.007295922
-2.6859926
-0.0030703603
-2.8680509
-0.00047083781
-3.0639552
0.00070521355
-3.2741595
0.00074018809
-3.4996056
0.026966401
-1.6427924
-0.014639652
-1.7442951
-0.031841858
-1.8476832
-0.037876842
-1.9575188
-0.034175653
-2.0775809
-0.026182679
-2.2096387
-0.017545989
-2.3541972
-0.010124275
-2.511424
-0.0045620811
-2.6814687
-0.00092971062
-2.8646948
0.00097253862
-3.0614665
0.001518167
-3.2722888
0.0010366834
-3.4980423
0.037091874
-1.5456187
-0.013900892
-1.6410185
-0.037591697
-1.7359321
-0.046982205
-1.8358171
-0.043403978
-1.9454353
-0.033767358
-2.0670683
-0.023025044
-2.201212
-0.013673072
-2.3477341
-0.0065257587
-2.5066005
-0.0016562835
-2.6779757
0.0011544399
-2.8622456
0.0022779059
-3.059712
0.0021732944
-3.2709921
0.0012528788
-3.4969256
0.049947977
-1.4551847
-0.011784829
-1.5453708
-0.043833222
-1.6323072
-0.057796904
-1.7224819
-0.054638957
-1.8218597
-0.043029688
-1.9334116
-0.029698352
-2.0576524
-0.018029889
-2.1941659
-0.0090249105
-2.3425686
-0.0027109439
-2.5029191
0.0011755097
-2.6754833
0.0030457057
-2.8606247
0.0033539689
-3.0586037
0.0026510886
-3.2701637
0.0013798048
-3.496108
0.06598873
-1.3710155
-0.0078482846
-1.4569027
-0.050512979
-1.5363632
-0.070584241
-1.6170073
-0.068269723
-1.7062552
-0.05427191
-1.8080041
-0.037720008
-1.9228248
-0.023252621
-2.0499463
-0.012093358
-2.1886306
-0.0041360959
-2.3386759
0.0010088702
-2.5003643
0.0037747834
-2.6739446
0.0046402386
-2.8597538
0.0041609002
-3.0580276
0.0029387938
-3.2696811
0.0014130822
-3.4955142
0.085657646
-1.2926161
-0.001605283
-1.3751811
-0.057571963
-1.4476552
-0.085640707
-1.5189146
-0.084752528
-1.5980506
-0.067849598
-1.6901997
-0.04724634
-1.7960655
-0.029365899
-1.9144108
-0.015718228
-2.0440615
-0.0059394133
-2.1845324
0.00060184837
-2.3360002
0.0044270773
-2.4988599
0.0059996059
-2.6732677
0.0058776607
-2.8595228
0.0046792061
-3.05788
0.0030339483
-3.26944
0.0013553076
-3.4950112
0.10937114
-1.2195478
0.0076561848
-1.2999363
-0.064866031
-1.3658345
-0.10327968
-1.427741
-0.10461211
-1.4966991
-0.084179585
-1.5793699
-0.058438851
-1.6767291
-0.036352292
-1.7869345
-0.019828383
-1.9082239
-0.0080782545
-2.0397921
-4.9249677e-05
-2.1817374
0.0049530544
-2.3344814
0.0073990508
-2.4983366
0.0077826604
-2.6733529
0.0067294349
-2.8598294
0.0049080488
-3.0580427
0.0029458141
-3.2693277
0.0012152453
-3.4945307
0.13702697
-1.1510605
0.020576287
-1.2306569
-0.072173431
-1.2907073
-0.12378797
-1.3431635
-0.12843489
-1.4016764
-0.10374382
-1.4749054
-0.07146391
-1.5641888
-0.044145748
-1.6669243
-0.024282692
-1.7805611
-0.01044534
-1.9039012
-0.00092077019
-2.0369281
0.0053172699
-2.1801752
0.0087744859
-2.3340469
0.0098488101
-2.4987001
0.0090878409
-2.6740965
0.0071919506
-2.8605492
0.0048613987
-3.0584117
0.0026934503
-3.2692483
0.0010055298
-3.4939631
0.16617717
-1.0855378
0.036879498
-1.1656764
-0.079697235
-1.2213363
-0.14739892
-1.2650415
-0.15686501
-1.3126018
-0.12709138
-1.3762161
-0.086491133
-1.4578347
-0.052624444
-1.5538171
-0.028859744
-1.6605696
-0.012855918
-1.7763617
-0.0019260835
-1.9010573
0.0055058792
-2.0353188
0.010057832
-2.17977
0.012002467
-2.3346134
0.011738988
-2.4998545
0.0099070007
-2.6753822
0.0072799526
-2.8615705
0.0045641746
-3.0588786
0.0023027786
-3.2691194
0.00074258792
-3.4932628
0.19468746
-1.019944
0.054927172
-1.1020146
-0.088973137
-1.154722
-0.17481057
-1.1919733
-0.19061753
-1.229264
-0.15488584
-1.2828079
-0.1036879
-1.3570811
-0.061603635
-1.4470693
-0.033251687
-1.5477705
-0.015037705
-1.6567413
-0.00291426
-1.7736822
0.0055349417
-1.8994263
0.011174463
-2.0348747
0.014145061
-2.1804458
0.014608493
-2.336101
0.013056423
-2.5016941
0.010250677
-2.6770906
0.007020799
-2.8627775
0.0040481501
-3.0593583
0.0018018393
-3.2688731
0.00043056536
-3.4923517
0.22149969
-0.95417288
0.073798152
-1.0373532
-0.10069862
-1.0887224
-0.2077869
-1.1198936
-0.23047803
-1.1501906
-0.18794982
-1.1943103
-0.1232652
-1.2613912
-0.070826026
-1.3461696
-0.037060492
-1.4417161
-0.016627756
-1.5446598
-0.003658664
-1.6544412
0.0054649145
-1.7720842
0.012057888
-1.8988756
0.016150072
-2.0355391
0.017581624
-2.1821541
0.016577854
-2.3384234
0.013803269
-2.5041035
0.010142722
-2.6791018
0.0064498235
-2.8640685
0.0033480682
-3.0597564
0.0012142411
-3.268459
8.8883893e-05
-3.4912064
0.24562709
-0.89043369
0.091801308
-0.97081572
-0.11295367
-1.0236357
-0.24798352
-1.0467688
-0.27719231
-1.0713557
-0.22673049
-1.1096258
-0.14552103
-1.1703083
-0.079974334
-1.2506431
-0.039799475
-1.3419861
-0.017173337
-1.4397606
-0.0038541906
-1.5430262
0.0054061679
-1.6529709
0.012651843
-1.7713609
0.017869881
-1.8993714
0.020497263
-2.0373
0.020359052
-2.1848435
0.017900014
-2.3414864
0.013992476
-2.5069625
0.0096164564
-2.6812949
0.0056072006
-2.8653354
0.0024993426
-3.0600022
0.00056043275
-3.2678269
-0.0002536288
-3.4898014
0.26661722
-0.82786685
0.10503588
-0.90240185
-0.12733222
-0.95507168
-0.29443686
-0.97551672
-0.33143305
-0.99079894
-0.27045414
-1.0259495
-0.17028079
-1.0832083
-0.088699752
-1.1600665
-0.040898985
-1.2481914
-0.016144324
-1.3417047
-0.0031183539
-1.4391602
0.0055211255
-1.54183
0.012917077
-1.6520211
0.019138709
-1.7715069
0.023150683
-1.9009719
0.024228648
-2.0401839
0.022450066
-2.1884634
0.018567482
-2.3451763
0.013646435
-2.5101375
0.0087123961
-2.6835469
0.0045359745
-2.8664871
0.0015371641
-3.0600312
-0.00012611977
-3.266938
-0.00060754634
-3.488128
0.28316977
-0.76606787
0.11158043
-0.83323145
-0.14809228
-0.88036594
-0.34409786
-0.90383296
-0.39298408
-0.91232726
-0.3179777
-0.94169028
-0.19586496
-0.99879202
-0.096398822
-1.0740715
-0.039712024
-1.1599872
-0.012950078
-1.2501652
-0.0010001541
-1.3425768
0.0060242886
-1.4384399
0.01283332
-1.5406214
0.019775824
-1.6516318
0.025295837
-1.7726946
0.027957264
-1.903808
0.027297139
-2.0441969
0.023814446
-2.1929234
0.018579489
-2.3493585
0.012797253
-2.5134872
0.0074767571
-2.6857395
0.0032805958
-2.8674388
0.00049470657
-3.0597925
-0.00086020685
-3.2657459
-0.00096674863
-3.4861645
0.29408013
-0.70582728
0.11222676
-0.76561372
-0.17428107
-0.80584951
-0.39362136
-0.82934959
-0.45616143
-0.83910419
-0.36874632
-0.86006692
-0.2200644
-0.91599836
-0.10157936
-0.99224777
-0.035560525
-1.0770371
-0.0069203268
-1.1648794
0.0030042708
-1.2530045
0.0071801522
-1.3425859
0.012399982
-1.4369616
0.019588567
-1.5394959
0.026648012
-1.6521121
0.031258926
-1.7751838
0.032219787
-1.9079856
0.029614116
-2.0493054
0.024411525
-2.1980994
0.01794696
-2.3538745
0.011486963
-2.5168659
0.0059606707
-2.6877657
0.0018852267
-2.8681234
-0.00059743941
-3.0592691
-0.0015855077
-3.2642589
-0.0013113544
-3.4839278
0.29912443
-0.64819583
0.10697257
-0.69954572
-0.20334409
-0.73543379
-0.44055661
-0.75750352
-0.51367477
-0.77036849
-0.42106142
-0.7853861
-0.24267577
-0.83604057
-0.10215639
-0.91412807
-0.027552636
-0.99914548
0.0025585048
-1.0854551
0.0094061396
-1.1701897
0.0093006334
-1.2540471
0.011634945
-1.3408467
0.018374445
-1.4348871
0.026888771
-1.5389472
0.033795311
-1.653914
0.036931956
-1.7792289
0.035780703
-1.9135476
0.031077028
-2.0554046
0.024213287
-2.2038239
0.016696292
-2.3585533
0.0097677573
-2.520135
0.0042189661
-2.6895277
0.00039482633
-2.8684818
-0.0017121193
-3.0584247
-0.002296682
-3.2624657
-0.0016438304
-3.4814168
0.29855802
-0.59392872
0.096410747
-0.63667404
-0.23357453
-0.6682687
-0.48469915
-0.68995979
-0.56424954
-0.70554162
-0.47180933
-0.71830165
-0.26498657
-0.76173496
-0.097312412
-0.8396587
-0.014528497
-0.92611342
0.016068591
-1.0116665
0.018827793
-1.0938529
0.01269081
-1.1725639
0.010580124
-1.2520823
0.015919619
-1.3376022
0.025669449
-1.4329558
0.035183462
-1.5396761
0.041089068
-1.6574716
0.042060791
-1.7849766
0.038446984
-1.9204365
0.031595381
-2.0623341
0.023213854
-2.2099004
0.014871664
-2.3632178
0.0077013607
-2.5231596
0.0023085247
-2.690941
-0.0011481877
-2.868476
-0.0028197564
-3.0572404
-0.0029821608
-3.260378
-0.0019567386
-3.4786516
0.29282499
-0.54347128
0.081413615
-0.57803358
-0.2636709
-0.60559584
-0.52488131
-0.62683141
-0.60796711
-0.64493266
-0.51851412
-0.6575971
-0.28720741
-0.69481207
-0.088256686
-0.76963031
0.0044695876
-0.85768561
0.034115625
-0.94323853
0.031778549
-1.0236559
0.017759852
-1.0979622
0.0092923743
-1.1704248
0.012004036
-1.2474404
0.022613303
-1.333903
0.035003448
-1.4321871
0.044298927
-1.5423507
0.0481396
-1.6630781
0.046324767
-1.7924447
0.040035656
-1.9285079
0.03110879
-2.0698737
0.021435556
-2.2161132
0.012535169
-2.3676915
0.0053573257
-2.5258199
0.00028817901
-2.6919372
-0.0027086718
-2.8680731
-0.0038977317
-3.0557194
-0.0036306454
-3.2580056
-0.002245838
-3.4756482
0.2824533
-0.4969772
0.062870135
-0.52408625
-0.29262016
-0.54816235
-0.56024155
-0.56905364
-0.64447803
-0.58908533
-0.55943641
-0.60284557
-0.30812399
-0.63548096
-0.076797134
-0.70517515
0.029392074
-0.79364555
0.057166531
-0.87987799
0.048712207
-0.95926952
0.024876292
-1.0298638
0.0077634069
-1.0956357
0.0063957233
-1.164148
0.017317168
-1.2415617
0.032809854
-1.331184
0.046135938
-1.4335506
0.053653607
-1.5474457
0.054449952
-1.6708484
0.049411488
-1.8015228
0.04040391
-1.9375327
0.029598261
-2.0777718
0.018930589
-2.2222357
0.0097654224
-2.3718072
0.0028099245
-2.5280113
-0.0017875536
-2.6924724
-0.0042451561
-2.8672626
-0.0049262537
-3.0538642
-0.0042331993
-3.2553692
-0.0025079024
-3.4724336
0.25938395
-0.53266797
0.041734014
-0.47505148
-0.3196242
-0.49621584
-0.5902884
-0.51700389
-0.67399958
-0.53836868
-0.59363583
-0.55379235
-0.32650724
-0.58333017
-0.064153957
-0.64709059
0.059165246
-0.73410169
0.085567481
-0.82124732
0.070012266
-0.90033045
0.034434171
-0.96796576
0.006095698
-1.0274485
-0.0011592475
-1.0874651
0.0093617509
-1.1556631
0.028134691
-1.2364162
0.046160327
-1.3307921
0.05820901
-1.4377406
0.062509212
-1.5551967
0.059533949
-1.6807264
0.051062824
-1.8119847
0.039466677
-1.9472207
0.027090401
-2.0857435
0.015780002
-2.2280447
0.0066538537
-2.3754158
0.00013789446
-2.529658
-0.003869646
-2.6925077
-0.0057274516
-2.8660408
-0.0058891999
-3.0516925
-0.0047830177
-3.252486
-0.0027410669
-3.4690307
0.23118761
-0.52077341
0.013707634
-0.50377514
-0.34415783
-0.44970273
-0.61485273
-0.47060782
-0.69703612
-0.49287309
-0.62099011
-0.50998895
-0.34177811
-0.53745525
-0.051052767
-0.59545931
0.092274888
-0.67941026
0.11920966
-0.76700007
0.096061779
-0.84650124
0.046876615
-0.91195437
0.004332131
-0.9655011
-0.010950559
-1.0170908
-0.0016823402
-1.0759387
0.02051457
-1.1476194
0.043933966
-1.2338238
0.06140633
-1.3336761
0.07015431
-1.4451219
0.070152949
-1.5656109
0.06298197
-1.6925028
0.051098966
-1.823511
0.037203691
-1.957232
0.023657094
-2.0935011
0.012089832
-2.2333307
0.0032994596
-2.3783913
-0.0025866344
-2.5307048
-0.0059035728
-2.6920311
-0.0071289598
-2.8644183
-0.0067740348
-3.0492217
-0.0052753926
-3.2493861
-0.002944897
-3.465468
0.19714753
-0.50896059
-0.016639389
-0.48955673
-0.36569148
-0.48135185
-0.63421522
-0.42936183
-0.71421431
-0.4524018
-0.64193005
-0.4709725
-0.35398725
-0.4967776
-0.038122731
-0.5494731
0.1271466
-0.62959385
0.15728161
-0.71678984
0.12694802
-0.79713955
0.062653377
-0.86149948
0.0026009478
-0.90956563
-0.023223575
-0.9527075
-0.016273614
-1.0020595
0.0094699926
-1.0645108
0.039040552
-1.1424029
0.062866801
-1.2350181
0.077028346
-1.3403316
0.08096974
-1.4557698
0.07598683
-1.5785104
0.064489608
-1.7058445
0.049427054
-1.8357109
0.03366043
-1.9672028
0.019411447
-2.1007585
0.007985074
-2.2379154
-0.00017040333
-2.380662
-0.0052983921
-2.5311101
-0.0078487471
-2.6910431
-0.0084282627
-2.8624136
-0.0075717518
-3.0464822
-0.0057076161
-3.2460943
-0.0031189525
-3.4617733
0.15695019
-0.49756385
-0.049207119
-0.47552011
-0.38474284
-0.46960735
-0.64575503
-0.46875755
-0.726385
-0.41622736
-0.6571719
-0.43626076
-0.36346371
-0.46055577
-0.025862361
-0.50818355
0.16205234
-0.58369082
0.1979573
-0.66962496
0.16152832
-0.75066974
0.081564033
-0.81530893
0.00093847993
-0.85922017
-0.03821246
-0.89409904
-0.03487972
-0.93369979
-0.0054695332
-0.9867714
0.031098623
-1.0562824
0.062257161
-1.141568
0.08279542
-1.2406095
0.091659048
-1.3508883
0.089834569
-1.4695396
0.079555515
-1.5935653
0.063864177
-1.7203199
0.046042708
-1.8481414
0.028943957
-1.9767613
0.014501617
-2.1072609
0.0036022347
-2.2416264
-0.0037176595
-2.3821312
-0.0079235235
-2.5308645
-0.0096703085
-2.6895619
-0.0096092333
-2.8600557
-0.0082766429
-3.0434991
-0.0060787229
-3.242643
-0.0032636383
-3.457974
0.11084931
-0.48711804
-0.083457212
-0.46243745
-0.40090836
-0.45844808
-0.65174712
-0.46255352
-0.73295493
-0.46115651
-0.66763937
-0.40491963
-0.37085177
-0.42799259
-0.014525027
-0.47109425
0.1958203
-0.54130944
0.23900328
-0.62413615
0.19724543
-0.70468532
0.1020581
-0.77045737
-0.0015582294
-0.81223379
-0.056321688
-0.84067327
-0.057991823
-0.87061986
-0.024773807
-0.91407694
0.019783067
-0.97520051
0.059319477
-1.053154
0.087172475
-1.1458075
0.101897
-1.2507518
0.10422608
-1.3652289
0.096125683
-1.4861243
0.080542806
-1.6103259
0.061023843
-1.735416
0.041026378
-1.8603347
0.023216889
-1.9855533
0.0091005918
-2.1127844
-0.00091019985
-2.2444054
-0.0071911586
-2.3827789
-0.010409316
-2.5299805
-0.011340977
-2.6876149
-0.010660933
-2.8573728
-0.0088860224
-3.0403054
-0.0063892375
-3.2390559
-0.0033799473
-3.4540971
0.059993518
-0.4782125
-0.11850783
-0.45118718
-0.41370273
-0.4487282
-0.65195615
-0.45717063
-0.73422181
-0.46024633
-0.67997018
-0.44793614
-0.37629136
-0.39865821
-0.0045249195
-0.43724689
0.22766515
-0.5023398
0.27893607
-0.58068189
0.23265361
-0.65892858
0.12235791
-0.72431158
-0.0057860353
-0.76568711
-0.0787428
-0.7894124
-0.086105694
-0.81222366
-0.048976576
-0.84612421
0.0048132549
-0.89887801
0.053890672
-0.96960981
0.089962235
-1.0558379
0.11139341
-1.1552428
0.11882676
-1.2653318
0.1139385
-1.3830779
0.099390675
-1.5050816
0.078761835
-1.6282276
0.055993802
-1.7505646
0.034538527
-1.871819
0.016688261
-1.9932594
0.0033951752
-2.1171483
-0.0054415342
-2.2461513
-0.010521018
-2.3826056
-0.01271146
-2.5284855
-0.012841178
-2.6852383
-0.011577266
-2.854402
-0.0093998266
-3.0369298
-0.00664094
-3.2353669
-0.0034692885
-3.4501676
0.0054667917
-0.47132398
-0.15301933
-0.44281662
-0.42279997
-0.44116692
-0.64658877
-0.45302112
-0.73026019
-0.46008457
-0.68677155
-0.45254907
-0.39643501
-0.42693072
0.0046589042
-0.40714729
0.25707641
-0.46609829
0.31675962
-0.53963987
0.26711404
-0.61456456
0.14199155
-0.67792021
-0.0098442495
-0.71974477
-0.10622066
-0.73784394
-0.11961002
-0.75560074
-0.078482286
-0.78244718
-0.014083902
-0.8270203
0.045915915
-0.89076537
0.091078625
-0.97064579
0.11992696
-1.06434
0.13329522
-1.1697208
0.13264939
-1.2841009
0.12021535
-1.4040298
0.099317657
-1.5258323
0.074147709
-1.6466156
0.048904319
-1.7651659
0.026812961
-1.8821508
0.0095992053
-1.9996151
-0.0024079845
-2.1202644
-0.0098431014
-2.2468468
-0.013637348
-2.3816358
-0.014796567
-2.5264224
-0.014158753
-2.6824746
-0.012356417
-2.8511807
-0.0098202154
-3.0334095
-0.0068366024
-3.2316001
-0.0035334162
-3.4462114
-0.051764659
-0.46684158
-0.18594995
-0.43750469
-0.42837867
-0.43630706
-0.63625139
-0.45042435
-0.72129402
-0.46093382
-0.68813881
-0.45781877
-0.41330923
-0.43480736
-0.0075952502
-0.41395301
0.28373418
-0.43328164
0.35168821
-0.50053694
0.29964623
-0.57163002
0.16024241
-0.63220371
-0.013553365
-0.67373432
-0.1363154
-0.68931715
-0.15869079
-0.69848188
-0.11264083
-0.72119066
-0.037017966
-0.7593255
0.035450466
-0.81643734
0.090562843
-0.89018928
0.12737543
-0.9780864
0.14731761
-1.0783989
0.15185024
-1.1890041
0.1426927
-1.3067231
0.12261751
-1.4275433
0.095716359
-1.54767
0.066758891
-1.6647626
0.03999053
-1.7786252
0.018143082
-1.8909354
0.0022120965
-2.0044124
-0.0081641894
-2.1220454
-0.014008475
-2.246508
-0.01648512
-2.3799176
-0.016642288
-2.5238438
-0.015288269
-2.6793729
-0.013000244
-2.8477512
-0.010151129
-3.0297732
-0.0069797341
-3.2277864
-0.0035743023
-3.4422492
-0.11064403
-0.46541417
-0.21749678
-0.43440177
-0.43110244
-0.43384276
-0.62187528
-0.44959833
-0.70773124
-0.46292954
-0.68423761
-0.46393677
-0.42704635
-0.44321035
-0.020016906
-0.4216532
0.29273999
-0.42241527
0.38291606
-0.46405037
0.32948875
-0.5298716
0.17587729
-0.58668309
-0.019591666
-0.62571892
-0.16621266
-0.64353403
-0.20256058
-0.64518975
-0.15026706
-0.66062091
-0.062968213
-0.69506938
0.02266294
-0.74643797
0.088592604
-0.8144225
0.13373583
-0.89655993
0.16064377
-0.99147156
0.17109918
-1.0977537
0.16636915
-1.2128436
0.1484184
-1.3327494
0.12080428
-1.4529188
0.088520002
-1.5697634
0.056787799
-1.6819022
0.029585929
-1.7903852
0.0088636339
-1.8978552
-0.0051970874
-2.0075754
-0.013676631
-2.1224927
-0.017849824
-2.2451873
-0.019025365
-2.3775152
-0.018236593
-2.5208113
-0.016230153
-2.6759839
-0.01351359
-2.8441514
-0.010397865
-3.0260549
-0.0070743504
-3.2239446
-0.0035940507
-3.4383029
-0.46798333
-0.16990667
-0.24875642
-0.43325723
-0.43133358
-0.43322591
-0.60433873
-0.45029029
-0.69012944
-0.46614001
-0.67557128
-0.47070029
-0.43780862
-0.45230133
-0.032458686
-0.4300284
0.29965639
-0.42801674
0.40467224
-0.44369336
0.35591582
-0.49000017
0.18907838
-0.54252131
-0.027881786
-0.57797463
-0.19515829
-0.59649743
-0.24707744
-0.59878113
-0.19130303
-0.6039338
-0.090213691
-0.63321864
0.0082218725
-0.68054354
0.085472093
-0.74328513
0.13913637
-0.81984667
0.17311881
-0.90911151
0.18996308
-1.0104604
0.19068015
-1.1222443
0.17628458
-1.2409455
0.1493362
-1.3615762
0.11452581
-1.4792788
0.077810747
-1.5911746
0.04456871
-1.6972659
0.018107532
-1.7999751
-0.00058900305
-1.9027505
-0.012441808
-2.0090199
-0.018808789
-2.1216582
-0.02130203
-2.2429616
-0.021234685
-2.3745062
-0.01957662
-2.5173894
-0.016989661
-2.6723573
-0.013903597
-2.84042
-0.010566662
-3.0222804
-0.0071247912
-3.2201036
-0.0035948106
-3.4343892
-0.43606481
-0.2797734
-0.47597643
-0.22832691
-0.42875206
-0.43488831
-0.58376368
-0.45270859
-0.66880053
-0.47055817
-0.66281437
-0.47800586
-0.44586745
-0.46176823
-0.044856398
-0.43915575
0.30374183
-0.43355241
0.42515756
-0.44800767
0.38314054
-0.47042372
0.19978063
-0.500182
-0.037422535
-0.53258778
-0.22295827
-0.549923
-0.28776876
-0.55558943
-0.23467679
-0.55520049
-0.11933876
-0.57466437
-0.0065056865
-0.61841951
0.081673729
-0.67672213
0.14383401
-0.74801583
0.18470238
-0.83151992
0.20806392
-0.92735178
0.21499226
-1.0349667
0.20558296
-1.1517903
0.18100261
-1.2729118
0.14496802
-1.3923827
0.10366135
-1.5055493
0.063852148
-1.6108912
0.030576515
-1.7101466
0.0060384943
-1.806968
-0.010042337
-1.9054512
-0.019248489
-2.0087972
-0.023455537
-2.1196336
-0.024322986
-2.2399295
-0.023103873
-2.3709735
-0.020667188
-2.5136412
-0.017575826
-2.6685401
-0.014179043
-2.8365938
-0.010664368
-3.0184812
-0.0071355239
-3.2162792
-0.0035787259
-3.4305267
-0.44053204
-0.42332955
-0.44464065
-0.31020362
-0.48752355
-0.28481798
-0.56025275
-0.45730446
-0.64443594
-0.47601282
-0.64694153
-0.48554558
-0.45135274
-0.47164885
-0.056966265
-0.44890336
0.30467027
-0.43951473
0.44310942
-0.45099447
0.40933895
-0.47369341
0.22384458
-0.49395315
-0.047597546
-0.489639
-0.24973969
-0.50557548
-0.32456022
-0.51293254
-0.27737102
-0.51270039
-0.15209265
-0.52231312
-0.02124092
-0.55986906
0.077960051
-0.61468983
0.1481743
-0.68110154
0.19547143
-0.75888384
0.22510964
-0.84871525
0.23864789
-0.95121225
0.23549773
-1.0651408
0.2152115
-1.1863068
0.17981072
-1.3081236
0.13488357
-1.424041
0.088287398
-1.5304552
0.047116223
-1.6278975
0.015416209
-1.7199564
-0.0060854749
-1.8113039
-0.01901207
-1.9059951
-0.025458045
-2.0070146
-0.027544619
-2.1165418
-0.02689228
-2.2361989
-0.024635818
-2.3670018
-0.021519201
-2.5096299
-0.018000413
-2.6645806
-0.014349776
-2.8327076
-0.010698106
-3.0146797
-0.0071110223
-3.2124953
-0.0035478787
-3.4267265
-0.46391268
-0.53577592
-0.44962023
-0.41739076
-0.45621591
-0.34060209
-0.49874634
-0.33770829
-0.61867808
-0.48200402
-0.62911134
-0.49296353
-0.45443438
-0.48159493
-0.068825469
-0.45902854
0.30240088
-0.44605695
0.45755996
-0.45344154
0.4334766
-0.47460134
0.24742909
-0.49672592
-0.037685661
-0.50349108
-0.27537553
-0.46378999
-0.35854236
-0.47141058
-0.31721666
-0.47290365
-0.18757023
-0.47709922
-0.037869512
-0.50563453
0.075089046
-0.55698728
0.1525433
-0.6191014
0.20560093
-0.69133626
0.24091101
-0.77484117
0.26101089
-0.8712893
0.26504027
-0.98102337
0.25102577
-1.1012711
0.21866671
-1.2255339
0.17186351
-1.3455446
0.11880415
-1.4550513
0.06874819
-1.5525958
0.028307569
-1.6412774
-0.00017210445
-1.7263156
-0.017874031
-1.8128267
-0.027264158
-1.9044988
-0.030950693
-2.0038266
-0.03103648
-2.1125256
-0.029008363
-2.2318843
-0.025843097
-2.3626753
-0.022148023
-2.5054162
-0.018277013
-2.6605215
-0.014426193
-2.8287952
-0.010675051
-3.010902
-0.0070556408
-3.2087609
-0.0035042638
-3.4230035
-0.48775081
-0.59378493
-0.47123842
-0.51306088
-0.45906546
-0.41357915
-0.46765921
-0.37077695
-0.50646939
-0.38609487
-0.61032565
-0.49991611
-0.45531245
-0.49122025
-0.080382007
-0.46927285
0.29687201
-0.45291573
0.46759461
-0.45555551
0.45422784
-0.47364636
0.27022099
-0.49682613
-0.027399454
-0.50662742
-0.28287158
-0.49578099
-0.3905336
-0.43162989
-0.35364618
-0.43480941
-0.22304317
-0.43731601
-0.057748421
-0.45717909
0.072857936
-0.50339666
0.15748562
-0.5619737
0.21532611
-0.62893559
0.25539935
-0.7059839
0.28154504
-0.79558847
0.29315748
-0.89968047
0.2871663
-1.017487
0.26065108
-1.1436302
0.21463299
-1.268748
0.1562924
-1.3835374
0.096717758
-1.4835558
0.045747233
-1.5705685
0.0083782516
-1.6503307
-0.015521033
-1.7291194
-0.02880264
-1.8116742
-0.034600482
-1.9011554
-0.035655242
-1.9994217
-0.03392088
-2.1077369
-0.030685003
-2.2270982
-0.026745494
-2.3580749
-0.022572064
-2.5010571
-0.018420212
-2.6564059
-0.014418835
-2.8248838
-0.010602217
-3.0071639
-0.0069735525
-3.2050965
-0.0034497568
-3.4193656
-0.50605353
-0.59115503
-0.49374061
-0.57023186
-0.47683265
-0.4941968
-0.46724568
-0.41302896
-0.47597195
-0.40035944
-0.50996007
-0.4303428
-0.45383516
-0.50053327
-0.091605773
-0.47922863
0.28813898
-0.45995001
0.47272723
-0.4575015
0.4703469
-0.47111503
0.29076959
-0.49361527
-0.017589538
-0.5062427
-0.2888207
-0.50045778
-0.41454242
-0.47160259
-0.38695135
-0.39816421
-0.25660503
-0.40114085
-0.080181848
-0.41484866
0.069914036
-0.45423151
0.16357737
-0.50953268
0.22491007
-0.57166858
0.26863585
-0.64233235
0.29989873
-0.72454939
0.31893287
-0.82163936
0.32228619
-0.93512807
0.30454527
-1.06176
0.26282824
-1.192272
0.20149065
-1.3144529
0.13240261
-1.419768
0.069077307
-1.5074478
0.020458892
-1.5831983
-0.011550563
-1.6548091
-0.029970537
-1.7284028
-0.038565429
-1.8080903
-0.040897415
-1.8962136
-0.039545752
-1.994003
-0.03621174
-2.1023285
-0.031947489
-2.22195
-0.027367755
-2.3532754
-0.022811453
-2.4966045
-0.01844495
-2.6522668
-0.014338078
-2.8209997
-0.010486334
-3.0034858
-0.0068686791
-3.2015086
-0.0033861043
-3.4158238
-0.50917163
-0.44986323
-0.51241919
-0.5716138
-0.4974935
-0.54852504
-0.48093043
-0.47941584
-0.47254933
-0.41548745
-0.48019951
-0.42920304
-0.51004571
-0.47061772
-0.10227896
-0.48909222
0.27666611
-0.46716126
0.47266365
-0.45933031
0.48086808
-0.46745252
0.3078481
-0.48760367
-0.0087677
-0.50203581
-0.29382699
-0.50100971
-0.43632892
-0.47849384
-0.42353495
-0.43485763
-0.28741503
-0.36725503
-0.10357567
-0.37771872
0.065074976
-0.41000845
0.17082834
-0.46152591
0.23471515
-0.51944894
0.28077101
-0.58396308
0.3159378
-0.65857913
0.34172539
-0.74761557
0.35519563
-0.85487783
0.34919049
-0.98015269
0.31607357
-1.1154508
0.25537737
-1.2466643
0.17762721
-1.3602236
0.10004502
-1.4513103
0.037208282
-1.524779
-0.005417992
-1.5898863
-0.030616503
-1.6546711
-0.042932659
-1.7244805
-0.04695436
-1.8024064
-0.046101603
-1.8899484
-0.04263438
-1.9877779
-0.037941303
-2.0964466
-0.032829097
-2.2165398
-0.027737526
-2.3483453
-0.022887033
-2.4921035
-0.018366006
-2.6481387
-0.014193887
-2.8171631
-0.010333741
-2.9998791
-0.006744671
-3.1980122
-0.003314876
-3.4123817
-0.49843495
-0.11224999
-0.5178025
-0.44363328
-0.51655491
-0.55169475
-0.49975996
-0.52865498
-0.48298429
-0.46788608
-0.47480633
-0.41991741
-0.48130511
-0.45702551
-0.50792309
-0.506519
0.26245812
-0.47428607
0.467511
-0.46144494
0.48513475
-0.46301866
0.32012084
-0.47912761
-0.0017359522
-0.4942271
-0.29809315
-0.49753679
-0.45600807
-0.48114526
-0.45651823
-0.44534083
-0.33446503
-0.38770802
-0.12574876
-0.34505715
0.058367268
-0.37101214
0.17859563
-0.41781794
0.24514986
-0.47207075
0.29201068
-0.53084551
0.32971959
-0.5979464
0.36117541
-0.67829813
0.38485719
-0.77760437
0.39318436
-0.89924831
0.37376328
-1.0382851
0.31900402
-1.1795822
0.23527264
-1.3048536
0.14175151
-1.4025082
0.06049288
-1.4751977
0.0034620205
-1.5342522
-0.03060754
-1.5904516
-0.047817158
-1.6502876
-0.054072547
-1.7177975
-0.053870763
-1.794998
-0.05022012
-1.882642
-0.044962371
-1.980944
-0.039154569
-2.0902268
-0.033367862
-2.2109586
-0.027883736
-2.3433441
-0.022819522
-2.4875968
-0.01819761
-2.644046
-0.013995668
-2.8133934
-0.010150334
-2.9963585
-0.0066048084
-3.1946087
-0.0032374765
-3.4090475
-0.48114108
0.24576488
-0.5070804
-0.12221017
-0.52466911
-0.43468006
-0.51918216
-0.53142065
-0.50041309
-0.51019131
-0.48301664
-0.45858273
-0.47470092
-0.42556089
-0.48052705
-0.48350335
-0.50421678
-0.53757724
0.45727552
-0.46348132
0.48269754
-0.45842346
0.32638265
-0.46867745
0.0027576461
-0.48320702
-0.30182195
-0.49025971
-0.4730132
-0.48033936
-0.48607611
-0.45140975
-0.37875083
-0.40094903
-0.1747328
-0.33869821
0.050770738
-0.33746303
0.18588531
-0.37834287
0.25648954
-0.42926555
0.30259553
-0.48280889
0.34143537
-0.54275513
0.37717117
-0.61420414
0.41037072
-0.70413446
0.43448027
-0.81927066
0.4333726
-0.95929422
0.39102278
-1.1108074
0.30645226
-1.2513051
0.19810097
-1.3617801
0.094196724
-1.4368236
0.017073396
-1.4894274
-0.029661635
-1.5357935
-0.053470721
-1.5853472
-0.062587522
-1.6422625
-0.063218092
-1.7088711
-0.059311729
-1.7862534
-0.053306301
-1.8745643
-0.046591192
-1.9736845
-0.039904185
-2.0837899
-0.033604003
-2.2052854
-0.027835291
-2.3383262
-0.02262892
-2.4831171
-0.017953196
-2.6400173
-0.013752159
-2.8097046
-0.0099414155
-2.9929302
-0.0064520249
-3.1913105
-0.0031551415
-3.405823
-0.46541077
0.44211796
-0.48670464
0.2259914
-0.51510398
-0.13101854
-0.52987184
-0.4231595
-0.5201229
-0.51086596
-0.49946944
-0.49270974
-0.48126973
-0.45092286
-0.47310021
-0.43203101
-0.47843746
-0.50836525
-0.49935449
-0.56356785
0.47380473
-0.4540006
0.32551047
-0.45694542
0.0041072885
-0.46960832
-0.30496771
-0.47981763
-0.48686506
-0.47620941
-0.51164307
-0.45458814
-0.42009022
-0.40995851
-0.22363277
-0.35201871
0.013702176
-0.30163068
0.19289637
-0.34451373
0.26852312
-0.39048118
0.31284529
-0.43966413
0.35133365
-0.49289273
0.38979649
-0.55563382
0.43109738
-0.635247
0.47082048
-0.74083601
0.49047227
-0.87679723
0.46555041
-1.0343219
0.38489959
-1.1897972
0.26609217
-1.3198683
0.14041436
-1.4086115
0.039043889
-1.4594314
-0.026027323
-1.4936872
-0.059997391
-1.5298558
-0.073032301
-1.5754399
-0.074630986
-1.6313236
-0.070348618
-1.6982393
-0.063347844
-1.7765429
-0.055445386
-1.865963
-0.047594421
-1.966161
-0.04024637
-2.0772413
-0.033577865
-2.1995893
-0.027620115
-2.3333346
-0.022334082
-2.4787004
-0.017645244
-2.6360685
-0.013471234
-2.80611
-0.0097117095
-2.9896046
-0.0062889112
-3.1881168
-0.0030687766
-3.4027153
-0.44979959
0.45878292
-0.46582584
0.42181338
-0.49303862
0.2045289
-0.5216354
-0.13850452
-0.53307771
-0.40938293
-0.51933881
-0.49016057