/*--------------------------------*- C++ -*----------------------------------*\
| =========                 |                                                 |
| \\      /  F ield         | OpenFOAM: The Open Source CFD Toolbox           |
|  \\    /   O peration     | Version:  v2012                                 |
|   \\  /    A nd           | Website:  www.openfoam.com                      |
|    \\/     M anipulation  |                                                 |
\*---------------------------------------------------------------------------*/
FoamFile
{
    version     2.0;
    format      ascii;
    class       pointVectorField;
    location    "45.4230374874372984";
    object      pointDisplacement;
}
// * * * * * * * * * * * * * * * * * * * * * * * * * * * * * * * * * * * * * //

dimensions      [0 1 0 0 0 0 0];


internalField   nonuniform List<vector> 
18840
(
(1.9995994 0 0)
(1.9994629 0 0)
(1.9990569 0 0)
(1.9983882 0 0)
(1.9974617 0 0)
(1.996281 0 0)
(1.9948482 0 0)
(1.9931645 0 0)
(1.9912301 0 0)
(1.9890443 0 0)
(1.9866058 0 0)
(1.9839125 0 0)
(1.9809616 0 0)
(1.9777499 0 0)
(1.9742737 0 0)
(1.9705287 0 0)
(1.9665102 0 0)
(1.9622132 0 0)
(1.9576325 0 0)
(1.952766 0 0)
(1.946576 0 0)
(1.9995994 0 0)
(1.9994624 0 0)
(1.9990549 0 0)
(1.9983837 0 0)
(1.9974536 0 0)
(1.9962681 0 0)
(1.9948295 0 0)
(1.9931388 0 0)
(1.9911964 0 0)
(1.9890016 0 0)
(1.9865532 0 0)
(1.9838491 0 0)
(1.9808868 0 0)
(1.9776631 0 0)
(1.9741744 0 0)
(1.9704166 0 0)
(1.9663852 0 0)
(1.9620754 0 0)
(1.9574819 0 0)
(1.952601 0 0)
(1.9474072 0 0)
(1.9995994 0 0)
(1.9994617 0 0)
(1.999052 0 0)
(1.9983771 0 0)
(1.9974418 0 0)
(1.9962496 0 0)
(1.9948027 0 0)
(1.9931022 0 0)
(1.9911486 0 0)
(1.9889411 0 0)
(1.9864786 0 0)
(1.9837592 0 0)
(1.9807804 0 0)
(1.9775392 0 0)
(1.974032 0 0)
(1.9702549 0 0)
(1.9662035 0 0)
(1.961873 0 0)
(1.9572582 0 0)
(1.9523536 0 0)
(1.9470617 0 0)
(1.9995994 0 0)
(1.999461 0 0)
(1.9990493 0 0)
(1.9983708 0 0)
(1.9974304 0 0)
(1.9962315 0 0)
(1.9947762 0 0)
(1.9930659 0 0)
(1.9911008 0 0)
(1.9888804 0 0)
(1.9864034 0 0)
(1.9836681 0 0)
(1.980672 0 0)
(1.9774122 0 0)
(1.9738853 0 0)
(1.9700875 0 0)
(1.9660144 0 0)
(1.9616615 0 0)
(1.9570238 0 0)
(1.9520967 0 0)
(1.9467197 0 0)
(1.9995994 0 0)
(1.9994603 0 0)
(1.9990466 0 0)
(1.9983646 0 0)
(1.9974191 0 0)
(1.9962135 0 0)
(1.9947499 0 0)
(1.9930296 0 0)
(1.9910527 0 0)
(1.9888189 0 0)
(1.9863269 0 0)
(1.9835749 0 0)
(1.9805606 0 0)
(1.9772811 0 0)
(1.973733 0 0)
(1.9699126 0 0)
(1.9658159 0 0)
(1.9614383 0 0)
(1.9567752 0 0)
(1.9518223 0 0)
(1.9463635 0 0)
(1.9995994 0 0)
(1.9994597 0 0)
(1.999044 0 0)
(1.9983585 0 0)
(1.997408 0 0)
(1.9961957 0 0)
(1.9947237 0 0)
(1.992993 0 0)
(1.9910041 0 0)
(1.9887564 0 0)
(1.9862486 0 0)
(1.9834791 0 0)
(1.9804454 0 0)
(1.9771447 0 0)
(1.9735738 0 0)
(1.9697289 0 0)
(1.965606 0 0)
(1.9612008 0 0)
(1.9565088 0 0)
(1.9515261 0 0)
(1.9459881 0 0)
(1.9995994 0 0)
(1.9994591 0 0)
(1.9990415 0 0)
(1.9983526 0 0)
(1.997397 0 0)
(1.9961779 0 0)
(1.9946973 0 0)
(1.9929562 0 0)
(1.9909548 0 0)
(1.9886926 0 0)
(1.9861683 0 0)
(1.9833802 0 0)
(1.9803258 0 0)
(1.9770024 0 0)
(1.9734067 0 0)
(1.9695349 0 0)
(1.9653832 0 0)
(1.9609471 0 0)
(1.9562224 0 0)
(1.9512049 0 0)
(1.9455903 0 0)
(1.9995994 0 0)
(1.9994585 0 0)
(1.999039 0 0)
(1.9983467 0 0)
(1.9973861 0 0)
(1.9961601 0 0)
(1.9946707 0 0)
(1.9929189 0 0)
(1.9909046 0 0)
(1.9886273 0 0)
(1.9860857 0 0)
(1.9832779 0 0)
(1.9802016 0 0)
(1.9768538 0 0)
(1.9732311 0 0)
(1.96933 0 0)
(1.9651464 0 0)
(1.9606759 0 0)
(1.9559142 0 0)
(1.950857 0 0)
(1.9451686 0 0)
(1.9995994 0 0)
(1.9994579 0 0)
(1.9990365 0 0)
(1.9983409 0 0)
(1.9973752 0 0)
(1.9961423 0 0)
(1.9946439 0 0)
(1.992881 0 0)
(1.9908534 0 0)
(1.9885604 0 0)
(1.9860007 0 0)
(1.9831722 0 0)
(1.9800725 0 0)
(1.9766985 0 0)
(1.9730468 0 0)
(1.9691138 0 0)
(1.9648952 0 0)
(1.9603866 0 0)
(1.9555836 0 0)
(1.9504817 0 0)
(1.9447227 0 0)
(1.9995994 0 0)
(1.9994574 0 0)
(1.9990341 0 0)
(1.9983351 0 0)
(1.9973642 0 0)
(1.9961242 0 0)
(1.9946168 0 0)
(1.9928425 0 0)
(1.9908012 0 0)
(1.988492 0 0)
(1.9859133 0 0)
(1.983063 0 0)
(1.9799385 0 0)
(1.9765367 0 0)
(1.9728539 0 0)
(1.9688864 0 0)
(1.9646298 0 0)
(1.9600796 0 0)
(1.9552311 0 0)
(1.9500794 0 0)
(1.9442535 0 0)
(1.9995994 0 0)
(1.9994565 0 0)
(1.9990307 0 0)
(1.9983269 0 0)
(1.9973491 0 0)
(1.9960997 0 0)
(1.9945803 0 0)
(1.9927914 0 0)
(1.9907325 0 0)
(1.9884027 0 0)
(1.9858003 0 0)
(1.9829228 0 0)
(1.9797675 0 0)
(1.9763311 0 0)
(1.9726099 0 0)
(1.9685998 0 0)
(1.9642964 0 0)
(1.9596948 0 0)
(1.9547902 0 0)
(1.9495771 0 0)
(1.9436834 0 0)
(1.9995994 0 0)
(1.9994629 0 0)
(1.9990569 0 0)
(1.9983882 0 0)
(1.9974617 0 0)
(1.996281 0 0)
(1.9948482 0 0)
(1.9931645 0 0)
(1.9912301 0 0)
(1.9890443 0 0)
(1.9866058 0 0)
(1.9839125 0 0)
(1.9809616 0 0)
(1.9777499 0 0)
(1.9742737 0 0)
(1.9705287 0 0)
(1.9665102 0 0)
(1.9622132 0 0)
(1.9576325 0 0)
(1.952766 0 0)
(1.946576 0 0)
(1.9995994 0 0)
(1.9994624 0 0)
(1.9990549 0 0)
(1.9983837 0 0)
(1.9974536 0 0)
(1.9962681 0 0)
(1.9948295 0 0)
(1.9931388 0 0)
(1.9911964 0 0)
(1.9890016 0 0)
(1.9865532 0 0)
(1.9838491 0 0)
(1.9808868 0 0)
(1.9776631 0 0)
(1.9741744 0 0)
(1.9704166 0 0)
(1.9663852 0 0)
(1.9620754 0 0)
(1.9574819 0 0)
(1.952601 0 0)
(1.9474072 0 0)
(1.9995994 0 0)
(1.9994617 0 0)
(1.999052 0 0)
(1.9983771 0 0)
(1.9974418 0 0)
(1.9962496 0 0)
(1.9948027 0 0)
(1.9931022 0 0)
(1.9911486 0 0)
(1.9889411 0 0)
(1.9864786 0 0)
(1.9837592 0 0)
(1.9807804 0 0)
(1.9775392 0 0)
(1.974032 0 0)
(1.9702549 0 0)
(1.9662035 0 0)
(1.961873 0 0)
(1.9572582 0 0)
(1.9523536 0 0)
(1.9470617 0 0)
(1.9995994 0 0)
(1.999461 0 0)
(1.9990493 0 0)
(1.9983708 0 0)
(1.9974304 0 0)
(1.9962315 0 0)
(1.9947762 0 0)
(1.9930659 0 0)
(1.9911008 0 0)
(1.9888804 0 0)
(1.9864034 0 0)
(1.9836681 0 0)
(1.980672 0 0)
(1.9774122 0 0)
(1.9738853 0 0)
(1.9700875 0 0)
(1.9660144 0 0)
(1.9616615 0 0)
(1.9570238 0 0)
(1.9520967 0 0)
(1.9467197 0 0)
(1.9995994 0 0)
(1.9994603 0 0)
(1.9990466 0 0)
(1.9983646 0 0)
(1.9974191 0 0)
(1.9962135 0 0)
(1.9947499 0 0)
(1.9930296 0 0)
(1.9910527 0 0)
(1.9888189 0 0)
(1.9863269 0 0)
(1.9835749 0 0)
(1.9805606 0 0)
(1.9772811 0 0)
(1.973733 0 0)
(1.9699126 0 0)
(1.9658159 0 0)
(1.9614383 0 0)
(1.9567752 0 0)
(1.9518223 0 0)
(1.9463635 0 0)
(1.9995994 0 0)
(1.9994597 0 0)
(1.999044 0 0)
(1.9983585 0 0)
(1.997408 0 0)
(1.9961957 0 0)
(1.9947237 0 0)
(1.992993 0 0)
(1.9910041 0 0)
(1.9887564 0 0)
(1.9862486 0 0)
(1.9834791 0 0)
(1.9804454 0 0)
(1.9771447 0 0)
(1.9735738 0 0)
(1.9697289 0 0)
(1.965606 0 0)
(1.9612008 0 0)
(1.9565088 0 0)
(1.9515261 0 0)
(1.9459881 0 0)
(1.9995994 0 0)
(1.9994591 0 0)
(1.9990415 0 0)
(1.9983526 0 0)
(1.997397 0 0)
(1.9961779 0 0)
(1.9946973 0 0)
(1.9929562 0 0)
(1.9909548 0 0)
(1.9886926 0 0)
(1.9861683 0 0)
(1.9833802 0 0)
(1.9803258 0 0)
(1.9770024 0 0)
(1.9734067 0 0)
(1.9695349 0 0)
(1.9653832 0 0)
(1.9609471 0 0)
(1.9562224 0 0)
(1.9512049 0 0)
(1.9455903 0 0)
(1.9995994 0 0)
(1.9994585 0 0)
(1.999039 0 0)
(1.9983467 0 0)
(1.9973861 0 0)
(1.9961601 0 0)
(1.9946707 0 0)
(1.9929189 0 0)
(1.9909046 0 0)
(1.9886273 0 0)
(1.9860857 0 0)
(1.9832779 0 0)
(1.9802016 0 0)
(1.9768538 0 0)
(1.9732311 0 0)
(1.96933 0 0)
(1.9651464 0 0)
(1.9606759 0 0)
(1.9559142 0 0)
(1.950857 0 0)
(1.9451686 0 0)
(1.9995994 0 0)
(1.9994579 0 0)
(1.9990365 0 0)
(1.9983409 0 0)
(1.9973752 0 0)
(1.9961423 0 0)
(1.9946439 0 0)
(1.992881 0 0)
(1.9908534 0 0)
(1.9885604 0 0)
(1.9860007 0 0)
(1.9831722 0 0)
(1.9800725 0 0)
(1.9766985 0 0)
(1.9730468 0 0)
(1.9691138 0 0)
(1.9648952 0 0)
(1.9603866 0 0)
(1.9555836 0 0)
(1.9504817 0 0)
(1.9447227 0 0)
(1.9995994 0 0)
(1.9994574 0 0)
(1.9990341 0 0)
(1.9983351 0 0)
(1.9973642 0 0)
(1.9961242 0 0)
(1.9946168 0 0)
(1.9928425 0 0)
(1.9908012 0 0)
(1.988492 0 0)
(1.9859133 0 0)
(1.983063 0 0)
(1.9799385 0 0)
(1.9765367 0 0)
(1.9728539 0 0)
(1.9688864 0 0)
(1.9646298 0 0)
(1.9600796 0 0)
(1.9552311 0 0)
(1.9500794 0 0)
(1.9442535 0 0)
(1.9995994 0 0)
(1.9994565 0 0)
(1.9990307 0 0)
(1.9983269 0 0)
(1.9973491 0 0)
(1.9960997 0 0)
(1.9945803 0 0)
(1.9927914 0 0)
(1.9907325 0 0)
(1.9884027 0 0)
(1.9858003 0 0)
(1.9829228 0 0)
(1.9797675 0 0)
(1.9763311 0 0)
(1.9726099 0 0)
(1.9685998 0 0)
(1.9642964 0 0)
(1.9596948 0 0)
(1.9547902 0 0)
(1.9495771 0 0)
(1.9436834 0 0)
(1.9995994 0 0)
(1.9994636 0 0)
(1.9990602 0 0)
(1.9983962 0 0)
(1.9974768 0 0)
(1.9963056 0 0)
(1.9948847 0 0)
(1.9932151 0 0)
(1.9912965 0 0)
(1.9891277 0 0)
(1.9867068 0 0)
(1.9840307 0 0)
(1.9810961 0 0)
(1.9778984 0 0)
(1.9744326 0 0)
(1.9706932 0 0)
(1.9666737 0 0)
(1.9623671 0 0)
(1.9577658 0 0)
(1.9528656 0 0)
(1.9472083 0 0)
(1.9995994 0 0)
(1.9994634 0 0)
(1.9990592 0 0)
(1.9983941 0 0)
(1.9974732 0 0)
(1.9963001 0 0)
(1.9948771 0 0)
(1.9932049 0 0)
(1.9912834 0 0)
(1.9891114 0 0)
(1.9866869 0 0)
(1.9840071 0 0)
(1.9810684 0 0)
(1.9778664 0 0)
(1.9743961 0 0)
(1.9706518 0 0)
(1.9666272 0 0)
(1.9623152 0 0)
(1.9577082 0 0)
(1.9528021 0 0)
(1.9471442 0 0)
(1.9995994 0 0)
(1.999463 0 0)
(1.9990576 0 0)
(1.9983906 0 0)
(1.9974671 0 0)
(1.9962908 0 0)
(1.9948639 0 0)
(1.9931873 0 0)
(1.9912609 0 0)
(1.9890835 0 0)
(1.9866532 0 0)
(1.9839672 0 0)
(1.9810218 0 0)
(1.9778128 0 0)
(1.9743352 0 0)
(1.9705834 0 0)
(1.9665511 0 0)
(1.9622312 0 0)
(1.9576163 0 0)
(1.9527021 0 0)
(1.947053 0 0)
(1.9995994 0 0)
(1.9994626 0 0)
(1.9990564 0 0)
(1.9983879 0 0)
(1.9974625 0 0)
(1.9962837 0 0)
(1.9948539 0 0)
(1.9931739 0 0)
(1.9912437 0 0)
(1.9890623 0 0)
(1.9866276 0 0)
(1.983937 0 0)
(1.9809869 0 0)
(1.977773 0 0)
(1.9742906 0 0)
(1.9705339 0 0)
(1.9664969 0 0)
(1.9621727 0 0)
(1.9575538 0 0)
(1.9526358 0 0)
(1.9470096 0 0)
(1.9995994 0 0)
(1.9994624 0 0)
(1.9990556 0 0)
(1.9983861 0 0)
(1.9974593 0 0)
(1.9962788 0 0)
(1.9948469 0 0)
(1.9931646 0 0)
(1.9912317 0 0)
(1.9890475 0 0)
(1.9866099 0 0)
(1.9839163 0 0)
(1.9809631 0 0)
(1.9777465 0 0)
(1.9742614 0 0)
(1.9705025 0 0)
(1.9664636 0 0)
(1.9621382 0 0)
(1.9575189 0 0)
(1.9526011 0 0)
(1.9470114 0 0)
(1.9995994 0 0)
(1.9994623 0 0)
(1.9990552 0 0)
(1.9983851 0 0)
(1.9974575 0 0)
(1.996276 0 0)
(1.9948428 0 0)
(1.9931591 0 0)
(1.9912247 0 0)
(1.9890388 0 0)
(1.9865996 0 0)
(1.9839044 0 0)
(1.98095 0 0)
(1.9777323 0 0)
(1.9742466 0 0)
(1.9704877 0 0)
(1.9664495 0 0)
(1.9621257 0 0)
(1.9575091 0 0)
(1.952595 0 0)
(1.9470548 0 0)
(1.9995994 0 0)
(1.9994623 0 0)
(1.9990551 0 0)
(1.9983849 0 0)
(1.997457 0 0)
(1.9962751 0 0)
(1.9948415 0 0)
(1.9931571 0 0)
(1.9912221 0 0)
(1.9890357 0 0)
(1.9865959 0 0)
(1.9839005 0 0)
(1.9809461 0 0)
(1.9777289 0 0)
(1.9742444 0 0)
(1.9704874 0 0)
(1.9664521 0 0)
(1.9621323 0 0)
(1.9575211 0 0)
(1.9526134 0 0)
(1.9471347 0 0)
(1.9995994 0 0)
(1.9994624 0 0)
(1.9990554 0 0)
(1.9983854 0 0)
(1.9974578 0 0)
(1.9962761 0 0)
(1.9948425 0 0)
(1.9931583 0 0)
(1.9912235 0 0)
(1.9890373 0 0)
(1.986598 0 0)
(1.9839033 0 0)
(1.9809501 0 0)
(1.9777347 0 0)
(1.9742526 0 0)
(1.970499 0 0)
(1.9664683 0 0)
(1.9621545 0 0)
(1.9575508 0 0)
(1.9526517 0 0)
(1.9472457 0 0)
(1.9995994 0 0)
(1.9994626 0 0)
(1.999056 0 0)
(1.9983866 0 0)
(1.9974596 0 0)
(1.9962785 0 0)
(1.9948457 0 0)
(1.9931622 0 0)
(1.9912281 0 0)
(1.9890428 0 0)
(1.9866047 0 0)
(1.9839115 0 0)
(1.9809603 0 0)
(1.9777474 0 0)
(1.9742687 0 0)
(1.9705196 0 0)
(1.9664946 0 0)
(1.9621881 0 0)
(1.9575936 0 0)
(1.9527051 0 0)
(1.9473821 0 0)
(1.9995994 0 0)
(1.9994628 0 0)
(1.9990568 0 0)
(1.9983883 0 0)
(1.9974623 0 0)
(1.9962823 0 0)
(1.9948505 0 0)
(1.9931681 0 0)
(1.9912354 0 0)
(1.9890515 0 0)
(1.986615 0 0)
(1.9839237 0 0)
(1.9809748 0 0)
(1.9777649 0 0)
(1.9742901 0 0)
(1.9705458 0 0)
(1.9665271 0 0)
(1.9622286 0 0)
(1.9576445 0 0)
(1.9527704 0 0)
(1.9475483 0 0)
(1.9995994 0 0)
(1.9994636 0 0)
(1.9990602 0 0)
(1.9983962 0 0)
(1.9974768 0 0)
(1.9963056 0 0)
(1.9948847 0 0)
(1.9932151 0 0)
(1.9912965 0 0)
(1.9891277 0 0)
(1.9867068 0 0)
(1.9840307 0 0)
(1.9810961 0 0)
(1.9778984 0 0)
(1.9744326 0 0)
(1.9706932 0 0)
(1.9666737 0 0)
(1.9623671 0 0)
(1.9577658 0 0)
(1.9528656 0 0)
(1.9472083 0 0)
(1.9995994 0 0)
(1.9994634 0 0)
(1.9990592 0 0)
(1.9983941 0 0)
(1.9974732 0 0)
(1.9963001 0 0)
(1.9948771 0 0)
(1.9932049 0 0)
(1.9912834 0 0)
(1.9891114 0 0)
(1.9866869 0 0)
(1.9840071 0 0)
(1.9810684 0 0)
(1.9778664 0 0)
(1.9743961 0 0)
(1.9706518 0 0)
(1.9666272 0 0)
(1.9623152 0 0)
(1.9577082 0 0)
(1.9528021 0 0)
(1.9471442 0 0)
(1.9995994 0 0)
(1.999463 0 0)
(1.9990576 0 0)
(1.9983906 0 0)
(1.9974671 0 0)
(1.9962908 0 0)
(1.9948639 0 0)
(1.9931873 0 0)
(1.9912609 0 0)
(1.9890835 0 0)
(1.9866532 0 0)
(1.9839672 0 0)
(1.9810218 0 0)
(1.9778128 0 0)
(1.9743352 0 0)
(1.9705834 0 0)
(1.9665511 0 0)
(1.9622312 0 0)
(1.9576163 0 0)
(1.9527021 0 0)
(1.947053 0 0)
(1.9995994 0 0)
(1.9994626 0 0)
(1.9990564 0 0)
(1.9983879 0 0)
(1.9974625 0 0)
(1.9962837 0 0)
(1.9948539 0 0)
(1.9931739 0 0)
(1.9912437 0 0)
(1.9890623 0 0)
(1.9866276 0 0)
(1.983937 0 0)
(1.9809869 0 0)
(1.977773 0 0)
(1.9742906 0 0)
(1.9705339 0 0)
(1.9664969 0 0)
(1.9621727 0 0)
(1.9575538 0 0)
(1.9526358 0 0)
(1.9470096 0 0)
(1.9995994 0 0)
(1.9994624 0 0)
(1.9990556 0 0)
(1.9983861 0 0)
(1.9974593 0 0)
(1.9962788 0 0)
(1.9948469 0 0)
(1.9931646 0 0)
(1.9912317 0 0)
(1.9890475 0 0)
(1.9866099 0 0)
(1.9839163 0 0)
(1.9809631 0 0)
(1.9777465 0 0)
(1.9742614 0 0)
(1.9705025 0 0)
(1.9664636 0 0)
(1.9621382 0 0)
(1.9575189 0 0)
(1.9526011 0 0)
(1.9470114 0 0)
(1.9995994 0 0)
(1.9994623 0 0)
(1.9990552 0 0)
(1.9983851 0 0)
(1.9974575 0 0)
(1.996276 0 0)
(1.9948428 0 0)
(1.9931591 0 0)
(1.9912247 0 0)
(1.9890388 0 0)
(1.9865996 0 0)
(1.9839044 0 0)
(1.98095 0 0)
(1.9777323 0 0)
(1.9742466 0 0)
(1.9704877 0 0)
(1.9664495 0 0)
(1.9621257 0 0)
(1.9575091 0 0)
(1.952595 0 0)
(1.9470548 0 0)
(1.9995994 0 0)
(1.9994623 0 0)
(1.9990551 0 0)
(1.9983849 0 0)
(1.997457 0 0)
(1.9962751 0 0)
(1.9948415 0 0)
(1.9931571 0 0)
(1.9912221 0 0)
(1.9890357 0 0)
(1.9865959 0 0)
(1.9839005 0 0)
(1.9809461 0 0)
(1.9777289 0 0)
(1.9742444 0 0)
(1.9704874 0 0)
(1.9664521 0 0)
(1.9621323 0 0)
(1.9575211 0 0)
(1.9526134 0 0)
(1.9471347 0 0)
(1.9995994 0 0)
(1.9994624 0 0)
(1.9990554 0 0)
(1.9983854 0 0)
(1.9974578 0 0)
(1.9962761 0 0)
(1.9948425 0 0)
(1.9931583 0 0)
(1.9912235 0 0)
(1.9890373 0 0)
(1.986598 0 0)
(1.9839033 0 0)
(1.9809501 0 0)
(1.9777347 0 0)
(1.9742526 0 0)
(1.970499 0 0)
(1.9664683 0 0)
(1.9621545 0 0)
(1.9575508 0 0)
(1.9526517 0 0)
(1.9472457 0 0)
(1.9995994 0 0)
(1.9994626 0 0)
(1.999056 0 0)
(1.9983866 0 0)
(1.9974596 0 0)
(1.9962785 0 0)
(1.9948457 0 0)
(1.9931622 0 0)
(1.9912281 0 0)
(1.9890428 0 0)
(1.9866047 0 0)
(1.9839115 0 0)
(1.9809603 0 0)
(1.9777474 0 0)
(1.9742687 0 0)
(1.9705196 0 0)
(1.9664946 0 0)
(1.9621881 0 0)
(1.9575936 0 0)
(1.9527051 0 0)
(1.9473821 0 0)
(1.9995994 0 0)
(1.9994628 0 0)
(1.9990568 0 0)
(1.9983883 0 0)
(1.9974623 0 0)
(1.9962823 0 0)
(1.9948505 0 0)
(1.9931681 0 0)
(1.9912354 0 0)
(1.9890515 0 0)
(1.986615 0 0)
(1.9839237 0 0)
(1.9809748 0 0)
(1.9777649 0 0)
(1.9742901 0 0)
(1.9705458 0 0)
(1.9665271 0 0)
(1.9622286 0 0)
(1.9576445 0 0)
(1.9527704 0 0)
(1.9475483 0 0)
(1.9401982 0 0)
(1.9322405 0 0)
(1.9237759 0 0)
(1.9147875 0 0)
(1.9052619 0 0)
(1.8951838 0 0)
(1.8845367 0 0)
(1.8733023 0 0)
(1.8614587 0 0)
(1.8489788 0 0)
(1.8358334 0 0)
(1.8219919 0 0)
(1.8074226 0 0)
(1.792092 0 0)
(1.7759636 0 0)
(1.7589978 0 0)
(1.7411514 0 0)
(1.7223781 0 0)
(1.7026279 0 0)
(1.6818471 0 0)
(1.6599775 0 0)
(1.6369561 0 0)
(1.6127144 0 0)
(1.5871797 0 0)
(1.5602743 0 0)
(1.5319129 0 0)
(1.5020026 0 0)
(1.4704437 0 0)
(1.4371284 0 0)
(1.4019393 0 0)
(1.3647493 0 0)
(1.3254222 0 0)
(1.2838086 0 0)
(1.2397462 0 0)
(1.1930628 0 0)
(1.1435705 0 0)
(1.0910609 0 0)
(1.0353083 0 0)
(0.97607425 0 0)
(0.91310557 0 0)
(0.84611627 0 0)
(0.77479514 0 0)
(0.69879972 0 0)
(0.61775913 0 0)
(0.53126426 0 0)
(0.43886 0 0)
(0.34006473 0 0)
(0.23434138 0 0)
(0.12106944 0 0)
(0 0 0)
(1.9401457 0 0)
(1.9322054 0 0)
(1.9237572 0 0)
(1.9147843 0 0)
(1.9052733 0 0)
(1.8952089 0 0)
(1.8845751 0 0)
(1.8733539 0 0)
(1.8615231 0 0)
(1.8490557 0 0)
(1.835922 0 0)
(1.8220915 0 0)
(1.8075322 0 0)
(1.7922109 0 0)
(1.7760913 0 0)
(1.7591335 0 0)
(1.7412945 0 0)
(1.722528 0 0)
(1.7027841 0 0)
(1.682009 0 0)
(1.6601446 0 0)
(1.6371279 0 0)
(1.6128904 0 0)
(1.5873592 0 0)
(1.5604568 0 0)
(1.532098 0 0)
(1.5021895 0 0)
(1.4706319 0 0)
(1.4373175 0 0)
(1.4021286 0 0)
(1.3649381 0 0)
(1.3256098 0 0)
(1.2839945 0 0)
(1.2399296 0 0)
(1.1932429 0 0)
(1.1437466 0 0)
(1.0912322 0 0)
(1.0354739 0 0)
(0.976233 0 0)
(0.91325645 0 0)
(0.84625817 0 0)
(0.77492707 0 0)
(0.69892055 0 0)
(0.61786763 0 0)
(0.53135908 0 0)
(0.43893958 0 0)
(0.34012735 0 0)
(0.23438515 0 0)
(0.12109226 0 0)
(0 0 0)
(1.9400971 0 0)
(1.9322142 0 0)
(1.9238208 0 0)
(1.9148998 0 0)
(1.9054379 0 0)
(1.8954202 0 0)
(1.884831 0 0)
(1.8736524 0 0)
(1.8618622 0 0)
(1.8494332 0 0)
(1.8363357 0 0)
(1.822539 0 0)
(1.8080114 0 0)
(1.7927196 0 0)
(1.7766276 0 0)
(1.7596958 0 0)
(1.7418808 0 0)
(1.7231363 0 0)
(1.7034128 0 0)
(1.6826564 0 0)
(1.6608091 0 0)
(1.6378076 0 0)
(1.6135837 0 0)
(1.5880644 0 0)
(1.5611722 0 0)
(1.5328219 0 0)
(1.5029203 0 0)
(1.4713676 0 0)
(1.4380563 0 0)
(1.4028684 0 0)
(1.3656769 0 0)
(1.3263452 0 0)
(1.2847242 0 0)
(1.2406512 0 0)
(1.1939534 0 0)
(1.1444431 0 0)
(1.0919115 0 0)
(1.0361326 0 0)
(0.97686713 0 0)
(0.91386194 0 0)
(0.8468306 0 0)
(0.77546175 0 0)
(0.6994123 0 0)
(0.61831063 0 0)
(0.53174721 0 0)
(0.43926614 0 0)
(0.34038486 0 0)
(0.23456548 0 0)
(0.1211865 0 0)
(0 0 0)
(1.9401293 0 0)
(1.932345 0 0)
(1.9240454 0 0)
(1.9152135 0 0)
(1.905836 0 0)
(1.8958985 0 0)
(1.8853852 0 0)
(1.8742787 0 0)
(1.8625566 0 0)
(1.8501916 0 0)
(1.8371544 0 0)
(1.8234142 0 0)
(1.8089394 0 0)
(1.7936969 0 0)
(1.777651 0 0)
(1.7607621 0 0)
(1.7429868 0 0)
(1.724279 0 0)
(1.7045891 0 0)
(1.6838632 0 0)
(1.6620434 0 0)
(1.6390666 0 0)
(1.6148643 0 0)
(1.5893637 0 0)
(1.5624874 0 0)
(1.5341502 0 0)
(1.5042585 0 0)
(1.4727126 0 0)
(1.4394048 0 0)
(1.404217 0 0)
(1.3670217 0 0)
(1.3276824 0 0)
(1.2860496 0 0)
(1.2419601 0 0)
(1.1952411 0 0)
(1.1457043 0 0)
(1.0931406 0 0)
(1.0373234 0 0)
(0.97801277 0 0)
(0.91495527 0 0)
(0.84786378 0 0)
(0.77642629 0 0)
(0.70029884 0 0)
(0.61910878 0 0)
(0.532446 0 0)
(0.43985361 0 0)
(0.34084781 0 0)
(0.23488946 0 0)
(0.1213556 0 0)
(0 0 0)
(1.940239 0 0)
(1.9325938 0 0)
(1.9244267 0 0)
(1.9157208 0 0)
(1.9064626 0 0)
(1.8966381 0 0)
(1.8862318 0 0)
(1.8752265 0 0)
(1.8635993 0 0)
(1.8513237 0 0)
(1.8383706 0 0)
(1.8247095 0 0)
(1.8103084 0 0)
(1.7951347 0 0)
(1.779153 0 0)
(1.7623239 0 0)
(1.7446039 0 0)
(1.7259471 0 0)
(1.7063038 0 0)
(1.6856202 0 0)
(1.6638383 0 0)
(1.6408952 0 0)
(1.6167223 0 0)
(1.5912472 0 0)
(1.5643923 0 0)
(1.5360725 0 0)
(1.5061939 0 0)
(1.4746564 0 0)
(1.4413525 0 0)
(1.4061636 0 0)
(1.3689619 0 0)
(1.3296106 0 0)
(1.2879598 0 0)
(1.2438461 0 0)
(1.1970957 0 0)
(1.1475201 0 0)
(1.0949095 0 0)
(1.0390367 0 0)
(0.97966072 0 0)
(0.91652763 0 0)
(0.8493494 0 0)
(0.7778129 0 0)
(0.70157308 0 0)
(0.62025564 0 0)
(0.53344983 0 0)
(0.44069734 0 0)
(0.34151246 0 0)
(0.23535433 0 0)
(0.12159822 0 0)
(0 0 0)
(1.9404216 0 0)
(1.9329553 0 0)
(1.9249588 0 0)
(1.916415 0 0)
(1.9073104 0 0)
(1.8976312 0 0)
(1.8873626 0 0)
(1.8764867 0 0)
(1.8649809 0 0)
(1.8528196 0 0)
(1.8399748 0 0)
(1.8264153 0 0)
(1.8121086 0 0)
(1.7970228 0 0)
(1.7811233 0 0)
(1.7643704 0 0)
(1.746721 0 0)
(1.7281293 0 0)
(1.7085456 0 0)
(1.6879155 0 0)
(1.6661816 0 0)
(1.6432811 0 0)
(1.6191453 0 0)
(1.5937019 0 0)
(1.5668737 0 0)
(1.5385753 0 0)
(1.5087126 0 0)
(1.4771853 0 0)
(1.4438854 0 0)
(1.4086943 0 0)
(1.3714835 0 0)
(1.3321159 0 0)
(1.2904412 0 0)
(1.2462951 0 0)
(1.1995036 0 0)
(1.1498772 0 0)
(1.0972053 0 0)
(1.0412598 0 0)
(0.98179879 0 0)
(0.91856741 0 0)
(0.85127632 0 0)
(0.7796112 0 0)
(0.70322535 0 0)
(0.62174266 0 0)
(0.53475118 0 0)
(0.44179099 0 0)
(0.34237374 0 0)
(0.23595664 0 0)
(0.1219125 0 0)
(0 0 0)
(1.9406712 0 0)
(1.9334223 0 0)
(1.9256335 0 0)
(1.917287 0 0)
(1.9083695 0 0)
(1.8988674 0 0)
(1.8887664 0 0)
(1.878048 0 0)
(1.8666897 0 0)
(1.8546668 0 0)
(1.841954 0 0)
(1.8285191 0 0)
(1.8143275 0 0)
(1.7993482 0 0)
(1.7835484 0 0)
(1.766888 0 0)
(1.7493241 0 0)
(1.7308112 0 0)
(1.7112996 0 0)
(1.6907342 0 0)
(1.669058 0 0)
(1.6462085 0 0)
(1.6221168 0 0)
(1.5967111 0 0)
(1.5699146 0 0)
(1.5416415 0 0)
(1.5117973 0 0)
(1.4802815 0 0)
(1.4469858 0 0)
(1.411791 0 0)
(1.3745684 0 0)
(1.3351802 0 0)
(1.2934756 0 0)
(1.2492895 0 0)
(1.2024472 0 0)
(1.1527582 0 0)
(1.100011 0 0)
(1.0439764 0 0)
(0.98441114 0 0)
(0.92105937 0 0)
(0.85363029 0 0)
(0.78180773 0 0)
(0.7052433 0 0)
(0.62355856 0 0)
(0.53634025 0 0)
(0.44312628 0 0)
(0.34342518 0 0)
(0.23669179 0 0)
(0.12229595 0 0)
(0 0 0)
(1.9409808 0 0)
(1.9339867 0 0)
(1.9264416 0 0)
(1.9183266 0 0)
(1.9096281 0 0)
(1.9003337 0 0)
(1.8904299 0 0)
(1.8798976 0 0)
(1.8687117 0 0)
(1.8568511 0 0)
(1.8442953 0 0)
(1.8310083 0 0)
(1.8169506 0 0)
(1.8020954 0 0)
(1.7864122 0 0)
(1.76986 0 0)
(1.7523957 0 0)
(1.7339751 0 0)
(1.714548 0 0)
(1.6940579 0 0)
(1.6724487 0 0)
(1.6496583 0 0)
(1.6256173 0 0)
(1.6002548 0 0)
(1.5734944 0 0)
(1.5452501 0 0)
(1.5154267 0 0)
(1.4839234 0 0)
(1.4506318 0 0)
(1.415432 0 0)
(1.3781948 0 0)
(1.3387818 0 0)
(1.2970414 0 0)
(1.2528077 0 0)
(1.2059051 0 0)
(1.1561422 0 0)
(1.1033062 0 0)
(1.0471664 0 0)
(0.98747855 0 0)
(0.92398521 0 0)
(0.85639377 0 0)
(0.78438617 0 0)
(0.70761188 0 0)
(0.6256899 0 0)
(0.53820518 0 0)
(0.44469321 0 0)
(0.34465891 0 0)
(0.23755421 0 0)
(0.12274562 0 0)
(0 0 0)
(1.9413429 0 0)
(1.9346393 0 0)
(1.9273728 0 0)
(1.9195222 0 0)
(1.9110734 0 0)
(1.9020167 0 0)
(1.8923413 0 0)
(1.8820248 0 0)
(1.8710399 0 0)
(1.8593665 0 0)
(1.8469856 0 0)
(1.8338631 0 0)
(1.81996 0 0)
(1.8052486 0 0)
(1.7896989 0 0)
(1.7732702 0 0)
(1.7559188 0 0)
(1.7376029 0 0)
(1.7182717 0 0)
(1.6978657 0 0)
(1.6763316 0 0)
(1.6536083 0 0)
(1.6296239 0 0)
(1.6043092 0 0)
(1.5775891 0 0)
(1.5493765 0 0)
(1.5195759 0 0)
(1.488086 0 0)
(1.4547982 0 0)
(1.4195918 0 0)
(1.3823369 0 0)
(1.3428948 0 0)
(1.3011129 0 0)
(1.2568243 0 0)
(1.2098523 0 0)
(1.1600047 0 0)
(1.1070668 0 0)
(1.0508067 0 0)
(0.99097857 0 0)
(0.9273234 0 0)
(0.85954647 0 0)
(0.78732739 0 0)
(0.71031341 0 0)
(0.62812072 0 0)
(0.54033218 0 0)
(0.44648014 0 0)
(0.3460656 0 0)
(0.23853733 0 0)
(0.12325809 0 0)
(0 0 0)
(1.9417685 0 0)
(1.9353926 0 0)
(1.92844 0 0)
(1.920887 0 0)
(1.9127215 0 0)
(1.903937 0 0)
(1.8945193 0 0)
(1.884445 0 0)
(1.8736883 0 0)
(1.8622253 0 0)
(1.8500362 0 0)
(1.837096 0 0)
(1.8233687 0 0)
(1.8088203 0 0)
(1.7934207 0 0)
(1.7771293 0 0)
(1.7599007 0 0)
(1.741697 0 0)
(1.7224694 0 0)
(1.7021573 0 0)
(1.6807089 0 0)
(1.6580594 0 0)
(1.6341351 0 0)
(1.6088712 0 0)
(1.5821942 0 0)
(1.5540153 0 0)
(1.5242382 0 0)
(1.4927617 0 0)
(1.4594762 0 0)
(1.4242607 0 0)
(1.3869845 0 0)
(1.3475082 0 0)
(1.3056783 0 0)
(1.2613267 0 0)
(1.2142759 0 0)
(1.164332 0 0)
(1.1112789 0 0)
(1.0548832 0 0)
(0.99489716 0 0)
(0.93106006 0 0)
(0.86307472 0 0)
(0.79061822 0 0)
(0.7133353 0 0)
(0.63083939 0 0)
(0.54271068 0 0)
(0.44847787 0 0)
(0.34763785 0 0)
(0.23963585 0 0)
(0.1238304 0 0)
(0 0 0)
(1.9408015 0 0)
(1.9347344 0 0)
(1.9280818 0 0)
(1.9208201 0 0)
(1.9129406 0 0)
(1.9044317 0 0)
(1.8952736 0 0)
(1.8854479 0 0)
(1.8749294 0 0)
(1.8636902 0 0)
(1.851711 0 0)
(1.8389711 0 0)
(1.8254353 0 0)
(1.8110676 0 0)
(1.795837 0 0)
(1.779703 0 0)
(1.7626212 0 0)
(1.7445549 0 0)
(1.7254566 0 0)
(1.7052683 0 0)
(1.683934 0 0)
(1.6613852 0 0)
(1.6375522 0 0)
(1.6123731 0 0)
(1.5857731 0 0)
(1.5576629 0 0)
(1.5279455 0 0)
(1.4965194 0 0)
(1.4632747 0 0)
(1.4280896 0 0)
(1.3908327 0 0)
(1.3513639 0 0)
(1.3095289 0 0)
(1.2651582 0 0)
(1.218073 0 0)
(1.1680784 0 0)
(1.1149564 0 0)
(1.0584718 0 0)
(0.99837488 0 0)
(0.93440281 0 0)
(0.86625617 0 0)
(0.79360887 0 0)
(0.71610316 0 0)
(0.63334928 0 0)
(0.54492447 0 0)
(0.45035338 0 0)
(0.34912822 0 0)
(0.24069054 0 0)
(0.12439454 0 0)
(0 0 0)
(1.9401982 0 0)
(1.9322405 0 0)
(1.9237759 0 0)
(1.9147875 0 0)
(1.9052619 0 0)
(1.8951838 0 0)
(1.8845367 0 0)
(1.8733023 0 0)
(1.8614587 0 0)
(1.8489788 0 0)
(1.8358334 0 0)
(1.8219919 0 0)
(1.8074226 0 0)
(1.792092 0 0)
(1.7759636 0 0)
(1.7589978 0 0)
(1.7411514 0 0)
(1.7223781 0 0)
(1.7026279 0 0)
(1.6818471 0 0)
(1.6599775 0 0)
(1.6369561 0 0)
(1.6127144 0 0)
(1.5871797 0 0)
(1.5602743 0 0)
(1.5319129 0 0)
(1.5020026 0 0)
(1.4704437 0 0)
(1.4371284 0 0)
(1.4019393 0 0)
(1.3647493 0 0)
(1.3254222 0 0)
(1.2838086 0 0)
(1.2397462 0 0)
(1.1930628 0 0)
(1.1435705 0 0)
(1.0910609 0 0)
(1.0353083 0 0)
(0.97607425 0 0)
(0.91310557 0 0)
(0.84611627 0 0)
(0.77479514 0 0)
(0.69879972 0 0)
(0.61775913 0 0)
(0.53126426 0 0)
(0.43886 0 0)
(0.34006473 0 0)
(0.23434138 0 0)
(0.12106944 0 0)
(0 0 0)
(1.9401457 0 0)
(1.9322054 0 0)
(1.9237572 0 0)
(1.9147843 0 0)
(1.9052733 0 0)
(1.8952089 0 0)
(1.8845751 0 0)
(1.8733539 0 0)
(1.8615231 0 0)
(1.8490557 0 0)
(1.835922 0 0)
(1.8220915 0 0)
(1.8075322 0 0)
(1.7922109 0 0)
(1.7760913 0 0)
(1.7591335 0 0)
(1.7412945 0 0)
(1.722528 0 0)
(1.7027841 0 0)
(1.682009 0 0)
(1.6601446 0 0)
(1.6371279 0 0)
(1.6128904 0 0)
(1.5873592 0 0)
(1.5604568 0 0)
(1.532098 0 0)
(1.5021895 0 0)
(1.4706319 0 0)
(1.4373175 0 0)
(1.4021286 0 0)
(1.3649381 0 0)
(1.3256098 0 0)
(1.2839945 0 0)
(1.2399296 0 0)
(1.1932429 0 0)
(1.1437466 0 0)
(1.0912322 0 0)
(1.0354739 0 0)
(0.976233 0 0)
(0.91325645 0 0)
(0.84625817 0 0)
(0.77492707 0 0)
(0.69892055 0 0)
(0.61786763 0 0)
(0.53135908 0 0)
(0.43893958 0 0)
(0.34012735 0 0)
(0.23438515 0 0)
(0.12109226 0 0)
(0 0 0)
(1.9400971 0 0)
(1.9322142 0 0)
(1.9238208 0 0)
(1.9148998 0 0)
(1.9054379 0 0)
(1.8954202 0 0)
(1.884831 0 0)
(1.8736524 0 0)
(1.8618622 0 0)
(1.8494332 0 0)
(1.8363357 0 0)
(1.822539 0 0)
(1.8080114 0 0)
(1.7927196 0 0)
(1.7766276 0 0)
(1.7596958 0 0)
(1.7418808 0 0)
(1.7231363 0 0)
(1.7034128 0 0)
(1.6826564 0 0)
(1.6608091 0 0)
(1.6378076 0 0)
(1.6135837 0 0)
(1.5880644 0 0)
(1.5611722 0 0)
(1.5328219 0 0)
(1.5029203 0 0)
(1.4713676 0 0)
(1.4380563 0 0)
(1.4028684 0 0)
(1.3656769 0 0)
(1.3263452 0 0)
(1.2847242 0 0)
(1.2406512 0 0)
(1.1939534 0 0)
(1.1444431 0 0)
(1.0919115 0 0)
(1.0361326 0 0)
(0.97686713 0 0)
(0.91386194 0 0)
(0.8468306 0 0)
(0.77546175 0 0)
(0.6994123 0 0)
(0.61831063 0 0)
(0.53174721 0 0)
(0.43926614 0 0)
(0.34038486 0 0)
(0.23456548 0 0)
(0.1211865 0 0)
(0 0 0)
(1.9401293 0 0)
(1.932345 0 0)
(1.9240454 0 0)
(1.9152135 0 0)
(1.905836 0 0)
(1.8958985 0 0)
(1.8853852 0 0)
(1.8742787 0 0)
(1.8625566 0 0)
(1.8501916 0 0)
(1.8371544 0 0)
(1.8234142 0 0)
(1.8089394 0 0)
(1.7936969 0 0)
(1.777651 0 0)
(1.7607621 0 0)
(1.7429868 0 0)
(1.724279 0 0)
(1.7045891 0 0)
(1.6838632 0 0)
(1.6620434 0 0)
(1.6390666 0 0)
(1.6148643 0 0)
(1.5893637 0 0)
(1.5624874 0 0)
(1.5341502 0 0)
(1.5042585 0 0)
(1.4727126 0 0)
(1.4394048 0 0)
(1.404217 0 0)
(1.3670217 0 0)
(1.3276824 0 0)
(1.2860496 0 0)
(1.2419601 0 0)
(1.1952411 0 0)
(1.1457043 0 0)
(1.0931406 0 0)
(1.0373234 0 0)
(0.97801277 0 0)
(0.91495527 0 0)
(0.84786378 0 0)
(0.77642629 0 0)
(0.70029884 0 0)
(0.61910878 0 0)
(0.532446 0 0)
(0.43985361 0 0)
(0.34084781 0 0)
(0.23488946 0 0)
(0.1213556 0 0)
(0 0 0)
(1.940239 0 0)
(1.9325938 0 0)
(1.9244267 0 0)
(1.9157208 0 0)
(1.9064626 0 0)
(1.8966381 0 0)
(1.8862318 0 0)
(1.8752265 0 0)
(1.8635993 0 0)
(1.8513237 0 0)
(1.8383706 0 0)
(1.8247095 0 0)
(1.8103084 0 0)
(1.7951347 0 0)
(1.779153 0 0)
(1.7623239 0 0)
(1.7446039 0 0)
(1.7259471 0 0)
(1.7063038 0 0)
(1.6856202 0 0)
(1.6638383 0 0)
(1.6408952 0 0)
(1.6167223 0 0)
(1.5912472 0 0)
(1.5643923 0 0)
(1.5360725 0 0)
(1.5061939 0 0)
(1.4746564 0 0)
(1.4413525 0 0)
(1.4061636 0 0)
(1.3689619 0 0)
(1.3296106 0 0)
(1.2879598 0 0)
(1.2438461 0 0)
(1.1970957 0 0)
(1.1475201 0 0)
(1.0949095 0 0)
(1.0390367 0 0)
(0.97966072 0 0)
(0.91652763 0 0)
(0.8493494 0 0)
(0.7778129 0 0)
(0.70157308 0 0)
(0.62025564 0 0)
(0.53344983 0 0)
(0.44069734 0 0)
(0.34151246 0 0)
(0.23535433 0 0)
(0.12159822 0 0)
(0 0 0)
(1.9404216 0 0)
(1.9329553 0 0)
(1.9249588 0 0)
(1.916415 0 0)
(1.9073104 0 0)
(1.8976312 0 0)
(1.8873626 0 0)
(1.8764867 0 0)
(1.8649809 0 0)
(1.8528196 0 0)
(1.8399748 0 0)
(1.8264153 0 0)
(1.8121086 0 0)
(1.7970228 0 0)
(1.7811233 0 0)
(1.7643704 0 0)
(1.746721 0 0)
(1.7281293 0 0)
(1.7085456 0 0)
(1.6879155 0 0)
(1.6661816 0 0)
(1.6432811 0 0)
(1.6191453 0 0)
(1.5937019 0 0)
(1.5668737 0 0)
(1.5385753 0 0)
(1.5087126 0 0)
(1.4771853 0 0)
(1.4438854 0 0)
(1.4086943 0 0)
(1.3714835 0 0)
(1.3321159 0 0)
(1.2904412 0 0)
(1.2462951 0 0)
(1.1995036 0 0)
(1.1498772 0 0)
(1.0972053 0 0)
(1.0412598 0 0)
(0.98179879 0 0)
(0.91856741 0 0)
(0.85127632 0 0)
(0.7796112 0 0)
(0.70322535 0 0)
(0.62174266 0 0)
(0.53475118 0 0)
(0.44179099 0 0)
(0.34237374 0 0)
(0.23595664 0 0)
(0.1219125 0 0)
(0 0 0)
(1.9406712 0 0)
(1.9334223 0 0)
(1.9256335 0 0)
(1.917287 0 0)
(1.9083695 0 0)
(1.8988674 0 0)
(1.8887664 0 0)
(1.878048 0 0)
(1.8666897 0 0)
(1.8546668 0 0)
(1.841954 0 0)
(1.8285191 0 0)
(1.8143275 0 0)
(1.7993482 0 0)
(1.7835484 0 0)
(1.766888 0 0)
(1.7493241 0 0)
(1.7308112 0 0)
(1.7112996 0 0)
(1.6907342 0 0)
(1.669058 0 0)
(1.6462085 0 0)
(1.6221168 0 0)
(1.5967111 0 0)
(1.5699146 0 0)
(1.5416415 0 0)
(1.5117973 0 0)
(1.4802815 0 0)
(1.4469858 0 0)
(1.411791 0 0)
(1.3745684 0 0)
(1.3351802 0 0)
(1.2934756 0 0)
(1.2492895 0 0)
(1.2024472 0 0)
(1.1527582 0 0)
(1.100011 0 0)
(1.0439764 0 0)
(0.98441114 0 0)
(0.92105937 0 0)
(0.85363029 0 0)
(0.78180773 0 0)
(0.7052433 0 0)
(0.62355856 0 0)
(0.53634025 0 0)
(0.44312628 0 0)
(0.34342518 0 0)
(0.23669179 0 0)
(0.12229595 0 0)
(0 0 0)
(1.9409808 0 0)
(1.9339867 0 0)
(1.9264416 0 0)
(1.9183266 0 0)
(1.9096281 0 0)
(1.9003337 0 0)
(1.8904299 0 0)
(1.8798976 0 0)
(1.8687117 0 0)
(1.8568511 0 0)
(1.8442953 0 0)
(1.8310083 0 0)
(1.8169506 0 0)
(1.8020954 0 0)
(1.7864122 0 0)
(1.76986 0 0)
(1.7523957 0 0)
(1.7339751 0 0)
(1.714548 0 0)
(1.6940579 0 0)
(1.6724487 0 0)
(1.6496583 0 0)
(1.6256173 0 0)
(1.6002548 0 0)
(1.5734944 0 0)
(1.5452501 0 0)
(1.5154267 0 0)
(1.4839234 0 0)
(1.4506318 0 0)
(1.415432 0 0)
(1.3781948 0 0)
(1.3387818 0 0)
(1.2970414 0 0)
(1.2528077 0 0)
(1.2059051 0 0)
(1.1561422 0 0)
(1.1033062 0 0)
(1.0471664 0 0)
(0.98747855 0 0)
(0.92398521 0 0)
(0.85639377 0 0)
(0.78438617 0 0)
(0.70761188 0 0)
(0.6256899 0 0)