/*--------------------------------*- C++ -*----------------------------------*\
| =========                 |                                                 |
| \\      /  F ield         | OpenFOAM: The Open Source CFD Toolbox           |
|  \\    /   O peration     | Version:  v2012                                 |
|   \\  /    A nd           | Website:  www.openfoam.com                      |
|    \\/     M anipulation  |                                                 |
\*---------------------------------------------------------------------------*/
FoamFile
{
    version     2.0;
    format      ascii;
    class       volVectorField;
    location    "45.4230374874372984";
    object      U;
}
// * * * * * * * * * * * * * * * * * * * * * * * * * * * * * * * * * * * * * //

dimensions      [0 1 -1 0 0 0 0];


internalField   nonuniform List<vector> 
9200
(
(2.6585407 3.5482611e-05 8.3226034e-22)
(2.6599711 -0.00020534028 -8.1800436e-22)
(2.6583601 0.00046292649 -6.12308e-23)
(2.6622588 -0.00011500905 -1.3630504e-21)
(2.6597392 0.0012685464 -8.4676388e-22)
(2.657409 0.0006493611 5.9987758e-22)
(2.6656541 -0.00038939334 -1.7510725e-23)
(2.662019 0.0023865686 1.0040165e-22)
(2.6586487 0.0018922467 0)
(2.656321 0.0007968221 -1.052428e-22)
(2.6699416 -0.00048657528 1.8710212e-21)
(2.6654407 0.0033587273 1.5902071e-22)
(2.6607224 0.0034766216 4.3832292e-21)
(2.657386 0.0024180744 8.29237e-23)
(2.6550425 0.00086054405 -2.3563468e-21)
(2.675184 -0.00094424731 1.6088312e-21)
(2.6698108 0.0047250926 2.1468001e-21)
(2.6638248 0.005046585 1.2181634e-22)
(2.6591905 0.00439967 2.6360513e-22)
(2.6558935 0.0026290413 2.0751185e-21)
(2.6537948 0.0008482702 -1.9644464e-21)
(2.6813244 -0.0015327475 -1.601214e-21)
(2.6753076 0.0060534908 -3.6707402e-22)
(2.6677803 0.0071675873 -1.0081818e-21)
(2.6618702 0.006489143 -3.5512388e-21)
(2.6573625 0.0047871909 -5.1541182e-21)
(2.6544275 0.0025531825 -2.0067935e-22)
(2.6526845 0.00075624583 1.0796972e-21)
(2.6883966 -0.0026026653 -2.8281742e-23)
(2.6819072 0.0076439308 -2.5638555e-21)
(2.6727639 0.0094908914 -2.0052775e-21)
(2.6652574 0.0092750994 -2.0796012e-21)
(2.6594953 0.007129133 2.1149707e-21)
(2.6555443 0.0046813151 8.436733e-22)
(2.6531113 0.0022006871 -1.75895e-21)
(2.6518051 0.0005928457 8.0666737e-22)
(2.6963969 -0.0041907949 1.1698414e-21)
(2.6897959 0.0092249002 8.5008554e-22)
(2.6787545 0.012380859 3.0179459e-22)
(2.6695058 0.01249105 -1.8465045e-22)
(2.6621312 0.010261924 7.4780956e-22)
(2.6570973 0.007015783 2.8466832e-21)
(2.6538898 0.0041038206 1.7526843e-21)
(2.6520577 0.0016113426 5.845447e-25)
(2.6512374 0.00037973391 9.7546241e-23)
(2.7053398 -0.0065718861 -9.7448509e-23)
(2.6990868 0.010844898 -1.0122927e-21)
(2.6859475 0.015673114 -1.2141831e-21)
(2.6745714 0.016563839 2.069026e-22)
(2.6653673 0.013974479 3.3771984e-23)
(2.6589322 0.010175492 9.7831315e-22)
(2.6548849 0.0061815049 -2.8711916e-21)
(2.6525525 0.0031317592 -2.6393452e-21)
(2.6513374 0.00085672311 -1.1686235e-21)
(2.6510798 0.00014229209 -7.2946405e-22)
(2.7152197 -0.0099542098 1.5039304e-21)
(2.7099925 0.012305542 -2.84548e-22)
(2.6944719 0.0195257 -1.2303591e-21)
(2.680619 0.021435411 -6.4679427e-22)
(2.6691097 0.018730322 2.2909128e-21)
(2.6610785 0.013969326 6.9119338e-22)
(2.6559518 0.0090617945 -4.8358388e-23)
(2.6530651 0.0047475069 8.142646e-23)
(2.6516231 0.001874756 1.0998696e-22)
(2.6510825 2.4150209e-05 6.315224e-22)
(2.6511498 -8.1888977e-05 1.1222748e-22)
(2.7260244 -0.014631272 1.7994021e-21)
(2.7227281 0.013479126 -2.3185265e-21)
(2.7045725 0.023891235 1.5182747e-21)
(2.6877383 0.027377645 4.4017816e-21)
(2.6734412 0.024542063 1.4042144e-21)
(2.6633869 0.018862822 2.326036e-22)
(2.6570544 0.012541063 -1.5876017e-22)
(2.65347 0.0070983086 -1.1931896e-21)
(2.6517636 0.0028746333 -5.870612e-22)
(2.6511669 0.00046165135 -2.2426383e-22)
(2.6510902 -0.00083463061 1.1237931e-21)
(2.6515981 -0.0002282295 1.8773892e-21)
(2.7377082 -0.020923378 -1.6628598e-21)
(2.7375562 0.014132971 3.2259988e-21)
(2.7165135 0.028814324 1.1072683e-21)
(2.6961286 0.034500923 1.0843532e-21)
(2.6783518 0.031750102 4.9644714e-22)
(2.6658466 0.024885359 -1.184607e-21)
(2.658002 0.017058091 -1.1899427e-21)
(2.653679 0.0099472299 4.1216258e-22)
(2.6516517 0.004515898 -2.8998861e-22)
(2.6510528 0.00074378111 7.6333691e-23)
(2.6511748 -0.0010057888 7.1438803e-22)
(2.6515796 -0.0016568255 -5.9189888e-22)
(2.6522746 -0.00036476661 0)
(2.7501935 -0.02918179 -2.2621921e-21)
(2.754759 0.013987958 9.3184947e-23)
(2.7306324 0.034270524 9.6517561e-23)
(2.7059986 0.043035563 1.8989056e-21)
(2.6839055 0.040564322 -2.0375377e-21)
(2.6683362 0.032373936 -1.0384568e-21)
(2.6587103 0.022612394 -4.90792e-22)
(2.6534835 0.013693997 2.1267341e-23)
(2.6511656 0.0065170088 2.0438192e-22)
(2.6505785 0.0015641648 9.4916212e-22)
(2.6509444 -0.0014714323 8.3099034e-22)
(2.6516299 -0.0024127684 1.6417626e-21)
(2.6523608 -0.002370171 -2.9952156e-21)
(2.653142 -0.00048471381 4.8308169e-23)
(2.7633709 -0.039788494 3.8715512e-21)
(2.7746482 0.012725791 -3.2492405e-22)
(2.747317 0.040239014 -2.526665e-21)
(2.7176245 0.053194213 -6.8866799e-21)
(2.6901416 0.051331184 0)
(2.6707646 0.04153846 -8.7788703e-22)
(2.6589793 0.029476713 -3.9350999e-22)
(2.6527633 0.018286082 7.1102346e-22)
(2.6501011 0.0092435418 1.4243146e-22)
(2.6496089 0.0025931264 -1.2670499e-22)
(2.6502589 -0.0015197765 8.2525452e-22)
(2.6514027 -0.0036111372 1.6849978e-21)
(2.6524837 -0.0036523871 -1.4011975e-21)
(2.6533912 -0.0029383488 1.0775662e-21)
(2.6541425 -0.00057241763 -1.5139559e-23)
(2.7770794 -0.053157736 9.4912958e-21)
(2.7975336 0.0099762453 -2.2702933e-21)
(2.7670182 0.046684839 -1.0951651e-21)
(2.7313299 0.06524072 -3.1452641e-22)
(2.6971243 0.064419156 -1.8068746e-21)
(2.6729749 0.052710774 -2.4836455e-21)
(2.6586122 0.037774632 -5.7749862e-22)
(2.6512971 0.02390863 9.5509223e-23)
(2.6483374 0.012594049 -2.3201577e-22)
(2.6479451 0.0041753844 -2.1175522e-22)
(2.6490102 -0.0015115729 -6.5271442e-22)
(2.6506609 -0.004524964 -4.6524293e-22)
(2.6523718 -0.0055365008 5.0099358e-22)
(2.6536578 -0.0046594377 -1.6361933e-22)
(2.654594 -0.0033294612 1.3243695e-21)
(2.6552036 -0.0006158541 -2.1449972e-21)
(2.7910614 -0.069703005 -9.8401636e-21)
(2.8237246 0.0052034505 7.3828888e-22)
(2.7902013 0.053532438 -1.3843426e-21)
(2.7474833 0.07945908 2.9411436e-21)
(2.704919 0.080278813 6.7103663e-21)
(2.6747765 0.066241547 4.0819693e-21)
(2.6573239 0.047706024 3.6284279e-21)
(2.648866 0.03056661 -8.6070794e-22)
(2.6456826 0.016681236 -2.0298755e-22)
(2.6454906 0.0061801604 -1.7917181e-22)
(2.6469795 -0.0011124943 -4.0914246e-22)
(2.6493128 -0.0055352205 7.7509345e-23)
(2.6517221 -0.0072779535 7.5185295e-22)
(2.6537767 -0.0071426137 -2.6478579e-21)
(2.6550715 -0.0053831293 -8.6197479e-22)
(2.6558837 -0.0035173137 1.4005086e-21)
(2.6562516 -0.00060612575 8.2600364e-23)
(2.8051055 -0.089831009 -2.1623655e-21)
(2.8536325 -0.0021663186 3.942038e-21)
(2.8174427 0.060704176 -4.7951482e-22)
(2.7664732 0.096167424 1.3003843e-21)
(2.7135875 0.099430021 3.1736889e-22)
(2.6759153 0.082555059 3.1926663e-21)
(2.6547612 0.05944481 2.8065115e-21)
(2.6451731 0.038288636 1.6911365e-21)
(2.64197 0.021413956 7.6617398e-22)
(2.642109 0.0086868977 3.1071592e-22)
(2.6441114 -0.00045090124 1.7494041e-22)
(2.6471124 -0.0063122898 -1.1775601e-22)
(2.6504381 -0.0092745063 5.5793833e-22)
(2.6533598 -0.0096444577 9.1325377e-22)
(2.6555306 -0.008354002 -9.9862847e-23)
(2.6566386 -0.0057898318 -1.1111445e-21)
(2.6571842 -0.0034897393 2.0007133e-21)
(2.6572196 -0.00053949439 6.7426117e-21)
(2.8193042 -0.11384437 3.2994829e-20)
(2.8876226 -0.012814138 2.5648143e-21)
(2.8496826 0.068030352 2.3222105e-21)
(2.7889243 0.11570025 5.4602729e-21)
(2.7231796 0.12246841 8.063813e-21)
(2.6760643 0.10214505 -5.3282545e-21)
(2.650471 0.073178738 -2.3643023e-21)
(2.6398616 0.047022973 1.6720405e-21)
(2.6369891 0.026687482 -1.0987931e-21)
(2.6377265 0.011562184 -1.1118728e-21)
(2.6403172 0.00056122845 -2.9200463e-22)
(2.6440301 -0.0069511729 3.9955188e-23)
(2.6482426 -0.011200231 1.3901234e-22)
(2.6523033 -0.012573899 2.4462884e-22)
(2.6554854 -0.011526743 -2.0321743e-21)
(2.6575414 -0.0091217575 -1.0533681e-22)
(2.6582778 -0.0058635874 2.3631134e-21)
(2.6584246 -0.0032496309 1.8503129e-21)
(2.6580644 -0.00042022935 1.3557037e-21)
(2.8362321 -0.14080539 -1.6183533e-20)
(2.9242242 -0.02718094 2.1076449e-20)
(2.8869965 0.075254498 7.4907751e-23)
(2.8159216 0.13827821 1.296915e-21)
(2.7340045 0.1500467 -2.2853206e-21)
(2.6748098 0.12557822 4.416392e-22)
(2.6438885 0.089100627 8.8536536e-21)
(2.6324906 0.056661079 -8.7151502e-21)
(2.6305097 0.032280832 6.8869267e-23)
(2.6322689 0.014645735 8.5425292e-22)
(2.6356205 0.0018107243 -7.6848582e-22)
(2.6400033 -0.0073273535 -4.0753015e-22)
(2.6450985 -0.013104273 -1.4661307e-22)
(2.650281 -0.015615754 1.1743045e-22)
(2.654822 -0.015317964 1.6801427e-22)
(2.6580048 -0.012857803 -1.1630095e-21)
(2.6597169 -0.0094207054 -1.4022392e-21)
(2.6599127 -0.0056046006 1.4412422e-21)
(2.6595431 -0.0028122255 3.1188488e-21)
(2.6587513 -0.0002569452 -1.1981512e-21)
(2.8472546 -0.16824293 -4.3371668e-20)
(2.9546187 -0.043774698 -3.0565081e-20)
(2.9252923 0.083130844 -2.6120663e-20)
(2.8462032 0.16423261 1.2680176e-21)
(2.7467928 0.18283669 -5.6258307e-21)
(2.6718545 0.15348887 -7.1766696e-22)
(2.6343221 0.10740192 9.3326175e-21)
(2.6225289 0.067026659 3.1055683e-21)
(2.6222642 0.037871636 2.4519524e-21)
(2.6256944 0.017650702 2.773033e-21)
(2.6300829 0.00316629 -1.39533e-21)
(2.6351198 -0.0074772882 1.7949449e-22)
(2.6409375 -0.014810291 -3.5446066e-22)
(2.6472221 -0.018775954 -1.4828641e-22)
(2.6531529 -0.019438497 6.836281e-22)
(2.6579052 -0.017421089 7.9858888e-22)
(2.6608199 -0.013595867 1.7271663e-21)
(2.6619668 -0.0092449183 5.0537521e-22)
(2.6614711 -0.0050258315 4.1025252e-22)
(2.6604903 -0.0022031585 -3.1777356e-21)
(2.6591866 3.8652259e-06 -2.049241e-21)
(2.8481133 -0.19451895 -1.810022e-20)
(2.9710515 -0.061416579 -6.6559712e-20)
(2.9587765 0.093506182 7.0920527e-21)
(2.8717721 0.19489811 -1.7110397e-20)
(2.7590138 0.22179474 0)
(2.6671231 0.18667937 0)
(2.6210184 0.12826503 -1.4612296e-20)
(2.6093563 0.077857444 7.1924223e-21)
(2.6119498 0.04303537 -6.489394e-21)
(2.6179776 0.020174583 -1.4374123e-21)
(2.6238496 0.0043842364 2.5007165e-21)
(2.6295367 -0.0074363214 -1.281779e-21)
(2.6358607 -0.016250253 -1.8955452e-23)
(2.643014 -0.021828095 1.0743753e-21)
(2.6503522 -0.023864569 4.932152e-22)
(2.6567889 -0.022568946 7.0387958e-22)
(2.6614567 -0.018819721 -1.6184145e-22)
(2.6638288 -0.013719371 -2.2156313e-23)
(2.6642036 -0.0086032767 1.7876777e-21)
(2.6628865 -0.004147272 2.1322895e-21)
(2.6612328 -0.0014491432 -1.3336345e-20)
(2.6593352 0.00030808608 -6.8223921e-21)
(2.8446304 -0.21878251 1.5503693e-20)
(2.973699 -0.080218673 2.2909514e-20)
(2.9808575 0.10594659 7.6107386e-20)
(2.8870625 0.232063 -7.2989878e-23)
(2.7602304 0.267775 -2.0681521e-21)
(2.6579608 0.22621489 -4.6841276e-21)
(2.6032561 0.15197727 -1.3286159e-20)
(2.5922594 0.088803553 -8.5057324e-21)
(2.5992386 0.047222277 3.769056e-21)
(2.6091141 0.021709583 -1.7640324e-21)
(2.6171313 0.0051154232 8.6046849e-22)
(2.6235338 -0.0073157171 -2.8147667e-22)
(2.6300536 -0.017324074 1.426056e-21)
(2.6377177 -0.024599818 4.3074928e-23)
(2.6462326 -0.028339462 -1.0627278e-21)
(2.6544631 -0.028269031 -1.5671892e-21)
(2.6611103 -0.024917805 1.5101766e-21)
(2.66537 -0.019467624 -3.3315915e-22)
(2.6669268 -0.013223243 -1.9345935e-21)
(2.6663442 -0.0075154558 -1.6605042e-21)
(2.6641006 -0.0029938753 1.2484755e-21)
(2.6617413 -0.00055787774 -1.5659749e-21)
(2.6593224 0.00059670509 -4.2569852e-21)
(2.8322672 -0.24016853 5.0525674e-22)
(2.9673076 -0.096372477 7.8535756e-20)
(2.9831683 0.11901216 -8.567905e-20)
(2.8976474 0.27734993 3.6303121e-21)
(2.7431859 0.32110989 -1.6385767e-20)
(2.6352935 0.27205169 7.0090724e-22)
(2.5792533 0.17892581 -3.7160463e-23)
(2.5704819 0.099458561 3.2209829e-21)
(2.5837731 0.049791316 3.6044136e-21)
(2.59912 0.021618025 -1.6088907e-21)
(2.6102104 0.0049172476 -1.55823e-21)
(2.6174931 -0.0073013666 1.463508e-21)
(2.6238448 -0.017961924 8.2426922e-23)
(2.6314752 -0.026855509 1.138321e-21)
(2.640768 -0.03261018 -1.4706666e-22)
(2.6506469 -0.034264902 -2.1500771e-21)
(2.6595206 -0.031873267 -1.3272367e-21)
(2.6660187 -0.026402905 -5.7087594e-22)
(2.6695261 -0.019333999 1.7536631e-21)
(2.6700084 -0.012116511 -1.8347566e-21)
(2.6683111 -0.0060092888 7.2141819e-22)
(2.6650638 -0.0015969986 -2.9931387e-21)
(2.661981 0.00046700178 1.3866543e-20)
(2.6590149 0.00092365421 2.9484946e-21)
(2.8122374 -0.25796565 1.5499225e-22)
(2.9494058 -0.10596416 4.8618676e-20)
(2.9557634 0.13617832 -1.2915561e-19)
(2.8827608 0.3291469 1.1467381e-20)
(2.7146338 0.38372476 -1.0926806e-20)
(2.5925796 0.32245785 3.9159535e-21)
(2.5439084 0.20827797 -2.2778167e-22)
(2.5431818 0.10938489 1.0953665e-20)
(2.5651864 0.049977164 5.5786171e-22)
(2.5880275 0.019195991 -2.5083447e-22)
(2.6034262 0.0032332254 1.7334705e-22)
(2.6119071 -0.0076427666 2.1994145e-21)
(2.6176833 -0.018125306 -9.4576083e-23)
(2.6245718 -0.028340975 5.4803826e-22)
(2.633999 -0.036335316 3.4312132e-22)
(2.6451989 -0.040261697 1.5862068e-21)
(2.6563075 -0.039464844 7.0157817e-22)
(2.665458 -0.034546607 2.3232189e-22)
(2.6713899 -0.026951604 9.0669964e-22)
(2.6737959 -0.01840374 2.3600993e-21)
(2.6729703 -0.010421084 -9.1430262e-22)
(2.6700339 -0.0041194461 -5.8658792e-23)
(2.6657389 9.3641892e-06 4.5698751e-21)
(2.6619254 0.0015927927 4.4284488e-21)
(2.6584023 0.0012893075 4.6336678e-21)
(2.7869619 -0.2710872 -1.8802021e-21)
(2.9129058 -0.10926444 -4.5860217e-20)
(2.9012482 0.15998494 1.0382237e-19)
(2.8268253 0.38125883 2.2806527e-20)
(2.6789416 0.45306106 3.2775693e-20)
(2.5388982 0.37699052 -3.4567344e-21)
(2.4923964 0.23716054 0)
(2.5088076 0.11751621 5.0523735e-22)
(2.5431751 0.046967261 -6.1922923e-21)
(2.5759481 0.013634028 -1.1629854e-21)
(2.5971573 -0.0005608656 1.0233473e-21)
(2.6073636 -0.0086660546 1.980035e-23)
(2.6121482 -0.017792287 -7.3500547e-23)
(2.6174113 -0.028789564 4.447575e-22)
(2.6260919 -0.039113212 -1.0228773e-22)
(2.6380203 -0.0458607 -1.1394148e-21)
(2.6512043 -0.047400034 2.0656765e-21)
(2.6632151 -0.04374652 2.6239775e-21)
(2.6721618 -0.036153838 -1.9469157e-21)
(2.6770737 -0.02650614 3.0942444e-21)
(2.6780432 -0.01667901 -2.6258082e-21)
(2.6757141 -0.0081707556 2.3752483e-21)
(2.6714528 -0.0018860679 1.2618381e-22)
(2.6661077 0.0017928688 -3.4286721e-21)
(2.6615717 0.0027873879 -7.3462213e-21)
(2.6575548 0.0016409237 8.0188724e-21)
(2.7568926 -0.2787005 -1.1347569e-20)
(2.8583807 -0.10702108 3.6478749e-20)
(2.8377258 0.18831177 7.4782196e-20)
(2.7589422 0.43096664 -1.4553678e-21)
(2.6317283 0.51908871 2.9373101e-20)
(2.4874765 0.4349752 -8.8283797e-21)
(2.4292568 0.26367137 -1.0257461e-20)
(2.4651391 0.12149525 -5.1389395e-21)
(2.5176774 0.039837416 -6.6771156e-21)
(2.5628773 0.0041027407 9.7868507e-22)
(2.5919921 -0.0071304414 2.2638262e-22)
(2.6045174 -0.010768703 1.5245215e-21)
(2.6079342 -0.016974074 2.7868178e-22)
(2.610525 -0.027904579 -8.960942e-22)
(2.6173153 -0.040493944 9.3138229e-22)
(2.6291134 -0.050572241 -1.4121344e-21)
(2.6439592 -0.055276963 -4.1119624e-22)
(2.6589051 -0.053754838 -2.6501093e-22)
(2.6712946 -0.046886843 -2.9795152e-21)
(2.6794696 -0.036569389 -1.8388523e-21)
(2.6828986 -0.025029842 2.1641964e-21)
(2.6821314 -0.014181022 -2.7552561e-21)
(2.6781485 -0.0054100785 -1.6587423e-22)
(2.672522 0.00064427194 -2.6836845e-21)
(2.6661514 0.0037213843 -1.5284444e-21)
(2.660923 0.0040353974 -5.5149241e-21)
(2.6564515 0.0020059837 8.4000312e-21)
(2.7235942 -0.28080377 2.9618955e-20)
(2.7920926 -0.099445435 2.270529e-20)
(2.7620071 0.21829352 6.3206649e-20)
(2.6860974 0.47853574 1.7609203e-20)
(2.5745639 0.57714454 -2.1250247e-21)
(2.4396576 0.49280344 1.7135013e-22)
(2.3659533 0.28901867 -3.3056096e-22)
(2.41212 0.11901781 -1.9680513e-21)
(2.488581 0.027371411 4.6093174e-21)
(2.5490734 -0.010195669 -6.0263722e-21)
(2.58807 -0.01725278 8.7275413e-22)
(2.6040327 -0.014376198 1.2448796e-21)
(2.6058354 -0.015718199 -1.4753425e-21)
(2.6045506 -0.025390189 3.7220933e-22)
(2.608045 -0.03996727 1.2745658e-21)
(2.61856 -0.053836895 -1.5000204e-21)
(2.6343948 -0.062582297 -4.8434958e-23)
(2.6521274 -0.064217342 -2.591955e-22)
(2.6683035 -0.058984012 -1.5831358e-21)
(2.6803873 -0.048660413 -1.6680088e-21)
(2.6871748 -0.035691557 9.4009746e-22)
(2.68868 -0.022512983 -3.2248322e-21)
(2.6859281 -0.010950567 3.7681028e-21)
(2.6801947 -0.0021944331 -4.6368727e-21)
(2.673206 0.0034180914 4.3242473e-21)
(2.6658543 0.0057595907 3.022178e-21)
(2.6599848 0.0053210564 9.2126982e-21)
(2.6551029 0.0023726903 -9.2814251e-21)
(2.6890181 -0.2778429 5.2986488e-20)
(2.7188955 -0.086882226 -3.6509467e-20)
(2.6791491 0.24866265 8.2111906e-20)
(2.6057384 0.52251587 -6.5039279e-20)
(2.5108597 0.62780917 -3.9249512e-20)
(2.3911066 0.54736331 1.3474884e-21)
(2.3092289 0.31475169 -7.2891037e-21)
(2.3543124 0.11036782 -3.0319827e-21)
(2.4555006 0.0081396213 -3.3772902e-21)
(2.5348893 -0.029943323 -4.5224508e-21)
(2.5860771 -0.03166986 1.6762172e-21)
(2.6070105 -0.019979197 1.9265044e-21)
(2.6066779 -0.01411477 -1.4901127e-21)
(2.6002395 -0.02093124 4.3329043e-22)
(2.5987352 -0.03699721 -1.1173705e-21)
(2.6065226 -0.055022872 -2.9451513e-21)
(2.6223924 -0.068723493 -1.8272226e-22)
(2.6425316 -0.074654195 2.0729842e-21)
(2.6626571 -0.072182388 4.5656944e-21)
(2.67927 -0.06272292 2.6949358e-21)
(2.6902574 -0.048865859 -3.2341608e-22)
(2.6950379 -0.033454547 8.664061e-22)
(2.6942305 -0.018977067 -4.3936104e-21)
(2.6893089 -0.0070469852 2.5411921e-21)
(2.6817924 0.0014099017 4.3931171e-21)
(2.673479 0.0063844679 6.5831616e-21)
(2.6652169 0.0078731556 -1.3423415e-20)
(2.6587704 0.0066240311 5.4819532e-21)
(2.65353 0.0027366631 -9.626314e-21)
(2.6545692 -0.27036245 2.3174713e-20)
(2.6422636 -0.070947777 -5.7997567e-21)
(2.5937202 0.27822372 3.9741121e-21)
(2.5232332 0.56165932 2.7766506e-20)
(2.4446152 0.67068018 2.3733066e-20)
(2.3424187 0.59647718 3.3889424e-21)
(2.26034 0.34009143 -2.3904888e-20)
(2.2983211 0.097863776 -9.6134747e-21)
(2.4186816 -0.01871571 -4.4208261e-21)
(2.5206032 -0.055735784 -1.7852111e-22)
(2.5863747 -0.051038033 7.2061144e-21)
(2.6138926 -0.028083791 -3.4185763e-21)
(2.6115003 -0.012165357 -9.5734214e-23)
(2.598368 -0.01420691 4.8379793e-22)
(2.5899285 -0.030988263 -1.3784455e-22)
(2.5932175 -0.053456994 1.6683875e-21)
(2.6078952 -0.073033367 -1.2505415e-21)
(2.629809 -0.084501217 1.8246911e-21)
(2.65385 -0.086082143 1.1008236e-21)
(2.6754825 -0.078621345 4.7478595e-22)
(2.6915521 -0.06462758 2.2464367e-21)
(2.7006069 -0.047347288 6.5097258e-21)
(2.7028009 -0.029837581 -2.6345727e-21)
(2.6993683 -0.014475675 -2.0759986e-21)
(2.6921669 -0.0025478388 -5.0526723e-22)
(2.6828937 0.0053305402 7.6256308e-21)
(2.6733294 0.0094900355 -4.4513246e-21)
(2.6642463 0.010028754 3.4995876e-21)
(2.6572954 0.0079265166 -1.7096417e-20)
(2.6517503 0.0030923835 5.3841666e-23)
(2.6197268 -0.25792631 1.5464637e-20)
(2.5646374 -0.051061762 -4.6818659e-21)
(2.5090227 0.30647858 -8.1010076e-20)
(2.4429218 0.59551315 5.9399694e-20)
(2.380182 0.70583914 -1.7714426e-20)
(2.2962697 0.63832926 -2.9138677e-21)
(2.2197858 0.36297919 -3.6108655e-20)
(2.249184 0.083558429 8.3312349e-21)
(2.3802424 -0.052503988 -8.0219937e-21)
(2.506108 -0.088124435 1.4530798e-20)
(2.5893287 -0.075883852 2.979608e-20)
(2.6255309 -0.039257047 8.7392037e-22)
(2.6211975 -0.0099382917 -2.327224e-21)
(2.5997006 -0.0047782095 1.9123691e-21)
(2.5821248 -0.021319145 1.7894363e-21)
(2.5789044 -0.048420444 -2.0346127e-21)
(2.5908923 -0.074806692 2.2856458e-21)
(2.6137066 -0.093116813 3.3285536e-21)
(2.6414033 -0.10019224 2.6802586e-21)
(2.668388 -0.096074075 -7.483508e-21)
(2.6903538 -0.082997962 -3.9234e-21)
(2.7047945 -0.06440853 1.8568546e-21)
(2.711095 -0.044009965 2.0210775e-21)
(2.7102038 -0.024870268 -1.9509428e-21)
(2.7039233 -0.0090920371 3.1006889e-21)
(2.6944222 0.0024514383 1.6553551e-21)
(2.6834635 0.009493701 -6.3111038e-21)
(2.6727575 0.012681593 4.8745188e-21)
(2.662957 0.012194967 1.2685931e-20)
(2.6555794 0.0092125888 -5.0249104e-21)
(2.6497855 0.0034368717 0)
(2.5845399 -0.23928944 -2.3236527e-19)
(2.4846177 -0.02912025 1.0732802e-20)
(2.4281934 0.33268255 -3.56736e-21)
(2.3678832 0.62406758 -7.0620696e-21)
(2.3207786 0.73372588 -5.6552868e-21)
(2.254581 0.67252595 -3.0525219e-20)
(2.1872866 0.3823822 3.9906983e-20)
(2.2094711 0.068289244 -1.5412209e-21)
(2.3437174 -0.091312169 1.7802416e-20)
(2.491454 -0.1273655 1.3913745e-20)
(2.5953199 -0.1066601 1.8427255e-20)
(2.642641 -0.054016253 -1.754319e-21)
(2.6366845 -0.0075944431 -2.1723749e-21)
(2.6052099 0.0076235865 -2.9067098e-22)
(2.5759491 -0.0073298444 2.2895984e-21)
(2.5638328 -0.039180152 -4.7177775e-24)
(2.5713995 -0.073328084 5.0752829e-21)
(2.5940264 -0.099828256 -2.0185432e-21)
(2.6248931 -0.11393233 4.4967731e-21)
(2.6573574 -0.11469866 1.6519197e-21)
(2.6859235 -0.10384727 -5.3290836e-21)
(2.7068659 -0.084838493 -8.0055772e-21)
(2.7185643 -0.061855371 2.8964094e-22)
(2.7213597 -0.038830819 1.0243442e-21)
(2.7169977 -0.018632276 -3.1773285e-21)
(2.707752 -0.002937335 4.4976672e-21)
(2.6960132 0.0078463896 5.7331345e-21)
(2.6834877 0.013821835 -5.9100699e-21)
(2.6717731 0.015908646 1.1784985e-23)
(2.6613689 0.014343018 -6.8062881e-21)
(2.6536441 0.010467987 1.6335913e-21)
(2.6476573 0.0037705838 3.771145e-21)
(2.5525367 -0.21334926 -6.5877805e-21)
(2.4007338 -0.0051860711 3.8154024e-20)
(2.3492618 0.35540688 -2.9338575e-20)
(2.3001569 0.64693738 -1.1465022e-20)
(2.2683308 0.75525095 5.0361367e-20)
(2.2190319 0.69925553 8.3403162e-20)
(2.1621748 0.39839294 -1.8683032e-22)
(2.1788881 0.052757463 -4.9972917e-20)
(2.3118882 -0.13329152 -2.0969656e-20)
(2.4777364 -0.17311476 -1.6240512e-21)
(2.6044143 -0.14399313 -3.6254488e-20)
(2.6660836 -0.073011603 -1.5083237e-20)
(2.6591199 -0.0051442653 9.5895859e-21)
(2.615664 0.023353537 -9.5348149e-21)
(2.571867 0.01159287 8.7137368e-22)
(2.5482282 -0.024994034 -2.115718e-21)
(2.5494349 -0.067896589 4.2539131e-21)
(2.5706187 -0.10397329 1.1518241e-21)
(2.6039699 -0.12668233 -4.2161753e-21)
(2.64181 -0.13399915 2.0335458e-21)
(2.6775007 -0.12693621 -3.246432e-21)
(2.7060172 -0.10869035 -4.7641348e-22)
(2.724492 -0.083765681 -2.0336323e-21)
(2.7323787 -0.056853451 -1.5941056e-21)
(2.7310417 -0.031863738 -4.4480128e-22)
(2.7229539 -0.011248298 -2.2497055e-21)
(2.7107594 0.0038502452 -4.0888185e-21)
(2.6968953 0.013534524 -4.4157344e-21)
(2.6829686 0.018237717 1.3234149e-21)
(2.6703956 0.019123954 7.8663908e-22)
(2.659506 0.016447294 7.8688409e-21)
(2.6515139 0.011680629 1.2487838e-20)
(2.6453878 0.0040901176 7.7096315e-21)
(2.5234008 -0.18009451 9.8641791e-20)
(2.317354 0.024118469 2.4116059e-20)
(2.2705261 0.37331321 -1.8901909e-20)
(2.2369229 0.66373936 3.6882691e-21)
(2.2238392 0.7710643 -3.608976e-20)
(2.1906291 0.71871042 1.9369221e-20)
(2.1437428 0.41093947 9.5097722e-20)
(2.1551534 0.038120237 4.5550549e-21)
(2.2842646 -0.17644436 5.2868077e-21)
(2.4654481 -0.22356373 -5.6836297e-20)
(2.6155582 -0.18745331 -3.8246509e-20)
(2.6950879 -0.096866334 -1.7653961e-21)
(2.6895372 -0.0029031542 7.3898939e-21)
(2.6322958 0.042922768 -1.0022337e-20)
(2.5704365 0.03615939 0)
(2.532222 -0.005148459 2.5338797e-22)
(2.5249624 -0.057860598 -6.3344637e-21)
(2.543359 -0.10494242 1.4014258e-20)
(2.5783705 -0.13782922 -6.508032e-21)
(2.6212561 -0.15341021 1.3385869e-22)
(2.6643525 -0.1518796 -5.7704586e-21)
(2.7013804 -0.13590678 5.2188009e-21)
(2.7280554 -0.1100033 1.7314394e-21)
(2.7426157 -0.079522726 -3.1241983e-21)
(2.7457357 -0.049395016 -6.455237e-23)
(2.7398011 -0.023237126 4.6290779e-21)
(2.7278732 -0.0028856645 -1.949888e-21)
(2.7128575 0.011113783 1.0957885e-21)
(2.6970543 0.019399333 4.5912787e-21)
(2.6819221 0.022668895 1.9992578e-21)
(2.6686511 0.022284959 3.2982002e-21)
(2.6573957 0.018485662 2.4844395e-21)
(2.6492137 0.012840613 1.030496e-20)
(2.6429993 0.0043933706 -8.6900925e-21)
(2.4970122 -0.1396102 5.2341532e-20)
(2.2378275 0.056448979 -7.2087225e-20)
(2.1958709 0.3918409 -2.5969356e-22)
(2.1772726 0.6728104 5.7936777e-21)
(2.1860035 0.78162304 6.8760265e-21)
(2.1692638 0.73274324 -1.7588352e-19)
(2.131345 0.41978654 4.350023e-20)
(2.1376231 0.023844775 3.8316273e-20)
(2.2603231 -0.21830312 1.0488104e-19)
(2.4513057 -0.27582774 1.3944772e-20)
(2.6235761 -0.23416047 -2.650433e-20)
(2.7229634 -0.12373062 -4.3615177e-20)
(2.7244119 -0.00057887855 4.7348715e-22)
(2.655541 0.066562253 2.8963563e-22)
(2.5725291 0.067070191 -5.7636744e-22)
(2.5159179 0.021099031 5.8744188e-21)
(2.4978779 -0.042650722 6.2759177e-21)
(2.5121348 -0.10222782 -3.2889533e-21)
(2.5479183 -0.14682032 9.2063432e-22)
(2.5953298 -0.17233822 4.6145839e-21)
(2.6458338 -0.17817662 -9.1381632e-21)
(2.6920733 -0.1662539 -1.2156288e-20)
(2.728317 -0.14073582 8.566125e-22)
(2.7512871 -0.1073265 1.7021154e-21)
(2.7605652 -0.071990905 7.5904437e-21)
(2.7581443 -0.039584185 5.9479483e-22)
(2.7473311 -0.013144265 -3.1103165e-21)
(2.7316366 0.0062468331 -2.6742536e-21)
(2.7139891 0.018706174 8.8003194e-21)
(2.6964997 0.025332258 9.9353356e-21)
(2.6803765 0.027048718 1.5867561e-22)
(2.6665719 0.025354526 -7.1038183e-21)
(2.655067 0.020439623 -1.1215941e-20)
(2.6467688 0.013940153 -1.2302658e-20)
(2.6405135 0.0046788345 -7.9310439e-21)
(2.4720137 -0.092659831 -6.6731659e-22)
(2.166868 0.091260241 -2.4974844e-19)
(2.1303337 0.40747389 -3.5220102e-20)
(2.1239359 0.67794189 -2.3428048e-22)
(2.1549473 0.78712245 -2.3469231e-20)
(2.1541543 0.74523841 -8.5514393e-21)
(2.1238865 0.42553368 -1.1039476e-19)
(2.1243189 0.012030672 -8.6381868e-20)
(2.2406323 -0.25934424 3.1902292e-20)
(2.4353442 -0.32736521 9.2571287e-20)
(2.622287 -0.28079558 5.599361e-20)
(2.7379594 -0.15153905 6.991351e-20)
(2.753006 0.0044151668 -5.7907597e-20)
(2.6785796 0.09543396 2.3944935e-20)
(2.5777759 0.10511595 -2.8679069e-21)
(2.4995426 0.054465394 2.3748433e-22)
(2.4679842 -0.021765024 1.1854107e-21)
(2.4768106 -0.095470473 -3.7444383e-21)
(2.5125295 -0.1532222 9.6072179e-21)
(2.5638139 -0.19021627 -9.9979517e-21)
(2.6214426 -0.20523142 -3.6216347e-21)
(2.6772687 -0.19932967 -1.296838e-20)
(2.7242614 -0.17593818 -9.2238751e-21)
(2.757443 -0.14069771 -4.7978797e-21)
(2.7748568 -0.10036546 -1.1700044e-21)
(2.7776522 -0.061203709 -5.0259976e-21)
(2.7691468 -0.027630375 1.029105e-20)
(2.7533912 -0.0018341123 -5.7773083e-21)
(2.7341544 0.015934089 -4.2617076e-21)
(2.7141563 0.026465824 5.9536549e-21)
(2.6952596 0.031232291 -1.5766664e-20)
(2.6783699 0.031318391 7.3072914e-22)
(2.6641938 0.028301466 3.1514781e-22)
(2.6525502 0.022294411 4.7889207e-21)
(2.644204 0.014973486 -7.5582461e-23)
(2.6379511 0.0049453792 4.3693585e-21)
(2.4511906 -0.040521154 1.0838217e-21)
(2.1107858 0.12703718 -6.4500479e-22)
(2.0776069 0.42040327 -9.3671594e-22)
(2.0812594 0.67716512 -8.7621113e-20)
(2.1305848 0.78785599 -1.5544101e-20)
(2.1466567 0.75894671 7.581273e-20)
(2.1207917 0.43897683 3.7766855e-20)
(2.1179448 -0.0036938906 1.6472e-21)
(2.2222352 -0.29528256 -4.31726e-20)
(2.4185797 -0.37716907 4.3663882e-20)
(2.6140155 -0.32734907 2.9295637e-20)
(2.7407568 -0.17876431 5.6416891e-20)
(2.7665863 0.01089676 -2.0678676e-20)
(2.693406 0.13129974 2.5600134e-20)
(2.5768571 0.15127088 -2.2918365e-21)
(2.4824593 0.095929516 4.9968512e-21)
(2.4350021 0.0051751709 1.0012961e-21)
(2.4372045 -0.084475229 1.1505847e-20)
(2.4721939 -0.15677483 -6.2838626e-21)
(2.5266757 -0.20656579 6.0683726e-21)
(2.5908694 -0.23240406 2.1172549e-20)
(2.6562658 -0.23455198 8.922498e-21)
(2.7148594 -0.21537428 1.2079215e-20)
(2.7599777 -0.17988906 6.050297e-21)
(2.7877273 -0.13524337 -8.5463979e-21)
(2.7978433 -0.089015591 -1.8478779e-21)
(2.7932121 -0.047352788 -3.6665539e-22)
(2.7783406 -0.01383485 5.2177254e-21)
(2.7578297 0.010382508 7.1233701e-22)
(2.7353656 0.025956862 8.6535107e-21)
(2.7133824 0.034240771 4.1469395e-21)
(2.6933785 0.037008602 -9.3736092e-21)
(2.6759471 0.035427977 1.0062635e-20)
(2.6615549 0.031100734 -5.9775382e-22)
(2.6498753 0.024038889 -3.3582332e-22)
(2.6415432 0.015936715 3.4185045e-22)
(2.6353317 0.0051923159 -5.6180143e-21)
(2.4379568 0.015608299 4.2227952e-20)
(2.0706473 0.16238521 2.6015593e-19)
(2.0413885 0.42995976 1.1852071e-21)
(2.0513474 0.67131905 8.4209858e-20)
(2.1153017 0.78365687 5.7899431e-23)
(2.1455727 0.76522007 4.2855454e-23)
(2.1256102 0.4642398 -4.709352e-20)
(2.111854 -0.003683264 1.0286987e-19)
(2.2109231 -0.33368639 -5.0155124e-20)
(2.4003038 -0.42323323 -1.4403459e-21)
(2.6011783 -0.37032295 5.8784177e-20)
(2.7359298 -0.20590129 -9.1584389e-20)
(2.7694693 0.016175752 1.2038827e-19)
(2.7078322 0.17404907 -7.7580642e-21)
(2.5605596 0.20544709 -9.2866147e-21)
(2.4572814 0.14581114 -2.4842923e-22)
(2.3984277 0.038672955 -1.2093413e-20)
(2.393043 -0.069231667 1.1480393e-20)
(2.4269555 -0.15742643 -1.4491899e-21)
(2.4840614 -0.22106029 2.7288908e-21)
(2.5540653 -0.25906606 -2.8650978e-20)
(2.6285663 -0.27119264 -3.4411601e-20)
(2.6991457 -0.25854352 -4.3866228e-21)
(2.7576718 -0.22492819 9.3377475e-21)
(2.798061 -0.17722078 1.0035413e-21)
(2.8180001 -0.12403749 0)
(2.8193103 -0.073386918 -4.0913699e-21)
(2.8066287 -0.030777547 7.4500989e-21)
(2.785431 0.0014124056 -5.9892675e-21)
(2.7605363 0.023191527 -1.4352696e-21)
(2.7352853 0.036087431 -3.8500669e-21)
(2.7117173 0.041892928 2.327948e-23)
(2.6909135 0.042583237 4.8419387e-21)
(2.6731579 0.039336977 5.0772959e-21)
(2.6586942 0.033733319 -1.0298566e-20)
(2.6470718 0.025665339 6.8798079e-21)
(2.6388091 0.016827621 -9.9773863e-23)
(2.6326733 0.0054193215 3.9157643e-22)
(2.4367777 0.074205942 -8.6175386e-20)
(2.0454507 0.19646481 3.760814e-20)
(2.0221523 0.4365667 4.2323046e-20)
(2.0348905 0.66088565 6.3694515e-20)
(2.1093879 0.77435724 3.7477964e-20)
(2.1529573 0.7664959 -1.0434367e-21)
(2.1378061 0.48116857 -1.765693e-19)
(2.1157636 0.012924147 1.4769145e-22)
(2.1905745 -0.35807405 4.8142352e-22)
(2.3825845 -0.46576835 -8.0607844e-20)
(2.5804593 -0.41327175 -1.6507733e-20)
(2.7213292 -0.2270468 -2.7442126e-21)
(2.7617561 0.0226736 -5.2662372e-20)
(2.7105523 0.21980948 -3.1229329e-20)
(2.5424343 0.26882019 -4.6744229e-20)