/*--------------------------------*- C++ -*----------------------------------*\
| =========                 |                                                 |
| \\      /  F ield         | OpenFOAM: The Open Source CFD Toolbox           |
|  \\    /   O peration     | Version:  v2012                                 |
|   \\  /    A nd           | Website:  www.openfoam.com                      |
|    \\/     M anipulation  |                                                 |
\*---------------------------------------------------------------------------*/
FoamFile
{
    version     2.0;
    format      ascii;
    class       volVectorField;
    location    "113.994031032431238";
    object      cellDisplacement;
}
// * * * * * * * * * * * * * * * * * * * * * * * * * * * * * * * * * * * * * //

dimensions      [0 1 0 0 0 0 0];


internalField   nonuniform List<vector> 
9200
(
(0.044744038 0 0)
(0.044970617 0 0)
(0.13014392 0 0)
(0.04528781 0 0)
(0.1306918 0 0)
(0.21003207 0 0)
(0.045705613 0 0)
(0.13160454 0 0)
(0.21087979 0 0)
(0.2846749 0 0)
(0.046136039 0 0)
(0.13268988 0 0)
(0.21224189 0 0)
(0.28575486 0 0)
(0.35429705 0 0)
(0.0465769 0 0)
(0.13387912 0 0)
(0.21394872 0 0)
(0.28756748 0 0)
(0.35561496 0 0)
(0.4191828 0 0)
(0.047011591 0 0)
(0.13510565 0 0)
(0.21582615 0 0)
(0.28981028 0 0)
(0.35779314 0 0)
(0.42069852 0 0)
(0.47957381 0 0)
(0.047430767 0 0)
(0.13631318 0 0)
(0.21774705 0 0)
(0.29229156 0 0)
(0.36054859 0 0)
(0.42325965 0 0)
(0.48129597 0 0)
(0.53574876 0 0)
(0.04782757 0 0)
(0.13747924 0 0)
(0.21965243 0 0)
(0.29485795 0 0)
(0.36360207 0 0)
(0.42647006 0 0)
(0.48418362 0 0)
(0.5376551 0 0)
(0.58793973 0 0)
(0.048197132 0 0)
(0.13858153 0 0)
(0.22149013 0 0)
(0.29740837 0 0)
(0.36677563 0 0)
(0.43006088 0 0)
(0.48785457 0 0)
(0.54089446 0 0)
(0.59004149 0 0)
(0.63640658 0 0)
(0.048538037 0 0)
(0.13960963 0 0)
(0.22322996 0 0)
(0.29986838 0 0)
(0.36992578 0 0)
(0.43380241 0 0)
(0.49196301 0 0)
(0.54498557 0 0)
(0.59359245 0 0)
(0.63868972 0 0)
(0.68136069 0 0)
(0.048848224 0 0)
(0.14055552 0 0)
(0.22485113 0 0)
(0.30219846 0 0)
(0.37297376 0 0)
(0.43753245 0 0)
(0.49625476 0 0)
(0.54959152 0 0)
(0.5981247 0 0)
(0.64258081 0 0)
(0.68383395 0 0)
(0.7230378 0 0)
(0.049129552 0 0)
(0.14141809 0 0)
(0.22634318 0 0)
(0.3043704 0 0)
(0.37586174 0 0)
(0.44114878 0 0)
(0.50055711 0 0)
(0.55443319 0 0)
(0.60323091 0 0)
(0.6475268 0 0)
(0.68803883 0 0)
(0.72569404 0 0)
(0.76162652 0 0)
(0.049381335 0 0)
(0.1421967 0 0)
(0.22770184 0 0)
(0.30636962 0 0)
(0.37855575 0 0)
(0.44457595 0 0)
(0.50472393 0 0)
(0.55928508 0 0)
(0.60860177 0 0)
(0.65311979 0 0)
(0.69342174 0 0)
(0.7302378 0 0)
(0.76447318 0 0)
(0.79733908 0 0)
(0.049607017 0 0)
(0.1428959 0 0)
(0.22892811 0 0)
(0.30819059 0 0)
(0.38103662 0 0)
(0.44777409 0 0)
(0.50868114 0 0)
(0.56400526 0 0)
(0.61400996 0 0)
(0.65902895 0 0)
(0.69951393 0 0)
(0.73603624 0 0)
(0.76933511 0 0)
(0.80037156 0 0)
(0.83034227 0 0)
(0.049806573 0 0)
(0.14351828 0 0)
(0.23002637 0 0)
(0.30983385 0 0)
(0.38329639 0 0)
(0.45072071 0 0)
(0.51237715 0 0)
(0.56849326 0 0)
(0.619285 0 0)
(0.66499294 0 0)
(0.70595605 0 0)
(0.74262294 0 0)
(0.7755772 0 0)
(0.80557353 0 0)
(0.83356492 0 0)
(0.86082637 0 0)
(0.049983459 0 0)
(0.14407053 0 0)
(0.23100374 0 0)
(0.31130606 0 0)
(0.38533711 0 0)
(0.45340488 0 0)
(0.51578279 0 0)
(0.5726883 0 0)
(0.62430455 0 0)
(0.67081991 0 0)
(0.71247733 0 0)
(0.74960911 0 0)
(0.78266995 0 0)
(0.81223974 0 0)
(0.83909171 0 0)
(0.86423635 0 0)
(0.88893783 0 0)
(0.050138566 0 0)
(0.14455719 0 0)
(0.23186857 0 0)
(0.31261574 0 0)
(0.38716446 0 0)
(0.45582867 0 0)
(0.51888788 0 0)
(0.57655576 0 0)
(0.62900074 0 0)
(0.67637927 0 0)
(0.71886423 0 0)
(0.75669002 0 0)
(0.7901984 0 0)
(0.81983536 0 0)
(0.84620611 0 0)
(0.87010437 0 0)
(0.89253749 0 0)
(0.91484689 0 0)
(0.050274816 0 0)
(0.14498526 0 0)
(0.23263017 0 0)
(0.313775 0 0)
(0.38879184 0 0)
(0.45799947 0 0)
(0.52169029 0 0)
(0.58008505 0 0)
(0.63333842 0 0)
(0.68158918 0 0)
(0.72497622 0 0)
(0.76365086 0 0)
(0.79785252 0 0)
(0.82792171 0 0)
(0.85431808 0 0)
(0.87764819 0 0)
(0.8987334 0 0)
(0.91863364 0 0)
(0.93868231 0 0)
(0.050393589 0 0)
(0.14535969 0 0)
(0.233298 0 0)
(0.31479569 0 0)
(0.39023097 0 0)
(0.45993106 0 0)
(0.52420173 0 0)
(0.58327198 0 0)
(0.63729583 0 0)
(0.68640368 0 0)
(0.73070798 0 0)
(0.77031647 0 0)
(0.80538425 0 0)
(0.83614993 0 0)
(0.86296066 0 0)
(0.88627416 0 0)
(0.90673009 0 0)
(0.92516939 0 0)
(0.94265626 0 0)
(0.96059655 0 0)
(0.050496885 0 0)
(0.14568615 0 0)
(0.23388176 0 0)
(0.31569124 0 0)
(0.39150003 0 0)
(0.46164023 0 0)
(0.52643416 0 0)
(0.58612932 0 0)
(0.64087725 0 0)
(0.69080111 0 0)
(0.73600955 0 0)
(0.77658577 0 0)
(0.81262159 0 0)
(0.84426917 0 0)
(0.87177712 0 0)
(0.895486 0 0)
(0.91587849 0 0)
(0.93359942 0 0)
(0.9495201 0 0)
(0.96475469 0 0)
(0.9807024 0 0)
(0.050586649 0 0)
(0.14597037 0 0)
(0.23439056 0 0)
(0.31647405 0 0)
(0.39261196 0 0)
(0.46314451 0 0)
(0.52840944 0 0)
(0.58867102 0 0)
(0.64408645 0 0)
(0.69478346 0 0)
(0.74086218 0 0)
(0.78239345 0 0)
(0.8194416 0 0)
(0.85208664 0 0)
(0.88048792 0 0)
(0.9048937 0 0)
(0.92565808 0 0)
(0.94326616 0 0)
(0.95840148 0 0)
(0.97195342 0 0)
(0.98504297 0 0)
(0.99913596 0 0)
(0.050664095 0 0)
(0.14621615 0 0)
(0.23483291 0 0)
(0.31715652 0 0)
(0.39358548 0 0)
(0.46446405 0 0)
(0.53014565 0 0)
(0.59091989 0 0)
(0.64694772 0 0)
(0.69835669 0 0)
(0.74525613 0 0)
(0.78771402 0 0)
(0.82576975 0 0)
(0.85946755 0 0)
(0.88889521 0 0)
(0.91421083 0 0)
(0.93566882 0 0)
(0.95362387 0 0)
(0.96859303 0 0)
(0.9812657 0 0)
(0.99256503 0 0)
(1.0036553 0 0)
(1.0159964 0 0)
(0.050731349 0 0)
(0.14642964 0 0)
(0.23521726 0 0)
(0.3177504 0 0)
(0.39443292 0 0)
(0.46561662 0 0)
(0.53166859 0 0)
(0.59289857 0 0)
(0.6494771 0 0)
(0.70154281 0 0)
(0.74920816 0 0)
(0.79253887 0 0)
(0.8315717 0 0)
(0.86633136 0 0)
(0.89685164 0 0)
(0.92321665 0 0)
(0.94559555 0 0)
(0.96423883 0 0)
(0.97952433 0 0)
(0.99197591 0 0)
(1.0023226 0 0)
(1.011503 0 0)
(1.0206911 0 0)
(1.0314055 0 0)
(0.050789008 0 0)
(0.14661332 0 0)
(0.23555057 0 0)
(0.31826612 0 0)
(0.39517151 0 0)
(0.46662218 0 0)
(0.53299632 0 0)
(0.59463225 0 0)
(0.65170761 0 0)
(0.70436425 0 0)
(0.75273042 0 0)
(0.79688243 0 0)
(0.83684591 0 0)
(0.87263606 0 0)
(0.90426829 0 0)
(0.93176451 0 0)
(0.95521473 0 0)
(0.97478907 0 0)
(0.99075201 0 0)
(1.0034865 0 0)
(1.0135527 0 0)
(1.0216843 0 0)
(1.028853 0 0)
(1.0362709 0 0)
(1.0454502 0 0)
(0.05083918 0 0)
(0.14677289 0 0)
(0.23583965 0 0)
(0.31871389 0 0)
(0.39581165 0 0)
(0.46749581 0 0)
(0.53415436 0 0)
(0.5961464 0 0)
(0.65365985 0 0)
(0.70685061 0 0)
(0.75585688 0 0)
(0.8007607 0 0)
(0.84159446 0 0)
(0.87837262 0 0)
(0.91109143 0 0)
(0.93974366 0 0)
(0.96435783 0 0)
(0.98502613 0 0)
(1.0019262 0 0)
(1.0153249 0 0)
(1.0256352 0 0)
(1.0334248 0 0)
(1.039467 0 0)
(1.0447452 0 0)
(1.0504816 0 0)
(1.0582388 0 0)
(0.050881896 0 0)
(0.14690952 0 0)
(0.23609033 0 0)
(0.31910206 0 0)
(0.39636817 0 0)
(0.4682555 0 0)
(0.53515859 0 0)
(0.59746397 0 0)
(0.65536797 0 0)
(0.70903117 0 0)
(0.75860992 0 0)
(0.80420472 0 0)
(0.84584628 0 0)
(0.88354611 0 0)
(0.91730518 0 0)
(0.94710176 0 0)
(0.97291774 0 0)
(0.99478086 0 0)
(1.0127939 0 0)
(1.0271332 0 0)
(1.0380882 0 0)
(1.0460808 0 0)
(1.0517154 0 0)
(1.055769 0 0)
(1.0592566 0 0)
(1.0634307 0 0)
(1.0698478 0 0)
(0.050919404 0 0)
(0.14702862 0 0)
(0.23630809 0 0)
(0.31943936 0 0)
(0.39684961 0 0)
(0.4689138 0 0)
(0.53603276 0 0)
(0.59860955 0 0)
(0.65685247 0 0)
(0.71093582 0 0)
(0.76102893 0 0)
(0.80724436 0 0)
(0.84962176 0 0)
(0.88818295 0 0)
(0.92292337 0 0)
(0.95381568 0 0)
(0.98082683 0 0)
(1.0039319 0 0)
(1.0231657 0 0)
(1.0386343 0 0)
(1.050528 0 0)
(1.0591429 0 0)
(1.0649342 0 0)
(1.0685137 0 0)
(1.0706953 0 0)
(1.0725016 0 0)
(1.075195 0 0)
(1.0803738 0 0)
(0.050950929 0 0)
(0.1471304 0 0)
(0.23649769 0 0)
(0.31973227 0 0)
(0.3972683 0 0)
(0.46948546 0 0)
(0.53678874 0 0)
(0.59960239 0 0)
(0.65814474 0 0)
(0.712595 0 0)
(0.76313992 0 0)
(0.80991526 0 0)
(0.85296349 0 0)
(0.89230839 0 0)
(0.9279596 0 0)
(0.95989229 0 0)
(0.98805699 0 0)
(1.0124051 0 0)
(1.032919 0 0)
(1.0496362 0 0)
(1.0626715 0 0)
(1.0722197 0 0)
(1.0786048 0 0)
(1.082292 0 0)
(1.0839293 0 0)
(1.0843318 0 0)
(1.0845495 0 0)
(1.08587 0 0)
(1.0898839 0 0)
(0.050980472 0 0)
(0.14722031 0 0)
(0.23666313 0 0)
(0.31998783 0 0)
(0.39763096 0 0)
(0.46998067 0 0)
(0.53744767 0 0)
(0.60046475 0 0)
(0.65926329 0 0)
(0.71403551 0 0)
(0.7649808 0 0)
(0.81225214 0 0)
(0.85589921 0 0)
(0.89596145 0 0)
(0.9324529 0 0)
(0.96535017 0 0)
(0.99460794 0 0)
(1.0201666 0 0)
(1.0419696 0 0)
(1.0599994 0 0)
(1.0743061 0 0)
(1.0850052 0 0)
(1.0923123 0 0)
(1.096562 0 0)
(1.0982532 0 0)
(1.0980405 0 0)
(1.0967722 0 0)
(1.095501 0 0)
(1.0955232 0 0)
(1.0984637 0 0)
(0.050789674 0 0)
(0.1473018 0 0)
(0.2368091 0 0)
(0.32021143 0 0)
(0.39794764 0 0)
(0.47041193 0 0)
(0.53801788 0 0)
(0.60121142 0 0)
(0.66023464 0 0)
(0.71528539 0 0)
(0.76657737 0 0)
(0.81428939 0 0)
(0.85847526 0 0)
(0.89917834 0 0)
(0.93643137 0 0)
(0.97022416 0 0)
(1.0005056 0 0)
(1.0272135 0 0)
(1.0502806 0 0)
(1.0696431 0 0)
(1.0852921 0 0)
(1.0972828 0 0)
(1.1057443 0 0)
(1.1109009 0 0)
(1.1131173 0 0)
(1.112903 0 0)
(1.1109456 0 0)
(1.1080921 0 0)
(1.1054185 0 0)
(1.1042398 0 0)
(1.1061721 0 0)
(0.050553958 0 0)
(0.14689834 0 0)
(0.23694462 0 0)
(0.32040795 0 0)
(0.39822396 0 0)
(0.47078688 0 0)
(0.53851678 0 0)
(0.60186096 0 0)
(0.66107459 0 0)
(0.71636715 0 0)
(0.76796236 0 0)
(0.81606153 0 0)
(0.86072075 0 0)
(0.90200062 0 0)
(0.93994454 0 0)
(0.97454939 0 0)
(1.0057756 0 0)
(1.0335644 0 0)
(1.0578355 0 0)
(1.0785056 0 0)
(1.0955269 0 0)
(1.108894 0 0)
(1.1186646 0 0)
(1.1249753 0 0)
(1.1280777 0 0)
(1.1283486 0 0)
(1.1263297 0 0)
(1.1227141 0 0)
(1.118376 0 0)
(1.1143904 0 0)
(1.1120791 0 0)
(1.113085 0 0)
(0.050340773 0 0)
(0.14618726 0 0)
(0.23635375 0 0)
(0.32059117 0 0)
(0.39846701 0 0)
(0.47111529 0 0)
(0.53895063 0 0)
(0.60242497 0 0)
(0.66180459 0 0)
(0.71730473 0 0)
(0.76915975 0 0)
(0.81759844 0 0)
(0.86267917 0 0)
(0.90446728 0 0)
(0.94302574 0 0)
(0.97837053 0 0)
(1.010464 0 0)
(1.0392495 0 0)
(1.0646547 0 0)
(1.0865891 0 0)
(1.1049692 0 0)
(1.1197428 0 0)
(1.1309125 0 0)
(1.1385442 0 0)
(1.1427942 0 0)
(1.1439263 0 0)
(1.1423474 0 0)
(1.1386089 0 0)
(1.1334334 0 0)
(1.1276903 0 0)
(1.1224725 0 0)
(1.1191168 0 0)
(1.1192539 0 0)
(0.050152187 0 0)
(0.14554896 0 0)
(0.23522269 0 0)
(0.31982931 0 0)
(0.39869288 0 0)
(0.47140416 0 0)
(0.5393333 0 0)
(0.60291863 0 0)
(0.66243782 0 0)
(0.71811655 0 0)
(0.77019566 0 0)
(0.8189309 0 0)
(0.86437768 0 0)
(0.90661679 0 0)
(0.9457253 0 0)
(0.98173059 0 0)
(1.0146079 0 0)
(1.0443134 0 0)
(1.0707745 0 0)
(1.0938976 0 0)
(1.1135846 0 0)
(1.1297558 0 0)
(1.142371 0 0)
(1.1514292 0 0)
(1.1570077 0 0)
(1.1592768 0 0)
(1.1585288 0 0)
(1.1551828 0 0)
(1.1498196 0 0)
(1.1431651 0 0)
(1.1361102 0 0)
(1.1297436 0 0)
(1.1254046 0 0)
(1.1247454 0 0)
(0.04998822 0 0)
(0.14498162 0 0)
(0.23420713 0 0)
(0.31831833 0 0)
(0.39777761 0 0)
(0.47167277 0 0)
(0.53967056 0 0)
(0.60335133 0 0)
(0.66299056 0 0)
(0.71882175 0 0)
(0.77109195 0 0)
(0.82008421 0 0)
(0.86585417 0 0)
(0.90848642 0 0)
(0.94807666 0 0)
(0.98467449 0 0)
(1.0182607 0 0)
(1.0487975 0 0)
(1.0762275 0 0)
(1.1004627 0 0)
(1.1213963 0 0)
(1.1389279 0 0)
(1.1529837 0 0)
(1.1635161 0 0)
(1.1705365 0 0)
(1.1741358 0 0)
(1.1745081 0 0)
(1.1719592 0 0)
(1.1669365 0 0)
(1.160029 0 0)
(1.1519872 0 0)
(1.1436942 0 0)
(1.1362521 0 0)
(1.1310094 0 0)
(1.1296045 0 0)
(0.049851472 0 0)
(0.14449196 0 0)
(0.23330669 0 0)
(0.31696169 0 0)
(0.39592382 0 0)
(0.47062377 0 0)
(0.53998572 0 0)
(0.60373363 0 0)
(0.66347491 0 0)
(0.71943555 0 0)
(0.77186851 0 0)
(0.82108445 0 0)
(0.86713238 0 0)
(0.91010925 0 0)
(0.95012559 0 0)
(0.98724584 0 0)
(1.0214619 0 0)
(1.0527533 0 0)
(1.0810701 0 0)
(1.1063293 0 0)
(1.1284283 0 0)
(1.1472584 0 0)
(1.1627146 0 0)
(1.1747216 0 0)
(1.1832475 0 0)
(1.1883053 0 0)
(1.1900045 0 0)
(1.1885551 0 0)
(1.1842909 0 0)
(1.1776704 0 0)
(1.1693079 0 0)
(1.1599549 0 0)
(1.15051 0 0)
(1.1420678 0 0)
(1.1359757 0 0)
(1.1338894 0 0)
(0.049741848 0 0)
(0.14408149 0 0)
(0.23252889 0 0)
(0.31576024 0 0)
(0.39426031 0 0)
(0.46846491 0 0)
(0.53882236 0 0)
(0.60408998 0 0)
(0.66390105 0 0)
(0.71997183 0 0)
(0.77254455 0 0)
(0.82195229 0 0)
(0.8682431 0 0)
(0.91151806 0 0)
(0.95190289 0 0)
(0.9894855 0 0)
(1.0242644 0 0)
(1.056227 0 0)
(1.085342 0 0)
(1.1115398 0 0)
(1.1347211 0 0)
(1.1547724 0 0)
(1.1715757 0 0)
(1.1850305 0 0)
(1.195069 0 0)
(1.2016533 0 0)
(1.2048163 0 0)
(1.2046848 0 0)
(1.2014937 0 0)
(1.1955903 0 0)
(1.1874575 0 0)
(1.1777163 0 0)
(1.1671374 0 0)
(1.1566083 0 0)
(1.1472327 0 0)
(1.1403628 0 0)
(1.1376395 0 0)
(0.049661283 0 0)
(0.14375516 0 0)
(0.23187873 0 0)
(0.31472277 0 0)
(0.39278746 0 0)
(0.46652847 0 0)
(0.53639401 0 0)
(0.60281929 0 0)
(0.66429847 0 0)
(0.72044542 0 0)
(0.77313428 0 0)
(0.822708 0 0)
(0.86920676 0 0)
(0.91274003 0 0)
(0.95344718 0 0)
(0.99143408 0 0)
(1.0267059 0 0)
(1.0592687 0 0)
(1.0891034 0 0)
(1.1161507 0 0)
(1.1403208 0 0)
(1.1615066 0 0)
(1.1795861 0 0)
(1.194436 0 0)
(1.2059562 0 0)
(1.2140827 0 0)
(1.2187945 0 0)
(1.2201318 0 0)
(1.2182447 0 0)
(1.2133841 0 0)
(1.205923 0 0)
(1.1963538 0 0)
(1.1853176 0 0)
(1.1735837 0 0)
(1.1620493 0 0)
(1.1518085 0 0)
(1.1442089 0 0)
(1.1409052 0 0)
(0.049609532 0 0)
(0.14351385 0 0)
(0.23136142 0 0)
(0.3138564 0 0)
(0.3915165 0 0)
(0.46481511 0 0)
(0.53421691 0 0)
(0.60014187 0 0)
(0.6629307 0 0)
(0.72088216 0 0)
(0.77365613 0 0)
(0.82336998 0 0)
(0.87004711 0 0)
(0.91380232 0 0)
(0.95478571 0 0)
(0.99312604 0 0)
(1.028834 0 0)
(1.0619238 0 0)
(1.0923961 0 0)
(1.1202088 0 0)
(1.1452816 0 0)
(1.1675121 0 0)
(1.1867796 0 0)
(1.2029568 0 0)
(1.2159177 0 0)
(1.2255667 0 0)
(1.2318498 0 0)
(1.2347464 0 0)
(1.2343229 0 0)
(1.2307472 0 0)
(1.224294 0 0)
(1.215349 0 0)
(1.2044245 0 0)
(1.1921655 0 0)
(1.1793554 0 0)
(1.1668775 0 0)
(1.1558318 0 0)
(1.1475657 0 0)
(1.1437212 0 0)
(0.049587805 0 0)
(0.14336067 0 0)
(0.23098061 0 0)
(0.31316798 0 0)
(0.39045554 0 0)
(0.46333658 0 0)
(0.53229104 0 0)
(0.59774211 0 0)
(0.66002723 0 0)
(0.71943351 0 0)
(0.77413768 0 0)
(0.82395162 0 0)
(0.87078265 0 0)
(0.914727 0 0)
(0.95594916 0 0)
(0.99459614 0 0)
(1.0306818 0 0)
(1.0642369 0 0)
(1.0952768 0 0)
(1.1237725 0 0)
(1.1496563 0 0)
(1.1728381 0 0)
(1.1932047 0 0)
(1.210624 0 0)
(1.2249601 0 0)
(1.2360916 0 0)
(1.2439271 0 0)
(1.2484175 0 0)
(1.2495644 0 0)
(1.2474454 0 0)
(1.2422534 0 0)
(1.2342781 0 0)
(1.2239272 0 0)
(1.2117202 0 0)
(1.1983169 0 0)
(1.1844962 0 0)
(1.1711463 0 0)
(1.1593563 0 0)
(1.1504668 0 0)
(1.146131 0 0)
(0.14329627 0 0)
(0.049588732 0 0)
(0.23073921 0 0)
(0.31266194 0 0)
(0.38961361 0 0)
(0.46210399 0 0)
(0.53062989 0 0)
(0.59562047 0 0)
(0.65742421 0 0)
(0.71632504 0 0)
(0.77262167 0 0)
(0.82449058 0 0)
(0.87142848 0 0)
(0.91553503 0 0)
(0.95696134 0 0)
(0.99587317 0 0)
(1.0322899 0 0)
(1.0662494 0 0)
(1.0977853 0 0)
(1.1268876 0 0)
(1.1535003 0 0)
(1.1775444 0 0)
(1.1989131 0 0)
(1.2174821 0 0)
(1.2331137 0 0)
(1.2456683 0 0)
(1.2550252 0 0)
(1.2611023 0 0)
(1.2638621 0 0)
(1.2633133 0 0)
(1.2595627 0 0)
(1.2528203 0 0)
(1.2433973 0 0)
(1.2317122 0 0)
(1.2182996 0 0)
(1.2038197 0 0)
(1.1890604 0 0)
(1.1748945 0 0)
(1.1624142 0 0)
(1.1529564 0 0)
(1.1481652 0 0)
(0.2306397 0 0)
(0.1433007 0 0)
(0.049612728 0 0)
(0.31234294 0 0)
(0.38899536 0 0)
(0.46112549 0 0)
(0.52924546 0 0)
(0.59379077 0 0)
(0.65512511 0 0)
(0.71354334 0 0)
(0.76933537 0 0)
(0.82291546 0 0)
(0.87202485 0 0)
(0.91624625 0 0)
(0.95784526 0 0)
(0.99698554 0 0)
(1.0336863 0 0)
(1.0679985 0 0)
(1.0999711 0 0)
(1.1296084 0 0)
(1.1568669 0 0)
(1.1816833 0 0)
(1.2039644 0 0)
(1.223589 0 0)
(1.2404225 0 0)
(1.2543225 0 0)
(1.2651463 0 0)
(1.2727797 0 0)
(1.2771479 0 0)
(1.2782247 0 0)
(1.2760439 0 0)
(1.2707254 0 0)
(1.2625034 0 0)
(1.2517017 0 0)
(1.2387572 0 0)
(1.2242085 0 0)
(1.2087254 0 0)
(1.193087 0 0)
(1.1781689 0 0)
(1.1650517 0 0)
(1.1550648 0 0)
(1.1498609 0 0)
(0.3122129 0 0)
(0.23064889 0 0)
(0.14337379 0 0)
(0.049666359 0 0)
(0.38860731 0 0)
(0.46040922 0 0)
(0.52814732 0 0)
(0.59226672 0 0)
(0.65314187 0 0)
(0.71108334 0 0)
(0.76639709 0 0)
(0.81947093 0 0)
(0.87040272 0 0)
(0.91689658 0 0)
(0.95862291 0 0)
(0.99795742 0 0)
(1.0349032 0 0)
(1.0695197 0 0)
(1.1018699 0 0)
(1.1319763 0 0)
(1.1598076 0 0)
(1.1853146 0 0)
(1.2084142 0 0)
(1.2289983 0 0)
(1.2469401 0 0)
(1.2620946 0 0)
(1.2743111 0 0)
(1.2834526 0 0)
(1.2894105 0 0)
(1.2921207 0 0)
(1.2915732 0 0)
(1.2878135 0 0)
(1.2809907 0 0)
(1.2713545 0 0)
(1.2592463 0 0)
(1.2451116 0 0)
(1.2294999 0 0)
(1.2130759 0 0)
(1.1966238 0 0)
(1.1810039 0 0)
(1.1672977 0 0)
(1.1568299 0 0)
(1.1512454 0 0)
(0.38845095 0 0)
(0.31222925 0 0)
(0.23076743 0 0)
(0.1435359 0 0)
(0.04974929 0 0)
(0.45995942 0 0)
(0.52734391 0 0)
(0.59105833 0 0)
(0.65149191 0 0)
(0.7089654 0 0)
(0.76379885 0 0)
(0.81638749 0 0)
(0.86681464 0 0)
(0.91523929 0 0)
(0.95933248 0 0)
(0.99880924 0 0)
(1.0359657 0 0)
(1.0708435 0 0)
(1.1035223 0 0)
(1.1340383 0 0)
(1.1623716 0 0)
(1.1884884 0 0)
(1.2123224 0 0)
(1.2337741 0 0)
(1.2527244 0 0)
(1.269037 0 0)
(1.2825595 0 0)
(1.2931389 0 0)
(1.3006417 0 0)
(1.3049701 0 0)
(1.3060688 0 0)
(1.3039446 0 0)
(1.2986693 0 0)
(1.2904054 0 0)
(1.2794241 0 0)
(1.2660771 0 0)
(1.2508237 0 0)
(1.2342142 0 0)
(1.2169174 0 0)
(1.1997053 0 0)
(1.1834403 0 0)
(1.1691924 0 0)
(1.1582787 0 0)
(1.1523504 0 0)
(0.45978142 0 0)
(0.38847464 0 0)
(0.31239067 0 0)
(0.23102736 0 0)
(0.14378652 0 0)
(0.04986104 0 0)
(0.52684081 0 0)
(0.5901751 0 0)
(0.65018373 0 0)
(0.70720127 0 0)
(0.76156371 0 0)
(0.81366626 0 0)
(0.86360311 0 0)
(0.91152179 0 0)
(0.95764697 0 0)
(0.99958687 0 0)
(1.036896 0 0)
(1.0719983 0 0)
(1.1049593 0 0)
(1.1358304 0 0)
(1.1646033 0 0)
(1.1912593 0 0)
(1.2157437 0 0)
(1.2379714 0 0)
(1.2578377 0 0)
(1.2752112 0 0)
(1.2899421 0 0)
(1.3018756 0 0)
(1.3108591 0 0)
(1.3167659 0 0)
(1.3195066 0 0)
(1.3190425 0 0)
(1.3153992 0 0)
(1.3086624 0 0)
(1.2990213 0 0)
(1.2867602 0 0)
(1.2722438 0 0)
(1.255938 0 0)
(1.2383993 0 0)
(1.2202861 0 0)
(1.2023731 0 0)
(1.1855083 0 0)
(1.1707615 0 0)
(1.1594435 0 0)
(1.1532 0 0)
(0.52664317 0 0)
(0.45981109 0 0)
(0.38867605 0 0)
(0.31274239 0 0)
(0.23142726 0 0)
(0.14412266 0 0)
(0.05000049 0 0)
(0.58962289 0 0)
(0.64922937 0 0)
(0.70580584 0 0)
(0.75970208 0 0)
(0.8113218 0 0)
(0.86077043 0 0)
(0.90820025 0 0)
(0.95381681 0 0)
(0.99787758 0 0)
(1.0377432 0 0)
(1.0730105 0 0)
(1.1062126 0 0)
(1.137391 0 0)
(1.1665455 0 0)
(1.193672 0 0)
(1.2187325 0 0)
(1.2416528 0 0)
(1.26234 0 0)
(1.2806762 0 0)
(1.2965189 0 0)
(1.3097108 0 0)
(1.3200932 0 0)
(1.3275194 0 0)
(1.3318694 0 0)
(1.3330663 0 0)
(1.3310851 0 0)
(1.3259722 0 0)
(1.3178374 0 0)
(1.3068822 0 0)
(1.2934088 0 0)
(1.2777888 0 0)
(1.260498 0 0)
(1.2420905 0 0)
(1.2232237 0 0)
(1.2046577 0 0)
(1.1872432 0 0)
(1.1720389 0 0)
(1.1603485 0 0)
(1.1538199 0 0)
(0.58940748 0 0)
(0.52667931 0 0)
(0.46004995 0 0)
(0.38911168 0 0)
(0.31328015 0 0)
(0.23196354 0 0)
(0.14454355 0 0)
(0.050167027 0 0)
(0.64863394 0 0)
(0.70478698 0 0)
(0.75823107 0 0)
(0.80937328 0 0)
(0.85832969 0 0)
(0.90526674 0 0)
(0.95039705 0 0)
(0.99394669 0 0)
(1.0360198 0 0)
(1.0739266 0 0)
(1.1073103 0 0)
(1.1387515 0 0)
(1.1682356 0 0)
(1.1957734 0 0)
(1.2213384 0 0)
(1.24487 0 0)
(1.266292 0 0)
(1.2854975 0 0)
(1.3023508 0 0)
(1.3167019 0 0)
(1.3283918 0 0)
(1.3372608 0 0)
(1.3431655 0 0)
(1.3459976 0 0)
(1.3456915 0 0)
(1.3422429 0 0)
(1.3357182 0 0)
(1.326241 0 0)
(1.3140355 0 0)
(1.2994139 0 0)
(1.2827567 0 0)
(1.2645436 0 0)
(1.245331 0 0)
(1.2257611 0 0)
(1.2065954 0 0)
(1.1886719 0 0)
(1.1730482 0 0)
(1.16102 0 0)
(1.1542318 0 0)
(0.64840429 0 0)
(0.5894498 0 0)
(0.52694954 0 0)
(0.46055938 0 0)
(0.38977537 0 0)
(0.31400179 0 0)
(0.23263336 0 0)
(0.14504415 0 0)
(0.050358839 0 0)
(0.7041538 0 0)
(0.75715773 0 0)
(0.80783055 0 0)
(0.85630259 0 0)
(0.90274367 0 0)
(0.94737671 0 0)
(0.99043474 0 0)
(1.0319989 0 0)
(1.0721994 0 0)
(1.1083008 0 0)
(1.1399401 0 0)
(1.1697085 0 0)
(1.1976019 0 0)
(1.2236085 0 0)
(1.2476794 0 0)
(1.2697514 0 0)
(1.2897339 0 0)
(1.3075037 0 0)
(1.322915 0 0)
(1.3358125 0 0)
(1.3460356 0 0)
(1.3534231 0 0)
(1.35784 0 0)
(1.3591896 0 0)
(1.3574242 0 0)
(1.3525558 0 0)
(1.3446714 0 0)
(1.3339155 0 0)
(1.3205221 0 0)
(1.3048179 0 0)
(1.2871866 0 0)
(1.2681141 0 0)
(1.2481515 0 0)
(1.2279353 0 0)
(1.208213 0 0)
(1.189825 0 0)
(1.1738169 0 0)
(1.1614798 0 0)
(1.1544585 0 0)
(0.70391095 0 0)
(0.64845391 0 0)
(0.58975001 0 0)
(0.52752484 0 0)
(0.46133722 0 0)
(0.3906653 0 0)
(0.31490087 0 0)
(0.23343123 0 0)
(0.14562387 0 0)
(0.050575348 0 0)
(0.75649235 0 0)
(0.80670751 0 0)
(0.85469788 0 0)
(0.90064489 0 0)
(0.94478038 0 0)
(0.98733753 0 0)
(1.028407 0 0)
(1.0680987 0 0)
(1.1065755 0 0)
(1.1410133 0 0)
(1.1709966 0 0)
(1.1991957 0 0)
(1.2255854 0 0)
(1.2501268 0 0)
(1.2727731 0 0)
(1.2934482 0 0)
(1.312039 0 0)
(1.3284113 0 0)
(1.3424173 0 0)
(1.3538962 0 0)
(1.3626814 0 0)
(1.3686177 0 0)
(1.3715799 0 0)
(1.3714861 0 0)
(1.3683038 0 0)
(1.3620673 0 0)
(1.3528817 0 0)
(1.3409037 0 0)
(1.3263856 0 0)
(1.3096613 0 0)
(1.2911186 0 0)
(1.2712452 0 0)
(1.2505903 0 0)
(1.2297733 0 0)
(1.2095419 0 0)
(1.1907245 0 0)
(1.1743661 0 0)
(1.1617512 0 0)
(1.1545193 0 0)
(0.75623911 0 0)
(0.70396693 0 0)
(0.64878288 0 0)
(0.59038711 0 0)
(0.52840117 0 0)
(0.46237629 0 0)
(0.39177266 0 0)
(0.31597232 0 0)
(0.2343518 0 0)
(0.14627568 0 0)
(0.050815303 0 0)
(0.80600962 0 0)
(0.85353102 0 0)
(0.89898705 0 0)
(0.94262038 0 0)
(0.98467215 0 0)
(1.0252411 0 0)
(1.0644408 0 0)
(1.1024072 0 0)
(1.1392926 0 0)
(1.1721543 0 0)
(1.2005889 0 0)
(1.2273089 0 0)
(1.2522599 0 0)
(1.2754089 0 0)
(1.2966949 0 0)
(1.3160202 0 0)
(1.3332592 0 0)
(1.3482718 0 0)
(1.3609055 0 0)
(1.3709937 0 0)
(1.3783685 0 0)
(1.3828816 0 0)
(1.3844225 0 0)
(1.3829226 0 0)
(1.3783697 0 0)
(1.3708151 0 0)
(1.3603826 0 0)
(1.3472458 0 0)
(1.3316644 0 0)
(1.3139827 0 0)
(1.2945883 0 0)
(1.2739718 0 0)
(1.2526748 0 0)
(1.2313066 0 0)
(1.210604 0 0)
(1.1913964 0 0)
(1.1747207 0 0)
(1.161854 0 0)
(1.1544321 0 0)
(0.80574534 0 0)
(0.75630111 0 0)
(0.70432167 0 0)
(0.64947732 0 0)
(0.59135565 0 0)
(0.52957228 0 0)
(0.4636721 0 0)
(0.39309269 0 0)
(0.31720822 0 0)
(0.23538924 0 0)
(0.14700179 0 0)
(0.051010176 0 0)
(0.85280635 0 0)
(0.89777886 0 0)
(0.94091504 0 0)
(0.98245825 0 0)
(1.0225165 0 0)
(1.0612141 0 0)
(1.098692 0 0)
(1.1350672 0 0)
(1.17045 0 0)
(1.2018384 0 0)
(1.2288132 0 0)
(1.2541192 0 0)
(1.2777061 0 0)
(1.2995303 0 0)
(1.3195053 0 0)
(1.3375184 0 0)
(1.3534425 0 0)
(1.3671304 0 0)
(1.37842 0 0)
(1.3871422 0 0)
(1.393131 0 0)
(1.3962501 0 0)
(1.3964023 0 0)
(1.3935372 0 0)
(1.387659 0 0)
(1.3788403 0 0)
(1.3672198 0 0)
(1.3529815 0 0)
(1.3363984 0 0)
(1.3178192 0 0)
(1.2976317 0 0)
(1.2763258 0 0)
(1.2544374 0 0)
(1.2325577 0 0)
(1.2114261 0 0)
(1.1918634 0 0)
(1.1749 0 0)
(1.1618069 0 0)
(1.1541932 0 0)
(0.85253351 0 0)
(0.80580971 0 0)
(0.75667759 0 0)
(0.70506644 0 0)
(0.65053068 0 0)
(0.59264969 0 0)
(0.53102993 0 0)
(0.4652129 0 0)
(0.39461405 0 0)
(0.31860004 0 0)
(0.23654198 0 0)
(0.14742055 0 0)
(0.050985285 0 0)
(0.89703105 0 0)
(0.93967234 0 0)
(0.98070753 0 0)
(1.0202549 0 0)
(1.0584407 0 0)
(1.0954141 0 0)
(1.1312985 0 0)
(1.1661712 0 0)
(1.2001564 0 0)
(1.2301616 0 0)
(1.2557413 0 0)
(1.2797085 0 0)
(1.3020021 0 0)
(1.322551 0 0)
(1.3412537 0 0)
(1.3579936 0 0)
(1.3726362 0 0)
(1.3850266 0 0)
(1.3949943 0 0)
(1.402368 0 0)
(1.4069964 0 0)
(1.4087533 0 0)
(1.4075538 0 0)
(1.4033637 0 0)
(1.3962095 0 0)
(1.3861787 0 0)
(1.3734263 0 0)
(1.3581486 0 0)
(1.3406234 0 0)
(1.3212061 0 0)
(1.3002811 0 0)
(1.2783384 0 0)
(1.2559008 0 0)
(1.2335531 0 0)
(1.2120318 0 0)
(1.1921473 0 0)
(1.1749238 0 0)
(1.1615317 0 0)
(1.1537861 0 0)
(0.8967481 0 0)
(0.85260126 0 0)
(0.80620344 0 0)
(0.75746605 0 0)
(0.70619659 0 0)
(0.6519377 0 0)
(0.59425973 0 0)
(0.53276486 0 0)
(0.46699086 0 0)
(0.39632792 0 0)
(0.32014768 0 0)
(0.23715607 0 0)
(0.14735378 0 0)
(0.050958895 0 0)
(0.93890367 0 0)
(0.97943401 0 0)
(1.0184664 0 0)
(1.0561361 0 0)
(1.0925982 0 0)
(1.1279787 0 0)
(1.1623607 0 0)
(1.195834 0 0)
(1.2285064 0 0)
(1.2571933 0 0)
(1.2814566 0 0)
(1.3041579 0 0)
(1.3252089 0 0)
(1.3445199 0 0)
(1.3619886 0 0)
(1.3774909 0 0)
(1.39088 0 0)
(1.4019924 0 0)
(1.4106567 0 0)
(1.416709 0 0)
(1.4200033 0 0)
(1.4204263 0 0)
(1.4179095 0 0)
(1.4124388 0 0)
(1.4040568 0 0)
(1.3928697 0 0)
(1.3790439 0 0)
(1.362784 0 0)
(1.3443757 0 0)
(1.324177 0 0)
(1.3025687 0 0)
(1.2800342 0 0)
(1.2570922 0 0)
(1.2343187 0 0)
(1.2124433 0 0)
(1.1922674 0 0)
(1.1745967 0 0)
(1.1610423 0 0)
(1.153219 0 0)
(0.93861333 0 0)
(0.89681832 0 0)
(0.85301112 0 0)
(0.80702931 0 0)
(0.75866106 0 0)
(0.70770271 0 0)
(0.65368664 0 0)
(0.59617578 0 0)
(0.5347643 0 0)
(0.46899233 0 0)
(0.39823296 0 0)
(0.32094399 0 0)
(0.23704278 0 0)
(0.14727988 0 0)
(0.05092736 0 0)
(0.97864404 0 0)
(1.0171665 0 0)
(1.0543163 0 0)
(1.0902576 0 0)
(1.1251234 0 0)
(1.1590025 0 0)
(1.1919885 0 0)
(1.2241516 0 0)
(1.2555734 0 0)
(1.2830169 0 0)
(1.3060396 0 0)
(1.327528 0 0)
(1.3473741 0 0)
(1.3654873 0 0)
(1.3817572 0 0)
(1.3960492 0 0)
(1.4082058 0 0)
(1.4180576 0 0)
(1.425436 0 0)
(1.4301859 0 0)
(1.4321746 0 0)
(1.4312972 0 0)
(1.4275029 0 0)
(1.4207952 0 0)
(1.4112372 0 0)
(1.3989477 0 0)
(1.3841052 0 0)
(1.3669232 0 0)
(1.3476889 0 0)
(1.3267641 0 0)
(1.3045193 0 0)
(1.2814407 0 0)
(1.2580393 0 0)
(1.2348762 0 0)
(1.2126812 0 0)
(1.1918775 0 0)
(1.1739595 0 0)
(1.1604054 0 0)
(1.1524876 0 0)
(0.97834657 0 0)
(0.93868528 0 0)
(0.89724033 0 0)
(0.85387043 0 0)
(0.80828061 0 0)
(0.76025324 0 0)
(0.70957699 0 0)
(0.65576831 0 0)
(0.59838474 0 0)
(0.53701729 0 0)
(0.47121669 0 0)
(0.39919638 0 0)
(0.32079494 0 0)
(0.23692183 0 0)
(0.14719443 0 0)
(0.050890825 0 0)
(1.0163607 0 0)
(1.0529914 0 0)
(1.0884102 0 0)
(1.1227537 0 0)
(1.1561177 0 0)
(1.1885995 0 0)
(1.220277 0 0)
(1.2511939 0 0)
(1.2814414 0 0)
(1.3077162 0 0)
(1.3295513 0 0)
(1.3498653 0 0)
(1.3685465 0 0)
(1.3854989 0 0)
(1.4005987 0 0)
(1.4136995 0 0)
(1.424639 0 0)
(1.4332473 0 0)
(1.4393613 0 0)
(1.4428359 0 0)
(1.4435444 0 0)
(1.4413986 0 0)
(1.4363653 0 0)
(1.4284682 0 0)
(1.4177851 0 0)
(1.4044498 0 0)
(1.3886485 0 0)
(1.3706002 0 0)
(1.3505957 0 0)
(1.3289924 0 0)
(1.3061612 0 0)
(1.2825873 0 0)
(1.2587643 0 0)
(1.2352489 0 0)
(1.2122239 0 0)
(1.1910452 0 0)
(1.1731946 0 0)
(1.1596151 0 0)
(1.1515923 0 0)
(1.0160583 0 0)
(0.97841808 0 0)
(0.93911783 0 0)
(0.89812773 0 0)
(0.85517252 0 0)
(0.80994972 0 0)
(0.76223416 0 0)
(0.71180397 0 0)
(0.65816667 0 0)
(0.60087131 0 0)
(0.53952072 0 0)
(0.47232812 0 0)
(0.3990168 0 0)
(0.32063269 0 0)
(0.23678253 0 0)
(0.14709257 0 0)
(0.050847395 0 0)
(1.0521717 0 0)
(1.0870651 0 0)
(1.12088 0 0)
(1.1537216 0 0)
(1.1856904 0 0)
(1.2168659 0 0)
(1.2472988 0 0)
(1.2770425 0 0)
(1.3061911 0 0)
(1.3313528 0 0)
(1.3520397 0 0)
(1.3712191 0 0)
(1.388773 0 0)
(1.4045935 0 0)
(1.418544 0 0)
(1.4304703 0 0)
(1.4402079 0 0)
(1.4475903 0 0)
(1.4524596 0 0)
(1.4546787 0 0)
(1.454137 0 0)
(1.4507586 0 0)
(1.4445296 0 0)
(1.4354901 0 0)
(1.4237357 0 0)
(1.4094091 0 0)
(1.3927052 0 0)
(1.373848 0 0)
(1.353121 0 0)
(1.3308905 0 0)
(1.3075254 0 0)
(1.2834976 0 0)
(1.2592918 0 0)
(1.2347223 0 0)
(1.2111645 0 0)
(1.19011 0 0)
(1.1722955 0 0)
(1.1586709 0 0)
(1.1505282 0 0)
(1.0518625 0 0)
(1.0161312 0 0)
(0.97885924 0 0)
(0.94002913 0 0)
(0.89947345 0 0)
(0.85690938 0 0)
(0.81202454 0 0)
(0.76458793 0 0)
(0.71437152 0 0)
(0.66086745 0 0)
(0.60363736 0 0)
(0.54075743 0 0)
(0.47211557 0 0)
(0.39881993 0 0)
(0.32044548 0 0)
(0.23662099 0 0)
(0.14697308 0 0)
(0.050796764 0 0)
(1.0862328 0 0)
(1.1195176 0 0)
(1.1518298 0 0)
(1.1832737 0 0)
(1.213936 0 0)
(1.2438719 0 0)
(1.2731357 0 0)
(1.3017809 0 0)
(1.3298841 0 0)
(1.3539742 0 0)
(1.373554 0 0)
(1.3916358 0 0)
(1.4080933 0 0)
(1.4228015 0 0)
(1.4356179 0 0)
(1.4463851 0 0)
(1.4549371 0 0)
(1.4611098 0 0)
(1.4647547 0 0)
(1.465747 0 0)
(1.4639837 0 0)
(1.4594088 0 0)
(1.4520265 0 0)
(1.4418952 0 0)
(1.4291221 0 0)
(1.4138609 0 0)
(1.3963105 0 0)
(1.3766908 0 0)
(1.3552938 0 0)
(1.3324914 0 0)
(1.3086367 0 0)
(1.2841962 0 0)
(1.2587047 0 0)
(1.2334155 0 0)
(1.2100316 0 0)
(1.1890669 0 0)
(1.1712604 0 0)
(1.157567 0 0)
(1.1492968 0 0)
(1.0859191 0 0)
(1.0519352 0 0)
(1.0165802 0 0)
(0.97979111 0 0)
(0.94141185 0 0)
(0.90126817 0 0)
(0.85906831 0 0)
(0.81449226 0 0)
(0.76730216 0 0)
(0.71726136 0 0)
(0.66387088 0 0)
(0.60498948 0 0)
(0.54050878 0 0)
(0.47188433 0 0)
(0.39859159 0 0)
(0.32022659 0 0)
(0.23643376 0 0)
(0.14683213 0 0)
(0.050736914 0 0)
(1.1186724 0 0)
(1.1504521 0 0)
(1.1813669 0 0)
(1.2115047 0 0)
(1.2409286 0 0)
(1.2696981 0 0)
(1.2978685 0 0)
(1.3254716 0 0)
(1.3525735 0 0)
(1.3756299 0 0)
(1.3941374 0 0)
(1.4111559 0 0)
(1.426537 0 0)
(1.4401497 0 0)
(1.4518475 0 0)
(1.4614691 0 0)
(1.4688496 0 0)
(1.4738306 0 0)
(1.4762722 0 0)
(1.4760602 0 0)
(1.4731091 0 0)
(1.4673773 0 0)
(1.4588887 0 0)
(1.4477151 0 0)
(1.4339784 0 0)
(1.4178367 0 0)
(1.3994862 0 0)
(1.3791584 0 0)
(1.357149 0 0)
(1.3338203 0 0)
(1.3095205 0 0)
(1.283561 0 0)
(1.2571464 0 0)
(1.2320668 0 0)
(1.20882 0 0)
(1.1879106 0 0)
(1.170084 0 0)
(1.1563047 0 0)
(1.1478926 0 0)
(1.1183534 0 0)
(1.0859909 0 0)
(1.0523886 0 0)
(1.0175303 0 0)
(0.98120632 0 0)
(0.94325663 0 0)
(0.9035011 0 0)
(0.86163704 0 0)
(0.81733638 0 0)
(0.77035706 0 0)
(0.72047467 0 0)
(0.66532928 0 0)
(0.60471083 0 0)
(0.54024069 0 0)
(0.47161166 0 0)
(0.39832178 0 0)
(0.31997205 0 0)
(0.23621505 0 0)
(0.14666672 0 0)
(0.0506668 0 0)
(1.1495985 0 0)
(1.1799782 0 0)
(1.2095842 0 0)
(1.2384874 0 0)
(1.2667482 0 0)
(1.2944264 0 0)
(1.3215589 0 0)
(1.3481634 0 0)
(1.3742978 0 0)
(1.3963529 0 0)
(1.4138334 0 0)
(1.4298085 0 0)
(1.4441282 0 0)
(1.4566624 0 0)
(1.4672553 0 0)
(1.4757443 0 0)
(1.4819682 0 0)
(1.4857754 0 0)
(1.4870362 0 0)
(1.4856501 0 0)
(1.4815429 0 0)
(1.4746952 0 0)
(1.4651466 0 0)
(1.4529834 0 0)
(1.4383362 0 0)
(1.4213596 0 0)
(1.4022636 0 0)
(1.3812873 0 0)
(1.3587125 0 0)
(1.3349038 0 0)
(1.3088472 0 0)
(1.2817559 0 0)
(1.2555802 0 0)
(1.2306715 0 0)
(1.2075237 0 0)
(1.1866396 0 0)
(1.1687665 0 0)
(1.1548781 0 0)
(1.1463183 0 0)
(1.1492748 0 0)
(1.1184228 0 0)
(1.086448 0 0)