/*--------------------------------*- C++ -*----------------------------------*\
| =========                 |                                                 |
| \\      /  F ield         | OpenFOAM: The Open Source CFD Toolbox           |
|  \\    /   O peration     | Version:  v2012                                 |
|   \\  /    A nd           | Website:  www.openfoam.com                      |
|    \\/     M anipulation  |                                                 |
\*---------------------------------------------------------------------------*/
FoamFile
{
    version     2.0;
    format      ascii;
    class       pointVectorField;
    location    "113.994031032431238";
    object      pointDisplacement;
}
// * * * * * * * * * * * * * * * * * * * * * * * * * * * * * * * * * * * * * //

dimensions      [0 1 0 0 0 0 0];


internalField   nonuniform List<vector> 
18840
(
(1.7164809 0 0)
(1.7163229 0 0)
(1.7158534 0 0)
(1.7150805 0 0)
(1.7140104 0 0)
(1.7126477 0 0)
(1.7109956 0 0)
(1.709056 0 0)
(1.7068301 0 0)
(1.7043182 0 0)
(1.7015196 0 0)
(1.6984332 0 0)
(1.6950572 0 0)
(1.6913894 0 0)
(1.6874269 0 0)
(1.6831666 0 0)
(1.678605 0 0)
(1.6737384 0 0)
(1.668563 0 0)
(1.66308 0 0)
(1.6561344 0 0)
(1.7164809 0 0)
(1.7163225 0 0)
(1.7158519 0 0)
(1.7150771 0 0)
(1.7140041 0 0)
(1.7126375 0 0)
(1.7109804 0 0)
(1.7090349 0 0)
(1.7068021 0 0)
(1.7042824 0 0)
(1.7014752 0 0)
(1.6983795 0 0)
(1.6949936 0 0)
(1.6913155 0 0)
(1.6873424 0 0)
(1.6830715 0 0)
(1.6784993 0 0)
(1.6736224 0 0)
(1.668437 0 0)
(1.6629416 0 0)
(1.6571182 0 0)
(1.7164809 0 0)
(1.716322 0 0)
(1.7158495 0 0)
(1.7150715 0 0)
(1.713994 0 0)
(1.7126214 0 0)
(1.710957 0 0)
(1.7090027 0 0)
(1.7067598 0 0)
(1.7042287 0 0)
(1.7014089 0 0)
(1.6982995 0 0)
(1.694899 0 0)
(1.6912054 0 0)
(1.6872161 0 0)
(1.6829286 0 0)
(1.6783394 0 0)
(1.6734452 0 0)
(1.668242 0 0)
(1.6627257 0 0)
(1.6567986 0 0)
(1.7164809 0 0)
(1.7163214 0 0)
(1.7158474 0 0)
(1.7150664 0 0)
(1.7139847 0 0)
(1.7126066 0 0)
(1.710935 0 0)
(1.7089723 0 0)
(1.7067196 0 0)
(1.7041773 0 0)
(1.701345 0 0)
(1.698222 0 0)
(1.6948069 0 0)
(1.6910977 0 0)
(1.6870922 0 0)
(1.6827877 0 0)
(1.6781813 0 0)
(1.6732698 0 0)
(1.6680494 0 0)
(1.6625171 0 0)
(1.6565055 0 0)
(1.7164809 0 0)
(1.716321 0 0)
(1.7158454 0 0)
(1.7150619 0 0)
(1.7139762 0 0)
(1.7125927 0 0)
(1.7109144 0 0)
(1.7089434 0 0)
(1.706681 0 0)
(1.7041275 0 0)
(1.7012827 0 0)
(1.698146 0 0)
(1.6947158 0 0)
(1.6909906 0 0)
(1.6869682 0 0)
(1.6826462 0 0)
(1.6780217 0 0)
(1.673092 0 0)
(1.6678538 0 0)
(1.6623046 0 0)
(1.656215 0 0)
(1.7164809 0 0)
(1.7163206 0 0)
(1.7158437 0 0)
(1.7150577 0 0)
(1.7139683 0 0)
(1.7125796 0 0)
(1.7108947 0 0)
(1.7089156 0 0)
(1.7066435 0 0)
(1.7040788 0 0)
(1.7012214 0 0)
(1.6980704 0 0)
(1.6946247 0 0)
(1.6908827 0 0)
(1.6868424 0 0)
(1.6825016 0 0)
(1.6778576 0 0)
(1.6729079 0 0)
(1.6676495 0 0)
(1.6620807 0 0)
(1.655918 0 0)
(1.7164809 0 0)
(1.7163202 0 0)
(1.7158422 0 0)
(1.7150539 0 0)
(1.713961 0 0)
(1.7125674 0 0)
(1.710876 0 0)
(1.7088889 0 0)
(1.706607 0 0)
(1.704031 0 0)
(1.7011604 0 0)
(1.6979948 0 0)
(1.6945328 0 0)
(1.690773 0 0)
(1.6867134 0 0)
(1.682352 0 0)
(1.6776864 0 0)
(1.6727141 0 0)
(1.6674325 0 0)
(1.6618399 0 0)
(1.6556084 0 0)
(1.7164809 0 0)
(1.7163199 0 0)
(1.7158409 0 0)
(1.7150505 0 0)
(1.7139542 0 0)
(1.7125558 0 0)
(1.7108581 0 0)
(1.7088629 0 0)
(1.7065713 0 0)
(1.7039837 0 0)
(1.7010997 0 0)
(1.6979188 0 0)
(1.6944396 0 0)
(1.6906608 0 0)
(1.6865804 0 0)
(1.6821965 0 0)
(1.6775067 0 0)
(1.6725088 0 0)
(1.6672002 0 0)
(1.6615792 0 0)
(1.6552829 0 0)
(1.7164809 0 0)
(1.7163197 0 0)
(1.7158397 0 0)
(1.7150474 0 0)
(1.7139478 0 0)
(1.7125447 0 0)
(1.7108408 0 0)
(1.7088376 0 0)
(1.7065362 0 0)
(1.7039368 0 0)
(1.7010391 0 0)
(1.6978422 0 0)
(1.694345 0 0)
(1.6905459 0 0)
(1.6864432 0 0)
(1.6820346 0 0)
(1.6773181 0 0)
(1.6722911 0 0)
(1.6669515 0 0)
(1.6612971 0 0)
(1.6549401 0 0)
(1.7164809 0 0)
(1.7163195 0 0)
(1.7158386 0 0)
(1.7150445 0 0)
(1.7139418 0 0)
(1.7125342 0 0)
(1.710824 0 0)
(1.708813 0 0)
(1.7065017 0 0)
(1.7038904 0 0)
(1.7009784 0 0)
(1.6977651 0 0)
(1.6942489 0 0)
(1.6904284 0 0)
(1.6863016 0 0)
(1.6818663 0 0)
(1.6771203 0 0)
(1.6720611 0 0)
(1.6666863 0 0)
(1.6609936 0 0)
(1.6545801 0 0)
(1.7164809 0 0)
(1.716319 0 0)
(1.7158364 0 0)
(1.7150391 0 0)
(1.7139314 0 0)
(1.7125169 0 0)
(1.7107977 0 0)
(1.7087753 0 0)
(1.7064503 0 0)
(1.7038226 0 0)
(1.7008916 0 0)
(1.6976562 0 0)
(1.694115 0 0)
(1.6902662 0 0)
(1.6861078 0 0)
(1.6816375 0 0)
(1.6768528 0 0)
(1.6717513 0 0)
(1.6663304 0 0)
(1.6605872 0 0)
(1.6541167 0 0)
(1.7164809 0 0)
(1.7163229 0 0)
(1.7158534 0 0)
(1.7150805 0 0)
(1.7140104 0 0)
(1.7126477 0 0)
(1.7109956 0 0)
(1.709056 0 0)
(1.7068301 0 0)
(1.7043182 0 0)
(1.7015196 0 0)
(1.6984332 0 0)
(1.6950572 0 0)
(1.6913894 0 0)
(1.6874269 0 0)
(1.6831666 0 0)
(1.678605 0 0)
(1.6737384 0 0)
(1.668563 0 0)
(1.66308 0 0)
(1.6561344 0 0)
(1.7164809 0 0)
(1.7163225 0 0)
(1.7158519 0 0)
(1.7150771 0 0)
(1.7140041 0 0)
(1.7126375 0 0)
(1.7109804 0 0)
(1.7090349 0 0)
(1.7068021 0 0)
(1.7042824 0 0)
(1.7014752 0 0)
(1.6983795 0 0)
(1.6949936 0 0)
(1.6913155 0 0)
(1.6873424 0 0)
(1.6830715 0 0)
(1.6784993 0 0)
(1.6736224 0 0)
(1.668437 0 0)
(1.6629416 0 0)
(1.6571182 0 0)
(1.7164809 0 0)
(1.716322 0 0)
(1.7158495 0 0)
(1.7150715 0 0)
(1.713994 0 0)
(1.7126214 0 0)
(1.710957 0 0)
(1.7090027 0 0)
(1.7067598 0 0)
(1.7042287 0 0)
(1.7014089 0 0)
(1.6982995 0 0)
(1.694899 0 0)
(1.6912054 0 0)
(1.6872161 0 0)
(1.6829286 0 0)
(1.6783394 0 0)
(1.6734452 0 0)
(1.668242 0 0)
(1.6627257 0 0)
(1.6567986 0 0)
(1.7164809 0 0)
(1.7163214 0 0)
(1.7158474 0 0)
(1.7150664 0 0)
(1.7139847 0 0)
(1.7126066 0 0)
(1.710935 0 0)
(1.7089723 0 0)
(1.7067196 0 0)
(1.7041773 0 0)
(1.701345 0 0)
(1.698222 0 0)
(1.6948069 0 0)
(1.6910977 0 0)
(1.6870922 0 0)
(1.6827877 0 0)
(1.6781813 0 0)
(1.6732698 0 0)
(1.6680494 0 0)
(1.6625171 0 0)
(1.6565055 0 0)
(1.7164809 0 0)
(1.716321 0 0)
(1.7158454 0 0)
(1.7150619 0 0)
(1.7139762 0 0)
(1.7125927 0 0)
(1.7109144 0 0)
(1.7089434 0 0)
(1.706681 0 0)
(1.7041275 0 0)
(1.7012827 0 0)
(1.698146 0 0)
(1.6947158 0 0)
(1.6909906 0 0)
(1.6869682 0 0)
(1.6826462 0 0)
(1.6780217 0 0)
(1.673092 0 0)
(1.6678538 0 0)
(1.6623046 0 0)
(1.656215 0 0)
(1.7164809 0 0)
(1.7163206 0 0)
(1.7158437 0 0)
(1.7150577 0 0)
(1.7139683 0 0)
(1.7125796 0 0)
(1.7108947 0 0)
(1.7089156 0 0)
(1.7066435 0 0)
(1.7040788 0 0)
(1.7012214 0 0)
(1.6980704 0 0)
(1.6946247 0 0)
(1.6908827 0 0)
(1.6868424 0 0)
(1.6825016 0 0)
(1.6778576 0 0)
(1.6729079 0 0)
(1.6676495 0 0)
(1.6620807 0 0)
(1.655918 0 0)
(1.7164809 0 0)
(1.7163202 0 0)
(1.7158422 0 0)
(1.7150539 0 0)
(1.713961 0 0)
(1.7125674 0 0)
(1.710876 0 0)
(1.7088889 0 0)
(1.706607 0 0)
(1.704031 0 0)
(1.7011604 0 0)
(1.6979948 0 0)
(1.6945328 0 0)
(1.690773 0 0)
(1.6867134 0 0)
(1.682352 0 0)
(1.6776864 0 0)
(1.6727141 0 0)
(1.6674325 0 0)
(1.6618399 0 0)
(1.6556084 0 0)
(1.7164809 0 0)
(1.7163199 0 0)
(1.7158409 0 0)
(1.7150505 0 0)
(1.7139542 0 0)
(1.7125558 0 0)
(1.7108581 0 0)
(1.7088629 0 0)
(1.7065713 0 0)
(1.7039837 0 0)
(1.7010997 0 0)
(1.6979188 0 0)
(1.6944396 0 0)
(1.6906608 0 0)
(1.6865804 0 0)
(1.6821965 0 0)
(1.6775067 0 0)
(1.6725088 0 0)
(1.6672002 0 0)
(1.6615792 0 0)
(1.6552829 0 0)
(1.7164809 0 0)
(1.7163197 0 0)
(1.7158397 0 0)
(1.7150474 0 0)
(1.7139478 0 0)
(1.7125447 0 0)
(1.7108408 0 0)
(1.7088376 0 0)
(1.7065362 0 0)
(1.7039368 0 0)
(1.7010391 0 0)
(1.6978422 0 0)
(1.694345 0 0)
(1.6905459 0 0)
(1.6864432 0 0)
(1.6820346 0 0)
(1.6773181 0 0)
(1.6722911 0 0)
(1.6669515 0 0)
(1.6612971 0 0)
(1.6549401 0 0)
(1.7164809 0 0)
(1.7163195 0 0)
(1.7158386 0 0)
(1.7150445 0 0)
(1.7139418 0 0)
(1.7125342 0 0)
(1.710824 0 0)
(1.708813 0 0)
(1.7065017 0 0)
(1.7038904 0 0)
(1.7009784 0 0)
(1.6977651 0 0)
(1.6942489 0 0)
(1.6904284 0 0)
(1.6863016 0 0)
(1.6818663 0 0)
(1.6771203 0 0)
(1.6720611 0 0)
(1.6666863 0 0)
(1.6609936 0 0)
(1.6545801 0 0)
(1.7164809 0 0)
(1.716319 0 0)
(1.7158364 0 0)
(1.7150391 0 0)
(1.7139314 0 0)
(1.7125169 0 0)
(1.7107977 0 0)
(1.7087753 0 0)
(1.7064503 0 0)
(1.7038226 0 0)
(1.7008916 0 0)
(1.6976562 0 0)
(1.694115 0 0)
(1.6902662 0 0)
(1.6861078 0 0)
(1.6816375 0 0)
(1.6768528 0 0)
(1.6717513 0 0)
(1.6663304 0 0)
(1.6605872 0 0)
(1.6541167 0 0)
(1.7164809 0 0)
(1.7163222 0 0)
(1.7158513 0 0)
(1.715077 0 0)
(1.7140059 0 0)
(1.7126432 0 0)
(1.7109921 0 0)
(1.7090549 0 0)
(1.7068323 0 0)
(1.7043246 0 0)
(1.7015306 0 0)
(1.6984489 0 0)
(1.695077 0 0)
(1.6914119 0 0)
(1.68745 0 0)
(1.6831872 0 0)
(1.6786187 0 0)
(1.6737395 0 0)
(1.6685439 0 0)
(1.6630311 0 0)
(1.6566916 0 0)
(1.7164809 0 0)
(1.7163222 0 0)
(1.715851 0 0)
(1.7150762 0 0)
(1.7140047 0 0)
(1.7126414 0 0)
(1.7109897 0 0)
(1.7090517 0 0)
(1.7068284 0 0)
(1.7043197 0 0)
(1.7015249 0 0)
(1.6984421 0 0)
(1.6950692 0 0)
(1.6914029 0 0)
(1.6874398 0 0)
(1.6831757 0 0)
(1.6786058 0 0)
(1.673725 0 0)
(1.6685276 0 0)
(1.6630129 0 0)
(1.656677 0 0)
(1.7164809 0 0)
(1.7163219 0 0)
(1.7158498 0 0)
(1.7150738 0 0)
(1.7140005 0 0)
(1.712635 0 0)
(1.7109807 0 0)
(1.7090397 0 0)
(1.7068131 0 0)
(1.7043008 0 0)
(1.701502 0 0)
(1.698415 0 0)
(1.6950375 0 0)
(1.6913665 0 0)
(1.6873984 0 0)
(1.683129 0 0)
(1.6785536 0 0)
(1.6736672 0 0)
(1.6684639 0 0)
(1.6629429 0 0)
(1.6566193 0 0)
(1.7164809 0 0)
(1.7163217 0 0)
(1.7158491 0 0)
(1.7150722 0 0)
(1.7139978 0 0)
(1.7126308 0 0)
(1.7109748 0 0)
(1.7090319 0 0)
(1.706803 0 0)
(1.7042882 0 0)
(1.7014868 0 0)
(1.698397 0 0)
(1.6950165 0 0)
(1.6913423 0 0)
(1.6873711 0 0)
(1.6830984 0 0)
(1.6785198 0 0)
(1.6736301 0 0)
(1.6684237 0 0)
(1.6628992 0 0)
(1.6566015 0 0)
(1.7164809 0 0)
(1.7163216 0 0)
(1.7158488 0 0)
(1.7150715 0 0)
(1.7139965 0 0)
(1.7126289 0 0)
(1.7109719 0 0)
(1.7090278 0 0)
(1.7067976 0 0)
(1.7042815 0 0)
(1.7014784 0 0)
(1.698387 0 0)
(1.6950049 0 0)
(1.6913292 0 0)
(1.6873563 0 0)
(1.6830822 0 0)
(1.6785023 0 0)
(1.6736116 0 0)
(1.6684044 0 0)
(1.6628788 0 0)
(1.6566203 0 0)
(1.7164809 0 0)
(1.7163216 0 0)
(1.7158489 0 0)
(1.7150716 0 0)
(1.7139966 0 0)
(1.7126288 0 0)
(1.7109716 0 0)
(1.7090271 0 0)
(1.7067965 0 0)
(1.7042798 0 0)
(1.7014762 0 0)
(1.6983842 0 0)
(1.6950015 0 0)
(1.6913254 0 0)
(1.6873523 0 0)
(1.6830783 0 0)
(1.6784987 0 0)
(1.6736088 0 0)
(1.6684028 0 0)
(1.6628784 0 0)
(1.6566719 0 0)
(1.7164809 0 0)
(1.7163218 0 0)
(1.7158493 0 0)
(1.7150724 0 0)
(1.7139979 0 0)
(1.7126305 0 0)
(1.7109736 0 0)
(1.7090294 0 0)
(1.706799 0 0)
(1.7042825 0 0)
(1.7014791 0 0)
(1.6983874 0 0)
(1.6950052 0 0)
(1.6913297 0 0)
(1.6873575 0 0)
(1.6830848 0 0)
(1.678507 0 0)
(1.6736194 0 0)
(1.6684164 0 0)
(1.662895 0 0)
(1.6567527 0 0)
(1.7164809 0 0)
(1.716322 0 0)
(1.7158501 0 0)
(1.715074 0 0)
(1.7140003 0 0)
(1.7126339 0 0)
(1.7109779 0 0)
(1.7090347 0 0)
(1.7068052 0 0)
(1.7042896 0 0)
(1.7014872 0 0)
(1.6983966 0 0)
(1.6950157 0 0)
(1.6913419 0 0)
(1.6873718 0 0)
(1.6831017 0 0)
(1.6785272 0 0)
(1.6736435 0 0)
(1.6684454 0 0)
(1.6629291 0 0)
(1.6568626 0 0)
(1.7164809 0 0)
(1.7163223 0 0)
(1.7158512 0 0)
(1.7150763 0 0)
(1.714004 0 0)
(1.712639 0 0)
(1.7109845 0 0)
(1.7090429 0 0)
(1.706815 0 0)
(1.7043011 0 0)
(1.7015006 0 0)
(1.698412 0 0)
(1.6950334 0 0)
(1.6913622 0 0)
(1.6873953 0 0)
(1.6831291 0 0)
(1.6785594 0 0)
(1.6736817 0 0)
(1.6684908 0 0)
(1.6629823 0 0)
(1.6570037 0 0)
(1.7164809 0 0)
(1.7163227 0 0)
(1.7158527 0 0)
(1.7150793 0 0)
(1.7140088 0 0)
(1.7126458 0 0)
(1.7109935 0 0)
(1.709054 0 0)
(1.7068285 0 0)
(1.704317 0 0)
(1.7015191 0 0)
(1.6984333 0 0)
(1.6950579 0 0)
(1.6913904 0 0)
(1.6874278 0 0)
(1.6831667 0 0)
(1.6786033 0 0)
(1.6737336 0 0)
(1.6685528 0 0)
(1.6630589 0 0)
(1.6571913 0 0)
(1.7164809 0 0)
(1.7163222 0 0)
(1.7158513 0 0)
(1.715077 0 0)
(1.7140059 0 0)
(1.7126432 0 0)
(1.7109921 0 0)
(1.7090549 0 0)
(1.7068323 0 0)
(1.7043246 0 0)
(1.7015306 0 0)
(1.6984489 0 0)
(1.695077 0 0)
(1.6914119 0 0)
(1.68745 0 0)
(1.6831872 0 0)
(1.6786187 0 0)
(1.6737395 0 0)
(1.6685439 0 0)
(1.6630311 0 0)
(1.6566916 0 0)
(1.7164809 0 0)
(1.7163222 0 0)
(1.715851 0 0)
(1.7150762 0 0)
(1.7140047 0 0)
(1.7126414 0 0)
(1.7109897 0 0)
(1.7090517 0 0)
(1.7068284 0 0)
(1.7043197 0 0)
(1.7015249 0 0)
(1.6984421 0 0)
(1.6950692 0 0)
(1.6914029 0 0)
(1.6874398 0 0)
(1.6831757 0 0)
(1.6786058 0 0)
(1.673725 0 0)
(1.6685276 0 0)
(1.6630129 0 0)
(1.656677 0 0)
(1.7164809 0 0)
(1.7163219 0 0)
(1.7158498 0 0)
(1.7150738 0 0)
(1.7140005 0 0)
(1.712635 0 0)
(1.7109807 0 0)
(1.7090397 0 0)
(1.7068131 0 0)
(1.7043008 0 0)
(1.701502 0 0)
(1.698415 0 0)
(1.6950375 0 0)
(1.6913665 0 0)
(1.6873984 0 0)
(1.683129 0 0)
(1.6785536 0 0)
(1.6736672 0 0)
(1.6684639 0 0)
(1.6629429 0 0)
(1.6566193 0 0)
(1.7164809 0 0)
(1.7163217 0 0)
(1.7158491 0 0)
(1.7150722 0 0)
(1.7139978 0 0)
(1.7126308 0 0)
(1.7109748 0 0)
(1.7090319 0 0)
(1.706803 0 0)
(1.7042882 0 0)
(1.7014868 0 0)
(1.698397 0 0)
(1.6950165 0 0)
(1.6913423 0 0)
(1.6873711 0 0)
(1.6830984 0 0)
(1.6785198 0 0)
(1.6736301 0 0)
(1.6684237 0 0)
(1.6628992 0 0)
(1.6566015 0 0)
(1.7164809 0 0)
(1.7163216 0 0)
(1.7158488 0 0)
(1.7150715 0 0)
(1.7139965 0 0)
(1.7126289 0 0)
(1.7109719 0 0)
(1.7090278 0 0)
(1.7067976 0 0)
(1.7042815 0 0)
(1.7014784 0 0)
(1.698387 0 0)
(1.6950049 0 0)
(1.6913292 0 0)
(1.6873563 0 0)
(1.6830822 0 0)
(1.6785023 0 0)
(1.6736116 0 0)
(1.6684044 0 0)
(1.6628788 0 0)
(1.6566203 0 0)
(1.7164809 0 0)
(1.7163216 0 0)
(1.7158489 0 0)
(1.7150716 0 0)
(1.7139966 0 0)
(1.7126288 0 0)
(1.7109716 0 0)
(1.7090271 0 0)
(1.7067965 0 0)
(1.7042798 0 0)
(1.7014762 0 0)
(1.6983842 0 0)
(1.6950015 0 0)
(1.6913254 0 0)
(1.6873523 0 0)
(1.6830783 0 0)
(1.6784987 0 0)
(1.6736088 0 0)
(1.6684028 0 0)
(1.6628784 0 0)
(1.6566719 0 0)
(1.7164809 0 0)
(1.7163218 0 0)
(1.7158493 0 0)
(1.7150724 0 0)
(1.7139979 0 0)
(1.7126305 0 0)
(1.7109736 0 0)
(1.7090294 0 0)
(1.706799 0 0)
(1.7042825 0 0)
(1.7014791 0 0)
(1.6983874 0 0)
(1.6950052 0 0)
(1.6913297 0 0)
(1.6873575 0 0)
(1.6830848 0 0)
(1.678507 0 0)
(1.6736194 0 0)
(1.6684164 0 0)
(1.662895 0 0)
(1.6567527 0 0)
(1.7164809 0 0)
(1.716322 0 0)
(1.7158501 0 0)
(1.715074 0 0)
(1.7140003 0 0)
(1.7126339 0 0)
(1.7109779 0 0)
(1.7090347 0 0)
(1.7068052 0 0)
(1.7042896 0 0)
(1.7014872 0 0)
(1.6983966 0 0)
(1.6950157 0 0)
(1.6913419 0 0)
(1.6873718 0 0)
(1.6831017 0 0)
(1.6785272 0 0)
(1.6736435 0 0)
(1.6684454 0 0)
(1.6629291 0 0)
(1.6568626 0 0)
(1.7164809 0 0)
(1.7163223 0 0)
(1.7158512 0 0)
(1.7150763 0 0)
(1.714004 0 0)
(1.712639 0 0)
(1.7109845 0 0)
(1.7090429 0 0)
(1.706815 0 0)
(1.7043011 0 0)
(1.7015006 0 0)
(1.698412 0 0)
(1.6950334 0 0)
(1.6913622 0 0)
(1.6873953 0 0)
(1.6831291 0 0)
(1.6785594 0 0)
(1.6736817 0 0)
(1.6684908 0 0)
(1.6629823 0 0)
(1.6570037 0 0)
(1.7164809 0 0)
(1.7163227 0 0)
(1.7158527 0 0)
(1.7150793 0 0)
(1.7140088 0 0)
(1.7126458 0 0)
(1.7109935 0 0)
(1.709054 0 0)
(1.7068285 0 0)
(1.704317 0 0)
(1.7015191 0 0)
(1.6984333 0 0)
(1.6950579 0 0)
(1.6913904 0 0)
(1.6874278 0 0)
(1.6831667 0 0)
(1.6786033 0 0)
(1.6737336 0 0)
(1.6685528 0 0)
(1.6630589 0 0)
(1.6571913 0 0)
(1.6488674 0 0)
(1.6400231 0 0)
(1.6306596 0 0)
(1.6207671 0 0)
(1.6103408 0 0)
(1.5993751 0 0)
(1.5878636 0 0)
(1.5758 0 0)
(1.5631777 0 0)
(1.5499887 0 0)
(1.536223 0 0)
(1.5218691 0 0)
(1.5069145 0 0)
(1.4913433 0 0)
(1.475137 0 0)
(1.4582761 0 0)
(1.4407403 0 0)
(1.4225037 0 0)
(1.4035318 0 0)
(1.3837915 0 0)
(1.3632485 0 0)
(1.3418626 0 0)
(1.3195872 0 0)
(1.2963726 0 0)
(1.2721657 0 0)
(1.246908 0 0)
(1.2205291 0 0)
(1.1929519 0 0)
(1.1640991 0 0)
(1.1338857 0 0)
(1.1022145 0 0)
(1.068976 0 0)
(1.0340529 0 0)
(0.99730262 0 0)
(0.95858872 0 0)
(0.91779876 0 0)
(0.87476874 0 0)
(0.8292785 0 0)
(0.78114352 0 0)
(0.73023888 0 0)
(0.67633531 0 0)
(0.6190991 0 0)
(0.558236 0 0)
(0.49344287 0 0)
(0.42436927 0 0)
(0.35061013 0 0)
(0.2717322 0 0)
(0.18730547 0 0)
(0.096820235 0 0)
(0 0 0)
(1.6488693 0 0)
(1.6400474 0 0)
(1.6307047 0 0)
(1.6208315 0 0)
(1.6104228 0 0)
(1.5994727 0 0)
(1.587975 0 0)
(1.5759229 0 0)
(1.5633097 0 0)
(1.5501274 0 0)
(1.5363663 0 0)
(1.5220158 0 0)
(1.5070633 0 0)
(1.4914931 0 0)
(1.4752868 0 0)
(1.4584253 0 0)
(1.4408879 0 0)
(1.4226484 0 0)
(1.4036735 0 0)
(1.3839308 0 0)
(1.3633857 0 0)
(1.3419973 0 0)
(1.3197192 0 0)
(1.2965017 0 0)
(1.2722919 0 0)
(1.2470312 0 0)
(1.2206494 0 0)
(1.1930694 0 0)
(1.1642138 0 0)
(1.1339971 0 0)
(1.1023217 0 0)
(1.0690795 0 0)
(1.0341528 0 0)
(0.99739953 0 0)
(0.95868252 0 0)
(0.91788902 0 0)
(0.87485553 0 0)
(0.82936201 0 0)
(0.78122367 0 0)
(0.73031602 0 0)
(0.67641005 0 0)
(0.61917099 0 0)
(0.55830405 0 0)
(0.49350586 0 0)
(0.42442647 0 0)
(0.35066046 0 0)
(0.27177417 0 0)
(0.18733673 0 0)
(0.096837406 0 0)
(0 0 0)
(1.6488612 0 0)
(1.640105 0 0)
(1.6308244 0 0)
(1.6210094 0 0)
(1.6106546 0 0)
(1.5997544 0 0)
(1.5883021 0 0)
(1.5762911 0 0)
(1.5637143 0 0)
(1.5505639 0 0)
(1.5368311 0 0)
(1.5225054 0 0)
(1.5075746 0 0)
(1.4920231 0 0)
(1.4758329 0 0)
(1.4589852 0 0)
(1.441459 0 0)
(1.4232279 0 0)
(1.4042598 0 0)
(1.3845228 0 0)
(1.3639822 0 0)
(1.3425974 0 0)
(1.3203215 0 0)
(1.2971046 0 0)
(1.2728944 0 0)
(1.2476326 0 0)
(1.2212488 0 0)
(1.1936654 0 0)
(1.1648052 0 0)
(1.134583 0 0)
(1.1028999 0 0)
(1.0696489 0 0)
(1.0347129 0 0)
(0.99794924 0 0)
(0.95921997 0 0)
(0.91841237 0 0)
(0.87536357 0 0)
(0.82985298 0 0)
(0.78169499 0 0)
(0.73076588 0 0)
(0.67683661 0 0)
(0.61957056 0 0)
(0.55867266 0 0)
(0.49383964 0 0)
(0.42472129 0 0)
(0.35091075 0 0)
(0.27197375 0 0)
(0.18747866 0 0)
(0.096912736 0 0)
(0 0 0)
(1.6489281 0 0)
(1.6402818 0 0)
(1.6311051 0 0)
(1.6213875 0 0)
(1.6111235 0 0)
(1.600307 0 0)
(1.5889315 0 0)
(1.5769903 0 0)
(1.5644764 0 0)
(1.5513826 0 0)
(1.5377007 0 0)
(1.5234206 0 0)
(1.50853 0 0)
(1.4930137 0 0)
(1.4768543 0 0)
(1.4600333 0 0)
(1.4425294 0 0)
(1.4243163 0 0)
(1.405363 0 0)
(1.3856382 0 0)
(1.3651072 0 0)
(1.3437297 0 0)
(1.3214588 0 0)
(1.2982444 0 0)
(1.2740343 0 0)
(1.2487709 0 0)
(1.2223836 0 0)
(1.1947943 0 0)
(1.1659259 0 0)
(1.1356936 0 0)
(1.103997 0 0)
(1.0707303 0 0)
(1.0357764 0 0)
(0.99899263 0 0)
(0.96023986 0 0)
(0.91940547 0 0)
(0.87632683 0 0)
(0.83078262 0 0)
(0.78258657 0 0)
(0.73161538 0 0)
(0.67763906 0 0)
(0.62031908 0 0)
(0.55936055 0 0)
(0.49446042 0 0)
(0.42526731 0 0)
(0.3513718 0 0)
(0.27233916 0 0)
(0.18773687 0 0)
(0.097048923 0 0)
(0 0 0)
(1.6490661 0 0)
(1.6405733 0 0)
(1.6315417 0 0)
(1.6219605 0 0)
(1.6118236 0 0)
(1.6011246 0 0)
(1.589857 0 0)
(1.5780141 0 0)
(1.5655896 0 0)
(1.5525772 0 0)
(1.5389692 0 0)
(1.5247557 0 0)
(1.5099239 0 0)
(1.4944593 0 0)
(1.4783453 0 0)
(1.4615636 0 0)
(1.4440931 0 0)
(1.4259077 0 0)
(1.4069773 0 0)
(1.3872708 0 0)
(1.3667543 0 0)
(1.3453879 0 0)
(1.3231246 0 0)
(1.2999138 0 0)
(1.2757043 0 0)
(1.2504389 0 0)
(1.2240466 0 0)
(1.1964486 0 0)
(1.1675682 0 0)
(1.1373211 0 0)
(1.1056053 0 0)
(1.0723159 0 0)
(1.0373361 0 0)
(1.0005223 0 0)
(0.9617346 0 0)
(0.9208608 0 0)
(0.87773822 0 0)
(0.83214413 0 0)
(0.78389148 0 0)
(0.73285764 0 0)
(0.67881113 0 0)
(0.62141077 0 0)
(0.56036234 0 0)
(0.49536331 0 0)
(0.42606026 0 0)
(0.35204012 0 0)
(0.27286749 0 0)
(0.18810904 0 0)
(0.097244834 0 0)
(0 0 0)
(1.6492702 0 0)
(1.6409738 0 0)
(1.6321281 0 0)
(1.6227217 0 0)
(1.6127479 0 0)
(1.6022001 0 0)
(1.5910715 0 0)
(1.5793559 0 0)
(1.5670475 0 0)
(1.5541414 0 0)
(1.5406307 0 0)
(1.5265049 0 0)
(1.5117506 0 0)
(1.496354 0 0)
(1.4802998 0 0)
(1.4635699 0 0)
(1.4461435 0 0)
(1.4279951 0 0)
(1.4090955 0 0)
(1.3894134 0 0)
(1.3689159 0 0)
(1.3475638 0 0)
(1.3253102 0 0)
(1.3021043 0 0)
(1.2778955 0 0)
(1.2526272 0 0)
(1.2262282 0 0)
(1.1986187 0 0)
(1.1697224 0 0)
(1.1394554 0 0)
(1.1077148 0 0)
(1.0743957 0 0)
(1.0393816 0 0)
(1.002528 0 0)
(0.96369431 0 0)
(0.92276869 0 0)
(0.87958792 0 0)
(0.83392778 0 0)
(0.7856006 0 0)
(0.73448412 0 0)
(0.6803443 0 0)
(0.62283759 0 0)
(0.56167064 0 0)
(0.49654174 0 0)
(0.42709428 0 0)
(0.35291065 0 0)
(0.2735548 0 0)
(0.1885926 0 0)
(0.09749903 0 0)
(0 0 0)
(1.6495363 0 0)
(1.6414778 0 0)
(1.6328577 0 0)
(1.6236636 0 0)
(1.6138884 0 0)
(1.6035253 0 0)
(1.5925677 0 0)
(1.5810088 0 0)
(1.5688434 0 0)
(1.556068 0 0)
(1.542678 0 0)
(1.5286617 0 0)
(1.5140034 0 0)
(1.4986908 0 0)
(1.4827103 0 0)
(1.4660443 0 0)
(1.4486725 0 0)
(1.4305703 0 0)
(1.4117087 0 0)
(1.3920567 0 0)
(1.3715825 0 0)
(1.3502477 0 0)
(1.3280052 0 0)
(1.3048047 0 0)
(1.2805964 0 0)
(1.255324 0 0)
(1.2289161 0 0)
(1.201292 0 0)
(1.1723758 0 0)
(1.1420837 0 0)
(1.1103121 0 0)
(1.0769565 0 0)
(1.0419 0 0)
(1.0049969 0 0)
(0.9661059 0 0)
(0.92511619 0 0)
(0.8818636 0 0)
(0.83612153 0 0)
(0.78770193 0 0)
(0.73648306 0 0)
(0.68222781 0 0)
(0.62458946 0 0)
(0.56327613 0 0)
(0.49798709 0 0)
(0.42836187 0 0)
(0.35397714 0 0)
(0.27439608 0 0)
(0.18918385 0 0)
(0.097809559 0 0)
(0 0 0)
(1.6498626 0 0)
(1.6420822 0 0)
(1.6337261 0 0)
(1.6247807 0 0)
(1.6152386 0 0)
(1.6050932 0 0)
(1.5943384 0 0)
(1.5829666 0 0)
(1.5709705 0 0)
(1.5583498 0 0)
(1.545105 0 0)
(1.5312203 0 0)
(1.516675 0 0)
(1.5014609 0 0)
(1.485568 0 0)
(1.4689778 0 0)
(1.4516703 0 0)
(1.4336227 0 0)
(1.4148066 0 0)
(1.39519 0 0)
(1.3747426 0 0)
(1.3534274 0 0)
(1.331197 0 0)
(1.308002 0 0)
(1.2837933 0 0)
(1.2585151 0 0)
(1.2320956 0 0)
(1.2044537 0 0)
(1.1755132 0 0)
(1.1451904 0 0)
(1.1133817 0 0)
(1.0799825 0 0)
(1.0448753 0 0)
(1.0079132 0 0)
(0.96895401 0 0)
(0.92788805 0 0)
(0.88454997 0 0)
(0.83871056 0 0)
(0.79018137 0 0)
(0.73884098 0 0)
(0.68444843 0 0)
(0.62665405 0 0)
(0.56516749 0 0)
(0.49968923 0 0)
(0.42985392 0 0)
(0.3552318 0 0)
(0.27538531 0 0)
(0.18987863 0 0)
(0.098174136 0 0)
(0 0 0)
(1.6502497 0 0)
(1.6427855 0 0)
(1.6347304 0 0)
(1.6260689 0 0)
(1.6167926 0 0)
(1.6068975 0 0)
(1.5963794 0 0)
(1.5852269 0 0)
(1.57343 0 0)
(1.5609893 0 0)
(1.547907 0 0)
(1.534169 0 0)
(1.5197553 0 0)
(1.5046571 0 0)
(1.4888653 0 0)
(1.4723624 0 0)
(1.4551281 0 0)
(1.4371429 0 0)
(1.4183784 0 0)
(1.3988004 0 0)
(1.3783825 0 0)
(1.3570891 0 0)
(1.3348709 0 0)
(1.3116804 0 0)
(1.2874699 0 0)
(1.2621836 0 0)
(1.2357496 0 0)
(1.208086 0 0)
(1.1791164 0 0)
(1.1487573 0 0)
(1.1169049 0 0)
(1.0834549 0 0)
(1.0482892 0 0)
(1.0112584 0 0)
(0.97222016 0 0)
(0.93106605 0 0)
(0.8876294 0 0)
(0.84167781 0 0)
(0.79302215 0 0)
(0.74154152 0 0)
(0.68699099 0 0)
(0.62901714 0 0)
(0.56733151 0 0)
(0.50163607 0 0)
(0.43155998 0 0)
(0.35666589 0 0)
(0.27651534 0 0)
(0.19067168 0 0)
(0.098590043 0 0)
(0 0 0)
(1.6507214 0 0)
(1.6436126 0 0)
(1.6358956 0 0)
(1.6275529 0 0)
(1.6185783 0 0)
(1.6089704 0 0)
(1.5987206 0 0)
(1.5878157 0 0)
(1.5762465 0 0)
(1.5640093 0 0)
(1.5511054 0 0)
(1.5375302 0 0)
(1.5232669 0 0)
(1.5083008 0 0)
(1.4926232 0 0)
(1.4762171 0 0)
(1.4590613 0 0)
(1.4411408 0 0)
(1.42243 0 0)
(1.4028947 0 0)
(1.3825102 0 0)
(1.3612387 0 0)
(1.3390302 0 0)
(1.3158412 0 0)
(1.2916259 0 0)
(1.2663277 0 0)
(1.2398746 0 0)
(1.2121844 0 0)
(1.1831798 0 0)
(1.1527774 0 0)
(1.1208738 0 0)
(1.0873651 0 0)
(1.0521319 0 0)
(1.0150225 0 0)
(0.97589381 0 0)
(0.9346391 0 0)
(0.89109027 0 0)
(0.84501146 0 0)
(0.79621265 0 0)
(0.74457321 0 0)
(0.68984391 0 0)
(0.63166774 0 0)
(0.56975782 0 0)
(0.50381801 0 0)
(0.43347118 0 0)
(0.35827161 0 0)
(0.27778009 0 0)
(0.19155875 0 0)
(0.099054844 0 0)
(0 0 0)
(1.6496572 0 0)
(1.6428882 0 0)
(1.6355006 0 0)
(1.6274771 0 0)
(1.6188149 0 0)
(1.6095064 0 0)
(1.5995364 0 0)
(1.588897 0 0)
(1.5775788 0 0)
(1.5655729 0 0)
(1.5528806 0 0)
(1.5395015 0 0)
(1.5254201 0 0)
(1.5106195 0 0)
(1.4950906 0 0)
(1.4788169 0 0)
(1.4617785 0 0)
(1.443962 0 0)
(1.4253443 0 0)
(1.4058937 0 0)
(1.3855824 0 0)
(1.3643701 0 0)
(1.3422115 0 0)
(1.3190658 0 0)
(1.294886 0 0)
(1.2696161 0 0)
(1.2431843 0 0)
(1.2155077 0 0)
(1.1865083 0 0)
(1.156103 0 0)
(1.1241883 0 0)
(1.0906605 0 0)
(1.0553998 0 0)
(1.0182525 0 0)
(0.9790741 0 0)
(0.93775815 0 0)
(0.89413681 0 0)
(0.84797086 0 0)
(0.79906841 0 0)
(0.74730724 0 0)
(0.6924365 0 0)
(0.63409486 0 0)
(0.57199628 0 0)
(0.50584631 0 0)
(0.43526208 0 0)
(0.35978899 0 0)
(0.27898635 0 0)
(0.19241528 0 0)
(0.099515328 0 0)
(0 0 0)
(1.6488674 0 0)
(1.6400231 0 0)
(1.6306596 0 0)
(1.6207671 0 0)
(1.6103408 0 0)
(1.5993751 0 0)
(1.5878636 0 0)
(1.5758 0 0)
(1.5631777 0 0)
(1.5499887 0 0)
(1.536223 0 0)
(1.5218691 0 0)
(1.5069145 0 0)
(1.4913433 0 0)
(1.475137 0 0)
(1.4582761 0 0)
(1.4407403 0 0)
(1.4225037 0 0)
(1.4035318 0 0)
(1.3837915 0 0)
(1.3632485 0 0)
(1.3418626 0 0)
(1.3195872 0 0)
(1.2963726 0 0)
(1.2721657 0 0)
(1.246908 0 0)
(1.2205291 0 0)
(1.1929519 0 0)
(1.1640991 0 0)
(1.1338857 0 0)
(1.1022145 0 0)
(1.068976 0 0)
(1.0340529 0 0)
(0.99730262 0 0)
(0.95858872 0 0)
(0.91779876 0 0)
(0.87476874 0 0)
(0.8292785 0 0)
(0.78114352 0 0)
(0.73023888 0 0)
(0.67633531 0 0)
(0.6190991 0 0)
(0.558236 0 0)
(0.49344287 0 0)
(0.42436927 0 0)
(0.35061013 0 0)
(0.2717322 0 0)
(0.18730547 0 0)
(0.096820235 0 0)
(0 0 0)
(1.6488693 0 0)
(1.6400474 0 0)
(1.6307047 0 0)
(1.6208315 0 0)
(1.6104228 0 0)
(1.5994727 0 0)
(1.587975 0 0)
(1.5759229 0 0)
(1.5633097 0 0)
(1.5501274 0 0)
(1.5363663 0 0)
(1.5220158 0 0)
(1.5070633 0 0)
(1.4914931 0 0)
(1.4752868 0 0)
(1.4584253 0 0)
(1.4408879 0 0)
(1.4226484 0 0)
(1.4036735 0 0)
(1.3839308 0 0)
(1.3633857 0 0)
(1.3419973 0 0)
(1.3197192 0 0)
(1.2965017 0 0)
(1.2722919 0 0)
(1.2470312 0 0)
(1.2206494 0 0)
(1.1930694 0 0)
(1.1642138 0 0)
(1.1339971 0 0)
(1.1023217 0 0)
(1.0690795 0 0)
(1.0341528 0 0)
(0.99739953 0 0)
(0.95868252 0 0)
(0.91788902 0 0)
(0.87485553 0 0)
(0.82936201 0 0)
(0.78122367 0 0)
(0.73031602 0 0)
(0.67641005 0 0)
(0.61917099 0 0)
(0.55830405 0 0)
(0.49350586 0 0)
(0.42442647 0 0)
(0.35066046 0 0)
(0.27177417 0 0)
(0.18733673 0 0)
(0.096837406 0 0)
(0 0 0)
(1.6488612 0 0)
(1.640105 0 0)
(1.6308244 0 0)
(1.6210094 0 0)
(1.6106546 0 0)
(1.5997544 0 0)
(1.5883021 0 0)
(1.5762911 0 0)
(1.5637143 0 0)
(1.5505639 0 0)
(1.5368311 0 0)
(1.5225054 0 0)
(1.5075746 0 0)
(1.4920231 0 0)
(1.4758329 0 0)
(1.4589852 0 0)
(1.441459 0 0)
(1.4232279 0 0)
(1.4042598 0 0)
(1.3845228 0 0)
(1.3639822 0 0)
(1.3425974 0 0)
(1.3203215 0 0)
(1.2971046 0 0)
(1.2728944 0 0)
(1.2476326 0 0)
(1.2212488 0 0)
(1.1936654 0 0)
(1.1648052 0 0)
(1.134583 0 0)
(1.1028999 0 0)
(1.0696489 0 0)
(1.0347129 0 0)
(0.99794924 0 0)
(0.95921997 0 0)
(0.91841237 0 0)
(0.87536357 0 0)
(0.82985298 0 0)
(0.78169499 0 0)
(0.73076588 0 0)
(0.67683661 0 0)
(0.61957056 0 0)
(0.55867266 0 0)
(0.49383964 0 0)
(0.42472129 0 0)
(0.35091075 0 0)
(0.27197375 0 0)
(0.18747866 0 0)
(0.096912736 0 0)
(0 0 0)
(1.6489281 0 0)
(1.6402818 0 0)
(1.6311051 0 0)
(1.6213875 0 0)
(1.6111235 0 0)
(1.600307 0 0)
(1.5889315 0 0)
(1.5769903 0 0)
(1.5644764 0 0)
(1.5513826 0 0)
(1.5377007 0 0)
(1.5234206 0 0)
(1.50853 0 0)
(1.4930137 0 0)
(1.4768543 0 0)
(1.4600333 0 0)
(1.4425294 0 0)
(1.4243163 0 0)
(1.405363 0 0)
(1.3856382 0 0)
(1.3651072 0 0)
(1.3437297 0 0)
(1.3214588 0 0)
(1.2982444 0 0)
(1.2740343 0 0)
(1.2487709 0 0)
(1.2223836 0 0)
(1.1947943 0 0)
(1.1659259 0 0)
(1.1356936 0 0)
(1.103997 0 0)
(1.0707303 0 0)
(1.0357764 0 0)
(0.99899263 0 0)
(0.96023986 0 0)
(0.91940547 0 0)
(0.87632683 0 0)
(0.83078262 0 0)
(0.78258657 0 0)
(0.73161538 0 0)
(0.67763906 0 0)
(0.62031908 0 0)
(0.55936055 0 0)
(0.49446042 0 0)
(0.42526731 0 0)
(0.3513718 0 0)
(0.27233916 0 0)
(0.18773687 0 0)
(0.097048923 0 0)
(0 0 0)
(1.6490661 0 0)
(1.6405733 0 0)
(1.6315417 0 0)
(1.6219605 0 0)
(1.6118236 0 0)
(1.6011246 0 0)
(1.589857 0 0)
(1.5780141 0 0)
(1.5655896 0 0)
(1.5525772 0 0)
(1.5389692 0 0)
(1.5247557 0 0)
(1.5099239 0 0)
(1.4944593 0 0)
(1.4783453 0 0)
(1.4615636 0 0)
(1.4440931 0 0)
(1.4259077 0 0)
(1.4069773 0 0)
(1.3872708 0 0)
(1.3667543 0 0)
(1.3453879 0 0)
(1.3231246 0 0)
(1.2999138 0 0)
(1.2757043 0 0)
(1.2504389 0 0)
(1.2240466 0 0)
(1.1964486 0 0)
(1.1675682 0 0)
(1.1373211 0 0)
(1.1056053 0 0)
(1.0723159 0 0)
(1.0373361 0 0)
(1.0005223 0 0)
(0.9617346 0 0)
(0.9208608 0 0)
(0.87773822 0 0)
(0.83214413 0 0)
(0.78389148 0 0)
(0.73285764 0 0)
(0.67881113 0 0)
(0.62141077 0 0)
(0.56036234 0 0)
(0.49536331 0 0)
(0.42606026 0 0)
(0.35204012 0 0)
(0.27286749 0 0)
(0.18810904 0 0)
(0.097244834 0 0)
(0 0 0)
(1.6492702 0 0)
(1.6409738 0 0)
(1.6321281 0 0)
(1.6227217 0 0)
(1.6127479 0 0)
(1.6022001 0 0)
(1.5910715 0 0)
(1.5793559 0 0)
(1.5670475 0 0)
(1.5541414 0 0)
(1.5406307 0 0)
(1.5265049 0 0)
(1.5117506 0 0)
(1.496354 0 0)
(1.4802998 0 0)
(1.4635699 0 0)
(1.4461435 0 0)
(1.4279951 0 0)
(1.4090955 0 0)
(1.3894134 0 0)
(1.3689159 0 0)
(1.3475638 0 0)
(1.3253102 0 0)
(1.3021043 0 0)
(1.2778955 0 0)
(1.2526272 0 0)
(1.2262282 0 0)
(1.1986187 0 0)
(1.1697224 0 0)
(1.1394554 0 0)
(1.1077148 0 0)
(1.0743957 0 0)
(1.0393816 0 0)
(1.002528 0 0)
(0.96369431 0 0)
(0.92276869 0 0)
(0.87958792 0 0)
(0.83392778 0 0)
(0.7856006 0 0)
(0.73448412 0 0)
(0.6803443 0 0)
(0.62283759 0 0)
(0.56167064 0 0)
(0.49654174 0 0)
(0.42709428 0 0)
(0.35291065 0 0)
(0.2735548 0 0)
(0.1885926 0 0)
(0.09749903 0 0)
(0 0 0)
(1.6495363 0 0)
(1.6414778 0 0)
(1.6328577 0 0)
(1.6236636 0 0)
(1.6138884 0 0)
(1.6035253 0 0)
(1.5925677 0 0)
(1.5810088 0 0)
(1.5688434 0 0)
(1.556068 0 0)
(1.542678 0 0)
(1.5286617 0 0)
(1.5140034 0 0)
(1.4986908 0 0)
(1.4827103 0 0)
(1.4660443 0 0)
(1.4486725 0 0)
(1.4305703 0 0)
(1.4117087 0 0)
(1.3920567 0 0)
(1.3715825 0 0)
(1.3502477 0 0)
(1.3280052 0 0)
(1.3048047 0 0)
(1.2805964 0 0)
(1.255324 0 0)
(1.2289161 0 0)
(1.201292 0 0)
(1.1723758 0 0)
(1.1420837 0 0)
(1.1103121 0 0)
(1.0769565 0 0)
(1.0419 0 0)
(1.0049969 0 0)
(0.9661059 0 0)
(0.92511619 0 0)
(0.8818636 0 0)
(0.83612153 0 0)
(0.78770193 0 0)
(0.73648306 0 0)
(0.68222781 0 0)
(0.62458946 0 0)
(0.56327613 0 0)
(0.49798709 0 0)
(0.42836187 0 0)
(0.35397714 0 0)
(0.27439608 0 0)
(0.18918385 0 0)
(0.097809559 0 0)
(0 0 0)
(1.6498626 0 0)
(1.6420822 0 0)
(1.6337261 0 0)
(1.6247807 0 0)
(1.6152386 0 0)
(1.6050932 0 0)
(1.5943384 0 0)
(1.5829666 0 0)
(1.5709705 0 0)
(1.5583498 0 0)
(1.545105 0 0)
(1.5312203 0 0)
(1.516675 0 0)
(1.5014609 0 0)
(1.485568 0 0)
(1.4689778 0 0)
(1.4516703 0 0)
(1.4336227 0 0)
(1.4148066 0 0)
(1.39519 0 0)
(1.3747426 0 0)
(1.3534274 0 0)
(1.331197 0 0)
(1.308002 0 0)
(1.2837933 0 0)
(1.2585151 0 0)
(1.2320956 0 0)
(1.2044537 0 0)
(1.1755132 0 0)
(1.1451904 0 0)
(1.1133817 0 0)
(1.0799825 0 0)
(1.0448753 0 0)
(1.0079132 0 0)
(0.96895401 0 0)
(0.92788805 0 0)
(0.88454997 0 0)
(0.83871056 0 0)
(0.79018137 0 0)
(0.73884098 0 0)
(0.68444843 0 0)