/*--------------------------------*- C++ -*----------------------------------*\
| =========                 |                                                 |
| \\      /  F ield         | OpenFOAM: The Open Source CFD Toolbox           |
|  \\    /   O peration     | Version:  v2012                                 |
|   \\  /    A nd           | Website:  www.openfoam.com                      |
|    \\/     M anipulation  |                                                 |
\*---------------------------------------------------------------------------*/
FoamFile
{
    version     2.0;
    format      ascii;
    class       volVectorField;
    location    "113.994031032431238";
    object      U;
}
// * * * * * * * * * * * * * * * * * * * * * * * * * * * * * * * * * * * * * //

dimensions      [0 1 -1 0 0 0 0];


internalField   nonuniform List<vector> 
9200
(
(2.7211717 0.019760912 -4.1926893e-21)
(2.7229784 0.069067288 -9.5721897e-21)
(2.6630416 0.018814848 2.1151291e-22)
(2.7248269 0.11487874 5.151964e-21)
(2.6592664 0.065765017 -2.3609208e-21)
(2.6377208 0.017176091 3.5657545e-21)
(2.7267452 0.16839404 1.7025544e-20)
(2.6529373 0.10746509 9.619313e-21)
(2.6328283 0.060048221 -5.7861193e-21)
(2.607388 0.015181644 8.6713848e-21)
(2.7266292 0.22818217 1.2330374e-20)
(2.6412912 0.15416117 -2.0178886e-21)
(2.6249067 0.097112342 -7.2340302e-21)
(2.6010937 0.053130156 6.2489664e-21)
(2.5840111 0.013051667 2.8833723e-21)
(2.7231531 0.29799502 1.120513e-20)
(2.6238428 0.2025029 1.3292694e-20)
(2.6114467 0.13756194 -1.7734476e-20)
(2.5910996 0.084897934 -1.1695838e-20)
(2.5772793 0.045696209 1.4056638e-21)
(2.5641909 0.010957457 -1.2998284e-20)
(2.7155004 0.37949328 2.8088775e-20)
(2.5987393 0.25465185 5.2592094e-21)
(2.5921725 0.17782684 -1.2979061e-21)
(2.5748551 0.11853464 1.1365904e-21)
(2.5667533 0.072181279 -6.2580844e-21)
(2.557381 0.038400907 -2.2384545e-21)
(2.5484275 0.0090002097 -1.7152747e-21)
(2.6984735 0.47515396 1.0916748e-20)
(2.5601232 0.31006575 2.0951786e-20)
(2.5653144 0.21955354 9.2881909e-21)
(2.5527104 0.15035893 5.5585883e-21)
(2.5501645 0.09938715 4.4837162e-21)
(2.5468772 0.059959034 7.4606107e-21)
(2.5418611 0.031589601 -1.6901512e-21)
(2.535977 0.0072367621 6.2545413e-21)
(2.6648746 0.58583768 -5.5876935e-21)
(2.506973 0.36895149 -6.4758185e-21)
(2.5298029 0.26096985 2.0575593e-21)
(2.5235467 0.1812233 7.1422857e-21)
(2.5283203 0.12377401 -1.2897563e-21)
(2.5306825 0.081411411 -5.0311978e-21)
(2.5318749 0.04875178 8.3760156e-22)
(2.5298204 0.025454552 -4.0642739e-21)
(2.5263934 0.0056948111 -3.600521e-22)
(2.5770142 0.70061812 3.0332739e-20)
(2.4387662 0.43134817 6.0679035e-21)
(2.4840401 0.30001382 -1.5157709e-20)
(2.4866615 0.20932943 -2.2374207e-20)
(2.5005878 0.14587468 -1.1668829e-20)
(2.5099353 0.099546935 5.5384605e-21)
(2.5167438 0.065259277 2.2409977e-21)
(2.5205943 0.038812349 1.3251035e-21)
(2.5207351 0.020067205 3.9721547e-21)
(2.519172 0.0043797035 -6.0874518e-21)
(2.4234092 0.7918345 1.5424237e-20)
(2.3592463 0.49281859 5.9087246e-21)
(2.4263254 0.33352706 3.2608243e-20)
(2.4416231 0.23329127 1.0341363e-20)
(2.4670819 0.16406998 -1.686178e-20)
(2.4843958 0.11472668 5.9583652e-22)
(2.4978146 0.078321965 1.3645378e-21)
(2.5068047 0.051175369 -5.0704742e-22)
(2.5123883 0.030204091 8.758974e-22)
(2.5140428 0.015422839 3.6669751e-21)
(2.5138822 0.0032774533 2.0423963e-21)
(2.2165482 0.83724181 5.4052605e-21)
(2.2653182 0.54353105 7.472473e-21)
(2.3538851 0.35847398 -3.0778095e-21)
(2.3886011 0.25105116 4.9206892e-21)
(2.4280184 0.17720576 7.4927301e-21)
(2.4545915 0.12562739 3.7700118e-21)
(2.4751087 0.088196841 -6.1585251e-22)
(2.4899013 0.060212416 6.8256086e-22)
(2.5000466 0.039154555 8.2867583e-22)
(2.506597 0.022875266 -2.1310605e-21)
(2.5092813 0.011470825 -8.8308534e-22)
(2.5101458 0.0023587172 1.3409201e-21)
(1.9813004 0.84909076 -5.9338615e-20)
(2.1469745 0.57304787 -3.7646953e-20)
(2.2675096 0.37114702 6.2942282e-21)
(2.3290247 0.26030138 -1.4798183e-20)
(2.3840796 0.18364706 5.6909982e-21)
(2.4210692 0.13146133 7.7612853e-22)
(2.449383 0.093880548 -5.5739946e-21)
(2.4700646 0.066104011 3.171884e-21)
(2.4851841 0.04504823 3.6689181e-21)
(2.4956799 0.029049064 1.7918161e-21)
(2.5026998 0.016710262 -9.4868455e-22)
(2.5060575 0.0081362193 -1.1786549e-21)
(2.507647 0.0015880692 -8.0556497e-22)
(1.7460104 0.83092304 5.2631128e-20)
(2.0091451 0.57075406 -1.6932457e-20)
(2.1717966 0.36596132 -2.21189e-21)
(2.2651556 0.25855798 -4.4810852e-21)
(2.3362779 0.18199219 -1.1633999e-20)
(2.3848088 0.1312402 -6.7274734e-22)
(2.4213327 0.094873361 -1.1562111e-20)
(2.4481505 0.068145846 -2.228197e-21)
(2.4680673 0.047993497 3.5644168e-22)
(2.4827322 0.032515287 2.0115281e-21)
(2.4931161 0.02064257 3.4616944e-22)
(2.5002683 0.011563118 4.4612372e-22)
(2.5040481 0.0053358594 1.5392504e-21)
(2.506143 0.00093149037 -5.6022681e-22)
(1.5333905 0.7843598 -2.564966e-20)
(1.8658842 0.53573802 4.7639716e-20)
(2.0708323 0.3390033 -5.0123035e-22)
(2.1989247 0.24388089 -3.616743e-20)
(2.2863022 0.171252 2.1503896e-20)
(2.3470674 0.12429612 2.3219528e-21)
(2.3919562 0.090600472 6.6333978e-21)
(2.4248881 0.06605417 -5.0168185e-21)
(2.4495668 0.047544538 -1.7025222e-21)
(2.468057 0.033305828 7.751952e-22)
(2.4818943 0.022246411 -1.3969317e-21)
(2.4918924 0.013693794 -6.4970045e-22)
(2.4989658 0.0072795005 -1.1808642e-21)
(2.5029837 0.0029887072 -5.0847662e-22)
(2.5054568 0.0003573931 1.38861e-22)
(1.3550797 0.72394189 3.6349267e-20)
(1.7294604 0.47410889 -1.3938504e-21)
(1.9702729 0.29025029 -1.9695369e-20)
(2.1328767 0.21471723 7.8980352e-21)
(2.2366868 0.15113303 -5.3672345e-21)
(2.3093179 0.11015392 -3.5134827e-21)
(2.3623534 0.080827528 2.3671218e-22)
(2.4012159 0.059557065 -9.5903818e-23)
(2.4303799 0.043561076 2.6281382e-22)
(2.4524889 0.031191285 -2.5360977e-21)
(2.4693452 0.021472687 2.8382607e-22)
(2.4821855 0.013870827 6.1068552e-22)
(2.4916606 0.0079636295 -5.2541549e-23)
(2.4985323 0.0037112224 1.3486016e-24)
(2.5026456 0.0010159813 -4.0836626e-23)
(2.5053744 -0.00012689217 8.2071264e-22)
(1.2139134 0.65395958 8.0283828e-21)
(1.6092641 0.39175904 -2.790402e-21)
(1.8775411 0.22223127 2.2880357e-21)
(2.0699317 0.17047273 1.6612439e-20)
(2.1900387 0.12185329 -1.0060593e-20)
(2.2730667 0.088856021 -2.0780194e-20)
(2.3337269 0.065531899 6.0356452e-21)
(2.3780693 0.048665214 6.9722804e-21)
(2.4113472 0.035984859 -4.1086124e-21)
(2.4366642 0.02612326 -1.637104e-21)
(2.4562388 0.018269628 1.2327445e-22)
(2.4714513 0.011965904 1.0256266e-21)
(2.4832627 0.0070436489 -2.0007835e-21)
(2.4921614 0.0032299135 7.3765798e-22)
(2.4987688 0.00072775505 5.7370996e-22)
(2.5028875 -0.00065974504 8.1848436e-22)
(2.5057885 -0.00050404583 -9.7028349e-22)
(1.1166231 0.58061362 3.7844155e-20)
(1.5129679 0.29586942 6.8020869e-21)
(1.7996474 0.1394766 1.1880198e-20)
(2.013439 0.11257582 -4.7661907e-21)
(2.1484909 0.084087747 1.5379301e-20)
(2.2398864 0.061023964 -4.9104648e-21)
(2.3072331 0.045060732 4.7311861e-21)
(2.3563985 0.033565537 -4.5490325e-22)
(2.3932555 0.024975258 -1.1579042e-22)
(2.4213188 0.018198161 -2.966125e-21)
(2.4431398 0.012645707 -2.6411308e-21)
(2.4603782 0.0080690058 -1.2165543e-21)
(2.4740595 0.0043178691 1.4648402e-21)
(2.4848836 0.0014583243 4.5091993e-22)
(2.4932034 -0.00070545106 3.9833058e-23)
(2.4995125 -0.0017818322 1.8723822e-22)
(2.5036084 -0.002096319 1.4849885e-23)
(2.5065976 -0.00086947901 9.2931153e-23)
(1.0564889 0.50566519 -2.2272835e-20)
(1.4457541 0.19127532 9.0945966e-21)
(1.7416874 0.046720022 -1.0186334e-21)
(1.9667934 0.044287109 -5.3811688e-21)
(2.1136031 0.039047062 1.1690835e-20)
(2.2112123 0.027802368 1.5780836e-20)
(2.2838666 0.020034328 -1.2565499e-20)
(2.3370479 0.014720727 1.1029073e-20)
(2.3768501 0.010823906 -8.1403625e-22)
(2.4071047 0.00764585 2.9222584e-21)
(2.4306733 0.0048015079 -2.8342905e-22)
(2.4494546 0.0022142033 -8.5500543e-22)
(2.4646448 -1.9489385e-05 3.9746521e-21)
(2.4769583 -0.0018758475 -2.1953146e-21)
(2.4868768 -0.0031513212 8.233868e-22)
(2.4946486 -0.0040129636 -2.9551593e-22)
(2.5006435 -0.0039166699 -3.3263521e-22)
(2.5046976 -0.0033334131 -1.7573776e-22)
(2.5077198 -0.0011927154 6.0378218e-22)
(1.0186831 0.42880895 -8.0122013e-20)
(1.4093688 0.082520781 1.9995686e-20)
(1.7060997 -0.051448011 -3.2736962e-21)
(1.9324481 -0.030662104 -6.6631001e-21)
(2.0864031 -0.011607388 2.2390243e-21)
(2.1880322 -0.0095100518 4.5682207e-21)
(2.2643293 -0.008719931 1.3064545e-21)
(2.3206665 -0.0073250511 -7.7123374e-21)
(2.3627303 -0.0060456258 4.0862594e-21)
(2.3945771 -0.0052160911 3.6122334e-21)
(2.4193373 -0.0050325537 -2.5164881e-21)
(2.4391779 -0.0053650783 -1.3914758e-21)
(2.4554341 -0.0059440129 -1.1437565e-21)
(2.4688924 -0.0065032303 6.0974754e-22)
(2.4800189 -0.0069482553 4.0896958e-22)
(2.4891282 -0.0070003613 4.3029276e-22)
(2.4963958 -0.0068232815 -3.0887678e-22)
(2.5020837 -0.0057598579 3.5138815e-23)
(2.5060664 -0.0044110889 0)
(2.5090998 -0.0014518552 0)
(1.0022818 0.34776345 7.1787575e-20)
(1.4034187 -0.027237109 -5.7546529e-20)
(1.6928153 -0.15026536 2.2941371e-20)
(1.911721 -0.10813602 2.2951876e-22)
(2.0673572 -0.06579064 -2.4939474e-21)
(2.1707455 -0.049617061 -9.1797014e-22)
(2.2490629 -0.04021936 6.0657649e-21)
(2.3076624 -0.031917153 -1.3806022e-20)
(2.3513498 -0.025136201 5.1766952e-21)
(2.3842112 -0.01995822 -4.9041313e-21)
(2.4095967 -0.016487531 7.0194264e-22)
(2.4299539 -0.014391765 -3.729895e-21)
(2.4468255 -0.013172507 1.453397e-21)
(2.4610412 -0.012403117 2.1442771e-21)
(2.4730593 -0.011768403 -1.2459547e-21)
(2.4831666 -0.01116016 4.6882098e-22)
(2.4915624 -0.010262735 3.680636e-22)
(2.4983689 -0.0092421574 4.5651868e-22)
(2.5037692 -0.0073678758 7.4496123e-23)
(2.5076598 -0.0053568313 -1.4610155e-23)
(2.5106792 -0.0016781948 -6.2897425e-26)
(1.0139003 0.26175714 7.4951286e-20)
(1.4269568 -0.13644263 1.683571e-20)
(1.6998902 -0.24601908 2.4240473e-21)
(1.9048638 -0.18411745 -4.3587165e-21)
(2.0567181 -0.12084 -2.8185687e-21)
(2.1593689 -0.090975791 6.7203642e-21)
(2.2382417 -0.073305531 -7.8811312e-21)
(2.2982554 -0.05828419 4.8756017e-21)
(2.3430212 -0.045856064 -5.6630773e-21)
(2.3763676 -0.036099783 -1.2429259e-21)
(2.4018179 -0.029112621 5.0985599e-21)
(2.4221533 -0.02447618 1.0738111e-21)
(2.4391503 -0.021428755 -2.6038939e-21)
(2.4537239 -0.019286602 8.8705271e-23)
(2.466301 -0.017612925 2.9388445e-21)
(2.4771192 -0.016122508 -2.5027425e-21)
(2.4863526 -0.014720459 9.6481533e-22)
(2.4941247 -0.013073027 -8.2239383e-22)
(2.5005151 -0.011352289 -4.6009399e-22)
(2.5056474 -0.0087837651 -1.8716576e-22)
(2.5094308 -0.0061902595 -2.4645865e-23)
(2.5124172 -0.0018738894 -3.1875883e-22)
(1.0720452 0.17155098 -4.517272e-20)
(1.4808301 -0.24245524 3.9468266e-20)
(1.7245706 -0.33588153 -5.3836316e-20)
(1.9106713 -0.25555551 -1.4025759e-20)
(2.05391 -0.17437199 -5.0906047e-21)
(2.1535063 -0.13212733 -5.6159446e-22)
(2.2317358 -0.10693817 -6.4709139e-21)
(2.2924155 -0.085703056 8.4189985e-21)
(2.3378646 -0.067670853 -3.0407322e-21)
(2.3712682 -0.053175468 -2.5368761e-21)
(2.3962623 -0.042486776 2.4568175e-21)
(2.4160164 -0.035214646 -2.5770587e-21)
(2.4326439 -0.030354104 -2.4401763e-21)
(2.4471719 -0.02690553 2.9710762e-21)
(2.4599888 -0.024204578 -5.9146607e-24)
(2.4712469 -0.021910571 -1.1397254e-21)
(2.4810625 -0.019798255 2.1923141e-21)
(2.4895495 -0.017787852 -1.8455637e-21)
(2.4967794 -0.015532688 3.2790486e-22)
(2.5027965 -0.013214843 -6.8153226e-22)
(2.5076775 -0.010038888 -3.0608682e-22)
(2.5113408 -0.0069264295 -2.7817609e-23)
(2.5142756 -0.0020431855 -3.73376e-22)
(1.1643079 0.080887935 -4.0195258e-20)
(1.5626699 -0.34181309 -4.5088335e-20)
(1.763311 -0.41734625 5.8374503e-20)
(1.9272279 -0.3202278 -8.4417813e-21)
(2.0578784 -0.22458755 8.9632302e-22)
(2.1524099 -0.17191427 -4.0211523e-21)
(2.2290666 -0.14027428 -3.0098048e-21)
(2.2898936 -0.11355992 -5.8300285e-21)
(2.3358139 -0.090129272 -1.2289341e-21)
(2.3690067 -0.070776273 8.0772628e-22)
(2.3930997 -0.056185538 -1.545844e-21)
(2.4117207 -0.046186342 3.1600103e-21)
(2.4274603 -0.039562714 2.3696131e-21)
(2.4415375 -0.034933413 -1.2107363e-21)
(2.4542902 -0.031331748 -2.6547707e-21)
(2.4657446 -0.028268756 3.3837914e-21)
(2.4759206 -0.025540086 -2.386916e-21)
(2.4848921 -0.022970366 1.482911e-22)
(2.4927429 -0.020481986 1.931029e-21)
(2.4995031 -0.017716865 -1.6987629e-22)
(2.5051844 -0.014873774 5.0475693e-22)
(2.5098259 -0.011154647 2.1582026e-22)
(2.5133582 -0.0075753833 -1.8360502e-22)
(2.5162225 -0.0021890093 -1.3903259e-22)
(1.2757847 -0.0067157051 7.3760353e-20)
(1.6629811 -0.429299 1.5812446e-21)
(1.8121241 -0.48817982 -1.1614762e-20)
(1.9523246 -0.37670444 3.1062006e-20)
(2.0673091 -0.27017398 -8.066939e-21)
(2.1551748 -0.20939582 3.779063e-21)
(2.229595 -0.17263263 5.5105743e-21)
(2.2902958 -0.14134475 9.8070236e-22)
(2.3366884 -0.11286986 3.4087762e-21)
(2.3695893 -0.088554818 -5.661874e-22)
(2.3924322 -0.069830397 -8.5202972e-22)
(2.4093806 -0.056974395 1.549479e-21)
(2.4236857 -0.048655125 9.8129823e-22)
(2.436887 -0.043030113 7.1607298e-22)
(2.4492895 -0.038720828 -8.258518e-22)
(2.4607347 -0.035031584 -7.2426396e-22)
(2.4710883 -0.031715023 -2.2243204e-21)
(2.4803565 -0.028680888 2.5981267e-21)
(2.4886153 -0.025769766 5.5486901e-22)
(2.4959271 -0.022890794 1.255747e-21)
(2.5022804 -0.019678941 -2.7287751e-24)
(2.5076566 -0.016358883 -4.1677016e-22)
(2.5120653 -0.012145231 -2.0381291e-22)
(2.5154555 -0.0081437536 -7.3533555e-23)
(2.51823 -0.0023130331 1.1951726e-21)
(1.4075762 -0.089636026 6.5725497e-20)
(1.7694647 -0.50251624 -2.4170878e-20)
(1.8675354 -0.54690298 -6.3998945e-20)
(1.9837086 -0.42436953 -3.1857784e-20)
(2.0807674 -0.31029546 -7.2422076e-21)
(2.1608189 -0.24390949 -1.0765068e-21)
(2.2325872 -0.20352866 1.8575878e-21)
(2.2931165 -0.16868744 2.0571312e-21)
(2.3401951 -0.13565031 3.1218029e-21)
(2.3729499 -0.10628618 2.8432258e-21)
(2.3943169 -0.083098391 9.4555164e-22)
(2.4090643 -0.067187571 -1.0653348e-21)
(2.4213463 -0.057228067 6.0150122e-22)
(2.4332136 -0.050844099 -1.3716044e-24)
(2.4449843 -0.046098741 -8.3147381e-23)
(2.4562604 -0.041987035 2.3909625e-21)
(2.4666659 -0.038202474 -2.4369315e-21)
(2.4760855 -0.034708792 5.365325e-21)
(2.4845822 -0.03146647 -1.2946154e-21)
(2.4922434 -0.028293431 9.0776742e-22)
(2.4991021 -0.025076738 -1.6901332e-21)
(2.5051012 -0.021454765 0)
(2.510195 -0.017689058 6.5206887e-23)
(2.5143722 -0.013019456 -1.4765433e-22)
(2.5176081 -0.0086356834 5.9455038e-22)
(2.5202739 -0.0024164451 1.6529782e-21)
(1.5479138 -0.163937 -3.232446e-20)
(1.8756353 -0.56218964 7.3528063e-20)
(1.9275736 -0.59331619 2.8014548e-21)
(2.0191613 -0.46308151 -6.3163941e-20)
(2.096819 -0.34452486 1.6658034e-20)
(2.1683734 -0.27505721 -8.1576316e-21)
(2.2372946 -0.23265209 -1.1194587e-20)
(2.297794 -0.19536006 -7.7529827e-21)
(2.3459832 -0.15833457 -7.5458246e-23)
(2.3789499 -0.12383407 -2.0003951e-21)
(2.3987706 -0.095790162 -1.0599296e-21)
(2.4108222 -0.076483094 -1.9943209e-21)
(2.4204328 -0.064881416 2.8943677e-21)
(2.4304478 -0.058014341 1.3147721e-21)
(2.4412942 -0.053189216 -4.5945717e-21)
(2.4522813 -0.048942273 1.3235253e-21)
(2.4626833 -0.044851248 -8.0430928e-22)
(2.4721763 -0.040970246 1.5302555e-21)
(2.4807775 -0.037373595 1.8698187e-21)
(2.4886221 -0.033998202 2.7448179e-22)
(2.4957911 -0.030611549 -4.4795365e-21)
(2.5022719 -0.027081631 -9.2675476e-23)
(2.5079585 -0.023066314 1.3487797e-22)
(2.5127838 -0.018875096 7.3650981e-22)
(2.5167254 -0.013782419 -4.7187162e-23)
(2.5197938 -0.0090538183 -1.620908e-22)
(2.5223325 -0.0025001276 -4.3086279e-22)
(1.6840149 -0.22952517 1.0534936e-20)
(1.979493 -0.60949742 8.9094514e-20)
(1.9902144 -0.628306 2.0044379e-20)
(2.0564418 -0.49334086 3.3348319e-20)
(2.1141543 -0.3727758 -1.201232e-20)
(2.1769573 -0.30267019 4.004387e-24)
(2.2430042 -0.25984093 -1.2072021e-20)
(2.3037504 -0.2212484 7.9604471e-21)
(2.3536702 -0.18090321 3.8211547e-22)
(2.3874462 -0.1411911 4.057369e-22)
(2.4058048 -0.10769772 -8.5336943e-22)
(2.4146724 -0.084593208 -1.8783646e-21)
(2.4209078 -0.071262788 -3.7220809e-22)
(2.4284747 -0.064184144 -1.3494525e-21)
(2.4380675 -0.059713034 8.9409681e-22)
(2.4486768 -0.055716795 -2.0002673e-21)
(2.4590951 -0.051548751 -8.7687231e-22)
(2.4686688 -0.047364072 -3.8718255e-21)
(2.4773078 -0.043430208 5.1062127e-21)
(2.4851923 -0.03980875 -5.417867e-21)
(2.4925015 -0.036353029 -1.5618061e-22)
(2.4992763 -0.032772204 1.3789536e-21)
(2.5054426 -0.028930614 -4.7760516e-22)
(2.5108464 -0.024525023 -4.3752405e-22)
(2.5154085 -0.01992221 -4.295796e-22)
(2.519106 -0.014436926 -3.5442859e-24)
(2.5219923 -0.0094000794 -2.2573478e-22)
(2.5243869 -0.0025648924 -5.0780795e-22)
(1.8211592 -0.28625751 -1.0982859e-20)
(2.0814615 -0.64485833 -8.7353866e-20)
(2.0531624 -0.6527551 5.3792899e-21)
(2.0936809 -0.51563024 -3.6774505e-20)
(2.131672 -0.39525652 4.1456107e-20)
(2.1858103 -0.32679121 1.2560869e-20)
(2.2490762 -0.28505284 2.8953954e-21)
(2.3104293 -0.24632222 7.8897073e-21)
(2.3628465 -0.20341891 -6.8334131e-21)
(2.3982885 -0.15843322 -1.9801325e-21)
(2.4154477 -0.11884997 -5.5123398e-22)
(2.4207405 -0.091157057 -7.0520113e-22)
(2.4227369 -0.075938357 8.2857468e-22)
(2.4271401 -0.069001551 2.1929634e-21)
(2.4350918 -0.065397513 2.1399293e-21)
(2.4452503 -0.062143697 -2.4471853e-21)
(2.4557818 -0.05821294 5.685321e-21)
(2.4655428 -0.053844522 -2.1044531e-21)
(2.4742393 -0.049566917 -9.7430143e-22)
(2.4820753 -0.045670561 -8.3245503e-22)
(2.4893565 -0.042097467 -2.6797105e-21)
(2.4962493 -0.038587259 6.9633712e-23)
(2.5027191 -0.034804868 3.3021319e-21)
(2.5086208 -0.030635716 2.2929983e-22)
(2.5137593 -0.025834828 -1.0456989e-21)
(2.5180553 -0.020832189 -1.0424943e-22)
(2.5214961 -0.014984719 -3.3615486e-22)
(2.5241855 -0.0096762753 -4.9961697e-22)
(2.5264202 -0.0026116259 -2.8339095e-21)
(1.9584565 -0.33512479 6.0348405e-20)
(2.181601 -0.67015257 -3.8156514e-20)
(2.1144777 -0.66946914 4.4219749e-20)
(2.1295554 -0.53041235 2.3181644e-20)
(2.1484481 -0.41244824 -6.1552894e-21)
(2.1943033 -0.34757829 4.7341705e-22)
(2.2549629 -0.30831956 1.6189693e-20)
(2.3173201 -0.27061826 1.5657828e-21)
(2.3731075 -0.22600007 3.1255682e-21)
(2.4112955 -0.17572998 5.243592e-21)
(2.4277367 -0.12920297 -2.8864694e-22)
(2.4290759 -0.096203718 1.9550006e-22)
(2.4259804 -0.078643317 1.6463042e-21)
(2.4263162 -0.071990008 -4.3102498e-21)
(2.4321104 -0.069938101 7.4186949e-22)
(2.441735 -0.068071748 2.0654189e-21)
(2.4525505 -0.064795119 -3.3293691e-22)
(2.4627172 -0.06041341 2.7535237e-21)
(2.4715985 -0.055781582 1.9137625e-21)
(2.479371 -0.051523983 -1.0298241e-21)
(2.4864905 -0.047780634 -1.0459425e-21)
(2.4933034 -0.044308368 2.809286e-21)
(2.4998992 -0.040738314 6.8218287e-22)
(2.5061407 -0.036723466 -1.4674677e-21)
(2.511812 -0.0321992 1.0603967e-21)
(2.5166904 -0.026994879 -3.4901416e-22)
(2.5207103 -0.021605171 -5.1785786e-23)
(2.5238793 -0.015427416 -1.3118364e-22)
(2.5263569 -0.0098845417 -1.6291598e-22)
(2.528418 -0.0026413515 -8.1126077e-22)
(2.100646 -0.37787265 1.1782067e-20)
(2.2753716 -0.68766535 7.4219985e-20)
(2.1730395 -0.67818969 -2.4790738e-21)
(2.1630417 -0.53837423 5.3761408e-20)
(2.1638196 -0.42476351 -3.7231817e-20)
(2.2019448 -0.36514895 -1.0331478e-21)
(2.2602308 -0.32970554 3.1757634e-23)
(2.3239699 -0.29419225 -7.7014802e-22)
(2.384057 -0.24881271 5.6420188e-22)
(2.4262963 -0.1933119 -4.9083101e-21)
(2.4427178 -0.13887064 3.6088437e-21)
(2.4397293 -0.099420533 2.313371e-21)
(2.4306073 -0.079028008 -2.5597664e-22)
(2.4257408 -0.073254244 1.8611199e-21)
(2.4288421 -0.073124139 -1.5830049e-21)
(2.437809 -0.073350196 1.4884287e-21)
(2.44914 -0.071279974 -2.1117486e-21)
(2.4600485 -0.06712451 -1.0207648e-21)
(2.4693701 -0.062132469 -2.2207848e-21)
(2.4771626 -0.05738173 -3.1353518e-24)
(2.4840347 -0.053330589 -1.2970623e-21)
(2.4905779 -0.049848442 -2.0894007e-21)
(2.4970767 -0.046493685 2.4335648e-21)
(2.5034884 -0.042826012 -3.0507645e-23)
(2.509561 -0.038529441 -1.1841938e-21)
(2.5150197 -0.033616667 2.799173e-22)
(2.5196319 -0.028001851 1.0825356e-21)
(2.5233599 -0.022241027 5.9653242e-23)
(2.5262403 -0.015767188 -7.8795277e-22)
(2.5284919 -0.010027609 1.6045237e-21)
(2.5303678 -0.0026552186 2.8014249e-21)
(2.2537714 -0.41613305 -6.8511153e-20)
(2.367301 -0.69914593 5.6023869e-20)
(2.2277037 -0.6783118 -6.7477106e-21)
(2.1938419 -0.54096461 -1.2374628e-20)
(2.1774334 -0.43296027 1.4704731e-20)
(2.2084047 -0.38017598 -2.9926897e-20)
(2.2645338 -0.34938232 -3.9767444e-22)
(2.3299982 -0.31714724 -6.2044887e-21)
(2.3953164 -0.27200534 1.4075151e-20)
(2.4431164 -0.21146533 -1.0217005e-20)
(2.4604487 -0.14800498 -4.8976184e-21)
(2.4528877 -0.1007624 -1.047623e-21)
(2.4365778 -0.076815447 -2.0425055e-22)
(2.425301 -0.07143867 7.2008531e-22)
(2.424864 -0.07444087 -2.6105546e-21)
(2.4330787 -0.077890978 4.7830214e-22)
(2.4452279 -0.077683008 3.1101177e-21)
(2.4573339 -0.074084174 -1.203229e-22)
(2.4674948 -0.068744926 7.7952466e-23)
(2.475515 -0.06332349 -1.0445023e-21)
(2.4821272 -0.058745393 4.1334421e-23)
(2.4882253 -0.055104719 1.3300775e-21)
(2.4943843 -0.051952682 1.1547372e-21)
(2.5007303 -0.048686832 2.0934268e-22)
(2.507055 -0.04485429 1.1931905e-21)
(2.5129974 -0.04021487 8.187082e-22)
(2.5182446 -0.034879843 -1.0914974e-22)
(2.5225743 -0.028851806 7.8806722e-22)
(2.5259905 -0.022740366 -9.530814e-23)
(2.5285653 -0.016007163 -7.0389344e-23)
(2.5305779 -0.010108892 -2.3212271e-21)
(2.5322593 -0.0026544516 -7.3608593e-22)
(2.4067364 -0.44654334 3.7691146e-20)
(2.458411 -0.70273128 -4.4190445e-20)
(2.2829494 -0.67261981 7.2400989e-21)
(2.221653 -0.53801269 -1.7051298e-22)
(2.1894691 -0.43762828 2.3410238e-20)
(2.2134769 -0.39275226 7.5778986e-20)
(2.2675895 -0.36739926 0)
(2.335059 -0.3395414 2.2678976e-21)
(2.4065248 -0.29577464 3.5081912e-20)
(2.461584 -0.23048167 5.4705662e-21)
(2.4809936 -0.1567873 -7.3397911e-22)
(2.4687105 -0.10019783 9.0365201e-21)
(2.4440222 -0.071666406 8.0451834e-22)
(2.4249367 -0.06702096 -4.5702036e-22)
(2.4199023 -0.074025726 3.7941695e-22)
(2.4271829 -0.081408221 -4.3424019e-22)
(2.4404335 -0.084037306 1.3662906e-21)
(2.4543143 -0.081444069 -3.1252536e-21)
(2.4658687 -0.07581294 -1.5009118e-22)
(2.4744726 -0.069505171 3.783424e-21)
(2.4809127 -0.064088942 4.8286003e-21)
(2.4864259 -0.060034956 5.0877196e-22)
(2.4919796 -0.056969309 5.2412507e-21)
(2.4979792 -0.054153656 1.243419e-21)
(2.5043247 -0.05090112 -4.6032222e-22)
(2.510635 -0.046813642 -1.0500693e-21)
(2.5164628 -0.041765552 -1.7571383e-21)
(2.521484 -0.035978958 -4.1175293e-22)
(2.5255071 -0.029541611 0)
(2.528589 -0.023105188 -4.6687258e-22)
(2.5308416 -0.016151584 1.3536281e-21)
(2.5326041 -0.010132441 -4.6636503e-21)
(2.5340842 -0.0026402986 1.3998568e-22)
(2.5557782 -0.46773663 -7.10588e-20)
(2.543891 -0.69883821 -2.4889216e-20)
(2.3390763 -0.66003476 -1.2727232e-20)
(2.249133 -0.53292533 1.0694939e-21)
(2.2005249 -0.43906444 7.3374774e-22)
(2.2164574 -0.40294653 2.1421266e-20)
(2.269179 -0.38402479 2.1704859e-22)
(2.3389475 -0.36142838 -2.4801923e-21)
(2.4173399 -0.32014681 -2.041059e-20)
(2.4814991 -0.25073308 -1.0299203e-20)
(2.5044145 -0.16544975 1.0843365e-20)
(2.4873561 -0.097682432 -7.1845669e-21)
(2.453049 -0.06338289 -7.6524003e-22)
(2.4244428 -0.059339147 -1.2274549e-21)
(2.4136925 -0.07118003 5.137105e-21)
(2.4196525 -0.084071374 -1.7751357e-21)
(2.4343738 -0.09040427 5.6371388e-22)
(2.450685 -0.089390728 2.6580376e-21)
(2.4643438 -0.083590477 6.8363657e-22)
(2.4740567 -0.076162607 4.1766795e-22)
(2.4805418 -0.069502304 -1.6521117e-21)
(2.4853892 -0.064653622 -4.7038465e-21)
(2.4900642 -0.061442964 1.7439906e-21)
(2.4953793 -0.05903225 2.2392426e-21)
(2.5014499 -0.056486298 -2.593845e-21)
(2.5079211 -0.053130334 -4.6319477e-21)
(2.5142593 -0.048684181 -1.5205745e-21)
(2.519965 -0.043163902 1.2942403e-22)
(2.524732 -0.036904666 1.1430579e-21)
(2.5284186 -0.030069905 3.8689207e-22)
(2.5311429 -0.023339194 4.1624522e-22)
(2.5330583 -0.016205756 -1.8087502e-22)
(2.5345615 -0.010102786 4.0158852e-21)
(2.5358358 -0.0026140012 3.3176803e-21)
(2.6980446 -0.47965154 -3.1796842e-20)
(2.6232245 -0.68691183 1.578317e-20)
(2.3930369 -0.63968902 -1.5725404e-20)
(2.274508 -0.52392937 -4.9803223e-20)
(2.211569 -0.43903284 -1.7321934e-20)
(2.2167747 -0.41110875 -9.2241842e-20)
(2.268918 -0.39918893 -2.1007999e-20)
(2.3417125 -0.38306993 -1.2099941e-20)
(2.4275754 -0.34546209 -3.0611889e-20)
(2.5027085 -0.27240473 5.8990558e-22)
(2.5307445 -0.17424459 3.801342e-21)
(2.5089611 -0.093275569 -1.7846811e-20)
(2.4637493 -0.051732643 -6.1305494e-21)
(2.4237128 -0.048036639 -4.5958402e-22)
(2.4058141 -0.065736967 -8.5216008e-22)
(2.4099988 -0.085499368 6.3441874e-22)
(2.426592 -0.09681398 -8.3670384e-22)
(2.446098 -0.098139522 -2.7922402e-22)
(2.4627298 -0.092382614 -4.1258344e-21)
(2.4742621 -0.083605352 1.7563256e-21)
(2.4811682 -0.075210276 -4.4198919e-22)
(2.4853567 -0.069043997 -2.8392921e-21)
(2.4888868 -0.065313972 -2.6007922e-21)
(2.4931283 -0.063155328 -1.8780842e-21)
(2.4985433 -0.061369676 -3.0408421e-21)
(2.504892 -0.058956968 2.3978657e-21)
(2.5115764 -0.055351174 4.1396709e-22)
(2.5179515 -0.050439081 4.8463582e-22)
(2.5235058 -0.044391568 1.6091578e-21)
(2.5279798 -0.037649514 3.7396372e-22)
(2.5312963 -0.030437647 -1.1648615e-22)
(2.5336403 -0.023447784 5.1762205e-22)
(2.5352058 -0.016175857 -4.8310469e-22)
(2.536443 -0.010024744 5.5010372e-21)
(2.5375093 -0.0025767828 -1.4665095e-21)
(2.8294215 -0.48368941 3.3341068e-20)
(2.6956966 -0.66724992 1.5893554e-21)
(2.4439295 -0.61159427 -1.6367591e-21)
(2.2973314 -0.5096664 1.4473678e-20)
(2.222452 -0.43654799 -1.2209068e-20)
(2.2156367 -0.41775588 -1.8166833e-20)
(2.267255 -0.4138476 1.7518378e-20)
(2.3434053 -0.40426296 1.3973906e-20)
(2.4375833 -0.37139328 1.818653e-21)
(2.5248691 -0.29617655 3.8838141e-20)
(2.5600463 -0.1833324 -3.0248669e-20)
(2.5336931 -0.086947572 -9.0846879e-21)
(2.4761989 -0.036560366 2.6666091e-21)
(2.4226368 -0.032764311 -2.7394052e-21)
(2.3959033 -0.057364233 -1.8316272e-21)
(2.397806 -0.085672561 4.3434619e-21)
(2.4166171 -0.10336796 -2.3523682e-21)
(2.4401824 -0.10790462 7.0388911e-22)
(2.4607963 -0.10252589 -1.1407876e-21)
(2.4750526 -0.092208852 -1.2834685e-22)
(2.4829436 -0.081519137 -4.0272668e-21)
(2.4865996 -0.073366746 -3.6590017e-21)
(2.4887484 -0.068574775 -1.6231908e-21)
(2.4914819 -0.066376728 8.3650325e-21)
(2.495774 -0.065318813 -5.1715625e-21)
(2.5016131 -0.064015901 -1.6399126e-21)
(2.5083993 -0.061544262 9.791792e-22)
(2.5153381 -0.057527149 -8.8054779e-22)
(2.5217261 -0.052048101 -7.2822921e-22)
(2.5270814 -0.045431631 4.0899485e-22)
(2.5312159 -0.038208877 -1.0991019e-21)
(2.534128 -0.030648233 2.705032e-22)
(2.5360706 -0.023437843 -1.5166478e-21)
(2.5372763 -0.016068673 9.0366922e-22)
(2.538243 -0.0099032334 -1.2582214e-21)
(2.5391013 -0.0025298425 2.0645917e-21)
(2.9529817 -0.48018901 3.460075e-20)
(2.7635733 -0.63891567 -3.8520419e-20)
(2.4900709 -0.576703 -1.3434031e-20)
(2.3184168 -0.49045661 3.3556777e-20)
(2.2281921 -0.43168276 1.9491815e-20)
(2.2165912 -0.42235988 5.8971728e-22)
(2.2603552 -0.42794492 3.9948327e-20)
(2.3453656 -0.42564534 1.4853799e-20)
(2.4467212 -0.39810592 -3.7957982e-20)
(2.5471545 -0.32039658 -3.6380923e-21)
(2.5909512 -0.19304675 1.8607593e-21)
(2.561383 -0.078796723 -1.5648665e-20)
(2.4906105 -0.017614592 -9.3848929e-21)
(2.4211068 -0.013127577 -9.461343e-22)
(2.3836112 -0.045752211 2.8859871e-21)
(2.3826107 -0.084493139 -1.8314834e-22)
(2.404035 -0.11014188 -1.2823987e-21)
(2.4325601 -0.11891592 -4.00277e-21)
(2.4582785 -0.11437965 -5.028356e-21)
(2.4763565 -0.10239854 1.9521041e-22)
(2.4860103 -0.088813405 3.9587748e-21)
(2.4894153 -0.077860893 -5.5707511e-22)
(2.4900021 -0.07127882 5.909212e-21)
(2.4907606 -0.06858053 2.3415249e-21)
(2.4933724 -0.068101735 -1.7198515e-21)
(2.498204 -0.068019349 2.2744164e-22)
(2.5047354 -0.066960978 1.5871184e-21)
(2.5120553 -0.064203209 -3.9887825e-21)
(2.5192409 -0.059613325 -5.2239995e-22)
(2.5255883 -0.053480876 2.7315468e-21)
(2.5306829 -0.046270217 3.7529118e-22)
(2.5344272 -0.038581387 -1.0654583e-21)
(2.5369012 -0.030707321 -4.4131978e-22)
(2.5384244 -0.023317394 -1.2986529e-21)
(2.5392632 -0.015891341 -1.9738983e-21)
(2.5399578 -0.0097431261 1.7068262e-21)
(2.5406098 -0.0024743469 -2.4333303e-21)
(3.0634953 -0.46858548 -1.5290337e-21)
(2.816808 -0.59985887 -1.0434996e-21)
(2.5282188 -0.53485937 -9.8809844e-22)
(2.3351729 -0.46554149 -3.6949887e-23)
(2.2293665 -0.42266919 3.304984e-20)
(2.2155449 -0.42432544 -5.9787012e-22)
(2.2513312 -0.44150688 -1.8946692e-20)
(2.3412389 -0.4472976 -1.2503079e-20)
(2.4558621 -0.42386763 2.0069272e-20)
(2.5660094 -0.34671256 1.1228018e-20)
(2.6158651 -0.20161531 1.9990537e-20)
(2.5879959 -0.068553037 6.174491e-20)
(2.506108 0.0049927247 3.2532546e-21)
(2.4191581 0.011183659 8.5823124e-22)
(2.3685762 -0.030632086 -2.507911e-21)
(2.3639749 -0.081868354 -5.2690856e-22)
(2.3884384 -0.1172282 2.0981281e-21)
(2.4228611 -0.13139116 1.879977e-21)
(2.4548891 -0.12828548 7.8666313e-22)
(2.4780593 -0.11463274 2.1279391e-21)
(2.4904912 -0.097546995 3.1135291e-21)
(2.4941204 -0.082845085 4.9367966e-21)
(2.4930518 -0.073542484 1.1525503e-21)
(2.4913502 -0.069688898 2.7786202e-21)
(2.4916367 -0.069493771 2.6435964e-21)
(2.4948414 -0.070661218 -5.0516032e-21)
(2.5006385 -0.07127372 5.9923096e-21)
(2.5080459 -0.070154905 -3.0876045e-22)
(2.5159259 -0.066871692 3.9381502e-21)
(2.5233051 -0.061561243 -4.7246981e-22)
(2.5295341 -0.054709615 -3.7445216e-21)
(2.5342969 -0.046897453 2.0305162e-21)
(2.5375994 -0.038768908 2.7582356e-21)
(2.5396044 -0.030622461 6.2550546e-23)
(2.5406936 -0.023095235 -5.7140398e-22)
(2.5411618 -0.015651103 -2.3631273e-21)
(2.5415848 -0.0095491438 1.0677651e-20)
(2.5420338 -0.0024114186 -5.3958264e-21)
(3.159227 -0.44842746 1.9125643e-21)
(2.8585261 -0.55151926 3.9333634e-21)
(2.553982 -0.48591952 -6.9488535e-21)
(2.3418945 -0.43392541 2.344956e-20)
(2.2249368 -0.40905611 -7.6786624e-20)
(2.2083 -0.4246743 -3.0294731e-21)
(2.2434337 -0.45421435 -7.2894699e-20)
(2.3342277 -0.4701772 -1.6232834e-20)
(2.4560822 -0.45180589 4.327013e-20)
(2.5814531 -0.3685112 3.4186997e-21)
(2.6312707 -0.21100408 5.2625393e-20)
(2.6083277 -0.054027141 2.4474695e-20)