/*--------------------------------*- C++ -*----------------------------------*\
| =========                 |                                                 |
| \\      /  F ield         | OpenFOAM: The Open Source CFD Toolbox           |
|  \\    /   O peration     | Version:  v2012                                 |
|   \\  /    A nd           | Website:  www.openfoam.com                      |
|    \\/     M anipulation  |                                                 |
\*---------------------------------------------------------------------------*/
FoamFile
{
    version     2.0;
    format      ascii;
    class       surfaceVectorField;
    location    "113.994031032431238";
    object      Uf;
}
// * * * * * * * * * * * * * * * * * * * * * * * * * * * * * * * * * * * * * //

dimensions      [0 1 -1 0 0 0 0];


internalField   nonuniform List<vector> 
18180
(
(2.7221054 0.04545666 -6.9727568e-21)
(2.6870159 0.019279588 -1.9524092e-21)
(2.7239337 0.092451429 -1.9625361e-21)
(2.685401 0.067385374 -5.9039871e-21)
(2.6610906 0.04340083 -1.1178995e-21)
(2.6524326 0.017981789 1.9173274e-21)
(2.7258183 0.14246442 1.1288532e-20)
(2.682232 0.11110415 7.4243086e-21)
(2.6559955 0.086947856 3.8305548e-21)
(2.6483052 0.062859605 -4.1027948e-21)
(2.6351924 0.039720212 -1.2671928e-21)
(2.6218471 0.016161704 6.1667431e-21)
(2.7266852 0.19902892 1.4598939e-20)
(2.6756721 0.16114918 7.3393767e-21)
(2.6469184 0.1316025 3.6049914e-21)
(2.6415777 0.10220351 1.0487877e-21)
(2.6287344 0.078774428 -6.5344052e-21)
(2.6161581 0.056529541 3.3423682e-22)
(2.6041352 0.035185903 7.4195088e-21)
(2.5956642 0.014098512 5.727914e-21)
(2.7248327 0.26413244 1.1748812e-20)
(2.664452 0.2151132 1.2819826e-20)
(2.6322734 0.17891925 5.8949836e-21)
(2.6296388 0.14572482 -1.018462e-20)
(2.6179504 0.11801252 -1.2660814e-20)
(2.6070621 0.090899878 -9.5030194e-21)
(2.5959287 0.069140421 -3.0249356e-21)
(2.5891514 0.049349887 3.7859366e-21)
(2.5805322 0.030300513 2.119712e-21)
(2.5738748 0.011986634 -5.1932228e-21)
(2.719198 0.33988793 1.9931132e-20)
(2.646762 0.27593923 8.5522857e-21)
(2.6108687 0.22928204 9.1407801e-21)
(2.6121007 0.1899615 5.8732002e-21)
(2.6014854 0.15809558 -9.2397319e-21)
(2.591966 0.12788437 -8.051594e-21)
(2.5827043 0.10227744 -5.0638869e-21)
(2.578901 0.078431373 -8.9474181e-21)
(2.5718394 0.0590129 -2.5549611e-21)
(2.5670849 0.04198609 -4.4754174e-22)
(2.5606717 0.02549106 -7.4377517e-21)
(2.5561605 0.0099620815 -7.2605322e-21)
(2.7067004 0.42944962 1.9213766e-20)
(2.6195247 0.3441682 2.4459033e-20)
(2.5787815 0.28290614 1.336954e-20)
(2.5872074 0.23681332 7.3079499e-21)
(2.5782916 0.19908092 4.1732256e-21)
(2.5709486 0.16385637 2.1887552e-21)
(2.5634104 0.13473713 3.4219544e-21)
(2.5624994 0.10879798 2.8188889e-21)
(2.5581801 0.086249395 -7.0661311e-22)
(2.5565407 0.065965478 7.1848781e-22)
(2.5519527 0.049218151 2.7740152e-21)
(2.5494659 0.034936946 -1.957673e-21)
(2.5450341 0.020991634 -1.7022912e-21)
(2.5420641 0.0081033659 2.339158e-21)
(2.6811087 0.53316916 2.3868224e-21)
(2.5800626 0.4211234 2.071488e-21)
(2.5326539 0.3400603 6.7765397e-21)
(2.55171 0.28511297 1.1768325e-20)
(2.5469612 0.24072038 5.5512367e-21)
(2.5425465 0.20005853 8.1969704e-21)
(2.537638 0.16612144 6.3770751e-21)
(2.5405227 0.13684032 2.0760045e-21)
(2.5388751 0.11179851 1.4998954e-21)
(2.540102 0.090245274 -3.7037416e-22)
(2.5385076 0.071070656 1.0047272e-21)
(2.5392117 0.054259443 4.089118e-21)
(2.5367002 0.040182122 -3.8381096e-22)
(2.535698 0.028469462 -2.8975433e-21)
(2.5327954 0.016932291 9.2191857e-22)
(2.5310767 0.0064525493 2.8894705e-21)
(2.6194663 0.64599127 1.2976798e-20)
(2.5267282 0.50725026 3.3976311e-22)
(2.4717223 0.40020169 7.0400502e-24)
(2.5038281 0.3339129 -1.1441799e-20)
(2.5061517 0.28093119 -6.8396532e-21)
(2.505647 0.23470489 -1.0097567e-20)
(2.5044836 0.19555674 -8.1124475e-21)
(2.5120794 0.16324825 -2.4471758e-21)
(2.5139876 0.13507537 -6.6538567e-21)
(2.5187426 0.11145281 2.2068273e-21)
(2.51996 0.090644091 4.3135833e-22)
(2.5235361 0.073196995 -1.3328978e-21)
(2.524055 0.057321305 1.5628895e-21)
(2.5260853 0.043696781 1.0855277e-21)
(2.5250523 0.032125341 -1.2790469e-21)
(2.5251678 0.022714618 2.0070851e-23)
(2.5234693 0.013365705 1.8787748e-21)
(2.5226963 0.0050259512 -3.2738974e-21)
(2.4976283 0.74670885 2.2627755e-20)
(2.4455873 0.59492535 1.8678047e-20)
(2.3976689 0.46309367 5.985637e-21)
(2.4415628 0.38162486 1.9562955e-20)
(2.4542121 0.31722066 9.5285997e-21)
(2.4594418 0.2660777 -1.9952558e-21)
(2.4633847 0.22156062 -5.4661715e-21)
(2.4769231 0.18631468 -1.9571015e-20)
(2.4832713 0.15516458 -1.4352648e-20)
(2.4920274 0.13003353 -5.4317696e-21)
(2.496736 0.10732755 2.9840214e-21)
(2.5036838 0.088752562 3.4157967e-21)
(2.5069609 0.071914067 1.7880302e-21)
(2.5116163 0.058096403 8.4343489e-22)
(2.5134677 0.045248254 3.7823015e-22)
(2.5163804 0.034434262 1.096648e-21)
(2.5164215 0.025113337 2.3720087e-21)
(2.5173026 0.017705085 3.8169452e-21)
(2.5165213 0.010293766 -1.0464888e-21)
(2.5164601 0.0038190882 -1.9526661e-21)
(2.3165005 0.81473022 1.024629e-20)
(2.3301068 0.66555482 1.1380586e-20)
(2.310703 0.51988617 6.7168912e-21)
(2.3634519 0.42452114 1.0827535e-21)
(2.3888872 0.3464864 1.4165149e-20)
(2.403371 0.29157882 1.8790363e-20)
(2.4142204 0.24238973 7.5398694e-21)
(2.4349102 0.20477132 8.8661814e-21)
(2.4468932 0.17081323 -4.2749177e-21)
(2.4602822 0.14451872 -6.4239331e-21)
(2.4689924 0.12031007 2.2363129e-21)
(2.4795475 0.10123427 -6.1907671e-24)
(2.4860798 0.083400114 3.4103461e-22)
(2.4936913 0.06911159 1.0177059e-21)
(2.4980688 0.055783813 1.0776075e-22)
(2.5033147 0.045061614 1.7227335e-22)
(2.50601 0.034879526 8.5149279e-22)
(2.5094081 0.026476618 -6.5340319e-22)
(2.5101948 0.019116607 6.7054381e-22)
(2.5115973 0.013412802 1.3528364e-21)
(2.5115045 0.0076847893 5.3054294e-22)
(2.511962 0.0028101621 1.6856227e-21)
(2.0949699 0.84438113 -2.8055002e-20)
(2.1774678 0.70289322 -1.6487228e-20)
(2.204157 0.55985021 -1.5845691e-20)
(2.2684296 0.45588444 6.873385e-21)
(2.3092453 0.36522911 1.7657652e-21)
(2.3374183 0.30854438 -9.0375335e-21)
(2.3578112 0.25593996 -5.270296e-21)
(2.3864057 0.21677525 5.3267918e-21)
(2.4053102 0.18058018 6.5615662e-21)
(2.4238921 0.15394059 4.0770696e-21)
(2.4372665 0.12865426 2.2227166e-21)
(2.4517754 0.10948156 -9.8195073e-22)
(2.4618131 0.091126781 -3.1783216e-21)
(2.4724138 0.076960451 1.3104801e-21)
(2.4796493 0.063257411 1.9690923e-21)
(2.4874343 0.052499846 2.2013698e-21)
(2.4923654 0.042163623 2.2965608e-21)
(2.4977827 0.034014791 1.3185207e-21)
(2.5009549 0.026114838 -1.0367068e-22)
(2.504587 0.019739643 -1.5297057e-21)
(2.50588 0.014051005 -9.1698716e-22)
(2.507622 0.0097747697 -1.0334138e-21)
(2.508033 0.0054855477 3.8832566e-23)
(2.50886 0.0019667391 2.4858158e-22)
(1.8597013 0.83967885 -1.4720379e-21)
(1.9988229 0.70755977 -3.7775137e-20)
(2.0757434 0.57283228 -2.694158e-20)
(2.1562474 0.46774887 -1.9629948e-20)
(2.2180444 0.36905943 1.8982013e-21)
(2.2629732 0.31388857 8.1510001e-22)
(2.2960165 0.25974059 -9.4662033e-21)
(2.3325151 0.22047917 -1.3203801e-20)
(2.3593751 0.18294823 -3.2627915e-21)
(2.3837142 0.15699315 2.4547727e-21)
(2.4023292 0.13142571 2.7325822e-23)
(2.4209926 0.11285319 -5.4986082e-21)
(2.434886 0.094437058 -8.6687714e-21)
(2.4485939 0.080791714 -3.8724069e-21)
(2.4587389 0.067177042 3.8100524e-22)
(2.4689647 0.056892793 1.7399871e-21)
(2.4763378 0.046584887 1.95696e-21)
(2.4838845 0.038673737 2.8259755e-21)
(2.4889883 0.030821313 1.9053673e-21)
(2.4943431 0.024773326 1.0565551e-21)
(2.4977468 0.018787523 -2.794863e-22)
(2.5014408 0.014092276 -2.3512731e-22)
(2.5030657 0.0098060269 -3.3896334e-22)
(2.5050179 0.0067118555 2.0371849e-22)
(2.5057871 0.0036344814 4.0621054e-22)
(2.5068746 0.0012541085 -6.8108346e-22)
(1.6361281 0.80664408 1.2175489e-20)
(1.8163894 0.68083264 5.0093054e-20)
(1.9351076 0.55347251 1.6438569e-20)
(2.033403 0.4529101 -8.8998634e-21)
(2.1196178 0.35286172 -1.3278145e-21)
(2.1825004 0.30387782 -1.94778e-20)
(2.230927 0.25147752 -2.0856797e-20)
(2.2752123 0.2141593 8.6775314e-21)
(2.31045 0.1766987 5.4919854e-21)
(2.3409343 0.15264808 -4.5368074e-21)
(2.3653035 0.12780805 8.7495494e-22)
(2.3881915 0.11057115 3.0778204e-21)
(2.4061504 0.092756929 -2.1583524e-21)
(2.4229478 0.080215504 -8.2333079e-21)
(2.436128 0.067119995 -3.6694165e-21)
(2.4487716 0.057667617 -1.9368133e-21)
(2.4585058 0.047791686 -7.076792e-22)
(2.4680001 0.040522949 5.6942066e-22)
(2.4751477 0.032944729 1.3725626e-21)
(2.4822681 0.027292213 2.7795223e-22)
(2.4873164 0.021464462 -5.54701e-22)
(2.4924685 0.017108173 -1.5535058e-22)
(2.4959395 0.012703239 -1.2021529e-22)
(2.4995885 0.0093842985 -3.8139733e-22)
(2.5014216 0.0062634942 1.3348125e-22)
(2.5034897 0.0041419787 4.9771986e-22)
(2.5045103 0.0020750261 -5.3348282e-22)
(2.5057798 0.00063946751 -2.0464578e-22)
(1.4412399 0.7535738 6.3912539e-21)
(1.6470901 0.62661477 -1.3316103e-20)
(1.7953806 0.50457831 2.2299248e-20)
(1.9092431 0.41090741 1.3403874e-20)
(2.0188632 0.31471502 -1.0420764e-20)
(2.0990287 0.27579828 3.7696541e-21)
(2.1647909 0.22940892 -1.3394267e-20)
(2.2169464 0.19671361 -2.0505065e-20)
(2.2606607 0.16121399 7.6167276e-21)
(2.2971372 0.14017766 8.7814671e-21)
(2.3275581 0.11721453 -6.9385932e-22)
(2.3545493 0.10218807 1.2182065e-21)
(2.376657 0.085690843 3.3274943e-21)
(2.3964488 0.074811121 3.2109742e-21)
(2.4126538 0.062785077 -2.4735943e-21)
(2.4275711 0.054613578 -2.3316062e-21)
(2.4396506 0.045542259 -6.8679042e-22)
(2.4509842 0.039226704 -2.1431651e-21)
(2.460011 0.032248211 -9.3616555e-22)
(2.4686703 0.027287026 5.2527679e-22)
(2.4754086 0.021869207 -5.2827339e-22)
(2.4820152 0.017986225 -3.758119e-22)
(2.4868757 0.013786593 1.6957216e-24)
(2.4917555 0.010779163 -3.4596897e-22)
(2.4951904 0.007664876 -5.9772718e-22)
(2.4987318 0.0054644925 -5.795526e-22)
(2.5006832 0.003306258 -2.4499554e-22)
(2.5028018 0.0019852699 -2.7061711e-22)
(2.504004 0.00075162626 4.5994904e-23)
(2.5053971 0.00011104116 4.8712771e-22)
(1.2821257 0.68858572 2.1713188e-20)
(1.5009797 0.55504926 1.6447936e-20)
(1.6673436 0.43236082 -2.1155812e-21)
(1.7935225 0.34602919 1.8746078e-22)
(1.9223494 0.2560278 -8.3344164e-21)
(2.0169551 0.229337 -1.233545e-21)
(2.1003468 0.1925165 1.2401634e-20)
(2.1603522 0.16748994 -1.3783641e-21)
(2.2125789 0.13643755 -7.7927749e-21)
(2.2542698 0.11945899 -1.3205418e-20)
(2.290583 0.099429888 -1.2437035e-20)
(2.3214074 0.087458986 1.3429331e-21)
(2.3475589 0.073106056 3.233667e-21)
(2.3701194 0.064468895 3.6959626e-21)
(2.3892533 0.054049641 3.5570534e-21)
(2.4062553 0.04756746 -2.1524867e-21)
(2.4205434 0.039726407 -1.9964336e-21)
(2.4335049 0.034691472 -7.0351367e-22)
(2.4443103 0.028625322 -2.0714745e-21)
(2.4543528 0.024618724 -1.1939844e-21)
(2.4625715 0.019853605 2.0084849e-22)
(2.4703882 0.016637048 6.5472406e-22)
(2.4766378 0.012908305 8.2513866e-22)
(2.4827136 0.010398149 -7.1759896e-22)
(2.4873203 0.007494455 -1.0594422e-21)
(2.4919008 0.0055557875 3.4938441e-22)
(2.4952397 0.0034875272 3.8188779e-22)
(2.4986389 0.002193632 2.9247594e-22)
(2.5006421 0.00082876549 2.7676606e-22)
(2.5027661 0.00016361593 3.9669949e-22)
(2.5040892 -0.00037404505 8.1956109e-22)
(2.5055819 -0.00031873794 -9.0289202e-23)
(1.1636346 0.61696786 2.3436917e-20)
(1.3841086 0.47189708 7.6733824e-21)
(1.559499 0.34310005 2.1669183e-21)
(1.6943668 0.26347487 4.6685808e-21)
(1.8372862 0.18035566 7.2452026e-21)
(1.9418569 0.16646388 -1.2988899e-21)
(2.0407365 0.14124945 5.5640456e-21)
(2.1078934 0.12653926 1.5889172e-20)
(2.1685668 0.1028166 3.086722e-21)
(2.2143658 0.09091515 -7.4415154e-21)
(2.255919 0.074789647 -1.2578669e-20)
(2.2901044 0.06658135 -7.8057304e-21)
(2.3200347 0.05516841 5.3614904e-21)
(2.3450323 0.049272775 2.7345751e-21)
(2.3668696 0.04100708 3.1338131e-21)
(2.3856816 0.036615568 3.3506753e-21)
(2.401997 0.030395511 -2.0450451e-21)
(2.4163484 0.026937662 -3.5275163e-21)
(2.4287333 0.022095426 -2.3239744e-21)
(2.4399138 0.019267827 -2.1363689e-21)
(2.4494688 0.0154092 -1.3054493e-21)
(2.4583147 0.013080973 -5.5821453e-22)
(2.4657284 0.0099849695 -1.332016e-22)
(2.4727573 0.0080756243 1.2490297e-21)
(2.4785062 0.0056534125 -2.0964254e-22)
(2.4840708 0.0042025732 -7.5373356e-22)
(2.4884 0.002321962 5.8946378e-22)
(2.4926804 0.0012281204 3.8271007e-22)
(2.4958925 -2.2076106e-07 2.9779072e-22)
(2.4991367 -0.00054881272 3.7712978e-22)
(2.5011433 -0.0012668167 4.9225023e-22)
(2.5032421 -0.0013905173 4.0970864e-22)
(2.5046618 -0.0012848063 -4.6117402e-22)
(2.5061938 -0.00068993803 -4.2996608e-22)
(1.0855464 0.54268509 6.7763773e-21)
(1.3034294 0.38266559 2.3380357e-20)
(1.4782325 0.24207718 7.9868306e-21)
(1.6180326 0.1691807 2.8258232e-21)
(1.7696942 0.092155571 5.2142034e-21)
(1.8791012 0.091064073 3.1031826e-21)
(1.9893329 0.077858336 -5.084007e-21)
(2.0619455 0.075179075 3.6024146e-21)
(2.130461 0.061249121 1.3473117e-20)
(2.1791769 0.055459882 1.5466241e-20)
(2.2250677 0.044158792 5.7827884e-21)
(2.2619002 0.040176017 -8.8036568e-21)
(2.2951572 0.032335909 -4.2078156e-21)
(2.3221724 0.029628633 7.9343046e-21)
(2.3463979 0.023972237 5.4801289e-21)
(2.3666908 0.021998085 -6.3756508e-22)
(2.3847769 0.017763251 -4.7665478e-22)
(2.4002267 0.016160491 1.4186515e-21)
(2.4139726 0.012818782 7.7121416e-23)
(2.4260267 0.01138371 -1.6015955e-21)
(2.4366968 0.0086364264 -1.4226063e-21)
(2.4463196 0.0073394975 -1.7409571e-21)
(2.4547326 0.0050729061 -1.0296945e-21)
(2.4625276 0.0039546036 1.4239652e-21)
(2.4691937 0.0021005236 2.7619958e-21)
(2.47552 0.0011672875 -3.9691677e-22)
(2.4807875 -0.00025919835 -9.1674337e-22)
(2.4858881 -0.00088647817 6.4037782e-22)
(2.4899336 -0.0019643085 4.4479754e-22)
(2.4939288 -0.0023879198 -1.3074553e-22)
(2.4969987 -0.0029210888 -6.2260703e-23)
(2.5000813 -0.0028677837 -7.7202248e-23)
(2.5020761 -0.0030654335 -1.647343e-22)
(2.5041533 -0.0027256269 -8.209607e-23)
(2.5056157 -0.0021031767 -4.5915103e-23)
(2.5071611 -0.0010339127 3.5278941e-22)
(1.0369514 0.46672674 -5.2168486e-20)
(1.2576254 0.29053162 -7.8150654e-22)
(1.4269506 0.13488337 1.4728132e-20)
(1.5687555 0.067857771 2.9545286e-21)
(1.7232961 -0.0037632987 -2.1840224e-21)
(1.8327444 0.0073621359 -3.8887106e-21)
(1.9490441 0.0058946345 -6.0436583e-21)
(2.0247567 0.015856929 -1.3478539e-21)
(2.0995463 0.013169255 6.806208e-21)
(2.1499998 0.014348775 8.0686444e-21)
(2.1992329 0.0087428925 9.9861999e-21)
(2.2378594 0.0092262957 8.4194125e-21)
(2.2737697 0.0053347156 -5.3964641e-21)
(2.3023741 0.0061181449 -1.0097144e-20)
(2.3285819 0.0034414309 1.3433963e-21)
(2.350018 0.0041579128 7.4977805e-21)
(2.3695528 0.0021885332 1.7184958e-21)
(2.385809 0.0026649506 1.4282011e-21)
(2.4006302 0.0010566964 3.2788501e-21)
(2.4132992 0.0011967766 1.5175037e-22)
(2.4248146 -0.00026408439 -1.4375301e-21)
(2.434987 -0.00036989384 -8.4704475e-22)
(2.4441433 -0.0016880318 -1.1322696e-21)
(2.4524865 -0.0019356525 -1.0018821e-21)
(2.4598844 -0.0030655946 1.3292809e-21)
(2.4667968 -0.0033176173 2.2651297e-21)
(2.4727896 -0.0042497099 -7.4555459e-22)
(2.4785059 -0.0044560919 -8.6640394e-22)
(2.4833324 -0.0051060857 6.0920072e-22)
(2.4880136 -0.0051092749 6.1988562e-22)
(2.4917955 -0.0055441473 7.9606063e-23)
(2.4955295 -0.0054425462 -3.0541024e-22)
(2.4984481 -0.0054127231 -3.2035624e-22)
(2.5013697 -0.0048542894 -1.455585e-22)
(2.5033467 -0.004604358 -6.6754081e-23)
(2.5053873 -0.0038816323 -8.7486439e-23)
(2.5068653 -0.0028260909 2.9175129e-22)
(2.5084163 -0.0013245447 2.9664623e-22)
(1.0102072 0.3872197 -1.6175835e-21)
(1.2395972 0.1969504 -6.8643693e-20)
(1.4062939 0.025639786 -2.0076903e-20)
(1.5466926 -0.035840113 2.1493332e-20)
(1.6992345 -0.10243308 1.027387e-20)
(1.8048412 -0.080282464 -1.4923979e-21)
(1.9217366 -0.070506064 -3.1010807e-21)
(1.9979982 -0.048532546 -4.3622584e-21)
(2.0765604 -0.03941263 -2.0692777e-22)
(2.127633 -0.030942185 5.4148918e-22)
(2.1790986 -0.030080518 1.7329965e-21)
(2.2187103 -0.025129745 5.3298513e-21)
(2.2564397 -0.024867999 3.7660531e-21)
(2.2862017 -0.0205191 -6.3961567e-21)
(2.313946 -0.01993274 -1.0861569e-20)
(2.3362127 -0.016384696 -1.1565629e-21)
(2.3568487 -0.015832456 4.6498057e-21)
(2.3736193 -0.013122472 -4.9299523e-22)
(2.3892198 -0.012771563 -7.8914946e-22)
(2.402198 -0.010949556 2.1318847e-21)
(2.4143031 -0.01090838 -8.5313374e-22)
(2.4247205 -0.009793416 -3.1337088e-21)
(2.4344107 -0.0099907804 -2.6000378e-21)
(2.4430551 -0.0093366128 5.2051441e-23)
(2.4509849 -0.0096453147 1.985404e-22)
(2.4582772 -0.009229683 5.2878492e-22)
(2.4648346 -0.0095298787 1.4028509e-21)
(2.4710043 -0.0091815722 -3.3420445e-22)
(2.4764219 -0.0094164695 -4.4636218e-22)
(2.4816136 -0.0090908163 4.3941462e-22)
(2.486047 -0.0091458825 4.5020568e-22)
(2.49036 -0.0086599145 3.9863819e-22)
(2.4938977 -0.0085846301 4.0990239e-23)
(2.4973933 -0.0080537624 7.8029451e-23)
(2.5001638 -0.007563529 2.5291978e-22)
(2.5029351 -0.006577869 5.5159209e-23)
(2.5048792 -0.0059425893 3.8500634e-23)
(2.506871 -0.0048922035 -7.4320176e-24)
(2.5083556 -0.0034535466 -7.5504466e-24)
(2.5098977 -0.0015670022 4.1279766e-25)
(1.008286 0.30288131 7.3422524e-20)
(1.2481919 0.10159108 4.3848028e-20)
(1.4155828 -0.08387783 -1.9107111e-20)
(1.5494103 -0.13847476 -2.6970596e-20)
(1.6964715 -0.19977979 1.2338361e-20)
(1.795681 -0.16748625 9.0599709e-21)
(1.9081773 -0.1473828 -2.1416134e-21)
(1.9825674 -0.11460249 -1.2290764e-21)
(2.0618591 -0.094091481 -2.6617075e-21)
(2.1123087 -0.07860376 2.3009944e-21)
(2.1648662 -0.070821204 3.0294445e-21)
(2.2046664 -0.061666213 -4.4368256e-21)
(2.2434705 -0.05716432 -1.1419064e-21)
(2.2739265 -0.049408138 5.4604261e-21)
(2.3028009 -0.045418156 -4.1513771e-21)
(2.3255986 -0.039007264 -9.6594939e-21)
(2.3470455 -0.035743657 -4.2534814e-22)
(2.3640474 -0.030713056 1.9113182e-21)
(2.3801575 -0.028220945 -3.0119806e-21)
(2.3931557 -0.024614864 1.8393311e-22)
(2.4055765 -0.022949573 2.9741932e-21)
(2.4159774 -0.020551234 8.9110399e-22)
(2.4259224 -0.019555345 -1.2472191e-21)
(2.4346291 -0.017971388 -3.1571173e-21)
(2.4428587 -0.01740219 -6.4354169e-22)
(2.4503313 -0.016282691 7.5919764e-22)
(2.4572594 -0.015929821 1.0818807e-21)
(2.4637127 -0.01505332 2.5484633e-21)
(2.4695663 -0.014770543 9.1692405e-22)
(2.4751198 -0.01398333 -1.885267e-21)
(2.480041 -0.013704049 -1.0670135e-21)
(2.4847824 -0.012971286 7.2112673e-22)
(2.4888697 -0.012566367 6.7649057e-22)
(2.4928605 -0.011692343 -2.3750619e-22)
(2.4961753 -0.011203854 -2.0447233e-22)
(2.4994554 -0.010315602 -9.7518885e-24)
(2.5020874 -0.0094389718 -2.017961e-22)
(2.504719 -0.0080881666 -5.6517674e-23)
(2.5066198 -0.0071188209 -1.0378951e-22)
(2.5085555 -0.005780819 -1.9715301e-23)
(2.5100341 -0.0040084562 -1.276725e-23)
(2.5115583 -0.0017777543 -1.621855e-22)
(1.0439485 0.21384009 1.2873597e-20)
(1.2870064 0.0054166573 5.691057e-20)
(1.4547975 -0.19176503 2.8531772e-20)
(1.5744897 -0.23784418 -1.9058472e-20)
(1.7126446 -0.29266626 -2.6650267e-20)
(1.8033954 -0.2508736 -5.9402507e-21)
(1.907865 -0.2211977 -9.3544805e-21)
(1.9780892 -0.17916708 -4.643997e-21)
(2.0552669 -0.14846258 -3.9927227e-21)
(2.1040437 -0.12658522 -1.7908505e-21)
(2.1563392 -0.11212577 2.9571409e-21)
(2.1957623 -0.099095509 -1.3012618e-23)
(2.2348795 -0.090556578 -7.1523436e-21)
(2.2656607 -0.079611751 4.0201879e-22)
(2.2952374 -0.072336403 6.7068137e-21)
(2.3183723 -0.063058805 8.5211978e-22)
(2.3403563 -0.057032131 -4.3078469e-21)
(2.3573752 -0.049579255 -4.0728947e-21)
(2.3737322 -0.04484616 -1.9116483e-21)
(2.3864867 -0.039348716 6.392224e-22)
(2.3989467 -0.035962257 3.7332708e-21)
(2.4090437 -0.032216626 1.194061e-21)
(2.4189816 -0.029977339 -8.1303635e-22)
(2.4274936 -0.027466213 -7.1373372e-22)
(2.4357876 -0.026003252 -2.51928e-21)
(2.443233 -0.024214755 2.3145163e-22)
(2.4503376 -0.023194827 1.5784182e-21)
(2.4569106 -0.021788372 4.0572259e-23)
(2.4630386 -0.020994929 1.4168718e-21)
(2.468815 -0.019799154 8.6408058e-22)
(2.4740841 -0.01910011 -1.7982733e-21)
(2.4791221 -0.017992383 -1.158336e-22)
(2.4836184 -0.017326962 1.5992449e-21)
(2.4879751 -0.016280868 -4.6313777e-22)
(2.49176 -0.015513131 -1.3512152e-21)
(2.4954708 -0.014324291 -2.372413e-22)
(2.4985844 -0.01349373 -5.2824039e-23)
(2.501671 -0.012299807 -5.7459622e-22)
(2.504174 -0.011091611 -4.4267009e-22)
(2.506675 -0.0094222847 -2.4955037e-22)
(2.5085247 -0.0081604745 -1.7009912e-22)
(2.5103977 -0.0065647778 -2.6259355e-23)
(2.5118609 -0.0044981582 -1.6840175e-22)
(2.5133579 -0.0019600214 -3.4615847e-22)
(1.1197246 0.12350942 -4.2600474e-20)
(1.3633577 -0.089439136 -4.5361578e-20)
(1.5231232 -0.29488155 -4.2287944e-21)
(1.6204461 -0.33137588 4.9080458e-20)
(1.7445909 -0.37847583 4.1519716e-21)
(1.8253363 -0.3279252 -3.0754402e-20)
(1.9192275 -0.2892553 -1.1140064e-20)
(1.9831785 -0.23981254 -6.4377491e-21)
(2.0559608 -0.20038562 -1.996663e-21)
(2.1020806 -0.17312691 -4.6117971e-21)
(2.1529397 -0.15264379 -2.3494416e-21)
(2.1915328 -0.13627209 -1.8322703e-21)
(2.2303564 -0.12407947 -4.6822538e-21)
(2.2611949 -0.11030664 -6.1449415e-21)
(2.2911122 -0.1000064 1.055207e-21)
(2.3144705 -0.087954537 3.5094185e-21)
(2.3368048 -0.079191408 -2.1043997e-21)
(2.353699 -0.069250522 -1.0824551e-21)
(2.3700994 -0.06219906 -8.0837502e-22)
(2.382381 -0.054706606 -2.0327506e-21)
(2.3946279 -0.04950827 3.882028e-22)
(2.4041383 -0.04436865 2.8123015e-21)
(2.4137963 -0.040839343 3.8795753e-22)
(2.42185 -0.037426432 -6.2696069e-23)
(2.4299649 -0.035077264 4.5643463e-23)
(2.4371767 -0.032683561 -1.814749e-21)
(2.4442599 -0.031025709 8.0977841e-22)
(2.4507974 -0.02915715 1.0914898e-22)
(2.4570435 -0.027865762 -1.3749493e-21)
(2.4629181 -0.026272055 1.7184649e-21)
(2.4684031 -0.025177295 1.1982319e-21)
(2.4736238 -0.023756945 -1.7745298e-21)
(2.4784049 -0.022756138 -1.7445762e-22)
(2.4830087 -0.021411949 1.1525071e-21)
(2.4871423 -0.020451412 -8.1503812e-22)
(2.4911711 -0.019158404 7.6936469e-23)
(2.4946932 -0.018097056 1.1564779e-21)
(2.4981612 -0.016643828 7.4681467e-23)
(2.5010943 -0.015522185 -4.1708643e-22)
(2.504007 -0.014058792 -7.9763896e-23)
(2.506389 -0.012560018 1.1298433e-22)
(2.5087657 -0.010606522 -4.0587233e-23)
(2.5105579 -0.0090850679 9.8098629e-23)
(2.5123627 -0.0072565859 -1.0706938e-22)
(2.5138015 -0.0049276723 -2.7530317e-22)
(2.5152617 -0.0021173778 -2.5451484e-22)
(1.2219166 0.034664093 1.8694419e-20)
(1.4654936 -0.17848427 -1.8672934e-20)
(1.6145085 -0.38770947 -2.0970543e-20)
(1.6843046 -0.41623209 -2.806996e-20)
(1.7885365 -0.45464051 2.2205569e-20)
(1.85849 -0.39668219 4.4486838e-20)
(1.9401974 -0.34973668 1.1972972e-20)
(1.9961346 -0.29477918 -8.2962032e-21)
(2.062752 -0.24827062 -3.7357212e-21)
(2.1054083 -0.21686635 2.3623344e-21)
(2.1538388 -0.19129294 9.8643286e-24)
(2.1912789 -0.17228075 8.2666152e-22)
(2.2293397 -0.15694919 1.3934051e-21)
(2.2601009 -0.14081914 -9.7320504e-22)
(2.2901015 -0.12785124 -2.3103133e-21)
(2.3136803 -0.11320899 -1.1306736e-21)
(2.3362658 -0.10180934 1.1678077e-21)
(2.3529897 -0.08932841 -8.9235184e-22)
(2.3693078 -0.079898568 9.7688458e-23)
(2.3809356 -0.070295035 -3.6584354e-23)
(2.3927547 -0.063182854 -1.1872767e-21)
(2.4014024 -0.056586693 2.8772382e-23)
(2.4105113 -0.05171963 2.3276667e-21)
(2.417828 -0.047442088 2.0479606e-21)
(2.4255095 -0.044229681 1.652103e-21)
(2.4322716 -0.041326511 1.5284224e-21)
(2.439134 -0.03909237 -2.1490525e-22)
(2.4454907 -0.036860061 -1.0179597e-21)
(2.4517056 -0.035129553 -1.709518e-21)
(2.4575733 -0.033213887 -1.6726784e-21)
(2.4631552 -0.031747431 1.260568e-21)
(2.4684648 -0.030021922 5.3082932e-22)
(2.473423 -0.028716595 -2.3028786e-21)
(2.4781773 -0.027137867 1.4907512e-22)
(2.4825478 -0.025915778 1.4144961e-21)
(2.4867848 -0.024394478 3.5512336e-22)
(2.4906095 -0.023202724 1.2197549e-21)
(2.4943603 -0.021707406 1.5886194e-21)
(2.4976548 -0.02040003 5.6695951e-22)
(2.5009125 -0.018715036 -8.3393026e-23)
(2.5036835 -0.017337692 2.4246541e-22)
(2.5064381 -0.01562931 3.4366381e-23)
(2.5087048 -0.013870336 -1.1112449e-22)
(2.5109608 -0.011658611 2.3445976e-24)
(2.51269 -0.009904061 -1.9404882e-22)
(2.5144209 -0.0078645505 -1.2760871e-22)
(2.5158261 -0.0053018612 -1.0518295e-22)
(2.5172397 -0.0022521123 5.4005561e-22)
(1.3438914 -0.050419132 6.9608132e-20)
(1.5790798 -0.25877196 2.396986e-20)
(1.7180093 -0.46738942 -1.1726847e-20)
(1.7600605 -0.48909555 -3.1678529e-20)
(1.8407594 -0.51909328 -3.8685711e-20)
(1.8996752 -0.45573368 -2.1907779e-20)
(1.9685431 -0.40163088 -1.453565e-21)
(2.0151586 -0.34293909 1.1584026e-20)
(2.0742641 -0.29105628 -7.6407348e-21)
(2.1128831 -0.25682152 -4.5119723e-21)
(2.1580915 -0.22727454 1.2697971e-21)
(2.1941752 -0.20641279 2.8018012e-21)
(2.2311413 -0.18858154 3.6227714e-21)
(2.2618107 -0.17062627 3.7540254e-21)
(2.2917535 -0.15543035 1.5369869e-21)
(2.315658 -0.1384483 2.0697911e-21)
(2.3385006 -0.12458362 3.260471e-21)
(2.3551211 -0.10952093 3.1210912e-21)
(2.3713261 -0.097658422 1.1957839e-21)
(2.3821795 -0.085779051 2.0160358e-22)
(2.3934062 -0.076639285 7.6963995e-23)
(2.4009191 -0.068485773 -9.6054176e-22)
(2.4092171 -0.062214873 1.9811965e-22)
(2.4154962 -0.057103227 1.0672177e-21)
(2.4224767 -0.05305786 7.850129e-22)
(2.4285562 -0.049768523 4.8138216e-22)
(2.4349885 -0.047047308 3.4527993e-22)
(2.4410216 -0.044591083 3.0948157e-22)
(2.4470644 -0.042516493 -4.4199751e-22)
(2.4528441 -0.040382372 8.1065411e-22)
(2.4584222 -0.038611043 8.8581276e-22)
(2.4637562 -0.036644671 -1.5943116e-21)
(2.4688026 -0.03505581 -2.334208e-21)
(2.4736325 -0.033238018 1.6367579e-21)
(2.478149 -0.031785121 4.0283617e-21)
(2.4825067 -0.030097981 6.1803196e-22)
(2.4865307 -0.028711356 -4.010496e-22)
(2.4904601 -0.027053621 7.3439623e-22)
(2.4940231 -0.025673484 1.0758912e-21)
(2.4975401 -0.024002855 -2.4288145e-22)
(2.5006377 -0.022480191 -8.7487091e-22)
(2.5037121 -0.020582376 -1.3405923e-24)
(2.5063359 -0.018972987 -2.0136376e-22)
(2.5089441 -0.017035613 -1.7157717e-22)
(2.5110987 -0.015039405 -6.4773784e-23)
(2.5132348 -0.012590008 -1.7372313e-22)
(2.5148956 -0.0106248 -1.1184055e-22)
(2.5165466 -0.0083940375 2.663448e-22)
(2.5179086 -0.0056244099 8.8477337e-22)
(2.519266 -0.002365651 1.4280794e-21)
(1.4800992 -0.12859389 1.5055709e-20)
(1.7006013 -0.32987262 6.9692485e-20)
(1.824331 -0.53370086 2.6317525e-20)
(1.8412076 -0.54868607 -1.0512584e-20)
(1.8985617 -0.57114094 -2.9478091e-20)
(1.9460101 -0.50428059 -6.3590675e-20)
(2.0020298 -0.44464128 -4.8036085e-20)
(2.0384923 -0.38377217 -7.1871524e-21)
(2.0890625 -0.32813608 5.1089102e-21)
(2.1233233 -0.29237915 -7.7077438e-21)
(2.1647229 -0.26006464 -4.7358856e-21)
(2.1993606 -0.23818485 -6.2088734e-21)
(2.2350199 -0.21858132 -4.8875349e-21)
(2.2656818 -0.199374 -3.0333574e-21)
(2.2955338 -0.18244487 -3.0125857e-21)
(2.3199786 -0.16342143 9.7236333e-22)
(2.3431863 -0.147325 1.4694955e-21)
(2.3598793 -0.12963969 5.1809795e-22)
(2.3760507 -0.11529739 3.4007752e-22)
(2.3860908 -0.10094671 8.5697585e-22)
(2.3966185 -0.089607433 -9.0878094e-23)
(2.4027418 -0.079732837 -5.5316539e-22)
(2.4099728 -0.071958529 -1.5454395e-21)
(2.4148841 -0.066014081 9.4910821e-22)
(2.4208742 -0.06116236 1.7864826e-21)
(2.4260078 -0.057627817 9.7041644e-22)
(2.4317842 -0.054533619 6.7883791e-22)
(2.4373463 -0.052036965 -2.3342184e-21)
(2.4430771 -0.049750501 -2.4147815e-21)
(2.4487085 -0.047545257 6.3249475e-22)
(2.4542039 -0.045569766 1.8392708e-21)
(2.4595344 -0.043444118 7.6538081e-22)
(2.4646075 -0.04162735 -1.5931183e-21)
(2.4694729 -0.039610512 -4.1865527e-22)
(2.474065 -0.037936144 3.3831607e-21)
(2.4784747 -0.036064451 3.5870267e-21)
(2.4826157 -0.034511493 3.4094503e-22)
(2.4866382 -0.032754435 -4.9636378e-22)
(2.4903717 -0.03124226 5.8044711e-22)
(2.4940475 -0.029472734 -1.8325908e-21)
(2.4973908 -0.027930166 -3.1318655e-21)
(2.5007126 -0.026096709 -8.7839971e-22)
(2.5036388 -0.024376483 -4.7899929e-23)
(2.5065516 -0.022274644 6.7284177e-23)
(2.509039 -0.020448457 1.0121629e-22)
(2.5115083 -0.018292473 4.0671993e-22)
(2.5135512 -0.016077173 3.0931441e-22)
(2.5155655 -0.013407637 -9.6542932e-23)
(2.5171519 -0.011251726 2.6288822e-22)
(2.5187163 -0.008848429 2.0831536e-22)
(2.5200258 -0.0058976116 7.1495743e-22)
(2.5213176 -0.0024590261 5.9252515e-22)
(1.6182473 -0.19809977 -1.0175834e-20)
(1.8226907 -0.39045037 2.9407304e-20)
(1.9293064 -0.58652164 8.1572411e-20)
(1.923871 -0.59581051 4.6268646e-20)
(1.9599448 -0.611501 1.1712168e-20)
(1.9953769 -0.54247926 1.8362494e-20)
(2.038427 -0.47897595 -1.3288726e-20)
(2.0644794 -0.41716473 -3.7117649e-20)
(2.1057775 -0.35926994 1.8418602e-21)
(2.1355855 -0.3232435 8.1886816e-21)
(2.1728094 -0.28938872 -3.939879e-21)
(2.2060045 -0.26731893 -1.0148501e-20)
(2.2402452 -0.24671713 -1.1648027e-20)
(2.271058 -0.22685178 -1.4499806e-21)
(2.3008721 -0.20872523 3.6744533e-22)
(2.3261738 -0.1880065 -3.6180177e-21)
(2.3499557 -0.16995784 1.6100938e-22)
(2.3670172 -0.14961409 1.732328e-22)
(2.3833407 -0.13274622 -7.5693052e-22)
(2.3926113 -0.11562523 -1.4168829e-21)
(2.4024058 -0.10189322 -9.5318035e-22)
(2.4068913 -0.090093701 -1.4762958e-21)
(2.412812 -0.080628555 -1.9343946e-21)
(2.4160022 -0.073826949 -1.1690793e-21)
(2.4206783 -0.068155284 1.2061754e-21)
(2.4245634 -0.064526361 7.2717813e-22)
(2.4294281 -0.061191517 -6.2140853e-23)
(2.4343541 -0.058878296 1.1065111e-21)
(2.4396265 -0.0565539 -1.7578956e-21)
(2.4450658 -0.05447499 -3.2746901e-21)
(2.4504184 -0.052435884 -3.94321e-22)
(2.4557559 -0.050268251 2.0405281e-22)
(2.4608287 -0.048303901 -8.418129e-22)
(2.4657332 -0.046129602 -2.3664099e-21)
(2.4703635 -0.044265897 -1.261808e-21)
(2.4747903 -0.04222171 3.3485264e-21)
(2.4789841 -0.04049781 3.5425699e-21)
(2.4830259 -0.038612435 -1.8377555e-21)
(2.4868494 -0.03699631 -2.6676722e-21)
(2.4905967 -0.035196181 5.5386725e-23)
(2.4940908 -0.033582278 -2.2449496e-21)
(2.4975635 -0.031710759 -1.499114e-21)
(2.5007236 -0.030017827 6.6795554e-22)
(2.5038829 -0.028022301 -2.8756013e-22)
(2.5066581 -0.026112497 -1.8168924e-22)
(2.5094245 -0.023808451 -1.5632336e-22)
(2.5117825 -0.021775173 1.2971044e-22)
(2.5141155 -0.019407845 1.4471837e-22)
(2.5160448 -0.016988839 -2.4482203e-22)
(2.5179328 -0.014115431 -2.4983973e-23)
(2.5194383 -0.011787476 -8.0150904e-23)
(2.5209088 -0.0092300009 -1.9569454e-22)
(2.5221567 -0.0061230723 -3.2485342e-22)