/*--------------------------------*- C++ -*----------------------------------*\
| =========                 |                                                 |
| \\      /  F ield         | OpenFOAM: The Open Source CFD Toolbox           |
|  \\    /   O peration     | Version:  v2012                                 |
|   \\  /    A nd           | Website:  www.openfoam.com                      |
|    \\/     M anipulation  |                                                 |
\*---------------------------------------------------------------------------*/
FoamFile
{
    version     2.0;
    format      ascii;
    class       surfaceScalarField;
    location    "112.413885338338261";
    object      phi;
}
// * * * * * * * * * * * * * * * * * * * * * * * * * * * * * * * * * * * * * //

dimensions      [0 3 -1 0 0 0 0];
oriented        oriented;


internalField   nonuniform List<scalar> 
18180
(
-0.036507213
-3.5999119
-0.074205325
-3.3758928
-0.043270535
-3.4994539
-0.11464455
-3.1702337
-0.088032546
-3.2791377
-0.042163313
-3.4031871
-0.16058697
-2.981026
-0.13610706
-3.0755548
-0.085094395
-3.1853585
-0.03974856
-3.312168
-0.2140447
-2.8050986
-0.19065716
-2.8843188
-0.13064857
-2.982471
-0.079700158
-3.0965321
-0.035629144
-3.2291202
-0.27725885
-2.6412787
-0.25419339
-2.7031791
-0.18114996
-2.7900299
-0.12127649
-2.8940918
-0.070884644
-3.0155274
-0.03085928
-3.1538272
-0.35220342
-2.4890031
-0.32959395
-2.5303979
-0.23841233
-2.6058784
-0.16608988
-2.7009844
-0.1067081
-2.813746
-0.060904852
-2.9427305
-0.025937966
-3.0864329
-0.44090633
-2.3493442
-0.42015001
-2.3649931
-0.30423417
-2.4278579
-0.21514448
-2.5155223
-0.14400354
-2.6203987
-0.090657646
-2.742122
-0.050767353
-2.8781009
-0.021246996
-3.0264012
-0.54348453
-2.2193706
-0.53070827
-2.206907
-0.38054485
-2.2545919
-0.26917648
-2.3356002
-0.18306145
-2.4351137
-0.12049458
-2.5496081
-0.074694179
-2.6795083
-0.041229348
-2.8211628
-0.016992159
-2.9734221
-0.6544595
-2.0802434
-0.66502884
-2.0545171
-0.47010617
-2.0852782
-0.32852996
-2.1600059
-0.22376901
-2.2562531
-0.15026307
-2.3656653
-0.097733162
-2.4887026
-0.059941647
-2.6250837
-0.032675466
-2.7711872
-0.013268996
-2.9263484
-0.76565049
-1.9047719
-0.81771761
-1.8983265
-0.57500995
-1.9192057
-0.39330628
-1.9877052
-0.26543703
-2.082439
-0.17943698
-2.1890569
-0.11950799
-2.3067277
-0.077179934
-2.4366081
-0.046916506
-2.577803
-0.025267523
-2.7270415
-0.010097101
-2.8845747
-0.85251288
-1.6657174
-0.97478374
-1.719792
-0.69109744
-1.7533201
-0.46301106
-1.8186254
-0.30677227
-1.9130502
-0.20702043
-2.0191286
-0.13935796
-2.1331699
-0.092495086
-2.2572739
-0.05939546
-2.3920639
-0.035792955
-2.5363865
-0.019018288
-2.6879917
-0.0074524074
-2.8473291
-0.90888084
-1.3952796
-1.1054603
-1.5084571
-0.80431745
-1.5790943
-0.53427888
-1.6528245
-0.34608685
-1.748271
-0.23153398
-1.8553783
-0.15631226
-1.9679495
-0.10525024
-2.0871793
-0.069673682
-2.215675
-0.044477737
-2.3535476
-0.026527274
-2.5000271
-0.013856068
-2.6533689
-0.0052873703
-2.8143876
-0.93672616
-1.1274983
-1.1995454
-1.2759355
-0.8976089
-1.3891131
-0.59744782
-1.4881967
-0.38106543
-1.5887176
-0.25108308
-1.6979855
-0.16915636
-1.8105814
-0.11464354
-1.926608
-0.077211349
-2.0490428
-0.050935912
-2.1803448
-0.032251925
-2.3201286
-0.018961396
-2.4679797
-0.0096661148
-2.6227587
-0.0035433963
-2.7849581
-0.94002577
-0.88463629
-1.2580361
-1.0450576
-0.96069814
-1.1882023
-0.63858895
-1.3216736
-0.40667174
-1.4351738
-0.26356674
-1.5476791
-0.17649007
-1.6610752
-0.1197893
-1.7754379
-0.081409537
-1.8930239
-0.054741444
-2.0173002
-0.035872538
-2.1501367
-0.022416582
-2.2909311
-0.012885585
-2.4397426
-0.0063171695
-2.5954799
-0.0021600759
-2.7587847
-0.92597655
-0.67897433
-1.285902
-0.83409949
-0.99048764
-0.99200395
-0.64748849
-1.1543881
-0.41448777
-1.288016
-0.26659872
-1.4054927
-0.17685372
-1.5199442
-0.1197947
-1.6333727
-0.081679459
-1.7474027
-0.055480431
-1.865223
-0.037071419
-1.9904778
-0.023968804
-2.1239895
-0.014627219
-2.2653167
-0.0080770142
-2.4146932
-0.0036774623
-2.5712536
-0.0010805397
-2.7352837
-0.90425759
-0.51492103
-1.2895008
-0.65394205
-0.98693421
-0.81573197
-0.62250147
-0.99341347
-0.39676
-1.1477587
-0.2570762
-1.2726075
-0.16896082
-1.3879254
-0.11386185
-1.5002658
-0.077515976
-1.6115846
-0.052799537
-1.7241086
-0.035583673
-1.8418894
-0.023392889
-1.9675132
-0.014699631
-2.1012061
-0.0085437662
-2.2427423
-0.0043222282
-2.3925493
-0.0016220509
-2.5496433
-0.00024686764
-2.7144273
-0.88367534
-0.3926101
-1.2742524
-0.50992138
-0.95298121
-0.66726597
-0.56823701
-0.8477108
-0.35086151
-1.0163671
-0.23145718
-1.1500336
-0.15191554
-1.2658648
-0.10140556
-1.3765682
-0.068573241
-1.4851935
-0.046455117
-1.5934081
-0.031224608
-1.7043296
-0.02053709
-1.8219676
-0.012951434
-1.9476252
-0.0075786779
-2.0811869
-0.0038549148
-2.2228576
-0.0014282922
-2.3729067
-4.6655112e-05
-2.5304729
0.00037373073
-2.6956198
-0.87053839
-0.30696954
-1.2459624
-0.40178145
-0.89492094
-0.54858574
-0.49091269
-0.72354997
-0.2796392
-0.89733411
-0.18749291
-1.0384772
-0.12517864
-1.1544924
-0.082239997
-1.262769
-0.054725915
-1.3681378
-0.036364083
-1.4723045
-0.023921494
-1.5773047
-0.015332268
-1.6871963
-0.0093151389
-1.8047722
-0.0050872831
-1.9301783
-0.0021771892
-2.0636121
-0.00028558576
-2.2053239
0.00077435618
-2.3555349
0.0011604875
-2.5133148
0.000833082
-2.6788024
-0.86902776
-0.24891261
-1.2105331
-0.32435146
-0.82026485
-0.45820789
-0.39643886
-0.62322082
-0.18887266
-0.79400493
-0.12580405
-0.93857638
-0.088570213
-1.0542065
-0.056707263
-1.1591439
-0.036128496
-1.2605557
-0.022630564
-1.3604467
-0.013735761
-1.4602043
-0.0078056324
-1.5629523
-0.0037964353
-1.6724215
-0.0010553344
-1.7898206
0.00076969251
-1.9149135
0.0018653315
-2.0481258
0.0023923073
-2.1898413
0.0024252998
-2.3400541
0.00205545
-2.4980524
0.0012101228
-2.6635701
-0.87995308
-0.21223933
-1.1718014
-0.27061287
-0.73459319
-0.39289235
-0.28975331
-0.54621169
-0.084857452
-0.70815583
-0.049728362
-0.85096864
-0.042635416
-0.96494052
-0.025616337
-1.0656887
-0.013246604
-1.1625203
-0.0055506675
-1.2576764
-0.00083469115
-1.352432
0.0019329396
-1.4488517
0.0035177424
-1.5504645
0.0044523811
-1.6596854
0.0049324699
-1.7767056
0.0050464214
-1.9014095
0.0048453529
-2.0344632
0.0043738852
-2.1761531
0.0036505513
-2.326343
0.0027148039
-2.4843356
0.0014873512
-2.6500105
-0.90221436
-0.19230436
-1.1308745
-0.23709985
-0.64043354
-0.34867724
-0.17477138
-0.49030571
0.026619717
-0.63978432
0.035971365
-0.77600285
0.011051292
-0.88630646
0.0099495573
-0.98209273
0.01314059
-1.0737605
0.014391295
-1.1637773
0.01442621
-1.2534003
0.01359529
-1.3441347
0.012430255
-1.4385705
0.011291241
-1.5395405
0.010232883
-1.6484788
0.0092041703
-1.765096
0.0081410747
-1.8894653
0.0070133207
-2.0223828
0.0058182717
-2.1640791
0.0045435663
-2.3141614
0.0031935173
-2.472115
0.0016830394
-2.6376876
-0.93263623
-0.18462647
-1.0883704
-0.21965881
-0.54056361
-0.32185068
-0.05490879
-0.45203678
0.14039568
-0.58729233
0.12603087
-0.71317852
0.069741643
-0.81748864
0.048549519
-0.9076212
0.041942242
-0.9936965
0.036536744
-1.0783778
0.031622899
-1.1627362
0.026943154
-1.2480356
0.022758957
-1.3361585
0.019299293
-1.4293612
0.01652297
-1.529929
0.014224752
-1.6385735
0.012205591
-1.7547348
0.010338526
-1.8788353
0.0085610479
-2.0117589
0.0068508844
-2.1534495
0.0051801095
-2.3033829
0.0035319599
-2.4610983
0.0018176479
-2.6266601
-0.95881975
-0.19451585
-1.0434234
-0.21529505
-0.43633081
-0.30969075
0.066173942
-0.42744799
0.25216528
-0.54807551
0.21579462
-0.66150975
0.13043542
-0.75774041
0.088778047
-0.8415004
0.072107039
-0.92164923
0.060209822
-1.0009012
0.050298461
-1.0799781
0.041637298
-1.1599079
0.03422419
-1.2423133
0.028251938
-1.3286725
0.023607897
-1.4209972
0.019950497
-1.5213246
0.016921468
-1.629628
0.014270264
-1.7454311
0.011864043
-1.86945
0.0096396238
-2.0024232
0.0075697835
-2.1440976
0.0056199275
-2.2938005
0.0037614755
-2.451267
0.0019045897
-2.6165913
-0.97973567
-0.20712347
-0.99514428
-0.22934526
-0.32824252
-0.31004693
0.18419535
-0.4131976
0.35854407
-0.51909842
0.30140274
-0.6191889
0.19002334
-0.70597359
0.12897071
-0.78272528
0.10250854
-0.85677062
0.084643181
-0.93059588
0.069955168
-1.0045403
0.057332681
-1.0792136
0.046564006
-1.1561185
0.037908808
-1.2364117
0.03126772
-1.3213419
0.026186169
-1.4132642
0.022129445
-1.5134946
0.018694126
-1.621511
0.015649794
-1.7371029
0.012890088
-1.8611669
0.010365287
-1.9942545
0.0080502733
-2.1359034
0.0059086641
-2.2853386
0.0039061614
-2.4424182
0.0019546836
-2.6076424
-0.99255634
-0.2223091
-0.94224994
-0.2473572
-0.22530083
-0.31976484
0.29475827
-0.40701837
0.4568265
-0.49770231
0.38009706
-0.5842802
0.24591709
-0.66089989
0.16752217
-0.73026722
0.13214091
-0.79817983
0.10911397
-0.86666878
0.090129598
-0.93572604
0.073705549
-1.0054035
0.059529414
-1.0769754
0.048038685
-1.1516437
0.039273007
-1.2301522
0.032715018
-1.314262
0.027642332
-1.4061674
0.023460126
-1.5063463
0.019812399
-1.6141455
0.016530482
-1.7297085
0.013545969
-1.8539076
0.01082592
-1.9871367
0.0083493673
-2.1287467
0.00608089
-2.2778603
0.0039844795
-2.4345597
0.0019758954
-2.599481
-0.99650508
-0.23885672
-0.88408237
-0.26856669
-0.12667325
-0.33422993
0.39444189
-0.40673133
0.54432813
-0.48164188
0.45007192
-0.55507749
0.29620898
-0.62127152
0.20310883
-0.68312272
0.16015619
-0.74500603
0.13298935
-0.80833602
0.11041047
-0.87281526
0.090482739
-0.93786777
0.072912397
-1.0044151
0.058438485
-1.0737011
0.047402383
-1.1464154
0.039311593
-1.2237107
0.033253034
-1.3076273
0.028396477
-1.3996689
0.024217729
-1.499797
0.020466591
-1.6075394
0.017047481
-1.723159
0.013927501
-1.8475753
0.011087275
-1.9809882
0.0085099367
-2.1225431
0.0061626591
-2.2712896
0.0040104895
-2.427497
0.0019742297
-2.5922416
-0.99213533
-0.25509107
-0.82124761
-0.29049302
-0.034621059
-0.34958585
0.48137839
-0.40927429
0.61867904
-0.46905227
0.51025817
-0.53007512
0.33958303
-0.58597616
0.23473668
-0.64037621
0.18589873
-0.69644097
0.15576379
-0.75485987
0.13046096
-0.81510763
0.10745703
-0.87597041
0.086564662
-0.93791032
0.068950984
-1.0020774
0.055459057
-1.0693307
0.045753103
-1.1406427
0.038745016
-1.2174255
0.033316062
-1.301481
0.02871683
-1.3937339
0.024583791
-1.4938743
0.020788473
-1.6016255
0.01729841
-1.7174304
0.014105145
-1.8421141
0.011198146
-1.975712
0.0085639311
-2.1171736
0.0061735853
-2.2655184
0.0039949732
-2.4212565
0.0019542319
-2.5856602
-0.98044984
-0.26994241
-0.75521517
-0.31059917
0.049102207
-0.36386476
0.55488546
-0.41197823
0.67911268
-0.45847482
0.56017188
-0.50799848
0.37527174
-0.55406269
0.26173485
-0.60124142
0.20892039
-0.65177342
0.17707081
-0.70557452
0.15002791
-0.76195811
0.12449155
-0.81909274
0.10040513
-0.87691301
0.079477034
-0.93634724
0.06328206
-0.99835353
0.051829367
-1.0641084
0.043898572
-1.1347344
0.038022914
-1.2115431
0.033150911
-1.2959314
0.028759513
-1.3883607
0.0246741
-1.4885346
0.020869331
-1.5964077
0.017353514
-1.7124445
0.014130644
-1.8374399
0.011194512
-1.9712136
0.0085350986
-2.1125872
0.0061284486
-2.2604967
0.0039461142
-2.4157021
0.0019194581
-2.5799214
-0.96263491
-0.28261569
-0.68790353
-0.32736768
0.12369148
-0.37547938
0.61499317
-0.41359043
0.72641784
-0.44879875
0.59971869
-0.48778405
0.40298492
-0.52474162
0.2837333
-0.56507117
0.22896433
-0.61041033
0.19667275
-0.65990461
0.1689418
-0.71278887
0.14151563
-0.76666171
0.11442068
-0.82088366
0.089980859
-0.87603963
0.070755586
-0.93305782
0.057349927
-0.99344421
0.048494536
-1.0585221
0.04231525
-1.1290362
0.037357046
-1.2061151
0.032868843
-1.2909005
0.028608281
-1.3834834
0.02456316
-1.4837595
0.020773228
-1.5918255
0.017263987
-1.7081733
0.014041733
-1.8334672
0.011102711
-1.9674339
0.0084410669
-2.1086854
0.0060383761
-2.2561545
0.0038702669
-2.410862
0.0018726873
-2.5747569
-0.93472707
-0.35082825
-0.62118385
-0.34005509
0.18892057
-0.38349138
0.66245852
-0.41325194
0.76174427
-0.43913243
0.62909735
-0.46861663
0.42286941
-0.49738826
0.30063162
-0.5313461
0.24594333
-0.57187235
0.21444026
-0.6173694
0.18710592
-0.66710752
0.1585146
-0.71816534
0.12866093
-0.76931243
0.10049263
-0.82069229
0.077812218
-0.87304825
0.062148376
-0.92818638
0.052318211
-0.98790139
0.045987506
-1.0528683
0.041169827
-1.1235929
0.03678963
-1.201212
0.032500112
-1.2863639
0.028307115
-1.3791012
0.024301173
-1.4795373
0.020546632
-1.5878713
0.017066984
-1.704511
0.013865863
-1.830148
0.010942046
-1.9642985
0.0082948796
-2.1054336
0.0059118392
-2.2524331
0.0037723926
-2.4065977
0.0018161887
-2.5702917
-0.89947139
-0.39059156
-0.55093669
-0.41090426
0.24492205
-0.38752047
0.69859905
-0.41058604
0.78645645
-0.42883421
0.64886792
-0.44996594
0.43542302
-0.47153823
0.31257318
-0.4996888
0.25990496
-0.53577584
0.23032812
-0.57758193
0.20447903
-0.62449593
0.17551447
-0.67315378
0.14322683
-0.72174153
0.11110457
-0.76986327
0.084437434
-0.81793061
0.066084947
-0.86797659
0.055158063
-0.92236036
0.048828462
-0.98213932
0.04442123
-1.047361
0.040404218
-1.1186029
0.036268988
-1.1968262
0.032039549
-1.2823059
0.027882233
-1.3751933
0.023925169
-1.4758565
0.020223957
-1.5844587
0.016789677
-1.701447
0.01362283
-1.8274164
0.010726462
-1.9617573
0.0081062849
-2.1027362
0.005755444
-2.2492741
0.0036565083
-2.4029335
0.0017518167
-2.5663085
-0.85729768
-0.43165785
-0.47821205
-0.45312542
0.28467503
-0.44138151
0.72499465
-0.40547848
0.80200202
-0.41761469
0.65996232
-0.43156787
0.44138408
-0.44690343
0.31991199
-0.46985054
0.27095381
-0.50180631
0.24435985
-0.5402321
0.22105883
-0.58461059
0.19256693
-0.63124093
0.15825453
-0.6777522
0.12196301
-0.72314706
0.090666522
-0.76732874
0.069049743
-0.81248226
0.056808649
-0.86156176
0.050620212
-0.91620205
0.046938393
-0.97642546
0.043599586
-1.0421537
0.039847619
-1.1141667
0.035716313
-1.1929809
0.031476586
-1.27868
0.027355689
-1.3717626
0.023464657
-1.4726683
0.019831033
-1.58157
0.016451583
-1.6989003
0.013326682
-1.8252337
0.010466162
-1.9597299
0.0078827524
-2.1005733
0.0055744352
-2.2466264
0.0035259273
-2.3997558
0.0016811697
-2.5629298
-0.80881021
-0.47319025
-0.40432891
-0.49533747
0.31944394
-0.47858016
0.73189118
-0.43922188
0.80976962
-0.4053029
0.66341236
-0.41323906
0.44170935
-0.42344335
0.32311377
-0.44166079
0.27919496
-0.46972164
0.25662677
-0.50507414
0.23686607
-0.54716254
0.20973358
-0.59209218
0.17390155
-0.63697787
0.13326024
-0.68017228
0.096579329
-0.72088719
0.070959593
-0.76137267
0.057069066
-0.80520665
0.051137634
-0.85467139
0.048542398
-0.91011908
0.046266255
-0.97104922
0.043182832
-1.0375972
0.039314312
-1.1104154
0.035066816
-1.1896301
0.030811137
-1.2754897
0.026750063
-1.368759
0.022944002
-1.469931
0.019387095
-1.5791458
0.016066381
-1.6968624
0.012987284
-1.8235178
0.010168711
-1.9581845
0.0076301245
-2.098855
0.0053731989
-2.2444353
0.0033835148
-2.3970705
0.0016056103
-2.5599468
-0.7547716
-0.51439889
-0.33070311
-0.53660137
0.34940182
-0.51595004
0.73251671
-0.47012504
0.8035145
-0.42450474
0.66024387
-0.39480445
0.43719653
-0.40081663
0.32267865
-0.41511387
0.28471199
-0.43933434
0.26726082
-0.4719064
0.25194131
-0.5119236
0.22707423
-0.55541357
0.19032742
-0.5990838
0.14522403
-0.64060323
0.10229969
-0.67828494
0.071757275
-0.71432897
0.0557404
-0.75299314
0.050136213
-0.79727708
0.04904344
-0.84800184
0.048295623
-0.90457623
0.046234776
-0.96645519
0.042833111
-1.03391
0.038661871
-1.1072987
0.034288904
-1.1866929
0.030057168
-1.2726635
0.026089286
-1.3661588
0.022383138
-1.4676163
0.018905639
-1.5771729
0.015643268
-1.695241
0.012611678
-1.8222494
0.0098398857
-1.9570544
0.0073532615
-2.0975474
0.0051555045
-2.2426368
0.0032317832
-2.3947594
0.0015263733
-2.5574212
-0.69611267
-0.55461803
-0.25863071
-0.57624755
0.37458043
-0.55240897
0.7271216
-0.50145603
0.79155834
-0.44965688
0.64935331
-0.40582126
0.42852316
-0.37872783
0.31922942
-0.38999251
0.2873467
-0.41039798
0.27639213
-0.44054057
0.26633478
-0.47869461
0.24463366
-0.52095879
0.20768243
-0.56377454
0.15810421
-0.60412784
0.10798606
-0.63922155
0.071414518
-0.6710629
0.052629903
-0.70462262
0.047365155
-0.7437297
0.048242457
-0.789744
0.049577958
-0.84219612
0.04897523
-0.90008221
0.046294896
-0.96290668
0.042300255
-1.0309604
0.03781587
-1.1046174
0.033386586
-1.1840825
0.029240407
-1.2701845
0.02539651
-1.3639256
0.02179695
-1.4656989
0.018395619
-1.5755849
0.015188356
-1.6940387
0.012204877
-1.8213641
0.0094844024
-1.956288
0.0070563767
-2.0965635
0.0049247536
-2.2411713
0.0030730253
-2.3928246
0.0014445616
-2.5551934
-0.63422236
-0.59302346
-0.18929903
-0.61371862
0.39498089
-0.58725645
0.71632342
-0.53249753
0.7737483
-0.47508842
0.63222754
-0.42462598
0.41578416
-0.38528372
0.31314816
-0.36577041
0.28738214
-0.38314081
0.28412095
-0.41070178
0.28012128
-0.44730945
0.26243766
-0.48851037
0.22608728
-0.53078
0.17216257
-0.57046659
0.11382576
-0.60341773
0.069926188
-0.63130313
0.04755313
-0.65981747
0.042568131
-0.69374116
0.045927497
-0.7350751
0.050006504
-0.78353433
0.051386652
-0.83784593
0.049742989
-0.8968507
0.046050303
-0.96022174
0.041452
-1.0285437
0.036768225
-1.1022703
0.032391218
-1.1817451
0.028392196
-1.2679998
0.024691467
-1.3620468
0.02119555
-1.4641427
0.017862272
-1.5743682
0.01470544
-1.6931854
0.011770866
-1.820827
0.009106382
-1.9558143
0.0067433206
-2.0958497
0.0046840553
-2.2399806
0.002909333
-2.3911682
0.0013612042
-2.5533264
-0.57053015
-0.62879928
-0.12378779
-0.6482981
0.41054671
-0.61987774
0.70076249
-0.5625711
0.74998191
-0.50013006
0.60853773
-0.44338607
0.39853803
-0.39947726
0.30149013
-0.36646005
0.28580454
-0.3577399
0.2904332
-0.38250292
0.29354269
-0.41765342
0.28051594
-0.45790999
0.24563179
-0.49986162
0.18765661
-0.53935073
0.12002348
-0.57060688
0.06731083
-0.59479348
0.040335279
-0.61831955
0.035472797
-0.6470267
0.04187447
-0.68370235
0.049472057
-0.72828855
0.053460572
-0.77929668
0.053238569
-0.83512207
0.050007702
-0.89465973
0.045291353
-0.95811154
0.040265447
-1.026456
0.035561552
-1.1001258
0.031349968
-1.1796238
0.027542899
-1.2661079
0.023988546
-1.3604877
0.020584391
-1.4629187
0.01730809
-1.5734811
0.014197156
-1.6926682
0.011313031
-1.8205597
0.0087096573
-1.9555529
0.0064177216
-2.0953217
0.0044363299
-2.2390098
0.0027426469
-2.3897857
0.0012772277
-2.5516807
-0.5061264
-0.66118279
-0.062929118
-0.67941762
0.421338
-0.64967326
0.68098647
-0.59096961
0.72008225
-0.52402873
0.57774412
-0.46122156
0.37610456
-0.41295356
0.28599048
-0.37673424
0.2775405
-0.35148599
0.29577492
-0.35658728
0.306603
-0.38959194
0.29888592
-0.42902822
0.26636576
-0.47082476
0.2048463
-0.51054552
0.12679819
-0.54053339
0.063599048
-0.56128247
0.030815536
-0.57988689
0.025801381
-0.60332335
0.035850908
-0.63534355
0.047864716
-0.67618642
0.055198904
-0.72411078
0.056857928
-0.77715454
0.054291594
-0.83363296
0.049460268
-0.89301723
0.043977582
-0.95630068
0.03880213
-1.0245247
0.034269604
-1.0981026
0.030312896
-1.1776907
0.026716917
-1.2644792
0.023295949
-1.3592407
0.019965032
-1.462016
0.016733809
-1.5729051
0.013665499
-1.6924073
0.010834662
-1.8205052
0.0082979812
-1.9554445
0.0060830473
-2.0949299
0.0041842901
-2.2382104
0.002574742
-2.3885957
0.0011934898
-2.5502984
-0.68935239
-0.44214577
-0.0072525721
-0.70661701
0.42740789
-0.6760678
0.65736525
-0.61691485
0.68370424
-0.54590926
0.53892061
-0.47699391
0.34690951
-0.42394084
0.26579054
-0.38545949
0.2671611
-0.35952754
0.29428466
-0.34330563
0.31916202
-0.36362408
0.31761148
-0.40177809
0.28827888
-0.44349124
0.22397158
-0.48383654
0.13440179
-0.51299244
0.058845977
-0.53053764
0.018848278
-0.54428423
0.013277174
-0.56239112
0.027618001
-0.58973506
0.045082988
-0.62696497
0.056615218
-0.67203243
0.060689573
-0.72258506
0.059038837
-0.77656746
0.054113304
-0.83277114
0.048039305
-0.89163247
0.042198017
-0.95459736
0.037176212
-1.02262
0.032975482
-1.0961438
0.029323542
-1.1759473
0.02592962
-1.2631263
0.022615617
-1.3582998
0.019336163
-1.4614129
0.016139369
-1.5725875
0.013112479
-1.6923752
0.010339078
-1.8206044
0.0078750531
-1.9554146
0.0057426207
-2.0946211
0.0039304782
-2.2375505
0.0024072518
-2.3876083
0.0011107413
-2.5490811
-0.72919571
0.042832982
-0.71272396
-0.37983082
0.42872478
-0.69851616
0.62991746
-0.63947967
0.64036671
-0.56485734
0.49113516
-0.48982228
0.3089922
-0.43091457
0.23970019
-0.39052547
0.25423479
-0.36560567
0.2925159
-0.35094787
0.32507514
-0.34358735
0.3367509
-0.37663766
0.31124787
-0.41767496
0.24504478
-0.45882225
0.14301829
-0.48770515
0.053176929
-0.5024278
0.004339244
-0.51133084
-0.0023686841
-0.52400008
0.016936443
-0.546639
0.04103728
-0.5803816
0.057736929
-0.62283204
0.064831949
-0.67118107
0.064396944
-0.7230471
0.059425051
-0.77677359
0.052616911
-0.8321015
0.045869686
-0.89026135
0.040123941
-0.95281492
0.035521539
-1.0206456
0.03175498
-1.0942702
0.028411775
-1.1744124
0.02518631
-1.2620553
0.021944561
-1.357665
0.018694886
-1.4610839
0.01552455
-1.5724997
0.012540304
-1.6925121
0.0098297822
-1.8207828
0.0074445641
-1.9554217
0.0053995989
-2.0943671
0.0036772337
-2.2370009
0.0022416397
-2.386767
0.0010296476
-2.5480863
-0.71643423
0.42537302
-0.74645227
0.086801047
-0.72990731
-0.32026403
0.5982032
-0.65766046
0.58967761
-0.58003546
0.43404401
-0.49938342
0.26123448
-0.43383622
0.20631093
-0.39018524
0.23855043
-0.36783356
0.2906214
-0.35679043
0.33173954
-0.35186368
0.35090934
-0.35148013
0.33489156
-0.39360993
0.26682191
-0.43406041
0.15212202
-0.46355317
0.046500639
-0.47645853
-0.012737938
-0.48096436
-0.021419784
-0.48795578
0.0035682157
-0.50582673
0.035654717
-0.53621795
0.058611383
-0.57629471
0.069390731
-0.62272949
0.070516354
-0.67279308
0.065581641
-0.72453265
0.057902128
-0.7771569
0.049972193
-0.83128355
0.043199576
-0.88864837
0.037963276
-0.95083257
0.033965083
-1.0186269
0.030664008
-1.0925176
0.027591321
-1.1731296
0.024483298
-1.2612859
0.021276301
-1.3573178
0.018037664
-1.4609962
0.014889544
-1.5726019
0.011951647
-1.6927544
0.0093104664
-1.8209859
0.0070101264
-1.9554117
0.0050569793
-2.0941282
0.0034267047
-2.2365504
0.0020792053
-2.386081
0.00095076211
-2.5472176
-0.67058621
0.56149537
-0.72894094
0.41725762
-0.75802262
0.12515148
-0.73989947
-0.26411266
0.5315375
-0.59073331
0.36823147
-0.50577003
0.20407604
-0.43394164
0.16502922
-0.3852121
0.21985737
-0.36442396
0.28943626
-0.35962163
0.33951293
-0.35870019
0.36649631
-0.36100437
0.35707979
-0.36689276
0.28789002
-0.40963696
0.16060927
-0.4385091
0.037346307
-0.45013323
-0.032751266
-0.45234389
-0.044117128
-0.45423713
-0.012720829
-0.46710846
0.028886179
-0.49427393
0.059309819
-0.53222775
0.074477743
-0.57703022
0.077541623
-0.62560075
0.072769013
-0.67571406
0.064103334
-0.72623412
0.054691922
-0.77721354
0.046523422
-0.8300245
0.040337564
-0.886685
0.035918607
-0.94865199
0.03260531
-1.0166187
0.029732655
-1.090961
0.026860076
-1.172124
0.023810134
-1.260819
0.020602642
-1.3572426
0.017361312
-1.4611316
0.01423523
-1.57285
0.011349643
-1.693042
0.0087849491
-1.8211621
0.006575295
-1.9553645
0.0047175475
-2.0939123
0.0031807887
-2.2361811
0.001921058
-2.3855025
0.00087454268
-2.5465214
-0.59658763
0.46635466
-0.67730649
0.51899946
-0.73620551
0.4048172
-0.7642537
0.15973439
-0.74583769
-0.21176993
0.29523004
-0.50922155
0.13959436
-0.4329623
0.11699149
-0.37856679
0.19780583
-0.35605017
0.29021429
-0.35807644
0.34949985
-0.3636315
0.38345653
-0.3690399
0.38104523
-0.37803075
0.31404168
-0.38799334
0.16717877
-0.41246626
0.023879868
-0.42106498
-0.057493598
-0.42154991
-0.070682582
-0.42202081
-0.03222744
-0.43040528
0.020718721
-0.45439631
0.059937185
-0.49046701
0.080211199
-0.53390117
0.085603149
-0.58126044
0.081159882
-0.63007343
0.071433809
-0.67892561
0.060239706
-0.72747604
0.05024937
-0.77654276
0.042709632
-0.82812103
0.037594724
-0.88432265
0.034154678
-0.94633581
0.031501043
-1.0147169
0.028964761
-1.089653
0.026203537
-1.1714375
0.023152135
-1.2606527
0.019915113
-1.357426
0.016663534
-1.461458
0.01356337
-1.5731918
0.010737903
-1.6933342
0.0082571551
-1.8212923
0.0061434468
-1.9552761
0.0043838234
-2.0937049
0.0029411478
-2.2358996
0.0017681141
-2.3850558
0.00080134261
-2.5459345
-0.51029026
0.21748627
-0.59747561
0.39536686
-0.67887799
0.47080845
-0.73917173
0.38908655
-0.76480476
0.18892079
-0.74951139
-0.16397283
0.071086999
-0.43235674
0.064601768
-0.37324419
0.17249027
-0.34611564
0.29341792
-0.35203966
0.36344059
-0.36593074
0.40215228
-0.37556026
0.40631754
-0.3872563
0.34146744
-0.40031513
0.18679402
-0.40387735
0.0060035273
-0.39087992
-0.089148031
-0.38580538
-0.10119513
-0.38752669
-0.05482263
-0.39532479
0.011080662
-0.41644991
0.060633013
-0.4508984
0.086717006
-0.49318552
0.094809801
-0.53957715
0.090901553
-0.58739038
0.080098041
-0.63494506
0.066844198
-0.68157108
0.054564748
-0.72763559
0.045175647
-0.77482531
0.03899064
-0.82556203
0.035233879
-0.88164457
0.032777248
-0.94400894
0.030668951
-1.0130228
0.028342136
-1.0886702
0.025598447
-1.171075
0.022493131
-1.260783
0.019206273
-1.3578461
0.015943432
-1.4619407
0.012876638
-1.5735921
0.010120416
-1.6936081
0.0077309744
-1.8213657
0.0057177312
-1.9551423
0.004058044
-2.0935511
0.0027091487
-2.2356972
0.0016210998
-2.3847083
0.00073144906
-2.5455104
-0.43292834
0.0021029836
-0.5098126
0.13840572
-0.59500947
0.32036617
-0.6751457
0.41591532
-0.7359398
0.36954079
-0.76064179
0.2102578
-0.75042359
-0.12049285
0.011079792
-0.37151532
0.14482101
-0.33842818
0.29817021
-0.34358058
0.38272891
-0.36514049
0.4234478
-0.38034114
0.43259848
-0.39470307
0.3699449
-0.41053742
0.20694508
-0.41663049
0.0023598882
-0.39654474
-0.1262481
-0.35039702
-0.13521576
-0.34849126
-0.078498974
-0.35996897
0.00023518495
-0.38037555
0.061566417
-0.4134163
0.094127098
-0.4547771
0.10524152
-0.50036935
0.10210054
-0.54743947
0.090278334
-0.59405126
0.074740894
-0.63918027
0.05968646
-0.6828349
0.047865407
-0.72631295
0.040125406
-0.77205206
0.035770128
-0.8224256
0.033433711
-0.87879189
0.031826415
-0.94181039
0.030088776
-1.0116461
0.027830692
-1.0880453
0.025017601
-1.1710575
0.021817568
-1.2611927
0.018470541
-1.3584745
0.015201604
-1.4625412
0.012178579
-1.5740283
0.0095014173
-1.6938486
0.0072101695
-1.8213725
0.0053009999
-1.9550155
0.0037420752
-2.0934302
0.0024859076
-2.2355782
0.0014805845
-2.3844745
0.00066502223
-2.5451855
-0.37328382
-0.041251006
-0.43547528
-0.063844646
-0.50877135
0.060763129
-0.58898363
0.24309129
-0.66640255
0.35550721
-0.72644516
0.34462345
-0.75227542
0.22229989
-0.7479574
-0.081137105
0.11632196
-0.3358717
0.30302324
-0.33594029
0.40726465
-0.36183879
0.44844771
-0.38316711
0.45968716
-0.40024145
0.39913807
-0.41865787
0.22741204
-0.42707758
0.00019493582
-0.41066559
-0.15565867
-0.36378191
-0.17196086
-0.31055115
-0.10073134
-0.32259821
-0.010060501
-0.34578007
0.06295064
-0.37800409
0.10258653
-0.41858133
0.11694686
-0.46349817
0.1148143
-0.50999807
0.10211529
-0.55599343
0.084160503
-0.60006059
0.065858511
-0.64178432
0.050944207
-0.68212487
0.041043849
-0.72338047
0.035699737
-0.76834231
0.033336719
-0.81890642
0.032274096
-0.87594937
0.031283168
-0.93990839
0.029712835
-1.0106691
0.027387655
-1.0878162
0.02443331
-1.1713655
0.021112363
-1.2618619
0.017704728
-1.3592752
0.01444027
-1.4632411
0.011473408
-1.5744815
0.008885211
-1.6940378
0.0066982541
-1.8213545
0.0048956908
-1.9548912
0.0034374698
-2.0933708
0.0022722811
-2.2355291
0.0013469867
-2.3843222
0.00060208873
-2.5450049
-0.33813822
0.088306052
-0.37822767
-0.091183114
-0.43972253
-0.12450079
-0.50704183
-0.012589283
-0.58020013
0.16579118
-0.65301527
0.29120298
-0.71115512
0.31273618
-0.7391976
0.22371221
-0.74009981
-0.047172927
0.30544995
-0.33092804
0.43507045
-0.35739429
0.47770071
-0.38406089
0.48754416
-0.40381385
0.42834258
-0.42417885
0.24675522
-0.43399563
-0.0012444392
-0.42173731
-0.18314706
-0.37972204
-0.21285224
-0.31982143
-0.1221852
-0.28565632
-0.017042028
-0.31194017
0.065376265
-0.34464938
0.11221872
-0.38456466
0.1299358
-0.42882951
0.12904155
-0.4748715
0.11570188
-0.52051375
0.095311849
-0.56394833
0.073344933
-0.6042208
0.054615574
-0.64192794
0.041820878
-0.67921091
0.034971394
-0.71903799
0.032348683
-0.76397656
0.031833574
-0.81525946
0.0317424
-0.87335832
0.031082933
-0.93843462
0.029477112
-1.0101472
0.02696789
-1.08798
0.023820862
-1.1719956
0.020367811
-1.2627527
0.016908248
-1.3602258
0.013662986
-1.4640129
0.010765819
-1.5749318
0.0082760017
-1.6941966
0.0061983347
-1.8213112
0.0045038794
-1.9548045
0.0031454563
-2.0933497
0.0020689427
-2.2355524
0.0012206021
-2.3842745
0.00054270447
-2.5449127
-0.33113826
0.30582154
-0.34220231
0.059386859
-0.38593195
-0.13764823
-0.44492523
-0.17823146
-0.50471847
-0.079510127
-0.56948594
0.091176783
-0.63600731
0.22517793
-0.69058527
0.27330282
-0.72140598
0.21516715
-0.72686022
-0.020859536
0.46308344
-0.35253332
0.51065143
-0.38328491
0.51612655
-0.40543672
0.45670089
-0.42688784
0.26402071
-0.43737267
-0.00342963
-0.42782311
-0.20875141
-0.39259074
-0.25509515
-0.33430146
-0.16069958
-0.27790693
-0.020090067
-0.27914479
0.070258453
-0.31345759
0.12313153
-0.3526915
0.14418404
-0.3962954
0.14471211
-0.44186094
0.13106146
-0.48735341
0.10837731
-0.53057231
0.082422568
-0.5699052
0.059119889
-0.60545098
0.042564542
-0.6392194
0.033549038
-0.67426969
0.030330437
-0.7136547
0.030312721
-0.75930131
0.031262474
-0.81177897
0.031753584
-0.87120078
0.031133241
-0.93748678
0.029311711
-1.0101086
0.026529209
-1.0885412
0.023160198
-1.1729049
0.019578357
-1.2638417
0.016082954
-1.3612945
0.012874455
-1.4648389
0.010060658
-1.5753699
0.0076776855
-1.6943221
0.0057131628
-1.8213055
0.0041272562
-1.9547389
0.0028670265
-2.0933986
0.0018763489
-2.2356329
0.0011015583
-2.3843025
0.00048704405
-2.5449727
-0.35040525
0.48879233
-0.33313508
0.30410381
-0.34948854
0.030017005
-0.39531734
-0.1799227
-0.45047838
-0.22410253
-0.50175355
-0.1387343
-0.55754711
0.021639438
-0.61657351
0.16028492
-0.66687767
0.22789216
-0.6996329
0.19805922
-0.70986246
-0.0029372573
0.54663668
-0.38145457
0.54533887
-0.40531619
0.48330158
-0.42674688
0.27848216
-0.43722466
-0.0072550876
-0.42948831
-0.23267973
-0.40026822
-0.29619513
-0.34820716
-0.20587226
-0.28556693
-0.043327816
-0.2512503
0.079251087
-0.28496282
0.13532248