/*--------------------------------*- C++ -*----------------------------------*\
| =========                 |                                                 |
| \\      /  F ield         | OpenFOAM: The Open Source CFD Toolbox           |
|  \\    /   O peration     | Version:  v2012                                 |
|   \\  /    A nd           | Website:  www.openfoam.com                      |
|    \\/     M anipulation  |                                                 |
\*---------------------------------------------------------------------------*/
FoamFile
{
    version     2.0;
    format      ascii;
    class       volVectorField;
    location    "112.413885338338261";
    object      U;
}
// * * * * * * * * * * * * * * * * * * * * * * * * * * * * * * * * * * * * * //

dimensions      [0 1 -1 0 0 0 0];


internalField   nonuniform List<vector> 
9200
(
(2.7569731 0.013803529 -3.7315303e-20)
(2.7652881 0.046900682 3.12587e-22)
(2.7118215 0.016461917 -1.5598927e-20)
(2.7784337 0.078550645 -1.6352088e-21)
(2.7153457 0.057869987 3.646519e-21)
(2.6840949 0.016614912 4.3152263e-20)
(2.798507 0.11524526 4.1511399e-20)
(2.7210797 0.096648105 -1.2959504e-20)
(2.684891 0.058312241 -1.88627e-20)
(2.6521975 0.016195278 2.1705935e-20)
(2.8245543 0.15670303 2.4960219e-20)
(2.7287658 0.14190081 1.8423531e-20)
(2.6861871 0.096721614 1.4240905e-21)
(2.6503689 0.056943371 1.4800127e-20)
(2.6241606 0.015056617 8.1690213e-21)
(2.8570108 0.205782 4.1124203e-20)
(2.7375492 0.19295915 1.9610878e-20)
(2.6867981 0.14079651 3.9443605e-21)
(2.6473659 0.093685632 2.9592836e-20)
(2.6204674 0.052841227 1.4592962e-20)
(2.5992108 0.013532891 -6.2185087e-22)
(2.8962602 0.26372704 -2.8335887e-20)
(2.746462 0.25347478 8.6472439e-21)
(2.6857784 0.18928365 1.1031622e-21)
(2.6413742 0.13496666 -2.0635292e-20)
(2.6144842 0.086108145 -1.0866642e-20)
(2.5942854 0.047380036 -1.6992152e-20)
(2.5780228 0.011811539 -1.1026804e-20)
(2.9454625 0.33258369 3.3822812e-20)
(2.7547548 0.32542876 3.1410051e-21)
(2.6815154 0.24513206 -9.4441784e-21)
(2.6316064 0.1789288 -5.5202419e-21)
(2.6041339 0.12251303 -6.7826311e-21)
(2.5864114 0.076435697 -6.1976073e-21)
(2.5724182 0.041221405 5.5589241e-22)
(2.5604473 0.010050139 -4.1742791e-21)
(3.0009808 0.4132362 -6.8567172e-21)
(2.7629745 0.41240891 2.3397205e-20)
(2.6721222 0.3093729 -1.7509415e-20)
(2.6162665 0.22771252 -1.4967757e-20)
(2.5889964 0.15973506 7.2727956e-21)
(2.5734832 0.10734339 4.5662258e-21)
(2.563583 0.065811725 -9.3939308e-21)
(2.5545926 0.034945968 2.7802174e-21)
(2.5462379 0.0083505242 -4.0708625e-21)
(3.0316202 0.50476711 1.6369173e-20)
(2.7690162 0.51839382 -6.216543e-22)
(2.6555926 0.38408448 -6.5020327e-21)
(2.5933449 0.28125793 1.1399409e-20)
(2.5675116 0.19911735 2.6690161e-21)
(2.5555347 0.13756605 3.6037053e-21)
(2.5495164 0.091184901 1.342289e-20)
(2.5454892 0.055202006 -1.6976381e-21)
(2.5404416 0.028918557 -1.0687036e-21)
(2.5350153 0.0067743334 3.5455001e-21)
(2.990296 0.60521184 -1.5321771e-20)
(2.7535521 0.64667216 -1.7829119e-21)
(2.6290716 0.47202549 -3.8008343e-20)
(2.5603266 0.33990709 -5.5964458e-20)
(2.5382194 0.23975563 -3.0767603e-21)
(2.5314162 0.16790483 2.483461e-21)
(2.5306766 0.11480661 -8.531381e-23)
(2.5313121 0.07542815 -2.775366e-21)
(2.5315455 0.045179791 6.7047417e-21)
(2.5294829 0.023361214 7.6494448e-22)
(2.5263669 0.0053527311 3.6623924e-21)
(2.7926154 0.69513678 -6.6222934e-20)
(2.6736417 0.79077153 3.5926145e-21)
(2.5837055 0.57505402 8.5938429e-21)
(2.5150487 0.40358366 -2.5752905e-20)
(2.4993302 0.28089822 -1.5683653e-20)
(2.5003594 0.19708978 -2.044042e-21)
(2.506324 0.13713619 -9.0947553e-21)
(2.5128597 0.093259884 -1.4930385e-20)
(2.517927 0.060832932 8.4936624e-22)
(2.5210933 0.036071185 4.6840157e-21)
(2.5212208 0.018385522 1.2119222e-21)
(2.5198866 0.004097947 1.0306606e-22)
(2.4902281 0.75589225 -2.5985617e-20)
(2.5025885 0.92392945 -3.3385008e-20)
(2.4994676 0.68445917 9.9252036e-21)
(2.4546859 0.47166822 7.7710552e-20)
(2.449245 0.3208997 1.878431e-20)
(2.4615142 0.22409881 7.6519637e-22)
(2.4762615 0.1568495 5.4053985e-21)
(2.489737 0.1089553 2.7189551e-20)
(2.5006223 0.073788337 5.8942511e-21)
(2.5084286 0.047789678 -8.5414131e-22)
(2.5135045 0.028018596 1.4760453e-21)
(2.5151846 0.014029568 1.5186318e-21)
(2.5151976 0.0030123422 9.7670136e-23)
(2.1383344 0.79113466 -1.8455422e-20)
(2.252475 1.0251844 -5.3666471e-20)
(2.354571 0.78222574 -1.1159603e-20)
(2.3702876 0.53854533 1.5249049e-20)
(2.386972 0.3581231 2.350829e-21)
(2.4143221 0.24707162 1.1345164e-20)
(2.4402975 0.17299852 -8.13751e-21)
(2.4621686 0.12131973 9.6146577e-22)
(2.4794914 0.084181184 5.8929526e-21)
(2.4926671 0.05675484 -6.8424194e-21)
(2.5019904 0.036427592 -6.5702542e-21)
(2.508216 0.021048094 -6.4766965e-22)
(2.510952 0.010282785 -9.4445918e-22)
(2.5119583 0.0020936585 2.4872351e-22)
(1.778131 0.80422991 6.3691428e-21)
(1.96067 1.0919869 -4.7643853e-20)
(2.1497599 0.85522747 2.1451211e-20)
(2.2494698 0.59137667 1.494357e-20)
(2.3115827 0.38951945 7.7273646e-22)
(2.3586363 0.26397659 -5.1572309e-22)
(2.3986356 0.18406916 -1.9551631e-20)
(2.430378 0.12960354 -1.8169873e-20)
(2.4550298 0.09102685 -3.3827269e-21)
(2.4738432 0.063018809 -3.0546765e-21)
(2.4879213 0.042192187 -2.1803259e-21)
(2.4979167 0.026719913 2.4638522e-22)
(2.5047443 0.01511422 -2.138624e-21)
(2.5081592 0.0071045719 1.1923358e-21)
(2.5098696 0.0013352261 0)
(1.444947 0.79820811 1.3802134e-20)
(1.6599818 1.1259057 -3.5601011e-20)
(1.9099888 0.89843492 7.8898557e-20)
(2.0911024 0.616536 1.9439496e-20)
(2.2208966 0.4081762 -4.7781878e-22)
(2.2951327 0.27253557 -4.0359329e-20)
(2.3518406 0.18856904 3.0783544e-20)
(2.394962 0.13269454 1.2948728e-21)
(2.4276897 0.093798818 -1.0269838e-20)
(2.4526033 0.065826509 4.4440568e-21)
(2.4714396 0.045301003 4.0445411e-21)
(2.4855349 0.029956045 -2.2726633e-21)
(2.4956401 0.018550073 4.3385037e-21)
(2.5026868 0.010130582 -2.3493025e-21)
(2.5064992 0.0044397946 2.8188399e-21)
(2.5086994 0.00072173579 5.2002087e-22)
(1.1646156 0.78005306 7.9108158e-22)
(1.3767022 1.1377571 -5.089721e-20)
(1.6670261 0.91032201 -9.6371188e-21)
(1.9100043 0.60840406 -5.9349756e-20)
(2.1131629 0.40479136 6.1121604e-22)
(2.2254644 0.27009847 1.1447752e-20)
(2.3010091 0.18491932 2.1455616e-20)
(2.3567992 0.12970637 -2.5370012e-20)
(2.398226 0.091748305 2.3202606e-20)
(2.4295019 0.064843808 2.5268297e-21)
(2.4532579 0.045215464 -5.9115367e-21)
(2.4712728 0.030690501 -3.2646634e-22)
(2.4848507 0.019812419 5.3697004e-21)
(2.4947095 0.011756967 -1.9248357e-22)
(2.501717 0.0059902701 2.5553826e-21)
(2.505716 0.0022273802 2.648326e-21)
(2.5082767 0.00024297722 -2.3693694e-22)
(0.95294772 0.75890666 1.9139733e-21)
(1.1311621 1.1330526 -3.2045648e-20)
(1.4434053 0.89225172 -1.4441475e-20)
(1.7271293 0.56966746 2.9901186e-21)
(1.9923757 0.37357054 1.8585124e-21)
(2.1516409 0.25308174 1.964815e-20)
(2.2479863 0.17195587 -2.7219961e-20)
(2.3170847 0.11979588 1.8894443e-20)
(2.3675588 0.084435999 1.4028591e-20)
(2.4053222 0.05961177 -4.4577885e-21)
(2.4339544 0.041746114 3.3579672e-21)
(2.4558531 0.028575284 -3.9464212e-21)
(2.4726048 0.018783939 -3.6143839e-21)
(2.4853722 0.011494115 6.5507235e-21)
(2.4947726 0.006164352 3.2127958e-22)
(2.5015728 0.002581583 -2.9512053e-21)
(2.5056081 0.00040027216 -2.8277544e-21)
(2.5083045 -0.00012867071 -1.1492234e-21)
(0.81229868 0.74286382 -2.0546254e-21)
(0.93666605 1.1131169 8.2914305e-20)
(1.2536305 0.84893801 -2.2221675e-19)
(1.560117 0.5062013 -8.7100165e-21)
(1.8692576 0.3150743 -5.590162e-21)
(2.0759272 0.21803355 2.3663473e-20)
(2.1953093 0.14897184 2.0987654e-21)
(2.277296 0.10251185 6.8337502e-21)
(2.3367923 0.071528135 -1.3053926e-20)
(2.3809077 0.049984942 -2.2849231e-21)
(2.4142769 0.034651796 1.5460615e-20)
(2.4398364 0.023524664 -1.1973736e-20)
(2.4596027 0.015281096 -2.5632819e-21)
(2.4749097 0.0091750258 4.7224174e-21)
(2.4867305 0.0047342292 4.6417581e-21)
(2.495558 0.0015976492 -7.0360759e-21)
(2.5020444 -0.00020179312 -1.8895067e-21)
(2.5060353 -0.001106982 -5.4954926e-21)
(2.5087939 -0.00040702058 -1.7426576e-21)
(0.73241839 0.73599284 6.4319426e-21)
(0.79334461 1.0843043 2.5246184e-19)
(1.1043194 0.78721311 4.9787403e-20)
(1.4199096 0.42397799 6.9956923e-20)
(1.7562814 0.23423006 -1.2824481e-20)
(2.0020443 0.16386203 -5.2912524e-21)
(2.1456403 0.11557283 -1.1909348e-20)
(2.2391885 0.077907907 -3.7080994e-21)
(2.3071112 0.053058434 1.9462245e-20)
(2.3571866 0.035920536 -2.6150882e-21)
(2.3949632 0.023981411 4.3332835e-21)
(2.4239111 0.015460574 -5.9922576e-21)
(2.4463627 0.0092913137 5.2900728e-21)
(2.4639753 0.0047531427 -3.3387472e-21)
(2.4778185 0.0014799731 1.6487091e-21)
(2.488652 -0.00071911113 -7.5637561e-22)
(2.4968589 -0.002108983 -2.5262467e-21)
(2.5029632 -0.0024609704 1.3928352e-21)
(2.5068685 -0.0023377545 -3.8728811e-21)
(2.5095677 -0.00074290524 2.244984e-21)
(0.70071305 0.73997292 -5.2559524e-21)
(0.69141805 1.0509498 -2.3873381e-19)
(0.99654236 0.71318646 3.0021882e-19)
(1.3131615 0.32821577 -9.3509136e-20)
(1.6634989 0.13749944 -4.6828457e-20)
(1.9354171 0.092860811 5.2695352e-21)
(2.101274 0.071849104 7.9125562e-21)
(2.2046613 0.046693708 1.2225451e-20)
(2.2796896 0.029376266 -2.7558264e-22)
(2.3350481 0.017704339 -1.1778291e-20)
(2.3767781 0.0098379297 -7.7790034e-21)
(2.4087039 0.004547532 9.5700135e-21)
(2.4334935 0.00085210474 -6.8413545e-21)
(2.4530289 -0.0017462715 3.6546515e-22)
(2.4686134 -0.0035348792 3.4725782e-21)
(2.4810682 -0.0046523548 2.2594518e-21)
(2.4909402 -0.0050992877 -1.3235005e-21)
(2.4985203 -0.0051041449 -7.2251805e-22)
(2.5042084 -0.0042956699 9.6462185e-22)
(2.5079753 -0.0033346883 1.5771188e-22)
(2.5105904 -0.0010071224 6.6374126e-21)
(0.70686947 0.75484895 2.2015997e-20)
(0.63343527 1.0154489 -6.4484352e-20)
(0.92902361 0.63067851 8.196905e-21)
(1.2436291 0.22288676 -9.0306021e-20)
(1.597117 0.030937116 5.6071547e-20)
(1.881601 0.0097298642 -2.0747943e-22)
(2.0642406 0.019039297 1.1145271e-21)
(2.1754034 0.010055139 2.9034165e-21)
(2.2555707 0.0012340945 -2.0371559e-20)
(2.3152892 -0.004204262 1.4883161e-20)
(2.3603328 -0.0074410744 3.3151505e-21)
(2.3947958 -0.0090782664 3.8353939e-21)
(2.4215154 -0.0098561604 -4.9518876e-21)
(2.4425924 -0.010206345 1.8332403e-20)
(2.4595335 -0.010266235 -6.97109e-21)
(2.4733051 -0.010036012 -2.2681442e-21)
(2.4844894 -0.0095170993 4.944535e-21)
(2.4934598 -0.0086058462 0)
(2.5004261 -0.0075163201 5.1626322e-21)
(2.5056907 -0.0057880166 -1.3649684e-21)
(2.5092695 -0.0041472737 2.2585895e-21)
(2.5117855 -0.0012043533 -5.3448661e-21)
(0.74465037 0.77807418 2.4375754e-20)
(0.61056323 0.97935806 6.6118792e-19)
(0.90211565 0.54258117 -7.2192501e-20)
(1.2115609 0.11124029 7.6244074e-21)
(1.5597908 -0.080358826 1.2752872e-19)
(1.8444738 -0.080706541 8.2074941e-21)
(2.0362027 -0.040825527 -3.7374982e-21)
(2.1525005 -0.030842526 2.7292902e-22)
(2.2355699 -0.030387918 8.2512263e-21)
(2.2984884 -0.029184732 5.155048e-21)
(2.3461727 -0.0274158 -1.5255363e-20)
(2.3826926 -0.025061102 7.1226979e-21)
(2.4109035 -0.022598262 1.575476e-21)
(2.4331146 -0.020400456 -4.1139777e-21)
(2.4510161 -0.018521534 -3.8158672e-21)
(2.4657331 -0.016815709 -3.5249901e-21)
(2.4779312 -0.015121499 1.972738e-21)
(2.4879784 -0.013370442 -1.3761615e-22)
(2.4961148 -0.011411393 -9.4367791e-22)
(2.5024907 -0.0094598448 1.4039875e-20)
(2.507336 -0.0070006741 -6.976355e-22)
(2.5106998 -0.0048094712 3.1986744e-22)
(2.5131011 -0.0013588896 -1.9407819e-21)
(0.80801813 0.8041309 7.2116884e-20)
(0.61980175 0.94165376 -5.3458961e-19)
(0.91927488 0.45000263 2.3331287e-19)
(1.2137796 -0.0032549929 1.3509876e-19)
(1.5517387 -0.1917438 -2.5966221e-20)
(1.8262496 -0.17326686 -3.1276526e-21)
(2.01847 -0.10468949 -2.9463945e-21)
(2.1364433 -0.074478409 2.2354865e-21)
(2.2202092 -0.064228916 4.8698686e-21)
(2.2850131 -0.05642586 -1.6158538e-20)
(2.334646 -0.049507384 7.0721541e-21)
(2.3727686 -0.042961288 8.2240759e-21)
(2.4020916 -0.037022306 6.052773e-23)
(2.4250077 -0.032055835 2.2770982e-21)
(2.4434413 -0.028057001 5.0583078e-21)
(2.4587105 -0.024765751 -1.5889474e-20)
(2.4715726 -0.021858813 -5.8601848e-21)
(2.4824233 -0.019105133 2.1665252e-21)
(2.4914655 -0.016426189 3.6845858e-21)
(2.4988384 -0.013658918 -3.3271493e-21)
(2.5046533 -0.01102888 -6.2500822e-21)
(2.5090889 -0.0079870782 2.8267523e-21)
(2.5122231 -0.0053493181 2.7498591e-21)
(2.5144978 -0.0014805511 2.6360811e-21)
(0.8862889 0.82553475 9.3751068e-20)
(0.72120195 0.90082788 -4.5288873e-19)
(0.98163479 0.35324916 6.0836964e-19)
(1.2483436 -0.11649373 2.2422704e-19)
(1.5708864 -0.29934558 -8.1299707e-20)
(1.8270818 -0.26326738 -3.2044077e-20)
(2.0118372 -0.16890805 3.1606413e-22)
(2.127378 -0.11893794 2.5800591e-21)
(2.2097315 -0.098938629 -3.6418106e-21)
(2.2750048 -0.085004004 -1.4393717e-21)
(2.3259348 -0.073101529 -9.0562559e-22)
(2.3652512 -0.062352141 -6.9711049e-21)
(2.3953488 -0.05278166 3.0332541e-21)
(2.4185916 -0.044844144 -7.6437163e-21)
(2.4371345 -0.03858529 -3.4487304e-21)
(2.4525368 -0.033627289 -3.8105839e-21)
(2.4657021 -0.029483106 2.7728796e-21)
(2.4770492 -0.025762122 9.8358673e-21)
(2.4867557 -0.02223785 3.185939e-21)
(2.4949102 -0.018857216 -8.5799771e-22)
(2.5015847 -0.015464553 2.9678599e-21)
(2.5068693 -0.012298634 -8.0481616e-21)
(2.5109082 -0.0087899398 5.3535374e-21)
(2.5138058 -0.0057888851 -7.0828152e-21)
(2.5159441 -0.0015759021 -1.3999535e-21)
(0.97262089 0.84070319 3.2503724e-19)
(0.84015328 0.85657968 1.3063493e-18)
(1.0833992 0.2558245 -7.715005e-20)
(1.3173862 -0.22537685 4.6679228e-19)
(1.6137283 -0.40025506 1.0927387e-19)
(1.8455492 -0.34749636 -9.2193773e-22)
(2.0159164 -0.2304738 -1.1894567e-20)
(2.1249284 -0.16245159 -2.8035786e-20)
(2.2038916 -0.13331596 -1.7481354e-20)
(2.2683379 -0.11404439 -3.4162407e-21)
(2.3199749 -0.09760536 -1.2017492e-20)
(2.3602037 -0.082804938 1.3372122e-20)
(2.3908468 -0.069525715 3.7175611e-21)
(2.4141065 -0.058444455 -2.3091534e-21)
(2.4323549 -0.049773622 5.7280355e-21)
(2.4474674 -0.043100883 5.0842041e-22)
(2.4605484 -0.037734823 -7.6486781e-21)
(2.4720776 -0.033091017 -3.4964742e-21)
(2.4821939 -0.028809496 1.1384988e-20)
(2.4909239 -0.024716613 -2.0781401e-21)
(2.4982889 -0.020800548 2.4555954e-21)
(2.5043223 -0.01692046 3.1672722e-21)
(2.5091066 -0.013328007 4.0700582e-21)
(2.5127628 -0.0094425457 -4.155998e-21)
(2.5154217 -0.0061449895 5.2898746e-22)
(2.517416 -0.0016496908 -3.9548335e-21)
(1.070424 0.84722646 -6.4512349e-20)
(0.98865103 0.80785164 9.9245757e-19)
(1.215612 0.16316909 -9.752253e-19)
(1.4205697 -0.32608618 1.5710922e-20)
(1.6764302 -0.49204692 1.0960012e-19)
(1.879317 -0.42369242 -2.8288375e-21)
(2.0296107 -0.28702861 3.9301551e-21)
(2.1283593 -0.20340752 2.2767616e-20)
(2.2021477 -0.16630466 5.8808508e-21)
(2.2646737 -0.14273033 -2.5711255e-21)
(2.3165372 -0.12247962 -4.2446065e-22)
(2.3575426 -0.10393356 4.9269053e-22)
(2.388647 -0.086950558 -5.1336519e-22)
(2.4117141 -0.072548994 -1.4384184e-22)
(2.4293057 -0.061302971 3.191723e-21)
(2.4436966 -0.052850403 1.935322e-21)
(2.4562925 -0.046314976 -8.4749628e-22)
(2.4676723 -0.040845152 -2.461468e-21)
(2.4779427 -0.035898501 2.51513e-21)
(2.4870484 -0.031214553 3.5801828e-21)
(2.4949329 -0.026692655 -5.1609453e-21)
(2.5015886 -0.02236253 -7.3567116e-21)
(2.5070301 -0.018098281 -1.4347868e-21)
(2.5113418 -0.01416243 2.2036785e-21)
(2.5146294 -0.0099706468 -1.3748714e-20)
(2.5170498 -0.0064305353 7.1239982e-21)
(2.5188945 -0.0017053335 -1.4001289e-21)
(1.1792234 0.84695832 -4.6484708e-19)
(1.1599294 0.7548812 -1.4327747e-18)
(1.3688633 0.07568519 -3.7581164e-19)
(1.5475437 -0.41521266 -1.9804398e-19)
(1.7552012 -0.57247788 2.7658891e-19)
(1.9253945 -0.49037863 -1.4665381e-19)
(2.0514113 -0.33688257 1.408698e-20)
(2.1366848 -0.24051397 -5.0701426e-21)
(2.2037567 -0.19705116 2.2216114e-20)
(2.2635095 -0.17038984 5.7690694e-21)
(2.3152487 -0.14726256 2.2667441e-21)
(2.3570599 -0.12543009 3.8123992e-21)
(2.3887102 -0.10481473 3.2915427e-21)
(2.4115078 -0.086908263 -1.0229695e-20)
(2.4281388 -0.072868028 -3.2864507e-21)
(2.4413761 -0.06254678 -6.0255698e-21)
(2.4530591 -0.054892224 1.0960108e-22)
(2.4639451 -0.048740868 -5.7315789e-21)
(2.474111 -0.043282259 5.5309399e-21)
(2.4833986 -0.038124226 6.6452197e-21)
(2.4916534 -0.033134128 -5.7219779e-21)
(2.4987915 -0.028280255 3.0386875e-21)
(2.5048023 -0.023624474 -1.1585688e-21)
(2.509694 -0.019052754 -5.5577478e-21)
(2.5135577 -0.014836481 -1.4394943e-20)
(2.5164899 -0.010393883 -4.6696924e-21)
(2.5186734 -0.0066553212 -2.4287373e-23)
(2.5203642 -0.0017453682 3.7524195e-21)
(1.2971789 0.83996532 -2.3952502e-19)
(1.3435355 0.69767465 -7.1810606e-19)
(1.5363097 -0.0054052857 5.7999631e-19)
(1.6859349 -0.4914986 -3.01473e-19)
(1.8461002 -0.63930063 1.9390725e-19)
(1.9805199 -0.54639904 1.9320678e-19)
(2.0796121 -0.37894717 -8.8165895e-20)
(2.1487888 -0.27286753 -4.3948713e-20)
(2.2078845 -0.22492746 1.825557e-20)
(2.2642318 -0.19651283 2.0731233e-20)
(2.3156402 -0.17159116 -1.6613916e-21)
(2.3584452 -0.14707477 -6.0156e-21)
(2.3909165 -0.12296493 5.1446092e-21)
(2.4135257 -0.10133969 2.9163218e-21)
(2.4289701 -0.084212659 2.1062955e-21)
(2.4406223 -0.071865115 2.8303413e-21)
(2.4509315 -0.063134665 -1.3195986e-22)
(2.4609503 -0.056468395 -1.7951795e-21)
(2.4707523 -0.050707146 -1.0251656e-21)
(2.4800413 -0.045254609 4.5578489e-21)
(2.4885288 -0.039917826 1.097796e-21)
(2.4960427 -0.034682086 -1.60992e-20)
(2.5025091 -0.029565 -8.6326811e-21)
(2.5079271 -0.024647708 1.2821699e-20)
(2.5123044 -0.019824985 1.38122e-20)
(2.5157418 -0.015376045 -8.7699304e-21)
(2.5183306 -0.010727002 8.9625301e-21)
(2.5202794 -0.0068267536 4.8338346e-21)
(2.5218131 -0.0017717324 -8.8707697e-21)
(1.4215285 0.82736797 3.1784137e-19)
(1.5319864 0.63796159 3.7987238e-19)
(1.7097187 -0.078790701 8.6143031e-20)
(1.8303809 -0.55524883 -8.7080212e-20)
(1.945178 -0.69250984 -1.8268711e-19)
(2.0415833 -0.5924839 6.5419311e-20)
(2.1124542 -0.41263629 5.9781653e-20)
(2.1635147 -0.29989711 0)
(2.2136936 -0.24953571 -9.5109701e-22)
(2.2661906 -0.22074105 1.3821297e-20)
(2.3171909 -0.19520907 0)
(2.3613189 -0.16873623 -8.9849624e-21)
(2.395079 -0.14133737 -6.7902485e-21)
(2.4177666 -0.11575139 3.075967e-21)
(2.4318977 -0.095133372 -2.9491408e-22)
(2.4415343 -0.080508056 -5.0647074e-22)
(2.4499607 -0.0707027 -3.8665769e-21)
(2.4586962 -0.063714833 7.675573e-21)
(2.4678604 -0.057903665 2.6112858e-21)
(2.4769878 -0.052392427 -1.3294601e-22)
(2.4855979 -0.046886851 -2.6445502e-21)
(2.4933942 -0.041380598 -6.6075475e-21)
(2.500242 -0.035941259 3.8657339e-21)
(2.506094 -0.03061061 8.1246366e-22)
(2.5109621 -0.025477759 -1.7924061e-20)
(2.5148551 -0.02044524 -1.1295082e-21)
(2.5178845 -0.015800146 1.0233362e-20)
(2.5201403 -0.010980922 8.8499282e-21)
(2.5218569 -0.0069504105 -2.6888968e-21)
(2.5232311 -0.0017859287 -3.8888105e-21)
(1.560445 0.80983685 2.7195189e-19)
(1.7193813 0.57725031 9.1967091e-20)
(1.8823235 -0.14289038 4.4170152e-20)
(1.9758893 -0.6069033 -5.2602636e-19)
(2.0480766 -0.73301027 -2.3897054e-19)
(2.1058358 -0.62772031 -1.1381814e-19)
(2.1481558 -0.43789574 4.8908717e-20)
(2.1797546 -0.32137987 -3.6537879e-20)
(2.220398 -0.27064315 3.2041427e-20)
(2.2687559 -0.2428575 -5.1544369e-20)
(2.3193688 -0.21795345 -1.4622278e-20)
(2.3652626 -0.19036196 8.5991665e-21)
(2.4009658 -0.15995667 3.7000089e-21)
(2.4241995 -0.13013432 -3.1687151e-21)
(2.437013 -0.1055035 -6.987225e-21)
(2.444212 -0.08820913 -1.3802928e-21)
(2.4501816 -0.077263101 -1.4247458e-21)
(2.4571508 -0.070153419 -6.8091928e-22)
(2.465376 -0.064603818 -2.058351e-21)
(2.4741895 -0.05932214 -8.5304503e-22)
(2.4828478 -0.053871868 -1.7228438e-22)
(2.49087 -0.048250656 1.3067394e-20)
(2.4980355 -0.042582731 -5.1771973e-21)
(2.5042704 -0.036972621 8.8175054e-21)
(2.5095544 -0.031464148 5.9154136e-21)
(2.5139081 -0.026147708 -7.8369196e-21)
(2.5173418 -0.020935254 -1.3025101e-20)
(2.5199786 -0.016122495 2.2756205e-20)
(2.5219101 -0.011163646 2.2308903e-22)
(2.5233972 -0.007030536 7.7019373e-22)
(2.5246102 -0.0017891583 8.7224684e-21)
(1.7168623 0.78502684 -3.9644518e-19)
(1.9174382 0.51657586 -1.460654e-20)
(2.0476009 -0.20102484 8.0633243e-20)
(2.1182087 -0.64634282 -2.9685992e-20)
(2.1508308 -0.76239544 6.3816073e-21)
(2.1711044 -0.65320701 7.0342949e-20)
(2.1850518 -0.45512099 -3.9797624e-20)
(2.1965896 -0.33727713 6.3518703e-21)
(2.2272734 -0.28821349 4.6284511e-20)
(2.2713604 -0.26276326 3.5094606e-22)
(2.3216614 -0.23974165 2.8141983e-20)
(2.3698434 -0.21196409 1.9981889e-20)
(2.4083156 -0.17892404 7.344826e-21)
(2.4327809 -0.14457409 7.4623364e-21)
(2.4444164 -0.11525304 1.8841098e-21)
(2.4487649 -0.094746441 4.7417387e-22)
(2.4516267 -0.082491706 -4.2970198e-21)
(2.4562547 -0.075453333 2.6033073e-21)
(2.4631897 -0.070529523 -2.2629208e-22)
(2.4715412 -0.065840602 1.3562923e-21)
(2.4802104 -0.06071618 6.3752277e-22)
(2.4884498 -0.055163613 -6.1701418e-22)
(2.4959085 -0.049389784 5.8108703e-21)
(2.5024781 -0.043575662 -1.3017679e-21)
(2.5081424 -0.037821565 2.5768416e-22)
(2.5128974 -0.032159735 3.907512e-21)
(2.5167665 -0.026680835 1.9666727e-20)
(2.5197614 -0.021310158 9.2596402e-21)
(2.5220181 -0.016352802 -1.0502784e-20)
(2.5236328 -0.011281077 -1.5071807e-22)
(2.5248931 -0.0070704477 1.9064602e-21)
(2.5259439 -0.0017823909 9.2966405e-21)
(1.8824316 0.75357734 3.780435e-19)
(2.1282113 0.45364848 1.1764364e-19)
(2.2177288 -0.24693033 -6.5517406e-21)
(2.2527129 -0.67716058 3.3752091e-19)
(2.2508866 -0.7821739 -2.1214894e-19)
(2.2356263 -0.66836448 -7.6284249e-20)
(2.2218175 -0.46494353 -6.5889243e-21)
(2.2133665 -0.34778185 3.9759059e-20)
(2.2336813 -0.30247686 -6.8253456e-20)
(2.2735109 -0.28044581 2.7362215e-20)
(2.3236018 -0.260554 -1.5681744e-20)
(2.3746341 -0.23359289 -4.5904167e-21)
(2.4168403 -0.19840128 -1.5760033e-20)
(2.4434577 -0.15923529 -1.0214969e-20)
(2.4542274 -0.12440613 -7.0308439e-21)
(2.4553416 -0.099917648 -2.7628056e-22)
(2.4543394 -0.086064632 1.8136334e-21)
(2.4559289 -0.079275684 1.4044214e-22)
(2.4611482 -0.075401097 0)
(2.4688805 -0.071747226 8.767484e-22)
(2.477563 -0.06728955 -2.6679835e-21)
(2.4860681 -0.062017087 -1.533569e-22)
(2.4938467 -0.056265686 1.6815449e-21)
(2.5007373 -0.050336952 -1.01293e-20)
(2.5067384 -0.044399511 3.8691441e-21)
(2.5118704 -0.038521733 -4.1099858e-23)
(2.5161303 -0.032721189 3.0385339e-21)
(2.5195392 -0.027092768 2.6109614e-21)
(2.5221113 -0.021580101 -7.6440104e-22)
(2.5239978 -0.016497896 -1.6258018e-20)
(2.5253022 -0.011337672 8.8037757e-21)
(2.5263384 -0.0070728702 9.2154772e-21)
(2.527227 -0.0017664349 -8.0092635e-21)
(2.0537524 0.71616453 4.4697336e-20)
(2.3379132 0.38727984 -1.6429506e-19)
(2.3993041 -0.28486917 -5.217516e-20)
(2.3859985 -0.69668425 -6.5766069e-20)
(2.3456091 -0.79314757 1.1374767e-19)
(2.2982191 -0.67641187 -6.895743e-21)
(2.2577223 -0.46798864 -5.8630292e-20)
(2.2297551 -0.35350699 2.8207106e-20)
(2.2391676 -0.31352357 -3.1325623e-20)
(2.2747505 -0.29596776 -1.3814009e-20)
(2.324784 -0.28040522 1.165769e-20)
(2.3792311 -0.25533161 -3.6303073e-20)
(2.4262434 -0.21858124 3.9571145e-21)
(2.4561621 -0.17434924 1.3919883e-20)
(2.4665794 -0.13303968 -2.1183706e-22)
(2.4641173 -0.10360505 3.691537e-22)
(2.4584002 -0.087667575 -7.4463799e-22)
(2.4560922 -0.081256212 -5.2810363e-21)
(2.459061 -0.078926232 3.1652009e-21)
(2.4659906 -0.076851833 -6.8459398e-21)
(2.4747256 -0.073481229 -1.0719786e-22)
(2.4836129 -0.068749003 1.1115595e-20)
(2.4918045 -0.063150179 4.4921025e-21)
(2.4990477 -0.057179496 -8.5441188e-21)
(2.5053659 -0.051122676 -3.13747e-21)
(2.5108292 -0.045086575 1.217634e-20)
(2.5154659 -0.039097213 4.7595661e-21)
(2.5192598 -0.03316401 -7.9534217e-21)
(2.5222279 -0.027393269 -3.0615243e-21)
(2.5243893 -0.021751652 -2.8380912e-21)
(2.5259136 -0.016562681 1.906563e-21)
(2.526913 -0.01133701 -1.0664118e-21)
(2.5277283 -0.0070401747 -1.0918677e-21)
(2.5284552 -0.0017419819 -4.0187569e-21)
(2.2275732 0.67336423 -1.7717623e-19)
(2.5431255 0.32080724 -6.1233528e-19)
(2.5775635 -0.3187532 -3.0540419e-19)
(2.5263337 -0.70694571 1.0360228e-20)
(2.4411799 -0.79866021 1.3975947e-19)
(2.3565518 -0.67463361 1.9694524e-20)
(2.2916439 -0.46593921 3.316274e-20)
(2.2463917 -0.35471314 -2.900106e-20)
(2.2434307 -0.32132943 1.0151088e-19)
(2.2746525 -0.30950342 0)
(2.3248879 -0.29931207 2.856636e-20)
(2.3832611 -0.27724391 -5.3704554e-21)
(2.4362146 -0.23968898 3.6687542e-20)
(2.4708247 -0.19020743 2.8437096e-21)
(2.4816247 -0.14129429 -6.0089758e-21)
(2.475297 -0.10568456 5.0058753e-21)
(2.4639066 -0.087006422 1.5102583e-21)
(2.4566587 -0.081060398 -3.1292423e-21)
(2.45671 -0.080801527 2.5386142e-21)
(2.4626049 -0.080964165 0)
(2.471462 -0.079207762 1.0018454e-20)
(2.4809225 -0.075333554 -3.2078039e-21)
(2.4897039 -0.070034197 -4.5345095e-21)
(2.4973947 -0.064068118 1.0732992e-20)
(2.5040409 -0.057920538 -1.8659909e-22)
(2.5097995 -0.051777854 8.1964223e-23)
(2.5147634 -0.045662312 9.4815398e-21)
(2.5189401 -0.039563865 4.7074529e-21)
(2.5222922 -0.033497046 4.8073745e-22)
(2.5248335 -0.027587801 4.080458e-21)
(2.5265931 -0.021829011 3.9612347e-21)
(2.5277613 -0.016550942 3.1633973e-22)
(2.5284611 -0.011282221 1.0632823e-21)
(2.5290587 -0.0069745745 -1.219092e-20)
(2.5296255 -0.0017096774 4.2069856e-21)
(2.4012526 0.62599806 -1.2290687e-19)
(2.7405173 0.25513768 6.7290459e-19)
(2.7492624 -0.34778157 3.4469659e-19)
(2.6667653 -0.71021776 4.0918023e-20)
(2.5413932 -0.79643287 -3.9403531e-20)
(2.4170544 -0.67229123 -3.0063862e-20)
(2.3216501 -0.45742007 -3.3858084e-20)
(2.2613134 -0.3525186 1.1349087e-20)
(2.2466009 -0.32610633 -6.5682863e-20)
(2.2727373 -0.32109965 -1.0459541e-21)
(2.323624 -0.3173692 -5.9020458e-20)
(2.3864076 -0.29942243 1.0634552e-20)
(2.4464428 -0.26190422 2.0064233e-20)
(2.487348 -0.20714548 -3.2820054e-20)
(2.4995313 -0.14938524 4.7570005e-21)
(2.489139 -0.10609246 -8.1164052e-21)
(2.4709879 -0.083769634 -5.459897e-21)
(2.4575558 -0.078229432 7.1571251e-21)
(2.4538392 -0.080707661 -5.3046463e-21)
(2.4584094 -0.083901769 -3.1349773e-21)
(2.467483 -0.084405791 1.0429502e-22)
(2.4777856 -0.081789701 6.3778073e-21)
(2.4874303 -0.076958722 6.6901987e-21)
(2.4957481 -0.071025 1.1939503e-21)
(2.5027828 -0.064764195 -1.2868023e-20)
(2.5088106 -0.058519282 -1.2994699e-21)
(2.5140463 -0.052332413 -4.8688323e-21)
(2.5185553 -0.046145119 -5.4627945e-21)
(2.5223044 -0.03993038 -5.1150926e-21)
(2.5252327 -0.03372407 9.2563056e-21)
(2.5273567 -0.027678935 7.9302201e-22)
(2.5287205 -0.021815035 2.8171037e-22)
(2.5295376 -0.016465969 1.0057218e-20)
(2.5299427 -0.011176308 -4.0594289e-22)
(2.5303268 -0.0068782619 -3.0151699e-21)
(2.5307355 -0.0016701708 -2.515701e-21)
(2.5727658 0.57521333 -9.301794e-21)
(2.9273945 0.19178119 6.2965808e-19)
(2.911902 -0.37116413 6.0538504e-19)
(2.8040464 -0.70724475 1.4747629e-19)
(2.6417166 -0.78854315 1.3155182e-20)
(2.4815596 -0.66494113 9.7525863e-21)
(2.3546442 -0.44996823 -8.4489741e-20)
(2.2718835 -0.34726003 2.1192493e-20)
(2.2494932 -0.32790139 -5.9943181e-20)
(2.2672449 -0.33144603 2.9278075e-20)
(2.3206448 -0.33460651 4.4942055e-20)
(2.3883684 -0.32189853 9.7268211e-21)
(2.456611 -0.2854788 -6.8083838e-20)
(2.5056297 -0.22549329 2.3337485e-20)
(2.5204564 -0.15754378 2.4852883e-20)
(2.5059226 -0.10482562 -2.7018428e-21)
(2.4798337 -0.077661841 -1.1996503e-21)
(2.4587265 -0.072420168 8.3481961e-22)
(2.4501858 -0.078301319 -6.3532336e-22)
(2.4530483 -0.085464075 -2.959566e-21)
(2.4624477 -0.089035136 1.3343825e-21)
(2.4739428 -0.088175278 -2.4843415e-21)
(2.4848334 -0.08402441 -9.6942926e-21)
(2.4940604 -0.078131251 8.3869017e-21)
(2.5016145 -0.07168255 3.8337226e-21)
(2.5079117 -0.065270503 -1.1305843e-20)
(2.5133499 -0.059015956 -1.0367843e-20)
(2.5181203 -0.052812234 1.1528336e-21)
(2.5222213 -0.046545959 -1.018487e-20)
(2.5255692 -0.040199404 -1.3699106e-20)
(2.5280855 -0.033845304 -1.1027755e-21)
(2.529797 -0.027667619 -4.8687982e-21)
(2.5307687 -0.02171207 1.3106986e-21)
(2.5312394 -0.01631101 -5.1120467e-22)
(2.5313551 -0.011022357 -8.831839e-21)
(2.53153 -0.0067535082 3.3141008e-21)
(2.5317836 -0.001624165 2.5569195e-21)
(2.7382403 0.52237752 -3.399135e-20)
(3.0989939 0.1318075 -5.4339983e-19)
(3.0635442 -0.38902613 -1.0084732e-20)
(2.9353798 -0.69802011 8.1616899e-21)
(2.7406651 -0.77296492 1.2567964e-20)
(2.5470485 -0.64967274 -1.5379421e-21)
(2.3902801 -0.43926969 1.192481e-19)
(2.2843455 -0.3403926 -3.1350544e-20)
(2.2497076 -0.32670381 2.8741192e-20)
(2.2599894 -0.33927573 -4.7372323e-21)
(2.3158218 -0.35138877 -3.8055742e-20)
(2.3889563 -0.34469783 -1.8803313e-20)
(2.4663801 -0.31041402 -3.4688351e-21)
(2.5255136 -0.24568664 -4.8642087e-21)
(2.544561 -0.16605885 1.2678736e-20)
(2.5259363 -0.10185381 1.8693352e-20)
(2.4906506 -0.068431716 0)
(2.4601281 -0.063178939 -3.3663252e-21)
(2.445475 -0.07322377 7.1574676e-21)
(2.4461296 -0.085488672 -4.3211714e-21)
(2.4559755 -0.093069371 -1.8543055e-21)
(2.4690896 -0.09458679 4.9580321e-21)
(2.4817255 -0.091385969 8.6788028e-22)
(2.4922656 -0.085538106 -6.2478146e-21)
(2.500563 -0.078766174 2.2770159e-21)
(2.5071749 -0.072043426 -4.1763651e-21)
(2.512744 -0.065646827 -1.2925183e-20)
(2.5176672 -0.059452662 1.2020847e-20)
(2.5220426 -0.053236011 6.301365e-21)
(2.5257785 -0.046868417 1.0055685e-20)
(2.5287436 -0.04036889 9.3664517e-22)
(2.5308531 -0.033858859 -5.5430149e-21)
(2.5321533 -0.027554236 -9.6209088e-21)
(2.5327354 -0.021522567 3.9401952e-21)
(2.532864 -0.016089554 5.1464809e-21)
(2.5326962 -0.010823659 4.2529386e-22)
(2.532667 -0.0066026983 1.1416012e-20)
(2.5327691 -0.0015724196 2.3779489e-21)
(2.8923125 0.46857231 -1.088242e-20)
(3.2523495 0.07620772 -7.5394685e-19)
(3.2027188 -0.40196136 -4.0425231e-19)
(3.0586077 -0.68291229 -1.9299868e-20)
(2.8364644 -0.74967719 -5.809481e-20)
(2.6110793 -0.62573753 -2.1416895e-21)
(2.4253537 -0.42286338 5.0138898e-20)
(2.298475 -0.33023181 1.0765005e-21)
(2.2468559 -0.32351423 -3.0850262e-20)
(2.2553969 -0.34654464 -3.2452427e-20)
(2.308709 -0.36719767 -3.8901583e-20)
(2.3880567 -0.36792934 3.2475408e-21)
(2.4754837 -0.33708082 1.0269558e-19)
(2.546826 -0.26786535 -9.5536923e-21)
(2.5719426 -0.17526512 4.1483729e-20)
(2.5494576 -0.097272947 1.10286e-20)
(2.5036652 -0.055782284 0)