/*--------------------------------*- C++ -*----------------------------------*\
| =========                 |                                                 |
| \\      /  F ield         | OpenFOAM: The Open Source CFD Toolbox           |
|  \\    /   O peration     | Version:  v2012                                 |
|   \\  /    A nd           | Website:  www.openfoam.com                      |
|    \\/     M anipulation  |                                                 |
\*---------------------------------------------------------------------------*/
FoamFile
{
    version     2.0;
    format      ascii;
    class       surfaceVectorField;
    location    "112.413885338338261";
    object      Uf;
}
// * * * * * * * * * * * * * * * * * * * * * * * * * * * * * * * * * * * * * //

dimensions      [0 1 -1 0 0 0 0];


internalField   nonuniform List<vector> 
18180
(
(2.7612701 0.031045671 -1.7870235e-20)
(2.7315328 0.015156733 -2.6260852e-20)
(2.7720814 0.063109696 -6.9398767e-22)
(2.7372087 0.052484248 1.9953069e-21)
(2.7136427 0.038152357 -5.6534052e-21)
(2.6992217 0.016539845 1.4308683e-20)
(2.7888071 0.097511476 2.0661948e-20)
(2.7462232 0.087762567 -7.3996519e-21)
(2.7183089 0.077624785 -4.9350566e-21)
(2.7014607 0.058095333 -7.8023882e-21)
(2.6845063 0.038542283 1.1104666e-20)
(2.6677374 0.016401301 3.223547e-20)
(2.8119676 0.13659944 3.2958165e-20)
(2.7594057 0.12881348 2.9758922e-20)
(2.7250517 0.12002594 3.2585069e-21)
(2.7051606 0.096685852 -5.6379708e-21)
(2.6855608 0.077790914 -8.3790022e-21)
(2.6671757 0.057615419 -1.7273635e-21)
(2.6512525 0.037671266 1.8137207e-20)
(2.6380564 0.015615666 1.4815139e-20)
(2.841327 0.18208452 3.331334e-20)
(2.7758921 0.17515824 2.2237229e-20)
(2.7333048 0.16814557 1.9037122e-20)
(2.7095752 0.14133909 1.1053353e-20)
(2.6865029 0.1194454 2.7265062e-21)
(2.666252 0.095176172 1.5762753e-20)
(2.648817 0.075539205 2.2444617e-20)
(2.6352707 0.05485526 1.4693344e-20)
(2.6222521 0.035010261 1.1488732e-20)
(2.6114514 0.014280972 3.694078e-21)
(2.8772938 0.2358715 5.2291445e-21)
(2.7953962 0.23005887 2.4601812e-20)
(2.7421551 0.22419496 1.394516e-20)
(2.7138267 0.19108865 1.019007e-20)
(2.6862711 0.16563047 2.4760993e-21)
(2.6634448 0.13782889 -8.5673605e-21)
(2.6442695 0.11495392 3.6361283e-21)
(2.6307426 0.089828455 8.9974971e-21)
(2.6173755 0.069656799 1.4360972e-21)
(2.607117 0.050061228 -1.4852867e-21)
(2.5966655 0.031440489 -9.0815627e-21)
(2.5884083 0.012656629 -5.9185251e-21)
(2.9216865 0.29963907 3.7859343e-21)
(2.817844 0.29513497 -1.2313108e-20)
(2.7507475 0.29071217 5.8017713e-21)
(2.7166326 0.24922853 -5.5028668e-22)
(2.6835754 0.2180041 -4.3474363e-21)
(2.6578897 0.18401264 -2.2683552e-21)
(2.6363264 0.15744585 -1.282419e-20)
(2.6225108 0.12862732 -1.3584913e-20)
(2.6091354 0.10486843 -8.7561192e-21)
(2.6001478 0.081184402 -8.4909521e-21)
(2.5902163 0.062055348 -1.1413806e-20)
(2.5831242 0.044244953 -8.0586163e-21)
(2.5751265 0.027401105 -5.0411901e-21)
(2.5690401 0.010914881 -7.5382955e-21)
(2.9741527 0.3751109 1.2800862e-20)
(2.8453632 0.37321714 2.8515837e-20)
(2.7590025 0.37059781 1.3608822e-20)
(2.7166903 0.31725625 -7.3706067e-21)
(2.6766612 0.27820952 -1.3612079e-20)
(2.6478734 0.23626482 -1.2255871e-20)
(2.6236791 0.2039671 -1.040249e-20)
(2.6099693 0.16915843 9.9193051e-22)
(2.5963112 0.1415358 4.8089242e-22)
(2.5884453 0.11479094 -1.0055315e-21)
(2.5797304 0.092378211 -6.3510424e-22)
(2.5747391 0.071027496 -7.8247089e-21)
(2.5678524 0.053634206 -4.5859247e-21)
(2.5632973 0.03802682 1.6882049e-21)
(2.5574217 0.023273758 -5.8038572e-22)
(2.5531746 0.0091849239 -4.1216336e-21)
(3.0168143 0.46238483 5.145705e-21)
(2.8755508 0.46676471 -3.682871e-21)
(2.7660967 0.46812516 1.0984992e-20)
(2.7133041 0.3979912 8.1877209e-21)
(2.6635801 0.34800788 -1.182111e-20)
(2.6314472 0.29506123 -2.793722e-21)
(2.6044212 0.25521149 -1.341875e-21)
(2.5914297 0.21315634 -5.9898782e-21)
(2.5778935 0.17994284 4.8936689e-21)
(2.571817 0.14844989 5.4050501e-21)
(2.5642078 0.12279431 4.0688166e-21)
(2.5611952 0.099117768 9.0747642e-21)
(2.5563137 0.078919169 2.3972956e-21)
(2.5543072 0.060410687 -5.4760423e-21)
(2.5498882 0.045165247 4.6617056e-22)
(2.5473414 0.031877609 8.2086903e-22)
(2.5432426 0.01930026 -2.5194272e-21)
(2.5404864 0.0075481339 -1.9363438e-22)
(3.0102652 0.55679775 -7.6910744e-24)
(2.8837066 0.57700116 7.1292061e-21)
(2.7610248 0.58660767 -1.2217558e-21)
(2.7039842 0.49479098 -1.9652648e-20)
(2.6418873 0.42992323 -2.2783555e-20)
(2.6063226 0.36159627 -3.1680477e-20)
(2.5762819 0.31150434 -2.3412426e-20)
(2.5651437 0.26013126 4.0314086e-21)
(2.5523741 0.21997731 -3.0026349e-22)
(2.5489056 0.18322842 2.5745586e-21)
(2.5430708 0.15314895 3.0247871e-21)
(2.5427406 0.12598004 1.7257716e-21)
(2.5397803 0.1032736 6.4421308e-21)
(2.5401555 0.083163618 5.1792308e-21)
(2.5381628 0.065670629 -2.2545854e-21)
(2.5383293 0.050099977 2.5797456e-21)
(2.5358443 0.037116772 2.9484337e-21)
(2.5348186 0.026089467 -1.3429238e-22)
(2.5321563 0.015628041 2.1085805e-21)
(2.5305784 0.0060506336 3.6053536e-21)
(2.8881411 0.65138743 -4.162583e-20)
(2.8260121 0.69966713 -5.6938048e-21)
(2.712257 0.72128368 9.949845e-22)
(2.6751554 0.61021598 3.4991991e-21)
(2.6056278 0.52586589 -1.3925767e-20)
(2.5699873 0.43718546 -3.1769769e-20)
(2.5369283 0.37293914 -4.0351992e-20)
(2.5289432 0.30986848 -3.5459447e-20)
(2.5181224 0.26095964 -9.5916813e-21)
(2.5185956 0.2180361 -2.5537013e-21)
(2.5153667 0.18290457 1.4374816e-22)
(2.5184303 0.15224148 -3.4076034e-21)
(2.5180916 0.12630039 -4.7412144e-21)
(2.521474 0.10383773 -7.642494e-21)
(2.5217762 0.084568011 -9.0568445e-21)
(2.5244152 0.067998058 -9.2806149e-22)
(2.5245078 0.053299979 3.6787969e-21)
(2.5261703 0.040542801 5.6760435e-21)
(2.5251473 0.029762597 2.7902364e-21)
(2.5252384 0.02082821 9.9248814e-22)
(2.5237076 0.012331634 2.3960504e-21)
(2.5230388 0.0047139528 1.8507427e-21)
(2.6363517 0.72527118 -4.5429627e-20)
(2.6470626 0.81159823 -4.950756e-20)
(2.5852471 0.8598081 -1.5516186e-20)
(2.5966097 0.73665418 6.8161205e-21)
(2.5401741 0.63202908 9.2818472e-21)
(2.5165902 0.52242564 4.3777623e-20)
(2.483855 0.43904519 2.7713946e-20)
(2.4809452 0.36149291 -3.0809965e-21)
(2.4734475 0.30161478 2.1284463e-21)
(2.4795637 0.25198362 -7.3101473e-21)
(2.4802851 0.21104111 -5.9229492e-22)
(2.4877826 0.17660448 1.7482553e-21)
(2.4907883 0.14729851 -1.6013694e-21)
(2.4976975 0.12278985 9.3767265e-21)
(2.5009103 0.10136498 6.8364515e-21)
(2.5065195 0.083347241 -4.3290023e-21)
(2.5089842 0.067487251 3.4564754e-21)
(2.5130229 0.054192821 -2.1253726e-23)
(2.5145484 0.042166494 1.8219928e-21)
(2.5171849 0.031971765 3.0488251e-21)
(2.5172332 0.0232297 1.3484158e-21)
(2.5181159 0.016168005 1.3680597e-21)
(2.5174567 0.0094379864 8.3459674e-22)
(2.5174741 0.0035452924 1.0031916e-22)
(2.3083813 0.77320408 -2.2094267e-20)
(2.3772008 0.89296796 -4.0064524e-20)
(2.3733384 0.97504098 -4.3865777e-20)
(2.4429813 0.85179573 -2.2071487e-20)
(2.4245898 0.7355599 -9.7072778e-22)
(2.4312354 0.61018164 1.2641438e-20)
(2.4110715 0.50662883 4.5432391e-20)
(2.4192351 0.4138671 3.9348024e-20)
(2.4170641 0.34028167 1.0291955e-20)
(2.4307201 0.28331611 1.5000511e-20)
(2.4371265 0.23604887 6.2326503e-21)
(2.4502785 0.19808461 -3.7634644e-21)
(2.4576761 0.16523944 -1.5932855e-21)
(2.4688439 0.13876169 3.1430571e-21)
(2.4754901 0.11536287 1.3635328e-20)
(2.4843774 0.096343028 1.634775e-20)
(2.4897022 0.07918046 5.8935801e-21)
(2.4964862 0.06511676 -5.8522836e-22)
(2.5002833 0.052407164 -3.9487906e-21)
(2.5050967 0.042005385 -3.7668025e-21)
(2.5075542 0.032406821 -2.6821579e-21)
(2.5107758 0.024470032 3.9490849e-22)
(2.5115834 0.017550069 3.9912644e-22)
(2.5130038 0.012122165 2.6473933e-22)
(2.5130036 0.0069435482 -4.4087845e-22)
(2.5135261 0.0025446628 1.7456675e-22)
(1.9521936 0.79686622 -5.6269333e-21)
(2.0618519 0.9442739 -3.3312955e-20)
(2.1016803 1.0579853 -5.0554191e-20)
(2.2201015 0.93866759 -1.5428845e-20)
(2.2487316 0.82085348 5.6925621e-21)
(2.2972674 0.68507358 2.1283521e-21)
(2.3078529 0.5665263 1.5091188e-20)
(2.3389534 0.46268209 7.8761248e-21)
(2.3480131 0.37468186 1.5353183e-21)
(2.3714458 0.31019573 8.9154747e-22)
(2.3855452 0.25599353 5.2157792e-21)
(2.4057432 0.21499786 -4.3839536e-21)
(2.4187676 0.17883609 -1.4036059e-20)
(2.4349337 0.15090627 -1.3239846e-20)
(2.4457398 0.12567921 -8.9252539e-21)
(2.4583528 0.1058977 -1.2501331e-21)
(2.46685 0.087763873 1.0994191e-21)
(2.4765101 0.073407518 1.3407968e-21)
(2.4829392 0.060028966 -4.8849647e-21)
(2.4901862 0.049341082 -4.4724343e-21)
(2.4947197 0.039408357 -4.3015978e-21)
(2.4998748 0.03148551 -3.1000058e-21)
(2.5028934 0.024021028 -1.8563389e-22)
(2.5064198 0.018027257 -1.4066823e-21)
(2.5077439 0.012695716 -1.5615842e-21)
(2.5095088 0.0086648264 1.4239568e-22)
(2.509995 0.0048252511 7.3636189e-22)
(2.5108804 0.0017075601 1.2210619e-22)
(1.605953 0.79964342 1.0210256e-20)
(1.7388753 0.96796712 -1.4960648e-20)
(1.8052849 1.1095241 -4.1420534e-20)
(1.9574538 0.99345824 1.6770884e-20)
(2.0258545 0.8785162 5.1138015e-20)
(2.114732 0.73372068 2.0427132e-20)
(2.1676307 0.60552853 1.7266917e-20)
(2.2329873 0.49811617 7.0930916e-21)
(2.264719 0.3998619 1.2648848e-22)
(2.3015342 0.32996594 -2.0166599e-20)
(2.3258195 0.26873152 -2.1105747e-20)
(2.354384 0.22558716 1.5416648e-20)
(2.3744531 0.18660475 6.4603273e-21)
(2.3963709 0.1579141 -8.9386238e-21)
(2.4120757 0.13133824 -8.1108958e-21)
(2.4287876 0.11137512 -1.4144351e-20)
(2.4409009 0.092553725 -6.9418805e-21)
(2.4536686 0.078197269 6.0188101e-22)
(2.4628667 0.06452832 8.2057896e-22)
(2.4725438 0.053998656 5.5950694e-22)
(2.4794037 0.04384251 1.0366168e-21)
(2.486659 0.035962791 -2.2273342e-21)
(2.4915179 0.02840484 -1.0554321e-21)
(2.4967262 0.022560718 2.3296259e-21)
(2.5000393 0.016927935 1.2086868e-21)
(2.5036745 0.01257713 -2.2458759e-21)
(2.5053312 0.0086038932 -6.3793229e-22)
(2.5072955 0.005747994 2.0203423e-21)
(2.5081279 0.0030501814 1.4567179e-21)
(2.5092676 0.0010229162 2.6459715e-22)
(1.3000814 0.7876608 7.0784718e-21)
(1.4371227 0.97104132 -1.9130857e-20)
(1.5135929 1.1340457 -4.3505546e-20)
(1.6857495 1.0161615 -2.2456221e-20)
(1.7844342 0.90571826 3.3146415e-20)
(1.9042609 0.75079306 8.5217994e-21)
(1.997517 0.61395165 -2.1276135e-20)
(2.0998443 0.50874451 9.8546514e-21)
(2.1652233 0.40754454 8.495933e-23)
(2.2207542 0.3378842 5.5932359e-21)
(2.2591302 0.27182846 -1.3586991e-20)
(2.2970902 0.22793038 -8.8894746e-21)
(2.3255723 0.18700084 2.5963122e-20)
(2.353879 0.15860131 2.1951327e-21)
(2.3752403 0.13135982 -1.248495e-20)
(2.3963615 0.11184811 1.2448416e-20)
(2.4124634 0.092877851 7.0281535e-21)
(2.4284681 0.079057444 -3.7502667e-21)
(2.4406648 0.065414751 3.4532567e-21)
(2.4528513 0.055333247 -8.2801789e-22)
(2.4620434 0.045319291 -1.1006672e-21)
(2.4713024 0.037862707 1.8192564e-21)
(2.4781644 0.030379787 -1.2668848e-21)
(2.4851529 0.024791926 1.6180241e-21)
(2.4900642 0.019221087 4.8714181e-21)
(2.495143 0.015091761 2.0318408e-21)
(2.4985642 0.011003461 -1.234676e-21)
(2.502176 0.0080228215 1.4755926e-22)
(2.5040278 0.0051937919 2.6826884e-21)
(2.5060856 0.0033135056 2.7320363e-21)
(2.5071577 0.0015821657 1.619887e-21)
(2.5084609 0.0004780079 1.3468017e-22)
(1.055233 0.76915379 1.371353e-21)
(1.1760085 0.95973147 -1.5923253e-20)
(1.2498158 1.137162 -4.115539e-20)
(1.4298929 1.0127817 -3.2339894e-20)
(1.5514668 0.90242575 -1.211984e-20)
(1.6925593 0.7369089 -3.2090616e-21)
(1.8155007 0.59023921 -2.713464e-20)
(1.9488657 0.48885878 -2.8190587e-20)
(2.0507441 0.39010652 1.2557774e-21)
(2.1294257 0.32755975 1.0283738e-20)
(2.1873147 0.26212031 1.568546e-20)
(2.2356068 0.22013398 -8.2381067e-21)
(2.2736084 0.1786628 -3.6985426e-21)
(2.3086064 0.1517637 2.0151672e-20)
(2.3362757 0.12486611 -2.4952128e-21)
(2.3619778 0.10665802 -5.3139728e-21)
(2.3823778 0.088157702 1.8461646e-20)
(2.4016812 0.075386842 9.1228618e-21)
(2.4170062 0.062267945 -1.0827287e-21)
(2.4316777 0.053084356 2.9499735e-21)
(2.443282 0.043512205 -1.1211364e-21)
(2.4545247 0.036743706 -4.9110766e-21)
(2.463304 0.029658326 -2.1972361e-21)
(2.4719165 0.024628762 -2.0003595e-21)
(2.4785221 0.019322063 7.2677131e-22)
(2.4850928 0.015577565 5.9697173e-21)
(2.489884 0.011642841 3.2923746e-21)
(2.4947244 0.0089098214 7.0769548e-23)
(2.4981281 0.0061060739 1.4008104e-21)
(2.5016298 0.0042549689 -2.478882e-22)
(2.5035748 0.0023755442 -2.4545255e-22)
(2.505655 0.001297252 -1.3963085e-22)
(2.5068976 0.00037482248 -1.5758226e-21)
(2.5082767 5.3779107e-05 -7.0163559e-22)
(0.88026519 0.7516143 -1.3686035e-22)
(0.96924963 0.93920074 4.3144055e-20)
(1.0306534 1.1236576 2.7361577e-20)
(1.2094518 0.98842408 -1.287907e-19)
(1.3453364 0.87133564 -1.2181237e-19)
(1.4992715 0.69572819 -1.1523791e-20)
(1.6408231 0.53876592 -3.0561054e-21)
(1.7961775 0.44006318 -1.3992284e-21)
(1.9287524 0.34496814 -1.9907105e-21)
(2.0308164 0.29439078 1.2959045e-20)
(2.1125145 0.23599631 2.1723138e-20)
(2.1721913 0.20007901 1.0713613e-20)
(2.2207644 0.16064278 -1.2068915e-20)
(2.2622139 0.13660009 -9.8822756e-21)
(2.2965229 0.11121441 1.2661786e-20)
(2.3267923 0.095221035 2.6292101e-21)
(2.3516593 0.077998034 3.2908503e-23)
(2.3741923 0.066895766 5.7213385e-21)
(2.3927051 0.054797259 -3.3348832e-21)
(2.4097913 0.0469039 5.6832073e-21)
(2.4237852 0.038192327 9.6125073e-21)
(2.4368958 0.032469126 -4.4477234e-21)
(2.4475758 0.026045668 -8.0948977e-21)
(2.4577286 0.021806964 -3.2422447e-21)
(2.4658853 0.017029709 -3.0711774e-21)
(2.4737561 0.01389194 6.2993367e-22)
(2.4799652 0.010331234 5.6058577e-21)
(2.4860466 0.0080526601 5.580686e-21)
(2.4906164 0.0054477355 2.5540967e-21)
(2.4951591 0.0038394927 -3.4242292e-21)
(2.4984644 0.0020924025 -5.0622547e-21)
(2.5017997 0.0011646183 -2.4119363e-21)
(2.5037664 7.0852531e-05 -2.3428761e-21)
(2.5058168 -0.00036703087 -4.1858102e-21)
(2.5071318 -0.00058839382 -3.3952981e-21)
(2.5085559 -0.00027036706 -1.4513637e-21)
(0.77101933 0.74040831 2.3309374e-21)
(0.81975518 0.91665813 1.2746051e-19)
(0.86260259 1.0986552 1.7053048e-19)
(1.0354762 0.94721657 6.6051504e-20)
(1.1764719 0.81820692 -8.1654681e-20)
(1.3362984 0.63260583 -7.3480936e-20)
(1.4876627 0.4654317 3.1942311e-20)
(1.6571744 0.36775019 -1.0823975e-20)
(1.8108754 0.2749322 -9.3286086e-21)
(1.9321859 0.2380966 -5.4379919e-21)
(2.0377469 0.19116555 8.7006401e-21)
(2.1093171 0.16587031 5.5274488e-21)
(2.1696419 0.13237119 -5.1401923e-21)
(2.2168289 0.11279091 -8.577143e-22)
(2.2576031 0.090200113 1.386009e-21)
(2.2921382 0.077332906 1.3263933e-20)
(2.3214538 0.062254713 3.7497027e-21)
(2.347016 0.053398676 -7.7390478e-21)
(2.3686491 0.042902194 -2.4555469e-21)
(2.3879809 0.036745452 1.0846702e-21)
(2.4042958 0.029267297 9.7101233e-21)
(2.4191307 0.024880865 4.5382613e-21)
(2.4316063 0.019451005 -8.8825385e-21)
(2.4431279 0.016278067 -3.1843067e-21)
(2.4527603 0.012252656 1.495319e-21)
(2.4618063 0.0099210998 -2.9580839e-21)
(2.4692588 0.0069375394 5.5640398e-22)
(2.4763729 0.0052573962 3.1555756e-21)
(2.4821248 0.0030779688 3.0949444e-21)
(2.4876968 0.0019579417 1.893603e-21)
(2.491989 0.00041853037 -3.7907149e-21)
(2.4962108 -0.00028934888 -4.7411356e-21)
(2.4993645 -0.0011763562 -2.2185738e-21)
(2.5025054 -0.0013518888 -2.1918425e-22)
(2.5044477 -0.0018274774 -1.9356527e-21)
(2.5064469 -0.0017335412 -4.6705688e-21)
(2.5077989 -0.0013600101 -2.843521e-21)
(2.5091782 -0.00057801087 2.8748799e-22)
(0.71603417 0.73909164 3.9204414e-22)
(0.71856974 0.89630766 -1.183595e-19)
(0.74067255 1.0673623 -1.3707735e-21)
(0.90840074 0.89538881 2.7672268e-19)
(1.0486241 0.74991151 1.7920148e-19)
(1.2098805 0.5535527 -2.3160229e-20)
(1.3647459 0.37584405 -1.4516587e-20)
(1.5426092 0.27814104 1.0505019e-20)
(1.7083347 0.18568566 -3.039655e-20)
(1.8425406 0.16226369 -3.6472665e-21)
(1.9676136 0.1282641 1.6619991e-22)
(2.0499928 0.11701798 1.4310298e-21)
(2.1227132 0.093658788 -1.6660245e-21)
(2.1746832 0.080503942 3.7870606e-22)
(2.2213459 0.062198466 4.525903e-21)
(2.2594623 0.053197881 -1.9584514e-21)
(2.2929404 0.041102722 9.2622104e-21)
(2.3211824 0.03505769 3.5559544e-21)
(2.3457459 0.026703735 -7.3504592e-21)
(2.3670802 0.022640485 -5.2451127e-21)
(2.3855654 0.016809294 -1.9261916e-21)
(2.4019048 0.014086701 6.9995379e-21)
(2.4160521 0.0099055556 2.0502304e-21)
(2.4287604 0.0080228426 -6.4235444e-21)
(2.4397119 0.0049954296 -9.7943101e-22)
(2.4497378 0.00367175 2.7840447e-21)
(2.4583182 0.0014397185 -1.4244036e-21)
(2.4663274 0.00053355003 1.2845289e-22)
(2.4730613 -0.0010885933 2.5912925e-21)
(2.4794661 -0.0016420436 1.9596413e-21)
(2.4847326 -0.0027348443 8.0222169e-22)
(2.4898094 -0.0029490399 -1.0450939e-21)
(2.4938001 -0.0036357417 -1.9046612e-21)
(2.4976966 -0.0036337765 -1.6088016e-21)
(2.5006671 -0.0038205822 2.9961583e-22)
(2.50359 -0.0033949746 1.1748449e-21)
(2.5054938 -0.0033563714 -1.3728852e-21)
(2.5074248 -0.0028452665 -1.8210574e-21)
(2.5087448 -0.0020484519 1.1663156e-21)
(2.510082 -0.00087741053 4.4811142e-21)
(0.70389448 0.74835201 8.8372472e-21)
(0.66054801 0.88019315 -3.5403662e-20)
(0.66145458 1.0331628 -1.4868779e-19)
(0.82217294 0.83701398 -1.1303725e-19)
(0.96165106 0.67155383 1.4931222e-19)
(1.1224094 0.46359033 1.0141496e-19)
(1.2772296 0.27468759 -9.1853879e-20)
(1.4590217 0.17687961 -1.7362168e-20)
(1.6291951 0.083421671 6.3466386e-21)
(1.7697752 0.072456657 -2.3129651e-20)
(1.9076068 0.050698665 2.439205e-21)
(1.9979155 0.055278587 3.1541351e-21)
(2.0821363 0.045084141 4.3995599e-21)
(2.1377114 0.040387428 5.345254e-21)
(2.1895417 0.028097539 7.4081012e-21)
(2.2302016 0.023547476 -4.3717541e-21)
(2.2672255 0.015071559 -1.0660668e-20)
(2.2976768 0.012278226 7.4423375e-21)
(2.3248371 0.0065506065 1.9997974e-21)
(2.3478644 0.0049011892 -4.0932564e-21)
(2.3682794 0.0010216773 -2.0457097e-21)
(2.3859353 0.00020658067 -1.8654372e-21)
(2.4015163 -0.0024536627 6.6064099e-21)
(2.4152232 -0.0027860921 2.1762081e-21)
(2.4273032 -0.0046303835 -5.8648811e-21)
(2.4381225 -0.0047781819 5.9755692e-21)
(2.4476353 -0.0060765227 9.6508222e-21)
(2.4563367 -0.0060840365 -3.3700388e-21)
(2.4639209 -0.0069791404 -1.9247687e-21)
(2.4709956 -0.006844734 5.4987808e-22)
(2.4770562 -0.0074022091 -8.0447528e-23)
(2.4828043 -0.0071290257 3.6264352e-21)
(2.4876064 -0.0073672614 1.9158811e-21)
(2.4922172 -0.0068844533 -6.4972129e-22)
(2.495905 -0.006893256 -3.4911463e-22)
(2.4994843 -0.0063321438 2.2734751e-21)
(2.5022537 -0.0059632771 3.1341733e-21)
(2.5049565 -0.0050553887 -2.2129528e-22)
(2.5067946 -0.004596734 -6.2920345e-22)
(2.5086281 -0.0037483525 1.2271846e-21)
(2.5099078 -0.0026106435 4.3745048e-21)
(2.5111928 -0.0011075277 5.3750616e-22)
(0.72639333 0.76725319 2.3235438e-20)
(0.64223745 0.86912797 3.4735913e-19)
(0.62161579 0.99703394 3.1051787e-19)
(0.77759131 0.77474042 -6.8408072e-20)
(0.91511852 0.58544606 -3.3345518e-20)
(1.0736903 0.36624836 7.9092474e-21)
(1.2270574 0.1656761 -3.9699024e-20)
(1.4095527 0.068511147 2.0586912e-20)
(1.5778282 -0.02616802 9.2998086e-20)
(1.7193774 -0.025896602 3.1704725e-20)
(1.862415 -0.036671496 4.1410811e-21)
(1.9569615 -0.016006834 -2.0543061e-21)
(2.0497516 -0.011685687 -1.3928355e-21)
(2.1075621 -0.0063572877 6.8602242e-22)
(2.1635679 -0.010913371 1.5440621e-21)
(2.205631 -0.010537122 5.6263714e-21)
(2.2452348 -0.014951817 -5.5800752e-21)
(2.2773285 -0.014254394 -7.3740412e-21)
(2.3066069 -0.01698582 9.8558909e-21)
(2.3309899 -0.016022988 -4.6260852e-22)
(2.3530151 -0.017661159 -6.2817738e-21)
(2.3717128 -0.016412687 5.2538439e-21)
(2.388541 -0.01726232 5.5342379e-21)
(2.4029869 -0.015962147 2.6847292e-21)
(2.4160312 -0.01636754 -1.5785709e-21)
(2.4274177 -0.015224799 -4.5252654e-21)
(2.4376943 -0.015416361 6.7320594e-21)
(2.4468802 -0.01443994 7.055841e-21)
(2.4551316 -0.014485384 -5.3404515e-21)
(2.4626894 -0.013600764 -5.216547e-21)
(2.4693918 -0.013507419 -2.9176943e-21)
(2.4756588 -0.012625118 -1.0904422e-22)
(2.4811001 -0.012384695 3.4086727e-21)
(2.4862626 -0.011478847 2.3568585e-21)
(2.4906269 -0.011058708 -7.1121899e-23)
(2.4948071 -0.010034124 -4.8041316e-22)
(2.498198 -0.0095088479 2.0068209e-21)
(2.5014721 -0.0085057316 9.6817995e-21)
(2.5040369 -0.0076962719 6.5963602e-21)
(2.5065226 -0.0064053513 -1.0257821e-21)
(2.5082703 -0.0056069075 7.3081956e-22)
(2.5099923 -0.0044843803 1.2716657e-21)
(2.5112244 -0.0030631243 -2.4174158e-21)
(2.5124497 -0.0012830244 -3.6119966e-21)
(0.77739666 0.79309426 4.9046736e-20)
(0.65836061 0.86134066 -2.6017307e-19)
(0.61533738 0.95952064 4.3251426e-20)
(0.77219924 0.70989632 4.4338454e-19)
(0.91098294 0.49412829 8.5682027e-20)
(1.0628589 0.26471204 3.3343134e-20)
(1.2127074 0.052048813 7.3498685e-20)
(1.3937876 -0.043004368 -9.5574792e-21)
(1.5556298 -0.13800639 4.820797e-20)
(1.6937131 -0.1276556 6.1013758e-20)
(1.8350562 -0.12847716 2.3498941e-21)
(1.9297443 -0.092914441 2.5287526e-21)
(2.027039 -0.073742506 -3.3286831e-21)
(2.0851568 -0.057958737 -6.9628195e-22)
(2.1442027 -0.053252367 1.2871162e-21)
(2.1863958 -0.047841832 2.613599e-21)
(2.2276319 -0.047725359 6.5038363e-21)
(2.2606408 -0.043645982 -4.1778414e-21)
(2.2915247 -0.04312785 -5.8593022e-21)
(2.316889 -0.039532709 6.1311775e-21)
(2.3402159 -0.03872014 -3.7169301e-21)
(2.359726 -0.035331301 -3.3000224e-21)
(2.377564 -0.034218437 7.6918757e-21)
(2.3925797 -0.031151444 3.5268152e-21)
(2.4063495 -0.029977298 7.9256014e-22)
(2.4180954 -0.027413696 1.9327163e-21)
(2.4289249 -0.026360462 -8.1106666e-22)
(2.4383801 -0.024298784 5.5610751e-22)
(2.4471014 -0.023400056 7.7036361e-22)
(2.4549388 -0.021700711 -9.9634002e-21)
(2.4621037 -0.020885627 -9.9150823e-21)
(2.4687088 -0.019383293 -4.714252e-21)
(2.474645 -0.018577862 -2.0754275e-21)
(2.4802185 -0.017149619 2.0713608e-21)
(2.4851074 -0.01631112 1.0532032e-21)
(2.4897518 -0.014926121 1.8084652e-21)
(2.493712 -0.013999162 1.4482891e-21)
(2.4974979 -0.01255558 -2.1570607e-21)
(2.5006032 -0.011610498 5.0643457e-21)
(2.5035872 -0.010258609 3.7108546e-21)
(2.5059495 -0.0090986135 -3.5671897e-21)
(2.5082233 -0.007502829 1.0960258e-21)
(2.5098673 -0.0064300013 1.6154224e-21)
(2.5114704 -0.0050842931 1.5568727e-21)
(2.5126474 -0.0034301581 4.83274e-22)
(2.5138071 -0.0014208254 3.8909565e-22)
(0.84846581 0.81533162 8.3296697e-20)
(0.73514767 0.8533545 -1.9511478e-19)
(0.67220191 0.91986013 -4.9236939e-19)
(0.80529899 0.64213501 4.7219979e-20)
(0.95150032 0.39883235 4.2712921e-19)
(1.090577 0.1616154 2.2868756e-19)
(1.231641 -0.062724318 1.8115714e-19)
(1.4086479 -0.15399256 2.4937288e-20)
(1.5616335 -0.24786138 -5.4560613e-20)
(1.6923041 -0.22815545 -2.9060349e-20)
(1.8266797 -0.21997135 -1.8070627e-20)
(1.9179461 -0.17104544 -1.327092e-21)
(2.0150424 -0.13791235 -1.2604695e-21)
(2.071528 -0.11194234 -1.3250497e-22)
(2.1317587 -0.097376418 2.4135504e-21)
(2.1730249 -0.086932684 -7.4626738e-22)
(2.2147946 -0.082051716 4.7128206e-22)
(2.2480096 -0.074807378 1.6572496e-21)
(2.2798411 -0.071076992 -8.5520477e-21)
(2.3058654 -0.064917004 -8.3918563e-21)
(2.3301443 -0.061595319 2.9494052e-21)
(2.3502608 -0.056047867 -7.8602185e-23)
(2.3688838 -0.05289115 3.7143936e-22)
(2.3842892 -0.047961693 5.5809706e-21)
(2.398607 -0.045091775 1.5968068e-21)
(2.410511 -0.041004984 -3.8622939e-21)
(2.4216918 -0.038602928 -2.8499616e-21)
(2.4311975 -0.035380382 -6.3890271e-22)
(2.4401819 -0.033448783 6.6182714e-22)
(2.4480839 -0.030893113 5.435243e-22)
(2.4555199 -0.029307319 -9.6469715e-21)
(2.4622781 -0.027167534 -6.387126e-21)
(2.4685386 -0.02576997 -1.39849e-21)
(2.4743651 -0.023846078 2.1310999e-21)
(2.4796458 -0.022527542 6.1301849e-21)
(2.4846303 -0.020700027 2.6855193e-21)
(2.4890314 -0.01941216 3.4268745e-21)
(2.493218 -0.017663813 1.3721193e-21)
(2.4968082 -0.016346437 -2.05104e-21)
(2.5002335 -0.014578139 -1.2249476e-22)
(2.5030674 -0.0133031 -1.4860918e-21)
(2.5057773 -0.011675284 -7.164625e-21)
(2.5079418 -0.010235645 -2.7935192e-21)
(2.5100104 -0.0083957968 4.113039e-21)
(2.5115436 -0.0071005439 4.0954395e-21)
(2.5130242 -0.0055730916 -2.2551291e-21)
(2.5141402 -0.0037268267 -2.3865085e-21)
(2.5152294 -0.0015290932 5.8170783e-22)
(0.93090236 0.83309096 2.1327194e-19)
(0.82973032 0.84134148 7.110251e-19)
(0.78267198 0.87726836 4.5622601e-19)
(0.90390355 0.57249936 -2.6161983e-19)
(1.0342231 0.30002157 2.5411654e-19)
(1.1583581 0.05868648 5.3629707e-19)
(1.2840224 -0.17458573 3.4957632e-19)
(1.4510065 -0.2609567 1.6562196e-19)
(1.5930256 -0.35240722 1.7182014e-20)
(1.712479 -0.32385949 -4.0380904e-20)
(1.8366251 -0.30721957 -1.5961265e-20)
(1.9210024 -0.24656929 -2.1785332e-20)
(2.0139452 -0.20090695 -5.993962e-21)
(2.0668196 -0.16561825 -1.4119909e-20)
(2.1261121 -0.1414589 -1.3241193e-20)
(2.1654187 -0.12625835 -7.6351081e-21)
(2.2067136 -0.11664798 -1.0793667e-20)
(2.2394349 -0.10663039 -3.5269503e-21)
(2.2715595 -0.099926365 -2.4609649e-21)
(2.2979273 -0.091420642 -6.8257635e-21)
(2.3228549 -0.085676363 -6.6479841e-21)
(2.3434277 -0.078042566 6.3648239e-21)
(2.3626427 -0.072841702 3.5419204e-21)
(2.378317 -0.066004918 -1.5284308e-21)
(2.3930222 -0.061365616 3.3868963e-21)
(2.4049252 -0.055665074 3.1238487e-22)
(2.4162737 -0.051815435 -4.8868378e-21)
(2.4256215 -0.0473541 -8.350956e-22)
(2.4346643 -0.044320539 1.2938485e-21)
(2.4424141 -0.040884447 -1.432416e-21)
(2.4499169 -0.038486863 -1.5784809e-21)
(2.4566297 -0.035718624 -5.7637542e-21)
(2.4630386 -0.033720063 -2.6131403e-21)
(2.4689572 -0.031320009 -4.1910403e-22)
(2.4744798 -0.029529107 2.945456e-21)
(2.4796734 -0.027313594 1.0625204e-20)
(2.4843981 -0.025623035 7.4233991e-21)
(2.4888794 -0.023499794 5.0596852e-22)
(2.4928499 -0.021872832 -1.4885983e-21)
(2.4966293 -0.019846548 8.2912111e-22)
(2.4998813 -0.01822741 2.7031091e-21)
(2.5029756 -0.01620573 3.0693757e-21)
(2.5055529 -0.014670304 -2.2518056e-21)
(2.5080044 -0.012822666 -1.8791956e-21)
(2.5099771 -0.011158836 4.6902196e-21)
(2.511848 -0.009122168 5.1262475e-22)
(2.5132668 -0.0076457429 -5.5702346e-21)
(2.514624 -0.005970171 -3.2079883e-21)
(2.5156741 -0.0039659291 -4.0310321e-22)
(2.5166891 -0.0016134679 -2.7007021e-21)
(1.0231623 0.84396871 1.2373098e-19)
(0.94437189 0.82398634 6.6475957e-19)
(0.91689192 0.83061439 1.1441406e-18)
(1.027424 0.50361088 1.4493718e-19)
(1.1517223 0.20592323 -5.4124494e-19)
(1.263473 -0.040411008 -2.9927426e-20)
(1.3707078 -0.27936911 2.3368896e-19)
(1.5194334 -0.36114039 2.849579e-19)
(1.6461305 -0.44898628 1.0944247e-19)
(1.7511895 -0.41218817 5.2227964e-20)
(1.8629992 -0.387412 -1.9073558e-21)
(1.937303 -0.31670855 1.5673793e-21)
(2.0229931 -0.25998989 -3.7169052e-21)
(2.0703508 -0.2166896 5.805637e-21)
(2.1267014 -0.18373831 -1.7822965e-21)
(2.1631355 -0.1644125 -1.0746544e-20)
(2.2029904 -0.15036861 -5.4084911e-21)
(2.2346446 -0.13810966 -9.8889491e-21)
(2.2664444 -0.12882166 -2.9795087e-21)
(2.2929007 -0.11833969 -1.8925155e-21)
(2.3181984 -0.11039465 -6.026496e-21)
(2.3391548 -0.10082779 -5.6474567e-21)
(2.3588285 -0.093657816 6.7162836e-21)
(2.3747255 -0.084915935 6.301523e-21)
(2.3897099 -0.078470173 1.5310755e-21)
(2.4015024 -0.071065154 1.7513287e-21)
(2.4128701 -0.065681394 -1.190136e-21)
(2.4218733 -0.059899955 4.9247304e-22)
(2.4307791 -0.055689395 4.4172695e-21)
(2.4381546 -0.051340218 3.7968515e-21)
(2.4455186 -0.048105733 1.245854e-21)
(2.4519807 -0.044737349 -1.8197137e-22)
(2.4583489 -0.042143772 -4.13373e-21)
(2.4641897 -0.039318414 -5.0075851e-21)
(2.4698009 -0.037080088 -2.9615624e-21)
(2.4750729 -0.034520379 -4.3573416e-22)
(2.4799968 -0.032459862 6.8008318e-21)
(2.4846703 -0.030033935 7.4120451e-21)
(2.4889209 -0.028069713 8.4623935e-22)
(2.4929664 -0.025722611 -3.6474081e-21)
(2.4965544 -0.023837427 -1.4808573e-21)
(2.4999678 -0.021595733 -2.5399061e-21)
(2.5029094 -0.019741602 -2.2718111e-21)
(2.5056981 -0.017520068 8.2449413e-22)
(2.5080334 -0.015777446 1.2250348e-21)
(2.5102408 -0.013752795 3.1192248e-21)
(2.5120284 -0.011907965 -8.6923155e-22)
(2.5137089 -0.009711393 -9.0392394e-21)
(2.5150122 -0.0080867579 -6.849746e-21)
(2.5162463 -0.0062903574 3.8865768e-21)
(2.5172267 -0.0041568617 1.7705576e-21)
(2.5181647 -0.0016780191 -2.6541882e-21)
(1.1266479 0.84730553 -2.7139204e-19)
(1.0769371 0.80022673 -7.6100516e-19)
(1.077162 0.77931802 -2.6082225e-19)
(1.1768422 0.43515513 2.9594345e-19)
(1.2948071 0.11577484 -6.6546849e-19)
(1.3958285 -0.13127052 -5.7958775e-19)
(1.4861855 -0.37383447 -9.4750332e-20)
(1.611602 -0.45152695 1.485148e-19)
(1.7171363 -0.53496258 1.9589413e-19)
(1.8052309 -0.49119909 -2.0853437e-20)
(1.9031282 -0.45871015 -7.7152497e-20)
(1.9649827 -0.37949282 5.803816e-21)
(2.0408765 -0.31314515 9.1788466e-21)
(2.0810228 -0.26334122 -6.5261615e-22)
(2.1326617 -0.22276285 8.3820051e-21)
(2.1654397 -0.20016947 2.2510552e-20)
(2.2029792 -0.18224797 1.4322397e-20)
(2.2331301 -0.16838464 5.8283995e-21)
(2.2640721 -0.15701466 1.7388472e-21)
(2.2904321 -0.14503821 -1.0761495e-22)
(2.3158714 -0.13524528 9.6628422e-22)
(2.337223 -0.1239821 1.7330531e-21)
(2.3572932 -0.11499146 2.2082451e-21)
(2.3734515 -0.10438228 1.9178018e-21)
(2.3886797 -0.096130339 1.4529511e-21)
(2.4003179 -0.08692901 -5.4610453e-21)
(2.4116075 -0.079922404 -5.3561124e-21)
(2.4201081 -0.072711418 -1.7440734e-21)
(2.4287027 -0.067240852 -1.5617717e-22)
(2.4354821 -0.061936265 -1.503061e-21)
(2.4424973 -0.057831659 -2.1789045e-21)
(2.4484898 -0.053890006 1.0078898e-21)
(2.4546215 -0.050725385 -3.5285614e-22)
(2.4602086 -0.047550103 -3.3343204e-21)
(2.465746 -0.04490981 -4.1515237e-21)
(2.4709641 -0.042085958 1.6078857e-21)
(2.4759624 -0.039703962 4.0737744e-21)
(2.480729 -0.037031654 4.619067e-21)
(2.4851621 -0.0347785 5.1642824e-21)
(2.4893973 -0.032191814 -1.15568e-21)
(2.4932379 -0.030021713 -5.4509052e-21)
(2.4968986 -0.027500888 -9.865519e-22)
(2.500143 -0.025416393 -1.9840252e-21)
(2.5032235 -0.023004966 -4.2013604e-21)
(2.5058787 -0.02096571 -1.292029e-21)
(2.5083835 -0.018584186 -3.5336545e-21)
(2.5104901 -0.016674706 -1.8076097e-21)
(2.5124662 -0.014505579 -6.2453069e-21)
(2.5140755 -0.012513438 -1.4082695e-20)
(2.5155725 -0.010186112 -9.1269733e-21)
(2.5167604 -0.0084398516 1.0290007e-21)
(2.5178724 -0.0065449727 3.4851287e-21)
(2.5187802 -0.004306559 -6.8911239e-22)
(2.519639 -0.0017257165 1.2228093e-21)
(1.2401789 0.8435727 -3.4840801e-19)
(1.2221253 0.77097601 -5.9375831e-19)