/*--------------------------------*- C++ -*----------------------------------*\
| =========                 |                                                 |
| \\      /  F ield         | OpenFOAM: The Open Source CFD Toolbox           |
|  \\    /   O peration     | Version:  v2012                                 |
|   \\  /    A nd           | Website:  www.openfoam.com                      |
|    \\/     M anipulation  |                                                 |
\*---------------------------------------------------------------------------*/
FoamFile
{
    version     2.0;
    format      ascii;
    class       volVectorField;
    location    "62.4493107631428899";
    object      cellDisplacement;
}
// * * * * * * * * * * * * * * * * * * * * * * * * * * * * * * * * * * * * * //

dimensions      [0 1 0 0 0 0 0];


internalField   nonuniform List<vector> 
9200
(
(0.016140726 0 0)
(0.016222705 0 0)
(0.046960432 0 0)
(0.016302857 0 0)
(0.047094038 0 0)
(0.075748022 0 0)
(0.016448595 0 0)
(0.047390246 0 0)
(0.076014058 0 0)
(0.10261784 0 0)
(0.016619919 0 0)
(0.04777892 0 0)
(0.076442244 0 0)
(0.10294009 0 0)
(0.12762656 0 0)
(0.016809227 0 0)
(0.048238367 0 0)
(0.077020422 0 0)
(0.10352101 0 0)
(0.12805117 0 0)
(0.15086138 0 0)
(0.017004817 0 0)
(0.04875484 0 0)
(0.077737787 0 0)
(0.10429558 0 0)
(0.12874353 0 0)
(0.1513335 0 0)
(0.17240115 0 0)
(0.017201407 0 0)
(0.049294373 0 0)
(0.078531793 0 0)
(0.10521758 0 0)
(0.12966892 0 0)
(0.15217147 0 0)
(0.17296872 0 0)
(0.1923323 0 0)
(0.017393652 0 0)
(0.049841063 0 0)
(0.079371699 0 0)
(0.10624444 0 0)
(0.13075923 0 0)
(0.15323671 0 0)
(0.17389808 0 0)
(0.19294573 0 0)
(0.21075284 0 0)
(0.017578356 0 0)
(0.050378207 0 0)
(0.080223258 0 0)
(0.10734151 0 0)
(0.13200661 0 0)
(0.15452241 0 0)
(0.17512094 0 0)
(0.19400894 0 0)
(0.21144245 0 0)
(0.22773232 0 0)
(0.01775374 0 0)
(0.050898375 0 0)
(0.081067372 0 0)
(0.10846084 0 0)
(0.13332263 0 0)
(0.15592614 0 0)
(0.17653152 0 0)
(0.19535975 0 0)
(0.21258585 0 0)
(0.22845732 0 0)
(0.24337594 0 0)
(0.017917685 0 0)
(0.051393039 0 0)
(0.081885556 0 0)
(0.10957239 0 0)
(0.13467559 0 0)
(0.15743972 0 0)
(0.1781186 0 0)
(0.19694177 0 0)
(0.21406947 0 0)
(0.22971459 0 0)
(0.24416268 0 0)
(0.25775005 0 0)
(0.018070545 0 0)
(0.051860115 0 0)
(0.082669921 0 0)
(0.11065496 0 0)
(0.13602246 0 0)
(0.15899453 0 0)
(0.17979945 0 0)
(0.19865884 0 0)
(0.21575907 0 0)
(0.23129719 0 0)
(0.24547362 0 0)
(0.25856189 0 0)
(0.27096454 0 0)
(0.018210756 0 0)
(0.052295092 0 0)
(0.083411211 0 0)
(0.11169282 0 0)
(0.13733621 0 0)
(0.1605479 0 0)
(0.18152554 0 0)
(0.20047357 0 0)
(0.21761312 0 0)
(0.23312637 0 0)
(0.24715826 0 0)
(0.25995711 0 0)
(0.27181811 0 0)
(0.28307321 0 0)
(0.018339729 0 0)
(0.05269917 0 0)
(0.084108072 0 0)
(0.11267832 0 0)
(0.13859985 0 0)
(0.1620676 0 0)
(0.18325808 0 0)
(0.2023528 0 0)
(0.21956348 0 0)
(0.23508552 0 0)
(0.24907149 0 0)
(0.2617195 0 0)
(0.27324754 0 0)
(0.28393963 0 0)
(0.29418213 0 0)
(0.018457175 0 0)
(0.053070799 0 0)
(0.084756098 0 0)
(0.1136042 0 0)
(0.13979909 0 0)
(0.16353038 0 0)
(0.18495891 0 0)
(0.2042404 0 0)
(0.22156633 0 0)
(0.23714172 0 0)
(0.25114777 0 0)
(0.26373984 0 0)
(0.27508033 0 0)
(0.28543166 0 0)
(0.29507646 0 0)
(0.30433858 0 0)
(0.018563796 0 0)
(0.053411525 0 0)
(0.085356994 0 0)
(0.11446947 0 0)
(0.14093006 0 0)
(0.16492413 0 0)
(0.18660077 0 0)
(0.2060978 0 0)
(0.22358324 0 0)
(0.23925016 0 0)
(0.25330271 0 0)
(0.26589459 0 0)
(0.27715789 0 0)
(0.28731184 0 0)
(0.29658071 0 0)
(0.30523716 0 0)
(0.31364321 0 0)
(0.018660176 0 0)
(0.053721502 0 0)
(0.08590929 0 0)
(0.11527122 0 0)
(0.14198527 0 0)
(0.16623711 0 0)
(0.18816855 0 0)
(0.20789795 0 0)
(0.22557415 0 0)
(0.24137874 0 0)
(0.25550654 0 0)
(0.26813272 0 0)
(0.27940443 0 0)
(0.2894678 0 0)
(0.29850375 0 0)
(0.30677978 0 0)
(0.3145554 0 0)
(0.32213283 0 0)
(0.018746558 0 0)
(0.05400251 0 0)
(0.086415627 0 0)
(0.11601132 0 0)
(0.14296746 0 0)
(0.16746825 0 0)
(0.18965044 0 0)
(0.20961909 0 0)
(0.22750949 0 0)
(0.24348574 0 0)
(0.25772616 0 0)
(0.27041567 0 0)
(0.28171904 0 0)
(0.29176234 0 0)
(0.3006891 0 0)
(0.30872861 0 0)
(0.3160944 0 0)
(0.32304059 0 0)
(0.32989879 0 0)
(0.018824575 0 0)
(0.054256579 0 0)
(0.086876385 0 0)
(0.11668994 0 0)
(0.14387254 0 0)
(0.16861123 0 0)
(0.19104106 0 0)
(0.2112521 0 0)
(0.22936342 0 0)
(0.2455342 0 0)
(0.25992498 0 0)
(0.27270345 0 0)
(0.28405758 0 0)
(0.29412942 0 0)
(0.30304372 0 0)
(0.31095754 0 0)
(0.31805934 0 0)
(0.3246005 0 0)
(0.33081022 0 0)
(0.33697149 0 0)
(0.018893481 0 0)
(0.054484217 0 0)
(0.087294006 0 0)
(0.11730993 0 0)
(0.14470658 0 0)
(0.16967092 0 0)
(0.19233771 0 0)
(0.21278658 0 0)
(0.23112586 0 0)
(0.24750501 0 0)
(0.26206978 0 0)
(0.27497765 0 0)
(0.2864084 0 0)
(0.29652502 0 0)
(0.30546033 0 0)
(0.31333111 0 0)
(0.32029093 0 0)
(0.32656693 0 0)
(0.33235169 0 0)
(0.33787287 0 0)
(0.34343293 0 0)
(0.01895543 0 0)
(0.054689343 0 0)
(0.087670872 0 0)
(0.11787319 0 0)
(0.14546697 0 0)
(0.17064347 0 0)
(0.193539 0 0)
(0.21422238 0 0)
(0.23278525 0 0)
(0.24937697 0 0)
(0.26413786 0 0)
(0.27720233 0 0)
(0.28873498 0 0)
(0.29891341 0 0)
(0.30788791 0 0)
(0.31577027 0 0)
(0.32269461 0 0)
(0.32881533 0 0)
(0.33431308 0 0)
(0.33941825 0 0)
(0.34432941 0 0)
(0.3493063 0 0)
(0.019009267 0 0)
(0.054871078 0 0)
(0.088008198 0 0)
(0.11838251 0 0)
(0.14616176 0 0)
(0.17153694 0 0)
(0.19464776 0 0)
(0.21555533 0 0)
(0.23433961 0 0)
(0.25114662 0 0)
(0.26610601 0 0)
(0.27934599 0 0)
(0.29101574 0 0)
(0.30127747 0 0)
(0.31030493 0 0)
(0.31822541 0 0)
(0.32515117 0 0)
(0.33120652 0 0)
(0.33654125 0 0)
(0.34136543 0 0)
(0.34584658 0 0)
(0.35018796 0 0)
(0.35466311 0 0)
(0.019057272 0 0)
(0.05503322 0 0)
(0.088309961 0 0)
(0.11884134 0 0)
(0.14678906 0 0)
(0.1723489 0 0)
(0.1956641 0 0)
(0.21678917 0 0)
(0.23578577 0 0)
(0.25280249 0 0)
(0.26796916 0 0)
(0.28139606 0 0)
(0.29321788 0 0)
(0.30359553 0 0)
(0.31269493 0 0)
(0.32066005 0 0)
(0.32761266 0 0)
(0.33365853 0 0)
(0.33893593 0 0)
(0.34358512 0 0)
(0.34777207 0 0)
(0.35169838 0 0)
(0.35553455 0 0)
(0.35952187 0 0)
(0.019098313 0 0)
(0.055175276 0 0)
(0.088577398 0 0)
(0.11925199 0 0)
(0.14735743 0 0)
(0.17308851 0 0)
(0.19659333 0 0)
(0.21792222 0 0)
(0.23712481 0 0)
(0.25434902 0 0)
(0.26971726 0 0)
(0.28333404 0 0)
(0.2953287 0 0)
(0.30584533 0 0)
(0.31503681 0 0)
(0.32306179 0 0)
(0.3300563 0 0)
(0.33612148 0 0)
(0.34137872 0 0)
(0.345946 0 0)
(0.34995578 0 0)
(0.35359626 0 0)
(0.35700979 0 0)
(0.36037625 0 0)
(0.36394445 0 0)
(0.019134675 0 0)
(0.055301104 0 0)
(0.088814537 0 0)
(0.11961868 0 0)
(0.14786528 0 0)
(0.1737542 0 0)
(0.19743617 0 0)
(0.21896092 0 0)
(0.23835815 0 0)
(0.25577934 0 0)
(0.27135043 0 0)
(0.28516113 0 0)
(0.29732636 0 0)
(0.30799558 0 0)
(0.31731133 0 0)
(0.32541144 0 0)
(0.33245306 0 0)
(0.33855562 0 0)
(0.34382178 0 0)
(0.34836024 0 0)
(0.35229979 0 0)
(0.3557556 0 0)
(0.35887563 0 0)
(0.36183581 0 0)
(0.36478506 0 0)
(0.36794467 0 0)
(0.01916534 0 0)
(0.055410146 0 0)
(0.089022196 0 0)
(0.11994309 0 0)
(0.1483212 0 0)
(0.17435518 0 0)
(0.19819988 0 0)
(0.2199048 0 0)
(0.23948763 0 0)
(0.25710128 0 0)
(0.27286624 0 0)
(0.28686605 0 0)
(0.29921172 0 0)
(0.31004332 0 0)
(0.31949242 0 0)
(0.32769656 0 0)
(0.33480364 0 0)
(0.34094772 0 0)
(0.34624188 0 0)
(0.35078048 0 0)
(0.35468332 0 0)
(0.35805018 0 0)
(0.36099005 0 0)
(0.36366825 0 0)
(0.36620625 0 0)
(0.36876709 0 0)
(0.37157529 0 0)
(0.0191926 0 0)
(0.055505573 0 0)
(0.089204141 0 0)
(0.12022958 0 0)
(0.14872348 0 0)
(0.17489049 0 0)
(0.1988855 0 0)
(0.22076156 0 0)
(0.24051784 0 0)
(0.25831104 0 0)
(0.27426666 0 0)
(0.28845611 0 0)
(0.30097455 0 0)
(0.3119683 0 0)
(0.32157173 0 0)
(0.32989994 0 0)
(0.33708652 0 0)
(0.34327976 0 0)
(0.34860882 0 0)
(0.35316775 0 0)
(0.35706137 0 0)
(0.36038758 0 0)
(0.36325323 0 0)
(0.3657467 0 0)
(0.36800085 0 0)
(0.37016853 0 0)
(0.3723827 0 0)
(0.37484649 0 0)
(0.019215282 0 0)
(0.055586775 0 0)
(0.089361187 0 0)
(0.1204791 0 0)
(0.14908043 0 0)
(0.17536851 0 0)
(0.19950032 0 0)
(0.22153074 0 0)
(0.24145083 0 0)
(0.25941778 0 0)
(0.27555369 0 0)
(0.289924 0 0)
(0.30261815 0 0)
(0.31377874 0 0)
(0.32353079 0 0)
(0.3319934 0 0)
(0.33928851 0 0)
(0.34554522 0 0)
(0.35091335 0 0)
(0.35550499 0 0)
(0.35941062 0 0)
(0.3627215 0 0)
(0.36554355 0 0)
(0.36795145 0 0)
(0.37002975 0 0)
(0.37192548 0 0)
(0.37374476 0 0)
(0.37563646 0 0)
(0.37780374 0 0)
(0.01923627 0 0)
(0.055657088 0 0)
(0.089495953 0 0)
(0.12069586 0 0)
(0.1493903 0 0)
(0.17578888 0 0)
(0.20004602 0 0)
(0.22222138 0 0)
(0.2422927 0 0)
(0.26041956 0 0)
(0.27672945 0 0)
(0.29127953 0 0)
(0.30414006 0 0)
(0.31546033 0 0)
(0.32537263 0 0)
(0.33397931 0 0)
(0.34138906 0 0)
(0.34773164 0 0)
(0.35314911 0 0)
(0.3577708 0 0)
(0.36169988 0 0)
(0.36501595 0 0)
(0.36781742 0 0)
(0.37018287 0 0)
(0.37219412 0 0)
(0.37391353 0 0)
(0.37546211 0 0)
(0.37697656 0 0)
(0.37857904 0 0)
(0.38045326 0 0)
(0.019171653 0 0)
(0.05571638 0 0)
(0.089609703 0 0)
(0.12088047 0 0)
(0.14966068 0 0)
(0.17615877 0 0)
(0.20052925 0 0)
(0.22283255 0 0)
(0.24304519 0 0)
(0.26132584 0 0)
(0.27779892 0 0)
(0.29251759 0 0)
(0.30554335 0 0)
(0.31702606 0 0)
(0.32708912 0 0)
(0.33583818 0 0)
(0.34338152 0 0)
(0.34982802 0 0)
(0.35530739 0 0)
(0.35996463 0 0)
(0.36392038 0 0)
(0.36725405 0 0)
(0.37005293 0 0)
(0.37239606 0 0)
(0.37436737 0 0)
(0.376015 0 0)
(0.37740041 0 0)
(0.37865714 0 0)
(0.37988146 0 0)
(0.38121242 0 0)
(0.38283506 0 0)
(0.019089639 0 0)
(0.055585862 0 0)
(0.089704637 0 0)
(0.12103582 0 0)
(0.14989023 0 0)
(0.17647828 0 0)
(0.20095157 0 0)
(0.22337374 0 0)
(0.24371549 0 0)
(0.26213615 0 0)
(0.27876405 0 0)
(0.29364916 0 0)
(0.30683056 0 0)
(0.31846479 0 0)
(0.32868452 0 0)
(0.33758217 0 0)
(0.34525282 0 0)
(0.35181159 0 0)
(0.35737626 0 0)
(0.36207526 0 0)
(0.36605457 0 0)
(0.36941233 0 0)
(0.37222171 0 0)
(0.37455844 0 0)
(0.37650712 0 0)
(0.37812158 0 0)
(0.37945699 0 0)
(0.38055271 0 0)
(0.38152384 0 0)
(0.38249531 0 0)
(0.38358111 0 0)
(0.38495316 0 0)
(0.019014048 0 0)
(0.055334068 0 0)
(0.089511943 0 0)
(0.12116444 0 0)
(0.15008391 0 0)
(0.1767523 0 0)
(0.20131885 0 0)
(0.22384445 0 0)
(0.24430555 0 0)
(0.2628597 0 0)
(0.27963196 0 0)
(0.29467184 0 0)
(0.30800349 0 0)
(0.31979058 0 0)
(0.3301574 0 0)
(0.3391966 0 0)
(0.34700521 0 0)
(0.35368528 0 0)
(0.35934282 0 0)
(0.36410914 0 0)
(0.36812596 0 0)
(0.37149887 0 0)
(0.37431672 0 0)
(0.37665518 0 0)
(0.37859361 0 0)
(0.38018863 0 0)
(0.38149901 0 0)
(0.38254658 0 0)
(0.38337219 0 0)
(0.38410291 0 0)
(0.38483025 0 0)
(0.38568547 0 0)
(0.38684315 0 0)
(0.018946931 0 0)
(0.05510502 0 0)
(0.089106317 0 0)
(0.12091918 0 0)
(0.15024411 0 0)
(0.17698313 0 0)
(0.20163325 0 0)
(0.22425323 0 0)
(0.24482238 0 0)
(0.26349706 0 0)
(0.28040494 0 0)
(0.29559558 0 0)
(0.30906829 0 0)
(0.32099544 0 0)
(0.331511 0 0)
(0.34069659 0 0)
(0.34863443 0 0)
(0.35543379 0 0)
(0.3612016 0 0)
(0.36604797 0 0)
(0.3701021 0 0)
(0.37349066 0 0)
(0.37632097 0 0)
(0.37866697 0 0)
(0.38060226 0 0)
(0.3821879 0 0)
(0.38348396 0 0)
(0.38451863 0 0)
(0.38532097 0 0)
(0.38591118 0 0)
(0.38640395 0 0)
(0.38691832 0 0)
(0.38756448 0 0)
(0.38850707 0 0)
(0.018887657 0 0)
(0.054899393 0 0)
(0.088736153 0 0)
(0.12037793 0 0)
(0.14995614 0 0)
(0.17717413 0 0)
(0.20189691 0 0)
(0.22460002 0 0)
(0.2452677 0 0)
(0.2640565 0 0)
(0.28109017 0 0)
(0.29642067 0 0)
(0.31002654 0 0)
(0.32209301 0 0)
(0.33274814 0 0)
(0.34207087 0 0)
(0.35014324 0 0)
(0.35706773 0 0)
(0.36294023 0 0)
(0.36787378 0 0)
(0.37199126 0 0)
(0.37541679 0 0)
(0.37826054 0 0)
(0.38060208 0 0)
(0.38252867 0 0)
(0.38410669 0 0)
(0.3853951 0 0)
(0.38642372 0 0)
(0.38722666 0 0)
(0.38780061 0 0)
(0.38817026 0 0)
(0.38846255 0 0)
(0.3887689 0 0)
(0.38921684 0 0)
(0.38997616 0 0)
(0.018837771 0 0)
(0.054719422 0 0)
(0.088404482 0 0)
(0.11988389 0 0)
(0.14930064 0 0)
(0.17685365 0 0)
(0.20211631 0 0)
(0.2248898 0 0)
(0.24564698 0 0)
(0.26453932 0 0)
(0.2816901 0 0)
(0.29715444 0 0)
(0.31088526 0 0)
(0.32307782 0 0)
(0.33387088 0 0)
(0.34333439 0 0)
(0.35153314 0 0)
(0.35857601 0 0)
(0.36456347 0 0)
(0.36959499 0 0)
(0.37378139 0 0)
(0.37724565 0 0)
(0.38010256 0 0)
(0.38244335 0 0)
(0.38436185 0 0)
(0.38593095 0 0)
(0.3872112 0 0)
(0.38823851 0 0)
(0.38904571 0 0)
(0.38963737 0 0)
(0.39001756 0 0)
(0.39019301 0 0)
(0.39028465 0 0)
(0.39040983 0 0)
(0.39067703 0 0)
(0.39125231 0 0)
(0.018796982 0 0)
(0.054566619 0 0)
(0.088113246 0 0)
(0.11943892 0 0)
(0.14870177 0 0)
(0.1761023 0 0)
(0.20176458 0 0)
(0.22512759 0 0)
(0.24596367 0 0)
(0.26495126 0 0)
(0.28221125 0 0)
(0.29779998 0 0)
(0.3116457 0 0)
(0.32396214 0 0)
(0.33488461 0 0)
(0.34447919 0 0)
(0.35280541 0 0)
(0.35997161 0 0)
(0.36606619 0 0)
(0.37119233 0 0)
(0.37545955 0 0)
(0.37897783 0 0)
(0.38185662 0 0)
(0.38420898 0 0)
(0.38612513 0 0)
(0.38767109 0 0)
(0.38893165 0 0)
(0.38995193 0 0)
(0.39076523 0 0)
(0.39137403 0 0)
(0.3917901 0 0)
(0.39198733 0 0)
(0.39197963 0 0)
(0.39190107 0 0)
(0.39184737 0 0)
(0.39194352 0 0)
(0.39236197 0 0)
(0.018766222 0 0)
(0.054442025 0 0)
(0.087866536 0 0)
(0.11904915 0 0)
(0.14816244 0 0)
(0.17541628 0 0)
(0.20093029 0 0)
(0.22474618 0 0)
(0.24622261 0 0)
(0.26529629 0 0)
(0.28265685 0 0)
(0.29836092 0 0)
(0.31231473 0 0)
(0.32474337 0 0)
(0.33579096 0 0)
(0.34551834 0 0)
(0.3539652 0 0)
(0.36124607 0 0)
(0.36745388 0 0)
(0.37268263 0 0)
(0.37703099 0 0)
(0.38060641 0 0)
(0.38351779 0 0)
(0.38587879 0 0)
(0.38778646 0 0)
(0.38931427 0 0)
(0.39055014 0 0)
(0.39155515 0 0)
(0.39236662 0 0)
(0.39299323 0 0)
(0.39344129 0 0)
(0.39369544 0 0)
(0.39373736 0 0)
(0.39356653 0 0)
(0.3933161 0 0)
(0.39310606 0 0)
(0.39304575 0 0)
(0.39330716 0 0)
(0.018745417 0 0)
(0.054347279 0 0)
(0.087664361 0 0)
(0.11871558 0 0)
(0.14768936 0 0)
(0.17479832 0 0)
(0.20016577 0 0)
(0.22383501 0 0)
(0.24582605 0 0)
(0.26557819 0 0)
(0.28302921 0 0)
(0.29884295 0 0)
(0.31289477 0 0)
(0.32543141 0 0)
(0.33659649 0 0)
(0.34644745 0 0)
(0.3550126 0 0)
(0.36241212 0 0)
(0.36872621 0 0)
(0.37405139 0 0)
(0.37848637 0 0)
(0.38213184 0 0)
(0.3850856 0 0)
(0.38745646 0 0)
(0.38935765 0 0)
(0.39088009 0 0)
(0.39209279 0 0)
(0.39306016 0 0)
(0.39385248 0 0)
(0.39448441 0 0)
(0.39496328 0 0)
(0.39526607 0 0)
(0.39538663 0 0)
(0.39527889 0 0)
(0.39495302 0 0)
(0.3945561 0 0)
(0.39419094 0 0)
(0.393983 0 0)
(0.39410916 0 0)
(0.018734656 0 0)
(0.054281924 0 0)
(0.087510909 0 0)
(0.11844407 0 0)
(0.14728472 0 0)
(0.17425563 0 0)
(0.19947791 0 0)
(0.22299966 0 0)
(0.24486015 0 0)
(0.26517543 0 0)
(0.28333756 0 0)
(0.29924403 0 0)
(0.3133894 0 0)
(0.3260262 0 0)
(0.33730312 0 0)
(0.34727663 0 0)
(0.35595459 0 0)
(0.36346369 0 0)
(0.3698869 0 0)
(0.37531531 0 0)
(0.37983653 0 0)
(0.38354922 0 0)
(0.38655076 0 0)
(0.38894549 0 0)
(0.39083846 0 0)
(0.39233994 0 0)
(0.39352965 0 0)
(0.39446319 0 0)
(0.39522183 0 0)
(0.39584393 0 0)
(0.39633855 0 0)
(0.39668881 0 0)
(0.39687624 0 0)
(0.39687107 0 0)
(0.39663548 0 0)
(0.39616948 0 0)
(0.39562361 0 0)
(0.39512281 0 0)
(0.39477905 0 0)
(0.39477013 0 0)
(0.05424793 0 0)
(0.018731627 0 0)
(0.08740443 0 0)
(0.11823365 0 0)
(0.1469546 0 0)
(0.17379236 0 0)
(0.19887197 0 0)
(0.22224648 0 0)
(0.24397444 0 0)
(0.26417191 0 0)
(0.2829331 0 0)
(0.29957496 0 0)
(0.31380395 0 0)
(0.32653354 0 0)
(0.33791696 0 0)
(0.34800491 0 0)
(0.35679119 0 0)
(0.36441212 0 0)
(0.3709387 0 0)
(0.37646379 0 0)
(0.38107374 0 0)
(0.38486308 0 0)
(0.38791979 0 0)
(0.3903407 0 0)
(0.39223556 0 0)
(0.39371486 0 0)
(0.39487317 0 0)
(0.39578364 0 0)
(0.39650345 0 0)
(0.39708516 0 0)
(0.39757354 0 0)
(0.39795199 0 0)
(0.39820462 0 0)
(0.39828561 0 0)
(0.39817653 0 0)
(0.39781461 0 0)
(0.39721477 0 0)
(0.39654102 0 0)
(0.39590516 0 0)
(0.39543354 0 0)
(0.39530706 0 0)
(0.087349081 0 0)
(0.054235632 0 0)
(0.018735755 0 0)
(0.11808956 0 0)
(0.14669878 0 0)
(0.17341283 0 0)
(0.19835462 0 0)
(0.22158269 0 0)
(0.24317393 0 0)
(0.26325146 0 0)
(0.28190811 0 0)
(0.29917299 0 0)
(0.3141406 0 0)
(0.3269585 0 0)
(0.33844154 0 0)
(0.34863896 0 0)
(0.35752922 0 0)
(0.36525393 0 0)
(0.37188393 0 0)
(0.37751098 0 0)
(0.38220974 0 0)
(0.3860729 0 0)
(0.38918583 0 0)
(0.39164582 0 0)
(0.39355156 0 0)
(0.39500887 0 0)
(0.39612691 0 0)
(0.39699632 0 0)
(0.39767586 0 0)
(0.39821258 0 0)
(0.39867028 0 0)
(0.39905714 0 0)
(0.39935337 0 0)
(0.39952033 0 0)
(0.39951777 0 0)
(0.39930761 0 0)
(0.39883687 0 0)
(0.39811462 0 0)
(0.39731042 0 0)
(0.39655569 0 0)
(0.39596575 0 0)
(0.39572251 0 0)
(0.11800913 0 0)
(0.087328679 0 0)
(0.054247144 0 0)
(0.018750394 0 0)
(0.1465227 0 0)
(0.17312065 0 0)
(0.19792995 0 0)
(0.2210142 0 0)
(0.2424674 0 0)
(0.26241734 0 0)
(0.28096367 0 0)
(0.29813478 0 0)
(0.31374789 0 0)
(0.32730292 0 0)
(0.33887858 0 0)
(0.34918141 0 0)
(0.35817005 0 0)
(0.36599826 0 0)
(0.37272706 0 0)
(0.37844978 0 0)
(0.38323753 0 0)
(0.38718152 0 0)
(0.39035819 0 0)
(0.39285546 0 0)
(0.39477753 0 0)
(0.39622624 0 0)
(0.39730341 0 0)
(0.39811865 0 0)
(0.39875 0 0)
(0.39924995 0 0)
(0.39966157 0 0)
(0.40001763 0 0)
(0.40033265 0 0)
(0.40056012 0 0)
(0.40066513 0 0)
(0.40058251 0 0)
(0.40028791 0 0)
(0.3997064 0 0)
(0.39886712 0 0)
(0.39795056 0 0)
(0.39707745 0 0)
(0.39637618 0 0)
(0.39602977 0 0)
(0.14642403 0 0)
(0.11797988 0 0)
(0.087347231 0 0)
(0.054287123 0 0)
(0.018774005 0 0)
(0.172917 0 0)
(0.1976017 0 0)
(0.22054714 0 0)
(0.24186129 0 0)
(0.26168001 0 0)
(0.28010877 0 0)
(0.29717454 0 0)
(0.31270775 0 0)
(0.32692221 0 0)
(0.3392381 0 0)
(0.34963241 0 0)
(0.3587169 0 0)
(0.36664421 0 0)
(0.37346989 0 0)
(0.37929143 0 0)
(0.38416844 0 0)
(0.38819099 0 0)
(0.39143064 0 0)
(0.39397605 0 0)
(0.39592265 0 0)
(0.39736531 0 0)
(0.39841002 0 0)
(0.39916759 0 0)
(0.39973204 0 0)
(0.40017362 0 0)
(0.40053499 0 0)
(0.40084631 0 0)
(0.40114642 0 0)
(0.40141197 0 0)
(0.40159661 0 0)
(0.40164557 0 0)
(0.40149981 0 0)
(0.40111864 0 0)
(0.40044167 0 0)
(0.39949436 0 0)
(0.39846283 0 0)
(0.39748508 0 0)
(0.39668005 0 0)
(0.39623164 0 0)
(0.17280522 0 0)
(0.14638661 0 0)
(0.11799738 0 0)
(0.087413435 0 0)
(0.054358396 0 0)
(0.018807868 0 0)
(0.19737281 0 0)
(0.22018406 0 0)
(0.24136133 0 0)
(0.26104549 0 0)
(0.27935014 0 0)
(0.29630451 0 0)
(0.31174898 0 0)
(0.32589265 0 0)
(0.33887027 0 0)
(0.35000286 0 0)
(0.35917543 0 0)
(0.36719614 0 0)
(0.37411732 0 0)
(0.38003223 0 0)
(0.38499718 0 0)
(0.38910254 0 0)
(0.3924125 0 0)
(0.39500476 0 0)
(0.39697834 0 0)
(0.39842851 0 0)
(0.39944976 0 0)
(0.40015062 0 0)
(0.40064086 0 0)
(0.4010072 0 0)
(0.40130302 0 0)
(0.40157077 0 0)
(0.40183031 0 0)
(0.40208768 0 0)
(0.40232684 0 0)
(0.40247557 0 0)
(0.40248578 0 0)
(0.40227595 0 0)
(0.40182122 0 0)
(0.40104462 0 0)
(0.3999945 0 0)
(0.39886303 0 0)
(0.39778095 0 0)
(0.39687825 0 0)
(0.39633861 0 0)
(0.19724459 0 0)
(0.17275977 0 0)
(0.14640636 0 0)
(0.1180827 0 0)
(0.087530198 0 0)
(0.054456228 0 0)
(0.018849748 0 0)
(0.21992989 0 0)
(0.24097228 0 0)
(0.26052011 0 0)
(0.27869632 0 0)
(0.2955297 0 0)
(0.31087481 0 0)
(0.32494398 0 0)
(0.33786243 0 0)
(0.34965362 0 0)
(0.35954609 0 0)
(0.36765863 0 0)
(0.37467161 0 0)
(0.38068011 0 0)
(0.38573318 0 0)
(0.38991985 0 0)
(0.39329812 0 0)
(0.39594566 0 0)
(0.3979554 0 0)
(0.39941323 0 0)
(0.40041718 0 0)
(0.40107357 0 0)
(0.40148726 0 0)
(0.40176367 0 0)
(0.40197639 0 0)
(0.40217347 0 0)
(0.40238181 0 0)
(0.40260715 0 0)
(0.40285917 0 0)
(0.40308566 0 0)
(0.40321732 0 0)
(0.40318992 0 0)
(0.40292803 0 0)
(0.40239475 0 0)
(0.40153236 0 0)
(0.40038636 0 0)
(0.3991528 0 0)
(0.39797737 0 0)
(0.39698304 0 0)
(0.39635383 0 0)
(0.21978445 0 0)
(0.19719206 0 0)
(0.1727835 0 0)
(0.14650765 0 0)
(0.11823037 0 0)
(0.087692471 0 0)
(0.054583846 0 0)
(0.018901277 0 0)
(0.24069678 0 0)
(0.26010926 0 0)
(0.27815331 0 0)
(0.29486122 0 0)
(0.3100984 0 0)
(0.32407616 0 0)
(0.33692699 0 0)
(0.34867427 0 0)
(0.35922736 0 0)
(0.36803032 0 0)
(0.37513325 0 0)
(0.38123488 0 0)
(0.38637351 0 0)
(0.39064317 0 0)
(0.39409595 0 0)
(0.39679829 0 0)
(0.39884534 0 0)
(0.40032309 0 0)
(0.40131884 0 0)
(0.40193442 0 0)
(0.4022805 0 0)
(0.40246476 0 0)
(0.40257661 0 0)
(0.4026817 0 0)
(0.40281624 0 0)
(0.40300341 0 0)
(0.40323261 0 0)
(0.40348426 0 0)
(0.40371471 0 0)
(0.40383069 0 0)
(0.40377762 0 0)
(0.40345986 0 0)
(0.40285876 0 0)
(0.40190531 0 0)
(0.40066812 0 0)
(0.39934497 0 0)
(0.39807671 0 0)
(0.39699591 0 0)
(0.39628544 0 0)
(0.24053794 0 0)
(0.21972228 0 0)
(0.19721354 0 0)
(0.17289602 0 0)
(0.14668425 0 0)
(0.11844286 0 0)
(0.08790199 0 0)
(0.054734061 0 0)
(0.018959204 0 0)
(0.25981458 0 0)
(0.27772568 0 0)
(0.29430403 0 0)
(0.30942558 0 0)
(0.32330597 0 0)
(0.33607536 0 0)
(0.34776103 0 0)
(0.35828855 0 0)
(0.36774042 0 0)
(0.37551027 0 0)
(0.38169743 0 0)
(0.38692335 0 0)
(0.39127637 0 0)
(0.39480135 0 0)
(0.39756487 0 0)
(0.3996583 0 0)
(0.40115739 0 0)
(0.40214944 0 0)
(0.40273762 0 0)
(0.40302515 0 0)
(0.40311784 0 0)
(0.40311949 0 0)
(0.40311372 0 0)
(0.40315004 0 0)
(0.40326263 0 0)
(0.4034534 0 0)
(0.40369786 0 0)
(0.40397859 0 0)
(0.40421935 0 0)
(0.40433235 0 0)
(0.40425137 0 0)
(0.40388622 0 0)
(0.40321092 0 0)
(0.40217886 0 0)
(0.40085563 0 0)
(0.399441 0 0)
(0.398089 0 0)
(0.39692654 0 0)
(0.39613702 0 0)
(0.25964136 0 0)
(0.24046446 0 0)
(0.21974087 0 0)
(0.19733699 0 0)
(0.17309968 0 0)
(0.14693889 0 0)
(0.11871353 0 0)
(0.088154399 0 0)
(0.054911323 0 0)
(0.019025601 0 0)
(0.27741822 0 0)
(0.29386367 0 0)
(0.30886624 0 0)
(0.32263611 0 0)
(0.33531388 0 0)
(0.34692943 0 0)
(0.35741597 0 0)
(0.36685128 0 0)
(0.3752467 0 0)
(0.38207606 0 0)
(0.3873851 0 0)
(0.3918201 0 0)
(0.39542123 0 0)
(0.39824608 0 0)
(0.40038621 0 0)
(0.4019172 0 0)
(0.40291597 0 0)
(0.40347902 0 0)
(0.40371495 0 0)
(0.40372767 0 0)
(0.40361789 0 0)
(0.40348828 0 0)
(0.40340853 0 0)
(0.40341991 0 0)
(0.40353899 0 0)
(0.40376312 0 0)
(0.40405068 0 0)
(0.40435882 0 0)
(0.40462077 0 0)
(0.40472805 0 0)
(0.40462691 0 0)
(0.40420923 0 0)
(0.40346877 0 0)
(0.40235318 0 0)
(0.40094795 0 0)
(0.39945146 0 0)
(0.39801618 0 0)
(0.39677681 0 0)
(0.39591469 0 0)
(0.27723157 0 0)
(0.25955466 0 0)
(0.24047833 0 0)
(0.21987117 0 0)
(0.19755765 0 0)
(0.17338738 0 0)
(0.14726392 0 0)
(0.1190433 0 0)
(0.08844806 0 0)
(0.055107428 0 0)
(0.01909697 0 0)
(0.29354517 0 0)
(0.30842365 0 0)
(0.32207909 0 0)
(0.33465493 0 0)
(0.34618262 0 0)
(0.35661247 0 0)
(0.36602323 0 0)
(0.37441479 0 0)
(0.38184245 0 0)
(0.38775842 0 0)
(0.39227434 0 0)
(0.39595253 0 0)
(0.39884251 0 0)
(0.40103738 0 0)
(0.40260292 0 0)
(0.40361252 0 0)
(0.40416356 0 0)
(0.40435815 0 0)
(0.40429598 0 0)
(0.40408265 0 0)
(0.40382452 0 0)
(0.40360869 0 0)
(0.40349573 0 0)
(0.40351349 0 0)
(0.40367294 0 0)
(0.40394649 0 0)
(0.40428234 0 0)
(0.40463864 0 0)
(0.40492202 0 0)
(0.4050312 0 0)
(0.40490569 0 0)
(0.40444134 0 0)
(0.40362959 0 0)
(0.4024413 0 0)
(0.4009577 0 0)
(0.3993782 0 0)
(0.39786672 0 0)
(0.39655428 0 0)
(0.39562203 0 0)
(0.29334809 0 0)
(0.27713609 0 0)
(0.25955939 0 0)
(0.24060706 0 0)
(0.22010773 0 0)
(0.19787601 0 0)
(0.17376081 0 0)
(0.14766038 0 0)
(0.11942581 0 0)
(0.088779324 0 0)
(0.055327437 0 0)
(0.019151739 0 0)
(0.3081032 0 0)
(0.32163647 0 0)
(0.33410285 0 0)
(0.34553637 0 0)
(0.35589374 0 0)
(0.36525595 0 0)
(0.3736317 0 0)
(0.38106807 0 0)
(0.38756333 0 0)
(0.39264438 0 0)
(0.39639611 0 0)
(0.39935443 0 0)
(0.40160577 0 0)
(0.40321376 0 0)
(0.40424472 0 0)
(0.40478768 0 0)
(0.40494752 0 0)
(0.40482455 0 0)
(0.40451715 0 0)
(0.40413209 0 0)
(0.40377172 0 0)
(0.4035152 0 0)
(0.40340539 0 0)
(0.40346538 0 0)
(0.40368404 0 0)
(0.40402913 0 0)
(0.4044312 0 0)
(0.40482876 0 0)
(0.40513959 0 0)
(0.40524522 0 0)
(0.40509999 0 0)
(0.40458384 0 0)
(0.40370836 0 0)
(0.40244389 0 0)
(0.40088441 0 0)
(0.39922927 0 0)
(0.39764301 0 0)
(0.39626124 0 0)
(0.39524814 0 0)
(0.3079068 0 0)
(0.29324412 0 0)
(0.27712863 0 0)
(0.2596818 0 0)
(0.24085146 0 0)
(0.22045095 0 0)
(0.19828389 0 0)
(0.17421003 0 0)
(0.14811939 0 0)
(0.11985802 0 0)
(0.089144654 0 0)
(0.055425937 0 0)
(0.019120471 0 0)
(0.32131575 0 0)
(0.33366659 0 0)
(0.34499294 0 0)
(0.35526548 0 0)
(0.36456848 0 0)
(0.37290867 0 0)
(0.38033491 0 0)
(0.38685065 0 0)
(0.39248267 0 0)
(0.39675648 0 0)
(0.39978327 0 0)
(0.40209483 0 0)
(0.40375034 0 0)
(0.40480637 0 0)
(0.40535325 0 0)
(0.40549056 0 0)
(0.40531184 0 0)
(0.4049187 0 0)
(0.4044175 0 0)
(0.4039098 0 0)
(0.40349403 0 0)
(0.40323543 0 0)
(0.40316755 0 0)
(0.40329388 0 0)
(0.40359656 0 0)
(0.40401984 0 0)
(0.40448807 0 0)
(0.40494031 0 0)
(0.40527481 0 0)
(0.4053807 0 0)
(0.40521071 0 0)
(0.40464686 0 0)
(0.40370471 0 0)
(0.40237104 0 0)
(0.4007377 0 0)
(0.39900718 0 0)
(0.39735094 0 0)
(0.39588281 0 0)
(0.39478525 0 0)
(0.32111769 0 0)
(0.30780085 0 0)
(0.29322814 0 0)
(0.27724634 0 0)
(0.25992586 0 0)
(0.24120515 0 0)
(0.22089408 0 0)
(0.19878169 0 0)
(0.17473499 0 0)
(0.14863835 0 0)
(0.12033641 0 0)
(0.089297793 0 0)
(0.055337892 0 0)
(0.01908699 0 0)
(0.33334789 0 0)
(0.34456261 0 0)
(0.3547398 0 0)
(0.36396412 0 0)
(0.37225437 0 0)
(0.37965724 0 0)
(0.3861782 0 0)
(0.3918451 0 0)
(0.39663094 0 0)
(0.40012823 0 0)
(0.40250413 0 0)
(0.40421139 0 0)
(0.40530174 0 0)
(0.40585788 0 0)
(0.40597938 0 0)
(0.40575933 0 0)
(0.40529198 0 0)
(0.40468148 0 0)
(0.40403512 0 0)
(0.40345556 0 0)
(0.40302743 0 0)
(0.4028059 0 0)
(0.40280732 0 0)
(0.40302774 0 0)
(0.4034243 0 0)
(0.40393951 0 0)
(0.40448301 0 0)
(0.40497962 0 0)
(0.40534009 0 0)
(0.40543957 0 0)
(0.40524704 0 0)
(0.40463157 0 0)
(0.40362829 0 0)
(0.40222445 0 0)
(0.40051887 0 0)
(0.39871731 0 0)
(0.39696488 0 0)
(0.39541315 0 0)
(0.39424399 0 0)
(0.33315194 0 0)
(0.3210102 0 0)
(0.3077869 0 0)
(0.29334058 0 0)
(0.27748198 0 0)
(0.26028132 0 0)
(0.24166744 0 0)
(0.22143429 0 0)
(0.19935846 0 0)
(0.17532534 0 0)
(0.14921234 0 0)
(0.12052161 0 0)
(0.089162221 0 0)
(0.055237311 0 0)
(0.019047704 0 0)
(0.34424703 0 0)
(0.35431969 0 0)
(0.36345709 0 0)
(0.37168131 0 0)
(0.37904082 0 0)
(0.3855482 0 0)
(0.39123444 0 0)
(0.39607322 0 0)
(0.40004359 0 0)
(0.40283062 0 0)
(0.40459394 0 0)
(0.40572572 0 0)
(0.4063012 0 0)
(0.40641921 0 0)
(0.40616519 0 0)
(0.40563268 0 0)
(0.40492753 0 0)
(0.40415308 0 0)
(0.40341172 0 0)
(0.4028022 0 0)
(0.40240307 0 0)
(0.4022502 0 0)
(0.40235133 0 0)
(0.40267946 0 0)
(0.40318589 0 0)
(0.40379234 0 0)
(0.40440719 0 0)
(0.40495559 0 0)
(0.40533581 0 0)
(0.40542991 0 0)
(0.40520978 0 0)
(0.40454542 0 0)
(0.40348097 0 0)
(0.40200945 0 0)
(0.40023354 0 0)
(0.39832454 0 0)
(0.39648315 0 0)
(0.39486631 0 0)
(0.39362593 0 0)
(0.34405098 0 0)
(0.33304448 0 0)
(0.32099401 0 0)
(0.30789667 0 0)
(0.29357225 0 0)
(0.27783839 0 0)
(0.26075128 0 0)
(0.24222894 0 0)
(0.2220632 0 0)
(0.200011 0 0)
(0.17597935 0 0)
(0.14942224 0 0)
(0.1203376 0 0)
(0.089005405 0 0)
(0.055126234 0 0)
(0.019005027 0 0)
(0.35401248 0 0)
(0.36304939 0 0)
(0.37119576 0 0)
(0.37850001 0 0)
(0.38497716 0 0)
(0.390661 0 0)
(0.39553067 0 0)
(0.39956711 0 0)
(0.40278558 0 0)
(0.40489969 0 0)
(0.40607575 0 0)
(0.40667973 0 0)
(0.40680282 0 0)
(0.40652834 0 0)
(0.40594426 0 0)
(0.40515169 0 0)
(0.40425863 0 0)
(0.40336607 0 0)
(0.40257257 0 0)
(0.40198003 0 0)
(0.40164949 0 0)
(0.40160011 0 0)
(0.40181898 0 0)
(0.4022727 0 0)
(0.40288987 0 0)
(0.40359454 0 0)
(0.40428319 0 0)
(0.40487145 0 0)
(0.40527082 0 0)
(0.40535293 0 0)
(0.40510518 0 0)
(0.40439012 0 0)
(0.40326617 0 0)
(0.40173001 0 0)
(0.39983713 0 0)
(0.39782841 0 0)
(0.39592574 0 0)
(0.39424215 0 0)
(0.39292911 0 0)
(0.3538193 0 0)
(0.34394198 0 0)
(0.3330262 0 0)
(0.321101 0 0)
(0.30813097 0 0)
(0.2939279 0 0)
(0.27830527 0 0)
(0.2613224 0 0)
(0.24288585 0 0)
(0.22277309 0 0)
(0.20073265 0 0)
(0.17620769 0 0)
(0.14918963 0 0)
(0.12012502 0 0)
(0.088824457 0 0)
(0.055001868 0 0)
(0.018956585 0 0)
(0.36274939 0 0)
(0.37080693 0 0)
(0.37804011 0 0)
(0.38447089 0 0)
(0.39013504 0 0)
(0.39501771 0 0)
(0.39909988 0 0)
(0.40239527 0 0)
(0.40489047 0 0)
(0.40635379 0 0)
(0.40699244 0 0)
(0.40713039 0 0)
(0.40684627 0 0)
(0.40622073 0 0)
(0.40535671 0 0)
(0.40435833 0 0)
(0.40332435 0 0)
(0.40235617 0 0)
(0.40156121 0 0)
(0.40102748 0 0)
(0.40079914 0 0)
(0.40087409 0 0)
(0.40123121 0 0)
(0.4018146 0 0)
(0.40255079 0 0)
(0.40334732 0 0)
(0.40410314 0 0)
(0.4047339 0 0)
(0.40514518 0 0)
(0.40521422 0 0)
(0.4049345 0 0)
(0.40416864 0 0)
(0.40298897 0 0)
(0.40133475 0 0)
(0.3993306 0 0)
(0.39725935 0 0)
(0.39529208 0 0)
(0.39354013 0 0)
(0.3921559 0 0)
(0.3625583 0 0)
(0.35370964 0 0)
(0.34391948 0 0)
(0.33313088 0 0)
(0.32133186 0 0)
(0.30848285 0 0)
(0.29439484 0 0)
(0.27888334 0 0)
(0.26199433 0 0)
(0.24362822 0 0)
(0.22355929 0 0)
(0.20097537 0 0)
(0.17592748 0 0)
(0.14892159 0 0)
(0.11988322 0 0)
(0.08861746 0 0)
(0.054863928 0 0)
(0.018903748 0 0)
(0.3705175 0 0)
(0.37766933 0 0)
(0.3840415 0 0)
(0.38966806 0 0)
(0.39454134 0 0)
(0.39864946 0 0)
(0.40200632 0 0)
(0.40459485 0 0)
(0.40638103 0 0)
(0.40723523 0 0)
(0.40739909 0 0)
(0.40711607 0 0)
(0.40646321 0 0)
(0.4055377 0 0)
(0.40444498 0 0)
(0.40328514 0 0)
(0.40215449 0 0)
(0.40116064 0 0)
(0.40041036 0 0)
(0.39997691 0 0)
(0.39987682 0 0)
(0.40009866 0 0)
(0.40060079 0 0)
(0.40132311 0 0)
(0.40217252 0 0)
(0.40306256 0 0)
(0.40388307 0 0)
(0.40454444 0 0)
(0.40496454 0 0)
(0.40501517 0 0)
(0.40469997 0 0)
(0.40388512 0 0)
(0.40259711 0 0)
(0.40082892 0 0)
(0.39875401 0 0)
(0.39661546 0 0)
(0.39458227 0 0)
(0.39276096 0 0)
(0.39130317 0 0)
(0.37033279 0 0)
(0.36244696 0 0)
(0.35368412 0 0)
(0.34401857 0 0)
(0.33335456 0 0)
(0.32167871 0 0)
(0.30895173 0 0)
(0.2949755 0 0)
(0.27955966 0 0)
(0.26275297 0 0)
(0.24445074 0 0)
(0.223819 0 0)
(0.2006549 0 0)
(0.1756068 0 0)
(0.14861758 0 0)
(0.11960715 0 0)
(0.088383779 0 0)
(0.054711487 0 0)
(0.018845066 0 0)
(0.37739277 0 0)
(0.38369304 0 0)
(0.38926796 0 0)
(0.3941166 0 0)
(0.39822938 0 0)
(0.40162207 0 0)
(0.40428534 0 0)
(0.40618323 0 0)
(0.40730118 0 0)
(0.40760199 0 0)
(0.40733181 0 0)
(0.40666527 0 0)
(0.40569371 0 0)
(0.40452248 0 0)
(0.40324755 0 0)
(0.40196706 0 0)
(0.4007858 0 0)
(0.39981365 0 0)
(0.39915448 0 0)
(0.3988532 0 0)
(0.39890656 0 0)
(0.39928549 0 0)
(0.39994367 0 0)
(0.40080104 0 0)
(0.40176581 0 0)
(0.40273932 0 0)
(0.4036164 0 0)
(0.40430756 0 0)
(0.40472938 0 0)
(0.40475728 0 0)
(0.40440483 0 0)
(0.40349672 0 0)
(0.40209821 0 0)
(0.40025293 0 0)
(0.39810449 0 0)
(0.39589825 0 0)
(0.39379591 0 0)
(0.39190335 0 0)
(0.39037436 0 0)
(0.37721225 0 0)
(0.37022298 0 0)