/*--------------------------------*- C++ -*----------------------------------*\
| =========                 |                                                 |
| \\      /  F ield         | OpenFOAM: The Open Source CFD Toolbox           |
|  \\    /   O peration     | Version:  v2012                                 |
|   \\  /    A nd           | Website:  www.openfoam.com                      |
|    \\/     M anipulation  |                                                 |
\*---------------------------------------------------------------------------*/
FoamFile
{
    version     2.0;
    format      ascii;
    class       surfaceScalarField;
    location    "62.4493107631428899";
    object      meshPhi;
}
// * * * * * * * * * * * * * * * * * * * * * * * * * * * * * * * * * * * * * //

dimensions      [0 3 -1 0 0 0 0];
oriented        oriented;


internalField   nonuniform List<scalar> 
18180
(
0
0.069134436
0
0.064443247
0
0.13141854
0
0.060213493
0
0.12203228
0
0.18739694
-5.3476295e-14
0.055997197
-1.0320905e-13
0.11292534
0
0.17332381
-9.6121265e-14
0.23922716
-3.009575e-17
0.052095118
5.1566617e-14
0.10507817
0
0.16035602
0
0.22154867
0
0.2878654
-5.3413767e-14
0.048609321
-2.6693153e-17
0.098217839
0
0.14918096
-4.5002053e-17
0.20504572
0
0.26741119
0
0.33413991
0
0.045390245
5.156567e-14
0.091921233
-2.4079516e-17
0.1395996
-4.8017932e-14
0.19081458
0
0.24809458
0
0.31104079
0
0.37729811
0
0.04244183
0
0.086119299
0
0.13109796
9.6039305e-14
0.17860934
0
0.23095488
0
0.28919594
0
0.35179259
8.3304624e-14
0.41730013
5.3362512e-14
0.039724947
0
0.080670296
-2.4646745e-17
0.12318235
0
0.16773974
9.2676132e-14
0.21581576
0
0.26919541
0
0.32756446
0
0.38945885
0
0.45398332
-5.3346397e-14
0.037218085
-5.1520923e-14
0.075541728
0
0.1156775
4.7986045e-14
0.1577371
2.1312962e-17
0.20225949
-4.4725432e-14
0.25114004
-4.3185439e-14
0.30506657
0
0.36303755
0
0.42406047
0
0.48808224
0
0.034896597
5.1479547e-14
0.070717361
0
0.10852926
0
0.14838088
9.2616753e-14
0.19007706
4.4697153e-14
0.23500488
4.3120645e-14
0.28450204
8.3291031e-14
0.33831567
0
0.39561459
0
0.45609549
0
0.51942845
0
0.032743499
0
0.066184714
-4.9709378e-14
0.10172736
0
0.13951847
-4.629808e-14
0.17887564
4.4688766e-14
0.22051277
0
0.26600144
-4.1648233e-14
0.31569242
4.0179539e-14
0.3690221
0
0.42582755
0
0.48562875
7.2230552e-14
0.54833519
2.6666956e-14
0.030740513
0
0.06192748
0
0.095276585
0
0.13107976
-9.259732e-14
0.16837267
-8.9379982e-14
0.20739767
4.3125534e-14
0.24954535
-4.1623899e-14
0.29532195
-8.0381209e-14
0.34461929
0
0.39753056
7.48414e-14
0.45371575
0
0.51285583
-6.9720637e-14
0.57472195
0
0.028868578
2.5733997e-14
0.057929282
0
0.089172826
0
0.12305765
4.6277449e-14
0.15844138
0
0.19527988
0
0.23464917
8.3235247e-14
0.27701335
0
0.32249233
0
0.37145388
-3.7430603e-14
0.4238451
0
0.47945044
0
0.53783517
6.7250954e-14
0.59914729
2.6624537e-14
0.027108292
0
0.05417044
0
0.08340735
0
0.11545183
0
0.14900365
0
0.18383754
0
0.22085219
0
0.26038257
-1.6833616e-17
0.3024702
0
0.34764923
-1.4397103e-17
0.39625886
0
0.4481662
-2.4115145e-17
0.50312876
0
0.56093054
6.4889063e-14
0.621445
2.6650159e-14
0.025448236
-1.3269321e-17
0.050637046
0
0.077971881
0
0.10825999
0
0.14004949
0
0.17297574
0
0.20790493
0
0.24506045
0
0.28424674
3.8758613e-14
0.32610937
3.7421826e-14
0.37112042
-1.3371862e-17
0.4192541
-1.2229407e-17
0.47062341
6.7243768e-14
0.52508538
0
0.58210363
6.2608277e-14
0.64194639
0
0.023880718
2.5718343e-14
0.047319141
-2.4827412e-14
0.072860419
4.7922514e-14
0.10147516
1.1606736e-17
0.13157338
0
0.16265098
0
0.19563381
0
0.23075925
0
0.26756335
0
0.30657344
3.7402936e-14
0.34835989
0
0.39287259
3.4837644e-14
0.44053434
3.363081e-14
0.49150279
6.4883584e-14
0.54529404
0
0.60157343
6.0406029e-14
0.66054211
0
0.022396768
0
0.044208441
-2.4822995e-14
0.068064931
2.3937995e-14
0.095089543
0
0.12357003
2.2328844e-14
0.15285581
0
0.18395623
-4.1609366e-14
0.21725309
4.0145534e-14
0.25206404
0
0.28859898
0
0.32764624
3.6108275e-14
0.36911121
-3.483431e-14
0.41309853
3.3616796e-14
0.46034836
0
0.51079594
-6.2623513e-14
0.5639293
0
0.61934744
5.8279555e-14
0.67767944
2.6637565e-14
0.020988403
2.5709943e-14
0.041294754
-2.4818925e-14
0.063576039
-2.3946582e-14
0.089092167
2.3116388e-14
0.11602775
0
0.14358479
0
0.17284889
0
0.20441149
0
0.2374672
0
0.27192423
0
0.30861913
0
0.34753635
0
0.38841376
0
0.43191837
-1.0759882e-17
0.4787654
-3.1300956e-14
0.52866736
0
0.58103922
0
0.63571414
5.622627e-14
0.69319569
-2.6634181e-14
0.019649072
5.139966e-14
0.038568346
-2.4802689e-14
0.059383964
-4.7898588e-14
0.083468215
-2.3112701e-14
0.10893179
-1.065852e-17
0.13483199
-2.1546316e-14
0.1623031
-2.0788661e-14
0.19217978
4.015154e-14
0.22362029
0
0.25628834
-3.7406207e-14
0.29087731
0
0.32754761
0
0.36598561
3.3611709e-14
0.40637943
3.2447016e-14
0.44951064
-1.0025575e-17
0.49590039
0
0.54519909
0
0.59685176
0
0.65062118
0
0.70741498
0
0.018374908
0
0.036019631
0
0.055477342
1.309075e-17
0.078201538
0
0.10226391
-2.2307616e-14
0.12658263
2.1533185e-14
0.15231274
-2.0795242e-14
0.18054476
2.0073045e-14
0.21042947
0
0.24145307
0
0.27417855
-3.6099222e-14
0.30881507
0
0.34514854
0
0.38316887
0
0.42322645
-3.1298329e-14
0.46595143
-9.4033078e-18
0.51189227
2.9147489e-14
0.56055879
-5.6241385e-14
0.61135008
0
0.66427969
5.2329951e-14
0.72020929
0
0.017167677
0
0.033638572
-1.2527775e-17
0.051843803
0
0.073273552
-4.6212248e-14
0.096001189
0
0.11881862
4.3070148e-14
0.14286741
-2.0792353e-14
0.16949918
-9.2332831e-18
0.19787217
1.9372885e-14
0.22733263
0
0.258388
0
0.2911987
3.4823753e-14
0.32557575
0
0.36162636
0
0.39942435
0
0.43910192
0
0.48142966
-8.8087478e-18
0.52683351
0
0.57475253
0
0.62468602
0
0.67667442
0
0.73195364
7.7461041e-18
0.016028319
0
0.031416234
0
0.048468637
-2.3933266e-14
0.068666717
2.3115758e-14
0.090120133
0
0.11151808
2.1527346e-14
0.13395644
-4.1569435e-14
0.15903703
0
0.18593881
1.9362087e-14
0.2138764
1.8697092e-14
0.24338235
0
0.27458719
0
0.30718966
3.3606082e-14
0.34140206
0
0.37732351
0
0.41477118
0
0.45409823
2.9147904e-14
0.49596783
-2.813018e-14
0.54076266
2.7130352e-14
0.5878645
0
0.6368767
0
0.68803117
4.8698475e-14
0.74249392
1.3304282e-14
0.014955903
1.285404e-14
0.029343319
0
0.04533073
0
0.064360656
-2.3113244e-14
0.08459737
0
0.10466154
0
0.12556961
-2.078705e-14
0.14915142
4.0121664e-14
0.17462391
0
0.20106817
1.8687049e-14
0.22908176
-1.8037157e-14
0.25883696
0
0.28986562
0
0.32227751
0
0.35645169
0
0.39216354
0
0.42930224
-2.9148281e-14
0.46824178
-2.8114117e-14
0.50959451
-7.6481858e-18
0.55366843
2.6166843e-14
0.59994649
0
0.64807361
0
0.69830294
4.6976672e-14
0.75211974
1.3311097e-14
0.013948719
1.2840131e-14
0.027410502
6.3356281e-18
0.042410177
0
0.060334183
0
0.079410687
-2.2307483e-14
0.098224813
-2.1531943e-14
0.11769017
2.0784651e-14
0.13983293
0
0.16391952
0
0.18890027
0
0.21545352
0
0.24384439
-1.7407864e-14
0.27346162
0
0.30421848
-6.4870999e-14
0.33666244
3.1294872e-14
0.37074087
0
0.40615408
0
0.44299619
0
0.48151856
0
0.52224873
-2.6182137e-14
0.56562723
-2.524361e-14
0.61105329
4.8701776e-14
0.65826911
0
0.70766544
0
0.76071257
7.6830448e-18
0.013005758
0
0.025608812
0
0.039691197
6.8777428e-18
0.05656655
0
0.074536583
2.2305336e-14
0.092180108
0
0.11029568
-2.0782423e-14
0.13106307
0
0.1538112
0
0.17736701
0
0.20248593
-8.0500857e-18
0.22954702
-1.7413993e-14
0.25786896
-1.6800233e-14
0.28714853
0
0.31785108
0
0.35021093
3.0187821e-14
0.38407457
0
0.41930426
2.8124693e-14
0.45586402
-8.3381655e-18
0.4938732
-2.6169275e-14
0.53398502
-6.5136129e-18
0.57660704
4.871012e-14
0.62121809
0
0.66758078
0
0.71611076
4.3710635e-14
0.76858939
-1.3309619e-14
0.012125588
0
0.023929943
0
0.037159569
1.195514e-14
0.053041432
6.500996e-18
0.069954791
2.2292564e-14
0.086500906
0
0.10335905
0
0.12281733
-2.0049545e-14
0.14427939
0
0.16645603
0
0.1901705
0
0.21592637
1.7405122e-14
0.24299878
-1.6806174e-14
0.27091574
-1.6213438e-14
0.29999222
3.1306035e-14
0.33055862
0
0.36276625
0
0.39655638
0
0.4316593
0
0.46785322
-2.6178576e-14
0.50532735
0
0.54476959
0
0.58668787
-2.3496875e-14
0.63050119
0
0.67604535
0
0.72381488
4.2162635e-14
0.77564931
-7.6382927e-18
0.011305588
-6.4909813e-18
0.022368519
0
0.034800772
-1.1961225e-14
0.049742284
-6.5409586e-18
0.065646905
-1.1145404e-14
0.081162429
0
0.096858181
0
0.11507169
0
0.1352993
0
0.1561516
-1.8679631e-14
0.1784997
-1.8038874e-14
0.20297269
0
0.22881936
1.6798183e-14
0.25544819
0
0.28305075
-1.5646896e-14
0.31188029
0
0.34226118
0
0.37452724
-2.812727e-14
0.40837556
0
0.44322961
-2.6180644e-14
0.47898783
2.5248688e-14
0.51587458
2.4362127e-14
0.55466211
2.3493551e-14
0.59587732
-2.2661001e-14
0.63899273
4.3714868e-14
0.68377089
0
0.73077489
0
0.78213632
0
0.01054185
0
0.020916709
-6.4952397e-18
0.032601339
1.1967518e-14
0.046653731
-1.1545387e-14
0.061595642
0
0.076141888
0
0.090767447
0
0.107804
-2.005598e-14
0.12684697
1.935029e-14
0.14643471
0
0.16746339
1.8037508e-14
0.19068009
-8.0768788e-18
0.21531785
1.6797178e-14
0.24069196
-6.5430112e-18
0.26693765
0
0.29419709
1.5105289e-14
0.32275244
0
0.35326921
2.8128863e-14
0.38576348
-2.713931e-14
0.41948104
0
0.45399972
0
0.48926133
-6.5275368e-18
0.52553493
0
0.56367514
0
0.60429575
0
0.64672952
-7.3727849e-18
0.69078702
0
0.73712289
0
0.78801766
0
0.0098247163
0
0.019567006
1.2390277e-14
0.030550539
1.1959839e-14
0.043759127
1.1551319e-14
0.057785213
0
0.071418771
0
0.085063135
4.9419003e-18
0.10099076
0
0.11889564
0
0.13728328
0
0.157048
-1.8027573e-14
0.17903859
0
0.20248257
1.6796206e-14
0.2266242
1.6217946e-14
0.25158264
-1.5652106e-14
0.27742595
1.5099968e-14
0.3042904
1.4576636e-14
0.33290905
0
0.3638546
2.7132026e-14
0.39646423
-2.6185244e-14
0.42989394
0
0.46396898
0
0.49868801
-2.3504389e-14
0.53434513
-2.2665427e-14
0.57190368
2.1861188e-14
0.61193733
2.1085174e-14
0.65378044
0
0.69717861
0
0.74292047
0
0.79354263
4.4871305e-05
0.010736529
0
0.018305102
0
0.02863868
0
0.041045872
-6.6163682e-18
0.054201683
-1.1143327e-14
0.066975065
0
0.079718839
0
0.094605556
5.0566502e-18
0.11141984
1.9347393e-14
0.12867138
-1.8675053e-14
0.14722835
0
0.16803403
0
0.19030454
1.6802763e-14
0.21322782
0
0.23694422
0
0.2614817
-1.5105218e-14
0.28682264
-4.9118269e-18
0.31363223
1.4066081e-14
0.34282195
0
0.3741011
0
0.40648903
-2.5255941e-14
0.43953695
2.4363739e-14
0.4731442
-2.3507654e-14
0.50729734
2.2668311e-14
0.54237388
0
0.57936907
0
0.61890443
2.0341762e-14
0.66018872
3.9231274e-14
0.70301497
0
0.74829401
-4.5672217e-18
0.79863875
7.5231474e-05
0.010674396
0.00012440034
0.019928317
0
0.026849787
0
0.038501605
0
0.050831038
-5.4342139e-18
0.062793521
0
0.074709901
-2.0767896e-14
0.088619792
3.0072884e-14
0.10439169
-9.6686407e-15
0.12056868
0
0.13797846
0
0.15764444
0
0.17876837
0
0.20049119
0
0.22299966
0
0.24629878
0
0.27026488
-2.9154385e-14
0.29543329
0
0.32273874
0
0.35239917
0
0.38367118
0
0.41577335
2.436681e-14
0.44843454
0
0.4815454
5.6900856e-18
0.51515959
4.3733653e-14
0.54967128
0
0.58614731
0
0.62521503
3.2718861e-18
0.66604792
0
0.7083725
3.6500117e-14
0.75325834
0
0.80345522
9.284302e-05
0.010616754
0.00020920315
0.019955769
0.00019340515
0.029072351
0
0.03610713
0
0.047659324
0
0.058858776
1.0755098e-14
0.070009644
1.038591e-14
0.083009867
0
0.097785716
9.672498e-15
0.11294834
-9.3362528e-15
0.12926602
0
0.14784048
0
0.16785733
0
0.1884004
0
0.20972796
0
0.23184416
-1.5104972e-14
0.25452117
0
0.27819086
1.4062593e-14
0.30372546
0
0.3315783
1.3096471e-14
0.36139692
0
0.39249298
0
0.4243438
0
0.45661218
0
0.48924547
0
0.52232255
2.1093157e-14
0.55628145
0
0.59228058
-3.3938297e-18
0.63097856
-1.8921594e-14
0.67138112
0
0.71329041
0
0.75787986
0
0.80791788
9.9449541e-05
0.010568385
0.00025895231
0.019985085
0.00032627358
0.02926116
0.00026039254
0.03880332
0
0.04466093
0
0.055157411
0
0.06560187
-4.8911389e-18
0.077750224
5.0690938e-18
0.091581577
-9.6719873e-15
0.10578499
-9.3398871e-15
0.12106341
0
0.1385932
-1.7406025e-14
0.15754466
0
0.17693806
0
0.19711504
0
0.21809367
0
0.23954462
-1.4577461e-14
0.26183344
0
0.28577882
-4.521156e-18
0.31182459
-4.3332858e-18
0.33986668
4.0537673e-18
0.36963192
0
0.40065279
0
0.43225314
0
0.46413567
0
0.49628466
0
0.52882998
-2.0350346e-14
0.56227053
1.962553e-14
0.59784814
-1.8926678e-14
0.63619387
1.8252996e-14
0.67625526
0
0.71780862
0
0.76217358
-3.2747641e-14
0.81217333
9.6738303e-05
0.010530343
0.00027820228
0.020024966
0.00040511397
0.029444955
0.00043978192
0.039152344
0.00032180334
0.047587362
1.1147335e-14
0.051654536
0
0.06147249
0
0.072822933
-5.0643661e-18
0.085758704
9.6759542e-15
0.099054749
0
0.11334248
0
0.12987528
8.7026668e-15
0.14780674
0
0.16608589
0
0.18514223
-6.298937e-18
0.20502928
0
0.22531003
-1.4572901e-14
0.24628993
0
0.26878554
0
0.29318737
1.309465e-14
0.31941242
0
0.34746454
3.7629163e-18
0.37727243
0
0.40820981
0
0.43956846
0
0.47104644
0
0.50270644
0
0.53474042
1.9625352e-14
0.56769398
1.8929386e-14
0.60288
1.8252205e-14
0.64094502
0
0.68068823
0
0.72197328
0
0.76620559
0
0.81609327
8.6356971e-05
0.010502967
0.00027135733
0.02007477
0.00043647025
0.029630194
0.00054653378
0.039479193
0.0005430086
0.048065281
0.00036950006
0.054602745
0
0.057578357
0
0.068209998
0
0.080296392
-9.6755452e-15
0.092734397
9.3388893e-15
0.10607942
0
0.12166107
-4.5527964e-18
0.13861641
8.3996415e-15
0.1558228
0
0.173793
1.5643323e-14
0.19263157
1.5099103e-14
0.21179382
0
0.23152899
-1.4063974e-14
0.25267712
0
0.27560587
0
0.30017619
-3.9244229e-18
0.32640285
1.2190404e-14
0.35456928
1.176352e-14
0.38445828
0
0.41527949
0
0.44632637
2.1105779e-14
0.47738074
0
0.50856024
0
0.5401113
0
0.5726037
2.842353e-18
0.60743079
-1.7606838e-14
0.64524197
0
0.68475496
3.2746857e-14
0.72581215
-3.1585594e-14
0.76993418
0
0.81976604
6.9911914e-05
0.010486085
0.00024287807
0.020133588
0.0004268846
0.029815761
0.00058921052
0.039790698
0.00067418154
0.048491003
0.00062275194
0.055233145
0.00040395596
0.060467687
0
0.063870854
0
0.075173899
0
0.08680214
1.8668729e-14
0.099246985
4.6580196e-18
0.11392346
-8.7021017e-15
0.12994958
0
0.14612561
8.1068347e-15
0.16304502
-1.5642841e-14
0.18087922
0
0.19897645
0
0.21752164
0
0.23740146
0
0.25898961
-1.3100923e-14
0.28209109
0
0.30664013
-3.7372707e-18
0.33302383
-3.6060734e-18
0.36137051
-1.1346111e-14
0.39122625
0
0.42185207
0
0.45257081
-2.036433e-14
0.48318487
0
0.51390625
0
0.54498756
3.651894e-14
0.5770277
0
0.6115386
1.6976908e-14
0.64916906
0
0.68845257
0
0.72934223
0
0.77339528
0
0.82305401
4.8993205e-05
0.010479778
0.00019708912
0.020200564
0.00038297063
0.029999467
0.00057655214
0.040085488
0.00072600461
0.048879575
0.00077219406
0.055783324
0.00068079187
0.061343192
0.00043312982
0.066610339
0
0.070349009
0
0.081237968
0
0.092826862
-9.0142949e-15
0.1066316
-8.6972051e-15
0.12177916
0
0.13697082
-8.1065681e-15
0.15287904
3.263726e-18
0.16975133
0
0.18683387
0
0.20424463
1.406459e-14
0.22292438
0
0.2432655
-1.3097566e-14
0.26504532
1.263826e-14
0.28810793
0
0.31277889
1.1764094e-14
0.33940616
1.1348386e-14
0.36783506
-1.09465e-14
0.39758975
0
0.42798691
0
0.45832488
-1.9643416e-14
0.48851209
0
0.51878024
0
0.54939758
0
0.58102512
0
0.61526271
-2.0699954e-18
0.65272206
0
0.69183424
0
0.73256998
0
0.77652672
0
0.82606196
2.5170489e-05
0.01048484
0.00013841779
0.020275106
0.0003114252
0.030178983
0.00051738192
0.040361368
0.0007095143
0.049229575
0.0008304986
0.056276578
0.0008440603
0.06211692
0.00073019863
0.067721909
0.00046121199
0.072835318
0
0.075993544
9.3377973e-15
0.086806006
0
0.099765138
-8.7017122e-15
0.11407703
-8.3950537e-15
0.12833724
0
0.14327366
0
0.15922438
0
0.17534547
0
0.19167478
0
0.20921399
-4.3152266e-18
0.22838532
2.6200776e-14
0.24894775
1.2643259e-14
0.27067563
-1.2199212e-14
0.29381052
-1.1766106e-14
0.31876197
-3.5051091e-18
0.34556515
1.0949031e-14
0.37395338
1.0563682e-14
0.40356184
0
0.43367769
0
0.46364236
0
0.49339372
0
0.52320954
1.7613749e-14
0.55339232
-2.4573348e-18
0.58463333
0
0.61862948
-1.5796078e-14
0.65596677
0
0.69489667
0
0.73551009
0
0.77937885
-2.3763517e-18
0.82869963
0.010501292
0
7.1236375e-05
0.020356345
0.00021909917
0.030352643
0.0004207859
0.040615695
0.00063586977
0.049539626
0.00081054095
0.056710548
0.00090769239
0.062810843
0.00090566661
0.068713081
0.0007773198
0.074164707
0.0004844472
0.078141442
9.3337208e-15
0.081141468
0
0.093306411
0
0.10681783
8.3948759e-15
0.12020132
3.4683795e-18
0.13421023
0
0.14927634
0
0.16448458
2.1299305e-18
0.17978931
0
0.19624682
0
0.21431041
-4.2407625e-18
0.23372935
0
0.25423556
-1.219692e-14
0.27600801
1.1767988e-14
0.29938338
0
0.32454027
-1.0954924e-14
0.35139681
-1.0566519e-14
0.37972334
-1.0188086e-14
0.40915793
0
0.43898108
0
0.46853933
0
0.49785291
0
0.52723637
-1.6990883e-14
0.55700675
0
0.58789738
-1.5796107e-14
0.62168891
3.0467399e-14
0.65890845
-2.9382131e-14
0.6977006
0
0.7381688
0
0.78191516
-2.6357002e-14
0.83105893
0.020442618
0
0.010528059
-2.5298933e-05
0.00011291706
0.030518458
0.00029600813
0.040847087
0.00051643973
0.049808562
0.00072542681
0.057083577
0.00088575406
0.063420186
0.00097417154
0.069598102
0.00096379689
0.075341611
0.0008159953
0.079696653
0.00050119883
0.082877997
0
0.087227012
-8.701463e-15
0.099974596
0
0.11253812
8.102429e-15
0.12566321
-7.8205352e-15
0.13988418
0
0.15422752
-2.0915129e-18
0.16856474
-7.0325823e-15
0.18399732
0
0.20101099
0
0.21934695
1.2641159e-14
0.23869978
0
0.25922978
1.1773257e-14
0.28118382
0
0.30474801
0
0.33004074
0
0.35693162
-2.9298289e-18
0.38517017
0
0.41440441
0
0.44390078
0
0.47304752
-1.762708e-14
0.50192669
0
0.53089447
0
0.5602785
0
0.5908447
-1.523457e-14
0.62447043
-2.9384244e-14
0.66161574
1.4169493e-14
0.70023229
0
0.74056297
0
0.78418549
-2.5419937e-14
0.83307115
0.030673253
0
0.020533089
-7.1776821e-05
0.010565415
-4.9496293e-05
0.00015252267
0.041052918
0.00036279497
0.050035829
0.00058836199
0.057393368
0.00079253152
0.063941715
0.00095082395
0.070371553
0.001036402
0.076386876
0.0010111812
0.081065683
0.00084388078
0.08467716
0.00051761966
0.08856538
8.7014282e-15
0.093504858
0
0.10532442
0
0.11761396
0
0.13102078
7.5516971e-15
0.14454728
-7.288699e-15
0.15797518
0
0.17244156
2.1610397e-18
0.18845973
-1.3104114e-14
0.20576671
0
0.224018
0
0.24338778
1.1774778e-14
0.26406514
0
0.28616128
0
0.3098778
3.2217182e-18
0.33531778
-1.019711e-14
0.36222752
0
0.39032098
-9.4808717e-15
0.41932335
-1.8288449e-14
0.44847113
0
0.47718594
-1.700112e-14
0.50564485
0
0.53421288
-1.5804347e-14
0.56322745
1.5237009e-14
0.59352327
1.5942326e-18
0.62704056
1.4167526e-14
0.66408712
0
0.70253679
0
0.74270207
0
0.78616586
2.4514582e-14
0.83484319
0.041229612
0
0.030817563
-0.00011395657
0.020626326
-0.00014051402
0.010614653
-7.0993412e-05
0.00018667214
0.050220036
0.00041275413
0.057638584
0.00064261374
0.064372676
0.00085092248
0.07103003
0.0010113111
0.077297046
0.0010867745
0.082277791
0.0010453099
0.086260308
0.00087155534
0.090677618
0.00053582939
0.094410332
0
0.098506184
0
0.110045
7.823642e-15
0.12266721
-2.7982182e-18
0.1354196
2.023443e-18
0.14799419
7.0326769e-15
0.16155046
0
0.1766262
-6.5500537e-15
0.19295863
-1.2646472e-14
0.21015478
0
0.22841847
0
0.24792356
1.1359025e-14
0.26869669
0
0.29091842
0
0.31486534
0
0.34043706
9.8346776e-15
0.36725859
9.4842214e-15
0.39519101
2.3581255e-18
0.42393062
1.7636003e-14
0.45269671
0
0.48099022
-1.6396985e-14
0.5090319
0
0.53720599
0
0.5658961
-1.4696754e-14
0.59598733
0
0.62942164
-1.359912e-18
0.66637091
-2.6358263e-14
0.70460433
0
0.74461262
0
0.78791408
-1.3724117e-18
0.83633631
0.050358347
0
0.041380671
-0.00015377859
0.03094875
-0.00022311718
0.020719979
-0.00020153277
0.010675851
-8.8146167e-05
0.00021208677
0.057817932
0.00045064601
0.06470964
0.00069006904
0.071570992
0.00090482062
0.07806809
0.0010599708
0.083330561
0.0011230555
0.087652987
0.0010794526
0.09254231
0.00090227506
0.096865913
0.00054890916
0.098889384
0
0.10289959
0
0.11480167
0
0.1268207
-1.9960757e-18
0.13859623
7.0346452e-15
0.15129783
6.7893429e-15
0.16548009
6.5501741e-15
0.18088823
0
0.19707623
0
0.21428223
0
0.23268548
0
0.25225367
1.0964355e-14
0.27310888
1.0577621e-14
0.2955535
0
0.31972967
-9.8409285e-15
0.34533785
9.4876276e-15
0.37205187
9.1488926e-15
0.39978946
-8.8214506e-15
0.42823939
0
0.45661366
0
0.48447182
-1.5811351e-14
0.5120985
0
0.53991012
0
0.5683205
-1.5355664e-18
0.59827341
0
0.63165171
-1.2587066e-18
0.6684602
0
0.70648857
0
0.74630255
0
0.78942106
2.2802734e-14
0.83762684
0.057928266
0
0.050459412
-0.00018770186
0.04150441
-0.00030087068
0.031059867
-0.00031989131
0.020812153
-0.00025008332
0.010747819
-9.9243625e-05
0.00023145743
0.064948635
0.00048395729
0.071990219
0.0007336149
0.078696205
0.00094802775
0.084221048
0.0010949418
0.08885409
0.0011594062
0.09416863
0.0011175201
0.099021374
0.00092425066
0.10163929
0.00055505701
0.10272485
0
0.10736416
0
0.11872615
1.4575212e-14
0.12975949
-1.9207927e-18
0.1416517
6.7893834e-15
0.15499177
0
0.16952309
-6.323719e-15
0.18474967
1.871846e-18
0.20094373
0
0.21830273
0
0.23675069
0
0.25635944
-1.0576869e-14
0.27739703
0
0.30012576
0
0.32445271
0
0.35001777
-2.7465364e-14
0.37659913
-8.8274455e-15
0.40412924
-8.5086811e-15
0.43225672
0
0.46022525
0
0.48764734
0
0.51487667
0
0.54234621
-1.5946897e-18
0.57053358
1.366806e-14
0.60040345
0
0.63373881
-1.2711611e-14
0.67039641
1.2257991e-14
0.70816638
0
0.74779364
0
0.7907311
0
0.83868255
0.065085064
0
0.05798451
-0.00021270381
0.05052164
-0.0003667862
0.041591842
-0.00043104455
0.031147667
-0.0003965878
0.020901087
-0.00028123655
0.010831425
-0.00010255963
0.00024857484
0.072283382
0.00051440437
0.079178942
0.00076838325
0.084945044
0.00097894089
0.089862628
0.0011300217
0.095556094
0.0012002184
0.10089523
0.0011446628
0.10404902
0.000934494
0.10577199
0.00055857576
0.10661009
0
0.11105616
0
0.12146461
0
0.13259363
0
0.14513197
-6.55032e-15
0.15882958
0
0.17314137
-6.1030849e-15
0.18836857
-5.8878561e-15
0.20473574
0
0.22212443
0
0.2405826
0
0.26034175
1.0205765e-14
0.28164035
9.847415e-15
0.30456799
9.4945452e-15
0.32895511
-9.1588639e-15
0.35447309
-2.5140895e-18
0.3809182
-1.7029246e-14
0.40820311
0
0.43600252
0
0.46354811
0
0.49053602
1.4706334e-14
0.51738183
0
0.54454243
-1.3671956e-14
0.57254898
1.3181673e-14
0.60240072
0
0.63569961
-1.0887811e-18
0.67216158
1.1822959e-14
0.70967639
0
0.7490936
0
0.79183928
0
0.8395772
0.072446932
0
0.065137877
-0.00023186805
0.057986299
-0.00041514712
0.050533192
-0.00052488425
0.04164105
-0.00053392354
0.031209825
-0.00044539077
0.020984554
-0.00029008493
0.01092904
-9.6274624e-05
0.00026418453
0.079514527
0.00053867985
0.085500747
0.00079322998
0.0906769
0.0010099633
0.096703204
0.0011695866
0.10248497
0.0012291771
0.10614702
0.0011571537
0.10844116
0.00094043406
0.10995356
0.00055947831
0.10970769
0
0.11362242
-7.0326989e-15
0.12410336
0
0.13587311
6.5503535e-15
0.14877856
0
0.16221843
0
0.17652204
-1.8575964e-18
0.19194466
1.1367988e-14
0.20832913
0
0.22570105
0
0.24428367
0
0.26425747
0
0.28575031
-9.4979847e-15
0.30882584
0
0.33326483
-8.8352467e-15
0.3587242
0
0.38500444
8.2104544e-15
0.41203825
-7.9151823e-15
0.43947724
0
0.46659613
0
0.49315677
-1.4182777e-14
0.51963807
-1.3673725e-14
0.54650548
-1.3185164e-14
0.57439491
-1.2713773e-14
0.6042691
-1.2258998e-14
0.63753648
-1.1823353e-14
0.67377478
-1.1402465e-14
0.71099919
0
0.7502319
2.1211519e-14
0.79278789
0
0.84028953
0.079700447
0
0.072505504
-0.00024897761
0.065105699
-0.00045223622
0.057917655
-0.00059344127
0.050494027
-0.00064954495
0.04164939
-0.00059907101
0.031242789
-0.00045843679
0.021063871
-0.00027158487
0.011041208
-7.8464637e-05
0.0002766108
0.085886638
0.00055595849
0.091294285
0.00081803002
0.097608047
0.0010449087
0.10378806
0.0011975597
0.10792785
0.0012424717
0.110762
0.0011643384
0.11288259
0.00094162105
0.11333382
0.00055485647
0.11169301
0
0.11609132
0
0.12718779
0
0.13933387
6.3221532e-15
0.1519475
6.10358e-15
0.16537245
5.8885929e-15
0.1798948
5.6827412e-15
0.19532431
-5.4838568e-15
0.21166355
0
0.22914609
0
0.24791528
0
0.26804882
0
0.28971076
2.8745033e-18
0.31294453
8.8364333e-15
0.33742675
8.5226956e-15
0.36278241
-2.2678749e-18
0.38887707
-7.9189277e-15
0.41562527
0
0.44269875
0
0.46937685
0
0.49552075
0
0.52164797
-1.3186784e-14
0.5482674
0
0.5760757
-1.1372795e-18
0.60602343
0
0.63923188
-1.1402763e-14
0.67521877
0
0.71218636
0
0.7512122
0
0.79357524
-5.6544579e-19
0.84088272
0.086099211
0
0.079769597
-0.0002646282
0.072457547
-0.00048550946
0.06496727
-0.00064598479
0.057779042
-0.00073366704
0.050402259
-0.00072821118
0.041615705
-0.00061605488
0.031242073
-0.000427979
0.02113734
-0.00022055833
0.011168068
-4.709213e-05
0.00028544267
0.091713843
0.00057306631
0.098270944
0.00084594499
0.10480134
0.0010697762
0.10938902
0.0012104221
0.11273065
0.0012500613
0.11542686
0.0011657643
0.11650459
0.0009338951
0.11559454
0.00054706799
0.11359607
0
0.11899737
0
0.13046226
6.3222518e-15
0.14229984
6.1000612e-15
0.15488904
-5.8888837e-15
0.16855206
5.6831655e-15
0.18307454
-5.486078e-15
0.19842987
-5.2923227e-15
0.21486821
0
0.23252631
0
0.25141887
-2.8607476e-18
0.27169661
0
0.29358553
-8.8402851e-15
0.316967
0
0.34141396
0
0.36664885
-7.9250255e-15
0.39252792
7.6374705e-15
0.41897144
0
0.44564849
0
0.47189835
0
0.49763378
-1.3191967e-14
0.52344309
0
0.54983421
2.45246e-14
0.57761219
0
0.60763557
-1.1402207e-14
0.6407914
1.0996328e-14
0.67651577
0
0.71321169
-9.0521966e-19
0.75205947
0
0.79423432
1.9028607e-14
0.84132149
0.091932675
0
0.086178477
-0.00027710616
0.079720744
-0.00051611848
0.072276154
-0.00069334369
0.064725107
-0.00079798296
0.057571619
-0.00082187409
0.0502572
-0.00074845858
0.041535849
-0.00057448915
0.031206277
-0.00034632189
0.021205622
-0.00013181373
0.011301333
-1.3310474e-14
0.00029409153
0.098693502
0.00059231563
0.10552536
0.00086587082
0.11052637
0.0010811554
0.11434456
0.001217641
0.11758164
0.0012514211
0.11927035
0.0011562295
0.11901971
0.00092110042
0.11780726
0.00054008395
0.11592376
0
0.12208267
0
0.13324519
6.1039427e-15
0.14504469
5.8891341e-15
0.15788887
-5.683531e-15
0.17154329
0
0.18596342
-1.5357934e-18
0.20140814
5.1088434e-15
0.21802215
0
0.23578038
0
0.25477634
0
0.27526578
8.8469077e-15
0.29738937
8.530896e-15
0.32085684
8.2225236e-15
0.34524457
0
0.37032164
0
0.39595147
0
0.42205772
0
0.44834722
0
0.47416146
0
0.49952068
-1.3542984e-18
0.52503176
0
0.55123105
1.1825192e-14
0.57898523
0
0.60912429
0
0.64217133
-7.1410785e-19
0.67764832
1.0228745e-14
0.71412188
1.9729519e-14
0.75276822
1.9029057e-14
0.79475722
-1.8353644e-14
0.84168679
0.098875499
0
0.091995888
-0.00028589979
0.086122996
-0.00054059785
0.0795193
-0.00073724858
0.071962635
-0.00085619913
0.064379157
-0.00089320856
0.057296852
-0.00084419067
0.050059637
-0.00069780387
0.041410562
-0.00046440305
0.031135698
-0.00020607653
0.021260047
0
0.010402195
0
0.00030377101
0.1059609
0.00060610928
0.11133646
0.00087501521
0.11560148
0.001087418
0.11934366
0.001218906
0.12162198
0.0012414598
0.12202634
0.0011408109
0.12152368
0.00090969319
0.12045839
0.00053402669
0.11839985
0
0.12469278
0
0.13581009
0
0.14787124
5.6838404e-15
0.16070123
1.585491e-18
0.17422998
5.2937331e-15
0.1887291
1.5327572e-14
0.2043546
1.467813e-18
0.22105827
0
0.23888502
9.1736576e-15
0.25805057
-2.7978413e-18
0.27881551
8.5321449e-15
0.30114012
0
0.3246263
0
0.34890847
-1.529324e-14
0.37379165
-7.3715322e-15
0.39913493
0
0.42489668
0
0.4507811
0
0.47619288
0
0.50119436
-1.2268335e-14
0.52643952
-1.1827247e-14
0.552445
-1.1404156e-14
0.580221
0
0.61042373
0
0.64338311
-1.0228714e-14
0.67863176
-9.8650473e-15
0.71488011
-1.9028972e-14
0.75336917
0
0.79516723
0.0077001353
0.83424035
0.10610981
0
0.098870993
-0.00029427284
0.091900874
-0.00055771951
0.085889924
-0.00077245472
0.079165112
-0.00091070141
0.071514621
-0.000957918
0.06393056
-0.00091662528
0.056955308
-0.00078675551
0.049810252
-0.0005640934
0.041238786
-0.00027595902
0.03102773
0
0.019595055
0
0.011225822
-1.3303388e-14
0.00031073931
0.11181807
0.00061245753
0.11649733
0.00087998091
0.12071004
0.001088489
0.1235511
0.0012094666
0.12460109
0.0012254398
0.12479481
0.0011271597
0.12447629
0.00089985661
0.12323742
0.0005271778
0.12041051
0
0.12709614
0
0.13846724
0
0.15051426
-1.5712114e-18
0.16319597
-5.2943191e-15
0.17679685
0
0.19148302
-4.9311232e-15
0.20719158
0
0.22394315
0
0.24190486
0
0.26131739
-2.7708894e-18
0.28233829
0
0.30479838
-7.9354316e-15
0.32826256
-7.6521193e-15
0.35240311
0
0.3770432
-1.7464718e-18
0.40207767
6.8503527e-15
0.42748012
0
0.45298458
0
0.47800008
0
0.50267641
-1.0383384e-18
0.52765715
0
0.553509
0
0.58128608
1.060579e-14
0.61155744
0
0.644372
-5.0500261e-19
0.67945215
9.5143515e-15
0.7155476
-1.8353717e-14
0.7538179
0.015099069
0.78811154
0.0070146783
0.82740268
0.11197047
0
0.10603911
-0.00030354848
0.098677378
-0.00057374354
0.091595148
-0.00079691038
0.085479909
-0.00095463361
0.078657687
-0.001019309
0.07093434
-0.00098253047
0.063377202
-0.00085340085
0.056548369
-0.00063589052
0.049509776
-0.00033534398
0.041009366
-1.1968183e-14
0.028719586
0
0.021012431
-1.2845773e-14
0.012108512
0
0.00031396204
0.1170302
0.0006158384
0.12167935
0.00088076839
0.12504992
0.0010803732
0.12673286
0.0011944236
0.12760702
0.001211208
0.12801308
0.001115305
0.12752596
0.00088826945
0.12553075
0.00051860192
0.12221695
0
0.12958803
0
0.140951
0
0.15283332
-1.5004193e-18
0.16557743
1.5208421e-18
0.17936946
0
0.19413521
0
0.20987721
4.590999e-15
0.2267376
0
0.24489572
0
0.26456132
-2.7796044e-18
0.28582922
-7.9424328e-15
0.30838314
7.6566111e-15
0.33176559
-7.3802179e-15
0.35570872
0
0.38007394
0
0.40477964
0
0.42982916
6.3683663e-15
0.45495401
0
0.47960912
0
0.50396234
-1.1409255e-14
0.52871679
0
0.55441528
0
0.58221086
0
0.61244959
-9.8643975e-15
0.6451871
-4.086603e-19
0.68014457
9.1767841e-15
0.71602835
0.022234202
0.74707696
0.013754327
0.78161197
0.0062808452
0.82116796
0.11719624
0
0.11187105
-0.00031025487
0.10575017
-0.00059143819
0.098235585
-0.0008193584
0.091078303
-0.00098483768
0.084890278
-0.0010690271
0.077998226
-0.0010459466
0.070222247
-0.0009141807
0.062727174
-0.00068913612
0.056079239
-0.0003780769
0.049136923
0
0.038261352
-1.1961094e-14
0.030682827
1.2392121e-14
0.022525388
-1.2839503e-14
0.013055382
-8.2917254e-18
0.00031566297
0.12225136