/*--------------------------------*- C++ -*----------------------------------*\
| =========                 |                                                 |
| \\      /  F ield         | OpenFOAM: The Open Source CFD Toolbox           |
|  \\    /   O peration     | Version:  v2012                                 |
|   \\  /    A nd           | Website:  www.openfoam.com                      |
|    \\/     M anipulation  |                                                 |
\*---------------------------------------------------------------------------*/
FoamFile
{
    version     2.0;
    format      ascii;
    class       volScalarField;
    location    "62.4493107631428899";
    object      p;
}
// * * * * * * * * * * * * * * * * * * * * * * * * * * * * * * * * * * * * * //

dimensions      [0 2 -2 0 0 0 0];


internalField   nonuniform List<scalar> 
9200
(
0.0031611538
0.0031954753
0.0037672786
0.0030089835
0.0040574495
0.0072112723
0.0029100855
0.0046120398
0.0076057111
0.0091215319
0.0026650796
0.0055858308
0.0081848476
0.0098269306
0.011342326
0.002377994
0.0066551855
0.0091445775
0.010593839
0.012039912
0.013048084
0.0020150665
0.0078530722
0.010173249
0.011748109
0.012921579
0.013770551
0.014407922
0.0015973616
0.0090266185
0.011291318
0.013043436
0.014185842
0.014790527
0.015162691
0.015369586
0.00096247846
0.010043938
0.012396969
0.014427394
0.015645134
0.016185271
0.01631642
0.016164594
0.015952786
0.00026876906
0.011276495
0.01345435
0.015842123
0.017174092
0.017850114
0.017846527
0.017447394
0.016787599
0.016160698
-0.00035705695
0.012626765
0.014494682
0.017194912
0.018750759
0.019584853
0.019724731
0.01912513
0.018189985
0.017028409
0.016008903
-0.0011043401
0.013750279
0.015458518
0.018492343
0.020242989
0.021394796
0.021690435
0.021233684
0.020016613
0.018534964
0.016896932
0.015516901
-0.0019246056
0.01463122
0.016365093
0.019689087
0.02164011
0.02310779
0.023771571
0.023470336
0.022360481
0.020499661
0.018484693
0.016407913
0.014711893
-0.0027241023
0.015282329
0.017223056
0.020766673
0.022869673
0.024697508
0.025766269
0.025886488
0.024892888
0.02306877
0.020562209
0.018046543
0.015584495
0.013626209
-0.0034034159
0.015675987
0.018016175
0.021712913
0.023915028
0.026064364
0.027636614
0.028261185
0.027691902
0.025901068
0.023326707
0.020197977
0.017237466
0.014456555
0.012298135
-0.0038587102
0.015765617
0.018760914
0.022539805
0.024755284
0.027161692
0.029255242
0.030553001
0.030530814
0.029105955
0.026434731
0.023108524
0.019412396
0.016083094
0.013061003
0.010768755
-0.0039009674
0.015502828
0.019496961
0.023275269
0.025394674
0.0279373
0.030544057
0.032616108
0.033375163
0.032463389
0.030030608
0.02644005
0.022402523
0.018222813
0.014618198
0.011439074
0.0090817206
-0.0034157387
0.014819891
0.020315896
0.02396605
0.025852017
0.028358486
0.031417234
0.034354944
0.036073326
0.035957734
0.033910727
0.030372017
0.025879397
0.021213293
0.016659364
0.01288408
0.0096355683
0.007280658
-0.0025139581
0.013482281
0.021282853
0.024680327
0.026169851
0.02840769
0.031786508
0.035664028
0.038532304
0.039448837
0.038087677
0.034722747
0.03005612
0.024738038
0.019563411
0.014762484
0.010927434
0.0076964117
0.005409114
-0.0016839784
0.012029248
0.022576379
0.025460381
0.026400635
0.028081915
0.031585799
0.036402991
0.04063039
0.042856752
0.042449729
0.03953751
0.034775209
0.029039291
0.023026191
0.017491444
0.012581273
0.008797638
0.005667763
0.003507244
-0.0012745851
0.012837498
0.024238106
0.026410147
0.026610273
0.027390634
0.030732692
0.036496791
0.042222726
0.046030063
0.046947845
0.04473361
0.040114095
0.033983395
0.02731328
0.020778332
0.015049289
0.010170255
0.0065451884
0.0035934668
0.0016122705
-0.00074166055
0.015017865
0.024997194
0.027579003
0.026875223
0.026368913
0.029152387
0.035735123
0.04330451
0.048846954
0.051489973
0.050288715
0.046019721
0.039676252
0.032311898
0.024905132
0.018049108
0.012298479
0.0075868514
0.0042191567
0.0015145739
-0.00023996756
1.9136402e-05
0.016259771
0.025566937
0.028881514
0.0272358
0.025054349
0.026775056
0.034043007
0.043513346
0.051409164
0.056097427
0.056151183
0.052503565
0.046092097
0.038150106
0.02977608
0.021872333
0.014908828
0.0093060199
0.0048882555
0.0018663061
-0.00053135739
-0.0020175305
0.00049156943
0.016500158
0.027203052
0.030387608
0.027783985
0.023500303
0.023505843
0.031348765
0.042749659
0.053563378
0.060284662
0.062278996
0.059548085
0.053273484
0.044823866
0.035532684
0.026435126
0.018296121
0.011437204
0.006140547
0.0021295445
-0.00047053271
-0.002510746
-0.0037034132
-3.3601805e-05
0.015620152
0.029567263
0.03219147
0.028548864
0.021775078
0.019259559
0.027421263
0.041044727
0.054828722
0.064285496
0.068563888
0.067130465
0.061228804
0.052397826
0.042184537
0.031883733
0.022384043
0.014273322
0.0077180575
0.0028688795
-0.00063812669
-0.0027533731
-0.0043965378
-0.0052806864
-0.0013888146
0.013603302
0.032623207
0.034259727
0.029516564
0.019951336
0.013923193
0.022104323
0.038108333
0.055148371
0.068219253
0.074999681
0.07523345
0.069970597
0.060901167
0.049809021
0.038232266
0.027314712
0.017741931
0.0099083025
0.0038340397
-0.00044620625
-0.003368809
-0.0049493355
-0.0061657868
-0.0067021751
-0.0030557253
0.010843095
0.036496142
0.036670612
0.030659984
0.018109037
0.0073675967
0.015192931
0.033756363
0.0545407
0.071617895
0.081553444
0.083827586
0.079498702
0.070368536
0.058446154
0.045558784
0.033097822
0.02197398
0.012640831
0.0053053783
-0.00013673266
-0.0037480786
-0.0060223488
-0.0070295368
-0.0077957578
-0.0079489456
-0.0046913133
0.0077080895
0.041164032
0.039243886
0.031887033
0.016326712
-0.00055326887
0.0064509424
0.02781781
0.05275363
0.074442682
0.08810057
0.092861451
0.089801033
0.080817931
0.068141918
0.053902768
0.039800259
0.026966786
0.016030715
0.0072143198
0.00056334329
-0.0041237103
-0.0069868628
-0.0085642516
-0.0089709142
-0.0092705217
-0.0091250806
-0.0058071236
0.0047240399
0.045940339
0.041679059
0.033076901
0.014688651
-0.0099904836
-0.0044035876
0.020106781
0.049596681
0.076553085
0.094542454
0.10227181
0.10084118
0.092247137
0.078922082
0.063308644
0.047447871
0.032765717
0.020058256
0.0096586086
0.0015890568
-0.0042288355
-0.0080650421
-0.010120067
-0.010965838
-0.010757864
-0.010586933
-0.010244234
-0.0061247066
0.0024851393
0.050429501
0.043696143
0.034040385
0.012839828
-0.021159442
-0.017709564
0.010400245
0.044806506
0.077821517
0.10077338
0.11195678
0.11254927
0.10462399
0.090791834
0.073799915
0.056069185
0.039369783
0.024738429
0.012599963
0.0030224164
-0.0041217703
-0.0089941323
-0.011908277
-0.013112295
-0.013204669
-0.012377306
-0.011734911
-0.011107421
-0.0055023276
0.00032410864
0.053430165
0.044974235
0.034614621
0.010520615
-0.033823127
-0.033907779
-0.0015540684
0.038058953
0.078002828
0.10667368
0.12179704
0.12481883
0.11787917
0.10372323
0.085380724
0.065670601
0.046774966
0.030033393
0.016020125
0.0048093793
-0.0037318882
-0.009821837
-0.01366815
-0.015609923
-0.015934912
-0.015263513
-0.013815379
-0.012699992
-0.011641787
-0.0038596664
-0.003532745
0.055070304
0.045008189
0.034586948
0.0077894653
-0.047697076
-0.052863756
-0.016017181
0.029074886
0.07694622
0.11205512
0.13164145
0.13750528
0.13189755
0.11764781
0.098023046
0.076241817
0.054953913
0.0358925
0.019837942
0.0069001286
-0.0031225344
-0.010482732
-0.015432713
-0.018198478
-0.01913488
-0.018565075
-0.017128815
-0.015064201
-0.013501331
-0.011959184
-0.0015386403
-0.0089539301
0.055180156
0.04394284
0.033659301
0.0044149533
-0.062395738
-0.074246943
-0.033427881
0.018897416
0.074358656
0.11676231
0.14130104
0.15042307
0.14651513
0.13244777
0.11166036
0.087744219
0.063861969
0.042233392
0.023945029
0.0091714188
-0.0023674513
-0.011040137
-0.017134751
-0.020892719
-0.022543445
-0.022455259
-0.02098558
-0.018790844
-0.016120325
-0.014142933
-0.012166705
0.0009624464
-0.014785691
0.052966078
0.040716722
0.03170489
0.00064640736
-0.078314122
-0.097994601
-0.053896091
0.0047933799
0.070081823
0.12058984
0.15058653
0.16334624
0.16151873
0.14795072
0.12617813
0.100107
0.073429165
0.048953668
0.02818931
0.011455044
-0.0016233908
-0.011579377
-0.018826732
-0.02361696
-0.026154755
-0.026670433
-0.02554944
-0.023184301
-0.020245472
-0.016980232
-0.014599074
-0.012288239
0.0032537255
-0.020788378
0.047189716
0.035461051
0.027936259
-0.0035749636
-0.094567829
-0.12352482
-0.077361179
-0.011796491
0.063724262
0.1233548
0.1592207
0.17602538
0.17664843
0.16393097
0.14140762
0.11321716
0.083562634
0.055924642
0.03238594
0.013520682
-0.0011102931
-0.012274933
-0.020590524
-0.026402222
-0.029879121
-0.031183394
-0.030554224
-0.028401266
-0.025152498
-0.021493063
-0.017662716
-0.014894281
-0.012310365
0.0051691935
-0.027399536
0.037933654
0.026866422
0.022595266
-0.0070043312
-0.11144303
-0.15102642
-0.10374069
-0.030475317
0.055382919
0.12474936
0.16704857
0.18815492
0.19160907
0.18010997
0.15712689
0.12691601
0.094134469
0.062998858
0.036315319
0.015085816
-0.0011309078
-0.013380497
-0.022598062
-0.029311392
-0.033717158
-0.035886811
-0.035952011
-0.03417555
-0.030999585
-0.026884469
-0.022529336
-0.018166945
-0.015030167
-0.012239589
0.0066442979
-0.035023848
0.025920108
0.014634459
0.013994922
-0.0094692046
-0.12683554
-0.18033347
-0.13303694
-0.052000372
0.04505414
0.12468438
0.17360475
0.19946013
0.20607028
0.19617203
0.17305818
0.1409958
0.10498672
0.069999991
0.039733693
0.01581416
-0.0020642325
-0.015249596
-0.025110068
-0.032491995
-0.037699046
-0.040744583
-0.041616529
-0.040440388
-0.037519515
-0.033337312
-0.028382409
-0.023359969
-0.018501907
-0.015016887
-0.012074149
0.0076097092
-0.043391596
0.011882764
-0.0013377259
0.0018286803
-0.01223351
-0.1432876
-0.20925077
-0.16610685
-0.075878368
0.032006829
0.12302228
0.17878528
0.20957109
0.21971114
0.2117652
0.18888582
0.1551976
0.11591956
0.07673827
0.042366635
0.015323192
-0.0043710781
-0.018336081
-0.028498673
-0.036182392
-0.041927679
-0.04574387
-0.047471723
-0.047051445
-0.044632692
-0.040574718
-0.035405399
-0.029645759
-0.023989503
-0.018673203
-0.01486388
-0.011764954
0.0080803971
-0.052273673
-0.00385909
-0.020946776
-0.013498723
-0.015856926
-0.15993787
-0.24227317
-0.20091935
-0.10125316
0.016320696
0.1196026
0.18235816
0.21830003
0.23218101
0.22654634
0.20425253
0.1692253
0.1266993
0.082988975
0.043932369
0.013182922
-0.0085953429
-0.023206979
-0.033253591
-0.040735655
-0.04659129
-0.050927061
-0.053455984
-0.053892818
-0.052178075
-0.048516172
-0.04333856
-0.037206682
-0.030678528
-0.024425489
-0.018687486
-0.014579212
-0.011295757
0.0081522879
-0.060905176
-0.02109768
-0.043781133
-0.031803699
-0.020290582
-0.17736897
-0.274948
-0.24272276
-0.12852327
-3.9593105e-05
0.11459918
0.1844451
0.22520568
0.24326026
0.24014304
0.21880826
0.18273753
0.13705749
0.088523926
0.044117899
0.0089360273
-0.015363132
-0.030549467
-0.04000008
-0.046627729
-0.051986345
-0.056409803
-0.059541237
-0.060853093
-0.060003596
-0.056984304
-0.052081156
-0.045802124
-0.038742174
-0.031486159
-0.024676458
-0.018552563
-0.014171753
-0.010712052
-0.068349879
0.0078013294
-0.040208842
-0.068774024
-0.052800437
-0.026407854
-0.19648821
-0.30740547
-0.28578726
-0.16295756
-0.02271903
0.10897162
0.18485227
0.23123621
0.25251193
0.25230383
0.2321629
0.19539754
0.14669112
0.09307543
0.042636666
0.002085555
-0.02537919
-0.041180453
-0.049513391
-0.054478432
-0.058524765
-0.062398976
-0.065755411
-0.067830401
-0.067951137
-0.065797684
-0.061458571
-0.055318954
-0.047963887
-0.040015536
-0.032076038
-0.024751856
-0.018277752
-0.013651521
-0.010040303
-0.061273163
-0.073593117
0.0069269399
-0.095096649
-0.075386479
-0.034982407
-0.21508493
-0.33957384
-0.33056074
-0.2000626
-0.052764273
0.095554695
0.18497961
0.23428033
0.26016923
0.26260488
0.24405159
0.20681435
0.15529958
0.09638678
0.03914781
-0.0078458132
-0.039425147
-0.056055685
-0.062742018
-0.065075919
-0.066764637
-0.069202176
-0.072193258
-0.074758203
-0.075847536
-0.074758289
-0.071265049
-0.065589211
-0.058223346
-0.049824576
-0.041032714
-0.032457199
-0.024661794
-0.01787329
-0.013028532
-0.0092859368
-0.12192739
-0.083915395
-0.07571277
0.0054011998
-0.097526228
-0.046787845
-0.23148061
-0.36953345
-0.37425211
-0.2394263
-0.084568664
0.076715696
0.17746933
0.23748218
0.26518501
0.2711714
0.25401501
0.21672848
0.16252559
0.098178969
0.033407191
-0.021402225
-0.058336793
-0.076275141
-0.080811686
-0.079398019
-0.077439107
-0.077268495
-0.079039193
-0.081602454
-0.083531931
-0.083629871
-0.081272105
-0.076391702
-0.069364786
-0.060790366
-0.051387482
-0.04180169
-0.032639676
-0.024416682
-0.017349591
-0.01231274
-0.0084584929
-0.11856052
-0.14860685
-0.10647763
-0.074417586
0.0030787015
-0.062735571
-0.24480744
-0.39497978
-0.4147406
-0.27916162
-0.11633777
0.054627598
0.16616537
0.23382988
0.26987972
0.27695841
0.26222268
0.22463567
0.16814177
0.098173056
0.025059869
-0.038967103
-0.083038111
-0.10310001
-0.10507661
-0.098629175
-0.091440691
-0.087254191
-0.086539879
-0.088404491
-0.090852933
-0.092166934
-0.091192438
-0.087479141
-0.081160428
-0.072774901
-0.063018712
-0.052658327
-0.042331801
-0.032634015
-0.024027354
-0.016717575
-0.011514181
-0.0075665699
-0.082270349
-0.13876078
-0.17426319
-0.12719347
-0.069186077
-6.8099631e-05
-0.25363909
-0.41380022
-0.44938906
-0.31699599
-0.14723991
0.030694974
0.15105868
0.2275231
0.2683077
0.28241077
0.26742409
0.23076123
0.17164425
0.096164959
0.013938854
-0.06116494
-0.11438211
-0.13793634
-0.13710331
-0.12426494
-0.10980434
-0.099971811
-0.095205893
-0.095260776
-0.097694419
-0.10010762
-0.10071078
-0.098527698
-0.093356352
-0.08555238
-0.075811286
-0.064909838
-0.053644579
-0.042633126
-0.03245153
-0.023505924
-0.01598867
-0.010642011
-0.0066176728
-0.25662016
-0.10384836
-0.15707006
-0.1967228
-0.14516723
-0.060023791
-0.0035224038
-0.42404924
-0.47553754
-0.35075384
-0.17592665
0.0051254113
0.13332004
0.21707049
0.26636284
0.28122606
0.27242372
0.23365655
0.17332166
0.091769043
-0.00028123482
-0.088107157
-0.15352822
-0.18236799
-0.17868679
-0.15794541
-0.13420748
-0.11544961
-0.10551916
-0.10239505
-0.10397645
-0.10719207
-0.10947078
-0.10917069
-0.10560795
-0.098874044
-0.08954914
-0.078468391
-0.06646738
-0.054354771
-0.042717008
-0.032105679
-0.022865697
-0.015173059
-0.0097035398
-0.0056190469
-0.42414365
-0.25152729
-0.12550069
-0.17091222
-0.21463275
-0.1597421
-0.04839974
-0.0062761105
-0.49084671
-0.37840952
-0.2007846
-0.021229548
0.11231278
0.20378894
0.25950263
0.28294581
0.27064668
0.23653958
0.17156687
0.085269659
-0.01767942
-0.12059388
-0.20096913
-0.23822673
-0.23198222
-0.2016127
-0.16610055
-0.1365908
-0.11808644
-0.11012695
-0.10969613
-0.11316937
-0.1170904
-0.11897928
-0.1175173
-0.11239022
-0.10399949
-0.09313427
-0.080743126
-0.06769648
-0.054799365
-0.042598023
-0.031612002
-0.02211807
-0.014277326
-0.0087052615
-0.0045790743
-0.49354082
-0.41253802
-0.23845827
-0.14537268
-0.17944072
-0.2271251
-0.17007621
-0.036602602
-0.0076078536
-0.39753194
-0.22012428
-0.047654638
0.088383193
0.18644466
0.24943545
0.27928167
0.27521658
0.23318747
0.16999149
0.075172446
-0.038367626
-0.15819298
-0.25853862
-0.30717093
-0.29936822
-0.25754762
-0.20737892
-0.16384681
-0.13422683
-0.11893583
-0.1149555
-0.11783557
-0.12316999
-0.1274766
-0.12860803
-0.12569204
-0.1188223
-0.10870004
-0.096293754
-0.082634393
-0.06860506
-0.054993412
-0.042294001
-0.030983377
-0.021268228
-0.013306689
-0.0076578325
-0.0035073603
-0.406158
-0.48244905
-0.38958774
-0.21992759
-0.15979561
-0.18430247
-0.23366714
-0.17547905
-0.025743231
-0.0075791568
-0.23359402
-0.073332431
0.061616803
0.1648923
0.23501709
0.27061799
0.27415725
0.23984996
0.16376062
0.065136941
-0.062928148
-0.20223742
-0.32543015
-0.39229003
-0.38388236
-0.32840195
-0.26021847
-0.19891566
-0.15494808
-0.12959747
-0.11998969
-0.12106198
-0.12732768
-0.13414497
-0.13833917
-0.13828121
-0.1336168
-0.12484823
-0.1129448
-0.099016025
-0.08414493
-0.069207334
-0.054956692
-0.041819237
-0.030223439
-0.020319336
-0.012274883
-0.0065783429
-0.0024105385
-0.24138292
-0.4038642
-0.45810848
-0.35595122
-0.19695182
-0.16545376
-0.18585477
-0.23425389
-0.1762567
-0.015905423
-0.0064522375
-0.097615178
0.032302749
0.13883879
0.21540221
0.25782925
0.26628083
0.24072871
0.17159422
0.053789014
-0.089095106
-0.25093633
-0.4051993
-0.49345408
-0.48895318
-0.41784688
-0.32632211
-0.24377596
-0.18158623
-0.14296594
-0.12522647
-0.12282815
-0.12922608
-0.13845819
-0.14611053
-0.14958418
-0.14788708
-0.14120295
-0.13041208
-0.11670564
-0.10129463
-0.085285839
-0.06952408
-0.05470466
-0.041175237
-0.029332931
-0.019290709
-0.011209486
-0.00547778
-0.0012866353
-0.12010543
-0.24379047
-0.39126779
-0.42133498
-0.31396073
-0.16932762
-0.1620617
-0.18415119
-0.22931286
-0.17293193
-0.0070661456
-0.0048442617
0.00077606264
0.10799037
0.1900041
0.23912971
0.25341539
0.23309585
0.17359475
0.060736867
-0.10990349
-0.30664796
-0.49210388
-0.61689039
-0.61632746
-0.52911765
-0.40986545
-0.30040023
-0.21580334
-0.16013994
-0.13125549
-0.12326687
-0.12861023
-0.13990809
-0.15129272
-0.15895528
-0.1610571
-0.15729241
-0.14835859
-0.1354606
-0.11996102
-0.10313401
-0.086077106
-0.069571152
-0.054236155
-0.040359716
-0.028337599
-0.018227427
-0.010127765
-0.004338823
-7.2604071e-05
-0.032730003
-0.14097468
-0.24183473
-0.36905455
-0.37559293
-0.26657801
-0.13773143
-0.1507775
-0.17972972
-0.21974084
-0.16570317
0.0011104556
-0.0034226624
0.072144792
0.15798824
0.21317733
0.23421101
0.21893224
0.16566351
0.062461855
-0.10946562
-0.34472267
-0.59651742
-0.75270547
-0.77178762
-0.66563088
-0.51496597
-0.37124624
-0.25908551
-0.18245115
-0.13891447
-0.12268933
-0.12535363
-0.13804438
-0.15325207
-0.1657053
-0.17247141
-0.17256484
-0.1663547
-0.15499364
-0.13994882
-0.12270343
-0.10455045
-0.086533544
-0.069343732
-0.053545259
-0.039406455
-0.027303024
-0.017155333
-0.0089922578
-0.0030505269
0.0012349031
0.030986395
-0.068384549
-0.15988242
-0.236684
-0.33924352
-0.3254521
-0.21698239
-0.10350223
-0.13283413
-0.17223398
-0.20449671
-0.15687484
0.0097734533
-0.0021096432
0.11837744
0.17872056
0.20640173
0.19759622
0.14943941
0.053589208
-0.11245495
-0.36332002
-0.66760325
-0.92042215
-0.94271447
-0.82543881
-0.64359389
-0.46133884
-0.31387975
-0.21116614
-0.14924761
-0.12164956
-0.11949929
-0.13252211
-0.15139303
-0.16912461
-0.18142404
-0.18638793
-0.18389523
-0.17493157
-0.16102808
-0.14384962
-0.12494099
-0.10555538
-0.086645222
-0.068831386
-0.052674445
-0.038406102
-0.026266021
-0.015999078
-0.0076199982
-0.0016708087
0.0026100885
0.070105775
-0.016347645
-0.1055953
-0.17677344
-0.22988847
-0.30497471
-0.2748496
-0.16866215
-0.068163069
-0.11171784
-0.16070732
-0.19423814
-0.14572169
0.01857373
-0.0003062797
0.13391079
0.16822797
0.16651368
0.1246335
0.034730829
-0.12510838
-0.38215242
-0.73303912
-1.0541345
-1.1560483
-0.9994365
-0.78360363
-0.56835313
-0.38416358
-0.24871563
-0.16343872
-0.12093042
-0.11132484
-0.12315046
-0.14520406
-0.16852639
-0.18717529
-0.19808046
-0.20039726
-0.19483435
-0.18289204
-0.16640457
-0.14715647
-0.12667808
-0.10613157
-0.086395834
-0.06808593
-0.051742343
-0.037408117
-0.025109226
-0.014448372
-0.0061685006
-0.00021541
0.0040501882
0.07715184
0.01117104
-0.069819893
-0.14461738
-0.19273832
-0.22325358
-0.27009773
-0.2258485
-0.12303362
-0.033433103
-0.090568306
-0.14816785
-0.17575694
-0.13338597
0.026738725
0.0019140041
0.11733311
0.12343663
0.088729436
0.005664505
-0.14930208
-0.40786846
-0.79287977
-1.2132742
-1.3616399
-1.2204817
-0.93969881
-0.67956046
-0.46553043
-0.29779066
-0.18362175
-0.12158674
-0.10136386
-0.10996428
-0.13431097
-0.16329069
-0.1890032
-0.20690287
-0.21523209
-0.21418183
-0.20517861
-0.19013379
-0.17109296
-0.14986131
-0.12788681
-0.10625482
-0.085846538
-0.067257192
-0.050813283
-0.036241843
-0.023362824
-0.012817809
-0.0046269891
0.0013066814
0.0055552417
0.050926638
0.0044052623
-0.059676821
-0.13040427
-0.18610748
-0.20820706
-0.21676106
-0.2360185
-0.18047387
-0.081019995
-0.0028594701
-0.070865162
-0.13364672
-0.15587039
-0.12088711
0.032409715
0.0041401343
0.065917305
0.039290682
-0.036036426
-0.1853199
-0.44806775
-0.85360195
-1.3653232
-1.6405692
-1.4597088
-1.1408087
-0.80624782
-0.54953703
-0.35543127
-0.2118373
-0.12538035
-0.090469464
-0.093262467
-0.11855694
-0.15291896
-0.18623604
-0.21216124
-0.22771485
-0.2323961
-0.22745303
-0.21475684
-0.19659182
-0.17506505
-0.15192062
-0.12853201
-0.10599522
-0.085180837
-0.066426115
-0.049658534
-0.034227703
-0.021532416
-0.011083381
-0.0030178277
0.0028971411
0.0071241161
-0.0089216406
-0.035311474
-0.08695034
-0.14474976
-0.19892186
-0.23082575
-0.22410591
-0.21081146
-0.20456025
-0.14119304
-0.045572209
0.023484954
-0.054634335
-0.11709462
-0.13403326
-0.10795215
0.033781439
0.0062788458
-0.025895879
-0.092956938
-0.23511735
-0.50305363
-0.93616643
-1.5207474
-1.9365908
-1.8036558
-1.3677298
-0.96457619
-0.64363448
-0.4164852
-0.24741296
-0.13400682
-0.080065837
-0.07367709
-0.098032427
-0.13712038
-0.17831419
-0.21318207
-0.23720633
-0.24898512
-0.24923988
-0.23995117
-0.22345949
-0.2022065
-0.17825455
-0.15328363
-0.12869161
-0.10557253
-0.084498336
-0.065298651
-0.047341386
-0.032108449
-0.01957707
-0.0092864245
-0.0013349381
0.004554048
0.0087555842
-0.10893991
-0.10554993
-0.14489996
-0.20127431
-0.24585844
-0.27610609
-0.27809544
-0.24184446
-0.20735579
-0.17939623
-0.10966244
-0.013956568
0.041494299
-0.039561064
-0.098840963
-0.11087969
-0.093336274
0.031223037
0.0082405902
-0.16718439
-0.30133958
-0.57326007
-1.0399208
-1.7154269
-2.2909937
-2.2004049
-1.7089622
-1.1528639
-0.75535356
-0.48247378
-0.28789879
-0.14842097
-0.071574379
-0.052350103
-0.073183809
-0.11581783
-0.1648704
-0.20940191
-0.24307993
-0.26328884
-0.27011585
-0.26535669
-0.25146044
-0.23117991
-0.20687896
-0.18058834
-0.15403428
-0.12862437
-0.10510716
-0.083434402
-0.062623706
-0.044876457
-0.029842856
-0.017564193
-0.0074143229
0.00041804478
0.0062760285
0.010448074
-0.25981456
-0.21340594
-0.22664754
-0.28369578
-0.34193429
-0.36428109
-0.36267312
-0.32774462
-0.26223813
-0.20819487
-0.1606994
-0.080319271
0.0098661335
0.056962836
-0.025859393
-0.079054729
-0.086738674
-0.076115499
0.025310243
0.010092351
-0.3860962
-0.66118403
-1.1604944
-1.9387236
-2.7080948
-2.7178254
-2.1298348
-1.4550137
-0.9030677
-0.55812784
-0.33072753
-0.16907371
-0.066679688
-0.030490141
-0.044917321
-0.089336494
-0.14571052
-0.20042939
-0.24481547
-0.27479305
-0.28957308
-0.29057065
-0.28037428
-0.26185433
-0.23777296
-0.2105043
-0.18215391
-0.15447398
-0.12847402
-0.10415705
-0.080358001
-0.059726859
-0.042239414
-0.027529678
-0.015472705
-0.0054722676
0.0022394261
0.0080609251
0.012199962
-0.48949362
-0.37304839
-0.34004494
-0.37804633
-0.45605786
-0.51147764
-0.50090507
-0.45969993
-0.38119676
-0.28705459
-0.21254966
-0.14133282
-0.055950183
0.030143725
0.069050627
-0.013894687
-0.058332783
-0.065556619
-0.056705324
0.018450708
0.011590968
-0.76896428
-1.2973225
-2.1782804
-3.1677428
-3.351336
-2.6853383
-1.8405123
-1.1439156
-0.67562671
-0.37875953
-0.1914122
-0.068345814
-0.0098749224
-0.014290138
-0.058346789
-0.12111185
-0.18602271
-0.24204306
-0.28306191
-0.3071917
-0.31531144
-0.30992717
-0.29410394
-0.2709014
-0.24308846
-0.21317032
-0.18330069
-0.15477296
-0.12771279
-0.10063398
-0.07694315
-0.056630753
-0.039566425
-0.025137035
-0.013310468
-0.0034614747
0.0041258291
0.0099065706
0.014009852
-0.89502343
-0.61304649
-0.50461013
-0.49328656
-0.56354347
-0.66506714
-0.71132978
-0.65689721
-0.56782874
-0.44079892
-0.31580261
-0.21151732
-0.12482303
-0.034443716
0.045156384
0.076181815
-0.0045052834
-0.040304706
-0.049391446
-0.039716213
0.012622796
0.011723652
-1.4527059
-2.4244807
-3.6569254
-4.1062473
-3.4036689
-2.3553826
-1.4503283
-0.8659015
-0.47482496
-0.21579525
-0.07182672
0.0051977636
0.017015826
-0.023764229
-0.091459046
-0.16648312
-0.23453679
-0.28778483
-0.3226478
-0.3392567
-0.3398977
-0.3277861
-0.30623724
-0.27839261
-0.24721093
-0.21528286
-0.18422982
-0.15430534
-0.12370057
-0.096603016
-0.073299671
-0.053513855
-0.036812912
-0.022675357
-0.01107849
-0.0013860465
0.0060740839
0.01181158
0.015875985
-1.6288084
-1.0355929
-0.75129246
-0.6568638
-0.67501198
-0.78476024
-0.9116744
-0.94249687
-0.83091164
-0.68572508
-0.5082213
-0.33698125
-0.20983649
-0.10950718
-0.017758371
0.054618861
0.077948421
0.0047179955
-0.027763899
-0.036753173
-0.027589363
0.0085182376
0.0096993622
-2.6697946
-4.1947133
-4.931677
-4.2956184
-3.0311512
-1.8555067
-1.1034284
-0.63044136
-0.29459213
-0.075424443
0.018368963
0.044723053
0.012548782
-0.057532891
-0.14190198
-0.22265029
-0.28879065
-0.33572747
-0.36221176
-0.37015067
-0.36280736
-0.34375269
-0.31647795
-0.2844053
-0.25061575
-0.21708006
-0.18419852
-0.14976313
-0.11894584
-0.092311851
-0.069653171
-0.050316813
-0.033992435
-0.020144732
-0.0087821747
0.00075049915
0.0080826495
0.013775995
0.017794779
-2.9096076
-1.8160681
-1.1760318
-0.90504281
-0.82879108
-0.88429776
-1.040656
-1.194547
-1.2030609
-1.0164078
-0.81387208
-0.56454035
-0.35326396
-0.20682524
-0.096853175
-0.0056962884
0.058614275
0.073921508
0.012976577
-0.019072077
-0.027008986
-0.019139594
0.0065964842
0.0082825766
-4.7262097
-5.8088248
-5.359861
-3.8652952
-2.3904011
-1.4025143
-0.82594735
-0.42055588
-0.13975923
0.03274593
0.070325811
0.047836873
-0.02172247
-0.11307199
-0.20637144
-0.2864013
-0.34636103
-0.38409437
-0.40061815
-0.39915137
-0.38346847
-0.35741925
-0.32489655
-0.28950486
-0.25358677
-0.21767363
-0.17908494
-0.14416841
-0.11389634
-0.088038054
-0.065927514
-0.047056345
-0.031103985
-0.01755151
-0.0064259308
0.0029478669
0.010153599
0.015794614
0.019764372
-5.1798168
-3.1199697
-1.9736278
-1.3192553
-1.0693471
-1.0162761
-1.1173646
-1.3268634
-1.508483
-1.4854086
-1.2146053
-0.93699312
-0.60532115
-0.36608653
-0.20405587
-0.086881827
0.0015682299
0.057619062
0.06549518
0.016868094
-0.012703335
-0.019661489
-0.013129285
0.0056022855
0.0076301408
-6.6837257
-6.5080101
-4.869351
-3.0651593
-1.7815364
-1.0597846
-0.58901064
-0.23637819
-0.017547874
0.099725883
0.079687746
0.016264374
-0.082591592
-0.18748594
-0.28035517
-0.35488806
-0.40498575
-0.43136603
-0.43687891
-0.42547726
-0.40133181
-0.36884477
-0.33217443
-0.29403315
-0.25504744
-0.21194369
-0.17252478
-0.13823869
-0.10888717
-0.083686599
-0.062142646
-0.043729849
-0.028154964
-0.014900501
-0.0040091475
0.0052131393
0.012276959
0.017864156
0.021782505
-7.455165
-5.4805876
-3.3049923
-2.10052
-1.4656428
-1.2359915
-1.2127101
-1.3673648
-1.6348277
-1.8459838
-1.7774079
-1.4195076
-1.0301386
-0.64430617
-0.37771349
-0.20136418
-0.08003968
0.0041955605
0.052128485
0.055177416
0.016910221
-0.0087125411
-0.014389998
-0.0094574778
0.0035787687
0.0071702487
-7.6512318
-5.9853513
-3.8418231
-2.2514699
-1.3380328
-0.78818841
-0.38001189
-0.086662912
0.065720189
0.12006566
0.048006031
-0.045986241
-0.16881727
-0.27230283
-0.36103103
-0.42522294
-0.46262963
-0.4762017
-0.46993951
-0.44839181
-0.4164442
-0.37886804
-0.3387284
-0.29666392
-0.24864666
-0.20428469
-0.16557953
-0.13237466
-0.10380178
-0.079280686
-0.058293887
-0.040345614
-0.025150564
-0.012189332
-0.0015187642
0.0075306874
0.014449009
0.019980576
0.023847219
-8.6550951
-7.9917082
-5.617249
-3.4919122
-2.2106832
-1.6046634
-1.3957538
-1.4090213
-1.6234825
-1.9564947
-2.1811441
-2.0847428
-1.5803982
-1.1178851
-0.67736589
-0.38823938
-0.19919762
-0.07650231
0.0024229629
0.043235722
0.043735308
0.014219615
-0.0067662364
-0.011175591
-0.00689809
0.0015643003
0.0068577879
-7.1043127
-4.7068253
-2.802851
-1.6623442
-1.0150218
-0.55684877
-0.20474938
0.022453255
0.10467422
0.092276352
-0.019506819
-0.1301921
-0.26130335
-0.36655244
-0.44483088
-0.49483989
-0.51751504
-0.51719789
-0.49883574
-0.46793647
-0.42985729
-0.38800426
-0.34289742
-0.28952093
-0.239748
-0.19617381
-0.15872806
-0.12643477
-0.098666551
-0.074813008
-0.054390181
-0.036909014
-0.022086374
-0.0093970647
0.0010232323
0.0098956019
0.016665004
0.022140881
0.025956148
-8.088972
-9.3463821
-8.2263992
-5.6093739
-3.5759264
-2.2879425
-1.7206966
-1.5385335
-1.5934321
-1.8765678
-2.2621841
-2.5324293
-2.3462586
-1.7418852
-1.1935454
-0.70210044
-0.39774628
-0.19790315
-0.076214948
-0.0030832167
0.031897202
0.031769219
0.0097209857
-0.0064323013
-0.0096227173
-0.0056197606
-0.001168295
0.0064582918
-5.5721478
-3.4077707
-2.0270125
-1.2641373
-0.75965236
-0.35873744
-0.073661845
0.089769874
0.095885405
0.02165271
-0.11508255
-0.24671303
-0.36992819
-0.46559094
-0.52834885
-0.56133863
-0.56778054
-0.55309938
-0.52362219
-0.48544839
-0.44221666
-0.39414534
-0.33491375
-0.2792359
-0.23030391
-0.18818851
-0.15179869
-0.12044876
-0.093470864
-0.070292962
-0.050436791
-0.033413143
-0.018931575
-0.0065536879
0.0036108074
0.012301266
0.018922569
0.024341858
0.028105278
-6.3118868
-8.7629599
-9.608096
-8.1018239
-5.4388157
-3.4990286
-2.3139788
-1.8013627
-1.6540259
-1.7524691
-2.100226
-2.589917
-2.8585811
-2.6061225
-1.8872791
-1.2424708
-0.72026287
-0.40413433
-0.19765529
-0.078853339
-0.011415404
0.019156811
0.019766369
0.0040729698
-0.0074801274
-0.0097842701
-0.0055352375
-0.0038805843
0.005424419
-4.0189138
-2.4102831
-1.5290459
-0.97404372
-0.54590736
-0.20668914
0.01200759
0.1105459
0.038492745
-0.086480459
-0.23942093
-0.37441028
-0.48584251
-0.56491095
-0.60836593
-0.62221463
-0.6117251
-0.58395802
-0.5459943
-0.50174437
-0.45082495
-0.38518231
-0.32309002
-0.26827054
-0.22102301
-0.180119
-0.14482499
-0.11440196
-0.088224273
-0.065725442
-0.046423665
-0.029815389
-0.015724728
-0.0036669058
0.0062360341
0.014745626
0.021219316
0.026577639
0.030289427
-4.5150873
-6.7841788
-8.9821219
-9.3563004
-7.6207309
-5.0851779
-3.3184584
-2.2853186
-1.8400466
-1.7324862
-1.8745401
-2.3315439
-2.8926266
-3.1876421
-2.8402595
-2.0026165
-1.2443237
-0.73075719
-0.40474741
-0.19817272
-0.083855371
-0.021624637
0.0058723624
0.0080896104
-0.0020232577
-0.0093334059
-0.010400966
-0.0062853473
-0.0056211704
0.0041017805
-2.765528
-1.7916057
-1.1900085
-0.74620575
-0.37831937
-0.10577693
0.057737095
0.082487589
-0.061068443
-0.22401495
-0.38214511
-0.51058377
-0.60305234
-0.66024056
-0.68151098
-0.67528262
-0.64937637