/*--------------------------------*- C++ -*----------------------------------*\
| =========                 |                                                 |
| \\      /  F ield         | OpenFOAM: The Open Source CFD Toolbox           |
|  \\    /   O peration     | Version:  v2012                                 |
|   \\  /    A nd           | Website:  www.openfoam.com                      |
|    \\/     M anipulation  |                                                 |
\*---------------------------------------------------------------------------*/
FoamFile
{
    version     2.0;
    format      ascii;
    class       pointVectorField;
    location    "62.4493107631428899";
    object      pointDisplacement;
}
// * * * * * * * * * * * * * * * * * * * * * * * * * * * * * * * * * * * * * //

dimensions      [0 1 0 0 0 0 0];


internalField   nonuniform List<vector> 
18840
(
(0.34259018 0 0)
(0.34264128 0 0)
(0.34279367 0 0)
(0.34304562 0 0)
(0.34339567 0 0)
(0.34384254 0 0)
(0.34438506 0 0)
(0.34502215 0 0)
(0.34575277 0 0)
(0.34657594 0 0)
(0.34749074 0 0)
(0.34849619 0 0)
(0.34959135 0 0)
(0.35077526 0 0)
(0.35204698 0 0)
(0.35340539 0 0)
(0.35484937 0 0)
(0.35637756 0 0)
(0.35798829 0 0)
(0.35967946 0 0)
(0.36179007 0 0)
(0.34259018 0 0)
(0.34264101 0 0)
(0.34279255 0 0)
(0.34304305 0 0)
(0.343391 0 0)
(0.34383508 0 0)
(0.34437409 0 0)
(0.34500688 0 0)
(0.34573239 0 0)
(0.34654958 0 0)
(0.34745745 0 0)
(0.348455 0 0)
(0.34954122 0 0)
(0.3507151 0 0)
(0.35197559 0 0)
(0.3533216 0 0)
(0.35475192 0 0)
(0.35626522 0 0)
(0.35785988 0 0)
(0.35953406 0 0)
(0.36125961 0 0)
(0.34259018 0 0)
(0.34264077 0 0)
(0.34279158 0 0)
(0.3430408 0 0)
(0.34338687 0 0)
(0.3438284 0 0)
(0.34436413 0 0)
(0.34499284 0 0)
(0.34571339 0 0)
(0.34652465 0 0)
(0.34742553 0 0)
(0.34841493 0 0)
(0.34949174 0 0)
(0.35065484 0 0)
(0.35190308 0 0)
(0.35323525 0 0)
(0.35465009 0 0)
(0.35614625 0 0)
(0.35772226 0 0)
(0.35937659 0 0)
(0.36110341 0 0)
(0.34259018 0 0)
(0.34264047 0 0)
(0.34279036 0 0)
(0.343038 0 0)
(0.34338176 0 0)
(0.3438202 0 0)
(0.34435198 0 0)
(0.3449758 0 0)
(0.34569041 0 0)
(0.34649459 0 0)
(0.34738712 0 0)
(0.34836679 0 0)
(0.34943235 0 0)
(0.35058253 0 0)
(0.35181602 0 0)
(0.35313146 0 0)
(0.3545274 0 0)
(0.35600238 0 0)
(0.35755474 0 0)
(0.35918283 0 0)
(0.36090056 0 0)
(0.34259018 0 0)
(0.3426401 0 0)
(0.34278889 0 0)
(0.34303467 0 0)
(0.34337573 0 0)
(0.34381059 0 0)
(0.34433781 0 0)
(0.34495599 0 0)
(0.34566379 0 0)
(0.34645986 0 0)
(0.34734287 0 0)
(0.34831144 0 0)
(0.34936417 0 0)
(0.35049961 0 0)
(0.35171628 0 0)
(0.35301259 0 0)
(0.3543869 0 0)
(0.35583746 0 0)
(0.35736241 0 0)
(0.35895975 0 0)
(0.36066152 0 0)
(0.34259018 0 0)
(0.34263968 0 0)
(0.34278719 0 0)
(0.34303082 0 0)
(0.34336882 0 0)
(0.34379963 0 0)
(0.34432174 0 0)
(0.34493365 0 0)
(0.3456339 0 0)
(0.34642103 0 0)
(0.34729354 0 0)
(0.34824991 0 0)
(0.34928857 0 0)
(0.35040789 0 0)
(0.35160617 0 0)
(0.35288162 0 0)
(0.35423231 0 0)
(0.35565628 0 0)
(0.3571513 0 0)
(0.35871518 0 0)
(0.36039582 0 0)
(0.34259018 0 0)
(0.3426392 0 0)
(0.34278526 0 0)
(0.34302644 0 0)
(0.34336101 0 0)
(0.34378732 0 0)
(0.3443038 0 0)
(0.34490884 0 0)
(0.3456009 0 0)
(0.34637837 0 0)
(0.34723962 0 0)
(0.34818295 0 0)
(0.34920662 0 0)
(0.35030884 0 0)
(0.35148767 0 0)
(0.3527411 0 0)
(0.35406694 0 0)
(0.35546299 0 0)
(0.35692671 0 0)
(0.35845559 0 0)
(0.36011116 0 0)
(0.34259018 0 0)
(0.34263865 0 0)
(0.34278307 0 0)
(0.34302152 0 0)
(0.34335225 0 0)
(0.34377357 0 0)
(0.34428385 0 0)
(0.34488144 0 0)
(0.34556465 0 0)
(0.34633178 0 0)
(0.34718107 0 0)
(0.34811066 0 0)
(0.34911865 0 0)
(0.35020302 0 0)
(0.35136168 0 0)
(0.35259237 0 0)
(0.3538927 0 0)
(0.35526013 0 0)
(0.35669195 0 0)
(0.35818523 0 0)
(0.35981276 0 0)
(0.34259018 0 0)
(0.34263804 0 0)
(0.34278062 0 0)
(0.34301603 0 0)
(0.34334249 0 0)
(0.3437583 0 0)
(0.34426178 0 0)
(0.34485123 0 0)
(0.34552489 0 0)
(0.34628096 0 0)
(0.34711754 0 0)
(0.34803268 0 0)
(0.3490243 0 0)
(0.35009021 0 0)
(0.35122812 0 0)
(0.35243558 0 0)
(0.35371 0 0)
(0.35504857 0 0)
(0.35644832 0 0)
(0.35790608 0 0)
(0.35950316 0 0)
(0.34259018 0 0)
(0.34263736 0 0)
(0.34277791 0 0)
(0.34300996 0 0)
(0.34333174 0 0)
(0.34374151 0 0)
(0.34423757 0 0)
(0.34481817 0 0)
(0.34548152 0 0)
(0.34622574 0 0)
(0.34704885 0 0)
(0.34794877 0 0)
(0.3489233 0 0)
(0.34997012 0 0)
(0.35108675 0 0)
(0.35227058 0 0)
(0.35351882 0 0)
(0.35482846 0 0)
(0.35619632 0 0)
(0.35761894 0 0)
(0.35918371 0 0)
(0.34259018 0 0)
(0.34263671 0 0)
(0.34277532 0 0)
(0.34300415 0 0)
(0.34332141 0 0)
(0.34372535 0 0)
(0.34421422 0 0)
(0.34478625 0 0)
(0.34543959 0 0)
(0.34617231 0 0)
(0.34698235 0 0)
(0.34786755 0 0)
(0.34882558 0 0)
(0.34985401 0 0)
(0.35095023 0 0)
(0.35211145 0 0)
(0.35333472 0 0)
(0.35461684 0 0)
(0.35595444 0 0)
(0.35734385 0 0)
(0.35887557 0 0)
(0.34259018 0 0)
(0.34264128 0 0)
(0.34279367 0 0)
(0.34304562 0 0)
(0.34339567 0 0)
(0.34384254 0 0)
(0.34438506 0 0)
(0.34502215 0 0)
(0.34575277 0 0)
(0.34657594 0 0)
(0.34749074 0 0)
(0.34849619 0 0)
(0.34959135 0 0)
(0.35077526 0 0)
(0.35204698 0 0)
(0.35340539 0 0)
(0.35484937 0 0)
(0.35637756 0 0)
(0.35798829 0 0)
(0.35967946 0 0)
(0.36179007 0 0)
(0.34259018 0 0)
(0.34264101 0 0)
(0.34279255 0 0)
(0.34304305 0 0)
(0.343391 0 0)
(0.34383508 0 0)
(0.34437409 0 0)
(0.34500688 0 0)
(0.34573239 0 0)
(0.34654958 0 0)
(0.34745745 0 0)
(0.348455 0 0)
(0.34954122 0 0)
(0.3507151 0 0)
(0.35197559 0 0)
(0.3533216 0 0)
(0.35475192 0 0)
(0.35626522 0 0)
(0.35785988 0 0)
(0.35953406 0 0)
(0.36125961 0 0)
(0.34259018 0 0)
(0.34264077 0 0)
(0.34279158 0 0)
(0.3430408 0 0)
(0.34338687 0 0)
(0.3438284 0 0)
(0.34436413 0 0)
(0.34499284 0 0)
(0.34571339 0 0)
(0.34652465 0 0)
(0.34742553 0 0)
(0.34841493 0 0)
(0.34949174 0 0)
(0.35065484 0 0)
(0.35190308 0 0)
(0.35323525 0 0)
(0.35465009 0 0)
(0.35614625 0 0)
(0.35772226 0 0)
(0.35937659 0 0)
(0.36110341 0 0)
(0.34259018 0 0)
(0.34264047 0 0)
(0.34279036 0 0)
(0.343038 0 0)
(0.34338176 0 0)
(0.3438202 0 0)
(0.34435198 0 0)
(0.3449758 0 0)
(0.34569041 0 0)
(0.34649459 0 0)
(0.34738712 0 0)
(0.34836679 0 0)
(0.34943235 0 0)
(0.35058253 0 0)
(0.35181602 0 0)
(0.35313146 0 0)
(0.3545274 0 0)
(0.35600238 0 0)
(0.35755474 0 0)
(0.35918283 0 0)
(0.36090056 0 0)
(0.34259018 0 0)
(0.3426401 0 0)
(0.34278889 0 0)
(0.34303467 0 0)
(0.34337573 0 0)
(0.34381059 0 0)
(0.34433781 0 0)
(0.34495599 0 0)
(0.34566379 0 0)
(0.34645986 0 0)
(0.34734287 0 0)
(0.34831144 0 0)
(0.34936417 0 0)
(0.35049961 0 0)
(0.35171628 0 0)
(0.35301259 0 0)
(0.3543869 0 0)
(0.35583746 0 0)
(0.35736241 0 0)
(0.35895975 0 0)
(0.36066152 0 0)
(0.34259018 0 0)
(0.34263968 0 0)
(0.34278719 0 0)
(0.34303082 0 0)
(0.34336882 0 0)
(0.34379963 0 0)
(0.34432174 0 0)
(0.34493365 0 0)
(0.3456339 0 0)
(0.34642103 0 0)
(0.34729354 0 0)
(0.34824991 0 0)
(0.34928857 0 0)
(0.35040789 0 0)
(0.35160617 0 0)
(0.35288162 0 0)
(0.35423231 0 0)
(0.35565628 0 0)
(0.3571513 0 0)
(0.35871518 0 0)
(0.36039582 0 0)
(0.34259018 0 0)
(0.3426392 0 0)
(0.34278526 0 0)
(0.34302644 0 0)
(0.34336101 0 0)
(0.34378732 0 0)
(0.3443038 0 0)
(0.34490884 0 0)
(0.3456009 0 0)
(0.34637837 0 0)
(0.34723962 0 0)
(0.34818295 0 0)
(0.34920662 0 0)
(0.35030884 0 0)
(0.35148767 0 0)
(0.3527411 0 0)
(0.35406694 0 0)
(0.35546299 0 0)
(0.35692671 0 0)
(0.35845559 0 0)
(0.36011116 0 0)
(0.34259018 0 0)
(0.34263865 0 0)
(0.34278307 0 0)
(0.34302152 0 0)
(0.34335225 0 0)
(0.34377357 0 0)
(0.34428385 0 0)
(0.34488144 0 0)
(0.34556465 0 0)
(0.34633178 0 0)
(0.34718107 0 0)
(0.34811066 0 0)
(0.34911865 0 0)
(0.35020302 0 0)
(0.35136168 0 0)
(0.35259237 0 0)
(0.3538927 0 0)
(0.35526013 0 0)
(0.35669195 0 0)
(0.35818523 0 0)
(0.35981276 0 0)
(0.34259018 0 0)
(0.34263804 0 0)
(0.34278062 0 0)
(0.34301603 0 0)
(0.34334249 0 0)
(0.3437583 0 0)
(0.34426178 0 0)
(0.34485123 0 0)
(0.34552489 0 0)
(0.34628096 0 0)
(0.34711754 0 0)
(0.34803268 0 0)
(0.3490243 0 0)
(0.35009021 0 0)
(0.35122812 0 0)
(0.35243558 0 0)
(0.35371 0 0)
(0.35504857 0 0)
(0.35644832 0 0)
(0.35790608 0 0)
(0.35950316 0 0)
(0.34259018 0 0)
(0.34263736 0 0)
(0.34277791 0 0)
(0.34300996 0 0)
(0.34333174 0 0)
(0.34374151 0 0)
(0.34423757 0 0)
(0.34481817 0 0)
(0.34548152 0 0)
(0.34622574 0 0)
(0.34704885 0 0)
(0.34794877 0 0)
(0.3489233 0 0)
(0.34997012 0 0)
(0.35108675 0 0)
(0.35227058 0 0)
(0.35351882 0 0)
(0.35482846 0 0)
(0.35619632 0 0)
(0.35761894 0 0)
(0.35918371 0 0)
(0.34259018 0 0)
(0.34263671 0 0)
(0.34277532 0 0)
(0.34300415 0 0)
(0.34332141 0 0)
(0.34372535 0 0)
(0.34421422 0 0)
(0.34478625 0 0)
(0.34543959 0 0)
(0.34617231 0 0)
(0.34698235 0 0)
(0.34786755 0 0)
(0.34882558 0 0)
(0.34985401 0 0)
(0.35095023 0 0)
(0.35211145 0 0)
(0.35333472 0 0)
(0.35461684 0 0)
(0.35595444 0 0)
(0.35734385 0 0)
(0.35887557 0 0)
(0.34259018 0 0)
(0.34264459 0 0)
(0.34280688 0 0)
(0.34307521 0 0)
(0.34344801 0 0)
(0.34392399 0 0)
(0.3445019 0 0)
(0.3451804 0 0)
(0.34595815 0 0)
(0.34683372 0 0)
(0.34780568 0 0)
(0.34887242 0 0)
(0.35003224 0 0)
(0.35128312 0 0)
(0.35262297 0 0)
(0.35404937 0 0)
(0.35555966 0 0)
(0.3571508 0 0)
(0.35881957 0 0)
(0.36056279 0 0)
(0.36252906 0 0)
(0.34259018 0 0)
(0.34264432 0 0)
(0.34280577 0 0)
(0.34307268 0 0)
(0.34344344 0 0)
(0.34391676 0 0)
(0.34449137 0 0)
(0.34516594 0 0)
(0.34593917 0 0)
(0.3468097 0 0)
(0.34777611 0 0)
(0.34883679 0 0)
(0.34999005 0 0)
(0.35123398 0 0)
(0.35256651 0 0)
(0.35398522 0 0)
(0.35548761 0 0)
(0.35707079 0 0)
(0.35873168 0 0)
(0.36046726 0 0)
(0.36242514 0 0)
(0.34259018 0 0)
(0.34264409 0 0)
(0.34280483 0 0)
(0.34307053 0 0)
(0.34343957 0 0)
(0.34391064 0 0)
(0.34448245 0 0)
(0.34515373 0 0)
(0.3459232 0 0)
(0.34678951 0 0)
(0.34775128 0 0)
(0.34880696 0 0)
(0.34995491 0 0)
(0.35119324 0 0)
(0.35251997 0 0)
(0.35393285 0 0)
(0.35542948 0 0)
(0.35700709 0 0)
(0.35866286 0 0)
(0.36039401 0 0)
(0.36234311 0 0)
(0.34259018 0 0)
(0.34264381 0 0)
(0.34280373 0 0)
(0.34306806 0 0)
(0.34343519 0 0)
(0.3439038 0 0)
(0.34447262 0 0)
(0.34514039 0 0)
(0.34590587 0 0)
(0.34676776 0 0)
(0.34772473 0 0)
(0.34877527 0 0)
(0.34991782 0 0)
(0.35115062 0 0)
(0.3524718 0 0)
(0.35387925 0 0)
(0.35537072 0 0)
(0.3569437 0 0)
(0.35859561 0 0)
(0.36032388 0 0)
(0.36226269 0 0)
(0.34259018 0 0)
(0.34264352 0 0)
(0.34280255 0 0)
(0.34306542 0 0)
(0.34343054 0 0)
(0.3438966 0 0)
(0.34446233 0 0)
(0.3451265 0 0)
(0.3458879 0 0)
(0.3467453 0 0)
(0.34769741 0 0)
(0.34874281 0 0)
(0.34988005 0 0)
(0.35110751 0 0)
(0.35242345 0 0)
(0.35382592 0 0)
(0.35531293 0 0)
(0.35688221 0 0)
(0.35853138 0 0)
(0.36025817 0 0)
(0.36218521 0 0)
(0.34259018 0 0)
(0.3426432 0 0)
(0.3428013 0 0)
(0.34306265 0 0)
(0.34342568 0 0)
(0.34388909 0 0)
(0.34445161 0 0)
(0.34511207 0 0)
(0.34586929 0 0)
(0.34672209 0 0)
(0.34766923 0 0)
(0.34870946 0 0)
(0.3498414 0 0)
(0.35106357 0 0)
(0.35237441 0 0)
(0.35377222 0 0)
(0.35525518 0 0)
(0.35682128 0 0)
(0.35846847 0 0)
(0.36019472 0 0)
(0.36210814 0 0)
(0.34259018 0 0)
(0.34264287 0 0)
(0.34279998 0 0)
(0.34305971 0 0)
(0.34342052 0 0)
(0.34388112 0 0)
(0.34444027 0 0)
(0.34509681 0 0)
(0.34584961 0 0)
(0.34669757 0 0)
(0.34763954 0 0)
(0.34867434 0 0)
(0.34980072 0 0)
(0.35101739 0 0)
(0.35232295 0 0)
(0.35371589 0 0)
(0.35519465 0 0)
(0.35675751 0 0)
(0.35840269 0 0)
(0.36012844 0 0)
(0.36202566 0 0)
(0.34259018 0 0)
(0.34264251 0 0)
(0.34279855 0 0)
(0.34305653 0 0)
(0.34341494 0 0)
(0.34387249 0 0)
(0.34442798 0 0)
(0.34508027 0 0)
(0.34582829 0 0)
(0.34667098 0 0)
(0.34760729 0 0)
(0.34863613 0 0)
(0.34975637 0 0)
(0.35096685 0 0)
(0.35226638 0 0)
(0.35365363 0 0)
(0.35512724 0 0)
(0.35668574 0 0)
(0.35832769 0 0)
(0.36005157 0 0)
(0.36192894 0 0)
(0.34259018 0 0)
(0.34264212 0 0)
(0.34279699 0 0)
(0.34305305 0 0)
(0.34340882 0 0)
(0.34386301 0 0)
(0.34441446 0 0)
(0.34506204 0 0)
(0.34580471 0 0)
(0.34664151 0 0)
(0.3475714 0 0)
(0.34859339 0 0)
(0.34970643 0 0)
(0.35090957 0 0)
(0.35220163 0 0)
(0.35358151 0 0)
(0.35504793 0 0)
(0.35659979 0 0)
(0.3582356 0 0)
(0.35995421 0 0)
(0.36180624 0 0)
(0.34259018 0 0)
(0.34264169 0 0)
(0.34279527 0 0)
(0.34304922 0 0)
(0.34340207 0 0)
(0.34385256 0 0)
(0.3443995 0 0)
(0.34504183 0 0)
(0.34577853 0 0)
(0.34660862 0 0)
(0.34753115 0 0)
(0.34854517 0 0)
(0.34964972 0 0)
(0.35084386 0 0)
(0.35212654 0 0)
(0.35349676 0 0)
(0.35495333 0 0)
(0.35649507 0 0)
(0.35812039 0 0)
(0.3598279 0 0)
(0.36164577 0 0)
(0.34259018 0 0)
(0.34264459 0 0)
(0.34280688 0 0)
(0.34307521 0 0)
(0.34344801 0 0)
(0.34392399 0 0)
(0.3445019 0 0)
(0.3451804 0 0)
(0.34595815 0 0)
(0.34683372 0 0)
(0.34780568 0 0)
(0.34887242 0 0)
(0.35003224 0 0)
(0.35128312 0 0)
(0.35262297 0 0)
(0.35404937 0 0)
(0.35555966 0 0)
(0.3571508 0 0)
(0.35881957 0 0)
(0.36056279 0 0)
(0.36252906 0 0)
(0.34259018 0 0)
(0.34264432 0 0)
(0.34280577 0 0)
(0.34307268 0 0)
(0.34344344 0 0)
(0.34391676 0 0)
(0.34449137 0 0)
(0.34516594 0 0)
(0.34593917 0 0)
(0.3468097 0 0)
(0.34777611 0 0)
(0.34883679 0 0)
(0.34999005 0 0)
(0.35123398 0 0)
(0.35256651 0 0)
(0.35398522 0 0)
(0.35548761 0 0)
(0.35707079 0 0)
(0.35873168 0 0)
(0.36046726 0 0)
(0.36242514 0 0)
(0.34259018 0 0)
(0.34264409 0 0)
(0.34280483 0 0)
(0.34307053 0 0)
(0.34343957 0 0)
(0.34391064 0 0)
(0.34448245 0 0)
(0.34515373 0 0)
(0.3459232 0 0)
(0.34678951 0 0)
(0.34775128 0 0)
(0.34880696 0 0)
(0.34995491 0 0)
(0.35119324 0 0)
(0.35251997 0 0)
(0.35393285 0 0)
(0.35542948 0 0)
(0.35700709 0 0)
(0.35866286 0 0)
(0.36039401 0 0)
(0.36234311 0 0)
(0.34259018 0 0)
(0.34264381 0 0)
(0.34280373 0 0)
(0.34306806 0 0)
(0.34343519 0 0)
(0.3439038 0 0)
(0.34447262 0 0)
(0.34514039 0 0)
(0.34590587 0 0)
(0.34676776 0 0)
(0.34772473 0 0)
(0.34877527 0 0)
(0.34991782 0 0)
(0.35115062 0 0)
(0.3524718 0 0)
(0.35387925 0 0)
(0.35537072 0 0)
(0.3569437 0 0)
(0.35859561 0 0)
(0.36032388 0 0)
(0.36226269 0 0)
(0.34259018 0 0)
(0.34264352 0 0)
(0.34280255 0 0)
(0.34306542 0 0)
(0.34343054 0 0)
(0.3438966 0 0)
(0.34446233 0 0)
(0.3451265 0 0)
(0.3458879 0 0)
(0.3467453 0 0)
(0.34769741 0 0)
(0.34874281 0 0)
(0.34988005 0 0)
(0.35110751 0 0)
(0.35242345 0 0)
(0.35382592 0 0)
(0.35531293 0 0)
(0.35688221 0 0)
(0.35853138 0 0)
(0.36025817 0 0)
(0.36218521 0 0)
(0.34259018 0 0)
(0.3426432 0 0)
(0.3428013 0 0)
(0.34306265 0 0)
(0.34342568 0 0)
(0.34388909 0 0)
(0.34445161 0 0)
(0.34511207 0 0)
(0.34586929 0 0)
(0.34672209 0 0)
(0.34766923 0 0)
(0.34870946 0 0)
(0.3498414 0 0)
(0.35106357 0 0)
(0.35237441 0 0)
(0.35377222 0 0)
(0.35525518 0 0)
(0.35682128 0 0)
(0.35846847 0 0)
(0.36019472 0 0)
(0.36210814 0 0)
(0.34259018 0 0)
(0.34264287 0 0)
(0.34279998 0 0)
(0.34305971 0 0)
(0.34342052 0 0)
(0.34388112 0 0)
(0.34444027 0 0)
(0.34509681 0 0)
(0.34584961 0 0)
(0.34669757 0 0)
(0.34763954 0 0)
(0.34867434 0 0)
(0.34980072 0 0)
(0.35101739 0 0)
(0.35232295 0 0)
(0.35371589 0 0)
(0.35519465 0 0)
(0.35675751 0 0)
(0.35840269 0 0)
(0.36012844 0 0)
(0.36202566 0 0)
(0.34259018 0 0)
(0.34264251 0 0)
(0.34279855 0 0)
(0.34305653 0 0)
(0.34341494 0 0)
(0.34387249 0 0)
(0.34442798 0 0)
(0.34508027 0 0)
(0.34582829 0 0)
(0.34667098 0 0)
(0.34760729 0 0)
(0.34863613 0 0)
(0.34975637 0 0)
(0.35096685 0 0)
(0.35226638 0 0)
(0.35365363 0 0)
(0.35512724 0 0)
(0.35668574 0 0)
(0.35832769 0 0)
(0.36005157 0 0)
(0.36192894 0 0)
(0.34259018 0 0)
(0.34264212 0 0)
(0.34279699 0 0)
(0.34305305 0 0)
(0.34340882 0 0)
(0.34386301 0 0)
(0.34441446 0 0)
(0.34506204 0 0)
(0.34580471 0 0)
(0.34664151 0 0)
(0.3475714 0 0)
(0.34859339 0 0)
(0.34970643 0 0)
(0.35090957 0 0)
(0.35220163 0 0)
(0.35358151 0 0)
(0.35504793 0 0)
(0.35659979 0 0)
(0.3582356 0 0)
(0.35995421 0 0)
(0.36180624 0 0)
(0.34259018 0 0)
(0.34264169 0 0)
(0.34279527 0 0)
(0.34304922 0 0)
(0.34340207 0 0)
(0.34385256 0 0)
(0.3443995 0 0)
(0.34504183 0 0)
(0.34577853 0 0)
(0.34660862 0 0)
(0.34753115 0 0)
(0.34854517 0 0)
(0.34964972 0 0)
(0.35084386 0 0)
(0.35212654 0 0)
(0.35349676 0 0)
(0.35495333 0 0)
(0.35649507 0 0)
(0.35812039 0 0)
(0.3598279 0 0)
(0.36164577 0 0)
(0.36490295 0 0)
(0.36753054 0 0)
(0.37024908 0 0)
(0.37304487 0 0)
(0.37590601 0 0)
(0.3788187 0 0)
(0.38176267 0 0)
(0.3847083 0 0)
(0.38762189 0 0)
(0.39046865 0 0)
(0.39321016 0 0)
(0.39580516 0 0)
(0.39821688 0 0)
(0.4004167 0 0)
(0.40237077 0 0)
(0.40404149 0 0)
(0.4053962 0 0)
(0.40640724 0 0)
(0.4070453 0 0)
(0.40727992 0 0)
(0.40707949 0 0)
(0.40641492 0 0)
(0.40525404 0 0)
(0.40355964 0 0)
(0.40129341 0 0)
(0.39842625 0 0)
(0.39492658 0 0)
(0.39074913 0 0)
(0.3858499 0 0)
(0.38019024 0 0)
(0.37372763 0 0)
(0.36640211 0 0)
(0.35814799 0 0)
(0.34889796 0 0)
(0.33856851 0 0)
(0.32710628 0 0)
(0.31448851 0 0)
(0.30060995 0 0)
(0.28528151 0 0)
(0.26843932 0 0)
(0.25010552 0 0)
(0.23019179 0 0)
(0.20856008 0 0)
(0.18508547 0 0)
(0.15969069 0 0)
(0.13230956 0 0)
(0.10279107 0 0)
(0.070931285 0 0)
(0.03664633 0 0)
(0 0 0)
(0.3647888 0 0)
(0.3674057 0 0)
(0.37011515 0 0)
(0.37290445 0 0)
(0.37576278 0 0)
(0.37867741 0 0)
(0.38162785 0 0)
(0.38458395 0 0)
(0.38751139 0 0)
(0.39037417 0 0)
(0.39313259 0 0)
(0.39574498 0 0)
(0.39817518 0 0)
(0.40039318 0 0)
(0.40236382 0 0)
(0.40404978 0 0)
(0.40541882 0 0)
(0.40644325 0 0)
(0.407094 0 0)
(0.40734085 0 0)
(0.40715239 0 0)
(0.406499 0 0)
(0.40534838 0 0)
(0.40366319 0 0)
(0.40140515 0 0)
(0.39854488 0 0)
(0.39505105 0 0)
(0.39087855 0 0)
(0.38598373 0 0)
(0.38032899 0 0)
(0.37386999 0 0)
(0.36654751 0 0)
(0.35829509 0 0)
(0.34904537 0 0)
(0.3387157 0 0)
(0.32725329 0 0)
(0.31463501 0 0)
(0.30075507 0 0)
(0.28542136 0 0)
(0.2685688 0 0)
(0.25022256 0 0)
(0.23029584 0 0)
(0.20865141 0 0)
(0.18516454 0 0)
(0.15975907 0 0)
(0.13236672 0 0)
(0.10283399 0 0)
(0.070959378 0 0)
(0.036660202 0 0)
(0 0 0)
(0.36468883 0 0)
(0.36728449 0 0)
(0.36997548 0 0)
(0.37275008 0 0)
(0.37559828 0 0)
(0.37850813 0 0)
(0.38145956 0 0)
(0.38442179 0 0)
(0.38735957 0 0)
(0.39023594 0 0)
(0.39301033 0 0)
(0.39564086 0 0)
(0.39809133 0 0)
(0.40033079 0 0)
(0.40232313 0 0)
(0.40403029 0 0)
(0.40542001 0 0)
(0.40646504 0 0)
(0.4071368 0 0)
(0.4074044 0 0)
(0.40723598 0 0)
(0.40660206 0 0)
(0.40547081 0 0)
(0.4038038 0 0)
(0.4015621 0 0)
(0.39871683 0 0)
(0.39523749 0 0)
(0.39107808 0 0)
(0.38619438 0 0)
(0.38055144 0 0)
(0.37410293 0 0)
(0.36678896 0 0)
(0.35854312 0 0)
(0.34929855 0 0)
(0.33897248 0 0)
(0.32751188 0 0)
(0.31489417 0 0)
(0.30101346 0 0)
(0.28567412 0 0)
(0.26880969 0 0)
(0.25044855 0 0)
(0.23050481 0 0)
(0.20884115 0 0)
(0.18533329 0 0)
(0.15990729 0 0)
(0.13249229 0 0)
(0.10293144 0 0)
(0.071025616 0 0)
(0.036693961 0 0)
(0 0 0)
(0.36458281 0 0)
(0.36714732 0 0)
(0.36981101 0 0)
(0.37256288 0 0)
(0.37539389 0 0)
(0.37829284 0 0)
(0.38123979 0 0)
(0.38420379 0 0)
(0.38714902 0 0)
(0.39003768 0 0)
(0.39282807 0 0)
(0.39547827 0 0)
(0.39795238 0 0)
(0.40021804 0 0)
(0.40223809 0 0)
(0.40397407 0 0)
(0.40539297 0 0)
(0.40646746 0 0)
(0.40716958 0 0)
(0.40746789 0 0)
(0.40732962 0 0)
(0.4067251 0 0)
(0.40562301 0 0)
(0.40398419 0 0)
(0.40176881 0 0)
(0.39894796 0 0)
(0.395492 0 0)
(0.39135427 0 0)
(0.38648994 0 0)
(0.38086592 0 0)
(0.37443453 0 0)
(0.36713569 0 0)
(0.35890214 0 0)
(0.34966715 0 0)
(0.33934803 0 0)
(0.32789184 0 0)
(0.31527619 0 0)
(0.30139442 0 0)
(0.28604818 0 0)
(0.26917049 0 0)
(0.2507918 0 0)
(0.23082609 0 0)
(0.20913567 0 0)
(0.18559756 0 0)
(0.16014037 0 0)
(0.13269019 0 0)
(0.10308652 0 0)
(0.071132272 0 0)
(0.036748674 0 0)
(0 0 0)
(0.36447223 0 0)
(0.36699564 0 0)
(0.36962302 0 0)
(0.37234418 0 0)
(0.37515071 0 0)
(0.378032 0 0)
(0.38096851 0 0)
(0.38392934 0 0)
(0.3868786 0 0)
(0.38977741 0 0)
(0.3925833 0 0)
(0.39525448 0 0)
(0.39775487 0 0)
(0.40005106 0 0)
(0.40210495 0 0)
(0.40387685 0 0)
(0.40533288 0 0)
(0.4064458 0 0)
(0.40718799 0 0)
(0.40752678 0 0)
(0.40742839 0 0)
(0.40686336 0 0)
(0.40580082 0 0)
(0.4042002 0 0)
(0.40202053 0 0)
(0.39923355 0 0)
(0.39581044 0 0)
(0.39170316 0 0)
(0.38686598 0 0)
(0.38126833 0 0)
(0.37486111 0 0)
(0.36758329 0 0)
(0.35936765 0 0)
(0.35014747 0 0)
(0.33983904 0 0)
(0.32838937 0 0)
(0.3157772 0 0)
(0.30189499 0 0)
(0.28654103 0 0)
(0.26964813 0 0)
(0.25124914 0 0)
(0.23125704 0 0)
(0.20953277 0 0)
(0.18595519 0 0)
(0.16045643 0 0)
(0.13295901 0 0)
(0.10329801 0 0)
(0.071278336 0 0)
(0.036823968 0 0)
(0 0 0)
(0.36435453 0 0)
(0.36682693 0 0)
(0.36940895 0 0)
(0.37209112 0 0)
(0.37486555 0 0)
(0.37772215 0 0)
(0.38064191 0 0)
(0.38359448 0 0)
(0.38654353 0 0)
(0.38944966 0 0)
(0.39227012 0 0)
(0.39496323 0 0)
(0.39749249 0 0)
(0.39982324 0 0)
(0.4019166 0 0)
(0.40373156 0 0)
(0.40523293 0 0)
(0.40639314 0 0)
(0.40718465 0 0)
(0.40757393 0 0)
(0.40752579 0 0)
(0.40701041 0 0)
(0.40599728 0 0)
(0.40444503 0 0)
(0.40231124 0 0)
(0.39956773 0 0)
(0.39618637 0 0)
(0.39211839 0 0)
(0.38731699 0 0)
(0.38175276 0 0)
(0.37537633 0 0)
(0.36812625 0 0)
(0.35993448 0 0)
(0.35073391 0 0)
(0.34043986 0 0)
(0.32899959 0 0)
(0.31639277 0 0)
(0.30251035 0 0)
(0.28714772 0 0)
(0.27023851 0 0)
(0.25181698 0 0)
(0.23179397 0 0)
(0.21002889 0 0)
(0.18640333 0 0)
(0.16085297 0 0)
(0.13329638 0 0)
(0.10356421 0 0)
(0.071462929 0 0)
(0.036919327 0 0)
(0 0 0)
(0.36422384 0 0)
(0.36663537 0 0)
(0.36916274 0 0)
(0.3717974 0 0)
(0.37453192 0 0)
(0.37735669 0 0)
(0.3802531 0 0)
(0.38319136 0 0)
(0.38613575 0 0)
(0.38904613 0 0)
(0.39187969 0 0)
(0.39459508 0 0)
(0.39715546 0 0)
(0.39952515 0 0)
(0.4016636 0 0)
(0.40352834 0 0)
(0.40508309 0 0)
(0.40629978 0 0)
(0.40715034 0 0)
(0.40759992 0 0)
(0.40761217 0 0)
(0.40715703 0 0)
(0.40620387 0 0)
(0.40471007 0 0)
(0.40263213 0 0)
(0.39994204 0 0)
(0.39661206 0 0)
(0.39259223 0 0)
(0.38783492 0 0)
(0.38231184 0 0)
(0.37597295 0 0)
(0.36875656 0 0)
(0.3605948 0 0)
(0.35141965 0 0)
(0.34114401 0 0)
(0.32971557 0 0)
(0.3171161 0 0)
(0.30323463 0 0)
(0.28786297 0 0)
(0.27093607 0 0)
(0.25248978 0 0)
(0.23243208 0 0)
(0.21061992 0 0)
(0.18693802 0 0)
(0.16132653 0 0)
(0.13369961 0 0)
(0.10388287 0 0)
(0.071684317 0 0)
(0.037033903 0 0)
(0 0 0)
(0.36407114 0 0)
(0.36641199 0 0)
(0.36887544 0 0)
(0.37145411 0 0)
(0.37414099 0 0)
(0.37692641 0 0)
(0.37979223 0 0)
(0.38271022 0 0)
(0.38564478 0 0)
(0.38855562 0 0)
(0.39140027 0 0)
(0.39413806 0 0)
(0.39673208 0 0)
(0.39914467 0 0)
(0.40133365 0 0)
(0.40325521 0 0)
(0.40487164 0 0)
(0.40615379 0 0)
(0.40707297 0 0)
(0.40759317 0 0)
(0.4076765 0 0)
(0.40729216 0 0)
(0.40640932 0 0)
(0.40498461 0 0)
(0.40297322 0 0)
(0.40034663 0 0)
(0.39707735 0 0)
(0.39311482 0 0)
(0.3884105 0 0)
(0.38293608 0 0)
(0.37664137 0 0)
(0.36946525 0 0)
(0.36133976 0 0)
(0.35219559 0 0)
(0.34194284 0 0)
(0.33052944 0 0)
(0.31793943 0 0)
(0.30405981 0 0)
(0.28867913 0 0)
(0.27173409 0 0)
(0.25326138 0 0)
(0.23316533 0 0)
(0.21130017 0 0)
(0.18755448 0 0)
(0.16187294 0 0)
(0.13416492 0 0)
(0.10425123 0 0)
(0.071940837 0 0)
(0.037166727 0 0)
(0 0 0)
(0.36388443 0 0)
(0.36614536 0 0)
(0.36853609 0 0)
(0.37105069 0 0)
(0.37368216 0 0)
(0.37642011 0 0)
(0.37924698 0 0)
(0.38213705 0 0)
(0.38505619 0 0)
(0.38796443 0 0)
(0.39081904 0 0)
(0.39357953 0 0)
(0.39620861 0 0)
(0.39866753 0 0)
(0.40091247 0 0)
(0.40289788 0 0)
(0.40458417 0 0)
(0.40594116 0 0)
(0.40693914 0 0)
(0.40754035 0 0)
(0.4077054 0 0)
(0.40740279 0 0)
(0.40660134 0 0)
(0.4052566 0 0)
(0.40332239 0 0)
(0.40076971 0 0)
(0.39757106 0 0)
(0.39367515 0 0)
(0.38903261 0 0)
(0.38361501 0 0)
(0.37737123 0 0)
(0.3702413 0 0)
(0.36215846 0 0)
(0.35305182 0 0)
(0.34282689 0 0)
(0.33143152 0 0)
(0.31885319 0 0)
(0.30497723 0 0)
(0.28958836 0 0)
(0.27262462 0 0)
(0.2541239 0 0)
(0.23398663 0 0)
(0.21206337 0 0)
(0.18824686 0 0)
(0.16248715 0 0)
(0.13468831 0 0)
(0.10466601 0 0)
(0.072230013 0 0)
(0.037316626 0 0)
(0 0 0)
(0.36364994 0 0)
(0.36582263 0 0)
(0.36813275 0 0)
(0.37057523 0 0)
(0.3731418 0 0)
(0.37582311 0 0)
(0.37860362 0 0)
(0.38145862 0 0)
(0.38435656 0 0)
(0.38725894 0 0)
(0.39012203 0 0)
(0.39290494 0 0)
(0.39557026 0 0)
(0.39807841 0 0)
(0.40038463 0 0)
(0.40244147 0 0)
(0.40420689 0 0)
(0.40564836 0 0)
(0.40673507 0 0)
(0.40742818 0 0)
(0.40768646 0 0)
(0.40747678 0 0)
(0.4067676 0 0)
(0.40551421 0 0)
(0.40366884 0 0)
(0.40120076 0 0)
(0.39808239 0 0)
(0.39426272 0 0)
(0.38969145 0 0)
(0.38433862 0 0)
(0.37815244 0 0)
(0.37107503 0 0)
(0.36304132 0 0)
(0.35397858 0 0)
(0.34378681 0 0)
(0.33241302 0 0)
(0.31984869 0 0)
(0.30597795 0 0)
(0.29058201 0 0)
(0.2735999 0 0)
(0.25506998 0 0)
(0.23488868 0 0)
(0.21290263 0 0)
(0.18900924 0 0)
(0.16316386 0 0)
(0.13526502 0 0)
(0.10512367 0 0)
(0.072549706 0 0)
(0.037482404 0 0)
(0 0 0)
(0.36384637 0 0)
(0.36592617 0 0)
(0.36814778 0 0)
(0.37050479 0 0)
(0.37299086 0 0)
(0.3755984 0 0)
(0.37831178 0 0)
(0.38110707 0 0)
(0.38395645 0 0)
(0.38682268 0 0)
(0.3896623 0 0)
(0.39243494 0 0)
(0.39510342 0 0)
(0.39762803 0 0)
(0.39996293 0 0)
(0.40205909 0 0)
(0.40387247 0 0)
(0.40536903 0 0)
(0.40651695 0 0)
(0.40727625 0 0)
(0.40760383 0 0)
(0.40746538 0 0)
(0.40682918 0 0)
(0.40564987 0 0)
(0.40387808 0 0)
(0.4014817 0 0)
(0.39843314 0 0)
(0.39468136 0 0)
(0.39017471 0 0)
(0.38488258 0 0)
(0.37875209 0 0)
(0.37172592 0 0)
(0.36374152 0 0)
(0.35472459 0 0)
(0.34457121 0 0)
(0.33322482 0 0)
(0.3206809 0 0)
(0.30682354 0 0)
(0.29143276 0 0)
(0.27444454 0 0)
(0.25589826 0 0)
(0.23568702 0 0)
(0.21365319 0 0)
(0.18969734 0 0)
(0.16378053 0 0)
(0.13579611 0 0)
(0.10555035 0 0)
(0.072852478 0 0)
(0.037644003 0 0)
(0 0 0)
(0.36490295 0 0)
(0.36753054 0 0)
(0.37024908 0 0)
(0.37304487 0 0)
(0.37590601 0 0)
(0.3788187 0 0)
(0.38176267 0 0)
(0.3847083 0 0)
(0.38762189 0 0)
(0.39046865 0 0)
(0.39321016 0 0)
(0.39580516 0 0)
(0.39821688 0 0)
(0.4004167 0 0)
(0.40237077 0 0)
(0.40404149 0 0)
(0.4053962 0 0)
(0.40640724 0 0)
(0.4070453 0 0)
(0.40727992 0 0)
(0.40707949 0 0)
(0.40641492 0 0)
(0.40525404 0 0)
(0.40355964 0 0)
(0.40129341 0 0)
(0.39842625 0 0)
(0.39492658 0 0)
(0.39074913 0 0)
(0.3858499 0 0)
(0.38019024 0 0)
(0.37372763 0 0)
(0.36640211 0 0)
(0.35814799 0 0)
(0.34889796 0 0)
(0.33856851 0 0)
(0.32710628 0 0)
(0.31448851 0 0)
(0.30060995 0 0)
(0.28528151 0 0)
(0.26843932 0 0)
(0.25010552 0 0)
(0.23019179 0 0)
(0.20856008 0 0)
(0.18508547 0 0)
(0.15969069 0 0)
(0.13230956 0 0)
(0.10279107 0 0)
(0.070931285 0 0)
(0.03664633 0 0)
(0 0 0)
(0.3647888 0 0)
(0.3674057 0 0)
(0.37011515 0 0)
(0.37290445 0 0)
(0.37576278 0 0)
(0.37867741 0 0)
(0.38162785 0 0)
(0.38458395 0 0)
(0.38751139 0 0)
(0.39037417 0 0)
(0.39313259 0 0)
(0.39574498 0 0)
(0.39817518 0 0)
(0.40039318 0 0)
(0.40236382 0 0)
(0.40404978 0 0)
(0.40541882 0 0)
(0.40644325 0 0)
(0.407094 0 0)
(0.40734085 0 0)
(0.40715239 0 0)
(0.406499 0 0)
(0.40534838 0 0)
(0.40366319 0 0)
(0.40140515 0 0)
(0.39854488 0 0)
(0.39505105 0 0)
(0.39087855 0 0)
(0.38598373 0 0)
(0.38032899 0 0)
(0.37386999 0 0)
(0.36654751 0 0)
(0.35829509 0 0)
(0.34904537 0 0)
(0.3387157 0 0)
(0.32725329 0 0)
(0.31463501 0 0)
(0.30075507 0 0)
(0.28542136 0 0)
(0.2685688 0 0)
(0.25022256 0 0)
(0.23029584 0 0)
(0.20865141 0 0)
(0.18516454 0 0)
(0.15975907 0 0)
(0.13236672 0 0)
(0.10283399 0 0)
(0.070959378 0 0)
(0.036660202 0 0)
(0 0 0)
(0.36468883 0 0)
(0.36728449 0 0)
(0.36997548 0 0)
(0.37275008 0 0)
(0.37559828 0 0)
(0.37850813 0 0)
(0.38145956 0 0)
(0.38442179 0 0)
(0.38735957 0 0)
(0.39023594 0 0)
(0.39301033 0 0)
(0.39564086 0 0)
(0.39809133 0 0)
(0.40033079 0 0)
(0.40232313 0 0)
(0.40403029 0 0)
(0.40542001 0 0)
(0.40646504 0 0)
(0.4071368 0 0)
(0.4074044 0 0)
(0.40723598 0 0)
(0.40660206 0 0)
(0.40547081 0 0)
(0.4038038 0 0)
(0.4015621 0 0)
(0.39871683 0 0)
(0.39523749 0 0)
(0.39107808 0 0)
(0.38619438 0 0)
(0.38055144 0 0)
(0.37410293 0 0)
(0.36678896 0 0)
(0.35854312 0 0)
(0.34929855 0 0)
(0.33897248 0 0)
(0.32751188 0 0)
(0.31489417 0 0)
(0.30101346 0 0)
(0.28567412 0 0)
(0.26880969 0 0)
(0.25044855 0 0)
(0.23050481 0 0)
(0.20884115 0 0)
(0.18533329 0 0)
(0.15990729 0 0)
(0.13249229 0 0)
(0.10293144 0 0)
(0.071025616 0 0)
(0.036693961 0 0)
(0 0 0)
(0.36458281 0 0)
(0.36714732 0 0)
(0.36981101 0 0)
(0.37256288 0 0)
(0.37539389 0 0)
(0.37829284 0 0)
(0.38123979 0 0)
(0.38420379 0 0)
(0.38714902 0 0)
(0.39003768 0 0)
(0.39282807 0 0)
(0.39547827 0 0)
(0.39795238 0 0)
(0.40021804 0 0)
(0.40223809 0 0)
(0.40397407 0 0)
(0.40539297 0 0)
(0.40646746 0 0)
(0.40716958 0 0)
(0.40746789 0 0)
(0.40732962 0 0)
(0.4067251 0 0)
(0.40562301 0 0)
(0.40398419 0 0)
(0.40176881 0 0)
(0.39894796 0 0)
(0.395492 0 0)
(0.39135427 0 0)
(0.38648994 0 0)
(0.38086592 0 0)
(0.37443453 0 0)
(0.36713569 0 0)
(0.35890214 0 0)
(0.34966715 0 0)
(0.33934803 0 0)
(0.32789184 0 0)
(0.31527619 0 0)
(0.30139442 0 0)
(0.28604818 0 0)
(0.26917049 0 0)
(0.2507918 0 0)
(0.23082609 0 0)
(0.20913567 0 0)
(0.18559756 0 0)
(0.16014037 0 0)
(0.13269019 0 0)
(0.10308652 0 0)
(0.071132272 0 0)
(0.036748674 0 0)
(0 0 0)
(0.36447223 0 0)
(0.36699564 0 0)
(0.36962302 0 0)
(0.37234418 0 0)
(0.37515071 0 0)
(0.378032 0 0)
(0.38096851 0 0)
(0.38392934 0 0)
(0.3868786 0 0)
(0.38977741 0 0)
(0.3925833 0 0)
(0.39525448 0 0)
(0.39775487 0 0)
(0.40005106 0 0)
(0.40210495 0 0)
(0.40387685 0 0)
(0.40533288 0 0)
(0.4064458 0 0)
(0.40718799 0 0)
(0.40752678 0 0)
(0.40742839 0 0)
(0.40686336 0 0)
(0.40580082 0 0)
(0.4042002 0 0)
(0.40202053 0 0)
(0.39923355 0 0)
(0.39581044 0 0)
(0.39170316 0 0)
(0.38686598 0 0)
(0.38126833 0 0)
(0.37486111 0 0)
(0.36758329 0 0)
(0.35936765 0 0)
(0.35014747 0 0)
(0.33983904 0 0)
(0.32838937 0 0)
(0.3157772 0 0)
(0.30189499 0 0)
(0.28654103 0 0)
(0.26964813 0 0)
(0.25124914 0 0)
(0.23125704 0 0)
(0.20953277 0 0)
(0.18595519 0 0)
(0.16045643 0 0)
(0.13295901 0 0)
(0.10329801 0 0)
(0.071278336 0 0)
(0.036823968 0 0)
(0 0 0)
(0.36435453 0 0)
(0.36682693 0 0)
(0.36940895 0 0)
(0.37209112 0 0)
(0.37486555 0 0)
(0.37772215 0 0)
(0.38064191 0 0)
(0.38359448 0 0)
(0.38654353 0 0)
(0.38944966 0 0)
(0.39227012 0 0)
(0.39496323 0 0)
(0.39749249 0 0)
(0.39982324 0 0)
(0.4019166 0 0)
(0.40373156 0 0)
(0.40523293 0 0)
(0.40639314 0 0)
(0.40718465 0 0)
(0.40757393 0 0)
(0.40752579 0 0)
(0.40701041 0 0)
(0.40599728 0 0)
(0.40444503 0 0)
(0.40231124 0 0)
(0.39956773 0 0)
(0.39618637 0 0)
(0.39211839 0 0)
(0.38731699 0 0)
(0.38175276 0 0)
(0.37537633 0 0)
(0.36812625 0 0)
(0.35993448 0 0)
(0.35073391 0 0)
(0.34043986 0 0)
(0.32899959 0 0)
(0.31639277 0 0)
(0.30251035 0 0)
(0.28714772 0 0)
(0.27023851 0 0)
(0.25181698 0 0)
(0.23179397 0 0)
(0.21002889 0 0)
(0.18640333 0 0)
(0.16085297 0 0)
(0.13329638 0 0)
(0.10356421 0 0)