/*--------------------------------*- C++ -*----------------------------------*\
| =========                 |                                                 |
| \\      /  F ield         | OpenFOAM: The Open Source CFD Toolbox           |
|  \\    /   O peration     | Version:  v2012                                 |
|   \\  /    A nd           | Website:  www.openfoam.com                      |
|    \\/     M anipulation  |                                                 |
\*---------------------------------------------------------------------------*/
FoamFile
{
    version     2.0;
    format      ascii;
    class       volVectorField;
    location    "62.4493107631428899";
    object      U;
}
// * * * * * * * * * * * * * * * * * * * * * * * * * * * * * * * * * * * * * //

dimensions      [0 1 -1 0 0 0 0];


internalField   nonuniform List<vector> 
9200
(
(2.5334653 0.0041040779 -3.2157041e-23)
(2.5286127 0.013171652 -7.0724284e-22)
(2.5233829 0.0016999117 1.7723965e-22)
(2.5217162 0.019348769 -3.3152335e-26)
(2.5197471 0.0052039105 -3.2623414e-22)
(2.523285 0.00079052555 -3.030073e-22)
(2.5115908 0.024459742 2.6889734e-22)
(2.5147713 0.0069479178 6.2201697e-22)
(2.5200547 0.0024823591 6.9608299e-23)
(2.5221951 -0.00016898806 5.7804626e-23)
(2.4996099 0.026815992 1.4236772e-21)
(2.5073698 0.0076202118 -2.7221841e-22)
(2.5158215 0.0028249549 2.348253e-22)
(2.5195389 -0.00053572313 1.2840215e-22)
(2.5232902 -0.0008250039 4.2812225e-22)
(2.4859751 0.026886761 -7.7266402e-23)
(2.4990243 0.0064752305 3.0200738e-22)
(2.5095103 0.0021544774 -7.0924385e-22)
(2.5162538 -0.0017975917 -9.0992935e-22)
(2.5210401 -0.0027817498 -2.0389628e-22)
(2.5250579 -0.0013422268 -6.9243362e-24)
(2.4714977 0.024246961 -1.0449886e-21)
(2.4897998 0.0036163841 -6.777369e-22)
(2.5024217 -4.6316189e-06 -1.085534e-21)
(2.5112291 -0.0039886019 -3.5156599e-22)
(2.5184528 -0.0051507419 3.543263e-22)
(2.5232315 -0.0046638668 1.4381821e-22)
(2.5276283 -0.0018077974 7.0619714e-25)
(2.456774 0.018928949 -3.0734511e-23)
(2.4804445 -0.0009845311 1.2232611e-23)
(2.4945823 -0.0036543643 3.2927287e-22)
(2.5057172 -0.0072094587 2.529489e-22)
(2.5143994 -0.0084264316 1.6727823e-22)
(2.5211942 -0.0079546147 4.8988931e-23)
(2.5261823 -0.0061932258 5.7936098e-24)
(2.5307258 -0.0022046658 0)
(2.4425063 0.01138516 5.3739728e-22)
(2.4713052 -0.0071669986 5.3757252e-22)
(2.4865996 -0.0086618841 1.1145345e-21)
(2.4996653 -0.011634018 6.8673811e-22)
(2.510004 -0.012347192 3.2254349e-22)
(2.5179829 -0.012133875 -4.0614931e-22)
(2.5245859 -0.010240949 -3.3450464e-22)
(2.5295935 -0.0074450705 -1.5160671e-22)
(2.534221 -0.0025137792 -1.7383527e-23)
(2.4293084 0.0013710872 -9.7013479e-23)
(2.4628497 -0.015033834 1.6071619e-21)
(2.4787478 -0.014950445 -8.8371917e-23)
(2.4935825 -0.017005957 -5.1793336e-22)
(2.5051957 -0.017285264 -3.077615e-22)
(2.5145316 -0.016633741 -3.8852024e-22)
(2.522061 -0.015145196 -1.2746838e-22)
(2.5283739 -0.01212177 -1.7584302e-22)
(2.5333592 -0.0084526554 -1.4215066e-22)
(2.537972 -0.0027476374 4.6211809e-24)
(2.4176113 -0.010544493 1.6993833e-22)
(2.4552652 -0.023846497 1.2149609e-22)
(2.4712823 -0.022174245 -2.1836802e-22)
(2.487641 -0.023356469 4.3913658e-22)
(2.5003886 -0.02288692 1.5982946e-22)
(2.5107846 -0.021985788 -8.2889533e-23)
(2.5193615 -0.020113661 5.7790148e-22)
(2.5264176 -0.01762332 2.9930137e-22)
(2.5324643 -0.013643359 3.1704584e-22)
(2.5373563 -0.0092421569 1.1880636e-22)
(2.5418731 -0.0029199366 -4.6574397e-23)
(2.4074584 -0.02379095 5.8242463e-22)
(2.4482155 -0.033087778 -1.4182809e-21)
(2.4643111 -0.030091314 -4.3564522e-22)
(2.4820364 -0.030410941 7.1820353e-22)
(2.4957212 -0.029264518 1.5423187e-22)
(2.5070799 -0.027756316 -3.4282006e-22)
(2.516445 -0.025790096 3.9236425e-22)
(2.5243321 -0.022989204 3.437751e-22)
(2.5309876 -0.019638398 4.4499844e-22)
(2.5367467 -0.014844156 5.1721661e-23)
(2.5414891 -0.0098331923 -1.5844597e-22)
(2.5458336 -0.0030376518 5.3189815e-22)
(2.3992456 -0.037958901 -5.4060343e-22)
(2.4420549 -0.042595878 3.6362834e-22)
(2.4580698 -0.038541389 -1.2630414e-22)
(2.4768625 -0.038076807 1.0704713e-22)
(2.4913532 -0.036172253 -8.8191806e-22)
(2.5035419 -0.034118737 -1.1959382e-21)
(2.51359 -0.031676906 4.7017317e-22)
(2.5220753 -0.028939843 -1.7569442e-22)
(2.5294063 -0.025348549 -7.2030609e-22)
(2.535691 -0.021245139 -2.8128838e-22)
(2.541141 -0.015752984 2.7371208e-22)
(2.5456725 -0.010244331 -2.5377628e-22)
(2.5497793 -0.0031057132 -4.6324021e-24)
(2.3933008 -0.05252276 -1.5248284e-22)
(2.4369856 -0.052088082 4.9747826e-23)
(2.4526098 -0.047306689 7.9554862e-23)
(2.4721231 -0.046132373 -3.0082846e-22)
(2.487351 -0.043567637 -1.0744657e-21)
(2.5003175 -0.040846364 -5.8365649e-22)
(2.5109142 -0.037978647 3.7424111e-22)
(2.5198736 -0.034921202 2.9077767e-22)
(2.5276685 -0.031548796 5.0168269e-22)
(2.5345397 -0.027260822 4.802595e-22)
(2.5404741 -0.022481796 -1.9211938e-22)
(2.5455765 -0.016395472 -4.2063347e-22)
(2.5498365 -0.010493304 1.7226493e-22)
(2.5536497 -0.0031289498 -8.2381615e-22)
(2.3897389 -0.066928197 2.3728092e-22)
(2.4329575 -0.061216819 3.4821439e-22)
(2.4478314 -0.056052627 1.748189e-22)
(2.4677598 -0.054387344 3.6041238e-22)
(2.4837369 -0.051317503 3.5597743e-22)
(2.49749 -0.047951644 4.220838e-22)
(2.5085663 -0.044464589 6.4198714e-22)
(2.5178312 -0.041144502 -4.9682897e-22)
(2.5259445 -0.03763682 1.5419812e-22)
(2.5332253 -0.033708026 -4.9556964e-23)
(2.5397132 -0.028772067 -3.6392987e-22)
(2.5452885 -0.023379646 6.1481451e-22)
(2.5499937 -0.01679496 -5.4426428e-23)
(2.5539225 -0.010596567 -4.2497217e-22)
(2.5573959 -0.0031115675 2.5674448e-23)
(2.3885524 -0.080610774 -2.1464874e-22)
(2.4298772 -0.069643298 1.7137894e-22)
(2.4436317 -0.064485208 5.7918835e-22)
(2.4636837 -0.062673695 3.8567183e-23)
(2.4804789 -0.059370808 -2.1054022e-22)
(2.4951113 -0.055360197 5.1392654e-22)
(2.5066575 -0.05116057 1.152273e-21)
(2.5160926 -0.047353284 8.4669684e-23)
(2.5243121 -0.043816788 -1.117035e-21)
(2.5318547 -0.039948612 -5.7906766e-22)
(2.5387742 -0.035475956 5.5708735e-22)
(2.5449109 -0.029915156 1.4258818e-22)
(2.5500921 -0.023964337 -2.9364872e-22)
(2.554341 -0.016972191 1.1171091e-21)
(2.5578823 -0.010568456 1.5630348e-21)
(2.5609788 -0.0030569315 -5.5296622e-23)
(2.3895942 -0.093177711 -1.3563294e-25)
(2.4276202 -0.077082639 1.9264075e-21)
(2.4398807 -0.07230294 1.289784e-22)
(2.459738 -0.070846637 -8.0819988e-23)
(2.4774788 -0.06768412 -7.1861648e-22)
(2.4931945 -0.063088393 -7.8857141e-22)
(2.5052923 -0.058001045 4.4693158e-22)
(2.5147859 -0.053550657 4.026568e-22)
(2.5228927 -0.049794258 1.4887578e-22)
(2.5304642 -0.046177537 9.0954581e-24)
(2.5376937 -0.041936676 5.8384196e-22)
(2.5443463 -0.036886485 -2.0084247e-22)
(2.5501166 -0.030711254 7.1865763e-22)
(2.5548436 -0.024256105 4.7401543e-22)
(2.5585726 -0.016944594 4.4709099e-22)
(2.5616756 -0.010420756 7.8127957e-22)
(2.5643671 -0.0029676641 -1.1310672e-21)
(2.3926754 -0.10424509 -7.4187704e-22)
(2.425994 -0.083364945 7.3809815e-22)
(2.4364083 -0.079297388 1.0539422e-21)
(2.4557201 -0.0787622 -9.2694249e-22)
(2.4745955 -0.076236734 -2.7980208e-22)
(2.4917125 -0.071168956 2.2964245e-23)
(2.5045623 -0.065026413 -3.1512357e-22)
(2.5140562 -0.059637236 -2.2519148e-22)
(2.5218056 -0.055527633 2.8414394e-22)
(2.52913 -0.052064151 8.7428436e-22)
(2.5364566 -0.048347381 6.4392643e-22)
(2.5435584 -0.043637867 -1.1860173e-21)
(2.5499642 -0.037950309 6.9444135e-22)
(2.5553064 -0.031171167 -2.8225107e-23)
(2.5595017 -0.024269884 7.0795529e-22)
(2.5626474 -0.016726536 -1.3284437e-21)
(2.5652696 -0.010162788 -7.6778695e-22)
(2.5675358 -0.0028460536 1.8830251e-23)
(2.3969721 -0.11336707 -1.3767725e-21)
(2.4248656 -0.087947764 2.1724722e-22)
(2.4330254 -0.085193129 -3.2267768e-21)
(2.4513713 -0.086326465 -6.1261164e-22)
(2.4716356 -0.08505463 -1.9452031e-23)
(2.4906247 -0.079690664 -2.3661564e-22)
(2.5045424 -0.072279336 8.8947119e-22)
(2.5140515 -0.065617889 -3.1602579e-22)
(2.5211989 -0.06086025 1.7174647e-22)
(2.527932 -0.057522262 1.9702098e-21)
(2.5350762 -0.05435582 6.8859259e-22)
(2.5424789 -0.05037355 -1.13955e-21)
(2.5495294 -0.045045905 7.3165248e-22)
(2.555631 -0.038658581 -2.5973002e-22)
(2.5604466 -0.03129735 6.848901e-22)
(2.5640238 -0.024016774 -9.3384785e-22)
(2.5665286 -0.016330566 -1.5428855e-21)
(2.5686379 -0.0098021353 -9.9756175e-22)
(2.5704652 -0.0026947606 1.3591359e-21)
(2.4028487 -0.12113674 -2.0054741e-22)
(2.4266927 -0.091644277 -2.4719089e-22)
(2.4295862 -0.089799551 -2.6845954e-21)
(2.4464509 -0.093325089 -3.7209163e-22)
(2.4683708 -0.094171538 7.4197021e-23)
(2.4898325 -0.088792214 6.6498933e-22)
(2.5053294 -0.079900012 2.4679929e-24)
(2.5149425 -0.071462999 4.8604992e-22)
(2.5212336 -0.065712743 -8.3493131e-22)
(2.5269784 -0.062337747 -1.2626185e-22)
(2.5335675 -0.05984829 -2.0426139e-21)
(2.5410503 -0.056742591 7.8234734e-22)
(2.5486963 -0.052227036 -1.0718023e-21)
(2.5556508 -0.046119183 7.312281e-22)
(2.5613253 -0.038988685 2.7796911e-22)
(2.565493 -0.031087811 2.5753893e-22)
(2.5683668 -0.023506714 -1.1139659e-21)
(2.5701843 -0.015769107 5.5363424e-23)
(2.5717602 -0.0093460723 -1.128373e-21)
(2.5731409 -0.0025175833 -5.6259392e-23)
(2.410986 -0.1281213 2.8874555e-22)
(2.429782 -0.093897444 3.0140397e-21)
(2.4251771 -0.093007124 1.951586e-21)
(2.4406671 -0.099832796 7.5860473e-22)
(2.4645716 -0.10363421 3.503743e-22)
(2.4892303 -0.098625153 -2.973717e-22)
(2.5069691 -0.088023385 -3.6089848e-22)
(2.5169292 -0.077306131 2.6214991e-22)
(2.5221303 -0.069949825 8.5090926e-23)
(2.526402 -0.066329325 -1.4623077e-21)
(2.5319675 -0.064563568 -2.6901893e-21)
(2.5392111 -0.062629341 3.4200482e-22)
(2.5473393 -0.059167622 -9.1364336e-22)
(2.5552149 -0.05381756 1.6150567e-21)
(2.5619218 -0.046793115 -1.273986e-21)
(2.5670012 -0.038912511 4.4251496e-22)
(2.5703935 -0.030541246 3.1722699e-22)
(2.5724891 -0.022751435 6.5930817e-22)
(2.5735883 -0.015055947 -7.1621682e-23)
(2.5746217 -0.0088035756 1.2886086e-21)
(2.5755541 -0.002319747 4.2527451e-23)
(2.4211048 -0.13358914 -1.2629565e-21)
(2.4323064 -0.092744003 0)
(2.4197844 -0.094026694 6.5356115e-23)
(2.4337687 -0.10556708 7.7842224e-23)
(2.4599191 -0.11360462 9.516954e-23)
(2.4886958 -0.10939457 -9.391545e-22)
(2.5095164 -0.096889383 -2.415763e-22)
(2.520204 -0.083115007 -4.0723728e-22)
(2.524082 -0.07364273 -1.2170607e-21)
(2.5263925 -0.069307422 1.3079406e-21)
(2.5303417 -0.068250501 1.5860932e-21)
(2.5369132 -0.067755561 -9.2540015e-22)
(2.5453243 -0.06577567 -9.2211242e-22)
(2.5541409 -0.061472028 4.2599977e-22)
(2.5620668 -0.055016782 2.0767943e-21)
(2.5682965 -0.046995635 4.7126734e-22)
(2.5725931 -0.038405755 -9.0934846e-22)
(2.575092 -0.029661935 -8.495753e-22)
(2.5763524 -0.021766754 6.3283878e-22)
(2.5767204 -0.01420708 -1.4887511e-21)
(2.5772133 -0.0081871359 1.9032117e-21)
(2.5777016 -0.0021073922 5.7098407e-22)
(2.4319922 -0.13735847 2.7352564e-22)
(2.4343016 -0.089604974 -7.0098304e-22)
(2.4134144 -0.093352798 3.0268949e-22)
(2.4255904 -0.11030052 -1.8906614e-21)
(2.4542126 -0.12403127 -6.5727035e-22)
(2.4880622 -0.1213062 1.2923951e-22)
(2.5130342 -0.1067171 1.7866757e-21)
(2.5249644 -0.089174406 2.4277624e-21)
(2.5273927 -0.076480601 1.9496153e-22)
(2.5270541 -0.071166131 8.6033779e-23)
(2.5287658 -0.070725271 1.3846362e-21)
(2.5341228 -0.071870841 1.8589779e-21)
(2.54252 -0.071795091 -2.6353752e-21)
(2.5522357 -0.069035964 -5.0506658e-21)
(2.561538 -0.06343602 1.3005277e-21)
(2.5692095 -0.055685061 -2.8060075e-21)
(2.574692 -0.046663082 4.0456207e-21)
(2.5780234 -0.037456012 4.5709511e-22)
(2.5795333 -0.028463106 -1.4863087e-22)
(2.5799242 -0.020573661 1.8331106e-21)
(2.5795667 -0.013240791 1.6833905e-21)
(2.5795305 -0.007513026 -7.1227685e-22)
(2.579586 -0.0018863555 0)
(2.4434055 -0.13966563 3.9892229e-23)
(2.4369968 -0.084202582 5.5638071e-22)
(2.4063391 -0.090663846 0)
(2.4157248 -0.11484055 4.5488507e-22)
(2.4472784 -0.13511778 1.0243558e-21)
(2.4872004 -0.13457057 5.3374237e-22)
(2.5175644 -0.11779032 4.2949687e-21)
(2.5314416 -0.095538799 2.4645476e-22)
(2.5323315 -0.078801586 -4.6209977e-22)
(2.5286805 -0.071592993 1.7698477e-21)
(2.5273207 -0.071540731 -1.4222096e-21)
(2.530793 -0.074731286 -1.0033371e-21)
(2.538794 -0.077007531 2.1123333e-21)
(2.5492982 -0.076303726 4.0943638e-21)
(2.5601035 -0.072064789 -1.550786e-21)
(2.5694974 -0.064821819 2.2987802e-21)
(2.5765377 -0.055697303 -2.368257e-21)
(2.5810001 -0.045753192 9.0924885e-22)
(2.5832103 -0.03606796 -6.9721374e-22)
(2.5836674 -0.026968151 0)
(2.5831793 -0.019198143 -2.234106e-22)
(2.5821189 -0.012177063 4.8498223e-22)
(2.5815732 -0.0067991979 -1.9692906e-21)
(2.5812175 -0.0016612829 -7.7775391e-22)
(2.4555018 -0.14078584 -2.1416765e-23)
(2.440827 -0.076568719 -7.2012691e-21)
(2.3982707 -0.085985056 -9.8275191e-21)
(2.403902 -0.11844092 3.0283743e-21)
(2.4388269 -0.1468611 -5.1910734e-22)
(2.4859515 -0.14939779 9.6149206e-22)
(2.5231163 -0.13040179 -4.6090538e-21)
(2.5398766 -0.1024686 -4.3954319e-21)
(2.5391497 -0.080340251 3.4446764e-21)
(2.5315631 -0.070428461 -1.8250129e-21)
(2.526133 -0.070751259 -6.4188741e-22)
(2.5269792 -0.075880038 -4.0846528e-21)
(2.5340166 -0.08113824 1.7079957e-21)
(2.5451185 -0.083103898 2.2828527e-21)
(2.5575134 -0.080766032 1.7079829e-21)
(2.5689135 -0.074487336 -1.2939363e-21)
(2.5778869 -0.065413902 7.2089173e-22)
(2.5839018 -0.054963243 1.4569071e-21)
(2.5871016 -0.044253058 -1.2945286e-21)
(2.5880766 -0.034264983 -2.0230087e-21)
(2.5874529 -0.025209874 1.8314244e-21)
(2.5861004 -0.017670011 -2.75934e-21)
(2.5843738 -0.011036533 -1.5713321e-21)
(2.5833455 -0.0060622453 9.1380322e-23)
(2.5826101 -0.0014358008 6.0511141e-23)
(2.4676597 -0.1405652 -6.5724228e-21)
(2.4447794 -0.066880333 2.1001e-21)
(2.3887819 -0.079220714 6.2445066e-21)
(2.3899995 -0.12114874 -5.4021117e-21)
(2.4284888 -0.15935389 -4.2830454e-21)
(2.4840991 -0.16594469 -4.1510763e-21)
(2.5296829 -0.14482584 -6.2072206e-21)
(2.5504752 -0.11016059 -1.3259224e-21)
(2.5481917 -0.081220477 -3.0657726e-21)
(2.5358762 -0.06763575 2.3769602e-21)
(2.5253771 -0.067763771 1.4470311e-21)
(2.5226366 -0.075345 -1.2933119e-21)
(2.5281016 -0.083936692 7.954396e-22)
(2.5394937 -0.089218284 -7.2828545e-21)
(2.5535052 -0.089438615 2.322997e-21)
(2.5671848 -0.084623042 -3.9610647e-22)
(2.5785023 -0.075960563 5.2780497e-21)
(2.5865022 -0.065049658 -4.5352095e-21)
(2.5911292 -0.05343965 -8.9596809e-22)
(2.5928793 -0.042181461 -5.46399e-22)
(2.5925556 -0.032087667 0)
(2.5908595 -0.023228368 -1.2446071e-22)
(2.5886788 -0.01602117 2.2808917e-21)
(2.5863328 -0.0098394313 6.5231916e-23)
(2.5848558 -0.0053156123 1.1650706e-21)
(2.5837711 -0.0012124747 6.6972926e-22)
(2.4779868 -0.1395008 2.505545e-22)
(2.447924 -0.055070654 9.9521466e-21)
(2.3778262 -0.070023843 1.6571055e-20)
(2.3738685 -0.12306971 8.1626061e-22)
(2.4160565 -0.17264901 1.3992691e-22)
(2.4814552 -0.18438033 2.229716e-22)
(2.5372447 -0.16135577 -6.0914636e-21)
(2.5634596 -0.11885601 -4.777022e-22)
(2.5597494 -0.081435251 4.0579031e-21)
(2.5418866 -0.062985268 5.0920229e-22)
(2.5251879 -0.06250245 -2.3370641e-21)
(2.5177407 -0.072532829 -1.9639039e-21)
(2.5209227 -0.08505983 4.7801986e-22)
(2.5322156 -0.094429542 2.978215e-21)
(2.5478132 -0.097939696 -5.882507e-21)
(2.5640221 -0.095211083 1.0975572e-21)
(2.5781143 -0.087358748 7.2222498e-22)
(2.5885958 -0.076217784 2.9431805e-21)
(2.5950985 -0.063637774 -7.3023728e-21)
(2.5980454 -0.051133994 2.7009821e-21)
(2.598229 -0.039586357 1.5805653e-21)
(2.596596 -0.029590128 6.4993258e-24)
(2.5938687 -0.02106821 -4.5477997e-21)
(2.590914 -0.014283813 -1.5370292e-21)
(2.5880016 -0.00860493 -1.5649674e-21)
(2.586114 -0.0045681011 -5.7606504e-23)
(2.5847106 -0.00099179831 0)
(2.4854577 -0.13673012 1.6481496e-21)
(2.4476426 -0.041248185 3.6711351e-21)
(2.3641711 -0.058842041 -7.1598988e-21)
(2.3554186 -0.12384723 1.1429098e-20)
(2.4013849 -0.18678485 2.6149824e-21)
(2.4778596 -0.20485179 1.5936492e-21)
(2.5457518 -0.18023303 1.1240161e-20)
(2.5790022 -0.12880688 3.0303394e-22)
(2.5741267 -0.081031856 2.5786016e-21)
(2.5498429 -0.056320507 -2.9396048e-21)
(2.5256663 -0.054660521 -2.8531278e-21)
(2.5123625 -0.06727203 6.0661088e-22)
(2.5123624 -0.084297294 -5.1741817e-23)
(2.5230974 -0.098496951 -9.2740381e-22)
(2.5401729 -0.1061175 -5.2861268e-21)
(2.5591268 -0.10619493 3.1889867e-21)
(2.5764357 -0.099676946 -6.7693346e-21)
(2.5899417 -0.088562432 4.9162612e-21)
(2.5988538 -0.075095507 -2.9819326e-22)
(2.6034215 -0.061164243 2.5542699e-21)
(2.6044912 -0.048100849 7.5724486e-21)
(2.6030675 -0.036539028 4.2013293e-21)
(2.6001638 -0.026835272 4.2684307e-23)
(2.5964738 -0.018775607 1.1684978e-22)
(2.5928126 -0.012488793 4.9094531e-22)
(2.5893902 -0.0073505725 1.6517636e-21)
(2.5871328 -0.0038224274 2.2361743e-23)
(2.5854672 -0.00077411949 1.5961698e-21)
(2.489614 -0.13262558 1.3137707e-21)
(2.439174 -0.024930958 -4.5478957e-22)
(2.3445412 -0.045083658 -4.4398007e-22)
(2.3341058 -0.1242218 -5.2649601e-21)
(2.3847651 -0.20184026 -2.2577205e-21)
(2.4732974 -0.22750434 7.2050636e-22)
(2.5551623 -0.20171383 8.3058892e-21)
(2.5972762 -0.1402427 3.3353858e-23)
(2.5915547 -0.080027696 -1.4637194e-20)
(2.5599642 -0.047564362 -2.4817573e-21)
(2.526947 -0.043978933 -5.7549734e-22)
(2.5064918 -0.059290238 4.1081302e-21)
(2.5023591 -0.081373364 2.4723991e-21)
(2.5119709 -0.10120763 3.869923e-21)
(2.5303345 -0.11381629 2.6636842e-21)
(2.5521987 -0.11751028 -2.9735189e-21)
(2.5731641 -0.11295104 -1.528981e-21)
(2.5902829 -0.10223327 6.338219e-21)
(2.6022046 -0.087966891 1.2861708e-22)
(2.6089141 -0.072543345 -5.2275323e-21)
(2.6112341 -0.05768785 8.1937965e-21)
(2.610336 -0.044433156 -2.3669912e-22)
(2.6073368 -0.03312652 -1.0256951e-21)
(2.6032431 -0.023889908 1.5256758e-22)
(2.5986792 -0.016395831 4.4569893e-21)
(2.5943873 -0.01066432 1.2275053e-21)
(2.5905132 -0.0060915958 1.3940683e-21)
(2.5879293 -0.0030803493 -1.3273476e-21)
(2.5860595 -0.00056423255 -1.4976676e-22)
(2.4907859 -0.12636636 -2.9481956e-22)
(2.4217784 -0.0068405901 -3.5582414e-21)
(2.3165078 -0.030195008 -4.0819113e-21)
(2.3082841 -0.1235208 1.0080152e-20)
(2.3663739 -0.21791696 -1.0457395e-21)
(2.4680506 -0.25237749 8.9991014e-21)
(2.5654307 -0.22595083 -1.0341127e-20)
(2.6184197 -0.15345444 3.5137754e-20)
(2.612329 -0.078444234 9.7130514e-21)
(2.5724008 -0.036510734 3.9859672e-21)
(2.5291066 -0.030351288 -1.9348992e-21)
(2.5001349 -0.048326073 -9.2967127e-22)
(2.4908393 -0.076072394 -1.4488512e-21)
(2.4986839 -0.10235494 6.9543513e-21)
(2.5180717 -0.12086849 3.3061033e-21)
(2.5429482 -0.12907493 -2.4899014e-21)
(2.5679888 -0.12720908 1.8197385e-21)
(2.5893425 -0.11735634 -2.5086513e-21)
(2.6049498 -0.10246914 3.4039699e-21)
(2.6143987 -0.085464213 1.0347715e-21)
(2.6184313 -0.068619184 -2.173475e-21)
(2.6183369 -0.053327937 -5.374271e-22)
(2.6154854 -0.040250681 -4.3776136e-21)
(2.6110057 -0.029443734 -4.8102004e-21)
(2.6058345 -0.020820299 0)
(2.6004983 -0.0139711 2.170706e-21)
(2.595656 -0.0088352588 -2.221498e-21)
(2.5913889 -0.0048410372 1.1269884e-22)
(2.5885216 -0.0023522204 -8.2611652e-22)
(2.5864392 -0.00036388481 1.425119e-22)
(2.4884333 -0.11862442 1.6856277e-21)
(2.4011842 0.013818255 -1.0602511e-20)
(2.2825092 -0.013047591 7.9695693e-22)
(2.2766745 -0.12403153 2.0004552e-21)
(2.3460216 -0.23470791 -1.1772821e-21)
(2.4610279 -0.27900738 -9.1395222e-21)
(2.5752771 -0.25260523 8.9126305e-21)
(2.6411617 -0.16843865 -6.9740701e-20)
(2.6365113 -0.076339493 1.2570067e-20)
(2.5873947 -0.023080763 -1.6324151e-21)
(2.5322142 -0.013424252 -5.8247655e-22)
(2.493256 -0.034252517 -4.5967083e-22)
(2.4777366 -0.068198984 -9.9335126e-21)
(2.4831217 -0.10176333 -5.0720979e-21)
(2.5031941 -0.12711686 -4.155984e-22)
(2.5311075 -0.14079261 -4.8506193e-21)
(2.5606025 -0.14245762 3.8391844e-21)
(2.5868291 -0.13405377 -8.6643319e-21)
(2.6068672 -0.11880763 1.33736e-20)
(2.6197512 -0.10019005 -9.4041362e-21)
(2.6260331 -0.081102125 2.1318698e-21)
(2.6271089 -0.063473265 5.9319875e-21)
(2.6245817 -0.0482476 -9.9884804e-21)
(2.6198846 -0.03568766 -1.4796278e-22)
(2.6140682 -0.025586143 -1.0591237e-21)
(2.6079528 -0.017688538 -1.4973523e-22)
(2.6019523 -0.011539001 -1.7644277e-21)
(2.5966402 -0.0070229388 1.4846599e-21)
(2.5920354 -0.0036103413 1.2542282e-21)
(2.5889238 -0.0016485147 3.736682e-22)
(2.5866823 -0.00013708358 2.8956183e-22)
(2.480473 -0.10787329 3.6615129e-22)
(2.3741102 0.037775958 3.7492495e-20)
(2.246312 0.0034152538 5.7341738e-22)
(2.2405496 -0.12377425 9.638833e-21)
(2.3231873 -0.25302155 3.0763707e-21)
(2.4522814 -0.30683491 6.9128319e-21)
(2.5817029 -0.2804732 -2.5853756e-21)
(2.6614227 -0.18477942 -4.3844266e-20)
(2.6617538 -0.073459248 4.1718193e-21)
(2.6046648 -0.0071233994 -1.7188802e-20)
(2.5363592 0.0067763888 0)
(2.4858588 -0.016750002 -4.1739505e-21)
(2.4629802 -0.057642536 -7.8489946e-21)
(2.4652014 -0.09929066 -4.8835408e-21)
(2.4855553 -0.13241863 4.4404017e-23)
(2.516448 -0.15255435 -1.032556e-22)
(2.5507105 -0.15867695 6.1390388e-22)
(2.5824429 -0.1524284 -4.9188845e-21)
(2.6077155 -0.13719263 1.6965216e-21)
(2.6248294 -0.11698533 1.275983e-21)
(2.6340049 -0.095417843 4.3267988e-21)
(2.6366764 -0.075064805 6.5968199e-22)
(2.6347206 -0.057324902 4.3785895e-21)
(2.629878 -0.042635079 -7.4518338e-22)
(2.6235167 -0.030881148 2.7232152e-21)
(2.61654 -0.021643703 -1.1776762e-21)
(2.6096244 -0.014549789 -4.0873174e-22)
(2.6030671 -0.0091314945 -2.3367236e-21)
(2.5973632 -0.0052447433 5.2115843e-22)
(2.5924715 -0.0024084825 -1.4078747e-21)
(2.5891564 -0.00096216291 4.9689161e-22)
(2.5867779 0.00011456043 -3.7275328e-22)
(2.4679043 -0.094045943 3.467609e-21)
(2.3385097 0.065626563 1.0633708e-20)
(2.2053798 0.023374309 -2.321333e-21)
(2.2027016 -0.12686893 4.5051998e-21)
(2.2969686 -0.27168409 -1.3942768e-20)
(2.4408589 -0.33570068 1.1159832e-20)
(2.5859572 -0.30952656 -1.3174128e-20)
(2.6763274 -0.20144388 9.2930104e-20)
(2.6823679 -0.069454123 -5.4734305e-20)
(2.6210351 0.011608626 8.7257549e-21)
(2.5411007 0.030399471 -1.4414939e-20)
(2.4778516 0.0040605105 -3.6621161e-21)
(2.4465397 -0.044268645 2.1100654e-20)
(2.4448735 -0.094854821 2.0945015e-21)
(2.4650647 -0.1366476 1.137783e-21)
(2.4987878 -0.16424367 2.027649e-20)
(2.5380492 -0.17582087 -1.0193443e-20)
(2.575883 -0.17254956 1.4221519e-21)
(2.6072343 -0.15782335 -5.7563574e-21)
(2.629473 -0.1361318 7.5399096e-21)
(2.6423031 -0.11186082 -8.3096014e-21)
(2.6470972 -0.088370096 1.7202429e-21)
(2.6459912 -0.06764238 -5.2048807e-21)
(2.6411222 -0.050435553 -2.8726411e-21)
(2.6341919 -0.036685661 1.1136576e-20)
(2.6263986 -0.02596107 -4.4964045e-21)
(2.6184547 -0.017696204 -3.7468707e-22)
(2.6108832 -0.011450455 -2.3188159e-21)
(2.6038725 -0.0067743796 -4.6876854e-22)
(2.597849 -0.0035136694 -1.4696557e-21)
(2.592717 -0.0012414872 -1.3704538e-22)
(2.5892439 -0.00028211967 -9.8482141e-22)
(2.5867502 0.00032225219 -2.3593784e-22)
(2.45159 -0.077750727 3.62272e-21)
(2.3023676 0.096728338 -7.5311491e-20)
(2.160934 0.047380072 1.0187635e-21)
(2.1587828 -0.12705451 -3.4065742e-20)
(2.2702469 -0.29303636 -9.3464535e-21)
(2.4259506 -0.36467021 -1.2825632e-20)
(2.5854088 -0.33831052 2.4171275e-22)
(2.6892049 -0.21893068 6.3748863e-20)
(2.6980409 -0.064311047 -1.5855964e-20)
(2.6324711 0.033210301 2.8856554e-20)
(2.5429703 0.057523455 8.5642156e-21)
(2.4689993 0.028353521 2.1357021e-21)
(2.4283018 -0.028159289 1.2174913e-22)
(2.4221344 -0.088401441 -1.2685678e-20)
(2.441691 -0.13971519 1.1874035e-21)
(2.47801 -0.17573565 6.7669308e-21)
(2.5223916 -0.19380933 1.7328822e-20)
(2.5668622 -0.19445334 -2.03566e-21)
(2.6051473 -0.18086795 2.1116482e-21)
(2.6334962 -0.15791396 1.9845881e-21)
(2.6508733 -0.13075565 -3.2000393e-21)
(2.6584335 -0.10367809 5.5290959e-21)
(2.6585352 -0.079422768 -6.0391385e-21)
(2.6537547 -0.059193463 -3.832985e-21)
(2.646253 -0.043081506 -2.1465916e-21)
(2.6375403 -0.030585814 -4.4732488e-22)
(2.6285739 -0.021042496 7.8380978e-22)
(2.6198578 -0.013810177 4.3347088e-21)
(2.6117685 -0.0084272497 5.6216385e-22)
(2.6043994 -0.0044871623 -1.140496e-22)
(2.5981221 -0.0018388383 -4.0770877e-22)
(2.5927919 -0.00011489063 3.0540819e-22)
(2.5891966 0.00039065339 -4.3526612e-22)
(2.5866042 0.00052612497 -6.5134429e-23)
(2.4322045 -0.059453786 -6.4460941e-21)
(2.2679446 0.12994773 9.1794993e-21)
(2.1190834 0.072636685 3.5874749e-20)
(2.1102754 -0.12566337 -7.1232344e-22)
(2.2355757 -0.31271203 7.3039296e-21)
(2.4093927 -0.3939765 3.9953201e-21)
(2.579325 -0.36820402 -1.5411313e-21)
(2.6963704 -0.23528916 -5.2735848e-20)
(2.7120862 -0.058913536 1.1412734e-19)
(2.6418428 0.057481845 1.5492161e-20)
(2.5387535 0.087702338 2.1847e-20)
(2.4572615 0.055981433 -7.261898e-21)
(2.4082632 -0.0092539929 -8.0727616e-21)
(2.3969916 -0.080004318 -5.9337166e-24)
(2.4154671 -0.14155025 -6.354646e-21)
(2.4540647 -0.1869133 -3.1698991e-20)
(2.5035729 -0.21253086 -6.0957348e-22)
(2.5551107 -0.21811976 -1.8459235e-21)
(2.6011684 -0.20646433 1.9495847e-21)
(2.6366863 -0.18259803 -4.3562723e-21)
(2.6596389 -0.15244607 1.8630269e-21)
(2.6707515 -0.12131713 1.5071501e-22)
(2.6725145 -0.092912067 4.9852561e-21)
(2.667982 -0.06906046 2.7252102e-21)
(2.6598646 -0.050105106 7.8103708e-21)
(2.6501284 -0.035529036 -1.7618336e-21)
(2.6399811 -0.024500673 -6.980953e-21)
(2.6301052 -0.016220516 3.8949747e-21)
(2.6208025 -0.010037407 1.0910811e-22)
(2.6123212 -0.0055072157 2.1023197e-21)
(2.6046788 -0.0022834965 0)
(2.5982069 -0.00022633029 -9.5432601e-23)
(2.5927192 0.00096678669 2.2848579e-23)
(2.5890223 0.0010479698 6.4457657e-22)
(2.5863486 0.00072960234 0)
(2.4104989 -0.039745464 -7.533314e-21)
(2.2361286 0.16436882 8.9674397e-20)
(2.0828274 0.09984664 -1.0009363e-19)
(2.0635947 -0.12520005 -1.6980871e-20)
(2.1944004 -0.33326911 3.7072296e-22)
(2.3838596 -0.42345127 6.4535471e-21)
(2.5697618 -0.39572853 -3.0918551e-20)
(2.6966051 -0.25515134 -1.3016796e-19)
(2.724716 -0.054450087 3.2187936e-20)
(2.6519829 0.082191675 -2.8106184e-20)
(2.5339951 0.12003787 -3.5795369e-20)
(2.4408001 0.086063392 -2.9653143e-21)
(2.3858798 0.012070579 -5.2109292e-21)
(2.3695437 -0.069663018 3.8073118e-20)
(2.3864873 -0.14215792 1.5584035e-21)
(2.4269795 -0.19764941 -2.3652209e-20)
(2.481486 -0.23184797 -1.3719501e-20)
(2.5404036 -0.24348339 -5.6746994e-21)
(2.5950053 -0.23468228 -1.1823214e-20)
(2.6387991 -0.21043276 5.7562147e-21)
(2.6684921 -0.17727832 -1.9544986e-21)
(2.6841074 -0.14164909 1.5777546e-21)
(2.6881139 -0.10839757 8.6818584e-21)
(2.6840457 -0.080206087 -2.3321765e-21)
(2.6752712 -0.057819359 -2.8451185e-21)
(2.6643308 -0.040754723 4.7602967e-21)
(2.6528257 -0.028014327 -3.0020562e-21)
(2.6416016 -0.01856567 1.7109789e-21)
(2.6310665 -0.011567832 -1.7620721e-21)
(2.621345 -0.0064149659 -7.4596944e-21)
(2.6125825 -0.0027085459 -1.9283686e-21)
(2.6047402 -0.00017215988 7.0324445e-22)
(2.5981247 0.0013201758 -1.4739518e-21)
(2.5925209 0.0020024262 1.03404e-22)
(2.5887391 0.0016817303 1.656995e-22)
(2.585999 0.00092141926 -1.6877665e-22)
(2.3871784 -0.019246439 7.3196553e-21)
(2.2080336 0.19901981 4.0408954e-22)
(2.0537491 0.12801535 -2.180058e-20)
(2.02187 -0.12417911 8.8237925e-20)
(2.1503353 -0.35580768 6.7020897e-20)
(2.3516605 -0.4549542 4.1675898e-21)
(2.5512382 -0.42720993 -6.190683e-21)
(2.6924671 -0.2700633 5.0905829e-20)
(2.7269957 -0.053682722 -1.7302344e-19)
(2.6748773 0.10707956 -1.9031886e-20)
(2.5347417 0.15352733 -2.2805298e-20)
(2.4232827 0.11732533 4.4584534e-21)
(2.3603774 0.035319043 2.6197838e-20)
(2.3399282 -0.057715728 1.3161506e-20)
(2.3549205 -0.14150848 6.5231509e-21)
(2.3968593 -0.20785505 2.004092e-20)
(2.4561051 -0.25158431 -4.026248e-21)
(2.5225508 -0.27041575 -2.3014392e-22)
(2.5863803 -0.26554586 -2.4397034e-21)
(2.6395619 -0.24160376 1.1075042e-20)
(2.6772824 -0.20560077 -2.9745337e-21)
(2.6985338 -0.16506071 1.470749e-20)
(2.7055289 -0.12620768 -6.260389e-21)
(2.7022294 -0.092833904 -2.1892418e-21)
(2.6927635 -0.066293479 -5.0857727e-21)
(2.6804004 -0.046229956 2.5451617e-21)
(2.6672567 -0.031478389 -6.8995387e-21)
(2.654467 -0.020729907 3.3141899e-21)
(2.6425061 -0.012882602 4.1490879e-21)
(2.6315365 -0.0071348704 -2.912029e-21)
(2.6215411 -0.002966535 1.4524672e-21)
(2.6125914 -4.1871702e-05 3.9494522e-21)
(2.6046123 0.0018419822 5.0466224e-22)
(2.597895 0.002798086 1.4953333e-22)
(2.592212 0.002991581 0)
(2.5883627 0.0022869365 -7.4595586e-23)
(2.5855693 0.0011004212 -8.4708306e-22)
(2.3629505 0.001384895 4.0632226e-21)
(2.1845142 0.23306851 -2.655916e-20)
(2.031957 0.15658567 1.1568494e-19)
(1.9877544 -0.1221696 3.0385416e-20)
(2.10561 -0.37991057 -4.2922225e-20)
(2.3143995 -0.48801136 -1.0181555e-20)
(2.5246432 -0.46328159 2.2756054e-20)
(2.6812923 -0.29260767 7.2871584e-21)
(2.7242605 -0.048551056 3.8783135e-21)
(2.6822617 0.13226767 1.115856e-19)
(2.5361907 0.18962409 3.3645505e-20)
(2.4091065 0.15069617 3.0875933e-21)
(2.3326805 0.059171143 8.8926458e-21)
(2.3081802 -0.044161072 -1.4342635e-20)
(2.3210149 -0.13976091 2.6835179e-20)
(2.3638809 -0.217402 1.4353406e-20)
(2.4274779 -0.27157011 -5.1038612e-22)
(2.5014391 -0.2987312 2.4768543e-20)
(2.5750197 -0.29898038 -9.2301451e-21)
(2.6386766 -0.27626416 -9.5983653e-21)
(2.6858156 -0.23772333 1.5272432e-20)
(2.7140255 -0.19196267 5.2760463e-21)
(2.7249488 -0.14671098 4.3471941e-21)
(2.7228508 -0.10718597 -1.7249976e-21)
(2.7126887 -0.075614892 -2.2643817e-21)
(2.6986399 -0.051912887 -4.4882171e-21)
(2.6835055 -0.03476754 3.0526361e-21)
(2.6688128 -0.022549017 -2.9490562e-21)
(2.6552006 -0.013818254 9.8545623e-23)
(2.6428057 -0.0075198018 -5.7631985e-23)
(2.6315925 -0.0029519429 1.6648818e-21)
(2.6214434 0.00029541975 4.3894455e-21)
(2.6123841 0.0024881491 2.7408975e-21)
(2.6043213 0.0037573607 -1.3656658e-21)
(2.5975373 0.0042061129 7.2659012e-22)
(2.5918055 0.0039340367 -1.4649128e-22)
(2.5879052 0.0028595495 2.8324979e-22)
(2.5850635 0.0012640044 7.3795015e-22)
(2.3385667 0.021466325 -1.5907837e-21)
(2.1663756 0.26575587 -2.7060516e-20)
(2.0172581 0.18476568 -2.7934635e-20)
(1.9629532 -0.11891094 -2.6253852e-19)
(2.0624132 -0.40417286 -1.3308168e-21)
(2.2729576 -0.5225504 -6.493273e-21)
(2.4911786 -0.49999112 -5.5194464e-21)
(2.6597058 -0.32349263 -1.1077572e-19)
(2.7121102 -0.050785174 2.1871663e-19)
(2.6636649 0.15908391 -1.9919447e-20)