/*--------------------------------*- C++ -*----------------------------------*\
| =========                 |                                                 |
| \\      /  F ield         | OpenFOAM: The Open Source CFD Toolbox           |
|  \\    /   O peration     | Version:  v2012                                 |
|   \\  /    A nd           | Website:  www.openfoam.com                      |
|    \\/     M anipulation  |                                                 |
\*---------------------------------------------------------------------------*/
FoamFile
{
    version     2.0;
    format      ascii;
    class       surfaceVectorField;
    location    "62.4493107631428899";
    object      Uf;
}
// * * * * * * * * * * * * * * * * * * * * * * * * * * * * * * * * * * * * * //

dimensions      [0 1 -1 0 0 0 0];


internalField   nonuniform List<vector> 
18180
(
(2.5309576 0.0088263194 -3.8102375e-22)
(2.5268816 0.0028804322 7.4879542e-23)
(2.5250487 0.016329286 -3.4176924e-22)
(2.5227025 0.0091160683 -5.1331747e-22)
(2.521504 0.0035426837 -8.2943328e-23)
(2.5239188 0.0012371144 -6.7914167e-23)
(2.5164835 0.022024859 1.3894695e-22)
(2.516979 0.013036822 3.1657402e-22)
(2.5171757 0.0060656878 1.6380384e-22)
(2.5204469 0.0038189537 -1.2477774e-22)
(2.5216156 0.0016941061 -1.1044875e-22)
(2.5225517 0.00030219113 -1.2028423e-22)
(2.5053992 0.025662267 8.6567757e-22)
(2.5084934 0.015888743 5.2336147e-24)
(2.5109463 0.0073222846 1.5988912e-22)
(2.5157794 0.0048498029 4.1400262e-22)
(2.5178671 0.002629037 1.5498908e-22)
(2.5196409 0.0009463333 9.9529949e-23)
(2.5208225 -0.0003449656 9.4287645e-23)
(2.5228204 -0.00050284102 2.4661087e-22)
(2.4925635 0.026869494 6.4799848e-22)
(2.4987485 0.016463246 8.5279623e-22)
(2.503057 0.0070135759 2.453474e-23)
(2.5088126 0.0048387533 -4.9463033e-22)
(2.51256 0.0025020424 -2.5305432e-22)
(2.5158984 0.00047236318 -3.5107769e-22)
(2.5178412 -0.0012036606 -4.081857e-22)
(2.5203569 -0.0016787501 -4.0711333e-23)
(2.5221274 -0.0018067675 1.0151106e-22)
(2.524178 -0.001088229 2.0671964e-22)
(2.4784932 0.025518212 -5.7738088e-22)
(2.4878221 0.01504333 -3.8287419e-22)
(2.4942572 0.0050114801 -2.0431565e-22)
(2.5009421 0.0031776446 -4.0413377e-22)
(2.505847 0.0010293496 -9.0370534e-22)
(2.5102689 -0.00097193006 -5.2721492e-22)
(2.5136571 -0.0029155271 -6.2137698e-22)
(2.5174248 -0.0035040409 -2.6652544e-22)
(2.5197031 -0.0040274168 8.4581137e-23)
(2.522142 -0.0037395968 -2.6938616e-23)
(2.5241141 -0.0030293742 7.0975577e-23)
(2.5263745 -0.0015791611 -3.1268066e-24)
(2.4638885 0.02152549 -5.2082639e-22)
(2.4765104 0.011405877 -5.0692808e-22)
(2.484965 0.0012552705 -3.2116578e-22)
(2.4922186 -8.3764561e-05 -1.6526214e-22)
(2.4983704 -0.0018827967 -3.5437827e-22)
(2.5040188 -0.0036713248 -4.0436356e-22)
(2.5083806 -0.0056577432 -3.9162419e-23)
(2.5128833 -0.0062470524 -8.7517547e-23)
(2.5163581 -0.0068314599 2.576633e-22)
(2.5198359 -0.0065776877 1.9949359e-22)
(2.5221787 -0.0063813429 9.4812486e-23)
(2.5247417 -0.0054421752 7.3575467e-23)
(2.5268811 -0.0040477208 3.3352427e-24)
(2.5292065 -0.0020097692 3.4680297e-25)
(2.4494005 0.015046735 2.628732e-22)
(2.4651949 0.0056483833 2.5849425e-22)
(2.4757214 -0.0041939695 2.8372465e-22)
(2.4833267 -0.0048917305 5.7319394e-22)
(2.4904569 -0.0062378153 7.350883e-22)
(2.4971363 -0.0077152897 5.1026019e-22)
(2.5025897 -0.0094915114 4.7712519e-22)
(2.5079267 -0.0098240917 2.8689345e-22)
(2.5121279 -0.010451343 2.4751666e-22)
(2.5162123 -0.01031322 -1.2508434e-22)
(2.5195347 -0.010109408 -1.8621808e-22)
(2.5229285 -0.0091181565 -1.4579529e-22)
(2.5253573 -0.008295305 -1.7006516e-22)
(2.5279203 -0.0068303054 -7.4222522e-23)
(2.5301406 -0.0048900084 -7.8346439e-23)
(2.5325079 -0.0023619775 -8.8813725e-24)
(2.4356857 0.0062068186 2.0953727e-22)
(2.4545556 -0.0020592954 1.111185e-21)
(2.4669355 -0.01124581 1.0903285e-21)
(2.474623 -0.011128332 2.0382537e-22)
(2.4825419 -0.011914742 4.9288353e-22)
(2.4901788 -0.012908151 2.8377236e-22)
(2.4965218 -0.014403927 6.4178426e-23)
(2.5024895 -0.014509974 1.8007564e-22)
(2.5075192 -0.014898013 -3.1884046e-24)
(2.5122994 -0.014528687 -3.8862304e-23)
(2.5161994 -0.0144523 -3.9703892e-22)
(2.5200654 -0.01366637 -2.6432471e-22)
(2.5232811 -0.012777381 -2.2751218e-22)
(2.5265159 -0.01119812 -2.5375977e-22)
(2.5289632 -0.0098666028 -1.641315e-22)
(2.5315138 -0.0079578419 -1.4696354e-22)
(2.5337756 -0.0055635141 -8.1859925e-23)
(2.5361325 -0.0026327929 -6.1849631e-24)
(2.4232634 -0.0047844152 4.0945353e-23)
(2.4450483 -0.011461369 -3.2645191e-23)
(2.4589301 -0.019555395 8.3938103e-22)
(2.4664308 -0.018668115 6.7817395e-22)
(2.4748897 -0.018683665 -1.5555268e-22)
(2.4833564 -0.019228114 1.8007351e-22)
(2.490512 -0.0202881 -2.3330472e-23)
(2.4970336 -0.019998811 -1.7301812e-22)
(2.5027115 -0.020171065 -6.6117075e-23)
(2.5080339 -0.019677417 -1.9332187e-22)
(2.5125952 -0.019401816 -2.3057538e-22)
(2.5169955 -0.018404708 1.0330387e-22)
(2.5206659 -0.017701446 2.3705387e-22)
(2.5242806 -0.016406337 8.9719467e-23)
(2.5273629 -0.014973357 6.970248e-23)
(2.5304598 -0.012896121 7.4994169e-23)
(2.5328967 -0.01113584 9.515169e-23)
(2.5353964 -0.0088544424 -9.4752428e-24)
(2.5376539 -0.0060878263 6.3629046e-23)
(2.5399596 -0.0028353232 -2.1455607e-23)
(2.4123644 -0.017382531 3.8310785e-22)
(2.43659 -0.022015398 -6.7201729e-22)
(2.451622 -0.028593715 -6.7424719e-22)
(2.4588555 -0.027025276 -1.4327163e-22)
(2.4676797 -0.026272704 -3.3065482e-22)
(2.4768976 -0.026365616 2.582411e-22)
(2.4847446 -0.026999568 5.833552e-22)
(2.4917145 -0.026363113 2.9663929e-22)
(2.4979765 -0.026182104 1.569367e-22)
(2.5037907 -0.025364987 -9.5971634e-23)
(2.5088701 -0.024955932 -2.1721757e-22)
(2.5136687 -0.023921831 1.5897159e-22)
(2.5178543 -0.023052295 4.8201912e-22)
(2.5218939 -0.021577046 4.587525e-22)
(2.5253398 -0.020382303 3.2228455e-22)
(2.5287482 -0.018648806 3.7344801e-22)
(2.5317011 -0.016755226 3.8316918e-22)
(2.5346472 -0.014254455 1.8218534e-22)
(2.5370413 -0.012135267 8.4138569e-23)
(2.5394623 -0.0095429434 -2.2175205e-23)
(2.5416747 -0.0064797378 -1.043866e-22)
(2.5438903 -0.0029798443 2.4785627e-22)
(2.4032141 -0.031118827 2.0547139e-24)
(2.4292897 -0.033358878 5.1579924e-22)
(2.4450318 -0.037984609 -4.9740756e-22)
(2.4519255 -0.035864181 -7.6082507e-22)
(2.4610857 -0.034452468 -2.7578099e-22)
(2.4709154 -0.034154705 -1.5947922e-22)
(2.4793626 -0.034372123 4.0236484e-22)
(2.4867125 -0.033342925 -9.3828599e-23)
(2.4934639 -0.032827367 -3.8123671e-22)
(2.4997006 -0.031734831 -5.328696e-22)
(2.5052515 -0.03104227 -7.8369865e-22)
(2.5103928 -0.029751521 7.0923254e-23)
(2.5149696 -0.028818417 4.3257455e-22)
(2.5193133 -0.027393014 1.0344488e-22)
(2.5231658 -0.026072399 7.5323035e-23)
(2.5269199 -0.024189881 -1.9744845e-22)
(2.5301704 -0.022574374 -1.5720767e-22)
(2.5333858 -0.020456077 7.5384172e-23)
(2.5362011 -0.018170153 -1.2037092e-22)
(2.5389865 -0.015306669 1.6469603e-22)
(2.5413092 -0.0128889 6.4882754e-23)
(2.5436202 -0.010042428 -2.0687251e-22)
(2.5457503 -0.0067522898 1.258834e-22)
(2.5478426 -0.00307229 2.5886079e-22)
(2.3961734 -0.045506607 -3.4002714e-22)
(2.4234128 -0.045146918 -2.9633177e-22)
(2.4394351 -0.047487899 2.0141834e-22)
(2.4458798 -0.044994496 2.5180536e-22)
(2.4552482 -0.043064382 -1.9918521e-23)
(2.4654988 -0.042403897 -2.1511537e-22)
(2.4744132 -0.042235462 -1.0373798e-22)
(2.4821062 -0.040871166 -4.9420864e-22)
(2.4892849 -0.039991058 -9.8142416e-22)
(2.4959159 -0.038550882 -7.3013433e-22)
(2.5018756 -0.037585126 -8.7952018e-22)
(2.5072883 -0.036083052 -3.9721701e-22)
(2.5122071 -0.034930599 4.205971e-22)
(2.5167904 -0.033327928 3.7871735e-22)
(2.5209375 -0.032016543 6.5369667e-23)
(2.5249279 -0.030267539 1.6902567e-22)
(2.5285082 -0.028563808 -8.8806346e-23)
(2.5320246 -0.026321708 -1.0901619e-22)
(2.535096 -0.024339437 1.1226375e-22)
(2.5381299 -0.021874482 -2.3590915e-22)
(2.5407964 -0.019252024 3.2980647e-23)
(2.5434012 -0.016079955 -7.9654058e-23)
(2.5456229 -0.013418517 -3.4000384e-22)
(2.547793 -0.010371039 -3.6951887e-23)
(2.5498089 -0.0069170938 8.6783138e-23)
(2.5517494 -0.003117539 -4.2153831e-22)
(2.3914601 -0.060001113 4.8942037e-23)
(2.4190547 -0.05694454 1.0232244e-22)
(2.4349039 -0.056790589 2.0399166e-22)
(2.4407738 -0.054107098 1.1339242e-22)
(2.4501404 -0.051822006 1.2878615e-22)
(2.460636 -0.050909412 2.2247507e-22)
(2.4698682 -0.050395642 4.0892252e-23)
(2.4779139 -0.048771186 2.8687371e-23)
(2.4854833 -0.047567784 -3.3523244e-22)
(2.4925122 -0.045798612 -3.1276733e-22)
(2.4988563 -0.04451141 -6.3904556e-23)
(2.5045031 -0.042687682 4.0066292e-23)
(2.5097008 -0.041317375 5.1260781e-22)
(2.5144358 -0.039589738 -6.8942436e-23)
(2.5188181 -0.038134606 -1.1624297e-22)
(2.5229697 -0.036303169 2.212722e-22)
(2.5267776 -0.03468171 3.2210952e-22)
(2.5305039 -0.032647623 2.2115425e-22)
(2.5338604 -0.030607096 2.0646121e-22)
(2.5371789 -0.028029897 5.0643546e-23)
(2.5400809 -0.02571933 -2.809073e-22)
(2.5429284 -0.022938719 2.1854242e-22)
(2.5454277 -0.020029454 1.1446205e-22)
(2.5478267 -0.016598778 -2.3426143e-22)
(2.5499177 -0.013744412 5.5116807e-23)
(2.5519167 -0.010545857 -1.3168902e-22)
(2.5537907 -0.0069850346 -6.177051e-22)
(2.5555559 -0.0031201034 -3.9147503e-22)
(2.3891257 -0.07405879 3.7302401e-24)
(2.4161749 -0.068307121 1.2594392e-22)
(2.4313656 -0.065554197 2.5682823e-22)
(2.436539 -0.062881667 4.6574873e-22)
(2.4456611 -0.060405938 3.8379158e-22)
(2.4562367 -0.059421419 1.0548503e-22)
(2.4656533 -0.058669009 1.9408725e-22)
(2.4740927 -0.056923548 6.9867474e-23)
(2.4820532 -0.055476782 6.3209238e-23)
(2.4895264 -0.053374771 4.3635554e-22)
(2.4962607 -0.051771049 4.6954674e-22)
(2.5021342 -0.049584678 7.9366944e-22)
(2.5075799 -0.047914161 9.0569469e-22)
(2.5123956 -0.045934624 3.5837286e-22)
(2.5169327 -0.04433881 -1.9632112e-22)
(2.5211359 -0.042504404 -8.124496e-22)
(2.5251009 -0.040829673 -5.0274987e-22)
(2.5289616 -0.038813273 -2.1896188e-22)
(2.532517 -0.036922323 -3.2319707e-22)
(2.5360577 -0.034607719 2.5820172e-22)
(2.539228 -0.032254536 1.1203203e-22)
(2.5423644 -0.029353788 -1.0615628e-22)
(2.5450934 -0.02674574 3.7077877e-22)
(2.5477366 -0.023677201 1.5247795e-22)
(2.5500446 -0.020526981 -1.7805067e-22)
(2.5522076 -0.016885156 5.4180356e-22)
(2.5541388 -0.013885019 3.7193321e-22)
(2.5559378 -0.01058226 5.8680452e-22)
(2.5576472 -0.0069655674 8.2013702e-22)
(2.5592185 -0.0030837609 -1.5553969e-23)
(2.3890908 -0.087172639 -1.0379179e-22)
(2.4146575 -0.078812499 9.1800943e-22)
(2.4287108 -0.073476684 1.0783513e-21)
(2.4330731 -0.070998384 1.007524e-22)
(2.4416932 -0.068524022 3.4652641e-22)
(2.4521738 -0.067721842 2.4333547e-22)
(2.4616446 -0.066900025 -2.3130319e-23)
(2.4705499 -0.065223624 -3.4674359e-22)
(2.4789285 -0.063666547 -4.7310632e-22)
(2.4869481 -0.061262626 -5.0475481e-22)
(2.4941207 -0.059346227 -1.5918424e-22)
(2.5002595 -0.056704159 4.7983378e-22)
(2.505952 -0.054681149 7.8776419e-22)
(2.5107892 -0.052376865 7.7045288e-22)
(2.5154173 -0.050542953 2.4899979e-22)
(2.5195589 -0.04859546 1.1734362e-22)
(2.5235786 -0.04689261 -4.6283755e-22)
(2.5274544 -0.04501814 -5.4320567e-22)
(2.5311361 -0.043170204 -2.7511738e-22)
(2.5348375 -0.040960319 1.342592e-23)
(2.5382158 -0.038807603 5.7091355e-22)
(2.5416184 -0.036193769 1.7232844e-22)
(2.5446191 -0.033539226 -3.4889065e-23)
(2.5475654 -0.030320293 4.357601e-22)
(2.5501047 -0.027441636 2.2948667e-22)
(2.5525128 -0.024112821 9.6789241e-23)
(2.5546008 -0.020765077 7.847748e-22)
(2.5564952 -0.016958145 7.7611212e-22)
(2.558239 -0.013856124 9.863467e-22)
(2.5598122 -0.010493285 1.1651344e-21)
(2.5613389 -0.0068663459 3.7702081e-22)
(2.5627019 -0.0030114988 -6.0281613e-22)
(2.3911865 -0.098881874 -3.8345464e-22)
(2.4142718 -0.088181327 3.7554885e-22)
(2.4267798 -0.080309604 1.3123086e-21)
(2.4302387 -0.078211261 1.482446e-21)
(2.4380862 -0.075911481 6.0698506e-22)
(2.448285 -0.075589338 -4.0833479e-22)
(2.4576616 -0.074948321 -5.1808259e-22)
(2.4671374 -0.073589763 -1.8207602e-22)
(2.4759888 -0.072107406 -4.9184428e-22)
(2.4847153 -0.069457496 -3.4093556e-22)
(2.4924286 -0.067257537 -3.6918287e-22)
(2.4989314 -0.064074725 -5.4764228e-22)
(2.5049151 -0.061615625 5.311415e-23)
(2.5097407 -0.058833702 1.0489998e-22)
(2.5144088 -0.056678241 7.8196084e-23)
(2.5183622 -0.054556704 3.4204756e-22)
(2.5223309 -0.052745193 2.1877976e-22)
(2.5260804 -0.050949356 5.1803154e-22)
(2.5297747 -0.049209868 4.5620663e-22)
(2.5335285 -0.047281733 3.3120384e-22)
(2.5370544 -0.045256878 6.1489228e-22)
(2.54069 -0.042802395 -3.1685128e-22)
(2.5439391 -0.0403724 -7.0995834e-22)
(2.547213 -0.037427861 2.5477969e-22)
(2.5500378 -0.034476605 7.0614323e-22)
(2.5527619 -0.030945306 3.3855225e-22)
(2.5550828 -0.027822097 2.1447038e-22)
(2.5572158 -0.024263114 5.9307514e-22)
(2.5590528 -0.020759885 5.8189862e-22)
(2.5606462 -0.016833615 -4.5655645e-22)
(2.5621778 -0.013670773 -3.089634e-22)
(2.5635036 -0.010289463 -7.1241578e-24)
(2.5648335 -0.0066934143 -9.4333507e-22)
(2.5659781 -0.0029057696 -5.4581292e-22)
(2.3948959 -0.10879885 -1.0699791e-21)
(2.4148038 -0.095949009 -2.5378273e-22)
(2.4254109 -0.085877778 4.6893157e-22)
(2.4278463 -0.084296706 -1.2794551e-21)
(2.4346601 -0.082326432 -1.1582609e-21)
(2.4443628 -0.082873727 2.1533879e-22)
(2.4534727 -0.082681087 -7.6450169e-22)
(2.4636575 -0.081964475 -4.651506e-22)
(2.4730659 -0.08080207 -1.452576e-22)
(2.4827381 -0.07799439 -2.5782547e-22)
(2.4911504 -0.075568773 -1.1118225e-22)
(2.4981738 -0.071734158 4.6391162e-22)
(2.5045521 -0.068757672 3.0739043e-22)
(2.5093697 -0.065327456 -3.1376903e-22)
(2.5140538 -0.062704516 -2.7213301e-22)
(2.517692 -0.060259604 -2.3196731e-23)
(2.521492 -0.05826556 2.2605912e-22)
(2.5249388 -0.056542635 1.1433131e-21)
(2.5285109 -0.054876966 1.4406358e-21)
(2.5321751 -0.053230318 7.7978666e-22)
(2.5357432 -0.051448254 6.6700888e-22)
(2.5395373 -0.04937846 -2.6472004e-22)
(2.5430006 -0.047131166 -1.1620041e-21)
(2.5466081 -0.044354403 -2.1009625e-22)
(2.5497395 -0.041618094 7.1367117e-22)
(2.5528545 -0.038310746 2.0884617e-22)
(2.5554742 -0.035067064 -1.4786101e-22)
(2.5579252 -0.031235379 3.3499361e-22)
(2.55999 -0.027895415 6.9603583e-22)
(2.5618037 -0.024141065 -1.2762371e-22)
(2.5633587 -0.020524119 -1.1245278e-21)
(2.5646218 -0.016525008 -1.4376716e-21)
(2.5659202 -0.013339949 -1.1683343e-21)
(2.5669823 -0.0099792318 -8.8480634e-22)
(2.5681054 -0.0064517452 -5.0640948e-22)
(2.5690247 -0.0027690507 7.0100565e-22)
(2.400009 -0.11735346 -7.6892293e-22)
(2.4173733 -0.10231028 -7.5726462e-22)
(2.4258098 -0.090076244 -2.2765643e-23)
(2.425746 -0.088891319 -1.2593703e-21)
(2.4312481 -0.087574935 -2.9465873e-21)
(2.4402031 -0.089330648 -1.7844205e-21)
(2.4488285 -0.089972614 -4.8831525e-22)
(2.4598629 -0.090318798 -2.6311936e-22)
(2.4699484 -0.089775393 2.8944109e-23)
(2.4808728 -0.08695664 3.3002279e-22)
(2.4902153 -0.084392689 2.293179e-22)
(2.4980141 -0.079797408 -1.1495151e-22)
(2.5049491 -0.076198287 4.3108364e-22)
(2.5097982 -0.071864015 6.8252484e-22)
(2.5145119 -0.068613949 9.8472217e-23)
(2.5177038 -0.065666165 -5.8008546e-22)
(2.5212168 -0.063342114 -3.4848504e-22)
(2.5241572 -0.061612076 2.0094675e-23)
(2.5274392 -0.0599951 8.8679718e-22)
(2.5308245 -0.058705884 -7.3704959e-23)
(2.5342965 -0.057192835 -7.2283356e-22)
(2.5381377 -0.055570382 7.363042e-22)
(2.5417406 -0.053667223 -1.4636038e-22)
(2.5456582 -0.051316759 -1.1040828e-21)
(2.5490989 -0.04877431 -2.0032812e-22)
(2.552654 -0.045592087 7.3143651e-22)
(2.5556413 -0.042518461 2.52372e-22)
(2.5585336 -0.038826567 1.3917718e-23)
(2.5609007 -0.035299938 4.7460424e-22)
(2.5630163 -0.031190705 4.6739604e-22)
(2.5647831 -0.02766582 -3.1817335e-22)
(2.5662337 -0.023757181 -1.0255184e-21)
(2.5674785 -0.020069035 -1.3212326e-21)
(2.5683877 -0.01604481 -7.2944463e-22)
(2.5694371 -0.012873776 -4.5344305e-22)
(2.570225 -0.0095700156 -1.0641406e-21)
(2.5711344 -0.0061463309 7.3669957e-23)
(2.5718249 -0.0026045823 6.3873331e-22)
(2.4070539 -0.12482805 5.2308835e-23)
(2.4217699 -0.10727274 1.4353415e-21)
(2.4282892 -0.092635741 1.4381477e-21)
(2.4245039 -0.092338904 8.476641e-22)
(2.4273076 -0.091496813 -2.8870608e-22)
(2.4356211 -0.094904459 -9.3253345e-22)
(2.4434619 -0.09670781 2.1223054e-22)
(2.4555145 -0.098571255 -4.4564653e-24)
(2.4664074 -0.099082743 2.1692021e-22)
(2.4789561 -0.096437924 -1.1488467e-22)
(2.4895213 -0.093876359 1.6765902e-22)
(2.4984262 -0.088401261 1.3638131e-22)
(2.5061768 -0.084077274 -1.8531317e-22)
(2.5111722 -0.078580213 1.3461257e-22)
(2.5159692 -0.074447759 3.7034262e-22)
(2.5185912 -0.070693009 2.8119335e-22)
(2.521697 -0.067879554 -3.5948196e-22)
(2.52388 -0.066026462 -1.1541909e-21)
(2.5266805 -0.064379992 -8.1670257e-22)
(2.5295489 -0.063470341 -1.4310084e-21)
(2.5327407 -0.062276133 -2.3772663e-21)
(2.5364677 -0.061263463 -8.2700944e-22)
(2.5400998 -0.059790889 5.5478895e-22)
(2.5442717 -0.057976633 -8.074582e-23)
(2.547995 -0.055822314 -9.9006986e-22)
(2.5520269 -0.053036433 2.9556802e-22)
(2.5554256 -0.050118961 1.1879676e-21)
(2.5588493 -0.046462141 -2.8926324e-22)
(2.5616336 -0.043028878 -5.2403953e-22)
(2.5642167 -0.038949911 3.6171147e-22)
(2.5662724 -0.03515968 3.5312928e-22)
(2.5679872 -0.030809641 2.879167e-22)
(2.5694141 -0.027137413 -3.7436882e-22)
(2.5704636 -0.023122314 -2.114515e-22)
(2.5713753 -0.019406778 3.6746336e-22)
(2.5719149 -0.015406136 -9.451559e-24)
(2.5727049 -0.012282967 -5.8227808e-22)
(2.5732143 -0.0090699574 1.018095e-22)
(2.5739061 -0.005783576 6.3872515e-22)
(2.5743668 -0.0024168887 -5.9785401e-24)
(2.4162151 -0.13097519 -5.1313954e-22)
(2.4271506 -0.11011596 1.4180423e-22)
(2.4310866 -0.093087563 1.4564477e-21)
(2.4231117 -0.093964433 1.513593e-21)
(2.4223902 -0.093570601 9.7682079e-22)
(2.4300914 -0.099397549 9.981423e-22)
(2.4371021 -0.10274072 4.0680039e-22)
(2.4502897 -0.10684098 4.2100954e-22)
(2.4621672 -0.10879465 2.1848957e-22)
(2.4768189 -0.10656556 -3.0497847e-22)
(2.4889541 -0.10419837 -6.2903263e-22)
(2.4993831 -0.097742243 -2.6897889e-22)
(2.5082855 -0.09258395 -2.9923505e-22)
(2.5136126 -0.0855259 -3.844788e-22)
(2.5186215 -0.080271251 -8.3776449e-23)
(2.5205524 -0.075441982 -4.913823e-22)
(2.5231389 -0.071811557 -5.8783476e-22)
(2.52431 -0.06962289 7.0834452e-22)
(2.5263971 -0.067853238 -3.0701387e-23)
(2.5284458 -0.067306855 8.8967173e-23)
(2.5311273 -0.066463313 -4.803016e-22)
(2.534521 -0.066187819 -1.7921097e-21)
(2.5380236 -0.065280428 -3.1295932e-22)
(2.54235 -0.06423041 -3.0130022e-22)
(2.546298 -0.062596233 -9.1801995e-22)
(2.5508192 -0.060340292 -2.3061057e-22)
(2.5546599 -0.05778711 1.0005846e-21)
(2.5587123 -0.054427832 1.8500417e-21)
(2.5619967 -0.051067185 4.5760474e-22)
(2.5651707 -0.04689617 -3.8578254e-22)
(2.5676706 -0.043098368 4.5737337e-22)
(2.5698482 -0.038654602 -2.4549806e-22)
(2.5715302 -0.034633138 -3.1663015e-22)
(2.5727838 -0.030093723 -2.7661611e-22)
(2.5738342 -0.02631811 -1.2043479e-22)
(2.5744534 -0.022250273 6.4583626e-22)
(2.5750167 -0.018552272 2.9242077e-22)
(2.5751801 -0.014623901 -7.9311624e-22)
(2.5757062 -0.01158021 -1.4663887e-22)
(2.5759383 -0.0084898212 1.6014305e-21)
(2.5764115 -0.0053723767 1.0040685e-21)
(2.5766446 -0.0022116616 3.1155856e-22)
(2.4267311 -0.13549339 -4.6893847e-22)
(2.433039 -0.11120393 -9.7697067e-22)
(2.4333375 -0.091129907 -3.6225246e-22)
(2.4209057 -0.093055108 1.3671885e-22)
(2.4164925 -0.093689492 1.8800494e-22)
(2.4234633 -0.10230668 -9.2994753e-22)
(2.4295423 -0.10807083 -9.3943886e-22)
(2.4439543 -0.11496304 -2.9990699e-22)
(2.4569701 -0.11899824 -2.9367572e-22)
(2.4742254 -0.11752376 1.1297877e-22)
(2.4883684 -0.11555634 -3.8703014e-22)
(2.5008524 -0.10803258 4.4794632e-22)
(2.5113343 -0.10194337 8.0658448e-22)
(2.5172456 -0.092963832 1.1167562e-21)
(2.5226641 -0.086203588 1.0578339e-21)
(2.5238235 -0.079739087 -1.0279432e-22)
(2.5257929 -0.075066405 -4.8735665e-22)
(2.5256082 -0.072382414 -5.539506e-22)
(2.5267344 -0.070234572 6.7648517e-22)
(2.5276558 -0.07002876 1.3419362e-21)
(2.5295273 -0.069509153 1.4819847e-21)
(2.5323156 -0.070092669 1.7207448e-21)
(2.5354712 -0.069887431 5.1349976e-22)
(2.5398032 -0.069811123 -1.7955914e-21)
(2.5438751 -0.068898154 -1.807482e-21)
(2.5488667 -0.067434758 -3.0231386e-21)
(2.5531564 -0.06540124 -2.4041908e-21)
(2.55792 -0.06247148 8.710565e-22)
(2.5617935 -0.059385489 1.6756419e-21)
(2.5657089 -0.055356863 -4.0816552e-22)
(2.5687683 -0.051511805 -1.2223331e-21)
(2.5715536 -0.046826382 2.2903692e-21)
(2.5736778 -0.042682271 1.6512296e-21)
(2.5753563 -0.03792239 -2.1390483e-22)
(2.5766068 -0.033716088 -1.7432966e-22)
(2.5773506 -0.029051786 -4.9282441e-22)
(2.5779962 -0.02522247 2.2900131e-22)
(2.5781679 -0.021159511 1.2437399e-21)
(2.578376 -0.017524182 2.2787627e-22)
(2.5781666 -0.013715262 1.2604038e-22)
(2.5784294 -0.010781068 1.7896155e-21)
(2.5783902 -0.0078440246 5.7184966e-22)
(2.5786467 -0.0049241004 -9.2162892e-23)
(2.5786586 -0.0019948861 2.8035543e-22)
(2.4378903 -0.1384873 1.5278955e-22)
(2.4394899 -0.11030599 4.1746943e-22)
(2.4356944 -0.086789015 -5.1206749e-23)
(2.4182394 -0.09014507 -3.4428634e-22)
(2.409758 -0.091922631 1.4626632e-22)
(2.415483 -0.10428566 3.8013268e-22)
(2.420492 -0.11272539 -6.7853456e-22)
(2.4364151 -0.12292923 -4.0733878e-22)
(2.4506292 -0.12978917 2.1175748e-22)
(2.4710244 -0.12939437 -5.1198435e-23)
(2.4876168 -0.12817321 3.3827805e-22)
(2.5027722 -0.11951771 2.2490632e-21)
(2.5153753 -0.11241272 3.0829102e-21)
(2.522214 -0.10102935 1.0139914e-21)
(2.5283117 -0.092404084 1.3005075e-21)
(2.5286505 -0.083896235 9.6069293e-22)
(2.529945 -0.077635338 -1.4459383e-22)
(2.5280813 -0.073993343 9.9465072e-22)
(2.5278946 -0.071332153 9.5619252e-22)
(2.5272535 -0.071356555 -6.8764459e-22)
(2.528019 -0.071131343 -6.5878661e-23)
(2.5298634 -0.072763627 1.6944948e-22)
(2.532402 -0.073334861 3.798018e-22)
(2.5365474 -0.074484674 1.987907e-21)
(2.5405945 -0.074501086 -1.818811e-22)
(2.5460033 -0.074089407 7.8936573e-22)
(2.5507177 -0.072811397 -3.2476746e-22)
(2.55626 -0.070577288 -3.2695533e-21)
(2.5607967 -0.067920287 -1.7294917e-22)
(2.5655989 -0.064141245 1.8078465e-21)
(2.5693583 -0.060426811 -1.6800612e-22)
(2.5729428 -0.05569128 -2.5832245e-21)
(2.5756458 -0.051357401 7.3112546e-22)
(2.5779025 -0.046200003 2.4493983e-21)
(2.5795617 -0.041752852 6.907537e-22)
(2.5806615 -0.036749563 -1.3059071e-22)
(2.5814335 -0.032417504 -4.3212015e-22)
(2.5816349 -0.027702232 -7.2982941e-23)
(2.5818586 -0.023872817 8.8582248e-22)
(2.5815782 -0.01987356 7.8638966e-22)
(2.5814335 -0.016344871 6.9802129e-22)
(2.5808631 -0.012699372 1.0734175e-21)
(2.5808681 -0.009903774 -9.3574765e-23)
(2.5805677 -0.0071496934 -1.3520906e-21)
(2.5806129 -0.0044509143 -1.0176638e-21)
(2.5804147 -0.0017717938 -3.9584215e-22)
(2.4496565 -0.14017684 8.2092745e-24)
(2.4466783 -0.1075544 -3.6451074e-21)
(2.4389761 -0.080208395 -3.4525856e-21)
(2.4155031 -0.085110786 -4.7472823e-21)
(2.4021696 -0.088240891 -5.0786323e-21)
(2.4061448 -0.10479681 1.5409531e-21)
(2.4096151 -0.11669129 1.7848054e-21)
(2.4272925 -0.13113459 -4.0734785e-23)
(2.4429109 -0.14120592 2.267288e-22)
(2.4670434 -0.14238431 9.9236629e-22)
(2.486555 -0.14224991 7.5479401e-22)
(2.5050816 -0.13245001 -2.069892e-21)
(2.5204335 -0.12427811 -3.0644117e-22)
(2.5286571 -0.10999434 -1.2722586e-22)
(2.5358006 -0.09905333 -2.1523735e-21)
(2.5352846 -0.087805089 1.8739e-21)
(2.535855 -0.079521029 1.5568375e-21)
(2.5319788 -0.074540659 -1.1577624e-21)
(2.5301701 -0.0709446 -8.7897031e-23)
(2.5274506 -0.07116445 5.4258606e-22)
(2.5267069 -0.071106002 -1.0189567e-21)
(2.5272247 -0.073748632 -2.777056e-21)
(2.5288221 -0.075328499 -2.5956872e-21)
(2.5324888 -0.077991478 3.7640945e-22)
(2.5363252 -0.07915155 1.9033819e-21)
(2.5420568 -0.080109771 2.2028609e-21)
(2.5471382 -0.079839401 3.1582243e-21)
(2.5535063 -0.07857451 2.8821005e-21)
(2.558765 -0.076586698 1.3325014e-22)
(2.5646014 -0.073297606 -1.419007e-21)
(2.5691957 -0.069844451 4.4217317e-22)
(2.5737727 -0.065123126 1.4957573e-21)
(2.5772349 -0.060739201 -7.7188202e-22)
(2.5802863 -0.055323713 -4.2150036e-22)
(2.5824996 -0.050537047 1.1922609e-21)
(2.5841038 -0.044989707 -2.1215365e-22)
(2.5852212 -0.040305878 -1.005886e-21)
(2.5856844 -0.035150322 -1.3719913e-21)
(2.5859459 -0.030760968 -1.0454203e-21)
(2.5855912 -0.026073243 9.324563e-22)
(2.5853877 -0.022298762 8.3845452e-22)
(2.5846632 -0.018420354 -1.5141567e-21)
(2.5841764 -0.015039489 -1.1915692e-21)
(2.5832639 -0.011596545 -5.6166771e-22)
(2.5830204 -0.0089677018 -1.7636396e-21)
(2.5824729 -0.006424091 -9.2051127e-22)
(2.5823172 -0.003963425 -3.2861452e-22)
(2.5819231 -0.001546512 -3.5107128e-22)
(2.4617846 -0.14064528 -3.4068066e-21)
(2.4542263 -0.10317434 1.0449805e-21)
(2.4428695 -0.071482791 -2.3945532e-21)
(2.4126709 -0.07791924 -3.5936127e-22)
(2.3933671 -0.082483173 -1.5218843e-21)
(2.395271 -0.10387646 -7.5623224e-21)
(2.3967175 -0.11984838 -1.3283002e-21)
(2.4162101 -0.13925986 -6.9626323e-22)
(2.4334844 -0.15331847 -2.4642226e-21)
(2.4620429 -0.15657186 -2.3707607e-21)
(2.4849942 -0.1579629 -1.6805669e-21)
(2.507695 -0.14707228 -2.6864628e-21)
(2.5265098 -0.13782381 -5.4349512e-21)
(2.5366784 -0.12010275 -2.9262257e-21)
(2.5453537 -0.10635959 -2.8091767e-21)
(2.5440077 -0.091656623 -3.7188265e-21)
(2.5438224 -0.080712988 8.0221854e-23)
(2.5375131 -0.073875282 2.9013523e-21)
(2.533792 -0.068928443 3.4647258e-22)
(2.5285007 -0.069072217 -1.599741e-22)
(2.5257424 -0.06916409 4.3761774e-22)
(2.5244476 -0.073088562 -9.6852125e-22)
(2.524735 -0.075603246 -2.6421549e-21)
(2.5276301 -0.079979609 -1.6012876e-21)
(2.5309599 -0.082596431 1.23641e-21)
(2.5368628 -0.085249865 -2.8673313e-21)
(2.5422117 -0.086285599 -2.6604464e-21)
(2.5494227 -0.08632749 2.303282e-21)
(2.5554421 -0.085276358 2.0258044e-21)
(2.562455 -0.082728828 6.3719559e-22)
(2.5680202 -0.079753747 -8.2996553e-22)
(2.5738017 -0.075237062 2.0506685e-21)
(2.5782049 -0.07089225 3.0758868e-21)
(2.582273 -0.065228523 -1.953987e-21)
(2.5852456 -0.060195153 -1.6396213e-21)
(2.5875784 -0.054187827 2.5942832e-22)
(2.5891829 -0.049022418 -1.0885661e-21)
(2.5900392 -0.043198715 -9.1376361e-22)
(2.5905585 -0.038362574 -1.2599488e-21)
(2.590353 -0.033156805 -9.9336029e-22)
(2.5900898 -0.028783496 8.8501061e-22)
(2.5891836 -0.024201333 8.3557881e-22)
(2.5885597 -0.020535519 -1.3977313e-21)
(2.5874099 -0.016830772 -1.9419925e-22)
(2.5865985 -0.013634541 4.1935842e-22)
(2.5853683 -0.010427214 -7.3832276e-22)
(2.5848893 -0.007991437 7.7867759e-23)
(2.5841118 -0.0056822068 6.3789526e-22)
(2.5837706 -0.0034699817 6.3131011e-22)
(2.583197 -0.0013221264 3.7061043e-22)
(2.4729965 -0.1399549 -3.0464887e-21)
(2.4613835 -0.097056252 1.8368793e-21)
(2.4464045 -0.060684517 6.1578347e-21)
(2.4092252 -0.068480786 9.4636717e-21)
(2.3831203 -0.074476036 1.1581009e-20)
(2.3825787 -0.10153138 3.4824198e-21)
(2.3816634 -0.12211272 -2.1886093e-21)
(2.4030085 -0.14735503 -2.5820387e-21)
(2.4220641 -0.16621127 -1.9973604e-21)
(2.4557662 -0.17208855 -1.990073e-21)
(2.4827328 -0.17547883 -1.8906714e-21)
(2.5105015 -0.16361077 -5.1384843e-21)
(2.5335907 -0.15333234 -6.1474e-21)
(2.5463769 -0.13161207 -3.2917225e-21)
(2.5571853 -0.11455035 -8.875814e-22)
(2.5550744 -0.095543917 1.4136549e-21)
(2.5541644 -0.081231488 6.1557975e-22)
(2.5450082 -0.071941169 -1.2465975e-21)
(2.5389822 -0.065149574 1.4117458e-21)
(2.530549 -0.065023243 -2.8458836e-23)
(2.5252793 -0.065005811 -5.0850162e-22)
(2.5216138 -0.070190174 -2.9546223e-22)
(2.5201065 -0.073865372 -1.6398575e-21)
(2.5218726 -0.080288236 -3.8632703e-22)
(2.5243917 -0.084526529 6.3140518e-22)
(2.530268 -0.089276069 1.9062167e-21)
(2.5357326 -0.091934486 -1.9802096e-21)
(2.5437748 -0.093656378 -6.5702281e-21)
(2.5505637 -0.093861935 -1.9173741e-21)
(2.5588837 -0.092376149 1.6993671e-21)
(2.5655504 -0.090127134 3.7577336e-22)
(2.5727586 -0.086015242 1.730279e-22)
(2.5783018 -0.081879936 2.9237469e-21)
(2.5836417 -0.076091461 4.0895886e-21)
(2.5875841 -0.070847444 -6.706256e-22)
(2.5908753 -0.064331103 -5.9435231e-21)
(2.5931804 -0.05872688 -4.2065761e-21)
(2.5946456 -0.052266195 9.3470278e-22)
(2.5955489 -0.046826777 1.1317316e-21)
(2.5955983 -0.040860656 5.3615014e-22)
(2.5954874 -0.035967563 8.1677815e-22)
(2.5946084 -0.030816486 2.8967812e-24)
(2.5938239 -0.026532598 -5.6785463e-23)
(2.5923878 -0.02212888 -2.3758871e-21)
(2.5913608 -0.018621613 -1.2479183e-21)
(2.5898136 -0.015136866 3.3758083e-22)
(2.5887002 -0.012156485 -7.6275797e-22)
(2.5871796 -0.0092110679 -7.6442566e-22)
(2.5864815 -0.0069914703 -2.4571445e-22)
(2.5854938 -0.0049351228 5.4282181e-22)
(2.5849819 -0.0029770965 2.9386685e-22)
(2.5842513 -0.0011001463 3.2882635e-22)
(2.4818476 -0.13809152 9.7279339e-22)
(2.465874 -0.089499473 1.9912783e-21)
(2.4477786 -0.047830803 6.7062855e-21)
(2.4041044 -0.056990388 1.236515e-21)
(2.3707696 -0.06421161 4.3075115e-21)
(2.3679708 -0.097409725 1.3935067e-20)
(2.3643341 -0.12346124 6.3007074e-21)
(2.3875331 -0.15549157 1.727549e-21)
(2.4084746 -0.17993258 1.418974e-21)
(2.4480279 -0.18903519 8.7968024e-22)
(2.4795971 -0.19495734 9.3130429e-22)
(2.5133915 -0.18227134 5.8293058e-21)
(2.541641 -0.17107233 2.8651112e-21)
(2.5578169 -0.14479462 -2.8114053e-21)
(2.5714917 -0.12386941 -7.4235962e-23)
(2.5687544 -0.099609503 1.0823228e-21)
(2.5671793 -0.081105778 3.2934349e-21)
(2.5547288 -0.06865525 4.9644443e-22)
(2.5459982 -0.059446536 -1.2730604e-21)
(2.5337736 -0.058748675 -1.2017663e-21)
(2.5254352 -0.058387022 -2.6037537e-21)
(2.5188207 -0.064928985 -8.3914204e-22)
(2.5149614 -0.069795126 -6.3552468e-22)
(2.515132 -0.078518948 -9.8376852e-22)
(2.5164989 -0.084668899 2.0425266e-22)
(2.5221187 -0.091897386 -2.3717093e-22)
(2.5275036 -0.096553562 9.5989583e-22)
(2.5363254 -0.10037719 -1.2274135e-21)
(2.5438649 -0.10219727 -5.5743146e-21)
(2.5536055 -0.10214064 -1.262883e-21)
(2.5614924 -0.10092184 2.178345e-21)
(2.5703553 -0.097483742 -2.9059686e-21)
(2.5772469 -0.093757598 -3.1491705e-21)
(2.5841374 -0.087971313 2.8569553e-21)
(2.5892913 -0.082624258 3.9628013e-21)
(2.5938142 -0.075646628 1.2933711e-21)
(2.5970391 -0.069581765 -3.6828568e-21)
(2.59933 -0.062378895 -2.2858783e-21)
(2.6008236 -0.056331157 2.6251666e-21)
(2.6013214 -0.04959026 5.1797514e-21)
(2.6014651 -0.044001849 4.6769466e-21)