/*--------------------------------*- C++ -*----------------------------------*\
| =========                 |                                                 |
| \\      /  F ield         | OpenFOAM: The Open Source CFD Toolbox           |
|  \\    /   O peration     | Version:  v2012                                 |
|   \\  /    A nd           | Website:  www.openfoam.com                      |
|    \\/     M anipulation  |                                                 |
\*---------------------------------------------------------------------------*/
FoamFile
{
    version     2.0;
    format      ascii;
    class       volVectorField;
    location    "61.0578017145492424";
    object      cellDisplacement;
}
// * * * * * * * * * * * * * * * * * * * * * * * * * * * * * * * * * * * * * //

dimensions      [0 1 0 0 0 0 0];


internalField   nonuniform List<vector> 
9200
(
(0.045112584 0 0)
(0.045311865 0 0)
(0.1312472 0 0)
(0.045659743 0 0)
(0.13180466 0 0)
(0.21191124 0 0)
(0.046045365 0 0)
(0.13266259 0 0)
(0.21272999 0 0)
(0.2873016 0 0)
(0.046501239 0 0)
(0.1337752 0 0)
(0.21410395 0 0)
(0.28838684 0 0)
(0.35767773 0 0)
(0.046978916 0 0)
(0.13502027 0 0)
(0.21580758 0 0)
(0.29015833 0 0)
(0.35897238 0 0)
(0.42325397 0 0)
(0.047460966 0 0)
(0.13632953 0 0)
(0.21772736 0 0)
(0.29241606 0 0)
(0.3611591 0 0)
(0.42476917 0 0)
(0.48429956 0 0)
(0.047933074 0 0)
(0.13766399 0 0)
(0.21978058 0 0)
(0.29496486 0 0)
(0.36389866 0 0)
(0.42729111 0 0)
(0.48600001 0 0)
(0.54103635 0 0)
(0.048385348 0 0)
(0.13897518 0 0)
(0.22186696 0 0)
(0.29767306 0 0)
(0.36700579 0 0)
(0.43050765 0 0)
(0.48888056 0 0)
(0.5429289 0 0)
(0.59372722 0 0)
(0.048812975 0 0)
(0.14023866 0 0)
(0.22392765 0 0)
(0.30043233 0 0)
(0.37030666 0 0)
(0.43413642 0 0)
(0.49251463 0 0)
(0.54610674 0 0)
(0.59578521 0 0)
(0.64258667 0 0)
(0.049210729 0 0)
(0.14143409 0 0)
(0.22591611 0 0)
(0.30316677 0 0)
(0.3736871 0 0)
(0.43799654 0 0)
(0.4966305 0 0)
(0.55016721 0 0)
(0.59928448 0 0)
(0.6448156 0 0)
(0.68786512 0 0)
(0.049578908 0 0)
(0.14255224 0 0)
(0.2278034 0 0)
(0.30581126 0 0)
(0.37703715 0 0)
(0.44194534 0 0)
(0.50101368 0 0)
(0.55475298 0 0)
(0.60371828 0 0)
(0.64858519 0 0)
(0.69024718 0 0)
(0.72976386 0 0)
(0.049914621 0 0)
(0.14358588 0 0)
(0.22957152 0 0)
(0.30832589 0 0)
(0.38028367 0 0)
(0.44586144 0 0)
(0.50548406 0 0)
(0.55961773 0 0)
(0.60873983 0 0)
(0.65340349 0 0)
(0.69430483 0 0)
(0.73230027 0 0)
(0.76851587 0 0)
(0.050220962 0 0)
(0.14453499 0 0)
(0.23121054 0 0)
(0.31068531 0 0)
(0.3833754 0 0)
(0.44966607 0 0)
(0.50993643 0 0)
(0.56459813 0 0)
(0.61408213 0 0)
(0.65885611 0 0)
(0.69946476 0 0)
(0.73660547 0 0)
(0.77119264 0 0)
(0.80430454 0 0)
(0.050496384 0 0)
(0.14539849 0 0)
(0.23271781 0 0)
(0.31287554 0 0)
(0.38627973 0 0)
(0.45329512 0 0)
(0.51426282 0 0)
(0.56954753 0 0)
(0.61953717 0 0)
(0.66464371 0 0)
(0.70531669 0 0)
(0.74212012 0 0)
(0.7757613 0 0)
(0.80712154 0 0)
(0.83734335 0 0)
(0.050745112 0 0)
(0.14618152 0 0)
(0.23409391 0 0)
(0.31489213 0 0)
(0.3889801 0 0)
(0.45670927 0 0)
(0.51839533 0 0)
(0.57436328 0 0)
(0.62495782 0 0)
(0.67055606 0 0)
(0.71154241 0 0)
(0.74836604 0 0)
(0.7815872 0 0)
(0.81191946 0 0)
(0.84029101 0 0)
(0.8677965 0 0)
(0.050967027 0 0)
(0.14688642 0 0)
(0.23534331 0 0)
(0.31673505 0 0)
(0.39146745 0 0)
(0.45988773 0 0)
(0.52228967 0 0)
(0.57897031 0 0)
(0.63024222 0 0)
(0.67643621 0 0)
(0.71789757 0 0)
(0.75500558 0 0)
(0.78820282 0 0)
(0.81807069 0 0)
(0.84532871 0 0)
(0.87087268 0 0)
(0.89585745 0 0)
(0.051165703 0 0)
(0.14751966 0 0)
(0.23647174 0 0)
(0.31841011 0 0)
(0.39374455 0 0)
(0.46282025 0 0)
(0.5259186 0 0)
(0.58331835 0 0)
(0.63530422 0 0)
(0.68216753 0 0)
(0.72421973 0 0)
(0.76179449 0 0)
(0.79525204 0 0)
(0.82505323 0 0)
(0.85176829 0 0)
(0.87612237 0 0)
(0.89905446 0 0)
(0.9216714 0 0)
(0.051342055 0 0)
(0.14808515 0 0)
(0.23748673 0 0)
(0.319924 0 0)
(0.39581369 0 0)
(0.46550671 0 0)
(0.52927277 0 0)
(0.58737408 0 0)
(0.64008359 0 0)
(0.68766097 0 0)
(0.73037524 0 0)
(0.76853537 0 0)
(0.80245245 0 0)
(0.83248649 0 0)
(0.85909309 0 0)
(0.88286463 0 0)
(0.9045244 0 0)
(0.92498625 0 0)
(0.94541159 0 0)
(0.051498776 0 0)
(0.14858939 0 0)
(0.23839616 0 0)
(0.32128681 0 0)
(0.39768727 0 0)
(0.46795284 0 0)
(0.53234818 0 0)
(0.59112683 0 0)
(0.64455061 0 0)
(0.69285768 0 0)
(0.73628882 0 0)
(0.77511413 0 0)
(0.80961562 0 0)
(0.8400956 0 0)
(0.86690798 0 0)
(0.89052758 0 0)
(0.9115319 0 0)
(0.93065309 0 0)
(0.94883864 0 0)
(0.96720479 0 0)
(0.051637717 0 0)
(0.1490378 0 0)
(0.23920787 0 0)
(0.32250802 0 0)
(0.39937233 0 0)
(0.47016765 0 0)
(0.53515369 0 0)
(0.59457148 0 0)
(0.64868367 0 0)
(0.69771946 0 0)
(0.74188928 0 0)
(0.78142873 0 0)
(0.81659621 0 0)
(0.84765998 0 0)
(0.87490512 0 0)
(0.89870206 0 0)
(0.91951348 0 0)
(0.93793896 0 0)
(0.95470678 0 0)
(0.97074047 0 0)
(0.98720549 0 0)
(0.051760297 0 0)
(0.14943493 0 0)
(0.23993023 0 0)
(0.32359886 0 0)
(0.40088556 0 0)
(0.47216509 0 0)
(0.5376968 0 0)
(0.5977158 0 0)
(0.65248466 0 0)
(0.70222357 0 0)
(0.74713101 0 0)
(0.78741493 0 0)
(0.82329919 0 0)
(0.85503463 0 0)
(0.8828672 0 0)
(0.90708184 0 0)
(0.92804389 0 0)
(0.94623604 0 0)
(0.9622383 0 0)
(0.97679069 0 0)
(0.99084516 0 0)
(1.0055239 0 0)
(0.051868842 0 0)
(0.14978727 0 0)
(0.24057083 0 0)
(0.3245696 0 0)
(0.40223569 0 0)
(0.4739574 0 0)
(0.5399945 0 0)
(0.6005697 0 0)
(0.65595314 0 0)
(0.70636803 0 0)
(0.75199597 0 0)
(0.79302525 0 0)
(0.82966053 0 0)
(0.86212005 0 0)
(0.89062734 0 0)
(0.91542268 0 0)
(0.93678647 0 0)
(0.95510023 0 0)
(0.97083034 0 0)
(0.98457995 0 0)
(0.99707993 0 0)
(1.0092638 0 0)
(1.0222965 0 0)
(0.0519639 0 0)
(0.15009721 0 0)
(0.2411371 0 0)
(0.32543065 0 0)
(0.40343979 0 0)
(0.47556117 0 0)
(0.54205786 0 0)
(0.6031484 0 0)
(0.65910727 0 0)
(0.71015578 0 0)
(0.75647263 0 0)
(0.79823703 0 0)
(0.8356312 0 0)
(0.86884493 0 0)
(0.89808409 0 0)
(0.92356251 0 0)
(0.94550306 0 0)
(0.96420064 0 0)
(0.98002543 0 0)
(0.99346226 0 0)
(1.0050946 0 0)
(1.015667 0 0)
(1.0261328 0 0)
(1.037618 0 0)
(0.052047981 0 0)
(0.15037131 0 0)
(0.24163596 0 0)
(0.32619201 0 0)
(0.40450664 0 0)
(0.47698883 0 0)
(0.54390794 0 0)
(0.60546879 0 0)
(0.66195581 0 0)
(0.71360005 0 0)
(0.76057114 0 0)
(0.80303726 0 0)
(0.84117769 0 0)
(0.8751602 0 0)
(0.90515796 0 0)
(0.93137455 0 0)
(0.95400485 0 0)
(0.97327177 0 0)
(0.98946451 0 0)
(1.0029692 0 0)
(1.0142505 0 0)
(1.0239178 0 0)
(1.0327047 0 0)
(1.0415473 0 0)
(1.0516086 0 0)
(0.052121034 0 0)
(0.15061076 0 0)
(0.24207442 0 0)
(0.32686294 0 0)
(0.40545222 0 0)
(0.47825797 0 0)
(0.54555605 0 0)
(0.60754751 0 0)
(0.66452373 0 0)
(0.7167168 0 0)
(0.76429789 0 0)
(0.80743377 0 0)
(0.84629524 0 0)
(0.88103518 0 0)
(0.91181023 0 0)
(0.93879729 0 0)
(0.96217601 0 0)
(0.98213321 0 0)
(0.99888674 0 0)
(1.0127406 0 0)
(1.0240643 0 0)
(1.0333427 0 0)
(1.0411631 0 0)
(1.0482748 0 0)
(1.0556278 0 0)
(1.0643503 0 0)
(0.05218569 0 0)
(0.15082213 0 0)
(0.24245805 0 0)
(0.3274524 0 0)
(0.40628474 0 0)
(0.47937998 0 0)
(0.54702383 0 0)
(0.60940454 0 0)
(0.66682335 0 0)
(0.71952498 0 0)
(0.76767615 0 0)
(0.81143584 0 0)
(0.85098047 0 0)
(0.88645955 0 0)
(0.91800643 0 0)
(0.94577394 0 0)
(0.96993103 0 0)
(0.99064593 0 0)
(1.0080898 0 0)
(1.0224943 0 0)
(1.0341514 0 0)
(1.0434451 0 0)
(1.0508402 0 0)
(1.0569503 0 0)
(1.0625101 0 0)
(1.068456 0 0)
(1.0759479 0 0)
(0.052241189 0 0)
(0.1510053 0 0)
(0.24279291 0 0)
(0.32796808 0 0)
(0.40701784 0 0)
(0.4803709 0 0)
(0.54832072 0 0)
(0.61105537 0 0)
(0.66888139 0 0)
(0.72204602 0 0)
(0.77071991 0 0)
(0.81506308 0 0)
(0.85525192 0 0)
(0.89142996 0 0)
(0.9237268 0 0)
(0.95227718 0 0)
(0.97722352 0 0)
(0.99872824 0 0)
(1.0169412 0 0)
(1.0320336 0 0)
(1.0442316 0 0)
(1.0538414 0 0)
(1.061227 0 0)
(1.0668744 0 0)
(1.0713761 0 0)
(1.0754824 0 0)
(1.0801373 0 0)
(1.0864715 0 0)
(0.052290597 0 0)
(0.15116652 0 0)
(0.24308337 0 0)
(0.32841767 0 0)
(0.40765886 0 0)
(0.48124125 0 0)
(0.54946819 0 0)
(0.61252014 0 0)
(0.67071044 0 0)
(0.72429939 0 0)
(0.77345736 0 0)
(0.81833588 0 0)
(0.85912152 0 0)
(0.89596275 0 0)
(0.92897702 0 0)
(0.95828693 0 0)
(0.98402505 0 0)
(1.0063311 0 0)
(1.0253435 0 0)
(1.0412075 0 0)
(1.0540902 0 0)
(1.0642299 0 0)
(1.0719164 0 0)
(1.0775294 0 0)
(1.081533 0 0)
(1.0845469 0 0)
(1.0873061 0 0)
(1.0907419 0 0)
(1.0960127 0 0)
(0.052334563 0 0)
(0.15130415 0 0)
(0.24333489 0 0)
(0.32880764 0 0)
(0.40821902 0 0)
(0.48200467 0 0)
(0.55047334 0 0)
(0.61381179 0 0)
(0.67233604 0 0)
(0.72630813 0 0)
(0.77590435 0 0)
(0.82127693 0 0)
(0.86261767 0 0)
(0.90007329 0 0)
(0.93376259 0 0)
(0.96380606 0 0)
(0.99031991 0 0)
(1.0134232 0 0)
(1.0332474 0 0)
(1.0499242 0 0)
(1.0635826 0 0)
(1.0744018 0 0)
(1.0826087 0 0)
(1.0885056 0 0)
(1.0924515 0 0)
(1.0949321 0 0)
(1.0965461 0 0)
(1.0980442 0 0)
(1.1003614 0 0)
(1.1046319 0 0)
(0.052151684 0 0)
(0.1514298 0 0)
(0.24354963 0 0)
(0.32914378 0 0)
(0.40870465 0 0)
(0.4826697 0 0)
(0.55135603 0 0)
(0.61494962 0 0)
(0.67377 0 0)
(0.72808992 0 0)
(0.77808978 0 0)
(0.8239111 0 0)
(0.86575821 0 0)
(0.90378676 0 0)
(0.93810877 0 0)
(0.96883933 0 0)
(0.99609819 0 0)
(1.0199897 0 0)
(1.0406191 0 0)
(1.0581167 0 0)
(1.072599 0 0)
(1.084195 0 0)
(1.0930774 0 0)
(1.0994844 0 0)
(1.1036999 0 0)
(1.106099 0 0)
(1.1071464 0 0)
(1.1074668 0 0)
(1.1077952 0 0)
(1.1090559 0 0)
(1.1124084 0 0)
(0.051919096 0 0)
(0.1510441 0 0)
(0.2437408 0 0)
(0.32943207 0 0)
(0.40912411 0 0)
(0.48324791 0 0)
(0.55212231 0 0)
(0.6159447 0 0)
(0.67503522 0 0)
(0.72966741 0 0)
(0.78002959 0 0)
(0.82625995 0 0)
(0.86857382 0 0)
(0.9071267 0 0)
(0.942033 0 0)
(0.97341104 0 0)
(1.001377 0 0)
(1.0260246 0 0)
(1.0474504 0 0)
(1.0657662 0 0)
(1.0810823 0 0)
(1.0935081 0 0)
(1.1031675 0 0)
(1.110244 0 0)
(1.1149603 0 0)
(1.1176134 0 0)
(1.1185571 0 0)
(1.1182775 0 0)
(1.1173796 0 0)
(1.1166138 0 0)
(1.1169052 0 0)
(1.119394 0 0)
(0.051710127 0 0)
(0.15033914 0 0)
(0.24316556 0 0)
(0.32968623 0 0)
(0.40948366 0 0)
(0.48374676 0 0)
(0.55278881 0 0)
(0.61681381 0 0)
(0.67614231 0 0)
(0.73105608 0 0)
(0.78175003 0 0)
(0.82834922 0 0)
(0.8710838 0 0)
(0.91012 0 0)
(0.94556734 0 0)
(0.97754116 0 0)
(1.006167 0 0)
(1.0315403 0 0)
(1.053738 0 0)
(1.0728542 0 0)
(1.0889964 0 0)
(1.1022673 0 0)
(1.1127619 0 0)
(1.120614 0 0)
(1.1259956 0 0)
(1.1291395 0 0)
(1.1303242 0 0)
(1.129919 0 0)
(1.1283895 0 0)
(1.1263663 0 0)
(1.1245849 0 0)
(1.1239602 0 0)
(1.1256576 0 0)
(0.051523179 0 0)
(0.14970163 0 0)
(0.24202448 0 0)
(0.32894652 0 0)
(0.40980066 0 0)
(0.48417379 0 0)
(0.55336074 0 0)
(0.61756595 0 0)
(0.67711055 0 0)
(0.73227608 0 0)
(0.78326634 0 0)
(0.83019822 0 0)
(0.87331775 0 0)
(0.91279265 0 0)
(0.94873389 0 0)
(0.98125961 0 0)
(1.010501 0 0)
(1.0365489 0 0)
(1.0594817 0 0)
(1.0793805 0 0)
(1.0963321 0 0)
(1.1104409 0 0)
(1.1217941 0 0)
(1.1304851 0 0)
(1.136641 0 0)
(1.1404445 0 0)
(1.1421108 0 0)
(1.1419325 0 0)
(1.1402573 0 0)
(1.1375713 0 0)
(1.1344871 0 0)
(1.1317549 0 0)
(1.1302907 0 0)
(1.1312441 0 0)
(0.051361824 0 0)
(0.14913645 0 0)
(0.24099443 0 0)
(0.32741797 0 0)
(0.40891788 0 0)
(0.48455021 0 0)
(0.55384991 0 0)
(0.61821455 0 0)
(0.67794952 0 0)
(0.73334055 0 0)
(0.78460016 0 0)
(0.83183065 0 0)
(0.87529375 0 0)
(0.91516955 0 0)
(0.95156471 0 0)
(0.98459317 0 0)
(1.0143987 0 0)
(1.0410809 0 0)
(1.0647073 0 0)
(1.0853498 0 0)
(1.1030906 0 0)
(1.1180189 0 0)
(1.1302204 0 0)
(1.1397763 0 0)
(1.1467738 0 0)
(1.1513494 0 0)
(1.1536712 0 0)
(1.1539652 0 0)
(1.1525053 0 0)
(1.1496535 0 0)
(1.1458773 0 0)
(1.1418136 0 0)
(1.1381981 0 0)
(1.1359405 0 0)
(1.1362131 0 0)
(0.051225626 0 0)
(0.14864473 0 0)
(0.24007897 0 0)
(0.32603982 0 0)
(0.40704766 0 0)
(0.48354052 0 0)
(0.55427815 0 0)
(0.61876824 0 0)
(0.67867367 0 0)
(0.73426645 0 0)
(0.78576624 0 0)
(0.83326286 0 0)
(0.87703856 0 0)
(0.91727603 0 0)
(0.95408264 0 0)
(0.98757132 0 0)
(1.0178978 0 0)
(1.0451606 0 0)
(1.0694311 0 0)
(1.0907818 0 0)
(1.1092811 0 0)
(1.1250033 0 0)
(1.1380338 0 0)
(1.1484516 0 0)
(1.1563211 0 0)
(1.1617387 0 0)
(1.1648309 0 0)
(1.165775 0 0)
(1.1647788 0 0)
(1.1621299 0 0)
(1.1581697 0 0)
(1.1533846 0 0)
(1.1483963 0 0)
(1.1439543 0 0)
(1.1409707 0 0)
(1.1406035 0 0)
(0.05111743 0 0)
(0.1482334 0 0)
(0.2392837 0 0)
(0.32481284 0 0)
(0.40536133 0 0)
(0.48136672 0 0)
(0.55315552 0 0)
(0.61925292 0 0)
(0.67929299 0 0)
(0.73506543 0 0)
(0.78678052 0 0)
(0.83451547 0 0)
(0.87856845 0 0)
(0.91913392 0 0)
(0.95631669 0 0)
(0.99022213 0 0)
(1.0210204 0 0)
(1.0488215 0 0)
(1.0736912 0 0)
(1.0956969 0 0)
(1.1149128 0 0)
(1.1314017 0 0)
(1.1452309 0 0)
(1.1564872 0 0)
(1.1652323 0 0)
(1.1715269 0 0)
(1.1754623 0 0)
(1.1771746 0 0)
(1.1768248 0 0)
(1.1746311 0 0)
(1.1708639 0 0)
(1.1658769 0 0)
(1.1601401 0 0)
(1.1542983 0 0)
(1.1490885 0 0)
(1.1454186 0 0)
(1.1444668 0 0)
(0.051036709 0 0)
(0.14790324 0 0)
(0.23861656 0 0)
(0.32374747 0 0)
(0.40385978 0 0)
(0.47940583 0 0)
(0.55070974 0 0)
(0.61804187 0 0)
(0.67983408 0 0)
(0.73574848 0 0)
(0.78765748 0 0)
(0.83560302 0 0)
(0.87990642 0 0)
(0.92076643 0 0)
(0.95828846 0 0)
(0.99257165 0 0)
(1.0238026 0 0)
(1.0520926 0 0)
(1.0775105 0 0)
(1.1001283 0 0)
(1.1200167 0 0)
(1.1372316 0 0)
(1.1518377 0 0)
(1.1639099 0 0)
(1.173503 0 0)
(1.1806735 0 0)
(1.1854874 0 0)
(1.1880425 0 0)
(1.1884591 0 0)
(1.1869075 0 0)
(1.1835874 0 0)
(1.178783 0 0)
(1.172828 0 0)
(1.1662105 0 0)
(1.1595628 0 0)
(1.1536345 0 0)
(1.1493376 0 0)
(1.1478372 0 0)
(0.050985378 0 0)
(0.14765915 0 0)
(0.23808165 0 0)
(0.32285212 0 0)
(0.40255538 0 0)
(0.47765964 0 0)
(0.54850364 0 0)
(0.61536669 0 0)
(0.67855241 0 0)
(0.73634731 0 0)
(0.78840577 0 0)
(0.8365408 0 0)
(0.88106677 0 0)
(0.9221921 0 0)
(0.96002275 0 0)
(0.99464688 0 0)
(1.0262667 0 0)
(1.0550055 0 0)
(1.0809289 0 0)
(1.1041056 0 0)
(1.1246153 0 0)
(1.1425171 0 0)
(1.1578604 0 0)
(1.1707067 0 0)
(1.1811174 0 0)
(1.1891506 0 0)
(1.1948525 0 0)
(1.1982895 0 0)
(1.1995501 0 0)
(1.198763 0 0)
(1.1960823 0 0)
(1.1917172 0 0)
(1.1859367 0 0)
(1.1790847 0 0)
(1.1716361 0 0)
(1.1642448 0 0)
(1.1576491 0 0)
(1.1527604 0 0)
(1.1507587 0 0)
(0.050962879 0 0)
(0.14750122 0 0)
(0.2376841 0 0)
(0.32213388 0 0)
(0.40145874 0 0)
(0.47614233 0 0)
(0.54653873 0 0)
(0.61295376 0 0)
(0.67568167 0 0)
(0.735007 0 0)
(0.78905972 0 0)
(0.83734289 0 0)
(0.88206727 0 0)
(0.92343115 0 0)
(0.96153903 0 0)
(0.99647049 0 0)
(1.0284449 0 0)
(1.0575893 0 0)
(1.0839713 0 0)
(1.1076631 0 0)
(1.1287481 0 0)
(1.1472831 0 0)
(1.1633192 0 0)
(1.1769113 0 0)
(1.188116 0 0)
(1.1969834 0 0)
(1.2035486 0 0)
(1.2078704 0 0)
(1.2100139 0 0)
(1.2100713 0 0)
(1.2081537 0 0)
(1.2044249 0 0)
(1.1990763 0 0)
(1.1923901 0 0)
(1.1846919 0 0)
(1.1764743 0 0)
(1.1683811 0 0)
(1.1611616 0 0)
(1.1557328 0 0)
(1.153261 0 0)
(0.14743219 0 0)
(0.050962973 0 0)
(0.23742647 0 0)
(0.32159876 0 0)
(0.40057802 0 0)
(0.47486586 0 0)
(0.54483119 0 0)
(0.61080374 0 0)
(0.67309303 0 0)
(0.73197177 0 0)
(0.78767294 0 0)
(0.83803942 0 0)
(0.88292256 0 0)
(0.92449965 0 0)
(0.96285751 0 0)
(0.99806594 0 0)
(1.0303577 0 0)
(1.0598718 0 0)
(1.0866742 0 0)
(1.110833 0 0)
(1.1324423 0 0)
(1.1515665 0 0)
(1.1682505 0 0)
(1.1825426 0 0)
(1.1944963 0 0)
(1.2041575 0 0)
(1.2115609 0 0)
(1.2167572 0 0)
(1.219795 0 0)
(1.2207382 0 0)
(1.2196668 0 0)
(1.2167002 0 0)
(1.2119861 0 0)
(1.2057249 0 0)
(1.1981857 0 0)
(1.1897031 0 0)
(1.18076 0 0)
(1.1720196 0 0)
(1.1642213 0 0)
(1.1582837 0 0)
(1.1553818 0 0)
(0.23731147 0 0)
(0.14742995 0 0)
(0.05098501 0 0)
(0.32125041 0 0)
(0.39992124 0 0)
(0.47384089 0 0)
(0.54339447 0 0)
(0.60893498 0 0)
(0.6707849 0 0)
(0.72923165 0 0)
(0.78449636 0 0)
(0.83661895 0 0)
(0.8836641 0 0)
(0.92541173 0 0)
(0.96399542 0 0)
(0.99945252 0 0)
(1.0320324 0 0)
(1.06188 0 0)
(1.089062 0 0)
(1.1136472 0 0)
(1.135738 0 0)
(1.1553987 0 0)
(1.1726781 0 0)
(1.1876256 0 0)
(1.2002868 0 0)
(1.2107025 0 0)
(1.2189182 0 0)
(1.2249686 0 0)
(1.2288801 0 0)
(1.2307154 0 0)
(1.2305318 0 0)
(1.2284127 0 0)
(1.22446 0 0)
(1.2188317 0 0)
(1.2117107 0 0)
(1.2033796 0 0)
(1.1941563 0 0)
(1.1845428 0 0)
(1.1751921 0 0)
(1.1668542 0 0)
(1.1604518 0 0)
(1.1571475 0 0)
(0.32109276 0 0)
(0.23730499 0 0)
(0.14749494 0 0)
(0.051036488 0 0)
(0.39949203 0 0)
(0.47307482 0 0)
(0.54224043 0 0)
(0.60736202 0 0)
(0.66877856 0 0)
(0.72679022 0 0)
(0.78162648 0 0)
(0.8333251 0 0)
(0.88221991 0 0)
(0.92620446 0 0)
(0.96496625 0 0)
(1.0006487 0 0)
(1.0334882 0 0)
(1.0636375 0 0)
(1.0911655 0 0)
(1.116136 0 0)
(1.1386618 0 0)
(1.1588167 0 0)
(1.1766465 0 0)
(1.1921984 0 0)
(1.2055185 0 0)
(1.2166465 0 0)
(1.2256252 0 0)
(1.2324873 0 0)
(1.2372535 0 0)
(1.2399726 0 0)
(1.2406906 0 0)
(1.2394631 0 0)
(1.2363608 0 0)
(1.2314936 0 0)
(1.2250052 0 0)
(1.2170859 0 0)
(1.2080073 0 0)
(1.1980983 0 0)
(1.1878526 0 0)
(1.1779401 0 0)
(1.1691017 0 0)
(1.1622624 0 0)
(1.1585895 0 0)
(0.39929615 0 0)
(0.32107933 0 0)
(0.2374068 0 0)
(0.14764832 0 0)
(0.051116625 0 0)
(0.47257454 0 0)
(0.54137762 0 0)
(0.60609793 0 0)
(0.66708831 0 0)
(0.72466527 0 0)
(0.77906882 0 0)
(0.83035229 0 0)
(0.87883365 0 0)
(0.92474566 0 0)
(0.96580861 0 0)
(1.0016727 0 0)
(1.0347449 0 0)
(1.0651676 0 0)
(1.0930075 0 0)
(1.1183271 0 0)
(1.1412505 0 0)
(1.1618526 0 0)
(1.1801828 0 0)
(1.1962917 0 0)
(1.2102259 0 0)
(1.2220206 0 0)
(1.2317142 0 0)
(1.2393459 0 0)
(1.2449432 0 0)
(1.2485265 0 0)
(1.2501256 0 0)
(1.2497995 0 0)
(1.2475919 0 0)
(1.2435778 0 0)
(1.2378502 0 0)
(1.2305634 0 0)
(1.2218911 0 0)
(1.2121184 0 0)
(1.201561 0 0)
(1.1907322 0 0)
(1.1802908 0 0)
(1.1709868 0 0)
(1.1637481 0 0)
(1.1597312 0 0)
(0.47234361 0 0)
(0.39927579 0 0)
(0.32121127 0 0)
(0.23765134 0 0)
(0.14788767 0 0)
(0.051224658 0 0)
(0.54081346 0 0)
(0.60515242 0 0)
(0.66572927 0 0)
(0.72287568 0 0)
(0.77684089 0 0)
(0.82769866 0 0)
(0.87577753 0 0)
(0.92128888 0 0)
(0.96434684 0 0)
(1.002558 0 0)
(1.0358225 0 0)
(1.0664911 0 0)
(1.0946124 0 0)
(1.1202474 0 0)
(1.1435285 0 0)
(1.1645395 0 0)
(1.1833292 0 0)
(1.1999471 0 0)
(1.2144433 0 0)
(1.2268559 0 0)
(1.2372206 0 0)
(1.2455708 0 0)
(1.251944 0 0)
(1.2563583 0 0)
(1.2588235 0 0)
(1.2593898 0 0)
(1.2580936 0 0)
(1.2549788 0 0)
(1.2501081 0 0)
(1.2435823 0 0)
(1.2355438 0 0)
(1.2261715 0 0)
(1.2157427 0 0)
(1.2045863 0 0)
(1.1932081 0 0)
(1.18228 0 0)
(1.1725444 0 0)
(1.1649315 0 0)
(1.1605991 0 0)
(0.54055227 0 0)
(0.47231829 0 0)
(0.39943323 0 0)
(0.32153273 0 0)
(0.23803561 0 0)
(0.14821222 0 0)
(0.051359857 0 0)
(0.60453313 0 0)
(0.66471129 0 0)
(0.72143469 0 0)
(0.77496392 0 0)
(0.82538904 0 0)
(0.87304818 0 0)
(0.91816551 0 0)
(0.96083884 0 0)
(1.0011089 0 0)
(1.0367528 0 0)
(1.0676234 0 0)
(1.0960018 0 0)
(1.121921 0 0)
(1.1455272 0 0)
(1.1669076 0 0)
(1.1861126 0 0)
(1.2031951 0 0)
(1.2182093 0 0)
(1.2311922 0 0)
(1.2421783 0 0)
(1.2512032 0 0)
(1.2583017 0 0)
(1.2634987 0 0)
(1.2668092 0 0)
(1.2682481 0 0)
(1.267843 0 0)
(1.265642 0 0)
(1.2616745 0 0)
(1.2560095 0 0)
(1.2487318 0 0)
(1.2399949 0 0)
(1.2299617 0 0)
(1.2189239 0 0)
(1.2072009 0 0)
(1.195317 0 0)
(1.1839316 0 0)
(1.1737952 0 0)
(1.1658397 0 0)
(1.1612141 0 0)
(0.60424555 0 0)
(0.54052185 0 0)
(0.47249691 0 0)
(0.39982148 0 0)
(0.32204182 0 0)
(0.23855694 0 0)
(0.14861749 0 0)
(0.051520478 0 0)
(0.66404247 0 0)
(0.72035452 0 0)
(0.77345116 0 0)
(0.8234404 0 0)
(0.87067246 0 0)
(0.91537844 0 0)
(0.95766743 0 0)
(0.99757252 0 0)
(1.0353238 0 0)
(1.068606 0 0)
(1.0971904 0 0)
(1.1233684 0 0)
(1.1472687 0 0)
(1.1689847 0 0)
(1.1885693 0 0)
(1.2060745 0 0)
(1.2215592 0 0)
(1.2350637 0 0)
(1.2466265 0 0)
(1.2562796 0 0)
(1.2640534 0 0)
(1.269979 0 0)
(1.2740791 0 0)
(1.2763591 0 0)
(1.2768287 0 0)
(1.2755316 0 0)
(1.2724888 0 0)
(1.2677324 0 0)
(1.2613202 0 0)
(1.2533444 0 0)
(1.2439495 0 0)
(1.2333014 0 0)
(1.2216873 0 0)
(1.2094419 0 0)
(1.1970818 0 0)
(1.1852759 0 0)
(1.1747681 0 0)
(1.1664927 0 0)
(1.1615975 0 0)
(0.66372947 0 0)
(0.60420907 0 0)
(0.54072143 0 0)
(0.47294622 0 0)
(0.40043942 0 0)
(0.32273266 0 0)
(0.23921014 0 0)
(0.14910228 0 0)
(0.051705769 0 0)
(0.71964337 0 0)
(0.77231588 0 0)
(0.8218712 0 0)
(0.86866688 0 0)
(0.91294957 0 0)
(0.95483786 0 0)
(0.99437862 0 0)
(1.0317768 0 0)
(1.0671999 0 0)
(1.0982218 0 0)
(1.1246115 0 0)
(1.1487762 0 0)
(1.1707973 0 0)
(1.1907244 0 0)
(1.2086132 0 0)
(1.2245281 0 0)
(1.2385108 0 0)
(1.2505992 0 0)
(1.2608317 0 0)
(1.2692366 0 0)
(1.2758391 0 0)
(1.2806732 0 0)
(1.2837511 0 0)
(1.2850761 0 0)
(1.2846599 0 0)
(1.2825218 0 0)
(1.2786947 0 0)
(1.2731956 0 0)
(1.2660901 0 0)
(1.2574557 0 0)
(1.2474488 0 0)
(1.23622 0 0)
(1.2240716 0 0)
(1.2113324 0 0)
(1.1985341 0 0)
(1.1863335 0 0)
(1.1754816 0 0)
(1.1669124 0 0)
(1.1617682 0 0)
(0.71930744 0 0)
(0.66368438 0 0)
(0.60442409 0 0)
(0.54122489 0 0)
(0.47365924 0 0)
(0.40127877 0 0)
(0.32360093 0 0)
(0.23999063 0 0)
(0.14965902 0 0)
(0.051913027 0 0)
(0.77156699 0 0)
(0.82069234 0 0)
(0.86705087 0 0)
(0.91090083 0 0)
(0.95237072 0 0)
(0.99152515 0 0)
(1.0285755 0 0)
(1.0636594 0 0)
(1.0968478 0 0)
(1.1256846 0 0)
(1.1500726 0 0)
(1.1723689 0 0)
(1.192607 0 0)
(1.2108443 0 0)
(1.2271492 0 0)
(1.2415659 0 0)
(1.2541375 0 0)
(1.2649031 0 0)
(1.2738895 0 0)
(1.281124 0 0)
(1.2866387 0 0)
(1.2904551 0 0)
(1.2925817 0 0)
(1.2930165 0 0)
(1.2917649 0 0)
(1.2888569 0 0)
(1.2842978 0 0)
(1.2781105 0 0)
(1.2703518 0 0)
(1.2611051 0 0)
(1.2505215 0 0)
(1.2387519 0 0)
(1.2260981 0 0)
(1.2129045 0 0)
(1.199694 0 0)
(1.1871304 0 0)
(1.1759589 0 0)
(1.1671169 0 0)
(1.1617449 0 0)
(0.77120987 0 0)
(0.71925524 0 0)
(0.66390914 0 0)
(0.60497015 0 0)
(0.54202583 0 0)
(0.47463232 0 0)
(0.40233559 0 0)
(0.32463806 0 0)
(0.24089159 0 0)
(0.15028652 0 0)
(0.052142664 0 0)
(0.81991449 0 0)
(0.86583576 0 0)
(0.90924808 0 0)
(0.95029014 0 0)
(0.98903976 0 0)
(1.0257128 0 0)
(1.0604582 0 0)
(1.0933263 0 0)
(1.1243568 0 0)
(1.1511895 0 0)
(1.1737178 0 0)
(1.1942409 0 0)
(1.2127932 0 0)
(1.2294526 0 0)
(1.2442655 0 0)
(1.2572748 0 0)
(1.2685262 0 0)
(1.2780507 0 0)
(1.2858708 0 0)
(1.2920162 0 0)
(1.2965169 0 0)
(1.2993891 0 0)
(1.3006296 0 0)
(1.3002422 0 0)
(1.298228 0 0)
(1.2945912 0 0)
(1.2893501 0 0)
(1.2825137 0 0)
(1.274148 0 0)
(1.264323 0 0)
(1.2532025 0 0)
(1.2409225 0 0)
(1.2278008 0 0)
(1.2141787 0 0)
(1.2005883 0 0)
(1.1876837 0 0)
(1.176217 0 0)
(1.1671255 0 0)
(1.1615445 0 0)
(0.81954417 0 0)
(0.77115018 0 0)
(0.71948533 0 0)
(0.66448798 0 0)
(0.6058426 0 0)
(0.54311843 0 0)
(0.47585395 0 0)
(0.40359749 0 0)
(0.32583609 0 0)
(0.2419048 0 0)
(0.15097973 0 0)
(0.052322662 0 0)
(0.86503281 0 0)
(0.90800637 0 0)
(0.94861125 0 0)
(0.98694151 0 0)
(1.0232209 0 0)
(1.0576003 0 0)
(1.0901395 0 0)
(1.1208692 0 0)
(1.1499126 0 0)
(1.1748853 0 0)
(1.1956436 0 0)
(1.2144844 0 0)
(1.2314665 0 0)
(1.246638 0 0)
(1.2600473 0 0)
(1.2717433 0 0)
(1.281757 0 0)
(1.2901152 0 0)
(1.2968467 0 0)
(1.3019782 0 0)
(1.3055383 0 0)
(1.3075318 0 0)
(1.3079545 0 0)
(1.3068021 0 0)
(1.3040678 0 0)
(1.2997639 0 0)
(1.293884 0 0)
(1.2864452 0 0)
(1.2775068 0 0)
(1.2671434 0 0)
(1.2555168 0 0)
(1.2427616 0 0)
(1.2291998 0 0)
(1.2151823 0 0)
(1.2012334 0 0)
(1.1880151 0 0)
(1.1762762 0 0)
(1.166954 0 0)
(1.1611595 0 0)
(0.86464902 0 0)
(0.81947993 0 0)
(0.77138449 0 0)
(0.72009233 0 0)
(0.66541795 0 0)
(0.60703263 0 0)
(0.54449317 0 0)
(0.47731752 0 0)
(0.40505691 0 0)
(0.32718472 0 0)
(0.24302946 0 0)
(0.15135278 0 0)
(0.052274797 0 0)
(0.9071848 0 0)
(0.94734976 0 0)
(0.98525079 0 0)
(1.0211152 0 0)
(1.0551081 0 0)
(1.087296 0 0)
(1.1177176 0 0)
(1.1464742 0 0)
(1.1736593 0 0)
(1.1968597 0 0)
(1.2159429 0 0)
(1.2332169 0 0)
(1.2487144 0 0)
(1.2624858 0 0)
(1.2745847 0 0)
(1.285047 0 0)
(1.2938986 0 0)
(1.301168 0 0)
(1.3068859 0 0)
(1.3110808 0 0)
(1.313768 0 0)
(1.3149479 0 0)
(1.3146095 0 0)
(1.3127516 0 0)
(1.3093579 0 0)
(1.3044195 0 0)
(1.2979442 0 0)
(1.2899357 0 0)
(1.2804645 0 0)
(1.269592 0 0)
(1.2574942 0 0)
(1.2442914 0 0)
(1.2303222 0 0)
(1.2159319 0 0)
(1.2016515 0 0)
(1.1881419 0 0)
(1.1761516 0 0)
(1.1665431 0 0)
(1.1605756 0 0)
(0.9067921 0 0)
(0.86457982 0 0)
(0.81972307 0 0)
(0.77201481 0 0)
(0.72106677 0 0)
(0.666687 0 0)
(0.60853176 0 0)
(0.5461385 0 0)
(0.47900738 0 0)
(0.40669932 0 0)
(0.32868188 0 0)
(0.24358578 0 0)
(0.1512148 0 0)
(0.052220837 0 0)
(0.94651531 0 0)
(0.98397994 0 0)
(1.0194197 0 0)
(1.0530062 0 0)
(1.0848142 0 0)
(1.1148994 0 0)
(1.1433685 0 0)
(1.1702835 0 0)
(1.1956915 0 0)
(1.2172002 0 0)
(1.2347236 0 0)
(1.2505198 0 0)
(1.2646204 0 0)
(1.2770868 0 0)
(1.2879557 0 0)
(1.2972559 0 0)
(1.305021 0 0)
(1.3112798 0 0)
(1.3160589 0 0)
(1.3193827 0 0)
(1.3212624 0 0)
(1.3216862 0 0)
(1.3206471 0 0)
(1.3181312 0 0)
(1.3141143 0 0)
(1.3085939 0 0)
(1.3015583 0 0)
(1.29302 0 0)
(1.2830454 0 0)
(1.2716983 0 0)
(1.2591566 0 0)
(1.2455372 0 0)
(1.2311852 0 0)
(1.2164491 0 0)
(1.2018603 0 0)
(1.1880816 0 0)
(1.1757049 0 0)
(1.1659018 0 0)
(1.1598028 0 0)
(0.94611616 0 0)
(0.90672051 0 0)
(0.86482656 0 0)
(0.82037321 0 0)
(0.77302946 0 0)
(0.72240413 0 0)
(0.66828898 0 0)
(0.61032568 0 0)
(0.54804108 0 0)
(0.48091146 0 0)
(0.40852442 0 0)
(0.3293923 0 0)
(0.24337641 0 0)
(0.15106317 0 0)
(0.052159569 0 0)
(0.98314135 0 0)
(1.0181442 0 0)
(1.0513107 0 0)
(1.0827229 0 0)
(1.1124437 0 0)
(1.1405879 0 0)
(1.1672283 0 0)
(1.1923861 0 0)
(1.2161023 0 0)
(1.2360272 0 0)
(1.2520743 0 0)
(1.2664763 0 0)
(1.2792771 0 0)
(1.2905169 0 0)
(1.3002265 0 0)
(1.3084405 0 0)
(1.3151942 0 0)
(1.3205135 0 0)
(1.3244205 0 0)
(1.326942 0 0)
(1.3280758 0 0)
(1.3278046 0 0)
(1.3261126 0 0)
(1.3229888 0 0)
(1.3183986 0 0)
(1.3123225 0 0)
(1.3047642 0 0)
(1.295724 0 0)
(1.2852802 0 0)
(1.2734845 0 0)
(1.2605288 0 0)
(1.2465162 0 0)
(1.2318089 0 0)
(1.2167531 0 0)
(1.2018773 0 0)
(1.1875941 0 0)
(1.1749626 0 0)
(1.1650798 0 0)
(1.1588416 0 0)
(0.98274166 0 0)
(0.94604314 0 0)
(0.90697006 0 0)
(0.86549208 0 0)
(0.82142586 0 0)
(0.77442543 0 0)
(0.72408931 0 0)
(0.6702056 0 0)
(0.61240021 0 0)
(0.55018247 0 0)
(0.48302792 0 0)
(0.40936492 0 0)
(0.32910863 0 0)
(0.24314038 0 0)
(0.15088752 0 0)
(0.052088535 0 0)
(1.0173035 0 0)
(1.0500389 0 0)
(1.081035 0 0)
(1.1103704 0 0)
(1.1381666 0 0)
(1.1644972 0 0)
(1.1893912 0 0)
(1.2128731 0 0)
(1.2349956 0 0)
(1.2534199 0 0)
(1.2680787 0 0)
(1.281183 0 0)
(1.292761 0 0)
(1.3028417 0 0)
(1.3114664 0 0)
(1.3186722 0 0)
(1.3244853 0 0)
(1.328931 0 0)
(1.3320381 0 0)
(1.3338191 0 0)
(1.3342634 0 0)
(1.3333457 0 0)
(1.3310526 0 0)
(1.3273588 0 0)
(1.3222244 0 0)
(1.3156371 0 0)
(1.3075854 0 0)
(1.2980775 0 0)
(1.2871902 0 0)
(1.2749755 0 0)
(1.2616274 0 0)
(1.2472488 0 0)
(1.2322143 0 0)
(1.2168597 0 0)
(1.2013499 0 0)
(1.1867242 0 0)
(1.1740543 0 0)
(1.1640761 0 0)
(1.1576882 0 0)
(1.0169028 0 0)
(0.9826698 0 0)
(0.94629537 0 0)
(0.90764938 0 0)
(0.86657207 0 0)
(0.82286901 0 0)
(0.77618501 0 0)
(0.7261125 0 0)
(0.6724247 0 0)
(0.61473741 0 0)
(0.55256387 0 0)
(0.48398229 0 0)
(0.40900687 0 0)
(0.3287913 0 0)
(0.24286632 0 0)
(0.15068831 0 0)
(0.052008648 0 0)
(1.0491994 0 0)
(1.0797701 0 0)
(1.1087014 0 0)
(1.1361201 0 0)
(1.1621145 0 0)
(1.1867166 0 0)
(1.2099543 0 0)
(1.2318601 0 0)
(1.2524596 0 0)
(1.269462 0 0)
(1.2828312 0 0)
(1.2947163 0 0)
(1.3051349 0 0)
(1.3141307 0 0)
(1.3217467 0 0)
(1.3280132 0 0)
(1.3329531 0 0)
(1.3365953 0 0)
(1.3389658 0 0)
(1.3400668 0 0)
(1.3398723 0 0)
(1.3383593 0 0)
(1.3355034 0 0)
(1.3312815 0 0)
(1.3256437 0 0)
(1.3185668 0 0)
(1.3100541 0 0)
(1.3001027 0 0)
(1.2888008 0 0)
(1.2761878 0 0)
(1.2624727 0 0)
(1.2477555 0 0)
(1.232415 0 0)
(1.2163 0 0)
(1.2003388 0 0)
(1.1857068 0 0)
(1.1729767 0 0)
(1.1628865 0 0)
(1.1563438 0 0)
(1.0488024 0 0)
(1.0168312 0 0)
(0.98292614 0 0)
(0.94698514 0 0)
(0.90874955 0 0)
(0.86805337 0 0)
(0.82469349 0 0)
(0.77829921 0 0)
(0.72845265 0 0)
(0.67492385 0 0)
(0.61733494 0 0)
(0.55362237 0 0)
(0.48355642 0 0)
(0.40860717 0 0)
(0.32842405 0 0)
(0.24255072 0 0)
(0.15046123 0 0)
(0.051917683 0 0)
(1.0789357 0 0)
(1.107449 0 0)
(1.1344738 0 0)
(1.1601046 0 0)
(1.1843807 0 0)
(1.2073401 0 0)
(1.2290201 0 0)
(1.2494253 0 0)
(1.2685804 0 0)
(1.2842521 0 0)
(1.2964053 0 0)
(1.3071333 0 0)
(1.3164672 0 0)
(1.3244569 0 0)
(1.3311333 0 0)
(1.3365239 0 0)
(1.3406587 0 0)
(1.3435637 0 0)
(1.3452593 0 0)
(1.3457317 0 0)
(1.3449492 0 0)
(1.3428806 0 0)
(1.3395042 0 0)
(1.3347836 0 0)
(1.3286681 0 0)
(1.3211396 0 0)
(1.3121907 0 0)
(1.3018249 0 0)
(1.2901276 0 0)
(1.2771415 0 0)
(1.2630851 0 0)
(1.248052 0 0)
(1.2318272 0 0)
(1.2151478 0 0)
(1.1992015 0 0)
(1.1845365 0 0)
(1.1717263 0 0)
(1.1615116 0 0)
(1.1548041 0 0)
(1.0785425 0 0)
(1.0487326 0 0)
(1.0170883 0 0)
(0.98362213 0 0)
(0.94810201 0 0)
(0.91026305 0 0)
(0.86992752 0 0)
(0.82688081 0 0)
(0.78074486 0 0)
(0.73109184 0 0)
(0.67770371 0 0)
(0.61847385 0 0)
(0.55313518 0 0)
(0.48307879 0 0)
(0.40814609 0 0)
(0.32800225 0 0)
(0.24218779 0 0)
(0.15020476 0 0)
(0.051815597 0 0)
(1.1066264 0 0)
(1.1332376 0 0)
(1.1584848 0 0)
(1.1824126 0 0)
(1.205063 0 0)
(1.2264791 0 0)
(1.2466727 0 0)
(1.2656503 0 0)
(1.2834529 0 0)
(1.2978667 0 0)
(1.3088598 0 0)
(1.3185024 0 0)
(1.3268324 0 0)
(1.3338829 0 0)
(1.3396835 0 0)
(1.3442657 0 0)
(1.3476622 0 0)
(1.3498976 0 0)
(1.3509724 0 0)
(1.3508641 0 0)
(1.3495338 0 0)
(1.3469524 0 0)
(1.3430851 0 0)
(1.3379008 0 0)
(1.3313409 0 0)
(1.3233794 0 0)
(1.3140219 0 0)
(1.3032596 0 0)
(1.2911905 0 0)
(1.2778583 0 0)
(1.2634806 0 0)
(1.2474392 0 0)
(1.2305365 0 0)
(1.2138925 0 0)
(1.1979308 0 0)
(1.1832114 0 0)
(1.1703026 0 0)
(1.159947 0 0)
(1.1530712 0 0)
(1.1062401 0 0)
(1.0784747 0 0)
(1.048991 0 0)
(1.0177875 0 0)
(0.98475151 0 0)
(0.9496396 0 0)
(0.91217382 0 0)
(0.87217313 0 0)
(0.82941425 0 0)
(0.78350403 0 0)
(0.73402852 0 0)
(0.67890191 0 0)
(0.61791951 0 0)
(0.55258473 0 0)
(0.48253194 0 0)
(0.40761958 0 0)
(0.32751911 0 0)
(0.24177533 0 0)
(0.14991464 0 0)
(0.051700336 0 0)
(1.1324271 0 0)
(1.1572724 0 0)
(1.1808258 0 0)
(1.2031396 0 0)
(1.2242621 0 0)
(1.2442113 0 0)
(1.262995 0 0)
(1.280632 0 0)
(1.2971416 0 0)
(1.3103508 0 0)
(1.3202632 0 0)
(1.3289029 0 0)
(1.3362937 0 0)
(1.3424656 0 0)
(1.3474579 0 0)
(1.3513032 0 0)
(1.3540278 0 0)
(1.3556461 0 0)
(1.3561493 0 0)
(1.3555012 0 0)
(1.3536654 0 0)
(1.3506019 0 0)
(1.3462793 0 0)
(1.3406556 0 0)
(1.3336735 0 0)
(1.3253105 0 0)
(1.3155616 0 0)
(1.304427 0 0)
(1.2920112 0 0)
(1.2783538 0 0)
(1.262854 0 0)
(1.2460169 0 0)
(1.2291645 0 0)
(1.2125237 0 0)
(1.1965254 0 0)
(1.1817286 0 0)
(1.1687019 0 0)
(1.1581944 0 0)
(1.15114 0 0)
(1.1320473 0 0)
(1.1061764 0 0)
(1.0787332 0 0)