/*--------------------------------*- C++ -*----------------------------------*\
| =========                 |                                                 |
| \\      /  F ield         | OpenFOAM: The Open Source CFD Toolbox           |
|  \\    /   O peration     | Version:  v2012                                 |
|   \\  /    A nd           | Website:  www.openfoam.com                      |
|    \\/     M anipulation  |                                                 |
\*---------------------------------------------------------------------------*/
FoamFile
{
    version     2.0;
    format      ascii;
    class       surfaceScalarField;
    location    "61.0578017145492424";
    object      meshPhi;
}
// * * * * * * * * * * * * * * * * * * * * * * * * * * * * * * * * * * * * * //

dimensions      [0 3 -1 0 0 0 0];
oriented        oriented;


internalField   nonuniform List<scalar> 
18180
(
0
0.043753155
0
0.040973108
0
0.085880051
-8.0638328e-14
0.037873152
0
0.079409621
7.5306923e-14
0.12453497
0
0.034615602
0
0.07257666
0
0.114604
-7.2807528e-14
0.15959263
-4.0274989e-14
0.031477236
0
0.065846912
0
0.10431516
0
0.14722897
-7.0361139e-14
0.19231368
0
0.028794998
7.7753376e-14
0.060118037
0
0.094847345
0
0.13452067
0
0.17793837
6.797073e-14
0.22246505
0
0.026602831
-3.8847836e-14
0.055387819
0
0.086798
-7.2694703e-14
0.12268316
0
0.16340442
0
0.2065364
6.5688183e-14
0.25054587
0
0.024733722
0
0.051357658
3.7565728e-14
0.080149944
-3.6332608e-14
0.11247905
3.5135569e-14
0.14970035
0
0.19066222
0
0.23315365
0
0.27631643
0
0.023129919
0
0.047886994
-3.753975e-14
0.07459031
0
0.1039756
0
0.13762936
-6.7899514e-14
0.17563335
0
0.21610053
0
0.25765691
6.134743e-14
0.30029406
4.0080291e-14
0.021719378
0
0.044801954
0
0.069744797
0
0.096879405
1.4434483e-17
0.12738621
-1.4121779e-17
0.16206458
3.2803729e-14
0.19990804
0
0.23956201
0
0.28034291
0
0.32231188
0
0.020458262
0
0.042009703
0
0.065373756
3.6247734e-14
0.090718436
0
0.1186502
3.3917936e-14
0.15019997
-3.2799073e-14
0.18515073
0
0.22240306
0
0.26121535
0
0.30122871
0
0.34275066
0
0.019310558
0
0.039449147
3.7450522e-14
0.061341081
0
0.085154745
-7.0087252e-14
0.11109979
-6.7795877e-14
0.14000768
-3.2766952e-14
0.17203647
0
0.20660772
-3.064869e-14
0.24313374
0
0.28118879
0
0.32054257
0
0.36144845
9.0797284e-18
0.018254289
0
0.037078561
0
0.057580544
-3.6218812e-14
0.080008606
0
0.10434896
0
0.13109586
-3.276166e-14
0.16044565
1.2566065e-17
0.19230344
-3.063236e-14
0.22640494
2.9606903e-14
0.26228042
0
0.29958797
0
0.33828345
0
0.37881291
1.9992123e-14
0.017271512
0
0.034865177
0
0.054055351
0
0.075177483
-3.5010328e-14
0.098090168
0
0.12307317
0
0.15017075
3.1649687e-14
0.17942993
0
0.21105663
0
0.24473531
2.8619651e-14
0.27990736
5.5317402e-14
0.31654361
0
0.35467535
5.1676235e-14
0.39471829
-9.3010188e-18
0.016346235
-1.9333988e-14
0.032786215
-1.8694828e-14
0.050737816
0
0.070627832
-3.4991692e-14
0.092211981
-1.4285095e-17
0.11569557
0
0.14097344
0
0.16793586
3.0598446e-14
0.19713277
2.9585473e-14
0.22863712
2.8594631e-14
0.26174116
0
0.29621632
5.3449521e-14
0.33219134
0
0.36975878
4.9926064e-14
0.40945667
1.9983609e-14
0.015465033
-1.9325529e-14
0.030820776
-1.8694137e-14
0.047607185
7.7400766e-18
0.066337869
0
0.086660638
0
0.10878589
3.2693704e-14
0.13257918
0
0.15768911
0
0.18464758
-2.9569037e-14
0.21391865
0
0.24503336
-9.2724694e-18
0.27750412
5.3432177e-14
0.31128802
0
0.34663969
0
0.38366628
0
0.42291209
1.9966597e-14
0.01462044
0
0.028955919
-1.8686376e-14
0.044648124
0
0.062293166
-1.7471656e-14
0.081417321
0
0.10225333
0
0.12475577
3.1598039e-14
0.14837452
0
0.17338962
2.9541569e-14
0.20053673
-2.8573016e-14
0.22969097
2.7624609e-14
0.2603024
2.6697654e-14
0.29210919
7.6647631e-18
0.32522635
4.9893395e-14
0.35991765
0
0.39642899
4.6594084e-14
0.43538149
1.9969407e-14
0.013808735
0
0.02718249
0
0.041849804
-7.8527468e-18
0.058480605
-1.7471769e-14
0.076469857
-1.6888289e-14
0.096066747
0
0.11737024
3.1582128e-14
0.13972446
0
0.16315304
0
0.18842366
-2.8546654e-14
0.21564169
0
0.24441398
0
0.27447179
-7.9747721e-18
0.30563195
0
0.33803525
0
0.37214789
0
0.40817774
-4.5018964e-14
0.44677892
0
0.013024561
-1.9296825e-14
0.02549641
0
0.039203004
-7.9222052e-18
0.054890026
1.744993e-14
0.071811071
-1.6888548e-14
0.090211396
1.6330514e-14
0.11036345
0
0.13158201
3.0522113e-14
0.15368407
0
0.17730668
0
0.20270608
0
0.2297023
0
0.25809834
2.5788683e-14
0.28763105
-7.3714863e-18
0.3181045
0
0.34986923
0
0.38339502
-4.4997128e-14
0.41897171
0
0.45731418
0
0.012264546
0
0.023892275
-1.8659628e-14
0.036701962
-1.8054233e-14
0.051510527
0
0.067430063
-7.2822817e-18
0.084680041
-1.6323871e-14
0.10371653
-1.5776627e-14
0.12385485
0
0.14476189
2.9507335e-14
0.16695504
0
0.19071449
0
0.21600373
0
0.24278401
-8.5513723e-18
0.27083953
0
0.29979989
-2.4083167e-14
0.32963498
0
0.36077238
0
0.39375945
0
0.42887912
-8.5106116e-18
0.46691502
0
0.011527439
0
0.02236636
0
0.034341768
1.8040935e-14
0.048328981
1.7445795e-14
0.063314449
7.2748761e-18
0.079463606
-1.6317771e-14
0.097420241
1.5770195e-14
0.11651766
1.5253398e-14
0.13630154
0
0.15723301
0
0.17955035
-2.756515e-14
0.20323318
0
0.22844878
0
0.25508495
0
0.28269646
7.1322039e-18
0.31107521
2.3258596e-14
0.34028023
-2.248491e-14
0.37082897
0
0.40324277
0
0.43795526
-7.8138025e-18
0.4757833
0
0.010814208
0
0.020917228
1.8650098e-14
0.032117835
0
0.045334187
0
0.059449044
-7.266428e-18
0.074554775
3.2624408e-14
0.09146965
-1.5778115e-14
0.10955926
1.5241035e-14
0.12825972
0
0.14803001
0
0.16909413
0
0.19135406
0
0.21506147
0
0.24027287
0
0.26658524
-2.4056139e-14
0.29371618
0
0.32150897
-2.2473262e-14
0.35010292
-2.1713482e-14
0.38004771
0
0.41196625
0
0.44626828
3.9168184e-14
0.4838722
9.9728344e-15
0.010127776
0
0.019544402
0
0.030027012
-8.2744251e-18
0.042516095
0
0.055822256
7.2563349e-18
0.069946487
0
0.085859966
0
0.10297574
-6.2792998e-18
0.12062223
-5.8423337e-18
0.13928301
0
0.15921999
0
0.18023598
0
0.20251386
-9.2036765e-18
0.22633839
0
0.25140664
0
0.2773363
-2.3238774e-14
0.30395264
-2.2454713e-14
0.33115815
2.1702003e-14
0.35914367
-2.0977319e-14
0.38855874
0
0.41995812
0
0.45389109
0
0.49132399
9.9663303e-15
0.0094703271
3.9172873e-18
0.01824742
0
0.028065572
-1.8028173e-14
0.039866522
1.7432263e-14
0.052419987
0
0.065627014
0
0.080585825
0
0.096761102
0
0.11338309
-5.8613072e-18
0.13096839
0
0.14984677
1.3763312e-14
0.16974955
0
0.19075025
0
0.21325246
0
0.23708325
0
0.26183725
2.3218294e-14
0.28734811
2.2441599e-14
0.31344595
0
0.34004999
-2.0966515e-14
0.36749561
0
0.39639452
0
0.42731122
0
0.46084859
0
0.49810084
-9.9698172e-15
0.0088430377
-9.6361645e-15
0.017024738
9.32361e-15
0.026226879
0
0.037374491
0
0.04922548
0
0.061581025
0
0.075633174
0
0.090905465
-1.5231811e-14
0.10653759
0
0.12307712
1.4227132e-14
0.14093258
-1.3757712e-14
0.15980872
-1.3293219e-14
0.17967188
0
0.20090081
0
0.22349147
-2.4016466e-14
0.24711952
0
0.27157064
0
0.29667197
0
0.32221634
0
0.34827442
-2.0249896e-14
0.37521197
0
0.40362066
0
0.43401058
0
0.46720429
-3.5277396e-14
0.50432719
-9.9637119e-15
0.0082463468
-9.6349005e-15
0.015874523
-9.3222599e-15
0.024504401
-9.0109307e-15
0.03503026
0
0.0462229
-1.6854589e-14
0.057789775
-1.6294742e-14
0.070984175
0
0.085394088
-1.5221217e-14
0.100076
0
0.11560305
0
0.1324644
1.3747194e-14
0.15035288
1.3287715e-14
0.16915906
1.2843295e-14
0.18921008
0
0.21057582
-2.3996068e-14
0.23306548
-2.3200132e-14
0.25649586
7.0091975e-18
0.28066869
0
0.30532338
-2.0943025e-14
0.33034582
4.8277048e-18
0.35587908
0
0.38233466
1.8892364e-14
0.41024191
0
0.4401549
0
0.47297984
-3.4063043e-14
0.50998604
9.9626552e-15
0.007681304
9.6376686e-15
0.014794697
-9.3171948e-15
0.02289316
-4.3266718e-18
0.032825153
4.0698385e-18
0.043397014
0
0.054238977
0
0.066621146
-1.5749293e-14
0.080207192
0
0.093985343
-1.4715144e-14
0.10853917
0
0.12443554
-1.3747823e-14
0.14136203
-5.0011543e-18
0.15916255
-1.2842699e-14
0.17813776
0
0.19834152
0
0.21965608
0
0.24205855
-2.2410471e-14
0.26534574
0
0.28917605
0
0.31337436
2.0222122e-14
0.33787249
-1.9541598e-14
0.36290667
1.8882544e-14
0.3888992
-1.8244034e-14
0.41634311
0
0.44574519
0
0.47825205
0
0.5151677
-9.9617437e-15
0.0071481262
0
0.013782492
3.9104645e-18
0.021388021
-9.0084824e-15
0.030752662
0
0.040734762
3.6402534e-18
0.050910792
0
0.062528585
0
0.075326445
1.5213934e-14
0.088248945
0
0.10187567
5.7565403e-18
0.11684045
-5.4488041e-18
0.13282739
0
0.14964837
1.2832973e-14
0.16762145
-4.5960316e-18
0.18677278
-1.1986851e-14
0.20694996
0
0.22826618
0
0.25062904
0
0.27365678
0
0.29712574
0
0.32085078
-4.7396292e-18
0.34483208
1.8876101e-14
0.36938432
-1.8238197e-14
0.39495432
-3.5237379e-14
0.42194074
-3.4042558e-14
0.45086017
0
0.48302441
3.1750228e-14
0.51986168
0
0.0066460128
0
0.012837005
9.3152627e-15
0.01998354
0
0.028806202
-8.713127e-15
0.038225728
8.4196029e-15
0.047789532
-8.1391842e-15
0.058690178
0
0.070731718
0
0.082849133
-5.8030963e-18
0.095599835
0
0.10967018
-1.3734131e-14
0.12474159
0
0.14060216
0
0.15761514
0
0.17580669
0
0.19493507
1.1583428e-14
0.21511553
0
0.23649172
0
0.25872832
2.090127e-14
0.28147277
0
0.30454431
0
0.32777915
1.8861043e-14
0.35124624
3.7917995e-18
0.37535818
0
0.40053386
-1.7010926e-14
0.4270719
3.2864584e-14
0.45548387
0
0.48736184
-3.7184683e-18
0.52414793
0
0.006168768
0
0.011957674
0
0.018673991
-4.4453229e-18
0.026980339
4.193343e-18
0.03586163
-8.4185596e-15
0.044858676
8.1380343e-15
0.055087121
3.7413232e-18
0.066405453
0
0.077765539
0
0.089691367
1.4206694e-14
0.10291212
0
0.11709719
-2.6539876e-14
0.13201486
0
0.14809414
0
0.16538739
-4.4208132e-18
0.18355799
0
0.2026534
0
0.22297788
0
0.24434578
0
0.26635422
0
0.288791
1.9507412e-14
0.311447
0
0.33417377
-4.0293839e-18
0.35715956
1.7601774e-14
0.3808553
-3.0365597e-18
0.40564684
0
0.43174391
0
0.45969422
0
0.49127738
0
0.52803327
2.7939846e-05
0.0067051966
0
0.011133325
0
0.017454932
0
0.025267628
-4.2253545e-18
0.033633642
8.4213566e-15
0.042104083
0
0.051699997
-7.869316e-15
0.062327551
-7.6028305e-15
0.072976483
1.4696426e-14
0.084130097
0
0.096547984
1.3727406e-14
0.10988242
0
0.12387953
2.5645883e-14
0.13904701
0
0.15547619
0
0.17276378
1.1569826e-14
0.19086311
-3.9387988e-18
0.21009086
0
0.23046623
0
0.25170192
0
0.27350863
0
0.29563424
1.8844032e-14
0.31783843
4.3203002e-18
0.34007697
-3.7049122e-18
0.36259436
-1.6992829e-14
0.38588831
-1.6419318e-14
0.41032646
-1.5860792e-14
0.43601255
-3.0639194e-14
0.46350233
0
0.49484555
0
0.5315857
4.6513795e-05
0.00662325
7.5881158e-05
0.012055531
0
0.016315298
0
0.023660905
0
0.031533613
-3.7302863e-18
0.039510618
3.7953331e-18
0.048513852
7.868343e-15
0.058481675
1.5203499e-14
0.068463162
2.8521142e-18
0.078892099
1.4201072e-14
0.090556006
0
0.10308334
1.3263421e-14
0.11618689
0
0.13046286
-1.2385659e-14
0.14605653
0
0.16250184
1.1569784e-14
0.17967134
-3.9601758e-18
0.1978459
0
0.21713933
1.0438532e-14
0.23746319
0
0.25860294
0
0.2802248
0
0.30199927
0
0.32375648
0
0.34550497
0
0.36756368
0
0.39048644
-2.5338136e-18
0.41459805
0
0.43990409
2.95761e-14
0.46697172
0
0.49808913
-2.8240674e-18
0.53481634
5.6964254e-05
0.0065391101
0.00012673362
0.011997248
0.00011680402
0.017605094
0
0.022148755
0
0.029554709
0
0.037068648
-3.800739e-18
0.045513799
3.7496373e-18
0.054855258
-3.1656143e-18
0.064209238
0
0.073957843
7.1022708e-15
0.084914043
0
0.096680307
0
0.10892474
0
0.12233273
0
0.13711612
1.1969748e-14
0.15274857
0
0.16903925
1.1175725e-14
0.18624015
-1.0798597e-14
0.20445319
-1.0434081e-14
0.22370944
0
0.24405038
0
0.26515372
0
0.286524
0
0.30791958
0
0.32921124
0
0.35047257
1.6398151e-14
0.37209623
-1.5841657e-14
0.39467305
-1.5305339e-14
0.41850079
0
0.44344575
0
0.47012605
0
0.50106858
-2.6626195e-14
0.537774
6.0512725e-05
0.0064575289
0.00015574149
0.011933061
0.00019602602
0.017649431
0.00015841931
0.023750362
0
0.027682618
0
0.034770531
0
0.042689456
-3.7447275e-18
0.0514366
7.6031195e-15
0.060199998
0
0.069307579
-7.1012308e-15
0.079601686
2.7812046e-18
0.090654825
0
0.10207961
0
0.11464572
1.2379291e-14
0.12864376
0
0.1434906
0
0.15893187
-4.017941e-18
0.1752264
0
0.19243938
1.0422966e-14
0.21058663
-1.0077339e-14
0.22992805
0
0.2503704
0
0.27133381
0
0.29241102
0
0.31339968
0
0.33421633
0
0.35500556
0
0.37621647
-1.5294685e-14
0.39848156
0
0.42203973
0
0.44666694
-2.756652e-14
0.47302522
0
0.50379378
2.5699576e-14
0.54047145
5.8357272e-05
0.0063800081
0.00016600896
0.011870452
0.00024208749
0.017684871
0.00026669897
0.023905036
0.00019815163
0.029481001
-8.4194576e-15
0.032597298
0
0.040031173
0
0.048214402
0
0.056421634
0
0.064925709
-7.0973857e-15
0.074599506
6.8589342e-15
0.08498614
-6.6280596e-15
0.095636034
0
0.10739066
0
0.1206279
1.1958879e-14
0.13471321
1.1554991e-14
0.14932957
1.1168525e-14
0.16476173
-3.788051e-18
0.18106013
0
0.19815193
-1.007329e-14
0.21635021
-3.201207e-18
0.23593883
3.075047e-18
0.25642928
0
0.27716567
-1.7553143e-14
0.29789019
0
0.31844859
0
0.33879306
0
0.35913168
0
0.3799529
-1.476602e-14
0.40191763
-1.4262808e-14
0.42525294
0
0.44960921
2.6607729e-14
0.47568831
0
0.50631555
2.4806823e-14
0.54293298
5.1632062e-05
0.0063078148
0.00016064751
0.011810698
0.00025933677
0.017717672
0.0003303246
0.024042544
0.00033388618
0.029760618
0.00023142294
0.034503626
0
0.037520112
0
0.045178046
0
0.052861948
-2.7500917e-18
0.060794773
2.9396346e-18
0.069888232
0
0.079655647
-6.6294799e-15
0.089576437
2.365211e-18
0.10055347
0
0.11305609
1.1961185e-14
0.12640485
-1.1556499e-14
0.14021666
1.1161339e-14
0.15481724
-1.0783735e-14
0.17026464
1.0418961e-14
0.18639249
0
0.20346415
-9.7284454e-15
0.22200091
-9.3986777e-15
0.24180315
-9.0771191e-15
0.26215414
0
0.28260731
0
0.30296363
-1.6373994e-14
0.32307982
0
0.34297195
0
0.36287402
0
0.38331161
1.4257031e-14
0.40501789
-1.705375e-18
0.42815901
-1.3299535e-14
0.45230531
0
0.47815112
0
0.50862861
0
0.5451718
4.1425554e-05
0.0062415075
0.00014260433
0.011754677
0.00025218551
0.017747608
0.00035491847
0.024169363
0.00041393907
0.030008782
0.00039027113
0.034954168
0.00025968993
0.039429985
-7.8618425e-15
0.042306859
0
0.049510203
0
0.056903497
-2.946712e-18
0.065446757
2.8207297e-18
0.074642468
6.626307e-15
0.083882964
0
0.094119869
2.6090996e-18
0.10591569
-1.1958928e-14
0.11855187
0
0.13158044
0
0.14537513
1.0784511e-14
0.16001253
3.4631234e-18
0.17526215
1.0062867e-14
0.19129172
9.7247599e-15
0.2086505
0
0.2275037
9.0730452e-15
0.2473414
8.7679863e-15
0.26750997
0
0.28766844
0
0.30763663
-1.5809288e-14
0.32732548
0
0.34677243
0
0.36624251
-1.4249151e-14
0.38633031
0
0.4077988
-1.5418857e-18
0.43080032
0
0.4547668
0
0.48041796
0
0.51077175
0
0.54718828
2.8766675e-05
0.0061814859
0.00011478277
0.011702696
0.00022490618
0.01777445
0.00034608894
0.024285305
0.00044513286
0.030234642
0.00048419084
0.035355504
0.00043817275
0.040030122
0.00028480078
0.044116665
0
0.046339646
0
0.053244478
0
0.061260943
-2.8470881e-18
0.069926037
0
0.078537825
0
0.088073971
0
0.09918979
5.9784678e-15
0.11114094
0
0.1234071
1.1155965e-14
0.1364182
-1.078176e-14
0.15028096
0
0.16470446
0
0.17977502
0
0.19600238
9.3913313e-15
0.21372713
-9.0723225e-15
0.23275274
-8.7640993e-15
0.25252346
2.5313298e-18
0.27250789
0
0.29235654
0
0.31194218
1.5260162e-14
0.33120278
0
0.35020667
0
0.36927214
0
0.38902567
0
0.41029831
-1.3839227e-18
0.43318179
-1.2390663e-14
0.45701679
-2.3932433e-14
0.48252261
-1.8906639e-18
0.51271685
0
0.54899751
1.4647097e-05
0.0061287572
7.9941885e-05
0.011654833
0.00018181975
0.017797276
0.00030951287
0.02438965
0.00043440051
0.030437124
0.00052098163
0.035715883
0.00054380045
0.040564106
0.00048025246
0.044844385
0.00030457562
0.047975529
0
0.049791966
0
0.057319075
0
0.06548744
6.6249797e-15
0.07352244
-6.4008381e-15
0.082400298
0
0.092861966
0
0.10415389
5.7748415e-15
0.11568222
0
0.12793295
0
0.14105225
-1.0413466e-14
0.15469061
0
0.16887366
0
0.18407443
-9.3880418e-15
0.20064144
0
0.21857642
0
0.23765302
-2.6132568e-18
0.25738698
-8.172422e-15
0.27716768
0
0.29669934
-1.5255581e-14
0.315894
0
0.33472559
0
0.35330623
0
0.37198114
0
0.39143225
0
0.41253032
-1.2385768e-14
0.4353393
0
0.45907354
2.3097658e-14
0.48445334
0
0.51449899
-2.1530536e-14
0.55059299
0.0060839839
0
4.0814363e-05
0.011611865
0.00012715317
0.01781539
0.00025085282
0.024481205
0.00038878137
0.030615291
0.00050864838
0.036032707
0.00058524623
0.041037107
0.00059567972
0.045483716
0.00051316731
0.048840842
0.00031820084
0.051192888
0
0.053602394
0
0.061307692
0
0.068817458
-2.2316091e-18
0.077078989
2.681715e-18
0.08691588
0
0.097573689
-2.1887824e-18
0.10839154
-1.1153697e-14
0.11990503
0
0.13231033
0
0.14520224
0
0.15854465
0
0.17280403
2.894642e-18
0.18830399
0
0.20507777
0
0.22313638
-2.6379166e-18
0.24229512
0
0.26195325
-7.8907483e-15
0.28151648
0
0.300712
1.4728337e-14
0.31950704
0
0.33792051
0
0.35609172
1.3271179e-14
0.37439881
1.2816163e-14
0.39356272
0
0.41453099
1.1954029e-14
0.43728733
0
0.46095927
0
0.48623232
0
0.51607642
0
0.55199427
0.011574227
0
0.0060468578
-1.4468944e-05
6.5153042e-05
0.017828514
0.00017586378
0.024558874
0.00031531379
0.030767508
0.00045535193
0.036304527
0.00057144409
0.041446533
0.00064065317
0.046045597
0.0006359736
0.049595488
0.0005358638
0.052210694
0.00032987806
0.054773349
0
0.057356028
0
0.064405372
0
0.072094633
-6.1855016e-15
0.08133092
2.6583214e-18
0.091381821
0
0.10151966
0
0.11232171
-5.3855207e-15
0.12403983
-1.0405333e-14
0.1362212
0
0.14876594
-9.7127554e-15
0.16214825
0
0.17668671
-9.06287e-15
0.19238445
8.7515372e-15
0.20929519
-1.6909352e-14
0.22751964
-8.1678913e-15
0.24673966
0
0.26627702
7.6205654e-15
0.28556781
0
0.30440638
1.4218775e-14
0.32280286
0
0.34081121
0
0.35858781
-1.2810572e-14
0.37653552
1.2371077e-14
0.39545697
-1.1947673e-14
0.41633412
1.1538186e-14
0.43906615
-1.1141948e-14
0.46267472
-2.1518315e-14
0.48782435
0
0.51748253
2.0053289e-14
0.55319552
0.017836457
0
0.011541946
-4.0493953e-05
0.0060170525
-2.806939e-05
9.0309469e-05
0.024622275
0.00022119678
0.030892488
0.00036937264
0.0365298
0.00051150233
0.041791051
0.00062513213
0.046528489
0.00068348987
0.050256919
0.000663811
0.053099583
0.00055554699
0.055987466
0.00034140035
0.058271934
6.6261465e-15
0.060245764
-6.3991822e-15
0.067432571
0
0.076090698
-2.6917747e-18
0.085559105
0
0.095049401
0
0.10516901
0
0.11622746
5.2034802e-15
0.12773211
0
0.13951805
9.7076319e-15
0.15207387
-9.3797355e-15
0.165734
-9.0574335e-15
0.18046705
0
0.19629003
-2.6662719e-18
0.21341591
0
0.23180474
-2.4562667e-18
0.2509917
0
0.27034249
1.9456649e-18
0.28933853
-1.4211995e-14
0.30780273
0
0.32580798
-1.3257081e-14
0.34341856
0
0.36080344
0
0.37842865
1.1941103e-14
0.39715224
0
0.41797579
-9.3616483e-19
0.44068011
0
0.46422616
2.0766421e-14
0.48925737
0
0.51869364
1.9353079e-14
0.55422424
0.024670407
0
0.017840364
-6.5026995e-05
0.011514394
-7.8684519e-05
0.0059956372
-3.9941117e-05
0.00011365309
0.030989062
0.00025912119
0.036706351
0.00041484893
0.042069509
0.00055922946
0.046930784
0.00066649759
0.05082397
0.00071307361
0.053875528
0.000688166
0.057055551
0.0005751046
0.059696151
0.00034890058
0.060843486
0
0.063053892
0
0.071177602
0
0.080085773
5.7696938e-15
0.088963536
1.9936766e-18
0.098433198
5.3858538e-15
0.10885936
5.2008068e-15
0.11971886
-5.0239141e-15
0.13078362
0
0.1425571
0
0.15539893
-9.0578073e-15
0.16925924
0
0.184101
0
0.20012639
-8.1621738e-15
0.21748907
-7.8835214e-15
0.23595804
-2.3652381e-18
0.25504754
0
0.27417749
0
0.29283513
0
0.31092388
0
0.32853882
1.2795019e-14
0.3457521
0
0.36277199
-1.1935693e-14
0.38010432
1.152576e-14
0.398683
9.2102393e-19
0.4194774
-8.6005168e-19
0.44215575
-1.0378855e-14
0.46562125
0
0.4905191
0
0.51975337
0
0.5550815
0.031055445
0
0.024706185
-9.0477936e-05
0.01783938
-0.00012664903
0.011491489
-0.00011209367
0.0059835787
-4.9218017e-05
0.00013312325
0.036832078
0.00029092664
0.042279687
0.00045328268
0.047250741
0.00059588134
0.051295337
0.00069506163
0.054537631
0.00073919186
0.057984036
0.00071250642
0.060947548
0.0005877041
0.062443984
0.00035261035
0.063309976
0
0.066556813
0
0.074941617
5.7691717e-15
0.083244924
-1.9688155e-18
0.092095096
2.0725021e-18
0.10191933
5.2018672e-15
0.11216522
-1.453759e-18
0.1225439
0
0.13357428
9.3726169e-15
0.14564827
0
0.15870283
0
0.1726576
0
0.187674
0
0.20397631
0
0.22151558
-7.6091171e-15
0.23996877
7.3491215e-15
0.25891197
0
0.27776927
6.8569309e-15
0.29608038
0
0.31378348
0
0.33100496
-1.2352543e-14
0.34784022
0
0.36451025
1.1520453e-14
0.38159327
-1.1125493e-14
0.40006929
0
0.42086125
0
0.44349258
0
0.46687692
1.9342188e-14
0.4916387
0
0.52063926
0
0.55579295
0.036904925
0
0.031097541
-0.00011397096
0.024728591
-0.00017650538
0.017830802
-0.00018071108
0.011474037
-0.00013821127
0.0059807728
-5.5038092e-05
0.00014940337
0.042419579
0.00031770553
0.047487655
0.00048273892
0.051669155
0.00062121254
0.055085456
0.00072041204
0.058772262
0.00076540124
0.062039181
0.00072818916
0.063854748
0.00059393766
0.065096272
0.00035727753
0.066450866
0
0.07008158
0
0.077878445
0
0.08614165
-2.0912968e-18
0.095385749
5.2011976e-15
0.10505096
1.4399397e-18
0.11478056
-1.3140203e-18
0.12510629
9.3721702e-15
0.13645369
-9.0508286e-15
0.14875239
0
0.16189278
0
0.17600192
0
0.19127779
-7.8759557e-15
0.20780186
0
0.22542385
0
0.24382015
7.095102e-15
0.26258041
0
0.28114435
1.5686885e-18
0.29907871
0
0.31638925
0
0.33322965
-1.6093197e-18
0.34969805
0
0.36604503
1.1118421e-14
0.38290983
1.0737104e-14
0.40133707
0
0.42213707
-1.0012757e-14
0.44471877
-9.6671329e-15
0.4679931
0
0.4925971
0
0.5213873
0
0.55636042
0.042488151
0
0.036933831
-0.00013340169
0.03111478
-0.00022242431
0.024733021
-0.00025217922
0.017814255
-0.00022304444
0.011461909
-0.00015457273
0.0059866146
-5.6495877e-05
0.00016307706
0.047641169
0.00033821956
0.051945372
0.00050311368
0.055518685
0.00064371633
0.059419353
0.00074599224
0.06296831
0.00078241728
0.065094955
0.00073596364
0.066676009
0.00060174456
0.068434091
0.00036296714
0.069579567
-5.7685239e-15
0.072811952
0
0.080561383
0
0.089244403
-1.8947375e-18
0.098356488
5.0230892e-15
0.10747404
-4.8502863e-15
0.11713295
4.6859515e-15
0.12779194
4.5259342e-15
0.13937659
0
0.15174962
0
0.16502666
0
0.17935974
0
0.19485855
0
0.21154816
0
0.22921423
0
0.24751912
-6.851674e-15
0.26606488
-1.7665355e-18
0.28429735
1.4540395e-18
0.3018421
0
0.31876001
0
0.33522812
2.3015265e-14
0.35134795
0
0.36738527
0
0.3840823
1.0362885e-14
0.40249943
7.3965042e-19
0.42332437
1.932519e-14
0.44582186
5.4822302e-19
0.46897752
0
0.49342478
0
0.52199259
0
0.55681107
0.047711116
0
0.042498547
-0.00014955147
0.036917784
-0.00026019575
0.03109999
-0.0003179046
0.024718545
-0.00031159606
0.017790155
-0.0002495364
0.011454835
-0.00015861555
0.0060021006
-5.2713914e-05
0.00017355904
0.052124434
0.00035241828
0.055836742
0.00052123416
0.059924241
0.00066661654
0.063732434
0.00076274071
0.066158338
0.00079079696
0.068065106
0.00074551016
0.070186795
0.00061115401
0.071751052
0.00036586406
0.071899258
0
0.075303275
-2.1160937e-18
0.083479907
0
0.092062384
5.0210707e-15
0.10060447
-4.8496272e-15
0.10963535
9.3690336e-15
0.11964158
-4.5251353e-15
0.13054812
1.364998e-18
0.14219199
0
0.15469104
0
0.16816876
7.8718517e-15
0.18270231
0
0.19839899
7.3418468e-15
0.21523331
0
0.23291017
0
0.25107454
6.6123738e-15
0.26936698
0
0.28723707
1.3355754e-18
0.3043735
0
0.3209084
0
0.33701817
0
0.35279676
1.0725303e-14
0.36856063
1.0357903e-14
0.3851239
0
0.4035739
6.8079245e-19
0.42441138
-9.3257755e-15
0.44682097
-9.0034765e-15
0.46983856
1.7384194e-14
0.49412474
0
0.52249338
-1.6197583e-14
0.55714401
0.052205758
0
0.047715876
-0.00016313191
0.04245042
-0.00029149477
0.03684669
-0.00037164403
0.031052779
-0.00039294209
0.024684939
-0.00034886135
0.017758296
-0.00025600408
0.011451813
-0.0001478315
0.0060290303
-4.2730146e-05
0.00018081923
0.056041023
0.00036501548
0.060287989
0.00053973804
0.064328853
0.00068168855
0.067040786
0.0007709701
0.069256819
0.00080091323
0.071718832
0.00075680645
0.073656654
0.00061563592
0.074249649
0.00036552287
0.073984864
0
0.078041179
0
0.086149878
-1.0043926e-14
0.09415311
-4.850285e-15
0.10258857
-4.6831609e-15
0.1119801
4.5244215e-15
0.1222434
4.3697089e-15
0.13319118
1.3364418e-18
0.14495116
0
0.15764076
0
0.17129286
0
0.18601684
0
0.2019264
-7.0881715e-15
0.21886761
0
0.23648272
0
0.2544825
-6.3849792e-15
0.27247652
6.1639049e-15
0.28995091
0
0.30668706
0
0.32284796
-1.1100788e-14
0.33860532
0
0.35407196
0
0.36958313
0
0.3860546
-9.6531317e-15
0.40455203
9.3210944e-15
0.42541438
1.7999247e-14
0.44770193
-1.7378241e-14
0.47059617
0
0.49472306
0
0.52287559
-2.242631e-19
0.5573847
0.056131507
0
0.05221274
-0.00017359982
0.047656061
-0.00031792155
0.042330738
-0.0004160509
0.036722088
-0.00045901665
0.030973831
-0.00044007846
0.024631997
-0.00035810933
0.01771739
-0.00023835041
0.011454946
-0.00011962189
0.0060684577
-2.5532906e-05
0.00018724382
0.060512823
0.00037792943
0.064757483
0.00055203278
0.067737346
0.00068918037
0.070246318
0.00078071027
0.073024121
0.00081271068
0.075317813
0.00076208383
0.076307787
0.00061503442
0.076537215
0.0003648359
0.076307931
0
0.080555912
0
0.088104681
0
0.095979029
-1.3912427e-18
0.1047842
-4.5223235e-15
0.11443677
4.3690187e-15
0.12472238
4.2208668e-15
0.1357775
-4.0737475e-15
0.14772625
7.8710712e-15
0.16057104
0
0.17438885
7.3382623e-15
0.18932998
0
0.20542244
6.8455422e-15
0.22240581
-6.6102984e-15
0.23993831
0
0.25772719
0
0.27538458
5.9497505e-15
0.29245109
-5.7452105e-15
0.30878781
0
0.32458365
-1.0714175e-14
0.3400138
-1.0347018e-14
0.35518573
-1.998184e-14
0.37047525
0
0.38687254
0
0.40545071
8.9954186e-15
0.42629922
-8.6852502e-15
0.44849082
0
0.47125043
0
0.49520997
0
0.52317258
0
0.55752691
0.060601001
0
0.056135572
-0.00018085613
0.052146021
-0.00033838735
0.047514394
-0.00045376047
0.042141036
-0.00051345615
0.03654427
-0.00051365144
0.030864315
-0.00045190406
0.024560727
-0.0003335259
0.017666019
-0.00019248718
0.011465326
-7.1291908e-05
0.0061174839
-9.9661303e-15
0.0001938274
0.065018615
0.0003866005
0.068244222
0.00055819529
0.071029302
0.00069771059
0.074098852
0.00079182716
0.07672874
0.00081804053
0.078104782
0.00076121122
0.078775466
0.00061392549
0.079070873
0.00036383455
0.078393555
0
0.082385687
0
0.089792913
0
0.098034582
-1.4794049e-18
0.10710712
-4.3670271e-15
0.11676158
0
0.12714456
-4.0744009e-15
0.13839069
1.3390668e-18
0.15048426
0
0.16347075
0
0.17748695
7.0848195e-15
0.1926534
0
0.20887169
-6.6061592e-15
0.22584256
-2.2268304e-18
0.24325446
0
0.26079549
0
0.27807914
-1.3029117e-18
0.29473707
0
0.3106853
0
0.3261364
0
0.34125526
-9.9852766e-15
0.35615942
-9.6426208e-15
0.37123745
-9.3104865e-15
0.3875974
-8.9906439e-15
0.40623513
4.9123146e-19
0.42708702
0
0.44916752
-8.0917393e-15
0.47181473
0
0.49560866
0
0.52337644
-1.4554678e-14
0.55758554
0.065114546
0
0.060585854
-0.00018720838
0.056053724
-0.00035256988
0.051984021
-0.00048313413
0.047292124
-0.00056005427
0.041880479
-0.00057408036
0.036314109
-0.00052696509
0.030724003
-0.00042104372
0.024468266
-0.00026932278
0.017604455
-0.00011438074
0.011478795
0
0.0056130812
0
0.00019827785
0.068559137
0.00039097535
0.071600893
0.00056498558
0.074939519
0.00070729612
0.07788433
0.00079675844
0.079633453
0.00081704581
0.080727255
0.00075984305
0.081493912
0.00061211123
0.081345588
0.00036029625
0.079807629
0
0.083955821
0
0.091713051
4.5212256e-15
0.10022811
4.3664754e-15
0.10928442
4.2182891e-15
0.11902852
-8.1475623e-15
0.12960568
0
0.14098864
-3.7979494e-15
0.15320829
0
0.16637521
0
0.18060723
6.8399167e-15
0.19593862
0
0.21221702
0
0.22914958
6.1576478e-15
0.2464123
-5.9473825e-15
0.26366001
0
0.28056461
5.5429877e-15
0.29681291
5.3530377e-15
0.31239017
0
0.32751694
0
0.34234954
0
0.35699461
0
0.37189372
0
0.3882197
0
0.40692281
-8.376997e-15
0.42774057
8.087885e-15
0.44976271
-7.8084457e-15
0.4722838
0
0.49591971
0
0.52351637
0.0050813404
0.55246708
0.068680418
0
0.065085295
-0.0001936906
0.060467896
-0.00036488329
0.055858119
-0.00050345781
0.051728584
-0.00059660768
0.04698986
-0.00062630308
0.041550707
-0.00058837156
0.036029776
-0.00049042194
0.030552046
-0.00034012629
0.024353657
-0.00015994714
0.017530151
0
0.010572211
0
0.0060400098
0
0.00020055049
0.071957346
0.00039563867
0.075543043
0.00057246798
0.078779453
0.00071151012
0.080888161
0.00079571481
0.082386221
0.00081554578
0.083602044
0.00075749205
0.083930093
0.00060611292
0.082935825
0.00035469078
0.080979418
0
0.085752498
0
0.093777134
0
0.10226754
0
0.11140405
-4.0718509e-15
0.12134458
-3.9321939e-15
0.13205296
0
0.14355008
7.3353528e-15
0.15593427
0
0.16928864
0
0.18368857
0
0.19914193
0
0.21545098
2.2500084e-18
0.23231409
0
0.24938689
0
0.26632069
5.5423053e-15
0.28282594
0
0.29868456
8.1622386e-19
0.3139167
0
0.32874342
0
0.34329762
9.3005532e-15
0.35771404
0
0.37244967
-8.6714002e-15
0.38875865
0
0.40747852
0
0.42830171
-2.8738979e-19
0.45024709
7.5349633e-15
0.47267867
0
0.49616005
0.0099156703
0.51874791
0.004627505
0.54772554
0.072094356
0
0.068652255
-0.00019810772
0.064932724
-0.00037740893
0.060214329
-0.00052095476
0.055549773
-0.00062183704
0.05137891
-0.00066762057
0.046608958
-0.00064214222
0.04115202
-0.00054697074
0.035695004
-0.00039578489
0.030347667
-0.00020209648
0.024211171
0
0.016218254
0
0.011334734
0
0.0064991536
-9.9637054e-15
0.0002029003
0.075907168
0.00040068191
0.079412179
0.00057570151
0.08186216
0.00071054547
0.083747893
0.00079421932
0.085389393
0.00081290778
0.08618257
0.0007500568
0.085677817
0.00059663885
0.084298727
0.0003489148
0.082368812
0
0.087687519
0
0.095688587
0
0.10424969
-1.3857707e-18
0.11358524
0
0.12364841
3.7967675e-15
0.1344603
-7.3355491e-15
0.14611437
1.3234871e-18
0.15866495
0
0.17217068
0
0.18672215
6.3745292e-15
0.20227153
-6.1569917e-15
0.21857212
0
0.23531827
5.7371368e-15
0.25216544
5.5390945e-15
0.26875549
-1.2498189e-18
0.28487707
5.1634592e-15
0.30036588
0
0.31527939
0
0.32981699
0
0.34412071
0
0.35832531
0
0.37292937
0
0.38919873
-8.0800289e-15
0.4079446
0
0.42872983
-7.5315751e-15
0.4506605
-7.2736721e-15
0.47296535
0.014665271
0.49166113
0.0090311167
0.5143429
0.0041419526
0.54338741
0.076031017
0
0.072059034
-0.00020036968
0.068477244
-0.0003859611
0.064621043
-0.00053866855
0.059825217
-0.0006433053
0.055125666
-0.00069598061