/*--------------------------------*- C++ -*----------------------------------*\
| =========                 |                                                 |
| \\      /  F ield         | OpenFOAM: The Open Source CFD Toolbox           |
|  \\    /   O peration     | Version:  v2012                                 |
|   \\  /    A nd           | Website:  www.openfoam.com                      |
|    \\/     M anipulation  |                                                 |
\*---------------------------------------------------------------------------*/
FoamFile
{
    version     2.0;
    format      ascii;
    class       volScalarField;
    location    "61.0578017145492424";
    object      p;
}
// * * * * * * * * * * * * * * * * * * * * * * * * * * * * * * * * * * * * * //

dimensions      [0 2 -2 0 0 0 0];


internalField   nonuniform List<scalar> 
9200
(
0.0069633811
0.007011348
0.0053892928
0.0069762236
0.0059957061
0.012131477
0.0073358697
0.0066347047
0.013328683
0.016691966
0.0073271687
0.0081485113
0.014144309
0.017662935
0.021300827
0.0071330119
0.0098424274
0.015778266
0.018627066
0.022232647
0.025204433
0.0067194542
0.012230582
0.017516749
0.020338911
0.023268272
0.026064503
0.028672686
0.0060685653
0.014925042
0.019628254
0.022224065
0.024961023
0.027124061
0.029553591
0.031734915
0.0050102085
0.017706254
0.02182408
0.024449047
0.026842693
0.028769916
0.030572464
0.032564146
0.034441755
0.003813483
0.020383189
0.024016513
0.026807143
0.028978434
0.030624766
0.032177204
0.033606863
0.035202343
0.036798486
0.0016975303
0.022401995
0.02608358
0.029203891
0.031206267
0.032685957
0.033992048
0.035140423
0.03626893
0.037502043
0.03883796
-0.0013583177
0.024479252
0.02797539
0.031549964
0.033433762
0.034832605
0.03596573
0.036924792
0.037743325
0.038590342
0.039491771
0.040585925
-0.0041110581
0.027416712
0.029942012
0.033802217
0.03560174
0.036960113
0.038017948
0.038824348
0.03951138
0.040013756
0.040597539
0.04119397
0.042066547
-0.0068311186
0.030484223
0.032202702
0.03600635
0.037666162
0.039026369
0.040021159
0.040804518
0.041359276
0.041779936
0.041981109
0.042310363
0.042629169
0.043303174
-0.009567322
0.032992402
0.034329
0.038178427
0.039631443
0.040973952
0.041945733
0.04271179
0.04329628
0.04360463
0.043758727
0.043661596
0.043747435
0.043817568
0.044318868
-0.012175449
0.035167062
0.036274413
0.040243101
0.041475894
0.042791597
0.043724774
0.044522643
0.045142149
0.04553742
0.04558988
0.045459722
0.045067355
0.044925328
0.044779463
0.045137757
-0.014521959
0.036967249
0.037977908
0.042105852
0.043158694
0.044457479
0.045346378
0.046158689
0.046874817
0.047374509
0.047561548
0.047322117
0.046887491
0.04620717
0.045860672
0.045536129
0.045784175
-0.01652748
0.03838678
0.039379249
0.043721068
0.044656013
0.045969735
0.04679582
0.047601759
0.048400673
0.049092171
0.049452045
0.049373284
0.048796125
0.048040869
0.047089692
0.046571018
0.046110011
0.046283537
-0.018164078
0.039471824
0.040441541
0.045057265
0.04594692
0.047341446
0.048085037
0.048832995
0.049688426
0.05057892
0.05123754
0.051381377
0.050956812
0.049996682
0.048917246
0.047724965
0.047075991
0.046525068
0.046661242
-0.019564273
0.04022379
0.041184836
0.046178591
0.047036009
0.048587092
0.049237036
0.049861634
0.050704384
0.051783626
0.05278985
0.053327463
0.05313634
0.052279622
0.050904972
0.049515582
0.048126428
0.047397468
0.046806331
0.046943006
-0.020728839
0.04049125
0.041494487
0.047020461
0.047969493
0.049774096
0.05029454
0.050710024
0.051440911
0.052645733
0.054037415
0.055073658
0.055328792
0.054663682
0.053301029
0.051503356
0.049839471
0.048311414
0.047559729
0.046979568
0.047153743
-0.021716574
0.040311666
0.041506739
0.047428928
0.048529751
0.050888287
0.051323137
0.051425021
0.051906474
0.05312523
0.054889865
0.056535024
0.057396559
0.057164849
0.05589423
0.053979899
0.051780272
0.049898713
0.048301621
0.047588778
0.047070681
0.047317666
-0.022564791
0.039554306
0.041060451
0.047490091
0.049212136
0.052071407
0.052338742
0.052055861
0.052131483
0.053194404
0.055268275
0.057599028
0.059253642
0.059657107
0.058729963
0.056754332
0.054282205
0.051733216
0.049710191
0.048122471
0.047512061
0.047105135
0.047457259
-0.02328196
0.038078594
0.040072463
0.047278602
0.049871816
0.053260142
0.053549031
0.052673829
0.052156011
0.052838755
0.055098668
0.058155819
0.060779136
0.06206654
0.061703845
0.059906939
0.057178242
0.054186523
0.05137058
0.049297606
0.047802755
0.047357396
0.047107356
0.047593314
-0.023871591
0.035715795
0.038455939
0.046810238
0.050026383
0.054464907
0.054846361
0.053351296
0.052048737
0.052057039
0.054304736
0.058095018
0.061850372
0.064279074
0.064766314
0.063362134
0.060585929
0.057116675
0.053687298
0.050711752
0.048690838
0.047373291
0.0471524
0.047100127
0.047744479
-0.02448311
0.032255684
0.036148393
0.045949936
0.049716871
0.055795969
0.056247998
0.054150521
0.051858092
0.05086349
0.052814665
0.057286311
0.062337767
0.066180961
0.06782537
0.067102733
0.064462624
0.060678138
0.05654272
0.052795754
0.049786499
0.04792445
0.046865975
0.04692343
0.047104266
0.04792701
-0.025240625
0.027358951
0.03311076
0.044662713
0.048918059
0.057183493
0.057968157
0.055111004
0.05165627
0.04927696
0.050553392
0.055604958
0.062087365
0.067638725
0.07079296
0.071069237
0.068828484
0.064862167
0.060125201
0.055453912
0.051539401
0.048633042
0.047036083
0.04631241
0.046695202
0.04713816
0.048153818
-0.025928385
0.020722773
0.029352044
0.042994571
0.047447866
0.058591461
0.059946163
0.056249853
0.051492486
0.047330911
0.047438048
0.052909709
0.060944191
0.068517088
0.073545109
0.075201222
0.073660504
0.069727319
0.06445815
0.058903312
0.053872107
0.04995967
0.047295848
0.046064704
0.045743095
0.04648996
0.047217536
0.048436228
-0.026346689
0.012324338
0.024958098
0.040956643
0.045066686
0.059978731
0.062140153
0.057549712
0.051386097
0.045063575
0.04338042
0.049030859
0.058735003
0.068639048
0.075968737
0.079417534
0.078933271
0.075287905
0.069636155
0.063195138
0.057023539
0.051840696
0.048108914
0.045823066
0.045049035
0.045186335
0.046327346
0.047355436
0.048785485
-0.026498256
0.0028561976
0.019953793
0.038794985
0.041499219
0.061172823
0.064499822
0.058957547
0.051342725
0.042511458
0.038276392
0.043781297
0.055263077
0.067821252
0.077926364
0.083623619
0.084603321
0.081555925
0.075708823
0.068455428
0.061066605
0.054528931
0.049420673
0.046046785
0.044264181
0.044026103
0.044667671
0.046224018
0.047562596
0.049205993
-0.026230074
-0.0073735227
0.014249163
0.036344237
0.036451623
0.06219409
0.066877209
0.060389929
0.051314344
0.039704233
0.032002779
0.036930254
0.05030405
0.065876345
0.079246932
0.08771743
0.090608092
0.088520298
0.082723232
0.074764642
0.066151654
0.058111531
0.05148943
0.04668562
0.043836774
0.042667747
0.043030037
0.044209337
0.046193558
0.047846734
0.049692468
-0.025146139
-0.018577955
0.0074425862
0.033089317
0.030051665
0.06265562
0.069156419
0.061708723
0.051186827
0.036650234
0.024425401
0.028188308
0.043607042
0.062551057
0.079760895
0.091564832
0.096865446
0.096148088
0.090700036
0.082200588
0.072383446
0.062754482
0.05440849
0.047995182
0.043716781
0.041542783
0.041079509
0.042091291
0.043830065
0.046246306
0.048212225
0.050257233
-0.022388789
-0.031370989
-0.00078403826
0.028111544
0.023126416
0.062715896
0.070949731
0.062726456
0.050826349
0.033293895
0.015399821
0.017205685
0.03489237
0.05758817
0.079239046
0.095022307
0.10326876
0.10437826
0.099632177
0.09081222
0.079864467
0.068578113
0.058349642
0.050066854
0.044149653
0.040597985
0.039226221
0.039541041
0.041236057
0.043544901
0.04639018
0.048662333
0.050932048
-0.018874535
-0.045113478
-0.012043022
0.020894586
0.016227528
0.06183683
0.071991273
0.063148082
0.050100376
0.029628763
0.0048143959
0.0035293011
0.023840067
0.05067962
0.077461471
0.097907754
0.10968835
0.11311505
0.10947537
0.10061615
0.088667034
0.075701465
0.063438816
0.053068196
0.045217491
0.040062383
0.03741131
0.03694381
0.038088753
0.040486068
0.043365382
0.046630797
0.049200378
0.051670922
-0.016354064
-0.058074698
-0.024915845
0.010585741
0.0087268943
0.060414522
0.071348901
0.06259179
0.048743019
0.025419698
-0.0074563885
-0.013410016
0.010042742
0.041415349
0.074061728
0.10004523
0.11595648
0.12222698
0.12014114
0.11158497
0.098828917
0.084213118
0.069800724
0.057119516
0.047074025
0.040002699
0.035842582
0.03423359
0.034745937
0.036753402
0.039858488
0.043299781
0.046970174
0.049825052
0.052356217
-0.015146963
-0.068538018
-0.039247324
-0.0018536055
-9.0657138e-05
0.056966907
0.069734589
0.060259685
0.046606366
0.0206024
-0.021691614
-0.034404628
-0.0069978812
0.029360831
0.068610492
0.10111906
0.12188897
0.13153565
0.13149129
0.12363808
0.11033995
0.094166855
0.077530487
0.062339701
0.049823182
0.040550596
0.034567052
0.031593799
0.03113385
0.032675718
0.035559823
0.039366124
0.043353189
0.047407378
0.050530082
0.053090178
-0.015045958
-0.077236721
-0.054596693
-0.016243347
-0.0096461608
0.051435399
0.063801582
0.056573005
0.043186485
0.014903136
-0.036818837
-0.059064167
-0.02762866
0.014078103
0.060790786
0.10086362
0.12722209
0.14082812
0.1433295
0.13663412
0.1231309
0.1055688
0.086690434
0.068817325
0.053564767
0.041783804
0.03368812
0.029049358
0.027409909
0.028171626
0.030768477
0.034527127
0.039017671
0.04352778
0.04794223
0.051312578
0.053995834
-0.015935101
-0.084461532
-0.069687195
-0.031518349
-0.019681351
0.043564256
0.056741663
0.049200516
0.038651126
0.008250294
-0.053588733
-0.087406212
-0.052305946
-0.0045867122
0.049893285
0.099037918
0.13174564
0.1498326
0.15541028
0.15036426
0.13706584
0.11836457
0.097296208
0.076610597
0.058366978
0.043770906
0.033249831
0.026671833
0.02357656
0.023372357
0.025396131
0.029051911
0.033668967
0.038818213
0.043823459
0.048574859
0.052171642
0.055010217
-0.017552475
-0.089846948
-0.083592357
-0.046795878
-0.029833312
0.033462471
0.045608372
0.040050049
0.03148865
0.00045722609
-0.070952614
-0.11966912
-0.08157133
-0.026825937
0.035341684
0.095251017
0.13510857
0.15828081
0.1674228
0.16455751
0.15193452
0.13243031
0.10930748
0.085734965
0.064268256
0.046544707
0.033279413
0.024467301
0.019672718
0.018259189
0.01954868
0.022846279
0.027546397
0.032994128
0.038769632
0.044238259
0.04930229
0.053106585
0.056109922
-0.019328698
-0.09329974
-0.095888782
-0.061174561
-0.040648577
0.02031374
0.030453408
0.025902269
0.023678837
-0.0066767107
-0.090210191
-0.15289679
-0.11416888
-0.052342775
0.0177284
0.089111059
0.13704916
0.16578462
0.17903677
0.17887184
0.16745599
0.14756672
0.12261584
0.096155249
0.071266392
0.050106144
0.033761157
0.022415071
0.015665864
0.01284024
0.013188918
0.015992351
0.02055111
0.026265765
0.032507076
0.038871018
0.044768321
0.050118632
0.054112163
0.057305622
-0.09497426
-0.020375702
-0.1061279
-0.074327379
-0.052439776
0.0049648235
0.010395996
0.0065138411
0.01225658
-0.012448878
-0.10594366
-0.18698468
-0.15046266
-0.080533575
-0.0022543927
0.080738324
0.1371658
0.17203577
0.18981978
0.19293016
0.18327571
0.16349983
0.13704039
0.10777373
0.079316443
0.054414492
0.034640251
0.020441276
0.011485554
0.0070474204
0.0062981323
0.0084379312
0.012743318
0.018530777
0.025218019
0.032208518
0.039118966
0.045408381
0.051016721
0.055167238
0.058553856
-0.11389644
-0.094782158
-0.020722969
-0.085760285
-0.065007315
-0.011610103
-0.014047774
-0.017212269
-0.0034567507
-0.020099073
-0.12132618
-0.21556457
-0.19292987
-0.11344674
-0.026321545
0.070221068
0.13527988
0.1765649
0.19943729
0.20628716
0.19899555
0.17988105
0.15232689
0.12042845
0.088316815
0.059392013
0.035815147
0.018421344
0.0069959407
0.00076372874
-0.0012211379
0.0001428897
0.0040596653
0.0098294009
0.01679761
0.024406101
0.03209579
0.039508013
0.046152483
0.05199093
0.05627053
0.059809144
-0.094722877
-0.11889839
-0.092755158
-0.020167354
-0.076675788
-0.028869446
-0.041918704
-0.045645628
-0.023963403
-0.031186622
-0.13577612
-0.24877136
-0.23649572
-0.15298403
-0.054348592
0.057063413
0.13131133
0.17918058
0.20736894
0.21856115
0.21415996
0.19631296
0.16814746
0.13388925
0.098114738
0.064908632
0.037147307
0.016171287
0.0019937863
-0.0062057829
-0.0095243004
-0.0090111345
-0.0055553806
9.0716423e-05
0.0072678889
0.015357187
0.023828386
0.032163342
0.040031446
0.046993684
0.053036764
0.057437237
0.061072369
-0.085699149
-0.10047961
-0.12084606
-0.088671307
-0.0184962
-0.046869612
-0.072117175
-0.078561805
-0.049477126
-0.045453243
-0.15040761
-0.28082979
-0.29010089
-0.19598956
-0.08333601
0.041341755
0.12500841
0.17946318
0.21349861
0.22924001
0.22834646
0.21233927
0.18412347
0.14785817
0.10849622
0.070798333
0.038443316
0.01346205
-0.0038011894
-0.014142326
-0.01885556
-0.019206107
-0.016231513
-0.01075026
-0.0034467378
0.005067057
0.014209072
0.023479533
0.032403859
0.040682123
0.047923592
0.054135366
0.058641876
0.062343541
-0.065465409
-0.091697715
-0.10271876
-0.11956845
-0.082415184
-0.015544891
-0.10487812
-0.11514945
-0.07917812
-0.061741711
-0.16609351
-0.31344841
-0.3439668
-0.25163051
-0.11557747
0.024902162
0.11720974
0.17748095
0.21702155
0.23813394
0.24104598
0.22752687
0.19981311
0.16198756
0.11919298
0.076839122
0.03948935
0.010000522
-0.010733516
-0.023426785
-0.029563715
-0.030719652
-0.028163248
-0.02282528
-0.015415342
-0.0065424973
0.0032272162
0.013347996
0.023352088
0.032809844
0.041451796
0.048934677
0.055285515
0.059880319
0.063622809
-0.13982918
-0.083868153
-0.094089158
-0.10122813
-0.11507223
-0.073943835
-0.011226033
-0.15366676
-0.11186614
-0.079458739
-0.18342019
-0.34722405
-0.39971406
-0.31018103
-0.15903901
-0.00042388014
0.10929744
0.1737167
0.21860188
0.24451809
0.25199951
0.24136355
0.21479457
0.1758661
0.12989118
0.082778307
0.040012769
0.0054767277
-0.019231523
-0.034533454
-0.042120934
-0.043947774
-0.041641904
-0.036327005
-0.028764019
-0.019540517
-0.0091964346
0.0017427413
0.012766002
0.02343798
0.033372977
0.042328162
0.050015299
0.05647884
0.061147998
0.064910892
-0.19255538
-0.17544117
-0.10092886
-0.091779008
-0.096027067
-0.10746015
-0.063281882
-0.0058817307
-0.1448716
-0.097815027
-0.20262902
-0.3779066
-0.45415941
-0.37173079
-0.20638484
-0.034673299
0.090786966
0.17002427
0.21719829
0.24910621
0.26056105
0.25356052
0.2285552
0.18909931
0.14022116
0.088322192
0.039742549
-0.00049260235
-0.02975406
-0.048048669
-0.05712768
-0.059431026
-0.05708341
-0.051539608
-0.043670047
-0.034041727
-0.023128681
-0.011415865
0.00060518023
0.012454377
0.023727268
0.034080268
0.043298915
0.051157619
0.057713068
0.062441879
0.06620674
-0.17597157
-0.23020204
-0.20789251
-0.11622145
-0.084049001
-0.087594177
-0.097076627
-0.050316059
-2.9134981e-05
-0.11606561
-0.22226262
-0.40175231
-0.50403299
-0.43246062
-0.25618434
-0.073509072
0.066867612
0.1556886
0.21576465
0.24990577
0.26712612
0.26346216
0.24080803
0.20118939
0.14982814
0.093142309
0.03836351
-0.0082513799
-0.042860377
-0.064628446
-0.075330946
-0.077870087
-0.075061735
-0.068868374
-0.060391768
-0.050197252
-0.03866907
-0.026191741
-0.013211632
-0.00019511998
0.012402022
0.024203758
0.034913364
0.044353954
0.052361634
0.058987593
0.063753706
0.067501924
-0.13427959
-0.20477836
-0.26373614
-0.23547902
-0.12979281
-0.071998479
-0.076872493
-0.084041584
-0.034976529
0.0058588626
-0.24061527
-0.41778598
-0.54533451
-0.48876257
-0.30643014
-0.11510354
0.038078398
0.13795881
0.2046735
0.25180791
0.26990917
0.2714462
0.25084714
0.21187176
0.15825167
0.096926211
0.035568745
-0.018216922
-0.059046156
-0.085065409
-0.097611579
-0.10015137
-0.096333056
-0.088878954
-0.079294518
-0.068225118
-0.055936116
-0.042667893
-0.02874563
-0.014595455
-0.00067179499
0.012589963
0.024845447
0.03585993
0.045496195
0.053630238
0.060290188
0.065066118
0.06877868
-0.25262263
-0.15387625
-0.2297228
-0.29052337
-0.25669539
-0.14106862
-0.057820618
-0.064397868
-0.068381735
-0.017532547
0.011569781
-0.42437467
-0.57428201
-0.53656754
-0.35288749
-0.15877729
0.0064133538
0.11534498
0.1908581
0.2407416
0.27278375
0.27562022
0.25911829
0.2204072
0.16526784
0.099271665
0.031063626
-0.030720672
-0.078944752
-0.11010891
-0.12503129
-0.12736653
-0.12187314
-0.11232605
-0.10089277
-0.088425222
-0.075098207
-0.060926583
-0.046064479
-0.030805961
-0.015582533
-0.00084813831
0.012990527
0.025637885
0.036927573
0.046733236
0.054943813
0.061589279
0.066368512
0.070030395
-0.42000811
-0.25172387
-0.17284719
-0.24700135
-0.30871318
-0.27033505
-0.14765635
-0.042352174
-0.051083085
-0.049973737
0.0016480849
0.017422383
-0.58760916
-0.57164535
-0.39327856
-0.20334946
-0.028085954
0.08971358
0.17176295
0.23103433
0.26638558
0.28015874
0.26347842
0.22731839
0.17013841
0.10000845
0.024512831
-0.046123888
-0.10298836
-0.14072996
-0.15869749
-0.16084062
-0.15292104
-0.14020269
-0.1258803
-0.11122492
-0.096371143
-0.081083869
-0.065211189
-0.048883168
-0.032390448
-0.016198663
-0.00075698646
0.013586609
0.02659363
0.038129865
0.048036718
0.056245869
0.062866042
0.06768678
0.071339509
-0.58290541
-0.4034845
-0.24068088
-0.18687405
-0.25392021
-0.31716227
-0.27590346
-0.14874115
-0.025484569
-0.037486035
-0.029793584
0.021397968
0.023092391
-0.59019672
-0.42575974
-0.24448004
-0.06414216
0.060390553
0.1495664
0.21490682
0.26066571
0.27491244
0.26866999
0.23019889
0.17348553
0.098450345
0.015791074
-0.064711357
-0.13177601
-0.17758544
-0.20001502
-0.20209736
-0.19101094
-0.17379662
-0.15518634
-0.13720295
-0.12006975
-0.10326729
-0.086255542
-0.068827703
-0.051148567
-0.033528585
-0.016484422
-0.00041715296
0.014397368
0.027733433
0.039426556
0.049319824
0.057505295
0.064175995
0.069144589
0.07274674
-0.58945322
-0.55820254
-0.37586093
-0.22391198
-0.19408021
-0.25032507
-0.3161409
-0.27386093
-0.14536253
-0.0080071515
-0.023104748
-0.0091762475
0.039528733
0.029442895
-0.4471887
-0.27671131
-0.10007973
0.028020103
0.12284588
0.19527355
0.24747581
0.27499171
0.26396768
0.23441486
0.17268687
0.095324854
0.004329779
-0.086639353
-0.1655809
-0.22176092
-0.25007602
-0.25300536
-0.23802727
-0.21474331
-0.19003561
-0.16714933
-0.14661623
-0.12765411
-0.10924592
-0.090682197
-0.071809996
-0.052882968
-0.034271264
-0.016462132
0.00019878623
0.015452463
0.029002767
0.0406911
0.050535793
0.05883344
0.065717638
0.070669825
0.074253569
-0.45532872
-0.56806941
-0.51574941
-0.33684308
-0.20087051
-0.1943923
-0.23995314
-0.30683307
-0.26514088
-0.13823153
0.0085756437
-0.0072808608
0.0097879615
0.057694083
0.036673437
-0.29798294
-0.13392603
-0.006920206
0.091959648
0.17030295
0.22967709
0.26618873
0.26976206
0.22950873
0.17370386
0.087905025
-0.0090786327
-0.11229527
-0.2048202
-0.27357889
-0.31072628
-0.3153527
-0.29623498
-0.26511234
-0.23202058
-0.20212028
-0.1766028
-0.15449232
-0.13419904
-0.1144084
-0.094422209
-0.074227511
-0.054159114
-0.03464254
-0.01609457
0.0011310292
0.016680104
0.030227351
0.041857651
0.05186207
0.060566716
0.067284693
0.072256945
0.075828853
-0.30604726
-0.44881207
-0.52835167
-0.45839671
-0.28873188
-0.17169563
-0.18453922
-0.22620738
-0.29052874
-0.25065747
-0.12745433
0.023411145
0.008257126
0.029587729
0.075652161
0.044968146
-0.16440642
-0.043493523
0.056764428
0.13992166
0.20636986
0.2502268
0.26627797
0.2407893
0.16744252
0.082653966
-0.027069557
-0.14095232
-0.24962095
-0.3341702
-0.38253009
-0.39190065
-0.36824306
-0.32741433
-0.28316282
-0.24351967
-0.21083013
-0.18414202
-0.16119253
-0.13988841
-0.1188364
-0.097539469
-0.076125474
-0.055002423
-0.034591667
-0.01532821
0.0022875917
0.017848655
0.031318177
0.043192899
0.053810274
0.062279044
0.068933988
0.073895023
0.077448151
-0.19104564
-0.30332204
-0.42839825
-0.47396751
-0.39169584
-0.23502505
-0.13817615
-0.16293664
-0.21006718
-0.26898261
-0.23042041
-0.11562829
0.036854361
0.024652139
0.049416627
0.092231299
0.054283095
-0.080698552
0.01754044
0.10381747
0.17617291
0.22875559
0.25285726
0.24294078
0.18369202
0.073273348
-0.042949415
-0.17486742
-0.29971378
-0.40322293
-0.46802606
-0.48394045
-0.45757529
-0.40486631
-0.34601552
-0.29311783
-0.25040501
-0.21709735
-0.19034824
-0.16702173
-0.14485738
-0.12263224
-0.1001067
-0.07753229
-0.055345986
-0.034049512
-0.014277835
0.0033698524
0.018842123
0.032647826
0.045446955
0.055671649
0.064094348
0.070635268
0.075586109
0.079115715
-0.11781671
-0.21373504
-0.29579077
-0.39669086
-0.41146946
-0.32210758
-0.1794782
-0.10132083
-0.13213381
-0.19033287
-0.24203825
-0.20993671
-0.10044088
0.047396405
0.04091056
0.067960305
0.1063426
0.0641252
-0.025291398
0.061617178
0.13856864
0.19913146
0.23290136
0.23280265
0.19118449
0.093436075
-0.058221448
-0.20764609
-0.35651632
-0.48189239
-0.56631462
-0.59617322
-0.56690787
-0.50134526
-0.42389491
-0.35324909
-0.29675631
-0.254091
-0.22184976
-0.19571193
-0.17222912
-0.14925084
-0.12589734
-0.10215263
-0.078363438
-0.05510052
-0.033156158
-0.013318864
0.0042307055
0.020161761
0.03526495
0.047537418
0.05766954
0.065954526
0.072396706
0.077327984
0.080829627
-0.071466435
-0.15470975
-0.2313158
-0.2863619
-0.35782765
-0.34745049
-0.25430933
-0.12584469
-0.062953322
-0.099541294
-0.16597508
-0.21656988
-0.18441745
-0.083076558
0.055327013
0.056432208
0.0839397
0.11665057
0.073917385
0.013076756
0.092609355
0.15988643
0.20417605
0.21429448
0.18477121
0.10543149
-0.036253384
-0.23315388
-0.41479036
-0.56959075
-0.68166044
-0.72747762
-0.7031755
-0.62123834
-0.52068387
-0.42685988
-0.35169058
-0.29619975
-0.25594909
-0.22581422
-0.20062727
-0.1770062
-0.15319178
-0.12865473
-0.10356876
-0.078507019
-0.054432222
-0.032373153
-0.012633103
0.0055219569
0.023229417
0.037628407
0.049802881
0.059705048
0.067877178
0.07421382
0.079119188
0.08258829
-0.042278511
-0.12116299
-0.19007853
-0.24443351
-0.27642037
-0.31532951
-0.28670987
-0.19110899
-0.07698847
-0.02470399
-0.070734364
-0.14421018
-0.18706183
-0.15755414
-0.063724252
0.061393587
0.070401976
0.096675022
0.1215059
0.083129028
0.037220539
0.109547
0.16363667
0.18629193
0.16814865
0.10248701
-0.021372665
-0.21353021
-0.45711866
-0.6641982
-0.80908928
-0.88725562
-0.86598635
-0.77234444
-0.64192909
-0.51762679
-0.41737318
-0.34470501
-0.29322477
-0.25721166
-0.22963134
-0.20539531
-0.18151684
-0.15670635
-0.13076496
-0.10421274
-0.078155692
-0.053896348
-0.031920107
-0.011393722
0.0091209662
0.025942362
0.040217156
0.052090913
0.06180893
0.069855488
0.076084857
0.080957351
0.0843904
-0.029071027
-0.10569166
-0.17368609
-0.22410873
-0.25509047
-0.26698922
-0.27423145
-0.23150494
-0.13567793
-0.033840758
0.0094069864
-0.04527246
-0.12126923
-0.15560981
-0.12870772
-0.045249104
0.0659869
0.081778085
0.1053151
0.11910344
0.090591461
0.045924105
0.10905954
0.14491849
0.14083663
0.087994332
-0.021852859
-0.19882801
-0.44782998
-0.73246289
-0.95466194
-1.0643276
-1.0710696
-0.95620518
-0.79431514
-0.63087411
-0.49744007
-0.39964279
-0.33415578
-0.28985172
-0.25876717
-0.23376878
-0.21024069
-0.18579206
-0.15962225
-0.13204806
-0.1042994
-0.077963925
-0.053752093
-0.03077116
-0.0071751131
0.012256632
0.028940161
0.042809116
0.054450272
0.063970322
0.071888343
0.07800606
0.082840204
0.086234775
-0.033682244
-0.109113
-0.17743785
-0.2300098
-0.25823485
-0.26661567
-0.25790458
-0.23868754
-0.18343258
-0.089569002
1.2428784e-05
0.042035027
-0.025016519
-0.097051973
-0.12289021
-0.098409876
-0.027635644
0.069001212
0.089232802
0.10922411
0.10849719
0.092234401
0.037142224
0.087003199
0.098820715
0.06174579
-0.034934942
-0.19865181
-0.43926266
-0.74713449
-1.0621481
-1.2814215
-1.3025696
-1.1933909
-0.98276381
-0.77142549
-0.59570511
-0.46619193
-0.37932491
-0.32374012
-0.28751166
-0.26134539
-0.23854312
-0.21520543
-0.18962121
-0.16171173
-0.13273351
-0.10458263
-0.078230796
-0.052750883
-0.025850353
-0.0035314089
0.015749176
0.031913649
0.045476189
0.056865555
0.066188556
0.073970855
0.079974184
0.084766737
0.088119832
-0.056089038
-0.13400408
-0.20473947
-0.25955931
-0.29068682
-0.29399749
-0.27959531
-0.24932872
-0.20981384
-0.14659315
-0.059322602
0.032478674
0.06247776
-0.0051312503
-0.072789138
-0.090338492
-0.069957807
-0.011001226
0.070445768
0.092639727
0.10819632
0.093533019
0.084691104
0.008624362
0.038383369
0.019589773
-0.060427407
-0.21190752
-0.44191723
-0.75558548
-1.1240844
-1.4522952
-1.6056595
-1.4662516
-1.2271899
-0.94820904
-0.71472429
-0.54509133
-0.43080735
-0.35902811
-0.31534369
-0.28721842
-0.26540844
-0.24402084
-0.22003588
-0.19271652
-0.16320551
-0.13366884
-0.10539848
-0.077463626
-0.047057205
-0.021608297
0.0005537931
0.019182169
0.034964291
0.048196859
0.059337553
0.068456972
0.076099093
0.081988396
0.086737522
0.090042033
-0.095029658
-0.17707007
-0.2591483
-0.32019518
-0.35419271
-0.35613307
-0.33131049
-0.29244356
-0.24345264
-0.19041855
-0.12081931
-0.0267162
0.054208422
0.079898096
0.014142845
-0.048864226
-0.059996425
-0.045662357
0.0039362076
0.069929388
0.092104917
0.10298916
0.078431529
0.072136514
-0.04449821
-0.042518165
-0.10233752
-0.23809237
-0.45811219
-0.76898486
-1.1694108
-1.6110898
-1.8756524
-1.8380069
-1.510808
-1.1728183
-0.86582835
-0.64006155
-0.48964128
-0.39634352
-0.34186862
-0.31040307
-0.2896266
-0.27107001
-0.24990397
-0.22436813
-0.19528885
-0.16502948
-0.1352207
-0.10499214
-0.070952254
-0.042123621
-0.016826826
0.0045351086
0.022693704
0.038063324
0.050973794
0.061858075
0.070770622
0.078273956
0.084050782
0.088747056
0.091999738
-0.15453448
-0.23154141
-0.33019166
-0.41644872
-0.45924241
-0.46367294
-0.42769045
-0.36990291
-0.30719019
-0.2439327
-0.17888135
-0.093111627
-0.0014805156
0.073093703
0.09268141
0.031536289
-0.025891345
-0.035149857
-0.025303921
0.016165536
0.068204692
0.088321901
0.094694592
0.064228185
0.059114962
-0.12827945
-0.16496545
-0.28052009
-0.48738915
-0.79586086
-1.2116477
-1.7402957
-2.2181738
-2.2257783
-1.9061983
-1.43586
-1.0482832
-0.75630449
-0.55868536
-0.43632496
-0.36679789
-0.32996005
-0.30984287
-0.29493734
-0.27799159
-0.25573344
-0.22836136
-0.1983156
-0.16756977
-0.13536047
-0.097662132
-0.065236804
-0.036539164
-0.012202704
0.0085952841
0.026246123
0.041216316
0.053796996
0.064421496
0.07313201
0.080503351
0.086148638
0.090793351
0.09399104
-0.24126433
-0.29953734
-0.40701655
-0.52833758
-0.61221524
-0.62487252
-0.59035919
-0.50744252
-0.41279696
-0.32877555
-0.25016613
-0.16174437
-0.069916061
0.021111184
0.086368956
0.098920427
0.045065795
-0.0059339803
-0.016188514
-0.00810357
0.025294709
0.065547366
0.081965371
0.084204493
0.051825136
0.046914172
-0.25184224
-0.34330846
-0.53202323
-0.83560493
-1.2712867
-1.8616448
-2.5373362
-2.8123619
-2.377039
-1.8142171
-1.2708254
-0.89215972
-0.63886521
-0.4805241
-0.39022343
-0.34493565
-0.32464071
-0.31400054
-0.30278367
-0.28559869
-0.26157319
-0.23300205
-0.20218457
-0.16851976
-0.12728075
-0.091086502
-0.058746049
-0.031173794
-0.0074999716
0.012686113
0.029848901
0.044411576
0.056660285
0.067032982
0.075554838
0.082767816
0.088279822
0.092872577
0.09601442
-0.36526861
-0.38800394
-0.4839446
-0.63241012
-0.77802008
-0.85190172
-0.82002205
-0.73794699
-0.59832801
-0.46620045
-0.35699819
-0.24573075
-0.14575214
-0.048899022
0.037504806
0.093965594
0.10011034
0.053789755
0.0091462571
-0.0018601395
0.00507985
0.03125851
0.06151167
0.073999255
0.072356278
0.041218735
0.036394225
-0.42977505
-0.59586292
-0.88844082
-1.346142
-2.0133684
-2.8733293
-3.4514549
-3.1371392
-2.2796833
-1.5830194
-1.0631652
-0.73206714
-0.52820147
-0.41254398
-0.35482813
-0.33252865
-0.32647273
-0.32250809
-0.31245519
-0.2938039
-0.2683573
-0.23865318
-0.20431691
-0.15985929
-0.11979069
-0.083598854
-0.052541705
-0.025729769
-0.0027791256
0.016822269
0.033488778
0.0476427
0.059571898
0.069714659
0.07800968
0.085066512
0.090439688
0.094982291
0.098067801
-0.54113374
-0.50942521
-0.57010205
-0.7173318
-0.91543748
-1.0849838
-1.1402789
-1.0518853
-0.90380086
-0.7046787
-0.52961966
-0.36856461
-0.23984021
-0.12994591
-0.032058088
0.048836716
0.096303999
0.097517247
0.057463775
0.019450913
0.008524578
0.014433684
0.034688314
0.057183785
0.065319323
0.060691338
0.032360919
0.027772601
-0.68218223
-0.95738272
-1.4321286
-2.1869252
-3.2544892
-4.194869
-4.0392758
-3.0936152
-1.9850048
-1.2815859
-0.84923403
-0.58367536
-0.43260509
-0.35920626
-0.33242908
-0.33043731
-0.33514789
-0.33450497
-0.32364568
-0.30340596
-0.27638731
-0.24248062
-0.19538682
-0.15144048
-0.11124127
-0.076465305
-0.04625666
-0.020281625
0.0019811797
0.020989151
0.037159566
0.050921632
0.06256394
0.072426172
0.08049628
0.087392478
0.09262696
0.097119749
0.10014728
-0.7908615
-0.67942783
-0.68253535
-0.79428982
-1.0048597
-1.2595278
-1.4511126
-1.4782431
-1.316979
-1.0854373
-0.82644041
-0.57044889
-0.37582306
-0.2315208
-0.1163823
-0.019155407
0.054945771
0.094057695
0.091435873
0.057078584
0.025796183
0.015834214
0.020669533
0.036060939
0.052352727
0.056507094
0.049932967
0.025076867
0.020907019
-1.0455925
-1.5295351
-2.3630944
-3.6635087
-5.0011043
-5.192926
-4.1298346
-2.7353315
-1.584353
-0.97903869
-0.65132081
-0.45518186
-0.3566869
-0.32323935
-0.3242808
-0.33850523
-0.34965928
-0.34939206
-0.33691461
-0.31459468
-0.28260306
-0.23378014
-0.18608778
-0.14180675
-0.10310491
-0.069243995
-0.039980996
-0.014799813
0.0067653545
0.025181316
0.040877605
0.054292454
0.065583273
0.075168631
0.083006073
0.089745179
0.094840424
0.099279069
0.10224797
-1.1519561
-0.92186289
-0.83939195
-0.88807789
-1.0618211
-1.3457544
-1.662538
-1.8703228
-1.8587471
-1.5992152
-1.2882911
-0.92245955
-0.59797992
-0.37806697
-0.22338856
-0.10491603
-0.010614172
0.056140048
0.087548679
0.082492669
0.054017204
0.028825934
0.02012309
0.024428594
0.035731106
0.046982259
0.048059446
0.040375457
0.019164658
0.015570194
-1.6329419
-2.5365286
-4.0409177
-5.8277335
-6.5457136
-5.5074414
-3.7872626
-2.196292
-1.1924186
-0.7119183
-0.4810268
-0.35152698
-0.30320453
-0.30623739
-0.33050776
-0.35560678
-0.3690264
-0.36736707
-0.35226966
-0.32412305
-0.27487504
-0.22373842
-0.1754117
-0.13262217
-0.094863878
-0.06204172
-0.033675469
-0.0093004256
0.011569471
0.029420084
0.044701048
0.057688249
0.068631779
0.077931255
0.0855405
0.09212489
0.097071939
0.10145054
0.10436968
-1.7312555
-1.2755868
-1.0649532
-1.0218923
-1.1234033
-1.3670586
-1.7322919
-2.1091736
-2.3295539
-2.2597582
-1.9029977
-1.4693636
-0.98230545
-0.61883487
-0.37847313
-0.21497454
-0.096028817