/*--------------------------------*- C++ -*----------------------------------*\
| =========                 |                                                 |
| \\      /  F ield         | OpenFOAM: The Open Source CFD Toolbox           |
|  \\    /   O peration     | Version:  v2012                                 |
|   \\  /    A nd           | Website:  www.openfoam.com                      |
|    \\/     M anipulation  |                                                 |
\*---------------------------------------------------------------------------*/
FoamFile
{
    version     2.0;
    format      ascii;
    class       surfaceScalarField;
    location    "61.0578017145492424";
    object      phi;
}
// * * * * * * * * * * * * * * * * * * * * * * * * * * * * * * * * * * * * * //

dimensions      [0 3 -1 0 0 0 0];
oriented        oriented;


internalField   nonuniform List<scalar> 
18180
(
-0.024889512
-3.4590535
-0.048565148
-3.2262841
-0.015508604
-3.4856718
-0.06961383
-3.0050542
-0.029291503
-3.2509377
-0.0116361
-3.5126906
-0.088150571
-2.7932424
-0.040655742
-3.0283935
-0.021513699
-3.2762545
-0.0075587406
-3.5401895
-0.10327084
-2.5927008
-0.049236084
-2.8158934
-0.029481919
-3.0521637
-0.013711266
-3.302727
-0.0046116908
-3.5682989
-0.11410545
-2.40358
-0.054509186
-2.6160685
-0.035011407
-2.8393644
-0.018213195
-3.0778673
-0.0080936747
-3.3299544
-0.0022751989
-3.5961751
-0.11961942
-2.2263008
-0.056176218
-2.4285058
-0.037751017
-2.6400088
-0.020600028
-2.8648133
-0.010222883
-3.1046219
-0.0037012544
-3.3571264
-0.00047678653
-3.6237791
-0.11898735
-2.0607212
-0.053977447
-2.2532544
-0.037370639
-2.4536483
-0.02065431
-2.6656356
-0.010621066
-2.8914323
-0.0040333419
-3.1315476
-0.00036164517
-3.3838587
0.00089959384
-3.6504493
-0.11147256
-1.9070253
-0.047656568
-2.0901953
-0.033641625
-2.2802161
-0.018221854
-2.4799064
-0.0091494989
-2.6922575
-0.0029778742
-2.9184208
0.00063150499
-3.157979
0.0022098019
-3.4096722
0.0019259718
-3.6763529
-0.096867182
-1.765093
-0.037151444
-1.9392024
-0.026561745
-2.119133
-0.013312679
-2.3074143
-0.0057414076
-2.5067251
-0.00044536272
-2.7192252
0.0027054157
-2.9447694
0.0041865357
-3.1834172
0.0042007844
-3.434633
0.0027445867
-3.7011153
-0.075349454
-1.6348904
-0.022498294
-1.8000365
-0.016381563
-1.9699544
-0.0060734252
-2.1473459
-0.00046827451
-2.3344582
0.0035777511
-2.533562
0.0059287591
-2.7455347
0.0070073761
-2.9700853
0.0069169725
-3.2077868
0.0057393836
-3.4585136
0.0033928493
-3.7249469
-0.04746493
-1.5161656
-0.0040054374
-1.6723742
-0.003601301
-1.8321482
0.0032206412
-1.9990295
0.0064967709
-2.1746923
0.0089881398
-2.3612261
0.010289753
-2.5597595
0.010699788
-2.7706841
0.010283317
-2.9941823
0.0090286379
-3.2310495
0.0069284778
-3.4813631
0.0038866576
-3.7475313
-0.014004605
-1.407848
0.016964667
-1.5549037
0.010988255
-1.7050951
0.014178421
-1.8617735
0.014869639
-2.0265965
0.015606676
-2.2013069
0.015684436
-2.3870588
0.015252774
-2.5845794
0.014298552
-2.7944965
0.012799047
-3.0170994
0.010658917
-3.2531791
0.0078359338
-3.5030533
0.0042489691
-3.7691448
0.023453902
-1.309249
0.039523506
-1.4470177
0.027185013
-1.5880773
0.026372424
-1.7348861
0.024290906
-1.8892763
0.023180485
-2.0528946
0.021959194
-2.2266566
0.020573039
-2.4113633
0.018952685
-2.6079868
0.017041933
-2.8170698
0.014733195
-3.0388006
0.01190243
-3.2742012
0.0085087972
-3.523705
0.0045016131
-3.7895518
0.063229999
-1.2196851
0.063199846
-1.3484401
0.044778997
-1.4804843
0.039389784
-1.6176671
0.034360916
-1.7619906
0.031415491
-1.9151167
0.028912218
-2.0777479
0.026539896
-2.2503885
0.024167289
-2.4342807
0.021742698
-2.630268
0.019140115
-2.8384825
0.0162076
-3.0594147
0.012825039
-3.2941652
0.0089808364
-3.5432676
0.0046601551
-3.8089503
0.10375215
-1.1382333
0.087456102
-1.2584159
0.06312274
-1.3816048
0.05272097
-1.5094155
0.044672201
-1.6440112
0.03999268
-1.7871417
0.036319943
-1.939408
0.033007795
-2.1009314
0.02985114
-2.2727841
0.026833548
-2.4561575
0.023856725
-2.6513809
0.020736463
-2.8587744
0.017304764
-3.0789661
0.013474059
-3.3131068
0.0092780996
-3.5617931
0.0047368182
-3.8271425
0.14380386
-1.0639991
0.11179316
-1.1760612
0.081567535
-1.2906881
0.065871319
-1.4094411
0.054823129
-1.5346459
0.048582119
-1.6681933
0.043949189
-1.8107408
0.039828735
-1.9620243
0.035905792
-2.1226866
0.032241355
-2.2940811
0.028818113
-2.4768912
0.025456739
-2.6713702
0.021927972
-2.8780027
0.018082024
-3.0975124
0.013885012
-3.3309916
0.0094224068
-3.5792414
0.0047428024
-3.8443547
0.18249762
-0.99611506
0.13578745
-1.1005554
0.099636224
-1.2070238
0.078415167
-1.3170644
0.064417004
-1.4332117
0.056849175
-1.5575624
0.051568503
-1.6909296
0.046863087
-1.8327439
0.042245591
-1.9831426
0.037896902
-2.1433762
0.033955104
-2.314323
0.030298487
-2.4964559
0.026653998
-2.6902656
0.022780867
-2.8962243
0.018580851
-3.1150172
0.014086822
-3.3478863
0.0094334164
-3.5956807
0.0046885011
-3.8604407
0.21930273
-0.9337275
0.15913034
-1.0311456
0.11699485
-1.1299346
0.089999235
-1.2316481
0.073083409
-1.3390613
0.064470827
-1.4545749
0.058953043
-1.5792437
0.053987225
-1.7122655
0.048808209
-1.8532661
0.043752575
-2.0031519
0.039206039
-2.1629095
0.035184628
-2.3332698
0.031403696
-2.51489
0.02752442
-2.7081684
0.023340815
-2.9134568
0.018833417
-3.1315978
0.014104822
-3.3638048
0.0093294763
-3.6111157
0.0045834672
-3.8755594
0.25390799
-0.8761019
0.18175623
-0.96722111
0.13342688
-1.0587832
0.10033407
-1.1525769
0.080481373
-1.2515861
0.071144674
-1.3586041
0.065888895
-1.4750159
0.061097868
-1.5998457
0.055562266
-1.7321994
0.049793899
-1.8725784
0.044532957
-2.0218867
0.040042875
-2.1810654
0.036085576
-2.3510334
0.032224654
-2.5323314
0.028117791
-2.7251142
0.023640393
-2.9297942
0.01886673
-3.1472628
0.01396233
-3.3788021
0.0091276968
-3.6255673
0.00443643
-3.8895967
0.28620411
-0.82267544
0.20359968
-0.90804716
0.14878556
-0.99302928
0.10921716
-1.0792933
0.086303023
-1.1702025
0.076584348
-1.2690593
0.072169286
-1.3776247
0.068114315
-1.4948334
0.062511177
-1.6192413
0.056046928
-1.7509236
0.049932571
-1.8905733
0.044819323
-2.0391818
0.04060538
-2.1980303
0.036774968
-2.3678846
0.032818856
-2.5488894
0.028465143
-2.7412143
0.023704322
-2.9452771
0.018704897
-3.162062
0.013680949
-3.3928387
0.0088439458
-3.639051
0.0042551931
-3.9027201
0.31622794
-0.77296616
0.22475677
-0.85322232
0.16316534
-0.93217842
0.11648938
-1.0112939
0.090326313
-1.0944367
0.080556378
-1.1854149
0.077595141
-1.2864912
0.074972395
-1.3966218
0.0696919
-1.5137562
0.06258229
-1.6375051
0.055444336
-1.7682964
0.049488554
-1.9070462
0.044877486
-2.0552822
0.041057053
-2.2141365
0.03732707
-2.3838931
0.033216046
-2.5646601
0.028584863
-2.7565286
0.023552758
-2.9599476
0.018370015
-3.1759698
0.01328087
-3.4059991
0.0084925205
-3.6516013
0.0040466991
-3.9148557
0.34411091
-0.72655953
0.24535925
-0.80229883
0.17659012
-0.87575688
0.12215556
-0.94824285
0.092363567
-1.0238192
0.082852936
-1.1072307
0.081983259
-1.2011082
0.081631425
-1.3046563
0.077171922
-1.4151648
0.069514586
-1.5317118
0.061155082
-1.6544059
0.054061747
-1.7840115
0.048833632
-1.9221622
0.044950377
-2.0704525
0.041505919
-2.2294491
0.0377742
-2.3992023
0.033424978
-2.5797366
0.028487536
-2.7711126
0.023203144
-2.9738215
0.01788278
-3.1890827
0.012780443
-3.4182789
0.0080863144
-3.6632638
0.0038170533
-3.9261246
0.37003212
-0.68306672
0.26557375
-0.75489367
0.18912814
-0.82335803
0.12616606
-0.88960689
0.092173746
-0.95795692
0.08313328
-1.0339043
0.085085246
-1.120972
0.088051643
-1.2184295
0.085046522
-1.3229383
0.076999415
-1.4329958
0.067200359
-1.5483209
0.058591046
-1.6694647
0.052429009
-1.7981211
0.048338466
-1.9362889
0.045206406
-2.0848978
0.04199497
-2.2441004
0.03811303
-2.4139022
0.033440396
-2.5941828
0.028179502
-2.7849808
0.022671766
-2.9869624
0.017262413
-3.2014005
0.012196586
-3.4297422
0.0076368223
-3.674041
0.0035716416
-3.9364731
0.39411062
-0.64211988
0.28561116
-0.71065855
0.20088372
-0.77462871
0.12852777
-0.83502865
0.089676277
-0.89646838
0.081092505
-0.96507719
0.08686751
-1.0456928
0.094211183
-1.1374512
0.09341954
-1.236579
0.085224693
-1.3408576
0.073762543
-1.4495221
0.063170781
-1.5628625
0.055646312
-1.6826044
0.051113527
-1.8110467
0.04827204
-1.9495935
0.045714276
-2.0986534
0.042508267
-2.2582291
0.038315512
-2.4281012
0.033249606
-2.6080233
0.027666118
-2.7981995
0.021974268
-2.9993906
0.016527221
-3.2129572
0.011544786
-3.4403496
0.0071544675
-3.6839796
0.0033151367
-3.9460146
0.41639143
-0.60349726
0.30569413
-0.66923433
0.21199735
-0.72925184
0.12929528
-0.78419961
0.084809541
-0.83901032
0.076627275
-0.90056745
0.087286805
-0.97489963
0.10011332
-1.0613558
0.10243065
-1.1556328
0.094404589
-1.2548244
0.081064414
-1.3575467
0.067939698
-1.4637113
0.058495636
-1.5750622
0.053179755
-1.6942088
0.050543229
-1.8229929
0.048752626
-1.9622059
0.046446986
-2.1119684
0.042987163
-2.2719988
0.038340076
-2.441843
0.032838569
-2.6213252
0.026953441
-2.8107834
0.021126764
-3.0111129
0.015694842
-3.2237285
0.010839602
-3.450179
0.0066485894
-3.6930886
0.0030515757
-3.954725
0.43698604
-0.56703697
0.32593095
-0.63028243
0.22267273
-0.68692834
0.12854178
-0.7368191
0.07753558
-0.7852924
0.069663971
-0.8400631
0.086128487
-0.9082405
0.10574594
-0.98975527
0.11217168
-1.0796881
0.10476879
-1.1744602
0.08936548
-1.2719579
0.073074715
-1.3715794
0.061018464
-1.4750438
0.054453047
-1.5853142
0.051858963
-1.704656
0.050918188
-1.8342388
0.049745517
-1.9744975
0.04730571
-2.1251369
0.043348916
-2.285515
0.038142424
-2.4551979
0.032195821
-2.6340943
0.026050372
-2.8227346
0.020146315
-3.0221289
0.014782715
-3.2337729
0.010094603
-3.4592153
0.0061276279
-3.7014368
0.0027844738
-3.9626911
0.45602093
-0.53257654
0.34624869
-0.59345589
0.23304921
-0.64725224
0.12632077
-0.69256684
0.067846021
-0.73503915
0.060111715
-0.78325392
0.083203538
-0.84542776
0.11106788
-0.92226774
0.12273336
-1.0083587
0.11653495
-1.0993446
0.098947128
-1.1923431
0.078787355
-1.2860624
0.063280693
-1.3821279
0.054861425
-1.4839111
0.052059852
-1.5941501
0.052009437
-1.7143556
0.052204051
-1.8453074
0.051100162
-1.9868624
0.048151416
-2.1382504
0.043505112
-2.2988274
0.03768311
-2.4681616
0.031316284
-2.6463198
0.024969609
-2.8340355
0.019051547
-3.0324528
0.013808049
-3.2430839
0.0093225854
-3.4675253
0.00559919
-3.7090239
0.0025170013
-3.9699021
0.47353129
-0.49992578
0.36629225
-0.55830898
0.24290378
-0.60951151
0.12260726
-0.6509569
0.055738045
-0.68793193
0.047896084
-0.72987829
0.078384306
-0.78621408
0.11605091
-0.85861392
0.13423305
-0.94129011
0.1299134
-1.029088
0.11010733
-1.1182993
0.085320735
-1.2067777
0.06536866
-1.2959252
0.054344989
-1.3895783
0.050982154
-1.4910187
0.051823961
-1.6021269
0.053612098
-1.7239293
0.054182467
-1.8566152
0.052602487
-1.9994128
0.048834345
-2.1513956
0.043374963
-2.3119378
0.036934052
-2.4807077
0.030203101
-2.6579674
0.023728505
-2.8446863
0.01786246
-3.0420868
0.012787791
-3.2516803
0.0085355463
-3.4750853
0.0050701181
-3.7159144
0.0022522248
-3.9764406
0.48958341
-0.46900011
0.38571542
-0.52466061
0.25183967
-0.57308186
0.11708772
-0.61098877
0.041104839
-0.64337912
0.032970183
-0.67963898
0.071576654
-0.73036822
0.12067597
-0.79855441
0.14675808
-0.87817277
0.14510535
-0.96332429
0.12314956
-1.0494426
0.092942282
-1.1333479
0.067388611
-1.2160709
0.052852437
-1.3019246
0.04846715
-1.3948355
0.050154913
-1.4971009
0.053749284
-1.6099824
0.056352263
-1.7339614
0.056540026
-1.8684068
0.054019142
-2.0122235
0.049215177
-2.1645541
0.04289558
-2.324802
0.035881743
-2.492781
0.028868828
-2.6690211
0.022348594
-2.8546696
0.016600106
-3.0510121
0.011738527
-3.2595553
0.0077445101
-3.4819701
0.0045466021
-3.7221244
0.0019931215
-3.982319
0.49976796
-0.5140967
0.40429466
-0.4925439
0.25964677
-0.53796497
0.10938831
-0.57197608
0.023568392
-0.60010563
0.015307383
-0.63195878
0.062772696
-0.67767634
0.12493331
-0.741866
0.16036536
-0.81873273
0.16228036
-0.90171234
0.13836205
-0.9853934
0.10193983
-1.0654104
0.069459761
-1.1422013
0.050334395
-1.220585
0.044361116
-1.3052006
0.046790103
-1.3988471
0.052396611
-1.5030534
0.057402831
-1.6184705
0.059789766
-1.7446995
0.058932945
-1.8806768
0.055131635
-2.0252943
0.049181439
-2.1776832
0.042027468
-2.3373391
0.034529035
-2.5043444
0.027334658
-2.6794419
0.020854856
-2.8639573
0.015286158
-3.0592393
0.010675889
-3.2667553
0.0069594599
-3.488191
0.0040342498
-3.7277337
0.0017425562
-3.987614
0.51058755
-0.51620457
0.41896877
-0.53419702
0.26644906
-0.50452816
0.099525486
-0.53430812
0.0027569969
-0.55743067
-0.0050346648
-0.58564056
0.052188271
-0.62778412
0.12886601
-0.68839072
0.17509566
-0.76273191
0.18156327
-0.84393125
0.15601042
-0.92578663
0.11260869
-1.0025976
0.07170948
-1.0739646
0.046745559
-1.1451958
0.038504547
-1.2217379
0.041521892
-1.3069581
0.049341324
-1.4026994
0.0571294
-1.5097627
0.062172003
-1.6279012
0.063437474
-1.756201
0.061038727
-1.8934849
0.055759785
-2.0385889
0.048655682
-2.1906764
0.040757101
-2.3494853
0.032893981
-2.5153317
0.025629079
-2.6891855
0.019274736
-2.8725441
0.013941838
-3.0667769
0.0096144348
-3.2733018
0.0061892284
-3.4938154
0.0035381293
-3.7327728
0.0015034438
-3.9923481
0.5216835
-0.51756853
0.43513529
-0.53779594
0.27010388
-0.5435182
0.08803678
-0.49887291
-0.0209634
-0.51648152
-0.027767018
-0.54023335
0.040609353
-0.58006482
0.13273734
-0.63799686
0.19100454
-0.71002717
0.20305908
-0.78972239
0.17632994
-0.87027271
0.12525433
-0.94455656
0.074263252
-1.0109928
0.042035702
-1.0754006
0.030741199
-1.1440857
0.034150083
-1.2210582
0.044377962
-1.3085321
0.055337007
-1.4074758
0.063509155
-1.5177072
0.067387702
-1.6384215
0.06683911
-1.7685885
0.062587592
-1.9068635
0.0557733
-2.0520057
0.047599243
-2.2034389
0.039095403
-2.3611415
0.031007715
-2.525678
0.023786074
-2.6982294
0.017636374
-2.8804252
0.012587484
-3.0736527
0.0085672438
-3.2792215
0.0054413911
-3.498873
0.003062678
-3.7373115
0.0012782213
-3.996584
0.53281953
-0.51823817
0.45258324
-0.54043944
0.27405493
-0.54747839
0.072154367
-0.53393948
-0.046988824
-0.47838135
-0.052423389
-0.49704097
0.02892947
-0.53417428
0.13723884
-0.59048912
0.20818841
-0.66052546
0.22680022
-0.73886665
0.19950137
-0.81853766
0.14020528
-0.89096444
0.077255652
-0.95294827
0.036146612
-1.0108247
0.020910082
-1.0718805
0.024482354
-1.1407925
0.037319737
-1.2201832
0.051848727
-1.311231
0.063634139
-1.4138
0.070637985
-1.5270909
0.072426589
-1.6502276
0.069610703
-1.7819317
0.063378942
-1.9206492
0.055097287
-2.0653907
0.046010349
-2.2158339
0.037074596
-2.3722134
0.028911487
-2.5353364
0.021842327
-2.7065556
0.015967606
-2.8876138
0.01124177
-3.0798661
0.0075457401
-3.284547
0.0047222554
-3.5034317
0.0026111829
-3.7413697
0.0010675274
-4.000349
0.54391672
-0.51837877
0.47092997
-0.54200809
0.27771667
-0.54989906
0.054816828
-0.53650474
-0.080085388
-0.5067717
-0.078516547
-0.45720287
0.017410179
-0.49078233
0.14317294
-0.54563332
0.22680826
-0.61409401
0.25255182
-0.69100278
0.22533356
-0.76999078
0.1576727
-0.84138954
0.080835021
-0.89952502
0.029022
-0.95113471
0.0088633978
-1.0047602
0.012334233
-1.0658018
0.028002663
-1.1373144
0.046515112
-1.2206795
0.062399483
-1.31583
0.073050118
-1.4219247
0.077690648
-1.5381185
0.076764767
-1.6633924
0.071461995
-1.7960736
0.063288517
-1.9346723
0.053709976
-2.0785695
0.04391977
-2.227728
0.034743758
-2.3826224
0.026652514
-2.5442727
0.019835396
-2.7141598
0.014294637
-2.8941028
0.0099213038
-3.0854549
0.0065595291
-3.2893266
0.0040367785
-3.5075204
0.002185895
-3.7450098
0.00087117937
-4.0036817
0.55488321
-0.51796745
0.48958856
-0.54246268
0.28079301
-0.5509489
0.03574103
-0.53724456
-0.11520526
-0.50737618
-0.11360855
-0.47693375
0.0061527172
-0.45086822
0.15064589
-0.50340215
0.24694562
-0.57041823
0.27993888
-0.64585421
0.25284685
-0.72347859
0.17709231
-0.79446653
0.084860121
-0.85000493
0.020614698
-0.89603515
-0.005529889
-0.94240685
-0.0024519979
-0.99575089
0.016292665
-1.0595953
0.039221692
-1.1355086
0.059686738
-1.2234696
0.07450016
-1.3226125
0.08252107
-1.4320673
0.083975995
-1.5509804
0.080000033
-1.6777948
0.072202851
-1.8107128
0.062264785
-1.9486688
0.051636734
-2.0913599
0.041384508
-2.239
0.032162856
-2.3923117
0.024280893
-2.5524605
0.017801544
-2.7210254
0.012641225
-2.8999229
0.0086402839
-3.0904417
0.0056163977
-3.2936023
0.0033886341
-3.511186
0.0017891697
-3.7482408
0.00069167996
-4.0066122
0.56562473
-0.51694513
0.50795972
-0.54176743
0.28290559
-0.55050501
0.014988172
-0.53667233
-0.15157
-0.50692611
-0.1500711
-0.47626601
-0.015846738
-0.46012035
0.15950864
-0.46451772
0.26840613
-0.52919482
0.3083111
-0.602832
0.28135616
-0.6790155
0.19706446
-0.74820498
0.088437591
-0.80227132
0.010517748
-0.84445142
-0.022422699
-0.88450456
-0.020056448
-0.93029817
0.002089011
-0.98672283
0.029899154
-1.0554312
0.055413856
-1.1364311
0.074886203
-1.2288532
0.086813022
-1.3318036
0.091163205
-1.4444409
0.088958542
-1.5654417
0.081860379
-1.6929906
0.071741605
-1.8255455
0.060322388
-1.9624155
0.04894181
-2.1035902
0.038479593
-2.2495624
0.029397965
-2.4012292
0.021846267
-2.5598737
0.015774281
-2.7271771
0.011028041
-2.9050916
0.0074104386
-3.0948771
0.0047223314
-3.2973975
0.0027804283
-3.5144441
0.0014228172
-3.7511151
0.00053042459
-4.0091591
0.57603488
-0.51526321
0.52546376
-0.53988253
0.28372907
-0.54858341
-0.0071310016
-0.5349147
-0.18834892
-0.50598987
-0.18707513
-0.47536272
-0.038650096
-0.4587171
0.15781915
-0.46340233
0.29087671
-0.49102109
0.33694484
-0.56156283
0.31015944
-0.63599273
0.2169965
-0.70342682
0.091353159
-0.7550159
-0.0021738673
-0.79377071
-0.042077668
-0.82986637
-0.040624186
-0.86916207
-0.014693446
-0.91837095
0.018522868
-0.98018429
0.049544476
-1.0544676
0.074134413
-1.1403712
0.090472323
-1.2370254
0.098241692
-1.3435928
0.09828985
-1.4588488
0.092267156
-1.5810976
0.082199651
-1.7086307
0.070074002
-1.840295
0.057530759
-1.9756926
0.04571737
-2.1151336
0.035291072
-2.2593328
0.026516289
-2.4093335
0.019395359
-2.5665244
0.013783229
-2.7326277
0.0094724237
-2.9096531
0.0062409611
-3.0987772
0.003881668
-3.3007487
0.0022138108
-3.5173397
0.0010860018
-3.7536158
0.00038423405
-4.0113525
0.58602179
-0.51283858
0.54163782
-0.53687578
0.28313076
-0.54533571
-0.030122834
-0.5321702
-0.22459096
-0.50481375
-0.22398361
-0.47459942
-0.062439321
-0.45688773
0.15758375
-0.46349141
0.30417858
-0.48086764
0.36535342
-0.52288199
0.33856689
-0.59404488
0.23667898
-0.6599017
0.093262944
-0.70893301
-0.017078538
-0.7439737
-0.064645935
-0.77599044
-0.064039691
-0.81141496
-0.034095618
-0.85430118
0.0051305166
-0.90950444
0.042089216
-0.97736308
0.072205756
-1.0569486
0.093419691
-1.1474878
0.10512361
-1.2482067
0.10793193
-1.3578739
0.1034118
-1.4748428
0.093685589
-1.5974838
0.080985202
-1.7244054
0.067270901
-1.8546949
0.054000534
-1.9883186
0.042073797
-2.1258681
0.031908847
-2.2682481
0.023582263
-2.4166199
0.016970107
-2.5724203
0.01185357
-2.7374154
0.0079881992
-2.9136324
0.0051386919
-3.1021917
0.0030971849
-3.3036889
0.0016894486
-3.5198739
0.00077663157
-3.7557903
0.00024995007
-4.013198
-0.5094814
0.59559266
0.55616138
-0.53280612
0.28104936
-0.54090028
-0.053390399
-0.52869341
-0.25958193
-0.50335926
-0.26015627
-0.47422434
-0.08710787
-0.45529355
0.15784003
-0.46217904
0.32062937
-0.48414725
0.38699603
-0.50604581
0.36613968
-0.55426521
0.25600655
-0.61736107
0.096322343
-0.66629112
-0.032811775
-0.69675632
-0.089769982
-0.72336524
-0.08949253
-0.75524932
-0.055765282
-0.79398295
-0.010221089
-0.84317238
0.03311756
-0.90491017
0.069096994
-0.97840431
0.095595252
-1.0629782
0.11172244
-1.158017
0.11780932
-1.2623136
0.11526291
-1.3741614
0.10622837
-1.4919455
0.093140903
-1.6142816
0.07828313
-1.7399839
0.063461536
-1.8685047
0.049870828
-2.0001282
0.038129732
-2.135702
0.028420767
-2.2762816
0.020654578
-2.4230899
0.014606587
-2.577591
0.010005674
-2.7415634
0.0065858668
-2.9170802
0.0041082823
-3.1051508
0.002370306
-3.3062554
0.0012071728
-3.5220834
0.00049333213
-3.7576112
0.00012224342
-4.0147215
-0.52772922
0.56895978
-0.50483663
0.60487218
0.27751315
-0.53542456
-0.076346633
-0.52461254
-0.2927777
-0.50171048
-0.29484782
-0.47430365
-0.11225609
-0.45447615
0.15787091
-0.4603779
0.33947145
-0.4852557
0.41148219
-0.51222092
0.39270889
-0.53652536
0.27473209
-0.57674437
0.10073628
-0.62487269
-0.047673833
-0.65470623
-0.11552187
-0.67525637
-0.11623454
-0.70108916
-0.078542772
-0.7364178
-0.027194539
-0.78093967
0.022740865
-0.83693049
0.064846614
-0.90457066
0.096959612
-0.98333237
0.117955
-1.0728144
0.12783433
-1.1719246
0.12776562
-1.2788968
0.11983308
-1.3919835
0.10661075
-1.5097986
0.090684866
-1.6311279
0.074238915
-1.755085
0.058817308
-1.8815025
0.045295748
-2.0109886
0.034003484
-2.1445806
0.024908051
-2.2834257
0.017784279
-2.4287637
0.012334339
-2.5820564
0.0082552616
-2.745127
0.0052728117
-2.9200479
0.003152468
-3.1077118
0.0017013223
-3.308465
0.00076618965
-3.5239483
0.00023482382
-3.7591299
2.6581664e-06
-4.0159254
-0.52910492
0.27269176
-0.52160558
0.58027414
-0.49933164
0.61420538
-0.098417747
-0.52006165
-0.32359174
-0.500038
-0.32747297
-0.47476164
-0.13715034
-0.45483598
0.15714496
-0.45881663
0.35979026
-0.48495555
0.43838392
-0.51578946
0.42156426
-0.54507873
0.30117465
-0.56680791
0.10485887
-0.5837567
-0.061488321
-0.6140854
-0.14227118
-0.63195299
-0.14408077
-0.65163833
-0.10177743
-0.68152209
-0.044885062
-0.72237663
0.011148449
-0.773253
0.059527065
-0.83530323
0.097497896
-0.90840579
0.12374406
-0.99242936
0.13790769
-1.0864735
0.14084206
-1.1887814
0.13447547
-1.2974448
0.12144096
-1.4109344
0.10458351
-1.5279824
0.086473512
-1.6476145
0.069058244
-1.7693914
0.053534823
-1.8935123
0.040432468
-2.020814
0.029806174
-2.1524838
0.021442118
-2.2896909
0.015013596
-2.4336586
0.010176426
-2.5858706
0.0066136509
-2.7481631
0.0040536456
-2.9225907
0.0022723149
-3.1098968
0.0010896322
-3.3103399
0.00036533807
-3.5255118
8.1478939e-07
-3.7603391
-0.00010106485
-4.0168531
-0.51518607
-0.11908024
-0.52222138
0.26707417
-0.5150836
0.59056695
-0.49293698
0.6237299
-0.35139896
-0.49851367
-0.35761259
-0.47560199
-0.16099376
-0.45636127
0.15526518
-0.45803003
0.38046516
-0.48377002
0.46707605
-0.51731555
0.45228739
-0.55060118
0.33021165
-0.57805812
0.12170863
-0.58657812
-0.075200401
-0.57285275
-0.16940263
-0.59069899
-0.17285575
-0.60717309
-0.12602906
-0.63079113
-0.06268509
-0.66710586
-0.0012085975
-0.71370994
0.053232567
-0.77044991
0.097214058
-0.83807089
0.12902234
-0.91672312
0.14792341
-1.0057701
0.15438954
-1.1035462
0.15010133
-1.2080412
0.13764872
-1.3174889
0.12006867
-1.4304927
0.10030431
-1.5459665
0.080746828
-1.6633589
0.06298672
-1.7826783
0.047819558
-1.904396
0.035431188
-2.0295601
0.025636687
-2.1594092
0.018082624
-2.2950935
0.012375805
-2.4378265
0.0081497104
-2.5890824
0.0050882103
-2.7507285
0.0029305688
-2.9247506
0.0014675021
-3.1117503
0.00053389373
-3.3119036
3.2436821e-06
-3.526776
-0.00021188965
-3.761288
-0.00019470611
-4.0175156
-0.49724179
-0.37561463
-0.51064951
-0.13742745
-0.5151471
0.26087431
-0.50806014
0.60022766
-0.48598882
0.63335067
-0.38478365
-0.47705963
-0.18325817
-0.45878698
0.15211833
-0.45828971
0.40035215
-0.48221096
0.49666033
-0.51704995
0.484084
-0.5532717
0.36151085
-0.58592978
0.139554
-0.59889012
-0.076441842
-0.58815578
-0.1959215
-0.5498368
-0.20156329
-0.56575546
-0.15121999
-0.58514132
-0.081066669
-0.61554111
-0.0137899
-0.65801069
0.046118721
-0.70990195
0.096133838
-0.77219472
0.13373013
-0.84556934
0.15777108
-0.92966197
0.16828732
-1.0229718
0.16662065
-1.1234639
0.15521622
-1.2291817
0.13720526
-1.3384754
0.11586024
-1.4500752
0.094041389
-1.5632717
0.073803212
-1.6780398
0.056288293
-1.7947389
0.041872131
-1.9140822
0.030427454
-2.0372105
0.021578429
-2.1653712
0.014876907
-2.2996827
0.0098955033
-2.4413106
0.0062654745
-2.5917486
0.0036828522
-2.752867
0.0019037576
-2.9265707
0.00073655599
-3.1132898
3.233521e-05
-3.3131883
-0.00032188781
-3.5277856
-0.00040391611
-3.7619647
-0.00028011237
-4.017947
-0.479385
-0.4083568
-0.4971266
-0.39541492
-0.50593831
-0.15343942
-0.50789026
0.25441918
-0.50069179
0.60946629
-0.47884122
0.64272173
-0.20394484
-0.46181894
0.14820862
-0.45994966
0.41841338
-0.48065621
0.52603033
-0.51529723
0.51581397
-0.55299577
0.39380607
-0.58967496
0.15826584
-0.6076893
-0.076714284
-0.60151129
-0.21488058
-0.57269487
-0.22922728
-0.52569757
-0.17640839
-0.54350389
-0.10049175
-0.56861297
-0.026635878
-0.60598579
0.038453664
-0.65347727
0.09427493
-0.71065838
0.13782494
-0.77885192
0.16734003
-0.8580177
0.18239463
-0.9468734
0.18391484
-1.043456
0.17408462
-1.1456766
0.15602265
-1.2516029
0.13325421
-1.3596949
0.10910081
-1.4690429
0.086147329
-1.5794672
0.065975357
-1.6913953
0.049227083
-1.8054689
0.035876406
-1.9225295
0.025536824
-2.0437747
0.017698048
-2.170417
0.011860224
-2.3035053
0.0075893981
-2.4441693
0.00453007
-2.5939124
0.002398583
-2.7546296
0.00097173087
-2.9280817
7.7156895e-05
-3.1145608
-0.00041782469
-3.3142086
-0.00061212518
-3.5285358
-0.00057430263
-3.7624185
-0.00035663118
-4.0181578
-0.46586654
-0.22289712
-0.4836518
-0.42753449
-0.49684967
-0.41078129
-0.50133703
-0.16681919
-0.50060822
0.24803772
-0.49321556
0.61837586
-0.47189926
0.65126549
0.14425652
-0.4629338
0.43401759
-0.47986706
0.55405356
-0.51241087
0.54624769
-0.54998815
0.42549034
-0.58885668
0.17695872
-0.61147784
-0.076975131
-0.61039174
-0.23256768
-0.58740648
-0.25715909
-0.54825473
-0.20065279
-0.50418354
-0.12047821
-0.52620036
-0.0403251
-0.5580265
0.030458836
-0.6009617
0.091699491
-0.65332491
0.14126436
-0.71645019
0.17652681
-0.79072435
0.19656343
-0.8751094
0.20182982
-0.9677856
0.19415693
-1.0666621
0.1765125
-1.1695243
0.15257146
-1.2745009
0.12608029
-1.3804207
0.10019294
-1.4868789
0.077031678
-1.5942225
0.057605276
-1.703258
0.042049998
-1.8147955
0.029991325
-1.9297474
0.020852332
-2.0492997
0.014045444
-2.1746007
0.0090567313
-2.3066225
0.0054672088
-2.4464466
0.0029456953
-2.595632
0.0012340093
-2.7560543
0.00013176592
-2.9293236
-0.00051317582
-3.1155685
-0.00081950045
-3.3149856
-0.00086958823
-3.5290682
-0.00072483158
-3.7626556
-0.0004242366
-4.0181842
-0.46714952
0.14047961
-0.47227341
-0.23969067
-0.48832128
-0.4417391
-0.49690539
-0.42148442
-0.49694481
-0.17732747
-0.49361279
0.24213319
-0.48584858
0.626861
-0.46586624
0.65801145
0.44728502
-0.48051985
0.57928198
-0.50883616
0.57412908
-0.54457532
0.45489011
-0.58362162
0.19454439
-0.6096127
-0.077652226
-0.61382573
-0.24989942
-0.59671455
-0.28409916
-0.56403156
-0.23155779
-0.52003528
-0.13986435
-0.48728873
-0.05501772
-0.51442627
0.021864432
-0.55225008
0.088535191
-0.60004538
0.14401968
-0.65824153
0.18523373
-0.72766574
0.21063982
-0.80755691
0.22019577
-0.89629075
0.21528789
-0.99185799
0.19861959
-1.0919113
0.17386775
-1.1941632
0.1451197
-1.2970808
0.11612139
-1.4000343
0.089625687
-1.5031688
0.067129515
-1.6073022
0.049021128
-1.7135312
0.034974005
-1.8227179
0.024345868
-1.9357723
0.016443947
-2.0538466
0.010654887
-2.1779889
0.0064807247
-2.3090848
0.0035327846
-2.4482091
0.0015111176
-2.5969507
0.00018586944
-2.7571829
-0.00062003002
-2.9303037
-0.001040296
-3.1163469
-0.0011753852
-3.3155409
-0.0010964508
-3.5293965
-0.00085674962
-3.7627239
-0.00048314295
-4.018034
-0.48259558
0.45841
-0.47253528
0.13568728
-0.48128446
-0.25211817
-0.49370508
-0.45057466
-0.49722811
-0.42746031
-0.49285871
-0.18493907
-0.48710205
0.23708967
-0.47844458
0.63397884
-0.46130145
0.66207657
0.60014928
-0.50513214
0.59818446
-0.53718657
0.48027909
-0.57424204
0.20959141
-0.60189594
-0.079238914
-0.61110467
-0.26717917
-0.60025512
-0.31024892
-0.57418029
-0.26157325
-0.53676447
-0.16999288
-0.49235789
-0.069733557
-0.47531079
0.012301579
-0.50753339
0.084824034
-0.55062965
0.14607151
-0.60408131
0.19338089
-0.66873344
0.22447282
-0.74410056
0.23881958
-0.82882378
0.23730637
-0.9210684
0.22223601
-1.0184241
0.19714914
-1.1183168
0.16634322
-1.2187012
0.13411572
-1.3186025
0.10394221
-1.4179851
0.077941168
-1.517553
0.056871392
-1.6185604
0.040516936
-1.7221837
0.028177325
-1.8292632
0.019037617
-1.9406796
0.012359758
-2.057491
0.0075467296
-2.1806421
0.0041381511
-2.3109654
0.0017851235
-2.4495056
0.00022249162
-2.597918
-0.0007506505
-2.7580304
-0.0012888967
-2.9310581
-0.0015059102
-3.1168973
-0.0014883778
-3.3159065
-0.0012948429
-3.5295568
-0.00097128924
-3.762618
-0.00053379335
-4.0177409
-0.50182418
0.61563295
-0.48433968
0.46589113
-0.48168983
0.1310418
-0.49169871
-0.25948403
-0.49951693
-0.45386778
-0.49773312
-0.42882766
-0.48893468
-0.18997088
-0.4802836
0.23264546
-0.47172694
0.6389502
-0.45812629
0.66316163
0.6171487
-0.5283904
0.4999747
-0.56118987
0.22066679
-0.58859626
-0.082372122
-0.60188647
-0.28450752
-0.59752341
-0.33523779
-0.57892113
-0.29057675
-0.54797437
-0.19919886
-0.51009556
-0.098140656
-0.46663869
0.0019962492
-0.4675202
0.080255215
-0.50491937
0.14747882
-0.55386287
0.20088427
-0.61378032
0.23792634
-0.68464363
0.25750572
-0.76526567
0.25999527
-0.854099
0.24721341
-0.94882089
0.22237693
-1.0465822
0.18983408
-1.1449037
0.15436062
-1.2422593
0.12018529
-1.3383416
0.090202805
-1.433785
0.065696941
-1.5298342
0.046653401
-1.6279416
0.032338251
-1.7292527
0.021795472
-1.8345212
0.014133427
-1.944554
0.0086281526
-2.0603082
0.004729577
-2.182642
0.0020280928
-2.3123221
0.00021949474
-2.4503947
-0.00092615811
-2.5985604
-0.0015820806
-2.7586359
-0.0018794602
-2.9315694
-0.001914879
-3.1172597
-0.0017616141
-3.316094
-0.0014668794
-3.5295481
-0.0010697928
-3.762379
-0.00057688238
-4.0173062
-0.5188345
0.62987677
-0.49717371
0.62472501
-0.48950651
0.46938264
-0.49242772
0.12672299
-0.50275607
-0.26156643
-0.505525
-0.45159171
-0.49821548
-0.42576735
-0.48551421
-0.19160819
-0.47404023
0.22870182
-0.46584837
0.64122708
-0.45707462
0.66158784
0.51241125
-0.54514864
0.22645318
-0.57029757
-0.087621511
-0.58650784
-0.30165667
-0.58850686
-0.35851816
-0.57792678
-0.31815013
-0.55419067
-0.22714721
-0.52263988
-0.12615449
-0.48486448
-0.024279265
-0.44281264
0.074870361
-0.46396512
0.14807887
-0.50720766
0.20772152
-0.56275567
0.25086864
-0.62904555
0.27606118
-0.7055239
0.28313017
-0.79082275
0.27333759
-0.88283637
0.24945285