/*--------------------------------*- C++ -*----------------------------------*\
| =========                 |                                                 |
| \\      /  F ield         | OpenFOAM: The Open Source CFD Toolbox           |
|  \\    /   O peration     | Version:  v2012                                 |
|   \\  /    A nd           | Website:  www.openfoam.com                      |
|    \\/     M anipulation  |                                                 |
\*---------------------------------------------------------------------------*/
FoamFile
{
    version     2.0;
    format      ascii;
    class       volVectorField;
    location    "61.0578017145492424";
    object      U;
}
// * * * * * * * * * * * * * * * * * * * * * * * * * * * * * * * * * * * * * //

dimensions      [0 1 -1 0 0 0 0];


internalField   nonuniform List<vector> 
9200
(
(2.5664432 0.010100155 4.828851e-21)
(2.5601504 0.034161216 -4.9531799e-24)
(2.5409466 0.0066443649 1.8643261e-21)
(2.5495273 0.053329759 -1.0034942e-21)
(2.5338763 0.021850676 6.2031417e-22)
(2.5342318 0.0051315001 7.669476e-22)
(2.5338335 0.072133431 2.4044978e-21)
(2.5248213 0.032916727 -8.8457492e-23)
(2.5288205 0.016802853 -2.8705668e-22)
(2.5263406 0.0034896841 1.0685408e-21)
(2.5138002 0.087351938 2.5644343e-21)
(2.5112149 0.042967333 2.9853836e-22)
(2.5209262 0.024917124 -2.7683095e-21)
(2.5213584 0.011260696 8.8754193e-22)
(2.5222323 0.0022226308 -1.9332951e-21)
(2.4894511 0.099732386 2.5614176e-21)
(2.4948867 0.04945134 -1.5566079e-21)
(2.5090691 0.032008801 -2.1902781e-22)
(2.5145173 0.016278289 6.0867909e-22)
(2.5180331 0.0070637219 4.1742548e-22)
(2.5196574 0.0011409361 -2.5482296e-21)
(2.4613135 0.10741089 -4.984729e-22)
(2.4760079 0.052921118 1.9150113e-22)
(2.4949915 0.036003697 -2.3409755e-21)
(2.5043895 0.020116587 1.645844e-22)
(2.5122435 0.0097915611 1.8397959e-21)
(2.5160675 0.003572315 -1.1805562e-21)
(2.518741 0.0002337896 1.7469647e-21)
(2.4299932 0.11003578 1.7635344e-21)
(2.4556142 0.052779144 -2.028599e-21)
(2.4788208 0.03734834 -5.4479514e-22)
(2.4926285 0.021342326 5.1941571e-22)
(2.5037019 0.011350575 -2.5965607e-21)
(2.5111743 0.0044452579 -2.2150494e-22)
(2.5156497 0.00074105425 9.4362461e-23)
(2.5189533 -0.00047413264 1.1778268e-21)
(2.3965064 0.10670937 1.5327638e-21)
(2.4345735 0.048937034 8.0196832e-23)
(2.4614869 0.035451661 -2.0891694e-21)
(2.4794172 0.020243587 -1.0528117e-22)
(2.4939087 0.010813521 1.1214793e-21)
(2.5039838 0.0041938905 2.2801292e-22)
(2.5115812 0.00014091185 -3.4128529e-22)
(2.5162579 -0.001604539 -8.1644241e-22)
(2.5200515 -0.00099191778 3.6198573e-22)
(2.3622317 0.096654363 -8.0680749e-22)
(2.4140488 0.041022916 -1.9470475e-21)
(2.4436823 0.030223239 5.1546036e-22)
(2.4656526 0.016575635 1.5862912e-22)
(2.483026 0.0083051455 8.6374982e-22)
(2.4958425 0.0023069469 4.9100168e-23)
(2.50554 -0.0015175666 9.5408474e-22)
(2.5129012 -0.0033879973 4.5890305e-22)
(2.5177421 -0.0035690934 -1.2581517e-21)
(2.5218232 -0.0014634314 -3.9228366e-22)
(2.3288813 0.08024405 -5.068012e-22)
(2.3950372 0.029297898 -1.7440468e-21)
(2.4262439 0.021798606 -1.8758409e-21)
(2.4519043 0.010441861 -3.9826559e-22)
(2.4718076 0.003801731 8.4229772e-22)
(2.486877 -0.0012395123 -1.0806846e-22)
(2.4987838 -0.0044015625 -8.8311727e-22)
(2.5078267 -0.0061889693 5.2784367e-22)
(2.5149547 -0.0063148509 4.7231103e-22)
(2.5198868 -0.0052279186 8.9031831e-22)
(2.524142 -0.0018985436 4.2131731e-22)
(2.2985652 0.058181829 2.5929586e-21)
(2.3785686 0.013960289 -2.7707102e-22)
(2.409945 0.010550408 2.4587657e-23)
(2.4388479 0.0020694226 -9.5364719e-23)
(2.4606933 -0.0026211769 -7.9318739e-23)
(2.477736 -0.0063123906 1.5902812e-22)
(2.4913798 -0.0086788209 -5.9986342e-23)
(2.5022108 -0.0098432808 -1.6579432e-22)
(2.5107077 -0.010064225 2.2354795e-22)
(2.5175551 -0.0087892713 -2.1415665e-22)
(2.5225237 -0.0066373285 3.8908542e-22)
(2.526884 -0.0022627025 1.7668424e-22)
(2.2714483 0.029679307 4.9650895e-22)
(2.3638546 -0.0055782557 0)
(2.395466 -0.0029661797 5.5091597e-24)
(2.4270113 -0.0082244194 1.1284399e-21)
(2.4501834 -0.010674479 1.1609866e-21)
(2.4687617 -0.012862387 1.8658835e-22)
(2.4838767 -0.014105113 2.9718017e-22)
(2.4960796 -0.014677471 -2.856845e-24)
(2.5060301 -0.014336722 -1.7372433e-22)
(2.514007 -0.013332513 -1.3894283e-21)
(2.5205848 -0.010902038 -1.3109918e-22)
(2.5255355 -0.0078378667 -2.0254474e-21)
(2.5299419 -0.0025583654 -1.2656244e-21)
(2.2491088 -0.0029934493 -2.2931906e-21)
(2.3514728 -0.02604901 -1.4402297e-21)
(2.3831867 -0.018023802 -2.6494558e-21)
(2.4167813 -0.019998607 -3.8957363e-22)
(2.4406336 -0.020054218 5.7434302e-24)
(2.4603237 -0.020575642 -2.9208236e-22)
(2.4765345 -0.020684839 7.875384e-22)
(2.4898959 -0.020354251 -8.4854483e-22)
(2.5009428 -0.019611881 4.4373869e-22)
(2.5101037 -0.018126131 3.0369689e-23)
(2.517624 -0.016122279 -8.5559834e-22)
(2.5239417 -0.012710163 6.3051631e-22)
(2.5288345 -0.008854358 5.9118089e-22)
(2.5332266 -0.0027999262 5.4090236e-22)
(2.2324879 -0.038654528 -3.2770101e-22)
(2.3424264 -0.047937624 -2.0787061e-21)
(2.3735741 -0.03461721 8.0343053e-22)
(2.4083759 -0.032858165 1.1417103e-21)
(2.4323228 -0.030340436 -2.1697423e-21)
(2.4526572 -0.02920214 -1.6368002e-21)
(2.4696208 -0.02811741 -1.123219e-21)
(2.4838695 -0.026939444 -1.4072799e-21)
(2.4958316 -0.025478043 -1.033328e-21)
(2.5058696 -0.02376893 2.8581252e-22)
(2.5143645 -0.021371626 5.5984946e-22)
(2.5214803 -0.018518481 4.8528925e-22)
(2.5275458 -0.014250233 1.3317149e-21)
(2.5323434 -0.009702232 1.6700874e-21)
(2.5366631 -0.0029942066 -8.0631168e-23)
(2.2216957 -0.075683184 -3.5958583e-21)
(2.3370171 -0.070780586 -1.5258035e-21)
(2.3669482 -0.052376444 3.7546407e-23)
(2.402007 -0.046338528 1.9489371e-21)
(2.4254365 -0.041117881 2.6350935e-21)
(2.4459114 -0.038382596 5.3460462e-22)
(2.4632855 -0.036218573 9.4733387e-23)
(2.4782052 -0.034158481 -5.2004266e-22)
(2.4908768 -0.032056126 -1.5394755e-21)
(2.5016289 -0.02978987 -4.1077632e-22)
(2.5108259 -0.027337627 3.0630692e-23)
(2.5187601 -0.024178776 7.9736447e-22)
(2.525519 -0.020574022 2.8935703e-23)
(2.5313298 -0.01554542 -4.6064114e-23)
(2.5359935 -0.010392031 7.8973661e-22)
(2.5401858 -0.0031440644 -4.7361408e-22)
(2.2164203 -0.11278862 1.611861e-21)
(2.3351259 -0.093929207 8.80757e-22)
(2.3634064 -0.070525824 7.035826e-22)
(2.3978671 -0.059861297 -3.898392e-22)
(2.4200874 -0.051940232 9.6073325e-22)
(2.4401396 -0.047773136 9.20697e-22)
(2.4575985 -0.044702154 8.3789293e-22)
(2.473006 -0.041900456 -1.1912389e-22)
(2.4862502 -0.039098468 -2.1055525e-22)
(2.4975462 -0.036348508 9.1726827e-22)
(2.507283 -0.033498025 2.5673714e-22)
(2.5157872 -0.030445622 1.2195089e-22)
(2.5232585 -0.026613409 1.2218352e-22)
(2.529694 -0.022320693 -2.9713635e-22)
(2.535236 -0.016610449 -7.7312754e-22)
(2.5397244 -0.010932141 1.6994164e-22)
(2.5437377 -0.0032523461 1.5666676e-22)
(2.2161239 -0.14904761 2.8476802e-21)
(2.3365249 -0.11692513 -6.9758526e-22)
(2.3629015 -0.088524455 2.0400296e-21)
(2.3959865 -0.072995761 2.4035149e-21)
(2.4162832 -0.062405281 -1.7024366e-21)
(2.4353235 -0.05700667 -3.1603505e-21)
(2.4525419 -0.053315191 5.7598493e-22)
(2.4683004 -0.049966745 -7.7580915e-22)
(2.4820439 -0.046556949 -3.0492742e-22)
(2.4937831 -0.04321285 1.4498309e-21)
(2.5038881 -0.040032226 1.1870697e-21)
(2.5127917 -0.036749701 4.826111e-23)
(2.5207501 -0.033175231 -1.9522504e-22)
(2.5278379 -0.028714655 2.8655369e-23)
(2.5339661 -0.023777346 2.1511983e-23)
(2.5392138 -0.017456115 -4.8057235e-22)
(2.5434828 -0.011330574 -2.8030585e-22)
(2.5472701 -0.003321963 2.9383667e-22)
(2.2198025 -0.1837971 -8.970349e-22)
(2.3408934 -0.13943821 2.2042222e-21)
(2.3653298 -0.10595989 -5.8986072e-24)
(2.3963758 -0.085310572 -8.4642868e-22)
(2.4139982 -0.07209068 -1.6063395e-21)
(2.4313839 -0.065729438 -9.9818314e-22)
(2.4480186 -0.061799338 -1.1239569e-21)
(2.4640356 -0.05821373 7.0522902e-22)
(2.4782904 -0.054309447 1.9288684e-21)
(2.4904459 -0.05037473 9.3775712e-22)
(2.5008022 -0.046705916 0)
(2.5099097 -0.043273959 5.7549656e-22)
(2.5181772 -0.039647481 9.1119298e-22)
(2.5257228 -0.035576689 -2.8247376e-22)
(2.5324827 -0.030504055 -3.375152e-22)
(2.5383002 -0.024956043 -2.8413971e-22)
(2.5432175 -0.018092212 -4.61567e-23)
(2.5472217 -0.011595857 -2.0073633e-22)
(2.5507415 -0.0033556863 -1.3470177e-22)
(2.2266264 -0.2166368 1.0387096e-21)
(2.3479313 -0.16127059 1.1685061e-22)
(2.3704895 -0.12262839 -7.3858241e-22)
(2.3989707 -0.096540243 -1.8522839e-21)
(2.4131687 -0.080611793 -4.197915e-22)
(2.4281949 -0.073577271 2.2292153e-21)
(2.4438595 -0.069905405 -9.0034502e-23)
(2.4600839 -0.066506129 -3.8897637e-22)
(2.4749563 -0.062309202 3.7258667e-22)
(2.4876019 -0.057761242 4.1497533e-22)
(2.4981555 -0.053520993 -1.2489252e-21)
(2.5072988 -0.049763781 -6.4736794e-22)
(2.5156508 -0.046206118 -6.1134705e-23)
(2.52348 -0.042259216 4.2817584e-22)
(2.5307211 -0.037676764 6.1868693e-22)
(2.5371796 -0.031992591 -1.3551275e-22)
(2.5426632 -0.025866164 9.3888307e-23)
(2.5472061 -0.018528917 -1.4188211e-24)
(2.5509006 -0.011737058 -1.0877768e-22)
(2.5541175 -0.003356225 -2.6128118e-22)
(2.2358726 -0.24738918 2.5014667e-21)
(2.3571513 -0.18239632 3.3017773e-23)
(2.3784397 -0.13822097 1.7228911e-23)
(2.4036585 -0.10639291 2.9905653e-22)
(2.4136528 -0.087742772 -5.9907936e-22)
(2.4255827 -0.080281523 -1.1201044e-22)
(2.4398497 -0.077391507 1.5750587e-21)
(2.4562541 -0.074732322 1.42806e-21)
(2.4719469 -0.070533698 -9.1210865e-22)
(2.4852752 -0.065388567 -1.1223414e-21)
(2.4960635 -0.060415688 0)
(2.5051064 -0.056202868 -7.1334976e-22)
(2.5133121 -0.052564212 -4.5201677e-22)
(2.5211844 -0.048927734 -2.8918377e-22)
(2.5287543 -0.044622773 2.0693715e-22)
(2.5357618 -0.039485611 3.8287837e-22)
(2.5419138 -0.033185641 2.553449e-22)
(2.547023 -0.026516634 -3.6962378e-23)
(2.5511426 -0.01877706 -2.3659278e-23)
(2.5544847 -0.011763429 5.3403109e-24)
(2.5573696 -0.0033262486 1.5781405e-22)
(2.2468492 -0.27602245 -2.6779154e-21)
(2.368288 -0.20280374 1.3087952e-21)
(2.3883745 -0.15285613 -3.6573501e-22)
(2.4102748 -0.11460961 3.1358742e-22)
(2.4154131 -0.092865775 3.3113108e-22)
(2.4233535 -0.085500882 -7.829178e-22)
(2.4357134 -0.084068996 -5.6725928e-23)
(2.4522935 -0.082817398 -4.6319711e-23)
(2.4691122 -0.079006095 1.0287124e-22)
(2.4834501 -0.0733098 1.4772631e-22)
(2.4946244 -0.067422006 2.769136e-22)
(2.5034881 -0.062502948 -3.8427875e-22)
(2.5113076 -0.058667758 -5.9450879e-22)
(2.518944 -0.055260132 -2.2416086e-22)
(2.5266118 -0.05150028 1.7943754e-22)
(2.534058 -0.046750327 -6.3938145e-22)
(2.5408572 -0.041002208 2.8354772e-22)
(2.5466673 -0.034086059 -2.4615372e-22)
(2.5513479 -0.026916711 4.4409124e-23)
(2.5549937 -0.018847824 4.3211621e-23)
(2.5579448 -0.011684034 -3.1317703e-23)
(2.5604752 -0.0032683382 6.0635186e-23)
(2.2589155 -0.30262427 -2.6583021e-21)
(2.3810937 -0.22262528 4.0441993e-21)
(2.4005959 -0.16651857 6.527296e-22)
(2.4194125 -0.1212237 5.7356616e-23)
(2.4184299 -0.096339155 9.0255697e-22)
(2.4214368 -0.08878225 1.4573154e-21)
(2.4312016 -0.089584669 1.3737813e-22)
(2.4479004 -0.090693957 -8.2513399e-22)
(2.4662462 -0.087795698 -2.6913719e-22)
(2.482074 -0.081641083 2.614485e-23)
(2.4939243 -0.074613207 -6.5327116e-23)
(2.502607 -0.068663695 -9.1519611e-22)
(2.5098082 -0.064375345 5.9929961e-23)
(2.5168807 -0.061158023 1.4779176e-22)
(2.5243524 -0.057958222 -6.1281439e-22)
(2.5320459 -0.053945638 -3.4006237e-22)
(2.539442 -0.048633269 -2.6781209e-23)
(2.546011 -0.042218528 -1.4147227e-22)
(2.5514177 -0.034695771 2.3879644e-22)
(2.5556068 -0.027075997 3.9864339e-25)
(2.5587297 -0.018752377 -1.3408002e-22)
(2.5612565 -0.011507569 2.5705968e-24)
(2.5634161 -0.0031849503 -1.4270209e-22)
(2.2714017 -0.32731443 0)
(2.395287 -0.24198547 6.9525553e-21)
(2.4148529 -0.17925759 1.5739592e-21)
(2.4303632 -0.12623739 3.8126719e-22)
(2.4225971 -0.097281149 -1.7277376e-22)
(2.4193097 -0.090723699 -2.2887502e-22)
(2.4260006 -0.094115265 9.8197434e-23)
(2.4427671 -0.098290566 5.3572192e-22)
(2.4631103 -0.096986201 2.5752652e-23)
(2.4810551 -0.090550752 1.582142e-23)
(2.4940377 -0.082134138 -3.9806991e-22)
(2.5026403 -0.07471806 -1.6681151e-22)
(2.5090102 -0.069618889 1.7770847e-22)
(2.5151482 -0.066417222 8.7749063e-22)
(2.5220508 -0.063859654 -5.9063214e-23)
(2.5297243 -0.060704604 1.3329934e-22)
(2.537593 -0.056248873 -7.9691939e-23)
(2.5449423 -0.05024761 -4.7548249e-22)
(2.5512153 -0.043122553 -1.9786483e-23)
(2.556138 -0.035016558 4.8812837e-22)
(2.5597691 -0.027004328 5.7015709e-22)
(2.5623244 -0.018501714 6.0580586e-23)
(2.5644001 -0.011242355 1.2394522e-23)
(2.5661788 -0.0030783553 1.3443411e-22)
(2.2838449 -0.35028223 -2.5942369e-21)
(2.410417 -0.2610473 1.0186898e-21)
(2.4309587 -0.19117979 -5.2060263e-21)
(2.4430996 -0.12950121 -1.1053976e-21)
(2.4278191 -0.096015361 1.0710576e-22)
(2.4168734 -0.089768977 -1.8191221e-22)
(2.4196645 -0.096616855 -1.8125693e-21)
(2.4364575 -0.10572454 -3.7987916e-22)
(2.4594204 -0.10672734 5.227643e-23)
(2.4802768 -0.10025018 4.1420891e-23)
(2.4950232 -0.090184678 -1.845334e-23)
(2.5037806 -0.080768996 -1.685676e-21)
(2.509143 -0.074346357 1.5475169e-21)
(2.5139347 -0.070888074 9.812603e-22)
(2.5198139 -0.068944267 -4.4029254e-22)
(2.5271046 -0.066866759 -5.0282005e-22)
(2.5352438 -0.063482797 -6.5423347e-22)
(2.5433367 -0.058365148 7.1343676e-23)
(2.5505741 -0.051559289 -4.6009013e-22)
(2.5564506 -0.043700609 7.2744069e-22)
(2.5607972 -0.035050707 -6.9735302e-22)
(2.5638053 -0.026711918 -2.4160682e-23)
(2.565755 -0.018106771 3.7093028e-22)
(2.56736 -0.010896383 2.0756016e-24)
(2.5687532 -0.002950601 1.4593109e-22)
(2.2962204 -0.37157691 3.580124e-21)
(2.4255728 -0.28006326 1.1565669e-20)
(2.4488191 -0.20239197 -9.525131e-21)
(2.4576412 -0.13112934 1.3602454e-21)
(2.4339947 -0.092247441 -1.0350052e-21)
(2.4142399 -0.086256276 1.1025044e-21)
(2.4119057 -0.098062583 3.1815146e-22)
(2.4287908 -0.11259806 -1.0809248e-21)
(2.4548609 -0.11713168 3.3436624e-23)
(2.4795795 -0.11100186 4.8155699e-22)
(2.4969325 -0.099030945 2.0007542e-21)
(2.5062328 -0.086956395 -1.3121254e-21)
(2.510468 -0.078561906 1.4130204e-22)
(2.5134691 -0.074418366 -1.1688873e-21)
(2.5177821 -0.072988683 7.0284578e-22)
(2.5242248 -0.072134437 5.1483278e-22)
(2.5323356 -0.070170681 -7.4075521e-23)
(2.5410647 -0.06622266 7.8072327e-22)
(2.5493283 -0.060228698 -8.859552e-22)
(2.5563307 -0.05252922 -4.8725595e-22)
(2.5616862 -0.043939542 -3.6149357e-22)
(2.5653615 -0.034801877 -1.2912205e-21)
(2.5676874 -0.026209785 -8.0441113e-22)
(2.5690021 -0.017578682 -2.8501858e-22)
(2.5701244 -0.010477294 3.159705e-23)
(2.5711327 -0.0028035164 2.8907164e-23)
(2.3081013 -0.39123868 3.2894007e-21)
(2.4401215 -0.29917751 1.1960922e-20)
(2.4683953 -0.21308832 1.5454776e-20)
(2.4739287 -0.1311688 4.1739319e-21)
(2.4411336 -0.085950611 -7.0168562e-22)
(2.4112905 -0.080190389 3.6388888e-21)
(2.4026641 -0.097765189 2.8426265e-21)
(2.41943 -0.11942178 -4.9461349e-22)
(2.449184 -0.12838035 2.362285e-22)
(2.4787998 -0.12306822 1.2153725e-21)
(2.4997996 -0.10898047 -1.7441488e-21)
(2.5102161 -0.093511122 -1.6851518e-21)
(2.5132881 -0.082274962 1.3057131e-21)
(2.5140151 -0.076885154 2.3892704e-21)
(2.5161342 -0.075753028 1.0668708e-22)
(2.5211501 -0.076234811 4.453145e-22)
(2.528827 -0.076002376 9.2934717e-22)
(2.5379975 -0.073671945 -3.4272487e-23)
(2.5472914 -0.068815269 -5.2464798e-22)
(2.555582 -0.061762397 2.0017088e-22)
(2.5621841 -0.053118201 1.1530963e-22)
(2.5668825 -0.04382901 -3.5122299e-22)
(2.5697955 -0.034276166 1.7172991e-21)
(2.5713898 -0.025510264 -1.0070863e-21)
(2.5720501 -0.016929027 -1.4289952e-22)
(2.5726853 -0.0099923244 5.1227141e-23)
(2.5733135 -0.0026388609 -1.1074083e-22)
(2.3191216 -0.40943354 -9.0762773e-22)
(2.4541132 -0.31851696 -3.2350546e-20)
(2.4891558 -0.2233792 -1.7844305e-20)
(2.4917348 -0.12972253 -2.7591228e-21)
(2.4491994 -0.077120739 6.9190396e-22)
(2.407841 -0.071325438 -1.4555355e-21)
(2.3916749 -0.095595378 -2.6468864e-21)
(2.4078745 -0.12582365 4.1596992e-22)
(2.4420667 -0.14054815 4.305433e-22)
(2.4777247 -0.13675742 -7.629384e-23)
(2.5036433 -0.12038834 -1.6883083e-21)
(2.5159587 -0.10067234 3.0948565e-21)
(2.5179249 -0.085597219 7.0101637e-22)
(2.5158882 -0.078163035 -4.5356171e-23)
(2.5150827 -0.076991831 6.5924589e-22)
(2.5179751 -0.07886515 -6.1993421e-22)
(2.5246947 -0.080685824 3.8780854e-22)
(2.5340144 -0.080415119 2.0331374e-21)
(2.5442729 -0.077204669 2.1212121e-22)
(2.5539718 -0.07112963 -8.0555991e-22)
(2.5620763 -0.062887135 -1.3925643e-22)
(2.5680883 -0.053291643 2.2052771e-21)
(2.571994 -0.043363709 8.6587963e-22)
(2.5740644 -0.033483083 2.3030932e-21)
(2.5748899 -0.024627395 -1.9950061e-22)
(2.5748868 -0.016169968 -1.0757114e-22)
(2.5750378 -0.0094483836 4.014874e-23)
(2.5752943 -0.0024586392 -5.2978297e-22)
(2.3291986 -0.42644007 -5.4466144e-23)
(2.4674216 -0.33768296 -7.4653639e-21)
(2.5094341 -0.23346184 -1.4723031e-20)
(2.5101895 -0.12670572 -1.9016881e-21)
(2.4579416 -0.065785222 -2.1400825e-21)
(2.4037382 -0.059626637 -4.335778e-21)
(2.3786628 -0.091311477 3.9168447e-21)
(2.3938391 -0.13184574 2.8240997e-22)
(2.433128 -0.15379823 7.96258e-23)
(2.476127 -0.15231161 -8.4928271e-22)
(2.5084492 -0.1336259 7.9474605e-21)
(2.5236953 -0.10875772 -5.8342708e-21)
(2.5247252 -0.088598831 -2.220334e-21)
(2.5194292 -0.078170506 1.2148813e-21)
(2.5148754 -0.07648848 -3.9424362e-22)
(2.5148264 -0.079697462 2.1716107e-22)
(2.5199366 -0.083888478 -9.5476557e-22)
(2.5290038 -0.086169038 -2.4024262e-21)
(2.5400802 -0.085132931 -2.2117317e-22)
(2.5512599 -0.080564222 -6.7512674e-22)
(2.561097 -0.073029002 4.5262102e-22)
(2.5687587 -0.063530466 1.8074532e-23)
(2.5739841 -0.053023766 -6.1774515e-22)
(2.5769722 -0.042545174 3.2231794e-23)
(2.5781353 -0.032436172 -1.6326681e-21)
(2.5781689 -0.023577074 1.0361378e-21)
(2.577504 -0.015314264 3.059392e-23)
(2.5771806 -0.0088524485 3.1062289e-23)
(2.5770752 -0.0022654005 -1.549037e-23)
(2.3382181 -0.44158524 -3.8376477e-22)
(2.4792091 -0.35662619 -7.5244232e-21)
(2.5262296 -0.24264893 2.8897374e-20)
(2.5263961 -0.12231268 4.6313951e-21)
(2.4661575 -0.051813436 1.435782e-20)
(2.398538 -0.044956654 -2.162884e-21)
(2.3633795 -0.084959548 9.3793954e-21)
(2.377086 -0.13747309 -3.4812403e-21)
(2.4220841 -0.1682176 -7.5320407e-22)
(2.4737817 -0.17001439 -4.028557e-21)
(2.5141853 -0.14908935 2.8468759e-21)
(2.5336493 -0.1181034 -4.9314946e-21)
(2.5340723 -0.091435878 1.2792131e-21)
(2.5249973 -0.076820188 1.5710511e-22)
(2.515789 -0.073962835 -1.290723e-21)
(2.5118461 -0.078448938 9.345814e-22)
(2.5145731 -0.085271112 -5.0468494e-23)
(2.5228684 -0.090608155 -3.817124e-21)
(2.5345223 -0.092350596 1.6089959e-22)
(2.5471953 -0.089853087 1.274125e-21)
(2.5589718 -0.083533892 8.9533741e-22)
(2.5686087 -0.07438544 -8.3773545e-22)
(2.5755526 -0.063633875 8.2570826e-22)
(2.5798044 -0.052300729 -1.1188761e-21)
(2.5817689 -0.041382793 8.7080842e-22)
(2.5819791 -0.031153137 -3.6551861e-21)
(2.5812119 -0.022376934 4.5150157e-22)
(2.5798971 -0.014375158 9.152631e-23)
(2.5791146 -0.0082120265 4.3688382e-23)
(2.5786595 -0.0020623323 -7.7127178e-22)
(2.3458814 -0.45705064 -1.2481378e-21)
(2.4889945 -0.37439591 -2.4213774e-20)
(2.538913 -0.25127034 1.6441164e-20)
(2.538204 -0.11547441 -1.7819966e-20)
(2.4695714 -0.03524962 -2.9901232e-20)
(2.3902551 -0.02738146 2.6512108e-21)
(2.3454478 -0.076091015 -1.2753675e-20)
(2.3573582 -0.14270172 7.9151917e-22)
(2.4086997 -0.18393756 -8.9921875e-23)
(2.4704447 -0.19008431 -4.2949436e-22)
(2.5207864 -0.16716419 -7.9566536e-21)
(2.5460481 -0.12908519 1.5563148e-20)
(2.5463427 -0.094253626 -4.1797525e-21)
(2.532985 -0.074051767 -2.409745e-21)
(2.5181159 -0.069218549 -5.975018e-22)
(2.5091933 -0.074768873 -2.3071608e-21)
(2.5086363 -0.084475193 1.9275534e-21)
(2.5155245 -0.093396804 6.3931343e-21)
(2.5274163 -0.09856534 1.1768745e-21)
(2.5415221 -0.098799352 -2.7872135e-21)
(2.5554076 -0.094251375 -9.224335e-23)
(2.5673466 -0.085907857 0)
(2.5764093 -0.075091618 0)
(2.582366 -0.063158018 2.5906579e-21)
(2.5854796 -0.051122329 7.3195129e-22)
(2.5863392 -0.039893949 4.2819093e-23)
(2.585571 -0.029655485 1.2833416e-21)
(2.5840082 -0.021046006 -5.1624238e-22)
(2.5820651 -0.013366161 -4.180457e-23)
(2.5808433 -0.0075354814 -5.1781344e-22)
(2.580055 -0.001853321 5.2947873e-23)
(2.3522044 -0.47288433 5.5226705e-21)
(2.4952011 -0.39351587 -1.8287607e-20)
(2.54816 -0.25767524 3.1330216e-20)
(2.5458328 -0.10708616 -1.206363e-21)
(2.4639781 -0.014928332 2.1004448e-20)
(2.3731408 -0.0066274082 8.3456916e-22)
(2.3234203 -0.065543233 -2.5536171e-21)
(2.3344824 -0.1474448 1.5500911e-21)
(2.3927484 -0.20097379 -1.9188538e-21)
(2.4658645 -0.21273737 5.141471e-21)
(2.5281525 -0.1882077 1.0170282e-20)
(2.5610802 -0.14209291 -1.0036159e-20)
(2.5619387 -0.097233426 3.5829745e-21)
(2.5437805 -0.069775632 3.613265e-21)
(2.5221431 -0.062020596 -8.030057e-22)
(2.5070402 -0.06834022 0)
(2.5021655 -0.081162565 0)
(2.5069023 -0.094193424 1.036914e-21)
(2.5185902 -0.10347492 4.9312498e-22)
(2.5339869 -0.10716378 1.4596775e-21)
(2.5501012 -0.1050504 -3.6342142e-21)
(2.5646553 -0.098016553 2.1456865e-21)
(2.5762616 -0.087509346 -1.5097563e-21)
(2.5843742 -0.075069149 -3.3186394e-21)
(2.5890996 -0.062085503 -1.6171056e-22)
(2.5909423 -0.049502178 1.7364088e-21)
(2.5906432 -0.038103324 -3.1125004e-23)
(2.5888918 -0.027967799 2.5810485e-21)
(2.5865517 -0.019604229 3.4850815e-23)
(2.58401 -0.012300741 2.6376327e-22)
(2.5823722 -0.0068325019 -1.6752278e-22)
(2.581268 -0.0016426893 1.4621391e-21)
(2.3566068 -0.48808747 -1.0658193e-20)
(2.4989101 -0.41394565 -1.2554745e-22)
(2.5534461 -0.26586903 -5.9557018e-20)
(2.5518405 -0.095094256 1.3141709e-20)
(2.4514964 0.0081267689 3.3524503e-20)
(2.3439251 0.016648425 -2.1332713e-21)
(2.2934834 -0.052155357 2.6880468e-21)
(2.3080977 -0.15204386 -1.6502252e-21)
(2.3742396 -0.21938432 1.9506655e-21)
(2.4598574 -0.23803673 8.4778469e-21)
(2.5361274 -0.21254869 -9.2059841e-21)
(2.5789169 -0.15753156 1.7967148e-21)
(2.5812163 -0.10054505 1.5404824e-20)
(2.5577832 -0.063959567 -5.6537875e-21)
(2.528159 -0.052100159 -1.0898943e-22)
(2.5055339 -0.058863122 0)
(2.4952047 -0.074990869 0)
(2.4969424 -0.092664846 -4.6247731e-21)
(2.5078877 -0.10677144 -7.2109378e-22)
(2.5243457 -0.11469621 3.0758052e-21)
(2.5427469 -0.11575877 -8.7991963e-22)
(2.5602036 -0.11065422 2.3460798e-21)
(2.5747874 -0.10087686 -2.5644148e-21)
(2.5855516 -0.088203284 -2.554561e-21)
(2.5923646 -0.07427308 1.9061958e-21)
(2.5956545 -0.060421288 -1.7746487e-21)
(2.5961311 -0.047466579 -4.1958043e-23)
(2.5946483 -0.03604162 -9.2609885e-23)
(2.5919279 -0.026116778 -1.8708651e-21)
(2.5888401 -0.018071907 5.1479225e-23)
(2.5857361 -0.011192032 1.4270435e-23)
(2.5837084 -0.006114041 1.6791474e-21)
(2.5822988 -0.0014336126 -5.0510063e-23)
(2.3590656 -0.50130377 -1.3118983e-21)
(2.4987851 -0.43429042 7.5780211e-20)
(2.5551665 -0.27520887 -4.0073554e-21)
(2.5552406 -0.083637607 -2.6367997e-20)
(2.438198 0.035019413 -8.1370413e-20)
(2.3088486 0.042601127 6.8164909e-21)
(2.2534056 -0.039995251 -2.251863e-22)
(2.2772562 -0.15648088 -1.0403984e-21)
(2.353475 -0.23932656 -1.1360466e-22)
(2.4525438 -0.26623102 3.3446874e-21)
(2.5446582 -0.2404421 3.4802299e-21)
(2.5997227 -0.17580624 -4.7833766e-21)
(2.6045575 -0.1043787 -1.0084204e-20)
(2.5753186 -0.056499447 7.4127872e-21)
(2.5364245 -0.039300435 4.3047247e-21)
(2.5048127 -0.045999839 -3.2236477e-21)
(2.4877805 -0.065655362 3.7772346e-21)
(2.4855928 -0.088499364 4.016069e-21)
(2.4951708 -0.10815757 0)
(2.5123724 -0.12113776 -3.6113953e-21)
(2.5330454 -0.1261915 9.4205564e-21)
(2.5536527 -0.12372484 -5.3334607e-21)
(2.5716471 -0.11521353 1.0033096e-21)
(2.5855882 -0.1026183 -5.361197e-21)
(2.595026 -0.087903238 1.6658753e-21)
(2.6002386 -0.072692726 7.3395573e-21)
(2.6019383 -0.058191011 1.3801698e-21)
(2.6009934 -0.045052432 -5.6396002e-22)
(2.5983295 -0.033743914 -6.5174848e-23)
(2.5946714 -0.024130219 1.4792478e-21)
(2.5908749 -0.01646916 6.5766754e-22)
(2.5872497 -0.010052591 -9.6226244e-22)
(2.5848592 -0.0053899355 2.9074611e-23)
(2.5831652 -0.0012270169 -7.5207394e-25)
(2.3597615 -0.51392383 1.1687062e-20)
(2.4940549 -0.45587582 -5.8679079e-22)
(2.5539302 -0.2829487 2.6567627e-20)
(2.5489957 -0.071537847 2.4149905e-20)
(2.4209358 0.064396412 1.4963519e-20)
(2.2740349 0.069727301 8.4786136e-21)
(2.2077697 -0.025199878 -8.1030185e-21)
(2.2409717 -0.16290128 3.5516614e-21)
(2.3308025 -0.26072057 -6.6063314e-21)
(2.4441438 -0.29715614 -2.3692662e-20)
(2.5535169 -0.27224727 -3.9704554e-20)
(2.6236184 -0.19741683 4.1970033e-21)
(2.6324311 -0.10890864 1.3150931e-21)
(2.596794 -0.047328031 4.6244169e-21)
(2.5471391 -0.023283874 5.8633356e-21)
(2.5049588 -0.029542052 3.7700817e-21)
(2.479905 -0.052852334 1.0333934e-21)
(2.4728006 -0.081428604 1.8003118e-21)
(2.4803227 -0.10735947 -1.9521218e-21)
(2.4978671 -0.12623532 -8.0884477e-21)
(2.5207157 -0.13614943 -1.835835e-21)
(2.5446659 -0.13711797 3.6484673e-21)
(2.5664891 -0.13050412 -2.2736755e-22)
(2.5841562 -0.11840836 -6.4082246e-21)
(2.5968019 -0.10309494 5.396993e-21)
(2.6044859 -0.086573113 3.5343505e-21)
(2.6078611 -0.070349443 -1.9321062e-21)
(2.60787 -0.055437843 6.855343e-23)
(2.6054873 -0.042304605 1.0603607e-22)
(2.6016698 -0.031247921 5.5609973e-22)
(2.5971197 -0.022036039 -2.9439362e-23)
(2.592661 -0.014815361 -2.4988923e-22)
(2.5885584 -0.0088940283 4.5068819e-23)
(2.5858331 -0.0046670959 -1.2990725e-21)
(2.5839065 -0.0010249589 -2.0070127e-21)
(2.35846 -0.52557966 -7.3714306e-21)
(2.4857168 -0.47569112 -5.3030283e-20)
(2.5497161 -0.28882466 -2.7305671e-20)
(2.5350744 -0.055384929 -5.1203346e-20)
(2.39588 0.097195287 5.7316075e-20)
(2.2359727 0.10177015 6.2548761e-21)
(2.1630653 -0.015044564 8.7237452e-23)
(2.2004035 -0.16944998 1.5291399e-20)
(2.3060473 -0.28438212 1.206144e-20)
(2.4346777 -0.33028869 3.9334582e-21)
(2.5612314 -0.30680035 -2.4334895e-20)
(2.6487315 -0.22227257 -1.2117992e-20)
(2.6645349 -0.11435836 1.1981012e-20)
(2.622702 -0.036342017 -1.847798e-20)
(2.5605994 -0.0038817324 2.5924306e-21)
(2.5060341 -0.0090296956 2.402926e-21)
(2.471536 -0.036393582 5.0342123e-22)
(2.4585148 -0.071217793 -6.1869952e-21)
(2.4632486 -0.10414841 1.5098665e-21)
(2.4806648 -0.12975292 1.2233756e-20)
(2.5055068 -0.14542971 -3.4154123e-21)
(2.5329213 -0.1507032 -7.1596259e-22)
(2.558958 -0.14671906 -1.0180044e-21)
(2.5809114 -0.13563916 4.4693355e-21)
(2.5973945 -0.12001064 -6.0654981e-22)
(2.6081556 -0.10223201 4.2219736e-21)
(2.6137381 -0.084224452 -4.8005189e-21)
(2.615111 -0.067292162 -4.1473521e-21)
(2.6133831 -0.05221848 -1.8760934e-21)
(2.6095824 -0.039273134 -1.065816e-21)
(2.6046601 -0.028592342 -8.0428927e-22)
(2.5992751 -0.019861432 -1.168213e-21)
(2.5942059 -0.013128651 -2.7576308e-22)
(2.5896717 -0.0077266908 1.0851852e-21)
(2.5866414 -0.0039542263 5.8922185e-22)
(2.5844889 -0.00083302181 1.2891594e-22)
(2.354793 -0.53603775 -3.5601585e-21)
(2.4745654 -0.49468063 4.619226e-22)
(2.5414558 -0.29282114 8.9751904e-20)
(2.5150375 -0.036057149 -5.9845268e-20)
(2.3667164 0.13390269 1.1351344e-21)
(2.1993318 0.1389491 -3.9218446e-20)
(2.1145183 0.0019612398 4.821345e-20)
(2.160821 -0.18175244 -1.2409141e-20)
(2.2786966 -0.30858531 8.0652343e-22)
(2.4229172 -0.36544797 3.6967077e-20)
(2.5668651 -0.34341272 6.6028333e-20)
(2.6690314 -0.24857745 7.9724659e-20)
(2.6952605 -0.11993684 2.5047444e-20)
(2.6513917 -0.023428941 -1.6583398e-21)
(2.5770972 0.019088297 1.1776762e-20)
(2.5080878 0.015564517 3.3516607e-21)
(2.4626313 -0.015948295 -7.7978134e-21)
(2.4426611 -0.057739767 1.4269169e-21)
(2.4438813 -0.098340758 1.0813661e-20)
(2.4606431 -0.13148872 8.9694349e-21)
(2.4872114 -0.15383302 -1.7027515e-21)
(2.5181255 -0.16433503 1.0726887e-21)
(2.5487064 -0.16380467 1.2546674e-21)
(2.5754998 -0.15436473 -1.5349028e-21)
(2.5964874 -0.13879237 2.8372281e-21)
(2.6109962 -0.11988942 7.7869193e-21)
(2.6193798 -0.10002308 -7.4309761e-22)
(2.6226068 -0.080910487 6.5802591e-22)
(2.6218868 -0.063591565 -2.5686651e-22)
(2.6184268 -0.048598828 -4.0052073e-21)
(2.6132595 -0.036010561 -1.6418529e-21)
(2.6072984 -0.025815413 2.9626308e-22)
(2.601144 -0.017632161 5.525523e-22)
(2.5955196 -0.011425693 -4.0965711e-22)
(2.5905992 -0.0065598181 1.9783834e-21)
(2.5872955 -0.0032641777 -1.8138845e-21)
(2.5849271 -0.00065255633 2.8573606e-21)
(2.3485545 -0.54541414 -6.1051394e-21)
(2.4608158 -0.51231818 4.6535866e-20)
(2.527899 -0.29463922 5.5826473e-20)
(2.4892292 -0.01387529 2.7445191e-20)
(2.3373225 0.17283427 1.9839513e-20)
(2.1653738 0.17817575 -5.7463516e-20)
(2.0680536 0.025896408 -7.5975812e-22)
(2.113189 -0.18787571 3.7369272e-20)
(2.2521657 -0.33732504 -2.5151384e-21)
(2.4077321 -0.40070307 -4.4925672e-21)
(2.5675402 -0.38001631 -2.7944481e-21)
(2.6852025 -0.27612762 3.8849385e-20)
(2.7157779 -0.12444202 -6.49979e-21)
(2.675098 -0.0075560554 2.2655789e-20)
(2.5936991 0.045855882 -1.1973404e-20)
(2.5112157 0.044499797 2.6164863e-21)
(2.4530266 0.0084108716 -2.7938822e-22)
(2.4251803 -0.040846712 -1.4230008e-21)
(2.4221714 -0.089848459 -5.231967e-21)
(2.4377311 -0.13127893 -2.7388828e-20)
(2.4656771 -0.16117606 1.3716223e-21)
(2.5000302 -0.17785544 -4.2710657e-21)
(2.5354087 -0.18168197 -6.4940155e-21)
(2.5675669 -0.17461433 3.2464911e-21)
(2.593749 -0.15957611 3.9221163e-21)
(2.6127373 -0.13975426 -4.6903101e-22)
(2.6245931 -0.11800848 -2.5278e-22)
(2.6302245 -0.096522572 1.7971866e-22)
(2.6309413 -0.076718066 4.8458275e-21)
(2.628109 -0.059333702 -2.333714e-21)
(2.6229672 -0.044649847 3.2788378e-21)
(2.6165099 -0.032569582 -3.2041222e-21)
(2.6095893 -0.022953724 -1.5420183e-21)
(2.6027364 -0.015372055 1.1841828e-22)
(2.5966139 -0.009721496 1.1450507e-21)
(2.5913504 -0.0054017841 -2.249189e-22)
(2.587805 -0.0026003057 -9.1694121e-22)
(2.5852727 -0.0004787586 0)
(2.3392632 -0.55370843 9.419322e-21)
(2.4444338 -0.52799675 2.6338769e-20)
(2.5084312 -0.2941972 -2.5272779e-20)
(2.4594968 0.01042662 8.805034e-20)
(2.3091019 0.21286877 -4.1934486e-20)
(2.1362494 0.21931265 9.058235e-20)
(2.0275455 0.050168165 9.6826511e-22)
(2.0614242 -0.18978333 -5.0050899e-20)
(2.2146078 -0.36126205 2.8545197e-20)
(2.3918774 -0.43728624 -3.9017764e-20)
(2.5612223 -0.41777085 -9.356234e-20)