/*--------------------------------*- C++ -*----------------------------------*\
| =========                 |                                                 |
| \\      /  F ield         | OpenFOAM: The Open Source CFD Toolbox           |
|  \\    /   O peration     | Version:  v2012                                 |
|   \\  /    A nd           | Website:  www.openfoam.com                      |
|    \\/     M anipulation  |                                                 |
\*---------------------------------------------------------------------------*/
FoamFile
{
    version     2.0;
    format      ascii;
    class       surfaceScalarField;
    location    "34.6034524671462194";
    object      meshPhi;
}
// * * * * * * * * * * * * * * * * * * * * * * * * * * * * * * * * * * * * * //

dimensions      [0 3 -1 0 0 0 0];
oriented        oriented;


internalField   nonuniform List<scalar> 
18180
(
-1.0779295e-13
0.064515045
0
0.05940281
0
0.12431162
0
0.054613405
0
0.11421459
1.0027702e-13
0.17994378
-5.3866497e-14
0.050183241
1.039049e-13
0.10407862
0
0.16491672
-9.6798659e-14
0.23307913
0
0.046543342
0
0.09562751
1.0025402e-13
0.1504049
0
0.21414433
-9.3397177e-14
0.28403752
2.7101727e-17
0.043677972
-2.4436251e-17
0.088891031
-2.267479e-17
0.13803135
9.6730893e-14
0.19559542
0
0.2620678
0
0.33304845
-2.7458141e-17
0.041250769
2.4615093e-17
0.083337834
-2.2644028e-17
0.12807605
-9.6738169e-14
0.17955811
0
0.24041096
0
0.30840694
0
0.37922813
0
0.03913018
-2.4845887e-17
0.078646451
5.0118979e-14
0.12002936
-2.2026967e-17
0.16640074
0
0.22104431
0
0.28420986
0
0.35232577
8.385863e-14
0.42248925
-5.3762842e-14
0.037184573
0
0.074451345
0
0.11313352
-4.8339439e-14
0.15550003
4.6673636e-14
0.20447473
0
0.26193299
8.6891437e-14
0.32605721
0
0.39350725
-8.09502e-14
0.46253963
0
0.035349297
0
0.070555659
0
0.10692407
0
0.14620248
-4.6643741e-14
0.19051062
9.0049732e-14
0.24233519
-4.3461398e-14
0.301604
8.3841766e-14
0.36559719
0
0.43179636
0
0.49988673
0
0.033584509
-5.1887571e-14
0.066853228
0
0.10115098
0
0.1379964
0
0.17875079
0
0.22554823
-2.1490031e-17
0.27957626
0
0.33940812
-8.0937449e-14
0.40248077
0
0.46743616
-7.53612e-14
0.53430697
0
0.031876091
0
0.063291777
-5.0071259e-14
0.095656083
9.6637052e-14
0.13045135
0
0.16850414
0
0.2111727
-4.3427698e-14
0.26020407
-4.1930802e-14
0.31546363
-1.947819e-17
0.374928
0
0.43688691
0
0.50033176
7.2683114e-14
0.56610132
0
0.030217847
0
0.059845932
0
0.090376136
0
0.12331789
0
0.1592181
4.4991463e-14
0.19876556
0
0.24350936
8.3830062e-14
0.29404282
4.0420269e-14
0.3494338
3.9025981e-14
0.40816824
-7.5352657e-14
0.46866136
0
0.53065405
0
0.59515067
-2.6863688e-14
0.028605664
0
0.056509949
0
0.085280544
0
0.11647733
0
0.15054687
0
0.18770264
0
0.22892007
-4.1919949e-14
0.27506301
-4.0435355e-14
0.32615206
-3.9021672e-14
0.38132309
0
0.43894063
0
0.49795627
0
0.55843732
0
0.62199456
2.6858586e-14
0.027037258
0
0.053282954
2.5019688e-14
0.080363605
0
0.10988379
0
0.14226555
0
0.17742295
0
0.21580274
0
0.25817639
-1.9812503e-17
0.30509066
0
0.35642927
-3.7670235e-14
0.41102523
0
0.46735329
0
0.52479121
0
0.58402961
-6.5299528e-14
0.64647303
-2.6853916e-14
0.025516501
2.5903308e-14
0.050174298
2.5003136e-14
0.075636482
2.4145402e-14
0.10352607
0
0.13429361
0
0.16768098
0
0.20374589
0
0.24301624
0
0.28616628
0
0.33373949
3.7667167e-14
0.38504564
0
0.43857951
0
0.49341125
-6.7680536e-14
0.54948542
0
0.60739759
0
0.66897439
2.6834052e-14
0.024048451
0
0.047194289
-2.5010576e-14
0.071115799
-2.4141133e-14
0.097411932
1.1471167e-17
0.12660322
-4.498192e-14
0.15834077
0
0.19242381
4.1881606e-14
0.22917965
0
0.26916992
0
0.31324014
0
0.36116904
3.6345144e-14
0.41167532
-3.5070756e-14
0.46392016
-1.3197422e-17
0.51736277
-6.5297845e-14
0.57200888
0
0.62881138
6.0757273e-14
0.68938055
0
0.022633641
2.5894875e-14
0.044351725
2.4994622e-14
0.066817529
-2.4137119e-14
0.091559545
-1.1570484e-17
0.1191947
0
0.14935546
0
0.18164518
0
0.21629066
-1.9847065e-17
0.25367908
0
0.29459017
0
0.33931555
-3.6342908e-14
0.38686461
0
0.43626406
-3.3838014e-14
0.48715858
-3.2636381e-14
0.53919815
0
0.59261758
0
0.64830316
-5.8630209e-14
0.7081703
0
0.021271642
2.5904361e-14
0.04164768
0
0.062746955
-2.412176e-14
0.085985718
-2.3294464e-14
0.11208143
-1.1440512e-17
0.14071051
2.1701035e-14
0.17132306
0
0.2041121
0
0.23931942
0
0.27756701
0
0.31933882
0
0.36399452
0
0.41057592
0
0.45875761
-1.250569e-17
0.50837813
0
0.5591351
0
0.6113832
-5.8631037e-14
0.66618858
-5.6558971e-14
0.72518192
-2.6839204e-14
0.019960928
-2.5887859e-14
0.039082065
-4.9986672e-14
0.058906808
-1.1620475e-17
0.080700996
2.3279402e-14
0.1052788
2.2469362e-14
0.13241256
4.3385002e-14
0.16142048
-2.0931811e-14
0.19250992
0
0.22583232
0
0.26185284
0
0.3009243
0
0.34272744
0
0.38664629
-3.3835755e-14
0.43224525
3.2647357e-14
0.47932316
-3.1498757e-14
0.52770526
0
0.57730594
0
0.62857445
0
0.68242348
0
0.74077825
0
0.018701551
-2.5898062e-14
0.036652467
0
0.055295854
1.1626707e-17
0.075710496
2.3276223e-14
0.098803617
0
0.12447377
2.1684042e-14
0.15192854
0
0.18143073
0
0.21303973
-3.899319e-14
0.24711312
0
0.28381961
0
0.32289586
0
0.36414545
0
0.40732986
0
0.45205063
0
0.49803944
3.0378926e-14
0.54535638
0
0.59391143
5.6546105e-14
0.64418511
0
0.69725313
0
0.75481978
0
0.017498774
0
0.034354675
2.4981252e-14
0.051909644
-2.4112028e-14
0.071014181
1.1728868e-17
0.092662675
0
0.11690325
0
0.14285023
4.1852596e-14
0.17084696
-1.0343979e-17
0.20086303
1.9504474e-14
0.23318813
3.7629483e-14
0.2678517
0
0.3044617
0
0.34304139
0
0.38380021
0
0.4263664
0
0.47014864
0
0.51514731
-2.9318141e-14
0.56143603
-5.6556392e-14
0.60900254
-1.4577289e-17
0.65840968
0
0.71066859
0
0.76770527
7.9089868e-18
0.016356812
0
0.032184461
0
0.048735536
2.4109293e-14
0.066607037
-2.3282278e-14
0.086857503
2.2472633e-14
0.10970695
0
0.13419032
1.0895138e-17
0.16075116
-2.020598e-14
0.18925995
1.9492338e-14
0.21996391
9.7942842e-18
0.25283931
0
0.28730623
0
0.32340038
-3.3833523e-14
0.36167794
0
0.40202604
0
0.44377838
3.0379703e-14
0.48667145
2.9319399e-14
0.53072383
-2.8283896e-14
0.57607643
0
0.62270393
0
0.67129571
0
0.72291849
4.8958478e-14
0.77927454
-7.8971965e-18
0.01527719
0
0.030137292
0
0.045754393
2.41068e-14
0.062476226
0
0.081385809
0
0.10289073
-2.1676245e-14
0.12595737
-2.0932365e-14
0.15114535
0
0.17821667
1.9490306e-14
0.20738345
0
0.23864086
-1.8155193e-14
0.27123326
0
0.3051095
0
0.34092483
0
0.37898677
0
0.41874427
0
0.45970097
0
0.50174002
-2.8276714e-14
0.54491278
-2.7285367e-14
0.58933412
0
0.63513447
0
0.68301236
0
0.73395235
0
0.78983951
0
0.014260255
-1.2937792e-14
0.028209433
-1.2487026e-14
0.042947716
2.4104539e-14
0.058605208
0
0.076242178
0
0.096454835
0
0.11815714
0
0.14203455
2.0191079e-14
0.16772901
1.9498838e-14
0.1954145
0
0.22516898
-1.8163044e-14
0.25608238
-1.752039e-14
0.28798805
0
0.32154986
0
0.3573206
3.1487564e-14
0.39498343
0
0.43400013
-1.0394237e-17
0.47420938
0
0.51545719
0
0.55776269
2.6314293e-14
0.60137873
-2.5382026e-14
0.64636592
-4.8974535e-14
0.69356399
0
0.74396914
0
0.79927007
7.863579e-18
0.013306377
6.7263919e-18
0.026396622
2.4972124e-14
0.040303102
-1.2051252e-14
0.054975055
0
0.071413863
0
0.090389504
-2.1683336e-14
0.1107872
2.0916973e-14
0.13341322
0
0.15778789
0
0.18404277
0
0.21237071
-9.4415162e-18
0.24173233
-1.7527702e-14
0.27187455
1.6915201e-14
0.30343127
-3.2646311e-14
0.33695756
0
0.37242582
-3.0394073e-14
0.40948476
0
0.44788453
0
0.48743071
0
0.52789802
-2.6316644e-14
0.5694215
-5.0781434e-14
0.61220292
2.4483996e-14
0.65646531
0
0.70308324
0
0.75296134
0
0.80790071
-2.6825413e-14
0.012415083
0
0.02469508
0
0.037811956
-5.8358217e-18
0.051570597
5.7462124e-18
0.066886495
0
0.084681717
0
0.10383706
0
0.12526703
0
0.14837971
1.9495534e-14
0.17324884
-1.0561738e-17
0.20021136
0
0.22811791
-8.4569012e-18
0.25662552
0
0.28636454
1.6315804e-14
0.31782173
0
0.35107605
0
0.38608673
0
0.42267177
0
0.46055486
-8.6174494e-18
0.49943783
2.631929e-14
0.53916934
0
0.57990054
2.4486579e-14
0.62192514
2.3622095e-14
0.66549682
0
0.71163271
0
0.76112282
4.2376134e-14
0.81562307
0
0.011584287
-6.7748457e-18
0.023102963
6.3997839e-18
0.035465618
-1.205539e-14
0.048376082
1.1630142e-14
0.062646227
-1.1231321e-14
0.079315817
0
0.097297483
0
0.11758179
0
0.13948197
0
0.16301091
0
0.18866408
-1.8159283e-14
0.21518389
1.7525671e-14
0.2421519
-1.6913854e-14
0.27022929
1.6315488e-14
0.29982847
0
0.33098302
0
0.36385992
0
0.39857853
-2.8294319e-14
0.43481152
0
0.4721269
2.6330022e-14
0.51034014
-2.539697e-14
0.54932787
-2.4489599e-14
0.58929434
-2.3625026e-14
0.63056991
-2.2780498e-14
0.67359493
-4.3948746e-14
0.71932987
0
0.76844787
0
0.822698
0
0.010810494
0
0.021615281
-6.4460548e-18
0.033255038
0
0.045376857
0
0.058675198
-1.1230583e-14
0.074275997
0
0.091154033
0
0.11033941
0
0.13107436
-1.0985231e-17
0.15330534
0
0.17769615
1.8158109e-14
0.20289238
0
0.22839064
0
0.25491684
1.6315113e-14
0.28285006
1.574455e-14
0.31211192
0
0.3429176
0
0.37567944
0
0.41020667
-2.7298433e-14
0.4459481
-2.6325264e-14
0.4826737
7.1034072e-18
0.52019686
2.4493023e-14
0.55842812
2.3628488e-14
0.59765492
-2.278796e-14
0.63830931
0
0.6808101
0
0.72622185
0
0.77508804
3.9420769e-14
0.82908475
0
0.010084156
0
0.020226128
0
0.031173231
1.2048225e-14
0.042557598
5.6530498e-18
0.054956972
0
0.069547742
-5.7630103e-18
0.085391022
6.0227349e-18
0.10352076
0
0.12312874
0
0.14411047
0
0.16728357
1.8156974e-14
0.191209
1.7523669e-14
0.2152948
0
0.24035734
1.6321888e-14
0.2667692
1.5744508e-14
0.2943343
0
0.32323286
0
0.3539898
0
0.38674832
0
0.42095758
0
0.45617157
0
0.49226362
0
0.52906125
-2.3632429e-14
0.56655706
4.697056e-18
0.60512315
-2.1979953e-14
0.64516069
0
0.68724371
0
0.73240651
0
0.78110616
3.8020543e-14
0.83504694
4.6125244e-05
0.011030921
0
0.018922097
0
0.029214058
0
0.039907429
-5.6333083e-18
0.051477214
1.1229351e-14
0.065116902
-2.1670262e-14
0.079990467
-1.0454533e-14
0.097107034
5.8850275e-18
0.1156209
0
0.13540408
0
0.15739959
0
0.18010599
0
0.20283294
-1.690399e-14
0.22649561
-1.6321494e-14
0.251498
0
0.27752443
-5.8462679e-18
0.30469232
-1.4661099e-14
0.33355641
0
0.36449171
0
0.39712237
0
0.43086043
-7.7061609e-18
0.46551174
0
0.50094151
-2.3631068e-14
0.53700477
-4.8984655e-18
0.57381189
4.1761896e-18
0.61174621
6.358996e-14
0.65125347
2.0441495e-14
0.6929474
-3.9432235e-14
0.73797518
0
0.78664326
0
0.84050871
7.7408356e-05
0.01097796
0.00012831482
0.020595859
0
0.027362789
0
0.0374165
0
0.048222211
-5.9997457e-18
0.060966989
1.0837554e-14
0.074932921
0
0.091075708
1.00959e-14
0.10852122
5.5940097e-18
0.1271599
-1.8810704e-14
0.14802335
0
0.1695564
-1.752176e-14
0.19097178
0
0.21329767
1.6321094e-14
0.23697879
-6.526367e-18
0.26157783
0
0.28717458
-1.4667191e-14
0.31431907
1.4147026e-14
0.34341737
4.9021198e-18
0.37436171
0
0.40667051
0
0.43994784
2.4505084e-14
0.47402567
0
0.50875804
-2.2795258e-14
0.54411399
2.1983661e-14
0.58026737
-2.1200312e-14
0.61761975
-2.0447683e-14
0.65662201
-2.7330914e-18
0.69804536
0
0.74301821
-3.6671769e-14
0.79171534
0
0.84563368
9.5606932e-05
0.010928369
0.00021578655
0.020615891
0.0001979341
0.029582672
0
0.035063254
0
0.045178578
0
0.057082238
1.0831303e-14
0.070193332
6.2219288e-18
0.085402676
1.0089472e-14
0.10180411
-9.7439668e-15
0.11934875
5.8277269e-18
0.139128
0
0.15953436
0
0.17968798
-1.6910374e-14
0.2007326
0
0.22316824
0
0.24643261
0
0.27056392
0
0.29612837
0
0.323497
-1.3655614e-14
0.35268345
-1.3169701e-14
0.38347852
0
0.41546385
0
0.44827875
-2.3646635e-14
0.48174612
0
0.51579079
4.3981239e-14
0.55045565
0
0.58597968
0
0.62280841
0
0.66140672
-1.9017822e-14
0.70258597
-4.4950672e-18
0.74759133
-3.5368368e-14
0.79640631
3.4109137e-14
0.85034424
0.00010246845
0.010886093
0.00026705033
0.020633403
0.00033341648
0.029717192
0.00025773939
0.037648361
0
0.042320809
0
0.053449293
0
0.065755546
-1.046571e-14
0.080062831
5.9408231e-18
0.095448715
9.743498e-15
0.11194703
0
0.13069323
-9.0659144e-15
0.15001928
0
0.16895647
0
0.18877364
-7.3917791e-18
0.21003625
-1.5750437e-14
0.23203864
1.5199954e-14
0.25478478
-1.466816e-14
0.27888794
0
0.30467376
1.365206e-14
0.33213635
1.3171559e-14
0.36125629
-1.2706647e-14
0.3918766
0
0.42356179
0
0.45589002
0
0.48874162
0
0.52209459
0
0.55607767
4.0905078e-14
0.59103709
1.9725261e-14
0.62741597
-1.9020785e-14
0.66563338
3.6681558e-14
0.70665854
-3.5375494e-14
0.75175813
0
0.80073485
0
0.85479809
9.9702922e-05
0.010851525
0.00028676727
0.020656555
0.00041326791
0.029835917
0.00043459008
0.037948053
0.00030812503
0.04508977
0
0.050036453
0
0.061604603
0
0.075038173
1.0088668e-14
0.089437249
5.6141006e-18
0.10493815
-9.4040495e-15
0.12269741
0
0.1409903
-8.7596022e-15
0.15876058
0
0.17739851
0
0.19755118
0
0.21836021
0
0.23978692
0
0.26251252
-1.415478e-14
0.28684884
1.365324e-14
0.31270536
-4.4677379e-18
0.34008978
0
0.3691308
0
0.39963677
0
0.43100387
0
0.46283726
0
0.49505565
0
0.52771039
0
0.56105486
0
0.59550404
-1.9021891e-14
0.63148844
-1.8344688e-14
0.66940156
-1.7689688e-14
0.71031689
-3.4117527e-14
0.75558083
0
0.80478003
3.1726371e-14
0.85886927
8.8997666e-05
0.010824487
0.00027950767
0.020684336
0.00044437834
0.029948475
0.00053909383
0.038214635
0.00051966929
0.045544001
0.00035424757
0.052884421
0
0.057701973
0
0.070309695
0
0.083755653
-9.7427029e-15
0.09830563
6.067388e-18
0.11512424
9.0757474e-15
0.13242749
0
0.14908069
-8.4505089e-15
0.16659054
0
0.18569115
-1.575e-14
0.20536759
-1.5199962e-14
0.22553043
0
0.24694778
5.1302106e-18
0.26993766
-1.3659085e-14
0.29431776
-1.3174766e-14
0.32004742
0
0.34736108
-3.8677033e-18
0.37644112
-1.1827585e-14
0.40685201
0
0.43787243
0
0.4691633
0
0.50072308
0
0.53269811
0
0.56544187
0
0.59944304
0
0.63509073
1.7690405e-14
0.67275735
1.7060557e-14
0.71365157
-3.4149598e-18
0.75911622
0
0.80850427
-3.060119e-14
0.86265696
7.2020358e-05
0.010804537
0.00024990853
0.020715554
0.00043367352
0.03005475
0.00058003681
0.038460382
0.00064486707
0.045953813
0.00059712247
0.053494112
0.00039836754
0.060596957
0
0.065844212
0
0.078390962
0
0.092038188
-6.1370188e-18
0.10795078
5.4581284e-18
0.12431002
0
0.13990178
0
0.15633481
3.815381e-18
0.17443353
0
0.19303572
0
0.21198882
0
0.23215213
0
0.2538776
0
0.27689737
0
0.30110616
-4.0145474e-18
0.32673547
1.226415e-14
0.35416182
-3.6540093e-18
0.38332586
1.141408e-14
0.41356369
0
0.4441727
0
0.47489272
2.046895e-14
0.50579048
0
0.53710874
0
0.56929526
0
0.60288509
-1.769373e-14
0.63828141
-1.7063049e-14
0.67579778
0
0.71672419
0
0.76239215
3.0602479e-14
0.81195553
-2.9512318e-14
0.86601859
5.0429965e-05
0.010791471
0.00020252298
0.020749203
0.00038812785
0.030153144
0.0005663667
0.03868457
0.0006940677
0.04633232
0.0007406148
0.054041022
0.00067145219
0.061471534
0.00044048147
0.068653042
0
0.073312974
0
0.086128326
0
0.10116202
-5.5021378e-18
0.11661269
4.0504915e-18
0.13120659
8.4537931e-15
0.1466146
0
0.16376074
7.8747665e-15
0.18134008
-1.5194344e-14
0.19913485
0
0.21809858
0
0.23862661
1.3655936e-14
0.26037255
2.6363252e-14
0.28318742
-1.2718348e-14
0.30726999
0
0.33299525
1.1832782e-14
0.36062182
0
0.3898077
-1.1008185e-14
0.41977883
0
0.44993798
0
0.48006349
-3.8295858e-18
0.51030717
0
0.54099253
-1.8357517e-14
0.57263931
-1.7699793e-14
0.60590184
0
0.64112929
-1.6066953e-18
0.67858386
0
0.71959579
0
0.76543448
0
0.81506889
0
0.86906566
2.5877411e-05
0.010785811
0.00014199758
0.020784933
0.00031481501
0.0302428
0.0005070956
0.038885455
0.00067791606
0.046677049
0.00079684996
0.054542709
0.00083265514
0.06225118
0.00074239264
0.069762414
0.00047772215
0.075836197
0
0.080552318
0
0.094744186
0
0.10931745
-4.0042262e-18
0.12297834
-8.4499385e-15
0.13741618
0
0.15365073
7.8746497e-15
0.17025644
7.5998541e-15
0.18694708
0
0.20476311
-1.4156817e-14
0.22415234
1.36566e-14
0.24469731
0
0.26621113
0
0.28888547
-1.2272078e-14
0.31304643
0
0.33904588
-3.5354823e-18
0.3668231
1.1011214e-14
0.39586557
-1.0619592e-14
0.42552299
0
0.45519236
0
0.4847192
1.904306e-14
0.51431573
0
0.54437122
1.7702623e-14
0.57553872
-1.707006e-14
0.6085331
1.6458872e-14
0.64368977
1.5868849e-14
0.68118163
-1.5302137e-14
0.72229553
0
0.76824963
0
0.81789577
0
0.87170501
0.010787502
0
7.2936983e-05
0.020822104
0.00022088719
0.030323659
0.00041145713
0.039061343
0.0006071773
0.046984802
0.00077807657
0.054995517
0.0008956831
0.062951249
0.00092042607
0.070734899
0.00080437884
0.077131908
0.00050880611
0.082794494
0
0.088666939
0
0.10240293
0
0.11520184
-3.6184582e-18
0.12872605
3.9743853e-18
0.14408586
0
0.15976242
0
0.17540118
2.4816152e-18
0.19212233
0
0.21043111
0
0.22983593
-4.2742931e-18
0.25011918
0
0.2714994
3.7108417e-18
0.29426073
0
0.3186916
0
0.34489963
-3.3431684e-18
0.37265972
-3.0527733e-18
0.40151388
0
0.43081325
0
0.45998305
0
0.48889792
-1.8370026e-14
0.51783896
0
0.54730225
0
0.57802711
1.6461014e-14
0.61083412
-1.5871607e-14
0.64601306
-1.3902975e-18
0.68362727
0
0.72486163
0
0.77084202
0
0.8203935
0
0.87403611
0.020859461
0
0.010795608
-2.5916309e-05
0.00011352262
0.030395191
0.00028875397
0.039211862
0.00049280047
0.04725249
0.00069673884
0.055395759
0.00087434951
0.063567461
0.0009895815
0.071582982
0.00099613421
0.078243037
0.00085619095
0.084384256
0.00053979201
0.090629485
0
0.095833132
-8.7579799e-15
0.10785973
0
0.12053097
-4.0151262e-18
0.13504016
3.4122561e-18
0.14983649
7.5997204e-15
0.16447694
0
0.18015512
7.0787089e-15
0.19743748
0
0.21576025
0
0.23487378
1.2718402e-14
0.25503415
0
0.27651675
3.6398067e-18
0.29952064
0
0.32417404
-1.1020672e-14
0.35046768
-3.1572336e-18
0.37814944
1.024782e-14
0.40677262
2.5131329e-18
0.43569854
0
0.46433122
0
0.49262123
0
0.52092665
0
0.54981765
0
0.58015648
-1.5876352e-14
0.61283589
0
0.64814548
1.4759271e-14
0.68596237
0
0.72728855
0
0.77321548
0
0.82260969
-2.5529918e-14
0.87597723
0.030455348
0
0.020896636
-7.3145672e-05
0.010810643
-5.0586346e-05
0.00014842849
0.039335783
0.00034593389
0.047478252
0.00056539565
0.055738966
0.0007826467
0.064097118
0.00096538247
0.072307047
0.0010697152
0.079197043
0.0010596349
0.085762139
0.00090870969
0.092625865
0.00056776433
0.097373413
0
0.10090449
0
0.11281784
0
0.12649455
-3.429737e-18
0.14044739
2.5259388e-18
0.15415382
7.3347804e-15
0.16884266
0
0.18514971
-1.3657959e-14
0.20244402
0
0.22044237
0
0.23944459
1.2273178e-14
0.25973681
0
0.28145069
0
0.30465509
1.10202e-14
0.3294327
-1.0632611e-14
0.35577356
1.0248236e-14
0.38335033
0
0.41168916
0
0.4401823
1.8381169e-14
0.46826515
0
0.49593327
1.7084633e-14
0.52361189
0
0.55196697
0
0.58195462
-1.5310925e-14
0.61459736
1.4762719e-14
0.65012562
-1.2556504e-18
0.6881952
1.372693e-14
0.72959747
2.6472409e-14
0.77535471
0
0.82450675
-1.4983967e-18
0.87764145
0.039430552
0
0.03050659
-0.00011391415
0.020933518
-0.00014281468
0.010834154
-7.2366644e-05
0.00017785738
0.047660378
0.00039684975
0.056022208
0.00063488727
0.064538021
0.00086352547
0.072908669
0.0010423205
0.079998935
0.0011371754
0.086947602
0.0011249873
0.094364551
0.00095626339
0.099743087
0.00058373456
0.10191145
0
0.10553829
0
0.1184294
0
0.1315711
0
0.14440847
0
0.15816611
-7.0789152e-15
0.17354412
-6.8340103e-15
0.18986183
6.5927579e-15
0.20679726
0
0.22469618
-1.2274441e-14
0.2438628
1.1843211e-14
0.26439003
-1.1426258e-14
0.28627688
1.1026311e-14
0.30958577
0
0.3345098
0
0.36087553
-2.8440531e-18
0.38824033
0
0.4162559
2.14593e-18
0.44430126
0
0.47181282
0
0.49886704
-1.6478852e-14
0.52593868
0
0.55377485
-1.5313864e-14
0.58347872
-1.4765522e-14
0.6161594
0
0.65198067
1.3727001e-14
0.69034304
1.3237034e-14
0.73174184
-2.5532225e-14
0.77726529
0
0.82613836
2.3743652e-14
0.87898224
0.047795791
0
0.039500286
-0.00014894274
0.030548429
-0.00022240863
0.020968924
-0.00020426345
0.010866648
-8.9592757e-05
0.00020401825
0.056243426
0.00044544356
0.064887211
0.00069997699
0.073390146
0.00093127252
0.080655126
0.0011073347
0.087942499
0.0012076295
0.095856679
0.0011842487
0.10180583
0.0009831517
0.10459304
0.00059043186
0.10597754
0
0.11079152
0
0.12318194
0
0.13521774
-7.3347998e-15
0.14810307
2.6346495e-18
0.16259821
0
0.17798608
-2.0866172e-18
0.19390887
1.9100162e-18
0.21075554
0
0.22885518
0
0.24826842
-1.1431826e-14
0.26895002
1.1025373e-14
0.29089263
0
0.31434628
0
0.33942673
-9.8960247e-15
0.36572514
0
0.39283873
0
0.42049708
8.8702589e-15
0.4480654
0
0.4750149
0
0.5014607
-1.5892027e-14
0.52792991
0
0.55529659
-1.4768337e-14
0.58477837
-8.1972149e-19
0.61756447
1.3729825e-14
0.65372389
-1.1408728e-18
0.6923773
-1.2765801e-14
0.73374259
0
0.77892897
0
0.82748874
0
0.88008537
0.056399284
0
0.047891157
-0.00017853119
0.03954384
-0.00029074621
0.030576618
-0.0003180301
0.021002361
-0.00025275217
0.010907477
-0.00010056473
0.00022891073
0.06514242
0.00049073
0.073752764
0.00075408744
0.081170791
0.00098880553
0.088751427
0.0011760344
0.097102219
0.0012714254
0.1035742
0.0012176739
0.10692971
0.00099436745
0.1089513
0.00059645531
0.1106429
0
0.11522359
0
0.12655847
0
0.13863232
-7.0790488e-15
0.15228088
-6.8292912e-15
0.16678892
0
0.18174929
6.3609383e-15
0.19759135
-6.1382609e-15
0.21467396
0
0.23303311
0
0.25259673
0
0.27328288
0
0.29531936
0
0.31902001
-9.8997802e-15
0.34419157
9.5437441e-15
0.37031471
-2.5222713e-18
0.39713735
8.8701803e-15
0.42442653
0
0.45151265
0
0.47789211
0
0.50373537
-1.5325809e-14
0.52963604
0
0.5565746
0
0.58589764
0
0.61883353
8.8808622e-19
0.65536438
1.2766806e-14
0.69431029
0
0.73552696
0
0.78035989
2.2899394e-14
0.82860095
-2.2084796e-14
0.88090213
0.065300724
0
0.056503329
-0.00020479992
0.047943232
-0.00034852794
0.039554239
-0.00041566393
0.030590559
-0.00039331209
0.021033222
-0.00028342601
0.010958205
-0.0001035969
0.00025199658
0.073996802
0.00052817954
0.081550366
0.00080017679
0.089377256
0.0010500322
0.09810198
0.0012382452
0.10504739
0.0013074667
0.10894671
0.001231642
0.11155965
0.0010045053
0.11396314
0.00060079241
0.11445965
0
0.11836927
0
0.12973582
0
0.14257044
-2.5142516e-18
0.15623617
-6.5912586e-15
0.1702892
-6.3612395e-15
0.18517382
-6.1425192e-15
0.20128435
5.9254962e-15
0.21863989
0
0.23715022
0
0.25667909
-3.2518136e-18
0.27740501
0
0.29968709
0
0.32358518
0
0.34871614
0
0.3746292
-8.8788996e-15
0.40115988
1.7117136e-14
0.42805635
0
0.4546506
1.590407e-14
0.48047228
0
0.50573487
0
0.53109081
0
0.55765353
-1.373518e-14
0.5868707
-1.3242737e-14
0.61999852
-1.2768245e-14
0.65690163
-2.4625384e-14
0.69607537
0
0.73711997
0
0.78154468
0
0.82946117
0
0.88151451
0.074121858
0
0.065381423
-0.00022960644
0.056553987
-0.00039986353
0.047940147
-0.00049824904
0.039531423
-0.00051387891
0.030590918
-0.00044076149
0.02106105
-0.00029153703
0.011021868
-9.6938168e-05
0.00027101477
0.081796506
0.00056016024
0.089822084
0.00084953075
0.098857701
0.001105532
0.10622516
0.0012734797
0.11063758
0.0013225482
0.1138258
0.0012441429
0.1168766
0.0010120266
0.11812633
0.00059879944
0.11698005
0
0.12134793
0
0.13344469
6.8293955e-15
0.14630285
-6.5934588e-15
0.15949905
1.8812615e-18
0.17347565
0
0.18865471
0
0.20504749
-5.7164103e-15
0.2225598
1.1034961e-14
0.24100312
0
0.26051536
0
0.2814468
0
0.30397181
3.0673365e-18
0.3279655
-2.8394264e-18
0.35299578
8.8807481e-15
0.37868276
-1.7128096e-14
0.40490121
-8.2554748e-15
0.43140397
7.9574838e-15
0.45750957
0
0.4827846
0
0.50748861
-1.4252504e-14
0.53233474
0
0.55856622
1.3245531e-14
0.58773397
0
0.62105525
1.2314178e-14
0.658319
-9.0652543e-19
0.69767487
0
0.73847262
2.2085192e-14
0.78251184
0
0.8301129
0
0.88188964
0.081908728
0
0.074154882
-0.00025240816
0.065383446
-0.00044814005
0.056534773
-0.00057174967
0.047882043
-0.00061593431
0.039473704
-0.00057562408
0.030576836
-0.0004528581
0.021088541
-0.00027222226
0.011099464
-7.8753476e-05
0.00028725804
0.090088361
0.00059443919
0.099370079
0.00089425386
0.10710852
0.0011369249
0.11199752
0.0012882885
0.11573748
0.0013360476
0.11940419
0.0012534464
0.12134083
0.0010085673
0.12094626
0.00059240809
0.11932609
0
0.12482732
0
0.13696009
0
0.14934981
-6.363586e-15
0.16246626
-6.1393549e-15
0.17675542
0
0.1922229
5.7170006e-15
0.20878011
-5.514772e-15
0.22619719
0
0.24457698
0
0.26426078
0
0.28543397
0
0.30812789
-9.2145007e-15
0.33215208
-2.7113211e-18
0.35705119
8.5685709e-15
0.38248455
-2.0624981e-18
0.4083827
7.9601351e-15
0.43447779
0
0.46010891
-1.4793239e-14
0.4848622
0
0.50903024
1.3743142e-14
0.53339453
2.6497735e-14
0.55935177
0
0.58849344
-1.2315672e-14
0.62201679
0
0.65958022
-7.9925839e-19
0.69907082
0
0.73963575
0
0.78325778
0
0.83055248
0
0.88210262
0.090175367
0
0.081921967
-0.00027117562
0.074093436
-0.00049231237
0.065285157
-0.00064060938
0.056445592
-0.00070698813
0.047766018
-0.00068976077
0.039380295
-0.00059110743
0.030544817
-0.0004221762
0.021114369
-0.00022052491
0.011191529
-4.7117704e-05
0.00030465643
0.099640835
0.00062549512
0.10769947
0.00091960044
0.11302312
0.001150394
0.11728695
0.0013015561
0.12153728
0.001346056
0.12412472
0.0012493508
0.12442501
0.0009978963
0.12357265
0.0005864768
0.12215143
0
0.12811973
0
0.13981124
0
0.15211589
6.1396199e-15
0.16555424
0
0.1801331
0
0.19577638
0
0.21221624
5.3252023e-15
0.22952507
0
0.24805375
-9.9127394e-15
0.26796388
0
0.28931446
0
0.31214366
2.8207838e-18
0.33615084
0
0.36085834
0
0.38603951
7.9625891e-15
0.41160419
0
0.43730701
0
0.46248095
0
0.48672685
0
0.51038019
-1.325377e-14
0.53430752
0
0.56003021
0
0.58916909
-1.1876741e-14
0.62283545
1.1452423e-14
0.66068418
-1.1044708e-14
0.70029344
0
0.7405666
2.0541469e-14
0.78381308
0
0.83081432
-1.9105514e-14
0.88210264
0.099669639
0
0.090125992
-0.00028713777
0.081832024
-0.00052876281
0.073907732
-0.00070330711
0.065087751
-0.00079194701
0.056287744
-0.0007920628
0.04758931
-0.00070808875
0.039247758
-0.00055061257
0.030493799
-0.00034127503
0.021139495
-0.00013148611
0.011290794
1.3406035e-14
0.0003204167
0.10799968
0.0006431619
0.11371405
0.00093060613
0.11846678
0.0011623466
0.12327043
0.0013112657
0.12647241
0.0013416516
0.12744785
0.0012361541
0.12730971
0.00098790918
0.12669901
0.00058101447
0.12477485
6.5936226e-15
0.13078766
0
0.14239503
0
0.15502037
0
0.16875101
5.7199741e-15
0.18351394
-5.5196972e-15
0.19902124
5.324443e-15
0.21531359
1.5593957e-18
0.23275772
0
0.25150189
0
0.27156415
9.2221252e-15
0.29306939
0
0.31599933
-8.5748882e-15
0.33993015
0
0.36444415
7.9711129e-15
0.38935971
7.6811805e-15
0.41459315
0
0.43990837
1.1763681e-18
0.46464391
0
0.48839983
0
0.51157195
-1.2780832e-14
0.53510068
0
0.56062438
-1.1878714e-14
0.58972939
-1.1453134e-14
0.62353039
1.1044453e-14
0.66161504
0
0.7013044
1.0270883e-14
0.74131528
1.9810698e-14
0.78416633
0
0.83088468
-1.8426709e-14
0.88197871
0.10800895
0
0.099510042
-0.00030398667
0.089939354
-0.00055965708
0.081599681
-0.00075523995
0.073599231
-0.00086892389
0.064790504
-0.000887163
0.056061417
-0.00081353251
0.047352156
-0.00065932814
0.039077132
-0.00044472287
0.03042005
-0.00020291347
0.021155154
0
0.01036314
0
0.00032940429
0.11407108
0.00065093187
0.1192723
0.00094038753
0.12459945
0.0011709782
0.12838044
0.0013070732
0.13000581
0.0013277072
0.13057029
0.0012238089
0.13070665
0.000978529
0.1296098
0.00057319973
0.12678668
0
0.13320738
0
0.14512068
0
0.15804004
5.7183347e-15
0.17196377
5.5202712e-15
0.1865777
-5.3251941e-15
0.20190066
-1.5416165e-14
0.21831983
-4.9573201e-15
0.23598143
-9.5645718e-15
0.25484761
9.225592e-15
0.27503887
8.8972171e-15
0.29672881
0
0.31971108
-8.2713818e-15
0.34350738
-2.2563341e-18
0.36781031
0
0.39245916
7.4076438e-15
0.41735649
0
0.44230797
0
0.46661345
0
0.4899033
0
0.51262821
0
0.53579544
-1.1881391e-14
0.56112565
1.1455227e-14
0.59019839
-1.1045321e-14
0.62405941
3.5673967e-19
0.6623763
0
0.702126
0
0.74184315
-1.9106287e-14
0.78435342
0
0.83080573
0.0080586249
0.8736199
0.11409565
0
0.10779056
-0.0003192517
0.099164568
-0.0005918319
0.089571249
-0.00079901785
0.081218372
-0.00093294433
0.073165405
-0.00097274116
0.064394098
-0.0009111508
0.055765166
-0.00075803363
0.047056044
-0.0005322771
0.038867784
-0.00026409095
0.030314636
0
0.01946603
0
0.011153807
0
0.00033340563
0.11970235
0.00065786641
0.12551912
0.00094741528
0.12984576
0.0011672914
0.13209087
0.0012936718
0.13334136
0.0013145853
0.13420675
0.0012121044
0.13387021
0.00096533242
0.13189118
0.00056355942
0.1285706
0
0.135762
0
0.1479644
0
0.16108657
-1.8304249e-18
0.17485002
1.5760145e-18
0.1892511
5.1406012e-15
0.20469645
4.9583944e-15
0.22134008
1.5106206e-18
0.23910371
0
0.25806464
0
0.27844942
0
0.30028528
-8.2758498e-15
0.3232341
0
0.34687477
0
0.37097128
-7.4121368e-15
0.39534257
-1.4288696e-14
0.41991873
-1.2497543e-18
0.44450644
-6.6351995e-15
0.46840758
0
0.49125891
0
0.51356959
-5.776066e-19
0.53639682
0
0.5615561
0
0.59053762
-1.0651756e-14
0.62444654
1.0271727e-14
0.66293624
-9.9059363e-15
0.70273985
-9.553072e-15
0.74221541
-1.8427409e-14
0.78436189
0.015740352
0.822932
0.0073364
0.86585511
0.11975713
0
0.11386172
-0.00032806409
0.10734709
-0.00062097194
0.098584506
-0.00084395726
0.089014925
-0.00098659395
0.080681506
-0.0010442948
0.072604176
-0.0009984075
0.063893955
-0.00084895886
0.055399815
-0.00061247021
0.046707051
-0.00031602294
0.038606512
1.2055565e-14
0.028058747
0
0.020840381
-1.293707e-14
0.011999724
0
0.0003370023
0.12602766
0.00066280766
0.13086601
0.00094445799
0.1336952
0.0011555405
0.13561255
0.001281052
0.13718637
0.0013019222
0.13759437
0.0011957489
0.13638909
0.00094894033
0.13395741
0.00055358878
0.13049227
0
0.13843908
0
0.1508458
0
0.16380451
5.3264404e-15
0.17732958
5.1413425e-15
0.19184806
-9.9202809e-15
0.20753023
9.5696354e-15
0.22426293
4.6172999e-15
0.24208439
0
0.26121166
0
0.2817863
0
0.30370396
0
0.32657247
-7.695031e-15
0.35004596
0
0.37392817
-7.1497114e-15
0.39802869
-1.4215257e-18
0.42228017
-1.1528581e-18
0.44652878
-6.3982077e-15
0.47004182
0
0.49248139
0
0.51439927
-1.1460763e-14
0.5369224
0
0.56190335
0
0.59077207
-2.0544536e-14
0.62464487
0
0.6633348
-9.553394e-15
0.70318807
1.8427634e-14
0.74237974
0.023080445
0.77694659
0.014329681
0.81560129
0.0065641296
0.85866934
0.12612257
0
0.11952091
-0.00033206644
0.11337364
-0.0006379619
0.10662225
-0.00088463784
0.097774905
-0.0010408093
0.088263965
-0.0011037896
0.079984617
-0.0010716624
0.071910907
-0.00092959694
0.063295617
-0.00068604706
0.054967529
-0.00036400386
0.046294686
0
0.035985408
0
0.029968883
2.4984054e-14
0.02230427
-1.2937855e-14
0.012906321
-8.1874249e-18