/*--------------------------------*- C++ -*----------------------------------*\
| =========                 |                                                 |
| \\      /  F ield         | OpenFOAM: The Open Source CFD Toolbox           |
|  \\    /   O peration     | Version:  v2012                                 |
|   \\  /    A nd           | Website:  www.openfoam.com                      |
|    \\/     M anipulation  |                                                 |
\*---------------------------------------------------------------------------*/
FoamFile
{
    version     2.0;
    format      ascii;
    class       volScalarField;
    location    "34.6034524671462194";
    object      p;
}
// * * * * * * * * * * * * * * * * * * * * * * * * * * * * * * * * * * * * * //

dimensions      [0 2 -2 0 0 0 0];


internalField   nonuniform List<scalar> 
9200
(
0.003015091
0.002996228
0.0039571665
0.002826611
0.004295046
0.0073706275
0.0027289367
0.0048540776
0.00783188
0.0095527426
0.0025033386
0.0057841096
0.0083994943
0.010198728
0.011829341
0.0022498968
0.0068091226
0.0093338567
0.010942744
0.012480787
0.01360505
0.0019676363
0.0079278845
0.010339852
0.012062266
0.013354807
0.014296553
0.015032961
0.0014705246
0.0089433377
0.011418011
0.013338807
0.014587199
0.015315442
0.015768402
0.016062378
0.00088167206
0.010126936
0.012509949
0.014696426
0.016036757
0.01668694
0.016923717
0.016848111
0.016710615
0.000408508
0.011498649
0.013611925
0.016107355
0.017553976
0.018348658
0.018441956
0.01813503
0.017544607
0.01698048
-0.00010936779
0.012716962
0.014696929
0.017484334
0.019138351
0.020081415
0.020323567
0.019812203
0.018954093
0.017854692
0.016886951
-0.00072898408
0.013789059
0.015709423
0.018828577
0.020655408
0.021903789
0.022297038
0.021931306
0.020790823
0.019371865
0.017787734
0.016449312
-0.001353261
0.014672594
0.016713691
0.020086696
0.022093606
0.023641518
0.0243973
0.024185538
0.023152895
0.02135658
0.019390153
0.017358288
0.015694542
-0.0018928432
0.015366329
0.017701132
0.021248629
0.023380884
0.025268367
0.026421398
0.026629053
0.025712794
0.023951778
0.021496915
0.019016099
0.01658941
0.014654752
-0.0022822184
0.015831161
0.018672883
0.022315488
0.02450423
0.026682524
0.028330019
0.029041003
0.028548356
0.026821192
0.024295512
0.021205489
0.018266568
0.015510908
0.013367891
-0.0024234198
0.016018179
0.019664274
0.023307543
0.025444085
0.027835565
0.029992019
0.031377774
0.031434196
0.03007151
0.027450153
0.024158448
0.020487784
0.017167014
0.014159527
0.0118747
-0.0022572171
0.015893805
0.020757113
0.024260732
0.026205799
0.028670639
0.031328386
0.033490922
0.034334515
0.033484782
0.031100212
0.027546225
0.023529017
0.019361082
0.01575193
0.012576292
0.010218578
-0.0017257714
0.015291404
0.022068008
0.025238954
0.026811777
0.029150326
0.032240322
0.035282616
0.037098993
0.037044794
0.035044264
0.031541404
0.027072198
0.022411948
0.017855276
0.014062212
0.010805754
0.0084429659
-0.00074177768
0.014045857
0.023716647
0.026295577
0.027305028
0.029250222
0.032639906
0.036628093
0.039629387
0.040614139
0.039293605
0.035964496
0.031321877
0.026013798
0.020829571
0.016010394
0.012144146
0.0088936097
0.006591267
9.2625859e-06
0.014328457
0.026069294
0.027497025
0.027732689
0.028957489
0.032440594
0.037406202
0.041796564
0.044110575
0.043735201
0.040858784
0.036122498
0.030399089
0.02438132
0.01882006
0.013874969
0.010046646
0.0068858408
0.0047035786
0.00066292506
0.016515169
0.02778787
0.028929104
0.028175948
0.028275808
0.031552789
0.037496598
0.043474245
0.04741688
0.048315148
0.046140079
0.041548369
0.03543559
0.028765555
0.022208939
0.016434488
0.011502881
0.0078197943
0.0048261855
0.0028173246
0.0012964176
0.018503186
0.028922518
0.030500719
0.028667827
0.027224688
0.029886894
0.036741535
0.044535093
0.050422856
0.052945164
0.051787404
0.047544844
0.04122478
0.033870432
0.026448415
0.019550363
0.013733396
0.0089508286
0.0055123763
0.0027557616
0.00096866723
0.0011631367
0.019466161
0.030676101
0.032213616
0.029304162
0.02582752
0.027342009
0.035022536
0.044797755
0.053004452
0.057554628
0.057747467
0.054123706
0.047738346
0.039818369
0.031443408
0.023504243
0.016474382
0.010782495
0.0062754079
0.0031710486
0.00071236004
-0.00081039276
0.00038760305
0.019335057
0.033313283
0.034185443
0.030145511
0.024136425
0.023808336
0.032199377
0.044142445
0.055092449
0.062042682
0.06397859
0.061263688
0.055016233
0.046601431
0.037328908
0.028213178
0.020012233
0.01305871
0.0076492264
0.0035312539
0.00083872789
-0.0012701099
-0.0025023323
-0.00028970455
0.01825715
0.037014438
0.036389767
0.031216667
0.022216113
0.019160842
0.028084544
0.042437199
0.056500565
0.066333565
0.070426042
0.068951926
0.063063436
0.054279519
0.044109579
0.03381669
0.024272315
0.016066287
0.0093850417
0.0043993599
0.000769372
-0.0014463502
-0.0031641296
-0.0040890397
-0.00080034031
0.016723142
0.041464278
0.038730528
0.032541684
0.02014359
0.013246323
0.022488593
0.039485429
0.057050255
0.070335606
0.077035458
0.077167039
0.071893104
0.062876699
0.05185634
0.040323692
0.029390789
0.019735862
0.011767293
0.0055340473
0.001094998
-0.0019641981
-0.0036508208
-0.0049460061
-0.0055239916
-0.0010764967
0.01508083
0.045890303
0.041199209
0.034058165
0.018019452
0.0058866261
0.015186363
0.035097284
0.05664183
0.073927356
0.083743327
0.085875308
0.08150346
0.072424053
0.060602137
0.047804769
0.035372873
0.024194318
0.01473055
0.0072160889
0.0015822393
-0.0022075435
-0.0046288872
-0.0057452183
-0.0065923369
-0.0067880674
-0.0012271757
0.013766646
0.050219689
0.043674762
0.035680963
0.015961209
-0.0031319143
0.0059265852
0.029091757
0.055077891
0.077003851
0.09047097
0.095028087
0.091878992
0.082934591
0.070386367
0.056290905
0.042278135
0.029436638
0.018388834
0.0093842013
0.0025083098
-0.0024008787
-0.0054582376
-0.0071895412
-0.0077058252
-0.0080866657
-0.0079781013
-0.0011861653
0.013278726
0.053629168
0.045829174
0.037270794
0.014099004
-0.014043287
-0.005598756
0.021275266
0.052179521
0.079426645
0.097131288
0.10456047
0.10298216
0.094403869
0.081228283
0.065817962
0.050123684
0.035502528
0.022723611
0.012138999
0.0038178941
-0.0022694615
-0.0063538265
-0.0086140288
-0.0096165744
-0.0095161991
-0.0094249347
-0.0091106599
-0.00064125101
0.013052809
0.055733577
0.047335736
0.038532169
0.012405792
-0.027201931
-0.019754929
0.011405313
0.047688146
0.081064725
0.10361638
0.11438219
0.11474626
0.10679949
0.093129069
0.076401057
0.058928541
0.042384091
0.027748058
0.015448151
0.0056003352
-0.0018598079
-0.0070415866
-0.010223767
-0.011638546
-0.011886504
-0.011162312
-0.010596243
-0.0099973223
0.00051600285
0.011981986
0.056212495
0.047831296
0.039277307
0.010272893
-0.04272411
-0.03700939
-0.0007604311
0.041308965
0.081712981
0.10981083
0.12437518
0.12707081
0.12005452
0.10605938
0.088038233
0.068689429
0.050068634
0.033420892
0.019296819
0.0078131192
-0.0010893752
-0.0075557655
-0.011743843
-0.013966123
-0.014501841
-0.013981048
-0.012629588
-0.011585531
-0.010565398
0.0022529567
0.0091924712
0.055662989
0.046967539
0.039249489
0.0078097176
-0.059834027
-0.057420328
-0.015434078
0.032927277
0.081167512
0.11554721
0.13439537
0.13981647
0.13405978
0.11995337
0.10069805
0.079387541
0.058518771
0.039686461
0.023606943
0.010416587
-4.1144904e-06
-0.0078148202
-0.013192874
-0.016322861
-0.017544123
-0.01717946
-0.015885416
-0.013909647
-0.012410417
-0.010914562
0.0043489662
0.0045051121
0.05363991
0.044969682
0.038058238
0.0042376969
-0.078256567
-0.080083962
-0.032610011
0.021968953
0.079215485
0.12068651
0.14425514
0.15280432
0.14865982
0.13469979
0.11431538
0.090977829
0.067680552
0.046456251
0.028272087
0.013298961
0.0013398629
-0.0078591664
-0.014484156
-0.018708934
-0.020734978
-0.020927783
-0.019652672
-0.017588134
-0.014998666
-0.013075953
-0.011143242
0.0063163728
-0.0020352876
0.049566611
0.040552517
0.035671802
-0.0014486114
-0.097658554
-0.10472469
-0.052883805
0.0084309385
0.075638945
0.12496485
0.15375914
0.16581354
0.16365205
0.15013745
0.12878168
0.10338791
0.077475237
0.053619738
0.03314114
0.016304302
0.0028070794
-0.007749296
-0.015642786
-0.021026967
-0.024054561
-0.024944783
-0.024093103
-0.021908202
-0.019083864
-0.015892183
-0.013560396
-0.011281059
0.0078595846
-0.010158521
0.042718695
0.033910162
0.031692113
-0.0086906813
-0.11503076
-0.13076284
-0.076204778
-0.0076472145
0.070219452
0.12825286
0.16264653
0.17860429
0.17878882
0.16605529
0.14394044
0.11650727
0.087804275
0.061039875
0.038028314
0.01921584
0.0042025235
-0.0076284653
-0.016719672
-0.023277658
-0.027390659
-0.029190634
-0.028923799
-0.027021468
-0.023935731
-0.020373288
-0.016604301
-0.013882465
-0.011315894
0.008670598
-0.019410561
0.033251427
0.024178284
0.026394907
-0.014131976
-0.13188646
-0.15899678
-0.10259514
-0.025996662
0.063058922
0.13027131
0.1707272
0.19088281
0.19379035
0.18219255
0.15958674
0.13018708
0.098537044
0.068561883
0.042711196
0.021762419
0.005253236
-0.0077119323
-0.017846794
-0.025488678
-0.030712403
-0.033536037
-0.034085861
-0.032649372
-0.029699087
-0.025727061
-0.02145376
-0.017137842
-0.014043049
-0.01124775
0.0087768949
-0.029273702
0.021137932
0.011079042
0.017921882
-0.017942084
-0.14857817
-0.18978965
-0.13208128
-0.047515737
0.054095484
0.13093539
0.17763144
0.20238113
0.20833965
0.19825368
0.17546481
0.14423453
0.10951944
0.076003084
0.046941697
0.023617249
0.0056092104
-0.0083058869
-0.019234448
-0.027761221
-0.034012749
-0.037914063
-0.039433051
-0.038714883
-0.036103369
-0.032116127
-0.027281555
-0.022327063
-0.017501292
-0.014052299
-0.011086973
0.0083592408
-0.03950876
0.0067194322
-0.0054013197
0.0055288393
-0.022159919
-0.16723993
-0.22038978
-0.16498155
-0.071211585
0.042769252
0.1300891
0.18324076
0.21275105
0.22213139
0.21390665
0.19128387
0.15841322
0.12055903
0.08317086
0.050440557
0.024406622
0.0048403238
-0.0098149892
-0.021191199
-0.030274286
-0.037345207
-0.042275046
-0.04486081
-0.04505735
-0.043056671
-0.039271433
-0.034265687
-0.028599878
-0.022996524
-0.017699803
-0.013920251
-0.010808711
0.0075115913
-0.049881159
-0.0096167454
-0.025270563
-0.010948785
-0.026887943
-0.18557987
-0.25513848
-0.19960606
-0.095655135
0.029338057
0.12757981
0.18725412
0.2218283
0.23482548
0.22882817
0.20671255
0.17245296
0.13143889
0.089839324
0.052919649
0.023707434
0.0024371897
-0.012747618
-0.024138179
-0.03330467
-0.040833789
-0.046612648
-0.050273241
-0.051535934
-0.050387695
-0.047093419
-0.042143419
-0.036145027
-0.029685631
-0.023469754
-0.017739914
-0.01365547
-0.010368978
0.0062666168
-0.059721138
-0.027332729
-0.048029522
-0.0307405
-0.032046369
-0.20451344
-0.28924495
-0.24211949
-0.12252696
0.015203272
0.12359543
0.18980751
0.22913042
0.2462069
0.24266242
0.22142579
0.1860431
0.14190833
0.095786945
0.054060107
0.021064004
-0.002190902
-0.017722077
-0.028614927
-0.037244917
-0.044691002
-0.050977302
-0.055597813
-0.058008878
-0.057923521
-0.055404426
-0.050810499
-0.044712379
-0.037754243
-0.030543163
-0.023755246
-0.017629232
-0.013266329
-0.0097971822
-0.06811374
0.0046080098
-0.046671533
-0.072931123
-0.052675332
-0.037931548
-0.22409683
-0.32345955
-0.28525845
-0.15638628
-0.0049117066
0.11906379
0.19073467
0.23530072
0.25584609
0.25516888
0.23505531
0.198876
0.15169355
0.1007494
0.053569173
0.015979735
-0.0097141671
-0.025475905
-0.035294554
-0.042610839
-0.049237369
-0.055491469
-0.060799243
-0.064338615
-0.065479572
-0.064006422
-0.060089029
-0.054195694
-0.046974517
-0.039096228
-0.03117923
-0.023862323
-0.017376655
-0.012762537
-0.0091374825
-0.067682954
-0.074026646
0.0024557017
-0.098791153
-0.075943595
-0.045698219
-0.24264111
-0.35701527
-0.32935252
-0.19163634
-0.032064305
0.10682043
0.19143143
0.23881987
0.26396937
0.26593782
0.24735209
0.2105916
0.16051656
0.10448967
0.051097492
0.0079630195
-0.020878971
-0.036873595
-0.044998853
-0.050063855
-0.054916567
-0.060371208
-0.065895462
-0.07039774
-0.072864594
-0.07268313
-0.069763669
-0.064423871
-0.057239822
-0.048928864
-0.040176369
-0.031602517
-0.023801032
-0.01699225
-0.012154368
-0.0083946875
-0.12461656
-0.09001861
-0.076442155
-0.00030314684
-0.098719584
-0.056323995
-0.25857182
-0.38788338
-0.37219037
-0.22763905
-0.06246666
0.089545627
0.18467857
0.24260877
0.26956414
0.27509738
0.25787115
0.22094848
0.16805961
0.10672851
0.046403397
-0.0035418029
-0.036502337
-0.052910137
-0.058702983
-0.060424305
-0.062316854
-0.065946837
-0.070982879
-0.076094485
-0.079853052
-0.081180564
-0.079595187
-0.075172169
-0.068392781
-0.059936629
-0.050577566
-0.04100228
-0.031822893
-0.023581768
-0.016486482
-0.011451832
-0.0075772348
-0.11917181
-0.14953088
-0.11193405
-0.074900673
-0.0037308944
-0.070987854
-0.27063469
-0.4137238
-0.41150876
-0.26364441
-0.094384942
0.06892708
0.17437695
0.23961166
0.27489813
0.28160029
0.26677631
0.22947111
0.17410676
0.1072248
0.039109308
-0.018949831
-0.057478003
-0.074734069
-0.077564135
-0.07469042
-0.072165966
-0.072688568
-0.076220025
-0.081388069
-0.086254589
-0.089214466
-0.08928485
-0.086189511
-0.080207446
-0.07198181
-0.062283217
-0.051925667
-0.041583143
-0.031850876
-0.023215404
-0.015870341
-0.010665068
-0.0066940856
-0.09023433
-0.13619226
-0.17284902
-0.13180265
-0.069129118
-0.0075050746
-0.27710087
-0.43239688
-0.44480171
-0.29789609
-0.12576239
0.046305185
0.16037813
0.23414349
0.27409182
0.28784794
0.27284234
0.23636287
0.17821351
0.10574791
0.029076075
-0.038926011
-0.084684847
-0.10361768
-0.10292668
-0.094050367
-0.085409159
-0.081148181
-0.081928756
-0.086287114
-0.091889775
-0.096488344
-0.098496077
-0.097148673
-0.092432379
-0.084845219
-0.075180243
-0.0642801
-0.052980344
-0.041929044
-0.031697856
-0.022714138
-0.015155342
-0.0098033291
-0.0057529494
-0.27646262
-0.11370885
-0.14986984
-0.19279699
-0.14870685
-0.060053121
-0.010693355
-0.44190822
-0.46963812
-0.32810998
-0.15484902
0.0218679
0.14384919
0.2246382
0.27301798
0.28764094
0.27878013
0.2402493
0.18061406
0.1020035
0.01590223
-0.063604865
-0.11928407
-0.14102321
-0.13635503
-0.11985666
-0.10316823
-0.092096522
-0.088487122
-0.090890193
-0.096604907
-0.10270021
-0.10684991
-0.10767573
-0.10472769
-0.098286007
-0.089063367
-0.077981102
-0.06593051
-0.053750128
-0.042051472
-0.031377451
-0.022091393
-0.014351789
-0.0088739126
-0.0047610957
-0.44070907
-0.26699568
-0.13751719
-0.16057049
-0.20831352
-0.16181435
-0.049718741
-0.012400038
-0.48387781
-0.35228652
-0.1805713
-0.0035031943
0.12411742
0.21243032
0.26721451
0.29031518
0.27826746
0.24414823
0.17988164
0.096129936
-0.00037641455
-0.093893972
-0.16185092
-0.18859612
-0.17966082
-0.15376512
-0.12671151
-0.10655943
-0.096469268
-0.095402301
-0.10030668
-0.10754689
-0.11394127
-0.117333
-0.11670012
-0.11196662
-0.10371218
-0.092843326
-0.080380719
-0.067239619
-0.054245686
-0.041965266
-0.030905424
-0.02135874
-0.013466393
-0.0078834291
-0.0037269575
-0.48781294
-0.42737674
-0.24995761
-0.15679832
-0.16844886
-0.21865305
-0.17031269
-0.039677521
-0.012391959
-0.36903647
-0.20180935
-0.029096558
0.10149671
0.19638864
0.25808174
0.28783597
0.28387749
0.24237633
0.17922143
0.087002401
-0.020150015
-0.12927339
-0.21430321
-0.2479088
-0.23484403
-0.19757483
-0.15747058
-0.12558927
-0.10662543
-0.10016402
-0.10298795
-0.11075763
-0.1193402
-0.1256385
-0.12787783
-0.12549292
-0.11880501
-0.10867513
-0.096170252
-0.082378081
-0.068215695
-0.054482467
-0.04168864
-0.030294939
-0.020521538
-0.012504487
-0.0068426128
-0.0026601668
-0.37747972
-0.47655844
-0.40247525
-0.22726529
-0.167706
-0.17358688
-0.22338139
-0.1739686
-0.030378278
-0.010971438
-0.2166812
-0.054361264
0.076037686
0.17632773
0.24509001
0.28055167
0.28419151
0.25007603
0.17483636
0.077487718
-0.043406641
-0.17138676
-0.27591686
-0.32178009
-0.3044722
-0.2536464
-0.19678319
-0.15045816
-0.11985777
-0.10567332
-0.10475352
-0.11212052
-0.12262239
-0.13206489
-0.13773088
-0.13838293
-0.13396405
-0.12518231
-0.11314282
-0.099032765
-0.083976507
-0.068873603
-0.05448085
-0.041236337
-0.029549884
-0.019583095
-0.011479909
-0.0057686331
-0.0015673781
-0.22401375
-0.37749527
-0.45262799
-0.36689141
-0.19900861
-0.16869151
-0.17580868
-0.22262941
-0.17329558
-0.021940894
-0.008601562
-0.079103953
0.047970726
0.15194773
0.22717215
0.26940623
0.27804022
0.2524302
0.18343635
0.068026185
-0.069275963
-0.21785927
-0.35054643
-0.41017866
-0.39102223
-0.3246503
-0.24778925
-0.18269671
-0.1372315
-0.11260647
-0.1058541
-0.11151383
-0.12339686
-0.13606808
-0.14566806
-0.15008806
-0.14871962
-0.14201842
-0.13104103
-0.11708749
-0.10142535
-0.085188186
-0.069235087
-0.054256966
-0.040610215
-0.028671187
-0.01856286
-0.010420375
-0.0046725805
-0.00044673205
-0.10263542
-0.22483482
-0.36858722
-0.4172426
-0.32307259
-0.16571709
-0.16008286
-0.17505962
-0.21680695
-0.16892901
-0.014366678
-0.0060023377
0.017580988
0.1229519
0.20376082
0.25272995
0.26718057
0.24680717
0.18685101
0.074727399
-0.088170411
-0.27281728
-0.43282311
-0.51945782
-0.49632141
-0.41241081
-0.31183957
-0.22415296
-0.16010796
-0.12182421
-0.10671367
-0.10894703
-0.12134082
-0.13711487
-0.15106455
-0.15998761
-0.1625317
-0.15874539
-0.14956197
-0.13632857
-0.12048913
-0.10335419
-0.086034668
-0.069317035
-0.053810119
-0.039808219
-0.027684838
-0.017506184
-0.0093433314
-0.0035372537
0.00076452533
-0.014934903
-0.12424106
-0.22207491
-0.35026009
-0.3733807
-0.27403738
-0.12908849
-0.14284402
-0.17001222
-0.20673352
-0.16114812
-0.007262593
-0.0036663187
0.08912312
0.17408315
0.22921991
0.25037841
0.23496212
0.18118666
0.077139449
-0.089646025
-0.30939651
-0.5341232
-0.64147084
-0.62621246
-0.52109318
-0.39152165
-0.27616622
-0.18981817
-0.13444719
-0.10796551
-0.10459328
-0.11624403
-0.13471895
-0.15328864
-0.16741721
-0.17478389
-0.17485639
-0.16831483
-0.15650588
-0.14100241
-0.12334297
-0.10483805
-0.086532392
-0.069115252
-0.053134651
-0.038864568
-0.026657019
-0.016439274
-0.0082113803
-0.0022516415
0.0020699202
0.050130045
-0.049778242
-0.14351392
-0.21778394
-0.32440417
-0.32463751
-0.2233345
-0.091286817
-0.12171616
-0.16011751
-0.19278138
-0.15210006
0.00037953804
-0.0016026177
0.13719695
0.19771643
0.22548847
0.21627146
0.16762744
0.070328954
-0.093686525
-0.33183464
-0.60644567
-0.79376842
-0.76992995
-0.65031468
-0.49087033
-0.34226317
-0.22788678
-0.15160816
-0.11048208
-0.098841973
-0.10804624
-0.12848639
-0.15173537
-0.17169114
-0.18480818
-0.18977014
-0.18684647
-0.1772878
-0.16277395
-0.14503968
-0.12566096
-0.10589081
-0.086672286
-0.068619582
-0.052273801
-0.037871089
-0.025625187
-0.015286738
-0.0068408753
-0.0008735977
0.0034435503
0.09207655
0.0050688706
-0.086365652
-0.16108612
-0.21281247
-0.2936443
-0.27534101
-0.17396815
-0.05443602
-0.099733207
-0.14652769
-0.17796364
-0.14116341
0.0084012991
0.00072341775
0.15648418
0.19086044
0.18831239
0.14573624
0.054209678
-0.10589882
-0.35395283
-0.68078138
-0.92255815
-0.94895698
-0.79060127
-0.60172931
-0.42349958
-0.27739259
-0.17493069
-0.11527968
-0.092324237
-0.096902463
-0.11815738
-0.14587402
-0.17213574
-0.19191263
-0.20283548
-0.20463114
-0.19828927
-0.18553944
-0.16831526
-0.14843972
-0.1274512
-0.10649636
-0.08643837
-0.067883174
-0.051348329
-0.03687833
-0.024471421
-0.013736405
-0.0053896225
0.00058081007
0.0048826916
0.103682
0.036808321
-0.046111105
-0.12503459
-0.1779884
-0.20893164
-0.26153254
-0.2281902
-0.12751913
-0.020505084
-0.07686613
-0.13262563
-0.16066457
-0.12902933
0.016027009
0.0032682885
0.14430223
0.14896153
0.11306328
0.028293352
-0.12925966
-0.38230035
-0.74931868
-1.0910511
-1.1277964
-0.96839283
-0.7243195
-0.51151441
-0.33811882
-0.20675098
-0.12387877
-0.085901647
-0.083212052
-0.10368553
-0.13529172
-0.16813518
-0.19540206
-0.21342336
-0.22110243
-0.21905996
-0.20899067
-0.19297688
-0.1731084
-0.15119999
-0.12868729
-0.10663084
-0.085894141
-0.067059579
-0.050424307
-0.035714197
-0.022721932
-0.01210409
-0.003847744
0.0021026389
0.0063873648
0.083233069
0.036354193
-0.029934376
-0.10445831
-0.16652604
-0.19487532
-0.20596525
-0.23045285
-0.18490952
-0.085651206
0.0075065774
-0.055286995
-0.1176246
-0.14218634
-0.11649805
0.021593345
0.0057734803
0.09593571
0.067215157
-0.0098896433
-0.16422713
-0.42567617
-0.82370845
-1.261081
-1.3818527
-1.1518691
-0.87634222
-0.6091717
-0.40473062
-0.24741117
-0.13810335
-0.080902051
-0.067646648
-0.085253145
-0.11978508
-0.1591771
-0.19462874
-0.2208369
-0.23563132
-0.23911666
-0.23276407
-0.21879957
-0.199547
-0.17713336
-0.15327902
-0.12933438
-0.10636824
-0.085229567
-0.06623249
-0.049270007
-0.033691698
-0.020886043
-0.010367153
-0.0022375137
0.0036935231
0.0079564369
0.026599189
0.0036222245
-0.04832962
-0.11062761
-0.17092464
-0.21172513
-0.21286547
-0.20364071
-0.20229047
-0.14763581
-0.051131812
0.030848966
-0.037999581
-0.10122719
-0.11913879
-0.1036918
0.023216112
0.0080498514
0.0059993061
-0.063049469
-0.21270207
-0.48574198
-0.91799573
-1.4472011
-1.6621908
-1.4368856
-1.0462662
-0.72500073
-0.47751165
-0.29446219
-0.15909853
-0.078805532
-0.051325119
-0.063352445
-0.099342118
-0.14494704
-0.18903658
-0.22445667
-0.24764129
-0.25791242
-0.25645655
-0.24551007
-0.22761581
-0.20520325
-0.18032678
-0.15462648
-0.12947667
-0.10593904
-0.08454863
-0.065101901
-0.046935906
-0.031561862
-0.018924339
-0.0085668876
-0.00055289558
0.0053515276
0.0095886641
-0.07257043
-0.063265704
-0.097670404
-0.15506884
-0.20739086
-0.24639304
-0.25986672
-0.23290086
-0.20338058
-0.1801232
-0.11758389
-0.020748925
0.046500732
-0.022293202
-0.083754916
-0.098209181
-0.089646009
0.021263806
0.0098581881
-0.13357909
-0.27758736
-0.5627163
-1.0396275
-1.672139
-2.0104817
-1.7660832
-1.3108308
-0.86368395
-0.5597582
-0.34546616
-0.1869987
-0.081153871
-0.035482298
-0.038903564
-0.074327297
-0.12527396
-0.17824574
-0.22373601
-0.25656566
-0.27497644
-0.27968195
-0.27282292
-0.25713893
-0.23535438
-0.20985088
-0.18261634
-0.15533604
-0.12938995
-0.1054704
-0.083475538
-0.062395474
-0.044452719
-0.029284372
-0.016904363
-0.006690718
0.0012024784
0.0070752517
0.011282461
-0.22280057
-0.17190941
-0.17599485
-0.22634337
-0.28733527
-0.32194386
-0.33171096
-0.31071501
-0.25560167
-0.20695273
-0.16413091
-0.089277439
0.0022997882
0.059868257
-0.008166533
-0.065556983
-0.076157929
-0.073692894
0.0162823
0.011405926
-0.3616508
-0.65895364
-1.1853266
-1.9423257
-2.4532801
-2.2030653
-1.6393953
-1.0896956
-0.67101185
-0.40145464
-0.21814419
-0.090242593
-0.021681284
-0.012949773
-0.04545779
-0.10046117
-0.16197193
-0.2182811
-0.2619145
-0.28983508
-0.3020333
-0.30044791
-0.28793658
-0.26750609
-0.24187597
-0.21338661
-0.18410403
-0.15573495
-0.12922805
-0.10450098
-0.080344926
-0.059469051
-0.041795497
-0.026958641
-0.014805018
-0.0047438446
0.0030268949
0.008862513
0.013036202
-0.46528228
-0.33337944
-0.29244734
-0.31718929
-0.38687762
-0.4481251
-0.45558099
-0.42811689
-0.36580923
-0.28250061
-0.21360259
-0.14731263
-0.065932388
0.021924205
0.069641462
0.0041457599
-0.047160398
-0.057458797
-0.056134585
0.0098149833
0.01243148
-0.77673417
-1.3561149
-2.243898
-2.9808698
-2.766676
-2.0720977
-1.3739941
-0.85313219
-0.4927522
-0.2516985
-0.10239837
-0.013544131
0.013037178
-0.013582581
-0.070980695
-0.14049266
-0.20775937
-0.26333405
-0.30209993
-0.3231686
-0.32811293
-0.31983074
-0.3015785
-0.27640976
-0.24703419
-0.21591938
-0.18517696
-0.15600821
-0.12843166
-0.10088858
-0.076885281
-0.056340524
-0.039102004
-0.024552637
-0.012634174
-0.0027275172
0.0049169504
0.010711098
0.014848507
-0.91505838
-0.59077689
-0.46300575
-0.43847113
-0.49069053
-0.58273171
-0.63927097
-0.60984726
-0.53613382
-0.4275679
-0.31332627
-0.21516181
-0.13287947
-0.045436022
0.036312774
0.074127197
0.013495783
-0.031678575
-0.044259346
-0.04072606
0.0044464719
0.011961503
-1.5472421
-2.5838641
-3.5533404
-3.4689678
-2.6359642
-1.7494324
-1.080103
-0.64238382
-0.32706012
-0.11534602
-0.008043618
0.035137018
0.019647864
-0.037514819
-0.11394086
-0.1924217
-0.26052442
-0.31149674
-0.34283022
-0.35560425
-0.35267387
-0.3375059
-0.31346657
-0.28364542
-0.25094359
-0.21790811
-0.18605705
-0.15548146
-0.12427923
-0.096791449
-0.073192147
-0.053191734
-0.036327217
-0.022076831
-0.010392866
-0.00064589535
0.0068694465
0.012619566
0.016717605
-1.7551133
-1.0726589
-0.73265377
-0.61425898
-0.61189183
-0.69850471
-0.81549338
-0.86180331
-0.78337112
-0.65437628
-0.49712828
-0.3367689
-0.21599547
-0.11939771
-0.029457789
0.045294774
0.073521313
0.020479762
-0.021025023
-0.032781818
-0.029616152
0.0011881886
0.0094756471
-2.9492707
-4.1647949
-4.3188663
-3.3572328
-2.2489492
-1.3702786
-0.82879789
-0.45044192
-0.17699568
-0.0019122999
0.05512604
0.051245026
-0.0023561083
-0.083016916
-0.17202204
-0.25373754
-0.31784061
-0.36086311
-0.38280481
-0.38638586
-0.37525721
-0.35308109
-0.32331748
-0.28933275
-0.25415191
-0.21961944
-0.18593037
-0.15072775
-0.11943009
-0.092426024
-0.069498044
-0.049962246
-0.033484801
-0.019531354
-0.0080865685
0.0014974534
0.0088828458
0.014587933
0.018639808
-3.3072588
-1.9718267
-1.2377883
-0.89258185
-0.7859521
-0.81215352
-0.94042124
-1.0844461
-1.1151204
-0.96977867
-0.78461694
-0.559867
-0.3563724
-0.21546835
-0.1082341
-0.017812111
0.04906375
0.069056248
0.024752343
-0.013451215
-0.024029629
-0.021644057
0.00045033829
0.0072636282
-4.8390781
-5.262115
-4.2465863
-2.8892942
-1.7445502
-1.055704
-0.61085995
-0.27439265
-0.050617446
0.078588709
0.080304182
0.034088803
-0.050646421
-0.14736023
-0.24261405
-0.32140203
-0.37724299
-0.4097069
-0.42098419
-0.41487347
-0.39532525
-0.36616977
-0.3312563
-0.29413261
-0.25698096
-0.22006513
-0.18050762
-0.14500152
-0.11427297
-0.088082673
-0.065724544
-0.046668991
-0.030573771
-0.016922661
-0.0057197593
0.0037022585
0.010959262
0.016611045
0.02061326
-5.5257798
-3.6298965
-2.177446
-1.4113306
-1.0659758
-0.97392544
-1.0361975
-1.2133626
-1.3857886
-1.3938958
-1.1685085
-0.91495476
-0.6070423
-0.37384447
-0.21501446
-0.09941129
-0.010682771
0.048194928
0.061732591
0.024833447
-0.0082490332
-0.017629306
-0.015774411
0.00064306718
0.0059743764
-6.2684535
-5.2786763
-3.6433562
-2.2192432
-1.3321434
-0.80166707
-0.41255025
-0.12253812
0.044859425
0.11793663
0.065719949
-0.013978359
-0.11972143
-0.22863895
-0.32186059
-0.3922806
-0.43645976
-0.45661313
-0.4564862
-0.44033996
-0.4123572
-0.37690544
-0.33809082
-0.29843633
-0.25821889
-0.21389719
-0.17376716
-0.13891957
-0.10916507
-0.083662018
-0.061892073
-0.043309313
-0.027601676
-0.014255675
-0.0032917526
0.0059757198
0.013088595
0.01868554
0.022635685
-7.2672835
-6.1027552
-3.9151977
-2.3724655
-1.5836741
-1.2444447
-1.1719031
-1.2782327
-1.5090238
-1.7166588
-1.683969
-1.376374
-1.0178347
-0.65124702
-0.38887454
-0.21444939
-0.093359011
-0.0079796195
0.043326401
0.052205498
0.02203691
-0.0054911169
-0.013265509
-0.011759008
-6.01738e-06
0.0052433374
-6.3670083
-4.5132916
-2.7942153
-1.6663509
-1.0224889
-0.58120704
-0.23747156
-0.0024726653
0.10234827
0.11013336
0.012707448
-0.08383307
-0.21191774
-0.32099886
-0.40584021
-0.46344327
-0.49359794
-0.50037232
-0.48834941
-0.46209786
-0.42650002
-0.38628818
-0.34430128
-0.3007401
-0.25121303
-0.20599531
-0.16661093
-0.13291852
-0.10398219
-0.079188191
-0.057995751
-0.039891692
-0.024573868
-0.01152786
-0.00078924434
0.0083019216
0.015267097
0.02080734
0.02470509
-7.5598162
-8.1042502
-6.5027944
-4.1070497
-2.5447441
-1.7396347
-1.4168234
-1.3714423
-1.5282046
-1.820974
-2.0470747
-1.9928533
-1.5448182
-1.1167357
-0.69208021
-0.40224883
-0.2140882
-0.090265098
-0.0094296236
0.035089878
0.041150637
0.017310768
-0.0046612851
-0.010818169
-0.008709541
-0.0011096487
0.0050184028
-5.4612419
-3.4607853
-2.057658
-1.2726641
-0.77447527
-0.38456657
-0.097455165
0.084107196
0.11341142
0.055039936
-0.080382509
-0.1936058
-0.31777666
-0.41974911
-0.49081982
-0.53239394
-0.54701418
-0.53967588
-0.51570279
-0.48030269
-0.43900665
-0.39491315
-0.34800096
-0.29278058
-0.24199116
-0.19759773
-0.15957292
-0.12684426
-0.098752404
-0.07465345
-0.054044769
-0.036421666
-0.02148569
-0.0087178834
0.0017653172
0.010675953
0.017489976
0.022973435
0.026819075
-6.3998479
-8.4713198
-8.6780884
-6.6787893
-4.2145021
-2.6619607
-1.8647973
-1.5740323
-1.560993
-1.7767141
-2.1233778
-2.396649
-2.2652439
-1.7186939
-1.2042975
-0.72356957
-0.41449901
-0.21403403
-0.090086971
-0.01438749
0.024461125
0.029312864
0.011290339
-0.0053099153
-0.01003153
-0.0073055929
-0.003221411
0.0047691127
-4.1523562
-2.4910196
-1.5492567
-0.98285816
-0.56141921
-0.22236898
0.012373894
0.12574568
0.074519541
-0.041152578
-0.18345563
-0.31482818
-0.43238294
-0.52041374
-0.57353247
-0.59694245
-0.59499213
-0.57332105
-0.53860705
-0.49655118
-0.45062307
-0.40039405
-0.33893912
-0.28207159
-0.23216413
-0.18936308
-0.15246192
-0.1207293
-0.093464274
-0.070067519
-0.050044542
-0.032891931
-0.018305703
-0.0058565271
0.0043659366
0.013091127
0.019754864
0.025180596
0.028973574
-4.7715028
-7.1542989
-9.0744354
-8.8726559
-6.6073585
-4.2226355
-2.7250408
-1.9566858
-1.7055354
-1.7292173
-2.0045088
-2.4494593
-2.7272389
-2.5425082
-1.8818355
-1.2720245
-0.74517009
-0.42411376
-0.21460078
-0.092544916
-0.022040461
0.012374384
0.01728378
0.0045725867
-0.0072529892
-0.01048583
-0.0071658797
-0.0053869734
0.0038737176
-2.9277026
-1.8392598
-1.2006634
-0.75093939
-0.38161178
-0.10215799
0.080341516
0.11556216
-0.014480624
-0.15955333
-0.31514227
-0.44780789
-0.55050676
-0.61876832
-0.65102965
-0.6548237
-0.63605922
-0.60179092
-0.55924549
-0.51178957
-0.45831933
-0.39003631
-0.3265671
-0.27060361
-0.22255526
-0.18105249
-0.14531579
-0.11455759
-0.088127803
-0.065435418
-0.045984381
-0.02925894
-0.015073614
-0.0029513823
0.0070045739
0.015545447
0.022059399
0.027422887
0.03116338
-3.2992631
-5.2243918
-7.6000443
-9.1833554
-8.6356626
-6.3050125
-4.0669639
-2.7002399
-2.0135567
-1.8001058
-1.8617618
-2.2381341
-2.7523344
-3.0712928
-2.8020307
-2.0196106
-1.2976069
-0.75900683
-0.42792792
-0.21560043
-0.097165704
-0.031525415
-0.00034066403
0.0054832044
-0.0023943912
-0.009754348
-0.011367846
-0.0078211262
-0.0066372376
0.0027666193
-2.114661
-1.4160074
-0.94111876
-0.56072387
-0.24948348
-0.0083886838
0.096935941
0.06082179
-0.13072931
-0.30823462
-0.46463897
-0.58650778
-0.6667109
-0.71087681
-0.72025632
-0.70413411
-0.67056741