/*--------------------------------*- C++ -*----------------------------------*\
| =========                 |                                                 |
| \\      /  F ield         | OpenFOAM: The Open Source CFD Toolbox           |
|  \\    /   O peration     | Version:  v2012                                 |
|   \\  /    A nd           | Website:  www.openfoam.com                      |
|    \\/     M anipulation  |                                                 |
\*---------------------------------------------------------------------------*/
FoamFile
{
    version     2.0;
    format      ascii;
    class       surfaceScalarField;
    location    "34.6034524671462194";
    object      phi;
}
// * * * * * * * * * * * * * * * * * * * * * * * * * * * * * * * * * * * * * //

dimensions      [0 3 -1 0 0 0 0];
oriented        oriented;


internalField   nonuniform List<scalar> 
18180
(
-0.0087920075
-3.4476387
-0.016179179
-3.2182814
-0.0031025467
-3.5043327
-0.021608404
-3.0025046
-0.0052097084
-3.270986
-0.001203125
-3.5587617
-0.024791817
-2.7984501
-0.0060025249
-3.051177
-0.0016933479
-3.3211979
0.00074693611
-3.612644
-0.025332745
-2.6075832
-0.0051747037
-2.8447222
-0.0011204725
-3.0980762
0.0019830587
-3.3716616
0.0020455948
-3.665648
-0.023096666
-2.4292574
-0.0025910745
-2.6525145
0.00078541857
-2.8890319
0.0040071504
-3.1452908
0.0044804342
-3.4220199
0.0030496722
-3.7177086
-0.018066174
-2.2631041
0.0018067908
-2.4733151
0.0041178322
-2.6950319
0.0070116469
-2.9335632
0.0074196887
-3.1930456
0.0063819196
-3.4716913
0.0037998239
-3.7676881
-0.010337197
-2.1086072
0.0079710998
-2.3066641
0.0088573813
-2.5147462
0.011039152
-2.7373841
0.011099145
-2.9787288
0.010020951
-3.2404835
0.0077541534
-3.5195645
0.0043340463
-3.8152833
-5.3781225e-05
-1.9653192
0.015699105
-2.1516564
0.014849903
-2.3471437
0.016077771
-2.5552555
0.015520197
-2.7798792
0.014187877
-3.0237844
0.011887569
-3.2864643
0.008720462
-3.5651324
0.0046828685
-3.8600165
0.012375658
-1.8325027
0.02450229
-2.0074935
0.021851939
-2.1911311
0.022015313
-2.3861502
0.02068221
-2.5954281
0.018873231
-2.822425
0.016377682
-3.0679455
0.013193201
-3.330477
0.009354282
-3.6080929
0.0048846495
-3.9022483
0.026339521
-1.7092322
0.033889148
-1.8733935
0.029627518
-2.0458644
0.028715516
-2.2289037
0.026502918
-2.4245192
0.024074805
-2.6356673
0.02121192
-2.8645003
0.017892785
-3.1104492
0.014042002
-3.3720483
0.0097200857
-3.6485681
0.0049701516
-3.9416387
0.041335289
-1.5949931
0.043585497
-1.7486358
0.037961467
-1.9105303
0.036020407
-2.0824696
0.032889103
-2.2657976
0.029731196
-2.4625975
0.026379578
-2.6754908
0.022801003
-2.9052959
0.01886609
-3.1507932
0.014525928
-3.4112603
0.0098702476
-3.6863638
0.0049630216
-3.978396
0.056761785
-1.4891708
0.053280435
-1.6326579
0.046663425
-1.7844221
0.043756383
-1.9459281
0.039739395
-2.1180867
0.035780187
-2.302108
0.031823642
-2.5003783
0.027894167
-2.7144227
0.023800554
-2.9442005
0.019412768
-3.1889203
0.014718155
-3.4478827
0.0098478878
-3.721571
0.0048820538
-4.0123274
0.071959214
-1.391113
0.062600559
-1.524783
0.055391523
-1.6668206
0.051731182
-1.8184981
0.046966635
-1.9803843
0.04216586
-2.1529569
0.037486595
-2.3379255
0.03310593
-2.5371437
0.028809958
-2.7515414
0.024349349
-2.9810264
0.019622137
-3.2245967
0.014677093
-3.4820068
0.0096871327
-3.7541593
0.0047421597
-4.0439135
0.086296315
-1.3001587
0.071181852
-1.4243715
0.063828287
-1.5570734
0.059788568
-1.6994812
0.05451405
-1.8518337
0.048856184
-2.0139507
0.04331994
-2.1868903
0.038364666
-2.3724405
0.033813597
-2.572175
0.029294245
-2.7867635
0.024551503
-3.0156579
0.019562177
-3.2578944
0.014447001
-3.5136016
0.0094143531
-3.7844238
0.0045547797
-4.0729467
0.099201191
-1.2156667
0.078715637
-1.3308296
0.071679896
-1.4545767
0.067789533
-1.5882369
0.062347865
-1.7317248
0.055850093
-1.8842431
0.049298724
-2.0462524
0.043601216
-2.2193404
0.038717361
-2.4053342
0.034155293
-2.6056848
0.029466765
-2.8202951
0.024479494
-3.0481295
0.019280635
-3.288786
0.014060507
-3.542942
0.0090495502
-3.8122866
0.0043286101
-4.0997767
0.11018541
-1.137034
0.084964244
-1.2435931
0.078672881
-1.3587641
0.075607744
-1.4841703
0.070462005
-1.6194281
0.063186407
-1.7631083
0.055432153
-1.9151193
0.048761386
-2.0768464
0.043418245
-2.2501949
0.038819734
-2.4370725
0.034273549
-2.6379212
0.029400386
-2.8518457
0.02417702
-3.0783665
0.01880928
-3.3174863
0.013541324
-3.5699572
0.0086083413
-3.8379801
0.0040703977
-4.1242533
0.11929883
-1.0640836
0.089798081
-1.1621711
0.084568208
-1.2691117
0.083125721
-1.3867258
0.078881025
-1.5143721
0.07094851
-1.6499425
0.061770642
-1.7927512
0.053814741
-1.9440395
0.047815111
-2.1057427
0.043155309
-2.2799508
0.038853261
-2.4677276
0.034239948
-2.6684563
0.029125786
-2.8813832
0.023665841
-3.1064615
0.018168889
-3.3439493
0.012907972
-3.5948655
0.0081036468
-3.8615051
0.0037858439
-4.1468289
0.12703367
-0.99653793
0.092938324
-1.0862379
0.089159111
-1.1851572
0.090242932
-1.2953971
0.087661604
-1.4160282
0.079261455
-1.5442009
0.068408684
-1.6785481
0.058760481
-1.8201639
0.051814424
-1.9710676
0.047018393
-2.1334937
0.043059675
-2.3089058
0.038888879
-2.4970555
0.034061561
-2.6971034
0.028642745
-2.9088536
0.022954678
-3.1324668
0.017375038
-3.3683533
0.012176756
-3.6177043
0.0075472197
-3.8831519
0.0034805375
-4.167321
0.1332612
-0.93362879
0.09389223
-1.0153023
0.092039037
-1.1063769
0.096845965
-1.2097143
0.096888437
-1.323917
0.088290599
-1.4453885
0.075485876
-1.5719881
0.063630733
-1.7046052
0.055334775
-1.8454044
0.050258151
-1.9968408
0.046726061
-2.1605174
0.043206653
-2.3366122
0.038898281
-2.524544
0.033701234
-2.7238312
0.027935347
-2.9343999
0.022048047
-3.156467
0.016442846
-3.3907902
0.011364042
-3.6387123
0.0069506386
-3.9028569
0.0031609305
-4.1860783
0.13762502
-0.8748166
0.092175103
-0.94860321
0.092923099
-1.0324001
0.1028973
-1.1292319
0.10665557
-1.2375841
0.09822784
-1.3530492
0.083184618
-1.4726032
0.068491812
-1.5968594
0.058309361
-1.7281096
0.052720386
-1.8691475
0.04966919
-2.0217507
0.047029423
-2.1863117
0.043519577
-2.3626515
0.038788336
-2.5503147
0.033102087
-2.7488033
0.026986024
-2.9580541
0.02095383
-3.1786291
0.015389989
-3.4114216
0.010487122
-3.6578595
0.0063262332
-3.9208519
0.002834524
-4.2029543
0.14023585
-0.81981953
0.08772023
-0.88601485
0.091931834
-0.96286912
0.10842512
-1.0536463
0.11709344
-1.156622
0.10929097
-1.2667468
0.091722065
-1.3799631
0.073441866
-1.4964717
0.060684864
-1.6186672
0.054250227
-1.7497879
0.051692322
-1.8919092
0.050172049
-2.0455354
0.047786732
-2.2107244
0.043824182
-2.3873421
0.038439168
-2.5746883
0.032209279
-2.7721246
0.025786672
-2.9799948
0.019687131
-3.1990059
0.014237793
-3.4302634
0.0095645041
-3.6753223
0.005686991
-3.9371198
0.0025093247
-4.2183491
0.14122954
-0.76841963
0.080728933
-0.82751392
0.089047055
-0.89751094
0.11345002
-0.98259141
0.12827388
-1.08067
0.12170809
-1.1860834
0.10134883
-1.2936607
0.078608758
-1.4030309
0.0624304
-1.5166302
0.054692069
-1.6382099
0.052587138
-1.7703339
0.052431313
-1.913623
0.05153964
-2.068227
0.0487106
-2.2342473
0.04390954
-2.4110383
0.037738684
-2.5976297
0.030986931
-2.7938477
0.024344431
-3.0002287
0.01827172
-3.2176802
0.013010961
-3.4474113
0.0086150093
-3.6911364
0.0050460216
-3.9519064
0.0021923465
-4.2321108
0.14056537
-0.72037635
0.071298165
-0.77276934
0.08400813
-0.83604493
0.11788229
-0.9156839
0.14027845
-1.0093748
0.13567882
-1.110674
0.1123292
-1.2133142
0.084145477
-1.3161524
0.063522037
-1.4215881
0.053884244
-1.5339459
0.052138182
-1.6564379
0.053590177
-1.7898867
0.054601917
-1.9344885
0.053331376
-2.0903722
0.049464129
-2.2571108
0.043580621
-2.4335985
0.036607479
-2.6191728
0.029426503
-2.8139983
0.022683039
-3.0188289
0.016738733
-3.2346657
0.011735994
-3.4629628
0.0076569708
-3.705464
0.0044151355
-3.9651631
0.0018884379
-4.2445642
0.13828091
-0.67529586
0.059357024
-0.72136745
0.076631132
-0.77820277
0.12164229
-0.85265574
0.15322599
-0.94239739
0.15139372
-1.0401587
0.12493545
-1.1385466
0.090222633
-1.2354685
0.063940822
-1.3331549
0.051678312
-1.43658
0.050128324
-1.5497216
0.053430704
-1.6737199
0.056786221
-1.8088258
0.057556142
-1.9551537
0.055040054
-2.1123439
0.049736103
-2.2792629
0.04269316
-2.45494
0.035010376
-2.6392651
0.027548131
-2.8325806
0.020840583
-3.0357807
0.015124041
-3.2500983
0.010439508
-3.4769768
0.0067071445
-3.7183076
0.0038039021
-3.9770953
0.0016003571
-4.2555951
0.13455536
-0.63262199
0.044912218
-0.67298743
0.066874966
-0.72370495
0.12468009
-0.79326791
0.16720531
-0.87944372
0.16904335
-0.97419434
0.13944192
-1.0689975
0.097028133
-1.1606082
0.063679887
-1.2509609
0.047932718
-1.345723
0.046340604
-1.4497485
0.051728371
-1.5645826
0.057894977
-1.6906209
0.061243847
-1.8279567
0.060562783
-1.9760841
0.056197452
-2.1339105
0.049290689
-2.3003618
0.041171093
-2.4749852
0.032958644
-2.657897
0.025396942
-2.8495778
0.018864762
-3.0511802
0.013465129
-3.2639481
0.0091466269
-3.4895156
0.0057801597
-3.7298031
0.0032192547
-3.9877064
0.0013296121
-4.2655553
0.12919396
-0.59145976
0.027992082
-0.62709055
0.05478497
-0.67231277
0.12702671
-0.73731906
0.18228677
-0.82026081
0.18878877
-0.912457
0.15610403
-1.004304
0.10475888
-1.0912081
0.062736135
-1.174631
0.042502087
-1.2609912
0.040563766
-1.3561148
0.048258375
-1.4620257
0.057735266
-1.5793161
0.06424773
-1.7081147
0.065948866
-1.8477333
0.062949685
-1.9969548
0.056444213
-2.1547249
0.047992298
-2.32037
0.039009192
-2.4937061
0.030504095
-2.6750112
0.023035588
-2.8650199
0.016807962
-3.0650021
0.011798432
-3.2763221
0.0078797348
-3.5006467
0.0048881054
-3.7400214
0.0026655398
-3.9972038
0.001075998
-4.2743537
0.12186143
-0.55151228
0.0084891497
-0.58264471
0.040438648
-0.62351477
0.1288392
-0.68468939
0.19854941
-0.76465734
0.21075779
-0.85465916
0.17515719
-0.94412593
0.11360898
-1.0268988
0.061103027
-1.1037899
0.035250464
-1.1820105
0.032598232
-1.2684409
0.042813087
-1.365642
0.056125383
-1.4744498
0.066422277
-1.5950944
0.071107922
-1.7267377
0.069969695
-1.8679146
0.064195172
-2.0174896
0.055561006
-2.1747854
0.045808048
-2.3393086
0.036264479
-2.5110385
0.027728069
-2.690606
0.020536392
-2.8789069
0.014722422
-3.0773199
0.010157041
-3.2872442
0.006657678
-3.5105144
0.0040403581
-3.7490934
0.0021448955
-4.0055978
0.00083784925
-4.2822665
0.1126686
-0.5133711
-0.01348528
-0.53956884
0.024315394
-0.57667353
0.13052819
-0.63511499
0.21607557
-0.71251466
0.23503127
-0.80056059
0.19678985
-0.88813003
0.1237843
-0.96734318
0.058770503
-1.0380589
0.02604423
-1.1084071
0.022262027
-1.1863596
0.035205984
-1.2750621
0.052898122
-1.3756215
0.067629915
-1.4884223
0.07594633
-1.6125536
0.077225672
-1.7462772
0.072578756
-1.8882327
0.063966993
-2.0377152
0.053472517
-2.194078
0.042797236
-2.3569779
0.033041041
-2.5268982
0.024729485
-2.7046558
0.017973603
-2.8912583
0.012656575
-3.08818
0.0085692719
-3.2968952
0.0054953121
-3.5191845
0.0032436436
-3.7570841
0.0016593015
-4.0130594
0.00061645586
-4.2892697
0.10182428
-0.47714529
-0.037486976
-0.49878504
0.0070984653
-0.53190987
0.13279361
-0.58824152
0.23482855
-0.66344809
0.26137955
-0.74973549
0.2208128
-0.83569856
0.1354338
-0.91214626
0.055732779
-0.97709478
0.014767084
-1.0398179
0.0093938451
-1.1095171
0.025275633
-1.1899421
0.047913959
-1.2824804
0.067748622
-1.3877069
0.08037073
-1.5046991
0.084677121
-1.6314893
0.081621989
-1.7664413
0.073298529
-1.9086365
0.06212891
-2.0574404
0.050235011
-2.2122667
0.039090821
-2.3732512
0.029472668
-2.5412314
0.021612971
-2.7171596
0.01541729
-2.902148
0.010652204
-3.0977311
0.0070577061
-3.305309
0.0044036378
-3.5267781
0.0025024632
-3.7641119
0.001211947
-4.019673
0.00041595763
-4.2956478
0.082662367
-0.51995059
-0.062937736
-0.46053247
-0.010825706
-0.4898488
0.13607302
-0.54392347
0.25496634
-0.61729892
0.28910815
-0.70133662
0.24638141
-0.78574683
0.14824563
-0.86022641
0.051895457
-0.92040907
0.0013178072
-0.97592085
-0.0061307227
-1.0375824
0.012894223
-1.1099581
0.041066723
-1.1947188
0.066678961
-1.2926115
0.084293565
-1.4027704
0.092274903
-1.5230521
0.091339054
-1.6515644
0.083637809
-1.7871042
0.071907815
-1.9289173
0.058724639
-2.0763041
0.04600898
-2.2290877
0.034866922
-2.3879856
0.025705175
-2.5540014
0.018479065
-2.7281649
0.012928588
-2.9116792
0.0087429261
-3.1060394
0.0056391386
-3.3126373
0.0033898585
-3.5333692
0.0018194818
-3.7702882
0.00080366274
-4.0255978
0.00022929183
-4.3013389
0.062226325
-0.51573684
-0.097244873
-0.4953367
-0.028981884
-0.45081698
0.1402436
-0.50222183
0.27645726
-0.57372918
0.31790085
-0.65558139
0.27280186
-0.73757308
0.16142036
-0.8100068
0.046942661
-0.86668779
-0.014453882
-0.91617638
-0.024431226
-0.97023961
-0.0020294914
-1.0348155
0.032292911
-1.1120501
0.064351263
-1.2028558
0.087636831
-1.306438
0.099962206
-1.4205376
0.10172838
-1.5430916
0.095054312
-1.6726076
0.08293845
-1.8079958
0.068423325
-1.948486
0.053944955
-2.0937882
0.041027693
-2.2443359
0.030326227
-2.4011206
0.021881433
-2.5652203
0.015416516
-2.737762
0.010556948
-2.9199487
0.0069536492
-3.1132275
0.0043245439
-3.3189405
0.0024578439
-3.5391055
0.00119522
-3.7757227
0.00043119595
-4.0308718
5.1391534e-05
-4.3065153
0.040911725
-0.51121647
-0.13272206
-0.48998506
-0.055525771
-0.47797757
0.14529685
-0.46357069
0.29897507
-0.53250172
0.34714765
-0.611836
0.29985021
-0.69185608
0.17483097
-0.76145344
0.04080282
-0.81459536
-0.032763308
-0.8592059
-0.045533165
-0.90704254
-0.019557968
-0.96422214
0.021570449
-1.0342246
0.060732112
-1.1181918
0.090337471
-1.215427
0.10767562
-1.3236052
0.1127693
-1.4405646
0.10759905
-1.5645901
0.095342606
-1.6941897
0.079494681
-1.8283332
0.063063842
-1.9667216
0.048088959
-2.1096428
0.035563132
-2.2579037
0.025669471
-2.4126291
0.018129163
-2.5749657
0.012497492
-2.7460442
0.0083389737
-2.9270463
0.0053005879
-3.1193922
0.003119761
-3.3243871
0.0016085189
-3.5440594
0.00062861451
-3.7804933
9.2579359e-05
-4.0356039
-0.00010340765
-4.3111224
0.019124827
-0.50648923
-0.16875948
-0.48493535
-0.082186458
-0.47256116
0.14279949
-0.48380363
0.3221685
-0.49402167
0.37650559
-0.57013038
0.32702984
-0.64768894
0.18849291
-0.71538753
0.034148432
-0.76484509
-0.053331474
-0.80417011
-0.069139323
-0.84694422
-0.039614579
-0.89787722
0.0089214828
-0.96099529
0.055824117
-1.0384023
0.092350813
-1.1295087
0.1153479
-1.2319697
0.12442005
-1.3436081
0.12129769
-1.4625872
0.10922618
-1.5870191
0.092102258
-1.7154366
0.073543943
-1.8473861
0.05620234
-1.9832331
0.041518292
-2.1236959
0.029893575
-2.2697391
0.021078674
-2.4225741
0.014552906
-2.583325
0.0097753808
-2.7531027
0.0062983443
-2.9331015
0.0037921749
-3.1246722
0.0020261435
-3.3290314
0.00084047916
-3.5483439
0.0001180175
-3.7846855
-0.00021368918
-4.0398222
-0.00024105308
-4.3153352
-0.0027079053
-0.50172205
-0.2046046
-0.48043429
-0.10910679
-0.46729738
0.14193087
-0.48010025
0.33910695
-0.50849162
0.4056014
-0.53083312
0.35389309
-0.60514893
0.20305117
-0.67152983
0.027600987
-0.7182145
-0.075251308
-0.7524147
-0.094693037
-0.78936678
-0.061655145
-0.83520073
-0.0055471642
-0.89214987
0.049675033
-0.96328825
0.093652423
-1.0484814
0.12290909
-1.1453939
0.13661807
-1.251916
0.13614569
-1.3661839
0.12467025
-1.4859922
0.10640191
-1.6093503
0.085572408
-1.7354185
0.065537661
-1.864596
0.048310902
-1.9977859
0.034613817
-2.1358582
0.024275729
-2.2798834
0.016704058
-2.4310393
0.011230015
-2.5903954
0.0072844594
-2.759066
0.0044471132
-2.9382234
0.0024302747
-3.1291488
0.00104162
-3.3330007
0.00015068561
-3.5520349
-0.00033965788
-3.7883823
-0.00049215732
-4.0436163
-0.00036773028
-4.3190387
-0.024144831
-0.49704756
-0.23954117
-0.47661102
-0.13609911
-0.46276499
0.14190357
-0.47575331
0.35919024
-0.50799103
0.43023729
-0.54127642
0.38014612
-0.56475167
0.21756096
-0.62836382
0.022998274
-0.67564459
-0.097567618
-0.70476657
-0.12177828
-0.73551554
-0.084962817
-0.77578919
-0.021397086
-0.82744119
0.042378691
-0.89268348
0.094244139
-0.9721726
0.13029032
-1.0636791
0.14927874
-1.1652248
0.15210477
-1.2750359
0.14172453
-1.3906633
0.12253249
-1.5095917
0.099340476
-1.6304605
0.076281718
-1.7534339
0.056078476
-1.8796739
0.039901645
-2.010289
0.027732978
-2.146184
0.01892353
-2.2884289
0.012656996
-2.4381337
0.0082098163
-2.5963085
0.0050417558
-2.7640476
0.0027875766
-2.9425197
0.0012116591
-3.1329211
0.00016176054
-3.3363676
-0.00046433172
-3.5552449
-0.00074594467
-3.7916639
-0.00073795095
-4.0469703
-0.00047986905
-4.3223465
-0.044707839
-0.49266411
-0.27294001
-0.47351019
-0.16278571
-0.45928413
0.14194459
-0.47135886
0.38164144
-0.50606888
0.45777186
-0.54371859
0.40632221
-0.57556341
0.23134798
-0.58668093
0.018970349
-0.63241716
-0.12038982
-0.66110493
-0.15001348
-0.68617652
-0.10957758
-0.72008656
-0.038069528
-0.76659104
0.034117517
-0.82643414
0.094143776
-0.90042611
0.13742595
-0.98665281
0.1623009
-1.0833225
0.16910036
-1.1888421
0.16039848
-1.3006397
0.14060831
-1.4156988
0.11503482
-1.5320744
0.088634258
-1.6495011
0.064978311
-1.7691344
0.045842891
-1.8924998
0.031466546
-2.0207342
0.021177637
-2.1547384
0.013996216
-2.2954975
0.0090081472
-2.4439994
0.0055162039
-2.6011936
0.0030499005
-2.7681633
0.0013145762
-2.9460646
0.00012952314
-3.1360795
-0.00061949715
-3.3392529
-0.0010122015
-3.5580513
-0.0011063555
-3.7945714
-0.00095401826
-4.0499474
-0.00057820745
-4.3251299
-0.06388394
-0.48873983
-0.30431794
-0.47118345
-0.18868706
-0.45700089
0.14144002
-0.46739571
0.40545847
-0.50309702
0.48755798
-0.5440857
0.43501756
-0.58066445
0.24982676
-0.60253876
0.013601973
-0.58878132
-0.14311207
-0.61743228
-0.18006114
-0.6401811
-0.13578392
-0.6686321
-0.055539287
-0.70951337
0.025191927
-0.76437827
0.093383714
-0.83310001
0.14425346
-0.91416017
0.17556586
-1.0060169
0.18702499
-1.1073568
0.18065927
-1.2155774
0.16070689
-1.3272332
0.13283089
-1.439785
0.10280583
-1.5524098
0.07518719
-1.6659697
0.052540316
-1.7822919
0.03549933
-1.9030145
0.023427511
-2.0291992
0.015173949
-2.1616814
0.0095945729
-2.3012547
0.0057909577
-2.4487909
0.0031519257
-2.6051794
0.0013006424
-2.7714935
1.7855932e-05
-2.9489697
-0.00082516262
-3.1387217
-0.0013094523
-3.3417417
-0.0014945422
-3.5605347
-0.0014236191
-3.7971441
-0.0011424995
-4.0524965
-0.00066257906
-4.3275144
-0.081134998
-0.48538535
-0.33325009
-0.46974062
-0.2133363
-0.4559545
0.1400161
-0.46425001
0.42952341
-0.49943698
0.51872173
-0.5425274
0.46577717
-0.58321666
0.26972021
-0.60915068
0.014351362
-0.61094903
-0.1656969
-0.57343583
-0.20991953
-0.59618974
-0.16293352
-0.62118692
-0.074101082
-0.65643595
0.015774377
-0.70630541
0.09203018
-0.77006087
0.15071344
-0.84605569
0.18894679
-0.93314809
0.205736
-1.0303562
0.20242694
-1.1351783
0.18286655
-1.2438077
0.1528818
-1.3531227
0.11901124
-1.4616884
0.086901791
-1.5699009
0.060115522
-1.6795956
0.039863294
-1.7928571
0.025631535
-1.9112764
0.016103189
-2.0358726
0.0098649393
-2.1672062
0.0057653978
-2.3058849
0.0030079888
-2.4526555
0.0011039155
-2.6083613
-0.0002215701
-2.7741534
-0.0011159818
-2.9513102
-0.0016629326
-3.1409287
-0.0019153646
-3.3439186
-0.0019174111
-3.5627406
-0.0017009351
-3.7994008
-0.0013052521
-4.0546807
-0.0007333095
-4.3294204
-0.48265522
-0.095925755
-0.35922078
-0.46938189
-0.23644596
-0.45607576
0.13750624
-0.46216754
0.45268572
-0.49544093
0.55025014
-0.53926508
0.49786779
-0.58308959
0.29055868
-0.61271689
0.015283561
-0.61777903
-0.18402207
-0.60009097
-0.23789479
-0.5535752
-0.18977943
-0.57700258
-0.093591987
-0.60758041
0.0057381506
-0.65214743
0.090199999
-0.71114491
0.15674193
-0.78220104
0.20230977
-0.86456341
0.22506846
-0.95765581
0.22557434
-1.0591716
0.20707267
-1.165068
0.17531298
-1.2716608
0.13746388
-1.3768636
0.10033639
-1.4804983
0.068710705
-1.5841412
0.044602383
-1.6901884
0.027747252
-1.8008095
0.016685245
-1.9175067
0.0096956636
-2.0409936
0.0053161696
-2.1715476
0.0025107281
-2.3095663
0.00063888122
-2.4557137
-0.00065137951
-2.6108625
-0.0015366606
-2.7762212
-0.0021018275
-2.9531723
-0.0023938118
-3.1427736
-0.0024444708
-3.3458372
-0.0022859004
-3.5647218
-0.0019415426
-3.8013569
-0.0014444862
-4.0564672
-0.00079240085
-4.3309591
-0.47018768
-0.38168734
-0.48065008
-0.10767638
-0.25810089
-0.45719268
0.13397851
-0.46131352
0.47382471
-0.4913833
0.58093281
-0.53445323
0.53001075
-0.57995865
0.31143437
-0.61266617
0.015846655
-0.62097987
-0.2018
-0.60760083
-0.26612709
-0.58023345
-0.21532684
-0.53519398
-0.11341666
-0.5626347
-0.005190365
-0.60198103
0.087913655
-0.65617521
0.16231064
-0.72246425
0.21551799
-0.80012378
0.24483119
-0.88908008
0.24993439
-0.987331
0.23326122
-1.0906893
0.20020568
-1.1949985
0.15836766
-1.2974795
0.11572163
-1.3972662
0.078490958
-1.4955384
0.049775307
-1.5947966
0.029734441
-1.6977436
0.016811135
-1.8064251
0.008944413
-1.9220142
0.0042967093
-2.0448594
0.0015288128
-2.1749139
-0.00020063462
-2.3124501
-0.0013516679
-2.4581011
-0.0021433601
-2.6127713
-0.00266618
-2.7777862
-0.0029546582
-2.9546132
-0.0030282809
-3.1443222
-0.0029038089
-3.3475544
-0.0026048345
-3.5664854
-0.0021486084
-3.8030263
-0.0015628516
-4.057913
-0.000842125
-4.3320581
-0.45943698
-0.27833396
-0.47245607
-0.39990922
-0.47921236
-0.11608336
0.12967969
-0.46169413
0.4920342
-0.48764254
0.60955492
-0.52836054
0.56090351
-0.57395565
0.33115581
-0.60839548
0.015480439
-0.61998759
-0.21972945
-0.61077297
-0.29302093
-0.58931752
-0.24744933
-0.55542265
-0.13263296
-0.52104904
-0.016970939
-0.55581224
0.084993222
-0.60502417
0.16740331
-0.66667511
0.2284392
-0.73970279
0.26482877
-0.82448709
0.27529384
-0.91943412
0.26131153
-1.0203879
0.22760121
-1.1227669
0.18190528
-1.223107
0.13329791
-1.3197585
0.089643501
-1.4133527
0.055457495
-1.5063551
0.031557727
-1.6018785
0.016364691
-1.7026031
0.007450987
-1.8101325
0.0025373311
-1.9251714
-9.3481713e-05
-2.0477209
-0.0015434064
-2.1775051
-0.0024205704
-2.3146933
-0.0030070388
-2.4599226
-0.0034035936
-2.6141832
-0.0036317396
-2.7789072
-0.0036889886
-2.955714
-0.0035760653
-3.1456301
-0.0033000075
-3.3490921
-0.0028787571
-3.5680641
-0.0023251636
-3.8044032
-0.0016627519
-4.0589894
-0.00088370091
-4.3328387
-0.46330995
0.12472589
-0.46340494
-0.29688114
-0.47555727
-0.41361752
-0.47843225
-0.12084644
0.5069149
-0.48473134
0.63487193
-0.52133496
0.589234
-0.56534233
0.34853601
-0.60004555
0.013789175
-0.61436871
-0.23800592
-0.60953922
-0.31890573
-0.59370685
-0.27808845
-0.56618412
-0.16342007
-0.5297573
-0.028889339
-0.51376444
0.08118639
-0.55761696
0.17199613
-0.61469354
0.24095234
-0.68314933
0.28485658
-0.7637429
0.30142474
-0.85531944
0.29104887
-0.95388358
0.25747935
-1.0546192
0.20823857
-1.153354
0.15331121
-1.2475385
0.10237608
-1.3371443
0.061741001
-1.4244624
0.033186831
-1.5129148
0.015224181
-1.6058151
0.0050407085
-1.7052948
-0.00015277016
-1.8123324
-0.002536531
-1.9272951
-0.0035419902
-2.0498413
-0.0039766004
-2.1794967
-0.0042130374
-2.316421
-0.0043732427
-2.4612798
-0.0044631813
-2.6151596
-0.0044538351
-2.7796665
-0.0043183215
-2.9565338
-0.0040462337
-3.1467389
-0.0036392327
-3.3504794
-0.0031119012
-3.5694218
-0.0024740668
-3.8055024
-0.0017460488
-4.0597587
-0.00091784082
-4.3332616
-0.4828374
0.51825496
-0.46593485
0.11841105
-0.46955077
-0.31239406
-0.47952061
-0.42260247
-0.47827761
-0.12176388
0.6555852
-0.51383483
0.61371219
-0.55448871
0.36246191
-0.5879568
0.010306865
-0.60419865
-0.25655204
-0.60373631
-0.34373797
-0.5936987
-0.30695853
-0.57250603
-0.19329702
-0.54155655
-0.055564266
-0.5077389
0.076678853
-0.51451014
0.17584424
-0.56621763
0.25299513
-0.63038297
0.30471211
-0.70669947
0.32806399
-0.79481425
0.32226602
-0.89097855
0.28978168
-0.99023295
0.23748704
-1.087826
0.17600868
-1.1802105
0.11691522
-1.2664833
0.068734994
-1.3486982
0.034599204
-1.4304905
0.013262732
-1.5157139
0.001529898
-1.6072212
-0.0039834237
-1.7063137
-0.006004541
-1.8134628
-0.0063725957
-1.9287056
-0.0061585742
-2.0514234
-0.0058630619
-2.1810487
-0.0056445184
-2.3177434
-0.0054950317
-2.4622392
-0.005351138
-2.615784
-0.0051511774
-2.7801333
-0.0048549159
-2.9571301
-0.004447038
-3.1476743
-0.0039271455
-3.3516984
-0.0033081935
-3.5705884
-0.0025979501
-3.8063142
-0.0018143077
-4.0602126
-0.00094521928
-4.3334195
-0.50637544
0.67072376
-0.48100502
0.5251128
-0.47110514
0.11111181
-0.47744001
-0.32398673
-0.48416985
-0.42679746
-0.47878709
-0.11884228
0.63304059
-0.54184569
0.37192418
-0.57260728
0.0046356569
-0.58988906
-0.27513019
-0.59359827
-0.36721745
-0.58938497
-0.3337914
-0.57467052
-0.22158667
-0.54957479
-0.082300274
-0.51958273
0.055491052
-0.49181291
0.17897554
-0.52207351
0.26438657
-0.58098559
0.32423672
-0.65332216
0.35495268
-0.73776596
0.35468839
-0.83142734
0.3243871
-0.92934718
0.26976334
-1.0261917
0.20163973
-1.1173755
0.13350452
-1.2009777
0.076560735
-1.2786373
0.035775207
-1.3542071
0.010357442
-1.432012
-0.0032773253
-1.5155804
-0.0091885212
-1.606781
-0.010723743
-1.7061841
-0.010234023
-1.8139
-0.0091258661
-1.9296678
-0.0080747617
-2.052659
-0.007298475
-2.182272
-0.0067792221
-2.3187339
-0.0064135356
-2.4628829
-0.0060934495
-2.6161198
-0.0057403911
-2.7803671
-0.0053097173
-2.9575365
-0.0047859181
-3.148456
-0.0041689146
-3.3527707
-0.0034712224
-3.5714995
-0.0026992608
-3.8068602
-0.0018689785
-4.060401
-0.00096645443
-4.3332698
-0.52795255
0.64594517
-0.49824629
0.67955765
-0.4813133
0.52709157
-0.47832387
0.10314297
-0.48650814
-0.33116136
-0.48936583
-0.42631379
-0.47987914
-0.11225329
0.3760712
-0.55460836
-0.0034604301
-0.57208289
-0.29336925
-0.57966783
-0.38890942
-0.58113085
-0.35832638
-0.57276198
-0.24796232
-0.55375717
-0.10835755
-0.52838472
0.033560217
-0.50307179
0.16399097
-0.48124589
0.27521877
-0.53605139
0.34318614
-0.60311236
0.38184998
-0.68415758
0.38804482
-0.77507767
0.36110139
-0.8716419
0.30508229
-0.96809065
0.23046202
-1.058707
0.15242841
-1.1402653
0.08536151
-1.2138956
0.036696126
-1.2836406
0.0063764438
-1.3543482
-0.0095867175
-1.4300703
-0.016000426
-1.5133337
-0.016932941
-1.6050964
-0.015345647
-1.7053869
-0.013057629
-1.8139908
-0.010981725
-1.9303907
-0.0094268779
-2.0536685
-0.0083743557
-2.183257
-0.0076753467
-2.3194716
-0.0071649255
-2.4632662
-0.0067127036
-2.6162264
-0.0062359624
-2.7804139
-0.0056923718
-2.9577951
-0.0050695247
-3.1490927
-0.004369223
-3.3536378
-0.0036043136
-3.5721875
-0.0027802422
-3.8071337
-0.0019113976
-4.0603163
-0.00098219194
-4.3329
-0.53468047
0.37422998
-0.51241371
0.65146411
-0.49252707
0.68235572
-0.48309756
0.52362907
-0.48701546
0.094807638
-0.49627315
-0.33376429
-0.49502003
-0.42126763
-0.4813245
-0.1023154
-0.014035407
-0.55157593
-0.31075615
-0.56272768
-0.40835967
-0.56949753
-0.38027657
-0.56717114
-0.27233347
-0.55394703
-0.13322534
-0.53385938
0.011279112
-0.5116602
0.14865349
-0.49230874
0.26700806
-0.47615438
0.36172147
-0.55756538
0.40841527
-0.63338653
0.42203542
-0.72188058
0.39971499
-0.81695415
0.34343126
-0.91317732
0.26263993
-1.0037494
0.17395853
-1.0840003
0.095315736
-1.1541394
0.037355739
-1.2184081
0.0011910011
-1.2822914
-0.017605243
-1.3503715
-0.024660103
-1.4256953
-0.024886805
-1.5097601
-0.021940949
-1.6027807
-0.018149455
-1.7043487
-0.014732322
-1.8139815
-0.012131849
-1.9310333
-0.010344268
-2.0545576
-0.009172722
-2.184072
-0.0083832214
-2.320007
-0.0077799295
-2.4634429
-0.0072280617
-2.616147
-0.0066503205
-2.7803192
-0.0060113044
-2.95791
-0.0053037988
-3.1495755
-0.0045323372
-3.3543093
-0.0037104901
-3.5726099
-0.0028429565
-3.8071693
-0.0019427744
-4.0600075
-0.00099294953
-4.3322822
-0.52932311
-0.026908616
-0.51352554
0.36682076
-0.49849397
0.6488201
-0.4878923
0.67872772
-0.48614552
0.5145262
-0.4965439
0.086257347
-0.50621503
-0.33207299
-0.50084996
-0.41182815
-0.48308757
-0.089642092
-0.32660677
-0.54374426
-0.42513699
-0.55524327
-0.39940683
-0.55840681
-0.29475984
-0.55038057
-0.15671254
-0.53552547
-0.010943051
-0.5173075
0.13266341
-0.50037576
0.25919004
-0.48772042
0.36089219
-0.47826354
0.4348081
-0.58743761
0.45627677
-0.67114328
0.43994261
-0.76515516
0.38472097
-0.86121108
0.29837872
-0.95219588
0.19835541
-1.0317145
0.1065639
-1.0989811
0.037753851
-1.1581749
-0.0053230387
-1.2154679
-0.027528145
-1.2761139
-0.035406108
-1.3436127
-0.03483902
-1.4198992
-0.030264614
-1.5056231
-0.02461091
-1.6003746
-0.019487283
-1.7033955
-0.015524429
-1.8140704
-0.012757221
-1.9316942
-0.010941788
-2.0553879
-0.0097634326
-2.1847694
-0.0089446671
-2.3203839
-0.0082839033
-2.4634468
-0.0076554755
-2.6159274
-0.0069940164
-2.780096
-0.0062738649
-2.9579015
-0.0054940237
-3.149875
-0.0046621243
-3.3547536
-0.0037925176
-3.5728234
-0.0028892285
-3.8069688
-0.0019642195
-4.0594758
-0.0009992249
-4.3314959
-0.52376059
-0.34014868
-0.50734045
-0.040589616
-0.4931784
0.35303509
-0.48554639
0.63791627
-0.48436441
0.6685183
-0.49023622
0.50000004
-0.50623918
0.07749352
-0.51579278
-0.32661712
-0.50649522
-0.3984871
-0.48544261
-0.075263552
-0.43890864
-0.5392353
-0.41563931
-0.54707141
-0.31540312
-0.54346081
-0.17902745
-0.53321719
-0.032643051
-0.51959077
0.11597704
-0.50543428
0.25138792
-0.49589861
0.36097076
-0.49083087
0.44227727
-0.48914452
0.49086079
-0.62531403
0.48144361
-0.71549544
0.42874616
-0.81194644
0.33766822
-0.90358856
0.22592592
-0.98314408
0.11934538
-1.0480495
0.037867954
-1.1025313
-0.013330824
-1.153495
-0.039556643
-1.2069162
-0.04846693
-1.2667562
-0.047036461
-1.3352957
-0.040563687
-1.4136159
-0.032660067
-1.5015727
-0.025417228
-1.5982519
-0.019722685
-1.7027522
-0.015684296
-1.8143648
-0.01301739
-1.9324478
-0.011315916
-2.0562074
-0.0102033
-2.1853754
-0.0093932162
-2.3206246
-0.0086972464
-2.4633181
-0.0080080258
-2.6155918
-0.007275971
-2.7797695
-0.0064864418
-2.9577277
-0.0056449545
-3.1499961
-0.0047620638
-3.3550067
-0.003852824
-3.5727907
-0.002920731
-3.8065676
-0.0019767875
-4.05876
-0.0010014424
-4.3304945
-0.52236831
-0.44949053
-0.50556815
-0.34983786
-0.4856336
-0.055615414
-0.47411614
0.33319327
-0.47423317
0.61929421
-0.48192708
0.6517725
-0.49500754
0.48057772
-0.51554946
0.068506762
-0.52455771
-0.31801496
-0.51174671
-0.38222001
-0.48808333
-0.06008499
-0.42913107
-0.5337973
-0.33456244
-0.53365023
-0.20068548
-0.52702664
-0.053684988
-0.51801953
0.098905542
-0.50741962
0.24323532
-0.50069712
0.36179927
-0.49985007