/*--------------------------------*- C++ -*----------------------------------*\
| =========                 |                                                 |
| \\      /  F ield         | OpenFOAM: The Open Source CFD Toolbox           |
|  \\    /   O peration     | Version:  v2012                                 |
|   \\  /    A nd           | Website:  www.openfoam.com                      |
|    \\/     M anipulation  |                                                 |
\*---------------------------------------------------------------------------*/
FoamFile
{
    version     2.0;
    format      ascii;
    class       pointVectorField;
    location    "34.6034524671462194";
    object      pointDisplacement;
}
// * * * * * * * * * * * * * * * * * * * * * * * * * * * * * * * * * * * * * //

dimensions      [0 1 0 0 0 0 0];


internalField   nonuniform List<vector> 
18840
(
(0.27197402 0 0)
(0.27202997 0 0)
(0.27219685 0 0)
(0.27247287 0 0)
(0.27285646 0 0)
(0.27334644 0 0)
(0.27394162 0 0)
(0.27464101 0 0)
(0.27544364 0 0)
(0.27634866 0 0)
(0.27735525 0 0)
(0.27846259 0 0)
(0.2796699 0 0)
(0.28097635 0 0)
(0.28238114 0 0)
(0.28388336 0 0)
(0.28548206 0 0)
(0.287176 0 0)
(0.28896366 0 0)
(0.29084315 0 0)
(0.2931915 0 0)
(0.27197402 0 0)
(0.27202973 0 0)
(0.27219587 0 0)
(0.27247057 0 0)
(0.27285228 0 0)
(0.27333972 0 0)
(0.27393171 0 0)
(0.27462717 0 0)
(0.27542512 0 0)
(0.27632464 0 0)
(0.27732485 0 0)
(0.27842489 0 0)
(0.27962391 0 0)
(0.28092101 0 0)
(0.28231534 0 0)
(0.28380592 0 0)
(0.28539176 0 0)
(0.28707166 0 0)
(0.28884428 0 0)
(0.29070813 0 0)
(0.2926344 0 0)
(0.27197402 0 0)
(0.27202952 0 0)
(0.27219502 0 0)
(0.2724686 0 0)
(0.27284863 0 0)
(0.27333377 0 0)
(0.27392279 0 0)
(0.27461454 0 0)
(0.27540797 0 0)
(0.27630206 0 0)
(0.27729584 0 0)
(0.27838836 0 0)
(0.27957865 0 0)
(0.28086573 0 0)
(0.2822486 0 0)
(0.28372621 0 0)
(0.28529748 0 0)
(0.28696123 0 0)
(0.28871625 0 0)
(0.29056132 0 0)
(0.29249276 0 0)
(0.27197402 0 0)
(0.27202925 0 0)
(0.27219389 0 0)
(0.27246598 0 0)
(0.27284386 0 0)
(0.27332609 0 0)
(0.27391139 0 0)
(0.27459852 0 0)
(0.27538633 0 0)
(0.2762737 0 0)
(0.27725956 0 0)
(0.27834281 0 0)
(0.27952236 0 0)
(0.28079708 0 0)
(0.28216582 0 0)
(0.28362735 0 0)
(0.28518042 0 0)
(0.2868237 0 0)
(0.28855578 0 0)
(0.29037525 0 0)
(0.29230065 0 0)
(0.27197402 0 0)
(0.2720289 0 0)
(0.27219248 0 0)
(0.27246278 0 0)
(0.27283805 0 0)
(0.27331682 0 0)
(0.27389771 0 0)
(0.27457939 0 0)
(0.2753606 0 0)
(0.27624011 0 0)
(0.27721672 0 0)
(0.27828918 0 0)
(0.27945625 0 0)
(0.28071662 0 0)
(0.28206895 0 0)
(0.28351178 0 0)
(0.28504366 0 0)
(0.28666297 0 0)
(0.28836806 0 0)
(0.29015717 0 0)
(0.29206917 0 0)
(0.27197402 0 0)
(0.27202848 0 0)
(0.27219081 0 0)
(0.272459 0 0)
(0.27283127 0 0)
(0.27330607 0 0)
(0.27388195 0 0)
(0.27455747 0 0)
(0.27533128 0 0)
(0.276202 0 0)
(0.2771683 0 0)
(0.27822877 0 0)
(0.279382 0 0)
(0.28062648 0 0)
(0.28196068 0 0)
(0.28338292 0 0)
(0.28489146 0 0)
(0.28648446 0 0)
(0.28815991 0 0)
(0.28991582 0 0)
(0.29180889 0 0)
(0.27197402 0 0)
(0.272028 0 0)
(0.27218889 0 0)
(0.27245466 0 0)
(0.27282354 0 0)
(0.2732939 0 0)
(0.27386422 0 0)
(0.27453297 0 0)
(0.27529869 0 0)
(0.27615988 0 0)
(0.27711506 0 0)
(0.27816266 0 0)
(0.27930109 0 0)
(0.28052868 0 0)
(0.28184364 0 0)
(0.28324411 0 0)
(0.28472806 0 0)
(0.28629342 0 0)
(0.28793786 0 0)
(0.28965908 0 0)
(0.29152902 0 0)
(0.27197402 0 0)
(0.27202746 0 0)
(0.27218672 0 0)
(0.27244977 0 0)
(0.27281482 0 0)
(0.27328024 0 0)
(0.27384442 0 0)
(0.2745058 0 0)
(0.27526278 0 0)
(0.27611378 0 0)
(0.27705716 0 0)
(0.27809122 0 0)
(0.27921418 0 0)
(0.28042418 0 0)
(0.28171926 0 0)
(0.28309733 0 0)
(0.28455613 0 0)
(0.28609329 0 0)
(0.28770624 0 0)
(0.28939228 0 0)
(0.2912359 0 0)
(0.27197402 0 0)
(0.27202685 0 0)
(0.27218427 0 0)
(0.27244428 0 0)
(0.27280507 0 0)
(0.273265 0 0)
(0.27382244 0 0)
(0.27447575 0 0)
(0.2752233 0 0)
(0.2760634 0 0)
(0.2769943 0 0)
(0.27801416 0 0)
(0.27912106 0 0)
(0.28031296 0 0)
(0.28158771 0 0)
(0.28294302 0 0)
(0.28437642 0 0)
(0.28588527 0 0)
(0.28746674 0 0)
(0.2891178 0 0)
(0.2909325 0 0)
(0.27197402 0 0)
(0.27202617 0 0)
(0.27218156 0 0)
(0.2724382 0 0)
(0.2727943 0 0)
(0.27324819 0 0)
(0.27379823 0 0)
(0.27444278 0 0)
(0.27518014 0 0)
(0.27600858 0 0)
(0.27692626 0 0)
(0.27793124 0 0)
(0.27902146 0 0)
(0.28019475 0 0)
(0.28144879 0 0)
(0.2827811 0 0)
(0.28418901 0 0)
(0.28566966 0 0)
(0.28721994 0 0)
(0.28883654 0 0)
(0.29062027 0 0)
(0.27197402 0 0)
(0.27202553 0 0)
(0.27217901 0 0)
(0.27243246 0 0)
(0.27278409 0 0)
(0.27323222 0 0)
(0.27377519 0 0)
(0.27441134 0 0)
(0.27513894 0 0)
(0.27595622 0 0)
(0.27686129 0 0)
(0.27785212 0 0)
(0.27892656 0 0)
(0.2800823 0 0)
(0.28131687 0 0)
(0.28262763 0 0)
(0.28401173 0 0)
(0.28546606 0 0)
(0.28698731 0 0)
(0.28857184 0 0)
(0.29032393 0 0)
(0.27197402 0 0)
(0.27202997 0 0)
(0.27219685 0 0)
(0.27247287 0 0)
(0.27285646 0 0)
(0.27334644 0 0)
(0.27394162 0 0)
(0.27464101 0 0)
(0.27544364 0 0)
(0.27634866 0 0)
(0.27735525 0 0)
(0.27846259 0 0)
(0.2796699 0 0)
(0.28097635 0 0)
(0.28238114 0 0)
(0.28388336 0 0)
(0.28548206 0 0)
(0.287176 0 0)
(0.28896366 0 0)
(0.29084315 0 0)
(0.2931915 0 0)
(0.27197402 0 0)
(0.27202973 0 0)
(0.27219587 0 0)
(0.27247057 0 0)
(0.27285228 0 0)
(0.27333972 0 0)
(0.27393171 0 0)
(0.27462717 0 0)
(0.27542512 0 0)
(0.27632464 0 0)
(0.27732485 0 0)
(0.27842489 0 0)
(0.27962391 0 0)
(0.28092101 0 0)
(0.28231534 0 0)
(0.28380592 0 0)
(0.28539176 0 0)
(0.28707166 0 0)
(0.28884428 0 0)
(0.29070813 0 0)
(0.2926344 0 0)
(0.27197402 0 0)
(0.27202952 0 0)
(0.27219502 0 0)
(0.2724686 0 0)
(0.27284863 0 0)
(0.27333377 0 0)
(0.27392279 0 0)
(0.27461454 0 0)
(0.27540797 0 0)
(0.27630206 0 0)
(0.27729584 0 0)
(0.27838836 0 0)
(0.27957865 0 0)
(0.28086573 0 0)
(0.2822486 0 0)
(0.28372621 0 0)
(0.28529748 0 0)
(0.28696123 0 0)
(0.28871625 0 0)
(0.29056132 0 0)
(0.29249276 0 0)
(0.27197402 0 0)
(0.27202925 0 0)
(0.27219389 0 0)
(0.27246598 0 0)
(0.27284386 0 0)
(0.27332609 0 0)
(0.27391139 0 0)
(0.27459852 0 0)
(0.27538633 0 0)
(0.2762737 0 0)
(0.27725956 0 0)
(0.27834281 0 0)
(0.27952236 0 0)
(0.28079708 0 0)
(0.28216582 0 0)
(0.28362735 0 0)
(0.28518042 0 0)
(0.2868237 0 0)
(0.28855578 0 0)
(0.29037525 0 0)
(0.29230065 0 0)
(0.27197402 0 0)
(0.2720289 0 0)
(0.27219248 0 0)
(0.27246278 0 0)
(0.27283805 0 0)
(0.27331682 0 0)
(0.27389771 0 0)
(0.27457939 0 0)
(0.2753606 0 0)
(0.27624011 0 0)
(0.27721672 0 0)
(0.27828918 0 0)
(0.27945625 0 0)
(0.28071662 0 0)
(0.28206895 0 0)
(0.28351178 0 0)
(0.28504366 0 0)
(0.28666297 0 0)
(0.28836806 0 0)
(0.29015717 0 0)
(0.29206917 0 0)
(0.27197402 0 0)
(0.27202848 0 0)
(0.27219081 0 0)
(0.272459 0 0)
(0.27283127 0 0)
(0.27330607 0 0)
(0.27388195 0 0)
(0.27455747 0 0)
(0.27533128 0 0)
(0.276202 0 0)
(0.2771683 0 0)
(0.27822877 0 0)
(0.279382 0 0)
(0.28062648 0 0)
(0.28196068 0 0)
(0.28338292 0 0)
(0.28489146 0 0)
(0.28648446 0 0)
(0.28815991 0 0)
(0.28991582 0 0)
(0.29180889 0 0)
(0.27197402 0 0)
(0.272028 0 0)
(0.27218889 0 0)
(0.27245466 0 0)
(0.27282354 0 0)
(0.2732939 0 0)
(0.27386422 0 0)
(0.27453297 0 0)
(0.27529869 0 0)
(0.27615988 0 0)
(0.27711506 0 0)
(0.27816266 0 0)
(0.27930109 0 0)
(0.28052868 0 0)
(0.28184364 0 0)
(0.28324411 0 0)
(0.28472806 0 0)
(0.28629342 0 0)
(0.28793786 0 0)
(0.28965908 0 0)
(0.29152902 0 0)
(0.27197402 0 0)
(0.27202746 0 0)
(0.27218672 0 0)
(0.27244977 0 0)
(0.27281482 0 0)
(0.27328024 0 0)
(0.27384442 0 0)
(0.2745058 0 0)
(0.27526278 0 0)
(0.27611378 0 0)
(0.27705716 0 0)
(0.27809122 0 0)
(0.27921418 0 0)
(0.28042418 0 0)
(0.28171926 0 0)
(0.28309733 0 0)
(0.28455613 0 0)
(0.28609329 0 0)
(0.28770624 0 0)
(0.28939228 0 0)
(0.2912359 0 0)
(0.27197402 0 0)
(0.27202685 0 0)
(0.27218427 0 0)
(0.27244428 0 0)
(0.27280507 0 0)
(0.273265 0 0)
(0.27382244 0 0)
(0.27447575 0 0)
(0.2752233 0 0)
(0.2760634 0 0)
(0.2769943 0 0)
(0.27801416 0 0)
(0.27912106 0 0)
(0.28031296 0 0)
(0.28158771 0 0)
(0.28294302 0 0)
(0.28437642 0 0)
(0.28588527 0 0)
(0.28746674 0 0)
(0.2891178 0 0)
(0.2909325 0 0)
(0.27197402 0 0)
(0.27202617 0 0)
(0.27218156 0 0)
(0.2724382 0 0)
(0.2727943 0 0)
(0.27324819 0 0)
(0.27379823 0 0)
(0.27444278 0 0)
(0.27518014 0 0)
(0.27600858 0 0)
(0.27692626 0 0)
(0.27793124 0 0)
(0.27902146 0 0)
(0.28019475 0 0)
(0.28144879 0 0)
(0.2827811 0 0)
(0.28418901 0 0)
(0.28566966 0 0)
(0.28721994 0 0)
(0.28883654 0 0)
(0.29062027 0 0)
(0.27197402 0 0)
(0.27202553 0 0)
(0.27217901 0 0)
(0.27243246 0 0)
(0.27278409 0 0)
(0.27323222 0 0)
(0.27377519 0 0)
(0.27441134 0 0)
(0.27513894 0 0)
(0.27595622 0 0)
(0.27686129 0 0)
(0.27785212 0 0)
(0.27892656 0 0)
(0.2800823 0 0)
(0.28131687 0 0)
(0.28262763 0 0)
(0.28401173 0 0)
(0.28546606 0 0)
(0.28698731 0 0)
(0.28857184 0 0)
(0.29032393 0 0)
(0.27197402 0 0)
(0.27203232 0 0)
(0.27220627 0 0)
(0.2724941 0 0)
(0.27289433 0 0)
(0.27340566 0 0)
(0.27402686 0 0)
(0.27475675 0 0)
(0.27559413 0 0)
(0.27653783 0 0)
(0.27758659 0 0)
(0.27873909 0 0)
(0.27999388 0 0)
(0.28134939 0 0)
(0.28280385 0 0)
(0.28435534 0 0)
(0.28600171 0 0)
(0.28774064 0 0)
(0.28956957 0 0)
(0.29148634 0 0)
(0.29365652 0 0)
(0.27197402 0 0)
(0.27203217 0 0)
(0.27220568 0 0)
(0.27249275 0 0)
(0.27289188 0 0)
(0.27340175 0 0)
(0.27402112 0 0)
(0.27474877 0 0)
(0.27558354 0 0)
(0.27652425 0 0)
(0.27756966 0 0)
(0.27871848 0 0)
(0.27996928 0 0)
(0.28132053 0 0)
(0.28277052 0 0)
(0.28431738 0 0)
(0.28595904 0 0)
(0.28769326 0 0)
(0.28951757 0 0)
(0.29142988 0 0)
(0.29359448 0 0)
(0.27197402 0 0)
(0.2720321 0 0)
(0.27220536 0 0)
(0.27249199 0 0)
(0.27289045 0 0)
(0.27339941 0 0)
(0.27401761 0 0)
(0.27474383 0 0)
(0.27557692 0 0)
(0.27651571 0 0)
(0.27755901 0 0)
(0.27870554 0 0)
(0.27995393 0 0)
(0.28130269 0 0)
(0.28275018 0 0)
(0.28429462 0 0)
(0.28593404 0 0)
(0.28766629 0 0)
(0.28948905 0 0)
(0.29140034 0 0)
(0.2935587 0 0)
(0.27197402 0 0)
(0.27203198 0 0)
(0.27220486 0 0)
(0.27249084 0 0)
(0.27288839 0 0)
(0.27339613 0 0)
(0.27401283 0 0)
(0.27473727 0 0)
(0.27556833 0 0)
(0.27650487 0 0)
(0.27754573 0 0)
(0.27868971 0 0)
(0.27993549 0 0)
(0.28128167 0 0)
(0.2827267 0 0)
(0.28426891 0 0)
(0.28590647 0 0)
(0.2876374 0 0)
(0.28945956 0 0)
(0.29137108 0 0)
(0.29352114 0 0)
(0.27197402 0 0)
(0.27203181 0 0)
(0.27220421 0 0)
(0.27248936 0 0)
(0.27288575 0 0)
(0.27339201 0 0)
(0.27400689 0 0)
(0.27472923 0 0)
(0.27555791 0 0)
(0.27649187 0 0)
(0.27752998 0 0)
(0.27867111 0 0)
(0.27991402 0 0)
(0.28125743 0 0)
(0.2826999 0 0)
(0.28423991 0 0)
(0.28587582 0 0)
(0.28760582 0 0)
(0.28942799 0 0)
(0.29134068 0 0)
(0.29348012 0 0)
(0.27197402 0 0)
(0.27203161 0 0)
(0.2722034 0 0)
(0.27248755 0 0)
(0.27288254 0 0)
(0.27338703 0 0)
(0.27399977 0 0)
(0.27471965 0 0)
(0.27554556 0 0)
(0.27647651 0 0)
(0.27751143 0 0)
(0.27864928 0 0)
(0.27988891 0 0)
(0.28122914 0 0)
(0.28266869 0 0)
(0.28420623 0 0)
(0.28584029 0 0)
(0.28756929 0 0)
(0.28939159 0 0)
(0.29130571 0 0)
(0.29343167 0 0)
(0.27197402 0 0)
(0.27203137 0 0)
(0.27220243 0 0)
(0.27248537 0 0)
(0.2728787 0 0)
(0.27338108 0 0)
(0.27399129 0 0)
(0.27470824 0 0)
(0.27553089 0 0)
(0.27645827 0 0)
(0.2774894 0 0)
(0.27862331 0 0)
(0.27985896 0 0)
(0.2811953 0 0)
(0.28263121 0 0)
(0.28416551 0 0)
(0.28579695 0 0)
(0.2875242 0 0)
(0.28934586 0 0)
(0.29126071 0 0)
(0.29336954 0 0)
(0.27197402 0 0)
(0.27203108 0 0)
(0.27220128 0 0)
(0.27248279 0 0)
(0.27287413 0 0)
(0.27337399 0 0)
(0.27398119 0 0)
(0.27469464 0 0)
(0.27551337 0 0)
(0.27643644 0 0)
(0.27746294 0 0)
(0.27859199 0 0)
(0.27982264 0 0)
(0.28115398 0 0)
(0.28258499 0 0)
(0.28411467 0 0)
(0.28574195 0 0)
(0.28746572 0 0)
(0.28928482 0 0)
(0.29119828 0 0)
(0.29328522 0 0)
(0.27197402 0 0)
(0.27203074 0 0)
(0.27219992 0 0)
(0.27247975 0 0)
(0.27286876 0 0)
(0.27336562 0 0)
(0.27396922 0 0)
(0.27467848 0 0)
(0.27549249 0 0)
(0.27641031 0 0)
(0.27743114 0 0)
(0.27855409 0 0)
(0.27977836 0 0)
(0.28110308 0 0)
(0.28252736 0 0)
(0.28405031 0 0)
(0.28567096 0 0)
(0.28738837 0 0)
(0.28920142 0 0)
(0.29110939 0 0)
(0.29316788 0 0)
(0.27197402 0 0)
(0.27203034 0 0)
(0.27219834 0 0)
(0.27247623 0 0)
(0.27286249 0 0)
(0.27335587 0 0)
(0.27395526 0 0)
(0.27465961 0 0)
(0.275468 0 0)
(0.27637956 0 0)
(0.27739349 0 0)
(0.27850896 0 0)
(0.27972522 0 0)
(0.28104142 0 0)
(0.28245677 0 0)
(0.28397039 0 0)
(0.28558136 0 0)
(0.28728861 0 0)
(0.28909081 0 0)
(0.29098666 0 0)
(0.29300609 0 0)
(0.27197402 0 0)
(0.27203232 0 0)
(0.27220627 0 0)
(0.2724941 0 0)
(0.27289433 0 0)
(0.27340566 0 0)
(0.27402686 0 0)
(0.27475675 0 0)
(0.27559413 0 0)
(0.27653783 0 0)
(0.27758659 0 0)
(0.27873909 0 0)
(0.27999388 0 0)
(0.28134939 0 0)
(0.28280385 0 0)
(0.28435534 0 0)
(0.28600171 0 0)
(0.28774064 0 0)
(0.28956957 0 0)
(0.29148634 0 0)
(0.29365652 0 0)
(0.27197402 0 0)
(0.27203217 0 0)
(0.27220568 0 0)
(0.27249275 0 0)
(0.27289188 0 0)
(0.27340175 0 0)
(0.27402112 0 0)
(0.27474877 0 0)
(0.27558354 0 0)
(0.27652425 0 0)
(0.27756966 0 0)
(0.27871848 0 0)
(0.27996928 0 0)
(0.28132053 0 0)
(0.28277052 0 0)
(0.28431738 0 0)
(0.28595904 0 0)
(0.28769326 0 0)
(0.28951757 0 0)
(0.29142988 0 0)
(0.29359448 0 0)
(0.27197402 0 0)
(0.2720321 0 0)
(0.27220536 0 0)
(0.27249199 0 0)
(0.27289045 0 0)
(0.27339941 0 0)
(0.27401761 0 0)
(0.27474383 0 0)
(0.27557692 0 0)
(0.27651571 0 0)
(0.27755901 0 0)
(0.27870554 0 0)
(0.27995393 0 0)
(0.28130269 0 0)
(0.28275018 0 0)
(0.28429462 0 0)
(0.28593404 0 0)
(0.28766629 0 0)
(0.28948905 0 0)
(0.29140034 0 0)
(0.2935587 0 0)
(0.27197402 0 0)
(0.27203198 0 0)
(0.27220486 0 0)
(0.27249084 0 0)
(0.27288839 0 0)
(0.27339613 0 0)
(0.27401283 0 0)
(0.27473727 0 0)
(0.27556833 0 0)
(0.27650487 0 0)
(0.27754573 0 0)
(0.27868971 0 0)
(0.27993549 0 0)
(0.28128167 0 0)
(0.2827267 0 0)
(0.28426891 0 0)
(0.28590647 0 0)
(0.2876374 0 0)
(0.28945956 0 0)
(0.29137108 0 0)
(0.29352114 0 0)
(0.27197402 0 0)
(0.27203181 0 0)
(0.27220421 0 0)
(0.27248936 0 0)
(0.27288575 0 0)
(0.27339201 0 0)
(0.27400689 0 0)
(0.27472923 0 0)
(0.27555791 0 0)
(0.27649187 0 0)
(0.27752998 0 0)
(0.27867111 0 0)
(0.27991402 0 0)
(0.28125743 0 0)
(0.2826999 0 0)
(0.28423991 0 0)
(0.28587582 0 0)
(0.28760582 0 0)
(0.28942799 0 0)
(0.29134068 0 0)
(0.29348012 0 0)
(0.27197402 0 0)
(0.27203161 0 0)
(0.2722034 0 0)
(0.27248755 0 0)
(0.27288254 0 0)
(0.27338703 0 0)
(0.27399977 0 0)
(0.27471965 0 0)
(0.27554556 0 0)
(0.27647651 0 0)
(0.27751143 0 0)
(0.27864928 0 0)
(0.27988891 0 0)
(0.28122914 0 0)
(0.28266869 0 0)
(0.28420623 0 0)
(0.28584029 0 0)
(0.28756929 0 0)
(0.28939159 0 0)
(0.29130571 0 0)
(0.29343167 0 0)
(0.27197402 0 0)
(0.27203137 0 0)
(0.27220243 0 0)
(0.27248537 0 0)
(0.2728787 0 0)
(0.27338108 0 0)
(0.27399129 0 0)
(0.27470824 0 0)
(0.27553089 0 0)
(0.27645827 0 0)
(0.2774894 0 0)
(0.27862331 0 0)
(0.27985896 0 0)
(0.2811953 0 0)
(0.28263121 0 0)
(0.28416551 0 0)
(0.28579695 0 0)
(0.2875242 0 0)
(0.28934586 0 0)
(0.29126071 0 0)
(0.29336954 0 0)
(0.27197402 0 0)
(0.27203108 0 0)
(0.27220128 0 0)
(0.27248279 0 0)
(0.27287413 0 0)
(0.27337399 0 0)
(0.27398119 0 0)
(0.27469464 0 0)
(0.27551337 0 0)
(0.27643644 0 0)
(0.27746294 0 0)
(0.27859199 0 0)
(0.27982264 0 0)
(0.28115398 0 0)
(0.28258499 0 0)
(0.28411467 0 0)
(0.28574195 0 0)
(0.28746572 0 0)
(0.28928482 0 0)
(0.29119828 0 0)
(0.29328522 0 0)
(0.27197402 0 0)
(0.27203074 0 0)
(0.27219992 0 0)
(0.27247975 0 0)
(0.27286876 0 0)
(0.27336562 0 0)
(0.27396922 0 0)
(0.27467848 0 0)
(0.27549249 0 0)
(0.27641031 0 0)
(0.27743114 0 0)
(0.27855409 0 0)
(0.27977836 0 0)
(0.28110308 0 0)
(0.28252736 0 0)
(0.28405031 0 0)
(0.28567096 0 0)
(0.28738837 0 0)
(0.28920142 0 0)
(0.29110939 0 0)
(0.29316788 0 0)
(0.27197402 0 0)
(0.27203034 0 0)
(0.27219834 0 0)
(0.27247623 0 0)
(0.27286249 0 0)
(0.27335587 0 0)
(0.27395526 0 0)
(0.27465961 0 0)
(0.275468 0 0)
(0.27637956 0 0)
(0.27739349 0 0)
(0.27850896 0 0)
(0.27972522 0 0)
(0.28104142 0 0)
(0.28245677 0 0)
(0.28397039 0 0)
(0.28558136 0 0)
(0.28728861 0 0)
(0.28909081 0 0)
(0.29098666 0 0)
(0.29300609 0 0)
(0.29628587 0 0)
(0.29920595 0 0)
(0.30223854 0 0)
(0.30537017 0 0)
(0.30858703 0 0)
(0.31187252 0 0)
(0.31520428 0 0)
(0.31855335 0 0)
(0.3218883 0 0)
(0.32517726 0 0)
(0.32838585 0 0)
(0.33147619 0 0)
(0.33441214 0 0)
(0.33716399 0 0)
(0.33969914 0 0)
(0.34198439 0 0)
(0.34398918 0 0)
(0.34568271 0 0)
(0.34703431 0 0)
(0.34802064 0 0)
(0.34861672 0 0)
(0.34878963 0 0)
(0.34850596 0 0)
(0.34774395 0 0)
(0.34647887 0 0)
(0.34467119 0 0)
(0.3422801 0 0)
(0.33926811 0 0)
(0.33559038 0 0)
(0.33118982 0 0)
(0.32604404 0 0)
(0.32011928 0 0)
(0.31332656 0 0)
(0.30559614 0 0)
(0.29691713 0 0)
(0.28724295 0 0)
(0.27643151 0 0)
(0.264412 0 0)
(0.25120331 0 0)
(0.23673577 0 0)
(0.22081269 0 0)
(0.20338429 0 0)
(0.18445534 0 0)
(0.16387702 0 0)
(0.14152629 0 0)
(0.11728568 0 0)
(0.091076107 0 0)
(0.062819548 0 0)
(0.032447748 0 0)
(0 0 0)
(0.29621566 0 0)
(0.2991267 0 0)
(0.30215165 0 0)
(0.30527782 0 0)
(0.30849233 0 0)
(0.31177948 0 0)
(0.31511703 0 0)
(0.31847534 0 0)
(0.321822 0 0)
(0.32512441 0 0)
(0.32834726 0 0)
(0.33145225 0 0)
(0.33440377 0 0)
(0.33717081 0 0)
(0.33971959 0 0)
(0.34201746 0 0)
(0.34403476 0 0)
(0.34574049 0 0)
(0.34710339 0 0)
(0.34810008 0 0)
(0.34870636 0 0)
(0.34888918 0 0)
(0.34861429 0 0)
(0.34785962 0 0)
(0.34660131 0 0)
(0.34479975 0 0)
(0.3424138 0 0)
(0.33940767 0 0)
(0.33573429 0 0)
(0.3313367 0 0)
(0.32619345 0 0)
(0.32027136 0 0)
(0.31348062 0 0)
(0.3057502 0 0)
(0.29706945 0 0)
(0.28739282 0 0)
(0.27657784 0 0)
(0.26455241 0 0)
(0.25133659 0 0)
(0.23686288 0 0)
(0.22093057 0 0)
(0.2034905 0 0)
(0.18455171 0 0)
(0.16396222 0 0)
(0.14159785 0 0)
(0.11734143 0 0)
(0.091116696 0 0)
(0.062847336 0 0)
(0.032462271 0 0)
(0 0 0)
(0.29616291 0 0)
(0.29905288 0 0)
(0.30205909 0 0)
(0.3051696 0 0)
(0.30837234 0 0)
(0.31165255 0 0)
(0.31498834 0 0)
(0.31834967 0 0)
(0.32170348 0 0)
(0.32501622 0 0)
(0.32825168 0 0)
(0.33137143 0 0)
(0.33433981 0 0)
(0.33712474 0 0)
(0.33969156 0 0)
(0.34200744 0 0)
(0.3440431 0 0)
(0.34576762 0 0)
(0.34714957 0 0)
(0.3481647 0 0)
(0.348789 0 0)
(0.34898976 0 0)
(0.34873238 0 0)
(0.34799368 0 0)
(0.34675005 0 0)
(0.34496242 0 0)
(0.34258993 0 0)
(0.33959726 0 0)
(0.33593522 0 0)
(0.33154788 0 0)
(0.32641387 0 0)
(0.32050015 0 0)
(0.31371653 0 0)
(0.30599105 0 0)
(0.29731273 0 0)
(0.28763658 0 0)
(0.27681988 0 0)
(0.26478972 0 0)
(0.25156679 0 0)
(0.23708492 0 0)
(0.22114088 0 0)
(0.20368654 0 0)
(0.18473308 0 0)
(0.16412527 0 0)
(0.14173913 0 0)
(0.11745696 0 0)
(0.091204963 0 0)
(0.062908759 0 0)
(0.032494429 0 0)
(0 0 0)
(0.29609955 0 0)
(0.29895696 0 0)
(0.30193407 0 0)
(0.30501948 0 0)
(0.30820195 0 0)
(0.31146741 0 0)
(0.31479451 0 0)
(0.31815343 0 0)
(0.3215108 0 0)
(0.32483207 0 0)
(0.32807988 0 0)
(0.33121567 0 0)
(0.33420378 0 0)
(0.33701084 0 0)
(0.33960134 0 0)
(0.34194237 0 0)
(0.34400435 0 0)
(0.34575609 0 0)
(0.347166 0 0)
(0.34820915 0 0)
(0.34886132 0 0)
(0.34908967 0 0)
(0.34885937 0 0)
(0.34814642 0 0)
(0.34692724 0 0)
(0.34516277 0 0)
(0.3428123 0 0)
(0.33984164 0 0)
(0.33619918 0 0)
(0.3318294 0 0)
(0.32671161 0 0)
(0.32081296 0 0)
(0.31404226 0 0)
(0.30632641 0 0)
(0.29765464 0 0)
(0.28798239 0 0)
(0.27716606 0 0)
(0.26513194 0 0)
(0.25190138 0 0)
(0.23740946 0 0)
(0.2214511 0 0)
(0.20397899 0 0)
(0.18500498 0 0)
(0.16437126 0 0)
(0.1419546 0 0)
(0.11763572 0 0)
(0.091343636 0 0)
(0.063005816 0 0)
(0.032545158 0 0)
(0 0 0)
(0.2960238 0 0)
(0.29883707 0 0)
(0.30177466 0 0)
(0.30482568 0 0)
(0.30797931 0 0)
(0.31122216 0 0)
(0.31453369 0 0)
(0.31788464 0 0)
(0.32124163 0 0)
(0.32456914 0 0)
(0.32782872 0 0)
(0.33098151 0 0)
(0.33399174 0 0)
(0.33682488 0 0)
(0.33944474 0 0)
(0.34181776 0 0)
(0.34391373 0 0)
(0.34570118 0 0)
(0.34714825 0 0)
(0.34822892 0 0)
(0.34891852 0 0)
(0.34918427 0 0)
(0.34899107 0 0)
(0.34831377 0 0)
(0.3471285 0 0)
(0.34539648 0 0)
(0.34307718 0 0)
(0.34013664 0 0)
(0.33652179 0 0)
(0.33217757 0 0)
(0.32708313 0 0)
(0.32120575 0 0)
(0.31445369 0 0)
(0.30675279 0 0)
(0.29809192 0 0)
(0.2884267 0 0)
(0.27761291 0 0)
(0.26557618 0 0)
(0.25233795 0 0)
(0.23783363 0 0)
(0.22185817 0 0)
(0.20436558 0 0)
(0.18536562 0 0)
(0.16469826 0 0)
(0.14224247 0 0)
(0.11787652 0 0)
(0.091531719 0 0)
(0.06313765 0 0)
(0.032614126 0 0)
(0 0 0)
(0.29593147 0 0)
(0.29868891 0 0)
(0.30157627 0 0)
(0.30458321 0 0)
(0.30769933 0 0)
(0.31091178 0 0)
(0.31420078 0 0)
(0.31753819 0 0)
(0.32089068 0 0)
(0.32422156 0 0)
(0.32749175 0 0)
(0.33066233 0 0)
(0.33369692 0 0)
(0.33655986 0 0)
(0.33921454 0 0)
(0.34162646 0 0)
(0.34376429 0 0)
(0.34559591 0 0)
(0.34708912 0 0)
(0.34821705 0 0)
(0.34895418 0 0)
(0.34926722 0 0)
(0.3491208 0 0)
(0.34848931 0 0)
(0.34734809 0 0)
(0.34565788 0 0)
(0.34337852 0 0)
(0.34047676 0 0)
(0.3368979 0 0)
(0.33258667 0 0)
(0.32752272 0 0)
(0.32167341 0 0)
(0.31494584 0 0)
(0.30726492 0 0)
(0.29861942 0 0)
(0.28896497 0 0)
(0.27815613 0 0)
(0.26611808 0 0)
(0.25287227 0 0)
(0.23835407 0 0)
(0.22235932 0 0)
(0.20484326 0 0)
(0.18581173 0 0)
(0.16510358 0 0)
(0.14260053 0 0)
(0.11817726 0 0)
(0.0917677 0 0)
(0.063303438 0 0)
(0.032700837 0 0)
(0 0 0)
(0.29581615 0 0)
(0.29850584 0 0)
(0.3013319 0 0)
(0.30428481 0 0)
(0.3073545 0 0)
(0.31052851 0 0)
(0.31378814 0 0)
(0.31710621 0 0)
(0.32044954 0 0)
(0.32378068 0 0)
(0.32705994 0 0)
(0.33024841 0 0)
(0.33330941 0 0)
(0.33620627 0 0)
(0.33890113 0 0)
(0.34135856 0 0)
(0.34354615 0 0)
(0.34543079 0 0)
(0.34697944 0 0)
(0.3481643 0 0)
(0.34895906 0 0)
(0.34932976 0 0)
(0.3492404 0 0)
(0.34866471 0 0)
(0.34757754 0 0)
(0.345939 0 0)
(0.34370881 0 0)
(0.34085417 0 0)
(0.33731993 0 0)
(0.33304994 0 0)
(0.32802355 0 0)
(0.32220854 0 0)
(0.31551159 0 0)
(0.30785644 0 0)
(0.29923101 0 0)
(0.28959077 0 0)
(0.27878961 0 0)
(0.26675235 0 0)
(0.25349952 0 0)
(0.23896559 0 0)
(0.22294961 0 0)
(0.20540789 0 0)
(0.18633964 0 0)
(0.16558354 0 0)
(0.14302547 0 0)
(0.11853556 0 0)
(0.092049676 0 0)
(0.063501659 0 0)
(0.032804519 0 0)
(0 0 0)
(0.29566904 0 0)
(0.29827907 0 0)
(0.3010326 0 0)
(0.30392133 0 0)
(0.30693562 0 0)
(0.31006321 0 0)
(0.31328594 0 0)
(0.3165785 0 0)
(0.31990779 0 0)
(0.32323525 0 0)
(0.32652126 0 0)
(0.3297276 0 0)
(0.33281735 0 0)
(0.33575202 0 0)
(0.33849243 0 0)
(0.34100227 0 0)
(0.34324765 0 0)
(0.34519407 0 0)
(0.34680759 0 0)
(0.34805956 0 0)
(0.34892249 0 0)
(0.34936123 0 0)
(0.34933914 0 0)
(0.34882982 0 0)
(0.34780735 0 0)
(0.34623035 0 0)
(0.34405839 0 0)
(0.34126 0 0)
(0.33777908 0 0)
(0.33355839 0 0)
(0.32857699 0 0)
(0.32280297 0 0)
(0.31614267 0 0)
(0.308519 0 0)
(0.29991879 0 0)
(0.29029676 0 0)
(0.27950616 0 0)
(0.26747193 0 0)
(0.25421311 0 0)
(0.23966286 0 0)
(0.22362417 0 0)
(0.2060542 0 0)
(0.18694414 0 0)
(0.16613361 0 0)
(0.14351341 0 0)
(0.118948 0 0)
(0.092375165 0 0)
(0.063730739 0 0)
(0.032924261 0 0)
(0 0 0)
(0.29547901 0 0)
(0.29799791 0 0)
(0.30066812 0 0)
(0.30348286 0 0)
(0.30643265 0 0)
(0.3095046 0 0)
(0.31268199 0 0)
(0.31594137 0 0)
(0.31925054 0 0)
(0.32257113 0 0)
(0.32586284 0 0)
(0.32908736 0 0)
(0.3322073 0 0)
(0.33518305 0 0)
(0.33797428 0 0)
(0.34054346 0 0)
(0.34285486 0 0)
(0.34487223 0 0)
(0.34656053 0 0)
(0.3478899 0 0)
(0.34883164 0 0)
(0.34934925 0 0)
(0.3494052 0 0)
(0.34897304 0 0)
(0.34802601 0 0)
(0.34652083 0 0)
(0.34441672 0 0)
(0.34168333 0 0)
(0.3382648 0 0)
(0.3341023 0 0)
(0.32917352 0 0)
(0.32344676 0 0)
(0.31682924 0 0)
(0.30924345 0 0)
(0.30067385 0 0)
(0.29107386 0 0)
(0.2802971 0 0)
(0.26826891 0 0)
(0.25500576 0 0)
(0.2404386 0 0)
(0.22437611 0 0)
(0.20677601 0 0)
(0.18761957 0 0)
(0.16674838 0 0)
(0.14405961 0 0)
(0.11941096 0 0)
(0.09274121 0 0)
(0.063988459 0 0)
(0.033058967 0 0)
(0 0 0)
(0.29523265 0 0)
(0.29765046 0 0)
(0.30022781 0 0)
(0.30295848 0 0)
(0.30583265 0 0)
(0.30883915 0 0)
(0.31196304 0 0)
(0.31518152 0 0)
(0.3184645 0 0)
(0.32177476 0 0)
(0.3250707 0 0)
(0.32831323 0 0)
(0.33146466 0 0)
(0.33448449 0 0)
(0.33733182 0 0)
(0.33996787 0 0)
(0.34235436 0 0)
(0.34445229 0 0)
(0.34622523 0 0)
(0.34764259 0 0)
(0.34867437 0 0)
(0.34928195 0 0)
(0.34942685 0 0)
(0.34908319 0 0)
(0.34822308 0 0)
(0.3468003 0 0)
(0.34477348 0 0)
(0.34211447 0 0)
(0.33876745 0 0)
(0.33467223 0 0)
(0.32980416 0 0)
(0.32413118 0 0)
(0.31756235 0 0)
(0.31002071 0 0)
(0.30148751 0 0)
(0.29191375 0 0)
(0.28115417 0 0)
(0.26913527 0 0)
(0.25586994 0 0)
(0.24128615 0 0)
(0.22519926 0 0)
(0.20756697 0 0)
(0.18835955 0 0)
(0.16742228 0 0)
(0.14465919 0 0)
(0.1199201 0 0)
(0.093144637 0 0)
(0.064272776 0 0)
(0.033207489 0 0)
(0 0 0)
(0.29546768 0 0)
(0.29778164 0 0)
(0.30025888 0 0)
(0.30289257 0 0)
(0.30567529 0 0)
(0.30859902 0 0)
(0.31164836 0 0)
(0.31480055 0 0)
(0.31802867 0 0)
(0.32129702 0 0)
(0.32456409 0 0)
(0.32779107 0 0)
(0.33094012 0 0)
(0.33397035 0 0)
(0.33684016 0 0)
(0.33950978 0 0)
(0.34193928 0 0)
(0.34408754 0 0)
(0.34591656 0 0)
(0.34739528 0 0)
(0.34849255 0 0)
(0.34916771 0 0)
(0.34938139 0 0)
(0.34910776 0 0)
(0.34831813 0 0)
(0.34696395 0 0)
(0.34500292 0 0)
(0.34240815 0 0)
(0.33912485 0 0)
(0.33509106 0 0)
(0.33027951 0 0)
(0.32465766 0 0)
(0.31813693 0 0)
(0.31064005 0 0)
(0.30214551 0 0)
(0.29260221 0 0)
(0.2818667 0 0)
(0.26986425 0 0)
(0.2566053 0 0)
(0.24201517 0 0)
(0.22591684 0 0)
(0.2082639 0 0)
(0.18901777 0 0)
(0.168027 0 0)
(0.14520326 0 0)
(0.12038818 0 0)
(0.093520087 0 0)
(0.064541511 0 0)
(0.033351919 0 0)
(0 0 0)
(0.29628587 0 0)
(0.29920595 0 0)
(0.30223854 0 0)
(0.30537017 0 0)
(0.30858703 0 0)
(0.31187252 0 0)
(0.31520428 0 0)
(0.31855335 0 0)
(0.3218883 0 0)
(0.32517726 0 0)
(0.32838585 0 0)
(0.33147619 0 0)
(0.33441214 0 0)
(0.33716399 0 0)
(0.33969914 0 0)
(0.34198439 0 0)
(0.34398918 0 0)
(0.34568271 0 0)
(0.34703431 0 0)
(0.34802064 0 0)
(0.34861672 0 0)
(0.34878963 0 0)
(0.34850596 0 0)
(0.34774395 0 0)
(0.34647887 0 0)
(0.34467119 0 0)
(0.3422801 0 0)
(0.33926811 0 0)
(0.33559038 0 0)
(0.33118982 0 0)
(0.32604404 0 0)
(0.32011928 0 0)
(0.31332656 0 0)
(0.30559614 0 0)
(0.29691713 0 0)
(0.28724295 0 0)
(0.27643151 0 0)
(0.264412 0 0)
(0.25120331 0 0)
(0.23673577 0 0)
(0.22081269 0 0)
(0.20338429 0 0)
(0.18445534 0 0)
(0.16387702 0 0)
(0.14152629 0 0)
(0.11728568 0 0)
(0.091076107 0 0)
(0.062819548 0 0)
(0.032447748 0 0)
(0 0 0)
(0.29621566 0 0)
(0.2991267 0 0)
(0.30215165 0 0)
(0.30527782 0 0)
(0.30849233 0 0)
(0.31177948 0 0)
(0.31511703 0 0)
(0.31847534 0 0)
(0.321822 0 0)
(0.32512441 0 0)
(0.32834726 0 0)
(0.33145225 0 0)
(0.33440377 0 0)
(0.33717081 0 0)
(0.33971959 0 0)
(0.34201746 0 0)
(0.34403476 0 0)
(0.34574049 0 0)
(0.34710339 0 0)
(0.34810008 0 0)
(0.34870636 0 0)
(0.34888918 0 0)
(0.34861429 0 0)
(0.34785962 0 0)
(0.34660131 0 0)
(0.34479975 0 0)
(0.3424138 0 0)
(0.33940767 0 0)
(0.33573429 0 0)
(0.3313367 0 0)
(0.32619345 0 0)
(0.32027136 0 0)
(0.31348062 0 0)
(0.3057502 0 0)
(0.29706945 0 0)
(0.28739282 0 0)
(0.27657784 0 0)
(0.26455241 0 0)
(0.25133659 0 0)
(0.23686288 0 0)
(0.22093057 0 0)
(0.2034905 0 0)
(0.18455171 0 0)
(0.16396222 0 0)
(0.14159785 0 0)
(0.11734143 0 0)
(0.091116696 0 0)
(0.062847336 0 0)
(0.032462271 0 0)
(0 0 0)
(0.29616291 0 0)
(0.29905288 0 0)
(0.30205909 0 0)
(0.3051696 0 0)
(0.30837234 0 0)
(0.31165255 0 0)
(0.31498834 0 0)
(0.31834967 0 0)
(0.32170348 0 0)
(0.32501622 0 0)
(0.32825168 0 0)
(0.33137143 0 0)
(0.33433981 0 0)
(0.33712474 0 0)
(0.33969156 0 0)
(0.34200744 0 0)
(0.3440431 0 0)
(0.34576762 0 0)
(0.34714957 0 0)
(0.3481647 0 0)
(0.348789 0 0)
(0.34898976 0 0)
(0.34873238 0 0)
(0.34799368 0 0)
(0.34675005 0 0)
(0.34496242 0 0)
(0.34258993 0 0)
(0.33959726 0 0)
(0.33593522 0 0)
(0.33154788 0 0)
(0.32641387 0 0)
(0.32050015 0 0)
(0.31371653 0 0)
(0.30599105 0 0)
(0.29731273 0 0)
(0.28763658 0 0)
(0.27681988 0 0)
(0.26478972 0 0)
(0.25156679 0 0)
(0.23708492 0 0)
(0.22114088 0 0)
(0.20368654 0 0)
(0.18473308 0 0)
(0.16412527 0 0)
(0.14173913 0 0)
(0.11745696 0 0)
(0.091204963 0 0)
(0.062908759 0 0)
(0.032494429 0 0)
(0 0 0)
(0.29609955 0 0)
(0.29895696 0 0)
(0.30193407 0 0)
(0.30501948 0 0)
(0.30820195 0 0)
(0.31146741 0 0)
(0.31479451 0 0)
(0.31815343 0 0)
(0.3215108 0 0)
(0.32483207 0 0)
(0.32807988 0 0)
(0.33121567 0 0)
(0.33420378 0 0)
(0.33701084 0 0)
(0.33960134 0 0)
(0.34194237 0 0)
(0.34400435 0 0)
(0.34575609 0 0)
(0.347166 0 0)
(0.34820915 0 0)
(0.34886132 0 0)
(0.34908967 0 0)
(0.34885937 0 0)
(0.34814642 0 0)
(0.34692724 0 0)
(0.34516277 0 0)
(0.3428123 0 0)
(0.33984164 0 0)
(0.33619918 0 0)
(0.3318294 0 0)
(0.32671161 0 0)
(0.32081296 0 0)
(0.31404226 0 0)
(0.30632641 0 0)
(0.29765464 0 0)
(0.28798239 0 0)
(0.27716606 0 0)
(0.26513194 0 0)
(0.25190138 0 0)
(0.23740946 0 0)
(0.2214511 0 0)
(0.20397899 0 0)
(0.18500498 0 0)
(0.16437126 0 0)
(0.1419546 0 0)
(0.11763572 0 0)
(0.091343636 0 0)
(0.063005816 0 0)
(0.032545158 0 0)
(0 0 0)
(0.2960238 0 0)
(0.29883707 0 0)
(0.30177466 0 0)
(0.30482568 0 0)
(0.30797931 0 0)
(0.31122216 0 0)
(0.31453369 0 0)
(0.31788464 0 0)
(0.32124163 0 0)
(0.32456914 0 0)
(0.32782872 0 0)
(0.33098151 0 0)
(0.33399174 0 0)
(0.33682488 0 0)
(0.33944474 0 0)
(0.34181776 0 0)
(0.34391373 0 0)
(0.34570118 0 0)
(0.34714825 0 0)
(0.34822892 0 0)
(0.34891852 0 0)
(0.34918427 0 0)
(0.34899107 0 0)
(0.34831377 0 0)
(0.3471285 0 0)
(0.34539648 0 0)
(0.34307718 0 0)
(0.34013664 0 0)
(0.33652179 0 0)
(0.33217757 0 0)
(0.32708313 0 0)
(0.32120575 0 0)
(0.31445369 0 0)
(0.30675279 0 0)
(0.29809192 0 0)
(0.2884267 0 0)
(0.27761291 0 0)
(0.26557618 0 0)
(0.25233795 0 0)
(0.23783363 0 0)
(0.22185817 0 0)
(0.20436558 0 0)
(0.18536562 0 0)
(0.16469826 0 0)
(0.14224247 0 0)
(0.11787652 0 0)
(0.091531719 0 0)
(0.06313765 0 0)
(0.032614126 0 0)
(0 0 0)
(0.29593147 0 0)
(0.29868891 0 0)
(0.30157627 0 0)
(0.30458321 0 0)
(0.30769933 0 0)
(0.31091178 0 0)
(0.31420078 0 0)
(0.31753819 0 0)
(0.32089068 0 0)
(0.32422156 0 0)
(0.32749175 0 0)
(0.33066233 0 0)
(0.33369692 0 0)
(0.33655986 0 0)
(0.33921454 0 0)
(0.34162646 0 0)
(0.34376429 0 0)
(0.34559591 0 0)
(0.34708912 0 0)
(0.34821705 0 0)
(0.34895418 0 0)
(0.34926722 0 0)
(0.3491208 0 0)
(0.34848931 0 0)
(0.34734809 0 0)
(0.34565788 0 0)
(0.34337852 0 0)
(0.34047676 0 0)
(0.3368979 0 0)
(0.33258667 0 0)
(0.32752272 0 0)
(0.32167341 0 0)
(0.31494584 0 0)
(0.30726492 0 0)
(0.29861942 0 0)
(0.28896497 0 0)
(0.27815613 0 0)
(0.26611808 0 0)
(0.25287227 0 0)
(0.23835407 0 0)
(0.22235932 0 0)
(0.20484326 0 0)
(0.18581173 0 0)
(0.16510358 0 0)
(0.14260053 0 0)
(0.11817726 0 0)
(0.0917677 0 0)