/*--------------------------------*- C++ -*----------------------------------*\
| =========                 |                                                 |
| \\      /  F ield         | OpenFOAM: The Open Source CFD Toolbox           |
|  \\    /   O peration     | Version:  v2012                                 |
|   \\  /    A nd           | Website:  www.openfoam.com                      |
|    \\/     M anipulation  |                                                 |
\*---------------------------------------------------------------------------*/
FoamFile
{
    version     2.0;
    format      ascii;
    class       volVectorField;
    location    "34.6034524671462194";
    object      U;
}
// * * * * * * * * * * * * * * * * * * * * * * * * * * * * * * * * * * * * * //

dimensions      [0 1 -1 0 0 0 0];


internalField   nonuniform List<vector> 
9200
(
(2.531856 0.0035266028 0)
(2.5274748 0.011251898 -3.5274757e-22)
(2.5232841 0.0013317507 -6.4980656e-24)
(2.5212373 0.016419776 -8.9337474e-22)
(2.5200533 0.0040526209 -4.9572084e-22)
(2.5235154 0.00051502997 -1.9200304e-23)
(2.5120741 0.020500023 7.6717202e-22)
(2.5156569 0.0052459562 -6.4654088e-23)
(2.5205997 0.001618621 2.8021827e-22)
(2.5228426 -0.00033193913 -6.7553905e-25)
(2.5012746 0.0220676 -8.2920497e-23)
(2.5091033 0.0053905365 1.9841723e-23)
(2.516916 0.001559085 4.439128e-22)
(2.5204901 -0.0011074945 6.9972086e-23)
(2.5241449 -0.00089243554 4.7556188e-22)
(2.4890339 0.021467734 -7.5468405e-22)
(2.5017718 0.0038980183 -4.8310469e-22)
(2.5113761 0.00050306143 -9.9538098e-22)
(2.5176931 -0.0025971581 -1.5828733e-22)
(2.5221821 -0.0031422503 4.724644e-23)
(2.5260373 -0.0013645776 -5.4375217e-23)
(2.4761413 0.018321533 -3.1212619e-22)
(2.4937266 0.00079030013 -8.7639451e-22)
(2.505213 -0.0018685868 1.4662133e-22)
(2.5133601 -0.0050083487 3.3796255e-22)
(2.5200146 -0.0056164456 -1.7881865e-22)
(2.5244889 -0.0048366573 3.8828627e-22)
(2.5286493 -0.0017932004 -3.0580321e-22)
(2.4631531 0.012887502 1.8351367e-22)
(2.4856493 -0.0038527331 1.8492633e-22)
(2.4984327 -0.0056225586 2.1679868e-22)
(2.508663 -0.0082887624 5.4830561e-22)
(2.5165868 -0.0089955609 8.0142037e-22)
(2.5228197 -0.0081357038 1.3671126e-22)
(2.5274555 -0.0061956866 -2.1874024e-23)
(2.5317165 -0.0021457725 0)
(2.4507721 0.0051558826 1.0724601e-21)
(2.4778889 -0.010107043 5.3395463e-22)
(2.4915941 -0.010569873 1.5014896e-21)
(2.5035366 -0.012689852 1.0096911e-21)
(2.5129144 -0.01288562 -2.7789621e-22)
(2.5201701 -0.012314372 -1.5110935e-22)
(2.5261897 -0.010165105 3.3027491e-22)
(2.5308109 -0.0072855035 -6.1687737e-23)
(2.5351134 -0.002411629 0)
(2.4395324 -0.0047413417 -3.06162e-22)
(2.4707931 -0.017652011 7.6358587e-22)
(2.4849096 -0.016649484 -1.7808615e-22)
(2.4984322 -0.01791457 1.7369556e-22)
(2.5089295 -0.017724665 5.2212791e-22)
(2.5173654 -0.016707985 -3.3843933e-22)
(2.524168 -0.014974058 -7.250697e-22)
(2.5298889 -0.011799134 -1.536195e-22)
(2.5344546 -0.0081401955 0)
(2.5387084 -0.0026080344 1.7285957e-23)
(2.4296139 -0.016183084 5.8119645e-23)
(2.4644013 -0.025823476 3.8304032e-22)
(2.4785721 -0.023494915 1.4464753e-22)
(2.4934883 -0.024016906 -1.1297028e-21)
(2.5049911 -0.02313035 -1.0319143e-21)
(2.5143545 -0.02189476 4.0371602e-22)
(2.5220507 -0.019766091 5.5045131e-22)
(2.5283839 -0.017114122 -1.2137447e-22)
(2.5338256 -0.013085508 -1.0516716e-22)
(2.5382719 -0.0087914093 0)
(2.5424073 -0.0027489828 -1.2430558e-23)
(2.4212823 -0.028732108 -6.2496781e-22)
(2.4584577 -0.034374214 -4.6332216e-23)
(2.4727293 -0.030985921 3.988523e-22)
(2.4888718 -0.030739802 4.1823469e-22)
(2.5012142 -0.029236939 -1.9006478e-22)
(2.5114294 -0.027425763 -4.6190225e-22)
(2.5197974 -0.02521464 6.5907625e-23)
(2.5268233 -0.022231291 1.6411068e-22)
(2.5327528 -0.01880588 -2.0382222e-22)
(2.5378981 -0.014072093 -2.3060288e-23)
(2.5421776 -0.0092656902 -2.1774682e-23)
(2.5461319 -0.0028418664 1.091681e-22)
(2.4149417 -0.041956806 4.7750285e-22)
(2.4534792 -0.043115878 1.64259e-22)
(2.4676132 -0.03893245 -3.8443307e-22)
(2.4846468 -0.037997675 -2.0970562e-22)
(2.4977263 -0.035809309 3.3644183e-22)
(2.5086952 -0.033492236 -1.5492874e-22)
(2.5176499 -0.030815217 -1.1893461e-21)
(2.5251659 -0.027887524 -7.0526996e-22)
(2.5316432 -0.024193561 -6.0220552e-23)
(2.5372012 -0.020116633 -3.6677195e-22)
(2.5420362 -0.014798998 -3.5164783e-23)
(2.5460999 -0.0095863956 8.9386573e-23)
(2.5498211 -0.0028922049 -1.2539377e-22)
(2.4108474 -0.055291367 -3.5346346e-22)
(2.4494612 -0.051702862 1.6942814e-22)
(2.4631321 -0.047073054 1.1378124e-22)
(2.4807684 -0.045565108 -4.5226165e-22)
(2.4945731 -0.042820487 -4.9903174e-23)
(2.5062757 -0.039880057 4.779214e-22)
(2.5157101 -0.036786052 2.6443924e-22)
(2.5236079 -0.03352713 1.5586889e-22)
(2.5304462 -0.030029694 3.2086735e-22)
(2.5364705 -0.025738684 1.1089607e-22)
(2.5416838 -0.021100391 2.2261287e-22)
(2.5461818 -0.015299878 1.1304441e-22)
(2.549982 -0.0097726775 6.2923631e-23)
(2.5534258 -0.0029047369 5.3348076e-22)
(2.4090424 -0.068140876 -8.780308e-22)
(2.4463296 -0.059794327 -1.5451128e-21)
(2.4592013 -0.055093427 -6.8452383e-22)
(2.4771863 -0.053284307 6.650532e-22)
(2.491767 -0.050162059 6.3898289e-23)
(2.5042402 -0.046618402 -4.6574269e-22)
(2.5141091 -0.042907905 -5.970732e-22)
(2.5222406 -0.039371746 7.5635365e-22)
(2.5293069 -0.035713938 2.9443375e-22)
(2.5356415 -0.031752886 -1.4215751e-22)
(2.5412935 -0.026933409 -3.755472e-22)
(2.5461641 -0.021799806 -2.7113546e-22)
(2.5502882 -0.015600755 3.9996091e-23)
(2.5537775 -0.0098393888 3.3339856e-23)
(2.5569067 -0.0028829755 -6.8736404e-23)
(2.4094274 -0.080011244 -2.8901213e-22)
(2.4439765 -0.067064103 -1.8062184e-21)
(2.4557073 -0.062706536 -4.6752949e-22)
(2.4737846 -0.061018321 1.6400929e-22)
(2.4892535 -0.05780547 1.7270596e-23)
(2.5026285 -0.053650754 5.811575e-23)
(2.5129473 -0.049218901 -5.727189e-22)
(2.5211941 -0.04517387 -6.4378771e-22)
(2.5282918 -0.041458539 -1.7509493e-22)
(2.5347988 -0.037526073 6.5528888e-22)
(2.5407854 -0.033141022 -4.745078e-23)
(2.5461067 -0.027825679 2.3077069e-22)
(2.5506119 -0.022244546 1.3901065e-22)
(2.5543155 -0.015720134 7.2893845e-22)
(2.5574477 -0.0097973861 -1.9670538e-22)
(2.5602319 -0.0028292579 -1.8922385e-22)
(2.4117751 -0.090560013 -4.0625013e-22)
(2.4422285 -0.07332308 -9.0623207e-22)
(2.452495 -0.069653812 1.6759005e-21)
(2.4703882 -0.068631013 5.5268711e-23)
(2.4869246 -0.065722122 3.9443259e-23)
(2.5014453 -0.061009557 0)
(2.5123229 -0.055669942 1.8210592e-22)
(2.5205882 -0.050946331 5.4299321e-22)
(2.5275098 -0.046976023 2.354095e-23)
(2.5339699 -0.043260061 3.8926905e-22)
(2.5401773 -0.039074077 8.0016076e-22)
(2.5459182 -0.034246676 2.9575432e-22)
(2.5509055 -0.028442384 -5.7213313e-22)
(2.5549979 -0.022452134 -2.1581179e-23)
(2.5582277 -0.015670172 -8.4498207e-23)
(2.56096 -0.0096542306 9.9357906e-24)
(2.5633753 -0.0027450689 2.881054e-22)
(2.4157571 -0.099240577 7.4590098e-22)
(2.4409408 -0.078136452 1.4380352e-21)
(2.4493613 -0.075724356 2.1270772e-21)
(2.4667624 -0.076025846 -8.5288255e-22)
(2.4846294 -0.073920724 5.284532e-22)
(2.5006687 -0.068748875 7.754531e-22)
(2.512324 -0.062306502 -7.1668468e-23)
(2.5205601 -0.056601218 -3.4514059e-22)
(2.5270708 -0.052234034 3.5273792e-22)
(2.533219 -0.048631128 -1.5986409e-22)
(2.5394478 -0.044932127 -1.2697218e-22)
(2.5455472 -0.040416851 -3.167057e-22)
(2.551073 -0.035088033 6.3732863e-22)
(2.555677 -0.02879156 8.4290372e-22)
(2.5592903 -0.022430657 -5.7369522e-22)
(2.5619912 -0.015458949 -7.1082951e-22)
(2.5642869 -0.0094150552 -6.745419e-22)
(2.5663151 -0.0026317075 -7.5348844e-22)
(2.4209986 -0.10635812 5.8202249e-22)
(2.4413213 -0.081655397 -1.00945e-21)
(2.4461574 -0.080599405 1.8058436e-21)
(2.4626478 -0.083075515 -6.2609133e-23)
(2.4821678 -0.082451718 -4.1850771e-22)
(2.5002482 -0.076981489 -2.3534699e-22)
(2.5130369 -0.069197559 -3.7004364e-23)
(2.5212597 -0.062135695 6.1859692e-23)
(2.5271137 -0.057079549 0)
(2.5326153 -0.053563027 7.0473791e-22)
(2.5385999 -0.050371425 1.2303367e-21)
(2.544922 -0.046546386 -4.6180004e-22)
(2.5509976 -0.041557288 6.3238046e-22)
(2.5562629 -0.035653668 -3.9658782e-22)
(2.5603971 -0.028867758 5.1251763e-24)
(2.5634542 -0.022183017 2.3139109e-22)
(2.565575 -0.015093134 1.1753034e-21)
(2.5674055 -0.0090838104 -3.0099315e-23)
(2.5690336 -0.0024912239 0)
(2.4281707 -0.11233378 7.91309e-22)
(2.443641 -0.084335617 -8.2843607e-22)
(2.4422013 -0.084280215 -2.4299293e-21)
(2.4577846 -0.089651975 1.155453e-21)
(2.4793261 -0.091359094 -2.9668699e-22)
(2.5001068 -0.085853936 2.3169603e-22)
(2.5145442 -0.076472503 3.6785432e-22)
(2.5228575 -0.067558274 -9.6433013e-22)
(2.5278014 -0.061428247 -1.3095831e-21)
(2.5322569 -0.057839473 -2.3520898e-21)
(2.5376384 -0.055289446 -1.2882218e-21)
(2.5439775 -0.052294252 1.0937634e-21)
(2.550564 -0.048084039 -1.015416e-21)
(2.5565813 -0.042451465 9.030594e-22)
(2.5614751 -0.035912435 8.109122e-23)
(2.5650293 -0.028659483 -5.379356e-22)
(2.5674527 -0.021711529 -7.4358915e-24)
(2.5689513 -0.014580351 2.0808715e-23)
(2.5702981 -0.0086651629 0)
(2.5715174 -0.0023272206 0)
(2.4372606 -0.11715774 1.1014466e-21)
(2.4454715 -0.083912407 -1.5064874e-21)
(2.4371678 -0.08595874 -3.6398112e-22)
(2.4518524 -0.095948202 -2.0308179e-21)
(2.4758374 -0.10078757 4.2418441e-22)
(2.5001534 -0.095551111 5.0495017e-22)
(2.5169267 -0.084296748 -9.2043228e-23)
(2.5255453 -0.07293004 -1.4199126e-21)
(2.529329 -0.065185342 -1.2280939e-21)
(2.5322669 -0.061295554 2.1208789e-22)
(2.5365906 -0.059429036 -6.5681404e-22)
(2.5426454 -0.057557453 -8.8071726e-22)
(2.5496424 -0.054352934 -8.3924378e-22)
(2.5564859 -0.04945249 7.1245507e-23)
(2.5623045 -0.043026002 -4.6752712e-22)
(2.5666714 -0.035826045 -4.5628166e-24)
(2.5695279 -0.028156738 1.3750054e-22)
(2.5712489 -0.021021749 -1.5858642e-21)
(2.572097 -0.013930725 -1.1218733e-21)
(2.5729514 -0.0081668128 1.4471467e-23)
(2.5737588 -0.0021448984 2.5035586e-21)
(2.4469851 -0.12017894 -7.9995769e-22)
(2.4465218 -0.08101528 9.6959467e-22)
(2.4309583 -0.08599503 6.0762691e-22)
(2.4447261 -0.10118524 2.9299369e-22)
(2.4714346 -0.11080184 1.7433907e-22)
(2.5002591 -0.10630127 4.5103709e-22)
(2.520262 -0.09289401 1.2350846e-21)
(2.5295331 -0.07832901 4.3816419e-22)
(2.5319213 -0.068296945 -1.300138e-21)
(2.5327998 -0.06373821 2.7816599e-21)
(2.5355015 -0.062571558 2.7559386e-21)
(2.5408688 -0.062070894 -2.0365651e-21)
(2.548096 -0.060286395 -8.9197738e-24)
(2.5557943 -0.05638585 -1.1102987e-21)
(2.5627243 -0.05051453 9.3139913e-23)
(2.5681281 -0.043198647 -1.1361427e-21)
(2.5717928 -0.035361167 4.6989657e-22)
(2.5738424 -0.027356897 4.9970111e-23)
(2.5748081 -0.020124794 -4.3256894e-22)
(2.5749942 -0.013157455 9.0370107e-23)
(2.575357 -0.0076011126 -7.3989651e-22)
(2.5757552 -0.0019501475 4.7674224e-22)
(2.4574443 -0.12176149 1.0322853e-21)
(2.4481891 -0.07595664 -1.2530123e-21)
(2.4238579 -0.084277491 -4.6276664e-21)
(2.4360562 -0.10645955 2.6975163e-21)
(2.4659654 -0.12149435 -1.0303473e-21)
(2.5003129 -0.11830297 2.5673729e-22)
(2.5246229 -0.10250609 4.2089236e-21)
(2.535046 -0.083901532 -2.8141047e-22)
(2.5358394 -0.070674492 -3.9713723e-22)
(2.5340311 -0.064990991 2.3479833e-21)
(2.5344375 -0.064464923 1.3187874e-23)
(2.5385982 -0.065604061 2.4081526e-21)
(2.5457878 -0.065644641 5.2709314e-21)
(2.5543158 -0.063220012 -1.1774206e-21)
(2.5625163 -0.05816404 -8.7962424e-22)
(2.5692412 -0.051121081 -6.9044526e-22)
(2.5739754 -0.042897314 2.0453138e-21)
(2.5767677 -0.034498565 -4.5407752e-22)
(2.5779222 -0.026267975 -1.8576171e-21)
(2.5781009 -0.019038028 3.1614395e-21)
(2.5776303 -0.012276528 6.9882409e-22)
(2.5775105 -0.0069844614 4.8786244e-23)
(2.5775098 -0.0017481 -1.134853e-21)
(2.469299 -0.12186731 -3.9550153e-21)
(2.4503726 -0.06867919 2.6350253e-21)
(2.4157068 -0.080728896 -4.3216477e-21)
(2.4254223 -0.11102182 -1.6845147e-21)
(2.4591851 -0.13300666 1.2844299e-21)
(2.5001821 -0.13183501 -9.0739368e-22)
(2.530081 -0.11341873 -3.2658775e-21)
(2.5423263 -0.089781961 -5.45578e-21)
(2.5413536 -0.072354656 -1.9935473e-21)
(2.5361742 -0.064870506 1.3706762e-21)
(2.5334795 -0.064843822 -1.3796375e-21)
(2.5357945 -0.067887574 -1.9675136e-21)
(2.542579 -0.070223315 -3.0873779e-23)
(2.5518493 -0.069766328 1.8051026e-21)
(2.561457 -0.066002117 3.9993298e-21)
(2.5697761 -0.059441659 -1.7777969e-21)
(2.5759367 -0.051140393 -8.4375492e-23)
(2.5797453 -0.04207404 2.28244e-21)
(2.5815207 -0.033237975 2.7025512e-22)
(2.5817215 -0.024909225 -6.1302972e-24)
(2.581104 -0.01778438 -3.4688393e-22)
(2.5799973 -0.011305825 -4.1595923e-22)
(2.5794115 -0.0063340895 7.3202462e-22)
(2.5790326 -0.0015423852 -7.5674418e-22)
(2.4817349 -0.12064466 2.9098349e-23)
(2.4523129 -0.059154826 -1.4316727e-22)
(2.40624 -0.075007148 2.8609395e-21)
(2.4126435 -0.11500525 2.6172244e-22)
(2.4507306 -0.145404 1.6100137e-21)
(2.4996935 -0.14704166 7.8995507e-22)
(2.5366627 -0.12591462 -8.7832199e-21)
(2.5516188 -0.096169014 2.5763782e-21)
(2.5487544 -0.073248121 -2.8446716e-21)
(2.5394543 -0.063158216 1.4712055e-21)
(2.5327274 -0.063447609 -1.608009e-22)
(2.5324342 -0.068617544 -4.3513227e-22)
(2.5383347 -0.073772273 -6.5903215e-21)
(2.5481851 -0.075873634 -8.2532315e-22)
(2.5593033 -0.07390814 4.0708725e-21)
(2.5694997 -0.068251987 -1.6572303e-21)
(2.5774443 -0.059999613 7.0324135e-22)
(2.5826684 -0.05047907 5.6030401e-23)
(2.5853262 -0.040712298 -9.6794763e-22)
(2.5859803 -0.031598843 -3.2900104e-22)
(2.5852026 -0.023309737 -1.9475353e-22)
(2.5838018 -0.016390761 -3.735382e-21)
(2.5820916 -0.010263905 -3.9958382e-23)
(2.5810636 -0.005664445 -2.8167849e-23)
(2.5803367 -0.0013356396 -1.3078616e-22)
(2.4927036 -0.11798172 2.2440213e-21)
(2.4535166 -0.047467527 -1.1503883e-20)
(2.3949433 -0.067226697 -1.7306994e-20)
(2.3975354 -0.11828922 2.1937821e-21)
(2.4403469 -0.15876514 -1.3871697e-21)
(2.4986755 -0.16416621 1.8315207e-22)
(2.5444043 -0.14029279 1.2958615e-22)
(2.5631603 -0.10324957 1.1473084e-20)
(2.5583515 -0.073382817 2.3287483e-21)
(2.544099 -0.059722798 -1.3768058e-21)
(2.5323002 -0.0599973 4.1812565e-22)
(2.5284944 -0.067559373 1.5249462e-21)
(2.5329289 -0.076042024 1.0647659e-21)
(2.5431128 -0.081348262 -1.8410378e-21)
(2.5557992 -0.081802796 -2.88432e-21)
(2.5681522 -0.077507376 2.843902e-21)
(2.5782787 -0.069627678 -7.4476383e-22)
(2.5853233 -0.059676511 -5.9326005e-22)
(2.5892731 -0.049093108 -5.251523e-22)
(2.5906092 -0.038828021 -3.3154057e-21)
(2.5900855 -0.029617911 1.3674789e-21)
(2.5883376 -0.021505861 -3.6597846e-21)
(2.5861863 -0.014886127 4.6612906e-22)
(2.5839137 -0.0091689553 3.7954459e-22)
(2.582474 -0.0049857207 2.1892287e-21)
(2.5814278 -0.0011297581 6.6910213e-22)
(2.5003052 -0.11432804 1.2795195e-22)
(2.4530089 -0.03342669 -4.5885594e-21)
(2.3813243 -0.057000827 -2.8219192e-22)
(2.3799193 -0.12096043 3.8550986e-23)
(2.4278479 -0.17321001 0)
(2.4969595 -0.1833707 -1.5584903e-21)
(2.5533163 -0.15683992 -7.6434262e-22)
(2.5771932 -0.11124672 -1.1458557e-20)
(2.5704392 -0.072725678 5.7018381e-21)
(2.5503425 -0.054383024 -4.676837e-21)
(2.5323098 -0.054237132 -2.4260721e-21)
(2.5239605 -0.064378251 2.8466303e-22)
(2.5262371 -0.076764279 5.4404106e-22)
(2.5364242 -0.085994545 5.2989678e-21)
(2.5506834 -0.089567474 -7.9654401e-22)
(2.5654588 -0.08720941 2.0917436e-21)
(2.5781891 -0.080055199 0)
(2.5875249 -0.069870242 9.0678036e-22)
(2.5931794 -0.058385123 2.0310243e-22)
(2.5955876 -0.046989656 3.2645438e-21)
(2.5954986 -0.036465858 -9.3671574e-22)
(2.5937898 -0.027344989 -1.0095035e-21)
(2.5911102 -0.019538248 3.309866e-21)
(2.5882573 -0.013299643 2.2078643e-21)
(2.5854685 -0.0080382189 0)
(2.5836521 -0.0043034302 -1.1410781e-21)
(2.5823144 -0.00092509242 -1.0920648e-21)
(2.503818 -0.1086496 -1.3009257e-22)
(2.4458957 -0.017228954 1.4786761e-21)
(2.3632304 -0.045019278 1.9019303e-20)
(2.3596174 -0.12282414 -5.1567411e-22)
(2.4131516 -0.18877053 3.5273408e-21)
(2.4944177 -0.20480715 0)
(2.5633731 -0.17581167 -8.875872e-22)
(2.5939061 -0.12038128 -2.1030382e-20)
(2.5853127 -0.071300921 -7.7731613e-22)
(2.558406 -0.04694049 2.0128792e-21)
(2.5328534 -0.045917877 -3.3912417e-21)
(2.5188243 -0.058815006 2.8925583e-21)
(2.5181435 -0.075696415 3.4703356e-21)
(2.5279216 -0.089609132 -1.0101736e-21)
(2.5436955 -0.097080445 -4.7842449e-21)
(2.5611347 -0.097324665 3.7788024e-21)
(2.5769097 -0.091365138 -1.7430336e-21)
(2.5890545 -0.08115768 3.8151177e-22)
(2.5969097 -0.068827731 -3.5729354e-21)
(2.6007728 -0.056115619 8.3928623e-22)
(2.601465 -0.044221663 -1.2120101e-21)
(2.5999189 -0.033692569 2.3860428e-22)
(2.5970632 -0.024838024 1.0748625e-21)
(2.5935148 -0.017449023 3.9683195e-21)
(2.5900209 -0.011659163 1.1587345e-21)
(2.5867652 -0.0068875066 1.0022479e-21)
(2.5846093 -0.003618325 -1.4191364e-21)
(2.5830316 -0.00072223351 -6.7124048e-22)
(2.5038113 -0.10166193 -7.8262011e-22)
(2.4295644 0.0014751706 2.9282178e-21)
(2.3372834 -0.030429786 2.8962581e-21)
(2.3357082 -0.12465881 1.7231218e-22)
(2.396644 -0.20558174 -2.9825934e-21)
(2.4911133 -0.22864007 -6.2007862e-22)
(2.5745676 -0.19747838 -8.7299734e-21)
(2.6135071 -0.1308578 7.7138304e-21)
(2.6032019 -0.069083761 2.7026695e-20)
(2.5684806 -0.037301619 3.9981364e-21)
(2.5340262 -0.034771064 7.8653822e-23)
(2.5130645 -0.050619929 2.1974122e-21)
(2.5085473 -0.072599517 -4.8681697e-22)
(2.5174233 -0.091996827 -2.5449487e-21)
(2.5345863 -0.10421018 -3.531995e-21)
(2.5548924 -0.10781573 5.9473404e-22)
(2.5741603 -0.10361191 8.5117401e-22)
(2.5896819 -0.093695543 1.8096134e-21)
(2.6002972 -0.080569812 -1.3663546e-21)
(2.6060893 -0.066461161 -1.0000439e-22)
(2.6078837 -0.052928556 -2.1485775e-22)
(2.6067867 -0.040878093 3.5618538e-22)
(2.603819 -0.030589252 -2.0061992e-21)
(2.5998923 -0.02215831 -1.1940657e-21)
(2.5955558 -0.01527936 -1.5681071e-21)
(2.591489 -0.0099900757 -5.0447087e-23)
(2.5878179 -0.0057306004 4.4370651e-21)
(2.5853616 -0.0029319323 6.4455094e-23)
(2.5835961 -0.00052602921 -1.4586498e-23)
(2.5003797 -0.092751251 -1.4975758e-21)
(2.4080676 0.021704276 7.8006376e-22)
(2.3041922 -0.015523688 2.7590473e-21)
(2.3066017 -0.12604922 -4.3692965e-21)
(2.3783624 -0.22369471 6.336818e-22)
(2.4872234 -0.25486367 -3.7429799e-21)
(2.5868955 -0.22194032 4.5307663e-20)
(2.6361258 -0.14294312 5.0094079e-20)
(2.6244111 -0.066055946 -5.0797603e-21)
(2.5807086 -0.025234843 -1.1678599e-20)
(2.5358778 -0.020654943 3.0059888e-21)
(2.5066586 -0.039548322 1.955672e-21)
(2.4973529 -0.067272738 -3.4627843e-21)
(2.5047703 -0.092976114 -5.7062349e-22)
(2.5231268 -0.11082297 5.4824277e-21)
(2.546453 -0.11863019 -9.8429861e-21)
(2.5696526 -0.11684676 4.5177847e-21)
(2.5891596 -0.10762104 -5.848812e-22)
(2.6031704 -0.09382632 -9.4025684e-22)
(2.6114352 -0.078205889 -3.4089342e-21)
(2.6147422 -0.062836127 6.5860037e-21)
(2.6143311 -0.048941072 -8.6183711e-22)
(2.6114696 -0.037072049 6.4729676e-21)
(2.6071728 -0.027243617 1.2921776e-21)
(2.6022789 -0.019366295 -3.3560807e-21)
(2.597246 -0.013067503 8.6339492e-22)
(2.5926778 -0.008314742 1.3406274e-21)
(2.5886435 -0.004579385 -1.273786e-21)
(2.5859252 -0.0022550076 -2.830425e-22)
(2.5839605 -0.00033833513 0)
(2.4915753 -0.08236067 1.4102142e-20)
(2.3828373 0.044198172 9.3863005e-22)
(2.2678833 0.0016894904 6.6713926e-22)
(2.2723075 -0.1291949 -4.4381089e-22)
(2.3579709 -0.24289327 2.1395542e-21)
(2.4812884 -0.28284593 1.2568739e-20)
(2.5987718 -0.24868149 8.4792097e-21)
(2.6597774 -0.1565276 8.6436332e-20)
(2.6488642 -0.062235725 -5.0958502e-20)
(2.5953099 -0.010641333 7.7042291e-21)
(2.5384547 -0.0032455613 -4.0012507e-21)
(2.4995517 -0.025459463 -8.3669439e-21)
(2.484477 -0.05954154 -3.9924979e-21)
(2.489832 -0.092394908 -1.4800498e-20)
(2.5091224 -0.11678858 1.034562e-20)
(2.5355555 -0.12970237 1.0760136e-20)
(2.5631001 -0.13110397 3.1017204e-21)
(2.5872272 -0.12307279 4.8391339e-21)
(2.6053409 -0.10880385 1.9429152e-21)
(2.6167149 -0.091600405 -2.5044032e-21)
(2.6220085 -0.074130826 -2.283946e-22)
(2.6225981 -0.058104453 -1.008587e-22)
(2.6199843 -0.044309499 2.035092e-21)
(2.6154679 -0.032928682 -1.1615776e-21)
(2.6099772 -0.023743102 -1.447571e-21)
(2.6042378 -0.016518215 1.6111211e-21)
(2.598605 -0.010847316 7.0752351e-22)
(2.5936072 -0.0066523382 -5.7485395e-22)
(2.5892591 -0.0034443427 -3.6975916e-21)
(2.586313 -0.0015989031 1.0857937e-21)
(2.5841979 -0.00012528796 -8.5097418e-22)
(2.4776644 -0.06892689 -1.845124e-22)
(2.3494377 0.069603881 2.0695412e-20)
(2.230333 0.017559188 4.1373451e-21)
(2.2348687 -0.1319294 -6.019909e-21)
(2.3349135 -0.26386349 4.4222219e-21)
(2.473562 -0.31209246 1.8242685e-20)
(2.6063506 -0.27646147 -1.8888052e-20)
(2.6797424 -0.17105935 -4.0869331e-20)
(2.6735779 -0.057302356 1.3753948e-20)
(2.6117715 0.0066094548 3.6271352e-21)
(2.5418154 0.017448664 -4.3269211e-21)
(2.4917104 -0.0081103149 1.2716913e-21)
(2.4698354 -0.04931324 0)
(2.4725136 -0.090130203 1.5955663e-21)
(2.4924185 -0.12198963 -7.5151203e-21)
(2.5219747 -0.14095494 9.0872533e-21)
(2.5542254 -0.14639375 -1.7064697e-21)
(2.5836159 -0.14017532 7.7271035e-22)
(2.6066051 -0.12571899 -3.2059708e-21)
(2.6218212 -0.10689861 2.6225464e-21)
(2.6296724 -0.087071058 -1.4752187e-21)
(2.6316227 -0.068537271 8.6763933e-21)
(2.6294571 -0.052479832 -4.5140241e-21)
(2.6247676 -0.039211022 -3.4276305e-22)
(2.618771 -0.028574135 -3.8793563e-21)
(2.6122494 -0.020169244 -3.2863749e-21)
(2.605794 -0.013663593 6.6781951e-22)
(2.5996569 -0.0086473895 -9.678869e-22)
(2.5942983 -0.0050184627 -4.0601999e-21)
(2.5896817 -0.0023336483 -7.3765793e-22)
(2.5865438 -0.00095861245 -4.328214e-22)
(2.5842958 0.00011268849 6.6989453e-23)
(2.4602471 -0.052846456 -1.8814216e-20)
(2.3126421 0.098313213 7.1257247e-21)
(2.1890491 0.036753454 5.6104395e-21)
(2.1971995 -0.13788199 -4.6260531e-21)
(2.3085566 -0.28534589 2.1842487e-20)
(2.4628054 -0.34225244 -1.4550654e-20)
(2.6116049 -0.30534404 -3.5657749e-20)
(2.694531 -0.18567642 -9.7247397e-20)
(2.6930442 -0.050947012 1.6293848e-21)
(2.6263323 0.026789845 -1.6759534e-21)
(2.5453126 0.041585435 5.2001358e-21)
(2.4830528 0.012449994 9.2317553e-21)
(2.4533757 -0.036472347 1.0699189e-20)
(2.4527546 -0.08611889 1.8180948e-20)
(2.4729152 -0.12632109 -1.7690794e-20)
(2.5055258 -0.15229998 -1.7680546e-20)
(2.5427779 -0.16270325 -2.8899926e-21)
(2.5780541 -0.15902429 -4.5792891e-21)
(2.6067424 -0.14478284 7.4591563e-21)
(2.6266342 -0.12437554 -2.6612962e-21)
(2.6377217 -0.10192843 -4.4877079e-23)
(2.6414793 -0.080475694 0)
(2.6399793 -0.061713023 -2.2318907e-21)
(2.6351992 -0.046210963 1.7055888e-21)
(2.6286586 -0.033826421 -4.5336584e-21)
(2.621399 -0.024126363 -1.0669011e-21)
(2.6140216 -0.016593489 2.2911815e-21)
(2.606979 -0.010843617 1.0897081e-21)
(2.6004284 -0.0064905876 1.0712851e-21)
(2.5947726 -0.0034247045 3.3595594e-22)
(2.5899291 -0.001252796 -5.0165018e-22)
(2.5866405 -0.0003248404 1.6838968e-22)
(2.5842782 0.00030367315 4.8548859e-22)
(2.4398314 -0.035048873 -2.9088958e-21)
(2.2782358 0.12956038 4.7353983e-20)
(2.1466956 0.059474568 -1.7079681e-20)
(2.1545254 -0.14088592 6.2510935e-21)
(2.2821605 -0.30932065 -1.8432465e-20)
(2.4484408 -0.37227736 -1.8431822e-20)
(2.6110464 -0.33368766 -4.0505146e-20)
(2.7074208 -0.20087794 7.3058071e-23)
(2.7080375 -0.043287127 -1.7210314e-20)
(2.6354973 0.049941371 2.1794807e-20)
(2.5452319 0.069176221 -1.7525681e-21)
(2.473226 0.036399236 -5.3149107e-21)
(2.4350096 -0.021089587 2.0198158e-22)
(2.4305449 -0.080312666 -1.5215258e-20)
(2.4505693 -0.12971109 8.8830511e-21)
(2.486086 -0.16363881 -6.7526133e-21)
(2.5285367 -0.17998445 1.9739216e-21)
(2.5702793 -0.17968815 -7.8502463e-21)
(2.6055172 -0.16618152 7.9679278e-21)
(2.6310138 -0.14431357 -3.1755415e-21)
(2.6461404 -0.11900614 1.9213326e-22)
(2.652253 -0.094174833 1.9509901e-21)
(2.651698 -0.072194762 -3.1911819e-21)
(2.6468924 -0.054003061 9.6077841e-22)
(2.6397827 -0.039555276 3.6846118e-22)
(2.631681 -0.028325391 -1.8566558e-21)
(2.6233956 -0.019688226 9.165968e-23)
(2.615337 -0.01307452 2.5010002e-21)
(2.6078287 -0.0080904102 -1.1254124e-22)
(2.6009478 -0.004393988 3.1415693e-21)
(2.5950521 -0.0018791168 4.7675617e-21)
(2.5900189 -0.00020689987 6.7258415e-22)
(2.5866115 0.00030172586 4.3662122e-22)
(2.5841512 0.0004922825 5.2972174e-23)
(2.4171548 -0.015943814 -7.021062e-23)
(2.2464161 0.16215662 -4.0065862e-20)
(2.1084999 0.082947212 -1.2223108e-20)
(2.1087806 -0.14244265 1.3336912e-21)
(2.2483824 -0.3317393 -6.6897863e-20)
(2.4323921 -0.40264077 -5.4508725e-20)
(2.605332 -0.36382312 5.4959658e-20)
(2.7142917 -0.21537392 2.5816817e-21)
(2.7218633 -0.035491127 0)
(2.64323 0.075623959 0)
(2.5391827 0.099651795 -9.2884741e-21)
(2.460224 0.063421179 8.3925785e-21)
(2.4146871 -0.0031481205 -8.2354819e-21)
(2.4058894 -0.072794857 9.0152383e-22)
(2.4254047 -0.13209551 9.3245303e-21)
(2.4635926 -0.17487474 1.4068316e-22)
(2.5113372 -0.19815945 -1.2361132e-20)
(2.5600405 -0.20218055 1.449787e-21)
(2.602682 -0.19007907 1.9178571e-22)
(2.6347967 -0.16698324 1.0376905e-21)
(2.6548971 -0.13862895 -5.9059923e-21)
(2.6640403 -0.1099274 3.6122834e-22)
(2.6647858 -0.08412957 -7.8035544e-21)
(2.6600469 -0.06270018 2.4674541e-22)
(2.6522904 -0.045770552 1.3774171e-21)
(2.6432355 -0.032755862 2.0505091e-21)
(2.6338947 -0.022855397 -1.7158575e-21)
(2.6248207 -0.015343134 3.4070664e-21)
(2.6162444 -0.0096571521 -1.4556011e-21)
(2.60838 -0.0054271999 -1.5651201e-21)
(2.6012427 -0.0023693321 -1.982832e-21)
(2.5951592 -0.00038705858 1.0950273e-21)
(2.5899711 0.00079998396 4.277501e-22)
(2.5864632 0.00091447147 -3.5527159e-22)
(2.5839216 0.00068443114 1.5706598e-24)
(2.3928176 0.0039264944 -4.5148848e-23)
(2.217887 0.19524352 -1.3380808e-19)
(2.0765505 0.10812515 1.6686677e-20)
(2.0656906 -0.14475892 5.6510912e-20)
(2.2086521 -0.35506065 3.3167549e-20)
(2.4073482 -0.43368833 8.7450298e-21)
(2.5965935 -0.39072586 3.3382046e-20)
(2.7144324 -0.23348516 -3.9892575e-22)
(2.7366192 -0.028619243 0)
(2.6530793 0.10166861 -1.7579247e-21)
(2.5331574 0.13200529 6.942733e-22)
(2.4426938 0.092588457 -1.5528515e-21)
(2.3919452 0.016936286 4.9247563e-21)
(2.3788857 -0.063564108 2.4098984e-20)
(2.3975026 -0.1334835 1.5480144e-20)
(2.4380587 -0.18589407 6.3114147e-21)
(2.491062 -0.2171182 6.8128198e-21)
(2.5471243 -0.22647645 5.6924906e-21)
(2.5979799 -0.21657621 -1.213582e-20)
(2.63779 -0.19264612 1.1270544e-20)
(2.6639371 -0.16112865 -4.5392425e-21)
(2.6769356 -0.12805904 -2.949891e-21)
(2.6794441 -0.097758051 1.5132593e-21)
(2.6748999 -0.072427677 -2.9600954e-21)
(2.6664077 -0.052498879 3.0563484e-21)
(2.6562052 -0.03736129 -6.3068347e-21)
(2.6456406 -0.026023617 2.2812371e-23)
(2.6353845 -0.017534641 2.0373215e-21)
(2.6257432 -0.011153299 -2.9907709e-22)
(2.6167949 -0.0063726302 -1.2095913e-21)
(2.6086698 -0.0028692511 -7.4130879e-22)
(2.601339 -0.000424061 -1.7847833e-21)
(2.5951129 0.001048202 2.7861612e-22)
(2.5898062 0.0017669503 1.9168087e-22)
(2.586212 0.0015068691 3.8062985e-23)
(2.5836024 0.00086343149 2.0654596e-22)
(2.3676288 0.02394284 2.4559978e-22)
(2.1931874 0.22798071 1.5595927e-20)
(2.0516272 0.13403548 -1.5005262e-22)
(2.0278623 -0.14639729 2.5608956e-20)
(2.1663739 -0.38010167 3.4521088e-20)
(2.3757061 -0.46677494 1.2653187e-20)
(2.5792017 -0.42203138 -4.9214757e-20)
(2.7103883 -0.24649656 1.1221294e-19)
(2.7393309 -0.025042129 5.4048829e-23)
(2.6734446 0.12843314 0)
(2.5322179 0.16568835 -1.4327284e-21)
(2.4241803 0.12277667 2.6670033e-21)
(2.3661496 0.038690083 2.2229891e-21)
(2.3497076 -0.052952464 -1.9884307e-21)
(2.3670246 -0.13383634 -9.8489378e-21)
(2.4095682 -0.19661558 -1.0472396e-21)
(2.4676718 -0.23671063 2.4971994e-20)
(2.5313411 -0.25248262 5.8988506e-21)
(2.5911605 -0.24573911 -1.097731e-21)
(2.6397731 -0.22150861 3.844746e-21)
(2.6731689 -0.18684625 2.1502051e-21)
(2.6910192 -0.14892051 -7.4554736e-21)
(2.6958913 -0.11335802 1.465173e-21)
(2.6917346 -0.083337085 5.7817618e-22)
(2.6824053 -0.059768145 3.233782e-21)
(2.6708136 -0.042078877 -4.5196e-22)
(2.6587509 -0.029075488 2.5195728e-21)
(2.6471183 -0.019525941 -1.4915907e-21)
(2.6362486 -0.012449302 -1.9191255e-21)
(2.6262348 -0.0071603421 -3.2852457e-21)
(2.6170385 -0.0032401181 -1.2457078e-22)
(2.6087327 -0.00042510537 -3.5677652e-22)
(2.6012621 0.0014376594 2.1069946e-21)
(2.5949295 0.0024244287 -7.6945853e-22)
(2.5895378 0.0026935086 6.9881726e-23)
(2.5858725 0.0020749799 -1.1978743e-23)
(2.5832077 0.0010322547 -1.7375413e-22)
(2.3422594 0.043486905 -4.6257642e-22)
(2.1732581 0.25966503 -3.9865088e-22)
(2.0337272 0.1601829 -9.2915838e-20)
(1.9974001 -0.14683264 -8.7799999e-20)
(2.1236292 -0.40643906 -6.9301987e-20)
(2.3389437 -0.50116684 -1.2800921e-20)
(2.5529769 -0.45869739 -9.1426041e-20)
(2.6990044 -0.26710668 1.3440495e-20)
(2.7336114 -0.016884262 1.2161781e-21)
(2.6755625 0.15592843 -4.9620555e-20)
(2.5305723 0.20216144 -2.0374886e-20)
(2.408423 0.15508989 -2.9000972e-21)
(2.3381173 0.060898274 -4.4320753e-21)
(2.3183967 -0.040958249 -7.636013e-21)
(2.334211 -0.1333009 -1.3650839e-20)
(2.3782763 -0.20690662 -7.0536749e-21)
(2.4411872 -0.25678466 2.2715495e-20)
(2.5125705 -0.2800562 1.45626e-21)
(2.5819704 -0.27753391 -3.5112858e-21)
(2.6404962 -0.25375759 -5.1045734e-21)
(2.6824626 -0.21609245 5.5153742e-21)
(2.7063426 -0.17289048 -4.1088251e-21)
(2.7143497 -0.13124244 4.3300575e-21)
(2.7108703 -0.095611893 8.3955067e-21)
(2.7006118 -0.067615577 6.8225508e-21)
(2.6873306 -0.046833344 4.2046746e-21)
(2.6734208 -0.031865144 4.3867514e-22)
(2.6600987 -0.021149693 2.723647e-21)
(2.6478094 -0.013382309 -2.3178101e-21)
(2.6365889 -0.007654549 -1.2815774e-22)
(2.626365 -0.0033877317 3.014227e-22)
(2.6170216 -0.0002689031 1.7036801e-21)
(2.6086004 0.0019019532 -1.9713368e-22)
(2.6010358 0.0032146141 -4.8876164e-22)
(2.5946264 0.0037404693 -1.075327e-22)
(2.5891772 0.0035793896 4.8102202e-23)
(2.5854557 0.0026158541 3.5194422e-22)
(2.5827441 0.0011884078 3.9600261e-22)
(2.3171515 0.06187637 -1.2319169e-22)
(2.1588895 0.28967228 -1.5454067e-20)
(2.022453 0.18587927 -5.3718509e-20)
(1.9755356 -0.14580849 3.1746648e-20)
(2.0823895 -0.43267954 -1.138987e-21)
(2.2977923 -0.53663555 -5.0129515e-21)
(2.5186798 -0.4958013 9.034208e-20)
(2.67729 -0.29611313 -1.1859188e-19)
(2.7177317 -0.01585404 -1.3850868e-19)
(2.6544496 0.18451945 8.4875093e-20)
(2.5207078 0.24015716 -5.679674e-21)
(2.3940527 0.18979716 9.6545242e-21)