/*--------------------------------*- C++ -*----------------------------------*\
| =========                 |                                                 |
| \\      /  F ield         | OpenFOAM: The Open Source CFD Toolbox           |
|  \\    /   O peration     | Version:  v2012                                 |
|   \\  /    A nd           | Website:  www.openfoam.com                      |
|    \\/     M anipulation  |                                                 |
\*---------------------------------------------------------------------------*/
FoamFile
{
    version     2.0;
    format      ascii;
    class       surfaceVectorField;
    location    "34.6034524671462194";
    object      Uf;
}
// * * * * * * * * * * * * * * * * * * * * * * * * * * * * * * * * * * * * * //

dimensions      [0 1 -1 0 0 0 0];


internalField   nonuniform List<vector> 
18180
(
(2.5295919 0.0075487336 -1.8229076e-22)
(2.5262273 0.002409451 -3.5075719e-24)
(2.5242514 0.013893075 -6.3213392e-22)
(2.5224848 0.007587371 -4.1895876e-22)
(2.5216145 0.0027614151 -2.5931634e-22)
(2.5239106 0.00091609749 -1.2962883e-23)
(2.5165019 0.018558698 -3.5225825e-23)
(2.5173749 0.010732241 -4.5973802e-22)
(2.5177813 0.0046374193 -2.7295405e-22)
(2.5208024 0.0028139417 -9.5709438e-23)
(2.5220087 0.0011098786 1.3553171e-22)
(2.5230122 8.3956489e-05 -9.7721885e-24)
(2.506493 0.021297862 3.278532e-22)
(2.5097882 0.012809392 3.8679533e-22)
(2.5122701 0.0053440274 -2.0987961e-23)
(2.5166988 0.0033696765 1.8953742e-22)
(2.5186961 0.0015622694 3.6481218e-22)
(2.5204115 0.00023113729 1.7321455e-22)
(2.5216269 -0.00071415175 3.5833343e-23)
(2.52357 -0.00061719279 2.4170179e-22)
(2.4949487 0.021768334 -4.3008222e-22)
(2.5011239 0.012819653 -2.8660341e-22)
(2.5053144 0.0046079598 -2.4007436e-22)
(2.5105461 0.0029032284 -4.9684747e-22)
(2.5140531 0.0010338916 -2.9988976e-22)
(2.5171894 -0.00055626325 1.3460199e-22)
(2.5190447 -0.0018961988 -4.7987432e-23)
(2.5213995 -0.0021430477 5.8406057e-23)
(2.5231306 -0.0020270397 2.5421952e-22)
(2.5250976 -0.0011327289 2.0585576e-22)
(2.4823711 0.019852485 -5.259734e-22)
(2.4914604 0.010943643 -8.1716978e-22)
(2.4976141 0.0023078401 -6.8635259e-22)
(2.5036505 0.00096325617 -1.6261439e-22)
(2.5081911 -0.00072486199 -4.0521137e-22)
(2.5122895 -0.0023019692 -3.1917672e-22)
(2.5154539 -0.0038321617 9.8165491e-23)
(2.5189202 -0.0041337652 -1.6768189e-22)
(2.521062 -0.0044402022 -6.9578938e-23)
(2.5233448 -0.0040046048 2.208148e-22)
(2.5252371 -0.0031320386 1.7438064e-22)
(2.5273749 -0.0015827187 -1.8233643e-22)
(2.4694291 0.015533047 -5.5983103e-23)
(2.4815169 0.0070359457 -5.9146936e-23)
(2.4895523 -0.0016096956 -3.2791412e-22)
(2.4960588 -0.0024734336 -3.2003617e-22)
(2.501709 -0.0038011412 1.8288807e-22)
(2.5069095 -0.0051360686 3.5105147e-22)
(2.5109327 -0.0067065394 4.4666425e-22)
(2.5150374 -0.0070375577 5.7383306e-22)
(2.5182432 -0.0073539731 3.277498e-22)
(2.5214326 -0.0068985973 -1.8233677e-23)
(2.5236263 -0.0065548406 2.5827804e-22)
(2.5260068 -0.0055283135 1.7954044e-22)
(2.5280324 -0.0040445048 -1.5907611e-22)
(2.5302124 -0.0019726374 -1.5016833e-22)
(2.4567547 0.0088903165 6.4291417e-22)
(2.4717488 0.0011848025 3.6187152e-22)
(2.4816388 -0.0071034244 3.6530091e-22)
(2.4884094 -0.0072714302 8.629903e-22)
(2.4948986 -0.0081780455 8.8071203e-22)
(2.5010154 -0.009219306 6.2032278e-22)
(2.5060137 -0.010560741 7.8674273e-22)
(2.5108491 -0.010628232 1.290093e-22)
(2.514689 -0.01100249 2.4364924e-22)
(2.5184019 -0.010684631 3.1664396e-22)
(2.5214505 -0.010293717 -1.2028674e-23)
(2.5245427 -0.0091685325 2.3485896e-22)
(2.5268014 -0.008254135 1.6010834e-22)
(2.5291656 -0.0067503327 -4.2136673e-23)
(2.5312485 -0.0047810476 -3.187856e-23)
(2.5334488 -0.0022810764 0)
(2.4449635 4.6266416e-05 3.5999972e-22)
(2.4627632 -0.0064513853 9.1525947e-22)
(2.4742219 -0.013993882 6.5262582e-22)
(2.4809895 -0.013436964 1.7158406e-22)
(2.4881397 -0.013714242 6.3350346e-22)
(2.4951113 -0.014307707 8.2574726e-22)
(2.5008987 -0.015384183 5.7765988e-22)
(2.5062866 -0.0152522 7.6155686e-22)
(2.5108551 -0.015387639 1.3554284e-22)
(2.5151732 -0.014830951 -3.0836862e-22)
(2.5187207 -0.014576095 -2.4791784e-22)
(2.5222118 -0.013667969 -4.4321709e-22)
(2.525145 -0.012655501 -2.1510531e-22)
(2.528075 -0.010996716 8.4124135e-23)
(2.5303344 -0.0096205685 -1.0919586e-22)
(2.5326693 -0.0077204855 -3.0465433e-23)
(2.5347729 -0.0053539022 0)
(2.5369457 -0.0025115871 8.7975279e-24)
(2.4344066 -0.010649259 -1.1790477e-22)
(2.454781 -0.015469832 6.85917e-23)
(2.4674899 -0.021846492 5.6692372e-22)
(2.4740207 -0.020626115 4.4859982e-22)
(2.4816345 -0.020185671 -1.1301053e-23)
(2.4893642 -0.020398784 -6.6525221e-22)
(2.4958773 -0.021070115 -4.9988378e-22)
(2.5017542 -0.02056901 -4.3986471e-22)
(2.5068942 -0.020509239 -2.8097689e-22)
(2.5116866 -0.019846946 4.6186483e-22)
(2.5158094 -0.01939256 4.5093002e-23)
(2.5197555 -0.018264343 1.1394489e-22)
(2.5230738 -0.017437938 -6.5906274e-23)
(2.5263166 -0.016063201 -4.1782999e-22)
(2.5291112 -0.014556475 -1.3695596e-22)
(2.5318968 -0.012453811 -1.2896041e-22)
(2.5341296 -0.010695405 -5.4347778e-23)
(2.5364005 -0.0084716214 -1.341116e-25)
(2.5384829 -0.0057879428 8.3530576e-24)
(2.5405932 -0.0026797687 2.1619271e-24)
(2.4253082 -0.022670916 -2.9489263e-22)
(2.4476662 -0.02543979 -2.8422518e-23)
(2.4613297 -0.030223427 1.6114535e-22)
(2.4676191 -0.028451513 3.9108718e-22)
(2.4755526 -0.02737488 2.7601765e-22)
(2.4839664 -0.027181742 2.8387881e-22)
(2.4911025 -0.027488708 -3.2974896e-22)
(2.4973808 -0.026673514 -6.5150653e-22)
(2.5030393 -0.026286329 -5.96859e-22)
(2.5082665 -0.025316385 -7.4189382e-22)
(2.5128428 -0.024741281 -4.3620598e-23)
(2.5171279 -0.023584334 2.3179598e-22)
(2.5208862 -0.022588301 3.0004856e-22)
(2.5244829 -0.021020698 3.5365713e-22)
(2.5275774 -0.019744063 2.6158201e-23)
(2.5306124 -0.017975105 -1.6333475e-22)
(2.5332712 -0.016056686 -1.5614987e-22)
(2.535902 -0.013587613 -6.338001e-23)
(2.5380788 -0.01151821 -1.1916962e-23)
(2.5402625 -0.0090327889 -1.1201651e-23)
(2.5422886 -0.0061037709 -1.7259336e-23)
(2.5443045 -0.0027962554 4.9456879e-23)
(2.4180056 -0.035586533 -5.522422e-23)
(2.441761 -0.036050734 -2.6662348e-22)
(2.4558849 -0.038880185 6.2498814e-23)
(2.461849 -0.036694964 -1.9329116e-22)
(2.4700854 -0.035083335 -5.9398916e-24)
(2.4790194 -0.034553981 9.7493635e-23)
(2.4866884 -0.034489054 9.3723323e-23)
(2.4933133 -0.033319815 3.766095e-22)
(2.4994117 -0.032626766 8.2025975e-23)
(2.5050222 -0.031402531 -1.7218345e-22)
(2.5100164 -0.030559466 -3.0326348e-22)
(2.514595 -0.029150733 -8.3211476e-22)
(2.5186876 -0.028095305 -5.8278371e-22)
(2.522533 -0.026574932 -3.2656389e-22)
(2.5259668 -0.025163276 -2.8516717e-22)
(2.529282 -0.023229937 5.0245174e-23)
(2.5321794 -0.02157522 -1.296121e-22)
(2.5350215 -0.019472958 -2.8675266e-22)
(2.537538 -0.017214447 -2.0068233e-22)
(2.5400077 -0.01444204 -2.9220745e-23)
(2.5421046 -0.012122076 -2.8694329e-23)
(2.544176 -0.0094289105 3.4800453e-23)
(2.5461154 -0.0063171357 9.8945582e-23)
(2.5480105 -0.0028674861 -1.0212946e-23)
(2.4128258 -0.048878437 4.8070607e-23)
(2.4372221 -0.046914847 2.6737069e-22)
(2.4514028 -0.047539204 1.6693034e-22)
(2.4569271 -0.045130903 1.3857077e-22)
(2.4652974 -0.043135162 -1.2696241e-22)
(2.4745797 -0.042307496 -4.1895109e-22)
(2.4826425 -0.041905096 -3.3505522e-22)
(2.4896053 -0.040452162 -1.3182646e-22)
(2.4960967 -0.0394302 1.3678443e-22)
(2.5020791 -0.037880957 4.0857318e-22)
(2.5074448 -0.03678339 1.7211763e-22)
(2.51226 -0.035168525 5.8494912e-23)
(2.5166475 -0.033898439 -4.3805665e-22)
(2.5206853 -0.032195361 -5.0493068e-22)
(2.5243608 -0.030787996 -2.6025088e-22)
(2.5278596 -0.028977716 -1.8304304e-22)
(2.5310246 -0.027221295 1.3671735e-22)
(2.534106 -0.02497991 2.6543844e-23)
(2.5368236 -0.0230079 -1.1992431e-22)
(2.5394873 -0.020617296 -6.6812659e-23)
(2.5418541 -0.018077201 9.8048311e-23)
(2.544149 -0.015053915 4.0265349e-23)
(2.5461422 -0.012535259 1.0161229e-22)
(2.5480771 -0.009681203 7.5980074e-23)
(2.5499043 -0.006440673 -2.8076889e-23)
(2.5516561 -0.0028985831 2.0994615e-22)
(2.4099146 -0.061977947 -6.2455216e-22)
(2.4340792 -0.057580842 -9.5992842e-22)
(2.4478428 -0.055866868 -7.1662225e-22)
(2.4528155 -0.053429644 -3.0142485e-22)
(2.4611007 -0.051214218 -2.9877167e-22)
(2.4705836 -0.050233585 3.9432171e-22)
(2.4789172 -0.049552707 1.2515058e-22)
(2.4862503 -0.047904668 -1.8958789e-22)
(2.4931229 -0.046610234 8.9076634e-24)
(2.4994953 -0.044753268 -2.6152681e-22)
(2.5052238 -0.043355804 -9.7487994e-24)
(2.5102503 -0.041420991 -6.9157386e-23)
(2.5148827 -0.039936877 -1.8077475e-22)
(2.5190357 -0.038101951 5.1464573e-22)
(2.5229013 -0.036545293 4.661875e-22)
(2.5265152 -0.034640029 2.2638747e-22)
(2.5298575 -0.032954448 3.0720704e-22)
(2.533098 -0.030906657 8.5221951e-23)
(2.5360421 -0.028861611 -1.9876192e-23)
(2.5389315 -0.026346707 -1.3667061e-22)
(2.5414821 -0.024102283 -8.6501446e-23)
(2.5439682 -0.021456345 -2.8884288e-23)
(2.5461726 -0.018683291 -8.5489759e-23)
(2.5482739 -0.015453007 7.5764925e-23)
(2.5501403 -0.012780165 5.1075331e-23)
(2.5519145 -0.0098066301 4.7866762e-23)
(2.5536075 -0.0064843795 2.7502296e-22)
(2.5551971 -0.0028936612 2.269736e-22)
(2.4092414 -0.074340505 -5.7363543e-22)
(2.4322475 -0.067590591 -1.3855337e-21)
(2.4451135 -0.063537666 -1.6800482e-21)
(2.4494351 -0.061277712 -9.9673441e-22)
(2.4573956 -0.059026591 -5.7238441e-22)
(2.4669342 -0.058108193 -2.5271124e-22)
(2.4754283 -0.057282074 4.0612132e-22)
(2.4831943 -0.055585307 3.3539954e-22)
(2.490468 -0.054110535 3.9801837e-23)
(2.4972953 -0.051937463 6.0955539e-23)
(2.5034073 -0.050243758 -1.950215e-22)
(2.5086505 -0.04794186 -5.2172847e-22)
(2.5135087 -0.046158912 -5.8448733e-22)
(2.5177146 -0.044061082 -6.2084678e-22)
(2.5216998 -0.0423562 3.2788234e-23)
(2.5253272 -0.040433733 2.8278222e-22)
(2.5287823 -0.03868227 5.1791487e-23)
(2.5321115 -0.036636152 4.7866588e-22)
(2.535206 -0.034726236 2.699443e-22)
(2.538268 -0.032459331 -9.3470567e-23)
(2.5410309 -0.030159639 -2.0599498e-22)
(2.5437492 -0.027387507 -6.6650397e-23)
(2.5461344 -0.02490336 -1.176343e-23)
(2.5484313 -0.02202615 -6.2564624e-23)
(2.5504555 -0.019060598 9.1164122e-23)
(2.5523393 -0.015661512 3.90572e-22)
(2.5540555 -0.01287334 3.9280474e-22)
(2.5556455 -0.009818011 -8.3745328e-23)
(2.5571863 -0.0064555571 -1.3486687e-22)
(2.5585982 -0.0028556351 -1.3006104e-22)
(2.4106406 -0.085472355 -3.495987e-22)
(2.4315405 -0.07660523 -5.656147e-22)
(2.4430731 -0.07027528 -1.3411204e-21)
(2.4466675 -0.068383329 -5.5469971e-23)
(2.4540472 -0.06630004 6.401608e-22)
(2.4634892 -0.065721073 -2.0148279e-22)
(2.4720294 -0.064959787 1.0781391e-22)
(2.480327 -0.063412264 1.006187e-22)
(2.48805 -0.061897513 2.8729061e-23)
(2.4954541 -0.059436032 8.4816135e-24)
(2.502017 -0.057446123 2.808253e-23)
(2.5075296 -0.054678395 1.2121502e-22)
(2.5126246 -0.05253795 -1.8263909e-22)
(2.5168316 -0.050098012 -4.9245149e-24)
(2.520881 -0.048144379 -3.0482044e-23)
(2.5244148 -0.046090989 -3.0417728e-22)
(2.5278877 -0.04429716 -7.2444183e-23)
(2.5311933 -0.042375337 1.1211916e-22)
(2.5343704 -0.040492413 5.1781602e-22)
(2.5375474 -0.038313865 7.297079e-22)
(2.5404711 -0.03620061 3.9057418e-22)
(2.5434061 -0.033703709 1.2721753e-22)
(2.5460093 -0.031165403 2.6435256e-22)
(2.5485543 -0.028139536 -1.7813742e-22)
(2.5507636 -0.025439026 -2.2848895e-22)
(2.5528467 -0.022350194 5.7153331e-23)
(2.5546682 -0.019227091 3.4109121e-22)
(2.5563073 -0.015694705 3.1493131e-22)
(2.5578508 -0.012826205 -1.3872011e-22)
(2.5592347 -0.0097245248 -9.1531334e-23)
(2.5606082 -0.0063591629 -8.6304332e-23)
(2.5618305 -0.002786408 5.3725999e-23)
(2.4138329 -0.094951459 1.8916005e-22)
(2.4317059 -0.084235313 5.3235222e-22)
(2.441563 -0.075866693 3.0524382e-22)
(2.4443346 -0.074546289 6.1630202e-22)
(2.4508756 -0.072780957 1.9090608e-21)
(2.4600573 -0.072896104 3.8903512e-22)
(2.4685144 -0.072464455 -4.1404853e-22)
(2.4774862 -0.071323108 2.960665e-22)
(2.4857385 -0.069965059 2.9215513e-22)
(2.4939071 -0.067262443 4.1399489e-22)
(2.5010439 -0.065002801 4.0074037e-22)
(2.5069336 -0.061669673 -3.8499785e-23)
(2.5123235 -0.059083689 5.0959952e-23)
(2.5165038 -0.056143896 -8.6211823e-23)
(2.5205736 -0.053849997 8.402286e-23)
(2.5238924 -0.051601638 4.4617125e-22)
(2.5272829 -0.049681593 1.9366312e-22)
(2.5304295 -0.047818291 -6.9795943e-23)
(2.5335818 -0.046026685 1.054898e-22)
(2.5367726 -0.044110975 1.2654346e-22)
(2.5398003 -0.042109175 3.2104134e-22)
(2.5429219 -0.039757428 2.3104534e-22)
(2.5457264 -0.037432862 -2.07493e-23)
(2.5485493 -0.034674858 4.6959422e-22)
(2.5509921 -0.03190098 5.2884056e-23)
(2.553338 -0.028620089 1.4804527e-22)
(2.5553489 -0.025721633 4.2515979e-22)
(2.557184 -0.022441201 -3.0265684e-22)
(2.5587768 -0.019192815 -3.3730075e-22)
(2.560143 -0.015562667 -4.0328004e-22)
(2.5614929 -0.012646547 -3.6253324e-22)
(2.5626521 -0.009532497 -3.3839567e-22)
(2.5638464 -0.0061984768 -2.0936041e-22)
(2.5648699 -0.0026873703 -2.420135e-22)
(2.4184658 -0.10281965 6.6121183e-22)
(2.4333322 -0.090289281 -1.8357552e-22)
(2.4411374 -0.080195364 1.7322115e-22)
(2.4422951 -0.079390842 1.6252097e-21)
(2.4477056 -0.078247513 1.9610695e-21)
(2.4564114 -0.079464917 1.0047831e-21)
(2.4646361 -0.079683131 -4.4448335e-22)
(2.4744537 -0.079296096 -6.3183596e-22)
(2.4833573 -0.078337454 3.9080838e-23)
(2.4925548 -0.075478362 1.3976191e-22)
(2.5004514 -0.072999502 2.5309032e-22)
(2.5068945 -0.068977351 3.6199394e-22)
(2.5126924 -0.065849778 -5.3754708e-23)
(2.51685 -0.062219626 -3.7159389e-24)
(2.5209216 -0.059439217 -1.3481074e-22)
(2.5238977 -0.056844635 -1.6929769e-22)
(2.5270929 -0.054719571 1.7045033e-22)
(2.5299091 -0.052910324 5.3063229e-22)
(2.532907 -0.051172271 2.8694269e-22)
(2.5359766 -0.049516743 5.4762944e-22)
(2.5390096 -0.047739502 5.74451e-22)
(2.5422497 -0.045753625 -2.9634488e-22)
(2.5452241 -0.043597323 -3.9168665e-22)
(2.548332 -0.040997233 1.6631591e-22)
(2.5510341 -0.038432735 6.3477155e-22)
(2.5537206 -0.035375895 1.1112454e-22)
(2.5559798 -0.032364095 2.0236968e-22)
(2.5580821 -0.028830336 4.1651422e-22)
(2.5598622 -0.025752099 -2.7457831e-22)
(2.56141 -0.022304617 -1.6393582e-22)
(2.5627473 -0.018963191 -2.2391887e-22)
(2.5638144 -0.01527276 2.4916226e-22)
(2.5649525 -0.01234031 2.8139884e-22)
(2.5658726 -0.0092464589 -3.4660361e-22)
(2.5668786 -0.0059760973 -3.7966409e-22)
(2.5676968 -0.0025602032 -3.6996971e-22)
(2.424705 -0.10950023 6.9017737e-22)
(2.4368435 -0.095148731 -1.1750001e-22)
(2.4425201 -0.083011518 -9.1590564e-22)
(2.4406971 -0.082991955 -1.7323181e-21)
(2.444113 -0.082507668 -3.8312219e-22)
(2.4523601 -0.085205785 1.4748705e-21)
(2.4601346 -0.08651904 5.6686264e-22)
(2.47099 -0.087291091 -1.8172702e-22)
(2.4806992 -0.087070913 -3.5555306e-22)
(2.4912608 -0.08418313 -8.7626872e-23)
(2.5001751 -0.081564921 6.0119152e-24)
(2.5074276 -0.076722666 7.1620356e-23)
(2.5138158 -0.072936883 1.7221878e-22)
(2.5179979 -0.068363416 -5.0891794e-22)
(2.5220854 -0.064910936 -4.6845495e-22)
(2.524587 -0.061775681 -6.3621255e-22)
(2.5274691 -0.059303846 -6.7676533e-22)
(2.5297503 -0.057466225 -1.1954545e-21)
(2.5324301 -0.055758736 -8.7496148e-22)
(2.5351961 -0.054441553 -3.0949764e-22)
(2.538103 -0.052911958 -7.1192873e-23)
(2.5413579 -0.051349936 1.1608318e-21)
(2.5444339 -0.04951955 3.4207384e-22)
(2.5478085 -0.047328907 -7.4257129e-22)
(2.5507736 -0.044947818 -2.1915571e-22)
(2.5538486 -0.042012348 7.695829e-22)
(2.5564274 -0.039171571 2.750331e-22)
(2.5589202 -0.035785357 -1.5321567e-22)
(2.5609542 -0.032535868 4.4382155e-23)
(2.5627561 -0.028761752 -2.7127064e-22)
(2.5642681 -0.025525794 -1.6617268e-22)
(2.5654889 -0.021943044 1.0983533e-22)
(2.5665454 -0.018542685 5.641015e-22)
(2.567292 -0.01483214 5.8768925e-22)
(2.5682044 -0.011913402 -3.7917196e-24)
(2.5688758 -0.0088707248 -1.4692555e-23)
(2.569687 -0.0056953604 0)
(2.5702957 -0.0024077474 4.3989369e-26)
(2.4328681 -0.1148816 9.5158131e-22)
(2.4413722 -0.097867898 -3.7809261e-22)
(2.444587 -0.083874265 -1.1788387e-21)
(2.4392537 -0.085162409 -5.9207986e-22)
(2.4396001 -0.08518445 -1.3622891e-21)
(2.4474626 -0.090217462 -2.2268285e-21)
(2.454719 -0.092863036 -4.9114924e-22)
(2.4668295 -0.095318851 7.8332582e-22)
(2.4775232 -0.096249484 7.5845281e-23)
(2.4898778 -0.093492431 1.1125384e-22)
(2.5001309 -0.090869214 3.7290833e-22)
(2.5085341 -0.085061764 6.0099349e-23)
(2.5157754 -0.080493795 1.3018838e-22)
(2.5200839 -0.074669899 -5.4193042e-22)
(2.5242465 -0.070300463 -1.1997659e-21)
(2.5261427 -0.066350726 -1.0985577e-21)
(2.5285908 -0.063340875 -1.2674712e-21)
(2.5300954 -0.061360663 -5.3521118e-22)
(2.5322621 -0.059607066 -1.0269801e-21)
(2.5344934 -0.058648325 -1.4893565e-21)
(2.5370969 -0.057422053 -9.6192557e-22)
(2.5402146 -0.056443594 -1.0808364e-21)
(2.5432891 -0.055020907 7.3402895e-23)
(2.5468812 -0.053341915 1.1000582e-22)
(2.5500878 -0.051332622 -9.243751e-22)
(2.5535909 -0.048780458 -4.6322174e-22)
(2.556532 -0.046091021 4.7320183e-22)
(2.5595011 -0.042743856 2.0508656e-22)
(2.5619037 -0.039596103 -2.0241839e-22)
(2.5641226 -0.03586846 3.7811479e-23)
(2.5658779 -0.032390906 -2.6230532e-22)
(2.5673191 -0.028403603 -1.9416187e-22)
(2.5685251 -0.025038656 6.7462473e-23)
(2.5693837 -0.02136045 -8.1075807e-22)
(2.5701386 -0.017937915 -8.0946675e-22)
(2.5705505 -0.014249702 -5.6071239e-22)
(2.5712277 -0.011373394 -5.797463e-22)
(2.5716463 -0.0084115069 7.26912e-24)
(2.5722584 -0.0053619064 7.4783786e-24)
(2.5726559 -0.0022344187 1.2742947e-21)
(2.442286 -0.11865593 1.188446e-22)
(2.4463518 -0.098762506 1.0131514e-21)
(2.4460142 -0.082349842 -2.2690282e-22)
(2.4368086 -0.084973132 -4.3063834e-22)
(2.4339589 -0.086013429 1.3812521e-22)
(2.4415005 -0.09370671 -2.9658545e-23)
(2.4481697 -0.098678732 -8.2991962e-22)
(2.4616498 -0.10350711 -9.0866474e-22)
(2.4735621 -0.10596654 2.9506942e-22)
(2.4882118 -0.10359348 4.394285e-22)
(2.500208 -0.10110999 4.77089e-22)
(2.5102057 -0.094199301 8.6649603e-22)
(2.5186503 -0.088715059 5.937892e-22)
(2.5232535 -0.081260018 1.7777506e-22)
(2.5276061 -0.075680846 -4.5969692e-22)
(2.5287733 -0.070572349 -1.3589605e-21)
(2.5306686 -0.066753872 -1.2653247e-21)
(2.5311183 -0.064448847 8.1243544e-22)
(2.5325423 -0.062533939 1.5399849e-21)
(2.5339519 -0.061944804 1.506653e-21)
(2.5360278 -0.061044183 1.106815e-21)
(2.5388045 -0.060773403 -1.3560782e-21)
(2.5417273 -0.059892789 -1.4780295e-21)
(2.545447 -0.058946192 -4.3704153e-22)
(2.5488433 -0.057433503 -4.1015531e-22)
(2.5527914 -0.055387497 -9.7719165e-22)
(2.5561285 -0.053049685 -5.3934168e-22)
(2.559671 -0.049992978 8.304508e-23)
(2.5625214 -0.046920196 -1.7779132e-22)
(2.565273 -0.043113859 -8.0809434e-22)
(2.5674242 -0.039645187 -5.8932772e-22)
(2.569279 -0.035589438 2.3685736e-22)
(2.5706983 -0.031907202 3.0927183e-22)
(2.571723 -0.027749643 9.294997e-23)
(2.5725891 -0.024292053 -7.405211e-22)
(2.5730586 -0.020565217 -9.988555e-22)
(2.573498 -0.017159592 -7.6566432e-22)
(2.5735694 -0.013537139 -5.0484986e-22)
(2.5740071 -0.010730919 5.3693273e-23)
(2.5741734 -0.0078788722 -3.6939906e-22)
(2.5745847 -0.0049845448 8.2744871e-22)
(2.5747725 -0.0020457693 1.4719183e-21)
(2.4523902 -0.1209181 1.4690145e-22)
(2.4517477 -0.097671845 -1.0305274e-21)
(2.4473834 -0.078377925 -1.7899738e-22)
(2.4336439 -0.08267629 -1.878786e-21)
(2.427289 -0.085105492 -2.0978563e-21)
(2.4341995 -0.096408381 1.6594197e-21)
(2.4402457 -0.10399278 1.5355996e-21)
(2.4553674 -0.11152027 -3.8324631e-22)
(2.4686082 -0.11635166 -4.4821749e-22)
(2.4860873 -0.11461908 2.1491277e-22)
(2.5002869 -0.11251155 3.506271e-22)
(2.5124113 -0.10437043 2.3561021e-21)
(2.5225156 -0.097832324 2.7719019e-21)
(2.527657 -0.088318125 4.7046972e-22)
(2.5323821 -0.081160449 6.6303331e-23)
(2.5327104 -0.074433812 1.1439561e-23)
(2.5339461 -0.06948145 -8.3348682e-22)
(2.5330191 -0.066614521 5.5751615e-22)
(2.5334361 -0.064355211 2.5575457e-21)
(2.5336824 -0.064107892 1.3727968e-21)
(2.5349516 -0.063536259 1.3385505e-21)
(2.5371254 -0.064114679 2.5789482e-21)
(2.5396954 -0.063899288 2.6035208e-22)
(2.5434087 -0.063889523 1.6794355e-21)
(2.5469032 -0.063067471 2.7195614e-21)
(2.551286 -0.061779316 -6.0359863e-22)
(2.5550303 -0.059938239 -1.1449853e-21)
(2.5592296 -0.057290794 -9.9290048e-22)
(2.5626168 -0.054485619 -4.0955452e-22)
(2.5660479 -0.050823214 -3.0521661e-22)
(2.5687033 -0.047318392 -9.0582041e-22)
(2.5711063 -0.043045277 4.8307829e-22)
(2.5729207 -0.039265469 1.2840201e-21)
(2.5743244 -0.034922131 -3.9939738e-25)
(2.5753541 -0.031073659 -2.1050428e-22)
(2.5759172 -0.026802661 -9.2095314e-22)
(2.5764174 -0.023295582 -1.168983e-21)
(2.5764818 -0.019571644 1.396746e-21)
(2.5765996 -0.016223145 1.677391e-21)
(2.5763335 -0.012709066 4.0007307e-22)
(2.5765318 -0.010000286 3.5837767e-24)
(2.5764506 -0.0072872346 -3.384513e-22)
(2.5766623 -0.0045745912 2.5558895e-22)
(2.5766461 -0.0018473029 -3.4358351e-22)
(2.4635705 -0.12178486 -1.545028e-21)
(2.4576643 -0.094745519 1.847956e-21)
(2.4493175 -0.07213787 7.5623218e-22)
(2.4304022 -0.078385993 -2.814604e-21)
(2.4196456 -0.082443311 -4.469523e-21)
(2.4254418 -0.097886417 -3.1223222e-21)
(2.4305608 -0.10882461 4.3297968e-22)
(2.4476883 -0.11996886 1.978434e-21)
(2.4624615 -0.12747622 1.6587903e-22)
(2.4833615 -0.12675648 -9.6777924e-22)
(2.5002453 -0.12530889 -3.4485992e-22)
(2.5151314 -0.11581809 -1.5358866e-21)
(2.5274435 -0.10811305 3.4610964e-22)
(2.5334503 -0.096031351 -7.0932214e-22)
(2.5388083 -0.086880431 -2.9554117e-21)
(2.5382063 -0.078025645 -1.1526881e-21)
(2.538689 -0.071487911 -1.2221264e-21)
(2.5360408 -0.067720854 5.0087008e-22)
(2.5351386 -0.064885883 1.8429335e-21)
(2.5338137 -0.064915918 4.5102858e-22)
(2.5339424 -0.064641719 -7.0659072e-22)
(2.5351909 -0.066206533 -9.9479552e-22)
(2.5371494 -0.06678145 1.4691859e-22)
(2.5406716 -0.067954707 1.1709309e-21)
(2.5441296 -0.068023753 2.5311015e-21)
(2.5489054 -0.067742151 3.5071042e-21)
(2.5530412 -0.066622765 3.638597e-22)
(2.5579698 -0.064635852 1.4571816e-21)
(2.5619689 -0.062239766 1.6416682e-21)
(2.566221 -0.058814245 -1.3367406e-21)
(2.5695177 -0.055441101 -1.2523533e-21)
(2.5726526 -0.051130901 -3.819856e-22)
(2.5749889 -0.047182705 9.4476158e-22)
(2.5769122 -0.042478298 2.1660022e-21)
(2.5783064 -0.038422972 9.6005946e-22)
(2.5791852 -0.03385696 -8.5501022e-23)
(2.5797818 -0.029894176 -7.5800955e-22)
(2.5798537 -0.025576393 -9.1536102e-22)
(2.5799719 -0.022067679 1.5245562e-21)
(2.5796268 -0.018399929 1.375714e-21)
(2.5794254 -0.015148236 1.5843993e-22)
(2.5788325 -0.011782438 1.3127239e-22)
(2.5787956 -0.0091987025 -1.9137763e-22)
(2.5784757 -0.0066534149 3.9656406e-22)
(2.5784925 -0.0041434895 -1.7011386e-22)
(2.5782831 -0.0016433876 -9.4238833e-22)
(2.4757256 -0.12122085 -1.8961271e-21)
(2.464106 -0.089950493 -2.0150788e-21)
(2.4513753 -0.063715943 1.1993242e-21)
(2.4268604 -0.071900053 2.7499903e-21)
(2.4108146 -0.077785169 -6.0985969e-22)
(2.4150467 -0.098170686 -1.9892508e-21)
(2.4188185 -0.11308788 -6.7874409e-22)
(2.4381768 -0.12851812 -8.0200376e-24)
(2.454816 -0.13942125 1.4526843e-21)
(2.4798328 -0.14014863 1.0334228e-21)
(2.4999296 -0.13970769 -3.0242544e-23)
(2.5183054 -0.12882304 -4.9302584e-21)
(2.5334823 -0.11983931 -6.117116e-21)
(2.5407892 -0.10464117 -2.8485977e-22)
(2.5471284 -0.093009834 -1.3049418e-21)
(2.5455312 -0.081368377 -4.1270379e-21)
(2.5451781 -0.072745524 -2.433389e-21)
(2.5404232 -0.067674671 -2.2840238e-22)
(2.5378693 -0.063933643 1.4226274e-21)
(2.5344978 -0.06414619 5.9534374e-22)
(2.5330909 -0.064095306 -7.4977223e-22)
(2.5330252 -0.066764034 -8.9897996e-22)
(2.534058 -0.068262437 -1.1756176e-21)
(2.5371473 -0.070882152 -4.3146533e-21)
(2.5403857 -0.072069241 -3.4206216e-21)
(2.5454751 -0.07309871 -4.3517994e-22)
(2.5499557 -0.072944592 4.4577445e-22)
(2.5556692 -0.071874116 2.9582066e-21)
(2.560344 -0.070113076 4.0363008e-21)
(2.565564 -0.067147115 1.1205076e-21)
(2.5696333 -0.064022242 -1.715492e-21)
(2.5736843 -0.059725613 -5.1508298e-22)
(2.5767158 -0.055739236 3.2263801e-22)
(2.5793636 -0.050803806 -1.2914898e-23)
(2.5812558 -0.046441849 1.1319099e-21)
(2.5825843 -0.041380957 6.2808967e-22)
(2.5834872 -0.037109204 -3.6960289e-22)
(2.583788 -0.032403691 -3.4755544e-23)
(2.5839223 -0.028388287 -1.7297776e-22)
(2.5834905 -0.024095101 -1.0213824e-22)
(2.583222 -0.020634551 -2.6826873e-22)
(2.5824743 -0.017075028 -2.0715012e-21)
(2.5819633 -0.013957491 -2.1313146e-21)
(2.5810606 -0.010775478 -2.2469244e-22)
(2.5807965 -0.008344123 3.3309179e-22)
(2.5802501 -0.0059932298 3.4507255e-22)
(2.5800821 -0.0037002335 -3.8024078e-22)
(2.5796932 -0.0014371474 -4.3811622e-22)
(2.4874032 -0.11925825 1.173712e-21)
(2.4704431 -0.083402293 -5.8305861e-21)
(2.4529349 -0.053048541 -6.0140959e-21)
(2.422386 -0.063262922 -8.8776266e-21)
(2.4004021 -0.070960413 -7.5613485e-21)
(2.4027966 -0.097031778 2.5214344e-21)
(2.404836 -0.11670587 1.2601647e-21)
(2.4266143 -0.13727357 -5.7997518e-22)
(2.4453645 -0.15230482 6.1139043e-23)
(2.4752525 -0.15495132 8.83927e-22)
(2.4991674 -0.15590432 4.7637351e-22)
(2.5218651 -0.14360835 4.5390148e-22)
(2.5406634 -0.13330179 -4.1772885e-21)
(2.5498023 -0.11438151 1.5248703e-21)
(2.5575832 -0.099737176 7.1739892e-21)
(2.5549614 -0.084573822 2.4503648e-21)
(2.553714 -0.073232291 -1.7116903e-22)
(2.5464214 -0.066365293 -2.0977077e-21)
(2.5418546 -0.061321955 -5.7919403e-25)
(2.5359097 -0.061549402 9.4062632e-22)
(2.5325067 -0.061629571 1.3837414e-22)
(2.5306704 -0.065539778 7.0209962e-22)
(2.5303982 -0.068064188 5.7778686e-22)
(2.5327643 -0.07239564 3.2437418e-22)
(2.5355411 -0.074956541 -2.6343753e-21)
(2.5408222 -0.077627584 -4.1733712e-21)
(2.5455639 -0.078725468 -1.3502156e-21)
(2.5520949 -0.078890983 -1.8731832e-21)
(2.5574925 -0.078016627 4.7664348e-22)
(2.5638255 -0.075739843 3.4449458e-21)
(2.5688033 -0.073063274 6.6880562e-22)
(2.5739756 -0.068952111 -1.1928385e-21)
(2.5778755 -0.065003055 -4.5038126e-23)
(2.5814559 -0.059835165 4.3276611e-23)
(2.5840404 -0.055251658 -2.7949965e-22)
(2.5860284 -0.049773668 -2.3977111e-22)
(2.5873658 -0.045065358 -7.3912739e-22)
(2.5880124 -0.03975325 -2.1629161e-21)
(2.5883723 -0.035342007 -1.872261e-21)
(2.5880667 -0.030590576 5.3448875e-22)
(2.5877259 -0.026589215 6.1254735e-22)
(2.5867952 -0.022391569 -1.9582921e-21)
(2.5861457 -0.019028074 -3.6963162e-21)
(2.5850127 -0.015624892 -1.5969142e-21)
(2.5842076 -0.012674876 2.2156857e-22)
(2.5830164 -0.0097065596 1.7357592e-22)
(2.5825364 -0.0074530434 1.82523e-22)
(2.581779 -0.0053189599 1.10054e-21)
(2.5814412 -0.0032510375 1.0681179e-21)
(2.5808881 -0.0012308409 2.7638022e-22)
(2.4966319 -0.1160515 1.1504936e-21)
(2.4751556 -0.074949017 -1.2332391e-21)
(2.4532542 -0.040141498 -7.9302256e-21)
(2.4164656 -0.052319074 -5.7952862e-21)
(2.3879053 -0.061930688 -8.5090095e-21)
(2.3883354 -0.09457003 -8.4801304e-21)
(2.3884318 -0.11963041 1.0800117e-21)
(2.4128096 -0.146237 1.07743e-21)
(2.4338877 -0.1662152 -6.7031382e-22)
(2.4694221 -0.17128569 -1.4743491e-21)
(2.4977887 -0.17409524 -7.1688669e-22)
(2.5257339 -0.16043933 -2.9901512e-22)
(2.5490098 -0.1487934 -3.3237492e-22)
(2.5606214 -0.12551279 -5.7673998e-21)
(2.5704122 -0.10727025 -3.7744045e-22)
(2.5667667 -0.087716925 8.5329283e-21)
(2.5645982 -0.072940099 4.0718806e-21)
(2.5543128 -0.0637142 -1.2362191e-21)
(2.5473255 -0.056882344 -3.0821821e-21)
(2.538222 -0.0569309 -1.9035162e-21)
(2.5323052 -0.056977305 -1.0516853e-21)
(2.5281814 -0.062226363 3.4327282e-22)
(2.5261514 -0.065900305 8.839994e-22)
(2.5274459 -0.072243431 1.0257645e-21)
(2.5294708 -0.076424448 7.9566903e-22)
(2.5347781 -0.081106676 3.2127475e-21)
(2.5396563 -0.083772543 1.8487164e-21)
(2.5470108 -0.085530978 -1.309482e-21)
(2.5531555 -0.085845614 -1.8054205e-21)
(2.5607402 -0.084554277 -3.4976326e-22)
(2.5667603 -0.082553403 2.4552111e-21)
(2.5732712 -0.078804023 1.3956802e-21)
(2.5782324 -0.075045107 -3.5989586e-22)
(2.5829869 -0.069751123 9.5605426e-23)
(2.586461 -0.064970586 1.8190684e-22)
(2.58932 -0.059019252 -1.8782812e-22)
(2.5912917 -0.053912332 -1.4881772e-22)
(2.5924838 -0.048022518 1.4036951e-21)
(2.5931819 -0.043064945 8.485669e-23)
(2.5930943 -0.037625724 -2.1046896e-21)
(2.5928828 -0.033162427 1.7676268e-22)
(2.5919676 -0.028461009 1.5779865e-22)
(2.5911551 -0.024540417 -2.290226e-21)
(2.5897457 -0.020504338 -1.1218394e-22)
(2.5887308 -0.017283312 1.9356585e-21)
(2.5872376 -0.014078586 1.3526997e-21)
(2.5861583 -0.011324295 1.3243504e-21)
(2.5847025 -0.0085933876 1.862264e-22)
(2.5840215 -0.006539381 1.0579164e-21)
(2.5830712 -0.004638417 4.9400728e-22)
(2.5825772 -0.002800377 -2.6633663e-22)
(2.5818809 -0.0010255761 -2.2737117e-22)
(2.5021205 -0.11143258 -5.3982949e-24)
(2.4748187 -0.064911498 8.1536761e-22)
(2.449333 -0.025020068 -1.4531745e-21)
(2.407534 -0.039325907 7.4251886e-21)
(2.3719738 -0.05073778 9.6923125e-21)
(2.3713268 -0.090496426 -4.0100728e-22)
(2.3694277 -0.12189105 -2.4785851e-22)
(2.3966298 -0.15546722 1.8162667e-21)
(2.4202532 -0.1812222 1.8228425e-21)
(2.4621957 -0.18928799 1.0467829e-23)
(2.4956459 -0.19444644 -7.5310132e-22)
(2.5298153 -0.17952568 -1.2170777e-21)
(2.5585134 -0.16658688 -8.2803239e-22)
(2.5733357 -0.13828819 -1.1101927e-20)
(2.58583 -0.11582674 -1.6405041e-20)
(2.5812231 -0.090919571 -6.0231488e-21)
(2.5781255 -0.07186517 2.3535698e-21)
(2.5643525 -0.059604197 3.8246264e-21)
(2.5545096 -0.050441909 -1.2197559e-21)
(2.5415967 -0.050074864 -4.0226252e-21)
(2.5325907 -0.049878247 -2.9248475e-21)
(2.5256072 -0.056566296 2.9000624e-22)
(2.5213062 -0.061483859 1.6323568e-21)
(2.5211234 -0.07013764 1.9058392e-21)
(2.5220546 -0.076218042 2.0562728e-21)
(2.5271819 -0.083300736 -2.4689744e-22)
(2.5320303 -0.087884862 2.0385793e-21)
(2.5401822 -0.091636054 1.6754926e-22)
(2.5470723 -0.093481528 -2.8572688e-21)
(2.5560351 -0.093515148 1.5319344e-21)
(2.5632242 -0.092470988 2.9635613e-21)
(2.5713011 -0.089324339 1.4011196e-22)
(2.577528 -0.085932577 -9.0073909e-22)
(2.5837224 -0.080616286 1.9389254e-22)
(2.5883153 -0.075730053 6.3534092e-22)
(2.5922992 -0.069339658 -1.3731862e-21)
(2.595107 -0.063804532 -1.7482108e-21)
(2.5970401 -0.057230034 5.2689812e-22)
(2.5982671 -0.05172003 2.0112669e-21)
(2.5985748 -0.045580816 9.8634941e-22)
(2.5985818 -0.040489879 -1.0789766e-21)