/*--------------------------------*- C++ -*----------------------------------*\
| =========                 |                                                 |
| \\      /  F ield         | OpenFOAM: The Open Source CFD Toolbox           |
|  \\    /   O peration     | Version:  v2012                                 |
|   \\  /    A nd           | Website:  www.openfoam.com                      |
|    \\/     M anipulation  |                                                 |
\*---------------------------------------------------------------------------*/
FoamFile
{
    version     2.0;
    format      ascii;
    class       surfaceScalarField;
    location    "73.0024180641493672";
    object      meshPhi;
}
// * * * * * * * * * * * * * * * * * * * * * * * * * * * * * * * * * * * * * //

dimensions      [0 3 -1 0 0 0 0];
oriented        oriented;


internalField   nonuniform List<scalar> 
18180
(
9.1703851e-14
-0.014778124
0
-0.013728111
0
-0.029192607
0
-0.012493719
0
-0.026796451
0
-0.042679388
0
-0.011180261
8.8496324e-14
-0.024140871
0
-0.039018863
8.2817223e-14
-0.055190307
5.5583052e-18
-0.0099027518
4.4206952e-14
-0.021489341
0
-0.035090572
0
-0.050627245
1.0546861e-17
-0.067115305
4.5653403e-14
-0.0089463525
4.4174248e-14
-0.019367896
4.2746507e-14
-0.031582825
0
-0.045889199
0
-0.061817656
0
-0.078327804
0
-0.0085138538
0
-0.018050328
-4.271218e-14
-0.028995903
4.1339045e-14
-0.041760671
0
-0.05647099
0
-0.072471617
0
-0.088982014
4.5573729e-14
-0.0084258369
0
-0.017428116
-4.2682781e-14
-0.027378572
5.693586e-18
-0.038718824
0
-0.051754163
0
-0.066589666
0
-0.082580641
7.2363114e-14
-0.09891886
0
-0.0084334971
4.4060409e-14
-0.017200628
6.08353e-18
-0.026473202
0
-0.036678598
-3.9936665e-14
-0.048101298
3.8652913e-14
-0.061275094
-7.477121e-14
-0.076213479
0
-0.092049387
8.2921376e-18
-0.10825743
9.0988353e-14
-0.0083350622
4.4025429e-14
-0.016979958
0
-0.025825942
8.2485701e-14
-0.035203699
-5.3294346e-18
-0.045382684
-3.8614712e-14
-0.056870779
3.7356516e-14
-0.070271622
7.2297941e-14
-0.085268726
0
-0.10092759
6.7629316e-14
-0.11690701
0
-0.008061963
-4.3986055e-14
-0.016464649
0
-0.024993397
8.2422661e-14
-0.033793818
-3.9875756e-14
-0.043079323
0
-0.053258489
4.7077336e-18
-0.065112186
7.224626e-14
-0.078862665
0
-0.093789296
0
-0.10918455
6.5375447e-14
-0.12499175
0
-0.0076797142
0
-0.015677825
-4.2546141e-14
-0.023871345
0
-0.032241408
7.9692429e-14
-0.040907988
0
-0.050235823
3.7306441e-14
-0.06084859
4.6673727e-18
-0.073183128
0
-0.087026424
0
-0.10175126
0
-0.11687447
0
-0.13242146
2.2698589e-14
-0.0072662344
0
-0.014792464
0
-0.022594449
0
-0.030596587
0
-0.038822336
0
-0.047579035
0
-0.057322469
3.6067347e-14
-0.068421627
0
-0.080971795
-3.37608e-14
-0.094711151
-6.5306057e-14
-0.10914871
0
-0.12396463
6.1081259e-14
-0.13931681
-2.2685892e-14
-0.0068589583
2.1951583e-14
-0.013902641
0
-0.02128652
0
-0.028938208
0
-0.036799605
0
-0.045119784
3.7250752e-14
-0.054282096
0
-0.064492308
0
-0.075794291
1.0120672e-13
-0.088308697
9.7895464e-14
-0.10183997
7.025705e-18
-0.1159832
0
-0.13050353
5.5984797e-18
-0.14561751
-2.2674534e-14
-0.0064682843
0
-0.013047394
-3.0308954e-18
-0.020012307
0
-0.027318795
0
-0.034847318
0
-0.042808489
0
-0.051530604
0
-0.061113908
4.6102125e-18
-0.071435031
0
-0.082713947
6.5218849e-14
-0.095136741
-6.3080536e-14
-0.10843256
0
-0.12225377
0
-0.13649129
0
-0.15141753
-4.533255e-14
-0.0060972524
3.2557486e-18
-0.012235703
2.1224873e-14
-0.018794942
2.0538731e-14
-0.025764503
0
-0.032969015
0
-0.040600931
0
-0.048931689
0
-0.058011318
0
-0.067634173
3.3681865e-14
-0.077856299
0
-0.089111577
-3.1515311e-14
-0.10143848
3.0488075e-14
-0.11446758
5.8802458e-18
-0.12799225
0
-0.14195884
4.6599259e-18
-0.15667074
3.7286798e-18
-0.0057440318
-2.1921346e-14
-0.01146766
-2.1215661e-14
-0.017639118
0
-0.024284529
0
-0.031165732
0
-0.038465154
0
-0.046420845
0
-0.055022367
0
-0.064063597
0
-0.07349475
0
-0.083736405
-3.1492592e-14
-0.095061429
3.38409e-18
-0.10722695
2.9463013e-14
-0.11997172
-5.6992081e-14
-0.13319019
0
-0.14691807
-5.3282914e-14
-0.1614832
0
-0.0054068409
0
-0.010739804
0
-0.016542477
0
-0.022878984
-1.9853142e-14
-0.029440519
1.9205597e-14
-0.036400051
0
-0.043989005
0
-0.052127711
3.4767586e-14
-0.060630566
0
-0.069475987
0
-0.07893499
3.6699445e-18
-0.089299102
-3.0436886e-14
-0.10056327
2.9441245e-14
-0.11249479
0
-0.12493783
5.5082016e-14
-0.13789793
0
-0.15141588
0
-0.1658363
2.2644349e-14
-0.0050845648
-2.1909653e-14
-0.010049989
0
-0.015502691
0
-0.021545126
2.8069286e-18
-0.027794991
2.6446957e-18
-0.034408838
1.8568155e-14
-0.041638075
0
-0.04935333
0
-0.057367226
4.1049904e-18
-0.065702528
0
-0.074560898
0
-0.084133187
0
-0.09449633
2.9411736e-14
-0.10559038
2.7819006e-18
-0.11724902
0
-0.12942003
5.3228271e-14
-0.14213633
0
-0.1554904
0
-0.16981444
0
-0.004777027
0
-0.0093969559
-3.0949842e-18
-0.014517838
0
-0.020279711
-1.9837582e-14
-0.026227403
-1.9186121e-14
-0.032494852
-1.8559448e-14
-0.039371267
0
-0.046696128
0
-0.054263369
0
-0.062120396
-3.2474954e-14
-0.070486139
0
-0.079472369
0
-0.089030515
2.9387769e-14
-0.099249117
0
-0.11012502
2.749448e-14
-0.12152242
-2.6592425e-14
-0.13344101
0
-0.14596516
0
-0.1591727
0
-0.17340374
-2.2632896e-14
-0.0044833137
0
-0.0087799456
2.1188172e-14
-0.013586326
-3.188468e-18
-0.019079462
0
-0.024735672
0
-0.030659637
2.6704873e-18
-0.037190531
0
-0.044150133
-1.7352418e-14
-0.05130714
0
-0.058725577
0
-0.066638072
3.1388044e-14
-0.075146603
0
-0.084072241
0
-0.093477124
0
-0.10354447
-2.7465529e-14
-0.11420166
2.2341572e-18
-0.12534971
0
-0.13705035
4.9698111e-14
-0.1493923
0
-0.16249788
2.8714763e-18
-0.17668559
0
-0.0042026693
0
-0.0081978403
0
-0.012706807
0
-0.017941692
1.982531e-14
-0.023317376
0
-0.028904821
0
-0.03509818
2.5727831e-18
-0.041711943
0
-0.048484679
1.6768857e-14
-0.05549656
0
-0.062966093
0
-0.071015783
-3.0328058e-14
-0.079452314
0
-0.088186514
0
-0.097474691
-2.7438239e-14
-0.10740636
-2.6541468e-14
-0.11784727
1.9895322e-18
-0.12876487
0
-0.1402654
0
-0.15247595
0
-0.16549769
0
-0.17965494
-1.1312064e-14
-0.0039344816
0
-0.0076497005
0
-0.011878249
2.0493199e-14
-0.016863529
0
-0.021970989
1.9169858e-14
-0.027231989
0
-0.033096017
0
-0.039379926
2.3103689e-18
-0.045786257
2.0783048e-18
-0.0524113
-1.9544336e-18
-0.059453684
0
-0.067035957
-3.0307736e-14
-0.075025801
-2.9305501e-14
-0.083228503
0
-0.091847582
0
-0.10109797
0
-0.11087373
0
-0.1210959
1.7681779e-18
-0.1318018
0
-0.14313963
4.6392795e-14
-0.155233
0
-0.16821278
0
-0.18237084
2.2620563e-14
-0.0036785645
1.0941259e-14
-0.0071347919
0
-0.01109934
0
-0.015842518
-1.9815771e-14
-0.020693433
0
-0.025640248
1.8532957e-14
-0.031185668
0
-0.037153121
0
-0.043207362
1.6754204e-14
-0.049462753
0
-0.056103792
0
-0.063225015
0
-0.070763049
0
-0.078527613
2.8318394e-14
-0.086584845
0
-0.095201088
0
-0.10437456
2.066711e-18
-0.11396987
0
-0.12397972
-2.3962531e-14
-0.13449677
4.6350028e-14
-0.14569755
0
-0.15771413
0
-0.17065895
0
-0.18482711
1.1306829e-14
-0.003435563
0
-0.0066521779
-1.0587498e-14
-0.010369134
0
-0.014876167
0
-0.019481143
-1.9160661e-14
-0.024127745
1.8528121e-14
-0.029366078
0
-0.035030859
-1.7320281e-14
-0.040746088
0
-0.046645842
1.6190393e-14
-0.052912892
-1.5650451e-14
-0.059605149
-1.5130838e-14
-0.066695128
0
-0.074046842
-2.829379e-14
-0.081634052
0
-0.089677605
-2.6457076e-14
-0.098287526
0
-0.10733169
0
-0.11672397
-1.5921219e-18
-0.12653154
2.3152019e-14
-0.13688514
4.4778385e-14
-0.14797536
0
-0.15992298
0
-0.17286894
4.0453706e-14
-0.18707731
1.1305482e-14
-0.0032057802
0
-0.0062008811
0
-0.0096863302
-1.7529811e-18
-0.013962855
0
-0.018331409
0
-0.02269178
2.7837044e-18
-0.02763523
0
-0.033011454
-1.7317052e-14
-0.038400548
1.6740704e-14
-0.043956936
0
-0.049874769
1.8444338e-18
-0.056176552
0
-0.062842877
-1.5427099e-18
-0.069792934
0
-0.076991344
0
-0.084547084
0
-0.092591858
2.5560423e-14
-0.10111217
0
-0.10997353
0
-0.11915949
-2.3126281e-14
-0.12878298
-2.2365269e-14
-0.13898952
4.3257958e-14
-0.14998918
4.1827124e-14
-0.16190484
0
-0.1748574
1.7657701e-18
-0.18912017
1.13062e-14
-0.0029889983
-1.519843e-18
-0.0057798205
1.0583256e-14
-0.0090484463
0
-0.013100316
9.9027285e-15
-0.017241455
0
-0.021330981
0
-0.025990745
-1.7905434e-14
-0.03109172
0
-0.0361687
1.6732977e-14
-0.041393553
1.9590277e-18
-0.046982235
-1.5634684e-14
-0.052927382
1.5114672e-14
-0.05920754
0
-0.065780439
0
-0.072623002
0
-0.079780518
0
-0.087315798
0
-0.095285566
0
-0.10365308
4.7763198e-14
-0.11231762
2.3099286e-14
-0.12130579
-2.2341065e-14
-0.13075761
0
-0.14083977
0
-0.15177619
0
-0.16366843
0
-0.17665935
0
-0.19099403
0
-0.0027847991
1.0937629e-14
-0.0053870658
1.0582172e-14
-0.0084529779
1.0237016e-14
-0.012286337
9.9030468e-15
-0.016208266
9.5753624e-15
-0.020042525
0
-0.024431123
-1.7904472e-14
-0.029268568
0
-0.034047674
0
-0.038953517
-1.6170812e-14
-0.044231023
-1.562798e-14
-0.049845937
0
-0.05577189
1.4602088e-14
-0.061991738
1.4491349e-18
-0.068490093
0
-0.075305678
2.6381261e-14
-0.082439573
0
-0.089882499
0
-0.097715754
0
-0.10591445
0
-0.11438206
-2.2313055e-14
-0.12318548
0
-0.13248302
0
-0.14245922
0
-0.15335596
-3.9025025e-14
-0.16525149
0
-0.17828081
0
-0.19269587
1.1302405e-14
-0.0025927745
0
-0.0050214982
0
-0.0078977735
0
-0.011518788
0
-0.015229451
0
-0.018824246
-9.2584387e-15
-0.022954239
-1.7901228e-14
-0.027538725
-1.7301684e-14
-0.032034506
0
-0.03663431
0
-0.041616197
0
-0.046922287
0
-0.052519042
-1.4592572e-14
-0.058409269
0
-0.064579879
1.3813521e-18
-0.071069048
-1.3180683e-14
-0.077864978
-2.5483618e-14
-0.084884173
2.4640053e-14
-0.092186551
-2.382686e-14
-0.09988138
0
-0.10791
0
-0.11619371
0
-0.12482428
0
-0.13398118
-2.016018e-14
-0.14387739
1.9494188e-14
-0.15475188
-3.7693539e-14
-0.1666564
0
-0.17974849
0
-0.19426039
0
-0.0024105725
0
-0.004682514
0
-0.0073805039
1.8433997e-18
-0.010796315
-9.9026267e-15
-0.014303229
0
-0.017673102
0
-0.021557246
0
-0.025898917
0
-0.030125562
0
-0.034432085
1.6161152e-14
-0.039133748
0
-0.044148338
0
-0.049435594
1.6245106e-18
-0.05501589
0
-0.060876035
1.4038221e-18
-0.067042007
1.3170314e-14
-0.073509515
-1.2731514e-14
-0.080190328
0
-0.087050994
0
-0.094224298
2.3016898e-14
-0.10179581
0
-0.10966523
0
-0.11777154
0
-0.12624086
-2.0136917e-14
-0.13527979
-1.9472925e-14
-0.14510744
1.8829026e-14
-0.15597836
-3.6405783e-14
-0.16791468
0
-0.18107156
0
-0.19568914
-1.0950373e-05
-0.0026252313
0
-0.0043655269
0
-0.0068992852
0
-0.010116335
-9.8984599e-15
-0.013427123
-9.5734176e-15
-0.016586142
0
-0.020236161
8.9465183e-15
-0.024345061
8.6465663e-15
-0.028317137
0
-0.03234378
1.615717e-14
-0.036779448
0
-0.041517834
0
-0.046510811
-1.6439076e-18
-0.051798094
-1.4088848e-14
-0.057360798
0
-0.063211175
1.3160783e-14
-0.069342156
-1.2719721e-14
-0.075694196
-9.9347857e-19
-0.082207188
0
-0.088950248
0
-0.096038035
0
-0.10348255
-1.1788109e-18
-0.11119447
2.0793197e-14
-0.11913493
0
-0.12746216
-1.9450123e-14
-0.13639401
-1.8807798e-14
-0.14617438
0
-0.1570593
0
-0.16903659
0
-0.18227874
0
-0.19701191
-1.826991e-05
-0.0025986484
-2.9796856e-05
-0.0047347563
-1.05798e-14
-0.0064499747
0
-0.0094762166
0
-0.012598819
-9.5712423e-15
-0.015559341
-1.4227494e-18
-0.01898833
0
-0.02287342
-8.6464763e-15
-0.02660584
-1.671438e-14
-0.030365945
0
-0.034549555
0
-0.039025701
1.5083544e-14
-0.043736789
0
-0.048744231
0
-0.05402236
1.3609563e-14
-0.059571416
-2.6302887e-14
-0.065365711
1.1496791e-18
-0.07137715
-1.2285104e-14
-0.077582815
0
-0.083993714
0
-0.090657068
0
-0.097640023
0
-0.10495846
0
-0.11251807
0
-0.12030646
0
-0.12850515
-1.8786122e-14
-0.13734754
1.8166818e-14
-0.14709289
1.7564222e-14
-0.15801231
3.3957212e-14
-0.17004815
0
-0.18338382
0
-0.19823033
-2.242699e-05
-0.0025714423
-4.9864292e-05
-0.0047203979
-4.6082151e-05
-0.0069617541
1.0233809e-14
-0.0088719905
0
-0.01181639
-9.570523e-15
-0.014591014
9.2543818e-15
-0.017810315
-1.4823427e-18
-0.021481253
0
-0.024987913
-8.3554168e-15
-0.028495772
-8.0753149e-15
-0.032439898
0
-0.036666922
0
-0.041107507
0
-0.04584647
0
-0.05085067
-1.4551456e-18
-0.056114171
1.3144227e-14
-0.061589703
0
-0.067263553
0
-0.073153484
-1.1864823e-14
-0.079268009
0
-0.085601134
0
-0.092172368
2.1446638e-14
-0.099045347
-2.0738746e-14
-0.10623337
0
-0.1136552
1.9398975e-14
-0.12130723
-1.8761056e-14
-0.12939239
-1.8144119e-14
-0.1381553
-1.7544478e-14
-0.1478866
0
-0.15885304
0
-0.17096462
0
-0.18440807
3.0614418e-14
-0.1993683
-2.3882219e-05
-0.00254543
-6.1407334e-05
-0.0047042045
-7.7410819e-05
-0.0069814321
-6.3116047e-05
-0.0095135883
0
-0.011073661
0
-0.013679859
0
-0.016699896
-8.9436679e-15
-0.020165392
-1.1701147e-18
-0.023459106
0
-0.026729276
8.0739847e-15
-0.030446364
-7.8014697e-15
-0.034436611
0
-0.038617999
0
-0.043099148
1.4072687e-14
-0.047838048
0
-0.052830433
-1.3137141e-14
-0.05800761
-1.269286e-14
-0.063356912
0
-0.068922554
1.1856336e-14
-0.074738798
0
-0.080789854
1.1077102e-14
-0.087031474
0
-0.093493734
0
-0.10025567
-2.0029947e-14
-0.10733146
0
-0.11462795
-1.8735475e-14
-0.1221565
4.9408044e-19
-0.13013797
-1.7523437e-14
-0.13884014
-1.6943755e-14
-0.14856502
-1.6380748e-14
-0.1595982
3.1666757e-14
-0.17180736
0
-0.18535962
2.9560238e-14
-0.20042654
-2.3086352e-05
-0.0025209384
-6.5600117e-05
-0.0046890363
-9.5694467e-05
-0.0069976325
-0.0001062615
-0.0095745097
-7.9326663e-05
-0.011796175
0
-0.01281711
0
-0.015654422
0
-0.018922185
1.1704766e-18
-0.022015163
8.3533416e-15
-0.02506305
0
-0.02856474
0
-0.032329267
-7.5360615e-15
-0.03626232
0
-0.040497083
0
-0.044979363
1.3591204e-14
-0.049712108
0
-0.054608815
1.2685526e-14
-0.05965178
1.2258481e-14
-0.064901315
-1.1845981e-14
-0.070408477
2.2897498e-14
-0.07617351
-1.1065619e-14
-0.082134233
-6.1430611e-19
-0.088270226
0
-0.094632642
0
-0.10129633
0
-0.10826815
0
-0.11545431
1.8094804e-14
-0.12286924
4.1456223e-19
-0.13076437
1.6923401e-14
-0.13941288
-1.6362969e-14
-0.14914769
0
-0.16026638
-3.057746e-14
-0.17258798
2.9546544e-14
-0.186255
-2.8540273e-14
-0.20141737
-2.0471694e-05
-0.0024981788
-6.3619002e-05
-0.0046750513
-0.00010261675
-0.0070127159
-0.00013161112
-0.0096277133
-0.00013364922
-0.011908333
-9.1673357e-05
-0.013555894
0
-0.014667045
0
-0.017747711
0
-0.020652273
-8.3525075e-15
-0.023492117
8.0707943e-15
-0.026790334
-7.7978781e-15
-0.030339688
0
-0.034034749
-8.603765e-19
-0.038034152
0
-0.042268579
0
-0.046753667
-1.3123808e-14
-0.051384981
1.2678943e-14
-0.056137892
0
-0.06108731
0
-0.066284321
-1.1438242e-14
-0.071745981
7.1155557e-19
-0.077432407
0
-0.083290377
-5.1821075e-19
-0.089327924
0
-0.095601174
0
-0.10217978
-1.8682852e-14
-0.1090659
0
-0.11614815
0
-0.12346496
3.41946e-19
-0.13128352
0
-0.13989187
-1.5801481e-14
-0.1496489
0
-0.16087276
6.8702537e-19
-0.1733195
0
-0.18709589
2.7555952e-14
-0.20234082
-1.6462037e-05
-0.0024774895
-5.659157e-05
-0.0046622998
-9.9885206e-05
-0.0070265871
-0.00014139933
-0.0096756332
-0.00016565695
-0.012005813
-0.00015449284
-0.013718995
-0.00010169349
-0.015406615
8.9439732e-15
-0.016634312
0
-0.01936679
0
-0.022013635
-8.0699113e-15
-0.025117211
-9.9259178e-19
-0.028462479
0
-0.031929933
8.6675887e-19
-0.035704082
7.0294001e-15
-0.039700225
1.3582156e-14
-0.043948877
-1.3120113e-14
-0.048328823
1.1209526e-18
-0.052806187
0
-0.057470671
-1.1829507e-14
-0.062368213
0
-0.067517241
-1.1045669e-14
-0.072908185
1.0675597e-14
-0.078498729
-1.031948e-14
-0.084267712
0
-0.090224596
0
-0.096419326
0
-0.10292676
1.8043649e-14
-0.10973214
0
-0.11672763
0
-0.1239579
1.6321749e-14
-0.13171288
0
-0.14029067
-1.5258688e-14
-0.15008665
0
-0.16142862
-2.8507838e-14
-0.17400779
-2.754367e-14
-0.18789293
0
-0.20319681
-1.1458208e-05
-0.0024593017
-4.564818e-05
-0.004651137
-8.9165853e-05
-0.0070391325
-0.00013786263
-0.0097181659
-0.00017807854
-0.012092874
-0.00019154105
-0.013860865
-0.000171452
-0.015633206
-0.00011170465
-0.017359619
0
-0.018147324
0
-0.0206251
0
-0.023541249
2.0002961e-18
-0.026692074
7.53133e-15
-0.029943594
7.2753475e-15
-0.033501676
-7.0278302e-15
-0.037267887
6.7884392e-15
-0.041291159
0
-0.0454336
0
-0.049647988
1.2237957e-14
-0.054042292
-8.7390574e-19
-0.058657017
1.1421295e-14
-0.063497381
6.7650966e-19
-0.06857693
-1.0665456e-14
-0.073890056
1.0308406e-14
-0.079408057
-9.9644101e-15
-0.085098774
-3.6713405e-19
-0.090975095
0
-0.097102261
0
-0.10354742
1.7425376e-14
-0.11028869
0
-0.11720694
0
-0.12436358
0
-0.13206362
-1.9538924e-19
-0.14062649
1.9049214e-19
-0.15047412
0
-0.16194385
2.752507e-14
-0.17466325
2.6591417e-14
-0.18863643
-2.5682583e-14
-0.20398608
-5.8474697e-06
-0.0024439503
-3.1862569e-05
-0.004641883
-7.2156996e-05
-0.0070502561
-0.00012326926
-0.0097551759
-0.00017371285
-0.012169385
-0.00020596202
-0.013988231
-0.00021264938
-0.015836386
-0.00018841652
-0.017660545
-0.00011967444
-0.018808548
0
-0.019314551
0
-0.022058124
0
-0.02502298
-7.5303607e-15
-0.028070469
7.274185e-15
-0.031421946
0
-0.034966713
0
-0.038774157
-6.5558779e-15
-0.042691864
0
-0.04665558
0
-0.050793202
0
-0.055142753
0
-0.059691252
1.1027557e-14
-0.064460885
-1.0655534e-14
-0.069476885
1.0298074e-14
-0.074729851
9.9536361e-15
-0.080178879
-9.6218479e-15
-0.085792063
0
-0.09159671
0
-0.097666076
0
-0.10406058
0
-0.11074604
0
-0.11760164
0
-0.1246924
1.8670669e-19
-0.13235251
0
-0.14091376
1.4226947e-14
-0.15082391
0
-0.16243258
-2.6573939e-14
-0.17528307
0
-0.18933556
6.2005981e-19
-0.20470326
-0.0024314963
0
-1.6303628e-05
-0.0046348065
-5.0517302e-05
-0.0070600171
-9.9888386e-05
-0.009786488
-0.00015539748
-0.012235658
-0.00020098258
-0.014101612
-0.00022877026
-0.01601987
-0.00023380788
-0.017930017
-0.0002018421
-0.019169475
-0.00012423997
-0.019886387
0
-0.020658157
0
-0.023449603
0
-0.026304666
8.803525e-19
-0.029459267
-8.0983467e-19
-0.032791814
6.786151e-15
-0.036392447
6.5541583e-15
-0.040097278
-5.4317717e-19
-0.043821793
0
-0.04771477
0
-0.05181582
0
-0.056091997
0
-0.06056445
1.0646997e-14
-0.065276251
0
-0.070243841
0
-0.075445615
1.9221419e-14
-0.080826482
9.2912635e-15
-0.08636195
0
-0.092102824
0
-0.098124042
0
-0.10447861
1.6250791e-14
-0.11112289
0
-0.11792117
0
-0.12495918
0
-0.13259144
-1.4210325e-14
-0.14116444
0
-0.15115644
0
-0.1629014
5.5685377e-19
-0.1758736
0
-0.18997193
0
-0.2053516
-0.0046299439
0
-0.0024220978
5.8023706e-06
-2.5915279e-05
-0.0070684672
-7.0016298e-05
-0.0098119064
-0.00012596778
-0.012290994
-0.00017985634
-0.014201257
-0.00022335682
-0.016183451
-0.00025163363
-0.018172291
-0.00025043973
-0.01948919
-0.0002094997
-0.020311797
-0.00012780062
-0.021138534
0
-0.021960006
0
-0.024640969
0
-0.027607093
8.0964993e-19
-0.030739146
6.7841017e-15
-0.034141023
-6.5519562e-15
-0.037643442
-6.3282911e-15
-0.041140367
1.2222468e-14
-0.044800238
0
-0.048667189
0
-0.052689336
0
-0.056882537
0
-0.061299267
-4.7170195e-19
-0.065970896
-1.9866369e-14
-0.070900859
0
-0.076049778
0
-0.081359087
0
-0.086821978
8.6746753e-15
-0.092507141
0
-0.098491679
0
-0.10481801
0
-0.11142616
0
-0.11818012
0
-0.12517505
1.419213e-14
-0.13279229
-1.3720888e-14
-0.14140038
1.6051031e-19
-0.15148209
0
-0.16335621
0
-0.17642059
0
-0.19055401
0
-0.20592312
-0.0070755768
0
-0.0046274526
1.6248676e-05
-0.0024161595
1.1286245e-05
-3.5949435e-05
-0.0098312539
-8.8317455e-05
-0.012334544
-0.00014586297
-0.014286945
-0.00019997007
-0.016326694
-0.00024575529
-0.018386445
-0.0002695083
-0.019775786
-0.00025990737
-0.020690173
-0.00021553133
-0.021635795
-0.0001313655
-0.022333802
0
-0.023069315
0
-0.025859093
0
-0.028802634
-6.7830086e-15
-0.032015155
-6.5513355e-15
-0.035324344
0
-0.038605075
6.1098245e-15
-0.042042909
-5.9004845e-15
-0.045689654
0
-0.049473888
0
-0.053405442
0
-0.057544321
1.0271293e-14
-0.061923969
-4.0384232e-19
-0.066565625
-9.5899833e-15
-0.07146115
-3.0668808e-19
-0.076554104
2.4133218e-19
-0.081786169
0
-0.087180471
0
-0.092823392
0
-0.098782267
0
-0.1050884
0
-0.111672
0
-0.11838794
0
-0.12535027
1.3703571e-14
-0.13296945
0
-0.14163094
1.2804806e-14
-0.15181124
0
-0.1637936
0
-0.17693007
0
-0.19106862
2.2300337e-14
-0.20642617
-0.0098447157
0
-0.0070818162
2.5931797e-05
-0.0046272849
3.1651631e-05
-0.0024140648
1.6103906e-05
-4.5353527e-05
-0.012366645
-0.00010231785
-0.014358396
-0.00016227404
-0.01644973
-0.0002200885
-0.018571395
-0.00026318758
-0.020028483
-0.00027964617
-0.021028978
-0.00026740391
-0.022079721
-0.00022155901
-0.022904655
-0.0001338032
-0.023321803
0
-0.024205681
0
-0.026976707
0
-0.030008694
6.5501876e-15
-0.033133327
-5.1953191e-19
-0.036209625
0
-0.039436701
5.8985257e-15
-0.042875762
0
-0.046437106
0
-0.050123239
0
-0.054002316
1.0264497e-14
-0.058104984
0
-0.062457244
-9.5811783e-15
-0.067077022
0
-0.071934674
-8.9490521e-15
-0.076959541
-8.6512126e-15
-0.082113123
-8.3646235e-15
-0.087451658
8.0886094e-15
-0.093064814
0
-0.099008102
0
-0.10530307
1.5598773e-19
-0.11186749
0
-0.11855497
0
-0.12549439
0
-0.13313282
-1.2790673e-14
-0.14186978
-1.2361823e-14
-0.15214437
0
-0.1642168
0
-0.17739419
0
-0.19153008
0
-0.20685569
-0.012387822
0
-0.0098541145
3.6015904e-05
-0.0070869471
5.0579262e-05
-0.0046293852
4.5207204e-05
-0.0024158638
1.9899184e-05
-5.257397e-05
-0.014415168
-0.00011390072
-0.016551794
-0.00017862806
-0.018726336
-0.00023566711
-0.020246271
-0.00027305475
-0.021326918
-0.00028772495
-0.022474187
-0.00027485611
-0.023411179
-0.00022565039
-0.023963625
-0.00013541603
-0.024330073
0
-0.025252256
0
-0.028116371
0
-0.03106468
6.3241063e-15
-0.033947799
-4.4898454e-19
-0.036975052
5.8968056e-15
-0.040218121
3.5878119e-19
-0.043570647
-5.4987391e-15
-0.047026093
0
-0.05066277
0
-0.054507043
0
-0.058579668
0
-0.062914731
0
-0.06751339
8.9391207e-15
-0.072321554
0
-0.077267341
8.353149e-15
-0.082350045
1.6153682e-14
-0.087649207
0
-0.093244268
0
-0.099179247
0
-0.10547093
0
-0.11202451
0
-0.11868754
-1.3213717e-14
-0.12561569
-1.2775107e-14
-0.13329542
0
-0.14211754
-2.3868421e-14
-0.15248699
-1.1531179e-14
-0.16462485
0
-0.17781952
0
-0.19192391
-2.077474e-14
-0.20722079
-0.014455989
0
-0.012400932
4.5445391e-05
-0.0098595466
7.0274367e-05
-0.0070902722
7.2286561e-05
-0.004633757
5.5882717e-05
-0.0024219367
2.2323429e-05
-5.8561226e-05
-0.016630822
-0.00012538283
-0.018849556
-0.00019123124
-0.020427634
-0.00024448528
-0.0215831
-0.00028092166
-0.02281788
-0.00029568652
-0.023859318
-0.00027991155
-0.024534465
-0.00022838183
-0.025047384
-0.0001365899
-0.025244224
0
-0.026327206
0
-0.029112824
0
-0.031814465
4.4314875e-19
-0.034652853
5.894864e-15
-0.037709387
0
-0.040866056
5.4963294e-15
-0.044104765
5.307648e-15
-0.047514832
1.0252118e-14
-0.051119353
0
-0.054928703
0
-0.058982842
0
-0.06330579
-8.929632e-15
-0.067869462
-8.6300185e-15
-0.072611213
0
-0.077483963
8.7945816e-20
-0.08251376
7.7989266e-15
-0.087786844
0
-0.093370727
0
-0.099306385
0
-0.10560189
0
-0.1121468
0
-0.11879399
1.2758314e-14
-0.12572641
-1.2334051e-14
-0.13346075
-1.4348369e-19
-0.14238346
0
-0.15283923
-1.1131051e-14
-0.16501229
2.1504608e-14
-0.17819314
0
-0.19226228
0
-0.20751464
-0.016684279
0
-0.014483574
5.2733394e-05
-0.012406013
8.8676928e-05
-0.0098595383
0.0001004423
-0.0070916887
8.9371076e-05
-0.0046400444
6.2664804e-05
-0.0024329214
2.3004265e-05
-6.4457479e-05
-0.018939489
-0.00013419807
-0.020571381
-0.00019837304
-0.021796252
-0.00025148922
-0.023109634
-0.00028861578
-0.024247203
-0.00030109854
-0.025038027
-0.00028329478
-0.025683993
-0.0002303673
-0.026037787
-0.0001373317
-0.026180591
0
-0.027262056
0
-0.029804588
-6.1039335e-15
-0.032464312
-5.8935475e-15
-0.035343772
5.6904247e-15
-0.03831538
0
-0.041350446
2.2584621e-19
-0.044547999
-1.9834809e-19
-0.047930024
0
-0.051494144
0
-0.055279776
9.2332443e-15
-0.059323614
-8.9208584e-15
-0.06362025
-1.7970609e-19
-0.068134744
-8.3318493e-15
-0.072816237
-8.0545001e-15
-0.077627909
5.2219181e-20
-0.082617463
0
-0.087873348
-1.4565406e-14
-0.093454547
0
-0.099397299
0
-0.10570137
1.3175397e-14
-0.11224358
0
-0.11888186
0
-0.12583052
0
-0.13363627
1.1509073e-14
-0.14266616
1.112153e-14
-0.15319222
0
-0.16537305
2.0756396e-14
-0.17852167
0
-0.19253689
0
-0.2077488
-0.018994414
0
-0.016715475
5.8782508e-05
-0.014496384
0.00010292861
-0.012400759
0.00012675001
-0.0098541502
0.00012418284
-0.0070904132
0.00010014975
-0.0046483508
6.4492575e-05
-0.0024489872
2.1552293e-05
-6.8972693e-05
-0.020676348
-0.00013921093
-0.021964979
-0.00020402637
-0.023348215
-0.0002583063
-0.024573149
-0.00029385163
-0.025472248
-0.00030467933
-0.026242636
-0.00028572793
-0.026741379
-0.00023163548
-0.027048691
-0.00013758328
-0.026970241
0
-0.027902826
0
-0.030404418
0
-0.033114396
1.1378808e-14
-0.035911027
-2.565524e-19
-0.038755193
5.3034759e-15
-0.041753172
5.1209442e-15
-0.044927682
-4.9454216e-15
-0.048264216
0
-0.051797564
0
-0.055571124
-8.9125991e-15
-0.059593753
0
-0.063851253
0
-0.06832293
0
-0.072953093
7.7766454e-15
-0.077711468
2.2502073e-20
-0.08267037
7.271414e-15
-0.087918374
-1.4866874e-20
-0.093502979
0
-0.099459179
0
-0.10577645
1.2721798e-14
-0.1123186
1.2301319e-14
-0.11895637
0
-0.12593412
9.2990905e-20
-0.13382265
1.111033e-14
-0.14295984
2.0511401e-19
-0.15354121
0
-0.16570145
2.0033571e-14
-0.17880076
0
-0.19276293
0
-0.20791742
-0.020741039
0
-0.019020379
6.4664229e-05
-0.01672331
0.0001147452
-0.014488955
0.00014714196
-0.012385644
0.00015671713
-0.009843465
0.0001391319
-0.0070856312
0.00010291192
-0.0046582976
6.0286532e-05
-0.0024703835
1.754651e-05
-7.1551842e-05
-0.022088011
-0.0001431508
-0.023532814
-0.00020946698
-0.024835547
-0.00026291164
-0.025835615
-0.00029727882
-0.026721607
-0.00030726251
-0.027357954
-0.00028726899
-0.027818165
-0.00023198944
-0.02791176
-0.00013654183
-0.027466082
0
-0.028460011
0
-0.031015028
0
-0.033645596
0
-0.036311016
-2.1416545e-19
-0.039121911
0
-0.042102593
1.5188747e-19
-0.045227218
4.7730101e-15
-0.048525478
0
-0.052044234
0
-0.055799516
-8.6033019e-15
-0.059787883
0
-0.064012838
0
-0.068453306
5.1788928e-20
-0.073030897
0
-0.077740345
7.2603304e-15
-0.082681484
0
-0.087929341
6.7904078e-15
-0.093523573
-1.3134531e-14
-0.099497024
0
-0.10583173
1.2283543e-14
-0.11237822
-1.1876969e-14
-0.11902119
2.2964052e-14
-0.12603903
0
-0.13401598
0
-0.14325823
-1.0362332e-14
-0.15387023
1.0009929e-14
-0.16599771
0
-0.17903673
0
-0.19292885
0
-0.2080315
-0.022163601
0
-0.020773637
6.9176115e-05
-0.019017332
0.00012618203
-0.016701123
0.00016400988
-0.014460889
0.00018191337
-0.012360365
0.00017560228
-0.0098268022
0.00014292907
-0.0070772391
9.5972688e-05
-0.0046706123
4.8931262e-05
-0.0024965104
1.052312e-05
-7.3565246e-05
-0.0236627
-0.00014689929
-0.025033582
-0.00021313051
-0.026126117
-0.00026592827
-0.027119615
-0.00029975564
-0.027885231
-0.00030891372
-0.028492726
-0.00028770297
-0.028744665
-0.00023025923
-0.028478066
-0.00013450478
-0.027879527
0
-0.029031996
0
-0.031511807
0
-0.03401024
2.1018556e-19
-0.036646381
5.1171075e-15
-0.039445213
4.9407257e-15
-0.042372479
0
-0.04545198
-9.5085033e-20
-0.0487332
0
-0.052236358
0
-0.055962482
-8.3047586e-15
-0.059919951
0
-0.06412576
0
-0.068529999
7.4980482e-15
-0.073050064
-7.2495853e-15
-0.077723982
-7.0103486e-15
-0.082658813
6.7796358e-15
-0.087913576
6.5568469e-15
-0.093520708
0
-0.099516698
0
-0.10587202
0
-0.11242387
0
-0.11907982
0
-0.12614411
0
-0.1342126
1.0352733e-14
-0.14354454
1.8761891e-19
-0.15418003
9.6614401e-15
-0.16625427
-1.8660423e-14
-0.17922085
0
-0.19304825
0
-0.20808379
-0.023737013
0
-0.022201222
7.1786209e-05
-0.020773592
0.00013498856
-0.018978309
0.00018029657
-0.016647911
0.00020267309
-0.01441127
0.00020377228
-0.012324506
0.00018043305
-0.0098041667
0.00013323234
-0.00706493
7.76337e-05
-0.0046851563
2.9238246e-05
-0.0025251797
0
-7.5452103e-05
-0.025166745
-0.00014941109
-0.026342063
-0.00021551682
-0.027434873
-0.0002680794
-0.028321719
-0.00030132922
-0.029069609
-0.00030934193
-0.029475735
-0.00028556364
-0.029375115
-0.00022687927
-0.028959558
-0.00013230256
-0.028306747
0
-0.02949467
0
-0.03184523
0
-0.034317824
1.8984824e-19
-0.036946899
-1.4255317e-19
-0.039689695
0
-0.042565692
8.5525045e-20
-0.045626545
-4.446396e-15
-0.048894626
0
-0.052374041
0
-0.056069647
-1.6033304e-14
-0.060007971
0
-0.064194412
0
-0.068547879
-2.6567656e-20
-0.073016198
0
-0.077671698
-6.7690174e-15
-0.08261045
0
-0.08787577
6.3312775e-15
-0.093500425
0
-0.099521692
0
-0.10589971
-1.1450955e-14
-0.11245998
0
-0.11913292
0
-0.12624871
8.8561557e-20
-0.13439859
-9.9932362e-15
-0.14381717
9.6539503e-15
-0.15445676
2.7973564e-14
-0.1664707
-1.8008658e-14
-0.17936041
0
-0.19311342
1.6784348e-14
-0.20807954
-0.025234891
0
-0.023767581
7.3784011e-05
-0.022200213
0.00014011872
-0.02073152
0.00019290754
-0.018903396
0.0002227291
-0.016562845
0.00022686631
-0.014339711
0.0002092683
-0.012276908
0.00016822363
-0.0097740148
0.00010768368
-0.0070488184
4.6204733e-05
-0.004699748
0
-0.0023236048
0
-7.6703561e-05
-0.02648254
-0.00015103254
-0.027665624
-0.00021720449
-0.028665775
-0.00026945399
-0.029546681
-0.00030172993
-0.030101419
-0.00030707031
-0.030163612
-0.00028143074
-0.029919643
-0.00022318676
-0.029452568
-0.00012983879
-0.028628487
0
-0.029802529
0
-0.032128106
0
-0.034597773
-4.9370598e-15
-0.037169002
-9.4238668e-20
-0.039855872
0
-0.042712154
4.443705e-15
-0.045761942
-5.36456e-20
-0.049011304
8.2901598e-15
-0.052462274
0
-0.056134787
0
-0.060058226
7.4788908e-15
-0.064206813
7.2293829e-15
-0.068506427
-6.9894903e-15
-0.072941837
6.7585932e-15
-0.077593418
-6.5360382e-15
-0.082541189
6.3211413e-15
-0.087821673
2.6221247e-20
-0.093466146
0
-0.099515651
0
-0.10591785
0
-0.11248806
-1.0687912e-14
-0.11918211
-1.0330486e-14
-0.12634338
-9.9831871e-15
-0.13457334
0
-0.14406173
0
-0.15470448
-8.9990789e-15
-0.16664335
1.1265333e-19
-0.17945279
0
-0.19313364
-0.0018895273
-0.20612691
-0.026546984
0
-0.025252834
7.5601715e-05
-0.023753749
0.00014399748
-0.022149283
0.00020029216
-0.020647847
0.00023838337
-0.018792462
0.00024924667
-0.01644674
0.0002327504
-0.014245041
0.00019494142
-0.012216334
0.00013598734
-0.0097353877
6.4012782e-05
-0.0070278715
-1.057932e-14
-0.0043360006
0
-0.0025066962
0
-7.7507309e-05
-0.027810911
-0.00015217468
-0.028916275
-0.00021828683
-0.029921836
-0.00026979622
-0.030618874
-0.00029953684
-0.03083952
-0.00030269151
-0.030764157
-0.00027688703
-0.030472597