/*--------------------------------*- C++ -*----------------------------------*\
| =========                 |                                                 |
| \\      /  F ield         | OpenFOAM: The Open Source CFD Toolbox           |
|  \\    /   O peration     | Version:  v2012                                 |
|   \\  /    A nd           | Website:  www.openfoam.com                      |
|    \\/     M anipulation  |                                                 |
\*---------------------------------------------------------------------------*/
FoamFile
{
    version     2.0;
    format      ascii;
    class       surfaceScalarField;
    location    "73.0024180641493672";
    object      phi;
}
// * * * * * * * * * * * * * * * * * * * * * * * * * * * * * * * * * * * * * //

dimensions      [0 3 -1 0 0 0 0];
oriented        oriented;


internalField   nonuniform List<scalar> 
18180
(
0.00015970473
-3.5518453
0.00033356305
-3.3232731
-0.00094393093
-3.5364869
0.00057151644
-3.1107221
-0.0019119936
-3.3092366
-0.0014192885
-3.5215808
0.00094706917
-2.9132023
-0.0029017358
-3.0980852
-0.0028894288
-3.2955441
-0.0018215455
-3.5072484
0.0015146061
-2.729237
-0.0039260347
-2.9018689
-0.0044630987
-3.0855618
-0.0037340179
-3.2820232
-0.0020204315
-3.4933029
0.0024059005
-2.5576425
-0.0049731204
-2.7187248
-0.00620646
-2.8900321
-0.0058194957
-3.0726777
-0.004160107
-3.2686931
-0.0020442696
-3.4800462
0.0037360574
-2.3972112
-0.0059769866
-2.5475347
-0.0081541438
-2.7071491
-0.0082031743
-2.8774706
-0.0065219623
-3.0597341
-0.0042162319
-3.2558672
-0.0019049817
-3.467487
0.005680888
-2.2473432
-0.0068612262
-2.3874127
-0.010315356
-2.5360452
-0.010971681
-2.6946576
-0.0092761689
-2.8647229
-0.0066349057
-3.0471967
-0.0039304272
-3.2437327
-0.0016314106
-3.4559187
0.0084237228
-2.1074928
-0.007495777
-2.2379339
-0.012681008
-2.376002
-0.0142082
-2.5235087
-0.012547763
-2.6820036
-0.0094922863
-2.8523446
-0.0062010103
-3.0353023
-0.003368924
-3.2325265
-0.001259853
-3.4453203
0.01218596
-1.9771649
-0.0077184038
-2.0987237
-0.015215176
-2.2267744
-0.01798603
-2.3634936
-0.016477507
-2.5108748
-0.012931215
-2.6697952
-0.0089075968
-2.8406415
-0.0053257962
-3.0242902
-0.0026101683
-3.222298
-0.00082940823
-3.4358413
0.017205888
-1.8557628
-0.0073169471
-1.9694368
-0.017855553
-2.0880699
-0.022376543
-2.214416
-0.021205733
-2.3508898
-0.017121087
-2.4988092
-0.012189973
-2.6582714
-0.0076752744
-2.8297009
-0.0041362457
-3.0142435
-0.0017365033
-3.2131339
-0.00038851783
-3.4273681
0.023735311
-1.742607
-0.0060287007
-1.8494351
-0.020508319
-1.9593773
-0.027447892
-2.0757505
-0.026893065
-2.2016145
-0.022233361
-2.338621
-0.01621578
-2.4871933
-0.010539423
-2.6473363
-0.0059835683
-2.8196899
-0.0027666419
-3.0052514
-0.00083317274
-3.2049994
8.9756385e-06
-3.4199473
0.032037389
-1.6370282
-0.0035455945
-1.7379773
-0.023043807
-1.839983
-0.033267032
-1.9468329
-0.033719054
-2.0623436
-0.028468886
-2.1887079
-0.021149105
-2.3266011
-0.014062259
-2.4760974
-0.0082501145
-2.6372811
-0.0040292002
-2.8107426
-0.0013454203
-2.9973417
2.591697e-05
-3.1979261
0.00036896206
-3.4134209
0.042369906
-1.5384342
0.00049962612
-1.634437
-0.025289914
-1.7292372
-0.039897672
-1.8270086
-0.041893405
-1.9324556
-0.036055744
-2.0484593
-0.027175699
-2.1759783
-0.018374327
-2.3151191
-0.011047518
-2.4659273
-0.0056007988
-2.6283726
-0.0019944092
-2.8029648
1.4501594e-05
-2.9904958
0.00078604143
-3.1918043
0.00064680428
-3.407767
0.054973941
-1.4462824
0.0065273508
-1.5382735
-0.027027855
-1.6265894
-0.047400026
-1.7157026
-0.051659238
-1.8113337
-0.045265365
-1.9172371
-0.034497532
-2.0347267
-0.02360946
-2.1639113
-0.014465081
-2.3047589
-0.0075624992
-2.457046
-0.0028418385
-2.6206971
-3.4151771e-05
-2.7963235
0.0012306604
-2.9846699
0.0014035634
-3.1865733
0.00084683561
-3.4028139
0.070058576
-1.3600582
0.015004547
-1.4489922
-0.02799332
-1.5315605
-0.055826663
-1.6124106
-0.063297645
-1.6984139
-0.056419268
-1.7944262
-0.043345442
-1.9022659
-0.029894042
-2.0219614
-0.018576619
-2.1532795
-0.0099703078
-2.2959298
-0.0039441559
-2.449546
-0.00017800853
-2.6142515
0.0017314408
-2.7907893
0.0022383064
-2.9797661
0.0018527027
-3.1821116
0.00096765165
-3.3985283
0.087783953
-1.2792623
0.026438843
-1.3661221
-0.027878011
-1.4437041
-0.065222901
-1.5166746
-0.07712963
-1.5931774
-0.069899658
-1.6794374
-0.053983695
-1.777968
-0.037350392
-1.8887189
-0.023424695
-2.011061
-0.012852539
-2.1445367
-0.0053407502
-2.2886531
-0.00045289028
-2.4433213
0.0022394363
-2.608971
0.0032160062
-2.7862628
0.0029936761
-2.9757092
0.0021264212
-3.1783112
0.0010057108
-3.3947215
0.10825649
-1.2034485
0.041412016
-1.2892397
-0.026315486
-1.3626098
-0.075627404
-1.4280597
-0.093514975
-1.4951333
-0.086157847
-1.5716849
-0.066719204
-1.661178
-0.046093964
-1.7635176
-0.029015332
-1.8775201
-0.016192168
-2.002309
-0.0070391384
-2.1373981
-0.00089971553
-2.2826436
0.0027283465
-2.4383083
0.0043054884
-2.6047927
0.004366518
-2.7826696
0.0034813328
-2.9723563
0.0022244133
-3.175032
0.00096066467
-3.3913291
0.131464
-1.1322237
0.060575844
-1.2179692
-0.022811469
-1.2879809
-0.087038812
-1.3461957
-0.11284702
-1.4038116
-0.10571557
-1.4706073
-0.081908399
-1.5512576
-0.056233371
-1.6456743
-0.035308415
-1.751985
-0.019915797
-1.8687245
-0.0090015583
-1.9952617
-0.001529455
-2.1315702
0.0031471894
-2.2778652
0.0054826944
-2.4344584
0.0059557104
-2.6016276
0.0051580254
-2.7798641
0.0037026445
-2.9695962
0.0021548144
-3.1721517
0.00083859042
-3.3881896
0.1569459
-1.0649679
0.084314266
-1.1516497
-0.016897168
-1.2194156
-0.099317194
-1.2709255
-0.13552157
-1.3188389
-0.12916519
-1.3756622
-0.099961761
-1.4475915
-0.067868816
-1.5345641
-0.042210324
-1.6338624
-0.023881237
-1.7432664
-0.01112944
-1.861813
-0.0023210633
-1.9895586
0.003464177
-2.1269898
0.0066869125
-2.2743166
0.007741583
-2.4317097
0.007157534
-2.5993537
0.0055892559
-2.7777297
0.0036713972
-2.9672839
0.001935414
-3.1695662
0.00065327966
-3.3852535
0.18335318
-1.0006721
0.11217147
-1.0888221
-0.0090172542
-1.1553403
-0.1125282
-1.201643
-0.16188146
-1.2401096
-0.15716888
-1.286403
-0.12134322
-1.349585
-0.08108902
-1.4295924
-0.049566945
-1.5225965
-0.02786783
-1.6254136
-0.013251858
-1.7366263
-0.0032026847
-1.8562709
0.0036567615
-1.9851513
0.0078543876
-2.1237107
0.0096582535
-2.2719379
0.009471574
-2.4299471
0.0079066974
-2.5978439
0.0056759144
-2.7761249
0.0034113147
-2.9653327
0.001591367
-3.1671791
0.00041303432
-3.3823847
0.20853567
-0.93690487
0.14088676
-1.0256728
-0.00062933834
-1.0932832
-0.12803574
-1.1354774
-0.19250288
-1.1667837
-0.19049351
-1.2026158
-0.14660396
-1.2567037
-0.095962523
-1.3301901
-0.057156757
-1.417668
-0.031570909
-1.514704
-0.015115682
-1.6193092
-0.0040426732
-1.7314086
0.0037341019
-1.8520426
0.0089131729
-1.9820958
0.01161665
-2.1216715
0.012035579
-2.27064
0.01066345
-2.4290582
0.008216169
-2.596969
0.0054456744
-2.7749442
0.0029534273
-2.9636111
0.0011478108
-3.1649141
0.00013547149
-3.3795508
0.23159975
-0.87528126
0.16843638
-0.96100745
0.0080170702
-1.0306388
-0.14789202
-1.0692702
-0.22882615
-1.0951248
-0.22992046
-1.1234421
-0.17647272
-1.1685559
-0.1125573
-1.2358272
-0.064682736
-1.3185898
-0.034598523
-1.4107138
-0.016381768
-1.5094808
-0.0046400765
-1.614642
0.0037409641
-1.7274054
0.009793867
-1.8491471
0.013498963
-1.9803171
0.014747793
-2.1207605
0.01380728
-2.2703165
0.011324042
-2.4289175
0.0081125314
-2.5965989
0.004934198
-2.7740507
0.0023321631
-2.9620384
0.00062694409
-3.1626904
-0.00015385642
-3.3766811
0.25144745
-0.8161604
0.19404161
-0.89768618
0.015992205
-0.96553295
-0.17043106
-1.0041355
-0.27267688
-1.0215896
-0.27589224
-1.0454838
-0.21149266
-1.0844685
-0.13101396
-1.1460421
-0.071772439
-1.2249101
-0.036475486
-1.3130363
-0.016625978
-1.4067771
-0.004721166
-1.5056284
0.0037642544
-1.6109382
0.010433972
-1.7245437
0.015164963
-1.8474567
0.017461914
-1.9796777
0.017240407
-2.120917
0.014970044
-2.2708663
0.011472294
-2.4293934
0.0076317067
-2.5966014
0.0041816569
-2.7733423
0.0015816351
-2.960512
5.7468253e-05
-3.1604556
-0.00044974364
-3.3737751
0.26669436
-0.75838363
0.21568602
-0.83483119
0.018582176
-0.89704181
-0.19465955
-0.93752763
-0.32469475
-0.94847902
-0.32854959
-0.96549791
-0.25091538
-1.0023352
-0.15125653
-1.0603807
-0.078008247
-1.1362133
-0.036648216
-1.2212988
-0.015350207
-1.310862
-0.0039398849
-1.404057
0.0039403657
-1.5023344
0.010783464
-1.6080039
0.016453741
-1.722726
0.019988934
-1.846891
0.020809722
-1.9801605
0.01907664
-2.1220665
0.01552699
-2.272167
0.011137189
-2.4303471
0.0068160347
-2.5968475
0.0032301401
-2.772713
0.00073380674
-2.9589795
-0.00056121953
-3.1581341
-0.00076687505
-3.370758
0.27716248
-0.70285178
0.23141208
-0.77134438
0.013221587
-0.82643645
-0.22335186
-0.86475577
-0.38110655
-0.87766058
-0.38759263
-0.88622534
-0.29300199
-0.91990382
-0.17195595
-0.97799041
-0.082861046
-1.0521583
-0.034489807
-1.1351609
-0.012000607
-1.2214195
-0.0018828831
-1.3096553
0.0044495764
-1.4013285
0.010805028
-1.4992581
0.017186433
-1.605792
0.022097885
-1.721922
0.024306919
-1.8474739
0.023506229
-1.9817655
0.020232971
-2.1241306
0.015489832
-2.2740841
0.010356385
-2.431636
0.0057122638
-2.5972252
0.0021215653
-2.7720869
-0.00017853973
-2.9573803
-0.0011917189
-3.1557208
-0.0010739069
-3.3676412
0.2820537
-0.64971001
0.24048784
-0.7093535
0.0024709734
-0.7577462
-0.25569851
-0.79067581
-0.43593499
-0.80664873
-0.4494796
-0.81277405
-0.33710583
-0.83882254
-0.19063254
-0.89777074
-0.085246677
-0.97244753
-0.029364579
-1.0542905
-0.0059490751
-1.1381871
0.001917301
-1.2221671
0.0055232323
-1.307698
0.010478541
-1.3980645
0.017168499
-1.4964101
0.023518424
-1.6044234
0.027468538
-1.7223149
0.028060309
-1.8493343
0.025487023
-1.9844786
0.020689547
-2.1269862
0.014881153
-2.2764625
0.0091754647
-2.4331245
0.0043700624
-2.5976234
0.00089713067
-2.7713756
-0.0011356151
-2.9556728
-0.0018207576
-3.153172
-0.0013748092
-3.3643926
0.28140001
-0.59973703
0.24251647
-0.64934057
-0.013134487
-0.69107488
-0.28908137
-0.72112545
-0.48599678
-0.73750608
-0.50755785
-0.74576941
-0.38312224
-0.76365749
-0.20627873
-0.81989852
-0.083317001
-0.89674447
-0.020564507
-0.97846278
0.0033905103
-1.0607926
0.0079391493
-1.1413453
0.0074292634
-1.2212286
0.0097967666
-1.304232
0.016191941
-1.3943782
0.023942952
-1.494152
0.029978878
-1.6042747
0.032478887
-1.7241667
0.031124841
-1.8525419
0.026681506
-1.9882092
0.020438887
-2.1304795
0.013736272
-2.2791437
0.0076470956
-2.4346762
0.0028404839
-2.5979474
-0.00039899942
-2.7705324
-0.0021036694
-2.9538068
-0.0024369135
-3.1504885
-0.0016623389
-3.3610284
0.27543099
-0.55317482
0.23754773
-0.59253159
-0.032298016
-0.62766634
-0.32226205
-0.65482839
-0.53200867
-0.67217044
-0.55906531
-0.68338264
-0.42943958
-0.69654037
-0.22035351
-0.74647511
-0.07567286
-0.82477673
-0.0072309621
-0.90749137
0.016580052
-0.98898965
0.01675905
-1.0669212
0.010452246
-1.1416951
0.0087737523
-1.2175682
0.014031429
-1.2994834
0.023030664
-1.390887
0.03147575
-1.4930896
0.036444732
-1.6057959
0.036919177
-1.727657
0.033353675
-1.8570485
0.02703192
-1.9928067
0.019492352
-2.134424
0.012103659
-2.2819614
0.0058299937
-2.4361675
0.0011744288
-2.5981026
-0.0017446643
-2.7694955
-0.0030623945
-2.9517764
-0.0030289617
-3.1476542
-0.0019320311
-3.3575318
0.26436323
-0.50988072
0.22601847
-0.53955582
-0.053993166
-0.56847743
-0.35418745
-0.59284239
-0.57303323
-0.61101939
-0.60364568
-0.62514642
-0.47336743
-0.63672179
-0.2342637
-0.6796855
-0.062766943
-0.75679419
0.011563764
-0.84117387
0.034061019
-0.9224729
0.028889139
-0.9985876
0.014956247
-1.0689119
0.0074315417
-1.1378561
0.010455043
-1.2115251
0.02040809
-1.2943987
0.031556925
-1.3885277
0.039592141
-1.4939116
0.042584275
-1.6092942
0.040532673
-1.7327983
0.034612435
-1.8627145
0.026506918
-1.998066
0.017883248
-2.1386257
0.0100445
-2.2847593
0.0037867268
-2.4374812
-0.00057301411
-2.5980442
-0.0030923609
-2.7682391
-0.0039924576
-2.9495547
-0.0035877675
-3.1446754
-0.0021807177
-3.3539224
0.23892932
-0.5504522
0.20884646
-0.49075375
-0.077307661
-0.51402455
-0.38389768
-0.53603138
-0.60833959
-0.55490524
-0.64081236
-0.5715698
-0.51257586
-0.58337493
-0.24781598
-0.62038169
-0.046441708
-0.69359251
0.036179026
-0.77919124
0.056183777
-0.86094927
0.044805515
-0.93600519
0.02127974
-1.0025486
0.005756026
-1.0648739
0.0052102895
-1.1302664
0.015672202
-1.204454
0.029789968
-1.2903316
0.041518876
-1.3882698
0.047786152
-1.4970966
0.047986371
-1.6148487
0.043075223
-1.7394473
0.03480302
-1.8693239
0.025108674
-2.0037622
0.015667293
-2.1428851
0.0076308969
-2.2873822
0.0015814103
-2.4385214
-0.0023706567
-2.597699
-0.0044161501
-2.7667344
-0.0048778627
-2.9471426
-0.0041061598
-3.1415427
-0.0024057058
-3.3501939
0.20755767
-0.54263381
0.17996389
-0.51943031
-0.10132098
-0.46465599
-0.41061988
-0.48472542
-0.63760652
-0.50428196
-0.67066591
-0.52291947
-0.54572272
-0.53602075
-0.26016792
-0.56838573
-0.028497368
-0.63606525
0.066064779
-0.72142946
0.083295049
-0.80409673
0.064917247
-0.87881475
0.02980644
-0.94231294
0.0038104297
-0.9983696
-0.0019719578
-1.0554674
0.0083998013
-1.1207834
0.025715811
-1.1982253
0.041803126
-1.2885808
0.052158342
-1.3907533
0.055432692
-1.5027564
0.052256417
-1.622323
0.044352742
-1.7473951
0.033875661
-1.876615
0.022875221
-2.0096465
0.012920771
-2.1470035
0.0049426915
-2.2897005
-0.00071340031
-2.4392251
-0.0041598509
-2.5970368
-0.0056905848
-2.7649687
-0.0057057546
-2.9445315
-0.0045788031
-3.1382646
-0.0026061955
-3.3463693
0.16968437
-0.53448256
0.14594328
-0.50647137
-0.12741966
-0.49105855
-0.43397369
-0.43888016
-0.66085923
-0.45913254
-0.69370704
-0.47924864
-0.57245647
-0.49393475
-0.27079008
-0.52290567
-0.010091044
-0.58467756
0.099932207
-0.66804275
0.11551457
-0.75157503
0.089617534
-0.82667965
0.040968675
-0.88789518
0.0016163214
-0.93800915
-0.011399383
-0.98683573
-0.0018586384
-1.0431171
0.018869509
-1.1119188
0.040018265
-1.1945426
0.055323245
-1.2899694
0.062555097
-1.3961905
0.061937433
-1.51083
0.055071021
-1.631526
0.044238764
-1.7563528
0.031833632
-1.8842985
0.019878514
-2.0154672
0.009737197
-2.1507972
0.0020633847
-2.29159
-0.0030596195
-2.4395176
-0.0059051596
-2.5960285
-0.0068944538
-2.7629393
-0.006466324
-2.9417275
-0.0050021519
-3.1348444
-0.0027814469
-3.3424499
0.12482618
-0.52629764
0.10693206
-0.49332704
-0.15438049
-0.47721818
-0.45100065
-0.47141664
-0.67859601
-0.41894171
-0.71058392
-0.44039218
-0.5931668
-0.45642942
-0.27958658
-0.48278317
0.007804716
-0.53882358
0.13624544
-0.61924943
0.15241621
-0.7029938
0.11914172
-0.77910249
0.055275612
-0.83903552
-0.00073457268
-0.88355264
-0.023350861
-0.9240661
-0.01557469
-0.97113992
0.0087679171
-1.0311221
0.035751138
-1.1058845
0.056915724
-1.1944761
0.06902485
-1.2948538
0.071855883
-1.4045871
0.066812158
-1.5211408
0.05620009
-1.642166
0.042680537
-1.7659894
0.028731567
-1.8920534
0.016220657
-2.0209779
0.0062220988
-2.1541066
-0.0009109038
-2.2929932
-0.0053782456
-2.4393597
-0.0075732599
-2.5946712
-0.0080108712
-2.7606496
-0.0071526103
-2.9387343
-0.0053742256
-3.1313
-0.0029312391
-3.3384604
0.072676093
-0.51844251
0.063298758
-0.48051654
-0.18197552
-0.4634203
-0.46500799
-0.46057462
-0.68737565
-0.46027509
-0.72220835
-0.40557384
-0.60853061
-0.4230538
-0.28659454
-0.44719917
0.024509677
-0.49763836
0.17314116
-0.57411536
0.19244523
-0.65744298
0.15262756
-0.73459674
0.072749543
-0.79475072
-0.0031413871
-0.83474962
-0.038089588
-0.8669337
-0.033239535
-0.90452719
-0.0050693829
-0.95552424
0.028618194
-1.022345
0.056608393
-1.1040327
0.074527522
-1.1984929
0.081723947
-1.3032872
0.079372605
-1.4158032
0.069697604
-1.5333996
0.055511669
-1.6538582
0.039697347
-1.7759145
0.024670991
-1.8995671
0.012028305
-2.0259577
0.0024870264
-2.1567918
-0.0039325698
-2.2938125
-0.0076237081
-2.4387365
-0.0091366433
-2.5929628
-0.0090272424
-2.7581067
-0.007760282
-2.9355676
-0.0056943912
-3.1276415
-0.0030559915
-3.3344136
0.013299843
-0.51119709
0.015631329
-0.46862295
-0.20965018
-0.45051128
-0.47567959
-0.45009327
-0.69036766
-0.45519447
-0.72910676
-0.45152528
-0.61946516
-0.39278935
-0.29239548
-0.41515957
0.03976915
-0.46072856
0.20925972
-0.53227996
0.23331434
-0.61325718
0.18741471
-0.69045519
0.091981815
-0.75212353
-0.0064096037
-0.78971067
-0.055956991
-0.81511072
-0.055374052
-0.84302488
-0.023123193
-0.88480051
0.018281014
-0.94365798
0.054138111
-1.0184392
0.078792817
-1.106915
0.09125286
-1.2066843
0.092500668
-1.3151563
0.084597462
-1.4295469
0.070361058
-1.5471913
0.05296786
-1.6661602
0.035375459
-1.7857356
0.019794022
-1.906535
0.0074437497
-2.0302206
-0.0013463632
-2.1587823
-0.0068945436
-2.2940225
-0.0097528687
-2.4376413
-0.010573849
-2.590915
-0.0099350634
-2.7553256
-0.0082873404
-2.9322431
-0.0059631882
-3.1238934
-0.003156559
-3.3303335
-0.051675898
-0.50543504
-0.035170401
-0.45823827
-0.23632498
-0.43959934
-0.48281301
-0.44070516
-0.68724561
-0.45080521
-0.73047727
-0.45195048
-0.63563496
-0.43340307
-0.29665365
-0.38656391
0.053185011
-0.42695636
0.24361007
-0.49371755
0.2734873
-0.57082782
0.22190725
-0.64607758
0.11094765
-0.70783078
-0.011839001
-0.7450248
-0.07804828
-0.76595331
-0.082523887
-0.78628059
-0.045937808
-0.81863511
0.0044434183
-0.8695417
0.04932708
-0.93751417
0.081623893
-1.0199894
0.10018102
-1.1146103
0.10591391
-1.2189353
0.10069145
-1.330184
0.08718284
-1.4453914
0.068684985
-1.5620117
0.048618888
-1.6785854
0.029861746
-1.7950563
0.01427438
-1.9126994
0.0026174497
-2.0336049
-0.0051964191
-2.1599875
-0.0097385362
-2.2936074
-0.011730597
-2.4360857
-0.011869445
-2.5885429
-0.010729557
-2.7523275
-0.0087338309
-2.9287842
-0.0061821205
-3.1200708
-0.0032341479
-3.3262434
-0.12017828
-0.50208319
-0.088084833
-0.4503579
-0.26040135
-0.43179579
-0.48631076
-0.43341355
-0.67813601
-0.4473851
-0.72664605
-0.45274432
-0.64638647
-0.439215
-0.31945916
-0.40853285
0.065298998
-0.39716489
0.27562821
-0.45771618
0.31183019
-0.53053283
0.25544672
-0.60279243
0.12918869
-0.66283751
-0.018038789
-0.70005925
-0.10577893
-0.71573034
-0.1151443
-0.73174196
-0.074045797
-0.75668788
-0.013162098
-0.79971043
0.042101375
-0.86107989
0.082923282
-0.93762721
0.10830523
-1.0269844
0.11932261
-1.1269593
0.11770296
-1.234965
0.10583452
-1.3479263
0.086913865
-1.4627892
0.064657923
-1.5773003
0.042597424
-1.6906382
0.02335528
-1.8035165
0.0083065155
-1.917832
-0.0022854482
-2.0360366
-0.0089404996
-2.1603798
-0.012409375
-2.2925779
-0.013530413
-2.4340889
-0.01301369
-2.5858712
-0.011409263
-2.7491368
-0.0091015114
-2.9252094
-0.006353455
-3.116208
-0.0032902022
-3.3221639
-0.19034156
-0.50207435
-0.14281292
-0.44518631
-0.28179253
-0.42658462
-0.48626261
-0.42914248
-0.66383963
-0.44526307
-0.7177655
-0.45435588
-0.65184536
-0.44526872
-0.33943941
-0.41713071
0.054540703
-0.39620595
0.304759
-0.42512845
0.34740419
-0.49185716
0.28714315
-0.56074752
0.14570485
-0.6179302
-0.024341257
-0.65505669
-0.13743608
-0.66693707
-0.15345953
-0.67590885
-0.10699605
-0.697391
-0.03475394
-0.73387405
0.032485454
-0.78894929
0.08270976
-0.85976591
0.11550818
-0.94379592
0.13245876
-1.039157
0.13530154
-1.1436579
0.12606784
-1.2543585
0.10761246
-1.3678541
0.083690463
-1.4811284
0.058369983
-1.5924512
0.035112145
-1.7018312
0.016095985
-1.8107928
0.0020967724
-1.9217568
-0.0071622486
-2.0374201
-0.012497451
-2.1599629
-0.014863499
-2.2909559
-0.015134255
-2.4316811
-0.014002025
-2.5829287
-0.011975556
-2.7457741
-0.0093935304
-2.9215495
-0.0064800295
-3.112319
-0.0033263423
-3.3181204
-0.50618207
-0.25981818
-0.19925764
-0.44345433
-0.30091073
-0.42367161
-0.48302694
-0.42710745
-0.64579268
-0.44472727
-0.70417779
-0.45692353
-0.65207758
-0.4520759
-0.35668588
-0.42588322
0.042751311
-0.40375022
0.31670353
-0.4069484
0.37934047
-0.45572113
0.31632859
-0.51965112
0.15938009
-0.57314108
-0.032439188
-0.60844347
-0.16951474
-0.62160817
-0.19686886
-0.62210201
-0.1432337
-0.63834807
-0.059563736
-0.67145128
0.020612074
-0.72094148
0.081136006
-0.78635292
0.12177891
-0.86508739
0.14510632
-0.95557029
0.15312593
-1.0561661
0.14752845
-1.1643516
0.13060495
-1.2766352
0.10581573
-1.3893318
0.077522831
-1.4997114
0.050011408
-1.6068443
0.026440565
-1.7117179
0.0083491289
-1.8166272
-0.0041449806
-1.9243972
-0.011846424
-2.0377516
-0.015798145
-2.1587615
-0.017069462
-2.2887818
-0.016531961
-2.4289005
-0.014834396
-2.5797373
-0.012432141
-2.7422666
-0.0096140882
-2.9178249
-0.0065651079
-3.1084439
-0.0033442815
-3.3141278
-0.44671493
-0.25654264
-0.51414511
-0.32536013
-0.31894784
-0.42300815
-0.47679784
-0.42717869
-0.62459423
-0.44583081
-0.68647452
-0.46048607
-0.64754816
-0.45937652
-0.37127564
-0.43531588
0.03042406
-0.4119482
0.32661299
-0.4124321
0.40282627
-0.42905425
0.34210983
-0.48020052
0.17071126
-0.52979092
-0.042389339
-0.5618885
-0.19995687
-0.57672146
-0.24137726
-0.57575055
-0.18238328
-0.58170144
-0.085545289
-0.61132343
0.0070040137
-0.65686477
0.078471503
-0.71732456
0.12722196
-0.79092245
0.15712622
-0.87631675
0.17081595
-0.97252549
0.16976824
-1.0777112
0.1555612
-1.1886508
0.13099109
-1.3012064
0.10033308
-1.4116094
0.068537489
-1.5177775
0.039873938
-1.6198734
0.016913462
-1.7199145
0.00040351573
-1.8208363
-0.010260143
-1.9256802
-0.016237668
-2.0370532
-0.018790219
-2.1568249
-0.019007605
-2.2861053
-0.017720391
-2.4257785
-0.015514528
-2.5763293
-0.012784527
-2.7386414
-0.009768167
-2.9140748
-0.0066121915
-3.1045939
-0.0033457852
-3.3102105
-0.4271428
-0.33610025
-0.45623122
-0.31226741
-0.52270781
-0.38479794
-0.46756995
-0.42950732
-0.60057903
-0.4487089
-0.66535814
-0.46498523
-0.63888763
-0.46704454
-0.38331194
-0.44514311
0.017530173
-0.42079944
0.33353932
-0.41762315
0.42510411
-0.43329821
0.37058051
-0.4561983
0.17962626
-0.48800621
-0.053471834
-0.5174903
-0.22850122
-0.5321486
-0.28232527
-0.53449745
-0.22417517
-0.53277534
-0.11261417
-0.55367093
-0.0070030865
-0.59641378
0.0751187
-0.65262255
0.13206239
-0.72135829
0.16847419
-0.80155432
0.18804724
-0.89288626
0.19227372
-0.99440627
0.1819906
-1.1035459
0.15898834
-1.2160877
0.12695797
-1.327327
0.091165169
-1.43381
0.056993978
-1.534539
0.028342398
-1.6309861
0.0068970981
-1.7261175
-0.0074790019
-1.823347
-0.016052537
-1.9256195
-0.020251948
-2.0353836
-0.021438572
-2.1542187
-0.020669035
-2.2829795
-0.018702373
-2.4223601
-0.016049104
-2.5727356
-0.013039569
-2.7349326
-0.0098612278
-2.9103163
-0.0066249214
-3.1008002
-0.00333261
-3.3063748
-0.43555611
-0.45642345
-0.43677141
-0.35313163
-0.46807641
-0.36470309
-0.52854194
-0.43731285
-0.5741359
-0.45345802
-0.6418627
-0.47022405
-0.6268906
-0.47485717
-0.39298116
-0.45515629
0.0044246498
-0.43040187
0.33711259
-0.42309978
0.44488708
-0.43596469
0.39821579
-0.45957444
0.20433686
-0.47978709
-0.064899546
-0.47544214
-0.25570323
-0.48917068
-0.31907244
-0.49419537
-0.26611685
-0.4914376
-0.14304449
-0.50145975
-0.020555182
-0.53928721
0.07175984
-0.59222207
0.13661891
-0.65643162
0.17921061
-0.73144536
0.20456584
-0.81747604
0.21451024
-0.91456212
0.20925648
-1.0211389
0.18936107
-1.1334072
0.15737237
-1.2460286
0.11830646
-1.3540628
0.078464318
-1.4549534
0.043294979
-1.5492204
0.01588024
-1.6397278
-0.0031716098
-1.7301991
-0.01507134
-1.8241135
-0.021393013
-1.924283
-0.023829612
-2.0328255
-0.02372436
-2.1510193
-0.022054162
-2.2794644
-0.019485502
-2.4186849
-0.016447061
-2.5689949
-0.013205
-2.7311656
-0.0098990085
-2.9065781
-0.0066069435
-3.0970644
-0.0033064837
-3.3026388
-0.45934964
-0.54784462
-0.444372
-0.44608658
-0.44797625
-0.37079677
-0.47791759
-0.41312567
-0.53007513
-0.48284559
-0.61760997
-0.47571197
-0.61252193
-0.48244769
-0.40008725
-0.46551594
-0.0085927695
-0.44049151
0.33706248
-0.42905991
0.46119581
-0.43794298
0.42405725
-0.4604214
0.22859205
-0.48267882
-0.054179315
-0.48936364
-0.281716
-0.44838279
-0.35261718
-0.45448628
-0.30555329
-0.45370295
-0.17695451
-0.4567131
-0.035328109
-0.48592139
0.069263819
-0.53600977
0.14124165
-0.59614993
0.18948835
-0.66612037
0.22020609
-0.74654608
0.23596637
-0.83842744
0.23661215
-0.94144311
0.22142556
-1.0527459
0.19130445
-1.1669029
0.15024588
-1.2775812
0.10497203
-1.3802627
0.062574392
-1.4739959
0.027984422
-1.561127
0.0030195093
-1.6457395
-0.013068147
-1.7320311
-0.022129291
-1.8232094
-0.026183619
-1.921772
-0.026935155
-2.0294822
-0.025643105
-2.147309
-0.023170965
-2.2756163
-0.020081041
-2.4148031
-0.01671884
-2.5651385
-0.01328907
-2.7273675
-0.0098873164
-2.9028724
-0.0065618563
-3.0934152
-0.0032690636
-3.2990047
-0.48079289
-0.59415113
-0.46590788
-0.52380736
-0.45247636
-0.43884814
-0.45745753
-0.38881765
-0.48345459
-0.457539
-0.5274733
-0.52137556
-0.59653484
-0.48953875
-0.4047875
-0.47550292
-0.021475388
-0.45097646
0.33343669
-0.43555746
0.4731334
-0.43951334
0.44672894
-0.45920871
0.25208789
-0.48273969
-0.043108902
-0.4925725
-0.28881212
-0.48121678
-0.38392673
-0.4159983
-0.34143661
-0.4176065
-0.21169559
-0.41821209
-0.053395509
-0.43794065
0.067770082
-0.48369332
0.14639319
-0.54051337
0.19951998
-0.60564744
0.23489293
-0.68031848
0.2561863
-0.76630943
0.26323264
-0.86462627
0.2542446
-0.97385897
0.22814855
-1.0891989
0.18704369
-1.2033447
0.13718757
-1.3095071
0.087106846
-1.4045786
0.044062285
-1.48991
0.011734967
-1.5697049
-0.0097067928
-1.6489744
-0.0223445
-1.7316888
-0.028500239
-1.8207618
-0.030361781
-1.918223
-0.029555114
-2.0254637
-0.027202207
-2.143167
-0.024033298
-2.2714987
-0.020502772
-2.4107533
-0.016875831
-2.5611995
-0.013300232
-2.7235672
-0.0098318975
-2.8992287
-0.0064931149
-3.0898527
-0.0032219265
-3.2954889
-0.49580046
-0.57935754
-0.486324
-0.5717051
-0.47025258
-0.5035279
-0.45882911
-0.43473746
-0.46317833
-0.40665307
-0.48482875
-0.49797223
-0.52165
-0.55273773
-0.40676039
-0.48531812
-0.034263236
-0.46105028
0.32591199
-0.44212926
0.48001284
-0.4409398
0.46486109
-0.45622324
0.2734413
-0.47936223
-0.032374146
-0.49227001
-0.29407794
-0.48622251
-0.40725432
-0.45681548
-0.37397781
-0.38252224
-0.24487914
-0.38373119
-0.074725454
-0.39623229
0.065978633
-0.43545828
0.15269173
-0.48938587
0.20951917
-0.55002817
0.24864579
-0.61895707
0.27481203
-0.69852902
0.28828995
-0.79099194
0.286653
-0.8966836
0.26686966
-1.0122393
0.22835785
-1.1301986
0.1756372
-1.241529
0.11794567
-1.3401409
0.065164378
-1.4255367
0.023755762
-1.5018271
-0.0045784724
-1.5747467
-0.021868819
-1.6493662
-0.030773936
-1.7293242
-0.034078804
-1.8169453
-0.03389853
-1.9137828
-0.031694597
-2.0208835
-0.02841837
-2.1386779
-0.024659143
-2.2671668
-0.020766105
-2.4065803
-0.016929839
-2.5572169
-0.013246885
-2.7197914
-0.0097383029
-2.895655
-0.006404008
-3.0863961
-0.00316651
-3.2920882
-0.49445489
-0.40586028
-0.5024431
-0.56106533
-0.48945223
-0.55046528
-0.4729775
-0.48687637
-0.46230414
-0.43287292
-0.46519539
-0.42384683
-0.48326372
-0.5341449
-0.51423925
-0.57728996
-0.046683493
-0.47122623
0.31545113
-0.44925499
0.48153945
-0.44215137
0.47729134
-0.45193685
0.29141855
-0.47298269
-0.022585512
-0.48792487
-0.29830348
-0.48693172
-0.42829711
-0.46407452
-0.41014528
-0.41972078
-0.27528517
-0.35147545
-0.097728335
-0.36012848
0.062283514
-0.39188709
0.1603381
-0.4425374
0.21978253
-0.49920942
0.26155356
-0.56253322
0.29162893
-0.63539429
0.31109288
-0.72099775
0.31745549
-0.82149102
0.30614075
-0.93566335
0.27338604
-1.0569974
0.22053768
-1.1748681
0.15615352
-1.2795487
0.092590957
-1.3674306
0.040032218
-1.4417296
0.0027502
-1.5091029
-0.02049638
-1.5760741
-0.032990564
-1.6471012
-0.038180312
-1.7251608
-0.038810061
-1.8119587
-0.036793798
-1.9086086
-0.033373357
-2.015854
-0.029314954
-2.1339185
-0.025069183
-2.2626774
-0.020887246
-2.4023292
-0.016892702
-2.5532221
-0.013137201
-2.7160641
-0.009611815
-2.8921681
-0.0062975374
-3.083039
-0.0031041276
-3.2888155
-0.48091583
-0.0585449
-0.50355815
-0.40250499
-0.50671105
-0.54163554
-0.49110041
-0.53029838
-0.4737178
-0.47296118
-0.46300642
-0.4323238
-0.46470219
-0.43997384
-0.47981454
-0.5663561
-0.50545049
-0.59500915
0.30178128
-0.45621237
0.47783494
-0.44404351
0.48335671
-0.44677825
0.30465967
-0.46394644
-0.014581343
-0.4797449
-0.3016936
-0.4833979
-0.4473268
-0.46676961
-0.44240211
-0.43086021
-0.32231534
-0.37205823
-0.11997022
-0.32867637
0.056256575
-0.35349093
0.16875604
-0.39977383
0.23068447
-0.45303934
0.27374635
-0.51103549
0.30657803
-0.57713289
0.33119082
-0.6551927
0.34566126
-0.74894226
0.3446889
-0.8597925
0.32122102
-0.98326993
0.27207032
-1.1083359
0.20295153
-1.2215045
0.1279628
-1.3147901
0.061854337
-1.3891749
0.013138869
-1.4520894
-0.017858001
-1.5117302
-0.035129258
-1.5739244
-0.042786751
-1.6424741
-0.044465441
-1.7194676
-0.042683917
-1.8060133
-0.039070538
-1.9028518
-0.03462178
-2.0104823
-0.029919713
-2.128963
-0.025285522
-2.2580858
-0.020882576
-2.398041
-0.016775974
-2.5492543
-0.012978956
-2.7124007
-0.0094572745
-2.8887724
-0.0061764452
-3.0798008
-0.0030359562
-3.2856654
-0.46295092
0.28516738
-0.4897734
-0.07064556
-0.5109034
-0.39608014
-0.50941379
-0.52115926
-0.49114123
-0.51083448
-0.47252957
-0.46094001
-0.46152055
-0.43276806
-0.46262655
-0.45473595
-0.47503185
-0.59456315
-0.49545002
-0.60615383
0.46884482
-0.44571715
0.48209618
-0.44134478
0.31190824
-0.45278604
-0.0091379675
-0.46813717
-0.30451332
-0.47576906
-0.46375863
-0.46580965
-0.47118621
-0.4370033
-0.3661119
-0.38640363
-0.16982575
-0.32165475
0.048884319
-0.32073213
0.17680894
-0.36104705
0.24256923
-0.41129395
0.28537605
-0.46433367
0.31973936
-0.52387353
0.34837733
-0.59404952
0.37054482
-0.6798515
0.38131894
-0.78536458
0.37091088
-0.90929024
0.33051769
-1.0415543
0.26027565
-1.1655279
0.17392387
-1.2673527
0.091300108
-1.3441592
0.027554595
-1.4035714
-0.013657528
-1.4563062
-0.037154224
-1.5097279
-0.048053937
-1.568673
-0.051092654
-1.6358498
-0.049601191
-1.7125306
-0.045726506
-1.7993171
-0.040768518
-1.8966594
-0.035477275
-2.0048661
-0.030262798
-2.1238807
-0.025330683
-2.253441
-0.020768149
-2.3937625
-0.016590685
-2.5453328
-0.012779308
-2.7088221
-0.0092790823
-2.8854857
-0.0060432037
-3.0766741
-0.0029628836
-3.2826503
-0.44735656
0.45475031
-0.46827988
0.26502965
-0.49821775
-0.081640758
-0.51650245
-0.3867684
-0.51034288
-0.49980925
-0.48961099