/*--------------------------------*- C++ -*----------------------------------*\
| =========                 |                                                 |
| \\      /  F ield         | OpenFOAM: The Open Source CFD Toolbox           |
|  \\    /   O peration     | Version:  v2012                                 |
|   \\  /    A nd           | Website:  www.openfoam.com                      |
|    \\/     M anipulation  |                                                 |
\*---------------------------------------------------------------------------*/
FoamFile
{
    version     2.0;
    format      ascii;
    class       pointVectorField;
    location    "73.0024180641493672";
    object      pointDisplacement;
}
// * * * * * * * * * * * * * * * * * * * * * * * * * * * * * * * * * * * * * //

dimensions      [0 1 0 0 0 0 0];


internalField   nonuniform List<vector> 
18840
(
(1.9816314 0 0)
(1.9814833 0 0)
(1.9810432 0 0)
(1.9803184 0 0)
(1.9793146 0 0)
(1.9780357 0 0)
(1.9764844 0 0)
(1.9746623 0 0)
(1.9725699 0 0)
(1.9702068 0 0)
(1.967572 0 0)
(1.9646636 0 0)
(1.9614793 0 0)
(1.9580161 0 0)
(1.9542704 0 0)
(1.9502383 0 0)
(1.9459154 0 0)
(1.9412971 0 0)
(1.9363783 0 0)
(1.9311583 0 0)
(1.9245288 0 0)
(1.9816314 0 0)
(1.9814829 0 0)
(1.9810415 0 0)
(1.9803145 0 0)
(1.9793075 0 0)
(1.9780244 0 0)
(1.9764678 0 0)
(1.9746394 0 0)
(1.9725396 0 0)
(1.9701682 0 0)
(1.9675243 0 0)
(1.964606 0 0)
(1.9614111 0 0)
(1.9579368 0 0)
(1.9541797 0 0)
(1.950136 0 0)
(1.9458014 0 0)
(1.9411716 0 0)
(1.9362415 0 0)
(1.9310079 0 0)
(1.9254492 0 0)
(1.9816314 0 0)
(1.9814823 0 0)
(1.9810389 0 0)
(1.9803085 0 0)
(1.9792966 0 0)
(1.9780072 0 0)
(1.9764428 0 0)
(1.974605 0 0)
(1.9724946 0 0)
(1.9701111 0 0)
(1.9674538 0 0)
(1.9645209 0 0)
(1.9613103 0 0)
(1.9578194 0 0)
(1.9540447 0 0)
(1.9499828 0 0)
(1.9456295 0 0)
(1.9409803 0 0)
(1.9360304 0 0)
(1.9307744 0 0)
(1.9251135 0 0)
(1.9816314 0 0)
(1.9814816 0 0)
(1.9810364 0 0)
(1.9803027 0 0)
(1.9792861 0 0)
(1.9779905 0 0)
(1.9764184 0 0)
(1.9745714 0 0)
(1.9724501 0 0)
(1.9700544 0 0)
(1.9673834 0 0)
(1.9644355 0 0)
(1.9612087 0 0)
(1.9577002 0 0)
(1.9539072 0 0)
(1.9498259 0 0)
(1.9454526 0 0)
(1.9407829 0 0)
(1.9358121 0 0)
(1.930536 0 0)
(1.9247883 0 0)
(1.9816314 0 0)
(1.9814811 0 0)
(1.981034 0 0)
(1.9802972 0 0)
(1.979276 0 0)
(1.9779742 0 0)
(1.9763943 0 0)
(1.9745379 0 0)
(1.9724057 0 0)
(1.9699974 0 0)
(1.9673122 0 0)
(1.9643487 0 0)
(1.9611047 0 0)
(1.9575778 0 0)
(1.953765 0 0)
(1.9496629 0 0)
(1.9452678 0 0)
(1.9405756 0 0)
(1.935582 0 0)
(1.9302832 0 0)
(1.924453 0 0)
(1.9816314 0 0)
(1.9814805 0 0)
(1.9810317 0 0)
(1.9802918 0 0)
(1.9792661 0 0)
(1.9779581 0 0)
(1.9763705 0 0)
(1.9745046 0 0)
(1.972361 0 0)
(1.9699397 0 0)
(1.9672398 0 0)
(1.9642597 0 0)
(1.9609976 0 0)
(1.9574509 0 0)
(1.9536167 0 0)
(1.9494918 0 0)
(1.9450726 0 0)
(1.9403552 0 0)
(1.9353355 0 0)
(1.93001 0 0)
(1.9241008 0 0)
(1.9816314 0 0)
(1.98148 0 0)
(1.9810296 0 0)
(1.9802867 0 0)
(1.9792564 0 0)
(1.9779423 0 0)
(1.9763467 0 0)
(1.974471 0 0)
(1.9723159 0 0)
(1.969881 0 0)
(1.9671655 0 0)
(1.964168 0 0)
(1.9608864 0 0)
(1.9573184 0 0)
(1.953461 0 0)
(1.949311 0 0)
(1.9448649 0 0)
(1.940119 0 0)
(1.9350692 0 0)
(1.9297123 0 0)
(1.9237272 0 0)
(1.9816314 0 0)
(1.9814795 0 0)
(1.9810275 0 0)
(1.9802817 0 0)
(1.9792468 0 0)
(1.9779265 0 0)
(1.9763229 0 0)
(1.9744373 0 0)
(1.9722701 0 0)
(1.9698211 0 0)
(1.9670894 0 0)
(1.9640733 0 0)
(1.960771 0 0)
(1.9571798 0 0)
(1.9532971 0 0)
(1.9491195 0 0)
(1.9446434 0 0)
(1.9398653 0 0)
(1.9347811 0 0)
(1.9293874 0 0)
(1.9233295 0 0)
(1.9816314 0 0)
(1.9814791 0 0)
(1.9810255 0 0)
(1.9802767 0 0)
(1.9792374 0 0)
(1.9779108 0 0)
(1.976299 0 0)
(1.9744031 0 0)
(1.9722236 0 0)
(1.96976 0 0)
(1.9670111 0 0)
(1.9639755 0 0)
(1.960651 0 0)
(1.9570351 0 0)
(1.9531248 0 0)
(1.9489169 0 0)
(1.9444078 0 0)
(1.9395936 0 0)
(1.9344705 0 0)
(1.9290345 0 0)
(1.9229072 0 0)
(1.9816314 0 0)
(1.9814786 0 0)
(1.9810235 0 0)
(1.9802719 0 0)
(1.979228 0 0)
(1.9778951 0 0)
(1.976275 0 0)
(1.9743687 0 0)
(1.9721764 0 0)
(1.9696976 0 0)
(1.9669309 0 0)
(1.9638747 0 0)
(1.9605268 0 0)
(1.9568844 0 0)
(1.9529444 0 0)
(1.9487036 0 0)
(1.9441582 0 0)
(1.9393042 0 0)
(1.9341375 0 0)
(1.928654 0 0)
(1.922461 0 0)
(1.9816314 0 0)
(1.9814779 0 0)
(1.9810204 0 0)
(1.9802645 0 0)
(1.9792143 0 0)
(1.9778726 0 0)
(1.9762412 0 0)
(1.9743211 0 0)
(1.9721121 0 0)
(1.9696135 0 0)
(1.966824 0 0)
(1.9637415 0 0)
(1.9603637 0 0)
(1.9566878 0 0)
(1.9527105 0 0)
(1.9484281 0 0)
(1.943837 0 0)
(1.9389328 0 0)
(1.9337114 0 0)
(1.9281679 0 0)
(1.9219081 0 0)
(1.9816314 0 0)
(1.9814833 0 0)
(1.9810432 0 0)
(1.9803184 0 0)
(1.9793146 0 0)
(1.9780357 0 0)
(1.9764844 0 0)
(1.9746623 0 0)
(1.9725699 0 0)
(1.9702068 0 0)
(1.967572 0 0)
(1.9646636 0 0)
(1.9614793 0 0)
(1.9580161 0 0)
(1.9542704 0 0)
(1.9502383 0 0)
(1.9459154 0 0)
(1.9412971 0 0)
(1.9363783 0 0)
(1.9311583 0 0)
(1.9245288 0 0)
(1.9816314 0 0)
(1.9814829 0 0)
(1.9810415 0 0)
(1.9803145 0 0)
(1.9793075 0 0)
(1.9780244 0 0)
(1.9764678 0 0)
(1.9746394 0 0)
(1.9725396 0 0)
(1.9701682 0 0)
(1.9675243 0 0)
(1.964606 0 0)
(1.9614111 0 0)
(1.9579368 0 0)
(1.9541797 0 0)
(1.950136 0 0)
(1.9458014 0 0)
(1.9411716 0 0)
(1.9362415 0 0)
(1.9310079 0 0)
(1.9254492 0 0)
(1.9816314 0 0)
(1.9814823 0 0)
(1.9810389 0 0)
(1.9803085 0 0)
(1.9792966 0 0)
(1.9780072 0 0)
(1.9764428 0 0)
(1.974605 0 0)
(1.9724946 0 0)
(1.9701111 0 0)
(1.9674538 0 0)
(1.9645209 0 0)
(1.9613103 0 0)
(1.9578194 0 0)
(1.9540447 0 0)
(1.9499828 0 0)
(1.9456295 0 0)
(1.9409803 0 0)
(1.9360304 0 0)
(1.9307744 0 0)
(1.9251135 0 0)
(1.9816314 0 0)
(1.9814816 0 0)
(1.9810364 0 0)
(1.9803027 0 0)
(1.9792861 0 0)
(1.9779905 0 0)
(1.9764184 0 0)
(1.9745714 0 0)
(1.9724501 0 0)
(1.9700544 0 0)
(1.9673834 0 0)
(1.9644355 0 0)
(1.9612087 0 0)
(1.9577002 0 0)
(1.9539072 0 0)
(1.9498259 0 0)
(1.9454526 0 0)
(1.9407829 0 0)
(1.9358121 0 0)
(1.930536 0 0)
(1.9247883 0 0)
(1.9816314 0 0)
(1.9814811 0 0)
(1.981034 0 0)
(1.9802972 0 0)
(1.979276 0 0)
(1.9779742 0 0)
(1.9763943 0 0)
(1.9745379 0 0)
(1.9724057 0 0)
(1.9699974 0 0)
(1.9673122 0 0)
(1.9643487 0 0)
(1.9611047 0 0)
(1.9575778 0 0)
(1.953765 0 0)
(1.9496629 0 0)
(1.9452678 0 0)
(1.9405756 0 0)
(1.935582 0 0)
(1.9302832 0 0)
(1.924453 0 0)
(1.9816314 0 0)
(1.9814805 0 0)
(1.9810317 0 0)
(1.9802918 0 0)
(1.9792661 0 0)
(1.9779581 0 0)
(1.9763705 0 0)
(1.9745046 0 0)
(1.972361 0 0)
(1.9699397 0 0)
(1.9672398 0 0)
(1.9642597 0 0)
(1.9609976 0 0)
(1.9574509 0 0)
(1.9536167 0 0)
(1.9494918 0 0)
(1.9450726 0 0)
(1.9403552 0 0)
(1.9353355 0 0)
(1.93001 0 0)
(1.9241008 0 0)
(1.9816314 0 0)
(1.98148 0 0)
(1.9810296 0 0)
(1.9802867 0 0)
(1.9792564 0 0)
(1.9779423 0 0)
(1.9763467 0 0)
(1.974471 0 0)
(1.9723159 0 0)
(1.969881 0 0)
(1.9671655 0 0)
(1.964168 0 0)
(1.9608864 0 0)
(1.9573184 0 0)
(1.953461 0 0)
(1.949311 0 0)
(1.9448649 0 0)
(1.940119 0 0)
(1.9350692 0 0)
(1.9297123 0 0)
(1.9237272 0 0)
(1.9816314 0 0)
(1.9814795 0 0)
(1.9810275 0 0)
(1.9802817 0 0)
(1.9792468 0 0)
(1.9779265 0 0)
(1.9763229 0 0)
(1.9744373 0 0)
(1.9722701 0 0)
(1.9698211 0 0)
(1.9670894 0 0)
(1.9640733 0 0)
(1.960771 0 0)
(1.9571798 0 0)
(1.9532971 0 0)
(1.9491195 0 0)
(1.9446434 0 0)
(1.9398653 0 0)
(1.9347811 0 0)
(1.9293874 0 0)
(1.9233295 0 0)
(1.9816314 0 0)
(1.9814791 0 0)
(1.9810255 0 0)
(1.9802767 0 0)
(1.9792374 0 0)
(1.9779108 0 0)
(1.976299 0 0)
(1.9744031 0 0)
(1.9722236 0 0)
(1.96976 0 0)
(1.9670111 0 0)
(1.9639755 0 0)
(1.960651 0 0)
(1.9570351 0 0)
(1.9531248 0 0)
(1.9489169 0 0)
(1.9444078 0 0)
(1.9395936 0 0)
(1.9344705 0 0)
(1.9290345 0 0)
(1.9229072 0 0)
(1.9816314 0 0)
(1.9814786 0 0)
(1.9810235 0 0)
(1.9802719 0 0)
(1.979228 0 0)
(1.9778951 0 0)
(1.976275 0 0)
(1.9743687 0 0)
(1.9721764 0 0)
(1.9696976 0 0)
(1.9669309 0 0)
(1.9638747 0 0)
(1.9605268 0 0)
(1.9568844 0 0)
(1.9529444 0 0)
(1.9487036 0 0)
(1.9441582 0 0)
(1.9393042 0 0)
(1.9341375 0 0)
(1.928654 0 0)
(1.922461 0 0)
(1.9816314 0 0)
(1.9814779 0 0)
(1.9810204 0 0)
(1.9802645 0 0)
(1.9792143 0 0)
(1.9778726 0 0)
(1.9762412 0 0)
(1.9743211 0 0)
(1.9721121 0 0)
(1.9696135 0 0)
(1.966824 0 0)
(1.9637415 0 0)
(1.9603637 0 0)
(1.9566878 0 0)
(1.9527105 0 0)
(1.9484281 0 0)
(1.943837 0 0)
(1.9389328 0 0)
(1.9337114 0 0)
(1.9281679 0 0)
(1.9219081 0 0)
(1.9816314 0 0)
(1.9814832 0 0)
(1.9810431 0 0)
(1.9803192 0 0)
(1.9793173 0 0)
(1.9780417 0 0)
(1.9764953 0 0)
(1.9746793 0 0)
(1.9725941 0 0)
(1.970239 0 0)
(1.9676123 0 0)
(1.9647117 0 0)
(1.961534 0 0)
(1.9580753 0 0)
(1.954331 0 0)
(1.950296 0 0)
(1.9459645 0 0)
(1.9413299 0 0)
(1.9363852 0 0)
(1.9311275 0 0)
(1.9250675 0 0)
(1.9816314 0 0)
(1.981483 0 0)
(1.9810424 0 0)
(1.9803177 0 0)
(1.9793147 0 0)
(1.9780378 0 0)
(1.9764898 0 0)
(1.974672 0 0)
(1.9725848 0 0)
(1.9702274 0 0)
(1.9675984 0 0)
(1.9646951 0 0)
(1.9615146 0 0)
(1.9580529 0 0)
(1.9543055 0 0)
(1.9502671 0 0)
(1.945932 0 0)
(1.9412936 0 0)
(1.9363449 0 0)
(1.9310829 0 0)
(1.9250239 0 0)
(1.9816314 0 0)
(1.9814827 0 0)
(1.981041 0 0)
(1.9803146 0 0)
(1.9793094 0 0)
(1.9780298 0 0)
(1.9764785 0 0)
(1.974657 0 0)
(1.9725655 0 0)
(1.9702036 0 0)
(1.9675695 0 0)
(1.964661 0 0)
(1.9614748 0 0)
(1.9580071 0 0)
(1.9542535 0 0)
(1.9502087 0 0)
(1.9458668 0 0)
(1.9412216 0 0)
(1.9362659 0 0)
(1.9309966 0 0)
(1.9249481 0 0)
(1.9816314 0 0)
(1.9814824 0 0)
(1.9810401 0 0)
(1.9803125 0 0)
(1.9793058 0 0)
(1.9780243 0 0)
(1.9764707 0 0)
(1.9746465 0 0)
(1.9725521 0 0)
(1.970187 0 0)
(1.9675495 0 0)
(1.9646373 0 0)
(1.9614474 0 0)
(1.9579759 0 0)
(1.9542184 0 0)
(1.9501697 0 0)
(1.9458242 0 0)
(1.9411753 0 0)
(1.9362162 0 0)
(1.9309436 0 0)
(1.9249199 0 0)
(1.9816314 0 0)
(1.9814823 0 0)
(1.9810396 0 0)
(1.9803114 0 0)
(1.9793038 0 0)
(1.9780211 0 0)
(1.9764662 0 0)
(1.9746404 0 0)
(1.9725443 0 0)
(1.9701772 0 0)
(1.9675378 0 0)
(1.9646236 0 0)
(1.9614317 0 0)
(1.9579583 0 0)
(1.9541991 0 0)
(1.9501489 0 0)
(1.9458022 0 0)
(1.9411527 0 0)
(1.9361935 0 0)
(1.930921 0 0)
(1.924936 0 0)
(1.9816314 0 0)
(1.9814823 0 0)
(1.9810395 0 0)
(1.9803111 0 0)
(1.9793033 0 0)
(1.9780202 0 0)
(1.9764647 0 0)
(1.9746383 0 0)
(1.9725415 0 0)
(1.9701737 0 0)
(1.9675335 0 0)
(1.9646188 0 0)
(1.9614264 0 0)
(1.9579528 0 0)
(1.9541937 0 0)
(1.9501442 0 0)
(1.9457986 0 0)
(1.9411509 0 0)
(1.9361944 0 0)
(1.9309251 0 0)
(1.9249921 0 0)
(1.9816314 0 0)
(1.9814824 0 0)
(1.9810398 0 0)
(1.9803117 0 0)
(1.9793041 0 0)
(1.9780213 0 0)
(1.976466 0 0)
(1.9746398 0 0)
(1.9725432 0 0)
(1.9701757 0 0)
(1.9675359 0 0)
(1.9646216 0 0)
(1.9614301 0 0)
(1.9579577 0 0)
(1.9542003 0 0)
(1.9501531 0 0)
(1.9458106 0 0)
(1.941167 0 0)
(1.9362156 0 0)
(1.930952 0 0)
(1.9250832 0 0)
(1.9816314 0 0)
(1.9814825 0 0)
(1.9810404 0 0)
(1.980313 0 0)
(1.9793062 0 0)
(1.9780242 0 0)
(1.9764698 0 0)
(1.9746445 0 0)
(1.9725489 0 0)
(1.9701825 0 0)
(1.9675439 0 0)
(1.9646313 0 0)
(1.9614417 0 0)
(1.9579717 0 0)
(1.9542173 0 0)
(1.9501739 0 0)
(1.9458362 0 0)
(1.9411985 0 0)
(1.9362543 0 0)
(1.9309986 0 0)
(1.9252057 0 0)
(1.9816314 0 0)
(1.9814828 0 0)
(1.9810414 0 0)
(1.980315 0 0)
(1.9793094 0 0)
(1.9780288 0 0)
(1.9764758 0 0)
(1.9746521 0 0)
(1.9725581 0 0)
(1.9701935 0 0)
(1.967557 0 0)
(1.9646467 0 0)
(1.9614599 0 0)
(1.9579933 0 0)
(1.954243 0 0)
(1.9502046 0 0)
(1.9458731 0 0)
(1.9412429 0 0)
(1.9363079 0 0)
(1.9310626 0 0)
(1.9253567 0 0)
(1.9816314 0 0)
(1.9814832 0 0)
(1.9810427 0 0)
(1.9803176 0 0)
(1.9793137 0 0)
(1.9780348 0 0)
(1.9764838 0 0)
(1.9746621 0 0)
(1.9725703 0 0)
(1.9702081 0 0)
(1.9675743 0 0)
(1.9646669 0 0)
(1.9614835 0 0)
(1.9580209 0 0)
(1.9542753 0 0)
(1.9502427 0 0)
(1.9459184 0 0)
(1.9412971 0 0)
(1.9363734 0 0)
(1.9311436 0 0)
(1.9255456 0 0)
(1.9816314 0 0)
(1.9814832 0 0)
(1.9810431 0 0)
(1.9803192 0 0)
(1.9793173 0 0)
(1.9780417 0 0)
(1.9764953 0 0)
(1.9746793 0 0)
(1.9725941 0 0)
(1.970239 0 0)
(1.9676123 0 0)
(1.9647117 0 0)
(1.961534 0 0)
(1.9580753 0 0)
(1.954331 0 0)
(1.950296 0 0)
(1.9459645 0 0)
(1.9413299 0 0)
(1.9363852 0 0)
(1.9311275 0 0)
(1.9250675 0 0)
(1.9816314 0 0)
(1.981483 0 0)
(1.9810424 0 0)
(1.9803177 0 0)
(1.9793147 0 0)
(1.9780378 0 0)
(1.9764898 0 0)
(1.974672 0 0)
(1.9725848 0 0)
(1.9702274 0 0)
(1.9675984 0 0)
(1.9646951 0 0)
(1.9615146 0 0)
(1.9580529 0 0)
(1.9543055 0 0)
(1.9502671 0 0)
(1.945932 0 0)
(1.9412936 0 0)
(1.9363449 0 0)
(1.9310829 0 0)
(1.9250239 0 0)
(1.9816314 0 0)
(1.9814827 0 0)
(1.981041 0 0)
(1.9803146 0 0)
(1.9793094 0 0)
(1.9780298 0 0)
(1.9764785 0 0)
(1.974657 0 0)
(1.9725655 0 0)
(1.9702036 0 0)
(1.9675695 0 0)
(1.964661 0 0)
(1.9614748 0 0)
(1.9580071 0 0)
(1.9542535 0 0)
(1.9502087 0 0)
(1.9458668 0 0)
(1.9412216 0 0)
(1.9362659 0 0)
(1.9309966 0 0)
(1.9249481 0 0)
(1.9816314 0 0)
(1.9814824 0 0)
(1.9810401 0 0)
(1.9803125 0 0)
(1.9793058 0 0)
(1.9780243 0 0)
(1.9764707 0 0)
(1.9746465 0 0)
(1.9725521 0 0)
(1.970187 0 0)
(1.9675495 0 0)
(1.9646373 0 0)
(1.9614474 0 0)
(1.9579759 0 0)
(1.9542184 0 0)
(1.9501697 0 0)
(1.9458242 0 0)
(1.9411753 0 0)
(1.9362162 0 0)
(1.9309436 0 0)
(1.9249199 0 0)
(1.9816314 0 0)
(1.9814823 0 0)
(1.9810396 0 0)
(1.9803114 0 0)
(1.9793038 0 0)
(1.9780211 0 0)
(1.9764662 0 0)
(1.9746404 0 0)
(1.9725443 0 0)
(1.9701772 0 0)
(1.9675378 0 0)
(1.9646236 0 0)
(1.9614317 0 0)
(1.9579583 0 0)
(1.9541991 0 0)
(1.9501489 0 0)
(1.9458022 0 0)
(1.9411527 0 0)
(1.9361935 0 0)
(1.930921 0 0)
(1.924936 0 0)
(1.9816314 0 0)
(1.9814823 0 0)
(1.9810395 0 0)
(1.9803111 0 0)
(1.9793033 0 0)
(1.9780202 0 0)
(1.9764647 0 0)
(1.9746383 0 0)
(1.9725415 0 0)
(1.9701737 0 0)
(1.9675335 0 0)
(1.9646188 0 0)
(1.9614264 0 0)
(1.9579528 0 0)
(1.9541937 0 0)
(1.9501442 0 0)
(1.9457986 0 0)
(1.9411509 0 0)
(1.9361944 0 0)
(1.9309251 0 0)
(1.9249921 0 0)
(1.9816314 0 0)
(1.9814824 0 0)
(1.9810398 0 0)
(1.9803117 0 0)
(1.9793041 0 0)
(1.9780213 0 0)
(1.976466 0 0)
(1.9746398 0 0)
(1.9725432 0 0)
(1.9701757 0 0)
(1.9675359 0 0)
(1.9646216 0 0)
(1.9614301 0 0)
(1.9579577 0 0)
(1.9542003 0 0)
(1.9501531 0 0)
(1.9458106 0 0)
(1.941167 0 0)
(1.9362156 0 0)
(1.930952 0 0)
(1.9250832 0 0)
(1.9816314 0 0)
(1.9814825 0 0)
(1.9810404 0 0)
(1.980313 0 0)
(1.9793062 0 0)
(1.9780242 0 0)
(1.9764698 0 0)
(1.9746445 0 0)
(1.9725489 0 0)
(1.9701825 0 0)
(1.9675439 0 0)
(1.9646313 0 0)
(1.9614417 0 0)
(1.9579717 0 0)
(1.9542173 0 0)
(1.9501739 0 0)
(1.9458362 0 0)
(1.9411985 0 0)
(1.9362543 0 0)
(1.9309986 0 0)
(1.9252057 0 0)
(1.9816314 0 0)
(1.9814828 0 0)
(1.9810414 0 0)
(1.980315 0 0)
(1.9793094 0 0)
(1.9780288 0 0)
(1.9764758 0 0)
(1.9746521 0 0)
(1.9725581 0 0)
(1.9701935 0 0)
(1.967557 0 0)
(1.9646467 0 0)
(1.9614599 0 0)
(1.9579933 0 0)
(1.954243 0 0)
(1.9502046 0 0)
(1.9458731 0 0)
(1.9412429 0 0)
(1.9363079 0 0)
(1.9310626 0 0)
(1.9253567 0 0)
(1.9816314 0 0)
(1.9814832 0 0)
(1.9810427 0 0)
(1.9803176 0 0)
(1.9793137 0 0)
(1.9780348 0 0)
(1.9764838 0 0)
(1.9746621 0 0)
(1.9725703 0 0)
(1.9702081 0 0)
(1.9675743 0 0)
(1.9646669 0 0)
(1.9614835 0 0)
(1.9580209 0 0)
(1.9542753 0 0)
(1.9502427 0 0)
(1.9459184 0 0)
(1.9412971 0 0)
(1.9363734 0 0)
(1.9311436 0 0)
(1.9255456 0 0)
(1.9175701 0 0)
(1.9090733 0 0)
(1.9000516 0 0)
(1.8904898 0 0)
(1.8803767 0 0)
(1.8696998 0 0)
(1.8584453 0 0)
(1.8465981 0 0)
(1.8341399 0 0)
(1.8210489 0 0)
(1.8073001 0 0)
(1.7928674 0 0)
(1.7777233 0 0)
(1.7618381 0 0)
(1.7451794 0 0)
(1.7277123 0 0)
(1.7093986 0 0)
(1.6901956 0 0)
(1.6700566 0 0)
(1.6489313 0 0)
(1.6267642 0 0)
(1.603498 0 0)
(1.5790717 0 0)
(1.553418 0 0)
(1.5264605 0 0)
(1.4981156 0 0)
(1.4682951 0 0)
(1.4369041 0 0)
(1.4038364 0 0)
(1.3689776 0 0)
(1.3322091 0 0)
(1.2933998 0 0)
(1.2523999 0 0)
(1.209052 0 0)
(1.1631966 0 0)
(1.1146481 0 0)
(1.0631976 0 0)
(1.0086405 0 0)
(0.95075072 0 0)
(0.88928107 0 0)
(0.82394781 0 0)
(0.75441798 0 0)
(0.68035546 0 0)
(0.60141644 0 0)
(0.51719378 0 0)
(0.42723034 0 0)
(0.33105707 0 0)
(0.22815144 0 0)
(0.1178879 0 0)
(0 0 0)
(1.9175401 0 0)
(1.9090627 0 0)
(1.9000591 0 0)
(1.8905141 0 0)
(1.8804167 0 0)
(1.8697544 0 0)
(1.8585135 0 0)
(1.8466789 0 0)
(1.8342326 0 0)
(1.8211522 0 0)
(1.8074129 0 0)
(1.7929888 0 0)
(1.7778523 0 0)
(1.7619739 0 0)
(1.7453214 0 0)
(1.7278598 0 0)
(1.7095511 0 0)
(1.6903526 0 0)
(1.6702177 0 0)
(1.6490958 0 0)
(1.6269318 0 0)
(1.6036682 0 0)
(1.5792442 0 0)
(1.5535923 0 0)
(1.5266362 0 0)
(1.4982922 0 0)
(1.4684721 0 0)
(1.4370811 0 0)
(1.4040132 0 0)
(1.3691538 0 0)
(1.332384 0 0)
(1.2935732 0 0)
(1.2525716 0 0)
(1.2092214 0 0)
(1.163363 0 0)
(1.1148111 0 0)
(1.063356 0 0)
(1.0087935 0 0)
(0.95089753 0 0)
(0.88942047 0 0)
(0.8240791 0 0)
(0.75454037 0 0)
(0.68046782 0 0)
(0.60151807 0 0)
(0.51728326 0 0)
(0.42730532 0 0)
(0.33111591 0 0)
(0.22819262 0 0)
(0.1179095 0 0)
(0 0 0)
(1.9175105 0 0)
(1.9090948 0 0)
(1.9001498 0 0)
(1.8906601 0 0)
(1.8806146 0 0)
(1.870001 0 0)
(1.8588059 0 0)
(1.8470143 0 0)
(1.834608 0 0)
(1.8215645 0 0)
(1.8078595 0 0)
(1.793467 0 0)
(1.7783598 0 0)
(1.7625082 0 0)
(1.7458805 0 0)
(1.7284418 0 0)
(1.7101541 0 0)
(1.6909747 0 0)
(1.6708571 0 0)
(1.6497507 0 0)
(1.6276004 0 0)
(1.6043491 0 0)
(1.5799357 0 0)
(1.5542928 0 0)
(1.5273443 0 0)
(1.4990062 0 0)
(1.4691904 0 0)
(1.437802 0 0)
(1.4047353 0 0)
(1.3698752 0 0)
(1.3331028 0 0)
(1.2942875 0 0)
(1.2532795 0 0)
(1.2099206 0 0)
(1.1640513 0 0)
(1.1154856 0 0)
(1.0640133 0 0)
(1.0094305 0 0)
(0.95151039 0 0)
(0.89000512 0 0)
(0.82463167 0 0)
(0.75505643 0 0)
(0.68094241 0 0)
(0.6019463 0 0)
(0.51765914 0 0)
(0.42762139 0 0)
(0.33136489 0 0)
(0.22836708 0 0)
(0.11800087 0 0)
(0 0 0)
(1.9175632 0 0)
(1.9092526 0 0)
(1.9004074 0 0)
(1.891012 0 0)
(1.8810553 0 0)
(1.870525 0 0)
(1.8594079 0 0)
(1.8476893 0 0)
(1.8353506 0 0)
(1.8223699 0 0)
(1.8087233 0 0)
(1.7943852 0 0)
(1.779328 0 0)
(1.7635226 0 0)
(1.7469375 0 0)
(1.7295381 0 0)
(1.7112863 0 0)
(1.6921396 0 0)
(1.6720515 0 0)
(1.6509712 0 0)
(1.628844 0 0)
(1.605613 0 0)
(1.581217 0 0)
(1.5555887 0 0)
(1.5286521 0 0)
(1.5003232 0 0)
(1.4705136 0 0)
(1.4391286 0 0)
(1.4060623 0 0)
(1.3711994 0 0)
(1.3344209 0 0)
(1.2955958 0 0)
(1.2545745 0 0)
(1.2111983 0 0)
(1.1653071 0 0)
(1.116715 0 0)
(1.0652102 0 0)
(1.0105893 0 0)
(0.95262453 0 0)
(0.8910675 0 0)
(0.82563499 0 0)
(0.75599257 0 0)
(0.6818025 0 0)
(0.60272123 0 0)
(0.51833822 0 0)
(0.42819198 0 0)
(0.33181425 0 0)
(0.22868171 0 0)
(0.11816535 0 0)
(0 0 0)
(1.9176941 0 0)
(1.9095315 0 0)
(1.9008268 0 0)
(1.8915644 0 0)
(1.8817329 0 0)
(1.8713201 0 0)
(1.860313 0 0)
(1.8486969 0 0)
(1.8364533 0 0)
(1.8235612 0 0)
(1.8099972 0 0)
(1.7957359 0 0)
(1.7807496 0 0)
(1.7650096 0 0)
(1.7484848 0 0)
(1.7311408 0 0)
(1.7129395 0 0)
(1.6938389 0 0)
(1.6737922 0 0)
(1.6527486 0 0)
(1.6306537 0 0)
(1.6074507 0 0)
(1.5830787 0 0)
(1.5574704 0 0)
(1.53055 0 0)
(1.5022334 0 0)
(1.4724319 0 0)
(1.4410507 0 0)
(1.4079841 0 0)
(1.3731163 0 0)
(1.336328 0 0)
(1.2974881 0 0)
(1.2564465 0 0)
(1.2130442 0 0)
(1.1671207 0 0)
(1.1184894 0 0)
(1.0669373 0 0)
(1.0122608 0 0)
(0.9542311 0 0)
(0.89259907 0 0)
(0.82708105 0 0)
(0.7573413 0 0)
(0.68304133 0 0)
(0.60383664 0 0)
(0.51931501 0 0)
(0.42901265 0 0)
(0.33246039 0 0)
(0.22913383 0 0)
(0.11840164 0 0)
(0 0 0)
(1.9178979 0 0)
(1.9099252 0 0)
(1.9014011 0 0)
(1.8923098 0 0)
(1.8826395 0 0)
(1.8723781 0 0)
(1.8615127 0 0)
(1.8500285 0 0)
(1.8379074 0 0)
(1.8251294 0 0)
(1.8116723 0 0)
(1.7975106 0 0)
(1.7826158 0 0)
(1.76696 0 0)
(1.7505129 0 0)
(1.73324 0 0)
(1.7151037 0 0)
(1.6960622 0 0)
(1.6760688 0 0)
(1.6550721 0 0)
(1.6330182 0 0)
(1.6098507 0 0)
(1.585509 0 0)
(1.5599259 0 0)
(1.5330255 0 0)
(1.504724 0 0)
(1.4749323 0 0)
(1.4435555 0 0)
(1.4104875 0 0)
(1.3756126 0 0)
(1.3388109 0 0)
(1.2999509 0 0)
(1.2588821 0 0)
(1.2154451 0 0)
(1.169479 0 0)
(1.120796 0 0)
(1.0691819 0 0)
(1.0144327 0 0)
(0.95631832 0 0)
(0.89458868 0 0)
(0.82895912 0 0)
(0.75909261 0 0)
(0.68464964 0 0)
(0.60528431 0 0)
(0.52058224 0 0)
(0.43007724 0 0)
(0.33329842 0 0)
(0.22972014 0 0)
(0.11870795 0 0)
(0 0 0)
(1.9181688 0 0)
(1.9104265 0 0)
(1.9021222 0 0)
(1.893239 0 0)
(1.8837651 0 0)
(1.8736885 0 0)
(1.8629966 0 0)
(1.8516737 0 0)
(1.839702 0 0)
(1.827063 0 0)
(1.8137372 0 0)
(1.7996982 0 0)
(1.7849156 0 0)
(1.7693623 0 0)
(1.7530097 0 0)
(1.7358235 0 0)
(1.7177661 0 0)
(1.6987966 0 0)
(1.6788678 0 0)
(1.6579279 0 0)
(1.6359234 0 0)
(1.6127987 0 0)
(1.5884928 0 0)
(1.5629395 0 0)
(1.5360629 0 0)
(1.5077789 0 0)
(1.4779983 0 0)
(1.446626 0 0)
(1.4135556 0 0)
(1.3786711 0 0)
(1.3418522 0 0)
(1.3029671 0 0)
(1.2618643 0 0)
(1.2183839 0 0)
(1.1723649 0 0)
(1.1236182 0 0)
(1.0719279 0 0)
(1.0170893 0 0)
(0.95887094 0 0)
(0.89702158 0 0)
(0.83125544 0 0)
(0.76123356 0 0)
(0.68661546 0 0)
(0.60705338 0 0)
(0.52213054 0 0)
(0.4313778 0 0)
(0.33432208 0 0)
(0.23043613 0 0)
(0.11908184 0 0)
(0 0 0)
(1.9185014 0 0)
(1.9110289 0 0)
(1.902982 0 0)
(1.8943428 0 0)
(1.8850992 0 0)
(1.8752398 0 0)
(1.8647527 0 0)
(1.8536213 0 0)
(1.8418253 0 0)
(1.8293497 0 0)
(1.8161807 0 0)
(1.8022881 0 0)
(1.7876363 0 0)
(1.7722026 0 0)
(1.755961 0 0)
(1.7388763 0 0)
(1.7209113 0 0)
(1.702026 0 0)
(1.6821732 0 0)
(1.6612994 0 0)
(1.6393523 0 0)
(1.6162769 0 0)
(1.5920122 0 0)
(1.5664925 0 0)
(1.5396428 0 0)
(1.5113784 0 0)
(1.4816099 0 0)
(1.4502421 0 0)
(1.417168 0 0)
(1.3822712 0 0)
(1.3454313 0 0)
(1.3065158 0 0)
(1.2653722 0 0)
(1.2218401 0 0)
(1.1757581 0 0)
(1.1269359 0 0)
(1.0751555 0 0)
(1.0202114 0 0)
(0.96187046 0 0)
(0.89988022 0 0)
(0.83395314 0 0)
(0.76374839 0 0)
(0.68892437 0 0)
(0.60913097 0 0)
(0.52394847 0 0)
(0.4329047 0 0)
(0.33552381 0 0)
(0.2312765 0 0)
(0.11952048 0 0)
(0 0 0)
(1.9188912 0 0)
(1.9117259 0 0)
(1.9039727 0 0)
(1.8956121 0 0)
(1.8866309 0 0)
(1.8770207 0 0)
(1.8667715 0 0)
(1.8558631 0 0)
(1.8442726 0 0)
(1.8319863 0 0)
(1.8189924 0 0)
(1.8052626 0 0)
(1.7907623 0 0)
(1.7754675 0 0)
(1.7593533 0 0)
(1.7423848 0 0)
(1.7245241 0 0)
(1.7057343 0 0)
(1.6859677 0 0)
(1.6651674 0 0)
(1.6432845 0 0)
(1.620265 0 0)
(1.5960458 0 0)
(1.570563 0 0)
(1.5437428 0 0)
(1.5154996 0 0)
(1.4857439 0 0)
(1.4543799 0 0)
(1.4213006 0 0)
(1.3863887 0 0)
(1.3495238 0 0)
(1.3105726 0 0)
(1.2693815 0 0)
(1.2257893 0 0)
(1.1796346 0 0)
(1.1307255 0 0)
(1.0788418 0 0)
(1.0237766 0 0)
(0.96529527 0 0)
(0.90314376 0 0)
(0.83703267 0 0)
(0.76661876 0 0)
(0.69155935 0 0)
(0.61150165 0 0)
(0.52602275 0 0)
(0.43464677 0 0)
(0.33689465 0 0)
(0.23223484 0 0)
(0.12002055 0 0)
(0 0 0)
(1.9193552 0 0)
(1.9125357 0 0)
(1.905113 0 0)
(1.8970652 0 0)
(1.8883818 0 0)
(1.8790569 0 0)
(1.8690767 0 0)
(1.8584192 0 0)
(1.8470627 0 0)
(1.8349897 0 0)
(1.8221878 0 0)
(1.8086387 0 0)
(1.7943107 0 0)
(1.7791736 0 0)
(1.7632025 0 0)
(1.7463629 0 0)
(1.7286154 0 0)
(1.7099272 0 0)
(1.6902528 0 0)
(1.6695345 0 0)
(1.6477246 0 0)
(1.624766 0 0)
(1.6005942 0 0)
(1.5751497 0 0)
(1.54836 0 0)
(1.5201383 0 0)
(1.4903947 0 0)
(1.4590332 0 0)
(1.4259458 0 0)
(1.3910149 0 0)
(1.3541201 0 0)
(1.3151271 0 0)
(1.273881 0 0)
(1.2302196 0 0)
(1.1839817 0 0)
(1.1349739 0 0)
(1.0829732 0 0)
(1.0277713 0 0)
(0.96913173 0 0)
(0.90679876 0 0)
(0.84048069 0 0)
(0.76983181 0 0)
(0.6945082 0 0)
(0.61415418 0 0)
(0.5283431 0 0)
(0.43659504 0 0)
(0.3384274 0 0)
(0.23330605 0 0)
(0.12057916 0 0)
(0 0 0)
(1.9183372 0 0)
(1.9118456 0 0)
(1.9047409 0 0)
(1.8970016 0 0)
(1.888621 0 0)
(1.8795877 0 0)
(1.8698815 0 0)
(1.8594853 0 0)
(1.8483778 0 0)
(1.8365368 0 0)
(1.8239508 0 0)
(1.8106056 0 0)
(1.7964709 0 0)
(1.7815144 0 0)
(1.7657106 0 0)
(1.7490251 0 0)
(1.7314198 0 0)
(1.712863 0 0)
(1.6933113 0 0)
(1.6727091 0 0)
(1.6510049 0 0)
(1.628138 0 0)
(1.6040482 0 0)
(1.5786791 0 0)
(1.5519567 0 0)
(1.523794 0 0)
(1.4941007 0 0)
(1.4627808 0 0)
(1.4297254 0 0)
(1.3948164 0 0)
(1.3579331 0 0)
(1.3189409 0 0)
(1.2776831 0 0)
(1.2339967 0 0)
(1.18772 0 0)
(1.1386585 0 0)
(1.0865866 0 0)
(1.0312941 0 0)
(0.97254252 0 0)
(0.91007386 0 0)
(0.84359467 0 0)
(0.77275633 0 0)
(0.69721319 0 0)
(0.61660632 0 0)
(0.53050564 0 0)
(0.43842657 0 0)
(0.33988213 0 0)
(0.23433563 0 0)
(0.12113033 0 0)
(0 0 0)
(1.9175701 0 0)
(1.9090733 0 0)
(1.9000516 0 0)
(1.8904898 0 0)
(1.8803767 0 0)
(1.8696998 0 0)
(1.8584453 0 0)
(1.8465981 0 0)
(1.8341399 0 0)
(1.8210489 0 0)
(1.8073001 0 0)
(1.7928674 0 0)
(1.7777233 0 0)
(1.7618381 0 0)
(1.7451794 0 0)
(1.7277123 0 0)
(1.7093986 0 0)
(1.6901956 0 0)
(1.6700566 0 0)
(1.6489313 0 0)
(1.6267642 0 0)
(1.603498 0 0)
(1.5790717 0 0)
(1.553418 0 0)
(1.5264605 0 0)
(1.4981156 0 0)
(1.4682951 0 0)
(1.4369041 0 0)
(1.4038364 0 0)
(1.3689776 0 0)
(1.3322091 0 0)
(1.2933998 0 0)
(1.2523999 0 0)
(1.209052 0 0)
(1.1631966 0 0)
(1.1146481 0 0)
(1.0631976 0 0)
(1.0086405 0 0)
(0.95075072 0 0)
(0.88928107 0 0)
(0.82394781 0 0)
(0.75441798 0 0)
(0.68035546 0 0)
(0.60141644 0 0)
(0.51719378 0 0)
(0.42723034 0 0)
(0.33105707 0 0)
(0.22815144 0 0)
(0.1178879 0 0)
(0 0 0)
(1.9175401 0 0)
(1.9090627 0 0)
(1.9000591 0 0)
(1.8905141 0 0)
(1.8804167 0 0)
(1.8697544 0 0)
(1.8585135 0 0)
(1.8466789 0 0)
(1.8342326 0 0)
(1.8211522 0 0)
(1.8074129 0 0)
(1.7929888 0 0)
(1.7778523 0 0)
(1.7619739 0 0)
(1.7453214 0 0)
(1.7278598 0 0)
(1.7095511 0 0)
(1.6903526 0 0)
(1.6702177 0 0)
(1.6490958 0 0)
(1.6269318 0 0)
(1.6036682 0 0)
(1.5792442 0 0)
(1.5535923 0 0)
(1.5266362 0 0)
(1.4982922 0 0)
(1.4684721 0 0)
(1.4370811 0 0)
(1.4040132 0 0)
(1.3691538 0 0)
(1.332384 0 0)
(1.2935732 0 0)
(1.2525716 0 0)
(1.2092214 0 0)
(1.163363 0 0)
(1.1148111 0 0)
(1.063356 0 0)
(1.0087935 0 0)
(0.95089753 0 0)
(0.88942047 0 0)
(0.8240791 0 0)
(0.75454037 0 0)
(0.68046782 0 0)
(0.60151807 0 0)
(0.51728326 0 0)
(0.42730532 0 0)
(0.33111591 0 0)
(0.22819262 0 0)
(0.1179095 0 0)
(0 0 0)
(1.9175105 0 0)
(1.9090948 0 0)
(1.9001498 0 0)
(1.8906601 0 0)
(1.8806146 0 0)
(1.870001 0 0)
(1.8588059 0 0)
(1.8470143 0 0)
(1.834608 0 0)
(1.8215645 0 0)
(1.8078595 0 0)
(1.793467 0 0)
(1.7783598 0 0)
(1.7625082 0 0)
(1.7458805 0 0)
(1.7284418 0 0)
(1.7101541 0 0)
(1.6909747 0 0)
(1.6708571 0 0)
(1.6497507 0 0)
(1.6276004 0 0)
(1.6043491 0 0)
(1.5799357 0 0)
(1.5542928 0 0)
(1.5273443 0 0)
(1.4990062 0 0)
(1.4691904 0 0)
(1.437802 0 0)
(1.4047353 0 0)
(1.3698752 0 0)
(1.3331028 0 0)
(1.2942875 0 0)
(1.2532795 0 0)
(1.2099206 0 0)
(1.1640513 0 0)
(1.1154856 0 0)
(1.0640133 0 0)
(1.0094305 0 0)
(0.95151039 0 0)
(0.89000512 0 0)
(0.82463167 0 0)
(0.75505643 0 0)
(0.68094241 0 0)
(0.6019463 0 0)
(0.51765914 0 0)
(0.42762139 0 0)
(0.33136489 0 0)
(0.22836708 0 0)
(0.11800087 0 0)
(0 0 0)
(1.9175632 0 0)
(1.9092526 0 0)
(1.9004074 0 0)
(1.891012 0 0)
(1.8810553 0 0)
(1.870525 0 0)
(1.8594079 0 0)
(1.8476893 0 0)
(1.8353506 0 0)
(1.8223699 0 0)
(1.8087233 0 0)
(1.7943852 0 0)
(1.779328 0 0)
(1.7635226 0 0)
(1.7469375 0 0)
(1.7295381 0 0)
(1.7112863 0 0)
(1.6921396 0 0)
(1.6720515 0 0)
(1.6509712 0 0)
(1.628844 0 0)
(1.605613 0 0)
(1.581217 0 0)
(1.5555887 0 0)
(1.5286521 0 0)
(1.5003232 0 0)
(1.4705136 0 0)
(1.4391286 0 0)
(1.4060623 0 0)
(1.3711994 0 0)
(1.3344209 0 0)
(1.2955958 0 0)
(1.2545745 0 0)
(1.2111983 0 0)
(1.1653071 0 0)
(1.116715 0 0)
(1.0652102 0 0)
(1.0105893 0 0)
(0.95262453 0 0)
(0.8910675 0 0)
(0.82563499 0 0)
(0.75599257 0 0)
(0.6818025 0 0)
(0.60272123 0 0)
(0.51833822 0 0)
(0.42819198 0 0)
(0.33181425 0 0)
(0.22868171 0 0)
(0.11816535 0 0)
(0 0 0)
(1.9176941 0 0)
(1.9095315 0 0)
(1.9008268 0 0)
(1.8915644 0 0)
(1.8817329 0 0)
(1.8713201 0 0)
(1.860313 0 0)
(1.8486969 0 0)
(1.8364533 0 0)
(1.8235612 0 0)
(1.8099972 0 0)
(1.7957359 0 0)
(1.7807496 0 0)
(1.7650096 0 0)
(1.7484848 0 0)
(1.7311408 0 0)
(1.7129395 0 0)
(1.6938389 0 0)
(1.6737922 0 0)
(1.6527486 0 0)
(1.6306537 0 0)
(1.6074507 0 0)
(1.5830787 0 0)
(1.5574704 0 0)
(1.53055 0 0)
(1.5022334 0 0)
(1.4724319 0 0)
(1.4410507 0 0)
(1.4079841 0 0)
(1.3731163 0 0)
(1.336328 0 0)
(1.2974881 0 0)
(1.2564465 0 0)
(1.2130442 0 0)
(1.1671207 0 0)
(1.1184894 0 0)
(1.0669373 0 0)
(1.0122608 0 0)
(0.9542311 0 0)
(0.89259907 0 0)
(0.82708105 0 0)
(0.7573413 0 0)
(0.68304133 0 0)
(0.60383664 0 0)
(0.51931501 0 0)
(0.42901265 0 0)
(0.33246039 0 0)
(0.22913383 0 0)
(0.11840164 0 0)
(0 0 0)
(1.9178979 0 0)
(1.9099252 0 0)
(1.9014011 0 0)
(1.8923098 0 0)
(1.8826395 0 0)
(1.8723781 0 0)
(1.8615127 0 0)
(1.8500285 0 0)
(1.8379074 0 0)
(1.8251294 0 0)
(1.8116723 0 0)
(1.7975106 0 0)
(1.7826158 0 0)
(1.76696 0 0)
(1.7505129 0 0)
(1.73324 0 0)
(1.7151037 0 0)
(1.6960622 0 0)
(1.6760688 0 0)
(1.6550721 0 0)
(1.6330182 0 0)
(1.6098507 0 0)
(1.585509 0 0)
(1.5599259 0 0)
(1.5330255 0 0)
(1.504724 0 0)
(1.4749323 0 0)
(1.4435555 0 0)
(1.4104875 0 0)
(1.3756126 0 0)
(1.3388109 0 0)
(1.2999509 0 0)
(1.2588821 0 0)
(1.2154451 0 0)
(1.169479 0 0)
(1.120796 0 0)
(1.0691819 0 0)
(1.0144327 0 0)
(0.95631832 0 0)
(0.89458868 0 0)
(0.82895912 0 0)
(0.75909261 0 0)
(0.68464964 0 0)
(0.60528431 0 0)
(0.52058224 0 0)
(0.43007724 0 0)
(0.33329842 0 0)
(0.22972014 0 0)
(0.11870795 0 0)
(0 0 0)
(1.9181688 0 0)
(1.9104265 0 0)
(1.9021222 0 0)
(1.893239 0 0)
(1.8837651 0 0)
(1.8736885 0 0)
(1.8629966 0 0)
(1.8516737 0 0)
(1.839702 0 0)
(1.827063 0 0)
(1.8137372 0 0)
(1.7996982 0 0)
(1.7849156 0 0)
(1.7693623 0 0)
(1.7530097 0 0)
(1.7358235 0 0)
(1.7177661 0 0)
(1.6987966 0 0)
(1.6788678 0 0)
(1.6579279 0 0)
(1.6359234 0 0)
(1.6127987 0 0)
(1.5884928 0 0)
(1.5629395 0 0)
(1.5360629 0 0)
(1.5077789 0 0)
(1.4779983 0 0)
(1.446626 0 0)
(1.4135556 0 0)
(1.3786711 0 0)
(1.3418522 0 0)
(1.3029671 0 0)
(1.2618643 0 0)
(1.2183839 0 0)
(1.1723649 0 0)
(1.1236182 0 0)
(1.0719279 0 0)
(1.0170893 0 0)
(0.95887094 0 0)
(0.89702158 0 0)
(0.83125544 0 0)
(0.76123356 0 0)
(0.68661546 0 0)
(0.60705338 0 0)
(0.52213054 0 0)
(0.4313778 0 0)
(0.33432208 0 0)
(0.23043613 0 0)
(0.11908184 0 0)
(0 0 0)
(1.9185014 0 0)
(1.9110289 0 0)
(1.902982 0 0)
(1.8943428 0 0)
(1.8850992 0 0)
(1.8752398 0 0)
(1.8647527 0 0)
(1.8536213 0 0)
(1.8418253 0 0)
(1.8293497 0 0)
(1.8161807 0 0)
(1.8022881 0 0)
(1.7876363 0 0)
(1.7722026 0 0)
(1.755961 0 0)
(1.7388763 0 0)
(1.7209113 0 0)
(1.702026 0 0)
(1.6821732 0 0)
(1.6612994 0 0)
(1.6393523 0 0)
(1.6162769 0 0)
(1.5920122 0 0)
(1.5664925 0 0)
(1.5396428 0 0)
(1.5113784 0 0)
(1.4816099 0 0)
(1.4502421 0 0)
(1.417168 0 0)
(1.3822712 0 0)
(1.3454313 0 0)
(1.3065158 0 0)
(1.2653722 0 0)
(1.2218401 0 0)
(1.1757581 0 0)
(1.1269359 0 0)
(1.0751555 0 0)
(1.0202114 0 0)
(0.96187046 0 0)
(0.89988022 0 0)
(0.83395314 0 0)
(0.76374839 0 0)
(0.68892437 0 0)
(0.60913097 0 0)
(0.52394847 0 0)
(0.4329047 0 0)