/*--------------------------------*- C++ -*----------------------------------*\
| =========                 |                                                 |
| \\      /  F ield         | OpenFOAM: The Open Source CFD Toolbox           |
|  \\    /   O peration     | Version:  v2012                                 |
|   \\  /    A nd           | Website:  www.openfoam.com                      |
|    \\/     M anipulation  |                                                 |
\*---------------------------------------------------------------------------*/
FoamFile
{
    version     2.0;
    format      ascii;
    class       surfaceScalarField;
    location    "48.5802297148300042";
    object      meshPhi;
}
// * * * * * * * * * * * * * * * * * * * * * * * * * * * * * * * * * * * * * //

dimensions      [0 3 -1 0 0 0 0];
oriented        oriented;


internalField   nonuniform List<scalar> 
18180
(
0
0.061093309
0
0.055979124
-1.039943e-13
0.1176313
0
0.051146912
0
0.10776003
0
0.1705293
-5.3873257e-14
0.046726758
0
0.097867218
0
0.15615814
9.6760989e-14
0.22189119
0
0.043147551
0
0.089769549
-1.0031091e-13
0.14243111
0
0.2040187
-9.3403805e-14
0.27218764
2.502739e-17
0.040379187
-2.3307554e-17
0.083442634
0
0.13101995
9.6740613e-14
0.18690293
0
0.25168507
0
0.32156461
-5.382879e-14
0.038077571
0
0.078305505
-2.2421153e-17
0.12202604
2.2342963e-17
0.17241156
9.3339363e-14
0.23194568
0
0.29870756
0
0.36897739
-5.3813615e-14
0.036106645
-5.1934624e-14
0.07401329
5.0125588e-14
0.11484278
4.8332019e-14
0.1607456
4.6686195e-14
0.21481419
-9.0104978e-14
0.27709588
0
0.34413761
8.3860265e-14
0.41405199
0
0.034326309
-5.1897008e-14
0.070195624
5.0090853e-14
0.1087548
4.8367439e-14
0.15129185
-4.6678889e-14
0.20049244
-4.504675e-14
0.2577912
0
0.3209057
0
0.38722298
-3.7512984e-17
0.45615138
-2.6652966e-17
0.032666054
0
0.066644504
-5.0078736e-14
0.10325123
-4.8357417e-14
0.14319603
4.6647982e-14
0.18831786
4.5040591e-14
0.24102879
0
0.3000592
8.3843781e-14
0.36254893
0
0.4274685
0
0.49547011
5.3744098e-14
0.031079978
0
0.063246536
0
0.09804371
-4.8323853e-14
0.13590374
0
0.17787723
0
0.22649184
8.6871902e-14
0.28146098
0
0.34015101
-8.093984e-14
0.40130089
0
0.46493044
-7.5360195e-14
0.53163405
0
0.029551091
0
0.05995278
-2.419202e-17
0.092990831
0
0.12905114
4.6653092e-14
0.16851108
0
0.21337882
4.3453375e-14
0.26441455
-2.2255945e-17
0.31966845
-4.0445297e-14
0.37731411
0
0.43721653
0
0.49935211
0
0.56490775
-2.6859397e-14
0.028072165
0
0.056743768
0
0.088049824
0
0.12240942
0
0.15970001
-9.0036357e-14
0.20138026
-4.3447009e-14
0.24866472
-4.1905997e-14
0.30039806
0
0.3548697
-3.9025666e-14
0.41157397
-7.5351527e-14
0.4701702
0
0.53093156
-7.0149524e-14
0.59510549
2.685374e-14
0.026638338
-2.5917751e-14
0.053621824
0
0.083218115
0
0.11592782
0
0.15127285
0
0.19028423
-4.3440147e-14
0.23407692
0
0.28208372
0
0.33332172
3.9021505e-14
0.3872454
-1.712993e-17
0.44300429
0
0.5003244
0
0.55963403
0
0.62274741
-2.6862904e-14
0.02524553
2.5912634e-14
0.050589915
2.5023995e-14
0.078508817
0
0.10961128
0
0.14311528
-4.5001992e-14
0.17977026
0
0.22051115
0
0.26494533
0
0.31264138
0
0.36358357
-3.7669277e-14
0.41698067
-3.6332943e-14
0.47177205
7.0116435e-14
0.52775942
0
0.58584007
6.5271312e-14
0.64767794
-2.6843772e-14
0.023894519
2.5907894e-14
0.047659482
-2.5019334e-14
0.073944589
-2.4137057e-14
0.10348771
0
0.13522864
0
0.16972433
-2.2657784e-17
0.20784723
0
0.24915247
0
0.29331426
-3.9032692e-14
0.34091276
-3.7648551e-14
0.39171749
-3.6346035e-14
0.44439209
3.5070464e-14
0.49798839
0
0.55274387
0
0.60949773
6.29706e-14
0.67036201
0
0.022587988
-2.5903527e-14
0.044841218
2.4990195e-14
0.069547439
2.4132775e-14
0.097585294
-2.3292937e-14
0.12763365
0
0.16009657
0
0.19590959
4.188362e-14
0.23456776
0
0.2756277
0
0.31984656
3.7645402e-14
0.36752772
-3.6327216e-14
0.41773992
-7.01517e-14
0.46940076
3.3836575e-14
0.52186199
-6.5291721e-14
0.57532194
0
0.63095788
0
0.69068957
0
0.021324866
0
0.042144592
-2.4998519e-14
0.065335826
-2.4141498e-14
0.091928621
-1.2100665e-17
0.1203593
2.2489657e-14
0.15088183
0
0.1845742
-4.1877622e-14
0.2209406
0
0.25936502
0
0.30046472
3.7642445e-14
0.344929
3.6324578e-14
0.39227696
3.5066693e-14
0.4416327
0
0.49224849
6.5278789e-14
0.54346448
-6.2990352e-14
0.59575213
0
0.65025081
-1.6406005e-17
0.70917937
2.6831998e-14
0.020104158
2.5908478e-14
0.039573796
-1.2406558e-17
0.061321544
0
0.086535118
-2.3285466e-14
0.11342709
-2.2486217e-14
0.14208865
-2.169171e-14
0.17379087
0
0.20809176
-4.0432558e-14
0.24423413
0
0.28267003
0
0.32415282
0
0.3684842
3.5049843e-14
0.41504866
0
0.46344797
-1.2131285e-17
0.51295664
0
0.56301138
-6.0768583e-14
0.61416206
0
0.66773742
0
0.72569835
0
0.018924383
2.5892547e-14
0.037131653
-2.4991299e-14
0.057512481
0
0.081407846
0
0.10684777
-2.2494444e-14
0.13372882
0
0.16353402
-2.0932974e-14
0.19591748
0
0.2300193
0
0.26618529
0
0.30496712
0
0.34635281
0
0.39005244
0
0.43583213
0
0.48332442
3.1484267e-14
0.53174721
-3.0375126e-14
0.58064797
-5.8623684e-14
0.6307912
0
0.68339382
0
0.74067582
2.6841124e-14
0.017785872
2.5889543e-14
0.034818302
0
0.053911288
-2.4118313e-14
0.076545154
2.3278927e-14
0.10062033
2.2479922e-14
0.12580927
-1.1354539e-17
0.1537961
0
0.18437192
-2.0201123e-14
0.21656595
0
0.25070034
0
0.28712395
-1.6833902e-17
0.32576379
0
0.36664934
0
0.40976598
-3.2643891e-14
0.45484476
-3.1484131e-14
0.50137967
-6.0770946e-14
0.5487271
2.9312805e-14
0.59656769
-5.6552884e-14
0.6457069
0
0.69752647
0
0.75399747
0
0.016693325
0
0.032631445
-2.4997653e-14
0.050518612
0
0.071940873
2.3288674e-14
0.094737564
0
0.1183324
0
0.14457694
-1.1145809e-17
0.17342863
2.019869e-14
0.20380624
-1.9494879e-14
0.23606773
0
0.27044367
0
0.30664873
3.5045464e-14
0.3448087
-3.3831732e-14
0.38531871
0
0.42796589
-1.1665295e-17
0.47221651
3.038631e-14
0.51779797
2.9304971e-14
0.5640996
2.827779e-14
0.61087316
0
0.65912225
0
0.71015206
0
0.76609475
0
0.015650494
0
0.030568939
0
0.047330671
-2.4126212e-14
0.067588805
0
0.08918578
2.2474463e-14
0.11128805
2.1680381e-14
0.13587079
-1.1229976e-17
0.16307368
-2.0206709e-14
0.19170062
0
0.22218743
1.882238e-14
0.25474405
0
0.28885582
0
0.32455128
3.3816789e-14
0.36248447
0
0.40271422
-3.1484225e-14
0.44466008
0
0.48807771
2.9315426e-14
0.53269491
-5.6558999e-14
0.57795505
2.7271602e-14
0.62373317
0
0.67114194
0
0.72154879
0
0.77683978
2.6827086e-14
0.014658975
6.2791997e-18
0.028627406
4.9972865e-14
0.044336479
0
0.063476379
0
0.083944607
0
0.10466148
-2.167799e-14
0.12766576
2.0922623e-14
0.15329182
0
0.18022901
1.9480998e-14
0.2090086
-1.8820784e-14
0.2398935
-1.8155046e-14
0.27217616
0
0.30571914
0
0.34117474
3.2630511e-14
0.37898836
0
0.41874342
0
0.45996161
0
0.50253086
-2.8272927e-14
0.54621584
-7.371659e-18
0.59044098
2.6307788e-14
0.63526703
5.0750674e-14
0.68192727
0
0.73169777
4.7213701e-14
0.7865775
0
0.013719358
-1.2946442e-14
0.026803115
6.2451713e-18
0.041525215
0
0.059590327
0
0.078993291
-2.2469855e-14
0.098429503
0
0.11994194
0
0.1440662
0
0.16937484
1.9498765e-14
0.19649879
-9.5798559e-18
0.22581462
0
0.25645013
-1.752e-14
0.28810238
0
0.32134972
0
0.35680953
3.148523e-14
0.39432344
0
0.43343219
-2.9308673e-14
0.47394648
-2.8274738e-14
0.51571631
2.7283218e-14
0.55841566
-6.6405453e-18
0.60165907
0
0.64558776
4.8953941e-14
0.69154169
0
0.74082815
0
0.79520456
0
0.012832248
-1.2945602e-14
0.025091335
1.2488062e-14
0.03888964
6.9923086e-18
0.055919468
0
0.074308662
0
0.092568544
0
0.11267689
0
0.13536988
-2.0189997e-14
0.15911496
1.9487083e-14
0.18463814
0
0.21245897
0
0.24156557
-1.7526998e-14
0.27152896
1.6914267e-14
0.30284629
0
0.33606736
0
0.37128531
3.0379628e-14
0.40829342
0
0.44686327
0
0.48674589
2.7277839e-14
0.52767008
0
0.56944574
-5.0765689e-14
0.61170719
2.4479227e-14
0.65478836
0
0.70013252
0
0.74895861
0
0.8030637
1.3407611e-14
0.011997629
-1.2938562e-14
0.023487112
0
0.036422533
1.2052025e-14
0.052456509
6.794946e-18
0.069872612
0
0.087049685
0
0.10584326
-1.1490909e-17
0.12717231
0
0.14942425
-1.9485364e-14
0.17340325
-1.8816281e-14
0.19979252
0
0.227462
0
0.255857
0
0.28543867
6.8386669e-18
0.31664073
0
0.34960559
-3.0392476e-14
0.38443785
0
0.42106232
0
0.45918325
0
0.49841148
-2.6322648e-14
0.53852105
5.0771794e-14
0.57933644
-5.325772e-18
0.62067908
0
0.66297833
4.5546016e-14
0.70779209
0
0.75629055
0
0.81007378
2.6821778e-14
0.011214122
-6.3305942e-18
0.021987648
1.2492755e-14
0.034114928
0
0.049194556
2.3263088e-14
0.065671415
-2.2452898e-14
0.081847818
-2.1670269e-14
0.099416971
0
0.11944319
0
0.14027234
0
0.16276936
0
0.18778823
0
0.21408872
0
0.24100305
1.6905635e-14
0.26899838
0
0.29841058
-3.1493347e-14
0.32929055
3.0382542e-14
0.36190719
0
0.39652451
0
0.43287971
0
0.47048714
2.6326045e-14
0.50903724
-2.539264e-14
0.54829977
-2.4485153e-14
0.5882162
2.3615229e-14
0.62865788
4.555505e-14
0.6702671
0
0.71463491
0
0.76284511
4.0861093e-14
0.81649988
0
0.010478916
-1.2943716e-14
0.020587363
-6.31774e-18
0.031957656
7.1245498e-18
0.046125865
0
0.061694389
-1.1225715e-14
0.076938516
1.0839958e-14
0.093371501
2.0913098e-14
0.11215449
0
0.13163249
-9.8178523e-18
0.1527108
0
0.17641551
0
0.20141034
0
0.22690808
0
0.25341877
1.6314423e-14
0.28123215
-6.2792717e-18
0.31026192
5.678144e-18
0.34078183
2.9326843e-14
0.37332787
0
0.40783423
0
0.4437701
0
0.48083003
0
0.51867855
0
0.5571087
2.3618664e-14
0.59611274
2.2778604e-14
0.63575731
0
0.67673621
0
0.72073544
0
0.76878559
-5.1590923e-18
0.82232612
0
0.0097834243
0
0.019280362
0
0.029943408
-7.1526765e-18
0.043240957
7.0147259e-18
0.057930419
0
0.072301624
-1.0839285e-14
0.087679976
5.7557172e-18
0.10527815
-2.01936e-14
0.12347454
0
0.14320388
0
0.16564961
1.8156634e-14
0.18939408
0
0.21352753
0
0.23863197
0
0.26498388
-1.5749978e-14
0.29236688
0
0.32099197
1.4664377e-14
0.35146876
0
0.3840717
0
0.41833693
2.6316771e-14
0.45380532
0
0.49027066
0
0.52739412
2.362256e-14
0.56498821
-2.2782224e-14
0.60317239
0
0.6420406
2.1188496e-14
0.68247987
-5.5021135e-18
0.72621597
0
0.77419885
3.8009507e-14
0.82780613
4.4780417e-05
0.010707348
0
0.018053368
0
0.028065025
0
0.040532759
-7.0686802e-18
0.054371083
-1.12245e-14
0.067919826
0
0.082319187
0
0.098790055
0
0.11577328
0
0.13422598
0
0.15546314
0
0.17801132
0
0.20082913
7.6753913e-18
0.22458398
0
0.2495784
0
0.27546932
0
0.30239262
0
0.33095715
1.4149616e-14
0.36164096
0
0.39418592
0
0.42804824
-7.5860889e-18
0.46300365
0
0.49885157
0
0.53524041
-2.2791192e-14
0.57205624
0
0.60942313
-2.119832e-14
0.6476137
0
0.68759625
-4.9613157e-18
0.73118013
0
0.77923142
3.6658601e-14
0.83288568
7.517054e-05
0.010659236
0.00012328226
0.019668625
0
0.02630746
0
0.037993511
0
0.051008244
-1.122999e-14
0.063782474
5.5282351e-18
0.0772696
-1.0460426e-14
0.092668884
0
0.10850103
4.8077859e-18
0.12575209
0
0.14583335
0
0.16723359
1.7513015e-14
0.18877926
0
0.21123927
1.6320481e-14
0.23495709
0
0.25946195
5.6735715e-18
0.28484568
1.4660669e-14
0.31169632
-5.027911e-18
0.34049441
0
0.37123845
0
0.4035321
0
0.43698938
0
0.47141954
2.3631487e-14
0.506619
0
0.54230852
0
0.57836384
3.579708e-18
0.61499536
-2.0442448e-14
0.65254262
-1.9713006e-14
0.69218232
0
0.73575406
-3.6665238e-14
0.7839245
3.5355329e-14
0.83771616
9.2864155e-05
0.010613643
0.00020747966
0.019707508
0.00019004685
0.028478982
1.2048854e-14
0.03560719
0
0.047832574
0
0.059874022
1.0832235e-14
0.072511903
5.6763136e-18
0.086894587
0
0.10163355
0
0.11775525
9.4045569e-15
0.13673401
-1.8153734e-14
0.15703282
1.7520744e-14
0.17735179
0
0.19856506
7.3274667e-18
0.22107496
0
0.24428044
0
0.26822844
-1.4666518e-14
0.29351507
1.4146839e-14
0.32056748
0
0.34948162
0
0.3801392
0
0.41217175
0
0.44521491
2.3636363e-14
0.47908561
0
0.51365967
-2.198858e-14
0.54867212
0
0.58401581
0
0.61992445
-2.5993995e-18
0.65693374
2.2303982e-18
0.69634693
0
0.74000492
0
0.78835936
-3.4102104e-14
0.84222901
9.9555956e-05
0.010575229
0.0002569817
0.019745951
0.00032061259
0.02865568
0.0002558874
0.038239718
-1.1628733e-14
0.04482441
0
0.05618094
0
0.068028367
-5.6258805e-18
0.081444035
1.0094401e-14
0.095150855
0
0.11021229
9.3987059e-15
0.12814326
5.1956594e-18
0.14738557
0
0.1665185
0
0.18653172
1.6312413e-14
0.20789919
1.5749734e-14
0.22987247
-1.5193369e-14
0.25246239
0
0.27630585
0
0.30177593
-1.3655502e-14
0.32893181
0
0.35782628
0
0.38837129
0
0.42015771
0
0.4527594
0
0.48607667
0
0.52003137
0
0.55440049
-2.0451343e-14
0.5890669
-1.9717462e-14
0.62432746
-1.9015528e-14
0.66084572
1.8334467e-14
0.70016239
3.5360712e-14
0.74400823
0
0.79255077
0
0.84655954
9.6903715e-05
0.010544972
0.00027621631
0.019792619
0.00039806635
0.028825662
0.00043192205
0.038554186
0.00032025477
0.047754356
0
0.052674052
0
0.063804242
0
0.076301347
0
0.089034767
-9.7378094e-15
0.10310416
0
0.12003798
9.06552e-15
0.13826727
0
0.15625818
0
0.17511341
0
0.19539574
0
0.21619985
0
0.23749433
1.4667453e-14
0.2599789
0
0.28400603
-1.3652035e-14
0.30954254
-4.3306373e-18
0.33665119
1.2707293e-14
0.36551994
-1.2257798e-14
0.39600831
0
0.42752355
0
0.45968067
2.1994798e-14
0.49243528
0
0.5257889
0
0.55955907
0
0.59360257
-3.8036441e-14
0.62822384
-1.8339437e-14
0.66436363
5.3049414e-14
0.70369807
0
0.74779908
0
0.79655676
3.1715439e-14
0.85058127
8.6541491e-05
0.010523163
0.00026950953
0.019846659
0.0004288202
0.028995618
0.00053643452
0.0388455
0.00054010484
0.048218381
0.00037426223
0.055733651
0
0.059803566
0
0.071450316
0
0.083270216
9.7374432e-15
0.096411841
5.5316315e-18
0.11239855
-9.0757469e-15
0.12965436
0
0.1465472
3.882089e-18
0.16428942
0
0.18353932
0
0.20323013
0
0.22328175
-1.4662663e-14
0.24447661
1.4154248e-14
0.26716635
-4.6563819e-18
0.29122323
0
0.31665285
0
0.34373087
1.226026e-14
0.37269228
0
0.40313654
0
0.43434933
0
0.4660195
0
0.49820534
0
0.53098849
0
0.56421296
1.9021388e-14
0.59765916
0
0.63170603
-1.7687112e-14
0.66753023
0
0.70699914
0
0.75141557
-3.172069e-14
0.80032636
0
0.85437436
7.0076931e-05
0.010509663
0.00024126356
0.019907086
0.00041931394
0.029164207
0.00057794464
0.039120095
0.00067016762
0.048626395
0.0006309261
0.056421308
0.00041631417
0.062826474
0
0.066853522
0
0.077842915
0
0.090120062
-9.4030823e-15
0.10519891
9.0754576e-15
0.12152191
0
0.13736607
0
0.15404074
-8.1555953e-15
0.1723039
1.5742537e-14
0.19093544
0
0.20979509
0
0.22975452
0
0.25119097
0
0.27388847
-4.2202933e-18
0.2977868
-1.2715247e-14
0.32314626
-1.2266394e-14
0.35038044
0
0.37947576
3.3443569e-18
0.40979107
0
0.44063635
0
0.47180458
-2.0469114e-14
0.50343168
0
0.53569289
0
0.56841309
1.8347893e-14
0.6012996
-1.7688759e-14
0.63479777
-1.6312842e-18
0.67041297
-3.2895229e-14
0.71010571
0
0.75485806
0
0.80388146
0
0.85778894
4.9108529e-05
0.01050448
0.00019578291
0.019973026
0.00037606515
0.029329197
0.0005651346
0.039376657
0.00072119051
0.048991748
0.0007823741
0.057018158
0.00070188623
0.06374182
0.0004513552
0.069639539
0
0.072714743
0
0.084217114
0
0.098420687
9.0697217e-15
0.11384015
-8.7544961e-15
0.12869311
0
0.14434693
0
0.1616684
7.8745401e-15
0.17928837
1.5199115e-14
0.19700478
0
0.21578273
-1.4155369e-14
0.23603449
0
0.25746209
0
0.27996245
-1.2716933e-14
0.30375845
0
0.32924781
0
0.35672571
0
0.38588572
-1.1006394e-14
0.41597204
0
0.44641728
0
0.47707052
-3.9797752e-18
0.50817076
0
0.5399442
0
0.57219504
0
0.60456226
0
0.63757401
-1.6450707e-14
0.67304158
0
0.7130487
-3.0594064e-14
0.7581117
0
0.80713613
2.8448736e-14
0.86092032
2.5223935e-05
0.010508311
0.00013747911
0.020043842
0.00030569363
0.0294883
0.00050676375
0.039613042
0.00070428522
0.049313319
0.00084134873
0.057543872
0.00087029366
0.06453943
0.00076026919
0.070695605
0.00047843402
0.075135765
0
0.078668572
-9.4026669e-15
0.092046702
0
0.10658672
-8.7585029e-15
0.12050703
-8.4498208e-15
0.13519071
0
0.15160784
7.8710214e-15
0.16826229
-7.5941472e-15
0.18488707
0
0.20253473
0
0.22166186
0
0.24189468
-1.3177255e-14
0.26309354
0
0.28547372
0
0.30937657
1.1833786e-14
0.33517567
-3.483636e-18
0.36284281
2.2022217e-14
0.39189339
0
0.42170061
0
0.45171156
-1.9745886e-14
0.48186368
-1.904233e-14
0.51245659
0
0.54376974
1.7697929e-14
0.57560429
0
0.60749499
0
0.64005277
-1.3240463e-18
0.67546836
0
0.71582214
2.9502051e-14
0.7611568
0
0.81011658
0
0.86366968
0.010521139
0
7.0731544e-05
0.020118592
0.00021496631
0.029639969
0.00041183561
0.039827141
0.00063067698
0.049590291
0.00082089094
0.057995431
0.00093576999
0.065235512
0.00094184155
0.071597142
0.00080468082
0.076339782
0.00049982441
0.080772828
0
0.086040578
0
0.099736302
0
0.11278852
8.449684e-15
0.12655516
4.1258118e-18
0.1421017
7.874362e-15
0.15783262
1.5196316e-14
0.17341576
-7.33187e-15
0.18998518
0
0.2080468
0
0.22714749
0
0.24711829
-1.2716058e-14
0.26820126
-1.2268861e-14
0.29069369
1.1836165e-14
0.31489752
2.284208e-14
0.34093892
-3.3047536e-18
0.36861813
0
0.3975039
2.6956797e-18
0.42698743
0
0.45656547
0
0.48621555
0
0.51631495
0
0.54721235
0
0.5786724
1.6456171e-14
0.61012677
0
0.64229167
1.5298993e-14
0.67772099
1.3179922e-18
0.71844837
0
0.76395237
0
0.81276893
-2.6461857e-14
0.8661275
0.020195698
0
0.010541968
-2.5323881e-05
0.00011072827
0.029782645
0.00028948445
0.040018111
0.00051179592
0.049822498
0.00073437468
0.058372154
0.00091279804
0.065827403
0.0010116548
0.072365232
0.00099535309
0.077352806
0.00084018865
0.082244253
0.00052459896
0.087853374
0
0.093249674
0
0.10551663
0
0.11842404
-4.1830811e-18
0.13312169
-7.8707902e-15
0.14797604
-7.596832e-15
0.16256925
-7.3343692e-15
0.17811127
2.5102448e-18
0.19516202
0
0.21318994
0
0.23199556
1.2717306e-14
0.25185905
-1.2274125e-14
0.27306796
-1.1841873e-14
0.29583252
-3.4868412e-18
0.32028922
1.1015685e-14
0.34644093
-3.1258187e-18
0.37405769
0
0.40272955
0
0.43187741
0
0.46099462
0
0.49014792
1.7710044e-14
0.51978468
0
0.55030103
0
0.58143393
-1.6820174e-18
0.61249101
1.3130765e-18
0.64433386
-1.4755368e-14
0.67984145
0
0.72088347
0
0.76649597
0
0.81513669
0
0.8682136
0.029913625
0
0.020274471
-7.1190649e-05
0.010571099
-4.9500838e-05
0.00014904436
0.040184115
0.0003592204
0.050009948
0.00059528396
0.058672689
0.0008162802
0.066314705
0.00098585434
0.073002948
0.0010676148
0.078208705
0.0010387576
0.083505821
0.00088226944
0.089700938
0.00055092411
0.094661785
0
0.098641023
0
0.110782
0
0.12464668
-3.5174619e-18
0.13866008
7.5993735e-15
0.15232605
7.3344074e-15
0.16689311
-7.0783775e-15
0.18298428
2.3437355e-18
0.19999367
0
0.21769029
0
0.23639858
-1.2275627e-14
0.25641604
-1.1840254e-14
0.27788569
0
0.30088085
-3.3699605e-18
0.32548457
1.0627702e-14
0.35169389
-1.0249514e-14
0.37920909
0
0.40761018
-9.5302692e-15
0.43636932
0
0.46502535
0
0.493696
0
0.52289447
0
0.55306716
0
0.58390198
0
0.61462929
0
0.64622515
-1.4229866e-14
0.68182754
0
0.72314977
-2.6464521e-14
0.76877578
0
0.81718626
0
0.87003615
0.040322275
0
0.030033812
-0.00011160922
0.020353698
-0.00013926053
0.010609804
-7.092226e-05
0.00018467097
0.050151644
0.00041732979
0.058896621
0.00066139218
0.066697917
0.00088083675
0.073515786
0.0010390443
0.078914009
0.001113663
0.084582373
0.0010912688
0.091301771
0.0009270407
0.096875409
0.00056863082
0.099550899
0
0.10357958
0
0.11665523
0
0.1298597
-7.5993303e-15
0.14266239
2.3416277e-18
0.15631129
-7.0784842e-15
0.17148868
0
0.187532
4.0300492e-18
0.20417254
0
0.22178254
0
0.24067635
0
0.26095855
-1.14249e-14
0.28263214
3.3734482e-18
0.30575517
-3.2768057e-18
0.33051332
-3.1116983e-18
0.3567422
0
0.38404139
-9.5366298e-15
0.41213439
-9.1924565e-15
0.44049542
0
0.46867853
0
0.49688778
0
0.52567276
0
0.55551659
0
0.58611063
-1.4761149e-14
0.61657064
-1.4231007e-14
0.64798613
0
0.68370343
0
0.7252187
-2.5522218e-14
0.77080957
0
0.81896672
-1.3597661e-18
0.87154881
0.050246964
0
0.040437366
-0.00015004486
0.030141099
-0.00021837256
0.020431183
-0.00019955856
0.010658259
-8.7944438e-05
0.00021427172
0.059043912
0.00046343449
0.066976502
0.00071316233
0.073909747
0.00092730923
0.079478776
0.0010834116
0.085477072
0.0011704567
0.092669273
0.0011470892
0.098793292
0.00095690869
0.10208922
0.00057777667
0.10395309
-8.1589878e-15
0.10909364
0
0.12154761
7.5968021e-15
0.13355453
-7.3344532e-15
0.14634322
2.5831173e-18
0.16065224
-6.8312211e-15
0.17577595
0
0.19141144
0
0.2079756
1.2274498e-14
0.22580658
0
0.24497698
1.1426892e-14
0.26544553
0
0.28719981
0
0.3104768
0
0.33538252
1.9785518e-14
0.36152797
-2.643899e-18
0.38856795
-2.2968039e-18
0.41631968
0
0.44426101
0
0.47198949
0
0.49975061
-1.5887895e-14
0.528127
0
0.55768511
0
0.58807588
0
0.61834281
-1.3724018e-14
0.6496397
1.323329e-14
0.68546267
0
0.72712528
0
0.77257687
0
0.82046452
0
0.87283333
0.059113718
0
0.050307076
-0.0001853867
0.040529122
-0.00029336695
0.030229586
-0.00031287458
0.020505501
-0.00024738794
0.010715492
-9.8874353e-05
0.00023781151
0.067151097
0.00049938422
0.074189007
0.00075010125
0.079911888
0.00096662087
0.086196739
0.0011389831
0.093804754
0.0012305751
0.10042893
0.0011842319
0.10428961
0.00097238352
0.10680528
0.00058595479
0.10890688
0
0.11366665
0
0.12497766
-1.4666642e-14
0.13696631
-2.6042825e-18
0.15044282
2.4036997e-18
0.16469698
1.9862927e-18
0.17937765
6.360492e-15
0.19494495
-6.1377568e-15
0.21176492
-1.1844864e-14
0.22988572
0
0.24923919
1.1026234e-14
0.26973871
0
0.29159899
1.0263055e-14
0.31511498
9.8949502e-15
0.34008955
0
0.36603596
-2.7609108e-14
0.39277534
-2.1275469e-18
0.42017771
-8.5514007e-15
0.44769779
0
0.47497186
0
0.50229375
-1.532168e-14
0.53029281
0
0.55958178
1.4237456e-14
0.58982739
-1.1022905e-18
0.6199586
-1.3235046e-14
0.65120014
-1.2762858e-14
0.68713072
0
0.72881811
-2.3737007e-14
0.77410015
0
0.82172818
-2.207527e-14
0.87384594
0.067220206
0
0.05912202
-0.00021454032
0.050332481
-0.00036201453
0.040590204
-0.00042005578
0.030296982
-0.00038762754
0.020575335
-0.00027790783
0.010782541
-0.00010201631
0.00025614315
0.074356673
0.00052491461
0.080221199
0.00078164128
0.086746442
0.0010162871
0.094710502
0.0011976405
0.10178308
0.001270619
0.10617888
0.0012036035
0.10929715
0.00098632715
0.11212933
0.0005918528
0.11288366
0
0.11686826
0
0.12816066
-7.07871e-15
0.14083666
0
0.15425903
0
0.16804087
6.3626228e-15
0.18265957
0
0.19851516
-5.9230213e-15
0.2156386
1.1433964e-14
0.23394388
0
0.25328997
0
0.27384406
0
0.295946
0
0.31963725
0
0.344539
9.2046615e-15
0.37024733
-2.2940219e-18
0.39668406
-8.5556164e-15
0.42371411
0
0.45081042
1.5902528e-14
0.47764441
0
0.50455043
1.4773782e-14
0.53217996
0
0.56123784
0
0.59136767
-9.926599e-19
0.62144333
0
0.6526834
-8.6643102e-19
0.68866838
2.3737319e-14
0.73032634
0
0.77538261
2.207597e-14
0.82275157
2.128881e-14
0.87466604
0.074414776
0
0.067205532
-0.00023778768
0.059069324
-0.00041838561
0.050312983
-0.00051777277
0.040619642
-0.00052006908
0.030341635
-0.00043504993
0.020639013
-0.00028632791
0.010861897
-9.560266e-05
0.0002691347
0.080411964
0.00054686261
0.087130707
0.00082179001
0.095390024
0.0010686359
0.10285715
0.0012367532
0.10775269
0.0012916187
0.1114529
0.00122102
0.11494899
0.00099662985
0.1164676
0.00059073969
0.11547085
0
0.11985715
0
0.13180997
0
0.14443551
-6.5930067e-15
0.15737006
1.7995929e-18
0.17109091
6.1404465e-15
0.18602444
-5.9235301e-15
0.202193
0
0.21950693
0
0.23777305
0
0.25711927
0
0.27787953
-9.9019585e-15
0.30020637
9.5527146e-15
0.32395934
0
0.34872172
0
0.37417201
-2.1205544e-18
0.40028591
-8.2534441e-15
0.42694608
0
0.4536205
0
0.4800297
0
0.5065332
1.4246967e-14
0.53381819
0
0.56265019
0
0.59272877
0
0.62280549
-1.230871e-14
0.65407541
-8.1700234e-19
0.69009002
7.1949178e-19
0.73161763
0
0.77645945
0
0.82357337
2.0531317e-14
0.87526207
0.080486622
0
0.074394131
-0.00025601546
0.067107526
-0.00046334845
0.058940516
-0.00059757554
0.050250926
-0.00064049967
0.040616316
-0.00058334932
0.030360777
-0.0004475321
0.02069825
-0.0002677545
0.010954253
-7.7777306e-05
0.00028031841
0.087354701
0.00057479426
0.095845649
0.00086398753
0.1036541
0.0011034683
0.1090084
0.0012574106
0.11326262
0.0013105868
0.11738735
0.0012339588
0.11960433
0.00099473876
0.11935695
0.00058481425
0.11783533
0
0.12328383
0
0.13519686
0
0.14733509
-6.3631119e-15
0.1602074
1.8839038e-18
0.174262
0
0.18951456
0
0.20588148
-5.5159114e-15
0.22312823
0
0.24134857
0
0.26087064
-9.908283e-15
0.28186034
-9.5533791e-15
0.30432605
-9.2127809e-15
0.32806768
0
0.35265457
0
0.37781835
-1.9552028e-18
0.40360027
0
0.42987442
7.6720108e-15
0.4561454
-1.4789054e-14
0.48214914
0
0.50826969
1.3738777e-14
0.53520626
0
0.56385639
0
0.59391738
-8.0198843e-19
0.62405844
-1.1870959e-14
0.65538367
1.1446311e-14
0.69134778
-1.1038191e-14
0.73273772
-2.129087e-14
0.77731769
0
0.8241902
-1.980127e-14
0.87570373
0.087420423
0
0.080482461
-0.00026904842
0.074294372
-0.0004988862
0.066903904
-0.00066121525
0.058735437
-0.0007382035
0.050146997
-0.00071795668
0.04058037
-0.00059979786
0.030351007
-0.00041759192
0.020751584
-0.00021718673
0.011059986
-4.6593779e-05
0.00029451646
0.096081263
0.00060409667
0.10417818
0.00089207304
0.10994451
0.0011222167
0.11472072
0.0012761769
0.11943812
0.0013246905
0.12231569
0.0012319258
0.1227627
0.00098486961
0.12199874
0.00057907655
0.12062131
-6.83152e-15
0.12645617
0
0.1379056
0
0.14997849
6.1391816e-15
0.16319459
5.9263108e-15
0.17756914
0
0.19303127
-1.1035079e-14
0.20930876
-5.3229205e-15
0.22646537
0
0.24484132
0
0.26458271
0
0.28572636
9.2167033e-15
0.30828876
0
0.33196476
8.5687555e-15
0.3563131
-2.1214434e-18
0.38118827
-7.9644058e-15
0.40662445
0
0.43252863
0
0.4584076
0
0.48402211
0
0.50976137
1.3248582e-14
0.53638039
0
0.56486271
-1.2313646e-14
0.59496543
0
0.62520369
-1.1447258e-14
0.65657436
1.1038691e-14
0.69247322
-2.1291013e-14
0.73364656
0
0.77798658
0
0.82463846
1.9096512e-14
0.87594589
0.096098284
0
0.087371758
-0.00028014232
0.080396017
-0.00052455171
0.074084823
-0.00071208798
0.066593592
-0.00081595985
0.058454129
-0.00082632905
0.049999821
-0.00073793283
0.04050833
-0.00055936095
0.030311458
-0.00033777662
0.020799975
-0.00012964295
0.01117144
0
0.00030938333
0.10443296
0.00062364679
0.11056306
0.0009073772
0.11582187
0.0011392127
0.12109782
0.001290055
0.12459751
0.0013226432
0.12572038
0.0012197712
0.12566078
0.00097523087
0.12508806
0.0005735429
0.12314455
0
0.12899025
0
0.14037441
1.2280743e-14
0.15279065
-5.9266612e-15
0.16632831
-5.7174207e-15
0.1809203
0
0.19627412
0
0.21242198
-5.1365285e-15
0.22972199
0
0.24831054
0
0.2681873
-9.2233943e-15
0.289454
0
0.31207117
0
0.33561804
0
0.35972174
0
0.38429443
1.5360217e-14
0.40938353
0
0.43491811
0
0.46042717
0
0.48565811
0
0.51104165
-1.2776625e-14
0.53734778
0
0.56570418
0
0.59586533
1.1448636e-14
0.62624744
6.736297e-19
0.65766016
1.0645627e-14
0.69342926
0
0.73438702
0
0.77846215
0
0.82491126
-1.841813e-14
0.87607897
0.10441997
0
0.09594966
-0.00029388413
0.087208291
-0.00054614926
0.080187901
-0.00074928336
0.073764937
-0.00087904317
0.066174919
-0.00091231238
0.058095715
-0.0008481134
0.049808628
-0.00068814447
0.040400915
-0.00045227602
0.030242576
-0.00020092945
0.020834951
0
0.010263708
0
0.00031930988
0.11086691
0.0006344324
0.11656344
0.00092133856
0.12236422
0.0011517132
0.12644788
0.0012882921
0.12822124
0.0013098878
0.12885654
0.0012078879
0.12902167
0.00096581655
0.12790796
0.00056550091
0.12504037
0
0.13130301
0
0.14301676
0
0.15575494
5.7178085e-15
0.16951824
1.8260919e-18
0.18398839
0
0.19917515
0
0.21545846
-4.9565644e-15
0.23297593
0
0.25167518
0
0.27165697
0
0.29306969
0
0.31568788
2.4499683e-18
0.33904293
-2.1265035e-18
0.36288356
7.6838609e-15
0.3871479
1.4924102e-18
0.41188353
-7.138658e-15
0.43707249
-6.8788695e-15
0.4622121
0
0.48708161
0
0.51211768
0
0.53813957
-1.1877124e-14
0.56637337
0
0.59665189
-1.1040636e-14
0.62718614
1.0646851e-14
0.65862318
1.0266628e-14
0.69425612
1.9802323e-14
0.7349268
0
0.77878009
0
0.82505325
0.0080035816
0.86806067
0.11085942
0
0.1042016
-0.00030825227
0.095638667
-0.00057234086
0.086886864
-0.00078007529
0.079850074
-0.00092582855
0.073332177
-0.00098330266
0.065649569
-0.00093509661
0.057663901
-0.00078983684
0.049570967
-0.00055647152
0.040256108
-0.00026886379
0.030141287
0
0.019186093
0
0.011055281
0
0.00032485247
0.11694599
0.00064434523
0.12323374
0.00093160532
0.12786524
0.0011503144
0.13025808
0.0012761265
0.13157294
0.0012972995
0.13245743
0.0011962132
0.13210228
0.0009523498
0.13007855
0.0005556512
0.12672986
0
0.13378299
0
0.14581302
0
0.15878524
-1.8392024e-18
0.17241493
5.3268075e-15
0.18668842
0
0.20200589
4.9576475e-15
0.21851566
0
0.23612805
0
0.25490502
0
0.27505082
-8.5844705e-15
0.29656537
0
0.31909418
0
0.34223448
-7.6905131e-15
0.36581204
0
0.38975635
-7.143061e-15
0.41414976
0
0.43898957
0
0.46378607
0
0.4883047
0
0.51301818
0
0.5387513
0
0.56690817
0
0.59731937
1.0647226e-14
0.62802906
0
0.65948431
9.9011956e-15
0.69490859
-1.9097669e-14
0.73532205
-1.5184447e-19
0.77892509
0.01563452
0.81747641
0.007288752
0.86065009
0.11697128
0
0.11061345
-0.00031793409
0.10378145
-0.00059971682
0.095118886
-0.00081658679
0.086401194
-0.0009638403
0.079374451
-0.0010367927
0.072786041
-0.0010085211
0.06501764
-0.00086953042
0.057157714
-0.00063784061
0.049283574
-0.00033095663
0.040062796
0
0.027905743
0
0.020554673
-1.2946217e-14
0.011900919
-1.3410402e-14
0.00032999845
0.12370606
0.00065161817
0.12884847
0.00093058565
0.13182397
0.0011397415
0.13379998
0.0012640744
0.13538357
0.0012847279
0.13576719
0.0011796278
0.13451792
0.00093567692
0.13204696
0.00054559823
0.128589
0
0.13642032
0
0.14868434
0
0.16151919
-1.5831711e-18
0.1749256
1.5549956e-18
0.189324
0
0.2048814
-4.7855724e-15
0.2214762
0
0.23913496
0
0.25805766
0
0.27835935
8.2785056e-15
0.299907
7.9835147e-15
0.32229674
0
0.34520652
0
0.36851179
0
0.39213797
6.8868357e-15
0.41618611
-6.637868e-15
0.4407005
7.4042922e-19
0.46515949
0
0.48934993
0
0.51373667
1.1456097e-14
0.53921602
0
0.56731148
1.0648976e-14
0.59789847
-1.0267922e-14
0.62875997
0
0.66021857
-3.7302705e-19
0.69544574
1.8419007e-14
0.73550982
0.022920132
0.77171074
0.014237437
0.81046118
0.006523899
0.85383589
0.12377986
0
0.11672262
-0.00032344352
0.11013447
-0.00061832023
0.10310586
-0.00085471726
0.094395104
-0.0010077764
0.085744208
-0.0010792502
0.078756538
-0.0010646675
0.072121385
-0.00093843906
0.064285558
-0.00070117551
0.056583348
-0.00037892101
0.0489246
1.1631039e-14
0.037411165
0
0.0298248
1.2494057e-14
0.022013465
-1.294014e-14
0.012806017
-8.1253689e-18
0.00033379197
0.12939798
0.00065099045