/*--------------------------------*- C++ -*----------------------------------*\
| =========                 |                                                 |
| \\      /  F ield         | OpenFOAM: The Open Source CFD Toolbox           |
|  \\    /   O peration     | Version:  v2012                                 |
|   \\  /    A nd           | Website:  www.openfoam.com                      |
|    \\/     M anipulation  |                                                 |
\*---------------------------------------------------------------------------*/
FoamFile
{
    version     2.0;
    format      ascii;
    class       volScalarField;
    location    "48.5802297148300042";
    object      p;
}
// * * * * * * * * * * * * * * * * * * * * * * * * * * * * * * * * * * * * * //

dimensions      [0 2 -2 0 0 0 0];


internalField   nonuniform List<scalar> 
9200
(
-0.0015728746
-0.0015734052
-0.0055121064
-0.0015554403
-0.0058132395
-0.0088272422
-0.001514081
-0.0061882552
-0.0093410477
-0.011946093
-0.0013764352
-0.006746814
-0.0098802419
-0.012746402
-0.014574287
-0.0011558932
-0.007264063
-0.010700955
-0.013578272
-0.015685522
-0.016683418
-0.0008005188
-0.0077823534
-0.011412856
-0.014860204
-0.01687345
-0.018141688
-0.01816566
-0.00032007131
-0.0081797155
-0.01206756
-0.016040283
-0.018702965
-0.019784325
-0.019992101
-0.018921471
0.00031211907
-0.0084566106
-0.01245928
-0.017166019
-0.020478119
-0.022305031
-0.022170394
-0.02113497
-0.018857967
0.0010776629
-0.0085617626
-0.012584573
-0.017961883
-0.022221666
-0.024892295
-0.02551103
-0.023907659
-0.021456537
-0.017962187
0.0019613302
-0.0084997539
-0.012383205
-0.018389137
-0.023584862
-0.027538176
-0.029119113
-0.02817165
-0.024850669
-0.020828671
-0.016201078
0.0028849742
-0.0082429487
-0.011885757
-0.018350487
-0.024457162
-0.029823719
-0.032963078
-0.032992397
-0.030087421
-0.024852828
-0.019176893
-0.013354513
0.0036453283
-0.0077611202
-0.011136051
-0.017857426
-0.024671232
-0.031550299
-0.036573757
-0.038333732
-0.03625558
-0.031050277
-0.023785869
-0.016604607
-0.0096120719
0.0038315181
-0.0069367389
-0.01023738
-0.016953535
-0.024164475
-0.032460605
-0.039668045
-0.043711414
-0.04333969
-0.03860851
-0.030862325
-0.021564834
-0.013069649
-0.0050693426
0.0035857899
-0.0054569096
-0.0093321916
-0.015745466
-0.022918332
-0.032377719
-0.041896312
-0.048785248
-0.050892566
-0.047579072
-0.039736288
-0.029341518
-0.018141093
-0.0085310672
0.00021381258
0.0035185898
-0.0036389788
-0.0086106011
-0.014380038
-0.02098641
-0.031169898
-0.042956489
-0.053136903
-0.058564901
-0.057609815
-0.050585728
-0.039346263
-0.026380237
-0.013649006
-0.003123116
0.0060933014
0.0039604513
-0.0026297431
-0.0083593495
-0.013042494
-0.018485339
-0.028770053
-0.042586262
-0.056353206
-0.065918592
-0.068414957
-0.063210546
-0.051879587
-0.037182475
-0.021995258
-0.008100739
0.0030142566
0.012432058
0.0057236016
-0.0029690597
-0.0092758968
-0.011917096
-0.015587605
-0.025177617
-0.040578605
-0.058048653
-0.072466955
-0.079615903
-0.077482667
-0.066972846
-0.051005163
-0.03311686
-0.016227914
-0.0016439484
0.0097054785
0.019085698
0.0076510935
-0.0046695239
-0.011830612
-0.011182217
-0.012506952
-0.020451522
-0.036803005
-0.057878808
-0.077725758
-0.090728836
-0.093193773
-0.084742333
-0.068168547
-0.047651006
-0.027178644
-0.0092125972
0.0055343375
0.016779801
0.02590774
0.0078608822
-0.0065561835
-0.015939787
-0.010972095
-0.0095421029
-0.014714068
-0.031209602
-0.055589012
-0.081215017
-0.1012354
-0.10998325
-0.10528114
-0.089069272
-0.066190232
-0.041761105
-0.019531384
-0.0011902707
0.013220986
0.024067989
0.032771336
0.0061159775
-0.0062065796
-0.021018903
-0.01206352
-0.0067767462
-0.0081447479
-0.023840432
-0.051034172
-0.082536209
-0.110555
-0.1274313
-0.12850936
-0.11426148
-0.089347379
-0.060782526
-0.03337869
-0.010434913
0.0075536533
0.021198826
0.031409375
0.039563187
0.0034248981
-0.0031241085
-0.027652119
-0.01474507
-0.0046546606
-0.0010049562
-0.014825615
-0.044210211
-0.08140772
-0.11813825
-0.14498379
-0.15431811
-0.14413642
-0.11836052
-0.084795957
-0.051651416
-0.022866585
-0.00026397198
0.016723053
0.029264192
0.038666354
0.046190683
0.00052594867
0.0015721728
-0.036562351
-0.019094957
-0.0037992234
0.0064490588
-0.0043881582
-0.035265715
-0.07772913
-0.12350646
-0.16203101
-0.18242568
-0.17912769
-0.15425088
-0.11616022
-0.075481074
-0.039430478
-0.010736503
0.010560221
0.026033954
0.037238538
0.045727535
0.052581386
-0.0024169538
0.0041066995
-0.0487978
-0.025919629
-0.0044869705
0.01403817
0.0071327358
-0.024506976
-0.071605339
-0.12633703
-0.17792874
-0.21238728
-0.21968235
-0.19810631
-0.15630352
-0.10711111
-0.06133652
-0.024746593
0.0024077211
0.021626183
0.035235616
0.044976179
0.052507467
0.058684317
-0.0053227226
0.0021960492
-0.062347568
-0.03546936
-0.0073188559
0.020782707
0.019343486
-0.012421317
-0.063403331
-0.12652691
-0.19208737
-0.24360458
-0.26591169
-0.25184437
-0.20656545
-0.14930369
-0.090616203
-0.043349704
-0.008468657
0.015957838
0.032567457
0.044123635
0.052366498
0.058946863
0.064466024
-0.0078182279
-0.0014372969
-0.075106722
-0.047766007
-0.012830378
0.026411619
0.031684486
0.00039191595
-0.053710383
-0.12428381
-0.20409851
-0.27542302
-0.31774395
-0.31690052
-0.27168853
-0.20022251
-0.12959159
-0.06832783
-0.022848127
0.0084874227
0.029367295
0.043085736
0.052544747
0.059333281
0.065008634
0.069909766
-0.0098581767
-0.0055642291
-0.088431519
-0.062954395
-0.021068979
0.030253327
0.044165703
0.013217023
-0.043265137
-0.12003504
-0.21376961
-0.30726859
-0.37503008
-0.39478434
-0.35494949
-0.27242796
-0.18100363
-0.10189428
-0.042159046
-0.0012331097
0.025293768
0.042191921
0.052960036
0.060395673
0.065830897
0.070675449
0.075010799
-0.011507379
-0.010806918
-0.10414555
-0.083173182
-0.03287396
0.031347189
0.05511823
0.025284512
-0.032922735
-0.11443321
-0.22108943
-0.33865079
-0.43758497
-0.48716783
-0.46117027
-0.36790895
-0.25191796
-0.14741995
-0.068226106
-0.014209763
0.020230879
0.041282497
0.054108059
0.062044974
0.067617686
0.071839638
0.075945019
0.079775087
-0.012888831
-0.016922557
-0.12060813
-0.10550131
-0.048903706
0.028589827
0.064135877
0.035668214
-0.023615865
-0.10834052
-0.22613582
-0.36875063
-0.5047306
-0.5958708
-0.59612144
-0.49597012
-0.34913273
-0.21042082
-0.10393048
-0.031692594
0.013594619
0.040535834
0.055975425
0.064908559
0.070262504
0.074189124
0.077360254
0.080827247
0.084215282
-0.014042549
-0.023358948
-0.13656991
-0.12761931
-0.066530718
0.023276489
0.070413611
0.043391499
-0.016269501
-0.10274389
-0.2291849
-0.39612318
-0.57235592
-0.71878333
-0.76539231
-0.66809692
-0.48477524
-0.29771783
-0.15345959
-0.055737219
0.0047246298
0.039734358
0.058976686
0.069077456
0.074489503
0.077589325
0.080117401
0.082408964
0.085340243
0.088349501
-0.015015409
-0.029909765
-0.15084525
-0.14907473
-0.084396048
0.014439768
0.073107161
0.047506743
-0.011754227
-0.098586023
-0.2306128
-0.41999628
-0.63641847
-0.8460048
-0.9642853
-0.89035696
-0.67692995
-0.421524
-0.22234958
-0.089145352
-0.0076120988
0.038719252
0.063176143
0.075137561
0.080451975
0.082828783
0.084044501
0.085431109
0.087012623
0.089507861
0.092198402
-0.015255766
-0.035948938
-0.16367881
-0.16925682
-0.10188044
0.0019721723
0.071715018
0.047390998
-0.010856738
-0.09661504
-0.23104987
-0.43935802
-0.69388545
-0.97735703
-1.1863406
-1.1639728
-0.90983932
-0.59866572
-0.32232407
-0.13587601
-0.02501723
0.036930458
0.068788504
0.083343687
0.088845497
0.090085604
0.089966454
0.089676738
0.090173098
0.091204934
0.093357001
0.095784584
-0.014230471
-0.042399269
-0.1745278
-0.1873056
-0.11860216
-0.013508422
0.066014159
0.042832596
-0.014141778
-0.097295224
-0.23097162
-0.45314508
-0.74071135
-1.1002281
-1.4401666
-1.5090889
-1.2022274
-0.82389119
-0.46667794
-0.20529569
-0.050034735
0.033648004
0.07573056
0.094154623
0.10003266
0.10011152
0.09805468
0.095984158
0.094554222
0.094394769
0.095023126
0.096916092
0.099130672
-0.011669374
-0.04960764
-0.18373107
-0.20268983
-0.13409071
-0.031104525
0.056074854
0.032843751
-0.021822762
-0.10083362
-0.23092702
-0.46007895
-0.7772912
-1.1982406
-1.7039881
-1.9033352
-1.5916565
-1.103291
-0.64925926
-0.3052957
-0.089033188
0.02742329
0.08384985
0.10777963
0.11460478
0.11330915
0.10907447
0.10449376
0.10098978
0.098755643
0.09815145
0.098505687
0.10021346
0.10225912
-0.0075600417
-0.057591065
-0.18858265
-0.21687381
-0.14873796
-0.050125389
0.042968913
0.017520172
-0.03399839
-0.10715584
-0.23107917
-0.4584182
-0.80563238
-1.2768828
-1.9680907
-2.3112212
-2.0762016
-1.4797347
-0.88102952
-0.4292305
-0.14621119
0.014376867
0.092438486
0.12437936
0.13291458
0.13031633
0.12341786
0.11595239
0.10957109
0.10510373
0.10236394
0.1014991
0.10169046
0.10327656
0.10519097
-0.0026912338
-0.066282929
-0.18890499
-0.22672314
-0.16319293
-0.073483115
0.027547316
-0.0029788872
-0.050430203
-0.11604341
-0.23117232
-0.44962898
-0.81594375
-1.3426816
-2.1705355
-2.7101031
-2.6528386
-1.9909699
-1.2166335
-0.58725754
-0.21734209
-0.0079388385
0.099304246
0.14366893
0.15525664
0.15152154
0.14170843
0.13070635
0.12100448
0.11346909
0.1084501
0.10546123
0.10449183
0.1046135
0.10613106
0.10794611
0.0019182764
-0.07464762
-0.18415982
-0.23180033
-0.17410769
-0.097833487
0.0042446941
-0.026774899
-0.071240794
-0.12706146
-0.23119508
-0.43725849
-0.80910377
-1.3830185
-2.2770956
-3.0409651
-3.1722474
-2.5653837
-1.6559725
-0.81419002
-0.30887731
-0.037871144
0.10274
0.16444075
0.18152804
0.17723659
0.16430017
0.14932615
0.13556846
0.12450329
0.11637107
0.11114934
0.10812572
0.10718033
0.1073082
0.1088007
0.11054252
0.0057371167
-0.080325065
-0.17400621
-0.23128715
-0.18042742
-0.12070155
-0.023558867
-0.057745354
-0.09475883
-0.14019899
-0.23074591
-0.42273184
-0.78809021
-1.3935021
-2.3053941
-3.2591017
-3.5849321
-3.0740241
-2.0779412
-1.1014989
-0.43832744
-0.078969587
0.10248114
0.18531701
0.21100588
0.20739121
0.19145384
0.17209126
0.15375865
0.13840499
0.12671585
0.11845177
0.11331428
0.11042943
0.10961086
0.10980488
0.11130689
0.11299667
0.0087349705
-0.081716494
-0.1591982
-0.2249569
-0.18092492
-0.14099904
-0.05771294
-0.092591172
-0.12301426
-0.1540113
-0.2300657
-0.40369402
-0.75144988
-1.3637214
-2.2620197
-3.3474603
-3.8498485
-3.4645463
-2.4620077
-1.4005837
-0.60641125
-0.14015291
0.095886973
0.2049516
0.24250312
0.24143513
0.22305295
0.19917728
0.1757618
0.1555855
0.13959859
0.12789175
0.11987193
0.11504722
0.11243721
0.11182476
0.11213064
0.11366884
0.11532306
0.010976115
-0.078759332
-0.14070902
-0.21297698
-0.17694338
-0.15924112
-0.094979965
-0.13486434
-0.15286993
-0.16987803
-0.22807696
-0.38248582
-0.70848725
-1.2939629
-2.1595027
-3.3071479
-3.975919
-3.7084157
-2.757238
-1.6728056
-0.7930307
-0.22689407
0.077942886
0.22051789
0.27425842
0.27827955
0.25856436
0.23038949
0.20165815
0.17613512
0.15534508
0.13949919
0.1282563
0.12077509
0.11643889
0.11420615
0.11385844
0.1143093
0.1159034
0.1175347
-0.072048815
0.012564732
-0.11931961
-0.19592526
-0.17045243
-0.17135879
-0.13355934
-0.1816822
-0.18961421
-0.18435137
-0.22515622
-0.36108458
-0.66000221
-1.200496
-2.0150871
-3.1596254
-3.9125213
-3.7985913
-2.9425735
-1.8980697
-0.9748673
-0.3368744
0.042622158
0.22815387
0.30318488
0.31612389
0.29692173
0.26515671
0.23117031
0.20004305
0.17395396
0.15351816
0.13841655
0.12800754
0.12128657
0.11756798
0.11578571
0.11574333
0.11636155
0.11802533
0.11964283
-0.096219718
-0.062243603
0.01350197
-0.17471683
-0.16158381
-0.17249163
-0.17120397
-0.23129049
-0.23209145
-0.20468856
-0.2167746
-0.33462561
-0.60518605
-1.0931376
-1.844263
-2.9358448
-3.7248203
-3.743018
-3.0196333
-2.0689443
-1.1407988
-0.46279896
-0.016036789
0.22316992
0.32538799
0.35199783
0.3363962
0.30240927
0.26368295
0.22696082
0.19533555
0.16986491
0.15052152
0.13661819
0.1273156
0.12151358
0.11850167
0.11721796
0.11750627
0.11830504
0.1200473
0.12165741
-0.15056615
-0.073602463
-0.05051371
0.013714924
-0.1501626
-0.16318127
-0.20550778
-0.28196882
-0.27797881
-0.23106934
-0.21133922
-0.30048998
-0.53489758
-0.9823826
-1.6620369
-2.6674402
-3.4480595
-3.5716496
-3.0001994
-2.1611957
-1.2911071
-0.59967039
-0.099955677
0.19878764
0.33693038
0.38188824
0.37436308
0.34049069
0.29813481
0.25624348
0.21908859
0.18838573
0.16441594
0.14670826
0.13433019
0.12632392
0.1215462
0.11929619
0.11853809
0.11916955
0.12015475
0.12198038
0.12358695
-0.13567234
-0.12473381
-0.05239211
-0.037898421
0.013343671
-0.14612393
-0.23464918
-0.33068889
-0.32571254
-0.26036786
-0.20926685
-0.2703315
-0.45865111
-0.84301141
-1.4844615
-2.37938
-3.1179886
-3.3165328
-2.8956681
-2.1700476
-1.4192599
-0.7443326
-0.20855175
0.1485828
0.33286594
0.40175489
0.40718617
0.3770921
0.33295944
0.28686073
0.24455995
0.20864593
0.17989673
0.15806182
0.14237172
0.13174022
0.12515121
0.12145874
0.11999769
0.11977474
0.12075174
0.12192348
0.1238341
0.12543887
-0.125788
-0.117084
-0.098257942
-0.032655026
-0.025568511
0.01260962
-0.25765925
-0.3739578
-0.37263794
-0.29065024
-0.20885391
-0.24417789
-0.39044851
-0.70422817
-1.2634063
-2.0950934
-2.7766904
-3.017704
-2.7305505
-2.1313084
-1.5216605
-0.89301017
-0.34066056
0.069034773
0.30682511
0.40784643
0.43073233
0.4092101
0.36608337
0.31736883
0.27077421
0.23000519
0.19651275
0.17043912
0.15117327
0.13775132
0.12900122
0.12389391
0.12131109
0.12064302
0.12095117
0.12226846
0.12362228
0.12561648
0.12721946
-0.27384274
-0.10512878
-0.095280559
-0.072058272
-0.014147865
-0.014311262
0.011587477
-0.4086747
-0.41441131
-0.31889361
-0.20879362
-0.22048114
-0.32936074
-0.57716503
-1.050876
-1.7753374
-2.4474162
-2.720972
-2.5437648
-2.0751944
-1.6049432
-1.0438784
-0.49490668
-0.041774771
0.25304185
0.39563063
0.44126016
0.43319222
0.3950009
0.34591724
0.29642712
0.25156293
0.21365325
0.18338612
0.16046869
0.14404764
0.13303915
0.12623548
0.1226284
0.12115015
0.12126132
0.12208663
0.12373311
0.12525995
0.12733351
0.12893417
-0.4325394
-0.28347669
-0.086525886
-0.071712596
-0.047507851
0.0025518093
-0.0045234588
0.010351813
-0.44751302
-0.34126599
-0.21025427
-0.1987814
-0.27341926
-0.46013507
-0.84992217
-1.4759263
-2.0986429
-2.4338934
-2.3636073
-2.0193061
-1.6710308
-1.1954616
-0.67066
-0.18544017
0.16678163
0.35956881
0.43536188
0.44526936
0.41679254
0.37035026
0.31990554
0.27216195
0.23050462
0.19633233
0.16981056
0.15034418
0.13691953
0.12838631
0.12353825
0.12141335
0.12101215
0.1218763
0.1231973
0.12515558
0.12684219
0.12898976
0.13058766
-0.46924537
-0.44484255
-0.28618807
-0.072319322
-0.048444748
-0.025496098
0.016789303
0.0035370533
0.0090567714
-0.35551822
-0.21372508
-0.17883414
-0.2209499
-0.35546661
-0.66223021
-1.1861914
-1.769961
-2.1245147
-2.1806089
-1.9691243
-1.7199559
-1.344135
-0.86807678
-0.36472781
0.043367003
0.29385174
0.4090846
0.44219672
0.42828506
0.38834143
0.33939222
0.29043541
0.24606333
0.20855654
0.17867404
0.1562057
0.14034367
0.12997047
0.1239086
0.12098137
0.12029304
0.12092582
0.12250737
0.12429434
0.12654051
0.1283727
0.13059069
0.13218409
-0.36156202
-0.47865256
-0.44521123
-0.28151841
-0.061820416
-0.026985432
-0.0065909375
0.028103729
0.0095730694
0.0076464475
-0.21706628
-0.15946805
-0.17153015
-0.26292961
-0.49582136
-0.92214426
-1.4384856
-1.837245
-1.9754033
-1.9100533
-1.7610763
-1.4882875
-1.085995
-0.58611632
-0.12380957
0.19217234
0.35758929
0.42101143
0.42638883
0.39743296
0.35296674
0.30488639
0.25920451
0.21921083
0.1864321
0.16115428
0.1428907
0.13067877
0.12333732
0.11969181
0.11861779
0.1193015
0.12091388
0.12316689
0.12538117
0.12788962
0.12985788
0.13214464
0.13372698
-0.21782887
-0.36055393
-0.47534764
-0.43499139
-0.27032846
-0.053477465
-0.0089364496
0.0089770423
0.036310702
0.013741497
0.0061889266
-0.13958567
-0.12595935
-0.18127318
-0.35166694
-0.6885399
-1.1346611
-1.5356997
-1.7689722
-1.8258613
-1.7978732
-1.6330493
-1.3203079
-0.8567752
-0.34710611
0.045919745
0.27505181
0.37804663
0.40817368
0.39500672
0.35863143
0.31389656
0.26868775
0.22737812
0.19237982
0.16465692
0.14412772
0.13010449
0.12150648
0.11711986
0.11579772
0.1164867
0.11846445
0.12098966
0.12385633
0.12645727
0.12921174
0.13131001
0.13365804
0.13521931
-0.11811455
-0.21372436
-0.35176778
-0.46037538
-0.41553616
-0.25456995
-0.046284893
0.0052185147
0.02135674
0.041868093
0.016538134
0.0047706578
-0.084032094
-0.10965366
-0.22826427
-0.48704578
-0.86107824
-1.2462365
-1.5379288
-1.7160452
-1.8094093
-1.7835295
-1.5704889
-1.1729917
-0.64166959
-0.15754625
0.15297299
0.30933832
0.37097894
0.37866897
0.3546042
0.31604009
0.27324893
0.23206969
0.19575724
0.1661363
0.14360542
0.12785488
0.11802147
0.11293958
0.11138829
0.11227011
0.11461609
0.11779552
0.12115228
0.12457211
0.12753334
0.13052851
0.13273742
0.13512424
0.13673238
-0.044829931
-0.094275726
-0.20375472
-0.33502269
-0.43496021
-0.38880887
-0.23575804
-0.039920211
0.015739917
0.0304325
0.045017023
0.018228854
0.0034818529
-0.047200687
-0.12434607
-0.31719468
-0.62283621
-0.97688629
-1.3013279
-1.5683115
-1.7820978
-1.9204563
-1.8514324
-1.5251997
-1.0089322
-0.43448647
-0.017746889
0.21079218
0.31256449
0.34625233
0.33886072
0.30978369
0.27181553
0.23234946
0.19592543
0.16499111
0.14085546
0.12354616
0.11252261
0.10676529
0.10505572
0.10618994
0.10913791
0.11301899
0.11729103
0.1213946
0.12532721
0.12863957
0.13185177
0.13412416
0.13658749
0.13830095
0.0071057664
-0.0079255144
-0.068519392
-0.18716575
-0.31129379
-0.4003411
-0.35709172
-0.21568992
-0.034315745
0.022772353
0.036273936
0.046419742
0.018747401
0.0025203186
-0.038130321
-0.17741888
-0.42144017
-0.73603843
-1.0688529
-1.3956134
-1.711448
-1.989882
-2.1675281
-1.9416776
-1.4384873
-0.79551717
-0.24762247
0.075484729
0.230602
0.29649513
0.31023963
0.29397012
0.26334331
0.2274361
0.1920821
0.16076601
0.13542473
0.11681805
0.10467734
0.098263499
0.096419673
0.097904213
0.10155294
0.10641249
0.11168888
0.11693991
0.12173066
0.12616218
0.12979117
0.1331402
0.13549839
0.13810911
0.13988253
0.032694724
0.054436543
0.026150315
-0.041669532
-0.16419005
-0.2821939
-0.36105924
-0.3227365
-0.19617192
-0.029232422
0.027021648
0.03997205
0.046769703
0.018746952
0.0018367522
-0.065651645
-0.25572581
-0.52751954
-0.85084824
-1.209402
-1.601217
-2.0151488
-2.3807454
-2.4819538
-1.960169
-1.2457701
-0.54080944
-0.10031775
0.12345241
0.22825012
0.26768232
0.26772333
0.24695045
0.21661572
0.18373948
0.15297528
0.12703924
0.10734076
0.094218292
0.087141016
0.08516641
0.087034515
0.091510311
0.097485829
0.10408486
0.11061087
0.11675568
0.12220912
0.12709521
0.13092423
0.13438996
0.13697295
0.13965275
0.1414774
0.023666573
0.090845422
0.094972918
0.057636858
-0.014961927
-0.13637038
-0.24974521
-0.31867402
-0.28777627
-0.17742702
-0.024460636
0.030315674
0.041406278
0.046389194
0.018802615
0.0013240567
-0.12258638
-0.35223382
-0.65375924
-1.020893
-1.4616517
-1.9889643
-2.5661796
-2.9080202
-2.6947706
-1.7666606
-0.92019034
-0.31911849
-0.010299159
0.14111782
0.21058979
0.23039282
0.22209575
0.19926932
0.1704426
0.14125651
0.11540344
0.094980936
0.080925767
0.07320098
0.071026921
0.073279557
0.078630174
0.085878824
0.093978441
0.10213717
0.10979498
0.11679122
0.12284992
0.12803138
0.13202465
0.13579828
0.13847522
0.14122048
0.14308567
-0.017535429
0.094566341
0.13790994
0.12974127
0.086328818
0.011079789
-0.10545894
-0.21503391
-0.27517002
-0.25318236
-0.15854668
-0.018083214
0.032408909
0.041797242
0.044898485
0.019118621
0.0011835622
-0.20874466
-0.48135311
-0.83897385
-1.3035589
-1.9148957
-2.6973561
-3.3448333
-3.3905414
-2.5408171
-1.3605033
-0.58695156
-0.17016399
0.035358752
0.13902241
0.18180591
0.1884115
0.17512503
0.15180636
0.12537942
0.10033386
0.079602963
0.064760012
0.056302973
0.053854809
0.056385384
0.062615835
0.071207234
0.081001042
0.09101186
0.10057195
0.10929034
0.11706538
0.12353147
0.1289563
0.13337989
0.13724256
0.14001448
0.1428114
0.14470744
-0.09354302
0.065177885
0.14973157
0.17594959
0.15917411
0.11195212
0.036248812
-0.073985251
-0.17918748
-0.23248799
-0.21817651
-0.14167354
-0.0097076837
0.033495841
0.041078579
0.042790806
0.019459115
0.001472355
-0.33487203
-0.67056699
-1.1376613
-1.812356
-2.7869793
-3.73272
-4.1678889
-3.4304651
-1.9773485
-0.89871914
-0.35431801
-0.087908482
0.053875894
0.12216534
0.14600478
0.14391788
0.12774146
0.10514964
0.081770113
0.061189533
0.045731364
0.03649951
0.033570204
0.036219592
0.043219624
0.053171981
0.064762653
0.076860438
0.088575664
0.099422811
0.10911071
0.11743499
0.12428076
0.13026362
0.13477432
0.13874271
0.1415857
0.14442513
0.14634264
-0.21297118
-0.0012162681
0.12862516
0.19246171
0.20617263
0.18359105
0.13435348
0.060050465
-0.044097217
-0.14407149
-0.18959864
-0.18742104
-0.12462044
-0.0027985253
0.033595054
0.039662018
0.039904616
0.019760756
0.001644151
-0.52048184
-0.97281487
-1.6864315
-2.7940192
-4.0659262
-4.9552294
-4.4767682
-2.7984547
-1.3192395
-0.56189588
-0.22538455
-0.043818235
0.05248435
0.095044918
0.10591853
0.098029508
0.080611923
0.059685497
0.039827029
0.02396334
0.013905915
0.010292942
0.012771356
0.020301331
0.031523431
0.044955878
0.059288029
0.073427123
0.086671198
0.098692288
0.10910723
0.11801985
0.1255781
0.13161482
0.13624337
0.14028919
0.14318823
0.14606088
0.14799113
-0.39057453
-0.11171826
0.070355202
0.17694915
0.22484254
0.22970932
0.20339653
0.15355715
0.081646909
-0.015958433
-0.11093358
-0.1560198
-0.15686879
-0.10689379
0.002092094
0.033013878
0.037934936
0.036549216
0.019727891
0.0008514134
-0.81774941
-1.5348048
-2.6982156
-4.296308
-5.6958985
-5.6242366
-3.8239311
-1.9141692
-0.82304616
-0.37726908
-0.15080818
-0.026505293
0.036555668
0.061134457
0.063037952
0.051580874
0.034223354
0.01564618
-0.0003209868
-0.011237495
-0.0157829
-0.013816677
-0.0060980052
0.0061034747
0.02132107
0.0379732
0.054726617
0.07064905
0.085282085
0.098249647
0.10957609
0.11935081
0.12692073
0.13306393
0.13777133
0.14188139
0.14482015
0.14771789
0.14965242
-0.67798226
-0.27865622
-0.031090665
0.1253075
0.212831
0.24876741
0.24741524
0.21893253
0.16932588
0.10104122
0.0093141172
-0.08500627
-0.12392982
-0.12925579
-0.087483356
0.0049269598
0.031958426
0.036152509
0.033208011
0.018905832
-0.00017923505
-1.3697951
-2.5466636
-4.3713707
-6.3049467
-6.7712357
-5.0508058
-2.7022182
-1.197912
-0.55792557
-0.2678011
-0.11179817
-0.029180449
0.010613745
0.022522604
0.018483871
0.0052541668
-0.011116885
-0.026838047
-0.038580037
-0.044326948
-0.043293749
-0.03583561
-0.023024109
-0.0063056435
0.012643015
0.032136173
0.050946013
0.068481617
0.08433252
0.098677771
0.11101674
0.12073136
0.128383
0.13458823
0.13935838
0.14351607
0.14647982
0.14939542
0.15132585
-1.2107643
-0.55254004
-0.18757136
0.032081896
0.16620747
0.23852449
0.26549694
0.25994623
0.23055648
0.18243455
0.11702453
0.027880666
-0.061757082
-0.095844531
-0.10366911
-0.068108941
0.0066884354
0.030667079
0.034354951
0.030706128
0.017274857
-0.00091748661
-2.3644725
-4.3165355
-6.7139148
-7.7936165
-6.3699853
-3.6876825
-1.675577
-0.81593264
-0.39953634
-0.20491427
-0.099268835
-0.045990495
-0.022404375
-0.019192582
-0.026757709
-0.040483964
-0.055248804
-0.067693072
-0.074877837
-0.075268114
-0.068633043
-0.055732986
-0.037888182
-0.016839682
0.005367062
0.027207108
0.047861728
0.066951428
0.084838962
0.10032234
0.1125138
0.12225325
0.12993562
0.13618886
0.14100015
0.14519096
0.14816489
0.15109241
0.15301116
-2.1764561
-1.0593553
-0.44697281
-0.11504607
0.07960864
0.19532675
0.25581366
0.27654448
0.26863027
0.23939894
0.19175431
0.12813196
0.040342454
-0.039217699
-0.070936802
-0.079144423
-0.048857093
0.0085964239
0.029424351
0.032543898
0.02881696
0.014908767
-0.0017079847
-4.2062623
-6.8849673
-8.5504637
-7.5839221
-4.7843638
-2.3002344
-1.1361969
-0.58687534
-0.30339356
-0.17620398
-0.10555792
-0.072884501
-0.060248667
-0.062537934
-0.071959238
-0.085403494
-0.098114009
-0.10687793
-0.10919396
-0.10406872
-0.091743958
-0.073324787
-0.050561739
-0.025662672
-0.00085134495
0.023048532
0.045668034
0.067689953
0.086811326
0.10204019
0.11416761
0.12388216
0.13158152
0.13785996
0.14269389
0.14690341
0.14987206
0.15280692
0.15470928
-3.9965227
-1.979681
-0.91935213
-0.36010867
-0.060004176
0.11363203
0.21486677
0.26696911
0.28356894
0.27364538
0.24410776
0.19762477
0.13158203
0.052134737
-0.019086425
-0.049066588
-0.056926234
-0.032048792
0.010957653
0.028323356
0.030858783
0.027635236
0.01361781
-0.00242697
-6.7877102
-8.9254603
-8.5414169
-5.9264287
-3.0617917
-1.5319286
-0.81487086
-0.44434552
-0.25189453
-0.17224372
-0.12524453
-0.10668627
-0.10081379
-0.1063437
-0.11675254
-0.12947202
-0.13972542
-0.14441049
-0.14154627
-0.13063876
-0.11235599
-0.088399218
-0.061285713
-0.033391704
-0.006258774
0.020095311
0.046837506
0.070139254
0.088885684
0.10392235
0.11594127
0.12562246
0.13331387
0.13959825
0.14443589
0.14864932
0.15159968
0.154536
0.15641933
-6.4388962
-3.6711154
-1.7782419
-0.79679891
-0.29222104
-0.020150664
0.13657224
0.22726916
0.27309149
0.28543283
0.27386242
0.24713686
0.19618187
0.13449387
0.061882274
-0.0020904807
-0.03010915
-0.037094438
-0.018119096
0.013562766
0.027441814
0.02933699
0.026289924
0.014569003
-0.0028599944
-8.8624776
-9.0768286
-6.8568855
-3.8345738
-2.0033227
-1.0843034
-0.61494188
-0.36072213
-0.23207679
-0.18603898
-0.15412571
-0.14436036
-0.14232249
-0.14998477
-0.1611252
-0.17281033
-0.18018161
-0.18033896
-0.17180924
-0.15459767
-0.13014639
-0.10123236
-0.070823672
-0.040326317
-0.010104935
0.021922818
0.049936564
0.072746474
0.091122095
0.10593635
0.11784234
0.12746632
0.13512913
0.14139927
0.1462202
0.15042483
0.15335132
0.1562776
0.15814049
-8.3933099
-5.9000869
-3.2977794
-1.581731
-0.6948344
-0.24071413
0.0072072517
0.15087098
0.2330669
0.27237691
0.28209929
0.27428158
0.24018751
0.19444957
0.13596387
0.069444543
0.012947054
-0.013795457
-0.02037919
-0.0066162605
0.016224519
0.026794923
0.027959126
0.024093539
0.015655818
-0.0029140595
-9.1000511
-7.4237947
-4.5100896
-2.5101598
-1.3926208
-0.81285482
-0.49176228
-0.31946409
-0.23453073
-0.21193008
-0.1881836
-0.18317017
-0.18374688
-0.19346522
-0.2053568
-0.2156785
-0.21960676
-0.21450694
-0.19947076
-0.17548084
-0.14542089
-0.11283412
-0.079496876
-0.045272854
-0.0073847603
0.0258682
0.053267706
0.075480364
0.093503293
0.10809784
0.11987268
0.12941027
0.13702224
0.1432559
0.14804386
0.15222905
0.15512248
0.15803012
0.15987184
-8.6185579
-7.6225271
-5.2293564
-2.912994
-1.4000023
-0.61123521
-0.20282713
0.024462138
0.15689703
0.23052845
0.26633481
0.2822862
0.26853605
0.23647267
0.19105983
0.1358206
0.075363374
0.025437927
0.00025762181
-0.0065807373
0.002854527
0.018796354
0.026372103
0.026696465
0.02222485
0.01611648
-0.0026502991
-7.5455025
-5.0230909
-2.9951948
-1.7203553
-1.0349138
-0.64289643
-0.42300232
-0.30877735
-0.25240739
-0.24432449
-0.22359321
-0.22138252
-0.22506883
-0.23732666
-0.24996234
-0.2583596
-0.25784155
-0.24625268
-0.2238879
-0.19361281
-0.15946013
-0.12365155
-0.085573037
-0.041409202
-0.0023866141
0.030157875
0.056693027
0.078361554
0.096027848
0.11041944
0.12202453
0.13144859
0.13898475
0.14516525
0.14991126
0.15405514
0.15691031
0.15979165
0.16161268
-7.2036611
-7.7847851
-6.6521679
-4.5392983
-2.5497498
-1.2395979
-0.54418814
-0.17693894
0.032017134
0.15351422
0.2225849
0.26714396
0.27606398
0.26257675
0.23017212
0.18633484
0.13419741
0.079620404
0.035413615
0.011879493
0.0047193557
0.010568739
0.021163273
0.026124933
0.025615043
0.020869923
0.016191045
-0.002181732
-5.2847729
-3.3291515
-2.0312433
-1.2679188
-0.81225628
-0.5417783
-0.3941164
-0.32009999
-0.27923694
-0.27746068
-0.25766356
-0.25889263
-0.26717751
-0.28251655
-0.29550537
-0.30074604
-0.29406575
-0.27471538
-0.24537833
-0.21056498
-0.17283831
-0.13129588
-0.080321553
-0.035124655
0.0031174516
0.034472181
0.060281593
0.081426247
0.098691881
0.1128391
0.12427793
0.1335725
0.14101616
0.14712964
0.15181139
0.15590033
0.15871099
0.16156035
0.16336226
-5.2012029
-6.5217692
-6.7259045
-5.6313256
-3.8921854
-2.2197578
-1.1018542
-0.49433032
-0.16262301
0.030181502
0.14492374
0.22502719
0.26164257
0.26956542
0.25413571
0.22244589
0.17998072
0.13126614
0.082159059
0.043022149
0.021294216
0.013838989
0.016766125
0.02324216
0.025958165
0.024713915
0.019792507
0.015958229
-0.0015797355
-3.485271
-2.277975
-1.4881549
-0.98954101
-0.67612105
-0.49102623
-0.39494729
-0.34552155
-0.3079908
-0.30678829
-0.29002321
-0.29713578
-0.31163098
-0.33009588
-0.34203317
-0.3418541
-0.32715697
-0.30016689
-0.2658122
-0.22703331
-0.18240403
-0.12445486
-0.072552008
-0.028124743
0.0085511884
0.038958251
0.064031985
0.084661365
0.10154966
0.11537099
0.12663062
0.13578652
0.14312295
0.14913486
0.15374014
0.15775993
0.16052073
0.16333453
0.16511907
-3.4877063
-4.8164195
-5.6355836
-5.6037132
-4.6501915
-3.2884389
-1.9197608
-0.9915354
-0.45999977
-0.15628216
0.024180578
0.15051834
0.22206692
0.2560088
0.26038973
0.24415355
0.21292636
0.17235674
0.12712812
0.083245595
0.048661973
0.028738137
0.021053727
0.021645886
0.024969279
0.025827171
0.023903664
0.018885594
0.015462211
-0.00091861837
-2.4210909
-1.6659933
-1.1577535
-0.81749587
-0.60240745
-0.47922939
-0.41673441
-0.3756893
-0.33213739
-0.3313298
-0.3226858
-0.33863813
-0.36024424
-0.38045981
-0.38842638
-0.38024
-0.3572879
-0.32476447
-0.28601011
-0.23898431
-0.17387497
-0.11495549
-0.06378625
-0.02132252
0.014163918
0.043603463
0.067957775
0.08804773
0.10458214
0.11805767
0.12909977
0.13808953
0.14528291
0.15117679
0.15569056
0.15962885
0.16233796
0.16511247
0.1668804
-2.43245
-3.2938438
-4.2351915
-4.6972407
-4.5288501
-3.751594
-2.7209558
-1.6634454
-0.90256187
-0.43144142
-0.15221568
0.035802381
0.15285986
0.21915111
0.24749754
0.24959309
0.23246894
0.2020869
0.16360563
0.12206601
0.082782476
0.052533597
0.034439056
0.026599183
0.025373856
0.026300846
0.025660144
0.023142012
0.018030298
0.014744954
-0.0002844192
-1.7753047
-1.2964447
-0.95230723
-0.72070537
-0.57848659
-0.49782321
-0.4495324
-0.39953331
-0.34900353
-0.35412815
-0.35931168
-0.38643806
-0.4140453
-0.43243292
-0.43285427
-0.41590474
-0.38687187
-0.34944892
-0.30094531
-0.22872618
-0.16247358
-0.10412336
-0.055366793
-0.01433308
0.019925509
0.048432589
0.072059597
0.091593551
0.1077048
0.12088499
0.13168162