/*--------------------------------*- C++ -*----------------------------------*\
| =========                 |                                                 |
| \\      /  F ield         | OpenFOAM: The Open Source CFD Toolbox           |
|  \\    /   O peration     | Version:  v2012                                 |
|   \\  /    A nd           | Website:  www.openfoam.com                      |
|    \\/     M anipulation  |                                                 |
\*---------------------------------------------------------------------------*/
FoamFile
{
    version     2.0;
    format      ascii;
    class       pointVectorField;
    location    "48.5802297148300042";
    object      pointDisplacement;
}
// * * * * * * * * * * * * * * * * * * * * * * * * * * * * * * * * * * * * * //

dimensions      [0 1 0 0 0 0 0];


internalField   nonuniform List<vector> 
18840
(
(0.25935793 0 0)
(0.25941446 0 0)
(0.25958309 0 0)
(0.25986202 0 0)
(0.26024973 0 0)
(0.26074502 0 0)
(0.26134677 0 0)
(0.262054 0 0)
(0.26286582 0 0)
(0.26378143 0 0)
(0.26480005 0 0)
(0.26592097 0 0)
(0.26714347 0 0)
(0.2684668 0 0)
(0.26989025 0 0)
(0.271413 0 0)
(0.27303419 0 0)
(0.27475268 0 0)
(0.27656706 0 0)
(0.27847562 0 0)
(0.28086217 0 0)
(0.25935793 0 0)
(0.25941417 0 0)
(0.25958188 0 0)
(0.25985924 0 0)
(0.26024468 0 0)
(0.26073696 0 0)
(0.26133492 0 0)
(0.26203755 0 0)
(0.26284392 0 0)
(0.26375316 0 0)
(0.26476448 0 0)
(0.26587709 0 0)
(0.26709023 0 0)
(0.26840311 0 0)
(0.26981495 0 0)
(0.2713249 0 0)
(0.27293205 0 0)
(0.27463535 0 0)
(0.27643358 0 0)
(0.27832544 0 0)
(0.28027981 0 0)
(0.25935793 0 0)
(0.25941391 0 0)
(0.25958082 0 0)
(0.25985677 0 0)
(0.26024016 0 0)
(0.26072965 0 0)
(0.26132407 0 0)
(0.2620223 0 0)
(0.26282335 0 0)
(0.26372627 0 0)
(0.2647302 0 0)
(0.26583425 0 0)
(0.26703755 0 0)
(0.26833923 0 0)
(0.26973839 0 0)
(0.27123409 0 0)
(0.27282535 0 0)
(0.2745111 0 0)
(0.27629024 0 0)
(0.27816162 0 0)
(0.28011953 0 0)
(0.25935793 0 0)
(0.25941357 0 0)
(0.25957947 0 0)
(0.25985367 0 0)
(0.26023452 0 0)
(0.26072062 0 0)
(0.26131072 0 0)
(0.26200363 0 0)
(0.26279826 0 0)
(0.26369357 0 0)
(0.26468858 0 0)
(0.26578228 0 0)
(0.2669737 0 0)
(0.2682618 0 0)
(0.26964553 0 0)
(0.2711238 0 0)
(0.27269544 0 0)
(0.27435923 0 0)
(0.27611382 0 0)
(0.27795786 0 0)
(0.27990847 0 0)
(0.25935793 0 0)
(0.25941317 0 0)
(0.25957785 0 0)
(0.25984998 0 0)
(0.26022786 0 0)
(0.26071003 0 0)
(0.26129513 0 0)
(0.2619819 0 0)
(0.26276914 0 0)
(0.2636557 0 0)
(0.26464047 0 0)
(0.26572231 0 0)
(0.26690009 0 0)
(0.2681726 0 0)
(0.26953863 0 0)
(0.27099685 0 0)
(0.27254588 0 0)
(0.27418424 0 0)
(0.27591033 0 0)
(0.27772245 0 0)
(0.27965869 0 0)
(0.25935793 0 0)
(0.25941271 0 0)
(0.25957599 0 0)
(0.25984575 0 0)
(0.26022027 0 0)
(0.26069801 0 0)
(0.26127755 0 0)
(0.2619575 0 0)
(0.26273657 0 0)
(0.26361348 0 0)
(0.26458698 0 0)
(0.26565578 0 0)
(0.26681859 0 0)
(0.26807403 0 0)
(0.26942068 0 0)
(0.27085701 0 0)
(0.27238137 0 0)
(0.27399205 0 0)
(0.27568714 0 0)
(0.27746472 0 0)
(0.27938131 0 0)
(0.25935793 0 0)
(0.25941218 0 0)
(0.25957388 0 0)
(0.25984099 0 0)
(0.26021177 0 0)
(0.26068463 0 0)
(0.26125808 0 0)
(0.26193064 0 0)
(0.26270092 0 0)
(0.26356749 0 0)
(0.26452897 0 0)
(0.26558393 0 0)
(0.26673088 0 0)
(0.2679683 0 0)
(0.26929455 0 0)
(0.27070791 0 0)
(0.27220647 0 0)
(0.2737883 0 0)
(0.27545119 0 0)
(0.27719294 0 0)
(0.27908587 0 0)
(0.25935793 0 0)
(0.25941159 0 0)
(0.25957151 0 0)
(0.25983567 0 0)
(0.2602023 0 0)
(0.2606698 0 0)
(0.26123662 0 0)
(0.26190124 0 0)
(0.26266212 0 0)
(0.26351777 0 0)
(0.26446665 0 0)
(0.26550718 0 0)
(0.26663771 0 0)
(0.26785655 0 0)
(0.26916188 0 0)
(0.27055176 0 0)
(0.2720241 0 0)
(0.27357666 0 0)
(0.27520706 0 0)
(0.2769127 0 0)
(0.27877894 0 0)
(0.25935793 0 0)
(0.25941093 0 0)
(0.25956889 0 0)
(0.25982977 0 0)
(0.26019182 0 0)
(0.26065343 0 0)
(0.26121304 0 0)
(0.26186906 0 0)
(0.26261992 0 0)
(0.26346402 0 0)
(0.26439971 0 0)
(0.26542528 0 0)
(0.26653894 0 0)
(0.26773881 0 0)
(0.26902291 0 0)
(0.27038913 0 0)
(0.27183516 0 0)
(0.27335854 0 0)
(0.27495661 0 0)
(0.27662653 0 0)
(0.27846359 0 0)
(0.25935793 0 0)
(0.25941021 0 0)
(0.259566 0 0)
(0.2598233 0 0)
(0.26018035 0 0)
(0.26063555 0 0)
(0.26118732 0 0)
(0.26183409 0 0)
(0.26257423 0 0)
(0.2634061 0 0)
(0.26432796 0 0)
(0.265338 0 0)
(0.26643431 0 0)
(0.26761486 0 0)
(0.26887752 0 0)
(0.27021998 0 0)
(0.27163979 0 0)
(0.27313425 0 0)
(0.27470049 0 0)
(0.27633539 0 0)
(0.27814128 0 0)
(0.25935793 0 0)
(0.25940954 0 0)
(0.2595633 0 0)
(0.25981722 0 0)
(0.26016953 0 0)
(0.26061863 0 0)
(0.26116294 0 0)
(0.26180085 0 0)
(0.26253076 0 0)
(0.26335097 0 0)
(0.26425971 0 0)
(0.26525507 0 0)
(0.26633504 0 0)
(0.26749748 0 0)
(0.26874011 0 0)
(0.27006047 0 0)
(0.2714559 0 0)
(0.27292354 0 0)
(0.27446028 0 0)
(0.27606275 0 0)
(0.2778369 0 0)
(0.25935793 0 0)
(0.25941446 0 0)
(0.25958309 0 0)
(0.25986202 0 0)
(0.26024973 0 0)
(0.26074502 0 0)
(0.26134677 0 0)
(0.262054 0 0)
(0.26286582 0 0)
(0.26378143 0 0)
(0.26480005 0 0)
(0.26592097 0 0)
(0.26714347 0 0)
(0.2684668 0 0)
(0.26989025 0 0)
(0.271413 0 0)
(0.27303419 0 0)
(0.27475268 0 0)
(0.27656706 0 0)
(0.27847562 0 0)
(0.28086217 0 0)
(0.25935793 0 0)
(0.25941417 0 0)
(0.25958188 0 0)
(0.25985924 0 0)
(0.26024468 0 0)
(0.26073696 0 0)
(0.26133492 0 0)
(0.26203755 0 0)
(0.26284392 0 0)
(0.26375316 0 0)
(0.26476448 0 0)
(0.26587709 0 0)
(0.26709023 0 0)
(0.26840311 0 0)
(0.26981495 0 0)
(0.2713249 0 0)
(0.27293205 0 0)
(0.27463535 0 0)
(0.27643358 0 0)
(0.27832544 0 0)
(0.28027981 0 0)
(0.25935793 0 0)
(0.25941391 0 0)
(0.25958082 0 0)
(0.25985677 0 0)
(0.26024016 0 0)
(0.26072965 0 0)
(0.26132407 0 0)
(0.2620223 0 0)
(0.26282335 0 0)
(0.26372627 0 0)
(0.2647302 0 0)
(0.26583425 0 0)
(0.26703755 0 0)
(0.26833923 0 0)
(0.26973839 0 0)
(0.27123409 0 0)
(0.27282535 0 0)
(0.2745111 0 0)
(0.27629024 0 0)
(0.27816162 0 0)
(0.28011953 0 0)
(0.25935793 0 0)
(0.25941357 0 0)
(0.25957947 0 0)
(0.25985367 0 0)
(0.26023452 0 0)
(0.26072062 0 0)
(0.26131072 0 0)
(0.26200363 0 0)
(0.26279826 0 0)
(0.26369357 0 0)
(0.26468858 0 0)
(0.26578228 0 0)
(0.2669737 0 0)
(0.2682618 0 0)
(0.26964553 0 0)
(0.2711238 0 0)
(0.27269544 0 0)
(0.27435923 0 0)
(0.27611382 0 0)
(0.27795786 0 0)
(0.27990847 0 0)
(0.25935793 0 0)
(0.25941317 0 0)
(0.25957785 0 0)
(0.25984998 0 0)
(0.26022786 0 0)
(0.26071003 0 0)
(0.26129513 0 0)
(0.2619819 0 0)
(0.26276914 0 0)
(0.2636557 0 0)
(0.26464047 0 0)
(0.26572231 0 0)
(0.26690009 0 0)
(0.2681726 0 0)
(0.26953863 0 0)
(0.27099685 0 0)
(0.27254588 0 0)
(0.27418424 0 0)
(0.27591033 0 0)
(0.27772245 0 0)
(0.27965869 0 0)
(0.25935793 0 0)
(0.25941271 0 0)
(0.25957599 0 0)
(0.25984575 0 0)
(0.26022027 0 0)
(0.26069801 0 0)
(0.26127755 0 0)
(0.2619575 0 0)
(0.26273657 0 0)
(0.26361348 0 0)
(0.26458698 0 0)
(0.26565578 0 0)
(0.26681859 0 0)
(0.26807403 0 0)
(0.26942068 0 0)
(0.27085701 0 0)
(0.27238137 0 0)
(0.27399205 0 0)
(0.27568714 0 0)
(0.27746472 0 0)
(0.27938131 0 0)
(0.25935793 0 0)
(0.25941218 0 0)
(0.25957388 0 0)
(0.25984099 0 0)
(0.26021177 0 0)
(0.26068463 0 0)
(0.26125808 0 0)
(0.26193064 0 0)
(0.26270092 0 0)
(0.26356749 0 0)
(0.26452897 0 0)
(0.26558393 0 0)
(0.26673088 0 0)
(0.2679683 0 0)
(0.26929455 0 0)
(0.27070791 0 0)
(0.27220647 0 0)
(0.2737883 0 0)
(0.27545119 0 0)
(0.27719294 0 0)
(0.27908587 0 0)
(0.25935793 0 0)
(0.25941159 0 0)
(0.25957151 0 0)
(0.25983567 0 0)
(0.2602023 0 0)
(0.2606698 0 0)
(0.26123662 0 0)
(0.26190124 0 0)
(0.26266212 0 0)
(0.26351777 0 0)
(0.26446665 0 0)
(0.26550718 0 0)
(0.26663771 0 0)
(0.26785655 0 0)
(0.26916188 0 0)
(0.27055176 0 0)
(0.2720241 0 0)
(0.27357666 0 0)
(0.27520706 0 0)
(0.2769127 0 0)
(0.27877894 0 0)
(0.25935793 0 0)
(0.25941093 0 0)
(0.25956889 0 0)
(0.25982977 0 0)
(0.26019182 0 0)
(0.26065343 0 0)
(0.26121304 0 0)
(0.26186906 0 0)
(0.26261992 0 0)
(0.26346402 0 0)
(0.26439971 0 0)
(0.26542528 0 0)
(0.26653894 0 0)
(0.26773881 0 0)
(0.26902291 0 0)
(0.27038913 0 0)
(0.27183516 0 0)
(0.27335854 0 0)
(0.27495661 0 0)
(0.27662653 0 0)
(0.27846359 0 0)
(0.25935793 0 0)
(0.25941021 0 0)
(0.259566 0 0)
(0.2598233 0 0)
(0.26018035 0 0)
(0.26063555 0 0)
(0.26118732 0 0)
(0.26183409 0 0)
(0.26257423 0 0)
(0.2634061 0 0)
(0.26432796 0 0)
(0.265338 0 0)
(0.26643431 0 0)
(0.26761486 0 0)
(0.26887752 0 0)
(0.27021998 0 0)
(0.27163979 0 0)
(0.27313425 0 0)
(0.27470049 0 0)
(0.27633539 0 0)
(0.27814128 0 0)
(0.25935793 0 0)
(0.25940954 0 0)
(0.2595633 0 0)
(0.25981722 0 0)
(0.26016953 0 0)
(0.26061863 0 0)
(0.26116294 0 0)
(0.26180085 0 0)
(0.26253076 0 0)
(0.26335097 0 0)
(0.26425971 0 0)
(0.26525507 0 0)
(0.26633504 0 0)
(0.26749748 0 0)
(0.26874011 0 0)
(0.27006047 0 0)
(0.2714559 0 0)
(0.27292354 0 0)
(0.27446028 0 0)
(0.27606275 0 0)
(0.2778369 0 0)
(0.25935793 0 0)
(0.25941722 0 0)
(0.25959413 0 0)
(0.25988686 0 0)
(0.26029392 0 0)
(0.260814 0 0)
(0.26144586 0 0)
(0.2621883 0 0)
(0.26304013 0 0)
(0.26400015 0 0)
(0.26506709 0 0)
(0.26623963 0 0)
(0.26751629 0 0)
(0.2688955 0 0)
(0.27037547 0 0)
(0.27195428 0 0)
(0.27362976 0 0)
(0.27539956 0 0)
(0.27726114 0 0)
(0.27921232 0 0)
(0.28142173 0 0)
(0.25935793 0 0)
(0.25941705 0 0)
(0.25959344 0 0)
(0.25988529 0 0)
(0.26029108 0 0)
(0.26080949 0 0)
(0.26143926 0 0)
(0.26217918 0 0)
(0.26302807 0 0)
(0.26398475 0 0)
(0.26504798 0 0)
(0.26621645 0 0)
(0.26748874 0 0)
(0.26886329 0 0)
(0.2703384 0 0)
(0.27191219 0 0)
(0.27358259 0 0)
(0.27534734 0 0)
(0.277204 0 0)
(0.27915048 0 0)
(0.28135419 0 0)
(0.25935793 0 0)
(0.25941695 0 0)
(0.25959301 0 0)
(0.25988429 0 0)
(0.26028923 0 0)
(0.2608065 0 0)
(0.26143483 0 0)
(0.26217302 0 0)
(0.26301989 0 0)
(0.26397429 0 0)
(0.26503501 0 0)
(0.26620078 0 0)
(0.26747024 0 0)
(0.26884188 0 0)
(0.27031407 0 0)
(0.27188503 0 0)
(0.2735528 0 0)
(0.27531523 0 0)
(0.27717001 0 0)
(0.27911519 0 0)
(0.28131247 0 0)
(0.25935793 0 0)
(0.2594168 0 0)
(0.2595924 0 0)
(0.25988288 0 0)
(0.26028669 0 0)
(0.26080249 0 0)
(0.26142901 0 0)
(0.26216507 0 0)
(0.26300952 0 0)
(0.26396124 0 0)
(0.26501909 0 0)
(0.26618184 0 0)
(0.26744821 0 0)
(0.26881678 0 0)
(0.27028602 0 0)
(0.27185427 0 0)
(0.27351972 0 0)
(0.2752804 0 0)
(0.27713418 0 0)
(0.27907926 0 0)
(0.28126797 0 0)
(0.25935793 0 0)
(0.2594166 0 0)
(0.2595916 0 0)
(0.25988109 0 0)
(0.26028352 0 0)
(0.26079754 0 0)
(0.26142191 0 0)
(0.26215546 0 0)
(0.2629971 0 0)
(0.26394575 0 0)
(0.26500033 0 0)
(0.2661597 0 0)
(0.26742266 0 0)
(0.26878789 0 0)
(0.27025402 0 0)
(0.27181952 0 0)
(0.27348278 0 0)
(0.27524203 0 0)
(0.27709537 0 0)
(0.2790412 0 0)
(0.28121892 0 0)
(0.25935793 0 0)
(0.25941636 0 0)
(0.25959064 0 0)
(0.25987894 0 0)
(0.26027971 0 0)
(0.26079163 0 0)
(0.26141347 0 0)
(0.26214412 0 0)
(0.2629825 0 0)
(0.26392761 0 0)
(0.26497843 0 0)
(0.26613392 0 0)
(0.26739296 0 0)
(0.2687544 0 0)
(0.27021698 0 0)
(0.27177939 0 0)
(0.2734402 0 0)
(0.27519787 0 0)
(0.27705079 0 0)
(0.27899757 0 0)
(0.28116134 0 0)
(0.25935793 0 0)
(0.25941607 0 0)
(0.2595895 0 0)
(0.25987638 0 0)
(0.26027521 0 0)
(0.26078466 0 0)
(0.26140354 0 0)
(0.26213077 0 0)
(0.26296534 0 0)
(0.26390629 0 0)
(0.26495269 0 0)
(0.26610357 0 0)
(0.26735795 0 0)
(0.2687148 0 0)
(0.27017304 0 0)
(0.27173151 0 0)
(0.27338902 0 0)
(0.27514428 0 0)
(0.27699594 0 0)
(0.27894286 0 0)
(0.28108893 0 0)
(0.25935793 0 0)
(0.25941574 0 0)
(0.25958816 0 0)
(0.25987339 0 0)
(0.26026991 0 0)
(0.26077646 0 0)
(0.26139185 0 0)
(0.26211505 0 0)
(0.26294509 0 0)
(0.26388108 0 0)
(0.26492215 0 0)
(0.26606745 0 0)
(0.26731607 0 0)
(0.26866714 0 0)
(0.2701197 0 0)
(0.27167278 0 0)
(0.27332538 0 0)
(0.27507641 0 0)
(0.27692479 0 0)
(0.27886963 0 0)
(0.28099307 0 0)
(0.25935793 0 0)
(0.25941534 0 0)
(0.25958661 0 0)
(0.25986989 0 0)
(0.26026375 0 0)
(0.26076686 0 0)
(0.26137816 0 0)
(0.26209658 0 0)
(0.26292124 0 0)
(0.26385127 0 0)
(0.26488589 0 0)
(0.26602428 0 0)
(0.26726568 0 0)
(0.26860928 0 0)
(0.27005425 0 0)
(0.27159975 0 0)
(0.27324486 0 0)
(0.27498871 0 0)
(0.27683024 0 0)
(0.27876876 0 0)
(0.28086283 0 0)
(0.25935793 0 0)
(0.25941489 0 0)
(0.25958481 0 0)
(0.25986588 0 0)
(0.26025663 0 0)
(0.26075581 0 0)
(0.26136234 0 0)
(0.2620752 0 0)
(0.26289354 0 0)
(0.26381652 0 0)
(0.26484339 0 0)
(0.26597341 0 0)
(0.26720586 0 0)
(0.26854 0 0)
(0.26997507 0 0)
(0.27151028 0 0)
(0.27314478 0 0)
(0.27487757 0 0)
(0.27670736 0 0)
(0.27863293 0 0)
(0.2806869 0 0)
(0.25935793 0 0)
(0.25941722 0 0)
(0.25959413 0 0)
(0.25988686 0 0)
(0.26029392 0 0)
(0.260814 0 0)
(0.26144586 0 0)
(0.2621883 0 0)
(0.26304013 0 0)
(0.26400015 0 0)
(0.26506709 0 0)
(0.26623963 0 0)
(0.26751629 0 0)
(0.2688955 0 0)
(0.27037547 0 0)
(0.27195428 0 0)
(0.27362976 0 0)
(0.27539956 0 0)
(0.27726114 0 0)
(0.27921232 0 0)
(0.28142173 0 0)
(0.25935793 0 0)
(0.25941705 0 0)
(0.25959344 0 0)
(0.25988529 0 0)
(0.26029108 0 0)
(0.26080949 0 0)
(0.26143926 0 0)
(0.26217918 0 0)
(0.26302807 0 0)
(0.26398475 0 0)
(0.26504798 0 0)
(0.26621645 0 0)
(0.26748874 0 0)
(0.26886329 0 0)
(0.2703384 0 0)
(0.27191219 0 0)
(0.27358259 0 0)
(0.27534734 0 0)
(0.277204 0 0)
(0.27915048 0 0)
(0.28135419 0 0)
(0.25935793 0 0)
(0.25941695 0 0)
(0.25959301 0 0)
(0.25988429 0 0)
(0.26028923 0 0)
(0.2608065 0 0)
(0.26143483 0 0)
(0.26217302 0 0)
(0.26301989 0 0)
(0.26397429 0 0)
(0.26503501 0 0)
(0.26620078 0 0)
(0.26747024 0 0)
(0.26884188 0 0)
(0.27031407 0 0)
(0.27188503 0 0)
(0.2735528 0 0)
(0.27531523 0 0)
(0.27717001 0 0)
(0.27911519 0 0)
(0.28131247 0 0)
(0.25935793 0 0)
(0.2594168 0 0)
(0.2595924 0 0)
(0.25988288 0 0)
(0.26028669 0 0)
(0.26080249 0 0)
(0.26142901 0 0)
(0.26216507 0 0)
(0.26300952 0 0)
(0.26396124 0 0)
(0.26501909 0 0)
(0.26618184 0 0)
(0.26744821 0 0)
(0.26881678 0 0)
(0.27028602 0 0)
(0.27185427 0 0)
(0.27351972 0 0)
(0.2752804 0 0)
(0.27713418 0 0)
(0.27907926 0 0)
(0.28126797 0 0)
(0.25935793 0 0)
(0.2594166 0 0)
(0.2595916 0 0)
(0.25988109 0 0)
(0.26028352 0 0)
(0.26079754 0 0)
(0.26142191 0 0)
(0.26215546 0 0)
(0.2629971 0 0)
(0.26394575 0 0)
(0.26500033 0 0)
(0.2661597 0 0)
(0.26742266 0 0)
(0.26878789 0 0)
(0.27025402 0 0)
(0.27181952 0 0)
(0.27348278 0 0)
(0.27524203 0 0)
(0.27709537 0 0)
(0.2790412 0 0)
(0.28121892 0 0)
(0.25935793 0 0)
(0.25941636 0 0)
(0.25959064 0 0)
(0.25987894 0 0)
(0.26027971 0 0)
(0.26079163 0 0)
(0.26141347 0 0)
(0.26214412 0 0)
(0.2629825 0 0)
(0.26392761 0 0)
(0.26497843 0 0)
(0.26613392 0 0)
(0.26739296 0 0)
(0.2687544 0 0)
(0.27021698 0 0)
(0.27177939 0 0)
(0.2734402 0 0)
(0.27519787 0 0)
(0.27705079 0 0)
(0.27899757 0 0)
(0.28116134 0 0)
(0.25935793 0 0)
(0.25941607 0 0)
(0.2595895 0 0)
(0.25987638 0 0)
(0.26027521 0 0)
(0.26078466 0 0)
(0.26140354 0 0)
(0.26213077 0 0)
(0.26296534 0 0)
(0.26390629 0 0)
(0.26495269 0 0)
(0.26610357 0 0)
(0.26735795 0 0)
(0.2687148 0 0)
(0.27017304 0 0)
(0.27173151 0 0)
(0.27338902 0 0)
(0.27514428 0 0)
(0.27699594 0 0)
(0.27894286 0 0)
(0.28108893 0 0)
(0.25935793 0 0)
(0.25941574 0 0)
(0.25958816 0 0)
(0.25987339 0 0)
(0.26026991 0 0)
(0.26077646 0 0)
(0.26139185 0 0)
(0.26211505 0 0)
(0.26294509 0 0)
(0.26388108 0 0)
(0.26492215 0 0)
(0.26606745 0 0)
(0.26731607 0 0)
(0.26866714 0 0)
(0.2701197 0 0)
(0.27167278 0 0)
(0.27332538 0 0)
(0.27507641 0 0)
(0.27692479 0 0)
(0.27886963 0 0)
(0.28099307 0 0)
(0.25935793 0 0)
(0.25941534 0 0)
(0.25958661 0 0)
(0.25986989 0 0)
(0.26026375 0 0)
(0.26076686 0 0)
(0.26137816 0 0)
(0.26209658 0 0)
(0.26292124 0 0)
(0.26385127 0 0)
(0.26488589 0 0)
(0.26602428 0 0)
(0.26726568 0 0)
(0.26860928 0 0)
(0.27005425 0 0)
(0.27159975 0 0)
(0.27324486 0 0)
(0.27498871 0 0)
(0.27683024 0 0)
(0.27876876 0 0)
(0.28086283 0 0)
(0.25935793 0 0)
(0.25941489 0 0)
(0.25958481 0 0)
(0.25986588 0 0)
(0.26025663 0 0)
(0.26075581 0 0)
(0.26136234 0 0)
(0.2620752 0 0)
(0.26289354 0 0)
(0.26381652 0 0)
(0.26484339 0 0)
(0.26597341 0 0)
(0.26720586 0 0)
(0.26854 0 0)
(0.26997507 0 0)
(0.27151028 0 0)
(0.27314478 0 0)
(0.27487757 0 0)
(0.27670736 0 0)
(0.27863293 0 0)
(0.2806869 0 0)
(0.28409903 0 0)
(0.28707298 0 0)
(0.29016233 0 0)
(0.29335363 0 0)
(0.29663329 0 0)
(0.29998507 0 0)
(0.30338655 0 0)
(0.30680845 0 0)
(0.31021908 0 0)
(0.3135865 0 0)
(0.31687631 0 0)
(0.32005065 0 0)
(0.32307371 0 0)
(0.32591639 0 0)
(0.32854676 0 0)
(0.33093237 0 0)
(0.33304349 0 0)
(0.3348502 0 0)
(0.33632278 0 0)
(0.33743888 0 0)
(0.33817434 0 0)
(0.3384969 0 0)
(0.33837373 0 0)
(0.33778344 0 0)
(0.3367009 0 0)
(0.33508553 0 0)
(0.33289571 0 0)
(0.33009409 0 0)
(0.32663655 0 0)
(0.32246657 0 0)
(0.31756301 0 0)
(0.31189435 0 0)
(0.30537365 0 0)
(0.29793426 0 0)
(0.2895698 0 0)
(0.28023485 0 0)
(0.26978061 0 0)
(0.25813174 0 0)
(0.2452937 0 0)
(0.23117474 0 0)
(0.21559574 0 0)
(0.19851667 0 0)
(0.17997102 0 0)
(0.15985471 0 0)
(0.13806012 0 0)
(0.11448735 0 0)
(0.088979194 0 0)
(0.061390893 0 0)
(0.031704345 0 0)
(0 0 0)
(0.28402345 0 0)
(0.28698865 0 0)
(0.29007072 0 0)
(0.29325696 0 0)
(0.29653476 0 0)
(0.29988868 0 0)
(0.30329646 0 0)
(0.30672807 0 0)
(0.31015082 0 0)
(0.31353203 0 0)
(0.31683635 0 0)
(0.32002548 0 0)
(0.32306416 0 0)
(0.325922 0 0)
(0.32856594 0 0)
(0.33096406 0 0)
(0.33308757 0 0)
(0.33490636 0 0)
(0.33639014 0 0)
(0.33751653 0 0)
(0.33826215 0 0)
(0.33859458 0 0)
(0.33848015 0 0)
(0.33789716 0 0)
(0.33682138 0 0)
(0.33521216 0 0)
(0.3330275 0 0)
(0.3302317 0 0)
(0.32677843 0 0)
(0.32261126 0 0)
(0.31771002 0 0)
(0.31204381 0 0)
(0.3055249 0 0)
(0.29808527 0 0)
(0.28971867 0 0)
(0.28038091 0 0)
(0.26992299 0 0)
(0.25826866 0 0)
(0.24542395 0 0)
(0.23129824 0 0)
(0.21570906 0 0)
(0.1986164 0 0)
(0.18005926 0 0)
(0.15993215 0 0)
(0.13812726 0 0)
(0.11454402 0 0)
(0.089022737 0 0)
(0.061420297 0 0)
(0.031719182 0 0)
(0 0 0)
(0.28396473 0 0)
(0.28690893 0 0)
(0.28997243 0 0)
(0.29314326 0 0)
(0.2964096 0 0)
(0.29975691 0 0)
(0.30316325 0 0)
(0.30659819 0 0)
(0.31002838 0 0)
(0.31342012 0 0)
(0.31673715 0 0)
(0.31994105 0 0)
(0.32299652 0 0)
(0.3258721 0 0)
(0.32853388 0 0)
(0.33094979 0 0)
(0.3330914 0 0)
(0.33492874 0 0)
(0.33643135 0 0)
(0.33757597 0 0)
(0.33833945 0 0)
(0.33868969 0 0)
(0.33859264 0 0)
(0.33802548 0 0)
(0.33696428 0 0)
(0.33536895 0 0)
(0.33319775 0 0)
(0.33041539 0 0)
(0.32697339 0 0)
(0.32281637 0 0)
(0.31792417 0 0)
(0.3122661 0 0)
(0.30575413 0 0)
(0.29831923 0 0)
(0.28995471 0 0)
(0.28061695 0 0)
(0.27015709 0 0)
(0.25849855 0 0)
(0.24564731 0 0)
(0.23151279 0 0)
(0.21591092 0 0)
(0.19880261 0 0)
(0.18023019 0 0)
(0.16008545 0 0)
(0.13826186 0 0)
(0.1146587 0 0)
(0.089112717 0 0)
(0.061482329 0 0)
(0.031751088 0 0)
(0 0 0)
(0.28389423 0 0)
(0.28680577 0 0)
(0.28984016 0 0)
(0.29298597 0 0)
(0.29623217 0 0)
(0.29956491 0 0)
(0.30296276 0 0)
(0.30639546 0 0)
(0.30982932 0 0)
(0.31322967 0 0)
(0.31655904 0 0)
(0.31977887 0 0)
(0.32285387 0 0)
(0.32575133 0 0)
(0.32843648 0 0)
(0.33087718 0 0)
(0.33304474 0 0)
(0.33490892 0 0)
(0.33643912 0 0)
(0.33761142 0 0)
(0.33840249 0 0)
(0.33878008 0 0)
(0.33870985 0 0)
(0.33816822 0 0)
(0.33713132 0 0)
(0.33555905 0 0)
(0.33340982 0 0)
(0.33064948 0 0)
(0.32722707 0 0)
(0.32308754 0 0)
(0.31821137 0 0)
(0.31256818 0 0)
(0.30606901 0 0)
(0.29864355 0 0)
(0.29028523 0 0)
(0.28095098 0 0)
(0.27049129 0 0)
(0.25882921 0 0)
(0.24597091 0 0)
(0.23182593 0 0)
(0.216209 0 0)
(0.19908182 0 0)
(0.18048938 0 0)
(0.16031992 0 0)
(0.13846842 0 0)
(0.11483475 0 0)
(0.089251816 0 0)
(0.06157895 0 0)
(0.031800981 0 0)
(0 0 0)
(0.28381012 0 0)
(0.28667724 0 0)
(0.28967192 0 0)
(0.29278326 0 0)
(0.29600061 0 0)
(0.29931077 0 0)
(0.30269307 0 0)
(0.30611784 0 0)
(0.30955133 0 0)
(0.31295789 0 0)
(0.31629889 0 0)
(0.31953551 0 0)
(0.32263235 0 0)
(0.32555552 0 0)
(0.32826961 0 0)
(0.33074183 0 0)
(0.33294289 0 0)
(0.33484226 0 0)
(0.3364091 0 0)
(0.33761846 0 0)
(0.33844654 0 0)
(0.33886115 0 0)
(0.33882768 0 0)
(0.33832139 0 0)
(0.33731813 0 0)
(0.33577814 0 0)
(0.33366 0 0)
(0.3309298 0 0)
(0.32753508 0 0)
(0.32342112 0 0)
(0.31856818 0 0)
(0.31294608 0 0)
(0.30646544 0 0)
(0.29905483 0 0)
(0.29070713 0 0)
(0.2813795 0 0)
(0.27092211 0 0)
(0.25925795 0 0)
(0.24639268 0 0)
(0.23223495 0 0)
(0.2166002 0 0)
(0.19945195 0 0)
(0.18083504 0 0)
(0.1606336 0 0)
(0.13874532 0 0)
(0.11507099 0 0)
(0.089438988 0 0)
(0.061709282 0 0)
(0.031868537 0 0)
(0 0 0)
(0.28370819 0 0)
(0.28651903 0 0)
(0.28946314 0 0)
(0.29253014 0 0)
(0.29570979 0 0)
(0.29898939 0 0)
(0.30234906 0 0)
(0.30576019 0 0)
(0.30918908 0 0)
(0.31259887 0 0)
(0.31595029 0 0)
(0.31920442 0 0)
(0.32232525 0 0)
(0.3252778 0 0)
(0.32802618 0 0)
(0.33053672 0 0)
(0.33277901 0 0)
(0.33472191 0 0)
(0.33633424 0 0)
(0.33759026 0 0)
(0.33846531 0 0)
(0.3389267 0 0)
(0.33893954 0 0)
(0.33847862 0 0)
(0.33751906 0 0)
(0.33602062 0 0)
(0.33394229 0 0)
(0.33125091 0 0)
(0.32789234 0 0)
(0.32381147 0 0)
(0.31898895 0 0)
(0.31339478 0 0)
(0.30693856 0 0)
(0.29954786 0 0)
(0.29121531 0 0)
(0.28189816 0 0)
(0.27144556 0 0)
(0.25978054 0 0)
(0.24690841 0 0)
(0.23273673 0 0)
(0.21708216 0 0)
(0.19991015 0 0)
(0.18126431 0 0)
(0.16102416 0 0)
(0.13909032 0 0)
(0.11536533 0 0)
(0.089672725 0 0)
(0.06187253 0 0)
(0.031953291 0 0)
(0 0 0)
(0.28358198 0 0)
(0.28632447 0 0)
(0.28920675 0 0)
(0.29221928 0 0)
(0.29535212 0 0)
(0.29859298 0 0)
(0.30192297 0 0)
(0.30531453 0 0)
(0.3087341 0 0)
(0.31214397 0 0)
(0.31550421 0 0)
(0.31877592 0 0)
(0.32192276 0 0)
(0.32490873 0 0)
(0.32769671 0 0)
(0.33025209 0 0)
(0.3325434 0 0)
(0.33453855 0 0)
(0.33620555 0 0)
(0.33751774 0 0)
(0.33844972 0 0)
(0.33896812 0 0)
(0.33903739 0 0)
(0.33863173 0 0)
(0.33772577 0 0)
(0.33627864 0 0)
(0.33424928 0 0)
(0.33160503 0 0)
(0.3282913 0 0)
(0.32425191 0 0)
(0.31946698 0 0)
(0.31390701 0 0)
(0.30748135 0 0)
(0.30011641 0 0)
(0.29180382 0 0)
(0.28250064 0 0)
(0.27205561 0 0)
(0.2603919 0 0)
(0.24751356 0 0)
(0.23332623 0 0)
(0.21765 0 0)
(0.2004525 0 0)
(0.18177355 0 0)
(0.16148798 0 0)
(0.13950046 0 0)
(0.11571543 0 0)
(0.089951033 0 0)
(0.062067167 0 0)
(0.032054494 0 0)
(0 0 0)
(0.28342259 0 0)
(0.28608465 0 0)
(0.28889369 0 0)
(0.29184139 0 0)
(0.29491826 0 0)
(0.29811214 0 0)
(0.30140481 0 0)
(0.30477054 0 0)
(0.30817585 0 0)
(0.31158185 0 0)
(0.31494861 0 0)
(0.31823788 0 0)
(0.3214131 0 0)
(0.32443638 0 0)
(0.32726926 0 0)
(0.32987631 0 0)
(0.33222462 0 0)
(0.33428066 0 0)
(0.33601161 0 0)
(0.33739 0 0)
(0.3383893 0 0)
(0.33897493 0 0)
(0.33911071 0 0)
(0.33877073 0 0)
(0.33792892 0 0)
(0.33654289 0 0)
(0.33457146 0 0)
(0.3319834 0 0)
(0.32872327 0 0)
(0.32473353 0 0)
(0.31999375 0 0)
(0.31447476 0 0)
(0.30808573 0 0)
(0.30075226 0 0)
(0.29246485 0 0)
(0.28317978 0 0)
(0.27274529 0 0)
(0.26108509 0 0)
(0.2482016 0 0)
(0.23399837 0 0)
(0.21829937 0 0)
(0.20107408 0 0)
(0.18235802 0 0)
(0.16202105 0 0)
(0.13997201 0 0)
(0.1161179 0 0)
(0.090271451 0 0)
(0.062291701 0 0)
(0.03217128 0 0)
(0 0 0)
(0.28321871 0 0)
(0.28578868 0 0)
(0.28851344 0 0)
(0.29138628 0 0)
(0.29439784 0 0)
(0.29753538 0 0)
(0.30078207 0 0)
(0.30411422 0 0)
(0.3074992 0 0)
(0.31089818 0 0)
(0.3142705 0 0)
(0.31757775 0 0)
(0.32078287 0 0)
(0.32384676 0 0)
(0.32672984 0 0)
(0.32939548 0 0)
(0.33180892 0 0)
(0.33393495 0 0)
(0.33573967 0 0)
(0.33719441 0 0)
(0.3382715 0 0)
(0.33893503 0 0)
(0.33914795 0 0)
(0.3388843 0 0)
(0.33811722 0 0)
(0.33680249 0 0)
(0.3348985 0 0)
(0.33237528 0 0)
(0.32917776 0 0)
(0.3252467 0 0)
(0.32055991 0 0)
(0.31508827 0 0)
(0.30874202 0 0)
(0.30144647 0 0)
(0.29318968 0 0)
(0.28392663 0 0)
(0.27350602 0 0)
(0.26185243 0 0)
(0.24896552 0 0)
(0.23474607 0 0)
(0.2190235 0 0)
(0.20176904 0 0)
(0.18301215 0 0)
(0.16261808 0 0)
(0.14050053 0 0)
(0.11656917 0 0)
(0.090631038 0 0)
(0.06254393 0 0)
(0.0323026 0 0)
(0 0 0)
(0.28295686 0 0)
(0.28542437 0 0)
(0.28805503 0 0)
(0.29084267 0 0)
(0.29377756 0 0)
(0.29684876 0 0)
(0.30004129 0 0)
(0.30333204 0 0)
(0.30669059 0 0)
(0.31007919 0 0)
(0.31345572 0 0)
(0.31678095 0 0)
(0.32001739 0 0)
(0.32312504 0 0)
(0.32606368 0 0)
(0.32879547 0 0)
(0.33128315 0 0)
(0.33348873 0 0)
(0.33537695 0 0)
(0.33691851 0 0)
(0.33808448 0 0)
(0.33883685 0 0)
(0.33913764 0 0)
(0.33896148 0 0)
(0.3382805 0 0)
(0.33704752 0 0)
(0.3352203 0 0)
(0.33277116 0 0)
(0.32964527 0 0)
(0.325782 0 0)
(0.32115649 0 0)
(0.31573899 0 0)
(0.30944152 0 0)
(0.30219012 0 0)
(0.29396977 0 0)
(0.28473305 0 0)
(0.27432979 0 0)
(0.26268597 0 0)
(0.2497978 0 0)
(0.2355628 0 0)
(0.21981646 0 0)
(0.20253125 0 0)
(0.18373 0 0)
(0.16327377 0 0)
(0.14108121 0 0)
(0.11706492 0 0)
(0.091026571 0 0)
(0.062821888 0 0)
(0.032447367 0 0)
(0 0 0)
(0.28318541 0 0)
(0.28554703 0 0)
(0.28807601 0 0)
(0.29076528 0 0)
(0.29360758 0 0)
(0.29659498 0 0)
(0.29971208 0 0)
(0.30293587 0 0)
(0.3062391 0 0)
(0.30958553 0 0)
(0.31293305 0 0)
(0.31624263 0 0)
(0.31947659 0 0)
(0.32259438 0 0)
(0.32555509 0 0)
(0.32831986 0 0)
(0.33084976 0 0)
(0.33310471 0 0)
(0.33504792 0 0)
(0.3366497 0 0)
(0.33787999 0 0)
(0.33869878 0 0)
(0.33906715 0 0)
(0.33895987 0 0)
(0.33834834 0 0)
(0.33718314 0 0)
(0.335421 0 0)
(0.33303549 0 0)
(0.32997297 0 0)
(0.32617123 0 0)
(0.32160253 0 0)
(0.31623629 0 0)
(0.30998673 0 0)
(0.30277974 0 0)
(0.29459764 0 0)
(0.28539103 0 0)
(0.2750117 0 0)
(0.26338442 0 0)
(0.25050351 0 0)
(0.23626361 0 0)
(0.22050656 0 0)
(0.20320251 0 0)
(0.1843687 0 0)
(0.16386312 0 0)
(0.14160782 0 0)
(0.1175193 0 0)
(0.09139395 0 0)
(0.06308439 0 0)
(0.032588137 0 0)
(0 0 0)
(0.28409903 0 0)
(0.28707298 0 0)
(0.29016233 0 0)
(0.29335363 0 0)
(0.29663329 0 0)
(0.29998507 0 0)
(0.30338655 0 0)
(0.30680845 0 0)
(0.31021908 0 0)
(0.3135865 0 0)
(0.31687631 0 0)
(0.32005065 0 0)
(0.32307371 0 0)
(0.32591639 0 0)
(0.32854676 0 0)
(0.33093237 0 0)
(0.33304349 0 0)
(0.3348502 0 0)
(0.33632278 0 0)
(0.33743888 0 0)
(0.33817434 0 0)
(0.3384969 0 0)
(0.33837373 0 0)
(0.33778344 0 0)
(0.3367009 0 0)
(0.33508553 0 0)
(0.33289571 0 0)
(0.33009409 0 0)
(0.32663655 0 0)
(0.32246657 0 0)
(0.31756301 0 0)
(0.31189435 0 0)
(0.30537365 0 0)
(0.29793426 0 0)
(0.2895698 0 0)
(0.28023485 0 0)
(0.26978061 0 0)
(0.25813174 0 0)
(0.2452937 0 0)
(0.23117474 0 0)
(0.21559574 0 0)
(0.19851667 0 0)
(0.17997102 0 0)
(0.15985471 0 0)
(0.13806012 0 0)
(0.11448735 0 0)
(0.088979194 0 0)
(0.061390893 0 0)
(0.031704345 0 0)
(0 0 0)
(0.28402345 0 0)
(0.28698865 0 0)
(0.29007072 0 0)
(0.29325696 0 0)
(0.29653476 0 0)
(0.29988868 0 0)
(0.30329646 0 0)
(0.30672807 0 0)
(0.31015082 0 0)
(0.31353203 0 0)
(0.31683635 0 0)
(0.32002548 0 0)
(0.32306416 0 0)
(0.325922 0 0)
(0.32856594 0 0)
(0.33096406 0 0)
(0.33308757 0 0)
(0.33490636 0 0)
(0.33639014 0 0)
(0.33751653 0 0)
(0.33826215 0 0)
(0.33859458 0 0)
(0.33848015 0 0)
(0.33789716 0 0)
(0.33682138 0 0)
(0.33521216 0 0)
(0.3330275 0 0)
(0.3302317 0 0)
(0.32677843 0 0)
(0.32261126 0 0)
(0.31771002 0 0)
(0.31204381 0 0)
(0.3055249 0 0)
(0.29808527 0 0)
(0.28971867 0 0)
(0.28038091 0 0)
(0.26992299 0 0)
(0.25826866 0 0)
(0.24542395 0 0)
(0.23129824 0 0)
(0.21570906 0 0)
(0.1986164 0 0)
(0.18005926 0 0)
(0.15993215 0 0)
(0.13812726 0 0)
(0.11454402 0 0)
(0.089022737 0 0)
(0.061420297 0 0)
(0.031719182 0 0)
(0 0 0)
(0.28396473 0 0)
(0.28690893 0 0)
(0.28997243 0 0)
(0.29314326 0 0)
(0.2964096 0 0)
(0.29975691 0 0)
(0.30316325 0 0)
(0.30659819 0 0)
(0.31002838 0 0)
(0.31342012 0 0)
(0.31673715 0 0)
(0.31994105 0 0)
(0.32299652 0 0)
(0.3258721 0 0)
(0.32853388 0 0)
(0.33094979 0 0)
(0.3330914 0 0)
(0.33492874 0 0)
(0.33643135 0 0)
(0.33757597 0 0)
(0.33833945 0 0)
(0.33868969 0 0)
(0.33859264 0 0)
(0.33802548 0 0)
(0.33696428 0 0)
(0.33536895 0 0)
(0.33319775 0 0)
(0.33041539 0 0)
(0.32697339 0 0)
(0.32281637 0 0)
(0.31792417 0 0)
(0.3122661 0 0)
(0.30575413 0 0)
(0.29831923 0 0)
(0.28995471 0 0)
(0.28061695 0 0)
(0.27015709 0 0)
(0.25849855 0 0)
(0.24564731 0 0)
(0.23151279 0 0)
(0.21591092 0 0)
(0.19880261 0 0)
(0.18023019 0 0)
(0.16008545 0 0)
(0.13826186 0 0)
(0.1146587 0 0)
(0.089112717 0 0)
(0.061482329 0 0)
(0.031751088 0 0)
(0 0 0)
(0.28389423 0 0)
(0.28680577 0 0)
(0.28984016 0 0)
(0.29298597 0 0)
(0.29623217 0 0)
(0.29956491 0 0)
(0.30296276 0 0)
(0.30639546 0 0)
(0.30982932 0 0)
(0.31322967 0 0)
(0.31655904 0 0)
(0.31977887 0 0)
(0.32285387 0 0)
(0.32575133 0 0)
(0.32843648 0 0)
(0.33087718 0 0)
(0.33304474 0 0)
(0.33490892 0 0)
(0.33643912 0 0)
(0.33761142 0 0)
(0.33840249 0 0)
(0.33878008 0 0)
(0.33870985 0 0)
(0.33816822 0 0)
(0.33713132 0 0)
(0.33555905 0 0)
(0.33340982 0 0)
(0.33064948 0 0)
(0.32722707 0 0)
(0.32308754 0 0)
(0.31821137 0 0)
(0.31256818 0 0)
(0.30606901 0 0)
(0.29864355 0 0)
(0.29028523 0 0)
(0.28095098 0 0)
(0.27049129 0 0)
(0.25882921 0 0)
(0.24597091 0 0)
(0.23182593 0 0)
(0.216209 0 0)
(0.19908182 0 0)
(0.18048938 0 0)
(0.16031992 0 0)
(0.13846842 0 0)
(0.11483475 0 0)
(0.089251816 0 0)
(0.06157895 0 0)
(0.031800981 0 0)
(0 0 0)
(0.28381012 0 0)
(0.28667724 0 0)
(0.28967192 0 0)
(0.29278326 0 0)
(0.29600061 0 0)
(0.29931077 0 0)
(0.30269307 0 0)
(0.30611784 0 0)
(0.30955133 0 0)
(0.31295789 0 0)
(0.31629889 0 0)
(0.31953551 0 0)
(0.32263235 0 0)
(0.32555552 0 0)
(0.32826961 0 0)
(0.33074183 0 0)
(0.33294289 0 0)
(0.33484226 0 0)
(0.3364091 0 0)
(0.33761846 0 0)
(0.33844654 0 0)
(0.33886115 0 0)
(0.33882768 0 0)
(0.33832139 0 0)
(0.33731813 0 0)
(0.33577814 0 0)
(0.33366 0 0)
(0.3309298 0 0)
(0.32753508 0 0)
(0.32342112 0 0)
(0.31856818 0 0)
(0.31294608 0 0)
(0.30646544 0 0)
(0.29905483 0 0)
(0.29070713 0 0)
(0.2813795 0 0)
(0.27092211 0 0)
(0.25925795 0 0)
(0.24639268 0 0)
(0.23223495 0 0)
(0.2166002 0 0)
(0.19945195 0 0)
(0.18083504 0 0)
(0.1606336 0 0)
(0.13874532 0 0)
(0.11507099 0 0)
(0.089438988 0 0)
(0.061709282 0 0)
(0.031868537 0 0)
(0 0 0)
(0.28370819 0 0)
(0.28651903 0 0)
(0.28946314 0 0)
(0.29253014 0 0)
(0.29570979 0 0)
(0.29898939 0 0)
(0.30234906 0 0)
(0.30576019 0 0)
(0.30918908 0 0)
(0.31259887 0 0)
(0.31595029 0 0)
(0.31920442 0 0)
(0.32232525 0 0)
(0.3252778 0 0)
(0.32802618 0 0)
(0.33053672 0 0)
(0.33277901 0 0)
(0.33472191 0 0)
(0.33633424 0 0)
(0.33759026 0 0)
(0.33846531 0 0)
(0.3389267 0 0)
(0.33893954 0 0)
(0.33847862 0 0)
(0.33751906 0 0)
(0.33602062 0 0)
(0.33394229 0 0)
(0.33125091 0 0)
(0.32789234 0 0)
(0.32381147 0 0)
(0.31898895 0 0)
(0.31339478 0 0)
(0.30693856 0 0)
(0.29954786 0 0)
(0.29121531 0 0)
(0.28189816 0 0)
(0.27144556 0 0)
(0.25978054 0 0)
(0.24690841 0 0)
(0.23273673 0 0)
(0.21708216 0 0)
(0.19991015 0 0)
(0.18126431 0 0)
(0.16102416 0 0)
(0.13909032 0 0)
(0.11536533 0 0)
(0.089672725 0 0)
(0.06187253 0 0)
(0.031953291 0 0)