/*--------------------------------*- C++ -*----------------------------------*\
| =========                 |                                                 |
| \\      /  F ield         | OpenFOAM: The Open Source CFD Toolbox           |
|  \\    /   O peration     | Version:  v2012                                 |
|   \\  /    A nd           | Website:  www.openfoam.com                      |
|    \\/     M anipulation  |                                                 |
\*---------------------------------------------------------------------------*/
FoamFile
{
    version     2.0;
    format      ascii;
    class       volVectorField;
    location    "48.5802297148300042";
    object      U;
}
// * * * * * * * * * * * * * * * * * * * * * * * * * * * * * * * * * * * * * //

dimensions      [0 1 -1 0 0 0 0];


internalField   nonuniform List<vector> 
9200
(
(2.6526912 0.00031116675 -6.2938362e-27)
(2.6524916 0.001033874 -1.797613e-23)
(2.6522774 -0.00036893266 3.3850369e-24)
(2.6524356 0.0022612166 -8.3430472e-24)
(2.651637 -0.0013696524 -9.5328632e-24)
(2.6536054 -0.00068501843 -1.075244e-23)
(2.6520664 0.0037775513 -5.7161981e-22)
(2.6509416 -0.0016968473 -7.0792815e-22)
(2.6529141 -0.0029528182 2.5836106e-22)
(2.6554736 -0.0010080203 6.3276911e-22)
(2.6514758 0.0061914445 3.7674009e-22)
(2.6495413 -0.0020522862 -8.9536714e-22)
(2.652163 -0.0042953973 -2.4993636e-22)
(2.6548672 -0.0045572894 -3.0532393e-22)
(2.6580558 -0.0012991052 4.6348614e-22)
(2.6504972 0.0092933793 -7.8390765e-23)
(2.6475143 -0.001660292 -2.5465449e-22)
(2.6506522 -0.0059350607 -9.5278101e-22)
(2.654046 -0.0069568337 5.3575558e-22)
(2.6576929 -0.0058560896 -7.359438e-23)
(2.6610678 -0.0015189197 -5.1311995e-22)
(2.6490408 0.013493392 -1.2100552e-22)
(2.644706 -0.00090990662 9.1800427e-22)
(2.6484093 -0.0069306352 7.1711558e-22)
(2.6524827 -0.0099565185 8.0711408e-22)
(2.6570154 -0.0091722415 1.7761055e-21)
(2.6610546 -0.0067846478 -3.33287e-23)
(2.6643131 -0.0016277407 -3.6306187e-22)
(2.6469817 0.018703511 -1.9352305e-22)
(2.6409851 0.00058806903 3.692183e-22)
(2.6453365 -0.0077621329 4.3716596e-22)
(2.6500481 -0.012473069 9.4282854e-22)
(2.6557303 -0.013388938 9.3468411e-22)
(2.6607046 -0.010844273 -6.953276e-22)
(2.6647458 -0.0072799558 -6.0705388e-22)
(2.6675583 -0.0016125955 -8.8252689e-23)
(2.6441817 0.025101395 -5.6768264e-22)
(2.6363027 0.0026345462 -8.3236286e-22)
(2.6412771 -0.0080100284 -9.1777202e-23)
(2.6466679 -0.015054041 4.7472679e-22)
(2.6535088 -0.017348804 -7.2051911e-22)
(2.6599663 -0.016099823 -1.0100654e-21)
(2.6649309 -0.011855689 -3.9660999e-22)
(2.6685217 -0.0073088022 3.9888665e-22)
(2.6705898 -0.0014736246 -4.0293901e-23)
(2.6404761 0.032631801 3.1611755e-22)
(2.6305797 0.0053075392 -1.3073814e-21)
(2.6362719 -0.0078265163 -1.9478136e-22)
(2.6421327 -0.017244796 6.9435378e-22)
(2.6502753 -0.021639265 6.9461834e-22)
(2.6582908 -0.021404042 -4.9642002e-22)
(2.6650371 -0.017912067 4.2043463e-22)
(2.6694312 -0.012126206 7.6193748e-22)
(2.6721453 -0.006848556 -7.9510686e-23)
(2.6732237 -0.0012126176 -3.4296998e-23)
(2.6356598 0.041286958 4.3523761e-22)
(2.6237978 0.0083963551 -1.1059247e-21)
(2.6303257 -0.0070836472 -3.7775922e-23)
(2.6364907 -0.019120938 2.1429253e-22)
(2.6457261 -0.025789116 -4.9151198e-22)
(2.6555827 -0.027376791 -1.4341784e-21)
(2.6643072 -0.02439437 -1.4268352e-21)
(2.6706646 -0.018684957 -8.9824731e-22)
(2.6739422 -0.011593155 -4.7179124e-22)
(2.6753765 -0.0058900242 3.7446506e-23)
(2.6752936 -0.00082392594 1.8959879e-22)
(2.6294753 0.050936642 0)
(2.6159384 0.011700511 1.2598736e-22)
(2.6235945 -0.0058993942 -5.9410418e-22)
(2.629754 -0.020468735 9.5800676e-22)
(2.6398466 -0.029785831 7.8451513e-22)
(2.6514026 -0.033577637 -1.4177986e-21)
(2.6626214 -0.031960261 -1.4942594e-22)
(2.6712879 -0.026092748 1.405362e-21)
(2.6765502 -0.018291285 1.5164565e-21)
(2.6781838 -0.010218382 6.3050869e-22)
(2.6780015 -0.0044527339 -1.6631245e-21)
(2.6765972 -0.00016839646 -1.5265408e-21)
(2.6216124 0.061381938 -9.6853618e-23)
(2.6070334 0.014863001 2.5099264e-22)
(2.6162843 -0.0043672635 4.0543566e-22)
(2.6221254 -0.021239119 1.6424922e-22)
(2.6325812 -0.033315335 -8.9865311e-23)
(2.6456197 -0.03993751 1.4581275e-21)
(2.6593898 -0.040261128 -1.5099003e-22)
(2.6711693 -0.035053227 9.2735798e-22)
(2.6789139 -0.026265543 1.8015045e-21)
(2.6823491 -0.016636371 1.3790973e-21)
(2.681877 -0.0079950492 5.0363359e-23)
(2.6798762 -0.0025830065 -2.4829717e-21)
(2.6769958 0.00058687513 7.8142806e-22)
(2.6116949 0.072321088 -1.7398774e-23)
(2.5971437 0.017449466 4.8794377e-23)
(2.6087051 -0.0027104856 -1.7900336e-22)
(2.6138809 -0.021337837 -8.7145565e-23)
(2.6240677 -0.036142224 2.7711522e-22)
(2.6380293 -0.046087683 -1.2497008e-21)
(2.6543426 -0.049228125 -7.4020588e-22)
(2.6695837 -0.045372802 7.3306474e-22)
(2.6809166 -0.036268651 -1.7488196e-21)
(2.6867667 -0.024708073 -1.3854988e-21)
(2.6876953 -0.013680248 2.4302016e-21)
(2.6847629 -0.0049660064 -2.0310266e-21)
(2.6808884 -0.00033202305 2.6937521e-23)
(2.6765267 0.0013206122 1.2400942e-21)
(2.5992705 0.083275623 -8.20916e-23)
(2.5863661 0.018926817 6.8237831e-22)
(2.6012304 -0.0012367276 5.2740658e-22)
(2.605433 -0.020734381 -2.79717e-22)
(2.6145276 -0.037958965 -1.041032e-21)
(2.628604 -0.051658223 -1.8489782e-21)
(2.6470812 -0.058513327 -5.7508229e-22)
(2.6661308 -0.057047725 -3.2824603e-21)
(2.6817414 -0.048314429 -1.8284269e-21)
(2.6913795 -0.035230244 -2.2646321e-21)
(2.6943594 -0.021289226 -2.9541574e-22)
(2.6922203 -0.0094591228 1.4079975e-22)
(2.6866238 -0.0012496855 -7.3245224e-22)
(2.680885 0.0022157369 4.1597231e-21)
(2.675122 0.0021091077 -1.9157543e-21)
(2.5836399 0.093432617 -9.1862834e-23)
(2.5748075 0.018730885 2.3635606e-22)
(2.5943033 -0.00033954513 -9.1934248e-24)
(2.5972927 -0.019428639 -3.0053008e-22)
(2.6043218 -0.038460888 6.7263399e-22)
(2.6173883 -0.056181971 -1.8542665e-22)
(2.6373598 -0.067697884 1.3367085e-22)
(2.6602133 -0.069838664 9.0718237e-22)
(2.680898 -0.062523854 1.5697594e-21)
(2.6953435 -0.048455202 3.3821889e-22)
(2.7019322 -0.031647035 -1.8473772e-21)
(2.7011683 -0.015994667 4.1031279e-21)
(2.6955865 -0.0040991948 -1.8276284e-22)
(2.6873139 0.0029878583 -3.3602237e-21)
(2.6797909 0.0049359023 6.6590339e-21)
(2.6728363 0.0029106039 2.0380524e-21)
(2.5638006 0.10235276 0)
(2.5624569 0.016613011 3.0524751e-22)
(2.5884197 -0.00051037862 -9.0796629e-23)
(2.5900776 -0.017438941 1.4827601e-21)
(2.5939133 -0.037339062 -1.6558999e-21)
(2.6045552 -0.059142334 1.5486173e-21)
(2.6249765 -0.076247924 -3.6823328e-21)
(2.6513547 -0.083376482 8.1673068e-22)
(2.677623 -0.078851785 1.7370123e-21)
(2.698148 -0.064672882 1.9959507e-21)
(2.7096204 -0.045247467 1.8783505e-22)
(2.7118461 -0.025388788 -2.7234103e-22)
(2.7066766 -0.0089527524 -2.6653722e-22)
(2.6975359 0.0021812985 -1.0846121e-22)
(2.6867517 0.0075839974 2.3379363e-21)
(2.6776476 0.0077178985 4.1397453e-22)
(2.6697151 0.003687701 2.4426291e-21)
(2.5368582 0.1084846 -1.5782525e-21)
(2.5508351 0.011856114 -5.4977913e-22)
(2.5836971 -0.0023863781 -1.7268419e-21)
(2.584475 -0.014825852 -1.9669931e-22)
(2.5838587 -0.03428693 1.5849882e-21)
(2.590379 -0.059993207 -7.3477484e-22)
(2.6098436 -0.083534286 -2.5141729e-21)
(2.6390808 -0.097166772 3.5204938e-22)
(2.6712323 -0.097076153 7.5085895e-23)
(2.6989313 -0.08410766 5.3151206e-22)
(2.7169869 -0.062567031 4.1667235e-21)
(2.7235963 -0.038347065 1.3879647e-21)
(2.7203533 -0.016539284 3.0863616e-21)
(2.71043 -0.00044562474 -2.7012674e-22)
(2.6978748 0.0090809024 4.0579865e-22)
(2.6849117 0.012328857 7.0854629e-23)
(2.6745262 0.010457167 -3.848412e-21)
(2.6658546 0.004413849 1.6137147e-21)
(2.5036486 0.11032616 1.1843237e-21)
(2.5398224 0.0037272654 1.5637833e-21)
(2.5790844 -0.0066211686 -1.2817477e-21)
(2.58134 -0.01169483 -6.7346376e-22)
(2.5747699 -0.029034844 -1.7888449e-22)
(2.5752241 -0.058180309 3.9452733e-21)
(2.5919715 -0.088875544 -1.925351e-21)
(2.6230146 -0.11057434 -8.7441314e-22)
(2.6609848 -0.11684751 6.3311062e-21)
(2.6968619 -0.10677947 2.4544565e-21)
(2.7231778 -0.084152261 2.1045114e-21)
(2.7361608 -0.055511716 -1.7708163e-21)
(2.736174 -0.027709514 -1.5706129e-21)
(2.7267396 -0.005420257 4.4073512e-22)
(2.7121255 0.0091088577 -3.6086011e-21)
(2.6965219 0.016282213 4.8828186e-21)
(2.6818466 0.01701918 -6.2956777e-21)
(2.6705308 0.013054199 -5.1546614e-21)
(2.6613706 0.0050639156 -7.0434568e-23)
(2.4655482 0.10779988 -4.3457022e-22)
(2.5286418 -0.0093282563 -1.8686325e-21)
(2.5798394 -0.013303699 6.6676481e-21)
(2.5808485 -0.0085985577 -3.8780373e-22)
(2.5679586 -0.021275342 -1.2664347e-21)
(2.5595197 -0.053169428 2.8673391e-21)
(2.5714716 -0.091559891 -1.6082598e-21)
(2.6028736 -0.12288178 -1.5508883e-21)
(2.6462029 -0.1376236 -6.603388e-21)
(2.6909663 -0.13259966 -2.3108407e-21)
(2.727321 -0.11034868 1.9802138e-21)
(2.7488304 -0.077760781 -5.9380936e-21)
(2.754151 -0.043206787 -2.7498132e-21)
(2.7462502 -0.013649692 -1.727796e-21)
(2.7304564 0.0074202834 -1.1924043e-21)
(2.7115901 0.019235071 -4.1959775e-22)
(2.6935324 0.023447231 5.330023e-22)
(2.677675 0.021473382 -1.2324608e-22)
(2.6657928 0.015429241 4.5111965e-21)
(2.6563876 0.005637007 -1.8122888e-21)
(2.4257854 0.10002991 6.5881606e-21)
(2.5185154 -0.028561278 4.8462878e-21)
(2.5842305 -0.023124362 -6.9827559e-21)
(2.5845698 -0.0057530127 -2.933717e-21)
(2.5641029 -0.010802588 4.2183757e-22)
(2.5437382 -0.044432509 -3.7376235e-21)
(2.5485537 -0.09089533 4.5748864e-21)
(2.5785098 -0.1333114 -8.0573175e-21)
(2.6262855 -0.15872812 -6.6874446e-24)
(2.6802682 -0.16124215 4.9552818e-21)
(2.728303 -0.14145637 -3.2247724e-21)
(2.7608537 -0.1058104 -2.8877024e-21)
(2.7738722 -0.064182086 1.2729982e-20)
(2.7693182 -0.02586924 1.6178617e-21)
(2.7528896 0.0031377556 0)
(2.7311482 0.021260732 -1.9574172e-21)
(2.7088018 0.029407837 4.9162575e-21)
(2.6890443 0.030269845 -6.446467e-21)
(2.6725582 0.025543747 -3.7244769e-22)
(2.6604596 0.017525402 3.5364745e-21)
(2.6510306 0.0061280398 0)
(2.3874375 0.087182089 -3.2593943e-21)
(2.509862 -0.053601256 -1.0891711e-20)
(2.5921554 -0.036515812 -2.2731313e-21)
(2.5929299 -0.0019342771 2.2710188e-21)
(2.5612356 0.0026447027 7.994119e-23)
(2.5285309 -0.03125751 -6.548585e-22)
(2.5234674 -0.08625136 8.0347512e-21)
(2.5499233 -0.14110365 3.361371e-21)
(2.6007987 -0.17936164 -8.7920323e-21)
(2.6638041 -0.19218328 -4.7964252e-21)
(2.7249073 -0.17753239 -1.5768054e-21)
(2.7711532 -0.14045765 7.0956788e-21)
(2.7949103 -0.091692978 1.5335558e-20)
(2.7959522 -0.043355745 6.8057755e-21)
(2.7801434 -0.0043061901 -1.9738624e-21)
(2.7554546 0.021645308 2.1649766e-21)
(2.7287093 0.03532557 -8.6278741e-22)
(2.7039238 0.039137092 6.9428623e-21)
(2.6832687 0.036499285 -4.5701531e-21)
(2.6666838 0.029124296 4.0698248e-22)
(2.6546842 0.019308456 -6.2327895e-21)
(2.6454201 0.0065308191 4.7284833e-21)
(2.3526742 0.069501784 -1.1818929e-20)
(2.5027924 -0.083721457 -1.3917913e-20)
(2.6031383 -0.053855849 -4.6753085e-21)
(2.6065538 0.0021127832 -1.7157928e-21)
(2.562199 0.019281185 -3.5692229e-22)
(2.5137701 -0.01335574 1.320759e-21)
(2.4964169 -0.077021142 5.8786491e-21)
(2.5171911 -0.14551859 -1.3862887e-23)
(2.5694562 -0.19865379 -4.4631403e-21)
(2.6407254 -0.22468029 1.5204342e-20)
(2.7158038 -0.21840496 7.7720705e-21)
(2.7784375 -0.18231277 5.5028745e-21)
(2.8164723 -0.12706379 -8.9417283e-21)
(2.8262653 -0.067384016 8.9337454e-21)
(2.8127112 -0.016092797 -4.68146e-21)
(2.7855072 0.020133656 6.118796e-21)
(2.753661 0.04072879 -3.1107692e-21)
(2.7233157 0.048846475 9.7786902e-22)
(2.6972396 0.048016522 -6.5575822e-21)
(2.6764626 0.041954272 -2.9471139e-21)
(2.660248 0.032151001 2.4582347e-21)
(2.6486128 0.020764957 -5.2252501e-21)
(2.6396669 0.0068453137 -2.9614353e-21)
(2.3211025 0.048300755 1.2704412e-20)
(2.49796 -0.11706253 1.0195684e-21)
(2.614655 -0.074963396 4.032263e-21)
(2.6248053 0.0063113914 1.4814591e-20)
(2.567459 0.039391684 1.5805332e-21)
(2.5000962 0.0092648979 5.5999753e-21)
(2.4676249 -0.062702311 -8.3981443e-21)
(2.4803847 -0.14589971 -4.2524695e-21)
(2.5320578 -0.21562263 1.2255293e-20)
(2.6101827 -0.25769552 -1.9134286e-21)
(2.699534 -0.26358015 3.7573621e-21)
(2.7811124 -0.23181783 -1.2975556e-20)
(2.8374822 -0.17154466 -4.0935503e-20)
(2.8600087 -0.099689624 -1.8530216e-20)
(2.8513326 -0.033494978 -2.1124745e-21)
(2.8222442 0.015844482 -3.7708767e-21)
(2.7847997 0.045777207 -3.4055982e-21)
(2.747654 0.059198402 5.4654313e-21)
(2.7153523 0.061176879 9.3475194e-23)
(2.6891132 0.055750197 -5.9482296e-21)
(2.6689005 0.046526298 3.6488887e-21)
(2.6534412 0.034598388 -3.4815447e-23)
(2.6423789 0.021898611 5.9111423e-21)
(2.6338686 0.0070757859 -4.4195191e-21)
(2.2926317 0.025521654 5.9068885e-21)
(2.4889036 -0.1517141 2.8610499e-22)
(2.6243195 -0.098686735 4.0775285e-20)
(2.6436201 0.01057444 1.2769366e-20)
(2.5768391 0.063298287 2.1631405e-21)
(2.4877419 0.037065904 -3.578153e-22)
(2.4371578 -0.043046156 5.1713437e-22)
(2.4397637 -0.14180003 -5.1569456e-21)
(2.4887617 -0.22941302 -1.0868007e-21)
(2.5716289 -0.28998602 1.0508844e-20)
(2.6745122 -0.31201994 1.9664993e-20)
(2.7770747 -0.28902694 1.5576206e-20)
(2.8563395 -0.22640884 2.0295229e-20)
(2.8966967 -0.14207054 -1.1979014e-20)
(2.8965601 -0.058359716 -1.9032604e-20)
(2.8669008 0.0078446652 -1.1685865e-20)
(2.8233305 0.050009667 7.4598164e-21)
(2.7780731 0.070794238 -3.249311e-21)
(2.7379612 0.076033155 3.925679e-21)
(2.7053438 0.071844333 3.4830822e-21)
(2.6799419 0.062161786 1.3143003e-20)
(2.6608502 0.05017382 5.3127067e-21)
(2.6464372 0.036473385 -3.1335231e-21)
(2.636099 0.022726203 1.0452685e-20)
(2.6281079 0.0072288602 -4.5051845e-21)
(2.2679837 0.0018014833 2.2521583e-21)
(2.4764263 -0.18638737 8.9808899e-21)
(2.6246695 -0.12405423 -2.0784992e-22)
(2.6583417 0.014982851 -7.2398923e-21)
(2.587496 0.091346169 -8.5369499e-21)
(2.4758057 0.070489517 -3.1870217e-21)
(2.4051798 -0.017880934 -5.4537803e-22)
(2.3957364 -0.13313183 2.5757309e-20)
(2.4403676 -0.23969474 -8.3875025e-21)
(2.5256665 -0.32073005 1.7377659e-20)
(2.6402755 -0.3628225 -1.8144594e-20)
(2.7645763 -0.35359999 -1.0185906e-20)
(2.8708849 -0.29264509 3.3851041e-20)
(2.9352831 -0.19666954 3.4843319e-20)
(2.9487765 -0.092661708 1.5024684e-20)
(2.9208816 -0.0054094085 2.5132204e-21)
(2.870829 0.053128476 -7.6461584e-21)
(2.815806 0.083699215 -5.4725586e-21)
(2.7660427 0.093585485 -2.2370192e-22)
(2.7253498 0.090484016 -3.7800258e-21)
(2.6938771 0.080569743 -3.9348654e-22)
(2.6701153 0.067185892 1.4313373e-21)
(2.6525555 0.052910908 4.5467031e-22)
(2.6393871 0.037807566 -2.7634595e-21)
(2.6298707 0.023273591 -2.5176744e-21)
(2.6224523 0.0073126987 -9.8454989e-21)
(2.2474194 -0.021483138 -1.2064118e-21)
(2.4628052 -0.22041333 1.755344e-20)
(2.6190469 -0.15080335 6.1075563e-21)
(2.6629983 0.017520635 -2.6147648e-21)
(2.6001877 0.12254633 2.0330377e-21)
(2.4614647 0.10952337 -1.6832856e-21)
(2.3712158 0.012880735 -5.5807617e-23)
(2.3487176 -0.12010093 1.6415076e-20)
(2.3879648 -0.24646214 8.152493e-21)
(2.473663 -0.34951063 2.2217173e-21)
(2.5977413 -0.41560881 -3.7011422e-21)
(2.7437991 -0.42608741 -6.6476079e-20)
(2.8805433 -0.37189183 -6.6386507e-20)
(2.9751163 -0.26591109 -1.2077956e-20)
(3.0085089 -0.13912784 1.2030937e-20)
(2.9856509 -0.02547944 9.6157333e-21)
(2.9291951 0.054423538 3.2179916e-21)
(2.8625169 0.098362791 -2.8919102e-22)
(2.8006398 0.11439311 1.3386445e-20)
(2.7498383 0.11297195 -2.9242881e-21)
(2.7106978 0.10211403 2.9630848e-21)
(2.6815307 0.087255037 -4.0923201e-21)
(2.6599869 0.070848674 -6.809772e-21)
(2.6442257 0.054793374 -1.9704382e-22)
(2.6324157 0.038649371 1.5136089e-21)
(2.6237729 0.023572075 -2.3385148e-21)
(2.6169546 0.0073362321 7.3694839e-21)
(2.2307444 -0.044102616 -7.3708834e-21)
(2.4471135 -0.25264499 -5.7928249e-21)
(2.6093333 -0.17590966 -1.9854131e-20)
(2.661513 0.018749109 5.7889962e-21)
(2.6160937 0.15674142 2.7329892e-20)
(2.4450493 0.15390199 -2.1428488e-21)
(2.3331024 0.048820973 1.002425e-20)
(2.2988706 -0.1030563 -3.6490112e-20)
(2.3324399 -0.24981999 -6.6056823e-21)
(2.4166898 -0.37548029 1.3439644e-20)
(2.5471227 -0.4685998 2.0738017e-21)
(2.7133857 -0.50555968 2.4775382e-20)
(2.8842755 -0.46605862 2.4729501e-20)
(3.0169817 -0.35432653 -3.1873376e-20)
(3.0784211 -0.20203246 3.4789969e-20)
(3.0643037 -0.054950334 2.7949368e-20)
(3.0009139 0.0532228 1.3209528e-20)
(2.920113 0.1150628 -2.6354532e-20)
(2.8431551 0.13959195 2.4215356e-20)
(2.7795022 0.1402334 -2.2296549e-20)
(2.7307836 0.12827757 1.7814494e-20)
(2.6948727 0.1107807 2.6526772e-21)
(2.6688249 0.091950133 -7.0506756e-21)
(2.6498555 0.073243825 -2.2277618e-21)
(2.636031 0.055904866 2.1922757e-21)
(2.6256218 0.039057106 -2.1127164e-21)
(2.6178661 0.023655392 3.3224238e-21)
(2.6116547 0.0073085376 9.6838631e-21)
(2.2177821 -0.064344654 2.1889294e-22)
(2.4283858 -0.28248716 -1.361148e-20)
(2.5912881 -0.19942843 -1.1554469e-20)
(2.6496592 0.023604673 -4.3202669e-21)
(2.5985578 0.19289737 -3.086149e-20)
(2.4259644 0.2054676 8.8123062e-22)
(2.2896531 0.089296681 -1.1159441e-21)
(2.245635 -0.082635556 -1.4140831e-20)
(2.2744413 -0.25001567 5.1084398e-21)
(2.3555996 -0.39760327 1.7917649e-20)
(2.4876948 -0.51858544 -6.8648366e-21)
(2.6688185 -0.58630456 -4.364066e-20)
(2.8724473 -0.56977597 -2.579922e-20)
(3.0518725 -0.46161949 -5.3685028e-20)
(3.156809 -0.28723973 -7.3486622e-21)
(3.1625543 -0.099461514 -2.4787582e-20)
(3.0919937 0.047726745 1.0269841e-21)
(2.9916581 0.13436179 -1.6207891e-20)
(2.8951012 0.17034986 1.1133788e-20)
(2.8152537 0.17388728 -1.5442038e-20)
(2.7544003 0.16017807 -2.1750993e-20)
(2.7101874 0.13930376 2.8059494e-21)
(2.6786461 0.11657886 2.6394169e-22)
(2.6561925 0.094811604 -6.4237972e-21)
(2.6399589 0.074508658 -6.3454238e-21)
(2.6281019 0.056344537 -7.6466115e-21)
(2.6190792 0.039093225 -3.5738688e-21)
(2.6121948 0.023557421 -5.1018212e-21)
(2.6065805 0.0072383683 -3.3610851e-21)
(2.2083935 -0.082592864 3.6561118e-21)
(2.4066972 -0.30878984 1.1466392e-20)
(2.5655114 -0.21871902 1.4743546e-20)
(2.6232419 0.032622535 -4.3324532e-20)
(2.5504889 0.23016455 6.4643478e-20)
(2.3929474 0.2606233 1.5021213e-20)
(2.2429795 0.13448583 1.3654217e-20)
(2.1879623 -0.0600126 1.0007067e-20)
(2.2145712 -0.24754742 -1.3664415e-20)
(2.2915114 -0.41522902 -2.0391148e-20)
(2.4199445 -0.56266635 -2.1087877e-20)
(2.6071999 -0.66255828 -3.2214526e-20)
(2.8344629 -0.67334012 1.2962778e-20)
(3.0580248 -0.57504022 4.099551e-20)
(3.2189185 -0.38681486 -3.4478744e-20)
(3.2689565 -0.16156049 5.8057274e-20)
(3.2074175 0.033354688 6.3621175e-20)
(3.0850431 0.15561108 -1.5120987e-20)
(2.9594517 0.20832597 -2.5796611e-20)
(2.8579438 0.21570206 3.9835828e-20)
(2.7818787 0.19966074 -2.3881954e-20)
(2.7273143 0.17396412 1.2775426e-20)
(2.6891964 0.14623027 -2.6598982e-21)
(2.6626466 0.11976928 1.1783089e-21)
(2.6439683 0.096062006 1.1566394e-20)
(2.6304739 0.074803239 -2.1425012e-21)
(2.6205328 0.056217127 4.7729368e-21)
(2.6128399 0.038819973 1.4039586e-21)
(2.6067892 0.023310556 -5.8140206e-21)
(2.6017502 0.0071338684 5.3694406e-21)
(2.2012422 -0.09850749 3.3642454e-21)
(2.3831742 -0.33207923 -2.2183327e-20)
(2.53504 -0.23670298 -4.8809606e-20)
(2.5883648 0.044112997 3.3238796e-21)
(2.5017774 0.26880875 -4.263163e-20)
(2.3459683 0.31310634 -9.0560181e-22)
(2.1950416 0.18271555 -1.2292e-21)
(2.1272361 -0.036180677 -4.4490038e-21)
(2.1531679 -0.24335444 6.4378741e-21)
(2.2260146 -0.42838705 -3.4450985e-21)
(2.3461199 -0.5991569 -1.7855143e-20)
(2.5301238 -0.7307555 -4.2867403e-20)
(2.7699403 -0.77206699 7.0251799e-20)
(3.0273407 -0.68925518 5.3169442e-20)
(3.2404478 -0.48717364 -6.9876946e-20)
(3.3445945 -0.2254259 -5.0288493e-21)
(3.3211065 0.014796414 7.9675636e-20)
(3.2005424 0.17797821 3.4720411e-21)
(3.0438019 0.25461727 -3.1072553e-20)
(2.9096669 0.26801851 2.0292036e-20)
(2.8133214 0.24872431 -1.2540264e-20)
(2.7460277 0.21659361 1.0111496e-20)
(2.699946 0.18192968 -1.0339813e-20)
(2.6687204 0.14949085 -4.8964107e-21)
(2.6473453 0.12070966 -4.423099e-21)
(2.632392 0.095955203 1.3393305e-21)
(2.621522 0.074293994 5.5940776e-21)
(2.613386 0.05562563 5.6520349e-21)
(2.6069371 0.038296369 3.0241188e-21)
(2.6016679 0.022944645 1.4530114e-21)
(2.5971738 0.007002374 -8.4521041e-22)
(2.1993422 -0.11326992 -6.0405842e-22)
(2.3558765 -0.3535394 -2.1313769e-20)
(2.500742 -0.24886241 -1.2128851e-19)
(2.5462767 0.056395502 -3.0035985e-22)
(2.4507918 0.3076 -5.3397712e-20)
(2.2926425 0.36276074 2.0663441e-20)
(2.1430485 0.2305694 5.0320662e-21)
(2.0666549 -0.011548745 9.0227833e-21)
(2.0906316 -0.23866103 -9.0911386e-21)
(2.1609128 -0.4376321 -1.1926405e-20)
(2.2694276 -0.62760522 9.7639385e-21)
(2.4421491 -0.7888334 6.9848537e-20)
(2.6831024 -0.86405656 3.1969468e-20)
(2.967703 -0.80551094 3.3013539e-20)
(3.2345619 -0.59842192 1.3104468e-19)
(3.3871346 -0.29066108 -1.6832291e-19)
(3.3952576 0.0072931475 -4.1883508e-20)
(3.3002257 0.21171516 -1.4298099e-19)
(3.1436449 0.31287048 5.9963081e-20)
(2.97619 0.33358384 -4.1967224e-20)
(2.8494773 0.30988674 3.0733796e-20)
(2.765753 0.26909816 -2.0718735e-20)
(2.7102096 0.22531543 4.6621826e-21)
(2.6736025 0.18479544 1.114939e-22)
(2.6494149 0.149657 -5.8771256e-21)
(2.6330635 0.11979771 -2.6168249e-21)
(2.6216187 0.094749918 1.4566963e-21)
(2.6131776 0.073141944 3.1322271e-21)
(2.6066978 0.054666356 -7.4399289e-21)
(2.6013887 0.0375763 -2.1057194e-22)
(2.5968396 0.022486395 -1.1040776e-20)
(2.592855 0.0068503488 -1.0005899e-20)
(2.2006303 -0.12473519 2.4073732e-20)
(2.3251724 -0.37194425 6.4558679e-22)
(2.4601042 -0.26177788 7.1529108e-20)
(2.4999539 0.071588555 -3.0450637e-20)
(2.3970666 0.3460652 7.3796377e-20)
(2.23644 0.41022325 -8.434603e-22)
(2.0861941 0.27664949 -1.7724107e-20)
(2.0068237 0.013181691 -2.9801482e-20)
(2.0283062 -0.23424674 -7.6364435e-21)
(2.0976707 -0.44400497 -2.5283916e-21)
(2.1931957 -0.64829059 -2.7941758e-20)
(2.3480645 -0.83523838 -3.843176e-20)
(2.5788868 -0.9464434 -1.0413641e-19)
(2.8795671 -0.92151138 -8.0522472e-20)
(3.2031052 -0.72634268 3.8115245e-19)
(3.4374108 -0.37914703 1.336433e-20)
(3.4665071 -0.0048478815 -2.0909012e-19)
(3.3628605 0.2613969 3.8755435e-20)
(3.2175601 0.39157608 6.0450751e-20)
(3.0512376 0.4187083 -7.0615266e-21)
(2.8938503 0.38664221 -1.8724542e-20)
(2.7859499 0.3337474 -1.7379206e-21)
(2.7189034 0.27797732 7.9110986e-21)
(2.6762778 0.22701857 1.7887287e-20)
(2.6491811 0.18346873 1.5998732e-20)
(2.6317009 0.14734542 1.2027461e-21)
(2.6199927 0.11742935 2.6680876e-21)
(2.6117329 0.092691551 2.9680192e-21)
(2.6054769 0.071495129 -3.7399633e-21)
(2.6004829 0.053425971 -1.2340837e-22)
(2.5962004 0.036707498 -3.4820755e-21)
(2.5923057 0.021959118 -1.1527521e-21)
(2.588792 0.0066833547 3.7201007e-21)
(2.2045419 -0.13284757 1.1968879e-20)
(2.2934487 -0.38638232 -1.8516548e-21)
(2.4128094 -0.27571414 5.9082354e-20)
(2.4496982 0.083614512 7.168245e-20)
(2.3445583 0.38332894 2.9905835e-20)
(2.181381 0.45495525 -6.7347987e-20)
(2.0283784 0.32068634 9.3731849e-21)
(1.9471678 0.037189632 -6.3486311e-20)
(1.9679424 -0.23050484 2.9354489e-20)
(2.0373087 -0.44859811 1.1214013e-20)
(2.1201972 -0.66183899 4.2906433e-21)
(2.2517895 -0.86955757 -1.7532078e-20)
(2.4615295 -1.0139286 -2.9232803e-20)
(2.7585317 -1.0289277 1.345983e-20)
(3.1292608 -0.86003048 2.3936079e-20)
(3.4438753 -0.49265696 3.7744044e-19)
(3.5592084 -0.040652115 2.4454438e-20)
(3.4526916 0.30961868 1.8684352e-19)
(3.2578893 0.48578312 -1.6939418e-19)
(3.0951826 0.52643514 5.3423287e-20)
(2.9413023 0.48575761 -4.1000524e-20)
(2.8079555 0.41370635 4.746453e-20)
(2.7245892 0.34168854 -1.4349192e-20)
(2.6753426 0.27731289 -1.1831714e-21)
(2.6454326 0.22313206 -2.359483e-21)
(2.6272138 0.17889579 -3.6780534e-22)
(2.6158031 0.14315359 0)
(2.6082208 0.11397143 -7.3289602e-22)
(2.6027644 0.090001149 -5.1649881e-21)
(2.5984269 0.069484398 1.8320974e-21)
(2.5947404 0.051980078 2.2941617e-22)
(2.591369 0.035731163 3.6662764e-21)
(2.5880619 0.021382739 1.5912499e-20)
(2.5849795 0.0065061052 5.1280736e-21)
(2.2104983 -0.13687404 -1.4981494e-20)
(2.2614721 -0.39627463 -4.4647798e-20)
(2.3613591 -0.28550856 -8.951313e-21)
(2.3941421 0.090771736 -1.7373666e-20)
(2.2918961 0.41742822 -2.9028144e-20)
(2.1306412 0.49714654 1.6070169e-19)
(1.9736958 0.36113175 5.0581116e-20)
(1.8892772 0.059311979 -2.7771756e-20)
(1.9105714 -0.22749299 2.4025826e-21)
(1.9806955 -0.45249218 7.5959875e-21)
(2.0524277 -0.66931233 9.1152906e-21)
(2.1569513 -0.89096337 -2.8845857e-20)
(2.3349602 -1.0632019 6.8055044e-21)
(2.6057791 -1.1120537 1.8192365e-19)
(2.9919761 -0.97911218 2.5506272e-20)
(3.3760764 -0.60086323 2.8007091e-20)
(3.5727113 -0.09281853 3.6621317e-19)
(3.5686136 0.3559158 3.6887087e-19)
(3.3305759 0.59258777 -1.6340239e-20)
(3.0999337 0.64844323 1.1181164e-19)
(2.9565691 0.6061438 8.2316326e-21)
(2.8288098 0.51499593 5.7600485e-21)
(2.7267803 0.41864194 9.0362281e-22)
(2.6689211 0.33687435 -1.6305626e-20)
(2.6366148 0.2693271 -6.8383998e-21)
(2.6183147 0.21508997 -8.1852875e-21)
(2.6079404 0.17196527 -2.5335632e-21)
(2.6017948 0.13762052 -4.3308877e-21)
(2.5977572 0.10974663 8.2478969e-22)
(2.5947024 0.086869937 8.6567191e-22)
(2.5920132 0.067221719 2.8203282e-21)
(2.5894576 0.050392874 1.8190241e-21)
(2.5868842 0.034682062 4.8111339e-21)
(2.5840995 0.020773954 -6.6565977e-22)
(2.5814092 0.0063225164 -1.0218378e-20)
(2.2193194 -0.13664802 1.5395503e-20)
(2.2300924 -0.4009252 1.5017468e-21)
(2.3071142 -0.29128895 -4.3007597e-21)
(2.3328736 0.10106469 -3.6976755e-20)
(2.240291 0.44717117 -2.2699294e-20)
(2.0842667 0.53882179 2.23039e-19)
(1.925334 0.39772659 6.840155e-20)
(1.835888 0.079536773 6.2203713e-21)
(1.8569916 -0.22652233 -8.7314152e-21)
(1.9286055 -0.45610622 1.247177e-20)
(1.9910756 -0.67187032 -1.0365274e-20)
(2.0665708 -0.90069637 1.6531321e-20)
(2.2044061 -1.0933369 -1.487719e-20)
(2.4303447 -1.164781 6.1006659e-20)
(2.792262 -1.0730877 -1.0282488e-19)
(3.2000589 -0.67829815 -5.1745576e-19)
(3.4819905 -0.11825291 -3.8798149e-19)
(3.5838482 0.42079272 1.6311269e-20)
(3.4028027 0.72958779 4.7804075e-20)
(3.1237864 0.79861141 -1.3197579e-19)
(2.9222563 0.73690168 5.4819055e-22)
(2.8209862 0.63539821 4.4094975e-21)
(2.7240732 0.51341697 -3.5429201e-20)
(2.6553136 0.40680701 -2.2647812e-20)
(2.6207656 0.32268815 1.0955662e-20)
(2.6034355 0.25616308 6.3566068e-21)
(2.5951356 0.20419222 0)
(2.5913846 0.16345483 0)
(2.5896404 0.13120737 4.0772971e-22)
(2.5885566 0.10502709 2.0934051e-22)
(2.5875079 0.08345781 4.0175039e-21)
(2.5862066 0.064800217 3.6209108e-21)
(2.5846138 0.04871758 3.5617703e-21)
(2.5827313 0.033588913 -1.0502874e-23)
(2.580407 0.020146513 -5.1429316e-21)
(2.578071 0.0061358023 2.8999076e-21)
(2.2319746 -0.13220646 -1.2780793e-20)
(2.2027223 -0.40094172 2.2752427e-20)
(2.2521223 -0.29348745 2.7704365e-20)
(2.2687049 0.11133426 7.2117499e-21)
(2.1864818 0.47709377 3.8086048e-20)
(2.0478465 0.57990505 -8.0305352e-20)
(1.8825965 0.43946396 8.7706242e-20)
(1.7899444 0.094283967 -1.194323e-22)
(1.8079366 -0.22519853 -3.7081953e-20)
(1.8816904 -0.46062669 4.7828432e-21)
(1.936675 -0.67050513 -5.3431769e-21)
(1.9833438 -0.8994754 3.0574418e-20)
(2.0755452 -1.101946 -4.3808691e-20)
(2.2450036 -1.1871669 2.0347747e-20)
(2.5489036 -1.1301057 4.3901292e-20)
(2.9353655 -0.71902387 -2.5633022e-19)
(3.2343741 -0.098491327 -1.0588085e-19)
(3.3675821 0.51436885 -4.5264458e-19)
(3.3408015 0.90330308 2.1364691e-20)
(3.1359802 0.99406526 -1.0461568e-19)
(2.8880503 0.89626698 6.6126233e-20)
(2.7583996 0.7600315 -1.1131497e-20)
(2.6989465 0.62493904 -1.6378302e-20)
(2.6333933 0.48978615 -1.4282599e-20)
(2.5957019 0.38344366 6.4951722e-21)
(2.5807275 0.30224769 1.6012315e-20)
(2.5759124 0.23968987 3.9638636e-21)
(2.5758077 0.19153743 0)
(2.5774241 0.15400919 -5.1941494e-22)
(2.5792323 0.12429194 6.2278108e-22)
(2.5805375 0.10003426 -1.046887e-21)
(2.5811237 0.07989445 -2.2737147e-22)
(2.5809685 0.062295328 -4.4701859e-22)
(2.5801831 0.046997312 1.5856865e-21)
(2.5788926 0.032474977 -3.7859116e-21)
(2.576971 0.019511543 1.8969277e-21)
(2.5749534 0.0059485489 7.2541792e-21)
(2.2467916 -0.12379173 -4.2604007e-21)
(2.1792853 -0.39647991 2.2339545e-20)
(2.198545 -0.29067095 -5.5575849e-20)
(2.2035397 0.12185332 -5.4115658e-21)
(2.133839 0.50390911 4.4232412e-21)
(2.0148145 0.61805786 -3.7022957e-20)
(1.8572228 0.48946506 5.6030394e-20)
(1.7471044 0.12019382 -7.0118935e-21)
(1.7677985 -0.23119776 9.5539816e-20)
(1.839919 -0.46436219 6.1121025e-21)
(1.8895486 -0.66699275 5.7138609e-21)
(1.9097515 -0.88931497 -9.4361037e-20)
(1.9543812 -1.0925497 -1.9091404e-20)
(2.0624389 -1.1843536 3.370963e-21)
(2.2853673 -1.15141 1.3714503e-19)
(2.6145752 -0.72450688 3.0352813e-19)
(2.8979195 -0.049190214 2.3899492e-19)
(3.0552416 0.63231172 9.4970785e-20)
(3.0929642 1.0834756 -2.1178696e-19)
(3.0254976 1.2078505 5.8812597e-19)
(2.853239 1.0992232 -2.5881444e-19)
(2.674723 0.89971216 5.2259775e-20)
(2.623287 0.73696149 2.5691148e-20)
(2.5944773 0.58625995 -9.0070287e-21)
(2.5598286 0.45240866 -9.6572632e-21)
(2.5480859 0.35297521 -1.8650879e-20)
(2.548633 0.27817665 -4.1343969e-21)
(2.55375 0.22142474 3.959232e-21)
(2.5600551 0.17800451 3.3197505e-21)
(2.5658468 0.14413905 6.8797484e-22)
(2.57042 0.11717197 -2.1713912e-21)
(2.5735981 0.094942346 -1.71532e-21)
(2.5754827 0.07628197 -1.3405625e-22)
(2.5762552 0.059766606 -3.6963548e-21)
(2.5761369 0.045266234 -5.0604862e-21)
(2.5753485 0.031358721 2.4465308e-22)
(2.5737768 0.018877896 2.0985348e-21)
(2.5720442 0.0057628109 4.0558438e-22)
(2.2639699 -0.11180361 8.340487e-21)
(2.1595088 -0.38669001 -3.5990298e-21)
(2.1484825 -0.28273709 1.2330958e-21)
(2.1395472 0.13222214 -1.3455244e-22)
(2.0844437 0.52720199 5.3621516e-21)
(1.9881991 0.65186789 -5.7821171e-20)
(1.8423649 0.53502177 -1.1565221e-19)
(1.7169038 0.15896161 6.4305385e-20)
(1.7247754 -0.22501526 6.6855251e-20)
(1.8064518 -0.47342002 -3.7784969e-20)
(1.8494764 -0.66067861 1.1226656e-20)
(1.8470423 -0.87324798 -1.0729188e-19)
(1.8463416 -1.0701556 1.2809299e-19)
(1.8919834 -1.1676412 -9.8199301e-20)
(2.0243463 -1.1308478 2.2622933e-19)
(2.2691388 -0.69834668 1.2001229e-19)
(2.5128453 0.017117786 2.2889428e-19)
(2.6768871 0.75724119 0)
(2.7588462 1.2557772 9.7788888e-20)
(2.7821024 1.4083548 1.767967e-19)