/*--------------------------------*- C++ -*----------------------------------*\
| =========                 |                                                 |
| \\      /  F ield         | OpenFOAM: The Open Source CFD Toolbox           |
|  \\    /   O peration     | Version:  v2012                                 |
|   \\  /    A nd           | Website:  www.openfoam.com                      |
|    \\/     M anipulation  |                                                 |
\*---------------------------------------------------------------------------*/
FoamFile
{
    version     2.0;
    format      ascii;
    class       surfaceVectorField;
    location    "48.5802297148300042";
    object      Uf;
}
// * * * * * * * * * * * * * * * * * * * * * * * * * * * * * * * * * * * * * //

dimensions      [0 1 -1 0 0 0 0];


internalField   nonuniform List<vector> 
18180
(
(2.6525881 0.00068646886 -9.292638e-24)
(2.6522586 -3.4998567e-05 1.7374218e-24)
(2.6524627 0.0016632728 -1.2997927e-23)
(2.6517873 -0.00018954419 -1.5135846e-23)
(2.6519465 -0.00089541824 -3.2906136e-24)
(2.6530102 -0.0005298041 -3.9544151e-24)
(2.6522448 0.0030378697 -2.9943704e-22)
(2.651329 0.00024653403 -3.6442529e-22)
(2.6512776 -0.0015343189 -3.7044955e-22)
(2.6523612 -0.0021753935 1.2681263e-22)
(2.6532482 -0.0018795168 1.2831859e-22)
(2.6545325 -0.0008494117 3.1676752e-22)
(2.6517612 0.0050212504 -8.151766e-23)
(2.6503115 0.00081014927 -7.3640151e-22)
(2.6502179 -0.0018905283 -8.0479364e-22)
(2.6516717 -0.0030193396 -4.7483368e-22)
(2.652526 -0.0036343035 -4.3161362e-24)
(2.6538814 -0.0037694183 -2.8525104e-23)
(2.6551602 -0.0028794203 1.4798701e-22)
(2.6567826 -0.0011561669 5.4663976e-22)
(2.6509701 0.0077814341 1.4153243e-22)
(2.6488207 0.0021949256 5.5376783e-23)
(2.6484938 -0.0018457991 -5.6425561e-22)
(2.6502672 -0.0040283269 -9.2458756e-22)
(2.6513823 -0.0051633365 -6.1315402e-22)
(2.6530887 -0.0056499373 1.4918234e-22)
(2.6544428 -0.0057745815 1.2932715e-22)
(2.6563011 -0.0052183074 -1.8729615e-22)
(2.6578683 -0.0037051087 1.8593702e-22)
(2.6595762 -0.0014109797 -3.3486175e-23)
(2.6497446 0.011455245 -1.0041374e-22)
(2.6466849 0.0040999623 4.2874021e-22)
(2.646063 -0.0012780479 3.5136219e-22)
(2.6482004 -0.0043424389 2.3991551e-22)
(2.6494931 -0.0064485122 -8.980484e-23)
(2.651542 -0.0079817706 -5.7098728e-23)
(2.6532381 -0.0085365329 6.7598846e-22)
(2.6555578 -0.0080843474 1.1670083e-21)
(2.6573428 -0.0075363876 8.8228797e-22)
(2.6593906 -0.0063286769 -5.2814808e-23)
(2.661061 -0.0043029721 -2.651766e-22)
(2.6627065 -0.0015743051 -4.3661777e-22)
(2.6479767 0.016168356 -1.5848203e-22)
(2.6437892 0.0069246959 1.2849795e-22)
(2.6427831 -0.00013830979 6.3439724e-22)
(2.6453518 -0.0043970063 6.7329118e-22)
(2.6468213 -0.0073791485 5.7244148e-22)
(2.6491893 -0.0097514122 8.319887e-22)
(2.6512245 -0.011255424 8.7724888e-22)
(2.6541422 -0.011703403 8.7203934e-22)
(2.6563513 -0.011388469 1.3412761e-21)
(2.65888 -0.010023213 5.1829665e-22)
(2.6608737 -0.0088393931 -3.7543407e-22)
(2.6629199 -0.0070367364 -3.2560762e-22)
(2.6645367 -0.0046205054 -4.8915039e-22)
(2.6659497 -0.0016200353 -2.2320021e-22)
(2.6455347 0.02199138 -3.8688566e-22)
(2.6400395 0.010524595 -5.1866158e-22)
(2.6385653 0.0016328257 -2.5174711e-22)
(2.6415732 -0.0037874003 1.3460692e-22)
(2.6432386 -0.0078963854 1.6381468e-22)
(2.6459427 -0.011473253 4.5628172e-22)
(2.6483013 -0.013831653 7.0092099e-22)
(2.6518254 -0.01495448 9.6294746e-23)
(2.6545822 -0.015433694 7.9307108e-23)
(2.6578738 -0.014768619 -5.507079e-23)
(2.6603231 -0.013601452 -8.5797746e-22)
(2.6628422 -0.011359032 -5.4329868e-22)
(2.6648414 -0.0095927977 -4.9830153e-22)
(2.6666522 -0.0072946455 -9.5090695e-23)
(2.6680561 -0.0046344067 1.6348765e-22)
(2.6690883 -0.0015418698 -6.3844436e-23)
(2.6422667 0.028965533 -1.1094233e-22)
(2.635314 0.015026604 -9.4414911e-22)
(2.6333451 0.0040055722 -1.0778476e-21)
(2.6368649 -0.0026888448 -5.2659609e-22)
(2.6386905 -0.0079272995 -1.4500854e-22)
(2.6416182 -0.012709899 3.0830242e-22)
(2.6443242 -0.016196221 5.8822687e-22)
(2.6485321 -0.01840542 5.8823869e-22)
(2.6518378 -0.019595442 1.0799071e-23)
(2.655932 -0.019412662 -6.0591139e-22)
(2.6591004 -0.018838669 -7.4462399e-22)
(2.6625342 -0.017022153 -2.8203161e-22)
(2.6649858 -0.015027448 2.5620892e-23)
(2.6672046 -0.01199338 1.9379181e-22)
(2.6689917 -0.0097386988 5.865024e-22)
(2.6703487 -0.0070745743 1.5541043e-22)
(2.6713936 -0.0043335146 -6.0560056e-23)
(2.6719201 -0.0013407885 -3.7345366e-23)
(2.6379871 0.037072373 3.7767761e-22)
(2.6295144 0.020296362 -4.0761751e-22)
(2.6270749 0.0068869843 -1.2032706e-21)
(2.631192 -0.00099791285 -6.4842749e-22)
(2.633199 -0.0074499701 -1.1364283e-22)
(2.6362571 -0.013574568 1.3403209e-23)
(2.639217 -0.01823235 4.4626466e-22)
(2.6440056 -0.021593145 8.9502321e-23)
(2.6479244 -0.023799113 8.1645373e-23)
(2.6529696 -0.024559263 -3.8878664e-22)
(2.6568913 -0.024522758 -9.8103545e-22)
(2.661342 -0.022925935 -9.6993987e-22)
(2.6646599 -0.021257846 -5.3419491e-22)
(2.6678826 -0.01830544 -2.5069157e-22)
(2.6700686 -0.015554824 -9.6009328e-23)
(2.6717085 -0.011854932 1.3404368e-22)
(2.6730739 -0.0092337127 -2.8223145e-22)
(2.6737724 -0.0063607288 -1.9986073e-23)
(2.6743362 -0.0037093794 2.7780326e-24)
(2.6742587 -0.0010147978 7.9654402e-23)
(2.6324637 0.046239088 2.1031159e-22)
(2.6225211 0.026228021 2.4714673e-22)
(2.6197361 0.010083126 -4.6928653e-22)
(2.6246264 0.001121886 -8.4545555e-22)
(2.6268471 -0.0064826333 -3.2527973e-22)
(2.6298659 -0.013895659 4.6898951e-22)
(2.6330093 -0.019828625 5.9863388e-22)
(2.6382631 -0.024548412 5.0448918e-22)
(2.6426877 -0.027879886 1.6791934e-22)
(2.6486147 -0.02975288 -9.6292128e-22)
(2.6534225 -0.030602001 -1.4257136e-21)
(2.6591587 -0.029709472 -7.8032735e-22)
(2.663436 -0.028336273 -7.6669573e-22)
(2.6678406 -0.025258762 1.5596602e-23)
(2.6709867 -0.022504907 2.9220796e-22)
(2.673638 -0.018484629 3.3177564e-22)
(2.67529 -0.015087269 5.5569008e-22)
(2.6760814 -0.010893495 9.011829e-23)
(2.6768272 -0.0080570878 3.4392576e-22)
(2.6767029 -0.0051585259 -8.2805445e-22)
(2.676693 -0.0027656739 -7.6783595e-22)
(2.675941 -0.00049029598 -6.8383586e-22)
(2.6254119 0.056312417 -5.0052761e-23)
(2.6142252 0.032575944 1.2773841e-22)
(2.6113364 0.01330168 1.9058857e-22)
(2.6172596 0.0035245012 2.6819941e-22)
(2.6198167 -0.0051146637 -7.7554766e-23)
(2.6226175 -0.013706145 -2.1666603e-22)
(2.6258116 -0.020876528 5.4780359e-22)
(2.631281 -0.027006427 4.2778508e-22)
(2.636092 -0.03162833 3.3264851e-22)
(2.6427941 -0.034952205 1.1279409e-21)
(2.6484141 -0.036896379 6.8432041e-23)
(2.6554697 -0.036979044 -7.7321395e-22)
(2.6609514 -0.036274373 -1.5023423e-22)
(2.6669534 -0.033534403 3.9962082e-22)
(2.6712266 -0.030751164 1.1583396e-21)
(2.6751434 -0.026180727 1.6083302e-21)
(2.6777717 -0.022397314 1.6637629e-21)
(2.6794774 -0.017449066 1.4465491e-21)
(2.6803363 -0.013557245 1.0173617e-21)
(2.6800449 -0.0090868478 3.361045e-22)
(2.6800042 -0.0062178479 -7.7763952e-22)
(2.6789474 -0.0035011394 -2.0803869e-21)
(2.6782917 -0.0014749569 -2.0207965e-21)
(2.6768065 0.00021600687 -3.5188084e-22)
(2.6164872 0.06703137 -5.579244e-23)
(2.6045391 0.039021408 -2.2728952e-23)
(2.6019225 0.016145578 1.4649924e-22)
(2.6092574 0.0059209916 3.2168048e-23)
(2.6123675 -0.0035176382 1.034054e-22)
(2.6147505 -0.013003989 1.6706191e-22)
(2.6178647 -0.021292501 3.4331986e-23)
(2.6232306 -0.028823291 2.2600836e-22)
(2.6281815 -0.034793097 9.9784793e-23)
(2.6353771 -0.039815341 -6.8012335e-22)
(2.6416971 -0.043145182 5.8766538e-23)
(2.6500748 -0.04466568 3.3934743e-22)
(2.6567815 -0.044932967 -4.5548592e-22)
(2.6645639 -0.042862634 2.9977219e-22)
(2.6703499 -0.040410176 8.269512e-22)
(2.6761018 -0.035671846 -4.3464035e-22)
(2.6799489 -0.031453659 -3.3225796e-23)
(2.6828796 -0.025472937 1.811566e-22)
(2.684632 -0.020783318 -4.9581929e-23)
(2.685045 -0.015131911 1.9128128e-21)
(2.6848838 -0.010942051 1.2802053e-21)
(2.6833283 -0.0064534408 -1.0081472e-21)
(2.6824015 -0.0037493587 -2.2494189e-21)
(2.6803734 -0.001437366 -1.2055357e-21)
(2.6790074 9.8934662e-05 3.9152955e-22)
(2.6767502 0.0009603189 1.0149413e-21)
(2.6052742 0.077974186 -5.0831061e-23)
(2.5934328 0.04514497 3.3873756e-22)
(2.591574 0.018143776 3.7622148e-22)
(2.6008129 0.0079414414 2.9235816e-22)
(2.6048423 -0.0019485679 1.8605923e-22)
(2.6066222 -0.011883302 -2.3025634e-22)
(2.6095151 -0.021021412 -1.8666363e-22)
(2.6143588 -0.029796218 -5.7258448e-22)
(2.6191375 -0.037090037 -4.0408287e-22)
(2.6264181 -0.044038425 -8.0487834e-22)
(2.6331585 -0.048996443 -1.5593977e-21)
(2.6426725 -0.05241124 -9.0637579e-22)
(2.6505901 -0.054067269 -6.5487299e-22)
(2.6603375 -0.053207722 -2.0340223e-21)
(2.6677993 -0.051445268 -1.3420785e-21)
(2.6757427 -0.04686994 -5.7055696e-22)
(2.6813428 -0.042511444 -1.7899589e-21)
(2.6862036 -0.035740239 -2.0091875e-21)
(2.6891505 -0.030150175 -1.8398149e-21)
(2.6905971 -0.022968147 -8.3071394e-22)
(2.6911392 -0.017575762 1.0216689e-21)
(2.6899744 -0.01153196 1.2662035e-21)
(2.6886167 -0.0072851143 -9.0868261e-22)
(2.6856975 -0.0030745835 -1.3695321e-21)
(2.6838523 -0.00074555461 -3.6549355e-22)
(2.6808829 0.00096468693 2.130368e-21)
(2.6787789 0.0017251599 2.7488708e-21)
(2.6758076 0.0017219312 -3.6613633e-22)
(2.5911929 0.088550415 -8.7141214e-23)
(2.5808877 0.050424605 7.9974987e-23)
(2.5803928 0.018800533 4.5188087e-22)
(2.5921363 0.0091237102 3.3044224e-22)
(2.5976506 -0.00075807455 2.5009988e-22)
(2.5986791 -0.010495128 1.0607451e-22)
(2.6012262 -0.020044609 -2.9047287e-22)
(2.6050523 -0.029755181 2.0493735e-22)
(2.6092534 -0.038218515 -1.5543669e-22)
(2.6160488 -0.047232688 -6.081971e-22)
(2.6228079 -0.054021896 -9.892824e-22)
(2.6331261 -0.059820883 -8.3508939e-22)
(2.6420574 -0.063305343 -2.0881112e-22)
(2.6537767 -0.064276985 1.792708e-22)
(2.6630728 -0.063705358 -1.1173364e-21)
(2.673622 -0.059834715 -8.1147298e-22)
(2.6813056 -0.05569079 -7.2318245e-23)
(2.6886196 -0.048386161 -7.2575731e-22)
(2.693428 -0.042069104 -9.1953851e-22)
(2.6967054 -0.03340671 -2.0497455e-21)
(2.6982729 -0.026627678 -1.0974321e-21)
(2.6977896 -0.018594668 1.9431839e-21)
(2.6968444 -0.012786322 2.188429e-21)
(2.6939156 -0.0067312115 -2.2988337e-23)
(2.6912555 -0.0027142836 -4.4838759e-22)
(2.6869677 0.00090704294 -2.069542e-21)
(2.6842072 0.0026745433 2.7363486e-22)
(2.6803263 0.0036002129 5.4318731e-21)
(2.6775347 0.0035032176 2.515435e-21)
(2.673961 0.0025170505 9.6637524e-23)
(2.5733873 0.098110045 -4.4389734e-23)
(2.5665744 0.054334559 1.5374169e-22)
(2.5684249 0.017617988 2.7195802e-22)
(2.5834409 0.0089405609 6.9871098e-23)
(2.5912627 -0.00040322183 -5.1364642e-23)
(2.5914683 -0.0090420646 7.5004706e-22)
(2.5935641 -0.018377681 6.2104475e-22)
(2.5957953 -0.028542922 -9.9027787e-22)
(2.5989429 -0.037870052 -5.3071365e-22)
(2.6045352 -0.048985615 1.1184264e-21)
(2.6107564 -0.057731499 7.1069792e-22)
(2.6213564 -0.066393495 -1.9650322e-21)
(2.6309603 -0.072163863 -1.8383712e-21)
(2.6445197 -0.075676862 4.8128957e-22)
(2.6556354 -0.076891346 8.6043868e-22)
(2.6690602 -0.074425647 1.3294991e-21)
(2.6792056 -0.071008048 1.6561921e-21)
(2.689629 -0.063617653 1.7866587e-21)
(2.6967928 -0.056854316 1.1948961e-21)
(2.7025522 -0.046822807 2.582145e-22)
(2.7059053 -0.038659118 -7.9562875e-22)
(2.7069289 -0.028462074 -1.0457823e-21)
(2.7066864 -0.020813973 1.841996e-21)
(2.7039396 -0.012410767 1.877503e-21)
(2.7013176 -0.006543555 -2.2605517e-22)
(2.6965585 -0.00090273371 -1.4494662e-22)
(2.6925963 0.0025768511 -1.6798046e-21)
(2.6870235 0.0053271283 -4.6005829e-22)
(2.683388 0.006381484 4.4260214e-21)
(2.6787018 0.0063518677 3.4804604e-21)
(2.6753226 0.0053291236 1.1987793e-21)
(2.6712511 0.0033061333 2.2439396e-21)
(2.5498773 0.10559669 -8.156111e-22)
(2.5508091 0.05629415 -2.7979682e-22)
(2.556451 0.01405205 -1.3661516e-22)
(2.5747618 0.0069456225 -7.0814908e-22)
(2.5859792 -0.0014486514 -9.3627662e-22)
(2.5856174 -0.0077962568 -1.6527076e-22)
(2.5871823 -0.016062105 6.1484468e-22)
(2.5871718 -0.02601245 1.5347837e-21)
(2.5887173 -0.035740661 1.8934468e-23)
(2.5922442 -0.048867584 -1.1930029e-21)
(2.5972292 -0.05959277 3.6860013e-22)
(2.6074065 -0.071555191 -5.1895613e-22)
(2.6171561 -0.080060227 -3.078649e-21)
(2.632228 -0.08689356 -1.6291978e-21)
(2.6450118 -0.090567372 5.7659247e-22)
(2.6614778 -0.090348427 4.3929688e-22)
(2.6743204 -0.088328545 8.7816365e-22)
(2.6884211 -0.081526712 1.1235094e-21)
(2.6985528 -0.074750216 1.2391631e-21)
(2.7076657 -0.063601318 3.1052429e-21)
(2.7134272 -0.054190497 2.2440265e-21)
(2.7166667 -0.041735764 7.986215e-22)
(2.7179183 -0.032042103 5.8566273e-22)
(2.7161283 -0.020885002 1.4370429e-21)
(2.7137443 -0.01281829 1.4661511e-21)
(2.708572 -0.0046230686 -2.6836411e-22)
(2.7041992 0.00084565174 -1.9200533e-22)
(2.697705 0.0056929253 1.5310835e-22)
(2.6924998 0.0083764423 1.3394646e-21)
(2.6858155 0.0099989959 1.1840565e-21)
(2.6814014 0.010177874 2.3666085e-22)
(2.6760632 0.0091121368 -1.7554982e-21)
(2.6722013 0.0071262098 -8.0838299e-22)
(2.6677554 0.004057303 2.0206686e-21)
(2.5196961 0.10957035 -1.5060849e-22)
(2.5322415 0.05516853 2.0811099e-23)
(2.5451439 0.0077434625 5.4247011e-22)
(2.5662781 0.0024540891 -9.3806986e-22)
(2.5813134 -0.0045587971 -1.4968253e-21)
(2.5816469 -0.00712427 -1.2143513e-21)
(2.5828549 -0.013147838 -4.430824e-22)
(2.5798241 -0.022056306 -1.8763344e-22)
(2.5791618 -0.031534121 6.7345096e-22)
(2.5796339 -0.046445979 2.7861383e-21)
(2.5825472 -0.059054418 1.683789e-21)
(2.5914196 -0.074690998 -1.3302365e-21)
(2.6006077 -0.08633845 -2.2098807e-21)
(2.6166674 -0.097294837 -1.6796906e-21)
(2.6307781 -0.10416392 -2.8176246e-22)
(2.6502671 -0.1071824 3.3979431e-21)
(2.6659366 -0.1073655 3.3080651e-21)
(2.6842404 -0.1020144 1.2859818e-21)
(2.6978619 -0.095872259 1.5252459e-21)
(2.7111909 -0.084130554 1.3265098e-21)
(2.7201862 -0.073729418 3.1010243e-21)
(2.7266569 -0.058976582 1.1506439e-21)
(2.7300893 -0.047174553 -2.4441071e-22)
(2.7299268 -0.032933374 -1.1348015e-22)
(2.728529 -0.022239412 6.7976235e-22)
(2.7235677 -0.010880368 1.7398794e-21)
(2.7188584 -0.0029540065 9.7226566e-23)
(2.7112702 0.0044171535 -1.9692663e-21)
(2.7052391 0.0091668611 -1.6687223e-21)
(2.6971847 0.012746135 2.6845333e-21)
(2.6909115 0.014398079 2.5575297e-21)
(2.6833559 0.014716133 -3.16957e-21)
(2.6783092 0.013917857 -5.1130805e-21)
(2.6724984 0.011779025 -4.5132752e-21)
(2.6682711 0.0088274592 -1.8839656e-21)
(2.6635781 0.0047447313 7.5649095e-22)
(2.4839591 0.10922449 3.4771359e-22)
(2.5108 0.04942882 -3.9297578e-22)
(2.5340445 -0.0030726884 -2.1002087e-22)
(2.5605805 -0.0049392576 4.1610689e-21)
(2.5794746 -0.0099974554 2.8263471e-21)
(2.5791357 -0.0076283782 -8.2683787e-22)
(2.581086 -0.0099401186 -5.2584017e-22)
(2.5748188 -0.016569858 -9.6723411e-22)
(2.5712499 -0.024967415 -7.4090959e-22)
(2.5672174 -0.041316535 1.371335e-21)
(2.5671083 -0.055569691 3.3882171e-21)
(2.5736365 -0.075166463 1.1034976e-21)
(2.5813776 -0.09030024 -1.7614844e-21)
(2.5976994 -0.10618096 -1.7347864e-21)
(2.6126061 -0.11700395 -1.2240021e-21)
(2.634899 -0.12433966 -3.7899206e-21)
(2.6533459 -0.12766411 -3.5316947e-22)
(2.6762314 -0.12486395 1.9322461e-21)
(2.6938152 -0.12018914 -8.1403305e-24)
(2.7122797 -0.10859611 2.2069404e-21)
(2.7253189 -0.097710649 2.0402774e-21)
(2.7361218 -0.080899758 -1.9885707e-21)
(2.7427081 -0.066975691 -3.9243542e-21)
(2.745215 -0.049249566 -2.2756401e-21)
(2.745464 -0.035632659 -2.1799914e-21)
(2.7412395 -0.020554017 -1.65061e-21)
(2.7368221 -0.0095752379 -6.7990046e-22)
(2.7286014 0.001114898 -3.9045423e-22)
(2.7215983 0.0083002576 -2.359983e-21)
(2.7118494 0.014262721 -1.985516e-21)
(2.7043087 0.017885012 2.1426976e-21)
(2.6950053 0.019929031 2.6688741e-21)
(2.6878854 0.020370504 -2.7668343e-21)
(2.6797306 0.019286307 -3.154009e-21)
(2.6742227 0.017463274 -2.5545914e-21)
(2.6681264 0.014263086 -2.3479897e-22)
(2.6636559 0.010378663 2.297204e-21)
(2.6588404 0.005355621 -9.5703912e-22)
(2.4449996 0.10388117 3.1946213e-21)
(2.4879946 0.038400416 2.2734156e-21)
(2.5234087 -0.019365905 1.6014974e-21)
(2.5564305 -0.016349256 -4.4711346e-21)
(2.5821087 -0.018219697 -3.8660544e-22)
(2.5813539 -0.0094623182 1.7817396e-21)
(2.5827716 -0.0070690775 -1.7034801e-21)
(2.5725919 -0.0097197854 2.4215007e-23)
(2.565966 -0.015748449 -3.9396933e-22)
(2.555874 -0.033059544 -2.5240166e-21)
(2.5513641 -0.048627598 -5.4597624e-22)
(2.5543837 -0.072367068 3.7363025e-21)
(2.5596281 -0.091245113 1.5870685e-21)
(2.5753028 -0.11280659 -4.8901732e-21)
(2.5902829 -0.12833685 -4.9132787e-21)
(2.6149289 -0.1411237 -7.6504148e-22)
(2.63591 -0.14861398 -3.1943522e-21)
(2.6635686 -0.14964311 -7.2112762e-22)
(2.6854378 -0.14748043 1.444128e-21)
(2.7098932 -0.13710714 -2.7818231e-21)
(2.7278285 -0.12646579 -7.0959592e-22)
(2.7442546 -0.10803941 -4.9716797e-22)
(2.7550438 -0.092227789 -4.361731e-21)
(2.7614357 -0.07085054 3.5626438e-21)
(2.7643424 -0.053957441 5.2497109e-21)
(2.7617711 -0.034383294 -5.2052502e-22)
(2.758171 -0.019835643 1.1435344e-24)
(2.7495868 -0.0051058712 -8.4843973e-22)
(2.7420492 0.0052826381 -5.7620547e-22)
(2.7307979 0.014464472 -1.5817639e-21)
(2.7216971 0.020372838 -1.2142942e-21)
(2.7101764 0.024412712 2.2961916e-21)
(2.7014231 0.0265993 2.7981234e-21)
(2.6912578 0.026919823 -3.0198962e-21)
(2.6835503 0.026048066 -3.3908771e-21)
(2.6750798 0.023545173 -2.5008753e-22)
(2.6692889 0.020700842 1.9874939e-21)
(2.6630859 0.016496191 4.0150639e-21)
(2.6584919 0.011748824 9.5177648e-22)
(2.6536669 0.0058869476 -8.8988264e-22)
(2.4059681 0.093362363 1.4991724e-21)
(2.4658754 0.021841853 -2.3078292e-21)
(2.5140435 -0.041495994 -3.2867647e-21)
(2.554253 -0.032610441 1.2233235e-21)
(2.5883259 -0.029815387 -4.5489215e-21)
(2.5877463 -0.012342265 -2.2583285e-21)
(2.5888902 -0.0036309293 -2.4401946e-22)
(2.5729612 -0.0014791368 -1.4001011e-21)
(2.5626212 -0.0037796139 2.4515268e-22)
(2.5462739 -0.021211557 -1.2608947e-22)
(2.5358794 -0.037601063 -2.1445131e-21)
(2.5340383 -0.065712597 2.2703106e-21)
(2.5355896 -0.08851103 6.3628741e-21)
(2.5495794 -0.11644535 3.9573344e-21)
(2.5637369 -0.13739415 -2.1563756e-21)
(2.5900607 -0.15674579 -8.431213e-21)
(2.6131144 -0.16947089 -4.546766e-21)
(2.6454693 -0.17575322 -2.4441866e-21)
(2.6717599 -0.17732002 -8.4180946e-23)
(2.7029397 -0.16953248 1.6310613e-21)
(2.7265482 -0.16015752 -2.3731427e-21)
(2.7499666 -0.1409485 2.0274634e-21)
(2.7661762 -0.12370446 2.2714483e-21)
(2.778005 -0.098626196 6.3999523e-21)
(2.7847441 -0.078299268 1.4076471e-20)
(2.7849598 -0.053583268 9.7149584e-21)
(2.7830819 -0.034754461 4.2988214e-21)
(2.7747571 -0.014895072 -2.0555216e-22)
(2.7669736 -0.00057793367 -1.0200321e-21)
(2.754166 0.012557164 1.1018715e-21)
(2.743709 0.021579202 1.7290536e-22)
(2.7299109 0.028419244 -1.4005164e-21)
(2.7190893 0.032562797 1.9298398e-21)
(2.7063323 0.034359819 5.9470485e-21)
(2.6967335 0.034913033 4.7267542e-22)
(2.6861173 0.033440573 -5.4914461e-21)
(2.678093 0.031230819 -2.5416779e-21)
(2.6695781 0.027366247 2.3819273e-23)
(2.6636761 0.023549892 1.9192608e-21)
(2.6575274 0.018432993 -1.4364606e-21)
(2.6529186 0.012916981 -3.2208987e-21)
(2.6481804 0.0063330607 2.4069113e-21)
(2.3694727 0.07802213 -7.6827547e-21)
(2.4460077 0.00020437457 -8.6838171e-21)
(2.5062085 -0.068991737 -1.2455583e-20)
(2.5538931 -0.05373313 -7.761542e-21)
(2.5978311 -0.045181998 -3.5145237e-21)
(2.5986194 -0.016859734 -2.005142e-21)
(2.5999705 0.00026856562 2.1072221e-22)
(2.5775543 0.008862346 9.3369512e-22)
(2.5617335 0.011318392 -1.4582034e-22)
(2.5374444 -0.0054972454 7.1138856e-22)
(2.5209028 -0.021913326 3.6609889e-22)
(2.5130238 -0.054544562 2.6699872e-21)
(2.5094883 -0.081486921 6.9205227e-21)
(2.5206861 -0.11641107 3.9388728e-21)
(2.533008 -0.14342637 1.6171219e-21)
(2.5601435 -0.17039 -6.0599502e-22)
(2.5846016 -0.189399 -6.5549543e-21)
(2.62129 -0.20242367 3.4280014e-21)
(2.6518775 -0.2090645 5.5395179e-21)
(2.6902767 -0.20552751 1.5997046e-21)
(2.7202028 -0.19872857 3.2544691e-21)
(2.7520128 -0.17996556 2.0376801e-21)
(2.7749175 -0.16209231 6.2725584e-21)
(2.7939938 -0.1336419 -1.0660584e-21)
(2.8060529 -0.10987457 2.7897348e-21)
(2.8106454 -0.07932209 1.2061034e-20)
(2.8116171 -0.055586445 7.9054473e-21)
(2.8043592 -0.029480931 9.5102058e-22)
(2.7969734 -0.010202761 -3.3730643e-21)
(2.7828136 0.0081322756 2.1448806e-21)
(2.7709848 0.021026581 4.2081837e-21)
(2.7545432 0.031358023 -5.2007262e-22)
(2.7416035 0.038247967 -2.0244691e-21)
(2.7259817 0.042207358 7.4053678e-23)
(2.7139448 0.044244454 3.8603625e-21)
(2.7005399 0.043656609 7.1357713e-23)
(2.6904883 0.042497121 -5.5971849e-21)
(2.6798185 0.039275861 -3.7447346e-21)
(2.6717371 0.035774928 -1.326296e-21)
(2.6634178 0.03066491 1.4510769e-21)
(2.6575594 0.025962003 -1.7415741e-21)
(2.6516007 0.020049836 -5.7202398e-21)
(2.64707 0.013872791 -4.1527213e-22)
(2.6424966 0.0066909038 8.1422574e-22)
(2.3363587 0.058548528 8.5412143e-22)
(2.4294626 -0.0254454 -5.2850415e-21)
(2.5002951 -0.10058568 -6.1985794e-21)
(2.5541457 -0.079268191 -4.7256553e-21)
(2.6090898 -0.064504555 -1.7543477e-22)
(2.6135398 -0.023239239 5.2545797e-21)
(2.6159858 0.0044312361 6.8267336e-21)
(2.5869704 0.021083853 -3.8343587e-23)
(2.5649173 0.029800836 6.4431085e-22)
(2.5310472 0.014184682 2.6745181e-21)
(2.5067037 -0.0015901186 3.5321644e-21)
(2.4913593 -0.038465611 -3.6590388e-21)
(2.4815378 -0.069588282 -1.4992886e-21)
(2.4887625 -0.11207163 7.230241e-22)
(2.4981704 -0.14573224 -2.2042827e-21)
(2.5251058 -0.18119325 6.2491728e-21)
(2.5501295 -0.20746712 4.1765786e-21)
(2.5904564 -0.22869896 -3.1513823e-21)
(2.6249416 -0.24181894 6.3582685e-21)
(2.6707529 -0.24447605 9.3838442e-21)
(2.707396 -0.24183301 5.6973661e-21)
(2.74894 -0.22523114 -2.7774905e-21)
(2.7798198 -0.20792061 -4.0463075e-21)
(2.8082348 -0.17683347 -1.8108976e-20)
(2.8273296 -0.14995835 -2.5475237e-20)
(2.8383166 -0.11313337 -1.3846256e-20)
(2.8437029 -0.083856989 -5.2588132e-21)
(2.8388091 -0.050137379 3.3277965e-21)
(2.8326695 -0.024814713 -3.3538887e-21)
(2.8174532 0.00016117567 -4.2180248e-21)
(2.8044917 0.018086841 1.008138e-21)
(2.7851428 0.033185025 1.2713205e-21)
(2.7697524 0.043527646 -3.2631268e-21)
(2.7506266 0.050129241 1.2556104e-21)
(2.7358929 0.054315598 3.2968827e-21)
(2.7192889 0.055122439 5.277316e-22)
(2.7065996 0.054892639 -3.1205597e-21)
(2.693124 0.05195292 -6.2463369e-21)
(2.683 0.049113111 -4.4979784e-21)
(2.6726275 0.044281456 4.1094878e-22)
(2.6647193 0.039594382 3.0735214e-21)
(2.6567924 0.033396753 1.1896709e-21)
(2.651108 0.027918276 -2.5430192e-21)
(2.6454457 0.021342011 4.4336619e-22)
(2.6410684 0.014617979 1.6236125e-21)
(2.6367197 0.0069626303 -3.7036762e-21)
(2.3063895 0.036517027 9.1916262e-21)
(2.4121529 -0.053491247 6.3843598e-21)
(2.4932799 -0.13470699 6.405326e-22)
(2.55434 -0.10771618 2.1250658e-20)
(2.6196494 -0.087253601 2.3020182e-20)
(2.62923 -0.031436175 8.4782858e-21)
(2.6345284 0.0086910605 1.3757666e-20)
(2.6007753 0.035311512 8.3838297e-21)
(2.5723064 0.051949712 1.881611e-21)
(2.5273607 0.038208854 5.9411598e-22)
(2.4937118 0.023807768 2.5211243e-21)
(2.46944 -0.017352985 2.9669031e-21)
(2.4518802 -0.052500744 -3.7909268e-21)
(2.4540506 -0.10295285 -6.7296151e-21)
(2.4593927 -0.1437655 -4.7198825e-21)
(2.4850531 -0.18839799 -2.6654967e-21)
(2.5096833 -0.22275872 5.3603964e-21)
(2.552588 -0.25346431 1.1344784e-20)
(2.590259 -0.27443215 4.5061146e-21)
(2.6431523 -0.28534018 9.055631e-21)
(2.6866033 -0.28869367 1.1978041e-20)
(2.738976 -0.27653013 9.7728989e-21)
(2.7790258 -0.26142282 1.7792668e-21)
(2.8191495 -0.22906589 3.9339189e-21)
(2.8472272 -0.19981465 -9.2931158e-21)
(2.8672051 -0.15654603 -2.6199067e-20)
(2.878968 -0.12134467 -1.5144746e-20)
(2.8782683 -0.078656741 -1.8785895e-20)
(2.8747047 -0.045978115 -1.085626e-20)
(2.8591061 -0.012456089 -6.9847345e-21)
(2.8453212 0.011858517 -7.8610807e-21)
(2.8227838 0.033232765 1.9449671e-21)
(2.8047111 0.048211184 2.2092722e-21)
(2.7814058 0.058509947 -3.3260543e-21)
(2.7633735 0.065373462 9.6196419e-22)
(2.7427591 0.067766922 4.681739e-21)
(2.7270357 0.068950923 2.0738158e-21)
(2.7102886 0.066606517 1.8170072e-21)
(2.6975005 0.064123707 -1.0744879e-21)
(2.6844656 0.05901371 3.7691458e-21)
(2.6746063 0.05461923 8.5550809e-21)
(2.6648158 0.048382929 4.4957829e-21)
(2.6572699 0.042656247 2.7285852e-21)
(2.649884 0.035552799 -1.6121056e-21)
(2.6444761 0.029424524 1.2371883e-21)
(2.6391874 0.022319877 8.2228863e-21)
(2.6350212 0.01516324 3.2659287e-21)
(2.6309398 0.0071537058 -4.4630895e-21)
(2.2798943 0.0132425 4.018221e-21)
(2.3941088 -0.08232336 7.4713437e-21)
(2.4824556 -0.16941758 4.7793494e-21)
(2.5479887 -0.13764412 -2.4488225e-23)
(2.6245004 -0.11211403 1.9596205e-20)
(2.6420735 -0.040843819 1.6342025e-20)
(2.6512279 0.012955687 2.429068e-21)
(2.6155461 0.051678192 1.9269989e-21)
(2.5823463 0.077992069 -3.3664074e-21)
(2.5258162 0.066958477 -5.5953378e-22)
(2.4815736 0.054585334 -1.8198829e-21)
(2.4475081 0.0091074267 -4.5326368e-22)
(2.4206323 -0.02996604 -3.1947626e-23)
(2.4167845 -0.088887982 1.3361506e-20)
(2.4170114 -0.13726538 1.0818833e-20)
(2.4405101 -0.1916167 -6.8009468e-21)
(2.4637527 -0.23469555 -4.8596371e-21)
(2.5080608 -0.27588162 8.3095083e-21)
(2.5478766 -0.30588812 1.4058487e-20)
(2.606978 -0.32705053 -4.0955906e-21)
(2.6568195 -0.33833643 1.2592373e-22)
(2.7204695 -0.33317959 4.4739209e-21)
(2.7706158 -0.32244405 2.2630021e-21)
(2.8246334 -0.29086879 2.4876359e-20)
(2.8638562 -0.26056448 2.7300508e-20)
(2.8960123 -0.21127573 2.7744421e-20)
(2.916637 -0.17000745 1.2217417e-20)
(2.9226843 -0.11692694 1.8074894e-21)
(2.9235439 -0.075634412 -1.4328615e-21)
(2.9087039 -0.031412271 -8.0672354e-21)
(2.8947963 0.001279136 -4.3482537e-21)
(2.8688267 0.030891372 -9.6298818e-21)
(2.8478761 0.051977809 -3.4642738e-22)
(2.8195349 0.067156207 8.7782381e-22)
(2.7975721 0.077713607 -4.3982045e-21)
(2.7720059 0.082394371 -1.7129946e-21)
(2.7524727 0.085258182 1.7814352e-21)
(2.7315879 0.083388452 3.6299404e-24)
(2.7156821 0.081544531 -2.7020927e-22)
(2.699538 0.076285557 1.5099392e-21)
(2.687143 0.07171129 6.1478831e-21)
(2.674959 0.064719103 7.1817282e-21)
(2.6656381 0.058962984 3.306969e-21)
(2.6566393 0.051567049 2.8393479e-21)
(2.6495989 0.04497174 -1.2792811e-21)
(2.6428552 0.037152518 -2.9451532e-21)
(2.6377981 0.030505406 3.6230679e-21)
(2.6329328 0.023004841 3.8506024e-21)
(2.6290189 0.015525178 -3.4781075e-21)
(2.6252318 0.0072715373 -7.2235755e-21)
(2.2573566 -0.010314523 4.6486266e-22)
(2.3767454 -0.11128842 1.0039472e-20)
(2.4693873 -0.20372811 1.3410959e-20)
(2.5376849 -0.16828523 7.4470291e-21)
(2.6217639 -0.13787881 3.055793e-21)
(2.645211 -0.052010985 -1.4203598e-21)
(2.6607481 0.016628127 -4.8497417e-21)
(2.6294412 0.069720393 -2.5210988e-21)
(2.5940547 0.10787517 -3.0746447e-21)
(2.5235584 0.10059676 -5.0491505e-21)
(2.4683946 0.090954181 -2.4099273e-21)
(2.4248966 0.041177281 -1.593587e-21)
(2.387628 -0.0018530315 -2.923796e-22)
(2.3772277 -0.069897466 8.0855329e-21)
(2.3714382 -0.12629875 2.0929463e-20)
(2.3922168 -0.19080347 1.6813131e-20)
(2.4132871 -0.24311323 1.5998346e-22)
(2.4579527 -0.29557654 -2.9886468e-21)
(2.4987923 -0.33557415 9.545428e-21)
(2.5629981 -0.36901059 6.6122497e-21)
(2.6182948 -0.3901435 -1.0680574e-20)
(2.6933016 -0.39501666 -4.2740237e-20)
(2.7538391 -0.39110474 -3.9275224e-20)
(2.8235709 -0.36290879 -3.8787539e-20)
(2.8758761 -0.33352735 -1.7949042e-20)
(2.9233832 -0.2790417 1.0477494e-20)
(2.9558678 -0.2321352 1.0595744e-20)
(2.9717835 -0.16738809 2.3233755e-20)
(2.9796444 -0.11609446 1.3477608e-20)
(2.9671135 -0.058472144 1.2271923e-20)
(2.9543522 -0.015203817 6.1835642e-21)
(2.9249363 0.025041368 2.8719056e-21)
(2.9009905 0.05427533 -2.0319488e-21)
(2.8666409 0.076150566 -3.9018348e-21)
(2.8399445 0.091650928 -2.7939832e-21)
(2.8081683 0.099321431 4.1203201e-21)
(2.7839212 0.1045529 6.8095007e-21)
(2.7578635 0.10345285 -1.5982302e-21)
(2.7380045 0.1022201 -3.3378145e-21)
(2.7179381 0.096403642 -3.4786994e-22)
(2.7025693 0.091740553 1.3410531e-21)
(2.6876208 0.083972604 -2.2761897e-21)
(2.6760143 0.077575421 -1.4230621e-21)
(2.6649761 0.06905031 -2.7634692e-21)
(2.6563957 0.062165609 -3.2992978e-21)
(2.6483247 0.05386913 1.2293572e-22)
(2.6418875 0.046585315 -1.4372351e-21)
(2.6358438 0.038236071 -5.8656817e-22)
(2.6311859 0.031198441 -4.3445734e-22)
(2.6267699 0.023425531 -2.4263364e-21)
(2.6231347 0.015723971 -5.9661483e-21)
(2.6196559 0.0073246785 -1.0824405e-21)
(2.2388022 -0.033207759 -4.3920391e-21)
(2.3596609 -0.13912663 -3.5405886e-21)
(2.4546962 -0.23695256 5.4887141e-21)
(2.5254137 -0.19777196 -1.4827687e-21)
(2.6140272 -0.16367599 -7.3087666e-21)
(2.641774 -0.064523492 5.9454529e-21)
(2.6622307 0.018020567 1.7280842e-21)
(2.639997 0.088367772 1.2633633e-20)
(2.6084075 0.14078867 1.5105804e-20)
(2.5210907 0.13850287 -9.2051777e-23)
(2.4529816 0.13288254 -1.9207764e-21)
(2.3991292 0.078637837 4.3363639e-21)
(2.3515197 0.031683313 5.1533212e-21)
(2.3352151 -0.046116013 -1.8628154e-20)
(2.3229579 -0.11113707 -1.0925052e-20)
(2.3408226 -0.1861127 4.7000541e-21)
(2.3592709 -0.24806739 5.2581776e-22)
(2.4033291 -0.31211509 1.0843023e-20)
(2.4442206 -0.36285086 8.0188725e-21)
(2.5119893 -0.41011025 2.1464458e-21)
(2.5715828 -0.44300726 -7.1679546e-22)
(2.6572402 -0.46138213 1.0790323e-20)
(2.7280822 -0.46721502 -1.9319669e-20)
(2.8155624 -0.44642781 -2.0077029e-20)
(2.882472 -0.42050005 -1.9300196e-20)
(2.9494915 -0.36295436 -4.8847867e-20)
(2.9967512 -0.3112447 -2.2307669e-20)
(3.0265994 -0.23340608 1.1773587e-20)
(3.0446374 -0.17089454 2.3792115e-20)
(3.0361705 -0.09629042 2.0132163e-20)
(3.0262961 -0.039841857 1.9089958e-20)
(2.9931028 0.014573703 1.1444731e-20)
(2.9662568 0.054423774 8.3812663e-21)
(2.924621 0.085285618 -1.1832746e-20)
(2.8922804 0.10752235 -1.3758788e-20)
(2.8527816 0.11934692 1.2182538e-20)
(2.8226101 0.1277406 1.8982411e-20)
(2.7899848 0.12754524 -4.7750579e-21)
(2.7651674 0.12721866 -1.2935092e-20)
(2.7402089 0.12076238 7.6268926e-21)
(2.7210773 0.11570719 1.0637677e-20)
(2.7026845 0.1065254 2.8076079e-21)
(2.6884253 0.09942167 -6.0679049e-22)
(2.6750871 0.089644912 -5.5981409e-21)
(2.664554 0.081756035 -6.9342608e-21)
(2.654843 0.072067865 -4.4774557e-21)