/*--------------------------------*- C++ -*----------------------------------*\
| =========                 |                                                 |
| \\      /  F ield         | OpenFOAM: The Open Source CFD Toolbox           |
|  \\    /   O peration     | Version:  v2012                                 |
|   \\  /    A nd           | Website:  www.openfoam.com                      |
|    \\/     M anipulation  |                                                 |
\*---------------------------------------------------------------------------*/
FoamFile
{
    version     2.0;
    format      ascii;
    class       volVectorField;
    location    "119.831078516937012";
    object      cellDisplacement;
}
// * * * * * * * * * * * * * * * * * * * * * * * * * * * * * * * * * * * * * //

dimensions      [0 1 0 0 0 0 0];


internalField   nonuniform List<vector> 
9200
(
(-0.022629451 0 0)
(-0.022762683 0 0)
(-0.065735174 0 0)
(-0.022883947 0 0)
(-0.065915176 0 0)
(-0.10564293 0 0)
(-0.023038205 0 0)
(-0.066285369 0 0)
(-0.10603475 0 0)
(-0.14283311 0 0)
(-0.023191166 0 0)
(-0.066689627 0 0)
(-0.10656959 0 0)
(-0.14323362 0 0)
(-0.17722183 0 0)
(-0.023346718 0 0)
(-0.067116702 0 0)
(-0.1072069 0 0)
(-0.14395148 0 0)
(-0.17778651 0 0)
(-0.20926218 0 0)
(-0.023496924 0 0)
(-0.067543149 0 0)
(-0.10788773 0 0)
(-0.14482121 0 0)
(-0.17865778 0 0)
(-0.2098332 0 0)
(-0.23889121 0 0)
(-0.023639601 0 0)
(-0.067957611 0 0)
(-0.10856359 0 0)
(-0.14573156 0 0)
(-0.17972135 0 0)
(-0.2108651 0 0)
(-0.23961479 0 0)
(-0.26649513 0 0)
(-0.023772227 0 0)
(-0.068349135 0 0)
(-0.10921738 0 0)
(-0.14664792 0 0)
(-0.18087076 0 0)
(-0.21213658 0 0)
(-0.24077817 0 0)
(-0.26723249 0 0)
(-0.29201562 0 0)
(-0.023892493 0 0)
(-0.068711255 0 0)
(-0.10983357 0 0)
(-0.14753208 0 0)
(-0.18202727 0 0)
(-0.21352322 0 0)
(-0.24225081 0 0)
(-0.26856035 0 0)
(-0.29290382 0 0)
(-0.31578028 0 0)
(-0.024000953 0 0)
(-0.069041085 0 0)
(-0.11040161 0 0)
(-0.14836472 0 0)
(-0.18314665 0 0)
(-0.21492056 0 0)
(-0.24386814 0 0)
(-0.27023918 0 0)
(-0.29437186 0 0)
(-0.31669853 0 0)
(-0.3377356 0 0)
(-0.02409594 0 0)
(-0.069335093 0 0)
(-0.11091642 0 0)
(-0.14913136 0 0)
(-0.18419621 0 0)
(-0.21627191 0 0)
(-0.24551275 0 0)
(-0.27209403 0 0)
(-0.2962543 0 0)
(-0.31834807 0 0)
(-0.33881037 0 0)
(-0.35815477 0 0)
(-0.024179327 0 0)
(-0.069595303 0 0)
(-0.11137495 0 0)
(-0.14982297 0 0)
(-0.1851662 0 0)
(-0.21754944 0 0)
(-0.24711275 0 0)
(-0.27400431 0 0)
(-0.29836933 0 0)
(-0.32045751 0 0)
(-0.34061766 0 0)
(-0.359281 0 0)
(-0.37699532 0 0)
(-0.024250265 0 0)
(-0.069820246 0 0)
(-0.11177728 0 0)
(-0.15043787 0 0)
(-0.18603904 0 0)
(-0.2187222 0 0)
(-0.24862027 0 0)
(-0.27585759 0 0)
(-0.30054078 0 0)
(-0.32282201 0 0)
(-0.34294941 0 0)
(-0.36128716 0 0)
(-0.37828006 0 0)
(-0.39448564 0 0)
(-0.024310745 0 0)
(-0.07001341 0 0)
(-0.11212519 0 0)
(-0.15097406 0 0)
(-0.18681671 0 0)
(-0.21978756 0 0)
(-0.25000732 0 0)
(-0.27760387 0 0)
(-0.30266859 0 0)
(-0.32528077 0 0)
(-0.34558711 0 0)
(-0.36386441 0 0)
(-0.38046174 0 0)
(-0.39583864 0 0)
(-0.41059559 0 0)
(-0.024360875 0 0)
(-0.070175965 0 0)
(-0.11242249 0 0)
(-0.1514381 0 0)
(-0.18749489 0 0)
(-0.22072939 0 0)
(-0.25126513 0 0)
(-0.27921922 0 0)
(-0.30468132 0 0)
(-0.32770725 0 0)
(-0.34834507 0 0)
(-0.36677525 0 0)
(-0.38328319 0 0)
(-0.39823595 0 0)
(-0.41210773 0 0)
(-0.42551444 0 0)
(-0.024402562 0 0)
(-0.070311439 0 0)
(-0.11267336 0 0)
(-0.15183082 0 0)
(-0.18808101 0 0)
(-0.22155959 0 0)
(-0.25238213 0 0)
(-0.28067681 0 0)
(-0.30653653 0 0)
(-0.3299924 0 0)
(-0.35105368 0 0)
(-0.36982152 0 0)
(-0.38648478 0 0)
(-0.40132311 0 0)
(-0.41469654 0 0)
(-0.42711078 0 0)
(-0.43922523 0 0)
(-0.02443628 0 0)
(-0.070422396 0 0)
(-0.11288222 0 0)
(-0.15216266 0 0)
(-0.18857974 0 0)
(-0.22227126 0 0)
(-0.25336258 0 0)
(-0.28198041 0 0)
(-0.30821614 0 0)
(-0.33210934 0 0)
(-0.35365608 0 0)
(-0.37287267 0 0)
(-0.38985606 0 0)
(-0.40482306 0 0)
(-0.41805017 0 0)
(-0.42992787 0 0)
(-0.44098059 0 0)
(-0.45188668 0 0)
(-0.024463834 0 0)
(-0.070511129 0 0)
(-0.11305341 0 0)
(-0.15243598 0 0)
(-0.18899918 0 0)
(-0.22288371 0 0)
(-0.25420917 0 0)
(-0.28311856 0 0)
(-0.30971666 0 0)
(-0.33403538 0 0)
(-0.35606155 0 0)
(-0.37577613 0 0)
(-0.39321211 0 0)
(-0.40851286 0 0)
(-0.42186916 0 0)
(-0.43356784 0 0)
(-0.444003 0 0)
(-0.45373806 0 0)
(-0.46349122 0 0)
(-0.024485684 0 0)
(-0.070581837 0 0)
(-0.11319259 0 0)
(-0.15266259 0 0)
(-0.18934847 0 0)
(-0.22339418 0 0)
(-0.25493125 0 0)
(-0.28410782 0 0)
(-0.31103419 0 0)
(-0.3357524 0 0)
(-0.35825138 0 0)
(-0.3784935 0 0)
(-0.39646701 0 0)
(-0.41223362 0 0)
(-0.42591109 0 0)
(-0.43771255 0 0)
(-0.44792993 0 0)
(-0.45699927 0 0)
(-0.46550014 0 0)
(-0.47417077 0 0)
(-0.024503728 0 0)
(-0.070635909 0 0)
(-0.11330244 0 0)
(-0.15284403 0 0)
(-0.18963449 0 0)
(-0.223824 0 0)
(-0.25553959 0 0)
(-0.28494667 0 0)
(-0.31217696 0 0)
(-0.33727264 0 0)
(-0.36021892 0 0)
(-0.38098018 0 0)
(-0.39952499 0 0)
(-0.41583692 0 0)
(-0.42997767 0 0)
(-0.44210887 0 0)
(-0.45241984 0 0)
(-0.46122856 0 0)
(-0.46897714 0 0)
(-0.47628549 0 0)
(-0.48392681 0 0)
(-0.024517951 0 0)
(-0.070677851 0 0)
(-0.11338942 0 0)
(-0.15299219 0 0)
(-0.18986871 0 0)
(-0.22417308 0 0)
(-0.25604503 0 0)
(-0.28565777 0 0)
(-0.31315369 0 0)
(-0.33858926 0 0)
(-0.361958 0 0)
(-0.38321958 0 0)
(-0.40232999 0 0)
(-0.41924301 0 0)
(-0.43396144 0 0)
(-0.44657154 0 0)
(-0.45719825 0 0)
(-0.46606791 0 0)
(-0.47350811 0 0)
(-0.48000656 0 0)
(-0.48619634 0 0)
(-0.49287059 0 0)
(-0.024530359 0 0)
(-0.070708502 0 0)
(-0.11345575 0 0)
(-0.1531078 0 0)
(-0.19005567 0 0)
(-0.2244612 0 0)
(-0.25646163 0 0)
(-0.28624417 0 0)
(-0.31397727 0 0)
(-0.33972448 0 0)
(-0.36348057 0 0)
(-0.3852069 0 0)
(-0.40486336 0 0)
(-0.4223931 0 0)
(-0.43774678 0 0)
(-0.45093392 0 0)
(-0.46204223 0 0)
(-0.4712322 0 0)
(-0.47871283 0 0)
(-0.48485075 0 0)
(-0.49013912 0 0)
(-0.49525144 0 0)
(-0.50100951 0 0)
(-0.024540355 0 0)
(-0.070731897 0 0)
(-0.11350703 0 0)
(-0.1532005 0 0)
(-0.19020614 0 0)
(-0.22468913 0 0)
(-0.25679891 0 0)
(-0.28673015 0 0)
(-0.31466445 0 0)
(-0.34068164 0 0)
(-0.36479119 0 0)
(-0.38695328 0 0)
(-0.40712614 0 0)
(-0.42525075 0 0)
(-0.44126413 0 0)
(-0.45511286 0 0)
(-0.46682337 0 0)
(-0.47650358 0 0)
(-0.48428363 0 0)
(-0.49042177 0 0)
(-0.4952939 0 0)
(-0.49943948 0 0)
(-0.50354031 0 0)
(-0.50843654 0 0)
(-0.024549784 0 0)
(-0.070748705 0 0)
(-0.11354449 0 0)
(-0.1532712 0 0)
(-0.19032335 0 0)
(-0.22487332 0 0)
(-0.2570707 0 0)
(-0.28712006 0 0)
(-0.31522822 0 0)
(-0.34148651 0 0)
(-0.36591129 0 0)
(-0.38846553 0 0)
(-0.40911681 0 0)
(-0.42781064 0 0)
(-0.44446847 0 0)
(-0.4590142 0 0)
(-0.4714137 0 0)
(-0.48169841 0 0)
(-0.48997012 0 0)
(-0.49640226 0 0)
(-0.50124242 0 0)
(-0.50491129 0 0)
(-0.50795134 0 0)
(-0.51108159 0 0)
(-0.5151646 0 0)
(-0.024557765 0 0)
(-0.070761949 0 0)
(-0.11357327 0 0)
(-0.15332771 0 0)
(-0.19041716 0 0)
(-0.22501567 0 0)
(-0.25728536 0 0)
(-0.28743693 0 0)
(-0.31568829 0 0)
(-0.34214789 0 0)
(-0.36685184 0 0)
(-0.38976287 0 0)
(-0.41085456 0 0)
(-0.43007348 0 0)
(-0.44734577 0 0)
(-0.46258787 0 0)
(-0.47572083 0 0)
(-0.48671267 0 0)
(-0.49561463 0 0)
(-0.50254026 0 0)
(-0.50764514 0 0)
(-0.51123441 0 0)
(-0.51373496 0 0)
(-0.51573363 0 0)
(-0.51795317 0 0)
(-0.52127238 0 0)
(-0.024565742 0 0)
(-0.070772223 0 0)
(-0.11359409 0 0)
(-0.1533709 0 0)
(-0.19048943 0 0)
(-0.22512856 0 0)
(-0.25745418 0 0)
(-0.28768415 0 0)
(-0.31605604 0 0)
(-0.34269169 0 0)
(-0.36763813 0 0)
(-0.39086172 0 0)
(-0.41234792 0 0)
(-0.43205675 0 0)
(-0.4499064 0 0)
(-0.46581214 0 0)
(-0.47968946 0 0)
(-0.4914504 0 0)
(-0.50107789 0 0)
(-0.50862923 0 0)
(-0.51422282 0 0)
(-0.51806052 0 0)
(-0.52043904 0 0)
(-0.52183153 0 0)
(-0.52282474 0 0)
(-0.52417454 0 0)
(-0.52677603 0 0)
(-0.024573097 0 0)
(-0.070781588 0 0)
(-0.11361119 0 0)
(-0.1534063 0 0)
(-0.1905479 0 0)
(-0.22521471 0 0)
(-0.25758453 0 0)
(-0.28788225 0 0)
(-0.31635101 0 0)
(-0.34312741 0 0)
(-0.36828319 0 0)
(-0.39178357 0 0)
(-0.41362443 0 0)
(-0.43377262 0 0)
(-0.45215435 0 0)
(-0.4686894 0 0)
(-0.48328242 0 0)
(-0.49582727 0 0)
(-0.50625146 0 0)
(-0.51454749 0 0)
(-0.52078681 0 0)
(-0.52510412 0 0)
(-0.52769379 0 0)
(-0.52891019 0 0)
(-0.52922954 0 0)
(-0.52927913 0 0)
(-0.52981357 0 0)
(-0.53174145 0 0)
(-0.024580361 0 0)
(-0.070790431 0 0)
(-0.11362477 0 0)
(-0.15343521 0 0)
(-0.1905942 0 0)
(-0.22528316 0 0)
(-0.25768543 0 0)
(-0.28803316 0 0)
(-0.3165812 0 0)
(-0.34347899 0 0)
(-0.36881218 0 0)
(-0.39254889 0 0)
(-0.41469783 0 0)
(-0.43524535 0 0)
(-0.45411579 0 0)
(-0.47122736 0 0)
(-0.4864963 0 0)
(-0.49981256 0 0)
(-0.51106261 0 0)
(-0.52018039 0 0)
(-0.52718054 0 0)
(-0.53213431 0 0)
(-0.5351913 0 0)
(-0.53659221 0 0)
(-0.53668439 0 0)
(-0.53598915 0 0)
(-0.53513033 0 0)
(-0.53488999 0 0)
(-0.53618759 0 0)
(-0.024586944 0 0)
(-0.070801011 0 0)
(-0.11363898 0 0)
(-0.15346153 0 0)
(-0.19063423 0 0)
(-0.22533677 0 0)
(-0.25776301 0 0)
(-0.28815306 0 0)
(-0.31676374 0 0)
(-0.34375421 0 0)
(-0.36923699 0 0)
(-0.39317793 0 0)
(-0.41559803 0 0)
(-0.43649555 0 0)
(-0.45580356 0 0)
(-0.47345074 0 0)
(-0.48935027 0 0)
(-0.50339364 0 0)
(-0.51546246 0 0)
(-0.52544007 0 0)
(-0.53328041 0 0)
(-0.53900768 0 0)
(-0.5427119 0 0)
(-0.54456046 0 0)
(-0.54479275 0 0)
(-0.54381081 0 0)
(-0.54213613 0 0)
(-0.5404279 0 0)
(-0.53946236 0 0)
(-0.54017013 0 0)
(-0.024490906 0 0)
(-0.070811615 0 0)
(-0.1136529 0 0)
(-0.15348724 0 0)
(-0.19066949 0 0)
(-0.22538157 0 0)
(-0.25782387 0 0)
(-0.28824382 0 0)
(-0.31690431 0 0)
(-0.34397407 0 0)
(-0.36958041 0 0)
(-0.3936918 0 0)
(-0.41634001 0 0)
(-0.43754812 0 0)
(-0.45725034 0 0)
(-0.47537599 0 0)
(-0.49185367 0 0)
(-0.5065817 0 0)
(-0.51943158 0 0)
(-0.53027115 0 0)
(-0.53900298 0 0)
(-0.5455928 0 0)
(-0.55008051 0 0)
(-0.55255942 0 0)
(-0.55321913 0 0)
(-0.55234127 0 0)
(-0.55032214 0 0)
(-0.54772491 0 0)
(-0.54520196 0 0)
(-0.54355094 0 0)
(-0.54370927 0 0)
(-0.024375765 0 0)
(-0.070599922 0 0)
(-0.11366965 0 0)
(-0.15351361 0 0)
(-0.19070331 0 0)
(-0.2254207 0 0)
(-0.25787338 0 0)
(-0.28831805 0 0)
(-0.31701651 0 0)
(-0.3441436 0 0)
(-0.36985172 0 0)
(-0.39410703 0 0)
(-0.41695253 0 0)
(-0.43842713 0 0)
(-0.45847273 0 0)
(-0.47703267 0 0)
(-0.49403927 0 0)
(-0.50939274 0 0)
(-0.52297392 0 0)
(-0.53464839 0 0)
(-0.54428237 0 0)
(-0.55178789 0 0)
(-0.557155 0 0)
(-0.56042419 0 0)
(-0.56171431 0 0)
(-0.56123427 0 0)
(-0.5592687 0 0)
(-0.55626348 0 0)
(-0.55277944 0 0)
(-0.54949784 0 0)
(-0.54720637 0 0)
(-0.54685144 0 0)
(-0.024272116 0 0)
(-0.070249131 0 0)
(-0.11335249 0 0)
(-0.15354235 0 0)
(-0.19073913 0 0)
(-0.22545726 0 0)
(-0.257916 0 0)
(-0.28837759 0 0)
(-0.31710462 0 0)
(-0.34428072 0 0)
(-0.37007027 0 0)
(-0.39444311 0 0)
(-0.41744901 0 0)
(-0.4391549 0 0)
(-0.45950485 0 0)
(-0.47844434 0 0)
(-0.49592341 0 0)
(-0.51185514 0 0)
(-0.52611517 0 0)
(-0.53857293 0 0)
(-0.54909249 0 0)
(-0.5575368 0 0)
(-0.56384001 0 0)
(-0.56800351 0 0)
(-0.57008551 0 0)
(-0.57021079 0 0)
(-0.56861467 0 0)
(-0.56561897 0 0)
(-0.56166447 0 0)
(-0.55734876 0 0)
(-0.55334246 0 0)
(-0.55044871 0 0)
(-0.54961769 0 0)
(-0.024180948 0 0)
(-0.069934549 0 0)
(-0.11279245 0 0)
(-0.15314054 0 0)
(-0.19077456 0 0)
(-0.22549671 0 0)
(-0.2579575 0 0)
(-0.28843118 0 0)
(-0.31717928 0 0)
(-0.34438807 0 0)
(-0.37024269 0 0)
(-0.39471205 0 0)
(-0.4178538 0 0)
(-0.43975552 0 0)
(-0.46036393 0 0)
(-0.47964034 0 0)
(-0.49754376 0 0)
(-0.51399227 0 0)
(-0.52887217 0 0)
(-0.54206091 0 0)
(-0.55341336 0 0)
(-0.56277823 0 0)
(-0.57005236 0 0)
(-0.57518111 0 0)
(-0.5781708 0 0)
(-0.57908568 0 0)
(-0.57808404 0 0)
(-0.57541917 0 0)
(-0.57141881 0 0)
(-0.56656666 0 0)
(-0.5614551 0 0)
(-0.55677663 0 0)
(-0.55332113 0 0)
(-0.55204701 0 0)
(-0.024102636 0 0)
(-0.069656776 0 0)
(-0.11228714 0 0)
(-0.15240071 0 0)
(-0.19029394 0 0)
(-0.22553501 0 0)
(-0.25799886 0 0)
(-0.28848233 0 0)
(-0.31724376 0 0)
(-0.34447923 0 0)
(-0.37038457 0 0)
(-0.3949303 0 0)
(-0.41817888 0 0)
(-0.44024701 0 0)
(-0.46108138 0 0)
(-0.48064634 0 0)
(-0.49891975 0 0)
(-0.51583672 0 0)
(-0.53128238 0 0)
(-0.54513583 0 0)
(-0.55726735 0 0)
(-0.56752558 0 0)
(-0.57576827 0 0)
(-0.58189151 0 0)
(-0.58585899 0 0)
(-0.58768787 0 0)
(-0.58746736 0 0)
(-0.58536383 0 0)
(-0.58165824 0 0)
(-0.57670978 0 0)
(-0.57099698 0 0)
(-0.56514286 0 0)
(-0.55982471 0 0)
(-0.55584354 0 0)
(-0.55416026 0 0)
(-0.024037903 0 0)
(-0.069419162 0 0)
(-0.11184353 0 0)
(-0.15173352 0 0)
(-0.1893865 0 0)
(-0.22497755 0 0)
(-0.25804423 0 0)
(-0.28853481 0 0)
(-0.31730527 0 0)
(-0.34455666 0 0)
(-0.37050063 0 0)
(-0.39510677 0 0)
(-0.41844309 0 0)
(-0.44065075 0 0)
(-0.46167265 0 0)
(-0.4814883 0 0)
(-0.50008817 0 0)
(-0.51741682 0 0)
(-0.53336753 0 0)
(-0.54783308 0 0)
(-0.56068497 0 0)
(-0.57177259 0 0)
(-0.58094133 0 0)
(-0.58806183 0 0)
(-0.59305757 0 0)
(-0.59588746 0 0)
(-0.5965842 0 0)
(-0.59524901 0 0)
(-0.59208349 0 0)
(-0.58738354 0 0)
(-0.58151577 0 0)
(-0.57499403 0 0)
(-0.56843255 0 0)
(-0.56252351 0 0)
(-0.5580529 0 0)
(-0.55598973 0 0)
(-0.023986904 0 0)
(-0.069221622 0 0)
(-0.11146174 0 0)
(-0.15114733 0 0)
(-0.18857131 0 0)
(-0.22391367 0 0)
(-0.25741568 0 0)
(-0.28859142 0 0)
(-0.31736969 0 0)
(-0.34463032 0 0)
(-0.37060276 0 0)
(-0.39525464 0 0)
(-0.4186575 0 0)
(-0.44098102 0 0)
(-0.46216512 0 0)
(-0.48219125 0 0)
(-0.50106895 0 0)
(-0.51876348 0 0)
(-0.53516844 0 0)
(-0.55017937 0 0)
(-0.56368547 0 0)
(-0.57554607 0 0)
(-0.5856 0 0)
(-0.59369716 0 0)
(-0.59972558 0 0)
(-0.60360204 0 0)
(-0.60530649 0 0)
(-0.60488557 0 0)
(-0.60246974 0 0)
(-0.59826952 0 0)
(-0.59260746 0 0)
(-0.58587565 0 0)
(-0.57858196 0 0)
(-0.57136441 0 0)
(-0.56489474 0 0)
(-0.55996823 0 0)
(-0.55755586 0 0)
(-0.023950323 0 0)
(-0.069066871 0 0)
(-0.1111465 0 0)
(-0.15064313 0 0)
(-0.18785216 0 0)
(-0.22295878 0 0)
(-0.25621455 0 0)
(-0.28790634 0 0)
(-0.31743573 0 0)
(-0.34470595 0 0)
(-0.37069629 0 0)
(-0.39538071 0 0)
(-0.41883525 0 0)
(-0.44125598 0 0)
(-0.46257142 0 0)
(-0.48277659 0 0)
(-0.50189486 0 0)
(-0.51990586 0 0)
(-0.53670752 0 0)
(-0.55221227 0 0)
(-0.56631578 0 0)
(-0.57888196 0 0)
(-0.58975747 0 0)
(-0.598787 0 0)
(-0.60582196 0 0)
(-0.61075397 0 0)
(-0.61352986 0 0)
(-0.61412849 0 0)
(-0.61261958 0 0)
(-0.60914634 0 0)
(-0.60395369 0 0)
(-0.59737535 0 0)
(-0.58981131 0 0)
(-0.58179749 0 0)
(-0.57395679 0 0)
(-0.56697091 0 0)
(-0.56162063 0 0)
(-0.55888555 0 0)
(-0.023928133 0 0)
(-0.068954777 0 0)
(-0.11089815 0 0)
(-0.15022662 0 0)
(-0.18723638 0 0)
(-0.22211589 0 0)
(-0.25513226 0 0)
(-0.28658202 0 0)
(-0.31669685 0 0)
(-0.34478185 0 0)
(-0.37078779 0 0)
(-0.39549452 0 0)
(-0.41898735 0 0)
(-0.44148638 0 0)
(-0.46291392 0 0)
(-0.48326651 0 0)
(-0.50258453 0 0)
(-0.52087123 0 0)
(-0.53802486 0 0)
(-0.55396126 0 0)
(-0.56859551 0 0)
(-0.58180655 0 0)
(-0.59344376 0 0)
(-0.60334705 0 0)
(-0.61135604 0 0)
(-0.6173378 0 0)
(-0.62120207 0 0)
(-0.62288302 0 0)
(-0.62238941 0 0)
(-0.61980891 0 0)
(-0.61531508 0 0)
(-0.60916018 0 0)
(-0.60170147 0 0)
(-0.59335899 0 0)
(-0.58466112 0 0)
(-0.57624576 0 0)
(-0.56877146 0 0)
(-0.5630284 0 0)
(-0.55999816 0 0)
(-0.023920829 0 0)
(-0.068887196 0 0)
(-0.11071981 0 0)
(-0.14989845 0 0)
(-0.18672526 0 0)
(-0.22139471 0 0)
(-0.25418158 0 0)
(-0.28538985 0 0)
(-0.31525084 0 0)
(-0.34398794 0 0)
(-0.37088086 0 0)
(-0.39560484 0 0)
(-0.41912202 0 0)
(-0.44168635 0 0)
(-0.46320255 0 0)
(-0.48367768 0 0)
(-0.50316517 0 0)
(-0.52168755 0 0)
(-0.53914175 0 0)
(-0.55546137 0 0)
(-0.57057286 0 0)
(-0.58436302 0 0)
(-0.59668997 0 0)
(-0.60740201 0 0)
(-0.6163365 0 0)
(-0.62333421 0 0)
(-0.62826857 0 0)
(-0.63105822 0 0)
(-0.63166484 0 0)
(-0.6300994 0 0)
(-0.62648009 0 0)
(-0.62099213 0 0)
(-0.61391937 0 0)
(-0.6056257 0 0)
(-0.59653884 0 0)
(-0.58720709 0 0)
(-0.57824731 0 0)
(-0.57032497 0 0)
(-0.56421777 0 0)
(-0.56091589 0 0)
(-0.068863974 0 0)
(-0.023924848 0 0)
(-0.11061174 0 0)
(-0.14966281 0 0)
(-0.18632457 0 0)
(-0.22079556 0 0)
(-0.25336509 0 0)
(-0.28434287 0 0)
(-0.31395285 0 0)
(-0.34242137 0 0)
(-0.37003485 0 0)
(-0.39571021 0 0)
(-0.41925254 0 0)
(-0.44186591 0 0)
(-0.46345493 0 0)
(-0.48402867 0 0)
(-0.50365337 0 0)
(-0.52237678 0 0)
(-0.54009412 0 0)
(-0.55674278 0 0)
(-0.5722692 0 0)
(-0.58657833 0 0)
(-0.59953541 0 0)
(-0.610991 0 0)
(-0.62078356 0 0)
(-0.62875313 0 0)
(-0.63474343 0 0)
(-0.63863872 0 0)
(-0.64037423 0 0)
(-0.63990841 0 0)
(-0.63729042 0 0)
(-0.63265339 0 0)
(-0.62621127 0 0)
(-0.61825379 0 0)
(-0.60916382 0 0)
(-0.5993844 0 0)
(-0.58945278 0 0)
(-0.57999347 0 0)
(-0.57164875 0 0)
(-0.56520589 0 0)
(-0.56165687 0 0)
(-0.11057547 0 0)
(-0.068876235 0 0)
(-0.023940663 0 0)
(-0.14951989 0 0)
(-0.18603484 0 0)
(-0.22032589 0 0)
(-0.25269025 0 0)
(-0.28344457 0 0)
(-0.31281113 0 0)
(-0.34101698 0 0)
(-0.36836252 0 0)
(-0.39482129 0 0)
(-0.41937692 0 0)
(-0.44203389 0 0)
(-0.46368046 0 0)
(-0.48433223 0 0)
(-0.50407054 0 0)
(-0.52296313 0 0)
(-0.54090071 0 0)
(-0.55783578 0 0)
(-0.57372896 0 0)
(-0.58849682 0 0)
(-0.60201415 0 0)
(-0.61414403 0 0)
(-0.62473203 0 0)
(-0.63361023 0 0)
(-0.64061342 0 0)
(-0.6455988 0 0)
(-0.64845908 0 0)
(-0.64913538 0 0)
(-0.64762163 0 0)
(-0.64397328 0 0)
(-0.63835485 0 0)
(-0.63098872 0 0)
(-0.62219245 0 0)
(-0.6123512 0 0)
(-0.60191387 0 0)
(-0.59143004 0 0)
(-0.58149846 0 0)
(-0.57276738 0 0)
(-0.56601451 0 0)
(-0.56223951 0 0)
(-0.14947204 0 0)
(-0.11059615 0 0)
(-0.068923878 0 0)
(-0.023970994 0 0)
(-0.1858602 0 0)
(-0.21998619 0 0)
(-0.2521592 0 0)
(-0.28270218 0 0)
(-0.31183377 0 0)
(-0.33977999 0 0)
(-0.36685886 0 0)
(-0.39304507 0 0)
(-0.418451 0 0)
(-0.44219508 0 0)
(-0.46388947 0 0)
(-0.48460265 0 0)
(-0.50443124 0 0)
(-0.52346447 0 0)
(-0.54159194 0 0)
(-0.55876868 0 0)
(-0.57497429 0 0)
(-0.59014499 0 0)
(-0.60416493 0 0)
(-0.61690536 0 0)
(-0.62821477 0 0)
(-0.63793407 0 0)
(-0.64589668 0 0)
(-0.65193787 0 0)
(-0.65591856 0 0)
(-0.6577488 0 0)
(-0.6573886 0 0)
(-0.65483267 0 0)
(-0.65017836 0 0)
(-0.64360361 0 0)
(-0.635356 0 0)
(-0.62575662 0 0)
(-0.61520414 0 0)
(-0.60415835 0 0)
(-0.59315338 0 0)
(-0.58278984 0 0)
(-0.57369662 0 0)
(-0.56665979 0 0)
(-0.56268045 0 0)
(-0.18580031 0 0)
(-0.14949823 0 0)
(-0.11067334 0 0)
(-0.069016303 0 0)
(-0.024016203 0 0)
(-0.21978094 0 0)
(-0.25177695 0 0)
(-0.2821191 0 0)
(-0.31102535 0 0)
(-0.33872292 0 0)
(-0.36554031 0 0)
(-0.39145222 0 0)
(-0.41658172 0 0)
(-0.44123692 0 0)
(-0.46408755 0 0)
(-0.48485272 0 0)
(-0.5047513 0 0)
(-0.52390074 0 0)
(-0.5421836 0 0)
(-0.55956629 0 0)
(-0.57604307 0 0)
(-0.59156462 0 0)
(-0.6060237 0 0)
(-0.6193067 0 0)
(-0.6312753 0 0)
(-0.64176822 0 0)
(-0.65062041 0 0)
(-0.65766688 0 0)
(-0.66274183 0 0)
(-0.66571824 0 0)
(-0.66651867 0 0)
(-0.66511897 0 0)
(-0.66155072 0 0)
(-0.65591645 0 0)
(-0.64842543 0 0)
(-0.63932973 0 0)
(-0.62897389 0 0)
(-0.6177551 0 0)
(-0.6061341 0 0)
(-0.59465157 0 0)
(-0.58388088 0 0)
(-0.57445773 0 0)
(-0.56715987 0 0)
(-0.56299459 0 0)
(-0.21971025 0 0)
(-0.18583203 0 0)
(-0.14959933 0 0)
(-0.11082328 0 0)
(-0.069153841 0 0)
(-0.024075569 0 0)
(-0.25154561 0 0)
(-0.28169961 0 0)
(-0.31039163 0 0)
(-0.33784797 0 0)
(-0.36441091 0 0)
(-0.39005345 0 0)
(-0.41490725 0 0)
(-0.43928076 0 0)
(-0.46310192 0 0)
(-0.48508356 0 0)
(-0.50504584 0 0)
(-0.52428737 0 0)
(-0.54269944 0 0)
(-0.56025315 0 0)
(-0.57695663 0 0)
(-0.59278018 0 0)
(-0.60762582 0 0)
(-0.62139249 0 0)
(-0.63394817 0 0)
(-0.64514334 0 0)
(-0.65482024 0 0)
(-0.66280715 0 0)
(-0.66892994 0 0)
(-0.67303536 0 0)
(-0.67500748 0 0)
(-0.67478701 0 0)
(-0.67237155 0 0)
(-0.66779971 0 0)
(-0.66121625 0 0)
(-0.65283869 0 0)
(-0.64293922 0 0)
(-0.63186434 0 0)
(-0.62001914 0 0)
(-0.60786931 0 0)
(-0.59593712 0 0)
(-0.58479469 0 0)
(-0.57506495 0 0)
(-0.5675296 0 0)
(-0.56319726 0 0)
(-0.25146685 0 0)
(-0.21974617 0 0)
(-0.18595451 0 0)
(-0.14979496 0 0)
(-0.11104373 0 0)
(-0.069334792 0 0)
(-0.024149279 0 0)
(-0.28144694 0 0)
(-0.30993633 0 0)
(-0.33716358 0 0)
(-0.36347955 0 0)
(-0.38885858 0 0)
(-0.41343759 0 0)
(-0.43752595 0 0)
(-0.46106122 0 0)
(-0.4840754 0 0)
(-0.50531623 0 0)
(-0.5246375 0 0)
(-0.54315498 0 0)
(-0.56084904 0 0)
(-0.57774511 0 0)
(-0.59382752 0 0)
(-0.60900581 0 0)
(-0.62319394 0 0)
(-0.63627668 0 0)
(-0.64810797 0 0)
(-0.65853333 0 0)
(-0.66739059 0 0)
(-0.67450357 0 0)
(-0.67969816 0 0)
(-0.68282776 0 0)
(-0.68379764 0 0)
(-0.68255977 0 0)
(-0.67913226 0 0)
(-0.67359282 0 0)
(-0.66608995 0 0)
(-0.65686889 0 0)
(-0.64620156 0 0)
(-0.63445424 0 0)
(-0.62202594 0 0)
(-0.60937796 0 0)
(-0.59703457 0 0)
(-0.58554434 0 0)
(-0.57553596 0 0)
(-0.56778369 0 0)
(-0.56330078 0 0)
(-0.28136191 0 0)
(-0.25150889 0 0)
(-0.21988882 0 0)
(-0.18619292 0 0)
(-0.15008441 0 0)
(-0.11133614 0 0)
(-0.069559786 0 0)
(-0.024236419 0 0)
(-0.30966266 0 0)
(-0.33667368 0 0)
(-0.36275043 0 0)
(-0.38787322 0 0)
(-0.41218366 0 0)
(-0.43598916 0 0)
(-0.45923057 0 0)
(-0.48195224 0 0)
(-0.50428808 0 0)
(-0.52495874 0 0)
(-0.54356461 0 0)
(-0.56137364 0 0)
(-0.57842849 0 0)
(-0.59472902 0 0)
(-0.6101941 0 0)
(-0.62475206 0 0)
(-0.63829671 0 0)
(-0.65069388 0 0)
(-0.66180302 0 0)
(-0.67146134 0 0)
(-0.67949372 0 0)
(-0.68572515 0 0)
(-0.68998126 0 0)
(-0.69213155 0 0)
(-0.69209656 0 0)
(-0.68985342 0 0)
(-0.6854435 0 0)
(-0.67895173 0 0)
(-0.67056537 0 0)
(-0.660534 0 0)
(-0.64914384 0 0)
(-0.63676197 0 0)
(-0.62378889 0 0)
(-0.61068521 0 0)
(-0.59795613 0 0)
(-0.5861491 0 0)
(-0.57588421 0 0)
(-0.56793597 0 0)
(-0.56331876 0 0)
(-0.30957376 0 0)
(-0.28141024 0 0)
(-0.25167057 0 0)
(-0.22016626 0 0)
(-0.18654586 0 0)
(-0.15046566 0 0)
(-0.11169577 0 0)
(-0.069825693 0 0)
(-0.024337081 0 0)
(-0.33638089 0 0)
(-0.36222886 0 0)
(-0.38710385 0 0)
(-0.41115067 0 0)
(-0.43467686 0 0)
(-0.45762914 0 0)
(-0.48005208 0 0)
(-0.50208717 0 0)
(-0.52390812 0 0)
(-0.54393837 0 0)
(-0.56184592 0 0)
(-0.5790289 0 0)
(-0.5955131 0 0)
(-0.61122127 0 0)
(-0.62609569 0 0)
(-0.64004744 0 0)
(-0.65294935 0 0)
(-0.66466793 0 0)
(-0.67505387 0 0)
(-0.68393741 0 0)
(-0.69113707 0 0)
(-0.69647116 0 0)
(-0.69977999 0 0)
(-0.700947 0 0)
(-0.69991522 0 0)
(-0.69667538 0 0)
(-0.69129445 0 0)
(-0.68389208 0 0)
(-0.67465576 0 0)
(-0.66385909 0 0)
(-0.6517834 0 0)
(-0.63881208 0 0)
(-0.62533483 0 0)
(-0.61180362 0 0)
(-0.59872292 0 0)
(-0.58662198 0 0)
(-0.5761246 0 0)
(-0.56799876 0 0)
(-0.56326099 0 0)
(-0.33629033 0 0)
(-0.30962862 0 0)
(-0.2815896 0 0)
(-0.25198696 0 0)
(-0.22057901 0 0)
(-0.18701118 0 0)
(-0.15093697 0 0)
(-0.11212426 0 0)
(-0.070133485 0 0)
(-0.024450166 0 0)
(-0.36191969 0 0)
(-0.38655548 0 0)
(-0.4103452 0 0)
(-0.43359711 0 0)
(-0.45626169 0 0)
(-0.47838812 0 0)
(-0.5001197 0 0)
(-0.52162853 0 0)
(-0.54287038 0 0)
(-0.56226953 0 0)
(-0.57956783 0 0)
(-0.59620164 0 0)
(-0.61211322 0 0)
(-0.62725998 0 0)
(-0.64156289 0 0)
(-0.65490543 0 0)
(-0.66717083 0 0)
(-0.67821617 0 0)
(-0.68787379 0 0)
(-0.6959695 0 0)
(-0.70232063 0 0)
(-0.70674666 0 0)
(-0.70909804 0 0)
(-0.70928402 0 0)
(-0.70725944 0 0)
(-0.70304373 0 0)
(-0.69672581 0 0)
(-0.68843362 0 0)
(-0.6783878 0 0)
(-0.66686169 0 0)
(-0.65414495 0 0)
(-0.64062127 0 0)
(-0.62667576 0 0)
(-0.61275493 0 0)
(-0.59934671 0 0)
(-0.5869783 0 0)
(-0.57626938 0 0)
(-0.56798427 0 0)
(-0.56313992 0 0)
(-0.3618228 0 0)
(-0.33635433 0 0)
(-0.30982971 0 0)
(-0.28193905 0 0)
(-0.25245368 0 0)
(-0.22112237 0 0)
(-0.18758682 0 0)
(-0.15149526 0 0)
(-0.11261558 0 0)
(-0.070479542 0 0)
(-0.024575824 0 0)
(-0.38623107 0 0)
(-0.40977305 0 0)
(-0.43275473 0 0)
(-0.45513778 0 0)
(-0.47696992 0 0)
(-0.49839678 0 0)
(-0.51958815 0 0)
(-0.54051429 0 0)
(-0.56119192 0 0)
(-0.58004791 0 0)
(-0.59681284 0 0)
(-0.61289474 0 0)
(-0.6282709 0 0)
(-0.64287712 0 0)
(-0.65660637 0 0)
(-0.66935112 0 0)
(-0.68098403 0 0)
(-0.69134812 0 0)
(-0.70026728 0 0)
(-0.70756201 0 0)
(-0.7130512 0 0)
(-0.7165542 0 0)
(-0.71794234 0 0)
(-0.71714438 0 0)
(-0.71414186 0 0)
(-0.70896587 0 0)
(-0.7017309 0 0)
(-0.69259522 0 0)
(-0.68177604 0 0)
(-0.66956617 0 0)
(-0.65624578 0 0)
(-0.64221221 0 0)
(-0.62783547 0 0)
(-0.6135511 0 0)
(-0.59984487 0 0)
(-0.58723125 0 0)
(-0.57633032 0 0)
(-0.56790194 0 0)
(-0.5629633 0 0)
(-0.3861347 0 0)
(-0.36189615 0 0)
(-0.33657864 0 0)
(-0.31021337 0 0)
(-0.2824538 0 0)
(-0.25307215 0 0)
(-0.22179663 0 0)
(-0.18826861 0 0)
(-0.15213854 0 0)
(-0.11317159 0 0)
(-0.070863539 0 0)
(-0.024681417 0 0)
(-0.40943597 0 0)
(-0.43215564 0 0)
(-0.45426188 0 0)
(-0.47580336 0 0)
(-0.49693 0 0)
(-0.51780557 0 0)
(-0.53840432 0 0)
(-0.55876062 0 0)
(-0.57896198 0 0)
(-0.59736099 0 0)
(-0.61359058 0 0)
(-0.62915669 0 0)
(-0.64402063 0 0)
(-0.65808134 0 0)
(-0.67124805 0 0)
(-0.68340505 0 0)
(-0.69440043 0 0)
(-0.70406818 0 0)
(-0.71223429 0 0)
(-0.71870991 0 0)
(-0.7233078 0 0)
(-0.72587878 0 0)
(-0.72630804 0 0)
(-0.7245391 0 0)
(-0.72056885 0 0)
(-0.7144612 0 0)
(-0.70634846 0 0)
(-0.69639562 0 0)
(-0.68484602 0 0)
(-0.67198942 0 0)
(-0.65810822 0 0)
(-0.64360011 0 0)
(-0.62882518 0 0)
(-0.6142098 0 0)
(-0.60022909 0 0)
(-0.58739249 0 0)
(-0.57631906 0 0)
(-0.56776361 0 0)
(-0.5627236 0 0)
(-0.40934033 0 0)
(-0.3862148 0 0)
(-0.36213429 0 0)
(-0.33699865 0 0)
(-0.31078263 0 0)
(-0.28313541 0 0)
(-0.25383475 0 0)
(-0.22259431 0 0)
(-0.18905347 0 0)
(-0.15286068 0 0)
(-0.11378341 0 0)
(-0.07110796 0 0)
(-0.02468463 0 0)
(-0.43180354 0 0)
(-0.45363966 0 0)
(-0.47489524 0 0)
(-0.49572329 0 0)
(-0.51628595 0 0)
(-0.53656362 0 0)
(-0.55658911 0 0)
(-0.57645934 0 0)
(-0.59626182 0 0)
(-0.61420713 0 0)
(-0.62994388 0 0)
(-0.64502301 0 0)
(-0.65936761 0 0)
(-0.67289882 0 0)
(-0.6855143 0 0)
(-0.69707618 0 0)
(-0.70742145 0 0)
(-0.71637906 0 0)
(-0.72376953 0 0)
(-0.72940528 0 0)
(-0.73311239 0 0)
(-0.7347433 0 0)
(-0.73420788 0 0)
(-0.73147047 0 0)
(-0.7265565 0 0)
(-0.71953941 0 0)
(-0.71057626 0 0)
(-0.69985543 0 0)
(-0.68761315 0 0)
(-0.67415482 0 0)
(-0.65974929 0 0)
(-0.64480538 0 0)
(-0.6296636 0 0)
(-0.61474337 0 0)
(-0.60051336 0 0)
(-0.58747529 0 0)
(-0.57624494 0 0)
(-0.56751125 0 0)
(-0.56240601 0 0)
(-0.43170061 0 0)
(-0.40942854 0 0)
(-0.38647489 0 0)
(-0.36258947 0 0)
(-0.3376187 0 0)
(-0.31152862 0 0)
(-0.283976 0 0)
(-0.25474302 0 0)
(-0.22351569 0 0)
(-0.18993774 0 0)
(-0.15365951 0 0)
(-0.11415122 0 0)
(-0.071128914 0 0)
(-0.024687447 0 0)
(-0.45327521 0 0)
(-0.47424982 0 0)
(-0.49478453 0 0)
(-0.51503803 0 0)
(-0.53499379 0 0)
(-0.55469128 0 0)
(-0.57422742 0 0)
(-0.59369036 0 0)
(-0.61310647 0 0)
(-0.6306387 0 0)
(-0.64590839 0 0)
(-0.6604942 0 0)
(-0.67433801 0 0)
(-0.68735572 0 0)
(-0.69941571 0 0)
(-0.71036562 0 0)
(-0.72004539 0 0)
(-0.72827634 0 0)
(-0.73487031 0 0)
(-0.73964407 0 0)
(-0.74243593 0 0)
(-0.74312852 0 0)
(-0.7416384 0 0)
(-0.73795291 0 0)
(-0.7321131 0 0)
(-0.72422266 0 0)
(-0.71445095 0 0)
(-0.70299235 0 0)
(-0.69010145 0 0)
(-0.67607849 0 0)
(-0.66118891 0 0)
(-0.6458421 0 0)
(-0.63036362 0 0)
(-0.61516466 0 0)
(-0.60070957 0 0)
(-0.58748793 0 0)
(-0.57598059 0 0)
(-0.56715473 0 0)
(-0.56202076 0 0)
(-0.45316952 0 0)
(-0.43179291 0 0)
(-0.40970685 0 0)
(-0.38695944 0 0)
(-0.36325207 0 0)
(-0.33842815 0 0)
(-0.31245391 0 0)
(-0.28497459 0 0)
(-0.25578687 0 0)
(-0.22455271 0 0)
(-0.19091283 0 0)
(-0.15411437 0 0)
(-0.11418268 0 0)
(-0.071150628 0 0)
(-0.024691097 0 0)
(-0.47387129 0 0)
(-0.49411782 0 0)
(-0.51406543 0 0)
(-0.53370659 0 0)
(-0.55307673 0 0)
(-0.57227532 0 0)
(-0.59139104 0 0)
(-0.61045899 0 0)
(-0.62953938 0 0)
(-0.64669167 0 0)
(-0.66148745 0 0)
(-0.67559812 0 0)
(-0.68896176 0 0)
(-0.70146057 0 0)
(-0.71294941 0 0)
(-0.72327422 0 0)
(-0.73226768 0 0)
(-0.73974748 0 0)
(-0.74552482 0 0)
(-0.74942538 0 0)
(-0.75130834 0 0)
(-0.75105633 0 0)
(-0.74861411 0 0)
(-0.74399107 0 0)
(-0.73725754 0 0)
(-0.72852179 0 0)
(-0.71797463 0 0)
(-0.70582839 0 0)
(-0.69232693 0 0)
(-0.6777823 0 0)
(-0.66244368 0 0)
(-0.64672783 0 0)
(-0.6309386 0 0)
(-0.61548833 0 0)
(-0.60082818 0 0)
(-0.58720835 0 0)
(-0.5755474 0 0)
(-0.56673371 0 0)
(-0.56156231 0 0)
(-0.47376164 0 0)
(-0.45326623 0 0)
(-0.4320783 0 0)
(-0.41021955 0 0)
(-0.38767179 0 0)
(-0.36412669 0 0)
(-0.33943002 0 0)
(-0.31354659 0 0)
(-0.28612387 0 0)
(-0.25696562 0 0)
(-0.22569934 0 0)
(-0.19146239 0 0)
(-0.15414018 0 0)
(-0.11421702 0 0)
(-0.071175096 0 0)
(-0.024694566 0 0)
(-0.49372655 0 0)
(-0.51337461 0 0)
(-0.53270313 0 0)
(-0.55174994 0 0)
(-0.57061698 0 0)
(-0.58938812 0 0)
(-0.60809899 0 0)
(-0.62681984 0 0)
(-0.64559403 0 0)
(-0.66236562 0 0)
(-0.67671165 0 0)
(-0.6903698 0 0)
(-0.70324855 0 0)
(-0.71520987 0 0)
(-0.72611323 0 0)
(-0.73579818 0 0)
(-0.74408582 0 0)
(-0.75079254 0 0)
(-0.75573759 0 0)
(-0.758751 0 0)
(-0.75970288 0 0)
(-0.75851332 0 0)
(-0.75513476 0 0)
(-0.74960279 0 0)
(-0.74199963 0 0)
(-0.73245984 0 0)
(-0.72118124 0 0)
(-0.70838046 0 0)
(-0.69431188 0 0)
(-0.6792817 0 0)
(-0.66353113 0 0)
(-0.6474761 0 0)
(-0.63140453 0 0)
(-0.61572294 0 0)
(-0.60053088 0 0)
(-0.5866717 0 0)
(-0.5750644 0 0)
(-0.56624952 0 0)
(-0.56103374 0 0)
(-0.49361381 0 0)
(-0.47385892 0 0)
(-0.45356196 0 0)
(-0.43261455 0 0)
(-0.41097216 0 0)
(-0.38860153 0 0)
(-0.36519995 0 0)
(-0.34061181 0 0)
(-0.31480729 0 0)
(-0.28741891 0 0)
(-0.25826605 0 0)
(-0.22634118 0 0)
(-0.19149053 0 0)
(-0.15416712 0 0)
(-0.11425109 0 0)
(-0.071198589 0 0)
(-0.024698254 0 0)
(-0.51296789 0 0)
(-0.53199148 0 0)
(-0.55071813 0 0)
(-0.56925275 0 0)
(-0.58768098 0 0)
(-0.60604013 0 0)
(-0.62439964 0 0)
(-0.64280983 0 0)
(-0.66127702 0 0)
(-0.6776905 0 0)
(-0.69161346 0 0)
(-0.7048176 0 0)
(-0.71719147 0 0)
(-0.72860327 0 0)
(-0.73890424 0 0)
(-0.74792621 0 0)
(-0.75548805 0 0)
(-0.76140565 0 0)
(-0.76549775 0 0)
(-0.76761325 0 0)
(-0.76764742 0 0)
(-0.76551926 0 0)
(-0.76121694 0 0)
(-0.75479495 0 0)
(-0.74636119 0 0)
(-0.73604966 0 0)
(-0.72407671 0 0)
(-0.71067065 0 0)
(-0.69607266 0 0)
(-0.68059657 0 0)
(-0.66446659 0 0)
(-0.64810025 0 0)
(-0.63177017 0 0)
(-0.61540482 0 0)
(-0.59986982 0 0)
(-0.5861022 0 0)
(-0.57452577 0 0)
(-0.56569646 0 0)
(-0.56042867 0 0)
(-0.51284825 0 0)
(-0.49371301 0 0)
(-0.4741643 0 0)
(-0.45411906 0 0)
(-0.43339562 0 0)
(-0.41195186 0 0)
(-0.38975025 0 0)
(-0.3664748 0 0)
(-0.34197512 0 0)
(-0.31622636 0 0)
(-0.28885081 0 0)
(-0.25899022 0 0)
(-0.22638303 0 0)
(-0.19152363 0 0)
(-0.15419888 0 0)
(-0.11428509 0 0)
(-0.071221729 0 0)
(-0.024701294 0 0)
(-0.53157287 0 0)
(-0.54998385 0 0)
(-0.56819273 0 0)
(-0.58628184 0 0)
(-0.60429068 0 0)
(-0.62228739 0 0)