/*--------------------------------*- C++ -*----------------------------------*\
| =========                 |                                                 |
| \\      /  F ield         | OpenFOAM: The Open Source CFD Toolbox           |
|  \\    /   O peration     | Version:  v2012                                 |
|   \\  /    A nd           | Website:  www.openfoam.com                      |
|    \\/     M anipulation  |                                                 |
\*---------------------------------------------------------------------------*/
FoamFile
{
    version     2.0;
    format      ascii;
    class       volScalarField;
    location    "119.831078516937012";
    object      p;
}
// * * * * * * * * * * * * * * * * * * * * * * * * * * * * * * * * * * * * * //

dimensions      [0 2 -2 0 0 0 0];


internalField   nonuniform List<scalar> 
9200
(
0.0018758291
0.0019397226
0.0048537861
0.0018442346
0.0053128366
0.0075192999
0.0020940123
0.0059001344
0.008084996
0.0095587686
0.0020459882
0.0068350885
0.0088727387
0.010274674
0.011155636
0.0020443903
0.0078757868
0.01001238
0.011340872
0.011992742
0.01217807
0.0020521435
0.0090085275
0.011369972
0.012830213
0.013282926
0.013124602
0.012648537
0.0020488118
0.010224278
0.012829714
0.014658698
0.015069915
0.014622484
0.013680054
0.012559093
0.0020545514
0.011426998
0.014393319
0.016648097
0.017302677
0.01669702
0.015347199
0.013646546
0.011939005
0.0020624143
0.012602899
0.015928454
0.018805211
0.019772496
0.019327006
0.017662038
0.015439296
0.013048531
0.010828104
0.0020866153
0.013693509
0.017409081
0.020964661
0.022498243
0.022290475
0.020634144
0.017933421
0.014914316
0.011923638
0.0092815486
0.0021376188
0.014683402
0.018746565
0.023084003
0.025301939
0.025626708
0.024039446
0.021171064
0.017510712
0.013806369
0.010327359
0.0073629134
0.0022496255
0.015559231
0.019881866
0.025040362
0.028138288
0.029162664
0.027944095
0.024931969
0.020913643
0.016420142
0.012170223
0.0083255864
0.0051411442
0.0024595822
0.016316843
0.020768636
0.026748366
0.030868009
0.032866631
0.032192585
0.029309059
0.024907112
0.019875093
0.01471508
0.010074824
0.0059909748
0.0026855302
0.0028086439
0.016969408
0.021332997
0.02813541
0.033412392
0.036611915
0.036782533
0.034166933
0.029607704
0.023957899
0.01810586
0.012469286
0.0075979889
0.0033980767
6.4975594e-05
0.0033436827
0.017543006
0.021557633
0.029032195
0.03565468
0.040324794
0.041628997
0.039532583
0.034899222
0.028802145
0.022128695
0.015686244
0.0097697137
0.0048214842
0.00062013921
-0.0026527341
0.0040913217
0.018080873
0.021381723
0.02943056
0.037412085
0.043808965
0.04669981
0.045348297
0.040833908
0.03430543
0.026925895
0.019507853
0.012716488
0.0067094074
0.0018261835
-0.0022732218
-0.0054104977
0.0050825294
0.018641958
0.020762964
0.029113203
0.038859759
0.04700574
0.051933074
0.051599451
0.047377924
0.040535665
0.032401336
0.024077727
0.016214532
0.0093068545
0.0033809262
-0.001311676
-0.0052186232
-0.0081643242
0.006328044
0.019312455
0.019685257
0.027976241
0.039695376
0.050390491
0.057484425
0.058265875
0.054549744
0.047475973
0.038626402
0.029298018
0.020402943
0.012383249
0.0055674438
-0.00012854365
-0.004523161
-0.0081607312
-0.010851667
0.0078055803
0.020180575
0.018094798
0.026041659
0.039521511
0.053309529
0.062228978
0.065299909
0.062356408
0.055166296
0.045588281
0.035230238
0.025175904
0.016071163
0.0081493844
0.0016014561
-0.0037403955
-0.0077460576
-0.01104978
-0.013408409
0.0094272617
0.021331978
0.015983116
0.023081487
0.038430261
0.055175223
0.066919698
0.072610271
0.070784491
0.063626795
0.05332936
0.041851627
0.030575007
0.020254136
0.011254373
0.0036387025
-0.0024994273
-0.0073855099
-0.010925355
-0.013839866
-0.015878215
0.011000295
0.02289292
0.013335534
0.018965652
0.036310789
0.056331565
0.072172647
0.08025084
0.079856624
0.072885404
0.061872508
0.049188514
0.036553894
0.024947526
0.014756682
0.006110577
-0.0010395776
-0.0066565043
-0.011004604
-0.014016116
-0.016491688
-0.018297311
0.012541616
0.024951896
0.010124696
0.013549154
0.032994024
0.056707123
0.077005795
0.08826014
0.089584768
0.082966715
0.071251171
0.057246442
0.043105083
0.03007359
0.018646036
0.008887534
0.00077306817
-0.0057948141
-0.01080395
-0.014548536
-0.016981275
-0.018982766
-0.020389673
0.014627253
0.02728755
0.0063782344
0.0066556996
0.028351657
0.056071992
0.081432024
0.096543911
0.099946521
0.093887449
0.08149275
0.066040524
0.050196072
0.03557869
0.02281351
0.011941493
0.0028137244
-0.0046530014
-0.010554279
-0.014887327
-0.017976586
-0.019784221
-0.021319834
-0.022125028
0.017581019
0.029057473
0.0021293449
-0.0018563017
0.022239098
0.054252269
0.085359399
0.10500791
0.11091924
0.10564241
0.092610951
0.07557751
0.057798212
0.041374812
0.027156471
0.015141197
0.005048475
-0.0033419082
-0.010088646
-0.01525988
-0.018862333
-0.021254892
-0.022378944
-0.02347342
-0.023793788
0.020774714
0.029563178
-0.0026548611
-0.012157231
0.014438554
0.051057058
0.088655334
0.11359747
0.12242434
0.11819385
0.10459717
0.085854913
0.065872349
0.047365593
0.031523599
0.01834389
0.0073398745
-0.00188713
-0.0094961339
-0.015475407
-0.019864675
-0.022692243
-0.024368871
-0.024715014
-0.025374787
-0.025372164
0.023810354
0.029501053
-0.00782844
-0.024376968
0.0046893204
0.04628628
0.091138311
0.12223569
0.13437037
0.13146443
0.11741313
0.096851325
0.074371338
0.053436035
0.035736441
0.021344602
0.0095261073
-0.00041345222
-0.008781233
-0.015595448
-0.020768944
-0.024329879
-0.026343237
-0.027323802
-0.026989528
-0.02707529
-0.026706816
0.02684864
0.029833364
-0.013414513
-0.038464906
-0.0071969882
0.039788109
0.09264152
0.13082781
0.14663133
0.1453365
0.13098082
0.10852085
0.083233661
0.059457007
0.039579468
0.023888783
0.011374472
0.00092398136
-0.0080395206
-0.015594274
-0.021604734
-0.025932978
-0.028622378
-0.029784363
-0.029920513
-0.029005429
-0.028548674
-0.027770329
0.029771209
0.030572872
-0.019566922
-0.054327948
-0.021289549
0.031413455
0.092809689
0.13928077
0.15904373
0.15965037
0.14517689
0.12078412
0.092381261
0.065283326
0.042803163
0.025659797
0.012586034
0.0019018467
-0.0073957406
-0.015525789
-0.022311774
-0.027497972
-0.030935686
-0.032711374
-0.032984894
-0.03231014
-0.030773508
-0.029792057
-0.028619622
0.032522923
0.031550607
-0.026649897
-0.071946108
-0.037640743
0.021178562
0.091678374
0.14749986
0.17141979
0.17420336
0.15983203
0.13352469
0.10171234
0.070757144
0.045124141
0.026273992
0.012779669
0.002223032
-0.0070315127
-0.015468797
-0.022895017
-0.028928588
-0.033251213
-0.035748988
-0.03657004
-0.035939907
-0.034464502
-0.032295916
-0.030809499
-0.029262217
0.034792867
0.032535602
-0.034023652
-0.091005006
-0.056186007
0.0092635765
0.089215864
0.15522752
0.18351851
0.18875823
0.17473093
0.1465843
0.11110165
0.07570354
0.046231887
0.025277692
0.011470429
0.0015010412
-0.0072043808
-0.015560103
-0.023374732
-0.030180985
-0.035436433
-0.038837692
-0.040344814
-0.040178399
-0.038638088
-0.036371697
-0.033576637
-0.031605011
-0.02970206
0.036430619
0.033550794
-0.041846119
-0.1106825
-0.076885359
-0.0043882884
0.085443591
0.16209182
0.19507864
0.20304408
0.18962079
0.15976597
0.12039273
0.079935825
0.045786918
0.022144846
0.0080732398
-0.00078642454
-0.0081883451
-0.016040892
-0.023804536
-0.031220008
-0.037404557
-0.041817977
-0.04422968
-0.0446972
-0.043519349
-0.041068922
-0.038025825
-0.034620332
-0.032185512
-0.029948749
0.03716086
0.03439736
-0.049944076
-0.13090072
-0.10020779
-0.020229983
0.08021776
0.16789947
0.20580739
0.21677942
0.20421567
0.17283725
0.12940757
0.083250305
0.043434181
0.016274065
0.00187492
-0.0052546807
-0.010571309
-0.016626424
-0.024274281
-0.032026628
-0.039071787
-0.04456447
-0.048046754
-0.04939723
-0.048782345
-0.046578485
-0.043225493
-0.039425707
-0.035433108
-0.032559655
-0.030012159
0.036992592
0.034036955
-0.058570642
-0.15148541
-0.12477521
-0.03784469
0.073252477
0.17234432
0.21550378
0.22966762
0.21822369
0.18553607
0.13793855
0.085438274
0.038807265
0.0069964124
-0.0079781331
-0.012670418
-0.014866923
-0.018541876
-0.024819894
-0.032603657
-0.040357947
-0.046954726
-0.051639247
-0.054089044
-0.054310129
-0.05257906
-0.049344433
-0.045104309
-0.040573778
-0.036022798
-0.032737391
-0.029903181
0.035757837
0.032127743
-0.067029213
-0.17433028
-0.15059499
-0.056084543
0.065461059
0.17541794
0.22391587
0.24146779
0.23133607
0.19759383
0.14577003
0.086271467
0.031540794
-0.006421368
-0.022512951
-0.023974109
-0.021784479
-0.021715422
-0.025833101
-0.032969241
-0.041201306
-0.048861164
-0.054855757
-0.058591422
-0.059907021
-0.058939288
-0.056069357
-0.051809227
-0.046705151
-0.041475261
-0.03639871
-0.032729738
-0.029633394
0.033364686
0.028811169
-0.075699105
-0.19701191
-0.17996769
-0.076639694
0.056851399
0.17694477
0.23107652
0.25187453
0.24330151
0.20871643
0.15267524
0.085541466
0.021265707
-0.024745818
-0.042938479
-0.040446791
-0.03185725
-0.026729436
-0.027498793
-0.033251637
-0.041557865
-0.05017522
-0.057534248
-0.062732568
-0.065373644
-0.065461737
-0.063258179
-0.059238834
-0.05396841
-0.048030798
-0.042137679
-0.036571403
-0.032548452
-0.029214776
0.02997596
0.024283218
-0.08507718
-0.21917217
-0.21000865
-0.10104346
0.043994405
0.17776374
0.2364311
0.26090122
0.25379084
0.21867558
0.15842395
0.083007548
0.0076606809
-0.048803961
-0.070584988
-0.063577834
-0.04686493
-0.034293061
-0.030165686
-0.033559178
-0.041427488
-0.050798699
-0.059533716
-0.066326661
-0.070525001
-0.071934275
-0.070715754
-0.067243842
-0.062077016
-0.055820932
-0.049086702
-0.042570414
-0.03655242
-0.0322058
-0.028659494
0.025913725
0.018980356
-0.094926207
-0.24050844
-0.24016009
-0.12604801
0.027636955
0.17313144
0.24109545
0.26802339
0.26278816
0.22713914
0.16283395
0.078483378
-0.0096446238
-0.079414806
-0.1069493
-0.095045492
-0.068078741
-0.045445231
-0.034336425
-0.034086073
-0.040830441
-0.050664753
-0.060721597
-0.069212228
-0.075159265
-0.07816446
-0.078221859
-0.07563511
-0.070877613
-0.064577362
-0.057368977
-0.049880638
-0.042784336
-0.036354034
-0.031714331
-0.027979716
0.021046152
0.012585778
-0.10520417
-0.25986857
-0.26883088
-0.15098855
0.010077064
0.16350628
0.24108413
0.27438819
0.26968705
0.23413484
0.16562572
0.071727534
-0.030890773
-0.11748179
-0.15378627
-0.13674009
-0.097055659
-0.061344756
-0.040686466
-0.035134184
-0.039852789
-0.049738155
-0.060998372
-0.071237075
-0.079101676
-0.083939293
-0.085580769
-0.084188216
-0.080190513
-0.074145417
-0.066737251
-0.058617652
-0.050422351
-0.042791469
-0.035989027
-0.031086685
-0.027187421
0.015111697
0.0042738584
-0.11433045
-0.27592077
-0.29476343
-0.17477912
-0.0087086064
0.15050835
0.23847457
0.27672142
0.27584306
0.23887308
0.16688313
0.062642041
-0.056402089
-0.16352963
-0.21306549
-0.19120679
-0.13585317
-0.083342992
-0.050081717
-0.037145799
-0.038667048
-0.048044512
-0.060303725
-0.072288407
-0.082191825
-0.089076704
-0.09257188
-0.092707171
-0.089790245
-0.084358019
-0.07703787
-0.068557703
-0.059574673
-0.050723242
-0.042604755
-0.035470464
-0.030335371
-0.026294281
-0.0061037168
0.008027867
-0.12037094
-0.28739368
-0.31657684
-0.19633598
-0.028129987
0.13540486
0.23254438
0.27863356
0.27798319
0.24304865
0.16584962
0.051327127
-0.085527808
-0.21737137
-0.2852159
-0.26078816
-0.18762842
-0.11344594
-0.063549083
-0.040729156
-0.037575431
-0.045696569
-0.05864329
-0.072300162
-0.084310989
-0.093411092
-0.099011235
-0.10096661
-0.099482828
-0.094991754
-0.088119242
-0.079550137
-0.070043123
-0.060250037
-0.050796103
-0.042237745
-0.034811424
-0.029472604
-0.025311577
-0.12298021
-0.018413083
-8.4064898e-05
-0.29311142
-0.33293919
-0.21452193
-0.047514465
0.11766941
0.22380575
0.27703756
0.28234784
0.24355284
0.16441161
0.037581157
-0.1183552
-0.27702952
-0.36904906
-0.34467868
-0.25384988
-0.15497553
-0.082846725
-0.046674289
-0.037033414
-0.042928311
-0.056117063
-0.071278518
-0.085394354
-0.096821593
-0.10472235
-0.10877982
-0.10904354
-0.10585922
-0.099762952
-0.09146148
-0.081681658
-0.071200971
-0.060655788
-0.050654794
-0.041704244
-0.034024735
-0.028510257
-0.024250226
-0.29213469
-0.12149121
-0.032202664
-0.0082570005
-0.34267019
-0.22871756
-0.066481467
0.097377963
0.21157151
0.27208992
0.28308631
0.24906917
0.16105568
0.022746339
-0.15390449
-0.34391402
-0.46403401
-0.44080988
-0.33084356
-0.20792562
-0.11055308
-0.056399584
-0.037720219
-0.040133382
-0.052944242
-0.069330667
-0.085453
-0.099244275
-0.10958833
-0.11596673
-0.11827874
-0.11673202
-0.11178944
-0.10408106
-0.094377293
-0.083435873
-0.07204156
-0.060805635
-0.050313744
-0.041017907
-0.033122994
-0.027459974
-0.023120675
-0.34486339
-0.28367785
-0.11550031
-0.046104797
-0.016537447
-0.23869156
-0.084227183
0.074467189
0.19547318
0.26353212
0.27939519
0.25086336
0.16604342
0.010367096
-0.19320601
-0.41557379
-0.57540719
-0.55486982
-0.41921545
-0.26766265
-0.14615789
-0.07162542
-0.040744207
-0.037926795
-0.049516373
-0.066683541
-0.084600181
-0.10069205
-0.1135419
-0.12240465
-0.12700601
-0.12741568
-0.12397227
-0.11723994
-0.10792974
-0.096864293
-0.084820029
-0.072577635
-0.060714297
-0.049787415
-0.040192356
-0.032118866
-0.026333083
-0.021932589
-0.24404411
-0.33881206
-0.26776216
-0.10613639
-0.058530232
-0.024523579
-0.099628906
0.049085606
0.17520698
0.25034943
0.27178519
0.24699679
0.16755525
0.0088761006
-0.22225153
-0.49731466
-0.70039816
-0.6936492
-0.52953646
-0.3383477
-0.18754718
-0.092734915
-0.047404303
-0.03722656
-0.046423582
-0.063746045
-0.083062038
-0.10127389
-0.11659261
-0.12802198
-0.13509342
-0.13772222
-0.13611405
-0.13071557
-0.1221837
-0.1112988
-0.098924992
-0.085844745
-0.072823547
-0.060396815
-0.049090512
-0.039241763
-0.031025082
-0.025139921
-0.020694569
-0.11230729
-0.24467882
-0.32465893
-0.24474917
-0.093928577
-0.068105199
-0.031421977
0.021567359
0.15045878
0.23170132
0.259118
0.23817252
0.16271902
0.0046121
-0.24166381
-0.5607838
-0.84952238
-0.85617628
-0.66556174
-0.42984661
-0.23832646
-0.11996124
-0.059044359
-0.039153267
-0.044522552
-0.06109267
-0.08124414
-0.10119974
-0.11883774
-0.13282064
-0.14246084
-0.14750674
-0.14801803
-0.14430916
-0.13692247
-0.12660054
-0.11418416
-0.10056635
-0.086522978
-0.072794362
-0.05986886
-0.048238967
-0.038180926
-0.029853066
-0.023889019
-0.019414733
-0.0076327368
-0.12244549
-0.24109473
-0.30288783
-0.21584409
-0.079270739
-0.074562097
-0.036799612
0.12100486
0.2068445
0.23997409
0.2237439
0.15182034
-0.0056786288
-0.26314755
-0.62347639
-0.988963
-1.0560232
-0.83367902
-0.54772656
-0.30587566
-0.15540016
-0.077472264
-0.045298914
-0.04487593
-0.059579456
-0.079666961
-0.10084219
-0.12046659
-0.13688468
-0.14909959
-0.15667532
-0.15952545
-0.15781442
-0.15194876
-0.14256244
-0.13047805
-0.11658728
-0.1017985
-0.086868914
-0.072506311
-0.059148256
-0.047250094
-0.037022803
-0.028611082
-0.022588055
-0.018101889
0.086678772
-0.038120905
-0.13015275
-0.23394201
-0.27473259
-0.18271306
-0.062881051
-0.077866434
-0.040500784
0.17485463
0.21316517
0.20195728
0.13444111
-0.022862915
-0.28961797
-0.68674023
-1.1478031
-1.2685133
-1.0401496
-0.70112596
-0.39756685
-0.20376711
-0.10467745
-0.05804769
-0.048923648
-0.060274262
-0.079140776
-0.10063894
-0.12179948
-0.14038445
-0.15507948
-0.16520312
-0.17052124
-0.17105581
-0.16704783
-0.15899133
-0.14761291
-0.1338102
-0.11851367
-0.10263341
-0.086898621
-0.071978997
-0.058255207
-0.046138751
-0.03577515
-0.027305952
-0.021247633
-0.016765514
0.13484364
0.04708705
-0.068773546
-0.13574887
-0.22421013
-0.24190124
-0.14718896
-0.045317769
-0.078164425
-0.04256658
0.17723622
0.17123756
0.10888176
-0.0473739
-0.32545558
-0.75241755
-1.3086211
-1.535387
-1.2617948
-0.88404787
-0.51794253
-0.27070293
-0.14409792
-0.079940504
-0.058918465
-0.064465894
-0.080622984
-0.10130771
-0.12318974
-0.14359308
-0.16055452
-0.17314167
-0.18095546
-0.1838905
-0.18202525
-0.1756669
-0.16540395
-0.15205872
-0.13659583
-0.1199713
-0.10308582
-0.086633093
-0.071235719
-0.057206736
-0.044911952
-0.034443548
-0.025950969
-0.019882917
-0.01541206
0.13062674
0.085526964
0.0025558858
-0.098831416
-0.13929826
-0.21077723
-0.2066004
-0.11150012
-0.02729519
-0.075811426
-0.043008342
0.12999161
0.073333986
-0.080644038
-0.37109567
-0.83180274
-1.4848832
-1.8320604
-1.5611358
-1.079346
-0.65738095
-0.35466046
-0.19769133
-0.11394891
-0.077580547
-0.074097934
-0.085277662
-0.10349281
-0.1252413
-0.14681453
-0.16576743
-0.18062795
-0.19085174
-0.19623244
-0.19670558
-0.19237683
-0.18362988
-0.17116131
-0.15588983
-0.13883661
-0.1209719
-0.10317734
-0.086098718
-0.070295794
-0.056008735
-0.04357358
-0.033045856
-0.024570136
-0.018503805
-0.014040798
0.07648985
0.071233284
0.026091304
-0.047053916
-0.12926971
-0.14290458
-0.19310286
-0.17092125
-0.077133066
-0.0097721334
-0.071576624
-0.04200197
0.026191507
-0.12452564
-0.42694806
-0.9256377
-1.6806532
-2.1892985
-1.9125932
-1.3589973
-0.8155159
-0.45104098
-0.2558135
-0.15956553
-0.1084
-0.091349784
-0.094747873
-0.10819275
-0.12839466
-0.15054868
-0.17100518
-0.18788914
-0.20032201
-0.20806241
-0.21095642
-0.20891133
-0.20206436
-0.19090187
-0.17624274
-0.15909907
-0.14053906
-0.12153644
-0.10293711
-0.085317026
-0.069163424
-0.054662857
-0.04214725
-0.031620063
-0.023178792
-0.017098314
-0.012579567
-0.033944337
0.0082825255
-0.0024917915
-0.044770438
-0.10189711
-0.16218941
-0.14881113
-0.17333384
-0.13653512
-0.044948093
0.0059502357
-0.066491817
-0.039771924
-0.18076233
-0.49447435
-1.0314507
-1.8959778
-2.5872428
-2.3478413
-1.6926223
-1.0437168
-0.57795605
-0.32127726
-0.21007392
-0.15163942
-0.12081012
-0.11010937
-0.11654616
-0.13345869
-0.15510466
-0.17670984
-0.19521758
-0.20957358
-0.21944727
-0.22469982
-0.2250856
-0.22046628
-0.21104689
-0.19745077
-0.18062949
-0.16168487
-0.14172165
-0.12169613
-0.10238847
-0.084289594
-0.067837225
-0.053200035
-0.040689011
-0.030189006
-0.021748075
-0.015554782
-0.01101612
-0.24980535
-0.10919637
-0.075973211
-0.093102806
-0.12806533
-0.16289791
-0.19616796
-0.15672498
-0.15400692
-0.10503053
-0.016302967
0.019441412
-0.060510547
-0.036532184
-0.57585086
-1.1465458
-2.1294078
-3.0079307
-2.8614287
-2.0958522
-1.3204071
-0.74486492
-0.43157518
-0.25957058
-0.20034907
-0.16200433
-0.13533042
-0.12912123
-0.14100677
-0.16119158
-0.18315546
-0.20304328
-0.21890583
-0.23055241
-0.23793022
-0.24075017
-0.23859881
-0.23133196
-0.21928249
-0.20324397
-0.18430861
-0.16366069
-0.14241637
-0.12147519
-0.10152895
-0.083010891
-0.066356887
-0.051699145
-0.039231671
-0.028695087
-0.020100205
-0.013910296
-0.0093858767
-0.66867269
-0.33265695
-0.19976027
-0.17924134
-0.20253666
-0.22459294
-0.23267665
-0.22879926
-0.1657151
-0.13791641
-0.077546561
0.0083137536
0.029620563
-0.052571072
-0.031933462
-1.2681462
-2.3792221
-3.4528962
-3.4522161
-2.5806076
-1.6564755
-0.94931592
-0.54828494
-0.36441638
-0.24183629
-0.21217339
-0.16482386
-0.14761816
-0.15163397
-0.16903322
-0.19101979
-0.21168768
-0.22875746
-0.24165433
-0.25073411
-0.25580285
-0.25623487
-0.25147558
-0.24146176
-0.2267235
-0.20825349
-0.18728521
-0.16505721
-0.14264675
-0.12086506
-0.10034721
-0.081531017
-0.064829342
-0.0502052
-0.037681069
-0.026848864
-0.018352484
-0.012191043
-0.0076916454
-1.3899815
-0.76682091
-0.42802708
-0.30819245
-0.30347338
-0.33212708
-0.3348001
-0.31225581
-0.26235303
-0.17592541
-0.12542976
-0.053203675
0.027616778
0.037586568
-0.043195096
-0.025535988
-2.6356219
-3.9287001
-4.1052014
-3.1514284
-2.0457318
-1.1861132
-0.70088077
-0.4462005
-0.33298361
-0.25869672
-0.21290583
-0.17153526
-0.16607729
-0.17928587
-0.20036486
-0.22186187
-0.23953914
-0.25317613
-0.26331099
-0.27021195
-0.27316416
-0.27117719
-0.26367601
-0.25079393
-0.23332333
-0.21247199
-0.1895857
-0.16589487
-0.14239514
-0.11984624
-0.098905514
-0.079991171
-0.063314846
-0.048577082
-0.035599915
-0.024893868
-0.016519567
-0.010404886
-0.005934047
-2.889188
-1.5117375
-0.87124024
-0.53794613
-0.43553638
-0.44961469
-0.48241067
-0.45892041
-0.39921078
-0.29928616
-0.18775784
-0.1135015
-0.032906514
0.043824731
0.042894133
-0.033849153
-0.018043639
-4.4096188
-4.7901927
-3.7914057
-2.4734803
-1.4554178
-0.87217252
-0.55999421
-0.40770545
-0.33798411
-0.26570961
-0.20485132
-0.18392001
-0.19211253
-0.21203
-0.23365055
-0.2520383
-0.26559313
-0.2760027
-0.28404014
-0.2892112
-0.29012345
-0.285568
-0.27512974
-0.25926047
-0.23905716
-0.21591743
-0.19122377
-0.16614265
-0.14163066
-0.1184951
-0.097386601
-0.078470047
-0.061614601
-0.046183077
-0.033396354
-0.022842213
-0.014619183
-0.0085512135
-0.0041146755
-4.8574319
-3.1070895
-1.6426922
-0.99038006
-0.66107079
-0.5814188
-0.61762333
-0.65330482
-0.59621023
-0.49057227
-0.3405908
-0.19695173
-0.10363437
-0.015180692
0.055904138
0.045677269
-0.0236419
-0.008234092
-5.4668868
-4.4578695
-2.9322539
-1.7483703
-1.0603972
-0.68719311
-0.50502276
-0.40867835
-0.34054797
-0.2435625
-0.20678105
-0.20760703
-0.2257035
-0.24817217
-0.2665211
-0.27974686
-0.28925497
-0.29746554
-0.30425587
-0.30799236
-0.30673949
-0.29934146
-0.28574649
-0.26681337
-0.24392888
-0.21859158
-0.19214926
-0.16575378
-0.14044567
-0.11704451
-0.095891483
-0.076697644
-0.058850248
-0.043643927
-0.031080563
-0.020726657
-0.012647635
-0.006632398
-0.002235209
-6.0819252
-5.2213099
-3.2733352
-1.7827663
-1.1141526
-0.79426981
-0.74417768
-0.8066289
-0.84363161
-0.744099
-0.58652949
-0.38138897
-0.20588604
-0.094890025
-0.0013300199
0.063326944
0.045849885
-0.011770798
-0.00058690867
-5.1037692
-3.4108703
-2.0538922
-1.2547535
-0.82835018
-0.60517714
-0.49564522
-0.41394471
-0.29893363
-0.23119423
-0.22623904
-0.24230575
-0.26485037
-0.28441639
-0.29613645
-0.303856
-0.31077669
-0.31824536
-0.3244654
-0.32674533
-0.32297555
-0.31238644
-0.29544866
-0.27343495
-0.24792115
-0.2204173
-0.19229343
-0.16483839
-0.13913321
-0.11562223
-0.094062748
-0.073487266
-0.055908906
-0.040974617
-0.028706394
-0.018538438
-0.010608596
-0.0046504119
-0.00029766505
-5.6820606
-6.5703986
-5.4737935
-3.3814965
-1.9185882
-1.2278801
-0.93365093
-0.9210316
-1.0136367
-1.0539937
-0.89877573
-0.68148732
-0.41648052
-0.21728708
-0.087986013
0.008428735
0.066073063
0.043372045
-0.00051304986
-0.0015125753
-3.8780721
-2.3599301
-1.4445855
-0.97199599
-0.71116586
-0.59585449
-0.51247581
-0.36880694
-0.26399382
-0.24586083
-0.26106309
-0.28563906
-0.3052202
-0.31642683
-0.32042228
-0.3245533
-0.33120225
-0.33923171
-0.34508964
-0.34550603
-0.33870602
-0.32458875
-0.30418689
-0.27907897
-0.25091957
-0.22129566
-0.19178538
-0.16376108
-0.13785269
-0.11376322
-0.090330371
-0.070057817
-0.05281482
-0.0382564
-0.026258246
-0.016282567
-0.0085044041
-0.0026078837
0.0016959174
-4.2723584
-6.1320271
-6.8833121
-5.5875499
-3.43332
-2.0380996
-1.3299786
-1.074796
-1.1074268
-1.2371817
-1.2700339
-1.0577779
-0.76299306
-0.44759518
-0.22830645
-0.082953676
0.013952825
0.06442534
0.04007254
0.0066226819
-0.0018758234
-2.6416621
-1.6173344
-1.1066185
-0.81653507
-0.69853734
-0.61393219
-0.46644528
-0.30352656
-0.2677048
-0.28242768
-0.30829249
-0.33200501
-0.34051324
-0.34064284
-0.33929952
-0.34336022
-0.35199668
-0.36122039
-0.3663159
-0.36414156
-0.35377507
-0.33585367
-0.31187258
-0.28358018
-0.25278415
-0.22137509
-0.19107414
-0.16271838
-0.13600701
-0.10942572
-0.0863254
-0.066447871
-0.049684778
-0.035464313
-0.023743207
-0.013961167
-0.0063388185
-0.00050744851
0.0037437173
-2.8286342
-4.5310697
-6.3914499
-6.9679379
-5.546286
-3.4360276
-2.1267444
-1.4255539
-1.2112846
-1.2994807
-1.4677077
-1.5019223
-1.1985327
-0.84662685
-0.47629972
-0.23594796
-0.080105944
0.015429774
0.05884374
0.03644661
0.0090171437
-0.0024661826
-1.7585992
-1.218551
-0.91246402
-0.79266503
-0.71677951
-0.57501746
-0.3644714
-0.28747774
-0.30009113
-0.33683109
-0.36131815
-0.3723092
-0.36486063
-0.35642361
-0.35489592
-0.36256495
-0.37455514
-0.38466274
-0.38804155
-0.38245363
-0.36802189
-0.34603176
-0.31827175
-0.28674318
-0.25368143
-0.2212027
-0.19039912
-0.1609514
-0.13097548
-0.10474995
-0.082105144
-0.062819376
-0.04648164
-0.032607725
-0.021163203
-0.011578675
-0.0041155774
0.0016487765
0.0058437143
-1.8492816
-2.8824167
-4.6243681
-6.3931623
-6.8048512
-5.3505157
-3.3678422
-2.155928
-1.5080168
-1.335479
-1.4873952
-1.7108498
-1.7072631
-1.3477536
-0.92638776
-0.50583965
-0.2423465
-0.079548187
0.013124096
0.050283132
0.031558987
0.0085323722
-0.0029474208
-1.2940044
-0.98692358
-0.86904545
-0.82205064
-0.69012569
-0.45843591
-0.31940201
-0.31240413
-0.35572919
-0.40149239
-0.40805555
-0.39720222
-0.37639083
-0.36669971
-0.37064313
-0.38448278
-0.39975375
-0.40954354
-0.40995831
-0.40018454
-0.38121087
-0.35479669
-0.32311473
-0.28874892
-0.25427084
-0.22106692
-0.18880437
-0.15513419
-0.12552525
-0.099814419
-0.077888996
-0.059119449
-0.043217644
-0.029687821
-0.018523795
-0.0091391063
-0.0018369884
0.0038597511
0.0079923289
-1.3231398
-1.8840368
-2.8281511
-4.5161889
-6.1265846
-6.4091119
-5.0169196
-3.2181488
-2.1324797
-1.5635078
-1.43545
-1.6795759
-1.9429607
-1.953835
-1.5008509
-0.99755181
-0.5310715
-0.24933257
-0.081270416
0.0075061948
0.040067823
0.025713684
0.0062558066
-0.0031150476
-1.0298961
-0.92105526
-0.90930694
-0.79544523
-0.56974596
-0.369405
-0.32875502
-0.37026267
-0.42830151
-0.45995385
-0.43463301
-0.40277158
-0.37900682
-0.37649013
-0.39020689
-0.41072509
-0.4277589
-0.43547766
-0.43172815
-0.41698064
-0.39289212
-0.36177978
-0.32658975
-0.29038323
-0.25489605
-0.21977344
-0.18210846
-0.14879964
-0.1197589
-0.09491137
-0.073603697
-0.055363753
-0.039892833
-0.026711044
-0.015829873
-0.0066437869
0.0004983664
0.0061199767
0.010187438
-1.0320724
-1.303812
-1.8379062
-2.6967774
-4.2014934
-5.6309159
-5.8251135
-4.5748201
-3.0013082
-2.0725138
-1.5919642
-1.518924
-1.8520773
-2.1964181
-2.2066948
-1.6505147
-1.0529729
-0.54600301
-0.25672381
-0.085227882
-0.0007258967
0.028642337
0.018924358
0.0032605658
-0.00264063
-0.94057904
-0.9657416
-0.89019306
-0.67296187
-0.43403371
-0.3558934
-0.38174942
-0.45804354
-0.49974379
-0.49093421
-0.43349267
-0.39419292
-0.37994913
-0.39132768
-0.41639262
-0.44175534
-0.45813082
-0.46194438
-0.4528237
-0.43222482
-0.40256508
-0.36716459
-0.32962216
-0.29205129
-0.25407721
-0.21210985
-0.17477241
-0.14207696
-0.11406039
-0.089941486
-0.069269059
-0.051550642
-0.036514597
-0.023682612
-0.013081928
-0.0040875097
0.0028818848
0.0084254096
0.01242643
-0.92494246
-0.9944114
-1.2339333
-1.7046386
-2.473246
-3.715466
-4.9722526
-5.1155417
-4.0630336
-2.7322463
-1.9789359
-1.57961
-1.5809086
-2.0287426
-2.4672376
-2.4500766
-1.7834442
-1.0834247
-0.55206559
-0.26289135
-0.0911491
-0.010841529
0.016648059
0.011547363
-2.9716446e-06
-0.0018357693
-0.9812499
-0.96163246
-0.76874537
-0.51762218
-0.3934653
-0.3981736
-0.47866142
-0.559496
-0.54197035
-0.48107943
-0.41033164
-0.38235881
-0.38683253
-0.41589092
-0.4501674
-0.47698958
-0.49006311
-0.48815664
-0.47239167
-0.44524035
-0.41039036
-0.37202775
-0.33268503
-0.29193489
-0.24536703
-0.20364969
-0.16695683
-0.13546487
-0.10829703
-0.084929855
-0.064880966
-0.047688376
-0.033088476
-0.020601364
-0.01026876
-0.0014850843
0.0053093708
0.010771824
0.014706997
-0.9554663
-0.87639994
-0.91839998
-1.120139
-1.5144715
-2.153244
-3.139805
-4.2148236
-4.3525469
-3.5184304
-2.44894
-1.8112926
-1.5399299
-1.6391181
-2.2179302
-2.7319322
-2.6641647
-1.8861968
-1.0782221
-0.54937573
-0.26509297
-0.098313224
-0.02206425
0.0046223496
0.003739602
-0.0031643516
-0.001410043
-0.99292904
-0.83861725
-0.5980007
-0.43841055
-0.42232966
-0.49972029
-0.6087402
-0.63708398
-0.53221878
-0.43709099
-0.38355957
-0.37636399
-0.40743187
-0.45200165
-0.49072906
-0.51519384
-0.52235158
-0.51294577
-0.48951979
-0.4561377
-0.41760498
-0.37691687
-0.33356295
-0.28211728
-0.23565626
-0.19459476
-0.15930265
-0.12878857
-0.10250042
-0.079868983
-0.060448364
-0.043782585
-0.02961121
-0.017449133
-0.0074100071
0.0011575351
0.0077756563
0.013155957
0.017026515
-0.97868503
-0.89398317
-0.79154943
-0.80823007
-0.97498172
-1.2870623
-1.788898
-2.5632824
-3.430662
-3.6021749
-2.9885265
-2.0811936
-1.6379088
-1.4988497
-1.7028452
-2.4039179
-2.9647185
-2.8227278
-1.9450865
-1.0433468
-0.53181834
-0.26289859
-0.10585981
-0.033561404
-0.0068836948
-0.0036638057
-0.0061603232
-0.001531788
-0.87539293
-0.65797244
-0.48292152
-0.45035151
-0.52778342
-0.66078488
-0.73365
-0.64767502
-0.47068761
-0.39067683
-0.35913126
-0.39020487
-0.44523888
-0.49859969
-0.53634279
-0.55471113
-0.55341775
-0.53508871
-0.50423145
-0.46631992
-0.42483885
-0.37915527
-0.32260256
-0.27102779
-0.22520688
-0.18576017
-0.15158249
-0.12208791
-0.096658457
-0.074768446
-0.055976623
-0.039827331
-0.026055152
-0.014253695
-0.004512384
0.0038337529
0.010277603
0.01557439
0.019381047
-0.87210012
-0.92164125
-0.79489029
-0.68552776
-0.68263221
-0.80880375
-1.0443442
-1.4232805
-2.0207123
-2.7058549
-2.9235351
-2.4098891
-1.762355
-1.4663307
-1.4552325
-1.7707789
-2.5634447
-3.1368996
-2.8980004
-1.9469721
-0.98804709
-0.50487077
-0.25741383
-0.11283096
-0.044501556
-0.017444053
-0.010402529
-0.0087574949
-0.0019441874
-0.69171341
-0.52349325
-0.47538535
-0.55564348
-0.72436647
-0.85423794
-0.78825262
-0.58037244
-0.37350815
-0.33364168
-0.36282592
-0.42870957
-0.49847892
-0.55304102
-0.58458485
-0.59333576
-0.58162765
-0.55447544
-0.5180963
-0.47650872
-0.42888608
-0.36705204
-0.31000791
-0.25902244
-0.21504444
-0.17685381
-0.14384646
-0.1153448
-0.090781112
-0.069633005
-0.051456269
-0.0357839
-0.022456177
-0.01102331
-0.0015839288
0.0065409049
0.012812176
0.018021259
0.021765555
-0.68287548
-0.83009061
-0.81803974
-0.67614173
-0.55521593
-0.54459482
-0.63625591
-0.80819576
-1.0857856
-1.5338795
-2.0693653
-2.2020381
-1.9319556
-1.4643387
-1.2900086
-1.4018499
-1.8376942
-2.6780237
-3.2175927
-2.8695625
-1.8890524
-0.91729094
-0.47614428
-0.24906339
-0.11832096
-0.054152474
-0.026572022
-0.016143386
-0.010909289
-0.0024634402
-0.54032095
-0.48979209
-0.57417664
-0.78928174
-0.98536677
-0.9775491
-0.7305481
-0.45544843
-0.30265861
-0.3208749
-0.40125176
-0.48985844
-0.56316244
-0.61160697
-0.63234605
-0.62885351
-0.60667603
-0.57283904
-0.53193884
-0.48289868
-0.41568194
-0.35283304
-0.29628154
-0.24737691
-0.20479828
-0.1679386