/*--------------------------------*- C++ -*----------------------------------*\
| =========                 |                                                 |
| \\      /  F ield         | OpenFOAM: The Open Source CFD Toolbox           |
|  \\    /   O peration     | Version:  v2012                                 |
|   \\  /    A nd           | Website:  www.openfoam.com                      |
|    \\/     M anipulation  |                                                 |
\*---------------------------------------------------------------------------*/
FoamFile
{
    version     2.0;
    format      ascii;
    class       surfaceScalarField;
    location    "119.831078516937012";
    object      phi;
}
// * * * * * * * * * * * * * * * * * * * * * * * * * * * * * * * * * * * * * //

dimensions      [0 3 -1 0 0 0 0];
oriented        oriented;


internalField   nonuniform List<scalar> 
18180
(
-0.00071399657
-3.4506687
-0.00079122578
-3.2231465
0.0025148845
-3.5099834
0.0001560993
-3.0101327
0.0053593597
-3.2784844
0.0034279377
-3.5675799
0.0022944073
-2.8102466
0.0087389639
-3.0619937
0.0071217627
-3.3326878
0.0044138099
-3.6231188
0.0057630219
-2.6238153
0.012867789
-2.8591278
0.011140762
-3.1128417
0.0089739864
-3.3851393
0.0050028389
-3.6759495
0.010549095
-2.4495891
0.01776191
-2.6703752
0.015722865
-2.9073692
0.013691508
-3.1624196
0.010052906
-3.434901
0.0053603972
-3.7256787
0.01657659
-2.2870403
0.023438668
-2.4943713
0.020859518
-2.7163078
0.018773124
-2.9542866
0.015163338
-3.2093174
0.010706015
-3.481843
0.0055089256
-3.7724355
0.023707035
-2.1353433
0.029822409
-2.3301753
0.02656257
-2.5382431
0.024195495
-2.7607845
0.020504604
-2.9985763
0.016049726
-3.2534896
0.010971765
-3.5259589
0.0055003584
-3.8161335
0.031748251
-1.9938747
0.036836856
-2.1769247
0.032768876
-2.3722621
0.029953211
-2.5807306
0.026045981
-2.8027461
0.02154224
-3.0404017
0.01640436
-3.2953919
0.010941586
-3.5674216
0.0053686342
-3.8569466
0.040490872
-1.8619647
0.044393745
-2.0339309
0.03942038
-2.2173722
0.035977106
-2.4130661
0.031760948
-2.6208383
0.027147736
-2.8425737
0.021953425
-3.0804427
0.016352261
-3.3349181
0.010677178
-3.6061931
0.0051402148
-3.8949836
0.049728958
-1.7389784
0.052429025
-1.9005414
0.046462125
-2.072807
0.042194206
-2.2566481
0.037559931
-2.4515647
0.032829418
-2.6587386
0.027587496
-2.8807413
0.021885378
-3.1185157
0.015973109
-3.3721825
0.010227907
-3.6424742
0.0048343839
-3.9302126
0.059287053
-1.6242859
0.06090919
-1.7761414
0.053861126
-1.9378926
0.048528836
-2.1106044
0.043338736
-2.2936483
0.038482818
-2.4876763
0.033275269
-2.6951702
0.027524219
-2.9174161
0.021421576
-3.1545671
0.015328452
-3.4071148
0.0096297857
-3.6761692
0.0044670863
-3.9627145
0.068978309
-1.5172745
0.069833748
-1.6601303
0.061614119
-1.8120323
0.05491965
-1.9742076
0.048979074
-2.1461285
0.043979434
-2.3280906
0.03891346
-2.5222552
0.033258695
-2.7301632
0.027028511
-2.9521418
0.020620184
-3.1884477
0.014462761
-3.4396778
0.0089121776
-3.7072496
0.0040542111
-3.9924773
0.078628319
-1.4173731
0.079219771
-1.5519099
0.06974282
-1.6946518
0.061332186
-1.8468735
0.054364146
-2.0081994
0.049164181
-2.1788327
0.044370945
-2.3606888
0.039007869
-2.5553666
0.032816434
-2.7634114
0.02613514
-2.9848705
0.019519811
-3.2200822
0.013413563
-3.4697029
0.0081034399
-3.7357549
0.0036133887
-4.0196987
0.088071563
-1.3240217
0.089129637
-1.4509574
0.078323155
-1.5852204
0.067759244
-1.7280575
0.059379539
-1.8792509
0.053866955
-2.0390781
0.049480063
-2.2094569
0.044665755
-2.3918997
0.03874257
-2.5869661
0.031931759
-2.7948306
0.024857692
-3.0155047
0.018155388
-3.2493223
0.012218734
-3.4972947
0.0072338493
-3.7617775
0.0031628191
-4.0443564
0.09716553
-1.2367175
0.099636628
-1.3567211
0.087464515
-1.4832514
0.074252673
-1.6172965
0.063923215
-1.7587428
0.057903577
-1.9081582
0.05404441
-2.0676501
0.050087744
-2.2387367
0.044747427
-2.4217521
0.038013642
-2.6168876
0.030567478
-2.8243197
0.02321476
-3.0438802
0.016569269
-3.2761794
0.010919941
-3.5224279
0.006334929
-3.7853754
0.0027184388
-4.0666704
0.10580125
-1.1550083
0.11083815
-1.268715
0.097315609
-1.3882402
0.080854698
-1.5140988
0.067919433
-1.6462402
0.061105234
-1.7855347
0.057845185
-1.9345437
0.055099947
-2.0949509
0.050737569
-2.2668432
0.044379143
-2.4501532
0.036698134
-2.6451739
0.028705347
-2.851854
0.021245245
-3.0700511
0.01481536
-3.3006552
0.0095619949
-3.5452095
0.0054361438
-3.8066488
0.0022914697
-4.0867331
0.1138926
-1.0784642
0.12284598
-1.186497
0.10806074
-1.2997388
0.087680039
-1.4180311
0.071269971
-1.541236
0.063284899
-1.6707468
0.060648898
-1.8095561
0.059505046
-1.9597948
0.056596108
-2.1213756
0.051000192
-2.2938564
0.043304987
-2.4773345
0.034712472
-2.6718738
0.026369347
-2.8773569
0.019013859
-3.0939149
0.012957198
-3.3227862
0.0081896261
-3.5656775
0.0045618559
-3.8257783
0.0018881243
-4.1047794
0.12134933
-1.0067034
0.13577265
-1.1096295
0.1198818
-1.2173024
0.094889057
-1.328693
0.073965252
-1.44338
0.064203475
-1.5632351
0.062158036
-1.6921498
0.063071042
-1.8326202
0.062182411
-1.9845449
0.057834285
-2.1471204
0.050428338
-2.3200068
0.041338416
-2.5032656
0.032048757
-2.6967994
0.023632796
-2.9006879
0.01660702
-3.1155146
0.011062144
-3.342662
0.0068437789
-3.5840699
0.0037300964
-3.8429057
0.0015120656
-4.1208781
0.1280569
-0.93941787
0.14973316
-1.0377264
0.13298442
-1.1405134
0.10263521
-1.2456315
0.075991114
-1.3522664
0.063649493
-1.4626871
0.062261164
-1.58195
0.065567515
-1.7128778
0.067331905
-1.855651
0.064818838
-2.0091069
0.058104334
-2.1724499
0.048681863
-2.3454268
0.038414498
-2.527803
0.028783457
-2.7196912
0.020610481
-2.9218373
0.014122418
-3.1348932
0.0091944778
-3.3604552
0.0055585753
-3.6004774
0.0029530694
-3.858182
0.0011649213
-4.135231
0.13397526
-0.8762503
0.16481164
-0.97044687
0.14756523
-1.0689729
0.11111267
-1.1684721
0.077315084
-1.2674233
0.061475708
-1.368771
0.060702956
-1.4785104
0.066762667
-1.6001862
0.071890376
-1.734129
0.071877093
-1.8790888
0.066358122
-2.0338209
0.056849057
-2.1975174
0.04560444
-2.3696809
0.034603594
-2.5503804
0.025065655
-2.7404412
0.017441834
-2.9407976
0.011657199
-3.1522181
0.0074092775
-3.3763021
0.0043595687
-3.6150849
0.0022374622
-3.8717331
0.00084407711
-4.1479422
0.13903462
-0.81691013
0.18111788
-0.907458
0.1637884
-1.0022991
0.12052723
-1.0968214
0.077930066
-1.1885037
0.057576197
-1.2810637
0.057135878
-1.3814131
0.066421094
-1.4940941
0.075616256
-1.6194946
0.078913012
-1.7564369
0.075204565
-1.9032935
0.065946499
-2.0586836
0.053775767
-2.2216674
0.041245495
-2.3921018
0.0300951
-2.5708281
0.021091148
-2.7590452
0.014270943
-2.9577353
0.0092967198
-3.1676014
0.0057483126
-3.3903475
0.0032630203
-3.6280084
0.001586649
-3.8837484
0.0005479273
-4.159185
0.14316987
-0.76118129
0.19870455
-0.84840838
0.18179789
-0.94012875
0.13109822
-1.0303033
0.077848795
-1.1151289
0.051804211
-1.1991791
0.051362557
-1.2903962
0.064306735
-1.394183
0.078311363
-1.5113323
0.085812055
-1.640631
0.084639669
-1.7802238
0.076077824
-1.9281816
0.063096837
-2.0829993
0.048888873
-2.2441585
0.035838244
-2.412472
0.025158992
-2.5892316
0.01707022
-2.7756419
0.011227468
-2.9727371
0.007106926
-3.1812164
0.0042384867
-3.4027679
0.0022764063
-3.6394707
0.0010039341
-3.8943518
0.0002725607
-4.1690295
0.14633393
-0.70887646
0.21759335
-0.79304779
0.20176356
-0.88213071
0.14303781
-0.96854153
0.07708496
-1.0469262
0.044031758
-1.1227669
0.043197373
-1.2050889
0.0601702
-1.3001733
0.079837416
-1.4092768
0.092454043
-1.5312358
0.094648384
-1.6640552
0.087336865
-1.8053226
0.073745196
-1.9529436
0.057734511
-2.105841
0.0424649
-2.264687
0.029747879
-2.4308121
0.020097956
-2.6055383
0.013197157
-2.7902971
0.0084130785
-2.9859916
0.0051307326
-3.1932069
0.0028926236
-3.4137348
0.0014003409
-3.6495694
0.00048780594
-3.9036929
2.6192664e-05
-4.1776231
0.14858056
-0.65983246
0.23769797
-0.7410799
0.2237479
-0.82794032
0.15653828
-0.91118356
0.075662142
-0.9835317
0.034148082
-1.0514719
0.03248094
-1.1251698
0.053824768
-1.2117587
0.080011829
-1.3130004
0.09871893
-1.4278791
0.10519439
-1.5543209
0.099801231
-1.6895102
0.08589923
-1.8307986
0.068005463
-1.9764258
0.050172189
-2.1266613
0.034987176
-2.2830471
0.023403133
-2.4469544
0.015199334
-2.6198549
0.0096268232
-2.8031621
0.0058945938
-2.9976143
0.0033884825
-3.2037653
0.00171188
-3.4233896
0.00063114698
-3.6584505
3.3194299e-05
-3.9118649
-0.00018147599
-4.1850655
0.1500623
-0.61372464
0.2587335
-0.69214122
0.24749591
-0.77693772
0.17163986
-0.85771231
0.073608929
-0.92459884
0.022066705
-0.98495411
0.019093556
-1.0503222
0.045112871
-1.1286446
0.078679381
-1.2222209
0.10448697
-1.3302324
0.11621763
-1.4506194
0.11352474
-1.5802388
0.099729126
-1.7159396
0.079939324
-1.8552288
0.05918853
-1.9977857
0.041032373
-2.1451937
0.027051371
-2.2990981
0.017222778
-2.460912
0.010696389
-2.6322688
0.0064622427
-2.8143936
0.0037038893
-3.007806
0.0018815097
-3.2130174
0.00068821941
-3.4318431
-4.572017e-05
-3.6662053
-0.00037233235
-3.9189899
-0.00036435577
-4.1914807
0.15112234
-0.57027972
0.2804014
-0.64589257
0.27252301
-0.72852568
0.18802137
-0.80714604
0.070947011
-0.86960738
0.0077174315
-0.92288223
0.0029669404
-0.98025691
0.033917805
-1.050555
0.075718444
-1.1366768
0.10964025
-1.2380143
0.12764368
-1.3526027
0.12853101
-1.4770683
0.11538597
-1.6078166
0.093780808
-1.7416273
0.069769984
-1.8774495
0.048071715
-2.0165996
0.03112563
-2.161081
0.019258852
-2.3126347
0.011554317
-2.4727925
0.0067465135
-2.6429883
0.0037530316
-2.824151
0.0018431406
-3.0167014
0.00059739304
-3.2211081
-0.0001904231
-3.4392531
-0.00061925331
-3.6730042
-0.0007274908
-3.9251456
-0.00052458595
-4.1969448
0.15212461
-0.52914957
0.30273703
-0.60239283
0.29855348
-0.68257162
0.20527576
-0.75880132
0.067771296
-0.81765212
-0.0089422537
-0.86476217
-0.015930992
-0.91467159
0.020165344
-0.97723507
0.071046512
-1.0561303
0.11407639
-1.1509778
0.13937993
-1.2599697
0.14480735
-1.3796093
0.13299112
-1.505952
0.10977086
-1.635044
0.08219703
-1.7650234
0.056327423
-1.8967322
0.035733739
-2.0323255
0.021302056
-2.1740867
0.012121259
-2.3238268
0.0066360766
-2.4828328
0.0034266053
-2.6521828
0.0015029247
-2.832641
0.0002926152
-3.0244642
-0.00048525355
-3.2281663
-0.00094307358
-3.4457117
-0.0011191454
-3.6789176
-0.0010297552
-3.9304445
-0.00065529664
-4.2015654
0.15315664
-0.49015553
0.32546421
-0.56098176
0.32548172
-0.63930409
0.22338428
-0.71293338
0.064264109
-0.76813931
-0.027801244
-0.80983865
-0.037534706
-0.85316141
0.0038306293
-0.90842462
0.064618202
-0.98035866
0.11771325
-1.0689035
0.15132064
-1.1724595
0.16230235
-1.2875185
0.15262455
-1.4099105
0.12813399
-1.5349757
0.096767378
-1.6599622
0.066057568
-1.7851004
0.041011865
-1.9124353
0.023355326
-2.044716
0.012304976
-2.1844437
0.0059958703
-2.3330519
0.0025863924
-2.4913106
0.00074322651
-2.6601128
-0.00031861739
-2.840007
-0.00098096107
-3.031228
-0.0013907384
-3.2343249
-0.0015838001
-3.4513347
-0.0015499836
-3.6840291
-0.0012878177
-3.9349407
-0.00076823388
-4.205413
0.15464552
-0.4535552
0.34833893
-0.52151265
0.35257495
-0.59743111
0.2421934
-0.66963494
0.060863669
-0.72158026
-0.048331486
-0.75793195
-0.061612186
-0.79513196
-0.014977573
-0.84384241
0.056439578
-0.90915278
0.12049187
-0.99159582
0.16335082
-1.089843
0.18092408
-1.2004939
0.17431707
-1.3192979
0.14906536
-1.4409519
0.11378585
-1.5617497
0.077554079
-1.68118
0.047130787
-1.8009983
0.02543436
-1.9242055
0.01200246
-2.0540716
0.0046646549
-2.1926345
0.0010635561
-2.3406015
-0.00058299799
-2.4984984
-0.001349491
-2.6669571
-0.0017622208
-2.8464352
-0.0020172618
-3.0371265
-0.0021467497
-3.2396806
-0.0021279608
-3.4561809
-0.0019204379
-3.6884068
-0.0015103421
-3.9387355
-0.00086708938
-4.2085655
0.15101856
-0.49047897
0.37138686
-0.4845074
0.37960917
-0.55731212
0.26103255
-0.62709369
0.058430931
-0.6784892
-0.069829081
-0.70972689
-0.087713877
-0.74061513
-0.035876536
-0.78316067
0.046607852
-0.84232131
0.1223845
-0.91887668
0.17535282
-1.0119194
0.20054233
-1.1182683
0.1980423
-1.2337508
0.17271775
-1.3525303
0.13355405
-1.4699031
0.091139898
-1.5844723
0.054296893
-1.697543
0.027573965
-1.8122015
0.011102636
-1.932328
0.0024558393
-2.0609563
-0.0013440253
-2.1990857
-0.002654739
-2.3468697
-0.0029404128
-2.504659
-0.0029296479
-2.6729221
-0.0028895955
-2.852036
-0.0028569101
-3.0422693
-0.0027780221
-3.2443102
-0.0025906985
-3.4603612
-0.0022386018
-3.6921439
-0.001702381
-3.9418814
-0.00095237241
-4.2110868
0.14935402
-0.48389693
0.39131098
-0.51900885
0.40623216
-0.51934269
0.2795196
-0.58595393
0.058308943
-0.63753688
-0.091776116
-0.66554965
-0.11553419
-0.69014649
-0.058624527
-0.72626774
0.035366174
-0.77968042
0.12339378
-0.85058777
0.18721064
-0.93851008
0.22099286
-1.0406018
0.22371486
-1.1529394
0.19918975
-1.2692916
0.15635515
-1.3839571
0.10716397
-1.4945098
0.062757772
-1.6016054
0.029829673
-1.7082909
0.0094927429
-1.8189788
-0.00084171185
-1.9376449
-0.0048743785
-2.0660117
-0.0056852292
-2.2041798
-0.0052596814
-2.3521415
-0.0046037518
-2.5100174
-0.0040902402
-2.678142
-0.0037627957
-2.8569638
-0.0035380515
-3.0467339
-0.0033066044
-3.2483038
-0.0029848566
-3.4639357
-0.0025114729
-3.6953003
-0.0018671971
-3.9444549
-0.0010252272
-4.2130388
0.14926834
-0.47650831
0.4145545
-0.5157072
0.43011856
-0.55181605
0.2971696
-0.54651076
0.057451633
-0.59497783
-0.11354087
-0.62418523
-0.14536665
-0.64345203
-0.083396751
-0.67327951
0.022892441
-0.72104622
0.12356042
-0.78658199
0.19881222
-0.86945436
0.24208211
-0.96728251
0.25118771
-1.0765624
0.2285158
-1.1908405
0.18244149
-1.3034606
0.12599047
-1.4108368
0.072802113
-1.5127418
0.032287107
-1.6120511
0.0070554652
-1.7136555
-0.0054752083
-1.8223427
-0.0098015061
-1.9408406
-0.0099235271
-2.0696279
-0.0085045333
-2.2083295
-0.0069268599
-2.3567226
-0.0057128022
-2.5147545
-0.0049250795
-2.6827795
-0.0044392806
-2.8612717
-0.0040940931
-3.0506109
-0.0037512517
-3.2517317
-0.0033209779
-3.4669877
-0.0027448232
-3.6979343
-0.0020076381
-3.9464974
-0.0010868129
-4.214478
0.15020015
-0.46868667
0.44052057
-0.51100061
0.45642796
-0.55097483
0.31404317
-0.57894708
0.054459623
-0.55274417
-0.13543333
-0.5809457
-0.17748816
-0.5993288
-0.11020136
-0.62408554
0.0091215677
-0.66628637
0.12295408
-0.72669871
0.21004225
-0.80459676
0.26359242
-0.89812073
0.28025356
-1.0043434
0.26065599
-1.1168047
0.21201673
-1.22797
0.1479878
-1.3329991
0.084758441
-1.4305308
0.03506221
-1.5230491
0.0036807026
-1.615928
-0.011703374
-1.714785
-0.016440787
-1.82329
-0.015660526
-1.9425961
-0.012903446
-2.0723582
-0.010061374
-2.2119292
-0.0078645488
-2.3608418
-0.0064076381
-2.5190335
-0.0055198567
-2.6869057
-0.0049684822
-2.8650677
-0.0045526883
-3.0539553
-0.0041272442
-3.2546596
-0.003607553
-3.469552
-0.0029433827
-3.700103
-0.0021261888
-3.9480827
-0.0011381149
-4.215453
0.15155635
-0.46080908
0.46823689
-0.50489154
0.48468338
-0.54824564
0.33203984
-0.57929552
0.051342141
-0.58566006
-0.1575094
-0.53800994
-0.20845068
-0.55680928
-0.13810135
-0.57842471
-0.0059300627
-0.61536588
0.12160461
-0.67076027
0.22079889
-0.74378929
0.28528401
-0.83293911
0.31064485
-0.93603346
0.29548688
-1.0468274
0.24521879
-1.1570493
0.17350925
-1.2605369
0.098987677
-1.3545463
0.038309876
-1.4408943
-0.00073346294
-1.5253987
-0.01981143
-1.6146196
-0.025136435
-1.7131191
-0.023214801
-1.8227421
-0.018712925
-1.9435531
-0.014189509
-2.0747316
-0.010662245
-2.215265
-0.0082795236
-2.3646736
-0.0068144934
-2.5229463
-0.0059469395
-2.6906046
-0.0053904174
-2.8683765
-0.0049356718
-3.0568366
-0.0044465479
-3.2571331
-0.0038512996
-3.4717096
-0.0031110033
-3.7018741
-0.0022249356
-3.9492473
-0.0011800157
-4.2160268
0.15283485
-0.45323756
0.49665921
-0.49768477
0.51435272
-0.54357554
0.3505113
-0.57709946
0.048061857
-0.58589842
-0.18026413
-0.57068126
-0.23697789
-0.51589916
-0.16546103
-0.53602778
-0.02198373
-0.56828756
0.1194468
-0.6186337
0.23102403
-0.68689743
0.30694101
-0.77161322
0.34207946
-0.87144252
0.33282046
-0.98059911
0.28211253
-1.0902761
0.20288029
-1.1929872
0.11586907
-1.2843435
0.042220402
-1.3651934
-0.0062741974
-1.4416717
-0.030098972
-1.5214069
-0.036273135
-1.6099819
-0.032951618
-1.7098834
-0.026219286
-1.8215796
-0.019510298
-1.9444105
-0.014230278
-2.0770899
-0.010609229
-2.2185374
-0.0083555782
-2.3683163
-0.0070379716
-2.5265495
-0.0062634987
-2.6939098
-0.0057357269
-2.8712814
-0.0052594939
-3.0592789
-0.0047182667
-3.2592119
-0.004057486
-3.4735181
-0.0032508459
-3.7032982
-0.0023056829
-3.9500478
-0.001213326
-4.2162363
0.1536864
-0.44629396
0.52463118
-0.48963088
0.54447837
-0.53684344
0.36882
-0.57231386
0.044278624
-0.58323838
-0.20280102
-0.57120985
-0.26845668
-0.54599271
-0.19128162
-0.49625792
-0.038689655
-0.52485298
0.11634271
-0.57024649
0.2406615
-0.63378839
0.32840264
-0.71406715
0.37433922
-0.81051338
0.3725097
-0.9179703
0.32276736
-1.0273496
0.23644197
-1.1299453
0.13582682
-1.2194994
0.047000337
-1.2955105
-0.013036619
-1.3643388
-0.042880988
-1.4347384
-0.050266372
-1.5134569
-0.045267063
-1.6037214
-0.035735815
-1.7062839
-0.026237192
-1.8206803
-0.0186961
-1.9456491
-0.013461608
-2.0797061
-0.010166619
-2.2218505
-0.0082419538
-2.371815
-0.0071585623
-2.5298808
-0.0065118179
-2.696876
-0.0060265443
-2.8737782
-0.0055360746
-3.0613429
-0.0049491877
-3.2609655
-0.0042302454
-3.4750426
-0.0033655482
-3.7044099
-0.0023700259
-3.9505142
-0.0012387996
-4.2161332
0.15388423
-0.4402374
0.55099279
-0.48104868
0.57398223
-0.52817956
0.38616676
-0.56465721
0.039586404
-0.57757603
-0.22545295
-0.56849753
-0.29851274
-0.54806821
-0.22523548
-0.5185204
-0.055230299
-0.4848789
0.11220166
-0.52544393
0.24963683
-0.58436816
0.34954999
-0.66020833
0.40720907
-0.75317304
0.41437641
-0.85885213
0.36724083
-0.96810865
0.27459032
-1.0711657
0.15946362
-1.1597854
0.053046098
-1.231609
-0.021049871
-1.2930221
-0.058469783
-1.35419
-0.067550318
-1.4231011
-0.060584791
-1.5038049
-0.047596484
-1.5973795
-0.034593492
-1.7034076
-0.024185442
-1.8206407
-0.016891951
-1.9475035
-0.012258732
-2.0826508
-0.0095444561
-2.2252451
-0.0080502508
-2.3751893
-0.0072336062
-2.532964
-0.0067210353
-2.699508
-0.0062779646
-2.8759277
-0.0057736879
-3.063064
-0.0051443076
-3.2624421
-0.0043728787
-3.4763067
-0.0034573841
-3.7052487
-0.0024194187
-3.9506958
-0.0012571446
-4.2157415
0.15323838
-0.43525881
0.57466032
-0.47227369
0.60172541
-0.51784218
0.40178983
-0.5542973
0.033787205
-0.56883928
-0.24830847
-0.56269198
-0.32734332
-0.54669847
-0.25768284
-0.52221577
-0.084839364
-0.49425796
0.10733443
-0.48444127
0.25774378
-0.53835031
0.37026428
-0.60994748
0.44036259
-0.69921525
0.45795734
-0.80288355
0.41502139
-0.91189513
0.31713203
-1.0159016
0.18715571
-1.1047298
0.060973069
-1.1734743
-0.030209604
-1.2276137
-0.077206687
-1.2793481
-0.088591813
-1.3384416
-0.079357118
-1.4096525
-0.062152725
-1.4944077
-0.044805406
-1.5922658
-0.030816493
-1.7019104
-0.02094063
-1.821669
-0.014624189
-1.9500552
-0.010912994
-2.0859466
-0.0088950461
-2.2286876
-0.0078567056
-2.3784347
-0.0073004493
-2.5358018
-0.0069095516
-2.7018269
-0.0064995473
-2.8777303
-0.0059779084
-3.064495
-0.0053073391
-3.2636774
-0.0044881042
-3.4773573
-0.0035283595
-3.7058443
-0.0024552005
-3.9506155
-0.0012690322
-4.2151188
-0.43148099
0.15153759
0.5946706
-0.46361731
0.62655501
-0.50615338
0.41497081
-0.54153571
0.026730455
-0.55724408
-0.27125492
-0.55392186
-0.35500289
-0.54217466
-0.28826554
-0.52281209
-0.11382105
-0.49865077
0.086425652
-0.47792598
0.26498331
-0.49615603
0.39027696
-0.56285398
0.47335347
-0.64842997
0.50242726
-0.74949709
0.46492086
-0.8576727
0.36245296
-0.96207564
0.21748421
-1.0517872
0.070339395
-1.1195746
-0.040215447
-1.1682899
-0.099177443
-1.2103497
-0.11383667
-1.2590742
-0.10203613
-1.3207825
-0.079765386
-1.3968768
-0.057097953
-1.4868511
-0.038692565
-1.5891972
-0.025626456
-1.7020684
-0.017231347
-1.8238113
-0.012290896
-1.9532548
-0.0096284897
-2.0895012
-0.0083175872
-2.2321468
-0.0077077833
-2.3815294
-0.0073805191
-2.5383803
-0.0070876066
-2.70384
-0.0066968327
-2.8792405
-0.0061523698
-3.0656565
-0.0054411145
-3.2647067
-0.0045782427
-3.4782106
-0.0035803054
-3.7062279
-0.0024786334
-3.9503069
-0.0012750984
-4.214283
-0.45536472
0.6102221
-0.42899803
0.14859248
0.64738671
-0.49349266
0.42503675
-0.52674007
0.018296947
-0.54312355
-0.29404669
-0.54253529
-0.38142733
-0.5347423
-0.31685796
-0.52036957
-0.1415571
-0.50054062
0.065387103
-0.48228341
0.25455196
-0.47207482
0.40951996
-0.51955344
0.50566085
-0.60030839
0.54695234
-0.69846693
0.51573676
-0.80486036
0.40885395
-0.90856796
0.24779604
-0.99764363
0.07808352
-1.0647409
-0.052567055
-1.1117152
-0.12462635
-1.1472099
-0.14375646
-1.185104
-0.12909846
-1.2367517
-0.10078436
-1.3043079
-0.071684971
-1.3867088
-0.047896059
-1.4821056
-0.030940035
-1.5884081
-0.020018945
-1.7038063
-0.013593651
-1.8269544
-0.0101609
-1.9569789
-0.0085313526
-2.0932507
-0.0078675427
-2.2355655
-0.0076268614
-2.3844388
-0.007483431
-2.5407042
-0.0072595917
-2.7055687
-0.0068725847
-2.8804608
-0.0062994668
-3.0665921
-0.0055479008
-3.2655613
-0.0046453564
-3.4789027
-0.0036149131
-3.706396
-0.0024909057
-3.9497924
-0.0012759472
-4.2132785
-0.48030229
0.66329394
-0.44756027
0.62046304
-0.42824285
0.14447018
0.4313697
-0.51034514
0.0084180222
-0.52689586
-0.3163359
-0.52896655
-0.40650128
-0.52480026
-0.34349946
-0.51496809
-0.16772828
-0.49969931
0.044612568
-0.4845246
0.24417796
-0.4765893
0.41013544
-0.47690729
0.5371339
-0.55585736
0.59094747
-0.64952393
0.56703346
-0.75399703
0.45638633
-0.85654424
0.27810858
-0.94384815
0.0823399
-1.0068538
-0.070760244
-1.050727
-0.1552069
-1.0851817
-0.1788776
-1.1164861
-0.16117604
-1.1575075
-0.12556464
-1.216241
-0.088754462
-1.2913663
-0.058480865
-1.380241
-0.036838008
-1.4803703
-0.022891204
-1.5897777
-0.014704515
-1.7069631
-0.010374337
-1.8309155
-0.0083899289
-1.9610931
-0.0076850543
-2.097094
-0.0075681442
-2.2388912
-0.0076203609
-2.3871452
-0.0076105738
-2.5427674
-0.0074261038
-2.7070208
-0.0070278572
-2.8814324
-0.0064208127
-3.0673356
-0.0056296164
-3.2662743
-0.0046913325
-3.4794126
-0.0036337876
-3.706376
-0.0024931474
-3.9491039
-0.0012721486
-4.2121142
-0.49286116
0.43342011
-0.4666573
0.67338068
-0.44138243
0.62528684
-0.42954029
0.139385
-0.0029083341
-0.50906295
-0.33767438
-0.51373435
-0.43005488
-0.51283563
-0.36834588
-0.50689043
-0.19228549
-0.49593865
0.024423324
-0.48434848
0.23384589
-0.47897027
0.41141066
-0.48218882
0.54993249
-0.49462392
0.6343361
-0.60416778
0.61890649
-0.70534587
0.50638173
-0.80782752
0.31192119
-0.89504673
0.087411818
-0.95362632
-0.093864106
-0.98763262
-0.19283428
-1.0168405
-0.21956678
-1.0486314
-0.19881331
-1.0830896
-0.15463425
-1.1324453
-0.10846426
-1.2003957
-0.070461978
-1.2832146
-0.043237501
-1.3776717
-0.025713919
-1.4814687
-0.01547245
-1.5930749
-0.010120852
-1.7113102
-0.0077595395
-1.8355007
-0.0070454932
-1.9654627
-0.0071073136
-2.1009452
-0.0074174982
-2.2420645
-0.0076839302
-2.3896247
-0.0077583198
-2.5445747
-0.0075854779
-2.7082078
-0.0071627266
-2.8821845
-0.0065176142
-3.067929
-0.0056879877
-3.2668409
-0.0047179571
-3.4797698
-0.0036384354
-3.7061714
-0.0024864264
-3.94826
-0.0012642386
-4.2108328
-0.49024701
-0.015572714
-0.47478314
0.43105717
-0.45419039
0.67720486
-0.43703033
0.6244608
-0.43245445
0.1316028
-0.35751992
-0.49743466
-0.4518811
-0.49940315
-0.3916217
-0.49655508
-0.21548885
-0.48923332
0.0050872656
-0.48151241
0.22361048
-0.47898841
0.41321543
-0.48520459
0.56384651
-0.50117938
0.66224536
-0.52751181
0.671659
-0.66060341
0.55968707
-0.76219871
0.35180379
-0.85212985
0.099112583
-0.91121564
-0.11484024
-0.93625208
-0.23525412
-0.94866167
-0.26565719
-0.97464359
-0.24109137
-1.0103702
-0.18849194
-1.0529895
-0.13106096
-1.1134674
-0.083800805
-1.1906393
-0.050010305
-1.2799828
-0.028312228
-1.378671
-0.015711106
-1.4850524
-0.0092227772
-1.5979616
-0.0064815617
-1.7165223
-0.005813551
-1.8405095
-0.0061321325
-1.9699465
-0.0067831126
-2.1047013
-0.0074030263
-2.2450458
-0.0078065227
-2.3918648
-0.0079203035
-2.546115
-0.0077349611
-2.7091561
-0.0072768457
-2.8827594
-0.0065908985
-3.0683844
-0.0057246443
-3.2672868
-0.004726912
-3.4799397
-0.0036303065
-3.705808
-0.002471755
-3.9472764
-0.0012527149
-4.2094402
-0.48072993
-0.37528972
-0.47168454
-0.028727002
-0.4573519
0.42375825
-0.44294414
0.67416881
-0.43352895
0.61721205
-0.43744567
0.12180774
-0.47177659
-0.48509403
-0.41358795
-0.48447911
-0.23787965
-0.47972431
-0.013348559
-0.47576946
0.2137015
-0.47657322
0.41539957
-0.485701
0.57874245
-0.50533329
0.69208766
-0.53615046
0.71841621
-0.57794505
0.61639842
-0.7206081
0.39753112
-0.81207832
0.11790858
-0.87516016
-0.12973645
-0.89965736
-0.2774041
-0.89727683
-0.31679581
-0.90118346
-0.28619835
-0.93334339
-0.22590502
-0.97647475
-0.15691351
-1.0305241
-0.098448487
-1.1021863
-0.056971327
-1.1869767
-0.030470084
-1.2811274
-0.015200937
-1.3826974
-0.0074748343
-1.4906131
-0.0043746513
-1.6039876
-0.0038358875
-1.7223248
-0.0045168741
-1.8457365
-0.005613906
-1.9744054
-0.0066828467
-2.1082992
-0.0075000232
-2.2477993
-0.0079742525
-2.3938446
-0.0080890862
-2.5474061
-0.007871463
-2.7098906
-0.0073697938
-2.883177
-0.0066416676
-3.0687284
-0.0057411559
-3.2675721
-0.0047198451
-3.4799505
-0.0036107661
-3.7052701
-0.0024500896
-3.9461718
-0.0012380627
-4.2079685
-0.47048925
-0.48961902
-0.46535119
-0.38990841
-0.45351518
-0.042624282
-0.44101448
0.41140607
-0.43345077
0.66518386
-0.43225028
0.60367893
-0.44462735
0.11042185
-0.43454679
-0.47121345
-0.26021747
-0.46771349
-0.031140915
-0.4669566
0.20443145
-0.4715584
0.41796868
-0.4837629
0.5944736
-0.50680153
0.72356956
-0.54206603
0.76897972
-0.59048054
0.68343461
-0.64826205
0.44776371
-0.77473511
0.14132845
-0.83949933
-0.14100204
-0.86698929
-0.31761897
-0.86235907
-0.37253377
-0.84497672
-0.33584435
-0.85514602
-0.26396064
-0.89857718
-0.18529637
-0.95125976
-0.11448106
-1.0176644
-0.063879854
-1.0983725
-0.031925465
-1.1885735
-0.013693349
-1.2858519
-0.0046491691
-1.3891058
-0.001238733
-1.4976113
-0.00094402229
-1.6107571
-0.0021241681
-1.7284274
-0.0037987841
-1.8509964
-0.0054331111
-1.9787295
-0.0067640747
-2.11168
-0.0076839981
-2.2502991
-0.0081724756
-2.3955701
-0.0082572439
-2.5484562
-0.0079920981
-2.7104349
-0.007441289
-2.8834608
-0.0066709644
-3.0689443
-0.0057390979
-3.2677213
-0.0046983233
-3.4797682
-0.003581135
-3.7045879
-0.0024223149
-3.9449671
-0.0012206976
-4.2064192
-0.45727622
-0.45486423
-0.45744067
-0.50516637
-0.45017143
-0.40156686
-0.43674447
-0.056957015
-0.42670248
0.39428327
-0.42598656
0.65006616
-0.43310227
0.58379461
-0.45326731
0.097576655
-0.28336592
-0.45365002
-0.04888156
-0.45504217
0.19607851
-0.46374164
0.42111013
-0.47940357
0.61094442
-0.50571909
0.75648383
-0.5450712
0.82296112
-0.59988796
0.75630979
-0.6667543
0.52725152
-0.73161694
0.16689819
-0.80406089
-0.15158995
-0.83178948
-0.35694309
-0.83034595
-0.43080302
-0.80731868
-0.39391912
-0.79032123
-0.3037172
-0.81846204
-0.21325618
-0.87357662
-0.13167944
-0.93705778
-0.070513076
-1.013945
-0.03237129
-1.1007664
-0.010913104
-1.1943114
-0.00050308529
-1.2933043
0.0031385381
-1.3971852
0.0030407017
-1.5054729
0.0011905023
-1.617864
-0.0012234966
-1.7345862
-0.0035626542
-1.8561339
-0.0055228389
-1.982846
-0.0069853234
-2.1148012
-0.0079295465
-2.2525299
-0.0083873359
-2.3970392
-0.008418073
-2.5492861
-0.0080944253
-2.7108001
-0.0074912913
-2.8836144
-0.006679937
-3.0690539
-0.0057200192
-3.2676981
-0.0046638906
-3.4794317
-0.0035426234
-3.7037651
-0.0023892244
-3.9436802
-0.0012009948
-4.2048241
-0.43808439
-0.30815751
-0.44437547
-0.47505339
-0.44412844
-0.51886747
-0.43638208
-0.41026684
-0.42229003
-0.071433185
-0.41521779
0.37319851
-0.42035266
0.6285251
-0.43569248
0.55783222
-0.46284138
0.083401451
-0.067453651
-0.44018329
0.1887874
-0.45295362
0.42521333
-0.47262156
0.62813616
-0.5021733
0.79058135
-0.54525816
0.88005296
-0.60607206
0.83523432
-0.682319
0.61456202
-0.75806726
0.23697899
-0.80539088
-0.16287013
-0.79545867
-0.39599543
-0.79520741
-0.48837709
-0.77579916
-0.45903803
-0.74543938
-0.35152828
-0.74537804
-0.23942337
-0.79505539
-0.14822477
-0.85986276
-0.076694702
-0.93362483
-0.031465264
-1.017501
-0.0065683608
-1.1078411
0.0052128997
-1.203056
0.0089728365
-1.3025829
0.0083008278
-1.406224
0.0055742963
-1.5137028
0.0022261354
-1.6250089
-0.00098248518
-1.7406028
-0.0037045356
-1.8610509
-0.0058168652
-1.9866807
-0.0073064268
-2.1176316
-0.0082137538
-2.2544874
-0.0086066223
-2.398266
-0.0085658895
-2.5498978
-0.0081766168
-2.7110051
-0.0075200589
-2.8836602
-0.0066698223
-3.0690284
-0.0056854985
-3.267537
-0.0046179711
-3.4789183
-0.0034963384
-3.7028316
-0.0023515415
-3.9423171
-0.0011792886
-4.203184
-0.42277239
-0.087897673
-0.42242388
-0.33572807
-0.43076301
-0.49555568
-0.43179008
-0.53112148
-0.42437797
-0.41653241
-0.41093628
-0.085778454
-0.40684629
0.34944497
-0.41676171
0.6008735
-0.43983208
0.52639923
-0.47293114
0.068138456
0.18245796
-0.43910299
0.43083332
-0.46340954
0.64615606
-0.4962869
0.82554663
-0.54264663
0.93937895
-0.60855392
0.91983358
-0.69426999
0.71084428
-0.7827253
0.31637674
-0.84126302
-0.12772777
-0.84314359
-0.4355087
-0.75823196
-0.54369186
-0.74272069
-0.52546316
-0.71243686
-0.41027479
-0.68936585
-0.26878633
-0.71858819
-0.16142202
-0.7845356
-0.081753314
-0.85740069
-0.028903629
-0.93866199
-0.00034979547
-1.0262498
0.012739811
-1.1181514
0.016472285
-1.2137262
0.015015067
-1.3128913
0.011171381
-1.4156171
0.0066596266
-1.5218737
0.0023890117
-1.6319369
-0.0012458832
-1.746349
-0.0041253636
-1.865651
-0.006254947
-1.9901985
-0.0076920945
-2.120159
-0.0085168576
-2.2561753
-0.0088200976
-2.3992491
-0.0086961982
-2.5503165
-0.0082374598
-2.7110652
-0.0075281524
-2.883586
-0.0066419938
-3.0688948
-0.005637027
-3.2671983
-0.0045618917
-3.4782649
-0.0034432724
-3.7017699
-0.00230994
-3.9408871
-0.0011558378
-4.2015231
-0.42228531
0.17669592
-0.40340504
-0.11206808
-0.40596124
-0.36617374
-0.41741254
-0.51707362
-0.42066933
-0.54247839
-0.41438249
-0.4214487
-0.40313138
-0.099556248
-0.40106689
0.3235803
-0.41537889
0.56778225
-0.44544428
0.49044421
-0.48311274