/*--------------------------------*- C++ -*----------------------------------*\
| =========                 |                                                 |
| \\      /  F ield         | OpenFOAM: The Open Source CFD Toolbox           |
|  \\    /   O peration     | Version:  v2012                                 |
|   \\  /    A nd           | Website:  www.openfoam.com                      |
|    \\/     M anipulation  |                                                 |
\*---------------------------------------------------------------------------*/
FoamFile
{
    version     2.0;
    format      ascii;
    class       pointVectorField;
    location    "119.831078516937012";
    object      pointDisplacement;
}
// * * * * * * * * * * * * * * * * * * * * * * * * * * * * * * * * * * * * * //

dimensions      [0 1 0 0 0 0 0];


internalField   nonuniform List<vector> 
18840
(
(-0.9883928 -0 -0)
(-0.98825441 0 0)
(-0.98784102 0 0)
(-0.98715601 0 0)
(-0.986202 0 0)
(-0.9849808 0 0)
(-0.98349378 0 0)
(-0.98174178 0 0)
(-0.97972527 0 0)
(-0.97744427 0 0)
(-0.97489852 0 0)
(-0.97208741 0 0)
(-0.96901014 0 0)
(-0.96566561 0 0)
(-0.96205252 0 0)
(-0.95816941 0 0)
(-0.95401471 0 0)
(-0.94958692 0 0)
(-0.94488476 0 0)
(-0.93990418 0 0)
(-0.93360371 0 0)
(-0.9883928 -0 -0)
(-0.98825416 0 0)
(-0.98784013 0 0)
(-0.98715429 0 0)
(-0.98619943 0 0)
(-0.98497757 0 0)
(-0.98349018 0 0)
(-0.98173828 0 0)
(-0.97972244 0 0)
(-0.97744287 0 0)
(-0.97489941 0 0)
(-0.97209165 0 0)
(-0.96901888 0 0)
(-0.9656802 0 0)
(-0.96207447 0 0)
(-0.95820039 0 0)
(-0.95405653 0 0)
(-0.94964145 0 0)
(-0.94495376 0 0)
(-0.93999056 0 0)
(-0.93477269 0 0)
(-0.9883928 -0 -0)
(-0.98825369 0 0)
(-0.9878384 0 0)
(-0.98715075 0 0)
(-0.98619375 0 0)
(-0.98496961 0 0)
(-0.98347998 0 0)
(-0.98172604 0 0)
(-0.97970854 0 0)
(-0.97742785 0 0)
(-0.97488398 0 0)
(-0.97207671 0 0)
(-0.96900549 0 0)
(-0.96566961 0 0)
(-0.9620681 0 0)
(-0.95819987 0 0)
(-0.9540636 0 0)
(-0.94965792 0 0)
(-0.94498127 0 0)
(-0.9400318 0 0)
(-0.93475935 0 0)
(-0.9883928 -0 -0)
(-0.98825329 0 0)
(-0.98783691 0 0)
(-0.98714772 0 0)
(-0.98618894 0 0)
(-0.98496298 0 0)
(-0.98347165 0 0)
(-0.98171631 0 0)
(-0.97969787 0 0)
(-0.97741686 0 0)
(-0.97487347 0 0)
(-0.97206765 0 0)
(-0.96899904 0 0)
(-0.96566713 0 0)
(-0.96207115 0 0)
(-0.95821022 0 0)
(-0.95408326 0 0)
(-0.94968914 0 0)
(-0.94502659 0 0)
(-0.94009396 0 0)
(-0.93477807 0 0)
(-0.9883928 -0 -0)
(-0.98825293 0 0)
(-0.98783561 0 0)
(-0.98714511 0 0)
(-0.98618485 0 0)
(-0.98495743 0 0)
(-0.98346482 0 0)
(-0.98170854 0 0)
(-0.97968965 0 0)
(-0.97740886 0 0)
(-0.97486649 0 0)
(-0.97206269 0 0)
(-0.96899727 0 0)
(-0.96566992 0 0)
(-0.96208008 0 0)
(-0.95822712 0 0)
(-0.95411023 0 0)
(-0.94972858 0 0)
(-0.94508129 0 0)
(-0.940167 0 0)
(-0.93481574 0 0)
(-0.9883928 -0 -0)
(-0.98825263 0 0)
(-0.98783449 0 0)
(-0.98714284 0 0)
(-0.98618135 0 0)
(-0.98495272 0 0)
(-0.98345912 0 0)
(-0.9817022 0 0)
(-0.97968316 0 0)
(-0.97740283 0 0)
(-0.97486171 0 0)
(-0.97206006 0 0)
(-0.96899791 0 0)
(-0.96567511 0 0)
(-0.96209132 0 0)
(-0.95824614 0 0)
(-0.95413898 0 0)
(-0.94976934 0 0)
(-0.94513662 0 0)
(-0.94023976 0 0)
(-0.93485918 0 0)
(-0.9883928 -0 -0)
(-0.98825236 0 0)
(-0.98783352 0 0)
(-0.98714091 0 0)
(-0.98617833 0 0)
(-0.98494872 0 0)
(-0.9834543 0 0)
(-0.98169693 0 0)
(-0.97967783 0 0)
(-0.97739802 0 0)
(-0.97485805 0 0)
(-0.97205838 0 0)
(-0.96899912 0 0)
(-0.96568035 0 0)
(-0.96210186 0 0)
(-0.95826347 0 0)
(-0.9541648 0 0)
(-0.94980556 0 0)
(-0.94518543 0 0)
(-0.94030356 0 0)
(-0.93489881 0 0)
(-0.9883928 -0 -0)
(-0.98825213 0 0)
(-0.98783269 0 0)
(-0.98713929 0 0)
(-0.9861758 0 0)
(-0.98494537 0 0)
(-0.98345031 0 0)
(-0.98169257 0 0)
(-0.97967347 0 0)
(-0.97739409 0 0)
(-0.97485507 0 0)
(-0.97205695 0 0)
(-0.96899997 0 0)
(-0.96568432 0 0)
(-0.96210997 0 0)
(-0.95827684 0 0)
(-0.95418477 0 0)
(-0.94983358 0 0)
(-0.94522317 0 0)
(-0.94035292 0 0)
(-0.93492853 0 0)
(-0.9883928 -0 -0)
(-0.98825194 0 0)
(-0.987832 0 0)
(-0.98713795 0 0)
(-0.98617379 0 0)
(-0.9849427 0 0)
(-0.9834472 0 0)
(-0.98168919 0 0)
(-0.97967016 0 0)
(-0.97739111 0 0)
(-0.97485283 0 0)
(-0.97205583 0 0)
(-0.96900047 0 0)
(-0.96568695 0 0)
(-0.96211541 0 0)
(-0.95828582 0 0)
(-0.95419815 0 0)
(-0.94985232 0 0)
(-0.94524831 0 0)
(-0.94038581 0 0)
(-0.93494599 0 0)
(-0.9883928 -0 -0)
(-0.98825179 0 0)
(-0.98783148 0 0)
(-0.98713695 0 0)
(-0.98617232 0 0)
(-0.98494083 0 0)
(-0.98344507 0 0)
(-0.98168699 0 0)
(-0.97966809 0 0)
(-0.9773894 0 0)
(-0.9748517 0 0)
(-0.97205549 0 0)
(-0.96900115 0 0)
(-0.9656889 0 0)
(-0.96211888 0 0)
(-0.95829113 0 0)
(-0.95420565 0 0)
(-0.9498624 0 0)
(-0.94526142 0 0)
(-0.94040258 0 0)
(-0.93495149 0 0)
(-0.9883928 -0 -0)
(-0.9882514 0 0)
(-0.98783001 0 0)
(-0.98713389 0 0)
(-0.98616724 0 0)
(-0.98493343 0 0)
(-0.9834351 0 0)
(-0.98167424 0 0)
(-0.97965235 0 0)
(-0.97737047 0 0)
(-0.97482936 0 0)
(-0.97202949 0 0)
(-0.96897122 0 0)
(-0.96565472 0 0)
(-0.96208012 0 0)
(-0.95824743 0 0)
(-0.95415665 0 0)
(-0.94980774 0 0)
(-0.9452007 0 0)
(-0.94033562 0 0)
(-0.93487334 0 0)
(-0.9883928 -0 -0)
(-0.98825441 0 0)
(-0.98784102 0 0)
(-0.98715601 0 0)
(-0.986202 0 0)
(-0.9849808 0 0)
(-0.98349378 0 0)
(-0.98174178 0 0)
(-0.97972527 0 0)
(-0.97744427 0 0)
(-0.97489852 0 0)
(-0.97208741 0 0)
(-0.96901014 0 0)
(-0.96566561 0 0)
(-0.96205252 0 0)
(-0.95816941 0 0)
(-0.95401471 0 0)
(-0.94958692 0 0)
(-0.94488476 0 0)
(-0.93990418 0 0)
(-0.93360371 0 0)
(-0.9883928 -0 -0)
(-0.98825416 0 0)
(-0.98784013 0 0)
(-0.98715429 0 0)
(-0.98619943 0 0)
(-0.98497757 0 0)
(-0.98349018 0 0)
(-0.98173828 0 0)
(-0.97972244 0 0)
(-0.97744287 0 0)
(-0.97489941 0 0)
(-0.97209165 0 0)
(-0.96901888 0 0)
(-0.9656802 0 0)
(-0.96207447 0 0)
(-0.95820039 0 0)
(-0.95405653 0 0)
(-0.94964145 0 0)
(-0.94495376 0 0)
(-0.93999056 0 0)
(-0.93477269 0 0)
(-0.9883928 -0 -0)
(-0.98825369 0 0)
(-0.9878384 0 0)
(-0.98715075 0 0)
(-0.98619375 0 0)
(-0.98496961 0 0)
(-0.98347998 0 0)
(-0.98172604 0 0)
(-0.97970854 0 0)
(-0.97742785 0 0)
(-0.97488398 0 0)
(-0.97207671 0 0)
(-0.96900549 0 0)
(-0.96566961 0 0)
(-0.9620681 0 0)
(-0.95819987 0 0)
(-0.9540636 0 0)
(-0.94965792 0 0)
(-0.94498127 0 0)
(-0.9400318 0 0)
(-0.93475935 0 0)
(-0.9883928 -0 -0)
(-0.98825329 0 0)
(-0.98783691 0 0)
(-0.98714772 0 0)
(-0.98618894 0 0)
(-0.98496298 0 0)
(-0.98347165 0 0)
(-0.98171631 0 0)
(-0.97969787 0 0)
(-0.97741686 0 0)
(-0.97487347 0 0)
(-0.97206765 0 0)
(-0.96899904 0 0)
(-0.96566713 0 0)
(-0.96207115 0 0)
(-0.95821022 0 0)
(-0.95408326 0 0)
(-0.94968914 0 0)
(-0.94502659 0 0)
(-0.94009396 0 0)
(-0.93477807 0 0)
(-0.9883928 -0 -0)
(-0.98825293 0 0)
(-0.98783561 0 0)
(-0.98714511 0 0)
(-0.98618485 0 0)
(-0.98495743 0 0)
(-0.98346482 0 0)
(-0.98170854 0 0)
(-0.97968965 0 0)
(-0.97740886 0 0)
(-0.97486649 0 0)
(-0.97206269 0 0)
(-0.96899727 0 0)
(-0.96566992 0 0)
(-0.96208008 0 0)
(-0.95822712 0 0)
(-0.95411023 0 0)
(-0.94972858 0 0)
(-0.94508129 0 0)
(-0.940167 0 0)
(-0.93481574 0 0)
(-0.9883928 -0 -0)
(-0.98825263 0 0)
(-0.98783449 0 0)
(-0.98714284 0 0)
(-0.98618135 0 0)
(-0.98495272 0 0)
(-0.98345912 0 0)
(-0.9817022 0 0)
(-0.97968316 0 0)
(-0.97740283 0 0)
(-0.97486171 0 0)
(-0.97206006 0 0)
(-0.96899791 0 0)
(-0.96567511 0 0)
(-0.96209132 0 0)
(-0.95824614 0 0)
(-0.95413898 0 0)
(-0.94976934 0 0)
(-0.94513662 0 0)
(-0.94023976 0 0)
(-0.93485918 0 0)
(-0.9883928 -0 -0)
(-0.98825236 0 0)
(-0.98783352 0 0)
(-0.98714091 0 0)
(-0.98617833 0 0)
(-0.98494872 0 0)
(-0.9834543 0 0)
(-0.98169693 0 0)
(-0.97967783 0 0)
(-0.97739802 0 0)
(-0.97485805 0 0)
(-0.97205838 0 0)
(-0.96899912 0 0)
(-0.96568035 0 0)
(-0.96210186 0 0)
(-0.95826347 0 0)
(-0.9541648 0 0)
(-0.94980556 0 0)
(-0.94518543 0 0)
(-0.94030356 0 0)
(-0.93489881 0 0)
(-0.9883928 -0 -0)
(-0.98825213 0 0)
(-0.98783269 0 0)
(-0.98713929 0 0)
(-0.9861758 0 0)
(-0.98494537 0 0)
(-0.98345031 0 0)
(-0.98169257 0 0)
(-0.97967347 0 0)
(-0.97739409 0 0)
(-0.97485507 0 0)
(-0.97205695 0 0)
(-0.96899997 0 0)
(-0.96568432 0 0)
(-0.96210997 0 0)
(-0.95827684 0 0)
(-0.95418477 0 0)
(-0.94983358 0 0)
(-0.94522317 0 0)
(-0.94035292 0 0)
(-0.93492853 0 0)
(-0.9883928 -0 -0)
(-0.98825194 0 0)
(-0.987832 0 0)
(-0.98713795 0 0)
(-0.98617379 0 0)
(-0.9849427 0 0)
(-0.9834472 0 0)
(-0.98168919 0 0)
(-0.97967016 0 0)
(-0.97739111 0 0)
(-0.97485283 0 0)
(-0.97205583 0 0)
(-0.96900047 0 0)
(-0.96568695 0 0)
(-0.96211541 0 0)
(-0.95828582 0 0)
(-0.95419815 0 0)
(-0.94985232 0 0)
(-0.94524831 0 0)
(-0.94038581 0 0)
(-0.93494599 0 0)
(-0.9883928 -0 -0)
(-0.98825179 0 0)
(-0.98783148 0 0)
(-0.98713695 0 0)
(-0.98617232 0 0)
(-0.98494083 0 0)
(-0.98344507 0 0)
(-0.98168699 0 0)
(-0.97966809 0 0)
(-0.9773894 0 0)
(-0.9748517 0 0)
(-0.97205549 0 0)
(-0.96900115 0 0)
(-0.9656889 0 0)
(-0.96211888 0 0)
(-0.95829113 0 0)
(-0.95420565 0 0)
(-0.9498624 0 0)
(-0.94526142 0 0)
(-0.94040258 0 0)
(-0.93495149 0 0)
(-0.9883928 -0 -0)
(-0.9882514 0 0)
(-0.98783001 0 0)
(-0.98713389 0 0)
(-0.98616724 0 0)
(-0.98493343 0 0)
(-0.9834351 0 0)
(-0.98167424 0 0)
(-0.97965235 0 0)
(-0.97737047 0 0)
(-0.97482936 0 0)
(-0.97202949 0 0)
(-0.96897122 0 0)
(-0.96565472 0 0)
(-0.96208012 0 0)
(-0.95824743 0 0)
(-0.95415665 0 0)
(-0.94980774 0 0)
(-0.9452007 0 0)
(-0.94033562 0 0)
(-0.93487334 0 0)
(-0.9883928 -0 -0)
(-0.98825367 0 0)
(-0.98783766 0 0)
(-0.98714733 0 0)
(-0.9861846 0 0)
(-0.98495074 0 0)
(-0.98344659 0 0)
(-0.98167259 0 0)
(-0.97962884 0 0)
(-0.97731513 0 0)
(-0.97473093 0 0)
(-0.97187552 0 0)
(-0.96874794 0 0)
(-0.96534709 0 0)
(-0.96167164 0 0)
(-0.95772018 0 0)
(-0.95349116 0 0)
(-0.94898292 0 0)
(-0.94419376 0 0)
(-0.93911777 0 0)
(-0.93330214 0 0)
(-0.9883928 -0 -0)
(-0.98825362 0 0)
(-0.98783749 0 0)
(-0.98714704 0 0)
(-0.98618421 0 0)
(-0.9849503 0 0)
(-0.98344616 0 0)
(-0.98167228 0 0)
(-0.97962873 0 0)
(-0.97731532 0 0)
(-0.97473153 0 0)
(-0.97187663 0 0)
(-0.96874965 0 0)
(-0.96534946 0 0)
(-0.9616747 0 0)
(-0.95772394 0 0)
(-0.95349554 0 0)
(-0.9489878 0 0)
(-0.94419892 0 0)
(-0.93912299 0 0)
(-0.933312 0 0)
(-0.9883928 -0 -0)
(-0.98825338 0 0)
(-0.98783659 0 0)
(-0.98714515 0 0)
(-0.98618107 0 0)
(-0.9849457 0 0)
(-0.98343994 0 0)
(-0.98166431 0 0)
(-0.97961891 0 0)
(-0.97730356 0 0)
(-0.97471777 0 0)
(-0.9718608 0 0)
(-0.96873167 0 0)
(-0.96532922 0 0)
(-0.96165209 0 0)
(-0.95769878 0 0)
(-0.95346761 0 0)
(-0.94895681 0 0)
(-0.94416451 0 0)
(-0.93908487 0 0)
(-0.93328625 0 0)
(-0.9883928 -0 -0)
(-0.98825323 0 0)
(-0.98783606 0 0)
(-0.98714407 0 0)
(-0.98617935 0 0)
(-0.98494331 0 0)
(-0.98343689 0 0)
(-0.98166062 0 0)
(-0.97961465 0 0)
(-0.97729881 0 0)
(-0.97471259 0 0)
(-0.97185528 0 0)
(-0.96872585 0 0)
(-0.96532313 0 0)
(-0.96164572 0 0)
(-0.95769205 0 0)
(-0.95346038 0 0)
(-0.94894887 0 0)
(-0.94415557 0 0)
(-0.93907482 0 0)
(-0.93330062 0 0)
(-0.9883928 -0 -0)
(-0.98825318 0 0)
(-0.98783588 0 0)
(-0.98714379 0 0)
(-0.98617905 0 0)
(-0.98494312 0 0)
(-0.98343699 0 0)
(-0.98166122 0 0)
(-0.97961597 0 0)
(-0.9773011 0 0)
(-0.97471609 0 0)
(-0.9718602 0 0)
(-0.96873241 0 0)
(-0.9653315 0 0)
(-0.96165602 0 0)
(-0.95770433 0 0)
(-0.95347464 0 0)
(-0.948965 0 0)
(-0.94417334 0 0)
(-0.93909431 0 0)
(-0.93335663 0 0)
(-0.9883928 -0 -0)
(-0.98825321 0 0)
(-0.98783606 0 0)
(-0.98714429 0 0)
(-0.98618013 0 0)
(-0.9849451 0 0)
(-0.9834402 0 0)
(-0.98166605 0 0)
(-0.97962283 0 0)
(-0.97731039 0 0)
(-0.97472823 0 0)
(-0.97187559 0 0)
(-0.96875142 0 0)
(-0.96535449 0 0)
(-0.96168326 0 0)
(-0.95773608 0 0)
(-0.95351103 0 0)
(-0.94900607 0 0)
(-0.94421903 0 0)
(-0.93914485 0 0)
(-0.93345579 0 0)
(-0.9883928 -0 -0)
(-0.98825333 0 0)
(-0.98783657 0 0)
(-0.98714556 0 0)
(-0.98618258 0 0)
(-0.98494921 0 0)
(-0.9834465 0 0)
(-0.98167508 0 0)
(-0.97963518 0 0)
(-0.97732665 0 0)
(-0.974749 0 0)
(-0.97190147 0 0)
(-0.968783 0 0)
(-0.96539232 0 0)
(-0.96172787 0 0)
(-0.95778792 0 0)
(-0.95357048 0 0)
(-0.94907343 0 0)
(-0.94429445 0 0)
(-0.93922879 0 0)
(-0.93360056 0 0)
(-0.9883928 -0 -0)
(-0.98825354 0 0)
(-0.98783743 0 0)
(-0.98714758 0 0)
(-0.98618637 0 0)
(-0.98495542 0 0)
(-0.98345581 0 0)
(-0.98168825 0 0)
(-0.97965296 0 0)
(-0.97734984 0 0)
(-0.9747784 0 0)
(-0.9719379 0 0)
(-0.96882728 0 0)
(-0.96544526 0 0)
(-0.96179028 0 0)
(-0.95786058 0 0)
(-0.95365414 0 0)
(-0.94916877 0 0)
(-0.94440202 0 0)
(-0.93934946 0 0)
(-0.93379475 0 0)
(-0.9883928 -0 -0)
(-0.98825382 0 0)
(-0.98783861 0 0)
(-0.98715036 0 0)
(-0.98619149 0 0)
(-0.98496369 0 0)
(-0.98346811 0 0)
(-0.98170549 0 0)
(-0.9796761 0 0)
(-0.97737988 0 0)
(-0.97481638 0 0)
(-0.97198486 0 0)
(-0.96888432 0 0)
(-0.9655135 0 0)
(-0.96187088 0 0)
(-0.95795473 0 0)
(-0.95376307 0 0)
(-0.94929379 0 0)
(-0.94454451 0 0)
(-0.93951127 0 0)
(-0.93404404 0 0)
(-0.9883928 -0 -0)
(-0.9882542 0 0)
(-0.98784013 0 0)
(-0.98715387 0 0)
(-0.9861979 0 0)
(-0.98497397 0 0)
(-0.98348332 0 0)
(-0.9817267 0 0)
(-0.9797045 0 0)
(-0.97741666 0 0)
(-0.97486279 0 0)
(-0.97204222 0 0)
(-0.96895402 0 0)
(-0.96559698 0 0)
(-0.96196967 0 0)
(-0.95807045 0 0)
(-0.95389755 0 0)
(-0.94944914 0 0)
(-0.94472339 0 0)
(-0.93971648 0 0)
(-0.93435253 0 0)
(-0.9883928 -0 -0)
(-0.98825367 0 0)
(-0.98783766 0 0)
(-0.98714733 0 0)
(-0.9861846 0 0)
(-0.98495074 0 0)
(-0.98344659 0 0)
(-0.98167259 0 0)
(-0.97962884 0 0)
(-0.97731513 0 0)
(-0.97473093 0 0)
(-0.97187552 0 0)
(-0.96874794 0 0)
(-0.96534709 0 0)
(-0.96167164 0 0)
(-0.95772018 0 0)
(-0.95349116 0 0)
(-0.94898292 0 0)
(-0.94419376 0 0)
(-0.93911777 0 0)
(-0.93330214 0 0)
(-0.9883928 -0 -0)
(-0.98825362 0 0)
(-0.98783749 0 0)
(-0.98714704 0 0)
(-0.98618421 0 0)
(-0.9849503 0 0)
(-0.98344616 0 0)
(-0.98167228 0 0)
(-0.97962873 0 0)
(-0.97731532 0 0)
(-0.97473153 0 0)
(-0.97187663 0 0)
(-0.96874965 0 0)
(-0.96534946 0 0)
(-0.9616747 0 0)
(-0.95772394 0 0)
(-0.95349554 0 0)
(-0.9489878 0 0)
(-0.94419892 0 0)
(-0.93912299 0 0)
(-0.933312 0 0)
(-0.9883928 -0 -0)
(-0.98825338 0 0)
(-0.98783659 0 0)
(-0.98714515 0 0)
(-0.98618107 0 0)
(-0.9849457 0 0)
(-0.98343994 0 0)
(-0.98166431 0 0)
(-0.97961891 0 0)
(-0.97730356 0 0)
(-0.97471777 0 0)
(-0.9718608 0 0)
(-0.96873167 0 0)
(-0.96532922 0 0)
(-0.96165209 0 0)
(-0.95769878 0 0)
(-0.95346761 0 0)
(-0.94895681 0 0)
(-0.94416451 0 0)
(-0.93908487 0 0)
(-0.93328625 0 0)
(-0.9883928 -0 -0)
(-0.98825323 0 0)
(-0.98783606 0 0)
(-0.98714407 0 0)
(-0.98617935 0 0)
(-0.98494331 0 0)
(-0.98343689 0 0)
(-0.98166062 0 0)
(-0.97961465 0 0)
(-0.97729881 0 0)
(-0.97471259 0 0)
(-0.97185528 0 0)
(-0.96872585 0 0)
(-0.96532313 0 0)
(-0.96164572 0 0)
(-0.95769205 0 0)
(-0.95346038 0 0)
(-0.94894887 0 0)
(-0.94415557 0 0)
(-0.93907482 0 0)
(-0.93330062 0 0)
(-0.9883928 -0 -0)
(-0.98825318 0 0)
(-0.98783588 0 0)
(-0.98714379 0 0)
(-0.98617905 0 0)
(-0.98494312 0 0)
(-0.98343699 0 0)
(-0.98166122 0 0)
(-0.97961597 0 0)
(-0.9773011 0 0)
(-0.97471609 0 0)
(-0.9718602 0 0)
(-0.96873241 0 0)
(-0.9653315 0 0)
(-0.96165602 0 0)
(-0.95770433 0 0)
(-0.95347464 0 0)
(-0.948965 0 0)
(-0.94417334 0 0)
(-0.93909431 0 0)
(-0.93335663 0 0)
(-0.9883928 -0 -0)
(-0.98825321 0 0)
(-0.98783606 0 0)
(-0.98714429 0 0)
(-0.98618013 0 0)
(-0.9849451 0 0)
(-0.9834402 0 0)
(-0.98166605 0 0)
(-0.97962283 0 0)
(-0.97731039 0 0)
(-0.97472823 0 0)
(-0.97187559 0 0)
(-0.96875142 0 0)
(-0.96535449 0 0)
(-0.96168326 0 0)
(-0.95773608 0 0)
(-0.95351103 0 0)
(-0.94900607 0 0)
(-0.94421903 0 0)
(-0.93914485 0 0)
(-0.93345579 0 0)
(-0.9883928 -0 -0)
(-0.98825333 0 0)
(-0.98783657 0 0)
(-0.98714556 0 0)
(-0.98618258 0 0)
(-0.98494921 0 0)
(-0.9834465 0 0)
(-0.98167508 0 0)
(-0.97963518 0 0)
(-0.97732665 0 0)
(-0.974749 0 0)
(-0.97190147 0 0)
(-0.968783 0 0)
(-0.96539232 0 0)
(-0.96172787 0 0)
(-0.95778792 0 0)
(-0.95357048 0 0)
(-0.94907343 0 0)
(-0.94429445 0 0)
(-0.93922879 0 0)
(-0.93360056 0 0)
(-0.9883928 -0 -0)
(-0.98825354 0 0)
(-0.98783743 0 0)
(-0.98714758 0 0)
(-0.98618637 0 0)
(-0.98495542 0 0)
(-0.98345581 0 0)
(-0.98168825 0 0)
(-0.97965296 0 0)
(-0.97734984 0 0)
(-0.9747784 0 0)
(-0.9719379 0 0)
(-0.96882728 0 0)
(-0.96544526 0 0)
(-0.96179028 0 0)
(-0.95786058 0 0)
(-0.95365414 0 0)
(-0.94916877 0 0)
(-0.94440202 0 0)
(-0.93934946 0 0)
(-0.93379475 0 0)
(-0.9883928 -0 -0)
(-0.98825382 0 0)
(-0.98783861 0 0)
(-0.98715036 0 0)
(-0.98619149 0 0)
(-0.98496369 0 0)
(-0.98346811 0 0)
(-0.98170549 0 0)
(-0.9796761 0 0)
(-0.97737988 0 0)
(-0.97481638 0 0)
(-0.97198486 0 0)
(-0.96888432 0 0)
(-0.9655135 0 0)
(-0.96187088 0 0)
(-0.95795473 0 0)
(-0.95376307 0 0)
(-0.94929379 0 0)
(-0.94454451 0 0)
(-0.93951127 0 0)
(-0.93404404 0 0)
(-0.9883928 -0 -0)
(-0.9882542 0 0)
(-0.98784013 0 0)
(-0.98715387 0 0)
(-0.9861979 0 0)
(-0.98497397 0 0)
(-0.98348332 0 0)
(-0.9817267 0 0)
(-0.9797045 0 0)
(-0.97741666 0 0)
(-0.97486279 0 0)
(-0.97204222 0 0)
(-0.96895402 0 0)
(-0.96559698 0 0)
(-0.96196967 0 0)
(-0.95807045 0 0)
(-0.95389755 0 0)
(-0.94944914 0 0)
(-0.94472339 0 0)
(-0.93971648 0 0)
(-0.93435253 0 0)
(-0.92617122 0 0)
(-0.9181462 0 0)
(-0.90968321 0 0)
(-0.90079433 0 0)
(-0.89148981 0 0)
(-0.88178552 0 0)
(-0.8717032 0 0)
(-0.86126314 0 0)
(-0.85048089 0 0)
(-0.83937154 0 0)
(-0.82795308 0 0)
(-0.81624291 0 0)
(-0.80425473 0 0)
(-0.79199798 0 0)
(-0.7794805 0 0)
(-0.76670791 0 0)
(-0.75368523 0 0)
(-0.74041348 0 0)
(-0.72687925 0 0)
(-0.71307396 0 0)
(-0.69899586 0 0)
(-0.6846471 0 0)
(-0.67002582 0 0)
(-0.65512135 0 0)
(-0.63990729 0 0)
(-0.62435333 0 0)
(-0.60843757 0 0)
(-0.59213484 0 0)
(-0.57540968 0 0)
(-0.55821805 0 0)
(-0.54051593 0 0)
(-0.52223119 0 0)
(-0.50331611 0 0)
(-0.48377648 0 0)
(-0.46355862 0 0)
(-0.44253226 0 0)
(-0.42062154 0 0)
(-0.39784215 0 0)
(-0.37408734 0 0)
(-0.34916958 0 0)
(-0.32304945 0 0)
(-0.29559227 0 0)
(-0.26654825 0 0)
(-0.2357334 0 0)
(-0.20291367 0 0)
(-0.16781083 0 0)
(-0.13021634 0 0)
(-0.089931715 0 0)
(-0.046625805 0 0)
(0 0 0)
(-0.92619597 0 0)
(-0.91819034 0 0)
(-0.90974476 0 0)
(-0.90087092 0 0)
(-0.89157863 0 0)
(-0.88188399 0 0)
(-0.87180906 0 0)
(-0.86137436 0 0)
(-0.85059548 0 0)
(-0.83948745 0 0)
(-0.82806824 0 0)
(-0.8163553 0 0)
(-0.8043626 0 0)
(-0.79210012 0 0)
(-0.77957612 0 0)
(-0.7667964 0 0)
(-0.75376584 0 0)
(-0.74048569 0 0)
(-0.72694409 0 0)
(-0.71313207 0 0)
(-0.69904748 0 0)
(-0.68469222 0 0)
(-0.67006464 0 0)
(-0.65515408 0 0)
(-0.63993452 0 0)
(-0.62437564 0 0)
(-0.60845551 0 0)
(-0.59214864 0 0)
(-0.57541853 0 0)
(-0.55822329 0 0)
(-0.54051827 0 0)
(-0.52223163 0 0)
(-0.50331478 0 0)
(-0.4837733 0 0)
(-0.46355427 0 0)
(-0.44252745 0 0)
(-0.42061641 0 0)
(-0.39783857 0 0)
(-0.37408795 0 0)
(-0.34917297 0 0)
(-0.32305578 0 0)
(-0.29560153 0 0)
(-0.26655863 0 0)
(-0.23574389 0 0)
(-0.20292275 0 0)
(-0.16781754 0 0)
(-0.13022103 0 0)
(-0.089935111 0 0)
(-0.046627795 0 0)
(0 0 0)
(-0.92621433 0 0)
(-0.91826619 0 0)
(-0.90987412 0 0)
(-0.90104905 0 0)
(-0.89180044 0 0)
(-0.88214412 0 0)
(-0.87210233 0 0)
(-0.86169609 0 0)
(-0.85094113 0 0)
(-0.83985239 0 0)
(-0.82844775 0 0)
(-0.81674514 0 0)
(-0.80475919 0 0)
(-0.79250023 0 0)
(-0.77997666 0 0)
(-0.76719515 0 0)
(-0.75416095 0 0)
(-0.74087467 0 0)
(-0.72732651 0 0)
(-0.71350813 0 0)
(-0.69941631 0 0)
(-0.68505237 0 0)
(-0.67041565 0 0)
(-0.65549613 0 0)
(-0.64026752 0 0)
(-0.62469879 0 0)
(-0.60876907 0 0)
(-0.59245342 0 0)
(-0.57571281 0 0)
(-0.55850762 0 0)
(-0.5407938 0 0)
(-0.52249878 0 0)
(-0.50357265 0 0)
(-0.48402164 0 0)
(-0.46379417 0 0)
(-0.4427591 0 0)
(-0.42083874 0 0)
(-0.39805236 0 0)
(-0.37429512 0 0)
(-0.34937083 0 0)
(-0.3232428 0 0)
(-0.2957772 0 0)
(-0.26672127 0 0)
(-0.23589117 0 0)
(-0.20305121 0 0)
(-0.16792481 0 0)
(-0.13030586 0 0)
(-0.089995077 0 0)
(-0.046659197 0 0)
(0 0 0)
(-0.92630313 0 0)
(-0.91845067 0 0)
(-0.910148 0 0)
(-0.90140502 0 0)
(-0.89223068 0 0)
(-0.88264053 0 0)
(-0.8726568 0 0)
(-0.86230078 0 0)
(-0.85158876 0 0)
(-0.84053583 0 0)
(-0.82915965 0 0)
(-0.81747863 0 0)
(-0.80550846 0 0)
(-0.79326014 0 0)
(-0.78074216 0 0)
(-0.767962 0 0)
(-0.75492555 0 0)
(-0.74163365 0 0)
(-0.72807784 0 0)
(-0.71425048 0 0)
(-0.70014831 0 0)
(-0.68577183 0 0)
(-0.67112104 0 0)
(-0.65618687 0 0)
(-0.64094316 0 0)
(-0.62535824 0 0)
(-0.60941197 0 0)
(-0.59308011 0 0)
(-0.57632187 0 0)
(-0.55909923 0 0)
(-0.54136829 0 0)
(-0.52305626 0 0)
(-0.5041121 0 0)
(-0.48454275 0 0)
(-0.46429749 0 0)
(-0.44324427 0 0)
(-0.42130462 0 0)
(-0.39849869 0 0)
(-0.3747219 0 0)
(-0.34977517 0 0)
(-0.32362178 0 0)
(-0.29612866 0 0)
(-0.26704399 0 0)
(-0.23618223 0 0)
(-0.20330512 0 0)
(-0.16813727 0 0)
(-0.13047403 0 0)
(-0.09011377 0 0)
(-0.046721203 0 0)
(0 0 0)
(-0.92646346 0 0)
(-0.91874435 0 0)
(-0.91056655 0 0)
(-0.90193858 0 0)
(-0.89286887 0 0)
(-0.88337248 0 0)
(-0.87347156 0 0)
(-0.86318774 0 0)
(-0.85253786 0 0)
(-0.84153733 0 0)
(-0.83020366 0 0)
(-0.81855577 0 0)
(-0.80661057 0 0)
(-0.79437983 0 0)
(-0.78187228 0 0)
(-0.76909661 0 0)
(-0.75605963 0 0)
(-0.74276197 0 0)
(-0.7291972 0 0)
(-0.71535869 0 0)
(-0.70124272 0 0)
(-0.68684913 0 0)
(-0.67217916 0 0)
(-0.657225 0 0)
(-0.64195996 0 0)
(-0.6263518 0 0)
(-0.61038177 0 0)
(-0.59402659 0 0)
(-0.57724312 0 0)
(-0.55999511 0 0)
(-0.54223932 0 0)
(-0.52390166 0 0)
(-0.50493014 0 0)
(-0.48533339 0 0)
(-0.46506135 0 0)
(-0.44398019 0 0)
(-0.4220105 0 0)
(-0.39917372 0 0)
(-0.37536531 0 0)
(-0.35038283 0 0)
(-0.32418913 0 0)
(-0.29665323 0 0)
(-0.26752482 0 0)
(-0.23661493 0 0)
(-0.20368233 0 0)
(-0.16845333 0 0)
(-0.13072445 0 0)
(-0.090290254 0 0)
(-0.04681327 0 0)
(0 0 0)
(-0.92669632 0 0)
(-0.91914762 0 0)
(-0.9111297 0 0)
(-0.90264939 0 0)
(-0.89371443 0 0)
(-0.88433948 0 0)
(-0.87454618 0 0)
(-0.86435635 0 0)
(-0.85378781 0 0)
(-0.84285666 0 0)
(-0.83157998 0 0)
(-0.81997676 0 0)
(-0.80806553 0 0)
(-0.79585932 0 0)
(-0.78336719 0 0)
(-0.77059886 0 0)
(-0.7575625 0 0)
(-0.74425918 0 0)
(-0.73068379 0 0)
(-0.71683116 0 0)
(-0.70269776 0 0)
(-0.68828275 0 0)
(-0.67358816 0 0)
(-0.65860768 0 0)
(-0.64331487 0 0)
(-0.62767684 0 0)
(-0.61167556 0 0)
(-0.59528889 0 0)
(-0.57847284 0 0)
(-0.5611917 0 0)
(-0.54340256 0 0)
(-0.52503046 0 0)
(-0.50602274 0 0)
(-0.48638958 0 0)
(-0.46608122 0 0)
(-0.44496203 0 0)
(-0.42295211 0 0)
(-0.40007359 0 0)
(-0.37622081 0 0)
(-0.35118966 0 0)
(-0.32494151 0 0)
(-0.29734735 0 0)
(-0.26816008 0 0)
(-0.23718629 0 0)
(-0.20418045 0 0)
(-0.16887073 0 0)
(-0.13105515 0 0)
(-0.090523281 0 0)
(-0.046934791 0 0)
(0 0 0)
(-0.92700355 0 0)
(-0.91966151 0 0)
(-0.91183792 0 0)
(-0.90353748 0 0)
(-0.89476735 0 0)
(-0.88554153 0 0)
(-0.87588093 0 0)
(-0.86580704 0 0)
(-0.85533871 0 0)
(-0.84449396 0 0)
(-0.83328945 0 0)
(-0.82174283 0 0)
(-0.80987441 0 0)
(-0.79769933 0 0)
(-0.78522739 0 0)
(-0.77246942 0 0)
(-0.7594346 0 0)
(-0.74612478 0 0)
(-0.73253693 0 0)
(-0.7186673 0 0)
(-0.70451215 0 0)
(-0.69007052 0 0)
(-0.67534563 0 0)
(-0.66033251 0 0)
(-0.64500482 0 0)
(-0.62932939 0 0)
(-0.61328923 0 0)
(-0.59686304 0 0)
(-0.58000604 0 0)
(-0.56268378 0 0)
(-0.54485335 0 0)
(-0.52643784 0 0)
(-0.50738432 0 0)
(-0.48770559 0 0)
(-0.46735181 0 0)
(-0.44618455 0 0)
(-0.42412367 0 0)
(-0.40119233 0 0)
(-0.3772832 0 0)
(-0.35219016 0 0)
(-0.32587348 0 0)
(-0.29820671 0 0)
(-0.26894609 0 0)
(-0.23789251 0 0)
(-0.20479592 0 0)
(-0.16938669 0 0)
(-0.13146407 0 0)
(-0.090811326 0 0)
(-0.047084891 0 0)
(0 0 0)
(-0.9273883 0 0)
(-0.9202881 0 0)
(-0.91269237 0 0)
(-0.90460331 0 0)
(-0.89602744 0 0)
(-0.88697886 0 0)
(-0.8774769 0 0)
(-0.86754078 0 0)
(-0.85719173 0 0)
(-0.846452 0 0)
(-0.83533528 0 0)
(-0.82385599 0 0)
(-0.81203854 0 0)
(-0.79990127 0 0)
(-0.7874542 0 0)
(-0.77470912 0 0)
(-0.76167656 0 0)
(-0.74835921 0 0)
(-0.73475611 0 0)
(-0.72086588 0 0)
(-0.70668461 0 0)
(-0.69221087 0 0)
(-0.677449 0 0)
(-0.66239588 0 0)
(-0.64702589 0 0)
(-0.63130559 0 0)
(-0.61521834 0 0)
(-0.59874374 0 0)
(-0.58183745 0 0)
(-0.56446578 0 0)
(-0.54658544 0 0)
(-0.52811753 0 0)
(-0.50900893 0 0)
(-0.48927528 0 0)
(-0.46886641 0 0)
(-0.44764106 0 0)
(-0.42551904 0 0)
(-0.40252397 0 0)
(-0.37854613 0 0)
(-0.35337846 0 0)
(-0.32697976 0 0)
(-0.29922607 0 0)
(-0.2698778 0 0)
(-0.2387293 0 0)
(-0.20552503 0 0)
(-0.16999783 0 0)
(-0.13194836 0 0)
(-0.091152467 0 0)
(-0.047262669 0 0)
(0 0 0)
(-0.92785563 0 0)
(-0.92103084 0 0)
(-0.91369523 0 0)
(-0.90584758 0 0)
(-0.89749575 0 0)
(-0.88865449 0 0)
(-0.87933911 0 0)
(-0.86956614 0 0)
(-0.85935726 0 0)
(-0.84873575 0 0)
(-0.83771746 0 0)
(-0.82631802 0 0)
(-0.81456202 0 0)
(-0.80246924 0 0)
(-0.7900512 0 0)
(-0.77732129 0 0)
(-0.76429077 0 0)
(-0.75096277 0 0)
(-0.73734071 0 0)
(-0.72342613 0 0)
(-0.70921387 0 0)
(-0.69470147 0 0)
(-0.67989521 0 0)
(-0.66479432 0 0)
(-0.64937383 0 0)
(-0.63360033 0 0)
(-0.61745746 0 0)
(-0.6009254 0 0)
(-0.58396038 0 0)
(-0.56653068 0 0)
(-0.54859213 0 0)
(-0.53006269 0 0)
(-0.51088913 0 0)
(-0.49109093 0 0)
(-0.47061767 0 0)
(-0.44932435 0 0)
(-0.42713052 0 0)
(-0.40406066 0 0)
(-0.38000261 0 0)
(-0.35474758 0 0)
(-0.32825357 0 0)
(-0.30039962 0 0)
(-0.27095003 0 0)
(-0.23969158 0 0)
(-0.20636315 0 0)
(-0.17070037 0 0)
(-0.13250511 0 0)
(-0.09154463 0 0)
(-0.047467027 0 0)
(0 0 0)
(-0.92841027 0 0)
(-0.92189234 0 0)
(-0.91484693 0 0)
(-0.90727218 0 0)
(-0.89917753 0 0)
(-0.89057264 0 0)
(-0.88146855 0 0)
(-0.87188281 0 0)
(-0.86183366 0 0)
(-0.85134324 0 0)
(-0.84043557 0 0)
(-0.82912933 0 0)
(-0.81744498 0 0)
(-0.80540344 0 0)
(-0.79301768 0 0)
(-0.78030158 0 0)
(-0.76727015 0 0)
(-0.75392969 0 0)
(-0.7402857 0 0)
(-0.72634262 0 0)
(-0.71209393 0 0)
(-0.69753555 0 0)
(-0.68267641 0 0)
(-0.66751877 0 0)
(-0.65203926 0 0)
(-0.63620436 0 0)
(-0.61999691 0 0)
(-0.60339765 0 0)
(-0.58636463 0 0)
(-0.56886793 0 0)
(-0.55086234 0 0)
(-0.53226238 0 0)
(-0.51301455 0 0)
(-0.49314225 0 0)
(-0.47259486 0 0)
(-0.45122369 0 0)
(-0.42894815 0 0)
(-0.40579295 0 0)
(-0.3816432 0 0)
(-0.35628898 0 0)
(-0.32968716 0 0)
(-0.30171988 0 0)
(-0.27215551 0 0)
(-0.24077307 0 0)
(-0.20730488 0 0)
(-0.17148963 0 0)
(-0.1331306 0 0)
(-0.091985348 0 0)
(-0.047696738 0 0)
(0 0 0)
(-0.92759828 0 0)
(-0.92138178 0 0)
(-0.9146285 0 0)
(-0.90734028 0 0)
(-0.89952136 0 0)
(-0.89117234 0 0)
(-0.88230566 0 0)
(-0.87294057 0 0)
(-0.8630904 0 0)
(-0.85277504 0 0)
(-0.84202247 0 0)
(-0.83085276 0 0)
(-0.81928528 0 0)
(-0.80734093 0 0)
(-0.79503333 0 0)
(-0.78237818 0 0)
(-0.76939414 0 0)
(-0.75608904 0 0)
(-0.74246955 0 0)
(-0.72854126 0 0)
(-0.71429729 0 0)
(-0.69973482 0 0)
(-0.6848647 0 0)
(-0.66969023 0 0)
(-0.65418974 0 0)
(-0.63832965 0 0)
(-0.62209239 0 0)
(-0.60545945 0 0)
(-0.58838965 0 0)
(-0.57085516 0 0)
(-0.55281119 0 0)
(-0.53416935 0 0)
(-0.5148746 0 0)
(-0.49495245 0 0)
(-0.4743548 0 0)
(-0.45292956 0 0)
(-0.43059497 0 0)
(-0.40737362 0 0)
(-0.38315158 0 0)
(-0.35771643 0 0)
(-0.33102377 0 0)
(-0.30296003 0 0)
(-0.2732961 0 0)
(-0.24180355 0 0)
(-0.20820886 0 0)
(-0.17225345 0 0)
(-0.13374148 0 0)
(-0.092421001 0 0)
(-0.047929128 0 0)
(0 0 0)
(-0.92617122 0 0)
(-0.9181462 0 0)
(-0.90968321 0 0)
(-0.90079433 0 0)
(-0.89148981 0 0)
(-0.88178552 0 0)
(-0.8717032 0 0)
(-0.86126314 0 0)
(-0.85048089 0 0)
(-0.83937154 0 0)
(-0.82795308 0 0)
(-0.81624291 0 0)
(-0.80425473 0 0)
(-0.79199798 0 0)
(-0.7794805 0 0)
(-0.76670791 0 0)
(-0.75368523 0 0)
(-0.74041348 0 0)
(-0.72687925 0 0)
(-0.71307396 0 0)
(-0.69899586 0 0)
(-0.6846471 0 0)
(-0.67002582 0 0)
(-0.65512135 0 0)
(-0.63990729 0 0)
(-0.62435333 0 0)
(-0.60843757 0 0)
(-0.59213484 0 0)
(-0.57540968 0 0)
(-0.55821805 0 0)
(-0.54051593 0 0)
(-0.52223119 0 0)
(-0.50331611 0 0)
(-0.48377648 0 0)
(-0.46355862 0 0)
(-0.44253226 0 0)
(-0.42062154 0 0)
(-0.39784215 0 0)
(-0.37408734 0 0)
(-0.34916958 0 0)
(-0.32304945 0 0)
(-0.29559227 0 0)
(-0.26654825 0 0)
(-0.2357334 0 0)
(-0.20291367 0 0)
(-0.16781083 0 0)
(-0.13021634 0 0)
(-0.089931715 0 0)
(-0.046625805 0 0)
(0 0 0)
(-0.92619597 0 0)
(-0.91819034 0 0)
(-0.90974476 0 0)
(-0.90087092 0 0)
(-0.89157863 0 0)
(-0.88188399 0 0)
(-0.87180906 0 0)
(-0.86137436 0 0)
(-0.85059548 0 0)
(-0.83948745 0 0)
(-0.82806824 0 0)
(-0.8163553 0 0)
(-0.8043626 0 0)
(-0.79210012 0 0)
(-0.77957612 0 0)
(-0.7667964 0 0)
(-0.75376584 0 0)
(-0.74048569 0 0)
(-0.72694409 0 0)
(-0.71313207 0 0)
(-0.69904748 0 0)
(-0.68469222 0 0)
(-0.67006464 0 0)
(-0.65515408 0 0)
(-0.63993452 0 0)
(-0.62437564 0 0)
(-0.60845551 0 0)
(-0.59214864 0 0)
(-0.57541853 0 0)
(-0.55822329 0 0)
(-0.54051827 0 0)
(-0.52223163 0 0)
(-0.50331478 0 0)
(-0.4837733 0 0)
(-0.46355427 0 0)
(-0.44252745 0 0)
(-0.42061641 0 0)
(-0.39783857 0 0)
(-0.37408795 0 0)
(-0.34917297 0 0)
(-0.32305578 0 0)
(-0.29560153 0 0)
(-0.26655863 0 0)
(-0.23574389 0 0)
(-0.20292275 0 0)
(-0.16781754 0 0)
(-0.13022103 0 0)
(-0.089935111 0 0)
(-0.046627795 0 0)
(0 0 0)
(-0.92621433 0 0)
(-0.91826619 0 0)
(-0.90987412 0 0)
(-0.90104905 0 0)
(-0.89180044 0 0)
(-0.88214412 0 0)
(-0.87210233 0 0)
(-0.86169609 0 0)
(-0.85094113 0 0)
(-0.83985239 0 0)
(-0.82844775 0 0)
(-0.81674514 0 0)
(-0.80475919 0 0)
(-0.79250023 0 0)
(-0.77997666 0 0)
(-0.76719515 0 0)
(-0.75416095 0 0)
(-0.74087467 0 0)
(-0.72732651 0 0)
(-0.71350813 0 0)
(-0.69941631 0 0)
(-0.68505237 0 0)
(-0.67041565 0 0)
(-0.65549613 0 0)
(-0.64026752 0 0)
(-0.62469879 0 0)
(-0.60876907 0 0)
(-0.59245342 0 0)
(-0.57571281 0 0)
(-0.55850762 0 0)
(-0.5407938 0 0)
(-0.52249878 0 0)
(-0.50357265 0 0)
(-0.48402164 0 0)
(-0.46379417 0 0)
(-0.4427591 0 0)
(-0.42083874 0 0)
(-0.39805236 0 0)
(-0.37429512 0 0)
(-0.34937083 0 0)
(-0.3232428 0 0)
(-0.2957772 0 0)
(-0.26672127 0 0)
(-0.23589117 0 0)
(-0.20305121 0 0)
(-0.16792481 0 0)
(-0.13030586 0 0)
(-0.089995077 0 0)
(-0.046659197 0 0)
(0 0 0)
(-0.92630313 0 0)
(-0.91845067 0 0)
(-0.910148 0 0)
(-0.90140502 0 0)
(-0.89223068 0 0)
(-0.88264053 0 0)
(-0.8726568 0 0)
(-0.86230078 0 0)
(-0.85158876 0 0)
(-0.84053583 0 0)
(-0.82915965 0 0)
(-0.81747863 0 0)
(-0.80550846 0 0)
(-0.79326014 0 0)
(-0.78074216 0 0)
(-0.767962 0 0)
(-0.75492555 0 0)
(-0.74163365 0 0)
(-0.72807784 0 0)
(-0.71425048 0 0)
(-0.70014831 0 0)
(-0.68577183 0 0)
(-0.67112104 0 0)
(-0.65618687 0 0)
(-0.64094316 0 0)
(-0.62535824 0 0)
(-0.60941197 0 0)
(-0.59308011 0 0)
(-0.57632187 0 0)
(-0.55909923 0 0)
(-0.54136829 0 0)
(-0.52305626 0 0)
(-0.5041121 0 0)
(-0.48454275 0 0)
(-0.46429749 0 0)
(-0.44324427 0 0)
(-0.42130462 0 0)
(-0.39849869 0 0)
(-0.3747219 0 0)
(-0.34977517 0 0)
(-0.32362178 0 0)
(-0.29612866 0 0)
(-0.26704399 0 0)
(-0.23618223 0 0)
(-0.20330512 0 0)
(-0.16813727 0 0)
(-0.13047403 0 0)
(-0.09011377 0 0)
(-0.046721203 0 0)