/*--------------------------------*- C++ -*----------------------------------*\
| =========                 |                                                 |
| \\      /  F ield         | OpenFOAM: The Open Source CFD Toolbox           |
|  \\    /   O peration     | Version:  v2012                                 |
|   \\  /    A nd           | Website:  www.openfoam.com                      |
|    \\/     M anipulation  |                                                 |
\*---------------------------------------------------------------------------*/
FoamFile
{
    version     2.0;
    format      ascii;
    class       surfaceVectorField;
    location    "119.831078516937012";
    object      Uf;
}
// * * * * * * * * * * * * * * * * * * * * * * * * * * * * * * * * * * * * * //

dimensions      [0 1 -1 0 0 0 0];


internalField   nonuniform List<vector> 
18180
(
(2.531013 0.00057717401 5.5981622e-22)
(2.5320145 -0.00038047885 -2.2665939e-22)
(2.5282596 0.00063949509 6.5518562e-22)
(2.5300236 -0.001211398 9.7107567e-22)
(2.531543 -0.0021108952 2.3093933e-22)
(2.5338924 -0.0011845069 1.9571328e-23)
(2.5243579 -0.00012613701 9.0180804e-24)
(2.5277327 -0.00266262 1.1124228e-22)
(2.5297779 -0.0044978017 4.0306484e-22)
(2.532294 -0.0038897996 1.5451488e-22)
(2.5343094 -0.0029882685 -4.7067178e-23)
(2.536452 -0.0016014208 1.8744623e-22)
(2.5193953 -0.0018535713 -3.6307555e-22)
(2.5240829 -0.0048731082 -1.1514841e-22)
(2.5273605 -0.0073327339 -1.9962051e-23)
(2.5306166 -0.0067171167 -1.1219713e-22)
(2.5328748 -0.0062075562 -3.5532823e-22)
(2.5352427 -0.0053323319 -1.9236354e-22)
(2.537353 -0.0039959944 2.7997907e-23)
(2.5397477 -0.0020042212 1.5386128e-22)
(2.5138593 -0.004654621 -3.3953974e-22)
(2.5201387 -0.0078382503 -6.9036349e-22)
(2.5242859 -0.010794886 -4.5988129e-22)
(2.5278496 -0.010266251 -3.8210685e-22)
(2.5309289 -0.009708927 -4.7546823e-22)
(2.5340462 -0.0088819596 -4.9245001e-22)
(2.5363539 -0.0081235638 -3.3983487e-22)
(2.5388829 -0.0066125783 5.8290772e-23)
(2.5411312 -0.0047036406 1.7811502e-22)
(2.5434833 -0.0023006362 8.0892375e-23)
(2.5079645 -0.0085181641 0)
(2.5157509 -0.011776116 -1.7900369e-22)
(2.5209566 -0.014897338 -5.1691401e-22)
(2.5249128 -0.014155118 -1.6196837e-22)
(2.5284501 -0.013699306 -8.4589919e-23)
(2.5320299 -0.013133747 -1.3883295e-22)
(2.5350169 -0.012391895 -1.5011998e-22)
(2.5380718 -0.010816431 -2.2858312e-22)
(2.5404557 -0.0094506119 1.4979634e-22)
(2.5429144 -0.0075299893 -8.831904e-23)
(2.5451664 -0.0052335753 -1.8437741e-22)
(2.5474859 -0.0025073768 -1.4595824e-23)
(2.5020153 -0.013382189 1.9281721e-25)
(2.5113373 -0.016455719 -5.3390012e-22)
(2.5174796 -0.019654365 -7.1830775e-22)
(2.5216724 -0.018816213 -2.1399109e-22)
(2.5257779 -0.018171023 1.3349236e-22)
(2.5299234 -0.017480965 8.0852644e-22)
(2.5333156 -0.016987728 7.6986041e-22)
(2.5366655 -0.015694477 4.2636789e-22)
(2.5395561 -0.014252472 3.587387e-22)
(2.542433 -0.0122084 -6.6721676e-23)
(2.5447858 -0.01045157 -2.9594647e-22)
(2.5471819 -0.008185407 -2.0324491e-22)
(2.5493956 -0.005585166 -4.202361e-23)
(2.5515993 -0.0026341731 -2.5786428e-23)
(2.4961966 -0.019134477 -2.2946286e-22)
(2.5069844 -0.021960755 1.3821226e-22)
(2.5140635 -0.025002312 -3.6644136e-22)
(2.5184582 -0.023884187 -7.1466797e-23)
(2.5230089 -0.023134214 4.2218886e-22)
(2.5276209 -0.022475357 3.0301126e-22)
(2.5315088 -0.021889722 9.4712004e-22)
(2.5352118 -0.020462291 8.3341433e-22)
(2.538398 -0.019268918 5.0754768e-22)
(2.5415381 -0.017541929 6.5239744e-22)
(2.5442827 -0.015665602 2.5240444e-22)
(2.5469934 -0.013208721 -7.1673933e-23)
(2.5492813 -0.011122306 2.0257697e-23)
(2.5515432 -0.0086005619 -1.6096271e-22)
(2.553656 -0.0057904071 -1.4731497e-22)
(2.5557064 -0.0026944715 1.4849076e-22)
(2.4906642 -0.025619705 -1.0294058e-22)
(2.5028475 -0.028072448 -4.9853594e-22)
(2.5108021 -0.030877176 -1.5362752e-22)
(2.515352 -0.029530453 9.7040498e-22)
(2.5203306 -0.028533849 1.2692918e-21)
(2.5253806 -0.027675524 1.2363927e-21)
(2.5296693 -0.02709296 1.1362908e-21)
(2.5336251 -0.025756065 2.123533e-22)
(2.5371645 -0.024470861 9.3768822e-23)
(2.5406161 -0.022629373 3.5206643e-22)
(2.5436071 -0.021022173 4.8622906e-22)
(2.5465487 -0.018886387 3.2147597e-22)
(2.5491337 -0.01662648 1.5957286e-23)
(2.5516299 -0.013847544 3.4564371e-23)
(2.5537988 -0.011517141 -1.3742611e-22)
(2.5558872 -0.0088119373 -1.1444005e-22)
(2.5578574 -0.0058683772 1.6685266e-22)
(2.5597152 -0.0026954958 1.5513763e-22)
(2.4854851 -0.032668913 1.1509378e-22)
(2.4989782 -0.034745744 5.9617747e-22)
(2.5077756 -0.03720502 2.3094979e-22)
(2.5124881 -0.035545505 -3.7345145e-22)
(2.5178587 -0.034319421 6.8957114e-22)
(2.5232859 -0.033285929 5.0076978e-22)
(2.5279482 -0.032535037 4.5530086e-22)
(2.5320979 -0.031069069 9.9313004e-22)
(2.5358993 -0.029833592 1.1475308e-22)
(2.5395842 -0.02815947 -9.8964164e-23)
(2.5428654 -0.026486179 1.426984e-22)
(2.5460828 -0.024240197 2.1878536e-22)
(2.5488867 -0.022245754 5.9131897e-23)
(2.5516112 -0.019768139 7.1700079e-23)
(2.5540009 -0.017209199 8.9890017e-23)
(2.5562478 -0.01417624 2.065093e-23)
(2.5582556 -0.011669468 4.4901244e-23)
(2.5601253 -0.0088454437 -3.150563e-23)
(2.5619168 -0.0058338675 -4.5487745e-23)
(2.5635533 -0.0026426033 -2.3554488e-22)
(2.4806667 -0.040116095 2.1939447e-23)
(2.4953978 -0.041830516 3.463939e-22)
(2.5050179 -0.04393231 8.2402384e-22)
(2.5099409 -0.041958642 4.5409382e-22)
(2.5157102 -0.040443248 -1.159977e-22)
(2.5214708 -0.039086462 -1.036978e-21)
(2.5264526 -0.038150139 -1.2438491e-21)
(2.5306996 -0.036609725 -7.0887967e-22)
(2.53471 -0.03527314 -2.1541636e-22)
(2.5385633 -0.033577056 -2.9429809e-22)
(2.5420597 -0.032021857 -5.0425058e-22)
(2.5455081 -0.02999899 1.6182562e-22)
(2.5485715 -0.027947914 2.3428147e-22)
(2.5515774 -0.025342876 5.8768367e-22)
(2.5541818 -0.023026786 6.0723059e-22)
(2.5566592 -0.020249143 1.4772962e-23)
(2.5588177 -0.017453991 -5.1323164e-23)
(2.560768 -0.014229683 1.1042927e-22)
(2.562573 -0.011606389 3.9174621e-23)
(2.5641873 -0.0087199635 4.3306585e-23)
(2.5657716 -0.0056967689 -1.3567643e-22)
(2.5671632 -0.002540907 -7.5571126e-22)
(2.4761903 -0.04781997 -1.3349151e-22)
(2.4920898 -0.049268203 2.0692579e-22)
(2.5025456 -0.051031168 5.3415113e-22)
(2.5077713 -0.048692278 3.0021202e-22)
(2.5139767 -0.046876815 -5.8149186e-23)
(2.5200352 -0.045111335 -7.5889877e-22)
(2.5253023 -0.043870119 -1.6417175e-21)
(2.5295492 -0.042124184 -2.2097303e-21)
(2.5336801 -0.040692003 -1.7161389e-21)
(2.5375891 -0.039081142 -1.515e-21)
(2.5412376 -0.037527622 -1.6088789e-21)
(2.5448654 -0.035582065 -4.0474977e-22)
(2.548144 -0.033701351 2.2856238e-22)
(2.5514379 -0.031336747 7.3063292e-22)
(2.554305 -0.028951926 1.0739305e-21)
(2.5570767 -0.02599947 2.9916593e-22)
(2.5594531 -0.023401586 -2.6671262e-22)
(2.5616304 -0.020364302 -1.8601253e-23)
(2.5635139 -0.017390479 1.3558995e-22)
(2.5651216 -0.01403383 9.9352466e-23)
(2.5666878 -0.011345712 1.0404604e-22)
(2.5680159 -0.0084484172 3.3853122e-22)
(2.5693699 -0.0054652997 -2.4281644e-22)
(2.5704988 -0.0023965298 -1.6255495e-21)
(2.472019 -0.055630157 -3.3262098e-22)
(2.4889944 -0.056983495 1.5203498e-22)
(2.5003198 -0.058501396 4.9081998e-22)
(2.5060167 -0.055780649 3.9194214e-22)
(2.5127321 -0.05361752 1.6802031e-22)
(2.5190838 -0.051276749 3.03041e-22)
(2.524616 -0.049639849 -3.5952756e-22)
(2.5287516 -0.047607873 7.5643156e-24)
(2.5329143 -0.045979486 -5.0753541e-22)
(2.53674 -0.044378157 -1.2702268e-21)
(2.5404328 -0.042878682 -1.0721539e-21)
(2.5441406 -0.041184197 -1.3127884e-21)
(2.547582 -0.039402076 -1.662055e-22)
(2.55115 -0.037170212 -6.050084e-22)
(2.554283 -0.034974173 -1.4119379e-22)
(2.5574164 -0.032226751 -8.9017368e-23)
(2.5600693 -0.029518256 -8.4157387e-22)
(2.5625452 -0.026230129 3.1391196e-23)
(2.5646448 -0.023387628 2.7108735e-22)
(2.5664589 -0.020134351 2.2452578e-22)
(2.5680231 -0.017035735 1.9131577e-22)
(2.569247 -0.013607593 -1.3203571e-22)
(2.5705448 -0.010901735 8.7003481e-23)
(2.571565 -0.0080433729 1.6823669e-22)
(2.5726709 -0.0051498208 -1.1377306e-21)
(2.5735261 -0.0022173726 -7.2179438e-22)
(2.4680599 -0.063406337 9.4559554e-23)
(2.4860356 -0.064921117 -1.9609568e-22)
(2.4982703 -0.066357496 2.7660003e-22)
(2.5046594 -0.063205847 9.0075598e-23)
(2.5120238 -0.060684461 -2.1036086e-23)
(2.5187021 -0.057629754 9.4549308e-22)
(2.5245139 -0.055428474 1.0818709e-21)
(2.528438 -0.052940489 2.0329469e-21)
(2.5325301 -0.051026398 2.4169043e-21)
(2.5360936 -0.049414193 1.3792825e-21)
(2.5396989 -0.047924316 6.8295686e-22)
(2.5433478 -0.046485379 6.4979752e-23)
(2.546853 -0.044917749 -1.4579775e-22)
(2.5506443 -0.043049649 -1.1860442e-21)
(2.5540257 -0.041008773 -1.6182605e-21)
(2.5575577 -0.038378465 -1.2887301e-21)
(2.5605481 -0.035828379 -1.2554272e-21)
(2.5634508 -0.032656961 -1.8641666e-22)
(2.5658332 -0.029633437 6.5020231e-22)
(2.5679246 -0.026033364 -5.1102834e-22)
(2.5696873 -0.022985591 -5.6613262e-22)
(2.5710738 -0.019571465 -1.6226974e-22)
(2.572279 -0.016403676 -4.7412683e-22)
(2.5730898 -0.012969148 -1.7792779e-23)
(2.5740976 -0.010291289 5.7628999e-23)
(2.5747983 -0.0075223316 -8.2538415e-22)
(2.5756449 -0.0047652734 -4.2626125e-22)
(2.5762243 -0.0020127723 1.5638819e-21)
(2.4641763 -0.071015366 3.5597362e-22)
(2.4830634 -0.073046985 3.0378286e-22)
(2.4962893 -0.07465189 3.7755711e-23)
(2.5037245 -0.071072447 1.2377842e-22)
(2.5119182 -0.068143886 -6.6171794e-23)
(2.5189809 -0.064106845 -1.071317e-21)
(2.5251319 -0.061229787 -1.6801305e-22)
(2.5287299 -0.058107361 5.450939e-22)
(2.532655 -0.055725767 1.4407875e-21)
(2.5357509 -0.054023939 3.2689927e-21)
(2.5391 -0.052499248 2.2969536e-21)
(2.5425021 -0.051400374 1.9634265e-21)
(2.5459324 -0.050079274 1.3966908e-21)
(2.5498572 -0.04865823 -2.7838254e-22)
(2.5534334 -0.046944893 -1.267188e-21)
(2.5573859 -0.044691457 -3.7613127e-22)
(2.5607446 -0.042285613 -4.4499438e-23)
(2.5641627 -0.039139572 -8.6128893e-22)
(2.5669468 -0.036194003 1.5762961e-22)
(2.569495 -0.032581093 9.296754e-22)
(2.5715233 -0.02926147 -1.6762036e-22)
(2.5731322 -0.025398561 -1.2238436e-21)
(2.5744962 -0.02219539 -8.5016996e-22)
(2.5754018 -0.018690322 -6.1701727e-22)
(2.5762189 -0.015513232 -1.861471e-22)
(2.5766035 -0.012140884 1.0308826e-22)
(2.5773092 -0.0095378709 -7.3420879e-22)
(2.5776894 -0.0069095918 5.731769e-23)
(2.5782743 -0.0043304159 1.9521415e-21)
(2.578586 -0.0017921082 1.6516015e-21)
(2.4602166 -0.078342624 8.7040445e-22)
(2.4799261 -0.081339929 1.6022499e-22)
(2.494231 -0.083446107 1.1415806e-22)
(2.5031219 -0.07941732 -5.3862561e-22)
(2.5124408 -0.076091109 -4.5786516e-22)
(2.5200436 -0.070930428 4.2309007e-22)
(2.526632 -0.067090851 -5.2185004e-22)
(2.5298175 -0.062950714 -1.6317175e-21)
(2.5334685 -0.05998226 -9.7634057e-22)
(2.5358153 -0.058061437 -5.7390819e-22)
(2.5387234 -0.05642458 1.1320725e-21)
(2.5416322 -0.055713638 1.4489423e-21)
(2.5447999 -0.054688486 1.1202691e-21)
(2.548719 -0.053911599 1.3289274e-22)
(2.5523976 -0.052631266 -1.4745835e-21)
(2.556764 -0.050885477 -4.5916144e-22)
(2.5605066 -0.048825785 3.9564499e-22)
(2.564541 -0.045959083 6.4202188e-22)
(2.5678079 -0.043073429 -1.2296292e-22)
(2.570942 -0.03933188 7.5825985e-22)
(2.5734044 -0.03596998 1.4994476e-21)
(2.5754498 -0.031943484 -1.1135145e-22)
(2.5770304 -0.028370394 -1.1124376e-21)
(2.5780692 -0.024324016 -3.6879881e-22)
(2.5789825 -0.021029454 -1.4049501e-22)
(2.5793735 -0.017516372 -1.1646252e-22)
(2.5797887 -0.014393545 1.5899765e-22)
(2.5797512 -0.011151637 -2.4611996e-23)
(2.5801531 -0.0086715784 7.3609763e-22)
(2.5802226 -0.0062332149 1.7256692e-21)
(2.5805529 -0.00386412 1.4372587e-21)
(2.580616 -0.0015631943 7.1289668e-22)
(2.4560088 -0.085300504 4.5370601e-22)
(2.4764867 -0.089770977 8.4559823e-22)
(2.4919704 -0.092821857 1.7165086e-22)
(2.5027969 -0.088400342 -4.6576343e-22)
(2.5135814 -0.084655591 -1.0782401e-21)
(2.521931 -0.077962133 -1.6654222e-22)
(2.529159 -0.073050013 6.7290539e-22)
(2.5318284 -0.067747714 5.6757015e-22)
(2.5351251 -0.063725138 -4.695592e-22)
(2.5364826 -0.061342001 -1.6465055e-21)
(2.5387047 -0.059536318 -1.2740542e-21)
(2.5408024 -0.059174289 -2.2254886e-21)
(2.5434609 -0.058524666 -1.973453e-21)
(2.5471658 -0.058567312 -2.2722271e-22)
(2.550807 -0.057885775 -1.1834944e-21)
(2.5555444 -0.056910307 -3.1727847e-22)
(2.5596579 -0.055347259 6.6077531e-22)
(2.5643945 -0.052896889 8.1110196e-22)
(2.5682356 -0.050269997 1.0508937e-21)
(2.5721264 -0.046615738 4.7174129e-23)
(2.575144 -0.043168407 8.8426049e-22)
(2.5777771 -0.038823692 3.9358313e-22)
(2.5797767 -0.035066863 -1.1505399e-21)
(2.5811777 -0.030708502 -1.0339227e-21)
(2.5822257 -0.026953596 -3.2712472e-22)
(2.5826335 -0.022829791 9.720926e-22)
(2.5830624 -0.019520693 1.0115294e-21)
(2.5829308 -0.016089334 1.9237243e-22)
(2.5829468 -0.013084593 1.8075008e-23)
(2.5825077 -0.010035907 -2.5655461e-22)
(2.5826142 -0.0077253316 6.6821923e-22)
(2.5823933 -0.0055191166 7.1814628e-23)
(2.5824858 -0.0033815513 -6.3521716e-22)
(2.5823271 -0.0013316784 -1.0334909e-22)
(2.4513919 -0.091819752 1.9276228e-22)
(2.4725554 -0.098389741 -1.2617876e-21)
(2.4893492 -0.10287283 -9.1459874e-22)
(2.5027078 -0.098097731 1.2431447e-21)
(2.5153607 -0.0939977 6.6138509e-22)
(2.5247394 -0.085584013 -1.9772056e-21)
(2.5328633 -0.079211013 -1.1256704e-21)
(2.5349628 -0.07199975 1.1810491e-21)
(2.5378274 -0.066862538 1.0884542e-21)
(2.5378054 -0.064016519 9.1514581e-22)
(2.5390844 -0.061652773 -1.816655e-22)
(2.5401109 -0.061705694 -5.006108e-22)
(2.5419192 -0.061352247 -1.3890907e-21)
(2.5451637 -0.062381699 4.0909399e-22)
(2.5485563 -0.062501789 2.1003737e-21)
(2.5535774 -0.062552089 1.3430561e-21)
(2.5580128 -0.061723252 2.2039127e-21)
(2.5635225 -0.059963251 -4.1860827e-23)
(2.5680136 -0.057752604 8.7946581e-23)
(2.5728297 -0.054289204 -5.4096614e-23)
(2.5765619 -0.050921896 -1.0238228e-21)
(2.5800012 -0.04641205 4.6504625e-22)
(2.5825634 -0.042388448 -7.0944477e-24)
(2.5844768 -0.037519652 3.4386422e-22)
(2.5858769 -0.033440572 4.7619307e-22)
(2.5865255 -0.028880907 -9.1145109e-22)
(2.5869806 -0.02504201 3.130301e-22)
(2.5867334 -0.020962939 5.352173e-23)
(2.5866684 -0.017723315 -7.3786927e-22)
(2.5860326 -0.01446163 1.0744424e-21)
(2.5856674 -0.011634154 8.3019552e-22)
(2.5848603 -0.0088311484 -2.1912501e-22)
(2.58469 -0.0067302474 -7.978197e-22)
(2.584207 -0.0047868882 3.2587876e-22)
(2.5840879 -0.0028926556 8.4443143e-22)
(2.5837371 -0.0011016415 -3.0164679e-22)
(2.4463211 -0.09782773 2.5117876e-22)
(2.4679529 -0.10721063 1.0915266e-21)
(2.4861772 -0.11369334 -2.770468e-22)
(2.5027447 -0.10869992 2.2601398e-21)
(2.5177692 -0.10427566 4.3520091e-21)
(2.5285252 -0.09376649 -5.8671534e-22)
(2.5378901 -0.085718787 -3.1059043e-21)
(2.5394619 -0.076324507 -1.1492107e-23)
(2.54187 -0.069385702 2.1927631e-21)
(2.5401059 -0.065404088 1.6150189e-21)
(2.540002 -0.062541395 1.4582197e-21)
(2.5394359 -0.062834736 1.4288832e-21)
(2.5401786 -0.062870893 1.1523662e-21)
(2.5426139 -0.065271431 2.3889986e-21)
(2.545518 -0.06623638 4.1451926e-21)
(2.5507093 -0.067641651 8.917404e-22)
(2.5553741 -0.067800946 1.5456329e-22)
(2.5617094 -0.067017473 -8.0288045e-23)
(2.5669104 -0.065473443 -2.246737e-21)
(2.5728308 -0.062439329 1.9944069e-22)
(2.5774344 -0.059277969 6.4732978e-23)
(2.581907 -0.054641422 -1.1585302e-22)
(2.5852386 -0.050459507 1.3095102e-21)
(2.5879016 -0.045157226 -4.8208361e-22)
(2.5897979 -0.040625354 -1.5600623e-22)
(2.5908139 -0.035392465 2.8479398e-22)
(2.5915085 -0.031111199 -1.0346071e-21)
(2.5913487 -0.026513769 1.3944006e-22)
(2.5911854 -0.022705184 -1.0928433e-22)
(2.5902996 -0.018795003 1.0623844e-22)
(2.5897564 -0.015707901 1.8386563e-21)
(2.5886583 -0.012693416 1.33721e-21)
(2.5879429 -0.010092987 3.4972005e-22)
(2.5868109 -0.0075745314 1.1633952e-21)
(2.5863902 -0.0057130487 2.2579458e-21)
(2.5856787 -0.0040498924 2.2752382e-22)
(2.5853773 -0.0024049053 -8.6895483e-22)
(2.5848663 -0.00087557579 1.1118872e-21)
(2.4406157 -0.10323215 -1.5902653e-21)
(2.4625967 -0.11618875 5.2209095e-22)
(2.4822928 -0.12537974 1.3210238e-21)
(2.5028222 -0.12030182 -1.9990281e-21)
(2.5207737 -0.11566834 3.8281571e-22)
(2.5333496 -0.10276176 8.0791706e-21)
(2.5443957 -0.092711954 3.4528962e-21)
(2.5454453 -0.080415826 -1.4913832e-21)
(2.5474195 -0.071281485 1.4673132e-21)
(2.5435975 -0.065885644 8.2310488e-22)
(2.5417734 -0.061996559 2.5523358e-22)
(2.5390394 -0.062774298 -8.982226e-22)
(2.5382879 -0.062968419 -9.6020132e-22)
(2.5396035 -0.066488006 -2.1102078e-22)
(2.5416609 -0.068848207 9.3802321e-22)
(2.5467583 -0.071984434 5.4833461e-21)
(2.5515403 -0.073401556 2.4171579e-21)
(2.5587215 -0.073963561 1.959942e-21)
(2.5646741 -0.073362143 1.7634714e-21)
(2.57188 -0.071018037 -1.524594e-21)
(2.5775208 -0.068279317 8.054139e-22)
(2.5832888 -0.06367764 4.5866666e-23)
(2.5876049 -0.059400297 -1.257771e-22)
(2.5912681 -0.053619381 1.2262916e-21)
(2.5938874 -0.048673248 -4.7441387e-22)
(2.5954955 -0.042767725 2.2679679e-22)
(2.5965526 -0.037873822 6.514281e-22)
(2.5965648 -0.032495333 -1.8437809e-21)
(2.5964966 -0.0281648 -7.4228471e-22)
(2.5955322 -0.023704219 9.3133405e-22)
(2.5947635 -0.020043385 1.1520103e-21)
(2.5932922 -0.016414085 1.1201204e-21)
(2.5923092 -0.013553305 6.3462647e-22)
(2.5908086 -0.010846329 -9.4047449e-23)
(2.5897833 -0.0085101092 6.7226343e-22)
(2.5883749 -0.0063002228 1.0426724e-21)
(2.5877355 -0.0046954328 -9.0069449e-22)
(2.5868305 -0.0033164657 -3.5751827e-21)
(2.5863722 -0.0019234403 -1.7351708e-21)
(2.5857363 -0.00065369967 -2.6708319e-22)
(2.4340696 -0.10800077 -1.7109076e-21)
(2.4561971 -0.12536778 -4.9508378e-21)
(2.477487 -0.13800251 -2.9961592e-21)
(2.502875 -0.13301621 -8.5611318e-21)
(2.5243282 -0.12834669 -1.1851172e-20)
(2.5392457 -0.11272076 -6.5512493e-21)
(2.5525374 -0.10036589 6.5557226e-22)
(2.5531546 -0.084456627 3.5811215e-21)
(2.5546679 -0.072519517 -1.1056387e-21)
(2.5483376 -0.065214953 9.4675844e-22)
(2.5445554 -0.059875057 3.2693515e-22)
(2.5391513 -0.060778495 1.0428027e-21)
(2.5362956 -0.061386982 -4.0039517e-23)
(2.5360474 -0.066677677 -5.8247333e-21)
(2.536931 -0.07009453 -5.1797222e-21)
(2.5417115 -0.075243326 -2.5515183e-22)
(2.546337 -0.078357652 4.0438176e-21)
(2.554338 -0.080639039 2.9255671e-21)
(2.5610483 -0.08133228 2.4952538e-21)
(2.5697097 -0.080016119 4.8649772e-21)
(2.5765543 -0.077955845 1.787123e-21)
(2.5839035 -0.073568962 2.301045e-21)
(2.5894519 -0.069340741 1.6021932e-21)
(2.5944207 -0.063137686 -1.6187335e-21)
(2.5980032 -0.057758586 -3.5718239e-22)
(2.6004387 -0.051048866 1.1233559e-21)
(2.6020747 -0.045510291 1.8126847e-21)
(2.6024438 -0.039287294 5.2019711e-22)
(2.6025548 -0.034235382 -1.8510426e-21)
(2.6015437 -0.028955866 -3.2196673e-22)
(2.6007127 -0.02474122 1.2739464e-21)
(2.5990047 -0.020580403 1.2496374e-21)
(2.5976788 -0.017174276 1.2208021e-21)
(2.5957032 -0.013914316 -2.3709065e-21)
(2.5943362 -0.011337786 -3.1051602e-21)
(2.5925035 -0.0089775103 -8.3979779e-22)
(2.5912136 -0.0069288268 -5.0965112e-22)
(2.589579 -0.0050372218 -8.6292543e-22)
(2.5887538 -0.0036932362 -3.3992687e-21)
(2.5876883 -0.0025910323 -1.7830756e-21)
(2.5871041 -0.0014468206 -3.9091232e-22)
(2.5863667 -0.00043442342 -2.3159617e-21)
(2.4266584 -0.11207729 8.5588916e-22)
(2.4485498 -0.13477345 -9.7225483e-22)
(2.471394 -0.1516536 -4.0343808e-21)
(2.5027809 -0.14701964 1.9717356e-21)
(2.5283913 -0.14245354 -3.2354796e-21)
(2.546216 -0.12382928 -1.3443416e-20)
(2.5624411 -0.10886644 -8.4412509e-21)
(2.5627683 -0.088536211 -1.4027658e-21)
(2.5638811 -0.073093171 1.3442474e-21)
(2.554594 -0.063307199 -8.0444869e-22)
(2.5484516 -0.056073898 1.1453063e-21)
(2.5398158 -0.057036576 8.3812727e-24)
(2.5343077 -0.057775432 6.8561507e-22)
(2.5318505 -0.064757937 -1.7638205e-21)
(2.5311385 -0.069728659 -7.2660239e-21)
(2.5353678 -0.077362206 -8.9507349e-21)
(2.5395848 -0.082406552 -4.3288124e-21)
(2.5483291 -0.086922213 -1.0427146e-20)
(2.5557645 -0.089275749 -1.1703362e-20)
(2.5660483 -0.089383246 -3.4341277e-21)
(2.5742515 -0.088325187 -1.2753762e-21)
(2.5834887 -0.084409014 3.4079707e-21)
(2.5905391 -0.080410521 3.9192641e-21)
(2.5971621 -0.073846744 1.7195004e-21)
(2.6020001 -0.06808008 -1.3350308e-21)
(2.6055647 -0.060507156 1.1348614e-21)
(2.6080077 -0.054220011 2.5634324e-21)
(2.608917 -0.046947879 6.5037613e-22)
(2.6093865 -0.041083272 -5.9394542e-22)
(2.6084544 -0.034879639 -1.9436221e-21)
(2.6075951 -0.029901086 -4.9339083e-22)
(2.6056274 -0.024956021 1.9999964e-21)
(2.6040883 -0.021012848 1.9874705e-21)
(2.6017433 -0.017283823 7.378278e-22)
(2.5999358 -0.014217783 -2.6771412e-21)
(2.5975542 -0.011385273 -1.9238642e-21)
(2.5958692 -0.0091311222 2.42711e-22)
(2.5937775 -0.0071349987 -1.5114079e-21)
(2.5922703 -0.005383635 -1.8612429e-21)
(2.5904582 -0.003807687 -7.684479e-22)
(2.5894783 -0.0027187947 8.0312069e-22)
(2.5882827 -0.0018808819 2.1019698e-21)
(2.5876109 -0.00097498948 3.1248844e-22)
(2.5867761 -0.00019370609 -7.6710782e-22)
(2.4183836 -0.11540918 6.6828257e-22)
(2.4396036 -0.14435094 3.2217217e-21)
(2.4637751 -0.16637712 1.5223261e-21)
(2.5022813 -0.1623755 5.5466043e-21)
(2.5329126 -0.15811403 1.1379995e-20)
(2.5542351 -0.13625516 2.3461385e-20)
(2.5741875 -0.11841167 1.4157744e-20)
(2.5744624 -0.092751762 -3.8863413e-21)
(2.5752672 -0.073014414 2.8562539e-21)
(2.5625705 -0.060110465 2.0769787e-21)
(2.5536382 -0.050450215 4.8394305e-23)
(2.5411091 -0.051231132 -1.8299939e-21)
(2.5324055 -0.051934363 -2.9473387e-21)
(2.5271913 -0.06086844 -3.3900888e-21)
(2.5242424 -0.067503198 -5.7717665e-21)
(2.5275042 -0.077974673 -4.702348e-21)
(2.5310819 -0.085332894 -6.2590374e-21)
(2.5404757 -0.092565859 -3.7171007e-21)
(2.5485598 -0.097063479 -9.4910797e-21)
(2.5606049 -0.099058496 -1.5676309e-20)
(2.5703176 -0.099382882 -7.8913916e-21)
(2.5817622 -0.096259735 -4.4130958e-21)
(2.5906035 -0.092735943 -1.5117933e-23)
(2.5992774 -0.085937222 2.8271876e-21)
(2.6057043 -0.079850488 7.2319703e-22)
(2.6107549 -0.071338678 -1.6739128e-21)
(2.6142968 -0.064238583 6.6660527e-22)
(2.6159971 -0.055752389 2.6853886e-21)
(2.6170055 -0.048897919 8.7188308e-22)
(2.6162564 -0.041520021 -1.3294511e-21)
(2.615492 -0.035647874 -2.6191718e-21)
(2.6133234 -0.029799461 -1.1585304e-21)
(2.6115524 -0.025119403 1.1977398e-21)
(2.6087662 -0.02070413 1.8059145e-21)
(2.6066179 -0.017159821 6.163541e-22)
(2.6037712 -0.013951341 -1.7295658e-21)
(2.6015745 -0.011282329 -1.0011074e-21)
(2.5988903 -0.0089033507 2.8112549e-21)
(2.5969562 -0.006989106 1.1842081e-21)
(2.5946748 -0.0053553282 -2.1018507e-21)
(2.5929968 -0.0038988934 -1.0684793e-21)
(2.5910511 -0.0026264714 -5.4185451e-22)
(2.589945 -0.0017858321 6.7130306e-22)
(2.5886484 -0.0011998173 1.242324e-21)
(2.5878873 -0.00050347835 2.3155209e-22)
(2.5869799 6.3399925e-05 6.5480288e-22)
(2.4091525 -0.11795845 3.4890456e-22)
(2.4293752 -0.15415645 -3.5186496e-22)
(2.4546281 -0.18219123 2.0553948e-21)
(2.5013213 -0.17913754 -4.7767071e-21)
(2.5378109 -0.17547588 -1.0498138e-21)
(2.563285 -0.15015441 4.2656462e-21)
(2.5878271 -0.12919313 1.5617104e-20)
(2.5883536 -0.097195939 9.3379433e-21)
(2.589 -0.072296019 -7.8485702e-21)
(2.5724291 -0.055598483 2.0452972e-21)
(2.5602691 -0.042879358 1.2938107e-21)
(2.5431542 -0.04320111 6.5412241e-22)
(2.5306182 -0.043676178 -1.1173585e-21)
(2.5220232 -0.054712299 3.9831569e-21)
(2.5162665 -0.063156585 3.6539764e-21)
(2.5181281 -0.076906062 2.825839e-21)
(2.5206716 -0.086986456 3.9662958e-21)
(2.5305792 -0.097462996 7.3523101e-21)
(2.539205 -0.1045601 9.9667816e-21)
(2.5531105 -0.10896313 2.6818131e-21)
(2.5644565 -0.11111163 -3.0118038e-21)
(2.5784296 -0.10917001 -8.7752814e-21)
(2.589362 -0.10643128 -5.4890771e-21)
(2.6005249 -0.099580148 -1.2547946e-21)
(2.6089197 -0.093294123 1.4234243e-21)
(2.6158823 -0.083807129 -4.0427332e-22)
(2.6208685 -0.075829517 -2.6931372e-21)
(2.6236652 -0.065920607 -2.5424456e-22)
(2.6254582 -0.057910418 1.6479665e-21)
(2.6250529 -0.049116567 8.4657483e-22)
(2.6244887 -0.042126112 -1.2437216e-21)
(2.6221312 -0.035115329 -1.1349311e-21)
(2.6201872 -0.029556701 2.7269308e-22)
(2.6169567 -0.024349875 1.6234466e-21)
(2.6144018 -0.020157123 2.2056414e-21)
(2.6109824 -0.016405537 -1.5566521e-21)
(2.6083521 -0.013346952 -3.8132499e-21)
(2.605149 -0.010700319 -3.0065252e-21)
(2.6026607 -0.0084548944 5.8251404e-22)
(2.5997721 -0.0065264797 2.0575062e-21)
(2.5976548 -0.0049513869 -1.0478183e-21)
(2.5952447 -0.0036632296 1.3821818e-22)
(2.5934377 -0.0024897571 6.5477415e-22)
(2.5913938 -0.0015025732 -4.8896643e-22)
(2.5901906 -0.00090077841 3.5988778e-23)
(2.5888219 -0.00055080203 3.1632959e-23)
(2.5879731 -5.0226353e-05 4.3101033e-22)
(2.5869996 0.00029057166 2.411119e-21)
(2.3983956 -0.11976835 3.8020999e-21)
(2.4179433 -0.16398567 7.384117e-22)
(2.4440829 -0.19902361 7.9326114e-23)
(2.4996268 -0.19731936 8.0521065e-23)
(2.5427805 -0.19459338 -6.4276805e-21)
(2.5731561 -0.16569842 -2.4438425e-20)
(2.6032057 -0.14138443 -1.9738377e-20)
(2.6045416 -0.10199059 9.4840543e-21)
(2.605215 -0.070960075 3.4389597e-21)
(2.5842976 -0.049690774 -6.540229e-21)
(2.5684546 -0.033253424 2.864148e-21)
(2.5460263 -0.032880342 -2.2256848e-23)
(2.5289982 -0.032839706 -6.5113301e-22)
(2.516372 -0.046081754 4.3969021e-21)
(2.5071695 -0.056492981 9.3066742e-21)
(2.5071731 -0.07396696 7.8520284e-21)
(2.5082512 -0.087168679 7.1277031e-21)
(2.5184654 -0.10142936 5.4826336e-21)
(2.5274876 -0.11163032 8.7176512e-21)
(2.5433197 -0.1190004 1.6212381e-20)
(2.556384 -0.12346907 9.3945409e-21)
(2.5731948 -0.12317297 -3.538901e-22)
(2.5865187 -0.12159111 -5.7850584e-21)
(2.6006421 -0.11494366 -5.2948501e-22)
(2.6114224 -0.10863615 3.5612488e-21)
(2.6207921 -0.098174239 7.4394268e-23)
(2.6276345 -0.089284879 -1.6808668e-21)
(2.6319121 -0.077748724 -4.6660886e-21)
(2.6347896 -0.068388886 -2.3806682e-21)
(2.6349281 -0.057867292 3.0020671e-21)
(2.634725 -0.049518289 2.2589379e-21)
(2.6322266 -0.041070858 -3.1836901e-23)
(2.6301263 -0.034396281 8.9064477e-23)
(2.6263755 -0.028168184 1.6317515e-21)
(2.6234125 -0.023199848 2.9332999e-21)
(2.6193706 -0.01883591 1.3213631e-21)
(2.6162058 -0.01526185 -2.2616756e-21)
(2.6123573 -0.012237817 -2.7934288e-21)
(2.6093826 -0.0097067678 -2.0131264e-21)
(2.6059622 -0.0076192956 5.7833002e-22)
(2.6032754 -0.0057962001 1.9778845e-21)
(2.6002678 -0.0042925757 -1.7569538e-22)
(2.5980251 -0.0030417897 9.6172743e-22)
(2.5955369 -0.0020722826 2.9581425e-21)
(2.5936343 -0.0011648834 1.9063103e-21)
(2.5915206 -0.00044157998 5.3778844e-22)
(2.5902459 -6.3630484e-05 5.4160788e-22)
(2.5888293 7.8029701e-05 3.4282272e-23)
(2.5879129 0.00036124345 1.9079817e-21)
(2.5868644 0.00048776263 9.7599014e-22)
(2.3849496 -0.12096181 -1.44343e-21)
(2.404735 -0.17392763 3.4548982e-21)
(2.4320412 -0.21663566 5.4418323e-22)
(2.4965509 -0.21662321 1.1130318e-20)
(2.5468906 -0.21524474 1.1289358e-20)
(2.5826113 -0.18271245 1.6125295e-20)
(2.6191076 -0.15502184 -6.4063693e-22)
(2.6225085 -0.10720531 -1.384206e-20)
(2.623636 -0.069033305 1.3964784e-20)
(2.5982787 -0.042389672 1.6212798e-20)
(2.5782797 -0.021488112 6.9308805e-21)
(2.5497842 -0.020086582 6.1952494e-22)
(2.5275869 -0.019303875 -2.1540513e-21)
(2.5102512 -0.034886741 -2.5925935e-21)
(2.496923 -0.047347031 2.1589496e-21)
(2.4945817 -0.068968494 -5.3131341e-21)
(2.4937364 -0.08571069 -6.9075342e-21)
(2.504016 -0.10431546 5.2002621e-21)
(2.51323 -0.11813916 3.6073489e-21)
(2.5310051 -0.12906434 1.8566779e-21)
(2.5458413 -0.13638513 8.8703527e-21)
(2.5657699 -0.13826268 5.0387403e-21)
(2.5817729 -0.13828107 -4.2755706e-21)
(2.5993488 -0.13217421 -1.6420274e-21)
(2.6129627 -0.1260913 3.4053144e-21)
(2.6253036 -0.11471313 4.3156559e-21)
(2.63448 -0.10491578 1.0171378e-21)
(2.6407086 -0.09154943 -2.4837269e-21)
(2.6450478 -0.080643807 -5.3283081e-21)
(2.6460014 -0.068047352 -3.5537439e-21)
(2.6463607 -0.058043857 1.5403133e-21)
(2.64378 -0.047797536 3.5538373e-21)
(2.6415761 -0.039734292 1.3989326e-21)
(2.6372393 -0.032228001 3.8236748e-23)
(2.6337995 -0.026270955 1.501406e-21)
(2.6289902 -0.021126032 1.5150093e-22)
(2.6252435 -0.016945417 -1.4206585e-21)
(2.6206746 -0.013524085 -7.4090273e-22)
(2.6170933 -0.010633608 -1.2234144e-21)
(2.6130128 -0.0083347868 1.3517889e-22)
(2.6098256 -0.0063309829 2.625357e-21)
(2.6063081 -0.0047649755 3.2512673e-21)
(2.6035043 -0.0033408139 1.226221e-21)
(2.6004454 -0.0022209729 -4.9176556e-22)
(2.5981254 -0.0012694099 1.3814983e-21)
(2.5955971 -0.00058631472 1.6849841e-21)
(2.5936255 8.7595954e-05 3.8326402e-22)
(2.5914578 0.00055510499 4.8121385e-22)
(2.590137 0.00074089641 0)
(2.5886789 0.00068562081 -7.4151013e-23)
(2.587703 0.0007528873 -9.872483e-22)
(2.5865925 0.00068109178 -1.8519417e-21)
(2.367422 -0.12181538 -8.1917495e-21)
(2.3892082 -0.18370338 -4.3659956e-21)
(2.4183805 -0.23477732 2.3810072e-22)
(2.4913264 -0.2367875 -1.5181865e-20)
(2.5490006 -0.23700846 -5.3660219e-21)
(2.5900754 -0.20100584 8.0758922e-21)
(2.6335189 -0.16981521 1.2615107e-20)
(2.6398617 -0.1127514 -1.2122164e-21)
(2.6425557 -0.066536005 -1.3742675e-20)
(2.6138224 -0.033603628 1.0986773e-20)
(2.5895226 -0.0075149604 1.3076229e-20)
(2.5544409 -0.0048197538 4.9377102e-21)
(2.5263923 -0.002999551 -1.0804559e-21)
(2.5037013 -0.02094435 -1.5443397e-23)
(2.4855218 -0.035596224 -4.0557468e-22)
(2.480317 -0.06180287 1.5702138e-20)
(2.4770651 -0.082480136 8.8110384e-21)
(2.4871403 -0.10597873 -2.5834157e-21)
(2.4963097 -0.12395364 8.9655122e-21)
(2.5159915 -0.13903849 -4.3907336e-21)
(2.5326074 -0.14977281 -6.1722306e-21)
(2.5558918 -0.15440827 5.1463499e-21)
(2.5748324 -0.15653009 1.4557713e-21)
(2.5963548 -0.15138538 -7.5264051e-21)
(2.6132679 -0.14585034 -5.0758002e-21)
(2.6292059 -0.13369003 2.8278492e-21)
(2.6412587 -0.12304248 3.6853898e-21)
(2.6500056 -0.10766648 4.1082525e-22)
(2.6562672 -0.095023138 -2.9273253e-21)
(2.6583899 -0.079961691 -4.0292505e-21)
(2.6595839 -0.067968748 -2.3179663e-21)
(2.6570245 -0.055492645 2.039716e-21)
(2.6547827 -0.045692531 3.9578304e-21)
(2.6497694 -0.036560447 7.8831636e-23)
(2.6457949 -0.02935759 -1.2337231e-21)
(2.6400603 -0.023236342 -3.3442124e-22)
(2.6355953 -0.018291541 -1.6426116e-21)
(2.6301216 -0.014384854 -2.6233139e-21)
(2.625861 -0.01109294 -1.9961945e-21)
(2.6210432 -0.0086154243 -7.1063485e-22)