/*--------------------------------*- C++ -*----------------------------------*\
| =========                 |                                                 |
| \\      /  F ield         | OpenFOAM: The Open Source CFD Toolbox           |
|  \\    /   O peration     | Version:  v2012                                 |
|   \\  /    A nd           | Website:  www.openfoam.com                      |
|    \\/     M anipulation  |                                                 |
\*---------------------------------------------------------------------------*/
FoamFile
{
    version     2.0;
    format      ascii;
    class       volVectorField;
    location    "20.525825016836894";
    object      cellDisplacement;
}
// * * * * * * * * * * * * * * * * * * * * * * * * * * * * * * * * * * * * * //

dimensions      [0 1 0 0 0 0 0];


internalField   nonuniform List<vector> 
9200
(
(0.017013298 0 0)
(0.017099338 0 0)
(0.049497117 0 0)
(0.017185607 0 0)
(0.049641312 0 0)
(0.079841059 0 0)
(0.017339112 0 0)
(0.049954531 0 0)
(0.080123182 0 0)
(0.10816225 0 0)
(0.017519049 0 0)
(0.050364744 0 0)
(0.080578217 0 0)
(0.10850635 0 0)
(0.13452274 0 0)
(0.017717112 0 0)
(0.050847578 0 0)
(0.081188978 0 0)
(0.10912213 0 0)
(0.13497344 0 0)
(0.15901219 0 0)
(0.017921016 0 0)
(0.051388242 0 0)
(0.081943459 0 0)
(0.10994086 0 0)
(0.13570921 0 0)
(0.15951542 0 0)
(0.18171602 0 0)
(0.018125349 0 0)
(0.051950668 0 0)
(0.082774757 0 0)
(0.11091105 0 0)
(0.13668779 0 0)
(0.16040356 0 0)
(0.18231766 0 0)
(0.20272379 0 0)
(0.018324481 0 0)
(0.052518804 0 0)
(0.083651045 0 0)
(0.11198759 0 0)
(0.137837 0 0)
(0.16153113 0 0)
(0.18330416 0 0)
(0.20337542 0 0)
(0.22214123 0 0)
(0.018515484 0 0)
(0.05307507 0 0)
(0.084535737 0 0)
(0.11313261 0 0)
(0.1391452 0 0)
(0.1628858 0 0)
(0.18459743 0 0)
(0.20450085 0 0)
(0.2228708 0 0)
(0.24004135 0 0)
(0.018696297 0 0)
(0.053612631 0 0)
(0.085410468 0 0)
(0.11429637 0 0)
(0.14051985 0 0)
(0.16436036 0 0)
(0.18608626 0 0)
(0.20592996 0 0)
(0.22408205 0 0)
(0.24080964 0 0)
(0.25653707 0 0)
(0.018865215 0 0)
(0.054122573 0 0)
(0.086255558 0 0)
(0.1154486 0 0)
(0.1419283 0 0)
(0.16594346 0 0)
(0.18775415 0 0)
(0.20759866 0 0)
(0.22565014 0 0)
(0.24213838 0 0)
(0.25736825 0 0)
(0.27169791 0 0)
(0.019022308 0 0)
(0.054603356 0 0)
(0.087064524 0 0)
(0.1165675 0 0)
(0.14332492 0 0)
(0.16756323 0 0)
(0.18951456 0 0)
(0.20940628 0 0)
(0.22743498 0 0)
(0.24381212 0 0)
(0.25875542 0 0)
(0.27255719 0 0)
(0.28564073 0 0)
(0.019166398 0 0)
(0.055050396 0 0)
(0.087827198 0 0)
(0.11763817 0 0)
(0.14468464 0 0)
(0.16917664 0 0)
(0.19131549 0 0)
(0.2113101 0 0)
(0.22938829 0 0)
(0.24574332 0 0)
(0.260536 0 0)
(0.27403161 0 0)
(0.28654293 0 0)
(0.29842203 0 0)
(0.0192987 0 0)
(0.055465251 0 0)
(0.088543611 0 0)
(0.11865279 0 0)
(0.14598849 0 0)
(0.17075021 0 0)
(0.19311757 0 0)
(0.21327468 0 0)
(0.23143765 0 0)
(0.2478106 0 0)
(0.26255895 0 0)
(0.27589603 0 0)
(0.28805608 0 0)
(0.29933999 0 0)
(0.31015369 0 0)
(0.019419168 0 0)
(0.055846427 0 0)
(0.089208673 0 0)
(0.11960483 0 0)
(0.1472248 0 0)
(0.17226208 0 0)
(0.19488095 0 0)
(0.21524053 0 0)
(0.23353554 0 0)
(0.24997542 0 0)
(0.26475112 0 0)
(0.27803196 0 0)
(0.28999544 0 0)
(0.30091901 0 0)
(0.31110126 0 0)
(0.32088526 0 0)
(0.019528451 0 0)
(0.056195712 0 0)
(0.089825159 0 0)
(0.12049346 0 0)
(0.14838803 0 0)
(0.17369931 0 0)
(0.19657993 0 0)
(0.21717023 0 0)
(0.23564072 0 0)
(0.2521886 0 0)
(0.26702391 0 0)
(0.2803109 0 0)
(0.29219582 0 0)
(0.30291189 0 0)
(0.31269732 0 0)
(0.32184025 0 0)
(0.33072211 0 0)
(0.019627211 0 0)
(0.056513313 0 0)
(0.090391216 0 0)
(0.12131622 0 0)
(0.14947297 0 0)
(0.17505189 0 0)
(0.19819849 0 0)
(0.21903478 0 0)
(0.23771284 0 0)
(0.25441585 0 0)
(0.26934233 0 0)
(0.28267555 0 0)
(0.29457398 0 0)
(0.30519681 0 0)
(0.31473803 0 0)
(0.32347863 0 0)
(0.33169308 0 0)
(0.33970288 0 0)
(0.019715795 0 0)
(0.056801285 0 0)
(0.090910156 0 0)
(0.12207522 0 0)
(0.15048114 0 0)
(0.17631788 0 0)
(0.19972631 0 0)
(0.22081477 0 0)
(0.23972125 0 0)
(0.25661299 0 0)
(0.27167084 0 0)
(0.28508345 0 0)
(0.29702425 0 0)
(0.30763112 0 0)
(0.31705977 0 0)
(0.32555186 0 0)
(0.33333319 0 0)
(0.34067288 0 0)
(0.34792269 0 0)
(0.019795731 0 0)
(0.057061571 0 0)
(0.091382306 0 0)
(0.12277097 0 0)
(0.15141015 0 0)
(0.17749265 0 0)
(0.20115768 0 0)
(0.22249946 0 0)
(0.24164134 0 0)
(0.25874405 0 0)
(0.27396956 0 0)
(0.28748931 0 0)
(0.29949676 0 0)
(0.31014238 0 0)
(0.31956192 0 0)
(0.32792401 0 0)
(0.33542828 0 0)
(0.34233871 0 0)
(0.34889932 0 0)
(0.35541354 0 0)
(0.019866517 0 0)
(0.05729505 0 0)
(0.091810349 0 0)
(0.12340656 0 0)
(0.15226537 0 0)
(0.17858029 0 0)
(0.20249093 0 0)
(0.22408101 0 0)
(0.24346248 0 0)
(0.26078826 0 0)
(0.2762061 0 0)
(0.28987428 0 0)
(0.30197624 0 0)
(0.31268178 0 0)
(0.3221321 0 0)
(0.33045355 0 0)
(0.33781075 0 0)
(0.34444244 0 0)
(0.35055247 0 0)
(0.35638379 0 0)
(0.36226049 0 0)
(0.019930077 0 0)
(0.057505394 0 0)
(0.092196906 0 0)
(0.12398415 0 0)
(0.15304525 0 0)
(0.17957839 0 0)
(0.20372471 0 0)
(0.22555762 0 0)
(0.24517439 0 0)
(0.26272684 0 0)
(0.27835617 0 0)
(0.29219923 0 0)
(0.30442318 0 0)
(0.31520878 0 0)
(0.32471279 0 0)
(0.33305492 0 0)
(0.34037881 0 0)
(0.34684936 0 0)
(0.35265759 0 0)
(0.35804623 0 0)
(0.36322915 0 0)
(0.3684882 0 0)
(0.019985597 0 0)
(0.057692229 0 0)
(0.092543097 0 0)
(0.12450664 0 0)
(0.15375767 0 0)
(0.18049445 0 0)
(0.20486244 0 0)
(0.22692763 0 0)
(0.24677497 0 0)
(0.26455459 0 0)
(0.28039837 0 0)
(0.29443475 0 0)
(0.30681436 0 0)
(0.31770286 0 0)
(0.32727825 0 0)
(0.33567312 0 0)
(0.34300715 0 0)
(0.34941337 0 0)
(0.3550521 0 0)
(0.36014461 0 0)
(0.36486937 0 0)
(0.36944584 0 0)
(0.37417072 0 0)
(0.020034995 0 0)
(0.057858867 0 0)
(0.09285333 0 0)
(0.12497778 0 0)
(0.15440117 0 0)
(0.18132709 0 0)
(0.20590457 0 0)
(0.22819322 0 0)
(0.24826195 0 0)
(0.26626291 0 0)
(0.28232681 0 0)
(0.29656593 0 0)
(0.309117 0 0)
(0.3201417 0 0)
(0.32980864 0 0)
(0.33826606 0 0)
(0.34564107 0 0)
(0.35204603 0 0)
(0.35762836 0 0)
(0.36253855 0 0)
(0.36695282 0 0)
(0.37108497 0 0)
(0.37512162 0 0)
(0.37932804 0 0)
(0.020077586 0 0)
(0.058005491 0 0)
(0.093128472 0 0)
(0.12539982 0 0)
(0.15498462 0 0)
(0.18208525 0 0)
(0.20685674 0 0)
(0.22935513 0 0)
(0.24963663 0 0)
(0.26785421 0 0)
(0.28413296 0 0)
(0.2985775 0 0)
(0.31131801 0 0)
(0.32250115 0 0)
(0.33228125 0 0)
(0.34081865 0 0)
(0.34825331 0 0)
(0.35469139 0 0)
(0.36026143 0 0)
(0.36508957 0 0)
(0.36931877 0 0)
(0.37314826 0 0)
(0.37673156 0 0)
(0.38026565 0 0)
(0.38402408 0 0)
(0.020115216 0 0)
(0.058135305 0 0)
(0.093373111 0 0)
(0.12577725 0 0)
(0.15550625 0 0)
(0.18276791 0 0)
(0.2077201 0 0)
(0.23041827 0 0)
(0.25090102 0 0)
(0.26932486 0 0)
(0.2858169 0 0)
(0.30046835 0 0)
(0.31339644 0 0)
(0.32475099 0 0)
(0.33467522 0 0)
(0.34330858 0 0)
(0.35081059 0 0)
(0.3573038 0 0)
(0.36289609 0 0)
(0.36770288 0 0)
(0.37186167 0 0)
(0.37549778 0 0)
(0.37876972 0 0)
(0.38186558 0 0)
(0.38495143 0 0)
(0.38827422 0 0)
(0.020147369 0 0)
(0.058248569 0 0)
(0.093587549 0 0)
(0.12611157 0 0)
(0.15597528 0 0)
(0.18338436 0 0)
(0.20850205 0 0)
(0.23138445 0 0)
(0.25205759 0 0)
(0.27068056 0 0)
(0.28737716 0 0)
(0.30223096 0 0)
(0.3153534 0 0)
(0.32688725 0 0)
(0.33696501 0 0)
(0.34572363 0 0)
(0.3533121 0 0)
(0.35986682 0 0)
(0.36550447 0 0)
(0.37032442 0 0)
(0.37445367 0 0)
(0.37799978 0 0)
(0.38108234 0 0)
(0.38387766 0 0)
(0.38651893 0 0)
(0.3891871 0 0)
(0.39213285 0 0)
(0.020175821 0 0)
(0.058347622 0 0)
(0.093776165 0 0)
(0.12640742 0 0)
(0.15638944 0 0)
(0.18393374 0 0)
(0.20920406 0 0)
(0.23225996 0 0)
(0.25311114 0 0)
(0.27192076 0 0)
(0.28881631 0 0)
(0.30387011 0 0)
(0.31717967 0 0)
(0.328892 0 0)
(0.33914178 0 0)
(0.34804473 0 0)
(0.35573455 0 0)
(0.36235984 0 0)
(0.36805213 0 0)
(0.37290929 0 0)
(0.37704192 0 0)
(0.38055434 0 0)
(0.38356146 0 0)
(0.38616203 0 0)
(0.38849999 0 0)
(0.3907404 0 0)
(0.3930342 0 0)
(0.39561179 0 0)
(0.020199963 0 0)
(0.058432821 0 0)
(0.093939188 0 0)
(0.12666548 0 0)
(0.15675774 0 0)
(0.18442475 0 0)
(0.20983343 0 0)
(0.23304635 0 0)
(0.25406455 0 0)
(0.27305255 0 0)
(0.29013669 0 0)
(0.30538244 0 0)
(0.3188792 0 0)
(0.33077244 0 0)
(0.34118837 0 0)
(0.35024504 0 0)
(0.3580639 0 0)
(0.3647745 0 0)
(0.37052749 0 0)
(0.37543705 0 0)
(0.37959822 0 0)
(0.38310772 0 0)
(0.38607805 0 0)
(0.38859123 0 0)
(0.39074279 0 0)
(0.3926909 0 0)
(0.39455392 0 0)
(0.39649933 0 0)
(0.39875771 0 0)
(0.020222148 0 0)
(0.05850651 0 0)
(0.09407988 0 0)
(0.12689033 0 0)
(0.15707781 0 0)
(0.18485683 0 0)
(0.21039225 0 0)
(0.23375146 0 0)
(0.25492389 0 0)
(0.274077 0 0)
(0.29134155 0 0)
(0.30677514 0 0)
(0.32045025 0 0)
(0.33251702 0 0)
(0.34310809 0 0)
(0.35232629 0 0)
(0.36028007 0 0)
(0.36709817 0 0)
(0.37292254 0 0)
(0.37788349 0 0)
(0.3820872 0 0)
(0.38561806 0 0)
(0.38858003 0 0)
(0.39105753 0 0)
(0.39313981 0 0)
(0.39490026 0 0)
(0.39647153 0 0)
(0.39800246 0 0)
(0.399634 0 0)
(0.40157867 0 0)
(0.020154915 0 0)
(0.058569695 0 0)
(0.094198873 0 0)
(0.1270822 0 0)
(0.15735781 0 0)
(0.18523749 0 0)
(0.2108871 0 0)
(0.23437601 0 0)
(0.2556919 0 0)
(0.27500183 0 0)
(0.29243574 0 0)
(0.30804703 0 0)
(0.32189673 0 0)
(0.33413742 0 0)
(0.34489405 0 0)
(0.35427124 0 0)
(0.36237638 0 0)
(0.36931875 0 0)
(0.37522751 0 0)
(0.38024646 0 0)
(0.38449778 0 0)
(0.38806498 0 0)
(0.39104035 0 0)
(0.39350778 0 0)
(0.39555678 0 0)
(0.39724285 0 0)
(0.39863896 0 0)
(0.39989007 0 0)
(0.40110511 0 0)
(0.4024423 0 0)
(0.40411533 0 0)
(0.020069191 0 0)
(0.058433294 0 0)
(0.094299129 0 0)
(0.12724441 0 0)
(0.1575959 0 0)
(0.1855666 0 0)
(0.21131989 0 0)
(0.23492856 0 0)
(0.25637556 0 0)
(0.27582905 0 0)
(0.29342255 0 0)
(0.30920646 0 0)
(0.32322163 0 0)
(0.33562542 0 0)
(0.34655109 0 0)
(0.35609136 0 0)
(0.36434117 0 0)
(0.37141473 0 0)
(0.37742929 0 0)
(0.38251286 0 0)
(0.38681058 0 0)
(0.39042244 0 0)
(0.39342655 0 0)
(0.39590344 0 0)
(0.39794207 0 0)
(0.39960168 0 0)
(0.40094448 0 0)
(0.40202185 0 0)
(0.40296102 0 0)
(0.40389895 0 0)
(0.40496917 0 0)
(0.40637361 0 0)
(0.019990734 0 0)
(0.058170491 0 0)
(0.094097377 0 0)
(0.12737925 0 0)
(0.15779742 0 0)
(0.18584937 0 0)
(0.2116963 0 0)
(0.23540986 0 0)
(0.25697772 0 0)
(0.2765666 0 0)
(0.29430874 0 0)
(0.3102547 0 0)
(0.32442782 0 0)
(0.33699375 0 0)
(0.34807872 0 0)
(0.35777456 0 0)
(0.36617713 0 0)
(0.37338907 0 0)
(0.37951654 0 0)
(0.38468942 0 0)
(0.38904748 0 0)
(0.39269662 0 0)
(0.39572937 0 0)
(0.39822617 0 0)
(0.40027051 0 0)
(0.401923 0 0)
(0.40324735 0 0)
(0.40427304 0 0)
(0.4050532 0 0)
(0.40572657 0 0)
(0.40639753 0 0)
(0.40721701 0 0)
(0.40838939 0 0)
(0.019920897 0 0)
(0.057931315 0 0)
(0.093672767 0 0)
(0.12712196 0 0)
(0.15796468 0 0)
(0.18608792 0 0)
(0.21201895 0 0)
(0.23582779 0 0)
(0.25750523 0 0)
(0.27721689 0 0)
(0.29509795 0 0)
(0.31119926 0 0)
(0.32552162 0 0)
(0.33823712 0 0)
(0.34948093 0 0)
(0.35933495 0 0)
(0.36788127 0 0)
(0.37522851 0 0)
(0.38148322 0 0)
(0.38675597 0 0)
(0.39117469 0 0)
(0.3948635 0 0)
(0.39793039 0 0)
(0.40045419 0 0)
(0.40251335 0 0)
(0.40417252 0 0)
(0.40549497 0 0)
(0.40651435 0 0)
(0.40726667 0 0)
(0.40778537 0 0)
(0.4081975 0 0)
(0.40863392 0 0)
(0.40922496 0 0)
(0.41016666 0 0)
(0.019859787 0 0)
(0.057717677 0 0)
(0.093285568 0 0)
(0.12655403 0 0)
(0.15766167 0 0)
(0.18628625 0 0)
(0.21229028 0 0)
(0.23618316 0 0)
(0.25796045 0 0)
(0.2777874 0 0)
(0.2957969 0 0)
(0.3120437 0 0)
(0.32650569 0 0)
(0.339368 0 0)
(0.35076115 0 0)
(0.36076397 0 0)
(0.369457 0 0)
(0.37694339 0 0)
(0.38331952 0 0)
(0.38869799 0 0)
(0.39320062 0 0)
(0.39694948 0 0)
(0.40005319 0 0)
(0.40259402 0 0)
(0.4046641 0 0)
(0.40633383 0 0)
(0.4076649 0 0)
(0.40869069 0 0)
(0.40944995 0 0)
(0.40994769 0 0)
(0.41022164 0 0)
(0.41041057 0 0)
(0.41061876 0 0)
(0.41099379 0 0)
(0.41173661 0 0)
(0.019808231 0 0)
(0.057530636 0 0)
(0.092939611 0 0)
(0.12603655 0 0)
(0.15697298 0 0)
(0.185948 0 0)
(0.21251689 0 0)
(0.23648098 0 0)
(0.25834881 0 0)
(0.27828063 0 0)
(0.29640926 0 0)
(0.31279329 0 0)
(0.32738706 0 0)
(0.34038314 0 0)
(0.35192235 0 0)
(0.36207532 0 0)
(0.37090666 0 0)
(0.37852494 0 0)
(0.38503003 0 0)
(0.3905224 0 0)
(0.39511327 0 0)
(0.39892368 0 0)
(0.40206481 0 0)
(0.40462774 0 0)
(0.40671034 0 0)
(0.40839038 0 0)
(0.40973159 0 0)
(0.41077251 0 0)
(0.41154854 0 0)
(0.41207022 0 0)
(0.41234871 0 0)
(0.41240519 0 0)
(0.4123729 0 0)
(0.41238074 0 0)
(0.41255784 0 0)
(0.41310302 0 0)
(0.019766681 0 0)
(0.057372976 0 0)
(0.09263617 0 0)
(0.12557105 0 0)
(0.15634469 0 0)
(0.18515837 0 0)
(0.21214541 0 0)
(0.23672659 0 0)
(0.25867407 0 0)
(0.27870176 0 0)
(0.29694102 0 0)
(0.3134537 0 0)
(0.32816795 0 0)
(0.34129399 0 0)
(0.35297022 0 0)
(0.3632637 0 0)
(0.37223237 0 0)
(0.37998539 0 0)
(0.38661153 0 0)
(0.39221395 0 0)
(0.39690205 0 0)
(0.40078561 0 0)
(0.40397213 0 0)
(0.40657108 0 0)
(0.40867343 0 0)
(0.410351 0 0)
(0.41169223 0 0)
(0.41274476 0 0)
(0.41354358 0 0)
(0.4140948 0 0)
(0.41441501 0 0)
(0.41448717 0 0)
(0.41433898 0 0)
(0.4141162 0 0)
(0.41392726 0 0)
(0.41391751 0 0)
(0.41429209 0 0)
(0.019735349 0 0)
(0.057244554 0 0)
(0.092380244 0 0)
(0.12516425 0 0)
(0.15577958 0 0)
(0.18443799 0 0)
(0.21126795 0 0)
(0.2363235 0 0)
(0.2589413 0 0)
(0.27905562 0 0)
(0.29739658 0 0)
(0.31402731 0 0)
(0.32885538 0 0)
(0.3420996 0 0)
(0.35390728 0 0)
(0.36434084 0 0)
(0.37343971 0 0)
(0.38131872 0 0)
(0.38806968 0 0)
(0.3937877 0 0)
(0.39857244 0 0)
(0.40253143 0 0)
(0.40577163 0 0)
(0.40840301 0 0)
(0.41052114 0 0)
(0.41220239 0 0)
(0.41353911 0 0)
(0.41459594 0 0)
(0.41541183 0 0)
(0.41599772 0 0)
(0.4163622 0 0)
(0.41649689 0 0)
(0.4163907 0 0)
(0.41605867 0 0)
(0.41564593 0 0)
(0.41528358 0 0)
(0.415102 0 0)
(0.4153077 0 0)
(0.01971487 0 0)
(0.057148225 0 0)
(0.09217107 0 0)
(0.12481686 0 0)
(0.15528483 0 0)
(0.18379027 0 0)
(0.21046517 0 0)
(0.23536491 0 0)
(0.25852114 0 0)
(0.27934593 0 0)
(0.29777814 0 0)
(0.31452145 0 0)
(0.32945237 0 0)
(0.34280938 0 0)
(0.35474018 0 0)
(0.3653048 0 0)
(0.37452978 0 0)
(0.38253657 0 0)
(0.38940533 0 0)
(0.39523273 0 0)
(0.40011755 0 0)
(0.40416133 0 0)
(0.40746245 0 0)
(0.41012713 0 0)
(0.4122634 0 0)
(0.41396196 0 0)
(0.41529666 0 0)
(0.41633657 0 0)
(0.41715357 0 0)
(0.417764 0 0)
(0.41817633 0 0)
(0.41837161 0 0)
(0.41834908 0 0)
(0.41807255 0 0)
(0.41756634 0 0)
(0.41698904 0 0)
(0.41645573 0 0)
(0.41611243 0 0)
(0.41617076 0 0)
(0.019704653 0 0)
(0.057082404 0 0)
(0.092013757 0 0)
(0.12453532 0 0)
(0.15486256 0 0)
(0.1832221 0 0)
(0.20974372 0 0)
(0.23448768 0 0)
(0.25750399 0 0)
(0.27891812 0 0)
(0.29809563 0 0)
(0.31493378 0 0)
(0.32996254 0 0)
(0.34342436 0 0)
(0.3554717 0 0)
(0.36616439 0 0)
(0.37550967 0 0)
(0.38363541 0 0)
(0.39062274 0 0)
(0.39656396 0 0)
(0.40154769 0 0)
(0.40567344 0 0)
(0.40903875 0 0)
(0.41174619 0 0)
(0.41389817 0 0)
(0.415601 0 0)
(0.41693533 0 0)
(0.41796233 0 0)
(0.41876615 0 0)
(0.41938707 0 0)
(0.41983476 0 0)
(0.42009459 0 0)
(0.42015058 0 0)
(0.41998119 0 0)
(0.4195561 0 0)
(0.41889141 0 0)
(0.41814924 0 0)
(0.41746508 0 0)
(0.41697223 0 0)
(0.4168852 0 0)
(0.057050153 0 0)
(0.019702886 0 0)
(0.091905733 0 0)
(0.12431828 0 0)
(0.15451927 0 0)
(0.18273841 0 0)
(0.2091094 0 0)
(0.2336979 0 0)
(0.25657297 0 0)
(0.27786024 0 0)
(0.29766469 0 0)
(0.31527593 0 0)
(0.33039166 0 0)
(0.34394982 0 0)
(0.35610788 0 0)
(0.36692078 0 0)
(0.3763805 0 0)
(0.38462524 0 0)
(0.3917253 0 0)
(0.39777406 0 0)
(0.40285765 0 0)
(0.40707182 0 0)
(0.41050652 0 0)
(0.41325863 0 0)
(0.41543374 0 0)
(0.41713806 0 0)
(0.41846515 0 0)
(0.4194909 0 0)
(0.42027691 0 0)
(0.42087877 0 0)
(0.42134128 0 0)
(0.42164912 0 0)
(0.42178748 0 0)
(0.42171533 0 0)
(0.42142054 0 0)
(0.42085091 0 0)
(0.42003542 0 0)
(0.41914931 0 0)
(0.41831607 0 0)
(0.41768277 0 0)
(0.41746754 0 0)
(0.091852028 0 0)
(0.057040352 0 0)
(0.019708378 0 0)
(0.12417155 0 0)
(0.15425457 0 0)
(0.18234313 0 0)
(0.20856885 0 0)
(0.2330032 0 0)
(0.25573315 0 0)
(0.27689162 0 0)
(0.29658152 0 0)
(0.31484541 0 0)
(0.33074188 0 0)
(0.34439172 0 0)
(0.35665298 0 0)
(0.36757951 0 0)
(0.37714892 0 0)
(0.38550508 0 0)
(0.39271618 0 0)
(0.39887537 0 0)
(0.40405815 0 0)
(0.40835807 0 0)
(0.41186231 0 0)
(0.4146678 0 0)
(0.41687236 0 0)
(0.41857829 0 0)
(0.41988974 0 0)
(0.4208974 0 0)
(0.42166478 0 0)
(0.42224284 0 0)
(0.42269604 0 0)
(0.42303353 0 0)
(0.42323561 0 0)
(0.42326646 0 0)
(0.42308873 0 0)
(0.42267407 0 0)
(0.42197712 0 0)
(0.42102298 0 0)
(0.41999246 0 0)
(0.4190268 0 0)
(0.41826292 0 0)
(0.41792207 0 0)
(0.12409196 0 0)
(0.091834933 0 0)
(0.05705606 0 0)
(0.019725175 0 0)
(0.15407435 0 0)
(0.18204061 0 0)
(0.20812658 0 0)
(0.2324095 0 0)
(0.25499342 0 0)
(0.27601582 0 0)
(0.29558591 0 0)
(0.31374354 0 0)
(0.33031965 0 0)
(0.3447514 0 0)
(0.35710848 0 0)
(0.36814492 0 0)
(0.37781748 0 0)
(0.38628262 0 0)
(0.39359997 0 0)
(0.39986384 0 0)
(0.40514482 0 0)
(0.40953506 0 0)
(0.41311401 0 0)
(0.41597163 0 0)
(0.4182092 0 0)
(0.4199252 0 0)
(0.42121912 0 0)
(0.42219734 0 0)
(0.42293914 0 0)
(0.42350159 0 0)
(0.42393038 0 0)
(0.42425942 0 0)
(0.42450221 0 0)
(0.42461371 0 0)
(0.42456054 0 0)
(0.4242831 0 0)
(0.42376455 0 0)
(0.42294098 0 0)
(0.42185478 0 0)
(0.42069763 0 0)
(0.41960123 0 0)
(0.41871484 0 0)
(0.41826152 0 0)
(0.1539759 0 0)
(0.12406673 0 0)
(0.091859285 0 0)
(0.057101435 0 0)
(0.01975121 0 0)
(0.18183152 0 0)
(0.20778627 0 0)
(0.23192324 0 0)
(0.25436046 0 0)
(0.2752433 0 0)
(0.29468657 0 0)
(0.31272781 0 0)
(0.32921178 0 0)
(0.34434194 0 0)
(0.35748538 0 0)
(0.36861626 0 0)
(0.37838903 0 0)
(0.38695934 0 0)
(0.39437958 0 0)
(0.40074889 0 0)
(0.40612761 0 0)
(0.41060611 0 0)
(0.41425898 0 0)
(0.41717597 0 0)
(0.41945227 0 0)
(0.42118104 0 0)
(0.42246364 0 0)
(0.42340735 0 0)
(0.42410592 0 0)
(0.42463207 0 0)
(0.42503231 0 0)
(0.42533863 0 0)
(0.425589 0 0)
(0.42576061 0 0)
(0.42580738 0 0)
(0.4256782 0 0)
(0.42531739 0 0)
(0.42469572 0 0)
(0.42376027 0 0)
(0.42255168 0 0)
(0.42126735 0 0)
(0.42005425 0 0)
(0.41905321 0 0)
(0.41849035 0 0)
(0.18171986 0 0)
(0.15394248 0 0)
(0.12409078 0 0)
(0.091933575 0 0)
(0.057180066 0 0)
(0.019788209 0 0)
(0.20755123 0 0)
(0.23154704 0 0)
(0.25384011 0 0)
(0.27458057 0 0)
(0.2938909 0 0)
(0.31180991 0 0)
(0.32819375 0 0)
(0.34324361 0 0)
(0.35708914 0 0)
(0.36900601 0 0)
(0.37887042 0 0)
(0.38753818 0 0)
(0.39505967 0 0)
(0.40152971 0 0)
(0.40700394 0 0)
(0.41157292 0 0)
(0.41530457 0 0)
(0.41828037 0 0)
(0.42059739 0 0)
(0.42234788 0 0)
(0.4236254 0 0)
(0.42453546 0 0)
(0.42518348 0 0)
(0.42565682 0 0)
(0.42601321 0 0)
(0.42629755 0 0)
(0.42653011 0 0)
(0.42671691 0 0)
(0.42684071 0 0)
(0.42683135 0 0)
(0.42664307 0 0)
(0.42620049 0 0)
(0.4254878 0 0)
(0.42443896 0 0)
(0.42311426 0 0)
(0.42171739 0 0)
(0.42038913 0 0)
(0.41928055 0 0)
(0.41861837 0 0)
(0.20742255 0 0)
(0.18167831 0 0)
(0.15396946 0 0)
(0.12418664 0 0)
(0.09206144 0 0)
(0.057286434 0 0)
(0.019833496 0 0)
(0.23128596 0 0)
(0.25343724 0 0)
(0.27403381 0 0)
(0.2932072 0 0)
(0.31099551 0 0)
(0.32726857 0 0)
(0.34223442 0 0)
(0.35601238 0 0)
(0.36862844 0 0)
(0.37926187 0 0)
(0.38802588 0 0)
(0.39564377 0 0)
(0.40221236 0 0)
(0.40778155 0 0)
(0.4124397 0 0)
(0.41624865 0 0)
(0.41928881 0 0)
(0.42165313 0 0)
(0.42342649 0 0)
(0.42470353 0 0)
(0.42558752 0 0)
(0.42618151 0 0)
(0.42658875 0 0)
(0.42688422 0 0)
(0.42711946 0 0)
(0.42732334 0 0)
(0.42750128 0 0)
(0.42766133 0 0)
(0.42775215 0 0)
(0.42770536 0 0)
(0.42746134 0 0)
(0.42694826 0 0)
(0.42614248 0 0)
(0.42499335 0 0)
(0.42356013 0 0)
(0.42205059 0 0)
(0.42061823 0 0)
(0.41940849 0 0)
(0.4186504 0 0)
(0.2311399 0 0)
(0.2073742 0 0)
(0.18171027 0 0)
(0.15408279 0 0)
(0.12434813 0 0)
(0.092236961 0 0)
(0.057424363 0 0)
(0.019889046 0 0)
(0.2531546 0 0)
(0.27360879 0 0)
(0.29264208 0 0)
(0.31029522 0 0)
(0.32644975 0 0)
(0.34131389 0 0)
(0.35501568 0 0)
(0.36757934 0 0)
(0.37891581 0 0)
(0.38841992 0 0)
(0.39613187 0 0)
(0.40279944 0 0)
(0.40846029 0 0)
(0.41320767 0 0)
(0.41709759 0 0)
(0.42020226 0 0)
(0.42261547 0 0)
(0.42442017 0 0)
(0.42570323 0 0)
(0.42656519 0 0)
(0.42711227 0 0)
(0.42744924 0 0)
(0.42766622 0 0)
(0.42783123 0 0)
(0.42798328 0 0)
(0.42814563 0 0)
(0.42830666 0 0)
(0.42844666 0 0)
(0.42852129 0 0)
(0.42844018 0 0)
(0.42815191 0 0)
(0.42756708 0 0)
(0.42667787 0 0)
(0.42542583 0 0)
(0.42388973 0 0)
(0.42227951 0 0)
(0.42074496 0 0)
(0.41944013 0 0)
(0.41859378 0 0)
(0.25299529 0 0)
(0.23108185 0 0)
(0.20740419 0 0)
(0.18183591 0 0)
(0.15427552 0 0)
(0.12457818 0 0)
(0.092462541 0 0)
(0.057586007 0 0)
(0.019951262 0 0)
(0.27330696 0 0)
(0.29219977 0 0)
(0.30971489 0 0)
(0.32574329 0 0)
(0.34049996 0 0)
(0.35411114 0 0)
(0.36660406 0 0)
(0.37790614 0 0)
(0.3881037 0 0)
(0.39653356 0 0)
(0.40328997 0 0)
(0.40904346 0 0)
(0.41388056 0 0)
(0.41785017 0 0)
(0.42102332 0 0)
(0.42349169 0 0)
(0.42533025 0 0)
(0.42662364 0 0)
(0.42747267 0 0)
(0.42797943 0 0)
(0.42824669 0 0)
(0.42837585 0 0)
(0.42845176 0 0)
(0.42852694 0 0)
(0.4286369 0 0)
(0.42878333 0 0)
(0.42894011 0 0)
(0.42908871 0 0)
(0.42915469 0 0)
(0.42905185 0 0)
(0.42871936 0 0)
(0.42807044 0 0)
(0.42709426 0 0)
(0.42575094 0 0)
(0.42411773 0 0)
(0.42240689 0 0)
(0.42077911 0 0)
(0.4193844 0 0)
(0.41845377 0 0)
(0.27313391 0 0)
(0.25292649 0 0)
(0.23110938 0 0)
(0.20754205 0 0)
(0.18205803 0 0)
(0.1545508 0 0)
(0.12486941 0 0)
(0.092732993 0 0)
(0.057776233 0 0)
(0.020022451 0 0)
(0.29188559 0 0)
(0.30925929 0 0)
(0.32515914 0 0)
(0.33979505 0 0)
(0.35330519 0 0)
(0.36571937 0 0)
(0.37697153 0 0)
(0.38714321 0 0)
(0.39624424 0 0)
(0.4036951 0 0)
(0.40953616 0 0)
(0.41446032 0 0)
(0.41851111 0 0)
(0.42175341 0 0)
(0.42427826 0 0)
(0.42615818 0 0)
(0.42746955 0 0)
(0.42830887 0 0)
(0.42878121 0 0)
(0.42898687 0 0)
(0.42902525 0 0)
(0.42899916 0 0)
(0.42898003 0 0)
(0.42901048 0 0)
(0.42910794 0 0)
(0.42926808 0 0)
(0.42944782 0 0)
(0.42960513 0 0)
(0.4296735 0 0)
(0.42954797 0 0)
(0.42917854 0 0)
(0.42846293 0 0)
(0.42740775 0 0)
(0.42597063 0 0)
(0.42424527 0 0)
(0.42244284 0 0)
(0.42072373 0 0)
(0.41924477 0 0)
(0.41823557 0 0)
(0.2916998 0 0)
(0.2730528 0 0)
(0.25295009 0 0)
(0.23125466 0 0)
(0.20778262 0 0)
(0.18236886 0 0)
(0.15490025 0 0)
(0.12522314 0 0)
(0.093047165 0 0)
(0.057986278 0 0)
(0.020098856 0 0)
(0.30893447 0 0)
(0.32470082 0 0)
(0.33921248 0 0)
(0.35261099 0 0)
(0.36492764 0 0)
(0.37611422 0 0)
(0.3862532 0 0)
(0.39534229 0 0)
(0.40343684 0 0)
(0.40993639 0 0)
(0.41494641 0 0)
(0.41908059 0 0)
(0.42239402 0 0)
(0.42498055 0 0)
(0.4269053 0 0)
(0.42823938 0 0)
(0.42907844 0 0)
(0.42952416 0 0)
(0.42967352 0 0)
(0.42962817 0 0)
(0.4294939 0 0)
(0.42935977 0 0)
(0.4292874 0 0)
(0.42930546 0 0)
(0.4294241 0 0)
(0.42961458 0 0)
(0.42982351 0 0)
(0.4300096 0 0)
(0.43008197 0 0)
(0.42994131 0 0)
(0.42953301 0 0)
(0.42875572 0 0)
(0.42761802 0 0)
(0.42609715 0 0)
(0.42428391 0 0)
(0.42239057 0 0)
(0.42058702 0 0)
(0.41902814 0 0)
(0.41794447 0 0)
(0.30873902 0 0)
(0.2916114 0 0)
(0.27306876 0 0)
(0.25309528 0 0)
(0.23151243 0 0)
(0.20812647 0 0)
(0.18277037 0 0)
(0.15532524 0 0)
(0.12563228 0 0)
(0.093400634 0 0)
(0.058221549 0 0)
(0.020157689 0 0)
(0.32437354 0 0)
(0.33875339 0 0)
(0.35203279 0 0)
(0.36424626 0 0)
(0.37535101 0 0)
(0.38543164 0 0)
(0.39449706 0 0)
(0.402594 0 0)
(0.40971934 0 0)
(0.41534578 0 0)
(0.41955755 0 0)
(0.4229456 0 0)
(0.42559666 0 0)
(0.42757177 0 0)
(0.42893625 0 0)
(0.42977991 0 0)
(0.43020537 0 0)
(0.43030922 0 0)
(0.43018764 0 0)
(0.42994627 0 0)
(0.42968806 0 0)
(0.42949335 0 0)
(0.42940536 0 0)
(0.42944667 0 0)
(0.42960596 0 0)
(0.42984844 0 0)
(0.43010404 0 0)
(0.43031389 0 0)
(0.43039652 0 0)
(0.43023705 0 0)
(0.42979407 0 0)
(0.42895244 0 0)
(0.42773874 0 0)
(0.42613285 0 0)
(0.42423501 0 0)
(0.42225748 0 0)
(0.42037252 0 0)
(0.41873824 0 0)
(0.41756829 0 0)
(0.3241795 0 0)
(0.30864362 0 0)
(0.29161681 0 0)
(0.27320951 0 0)
(0.25336266 0 0)
(0.23188256 0 0)
(0.20856505 0 0)
(0.18325194 0 0)
(0.15581614 0 0)
(0.1260939 0 0)
(0.093790265 0 0)
(0.058328769 0 0)
(0.020125876 0 0)
(0.33842592 0 0)
(0.35158012 0 0)
(0.36367637 0 0)
(0.37468714 0 0)
(0.38469993 0 0)
(0.39372089 0 0)
(0.40179939 0 0)
(0.40893882 0 0)
(0.41516342 0 0)
(0.41994943 0 0)
(0.42341079 0 0)
(0.42612758 0 0)
(0.42815839 0 0)
(0.42955806 0 0)
(0.43041534 0 0)
(0.43083018 0 0)
(0.43089388 0 0)
(0.43070371 0 0)
(0.43036413 0 0)
(0.4299774 0 0)
(0.42964367 0 0)
(0.42942868 0 0)
(0.42936419 0 0)
(0.42945346 0 0)
(0.42967734 0 0)
(0.42997919 0 0)
(0.43028256 0 0)
(0.43052911 0 0)
(0.43061967 0 0)
(0.43044519 0 0)
(0.42996475 0 0)
(0.42906202 0 0)
(0.42777173 0 0)
(0.42608709 0 0)
(0.42410732 0 0)
(0.42204756 0 0)
(0.42008575 0 0)
(0.41835749 0 0)
(0.41710033 0 0)
(0.33823031 0 0)
(0.3240826 0 0)
(0.30864213 0 0)
(0.29175535 0 0)
(0.27347923 0 0)
(0.25374586 0 0)
(0.23235846 0 0)
(0.2090984 0 0)
(0.18381363 0 0)
(0.15637054 0 0)
(0.12660408 0 0)
(0.0939565 0 0)
(0.058239546 0 0)
(0.020091701 0 0)
(0.35125445 0 0)
(0.36322997 0 0)
(0.37413576 0 0)
(0.3840596 0 0)
(0.39302194 0 0)
(0.40106984 0 0)
(0.4082075 0 0)
(0.41446092 0 0)
(0.41980547 0 0)
(0.42378899 0 0)
(0.42657636 0 0)
(0.42866525 0 0)
(0.43010642 0 0)
(0.43098341 0 0)
(0.43139473 0 0)
(0.4314299 0 0)
(0.43118048 0 0)
(0.43074919 0 0)
(0.43024248 0 0)
(0.4297639 0 0)
(0.4293996 0 0)
(0.42920335 0 0)
(0.42918988 0 0)
(0.42935405 0 0)
(0.42965318 0 0)
(0.43002765 0 0)
(0.43038774 0 0)
(0.43066269 0 0)
(0.4307637 0 0)
(0.43056934 0 0)
(0.43005314 0 0)
(0.42908781 0 0)
(0.42772559 0 0)
(0.42596321 0 0)
(0.4239038 0 0)
(0.42176547 0 0)
(0.41969785 0 0)
(0.4178815 0 0)
(0.41654989 0 0)
(0.35106141 0 0)
(0.33813269 0 0)
(0.32408464 0 0)
(0.30877777 0 0)
(0.29201937 0 0)
(0.27386729 0 0)
(0.25424405 0 0)
(0.23293665 0 0)
(0.20971541 0 0)
(0.18444452 0 0)
(0.15698301 0 0)
(0.12680603 0 0)
(0.093819437 0 0)
(0.058137244 0 0)
(0.020051482 0 0)
(0.36290722 0 0)
(0.37369921 0 0)
(0.38352727 0 0)
(0.39241401 0 0)
(0.40040912 0 0)
(0.40752575 0 0)
(0.41379259 0 0)
(0.4191854 0 0)
(0.42368872 0 0)
(0.42693897 0 0)
(0.42909013 0 0)
(0.43058007 0 0)
(0.43148429 0 0)
(0.43190173 0 0)
(0.43191612 0 0)
(0.43161613 0 0)
(0.43110565 0 0)
(0.43048804 0 0)
(0.4298655 0 0)
(0.42933902 0 0)
(0.42898692 0 0)
(0.42884159 0 0)
(0.4289086 0 0)
(0.42916172 0 0)
(0.42955128 0 0)
(0.42999882 0 0)
(0.43041299 0 0)
(0.4307234 0 0)
(0.43083027 0 0)
(0.43061696 0 0)
(0.43006217 0 0)
(0.42903614 0 0)
(0.42760417 0 0)
(0.42576588 0 0)
(0.42362926 0 0)
(0.42137131 0 0)
(0.41920727 0 0)
(0.41732456 0 0)
(0.41591988 0 0)
(0.36271464 0 0)
(0.350964 0 0)
(0.3381332 0 0)
(0.32421904 0 0)
(0.30904039 0 0)
(0.29241183 0 0)
(0.27437706 0 0)
(0.25484767 0 0)
(0.23360895 0 0)
(0.21041279 0 0)
(0.18514297 0 0)
(0.15721286 0 0)
(0.12661982 0 0)
(0.093660353 0 0)
(0.058023936 0 0)
(0.020007646 0 0)
(0.37338579 0 0)
(0.3831029 0 0)
(0.39190263 0 0)
(0.39983443 0 0)
(0.40691265 0 0)
(0.4131699 0 0)
(0.41858727 0 0)
(0.42315137 0 0)
(0.42688051 0 0)
(0.42943606 0 0)
(0.43097603 0 0)
(0.43191579 0 0)
(0.43234789 0 0)
(0.43235255 0 0)
(0.43201339 0 0)
(0.4314304 0 0)
(0.43071095 0 0)
(0.42995509 0 0)
(0.4292618 0 0)
(0.42873549 0 0)
(0.42843526 0 0)
(0.42837478 0 0)
(0.42854061 0 0)
(0.42889952 0 0)
(0.42938152 0 0)
(0.42990879 0 0)
(0.43037962 0 0)
(0.43071569 0 0)
(0.43082789 0 0)
(0.43059092 0 0)
(0.42999692 0 0)
(0.42891073 0 0)
(0.42741006 0 0)
(0.42550065 0 0)
(0.42323181 0 0)
(0.42086471 0 0)
(0.41863864 0 0)
(0.41668763 0 0)
(0.41520686 0 0)
(0.3731958 0 0)
(0.36261561 0 0)
(0.35096325 0 0)
(0.33826627 0 0)
(0.32448668 0 0)
(0.3094352 0 0)
(0.29292201 0 0)
(0.27499456 0 0)
(0.25555278 0 0)
(0.23436745 0 0)
(0.21118352 0 0)
(0.18539422 0 0)
(0.1569775 0 0)
(0.12640442 0 0)
(0.093476435 0 0)
(0.057896756 0 0)
(0.019957853 0 0)
(0.38279726 0 0)
(0.39149824 0 0)
(0.39934882 0 0)
(0.40637229 0 0)
(0.41260275 0 0)
(0.41802728 0 0)
(0.42263102 0 0)
(0.42643059 0 0)
(0.42941526 0 0)
(0.43129785 0 0)
(0.43227791 0 0)
(0.43273173 0 0)
(0.43273677 0 0)
(0.4323686 0 0)
(0.43172696 0 0)
(0.43091709 0 0)
(0.43003649 0 0)
(0.429186 0 0)
(0.4284753 0 0)
(0.42799267 0 0)
(0.4277768 0 0)
(0.42782163 0 0)
(0.42810566 0 0)
(0.42857548 0 0)
(0.42915753 0 0)
(0.42975973 0 0)
(0.43028205 0 0)
(0.43064603 0 0)
(0.43075807 0 0)
(0.43049603 0 0)
(0.42986067 0 0)
(0.4287139 0 0)
(0.42715009 0 0)
(0.4251033 0 0)
(0.42271285 0 0)
(0.42028325 0 0)
(0.41799017 0 0)
(0.41596876 0 0)
(0.41441458 0 0)
(0.38260928 0 0)
(0.37309721 0 0)
(0.36261129 0 0)
(0.35109461 0 0)
(0.33853192 0 0)
(0.32488008 0 0)
(0.30994869 0 0)
(0.29355041 0 0)
(0.27571966 0 0)
(0.25634916 0 0)
(0.23520743 0 0)
(0.21145205 0 0)
(0.18511151 0 0)
(0.15670617 0 0)
(0.12615885 0 0)
(0.093265561 0 0)
(0.057755392 0 0)
(0.019903401 0 0)
(0.39120263 0 0)
(0.39896333 0 0)
(0.40591915 0 0)
(0.41210383 0 0)
(0.41751162 0 0)
(0.42213518 0 0)
(0.4259901 0 0)
(0.42906084 0 0)
(0.43131589 0 0)
(0.43256816 0 0)
(0.43305353 0 0)
(0.43306738 0 0)
(0.43268177 0 0)
(0.4319911 0 0)
(0.43110104 0 0)
(0.43011057 0 0)
(0.4291139 0 0)
(0.42821969 0 0)
(0.42753927 0 0)
(0.42714221 0 0)
(0.42703664 0 0)
(0.42720806 0 0)
(0.42761771 0 0)
(0.42820681 0 0)
(0.42888479 0 0)
(0.42956337 0 0)
(0.43013489 0 0)
(0.43051715 0 0)
(0.43062572 0 0)
(0.43033535 0 0)
(0.42965504 0 0)
(0.42845145 0 0)
(0.4267558 0 0)
(0.42458251 0 0)
(0.42212252 0 0)
(0.41962358 0 0)
(0.41726304 0 0)
(0.41516997 0 0)
(0.41353844 0 0)
(0.39102217 0 0)
(0.38250967 0 0)
(0.37308962 0 0)
(0.36273716 0 0)
(0.35135435 0 0)
(0.3389224 0 0)
(0.32539872 0 0)
(0.31058339 0 0)
(0.29428371 0 0)
(0.2765374 0 0)
(0.25723153 0 0)
(0.2354955 0 0)
(0.21112975 0 0)
(0.1847876 0 0)
(0.15639782 0 0)
(0.12587814 0 0)
(0.093027164 0 0)
(0.05759899 0 0)
(0.019842958 0 0)
(0.39868059 0 0)
(0.4055555 0 0)
(0.4116806 0 0)
(0.41705688 0 0)
(0.42167813 0 0)
(0.4255621 0 0)
(0.42870059 0 0)
(0.43105936 0 0)
(0.43262664 0 0)
(0.43330744 0 0)
(0.43334018 0 0)
(0.43294897 0 0)
(0.43222265 0 0)
(0.43126643 0 0)
(0.43017528 0 0)
(0.42904481 0 0)
(0.42798025 0 0)
(0.4270943 0 0)
(0.42649138 0 0)
(0.42620971 0 0)
(0.42623757 0 0)
(0.42654611 0 0)
(0.42709149 0 0)
(0.42779761 0 0)
(0.42857313 0 0)
(0.42931996 0 0)
(0.42993412 0 0)
(0.43033303 0 0)
(0.43043301 0 0)
(0.43011018 0 0)
(0.42938492 0 0)
(0.42806076 0 0)
(0.42623864 0 0)
(0.42398972 0 0)
(0.42145637 0 0)
(0.41888851 0 0)
(0.41645551 0 0)
(0.41428847 0 0)
(0.41258325 0 0)
(0.39850508 0 0)
(0.39092356 0 0)
(0.38249731 0 0)