/*--------------------------------*- C++ -*----------------------------------*\
| =========                 |                                                 |
| \\      /  F ield         | OpenFOAM: The Open Source CFD Toolbox           |
|  \\    /   O peration     | Version:  v2012                                 |
|   \\  /    A nd           | Website:  www.openfoam.com                      |
|    \\/     M anipulation  |                                                 |
\*---------------------------------------------------------------------------*/
FoamFile
{
    version     2.0;
    format      ascii;
    class       surfaceScalarField;
    location    "20.525825016836894";
    object      meshPhi;
}
// * * * * * * * * * * * * * * * * * * * * * * * * * * * * * * * * * * * * * //

dimensions      [0 3 -1 0 0 0 0];
oriented        oriented;


internalField   nonuniform List<scalar> 
18180
(
-6.084407e-17
0.069082596
0
0.064369788
0
0.13134925
0
0.06013369
0
0.12200021
0
0.18734521
5.3039278e-14
0.055909666
0
0.11297862
0
0.17347572
-9.5405487e-14
0.23929309
-3.004163e-17
0.052003611
0
0.10526777
9.8792697e-14
0.16088945
0
0.22207518
9.2022021e-14
0.28807911
0
0.048510053
-2.6949753e-17
0.098518758
-4.9386071e-14
0.15014269
0
0.20632439
0
0.26830966
8.8802497e-14
0.33437779
0
0.045264001
0
0.092261313
-9.8772602e-14
0.14089081
4.7658225e-14
0.19290335
0
0.25009278
0
0.31212228
0
0.37738934
-2.9873777e-17
0.042268536
-5.1158532e-14
0.086423078
0
0.13252891
-2.3486259e-17
0.18130403
0
0.23410784
-8.8821474e-14
0.29160471
0
0.35281834
8.2700655e-14
0.41712356
0
0.039488634
0
0.080872502
0
0.12455785
4.7660365e-14
0.17068353
-4.600425e-14
0.21983136
0
0.2729837
-8.5714175e-14
0.33001851
0
0.39024545
0
0.4534499
-5.2966284e-14
0.03691096
0
0.075601118
-4.9358799e-14
0.11685914
-4.7648684e-14
0.16059132
0
0.20665939
-4.4416147e-14
0.25599013
0
0.30899997
8.268064e-14
0.36527004
0
0.42448087
0
0.48713398
0
0.034521004
0
0.070618945
0
0.10944412
0
0.15091401
-4.5984478e-14
0.19438198
0
0.24037835
8.5665917e-14
0.28962006
0
0.34203919
0
0.39743641
0
0.45607197
7.4322257e-14
0.51804614
0
0.032308628
0
0.065934164
-4.9332293e-14
0.10235706
4.7600438e-14
0.14161846
-9.1925389e-14
0.18275261
4.4357065e-14
0.22585237
0
0.27176928
-4.1345034e-14
0.32063109
-3.9905971e-14
0.37228136
7.700164e-14
0.42713915
0
0.48514602
0
0.54654847
1.4979949e-17
0.030259204
0
0.06154433
0
0.09563708
0
0.13272778
0
0.17166706
-4.4347766e-14
0.2122846
-8.5635565e-14
0.25537051
4.1338471e-14
0.30099491
3.9883521e-14
0.34908087
1.5121389e-17
0.40019503
-7.4336528e-14
0.45448935
0
0.51192922
6.9207356e-14
0.5725583
-1.5013843e-17
0.028355085
2.5536842e-14
0.057438787
0
0.089299144
0
0.12428661
-4.5953295e-14
0.16112607
0
0.19950382
8.5619581e-14
0.24006072
0
0.28284257
-3.9877482e-14
0.32773239
-3.8520456e-14
0.37526687
0
0.42587637
0
0.47969872
0
0.53649258
0
0.596659
0
0.026576208
-2.5531095e-14
0.05360007
1.2794636e-17
0.083341392
0
0.11631825
0
0.15112542
0
0.18735523
0
0.22558874
0
0.26586163
-3.9871623e-14
0.30794659
-3.8484851e-14
0.35225198
3.7145023e-14
0.39937292
0
0.44957227
0
0.50287181
0
0.55922073
0
0.61868204
-2.6444221e-14
0.024911113
-1.320724e-17
0.050013256
0
0.077756428
2.3790931e-14
0.1088272
0
0.14168203
0
0.17583347
4.2783521e-14
0.21189581
0
0.24988496
0
0.28945416
3.8494944e-14
0.33102096
7.4294404e-14
0.37501251
-1.2940317e-17
0.42166799
0
0.47143157
6.6773181e-14
0.52439585
0
0.58010769
-6.2193069e-14
0.63898557
0
0.023350407
0
0.046667204
0
0.072536461
0
0.10180495
-2.2950644e-14
0.13279829
0
0.16493222
0
0.19891741
-1.8640872e-17
0.23482591
0
0.27216418
0
0.31131417
3.714979e-14
0.35262431
0
0.39606263
0
0.44229837
3.3383921e-14
0.49181017
0
0.54427947
0
0.59937256
-1.6455052e-17
0.65743101
-2.6435233e-14
0.021882827
-1.3020531e-17
0.043550229
0
0.067668544
-1.2903615e-17
0.095238686
-1.2051035e-17
0.12446499
2.2162412e-14
0.154651
0
0.18661759
0
0.22058226
3.9853122e-14
0.25591144
0
0.29281672
0
0.33185635
0
0.3727455
0
0.41565791
-1.1227125e-17
0.46158826
0
0.51075
6.2170424e-14
0.56270615
0
0.61701264
5.78801e-14
0.67447801
2.6431391e-14
0.020497715
1.2939739e-17
0.040647608
0
0.063137481
0
0.089108976
2.294232e-14
0.11666236
-1.0868275e-17
0.14497946
-2.1380123e-14
0.17498092
0
0.20708117
0
0.24055291
0
0.27543241
0
0.31243108
0
0.35125238
0
0.39151489
-3.3389419e-14
0.43400163
-1.0567112e-17
0.4796664
0
0.52841972
0
0.57970564
-5.7879186e-14
0.63331289
0
0.68993337
-2.6427941e-14
0.019187454
0
0.037946231
4.9238989e-14
0.058927563
0
0.083393365
2.2938576e-14
0.10936546
-1.089395e-17
0.13590043
2.1376606e-14
0.16399383
9.5829973e-18
0.19428331
0
0.22600769
3.8458224e-14
0.25904368
0
0.29408123
0
0.33102742
0
0.36931984
3.3375009e-14
0.40910829
0
0.45131654
-9.9505897e-18
0.49664161
-3.000136e-14
0.54488948
0
0.595512
0
0.64820898
0
0.70412869
-2.6424856e-14
0.017946756
0
0.035433954
0
0.055023579
0
0.07806854
2.2935108e-14
0.10254657
2.2151616e-14
0.12738891
-1.0014761e-17
0.15363853
0
0.18217207
8.9202847e-18
0.21220942
0
0.24349815
0
0.27669364
-1.4503333e-17
0.31183389
0
0.34842578
0
0.38628192
-1.1210949e-17
0.42578626
0
0.46768352
-3.0000574e-14
0.51264684
0
0.560324
-1.5102382e-17
0.61008386
0
0.66189145
-5.1987614e-14
0.71689996
0
0.016775352
0
0.033097937
2.4606559e-14
0.051408536
0
0.073109831
0
0.096175254
0
0.11941536
0
0.14389245
-9.687908e-18
0.17072977
1.9914539e-14
0.19913401
0
0.22874599
0
0.26022977
0
0.29364427
0
0.32856784
0
0.36486271
0
0.40250291
-3.1089203e-14
0.44168933
0
0.48327237
-2.8946688e-14
0.52776422
2.7928588e-14
0.57470194
0
0.62353699
0
0.67431597
0
0.72863159
7.5769903e-18
0.015672529
0
0.030925478
0
0.04806317
2.3751417e-14
0.068493843
0
0.090220422
2.2145631e-14
0.11194972
2.1367374e-14
0.1347329
0
0.15993699
-1.9920972e-14
0.18676487
0
0.21474354
1.8561951e-14
0.24461057
0
0.27644145
0
0.30975342
0
0.34453314
0
0.38067936
0
0.41798504
2.9988904e-14
0.45689063
0
0.49808965
2.7911974e-14
0.54199305
0
0.58804181
-5.1989785e-14
0.63585219
0
0.68570587
-4.8381616e-14
0.73914502
0
0.01463669
0
0.028904861
0
0.044962668
0
0.064195559
0
0.084652912
0
0.10496487
0
0.12613927
0
0.1497761
3.9818658e-14
0.17508481
-1.9227367e-14
0.20146955
1.8551863e-14
0.22977165
1.7915132e-14
0.2601345
0
0.29194034
0
0.325129
0
0.35986079
0
0.39576911
-2.999864e-14
0.43279535
0
0.47138567
0
0.51211081
-2.6945998e-14
0.55524058
0
0.60036151
0
0.64717279
0
0.69599952
0
0.74873931
0
0.013665656
0
0.027025199
0
0.042084475
2.3760119e-14
0.06019035
0
0.079445471
-1.0894584e-17
0.09843079
0
0.1180878
0
0.1402257
0
0.16407662
0
0.18890805
1.8549762e-14
0.2156773
0
0.24464228
1.7290562e-14
0.2750487
0
0.30668229
0
0.33992443
3.107456e-14
0.37451693
0
0.41010485
0
0.44687857
-9.2693521e-18
0.48511038
8.3046789e-18
0.52520111
2.5989548e-14
0.56754179
0
0.61169072
0
0.65747484
0
0.70536809
-4.5021496e-14
0.75727427
7.5414896e-18
0.012757628
1.2746668e-14
0.025276221
-1.2304758e-14
0.039409849
-1.187204e-14
0.056452797
0
0.074570496
0
0.092315167
2.1360193e-14
0.11054998
0
0.1312608
3.9818905e-14
0.15371582
0
0.17704422
0
0.20231047
-1.7911741e-14
0.22990751
-1.7289201e-14
0.25900421
0
0.28918776
0
0.32081527
0
0.35394168
-2.9986922e-14
0.3882609
0
0.42366028
0
0.46020084
2.6947861e-14
0.49794604
2.5998119e-14
0.53736576
2.5073643e-14
0.57883852
0
0.62205213
-4.6675687e-14
0.66686124
0
0.71379042
-4.3428565e-14
0.7650809
1.3198775e-14
0.011910536
6.4537965e-18
0.023648176
0
0.036921785
1.1871056e-14
0.052961649
6.5777707e-18
0.070001853
0
0.086587066
0
0.10349608
0
0.12285137
0
0.14397648
0
0.16585943
-8.1781883e-18
0.18965592
0
0.21590837
1.7272016e-14
0.24373229
1.6679001e-14
0.27254235
1.6104726e-14
0.30257947
0
0.33405918
0
0.36696778
-1.0490962e-17
0.40116161
0
0.436446
0
0.47265911
0
0.50986343
0
0.54854273
-6.1690259e-18
0.58919212
0
0.63147295
0
0.67536327
0
0.72145115
-4.1891258e-14
0.77204152
0
0.011121482
1.2738684e-14
0.022134418
6.5019294e-18
0.034604302
0
0.049696809
0
0.065715414
5.4195374e-18
0.081217208
0
0.096900237
-2.0625103e-14
0.11497087
0
0.13482874
0
0.15533188
8.2034733e-18
0.17770053
-8.4738609e-18
0.20263175
0
0.22920164
-1.6692623e-14
0.25669755
1.6097154e-14
0.28524814
0
0.31503635
0
0.34627754
0
0.37916772
0
0.41337828
-2.6941084e-14
0.44843252
-2.5992894e-14
0.48423159
0
0.52082762
0
0.55876417
-5.5815693e-18
0.59857349
-2.2509574e-14
0.64005083
4.3424681e-14
0.68309575
0
0.72834064
4.0402009e-14
0.77841072
0
0.010386823
0
0.020726434
-6.5418207e-18
0.032442902
0
0.046640771
1.1464846e-14
0.061689547
-2.2127794e-14
0.076177626
0
0.090733541
0
0.10759327
1.9908739e-14
0.12624458
0
0.14543739
0
0.16642922
0
0.19006692
0
0.21539845
0
0.24160611
1.6096238e-14
0.26876633
-1.5541631e-14
0.29696993
1.4998927e-14
0.32644287
0
0.35774156
0
0.39077716
0
0.42483143
2.5994468e-14
0.45957134
-7.6610207e-18
0.49488541
0
0.53082855
2.3343127e-14
0.56801588
2.2511164e-14
0.60710765
4.3431662e-14
0.64782474
4.1888212e-14
0.69008993
0
0.73459472
3.8970892e-14
0.78413732
0
0.009697127
0
0.01941669
0
0.030426356
-7.1913864e-18
0.043774718
-1.1457521e-14
0.057905071
1.1065915e-14
0.071443952
0
0.084968602
-1.0306146e-14
0.10069203
0
0.11819372
1.9207808e-14
0.13614954
-1.8549027e-14
0.15582328
0
0.17820056
3.4559875e-14
0.20230877
0
0.22724541
0
0.25307654
-6.2837346e-18
0.27982273
-5.6024898e-18
0.30758951
1.4474385e-14
0.33705866
0
0.36868546
0
0.40175763
-8.7579242e-18
0.43551838
0
0.46984106
0
0.50461189
0
0.53988866
5.2923296e-18
0.57639148
2.1715358e-14
0.61479964
-4.1894873e-14
0.65487653
-4.0411923e-14
0.69642982
0
0.74026754
0
0.78948563
4.4420763e-05
0.010617717
0
0.018191668
0
0.028544996
0
0.041084995
1.1456943e-14
0.054343754
5.3676771e-18
0.066994937
-1.0680704e-14
0.079576981
0
0.094238857
4.824867e-18
0.11064735
0
0.12743862
0
0.1458538
0
0.16701387
0
0.1899207
1.6682235e-14
0.21359734
0
0.23813893
0
0.26352899
-5.5972879e-18
0.28972347
-1.4474522e-14
0.3173707
-1.3962726e-14
0.34730907
0
0.37915992
0
0.41196272
2.5082567e-14
0.44535761
0
0.47923493
6.353312e-18
0.5134321
0
0.5480693
0
0.58392506
-4.1127286e-18
0.62176071
-2.0203992e-14
0.66123867
3.8974036e-14
0.70218847
0
0.74549452
3.6257326e-14
0.79437361
7.465243e-05
0.010579676
0.00012366048
0.019836707
0
0.02678381
0
0.038559269
0
0.050988734
1.1059455e-14
0.06281
1.0680162e-14
0.074532525
2.0614663e-14
0.088203974
0
0.10357524
9.6109134e-15
0.11927107
0
0.13649011
0
0.1564809
-1.7282097e-14
0.1782158
1.6681329e-14
0.20064778
-1.6100759e-14
0.22392989
-6.4339258e-18
0.24802912
1.4992598e-14
0.27278918
-5.0538087e-18
0.29873762
0
0.32678513
1.3478367e-14
0.35707676
0
0.38883033
0
0.42133252
0
0.45436963
-2.3351612e-14
0.48777238
2.2518565e-14
0.52141052
-2.1725159e-14
0.55543319
-2.095374e-14
0.590695
-2.020945e-14
0.62800037
3.2156651e-18
0.66701976
3.7592895e-14
0.70744825
0
0.75028813
-3.4975625e-14
0.7989625
9.2369871e-05
0.010548794
0.00020837777
0.019898668
0.00019297284
0.029025244
0
0.036178692
0
0.047824147
0
0.058868638
0
0.069806827
-1.0304476e-14
0.082562271
-9.9469748e-15
0.09694902
-4.1535154e-18
0.11161596
-9.2683818e-15
0.12769654
0
0.14656831
0
0.16717339
1.6672377e-14
0.18838074
1.6092728e-14
0.21042695
3.1072392e-14
0.2332892
-1.4997912e-14
0.25670267
-1.4474554e-14
0.28108239
1.3958994e-14
0.30729748
0
0.33577533
0
0.36611898
0
0.39764678
0
0.4299073
0
0.46258706
0
0.4955246
6.5175267e-14
0.52860536
0
0.56202409
0
0.59674584
-3.3070428e-18
0.63364024
1.8800631e-14
0.67224923
-5.0347898e-18
0.71225258
0
0.75472073
0
0.80316992
9.9225414e-05
0.010529501
0.00025848878
0.019965094
0.00032594786
0.029238523
0.00026064037
0.038895627
0
0.044825571
0
0.05515343
0
0.065378508
-4.7248198e-18
0.077286765
4.8411659e-18
0.090745159
0
0.10444362
9.2678232e-15
0.11944107
-8.9411435e-15
0.13724351
0
0.15676398
0
0.1767759
0
0.19761374
-1.5532319e-14
0.21928381
0
0.2414176
0
0.26435018
1.3964169e-14
0.28889457
0
0.31550456
0
0.34407016
-1.2545167e-14
0.37428575
0
0.40571235
0
0.43775261
0
0.47008156
0
0.50254223
0
0.53506256
0
0.56791912
-1.9492423e-14
0.60216458
5.6398343e-14
0.63869695
0
0.67700575
-4.5728586e-18
0.71664261
0
0.75880562
0
0.80715665
9.6816413e-05
0.01052269
0.00027834424
0.020044178
0.00040522878
0.029447218
0.00044044372
0.039258697
0.00032289573
0.047774392
0
0.05163653
0
0.061228838
0
0.072356786
-9.9509422e-15
0.084939762
9.6051881e-15
0.097726285
0
0.11169264
8.9405407e-15
0.12847517
4.7450724e-18
0.14695988
0
0.16581249
0
0.18547003
1.5531711e-14
0.2059928
0
0.22690649
1.447445e-14
0.24847347
0
0.271491
-2.6956313e-14
0.29636831
2.6006953e-14
0.32306182
-3.9180513e-18
0.35156136
0
0.3817647
0
0.41311076
0
0.44494989
-5.6212014e-18
0.47690552
0
0.50887168
0
0.54085322
-1.9498921e-14
0.57317781
3.0265946e-18
0.60700063
-2.6528477e-18
0.64326191
1.7488176e-14
0.68130064
3.373328e-14
0.72066814
3.2538531e-14
0.76261614
0
0.81079382
8.6700451e-05
0.010528066
0.00027215217
0.020135028
0.00043717548
0.02965813
0.00054765465
0.03959931
0.00054503764
0.048269731
0.00037016406
0.054585266
0
0.057323415
0
0.067751045
0
0.079509013
-4.0989033e-18
0.091436326
-9.2668904e-15
0.10442409
0
0.12023469
-8.6393941e-15
0.13773046
-8.3349883e-15
0.1554659
0
0.17397666
1.5537856e-14
0.19339523
-5.6650922e-18
0.2131433
0
0.23341696
1.3969236e-14
0.2550229
-1.3480894e-14
0.27833916
0
0.30328754
0
0.32991841
1.2106436e-14
0.35846657
-1.1679458e-14
0.38871719
0
0.41997621
0
0.45155067
-2.096894e-14
0.48310009
0
0.51457555
0
0.54603798
0
0.57786902
0
0.6113115
1.7489705e-14
0.64734145
-1.6869802e-14
0.68521759
3.2536104e-14
0.72435973
0
0.76611253
-3.0268394e-14
0.81417914
7.0420111e-05
0.010545033
0.00024418844
0.020236022
0.00042815252
0.029869906
0.00059074069
0.039924045
0.00067691545
0.0487135
0.00062411781
0.055235295
0.00040299233
0.060196679
0
0.06342903
0
0.074427995
0
0.085545218
-3.8706591e-18
0.097606648
4.7942858e-18
0.11249151
8.6341736e-15
0.12904701
-8.3388035e-15
0.14570972
0
0.16310928
0
0.18146789
0
0.20010586
0
0.21914764
0
0.2394336
-1.3476991e-14
0.26133475
-1.3009412e-14
0.28471711
1.2553053e-14
0.30958554
1.2108078e-14
0.33631339
0
0.36498975
1.1272006e-14
0.39521396
2.1745683e-14
0.42632349
0
0.45760397
0
0.48872162
0
0.51971737
1.8811623e-14
0.55067691
0
0.58202318
0
0.61514082
1.6869066e-14
0.65102458
-1.6270883e-14
0.68875836
3.1381094e-14
0.72773789
3.026593e-14
0.76933538
-2.6883921e-18
0.8171746
4.9512304e-05
0.010573379
0.00019865115
0.020346036
0.00038463867
0.03008064
0.0005783663
0.040232108
0.00072916741
0.049119112
0.00077414462
0.055807169
0.00067945652
0.061088211
0.00043066591
0.066148775
0
0.069647504
0
0.080026583
0
0.091217107
-8.9487507e-15
0.10521566
5.0039476e-18
0.12087835
-8.3385287e-15
0.13651632
-3.6872787e-18
0.15284581
3.4421166e-18
0.17018817
0
0.1877683
0
0.20563806
1.3965128e-14
0.22468204
0
0.24527711
-1.3006035e-14
0.26725179
1.2550413e-14
0.29053073
-1.2109664e-14
0.3154765
1.1683243e-14
0.34240235
0
0.37114379
0
0.40129607
0
0.43221663
0
0.463141
0
0.49382753
0
0.52434552
0
0.55480154
0
0.58571048
0
0.61854984
-1.6272118e-14
0.65432267
0
0.69198292
0
0.7308102
0
0.77222523
2.8154046e-14
0.8198946
2.5521703e-05
0.010613541
0.00013986589
0.020464293
0.00031322098
0.030288394
0.00051931534
0.040522417
0.00071283306
0.049486402
0.00083284601
0.056318574
0.00084266668
0.061880441
0.00072624769
0.067260988
0.00045726676
0.072104406
-9.6040134e-15
0.074830825
0
0.085238697
0
0.098386658
0
0.11319616
8.3382904e-15
0.12786072
0
0.14316251
1.5532932e-14
0.15953078
2.8716446e-18
0.17610774
0
0.19286179
0
0.21073042
-4.2824008e-18
0.23010885
-1.3006658e-14
0.25079618
1.2555136e-14
0.27264386
1.2111098e-14
0.29595782
-1.1685086e-14
0.32115705
0
0.3482475
0
0.37695865
-1.048922e-14
0.40698681
0
0.43765456
0
0.4682172
-1.8821198e-14
0.49845821
0
0.52849049
1.7498083e-14
0.55847553
1.6873687e-14
0.58897006
0
0.62158047
-1.5694171e-14
0.65730394
0
0.69488298
0
0.733594
0
0.77483623
-2.120421e-18
0.82224672
0.010664794
0
7.2162343e-05
0.020589439
0.00022067659
0.030491516
0.00042261385
0.040792393
0.00063906559
0.049814811
0.00081308126
0.056769404
0.00090642722
0.062587666
0.00090096305
0.068256119
0.00077070322
0.073415421
0.00047819323
0.076929479
0
0.079633432
0
0.09198713
0
0.10597451
8.3339568e-15
0.11971707
-8.0441089e-15
0.13403789
0
0.14947181
-7.4979445e-15
0.16509594
7.2369451e-15
0.180793
0
0.19754992
0
0.21578311
-4.0879532e-18
0.23527248
3.7077667e-18
0.25581632
-2.4228253e-14
0.27766439
0
0.30121265
0
0.32663855
1.0876889e-14
0.35378714
0
0.38242909
0
0.41229854
0
0.44269389
0
0.47285612
-3.5136344e-18
0.50264032
0
0.53220685
-1.6879479e-14
0.56173531
0
0.59185844
1.5695778e-14
0.62428265
-1.5136602e-14
0.65997096
0
0.69752171
-2.8157518e-14
0.73609573
0
0.77713244
2.6189475e-14
0.82432724
0.020718901
0
0.010725507
-2.581304e-05
0.00011389022
0.030687497
0.00029747971
0.041039888
0.00051922413
0.05010296
0.00072793064
0.057159296
0.00088472242
0.063207596
0.00096930445
0.069146771
0.00095569074
0.074579993
0.00080546782
0.078461188
0.00049256325
0.081319683
0
0.085984599
0
0.099187323
0
0.1120589
-8.0475123e-15
0.12544424
7.7677924e-15
0.13998629
0
0.154707
-7.236877e-15
0.16940583
6.9847775e-15
0.18511119
0
0.20226348
0
0.22062696
0
0.23995252
-1.2116985e-14
0.26046524
3.3184631e-18
0.2824971
1.1277142e-14
0.30628963
-1.0879245e-14
0.33188572
1.0494403e-14
0.35904407
0
0.38757651
-9.7622372e-15
0.41725808
0
0.44734353
0
0.47709085
1.7507188e-14
0.50642017
0
0.53553096
0
0.56462977
0
0.59440436
0
0.6266899
1.4597379e-14
0.66239138
0
0.69988843
-2.715704e-14
0.73833451
0
0.77916349
0
0.82606219
0.03087322
0
0.020851333
-7.3053061e-05
0.010795748
-5.0648236e-05
0.00015337878
0.04126266
0.00036488082
0.05034942
0.00059058762
0.057486439
0.00079178833
0.063738557
0.0009462391
0.069927313
0.0010278509
0.075622163
0.00099822897
0.079817164
0.00082943596
0.083090292
0.00050903111
0.087290988
0
0.092778505
-8.3336499e-15
0.10486243
0
0.11736167
-3.5559079e-18
0.13104565
2.9223025e-18
0.14491222
7.2368082e-15
0.15867214
0
0.17338706
2.1320562e-18
0.1895176
0
0.20681807
0
0.22499159
1.2114595e-14
0.2442666
1.1689847e-14
0.26492544
3.2162718e-18
0.28718071
-3.1786474e-18
0.31121123
0
0.33693926
1.0125002e-14
0.36405053
0
0.39242362
0
0.42189158
-1.8162174e-14
0.4516378
0
0.48094826
-3.3774947e-14
0.50983181
0
0.53850144
0
0.56718021
1.5138723e-14
0.59666319
-1.4598693e-14
0.62886792
1.4078676e-14
0.66457584
0
0.70203093
0
0.74031623
0
0.78090493
0
0.82756325
0.04145816
0
0.031049416
-0.00011525696
0.02098504
-0.00014332315
0.010876551
-7.2843847e-05
0.00018781915
0.050553242
0.00041444917
0.057749359
0.00064215052
0.064178276
0.00084696518
0.07059377
0.0010031455
0.076535878
0.0010730527
0.081024852
0.0010275766
0.084657745
0.00085705364
0.089350132
0.0005298101
0.093660055
0
0.098065256
-8.0471434e-15
0.10977127
0
0.12262975
7.4946759e-15
0.13568575
-7.2345994e-15
0.14856318
0
0.16234581
0
0.17751147
-6.5041016e-15
0.19380967
0
0.21088852
0
0.22899581
1.1691129e-14
0.24839679
0
0.26924362
1.0886838e-14
0.29175196
-1.0502662e-14
0.31603579
-2.0258637e-14
0.34181449
2.9307613e-14
0.36878105
-9.4230182e-15
0.39699342
0
0.42621426
-1.7518801e-14
0.45558633
0
0.4844665
1.6289114e-14
0.51290664
0
0.54113472
0
0.56943823
0
0.59869041
0
0.63084997
-1.1453627e-18
0.66657284
0
0.70393414
0
0.74206787
0
0.78241421
-2.3497283e-14
0.82878691
0.050712136
0
0.041630209
-0.00015485965
0.031213211
-0.00022596611
0.021117461
-0.0002059862
0.01096752
-9.0664225e-05
0.00021303157
0.057946771
0.00045041821
0.064523385
0.00068695532
0.071142341
0.00089769185
0.077314877
0.0010468213
0.082081251
0.0011042443
0.08604145
0.0010615065
0.091170629
0.00089179398
0.09604965
0.00054535503
0.098424672
0
0.10261453
0
0.11471564
0
0.12700258
-2.1148198e-18
0.13905159
6.9847166e-15
0.15195845
-6.7413642e-15
0.16621148
0
0.18156336
0
0.1976038
0
0.21460377
0
0.23283089
-1.1285398e-14
0.25238955
0
0.27346992
1.0505081e-14
0.29627788
1.0130591e-14
0.32073527
1.9545507e-14
0.34645252
9.4211831e-15
0.37327172
-2.3430559e-18
0.40129739
2.0743216e-18
0.43024258
0
0.4592272
0
0.48766353
1.5707892e-14
0.51565849
0
0.54347544
0
0.57144098
-1.4082772e-14
0.60052891
0
0.63267655
1.309572e-14
0.66837316
0
0.70564896
-2.4363357e-14
0.74359335
0
0.78368199
-2.2662319e-14
0.82981276
0.058075896
0
0.05083527
-0.00018902465
0.041776667
-0.00030321382
0.031357238
-0.00032439645
0.021246232
-0.00025608562
0.011067122
-0.00010230437
0.00023138825
0.064769877
0.00048183667
0.071568263
0.00072795621
0.077953069
0.00093652244
0.082982548
0.0010768899
0.087241916
0.0011402153
0.092763826
0.0011042423
0.098141794
0.00091784746
0.10112474
0.00055283661
0.10241334
0
0.10724321
0
0.1188376
7.2345239e-15
0.13011451
-6.9846763e-15
0.142191
6.7413741e-15
0.15558542
0
0.17004345
0
0.18510006
1.6594367e-18
0.20104926
0
0.2181719
0
0.23653657
0
0.25629983
0
0.27767936
0
0.30076456
9.7743188e-15
0.32527815
0
0.35086574
-9.0935415e-15
0.37752296
-2.2114448e-18
0.405349
8.4540847e-15
0.43398475
0
0.46256862
0
0.49055796
1.5149521e-14
0.51812518
1.460661e-14
0.54554666
0
0.57322786
-1.3581928e-14
0.60220551
0
0.63435913
-9.5923642e-19
0.6700149
0
0.70715531
0
0.74491796
0
0.78474977
0
0.83060207
0.06491362
0
0.058152561
-0.00021381518
0.050920437
-0.00036954935
0.041888174
-0.00043473358
0.031478236
-0.00040267914
0.021369322
-0.00028848274
0.011176232
-0.00010592536
0.00024750829
0.071866718
0.00051051744
0.078446379
0.00075926081
0.083723354
0.00096311356
0.088258621
0.0011114736
0.094128645
0.0011857504
0.099965293
0.001136329
0.10348561
0.0009304583
0.10542355
0.00055724353
0.10645384
0
0.11111113
7.2344788e-15
0.12173205
6.9826814e-15
0.13302362
-6.7413809e-15
0.14560177
6.5064564e-15
0.15921326
0
0.17334003
-6.0604439e-15
0.1882934
-5.8470739e-15
0.20437365
0
0.22161684
0
0.24016371
-1.0509393e-14
0.26021098
1.0135826e-14
0.28189402
0
0.30513402
9.4302674e-15
0.32959652
0
0.35504634
-2.3433358e-18
0.38154944
-8.4577784e-15
0.40914435
1.8072254e-18
0.43746356
0
0.46562753
0
0.49317352
2.9221462e-14
0.5203254
0
0.54738155
0
0.57481486
1.309783e-14
0.60374937
9.6617866e-19
0.6359159
2.4363357e-14
0.6714923
-1.174806e-14
0.70849407
0
0.74604247
2.1856106e-14
0.7856121
-2.1080377e-14
0.83123053
0.072033721
0
0.064974204
-0.0002319051
0.058176222
-0.00041748621
0.050955136
-0.00052911328
0.041962454
-0.00053891984
0.031573724
-0.00045277674
0.021484426
-0.00029801222
0.011297233
-9.9601075e-05
0.00026221646
0.078791854
0.00053243121
0.084300062
0.00078068275
0.089089586
0.00099357666
0.095262716
0.0011553651
0.10151484
0.001219885
0.10554058
0.0011518257
0.10805639
0.00093792302
0.1097565
0.00055899435
0.10971696
0
0.11381534
-6.9826563e-15
0.1244352
6.7391962e-15
0.13623144
-2.1931456e-18
0.14904136
6.2796771e-15
0.16228696
6.0590559e-15
0.17629727
-1.601064e-18
0.19139262
-5.6429548e-15
0.20757844
0
0.22498445
0
0.24379751
-1.0141276e-14
0.26412953
-9.7800627e-15
0.28602232
9.4363812e-15
0.30932936
9.097968e-15
0.33370431
-8.7758298e-15
0.35901741
-1.6923214e-14
0.38535278
-8.1578736e-15
0.41270893
7.8628834e-15
0.44067705
0
0.46841977
0
0.495531
-1.4092578e-14
0.52228593
1.3587062e-14
0.54898779
1.3099704e-14
0.57623544
1.2631963e-14
0.60516984
-1.2181734e-14
0.63735835
-1.1748206e-14
0.67282585
0
0.70964061
-1.0389873e-18
0.74699646
0
0.78630876
0
0.83167183
0.078985678
0
0.072093278
-0.00024794278
0.064950267
-0.00045242189
0.058129666
-0.00059703978
0.05093878
-0.00065511261
0.041996512
-0.00060515799
0.031639673
-0.00046657676
0.021592961
-0.00027939397
0.011430723
-8.1289009e-05
0.00027346748
0.084709604
0.00054737436
0.089731453
0.0008049565
0.096163579
0.0010321465
0.10278558
0.0011882199
0.10728224
0.0012364147
0.11034032
0.0011608873
0.11264377
0.00094046862
0.11329747
0.00055510172
0.11182979
0
0.11633628
0
0.12744572
0
0.13948951
-1.8071346e-18
0.15190499
0
0.16502545
0
0.17918976
5.643418e-15
0.19437576
1.5071662e-18
0.21070519
-1.0509925e-14
0.22836875
0
0.24744482
-9.7857473e-15
0.26799684
0
0.29005139
2.867303e-18
0.31337001
0
0.33762967
8.4631594e-15
0.36279506
-2.1081892e-18
0.38895208
0
0.41603066
7.5850181e-15
0.44364201
2.5091819e-18
0.470954
1.4097454e-14
0.49764399
0
0.52401059
0
0.55040053
0
0.57749855
1.2182638e-14
0.60648539
0
0.63867409
1.1330567e-14
0.67399547
0
0.71063944
-2.1080119e-14
0.74777806
-2.0330695e-14
0.78683943
-1.9609066e-14
0.83199182
0.084947103
0
0.079059853
-0.00026268099
0.072043683
-0.00048351166
0.064819409
-0.00064639989
0.05801314
-0.00073842211
0.050869598
-0.00073485405
0.041988267
-0.00062280661
0.031671083
-0.00043605421
0.021693525
-0.00022717621
0.01157699
-4.8845188e-05
0.00028114409
0.090182101
0.00056407017
0.096831351
0.0008356071
0.10377344
0.001061206
0.10870655
0.0012041897
0.11227039
0.0012459689
0.11514309
0.0011638901
0.11641858
0.0009339028
0.11568233
0.00054769934
0.11377471
0
0.11916508
0
0.13052266
-6.279852e-15
0.14216105
6.0594596e-15
0.15444262
-5.8480499e-15
0.16772735
0
0.18196904
0
0.19727772
1.5239278e-18
0.21385988
0
0.23177361
9.7881593e-15
0.25105431
0
0.27181105
0
0.29399409
0
0.31725529
0
0.34136144
8.1635384e-15
0.36638913
-1.9890277e-18
0.39233501
7.586995e-15
0.41911057
7.315178e-15
0.44633977
0
0.47323973
-1.3595423e-14
0.49951868
-1.3292734e-18
0.52553195
1.2635851e-14
0.55162823
0
0.57862694
-7.435038e-19
0.6076745
-1.1330794e-14
0.63987016
-1.0929027e-14
0.67501565
1.0539465e-14
0.71146794
2.0330321e-14
0.7484149
1.9608903e-14
0.78723154
0
0.83215309
0.090438081
0
0.085052269
-0.00027406595
0.079013072
-0.00051231145
0.071857986
-0.0006904813
0.064583813
-0.00079868513
0.057828026
-0.00082756782
0.050746254
-0.00075566864
0.041931965
-0.00058121711
0.031666247
-0.00035322653
0.0217871
-0.00013591989
0.011727852
0
0.00028957018
0.097267361
0.0005850979
0.10447861
0.00085876725
0.10980883
0.0010752818
0.11384346
0.001213242
0.11724897
0.0012488937
0.1191285
0.0011556913
0.11905186
0.00092170586
0.11793092
0.00054057853
0.11601805
-6.504221e-15
0.12205735
0
0.1330214
0
0.14451591
-1.6027613e-18
0.15697192
5.6456887e-15
0.17031724
5.44701e-15
0.18466057
0
0.20022019
5.0735786e-15
0.21704768
9.7873115e-15
0.2351469
9.4450903e-15
0.25463487
0
0.27558484
0
0.29781021
0
0.32096066
8.1674548e-15
0.34493641
1.5750434e-14
0.36979914
-1.8609953e-18
0.39548759
7.3172189e-15
0.42192846
0
0.4487911
0
0.47527836
0
0.50118077
-1.2639996e-14
0.52685977
1.2186013e-14
0.55269663
0
0.57960538
0
0.60875851
6.5466044e-19
0.6409001
-5.3020099e-19
0.67587958
0
0.71217115
0
0.7488948
0
0.78747803
-1.8241499e-14
0.83224348
0.097470936
0
0.090543062
-0.00028181819
0.085022982
-0.00053474721
0.078811862
-0.00073175627
0.071537686
-0.00085264385
0.06424356
-0.0008941965
0.057575749
-0.00085039766
0.05056705
-0.00070484802
0.041827519
-0.00047017657
0.031625548
-0.00021039706
0.021864286
-1.2738205e-14
0.010805006
0
0.00030009411
0.10490217
0.00060103105
0.1105856
0.00087000051
0.11505702
0.0010830887
0.1189576
0.0012158958
0.12141784
0.0012402447
0.12199401
0.0011409384
0.12158412
0.00091001843
0.12048669
0.00053385124
0.11829857
0
0.12439303
0
0.13521005
0
0.14688318
5.6444452e-15
0.1593867
1.4709603e-18
0.17281355
0
0.18740558
1.0145645e-14
0.20321062
1.5326114e-18
0.22021034
0
0.23850587
0
0.25820936
0
0.2793027
0
0.3015066
8.1739261e-15
0.32452959
7.8781556e-15
0.34835517
0
0.37300459
-7.3226384e-15
0.39839189
0
0.42449382
6.8034255e-15
0.45098286
0
0.47709673
0
0.50264331
0
0.52801876
-1.1752892e-14
0.55359323
0
0.58045968
-5.5648595e-19
0.60967421
0
0.64178015
-2.0330322e-14
0.6765991
-1.9607825e-14
0.71271192
1.8911519e-14
0.74924552
0
0.78763583
0.00761399
0.82460861
0.10504537
0
0.097493081
-0.00028996249
0.090493356
-0.00054997232
0.084816733
-0.00076418748
0.078457348
-0.00090383759
0.071081211
-0.00095387662
0.06379968
-0.00091785057
0.057255126
-0.00079283726
0.050331349
-0.00057000037
0.04167437
-0.00027958139
0.031543931
7.0332959e-18
0.020169165
0
0.011670604
0
0.00030808858
0.11103607
0.00060875665
0.11590723
0.0008761209
0.12026597
0.0010852697
0.1232782
0.0012076087
0.12449574
0.0012248566
0.12478231
0.001126891
0.12443072
0.00089901781
0.12305593
0.00052597166
0.12003952
0
0.12643547
0
0.13742072
0
0.14913427
-1.454749e-18
0.16169889
1.5142117e-18
0.17537516
-5.0735237e-15
0.1902133
-4.8970867e-15
0.20617892
0
0.22336848
0
0.2418838
8.7906431e-15
0.26177078
8.4780171e-15
0.28293373
0
0.30507407
0
0.32796314
0
0.3516041
0
0.37598228
0
0.4010422
-6.8067754e-15
0.42679945
0
0.45294972
0
0.47870371
0
0.50392748
-1.1755426e-14
0.52899813
0
0.55434959
-1.0929508e-14
0.58116092
-2.1079702e-14
0.61044224
1.0165059e-14
0.64245331
-1.960764e-14
0.6771615
1.8911147e-14
0.71314436
-1.8241245e-14
0.74947025
0.014977306
0.78041989
0.0069340026
0.81757222
0.11115964
0
0.10497239
-0.00029994389
0.097330328
-0.00056556044
0.090235419
-0.00078613464
0.084434546
-0.00094452419
0.077950176
-0.0010115054
0.070491123
-0.00097831152
0.063250024
-0.00085470515
0.05686258
-0.0006409583
0.050038163
-0.00033895657
0.041461001
0
0.029219287
0
0.021644291
0
0.012597452
8.5627661e-18
0.00031196357
0.1163927
0.00061286884
0.12117302
0.00087769653
0.12470218
0.0010780668
0.12654651
0.0011931003
0.12751276
0.0012101557
0.12788577
0.0011135751
0.12725895
0.00088569887
0.12506822
0.00051612748
0.12150114
0
0.12849971
5.6464227e-15
0.13951765
0
0.15127435
-5.259527e-15
0.1640862
1.5619561e-18
0.17801064
-4.8963465e-15
0.19299947
-1.5435528e-18
0.20915229
4.5595067e-15
0.22656036
0
0.24525469
0
0.26527104
0
0.28648844
0
0.30854721
-7.6028185e-15
0.33125851
0
0.35465399
7.0642456e-15
0.3787199
6.8089795e-15
0.4034376
0
0.42886657
-6.3260396e-15
0.45469143
0
0.48012498
0
0.50502539
0
0.52982795
0
0.55495898
1.0540223e-14
0.58173386
-1.0165146e-14
0.61098873
0
0.64297196
-2.4764702e-19
0.67759865
-1.8240755e-14
0.71339954
0.022150515
0.74257183
0.013639891
0.77376425
0.0062065689
0.81112296
0.11651029
0
0.11103258
-0.00030751898
0.10468434
-0.0005844968
0.096923694
-0.00080798
0.089767546
-0.00097187155
0.083874099
-0.0010578161
0.077292587
-0.001037818
0.069770015
-0.00091017467
0.062597505
-0.00069020794
0.056395205
-0.00038110573
0.049668553
1.1458202e-14
0.038696227
0
0.031236045
1.229709e-14
0.023218202