/*--------------------------------*- C++ -*----------------------------------*\
| =========                 |                                                 |
| \\      /  F ield         | OpenFOAM: The Open Source CFD Toolbox           |
|  \\    /   O peration     | Version:  v2012                                 |
|   \\  /    A nd           | Website:  www.openfoam.com                      |
|    \\/     M anipulation  |                                                 |
\*---------------------------------------------------------------------------*/
FoamFile
{
    version     2.0;
    format      ascii;
    class       volScalarField;
    location    "20.525825016836894";
    object      p;
}
// * * * * * * * * * * * * * * * * * * * * * * * * * * * * * * * * * * * * * //

dimensions      [0 2 -2 0 0 0 0];


internalField   nonuniform List<scalar> 
9200
(
2.5925272e-05
-0.00016219213
0.0042450019
-0.00022152002
0.0039070233
0.0050706608
-0.00051757196
0.003783146
0.0045194594
0.0066197607
-0.00075919542
0.003269796
0.0041652627
0.0058986774
0.0080918631
-0.0011471844
0.0028327814
0.0032649311
0.0053376169
0.0072010238
0.009825651
-0.0015726003
0.0021830038
0.0023840912
0.0041294631
0.006426537
0.0087633229
0.011802671
-0.0021099597
0.0014750008
0.0011920085
0.0029073961
0.0049157838
0.0077652863
0.010558194
0.014086829
-0.0027337157
0.00060199641
-0.00015105697
0.001346644
0.0033787706
0.0059433909
0.0093078112
0.012654324
0.016717065
-0.0034563665
-0.00042040283
-0.0017939146
-0.00037171968
0.001523019
0.0040844088
0.0071305518
0.011114425
0.015096231
0.019750618
-0.0042528608
-0.0016379374
-0.0037789022
-0.0023958657
-0.00041349548
0.0019502808
0.0048769857
0.0085190908
0.013235213
0.017934949
0.023204208
-0.0050832475
-0.0030600684
-0.0062481467
-0.0047863418
-0.002522725
-0.00013826795
0.0023685415
0.0057541432
0.010159404
0.015739078
0.021229778
0.027028691
-0.0058762739
-0.0046866974
-0.0093382808
-0.0077313082
-0.0048089548
-0.0021676963
1.0424908e-05
0.002686486
0.006754264
0.012147279
0.018697631
0.02503662
0.03130297
-0.0065358111
-0.006483825
-0.013238041
-0.011452679
-0.0074055802
-0.0040175361
-0.0020594192
-0.00021836169
0.0029026372
0.0080011791
0.014599138
0.022177247
0.029308788
0.036163269
-0.0069443855
-0.0083720914
-0.018145199
-0.016297876
-0.010512435
-0.0056711729
-0.0035659521
-0.0027176318
-0.00091614242
0.0031612254
0.009678493
0.017628148
0.02622239
0.034005439
0.041338992
-0.0069837822
-0.010216295
-0.024268614
-0.02265095
-0.014413125
-0.0071592735
-0.0042926591
-0.0044034152
-0.0044004102
-0.0019368416
0.0037229904
0.011998154
0.021326275
0.030853138
0.039182205
0.04676484
-0.006561322
-0.011830041
-0.031839226
-0.03100559
-0.019526228
-0.0085900809
-0.004028104
-0.0048793333
-0.0070673026
-0.0069955181
-0.0029284235
0.0049195717
0.015166964
0.025705889
0.036039984
0.044742805
0.052467542
-0.0055876392
-0.012981317
-0.041062376
-0.042017858
-0.026423621
-0.01019203
-0.0026122579
-0.0037162403
-0.0084040298
-0.011535082
-0.010054477
-0.0033961119
0.0070960345
0.019395058
0.03061543
0.041819713
0.050624745
0.058316346
-0.0040388897
-0.013402413
-0.052098712
-0.056424744
-0.03575648
-0.012364758
5.4914616e-05
-0.0004952522
-0.0078419544
-0.015010554
-0.017271524
-0.012873594
-0.0027910255
0.01056585
0.024913457
0.036894623
0.048000196
0.056715781
0.064232975
-0.0020462458
-0.012873055
-0.065014081
-0.075174572
-0.048354883
-0.015578337
0.0039527525
0.0051592714
-0.0048020776
-0.016803811
-0.024103506
-0.023324257
-0.014618001
-0.0005831088
0.015503969
0.030771363
0.043582674
0.054458024
0.062910052
0.07013596
7.1784935e-05
-0.011278195
-0.079795279
-0.099468767
-0.06540333
-0.020661958
0.0089512693
0.013548581
0.0012473944
-0.016264146
-0.029987735
-0.034459661
-0.028487786
-0.014435805
0.0036088774
0.021793628
0.03774539
0.050660763
0.061071953
0.069112206
0.07595676
0.0017128637
-0.0086255597
-0.096050893
-0.13080018
-0.088174097
-0.028731799
0.014601597
0.024848702
0.010739693
-0.01278513
-0.034295697
-0.045908128
-0.044425766
-0.031440784
-0.011578389
0.0098964053
0.029475919
0.04551312
0.057995834
0.067720765
0.075232345
0.08163754
0.0025840298
-0.0049471009
-0.11314592
-0.17080236
-0.11800441
-0.040842332
0.020298517
0.039045277
0.023920871
-0.0058814884
-0.036410356
-0.057199362
-0.062410579
-0.052083454
-0.030889393
-0.0056164608
0.018320714
0.038325752
0.053792404
0.065426204
0.074291966
0.081197102
0.087131403
0.00485966
-0.0014508717
-0.13137796
-0.22212797
-0.1562757
-0.058671213
0.025138156
0.055968412
0.040789684
0.004696076
-0.035809725
-0.06782832
-0.08233021
-0.076867778
-0.055372578
-0.025951854
0.003462119
0.028534726
0.047995923
0.062306311
0.072791764
0.080689214
0.08694895
0.092404782
0.009363529
-0.0014625089
-0.15705372
-0.2889057
-0.2058208
-0.083735531
0.027753661
0.075172662
0.06104072
0.018873817
-0.032191391
-0.077316201
-0.10401231
-0.10629478
-0.086222516
-0.052640622
-0.016457737
0.015332094
0.040073211
0.058093584
0.070799841
0.07995188
0.086835814
0.092446853
0.097435215
0.01376028
-0.0060802682
-0.18876037
-0.36884083
-0.27310993
-0.11907183
0.026352924
0.095809886
0.083922053
0.036161298
-0.025561463
-0.085303594
-0.12722398
-0.14089786
-0.12471221
-0.087521025
-0.04321375
-0.0026213721
0.029347458
0.052360304
0.068236731
0.07905388
0.086794562
0.092676595
0.097664398
0.10221135
0.017322651
-0.013490428
-0.22316674
-0.45138681
-0.36012855
-0.17053603
0.018339696
0.1168005
0.10823696
0.055551809
-0.016373643
-0.091642453
-0.15174619
-0.18106823
-0.17267706
-0.1325602
-0.079230235
-0.027038897
0.014651614
0.04464371
0.064813498
0.078090543
0.086896153
0.093239401
0.098176538
0.10258864
0.10672983
0.020715588
-0.022418537
-0.25944897
-0.53500874
-0.46991939
-0.24279281
-0.0027606464
0.13670214
0.13240516
0.075567153
-0.0055785769
-0.096605223
-0.17745952
-0.22724381
-0.23185842
-0.19142918
-0.12616854
-0.060290168
-0.0055052558
0.034048248
0.060317682
0.076916304
0.087390686
0.094204178
0.099236628
0.10331875
0.10721709
0.11099485
0.024342598
-0.031479558
-0.2942164
-0.61646786
-0.58538706
-0.3334381
-0.043436716
0.15281702
0.15470418
0.094316421
0.0054858494
-0.10078387
-0.2045476
-0.27985153
-0.30437859
-0.26790636
-0.1904556
-0.10554386
-0.033324818
0.019450232
0.054170404
0.075566654
0.088261077
0.095951086
0.10090392
0.10476322
0.10810112
0.11155608
0.11501525
0.028399049
-0.040660027
-0.3271923
-0.69385545
-0.69580844
-0.42721184
-0.095565553
0.16236801
0.17222901
0.10949526
0.015129445
-0.10511157
-0.23330477
-0.33961982
-0.39238318
-0.36727925
-0.27694301
-0.16799596
-0.071906072
-0.00089353228
0.045689515
0.073773158
0.089761834
0.098564656
0.10366135
0.10696272
0.10981842
0.1125332
0.11561799
0.1188039
0.032390677
-0.049798802
-0.35661357
-0.76361732
-0.80082662
-0.5181748
-0.15563557
0.16184076
0.18218647
0.11861096
0.021396666
-0.11063874
-0.26397183
-0.40769224
-0.4986944
-0.49626062
-0.39404641
-0.2540875
-0.12583996
-0.029429498
0.033730362
0.0712857
0.091891106
0.10247441
0.10766352
0.11047609
0.11238219
0.11441829
0.11663291
0.1194196
0.12237547
0.036364122
-0.059140967
-0.38205296
-0.82234614
-0.89361711
-0.60054915
-0.21884463
0.14687777
0.18147009
0.11958754
0.022235668
-0.11844592
-0.29576038
-0.48098576
-0.62591428
-0.66304234
-0.55357914
-0.37370513
-0.20115898
-0.069754689
0.016683046
0.067542691
0.094764207
0.10788127
0.1134659
0.11549623
0.11640226
0.11718905
0.11859105
0.12042373
0.12298004
0.12574619
0.04006618
-0.069431888
-0.39929825
-0.87008649
-0.9718042
-0.67130728
-0.28006735
0.1154722
0.16717348
0.11072313
0.015916649
-0.12945638
-0.32829447
-0.55478635
-0.76315187
-0.86022736
-0.7645536
-0.54229704
-0.30814025
-0.12647258
-0.0078101437
0.061725592
0.098294331
0.11517142
0.12140345
0.12265715
0.12208117
0.12148493
0.12142792
0.12237241
0.12393226
0.12631978
0.12893228
0.043300133
-0.08122662
-0.40919725
-0.90169993
-1.0397165
-0.7307696
-0.33764405
0.068788828
0.13757374
0.090348906
0.0014269843
-0.14416158
-0.36082475
-0.62665272
-0.905941
-1.0780748
-1.0179552
-0.76410571
-0.46436541
-0.20930966
-0.042760439
0.052596534
0.10229047
0.12459056
0.13203528
0.13236471
0.13009034
0.12749385
0.12579484
0.12515385
0.12580231
0.12718643
0.12945934
0.13194991
0.045710787
-0.094253223
-0.41359171
-0.92155117
-1.0864189
-0.77925961
-0.38944026
0.011468239
0.093092883
0.057573303
-0.021548642
-0.16263972
-0.39192753
-0.69186762
-1.0511934
-1.3255493
-1.3192167
-1.030851
-0.66750562
-0.33265729
-0.095839549
0.038476033
0.10633621
0.13636906
0.14580129
0.14526477
0.14085402
0.13589126
0.13184618
0.12941749
0.12842742
0.12892186
0.13021404
0.1324187
0.13481421
0.047016584
-0.10801035
-0.41272471
-0.9253362
-1.1247051
-0.82086052
-0.43368467
-0.049455649
0.036742833
0.012837589
-0.052744267
-0.18454094
-0.42046176
-0.74801982
-1.1862992
-1.5907671
-1.6853185
-1.3597467
-0.90475425
-0.48884337
-0.17605856
0.014317252
0.10971699
0.15059321
0.16316242
0.16187741
0.15503724
0.14707998
0.14023637
0.13526997
0.13244484
0.13131004
0.13177155
0.1330417
0.13521654
0.1375395
0.046880651
-0.12135724
-0.40648097
-0.91258313
-1.1415737
-0.86244524
-0.47815952
-0.1112273
-0.026355456
-0.04182069
-0.091361722
-0.20893912
-0.44535858
-0.7931221
-1.3058297
-1.8610823
-2.0743882
-1.7499996
-1.2097149
-0.67032397
-0.27492013
-0.024812136
0.10959115
0.16712477
0.18444057
0.18274447
0.17315731
0.16169613
0.15131878
0.14332704
0.13790392
0.134969
0.13386135
0.13438951
0.13569417
0.13787018
0.14013866
0.044955948
-0.13285096
-0.39557581
-0.88420577
-1.1373796
-0.89007294
-0.51731159
-0.18570003
-0.09216707
-0.10478285
-0.13563252
-0.23457723
-0.46544999
-0.82294211
-1.4051398
-2.1006209
-2.4757766
-2.2738326
-1.6170086
-0.91976684
-0.3890959
-0.073278049
0.10331613
0.18456585
0.20975122
0.20824149
0.19573547
0.18020038
0.16566981
0.1538749
0.14537047
0.13988478
0.13707789
0.13613687
0.13681086
0.13819396
0.14039518
0.14262351
0.041173912
-0.14204991
-0.38078494
-0.84114728
-1.1103089
-0.90178747
-0.53969842
-0.25358055
-0.17280067
-0.16975389
-0.18433558
-0.26004738
-0.47866874
-0.84148352
-1.4772123
-2.2772017
-2.8320941
-2.7771333
-2.1213416
-1.274085
-0.54680051
-0.12892874
0.093535185
0.20141152
0.23843621
0.23851728
0.22309014
0.20303449
0.18366356
0.16741313
0.15505373
0.14656696
0.14134095
0.13885245
0.13818701
0.13906701
0.14056118
0.14280551
0.14500436
0.03569752
-0.14961698
-0.36202511
-0.78525922
-1.060407
-0.89206784
-0.54168297
-0.31618669
-0.25002246
-0.24311395
-0.23372203
-0.28483884
-0.48347492
-0.85326124
-1.5030036
-2.3811943
-3.1041933
-3.2115053
-2.596097
-1.6426591
-0.7643634
-0.20599133
0.081461365
0.21812203
0.26946563
0.27316176
0.25528668
0.23040589
0.20563572
0.18421667
0.16736934
0.15514404
0.14710145
0.14238903
0.14036506
0.14005626
0.14118564
0.14281344
0.1451133
0.14729047
-0.15644918
0.028511365
-0.33957873
-0.71932667
-0.9888377
-0.85667177
-0.52540797
-0.36815554
-0.33216475
-0.31549315
-0.2879537
-0.30629314
-0.48036122
-0.85323055
-1.489661
-2.4125544
-3.2703115
-3.5201611
-2.9903396
-2.0001817
-1.0144597
-0.31722798
0.060669351
0.23441835
0.30205274
0.3112795
0.29190207
0.26225106
0.23166664
0.20451003
0.182492
0.16594729
0.15440746
0.14713923
0.14313181
0.14167887
0.14178327
0.14319056
0.14496595
0.14732916
0.14948976
-0.31433457
-0.16341481
0.019590795
-0.64623954
-0.89467003
-0.79806201
-0.49542472
-0.40869081
-0.41186817
-0.39548571
-0.33703588
-0.32620832
-0.47269675
-0.83962772
-1.451891
-2.375931
-3.3252201
-3.6971778
-3.2719271
-2.300443
-1.2603754
-0.45780409
0.022154065
0.24697577
0.33445896
0.35151189
0.33198787
0.29804387
0.26156334
0.22825429
0.20054241
0.17905686
0.16350957
0.15307368
0.14682387
0.14365784
0.14284791
0.14340079
0.14510198
0.14703161
0.14946214
0.15160922
-0.56900746
-0.28707689
-0.17066832
0.0087949441
-0.78972228
-0.72105324
-0.4536349
-0.43728414
-0.48385563
-0.4782855
-0.39115323
-0.33834579
-0.45756893
-0.81141307
-1.3845866
-2.2846308
-3.2780419
-3.7432578
-3.4300479
-2.5210741
-1.4781265
-0.61144576
-0.04068381
0.24987669
0.3635172
0.3913489
0.37395002
0.33672443
0.29469428
0.25514948
0.2213816
0.19450305
0.17440246
0.16036828
0.1513391
0.14627729
0.14404172
0.14391734
0.1449361
0.14693661
0.14902126
0.15152002
0.15365476
-0.67972094
-0.49033482
-0.25856105
-0.1784806
-0.0039269067
-0.63091452
-0.40349227
-0.45235054
-0.5432928
-0.5574602
-0.45182731
-0.35505269
-0.43038921
-0.74645383
-1.2964804
-2.1529294
-3.1456957
-3.6702672
-3.466654
-2.6554362
-1.6571007
-0.76696494
-0.12812186
0.23435264
0.3849096
0.42691193
0.41515874
0.37659046
0.32992346
0.28449155
0.24463423
0.21206983
0.18704128
0.16894254
0.15678559
0.14936786
0.14560068
0.14434492
0.14492402
0.14641126
0.14870819
0.15094401
0.15350945
0.15563156
-0.53302158
-0.56718384
-0.41310096
-0.23045324
-0.1869683
-0.018384154
-0.34675915
-0.45090516
-0.58664002
-0.6278516
-0.51343308
-0.37568673
-0.40675658
-0.66216832
-1.1523089
-2.0009787
-2.9476248
-3.4988418
-3.3925426
-2.7031372
-1.7927432
-0.92040832
-0.23841251
0.19190457
0.39191385
0.45378911
0.45159313
0.4151435
0.36553121
0.31513035
0.26956587
0.2313374
0.20115451
0.17869093
0.16301786
0.15297699
0.14729418
0.14487622
0.14461677
0.1458972
0.14784391
0.15042801
0.15280755
0.155436
0.15754405
-0.28504549
-0.43141737
-0.4566153
-0.33843131
-0.20407158
-0.19601587
-0.034167847
-0.43383971
-0.61194265
-0.68391856
-0.56828659
-0.3944307
-0.38624803
-0.58437897
-0.99776492
-1.7599123
-2.7114677
-3.2686378
-3.2393783
-2.6760331
-1.8893876
-1.0703225
-0.37118395
0.11709362
0.3748874
0.46692439
0.47837906
0.44885394
0.39917803
0.34542568
0.29506648
0.25157911
0.21630409
0.18930465
0.16988226
0.1569035
0.14911583
0.14522531
0.14416873
0.14489567
0.14685969
0.14924828
0.15210548
0.15461796
0.15730394
0.15939603
-0.40431137
-0.22187178
-0.32939864
-0.35055219
-0.2680289
-0.17969851
-0.20558786
-0.05065676
-0.61864622
-0.72140125
-0.6108311
-0.41050238
-0.36738031
-0.51098903
-0.84962365
-1.5145012
-2.3926699
-3.0035942
-3.0503802
-2.6028319
-1.9457429
-1.2152164
-0.52690517
0.0065668327
0.32464368
0.45913576
0.49066496
0.4731573
0.42789771
0.37324724
0.31964192
0.2717658
0.2317994
0.2003469
0.17704669
0.16095572
0.15081696
0.14533842
0.14324451
0.1435277
0.14521081
0.14782942
0.15063587
0.15374748
0.1563794
0.15911648
0.16119053
-0.60775558
-0.36490372
-0.16071301
-0.23140736
-0.25090036
-0.20270203
-0.15673036
-0.21547155
-0.06719985
-0.73812391
-0.63808489
-0.42368068
-0.34846792
-0.4415292
-0.70567776
-1.2715845
-2.0751425
-2.6767814
-2.8310821
-2.5129306
-1.9680836
-1.3516249
-0.70636431
-0.14305071
0.23445356
0.42167078
0.48331791
0.48316554
0.44801361
0.39606068
0.34143535
0.29058096
0.24671683
0.21118039
0.1840884
0.16478829
0.15217567
0.14492636
0.14174881
0.14141416
0.14298993
0.14558458
0.14882041
0.15201446
0.15535746
0.15809454
0.16087704
0.16293001
-0.73374678
-0.58178996
-0.315962
-0.1019828
-0.1403504
-0.15881169
-0.14235999
-0.13542172
-0.22552616
-0.083270253
-0.64803745
-0.43030334
-0.32569573
-0.37309814
-0.5710097
-1.0326306
-1.7402913
-2.3549094
-2.5557687
-2.3952756
-1.9699526
-1.4780236
-0.90722232
-0.33783354
0.098053642
0.34649849
0.45023364
0.47440761
0.45534899
0.41102403
0.35832501
0.30646605
0.25993261
0.22099799
0.19043205
0.16799931
0.15283977
0.14374264
0.13935782
0.13842357
0.13977955
0.14258269
0.14603373
0.14984135
0.15338668
0.15693672
0.15976709
0.16259049
0.16461694
-0.6401876
-0.71030219
-0.54239444
-0.26216937
-0.045874652
-0.057669435
-0.075719604
-0.087552928
-0.11577758
-0.23522411
-0.097856293
-0.42723537
-0.29852485
-0.30545337
-0.44600288
-0.80935362
-1.4103178
-1.9993072
-2.2990897
-2.233146
-1.9598389
-1.5985947
-1.1210652
-0.58204922
-0.094870628
0.22578893
0.38488988
0.44279666
0.44582586
0.41510378
0.36804535
0.31771087
0.27017463
0.22886927
0.1953884
0.17007737
0.15243053
0.14143199
0.13580453
0.13420256
0.13541697
0.13837299
0.14232541
0.14656766
0.15089338
0.1547522
0.15849025
0.16140373
0.16426114
0.16625455
-0.41315127
-0.61618068
-0.66968431
-0.49383503
-0.20970694
0.0056847461
0.015416557
-0.002162038
-0.038917298
-0.097633185
-0.24378335
-0.10979666
-0.26758093
-0.24021255
-0.3305562
-0.60638168
-1.0997868
-1.6432533
-1.9959206
-2.0743188
-1.9388112
-1.7179518
-1.3451973
-0.86643296
-0.35592948
0.048913539
0.28015764
0.38408419
0.41532658
0.40511765
0.36833096
0.32248361
0.27606945
0.23376968
0.19820206
0.17044424
0.15049774
0.13763788
0.13073205
0.12846632
0.12952356
0.13276596
0.13721596
0.14222767
0.14718571
0.15197389
0.15611679
0.16003029
0.16300947
0.1658864
0.1679221
-0.23201944
-0.38868457
-0.57734955
-0.61587887
-0.439502
-0.16050922
0.051269107
0.078425842
0.061406114
0.0035888239
-0.081032265
-0.25030311
-0.11902224
-0.17728343
-0.22538466
-0.42586031
-0.81787446
-1.2938233
-1.673522
-1.8590322
-1.8933357
-1.8413827
-1.5982864
-1.1788809
-0.68230015
-0.19640999
0.12791155
0.29415421
0.36000074
0.3780586
0.35698377
0.31914585
0.27625774
0.23463465
0.19805425
0.16849993
0.14655913
0.1319666
0.12380299
0.12085664
0.12179876
0.12536145
0.130493
0.13631743
0.14228651
0.14788244
0.15308961
0.15749745
0.16156383
0.16457704
0.16752702
0.16965355
-0.11664807
-0.19264285
-0.35445791
-0.5266285
-0.55257439
-0.38274364
-0.11545972
0.090177322
0.13121894
0.11489215
0.039452105
-0.067226169
-0.25399445
-0.12646142
-0.13014942
-0.26764252
-0.56909621
-0.97187811
-1.345751
-1.60661
-1.7836515
-1.8965293
-1.9034004
-1.5506687
-1.0610822
-0.51660023
-0.080509687
0.16705809
0.29268761
0.33281237
0.33226843
0.30617271
0.2695567
0.23050441
0.19421377
0.16361903
0.14015481
0.12401614
0.11467451
0.11105134
0.11188255
0.11584445
0.12173789
0.12860543
0.13567186
0.14249319
0.14866467
0.15426376
0.15890282
0.16306731
0.16616065
0.16923097
0.17140306
-0.044850067
-0.058697396
-0.1506982
-0.31217077
-0.46710839
-0.48363332
-0.32640299
-0.075489828
0.12191963
0.1732488
0.15804182
0.068714238
-0.05737751
-0.25425972
-0.13159985
-0.13140582
-0.35526806
-0.6859922
-1.0349683
-1.3369391
-1.6182099
-1.8925275
-2.1023916
-2.063056
-1.5279037
-0.91268932
-0.35098284
-0.00099035547
0.18468666
0.26889898
0.2930545
0.28253464
0.25492371
0.22055831
0.18594748
0.15529178
0.13082454
0.11343812
0.10300742
0.098747239
0.099463323
0.10385218
0.11062197
0.11865697
0.12709511
0.13526702
0.14285327
0.14956009
0.1555062
0.16029536
0.16458078
0.16783756
0.17096265
0.17317023
-0.016402506
0.03080536
-0.0048966201
-0.10685214
-0.26463341
-0.40164325
-0.41261958
-0.2728151
-0.041081463
0.14668132
0.20522893
0.19115309
0.090394425
-0.050070566
-0.24883646
-0.13426965
-0.17638094
-0.44045963
-0.75332265
-1.0693798
-1.4188917
-1.8292297
-2.2696082
-2.4671413
-2.1929962
-1.3881852
-0.69876995
-0.21322252
0.049771695
0.18304612
0.23856635
0.24756755
0.23173413
0.20407698
0.17273728
0.14303417
0.11823655
0.099925117
0.088534761
0.083654243
0.084263921
0.089078299
0.096778527
0.10613096
0.11610852
0.12594672
0.13510456
0.14339577
0.15057874
0.15675867
0.16172184
0.16623218
0.16954998
0.17272203
0.17495497
-0.030759288
0.07936936
0.095809831
0.044791245
-0.062507851
-0.21479646
-0.33294234
-0.34231533
-0.22347191
-0.01110295
0.16595188
0.2295632
0.21415158
0.11018486
-0.045883023
-0.23557963
-0.1337972
-0.2367978
-0.50851769
-0.81713775
-1.2006718
-1.7161049
-2.3767026
-2.8775652
-2.8215704
-2.080616
-1.1049695
-0.47463766
-0.11234155
0.07654931
0.16846482
0.20086486
0.19954865
0.18073277
0.15410971
0.12650887
0.10208654
0.083278574
0.071094323
0.065578522
0.06603753
0.071261951
0.079900929
0.090655714
0.10236161
0.11407551
0.12515498
0.13520835
0.14412856
0.15164445
0.1580866
0.16336386
0.16792891
0.17130178
0.17450835
0.176757
-0.072987987
0.08564727
0.15674097
0.15124272
0.089967132
-0.019107102
-0.16570497
-0.26312421
-0.27480725
-0.17812909
0.015693818
0.18236604
0.24685476
0.2325382
0.1283721
-0.044189461
-0.2137736
-0.12827193
-0.30407238
-0.59128621
-0.97799143
-1.559328
-2.4000945
-3.2406212
-3.5191375
-2.8805629
-1.6727305
-0.77699625
-0.30177554
-0.048731215
0.083570714
0.14265646
0.15843343
0.15023787
0.12995645
0.1054405
0.082196418
0.063340719
0.050585932
0.044457842
0.044646179
0.050186722
0.059737443
0.071919546
0.085476429
0.099297457
0.11254008
0.12472913
0.13558069
0.14496094
0.15287929
0.15973706
0.16505757
0.16968098
0.17308931
0.17632071
0.17857591
-0.13868421
0.056399023
0.17595522
0.21863329
0.1977207
0.13023414
0.022121024
-0.12040944
-0.19661853
-0.21257548
-0.13520887
0.039499067
0.19662554
0.25976193
0.24547618
0.14486861
-0.044816228
-0.18486859
-0.11692333
-0.39801868
-0.76641321
-1.3705988
-2.3438196
-3.5429393
-4.2326512
-3.8377974
-2.4285274
-1.1828098
-0.51403546
-0.19051309
-0.014461385
0.073810538
0.10871877
0.11288603
0.10006669
0.079855412
0.058436474
0.040057893
0.026968914
0.0202812
0.020094249
0.025758608
0.036090016
0.049672662
0.065134598
0.081229308
0.09689982
0.11148029
0.12465922
0.13612828
0.14611887
0.15458072
0.16144655
0.16682265
0.17148177
0.17491109
0.17815793
0.18041118
-0.23816986
-0.0069035054
0.15515185
0.24486709
0.26705241
0.23586204
0.16542412
0.060475288
-0.077565165
-0.13735623
-0.15385771
-0.098172089
0.064614063
0.20727028
0.26753441
0.25279598
0.16032206
-0.043347328
-0.15067961
-0.10114897
-0.57705293
-1.1722731
-2.2445776
-3.7721717
-4.9186095
-4.9144075
-3.392467
-1.7588321
-0.78325847
-0.34681377
-0.12310695
-0.0043165802
0.051288319
0.068903294
0.064866015
0.049568094
0.030903575
0.013419054
0.00029784217
-0.0068955852
-0.0075571618
-0.0019836478
0.0088781369
0.023722028
0.041081367
0.059545986
0.077851332
0.095099586
0.11086823
0.12486746
0.13725495
0.1479217
0.15634562
0.16324699
0.16864826
0.1733295
0.17676488
0.1800188
0.18226199
-0.41509012
-0.10747782
0.09407221
0.22912021
0.29605127
0.30394906
0.2665239
0.19575274
0.095365177
-0.035212455
-0.086014442
-0.10874352
-0.058772185
0.086335262
0.21441779
0.27042133
0.25452612
0.172008
-0.033632347
-0.11352333
-0.083171674
-0.98618712
-2.0950287
-3.8873272
-5.5285795
-6.0357258
-4.5555432
-2.5321825
-1.1652369
-0.53503046
-0.24129116
-0.089529734
-0.012902531
0.019245449
0.024339206
0.015090279
-0.00057791616
-0.016439979
-0.029332768
-0.036919339
-0.038164653
-0.032919306
-0.021821318
-0.006012765
0.013117831
0.033982724
0.055056748
0.07519659
0.093850134
0.1106789
0.12604127
0.13923509
0.14979382
0.15821968
0.16512267
0.17053285
0.17522079
0.17864848
0.18190212
0.18412737
-0.81645494
-0.27830142
-0.0058209248
0.17025712
0.28272746
0.33283895
0.33122427
0.2906069
0.22110662
0.12710607
0.0058830159
-0.046706474
-0.058844962
-0.020736197
0.1054668
0.2181704
0.2681368
0.25120854
0.17608252
-0.013798482
-0.076610382
-0.063732077
-1.9110019
-3.8428306
-6.000864
-7.1154989
-5.8801125
-3.5213648
-1.6731872
-0.79898521
-0.37750031
-0.18096251
-0.081919141
-0.035669103
-0.020439165
-0.023900938
-0.035464842
-0.049666484
-0.061756308
-0.069594803
-0.071486814
-0.066832245
-0.055861467
-0.039434266
-0.018831853
0.0043291614
0.028239885
0.051416931
0.073172918
0.093203172
0.11201013
0.12831667
0.14130243
0.15179388
0.16018264
0.16707242
0.17247203
0.17715275
0.18055913
0.18380656
0.18600666
-1.7110637
-0.65585884
-0.17053847
0.072146419
0.22595291
0.32007471
0.35786381
0.35036714
0.30863866
0.24250715
0.15417021
0.03814024
-0.010874272
-0.021276256
0.015508983
0.12103117
0.21896118
0.2618509
0.24351008
0.17235939
0.010938489
-0.041056936
-0.041513045
-3.6566001
-6.2776946
-8.0249986
-7.2181805
-4.6925918
-2.3451268
-1.1365699
-0.56676423
-0.28170847
-0.15538996
-0.093809167
-0.069753798
-0.06616286
-0.074397291
-0.085741972
-0.097045173
-0.10470573
-0.10722948
-0.10340454
-0.092969401
-0.076390964
-0.05469245
-0.029472374
-0.0028185369
0.023466463
0.048481776
0.071996093
0.09480096
0.11465326
0.13069126
0.14351492
0.15389726
0.16223454
0.16909062
0.17446228
0.17912224
0.18249339
0.18573013
0.18790017
-3.4201009
-1.4829581
-0.5157946
-0.086140283
0.12989776
0.26506716
0.34445436
0.37368661
0.36319501
0.32270752
0.258539
0.17380498
0.063187082
0.020315794
0.012157582
0.046208727
0.13339598
0.21719702
0.25113977
0.23231756
0.16403513
0.031843892
-0.0079295822
-0.026853562
-6.3466844
-8.6486777
-8.3787783
-5.930465
-3.1694758
-1.5701121
-0.80261109
-0.41976416
-0.2317987
-0.15599528
-0.12109417
-0.112854
-0.1159523
-0.12555819
-0.13473836
-0.14219454
-0.14509253
-0.14224641
-0.13276796
-0.11657558
-0.094313023
-0.067432513
-0.038183623
-0.0088860887
0.019452377
0.046689691
0.074141359
0.098023546
0.11740461
0.13317257
0.14583193
0.1561048
0.16436895
0.17117308
0.17649941
0.18112526
0.18444952
0.18766929
0.18980672
-6.2057159
-3.1410639
-1.2539753
-0.39780299
-0.02261138
0.17110657
0.29111557
0.35956047
0.38328703
0.3715502
0.33098541
0.26953063
0.18293048
0.087718264
0.046564355
0.041581798
0.071240195
0.14276158
0.21362219
0.23806119
0.21862127
0.15537774
0.046741003
0.015357244
-0.016258311
-8.9036931
-9.2332064
-7.0967823
-4.0911263
-2.1028401
-1.092991
-0.59091787
-0.33386645
-0.21517457
-0.17718417
-0.16066173
-0.16227657
-0.16756947
-0.17583659
-0.18165007
-0.18484312
-0.18294548
-0.17478349
-0.15957527
-0.13737823
-0.10938483
-0.077955597
-0.045755784
-0.014177166
0.016943525
0.049568515
0.07808663
0.10145675
0.12036023
0.13577082
0.14826412
0.15840993
0.16658138
0.17331487
0.17857789
0.18315853
0.1864292
0.18962181
0.19172516
-8.7668801
-5.8609824
-2.8024326
-1.0539618
-0.3038303
0.023872963
0.19920964
0.30766275
0.36774379
0.38621839
0.37225527
0.33541051
0.26978979
0.19141746
0.10931324
0.0702245
0.066450885
0.091489004
0.14988712
0.20766878
0.22429708
0.20352308
0.14693819
0.061145869
0.028905534
-0.0075641101
-9.6569553
-8.0039046
-5.0140581
-2.7032263
-1.4395075
-0.79644292
-0.46080636
-0.29215324
-0.22416531
-0.21486788
-0.20906608
-0.21487811
-0.2187744
-0.22398117
-0.22607155
-0.22507276
-0.21848114
-0.20485402
-0.18346819
-0.15502882
-0.1219757
-0.087283092
-0.052591448
-0.017541883
0.020807532
0.054436068
0.082264976
0.10496335
0.12349324
0.13852384
0.15081022
0.16080772
0.16886625
0.17550944
0.18069558
0.18521912
0.18842791
0.19158562
0.19365434
-9.5912881
-8.2817621
-5.3626337
-2.4602655
-0.88539318
-0.23063609
0.056881374
0.21731526
0.31589454
0.36747634
0.38240656
0.37313405
0.33069147
0.2698528
0.19819869
0.12671081
0.090643118
0.087245041
0.10826694
0.15492545
0.19898234
0.20955114
0.18799047
0.13832974
0.069881817
0.03666738
-0.0012199286
-8.5069776
-5.8077979
-3.3109115
-1.827222
-1.0346595
-0.61235839
-0.38748473
-0.28431063
-0.2538378
-0.26468044
-0.26223088
-0.26737028
-0.26768041
-0.26938728
-0.26814554
-0.26324669
-0.25177177
-0.23201639
-0.20397106
-0.16995379
-0.1333891
-0.095919691
-0.057021174
-0.012426681
0.026806395
0.059644476
0.086524913
0.10861134
0.12671126
0.1414091
0.15346502
0.16329208
0.17121615
0.17775518
0.18285323
0.18730057
0.19044233
0.19355847
0.19559322
-8.515757
-9.0803228
-7.5050224
-4.7633317
-2.1304941
-0.74275554
-0.1751717
0.079226978
0.22611831
0.31429261
0.36067554
0.38259386
0.36614437
0.32627931
0.2682917
0.20254355
0.14052232
0.10753377
0.10453438
0.12147412
0.15775611
0.18960233
0.19445749
0.17251893
0.12929662
0.072983139
0.039992686
0.0030682485
-6.2886392
-3.8342216
-2.2219825
-1.2950946
-0.78548018
-0.50146014
-0.35703672
-0.30410435
-0.29937371
-0.32116557
-0.3157416
-0.31683509
-0.31335372
-0.31232432
-0.30845692
-0.29957176
-0.28231712
-0.25565404
-0.22155687
-0.18378244
-0.14419803
-0.10158882
-0.050388541
-0.0050763346
0.033296391
0.064864569
0.090939612
0.11240861
0.13002364
0.14442182
0.15622215
0.16585531
0.17363241
0.18005069
0.18504091
0.18939937
0.19246852
0.19553817
0.19754064
-6.3904529
-8.0840206
-8.2055351
-6.5671299
-4.1124543
-1.8281505
-0.62594616
-0.13580298
0.091108794
0.22452503
0.30629519
0.36207634
0.37543841
0.35949889
0.31935477
0.26494127
0.205024
0.15110422
0.12137739
0.11830691
0.13148514
0.15850025
0.17975875
0.17967054
0.15766828
0.11957605
0.07248371
0.040491236
0.0057253061
-4.1677135
-2.5800409
-1.5559294
-0.97134766
-0.63170386
-0.44371066
-0.36157043
-0.34650557
-0.35471372
-0.37803527
-0.36538451
-0.36177089
-0.35621548
-0.3537615
-0.34746144
-0.33353172
-0.30935712
-0.27627691
-0.2382044
-0.19723155
-0.15132567
-0.093218094
-0.041459443
0.0029708205
0.03970287
0.070240364
0.095499581
0.11635269
0.13347905
0.14755193
0.15907394
0.16850311
0.1761141
0.18238304
0.18725371
0.19151078
0.19450259
0.19752244
0.19949466
-4.3135772
-6.1452945
-7.3058678
-7.1141813
-5.5671452
-3.4789051
-1.5588569
-0.53735142
-0.11281887
0.092431073
0.21700966
0.3102361
0.35676272
0.36814286
0.34977323
0.31111231
0.25995104
0.20588767
0.15886063
0.13275786
0.12875275
0.13829769
0.15600845
0.16986823
0.16555932
0.14367655
0.10982081
0.069586558
0.039270715
0.0071680329
-2.8389156
-1.7853234
-1.1545531
-0.7700229
-0.54396821
-0.42879129
-0.39608696
-0.40499357
-0.4126193
-0.42879163
-0.40871802
-0.40286938
-0.39775486
-0.39462526
-0.38472727
-0.36421875
-0.33342646
-0.29622514
-0.25478922
-0.20634177
-0.14104325
-0.082511786
-0.031565636
0.010807772
0.046269385
0.075756541
0.10021448
0.12044366
0.13708731
0.15079024
0.16203313
0.17123167
0.17864336
0.18474721
0.18948493
0.1936297
0.19654214
0.19950873
0.20145265
-2.9184641
-4.2672922
-5.5850109
-6.3146657
-5.9389377
-4.5909775
-2.8869867
-1.3225319
-0.47681697
-0.10158843
0.089041489
0.22551536
0.30898397
0.35106261
0.35774639
0.33859755
0.30106527
0.253714
0.20514078
0.16433373
0.14121582
0.13630059
0.14209879
0.15343345
0.16004366
0.15227616
0.13070344
0.10029199
0.065322266
0.037028993
0.0077750127
-1.9478542
-1.3139018
-0.9041633
-0.65023085
-0.50790513
-0.45226598
-0.45450654
-0.47095246
-0.46463725
-0.4691877
-0.44667127
-0.44247598
-0.4395961
-0.4347774
-0.41923012
-0.39217138
-0.35722737
-0.31653299
-0.26635919
-0.1940192
-0.12838658
-0.070494998
-0.022040854
0.018811058
0.052964366
0.081436838
0.10508859
0.12468059
0.14082018
0.15416079
0.16509228
0.17401892
0.18121398
0.18713557
0.19172738
0.19575246
0.19858662
0.20149448
0.20341302
-2.0141756
-2.8359963
-3.937519
-4.8301756
-5.2432525
-4.792176
-3.6797469
-2.3435878
-1.1259552
-0.42718006
-0.092760989
0.10556591
0.23099445
0.30724831
0.34199384
0.34551404
0.32549033
0.28977753
0.246193