/*--------------------------------*- C++ -*----------------------------------*\
| =========                 |                                                 |
| \\      /  F ield         | OpenFOAM: The Open Source CFD Toolbox           |
|  \\    /   O peration     | Version:  v2012                                 |
|   \\  /    A nd           | Website:  www.openfoam.com                      |
|    \\/     M anipulation  |                                                 |
\*---------------------------------------------------------------------------*/
FoamFile
{
    version     2.0;
    format      ascii;
    class       surfaceScalarField;
    location    "20.525825016836894";
    object      phi;
}
// * * * * * * * * * * * * * * * * * * * * * * * * * * * * * * * * * * * * * //

dimensions      [0 3 -1 0 0 0 0];
oriented        oriented;


internalField   nonuniform List<scalar> 
18180
(
0.0085134575
-3.5452836
0.016754278
-3.3148568
0.0087454084
-3.6162957
0.024666081
-3.099563
0.017215671
-3.3809575
0.0084982758
-3.6807899
0.032512133
-2.8978338
0.025433843
-3.1606261
0.016708424
-3.4406432
0.0081784433
-3.7409162
0.040285682
-2.7091297
0.033609996
-2.9553681
0.024706861
-3.2165354
0.016095776
-3.49716
0.0077449679
-3.7974472
0.048127203
-2.5327275
0.041803399
-2.7638382
0.032644577
-3.0081807
0.023817243
-3.2696918
0.015273063
-3.5509225
0.0072341315
-3.85098
0.056092375
-2.3676707
0.050137143
-2.5848125
0.04057206
-2.8141378
0.031473202
-3.0585973
0.022635848
-3.320823
0.01431932
-3.6018203
0.0066481394
-3.9006397
0.064291005
-2.2132659
0.058719307
-2.417412
0.04855739
-2.6330655
0.039062671
-2.8621404
0.029947596
-3.1071136
0.021298657
-3.3693142
0.013234021
-3.6491023
0.0059841796
-3.9463581
0.072820961
-2.0688017
0.067705614
-2.2608561
0.05666314
-2.4636525
0.046586425
-2.6787438
0.037156583
-2.9078768
0.028291637
-3.1529824
0.019810798
-3.4143048
0.012002703
-3.6925479
0.0052373921
-3.9879218
0.08179625
-1.9336244
0.077290233
-2.1144988
0.064989262
-2.3051689
0.054009122
-2.5071087
0.04418772
-2.7217508
0.035218019
-2.9509619
0.026526231
-3.1957141
0.018141138
-3.4556948
0.010600784
-3.7321467
0.0044076022
-4.0260135
0.091326865
-1.8071146
0.087720005
-1.9777622
0.073682093
-2.1570347
0.061310842
-2.3465255
0.050887985
-2.5475996
0.04195285
-2.7622046
0.033309535
-2.9913751
0.02459387
-3.2352061
0.016230878
-3.4934913
0.0090101509
-3.7683404
0.0034973796
-4.0604231
0.10151321
-1.6886715
0.099291429
-1.8500992
0.082955815
-2.018774
0.068494536
-2.1963927
0.057077689
-2.3845538
0.048254834
-2.585372
0.040035723
-2.8003217
0.031340414
-3.0291327
0.022375098
-3.2715925
0.014025441
-3.5282093
0.0072291818
-3.8011462
0.0025119347
-4.0914373
0.1124358
-1.5777181
0.11234294
-1.7309587
0.093101033
-1.8899473
0.075615929
-2.0562661
0.062549779
-2.2319134
0.053811989
-2.4196429
0.046440029
-2.6212944
0.038309995
-2.836517
0.029094241
-3.0643016
0.019744602
-3.3052253
0.011496352
-3.5598267
0.0052806313
-3.8306981
0.0014591505
-4.1189063
0.12414663
-1.473697
0.127245
-1.6197998
0.10449303
-1.7701055
0.08279853
-1.9257794
0.06709637
-2.089211
0.058230443
-2.2641686
0.05215886
-2.4531379
0.045291256
-2.6557477
0.036414027
-2.8705742
0.026323895
-3.0970669
0.016614691
-3.336025
0.0086544827
-3.5884099
0.003207068
-3.8570094
0.00034583297
-4.1433528
0.13666314
-1.3760736
0.14437883
-1.5160758
0.1175902
-1.6587996
0.090260523
-1.8045866
0.070525644
-1.9560475
0.061055536
-2.1182653
0.056709189
-2.2948039
0.051970527
-2.4856181
0.044240648
-2.6886784
0.03390672
-2.9026766
0.022830321
-3.1273886
0.012963744
-3.3640301
0.0055534255
-3.6139293
0.0010628903
-3.8804546
-0.0007168453
-4.164659
0.14996661
-1.2843572
0.16411706
-1.4192489
0.13292131
-1.5555632
0.098318474
-1.6923433
0.072692086
-1.8321168
0.061784327
-1.9814844
0.059502402
-2.1455991
0.057903377
-2.3250329
0.052394937
-2.5173649
0.042553369
-2.7203994
0.03040209
-2.9330089
0.018516038
-3.155236
0.0088454469
-3.3891814
0.0022899016
-3.6366804
-0.0010671508
-3.9009913
-0.001705699
-4.1832569
0.16399953
-1.1980893
0.18679741
-1.3287936
0.15107552
-1.4599263
0.10739993
-1.5886932
0.073492352
-1.7171147
0.059861587
-1.8534443
0.05984745
-2.0049134
0.062526065
-2.1731518
0.060580228
-2.3554974
0.052270497
-2.548942
0.039551409
-2.7511521
0.025663485
-2.9612065
0.013408254
-3.1804292
0.0043819521
-3.4116521
-0.0010111297
-3.65662
-0.0031424286
-3.9188194
-0.0026201509
-4.1990822
0.17867678
-1.1168569
0.21270237
-1.2441941
0.17266117
-1.3713806
0.11805637
-1.4932849
0.072890623
-1.6107515
0.054730242
-1.733836
0.056970033
-1.8722522
0.065157998
-2.0292101
0.068391961
-2.2020491
0.062976411
-2.3868559
0.050487772
-2.5804206
0.034768143
-2.7803779
0.019648935
-2.9870425
0.0076550421
-3.2029922
-0.00022150045
-3.4313816
-0.004236442
-3.6739527
-0.0050533396
-3.9340263
-0.0034358831
-4.2126933
0.19387047
-1.0402955
0.2420624
-1.1649817
0.19828611
-1.2894063
0.13094439
-1.4057091
0.070924998
-1.512743
0.045847943
-1.6223837
0.050026303
-1.7472222
0.065018486
-1.8925763
0.075313729
-2.0561026
0.074503169
-2.2330968
0.063372296
-2.4193548
0.046226558
-2.611275
0.02802548
-2.8075239
0.012512644
-3.0102438
0.0015045029
-3.2227963
-0.004841568
-3.4484462
-0.0072583346
-3.6887472
-0.0067551653
-3.9470073
-0.0041341883
-4.2240144
0.20929886
-0.96795034
0.27496049
-1.0906421
0.22848072
-1.2134563
0.14685351
-1.3255713
0.067705043
-1.4227456
0.032655537
-1.5187887
0.038122549
-1.6294943
0.061241807
-1.7627479
0.080733602
-1.9169227
0.086584629
-2.0866748
0.078311546
-2.2666849
0.060437039
-2.4521616
0.039076753
-2.6403938
0.019449574
-2.8320542
0.0045765486
-3.0306307
-0.0047497424
-3.2398633
-0.0092148311
-3.4629594
-0.0099753388
-3.7013334
-0.0082130592
-3.9578245
-0.0047037299
-4.233506
0.22460587
-0.89927425
0.31127853
-1.0205149
0.26348195
-1.1427207
0.16657785
-1.2523216
0.063414472
-1.3404339
0.014651455
-1.422765
0.02034063
-1.5187448
0.052900503
-1.6393312
0.083968854
-1.7839093
0.098861203
-1.9466897
0.095331683
-2.1213449
0.077790543
-2.3017911
0.053398382
-2.4838816
0.029075752
-2.666982
0.0094399781
-2.8535956
-0.0037079478
-3.0480395
-0.010804416
-3.254279
-0.013180687
-3.4751886
-0.012313494
-3.7118048
-0.009405982
-3.9668047
-0.005145224
-4.2411321
0.23971487
-0.83410333
0.35135824
-0.95450514
0.303672
-1.0766795
0.19083314
-1.1850623
0.058223268
-1.2652371
-0.008636358
-1.3340149
-0.0042074751
-1.4147204
0.039057689
-1.5219933
0.084295777
-1.6566201
0.11089218
-1.8124769
0.11436238
-1.9824521
0.098632742
-2.1591377
0.071640574
-2.3367672
0.042106778
-2.5133495
0.01668579
-2.6904488
-0.0013592813
-2.8718473
-0.011909877
-3.0625229
-0.016362064
-3.266215
-0.016612113
-3.4852679
-0.014230048
-3.7204339
-0.010329454
-3.974045
-0.0054645969
-4.2473991
0.25511836
-0.77327221
0.39617195
-0.89306716
0.35092956
-1.0167279
0.22159352
-1.1245252
0.052371639
-1.1963212
-0.037798951
-1.251849
-0.036471405
-1.3170685
0.018779185
-1.4104864
0.081009193
-1.5347418
0.1221821
-1.6835196
0.13522174
-1.8492008
0.12323091
-2.0232619
0.094471699
-2.198078
0.059379156
-2.3700049
0.027033435
-2.5395138
0.0027375059
-2.7100277
-0.012316698
-2.8866418
-0.019536004
-3.0741662
-0.021201635
-3.2758543
-0.019429506
-3.4934083
-0.015711958
-3.7273666
-0.01099311
-3.9799064
-0.0056706279
-4.2522419
0.27038736
-0.71617722
0.44609091
-0.8364235
0.40747866
-0.96365345
0.26305649
-1.0743233
0.047802941
-1.1361156
-0.073104206
-1.1757604
-0.077135918
-1.225374
-0.0088187345
-1.3045138
0.073438731
-1.4180638
0.13222566
-1.55949
0.15761516
-1.7209411
0.15172735
-1.8932212
0.1225394
-2.0668285
0.081835471
-2.2359099
0.041381713
-2.3996808
0.0092304037
-2.5610965
-0.011734596
-2.7254202
-0.022664615
-2.8980082
-0.026225745
-3.0831633
-0.025181216
-3.2833501
-0.021602473
-3.4998375
-0.016771455
-3.7329088
-0.011416734
-3.9844539
-0.0057754425
-4.2560608
0.28508841
-0.66220598
0.49810539
-0.78058022
0.46934235
-0.9114668
0.31735932
-1.033184
0.047390861
-1.0891611
-0.11415532
-1.1088423
-0.12678758
-1.1392317
-0.044468525
-1.2038106
0.061017919
-1.3063935
0.14050207
-1.4401634
0.18111288
-1.5971955
0.18410081
-1.7681852
0.15641165
-1.9420076
0.11048475
-2.1102197
0.060815623
-2.2701392
0.018897402
-2.424004
-0.0097824725
-2.5773844
-0.025692137
-2.7364759
-0.031814999
-2.9061437
-0.031733433
-3.0897014
-0.028239054
-3.2890147
-0.023143543
-3.5047946
-0.017439727
-3.7371879
-0.011627089
-3.9879709
-0.005793102
-4.2588026
0.298976
-0.61089118
0.54968424
-0.72539539
0.5312301
-0.85485262
0.3729202
-0.98139601
0.050385815
-1.0505591
-0.1617445
-1.0544416
-0.18718734
-1.0605618
-0.088829197
-1.108044
0.043344412
-1.1996273
0.14657335
-1.3254324
0.2051179
-1.4775709
0.22003499
-1.6473599
0.19649051
-1.822626
0.14636659
-1.9920285
0.086581911
-2.150119
0.032766082
-2.2980252
-0.0059273766
-2.441603
-0.028517067
-2.5881149
-0.038133662
-2.7434795
-0.039354758
-2.911358
-0.035943363
-3.0941617
-0.030384287
-3.2930707
-0.024098071
-3.5084977
-0.017760797
-3.7404406
-0.011654527
-3.9905318
-0.0057382181
-4.260871
0.31188793
-0.56213606
0.59853604
-0.67063353
0.59075508
-0.79656594
0.42491594
-0.92040016
0.05728015
-1.0018394
-0.21872201
-1.0055981
-0.26136965
-0.99144023
-0.14406338
-1.017629
0.020347706
-1.097763
0.15031981
-1.2155173
0.22914963
-1.3620758
0.2590503
-1.5301841
0.24287895
-1.7075731
0.19043397
-1.8802315
0.12008376
-2.0389221
0.052044129
-2.182641
0.00043112785
-2.3174098
-0.030994252
-2.4520266
-0.045372217
-2.593662
-0.048389498
-2.746903
-0.045078513
-2.9141403
-0.038855437
-3.0968675
-0.031680839
-3.2958416
-0.024533268
-3.511146
-0.017785412
-3.7428117
-0.011530483
-3.9924002
-0.0056249692
-4.2622067
0.32349973
-0.51614266
0.64298925
-0.61681315
0.64508071
-0.73591528
0.47096048
-0.85538551
0.057923303
-0.93379708
-0.27990513
-0.95187163
-0.34973706
-0.92754389
-0.21330494
-0.93367346
-0.0084332936
-1.0008253
0.15210009
-1.1108987
0.25313568
-1.2513445
0.30094951
-1.4169509
0.29589132
-1.5964897
0.24375086
-1.7738553
0.16288449
-1.935738
0.07819653
-2.0775314
0.010234175
-2.2046624
-0.032853338
-2.3277506
-0.053753648
-2.4558618
-0.059262029
-2.594776
-0.056107325
-2.7474467
-0.04896787
-2.914992
-0.040559189
-3.0982106
-0.032228774
-3.2975274
-0.024527979
-3.5129814
-0.017566249
-3.7445084
-0.011285435
-3.9936292
-0.0054664768
-4.2631094
0.33336506
-0.47311235
0.68221607
-0.56497444
0.69286988
-0.6749108
0.50991942
-0.78691069
0.045648324
-0.85510327
-0.34445016
-0.87971427
-0.44940036
-0.86172466
-0.29546047
-0.8560814
-0.044203003
-0.90917746
0.15257262
-1.0119065
0.2770712
-1.1459315
0.3453826
-1.308144
0.35578395
-1.4896102
0.30792982
-1.6730732
0.21742737
-1.8404669
0.11333576
-1.982599
0.024623036
-2.1033267
-0.033831355
-2.2151484
-0.063541775
-2.3295719
-0.072507701
-2.4540693
-0.069604272
-2.5924179
-0.061237739
-2.7458306
-0.05115008
-2.9144021
-0.041203304
-3.0984878
-0.032147331
-3.2984422
-0.024164145
-3.5141574
-0.017154422
-3.7456336
-0.01094747
-3.9944023
-0.0052744423
-4.2635616
0.34110424
-0.43323257
0.71586914
-0.51579529
0.73345305
-0.61525753
0.5416206
-0.7179438
0.029207755
-0.78173442
-0.41047787
-0.79882997
-0.54593811
-0.79196749
-0.3839328
-0.78321082
-0.087025844
-0.82385901
0.15210887
-0.91861867
0.30075059
-1.0459718
0.39088105
-1.2032013
0.42065327
-1.3852551
0.38238927
-1.5759166
0.28579506
-1.7529113
0.16087935
-1.8990669
0.045818893
-2.0144145
-0.033455138
-2.1143188
-0.075107945
-2.2145261
-0.088800309
-2.3242598
-0.086294448
-2.448066
-0.076298169
-2.5876272
-0.063965743
-2.7427414
-0.051847053
-2.9128184
-0.040966573
-3.0980442
-0.031560543
-3.2987378
-0.023521169
-3.5148424
-0.016596769
-3.7463242
-0.010541553
-3.994808
-0.0050589896
-4.2638509
0.33967527
-0.46152181
0.74392146
-0.46977944
0.76680695
-0.55827749
0.5664316
-0.65072717
0.010094202
-0.70939929
-0.47535928
-0.72594288
-0.63097427
-0.72192684
-0.47149285
-0.7136777
-0.13471522
-0.74547675
0.15034119
-0.83133623
0.32405471
-0.95162705
0.43524795
-1.1015293
0.48632131
-1.2805895
0.46166998
-1.4758244
0.36393175
-1.6649468
0.22105926
-1.8235436
0.076733798
-1.9398825
-0.03000195
-2.0276488
-0.088686415
-2.1109907
-0.10899824
-2.2048026
-0.10708649
-2.3136728
-0.094935005
-2.4392684
-0.079619848
-2.5813669
-0.064625657
-2.738783
-0.051327131
-2.9106385
-0.040034825
-3.0971035
-0.030587856
-3.2986322
-0.02267118
-3.5151301
-0.015934684
-3.7466897
-0.010089152
-3.9950049
-0.0048285966
-4.2639103
0.33636015
-0.45015106
0.76015363
-0.48709663
0.79329071
-0.50485534
0.58496078
-0.58682094
-0.0099124789
-0.64062423
-0.53659815
-0.65662666
-0.70959967
-0.65485507
-0.55487343
-0.64717326
-0.18435412
-0.67337519
0.1469564
-0.75071568
0.34690343
-0.86323644
0.47672626
-1.0037325
0.54909685
-1.1755068
0.53977721
-1.3694238
0.44334889
-1.5655741
0.28505539
-1.7388331
0.11353911
-1.8696091
-0.023010221
-1.9558884
-0.10397985
-2.0217698
-0.13407183
-2.0956848
-0.1330966
-2.1884629
-0.11811057
-2.2998671
-0.098852708
-2.4290476
-0.080078051
-2.574452
-0.063621244
-2.7344673
-0.049867332
-2.9081699
-0.038585012
-3.0958762
-0.029336717
-3.2982063
-0.021677388
-3.5151685
-0.015203388
-3.7468353
-0.0096081355
-3.9950189
-0.0045902177
-4.2639089
0.33050914
-0.43818571
0.77297374
-0.47237488
0.8088277
-0.51201514
0.59800829
-0.52729774
-0.029479108
-0.57651919
-0.59244611
-0.59265618
-0.78041177
-0.59281138
-0.63248333
-0.58527491
-0.23316891
-0.60710351
0.14260478
-0.67706428
0.36905943
-0.78129716
0.51443751
-0.91102589
0.60665229
-1.0719804
0.614538
-1.2604325
0.52198414
-1.4578382
0.34755732
-1.6374354
0.14645531
-1.7804229
-0.019536497
-1.8813761
-0.1224756
-1.9459525
-0.16526062
-1.9995712
-0.16577738
-2.0720462
-0.14696205
-2.1684279
-0.12254036
-2.2847542
-0.098828684
-2.4185144
-0.078281695
-2.5675438
-0.061364371
-2.7301651
-0.047727947
-2.9056178
-0.036774573
-3.0944892
-0.027900009
-3.2976236
-0.020592795
-3.5150086
-0.014431935
-3.7468158
-0.0091130162
-3.9949287
-0.0043493872
-4.263767
0.32166656
-0.42594241
0.78185921
-0.45653759
0.82055102
-0.49357103
0.61064425
-0.53478212
-0.047368896
-0.51805483
-0.64172516
-0.53456943
-0.84292445
-0.53665337
-0.70300088
-0.52977377
-0.27932514
-0.54730157
0.13841212
-0.61040546
0.39046389
-0.70629385
0.54818858
-0.8245952
0.65767173
-0.97224101
0.6843937
-1.1514386
0.60216667
-1.349848
0.41660139
-1.5357391
0.179687
-1.6787954
-0.024767381
-1.7828395
-0.15051234
-1.8611515
-0.20486441
-1.9145558
-0.2074042
-1.9662393
-0.18301
-2.0441651
-0.15167034
-2.1473635
-0.12158234
-2.2698459
-0.095782365
-2.4085082
-0.074841403
-2.5610844
-0.058235422
-2.7261149
-0.045136714
-2.9031507
-0.034737032
-3.0930709
-0.026354416
-3.2969187
-0.019460579
-3.5147365
-0.013643571
-3.7466753
-0.00861525
-3.9947478
-0.0041104095
-4.2636433
0.30963662
-0.41370419
0.78647578
-0.44009351
0.82825528
-0.47380324
0.62078606
-0.51391282
-0.049622002
-0.54173068
-0.68400263
-0.48258832
-0.89702374
-0.48654554
-0.76554035
-0.48109218
-0.32210418
-0.49464773
0.13494183
-0.5508124
0.4112866
-0.63847719
0.57807648
-0.74521585
0.70126363
-0.87790347
0.7473393
-1.0442351
0.68141474
-1.2393808
0.49482683
-1.4364525
0.22956789
-1.5932427
-0.026970583
-1.6836481
-0.18903239
-1.7514603
-0.25528258
-1.8182071
-0.25986537
-1.8696519
-0.22872846
-1.928012
-0.18748591
-2.0158284
-0.14908749
-2.1272567
-0.11662166
-2.2562038
-0.09061526
-2.3995583
-0.070308923
-2.5553403
-0.054560332
-2.7224819
-0.042282833
-2.9008636
-0.032580683
-3.0916807
-0.02476116
-3.296183
-0.01831458
-3.5143603
-0.012856397
-3.7464597
-0.0081236128
-3.9945451
-0.0038765075
-4.2634039
0.29447684
-0.40173727
0.78672993
-0.42356448
0.83180613
-0.45329026
0.62793227
-0.49120875
-0.049598578
-0.52316942
-0.7067645
-0.52614985
-0.94321114
-0.44208781
-0.81959923
-0.43900887
-0.3611041
-0.44924449
0.13208079
-0.49828324
0.43159882
-0.57782244
0.60429211
-0.67323487
0.73680345
-0.79001097
0.80073958
-0.93980977
0.75358172
-1.1245663
0.57630609
-1.3287853
0.28831629
-1.5023514
-0.014963242
-1.6117605
-0.22767508
-1.6515549
-0.31628644
-1.6973046
-0.32180601
-1.7631857
-0.28553951
-1.8196974
-0.23205539
-1.8903477
-0.18216715
-1.9897013
-0.14128397
-2.1094599
-0.10897999
-2.2444399
-0.084120362
-2.3919415
-0.065145347
-2.5504592
-0.050603319
-2.7193462
-0.039316067
-2.8988194
-0.030389711
-3.090363
-0.023167153
-3.29541
-0.017180631
-3.5139531
-0.012083963
-3.7461909
-0.0076445913
-3.9942734
-0.0036500474
-4.2631392
0.27645589
-0.39030539
0.78278082
-0.40746815
0.83121577
-0.43269998
0.63158044
-0.46724744
-0.0478307
-0.5022227
-0.72311707
-0.51403637
-0.97915063
-0.49622475
-0.86527568
-0.40251697
-0.39608955
-0.41070037
0.12945736
-0.45265726
0.4512218
-0.52407654
0.62709082
-0.60868857
0.7641428
-0.70938654
0.84220606
-0.83945671
0.81258904
-1.0064605
0.65001002
-1.2057614
0.3447298
-1.3919094
0.0049992125
-1.5283182
-0.2659874
-1.5794649
-0.38679994
-1.5873532
-0.39339996
-1.6320886
-0.34972684
-1.7052964
-0.28672578
-1.771422
-0.22217921
-1.8568588
-0.17019314
-1.9672889
-0.13017235
-2.0946148
-0.099785028
-2.2348285
-0.076940943
-2.3857674
-0.059713742
-2.5464906
-0.046567512
-2.7167337
-0.036349517
-2.8970138
-0.028226975
-3.0891325
-0.021607145
-3.2946666
-0.016077486
-3.5135003
-0.011336089
-3.7458776
-0.0071828083
-3.9939635
-0.0034326446
-4.262702
0.25599769
-0.37966219
0.77503132
-0.39231136
0.8267294
-0.41278289
0.63147343
-0.4429428
-0.044504093
-0.47982136
-0.73272497
-0.4998585
-1.0071714
-0.49214495
-0.91736224
-0.45052095
-0.4266257
-0.3781993
0.12662932
-0.41347092
0.46973357
-0.47684093
0.6467381
-0.55133283
0.7836362
-0.63656881
0.87056738
-0.74521717
0.85524349
-0.88924725
0.70726062
-1.07079
0.38254424
-1.2498763
0.0061055305
-1.3985479
-0.30999323
-1.4898468
-0.46992284
-1.5021855
-0.48162307
-1.5050472
-0.41954606
-1.568083
-0.34706259
-1.6508505
-0.27043532
-1.7292549
-0.20395965
-1.8292464
-0.15430677
-1.9492366
-0.11733147
-2.0829615
-0.089919611
-2.2273869
-0.069566434
-2.3810206
-0.054283785
-2.5434024
-0.042601076
-2.7146067
-0.033464609
-2.8954635
-0.026137143
-3.0880116
-0.020105472
-3.2939367
-0.015018285
-3.5130427
-0.010619479
-3.7455132
-0.0067413526
-3.9935446
-0.0032253659
-4.2621967
0.23368872
-0.37001769
0.76408939
-0.37855239
0.81876882
-0.39422172
0.62761077
-0.41930295
-0.03980743
-0.45687742
-0.73513245
-0.48467205
-1.026912
-0.48635442
-0.95992916
-0.45604639
-0.48484145
-0.3987181
0.12358432
-0.38033763
0.48651259
-0.43546205
0.66346555
-0.50073792
0.79598017
-0.5716573
0.88617032
-0.65915412
0.88097992
-0.7775998
0.74395175
-0.93262334
0.39890866
-1.093074
-0.014948931
-1.2339153
-0.37230375
-1.3413298
-0.56862344
-1.396573
-0.58779436
-1.4015332
-0.50456185
-1.4254234
-0.40758875
-1.5129839
-0.32349898
-1.6034674
-0.24351623
-1.6955435
-0.18142554
-1.8079425
-0.13665145
-1.9356073
-0.10395239
-2.0743666
-0.080028911
-2.2220006
-0.062345908
-2.3775892
-0.049044002
-2.5411045
-0.038805908
-2.7129394
-0.030716464
-2.8941437
-0.024150063
-3.0869976
-0.01867825
-3.293258
-0.014011495
-3.5125507
-0.0099384343
-3.7450999
-0.0063221281
-3.9930589
-0.0030287991
-4.26152
-0.36178497
0.21008293
0.75072384
-0.36656033
0.80787466
-0.3775929
0.62034871
-0.39736696
-0.033903581
-0.43442543
-0.7302442
-0.4690289
-1.0377987
-0.48011816
-0.99245316
-0.46038082
-0.53769503
-0.40966068
0.084210559
-0.36464761
0.50136899
-0.39999664
0.67755973
-0.45630466
0.80203424
-0.51437986
0.89047734
-0.58248524
0.8907837
-0.67513507
0.75986401
-0.79982136
0.39588187
-0.93516171
-0.051080009
-1.0616282
-0.44455777
-1.1663494
-0.66876008
-1.2462458
-0.7011447
-1.2883863
-0.60795007
-1.3031652
-0.47550344
-1.3625293
-0.37346104
-1.4682767
-0.28717387
-1.5652912
-0.2118088
-1.6706998
-0.1574633
-1.792601
-0.11877747
-1.926094
-0.090865358
-2.0685695
-0.070550509
-2.2184349
-0.05551084
-2.3753044
-0.044116693
-2.5395101
-0.035246664
-2.711669
-0.028139324
-2.8930428
-0.022283853
-3.0860942
-0.017335009
-3.2926015
-0.013062079
-3.5120658
-0.0092952972
-3.7446285
-0.0059260965
-3.9924578
-0.002843206
-4.2607573
-0.35664669
0.73560361
-0.35530265
0.18509075
0.7946819
-0.36335884
0.61036556
-0.37803299
-0.026937725
-0.41352354
-0.71819669
-0.45373228
-1.0394115
-0.4738326
-1.014243
-0.46495582
-0.58418053
-0.42040418
0.044423123
-0.37524629
0.48668635
-0.35484773
0.68894715
-0.41773523
0.80298715
-0.46445777
0.88549192
-0.51547882
0.88703476
-0.58446348
0.75721297
-0.67843241
0.37760418
-0.78677886
-0.09668868
-0.89386293
-0.51994039
-0.99056372
-0.76545293
-1.0743701
-0.80853386
-1.1437005
-0.7150938
-1.1859226
-0.5594148
-1.2239027
-0.42144289
-1.3193801
-0.32768244
-1.4328451
-0.24493457
-1.5374126
-0.17947394
-1.6539461
-0.13396306
-1.7825629
-0.10171864
-1.9202002
-0.078598787
-2.0651709
-0.061755921
-2.2164246
-0.049200117
-2.3740009
-0.039572651
-2.5385082
-0.031959295
-2.7107435
-0.025751387
-2.8921212
-0.02054775
-3.0852887
-0.016080392
-3.2920036
-0.012172196
-3.5115556
-0.0086910217
-3.7441023
-0.005553525
-3.9917785
-0.0026685642
-4.2598237
-0.35186605
0.77986084
-0.34848134
0.71872953
-0.35015107
0.15909458
0.59854826
-0.36197261
-0.019009871
-0.39511604
-0.69937195
-0.43959441
-1.0314915
-0.46813862
-1.0249383
-0.46983385
-0.62299634
-0.43268756
0.0064348765
-0.38784586
0.47093362
-0.36445954
0.67915048
-0.3515314
0.79945783
-0.42099982
0.87372181
-0.45836276
0.87253586
-0.50628268
0.73905214
-0.57190406
0.3479295
-0.65368366
-0.1478952
-0.73953748
-0.59379873
-0.82398582
-0.85631296
-0.9041101
-0.9052916
-0.98216696
-0.81233891
-1.05082
-0.64944838
-1.1002031
-0.47791567
-1.1718901
-0.36017848
-1.2915677
-0.27633891
-1.4063623
-0.20234586
-1.5195943
-0.14893022
-1.6439854
-0.11209628
-1.7770323
-0.08608809
-1.9173444
-0.067451167
-2.0637699
-0.053790529
-2.2156916
-0.043483295
-2.3735019
-0.035444298
-2.5379937
-0.028958457
-2.7100869
-0.023559094
-2.8913687
-0.018944411
-3.0846027
-0.014915322
-3.291445
-0.011342086
-3.5110471
-0.0081254502
-3.7435121
-0.0052041591
-3.9909843
-0.0025046823
-4.2588201
-0.34978149
0.58603213
-0.34274684
0.76404351
-0.34273864
0.70119808
-0.34677428
0.13242733
-0.010049879
-0.38004612
-0.67436114
-0.42735064
-1.0141104
-0.46351775
-1.0242648
-0.47556814
-0.65216275
-0.4472513
-0.029636679
-0.40209352
0.45430339
-0.37625435
0.67125854
-0.36317546
0.77634421
-0.33531665
0.85661862
-0.40918338
0.84993171
-0.44066745
0.70895588
-0.4814545
0.31054188
-0.53915654
-0.20063112
-0.6045987
-0.66176056
-0.67524932
-0.93665291
-0.74777029
-0.98909291
-0.82460087
-0.89532509
-0.90325123
-0.73003596
-0.97423664
-0.54255831
-1.0396906
-0.39076199
-1.1456248
-0.29916859
-1.2733093
-0.22415601
-1.3893767
-0.16308894
-1.5103108
-0.12136169
-1.6394505
-0.09251325
-1.775177
-0.072185973
-1.9169323
-0.05755526
-2.0639537
-0.046709649
-2.2159835
-0.038380367
-2.3736406
-0.031736768
-2.5378486
-0.026243806
-2.7096602
-0.021560503
-2.8907798
-0.017471804
-3.0840283
-0.013838189
-3.2909459
-0.010570489
-3.5105052
-0.0075977128
-3.7428702
-0.0048773852
-3.9901209
-0.0023512137
-4.2576925
-0.36889361
-3.9111786e-06
-0.34120697
0.57406633
-0.33755622
0.74874363
-0.33915843
0.68340398
-0.34559333
0.10542456
-0.64397589
-0.41762348
-0.98763471
-0.46040859
-1.0123337
-0.48225282
-0.67063364
-0.4637129
-0.062634336
-0.41977279
0.43688284
-0.38976624
0.66371137
-0.37542451
0.75497211
-0.34886487
0.82455109
-0.30855909
0.82039532
-0.38419627
0.67049279
-0.40714873
0.26819351
-0.44347897
-0.25224238
-0.49091113
-0.72109203
-0.54866251
-1.0031604
-0.61260751
-1.0576522
-0.68326287
-0.96409091
-0.75962918
-0.79572458
-0.84127787
-0.60312843
-0.91750161
-0.42626428
-1.0081811
-0.31255941
-1.1364603
-0.23995863
-1.2620326
-0.1755989
-1.3815663
-0.1287824
-1.5075281
-0.097274226
-1.6391802
-0.075476684
-1.7761902
-0.060100537
-1.9184153
-0.048931032
-2.0653732
-0.040506875
-2.217054
-0.033877755
-2.3742515
-0.028436848
-2.5379963
-0.023804788
-2.7094186
-0.01974801
-2.8903421
-0.016124775
-3.0835683
-0.012845569
-3.2904711
-0.0098552366
-3.5099625
-0.0071063759
-3.7421667
-0.0045723257
-3.9891676
-0.002207736
-4.2565106
-0.4107619
-0.60925833
-0.36224209
0.012015181
-0.33679075
0.56288576
-0.33527168
0.73471554
-0.33789633
0.66547837
-0.34685972
0.078426066
-0.95280596
-0.45905631
-0.98980129
-0.48978081
-0.67798763
-0.48153983
-0.091155604
-0.440749
0.41811552
-0.40613878
0.65615927
-0.38901522
0.73543703
-0.36307304
0.79121657
-0.32097793
0.78873093
-0.2814362
0.62620292
-0.34453508
0.22228347
-0.36536065
-0.30054694
-0.39828633
-0.7698472
-0.44529537
-1.054075
-0.50137486
-1.1108829
-0.56320882
-1.0200862
-0.63080423
-0.84841317
-0.71038604
-0.65143355
-0.79654088
-0.46270892
-0.88476265
-0.32282154
-1.0018292
-0.24514616
-1.1354822
-0.18420443
-1.2579137
-0.13365081
-1.3812407
-0.099687548
-1.509528
-0.076785732
-1.6421224
-0.0609861
-1.7793563
-0.04978529
-1.9213032
-0.041525788
-2.0676957
-0.035136811
-2.2186894
-0.029940687
-2.3752143
-0.025519675
-2.5383526
-0.021624508
-2.709329
-0.018110497
-2.890033
-0.014896174
-3.0832002
-0.011932973
-3.2900351
-0.0091934729
-3.5093818
-0.0066497069
-3.7414139
-0.004287947
-3.9881552
-0.0020737523
-4.2552262
-0.45946782
-0.91070638
-0.4084972
-0.57010671
-0.35875768
0.025018865
-0.33634776
0.55356242
-0.33534718
0.72201266
-0.33917071
0.64751955
-0.35078734
0.051630983
-0.95771763
-0.49800248
-0.674317
-0.50011212
-0.11387804
-0.46441041
0.39825683
-0.42605261
0.64778435
-0.40462185
0.71746139
-0.37832256
0.75722882
-0.33464758
0.75238198
-0.28930543
0.60868441
-0.26851544
0.17727873
-0.30339825
-0.34338646
-0.32541558
-0.80670985
-0.36433279
-1.0890649
-0.41371626
-1.1503298
-0.46555575
-1.0655103
-0.5210814
-0.8918644
-0.59054634
-0.6876482
-0.67749578
-0.49204264
-0.7706521
-0.33351053
-0.8777008
-0.24067248
-1.0102141
-0.18501942
-1.1388819
-0.13508418
-1.2608498
-0.099056199
-1.3861905
-0.075544345
-1.51495
-0.059747913
-1.6473871
-0.048886423
-1.7840505
-0.041114272
-1.9251936
-0.035244393
-2.070647
-0.030531299
-2.2207143
-0.026522205
-2.376412
-0.022953882
-2.5388582
-0.01968248
-2.709344
-0.016634867
-2.8898382
-0.013777749
-3.0829122
-0.011095238
-3.2896108
-0.0085820336
-3.5087882
-0.0062257396
-3.7406006
-0.004023123
-3.9870681
-0.0019487458
-4.2539059
-0.50671181
-0.91734623
-0.46390777
-0.86188555
-0.40761864
-0.52829786
-0.35938587
0.039149572
-0.3383276
0.54616281
-0.33737828
0.71006593
-0.34280957
0.62924312
-0.35747904
0.025068469
-0.66022691
-0.5187694
-0.12989156
-0.48972545
0.37781931
-0.44915669
0.63716774
-0.42232219
0.70056987
-0.39508614
0.7235169
-0.35026948
0.7122914
-0.29934916
0.58170442
-0.26703906
0.19559034
-0.29064916
-0.37597427
-0.27351466
-0.83078883
-0.30403974
-1.109368
-0.34723756
-1.1785629
-0.38892276
-1.1031862
-0.43095351
-0.92989493
-0.4860081
-0.7158456
-0.56544816
-0.51096897
-0.66177425
-0.34147047
-0.76605978
-0.23119484
-0.89081224
-0.17539111
-1.0237609
-0.13133526
-1.1467591
-0.094794342
-1.269307
-0.07118047
-1.3946621
-0.055927407
-1.5227416
-0.045847439
-1.6542294
-0.038943253
-1.7897861
-0.033919855
-1.9297316
-0.02997033
-2.0740002
-0.026611255
-2.2229827
-0.023569734
-2.3777567
-0.020705149
-2.5394417
-0.017956703
-2.7094428
-0.015307174
-2.8897292
-0.012760771
-3.0826891
-0.01032693
-3.2891994
-0.0080175321
-3.508143
-0.0058324497
-3.7397453
-0.0037766881
-3.9859368
-0.00183218
-4.252515
-0.53688671
-0.63674176
-0.51800149
-0.87012363
-0.46751766
-0.80854006
-0.40948418
-0.48519453
-0.3623777
0.054349345
-0.34183857
0.54026654
-0.34129089
0.6984058
-0.34876701
0.61021674
-0.36691738
-0.0012656817
-0.1388653
-0.51545445
0.35742947
-0.4745337
0.62341109
-0.44228542
0.68381472
-0.41296669
0.69059455
-0.36789952
0.66979452
-0.31265694
0.54764899
-0.27010407
0.20072641
-0.27609757
-0.32937513
-0.33991624
-0.84461108
-0.26221335
-1.1182541
-0.29816409
-1.1986198
-0.3304387
-1.1360454
-0.35892717
-0.96614779
-0.39743914
-0.7407435
-0.46400268
-0.52105566
-0.55834461
-0.34231875
-0.66405271
-0.21885523
-0.78178369
-0.15644553
-0.91340512
-0.1199511
-1.0390124
-0.086314775
-1.1592677
-0.063191886
-1.2813363
-0.049100627
-1.4054143
-0.040307878
-1.5320588
-0.034699486
-1.6620725
-0.030889506
-1.7961382
-0.028018895
-1.934648
-0.02557991
-2.0775658
-0.023294491
-2.225371
-0.021029478
-2.379157
-0.018738763
-2.5400724
-0.016424991
-2.7095881
-0.014113425
-2.8896921
-0.011836431
-3.0824954
-0.0096225638
-3.288764
-0.0074966102
-3.5074776
-0.0054677642
-3.7388358
-0.0035474591
-3.9847522
-0.0017234968
-4.2511115
-0.5403939
-0.14104607
-0.55542051
-0.60602663
-0.52703279
-0.81746634
-0.47212996
-0.75239004
-0.41318208
-0.44132313
-0.3671709
0.070888333
-0.34716156
0.53580626
-0.34733835
0.6868685
-0.35703275
0.5900171
-0.37883743
-0.027183687
0.3377612
-0.50099245
0.60622376
-0.46420538
0.66614286
-0.43202688
0.6588416
-0.38700769
0.62579379
-0.32885471
0.50811782
-0.27801362
0.19659415
-0.26997005
-0.29109699
-0.31713936
-0.78747843
-0.39954151
-1.1204581
-0.26283821
-1.2131236
-0.28673728
-1.1666728
-0.30248287
-1.0038079
-0.32380467
-0.76649627
-0.37438827
-0.52581471
-0.46202292
-0.33427951
-0.56928581
-0.20211549
-0.68394714
-0.13119329
-0.8104408
-0.099524025
-0.93744169
-0.072651233
-1.0564901
-0.051247824
-1.1751545
-0.038908755
-1.2954134
-0.031962393
-1.4174915
-0.028108939
-1.5422434
-0.025906438
-1.6704385
-0.024454533
-1.8027825
-0.023228861
-1.9396968
-0.021951617
-2.0811944
-0.020501015
-2.2277741
-0.018849377
-2.3805678
-0.017021159
-2.5407039
-0.015065969
-2.7097639
-0.013040048
-2.8896776
-0.010996229
-3.0823178
-0.0089768058
-3.288304
-0.0070159291
-3.506758
-0.0051296822
-3.7378904
-0.0033341844
-3.9835336
-0.0016220123
-4.2496508
-0.52720508
0.31936254
-0.56361085
-0.13857407
-0.57122251
-0.56855667
-0.53555321
-0.76087471
-0.47734396
-0.69464655
-0.41831372
-0.3970496
-0.37366953
0.088659128
-0.35445998
0.53262542
-0.35532677
0.67510697
-0.36758355
0.56846184
-0.39303692
-0.052530852
0.58582707
-0.48740652
0.64670736
-0.45216663
0.62799484
-0.40701308
0.58136944
-0.34759134
0.46492202
-0.29060476
0.18346488
-0.26895477
-0.26039466
-0.30352745
-0.73186295
-0.37537744
-1.0733421
-0.44944138
-1.2238888
-0.25496524
-1.1971021
-0.25880672
-1.0450355
-0.2636102
-0.79624869
-0.29658154
-0.5287718
-0.37402107
-0.31785314
-0.48114082