/*--------------------------------*- C++ -*----------------------------------*\
| =========                 |                                                 |
| \\      /  F ield         | OpenFOAM: The Open Source CFD Toolbox           |
|  \\    /   O peration     | Version:  v2012                                 |
|   \\  /    A nd           | Website:  www.openfoam.com                      |
|    \\/     M anipulation  |                                                 |
\*---------------------------------------------------------------------------*/
FoamFile
{
    version     2.0;
    format      ascii;
    class       pointVectorField;
    location    "20.525825016836894";
    object      pointDisplacement;
}
// * * * * * * * * * * * * * * * * * * * * * * * * * * * * * * * * * * * * * //

dimensions      [0 1 0 0 0 0 0];


internalField   nonuniform List<vector> 
18840
(
(0.3740969 0 0)
(0.37414603 0 0)
(0.37429251 0 0)
(0.37453464 0 0)
(0.37487097 0 0)
(0.37530014 0 0)
(0.37582086 0 0)
(0.37643182 0 0)
(0.3771318 0 0)
(0.37791959 0 0)
(0.37879397 0 0)
(0.37975378 0 0)
(0.38079784 0 0)
(0.38192507 0 0)
(0.38313424 0 0)
(0.38442433 0 0)
(0.38579418 0 0)
(0.3872427 0 0)
(0.38876839 0 0)
(0.39036991 0 0)
(0.39236703 0 0)
(0.3740969 0 0)
(0.37414581 0 0)
(0.37429161 0 0)
(0.37453254 0 0)
(0.37486707 0 0)
(0.37529379 0 0)
(0.37581137 0 0)
(0.37641849 0 0)
(0.37711384 0 0)
(0.37789616 0 0)
(0.37876418 0 0)
(0.37971665 0 0)
(0.38075237 0 0)
(0.38187014 0 0)
(0.3830688 0 0)
(0.38434716 0 0)
(0.38570413 0 0)
(0.3871385 0 0)
(0.3886491 0 0)
(0.39023464 0 0)
(0.39186671 0 0)
(0.3740969 0 0)
(0.37414563 0 0)
(0.37429086 0 0)
(0.37453077 0 0)
(0.37486372 0 0)
(0.37528824 0 0)
(0.37580295 0 0)
(0.37640647 0 0)
(0.3770974 0 0)
(0.37787438 0 0)
(0.37873603 0 0)
(0.37968102 0 0)
(0.38070802 0 0)
(0.38181572 0 0)
(0.38300281 0 0)
(0.38426801 0 0)
(0.38561004 0 0)
(0.38702765 0 0)
(0.38851954 0 0)
(0.39008444 0 0)
(0.39171489 0 0)
(0.3740969 0 0)
(0.37414538 0 0)
(0.37428986 0 0)
(0.37452844 0 0)
(0.3748594 0 0)
(0.3752812 0 0)
(0.3757924 0 0)
(0.37639153 0 0)
(0.37707711 0 0)
(0.37784765 0 0)
(0.37870167 0 0)
(0.37963769 0 0)
(0.38065423 0 0)
(0.3817498 0 0)
(0.38292294 0 0)
(0.38417213 0 0)
(0.38549586 0 0)
(0.38689261 0 0)
(0.38836076 0 0)
(0.38989871 0 0)
(0.39151798 0 0)
(0.3740969 0 0)
(0.37414508 0 0)
(0.37428863 0 0)
(0.3745256 0 0)
(0.37485419 0 0)
(0.37527278 0 0)
(0.37577987 0 0)
(0.37637391 0 0)
(0.37705331 0 0)
(0.37781646 0 0)
(0.37866174 0 0)
(0.37958751 0 0)
(0.38059212 0 0)
(0.38167389 0 0)
(0.3828311 0 0)
(0.38406203 0 0)
(0.38536488 0 0)
(0.38673775 0 0)
(0.38817871 0 0)
(0.38968574 0 0)
(0.3912878 0 0)
(0.3740969 0 0)
(0.37414471 0 0)
(0.37428715 0 0)
(0.37452224 0 0)
(0.37484811 0 0)
(0.37526306 0 0)
(0.37576552 0 0)
(0.37635387 0 0)
(0.37702642 0 0)
(0.37778142 0 0)
(0.37861709 0 0)
(0.37953164 0 0)
(0.38052321 0 0)
(0.38158991 0 0)
(0.38272979 0 0)
(0.38394089 0 0)
(0.38522106 0 0)
(0.38656818 0 0)
(0.38797981 0 0)
(0.38945371 0 0)
(0.3910339 0 0)
(0.3740969 0 0)
(0.37414427 0 0)
(0.37428541 0 0)
(0.37451832 0 0)
(0.37484109 0 0)
(0.37525197 0 0)
(0.37574931 0 0)
(0.37633142 0 0)
(0.37699652 0 0)
(0.37774275 0 0)
(0.37856815 0 0)
(0.37947077 0 0)
(0.38044853 0 0)
(0.38149934 0 0)
(0.38262096 0 0)
(0.38381123 0 0)
(0.38506772 0 0)
(0.38638796 0 0)
(0.38776918 0 0)
(0.38920876 0 0)
(0.39076355 0 0)
(0.3740969 0 0)
(0.37414377 0 0)
(0.3742834 0 0)
(0.37451379 0 0)
(0.37483303 0 0)
(0.37523931 0 0)
(0.37573095 0 0)
(0.37630619 0 0)
(0.37696321 0 0)
(0.37770002 0 0)
(0.37851453 0 0)
(0.37940457 0 0)
(0.38036791 0 0)
(0.38140219 0 0)
(0.38250498 0 0)
(0.38367379 0 0)
(0.38490601 0 0)
(0.38619879 0 0)
(0.38754915 0 0)
(0.38895392 0 0)
(0.39048054 0 0)
(0.3740969 0 0)
(0.37414319 0 0)
(0.3742811 0 0)
(0.37450863 0 0)
(0.37482386 0 0)
(0.37522497 0 0)
(0.37571022 0 0)
(0.37627784 0 0)
(0.37692596 0 0)
(0.37765253 0 0)
(0.37845534 0 0)
(0.37933207 0 0)
(0.38028026 0 0)
(0.38129737 0 0)
(0.38238075 0 0)
(0.38352762 0 0)
(0.38473512 0 0)
(0.38600015 0 0)
(0.38731944 0 0)
(0.38868947 0 0)
(0.39018556 0 0)
(0.3740969 0 0)
(0.37414255 0 0)
(0.37427853 0 0)
(0.37450287 0 0)
(0.37481363 0 0)
(0.37520898 0 0)
(0.37568715 0 0)
(0.37624634 0 0)
(0.37688466 0 0)
(0.37760001 0 0)
(0.37839013 0 0)
(0.37925256 0 0)
(0.38018472 0 0)
(0.38118385 0 0)
(0.38224711 0 0)
(0.38337149 0 0)
(0.38455388 0 0)
(0.38579093 0 0)
(0.38707912 0 0)
(0.38841467 0 0)
(0.38987843 0 0)
(0.3740969 0 0)
(0.37414194 0 0)
(0.37427608 0 0)
(0.37449734 0 0)
(0.37480377 0 0)
(0.37519351 0 0)
(0.37566476 0 0)
(0.37621566 0 0)
(0.37684429 0 0)
(0.37754852 0 0)
(0.37832603 0 0)
(0.37917429 0 0)
(0.38009061 0 0)
(0.38107208 0 0)
(0.38211569 0 0)
(0.38321822 0 0)
(0.38437634 0 0)
(0.38558647 0 0)
(0.38684487 0 0)
(0.38814747 0 0)
(0.38957805 0 0)
(0.3740969 0 0)
(0.37414603 0 0)
(0.37429251 0 0)
(0.37453464 0 0)
(0.37487097 0 0)
(0.37530014 0 0)
(0.37582086 0 0)
(0.37643182 0 0)
(0.3771318 0 0)
(0.37791959 0 0)
(0.37879397 0 0)
(0.37975378 0 0)
(0.38079784 0 0)
(0.38192507 0 0)
(0.38313424 0 0)
(0.38442433 0 0)
(0.38579418 0 0)
(0.3872427 0 0)
(0.38876839 0 0)
(0.39036991 0 0)
(0.39236703 0 0)
(0.3740969 0 0)
(0.37414581 0 0)
(0.37429161 0 0)
(0.37453254 0 0)
(0.37486707 0 0)
(0.37529379 0 0)
(0.37581137 0 0)
(0.37641849 0 0)
(0.37711384 0 0)
(0.37789616 0 0)
(0.37876418 0 0)
(0.37971665 0 0)
(0.38075237 0 0)
(0.38187014 0 0)
(0.3830688 0 0)
(0.38434716 0 0)
(0.38570413 0 0)
(0.3871385 0 0)
(0.3886491 0 0)
(0.39023464 0 0)
(0.39186671 0 0)
(0.3740969 0 0)
(0.37414563 0 0)
(0.37429086 0 0)
(0.37453077 0 0)
(0.37486372 0 0)
(0.37528824 0 0)
(0.37580295 0 0)
(0.37640647 0 0)
(0.3770974 0 0)
(0.37787438 0 0)
(0.37873603 0 0)
(0.37968102 0 0)
(0.38070802 0 0)
(0.38181572 0 0)
(0.38300281 0 0)
(0.38426801 0 0)
(0.38561004 0 0)
(0.38702765 0 0)
(0.38851954 0 0)
(0.39008444 0 0)
(0.39171489 0 0)
(0.3740969 0 0)
(0.37414538 0 0)
(0.37428986 0 0)
(0.37452844 0 0)
(0.3748594 0 0)
(0.3752812 0 0)
(0.3757924 0 0)
(0.37639153 0 0)
(0.37707711 0 0)
(0.37784765 0 0)
(0.37870167 0 0)
(0.37963769 0 0)
(0.38065423 0 0)
(0.3817498 0 0)
(0.38292294 0 0)
(0.38417213 0 0)
(0.38549586 0 0)
(0.38689261 0 0)
(0.38836076 0 0)
(0.38989871 0 0)
(0.39151798 0 0)
(0.3740969 0 0)
(0.37414508 0 0)
(0.37428863 0 0)
(0.3745256 0 0)
(0.37485419 0 0)
(0.37527278 0 0)
(0.37577987 0 0)
(0.37637391 0 0)
(0.37705331 0 0)
(0.37781646 0 0)
(0.37866174 0 0)
(0.37958751 0 0)
(0.38059212 0 0)
(0.38167389 0 0)
(0.3828311 0 0)
(0.38406203 0 0)
(0.38536488 0 0)
(0.38673775 0 0)
(0.38817871 0 0)
(0.38968574 0 0)
(0.3912878 0 0)
(0.3740969 0 0)
(0.37414471 0 0)
(0.37428715 0 0)
(0.37452224 0 0)
(0.37484811 0 0)
(0.37526306 0 0)
(0.37576552 0 0)
(0.37635387 0 0)
(0.37702642 0 0)
(0.37778142 0 0)
(0.37861709 0 0)
(0.37953164 0 0)
(0.38052321 0 0)
(0.38158991 0 0)
(0.38272979 0 0)
(0.38394089 0 0)
(0.38522106 0 0)
(0.38656818 0 0)
(0.38797981 0 0)
(0.38945371 0 0)
(0.3910339 0 0)
(0.3740969 0 0)
(0.37414427 0 0)
(0.37428541 0 0)
(0.37451832 0 0)
(0.37484109 0 0)
(0.37525197 0 0)
(0.37574931 0 0)
(0.37633142 0 0)
(0.37699652 0 0)
(0.37774275 0 0)
(0.37856815 0 0)
(0.37947077 0 0)
(0.38044853 0 0)
(0.38149934 0 0)
(0.38262096 0 0)
(0.38381123 0 0)
(0.38506772 0 0)
(0.38638796 0 0)
(0.38776918 0 0)
(0.38920876 0 0)
(0.39076355 0 0)
(0.3740969 0 0)
(0.37414377 0 0)
(0.3742834 0 0)
(0.37451379 0 0)
(0.37483303 0 0)
(0.37523931 0 0)
(0.37573095 0 0)
(0.37630619 0 0)
(0.37696321 0 0)
(0.37770002 0 0)
(0.37851453 0 0)
(0.37940457 0 0)
(0.38036791 0 0)
(0.38140219 0 0)
(0.38250498 0 0)
(0.38367379 0 0)
(0.38490601 0 0)
(0.38619879 0 0)
(0.38754915 0 0)
(0.38895392 0 0)
(0.39048054 0 0)
(0.3740969 0 0)
(0.37414319 0 0)
(0.3742811 0 0)
(0.37450863 0 0)
(0.37482386 0 0)
(0.37522497 0 0)
(0.37571022 0 0)
(0.37627784 0 0)
(0.37692596 0 0)
(0.37765253 0 0)
(0.37845534 0 0)
(0.37933207 0 0)
(0.38028026 0 0)
(0.38129737 0 0)
(0.38238075 0 0)
(0.38352762 0 0)
(0.38473512 0 0)
(0.38600015 0 0)
(0.38731944 0 0)
(0.38868947 0 0)
(0.39018556 0 0)
(0.3740969 0 0)
(0.37414255 0 0)
(0.37427853 0 0)
(0.37450287 0 0)
(0.37481363 0 0)
(0.37520898 0 0)
(0.37568715 0 0)
(0.37624634 0 0)
(0.37688466 0 0)
(0.37760001 0 0)
(0.37839013 0 0)
(0.37925256 0 0)
(0.38018472 0 0)
(0.38118385 0 0)
(0.38224711 0 0)
(0.38337149 0 0)
(0.38455388 0 0)
(0.38579093 0 0)
(0.38707912 0 0)
(0.38841467 0 0)
(0.38987843 0 0)
(0.3740969 0 0)
(0.37414194 0 0)
(0.37427608 0 0)
(0.37449734 0 0)
(0.37480377 0 0)
(0.37519351 0 0)
(0.37566476 0 0)
(0.37621566 0 0)
(0.37684429 0 0)
(0.37754852 0 0)
(0.37832603 0 0)
(0.37917429 0 0)
(0.38009061 0 0)
(0.38107208 0 0)
(0.38211569 0 0)
(0.38321822 0 0)
(0.38437634 0 0)
(0.38558647 0 0)
(0.38684487 0 0)
(0.38814747 0 0)
(0.38957805 0 0)
(0.3740969 0 0)
(0.37414873 0 0)
(0.37430333 0 0)
(0.37455909 0 0)
(0.3749146 0 0)
(0.37536858 0 0)
(0.37591976 0 0)
(0.37656682 0 0)
(0.37730843 0 0)
(0.37814319 0 0)
(0.37906956 0 0)
(0.38008585 0 0)
(0.38119019 0 0)
(0.38238053 0 0)
(0.38365458 0 0)
(0.38500982 0 0)
(0.38644353 0 0)
(0.38795279 0 0)
(0.38953453 0 0)
(0.39118584 0 0)
(0.39304787 0 0)
(0.3740969 0 0)
(0.37414855 0 0)
(0.37430261 0 0)
(0.37455744 0 0)
(0.37491161 0 0)
(0.3753638 0 0)
(0.37591272 0 0)
(0.37655702 0 0)
(0.37729535 0 0)
(0.37812627 0 0)
(0.37904824 0 0)
(0.38005957 0 0)
(0.38115839 0 0)
(0.38234265 0 0)
(0.38361009 0 0)
(0.38495826 0 0)
(0.3863845 0 0)
(0.38788592 0 0)
(0.38945954 0 0)
(0.39110253 0 0)
(0.39295517 0 0)
(0.3740969 0 0)
(0.37414842 0 0)
(0.3743021 0 0)
(0.37455625 0 0)
(0.3749094 0 0)
(0.37536022 0 0)
(0.37590739 0 0)
(0.37654953 0 0)
(0.37728527 0 0)
(0.37811317 0 0)
(0.3790317 0 0)
(0.38003916 0 0)
(0.38113372 0 0)
(0.38231335 0 0)
(0.38357588 0 0)
(0.3849189 0 0)
(0.38633988 0 0)
(0.38783603 0 0)
(0.38940449 0 0)
(0.39104249 0 0)
(0.39288566 0 0)
(0.3740969 0 0)
(0.37414825 0 0)
(0.3743014 0 0)
(0.37455464 0 0)
(0.3749065 0 0)
(0.37535561 0 0)
(0.37590064 0 0)
(0.37654021 0 0)
(0.37727296 0 0)
(0.37809744 0 0)
(0.37901215 0 0)
(0.38001543 0 0)
(0.3811055 0 0)
(0.38228041 0 0)
(0.38353808 0 0)
(0.38487624 0 0)
(0.3862925 0 0)
(0.38778422 0 0)
(0.3893487 0 0)
(0.39098334 0 0)
(0.39281608 0 0)
(0.3740969 0 0)
(0.37414804 0 0)
(0.37430053 0 0)
(0.37455267 0 0)
(0.37490297 0 0)
(0.37535007 0 0)
(0.37589261 0 0)
(0.37652924 0 0)
(0.3772586 0 0)
(0.37807928 0 0)
(0.37898981 0 0)
(0.3799886 0 0)
(0.38107395 0 0)
(0.38224402 0 0)
(0.38349687 0 0)
(0.38483038 0 0)
(0.38624235 0 0)
(0.38773035 0 0)
(0.38929193 0 0)
(0.3909247 0 0)
(0.39274581 0 0)
(0.3740969 0 0)
(0.37414778 0 0)
(0.37429951 0 0)
(0.37455036 0 0)
(0.37489885 0 0)
(0.37534363 0 0)
(0.37588334 0 0)
(0.37651665 0 0)
(0.37724222 0 0)
(0.37805869 0 0)
(0.37896465 0 0)
(0.37995859 0 0)
(0.38103891 0 0)
(0.38220392 0 0)
(0.38345184 0 0)
(0.38478073 0 0)
(0.38618862 0 0)
(0.38767336 0 0)
(0.38923276 0 0)
(0.3908647 0 0)
(0.39267274 0 0)
(0.3740969 0 0)
(0.37414748 0 0)
(0.37429832 0 0)
(0.3745477 0 0)
(0.37489414 0 0)
(0.3753363 0 0)
(0.37587283 0 0)
(0.37650242 0 0)
(0.37722377 0 0)
(0.37803558 0 0)
(0.37893649 0 0)
(0.3799251 0 0)
(0.38099993 0 0)
(0.38215945 0 0)
(0.38340204 0 0)
(0.38472601 0 0)
(0.38612963 0 0)
(0.38761102 0 0)
(0.38916833 0 0)
(0.39079977 0 0)
(0.39259264 0 0)
(0.3740969 0 0)
(0.37414715 0 0)
(0.37429699 0 0)
(0.37454472 0 0)
(0.37488887 0 0)
(0.37532809 0 0)
(0.37586108 0 0)
(0.37648654 0 0)
(0.3772032 0 0)
(0.37800981 0 0)
(0.3789051 0 0)
(0.37988774 0 0)
(0.3809564 0 0)
(0.38210969 0 0)
(0.38334617 0 0)
(0.38466438 0 0)
(0.38606283 0 0)
(0.38753996 0 0)
(0.38909425 0 0)
(0.39072426 0 0)
(0.39249885 0 0)
(0.3740969 0 0)
(0.37414678 0 0)
(0.37429552 0 0)
(0.37454142 0 0)
(0.37488304 0 0)
(0.37531905 0 0)
(0.37584813 0 0)
(0.37646901 0 0)
(0.37718046 0 0)
(0.37798126 0 0)
(0.37887021 0 0)
(0.37984606 0 0)
(0.38090756 0 0)
(0.38205348 0 0)
(0.38328255 0 0)
(0.38459348 0 0)
(0.38598498 0 0)
(0.38745576 0 0)
(0.38900459 0 0)
(0.39063033 0 0)
(0.39238185 0 0)
(0.3740969 0 0)
(0.37414638 0 0)
(0.37429393 0 0)
(0.37453785 0 0)
(0.37487673 0 0)
(0.37530922 0 0)
(0.37583404 0 0)
(0.37644989 0 0)
(0.37715557 0 0)
(0.3779499 0 0)
(0.37883165 0 0)
(0.37979968 0 0)
(0.38085277 0 0)
(0.38198985 0 0)
(0.38320964 0 0)
(0.38451109 0 0)
(0.38589292 0 0)
(0.38735417 0 0)
(0.38889332 0 0)
(0.3905092 0 0)
(0.39222885 0 0)
(0.3740969 0 0)
(0.37414873 0 0)
(0.37430333 0 0)
(0.37455909 0 0)
(0.3749146 0 0)
(0.37536858 0 0)
(0.37591976 0 0)
(0.37656682 0 0)
(0.37730843 0 0)
(0.37814319 0 0)
(0.37906956 0 0)
(0.38008585 0 0)
(0.38119019 0 0)
(0.38238053 0 0)
(0.38365458 0 0)
(0.38500982 0 0)
(0.38644353 0 0)
(0.38795279 0 0)
(0.38953453 0 0)
(0.39118584 0 0)
(0.39304787 0 0)
(0.3740969 0 0)
(0.37414855 0 0)
(0.37430261 0 0)
(0.37455744 0 0)
(0.37491161 0 0)
(0.3753638 0 0)
(0.37591272 0 0)
(0.37655702 0 0)
(0.37729535 0 0)
(0.37812627 0 0)
(0.37904824 0 0)
(0.38005957 0 0)
(0.38115839 0 0)
(0.38234265 0 0)
(0.38361009 0 0)
(0.38495826 0 0)
(0.3863845 0 0)
(0.38788592 0 0)
(0.38945954 0 0)
(0.39110253 0 0)
(0.39295517 0 0)
(0.3740969 0 0)
(0.37414842 0 0)
(0.3743021 0 0)
(0.37455625 0 0)
(0.3749094 0 0)
(0.37536022 0 0)
(0.37590739 0 0)
(0.37654953 0 0)
(0.37728527 0 0)
(0.37811317 0 0)
(0.3790317 0 0)
(0.38003916 0 0)
(0.38113372 0 0)
(0.38231335 0 0)
(0.38357588 0 0)
(0.3849189 0 0)
(0.38633988 0 0)
(0.38783603 0 0)
(0.38940449 0 0)
(0.39104249 0 0)
(0.39288566 0 0)
(0.3740969 0 0)
(0.37414825 0 0)
(0.3743014 0 0)
(0.37455464 0 0)
(0.3749065 0 0)
(0.37535561 0 0)
(0.37590064 0 0)
(0.37654021 0 0)
(0.37727296 0 0)
(0.37809744 0 0)
(0.37901215 0 0)
(0.38001543 0 0)
(0.3811055 0 0)
(0.38228041 0 0)
(0.38353808 0 0)
(0.38487624 0 0)
(0.3862925 0 0)
(0.38778422 0 0)
(0.3893487 0 0)
(0.39098334 0 0)
(0.39281608 0 0)
(0.3740969 0 0)
(0.37414804 0 0)
(0.37430053 0 0)
(0.37455267 0 0)
(0.37490297 0 0)
(0.37535007 0 0)
(0.37589261 0 0)
(0.37652924 0 0)
(0.3772586 0 0)
(0.37807928 0 0)
(0.37898981 0 0)
(0.3799886 0 0)
(0.38107395 0 0)
(0.38224402 0 0)
(0.38349687 0 0)
(0.38483038 0 0)
(0.38624235 0 0)
(0.38773035 0 0)
(0.38929193 0 0)
(0.3909247 0 0)
(0.39274581 0 0)
(0.3740969 0 0)
(0.37414778 0 0)
(0.37429951 0 0)
(0.37455036 0 0)
(0.37489885 0 0)
(0.37534363 0 0)
(0.37588334 0 0)
(0.37651665 0 0)
(0.37724222 0 0)
(0.37805869 0 0)
(0.37896465 0 0)
(0.37995859 0 0)
(0.38103891 0 0)
(0.38220392 0 0)
(0.38345184 0 0)
(0.38478073 0 0)
(0.38618862 0 0)
(0.38767336 0 0)
(0.38923276 0 0)
(0.3908647 0 0)
(0.39267274 0 0)
(0.3740969 0 0)
(0.37414748 0 0)
(0.37429832 0 0)
(0.3745477 0 0)
(0.37489414 0 0)
(0.3753363 0 0)
(0.37587283 0 0)
(0.37650242 0 0)
(0.37722377 0 0)
(0.37803558 0 0)
(0.37893649 0 0)
(0.3799251 0 0)
(0.38099993 0 0)
(0.38215945 0 0)
(0.38340204 0 0)
(0.38472601 0 0)
(0.38612963 0 0)
(0.38761102 0 0)
(0.38916833 0 0)
(0.39079977 0 0)
(0.39259264 0 0)
(0.3740969 0 0)
(0.37414715 0 0)
(0.37429699 0 0)
(0.37454472 0 0)
(0.37488887 0 0)
(0.37532809 0 0)
(0.37586108 0 0)
(0.37648654 0 0)
(0.3772032 0 0)
(0.37800981 0 0)
(0.3789051 0 0)
(0.37988774 0 0)
(0.3809564 0 0)
(0.38210969 0 0)
(0.38334617 0 0)
(0.38466438 0 0)
(0.38606283 0 0)
(0.38753996 0 0)
(0.38909425 0 0)
(0.39072426 0 0)
(0.39249885 0 0)
(0.3740969 0 0)
(0.37414678 0 0)
(0.37429552 0 0)
(0.37454142 0 0)
(0.37488304 0 0)
(0.37531905 0 0)
(0.37584813 0 0)
(0.37646901 0 0)
(0.37718046 0 0)
(0.37798126 0 0)
(0.37887021 0 0)
(0.37984606 0 0)
(0.38090756 0 0)
(0.38205348 0 0)
(0.38328255 0 0)
(0.38459348 0 0)
(0.38598498 0 0)
(0.38745576 0 0)
(0.38900459 0 0)
(0.39063033 0 0)
(0.39238185 0 0)
(0.3740969 0 0)
(0.37414638 0 0)
(0.37429393 0 0)
(0.37453785 0 0)
(0.37487673 0 0)
(0.37530922 0 0)
(0.37583404 0 0)
(0.37644989 0 0)
(0.37715557 0 0)
(0.3779499 0 0)
(0.37883165 0 0)
(0.37979968 0 0)
(0.38085277 0 0)
(0.38198985 0 0)
(0.38320964 0 0)
(0.38451109 0 0)
(0.38589292 0 0)
(0.38735417 0 0)
(0.38889332 0 0)
(0.3905092 0 0)
(0.39222885 0 0)
(0.39529559 0 0)
(0.39778339 0 0)
(0.40035738 0 0)
(0.40300428 0 0)
(0.40571085 0 0)
(0.40846043 0 0)
(0.41122817 0 0)
(0.41398038 0 0)
(0.41668247 0 0)
(0.41930234 0 0)
(0.42180619 0 0)
(0.42415656 0 0)
(0.42631839 0 0)
(0.42826228 0 0)
(0.4299517 0 0)
(0.4313461 0 0)
(0.43241124 0 0)
(0.43311916 0 0)
(0.43343956 0 0)
(0.43333942 0 0)
(0.43278508 0 0)
(0.4317473 0 0)
(0.43019406 0 0)
(0.42808728 0 0)
(0.42538775 0 0)
(0.42206593 0 0)
(0.41808988 0 0)
(0.41341315 0 0)
(0.40798886 0 0)
(0.40177456 0 0)
(0.39472513 0 0)
(0.38677896 0 0)
(0.3778685 0 0)
(0.36792453 0 0)
(0.35686148 0 0)
(0.3446239 0 0)
(0.33118771 0 0)
(0.31644824 0 0)
(0.30021734 0 0)
(0.28242545 0 0)
(0.2630859 0 0)
(0.24210362 0 0)
(0.21933252 0 0)
(0.19463788 0 0)
(0.16793051 0 0)
(0.13913421 0 0)
(0.10809178 0 0)
(0.074592003 0 0)
(0.03854101 0 0)
(0 0 0)
(0.39519153 0 0)
(0.39766716 0 0)
(0.40022996 0 0)
(0.40286745 0 0)
(0.40556742 0 0)
(0.40831446 0 0)
(0.4110843 0 0)
(0.41384305 0 0)
(0.41655555 0 0)
(0.41918881 0 0)
(0.42170781 0 0)
(0.42407463 0 0)
(0.42625467 0 0)
(0.42821685 0 0)
(0.42992318 0 0)
(0.43133325 0 0)
(0.43241307 0 0)
(0.4331347 0 0)
(0.43346811 0 0)
(0.43338062 0 0)
(0.43283881 0 0)
(0.43181297 0 0)
(0.43027101 0 0)
(0.42817473 0 0)
(0.42548484 0 0)
(0.4221714 0 0)
(0.4182026 0 0)
(0.41353215 0 0)
(0.40811335 0 0)
(0.40190468 0 0)
(0.39485929 0 0)
(0.38691648 0 0)
(0.37800801 0 0)
(0.36806468 0 0)
(0.35700173 0 0)
(0.34476425 0 0)
(0.33132793 0 0)
(0.31658762 0 0)
(0.30035232 0 0)
(0.28255117 0 0)
(0.26320012 0 0)
(0.24220543 0 0)
(0.21942175 0 0)
(0.19471474 0 0)
(0.16799658 0 0)
(0.13918888 0 0)
(0.10813208 0 0)
(0.07461768 0 0)
(0.038553314 0 0)
(0 0 0)
(0.39510377 0 0)
(0.39755763 0 0)
(0.40010033 0 0)
(0.40272022 0 0)
(0.40540627 0 0)
(0.40814422 0 0)
(0.41091061 0 0)
(0.41367167 0 0)
(0.41639162 0 0)
(0.41903654 0 0)
(0.42157039 0 0)
(0.42395488 0 0)
(0.42615518 0 0)
(0.4281392 0 0)
(0.42986782 0 0)
(0.43129968 0 0)
(0.43240071 0 0)
(0.43314335 0 0)
(0.43349821 0 0)
(0.43343202 0 0)
(0.43291093 0 0)
(0.43190543 0 0)
(0.43038399 0 0)
(0.42830734 0 0)
(0.42563539 0 0)
(0.42233857 0 0)
(0.41838585 0 0)
(0.41372995 0 0)
(0.4083235 0 0)
(0.40212744 0 0)
(0.39509301 0 0)
(0.38715905 0 0)
(0.37825744 0 0)
(0.36831956 0 0)
(0.35726046 0 0)
(0.34502494 0 0)
(0.3315893 0 0)
(0.31684832 0 0)
(0.30060774 0 0)
(0.2827953 0 0)
(0.26342978 0 0)
(0.24241821 0 0)
(0.21961505 0 0)
(0.19488651 0 0)
(0.16814714 0 0)
(0.13931593 0 0)
(0.10822999 0 0)
(0.074683627 0 0)
(0.038586591 0 0)
(0 0 0)
(0.39500922 0 0)
(0.39743223 0 0)
(0.39994683 0 0)
(0.40254215 0 0)
(0.40520802 0 0)
(0.4079313 0 0)
(0.41068947 0 0)
(0.41344923 0 0)
(0.41617474 0 0)
(0.41883086 0 0)
(0.4213802 0 0)
(0.4237844 0 0)
(0.42600876 0 0)
(0.42801962 0 0)
(0.42977668 0 0)
(0.43123808 0 0)
(0.43236889 0 0)
(0.4331415 0 0)
(0.43352723 0 0)
(0.43349235 0 0)
(0.43300215 0 0)
(0.43202701 0 0)
(0.43053595 0 0)
(0.42848898 0 0)
(0.42584502 0 0)
(0.42257434 0 0)
(0.41864666 0 0)
(0.41401405 0 0)
(0.40862831 0 0)
(0.40245206 0 0)
(0.3954353 0 0)
(0.38751682 0 0)
(0.37862772 0 0)
(0.36869965 0 0)
(0.3576477 0 0)
(0.34541657 0 0)
(0.33198279 0 0)
(0.31724034 0 0)
(0.30099257 0 0)
(0.28316681 0 0)
(0.26378363 0 0)
(0.24274977 0 0)
(0.21991918 0 0)
(0.19515933 0 0)
(0.16838749 0 0)
(0.13951945 0 0)
(0.10838882 0 0)
(0.074792233 0 0)
(0.038641971 0 0)
(0 0 0)
(0.39490722 0 0)
(0.39729049 0 0)
(0.39976913 0 0)
(0.40233292 0 0)
(0.40497254 0 0)
(0.40767571 0 0)
(0.41042089 0 0)
(0.41317563 0 0)
(0.415904 0 0)
(0.41856998 0 0)
(0.42113511 0 0)
(0.4235608 0 0)
(0.42581214 0 0)
(0.42785441 0 0)
(0.42964621 0 0)
(0.43114432 0 0)
(0.43231291 0 0)
(0.43312451 0 0)
(0.43355087 0 0)
(0.43355711 0 0)
(0.43310757 0 0)
(0.4321729 0 0)
(0.43072265 0 0)
(0.42871543 0 0)
(0.42610887 0 0)
(0.42287383 0 0)
(0.41898079 0 0)
(0.41438034 0 0)
(0.40902322 0 0)
(0.40287435 0 0)
(0.39588234 0 0)
(0.38798528 0 0)
(0.37911428 0 0)
(0.36920118 0 0)
(0.35816 0 0)
(0.34593527 0 0)
(0.33250448 0 0)
(0.31776067 0 0)
(0.30150427 0 0)
(0.28366258 0 0)
(0.26425847 0 0)
(0.24319741 0 0)
(0.22033184 0 0)
(0.19553097 0 0)
(0.16871565 0 0)
(0.13979803 0 0)
(0.10860729 0 0)
(0.074942487 0 0)
(0.038719081 0 0)
(0 0 0)
(0.39479556 0 0)
(0.39713002 0 0)
(0.39956457 0 0)
(0.40208981 0 0)
(0.40469695 0 0)
(0.40737441 0 0)
(0.41010156 0 0)
(0.41284712 0 0)
(0.41557535 0 0)
(0.41824913 0 0)
(0.4208295 0 0)
(0.42327804 0 0)
(0.42555936 0 0)
(0.42763725 0 0)
(0.42946948 0 0)
(0.43101148 0 0)
(0.43222608 0 0)
(0.43308556 0 0)
(0.43356184 0 0)
(0.4336192 0 0)
(0.43322066 0 0)
(0.43233662 0 0)
(0.43093707 0 0)
(0.42897973 0 0)
(0.42642078 0 0)
(0.42323101 0 0)
(0.41938154 0 0)
(0.41482222 0 0)
(0.40950249 0 0)
(0.40338814 0 0)
(0.39642767 0 0)
(0.38855877 0 0)
(0.37971179 0 0)
(0.36981838 0 0)
(0.35879161 0 0)
(0.34657603 0 0)
(0.33314985 0 0)
(0.31840444 0 0)
(0.30213775 0 0)
(0.28427843 0 0)
(0.26485058 0 0)
(0.24375733 0 0)
(0.22084934 0 0)
(0.19599845 0 0)
(0.16912904 0 0)
(0.14014919 0 0)
(0.10888364 0 0)
(0.075133462 0 0)
(0.038817389 0 0)
(0 0 0)
(0.39466988 0 0)
(0.39694636 0 0)
(0.3993285 0 0)
(0.40180774 0 0)
(0.40437576 0 0)
(0.40702142 0 0)
(0.40972523 0 0)
(0.41245699 0 0)
(0.4151812 0 0)
(0.41786024 0 0)
(0.42045498 0 0)
(0.42292718 0 0)
(0.42524097 0 0)
(0.42735902 0 0)
(0.42923737 0 0)
(0.43082996 0 0)
(0.43209862 0 0)
(0.43301516 0 0)
(0.43355102 0 0)
(0.43366927 0 0)
(0.43333184 0 0)
(0.43250896 0 0)
(0.43117057 0 0)
(0.42927317 0 0)
(0.42677171 0 0)
(0.42363713 0 0)
(0.41984094 0 0)
(0.4153317 0 0)
(0.41005776 0 0)
(0.40398585 0 0)
(0.39706375 0 0)
(0.38922904 0 0)
(0.38041223 0 0)
(0.3705442 0 0)
(0.35953575 0 0)
(0.3473317 0 0)
(0.33391196 0 0)
(0.31916565 0 0)
(0.30288766 0 0)
(0.28500865 0 0)
(0.26555432 0 0)
(0.24442458 0 0)
(0.2214674 0 0)
(0.19655763 0 0)
(0.16962404 0 0)
(0.1405701 0 0)
(0.10921553 0 0)
(0.075363378 0 0)
(0.03893603 0 0)
(0 0 0)
(0.39452326 0 0)
(0.39673267 0 0)
(0.39905398 0 0)
(0.40147957 0 0)
(0.40400142 0 0)
(0.40660873 0 0)
(0.40928293 0 0)
(0.41199564 0 0)
(0.41471159 0 0)
(0.41739266 0 0)
(0.42000018 0 0)
(0.4224966 0 0)
(0.42484577 0 0)
(0.42700816 0 0)
(0.42893807 0 0)
(0.43058822 0 0)
(0.43191913 0 0)
(0.43290166 0 0)
(0.43350665 0 0)
(0.43369596 0 0)
(0.43343012 0 0)
(0.43267882 0 0)
(0.43141188 0 0)
(0.4295849 0 0)
(0.42715148 0 0)
(0.42408206 0 0)
(0.42034842 0 0)
(0.41589852 0 0)
(0.41067945 0 0)
(0.40465762 0 0)
(0.39778071 0 0)
(0.38998687 0 0)
(0.38120644 0 0)
(0.37136927 0 0)
(0.36038349 0 0)
(0.34819409 0 0)
(0.33478283 0 0)
(0.32003614 0 0)
(0.30374614 0 0)
(0.28584635 0 0)
(0.26636337 0 0)
(0.24519295 0 0)
(0.22218014 0 0)
(0.19720353 0 0)
(0.17019628 0 0)
(0.14105684 0 0)
(0.1096001 0 0)
(0.075630517 0 0)
(0.039074007 0 0)
(0 0 0)
(0.3943458 0 0)
(0.3964796 0 0)
(0.39873212 0 0)
(0.40109651 0 0)
(0.40356447 0 0)
(0.40612544 0 0)
(0.40876273 0 0)
(0.41144964 0 0)
(0.41415216 0 0)
(0.41683265 0 0)
(0.41945248 0 0)
(0.42197415 0 0)
(0.42436073 0 0)
(0.42657122 0 0)
(0.42855818 0 0)
(0.43027277 0 0)
(0.43167396 0 0)
(0.43273167 0 0)
(0.43341574 0 0)
(0.43368628 0 0)
(0.43350239 0 0)
(0.43283334 0 0)
(0.43164867 0 0)
(0.42990278 0 0)
(0.42754771 0 0)
(0.42455363 0 0)
(0.42089247 0 0)
(0.41651127 0 0)
(0.41135598 0 0)
(0.40539261 0 0)
(0.39856778 0 0)
(0.39082084 0 0)
(0.38208323 0 0)
(0.37228331 0 0)
(0.36132494 0 0)
(0.3491531 0 0)
(0.33575255 0 0)
(0.32100706 0 0)
(0.30470522 0 0)
(0.28678336 0 0)
(0.26726963 0 0)
(0.24605516 0 0)
(0.22298108 0 0)
(0.19793006 0 0)
(0.17084049 0 0)
(0.14160522 0 0)
(0.11003393 0 0)
(0.075932315 0 0)
(0.039230115 0 0)
(0 0 0)
(0.39412351 0 0)
(0.39617492 0 0)
(0.39835177 0 0)
(0.40064666 0 0)
(0.40305119 0 0)
(0.40555742 0 0)
(0.4081505 0 0)
(0.41080474 0 0)
(0.41348863 0 0)
(0.41616619 0 0)
(0.41879791 0 0)
(0.42134572 0 0)
(0.42377197 0 0)
(0.42603416 0 0)
(0.42808365 0 0)
(0.42986992 0 0)
(0.43135013 0 0)
(0.4324924 0 0)
(0.43326529 0 0)
(0.4336275 0 0)
(0.4335365 0 0)
(0.4329605 0 0)
(0.43186874 0 0)
(0.43021485 0 0)
(0.42794936 0 0)
(0.425041 0 0)
(0.42146179 0 0)
(0.41715899 0 0)
(0.41207719 0 0)
(0.40618038 0 0)
(0.39941455 0 0)
(0.391721 0 0)
(0.38303267 0 0)
(0.37327627 0 0)
(0.3623504 0 0)
(0.35019952 0 0)
(0.33681216 0 0)
(0.32206937 0 0)
(0.30575607 0 0)
(0.28781169 0 0)
(0.26826557 0 0)
(0.24700379 0 0)
(0.22386315 0 0)
(0.19873111 0 0)
(0.17155118 0 0)
(0.1422103 0 0)
(0.11051336 0 0)
(0.07626657 0 0)
(0.039403127 0 0)
(0 0 0)
(0.39430969 0 0)
(0.39627366 0 0)
(0.39836622 0 0)
(0.40057824 0 0)
(0.40290414 0 0)
(0.40533872 0 0)
(0.40786656 0 0)
(0.41046337 0 0)
(0.41310094 0 0)
(0.41574537 0 0)
(0.41835744 0 0)
(0.42089919 0 0)
(0.42333257 0 0)
(0.42561431 0 0)
(0.42769429 0 0)
(0.42952064 0 0)
(0.4310492 0 0)
(0.43224716 0 0)
(0.43308199 0 0)
(0.4335109 0 0)
(0.43348967 0 0)
(0.43298579 0 0)
(0.43196835 0 0)
(0.43039 0 0)
(0.42819958 0 0)
(0.42536465 0 0)
(0.42185741 0 0)
(0.41762497 0 0)
(0.41261032 0 0)
(0.40677645 0 0)
(0.40006806 0 0)
(0.39242715 0 0)
(0.383789 0 0)
(0.3740787 0 0)
(0.36319116 0 0)
(0.35106765 0 0)
(0.33770076 0 0)
(0.32297008 0 0)
(0.30665868 0 0)
(0.2887048 0 0)
(0.26913967 0 0)
(0.24784512 0 0)
(0.22465341 0 0)
(0.19945523 0 0)
(0.17219965 0 0)
(0.14276813 0 0)
(0.1109608 0 0)
(0.076583476 0 0)
(0.039572004 0 0)
(0 0 0)
(0.39529559 0 0)
(0.39778339 0 0)
(0.40035738 0 0)
(0.40300428 0 0)
(0.40571085 0 0)
(0.40846043 0 0)
(0.41122817 0 0)
(0.41398038 0 0)
(0.41668247 0 0)
(0.41930234 0 0)
(0.42180619 0 0)
(0.42415656 0 0)
(0.42631839 0 0)
(0.42826228 0 0)
(0.4299517 0 0)
(0.4313461 0 0)
(0.43241124 0 0)
(0.43311916 0 0)
(0.43343956 0 0)
(0.43333942 0 0)
(0.43278508 0 0)
(0.4317473 0 0)
(0.43019406 0 0)
(0.42808728 0 0)
(0.42538775 0 0)
(0.42206593 0 0)
(0.41808988 0 0)
(0.41341315 0 0)
(0.40798886 0 0)
(0.40177456 0 0)
(0.39472513 0 0)
(0.38677896 0 0)
(0.3778685 0 0)
(0.36792453 0 0)
(0.35686148 0 0)
(0.3446239 0 0)
(0.33118771 0 0)
(0.31644824 0 0)
(0.30021734 0 0)
(0.28242545 0 0)
(0.2630859 0 0)
(0.24210362 0 0)
(0.21933252 0 0)
(0.19463788 0 0)
(0.16793051 0 0)
(0.13913421 0 0)
(0.10809178 0 0)
(0.074592003 0 0)
(0.03854101 0 0)
(0 0 0)
(0.39519153 0 0)
(0.39766716 0 0)
(0.40022996 0 0)
(0.40286745 0 0)
(0.40556742 0 0)
(0.40831446 0 0)
(0.4110843 0 0)
(0.41384305 0 0)
(0.41655555 0 0)
(0.41918881 0 0)
(0.42170781 0 0)
(0.42407463 0 0)
(0.42625467 0 0)
(0.42821685 0 0)
(0.42992318 0 0)
(0.43133325 0 0)
(0.43241307 0 0)
(0.4331347 0 0)
(0.43346811 0 0)
(0.43338062 0 0)
(0.43283881 0 0)
(0.43181297 0 0)
(0.43027101 0 0)
(0.42817473 0 0)
(0.42548484 0 0)
(0.4221714 0 0)
(0.4182026 0 0)
(0.41353215 0 0)
(0.40811335 0 0)
(0.40190468 0 0)
(0.39485929 0 0)
(0.38691648 0 0)
(0.37800801 0 0)
(0.36806468 0 0)
(0.35700173 0 0)
(0.34476425 0 0)
(0.33132793 0 0)
(0.31658762 0 0)
(0.30035232 0 0)
(0.28255117 0 0)
(0.26320012 0 0)
(0.24220543 0 0)
(0.21942175 0 0)
(0.19471474 0 0)
(0.16799658 0 0)
(0.13918888 0 0)
(0.10813208 0 0)
(0.07461768 0 0)
(0.038553314 0 0)
(0 0 0)
(0.39510377 0 0)
(0.39755763 0 0)
(0.40010033 0 0)
(0.40272022 0 0)
(0.40540627 0 0)
(0.40814422 0 0)
(0.41091061 0 0)
(0.41367167 0 0)
(0.41639162 0 0)
(0.41903654 0 0)
(0.42157039 0 0)
(0.42395488 0 0)
(0.42615518 0 0)
(0.4281392 0 0)
(0.42986782 0 0)
(0.43129968 0 0)
(0.43240071 0 0)
(0.43314335 0 0)
(0.43349821 0 0)
(0.43343202 0 0)
(0.43291093 0 0)
(0.43190543 0 0)
(0.43038399 0 0)
(0.42830734 0 0)
(0.42563539 0 0)
(0.42233857 0 0)
(0.41838585 0 0)
(0.41372995 0 0)
(0.4083235 0 0)
(0.40212744 0 0)
(0.39509301 0 0)
(0.38715905 0 0)
(0.37825744 0 0)
(0.36831956 0 0)
(0.35726046 0 0)
(0.34502494 0 0)
(0.3315893 0 0)
(0.31684832 0 0)
(0.30060774 0 0)
(0.2827953 0 0)
(0.26342978 0 0)
(0.24241821 0 0)
(0.21961505 0 0)
(0.19488651 0 0)
(0.16814714 0 0)
(0.13931593 0 0)
(0.10822999 0 0)
(0.074683627 0 0)
(0.038586591 0 0)
(0 0 0)
(0.39500922 0 0)
(0.39743223 0 0)
(0.39994683 0 0)
(0.40254215 0 0)
(0.40520802 0 0)
(0.4079313 0 0)
(0.41068947 0 0)
(0.41344923 0 0)
(0.41617474 0 0)
(0.41883086 0 0)
(0.4213802 0 0)
(0.4237844 0 0)
(0.42600876 0 0)
(0.42801962 0 0)
(0.42977668 0 0)
(0.43123808 0 0)
(0.43236889 0 0)
(0.4331415 0 0)
(0.43352723 0 0)
(0.43349235 0 0)
(0.43300215 0 0)
(0.43202701 0 0)
(0.43053595 0 0)
(0.42848898 0 0)
(0.42584502 0 0)
(0.42257434 0 0)
(0.41864666 0 0)
(0.41401405 0 0)
(0.40862831 0 0)
(0.40245206 0 0)
(0.3954353 0 0)
(0.38751682 0 0)
(0.37862772 0 0)
(0.36869965 0 0)
(0.3576477 0 0)
(0.34541657 0 0)
(0.33198279 0 0)
(0.31724034 0 0)
(0.30099257 0 0)
(0.28316681 0 0)
(0.26378363 0 0)
(0.24274977 0 0)
(0.21991918 0 0)
(0.19515933 0 0)
(0.16838749 0 0)
(0.13951945 0 0)
(0.10838882 0 0)
(0.074792233 0 0)
(0.038641971 0 0)
(0 0 0)
(0.39490722 0 0)
(0.39729049 0 0)
(0.39976913 0 0)
(0.40233292 0 0)
(0.40497254 0 0)
(0.40767571 0 0)
(0.41042089 0 0)
(0.41317563 0 0)
(0.415904 0 0)
(0.41856998 0 0)
(0.42113511 0 0)
(0.4235608 0 0)
(0.42581214 0 0)
(0.42785441 0 0)
(0.42964621 0 0)
(0.43114432 0 0)
(0.43231291 0 0)
(0.43312451 0 0)
(0.43355087 0 0)
(0.43355711 0 0)
(0.43310757 0 0)
(0.4321729 0 0)
(0.43072265 0 0)
(0.42871543 0 0)
(0.42610887 0 0)
(0.42287383 0 0)
(0.41898079 0 0)
(0.41438034 0 0)
(0.40902322 0 0)
(0.40287435 0 0)
(0.39588234 0 0)
(0.38798528 0 0)
(0.37911428 0 0)
(0.36920118 0 0)
(0.35816 0 0)
(0.34593527 0 0)
(0.33250448 0 0)
(0.31776067 0 0)
(0.30150427 0 0)
(0.28366258 0 0)
(0.26425847 0 0)
(0.24319741 0 0)
(0.22033184 0 0)
(0.19553097 0 0)
(0.16871565 0 0)
(0.13979803 0 0)
(0.10860729 0 0)
(0.074942487 0 0)
(0.038719081 0 0)
(0 0 0)
(0.39479556 0 0)
(0.39713002 0 0)
(0.39956457 0 0)
(0.40208981 0 0)
(0.40469695 0 0)
(0.40737441 0 0)
(0.41010156 0 0)
(0.41284712 0 0)
(0.41557535 0 0)
(0.41824913 0 0)
(0.4208295 0 0)
(0.42327804 0 0)
(0.42555936 0 0)
(0.42763725 0 0)
(0.42946948 0 0)
(0.43101148 0 0)
(0.43222608 0 0)
(0.43308556 0 0)
(0.43356184 0 0)
(0.4336192 0 0)
(0.43322066 0 0)
(0.43233662 0 0)
(0.43093707 0 0)
(0.42897973 0 0)
(0.42642078 0 0)
(0.42323101 0 0)
(0.41938154 0 0)
(0.41482222 0 0)
(0.40950249 0 0)
(0.40338814 0 0)
(0.39642767 0 0)
(0.38855877 0 0)
(0.37971179 0 0)
(0.36981838 0 0)
(0.35879161 0 0)
(0.34657603 0 0)
(0.33314985 0 0)
(0.31840444 0 0)
(0.30213775 0 0)
(0.28427843 0 0)
(0.26485058 0 0)
(0.24375733 0 0)
(0.22084934 0 0)
(0.19599845 0 0)
(0.16912904 0 0)
(0.14014919 0 0)
(0.10888364 0 0)
(0.075133462 0 0)
(0.038817389 0 0)
(0 0 0)