/*--------------------------------*- C++ -*----------------------------------*\
| =========                 |                                                 |
| \\      /  F ield         | OpenFOAM: The Open Source CFD Toolbox           |
|  \\    /   O peration     | Version:  v2012                                 |
|   \\  /    A nd           | Website:  www.openfoam.com                      |
|    \\/     M anipulation  |                                                 |
\*---------------------------------------------------------------------------*/
FoamFile
{
    version     2.0;
    format      ascii;
    class       volVectorField;
    location    "20.525825016836894";
    object      U;
}
// * * * * * * * * * * * * * * * * * * * * * * * * * * * * * * * * * * * * * //

dimensions      [0 1 -1 0 0 0 0];


internalField   nonuniform List<vector> 
9200
(
(2.5898672 -0.0031831792 2.561669e-22)
(2.5895743 -0.011183425 2.8384203e-22)
(2.5998832 -0.0033427467 -2.438722e-22)
(2.5893075 -0.01757166 -5.5368893e-23)
(2.5999423 -0.011922526 3.6886925e-22)
(2.605222 -0.0033450826 -3.3643705e-22)
(2.5887081 -0.024711608 -9.1071303e-23)
(2.5999974 -0.018734654 2.2154976e-23)
(2.6054637 -0.012004764 -1.1465287e-22)
(2.6117493 -0.0033017025 1.4179205e-22)
(2.587945 -0.031234873 1.0346265e-22)
(2.6000529 -0.026434602 5.18479e-23)
(2.6057627 -0.018848723 -1.1171722e-22)
(2.6122118 -0.01199208 -1.0632367e-22)
(2.6176331 -0.0032005838 1.7883902e-22)
(2.586899 -0.038082566 1.8479986e-22)
(2.6000258 -0.033521381 1.4207655e-22)
(2.6061946 -0.026615214 1.5957998e-23)
(2.6127905 -0.01881676 6.2081649e-23)
(2.6183123 -0.011793561 1.6791074e-22)
(2.6232639 -0.0030501972 -2.2604189e-23)
(2.5855698 -0.044843049 -4.0076042e-22)
(2.5999788 -0.041020415 -1.8659833e-22)
(2.606634 -0.033741058 4.8492946e-22)
(2.6136468 -0.026597537 -3.5936895e-22)
(2.6191595 -0.018506995 1.2693705e-22)
(2.6241828 -0.011447953 1.5745519e-23)
(2.6284588 -0.0028517392 4.9887048e-22)
(2.5838908 -0.051843142 4.1485762e-22)
(2.5998698 -0.048513691 1.6696887e-22)
(2.6071776 -0.041235093 2.3430766e-22)
(2.6145606 -0.03370508 -1.5340357e-22)
(2.6203982 -0.026213731 -5.2787772e-23)
(2.625313 -0.01799492 3.4699652e-22)
(2.6296516 -0.01093915 -1.972109e-22)
(2.6331965 -0.0026054242 6.1944768e-22)
(2.58181 -0.059048122 -3.0012723e-22)
(2.5997527 -0.056377803 2.8357386e-23)
(2.6078176 -0.0486356 -6.1368451e-22)
(2.6156552 -0.041103174 -8.4172893e-24)
(2.6216878 -0.033242703 -2.1309961e-22)
(2.6269476 -0.025600541 4.570495e-22)
(2.6311048 -0.017262994 -2.6279118e-22)
(2.634706 -0.010241726 1.5537968e-24)
(2.6374078 -0.0023112865 -7.18346e-22)
(2.5792395 -0.06660487 3.7469961e-23)
(2.5996456 -0.064642612 -3.9208876e-22)
(2.6086843 -0.056272729 -1.2686025e-21)
(2.6169098 -0.048254715 1.2138516e-22)
(2.6231346 -0.040490776 -1.5973837e-22)
(2.6285853 -0.032593915 -3.4902827e-22)
(2.6331977 -0.024745982 7.3230986e-22)
(2.636552 -0.016268896 -2.3564397e-22)
(2.6392746 -0.0093236806 -1.1548641e-22)
(2.6410281 -0.0019692298 -9.0096522e-22)
(2.5760758 -0.07458965 3.8945726e-22)
(2.5995783 -0.073556593 1.433598e-23)
(2.6099057 -0.064134032 -6.1565536e-22)
(2.6185044 -0.055385052 6.2163269e-22)
(2.624648 -0.047335921 1.7629871e-22)
(2.6302808 -0.039810632 -1.3698388e-22)
(2.6352451 -0.031778586 1.2178794e-22)
(2.6392209 -0.023582765 -9.0258066e-22)
(2.6416009 -0.014946914 1.2932067e-22)
(2.6432824 -0.0081584733 0)
(2.6439941 -0.0015757632 8.7206932e-22)
(2.5721831 -0.083104 -8.4628195e-22)
(2.5995559 -0.083342922 -1.0698502e-21)
(2.6116657 -0.072432187 4.7644517e-22)
(2.6206369 -0.062361199 -4.3576493e-22)
(2.6263811 -0.053858866 1.8019269e-22)
(2.6318078 -0.046575194 1.0356203e-23)
(2.6372314 -0.039159805 -3.9846442e-22)
(2.6418442 -0.030704887 2.1584626e-22)
(2.6449972 -0.021990905 -2.2320659e-22)
(2.6461775 -0.013230671 1.044097e-21)
(2.6466378 -0.006729959 1.9685896e-22)
(2.6462662 -0.0011222279 -2.1642294e-21)
(2.5673981 -0.092225785 -1.6308091e-22)
(2.5995459 -0.0942943 -5.5174207e-22)
(2.6141668 -0.081382672 1.2028298e-22)
(2.6236196 -0.069253662 2.2856054e-22)
(2.628508 -0.059748634 2.8889566e-22)
(2.6332071 -0.052837968 6.5973382e-22)
(2.6387526 -0.046226517 -1.1972222e-22)
(2.6443421 -0.038429433 -3.9966091e-23)
(2.6484386 -0.029172203 -1.3238821e-21)
(2.6504538 -0.019837052 1.838329e-21)
(2.6501758 -0.011071469 3.7095291e-22)
(2.6492484 -0.0050426648 -1.6112456e-21)
(2.6477796 -0.000556754 -1.0079584e-21)
(2.5615286 -0.10201586 2.0860962e-22)
(2.5994706 -0.10672921 1.3467781e-21)
(2.6176129 -0.091290642 9.9297308e-22)
(2.6278314 -0.07613502 -1.2058887e-22)
(2.6313549 -0.064842817 -1.1619878e-21)
(2.6345087 -0.058128197 -5.2186124e-23)
(2.6396772 -0.052861877 -1.5288227e-23)
(2.6461279 -0.046187006 -8.2500035e-22)
(2.6518092 -0.037305278 -3.2799437e-22)
(2.654981 -0.026935642 -2.4958316e-23)
(2.6554512 -0.017010563 8.5192414e-22)
(2.6534727 -0.0084502366 -7.2135335e-22)
(2.6510584 -0.003130935 -1.4866142e-21)
(2.6484212 0.00020209655 2.8133034e-21)
(2.554357 -0.11250785 -5.4049245e-22)
(2.5991902 -0.12099173 6.7823299e-23)
(2.6222073 -0.10255004 2.0487541e-21)
(2.633732 -0.083139001 -2.6467669e-21)
(2.6353499 -0.068924642 7.3339637e-22)
(2.6358973 -0.062050624 -3.1668102e-22)
(2.6398019 -0.058521491 1.8770345e-22)
(2.6468864 -0.053881788 -7.2226427e-23)
(2.6543734 -0.045988712 3.9904007e-22)
(2.6596484 -0.035370167 -1.259073e-21)
(2.6612988 -0.023769716 4.382412e-22)
(2.659807 -0.013453129 2.3532374e-21)
(2.6559438 -0.0053852271 -3.4380589e-21)
(2.6520593 -0.0010362724 2.1642475e-24)
(2.6483077 0.00088914544 1.024954e-21)
(2.5456505 -0.12369985 -1.1681218e-22)
(2.5984948 -0.1374274 -5.9353121e-23)
(2.6281055 -0.11561695 -4.7249906e-21)
(2.6418332 -0.090569516 -1.5140674e-21)
(2.6410691 -0.07179288 -1.2479793e-21)
(2.6376565 -0.064080448 -2.4381997e-22)
(2.6390491 -0.062669823 0)
(2.6461537 -0.061019084 4.0090139e-22)
(2.6556688 -0.055230418 7.7471062e-22)
(2.6636349 -0.044958586 -2.8075848e-22)
(2.6676602 -0.032212497 4.6117585e-23)
(2.6671252 -0.019523218 -6.9792224e-23)
(2.663323 -0.0091746133 1.703106e-22)
(2.6574842 -0.0019470354 -7.3937146e-22)
(2.6522178 0.0012028245 9.7574951e-22)
(2.6473842 0.0015442269 2.1807123e-21)
(2.5351646 -0.13556387 3.9571974e-22)
(2.5971099 -0.15636293 -9.6481882e-23)
(2.6354091 -0.13101295 -1.8378327e-21)
(2.652668 -0.098735859 2.7628192e-21)
(2.6491732 -0.073390603 -1.7574706e-21)
(2.6402088 -0.063717996 5.763995e-22)
(2.6373969 -0.064607114 6.4284864e-22)
(2.6435496 -0.067070889 3.5236017e-23)
(2.6550086 -0.0647022 3.8151167e-22)
(2.6664013 -0.055869682 -2.6937818e-22)
(2.6737067 -0.042396286 -5.6161064e-22)
(2.6754686 -0.027520992 -1.7582507e-21)
(2.6721424 -0.01415468 1.9107482e-21)
(2.6658146 -0.0042563308 -1.2900239e-22)
(2.6580342 0.0017467014 -3.3022806e-22)
(2.651495 0.003503222 3.260675e-21)
(2.6457569 0.0021946387 -1.2562707e-21)
(2.5226488 -0.14803482 4.3935023e-22)
(2.5946871 -0.17808985 3.6533133e-22)
(2.6441295 -0.14930794 2.4803116e-22)
(2.6668146 -0.10812547 1.6183257e-20)
(2.6604265 -0.073560461 7.2216119e-21)
(2.6440912 -0.060306585 -2.4510211e-21)
(2.6349144 -0.063555985 -8.6984834e-22)
(2.6386881 -0.071336145 9.2258827e-23)
(2.6517501 -0.074021834 5.9249015e-23)
(2.667118 -0.068026258 8.497284e-22)
(2.6789119 -0.054675048 5.686023e-22)
(2.6840809 -0.037728896 -1.6124363e-21)
(2.6825861 -0.021149198 4.2571466e-22)
(2.6760298 -0.0077456393 -2.0990412e-21)
(2.6671497 0.0011545981 5.2123934e-22)
(2.6575872 0.0055793624 1.3540227e-21)
(2.6499318 0.0057782774 5.4485762e-21)
(2.6434808 0.0028208634 -4.0447319e-21)
(2.507929 -0.16101396 -9.5307994e-22)
(2.5908734 -0.20284145 -8.8274921e-23)
(2.6541659 -0.17105942 -5.5732954e-21)
(2.6847716 -0.119342 -8.1845299e-21)
(2.6757177 -0.072360704 -1.3701307e-21)
(2.6499729 -0.053317878 2.1944294e-21)
(2.6317697 -0.058641893 -1.9401446e-21)
(2.6312297 -0.073007341 -1.6286927e-21)
(2.645187 -0.082660827 1.1302712e-21)
(2.6649686 -0.081291033 -8.1510399e-22)
(2.6824075 -0.069269415 -2.6234625e-21)
(2.6925439 -0.050675195 -7.0376733e-22)
(2.6940408 -0.030619783 1.4084064e-21)
(2.688489 -0.013145956 -1.9597072e-21)
(2.678506 -0.00049535858 -2.1097501e-22)
(2.667233 0.0068520728 -2.8864851e-21)
(2.6561636 0.0094184714 2.3577296e-21)
(2.6476144 0.0079682845 -3.7892415e-22)
(2.6406346 0.0034003532 9.6205411e-23)
(2.4908019 -0.17437625 -2.5977843e-21)
(2.5852794 -0.23081388 9.2939903e-22)
(2.6653546 -0.1968568 -1.9860484e-21)
(2.7070312 -0.1330454 -8.5823933e-21)
(2.6958954 -0.069865985 -4.243456e-21)
(2.658601 -0.042238773 -3.1949965e-21)
(2.6282338 -0.048909982 1.6671627e-22)
(2.620876 -0.071169916 1.0873778e-22)
(2.6346214 -0.089966885 2.8079719e-21)
(2.6590208 -0.09541668 -1.0978922e-21)
(2.6833154 -0.086344693 6.9125911e-22)
(2.700067 -0.066885403 6.4385184e-21)
(2.706285 -0.043222288 4.4738393e-21)
(2.7027739 -0.021026843 9.1828609e-22)
(2.6927027 -0.0037543624 -2.2038832e-21)
(2.6794032 0.0073016746 2.3182876e-21)
(2.666042 0.012621405 2.0613169e-22)
(2.6538212 0.013134691 -1.0457149e-21)
(2.6446366 0.010017849 -6.0260144e-21)
(2.6373142 0.003915444 1.5486191e-21)
(2.4704782 -0.18796158 -1.5489558e-21)
(2.5769235 -0.26197949 -9.6921893e-22)
(2.6770511 -0.22706139 0)
(2.7339238 -0.15010339 2.8032501e-20)
(2.7219719 -0.066166042 -1.1712579e-20)
(2.6707803 -0.026377227 6.4946304e-21)
(2.6245861 -0.033477232 -5.3253933e-21)
(2.6073801 -0.06481242 -1.2257378e-20)
(2.6193658 -0.095190839 -2.3798278e-21)
(2.6483187 -0.11002836 -2.7586069e-21)
(2.6805898 -0.10600893 -3.2890397e-22)
(2.7058408 -0.086848385 3.6382011e-21)
(2.718723 -0.059749535 -2.9460995e-21)
(2.7189267 -0.032094023 -1.8022639e-21)
(2.7094965 -0.0092150622 1.2979143e-21)
(2.6948819 0.0066258557 -3.2282985e-21)
(2.6786528 0.015318874 8.4800195e-21)
(2.66365 0.018243826 -2.2839238e-21)
(2.6506634 0.016615166 1.0529591e-22)
(2.6411046 0.011877847 0)
(2.6336164 0.0043669246 -5.9394503e-21)
(2.4461201 -0.20104719 3.2633712e-21)
(2.5645885 -0.29603017 -3.5055436e-21)
(2.6879778 -0.26181037 9.1171348e-21)
(2.7647861 -0.17108905 -1.8382232e-20)
(2.7545247 -0.061561898 4.2769546e-21)
(2.6874538 -0.0051743137 -6.8305635e-21)
(2.6212459 -0.011102571 -2.6354484e-21)
(2.5905027 -0.052926044 6.2962488e-21)
(2.5987666 -0.097522067 -2.3483634e-21)
(2.6319007 -0.12465255 2.8253154e-21)
(2.6731168 -0.12823435 1.6417251e-21)
(2.708838 -0.11107552 -1.4617819e-21)
(2.730758 -0.080989542 -8.5804214e-21)
(2.7366437 -0.047319997 2.1942832e-22)
(2.7292344 -0.017535774 3.8088521e-21)
(2.713594 0.0042696055 1.066123e-22)
(2.6948321 0.017486759 5.4551889e-23)
(2.6762772 0.023206793 5.9761289e-21)
(2.6601788 0.023524942 -4.5885265e-21)
(2.6468178 0.019770437 -3.9552987e-21)
(2.6371308 0.013514796 5.7772405e-23)
(2.6296352 0.0047552195 -3.7097585e-21)
(2.4189676 -0.2142327 2.6236397e-21)
(2.5484599 -0.33393122 -2.3814939e-21)
(2.69951 -0.30186164 9.2815873e-22)
(2.8004685 -0.19703449 3.2230379e-20)
(2.7931379 -0.056021023 -2.5361453e-20)
(2.7087596 0.021673979 -8.1640117e-21)
(2.6185276 0.018903376 1.0796031e-21)
(2.5701093 -0.034352519 2.5198871e-20)
(2.572225 -0.09611822 6.8375087e-21)
(2.6088486 -0.13872923 -5.786003e-21)
(2.659734 -0.15288629 -1.0766577e-20)
(2.707906 -0.13995717 -3.3359513e-21)
(2.7415456 -0.10786528 -3.2507601e-21)
(2.755686 -0.06770736 1.9417345e-22)
(2.7519618 -0.029732121 -6.8362377e-21)
(2.7361463 -0.00025005856 6.9137902e-21)
(2.7146765 0.018678304 -6.9708408e-21)
(2.6925375 0.028288244 6.5157027e-21)
(2.672419 0.030648456 -5.0046805e-21)
(2.6557916 0.028309889 2.2668152e-21)
(2.6424243 0.022538822 3.6974974e-21)
(2.6328284 0.014910809 -1.0120522e-20)
(2.6254593 0.0050774284 6.241968e-21)
(2.3907154 -0.22785355 -9.0687037e-21)
(2.53277 -0.37684787 -2.778439e-21)
(2.7153162 -0.35051675 -4.9276616e-20)
(2.8497023 -0.23063285 7.6955812e-20)
(2.843822 -0.050430613 -2.8391272e-20)
(2.7347012 0.054806695 4.8958482e-20)
(2.616234 0.057402594 -1.1782111e-20)
(2.5458684 -0.0082296926 -3.1326405e-20)
(2.5392364 -0.090175077 -1.0082483e-20)
(2.5783727 -0.15164658 1.1019644e-20)
(2.6392983 -0.17967261 -2.8996181e-21)
(2.7017588 -0.1737975 -6.4269581e-21)
(2.7500712 -0.14124236 -6.6309141e-21)
(2.7755828 -0.094527428 3.3372016e-21)
(2.7779059 -0.046863579 5.9269004e-22)
(2.7629724 -0.0078340979 1.4862384e-20)
(2.7389687 0.018702348 -4.6661691e-22)
(2.7126269 0.033208017 -9.3993659e-21)
(2.6881659 0.038526885 -1.4598409e-21)
(2.667296 0.037388235 -9.7111704e-21)
(2.6506764 0.032490566 9.2835468e-21)
(2.6376251 0.024885787 3.8759154e-21)
(2.6283039 0.016061047 7.0746257e-22)
(2.6211692 0.0053337239 1.6249787e-21)
(2.3601535 -0.24077857 -3.0107478e-20)
(2.5136848 -0.42316495 -8.8131945e-22)
(2.7356534 -0.40665006 1.3934963e-20)
(2.9176247 -0.27667663 4.5362245e-20)
(2.9229133 -0.047918802 8.0554733e-20)
(2.7756627 0.093853511 -3.7906748e-20)
(2.6144852 0.1053865 5.3380612e-23)
(2.5174439 0.026408459 -1.672986e-20)
(2.4992272 -0.079006462 2.3460176e-21)
(2.5398097 -0.16281748 6.7123287e-22)
(2.6107981 -0.20817064 -9.0195864e-21)
(2.6890458 -0.21267916 9.5110693e-21)
(2.7550859 -0.18197514 2.9251693e-21)
(2.7956902 -0.12910812 -2.4185703e-21)
(2.8071566 -0.070394276 1.5426067e-20)
(2.7947569 -0.019374225 -5.9570643e-21)
(2.7684532 0.016915536 9.8426452e-21)
(2.7374172 0.038109267 -6.9881681e-21)
(2.7076295 0.047063245 1.0586344e-21)
(2.6820131 0.047790804 -2.5839911e-21)
(2.6611713 0.043246219 3.1764242e-21)
(2.6450284 0.036006348 9.2998732e-22)
(2.6325555 0.026801163 -6.0403361e-21)
(2.6236531 0.016971402 9.8232131e-21)
(2.6168357 0.005527567 2.3953496e-22)
(2.3254477 -0.25320472 4.0985595e-20)
(2.4890816 -0.47025477 -1.2185382e-20)
(2.7408252 -0.46522394 1.046773e-19)
(2.9704789 -0.33086988 1.1831102e-20)
(3.0274937 -0.049211755 1.4775068e-19)
(2.8477025 0.1385332 -1.3602246e-19)
(2.6221534 0.16296458 1.2180781e-20)
(2.4841956 0.070354904 3.6969668e-20)
(2.451659 -0.061982976 6.812607e-21)
(2.4925404 -0.1716214 -1.5366693e-20)
(2.5732289 -0.23776476 1.3754429e-20)
(2.6683355 -0.25648116 9.8121403e-21)
(2.7551437 -0.23073163 2.441047e-20)
(2.8150792 -0.17288175 1.0122063e-20)
(2.839661 -0.10195788 -9.7596369e-21)
(2.8322379 -0.036298394 -1.8097501e-20)
(2.8041864 0.012786123 1.0667226e-20)
(2.7677933 0.042711038 2.3343981e-21)
(2.7316529 0.056737902 -3.7169291e-21)
(2.7000934 0.059586719 8.669061e-21)
(2.6744563 0.055788629 4.3269144e-21)
(2.6543233 0.048120888 2.6578459e-21)
(2.6390349 0.03883943 6.456861e-22)
(2.6273382 0.028295069 2.2241423e-22)
(2.6189592 0.017655943 9.9398362e-24)
(2.6125182 0.0056641043 2.3466216e-21)
(2.2861373 -0.26478604 2.3379671e-20)
(2.4576092 -0.51609838 -1.4317083e-20)
(2.7298881 -0.52211095 -6.5821251e-20)
(2.9861744 -0.38487253 -3.0520932e-20)
(3.0727885 -0.053465072 -9.5349983e-21)
(2.9369246 0.19188439 -4.5428266e-20)
(2.6494195 0.23294549 -3.8054191e-21)
(2.4490898 0.12421295 2.320764e-20)
(2.3958476 -0.03876445 2.5738755e-20)
(2.4362536 -0.17761091 4.7196558e-21)
(2.5258531 -0.26761864 -2.4149941e-21)
(2.6380164 -0.30456065 9.5884566e-22)
(2.7482868 -0.28793168 -2.8254182e-21)
(2.832447 -0.22729324 1.9090429e-20)
(2.8751825 -0.14342652 -5.4876329e-21)
(2.8760988 -0.060197995 3.1689862e-20)
(2.8473899 0.0052352901 -4.7305941e-21)
(2.8050248 0.046930491 1.9341379e-20)
(2.7611067 0.067656974 -9.8775789e-23)
(2.7222487 0.073551206 1.15541e-20)
(2.6905689 0.070312059 1.04963e-21)
(2.6659034 0.062356523 2.2747395e-23)
(2.6470214 0.051981988 1.9469949e-21)
(2.632865 0.041007176 -1.5158177e-21)
(2.6220793 0.029393035 2.5233164e-21)
(2.6142921 0.018134339 8.4386297e-21)
(2.6082657 0.0057493734 -4.8073802e-23)
(2.2441314 -0.27567215 -4.1277483e-20)
(2.4194286 -0.55820267 1.6423441e-20)
(2.6993621 -0.57554434 5.2257292e-20)
(2.9767863 -0.43345356 -3.5868488e-19)
(3.0774144 -0.058312303 -1.2669186e-19)
(3.0152404 0.25610906 -2.8017736e-20)
(2.6797012 0.32069922 -4.3860217e-20)
(2.4176969 0.19163081 3.8846639e-21)
(2.3313704 -0.0095369406 -3.5077978e-21)
(2.3713117 -0.1809312 9.4933663e-21)
(2.4690857 -0.2973449 -5.2101328e-21)
(2.5975254 -0.35631946 -3.4941281e-21)
(2.7327907 -0.35347352 -2.8918744e-20)
(2.8458032 -0.293521 -2.82075e-20)
(2.9129904 -0.19698027 -9.2481668e-21)
(2.9270424 -0.093011408 -5.965143e-21)
(2.8995346 -0.0068650201 0)
(2.8506087 0.050362328 -6.4965367e-21)
(2.7972449 0.080264509 7.6081611e-21)
(2.7491911 0.090134178 -1.7225474e-21)
(2.7100167 0.087813417 -5.3918857e-21)
(2.6796627 0.078979613 -2.2696343e-21)
(2.6567507 0.067447105 -1.9690463e-21)
(2.6395079 0.054857417 1.3085421e-21)
(2.6266636 0.042553223 -5.1582136e-21)
(2.6168667 0.030131095 -1.3728378e-21)
(2.609708 0.018429571 -6.0923062e-22)
(2.6041167 0.005789867 4.3819683e-21)
(2.201757 -0.28500485 9.9699471e-21)
(2.3750505 -0.59616228 -5.3805794e-20)
(2.6495915 -0.62341782 1.410767e-19)
(2.9357263 -0.47308178 -9.9264688e-20)
(3.0511013 -0.053862466 -2.424013e-22)
(2.9872073 0.32345202 2.7506835e-19)
(2.6781677 0.42668721 4.5008088e-20)
(2.3868146 0.27690475 1.9078226e-20)
(2.2601028 0.026664175 -9.2504077e-21)
(2.2981563 -0.18224968 1.4521278e-20)
(2.4043222 -0.32712864 -1.3362895e-20)
(2.5480471 -0.41181805 4.3959463e-21)
(2.7089391 -0.42821909 -2.270886e-22)
(2.8547984 -0.37332419 2.050513e-21)
(2.9526126 -0.26482217 0)
(2.9856703 -0.13722455 -5.1872025e-20)
(2.9621499 -0.024964788 4.7094809e-21)
(2.9064309 0.052657262 0)
(2.841592 0.094868038 1.3286261e-20)
(2.7819542 0.11024858 -1.5029566e-20)
(2.7332527 0.10899022 -8.3427606e-21)
(2.6958683 0.099120931 -1.1734949e-20)
(2.6679651 0.085518645 -1.8305208e-21)
(2.647352 0.071107206 -5.1164093e-23)
(2.6319878 0.056817846 -6.204781e-21)
(2.6205489 0.043538697 -3.2164073e-21)
(2.61177 0.030551412 2.9905394e-21)
(2.6052507 0.018566032 -1.1024068e-20)
(2.6001003 0.0057921104 -3.4217433e-21)
(2.1609 -0.29344401 2.096835e-20)
(2.3251679 -0.62881136 -1.3065388e-20)
(2.5864579 -0.66485816 -1.3094255e-19)
(2.8717484 -0.50777705 9.3270811e-20)
(2.9916502 -0.037507937 -7.1015729e-19)
(2.876864 0.39004079 2.2448091e-19)
(2.6316951 0.53495929 5.8857429e-21)
(2.3464202 0.37476036 -1.3875144e-20)
(2.1870416 0.071830685 -8.8448088e-21)
(2.2170479 -0.18236826 0)
(2.3328461 -0.35678352 0)
(2.4902403 -0.47011958 2.1227356e-20)
(2.6764714 -0.51204385 2.2100809e-20)
(2.8592491 -0.46927923 6.2268261e-21)
(2.9958217 -0.35174148 8.5321478e-21)
(3.0549988 -0.19643736 4.2265417e-21)
(3.0380941 -0.051104298 1.8680696e-20)
(2.9746107 0.053290999 -7.9694467e-21)
(2.8959078 0.11199055 9.8446533e-22)
(2.8217654 0.13481843 5.3254607e-21)
(2.7609457 0.13508507 8.9079406e-21)
(2.7146655 0.12360729 -7.8117546e-21)
(2.6806882 0.10737516 -3.4149799e-22)
(2.6559983 0.090009448 -2.6532161e-21)
(2.6380022 0.073451473 1.315568e-21)
(2.6246245 0.0579616 2.3159813e-22)
(2.6146121 0.044034437 5.0081505e-21)
(2.606842 0.030698634 2.7076586e-21)
(2.6009528 0.018568056 -6.0180671e-21)
(2.5962375 0.0057623748 -3.9445922e-21)
(2.1180272 -0.29823655 -2.6260933e-20)
(2.2714668 -0.65692834 6.9573111e-20)
(2.5146746 -0.69928153 -1.4250441e-20)
(2.788952 -0.53440024 -1.0195499e-19)
(2.9055858 -0.019035856 -3.1251008e-20)
(2.7909681 0.45880924 -3.2975035e-19)
(2.5596618 0.63201229 2.1016272e-20)
(2.2918733 0.47404276 -9.3197033e-21)
(2.1144152 0.12468187 -6.6109413e-21)
(2.1301185 -0.18140626 1.4630249e-20)
(2.2554626 -0.38596413 -1.2687062e-21)
(2.4235779 -0.52844942 5.0506092e-21)
(2.6312582 -0.60004981 -5.0745752e-22)
(2.8510749 -0.57721312 -3.1289976e-20)
(3.0353506 -0.4586423 -1.3565672e-20)
(3.1358088 -0.27719233 8.8621095e-20)
(3.133992 -0.090064354 1.2360411e-20)
(3.0606994 0.051211771 3.4940485e-20)
(2.9626284 0.13228998 1.5610217e-20)
(2.8699319 0.16514915 2.673071e-21)
(2.793832 0.16743127 3.5181954e-21)
(2.7362989 0.15383842 3.1897386e-21)
(2.6947593 0.13385799 -2.7795088e-21)
(2.665249 0.112717 -2.4563407e-21)
(2.644189 0.092638049 2.4544475e-21)
(2.6289308 0.074636738 2.8162059e-22)
(2.6175409 0.058401502 -3.4363645e-21)
(2.6089198 0.044114677 7.0256014e-22)
(2.6021203 0.030617091 -1.2895265e-21)
(2.5968368 0.018458846 3.3991758e-21)
(2.5925425 0.0057064739 -4.4677847e-22)
(2.0723201 -0.30088329 1.1725128e-20)
(2.2084022 -0.68072309 6.4220989e-20)
(2.4375363 -0.72686734 -6.422178e-20)
(2.6924684 -0.55668159 -9.6715117e-20)
(2.8022887 0.00057503034 1.0721082e-18)
(2.6893739 0.5245537 1.0475563e-19)
(2.4742884 0.72009244 -1.3192777e-19)
(2.2218523 0.56958007 -3.4374421e-22)
(2.0383032 0.1814768 -2.5905122e-20)
(2.0414161 -0.1785167 1.929974e-21)
(2.1730168 -0.41458259 -1.0208087e-20)
(2.3485493 -0.58393764 -1.6779578e-20)
(2.5695123 -0.68628364 -4.1019611e-20)
(2.8183854 -0.68656287 -3.5066748e-20)
(3.0487972 -0.57271672 2.9465268e-20)
(3.2040988 -0.37247778 4.9466164e-20)
(3.2420085 -0.14554587 -4.1642561e-20)
(3.1717666 0.042130745 8.083795e-21)
(3.0491625 0.15573543 -6.2664396e-20)
(2.928664 0.20285564 3.9261291e-21)
(2.8325677 0.20783183 2.0751168e-20)
(2.7609492 0.19130952 1.2593952e-20)
(2.7100131 0.16636265 -1.2061917e-20)
(2.6746754 0.139992 9.3098781e-21)
(2.6501673 0.11544946 -4.2952545e-21)
(2.6328597 0.093653021 1.115592e-20)
(2.6203038 0.0748401 -1.225475e-21)
(2.6108226 0.058254381 -1.4364063e-21)
(2.603517 0.043852299 -5.5671057e-21)
(2.5976296 0.030348801 -9.531618e-21)
(2.592917 0.018259783 4.0212453e-21)
(2.5890236 0.0056296672 2.4112171e-22)
(2.0268254 -0.30017909 2.1267234e-20)
(2.1362613 -0.70063382 -3.4070021e-20)
(2.3492518 -0.75094429 1.9737088e-20)
(2.5868515 -0.56942704 5.0691082e-20)
(2.6886293 0.019849346 -9.0766219e-20)
(2.5818283 0.58515455 -1.7391924e-19)
(2.3829933 0.80058152 -1.5334141e-20)
(2.1432125 0.65972703 1.7222773e-19)
(1.9573415 0.23904377 1.9634596e-20)
(1.953223 -0.1737232 9.7133715e-20)
(2.0874623 -0.44249005 -3.9693856e-22)
(2.2671887 -0.6348672 -2.1543265e-20)
(2.4922764 -0.76670247 2.5834785e-20)
(2.7588448 -0.79200645 4.2100154e-20)
(3.0241258 -0.68447869 -8.5593941e-20)
(3.2275257 -0.46436209 -1.1793144e-19)
(3.316286 -0.2008777 6.8530779e-21)
(3.2843143 0.02921531 -6.93953e-20)
(3.1593498 0.18097932 -3.4250901e-20)
(3.0052775 0.24925396 -2.6170996e-20)
(2.8785059 0.25843645 -2.1171113e-20)
(2.7885856 0.2379813 -5.6217425e-21)
(2.7261145 0.20632549 -1.2827865e-20)
(2.6837671 0.17310075 -9.3718805e-21)
(2.6552986 0.14250305 -8.0645233e-21)
(2.6358926 0.11596523 1.7019995e-21)
(2.6222334 0.093329483 5.1640369e-23)
(2.6122306 0.074241984 2.377252e-21)
(2.6045232 0.057633414 4.2942493e-21)
(2.5984308 0.043315564 -5.1302761e-21)
(2.5933841 0.029932201 7.2353251e-21)
(2.5892011 0.017990023 5.5114118e-21)
(2.5856845 0.0055365956 5.1013921e-21)
(1.9821098 -0.29588594 -1.7236838e-20)
(2.0598967 -0.71573445 -1.1239147e-19)
(2.2510617 -0.77129529 -8.9206312e-21)
(2.4712819 -0.58597926 1.1396929e-19)
(2.5691062 0.041529119 -3.0840494e-19)
(2.4729773 0.64089432 -1.4186629e-19)
(2.2920097 0.87217094 1.4631559e-19)
(2.0663096 0.74296434 8.1146436e-21)
(1.8771777 0.29435992 8.9855752e-20)
(1.8666387 -0.16823139 -1.113907e-20)
(2.0017848 -0.46949299 -6.5952228e-21)
(2.1825256 -0.68067671 3.1381333e-21)
(2.4037269 -0.83906262 -1.9094789e-20)
(2.6765896 -0.89188813 -3.2863536e-20)
(2.9713608 -0.79665205 -6.3871072e-20)
(3.217689 -0.55839674 -5.4382325e-20)
(3.3435056 -0.24601868 1.6139229e-19)
(3.3452304 0.031788201 5.9028886e-21)
(3.2545406 0.2171381 4.8972128e-20)
(3.0997698 0.30709513 -3.4101595e-20)
(2.9372062 0.32174143 -3.4125578e-20)
(2.8193872 0.29606521 1.8406807e-20)
(2.742438 0.25557512 -6.6850306e-21)
(2.6917761 0.21326137 -1.9332242e-20)
(2.658818 0.17485589 1.5350385e-21)
(2.6372476 0.14200867 -8.2704883e-22)
(2.6227199 0.1146884 1.9111904e-21)
(2.6124469 0.091942223 -5.8319544e-21)
(2.604773 0.073014214 1.2651882e-21)
(2.5986704 0.056643077 -3.0601273e-21)
(2.5936734 0.04256612 1.8916702e-21)
(2.5893894 0.029401442 1.19468e-20)
(2.5856913 0.017666331 -4.2411002e-21)
(2.5825251 0.0054312869 1.8172645e-21)
(1.9383589 -0.28781927 -2.3747785e-21)
(1.9815371 -0.72592512 -3.8082497e-20)
(2.1489838 -0.78610101 4.1611999e-21)
(2.3455276 -0.60485251 -1.8424873e-20)
(2.4488549 0.050696915 1.0455144e-20)
(2.3681684 0.68914492 4.0643379e-19)
(2.2053628 0.93457843 -1.2947269e-19)
(1.995908 0.81767382 -1.6664293e-19)
(1.8045926 0.34665066 -5.68161e-20)
(1.7845576 -0.16349603 -3.7031796e-19)
(1.918992 -0.49546326 -2.1475755e-20)
(2.0977707 -0.72139808 2.1314331e-20)
(2.3088084 -0.90224149 4.4586773e-20)
(2.5771917 -0.98416497 -5.3887636e-20)
(2.8930216 -0.91130897 1.3626495e-19)
(3.1949977 -0.66634821 9.8781937e-20)
(3.374424 -0.30539677 4.1342666e-19)
(3.3780976 0.044115688 3.5694997e-21)
(3.2903889 0.27436176 1.510255e-19)
(3.1675003 0.38497693 6.0927304e-20)
(3.0072043 0.40342733 -5.7560044e-20)
(2.856497 0.36846973 -2.987562e-21)
(2.7581223 0.31603526 7.8799576e-21)
(2.6976403 0.26197497 -1.0240355e-20)
(2.6596941 0.2134172 5.5266322e-21)
(2.6359989 0.17259269 1.118301e-20)
(2.6209003 0.13915692 4.2739476e-21)
(2.6108125 0.11203268 -2.1036903e-21)
(2.6035665 0.089747658 -1.5929017e-21)
(2.5979556 0.071312556 -4.1716776e-21)
(2.5932717 0.05537623 3.4211409e-22)
(2.5892461 0.041657991 3.9001359e-21)
(2.5856447 0.028786127 -6.270779e-21)
(2.5823857 0.017303081 -4.6385476e-21)
(2.5795429 0.0053171669 4.2573276e-21)
(1.8957231 -0.27606 9.262619e-22)
(1.9034464 -0.73091793 6.9340044e-20)
(2.0456062 -0.79570925 -1.2276105e-21)
(2.2150572 -0.61888885 1.9909635e-20)
(2.3221139 0.043952939 1.8194513e-19)
(2.2658589 0.72515355 2.9201408e-21)
(2.1251259 0.98871304 -6.7413553e-20)
(1.9345964 0.88162113 -5.5228588e-20)
(1.7441585 0.39440737 1.7612601e-22)
(1.7110966 -0.15915084 1.6110671e-19)
(1.8415636 -0.52080087 -4.2269575e-20)
(2.015928 -0.75723804 -4.2834316e-20)
(2.2117783 -0.95491054 6.2572489e-20)
(2.4648631 -1.0653479 1.4822066e-19)
(2.7877619 -1.0225101 8.0329091e-20)
(3.140833 -0.7873035 5.7046363e-20)
(3.3995811 -0.39084087 -3.6231123e-19)
(3.4590154 0.037854067 5.9766101e-21)
(3.3281102 0.33812287 1.2395389e-19)
(3.1735314 0.47961252 2.8747112e-20)
(3.0468224 0.50766647 -1.1547382e-20)
(2.8992633 0.46161473 -1.3125111e-20)
(2.7740011 0.39016807 1.8018079e-21)
(2.699846 0.32068795 -1.2936988e-20)
(2.6565978 0.2592608 1.9481171e-20)
(2.6309623 0.20828663 1.1423496e-20)
(2.6157745 0.16729086 -3.3677468e-22)
(2.6064387 0.13456314 1.9620634e-21)
(2.6002309 0.10837513 5.7707547e-22)
(2.5956046 0.086973327 -1.2670244e-21)
(2.5917743 0.069272809 -9.5950393e-22)
(2.5883196 0.053912861 2.5136408e-21)
(2.5851419 0.040637308 1.1705591e-22)
(2.5821444 0.028111348 -1.110662e-21)
(2.5792794 0.016912372 5.292176e-21)
(2.5767329 0.0051971127 -2.3341146e-21)
(1.8545532 -0.26076773 -4.6956666e-21)
(1.8277787 -0.73090035 7.4154749e-20)
(1.9436903 -0.80005064 1.9029474e-20)
(2.0826152 -0.62758099 -2.2604055e-20)
(2.1878362 0.042568662 3.2924551e-20)
(2.1625172 0.74273447 -6.4165993e-20)
(2.0504354 1.0347116 -5.5334239e-20)
(1.883769 0.9367283 1.141469e-19)
(1.6985205 0.4355708 -1.3932924e-21)
(1.6501482 -0.15598222 8.3448776e-20)
(1.7715388 -0.54515604 1.9544648e-20)
(1.9396306 -0.78855352 3.6180338e-21)
(2.1161643 -0.99670804 2.8702872e-21)
(2.343399 -1.1309912 2.6945062e-20)
(2.6545743 -1.1177678 1.0708377e-19)
(3.0371187 -0.90364533 1.8413064e-19)
(3.3673698 -0.48508452 -6.7936378e-19)
(3.4966922 0.0072514148 9.9005631e-21)
(3.4283282 0.3981043 1.3851579e-19)
(3.1933754 0.58501549 -2.2517587e-19)
(3.0210007 0.622018 3.6020751e-20)
(2.9142807 0.57651916 0)
(2.7904286 0.48357569 3.503889e-20)
(2.6974595 0.3909819 3.2741572e-20)
(2.6477508 0.31329393 2.2086775e-20)
(2.6206944 0.24971874 7.5785285e-21)
(2.6061164 0.19933193 2.8291541e-21)
(2.5983204 0.15985259 4.8164179e-22)
(2.5938959 0.12877309 -2.2458517e-21)
(2.5909597 0.10404212 -7.9472201e-22)
(2.5885349 0.083813128 -6.3261358e-22)
(2.5862055 0.067009524 2.1344118e-21)
(2.5837961 0.052319986 3.0088498e-21)
(2.5813481 0.039542545 -3.6098877e-21)
(2.5788793 0.027397951 -2.0108503e-21)
(2.5763653 0.016504209 -4.3740179e-21)
(2.5740889 0.0050734962 -3.6970977e-21)
(1.8153822 -0.24255485 1.9569075e-22)
(1.7565224 -0.72630394 7.0609267e-21)
(1.8460867 -0.79904943 1.0605071e-19)
(1.9519571 -0.63165673 1.4213739e-19)
(2.0510885 0.039244709 1.0068806e-19)
(2.053612 0.7594446 1.335319e-20)
(1.9842463 1.0720061 -1.5623574e-19)
(1.8423961 0.99169267 -1.2794268e-19)
(1.6684346 0.47061213 -4.2819141e-22)
(1.6045964 -0.15032207 -1.6256711e-19)
(1.7107591 -0.56933491 5.2126498e-20)
(1.8708014 -0.81545113 3.1095236e-20)
(2.0249862 -1.0278261 4.541116e-20)
(2.2176649 -1.1795778 1.1670886e-20)
(2.4973024 -1.1909378 -1.0286505e-19)
(2.8776388 -1.0030788 -1.6411148e-20)
(3.2435437 -0.55930144 0)
(3.4601997 -0.013467099 -1.0826112e-21)
(3.499511 0.46715671 -2.8043992e-19)
(3.26372 0.71542043 3.8170113e-20)
(2.9952737 0.75349856 2.4044025e-20)
(2.8610113 0.6960108 -7.7190479e-20)
(2.785176 0.59708413 -6.2804599e-21)
(2.6907484 0.47673254 1.0693443e-21)
(2.6312641 0.37622374 2.2110438e-20)
(2.6034132 0.29727114 -4.9385335e-21)
(2.5904965 0.23550164 -6.8908632e-21)
(2.5852756 0.18785354 -5.6788232e-22)
(2.5836043 0.15105373 -1.0934792e-21)
(2.5832018 0.12224603 -5.1193536e-22)
(2.5829321 0.099304577 1.549521e-21)
(2.5823055 0.080426601 1.460663e-21)
(2.5812123 0.064616484 9.6526984e-22)
(2.5796762 0.050652332 1.2466254e-21)
(2.577848 0.038405083 -1.5044833e-21)
(2.5758381 0.026662909 -3.558666e-21)
(2.5736349 0.016086737 -4.1539833e-21)
(2.5716037 0.0049482515 -1.6711192e-22)
(1.7784482 -0.22201764 4.2991954e-20)
(1.6914989 -0.71755136 5.7203457e-20)
(1.7553954 -0.79429214 -1.1795115e-19)
(1.8272348 -0.63097902 7.1553035e-20)
(1.9160907 0.035445781 2.4572736e-19)
(1.9462103 0.76824817 8.4027258e-21)
(1.9172348 1.101887 1.2376478e-20)
(1.8189756 1.0513595 -8.3877103e-21)
(1.6478918 0.52070276 -1.3550801e-19)
(1.5782499 -0.15532136 2.5269258e-19)
(1.6599762 -0.58911483 1.0082855e-19)
(1.8107306 -0.83912002 -6.0307311e-20)
(1.9405312 -1.0487675 -1.1153448e-20)
(2.093291 -1.2101661 -2.1950288e-20)
(2.3250151 -1.2391585 7.7876354e-20)
(2.6718324 -1.0752647 1.5921175e-19)
(3.0322449 -0.59968625 -3.8600172e-19)
(3.2743762 0.0025724606 9.5091984e-21)
(3.3625989 0.55860568 4.3788377e-19)
(3.2604928 0.87935916 3.5712626e-19)
(3.0070096 0.92979597 -2.667203e-19)
(2.782301 0.82739726 7.8521103e-20)