/*--------------------------------*- C++ -*----------------------------------*\
| =========                 |                                                 |
| \\      /  F ield         | OpenFOAM: The Open Source CFD Toolbox           |
|  \\    /   O peration     | Version:  v2012                                 |
|   \\  /    A nd           | Website:  www.openfoam.com                      |
|    \\/     M anipulation  |                                                 |
\*---------------------------------------------------------------------------*/
FoamFile
{
    version     2.0;
    format      ascii;
    class       volVectorField;
    location    "67.5612733369230227";
    object      cellDisplacement;
}
// * * * * * * * * * * * * * * * * * * * * * * * * * * * * * * * * * * * * * //

dimensions      [0 1 0 0 0 0 0];


internalField   nonuniform List<vector> 
9200
(
(-0.056976647 0 0)
(-0.057206352 0 0)
(-0.16508881 0 0)
(-0.057589136 0 0)
(-0.16568645 0 0)
(-0.26540569 0 0)
(-0.058061906 0 0)
(-0.16670314 0 0)
(-0.26630815 0 0)
(-0.35827242 0 0)
(-0.05858482 0 0)
(-0.16797553 0 0)
(-0.26784879 0 0)
(-0.35944401 0 0)
(-0.44413286 0 0)
(-0.059127289 0 0)
(-0.16939069 0 0)
(-0.26978552 0 0)
(-0.36141869 0 0)
(-0.44551455 0 0)
(-0.52336338 0 0)
(-0.059671662 0 0)
(-0.17087393 0 0)
(-0.27196793 0 0)
(-0.36395645 0 0)
(-0.44792159 0 0)
(-0.52498915 0 0)
(-0.59643798 0 0)
(-0.060201391 0 0)
(-0.17236325 0 0)
(-0.27426065 0 0)
(-0.36680573 0 0)
(-0.45095954 0 0)
(-0.52773646 0 0)
(-0.59824514 0 0)
(-0.66371637 0 0)
(-0.060709227 0 0)
(-0.1738224 0 0)
(-0.27657437 0 0)
(-0.36981583 0 0)
(-0.45441493 0 0)
(-0.5312781 0 0)
(-0.60137391 0 0)
(-0.66574177 0 0)
(-0.72564106 0 0)
(-0.061186893 0 0)
(-0.17521956 0 0)
(-0.27884309 0 0)
(-0.37286108 0 0)
(-0.45807085 0 0)
(-0.53528432 0 0)
(-0.60534907 0 0)
(-0.66917803 0 0)
(-0.72783244 0 0)
(-0.78254324 0 0)
(-0.06163261 0 0)
(-0.1765407 0 0)
(-0.28102299 0 0)
(-0.37585291 0 0)
(-0.4617779 0 0)
(-0.53953098 0 0)
(-0.60986375 0 0)
(-0.67359496 0 0)
(-0.73161709 0 0)
(-0.7849349 0 0)
(-0.83482289 0 0)
(-0.062042915 0 0)
(-0.17777119 0 0)
(-0.28308431 0 0)
(-0.37873363 0 0)
(-0.4654292 0 0)
(-0.54385006 0 0)
(-0.61466913 0 0)
(-0.6786048 0 0)
(-0.73643153 0 0)
(-0.78900726 0 0)
(-0.8373755 0 0)
(-0.88277876 0 0)
(-0.062418961 0 0)
(-0.17890926 0 0)
(-0.28501059 0 0)
(-0.38146129 0 0)
(-0.46894779 0 0)
(-0.54811178 0 0)
(-0.61956395 0 0)
(-0.68393853 0 0)
(-0.74191615 0 0)
(-0.79424519 0 0)
(-0.84177712 0 0)
(-0.88551895 0 0)
(-0.92675955 0 0)
(-0.062759897 0 0)
(-0.17995003 0 0)
(-0.28679121 0 0)
(-0.38401391 0 0)
(-0.47228643 0 0)
(-0.55222681 0 0)
(-0.62440215 0 0)
(-0.68937833 0 0)
(-0.74775283 0 0)
(-0.80018543 0 0)
(-0.84739147 0 0)
(-0.89019857 0 0)
(-0.92965627 0 0)
(-0.96702621 0 0)
(-0.063068284 0 0)
(-0.18089793 0 0)
(-0.28842534 0 0)
(-0.38637749 0 0)
(-0.47541197 0 0)
(-0.55613525 0 0)
(-0.62908215 0 0)
(-0.69476851 0 0)
(-0.75372573 0 0)
(-0.80652562 0 0)
(-0.8537908 0 0)
(-0.89622225 0 0)
(-0.93465182 0 0)
(-0.97010151 0 0)
(-1.0038831 0 0)
(-0.063344764 0 0)
(-0.18175407 0 0)
(-0.28991305 0 0)
(-0.38854867 0 0)
(-0.47831054 0 0)
(-0.55980032 0 0)
(-0.63353286 0 0)
(-0.69998981 0 0)
(-0.7596503 0 0)
(-0.81301234 0 0)
(-0.86061695 0 0)
(-0.90306784 0 0)
(-0.94104343 0 0)
(-0.97537141 0 0)
(-1.0071147 0 0)
(-1.0375585 0 0)
(-0.063592347 0 0)
(-0.18252482 0 0)
(-0.29126084 0 0)
(-0.39052885 0 0)
(-0.48097392 0 0)
(-0.56320082 0 0)
(-0.63771182 0 0)
(-0.70496229 0 0)
(-0.76539712 0 0)
(-0.81945369 0 0)
(-0.86759962 0 0)
(-0.91037038 0 0)
(-0.9483355 0 0)
(-0.9821615 0 0)
(-1.0126887 0 0)
(-1.0409614 0 0)
(-1.0683143 0 0)
(-0.063812226 0 0)
(-0.18321442 0 0)
(-0.29247422 0 0)
(-0.39232439 0 0)
(-0.48340594 0 0)
(-0.56633033 0 0)
(-0.64159378 0 0)
(-0.70963626 0 0)
(-0.77087822 0 0)
(-0.82571602 0 0)
(-0.87455968 0 0)
(-0.9178681 0 0)
(-0.95612683 0 0)
(-0.98989361 0 0)
(-1.0198394 0 0)
(-1.0468045 0 0)
(-1.0718698 0 0)
(-1.0963475 0 0)
(-0.064007488 0 0)
(-0.18382954 0 0)
(-0.29356293 0 0)
(-0.3939442 0 0)
(-0.48561165 0 0)
(-0.56918831 0 0)
(-0.64516954 0 0)
(-0.71398234 0 0)
(-0.77603484 0 0)
(-0.8316961 0 0)
(-0.88132602 0 0)
(-0.92531692 0 0)
(-0.9641014 0 0)
(-0.99815541 0 0)
(-1.0280105 0 0)
(-1.0543434 0 0)
(-1.0780063 0 0)
(-1.1000669 0 0)
(-1.1218845 0 0)
(-0.06417945 0 0)
(-0.18437606 0 0)
(-0.29453522 0 0)
(-0.39539895 0 0)
(-0.48760338 0 0)
(-0.57178446 0 0)
(-0.64843943 0 0)
(-0.71798918 0 0)
(-0.78083531 0 0)
(-0.83732907 0 0)
(-0.88779695 0 0)
(-0.93258131 0 0)
(-0.97205919 0 0)
(-1.0066382 0 0)
(-1.0367512 0 0)
(-1.0629439 0 0)
(-1.0858969 0 0)
(-1.1064669 0 0)
(-1.1257539 0 0)
(-1.1450966 0 0)
(-0.064331064 0 0)
(-0.18485973 0 0)
(-0.29540086 0 0)
(-0.39670012 0 0)
(-0.48939285 0 0)
(-0.5741288 0 0)
(-0.65141135 0 0)
(-0.72165587 0 0)
(-0.78526426 0 0)
(-0.84257819 0 0)
(-0.89390097 0 0)
(-0.93953712 0 0)
(-0.97981366 0 0)
(-1.0150808 0 0)
(-1.0457109 0 0)
(-1.0721481 0 0)
(-1.0949254 0 0)
(-1.1147328 0 0)
(-1.1324351 0 0)
(-1.1491227 0 0)
(-1.1661776 0 0)
(-0.0644635 0 0)
(-0.18528683 0 0)
(-0.2961694 0 0)
(-0.39786024 0 0)
(-0.4909949 0 0)
(-0.5762377 0 0)
(-0.65409838 0 0)
(-0.72499101 0 0)
(-0.78932091 0 0)
(-0.84742579 0 0)
(-0.89959351 0 0)
(-0.94610488 0 0)
(-0.98724575 0 0)
(-1.0233156 0 0)
(-1.0546489 0 0)
(-1.0816059 0 0)
(-1.104597 0 0)
(-1.1241795 0 0)
(-1.1410428 0 0)
(-1.1560596 0 0)
(-1.1703489 0 0)
(-1.1852749 0 0)
(-0.06457949 0 0)
(-0.18566215 0 0)
(-0.2968493 0 0)
(-0.39889053 0 0)
(-0.49242373 0 0)
(-0.57812568 0 0)
(-0.65651635 0 0)
(-0.72800792 0 0)
(-0.7930132 0 0)
(-0.85186972 0 0)
(-0.90485662 0 0)
(-0.95223817 0 0)
(-0.99427371 0 0)
(-1.0312228 0 0)
(-1.0633709 0 0)
(-1.0910266 0 0)
(-1.1145274 0 0)
(-1.134307 0 0)
(-1.1509059 0 0)
(-1.1650292 0 0)
(-1.1775548 0 0)
(-1.1895958 0 0)
(-1.2025552 0 0)
(-0.064680055 0 0)
(-0.18599166 0 0)
(-0.29744938 0 0)
(-0.39980368 0 0)
(-0.49369407 0 0)
(-0.57981093 0 0)
(-0.65868354 0 0)
(-0.73072439 0 0)
(-0.7963556 0 0)
(-0.8559183 0 0)
(-0.9096854 0 0)
(-0.95791251 0 0)
(-1.000845 0 0)
(-1.0387098 0 0)
(-1.0717478 0 0)
(-1.1002267 0 0)
(-1.1244411 0 0)
(-1.1447246 0 0)
(-1.1614879 0 0)
(-1.1752973 0 0)
(-1.1868547 0 0)
(-1.1970492 0 0)
(-1.2070167 0 0)
(-1.218146 0 0)
(-0.064767657 0 0)
(-0.18627927 0 0)
(-0.29797715 0 0)
(-0.40061002 0 0)
(-0.49482046 0 0)
(-0.58130958 0 0)
(-0.66061822 0 0)
(-0.7331598 0 0)
(-0.79936714 0 0)
(-0.85958613 0 0)
(-0.914088 0 0)
(-0.9631235 0 0)
(-1.0069303 0 0)
(-1.0457167 0 0)
(-1.0796878 0 0)
(-1.109067 0 0)
(-1.1341172 0 0)
(-1.1551134 0 0)
(-1.172369 0 0)
(-1.1863229 0 0)
(-1.1975248 0 0)
(-1.2066951 0 0)
(-1.2147263 0 0)
(-1.2227501 0 0)
(-1.2321895 0 0)
(-0.064843151 0 0)
(-0.18653031 0 0)
(-0.29844045 0 0)
(-0.40132089 0 0)
(-0.49581585 0 0)
(-0.58263832 0 0)
(-0.66233947 0 0)
(-0.73533488 0 0)
(-0.80206858 0 0)
(-0.86289397 0 0)
(-0.91808095 0 0)
(-0.96787773 0 0)
(-1.0125238 0 0)
(-1.0522143 0 0)
(-1.0871291 0 0)
(-1.1174587 0 0)
(-1.143423 0 0)
(-1.1652644 0 0)
(-1.1832451 0 0)
(-1.1976802 0 0)
(-1.2089906 0 0)
(-1.2177561 0 0)
(-1.22469 0 0)
(-1.2306975 0 0)
(-1.2369285 0 0)
(-1.2447955 0 0)
(-0.06490869 0 0)
(-0.18674796 0 0)
(-0.29884554 0 0)
(-0.40194495 0 0)
(-0.49669381 0 0)
(-0.58381317 0 0)
(-0.66386565 0 0)
(-0.73727051 0 0)
(-0.8044831 0 0)
(-0.86586363 0 0)
(-0.92168366 0 0)
(-0.97219159 0 0)
(-1.0176305 0 0)
(-1.0581903 0 0)
(-1.0940371 0 0)
(-1.125333 0 0)
(-1.1522589 0 0)
(-1.1750269 0 0)
(-1.1938674 0 0)
(-1.2090224 0 0)
(-1.2208016 0 0)
(-1.2296531 0 0)
(-1.2361375 0 0)
(-1.2409912 0 0)
(-1.2451193 0 0)
(-1.2496699 0 0)
(-1.2560853 0 0)
(-0.064964918 0 0)
(-0.18693701 0 0)
(-0.29919874 0 0)
(-0.40249184 0 0)
(-0.49746499 0 0)
(-0.58484822 0 0)
(-0.66521414 0 0)
(-0.73898695 0 0)
(-0.80663259 0 0)
(-0.86851985 0 0)
(-0.92492198 0 0)
(-0.97608699 0 0)
(-1.0222677 0 0)
(-1.0636524 0 0)
(-1.1003965 0 0)
(-1.1326483 0 0)
(-1.1605577 0 0)
(-1.1842978 0 0)
(-1.2040806 0 0)
(-1.2201107 0 0)
(-1.2326188 0 0)
(-1.2419238 0 0)
(-1.2484585 0 0)
(-1.2528133 0 0)
(-1.2557169 0 0)
(-1.2580886 0 0)
(-1.261089 0 0)
(-1.2661546 0 0)
(-0.065013683 0 0)
(-0.18709952 0 0)
(-0.29950544 0 0)
(-0.40296892 0 0)
(-0.49814126 0 0)
(-0.585758 0 0)
(-0.66640212 0 0)
(-0.74050428 0 0)
(-0.80854029 0 0)
(-0.8708863 0 0)
(-0.92781951 0 0)
(-0.97958885 0 0)
(-1.0264573 0 0)
(-1.0686145 0 0)
(-1.1062131 0 0)
(-1.1393916 0 0)
(-1.1682786 0 0)
(-1.193022 0 0)
(-1.2137994 0 0)
(-1.2307857 0 0)
(-1.2441741 0 0)
(-1.2541964 0 0)
(-1.2611687 0 0)
(-1.2655492 0 0)
(-1.2679081 0 0)
(-1.2689985 0 0)
(-1.2697381 0 0)
(-1.2712864 0 0)
(-1.2751059 0 0)
(-0.065053336 0 0)
(-0.18724013 0 0)
(-0.2997708 0 0)
(-0.40338378 0 0)
(-0.49873111 0 0)
(-0.58655416 0 0)
(-0.66744487 0 0)
(-0.74184082 0 0)
(-0.81022708 0 0)
(-0.87298784 0 0)
(-0.93040442 0 0)
(-0.98272506 0 0)
(-1.0302264 0 0)
(-1.0731021 0 0)
(-1.1115013 0 0)
(-1.1455619 0 0)
(-1.1754034 0 0)
(-1.2011461 0 0)
(-1.2229313 0 0)
(-1.2409227 0 0)
(-1.2552918 0 0)
(-1.2662079 0 0)
(-1.2739038 0 0)
(-1.2787027 0 0)
(-1.2810504 0 0)
(-1.2815475 0 0)
(-1.2809373 0 0)
(-1.2801523 0 0)
(-1.2803604 0 0)
(-1.2830222 0 0)
(-0.064814844 0 0)
(-0.18735425 0 0)
(-0.29999855 0 0)
(-0.40374264 0 0)
(-0.49924457 0 0)
(-0.58724936 0 0)
(-0.6683574 0 0)
(-0.74301456 0 0)
(-0.81171421 0 0)
(-0.87484738 0 0)
(-0.93270065 0 0)
(-0.98552272 0 0)
(-1.0336034 0 0)
(-1.077141 0 0)
(-1.1162859 0 0)
(-1.1511776 0 0)
(-1.1819281 0 0)
(-1.2086463 0 0)
(-1.2314496 0 0)
(-1.2504753 0 0)
(-1.2658727 0 0)
(-1.2777777 0 0)
(-1.286368 0 0)
(-1.2918772 0 0)
(-1.2946278 0 0)
(-1.2950875 0 0)
(-1.2938371 0 0)
(-1.2916462 0 0)
(-1.2894436 0 0)
(-1.2883969 0 0)
(-1.2899905 0 0)
(-0.064521939 0 0)
(-0.18685686 0 0)
(-0.30018496 0 0)
(-0.40405042 0 0)
(-0.49968782 0 0)
(-0.58785269 0 0)
(-0.66915222 0 0)
(-0.74404104 0 0)
(-0.81302029 0 0)
(-0.87648742 0 0)
(-0.93473481 0 0)
(-0.98801029 0 0)
(-1.0366179 0 0)
(-1.0807633 0 0)
(-1.1205955 0 0)
(-1.1562598 0 0)
(-1.1878704 0 0)
(-1.2155273 0 0)
(-1.2393272 0 0)
(-1.2593828 0 0)
(-1.2758232 0 0)
(-1.2887725 0 0)
(-1.2983716 0 0)
(-1.3047835 0 0)
(-1.3082464 0 0)
(-1.3090883 0 0)
(-1.3077647 0 0)
(-1.3048854 0 0)
(-1.3012113 0 0)
(-1.2976857 0 0)
(-1.2954807 0 0)
(-1.2960833 0 0)
(-0.064255112 0 0)
(-0.18597908 0 0)
(-0.29946215 0 0)
(-0.40430225 0 0)
(-0.50006976 0 0)
(-0.58837498 0 0)
(-0.66984213 0 0)
(-0.74493585 0 0)
(-0.8141637 0 0)
(-0.87792888 0 0)
(-0.93652966 0 0)
(-0.99021398 0 0)
(-1.0392994 0 0)
(-1.0839987 0 0)
(-1.1244611 0 0)
(-1.160841 0 0)
(-1.1932516 0 0)
(-1.221793 0 0)
(-1.2465557 0 0)
(-1.2676275 0 0)
(-1.2851087 0 0)
(-1.2991266 0 0)
(-1.3097969 0 0)
(-1.3172253 0 0)
(-1.3215915 0 0)
(-1.3231296 0 0)
(-1.3221709 0 0)
(-1.3191915 0 0)
(-1.3147821 0 0)
(-1.3097298 0 0)
(-1.3049737 0 0)
(-1.3016852 0 0)
(-1.3013741 0 0)
(-0.064017436 0 0)
(-0.18518003 0 0)
(-0.29807229 0 0)
(-0.4033842 0 0)
(-0.50038105 0 0)
(-0.58882186 0 0)
(-0.67043735 0 0)
(-0.74571182 0 0)
(-0.81516031 0 0)
(-0.87919111 0 0)
(-0.9381082 0 0)
(-0.99215994 0 0)
(-1.0416762 0 0)
(-1.0868796 0 0)
(-1.1279168 0 0)
(-1.1649517 0 0)
(-1.1981042 0 0)
(-1.2274758 0 0)
(-1.2531499 0 0)
(-1.2752025 0 0)
(-1.2937142 0 0)
(-1.3087915 0 0)
(-1.3205429 0 0)
(-1.3290564 0 0)
(-1.3344549 0 0)
(-1.3369007 0 0)
(-1.3366384 0 0)
(-1.3340011 0 0)
(-1.3294561 0 0)
(-1.3236215 0 0)
(-1.3172757 0 0)
(-1.3113708 0 0)
(-1.3070832 0 0)
(-1.3059261 0 0)
(-0.0638113 0 0)
(-0.18446881 0 0)
(-0.29680458 0 0)
(-0.40154663 0 0)
(-0.49929657 0 0)
(-0.58918875 0 0)
(-0.67094677 0 0)
(-0.74638127 0 0)
(-0.8160255 0 0)
(-0.88029202 0 0)
(-0.93949127 0 0)
(-0.99387206 0 0)
(-1.0437763 0 0)
(-1.0894357 0 0)
(-1.1309935 0 0)
(-1.168628 0 0)
(-1.2024609 0 0)
(-1.2325993 0 0)
(-1.2591289 0 0)
(-1.282121 0 0)
(-1.3016341 0 0)
(-1.3177498 0 0)
(-1.3305738 0 0)
(-1.3402004 0 0)
(-1.3467054 0 0)
(-1.3501872 0 0)
(-1.3508295 0 0)
(-1.3488716 0 0)
(-1.3446522 0 0)
(-1.3386543 0 0)
(-1.3314795 0 0)
(-1.3239325 0 0)
(-1.3169589 0 0)
(-1.3117376 0 0)
(-1.3098014 0 0)
(-0.063638033 0 0)
(-0.18385239 0 0)
(-0.29567724 0 0)
(-0.39987006 0 0)
(-0.49706849 0 0)
(-0.5879567 0 0)
(-0.6713635 0 0)
(-0.74695533 0 0)
(-0.81677157 0 0)
(-0.88124786 0 0)
(-0.94069848 0 0)
(-0.99537317 0 0)
(-1.0456252 0 0)
(-1.0916965 0 0)
(-1.1337255 0 0)
(-1.1719031 0 0)
(-1.206358 0 0)
(-1.2372047 0 0)
(-1.2645279 0 0)
(-1.288399 0 0)
(-1.3088702 0 0)
(-1.3260028 0 0)
(-1.339877 0 0)
(-1.3505969 0 0)
(-1.358232 0 0)
(-1.3628327 0 0)
(-1.3645236 0 0)
(-1.3634707 0 0)
(-1.359927 0 0)
(-1.354232 0 0)
(-1.3468599 0 0)
(-1.3384378 0 0)
(-1.3297627 0 0)
(-1.3217925 0 0)
(-1.3157113 0 0)
(-1.3130556 0 0)
(-0.063499346 0 0)
(-0.18333447 0 0)
(-0.29469877 0 0)
(-0.39837929 0 0)
(-0.49503703 0 0)
(-0.58538849 0 0)
(-0.67000651 0 0)
(-0.74742473 0 0)
(-0.81741224 0 0)
(-0.88207398 0 0)
(-0.94174743 0 0)
(-0.99668393 0 0)
(-1.0472474 0 0)
(-1.0936896 0 0)
(-1.1361412 0 0)
(-1.1748116 0 0)
(-1.2098312 0 0)
(-1.241324 0 0)
(-1.2693787 0 0)
(-1.2940725 0 0)
(-1.3154492 0 0)
(-1.3335547 0 0)
(-1.3484559 0 0)
(-1.3602404 0 0)
(-1.3689883 0 0)
(-1.3747497 0 0)
(-1.3775751 0 0)
(-1.377571 0 0)
(-1.3749283 0 0)
(-1.3698896 0 0)
(-1.3628033 0 0)
(-1.3541562 0 0)
(-1.3445607 0 0)
(-1.3348388 0 0)
(-1.325942 0 0)
(-1.3190586 0 0)
(-1.315741 0 0)
(-0.063396208 0 0)
(-0.18292019 0 0)
(-0.29387728 0 0)
(-0.39708532 0 0)
(-0.49322922 0 0)
(-0.58304414 0 0)
(-0.66714185 0 0)
(-0.74596824 0 0)
(-0.81793648 0 0)
(-0.88278121 0 0)
(-0.94265427 0 0)
(-0.99782357 0 0)
(-1.0486649 0 0)
(-1.0954397 0 0)
(-1.1382716 0 0)
(-1.177385 0 0)
(-1.2129156 0 0)
(-1.2449986 0 0)
(-1.2737232 0 0)
(-1.2991737 0 0)
(-1.3213944 0 0)
(-1.3404275 0 0)
(-1.3563199 0 0)
(-1.3691372 0 0)
(-1.378966 0 0)
(-1.3858681 0 0)
(-1.3898651 0 0)
(-1.3910047 0 0)
(-1.3894199 0 0)
(-1.3852795 0 0)
(-1.3788443 0 0)
(-1.3704594 0 0)
(-1.3606057 0 0)
(-1.3499193 0 0)
(-1.3392148 0 0)
(-1.3294541 0 0)
(-1.3218334 0 0)
(-1.3179062 0 0)
(-0.063329559 0 0)
(-0.18261192 0 0)
(-0.2932189 0 0)
(-0.39599899 0 0)
(-0.49166085 0 0)
(-0.58095929 0 0)
(-0.66452699 0 0)
(-0.7428524 0 0)
(-0.81640036 0 0)
(-0.88336348 0 0)
(-0.94343087 0 0)
(-0.99880813 0 0)
(-1.0498981 0 0)
(-1.0969719 0 0)
(-1.1401418 0 0)
(-1.1796543 0 0)
(-1.2156454 0 0)
(-1.2482625 0 0)
(-1.2775966 0 0)
(-1.3037443 0 0)
(-1.3267488 0 0)
(-1.3466455 0 0)
(-1.3634808 0 0)
(-1.3773008 0 0)
(-1.3881688 0 0)
(-1.3961698 0 0)
(-1.401335 0 0)
(-1.4036741 0 0)
(-1.4032435 0 0)
(-1.4001589 0 0)
(-1.3946149 0 0)
(-1.3868614 0 0)
(-1.3772539 0 0)
(-1.3662812 0 0)
(-1.3545682 0 0)
(-1.3429529 0 0)
(-1.3323897 0 0)
(-1.3240829 0 0)
(-1.3195952 0 0)
(-0.063299793 0 0)
(-0.18241267 0 0)
(-0.29272891 0 0)
(-0.39512841 0 0)
(-0.49034323 0 0)
(-0.57914896 0 0)
(-0.66220041 0 0)
(-0.74000912 0 0)
(-0.81307205 0 0)
(-0.88176499 0 0)
(-0.94407221 0 0)
(-0.99965477 0 0)
(-1.050966 0 0)
(-1.0983048 0 0)
(-1.141778 0 0)
(-1.1816478 0 0)
(-1.2180521 0 0)
(-1.2511534 0 0)
(-1.2810404 0 0)
(-1.3078225 0 0)
(-1.3315459 0 0)
(-1.3522486 0 0)
(-1.3699714 0 0)
(-1.3847462 0 0)
(-1.3966267 0 0)
(-1.4056913 0 0)
(-1.4119799 0 0)
(-1.4155028 0 0)
(-1.4162741 0 0)
(-1.4143499 0 0)
(-1.4098683 0 0)
(-1.4030001 0 0)
(-1.3940158 0 0)
(-1.3832668 0 0)
(-1.3712352 0 0)
(-1.358569 0 0)
(-1.3460994 0 0)
(-1.3347892 0 0)
(-1.325853 0 0)
(-1.3208505 0 0)
(-0.18232329 0 0)
(-0.063298529 0 0)
(-0.29241107 0 0)
(-0.39448042 0 0)
(-0.48928736 0 0)
(-0.57762846 0 0)
(-0.66018044 0 0)
(-0.73747856 0 0)
(-0.81003529 0 0)
(-0.87826264 0 0)
(-0.94243117 0 0)
(-1.0003521 0 0)
(-1.0518824 0 0)
(-1.0994613 0 0)
(-1.1432023 0 0)
(-1.1833915 0 0)
(-1.2201664 0 0)
(-1.2537034 0 0)
(-1.2840891 0 0)
(-1.311449 0 0)
(-1.3358321 0 0)
(-1.3572735 0 0)
(-1.3758204 0 0)
(-1.3915041 0 0)
(-1.4043535 0 0)
(-1.4144245 0 0)
(-1.4217823 0 0)
(-1.42646 0 0)
(-1.4284434 0 0)
(-1.4277467 0 0)
(-1.4244316 0 0)
(-1.418622 0 0)
(-1.410515 0 0)
(-1.4003677 0 0)
(-1.388544 0 0)
(-1.375531 0 0)
(-1.3619684 0 0)
(-1.3487081 0 0)
(-1.3367051 0 0)
(-1.3271848 0 0)
(-1.3217092 0 0)
(-0.29226742 0 0)
(-0.18231915 0 0)
(-0.063325896 0 0)
(-0.39406025 0 0)
(-0.48850138 0 0)
(-0.57640925 0 0)
(-0.65848309 0 0)
(-0.73528142 0 0)
(-0.80733181 0 0)
(-0.87506475 0 0)
(-0.9387898 0 0)
(-0.99868521 0 0)
(-1.0526437 0 0)
(-1.100452 0 0)
(-1.1444335 0 0)
(-1.1849099 0 0)
(-1.2220157 0 0)
(-1.2559452 0 0)
(-1.28678 0 0)
(-1.3146619 0 0)
(-1.339644 0 0)
(-1.3617639 0 0)
(-1.3810738 0 0)
(-1.3975994 0 0)
(-1.4113653 0 0)
(-1.4224136 0 0)
(-1.4308034 0 0)
(-1.4365805 0 0)
(-1.4397349 0 0)
(-1.4402604 0 0)
(-1.4381739 0 0)
(-1.4335367 0 0)
(-1.4264919 0 0)
(-1.4172138 0 0)
(-1.4059821 0 0)
(-1.3931547 0 0)
(-1.3792129 0 0)
(-1.3648197 0 0)
(-1.350819 0 0)
(-1.3381728 0 0)
(-1.328117 0 0)
(-1.3222081 0 0)
(-0.39387003 0 0)
(-0.29225852 0 0)
(-0.18240014 0 0)
(-0.06338999 0 0)
(-0.48799095 0 0)
(-0.57550116 0 0)
(-0.65712232 0 0)
(-0.73343545 0 0)
(-0.80498477 0 0)
(-0.87221911 0 0)
(-0.9354637 0 0)
(-0.99492743 0 0)
(-1.0509608 0 0)
(-1.1012763 0 0)
(-1.1454928 0 0)
(-1.1862222 0 0)
(-1.2236256 0 0)
(-1.2579069 0 0)
(-1.2891441 0 0)
(-1.3174977 0 0)
(-1.343025 0 0)
(-1.3657609 0 0)
(-1.3857679 0 0)
(-1.4030787 0 0)
(-1.4177077 0 0)
(-1.4296805 0 0)
(-1.4390446 0 0)
(-1.4458564 0 0)
(-1.4501324 0 0)
(-1.4518596 0 0)
(-1.4510171 0 0)
(-1.4476293 0 0)
(-1.4417604 0 0)
(-1.4335392 0 0)
(-1.4231664 0 0)
(-1.4109092 0 0)
(-1.3971381 0 0)
(-1.3823365 0 0)
(-1.3671628 0 0)
(-1.3524784 0 0)
(-1.3392366 0 0)
(-1.3286854 0 0)
(-1.3223785 0 0)
(-0.48776012 0 0)
(-0.39385823 0 0)
(-0.29238409 0 0)
(-0.18259095 0 0)
(-0.063490636 0 0)
(-0.57491145 0 0)
(-0.65610798 0 0)
(-0.73195504 0 0)
(-0.80301244 0 0)
(-0.86974768 0 0)
(-0.93250534 0 0)
(-0.99149908 0 0)
(-1.0471175 0 0)
(-1.0995896 0 0)
(-1.1463692 0 0)
(-1.1873511 0 0)
(-1.2250198 0 0)
(-1.2596157 0 0)
(-1.2912139 0 0)
(-1.3199914 0 0)
(-1.3460106 0 0)
(-1.3693064 0 0)
(-1.3899514 0 0)
(-1.4079786 0 0)
(-1.4234035 0 0)
(-1.4362501 0 0)
(-1.446548 0 0)
(-1.4543375 0 0)
(-1.4596749 0 0)
(-1.4625612 0 0)
(-1.4629386 0 0)
(-1.460804 0 0)
(-1.4561832 0 0)
(-1.4491421 0 0)
(-1.439828 0 0)
(-1.428419 0 0)
(-1.4152064 0 0)
(-1.4005538 0 0)
(-1.3849389 0 0)
(-1.3690438 0 0)
(-1.3537207 0 0)
(-1.3399274 0 0)
(-1.3289225 0 0)
(-1.3222525 0 0)
(-0.57464309 0 0)
(-0.48774405 0 0)
(-0.39402383 0 0)
(-0.29268396 0 0)
(-0.18289056 0 0)
(-0.063626693 0 0)
(-0.65544939 0 0)
(-0.73085261 0 0)
(-0.80143059 0 0)
(-0.86767114 0 0)
(-0.92993479 0 0)
(-0.98844522 0 0)
(-1.043607 0 0)
(-1.0956814 0 0)
(-1.1446939 0 0)
(-1.1882852 0 0)
(-1.2262158 0 0)
(-1.2610957 0 0)
(-1.2930164 0 0)
(-1.3221744 0 0)
(-1.3486383 0 0)
(-1.3724392 0 0)
(-1.393661 0 0)
(-1.4123473 0 0)
(-1.4285103 0 0)
(-1.442167 0 0)
(-1.4533409 0 0)
(-1.462064 0 0)
(-1.4683918 0 0)
(-1.4723533 0 0)
(-1.4739094 0 0)
(-1.4730214 0 0)
(-1.4696735 0 0)
(-1.4638994 0 0)
(-1.4557653 0 0)
(-1.4454088 0 0)
(-1.4330332 0 0)
(-1.4189163 0 0)
(-1.4034347 0 0)
(-1.3870688 0 0)
(-1.3704973 0 0)
(-1.3545854 0 0)
(-1.3402826 0 0)
(-1.3288594 0 0)
(-1.3218562 0 0)
(-0.65514905 0 0)
(-0.57462391 0 0)
(-0.4879444 0 0)
(-0.39442031 0 0)
(-0.29315544 0 0)
(-0.18329596 0 0)
(-0.06379732 0 0)
(-0.73013583 0 0)
(-0.80025257 0 0)
(-0.86600594 0 0)
(-0.92777573 0 0)
(-0.98579417 0 0)
(-1.0404824 0 0)
(-1.0921094 0 0)
(-1.1407423 0 0)
(-1.1866273 0 0)
(-1.2272134 0 0)
(-1.2623644 0 0)
(-1.2945758 0 0)
(-1.3240767 0 0)
(-1.35094 0 0)
(-1.3751963 0 0)
(-1.3969425 0 0)
(-1.4162252 0 0)
(-1.4330591 0 0)
(-1.4474653 0 0)
(-1.4594654 0 0)
(-1.4690726 0 0)
(-1.4763279 0 0)
(-1.4812921 0 0)
(-1.4839687 0 0)
(-1.4842907 0 0)
(-1.4821994 0 0)
(-1.4777051 0 0)
(-1.4708362 0 0)
(-1.461663 0 0)
(-1.4503388 0 0)
(-1.4370471 0 0)
(-1.4220892 0 0)
(-1.4058336 0 0)
(-1.3887579 0 0)
(-1.3715629 0 0)
(-1.3551027 0 0)
(-1.3403293 0 0)
(-1.3285236 0 0)
(-1.3212174 0 0)
(-0.72981072 0 0)
(-0.65512703 0 0)
(-0.5748521 0 0)
(-0.48842259 0 0)
(-0.39504339 0 0)
(-0.29379536 0 0)
(-0.1838046 0 0)
(-0.064000689 0 0)
(-0.7994864 0 0)
(-0.86476547 0 0)
(-0.92604356 0 0)
(-0.98356492 0 0)
(-1.0377668 0 0)
(-1.0889299 0 0)
(-1.1371346 0 0)
(-1.1826522 0 0)
(-1.2255791 0 0)
(-1.2634238 0 0)
(-1.295918 0 0)
(-1.3257253 0 0)
(-1.3529467 0 0)
(-1.3776127 0 0)
(-1.3998296 0 0)
(-1.4196559 0 0)
(-1.437106 0 0)
(-1.4521984 0 0)
(-1.4649566 0 0)
(-1.4753933 0 0)
(-1.4835362 0 0)
(-1.4894302 0 0)
(-1.4931248 0 0)
(-1.4945896 0 0)
(-1.4937321 0 0)
(-1.4905189 0 0)
(-1.4849443 0 0)
(-1.4770511 0 0)
(-1.4669081 0 0)
(-1.4546603 0 0)
(-1.4405147 0 0)
(-1.4247603 0 0)
(-1.4077779 0 0)
(-1.3900488 0 0)
(-1.3722705 0 0)
(-1.3553058 0 0)
(-1.3400988 0 0)
(-1.3279416 0 0)
(-1.3203592 0 0)
(-0.79913904 0 0)
(-0.72978589 0 0)
(-0.65538089 0 0)
(-0.57540342 0 0)
(-0.48917776 0 0)
(-0.39588962 0 0)
(-0.2945974 0 0)
(-0.18441129 0 0)
(-0.064235425 0 0)
(-0.8639599 0 0)
(-0.92475267 0 0)
(-0.98177744 0 0)
(-1.0354843 0 0)
(-1.0861647 0 0)
(-1.133918 0 0)
(-1.1790234 0 0)
(-1.2215989 0 0)
(-1.2618226 0 0)
(-1.2970346 0 0)
(-1.3271406 0 0)
(-1.3546868 0 0)
(-1.3797199 0 0)
(-1.4023624 0 0)
(-1.4226782 0 0)
(-1.4406841 0 0)
(-1.4564025 0 0)
(-1.4698637 0 0)
(-1.4810727 0 0)
(-1.4900445 0 0)
(-1.4968235 0 0)
(-1.5014622 0 0)
(-1.5039721 0 0)
(-1.5042936 0 0)
(-1.5023373 0 0)
(-1.4980533 0 0)
(-1.4914602 0 0)
(-1.4825933 0 0)
(-1.4715283 0 0)
(-1.4584238 0 0)
(-1.4434689 0 0)
(-1.4269744 0 0)
(-1.4093145 0 0)
(-1.3909688 0 0)
(-1.3726541 0 0)
(-1.3552209 0 0)
(-1.3396148 0 0)
(-1.3271379 0 0)
(-1.3193058 0 0)
(-0.86359354 0 0)
(-0.79911152 0 0)
(-0.73006328 0 0)
(-0.65599556 0 0)
(-0.57627094 0 0)
(-0.49020086 0 0)
(-0.3969505 0 0)
(-0.29555642 0 0)
(-0.18511216 0 0)
(-0.064499195 0 0)
(-0.92391385 0 0)
(-0.98044508 0 0)
(-1.033652 0 0)
(-1.0838402 0 0)
(-1.131123 0 0)
(-1.1757863 0 0)
(-1.2179612 0 0)
(-1.2578516 0 0)
(-1.2954832 0 0)
(-1.3283267 0 0)
(-1.3561802 0 0)
(-1.3815452 0 0)
(-1.4045707 0 0)
(-1.4253293 0 0)
(-1.4438419 0 0)
(-1.4601296 0 0)
(-1.4742291 0 0)
(-1.4861479 0 0)
(-1.4959013 0 0)
(-1.5035157 0 0)
(-1.5090322 0 0)
(-1.5124963 0 0)
(-1.5138951 0 0)
(-1.5131359 0 0)
(-1.5101265 0 0)
(-1.5048449 0 0)
(-1.4972901 0 0)
(-1.4875133 0 0)
(-1.4755867 0 0)
(-1.4616645 0 0)
(-1.4459567 0 0)
(-1.4287619 0 0)
(-1.4104665 0 0)
(-1.3915551 0 0)
(-1.3727398 0 0)
(-1.3548761 0 0)
(-1.3389041 0 0)
(-1.3261353 0 0)
(-1.3180742 0 0)
(-0.92353063 0 0)
(-0.86356564 0 0)
(-0.79940711 0 0)
(-0.73073032 0 0)
(-0.65696373 0 0)
(-0.57745125 0 0)
(-0.49148667 0 0)
(-0.39821905 0 0)
(-0.29666317 0 0)
(-0.18590038 0 0)
(-0.064788711 0 0)
(-0.97957811 0 0)
(-1.0322857 0 0)
(-1.0819732 0 0)
(-1.1287703 0 0)
(-1.1729733 0 0)
(-1.2147197 0 0)
(-1.2542202 0 0)
(-1.2915353 0 0)
(-1.3268235 0 0)
(-1.3574341 0 0)
(-1.383117 0 0)
(-1.4064847 0 0)
(-1.4276437 0 0)
(-1.4466117 0 0)
(-1.4634142 0 0)
(-1.4780984 0 0)
(-1.4906711 0 0)
(-1.5011395 0 0)
(-1.5095356 0 0)
(-1.5158909 0 0)
(-1.5202372 0 0)
(-1.5226087 0 0)
(-1.5229592 0 0)
(-1.5211824 0 0)
(-1.517193 0 0)
(-1.5109557 0 0)
(-1.5024947 0 0)
(-1.4918517 0 0)
(-1.4791074 0 0)
(-1.4644271 0 0)
(-1.4480058 0 0)
(-1.4301619 0 0)
(-1.4112753 0 0)
(-1.3918315 0 0)
(-1.3725565 0 0)
(-1.3542953 0 0)
(-1.337988 0 0)
(-1.3249523 0 0)
(-1.3166854 0 0)
(-0.97918353 0 0)
(-0.92349934 0 0)
(-0.8638744 0 0)
(-0.80011816 0 0)
(-0.7317848 0 0)
(-0.65828076 0 0)
(-0.57893056 0 0)
(-0.49302143 0 0)
(-0.39968331 0 0)
(-0.29790968 0 0)
(-0.1867663 0 0)
(-0.065023984 0 0)
(-1.0313961 0 0)
(-1.0805798 0 0)
(-1.1268821 0 0)
(-1.1706048 0 0)
(-1.2119001 0 0)
(-1.250985 0 0)
(-1.287931 0 0)
(-1.3229155 0 0)
(-1.3559877 0 0)
(-1.3844333 0 0)
(-1.4081343 0 0)
(-1.4296524 0 0)
(-1.4490321 0 0)
(-1.4663013 0 0)
(-1.481514 0 0)
(-1.4946805 0 0)
(-1.5058119 0 0)
(-1.5149338 0 0)
(-1.5220687 0 0)
(-1.5272508 0 0)
(-1.5305229 0 0)
(-1.5318709 0 0)
(-1.5312223 0 0)
(-1.5284772 0 0)
(-1.5235506 0 0)
(-1.5164255 0 0)
(-1.507106 0 0)
(-1.4956536 0 0)
(-1.4821448 0 0)
(-1.4667414 0 0)
(-1.4496573 0 0)
(-1.4311998 0 0)
(-1.4117604 0 0)
(-1.3918293 0 0)
(-1.3721272 0 0)
(-1.3535012 0 0)
(-1.3368865 0 0)
(-1.3236087 0 0)
(-1.315074 0 0)
(-1.0309882 0 0)
(-0.97914753 0 0)
(-0.92381617 0 0)
(-0.86462445 0 0)
(-0.80124411 0 0)
(-0.73321509 0 0)
(-0.65993217 0 0)
(-0.58070155 0 0)
(-0.49479572 0 0)
(-0.4013322 0 0)
(-0.29927699 0 0)
(-0.18725218 0 0)
(-0.064980847 0 0)
(-1.0796718 0 0)
(-1.1254724 0 0)
(-1.1687034 0 0)
(-1.2095278 0 0)
(-1.2481693 0 0)
(-1.2847137 0 0)
(-1.3193425 0 0)
(-1.3521295 0 0)
(-1.383058 0 0)
(-1.4095161 0 0)
(-1.4313799 0 0)
(-1.4511343 0 0)
(-1.4688234 0 0)
(-1.4845155 0 0)
(-1.4982248 0 0)
(-1.5099572 0 0)
(-1.5197446 0 0)
(-1.5276147 0 0)
(-1.5335838 0 0)
(-1.53768 0 0)
(-1.5399323 0 0)
(-1.5403168 0 0)
(-1.5387333 0 0)
(-1.5350808 0 0)
(-1.5292814 0 0)
(-1.5213037 0 0)
(-1.5111769 0 0)
(-1.4989535 0 0)
(-1.4847197 0 0)
(-1.4686467 0 0)
(-1.4509353 0 0)
(-1.4319103 0 0)
(-1.4119576 0 0)
(-1.3915704 0 0)
(-1.3714759 0 0)
(-1.3525136 0 0)
(-1.3356186 0 0)
(-1.3219799 0 0)
(-1.3132019 0 0)
(-1.0792529 0 0)
(-1.0309488 0 0)
(-0.97947395 0 0)
(-0.92459337 0 0)
(-0.86580686 0 0)
(-0.8027703 0 0)
(-0.73501242 0 0)
(-0.66190843 0 0)
(-0.58274466 0 0)
(-0.49679217 0 0)
(-0.40314209 0 0)
(-0.29997777 0 0)
(-0.18712624 0 0)
(-0.064928187 0 0)
(-1.1245535 0 0)
(-1.1672838 0 0)
(-1.2076224 0 0)
(-1.245801 0 0)
(-1.2819173 0 0)
(-1.3161567 0 0)
(-1.3485997 0 0)
(-1.3792634 0 0)
(-1.4082172 0 0)
(-1.4328353 0 0)
(-1.4529416 0 0)
(-1.4710133 0 0)
(-1.4871402 0 0)
(-1.5013396 0 0)
(-1.5136227 0 0)
(-1.5240216 0 0)
(-1.5325605 0 0)
(-1.5392601 0 0)
(-1.5441436 0 0)
(-1.5472395 0 0)
(-1.5485546 0 0)
(-1.5480217 0 0)
(-1.5455475 0 0)
(-1.5410325 0 0)
(-1.5343968 0 0)
(-1.5256271 0 0)
(-1.5147341 0 0)
(-1.5017911 0 0)
(-1.4868788 0 0)
(-1.4701678 0 0)
(-1.4518751 0 0)
(-1.4323153 0 0)
(-1.4118862 0 0)
(-1.3910796 0 0)
(-1.3706222 0 0)
(-1.3513513 0 0)
(-1.3339624 0 0)
(-1.3200541 0 0)
(-1.3111151 0 0)
(-1.1241316 0 0)
(-1.0792089 0 0)
(-1.0312755 0 0)
(-0.98026953 0 0)
(-0.92582083 0 0)
(-0.86741626 0 0)
(-0.80468976 0 0)
(-0.73715891 0 0)
(-0.66418997 0 0)
(-0.58504772 0 0)
(-0.49898447 0 0)
(-0.40403181 0 0)
(-0.29977014 0 0)
(-0.18697293 0 0)
(-0.064867327 0 0)
(-1.166358 0 0)
(-1.2062006 0 0)
(-1.2438982 0 0)
(-1.279562 0 0)
(-1.3133842 0 0)
(-1.3454537 0 0)
(-1.3757958 0 0)
(-1.4045006 0 0)
(-1.4316122 0 0)
(-1.4544693 0 0)
(-1.4729044 0 0)
(-1.4894227 0 0)
(-1.5040665 0 0)
(-1.5168472 0 0)
(-1.5278004 0 0)
(-1.5369586 0 0)
(-1.5443396 0 0)
(-1.5499541 0 0)
(-1.5538261 0 0)
(-1.5559853 0 0)
(-1.556408 0 0)
(-1.5550181 0 0)
(-1.5517085 0 0)
(-1.5463848 0 0)
(-1.5389688 0 0)
(-1.5294364 0 0)
(-1.5178235 0 0)
(-1.5041943 0 0)
(-1.4886404 0 0)
(-1.4713392 0 0)
(-1.4524976 0 0)
(-1.4324443 0 0)
(-1.4115729 0 0)
(-1.3903773 0 0)
(-1.3695855 0 0)
(-1.3496672 0 0)
(-1.3319285 0 0)
(-1.3179202 0 0)
(-1.3088145 0 0)
(-1.1659333 0 0)
(-1.124085 0 0)
(-1.0795349 0 0)
(-1.0320865 0 0)
(-0.98153431 0 0)
(-0.92749379 0 0)
(-0.86943406 0 0)
(-0.80698048 0 0)
(-0.73963949 0 0)
(-0.66676 0 0)
(-0.58757311 0 0)
(-0.50003436 0 0)
(-0.40375396 0 0)
(-0.29952092 0 0)
(-0.18679666 0 0)
(-0.064796627 0 0)
(-1.2052743 0 0)
(-1.2424785 0 0)
(-1.2776721 0 0)
(-1.3110513 0 0)
(-1.342714 0 0)
(-1.3727002 0 0)
(-1.401106 0 0)
(-1.4279863 0 0)
(-1.4533283 0 0)
(-1.4744963 0 0)
(-1.4913891 0 0)
(-1.5064382 0 0)
(-1.5196709 0 0)
(-1.53113 0 0)
(-1.5408467 0 0)
(-1.5488453 0 0)
(-1.555144 0 0)
(-1.5597516 0 0)
(-1.5626848 0 0)
(-1.5639715 0 0)
(-1.563572 0 0)
(-1.5613668 0 0)
(-1.5572629 0 0)
(-1.5511686 0 0)
(-1.5430062 0 0)
(-1.5327659 0 0)
(-1.5204683 0 0)
(-1.506199 0 0)
(-1.4900447 0 0)
(-1.4721826 0 0)
(-1.452832 0 0)
(-1.4323166 0 0)
(-1.4110374 0 0)
(-1.3894823 0 0)
(-1.3678745 0 0)
(-1.3474913 0 0)
(-1.3297002 0 0)
(-1.3155767 0 0)
(-1.3062963 0 0)
(-1.2048492 0 0)
(-1.1658855 0 0)
(-1.1244161 0 0)
(-1.0803556 0 0)
(-1.0333717 0 0)
(-0.98325119 0 0)
(-0.92959241 0 0)
(-0.87184929 0 0)
(-0.80962916 0 0)
(-0.74243138 0 0)
(-0.66957954 0 0)
(-0.58876354 0 0)
(-0.49968915 0 0)
(-0.40341873 0 0)
(-0.2992339 0 0)
(-0.18659278 0 0)
(-0.064715605 0 0)
(-1.2415539 0 0)
(-1.2762617 0 0)
(-1.3091776 0 0)
(-1.3404097 0 0)
(-1.3700068 0 0)
(-1.3980719 0 0)
(-1.4246688 0 0)
(-1.4498006 0 0)
(-1.4734532 0 0)
(-1.4930537 0 0)
(-1.5084812 0 0)
(-1.5221263 0 0)
(-1.5340448 0 0)
(-1.5442728 0 0)
(-1.5528408 0 0)
(-1.5597638 0 0)
(-1.5650484 0 0)
(-1.5687101 0 0)
(-1.5707826 0 0)
(-1.5712633 0 0)
(-1.5700695 0 0)
(-1.5670997 0 0)
(-1.5622488 0 0)
(-1.5554311 0 0)
(-1.5465704 0 0)
(-1.5356479 0 0)
(-1.5227082 0 0)
(-1.5078291 0 0)
(-1.4911078 0 0)
(-1.4727265 0 0)
(-1.4528978 0 0)
(-1.4319546 0 0)
(-1.4102981 0 0)
(-1.3877508 0 0)
(-1.3655386 0 0)
(-1.3451414 0 0)
(-1.3272753 0 0)
(-1.3130208 0 0)
(-1.3035619 0 0)
(-1.2411294 0 0)
(-1.2048032 0 0)
(-1.166218 0 0)
(-1.1252419 0 0)
(-1.0816575 0 0)
(-1.0351255 0 0)
(-0.98541287 0 0)
(-0.93210519 0 0)
(-0.87463591 0 0)
(-0.81260868 0 0)
(-0.74549532 0 0)
(-0.67089169 0 0)
(-0.58835692 0 0)
(-0.4992732 0 0)
(-0.40303251 0 0)
(-0.29890536 0 0)
(-0.1863598 0 0)
(-0.064622199 0 0)
(-1.2753437 0 0)
(-1.3077805 0 0)
(-1.3385585 0 0)
(-1.3677392 0 0)
(-1.3954335 0 0)
(-1.4217068 0 0)
(-1.4465686 0 0)
(-1.4700283 0 0)
(-1.4921021 0 0)
(-1.510214 0 0)
(-1.524247 0 0)
(-1.5365812 0 0)
(-1.5472729 0 0)
(-1.5563524 0 0)
(-1.5638481 0 0)
(-1.5697677 0 0)
(-1.57411 0 0)
(-1.5768992 0 0)
(-1.5781724 0 0)
(-1.5778997 0 0)
(-1.5759716 0 0)
(-1.5722682 0 0)
(-1.5667076 0 0)
(-1.5591994 0 0)
(-1.5496703 0 0)
(-1.5381139 0 0)
(-1.5245629 0 0)
(-1.5091156 0 0)
(-1.4918624 0 0)
(-1.4729896 0 0)
(-1.4527169 0 0)
(-1.4313789 0 0)
(-1.4085562 0 0)
(-1.385249 0 0)
(-1.3630519 0 0)
(-1.3426113 0 0)
(-1.3246507 0 0)
(-1.3102523 0 0)
(-1.3006073 0 0)
(-1.274925 0 0)
(-1.2410833 0 0)
(-1.2051337 0 0)
(-1.1670485 0 0)
(-1.1265609 0 0)
(-1.0834382 0 0)
(-1.0373276 0 0)
(-0.98799359 0 0)
(-0.93500413 0 0)
(-0.87777495 0 0)
(-0.81587995 0 0)
(-0.74690169 0 0)
(-0.67043197 0 0)
(-0.58786956 0 0)
(-0.49879527 0 0)
(-0.40258901 0 0)
(-0.29852999 0 0)
(-0.18609283 0 0)
(-0.064515803 0 0)
(-1.3068718 0 0)
(-1.3371784 0 0)
(-1.3659197 0 0)
(-1.3932102 0 0)
(-1.4191277 0 0)
(-1.4436864 0 0)
(-1.4668996 0 0)
(-1.4887989 0 0)
(-1.5093586 0 0)