/*--------------------------------*- C++ -*----------------------------------*\
| =========                 |                                                 |
| \\      /  F ield         | OpenFOAM: The Open Source CFD Toolbox           |
|  \\    /   O peration     | Version:  v2012                                 |
|   \\  /    A nd           | Website:  www.openfoam.com                      |
|    \\/     M anipulation  |                                                 |
\*---------------------------------------------------------------------------*/
FoamFile
{
    version     2.0;
    format      ascii;
    class       volScalarField;
    location    "67.5612733369230227";
    object      p;
}
// * * * * * * * * * * * * * * * * * * * * * * * * * * * * * * * * * * * * * //

dimensions      [0 2 -2 0 0 0 0];


internalField   nonuniform List<scalar> 
9200
(
-0.0010540181
-0.00096469383
-0.00076697801
-0.00092498461
-0.00051529217
-0.002449567
-0.00077561887
-0.0002722377
-0.0021606911
-0.0038648046
-0.00054333826
0.00022399426
-0.0018415275
-0.0035890143
-0.0055282895
-0.0002068285
0.00092961388
-0.0012233999
-0.0032589362
-0.0053236761
-0.0072082258
0.00030352551
0.0018842127
-0.00030792227
-0.0026442888
-0.0050708904
-0.0071109541
-0.0088832586
0.00099730549
0.0031895231
0.00095415508
-0.0017152599
-0.0046078708
-0.0069938655
-0.0089143258
-0.010473515
0.0019436787
0.0048755562
0.0027042173
-0.00043286936
-0.0038735756
-0.0067822281
-0.0089674851
-0.010634963
-0.011930994
0.0031937457
0.0070449975
0.005001752
0.0013525889
-0.0028566858
-0.006387727
-0.0090638139
-0.010865043
-0.012208777
-0.013215296
0.0047939744
0.0097664811
0.0079889915
0.0037007441
-0.0014130028
-0.0058404311
-0.0090912946
-0.011276601
-0.012598113
-0.01358757
-0.014300213
0.0067386927
0.013115012
0.011762895
0.0067531685
0.00049997119
-0.0050146187
-0.0091277951
-0.0117381
-0.013292253
-0.014101107
-0.014741961
-0.015192343
0.0092574257
0.017152526
0.016429939
0.010603419
0.003007548
-0.0039000898
-0.0090735092
-0.012374726
-0.014140883
-0.015015946
-0.015339611
-0.015664097
-0.015923362
0.012218016
0.022060921
0.022184744
0.015383599
0.0061896619
-0.002403468
-0.0089596882
-0.013114619
-0.015311591
-0.016162892
-0.016399058
-0.016304707
-0.016376482
-0.016487539
0.015997828
0.027965564
0.02896191
0.021210888
0.010155749
-0.00047767137
-0.0087352109
-0.014032433
-0.016755223
-0.017742711
-0.017733337
-0.017433853
-0.017017656
-0.016909123
-0.016825659
0.0211984
0.034461306
0.036857206
0.028179591
0.014980305
0.0019475144
-0.0083978593
-0.015121682
-0.018585685
-0.019719125
-0.019566518
-0.018840329
-0.018144697
-0.017515212
-0.017292442
-0.017017012
0.027226896
0.041042579
0.045939854
0.036368601
0.020759739
0.0049251739
-0.007923206
-0.016426177
-0.020832585
-0.02223489
-0.02186333
-0.020766117
-0.019519232
-0.018575512
-0.017820695
-0.017548822
-0.017184341
0.0334102
0.048378592
0.056243037
0.045855991
0.027557737
0.0084984545
-0.0073053252
-0.017971703
-0.023580663
-0.025341481
-0.024781832
-0.023164807
-0.021391469
-0.01983496
-0.018790914
-0.017975898
-0.017694596
-0.017297663
0.040104572
0.057392015
0.06786639
0.056696654
0.035414276
0.012697814
-0.006535801
-0.019808108
-0.026903206
-0.029151899
-0.028381902
-0.026197773
-0.023694579
-0.021535996
-0.019865868
-0.018864361
-0.018032037
-0.017753811
-0.017332967
0.047644002
0.067698665
0.080826291
0.068945699
0.044352338
0.017538426
-0.005617809
-0.021972776
-0.030899396
-0.033764127
-0.032789971
-0.029921997
-0.026584103
-0.02358476
-0.021316635
-0.01969386
-0.018803004
-0.018035884
-0.017755902
-0.017296527
0.055867962
0.078837778
0.095017983
0.08261198
0.0543639
0.023009348
-0.004564021
-0.024523214
-0.03555306
-0.039285274
-0.038107295
-0.03446145
-0.030105368
-0.026122755
-0.022998053
-0.020859973
-0.019448234
-0.018692429
-0.017990308
-0.017719224
-0.017199417
0.064420159
0.090882927
0.11031315
0.097665994
0.065409379
0.029061254
-0.0034049283
-0.027525948
-0.041114101
-0.045801219
-0.044440468
-0.039904782
-0.034369965
-0.029178388
-0.025034082
-0.022105726
-0.020288426
-0.019160926
-0.018570189
-0.017925908
-0.017652571
-0.017060206
0.07304255
0.10393212
0.12661313
0.11400729
0.077414265
0.035604444
-0.0021901524
-0.031077226
-0.04760786
-0.053415454
-0.051889002
-0.046345462
-0.039450894
-0.032848208
-0.027432228
-0.023549174
-0.021077174
-0.019702825
-0.018895643
-0.01846687
-0.017868675
-0.017557084
-0.016878132
0.081463819
0.11800634
0.14382613
0.13138264
0.090239395
0.042487747
-0.00099466014
-0.035291683
-0.055163414
-0.062294636
-0.060562726
-0.053861993
-0.045424394
-0.037194634
-0.03027261
-0.025168728
-0.021892938
-0.020057626
-0.019187418
-0.018697233
-0.018401209
-0.017808046
-0.017432781
-0.016651608
0.089258756
0.13306669
0.16174163
0.14953758
0.10372352
0.049470901
6.2953586e-05
-0.04032
-0.063941971
-0.072492428
-0.070577724
-0.062519153
-0.052343059
-0.042285771
-0.033611374
-0.02702408
-0.022682173
-0.020264811
-0.019168433
-0.018806821
-0.018593694
-0.018380435
-0.017746428
-0.017276717
-0.016377478
0.096022799
0.14877335
0.18007081
0.16812692
0.11809311
0.056346852
0.00082372141
-0.046358125
-0.074147307
-0.084126855
-0.082039154
-0.072370991
-0.060239497
-0.04817049
-0.037517513
-0.029161698
-0.023475732
-0.020241467
-0.018836388
-0.018499462
-0.018601806
-0.01859794
-0.018404341
-0.017679964
-0.01708436
-0.016051657
0.10118055
0.16486394
0.19852922
0.18688716
0.13300544
0.062544961
0.0011313838
-0.053706404
-0.08604858
-0.097380241
-0.095101595
-0.083465697
-0.069122846
-0.05488077
-0.042057746
-0.031650027
-0.02430131
-0.019980842
-0.018078695
-0.017735385
-0.018109881
-0.018591845
-0.018710786
-0.018466206
-0.017601331
-0.016850005
-0.015670078
0.10446028
0.18112224
0.21681111
0.20559114
0.14825974
0.068484053
0.00083872867
-0.062708738
-0.10002199
-0.11238025
-0.10997196
-0.095847271
-0.078983198
-0.062425249
-0.04729717
-0.034576462
-0.025213529
-0.019478408
-0.016847922
-0.016372173
-0.017046501
-0.018029381
-0.018778683
-0.018923292
-0.01855478
-0.017501754
-0.016567411
-0.015228847
0.10651989
0.19722914
0.23525451
0.22394353
0.16330917
0.072689663
-1.0253649e-05
-0.073015587
-0.11655331
-0.12953079
-0.12465392
-0.10955564
-0.089796172
-0.070791144
-0.053301301
-0.038040012
-0.026300847
-0.0187584
-0.015101533
-0.0143239
-0.015242301
-0.016813089
-0.018262089
-0.019150028
-0.019219297
-0.018656283
-0.017371396
-0.016230502
-0.014725118
0.1078584
0.21188168
0.25457077
0.24106721
0.17746002
0.073646864
-0.0047719998
-0.085642832
-0.13641849
-0.14921463
-0.1433164
-0.12461515
-0.10152841
-0.079940025
-0.060134149
-0.042177801
-0.027671427
-0.017879765
-0.012819548
-0.011509664
-0.012578652
-0.014752029
-0.017042729
-0.018791894
-0.019683304
-0.019577804
-0.018755219
-0.017200139
-0.015833858
-0.014157089
0.10822341
0.22491746
0.27247082
0.25579981
0.1903395
0.070707017
-0.018729971
-0.099951772
-0.16038652
-0.17240265
-0.16427317
-0.14153345
-0.11415983
-0.08981115
-0.067857469
-0.047158613
-0.029497077
-0.016934
-0.010011557
-0.0078638758
-0.0089424955
-0.011702192
-0.014914001
-0.01771466
-0.019588015
-0.020348566
-0.019975777
-0.018833485
-0.016978594
-0.015372862
-0.013517666
0.10824731
0.23663635
0.28832021
0.26917371
0.20126233
0.062785884
-0.039611443
-0.1150839
-0.18860932
-0.19944653
-0.18840992
-0.16053027
-0.12773668
-0.10033393
-0.076533162
-0.053205689
-0.032007662
-0.016074348
-0.0067210945
-0.0033452816
-0.0042313976
-0.0075278324
-0.011713638
-0.015701378
-0.018787639
-0.020609905
-0.021112088
-0.020389781
-0.018876948
-0.016698718
-0.014843848
-0.012804413
0.10782574
0.24715606
0.30333442
0.28182102
0.21044708
0.049213578
-0.067508606
-0.13858201
-0.21986608
-0.22893392
-0.21632369
-0.18209603
-0.142274
-0.11142386
-0.086223793
-0.060590167
-0.0355391
-0.015530317
-0.003038195
0.0020680702
0.0016362635
-0.0021028494
-0.0072919318
-0.012576865
-0.017059153
-0.020206966
-0.021811053
-0.021941231
-0.02079523
-0.01887435
-0.016353619
-0.014244734
-0.012024667
0.10685622
0.2558435
0.31828182
0.29379111
0.21559494
0.030614429
-0.10592732
-0.17303474
-0.25384922
-0.26077585
-0.24681279
-0.20695316
-0.15779172
-0.12297805
-0.096975594
-0.069633621
-0.040491704
-0.015630694
0.00088252167
0.0083674428
0.008733512
0.0046760512
-0.0015124756
-0.0081840742
-0.014218523
-0.018914471
-0.021910373
-0.023142571
-0.022800183
-0.021167042
-0.018809173
-0.015937985
-0.013575018
-0.011182696
0.10524881
0.26261459
0.33191005
0.30575359
0.2170204
0.008723631
-0.15476226
-0.21526074
-0.29195079
-0.29522008
-0.27714837
-0.23530007
-0.17431481
-0.1348812
-0.10879819
-0.080768999
-0.047335288
-0.016802621
0.0048129096
0.015510351
0.017115072
0.012904681
0.0057312464
-0.0023871036
-0.010105485
-0.016545327
-0.021185565
-0.02383273
-0.024556699
-0.023652682
-0.021484932
-0.018672899
-0.015448103
-0.012835204
-0.010280096
0.10292215
0.26710783
0.34376346
0.3160527
0.21619568
-0.0095351476
-0.21515369
-0.26678183
-0.33664864
-0.33051329
-0.30511309
-0.26410864
-0.19180724
-0.14701062
-0.12165479
-0.094500282
-0.056734751
-0.019614244
0.0084136044
0.02340722
0.026821929
0.022662367
0.014532404
0.0049137609
-0.0045865359
-0.01292946
-0.019452328
-0.02378678
-0.025908569
-0.0260102
-0.024472428
-0.021740196
-0.018457358
-0.014881895
-0.012026707
-0.009319619
0.099782827
0.26899978
0.35340396
0.32392199
0.21512167
-0.030492642
-0.28369898
-0.32803072
-0.38444638
-0.3675238
-0.33075639
-0.28986913
-0.21151627
-0.15931379
-0.13540568
-0.11145089
-0.069487128
-0.024821748
0.011177111
0.031892486
0.037872391
0.034016073
0.024959042
0.013792003
0.0024270422
-0.0079319817
-0.016511061
-0.022824842
-0.026624875
-0.028076047
-0.02746111
-0.025230738
-0.021911502
-0.018156074
-0.014238735
-0.011151866
-0.00830473
0.095746713
0.26798482
0.36017385
0.32881109
0.21261147
-0.057049431
-0.3666374
-0.40150786
-0.43851509
-0.40858744
-0.35279447
-0.31365052
-0.23433316
-0.17172769
-0.14982013
-0.13230058
-0.086597392
-0.033373283
0.012423949
0.040701205
0.050246939
0.047016758
0.037055926
0.02428486
0.010980444
-0.0014830744
-0.012240403
-0.020712672
-0.026565176
-0.029601786
-0.030286246
-0.028860092
-0.025904415
-0.021985707
-0.017765146
-0.01351934
-0.010213854
-0.0072394802
0.090758809
0.26380041
0.36344506
0.32997931
0.20719688
-0.090700947
-0.45800365
-0.50855126
-0.49567925
-0.44812398
-0.37231787
-0.33559022
-0.25769305
-0.18401109
-0.16431968
-0.15781829
-0.10912993
-0.046482861
0.011220421
0.049429255
0.063876942
0.061683843
0.050843516
0.036390723
0.021079253
0.0064338274
-0.0065728264
-0.017359248
-0.025419289
-0.030596898
-0.03274999
-0.03247754
-0.030178976
-0.026473604
-0.021955929
-0.0172826
-0.01272565
-0.0092165452
-0.006128315
0.084810641
0.2562005
0.36249467
0.32891891
0.19758135
-0.13126545
-0.55549707
-0.63745788
-0.54625303
-0.49187925
-0.3883376
-0.35336979
-0.27972737
-0.19614661
-0.17846858
-0.18894538
-0.13841474
-0.065604482
0.006310323
0.057461665
0.078601646
0.07799752
0.066295116
0.050062707
0.032668844
0.015812748
0.00045919116
-0.012668878
-0.023118488
-0.030505366
-0.034715997
-0.035898261
-0.034600065
-0.031388894
-0.026922324
-0.021815728
-0.016708331
-0.011860669
-0.0081643462
-0.0049759185
0.24493217
0.077937673
0.35637219
0.32766991
0.18284297
-0.17639154
-0.6592614
-0.76982745
-0.60911483
-0.54005328
-0.41066168
-0.36630888
-0.29862735
-0.20808508
-0.19164768
-0.22755764
-0.17645277
-0.092769517
-0.0039667721
0.063912329
0.094120999
0.095855071
0.083335211
0.065198148
0.045623017
0.026542708
0.00890758
-0.006633706
-0.019547846
-0.02937923
-0.035842218
-0.038938861
-0.038995119
-0.036610983
-0.032462656
-0.027238833
-0.02156192
-0.01604387
-0.010928222
-0.0070620232
-0.0037871571
0.34438598
0.22969155
0.07026966
0.32137405
0.15966506
-0.22627452
-0.77025922
-0.90744532
-0.70613032
-0.60210806
-0.43137787
-0.38240685
-0.31218408
-0.22154693
-0.20372333
-0.27179078
-0.22382408
-0.1304943
-0.021987232
0.067660165
0.10995097
0.1150411
0.1017903
0.081633528
0.059767999
0.038437641
0.018582897
0.0007244288
-0.014661473
-0.027056096
-0.036012781
-0.041336926
-0.043169342
-0.041987092
-0.038473404
-0.033380785
-0.027414994
-0.02119357
-0.01529205
-0.0099327246
-0.0059146248
-0.0025670533
0.30484541
0.32608109
0.21033048
0.061969234
0.1259034
-0.28126325
-0.88889967
-1.0596164
-0.8296676
-0.67909161
-0.45436023
-0.39038802
-0.32738026
-0.23573736
-0.22051749
-0.31739935
-0.27937848
-0.17891896
-0.051050238
0.066731973
0.12535283
0.13517114
0.12137646
0.099098724
0.074860983
0.051259398
0.029274001
0.0092539662
-0.008480719
-0.023444918
-0.035062647
-0.042906198
-0.04689517
-0.047327744
-0.044825088
-0.040156907
-0.034128178
-0.027446116
-0.020711748
-0.014456652
-0.0088791074
-0.0047275287
-0.0013208179
0.086012622
0.27878627
0.30124785
0.18674055
0.053244273
-0.34068471
-1.016852
-1.2299585
-0.96788466
-0.77034099
-0.47908735
-0.40130545
-0.33946638
-0.25152266
-0.24142038
-0.35156047
-0.34253608
-0.23576339
-0.09200923
0.057966642
0.1387144
0.15558242
0.14161684
0.11722788
0.090556045
0.064708207
0.040694475
0.01872933
-0.0011229631
-0.018526268
-0.032852727
-0.043451403
-0.049951695
-0.052425391
-0.051343718
-0.04746575
-0.041637398
-0.034694631
-0.027330394
-0.020119002
-0.013542371
-0.0077730172
-0.0035063684
-5.3555322e-05
-0.40231248
0.043069921
0.24505055
0.26957743
0.15883459
0.044328054
-1.1540185
-1.4181215
-1.1268916
-0.86955338
-0.51278694
-0.41158544
-0.34738802
-0.26574062
-0.25321271
-0.38100506
-0.40426835
-0.29796036
-0.13780491
0.04159613
0.14824638
0.1751407
0.16179812
0.13547083
0.10643095
0.078390645
0.052488341
0.028835088
0.0072023025
-0.012361696
-0.029299934
-0.042779918
-0.05211188
-0.057044132
-0.057840867
-0.055154988
-0.049872795
-0.042896674
-0.035073903
-0.027068258
-0.019419379
-0.012555239
-0.0066207605
-0.0022564598
0.0012307322
-1.2983146
-0.46456104
-0.0050381195
0.20376619
0.23081701
0.12643172
0.035373798
-1.6183571
-1.3114864
-0.97039761
-0.56110075
-0.42168242
-0.34911477
-0.27787886
-0.25526937
-0.40224855
-0.46717657
-0.36544947
-0.18089121
0.020944546
0.15304127
0.19275099
0.18090648
0.15310444
0.12189971
0.091865738
0.064229
0.039178333
0.016188069
-0.0051056027
-0.024384416
-0.040732135
-0.053129921
-0.060932572
-0.064079861
-0.063060807
-0.058707586
-0.052016609
-0.043921793
-0.035262952
-0.026662446
-0.018619148
-0.011502616
-0.0054282005
-0.00098201615
0.0025294468
-1.8246864
-1.4443546
-0.53155119
-0.060672649
0.15436337
0.18467554
0.089316127
0.026273825
-1.5150206
-1.0683814
-0.6142232
-0.43020345
-0.34496128
-0.28234303
-0.25261718
-0.42411908
-0.51859521
-0.43805555
-0.23018817
-0.0068332785
0.14881104
0.20604152
0.19774924
0.16916275
0.13628424
0.10459687
0.075448453
0.049293902
0.025433517
0.0029867828
-0.018166365
-0.03718672
-0.052766807
-0.063799764
-0.069797113
-0.070957344
-0.068011639
-0.061957501
-0.053874246
-0.044704269
-0.035262137
-0.026119135
-0.017726826
-0.010391191
-0.0041991446
0.00031325118
0.0038390563
-1.7205193
-2.0302842
-1.5835184
-0.60649721
-0.12416994
0.096448745
0.13075806
0.047400312
0.017004177
-1.162795
-0.66351637
-0.43400629
-0.33526225
-0.27478536
-0.24935504
-0.43172963
-0.57877153
-0.50625247
-0.2864076
-0.045754402
0.13178326
0.20868931
0.21013024
0.18234542
0.14945518
0.11604638
0.085620913
0.058669542
0.034446569
0.011554758
-0.010798883
-0.032078363
-0.050791679
-0.0653348
-0.074670901
-0.078583815
-0.077579492
-0.072627655
-0.064868903
-0.055429116
-0.045240398
-0.035076847
-0.025447998
-0.016750035
-0.0092240179
-0.0029365357
0.0016231041
0.0051529685
-1.2602055
-1.914029
-2.2300105
-1.7097844
-0.68726897
-0.19501988
0.029711625
0.068646626
0.00061418391
0.0078590446
-0.70809447
-0.43273127
-0.31934088
-0.25939217
-0.24896285
-0.4288675
-0.61856385
-0.59641548
-0.34146279
-0.091556247
0.108352
0.19727997
0.21332667
0.19133218
0.159118
0.12556211
0.094241024
0.066742289
0.042665127
0.020124944
-0.0025398692
-0.025412403
-0.046996924
-0.065203135
-0.078335097
-0.085606254
-0.087168696
-0.083855813
-0.076852273
-0.06741187
-0.05667075
-0.045533582
-0.034717634
-0.02465759
-0.015690802
-0.0080027076
-0.0016487222
0.0029371004
0.0064657943
-0.74657635
-1.3640899
-2.0936426
-2.4168884
-1.8229178
-0.77164947
-0.27253194
-0.046121229
-0.0018994683
-0.050909722
-0.0011856592
-0.42680873
-0.2959888
-0.23793406
-0.24807415
-0.41586765
-0.64352709
-0.66990089
-0.43136956
-0.15856796
0.077510134
0.17887493
0.20353838
0.1935468
0.16503675
0.13238983
0.10071285
0.072963753
0.049447973
0.028123181
0.0062320156
-0.017280535
-0.041211402
-0.0630567
-0.080370248
-0.091626947
-0.096453533
-0.095429744
-0.089703327
-0.080640269
-0.069564599
-0.057598571
-0.04559458
-0.034193781
-0.023748434
-0.01454904
-0.006739142
-0.00035325084
0.0042481928
0.00777817
-0.41639339
-0.77897423
-1.4635474
-2.2538851
-2.5843534
-1.9209825
-0.85735246
-0.35598392
-0.13098717
-0.081143778
-0.10717565
-0.0096925879
-0.26617076
-0.20735238
-0.23834132
-0.3893633
-0.65241269
-0.72753461
-0.5230027
-0.23173033
0.011923551
0.15531139
0.18049937
0.18703632
0.16583991
0.13584046
0.10458293
0.076729277
0.054123745
0.034847249
0.015017951
-0.0078818631
-0.033315606
-0.058543391
-0.080307913
-0.096169828
-0.10503239
-0.10705195
-0.10324963
-0.095047724
-0.083957775
-0.071319928
-0.058222194
-0.045432856
-0.033503662
-0.0227182
-0.013341151
-0.0054626015
0.00093834809
0.0055667483
0.0091578557
-0.23177836
-0.40266386
-0.8029216
-1.546616
-2.3893207
-2.7256007
-2.0018665
-0.94201123
-0.4443384
-0.22502632
-0.16831535
-0.16682117
-0.017806971
-0.16819964
-0.21809268
-0.35395227
-0.64227146
-0.76239538
-0.59771162
-0.29313666
-0.05506626
0.09626847
0.15213161
0.16687227
0.16114345
0.13532157
0.10523443
0.077596223
0.055953576
0.039501717
0.02315127
0.0024699995
-0.023262886
-0.051318863
-0.077635403
-0.098680577
-0.11240648
-0.1183457
-0.11723848
-0.11051751
-0.099829506
-0.086781547
-0.072683829
-0.058550134
-0.0450436
-0.032641967
-0.021589146
-0.012111322
-0.0041912945
0.0022498286
0.0069894707
0.010621001
-0.12526249
-0.19555425
-0.38384628
-0.81575333
-1.6038919
-2.493852
-2.833761
-2.0634224
-1.0230777
-0.53658228
-0.32662328
-0.26084507
-0.22852105
-0.02783507
-0.18734199
-0.31315469
-0.6109417
-0.7707544
-0.64778161
-0.35126682
-0.13109975
0.047539252
0.098383318
0.13938273
0.14894453
0.13062532
0.10247541
0.074901325
0.054270669
0.04116244
0.029827893
0.013285466
-0.011089477
-0.041064349
-0.071803198
-0.098525995
-0.11797834
-0.12882528
-0.13134486
-0.12685316
-0.11713738
-0.1040141
-0.089109825
-0.073661869
-0.058572763
-0.044417485
-0.031638047
-0.020424643
-0.0108864
-0.0028773461
0.0037257988
0.008494469
0.012132313
-0.14541885
-0.083136944
-0.15827387
-0.35984426
-0.81546129
-1.6301468
-2.5614043
-2.9026346
-2.1041561
-1.0974508
-0.63023036
-0.43354758
-0.35801334
-0.2963024
-0.041168447
-0.26666345
-0.56029632
-0.74969461
-0.67216596
-0.39851063
-0.20549399
-0.017601412
0.045790424
0.094542577
0.13117512
0.1211339
0.095827232
0.06863266
0.048175456
0.038803195
0.03403743
0.023933374
0.0030204456
-0.027496529
-0.062238412
-0.094998163
-0.1210469
-0.1378953
-0.14512993
-0.14380305
-0.13575062
-0.1230426
-0.10758774
-0.090942384
-0.074237127
-0.058275178
-0.043592376
-0.030578868
-0.019262322
-0.0095887525
-0.0012886902
0.0052797974
0.010056725
0.013690113
-0.21601927
-0.097206838
-0.043116875
-0.12147421
-0.33028598
-0.80123491
-1.6243932
-2.5866129
-2.927671
-2.1217737
-1.1635711
-0.71977654
-0.54186455
-0.46919374
-0.36855534
-0.057912157
-0.49446023
-0.6999416
-0.66675394
-0.42648051
-0.26692061
-0.088759312
-0.024938705
0.041278535
0.10280503
0.10883596
0.085278384
0.057840323
0.037437472
0.031187119
0.034519176
0.033518135
0.018776128
-0.010429158
-0.048355173
-0.087324256
-0.12080928
-0.14484385
-0.15804368
-0.16100325
-0.15550645
-0.14381854
-0.1282042
-0.11053385
-0.092251353
-0.074386782
-0.057705146
-0.042684164
-0.029515526
-0.017985541
-0.0078689211
0.00038462394
0.006902658
0.01167044
0.015294081
-0.41752539
-0.1627969
-0.049754052
-0.007179743
-0.085871483
-0.29562736
-0.77141057
-1.5870568
-2.5675035
-2.9065153
-2.1190316
-1.205253
-0.8002822
-0.66599019
-0.59460741
-0.44456172
-0.078092296
-0.62690831
-0.62898076
-0.43643042
-0.29620055
-0.16511405
-0.10013913
-0.031208054
0.065956345
0.091975149
0.071585047
0.043472936
0.020366281
0.0173799
0.029861106
0.040857475
0.035608123
0.010273579
-0.02960924
-0.074679551
-0.1163682
-0.14884282
-0.16941806
-0.17798691
-0.17613513
-0.16628162
-0.15098153
-0.13260407
-0.11280693
-0.093002604
-0.074169927
-0.057013577
-0.041760328
-0.028283652
-0.016083757
-0.0060519536
0.0021402055
0.0085803697
0.013335837
0.016943196
-0.53794677
-0.33327806
-0.10901624
-0.0056398494
0.023480419
-0.052167964
-0.2567028
-0.72420064
-1.5193002
-2.5098169
-2.8432491
-2.0636736
-1.2295314
-0.88833626
-0.80847338
-0.73750744
-0.5230884
-0.10155197
-0.564695
-0.4253959
-0.29236568
-0.23399378
-0.18141822
-0.1199917
0.0073232199
0.075128552
0.057130841
0.02395787
-0.0013047285
-0.0051293762
0.018315376
0.044669071
0.052730672
0.034492213
-0.0054537781
-0.056235453
-0.10674997
-0.14895349
-0.17846687
-0.19417738
-0.19728283
-0.1902615
-0.17600435
-0.15717664
-0.13612278
-0.11435776
-0.093267832
-0.073779746
-0.05628781
-0.040597531
-0.026162218
-0.014059489
-0.0041350634
0.0039517139
0.010315541
0.015051005
0.018636303
-0.48234705
-0.44012405
-0.24808672
-0.056150941
0.033483793
0.048861304
-0.021223262
-0.2155987
-0.66203745
-1.4234604
-2.4133197
-2.7272808
-1.9870465
-1.2517752
-0.98734755
-0.96933121
-0.89233546
-0.60194767
-0.12767312
-0.38952421
-0.27397479
-0.28696292
-0.26334488
-0.21732021
-0.076190239
0.04391681
0.046796914
0.0073473283
-0.032467797
-0.034901724
-0.002933218
0.042750901
0.069203191
0.062010455
0.024430617
-0.031124449
-0.090948846
-0.14414978
-0.18429119
-0.20888943
-0.21850132
-0.21553874
-0.20318515
-0.18455979
-0.16235396
-0.13872379
-0.11527196
-0.093291115
-0.073327529
-0.055232525
-0.038202122
-0.023877704
-0.011915017
-0.0021618327
0.0058254992
0.012105093
0.016814263
0.020371991
-0.33263329
-0.39081445
-0.34225442
-0.16893353
-0.0070820783
0.065759119
0.068791671
0.0059509493
-0.17151671
-0.58738945
-1.3037226
-2.2923438
-2.5916866
-1.8924449
-1.2703075
-1.0962628
-1.1468965
-1.0568431
-0.67798651
-0.15444112
-0.25509946
-0.32386023
-0.33218197
-0.31796796
-0.17222097
-0.0058885578
0.029543503
-0.0053579523
-0.058448619
-0.080394146
-0.033738002
0.032894616
0.082879649
0.092414055
0.060353402
0.0013362633
-0.067913641
-0.13335788
-0.18590447
-0.221335
-0.23925321
-0.2418207
-0.23244475
-0.2147233
-0.19179586
-0.16635167
-0.14050192
-0.11585465
-0.093212435
-0.072429442
-0.052504565
-0.035582401
-0.021448087
-0.0097163614
-0.00012065546
0.0077571899
0.013946906
0.018623377
0.022148823
-0.22904067
-0.26319631
-0.30056458
-0.24830146
-0.098886185
0.035516976
0.090085423
0.084321954
0.031241622
-0.12353221
-0.50544706
-1.1954591
-2.1664324
-2.4166999
-1.7755341
-1.2821671
-1.213903
-1.3370987
-1.2243204
-0.74632773
-0.17921927
-0.33105492
-0.38173318
-0.41620371
-0.27330816
-0.077023084
-0.0002499019
-0.019138872
-0.085552703
-0.12510387
-0.084277608
0.013566961
0.092855145
0.12432316
0.10243399
0.041971791
-0.036783905
-0.11546396
-0.18226659
-0.23064734
-0.258917
-0.26874683
-0.26366624
-0.24772459
-0.22462791
-0.19757055
-0.16928174
-0.14183363
-0.11627998
-0.092538965
-0.069297854
-0.04946426
-0.032788311
-0.01896854
-0.0074446574
0.0019822504
0.0097445714
0.015837749
0.020476032
0.023965479
-0.30251943
-0.18746167
-0.19142989
-0.21212884
-0.16085114
-0.037681899
0.06960384
0.10818103
0.096248078
0.056797128
-0.075999982
-0.4475401
-1.1092252
-2.0013979
-2.2001681
-1.6403037
-1.286273
-1.3386243
-1.5348035
-1.3851089
-0.80061719
-0.19611052
-0.41203754
-0.50513432
-0.38121085
-0.16601581
-0.043489682
-0.03978578
-0.10686203
-0.18847591
-0.1472214
-0.024279934
0.095771037
0.15763785
0.14984794
0.091319496
0.0034096837
-0.08954443
-0.17230921
-0.23591155
-0.2768093
-0.29590184
-0.29667996
-0.28361523
-0.26102766
-0.23267993
-0.20199578
-0.17161155
-0.14293286
-0.11592045
-0.088919746
-0.065732674
-0.046214585
-0.029951926
-0.016410677
-0.0051081503
0.0041445751
0.011783519
0.01777446
0.022370405
0.025820329
-0.42472999
-0.25373728
-0.13741863
-0.12195741
-0.12886894
-0.082997344
0.014622379
0.093351572
0.12037671
0.10938111
0.08115364
-0.050775741
-0.40225889
-1.0098456
-1.8011656
-1.9503246
-1.4921208
-1.2817603
-1.4661945
-1.7297666
-1.5257323
-0.8340723
-0.20081796
-0.57471284
-0.48382758
-0.26111943
-0.098080083
-0.07028842
-0.13026463
-0.24511111
-0.25985793
-0.087008233
0.08542794
0.18742697
0.20343554
0.14634275
0.052947007
-0.054567147
-0.15514058
-0.23620079
-0.29221947
-0.32283409
-0.33129993
-0.32243037
-0.30117587
-0.272012
-0.23902893
-0.20562975
-0.17360578
-0.14300477
-0.11171482
-0.084704058
-0.061916041
-0.042934324
-0.027032288
-0.013785194
-0.0027088098
0.0063610647
0.01387019
0.019755071
0.024305814
0.0277105
-0.61589711
-0.42086319
-0.19557539
-0.088935938
-0.061499704
-0.056375026
-0.019449472
0.053863285
0.10972327
0.12963354
0.12422999
0.093433813
-0.027286586
-0.34789667
-0.89430827
-1.5684419
-1.6756223
-1.3307261
-1.2714627
-1.5901829
-1.9033601
-1.6295888
-0.84310578
-0.19807556
-0.57051001
-0.35042706
-0.15948486
-0.10786238
-0.16006978
-0.29994222
-0.38424863
-0.22260168
0.045210546
0.214847
0.25880921
0.21314915
0.1117514
-0.010228381
-0.12974217
-0.23074185
-0.30444237
-0.34909221
-0.367335
-0.36421822
-0.34530547
-0.31588306
-0.2808147
-0.24435835
-0.20879425
-0.17426259
-0.13809507
-0.10669839
-0.080186068
-0.058085667
-0.039566366
-0.024043012
-0.01109333
-0.00025288168
0.0086269789
0.016003152
0.021780298
0.026278258
0.02963423
-0.62941552
-0.62748844
-0.40362908
-0.14498305
-0.047517374
-0.013933177
-0.00033153063
0.030194385
0.081901415
0.12063392
0.13609154
0.13420166
0.10607766
-0.0028757033
-0.27989674
-0.76035825
-1.3080851
-1.3882008
-1.1667103
-1.2564676
-1.7002134
-2.0329616
-1.6784483
-0.82930752
-0.1978257
-0.42719223
-0.22311766
-0.14838773
-0.19428161
-0.35964545
-0.51064347
-0.38571089
-0.077709115
0.21431354
0.32263099
0.28432212
0.18173664
0.043910437
-0.095880883
-0.21862307
-0.3129032
-0.37425153
-0.40461644
-0.40903904
-0.39368631
-0.36466397
-0.32783612
-0.28830633
-0.24904206
-0.21022933
-0.16850921
-0.13209757
-0.10131743
-0.075677919
-0.054163636
-0.036127623
-0.02098454
-0.008342448
0.0022542512
0.010941406
0.018186626
0.023842184
0.028284714
0.031589484
-0.48364437
-0.65823474
-0.60400356
-0.3699669
-0.10873987
-0.013746552
0.022536425
0.040370631
0.064321045
0.099384901
0.12746692
0.14071258
0.14388701
0.11814781
0.025297179
-0.20796927
-0.61163598
-1.0404023
-1.1026471
-1.0078545
-1.238216
-1.7817916
-2.0952409
-1.656706
-0.77479409
-0.19539165
-0.2763035
-0.18718806
-0.22587824
-0.4260694
-0.64100136
-0.59873648
-0.24630641
0.13374296
0.3635073
0.36967313
0.25602649
0.10834275
-0.052928201
-0.19976689
-0.31690225
-0.39800403
-0.44303964
-0.45702324
-0.44659609
-0.41880076
-0.38057689
-0.33806716
-0.29494814
-0.25150054
-0.20346362
-0.16131597
-0.12565885
-0.095978257
-0.071074806
-0.050170853
-0.032616664
-0.017865347
-0.0055388554
0.0048128733
0.013313104
0.020408215
0.025937046
0.030321685
0.033574421
-0.30802011
-0.50780112
-0.64077006
-0.55294475
-0.31349526
-0.078568006
0.013185712
0.048921446
0.067335479
0.08510345
0.1096106
0.13448386
0.14590313
0.15230361
0.13174603
0.05638572
-0.13213781
-0.45456182
-0.77737833
-0.83143793
-0.85340141
-1.2146354
-1.8181916
-2.0704636
-1.5568873
-0.67844918
-0.18024965
-0.21682725
-0.25144505
-0.4890567
-0.75512729
-0.80122824
-0.49413969
-0.01806156
0.35633863
0.44050543
0.34848271
0.17830777
-0.00092030553
-0.17336152
-0.31659237
-0.41996911
-0.48261441
-0.50839133
-0.50447997
-0.4788145
-0.43958755
-0.39425028
-0.34720174
-0.29873982
-0.24352027
-0.19481757
-0.15358567
-0.11930456
-0.0905415
-0.066402383
-0.046103286
-0.029042824
-0.014691564
-0.0026810876
0.0074378609
0.015724731
0.022663258
0.028060516
0.032386423
0.035586874
-0.22866132
-0.30814484
-0.48769448
-0.58597334
-0.47991016
-0.25076908
-0.049906571
0.034046714
0.067275149
0.084061287
0.097913149
0.12042334
0.1404384
0.15223786
0.16099469
0.14667933
0.09021063
-0.053575248
-0.29528039
-0.52627195
-0.5820676
-0.70587598
-1.1832147
-1.7917952
-1.9492105
-1.3841971
-0.56868454
-0.15737658
-0.27438475
-0.52063866
-0.83572805
-0.96740562
-0.71055104
-0.18984781
0.29076355
0.50092699
0.43882201
0.26503299
0.056643828
-0.13991051
-0.31102787
-0.44059666
-0.52336639
-0.5635003
-0.56783365
-0.54537365
-0.50570323
-0.45756323
-0.40642943
-0.35269838
-0.28929822
-0.23311571
-0.18551466
-0.14599607
-0.11285093
-0.085038641
-0.061652945
-0.041970932
-0.025412668
-0.011458817
0.00025391322
0.010104638
0.018170368
0.024945845
0.030210028
0.034476037
0.03762358
-0.28412124
-0.22068465
-0.28006471
-0.43123829
-0.50278902
-0.39385285
-0.19501757
-0.024517831
0.049370798
0.080101317
0.095530483
0.11111746
0.12827305
0.14703344
0.15920652
0.17024206
0.16335153
0.12609178
0.025667573
-0.14047618
-0.29677814
-0.36088359
-0.56721896
-1.1336725
-1.6898198
-1.7339188
-1.1597413
-0.45501999
-0.1307842
-0.50446113
-0.86651387
-1.0774051
-0.87226593
-0.35771612
0.1915944
0.52270682
0.54901439
0.36266988
0.12904203
-0.10177322
-0.30137171
-0.45895139
-0.56608033
-0.62282983
-0.63735304
-0.61919015
-0.5795912
-0.52903536
-0.47358586
-0.41416711
-0.34148478
-0.27677241
-0.22190377
-0.17642681
-0.13830636
-0.10633666
-0.07945695
-0.05683695
-0.037780194
-0.021719352
-0.0081341185
0.003235001
0.012806104
0.020642769
0.027253553
0.032383192
0.036585753
0.039680638
-0.44885897
-0.25381193
-0.18247619
-0.22492786
-0.34717094
-0.4004911
-0.30339324
-0.14650126
-0.0037457853
0.061796276
0.090436552
0.10782054
0.12024099
0.13656994
0.15358925
0.16721348
0.18074157
0.1817122
0.1631916
0.10281437
0.0026213356
-0.095720187
-0.17422537
-0.43941784
-1.0402294
-1.5111484
-1.4447265
-0.91286361
-0.34634216
-0.10544971
-0.83115521
-1.1051906
-0.97343569
-0.50491009
0.064060078
0.50935369
0.63696574
0.50830597
0.224556