/*--------------------------------*- C++ -*----------------------------------*\
| =========                 |                                                 |
| \\      /  F ield         | OpenFOAM: The Open Source CFD Toolbox           |
|  \\    /   O peration     | Version:  v2012                                 |
|   \\  /    A nd           | Website:  www.openfoam.com                      |
|    \\/     M anipulation  |                                                 |
\*---------------------------------------------------------------------------*/
FoamFile
{
    version     2.0;
    format      ascii;
    class       surfaceScalarField;
    location    "67.5612733369230227";
    object      phi;
}
// * * * * * * * * * * * * * * * * * * * * * * * * * * * * * * * * * * * * * //

dimensions      [0 3 -1 0 0 0 0];
oriented        oriented;


internalField   nonuniform List<scalar> 
18180
(
0.0049378978
-3.403581
0.0096774893
-3.1838056
0.0040351333
-3.3891655
0.014300871
-2.9786694
0.0078879365
-3.1704309
0.0034401018
-3.3750297
0.01884943
-2.7872092
0.011560676
-2.9663796
0.0067343656
-3.1574538
0.0028980066
-3.3611124
0.023276665
-2.6083636
0.015109675
-2.7758402
0.0098675006
-2.9543553
0.0056738231
-3.1444092
0.002439198
-3.3474614
0.027559185
-2.441287
0.018497306
-2.5977071
0.012885659
-2.7648518
0.0083043163
-2.9423144
0.004766533
-3.1316555
0.0020572483
-3.3342522
0.031594835
-2.2851313
0.021728561
-2.4312752
0.015783283
-2.58768
0.010820096
-2.7538211
0.0069591245
-2.9304312
0.0039969474
-3.1193737
0.0017368482
-3.3216977
0.035295511
-2.1391229
0.024764752
-2.2756491
0.018585028
-2.4220651
0.013233887
-2.5776098
0.0090340559
-2.7429178
0.005804007
-2.9190463
0.0033449394
-3.1075966
0.0014618469
-3.3096846
0.038539589
-2.0025024
0.027584042
-2.1301103
0.021299881
-2.2671793
0.015583051
-2.4129248
0.011005347
-2.567675
0.0074865275
-2.7324308
0.0048230768
-2.9080692
0.0027912547
-3.0963289
0.0012182831
-3.2983834
0.041194248
-1.8745686
0.030165222
-1.9939084
0.023958825
-2.1223363
0.017903473
-2.2588655
0.012901377
-2.4038373
0.0090438881
-2.5580064
0.0061736481
-2.7221937
0.0040021296
-2.8974081
0.0023147618
-3.0855845
0.00099747931
-3.2877187
0.043068875
-1.7546792
0.03249444
-1.8663542
0.026597109
-1.9868157
0.020262541
-2.1148128
0.014754555
-2.2505239
0.010480568
-2.3948682
0.0073771553
-2.5483993
0.0050916933
-2.7120776
0.0033156524
-2.8871779
0.00189619
-3.0754833
0.00079455711
-3.2778032
0.043817644
-1.6422828
0.034569524
-1.7468162
0.029269427
-1.8599583
0.022744264
-1.9800933
0.016623496
-2.107178
0.011799489
-2.2421673
0.0084112552
-2.3858623
0.0060296357
-2.5388303
0.004213011
-2.7022982
0.0027296655
-2.8775141
0.0015182789
-3.0660345
0.00060630608
-3.268551
0.04352668
-1.5369362
0.036046086
-1.6343999
0.032046584
-1.7411561
0.025466221
-1.8541008
0.018586525
-1.9731691
0.013014675
-2.0993728
0.0092420152
-2.233662
0.0067767231
-2.3767631
0.0049795248
-2.5294725
0.0034875604
-2.6930308
0.0022082524
-2.868489
0.0011680864
-3.0572692
0.00042851174
-3.2600162
0.042132712
-1.4379513
0.036917627
-1.5290005
0.035165971
-1.6296817
0.028560635
-1.7362526
0.020757418
-1.8479462
0.014145915
-1.9658753
0.0098280464
-2.0912513
0.0072751059
-2.2249764
0.0055758253
-2.3678858
0.0041567494
-2.5206617
0.0028560759
-2.6843992
0.0017219626
-2.8601127
0.00083968795
-3.0491637
0.00025052312
-3.2521026
0.0394083
-1.3448877
0.037341345
-1.4300923
0.03863286
-1.5251968
0.032362888
-1.626031
0.023284106
-1.7309682
0.015228873
-1.8411578
0.010114423
-1.958047
0.0074458986
-2.0828871
0.0059437984
-2.216544
0.0047132593
-2.3595606
0.003467053
-2.5124569
0.0022672197
-2.676381
0.001253151
-2.8523756
0.00052317752
-3.041709
9.6775957e-05
-3.2448273
0.035079782
-1.2573795
0.037292226
-1.337052
0.042558871
-1.4272801
0.037021927
-1.5229123
0.026328858
-1.6217371
0.016316298
-1.7247029
0.010036031
-1.8335181
0.0071820136
-1.9498251
0.0060016332
-2.0747484
0.0051204577
-2.2086745
0.0040411734
-2.351838
0.0028241423
-2.5048326
0.001689266
-2.6689749
0.00079753777
-2.8452322
0.00022843027
-3.0348314
-4.0542822e-05
-3.2380986
0.028944384
-1.1750752
0.036645043
-1.249414
0.047092836
-1.3353437
0.04264323
-1.4264335
0.030124706
-1.5198053
0.017486819
-1.6160419
0.0095142981
-1.7171443
0.0063453805
-1.8252492
0.0056367884
-1.9418076
0.0053260934
-2.0672639
0.0045745876
-2.2014786
0.0034165668
-2.3446888
0.0021719376
-2.4977852
0.0011134492
-2.6621332
0.00036507429
-2.8386451
-3.3817449e-05
-3.0285013
-0.00015202212
-3.2319306
0.02092708
-1.0976719
0.035315793
-1.16687
0.052362846
-1.2488996
0.049485283
-1.3361605
0.034927522
-1.4247355
0.018825184
-1.5147355
0.008456803
-1.6084462
0.0047613336
-1.7086142
0.0047018815
-1.817151
0.0052562767
-1.9345714
0.0050615222
-2.0605679
0.0040725754
-2.1948587
0.0027426516
-2.3380469
0.0014916681
-2.4912412
0.00054856876
-2.6558134
-4.221352e-05
-2.8325352
-0.00028668854
-3.0226436
-0.00024972246
-3.226264
0.011018828
-1.0248902
0.033174536
-1.0890726
0.058465167
-1.1676064
0.05788536
-1.2516864
0.041015127
-1.3361218
0.020452924
-1.420385
0.0067642553
-1.5069799
0.0022166194
-1.59941
0.0030090943
-1.7002001
0.0048145532
-1.8099924
0.005490568
-1.9282813
0.0048320554
-2.0544842
0.0034513498
-2.1886881
0.0019834534
-2.3318509
0.00079667317
-2.4851613
1.7846024e-05
-2.6499447
-0.00038829528
-2.826915
-0.00048854485
-3.0172535
-0.00032500737
-3.2210879
-0.00075225249
-0.95646112
0.030066398
-1.0157199
0.065500123
-1.091122
0.068119959
-1.1726109
0.048690173
-1.2535869
0.02252321
-1.3326183
0.0043254746
-1.4123358
-0.0015377272
-1.4971618
0.00032699463
-1.5904164
0.0038765128
-1.6929478
0.0058471928
-1.8040315
0.0057448911
-1.9227674
0.0043698609
-2.0488773
0.0026453892
-2.1829027
0.0011561579
-2.326041
0.00012089424
-2.4794567
-0.00046421261
-2.6444726
-0.00068479182
-2.8217153
-0.00064095438
-3.0123023
-0.00037889362
-3.2163515
-0.014301001
-0.89214539
0.025841774
-0.94654933
0.073540463
-1.0191183
0.080445979
-1.0985739
0.058279364
-1.1767594
0.025211499
-1.2510812
0.0010241787
-1.3241342
-0.0067992416
-1.4014134
-0.0036281876
-1.4872783
0.0022897045
-1.5828885
0.0061105148
-1.6872544
0.0068744875
-1.7990957
0.0055905611
-1.9177722
0.003561965
-2.0435866
0.0016766563
-2.1774245
0.0003119341
-2.3205306
-0.00049952795
-2.4741102
-0.00087048564
-2.6393694
-0.00091953809
-2.8169252
-0.00074967965
-3.0077707
-0.00043171944
-3.2120342
-0.029465853
-0.83172272
0.020383929
-0.88135412
0.082629271
-0.95130672
0.095095781
-1.0292237
0.07010693
-1.1052789
0.028719488
-1.1754293
-0.0032576851
-1.2420179
-0.013897251
-1.3117546
-0.0091726855
-1.3903014
-0.0001308636
-1.4792715
0.0062557019
-1.5774068
0.0082981731
-1.6829225
0.0072301881
-1.7948226
0.0048415856
-1.9131182
0.0024355965
-2.0385436
0.00062535897
-2.1721592
-0.00048367427
-2.3153067
-0.0010290358
-2.4690844
-0.0011889113
-2.634635
-0.0010923899
-2.8124986
-0.00083819272
-3.00364
-0.00046183634
-3.2081165
-0.04601176
-0.7749782
0.013641657
-0.81997999
0.092810686
-0.8874856
0.11229032
-0.9642616
0.084502858
-1.0388035
0.033280001
-1.1053343
-0.0086400218
-1.1656394
-0.023197627
-1.2277917
-0.016671271
-1.2990284
-0.0035893368
-1.3815975
0.0062608988
-1.473966
0.010111002
-1.5737606
0.0094334053
-1.6795221
0.0066218853
-1.7909584
0.0035314204
-1.9086302
0.0011131633
-2.0335911
-0.00040469457
-2.1670653
-0.0011780941
-2.3103209
-0.0014473337
-2.4643688
-0.0014199232
-2.6302339
-0.0012093106
-2.8084554
-0.00089002498
-2.9998896
-0.0004740168
-3.2045797
-0.063639872
-0.72170291
0.0055985216
-0.7622479
0.10411467
-0.82749121
0.13212264
-0.90336153
0.10175221
-0.97699129
0.039191404
-1.0405204
-0.01521235
-1.0947002
-0.035095145
-1.1491473
-0.026522493
-1.2130328
-0.008305136
-1.2893955
0.0061032282
-1.3764364
0.012427375
-1.4711036
0.012372041
-1.571379
0.0090738452
-1.6766055
0.0050907138
-1.7871731
0.0018444289
-1.9040871
-0.00023966651
-2.0286604
-0.0013180846
-2.1621258
-0.0017246826
-2.3055861
-0.0017460268
-2.4599418
-0.0015691744
-2.6261685
-0.0012764394
-2.8047553
-0.00091195405
-2.9964974
-0.00047812949
-3.2013907
-0.082104526
-0.67176817
-0.0038047636
-0.70790722
0.11636591
-0.7709425
0.15459677
-0.84627278
0.12163656
-0.919013
0.046571038
-0.98046565
-0.022993838
-1.0289929
-0.049980129
-1.0755284
-0.03914947
-1.1319146
-0.014526884
-1.2022106
0.0057469529
-1.2843358
0.015373902
-1.3744736
0.01624167
-1.4699199
0.012398491
-1.5696008
0.0072719048
-1.6736964
0.0029076682
-1.7831608
3.6654304e-05
-1.8993733
-0.0014672101
-2.0237592
-0.0020430188
-2.1573534
-0.0021080541
-2.301096
-0.0019298651
-2.455824
-0.001646818
-2.6224249
-0.0013029834
-2.801405
-0.00091558178
-2.9934406
-0.00047506545
-3.1985319
-0.10121568
-0.62503303
-0.014712612
-0.65674458
0.12913216
-0.71733502
0.17941172
-0.79231147
0.14384122
-0.86452134
0.054740186
-0.92354491
-0.032431501
-0.96756822
-0.068228055
-1.0067447
-0.054993898
-1.0553632
-0.022496651
-1.1196485
0.0052080673
-1.1972605
0.01911415
-1.2834261
0.021265214
-1.3746967
0.016828647
-1.4695004
0.010263494
-1.5677523
0.0044151642
-1.6703535
0.00045955279
-1.77875
-0.0016397472
-1.8945061
-0.0024466193
-2.018899
-0.0025439543
-2.1527705
-0.0023315044
-2.2968935
-0.0020128171
-2.4520102
-0.0016664245
-2.6190093
-0.0012987093
-2.7983645
-0.00090466969
-2.990702
-0.00046722482
-3.1959851
-0.12062994
-0.58109303
-0.027263083
-0.6086262
0.14197479
-0.66645172
0.20630297
-0.74101074
0.16864923
-0.81342843
0.062886145
-0.86927765
-0.044768749
-0.90800556
-0.090665032
-0.94139732
-0.074513514
-0.98317302
-0.032481919
-1.0413724
0.0045009777
-1.1148128
0.023812622
-1.197558
0.027678031
-1.28528
0.022615383
-1.3758734
0.014285932
-1.4689216
0.006504105
-1.5652223
0.0010729918
-1.6663332
-0.0018597322
-1.7739401
-0.0029878071
-1.8895149
-0.003114382
-2.014153
-0.0028192314
-2.1484387
-0.0024130639
-2.2929806
-0.0020140165
-2.4485057
-0.0016421914
-2.6158942
-0.0012724352
-2.7956364
-0.00088405181
-2.9882582
-0.0004564317
-3.1937191
-0.13967592
-0.5393941
-0.041259026
-0.56348384
0.15459692
-0.6183024
0.23533463
-0.69248327
0.19752956
-0.76645204
0.07342608
-0.8208068
-0.060472364
-0.85060249
-0.11870808
-0.8764761
-0.098097348
-0.91401441
-0.044759375
-0.96716552
0.0036532812
-1.0366675
0.029672808
-1.1165113
0.035723686
-1.2012764
0.030023537
-1.2883069
0.019584919
-1.3768015
0.009338895
-1.4673608
0.0019324116
-1.5616632
-0.0021570376
-1.6616185
-0.0037388432
-1.7688106
-0.0038961409
-1.8845397
-0.0034604701
-2.0096194
-0.0028927393
-2.1443986
-0.002379813
-2.2893761
-0.0019542113
-2.4452965
-0.0015875068
-2.6130724
-0.0012319318
-2.7931823
-0.00085772362
-2.9860894
-0.00044420039
-3.191713
-0.15781812
-0.49976758
-0.055967073
-0.52130065
0.16682763
-0.57294657
0.26656387
-0.64673278
0.23197058
-0.72372334
0.091069507
-0.78114427
-0.074695112
-0.80381944
-0.15195972
-0.81409485
-0.12593754
-0.84507584
-0.059094153
-0.8962092
0.0026316392
-0.96254602
0.036911668
-1.0399735
0.045645673
-1.1223282
0.039317489
-1.2064076
0.026427134
-1.2910015
0.013112033
-1.3763937
0.0031089874
-1.464323
-0.0025660327
-1.5570326
-0.0047907477
-1.6563041
-0.0049913521
-1.7635159
-0.0043411482
-1.8797124
-0.003517141
-2.0053846
-0.0028036997
-2.1406694
-0.0022621678
-2.2860766
-0.0018533351
-2.4423825
-0.0015142218
-2.6105233
-0.0011837314
-2.7910046
-0.00082893309
-2.9841699
-0.00043180772
-3.1899388
-0.17494441
-0.46222234
-0.070617362
-0.48194574
0.17856932
-0.53044108
0.2997601
-0.60353114
0.27238489
-0.68416995
0.11867603
-0.74857277
-0.080759828
-0.77250158
-0.18701444
-0.76572302
-0.15794606
-0.77875216
-0.074260351
-0.82668272
0.0019184693
-0.89214442
0.045748861
-0.96766839
0.057672531
-1.0481087
0.050739863
-1.1297967
0.035087341
-1.2111377
0.018045496
-1.2919622
0.0046893326
-1.3739432
-0.0031339871
-1.459704
-0.0062597459
-1.5514232
-0.0065295736
-1.6505987
-0.0055728687
-1.7582959
-0.0043681101
-1.8751705
-0.0033423096
-2.0014603
-0.0025973322
-2.1372646
-0.0020896893
-2.2830882
-0.0017291189
-2.4397462
-0.0014321277
-2.6082385
-0.0011332664
-2.78906
-0.00080035883
-2.9824746
-0.00042030284
-3.1883822
-0.1973366
-0.50205129
-0.084701438
-0.44516893
0.18972119
-0.49065201
0.33436375
-0.56260742
0.31816253
-0.64654038
0.15628128
-0.71919742
-0.07581472
-0.75110885
-0.21994904
-0.73672421
-0.19531993
-0.72522909
-0.090723179
-0.75929022
0.0030116347
-0.82465589
0.056521542
-0.89940912
0.072020007
-0.9783292
0.064499959
-1.0581145
0.045838433
-1.1368301
0.024390532
-1.2137168
0.006783915
-1.2901978
-0.0039017235
-1.369278
-0.0082857135
-1.4536859
-0.0086740417
-1.5451825
-0.0072951746
-1.6448501
-0.0055491814
-1.7533306
-0.0040643172
-1.8709579
-0.0030039401
-1.9978899
-0.0023178248
-2.1341915
-0.0018886007
-2.2803942
-0.0015962346
-2.4373723
-0.0013494018
-2.6061884
-0.0010849257
-2.7873384
-0.00077420658
-2.9809794
-0.00041044565
-3.1870079
-0.21757969
-0.49467083
-0.1056016
-0.47790261
0.20059927
-0.45374774
0.36965341
-0.52366653
0.3681969
-0.61006771
0.20244312
-0.69029087
-0.06051174
-0.73224495
-0.24865879
-0.71974154
-0.23918237
-0.68994508
-0.1124257
-0.7007393
0.0062506327
-0.75962563
0.070137693
-0.83496033
0.088841084
-0.91274073
0.080752376
-0.99101839
0.058936918
-1.0677028
0.032425559
-1.1413058
0.0095310825
-1.2127742
-0.0049165557
-1.285434
-0.011039596
-1.3626771
-0.011624379
-1.4467097
-0.0096805496
-1.5387462
-0.0071857582
-1.639354
-0.0050533703
-1.7487438
-0.0035329012
-1.8671495
-0.0025682255
-1.994689
-0.0020039814
-2.1314485
-0.0016805048
-2.2779793
-0.0014664134
-2.43524
-0.001273646
-2.6043519
-0.0010419227
-2.7858026
-0.00075223427
-2.9796547
-0.00040276436
-3.185802
-0.23552984
-0.48593728
-0.12454694
-0.47247329
0.20394472
-0.47874135
0.405177
-0.48714663
0.42130606
-0.57438242
0.25525274
-0.66062005
-0.036332484
-0.71235538
-0.2724236
-0.70599544
-0.28792566
-0.66827378
-0.14335782
-0.65642155
0.0077757868
-0.69956125
0.087566392
-0.77392843
0.10834042
-0.85116095
0.099571104
-0.92817963
0.074598705
-1.0033724
0.042455883
-1.0743807
0.013107733
-1.1413636
-0.006216526
-1.2078691
-0.014718391
-1.2780435
-0.015624905
-1.3547601
-0.012938225
-1.4394394
-0.0094277723
-1.5325992
-0.0064057477
-1.6343115
-0.0042426722
-1.7446353
-0.0028732796
-1.8637749
-0.0020924699
-1.9918656
-0.0016871749
-2.1290061
-0.0014820947
-2.275826
-0.0013497607
-2.433329
-0.0012063651
-2.6027074
-0.0010069376
-2.7844348
-0.00073568814
-2.9784767
-0.00039775439
-3.1847351
-0.25112297
-0.47585204
-0.1412773
-0.46595146
0.20885381
-0.47485626
0.43581354
-0.50709518
0.47628497
-0.53990106
0.31246789
-0.62948284
-0.0049028473
-0.69006453
-0.29111667
-0.69133785
-0.33896153
-0.65241599
-0.18541695
-0.6238044
0.0016873063
-0.64781434
0.10717469
-0.71622123
0.13089777
-0.79337274
0.12090845
-0.8692944
0.092992811
-0.94346293
0.054807791
-1.012578
0.017741307
-1.075668
-0.0078291366
-1.1362934
-0.019547582
-1.1994731
-0.020965255
-1.2689318
-0.017319153
-1.3464601
-0.012450552
-1.4325159
-0.0082296884
-1.5270246
-0.0051949182
-1.6298588
-0.0032663652
-1.7410451
-0.0021697477
-1.8608226
-0.0016219952
-1.9893682
-0.0013910638
-2.1268508
-0.0013058853
-2.2739117
-0.0012501697
-2.4316164
-0.0011538773
-2.6012311
-0.00098190002
-2.7831962
-0.0007254196
-2.9774175
-0.00039576459
-3.1837987
-0.26452455
-0.46452863
-0.15562056
-0.45824948
0.21519848
-0.46975246
0.46893645
-0.50568888
0.53277574
-0.56122743
0.37193598
-0.59738971
0.032003349
-0.66452369
-0.30483345
-0.67417279
-0.39017839
-0.63774739
-0.23700242
-0.59858809
-0.014893905
-0.60487474
0.12459817
-0.66246041
0.15667139
-0.73906368
0.14466169
-0.81409181
0.11420574
-0.88758646
0.069827174
-0.95553972
0.023694059
-1.0153574
-0.0097857193
-1.0704054
-0.025778045
-1.1266435
-0.027986186
-1.1888271
-0.023119841
-1.2593336
-0.016456215
-1.338618
-0.010642776
-1.4263199
-0.0064509163
-1.5221588
-0.0037766623
-1.6260264
-0.0022478086
-1.7379504
-0.0014867452
-1.8582467
-0.0011897307
-1.9871877
-0.0011324486
-2.124952
-0.0011608892
-2.2722106
-0.0011761596
-2.4300755
-0.0011190108
-2.5998937
-0.00096785826
-2.7820693
-0.00072188545
-2.9764608
-0.00039687928
-3.1829665
-0.27600827
-0.4522147
-0.16757721
-0.44930848
0.22286067
-0.46335149
0.50388738
-0.50240706
0.59383325
-0.56438765
0.44051013
-0.62770082
0.072067907
-0.63569937
-0.31347591
-0.65384673
-0.44007848
-0.62205872
-0.29472793
-0.57793614
-0.041855301
-0.56943585
0.13636594
-0.61402946
0.18496126
-0.68799701
0.17076989
-0.76230016
0.13821799
-0.83536474
0.087867472
-0.90288384
0.031289299
-0.96013265
-0.01203752
-1.009954
-0.033665346
-1.0592518
-0.037080843
-1.1140735
-0.030685872
-1.1775964
-0.021673718
-1.2503811
-0.013768981
-1.3317174
-0.0080659757
-1.4210041
-0.0044233828
-1.5180716
-0.0023298873
-1.622796
-0.0012780054
-1.7352993
-0.00086902925
-1.8560286
-0.00081758307
-1.9852901
-0.00092240269
-2.1232921
-0.0010539696
-2.2706943
-0.0011250893
-2.4286902
-0.0011009143
-2.5986729
-0.00096521264
-2.7810292
-0.00072512722
-2.9755889
-0.00040098783
-3.1822329
-0.28592016
-0.43921443
-0.17733089
-0.43919311
0.23173832
-0.45561053
0.54004265
-0.49720493
0.6581017
-0.56431671
0.51467066
-0.63642333
0.12981557
-0.68358985
-0.31713598
-0.63013644
-0.48720876
-0.60465181
-0.35578419
-0.5590619
-0.077971175
-0.53977528
0.14082208
-0.5714366
0.21322407
-0.63971323
0.19902369
-0.71353516
0.16491371
-0.78642838
0.10927084
-0.85421807
0.040911365
-0.90967073
-0.014526115
-0.95464815
-0.04350309
-0.997008
-0.048693272
-1.044317
-0.040414958
-1.1008129
-0.028358136
-1.1672998
-0.01773358
-1.2427295
-0.010083339
-1.3259547
-0.0052082702
-1.4166276
-0.0024036073
-1.5147041
-0.00098003517
-1.6200982
-0.00041680035
-1.7330624
-0.00034486155
-1.8541362
-0.00051908926
-1.983654
-0.00076702202
-2.1218297
-0.00098212302
-2.2693469
-0.0011014757
-2.427434
-0.0011005712
-2.5975517
-0.00097376173
-2.7800658
-0.00073482755
-2.9747883
-0.00040782915
-3.1815809
-0.29465612
-0.42585261
-0.18523908
-0.42803411
0.24164604
-0.44651132
0.57683106
-0.49009216
0.72425167
-0.56099547
0.59379347
-0.64129317
0.19449359
-0.69920847
-0.30128189
-0.6974559
-0.53011042
-0.58531145
-0.41784226
-0.540787
-0.12115555
-0.51396759
0.13707046
-0.53371965
0.23888459
-0.59468789
0.22946807
-0.66759139
0.1942172
-0.74043276
0.13436273
-0.80915487
0.053013662
-0.86364659
-0.017170869
-0.90418488
-0.055586946
-0.93961692
-0.063323989
-0.97921221
-0.052760092
-1.0285745
-0.036788864
-1.0889001
-0.022659121
-1.1588083
-0.01252653
-1.2365414
-0.0061095141
-1.3213413
-0.0024328428
-1.413173
-0.00056344111
-1.5120028
0.00018973245
-1.6178831
0.00029946003
-1.7311903
6.5540867e-05
-1.8525146
-0.00029930052
-1.9822241
-0.00066811819
-2.1205456
-0.00095087045
-2.2681376
-0.0011058717
-2.4262882
-0.0011173378
-2.596513
-0.00099278312
-2.7791571
-0.00075037657
-2.9740518
-0.00041702919
-3.1810082
-0.30264239
-0.41245683
-0.1918058
-0.41601008
0.25227668
-0.43606303
0.61372946
-0.48109856
0.79146862
-0.5549484
0.67633668
-0.64137132
0.26519415
-0.7100682
-0.27386548
-0.7246095
-0.56697017
-0.65861013
-0.47876016
-0.52271313
-0.16996835
-0.49018971
0.12593612
-0.50067547
0.26064815
-0.55324003
0.26145566
-0.62425339
0.22602809
-0.69714717
0.16351472
-0.76739346
0.068223178
-0.821845
-0.019844227
-0.85828441
-0.070210369
-0.88677604
-0.081512647
-0.91842401
-0.068230842
-0.96048127
-0.047267377
-1.0147412
-0.028656297
-1.0794691
-0.015393654
-1.1522954
-0.0070734915
-1.231848
-0.0023542024
-1.3178849
2.7998721e-05
-1.4105344
0.0010011174
-1.5098754
0.0011579901
-1.6160945
0.00086659863
-1.7296334
0.0003733512
-1.8511255
-0.0001603172
-1.9809823
-0.00062517507
-2.1194066
-0.00095910658
-2.2670478
-0.0011338523
-2.4252316
-0.0011497391
-2.5955424
-0.0010211336
-2.7783005
-0.00077094402
-2.9733708
-0.00042813972
-3.1804961
-0.39933724
-0.3103289
-0.19763947
-0.40334421
0.26321352
-0.42433462
0.65026988
-0.47028837
0.85909542
-0.54636257
0.7617133
-0.63813746
0.34222028
-0.71644135
-0.23644277
-0.74545131
-0.59494627
-0.69462728
-0.5521888
-0.58345775
-0.2228632
-0.46814892
0.1088351
-0.4710719
0.27771556
-0.51565957
0.29405186
-0.58355304
0.26023386
-0.65634373
0.19696754
-0.72857138
0.087360509
-0.78415783
-0.022111816
-0.81703678
-0.087609886
-0.83826056
-0.10385109
-0.86159712
-0.087390145
-0.89614393
-0.060112972
-0.94441102
-0.035817468
-1.004296
-0.018645877
-1.0727236
-0.0080077907
-1.1476734
-0.002067746
-1.2285256
0.0008792707
-1.315412
0.0020696127
-1.4085613
0.0022585318
-1.5082138
0.0019005508
-1.6146375
0.001274016
-1.7283213
0.00056499331
-1.8499333
-9.9250166e-05
-1.9798947
-0.00063537233
-2.1183979
-0.0010011343
-2.2660504
-0.0011843194
-2.4242532
-0.0011958583
-2.594626
-0.001057372
-2.7774841
-0.00079555929
-2.9727457
-0.00044067233
-3.1800425
-0.39028369
-0.20341166
-0.38687367
-0.31810467
0.27394964
-0.41145902
0.68607394
-0.45781977
0.92662728
-0.53545447
0.84951469
-0.6319569
0.42515345
-0.71908622
-0.1902342
-0.76058935
-0.61310565
-0.72527028
-0.62186539
-0.62320657
-0.30632709
-0.49828243
0.086373226
-0.44380608
0.29023147
-0.48165539
0.32577033
-0.54522846
0.29564506
-0.61697582
0.23321401
-0.6907111
0.11038686
-0.74936264
-0.023472696
-0.78039942
-0.10770142
-0.7944792
-0.13093626
-0.80849986
-0.11084233
-0.83516391
-0.075652432
-0.87751138
-0.044205494
-0.93288738
-0.022202531
-0.9973999
-0.0087759206
-1.0683663
-0.0014336594
-1.1446987
0.0021054009
-1.2263591
0.003476886
-1.3136901
0.0036571108
-1.4070971
0.003203012
-1.5069066
0.0024276019
-1.6134483
0.001530001
-1.7272241
0.00065085068
-1.8489119
-0.00011049165
-1.9789407
-0.00069380912
-2.1174834
-0.0010744209
-2.2651322
-0.0012540818
-2.423332
-0.0012534056
-2.5937579
-0.0010998746
-2.7767185
-0.00082317844
-2.9721677
-0.00045413014
-3.1796312
-0.39762168
0.28391611
-0.37706815
-0.20993413
-0.37515652
-0.32657274
0.72089423
-0.44395675
0.99362937
-0.52245261
0.93915693
-0.62287146
0.51376425
-0.71855791
-0.13736684
-0.76987548
-0.62137257
-0.75028859
-0.68595409
-0.65942451
-0.39498217
-0.53280513
0.030153148
-0.44015397
0.29855011
-0.45033451
0.35524359
-0.50910875
0.33078949
-0.57850012
0.26882074
-0.65083936
0.13406415
-0.71228285
-0.025611652
-0.74496325
-0.13077481
-0.75501341
-0.16333637
-0.75956798
-0.13928118
-0.77721929
-0.09420102
-0.81365299
-0.053840912
-0.86489082
-0.025930307
-0.92598125
-0.0091936267
-0.9935303
-0.00026722861
-1.0659751
0.0038629603
-1.1430106
0.0053327091
-1.2250031
0.0054207762
-1.3125134
0.0048137842
-1.4060042
0.0038593191
-1.5058838
0.0027565598
-1.6124892
0.0016474116
-1.726309
0.00064102741
-1.8480216
-0.0001867517
-1.9780822
-0.00079461161
-2.1166489
-0.0011742367
-2.2642686
-0.0013397072
-2.4224601
-0.001319891
-2.5929337
-0.0011469414
-2.7759911
-0.00085275018
-2.9716321
-0.00046803299
-3.1792611
-0.42893535
0.75453362
-0.38257193
0.29205353
-0.36395211
-0.21785454
-0.36437359
-0.33635615
1.0595096
-0.5074639
1.0295599
-0.61061402
0.60802861
-0.71510394
-0.079412963
-0.77441953
-0.6206353
-0.76857017
-0.74235071
-0.69212627
-0.48602476
-0.56660388
-0.035678271
-0.46502982
0.28176849
-0.42157378
0.38168337
-0.47488023
0.36447327
-0.54102588
0.3018342
-0.6098925
0.15471289
-0.66950467
-0.032366453
-0.7033987
-0.16026708
-0.71330575
-0.20185711
-0.71414329
-0.17370909
-0.7224367
-0.11611014
-0.75247661
-0.064681814
-0.79997756
-0.02963563
-0.8581654
-0.0090267413
-0.92283723
0.001656354
-0.991975
0.0063351098
-1.0649723
0.0077717953
-1.1421287
0.0076336877
-1.2241623
0.0067778138
-1.311688
0.0055925514
-1.4051921
0.0042616856
-1.5050942
0.002908758
-1.6117228
0.0016408709
-1.7255353
0.00054574963
-1.8472359
-0.00031948455
-1.977304
-0.00093119528
-2.1158703
-0.0012956213
-2.263443
-0.0014375722
-2.4216206
-0.0013927752
-2.5921497
-0.0011968867
-2.7753038
-0.00088326434
-2.9711307
-0.00048193808
-3.1789142
-0.49060779
1.1235595
-0.41174419
0.78603446
-0.36747541
0.29821351
-0.35099341
-0.22795044
-0.35450091
-0.34813721
1.1190073
-0.59465542
0.70663257
-0.70716742
-0.016851047
-0.77556273
-0.61306412
-0.7799424
-0.78984063
-0.71930964
-0.57669921
-0.59964689
-0.1089743
-0.49133321
0.2560483
-0.43747953
0.39352102
-0.43150925
0.39514904
-0.50389514
0.3312621
-0.56894027
0.16978982
-0.62310184
-0.047211391
-0.65265529
-0.20124057
-0.66040059
-0.24827291
-0.66469767
-0.21485493
-0.67042994
-0.14202605
-0.69381219
-0.076619793
-0.73785305
-0.033055613
-0.79369493
-0.0079935492
-0.85602741
0.0045995963
-0.9224017
0.0097450031
-0.99192348
0.010960446
-1.0647256
0.010396382
-1.1416805
0.009144958
-1.2236439
0.0076470322
-1.3111212
0.0060541576
-1.4045944
0.0044455959
-1.5044969
0.00290622
-1.6111017
0.0015258617
-1.7248718
0.00037704413
-1.8465295
-0.00049953177
-1.9765855
-0.0010966424
-2.1151274
-0.0014334832
-2.2626357
-0.0015440613
-2.4208135
-0.0014695813
-2.5913981
-0.0012481156
-2.7746476
-0.00091379787
-2.9706608
-0.00049545314
-3.1785915
-0.57553964
1.2062073
-0.47020579
1.1844041
-0.39497387
0.81586391
-0.35194832
0.30180592
-0.33821504
-0.2409522
-0.34546716
-0.3626867
0.80675631
-0.6927134
0.049142088
-0.7710498
-0.60197561
-0.78460019
-0.82869983
-0.73931113
-0.6635986
-0.6305832
-0.18888073
-0.51773917
0.22203907
-0.45546943
0.40034948
-0.44236684
0.41867677
-0.45337137
0.35612615
-0.52733969
0.17780496
-0.57519902
-0.070383066
-0.59804477
-0.25387146
-0.59813299
-0.30473293
-0.60189785
-0.26079013
-0.61632714
-0.17227987
-0.63758943
-0.089607571
-0.67828557
-0.035842307
-0.73236026
-0.0057689374
-0.79288657
0.008850504
-0.85701146
0.014339745
-0.92359322
0.015086207
-0.99256371
0.013827483
-1.0647908
0.011969872
-1.1414707
0.01003656
-1.2233215
0.0081311869
-1.3107298
0.0062558657
-1.4041758
0.0044439179
-1.5040422
0.0027703628
-1.6105966
0.0013180681
-1.7242955
0.00014738252
-1.845891
-0.00071765239
-1.9759074
-0.0012840255
-2.1143974
-0.0015828381
-2.2618414
-0.0016557102
-2.4200254
-0.0015480013
-2.5906789
-0.0012991826
-2.7740283
-0.00094353749
-2.9702155
-0.00050823615
-3.1782769
-0.6730846
0.90637841
-0.55159589
1.2898763
-0.45043457
1.2422544
-0.37756723
0.84381522
-0.33613905
0.30236604
-0.32557144
-0.25756402
-0.33752888
-0.38104378
0.11707319
-0.75852951
-0.58934356
-0.78163124
-0.86105663
-0.75047217
-0.74325769
-0.65780753
-0.27366184
-0.54377802
0.18023155
-0.47405785
0.40051912
-0.45366319
0.4399157
-0.46189278
0.38617771
-0.48200554
0.18188506
-0.5297715
-0.097334679
-0.54647563
-0.31033511
-0.53981545
-0.36774563
-0.53322089
-0.3071876
-0.55319352
-0.20389051
-0.58224887
-0.1035886
-0.62121432
-0.037585914
-0.67399336
-0.0019870806
-0.73324792
0.014712479
-0.79559946
0.020380251
-0.85974124
0.020355918
-0.92539756
0.018060473
-0.9933123
0.015312105
-1.0649153
0.012767346
-1.1413695
0.010474579
-1.2231286
0.008320071
-1.3104949
0.0062456953
-1.4038963
0.0042853502
-1.5037092
0.0025212519
-1.6101859
0.0010329807
-1.7237891
-0.00013204302
-1.8452918
-0.00096468906
-1.9752468
-0.0014866655
-2.1136702
-0.0017389804
-2.2610477
-0.0017693283
-2.4192599
-0.0016259629
-2.5899886
-0.0013488311
-2.7734352
-0.00097178539
-2.9697851
-0.00051999313
-3.177973
-0.73921915
0.18532361
-0.64791146
1.0047792
-0.52761595
1.3693455
-0.42972571
1.2968102
-0.35975505
0.86976374
-0.3201656
0.29959224
-0.31311084
-0.2786982
-0.33053676
-0.40379958
-0.57403516
-0.7717905
-0.88856036
-0.75235814
-0.812546
-0.67932619
-0.36035599
-0.5690703
0.13102479
-0.49268216
0.39317175
-0.4647042
0.45665015
-0.46864602
0.41359164
-0.48784427
0.21326236
-0.51174814
-0.12383706
-0.50160903
-0.36242813
-0.49273401
-0.429353
-0.47644286
-0.35278228
-0.48544478
-0.23054563
-0.52418842
-0.11701244
-0.56657333
-0.037893657
-0.61851422
0.0037463657
-0.67697102
0.022484196
-0.73799326
0.028126554
-0.80014815
0.02698559
-0.86297478
0.02324161
-0.92706924
0.019236128
-0.99389396
0.015837235
-1.0650146
0.01304751
-1.1413201
0.010596441
-1.2230427
0.0082827723
-1.3103838
0.0060612231
-1.4037409
0.0039944474
-1.5034765
0.0021775921
-1.6098514
0.00068542617
-1.7233281
-0.00044883886
-1.8447198
-0.0012319291
-1.9745923
-0.0016983277
-2.1129373
-0.001897622
-2.2602579
-0.0018820838
-2.4185076
-0.0017016857
-2.5893274
-0.001395991
-2.7728643
-0.00099795035
-2.969365
-0.00053049475
-3.1776635
-0.7537972
-0.5574151
-0.715033
0.25455923
-0.62027583
1.0995288
-0.50193208
1.443846
-0.40844139
1.3479028
-0.34177087
0.89370026
-0.30417769
0.29328435
-0.30109339
-0.30485741
-0.32459196
-0.43138766
-0.9119824
-0.74660119
-0.87029817
-0.69273833
-0.44450453
-0.59311986
0.074688493
-0.51083332
0.37820563
-0.47568426
0.46711882
-0.47338341
0.43701054
-0.49055834
0.24150558
-0.51440032
-0.1086545
-0.52529931
-0.40951383
-0.45298613
-0.48569854
-0.43474603
-0.39979494
-0.42737114
-0.25072267
-0.46303161
-0.12548186
-0.51360536
-0.03626774
-0.56596077
0.011808841
-0.6239594
0.032434231
-0.68401978
0.037816933
-0.74461402
0.035190638
-0.80506682
0.029527164
-0.86581127
0.023811444
-0.92826514
0.019236044
-0.99420574
0.01579244
-1.0650324
0.013016448
-1.1413106
0.010500444
-1.2230618
0.008067321
-1.3103949
0.0057309131
-1.4036892
0.0035924709
-1.503325
0.0017568718
-1.6095626
0.00028999381
-1.7228944
-0.00079228262
-1.8441555
-0.0015113119
-1.973939
-0.001913369
-2.1122
-0.0020549892
-2.2594636
-0.0019915641
-2.417781
-0.0017736603
-2.588687
-0.0014397589
-2.7723087
-0.0010215667
-2.968952
-0.00053959637
-3.177353
-0.73226198
-0.93175221
-0.73143003
-0.5389825
-0.68528796
0.32168097
-0.58924424
1.1889304
-0.4749605
1.512663
-0.38695129
1.3954998
-0.32384708
0.91569787
-0.28842838
0.28323479
-0.28981571
-0.33634856
-0.31985414
-0.46419098
-0.91790072
-0.69712394
-0.52266634
-0.61250888
0.011691587
-0.52821375
0.35543025
-0.48600592
0.46996758
-0.47670824
0.45476994
-0.48959359
0.26602364
-0.51334299
-0.092782399
-0.52859655
-0.41997826
-0.51333588
-0.53635653
-0.40079661
-0.44776475
-0.38483822
-0.27071146
-0.40525896
-0.12535307
-0.46117878
-0.031288479
-0.51649462
0.022521404
-0.57419265
0.044801337
-0.63355143
0.04965254
-0.69292441
0.045170642
-0.75143977
0.037079293
-0.80927067
0.029114801
-0.86777316
0.022947353
-0.92884332
0.018630686
-0.99422653
0.01548155
-1.0649901
0.012812883
-1.1413706
0.010246677
-1.2231926
0.0077044863
-1.3105167
0.0052767382
-1.4037275
0.0030983992
-1.5032223
0.0012755232
-1.6093016
-0.00014085057