/*--------------------------------*- C++ -*----------------------------------*\
| =========                 |                                                 |
| \\      /  F ield         | OpenFOAM: The Open Source CFD Toolbox           |
|  \\    /   O peration     | Version:  v2012                                 |
|   \\  /    A nd           | Website:  www.openfoam.com                      |
|    \\/     M anipulation  |                                                 |
\*---------------------------------------------------------------------------*/
FoamFile
{
    version     2.0;
    format      ascii;
    class       pointVectorField;
    location    "67.5612733369230227";
    object      pointDisplacement;
}
// * * * * * * * * * * * * * * * * * * * * * * * * * * * * * * * * * * * * * //

dimensions      [0 1 0 0 0 0 0];


internalField   nonuniform List<vector> 
18840
(
(-1.6972214 -0 -0)
(-1.6971644 0 0)
(-1.6969947 0 0)
(-1.6967141 0 0)
(-1.6963243 0 0)
(-1.695826 0 0)
(-1.6952193 0 0)
(-1.694504 0 0)
(-1.6936795 0 0)
(-1.6927449 0 0)
(-1.6916989 0 0)
(-1.6905398 0 0)
(-1.6892658 0 0)
(-1.6878748 0 0)
(-1.6863645 0 0)
(-1.6847323 0 0)
(-1.6829755 0 0)
(-1.6810915 0 0)
(-1.6790776 0 0)
(-1.6769301 0 0)
(-1.6741759 0 0)
(-1.6972214 -0 -0)
(-1.6971631 0 0)
(-1.6969894 0 0)
(-1.6967025 0 0)
(-1.6963039 0 0)
(-1.6957945 0 0)
(-1.6951744 0 0)
(-1.6944435 0 0)
(-1.6936013 0 0)
(-1.6926469 0 0)
(-1.6915789 0 0)
(-1.6903957 0 0)
(-1.6890954 0 0)
(-1.687676 0 0)
(-1.686135 0 0)
(-1.6844699 0 0)
(-1.682678 0 0)
(-1.6807566 0 0)
(-1.6787027 0 0)
(-1.6765131 0 0)
(-1.6741187 0 0)
(-1.6972214 -0 -0)
(-1.6971616 0 0)
(-1.6969834 0 0)
(-1.6966891 0 0)
(-1.6962805 0 0)
(-1.6957582 0 0)
(-1.6951226 0 0)
(-1.6943736 0 0)
(-1.6935107 0 0)
(-1.6925327 0 0)
(-1.6914384 0 0)
(-1.6902262 0 0)
(-1.6888939 0 0)
(-1.6874394 0 0)
(-1.6858601 0 0)
(-1.6841533 0 0)
(-1.6823159 0 0)
(-1.6803451 0 0)
(-1.6782373 0 0)
(-1.6759891 0 0)
(-1.6734957 0 0)
(-1.6972214 -0 -0)
(-1.69716 0 0)
(-1.6969771 0 0)
(-1.6966751 0 0)
(-1.6962557 0 0)
(-1.6957198 0 0)
(-1.6950676 0 0)
(-1.6942992 0 0)
(-1.6934137 0 0)
(-1.6924102 0 0)
(-1.6912872 0 0)
(-1.690043 0 0)
(-1.6886752 0 0)
(-1.6871814 0 0)
(-1.6855588 0 0)
(-1.6838045 0 0)
(-1.681915 0 0)
(-1.6798871 0 0)
(-1.6777167 0 0)
(-1.6754002 0 0)
(-1.6728038 0 0)
(-1.6972214 -0 -0)
(-1.6971583 0 0)
(-1.6969705 0 0)
(-1.6966603 0 0)
(-1.6962296 0 0)
(-1.6956792 0 0)
(-1.6950095 0 0)
(-1.6942203 0 0)
(-1.6933108 0 0)
(-1.69228 0 0)
(-1.691126 0 0)
(-1.6898471 0 0)
(-1.6884407 0 0)
(-1.6869041 0 0)
(-1.6852341 0 0)
(-1.6834275 0 0)
(-1.6814805 0 0)
(-1.6793894 0 0)
(-1.6771499 0 0)
(-1.6747578 0 0)
(-1.6720546 0 0)
(-1.6972214 -0 -0)
(-1.6971566 0 0)
(-1.6969635 0 0)
(-1.6966448 0 0)
(-1.6962022 0 0)
(-1.6956368 0 0)
(-1.6949486 0 0)
(-1.6941375 0 0)
(-1.6932026 0 0)
(-1.6921427 0 0)
(-1.690956 0 0)
(-1.6896401 0 0)
(-1.6881925 0 0)
(-1.6866101 0 0)
(-1.6848894 0 0)
(-1.6830268 0 0)
(-1.6810181 0 0)
(-1.6788591 0 0)
(-1.6765452 0 0)
(-1.6740718 0 0)
(-1.6712597 0 0)
(-1.6972214 -0 -0)
(-1.6971548 0 0)
(-1.6969564 0 0)
(-1.6966287 0 0)
(-1.6961738 0 0)
(-1.6955926 0 0)
(-1.6948852 0 0)
(-1.6940512 0 0)
(-1.6930899 0 0)
(-1.6919996 0 0)
(-1.6907784 0 0)
(-1.6894238 0 0)
(-1.687933 0 0)
(-1.6863024 0 0)
(-1.6845284 0 0)
(-1.6826069 0 0)
(-1.6805333 0 0)
(-1.678303 0 0)
(-1.6759109 0 0)
(-1.6733519 0 0)
(-1.6704303 0 0)
(-1.6972214 -0 -0)
(-1.6971529 0 0)
(-1.6969491 0 0)
(-1.6966123 0 0)
(-1.6961446 0 0)
(-1.695547 0 0)
(-1.6948196 0 0)
(-1.6939622 0 0)
(-1.6929733 0 0)
(-1.6918516 0 0)
(-1.6905947 0 0)
(-1.6892001 0 0)
(-1.6876643 0 0)
(-1.6859839 0 0)
(-1.6841545 0 0)
(-1.682172 0 0)
(-1.6800312 0 0)
(-1.6777271 0 0)
(-1.6752538 0 0)
(-1.6726063 0 0)
(-1.6695757 0 0)
(-1.6972214 -0 -0)
(-1.6971511 0 0)
(-1.6969416 0 0)
(-1.6965955 0 0)
(-1.6961147 0 0)
(-1.6955004 0 0)
(-1.6947525 0 0)
(-1.6938708 0 0)
(-1.6928538 0 0)
(-1.6916998 0 0)
(-1.6904062 0 0)
(-1.6889704 0 0)
(-1.6873886 0 0)
(-1.685657 0 0)
(-1.6837709 0 0)
(-1.6817258 0 0)
(-1.679516 0 0)
(-1.6771361 0 0)
(-1.6745797 0 0)
(-1.6718411 0 0)
(-1.6687034 0 0)
(-1.6972214 -0 -0)
(-1.6971492 0 0)
(-1.6969341 0 0)
(-1.6965787 0 0)
(-1.6960845 0 0)
(-1.695453 0 0)
(-1.6946843 0 0)
(-1.6937778 0 0)
(-1.692732 0 0)
(-1.691545 0 0)
(-1.6902141 0 0)
(-1.6887362 0 0)
(-1.6871075 0 0)
(-1.6853236 0 0)
(-1.6833798 0 0)
(-1.6812708 0 0)
(-1.6789908 0 0)
(-1.6765336 0 0)
(-1.6738926 0 0)
(-1.6710611 0 0)
(-1.6678191 0 0)
(-1.6972214 -0 -0)
(-1.6971472 0 0)
(-1.6969261 0 0)
(-1.6965604 0 0)
(-1.696052 0 0)
(-1.6954018 0 0)
(-1.6946105 0 0)
(-1.6936771 0 0)
(-1.6926003 0 0)
(-1.6913777 0 0)
(-1.6900066 0 0)
(-1.6884834 0 0)
(-1.6868044 0 0)
(-1.6849645 0 0)
(-1.682959 0 0)
(-1.6807817 0 0)
(-1.6784269 0 0)
(-1.6758873 0 0)
(-1.6731564 0 0)
(-1.6702263 0 0)
(-1.6668806 0 0)
(-1.6972214 -0 -0)
(-1.6971644 0 0)
(-1.6969947 0 0)
(-1.6967141 0 0)
(-1.6963243 0 0)
(-1.695826 0 0)
(-1.6952193 0 0)
(-1.694504 0 0)
(-1.6936795 0 0)
(-1.6927449 0 0)
(-1.6916989 0 0)
(-1.6905398 0 0)
(-1.6892658 0 0)
(-1.6878748 0 0)
(-1.6863645 0 0)
(-1.6847323 0 0)
(-1.6829755 0 0)
(-1.6810915 0 0)
(-1.6790776 0 0)
(-1.6769301 0 0)
(-1.6741759 0 0)
(-1.6972214 -0 -0)
(-1.6971631 0 0)
(-1.6969894 0 0)
(-1.6967025 0 0)
(-1.6963039 0 0)
(-1.6957945 0 0)
(-1.6951744 0 0)
(-1.6944435 0 0)
(-1.6936013 0 0)
(-1.6926469 0 0)
(-1.6915789 0 0)
(-1.6903957 0 0)
(-1.6890954 0 0)
(-1.687676 0 0)
(-1.686135 0 0)
(-1.6844699 0 0)
(-1.682678 0 0)
(-1.6807566 0 0)
(-1.6787027 0 0)
(-1.6765131 0 0)
(-1.6741187 0 0)
(-1.6972214 -0 -0)
(-1.6971616 0 0)
(-1.6969834 0 0)
(-1.6966891 0 0)
(-1.6962805 0 0)
(-1.6957582 0 0)
(-1.6951226 0 0)
(-1.6943736 0 0)
(-1.6935107 0 0)
(-1.6925327 0 0)
(-1.6914384 0 0)
(-1.6902262 0 0)
(-1.6888939 0 0)
(-1.6874394 0 0)
(-1.6858601 0 0)
(-1.6841533 0 0)
(-1.6823159 0 0)
(-1.6803451 0 0)
(-1.6782373 0 0)
(-1.6759891 0 0)
(-1.6734957 0 0)
(-1.6972214 -0 -0)
(-1.69716 0 0)
(-1.6969771 0 0)
(-1.6966751 0 0)
(-1.6962557 0 0)
(-1.6957198 0 0)
(-1.6950676 0 0)
(-1.6942992 0 0)
(-1.6934137 0 0)
(-1.6924102 0 0)
(-1.6912872 0 0)
(-1.690043 0 0)
(-1.6886752 0 0)
(-1.6871814 0 0)
(-1.6855588 0 0)
(-1.6838045 0 0)
(-1.681915 0 0)
(-1.6798871 0 0)
(-1.6777167 0 0)
(-1.6754002 0 0)
(-1.6728038 0 0)
(-1.6972214 -0 -0)
(-1.6971583 0 0)
(-1.6969705 0 0)
(-1.6966603 0 0)
(-1.6962296 0 0)
(-1.6956792 0 0)
(-1.6950095 0 0)
(-1.6942203 0 0)
(-1.6933108 0 0)
(-1.69228 0 0)
(-1.691126 0 0)
(-1.6898471 0 0)
(-1.6884407 0 0)
(-1.6869041 0 0)
(-1.6852341 0 0)
(-1.6834275 0 0)
(-1.6814805 0 0)
(-1.6793894 0 0)
(-1.6771499 0 0)
(-1.6747578 0 0)
(-1.6720546 0 0)
(-1.6972214 -0 -0)
(-1.6971566 0 0)
(-1.6969635 0 0)
(-1.6966448 0 0)
(-1.6962022 0 0)
(-1.6956368 0 0)
(-1.6949486 0 0)
(-1.6941375 0 0)
(-1.6932026 0 0)
(-1.6921427 0 0)
(-1.690956 0 0)
(-1.6896401 0 0)
(-1.6881925 0 0)
(-1.6866101 0 0)
(-1.6848894 0 0)
(-1.6830268 0 0)
(-1.6810181 0 0)
(-1.6788591 0 0)
(-1.6765452 0 0)
(-1.6740718 0 0)
(-1.6712597 0 0)
(-1.6972214 -0 -0)
(-1.6971548 0 0)
(-1.6969564 0 0)
(-1.6966287 0 0)
(-1.6961738 0 0)
(-1.6955926 0 0)
(-1.6948852 0 0)
(-1.6940512 0 0)
(-1.6930899 0 0)
(-1.6919996 0 0)
(-1.6907784 0 0)
(-1.6894238 0 0)
(-1.687933 0 0)
(-1.6863024 0 0)
(-1.6845284 0 0)
(-1.6826069 0 0)
(-1.6805333 0 0)
(-1.678303 0 0)
(-1.6759109 0 0)
(-1.6733519 0 0)
(-1.6704303 0 0)
(-1.6972214 -0 -0)
(-1.6971529 0 0)
(-1.6969491 0 0)
(-1.6966123 0 0)
(-1.6961446 0 0)
(-1.695547 0 0)
(-1.6948196 0 0)
(-1.6939622 0 0)
(-1.6929733 0 0)
(-1.6918516 0 0)
(-1.6905947 0 0)
(-1.6892001 0 0)
(-1.6876643 0 0)
(-1.6859839 0 0)
(-1.6841545 0 0)
(-1.682172 0 0)
(-1.6800312 0 0)
(-1.6777271 0 0)
(-1.6752538 0 0)
(-1.6726063 0 0)
(-1.6695757 0 0)
(-1.6972214 -0 -0)
(-1.6971511 0 0)
(-1.6969416 0 0)
(-1.6965955 0 0)
(-1.6961147 0 0)
(-1.6955004 0 0)
(-1.6947525 0 0)
(-1.6938708 0 0)
(-1.6928538 0 0)
(-1.6916998 0 0)
(-1.6904062 0 0)
(-1.6889704 0 0)
(-1.6873886 0 0)
(-1.685657 0 0)
(-1.6837709 0 0)
(-1.6817258 0 0)
(-1.679516 0 0)
(-1.6771361 0 0)
(-1.6745797 0 0)
(-1.6718411 0 0)
(-1.6687034 0 0)
(-1.6972214 -0 -0)
(-1.6971492 0 0)
(-1.6969341 0 0)
(-1.6965787 0 0)
(-1.6960845 0 0)
(-1.695453 0 0)
(-1.6946843 0 0)
(-1.6937778 0 0)
(-1.692732 0 0)
(-1.691545 0 0)
(-1.6902141 0 0)
(-1.6887362 0 0)
(-1.6871075 0 0)
(-1.6853236 0 0)
(-1.6833798 0 0)
(-1.6812708 0 0)
(-1.6789908 0 0)
(-1.6765336 0 0)
(-1.6738926 0 0)
(-1.6710611 0 0)
(-1.6678191 0 0)
(-1.6972214 -0 -0)
(-1.6971472 0 0)
(-1.6969261 0 0)
(-1.6965604 0 0)
(-1.696052 0 0)
(-1.6954018 0 0)
(-1.6946105 0 0)
(-1.6936771 0 0)
(-1.6926003 0 0)
(-1.6913777 0 0)
(-1.6900066 0 0)
(-1.6884834 0 0)
(-1.6868044 0 0)
(-1.6849645 0 0)
(-1.682959 0 0)
(-1.6807817 0 0)
(-1.6784269 0 0)
(-1.6758873 0 0)
(-1.6731564 0 0)
(-1.6702263 0 0)
(-1.6668806 0 0)
(-1.6972214 -0 -0)
(-1.6971743 0 0)
(-1.6970336 0 0)
(-1.6968002 0 0)
(-1.6964741 0 0)
(-1.6960546 0 0)
(-1.69554 0 0)
(-1.6949276 0 0)
(-1.6942147 0 0)
(-1.6933977 0 0)
(-1.6924731 0 0)
(-1.691437 0 0)
(-1.6902852 0 0)
(-1.6890132 0 0)
(-1.6876162 0 0)
(-1.686089 0 0)
(-1.6844264 0 0)
(-1.6826222 0 0)
(-1.6806707 0 0)
(-1.6785646 0 0)
(-1.6761041 0 0)
(-1.6972214 -0 -0)
(-1.6971733 0 0)
(-1.6970295 0 0)
(-1.6967911 0 0)
(-1.6964581 0 0)
(-1.6960297 0 0)
(-1.6955045 0 0)
(-1.6948803 0 0)
(-1.6941544 0 0)
(-1.6933238 0 0)
(-1.6923852 0 0)
(-1.6913348 0 0)
(-1.6901688 0 0)
(-1.6888826 0 0)
(-1.6874718 0 0)
(-1.6859309 0 0)
(-1.6842549 0 0)
(-1.6824377 0 0)
(-1.6804734 0 0)
(-1.6783549 0 0)
(-1.6758865 0 0)
(-1.6972214 -0 -0)
(-1.6971721 0 0)
(-1.6970251 0 0)
(-1.6967813 0 0)
(-1.6964407 0 0)
(-1.6960029 0 0)
(-1.6954668 0 0)
(-1.6948303 0 0)
(-1.6940912 0 0)
(-1.6932467 0 0)
(-1.6922938 0 0)
(-1.691229 0 0)
(-1.6900486 0 0)
(-1.6887483 0 0)
(-1.6873235 0 0)
(-1.6857693 0 0)
(-1.6840805 0 0)
(-1.6822511 0 0)
(-1.6802755 0 0)
(-1.6781466 0 0)
(-1.6756775 0 0)
(-1.6972214 -0 -0)
(-1.6971711 0 0)
(-1.6970209 0 0)
(-1.6967717 0 0)
(-1.696424 0 0)
(-1.6959774 0 0)
(-1.695431 0 0)
(-1.6947832 0 0)
(-1.694032 0 0)
(-1.6931748 0 0)
(-1.6922091 0 0)
(-1.6911314 0 0)
(-1.6899383 0 0)
(-1.6886258 0 0)
(-1.6871895 0 0)
(-1.6856245 0 0)
(-1.6839258 0 0)
(-1.6820879 0 0)
(-1.6801053 0 0)
(-1.677971 0 0)
(-1.6755106 0 0)
(-1.6972214 -0 -0)
(-1.69717 0 0)
(-1.6970168 0 0)
(-1.6967627 0 0)
(-1.6964083 0 0)
(-1.6959535 0 0)
(-1.6953977 0 0)
(-1.6947395 0 0)
(-1.6939772 0 0)
(-1.6931086 0 0)
(-1.6921313 0 0)
(-1.6910421 0 0)
(-1.689838 0 0)
(-1.6885149 0 0)
(-1.687069 0 0)
(-1.6854956 0 0)
(-1.68379 0 0)
(-1.6819469 0 0)
(-1.6799609 0 0)
(-1.6778256 0 0)
(-1.6753829 0 0)
(-1.6972214 -0 -0)
(-1.6971691 0 0)
(-1.6970129 0 0)
(-1.6967543 0 0)
(-1.6963936 0 0)
(-1.6959313 0 0)
(-1.6953668 0 0)
(-1.694699 0 0)
(-1.6939265 0 0)
(-1.6930474 0 0)
(-1.6920595 0 0)
(-1.69096 0 0)
(-1.6897459 0 0)
(-1.6884137 0 0)
(-1.6869598 0 0)
(-1.6853798 0 0)
(-1.6836694 0 0)
(-1.6818234 0 0)
(-1.6798371 0 0)
(-1.6777042 0 0)
(-1.6752872 0 0)
(-1.6972214 -0 -0)
(-1.6971681 0 0)
(-1.6970093 0 0)
(-1.6967462 0 0)
(-1.6963798 0 0)
(-1.6959103 0 0)
(-1.6953376 0 0)
(-1.6946609 0 0)
(-1.6938788 0 0)
(-1.6929898 0 0)
(-1.6919919 0 0)
(-1.6908826 0 0)
(-1.6896592 0 0)
(-1.6883186 0 0)
(-1.6868574 0 0)
(-1.6852717 0 0)
(-1.6835575 0 0)
(-1.6817102 0 0)
(-1.6797251 0 0)
(-1.6775966 0 0)
(-1.6752122 0 0)
(-1.6972214 -0 -0)
(-1.6971673 0 0)
(-1.6970058 0 0)
(-1.6967385 0 0)
(-1.6963665 0 0)
(-1.6958902 0 0)
(-1.6953096 0 0)
(-1.6946241 0 0)
(-1.6938326 0 0)
(-1.6929338 0 0)
(-1.6919259 0 0)
(-1.6908068 0 0)
(-1.6895739 0 0)
(-1.6882246 0 0)
(-1.6867559 0 0)
(-1.6851641 0 0)
(-1.6834457 0 0)
(-1.6815966 0 0)
(-1.6796127 0 0)
(-1.6774887 0 0)
(-1.6751423 0 0)
(-1.6972214 -0 -0)
(-1.6971664 0 0)
(-1.6970023 0 0)
(-1.6967309 0 0)
(-1.6963533 0 0)
(-1.6958703 0 0)
(-1.6952818 0 0)
(-1.6945875 0 0)
(-1.6937863 0 0)
(-1.6928773 0 0)
(-1.6918588 0 0)
(-1.690729 0 0)
(-1.6894855 0 0)
(-1.6881262 0 0)
(-1.6866481 0 0)
(-1.6850483 0 0)
(-1.6833232 0 0)
(-1.68147 0 0)
(-1.6794845 0 0)
(-1.6773624 0 0)
(-1.6750573 0 0)
(-1.6972214 -0 -0)
(-1.6971655 0 0)
(-1.6969988 0 0)
(-1.6967231 0 0)
(-1.69634 0 0)
(-1.6958501 0 0)
(-1.6952535 0 0)
(-1.6945498 0 0)
(-1.6937384 0 0)
(-1.6928183 0 0)
(-1.6917879 0 0)
(-1.6906458 0 0)
(-1.6893898 0 0)
(-1.6880179 0 0)
(-1.6865273 0 0)
(-1.6849157 0 0)
(-1.6831798 0 0)
(-1.6813171 0 0)
(-1.6793239 0 0)
(-1.6771969 0 0)
(-1.6749345 0 0)
(-1.6972214 -0 -0)
(-1.6971743 0 0)
(-1.6970336 0 0)
(-1.6968002 0 0)
(-1.6964741 0 0)
(-1.6960546 0 0)
(-1.69554 0 0)
(-1.6949276 0 0)
(-1.6942147 0 0)
(-1.6933977 0 0)
(-1.6924731 0 0)
(-1.691437 0 0)
(-1.6902852 0 0)
(-1.6890132 0 0)
(-1.6876162 0 0)
(-1.686089 0 0)
(-1.6844264 0 0)
(-1.6826222 0 0)
(-1.6806707 0 0)
(-1.6785646 0 0)
(-1.6761041 0 0)
(-1.6972214 -0 -0)
(-1.6971733 0 0)
(-1.6970295 0 0)
(-1.6967911 0 0)
(-1.6964581 0 0)
(-1.6960297 0 0)
(-1.6955045 0 0)
(-1.6948803 0 0)
(-1.6941544 0 0)
(-1.6933238 0 0)
(-1.6923852 0 0)
(-1.6913348 0 0)
(-1.6901688 0 0)
(-1.6888826 0 0)
(-1.6874718 0 0)
(-1.6859309 0 0)
(-1.6842549 0 0)
(-1.6824377 0 0)
(-1.6804734 0 0)
(-1.6783549 0 0)
(-1.6758865 0 0)
(-1.6972214 -0 -0)
(-1.6971721 0 0)
(-1.6970251 0 0)
(-1.6967813 0 0)
(-1.6964407 0 0)
(-1.6960029 0 0)
(-1.6954668 0 0)
(-1.6948303 0 0)
(-1.6940912 0 0)
(-1.6932467 0 0)
(-1.6922938 0 0)
(-1.691229 0 0)
(-1.6900486 0 0)
(-1.6887483 0 0)
(-1.6873235 0 0)
(-1.6857693 0 0)
(-1.6840805 0 0)
(-1.6822511 0 0)
(-1.6802755 0 0)
(-1.6781466 0 0)
(-1.6756775 0 0)
(-1.6972214 -0 -0)
(-1.6971711 0 0)
(-1.6970209 0 0)
(-1.6967717 0 0)
(-1.696424 0 0)
(-1.6959774 0 0)
(-1.695431 0 0)
(-1.6947832 0 0)
(-1.694032 0 0)
(-1.6931748 0 0)
(-1.6922091 0 0)
(-1.6911314 0 0)
(-1.6899383 0 0)
(-1.6886258 0 0)
(-1.6871895 0 0)
(-1.6856245 0 0)
(-1.6839258 0 0)
(-1.6820879 0 0)
(-1.6801053 0 0)
(-1.677971 0 0)
(-1.6755106 0 0)
(-1.6972214 -0 -0)
(-1.69717 0 0)
(-1.6970168 0 0)
(-1.6967627 0 0)
(-1.6964083 0 0)
(-1.6959535 0 0)
(-1.6953977 0 0)
(-1.6947395 0 0)
(-1.6939772 0 0)
(-1.6931086 0 0)
(-1.6921313 0 0)
(-1.6910421 0 0)
(-1.689838 0 0)
(-1.6885149 0 0)
(-1.687069 0 0)
(-1.6854956 0 0)
(-1.68379 0 0)
(-1.6819469 0 0)
(-1.6799609 0 0)
(-1.6778256 0 0)
(-1.6753829 0 0)
(-1.6972214 -0 -0)
(-1.6971691 0 0)
(-1.6970129 0 0)
(-1.6967543 0 0)
(-1.6963936 0 0)
(-1.6959313 0 0)
(-1.6953668 0 0)
(-1.694699 0 0)
(-1.6939265 0 0)
(-1.6930474 0 0)
(-1.6920595 0 0)
(-1.69096 0 0)
(-1.6897459 0 0)
(-1.6884137 0 0)
(-1.6869598 0 0)
(-1.6853798 0 0)
(-1.6836694 0 0)
(-1.6818234 0 0)
(-1.6798371 0 0)
(-1.6777042 0 0)
(-1.6752872 0 0)
(-1.6972214 -0 -0)
(-1.6971681 0 0)
(-1.6970093 0 0)
(-1.6967462 0 0)
(-1.6963798 0 0)
(-1.6959103 0 0)
(-1.6953376 0 0)
(-1.6946609 0 0)
(-1.6938788 0 0)
(-1.6929898 0 0)
(-1.6919919 0 0)
(-1.6908826 0 0)
(-1.6896592 0 0)
(-1.6883186 0 0)
(-1.6868574 0 0)
(-1.6852717 0 0)
(-1.6835575 0 0)
(-1.6817102 0 0)
(-1.6797251 0 0)
(-1.6775966 0 0)
(-1.6752122 0 0)
(-1.6972214 -0 -0)
(-1.6971673 0 0)
(-1.6970058 0 0)
(-1.6967385 0 0)
(-1.6963665 0 0)
(-1.6958902 0 0)
(-1.6953096 0 0)
(-1.6946241 0 0)
(-1.6938326 0 0)
(-1.6929338 0 0)
(-1.6919259 0 0)
(-1.6908068 0 0)
(-1.6895739 0 0)
(-1.6882246 0 0)
(-1.6867559 0 0)
(-1.6851641 0 0)
(-1.6834457 0 0)
(-1.6815966 0 0)
(-1.6796127 0 0)
(-1.6774887 0 0)
(-1.6751423 0 0)
(-1.6972214 -0 -0)
(-1.6971664 0 0)
(-1.6970023 0 0)
(-1.6967309 0 0)
(-1.6963533 0 0)
(-1.6958703 0 0)
(-1.6952818 0 0)
(-1.6945875 0 0)
(-1.6937863 0 0)
(-1.6928773 0 0)
(-1.6918588 0 0)
(-1.690729 0 0)
(-1.6894855 0 0)
(-1.6881262 0 0)
(-1.6866481 0 0)
(-1.6850483 0 0)
(-1.6833232 0 0)
(-1.68147 0 0)
(-1.6794845 0 0)
(-1.6773624 0 0)
(-1.6750573 0 0)
(-1.6972214 -0 -0)
(-1.6971655 0 0)
(-1.6969988 0 0)
(-1.6967231 0 0)
(-1.69634 0 0)
(-1.6958501 0 0)
(-1.6952535 0 0)
(-1.6945498 0 0)
(-1.6937384 0 0)
(-1.6928183 0 0)
(-1.6917879 0 0)
(-1.6906458 0 0)
(-1.6893898 0 0)
(-1.6880179 0 0)
(-1.6865273 0 0)
(-1.6849157 0 0)
(-1.6831798 0 0)
(-1.6813171 0 0)
(-1.6793239 0 0)
(-1.6771969 0 0)
(-1.6749345 0 0)
(-1.6730297 0 0)
(-1.669511 0 0)
(-1.6657364 0 0)
(-1.6617002 0 0)
(-1.6573982 0 0)
(-1.6528191 0 0)
(-1.6479325 0 0)
(-1.6426843 0 0)
(-1.6370153 0 0)
(-1.630874 0 0)
(-1.6242086 0 0)
(-1.6169675 0 0)
(-1.6091038 0 0)
(-1.6005703 0 0)
(-1.5913094 0 0)
(-1.5812572 0 0)
(-1.5703524 0 0)
(-1.558542 0 0)
(-1.5457806 0 0)
(-1.5320082 0 0)
(-1.5171512 0 0)
(-1.5011279 0 0)
(-1.4838579 0 0)
(-1.4652692 0 0)
(-1.4452872 0 0)
(-1.4238259 0 0)
(-1.4007863 0 0)
(-1.3760804 0 0)
(-1.3495977 0 0)
(-1.3211896 0 0)
(-1.2907227 0 0)
(-1.2580678 0 0)
(-1.2230409 0 0)
(-1.1854546 0 0)
(-1.14511 0 0)
(-1.1017869 0 0)
(-1.0552353 0 0)
(-1.0052233 0 0)
(-0.95152038 0 0)
(-0.89375484 0 0)
(-0.83159042 0 0)
(-0.76473416 0 0)
(-0.69278015 0 0)
(-0.61524307 0 0)
(-0.53160115 0 0)
(-0.44127476 0 0)
(-0.3435965 0 0)
(-0.23789889 0 0)
(-0.1234933 0 0)
(0 0 0)
(-1.6728136 0 0)
(-1.6693005 0 0)
(-1.6655315 0 0)
(-1.6615012 0 0)
(-1.6572067 0 0)
(-1.6526385 0 0)
(-1.6477666 0 0)
(-1.6425372 0 0)
(-1.6368913 0 0)
(-1.6307752 0 0)
(-1.6241356 0 0)
(-1.6169197 0 0)
(-1.6090802 0 0)
(-1.6005696 0 0)
(-1.5913308 0 0)
(-1.5812999 0 0)
(-1.5704156 0 0)
(-1.5586241 0 0)
(-1.5458797 0 0)
(-1.5321232 0 0)
(-1.5172807 0 0)
(-1.5012708 0 0)
(-1.4840131 0 0)
(-1.4654357 0 0)
(-1.445465 0 0)
(-1.4240135 0 0)
(-1.4009824 0 0)
(-1.376283 0 0)
(-1.3498055 0 0)
(-1.3214014 0 0)
(-1.290937 0 0)
(-1.2582841 0 0)
(-1.2232577 0 0)
(-1.1856711 0 0)
(-1.1453251 0 0)
(-1.101999 0 0)
(-1.0554414 0 0)
(-1.005421 0 0)
(-0.95170965 0 0)
(-0.89393496 0 0)
(-0.83176084 0 0)
(-0.76489402 0 0)
(-0.69292769 0 0)
(-0.6153763 0 0)
(-0.53171724 0 0)
(-0.44137174 0 0)
(-0.3436728 0 0)
(-0.23795173 0 0)
(-0.12352027 0 0)
(0 0 0)
(-1.6726219 0 0)
(-1.6691341 0 0)
(-1.6653895 0 0)
(-1.6613832 0 0)
(-1.6571131 0 0)
(-1.6525711 0 0)
(-1.6477285 0 0)
(-1.642532 0 0)
(-1.6369224 0 0)
(-1.630846 0 0)
(-1.6242471 0 0)
(-1.6170714 0 0)
(-1.6092711 0 0)
(-1.6007993 0 0)
(-1.591599 0 0)
(-1.5816058 0 0)
(-1.5707576 0 0)
(-1.5590018 0 0)
(-1.546291 0 0)
(-1.5325655 0 0)
(-1.5177526 0 0)
(-1.5017711 0 0)
(-1.4845398 0 0)
(-1.4659866 0 0)
(-1.4460399 0 0)
(-1.4246106 0 0)
(-1.4015982 0 0)
(-1.3769149 0 0)
(-1.3504515 0 0)
(-1.3220588 0 0)
(-1.2916023 0 0)
(-1.258956 0 0)
(-1.2239333 0 0)
(-1.1863471 0 0)
(-1.1459986 0 0)
(-1.1026666 0 0)
(-1.0560983 0 0)
(-1.0060616 0 0)
(-0.95233154 0 0)
(-0.8945346 0 0)
(-0.8323335 0 0)
(-0.76543435 0 0)
(-0.6934296 0 0)
(-0.61583254 0 0)
(-0.53211931 0 0)
(-0.4417122 0 0)
(-0.34394368 0 0)
(-0.23814261 0 0)
(-0.12362032 0 0)
(0 0 0)
(-1.6724897 0 0)
(-1.6690484 0 0)
(-1.6653486 0 0)
(-1.6613855 0 0)
(-1.6571577 0 0)
(-1.6526582 0 0)
(-1.6478595 0 0)
(-1.6427095 0 0)
(-1.6371507 0 0)
(-1.6311282 0 0)
(-1.6245845 0 0)
(-1.6174643 0 0)
(-1.6097196 0 0)
(-1.6013029 0 0)
(-1.5921578 0 0)
(-1.5822193 0 0)
(-1.5714247 0 0)
(-1.5597209 0 0)
(-1.5470602 0 0)
(-1.5333825 0 0)
(-1.5186146 0 0)
(-1.502676 0 0)
(-1.4854852 0 0)
(-1.4669699 0 0)
(-1.4470593 0 0)
(-1.4256632 0 0)
(-1.4026804 0 0)
(-1.3780224 0 0)
(-1.3515805 0 0)
(-1.3232053 0 0)
(-1.2927619 0 0)
(-1.2601252 0 0)
(-1.2251076 0 0)
(-1.1875218 0 0)
(-1.1471685 0 0)
(-1.1038257 0 0)
(-1.0572394 0 0)
(-1.0071774 0 0)
(-0.95341598 0 0)
(-0.895581 0 0)
(-0.83333379 0 0)
(-0.76637827 0 0)
(-0.69430603 0 0)
(-0.61662906 0 0)
(-0.53282218 0 0)
(-0.44230813 0 0)
(-0.3444181 0 0)
(-0.2384776 0 0)
(-0.12379643 0 0)
(0 0 0)
(-1.672414 0 0)
(-1.6690401 0 0)
(-1.6654056 0 0)
(-1.6615053 0 0)
(-1.6573377 0 0)
(-1.6528968 0 0)
(-1.6481565 0 0)
(-1.643067 0 0)
(-1.6375723 0 0)
(-1.6316171 0 0)
(-1.6251424 0 0)
(-1.6180922 0 0)
(-1.6104181 0 0)
(-1.6020731 0 0)
(-1.5930001 0 0)
(-1.583133 0 0)
(-1.5724082 0 0)
(-1.5607734 0 0)
(-1.5481793 0 0)
(-1.534565 0 0)
(-1.5198575 0 0)
(-1.5039769 0 0)
(-1.4868408 0 0)
(-1.4683761 0 0)
(-1.4485141 0 0)
(-1.4271626 0 0)
(-1.4042191 0 0)
(-1.3795954 0 0)
(-1.3531834 0 0)
(-1.3248322 0 0)
(-1.2944061 0 0)
(-1.2617825 0 0)
(-1.2267718 0 0)
(-1.1891857 0 0)
(-1.1488253 0 0)
(-1.1054676 0 0)
(-1.0588567 0 0)
(-1.0087598 0 0)
(-0.95495484 0 0)
(-0.8970667 0 0)
(-0.83475412 0 0)
(-0.76771832 0 0)
(-0.69555045 0 0)
(-0.61776017 0 0)
(-0.53382065 0 0)
(-0.44315513 0 0)
(-0.34509262 0 0)
(-0.23895406 0 0)
(-0.12404728 0 0)
(0 0 0)
(-1.672387 0 0)
(-1.6691015 0 0)
(-1.6655524 0 0)
(-1.6617337 0 0)
(-1.6576443 0 0)
(-1.6532785 0 0)
(-1.6486113 0 0)
(-1.6435956 0 0)
(-1.6381777 0 0)
(-1.6323022 0 0)
(-1.6259097 0 0)
(-1.6189436 0 0)
(-1.6113555 0 0)
(-1.6030977 0 0)
(-1.5941129 0 0)
(-1.5843337 0 0)
(-1.5736954 0 0)
(-1.5621456 0 0)
(-1.5496344 0 0)
(-1.5360998 0 0)
(-1.5214681 0 0)
(-1.5056598 0 0)
(-1.4885923 0 0)
(-1.4701918 0 0)
(-1.45039 0 0)
(-1.429094 0 0)
(-1.4062002 0 0)
(-1.3816202 0 0)
(-1.3552456 0 0)
(-1.3269244 0 0)
(-1.2965209 0 0)
(-1.2639136 0 0)
(-1.2289112 0 0)
(-1.191325 0 0)
(-1.1509558 0 0)
(-1.1075788 0 0)
(-1.0609367 0 0)
(-1.0107964 0 0)
(-0.95693594 0 0)
(-0.89897959 0 0)
(-0.83658324 0 0)
(-0.76944422 0 0)
(-0.69715297 0 0)
(-0.61921686 0 0)
(-0.53510703 0 0)
(-0.44424675 0 0)
(-0.34596192 0 0)
(-0.23956846 0 0)
(-0.12437102 0 0)
(0 0 0)
(-1.6723972 0 0)
(-1.6692202 0 0)
(-1.6657758 0 0)
(-1.6620575 0 0)
(-1.6580641 0 0)
(-1.6537897 0 0)
(-1.6492101 0 0)
(-1.644281 0 0)
(-1.6389516 0 0)
(-1.6331679 0 0)
(-1.6268705 0 0)
(-1.6200025 0 0)
(-1.6125148 0 0)
(-1.6043599 0 0)
(-1.5954794 0 0)
(-1.5858039 0 0)
(-1.5752683 0 0)
(-1.56382 0 0)
(-1.5514076 0 0)
(-1.5379682 0 0)
(-1.5234277 0 0)
(-1.5077065 0 0)
(-1.4907212 0 0)
(-1.472398 0 0)
(-1.4526689 0 0)
(-1.4314392 0 0)
(-1.4086047 0 0)
(-1.3840776 0 0)
(-1.3577488 0 0)
(-1.3294638 0 0)
(-1.2990874 0 0)
(-1.2665 0 0)
(-1.2315079 0 0)
(-1.1939214 0 0)
(-1.1535414 0 0)
(-1.1101418 0 0)
(-1.0634628 0 0)
(-1.0132706 0 0)
(-0.95934356 0 0)
(-0.90130469 0 0)
(-0.8388065 0 0)
(-0.77154195 0 0)
(-0.69910103 0 0)
(-0.6209878 0 0)
(-0.53667118 0 0)
(-0.44557443 0 0)
(-0.34701943 0 0)
(-0.24031603 0 0)
(-0.12476501 0 0)
(0 0 0)
(-1.6724282 0 0)
(-1.6693795 0 0)
(-1.6660587 0 0)
(-1.662459 0 0)
(-1.6585788 0 0)
(-1.6544122 0 0)
(-1.6499352 0 0)
(-1.6451052 0 0)
(-1.6398757 0 0)
(-1.6341958 0 0)
(-1.6280065 0 0)
(-1.6212498 0 0)
(-1.613876 0 0)
(-1.6058382 0 0)
(-1.5970773 0 0)
(-1.5875216 0 0)
(-1.5771048 0 0)
(-1.5657739 0 0)
(-1.5534765 0 0)
(-1.5401481 0 0)
(-1.5257141 0 0)
(-1.510094 0 0)
(-1.4932048 0 0)
(-1.4749723 0 0)
(-1.4553276 0 0)
(-1.4341751 0 0)
(-1.41141 0 0)
(-1.3869451 0 0)
(-1.3606697 0 0)
(-1.3324273 0 0)
(-1.3020832 0 0)
(-1.2695191 0 0)
(-1.2345392 0 0)
(-1.1969528 0 0)
(-1.1565609 0 0)
(-1.1131354 0 0)
(-1.066414 0 0)
(-1.0161624 0 0)
(-0.96215809 0 0)
(-0.90402304 0 0)
(-0.84140601 0 0)
(-0.773995 0 0)
(-0.70137908 0 0)
(-0.62305887 0 0)
(-0.53850085 0 0)
(-0.44712784 0 0)
(-0.34825687 0 0)
(-0.24119097 0 0)
(-0.12522623 0 0)
(0 0 0)
(-1.6724589 0 0)
(-1.6695584 0 0)
(-1.6663802 0 0)
(-1.6629169 0 0)
(-1.6591677 0 0)
(-1.6551264 0 0)
(-1.6507665 0 0)
(-1.6460498 0 0)
(-1.6409329 0 0)
(-1.6353668 0 0)
(-1.629295 0 0)
(-1.6226609 0 0)
(-1.6154146 0 0)
(-1.6075094 0 0)
(-1.5988839 0 0)
(-1.5894629 0 0)
(-1.5791802 0 0)
(-1.5679828 0 0)
(-1.5558151 0 0)
(-1.5426129 0 0)
(-1.5283008 0 0)
(-1.5127965 0 0)
(-1.4960169 0 0)
(-1.477888 0 0)
(-1.4583401 0 0)
(-1.4372755 0 0)
(-1.4145892 0 0)
(-1.3901955 0 0)
(-1.3639821 0 0)
(-1.3357888 0 0)
(-1.3054814 0 0)
(-1.2729447 0 0)
(-1.2379794 0 0)
(-1.2003933 0 0)
(-1.1599881 0 0)
(-1.1165346 0 0)
(-1.0697664 0 0)
(-1.0194481 0 0)
(-0.96535697 0 0)
(-0.90711304 0 0)
(-0.8443609 0 0)
(-0.77678345 0 0)
(-0.70396899 0 0)
(-0.62541392 0 0)
(-0.54058175 0 0)
(-0.44889482 0 0)
(-0.34966457 0 0)
(-0.24218639 0 0)
(-0.12575104 0 0)
(0 0 0)
(-1.6724677 0 0)
(-1.6697374 0 0)
(-1.6667218 0 0)
(-1.6634152 0 0)
(-1.6598154 0 0)
(-1.655914 0 0)
(-1.6516854 0 0)
(-1.647095 0 0)
(-1.6421019 0 0)
(-1.6366587 0 0)
(-1.6307141 0 0)
(-1.6242138 0 0)
(-1.6171089 0 0)
(-1.6093511 0 0)
(-1.6008749 0 0)
(-1.591602 0 0)
(-1.5814662 0 0)
(-1.5704152 0 0)
(-1.5583929 0 0)
(-1.5453336 0 0)
(-1.5311577 0 0)
(-1.5157815 0 0)
(-1.4991245 0 0)
(-1.4811123 0 0)
(-1.4616725 0 0)
(-1.4407059 0 0)
(-1.4181079 0 0)
(-1.3937943 0 0)
(-1.3676506 0 0)
(-1.3395125 0 0)
(-1.3092467 0 0)
(-1.2767409 0 0)
(-1.2417928 0 0)
(-1.2042077 0 0)
(-1.1637886 0 0)
(-1.1203048 0 0)
(-1.0734862 0 0)
(-1.0230952 0 0)
(-0.96890832 0 0)
(-0.91054398 0 0)
(-0.84764224 0 0)
(-0.7798805 0 0)
(-0.70684572 0 0)
(-0.6280302 0 0)
(-0.54289422 0 0)
(-0.45085883 0 0)
(-0.35122946 0 0)
(-0.24329338 0 0)
(-0.12633484 0 0)
(0 0 0)
(-1.6718061 0 0)
(-1.6692321 0 0)
(-1.6663691 0 0)
(-1.6632108 0 0)
(-1.6597541 0 0)
(-1.6559836 0 0)
(-1.6518772 0 0)
(-1.647405 0 0)
(-1.6425279 0 0)
(-1.6371988 0 0)
(-1.6313707 0 0)
(-1.6249927 0 0)
(-1.6180157 0 0)
(-1.6103912 0 0)
(-1.6020521 0 0)
(-1.5929177 0 0)
(-1.5829212 0 0)
(-1.5720117 0 0)
(-1.5601335 0 0)
(-1.5472164 0 0)
(-1.5331774 0 0)
(-1.5179354 0 0)
(-1.5014105 0 0)
(-1.4835259 0 0)
(-1.4642086 0 0)
(-1.4433569 0 0)
(-1.4208657 0 0)
(-1.3966524 0 0)
(-1.3706017 0 0)
(-1.3425454 0 0)
(-1.3123486 0 0)
(-1.2799029 0 0)
(-1.2450039 0 0)
(-1.2074524 0 0)
(-1.1670541 0 0)
(-1.1235762 0 0)
(-1.0767464 0 0)
(-1.0263222 0 0)
(-0.9720802 0 0)
(-0.91363706 0 0)
(-0.85062689 0 0)
(-0.78272226 0 0)
(-0.70950848 0 0)
(-0.63047308 0 0)
(-0.54507216 0 0)
(-0.45272586 0 0)
(-0.3527328 0 0)
(-0.24437125 0 0)
(-0.12691816 0 0)
(0 0 0)
(-1.6730297 0 0)
(-1.669511 0 0)
(-1.6657364 0 0)
(-1.6617002 0 0)
(-1.6573982 0 0)
(-1.6528191 0 0)
(-1.6479325 0 0)
(-1.6426843 0 0)
(-1.6370153 0 0)
(-1.630874 0 0)
(-1.6242086 0 0)
(-1.6169675 0 0)
(-1.6091038 0 0)
(-1.6005703 0 0)
(-1.5913094 0 0)
(-1.5812572 0 0)
(-1.5703524 0 0)
(-1.558542 0 0)
(-1.5457806 0 0)
(-1.5320082 0 0)
(-1.5171512 0 0)
(-1.5011279 0 0)
(-1.4838579 0 0)
(-1.4652692 0 0)
(-1.4452872 0 0)
(-1.4238259 0 0)
(-1.4007863 0 0)
(-1.3760804 0 0)
(-1.3495977 0 0)
(-1.3211896 0 0)
(-1.2907227 0 0)
(-1.2580678 0 0)
(-1.2230409 0 0)
(-1.1854546 0 0)
(-1.14511 0 0)
(-1.1017869 0 0)
(-1.0552353 0 0)
(-1.0052233 0 0)
(-0.95152038 0 0)
(-0.89375484 0 0)
(-0.83159042 0 0)
(-0.76473416 0 0)
(-0.69278015 0 0)
(-0.61524307 0 0)
(-0.53160115 0 0)
(-0.44127476 0 0)
(-0.3435965 0 0)
(-0.23789889 0 0)
(-0.1234933 0 0)
(0 0 0)
(-1.6728136 0 0)
(-1.6693005 0 0)
(-1.6655315 0 0)
(-1.6615012 0 0)
(-1.6572067 0 0)
(-1.6526385 0 0)
(-1.6477666 0 0)
(-1.6425372 0 0)
(-1.6368913 0 0)
(-1.6307752 0 0)
(-1.6241356 0 0)
(-1.6169197 0 0)
(-1.6090802 0 0)
(-1.6005696 0 0)
(-1.5913308 0 0)
(-1.5812999 0 0)
(-1.5704156 0 0)
(-1.5586241 0 0)
(-1.5458797 0 0)
(-1.5321232 0 0)
(-1.5172807 0 0)
(-1.5012708 0 0)
(-1.4840131 0 0)
(-1.4654357 0 0)
(-1.445465 0 0)
(-1.4240135 0 0)
(-1.4009824 0 0)
(-1.376283 0 0)
(-1.3498055 0 0)
(-1.3214014 0 0)
(-1.290937 0 0)
(-1.2582841 0 0)
(-1.2232577 0 0)
(-1.1856711 0 0)
(-1.1453251 0 0)
(-1.101999 0 0)
(-1.0554414 0 0)
(-1.005421 0 0)
(-0.95170965 0 0)
(-0.89393496 0 0)
(-0.83176084 0 0)
(-0.76489402 0 0)
(-0.69292769 0 0)
(-0.6153763 0 0)
(-0.53171724 0 0)
(-0.44137174 0 0)
(-0.3436728 0 0)
(-0.23795173 0 0)
(-0.12352027 0 0)
(0 0 0)
(-1.6726219 0 0)
(-1.6691341 0 0)
(-1.6653895 0 0)
(-1.6613832 0 0)
(-1.6571131 0 0)
(-1.6525711 0 0)
(-1.6477285 0 0)
(-1.642532 0 0)
(-1.6369224 0 0)
(-1.630846 0 0)
(-1.6242471 0 0)
(-1.6170714 0 0)
(-1.6092711 0 0)
(-1.6007993 0 0)
(-1.591599 0 0)
(-1.5816058 0 0)
(-1.5707576 0 0)
(-1.5590018 0 0)
(-1.546291 0 0)
(-1.5325655 0 0)
(-1.5177526 0 0)
(-1.5017711 0 0)
(-1.4845398 0 0)
(-1.4659866 0 0)
(-1.4460399 0 0)
(-1.4246106 0 0)
(-1.4015982 0 0)
(-1.3769149 0 0)
(-1.3504515 0 0)
(-1.3220588 0 0)
(-1.2916023 0 0)
(-1.258956 0 0)
(-1.2239333 0 0)
(-1.1863471 0 0)
(-1.1459986 0 0)
(-1.1026666 0 0)
(-1.0560983 0 0)
(-1.0060616 0 0)
(-0.95233154 0 0)
(-0.8945346 0 0)
(-0.8323335 0 0)
(-0.76543435 0 0)
(-0.6934296 0 0)
(-0.61583254 0 0)
(-0.53211931 0 0)
(-0.4417122 0 0)
(-0.34394368 0 0)
(-0.23814261 0 0)
(-0.12362032 0 0)
(0 0 0)
(-1.6724897 0 0)
(-1.6690484 0 0)
(-1.6653486 0 0)
(-1.6613855 0 0)
(-1.6571577 0 0)
(-1.6526582 0 0)
(-1.6478595 0 0)
(-1.6427095 0 0)
(-1.6371507 0 0)
(-1.6311282 0 0)
(-1.6245845 0 0)
(-1.6174643 0 0)
(-1.6097196 0 0)
(-1.6013029 0 0)
(-1.5921578 0 0)
(-1.5822193 0 0)
(-1.5714247 0 0)
(-1.5597209 0 0)
(-1.5470602 0 0)
(-1.5333825 0 0)
(-1.5186146 0 0)
(-1.502676 0 0)
(-1.4854852 0 0)
(-1.4669699 0 0)
(-1.4470593 0 0)
(-1.4256632 0 0)
(-1.4026804 0 0)
(-1.3780224 0 0)
(-1.3515805 0 0)
(-1.3232053 0 0)
(-1.2927619 0 0)
(-1.2601252 0 0)
(-1.2251076 0 0)
(-1.1875218 0 0)
(-1.1471685 0 0)
(-1.1038257 0 0)
(-1.0572394 0 0)
(-1.0071774 0 0)
(-0.95341598 0 0)
(-0.895581 0 0)
(-0.83333379 0 0)
(-0.76637827 0 0)
(-0.69430603 0 0)
(-0.61662906 0 0)
(-0.53282218 0 0)
(-0.44230813 0 0)
(-0.3444181 0 0)
(-0.2384776 0 0)
(-0.12379643 0 0)
(0 0 0)
(-1.672414 0 0)
(-1.6690401 0 0)
(-1.6654056 0 0)
(-1.6615053 0 0)
(-1.6573377 0 0)
(-1.6528968 0 0)
(-1.6481565 0 0)
(-1.643067 0 0)
(-1.6375723 0 0)
(-1.6316171 0 0)
(-1.6251424 0 0)
(-1.6180922 0 0)
(-1.6104181 0 0)
(-1.6020731 0 0)
(-1.5930001 0 0)
(-1.583133 0 0)
(-1.5724082 0 0)
(-1.5607734 0 0)
(-1.5481793 0 0)
(-1.534565 0 0)
(-1.5198575 0 0)
(-1.5039769 0 0)
(-1.4868408 0 0)
(-1.4683761 0 0)
(-1.4485141 0 0)
(-1.4271626 0 0)
(-1.4042191 0 0)
(-1.3795954 0 0)
(-1.3531834 0 0)
(-1.3248322 0 0)
(-1.2944061 0 0)
(-1.2617825 0 0)
(-1.2267718 0 0)
(-1.1891857 0 0)
(-1.1488253 0 0)
(-1.1054676 0 0)
(-1.0588567 0 0)
(-1.0087598 0 0)
(-0.95495484 0 0)
(-0.8970667 0 0)
(-0.83475412 0 0)
(-0.76771832 0 0)
(-0.69555045 0 0)
(-0.61776017 0 0)
(-0.53382065 0 0)
(-0.44315513 0 0)
(-0.34509262 0 0)
(-0.23895406 0 0)
(-0.12404728 0 0)
(0 0 0)
(-1.672387 0 0)
(-1.6691015 0 0)
(-1.6655524 0 0)
(-1.6617337 0 0)
(-1.6576443 0 0)
(-1.6532785 0 0)
(-1.6486113 0 0)
(-1.6435956 0 0)
(-1.6381777 0 0)
(-1.6323022 0 0)
(-1.6259097 0 0)
(-1.6189436 0 0)
(-1.6113555 0 0)
(-1.6030977 0 0)
(-1.5941129 0 0)
(-1.5843337 0 0)
(-1.5736954 0 0)
(-1.5621456 0 0)
(-1.5496344 0 0)
(-1.5360998 0 0)
(-1.5214681 0 0)
(-1.5056598 0 0)
(-1.4885923 0 0)
(-1.4701918 0 0)
(-1.45039 0 0)
(-1.429094 0 0)
(-1.4062002 0 0)
(-1.3816202 0 0)
(-1.3552456 0 0)
(-1.3269244 0 0)
(-1.2965209 0 0)
(-1.2639136 0 0)
(-1.2289112 0 0)
(-1.191325 0 0)
(-1.1509558 0 0)