/*--------------------------------*- C++ -*----------------------------------*\
| =========                 |                                                 |
| \\      /  F ield         | OpenFOAM: The Open Source CFD Toolbox           |
|  \\    /   O peration     | Version:  v2012                                 |
|   \\  /    A nd           | Website:  www.openfoam.com                      |
|    \\/     M anipulation  |                                                 |
\*---------------------------------------------------------------------------*/
FoamFile
{
    version     2.0;
    format      ascii;
    class       surfaceScalarField;
    location    "88.3616622644537131";
    object      meshPhi;
}
// * * * * * * * * * * * * * * * * * * * * * * * * * * * * * * * * * * * * * //

dimensions      [0 3 -1 0 0 0 0];
oriented        oriented;


internalField   nonuniform List<scalar> 
18180
(
0
0.021449158
0
0.020253764
0
0.042236448
0
0.018947616
0
0.039370678
-6.5876041e-14
0.061560064
7.0376286e-14
0.01745338
0
0.0363745
0
0.057033788
6.366934e-14
0.079324009
-3.5159603e-14
0.01581354
0
0.033242211
0
0.052408641
0
0.073544743
0
0.096113943
3.5125516e-14
0.014441892
-8.6013709e-18
0.030524686
0
0.048214413
-6.3624722e-14
0.067831875
0
0.089258852
0
0.11182226
-9.1992262e-18
0.013684906
-3.3940968e-14
0.028619114
0
0.044907871
0
0.062814879
0
0.082647884
0
0.10411893
0
0.12677404
3.5049297e-14
0.013349964
-3.3920273e-14
0.027477397
-3.282021e-14
0.04256515
-8.1950021e-18
0.058890887
0
0.076768829
-5.9470999e-14
0.096647241
0
0.11819857
-1.2407006e-17
0.14076353
3.501775e-14
0.013130605
0
0.02678416
3.2793369e-14
0.040959042
0
0.055950997
-3.0715548e-14
0.07197405
-2.9717189e-14
0.089830168
5.7482172e-14
0.10988006
0
0.13138583
5.3767083e-14
0.15396971
-3.5009337e-14
0.012774075
0
0.026069346
0
0.0395796
0
0.053520522
-3.0685819e-14
0.06807288
-8.9091211e-14
0.083917505
6.501296e-18
0.10203589
5.55715e-14
0.12229133
0
0.1437939
-1.0930491e-17
0.16628471
0
0.012196779
-3.383823e-14
0.024962375
-3.2742765e-14
0.037900292
-7.9430872e-18
0.051030656
3.0663684e-14
0.06446772
0
0.078728709
2.8705042e-14
0.094959401
6.2440731e-18
0.11362033
5.3722186e-14
0.13399849
0
0.15542896
5.0241746e-14
0.17792866
0
0.01149192
0
0.023516551
0
0.035832495
0
0.048293096
0
0.060908403
0
0.074112537
5.7376734e-14
0.08881525
2.7750956e-14
0.105706
0
0.12464542
-5.1943527e-14
0.14502588
0
0.1663888
0
0.18875921
-1.7457024e-14
0.010764968
0
0.02197394
0
0.033592143
0
0.045438551
0
0.057428069
0
0.069903497
2.8665204e-14
0.08351176
-2.7731871e-14
0.098836859
2.6827347e-14
0.11610403
0
0.13511356
0
0.15539059
0
0.17660451
-4.6947481e-14
0.19894252
0
0.010065607
-1.6881245e-14
0.020463591
0
0.031359036
0
0.042606735
-3.0607249e-14
0.054046852
0
0.065945117
0
0.078815232
0
0.092998052
2.6814981e-14
0.10863278
-2.593915e-14
0.12599251
0
0.14494547
-4.8532356e-14
0.16507864
0
0.18617233
0
0.20840228
0
0.0094065317
0
0.019036286
-1.6329568e-14
0.029222841
0
0.039881063
0
0.050798876
0
0.062203265
0
0.074511716
0
0.087886453
-6.139435e-18
0.10222752
0
0.11792711
-2.5073391e-14
0.13532773
0
0.1541777
4.6898697e-14
0.17414456
0
0.19511725
-7.8784773e-18
0.21729644
-3.4864197e-14
0.0087901734
-4.6644713e-18
0.01770144
-1.6325513e-14
0.027212556
1.579782e-14
0.037299553
0
0.047700603
0
0.058632605
2.8607633e-14
0.070429376
0
0.083162144
-2.6771886e-14
0.096596144
2.5897417e-14
0.1108797
5.3856778e-18
0.12668003
-5.1374292e-18
0.14413174
2.3439669e-14
0.16284026
0
0.18266925
0
0.20351061
4.2369035e-14
0.2255381
1.7422107e-14
0.0082126442
1.6856557e-14
0.016455719
-1.6317929e-14
0.025330847
-4.080354e-18
0.034872946
0
0.044756543
0
0.055199887
0
0.066488098
0
0.07860399
0
0.091299155
0
0.1045527
0
0.11899542
2.4218037e-14
0.13506288
2.3418822e-14
0.15248177
0
0.17103901
0
0.19068486
0
0.21133823
-4.0949118e-14
0.23325438
0
0.0076702865
-4.549745e-18
0.015292023
-1.6311099e-14
0.023570317
-1.5783043e-14
0.032597642
-1.5270128e-14
0.041970018
1.477267e-14
0.051906846
0
0.062684433
0
0.074188509
-2.6743168e-14
0.08620577
0
0.098742706
-2.5020621e-14
0.11217998
2.4195316e-14
0.12695753
0
0.14311971
2.2633503e-14
0.16043105
2.1888781e-14
0.17878072
4.2332137e-14
0.19821703
0
0.21865018
0
0.24039112
-1.7415107e-14
0.0071605522
4.4903094e-18
0.014204681
1.6300694e-14
0.021923968
1.5776726e-14
0.030465858
-3.8418886e-18
0.039339787
1.4762065e-14
0.04875795
-1.4279755e-14
0.059025886
0
0.069959258
0
0.08135938
0
0.093297619
0
0.10601345
0
0.11976306
0
0.13471817
0
0.15085887
-4.469118e-18
0.16798251
2.1152571e-14
0.18611307
4.0906323e-14
0.20528191
0
0.22546821
0
0.24704694
0
0.0066819833
3.3682172e-14
0.013189837
-1.6295239e-14
0.020385783
-4.2653809e-18
0.028468999
0
0.036861109
-2.9515e-14
0.045757053
0
0.055518093
-1.3805481e-14
0.065916053
0
0.076740378
0
0.088114757
-2.4987247e-14
0.10027543
0
0.113307
0
0.12720586
0
0.14219774
0
0.15824971
-4.2706653e-18
0.17518074
-2.0443824e-14
0.19304389
0
0.21192819
0
0.23180838
0
0.25316727
0
0.0062323064
0
0.012244057
-1.6290384e-14
0.018950452
1.5766014e-14
0.026599536
1.5248221e-14
0.034528024
1.4753577e-14
0.042905006
-1.4270463e-14
0.052164372
1.3798919e-14
0.062051544
-1.3345853e-14
0.072332405
0
0.083178235
0
0.094831211
2.414483e-14
0.10731082
0
0.12042144
0
0.13437143
-2.1844868e-14
0.14940287
4.5029947e-18
0.16534354
-4.080437e-18
0.18203665
0
0.19961584
0
0.2181267
0
0.23767344
0
0.25883334
0
0.0058093708
0
0.011363882
1.6286076e-14
0.017613031
0
0.02485017
-1.5243383e-14
0.032334386
1.4744731e-14
0.040201814
-1.4264925e-14
0.048967243
1.3792941e-14
0.058363043
0
0.068118494
0
0.078454445
0
0.089598607
0
0.10155966
-2.3340384e-14
0.11409737
0
0.12719956
2.1823359e-14
0.14126416
0
0.15634528
0
0.17212506
1.9735737e-14
0.18856189
0
0.20578461
3.6898086e-14
0.22389842
0
0.24307189
0
0.26401901
8.6990388e-15
0.0054113728
0
0.010545845
0
0.016369122
-1.5757535e-14
0.02321406
0
0.03027522
-1.4740095e-14
0.037646954
0
0.045928468
0
0.054849952
-3.2529377e-18
0.064089601
0
0.073915226
0
0.08454713
0
0.095954337
0
0.10794871
-2.2555932e-14
0.12042774
0
0.13370566
0
0.14799285
-2.0397353e-14
0.16302195
1.972425e-14
0.17859005
0
0.19471663
0
0.21155656
3.5647299e-14
0.22921736
0
0.24803873
0
0.26879084
8.6949236e-15
0.0050369781
1.6825561e-14
0.0097870301
0
0.015214286
0
0.021684617
0
0.028344225
0
0.035238474
-1.4251708e-14
0.043048641
0
0.051512247
1.3331589e-14
0.060246006
2.5779762e-14
0.069559061
0
0.079682933
-1.2050806e-14
0.090516509
0
0.10193494
-2.2541014e-14
0.11392012
2.1791533e-14
0.1266041
0
0.14017143
0
0.15452104
1.9704014e-14
0.16939888
0
0.1846933
-1.8426369e-14
0.20048186
1.7811752e-14
0.2169044
-3.444222e-14
0.23412727
0
0.25257161
0
0.27313205
-8.6936148e-15
0.004686089
0
0.0090842908
-8.1358633e-15
0.014144473
0
0.020255652
0
0.02653412
-1.4735949e-14
0.032972259
0
0.040325786
0
0.048348605
0
0.056589084
0
0.065390183
-1.2459952e-14
0.075014882
-1.2047593e-14
0.085301216
-1.1648835e-14
0.096125767
0
0.10757944
0
0.11978744
-5.0917816e-18
0.13280715
0
0.14653658
-1.9687768e-14
0.16079254
1.9037409e-14
0.17542361
-1.8407982e-14
0.19041476
1.7798225e-14
0.20584491
-1.7209754e-14
0.22184595
-3.3270799e-14
0.23859643
0
0.25670368
-3.1069163e-14
0.27709931
2.5710618e-18
0.0043581245
-8.4112197e-15
0.0084346056
-8.1387769e-15
0.013155344
-1.5743514e-14
0.018921691
0
0.024838188
0
0.030842983
-1.4247893e-14
0.037756172
0
0.045356129
0
0.053118823
0
0.06141241
-1.2451658e-14
0.070549366
-3.0183257e-18
0.080321204
-2.3282549e-14
0.090568293
2.6588663e-18
0.10145606
0
0.1132189
0
0.12584177
2.0344752e-14
0.1390449
0
0.15268769
0
0.1667211
0
0.18106973
1.7787012e-14
0.19573665
3.4387643e-14
0.21079707
-1.6624389e-14
0.22635961
0
0.2426721
0
0.26043955
-3.0007867e-14
0.28069633
8.6889373e-15
0.0040518736
-8.408113e-15
0.0078348552
0
0.01224114
7.8705293e-15
0.017676803
2.1038878e-18
0.023249813
0
0.028845916
0
0.035335492
-1.3774636e-14
0.042530168
1.3318765e-14
0.04983322
-1.2874165e-14
0.057627969
-1.2450135e-14
0.066288256
0
0.075576352
-1.1637027e-14
0.085298842
1.1247922e-14
0.095654551
-1.0874556e-14
0.10695359
0
0.11920343
0
0.13198062
0
0.14505616
0
0.15849211
0
0.17227105
0
0.18631631
-1.7179589e-14
0.20065258
1.660635e-14
0.21533622
1.6055808e-14
0.23047359
-3.1041398e-14
0.24634666
0
0.26383325
2.8978604e-14
0.28397107
0
0.003765975
8.4051744e-15
0.007280812
0
0.011396416
0
0.016515254
0
0.021762167
1.7966821e-18
0.026975329
0
0.033059543
0
0.039865399
-3.3258114e-18
0.046728987
1.2873485e-14
0.054037442
-1.2442744e-14
0.062232837
0
0.071060653
0
0.080294837
-1.124499e-14
0.090157294
0
0.10098831
0
0.11283102
0
0.12523086
-1.9641594e-14
0.13780837
0
0.15065995
0
0.16390281
-1.7752995e-14
0.17742102
0
0.19116572
2.8656479e-18
0.20516126
0
0.21946756
0
0.23419737
2.9977567e-14
0.2496787
0
0.26688631
0
0.28693068
0
0.0034992409
0
0.0067696189
-2.1124145e-18
0.010616196
7.8709143e-15
0.015431557
-2.141276e-18
0.020369273
-7.3643086e-15
0.025225733
1.9113344e-18
0.030923495
0
0.037355853
1.3309012e-14
0.043801477
1.286701e-14
0.050639511
0
0.05838263
0
0.066767044
-1.1627237e-14
0.075531346
0
0.084924377
1.0862618e-14
0.095291894
1.0500835e-14
0.10669203
1.0154338e-14
0.11870134
0
0.13083002
1.8975688e-14
0.14314283
-4.2692791e-18
0.15587321
0
0.1689266
1.7149623e-14
0.18218557
0
0.19561948
2.6167279e-18
0.2092711
-1.5498496e-14
0.22321992
-1.4982433e-14
0.23756429
0
0.25266089
0
0.26964421
2.7026594e-14
0.28961306
-8.6900073e-15
0.0032480039
0
0.0062991949
0
0.0098955904
7.867702e-15
0.01442144
2.1586121e-18
0.019065608
-7.3597736e-15
0.023590488
-7.1205637e-15
0.02892162
1.9823243e-18
0.034995055
0
0.041044731
0
0.047430305
-1.2435588e-14
0.054735901
0
0.062692269
2.9416842e-18
0.070997509
-1.123515e-14
0.079927639
0
0.089826238
-3.1019835e-18
0.10074313
-1.0148278e-14
0.11231572
9.8100503e-15
0.12403025
0
0.13583057
0
0.14804705
1.7722704e-14
0.16070015
0
0.1735767
-1.6565947e-14
0.18656949
-1.6018596e-14
0.19968881
-1.5483189e-14
0.21300731
-1.4969042e-14
0.22660447
-1.4468169e-14
0.2405856
0
0.25534381
0
0.27211428
2.6098684e-14
0.29203534
1.4726564e-05
0.0035326058
0
0.0058626132
0
0.009230462
0
0.013479294
-2.173427e-18
0.017845054
1.7688418e-18
0.022062582
-7.1177046e-15
0.027046479
0
0.032775903
6.6536543e-15
0.038451972
0
0.044405062
0
0.051289123
-3.2681052e-18
0.058833006
1.1616328e-14
0.066687734
0
0.075152126
1.0852691e-14
0.084567208
-1.049e-14
0.094955408
1.0139684e-14
0.10601856
9.8013938e-15
0.11730446
-9.4746155e-15
0.12864844
0
0.14036138
0
0.15261519
-1.7123495e-14
0.1651927
1.655119e-14
0.17786631
1.6004333e-14
0.19058625
1.5469474e-14
0.2033956
0
0.21638294
1.4455233e-14
0.22965005
1.3971136e-14
0.24329311
-2.7004957e-14
0.25773687
0
0.27434886
0
0.2942323
2.4546104e-05
0.0034930783
3.9985244e-05
0.006349846
-8.1323419e-15
0.0086139689
0
0.012599785
0
0.016702006
0
0.020633657
-7.1149703e-15
0.025291859
0
0.030691189
-1.678694e-18
0.036016521
-6.4295098e-15
0.041558233
0
0.048037143
0
0.055185226
0
0.062599543
0
0.070598705
1.0851468e-14
0.07952596
0
0.089361648
0
0.099854166
9.7957853e-15
0.11066775
-2.3112855e-18
0.12163248
0
0.13289079
1.7698681e-14
0.14465783
0
0.1569091
-1.6540121e-14
0.16935708
0
0.18181154
1.5458108e-14
0.19425599
-2.295011e-18
0.20675947
-1.4442983e-14
0.21942482
-1.6234148e-18
0.23237021
0
0.24571272
0
0.25988902
0
0.27636016
0
0.29622183
3.0105181e-05
0.0034533151
6.6847962e-05
0.0063237552
6.1556558e-05
0.0092841673
0
0.011775643
0
0.015631722
0
0.019298821
-1.9075881e-18
0.023650429
-6.8784304e-15
0.028735067
0
0.033730989
0
0.038884157
1.6566951e-18
0.044974109
0
0.051742958
-1.161297e-14
0.058729656
0
0.066269327
0
0.074715947
0
0.084007636
0
0.0939143
-9.7932467e-15
0.10421828
9.4629446e-15
0.11479698
9.1465054e-15
0.12566796
0
0.13694379
0
0.14873401
0
0.16092468
-3.1914804e-18
0.17321663
0
0.18543479
0
0.1976057
-2.0844081e-18
0.20980453
1.3950207e-14
0.22214835
1.348172e-14
0.23480466
-1.2115335e-18
0.2478723
0
0.2618165
0
0.27819018
0
0.29802459
3.2034356e-05
0.0034156074
8.2249793e-05
0.0062961369
0.00010329619
0.0092994424
8.381517e-05
0.012608844
0
0.014623542
0
0.018053933
0
0.022116989
0
0.02690113
1.6902794e-18
0.03158738
0
0.036376011
6.2127513e-15
0.042094364
1.7205431e-18
0.048499966
0
0.055074259
0
0.062164041
1.084117e-14
0.070143121
0
0.078912235
-1.0125581e-14
0.088244549
9.7858562e-15
0.098014862
0
0.10816078
-2.2324381e-18
0.11867645
0
0.12954684
8.5415685e-15
0.14079637
0
0.152557
0
0.16467095
0
0.17677516
0
0.18875995
0
0.20065533
0
0.21254674
0
0.22458949
-1.3020284e-14
0.23696486
0
0.24979767
-1.8063104e-18
0.26355902
0
0.27984281
-1.4364717e-18
0.29965843
3.0945464e-05
0.0033802948
8.7795623e-05
0.0062704969
0.00012757162
0.0093112996
0.00014094958
0.012673758
0.00010477015
0.015554923
7.3571076e-15
0.016884816
0
0.020685884
0
0.025182488
-1.6963688e-18
0.029577601
0
0.034026936
-6.213515e-15
0.039391583
0
0.045448505
-5.8024871e-15
0.051627393
0
0.058281206
0
0.065807971
0
0.074079203
1.0124661e-14
0.082857874
-9.7815525e-15
0.092090235
-9.4554011e-15
0.10177822
-9.1356521e-15
0.11191512
-2.1512504e-18
0.12242074
-8.5356647e-15
0.13319269
-8.2483469e-15
0.14439993
0
0.15615276
0
0.1681473
0
0.18006259
0
0.19180604
0
0.20342042
-1.7006913e-18
0.21501692
0
0.22675984
1.2570498e-14
0.23888389
-1.2148436e-14
0.25151477
2.347537e-14
0.26512892
0
0.28135394
0
0.30113353
2.74234e-05
0.0033475635
8.5081704e-05
0.0062469014
0.00013668096
0.0093225391
0.00017439526
0.012730052
0.00017630874
0.015683089
0.0001206417
0.017831156
0
0.019345398
0
0.023571964
0
0.027693942
-1.4132197e-18
0.031827439
-6.2110499e-15
0.036858247
0
0.042580671
0
0.04838132
5.6077996e-15
0.054615656
0
0.061708307
0
0.069506284
0
0.077755064
0
0.086455854
-9.4485899e-15
0.095672234
9.1308672e-15
0.10539342
8.8241706e-15
0.11551615
8.5281914e-15
0.12588861
8.2424906e-15
0.13656004
-7.9666943e-15
0.14778241
0
0.15951822
0
0.17138685
0
0.18309415
0
0.19458794
0
0.20592647
0
0.21722978
0
0.22868926
-1.0031016e-18
0.24057597
-8.5003556e-19
0.25305095
0
0.26655669
0
0.28271936
0
0.30246715
2.2039117e-05
0.0033178097
7.5631207e-05
0.0062252865
0.00013293557
0.0093328925
0.00018719343
0.012780767
0.00021830488
0.015793918
0.00020306715
0.018022192
0.00013375058
0.020288727
0
0.022056672
0
0.025929205
0
0.029770786
-1.6827829e-18
0.034483636
1.8049951e-18
0.039887069
0
0.045327321
0
0.051161258
-5.4164822e-15
0.057839341
0
0.065187787
1.0115251e-14
0.072931262
0
0.081112189
9.4446583e-15
0.089848118
2.4181362e-18
0.099131526
0
0.10883087
-8.5230852e-15
0.11879313
8.2370529e-15
0.12900376
0
0.13970351
7.6959418e-15
0.15100921
0
0.1626914
0
0.17439984
0
0.18589034
0
0.19712844
0
0.20819148
0
0.21921125
0
0.23039205
1.1721118e-14
0.2420776
0
0.25442613
-2.1884634e-14
0.2678466
0
0.28396754
0
0.30365442
1.5331602e-05
0.0032915693
6.0965915e-05
0.0062060213
0.00011857951
0.0093420307
0.00018235825
0.012825579
0.00023445904
0.015892962
0.0002515005
0.018187849
0.00022521178
0.020558155
0.00014741594
0.022984393
0
0.024265134
0
0.027850981
0
0.032259732
-6.003306e-15
0.037357268
5.8013014e-15
0.042456789
5.6058086e-15
0.047909907
-5.4169872e-15
0.054193119
1.5915658e-18
0.061116548
0
0.068378707
0
0.076055602
-9.4436606e-15
0.084310827
0
0.093149531
2.2810916e-18
0.10240091
0
0.11192674
8.2319543e-15
0.12173033
0
0.13197308
-7.6901994e-15
0.14278271
-7.4310083e-15
0.15409447
0
0.16567984
0
0.17720612
0
0.18845836
0
0.19944327
0
0.21023562
0
0.22097297
1.1712327e-14
0.23190102
-7.8123509e-19
0.24340515
0
0.255661
-2.1128257e-14
0.26902311
0
0.28508223
0
0.30471203
7.8199715e-06
0.0032692396
4.2527844e-05
0.0061895113
9.5891061e-05
0.009349743
0.00016293032
0.012864164
0.00022852358
0.015979854
0.00027018846
0.018336878
0.00027902376
0.020799983
0.00024832767
0.023350494
0.00015905789
0.025118608
6.4249859e-15
0.026049456
0
0.030178373
0
0.034980844
-1.5201021e-18
0.039760152
1.4130726e-18
0.044854
0
0.050761259
0
0.057282117
1.434368e-18
0.064088036
9.7683253e-15
0.071279866
0
0.079060308
0
0.08745712
8.8134479e-15
0.096266714
-8.516066e-15
0.10535518
8.2272252e-15
0.11475118
0
0.12457261
-7.6848593e-15
0.13491623
1.4852195e-14
0.14577795
7.1779784e-15
0.15704709
0
0.16848936
0
0.17980319
1.2960101e-14
0.1908192
0
0.20154858
0
0.21206837
-1.1702087e-14
0.22254418
0
0.23323372
-6.9159033e-19
0.24458681
-1.0556845e-14
0.25677174
-2.0397297e-14
0.27008077
0
0.28608845
1.9022725e-14
0.30563436
0.0032508644
0
2.1747696e-05
0.0061760738
6.708851e-05
0.0093561079
0.00013193455
0.012896245
0.00020428197
0.016054853
0.00026344744
0.018469751
0.00029989301
0.021019085
0.00030781062
0.023678378
0.00026794212
0.02556986
0.00016657593
0.026791719
6.2109339e-15
0.028227182
0
0.032746976
0
0.037227159
-5.6042771e-15
0.041982842
-5.4136506e-15
0.047534978
0
0.053674642
-1.4282778e-18
0.060048957
4.884235e-15
0.066776734
0
0.074092509
0
0.082055486
0
0.090436491
8.5100362e-15
0.099094398
-8.2228761e-15
0.10807412
7.9457035e-15
0.11749249
0
0.12741315
-7.4216374e-15
0.1378073
-1.5513201e-18
0.1486623
0
0.15984862
0
0.17112201
0
0.1822145
0
0.19298308
0
0.20345268
0
0.21371381
0
0.2239389
0
0.23441531
-6.228811e-19
0.24564605
-1.0191744e-14
0.25777685
0
0.27103989
0
0.28696423
0
0.30643962
0.006165722
0
0.0032366379
-7.7517044e-06
3.4394309e-05
0.0093611744
9.2420797e-05
0.012921541
0.00016548961
0.016117038
0.00023559333
0.018586659
0.00029256376
0.021214911
0.00033096435
0.023973879
0.00033210883
0.025968908
0.00028060397
0.027337721
0.00017326711
0.028855062
0
0.030639448
0
0.034848392
0
0.039288147
5.4129361e-15
0.044502525
1.6323265e-18
0.050282895
0
0.056250415
-4.8818629e-15
0.062537219
1.2678033e-18
0.069401835
0
0.07694071
0
0.084905762
0
0.093144552
8.2189009e-15
0.10171694
7.9432497e-15
0.11073484
0
0.12024266
7.4167597e-15
0.13018264
-7.167228e-15
0.1405911
-6.9264259e-15
0.15143529
-6.6926146e-15
0.16250928
0
0.17358678
0
0.18444692
0
0.19496189
0
0.20517562
0
0.21518499
-1.0908897e-14
0.22518129
0
0.23548008
-5.6972769e-19
0.24661214
-9.8394331e-15
0.2586878
0
0.27188345
0
0.28773323
-6.0255443e-19
0.30712306
0.0093648338
0
0.0061586699
-2.1649406e-05
0.0032271007
-1.507063e-05
4.7425691e-05
0.012939757
0.00011596394
0.016165278
0.00019095621
0.018687322
0.00026175366
0.02138686
0.00032297564
0.024235528
0.00035707932
0.026326796
0.00034781429
0.027823424
0.0002919843
0.029510556
0.00018118412
0.031132076
0
0.032602545
0
0.036762378
0
0.041654531
-5.2309449e-15
0.04709529
1.4154887e-18
0.052680696
0
0.058550801
-4.7152059e-15
0.064980721
1.3192879e-18
0.072107859
0
0.079668857
0
0.087497427
-2.0293634e-18
0.095672907
7.9393537e-15
0.10428914
7.6711237e-15
0.1133811
1.4822752e-14
0.12289447
-7.1608005e-15
0.13283286
6.9197813e-15
0.1432751
6.6872093e-15
0.15409384
0
0.1650243
0
0.17589888
-1.2073221e-14
0.18650945
1.1668431e-14
0.19676415
0
0.20672794
0
0.21650154
-1.0532182e-14
0.22629473
0
0.23645347
-5.3166694e-19
0.24750141
0
0.2595109
0
0.27262959
0
0.28838312
1.7108569e-14
0.30770486
0.012951109
0
0.009367726
-3.4375784e-05
0.0061548781
-4.2149296e-05
0.0032227739
-2.1493702e-05
5.9523159e-05
0.016199976
0.00013388575
0.018771383
0.00021229659
0.021535078
0.00028905114
0.024461592
0.00034843695
0.026642014
0.00037394314
0.028258137
0.00036201479
0.030097909
0.00030535565
0.031897213
0.0001876217
0.032924468
0
0.034383443
0
0.038981325
0
0.044099892
-5.0529741e-15
0.049327896
4.8813343e-15
0.054806424
0
0.060820888
-1.3383337e-18
0.067549398
1.2774501e-18
0.074718631
0
0.082144472
-8.2120582e-15
0.089927062
0
0.098145955
0
0.10681402
0
0.11589462
0
0.12538049
0
0.13538881
0
0.14590023
0
0.15664748
-1.2482413e-14
0.16741309
0
0.17805598
0
0.18840587
-1.405846e-18
0.1984028
0
0.20812519
0
0.21767623
0
0.22730475
1.9648795e-14
0.23736
-4.9966051e-19
0.24832865
-9.1690641e-15
0.2602514
0
0.27327127
0
0.28894073
0
0.3081853
0.016221827
0
0.012958029
-4.7467378e-05
0.0093696002
-6.7013809e-05
0.0061542922
-6.0169974e-05
0.0032237447
-2.6548005e-05
6.876909e-05
0.018838218
0.00014894664
0.021658366
0.00023447287
0.024650757
0.00031179453
0.026912602
0.00036487662
0.028639399
0.00038928774
0.03061883
0.00037855431
0.032576333
0.00031605696
0.03378489
0.00019153877
0.034522083
0
0.03646205
0
0.041285244
0
0.0461816
4.8793573e-15
0.051292581
0
0.056911945
-4.5544083e-15
0.063256428
4.3996215e-15
0.070047039
1.1507703e-18
0.077077497
0
0.084470873
0
0.092300967
0
0.10054368
-7.4024541e-15
0.10918434
-7.1521903e-15
0.11825433
0
0.12783523
0
0.1379515
-6.4539518e-15
0.1484574
-6.2367673e-15
0.15909684
0
0.1696667
0
0.18006629
0
0.19014807
0
0.19988844
1.0512272e-14
0.20937543
-2.0317609e-14
0.21873146
9.8158012e-15
0.22823445
0
0.23821221
9.1622987e-15
0.24910331
0
0.2609188
0
0.27382943
0
0.28939606
0
0.30858237
0.018886269
0
0.016234642
-5.9603679e-05
0.01296067
-9.2582581e-05
0.0093695352
-9.5727857e-05
0.00615694
-7.4343958e-05
0.0032305531
-2.9770961e-05
7.6555586e-05
0.021753863
0.0001645094
0.02480058
0.00025285544
0.027136098
0.00032649167
0.028965371
0.00037987257
0.031071417
0.00040698149
0.03317464
0.00039166781
0.034544862
0.00032257088
0.035488618
0.00019528051
0.036406872
0
0.038623399
0
0.043231767
0
0.047999897
4.7126148e-15
0.053246105
4.5535437e-15
0.059218531
8.7959566e-15
0.065643474
-1.1681158e-18
0.072288317
0
0.079297175
0
0.086747372
0
0.094582055
1.479962e-14
0.10279373
0
0.11144922
6.9081484e-15
0.12061835
6.6730368e-15
0.13031669
0
0.14047895
-1.4534277e-18
0.15093692
-1.204427e-14
0.16143162
1.1133404e-18
0.1717913
0
0.18193073
0
0.19174542
-1.0502543e-14
0.20122897
0
0.21049776
0
0.21968858
0
0.22910021
0
0.23903015
2.6533667e-14
0.24983962
0
0.26151578
0
0.27429584
0
0.28977181
1.5382932e-14
0.30889628
0.021818518
0
0.018919233
-6.8948401e-05
0.016238431
-0.00011627939
0.012957025
-0.00013228255
0.0093673899
-0.00011830062
0.0061624365
-8.333205e-05
0.0032440577
-3.066888e-05
8.4543854e-05
0.024908887
0.00017735261
0.027310747
0.00026474978
0.029233725
0.00033988719
0.031453559
0.00039702271
0.033690358
0.00042093986
0.035214733
0.00039965853
0.03634263
0.00032884476
0.037489749
0.00019947202
0.038352104
-5.0502165e-15
0.040441503
0
0.044918257
4.7131796e-15
0.049811892
0
0.055427832
-4.396428e-15
0.061497507
0
0.067767423
0
0.074397691
1.0672623e-18
0.081477642
0
0.088922488
1.479322e-14
0.096719821
0
0.10495765
0
0.11372491
6.6707036e-15
0.12302718
0
0.13278517
0
0.1429403
-6.0174661e-15
0.15331839
-1.2365689e-18
0.16365314
5.6179133e-15
0.1737844
0
0.1836667
0
0.19320216
0
0.20243679
0
0.21150614
0
0.22056365
0
0.22991726
0
0.23982357
-8.5377344e-15
0.25053204
-8.2459744e-15
0.26204603
-1.5927244e-14
0.27468862
0
0.29006623
1.4846542e-14
0.30914364
0.024973523
0
0.021856894
-7.682414e-05
0.018935143
-0.00013457065
0.016230128
-0.00016618067
0.012947263
-0.00016350577
0.0093622402
-0.00013251881
0.0061709436
-8.5731484e-05
0.0032645033
-2.8725371e-05
9.1111846e-05
0.027435058
0.00018568257
0.029442222
0.0002755935
0.031763044
0.00035513188
0.034121602
0.00041049295
0.035791482
0.00042940852
0.037094293
0.00040736938
0.038446952
0.00033582946
0.039545784
0.00020244052
0.039937614
0
0.042006781
0
0.046598445
-4.5521253e-15
0.051871043
-1.3835601e-18
0.057597732
1.1940279e-18
0.063505515
0
0.06976541
-3.9624653e-15
0.076482867
1.0138543e-18
0.083552561
0
0.090952507
0
0.09878627
-6.9009835e-15
0.10715151
0
0.11605825
0
0.12541185
-1.5883817e-18
0.13519111
0
0.14533111
5.8088368e-15
0.15560581
5.6131459e-15
0.1657596
9.9585585e-19
0.17566395
0
0.18526985
0
0.19452899
0
0.20352203
9.4600438e-15
0.21241565
0
0.22136715
8.8305849e-15
0.23069679
0
0.24059052
-4.340057e-19
0.25118596
-7.9590824e-15
0.26251085
-1.5372493e-14
0.27500906
0
0.29030096
0
0.30932455
0.027507049
0
0.025002414
-8.4787182e-05
0.021867534
-0.00014996989
0.018926775
-0.00019238558
0.016210427
-0.00020546172
0.012931628
-0.00018315348
0.0093531856
-0.0001361327
0.0061820737
-8.0118066e-05
0.0032922402
-2.3381555e-05
9.53834e-05
0.029589261
0.00019325808
0.031998702
0.00028784131
0.034466419
0.00036702869
0.036273349
0.00041864701
0.037740377
0.00043762194
0.039285951
0.00041585923
0.040594253
0.00034055634
0.041228598
0.00020341275
0.041264584
0
0.043570255
0
0.048535238
4.394981e-15
0.053931948
0
0.059492018
1.1203586e-18
0.065392008
-1.1127195e-18
0.071756345
0
0.078462539
9.3727321e-19
0.085477936
7.1387307e-15
0.092923675
0
0.10088883
-1.7891242e-18
0.10938995
0
0.1183525
6.2195143e-15
0.12772785
0
0.13753193
0
0.1476402
-5.6098988e-15
0.15778799
-1.1218017e-18
0.16776156
0
0.17742424
-1.0122822e-14
0.18675285
0
0.19573126
0
0.20449681
0
0.21323329
-8.8236503e-15
0.2221118
-8.5246758e-15
0.23143703
4.8315925e-19
0.24133208
-7.9544213e-15
0.2517865
-2.6072053e-19
0.26291888
-1.4836727e-14
0.27527498
0
0.29047215
0
0.3094541
0.029672763
0
0.027537624
-9.1318434e-05
0.02499579
-0.00016545088
0.021841719
-0.00021439568
0.018893582
-0.00023788472
0.016179091
-0.0002302327
0.012909417
-0.00018813613
0.0093402364
-0.00012692771
0.0061968286
-6.501348e-05
0.0033265129
-1.4020836e-05
9.9261975e-05
0.032159696
0.00020176488
0.03472393
0.00029737267
0.036658013
0.00037426747
0.038278848
0.00042659368
0.040003454
0.00044660442
0.041511808
0.00042151606
0.042357392
0.00034205005
0.042657393
0.00020351016
0.042593867
0
0.045387982
0
0.050486945
0
0.055716795
4.0994192e-15
0.061271404
0
0.067290019
-3.8254123e-15
0.073643717
0
0.080285187
3.5689796e-15
0.087352398
0
0.094927437
0
0.10301542
0
0.11157068
0
0.12054816
6.0052549e-15
0.12998504
0
0.13983081
-1.121005e-14
0.14986476
-1.2371258e-18
0.15987331
0
0.16965558
-5.0561757e-15
0.17907418
0
0.18811244
0
0.19682099
-9.1244178e-15
0.2053665
-8.8160237e-15
0.21397373
0
0.22279582
-4.4717587e-19
0.23214042
0
0.24202465
7.6772339e-15
0.25234305
-7.4144036e-15
0.2632731
0
0.27548632
0
0.29060009
0
0.30953189
0.032245106
0
0.029705598
-9.559505e-05
0.027526581
-0.00017815974
0.024944908
-0.00023643958
0.02177832
-0.00026501577
0.018834569
-0.00026654388
0.016135638
-0.00023660559
0.012880721
-0.00017537397
0.0093231536
-0.00010266305
0.0062151731
-3.8844486e-05
0.0033644501
0
0.00010358773
0.03489351
0.00020837748
0.036943522
0.00030318971
0.038707943
0.00038127588
0.040597567
0.00043519193
0.042295438
0.00045246296
0.043347317
0.00042318591
0.043875414
0.00034222028
0.044112987
0.00020402189
0.044169857
4.3940708e-15
0.047224232
0
0.05216811
0
0.057392219
0
0.063077733
3.824525e-15
0.069088248
0
0.075365203
-3.5678289e-15
0.082061982
-3.4452977e-15
0.089259694
0
0.096936561
0
0.10507229
-6.2127874e-15
0.11366962
0
0.12273979
-5.7966387e-15
0.13225096
-5.6018277e-15
0.14207048
0
0.15200297
-1.1798866e-18
0.16185805
5.0518359e-15
0.17144705
4.8823001e-15
0.18061099
0
0.18936479
0
0.19779881
0
0.20614433
8.5098156e-15
0.214638
1.6443897e-14
0.22342581
-7.9427282e-15
0.23278273
0
0.24267438
7.4099347e-15
0.25284431
-7.155931e-15
0.263586
-2.1825797e-19
0.27566003
0
0.29068357
0
0.30956814
0.034975421
0
0.032271192
-9.9451011e-05
0.029687248
-0.00018650483
0.027462404
-0.00025457719
0.024850239
-0.00029216921
0.021676593
-0.00029678725
0.018749382
-0.00027384189
0.016078683
-0.00022065604
0.012843829
-0.00014176691
0.0093023669
-6.110435e-05
0.0062343996
0
0.003095889
0
0.00010694101
0.037128638
0.00021242008
0.039025452
0.00030880243
0.041066693
0.00038882119
0.042942679
0.00044074784
0.04419493
0.00045414673
0.044945594
0.00042340093
0.0454468
0.00034316282
0.045829954
0.00020478564
0.045752832
4.2446856e-15
0.048804308
0
0.053743034
0
0.059106939
-1.0886432e-18
0.064786729
3.6929766e-15
0.070710697
0
0.077044908
-9.466805e-19
0.083876704
0
0.09116128
0
0.098884408
0
0.10709024
-1.7087429e-18
0.11579565
0
0.12495516
0
0.13448272
5.4070562e-15
0.1442422
5.2241688e-15
0.15404902
5.0476723e-15
0.16374586
0
0.1731364
0
0.18204668
0
0.19050349
0
0.19867895
0
0.20683595
8.2145924e-15
0.21523694
7.936368e-15
0.2239825
7.6665989e-15
0.23337061
0
0.24325983
-3.279856e-19
0.25331
-6.9064645e-15
0.2638581
-1.3336776e-14
0.27579991
-1.2877408e-14
0.29073703
0.002821657
0.30673785
0.037212481
0
0.034990222
-0.00010371383
0.032237491
-0.00019399067
0.0296036
-0.00026649799
0.027346155
-0.00031460288
0.024711862
-0.00032710014
0.021537697
-0.00030466811
0.018636512
-0.0002552321
0.016006877
-0.00017844976
0.012797868
-8.4300312e-05
0.0092768513
-8.1349133e-15
0.0057527796
0
0.0033400152
0
0.00010900183
0.039229852
0.00021630165
0.041409716
0.0003148051
0.043451113
0.00039368812
0.044897519
0.00044230169
0.045863276
0.00045439687
0.046617905
0.0004246398
0.047290149
0.00034453442
0.047547511
0.00020478166
0.047081167
-4.0988919e-15
0.050285902
0
0.055365561
0
0.060728646
-9.6776543e-19
0.066313005
-3.5649533e-15
0.072293991
3.4440654e-15
0.078771242
-3.3255466e-15
0.085682171
8.9889907e-19
0.093007365
0
0.10081194
0
0.10914727
-5.7918383e-15
0.11796654
0
0.12715648
1.5442941e-18
0.13665431
5.2203503e-15
0.14632924
0
0.1560025
-1.0657754e-18
0.16553353
0
0.1747289
4.5503926e-15
0.18337646
0
0.19154274
0
0.19946433
0
0.20745286
0
0.21575822
0
0.22447662
0
0.23387955
-7.1470864e-15
0.24380354
-2.9276205e-19
0.25372323
-6.6651811e-15
0.26410573
-1.2874759e-14
0.27590997
0.0055069531
0.28807248
0.0025696647
0.30412327
0.039319119
0
0.037218675
-0.00010700326
0.034938353
-0.00020225762
0.032127254
-0.00027715025
0.029456066
-0.00032934449
0.027178275
-0.00035229688
0.024531175
-0.00033574428
0.021362702
-0.00028370162
0.018498211
-0.00020630928
0.015920048
-0.00010616707
0.012739404
0
0.0085979472
-8.1349149e-15
0.0061789516
0
0.003601155
8.6946692e-15
0.00011097115
0.041625695
0.00022043165
0.043819816
0.00031866771
0.045451619
0.0003950312
0.046624493
0.00044255713
0.047620616
0.00045577771
0.048568446
0.00042639214
0.049123792
0.00034447255
0.049005034
0.00020375779
0.048313601
0
0.051816039
0
0.056902513
0
0.062164559
-9.4840246e-19
0.067805122
9.7843419e-19
0.073935125
0
0.080488002
0
0.087433489
-3.1014076e-15
0.094847678
0
0.10280279
0
0.11127221
-1.7438036e-18
0.12012217
5.4001508e-15
0.12930176
5.2183114e-15
0.1387608
0
0.14833315
4.8693955e-15
0.15785662
-1.0102518e-18
0.16722602
-4.5466134e-15
0.17622272
4.3928603e-15
0.18460618
0
0.19248008
0
0.20016904
0
0.20798992
0