/*--------------------------------*- C++ -*----------------------------------*\
| =========                 |                                                 |
| \\      /  F ield         | OpenFOAM: The Open Source CFD Toolbox           |
|  \\    /   O peration     | Version:  v2012                                 |
|   \\  /    A nd           | Website:  www.openfoam.com                      |
|    \\/     M anipulation  |                                                 |
\*---------------------------------------------------------------------------*/
FoamFile
{
    version     2.0;
    format      ascii;
    class       volScalarField;
    location    "88.3616622644537131";
    object      p;
}
// * * * * * * * * * * * * * * * * * * * * * * * * * * * * * * * * * * * * * //

dimensions      [0 2 -2 0 0 0 0];


internalField   nonuniform List<scalar> 
9200
(
0.010577324
0.010767964
0.011965525
0.011029999
0.012494004
0.023876576
0.01198487
0.013250816
0.025254635
0.032711971
0.012737218
0.015078698
0.026441161
0.033993669
0.041440274
0.013484075
0.017181777
0.028731363
0.035259809
0.042690454
0.049097668
0.013653905
0.020104027
0.03124746
0.037647556
0.044060064
0.050281885
0.056121808
0.013513128
0.023836274
0.034420933
0.040311144
0.046450629
0.051651368
0.057220604
0.062495901
0.013037794
0.028308963
0.037956264
0.043577946
0.049122819
0.053939728
0.05857942
0.063513131
0.068276823
0.011846646
0.033087052
0.041748287
0.047194241
0.05228429
0.056518542
0.060731794
0.064821582
0.069301568
0.073584324
0.010059533
0.037934888
0.045608647
0.051081058
0.055691173
0.059496783
0.06318485
0.066826034
0.070487492
0.07451204
0.078470565
0.0080557889
0.042358691
0.049387288
0.055076624
0.059236557
0.062669966
0.065962529
0.069127067
0.072372782
0.075697308
0.079285169
0.082949168
0.0044013504
0.045465757
0.052914972
0.05904478
0.06278805
0.065926742
0.068883367
0.071722107
0.0745485
0.07743367
0.080457045
0.083669466
0.087063095
0.00018770262
0.049379134
0.05630381
0.062907685
0.066220331
0.069163979
0.071834541
0.07439482
0.076924732
0.079487059
0.082060449
0.084818764
0.08769778
0.090846825
-0.0031912672
0.054933568
0.060123435
0.066602992
0.069695453
0.072293838
0.074730356
0.077062688
0.079396396
0.081682984
0.084011904
0.086299782
0.088817819
0.09140095
0.094331454
-0.0060726316
0.060039482
0.063960579
0.070177409
0.072779713
0.075284427
0.077487999
0.07966021
0.08182019
0.083979388
0.086062225
0.088166806
0.09018744
0.092484513
0.094806893
0.097545925
-0.0085962986
0.064570107
0.067392012
0.073571344
0.075686979
0.078025128
0.080067619
0.082099291
0.084152216
0.086201567
0.08822189
0.090104572
0.091983595
0.093749331
0.095845272
0.097941877
0.10051758
-0.010728457
0.06869832
0.070332315
0.076636334
0.078335266
0.080504428
0.082417626
0.084348474
0.086303629
0.088314163
0.090292943
0.092170174
0.093838214
0.095482624
0.097005916
0.098923743
0.10083088
0.10327293
-0.012255212
0.072310851
0.072658187
0.079221076
0.080644856
0.082701481
0.084523958
0.086378777
0.08824739
0.090222225
0.09224352
0.09414862
0.095852089
0.09727604
0.098676673
0.099974259
0.10174228
0.10349843
0.1058375
-0.013040468
0.075359633
0.074279831
0.081227455
0.082554146
0.084596474
0.086385626
0.088195507
0.089962348
0.091894636
0.093967008
0.096009282
0.097799376
0.099274125
0.1004201
0.10157378
0.10267039
0.10432293
0.10596883
0.10823621
-0.013079828
0.077845003
0.075112402
0.082646392
0.084038776
0.086181032
0.08799679
0.089821546
0.091460127
0.093304253
0.095419276
0.097631718
0.099653145
0.10124739
0.10242612
0.10326525
0.10418053
0.10511079
0.10668825
0.10826626
0.11049297
-0.012482066
0.079763395
0.075102562
0.083410042
0.085124335
0.087541345
0.089379321
0.091302571
0.092769358
0.09445426
0.096555143
0.098953575
0.10128129
0.10317849
0.10446955
0.10528622
0.10580396
0.10650452
0.1073137
0.10886141
0.11041466
0.11263079
-0.01139286
0.081068541
0.074220435
0.083457619
0.08560014
0.088551299
0.090505016
0.092722397
0.093947203
0.095367349
0.097355757
0.099902706
0.10260433
0.10493068
0.10655064
0.10742322
0.10782724
0.10803
0.10855651
0.10929948
0.11086642
0.11243743
0.11467131
-0.0099876199
0.081693508
0.072463711
0.082728678
0.085411249
0.089069766
0.091204086
0.094116689
0.095056753
0.09609088
0.097821084
0.10042596
0.10352252
0.10641453
0.10853791
0.10970288
0.11005531
0.11002281
0.109942
0.11035154
0.11109099
0.11272768
0.11435725
0.11663474
-0.0084854109
0.081556056
0.06987237
0.081107533
0.084849685
0.088954043
0.092735726
0.095766199
0.096164396
0.096677582
0.097970145
0.10048215
0.10394635
0.10751112
0.11034425
0.11201009
0.1125486
0.11231107
0.11185279
0.11154556
0.11190954
0.11271318
0.11446981
0.11619558
0.11853946
-0.0068060746
0.08057681
0.066528191
0.07851133
0.083821479
0.088538164
0.094554558
0.096928771
0.097403014
0.097212382
0.097838444
0.10003993
0.10378705
0.10810423
0.11184559
0.11427316
0.11521828
0.11499457
0.11414299
0.11330727
0.11285453
0.11325516
0.11419274
0.1161169
0.1179725
0.12040195
-0.0048891227
0.078864674
0.062591976
0.074825566
0.082188425
0.087897735
0.095254894
0.098274181
0.098730105
0.097750864
0.097482578
0.099084089
0.1029526
0.10806442
0.1129135
0.1163788
0.11802054
0.11801847
0.11695459
0.11551735
0.11438901
0.11389118
0.11441718
0.11555714
0.11769222
0.11970622
0.12223656
-0.0026843534
0.076536415
0.058074576
0.069918363
0.079896956
0.086566381
0.095499528
0.10041121
0.10026602
0.098385316
0.096954756
0.09760822
0.10135856
0.10725574
0.11339808
0.11820386
0.12086649
0.12137601
0.12027145
0.11836003
0.11641869
0.11511423
0.11468548
0.1154274
0.11683402
0.11921749
0.12141299
0.12405563
-0.00024400741
0.073727635
0.052990661
0.063610891
0.07687098
0.084468206
0.095507247
0.1026342
0.10216671
0.099166288
0.09632048
0.095615373
0.09891095
0.1055372
0.11314842
0.1196053
0.12365593
0.12501362
0.12413
0.12185958
0.1191673
0.11685165
0.115512
0.11527366
0.11631937
0.11805013
0.12071262
0.12310685
0.12586935
0.0023356994
0.07059088
0.047367588
0.056148628
0.073018107
0.081523301
0.095054404
0.10504046
0.1043613
0.10010337
0.095635026
0.093119237
0.095511484
0.10274471
0.11197774
0.12042484
0.12626893
0.12886632
0.12851915
0.12609845
0.12269844
0.11936156
0.11684087
0.11562253
0.11569648
0.11712711
0.11923072
0.12219515
0.12479955
0.12768522
0.0051905007
0.067128842
0.041486425
0.04787296
0.068064858
0.077654709
0.093862726
0.10763997
0.10679205
0.10119712
0.09493107
0.090136003
0.091048787
0.098700802
0.10969542
0.12047509
0.12855577
0.132844
0.13341567
0.13111165
0.12713999
0.12274284
0.1189572
0.11642888
0.11549468
0.11599715
0.11788373
0.12039875
0.12368016
0.12650047
0.12950906
0.0082809014
0.063078869
0.035317308
0.039120592
0.061502523
0.072487785
0.091641086
0.11032834
0.10938407
0.10238153
0.0942055
0.086683757
0.085391832
0.093198242
0.10608497
0.1195557
0.13036368
0.13683137
0.13876663
0.13692117
0.13257377
0.1271656
0.12198893
0.11799594
0.11567309
0.11518318
0.1162194
0.11862043
0.12157444
0.12518005
0.12821678
0.13134697
0.011346499
0.058401019
0.028752237
0.029748862
0.053689596
0.065792479
0.088309676
0.11310352
0.11196219
0.10354774
0.093414109
0.082769547
0.078383057
0.085984992
0.1008961
0.11744178
0.131498
0.14069743
0.14449268
0.14351548
0.13906857
0.13275615
0.12614216
0.12047226
0.11654298
0.11464185
0.11474565
0.11640566
0.11936545
0.12277503
0.12670471
0.12995378
0.13320117
0.014075054
0.05368816
0.021172449
0.020219953
0.044552827
0.0580043
0.08425262
0.1156553
0.114329
0.10452829
0.092434072
0.078392871
0.069839701
0.076750282
0.093842474
0.11385599
0.13175569
0.14427761
0.15048387
0.15084852
0.14665551
0.13962913
0.13158264
0.12409127
0.11826372
0.11468201
0.1134103
0.11423983
0.11659549
0.12014362
0.12401457
0.12826142
0.13171485
0.13506501
0.015775635
0.048556188
0.013622219
0.0086419385
0.034369219
0.048992022
0.079893846
0.11797465
0.11601925
0.10510291
0.09112246
0.073485335
0.059560673
0.065108054
0.084608709
0.10850031
0.13087734
0.14739217
0.15659856
0.1588346
0.15532391
0.14785933
0.13846753
0.12905016
0.121085
0.11546305
0.1125095
0.11205622
0.11372104
0.1168245
0.12097574
0.12530395
0.12985499
0.13350098
0.13694231
0.016820747
0.042710485
0.0072142634
-0.0039285774
0.021100312
0.038603847
0.075188054
0.11834365
0.1165548
0.10491005
0.089292506
0.068027595
0.047347157
0.050545551
0.072814996
0.10101234
0.12860184
0.14981566
0.16266469
0.16734228
0.16501165
0.15747336
0.14691428
0.13554244
0.12522494
0.11723846
0.11219167
0.11012874
0.11065614
0.11324024
0.11712334
0.12187854
0.12665099
0.13148829
0.1353122
0.13885963
0.017967865
0.03711668
0.0018795938
-0.017289106
0.0070379389
0.025402709
0.067375078
0.11741756
0.1146841
0.10355793
0.086703821
0.061748118
0.033038964
0.03241181
0.057997901
0.090895581
0.12453349
0.15132592
0.1684652
0.17619471
0.17559669
0.16843687
0.15698936
0.1437246
0.13090353
0.12023434
0.11270083
0.10858438
0.10764414
0.1092821
0.11284236
0.11751733
0.12286463
0.12806069
0.13316271
0.13714891
0.14079074
0.019231704
0.033112638
-0.003308267
-0.03070377
-0.0079357168
0.011876964
0.056182978
0.11372345
0.11127424
0.10015044
0.083218814
0.054652388
0.016216778
0.0097705274
0.039626694
0.077639012
0.11820085
0.15158538
0.1737721
0.18515902
0.18689339
0.18064283
0.16869208
0.1537032
0.13830951
0.12468459
0.11425652
0.10764457
0.10478151
0.10515629
0.10799905
0.11256538
0.11802619
0.12394271
0.12953556
0.13487735
0.13900901
0.1426282
0.021240588
0.031371637
-0.0086573884
-0.043102824
-0.023501771
-0.0017700203
0.042323696
0.10767057
0.10361414
0.095245487
0.07833118
0.046334239
-0.0021941946
-0.017169668
0.017082068
0.060678877
0.10916692
0.15026119
0.17825357
0.19396612
0.19864342
0.19390296
0.18193927
0.16551653
0.1475864
0.13079855
0.11709099
0.10750715
0.10225481
0.10092125
0.10275765
0.10686296
0.11243972
0.11866425
0.12511785
0.13107582
0.13662911
0.14088656
0.14442694
0.024132462
0.031111597
-0.01426266
-0.054380321
-0.039454596
-0.014903632
0.025938844
0.097463152
0.093827639
0.086141324
0.072380778
0.036756639
-0.022901525
-0.048658982
-0.010210197
0.039474254
0.096668777
0.14702442
0.18164103
0.20225718
0.21052778
0.20794061
0.19655413
0.17911525
0.15881223
0.13874812
0.1214188
0.10838531
0.10022557
0.096718485
0.097133466
0.10052957
0.10591978
0.11248832
0.11944072
0.12639188
0.13267957
0.13841523
0.14277824
0.14630917
0.030746382
0.026656198
-0.019119373
-0.06468891
-0.055053096
-0.026776603
0.0072585867
0.083670783
0.078479872
0.075732307
0.063921987
0.025575211
-0.044156816
-0.084955728
-0.042645717
0.015487789
0.079907221
0.14136221
0.18352829
0.20970051
0.22214604
0.22239965
0.21225817
0.19434964
0.17197942
0.14864727
0.12742574
0.1104795
0.098869983
0.092660364
0.091215086
0.093534413
0.098540101
0.10520514
0.11272696
0.12036017
0.12776373
0.13434328
0.14023385
0.1446829
0.14824011
-0.02290529
0.029637387
0.028210486
-0.07386318
-0.069253662
-0.03763789
-0.013047442
0.065874769
0.05804754
0.059437971
0.055708279
0.015568948
-0.067679025
-0.12244234
-0.078874616
-0.013938443
0.059603683
0.13277543
0.18353582
0.21583805
0.23309558
0.23683785
0.22867792
0.21095896
0.18697866
0.16053133
0.13525013
0.11397006
0.098353547
0.088869289
0.085055711
0.085908518
0.090223306
0.096843316
0.10474459
0.11316474
0.12142288
0.12922992
0.13606252
0.14208171
0.14659681
0.15018385
-0.081099727
-0.025325071
0.028276285
0.028371623
-0.081486146
-0.047840993
-0.0333876
0.04376248
0.032373465
0.036531929
0.042976078
0.0074885055
-0.086197814
-0.16171147
-0.11945598
-0.046329057
0.036286485
0.12142505
0.18120101
0.22027688
0.24282478
0.25077982
0.24534523
0.22857604
0.20358574
0.17433935
0.14496406
0.11900008
0.098826592
0.085454674
0.078710093
0.077639451
0.080941129
0.08728031
0.09547915
0.1045541
0.11380452
0.12262555
0.13078535
0.13783243
0.14395396
0.14851618
0.15214033
-0.091049479
-0.085304808
-0.02619642
0.027142913
0.027096312
-0.056813169
-0.052023519
0.017699941
0.00083577553
0.0075547103
0.024388383
-0.0022162776
-0.10430643
-0.19438273
-0.1671172
-0.083962193
0.0082319089
0.10740451
0.17628178
0.22251694
0.25096082
0.26364467
0.2617363
0.24672911
0.22146329
0.18989874
0.15655338
0.12566136
0.10041126
0.082511431
0.072213054
0.068704719
0.07061309
0.076429951
0.084766021
0.094473909
0.10464069
0.11464385
0.12396249
0.13242417
0.13964743
0.14584462
0.15043889
0.15410246
-0.064037553
-0.097303849
-0.086315494
-0.025138582
0.025336261
0.024547546
-0.068046029
-0.011214003
-0.035676844
-0.026645956
0.00098496267
-0.014950783
-0.12087393
-0.23312547
-0.21541191
-0.12885305
-0.024435445
0.090194867
0.16870685
0.22220488
0.25685311
0.27496542
0.27725076
0.26487736
0.24015956
0.20692136
0.169904
0.13397573
0.10319312
0.08010924
0.065578989
0.059050432
0.05913515
0.064145273
0.072465032
0.082721693
0.093840929
0.10500353
0.11567665
0.1254269
0.13413949
0.14150002
0.14774621
0.15235841
0.15606633
-0.080614025
-0.069022711
-0.10015578
-0.084152116
-0.021808474
0.022036068
0.020966667
-0.041632172
-0.075400208
-0.065158368
-0.027063708
-0.03132912
-0.13725586
-0.26953755
-0.27646707
-0.17677926
-0.058952647
0.069783264
0.15822978
0.21898697
0.26024756
0.28406968
0.2913527
0.28240611
0.25914208
0.22499908
0.18479152
0.14388265
0.1072028
0.078291722
0.05879286
0.048589975
0.046357038
0.050241845
0.058367802
0.069109192
0.081170091
0.093582282
0.10563649
0.11689501
0.12701031
0.13592139
0.14338108
0.14965239
0.15426296
0.1580047
-0.071763633
-0.088209342
-0.071649618
-0.099308956
-0.078458874
-0.01572651
0.016415399
0.017742523
-0.11762771
-0.10688683
-0.060079426
-0.050905205
-0.15484079
-0.30619953
-0.33704926
-0.24015541
-0.09696007
0.048355856
0.14602994
0.2128027
0.26050951
0.29076869
0.30337483
0.2987347
0.27779271
0.2436326
0.20087221
0.15522317
0.1124141
0.077059328
0.051814853
0.037193928
0.032077941
0.03447283
0.042215889
0.053374478
0.066398843
0.080117755
0.093692113
0.10653052
0.11828845
0.12869957
0.13775634
0.1452838
0.15156294
0.15615711
0.15990463
-0.16099434
-0.10063959
-0.088980452
-0.071617333
-0.094702459
-0.069375223
-0.0066185676
0.0093505351
0.015618883
-0.15062187
-0.096522231
-0.072494109
-0.1744423
-0.34414649
-0.39990835
-0.30720423
-0.14844191
0.017069694
0.13360274
0.20484767
0.25793207
0.2941695
0.31303432
0.31319054
0.29550871
0.26221903
0.21770469
0.16773272
0.11871903
0.076382163
0.044565001
0.024698315
0.016033076
0.016519943
0.023673246
0.035195547
0.049221466
0.064347163
0.079559633
0.094160167
0.1076727
0.1198397
0.13047655
0.13963437
0.1472083
0.15347907
0.15803512
0.16176386
-0.195117
-0.20353042
-0.12698259
-0.081469042
-0.069309422
-0.086664444
-0.057303744
0.0039874441
0.0018894059
0.014250294
-0.13362165
-0.09486121
-0.19623272
-0.37816855
-0.4612749
-0.37855046
-0.20471744
-0.025040204
0.10918566
0.1968592
0.25248725
0.29510638
0.31947923
0.32539664
0.31159184
0.28015663
0.23472898
0.1810488
0.12593198
0.076164438
0.036954752
0.010887815
-0.0021009156
-0.004026188
0.0023112469
0.014160888
0.029265521
0.045931465
0.062950202
0.079483838
0.094970427
0.10904052
0.12152437
0.1323286
0.14156061
0.14915803
0.15538852
0.15988222
0.16358358
-0.16882239
-0.2379976
-0.24144957
-0.15096161
-0.066971884
-0.064311898
-0.075037226
-0.042900235
0.01523504
-0.006413008
0.013000964
-0.11637247
-0.21845451
-0.40405354
-0.51741028
-0.44964945
-0.26387164
-0.072991984
0.078416984
0.17629031
0.24708178
0.29149163
0.32331831
0.33453849
0.32561103
0.29671753
0.25137171
0.19468673
0.13377739
0.076277474
0.028832968
-0.0044550921
-0.022722283
-0.027667692
-0.022418409
-0.010251507
0.0060623745
0.024462058
0.043501925
0.062193397
0.079869913
0.096093657
0.11060155
0.12332576
0.1342633
0.1435454
0.15111613
0.15725981
0.16168875
0.16537267
-0.13702971
-0.20106205
-0.2750293
-0.27251188
-0.17088354
-0.049501603
-0.054771334
-0.059605238
-0.02657894
0.028132851
-0.015780928
0.01164386
-0.23913568
-0.42073459
-0.56363532
-0.51637779
-0.32344286
-0.12502032
0.041921454
0.15192631
0.22944868
0.28826053
0.32219958
0.34106569
0.33668832
0.31144438
0.26689474
0.20813597
0.14187439
0.076512203
0.020076973
-0.0216228
-0.046250857
-0.055018414
-0.051196117
-0.038708605
-0.020979121
-0.00056611721
0.020784091
0.041914148
0.062050205
0.080679572
0.097487233
0.11233383
0.12525566
0.13629555
0.14556096
0.15302677
0.15907467
0.16348214
0.16722105
-0.25222796
-0.15808692
-0.22697707
-0.30332505
-0.29480681
-0.1846426
-0.033269204
-0.039435295
-0.040733738
-0.0082363691
0.042297317
-0.024812647
0.01014493
-0.42633734
-0.59532095
-0.57345391
-0.38111413
-0.18099609
0.0020496084
0.12208751
0.20841185
0.27391362
0.32107464
0.34284317
0.34526658
0.32335386
0.28083888
0.22068755
0.14980992
0.076605108
0.010478583
-0.040818366
-0.073216758
-0.086764782
-0.084859613
-0.072045949
-0.052612037
-0.029785278
-0.0057241355
0.018205761
0.04113207
0.062470672
0.081857795
0.099122567
0.11425447
0.12733576
0.1383886
0.147516
0.15485811
0.16089135
0.16540148
0.16913671
-0.41924018
-0.25192951
-0.17700327
-0.24275323
-0.32094454
-0.3072476
-0.19159683
-0.020346742
-0.019387827
-0.020148736
0.010704804
0.05758571
-0.033023545
0.0085240115
-0.60825174
-0.61472589
-0.43386939
-0.23490422
-0.040965525
0.089034525
0.18161157
0.25577952
0.30875918
0.34459529
0.34892652
0.33292811
0.29211633
0.23191892
0.15695915
0.076256858
-0.00012584583
-0.062377843
-0.10402318
-0.12375294
-0.12439628
-0.11130508
-0.089784638
-0.063994402
-0.03666816
-0.0094499303
0.016676105
0.041088848
0.06338115
0.083368161
0.10102369
0.11639378
0.12951484
0.14040515
0.14936136
0.15672642
0.16291431
0.16738525
0.17108346
-0.5997192
-0.3977558
-0.24040243
-0.18998453
-0.24634502
-0.3272919
-0.30985072
-0.19257563
-0.011247487
0.0028960731
0.00060866749
0.031439278
0.071028362
-0.041004599
0.0074973047
-0.63481418
-0.47652195
-0.28003693
-0.084838404
0.052259715
0.15146513
0.23057661
0.29620541
0.33395831
0.35293993
0.33733519
0.30128142
0.24066205
0.16298933
0.074988297
-0.011960734
-0.086426121
-0.13930675
-0.16673107
-0.17101215
-0.15776021
-0.13369167
-0.10419952
-0.072850385
-0.04168658
-0.011818261
0.016103761
0.041688628
0.064730894
0.085239618
0.10323169
0.11867674
0.13159863
0.14227383
0.15128467
0.15896585
0.16494538
0.16942057
0.17305775
-0.63013508
-0.56766539
-0.36498751
-0.22045156
-0.19586744
-0.24106561
-0.32323642
-0.30350683
-0.18879243
-0.0045223509
0.02480729
0.021821168
0.049791335
0.085377518
-0.048635096
0.0076864451
-0.50283145
-0.31283878
-0.12716137
0.01274448
0.11684062
0.20174781
0.27276598
0.32495473
0.34354385
0.34264996
0.30505844
0.24758417
0.16670779
0.072603294
-0.025304155
-0.11325969
-0.17927616
-0.21680734
-0.22593781
-0.21297499
-0.18583015
-0.15167474
-0.11527617
-0.079271256
-0.04495272
-0.012956343
0.016361228
0.042865284
0.066558931
0.087521502
0.10563275
0.12084239
0.13348777
0.14428002
0.15378784
0.16115007
0.16704987
0.17149526
0.17504395
-0.5078219
-0.5996398
-0.51570948
-0.32132497
-0.19277235
-0.19000299
-0.23132311
-0.31016961
-0.28947634
-0.17987317
0.0023096041
0.044990307
0.040812195
0.069414456
0.10118361
-0.053406262
0.0093520495
-0.33253784
-0.16523378
-0.028521504
0.078242198
0.16743337
0.24479899
0.30569466
0.34098513
0.33419694
0.31035711
0.24896277
0.16895502
0.067991456
-0.040223843
-0.14293127
-0.22458849
-0.27447582
-0.29086536
-0.27873211
-0.2480596
-0.20803522
-0.16521381
-0.12315428
-0.083428851
-0.046647078
-0.013036263
0.017359915
0.044662866
0.068933074
0.090069218
0.10789184
0.12275704
0.13558795
0.14716237
0.15614259
0.16343343
0.16919609
0.17361012
0.17704266
-0.34001671
-0.49181035
-0.54748037
-0.44820712
-0.26828786
-0.15818944
-0.16911184
-0.21667441
-0.28931845
-0.26931129
-0.16525687
0.011646434
0.062964509
0.061026089
0.089606473
0.11652375
-0.052045299
0.012331347
-0.19723192
-0.070054503
0.035846167
0.12799661
0.21045901
0.27924458
0.32662669
0.33857626
0.30238181
0.25256554
0.16558573
0.062219406
-0.057560352
-0.1755375
-0.27510558
-0.34113101
-0.3668722
-0.35732262
-0.3226594
-0.27531893
-0.22427497
-0.17451629
-0.12809736
-0.085584452
-0.047005566
-0.01218044
0.0191509
0.047160414
0.071669628
0.092445355
0.10983308
0.12497793
0.13894302
0.1497808
0.15863415
0.1657545
0.17139142
0.17576192
0.17909637
-0.22237243
-0.33511368
-0.45883718
-0.47942899
-0.37225572
-0.21008969
-0.11877846
-0.13820217
-0.19570426
-0.262676
-0.24256575
-0.14906046
0.025006954
0.079586233
0.080843177
0.10894668
0.12885625
-0.043249526
0.01569255
-0.11037552
-0.0095442005
0.083199131
0.16929931
0.24579678
0.30193825
0.3305985
0.3138
0.2444954
0.16525281
0.050845236
-0.076087894
-0.21138883
-0.33137528
-0.41656089
-0.45641594
-0.45075727
-0.41244184
-0.35611577
-0.29451575
-0.23484896
-0.17998566
-0.1304911
-0.086066212
-0.046201843
-0.01033594
0.021827656
0.050125171
0.074196794
0.09442408
0.11219873
0.12894407
0.14188838
0.15258086
0.16115721
0.1681299
0.17363088
0.17794919
0.18122263
-0.14853334
-0.2412276
-0.32198969
-0.41378993
-0.40480251
-0.29540757
-0.15109628
-0.076077286
-0.10529647
-0.16895147
-0.23059582
-0.21684566
-0.12803503
0.039646385
0.094070425
0.099411028
0.12587943
0.1371354
-0.025729803
0.017410561
-0.057023284
0.033137276
0.12100364
0.20329178
0.26969142
0.30862757
0.31287063
0.26304967
0.15631329
0.043350464
-0.10013906
-0.24948518
-0.39293499
-0.5024788
-0.55951682
-0.56265862
-0.52053609
-0.45359625
-0.37858179
-0.30605396
-0.24036883
-0.18220009
-0.13080529
-0.085124155
-0.044192282
-0.0073956045
0.025093493
0.05283745
0.076227906
0.096972826
0.11692718
0.13232075
0.14507448
0.15539754
0.16374219
0.17055146
0.17591232
0.18016963
0.18338858
-0.10590174
-0.18443858
-0.25383977
-0.30546008
-0.36307907
-0.33092545
-0.22260214
-0.095033323
-0.032191688
-0.072637785
-0.1382013
-0.20169357
-0.1847593
-0.10780733
0.054178085
0.10581167
0.11550573
0.13892963
0.13967635
-0.0017245941
0.018335421
-0.021940909
0.065028565
0.15108122
0.22671775
0.27740275
0.29485743
0.26926807
0.182167
0.032332621
-0.11987829
-0.29315119
-0.45990294
-0.5974879
-0.67994318
-0.69395383
-0.65150424
-0.57181059
-0.47975841
-0.39058555
-0.31084249
-0.24169867
-0.18184291
-0.12940361
-0.082739562
-0.040851535
-0.0037335859
0.028048701
0.054939388
0.079003798
0.10265514
0.12084609
0.13601015
0.148256
0.15828067
0.1663766
0.17301686
0.1782312
0.18242041
0.18557832
-0.081909646
-0.15591137
-0.21654451
-0.26055199
-0.28760428
-0.31033569
-0.2622186
-0.15650554
-0.045219484
0.010100052
-0.038898255
-0.11224955
-0.16807485
-0.15159035
-0.087181556
0.064760973
0.1144428
0.12789305
0.14709612
0.13674339
0.020626145
0.020666484
0.00088351698
0.088018806
0.17090844
0.23453798
0.26492297
0.25603311
0.19562933
0.065444198
-0.13502113
-0.33372851
-0.53328937
-0.70423062
-0.81534586
-0.85124954
-0.80813737
-0.71581139
-0.60245147
-0.49153526
-0.39347721
-0.31017687
-0.23984407
-0.17945387
-0.1263112
-0.078800657
-0.036651942
-0.00045791659
0.030253151
0.057996047
0.085860396
0.10725887
0.12516764
0.13966207
0.15150878
0.16121258
0.16905844
0.17551984
0.18058336
0.18469989
0.1877935
-0.072340312
-0.14713658
-0.20601427
-0.24501654
-0.2633963
-0.26964963
-0.26078366
-0.20190527
-0.10071113
-0.0023961422
0.043341307
-0.0069297737
-0.087149391
-0.13314937
-0.11711845
-0.064377865
0.071071143
0.12035896
0.13586
0.1497912
0.13068537
0.036085927
0.022293864
0.012679981
0.10038465
0.17594277
0.22214614
0.22827648
0.18749947
0.086468912
-0.095486028
-0.35671033
-0.60822032
-0.81990889
-0.97266707
-1.0317332
-0.99991566
-0.89083857
-0.75179653
-0.61300191
-0.49088372
-0.38920384
-0.30554144
-0.23563858
-0.17514162
-0.12145634
-0.073874565
-0.032942302
0.0018961249
0.033656526
0.066285216
0.091312036
0.11237398
0.12940575
0.1433871
0.15480807
0.16419252
0.17177948
0.17805522
0.1829673
0.18700795
0.19002959
-0.077089048
-0.15641483
-0.21714411
-0.25703221
-0.27155056
-0.26754862
-0.25292983
-0.21939157
-0.15151626
-0.055893241
0.029629623
0.07283544
0.01588727
-0.061060019
-0.096618732
-0.081701246
-0.037298216
0.075877384
0.12323015
0.13913484
0.14728278
0.1224692
0.044354729
0.022744993
0.012385716
0.098565098
0.16159757
0.18584149
0.16268782
0.083931582
-0.066663528
-0.31364494
-0.64643243
-0.94583993
-1.1432115
-1.2486662
-1.2249381
-1.1078341
-0.93498215
-0.75989313
-0.60639059
-0.48070245
-0.37999287
-0.29816031
-0.2292984
-0.16888692
-0.1155199
-0.069582225
-0.03036808
0.0057252644
0.043670866
0.072776257
0.097406826
0.11734124
0.1337163
0.14715188
0.15815504
0.16721015
0.17453313
0.18062332
0.18538386
0.18933848
0.19228464
-0.096699132
-0.18507579
-0.25196967
-0.29296483
-0.31003208
-0.29881252
-0.27359067
-0.2378122
-0.18671762
-0.11476435
-0.026316464
0.061073479
0.088267548
0.03697393
-0.036558021
-0.058363783
-0.049092385
-0.010705999
0.079132867
0.1235854
0.13757615
0.14035872
0.11240607
0.046877963
0.022373739
-0.0018068711
0.078937964
0.12377665
0.12150848
0.06243766
-0.062521896
-0.27770527
-0.60794627
-1.0133115
-1.3369469
-1.4851394
-1.504321
-1.367832
-1.1620775
-0.93977454
-0.74438025
-0.58690615
-0.46433659
-0.36763347
-0.28870859
-0.22096423
-0.16153807
-0.11042781
-0.066693013
-0.026021248
0.017786664
0.051418084
0.08006815
0.10326717
0.12237536
0.13805481
0.15096077
0.16153704
0.17025809
0.17732127
0.1832306
0.18781916
0.19168949
0.1945566
-0.12943456
-0.23315636
-0.31389257
-0.36215114
-0.37607115
-0.36448068
-0.32739928
-0.28056988
-0.2268906
-0.16573744
-0.090513194
0.0050777763
0.080324673
0.10212401
0.055209282
-0.015545132
-0.025829636
-0.022520942
0.012748539
0.081228372
0.11680403
0.13207735
0.12992365
0.10091461
0.045735141
0.021164141
-0.030983923
0.037194014
0.058862803
0.023136809
-0.080056691
-0.26527574
-0.56903894
-0.9971357
-1.4568393
-1.7664408
-1.8130124
-1.6989902
-1.4388964
-1.1607843
-0.91108643
-0.71191373
-0.55900772
-0.44412746
-0.35326615
-0.27733734
-0.21165318
-0.15534821
-0.10708836
-0.061725765
-0.011573514
0.02703055
0.060153024
0.087011137
0.10918327
0.12741813
0.14243027
0.15479886
0.16494571
0.17334168
0.18015548
0.18585506
0.19027122
0.19405675
0.19684378
-0.17436262
-0.29418642
-0.40249064
-0.46972009
-0.49027881
-0.46838922
-0.4211135
-0.35656569
-0.29008689
-0.22430681
-0.15407639
-0.06305306
0.028091033
0.097122213
0.11300867
0.069133165
0.0053099698
-0.0031581495
-0.00037228761
0.030235461
0.081868934
0.11225666
0.12345907
0.11729453
0.088968189
0.04217378
0.019249276
-0.079312748
-0.030305744
-0.038828738
-0.11728694
-0.27746917
-0.54766165
-0.96763537
-1.4944543
-1.9743804
-2.2026125
-2.0713418
-1.7954482
-1.4337574
-1.1118336
-0.86078434
-0.66750574
-0.52775362
-0.42242068
-0.33740826
-0.26530467
-0.20396338
-0.15137665
-0.10139111
-0.044552665
-0.00057274815
0.037480862
0.068391454
0.093991287
0.11507969
0.13248532
0.14682558
0.15865727
0.16838985
0.17648059
0.18300265
0.18849774
0.19273475
0.1964376
0.1991439
-0.23207116
-0.36109117
-0.50352497
-0.61440875
-0.65785848
-0.63914305
-0.57123848
-0.48069142
-0.38875065
-0.30726238
-0.2288836
-0.13565727
-0.04044397
0.048773657
0.10849127
0.11882695
0.078716588
0.025176908
0.012838881
0.016664155
0.042276862
0.081420208
0.10577203
0.11291494
0.10392152
0.077256554
0.037329508
0.016906625
-0.15068429
-0.12867167
-0.17801111
-0.3121055
-0.55294033
-0.94281936
-1.5001246
-2.1245729
-2.5466762
-2.5683458
-2.2009909
-1.7812717
-1.3630874
-1.0266732
-0.79068925
-0.61924257
-0.49554865
-0.40014572
-0.32157496
-0.25557363
-0.19912083
-0.14484185
-0.081188928
-0.031526762
0.011884313
0.047248538
0.076639457
0.10091198
0.12098165
0.13755799
0.15123181
0.1625494
0.17189888
0.17962817
0.18586542
0.1911508
0.19520834
0.19882915
0.20145285
-0.30713645
-0.43102092
-0.59950723
-0.76976805
-0.87705227
-0.88217862
-0.81183706
-0.68699239
-0.54812503
-0.43131517
-0.33154228
-0.22149232
-0.11836838
-0.020062336
0.063207528
0.11452462
0.1200071
0.083941174
0.03892957
0.025324892
0.029160833
0.050161554
0.079870379
0.098044354
0.10157702
0.09075522
0.06613381
0.032106496
0.014417216
-0.25032674
-0.26695395
-0.37118704
-0.58396492
-0.94402543
-1.4919355
-2.2197685
-2.9161152
-3.0891932
-2.7663341
-2.1767023
-1.6725351
-1.2419003
-0.9303889
-0.71862283
-0.57176401
-0.46419967
-0.37907452
-0.30907352
-0.24955303
-0.19165864
-0.12139012
-0.065882327
-0.016764996
0.023430353
0.05698758
0.084774723
0.10781117
0.12686882
0.142628
0.15566813
0.1665165
0.17541061
0.18279038
0.18873405
0.19381376
0.1976908
0.20122518
0.20376577
-0.40637731
-0.50820788
-0.68205719
-0.90256563
-1.1022109
-1.1970484
-1.1478534
-1.0131527
-0.82034297
-0.63222694
-0.48334822
-0.33600948
-0.21232459
-0.10167936
-0.0042883239
0.072678163
0.11553922
0.11701818
0.084568348
0.047657385
0.034396729
0.037914082
0.054786339
0.075947662
0.089769392
0.09015859
0.078257691
0.055886926
0.026999207
0.012019006
-0.38717106
-0.45824795
-0.64027462
-0.97282689
-1.5071373
-2.2798616
-3.2188846
-3.8015432
-3.4583195
-2.7520058
-2.0186773
-1.4911482
-1.0963735
-0.82750973
-0.65005903
-0.5276993
-0.43590006
-0.36283665
-0.3014921
-0.24111631
-0.16489316
-0.10358743
-0.048534035
-0.0031863834
0.034898086
0.066545016
0.092852271
0.11466795
0.13273502
0.14772147
0.16018999
0.17047867
0.17893452
0.18595476
0.19161049
0.19648739
0.20017324
0.20361548
0.20608285
-0.53910801
-0.60206928
-0.75602193
-0.99614687
-1.2777696
-1.5061408
-1.5777693
-1.463605
-1.23936
-0.97835417
-0.73207571
-0.50672028
-0.33668217
-0.20120549
-0.087778461
0.00725721
0.07685047
0.11203123
0.11003524
0.081571078
0.051986514
0.040376694
0.043656877
0.056713264
0.072269131
0.081230712
0.079078982
0.066697674
0.04667068
0.022299604
0.0098478644
-0.57500476
-0.72360822
-1.0254437
-1.5476814
-2.3592414
-3.4747091
-4.4944385
-4.5430044
-3.5377296
-2.5450295
-1.7851284
-1.2833477
-0.94688606
-0.73019132
-0.58872397
-0.48955202
-0.41459058
-0.35321455
-0.29210579
-0.21123211
-0.14445027
-0.083418934
-0.032680286
0.010252613
0.046098394
0.0759982
0.10085156
0.12147973
0.13861467
0.15291055
0.16469755
0.17445004
0.18245534
0.18912595
0.19449933
0.19915945
0.20263458
0.20599593
0.20841314
-0.7194998
-0.72408499
-0.83533223
-1.0574609
-1.3765782
-1.726352
-1.9760284
-2.0174657
-1.8201254
-1.4847039
-1.1639068
-0.79578436
-0.52188643
-0.33209106
-0.19089407
-0.076408692
0.01418187
0.076086862
0.10399881