/*--------------------------------*- C++ -*----------------------------------*\
| =========                 |                                                 |
| \\      /  F ield         | OpenFOAM: The Open Source CFD Toolbox           |
|  \\    /   O peration     | Version:  v2012                                 |
|   \\  /    A nd           | Website:  www.openfoam.com                      |
|    \\/     M anipulation  |                                                 |
\*---------------------------------------------------------------------------*/
FoamFile
{
    version     2.0;
    format      ascii;
    class       surfaceScalarField;
    location    "88.3616622644537131";
    object      phi;
}
// * * * * * * * * * * * * * * * * * * * * * * * * * * * * * * * * * * * * * //

dimensions      [0 3 -1 0 0 0 0];
oriented        oriented;


internalField   nonuniform List<scalar> 
18180
(
-0.031939912
-3.4679451
-0.062673265
-3.234871
-0.022016788
-3.4667156
-0.09168407
-3.0126672
-0.04235026
-3.2336545
-0.017350662
-3.4686885
-0.11917571
-2.7995358
-0.060398203
-3.0120461
-0.033101151
-3.2355671
-0.012601001
-3.4738515
-0.14438582
-2.5966475
-0.075798301
-2.7999245
-0.04668105
-3.0145003
-0.023666475
-3.2410126
-0.0089311878
-3.4817102
-0.16658226
-2.4040259
-0.087918311
-2.5992386
-0.057821885
-2.8037559
-0.032836734
-3.0207533
-0.016521095
-3.2491368
-0.0059613255
-3.4914572
-0.18419796
-2.2224851
-0.096108569
-2.4100128
-0.06603308
-2.6054106
-0.039664743
-2.8115284
-0.022479006
-3.0296114
-0.010781903
-3.2591763
-0.0036131228
-3.5027959
-0.19546712
-2.0519675
-0.099842253
-2.2325439
-0.070820517
-2.4191714
-0.043800536
-2.6152578
-0.026390147
-2.8215712
-0.014243989
-3.0401487
-0.0063069616
-3.2705621
-0.0017513028
-3.5150341
-0.19880474
-1.892343
-0.098733192
-2.0665107
-0.071701073
-2.245145
-0.044926627
-2.4314312
-0.028018032
-2.6267131
-0.015969178
-2.8329073
-0.0078867306
-3.0518017
-0.0028058549
-3.2826948
-0.00027529826
-3.5279649
-0.19287041
-1.7436386
-0.092265414
-1.9117495
-0.068209633
-2.0827976
-0.042828879
-2.2598042
-0.027170118
-2.444401
-0.01580161
-2.6388241
-0.0080373206
-2.8449625
-0.0029545366
-3.0640643
-6.7374144e-05
-3.2953108
0.00087136859
-3.5411513
-0.17672687
-1.6061709
-0.080065019
-1.7680273
-0.060168517
-1.9316216
-0.037441473
-2.0996361
-0.023775582
-2.274146
-0.013640282
-2.4572181
-0.0066568998
-2.6512465
-0.0019515976
-2.8575498
0.00088345465
-3.0767223
0.0020916052
-3.3081661
0.0017489522
-3.5545442
-0.15045566
-1.4801069
-0.06215018
-1.6354055
-0.047721702
-1.7913442
-0.028862863
-1.950593
-0.017877466
-2.1154119
-0.0095110551
-2.28792
-0.0037018524
-2.4702597
0.00027081693
-2.6642155
0.0027304443
-2.8704219
0.0038681648
-3.0895263
0.0037987115
-3.3211757
0.0024670734
-3.5678418
-0.11518251
-1.3653702
-0.038622873
-1.5141162
-0.031291678
-1.6619111
-0.017332876
-1.8124802
-0.0096534697
-1.9679519
-0.0035352597
-2.1303828
0.00075871883
-2.3017798
0.0037206489
-2.4837312
0.0055394098
-2.6774225
0.0063621933
-2.8833841
0.0062238418
-3.1023161
0.0051494088
-3.3340737
0.0030464624
-3.5810716
-0.071934184
-1.2616124
-0.010298184
-1.4033936
-0.011753314
-1.5430397
-0.0032228223
-1.6850357
0.000596491
-1.8313385
0.0040627996
-1.984067
0.0065798511
-2.1451157
0.008311855
-2.3158573
0.0092972404
-2.4972849
0.0095900127
-2.6905388
0.0092058728
-2.896198
0.0080901029
-3.1149448
0.0062179937
-3.3468131
0.0034980471
-3.5940294
-0.022625945
-1.1683081
0.02138666
-1.302268
0.010252905
-1.434159
0.012988343
-1.5677729
0.012461729
-1.7050931
0.012973824
-1.848406
0.013527166
-1.999581
0.013900916
-2.159776
0.013919168
-2.3297087
0.013543992
-2.5105332
0.012741558
-2.7034097
0.011449225
-2.9087894
0.0095680442
-3.1273608
0.0070557366
-3.3593157
0.0038404384
-3.606764
0.03021438
-1.0845636
0.055044499
-1.2102609
0.034445868
-1.3346372
0.03082087
-1.4600683
0.025488883
-1.5886196
0.022825805
-1.7227788
0.021320431
-1.8644253
0.020288176
-2.0146186
0.019281666
-2.1738482
0.018145113
-2.342962
0.016819674
-2.5233643
0.015217689
-2.7159821
0.013224154
-2.921108
0.01072833
-3.1395581
0.007697856
-3.3715664
0.0040900765
-3.6190958
0.08451597
-1.0090971
0.08976672
-1.1269514
0.060347051
-1.2437914
0.04976692
-1.3612436
0.039235295
-1.4812717
0.033218077
-1.6065111
0.029630987
-1.7389449
0.027232937
-1.8795447
0.025223865
-2.0286979
0.023294148
-2.1869537
0.021371241
-2.3556293
0.019377493
-2.5359069
0.017174951
-2.728283
0.014621623
-2.9332001
0.011620471
-3.1514963
0.0081694321
-3.3834734
0.0042582567
-3.6310703
0.1384108
-0.94095948
0.12489938
-1.0513092
0.087130452
-1.1608493
0.069310824
-1.2706022
0.053274813
-1.3823802
0.043739543
-1.4989434
0.038107908
-1.6224726
0.03447394
-1.7538863
0.031568855
-1.8934915
0.028874337
-2.0417216
0.026316845
-2.1995266
0.02386508
-2.368079
0.021393646
-2.5481824
0.01872089
-2.7403315
0.015703317
-2.9450246
0.012279459
-3.1631385
0.0084896478
-3.3950168
0.0043541933
-3.6425612
0.19046731
-0.87926636
0.15977306
-0.98236756
0.11417509
-1.0849857
0.088992499
-1.1874266
0.067197838
-1.2912673
0.053984699
-1.3994133
0.046393859
-1.5143484
0.041736986
-1.6370105
0.03813234
-1.7676206
0.03476917
-1.9064782
0.031573633
-2.0542491
0.028611185
-2.2118558
0.025815827
-2.3802618
0.022990519
-2.5601912
0.019927767
-2.7521074
0.016511173
-2.9565887
0.012731168
-3.1744449
0.0086745406
-3.4061551
0.0043864386
-3.6536035
0.23966298
-0.8230672
0.193749
-0.91927159
0.14106022
-1.0154338
0.10848606
-1.1110244
0.0806591
-1.2072831
0.06358116
-1.307281
0.054138737
-1.4139183
0.048743506
-1.5282451
0.044733082
-1.6503923
0.040872932
-1.7804798
0.037072686
-1.918955
0.033551724
-2.0664832
0.030371745
-2.2238545
0.027359928
-2.3921108
0.024250861
-2.5719051
0.020843314
-2.7636378
0.017074758
-2.9678631
0.01299655
-3.1854132
0.0087387619
-3.4168476
0.0043631643
-3.664087
0.28538559
-0.77148314
0.22639602
-0.86127629
0.16749726
-0.95146924
0.12758058
-1.0407421
0.093382713
-1.129807
0.072192888
-1.2219387
0.061008746
-1.3205584
0.055219475
-1.4269277
0.051196949
-1.5411253
0.047098192
-1.6630554
0.042769645
-1.7928932
0.038644005
-1.9310827
0.03499887
-2.0782248
0.031750203
-2.2354104
0.028593419
-2.4036585
0.025228432
-2.5833841
0.021499084
-2.774918
0.017416706
-2.9788552
0.013094258
-3.1959672
0.0086966032
-3.4270461
0.0042921862
-3.6740452
0.32727673
-0.72386539
0.25751503
-0.80773373
0.19331427
-0.89246227
0.14618485
-0.97597324
0.10516867
-1.0582629
0.079519551
-1.1428074
0.066686938
-1.2336791
0.060895913
-1.3324335
0.057360356
-1.4391581
0.05338029
-1.5535295
0.048652248
-1.6753584
0.043877629
-1.8048553
0.039656847
-1.9425272
0.036086201
-2.0893389
0.032862779
-2.2465725
0.029579634
-2.4149521
0.025956226
-2.5946228
0.02191689
-2.7859435
0.017556358
-2.9894861
0.013042377
-3.2060847
0.0085620478
-3.4367144
0.0041809728
-3.6834119
0.3651918
-0.67966551
0.28700211
-0.75808895
0.21843833
-0.83786302
0.16429718
-0.91617564
0.11591706
-0.99214667
0.085314662
-1.0693705
0.070891905
-1.1527391
0.065510881
-1.2441768
0.063065243
-1.3438649
0.059676958
-1.4512515
0.054744408
-1.5657143
0.049283082
-1.6871196
0.04433861
-1.8159261
0.040310045
-1.9530814
0.036963256
-2.0999455
0.033790788
-2.2575123
0.030355255
-2.4260278
0.026453333
-2.6056242
0.022113458
-2.7966553
0.017512202
-2.9997279
0.012858644
-3.2157002
0.0083487255
-3.445849
0.0040364806
-3.6922202
0.39916488
-0.6384295
0.31483865
-0.71187772
0.24286384
-0.78718291
0.181975
-0.86085634
0.12558824
-0.93097698
0.089441843
-1.0012371
0.073401437
-1.0772818
0.068829689
-1.1616416
0.068165442
-1.2546731
0.06596632
-1.3556238
0.0611052
-1.46338
0.054935869
-1.5773365
0.049079047
-1.6978406
0.044391093
-1.8259785
0.040807296
-1.9631018
0.037744385
-2.1103648
0.034580772
-2.268266
0.030936366
-2.4368877
0.026730502
-2.6163445
0.022103865
-2.8070122
0.017302525
-3.0095196
0.012560586
-3.224822
0.0080694966
-3.4544149
0.0038651086
-3.7004265
0.42924462
-0.59978532
0.3410766
-0.66871476
0.26662444
-0.73999576
0.19934588
-0.80959515
0.13418408
-0.87430169
0.091813353
-0.93797652
0.073856807
-1.0067798
0.070588314
-1.0843404
0.072511192
-1.1710642
0.072247521
-1.2660984
0.067827616
-1.367802
0.060957444
-1.4750199
0.053960049
-1.5878267
0.048333931
-1.707428
0.044323935
-1.8353625
0.041320718
-1.9728812
0.038498282
-2.1206475
0.035248198
-2.2788493
0.031324915
-2.4475069
0.026794926
-2.626757
0.021902869
-2.8169756
0.016945723
-3.0188463
0.012164989
-3.2333866
0.0077363631
-3.4624182
0.0036726096
-3.7080664
0.45552862
-0.56342308
0.36576669
-0.62822392
0.28977262
-0.69593399
0.21658239
-0.76200949
0.14175578
-0.82174939
0.092312309
-0.87910951
0.071965124
-0.94086875
0.070553532
-1.0117754
0.075934367
-1.0925337
0.078520757
-1.1821608
0.075029916
-1.2784599
0.067512025
-1.3796629
0.059113785
-1.4854407
0.052183899
-1.597007
0.047465687
-1.7162092
0.044404643
-1.8445007
0.041961758
-1.9825824
0.039246006
-2.1307964
0.035784334
-2.2892373
0.0315153
-2.4578734
0.026652756
-2.6368288
0.021525827
-2.8265078
0.016459943
-3.0276549
0.011687844
-3.2414138
0.007360217
-3.4698417
0.0034641175
-3.7151275
0.47824318
-0.52914004
0.3889853
-0.59011843
0.3124241
-0.65468194
0.23388521
-0.71775827
0.14838894
-0.77297078
0.090850695
-0.8242955
0.067646662
-0.87928355
0.068502709
-0.94359193
0.078405061
-1.0187231
0.084823141
-1.1033453
0.082849163
-1.1948559
0.074799689
-1.2907746
0.064718198
-1.3902449
0.056030333
-1.4943734
0.050212679
-1.6052515
0.046890472
-1.7246795
0.044818435
-1.8534963
0.04276808
-1.9921158
0.039967642
-2.1407841
0.036165468
-2.2994374
0.031498916
-2.4679661
0.026311179
-2.6465301
0.020988688
-2.8355757
0.015863002
-3.035944
0.01114398
-3.2488721
0.0069509222
-3.4767222
0.0032441914
-3.7216464
0.4976725
-0.4967804
0.41087156
-0.55425523
0.33469907
-0.61595495
0.25145882
-0.67652966
0.15418699
-0.72764169
0.087398147
-0.77324375
0.060812148
-0.82167462
0.064237677
-0.87954843
0.07984917
-0.94923485
0.091151209
-1.0292554
0.091441047
-1.116542
0.083051755
-1.2078804
0.070998502
-1.3017734
0.06000406
-1.3990771
0.052573759
-1.5020682
0.048685634
-1.6129241
0.046913252
-1.7328018
0.04563827
-1.8621942
0.043710504
-2.0014624
0.040615697
-2.1506451
0.036360727
-2.3094492
0.031268193
-2.4777725
0.025779153
-2.6558292
0.020308158
-2.8441522
0.015172097
-3.0436959
0.010547161
-3.2558004
0.0065173706
-3.4830485
0.0030168036
-3.7276228
0.51410509
-0.46619736
0.43153388
-0.52044636
0.35656124
-0.57945279
0.26939188
-0.63792315
0.15924158
-0.68543828
0.081952385
-0.72565949
0.051372313
-0.76775208
0.057589539
-0.81932279
0.080066411
-0.88370175
0.097514144
-0.95950831
0.10093617
-1.0430957
0.092511654
-1.1305361
0.078218038
-1.2195706
0.064281649
-1.3106805
0.054591183
-1.4062292
0.049709727
-1.508796
0.048091649
-1.6199728
0.047669283
-1.740432
0.046828977
-1.8706471
0.044711203
-2.0107712
0.041127883
-2.160436
0.036339391
-2.319285
0.03081879
-2.4872659
0.025068179
-2.6646991
0.019501491
-2.852234
0.01440377
-3.0509194
0.0099101451
-3.2621754
0.0060674877
-3.4888571
0.0027854014
-3.7330906
0.52790246
-0.43737452
0.45100787
-0.4884713
0.37782257
-0.54483366
0.28727126
-0.60113741
0.16357106
-0.64588668
0.074499435
-0.68120655
0.039265723
-0.71724879
0.048405271
-0.76263938
0.078921306
-0.82186656
0.10393829
-0.89375473
0.11146446
-0.97413299
0.10342704
-1.0583208
0.086668791
-1.1432174
0.069075119
-1.2287603
0.056333464
-1.3173246
0.049905008
-1.4118757
0.048201014
-1.5145291
0.048665723
-1.6262982
0.049123202
-1.7477267
0.048275108
-1.8791153
0.045665153
-2.0201354
0.041439616
-2.1701863
0.036075535
-2.3289256
0.030151468
-2.4964186
0.024192335
-2.6731261
0.01858646
-2.8598012
0.013574073
-3.0576047
0.0092446221
-3.2680354
0.0056083276
-3.4941501
0.0025529324
-3.7380658
0.53420724
-0.47920522
0.46932165
-0.45830291
0.39833022
-0.51191022
0.30456181
-0.56570792
0.16704747
-0.60803744
0.06491148
-0.63929569
0.024453516
-0.66985033
0.036559686
-0.70925749
0.076316374
-0.76349136
0.11042855
-0.83171715
0.12316117
-0.90931025
0.11604154
-0.99084459
0.096664862
-1.0723123
0.074631829
-1.1529287
0.057893558
-1.23496
0.049212844
-1.3217616
0.04709124
-1.4160413
0.048428783
-1.5192809
0.050381437
-1.6321746
0.051112757
-1.7550952
0.04981506
-1.8878333
0.046460712
-2.029649
0.041492812
-2.1798932
0.0355518
-2.3383427
0.029272666
-2.5052057
0.023168346
-2.6810836
0.017581491
-2.8668542
0.012698232
-3.0637658
0.0085613293
-3.2733815
0.0051461245
-3.4989778
0.0023219041
-3.7425847
0.53971002
-0.48176962
0.4824633
-0.49520409
0.41794959
-0.48067363
0.32096133
-0.53167907
0.1691922
-0.57107536
0.052769047
-0.59868361
0.0067807652
-0.62485222
0.021985458
-0.65892081
0.072179588
-0.70836132
0.11699095
-0.77316001
0.13613148
-0.84831954
0.13057717
-0.92774198
0.10853166
-1.0064779
0.081228075
-1.0828195
0.059386416
-1.1587954
0.047594174
-1.2381358
0.044611237
-1.3241804
0.046751259
-1.419013
0.050384604
-1.5236121
0.053016146
-1.6383203
0.053401766
-1.7629783
0.051273268
-1.8969398
0.046994083
-2.0393147
0.041242344
-2.189529
0.03476092
-2.3475007
0.028194821
-2.513596
0.022015643
-2.6885597
0.016505062
-2.8733812
0.0117908
-3.0694149
0.0078700327
-3.2782575
0.0046863068
-3.5033535
0.0020944993
-3.7466687
0.54411644
-0.4838566
0.49655271
-0.49871657
0.43373392
-0.51398431
0.33623133
-0.49910531
0.16964303
-0.53516183
0.037573859
-0.55847699
-0.014322104
-0.58059751
0.0047463115
-0.61105628
0.066507413
-0.65628844
0.12363094
-0.71786895
0.15044409
-0.7908885
0.14722463
-0.86867282
0.12258824
-0.945343
0.089164946
-1.0180846
0.06094366
-1.088494
0.045012096
-1.160695
0.040613807
-1.238691
0.043433149
-1.3252264
0.048910087
-1.4216677
0.053769696
-1.5284011
0.05623583
-1.6452074
0.055729942
-1.7715112
0.052483583
-1.9064449
0.047180169
-2.0491121
0.040659228
-2.1990506
0.033706516
-2.3563621
0.026936348
-2.5215618
0.020755431
-2.6955336
0.01537571
-2.8794006
0.010865378
-3.0745698
0.0071794673
-3.2826782
0.0042335824
-3.5073226
0.0018725967
-3.7503441
0.54685224
-0.48530818
0.51135593
-0.50151805
0.45085888
-0.51885895
0.34928669
-0.53044815
0.16881448
-0.50112465
0.019562509
-0.51957269
-0.03903601
-0.53658125
-0.014692835
-0.56440907
0.059574774
-0.60697596
0.13038507
-0.66568759
0.16613837
-0.73677345
0.16612669
-0.81331641
0.1391362
-0.88855208
0.098759025
-0.95837146
0.062708104
-1.0237228
0.041433633
-1.0891118
0.03494768
-1.1592658
0.038268558
-1.237627
0.045740127
-1.3259989
0.053157618
-1.4249351
0.05812061
-1.5341647
0.05967008
-1.6530001
0.057848862
-1.7806995
0.053305835
-1.9163168
0.046957861
-2.0589692
0.039732108
-2.2084013
0.032403018
-2.3648784
0.025520273
-2.5290688
0.019410394
-2.7020094
0.014211447
-2.8849068
0.0099345007
-3.0792502
0.00649735
-3.2866845
0.0037919669
-3.5108946
0.001657841
-3.7536358
0.54744717
-0.48648565
0.52661339
-0.50342607
0.46912176
-0.52282036
0.363492
-0.53649572
0.16673376
-0.53141829
-0.00047923646
-0.48334418
-0.066569643
-0.49467101
-0.03570462
-0.51863496
0.052386046
-0.55989681
0.13747423
-0.61650468
0.18325464
-0.68581943
0.18739712
-0.76139802
0.15845
-0.83575764
0.11034223
-0.90334223
0.064824023
-0.96413131
0.036821211
-1.0230465
0.027459908
-1.0855697
0.031055105
-1.155898
0.040663268
-1.2363135
0.050972168
-1.3275678
0.058860018
-1.4294188
0.062924849
-1.5410654
0.062963984
-1.6617188
0.059545099
-1.7905345
0.053634165
-1.9264694
0.046292971
-2.0688175
0.038467309
-2.2175117
0.030873785
-2.372997
0.023973474
-2.5361021
0.018003677
-2.707972
0.013029419
-2.8899208
0.0090094564
-3.0834794
0.0058303471
-3.2902928
0.003364921
-3.5141128
0.0014519294
-3.7565628
0.54669077
-0.48757736
0.5417717
-0.50450785
0.48855672
-0.52592219
0.37838942
-0.54116997
0.16393239
-0.53677522
-0.02377769
-0.51051671
-0.096265634
-0.45610877
-0.057968733
-0.47529298
0.046001153
-0.51476152
0.14555812
-0.57023053
0.20185396
-0.63793531
0.21110734
-0.71271874
0.18077718
-0.78665801
0.12428029
-0.85268396
0.067444556
-0.90938986
0.031128445
-0.96213686
0.017988114
-1.0172505
0.02159351
-1.0797061
0.033482246
-1.152299
0.047021998
-1.2359785
0.058267881
-1.3305767
0.065324493
-1.4352863
0.067693456
-1.5491622
0.065810365
-1.6713665
0.060652965
-1.8009187
0.053401358
-1.9368174
0.045178006
-2.0785598
0.036886226
-2.226306
0.029149684
-2.3806793
0.022325041
-2.5426363
0.016558134
-2.7134301
0.011845475
-2.8944489
0.0081002268
-3.0872855
0.0051840879
-3.2935397
0.0029554191
-3.5169817
0.001256596
-3.759153
0.54532574
-0.48830943
0.55660967
-0.5052836
0.5088942
-0.52792757
0.39322579
-0.54422959
0.1598558
-0.54019923
-0.04888638
-0.51408806
-0.13236066
-0.477013
-0.081075837
-0.43571294
0.040510228
-0.47215929
0.15541463
-0.52669488
0.22207264
-0.59310542
0.23708416
-0.66694095
0.20610077
-0.74078898
0.14090325
-0.8060609
0.07075728
-0.85922037
0.02430821
-0.90604911
0.0063747347
-0.95394846
0.0096869759
-1.0087011
0.02401782
-1.0736339
0.041141239
-1.1498775
0.056177964
-1.237326
0.066707134
-1.3352363
0.071897645
-1.4426056
0.072003029
-1.5584983
0.067966583
-1.681907
0.061059997
-1.8117506
0.052578799
-1.9472312
0.043629064
-2.0880988
0.035023076
-2.2347199
0.027266593
-2.3878858
0.020604898
-2.5486646
0.015095521
-2.7183829
0.010673938
-2.8985242
0.0072153506
-3.0906919
0.0045631922
-3.2964374
0.0025657672
-3.5195391
0.0010727067
-3.761413
0.54391345
-0.48802569
0.57101346
-0.50558678
0.52922365
-0.52871544
0.40735969
-0.54554933
0.15422859
-0.54173074
-0.075729841
-0.51579814
-0.16972229
-0.47935386
-0.11420867
-0.44672325
0.035813926
-0.4332251
0.16711619
-0.48578263
0.243861
-0.55097218
0.26499128
-0.62388618
0.2335503
-0.6969602
0.15988106
-0.76234939
0.074760197
-0.81309568
0.01634938
-0.85453874
-0.0075255525
-0.89533974
-0.0048478209
-0.942538
0.012113895
-0.99999585
0.033197506
-1.0689916
0.052453912
-1.1494228
0.066927905
-1.2406427
0.075439368
-1.3417153
0.078016096
-1.451588
0.075515116
-1.569126
0.069260912
-1.6931931
0.06070744
-1.8228676
0.051172547
-1.9575809
0.041682335
-2.0973261
0.032921265
-2.2426894
0.02526313
-2.3945882
0.018842434
-2.5541732
0.013635959
-2.7228539
0.0095272995
-2.9021637
0.0063619547
-3.0937256
0.0039712904
-3.2990194
0.0021976049
-3.5217787
0.00090043243
-3.763371
0.54251839
-0.48673912
0.5852673
-0.50515904
0.54888979
-0.52837394
0.42035033
-0.54520879
0.14705932
-0.5415284
-0.10381146
-0.51611172
-0.20739245
-0.48079392
-0.14897074
-0.44748504
0.018852656
-0.43205525
0.1804683
-0.44836153
0.26693864
-0.51118766
0.29397005
-0.58267206
0.26220347
-0.65494223
0.17976054
-0.71923689
0.078480702
-0.76892124
0.0069153726
-0.80675067
-0.023879003
-0.84115678
-0.022225704
-0.88086302
-0.0023559491
-0.93107286
0.023101641
-0.99304628
0.046998227
-1.0666531
0.065868015
-1.1513172
0.078190781
-1.2462185
0.08373801
-1.3502795
0.083226632
-1.4622427
0.077983597
-1.580844
0.069593447
-1.7050318
0.059584934
-1.8340896
0.049218641
-1.9677143
0.039389336
-2.106155
0.030629955
-2.2501616
0.023178483
-2.400757
0.017065476
-2.5591739
0.012197366
-2.7268567
0.0084161736
-2.9053996
0.0055457492
-3.0964108
0.0034110566
-3.3012905
0.00185274
-3.5237372
0.00074173286
-3.7650351
-0.48405091
0.54113162
0.59947965
-0.50383752
0.56751274
-0.52691978
0.43179959
-0.54333871
0.13841739
-0.5397333
-0.132516
-0.51530701
-0.24465557
-0.48155167
-0.18479199
-0.44791056
0.00096008056
-0.43192071
0.18235668
-0.43578332
0.29097173
-0.47457234
0.32318103
-0.54296725
0.291043
-0.61375791
0.19945262
-0.67685701
0.081257103
-0.72469427
-0.0052125531
-0.7597067
-0.043004092
-0.79039242
-0.042632162
-0.82343902
-0.019489853
-0.86654176
0.010814603
-0.92178101
0.039762504
-0.98878993
0.063442399
-1.0670552
0.080041303
-1.1558867
0.089057712
-1.2542795
0.091018274
-1.3609116
0.087193356
-1.4743435
0.079255121
-1.59339
0.068929558
-1.7171779
0.05772493
-1.8452285
0.04677656
-1.9775128
0.036811645
-2.1145006
0.028200732
-2.2570879
0.021050642
-2.4063876
0.015299312
-2.5636706
0.010795254
-2.7304174
0.007349246
-2.9082623
0.0047711227
-3.0987759
0.0028843582
-3.3032813
0.0015329495
-3.5254042
0.00059855263
-3.7664389
-0.50133806
0.61387369
-0.4794142
0.53978101
0.58482779
-0.52430498
0.44123801
-0.53988412
0.12837937
-0.5364827
-0.1612498
-0.51350346
-0.28082695
-0.48187346
-0.22088893
-0.44843268
-0.018241851
-0.43106332
0.18597621
-0.43742213
0.30517687
-0.45222508
0.35201632
-0.50581989
0.31939739
-0.57342305
0.21863719
-0.63500346
0.082634196
-0.68075379
-0.020312437
-0.7123423
-0.065348058
-0.73993851
-0.066125184
-0.76938766
-0.039412813
-0.80614116
-0.0036595749
-0.85491578
0.03074978
-0.91561856
0.059607825
-0.98766342
0.08090287
-1.0705393
0.093869373
-1.163359
0.098798317
-1.2648098
0.096839533
-1.3733273
0.089696018
-1.4875682
0.079261123
-1.6064946
0.067292978
-1.7294066
0.055193848
-1.8561105
0.043922156
-1.9868558
0.034016281
-2.1222949
0.025684824
-2.263445
0.018914828
-2.4114743
0.01356622
-2.5676839
0.009442558
-2.7335754
0.0063333237
-2.9107906
0.0040412106
-3.1008437
0.0023923447
-3.3049842
0.0012382249
-3.5268129
0.00046923358
-3.7675916
-0.52055362
0.60087864
-0.49714933
0.62870843
-0.47336109
0.53933516
0.44829592
-0.53489648
0.1171983
-0.53189725
-0.18946202
-0.51079612
-0.3151372
-0.4819626
-0.25643408
-0.44934095
-0.038642329
-0.43041008
0.19023452
-0.43724335
0.32256515
-0.45710196
0.37387866
-0.47654561
0.34677054
-0.53515614
0.237316
-0.59401585
0.085018448
-0.6397541
-0.036808563
-0.66685043
-0.090788544
-0.68929962
-0.092036374
-0.7163277
-0.061887816
-0.74935616
-0.020278395
-0.79222837
0.020026612
-0.84692076
0.054363769
-0.91296617
0.080716254
-0.99000516
0.098076798
-1.0773189
0.10646807
-1.1736751
0.10685462
-1.2774767
0.10090122
-1.3871827
0.090621056
-1.5016122
0.078009717
-1.6198698
0.064754948
-1.7414827
0.052083321
-1.8665838
0.040741116
-1.9956431
0.031071384
-2.1294837
0.023130644
-2.2692132
0.016802567
-2.4160272
0.011885084
-2.5712399
0.008149634
-2.7363651
0.0053734406
-2.9130121
0.003358019
-3.1026325
0.0019354541
-3.3064276
0.00096711829
-3.5279607
0.00035145291
-3.7685248
-0.52862108
0.45282453
-0.51530522
0.61585985
-0.49222906
0.64466912
-0.46614549
0.54000167
0.10523993
-0.5261419
-0.21653121
-0.5073771
-0.34704946
-0.48168216
-0.29072051
-0.45071698
-0.059772383
-0.43060873
0.19420917
-0.43634221
0.34243563
-0.45945835
0.39828734
-0.48402147
0.37416269
-0.50591777
0.25530084
-0.55492188
0.088458251
-0.5996746
-0.052536597
-0.62647142
-0.11723711
-0.64263447
-0.11939161
-0.66407011
-0.085670222
-0.69481538
-0.038749845
-0.73345338
0.0077055519
-0.78251808
0.047763702
-0.84279631
0.079451885
-0.91413144
0.10159788
-0.99599928
0.11392612
-1.0873018
0.11715426
-1.1864882
0.11283388
-1.2918953
0.10303268
-1.4021503
0.089952185
-1.5161797
0.075572914
-1.6332414
0.061423157
-1.7532114
0.048500932
-1.8765007
0.037322936
-2.0037911
0.028042711
-2.1360344
0.020582219
-2.2743901
0.014740998
-2.4200578
0.010271316
-2.5743716
0.0069243604
-2.7388226
0.0044730225
-2.9149544
0.0027225379
-3.1041601
0.001513503
-3.3076156
0.00071845375
-3.5288853
0.00024392761
-3.7692492
-0.51944754
0.09285519
-0.52111549
0.45509196
-0.50961727
0.63006598
-0.48645213
0.66206227
-0.45901457
0.54130328
-0.24183905
-0.50340718
-0.37607853
-0.48117166
-0.32304713
-0.45241664
-0.081116563
-0.43178717
0.19717054
-0.43555842
0.36390775
-0.4602023
0.42486405
-0.48858668
0.40358375
-0.51545864
0.28349641
-0.53590249
0.091704901
-0.56024714
-0.067202973
-0.58731215
-0.14453773
-0.60125251
-0.14772458
-0.61626618
-0.10974309
-0.64210277
-0.057999517
-0.67800125
-0.0060186854
-0.72222679
0.039903321
-0.77701656
0.077116425
-0.84278725
0.10436636
-0.91927383
0.1210704
-1.0055413
0.12763927
-1.1001571
0.12543265
-1.2014467
0.11649525
-1.3078126
0.10318173
-1.4179425
0.087755494
-1.5309195
0.072073264
-1.6463409
0.057430093
-1.7643941
0.044562388
-1.8857505
0.033755619
-2.0112462
0.024990898
-2.1419288
0.018077963
-2.2789773
0.012752607
-2.4235943
0.0087368933
-2.5771138
0.0057723323
-2.7409741
0.0036340723
-2.9166406
0.0021349263
-3.1054489
0.0011258587
-3.3085812
0.00049127561
-3.529588
0.00014497661
-3.7697913
-0.4990407
-0.26484156
-0.51242682
0.080949507
-0.51342181
0.45535055
-0.50326211
0.64368942
-0.48015237
0.68028104
-0.45286636
0.54173253
-0.40160344
-0.48072553
-0.35296741
-0.45432363
-0.1018043
-0.43415531
0.19873997
-0.43537098
0.38583958
-0.45991286
0.45305454
-0.49097702
0.4346105
-0.52165757
0.31414875
-0.54794574
0.11142991
-0.55770757
-0.081501434
-0.54811002
-0.17166729
-0.56212911
-0.17665058
-0.57414481
-0.13458091
-0.59338188
-0.077097275
-0.6253116
-0.020543341
-0.66586364
0.030906137
-0.71547088
0.073742489
-0.77586231
0.10633614
-0.84703353
0.12780175
-0.92828627
0.13819646
-1.0183485
0.13861077
-1.1156001
0.13097882
-1.2182943
0.11773732
-1.3248497
0.10139965
-1.4341142
0.084165213
-1.545491
0.067670087
-1.6589157
0.052922636
-1.774879
0.040383771
-1.8942431
0.030121662
-2.0179743
0.021969601
-2.1471609
0.015650128
-2.2829971
0.010855177
-2.4266697
0.0072905955
-2.5794979
0.0046971102
-2.7428551
0.0028573745
-2.9180993
0.0015946447
-3.1065147
0.00077151437
-3.3093279
0.00028444122
-3.5301032
5.0361155e-05
-3.7701555
-0.48037445
-0.42312539
-0.49545388
-0.28443014
-0.50506925
0.069375863
-0.50531116
0.45385182
-0.49630201
0.65665119
-0.47349711
0.69798889
-0.44882164
0.53981728
-0.37987992
-0.45688808
-0.12100412
-0.43755847
0.19879309
-0.43624432
0.40713282
-0.45911242
0.48199086
-0.49145816
0.46640389
-0.52483977
0.34711662
-0.5565003
0.13230189
-0.57095242
-0.079679034
-0.56167467
-0.19817952
-0.5234159
-0.2051591
-0.53530708
-0.16024122
-0.55029649
-0.096605674
-0.57605521
-0.03510006
-0.61303386
0.020987309
-0.65806876
0.069388759
-0.71322653
0.10747497
-0.77918161
0.13402783
-0.85543472
0.14870313
-0.9409307
0.15225664
-1.0341583
0.14642217
-1.1333192
0.13362861
-1.2365944
0.11658456
-1.3425031
0.09782587
-1.4502362
0.079367378
-1.5595697
0.062546098
-1.6707607
0.048051675
-1.78454
0.036075903
-1.9019333
0.026494979
-2.0239564
0.019024352
-2.151743
0.013324566
-2.2864749
0.0090620499
-2.4293163
0.005938314
-2.5815561
0.0037004914
-2.7444916
0.0021426794
-2.9193398
0.0011005857
-3.107374
0.0004491826
-3.3098854
9.6771391e-05
-3.530444
-3.4908906e-05
-3.770368
-0.4604153
-0.40290953
-0.48152644
-0.43991367
-0.49144663
-0.30068385
-0.49755773
0.058399227
-0.49696176
0.45096291
-0.48905731
0.66902581
-0.46731881
0.71356158
-0.44730273
0.53565278
-0.13864014
-0.44169199
0.1979657
-0.4387835
0.42672418
-0.45830071
0.51063465
-0.49038235
0.49778726
-0.52493221
0.38103828
-0.56067074
0.15443604
-0.58081729
-0.076352193
-0.57647165
-0.2149129
-0.54672924
-0.23271026
-0.49743002
-0.18575994
-0.51146855
-0.11721685
-0.53174446
-0.049764896
-0.56356027
0.010555058
-0.60460961
0.064112118
-0.65479011
0.1077796
-0.71561633
0.13966319
-0.78689189
0.15903077
-0.86779238
0.16623733
-0.95697785
0.16272917
-1.0526592
0.15083109
-1.152855
0.1333639
-1.2557584
0.11317084
-1.360254
0.09266997
-1.4659296
0.073583975
-1.572895
0.056893945
-1.6817094
0.042963818
-1.7933075
0.031739319
-1.9087808
0.022939064
-2.029198
0.016192121
-2.1556958
0.011121027
-2.2894434
0.0073825128
-2.431564
0.0046834299
-2.5833186
0.0027827664
-2.7458987
0.0014888611
-2.920382
0.00065119686
-3.1080408
0.00015748216
-3.3102665
-7.1765993e-05
-3.5306419
-0.00010841388
-3.7704405
-0.44712712
-0.15437073
-0.46622533
-0.42127137
-0.48225188
-0.45196767
-0.48763582
-0.31324458
-0.49002301
0.048236596
-0.48887502
0.44723089
-0.48175528
0.68028365
-0.46281718
0.72615285
-0.44782002
0.5291094
0.19695906
-0.44274925
0.44382217
-0.45835563
0.53785994
-0.48816208
0.5275066
-0.52220997
0.41421881
-0.56005088
0.17679157
-0.58524818
-0.072539245
-0.58685757
-0.22996756
-0.56323792
-0.25924647
-0.5217234
-0.21021246
-0.47454098
-0.13832706
-0.49229513
-0.065351963
-0.5182183
-6.4587111e-05
-0.55483491
0.058034609
-0.60041859
0.10724204
-0.65624348
0.14463968
-0.72257249
0.1690494
-0.79883589
0.18040027
-0.88392649
0.17977305
-0.97612428
0.16927893
-1.0733455
0.15175816
-1.1735435
0.1302981
-1.2752017
0.1077225
-1.3776473
0.086194383
-1.4808491
0.067056204
-1.5852395
0.050904877
-1.6916524
0.037794311
-1.8011227
0.027461469
-1.9147862
0.019505941
-2.0337141
0.013501488
-2.159051
0.0090535837
-2.2919321
0.0058223043
-2.4334475
0.0035271526
-2.5848032
0.0019429464
-2.7470943
0.00089409754
-2.9212254
0.0002446426
-3.108536
-0.00010500333
-3.3104992
-0.00022537563
-3.5306961
-0.00017526804
-3.7703948
-0.44823912
0.19600073
-0.45525878
-0.16778118
-0.47273731
-0.43383353
-0.48323421
-0.4592198
-0.48396177
-0.32194348
-0.48285673
0.038995607
-0.48078771
0.44271207
-0.47478448
0.68908358
-0.45983606
0.7352492
-0.45021142
0.51931829
0.45851068
-0.4599142
0.56217654
-0.48531138
0.55429225
-0.51706967
0.44484989
-0.55480217
0.19819277
-0.58370412
-0.06873176
-0.59131227
-0.24447362
-0.57419561
-0.28495841
-0.53909342
-0.2402252
-0.49324346
-0.15857813
-0.45610764
-0.082029126
-0.47756967
-0.011294238
-0.5087735
0.051402664
-0.54998235
0.10586829
-0.60094286
0.14889629
-0.66238747
0.17863664
-0.73398238
0.19458179
-0.81489187
0.19739259
-0.90354979
0.1888702
-0.99784215
0.17174757
-1.0955156
0.14927809
-1.1947192
0.12466227
-1.2943986
0.10054026
-1.3942921
0.078694619
-1.494712
0.06002958
-1.5964495
0.044758526
-1.7005107
0.032662205
-1.8079734
0.023314702
-1.9199545
0.016236301
-2.0375386
0.010973199
-2.1618403
0.0071313421
-2.2939816
0.0043840665
-2.4349884
0.0024688599
-2.5860325
0.0011790304
-2.7480718
0.00035614429
-2.9218935
-0.00011995858
-3.1088753
-0.00033995261
-3.310596
-0.000362103
-3.5306372
-0.00023552155
-3.770237
-0.46308668
0.47088516
-0.45502798
0.19369754
-0.46620865
-0.17675378
-0.48005322
-0.44004672
-0.48431892
-0.46169677
-0.48041963
-0.32700739
-0.47568756
0.030675605
-0.47307936
0.43745371
-0.46848351
0.69458044
-0.45822388
0.74034684
-0.45484617
0.50566651
0.58205117
-0.48242447
0.57686212
-0.51001184
0.47104048
-0.54523912
0.21699596
-0.57587876
-0.065624102
-0.58909235
-0.25873377
-0.57891858
-0.31002715
-0.55072602
-0.26968785
-0.51122508
-0.18822955
-0.46537205
-0.098636541
-0.44133647
-0.023731451
-0.46681363
0.044216843
-0.5032631
0.10369395
-0.54961434
0.15239576
-0.60624056
0.18767648
-0.6731488
0.20861447
-0.74979186
0.2154065
-0.83481308