/*--------------------------------*- C++ -*----------------------------------*\
| =========                 |                                                 |
| \\      /  F ield         | OpenFOAM: The Open Source CFD Toolbox           |
|  \\    /   O peration     | Version:  v2012                                 |
|   \\  /    A nd           | Website:  www.openfoam.com                      |
|    \\/     M anipulation  |                                                 |
\*---------------------------------------------------------------------------*/
FoamFile
{
    version     2.0;
    format      ascii;
    class       volVectorField;
    location    "88.3616622644537131";
    object      U;
}
// * * * * * * * * * * * * * * * * * * * * * * * * * * * * * * * * * * * * * //

dimensions      [0 1 -1 0 0 0 0];


internalField   nonuniform List<vector> 
9200
(
(2.5946078 0.013048699 2.0635776e-21)
(2.588582 0.044286001 -4.2502608e-21)
(2.5607048 0.0093799467 -2.1432906e-21)
(2.5783348 0.070226732 5.3516757e-21)
(2.5539781 0.031504104 1.6572238e-22)
(2.5507517 0.0076055211 -2.8511527e-21)
(2.5625746 0.097170696 2.6708837e-21)
(2.5433039 0.048702958 1.1774273e-21)
(2.5445619 0.025655077 5.1848248e-22)
(2.5384272 0.0057414154 1.414452e-21)
(2.5416774 0.12129308 5.5108437e-22)
(2.5278218 0.065464776 2.8005525e-21)
(2.5355739 0.039196503 -2.2924744e-21)
(2.5326907 0.019196381 -1.5568184e-21)
(2.5309493 0.0042323851 -2.5763265e-21)
(2.5152468 0.14363472 -4.2284134e-21)
(2.50853 0.078531858 -2.8058629e-21)
(2.5217945 0.052079667 2.7631362e-21)
(2.5244125 0.028838313 6.0317087e-22)
(2.5258311 0.01402286 2.4080145e-21)
(2.5253685 0.0029522247 1.8261878e-21)
(2.483117 0.16262154 -1.3366485e-24)
(2.4853682 0.088665719 -3.2679759e-21)
(2.5048989 0.061568739 -3.8724064e-21)
(2.512061 0.037562043 -7.6865561e-21)
(2.5186459 0.020694483 -6.2069238e-22)
(2.520865 0.009624231 3.4407829e-21)
(2.5219178 0.0018697423 2.1164867e-21)
(2.4452957 0.17659696 1.5736515e-21)
(2.4592747 0.094516295 5.7121381e-22)
(2.4849263 0.068291449 5.044299e-21)
(2.4972856 0.04312276 7.1932408e-22)
(2.5079364 0.026322275 1.8010961e-21)
(2.5146035 0.013845477 4.6095078e-22)
(2.5180086 0.0059885437 2.354034e-21)
(2.5199695 0.00094057073 -1.3887602e-21)
(2.4022446 0.18396264 -3.2583191e-21)
(2.4310021 0.095957103 -1.6340178e-22)
(2.4626733 0.071271294 -3.0254173e-21)
(2.4802233 0.046020419 -4.2022485e-21)
(2.4953339 0.029234818 -1.1338687e-21)
(2.505341 0.016971692 6.9136016e-21)
(2.5126062 0.0082450606 1.5088057e-22)
(2.5165805 0.0029678165 -5.1396771e-21)
(2.5192799 0.00013971801 -2.6069501e-21)
(2.3549042 0.18334895 5.6343978e-22)
(2.4017657 0.092696625 -5.5686459e-21)
(2.4387462 0.070230248 -5.1843216e-21)
(2.4617951 0.045631877 -5.6956356e-21)
(2.481014 0.029775753 -4.4643155e-21)
(2.4945916 0.017837101 1.0530296e-21)
(2.5046621 0.0094086522 1.2736634e-21)
(2.5119388 0.0036238826 2.6702778e-22)
(2.5162985 0.00044520742 -2.0355302e-21)
(2.5195478 -0.00049042748 1.9892553e-22)
(2.3049706 0.17362978 1.3081694e-21)
(2.3729146 0.083896476 -1.8412569e-21)
(2.4140919 0.064638532 -2.2730303e-21)
(2.4427013 0.041889102 1.2254046e-21)
(2.4658288 0.0276013 6.0417269e-21)
(2.4825383 0.016629099 3.6641839e-21)
(2.4955407 0.0087543023 7.529555e-22)
(2.5051282 0.0032233617 -1.7387197e-21)
(2.5123549 -0.00021021451 3.7265927e-22)
(2.5169068 -0.001688668 2.2242023e-21)
(2.5205571 -0.00096211091 2.2845349e-21)
(2.254954 0.15388537 -1.4854559e-21)
(2.3458537 0.069442058 -1.8512531e-21)
(2.3896508 0.054563846 8.8036277e-22)
(2.4238245 0.034792329 3.4936376e-21)
(2.4503431 0.022723653 3.4404934e-21)
(2.4699522 0.013232856 1.7171506e-21)
(2.4854142 0.0063200139 -2.0456903e-21)
(2.4973792 0.0014032099 -2.721717e-21)
(2.5065065 -0.0018753602 -3.690898e-21)
(2.5135713 -0.0034241048 -8.2174548e-22)
(2.5182548 -0.0035155309 -5.2424074e-21)
(2.5221539 -0.001410494 8.0504545e-22)
(2.2079478 0.12571887 -1.7398678e-21)
(2.3217671 0.050125777 -5.3237602e-21)
(2.3664151 0.040259675 9.9208908e-22)
(2.4059509 0.024501595 2.2257821e-21)
(2.4352457 0.015257532 2.2193979e-21)
(2.4573262 0.0076971776 -8.8520081e-22)
(2.4749516 0.0021588029 -1.6533287e-21)
(2.4888319 -0.0019322218 2.0438941e-21)
(2.4999195 -0.0046068206 -2.9966864e-21)
(2.508546 -0.0061467412 -1.2544282e-21)
(2.5154062 -0.006154479 1.2746119e-22)
(2.520179 -0.0050885247 2.0753455e-21)
(2.5242347 -0.0018251368 -9.6539619e-22)
(2.1652181 0.089332388 -4.4198279e-21)
(2.3000759 0.025239518 2.8425047e-21)
(2.345478 0.022377283 -1.8993984e-21)
(2.3898353 0.011342119 -1.1270269e-21)
(2.4211247 0.005443882 7.1074663e-22)
(2.4452344 0.00024944267 3.9699457e-22)
(2.4645507 -0.0036879252 -6.2584351e-22)
(2.480064 -0.0066081197 8.9152921e-22)
(2.4926795 -0.0086256827 7.2333876e-22)
(2.5029276 -0.0096082051 1.1537112e-22)
(2.5110961 -0.0097785757 9.5003945e-23)
(2.5177316 -0.0085123113 -7.0383213e-22)
(2.5225412 -0.0064520923 4.5469996e-21)
(2.526698 -0.0021756696 -1.6369856e-21)
(2.1292053 0.045700681 -3.3566526e-21)
(2.2812499 -0.0045603001 -1.4606664e-21)
(2.3277508 0.0015913353 -2.018819e-21)
(2.3760033 -0.0042559012 -1.5251783e-21)
(2.40854 -0.0063323921 -1.5041306e-21)
(2.4341193 -0.0088462657 -2.340706e-21)
(2.4546424 -0.010946781 -1.6666377e-21)
(2.4713968 -0.012612415 3.9407323e-22)
(2.4852871 -0.013666669 -2.0763943e-21)
(2.4967684 -0.014172782 -8.4477793e-22)
(2.5062834 -0.013851462 2.0680114e-21)
(2.5140331 -0.012911536 -3.5625239e-21)
(2.5204484 -0.010566764 -2.2133095e-22)
(2.525249 -0.0076374873 1.462089e-22)
(2.5294548 -0.0024680105 1.8362501e-21)
(2.1017078 -0.0021865644 9.1661429e-21)
(2.2663783 -0.035695224 -1.3247611e-20)
(2.3135052 -0.021265521 1.5237313e-21)
(2.3646966 -0.02178904 3.4123451e-21)
(2.3979217 -0.019615084 -5.1361885e-23)
(2.4243549 -0.019200639 -1.5943228e-21)
(2.4455438 -0.019368566 -7.0850126e-22)
(2.4631574 -0.019657396 9.1870099e-22)
(2.478002 -0.019762572 -4.4599257e-22)
(2.4904963 -0.019493247 8.843097e-23)
(2.5010194 -0.018870453 5.3630665e-23)
(2.509896 -0.017518636 7.9828881e-22)
(2.5172728 -0.01564541 5.7837082e-22)
(2.5234744 -0.012361844 4.3741649e-21)
(2.5282293 -0.0086632352 -8.7071882e-22)
(2.5324307 -0.0027139576 7.6750706e-22)
(2.0817666 -0.052322284 3.5764277e-23)
(2.25595 -0.068738 0)
(2.3028277 -0.046287501 3.2737564e-21)
(2.3561963 -0.040784051 1.6169416e-21)
(2.3896101 -0.033915379 1.8753103e-21)
(2.4162101 -0.030400076 7.5859388e-22)
(2.4375 -0.028577172 -7.4517614e-22)
(2.4555667 -0.02753515 -1.0094827e-21)
(2.4710738 -0.02663733 0)
(2.4843324 -0.025652073 3.8106139e-22)
(2.4956658 -0.024421703 6.4665488e-22)
(2.5053713 -0.022934899 2.5168199e-22)
(2.5137071 -0.020735211 1.1749178e-21)
(2.5207531 -0.018046093 3.0728438e-21)
(2.5267426 -0.013925405 -2.5104336e-22)
(2.5314165 -0.0095401722 -8.0387295e-22)
(2.5355614 -0.0029177879 1.2369366e-22)
(2.0693377 -0.10286929 1.4401726e-21)
(2.2498217 -0.10251336 7.9257012e-21)
(2.2960994 -0.072615249 3.1106381e-22)
(2.3508637 -0.060663509 -4.7736589e-22)
(2.3838235 -0.048765536 6.7548735e-22)
(2.4098664 -0.041982918 4.7598966e-22)
(2.4306641 -0.03819453 9.5015552e-22)
(2.448761 -0.035924539 6.1166249e-22)
(2.4646529 -0.034139964 -1.573955e-21)
(2.4784785 -0.032394534 -2.8484618e-22)
(2.4904208 -0.030628363 4.4394594e-22)
(2.5007676 -0.028691728 -5.3461861e-22)
(2.509793 -0.026516843 -2.3535413e-22)
(2.5176767 -0.023583733 -1.1082391e-21)
(2.5244263 -0.02015364 -2.5804425e-22)
(2.530196 -0.015273471 -2.421028e-21)
(2.5347519 -0.010274837 3.7955213e-21)
(2.5387896 -0.0030812243 -5.8956572e-23)
(2.0640505 -0.15239972 1.2389864e-21)
(2.247594 -0.13634053 -7.7172793e-22)
(2.2930746 -0.099481331 2.855027e-21)
(2.3487264 -0.080895413 2.114816e-21)
(2.3806483 -0.063716425 -1.3977326e-21)
(2.4054265 -0.053497071 -2.2694516e-22)
(2.4251082 -0.047812382 3.3643937e-22)
(2.4427857 -0.044516752 2.3889997e-21)
(2.4588091 -0.042022473 3.8017407e-22)
(2.4730511 -0.039630823 -1.2177046e-21)
(2.4854627 -0.037255984 -1.1580367e-21)
(2.4962674 -0.034938386 -1.1649657e-21)
(2.5057938 -0.032473555 -2.7469267e-22)
(2.5142689 -0.029717711 7.8582048e-23)
(2.521778 -0.026114188 1.2013038e-23)
(2.5282527 -0.02198982 -9.0027818e-22)
(2.5337841 -0.016414501 -2.0052363e-21)
(2.5381822 -0.01087175 -2.73452e-22)
(2.5420644 -0.0032062616 1.3128576e-22)
(2.0648791 -0.19973075 -2.8123942e-21)
(2.2487249 -0.16957986 -1.00679e-20)
(2.2934294 -0.12637424 -2.5456221e-21)
(2.3497106 -0.1010837 -2.7124987e-21)
(2.3801435 -0.078351421 2.785994e-23)
(2.4029465 -0.064506159 0)
(2.4208294 -0.057031146 -1.5495299e-22)
(2.4376056 -0.052984728 -5.4987599e-22)
(2.453524 -0.050070936 6.2812003e-22)
(2.4680938 -0.047191749 1.9202566e-22)
(2.4809037 -0.044263933 4.6743787e-22)
(2.4920421 -0.041449136 9.4690444e-23)
(2.5018782 -0.038765114 -1.578636e-21)
(2.5107504 -0.035886961 9.8065564e-22)
(2.5187973 -0.032600623 1.0875459e-21)
(2.5259919 -0.028352936 -2.8916467e-22)
(2.532197 -0.0235648 9.2624519e-22)
(2.5374615 -0.017353475 7.409596e-23)
(2.5416597 -0.01133528 -2.6850001e-21)
(2.5453413 -0.0032949752 1.0368669e-21)
(2.0703986 -0.24408363 -6.5477874e-22)
(2.2526137 -0.20172781 2.9341034e-21)
(2.2967356 -0.15294456 -3.8361708e-22)
(2.3536742 -0.12098515 -1.6753165e-21)
(2.3823073 -0.092333415 2.4306452e-21)
(2.4024375 -0.074605885 3.5001574e-22)
(2.4177793 -0.065442008 1.0229555e-21)
(2.433114 -0.061000851 1.6945965e-21)
(2.4486964 -0.058066762 9.0886647e-22)
(2.4635706 -0.054964084 7.6434247e-22)
(2.4767993 -0.051547828 8.7362982e-22)
(2.4882198 -0.048210741 6.5840891e-22)
(2.4982162 -0.045158596 -2.3622932e-22)
(2.5072711 -0.042249104 5.0114278e-22)
(2.5156597 -0.039011916 -1.3128115e-22)
(2.5233851 -0.035199509 4.0596018e-22)
(2.5303026 -0.030310413 2.053633e-22)
(2.5362262 -0.024882733 2.215926e-21)
(2.5411861 -0.018094829 2.7258852e-21)
(2.5451409 -0.01167076 -2.0454641e-21)
(2.5485819 -0.0033494652 -2.1674133e-21)
(2.0796947 -0.28501791 -4.6529076e-22)
(2.2586544 -0.23248916 1.7758834e-21)
(2.3025611 -0.17896733 2.3943712e-24)
(2.3603676 -0.14037536 3.486378e-22)
(2.3870795 -0.10548628 2.5302468e-22)
(2.4038498 -0.083510302 5.9791771e-22)
(2.4158659 -0.072697337 1.0800239e-21)
(2.429157 -0.068238714 3.0031165e-21)
(2.4441537 -0.065798928 3.5793495e-22)
(2.4593699 -0.062847554 2.3116578e-22)
(2.4731423 -0.059078462 3.0695728e-22)
(2.4848928 -0.055155898 3.0703369e-22)
(2.4949571 -0.051641717 -3.6579191e-22)
(2.5039948 -0.048548957 7.0478714e-22)
(2.5124878 -0.045495861 2.3736092e-22)
(2.5205575 -0.041895221 -5.3045968e-22)
(2.5280427 -0.03752685 -1.4634276e-21)
(2.5346948 -0.031987777 -9.0079543e-24)
(2.5403082 -0.02594597 9.0716182e-22)
(2.5449192 -0.018644163 -1.5093353e-21)
(2.5485878 -0.011884785 1.159254e-22)
(2.5517533 -0.0033719528 -9.8397628e-22)
(2.0918237 -0.32230769 3.9456433e-21)
(2.2662657 -0.26171522 5.2750667e-22)
(2.3104766 -0.20432511 2.1404918e-21)
(2.369562 -0.15928549 -3.2757506e-22)
(2.3944343 -0.11743592 -7.1354292e-23)
(2.4071473 -0.090866308 -3.5375118e-22)
(2.4149651 -0.078488688 4.5586006e-22)
(2.425522 -0.07441977 -1.1127797e-21)
(2.4396576 -0.073080681 -9.2482038e-22)
(2.455311 -0.070772615 -9.81473e-22)
(2.4698652 -0.066857299 -9.58416e-22)
(2.482114 -0.062304867 -5.1406879e-22)
(2.4922381 -0.058149198 -5.3248203e-22)
(2.5010846 -0.054751013 3.4016901e-22)
(2.5094269 -0.051765366 1.4498919e-21)
(2.5175946 -0.048576191 1.0206143e-22)
(2.5254872 -0.044555872 -9.8170021e-22)
(2.5327797 -0.039580689 -3.6290734e-22)
(2.539151 -0.03338216 -1.3470807e-22)
(2.5444113 -0.026757726 -1.3533732e-21)
(2.5486254 -0.019008888 -7.0349948e-22)
(2.5519669 -0.011984998 1.9367273e-21)
(2.5548281 -0.0033647571 1.0865658e-21)
(2.1058466 -0.3558671 8.073395e-21)
(2.2749127 -0.28935541 1.655192e-21)
(2.3200268 -0.22898058 -2.9801626e-21)
(2.3810458 -0.17768418 -1.8418106e-21)
(2.4043016 -0.12837553 4.0598579e-22)
(2.4124826 -0.096317289 -1.9001083e-22)
(2.4150244 -0.082161795 -1.0308508e-21)
(2.4220105 -0.079153436 -2.9850852e-21)
(2.4349155 -0.079724696 -1.8807346e-21)
(2.451144 -0.078707014 -5.7583801e-22)
(2.4668421 -0.074939198 6.4129699e-23)
(2.4798997 -0.06972211 -1.40533e-22)
(2.4901841 -0.064706456 -4.3038847e-23)
(2.498713 -0.060758935 1.9297596e-21)
(2.5066364 -0.057745409 4.0588204e-22)
(2.5146078 -0.054921457 3.5787476e-22)
(2.5226754 -0.051525497 6.6394381e-23)
(2.5304921 -0.046990802 -1.0664511e-21)
(2.5376005 -0.041350718 1.5262675e-21)
(2.5436507 -0.034490304 -1.0373876e-22)
(2.5485041 -0.02732331 -2.4358364e-21)
(2.5522725 -0.019198092 1.3750019e-21)
(2.55525 -0.011979658 1.256024e-21)
(2.5577839 -0.0033302556 -6.7188807e-24)
(2.1213266 -0.38578615 -2.2079335e-21)
(2.2841247 -0.31542267 0)
(2.330777 -0.25295247 -5.8811735e-21)
(2.3945864 -0.19569838 -3.6690686e-22)
(2.4165446 -0.1381278 -1.8251266e-21)
(2.4198151 -0.09993202 4.3150945e-22)
(2.4158787 -0.084449944 6.1764685e-22)
(2.4184087 -0.082249853 -1.8539424e-21)
(2.4296322 -0.085500795 -1.3403606e-21)
(2.446576 -0.086618505 -2.4865017e-22)
(2.4638904 -0.083423574 -1.9608963e-22)
(2.4782277 -0.077541002 5.4257568e-22)
(2.4889103 -0.071387622 1.1599688e-21)
(2.4970651 -0.066559997 1.5234506e-21)
(2.5043012 -0.063285548 1.7023852e-21)
(2.5117312 -0.060811049 -9.8756927e-22)
(2.5196708 -0.058086551 1.1949207e-21)
(2.5278196 -0.054345637 1.7385251e-21)
(2.5356086 -0.049181105 9.2922803e-22)
(2.5425022 -0.042823078 -2.9799906e-23)
(2.5481699 -0.035310586 0)
(2.5525559 -0.027650276 -8.6840845e-22)
(2.5558317 -0.019222056 6.0028319e-24)
(2.5584132 -0.011877243 -2.627337e-21)
(2.5606029 -0.0032708449 1.6209239e-23)
(2.1376854 -0.41204664 -8.1394163e-21)
(2.2930214 -0.33996198 -1.0079796e-21)
(2.3423238 -0.27627775 -7.0938209e-21)
(2.4099326 -0.21348233 2.8720591e-22)
(2.4311609 -0.14674534 1.3083679e-22)
(2.4289237 -0.10171216 1.3500421e-21)
(2.4174952 -0.083518383 1.1328224e-21)
(2.4142407 -0.083470476 2.8122452e-21)
(2.4233971 -0.090481684 3.9304971e-24)
(2.4412633 -0.094535332 4.71689e-22)
(2.4607869 -0.092443451 9.8685862e-23)
(2.4770393 -0.085951163 3.170706e-24)
(2.4885224 -0.078341344 1.5512223e-21)
(2.4963423 -0.072183742 -3.1706086e-21)
(2.5026363 -0.068304045 -8.3756206e-22)
(2.5091322 -0.066031885 -1.1407451e-21)
(2.5165613 -0.064079364 1.6356578e-21)
(2.5247669 -0.061279301 1.7037006e-21)
(2.5331089 -0.057010176 -1.6278576e-22)
(2.54086 -0.051098127 -9.0057142e-22)
(2.5474728 -0.04398365 5.1842895e-22)
(2.5526813 -0.035843781 1.2194276e-22)
(2.5565371 -0.027748042 -9.1915342e-22)
(2.5592776 -0.019091738 5.4054546e-23)
(2.561437 -0.011686182 -1.0779581e-21)
(2.5632713 -0.0031888897 -1.5899309e-21)
(2.1541895 -0.43491177 -1.4796134e-20)
(2.300918 -0.36297416 6.7165854e-22)
(2.3543161 -0.29905674 -4.6668072e-21)
(2.4268515 -0.23121524 2.0889343e-21)
(2.4480907 -0.15432175 1.6591337e-20)
(2.4398041 -0.10124401 -8.2593503e-22)
(2.4198142 -0.080104579 -5.9918058e-22)
(2.4093156 -0.082374676 1.7478457e-21)
(2.4159038 -0.093817124 6.5800068e-22)
(2.4348048 -0.1024676 2.0532656e-23)
(2.4572494 -0.1021846 2.365334e-22)
(2.4762414 -0.095201219 -3.8980255e-22)
(2.4891123 -0.085780407 -6.1107659e-22)
(2.4967668 -0.077724571 -1.5990429e-21)
(2.5018923 -0.07274494 -3.3948914e-22)
(2.5070176 -0.070420909 -3.448915e-21)
(2.5134688 -0.069234029 -3.2960891e-22)
(2.5213604 -0.067605717 -3.5691706e-22)
(2.5300423 -0.064470109 -1.5644558e-21)
(2.5386064 -0.05947192 -8.8400984e-22)
(2.5462536 -0.05270866 -1.4360092e-22)
(2.5524911 -0.044820035 -7.2477631e-23)
(2.5571549 -0.036093168 1.7096885e-23)
(2.5604196 -0.027627436 9.5764707e-22)
(2.5625883 -0.018818433 -5.0935033e-23)
(2.5643059 -0.011414747 2.5762222e-21)
(2.565779 -0.0030866656 -2.4606249e-21)
(2.1703585 -0.45456625 4.2902882e-21)
(2.3078255 -0.38473866 -6.4774178e-21)
(2.3664771 -0.32140041 3.3461064e-20)
(2.4451112 -0.24915295 -2.8680005e-22)
(2.4672696 -0.16094666 -2.0678363e-21)
(2.4525126 -0.098602153 -4.7732788e-21)
(2.422735 -0.073899685 2.1127067e-21)
(2.4037606 -0.078725268 2.5376327e-21)
(2.4067888 -0.096501197 -1.668445e-21)
(2.4269389 -0.11040781 0)
(2.4529937 -0.11280881 2.2704406e-22)
(2.4757013 -0.10558353 -2.6734242e-22)
(2.4907643 -0.09398776 9.2060628e-22)
(2.4985669 -0.083338412 1.1068227e-21)
(2.5023617 -0.076595746 4.8508739e-22)
(2.5056386 -0.073818542 4.0563552e-21)
(2.5105554 -0.073312323 -4.266465e-22)
(2.5176558 -0.073014574 -1.7494629e-21)
(2.5263653 -0.071366123 -1.3058636e-21)
(2.5356183 -0.067590331 5.9885035e-22)
(2.5443498 -0.061670951 9.7111283e-22)
(2.5517799 -0.053978955 5.0753192e-22)
(2.5575281 -0.045322684 -3.2454533e-22)
(2.5615592 -0.036064438 6.4022966e-22)
(2.5641773 -0.027300411 1.0176321e-21)
(2.5657452 -0.018413619 -1.3160528e-21)
(2.5670081 -0.011070993 1.6906263e-21)
(2.5681189 -0.0029663214 3.7194252e-21)
(2.1858549 -0.47126132 2.1203624e-20)
(2.3136851 -0.40531399 -1.1313159e-20)
(2.3787934 -0.34346483 4.6596424e-21)
(2.4643201 -0.26738545 -1.0902026e-20)
(2.4885739 -0.16675562 -2.3864578e-20)
(2.4670247 -0.093782195 1.5381984e-20)
(2.4262196 -0.064747417 -1.5908889e-22)
(2.3972802 -0.072470369 2.0907502e-21)
(2.3957219 -0.097564857 -6.8312959e-22)
(2.4172531 -0.1184241 9.123222e-22)
(2.4477019 -0.12455301 -3.5661137e-22)
(2.4752669 -0.11742157 1.6604143e-23)
(2.4935437 -0.10330325 7.5171233e-22)
(2.5020043 -0.089248972 1.650142e-21)
(2.5043587 -0.079893747 1.2762051e-21)
(2.5052904 -0.076089626 1.567094e-21)
(2.508027 -0.076059503 1.3445497e-21)
(2.513743 -0.077212597 8.3038303e-22)
(2.5220554 -0.077369448 -2.5781242e-21)
(2.5317813 -0.075268678 -1.4539243e-21)
(2.5415788 -0.070544649 3.3888315e-22)
(2.5503484 -0.063541986 -1.3105095e-22)
(2.5574129 -0.054877796 -9.8191943e-23)
(2.5625482 -0.045485731 1.6992924e-22)
(2.5658622 -0.035765748 -6.1820936e-23)
(2.5677862 -0.026779964 5.6937152e-22)
(2.568733 -0.017888937 -2.0861373e-21)
(2.5695349 -0.010662729 1.7487738e-21)
(2.5702869 -0.0028298377 2.5700953e-21)
(2.2005572 -0.4853034 4.4920962e-22)
(2.3182754 -0.42463901 1.4861673e-23)
(2.3908623 -0.36498165 -2.9426685e-20)
(2.4833339 -0.28598062 2.2217627e-21)
(2.5110612 -0.17172488 0)
(2.4831267 -0.086756034 7.3048064e-22)
(2.4301932 -0.052627159 -1.922723e-21)
(2.389644 -0.06326827 -2.0307685e-20)
(2.3824132 -0.097098447 5.5376932e-21)
(2.4052607 -0.12650475 2.8535288e-21)
(2.4410245 -0.1375392 -1.2396323e-21)
(2.4747347 -0.13105186 -3.492616e-21)
(2.4974972 -0.11411921 8.1969528e-22)
(2.5073378 -0.095733009 -1.8672356e-21)
(2.5082619 -0.082724165 5.5729152e-21)
(2.5063158 -0.077125727 -6.3720817e-22)
(2.5061267 -0.077230823 -1.6170455e-21)
(2.5097493 -0.079876676 2.4291636e-21)
(2.5171161 -0.082158656 7.2237698e-22)
(2.526992 -0.082182839 -2.1483716e-22)
(2.5377603 -0.079172605 4.7278569e-22)
(2.5479639 -0.073223691 1.5194206e-21)
(2.5565844 -0.065020665 -3.3533151e-22)
(2.5631134 -0.055378986 -3.6794166e-24)
(2.5675117 -0.045307753 4.1418321e-22)
(2.5700327 -0.035207875 -1.4279338e-21)
(2.5712256 -0.026080169 3.3828701e-23)
(2.5715398 -0.017256201 1.6495398e-21)
(2.5718808 -0.010197432 -1.872564e-21)
(2.5722812 -0.0026790295 -2.0306515e-21)
(2.2151529 -0.49818336 -7.4664715e-21)
(2.3218662 -0.44273319 3.642183e-20)
(2.401943 -0.38603113 5.8676924e-22)
(2.5004243 -0.30384736 1.4994808e-20)
(2.5306309 -0.17612199 2.3065429e-22)
(2.4999164 -0.077471734 -3.9870552e-20)
(2.4342906 -0.037411773 7.7144429e-21)
(2.3806432 -0.051067033 -8.8182603e-21)
(2.366557 -0.094896669 -4.1240975e-22)
(2.3906565 -0.13465414 1.1096131e-21)
(2.4326241 -0.15198303 8.6384349e-22)
(2.4738814 -0.14680794 -2.3339707e-21)
(2.5026405 -0.12685862 -6.025801e-21)
(2.5148398 -0.10312728 2.2979294e-21)
(2.5144531 -0.085199468 7.1111952e-21)
(2.5091075 -0.07683764 -7.8404497e-21)
(2.5051695 -0.076579645 3.9597006e-22)
(2.5058377 -0.080678979 5.905477e-22)
(2.5115792 -0.085374248 -9.3691502e-22)
(2.5211639 -0.08801062 1.1581337e-21)
(2.5327147 -0.087256603 9.5580367e-22)
(2.5443894 -0.082909001 -3.205716e-22)
(2.5547702 -0.075515417 1.2149761e-23)
(2.5630154 -0.066048859 -1.8629172e-22)
(2.5688318 -0.055463478 -2.2654979e-23)
(2.5723766 -0.044792481 -3.3458378e-22)
(2.5740412 -0.034404394 2.1249192e-22)
(2.5744776 -0.025216184 -3.7416523e-21)
(2.5741568 -0.01652739 1.6938732e-21)
(2.5740429 -0.0096821946 -5.2659633e-21)
(2.5741021 -0.0025156077 2.6514487e-23)
(2.2300202 -0.50983778 6.7811253e-21)
(2.3232135 -0.46131998 1.3895405e-20)
(2.4118432 -0.40574676 -2.2930944e-22)
(2.5149454 -0.32174351 2.5799221e-20)
(2.5453253 -0.17899932 8.2795849e-20)
(2.514899 -0.065932825 3.748093e-21)
(2.4365373 -0.019106903 -1.6960237e-20)
(2.3698309 -0.035549406 1.3574163e-20)
(2.3478622 -0.090927823 -7.0582702e-21)
(2.3731634 -0.14290837 -2.7500049e-21)
(2.4221836 -0.16801722 7.4701258e-21)
(2.4724661 -0.16501751 1.7320014e-20)
(2.5089676 -0.14197388 -7.4613649e-21)
(2.5247744 -0.11180881 1.0578376e-20)
(2.5233561 -0.087487372 -5.4117129e-21)
(2.5140677 -0.075142618 6.2271928e-23)
(2.5054362 -0.073864655 -5.6711001e-21)
(2.5022014 -0.079278537 -1.6343993e-22)
(2.5055028 -0.086643333 -2.0826669e-21)
(2.5142302 -0.092387308 4.164089e-22)
(2.5262705 -0.094498129 -3.5230672e-22)
(2.5393792 -0.092343348 -3.4726485e-21)
(2.5516901 -0.086299899 1.9673437e-21)
(2.5619553 -0.077314779 -3.8302669e-22)
(2.5695803 -0.06657904 8.4665422e-22)
(2.5745117 -0.055121063 -3.8498681e-22)
(2.577101 -0.043949272 -3.8884843e-22)
(2.5778613 -0.033371687 6.0705365e-22)
(2.5775279 -0.024204165 -1.2786079e-21)
(2.5765783 -0.015714583 -2.7790207e-21)
(2.576021 -0.0091237708 4.0270439e-21)
(2.5757511 -0.0023412827 -8.5604609e-21)
(2.2440064 -0.5192332 3.4628509e-21)
(2.3231284 -0.48053769 2.0280329e-20)
(2.4183201 -0.42665066 -3.2388405e-20)
(2.5264037 -0.3373428 -1.4532241e-21)
(2.5561897 -0.18100886 1.0353485e-20)
(2.5228499 -0.050717215 -8.8474666e-21)
(2.4300802 0.0028228298 -1.1149935e-20)
(2.3548969 -0.016979608 1.0264602e-20)
(2.3259842 -0.084933566 -5.1669202e-23)
(2.3524999 -0.15127235 -3.9831449e-21)
(2.4094303 -0.18578979 -3.7501627e-21)
(2.4702278 -0.18594926 -2.3060463e-21)
(2.5164244 -0.15992258 5.3086912e-23)
(2.5374117 -0.1221991 -1.0649945e-20)
(2.5354023 -0.089761627 1.3070192e-20)
(2.5216441 -0.071998344 -5.580652e-21)
(2.507303 -0.068842329 5.2210978e-22)
(2.4990507 -0.075336805 2.3840375e-21)
(2.4989681 -0.085582589 -1.2635908e-21)
(2.5061445 -0.094932865 2.9225961e-21)
(2.5182686 -0.10055434 -5.4274182e-22)
(2.5326877 -0.10127196 1.3627714e-21)
(2.5470458 -0.097176748 -1.8117781e-21)
(2.559624 -0.089174371 -1.3491363e-21)
(2.5694449 -0.07853158 2.5441115e-22)
(2.5762043 -0.066577623 4.301332e-22)
(2.5800943 -0.054351439 -9.5435795e-22)
(2.5816454 -0.042793213 -2.7416344e-22)
(2.58147 -0.032128759 -4.0071578e-22)
(2.5803658 -0.02306108 5.8238225e-21)
(2.5788018 -0.01482986 1.9862287e-21)
(2.5778168 -0.0085286667 -8.2184338e-22)
(2.5772314 -0.0021578307 -4.1498709e-21)
(2.2577619 -0.52615337 1.0549512e-20)
(2.3204955 -0.4992834 -2.1218075e-20)
(2.4225817 -0.44926314 6.6046356e-20)
(2.5330522 -0.35518677 -1.5301423e-19)
(2.5635827 -0.17929257 -1.201687e-19)
(2.5230717 -0.033037793 -4.1714688e-20)
(2.4109213 0.02889 4.2320444e-20)
(2.329019 0.0050378742 3.1015791e-21)
(2.2996408 -0.0774297 5.3148836e-21)
(2.3284758 -0.15970803 -3.5582453e-22)
(2.3940943 -0.20532852 -1.3506962e-21)
(2.4668799 -0.20987058 -6.3730199e-21)
(2.5249194 -0.18113297 -3.003703e-21)
(2.5529853 -0.13474765 -3.619699e-20)
(2.5510514 -0.09223963 8.1936521e-21)
(2.5322918 -0.067325905 -5.8539709e-21)
(2.5111154 -0.061287296 3.546919e-21)
(2.4966117 -0.068511212 5.0850369e-21)
(2.4920671 -0.081810394 -3.9367151e-21)
(2.4968786 -0.095258536 -4.9596905e-21)
(2.5085665 -0.10506611 0)
(2.5240755 -0.10939524 1.2563057e-21)
(2.5405321 -0.10795028 -1.2865168e-21)
(2.5556866 -0.10149662 -1.3155472e-21)
(2.5681029 -0.091381353 7.3422942e-22)
(2.577141 -0.0790963 -2.5990559e-21)
(2.5828056 -0.066027023 -7.4250136e-22)
(2.5855216 -0.05316448 5.8771347e-22)
(2.5859739 -0.041344773 1.6403153e-22)
(2.5848488 -0.030696825 7.3831858e-22)
(2.5829839 -0.021804436 9.4915707e-24)
(2.5808271 -0.013885171 2.2586283e-21)
(2.5794341 -0.0079031853 -3.7725993e-21)
(2.5785497 -0.0019673788 1.1285698e-20)
(2.2724738 -0.53019735 1.2770119e-21)
(2.3127652 -0.51735869 -4.7390938e-20)
(2.4247599 -0.47175328 2.9379697e-20)
(2.5355111 -0.37543372 5.3713753e-20)
(2.5672944 -0.18056815 -8.6960022e-20)
(2.5226953 -0.010498267 5.1784021e-20)
(2.3856229 0.058608049 2.8095728e-20)
(2.2894436 0.028325785 -7.1614797e-21)
(2.2653296 -0.068030572 -2.0419992e-21)
(2.3008576 -0.16846828 5.6465812e-22)
(2.3760985 -0.22670488 6.063576e-21)
(2.46215 -0.23686201 -3.722612e-21)
(2.5342823 -0.20603058 1.6498051e-20)
(2.5717084 -0.14992385 -1.3291168e-20)
(2.5707284 -0.095137642 1.502559e-21)
(2.546481 -0.06110554 1.7042187e-20)
(2.5172291 -0.050922942 -6.8446725e-21)
(2.495095 -0.058472065 1.0440062e-21)
(2.4848935 -0.074950267 -3.0551002e-21)
(2.4864159 -0.092982133 9.9088868e-22)
(2.4970397 -0.10766614 -4.1561885e-22)
(2.5133164 -0.11639581 -1.0693139e-21)
(2.5318439 -0.11838039 6.5439874e-21)
(2.5497952 -0.11415572 -1.3773322e-21)
(2.5652 -0.10506855 -6.2732063e-21)
(2.5770011 -0.092799112 7.5714938e-21)
(2.5849317 -0.078963761 3.8867807e-22)
(2.5893004 -0.064926331 -2.3342066e-22)
(2.590739 -0.051579738 3.7949334e-22)
(2.5900558 -0.039629086 -5.3110336e-22)
(2.5879835 -0.029098756 1.0223857e-21)
(2.5853787 -0.020451945 -5.70024e-22)
(2.5826568 -0.012892152 -2.9011447e-21)
(2.5808783 -0.0072538225 4.4646355e-21)
(2.5797122 -0.0017727717 5.0282637e-21)
(2.2830316 -0.53123892 6.156365e-22)
(2.3021552 -0.53474125 1.3404187e-21)
(2.4252236 -0.49431054 -5.0012874e-20)
(2.5343867 -0.39526253 1.4459173e-19)
(2.5674234 -0.1837045 -1.5843637e-19)
(2.5176431 0.011346334 -1.8372505e-20)
(2.3610845 0.091665673 -3.5055569e-20)
(2.2446324 0.054722192 -5.3028546e-22)
(2.2209737 -0.060496095 1.6754672e-21)
(2.2691888 -0.17763811 7.684333e-22)
(2.3556805 -0.24999944 -6.3779032e-21)
(2.4560584 -0.26721757 -1.4301915e-20)
(2.5444042 -0.23491581 -5.7874167e-20)
(2.5937719 -0.16822046 3.2511505e-20)
(2.5948779 -0.098677564 2.1883025e-20)
(2.5646253 -0.053255437 4.2992933e-21)
(2.5259777 -0.037563811 4.0918226e-21)
(2.4946972 -0.044855114 -6.3099585e-21)
(2.4775249 -0.064654409 -6.1514929e-21)
(2.4747471 -0.08774011 8.5781068e-21)
(2.4835832 -0.10799636 2.2026863e-21)
(2.5002046 -0.1219459 -1.5887323e-22)
(2.5206863 -0.12820707 -4.1743027e-21)
(2.5415959 -0.12698291 9.8794399e-22)
(2.5603635 -0.11954359 2.6257022e-21)
(2.5754273 -0.10769815 3.533784e-21)
(2.5861681 -0.093341174 -3.7410388e-21)
(2.5926992 -0.078114465 4.9373602e-21)
(2.5956084 -0.063290648 2.1911452e-22)
(2.5956984 -0.049625271 5.1839808e-23)
(2.5938663 -0.037674955 5.4156145e-22)
(2.5908646 -0.027358422 6.4938376e-22)
(2.5875493 -0.019021178 2.6144907e-21)
(2.5842955 -0.011861977 1.4420805e-21)
(2.5821561 -0.006587872 -8.5617021e-23)
(2.5807183 -0.0015769631 -1.9462093e-21)
(2.2884118 -0.53023613 8.5957895e-22)
(2.2954319 -0.55089496 6.290236e-22)
(2.4228126 -0.51673408 2.2652141e-20)
(2.529286 -0.41392487 -5.8862739e-20)
(2.5630037 -0.18343332 9.5991966e-20)
(2.5001879 0.033570653 2.7135855e-20)
(2.3333244 0.12802034 -2.5024944e-20)
(2.2019693 0.079928964 -1.5068289e-20)
(2.1711032 -0.051222653 -6.8599562e-21)
(2.2328642 -0.18926176 -1.2372183e-20)
(2.333538 -0.27516221 -2.5406665e-21)
(2.4487972 -0.30075854 1.6938418e-20)
(2.5552178 -0.2683297 3.6022843e-20)
(2.6194531 -0.1902141 1.5698825e-20)
(2.6240567 -0.10308895 -3.660166e-20)
(2.5872045 -0.043691783 4.882673e-21)
(2.5376399 -0.020861964 -2.6960035e-21)
(2.4955601 -0.027397883 -7.5740079e-21)
(2.4700162 -0.050573609 -6.960545e-22)
(2.461856 -0.079212963 6.416454e-21)
(2.4681107 -0.10572385 3.6254302e-21)
(2.4845615 -0.12572375 4.2877044e-21)
(2.5067852 -0.13715483 -2.9382743e-21)
(2.5307402 -0.1397874 5.1009666e-21)
(2.5532087 -0.13471695 -1.7450753e-21)
(2.572041 -0.12382217 -5.1292251e-21)
(2.586171 -0.10924017 1.2298767e-20)
(2.5954417 -0.092958839 -5.5142505e-21)
(2.6003274 -0.076553908 -5.3659837e-21)
(2.601656 -0.061149382 1.0236541e-21)
(2.6003591 -0.047336033 1.2449319e-21)
(2.5973867 -0.035513711 9.5652011e-22)
(2.5934871 -0.025500018 -1.5612245e-21)
(2.5894982 -0.017529247 -1.0907337e-21)
(2.5857491 -0.010805247 -2.1417923e-21)
(2.5832744 -0.0059125811 4.3776019e-21)
(2.581578 -0.0013818361 -2.3210463e-23)
(2.2863898 -0.52827313 -7.7677824e-21)
(2.291034 -0.56571059 1.2908913e-20)
(2.4162193 -0.53886937 1.0762642e-20)
(2.519398 -0.43106231 -5.308679e-20)
(2.5516672 -0.18013957 2.0373133e-19)
(2.4752986 0.061062323 9.4850302e-20)
(2.3052011 0.16765393 -3.0528072e-20)
(2.1579171 0.11182704 2.5081458e-20)
(2.1236327 -0.048553685 -8.7428405e-23)
(2.1925652 -0.20140729 -3.0786312e-20)
(2.3097682 -0.30296852 -6.1009463e-21)
(2.4409253 -0.33726965 -3.6035678e-21)
(2.5653875 -0.30533437 1.0210293e-19)
(2.6476876 -0.21621269 6.3049704e-20)
(2.6585078 -0.10872263 -2.7007832e-20)
(2.6148969 -0.032363633 6.8910156e-21)
(2.5525665 -0.00058390172 4.3908323e-22)
(2.4977844 -0.005625853 5.9963475e-21)
(2.4623609 -0.032470422 5.6321265e-21)
(2.4477175 -0.06711478 5.2309016e-21)
(2.4505512 -0.10056516 1.9370759e-21)
(2.4662421 -0.12742943 -1.7819129e-21)
(2.4898993 -0.14494606 -2.2150115e-21)
(2.5168985 -0.15235676 -4.4807131e-22)
(2.5433505 -0.15047607 3.4183871e-21)
(2.5664457 -0.14116486 2.5760194e-21)
(2.5845736 -0.12676579 -6.3865059e-21)
(2.597212 -0.10960267 -5.8528522e-21)
(2.6046583 -0.091640584 5.3316828e-21)
(2.6077081 -0.074310191 -1.4827823e-21)
(2.6073798 -0.058543771 -1.9169312e-21)
(2.6046889 -0.044752005 -2.1993905e-22)
(2.6006049 -0.033178037 2.1875126e-22)
(2.59585 -0.023547434 -2.7943223e-21)
(2.5912299 -0.015992491 -1.4178587e-21)
(2.5870253 -0.0097318113 2.5087136e-22)
(2.5842409 -0.0052338068 -3.0286445e-22)
(2.5823267 -0.001189989 -2.5748756e-21)
(2.2793652 -0.52561697 -1.0005009e-20)
(2.2851469 -0.57937634 -1.5074819e-21)
(2.4055819 -0.55957496 -1.907433e-20)
(2.504992 -0.44623168 9.7246056e-20)
(2.5336127 -0.17400595 -3.584163e-20)
(2.4463448 0.091189723 -8.7271215e-20)
(2.2759628 0.21010544 3.3503885e-20)
(2.120309 0.1511343 1.8961675e-20)
(2.0710676 -0.037131754 6.6430438e-22)
(2.1541497 -0.22060435 2.6889023e-20)