/*--------------------------------*- C++ -*----------------------------------*\
| =========                 |                                                 |
| \\      /  F ield         | OpenFOAM: The Open Source CFD Toolbox           |
|  \\    /   O peration     | Version:  v2012                                 |
|   \\  /    A nd           | Website:  www.openfoam.com                      |
|    \\/     M anipulation  |                                                 |
\*---------------------------------------------------------------------------*/
FoamFile
{
    version     2.0;
    format      ascii;
    class       surfaceVectorField;
    location    "88.3616622644537131";
    object      Uf;
}
// * * * * * * * * * * * * * * * * * * * * * * * * * * * * * * * * * * * * * //

dimensions      [0 1 -1 0 0 0 0];


internalField   nonuniform List<vector> 
18180
(
(2.5914937 0.029309211 -1.1993679e-21)
(2.5735481 0.01118266 -7.6061456e-23)
(2.583286 0.057542654 7.1223484e-22)
(2.5669772 0.03778302 -2.0042209e-21)
(2.5572284 0.020912787 -9.50002e-22)
(2.5571066 0.0084779626 -2.5180183e-21)
(2.5701893 0.084241324 3.9661445e-21)
(2.5564714 0.059277063 3.1350058e-21)
(2.5484615 0.040245214 6.8858674e-22)
(2.5507335 0.028531433 4.118912e-22)
(2.5475528 0.01704837 -1.1097478e-21)
(2.5441501 0.0066576013 -6.7549291e-22)
(2.551774 0.10959687 1.5752779e-21)
(2.5406025 0.08104227 2.7368294e-21)
(2.5353023 0.057433674 2.016305e-21)
(2.541044 0.043871555 -6.6417041e-22)
(2.5399168 0.032538063 -9.3425075e-22)
(2.5381539 0.022370693 -5.3670827e-22)
(2.5354626 0.012807436 -1.2107565e-22)
(2.5347406 0.0049741975 -6.1232106e-22)
(2.5280168 0.1329061 -1.9191914e-21)
(2.5203592 0.099542564 -1.1560775e-21)
(2.5178511 0.072133804 -9.7044253e-23)
(2.5265145 0.058662171 2.7815288e-21)
(2.5284524 0.045914398 3.2038478e-22)
(2.5294425 0.033929129 -8.2020308e-22)
(2.5284125 0.02406355 -4.4051856e-22)
(2.5293196 0.016566098 4.5908728e-22)
(2.5283043 0.0093895635 -4.6689241e-25)
(2.5280718 0.0035814688 -3.3787668e-22)
(2.4986405 0.15348656 -2.0436513e-21)
(2.4955192 0.11567681 -3.483332e-21)
(2.496559 0.083738493 -3.0447015e-21)
(2.5084919 0.069910889 -3.3481122e-21)
(2.5130623 0.056912746 -6.6631495e-22)
(2.5163333 0.044697266 -2.5498304e-21)
(2.518029 0.033406299 -3.6811274e-21)
(2.5216165 0.024697966 -1.9091153e-23)
(2.5221178 0.01737541 8.4276023e-22)
(2.5232626 0.011786319 2.933121e-21)
(2.5230412 0.0064826838 2.6605937e-21)
(2.5236208 0.002401841 1.9737902e-21)
(2.4635691 0.16988101 8.1269255e-22)
(2.4667915 0.12798523 1.6260564e-22)
(2.471882 0.091619499 -1.2837226e-21)
(2.4869314 0.0783111 9.579931e-22)
(2.4945764 0.065045501 7.3605736e-22)
(2.5004655 0.052188926 -1.5974457e-21)
(2.5044247 0.04037971 -3.3421728e-21)
(2.5101079 0.03184778 -2.8627146e-21)
(2.513111 0.023653996 6.3093101e-22)
(2.5165383 0.017212023 -7.0740126e-23)
(2.517629 0.011729015 1.9007915e-21)
(2.5194184 0.0077756839 2.8882274e-21)
(2.5198975 0.0040641905 2.2392485e-21)
(2.5209233 0.0013972974 3.3422563e-22)
(2.423045 0.18044246 -9.2372504e-22)
(2.4347275 0.1355895 6.9040051e-22)
(2.4446623 0.095261921 1.9153466e-22)
(2.4625898 0.082702366 -1.2572587e-21)
(2.4734251 0.069817747 8.7357686e-22)
(2.4819266 0.056966885 2.7435238e-22)
(2.4884673 0.044622614 -1.8242956e-21)
(2.4964438 0.03606228 -2.2288623e-22)
(2.5014231 0.027787251 2.8423599e-22)
(2.5065538 0.021567881 4.3879994e-21)
(2.5098165 0.015503177 3.795785e-21)
(2.5135941 0.010997988 3.0329688e-22)
(2.5152166 0.0070967902 1.2154356e-21)
(2.5172729 0.0044526199 -1.4561762e-21)
(2.5182181 0.0020377075 -3.3271919e-21)
(2.5196162 0.00053336447 -2.0081648e-21)
(2.3777772 0.18368622 -1.2830797e-21)
(2.4001047 0.1375555 -4.4330203e-21)
(2.4158916 0.094283762 -2.9570357e-21)
(2.4360277 0.08288082 -2.7158853e-21)
(2.4503069 0.070743107 -4.1412158e-21)
(2.4616065 0.058234366 -4.3829481e-21)
(2.470699 0.045804567 -4.9740792e-21)
(2.4807772 0.037761912 -4.3354879e-21)
(2.487933 0.029521857 -2.8551367e-21)
(2.494881 0.023439557 -2.1980283e-23)
(2.4997855 0.017391585 3.8847271e-21)
(2.5050004 0.013126335 4.046014e-21)
(2.5085006 0.0088788543 7.3115185e-22)
(2.5122587 0.0058953806 2.0841053e-22)
(2.5141817 0.0032658334 -2.3454733e-21)
(2.5164368 0.0016851635 -3.5612736e-21)
(2.5177392 0.00033134999 -2.3116468e-21)
(2.5194112 -0.00018069806 -1.1800398e-21)
(2.3290968 0.17835123 9.4834231e-22)
(2.3640659 0.13278346 -6.5920117e-22)
(2.3868545 0.088178884 -3.6422029e-21)
(2.4083533 0.078433866 -3.871037e-21)
(2.426004 0.067351608 -3.6796697e-21)
(2.4402058 0.055820227 -1.9970778e-21)
(2.4519268 0.043699212 -2.1186211e-21)
(2.4639865 0.036465518 2.7174896e-22)
(2.4731658 0.028649246 9.6551903e-22)
(2.4817003 0.023091252 -3.3156987e-22)
(2.4883621 0.017220749 2.4025427e-21)
(2.4950774 0.013219056 9.0045988e-22)
(2.499948 0.0090538665 1.0045504e-21)
(2.5048868 0.0062636798 -2.5798624e-22)
(2.508419 0.0034405933 -7.6957195e-22)
(2.5121458 0.0016743729 3.2073736e-22)
(2.5142605 8.1119215e-05 -7.9097009e-22)
(2.5166089 -0.00063980603 1.3042514e-22)
(2.518183 -0.0010849374 1.2455652e-21)
(2.5200624 -0.00073026908 1.2593651e-21)
(2.2791205 0.16354878 -1.3566071e-22)
(2.3282062 0.12066137 -2.9815241e-22)
(2.3589287 0.076577199 -1.8464232e-21)
(2.3807339 0.068983823 -4.577386e-22)
(2.40146 0.059456725 -6.4326115e-22)
(2.4186424 0.049464132 6.5860519e-22)
(2.4329452 0.03823098 2.397695e-21)
(2.4466886 0.032145775 2.3515595e-21)
(2.4578253 0.025088291 4.6973331e-21)
(2.4678258 0.02029561 3.843021e-21)
(2.4760335 0.014875798 2.6579029e-21)
(2.4840015 0.011387586 7.6107383e-22)
(2.4903071 0.0075038355 -6.9345505e-22)
(2.4964603 0.0050165648 -1.01374e-21)
(2.5011233 0.0022740191 -2.2467531e-21)
(2.5058274 0.00063085171 -2.7313266e-21)
(2.5093324 -0.0010642135 -1.7274459e-21)
(2.512972 -0.0018443936 -2.3466196e-22)
(2.5151831 -0.0026051276 6.5004692e-22)
(2.5175893 -0.0026176055 -1.5724415e-21)
(2.5193673 -0.0022527777 -1.6053021e-21)
(2.5213689 -0.0011901117 1.5322268e-21)
(2.23066 0.13933502 -1.6169423e-21)
(2.2940031 0.1011392 -3.4368814e-21)
(2.3334051 0.059484914 -3.6459332e-21)
(2.354396 0.054603312 -2.5466827e-22)
(2.377642 0.047190909 9.3810586e-22)
(2.3977653 0.039280624 1.5515987e-21)
(2.4145869 0.029492712 2.8383752e-21)
(2.4296582 0.024861055 2.8458209e-21)
(2.4425403 0.018878113 2.8093977e-21)
(2.453791 0.015083449 1.2412414e-21)
(2.4634268 0.010379922 3.7218345e-22)
(2.472492 0.0076024239 3.4856985e-24)
(2.4800069 0.0041757126 -1.8429073e-21)
(2.4871335 0.0021240742 3.3651309e-23)
(2.4929617 -0.00031576601 -2.5873144e-22)
(2.4986661 -0.0016526818 -2.8615282e-21)
(2.5031022 -0.0032910655 -3.3321151e-21)
(2.5075389 -0.0040472622 -2.4520218e-21)
(2.5109742 -0.0048202308 -1.0453622e-21)
(2.5145031 -0.00481246 -3.3931398e-22)
(2.5167827 -0.0048946722 -2.4672418e-21)
(2.519232 -0.0043153952 -1.5213623e-21)
(2.5211333 -0.0032876224 1.461522e-21)
(2.5232117 -0.0016213437 -9.5239133e-23)
(2.1858642 0.10673778 -3.1249244e-21)
(2.2628009 0.074644936 5.8978978e-22)
(2.3105566 0.036990698 -1.1032644e-21)
(2.3307944 0.036013752 -3.5830788e-21)
(2.3555943 0.030964277 -5.0229587e-22)
(2.3784373 0.025559564 -7.5972871e-23)
(2.397622 0.017723184 4.9297162e-22)
(2.4135817 0.01481252 1.4555553e-21)
(2.4279476 0.010200878 1.4396888e-21)
(2.4402284 0.0076267651 1.292867e-21)
(2.4510768 0.0038609244 -2.2252889e-22)
(2.4609917 0.0019085989 -7.5134823e-22)
(2.4695762 -0.00085643779 -1.1222969e-21)
(2.4775294 -0.0022988437 -3.5940379e-22)
(2.4843004 -0.0043411679 1.4483216e-21)
(2.4907825 -0.0053356199 1.3711291e-21)
(2.4961777 -0.0066811647 -1.0740856e-21)
(2.5014446 -0.0071499138 -1.4142914e-21)
(2.5056423 -0.0079328405 -5.4648744e-22)
(2.5098411 -0.0079934802 -5.6858202e-22)
(2.5131787 -0.0080234339 1.1068681e-22)
(2.516588 -0.0073534307 -2.9524822e-22)
(2.5189142 -0.0068644348 6.3905699e-22)
(2.5213798 -0.0057819121 3.3321305e-21)
(2.5233595 -0.004200276 1.8833474e-21)
(2.5254871 -0.0020033907 -1.3069141e-21)
(2.1466061 0.066699185 -3.8703629e-21)
(2.2357821 0.041611841 -2.9154365e-21)
(2.2903463 0.0098688785 6.1855638e-22)
(2.3101753 0.013210071 1.9175084e-22)
(2.3363163 0.011637504 -1.9611171e-21)
(2.3613681 0.0088394676 -1.7091631e-21)
(2.3826867 0.0032974922 -1.3327994e-21)
(2.3991222 0.0023557617 -1.3187401e-21)
(2.4146207 -0.00063073062 -4.3395003e-22)
(2.4276541 -0.0018217292 -8.4063522e-22)
(2.4394898 -0.0044400674 -1.0179147e-21)
(2.4500032 -0.0054431131 -6.5221345e-22)
(2.4594299 -0.0074324205 -1.163752e-21)
(2.468008 -0.0082256907 -1.072717e-22)
(2.4755845 -0.0097047993 6.3443096e-22)
(2.4827124 -0.010197164 -6.1754289e-22)
(2.4888589 -0.01122124 -7.2363697e-22)
(2.4947527 -0.011446276 -7.5357555e-23)
(2.4997444 -0.011965415 -3.808579e-22)
(2.5046319 -0.011765853 1.1082596e-21)
(2.5086088 -0.011874824 1.114696e-21)
(2.5125888 -0.011371682 -1.7648381e-21)
(2.5158202 -0.010789889 -2.1812469e-21)
(2.519113 -0.0095570206 -4.5845372e-22)
(2.5214596 -0.0085759213 2.0827087e-21)
(2.5239181 -0.0070548921 2.3090858e-21)
(2.5259492 -0.0049901434 -7.1545077e-22)
(2.5280997 -0.0023243355 1.2927759e-22)
(2.1149943 0.020990383 3.1152569e-21)
(2.2140044 0.0043373903 -8.3849646e-21)
(2.2735641 -0.020506217 -7.5522982e-21)
(2.2924603 -0.013062745 5.632224e-23)
(2.3203885 -0.010157608 -1.8798084e-22)
(2.3469986 -0.010292489 7.4208584e-22)
(2.3701598 -0.013297091 1.0266115e-21)
(2.3867699 -0.012065735 -7.7592151e-22)
(2.4030523 -0.013185178 -7.5331324e-22)
(2.4165288 -0.012874926 -1.5418041e-21)
(2.4290729 -0.014187697 -1.9549597e-21)
(2.4399 -0.014196235 -1.5067275e-21)
(2.4499401 -0.015290114 -1.1714505e-21)
(2.4589463 -0.01537581 -3.5213752e-22)
(2.4671385 -0.01624159 6.6521381e-22)
(2.4747463 -0.016248054 -3.3067375e-23)
(2.481522 -0.016811283 -1.2337599e-21)
(2.4879289 -0.016629389 -9.739423e-22)
(2.4935268 -0.016910462 -3.6247054e-22)
(2.4989272 -0.016561507 -3.8732383e-22)
(2.5035628 -0.01644651 1.026928e-21)
(2.5081195 -0.015716221 1.4223594e-21)
(2.511895 -0.015279235 -1.3087614e-21)
(2.5156805 -0.014301741 -1.4568344e-21)
(2.5188072 -0.013202954 1.9196722e-22)
(2.5219873 -0.011479602 2.1155835e-21)
(2.5243319 -0.010068834 2.3312332e-21)
(2.5267646 -0.0081591167 -3.7093514e-22)
(2.5288214 -0.0056688776 4.3731875e-22)
(2.5309679 -0.0025930872 1.2927204e-21)
(2.0914021 -0.028043495 4.4475086e-21)
(2.1978715 -0.036000636 4.0148615e-21)
(2.2609889 -0.052804299 -6.4011463e-21)
(2.2783949 -0.041092683 -4.5126681e-21)
(2.307987 -0.03414323 2.428161e-21)
(2.3357474 -0.031185898 1.5711137e-21)
(2.3603036 -0.031570544 2.4844597e-21)
(2.3768684 -0.027955755 2.6756517e-21)
(2.3936261 -0.026984014 9.443701e-22)
(2.4071946 -0.025098318 3.6465301e-22)
(2.4201455 -0.024976561 -3.782946e-22)
(2.430995 -0.023968144 -1.1557582e-21)
(2.4413866 -0.024114388 -7.2745558e-22)
(2.4506178 -0.02352096 -8.6481073e-22)
(2.4592344 -0.023720101 -7.7828749e-23)
(2.4671729 -0.023206494 4.5157695e-22)
(2.4744213 -0.023303957 -2.1549251e-22)
(2.4812129 -0.022757306 -2.5455211e-23)
(2.4873106 -0.022671085 2.396702e-22)
(2.4931214 -0.021999341 3.7313353e-22)
(2.4982525 -0.021725649 3.601219e-22)
(2.5032311 -0.020937236 1.5433986e-22)
(2.5075576 -0.020321993 5.1578807e-22)
(2.5118342 -0.019154303 9.8980934e-22)
(2.51543 -0.018259157 8.8667956e-22)
(2.5190432 -0.016866211 1.8466613e-21)
(2.522068 -0.015317498 3.7016216e-21)
(2.5251368 -0.01315697 2.0220774e-21)
(2.527461 -0.011366757 -5.5046793e-22)
(2.5298502 -0.0091092018 -8.3672248e-22)
(2.5319066 -0.0062474405 -4.4564783e-23)
(2.5340226 -0.0028176189 4.4005816e-22)
(2.0753434 -0.078476584 7.6156512e-22)
(2.1868286 -0.077817921 4.0466853e-21)
(2.2527829 -0.086151347 4.0960309e-21)
(2.2689123 -0.070723497 1.5811181e-22)
(2.2993505 -0.05984465 1.7426205e-21)
(2.3279512 -0.053593228 1.3304165e-21)
(2.3534404 -0.051002475 5.3458722e-22)
(2.3696739 -0.044843832 1.1383333e-21)
(2.3866195 -0.041558571 1.2552292e-21)
(2.3999041 -0.038016935 1.1638961e-21)
(2.4129316 -0.036368469 6.1254014e-22)
(2.4235019 -0.03436328 8.5598813e-22)
(2.4339671 -0.033534082 1.3099995e-22)
(2.4432082 -0.032313007 -5.5300679e-23)
(2.4520494 -0.031859846 -1.7164246e-22)
(2.4601757 -0.030893529 -1.2964955e-21)
(2.4677553 -0.030506057 -8.1345656e-22)
(2.47483 -0.02956481 -1.4236569e-22)
(2.481307 -0.029124565 3.6903515e-23)
(2.4874237 -0.028182511 4.1423849e-22)
(2.4929551 -0.02762437 5.4188934e-22)
(2.4982583 -0.02659304 4.5973734e-23)
(2.502992 -0.025895419 -1.5470047e-22)
(2.5076201 -0.024756367 4.1489373e-24)
(2.5116842 -0.023730326 4.4605123e-22)
(2.5157268 -0.02218375 1.3873373e-23)
(2.5191632 -0.02088906 9.1196468e-22)
(2.522622 -0.019117854 1.3789609e-21)
(2.5255455 -0.017167671 -2.5466154e-22)
(2.5284992 -0.014610963 -1.354452e-21)
(2.5307858 -0.012482857 -1.6396259e-21)
(2.5331127 -0.009913797 1.5352158e-21)
(2.5351431 -0.0067310311 2.021254e-21)
(2.5372027 -0.0030009088 3.0841081e-23)
(2.0666053 -0.12856831 1.3361999e-21)
(2.1806977 -0.11986495 3.1574635e-22)
(2.2486704 -0.11991635 3.4308711e-21)
(2.2637008 -0.10098753 5.5883478e-21)
(2.2945362 -0.086441251 1.6257888e-21)
(2.3237098 -0.076821859 1.2279634e-21)
(2.3497591 -0.071063179 8.6228388e-22)
(2.3653657 -0.062217935 -9.4525129e-22)
(2.3821825 -0.05645645 -3.9596687e-22)
(2.3948209 -0.051170971 2.1809132e-22)
(2.4075719 -0.047912579 1.1270592e-22)
(2.4175495 -0.044947117 4.0503929e-22)
(2.4277927 -0.043151651 6.3297879e-22)
(2.4368163 -0.041409093 1.6835873e-21)
(2.4456729 -0.040355246 1.5302205e-21)
(2.4538589 -0.039025196 4.9395917e-22)
(2.4616327 -0.038204128 -5.6402141e-22)
(2.4689136 -0.036932029 -1.3928092e-21)
(2.4756735 -0.036125671 -7.6696957e-22)
(2.4820238 -0.034866602 -7.2885773e-22)
(2.4878583 -0.034040822 -3.8400045e-22)
(2.493391 -0.032820062 -3.7419555e-22)
(2.4984417 -0.031915435 -8.6039996e-22)
(2.5033236 -0.030614853 -4.0247073e-22)
(2.5077261 -0.029580496 -2.5568544e-22)
(2.5120706 -0.028144561 -7.5708645e-23)
(2.5159155 -0.026763881 -4.9485691e-22)
(2.519764 -0.024870556 -5.3854619e-22)
(2.5230576 -0.023213975 -1.184723e-22)
(2.5263733 -0.021087425 -5.8507663e-22)
(2.5291917 -0.018772574 -1.6350792e-21)
(2.5320211 -0.015853757 -2.2096868e-21)
(2.5342517 -0.013424307 7.9766236e-22)
(2.5364962 -0.010578415 1.7261285e-21)
(2.5384757 -0.0071229708 -1.6980548e-22)
(2.5404545 -0.0031448184 3.7799414e-23)
(2.0644787 -0.1769818 -8.5474606e-22)
(2.1791941 -0.16111422 -4.5088451e-21)
(2.2481785 -0.15345274 -5.5759573e-21)
(2.2623017 -0.13129028 -1.6733702e-21)
(2.293258 -0.1133145 6.3980487e-23)
(2.3228701 -0.10029312 -3.4656894e-23)
(2.349235 -0.091278988 -3.7994235e-22)
(2.3639914 -0.079604703 1.0538784e-21)
(2.3803874 -0.071241894 -6.6098192e-22)
(2.3920221 -0.064117753 -6.871295e-22)
(2.4041449 -0.059163192 -1.0965843e-22)
(2.4131855 -0.055294265 -1.9034285e-22)
(2.4228969 -0.052561301 8.2483006e-23)
(2.4314606 -0.050442239 -1.1386903e-22)
(2.4401086 -0.04888463 8.7014924e-22)
(2.4482359 -0.047340928 1.4936552e-21)
(2.4560776 -0.046174993 5.0831684e-22)
(2.4635203 -0.044651031 2.8450418e-22)
(2.4704891 -0.043528977 -4.8912647e-22)
(2.477036 -0.041986811 -3.60817e-22)
(2.4831065 -0.040868288 -3.179516e-22)
(2.4888039 -0.039388283 -5.2101338e-22)
(2.4940836 -0.038289802 -5.1394129e-22)
(2.4991201 -0.036884363 -1.3754511e-21)
(2.5037701 -0.035721132 -9.4860927e-22)
(2.5083162 -0.034209362 3.6458626e-22)
(2.5124504 -0.032891889 5.4480116e-22)
(2.5165743 -0.03118377 5.9281454e-22)
(2.5202375 -0.029479495 5.6787931e-22)
(2.523923 -0.027252695 -1.4115217e-22)
(2.5270843 -0.025257819 -5.8443997e-22)
(2.5302597 -0.022790793 2.9049122e-23)
(2.5329639 -0.020141633 -4.901966e-22)
(2.5356545 -0.016892043 -9.4773116e-22)
(2.5378097 -0.014195578 -9.3837507e-23)
(2.5399504 -0.0111075 -1.49995e-21)
(2.5418552 -0.007426688 -1.3241404e-21)
(2.5437302 -0.0032513833 5.9187079e-22)
(2.0677315 -0.22275965 -1.6973562e-21)
(2.1815652 -0.20072802 1.0880063e-22)
(2.2507346 -0.18614295 -3.348551e-21)
(2.264218 -0.16113968 -5.1455703e-21)
(2.295138 -0.14004396 -1.4283083e-21)
(2.3252013 -0.12363188 -2.1032277e-21)
(2.351759 -0.11131334 -2.176486e-21)
(2.3655239 -0.096638009 -9.7909354e-23)
(2.3812617 -0.085546759 1.2696188e-21)
(2.3915393 -0.076446934 1.9846346e-22)
(2.4026835 -0.069710199 1.8088914e-22)
(2.4104082 -0.064982387 5.1185224e-22)
(2.4192531 -0.061364642 4.5379751e-22)
(2.4270859 -0.059049452 7.8543861e-22)
(2.4352843 -0.057120449 6.1008941e-22)
(2.4432388 -0.055568813 1.929614e-22)
(2.451029 -0.05419844 7.732137e-22)
(2.4586231 -0.052559094 6.9738683e-22)
(2.4657561 -0.051201807 4.8780931e-22)
(2.4725099 -0.0494069 5.419854e-22)
(2.4787825 -0.048017544 6.7736669e-22)
(2.4846169 -0.046271 5.6244271e-22)
(2.4900667 -0.044932719 3.8603448e-22)
(2.4951799 -0.043335507 -7.3590429e-23)
(2.4999856 -0.042055652 -8.8484233e-22)
(2.5046226 -0.040536827 -5.2050924e-22)
(2.5089522 -0.039172344 7.3282857e-22)
(2.5132504 -0.037476108 4.1518481e-22)
(2.5171757 -0.03590138 4.5761762e-22)
(2.5211336 -0.033922272 7.3948533e-22)
(2.5246446 -0.031907434 7.0096421e-23)
(2.5281863 -0.029348427 -3.76634e-23)
(2.5312179 -0.027030666 5.5367559e-22)
(2.5342471 -0.024235067 1.5821514e-21)
(2.5368231 -0.021279442 1.1810311e-21)
(2.5393557 -0.017730524 1.4227546e-21)
(2.5414149 -0.014800865 1.1137323e-22)
(2.5434296 -0.01150591 -2.3596181e-21)
(2.5452378 -0.0076460723 -5.5604879e-22)
(2.5469886 -0.0033226916 -5.9289871e-22)
(2.0752027 -0.26532604 -5.5685343e-22)
(2.1868658 -0.23817319 3.7974739e-22)
(2.2557355 -0.21756873 2.3355462e-21)
(2.2689365 -0.19017382 1.4439834e-21)
(2.2997461 -0.16634023 -1.8412935e-22)
(2.330359 -0.14655228 -1.139941e-23)
(2.3571333 -0.13094742 -6.2934906e-22)
(2.36987 -0.11310872 -7.4480934e-22)
(2.3847735 -0.099076194 1.3052586e-21)
(2.3933557 -0.087847375 1.498894e-21)
(2.4031674 -0.079182898 4.7813139e-22)
(2.4091744 -0.073636004 7.2116637e-22)
(2.4167904 -0.069181243 1.0524486e-21)
(2.4235913 -0.066863813 2.0297561e-21)
(2.431069 -0.064739898 2.3708479e-21)
(2.4387279 -0.063440512 1.0150538e-21)
(2.4463487 -0.062062344 6.2413938e-22)
(2.4541154 -0.06049779 5.6426561e-22)
(2.4613996 -0.059033987 4.8878893e-22)
(2.4684243 -0.057056366 5.294705e-22)
(2.4749093 -0.055430786 5.8076274e-22)
(2.480904 -0.05338269 5.8899011e-22)
(2.4865003 -0.051786725 4.7681023e-22)
(2.4916414 -0.049955535 1.3757378e-22)
(2.4965318 -0.048497039 -3.0319072e-22)
(2.5011561 -0.046882716 2.4231493e-22)
(2.5055778 -0.045491857 6.0639223e-22)
(2.5099283 -0.043900196 3.6590551e-22)
(2.5140204 -0.04236244 5.9244974e-23)
(2.5181551 -0.0404782 -3.3428752e-22)
(2.5219237 -0.038649436 -7.8012227e-23)
(2.5257573 -0.03638309 -5.4633966e-22)
(2.5291346 -0.034059103 -6.5711868e-22)
(2.5325383 -0.031163471 9.6337898e-23)
(2.5354347 -0.028534909 1.0660237e-21)
(2.5383029 -0.025423485 1.5502946e-21)
(2.5407324 -0.022189373 1.7859366e-21)
(2.5430844 -0.018374227 5.7181876e-22)
(2.5450263 -0.01524548 -1.7683899e-21)
(2.5468932 -0.011779622 -9.4613462e-22)
(2.5485849 -0.0077856312 -9.8740816e-22)
(2.5501939 -0.0033609051 -1.5653853e-21)
(2.0859628 -0.30434183 1.8142203e-21)
(2.1944251 -0.27315744 3.9384774e-23)
(2.2625878 -0.2475351 1.1307372e-21)
(2.2759305 -0.21818792 2.1367071e-21)
(2.3066517 -0.19202984 1.107341e-21)
(2.3380063 -0.16895954 -1.6533365e-22)
(2.3651192 -0.15008544 -8.2303691e-25)
(2.3768893 -0.12871636 8.1187416e-23)
(2.3908804 -0.1116158 8.5387725e-23)
(2.3974252 -0.098052974 -5.5457648e-23)
(2.4055539 -0.087249544 1.0609861e-22)
(2.4093907 -0.080957756 5.3875728e-22)
(2.4154004 -0.075649418 7.5745632e-22)
(2.4208262 -0.073572803 -4.0508875e-23)
(2.4272784 -0.07142568 8.7600973e-22)
(2.4345084 -0.070700622 1.0071414e-21)
(2.4418301 -0.06956704 -3.050018e-22)
(2.4498207 -0.068328035 -3.2313749e-22)
(2.4572722 -0.066943593 -3.955394e-22)
(2.4646901 -0.064886666 -3.7677069e-22)
(2.4714486 -0.063091573 -3.4700737e-22)
(2.4776881 -0.060719303 -1.0775639e-22)
(2.4834567 -0.05883755 -1.1732849e-22)
(2.4886193 -0.056678177 -1.1988698e-22)
(2.4935518 -0.054988832 -4.5194135e-22)
(2.4980727 -0.053222935 -6.7797564e-24)
(2.5024907 -0.051741948 5.1634227e-22)
(2.506762 -0.050184623 1.0837134e-21)
(2.5109058 -0.048724756 8.6403469e-22)
(2.5150911 -0.047062336 1.6855242e-22)
(2.5190262 -0.04535063 -2.035515e-22)
(2.5230699 -0.043248298 -7.5994907e-22)
(2.5267219 -0.041151717 -1.2144546e-21)
(2.5304553 -0.038571362 -9.037197e-22)
(2.533705 -0.035933902 -1.9191425e-22)
(2.5369628 -0.032696939 -7.2938661e-23)
(2.5397101 -0.029770018 3.6869644e-22)
(2.5423953 -0.026358834 -2.4266774e-22)
(2.5446567 -0.0228758 -1.4287313e-21)
(2.5468036 -0.018829675 -1.0994693e-21)
(2.5486072 -0.015536326 -3.0755787e-22)
(2.5503055 -0.011935762 1.0418728e-21)
(2.5518637 -0.0078504523 5.2541236e-22)
(2.5533161 -0.0033682949 6.9302964e-23)
(2.0990705 -0.33966755 6.0788008e-21)
(2.203581 -0.30554384 2.7813284e-21)
(2.2707343 -0.27593904 1.1102782e-21)
(2.2846785 -0.24508991 -1.2553421e-21)
(2.315412 -0.21703791 -5.0579694e-22)
(2.3478086 -0.19078002 1.7281791e-22)
(2.3754967 -0.16872372 -1.1101149e-21)
(2.3864382 -0.14357445 1.6944815e-23)
(2.3995336 -0.12305752 1.7533065e-22)
(2.4037461 -0.10669877 -1.2245868e-22)
(2.4099045 -0.093637419 -2.6913122e-22)
(2.4109765 -0.086441586 -6.9800176e-22)
(2.4149957 -0.080447656 -3.1246673e-22)
(2.4186204 -0.078826267 -1.2850005e-21)
(2.4237072 -0.076868521 -2.0803864e-21)
(2.4303275 -0.077116978 -1.503262e-21)
(2.4372069 -0.076519291 -1.41884e-21)
(2.4454946 -0.075941643 -7.4736631e-22)
(2.4531574 -0.074876655 -7.7183773e-22)
(2.4611549 -0.072891512 -4.4977776e-22)
(2.4683028 -0.071030246 -4.2995209e-22)
(2.4749441 -0.068314339 -5.4250482e-22)
(2.4809696 -0.06612539 -3.2101924e-22)
(2.4862025 -0.063526317 -2.7453319e-22)
(2.4911765 -0.0615205 -2.795274e-22)
(2.4955272 -0.059476414 7.2085962e-22)
(2.4998589 -0.057838472 1.1617094e-21)
(2.5039125 -0.056273786 3.7492062e-22)
(2.5079847 -0.054845056 9.1031688e-22)
(2.5120695 -0.053370362 8.9669379e-22)
(2.5160509 -0.051847372 2.3427411e-22)
(2.5201861 -0.050076053 8.7832873e-23)
(2.5240339 -0.048164203 -4.4000825e-22)
(2.5280381 -0.045794181 -1.022131e-21)
(2.5315974 -0.043405445 -7.2652333e-22)
(2.5352347 -0.040480888 5.9792609e-22)
(2.5383497 -0.037524943 7.2373755e-22)
(2.5414408 -0.033945761 -1.1895675e-22)
(2.5440182 -0.03073571 -7.0752904e-22)
(2.5464928 -0.027045397 -1.9039389e-21)
(2.5485627 -0.023345064 -1.5988031e-21)
(2.5504795 -0.019105131 3.5370005e-22)
(2.5521248 -0.015681704 1.6464245e-21)
(2.5536357 -0.011982288 1.590488e-21)
(2.5550461 -0.0078459724 1.17414e-21)
(2.5563303 -0.0033472099 5.3055991e-22)
(2.1138464 -0.37133088 2.7601848e-21)
(2.2137093 -0.33529661 3.9694297e-21)
(2.2796733 -0.30275999 7.9981591e-22)
(2.2946972 -0.27086448 -2.3659624e-21)
(2.3255823 -0.24135683 -4.4793613e-21)
(2.3594053 -0.2120599 -1.6518231e-21)
(2.3880434 -0.18691963 -1.0796005e-21)
(2.3983474 -0.15757746 -1.8333292e-21)
(2.4106286 -0.13335756 -7.4702702e-22)
(2.4122623 -0.11391469 4.1896193e-22)
(2.416272 -0.098194789 1.3118518e-22)
(2.4140534 -0.090284395 2.1006661e-22)
(2.4154659 -0.083321611 -1.7891782e-22)
(2.4168732 -0.082205886 -1.4493469e-21)
(2.4201491 -0.080791003 -2.4005147e-21)
(2.425945 -0.082380522 -2.1417891e-21)
(2.4321851 -0.082740217 -1.6014693e-21)
(2.4408424 -0.083230163 -1.050569e-21)
(2.4487832 -0.08280477 -4.0674599e-22)
(2.4576034 -0.081105607 -3.8273266e-22)
(2.4653167 -0.079322822 -7.0353876e-23)
(2.4725987 -0.076262582 3.1388539e-22)
(2.4790356 -0.073750944 2.1250657e-22)
(2.4844568 -0.070569339 5.2082397e-22)
(2.4895258 -0.068139589 5.7869727e-22)
(2.4936742 -0.065649177 7.5360155e-22)
(2.4978613 -0.063736279 1.71977e-21)
(2.5015582 -0.062043838 1.8141255e-21)
(2.5054295 -0.060591804 1.0759492e-21)
(2.5092368 -0.059304399 -3.0002158e-22)
(2.5131211 -0.057957681 -3.3749247e-22)
(2.5171929 -0.056531042 7.8358235e-22)
(2.5211225 -0.054912446 6.4965544e-22)
(2.5252999 -0.052959694 9.1682699e-22)
(2.5291109 -0.050802325 3.8326256e-22)
(2.5330996 -0.048104729 -5.1443335e-23)
(2.536571 -0.045395602 1.217696e-21)
(2.5400962 -0.042099548 7.3483173e-22)
(2.5430572 -0.038823328 -6.5524727e-23)
(2.5459499 -0.034907513 -5.0974704e-23)
(2.5483314 -0.031433591 -1.1769306e-21)
(2.5505644 -0.027489622 -1.6385857e-21)
(2.552419 -0.023605493 2.1556555e-22)
(2.5540817 -0.01921029 6.7866095e-22)
(2.5555506 -0.015690858 6.1000589e-22)
(2.5568577 -0.01192757 -7.1974457e-22)
(2.5581091 -0.0077777634 -1.3610268e-21)
(2.5592165 -0.0033000374 4.9440837e-24)
(2.1297805 -0.39937386 -5.2732084e-21)
(2.2242247 -0.36248281 -1.5979608e-21)
(2.2887223 -0.32804576 -5.2090552e-22)
(2.3055541 -0.29553681 -3.5090467e-21)
(2.3367442 -0.26501826 -6.5078491e-21)
(2.3724319 -0.2328868 -2.7457492e-21)
(2.402517 -0.20480293 -2.8871739e-23)
(2.4125017 -0.17081453 -8.5814415e-23)
(2.4240981 -0.14251647 -8.1431207e-22)
(2.4228733 -0.11961409 -2.1224487e-22)
(2.4245223 -0.10082356 9.0619649e-22)
(2.4185741 -0.091587268 7.9253042e-22)
(2.4167141 -0.083862066 8.8388488e-22)
(2.4152149 -0.083951082 1.7220275e-21)
(2.4162547 -0.082881285 5.5751332e-22)
(2.4210587 -0.086434844 -9.2363858e-22)
(2.4264099 -0.088046504 -6.4563514e-22)
(2.4355454 -0.090094817 -4.1894296e-22)
(2.4438304 -0.090725966 1.2362174e-22)
(2.4537794 -0.089580735 -6.9480562e-23)
(2.4622865 -0.08808957 -4.3748195e-23)
(2.4705321 -0.084709318 -1.0405236e-22)
(2.4776135 -0.081876781 2.6380598e-22)
(2.4834243 -0.077948388 1.0555169e-21)
(2.4887098 -0.074959063 1.3621743e-21)
(2.4926722 -0.071792682 -1.0423705e-21)
(2.4966915 -0.069440985 -9.0253058e-22)
(2.4998989 -0.067446956 3.2256918e-22)
(2.5034407 -0.065858058 3.8968006e-22)
(2.5067686 -0.064682146 2.5643103e-22)
(2.510388 -0.063495638 -1.0667348e-21)
(2.514201 -0.062473107 3.4265089e-22)
(2.5180637 -0.061181031 1.422708e-21)
(2.5222742 -0.059710221 1.4536846e-21)
(2.5262419 -0.057930126 1.7205266e-21)
(2.5305179 -0.05570073 7.7569651e-22)
(2.5343167 -0.05324184 3.6483423e-22)
(2.5382841 -0.050156072 -1.4366155e-24)
(2.5416535 -0.047100428 -4.798468e-22)
(2.5450322 -0.043413353 2.4985404e-22)
(2.5478096 -0.039820848 2.679415e-22)
(2.5504646 -0.035581789 6.2022535e-23)
(2.5526207 -0.031867628 -3.5656785e-22)
(2.55458 -0.027700014 -8.9421989e-22)
(2.5561963 -0.023666977 -4.7213534e-22)
(2.5575831 -0.019155779 2.9946154e-23)
(2.5588599 -0.015573506 -1.2415783e-21)
(2.5599499 -0.011780063 -1.8392064e-21)
(2.561034 -0.0076513754 -5.4924497e-22)
(2.5619589 -0.0032291579 -8.0070352e-22)
(2.1462143 -0.4238849 -1.157947e-20)
(2.2345611 -0.3870938 -3.6604974e-21)
(2.2971022 -0.35184347 -1.3997628e-22)
(2.3166494 -0.31918005 -2.9629349e-21)
(2.3485212 -0.28807298 -5.8395856e-21)
(2.3865382 -0.25337002 -2.4261891e-21)
(2.418676 -0.22254995 1.2183074e-21)
(2.4287636 -0.18340906 8.5629685e-21)
(2.43991 -0.15058752 8.6373578e-21)
(2.4355827 -0.1236125 -3.5558329e-22)
(2.4345465 -0.10139394 2.2552717e-22)
(2.4242527 -0.090726603 3.5901922e-22)
(2.4186937 -0.081734563 2.3774321e-22)
(2.4135317 -0.082935933 1.4455274e-21)
(2.4116954 -0.082863705 2.2621732e-21)
(2.4152052 -0.088730811 1.7168662e-21)
(2.4195246 -0.092232594 3.4195007e-22)
(2.4291766 -0.096576626 1.2372645e-23)
(2.4379256 -0.098639717 2.3853246e-22)
(2.4493711 -0.098425249 3.5210919e-22)
(2.4589587 -0.097483738 1.6992569e-22)
(2.4685883 -0.093846351 -1.497259e-22)
(2.4766269 -0.09072327 -1.9992023e-22)
(2.4831216 -0.085864866 -3.0920364e-22)
(2.4888273 -0.082161887 4.3372233e-22)
(2.492685 -0.078027991 -5.0876224e-23)
(2.4965617 -0.075016368 -2.3583983e-21)
(2.4991604 -0.072469201 -1.7307861e-21)
(2.5022518 -0.070571509 -5.8014767e-22)
(2.5048757 -0.069380508 -2.1656491e-21)
(2.5080393 -0.068281928 -2.3336651e-21)
(2.5113544 -0.067660261 -7.2820633e-22)
(2.514963 -0.066735235 6.1994955e-22)
(2.5190178 -0.065872666 6.1758071e-22)
(2.5230063 -0.064552219 6.3870193e-22)
(2.5274619 -0.062902018 4.1479778e-23)
(2.531524 -0.060871866 -8.8722127e-22)
(2.5359124 -0.058262164 -5.2961414e-22)
(2.5396952 -0.055444157 -8.9201175e-22)
(2.5436069 -0.051917242 -5.1382791e-22)
(2.5468427 -0.048495723 1.7626687e-22)
(2.5500262 -0.044409056 2.1787064e-22)
(2.552583 -0.040511386 2.1459656e-23)
(2.5549562 -0.035970639 6.8612788e-23)
(2.5568564 -0.032044016 -4.3527336e-22)
(2.5585107 -0.027686708 3.5505241e-23)
(2.5598678 -0.023540477 5.2104833e-22)
(2.5609602 -0.018952727 6.4893768e-25)
(2.562032 -0.015339534 -5.471866e-22)
(2.562895 -0.011548114 7.8088006e-22)
(2.563806 -0.0074722569 5.6309315e-22)
(2.5645456 -0.003136891 -2.0328528e-21)
(2.1625453 -0.44507275 -4.9326988e-21)
(2.2444129 -0.40940103 -1.0567508e-20)
(2.3044876 -0.37422529 -3.0228316e-21)
(2.3275087 -0.34185101 1.7246232e-20)
(2.3606007 -0.31063491 1.5036897e-20)
(2.4013925 -0.27368895 -2.4404389e-21)
(2.4362878 -0.24036618 8.6120045e-22)
(2.4470018 -0.19549471 -2.4184993e-23)
(2.458002 -0.15766082 6.9486098e-21)
(2.4503626 -0.12599397 5.7296171e-21)
(2.4463716 -0.099808065 -2.8658592e-21)
(2.4310472 -0.08734191 6.6812826e-22)
(2.4213236 -0.076846924 8.0228542e-22)
(2.4119121 -0.079402093 9.9571392e-22)
(2.4064448 -0.080475175 2.1559985e-21)
(2.4081347 -0.089557116 1.8270185e-23)
(2.4111932 -0.095260852 -5.4428623e-22)
(2.4215154 -0.10225347 3.2340789e-22)
(2.4307398 -0.10659197 9.9214871e-24)
(2.4440409 -0.10772636 1.2554693e-22)
(2.4550501 -0.10768331 2.3162932e-22)
(2.4665613 -0.10391365 -2.817537e-23)
(2.4759623 -0.10055932 -3.2651484e-22)
(2.4835447 -0.094584862 2.7660875e-22)
(2.4899661 -0.08999506 1.8050836e-22)
(2.4938723 -0.084538983 2.5259684e-22)
(2.4976971 -0.080589813 -2.0061773e-22)
(2.4995998 -0.077150618 -5.3910846e-22)
(2.5021349 -0.074700812 8.6666298e-23)
(2.5038083 -0.07329083 1.8961751e-21)
(2.5063049 -0.072151797 4.2997362e-22)
(2.5088373 -0.071891218 -1.9117922e-21)
(2.5119631 -0.071329496 -3.7976054e-22)
(2.515619 -0.071156568 -1.0517594e-21)
(2.5194458 -0.070400051 -1.076629e-21)
(2.5239226 -0.069518088 -8.3956699e-22)
(2.5281419 -0.068043919 -1.4308059e-21)
(2.5328896 -0.066056965 -4.5797982e-22)
(2.5370621 -0.063678905 -1.1761017e-22)
(2.5415338 -0.060590329 5.9565166e-23)
(2.5452696 -0.05736196 4.3252755e-22)
(2.5490669 -0.053354751 1.875923e-22)
(2.5521235 -0.049557896 2.2729368e-22)
(2.5550532 -0.045075708 -2.007172e-22)
(2.5573478 -0.040891558 -1.5947566e-22)