/*--------------------------------*- C++ -*----------------------------------*\
| =========                 |                                                 |
| \\      /  F ield         | OpenFOAM: The Open Source CFD Toolbox           |
|  \\    /   O peration     | Version:  v2012                                 |
|   \\  /    A nd           | Website:  www.openfoam.com                      |
|    \\/     M anipulation  |                                                 |
\*---------------------------------------------------------------------------*/
FoamFile
{
    version     2.0;
    format      ascii;
    class       volVectorField;
    location    "81.1321376458981121";
    object      cellDisplacement;
}
// * * * * * * * * * * * * * * * * * * * * * * * * * * * * * * * * * * * * * //

dimensions      [0 1 0 0 0 0 0];


internalField   nonuniform List<vector> 
9200
(
(-0.059360756 0 0)
(-0.059597496 0 0)
(-0.17198961 0 0)
(-0.059987659 0 0)
(-0.17260101 0 0)
(-0.27647302 0 0)
(-0.060464676 0 0)
(-0.17363049 0 0)
(-0.27739443 0 0)
(-0.37319356 0 0)
(-0.060989672 0 0)
(-0.17491123 0 0)
(-0.27895548 0 0)
(-0.37438677 0 0)
(-0.46261271 0 0)
(-0.061532684 0 0)
(-0.17633031 0 0)
(-0.28091091 0 0)
(-0.37640363 0 0)
(-0.46403798 0 0)
(-0.5451617 0 0)
(-0.062075472 0 0)
(-0.17781148 0 0)
(-0.28309687 0 0)
(-0.37895584 0 0)
(-0.46647324 0 0)
(-0.5468153 0 0)
(-0.62130841 0 0)
(-0.062602696 0 0)
(-0.1792953 0 0)
(-0.285386 0 0)
(-0.38181775 0 0)
(-0.46955953 0 0)
(-0.54963285 0 0)
(-0.62316874 0 0)
(-0.69146402 0 0)
(-0.063105959 0 0)
(-0.18074356 0 0)
(-0.28768834 0 0)
(-0.38482571 0 0)
(-0.47303314 0 0)
(-0.55321162 0 0)
(-0.62634712 0 0)
(-0.69353168 0 0)
(-0.75606041 0 0)
(-0.063578409 0 0)
(-0.18212729 0 0)
(-0.28993936 0 0)
(-0.3878591 0 0)
(-0.47669761 0 0)
(-0.55726173 0 0)
(-0.63040796 0 0)
(-0.69706835 0 0)
(-0.75832386 0 0)
(-0.81546962 0 0)
(-0.064017135 0 0)
(-0.18342994 0 0)
(-0.292095 0 0)
(-0.39083078 0 0)
(-0.48040098 0 0)
(-0.56153722 0 0)
(-0.6349918 0 0)
(-0.70157421 0 0)
(-0.76219955 0 0)
(-0.81793095 0 0)
(-0.87007887 0 0)
(-0.064420122 0 0)
(-0.18464042 0 0)
(-0.29412648 0 0)
(-0.39368142 0 0)
(-0.4840365 0 0)
(-0.56586898 0 0)
(-0.63985092 0 0)
(-0.70668914 0 0)
(-0.76716127 0 0)
(-0.82214918 0 0)
(-0.87272932 0 0)
(-0.92021688 0 0)
(-0.064787561 0 0)
(-0.18575424 0 0)
(-0.29601694 0 0)
(-0.39637162 0 0)
(-0.48752903 0 0)
(-0.5701279 0 0)
(-0.64478145 0 0)
(-0.71211227 0 0)
(-0.77278331 0 0)
(-0.82754075 0 0)
(-0.87727683 0 0)
(-0.92305975 0 0)
(-0.96622438 0 0)
(-0.065119911 0 0)
(-0.18677041 0 0)
(-0.29775799 0 0)
(-0.39887778 0 0)
(-0.49082952 0 0)
(-0.57422575 0 0)
(-0.64963666 0 0)
(-0.71761929 0 0)
(-0.77874945 0 0)
(-0.83366807 0 0)
(-0.88310973 0 0)
(-0.92794085 0 0)
(-0.96925275 0 0)
(-1.0083875 0 0)
(-0.065419024 0 0)
(-0.18769082 0 0)
(-0.29934795 0 0)
(-0.40118868 0 0)
(-0.49390794 0 0)
(-0.57810269 0 0)
(-0.65431433 0 0)
(-0.72305351 0 0)
(-0.7848265 0 0)
(-0.84018058 0 0)
(-0.88973187 0 0)
(-0.93419659 0 0)
(-0.97445969 0 0)
(-1.0116055 0 0)
(-1.0470033 0 0)
(-0.06568651 0 0)
(-0.18851977 0 0)
(-0.30078949 0 0)
(-0.40330054 0 0)
(-0.49674939 0 0)
(-0.5817236 0 0)
(-0.65874561 0 0)
(-0.7282951 0 0)
(-0.7908271 0 0)
(-0.84681462 0 0)
(-0.8967793 0 0)
(-0.94132127 0 0)
(-0.98115186 0 0)
(-1.0171415 0 0)
(-1.050405 0 0)
(-1.0823191 0 0)
(-0.065924926 0 0)
(-0.18926196 0 0)
(-0.30208853 0 0)
(-0.40521756 0 0)
(-0.49934913 0 0)
(-0.58506833 0 0)
(-0.66288775 0 0)
(-0.73326722 0 0)
(-0.7966247 0 0)
(-0.85337466 0 0)
(-0.90396376 0 0)
(-0.94890217 0 0)
(-0.98876719 0 0)
(-1.0242551 0 0)
(-1.0562646 0 0)
(-1.0859077 0 0)
(-1.1145923 0 0)
(-0.066136242 0 0)
(-0.18992404 0 0)
(-0.3032531 0 0)
(-0.40694596 0 0)
(-0.50171073 0 0)
(-0.58813268 0 0)
(-0.66671873 0 0)
(-0.73791991 0 0)
(-0.80212983 0 0)
(-0.85972272 0 0)
(-0.91108728 0 0)
(-0.95665143 0 0)
(-0.99689033 0 0)
(-1.0323737 0 0)
(-1.0638112 0 0)
(-1.0920923 0 0)
(-1.1183623 0 0)
(-1.1440363 0 0)
(-0.066323198 0 0)
(-0.19051164 0 0)
(-0.30429234 0 0)
(-0.40849753 0 0)
(-0.5038428 0 0)
(-0.59091766 0 0)
(-0.67022986 0 0)
(-0.74222725 0 0)
(-0.80728827 0 0)
(-0.86575878 0 0)
(-0.91798377 0 0)
(-0.96432596 0 0)
(-1.0051865 0 0)
(-1.0410328 0 0)
(-1.0724208 0 0)
(-1.1000589 0 0)
(-1.1248677 0 0)
(-1.1479898 0 0)
(-1.170874 0 0)
(-0.066487724 0 0)
(-0.19103201 0 0)
(-0.30521612 0 0)
(-0.40988249 0 0)
(-0.50575735 0 0)
(-0.59343535 0 0)
(-0.67342513 0 0)
(-0.74617879 0 0)
(-0.81206773 0 0)
(-0.87142002 0 0)
(-0.92455028 0 0)
(-0.97177347 0 0)
(-1.0134279 0 0)
(-1.0498972 0 0)
(-1.0816231 0 0)
(-1.1091705 0 0)
(-1.1332628 0 0)
(-1.1548151 0 0)
(-1.1750054 0 0)
(-1.1952889 0 0)
(-0.066632423 0 0)
(-0.19149067 0 0)
(-0.30603431 0 0)
(-0.41111539 0 0)
(-0.50746892 0 0)
(-0.59569688 0 0)
(-0.67631347 0 0)
(-0.7497773 0 0)
(-0.81645788 0 0)
(-0.87667199 0 0)
(-0.93071663 0 0)
(-0.97887327 0 0)
(-1.0214289 0 0)
(-1.0586983 0 0)
(-1.0910423 0 0)
(-1.1189104 0 0)
(-1.1428631 0 0)
(-1.1636263 0 0)
(-1.1821463 0 0)
(-1.1995993 0 0)
(-1.2174737 0 0)
(-0.066759017 0 0)
(-0.19189454 0 0)
(-0.30675685 0 0)
(-0.41220745 0 0)
(-0.50899241 0 0)
(-0.59772142 0 0)
(-0.67891191 0 0)
(-0.75303341 0 0)
(-0.82045817 0 0)
(-0.8814991 0 0)
(-0.93644206 0 0)
(-0.98554735 0 0)
(-1.0290625 0 0)
(-1.0672491 0 0)
(-1.1004108 0 0)
(-1.1288998 0 0)
(-1.1531449 0 0)
(-1.1737243 0 0)
(-1.1913788 0 0)
(-1.2070527 0 0)
(-1.2219575 0 0)
(-1.2375867 0 0)
(-0.066869823 0 0)
(-0.19224857 0 0)
(-0.30739303 0 0)
(-0.41317334 0 0)
(-0.51034433 0 0)
(-0.59952386 0 0)
(-0.68123683 0 0)
(-0.75596363 0 0)
(-0.82408194 0 0)
(-0.88590277 0 0)
(-0.94171005 0 0)
(-0.99175186 0 0)
(-1.0362497 0 0)
(-1.0754246 0 0)
(-1.109525 0 0)
(-1.1388351 0 0)
(-1.1636925 0 0)
(-1.1845433 0 0)
(-1.2019606 0 0)
(-1.2166945 0 0)
(-1.2297191 0 0)
(-1.2422437 0 0)
(-1.2557938 0 0)
(-0.066966318 0 0)
(-0.19255883 0 0)
(-0.30795184 0 0)
(-0.41402362 0 0)
(-0.51153927 0 0)
(-0.60112517 0 0)
(-0.68331035 0 0)
(-0.75858821 0 0)
(-0.82734447 0 0)
(-0.8898934 0 0)
(-0.94651919 0 0)
(-0.99746538 0 0)
(-1.0429383 0 0)
(-1.0831286 0 0)
(-1.1182417 0 0)
(-1.1485093 0 0)
(-1.1742039 0 0)
(-1.1956615 0 0)
(-1.2133171 0 0)
(-1.2277665 0 0)
(-1.2397721 0 0)
(-1.2503085 0 0)
(-1.2606186 0 0)
(-1.2722316 0 0)
(-0.067050437 0 0)
(-0.1928296 0 0)
(-0.30844146 0 0)
(-0.41477162 0 0)
(-0.51259345 0 0)
(-0.60254086 0 0)
(-0.68515098 0 0)
(-0.76092896 0 0)
(-0.83026979 0 0)
(-0.8934902 0 0)
(-0.95088093 0 0)
(-1.0026863 0 0)
(-1.0491046 0 0)
(-1.0903074 0 0)
(-1.1264674 0 0)
(-1.1577723 0 0)
(-1.1844446 0 0)
(-1.2067426 0 0)
(-1.2249929 0 0)
(-1.2396545 0 0)
(-1.2513189 0 0)
(-1.2607607 0 0)
(-1.2689817 0 0)
(-1.2772228 0 0)
(-1.2870429 0 0)
(-0.067123445 0 0)
(-0.19306593 0 0)
(-0.30886956 0 0)
(-0.41542668 0 0)
(-0.51351978 0 0)
(-0.60379066 0 0)
(-0.68678151 0 0)
(-0.76300941 0 0)
(-0.8328796 0 0)
(-0.89671584 0 0)
(-0.95481481 0 0)
(-1.0074252 0 0)
(-1.0547445 0 0)
(-1.0969326 0 0)
(-1.1341406 0 0)
(-1.1665243 0 0)
(-1.194259 0 0)
(-1.2175506 0 0)
(-1.2366523 0 0)
(-1.251897 0 0)
(-1.2637357 0 0)
(-1.2727859 0 0)
(-1.2798321 0 0)
(-1.2858777 0 0)
(-1.2921952 0 0)
(-1.3003456 0 0)
(-0.067186896 0 0)
(-0.19327142 0 0)
(-0.30924305 0 0)
(-0.41600019 0 0)
(-0.51433278 0 0)
(-0.60488912 0 0)
(-0.6882196 0 0)
(-0.7648516 0 0)
(-0.83520109 0 0)
(-0.8995966 0 0)
(-0.95834485 0 0)
(-1.011702 0 0)
(-1.0598683 0 0)
(-1.1029983 0 0)
(-1.141231 0 0)
(-1.1746994 0 0)
(-1.2035415 0 0)
(-1.2279202 0 0)
(-1.2480332 0 0)
(-1.2641248 0 0)
(-1.2765304 0 0)
(-1.2857249 0 0)
(-1.2923193 0 0)
(-1.2971142 0 0)
(-1.3011365 0 0)
(-1.3056567 0 0)
(-1.3122623 0 0)
(-0.067241831 0 0)
(-0.1934501 0 0)
(-0.30956826 0 0)
(-0.41650009 0 0)
(-0.5150435 0 0)
(-0.60585378 0 0)
(-0.68948642 0 0)
(-0.76647882 0 0)
(-0.83725728 0 0)
(-0.90215919 0 0)
(-0.96149966 0 0)
(-1.0155429 0 0)
(-1.0644963 0 0)
(-1.108514 0 0)
(-1.1477281 0 0)
(-1.1822598 0 0)
(-1.2122201 0 0)
(-1.2377319 0 0)
(-1.2589553 0 0)
(-1.2760744 0 0)
(-1.289333 0 0)
(-1.2990769 0 0)
(-1.3057746 0 0)
(-1.3100646 0 0)
(-1.3127555 0 0)
(-1.3148769 0 0)
(-1.317727 0 0)
(-1.322895 0 0)
(-0.067289422 0 0)
(-0.19360487 0 0)
(-0.3098508 0 0)
(-0.41693575 0 0)
(-0.51566439 0 0)
(-0.60669727 0 0)
(-0.69059756 0 0)
(-0.76791103 0 0)
(-0.8390743 0 0)
(-0.90443115 0 0)
(-0.96430719 0 0)
(-1.0189767 0 0)
(-1.0686557 0 0)
(-1.1135006 0 0)
(-1.1536422 0 0)
(-1.1891967 0 0)
(-1.2202586 0 0)
(-1.246924 0 0)
(-1.2693132 0 0)
(-1.2875634 0 0)
(-1.3018566 0 0)
(-1.312442 0 0)
(-1.3196686 0 0)
(-1.3240278 0 0)
(-1.3261517 0 0)
(-1.3268662 0 0)
(-1.3272199 0 0)
(-1.3285102 0 0)
(-1.332349 0 0)
(-0.067328274 0 0)
(-0.19373891 0 0)
(-0.31009584 0 0)
(-0.41731373 0 0)
(-0.51620444 0 0)
(-0.60743432 0 0)
(-0.69157147 0 0)
(-0.76916927 0 0)
(-0.84067387 0 0)
(-0.90643872 0 0)
(-0.96679825 0 0)
(-1.0220354 0 0)
(-1.0723771 0 0)
(-1.1179855 0 0)
(-1.1589924 0 0)
(-1.1955149 0 0)
(-1.2276411 0 0)
(-1.2554446 0 0)
(-1.2790114 0 0)
(-1.2984498 0 0)
(-1.3138986 0 0)
(-1.3255306 0 0)
(-1.3336003 0 0)
(-1.3384657 0 0)
(-1.3406143 0 0)
(-1.3407066 0 0)
(-1.3395738 0 0)
(-1.3382676 0 0)
(-1.3381095 0 0)
(-1.3407123 0 0)
(-0.067080008 0 0)
(-0.19384846 0 0)
(-0.31030749 0 0)
(-0.41764164 0 0)
(-0.51667394 0 0)
(-0.60807555 0 0)
(-0.69242131 0 0)
(-0.77027076 0 0)
(-0.84207945 0 0)
(-0.90820773 0 0)
(-0.96900003 0 0)
(-1.0247494 0 0)
(-1.0756937 0 0)
(-1.1220018 0 0)
(-1.1638086 0 0)
(-1.2012371 0 0)
(-1.2343727 0 0)
(-1.2632789 0 0)
(-1.288019 0 0)
(-1.3086715 0 0)
(-1.3253378 0 0)
(-1.3381383 0 0)
(-1.3472557 0 0)
(-1.3529485 0 0)
(-1.3555801 0 0)
(-1.3556594 0 0)
(-1.3538407 0 0)
(-1.350974 0 0)
(-1.3481249 0 0)
(-1.3466144 0 0)
(-1.3480756 0 0)
(-0.066776358 0 0)
(-0.19332773 0 0)
(-0.31048117 0 0)
(-0.41792435 0 0)
(-0.51707991 0 0)
(-0.60863296 0 0)
(-0.69316242 0 0)
(-0.77123359 0 0)
(-0.84331005 0 0)
(-0.90976172 0 0)
(-0.9709417 0 0)
(-1.0271507 0 0)
(-1.0786388 0 0)
(-1.1255833 0 0)
(-1.1681238 0 0)
(-1.2063906 0 0)
(-1.2404738 0 0)
(-1.2704311 0 0)
(-1.2963108 0 0)
(-1.3181672 0 0)
(-1.3360708 0 0)
(-1.3501106 0 0)
(-1.3604157 0 0)
(-1.3671615 0 0)
(-1.3706159 0 0)
(-1.371151 0 0)
(-1.3692728 0 0)
(-1.3656634 0 0)
(-1.3611762 0 0)
(-1.356879 0 0)
(-1.3541141 0 0)
(-1.354515 0 0)
(-0.066499792 0 0)
(-0.19241696 0 0)
(-0.30972048 0 0)
(-0.41815668 0 0)
(-0.51743084 0 0)
(-0.60911504 0 0)
(-0.69380565 0 0)
(-0.77207198 0 0)
(-0.84438553 0 0)
(-0.91112339 0 0)
(-0.97264769 0 0)
(-1.0292679 0 0)
(-1.0812454 0 0)
(-1.1287668 0 0)
(-1.171975 0 0)
(-1.2110122 0 0)
(-1.2459738 0 0)
(-1.2769181 0 0)
(-1.3038884 0 0)
(-1.3269202 0 0)
(-1.3460558 0 0)
(-1.3613659 0 0)
(-1.3729386 0 0)
(-1.3808813 0 0)
(-1.3853856 0 0)
(-1.386723 0 0)
(-1.3852738 0 0)
(-1.3815641 0 0)
(-1.3762701 0 0)
(-1.3702632 0 0)
(-1.3646209 0 0)
(-1.3606857 0 0)
(-1.360109 0 0)
(-0.066253999 0 0)
(-0.19158806 0 0)
(-0.30827431 0 0)
(-0.41718646 0 0)
(-0.51771796 0 0)
(-0.60953146 0 0)
(-0.69436352 0 0)
(-0.77280082 0 0)
(-0.84532191 0 0)
(-0.91231286 0 0)
(-0.97414379 0 0)
(-1.0311303 0 0)
(-1.0835452 0 0)
(-1.1315855 0 0)
(-1.1753991 0 0)
(-1.2151384 0 0)
(-1.250909 0 0)
(-1.2827723 0 0)
(-1.3107695 0 0)
(-1.3349282 0 0)
(-1.3552723 0 0)
(-1.3718456 0 0)
(-1.3847088 0 0)
(-1.3939351 0 0)
(-1.3996498 0 0)
(-1.4020373 0 0)
(-1.4013814 0 0)
(-1.3980694 0 0)
(-1.3926268 0 0)
(-1.3857559 0 0)
(-1.3783294 0 0)
(-1.3714257 0 0)
(-1.3664067 0 0)
(-1.3649231 0 0)
(-0.066040889 0 0)
(-0.19085192 0 0)
(-0.30695718 0 0)
(-0.41527018 0 0)
(-0.51656724 0 0)
(-0.60987245 0 0)
(-0.69484395 0 0)
(-0.77343138 0 0)
(-0.84613551 0 0)
(-0.91334931 0 0)
(-0.97545089 0 0)
(-1.0327629 0 0)
(-1.0855684 0 0)
(-1.1340756 0 0)
(-1.1784338 0 0)
(-1.21881 0 0)
(-1.2553191 0 0)
(-1.2880284 0 0)
(-1.3169831 0 0)
(-1.3422097 0 0)
(-1.3637177 0 0)
(-1.3815271 0 0)
(-1.3956796 0 0)
(-1.4062301 0 0)
(-1.41325 0 0)
(-1.4168504 0 0)
(-1.4172361 0 0)
(-1.4146932 0 0)
(-1.4096195 0 0)
(-1.4025568 0 0)
(-1.3942024 0 0)
(-1.3854459 0 0)
(-1.3773722 0 0)
(-1.3713431 0 0)
(-1.3690251 0 0)
(-0.065862301 0 0)
(-0.19021426 0 0)
(-0.30578763 0 0)
(-0.41352425 0 0)
(-0.51423919 0 0)
(-0.60856719 0 0)
(-0.6952396 0 0)
(-0.77397586 0 0)
(-0.84683908 0 0)
(-0.91424922 0 0)
(-0.97659066 0 0)
(-1.034191 0 0)
(-1.0873434 0 0)
(-1.1362668 0 0)
(-1.1811144 0 0)
(-1.222065 0 0)
(-1.259245 0 0)
(-1.2927292 0 0)
(-1.3225679 0 0)
(-1.3487902 0 0)
(-1.3714021 0 0)
(-1.3904082 0 0)
(-1.4058243 0 0)
(-1.4176924 0 0)
(-1.4260565 0 0)
(-1.430976 0 0)
(-1.4325835 0 0)
(-1.4310756 0 0)
(-1.4267563 0 0)
(-1.4200287 0 0)
(-1.4114337 0 0)
(-1.4016926 0 0)
(-1.3916946 0 0)
(-1.382525 0 0)
(-1.3755623 0 0)
(-1.3724717 0 0)
(-0.065719544 0 0)
(-0.18968005 0 0)
(-0.30477434 0 0)
(-0.41197385 0 0)
(-0.51211855 0 0)
(-0.6058816 0 0)
(-0.69380361 0 0)
(-0.77442319 0 0)
(-0.84744604 0 0)
(-0.91502849 0 0)
(-0.97758044 0 0)
(-1.0354358 0 0)
(-1.0888961 0 0)
(-1.1381919 0 0)
(-1.1834759 0 0)
(-1.2249423 0 0)
(-1.2627281 0 0)
(-1.2969165 0 0)
(-1.3275646 0 0)
(-1.3547105 0 0)
(-1.3783578 0 0)
(-1.3985015 0 0)
(-1.415144 0 0)
(-1.4283036 0 0)
(-1.4380105 0 0)
(-1.444303 0 0)
(-1.4472451 0 0)
(-1.446957 0 0)
(-1.4436597 0 0)
(-1.4376587 0 0)
(-1.4293678 0 0)
(-1.4193416 0 0)
(-1.4082963 0 0)
(-1.3971367 0 0)
(-1.3869525 0 0)
(-1.3791212 0 0)
(-1.3753211 0 0)
(-0.065613998 0 0)
(-0.1892534 0 0)
(-0.30392549 0 0)
(-0.41063036 0 0)
(-0.5102344 0 0)
(-0.6034349 0 0)
(-0.69080974 0 0)
(-0.77287832 0 0)
(-0.84794495 0 0)
(-0.91569929 0 0)
(-0.97843801 0 0)
(-1.0365184 0 0)
(-1.0902507 0 0)
(-1.1398761 0 0)
(-1.1855496 0 0)
(-1.2274773 0 0)
(-1.265808 0 0)
(-1.3006337 0 0)
(-1.3320192 0 0)
(-1.3600116 0 0)
(-1.3846185 0 0)
(-1.4058344 0 0)
(-1.423649 0 0)
(-1.4380601 0 0)
(-1.4490858 0 0)
(-1.4567508 0 0)
(-1.461079 0 0)
(-1.4621328 0 0)
(-1.4600583 0 0)
(-1.4550678 0 0)
(-1.4474853 0 0)
(-1.4377275 0 0)
(-1.4263484 0 0)
(-1.414086 0 0)
(-1.4018436 0 0)
(-1.3907104 0 0)
(-1.3820778 0 0)
(-1.3776225 0 0)
(-0.06554627 0 0)
(-0.18893773 0 0)
(-0.30324728 0 0)
(-0.40950455 0 0)
(-0.50860203 0 0)
(-0.60126087 0 0)
(-0.68808066 0 0)
(-0.76961607 0 0)
(-0.84630873 0 0)
(-0.91625314 0 0)
(-0.97917616 0 0)
(-1.0374552 0 0)
(-1.0914286 0 0)
(-1.1413478 0 0)
(-1.1873659 0 0)
(-1.2297048 0 0)
(-1.2685234 0 0)
(-1.303923 0 0)
(-1.3359749 0 0)
(-1.3647407 0 0)
(-1.3902321 0 0)
(-1.4124425 0 0)
(-1.4313627 0 0)
(-1.4469757 0 0)
(-1.4592758 0 0)
(-1.4682852 0 0)
(-1.4740132 0 0)
(-1.4764792 0 0)
(-1.4757558 0 0)
(-1.4719801 0 0)
(-1.4653909 0 0)
(-1.4563113 0 0)
(-1.4451692 0 0)
(-1.4325278 0 0)
(-1.4191216 0 0)
(-1.4058677 0 0)
(-1.393858 0 0)
(-1.3844816 0 0)
(-1.3794253 0 0)
(-0.065517052 0 0)
(-0.18873524 0 0)
(-0.30274514 0 0)
(-0.40860475 0 0)
(-0.5072334 0 0)
(-0.5993772 0 0)
(-0.68565652 0 0)
(-0.76664326 0 0)
(-0.84281581 0 0)
(-0.9145449 0 0)
(-0.97978723 0 0)
(-1.0382643 0 0)
(-1.09245 0 0)
(-1.1426273 0 0)
(-1.1889513 0 0)
(-1.2316557 0 0)
(-1.2709098 0 0)
(-1.3068241 0 0)
(-1.339477 0 0)
(-1.3689433 0 0)
(-1.3952418 0 0)
(-1.4183717 0 0)
(-1.4383238 0 0)
(-1.4550736 0 0)
(-1.4686047 0 0)
(-1.4789218 0 0)
(-1.4860208 0 0)
(-1.4899035 0 0)
(-1.4905968 0 0)
(-1.4881761 0 0)
(-1.4828003 0 0)
(-1.4746975 0 0)
(-1.4642116 0 0)
(-1.4517711 0 0)
(-1.437938 0 0)
(-1.4234666 0 0)
(-1.4092712 0 0)
(-1.3964435 0 0)
(-1.3863821 0 0)
(-1.3807722 0 0)
(-0.18864754 0 0)
(-0.065517441 0 0)
(-0.30242282 0 0)
(-0.40793812 0 0)
(-0.50613952 0 0)
(-0.59779776 0 0)
(-0.68355518 0 0)
(-0.76400143 0 0)
(-0.83963251 0 0)
(-0.91085912 0 0)
(-0.97802541 0 0)
(-1.0389334 0 0)
(-1.0933306 0 0)
(-1.1437386 0 0)
(-1.1903315 0 0)
(-1.2333594 0 0)
(-1.2730011 0 0)
(-1.3093759 0 0)
(-1.3425667 0 0)
(-1.3726657 0 0)
(-1.3996993 0 0)
(-1.4236688 0 0)
(-1.4445734 0 0)
(-1.4623913 0 0)
(-1.4770907 0 0)
(-1.4886549 0 0)
(-1.4970801 0 0)
(-1.5023644 0 0)
(-1.5044985 0 0)
(-1.5035146 0 0)
(-1.4994977 0 0)
(-1.492597 0 0)
(-1.4830675 0 0)
(-1.4712511 0 0)
(-1.4575871 0 0)
(-1.4426435 0 0)
(-1.4271722 0 0)
(-1.4120993 0 0)
(-1.3985177 0 0)
(-1.3878219 0 0)
(-1.3817052 0 0)
(-0.30228251 0 0)
(-0.1886486 0 0)
(-0.06554777 0 0)
(-0.40750974 0 0)
(-0.50532864 0 0)
(-0.59653523 0 0)
(-0.68179372 0 0)
(-0.76171182 0 0)
(-0.83680334 0 0)
(-0.90749853 0 0)
(-0.97417877 0 0)
(-1.0371352 0 0)
(-1.0940635 0 0)
(-1.1446958 0 0)
(-1.1915275 0 0)
(-1.2348424 0 0)
(-1.2748277 0 0)
(-1.3116125 0 0)
(-1.3452848 0 0)
(-1.375952 0 0)
(-1.403649 0 0)
(-1.4283838 0 0)
(-1.4501634 0 0)
(-1.4689673 0 0)
(-1.4847631 0 0)
(-1.4975229 0 0)
(-1.5072304 0 0)
(-1.5138737 0 0)
(-1.517427 0 0)
(-1.5178943 0 0)
(-1.5153138 0 0)
(-1.5097724 0 0)
(-1.5014394 0 0)
(-1.4905595 0 0)
(-1.4774954 0 0)
(-1.4626849 0 0)
(-1.4466942 0 0)
(-1.430294 0 0)
(-1.4144059 0 0)
(-1.4001223 0 0)
(-1.3888435 0 0)
(-1.3822612 0 0)
(-0.40732219 0 0)
(-0.30228335 0 0)
(-0.18873881 0 0)
(-0.065616235 0 0)
(-0.50480695 0 0)
(-0.59559916 0 0)
(-0.68038521 0 0)
(-0.75979181 0 0)
(-0.8343511 0 0)
(-0.90451229 0 0)
(-0.97067096 0 0)
(-1.033155 0 0)
(-1.0922405 0 0)
(-1.1454943 0 0)
(-1.1925606 0 0)
(-1.2361271 0 0)
(-1.2764178 0 0)
(-1.3135676 0 0)
(-1.3476678 0 0)
(-1.3788438 0 0)
(-1.4071397 0 0)
(-1.4325657 0 0)
(-1.455141 0 0)
(-1.4748545 0 0)
(-1.4916716 0 0)
(-1.5055561 0 0)
(-1.51648 0 0)
(-1.5244218 0 0)
(-1.5293551 0 0)
(-1.5312675 0 0)
(-1.5301565 0 0)
(-1.5260674 0 0)
(-1.5190927 0 0)
(-1.5093946 0 0)
(-1.4972439 0 0)
(-1.4830002 0 0)
(-1.4671113 0 0)
(-1.4501468 0 0)
(-1.4328761 0 0)
(-1.4162303 0 0)
(-1.4013008 0 0)
(-1.3894834 0 0)
(-1.382476 0 0)
(-0.50457798 0 0)
(-0.40732174 0 0)
(-0.30242532 0 0)
(-0.18894326 0 0)
(-0.065722785 0 0)
(-0.59499673 0 0)
(-0.67934079 0 0)
(-0.75825656 0 0)
(-0.83229455 0 0)
(-0.90192311 0 0)
(-0.96755399 0 0)
(-1.0295278 0 0)
(-1.0881546 0 0)
(-1.1436593 0 0)
(-1.1934209 0 0)
(-1.237237 0 0)
(-1.2777972 0 0)
(-1.3152696 0 0)
(-1.3497508 0 0)
(-1.3813808 0 0)
(-1.410213 0 0)
(-1.4362626 0 0)
(-1.4595602 0 0)
(-1.4801012 0 0)
(-1.4978565 0 0)
(-1.5127912 0 0)
(-1.5248662 0 0)
(-1.5340456 0 0)
(-1.5403111 0 0)
(-1.5436368 0 0)
(-1.5439843 0 0)
(-1.5413704 0 0)
(-1.5358443 0 0)
(-1.5275028 0 0)
(-1.5165248 0 0)
(-1.5031715 0 0)
(-1.4878233 0 0)
(-1.4709252 0 0)
(-1.453044 0 0)
(-1.4349667 0 0)
(-1.4176186 0 0)
(-1.4020893 0 0)
(-1.3897781 0 0)
(-1.3823811 0 0)
(-0.59473205 0 0)
(-0.50457562 0 0)
(-0.40750798 0 0)
(-0.30274919 0 0)
(-0.1892612 0 0)
(-0.065866147 0 0)
(-0.67866864 0 0)
(-0.75711799 0 0)
(-0.8306498 0 0)
(-0.89975177 0 0)
(-0.96485103 0 0)
(-1.0263032 0 0)
(-1.0844294 0 0)
(-1.1394883 0 0)
(-1.1915863 0 0)
(-1.2381613 0 0)
(-1.2789859 0 0)
(-1.316747 0 0)
(-1.3515653 0 0)
(-1.3835989 0 0)
(-1.4129115 0 0)
(-1.43952 0 0)
(-1.4634673 0 0)
(-1.4847618 0 0)
(-1.5033779 0 0)
(-1.519281 0 0)
(-1.5324306 0 0)
(-1.5427838 0 0)
(-1.5503118 0 0)
(-1.5549853 0 0)
(-1.5567625 0 0)
(-1.5556294 0 0)
(-1.5515922 0 0)
(-1.54471 0 0)
(-1.5350843 0 0)
(-1.5228869 0 0)
(-1.5084042 0 0)
(-1.492013 0 0)
(-1.474167 0 0)
(-1.4554356 0 0)
(-1.4366042 0 0)
(-1.4186049 0 0)
(-1.4025249 0 0)
(-1.3897588 0 0)
(-1.3820074 0 0)
(-0.67837272 0 0)
(-0.59472868 0 0)
(-0.50480046 0 0)
(-0.40793543 0 0)
(-0.30325268 0 0)
(-0.18968942 0 0)
(-0.066045562 0 0)
(-0.7563847 0 0)
(-0.82942997 0 0)
(-0.89801508 0 0)
(-0.96258417 0 0)
(-1.0235083 0 0)
(-1.0811194 0 0)
(-1.135685 0 0)
(-1.1873497 0 0)
(-1.2363367 0 0)
(-1.2799812 0 0)
(-1.3180197 0 0)
(-1.3531386 0 0)
(-1.3855318 0 0)
(-1.4152721 0 0)
(-1.4423803 0 0)
(-1.466913 0 0)
(-1.4888862 0 0)
(-1.5082824 0 0)
(-1.5250737 0 0)
(-1.539222 0 0)
(-1.5506762 0 0)
(-1.5593957 0 0)
(-1.565354 0 0)
(-1.5685166 0 0)
(-1.5688389 0 0)
(-1.5662893 0 0)
(-1.5608983 0 0)
(-1.5527245 0 0)
(-1.5418753 0 0)
(-1.5285363 0 0)
(-1.5129857 0 0)
(-1.4956201 0 0)
(-1.4768884 0 0)
(-1.4573581 0 0)
(-1.4378302 0 0)
(-1.4192286 0 0)
(-1.4026387 0 0)
(-1.3894565 0 0)
(-1.3813815 0 0)
(-0.75606186 0 0)
(-0.67836852 0 0)
(-0.59498726 0 0)
(-0.50531731 0 0)
(-0.40860052 0 0)
(-0.30393203 0 0)
(-0.1902254 0 0)
(-0.066259097 0 0)
(-0.82864389 0 0)
(-0.89672659 0 0)
(-0.96077087 0 0)
(-1.0211638 0 0)
(-1.0782497 0 0)
(-1.1323062 0 0)
(-1.1834892 0 0)
(-1.2320548 0 0)
(-1.2781741 0 0)
(-1.3190875 0 0)
(-1.3544987 0 0)
(-1.3872099 0 0)
(-1.4173301 0 0)
(-1.444884 0 0)
(-1.4699388 0 0)
(-1.4925242 0 0)
(-1.5126287 0 0)
(-1.5302284 0 0)
(-1.5452912 0 0)
(-1.5577683 0 0)
(-1.567612 0 0)
(-1.5747809 0 0)
(-1.5792499 0 0)
(-1.5809734 0 0)
(-1.5798953 0 0)
(-1.5760112 0 0)
(-1.5693369 0 0)
(-1.5599459 0 0)
(-1.5479475 0 0)
(-1.533522 0 0)
(-1.5169705 0 0)
(-1.4986857 0 0)
(-1.4791241 0 0)
(-1.4588553 0 0)
(-1.4386776 0 0)
(-1.4195193 0 0)
(-1.4024623 0 0)
(-1.3888983 0 0)
(-1.3805299 0 0)
(-0.82829768 0 0)
(-0.75605563 0 0)
(-0.67865511 0 0)
(-0.59558307 0 0)
(-0.5061239 0 0)
(-0.40949903 0 0)
(-0.30478161 0 0)
(-0.19086399 0 0)
(-0.066505438 0 0)
(-0.89589676 0 0)
(-0.95942547 0 0)
(-1.0192891 0 0)
(-1.0758434 0 0)
(-1.1293765 0 0)
(-1.1800577 0 0)
(-1.2281541 0 0)
(-1.2738663 0 0)
(-1.3173073 0 0)
(-1.3556378 0 0)
(-1.3886582 0 0)
(-1.4191175 0 0)
(-1.4470672 0 0)
(-1.4725892 0 0)
(-1.4957223 0 0)
(-1.5164628 0 0)
(-1.5347947 0 0)
(-1.5506948 0 0)
(-1.564115 0 0)
(-1.5750031 0 0)
(-1.5833154 0 0)
(-1.5890176 0 0)
(-1.5920716 0 0)
(-1.5924266 0 0)
(-1.5900331 0 0)
(-1.5848686 0 0)
(-1.5769755 0 0)
(-1.5664251 0 0)
(-1.5533347 0 0)
(-1.5378934 0 0)
(-1.520397 0 0)
(-1.5012551 0 0)
(-1.4809198 0 0)
(-1.4599589 0 0)
(-1.4391826 0 0)
(-1.4195106 0 0)
(-1.4020224 0 0)
(-1.3881105 0 0)
(-1.3794766 0 0)
(-0.89553039 0 0)
(-0.82828982 0 0)
(-0.75636693 0 0)
(-0.67931888 0 0)
(-0.5965132 0 0)
(-0.50721267 0 0)
(-0.41062284 0 0)
(-0.30579533 0 0)
(-0.19160112 0 0)
(-0.066782171 0 0)
(-0.95855896 0 0)
(-1.0178986 0 0)
(-1.0739192 0 0)
(-1.1269204 0 0)
(-1.177084 0 0)
(-1.2246855 0 0)
(-1.2699385 0 0)
(-1.3129856 0 0)
(-1.3538977 0 0)
(-1.3898774 0 0)
(-1.4206593 0 0)
(-1.4489621 0 0)
(-1.4749004 0 0)
(-1.4985236 0 0)
(-1.5198368 0 0)
(-1.5388294 0 0)
(-1.5554873 0 0)
(-1.5697689 0 0)
(-1.5816266 0 0)
(-1.5910083 0 0)
(-1.597868 0 0)
(-1.6021732 0 0)
(-1.6038836 0 0)
(-1.602934 0 0)
(-1.5992731 0 0)
(-1.5929052 0 0)
(-1.5838554 0 0)
(-1.5722142 0 0)
(-1.5580988 0 0)
(-1.5416928 0 0)
(-1.5233125 0 0)
(-1.5033641 0 0)
(-1.4823056 0 0)
(-1.4607067 0 0)
(-1.4393736 0 0)
(-1.4192281 0 0)
(-1.4013461 0 0)
(-1.3871175 0 0)
(-1.3782441 0 0)
(-0.95817609 0 0)
(-0.89552201 0 0)
(-0.82862205 0 0)
(-0.75708769 0 0)
(-0.68035393 0 0)
(-0.59776927 0 0)
(-0.50857668 0 0)
(-0.41196447 0 0)
(-0.30696472 0 0)
(-0.19243009 0 0)
(-0.067086011 0 0)
(-1.017003 0 0)
(-1.0724923 0 0)
(-1.1249568 0 0)
(-1.1745905 0 0)
(-1.2216805 0 0)
(-1.2664484 0 0)
(-1.3090443 0 0)
(-1.3495735 0 0)
(-1.3881794 0 0)
(-1.4219593 0 0)
(-1.4505999 0 0)
(-1.4769071 0 0)
(-1.5009687 0 0)
(-1.5227931 0 0)
(-1.5423786 0 0)
(-1.5597228 0 0)
(-1.5747893 0 0)
(-1.5875313 0 0)
(-1.5979035 0 0)
(-1.6058521 0 0)
(-1.6113297 0 0)
(-1.6143125 0 0)
(-1.6147461 0 0)
(-1.6125595 0 0)
(-1.6077087 0 0)
(-1.600183 0 0)
(-1.5900372 0 0)
(-1.5773577 0 0)
(-1.5622707 0 0)
(-1.5449637 0 0)
(-1.5257506 0 0)
(-1.5050522 0 0)
(-1.4833214 0 0)
(-1.4611265 0 0)
(-1.4392815 0 0)
(-1.4187001 0 0)
(-1.4004575 0 0)
(-1.3859417 0 0)
(-1.3768504 0 0)
(-1.016609 0 0)
(-0.95816653 0 0)
(-0.89587045 0 0)
(-0.82939271 0 0)
(-0.75821466 0 0)
(-0.68175402 0 0)
(-0.59934283 0 0)
(-0.51020336 0 0)
(-0.41351208 0 0)
(-0.30828108 0 0)
(-0.19334078 0 0)
(-0.067334116 0 0)
(-1.0715742 0 0)
(-1.123501 0 0)
(-1.1725981 0 0)
(-1.2191601 0 0)
(-1.2634223 0 0)
(-1.3055433 0 0)
(-1.3456354 0 0)
(-1.3838695 0 0)
(-1.4203116 0 0)
(-1.4519785 0 0)
(-1.4786426 0 0)
(-1.5030938 0 0)
(-1.5253751 0 0)
(-1.5454924 0 0)
(-1.563453 0 0)
(-1.5792283 0 0)
(-1.5927796 0 0)
(-1.6040632 0 0)
(-1.6130212 0 0)
(-1.619602 0 0)
(-1.6237753 0 0)
(-1.6255034 0 0)
(-1.6247213 0 0)
(-1.6213519 0 0)
(-1.6153543 0 0)
(-1.6067431 0 0)
(-1.5955561 0 0)
(-1.581902 0 0)
(-1.5659035 0 0)
(-1.5477427 0 0)
(-1.5277527 0 0)
(-1.5063504 0 0)
(-1.4839931 0 0)
(-1.4612504 0 0)
(-1.4389308 0 0)
(-1.4179503 0 0)
(-1.3993792 0 0)
(-1.3846013 0 0)
(-1.3752321 0 0)
(-1.0711704 0 0)
(-1.0165986 0 0)
(-0.95852858 0 0)
(-0.89668373 0 0)
(-0.83059894 0 0)
(-0.75973726 0 0)
(-0.68350602 0 0)
(-0.60122035 0 0)
(-0.51208215 0 0)
(-0.41525492 0 0)
(-0.30972572 0 0)
(-0.19386053 0 0)
(-0.067294926 0 0)
(-1.1225652 0 0)
(-1.1711219 0 0)
(-1.2171468 0 0)
(-1.260886 0 0)
(-1.302507 0 0)
(-1.3421335 0 0)
(-1.3799414 0 0)
(-1.4160266 0 0)
(-1.4503936 0 0)
(-1.4801037 0 0)
(-1.5049289 0 0)
(-1.5276207 0 0)
(-1.5482122 0 0)
(-1.566726 0 0)
(-1.5831416 0 0)
(-1.5974232 0 0)
(-1.609537 0 0)
(-1.6194308 0 0)
(-1.6270407 0 0)
(-1.6323253 0 0)
(-1.6352634 0 0)
(-1.6358058 0 0)
(-1.6338627 0 0)
(-1.6293697 0 0)
(-1.6222943 0 0)
(-1.6126367 0 0)
(-1.6004658 0 0)
(-1.5858848 0 0)
(-1.5690253 0 0)
(-1.5500687 0 0)
(-1.5293484 0 0)
(-1.5072934 0 0)
(-1.4843553 0 0)
(-1.4611029 0 0)
(-1.4383487 0 0)
(-1.417002 0 0)
(-1.3981299 0 0)
(-1.3829648 0 0)
(-1.3733467 0 0)
(-1.122154 0 0)
(-1.0711609 0 0)
(-1.0169739 0 0)
(-0.95937633 0 0)
(-0.89795459 0 0)
(-0.83222874 0 0)
(-0.76164549 0 0)
(-0.68559872 0 0)
(-0.60338847 0 0)
(-0.51419628 0 0)
(-0.41716722 0 0)
(-0.31048429 0 0)
(-0.19374981 0 0)
(-0.067246585 0 0)
(-1.1701739 0 0)
(-1.2156552 0 0)
(-1.258859 0 0)
(-1.299963 0 0)
(-1.3391 0 0)
(-1.3764516 0 0)
(-1.4121202 0 0)
(-1.4461465 0 0)
(-1.4785879 0 0)
(-1.5064809 0 0)
(-1.5295595 0 0)
(-1.5505769 0 0)
(-1.5695869 0 0)
(-1.5865762 0 0)
(-1.6015193 0 0)
(-1.6143891 0 0)
(-1.6251352 0 0)
(-1.6336977 0 0)
(-1.6400262 0 0)
(-1.6440866 0 0)
(-1.6458588 0 0)
(-1.6452688 0 0)
(-1.6422213 0 0)
(-1.6366531 0 0)
(-1.6285391 0 0)
(-1.6179029 0 0)
(-1.604797 0 0)
(-1.589348 0 0)
(-1.5716818 0 0)
(-1.5519731 0 0)
(-1.5305737 0 0)
(-1.5079082 0 0)
(-1.4844321 0 0)
(-1.4607114 0 0)
(-1.4375566 0 0)
(-1.415874 0 0)
(-1.3964667 0 0)
(-1.3810204 0 0)
(-1.3712433 0 0)
(-1.1697601 0 0)
(-1.1221452 0 0)
(-1.0715447 0 0)
(-1.0178491 0 0)
(-0.96070149 0 0)
(-0.8996752 0 0)
(-0.83427199 0 0)
(-0.76392204 0 0)
(-0.68801314 0 0)
(-0.6058289 0 0)
(-0.5165179 0 0)
(-0.41813329 0 0)
(-0.31030806 0 0)
(-0.19361367 0 0)
(-0.067190657 0 0)
(-1.214698 0 0)
(-1.2573584 0 0)
(-1.2979296 0 0)
(-1.3365559 0 0)
(-1.3734264 0 0)
(-1.408651 0 0)
(-1.442278 0 0)
(-1.4743914 0 0)
(-1.5050356 0 0)
(-1.5312036 0 0)
(-1.5526252 0 0)
(-1.5720773 0 0)
(-1.5895812 0 0)
(-1.6051172 0 0)
(-1.618668 0 0)
(-1.6301935 0 0)
(-1.6396314 0 0)
(-1.6469252 0 0)
(-1.6520432 0 0)
(-1.6549659 0 0)
(-1.655632 0 0)
(-1.6539532 0 0)
(-1.6498429 0 0)
(-1.6432541 0 0)
(-1.6341641 0 0)
(-1.6225841 0 0)
(-1.6085978 0 0)
(-1.5923246 0 0)
(-1.5738988 0 0)
(-1.5534905 0 0)
(-1.5314548 0 0)
(-1.5082251 0 0)
(-1.4842512 0 0)
(-1.4600984 0 0)
(-1.4365754 0 0)
(-1.4141789 0 0)
(-1.3944036 0 0)
(-1.378865 0 0)
(-1.3689195 0 0)
(-1.2142816 0 0)
(-1.1697526 0 0)
(-1.1225361 0 0)
(-1.0724441 0 0)
(-1.0192214 0 0)
(-0.96249674 0 0)
(-0.90182953 0 0)
(-0.83671006 0 0)
(-0.76655142 0 0)
(-0.69073264 0 0)
(-0.6085079 0 0)
(-0.5176619 0 0)
(-0.41789648 0 0)
(-0.31009334 0 0)
(-0.19345654 0 0)
(-0.067125718 0 0)
(-1.2563958 0 0)
(-1.2964249 0 0)
(-1.3345251 0 0)
(-1.3708916 0 0)
(-1.4056427 0 0)
(-1.4388391 0 0)
(-1.4705711 0 0)
(-1.5009012 0 0)
(-1.5298356 0 0)
(-1.5543574 0 0)
(-1.5742308 0 0)
(-1.5921976 0 0)
(-1.6082664 0 0)
(-1.6224323 0 0)
(-1.6346605 0 0)
(-1.6448956 0 0)
(-1.6530862 0 0)
(-1.6591886 0 0)
(-1.6631699 0 0)
(-1.6649966 0 0)
(-1.6646054 0 0)
(-1.6618903 0 0)
(-1.6567725 0 0)
(-1.6492063 0 0)
(-1.6391777 0 0)
(-1.6267174 0 0)
(-1.6118945 0 0)
(-1.594852 0 0)
(-1.5757155 0 0)
(-1.5546482 0 0)
(-1.5320224 0 0)
(-1.5082679 0 0)
(-1.4838356 0 0)
(-1.4592844 0 0)
(-1.4348507 0 0)
(-1.4119552 0 0)
(-1.3921451 0 0)
(-1.3764951 0 0)
(-1.3663742 0 0)
(-1.2559779 0 0)
(-1.2142747 0 0)
(-1.1701522 0 0)
(-1.1234546 0 0)
(-1.0738515 0 0)
(-1.0210765 0 0)
(-0.96474415 0 0)
(-0.90440319 0 0)
(-0.83952604 0 0)
(-0.76951054 0 0)
(-0.69371604 0 0)
(-0.60980632 0 0)
(-0.51736866 0 0)
(-0.41760911 0 0)
(-0.30984441 0 0)
(-0.19327434 0 0)
(-0.067051151 0 0)
(-1.2954604 0 0)
(-1.3330216 0 0)
(-1.3688669 0 0)
(-1.4031233 0 0)
(-1.4358594 0 0)
(-1.4671726 0 0)
(-1.4971336 0 0)
(-1.5257703 0 0)
(-1.5530801 0 0)
(-1.5760598 0 0)
(-1.5944602 0 0)
(-1.6110085 0 0)
(-1.625727 0 0)
(-1.638591 0 0)
(-1.6495509 0 0)
(-1.6585542 0 0)
(-1.6655639 0 0)
(-1.6705446 0 0)
(-1.6734602 0 0)
(-1.674261 0 0)
(-1.6728497 0 0)
(-1.6691363 0 0)
(-1.6630491 0 0)
(-1.6545573 0 0)
(-1.6436467 0 0)
(-1.630338 0 0)
(-1.6147301 0 0)
(-1.5969583 0 0)
(-1.5771549 0 0)
(-1.5554767 0 0)
(-1.5323002 0 0)
(-1.5080603 0 0)
(-1.4832054 0 0)
(-1.4575363 0 0)
(-1.4324435 0 0)
(-1.4095584 0 0)
(-1.3896869 0 0)
(-1.3739093 0 0)
(-1.3636055 0 0)
(-1.295042 0 0)
(-1.2559722 0 0)
(-1.2146792 0 0)
(-1.1710852 0 0)
(-1.1248912 0 0)
(-1.0757578 0 0)
(-1.0234035 0 0)
(-0.96742988 0 0)
(-0.90737315 0 0)
(-0.84269554 0 0)
(-0.77275925 0 0)
(-0.6951418 0 0)
(-0.60945849 0 0)
(-0.51701134 0 0)
(-0.41727572 0 0)
(-0.30955742 0 0)
(-0.1930652 0 0)
(-0.066965323 0 0)
(-1.3320592 0 0)
(-1.3673696 0 0)
(-1.4011107 0 0)
(-1.4333622 0 0)
(-1.4642295 0 0)
(-1.4937853 0 0)
(-1.5220634 0 0)
(-1.549089 0 0)
(-1.5748708 0 0)
(-1.5963852 0 0)
(-1.6133849 0 0)
(-1.6285986 0 0)
(-1.6420347 0 0)
(-1.6536479 0 0)
(-1.6633956 0 0)
(-1.6712414 0 0)
(-1.6771449 0 0)
(-1.6810656 0 0)
(-1.6829621 0 0)
(-1.6827623 0 0)
(-1.6803797 0 0)
(-1.6757177 0 0)
(-1.668714 0 0)
(-1.6593357 0 0)
(-1.6475792 0 0)
(-1.633481 0 0)
(-1.6171282 0 0)
(-1.5986773 0 0)
(-1.578251 0 0)
(-1.5559995 0 0)
(-1.5323122 0 0)
(-1.5076254 0 0)
(-1.4814427 0 0)
(-1.4549353 0 0)
(-1.4298902 0 0)
(-1.4069832 0 0)
(-1.3870273 0 0)
(-1.3711054 0 0)
(-1.3606123 0 0)
(-1.3316434 0 0)
(-1.2950367 0 0)
(-1.256378 0 0)
(-1.2156226 0 0)
(-1.1725471 0 0)
(-1.1268384 0 0)
(-1.0781457 0 0)
(-1.0261798 0 0)
(-0.97052848 0 0)
(-0.91071794 0 0)
(-0.8461747 0 0)
(-0.77429083 0 0)
(-0.69473635 0 0)
(-0.60903464 0 0)
(-0.5165992 0 0)
(-0.4168921 0 0)
(-0.30922669 0 0)
(-0.19282457 0 0)
(-0.066867153 0 0)
(-1.3664111 0 0)
(-1.3996229 0 0)
(-1.4313693 0 0)
(-1.4617618 0 0)
(-1.4908833 0 0)
(-1.5187722 0 0)
(-1.5454574 0 0)
(-1.5709702 0 0)
(-1.5952908 0 0)
(-1.6154057 0 0)
(-1.6310905 0 0)
(-1.6450392 0 0)