/*--------------------------------*- C++ -*----------------------------------*\
| =========                 |                                                 |
| \\      /  F ield         | OpenFOAM: The Open Source CFD Toolbox           |
|  \\    /   O peration     | Version:  v2012                                 |
|   \\  /    A nd           | Website:  www.openfoam.com                      |
|    \\/     M anipulation  |                                                 |
\*---------------------------------------------------------------------------*/
FoamFile
{
    version     2.0;
    format      ascii;
    class       surfaceScalarField;
    location    "81.1321376458981121";
    object      meshPhi;
}
// * * * * * * * * * * * * * * * * * * * * * * * * * * * * * * * * * * * * * //

dimensions      [0 3 -1 0 0 0 0];
oriented        oriented;


internalField   nonuniform List<scalar> 
18180
(
-6.0905722e-14
-0.0081383645
0
-0.0075645973
5.8565834e-14
-0.016551236
6.0978796e-14
-0.0070799443
0
-0.015457569
7.5176757e-18
-0.025034981
0
-0.0066900138
-5.8610669e-14
-0.014462798
0
-0.023489438
0
-0.033318218
-3.0531619e-14
-0.0064224458
0
-0.013640872
7.7976025e-18
-0.022111816
0
-0.031404891
0
-0.041272256
3.055966e-14
-0.0062181195
3.8064252e-18
-0.012981764
0
-0.020842895
0
-0.029683057
0
-0.038978617
4.9923733e-14
-0.048907804
0
-0.0060067564
2.9363619e-14
-0.012417595
3.8773493e-18
-0.019697844
-2.7068932e-14
-0.027984348
7.3654987e-18
-0.03690314
0
-0.046176819
0
-0.056187596
0
-0.0057679667
-2.9383814e-14
-0.011885107
-2.8209859e-14
-0.018669332
2.7080509e-14
-0.026332975
-2.600809e-14
-0.034807641
0
-0.043730588
0
-0.053006989
4.6106415e-14
-0.063164879
0
-0.0055002104
0
-0.011333139
0
-0.017703563
0
-0.024780833
3.6005808e-18
-0.032642406
2.499081e-14
-0.04119097
4.8007701e-14
-0.050133533
0
-0.059504641
5.8787196e-18
-0.06981396
3.064894e-14
-0.0052128058
0
-0.010755001
0
-0.016760774
-2.7112756e-14
-0.023328998
0
-0.030525995
3.3831353e-18
-0.038533455
2.4012163e-14
-0.047210711
0
-0.05620999
0
-0.065716209
-4.2588194e-14
-0.076185671
0
-0.0049157843
0
-0.010160564
0
-0.015821563
0
-0.021960906
2.6051942e-14
-0.028579447
2.5014791e-14
-0.035923833
3.2193489e-18
-0.044142795
0
-0.052914051
0
-0.062018073
0
-0.071656165
0
-0.082210154
0
-0.0046171469
0
-0.0095624002
0
-0.014887739
0
-0.020646865
0
-0.026789612
2.5032183e-14
-0.033490076
0
-0.041080514
-2.3089491e-14
-0.049521055
2.21802e-14
-0.058398144
0
-0.067585357
0
-0.077313646
3.9361451e-14
-0.087900095
-1.5350375e-14
-0.0043223281
-2.9470477e-14
-0.0089715504
0
-0.013968366
0
-0.019372126
0
-0.025110772
-2.5046084e-14
-0.031284878
3.1163625e-18
-0.038234228
0
-0.046165385
-2.2192396e-14
-0.054767762
0
-0.06368784
0
-0.072928269
0
-0.082655648
-3.783823e-14
-0.093200474
1.5357452e-14
-0.004034937
0
-0.008395558
0
-0.013073194
0
-0.018137556
0
-0.023511788
0
-0.029263497
-2.4068615e-14
-0.035652782
2.3118984e-14
-0.042984047
-2.2208384e-14
-0.051182103
2.9765e-18
-0.059844945
-2.0497917e-14
-0.068765112
0
-0.077980863
0
-0.087661236
0
-0.098146397
-1.5361682e-14
-0.0037573094
1.4750122e-14
-0.0078404096
-1.4158447e-14
-0.012210205
0
-0.016949037
0
-0.021979082
3.1053394e-18
-0.027363571
0
-0.033296376
2.3132103e-14
-0.040055119
3.1433786e-18
-0.047726081
-3.0572711e-18
-0.056060635
0
-0.064722998
-1.9706474e-14
-0.073590989
0
-0.082738911
0
-0.092321006
3.4987608e-14
-0.10271011
0
-0.0034917964
2.9511235e-14
-0.0073102434
0
-0.011385487
-1.3599072e-14
-0.015813376
0
-0.020512663
0
-0.025558825
0
-0.031112863
0
-0.037381263
2.2234406e-14
-0.044489875
-4.2718699e-14
-0.05238462
-2.954327e-18
-0.060770115
-1.9715842e-14
-0.069359489
-3.7891818e-14
-0.078138516
0
-0.08717863
0
-0.096646028
0
-0.10692568
0
-0.0032396116
0
-0.0068076938
2.8337746e-14
-0.010603301
0
-0.01473456
0
-0.019116718
0
-0.023839709
0
-0.029053273
3.0671312e-18
-0.034911067
0
-0.041508714
0
-0.048854824
2.053868e-14
-0.056859546
1.9728539e-14
-0.065225517
2.5587289e-18
-0.073724121
-2.34055e-18
-0.082403922
3.5017156e-14
-0.091321075
-3.3653622e-14
-0.10063559
0
-0.11078826
0
-0.0030018387
0
-0.0063337783
0
-0.009865449
1.3608724e-14
-0.013715243
0
-0.017794034
0
-0.022207068
0
-0.02710134
0
-0.03259981
-2.2255896e-14
-0.03876142
0
-0.045552359
0
-0.053054875
0
-0.061146028
0
-0.069439564
0
-0.077838675
1.7517181e-14
-0.086396937
0
-0.095152667
0
-0.10431265
0
-0.1143407
0
-0.0027787168
0
-0.0058888703
0
-0.0091730145
0
-0.012756024
1.5926604e-18
-0.016546142
-1.2555685e-14
-0.020663333
-1.5059117e-18
-0.025253675
0
-0.030419111
0
-0.036213229
2.1398292e-14
-0.04253552
0
-0.04947689
0
-0.057142362
0
-0.065227852
0
-0.073423861
2.277155e-18
-0.081704492
-1.6846196e-14
-0.090117219
3.6563788e-18
-0.098700862
0
-0.1076907
2.9933132e-14
-0.11758546
-1.5384364e-14
-0.0025707255
0
-0.0054726915
0
-0.0085258283
1.3616513e-14
-0.011857195
-1.3075671e-14
-0.015373568
1.2561362e-14
-0.019208785
-1.2066027e-14
-0.02350992
0
-0.02835891
0
-0.033824181
2.1409662e-14
-0.039766656
0
-0.046185276
0
-0.05332096
0
-0.061107391
0
-0.069125135
0
-0.077190344
-1.6858222e-14
-0.085340896
0
-0.093579258
3.1149613e-14
-0.10197636
0
-0.11079505
-2.8790271e-14
-0.1205502
0
-0.0023777838
1.4775292e-14
-0.0050853633
0
-0.0079233667
0
-0.011017238
0
-0.01427568
-1.2563626e-14
-0.017843206
-1.2070109e-14
-0.021869597
-1.1597285e-14
-0.026415441
-1.5960287e-18
-0.031571189
0
-0.037190125
0
-0.043185917
1.9782038e-14
-0.049798774
0
-0.057172329
0
-0.064962158
1.7557681e-14
-0.072834995
0
-0.080763832
-1.6212069e-14
-0.088743468
0
-0.096800686
2.9961864e-14
-0.10500221
0
-0.1136315
0
-0.12324323
0
-0.0021995941
0
-0.0047261473
0
-0.0073641154
-1.3620989e-14
-0.010234422
-1.5350447e-18
-0.013250739
1.4747465e-18
-0.016565634
0
-0.020331626
-1.1601347e-14
-0.024587251
0
-0.029445605
-1.5939832e-18
-0.034768848
0
-0.040423756
0
-0.046580376
1.9023255e-14
-0.053481927
0
-0.060971141
0
-0.068643915
0
-0.076356986
0
-0.084124551
3.1193179e-14
-0.091936197
0
-0.099791237
0
-0.10778257
0
-0.11622311
2.6646142e-14
-0.12569206
-7.6972128e-15
-0.0020353603
0
-0.0043937386
0
-0.0068463636
1.6864844e-18
-0.009506129
-2.6171695e-14
-0.01229612
1.2570014e-14
-0.015374365
-1.2077094e-14
-0.018894755
-1.1606553e-14
-0.02287329
1.1153931e-14
-0.027444353
1.0719583e-14
-0.032483195
0
-0.037836314
1.9801426e-14
-0.043614697
-1.9034924e-14
-0.050062475
-1.8292196e-14
-0.05716649
0
-0.064611461
0
-0.072134118
-1.6240124e-14
-0.079691048
0
-0.087303182
1.7863914e-18
-0.094921104
1.4421145e-14
-0.10256432
2.7725889e-14
-0.11033424
0
-0.11858152
0
-0.12790471
0
-0.0018845008
-9.9212548e-19
-0.0040864001
0
-0.0063674619
0
-0.0088296771
0
-0.011409008
-1.2574147e-14
-0.014266028
1.2080046e-14
-0.017555722
-1.1608315e-14
-0.021271992
0
-0.025566111
1.0723696e-14
-0.03032638
0
-0.035394514
-9.9072309e-15
-0.04085077
1.9042845e-14
-0.046899793
1.8307007e-14
-0.053581179
0
-0.060735689
0
-0.068097425
0
-0.075465208
-1.5621656e-14
-0.082862801
0
-0.090300909
1.6815023e-18
-0.09771763
0
-0.10512467
2.6673716e-14
-0.11267343
0
-0.12072463
0
-0.12990017
0
-0.0017462333
9.9239681e-19
-0.0038026061
-7.0965397e-15
-0.0059248019
0
-0.0082024601
0
-0.010586066
1.2576514e-14
-0.01323718
1.2084188e-14
-0.016310378
-1.1612807e-14
-0.019780016
0
-0.02380833
0
-0.028296372
0
-0.033084898
9.9118701e-15
-0.038242949
-1.5395347e-18
-0.043948196
-1.8318133e-14
-0.05023756
0
-0.057025676
-1.6925691e-14
-0.064185318
0
-0.071438824
1.5634945e-14
-0.07863651
1.5029734e-14
-0.085878425
-1.4445852e-14
-0.093136611
-1.3883523e-14
-0.10031821
0
-0.10749383
2.2422026e-18
-0.11480873
0
-0.12266072
0
-0.13168571
-7.6998825e-15
-0.0016196927
0
-0.0035406443
-7.096473e-15
-0.0055158514
6.8148056e-15
-0.0076217962
0
-0.0098241784
0
-0.012284136
0
-0.015153671
0
-0.018392245
0
-0.022168267
1.6783781e-18
-0.026390285
1.0313539e-14
-0.030903931
1.5282199e-18
-0.035774372
0
-0.041170093
0
-0.047115677
0
-0.053514326
1.6937766e-14
-0.060381949
0
-0.067549895
0
-0.074650739
0
-0.081676608
-1.4457168e-14
-0.088752635
-1.7192099e-18
-0.095795628
1.4694012e-18
-0.10274513
-1.284151e-14
-0.10966958
0
-0.11675259
0
-0.12440299
0
-0.13328011
-7.6996019e-15
-0.0015039293
-7.3935593e-15
-0.0032987219
0
-0.0051380113
0
-0.0070848145
1.3094047e-14
-0.0091197935
0
-0.011402428
0
-0.014080584
0
-0.017103267
0
-0.020640154
-1.0733782e-14
-0.02460512
0
-0.028849613
0
-0.033439184
1.5725563e-18
-0.038540739
0
-0.044185009
8.8135365e-15
-0.050236376
0
-0.056753068
0
-0.063752467
0
-0.070823476
0
-0.077718371
1.4472578e-14
-0.084581521
-1.3909131e-14
-0.091475637
0
-0.098295338
0
-0.10499398
-1.2355769e-14
-0.11166923
0
-0.11851001
0
-0.12596464
2.1975568e-14
-0.13468896
0
-0.0013980769
0
-0.0030750685
-8.804316e-19
-0.0047887188
0
-0.0065885308
-1.3094798e-14
-0.0084692791
6.2903284e-15
-0.010587408
1.2088892e-14
-0.013086244
-1.1619848e-14
-0.015907468
0
-0.019218651
0
-0.02293586
-1.0321581e-14
-0.02691884
-9.9218988e-15
-0.031235124
-9.5410637e-15
-0.036050956
-9.1718588e-15
-0.041416396
8.8199924e-15
-0.047169134
-8.4799409e-15
-0.053327999
0
-0.060039849
0
-0.06703352
-1.5066831e-14
-0.073891051
0
-0.080619298
0
-0.087351156
-1.3382619e-14
-0.094049766
1.2863876e-14
-0.100633
-1.2365773e-14
-0.10708038
-1.040765e-18
-0.11349076
2.286199e-14
-0.12010171
0
-0.12735346
-2.1146873e-14
-0.13592513
0
-0.001301501
-7.3936725e-15
-0.0028680588
8.7854298e-19
-0.0044651873
-6.8176162e-15
-0.0061300785
0
-0.0078689362
-1.258279e-14
-0.0098345911
-7.6438495e-19
-0.01216562
0
-0.014799217
0
-0.01789742
-1.0737143e-14
-0.021377405
1.0324309e-14
-0.025107681
0
-0.029159767
9.5446355e-15
-0.03369633
-9.1775375e-15
-0.038792445
8.824497e-15
-0.044271797
0
-0.050098669
0
-0.056459215
1.5684395e-14
-0.063256415
0
-0.070069912
2.8995121e-14
-0.076755548
0
-0.083407382
1.339771e-14
-0.089994114
0
-0.096482387
-1.2379286e-14
-0.10281802
-1.1898911e-14
-0.10899827
-1.1439494e-14
-0.11515792
0
-0.12152798
2.1156441e-14
-0.12857981
0
-0.13701103
-7.7005908e-15
-0.0012131301
0
-0.0026762822
0
-0.0041652894
7.8126885e-19
-0.0057063418
-6.5492972e-15
-0.0073152145
0
-0.0091398108
6.0467142e-15
-0.011313554
1.1621721e-14
-0.01377247
0
-0.016670311
0
-0.019923758
-1.0325127e-14
-0.023411929
-9.9293765e-15
-0.027209845
0
-0.03147448
9.1811987e-15
-0.036307105
0
-0.041524163
1.5786159e-18
-0.047046385
0
-0.05304568
7.8476524e-15
-0.059545659
-1.5093494e-14
-0.066227406
0
-0.07285371
1.3950527e-14
-0.079497982
-1.3408823e-14
-0.086096216
1.2891585e-14
-0.092520796
0
-0.098771045
-1.3291423e-18
-0.10484461
1.1451284e-14
-0.11076773
0
-0.11666643
0
-0.12280533
0
-0.12966468
8.5549727e-19
-0.1379623
-5.5566153e-06
-0.0013280411
0
-0.0024980025
0
-0.0038870554
6.8185407e-15
-0.0053147014
6.9193084e-19
-0.0068045959
-6.2929092e-15
-0.0084988863
7.6709396e-19
-0.010525239
1.1623121e-14
-0.012821528
1.1173651e-14
-0.015530665
0
-0.018569097
0
-0.021826901
0
-0.025382076
0
-0.029382648
9.1827722e-15
-0.033957194
0
-0.038916974
0
-0.044147457
-8.1663122e-15
-0.049801144
0
-0.055953433
7.5508477e-15
-0.062393411
-1.4520348e-14
-0.068893517
-1.3962924e-14
-0.07551012
1.3423866e-14
-0.082196818
-1.2902698e-14
-0.088704314
-1.2405185e-14
-0.094919957
1.1924748e-14
-0.10091445
-1.2355024e-18
-0.1067238
1.0028732e-18
-0.11238742
1.0594998e-14
-0.11803511
2.0375906e-14
-0.12394261
0
-0.13062424
0
-0.13880161
-9.3451451e-06
-0.0013238998
-1.6400275e-05
-0.0027145496
0
-0.0036277751
0
-0.0049525043
0
-0.0063337383
6.9674441e-19
-0.0079076678
6.0470971e-15
-0.0097963734
1.1625127e-14
-0.011940797
0
-0.014472479
5.371381e-15
-0.017307577
1.0329188e-14
-0.02034741
0
-0.023672392
0
-0.027417891
9.1874737e-15
-0.031740662
0
-0.036447694
-8.4958551e-15
-0.041393595
-8.1721235e-15
-0.046720348
1.5356142e-18
-0.052518719
7.5574465e-15
-0.058659848
7.2656983e-15
-0.064989355
0
-0.071507513
0
-0.078202999
0
-0.084871663
0
-0.091215565
-1.1937673e-14
-0.097189223
-1.1474094e-14
-0.10290991
0
-0.10846032
9.2149548e-19
-0.11387133
0
-0.11926597
1.9610598e-14
-0.12496354
1.8861756e-14
-0.13147599
0
-0.13953263
-1.1569132e-05
-0.0013208662
-2.7582741e-05
-0.0027139361
-2.6109743e-05
-0.003911125
0
-0.0046161145
0
-0.0058994074
0
-0.0073622687
6.0490998e-15
-0.0091226186
-5.8134898e-15
-0.01112535
0
-0.013490179
0
-0.016133384
5.1654351e-15
-0.018968192
0
-0.022076126
0
-0.025575944
-9.1883509e-15
-0.029653694
0
-0.03411513
-8.5008992e-15
-0.038781705
0
-0.043796697
0
-0.049264545
7.5622713e-15
-0.055101672
0
-0.061214341
6.9917059e-15
-0.067588926
0
-0.074202784
0
-0.080931493
0
-0.087486836
1.1948719e-14
-0.09361799
1.1486627e-14
-0.09932013
0
-0.10477082
-1.0616587e-14
-0.110059
1.0206712e-14
-0.11522056
9.8137616e-15
-0.12038247
0
-0.12587716
0
-0.13222806
-1.7466362e-14
-0.14018505
-1.2431706e-05
-0.0013190061
-3.4138706e-05
-0.0027134294
-4.3906942e-05
-0.0039199383
-3.3843716e-05
-0.0049329606
0
-0.0054969224
0
-0.0068593042
0
-0.0084998422
-5.8131607e-15
-0.01037105
-8.6105346e-19
-0.012578609
-1.0747184e-14
-0.015041481
0
-0.017683761
0
-0.020587129
0
-0.023851204
0
-0.027691976
8.8414725e-15
-0.031916409
8.5023601e-15
-0.036310898
0
-0.04102645
7.8673202e-15
-0.046187138
0
-0.051732286
2.8811221e-18
-0.057596762
0
-0.063800287
6.7284006e-15
-0.070302466
0
-0.076953605
0
-0.083614757
0
-0.090018141
0
-0.09589815
-2.2112381e-14
-0.10132472
0
-0.10649223
-9.7068024e-19
-0.11152499
9.8234974e-15
-0.11645263
9.4456147e-15
-0.12139186
0
-0.12670071
0
-0.13290233
5.2390285e-19
-0.14076289
-1.2128709e-05
-0.0013182977
-3.6662368e-05
-0.002713363
-5.4328562e-05
-0.0039270462
-5.6882967e-05
-0.004951073
-3.9991156e-05
-0.0058293414
0
-0.0063937537
0
-0.0079241459
0
-0.0096730536
8.6294542e-19
-0.011733528
-5.3741415e-15
-0.014026855
0
-0.016488898
-4.9688727e-15
-0.019199409
-4.7797178e-15
-0.022237487
9.1946048e-15
-0.025849396
0
-0.029848253
0
-0.033979684
0
-0.038405554
7.8709243e-15
-0.043276953
0
-0.048547337
0
-0.054163529
1.4896507e-18
-0.060161205
-6.7336363e-15
-0.066515704
0
-0.073045956
0
-0.079667717
0
-0.08624755
-1.1511684e-14
-0.092438454
0
-0.098056063
0
-0.10319619
-1.0228191e-14
-0.1080829
-9.8341747e-15
-0.11286573
-9.4550458e-15
-0.11757513
-9.0916411e-15
-0.12231254
0
-0.12744392
0
-0.13350743
-1.6185115e-14
-0.14128557
-1.0856463e-05
-0.0013186055
-3.5737549e-05
-0.0027136856
-5.8309664e-05
-0.0039330364
-7.0342923e-05
-0.0049663231
-6.717732e-05
-0.0058637796
-4.5335422e-05
-0.0067331808
0
-0.0073900236
0
-0.0090266296
0
-0.010949635
8.5378733e-19
-0.013084794
-5.1681907e-15
-0.015378253
-4.9695414e-15
-0.017907207
4.7805066e-15
-0.020729098
-9.1396553e-19
-0.024120335
0
-0.027906051
8.5092253e-15
-0.031785586
0
-0.035931162
-7.8741765e-15
-0.040526807
-7.5729245e-15
-0.045535115
-7.2843678e-15
-0.050909983
0
-0.05667641
0
-0.062831211
0
-0.069226514
-6.2333945e-15
-0.075731811
0
-0.082327153
0
-0.088785405
-1.1079394e-14
-0.094751667
0
-0.10009071
0
-0.10493894
-9.8444586e-15
-0.10953965
0
-0.11409267
9.1007556e-15
-0.11860225
0
-0.1231511
1.6833299e-14
-0.1281232
0
-0.13405639
4.2403799e-19
-0.14175003
-8.8101874e-06
-0.0013198531
-3.1953324e-05
-0.0027142092
-5.6798124e-05
-0.0039378585
-7.5453802e-05
-0.0049795968
-8.3044543e-05
-0.0058935157
-7.6154022e-05
-0.0067891716
-5.0682663e-05
-0.007730545
5.8146446e-15
-0.0084259615
0
-0.010221956
0
-0.012210182
-5.167886e-15
-0.01434663
-7.8476608e-19
-0.016704764
0
-0.019320923
-9.1962732e-15
-0.022500463
-9.6096739e-19
-0.026085018
0
-0.029725466
0
-0.033599881
0
-0.037930929
1.51541e-14
-0.042685755
-7.2897293e-15
-0.047820585
7.0121639e-15
-0.053347078
1.348787e-14
-0.059255665
6.4884886e-15
-0.065456942
6.2386677e-15
-0.071826837
0
-0.078364289
0
-0.084952835
0
-0.091242321
1.066558e-14
-0.096946097
0
-0.1020019
0
-0.1065499
0
-0.11088025
-7.3920518e-19
-0.11521092
1.7520143e-14
-0.11954105
0
-0.12392372
-1.6203677e-14
-0.12874229
0
-0.13455185
0
-0.14216335
-6.1870116e-06
-0.0013220311
-2.5895647e-05
-0.0027148763
-5.073294e-05
-0.0039414908
-7.3459082e-05
-0.0049909203
-8.9056129e-05
-0.0059200592
-9.4143036e-05
-0.0068384592
-8.5155119e-05
-0.0078142425
-5.6116935e-05
-0.0087616343
0
-0.0095442106
0
-0.011397903
0
-0.013388845
0
-0.015586352
0
-0.018008613
0
-0.020985317
-4.4238561e-15
-0.02437946
4.2550245e-15
-0.027795078
0
-0.031408515
0
-0.035485061
0
-0.039993391
0
-0.044887532
0
-0.050173167
0
-0.055811546
0
-0.061767064
-6.2421931e-15
-0.067978064
1.200819e-14
-0.074401639
0
-0.081004594
0
-0.087522316
0
-0.093596668
0
-0.0990288
0
-0.1037865
-1.8974486e-14
-0.10804218
-9.1205719e-15
-0.11210149
-8.7697525e-15
-0.11623174
5.3958799e-19
-0.12040438
0
-0.12463396
-1.5598882e-14
-0.12931169
0
-0.13499379
1.4441915e-14
-0.1425241
-3.1840384e-06
-0.0013251894
-1.8156872e-05
-0.0027157506
-4.1071194e-05
-0.0039439838
-6.558638e-05
-0.0050003173
-8.6689513e-05
-0.0059433372
-0.00010097342
-0.0068825779
-0.0001052869
-0.0078881865
-9.4334147e-05
-0.0088831002
-6.1508176e-05
-0.0098597989
0
-0.010639695
0
-0.012499477
0
-0.01454652
-4.780823e-15
-0.016786583
-9.2546796e-19
-0.019570681
0
-0.022783728
-4.2567078e-15
-0.025988006
4.0953865e-15
-0.029352253
0
-0.033183883
7.5818961e-15
-0.0374535
0
-0.042106778
0
-0.047152125
0
-0.052522103
-6.4943802e-15
-0.058201346
-6.2483046e-15
-0.064188893
1.4074641e-18
-0.070446365
1.4017997e-18
-0.076993539
0
-0.083651245
0
-0.090030423
0
-0.095847807
1.6993023e-18
-0.10098163
0
-0.10544874
9.1325372e-15
-0.10941464
8.01808e-19
-0.11321697
-8.4417754e-15
-0.11716175
1.6234205e-14
-0.12119971
0
-0.12529246
-1.5017227e-14
-0.12982545
1.4448084e-14
-0.13538527
2.8999266e-19
-0.1428387
-0.0013292683
0
-9.3271246e-06
-0.0027168575
-2.8760575e-05
-0.0039453634
-5.3077081e-05
-0.0050077595
-7.7400362e-05
-0.0059632042
-9.8305844e-05
-0.0069213091
-0.00011295461
-0.0079544076
-0.00011669526
-0.0089911731
-0.00010343724
-0.010017819
-6.6596207e-05
-0.010918214
0
-0.011668779
0
-0.013580102
0
-0.015650633
9.2723433e-19
-0.018250775
0
-0.021291469
0
-0.024297302
4.0970114e-15
-0.02742567
-8.1006226e-19
-0.031022347
0
-0.035060827
0
-0.039474446
-7.0209985e-15
-0.044281877
-6.7564698e-15
-0.049390059
-6.4998898e-15
-0.054780297
-6.2511406e-15
-0.060501725
-6.0144156e-15
-0.066566486
-5.7834423e-15
-0.072986836
5.5637159e-15
-0.079661423
-5.350365e-15
-0.086279096
0
-0.092448503
0
-0.097977478
0
-0.10281594
0
-0.10699178
0
-0.11067322
0
-0.11422644
-8.1263276e-15
-0.11801379
-7.8138394e-15
-0.12193504
7.5153486e-15
-0.12589741
0
-0.13029281
1.3910432e-14
-0.13572813
0
-0.14310781
-0.0027180806
0
-0.0013341742
3.2075799e-06
-1.4753514e-05
-0.0039455991
-3.7156086e-05
-0.0050132847
-6.2642852e-05
-0.0059795392
-8.7789737e-05
-0.0069543861
-0.00011000071
-0.0080128163
-0.00012524846
-0.009087783
-0.00012799183
-0.010158293
-0.00011196844
-0.011113228
-7.0943974e-05
-0.011898339
0
-0.01267516
0
-0.014597387
0
-0.01702206
1.0532428e-18
-0.019896645
-4.2589586e-15
-0.022716096
0
-0.025622471
8.1319172e-19
-0.028994598
-3.7940631e-15
-0.032809902
0
-0.036987071
0
-0.041559228
0
-0.04641315
0
-0.051520889
6.2551218e-15
-0.056970253
-6.0172632e-15
-0.062809244
5.7880474e-15
-0.069041786
5.5686864e-15
-0.075616967
-5.3527235e-15
-0.082347192
-5.1502076e-15
-0.088839527
-9.9019738e-15
-0.094759536
0
-0.099988297
0
-0.10452623
0
-0.10841612
-8.4621335e-15
-0.11182
0
-0.11514761
7.8224101e-15
-0.11879306
7.5228099e-15
-0.12261578
0
-0.12645827
0
-0.13070759
0
-0.13602661
0
-0.14333676
-0.0039446581
0
-0.0027195169
9.3564351e-06
-0.0013399545
6.2791915e-06
-1.9056319e-05
-0.0050169177
-4.3862447e-05
-0.0059923485
-7.1068198e-05
-0.0069817119
-9.8255025e-05
-0.008062935
-0.00012202005
-0.0091727913
-0.00013740936
-0.010283024
-0.00013852402
-0.011285468
-0.00011923151
-0.012131742
-7.4596087e-05
-0.012840219
0
-0.013614699
0
-0.015881018
0
-0.018593453
4.2595359e-15
-0.021238011
4.0977363e-15
-0.023936849
0
-0.027095203
-3.7941212e-15
-0.030695491
3.6510111e-15
-0.034639903
0
-0.038980703
0
-0.043588056
0
-0.048420983
0
-0.053600615
6.0212571e-15
-0.059192945
5.7939277e-15
-0.065213269
-5.5717286e-15
-0.071626766
1.0719675e-14
-0.078291106
-5.154018e-15
-0.084975061
-4.9576261e-15
-0.091304559
0
-0.096954161
0
-0.10188057
-8.8114979e-15
-0.1061177
0
-0.10972409
-8.1451384e-15
-0.1128664
7.8321451e-15
-0.1159823
7.5306036e-15
-0.11951104
3.9283386e-19
-0.12324825
0
-0.12696799
1.3402448e-14
-0.13107845
0
-0.13628204
1.7866034e-19
-0.14352883
-0.0050186319
0
-0.0039430108
1.475261e-05
-0.0027212997
1.827272e-05
-0.0013467472
9.0083909e-06
-2.250264e-05
-0.0060016554
-4.9775772e-05
-0.0070032514
-7.9560334e-05
-0.0081044205
-0.00010904165
-0.0092457833
-0.00013389419
-0.010391859
-0.00014867866
-0.011437981
-0.00014745986
-0.012337058
-0.00012529758
-0.013108385
-7.762064e-05
-0.013706602
0
-0.014818931
0
-0.017375673
0
-0.019856567
-4.0983345e-15
-0.022361223
-8.1817174e-19
-0.025318212
0
-0.02871193
0
-0.032429014
-9.2930049e-19
-0.036542542
0
-0.040910836
0
-0.045475771
0
-0.050389635
6.0249235e-15
-0.055738312
-1.6536024e-18
-0.061535782
0
-0.06775336
0
-0.074248488
-5.1588426e-15
-0.080918012
1.421278e-18
-0.087541071
4.7710973e-15
-0.093668173
-9.1754217e-15
-0.099039809
0
-0.10365073
8.4835431e-15
-0.10758224
0
-0.11091885
0
-0.11381699
7.5399235e-15
-0.11674384
7.2498977e-15
-0.12017439
-6.9723513e-15
-0.12383525
0
-0.12743312
-1.2904062e-14
-0.13140174
0
-0.13650067
0
-0.1436919
-0.0060073458
0
-0.0050192173
1.9051784e-05
-0.0039407384
2.875889e-05
-0.0027234665
2.6147098e-05
-0.0013545255
1.1182631e-05
-2.5543494e-05
-0.0070188946
-5.5738168e-05
-0.0081372851
-8.8324061e-05
-0.0093061021
-0.00011967382
-0.010484529
-0.0001448456
-0.011570648
-0.00015822706
-0.012518549
-0.00015487959
-0.01334276
-0.00013031376
-0.014018777
-8.0946785e-05
-0.014841805
0
-0.016230368
0
-0.018565502
-4.0988509e-15
-0.020891337
8.2004862e-19
-0.02365591
3.7956574e-15
-0.026853
0
-0.030349685
3.5162506e-15
-0.034241627
0
-0.03837876
0
-0.042681886
0
-0.047332548
-6.0282615e-15
-0.052443262
0
-0.058007733
-5.5816707e-15
-0.064007279
0
-0.070315554
0
-0.076822384
4.9676959e-15
-0.083493354
1.3758131e-18
-0.090019117
0
-0.095933491
0
-0.10100727
0
-0.10529637
0
-0.10892649
0
-0.11200768
0
-0.11467802
-7.2583102e-15
-0.11744006
0
-0.12079445
-6.712919e-15
-0.12437742
6.457511e-15
-0.12785061
1.2425349e-14
-0.13168791
0
-0.13668753
0
-0.14382959
-0.0070284315
0
-0.0060106854
2.2518641e-05
-0.0050187961
3.7140086e-05
-0.0039375841
4.1073167e-05
-0.0027260874
3.237068e-05
-0.0013632411
1.2585412e-05
-2.8611069e-05
-0.0081615153
-6.1899033e-05
-0.0093535448
-9.6949233e-05
-0.010560724
-0.00012943906
-0.011683255
-0.00015410893
-0.012676116
-0.00016611187
-0.013550383
-0.00016103812
-0.014293316
-0.00013594218
-0.015215424
-8.525774e-05
-0.016170147
-4.2606071e-15
-0.017344783
0
-0.019522897
0
-0.022103398
-3.7962846e-15
-0.02511179
3.6536046e-15
-0.028397552
3.5161892e-15
-0.032074327
0
-0.035987939
-3.2573491e-15
-0.040037042
0
-0.044425653
0
-0.04929692
0
-0.05462614
5.5853709e-15
-0.060385764
-5.3734527e-15
-0.066486494
0
-0.072800727
0
-0.079351695
-4.7808368e-15
-0.086033063
0
-0.092424084
-4.421385e-15
-0.098085168
0
-0.10285548
0
-0.10681386
7.8618221e-15
-0.11015177
0
-0.11299156
-7.2670927e-15
-0.11545868
6.9883595e-15
-0.11808604
0
-0.12137197
1.2927305e-14
-0.1248776
0
-0.12822957
0
-0.13193558
0
-0.1368482
-1.1082865e-14
-0.14394753
-0.0081768108
0
-0.0070337193
2.55773e-05
-0.0060116961
4.392603e-05
-0.0050167319
5.3048364e-05
-0.0039337786
5.0746292e-05
-0.0027292872
3.6329798e-05
-0.0013728942
1.2993215e-05
-3.1782202e-05
-0.0093881779
-6.7950974e-05
-0.010620078
-0.00010484654
-0.011775554
-0.00013768043
-0.012809541
-0.00016173081
-0.013731003
-0.00017269204
-0.014537568
-0.00016804752
-0.015546682
-0.00014318376
-0.016602482
-8.885779e-05
-0.017182517
0
-0.018233692
0
-0.020655434
3.7968314e-15
-0.023480985
9.213116e-19
-0.026565076
-9.7639735e-19
-0.030035894
0
-0.033734705
-6.5159814e-15
-0.037537888
-3.136653e-15
-0.041667199
0
-0.046297298
0
-0.051390645
0
-0.056895887
0
-0.062763939
5.1713644e-15
-0.068905029
-4.9747672e-15
-0.075297307
0
-0.081912746
-4.6024605e-15
-0.088528432
1.2915955e-18
-0.094723244
-4.2574589e-15
-0.10012341
8.1872878e-15
-0.1045782
0
-0.10821288
7.5685004e-15
-0.11126085
7.2768942e-15
-0.11387866
0
-0.11617009
-6.7281681e-15
-0.11868537
-6.4704792e-15
-0.12191349
2.9348871e-19
-0.12533703
0
-0.12856668
1.1520932e-14
-0.13215352
0
-0.13698635
1.0673029e-14
-0.14404915
-0.0094096809
0
-0.0081855521
2.8663863e-05
-0.0070347023
4.9907454e-05
-0.0060090724
6.2781407e-05
-0.0050132005
6.5551724e-05
-0.0039294808
5.6835926e-05
-0.0027331923
3.7402472e-05
-0.0013835244
1.2178252e-05
-3.4891243e-05
-0.010662416
-7.3477169e-05
-0.011847116
-0.00011150511
-0.012918408
-0.00014446155
-0.013884209
-0.00016813334
-0.014751123
-0.00018022496
-0.015838657
-0.00017695462
-0.016978753
-0.00014912592
-0.017659604
-9.0763554e-05
-0.017968676
0
-0.019292767
0
-0.021954323
3.6557723e-15
-0.024847245
3.5186367e-15
-0.028119055
-3.3865119e-15
-0.031613053
0
-0.035180836
-3.1361486e-15
-0.039056392
-3.0190857e-15
-0.043444196
0
-0.048301362
0
-0.053553561
5.3805374e-15
-0.059179259
0
-0.065126861
0
-0.071362756
0
-0.077845769
4.6068217e-15
-0.084458237
1.4403243e-18
-0.090943482
4.2623562e-15
-0.096920091
0
-0.10204322
0
-0.10618762
-7.5782348e-15
-0.1094867
0
-0.11225639
0
-0.11467411
-6.7363007e-15
-0.1168209
0
-0.11924449
0
-0.12241566
2.7365517e-19
-0.12575912
0
-0.1288684
-1.109399e-14
-0.13234268
-1.067716e-14
-0.13710754
-1.0278504e-14
-0.14414209
-0.010687477
0
-0.0094209759
3.1854644e-05
-0.008187843
5.5944627e-05
-0.0070294698
7.1349684e-05
-0.0060028824
7.7634342e-05
-0.0050082212
7.343013e-05
-0.0039248746
5.8385275e-05
-0.0027379176
3.4956752e-05
-0.0013951108
9.9035463e-06
-3.7725318e-05
-0.01189776
-7.8131711e-05
-0.013002424
-0.00011697502
-0.014009496
-0.00015016452
-0.014932943
-0.00017548405
-0.016090976
-0.0001897122
-0.017306036
-0.00018413198
-0.018069151
-0.00015221722
-0.018499562
-9.2295428e-05
-0.018919859
0
-0.02051218
-3.656274e-15
-0.023239575
-3.5182372e-15
-0.026319669
6.77443e-15
-0.029617713
3.2593265e-15
-0.032961174
0
-0.036590664
-6.0386146e-15
-0.040738026
0
-0.045359737
0
-0.050361586
-5.3836471e-15
-0.055742339
-5.1783159e-15
-0.061468565
0
-0.067533148
-4.7948934e-15
-0.073893731
0
-0.080402379
0
-0.086940732
1.3866261e-18
-0.093263596
-4.1022319e-15
-0.099002664
-3.9447769e-15
-0.10385444
7.5863232e-15
-0.10767645
0
-0.11064443
-7.0138936e-15
-0.11314452
0
-0.1153903
0
-0.11741384
6.2369746e-15
-0.11976216
0
-0.12288622
5.7701515e-15
-0.12613967
0
-0.12913563
0
-0.13251238
0
-0.13721583
-9.8989607e-15
-0.14422867
-0.011927214
0
-0.010699412
3.4971944e-05
-0.0094217807
6.2180668e-05
-0.0081812458
8.0002901e-05
-0.0070180989
8.8250883e-05
-0.0059930991
8.7024845e-05
-0.0050021038
7.5452978e-05
-0.003919987
5.4445698e-05
-0.0027436549
2.8348288e-05
-0.0014075732
5.9268721e-06
-4.0113472e-05
-0.013061485
-8.1956736e-05
-0.014106525
-0.0001215984
-0.015082166
-0.00015673352
-0.016302649
-0.00018463287
-0.017584425
-0.00019726232
-0.018425518
-0.00018788931
-0.018956858
-0.00015481984
-0.019515318
-9.4393311e-05
-0.020019864
0
-0.021719623
0
-0.024632465
0
-0.027742821
3.2608356e-15
-0.030874221
-3.1387075e-15
-0.034268122
3.0202717e-15
-0.038178625
2.907854e-15
-0.042566328
2.7985942e-15
-0.047318703
0
-0.052454822
0
-0.057955787
0
-0.063819343
0
-0.07003669
0
-0.07643541
0
-0.082909221
4.2698742e-15
-0.089353124
4.1093324e-15
-0.095485756
3.9504362e-15
-0.10097889
3.7977224e-15
-0.10554757
-7.3035352e-15
-0.10905006
0
-0.11168187
0
-0.11393469
6.4931064e-15
-0.11603013
0
-0.11795432
0
-0.12024649
-5.7759562e-15
-0.12331525
-5.5557938e-15
-0.12648399
5.3456253e-15
-0.12937672
0
-0.13266111
9.9026918e-15
-0.13731583
0
-0.14431406
-0.013095249
0
-0.011940956
3.7811019e-05
-0.010697946
6.826242e-05
-0.0094087916
8.8923996e-05
-0.0081657806
9.8981248e-05
-0.0070006256
9.8947941e-05
-0.0059798775
8.9488792e-05
-0.0049950525
7.0381856e-05
-0.0039152835
4.4055342e-05
-0.0027506717
1.6921037e-05
-0.0014206268
0
-4.2074882e-05
-0.014174711
-8.5199938e-05
-0.015197887
-0.00012691273
-0.016472779
-0.00016480633
-0.017813955
-0.00019181932
-0.018728515
-0.00020121429
-0.019356155
-0.00019112824
-0.020031507
-0.0001583713
-0.020684804
-9.6591908e-05
-0.021104602
0
-0.023032434
0
-0.025982055
-3.2614556e-15
-0.028915177
-3.1386781e-15
-0.032082644
3.021125e-15
-0.035764344
2.9078767e-15
-0.039921467
2.7997234e-15
-0.04442497
2.6935329e-15
-0.04931452
0
-0.054592073
0
-0.060234262
0
-0.066266575
0
-0.072556089
4.4427537e-15
-0.078926145
-4.2738275e-15
-0.08535031
0
-0.09168353
1.2758021e-18
-0.097602223
0
-0.10283561
3.6561874e-15
-0.10712626
0
-0.11030544
0
-0.11261622
0
-0.11463358
-6.2519974e-15
-0.11660289
-6.0122102e-15
-0.11844755
0
-0.12069254
-5.5617224e-15
-0.12371056
0
-0.12679127
0
-0.12958997
0
-0.13279626
-9.5371563e-15
-0.13740919
-9.1799594e-15
-0.14439977
-0.014213179
0
-0.013109991
4.0204836e-05
-0.011938943
7.3809939e-05
-0.010678588
9.760919e-05
-0.0093820009
0.00011002002
-0.0081413157
0.0001110128
-0.0069769822
0.00010176116
-0.0059632671
8.3534997e-05
-0.0049874519
5.6971777e-05
-0.0039110483
2.6239497e-05
-0.0027584125
0
-0.0013049116
0
-4.3742757e-05
-0.015279351
-8.8907536e-05
-0.016600992
-0.00013335822
-0.017994545
-0.00017110151
-0.018978173
-0.00019562129
-0.019696999
-0.00020471139
-0.020481614
-0.00019553169
-0.021261252
-0.00016206328
-0.021844415
-9.8687803e-05
-0.022281285
0
-0.024303143
0
-0.027079946
0
-0.03003367
0
-0.03349201
2.9087423e-15
-0.037422645
2.7997511e-15
-0.041680858
5.3903032e-15
-0.046320838
2.5933433e-15
-0.05137092
0
-0.056786842
-4.8028672e-15
-0.062597092
0
-0.068736935
0
-0.075008678
0
-0.08135925
1.6225865e-18
-0.087751036
0
-0.093925536
1.2118496e-18
-0.099605868
0
-0.10457716
0
-0.10859026
-6.7694582e-15
-0.11145685
0
-0.11344577
6.2598551e-15
-0.11525045
0
-0.11711349
5.7885065e-15
-0.11890073
0
-0.12110538
5.3553342e-15
-0.12405898
1.8324622e-19
-0.1270695
0
-0.12977917
-9.5422887e-15
-0.13291497
0
-0.13750087
-0.0013225247
-0.14316341
-0.015325391
0
-0.014229134
4.216951e-05
-0.013105466