/*--------------------------------*- C++ -*----------------------------------*\
| =========                 |                                                 |
| \\      /  F ield         | OpenFOAM: The Open Source CFD Toolbox           |
|  \\    /   O peration     | Version:  v2012                                 |
|   \\  /    A nd           | Website:  www.openfoam.com                      |
|    \\/     M anipulation  |                                                 |
\*---------------------------------------------------------------------------*/
FoamFile
{
    version     2.0;
    format      ascii;
    class       volScalarField;
    location    "81.1321376458981121";
    object      p;
}
// * * * * * * * * * * * * * * * * * * * * * * * * * * * * * * * * * * * * * //

dimensions      [0 2 -2 0 0 0 0];


internalField   nonuniform List<scalar> 
9200
(
0.0027486176
0.0016518382
0.015413371
4.0620545e-05
0.013627818
0.025467775
-0.0027939227
0.0110539
0.022139356
0.037846165
-0.0066222898
0.0063215468
0.017940231
0.034693725
0.051608732
-0.011759264
-0.00063589549
0.0098342219
0.029777164
0.049030684
0.066369837
-0.018168189
-0.010697645
-0.0023210611
0.020795533
0.04468286
0.064918002
0.081123206
-0.025833505
-0.024394385
-0.020334806
0.0069191381
0.036819938
0.062088425
0.081006361
0.095025195
-0.034553438
-0.04242562
-0.045739433
-0.014063947
0.024405426
0.057056587
0.080173715
0.096180997
0.10738855
-0.043982935
-0.06548405
-0.08053832
-0.044458099
0.0055230165
0.04876068
0.078694717
0.097383092
0.10960528
0.11781017
-0.053810246
-0.094027987
-0.12782474
-0.086793327
-0.022415012
0.035926664
0.075658531
0.099355335
0.11255791
0.1208112
0.12613617
-0.064186403
-0.12834575
-0.1912407
-0.14706741
-0.063046102
0.016460324
0.070569875
0.10136786
0.11737531
0.12508348
0.12964125
0.13240443
-0.074671731
-0.16789316
-0.27516932
-0.23115484
-0.12185353
-0.012520372
0.062272796
0.1035247
0.12343181
0.13194888
0.13477962
0.1361656
0.13677698
-0.086417987
-0.21161143
-0.38435629
-0.34745763
-0.20615964
-0.055296367
0.049395585
0.10543884
0.1311442
0.14079958
0.14290783
0.14176518
0.14059274
0.13948192
-0.098685191
-0.25993078
-0.5273149
-0.50695193
-0.32727033
-0.11828609
0.02980014
0.10689011
0.14049651
0.15213457
0.15338351
0.15048867
0.14632622
0.14319938
0.14077192
-0.11189986
-0.30286743
-0.69555311
-0.71997429
-0.49931026
-0.21190408
1.3616093e-05
0.10734906
0.15174525
0.16600715
0.16664481
0.16164505
0.15512951
0.14882076
0.14428149
0.14089666
-0.12255398
-0.34322839
-0.87342911
-0.98200472
-0.73244569
-0.34897286
-0.045398423
0.10584599
0.16495187
0.18271995
0.18265689
0.17554496
0.166275
0.15733393
0.14961656
0.14412447
0.14008782
-0.12503074
-0.39368503
-1.0441144
-1.2851681
-1.0352991
-0.54520891
-0.11487479
0.10035123
0.18000862
0.20235025
0.20157254
0.19201479
0.17993063
0.16800032
0.15759134
0.149057
0.14298722
0.13855078
-0.11770746
-0.45528648
-1.1699823
-1.5689892
-1.3758569
-0.79644864
-0.21894508
0.086991972
0.19619012
0.22482471
0.22327188
0.21101391
0.19579594
0.18085863
0.16748541
0.1563383
0.14744477
0.14109588
0.13646307
-0.10576738
-0.51665873
-1.243511
-1.8013722
-1.6868355
-1.0495589
-0.35046759
0.062615647
0.21189854
0.24960134
0.2474601
0.23220946
0.21366569
0.19551863
0.17923365
0.16529308
0.15394482
0.14503762
0.13864395
0.13397743
-0.095063971
-0.56211841
-1.2708787
-1.9573978
-1.9348431
-1.2846172
-0.49307274
0.028196745
0.22545191
0.27559972
0.27343153
0.25510018
0.23305571
0.21166333
0.19239837
0.17578025
0.16187907
0.15071493
0.14205021
0.1357937
0.13121766
-0.086447942
-0.57698232
-1.252818
-2.0248922
-2.0955149
-1.4714383
-0.63325906
-0.015480513
0.23500713
0.30127586
0.30008424
0.27884917
0.25334974
0.22873202
0.20660326
0.18735226
0.17105583
0.15760224
0.14689353
0.13865855
0.13267544
0.12828025
-0.076861009
-0.55643881
-1.1949108
-2.006302
-2.1614928
-1.5995952
-0.75123924
-0.073597071
0.23577588
0.32399519
0.32584412
0.30233585
0.27367995
0.24607835
0.22127225
0.19961507
0.18104668
0.16547832
0.15274048
0.14267531
0.13500505
0.12939605
0.12528309
-0.065319437
-0.51553783
-1.1076553
-1.9148935
-2.1428432
-1.6704278
-0.84975692
-0.15225795
0.21923385
0.33890767
0.34841273
0.32411999
0.29301208
0.26288337
0.23578795
0.21201976
0.19146939
0.17395419
0.15935645
0.14750693
0.1382141
0.13120519
0.12604729
0.12231364
-0.053679411
-0.46708864
-1.002099
-1.7705161
-2.0547486
-1.6830639
-0.93913753
-0.24934021
0.1764136
0.33906837
0.36453704
0.34245602
0.31015271
0.27826338
0.24942459
0.22401293
0.20182825
0.18267889
0.16640502
0.15291672
0.14206452
0.1336315
0.12735135
0.12270032
0.11928647
-0.043021033
-0.41408777
-0.88885279
-1.5937873
-1.9151386
-1.646899
-1.0173222
-0.36584491
0.10000432
0.31686504
0.37012854
0.35535802
0.32384808
0.29129371
0.2614655
0.23498027
0.21165108
0.19122366
0.17357768
0.15862813
0.14632503
0.13653772
0.12902293
0.12351448
0.11940981
0.11634861
-0.033598811
-0.36162726
-0.77548407
-1.4022546
-1.7451918
-1.5807399
-1.0877991
-0.50473539
-0.01485117
0.26574382
0.36090631
0.36079872
0.33288738
0.30112393
0.27122381
0.24436056
0.22043518
0.1992002
0.18051612
0.16437956
0.15078184
0.13970326
0.13102221
0.12446237
0.11975339
0.11622156
0.1136252
-0.025186317
-0.3125898
-0.66505396
-1.2108631
-1.5631285
-1.4987808
-1.155262
-0.66544941
-0.17039652
0.18110365
0.33325896
0.35700347
0.33629501
0.30705022
0.27812859
0.25164488
0.2277425
0.20619959
0.18691525
0.16987951
0.15522437
0.1429766
0.13314237
0.12559266
0.12000871
0.11611483
0.11315344
0.11101791
-0.017476451
-0.26745556
-0.55943653
-1.0295705
-1.3809936
-1.4115646
-1.2195792
-0.84475061
-0.36659671
0.06012044
0.28434161
0.34259628
0.3334556
0.30862511
0.28176377
0.25645921
0.23319597
0.21189501
0.19244933
0.17492642
0.15943539
0.14619774
0.13529086
0.12671083
0.12030607
0.11570787
0.11263495
0.1102444
0.10855919
-0.010847487
-0.22643132
-0.46082738
-0.86337049
-1.2056735
-1.3243867
-1.2787987
-1.0366087
-0.60042364
-0.097511755
0.21272114
0.31675163
0.32410794
0.30575312
0.28194727
0.25860593
0.23658812
0.21604362
0.19689377
0.17922952
0.16325511
0.14921403
0.13735542
0.12778171
0.12046164
0.11520747
0.11159564
0.10933833
0.10752048
0.10627525
-0.0052966553
-0.18942933
-0.37102063
-0.71278595
-1.0426072
-1.2385799
-1.3328882
-1.2373599
-0.86593663
-0.28932006
0.12050604
0.27985192
0.30917109
0.29882387
0.27929885
0.25809225
0.23782134
0.21849141
0.20007877
0.18266883
0.16650728
0.15192379
0.13924355
0.12873564
0.12049244
0.11443618
0.11033165
0.10769915
0.10624381
0.10499158
0.10417143
-0.00042404317
-0.15151857
-0.29061714
-0.57937644
-0.89588444
-1.1556902
-1.3830204
-1.4465227
-1.1551637
-0.51111117
0.0075993547
0.23265515
0.28814415
0.28795876
0.27326635
0.25511061
0.23694243
0.2192132
0.20191478
0.18512292
0.1691023
0.15422354
0.14091015
0.12953593
0.12036689
0.11345758
0.10866731
0.10570554
0.10403823
0.1033645
0.10266456
0.10225222
0.0044213918
-0.11271825
-0.21235489
-0.46240844
-0.76656945
-1.0788734
-1.4237505
-1.657867
-1.459626
-0.75485856
-0.12045164
0.17699759
0.26275725
0.27409263
0.26481597
0.24988311
0.23410396
0.2182635
0.20238571
0.18654145
0.17097007
0.15606934
0.14231187
0.13019016
0.12009866
0.1122729
0.10670594
0.10318142
0.10134946
0.10062651
0.1007084
0.1005421
0.10051844
0.0093324615
-0.075186817
-0.13738304
-0.34936853
-0.65197371
-1.0082938
-1.4539919
-1.8576188
-1.7688157
-1.0124273
-0.25807402
0.1149084
0.2341549
0.25811147
0.25454685
0.24286579
0.22957116
0.215777
0.20155324
0.18692339
0.17208948
0.15743214
0.14345248
0.13070962
0.11974337
0.11093975
0.1044757
0.10026225
0.097999462
0.09727817
0.097472505
0.098279185
0.098623616
0.098967682
0.014275657
-0.039182162
-0.067795472
-0.24251944
-0.53478086
-0.94121976
-1.4739864
-2.0402363
-2.0695315
-1.2762682
-0.39912443
0.048401194
0.20352694
0.24086897
0.24313391
0.2345563
0.22367889
0.21196845
0.19952896
0.18631814
0.17246653
0.15831345
0.14434077
0.13114544
0.11936328
0.10955657
0.10207097
0.096997015
0.094148111
0.093137786
0.093501592
0.094580392
0.096076966
0.096905899
0.097594722
0.019310363
-0.0050110677
-0.0040774502
-0.14408341
-0.42126713
-0.86067978
-1.4865135
-2.1984704
-2.3452391
-1.5351381
-0.53754864
-0.020630317
0.17193508
0.22325086
0.23126116
0.22547885
0.21681856
0.20709184
0.19646204
0.18480528
0.17213286
0.15872272
0.14500236
0.13154694
0.1190568
0.10823249
0.09962683
0.093508997
0.089858791
0.088382202
0.088608485
0.090025318
0.091950601
0.094098874
0.095383545
0.0963929
0.024426696
0.027098283
0.053543099
-0.055385968
-0.31402118
-0.77269933
-1.4801955
-2.3356999
-2.5859202
-1.7729529
-0.66811182
-0.09050242
0.14026179
0.20586941
0.21946292
0.21616804
0.20935163
0.20143504
0.19252861
0.18248109
0.17113236
0.15867488
0.14545455
0.13197006
0.11891808
0.1071128
0.097294049
0.089962689
0.08527551
0.0830829
0.082980226
0.084419673
0.086851103
0.089580393
0.092339625
0.094049492
0.095356887
0.029620362
0.056895663
0.10506621
0.02374467
-0.21555657
-0.68484593
-1.4415523
-2.4529697
-2.789053
-1.9845618
-0.78666469
-0.15965493
0.10921555
0.18909249
0.20805694
0.20672955
0.20156641
0.19524293
0.18790425
0.1794549
0.16951071
0.15817816
0.14570252
0.13245149
0.11904273
0.10633942
0.095261954
0.086543607
0.080584107
0.077396293
0.076690344
0.077954624
0.080575731
0.083977296
0.087464358
0.090791996
0.092895615
0.094481835
0.034839676
0.084233154
0.15068712
0.093364697
-0.12592417
-0.59828554
-1.388158
-2.5089309
-2.9802516
-2.1639077
-0.89499389
-0.2283134
0.079487135
0.17325178
0.19714182
0.19801569
0.19378546
0.18877904
0.18274076
0.17582474
0.16731263
0.15722652
0.14572642
0.13300186
0.11950143
0.10605625
0.093721063
0.083479926
0.075996406
0.071520959
0.069899605
0.070700265
0.073314475
0.077077434
0.081399268
0.085594861
0.089447176
0.091912936
0.093754823
0.040049969
0.10891379
0.19062518
0.15381653
-0.045430502
-0.51319812
-1.3194261
-2.5392997
-3.125875
-2.3517881
-0.99228906
-0.28360415
0.051381742
0.15844674
0.18700342
0.190339
0.18651138
0.18241138
0.17721029
0.17168812
0.16456973
0.15579836
0.14547398
0.13359224
0.1203327
0.10638337
0.092868402
0.081007318
0.071771563
0.065685569
0.062810645
0.062814215
0.0651292
0.069065161
0.073922215
0.079109777
0.083962422
0.088295069
0.091091302
0.093149761
0.13072398
0.045187972
0.2250101
0.20545847
0.026083844
-0.43100342
-1.2406138
-2.5368759
-3.2248504
-2.5238949
-1.1115443
-0.3339092
0.025921476
0.14436575
0.17774998
0.18295267
0.1799143
0.17567478
0.17137102
0.16711795
0.16131151
0.15385135
0.14485898
0.13414492
0.12152724
0.10740897
0.092883206
0.079375404
0.068183243
0.060170375
0.055658915
0.054494815
0.056167703
0.059990166
0.065208314
0.071104404
0.077099286
0.082556116
0.087324792
0.090419504
0.092648075
0.25388395
0.14951
0.050186446
0.24858869
0.088878868
-0.35319898
-1.1560663
-2.503081
-3.2683533
-2.6543099
-1.2539647
-0.39899608
5.6389869e-05
0.13135059
0.16899698
0.1758735
0.17360456
0.16839335
0.16527395
0.16214181
0.15753807
0.1513318
0.14375699
0.13452908
0.12301689
0.10917421
0.093920148
0.078825276
0.06552739
0.055276634
0.048734722
0.045974402
0.046616439
0.049984699
0.055292036
0.061741819
0.068615448
0.07535637
0.08136403
0.086525343
0.089886608
0.092272151
0.28352287
0.27731148
0.16517087
0.055005831
0.1426185
-0.28065047
-1.0690148
-2.4385228
-3.2547932
-2.7378077
-1.3860224
-0.4932539
-0.027553757
0.1171854
0.16068841
0.16910266
0.16718448
0.16167357
0.15895313
0.15677563
0.15324953
0.14816373
0.14201346
0.1345537
0.12466852
0.11166142
0.096094804
0.079584106
0.064101734
0.05133579
0.042354551
0.037541922
0.036695353
0.039216761
0.044285465
0.051039166
0.058659862
0.06644424
0.073868282
0.080373713
0.085885677
0.089483002
0.092023033
0.18609621
0.31072144
0.29538338
0.17777165
0.059571534
-0.21277996
-0.98288003
-2.3451951
-3.1867724
-2.766276
-1.5041607
-0.58593566
-0.079723913
0.10360555
0.15076566
0.16215521
0.16140039
0.15523766
0.15237455
0.15100442
0.14841444
0.14427852
0.13944073
0.13397092
0.12627191
0.11478645
0.099472935
0.081852098
0.064201518
0.048690306
0.036871388
0.029515909
0.026681148
0.027885769
0.032332819
0.039084869
0.047231125
0.055953142
0.06457777
0.072621469
0.079572296
0.085394129
0.089199222
0.091881201
-0.14811302
0.21855179
0.33047465
0.30840526
0.18740241
0.063783847
-0.89933749
-2.2249656
-3.069624
-2.7430225
-1.5978392
-0.67020847
-0.13418354
0.076590958
0.14141311
0.15564195
0.15525376
0.14880161
0.14537352
0.14477161
0.1430046
0.13957607
0.13584176
0.13247414
0.1275399
0.11838291
0.1040623
0.085793146
0.066107397
0.04769036
0.032656771
0.022255761
0.016881513
0.01624638
0.019606172
0.025995349
0.034391594
0.043862745
0.053609623
0.063001829
0.071601606
0.078946148
0.085038493
0.089024939
0.091841764
-0.81601111
-0.085718716
0.24000615
0.34366416
0.31663591
0.19422817
0.067609518
-2.080608
-2.9108282
-2.6729144
-1.6552317
-0.74336012
-0.18703364
0.046114849
0.1265131
0.1488577
0.1495477
0.14152759
0.13788122
0.13794215
0.13695161
0.13400771
0.13098053
0.1297003
0.12810179
0.12220338
0.10979718
0.091525559
0.07007684
0.048681667
0.030097415
0.016144471
0.0076473137
0.0045837892
0.006329908
0.011910106
0.020227207
0.030207927
0.040924886
0.051615363
0.061701023
0.070793012
0.078480829
0.084807202
0.088948415
0.091892653
-1.9211432
-0.73070786
-0.030892582
0.25580949
0.35120634
0.32045412
0.19847248
0.071031472
-2.7194878
-2.5610597
-1.674319
-0.80108263
-0.23892417
0.014421407
0.11037023
0.13895449
0.14269326
0.13473352
0.12914457
0.13049424
0.13019139
0.12742813
0.12468936
0.12522938
0.12748731
0.12590116
0.11654201
0.099125177
0.076342362
0.051996685
0.029582498
0.011585125
-0.0006442574
-0.0067733094
-0.0072431946
-0.0029832708
0.0048412147
0.015042694
0.026530496
0.03840546
0.049954376
0.060657693
0.070178687
0.078162808
0.084690547
0.088957672
0.092021524
-2.5051414
-1.7557739
-0.64519026
0.010621492
0.27094054
0.35384007
0.32034544
0.20039453
0.073977946
-2.4128033
-1.6574441
-0.83805413
-0.28925557
-0.020211801
0.093259217
0.12854914
0.13573804
0.12492879
0.12061841
0.12185276
0.12265167
0.11986811
0.11665567
0.11863428
0.12516283
0.12901349
0.12406046
0.10859429
0.085079169
0.057950632
0.031494442
0.0089873783
-0.0075936227
-0.01746927
-0.020818126
-0.018472274
-0.011620224
-0.0015680925
0.010448217
0.02335146
0.036289174
0.048607147
0.059851701
0.069742895
0.077982319
0.084680364
0.089040509
0.092210846
-2.234429
-2.2773093
-1.5868739
-0.56219636
0.042007814
0.28314365
0.35220018
0.31684393
0.20026959
0.076336345
-1.6059468
-0.85370911
-0.33582674
-0.058461222
0.071933869
0.11682936
0.12453827
0.11598903
0.1075987
0.1131124
0.11406985
0.11106932
0.10692841
0.1093091
0.12045895
0.13101206
0.13201172
0.1198473
0.096441344
0.066810248
0.036196733
0.0087564151
-0.012792976
-0.027125685
-0.034073937
-0.034304634
-0.028990593
-0.019522615
-0.0072962807
0.0064435831
0.020658061
0.034555385
0.047550554
0.059264572
0.069475079
0.077931633
0.084766562
0.0891884
0.092449867
-1.5248962
-2.0334623
-2.0420576
-1.4193236
-0.48174646
0.068766267
0.29030231
0.34706183
0.31051495
0.1984922
0.078048579
-0.8533511
-0.37820802
-0.099800123
0.044504787
0.098183304
0.10773823
0.099159014
0.095414597
0.10034836
0.10507113
0.10123156
0.094891628
0.097021459
0.11260043
0.1311247
0.13996942
0.13274527
0.11049938
0.078820242
0.044018129
0.011278316
-0.015838914
-0.035356301
-0.046668213
-0.050204316
-0.047066829
-0.038703909
-0.026646751
-0.01233125
0.0030212694
0.018429686
0.033177831
0.046763609
0.058886091
0.069367268
0.077994273
0.08493055
0.089409196
0.092739859
-0.8390054
-1.4274354
-1.8132875
-1.8066041
-1.2568842
-0.4070503
0.09288402
0.29337226
0.33909918
0.30191195
0.1951419
0.078705713
-0.41326834
-0.14348396
0.01190306
0.070893633
0.081396047
0.071989759
0.073739796
0.08882747
0.093629149
0.090059502
0.081405006
0.080535175
0.10091689
0.12866732
0.14722187
0.14703254
0.12726615
0.09414157
0.055244757
0.016898533
-0.016349289
-0.041780129
-0.058251965
-0.065876032
-0.065625011
-0.058962202
-0.047537506
-0.03296219
-0.016671565
0.00016247162
0.016637416
0.032132752
0.046236182
0.058709798
0.069398939
0.078138427
0.085142755
0.089693907
0.093095837
-0.44088811
-0.81213809
-1.326971
-1.5878445
-1.5777268
-1.1030712
-0.34116178
0.11457342
0.29297024
0.32869151
0.29137795
0.19067608
0.07804127
-0.18708634
-0.024102678
0.035050337
0.045161938
0.032370058
0.036935207
0.07034928
0.083611389
0.078584785
0.064496705
0.060967512
0.083754136
0.12260148
0.15329072
0.16222722
0.14665072
0.11288286
0.070066754
0.025916377
-0.013984779
-0.046040063
-0.068483506
-0.081019906
-0.084424587
-0.080130094
-0.069873928
-0.055434854
-0.038453529
-0.020331624
-0.0021635194
0.01525501
0.031411282
0.045962613
0.058707765
0.069526272
0.078342579
0.085428034
0.09009938
0.093515581
-0.22952679
-0.46047949
-0.77579627
-1.2245615
-1.3743247
-1.3624071
-0.95841109
-0.28438839
0.13368456
0.28958839
0.31655901
0.27992721
0.18500594
0.076826807
-0.064931689
-0.0071058102
-0.00028698465
-0.017701958
-0.015759223
0.038803189
0.070073565
0.067649085
0.04987394
0.033981153
0.061826803
0.11162375
0.15677369
0.17808482
0.16841894
0.13502062
0.088627749
0.038524367
-0.0084601136
-0.047824049
-0.077047042
-0.095345054
-0.1032222
-0.10202606
-0.093547095
-0.079709847
-0.062360202
-0.043127223
-0.023342531
-0.003984726
0.014275832
0.03101036
0.045906681
0.058815039
0.069718354
0.078644135
0.085904018
0.090585885
0.093993368
-0.10894131
-0.26904602
-0.47423158
-0.73020253
-1.1166135
-1.1835559
-1.1685819
-0.82216095
-0.23703694
0.1506578
0.28385702
0.30451137
0.2670749
0.17794043
0.075267493
-0.05259315
-0.052470897
-0.077204122
-0.084860269
-0.0099165442
0.049159818
0.055115994
0.033815112
0.0090770986
0.0290648
0.095784645
0.15701289
0.19308179
0.19245307
0.16041746
0.110891
0.054854402
0.00039866526
-0.046877509
-0.083672766
-0.10858849
-0.12178473
-0.12446684
-0.11843613
-0.10573669
-0.08840591
-0.068307402
-0.047012653
-0.025733
-0.0053040116
0.013700586
0.030883352
0.045980031
0.058990454
0.070034733
0.079267718
0.086475411
0.091136596
0.094528974
-0.098775361
-0.15354116
-0.30509389
-0.48114233
-0.67689803
-1.0026759
-1.0147044
-0.99669267
-0.69334042
-0.19783666
0.1626825
0.27802897
0.29050615
0.25339864
0.16912169
0.073039747
-0.1097695
-0.14809317
-0.16709386
-0.077357817
0.017706136
0.038207623
0.019376722
-0.025898439
-0.0074911379
0.06899864
0.15258276
0.20753053
0.21744178
0.18888879
0.13670825
0.074825982
0.012703555
-0.043055287
-0.088151474
-0.12053384
-0.13990765
-0.14727924
-0.14441834
-0.13345465
-0.11659713
-0.095937651
-0.073301323
-0.050137596
-0.027500015
-0.0061153316
0.013470337
0.030910209
0.046128519
0.059333888
0.070841744
0.080017185
0.087116224
0.091747685
0.095121969
-0.1693002
-0.14289665
-0.1965036
-0.33474312
-0.48160572
-0.61739055
-0.88725075
-0.86010449
-0.8348944
-0.57126695
-0.15901281
0.16833467
0.27109405
0.27549965
0.23873779
0.15916865
0.070012284
-0.22663349
-0.25829752
-0.16109652
-0.026497669
0.014654766
0.0026937873
-0.058221856
-0.072406459
0.031567508
0.13921028
0.21821798
0.24416126
0.21942549
0.16579834
0.098265301
0.028334254
-0.036269545
-0.090375982
-0.13102685
-0.157433
-0.17031751
-0.17137883
-0.1627999
-0.14693139
-0.12607882
-0.10232189
-0.07736649
-0.052490296
-0.028629968
-0.0064925301
0.013426007
0.031018621
0.046499299
0.060392903
0.071810925
0.080841295
0.087816531
0.092419574
0.095771152
-0.30710953
-0.22578929
-0.18317353
-0.23426844
-0.35624066
-0.47540785
-0.55835128
-0.77724128
-0.73139113
-0.67628327
-0.45570609
-0.11778783
0.17115485
0.26120202
0.26041629
0.22335619
0.14855812
0.066158935
-0.35767718
-0.25346528
-0.086629277
-0.016882345
-0.01964292
-0.089896278
-0.14573605
-0.042413297
0.1207805
0.22515988
0.26921706
0.25315964
0.1973404
0.12479649
0.047122086
-0.026665979
-0.090290108
-0.14000836
-0.17426657
-0.19348044
-0.19922611
-0.193712
-0.17940088
-0.15878409
-0.13418646
-0.10757705
-0.080478634
-0.0540467
-0.029214457
-0.0066427705
0.013472832
0.031417254
0.047878525
0.061663246
0.072863568
0.081719985
0.088579123
0.093151133
0.096474925
-0.46204127
-0.38809104
-0.27327512
-0.21736406
-0.26459947
-0.37013797
-0.46404855
-0.51344301
-0.6793042
-0.64077462
-0.53611075
-0.3571989
-0.072062413
0.16967254
0.24821236
0.24449556
0.20728758
0.1375228
0.061637394
-0.35222311
-0.16247574
-0.057568025
-0.048473122
-0.1237116
-0.2216344
-0.12289373
0.033334648
0.21651251
0.29604457
0.28528833
0.23177162
0.15358853
0.068616389
-0.014377005
-0.088060586
-0.14746813
-0.19040316
-0.2167303
-0.22790832
-0.22614646
-0.21399478
-0.19409862
-0.16900102
-0.14092897
-0.11166153
-0.082599332
-0.054919338
-0.029519646
-0.0066880536
0.013896377
0.033200262
0.049527258
0.063028152
0.073964338
0.082659698
0.089402408
0.093941266
0.097231728
-0.4563197
-0.56534071
-0.46397166
-0.30990982
-0.24065271
-0.28668361
-0.37867917
-0.45132654
-0.48282792
-0.59976792
-0.57478309
-0.43151194
-0.26768341
-0.031992006
0.16607661
0.23321913
0.227682
0.19076879
0.12611433
0.056545389
-0.24682878
-0.1070967
-0.086621713
-0.16962053
-0.30227878
-0.23163551
-0.047511773
0.16784374
0.30855661
0.32186438
0.26446317
0.18459237
0.092062852
0.00010554768
-0.083777614
-0.15360283
-0.20589153
-0.24011349
-0.25743159
-0.26008854
-0.25070786
-0.23205703
-0.20686112
-0.17757805
-0.14624171
-0.11451754
-0.083865701
-0.055446346
-0.029700786
-0.0062464896
0.016177474
0.035324789
0.051285098
0.064431043
0.075124979
0.083658222
0.090285447
0.094788394
0.098041391
-0.33341264
-0.5601771
-0.65898668
-0.53089978
-0.33572943
-0.2517309
-0.3014409
-0.38102144
-0.43809085
-0.45580673
-0.53716799
-0.50878224
-0.3444602
-0.19209923
0.00061020834
0.15970599
0.21679794
0.21018226
0.17400411
0.11452032
0.051007058
-0.16272496
-0.13036732
-0.2249984
-0.37999653
-0.35508148
-0.15335419
0.089664249
0.30042888
0.34729315
0.30330177
0.21428736
0.11729823
0.016239795
-0.077960797
-0.15848549
-0.22097309
-0.26373926
-0.28787875
-0.2955702
-0.2895503
-0.27268706
-0.24784408
-0.21766812
-0.18442098
-0.15004126
-0.11631087
-0.084703422
-0.055823216
-0.02925642
-0.0033555211
0.018886716
0.03757729
0.053066457
0.0658911
0.076342119
0.08471496
0.091226362
0.095690919
0.098907996
-0.21841056
-0.41819316
-0.65207154
-0.73467586
-0.58498773
-0.35663253
-0.25444913
-0.3077733
-0.37808218
-0.42575824
-0.4328033
-0.4828954
-0.43797221
-0.27297365
-0.13049742
0.024777713
0.15125548
0.19948242
0.19221693
0.15730009
0.10286817
0.045140785
-0.17392567
-0.28809867
-0.44945345
-0.47052149
-0.26944264
0.011070679
0.26723515
0.37068006
0.33440812
0.24858974
0.14127745
0.033735751
-0.070878795
-0.16267955
-0.23574617
-0.28789908
-0.31940499
-0.3326861
-0.33055957
-0.31601399
-0.29200764
-0.26131825
-0.22638882
-0.18941311
-0.15252673
-0.11757361
-0.085356628
-0.055400879
-0.025626337
6.7057627e-05
0.021748179
0.039833543
0.054900874
0.067403504
0.077615561
0.085827641
0.092223285
0.096647856
0.099838169
-0.21290648
-0.26928831
-0.49034989
-0.7214235
-0.78466543
-0.6204859
-0.37136091
-0.25295287
-0.30532571
-0.37008875
-0.41503228
-0.40582292
-0.43951784
-0.37367363
-0.21401964
-0.083107235
0.0408573
0.14108295
0.18182914
0.17410906
0.14091963
0.09134595
0.039041013
-0.35040585
-0.5121925
-0.58079852
-0.38561296
-0.06795524
0.21702548
0.37462382
0.37659435
0.28138615
0.16913156
0.0501823
-0.063035147
-0.16620226
-0.25085009
-0.31275171
-0.35233321
-0.37160239
-0.37381291
-0.36206534
-0.33938785
-0.30861644
-0.27230545
-0.2328645
-0.19279194
-0.15435873
-0.11860853
-0.084993758
-0.05088185
-0.021341267
0.0036729099
0.024587148
0.042136935
0.056781659
0.068968855
0.07894245
0.086994153
0.093275332
0.097659683
0.10082539
-0.39692164
-0.25428645
-0.30876038
-0.53877753
-0.75928957
-0.80422286
-0.63376136
-0.37522331
-0.24956084
-0.29326917
-0.3554827
-0.38076776
-0.38731054
-0.3925616
-0.31810374
-0.16589195
-0.049514041
0.050006117
0.12994259
0.16415002
0.15616748
0.12511203
0.080068788
0.03311587
-0.5618376
-0.67078762
-0.4958583
-0.16381657
0.14423956
0.35328688
0.40425994
0.33355232
0.2001377
0.070018282
-0.055939934
-0.16988795
-0.26614436
-0.33903272
-0.38688155
-0.41262796
-0.41944354
-0.41087686
-0.38999512
-0.35961144
-0.32229169
-0.28059534
-0.23737628
-0.19537239
-0.15591051
-0.11835847
-0.079411219
-0.04556147
-0.016833571
0.0072219544
0.027465347
0.044478434
0.058710667
0.070583813
0.08032032
0.088214503
0.094384637
0.098723111
0.10186067
-0.59339641
-0.40515101
-0.29515003
-0.331665
-0.55409393
-0.76098699
-0.79370724
-0.62808293
-0.37300296
-0.24628239
-0.27539562
-0.33681509
-0.36867602
-0.36432161
-0.34671869
-0.26997213
-0.12873444
-0.025453176
0.053618374
0.11855312
0.14672255
0.13870033
0.11010048
0.06927936
0.02764925
-0.7303218
-0.58670574
-0.26419744
0.047328535
0.2862445
0.40913361
0.3733148
0.25796086
0.098257952
-0.046267182
-0.17416783
-0.28290075
-0.36656886
-0.42386506
-0.45599705
-0.46768305
-0.46250749
-0.44381321
-0.41430013
-0.3764152
-0.33276144
-0.28651847
-0.24092345
-0.19761185
-0.15584737
-0.11151107
-0.072856471
-0.039968629
-0.012427153
0.01079989
0.030370838
0.046861752
0.060684077
0.072245776
0.081750252
0.089495291
0.095544363
0.099835198
0.1029425
-0.74973555
-0.59244033
-0.38592128
-0.31209266
-0.34068005
-0.53325159
-0.72933809
-0.75629365
-0.60755544
-0.36770511
-0.24182182
-0.25718715
-0.3219027
-0.35095783
-0.33915184
-0.30548984
-0.22896564
-0.10501672
-0.011159063
0.05360243
0.10722938
0.12985399
0.1219245
0.095922164
0.059175645
0.022775394
-0.64695194
-0.35121425
-0.063253488
0.18230659
0.36080451
0.39450936
0.30419087
0.15942427
-0.022064397
-0.17748272
-0.30045168
-0.39710415
-0.46316447
-0.50253383
-0.51870761
-0.51705188
-0.50080259
-0.47261841
-0.4346707
-0.38945723
-0.3404121
-0.2912929
-0.24406333
-0.19783614
-0.14750595
-0.10349532
-0.065965686
-0.034534119
-0.0080050828
0.014391096
0.033309994
0.049282695
0.062699297
0.073957494
0.083244404
0.090826074
0.096750842
0.10099304
0.10406875
-0.6615682
-0.71930173
-0.55707522
-0.34969407
-0.29872531
-0.33812625
-0.48474664
-0.67207287
-0.69637825
-0.5687751
-0.3549368
-0.23244082
-0.2420405
-0.30202167
-0.32865772
-0.31133126
-0.26614952
-0.19318495
-0.088439292
-0.0055550589
0.051964169
0.095930506
0.11374758
0.10603672
0.082630915
0.050007525
0.018439604
-0.41619018
-0.16409881
0.062477055
0.25349598
0.37123324
0.3337761
0.21137679
0.040116241
-0.15971305
-0.31965423
-0.42905884
-0.50690909
-0.55215844
-0.57323544
-0.57454972
-0.56088816
-0.53443122
-0.49696338
-0.4506904
-0.3991865
-0.34671894
-0.29559423
-0.2447084
-0.18774442
-0.1377724
-0.095061803
-0.059305741
-0.029100592
-0.0035875105
0.01800564
0.036278481
0.051738924
0.064761269
0.075738447
0.084787389
0.092201804
0.098000642
0.10219432
0.10523722
-0.44359781
-0.62317997
-0.64746515
-0.48923732
-0.29242014
-0.25520858
-0.30832463
-0.41920543
-0.59651063
-0.62139207
-0.50599673
-0.3364957
-0.21908442
-0.22594529
-0.27809183
-0.30223458
-0.2807148
-0.230046
-0.16146052
-0.072801655
-0.0017174153
0.048971793
0.084793159
0.098594255
0.091189415
0.070257306
0.041809194
0.014692228
-0.22769809
-0.055157619
0.11606535
0.27807537
0.33205802
0.24710443
0.097111275
-0.10043081
-0.31162673
-0.46609242
-0.55295735
-0.60718068
-0.63110614
-0.63548288
-0.62392192
-0.59950195
-0.56308675
-0.51635882
-0.46287828
-0.40737769
-0.35249741
-0.29683471
-0.23258465
-0.17600563
-0.12751663
-0.086950638
-0.052667306
-0.023693857
0.00084069369
0.021639323
0.039274579
0.054238194
0.066898796
0.077566885
0.086372828
0.093618013
0.099291896
0.10343651
0.10644472
-0.25276883
-0.41997541
-0.54468171
-0.54633821
-0.39593187
-0.22199222
-0.18439154
-0.24098634
-0.33713943
-0.50354215
-0.51883749
-0.45403173
-0.30500104
-0.20623287
-0.21093855
-0.25174195
-0.27436721
-0.24789693
-0.19857861
-0.13491634
-0.060489514
0.0010740743
0.044877557
0.074010248
0.084512935
0.077501431
0.058896507
0.034526614
0.011342973
-0.15569006
-0.02545674
0.12450301
0.26854166
0.26167762
0.14009827
-0.041683507
-0.26126528
-0.47128502
-0.60760079
-0.66524975
-0.69454847
-0.69944748
-0.69003801
-0.66749005
-0.63268588
-0.58621967
-0.53140443
-0.47335279
-0.41501032
-0.35455953
-0.28237796
-0.21852404
-0.16361182
-0.117698
-0.078885753
-0.046083387
-0.018291965
0.0052758864
0.025291544
0.04230967
0.05682068
0.069082537
0.079434631
0.087995396
0.095073365
0.10062281
0.10471536
0.10768762
-0.21550455
-0.25373567
-0.36065621
-0.43867357
-0.42657116
-0.2913377
-0.14341813
-0.10125521
-0.15596669
-0.24902238
-0.39285854
-0.44837086
-0.38816264
-0.27232431
-0.19270639
-0.19683473
-0.22587694
-0.24383114
-0.21617821
-0.16984638
-0.1131511
-0.050111539
0.0026035517
0.040073701
0.063747381
0.071586616
0.065078166
0.048609746
0.028281484
0.0086230469
-0.16113169
-0.058455371
0.12577246
0.23503645
0.16562495
0.0074129094
-0.20686437
-0.43760303
-0.62831035
-0.73444631
-0.76115145
-0.768361
-0.758469
-0.73813497
-0.70526888
-0.65985473
-0.60452641
-0.54460856
-0.48328336
-0.41818378
-0.33746073
-0.26565413
-0.20363978
-0.15179763
-0.10795496
-0.070909423
-0.039522988
-0.012897454
0.0097192761
0.028978242
0.045437757
0.059447905
0.071302373
0.081335253
0.089654848
0.096567216
0.10198787
0.10602454
0.10896466
-0.27954452
-0.23206493
-0.22963096
-0.27458582
-0.32238713
-0.29755556
-0.18554575
-0.058646224
-0.016614798
-0.069576574
-0.18113623
-0.31803326
-0.36982607
-0.32656772
-0.23702245
-0.17907193
-0.18245156
-0.20309
-0.21272687
-0.18718108
-0.14535233
-0.095420737
-0.041741714
0.0031406399
0.034947143
0.054128113
0.059857979
0.054003804
0.039678794
0.023118571
0.0064500444
-0.24868697
-0.090180985
0.1327688
0.16477904
0.04203044
-0.15670026
-0.39680827
-0.61883393
-0.77038358
-0.8394843
-0.83961788
-0.83068663
-0.8103006
-0.78023256
-0.73667771
-0.6818155
-0.62095847
-0.5573571
-0.48793385
-0.39814278
-0.31771432
-0.24789318
-0.18950964
-0.14009307
-0.098341681
-0.062978739
-0.032986756
-0.0075064171
0.014192517
0.03276999
0.048609575
0.062107742
0.073550649
0.083269897
0.091352498
0.09809258
0.10337546
0.1073607
0.11027938
-0.42043405
-0.35117535
-0.22141055
-0.18273082
-0.18063844
-0.20218926
-0.17208861
-0.081541764
0.021107356
0.060861033
0.0050076169
-0.13305949
-0.25623427