/*--------------------------------*- C++ -*----------------------------------*\
| =========                 |                                                 |
| \\      /  F ield         | OpenFOAM: The Open Source CFD Toolbox           |
|  \\    /   O peration     | Version:  v2012                                 |
|   \\  /    A nd           | Website:  www.openfoam.com                      |
|    \\/     M anipulation  |                                                 |
\*---------------------------------------------------------------------------*/
FoamFile
{
    version     2.0;
    format      ascii;
    class       surfaceScalarField;
    location    "81.1321376458981121";
    object      phi;
}
// * * * * * * * * * * * * * * * * * * * * * * * * * * * * * * * * * * * * * //

dimensions      [0 3 -1 0 0 0 0];
oriented        oriented;


internalField   nonuniform List<scalar> 
18180
(
0.0094266106
-3.6061306
0.020574135
-3.3770057
0.004931243
-3.602649
0.034164537
-3.164394
0.011613595
-3.375795
1.4625638e-05
-3.5941799
0.051801798
-2.9681538
0.021213391
-3.166611
0.0017049224
-3.3694535
-0.0056195388
-3.5802771
0.074345352
-2.7854522
0.035409788
-2.9753993
0.0056928235
-3.1629499
-0.010159928
-3.3569976
-0.011076629
-3.5612465
0.1027656
-2.6152495
0.055586687
-2.7990698
0.013385846
-2.9758903
-0.013302936
-3.1522356
-0.021871077
-3.3386294
-0.015698882
-3.537912
0.1377382
-2.4557956
0.083417252
-2.6368806
0.026096684
-2.8050646
-0.014355125
-2.9676967
-0.032360725
-3.1345259
-0.031717638
-3.3154125
-0.018998736
-3.5116335
0.17975177
-2.3057832
0.12062663
-2.4871267
0.045508733
-2.6500409
-0.01254204
-2.8002425
-0.042950502
-2.9502836
-0.048518094
-3.110898
-0.038685068
-3.288896
-0.020852482
-3.4838037
0.22900495
-2.1637553
0.16902567
-2.3486171
0.07367858
-2.509478
-0.0068849196
-2.6495866
-0.053635296
-2.7832483
-0.06728314
-2.9251353
-0.059882048
-3.083298
-0.042488154
-3.2607627
-0.021363364
-3.4557913
0.28545221
-2.0283863
0.23039544
-2.2198703
0.11294458
-2.3824554
0.0039045691
-2.5146421
-0.064522494
-2.6329542
-0.088861373
-2.755779
-0.084207429
-2.8947901
-0.065915417
-3.0537943
-0.043407056
-3.2325074
-0.020784164
-3.4286354
0.34893351
-1.8986233
0.30657701
-2.0996201
0.16623125
-2.2680904
0.021800889
-2.3951516
-0.075489292
-2.4984248
-0.11444432
-2.6019734
-0.11303933
-2.7213378
-0.092826761
-2.8621754
-0.067140488
-3.0242528
-0.042039309
-3.2053123
-0.019423551
-3.4031874
0.41904265
-1.7736492
0.39939587
-1.9867956
0.23722696
-2.1658886
0.049327532
-2.2907917
-0.086475542
-2.3793367
-0.14538509
-2.4625735
-0.14818178
-2.5616743
-0.12468633
-2.6840999
-0.094073961
-2.8297579
-0.064639909
-2.9960849
-0.039070704
-3.1800076
-0.017574374
-3.3799231
0.49485342
-1.6526655
0.50925331
-1.8791522
0.32974453
-2.0749072
0.090150743
-2.2022274
-0.096899976
-2.2759034
-0.18333607
-2.3368904
-0.19177016
-2.4142409
-0.16328309
-2.5179927
-0.12543208
-2.6474951
-0.089791
-2.7993171
-0.059620128
-2.9701926
-0.035133607
-3.1571064
-0.015478988
-3.3591437
0.57226119
-1.5329773
0.63346958
-1.7728085
0.44473911
-1.9900451
0.14772043
-2.1283077
-0.10585967
-2.1891281
-0.23023078
-2.224856
-0.24647505
-2.2778176
-0.21066069
-2.3621135
-0.16257179
-2.4758362
-0.1183442
-2.6138647
-0.08194485
-2.7719151
-0.053155598
-2.947118
-0.030739894
-3.1368399
-0.01332009
-3.3408777
0.64663557
-1.4129692
0.75964093
-1.6553432
0.575052
-1.8993068
0.22194575
-2.0603946
-0.11355817
-2.1167677
-0.28835296
-2.1271541
-0.31574373
-2.1515544
-0.2692731
-2.2148029
-0.20687157
-2.3130717
-0.15111109
-2.4381908
-0.10653073
-2.5844008
-0.07221083
-2.748034
-0.04608475
-2.9270151
-0.026266216
-3.119234
-0.011224478
-3.3250895
0.71263568
-1.2915988
0.87704357
-1.5268189
0.70341329
-1.7801594
0.30385911
-1.977617
-0.12381987
-2.0465693
-0.36083898
-2.0407019
-0.40403147
-2.0351171
-0.34225139
-2.0744912
-0.25976284
-2.1574769
-0.18872082
-2.2708034
-0.13371988
-2.4062922
-0.092494806
-2.5594803
-0.061836691
-2.7277345
-0.03900075
-2.9098408
-0.021966849
-3.1041666
-0.0092726085
-3.3116013
0.76488534
-1.1701363
0.97277909
-1.3840185
0.82027315
-1.6403857
0.38079455
-1.8537457
-0.14270225
-1.9554312
-0.45328179
-1.9507994
-0.5159896
-1.9252493
-0.43370283
-1.9398674
-0.32278779
-2.0073388
-0.23157916
-2.1102536
-0.16356926
-2.2364791
-0.11401876
-2.3803128
-0.077990666
-2.5389617
-0.051659048
-2.7108108
-0.03228628
-2.895379
-0.017997813
-3.0914519
-0.0075096226
-3.3002291
0.79852593
-1.050684
1.04027
-1.234533
0.9126071
-1.4732947
0.42615325
-1.6826325
-0.17821191
-1.8151766
-0.57178761
-1.8338351
-0.65407859
-1.8094488
-0.54713475
-1.8082709
-0.39768358
-1.8611213
-0.2797662
-1.9551081
-0.19581179
-2.073811
-0.13649617
-2.2097152
-0.094362435
-2.359727
-0.064114749
-2.5223915
-0.042183648
-2.6969204
-0.026162442
-2.8833827
-0.014441928
-3.0808425
-0.0059553304
-3.2907213
0.81201388
-0.93680296
1.0795714
-1.0870984
0.97077221
-1.2898589
0.43433851
-1.4785893
-0.25356029
-1.6044532
-0.71669909
-1.6673958
-0.81680842
-1.6680586
-0.68064241
-1.6726234
-0.4851835
-1.7171575
-0.33298587
-1.8041275
-0.22974815
-1.9172472
-0.15933563
-2.0468841
-0.11051118
-2.1894846
-0.076091462
-2.343766
-0.051470667
-2.5092386
-0.033676112
-2.6856865
-0.020735069
-2.8735414
-0.011330597
-3.0720892
-0.0046122211
-3.2828644
0.80684331
-0.83199306
1.0934736
-0.9480112
0.99135246
-1.1050416
0.40836413
-1.2612003
-0.35596455
-1.3735675
-0.87332686
-1.4451628
-0.99274104
-1.4886166
-0.82392018
-1.5216756
-0.58185461
-1.5725472
-0.39014107
-1.6564489
-0.2641982
-1.7660277
-0.18158637
-1.8911524
-0.12576101
-2.0276692
-0.087118941
-2.1745599
-0.059846207
-2.331624
-0.040328399
-2.4989499
-0.026240467
-2.676719
-0.01603239
-2.8655641
-0.0086609925
-3.0649361
-0.0034713422
-3.2764283
0.78646154
-0.73851292
1.085481
-0.82148586
0.97632833
-0.9305364
0.35422176
-1.0484079
-0.47337129
-1.1413751
-1.0322975
-1.2121272
-1.1550208
-1.2802222
-0.96228666
-1.3473446
-0.67797411
-1.4223438
-0.44809603
-1.5112263
-0.29745535
-1.6197725
-0.20193289
-1.7420677
-0.13919748
-1.8738646
-0.096573467
-2.0143599
-0.066879844
-2.1638164
-0.045831926
-2.322547
-0.030749539
-2.4910383
-0.01987821
-2.6696518
-0.012033444
-2.8591658
-0.0064091705
-3.0591618
-0.0025175656
-3.2712177
0.75524908
-0.65723905
1.0593561
-0.71003967
0.9317157
-0.77459447
0.27953776
-0.85354134
-0.59605345
-0.92349221
-1.1843478
-0.98703492
-1.2998534
-1.0648062
-1.0847581
-1.1550331
-0.76030697
-1.2619816
-0.50009857
-1.3671436
-0.32696571
-1.4784823
-0.21874816
-1.5995627
-0.1497028
-1.7278792
-0.10370228
-1.862937
-0.072059076
-2.0054989
-0.049825753
-2.1563006
-0.034006981
-2.3159288
-0.022674106
-2.4850497
-0.014530346
-2.6641643
-0.0086887108
-2.8541059
-0.0045393692
-3.0545484
-0.0017333474
-3.2670355
0.71728683
-0.58749879
1.0188959
-0.61458468
0.86563645
-0.64184021
0.19148332
-0.68439802
-0.71570698
-0.73182611
-1.3205484
-0.7851679
-1.4213846
-0.86317458
-1.1853588
-0.96166382
-0.81942176
-1.0930612
-0.53611229
-1.2229303
-0.3486879
-1.342354
-0.230138
-1.4639015
-0.15602231
-1.5897611
-0.10768176
-1.7202152
-0.074824542
-1.8565312
-0.051920263
-1.9999142
-0.035727413
-2.1512461
-0.024202999
-2.3112213
-0.015978126
-2.480617
-0.010106054
-2.6599739
-0.0059341268
-2.8501595
-0.0030102296
-3.0509131
-0.0010970485
-3.2637258
0.67594137
-0.52787044
0.96821432
-0.53476617
0.78635296
-0.53332746
0.096748165
-0.54512174
-0.82558519
-0.57261693
-1.4344246
-0.61598009
-1.5170923
-0.68727878
-1.2619777
-0.78417846
-0.85345767
-0.9249351
-0.54736615
-1.0789253
-0.35697375
-1.2117331
-0.23388049
-1.335597
-0.15688274
-1.459756
-0.10768522
-1.586239
-0.074631475
-1.7168391
-0.051733656
-1.8532318
-0.035632449
-1.9966781
-0.024249352
-2.148028
-0.016197406
-2.3080043
-0.010509752
-2.4774167
-0.0065012656
-2.6568464
-0.003700681
-2.8471298
-0.00177912
-3.0480879
-0.00059177215
-3.2611386
0.6341166
-0.47677746
0.91156176
-0.46929978
0.70110148
-0.44767628
0.0016308553
-0.43637515
-0.92101498
-0.44793556
-1.5229255
-0.48228785
-1.5880587
-0.54296941
-1.3155025
-0.63152969
-0.86606218
-0.76903761
-0.53124464
-0.93832635
-0.34586844
-1.0872721
-0.22745406
-1.2153111
-0.15110661
-1.3382757
-0.10297347
-1.46113
-0.071010408
-1.5864155
-0.048943735
-1.7161794
-0.033482199
-1.8520407
-0.022625095
-1.995131
-0.015031875
-2.1461779
-0.0097542566
-2.3059241
-0.0061108176
-2.4752066
-0.0036104949
-2.6545674
-0.0019204491
-2.8448532
-0.00080729951
-3.0459363
-0.00020235753
-3.2591507
0.59379631
-0.43317516
0.85286378
-0.41628507
0.61548259
-0.38196764
-0.088978917
-0.35536951
-0.99945027
-0.35631815
-1.5869331
-0.38222984
-1.6379181
-0.43051195
-1.3506672
-0.50572284
-0.86240894
-0.63279469
-0.49115197
-0.80654832
-0.31153332
-0.97005392
-0.20829131
-1.1037454
-0.13770853
-1.225782
-0.093003134
-1.3450786
-0.063629337
-1.4652343
-0.043332964
-1.58867
-0.029113807
-1.7171832
-0.019194396
-1.8522594
-0.012362234
-1.9947606
-0.0077308493
-2.1453271
-0.004645738
-2.3047301
-0.0026291238
-2.4737611
-0.001333246
-2.6529789
-0.00052966557
-2.843187
-5.8821984e-05
-3.0443375
9.5753622e-05
-3.257652
0.55644312
-0.3957384
0.79499383
-0.37362617
0.53335462
-0.33255974
-0.17191527
-0.29746232
-1.0602646
-0.29305722
-1.630481
-0.31119203
-1.672083
-0.34626851
-1.3740376
-0.40519197
-0.84733532
-0.51854855
-0.43280753
-0.68870226
-0.25392098
-0.86170133
-0.17426415
-1.0015458
-0.11601774
-1.1226698
-0.077511538
-1.2382587
-0.052351638
-1.3532356
-0.034832083
-1.4704964
-0.022471284
-1.591942
-0.013899087
-1.7192049
-0.0081250705
-1.853429
-0.0043704718
-1.995216
-0.0020340956
-2.1452157
-0.00066261897
-2.3041969
7.5730779e-05
-2.4729212
0.00042348155
-2.6519324
0.00053074521
-2.8420191
0.0005030938
-3.0431832
0.00031485791
-3.256558
0.52298597
-0.36333348
0.7401282
-0.33930164
0.4572728
-0.29605435
-0.24474022
-0.25828428
-1.1052629
-0.25107949
-1.6586969
-0.2633737
-1.696565
-0.28502618
-1.3914198
-0.32705942
-0.82473638
-0.42567553
-0.36133049
-0.58772989
-0.17615644
-0.76415309
-0.12442568
-0.9091543
-0.085762933
-1.0291889
-0.056565784
-1.1407399
-0.03728507
-1.2503412
-0.023543787
-1.3614323
-0.013631252
-1.4760497
-0.006774327
-1.5957857
-0.0023248269
-1.7219376
0.00034278816
-1.8552413
0.0017572464
-1.9962377
0.0023331141
-2.1456373
0.0023814939
-2.304165
0.0021299082
-2.4725412
0.0017438123
-2.6513239
0.0013162066
-2.8412405
0.00091006175
-3.0423896
0.00046156412
-3.2557834
0.49383464
-0.33507477
0.68971935
-0.31145465
0.38850951
-0.26914823
-0.30699541
-0.23245779
-1.138416
-0.22385075
-1.6760787
-0.23233233
-1.716443
-0.24191747
-1.4065126
-0.26822042
-0.79732361
-0.35248224
-0.28040705
-0.50444021
-0.082657543
-0.67905696
-0.059532856
-0.82680499
-0.047090435
-0.94536559
-0.030584587
-1.0524286
-0.018797972
-1.1563716
-0.0097586528
-1.2611968
-0.0027968541
-1.3691355
0.0020489321
-1.4816564
0.0049579919
-1.6000322
0.0063640276
-1.7250943
0.0067097971
-1.8574058
0.0063634772
-1.9976251
0.0056069697
-2.1464302
0.0046492148
-2.3044993
0.0036445701
-2.4725241
0.0027027313
-2.6510433
0.0018752312
-2.8407794
0.0011914356
-3.0418931
0.00056123991
-3.2552588
0.46887921
-0.31018769
0.64457876
-0.28855939
0.32764715
-0.24929507
-0.35933414
-0.21556835
-1.1625758
-0.20711294
-1.6865634
-0.21209524
-1.733949
-0.2133474
-1.4208736
-0.22594962
-0.7665198
-0.29715314
-0.19242433
-0.43843863
0.022339387
-0.60740261
0.018159518
-0.75464717
-0.00060114805
-0.87097956
-0.00029483478
-0.97304457
0.0025203874
-1.0710152
0.0060646548
-1.1694203
0.0096837187
-1.2707303
0.012315603
-1.3763157
0.013559093
-1.4872865
0.013592714
-1.6044771
0.012759565
-1.7284017
0.011389403
-1.8597429
0.0097382229
-1.9992297
0.0079889164
-2.1474812
0.0062801749
-2.3051083
0.0047158143
-2.4727677
0.0033661554
-2.6510257
0.0022504414
-2.8405611
0.0013711003
-3.0416181
0.00062244405
-3.2549299
0.43818806
-0.33590476
0.60492332
-0.26924738
0.27452387
-0.23422533
-0.40269618
-0.20478362
-1.1783786
-0.19866728
-1.6925281
-0.19996459
-1.7492362
-0.19542256
-1.4345106
-0.19820241
-0.73256672
-0.25814449
-0.09943501
-0.38824367
0.13448104
-0.54867714
0.10518195
-0.6924549
0.052483739
-0.80555926
0.033333783
-0.90212547
0.02587297
-0.99378729
0.023297692
-1.085625
0.023341827
-1.1803237
0.023702045
-1.279209
0.023268323
-1.3831772
0.021882946
-1.4929106
0.019799926
-1.608861
0.017332935
-1.7316463
0.014720448
-1.862117
0.012120708
-2.0009623
0.0096474501
-2.1487051
0.0073926391
-2.305906
0.0054259049
-2.4732078
0.0037894271
-2.651196
0.0024772876
-2.84053
0.0014693298
-3.0415054
0.00065149248
-3.2547421
0.41222678
-0.33646644
0.56115187
-0.29073041
0.22864926
-0.222243
-0.43789646
-0.1979596
-1.1880292
-0.194114
-1.6951258
-0.19496647
-1.7632216
-0.18468175
-1.4480204
-0.1804972
-0.69576231
-0.23335587
-0.0032251564
-0.35257744
0.2501895
-0.50217382
0.19830267
-0.63995237
0.11049748
-0.74843283
0.069199777
-0.83906724
0.050357788
-0.92411979
0.041242938
-1.0092559
0.037641989
-1.0973522
0.035834221
-1.1897383
0.033820807
-1.2870551
0.031050628
-1.3897489
0.027698119
-1.4981948
0.024088253
-1.6129235
0.020468086
-1.7347191
0.016980072
-1.8644651
0.013709057
-2.0027547
0.010723354
-2.1500403
0.0080865227
-2.30683
0.005844775
-2.4737792
0.0040195462
-2.6515074
0.002585168
-2.8406249
0.0015027531
-3.0415049
0.00065481851
-3.2546659
0.39072678
-0.3383368
0.52254059
-0.29645393
0.18791367
-0.24877212
-0.46594029
-0.19321083
-1.1932069
-0.19183498
-1.6950447
-0.19316653
-1.7748748
-0.18209831
-1.4604712
-0.17090193
-0.65635844
-0.21835169
0.094332731
-0.32925285
0.36574415
-0.46647146
0.29403258
-0.59617501
0.17132233
-0.69887367
0.10615015
-0.7831474
0.075000552
-0.86133553
0.059138441
-0.93968128
0.05200333
-1.0212141
0.048288137
-1.1072619
0.044921369
-1.1982559
0.040896836
-1.2943468
0.036305713
-1.3957569
0.031532363
-1.5029437
0.026873801
-1.6166007
0.022475997
-1.7375999
0.018394904
-1.8667485
0.01466626
-2.0045667
0.011334026
-2.1514269
0.0084459961
-2.3078326
0.0060320368
-2.4744425
0.004096875
-2.6519026
0.0025994054
-2.8408079
0.0014861379
-3.0415842
0.00063839865
-3.2546519
0.37306935
-0.34162652
0.48924319
-0.30364028
0.15136559
-0.25868206
-0.47488838
-0.23876836
-1.1945297
-0.19100725
-1.6927155
-0.19320432
-1.7829893
-0.18391449
-1.4649974
-0.17632373
-0.61371226
-0.21209485
0.19272142
-0.31518908
0.47798648
-0.43994481
0.38914494
-0.55996488
0.23287285
-0.65595045
0.14297852
-0.733586
0.09886547
-0.8047496
0.076236028
-0.87623735
0.065828037
-0.95126124
0.06062055
-1.0311561
0.05627527
-1.1161481
0.05122059
-1.2060846
0.045477856
-1.300933
0.03954196
-1.401053
0.033820792
-1.5071398
0.028498811
-1.6199402
0.023610646
-1.7402843
0.019149127
-1.8689512
0.015126095
-2.0063542
0.011577137
-2.1528367
0.0085420949
-2.3088767
0.0060383607
-2.4751519
0.0040561219
-2.6523499
0.0025423088
-2.8410406
0.0014324231
-3.0417039
0.00060741653
-3.2546815
0.3587437
-0.34618166
0.46089803
-0.31188448
0.11934401
-0.27039466
-0.48071778
-0.25179848
-1.1697575
-0.26260413
-1.6878109
-0.195015
-1.7863879
-0.18874088
-1.463063
-0.1846757
-0.56864161
-0.2200319
0.29041388
-0.30833906
0.58500312
-0.4207583
0.4808428
-0.53012702
0.293288
-0.61872967
0.17857767
-0.68955142
0.12108499
-0.75364925
0.09181772
-0.81826802
0.078550899
-0.88686555
0.072409957
-0.96080014
0.067597677
-1.0401183
0.061840284
-1.1243366
0.055086223
-1.2131285
0.048007354
-1.306683
0.041196789
-1.4056855
0.034931792
-1.5108587
0.02924412
-1.6229409
0.024076738
-1.7427916
0.019391358
-1.8710586
0.015197838
-2.0081034
0.011533797
-2.1542377
0.0084344414
-2.309932
0.0059063935
-2.4758797
0.0039267584
-2.6528137
0.0024330126
-2.8412979
0.0013523674
-3.0418438
0.00056620122
-3.254725
0.34703057
-0.35204561
0.43716546
-0.32105463
0.091964766
-0.28328158
-0.48367736
-0.26638235
-1.1437922
-0.2768239
-1.6596863
-0.28977954
-1.7846025
-0.19580414
-1.4542182
-0.19648313
-0.52161639
-0.23042435
0.3797545
-0.30802126
0.68496465
-0.4069492
0.56696319
-0.50546039
0.35096249
-0.58627182
0.21196481
-0.65023396
0.14094866
-0.70735843
0.10523888
-0.76513308
0.089655268
-0.82742091
0.083263328
-0.89559767
0.078635284
-0.96957958
0.072603355
-1.0485188
0.065034071
-1.1317715
0.056845691
-1.2192968
0.048907106
-1.3116825
0.041662442
-1.4097303
0.035175126
-1.5141303
0.02933582
-1.6256621
0.02403677
-1.7451238
0.019240489
-1.8730666
0.014970589
-2.0097974
0.011271036
-2.1556175
0.008172591
-2.3109713
0.0056715347
-2.4765973
0.003733111
-2.6532752
0.0022870848
-2.8415534
0.0012544695
-3.0419831
0.00051828382
-3.2547788
0.33700659
-0.35929606
0.41742918
-0.33091751
0.069214637
-0.29708184
-0.48390762
-0.28199965
-1.1170778
-0.29215368
-1.6286708
-0.30688322
-1.7712761
-0.30205787
-1.4388448
-0.21014162
-0.47415147
-0.24275273
0.46166833
-0.31107763
0.77482321
-0.39661798
0.64615692
-0.48481642
0.40459763
-0.55768181
0.24239328
-0.61492893
0.15787806
-0.66519868
0.11595836
-0.71625849
0.098705223
-0.77236874
0.092828544
-0.83498636
0.089171763
-0.9039752
0.083395505
-0.97808626
0.07526338
-1.056311
0.066010734
-1.1383573
0.056885609
-1.2246496
0.048593468
-1.3160132
0.041283893
-1.4132066
0.034802633
-1.5169714
0.028950921
-1.6281194
0.023617457
-1.7473064
0.018791164
-1.874976
0.014516705
-2.0114321
0.010843855
-2.1569482
0.0077973344
-2.3119788
0.0053627983
-2.4772882
0.003494781
-2.6537103
0.0021167671
-2.8417966
0.0011453365
-3.0421147
0.00046648966
-3.254832
0.32796009
-0.36786798
0.40077352
-0.34125143
0.050944159
-0.31142581
-0.48155043
-0.29838797
-1.0896266
-0.30850443
-1.5947701
-0.32509141
-1.7503326
-0.32676719
-1.4408934
-0.29892206
-0.42751852
-0.25565632
0.53544891
-0.31535736
0.85369104
-0.3887668
0.71791274
-0.46713408
0.45325912
-0.53217406
0.26933631
-0.58296045
0.17149386
-0.62666572
0.12355953
-0.6710898
0.10535822
-0.72122844
0.10081334
-0.77846836
0.099037294
-0.84278943
0.094143207
-0.91252112
0.085757754
-0.98622806
0.075499024
-1.0633348
0.065103119
-1.1440634
0.055652138
-1.2291871
0.047460018
-1.3196145
0.040349042
-1.4161127
0.03400962
-1.5194606
0.028223092
-1.6303707
0.022916366
-1.7493489
0.018118428
-1.8767931
0.013894714
-2.0129907
0.010297151
-2.1582268
0.0073419101
-2.3129371
0.005003678
-2.4779338
0.0032274
-2.6541107
0.0019316166
-2.8420135
0.0010301067
-3.0422364
0.0004129734
-3.2548842
0.31930262
-0.3778567
0.38636666
-0.35207514
0.036871652
-0.32595948
-0.47676798
-0.31515731
-1.0613617
-0.32570281
-1.5574302
-0.34487498
-1.7216756
-0.35267853
-1.4306218
-0.33593174
-0.43494997
-0.29033093
0.60019467
-0.3193066
0.92182808
-0.38239282
0.78177031
-0.45146669
0.49636696
-0.50904168
0.292451
-0.55372668
0.18161232
-0.59128049
0.12774467
-0.62924232
0.1093933
-0.6735677
0.10695629
-0.72559602
0.10810804
-0.78557067
0.10481694
-0.85134977
0.096541367
-0.92104014
0.085350305
-0.9937304
0.073572386
-1.0694143
0.062797292
-1.1487867
0.05360874
-1.2328676
0.045847902
-1.3225215
0.039079461
-1.4185359
0.032937611
-1.521667
0.027250235
-1.6324534
0.022007855
-1.7512855
0.017281558
-1.8785177
0.013151803
-2.0144729
0.0096672888
-2.1594367
0.0068331639
-2.3138366
0.0046130062
-2.478524
0.0029433384
-2.6544639
0.0017391061
-2.8422087
0.00091272164
-3.0423446
0.00035925205
-3.2549289
-0.38919007
0.31056941
0.37340964
-0.36351685
0.026520746
-0.34050693
-0.46969213
-0.33198405
-1.0321247
-0.34344069
-1.5162935
-0.36586421
-1.6846523
-0.38081873
-1.407731
-0.37444392
-0.43533329
-0.33437178
0.60920256
-0.29821381
0.97990194
-0.37635137
0.83728653
-0.43682842
0.53373025
-0.48772587
0.3115982
-0.5267247
0.18815109
-0.55854466
0.12836272
-0.59038497
0.11039745
-0.62880881
0.11102721
-0.67596852
0.11629122
-0.73190226
0.11541676
-0.79414955
0.10767353
-0.86030684
0.095644586
-0.92909649
0.082348851
-1.0002487
0.07002322
-1.0743398
0.059656297
-1.1524567
0.051177589
-1.2356568
0.044021046
-1.3247952
0.037628974
-1.4205994
0.031682768
-1.5236815
0.026101998
-1.6344179
0.020948362
-1.7531179
0.016327498
-1.8801504
0.012325916
-2.015873
0.0089835361
-2.1605776
0.006292551
-2.3146641
0.0042056882
-2.4790511
0.0026522802
-2.6547722
0.0015449973
-2.8423736
0.00079617984
-3.0424387
0.00030640158
-3.2549661
-0.37559589
0.36119495
-0.40158399
0.30132476
0.019228224
-0.35500959
-0.46052362
-0.34862345
-1.0017072
-0.36144455
-1.4710709
-0.38768269
-1.6390812
-0.41034674
-1.3718223
-0.41558557
-0.42581458
-0.38277096
0.61471795
-0.33874639
1.0123845
-0.3296453
0.88439221
-0.42245066
0.56563542
-0.46771631
0.32684025
-0.50159649
0.19113129
-0.52805902
0.12535287
-0.55411018
0.10799703
-0.58665939
0.11306271
-0.62927537
0.12357058
-0.68146032
0.12598261
-0.74054186
0.11923665
-0.80362788
0.10649383
-0.8690248
0.09152873
-0.93614554
0.07736282
-1.0053983
0.065554309
-1.0779303
0.056225159
-1.155029
0.048690767
-1.2376964
0.042154252
-1.3266347
0.036090859
-1.422447
0.030305394
-1.5255738
0.0248273
-1.636286
0.019781068
-1.7548612
0.015293534
-1.8816936
0.011447453
-2.0171901
0.0082692609
-2.1616331
0.0057370545
-2.3154162
0.003793355
-2.4795114
0.0023616641
-2.655028
0.0013536466
-2.8425163
0.0006827897
-3.0425166
0.00025545502
-3.2549927
-0.36937495
0.014219106
-0.38813522
0.34912217
-0.41496238
0.29140885
-0.44959045
-0.36488954
-0.9699306
-0.37943973
-1.4216145
-0.40991548
-1.5850436
-0.44062356
-1.3230402
-0.45797208
-0.40661501
-0.43358049
0.61872532
-0.3856246
1.0382231
-0.36351821
0.93344581
-0.37768242
0.59244504
-0.44832075
0.33838792
-0.47798035
0.19071872
-0.49961253
0.11871805
-0.52008284
0.10220606
-0.54709846
0.11315405
-0.58527799
0.129991
-0.6339949
0.1365793
-0.69022701
0.13133827
-0.75064986
0.11803294
-0.81313817
0.10124307
-0.8767313
0.084887446
-0.94159044
0.07128173
-1.008903
0.060888385
-1.0801895
0.052941827
-1.1566951
0.046359581
-1.2392276
0.040338508
-1.3282545
0.034510561
-1.4241872
0.028840693
-1.5273926
0.023460796
-1.6380734
0.018539589
-1.7565158
0.014209481
-1.8831477
0.010540759
-2.0184152
0.0075430115
-2.1626044
0.0051799307
-2.3160848
0.0033849265
-2.4799022
0.0020770895
-2.6552417
0.0011682613
-2.8426309
0.00057427299
-3.04258
0.00020747817
-3.2550081
-0.38059352
-0.43731696
-0.38371233
0.011004957
-0.40115571
0.33668792
-0.42889382
0.28058365
-0.93670489
-0.39715187
-1.3679286
-0.43213596
-1.5229305
-0.47092458
-1.2620503
-0.50044357
-0.37776815
-0.48560339
0.62232626
-0.43601631
1.0565241
-0.40284575
0.97789088
-0.40693594
0.6340332
-0.41832657
0.34664691
-0.4553755
0.18712705
-0.47289403
0.10855085
-0.48818222
0.093131294
-0.50988486
0.11116038
-0.54372343
0.13558231
-0.58925258
0.14724677
-0.64292885
0.14407342
-0.70105953
0.13040728
-0.76109406
0.11165057
-0.82165795
0.0927051
-0.8825803
0.076847413
-0.94501842
0.065077967
-1.0107498
0.056625128
-1.0813327
0.050080182
-1.1577939
0.044276211
-1.2405384
0.038598003
-1.3297759
0.032901539
-1.4258844
0.027308401
-1.5291546
0.02202823
-1.6397919
0.017250671
-1.7580925
0.013099344
-1.8845115
0.0096252755
-2.0195469
0.0068193413
-2.1634823
0.0046313841
-2.3166679
0.0029871108
-2.4802252
0.0018026511
-2.655411
0.0009911342
-2.8427245
0.00047164683
-3.0426255
0.00016265929
-3.2550076
-0.41433968
-0.90199252
-0.39647049
-0.42350165
-0.39741767
0.0084723529
-0.41424568
0.32340863
-0.44303067
0.26862556
-1.3101839
-0.4539036
-1.4533822
-0.50057396
-1.1900436
-0.54175031
-0.33978093
-0.53720626
0.62644709
-0.48854927
1.0679053
-0.44630614
1.0158622
-0.43978183
0.67362431
-0.44556397
0.36835234
-0.43881586
0.18077305
-0.44761006
0.095009934
-0.45816329
0.080831965
-0.47484812
0.10703674
-0.50446654
0.14037709
-0.54698342
0.15804658
-0.59841463
0.15752705
-0.65456986
0.14375455
-0.71257058
0.12292586
-0.7705983
0.10095791
-0.82805399
0.082291147
-0.88597041
0.068719257
-0.94639029
0.0595895
-1.0112427
0.053139596
-1.0818299
0.047740283
-1.1586841
0.042435691
-1.2418007
0.036913631
-1.3313099
0.031259722
-1.4275704
0.025720497
-1.5308794
0.020549912
-1.6414455
0.015936266
-1.7595851
0.011982627
-1.88578
0.0087164691
-2.020583
0.0061095413
-2.1642642
0.004099115
-2.3171598
0.0026048193
-2.4804852
0.0015412469
-2.6555436
0.00082380448
-2.8427905
0.00037547837
-3.0426515
0.00012071045
-3.2549907
-0.47480968
-1.2487184
-0.43258981
-0.86490425
-0.41060354
-0.40925582
-0.41041535
0.0058438238
-0.42708147
0.30882476
-0.45698886
0.2553024
-1.3771988
-0.5289716
-1.1086284
-0.58079932
-0.29361612
-0.58668323
0.63180879
-0.54138463
1.0730209
-0.49256358
1.0461935
-0.47559438
0.709572
-0.47474824
0.38805641
-0.4640164
0.18185894
-0.43848815
0.078425291
-0.429911
0.0654159
-0.44178983
0.10076526
-0.46736457
0.14443824
-0.50707181
0.16907927
-0.55647156
0.17177878
-0.61094171
0.15820222
-0.66727123
0.13524881
-0.72323524
0.10981586
-0.77771248
0.087685081
-0.83148355
0.071754437
-0.88682271
0.061681505
-0.94610426
0.055348516
-1.0109724
0.050551761
-1.0821562
0.045878153
-1.1595973
0.04077135
-1.2431187
0.035245231
-1.3328905
0.029575277
-1.4292735
0.024086222
-1.5325675
0.019043335
-1.6430351
0.014614803
-1.760992
0.010875229
-1.8869549
0.0078265271
-2.0215193
0.0054222213
-2.1649413
0.0035887885
-2.3175663
0.0022415164
-2.4806853
0.0012948161
-2.6556356
0.00066722227
-2.8428346
0.00028612847
-3.0426563
8.1360057e-05
-3.2549541
-0.55558502
-1.2953037
-0.49703514
-1.1832756
-0.4481378
-0.8263985
-0.42363804
-0.39496988
-0.42247169
0.0024320643
-0.43931672
0.29251471
-0.47037282
0.24037846
-1.0197206
-0.61668284
-0.2405982
-0.6325797
0.63889429
-0.5925785
1.0726919
-0.53994576
1.0681189
-0.51343839
0.74049217
-0.50551571
0.40335048
-0.48875684
0.17749423
-0.4582067
0.061327871
-0.4202895
0.047148271
-0.41075447
0.092450403
-0.43234244
0.1478494
-0.46939813
0.18043156
-0.51697082
0.18689154
-0.56994597
0.17384585
-0.62492496
0.14879684
-0.67926931
0.11947211
-0.73126134
0.093132244
-0.78128799
0.074144845
-0.83178023
0.062747576
-0.88561903
0.056503929
-0.9448815
0.052515548
-1.0105176
0.048766553
-1.082548
0.044359872
-1.1606247
0.039190398
-1.2445685
0.033549919
-1.334566
0.027839746
-1.4309888
0.022415208
-1.5342166
0.017524362
-1.6445456
0.01330209
-1.7623098
0.009790085
-1.8880314
0.006964953
-2.0223506
0.0047637938
-2.165517
0.0031044164
-2.3178877
0.0018995087
-2.4808306
0.001064538
-2.6556958
0.00052188981
-2.8428524
0.00020372276
-3.0426405
4.4807101e-05
-3.2548973
-0.64878515
-0.92531942
-0.58261883
-1.2085968
-0.5151157
-1.115299
-0.46243529
-0.78662776
-0.43544884
-0.38092582
-0.43338934
-0.0023012202
-0.45063222
0.27413333
-0.48279722
0.22364077
-0.18223473
-0.67380513
0.64786927
-0.64035901
1.0678848
-0.58665477
1.0813592
-0.55212872
0.76483398
-0.53676464
0.41232016
-0.51317212
0.16464453
-0.4744413
0.035516075
-0.43127751
0.020901948
-0.39316626
0.08243936
-0.39968435
0.15063537
-0.43382952
0.1921783
-0.47977861
0.20290509
-0.53143039
0.19075438
-0.58527734
0.16371888
-0.63840086
0.13013476
-0.68841345
0.098768924
-0.73512102
0.075872676
-0.78101176
0.062634834
-0.82950457
0.056389057
-0.88322079
0.053420034
-0.94342306
0.050928402
-1.0102217
0.047555866
-1.0831956
0.043016665
-1.1619055
0.037601327
-1.2462049
0.031792728
-1.3363221
0.026050492
-1.4327043
0.020718822
-1.5358017
0.016008005
-1.6459777
0.012011651
-1.7635358
0.0087376481
-1.8890086
0.0061389864
-2.023075
0.0041388621
-2.1659923
0.002648675
-2.3181346
0.001580169
-2.4809241
0.00085098997
-2.6557232
0.00038799078
-2.8428475
0.00012830913
-3.0426028
1.0456157e-05
-3.2548148
-0.70962089
-0.12015609
-0.67815658
-0.8285781
-0.60421962
-1.118367
-0.53129673
-1.0454386
-0.47524019
-0.74586158
-0.4459079
-0.36733639
-0.4430333
-0.0087100128
-0.46075765
0.2534506
-0.49391416
0.20494002
0.65870533
-0.6834416
1.05951
-0.6308622
1.08571
-0.58994197
0.7809877
-0.56725168
0.41397163
-0.537081
0.14373459
-0.49078204
-0.0016227374
-0.43617708
-0.011978254
-0.3974959
0.059678597
-0.36936202
0.15307631
-0.40090588
0.20432068
-0.44468664
0.21981204
-0.49521314
0.20895151
-0.54812887
0.1801563
-0.60036665
0.14201402
-0.6488703
0.10475612
-0.69271902
0.076945282
-0.73427809
0.06119364
-0.77751034
0.054773944
-0.82570068
0.053033098
-0.88054455
0.05217693
-0.9422653
0.050228468
-1.0103634
0.04664263
-1.0842649
0.041687331
-1.163509
0.035930721
-1.2480227
0.029952589
-1.3381416
0.024211656
-1.4343859
0.019010375
-1.5373152
0.014508326
-1.6473167
0.010755106
-1.7646652
0.0077262083
-1.8898797
0.00535399
-2.0236972
0.0035505387
-2.1663765
0.0022231306
-2.318307
0.0012841306
-2.4809767
0.0006543149
-2.6557223
0.00026548921
-2.842815
6.0076824e-05
-3.0425441
-1.6830136e-05
-3.2547114
-0.72072138
0.67100783
-0.73891326
-0.058155952
-0.70150135
-0.73009275
-0.62254633
-1.0259897
-0.54531633
-0.97436415
-0.48636152
-0.70443247
-0.45490727
-0.35438722
-0.45133663
-0.016945022
-0.4695039
0.23039549
-0.50346837
0.18420199
1.0482204
-0.67102634
1.0816594
-0.62574253
0.78764261
-0.59555277
0.40680866
-0.55873775
0.11602963
-0.50788768
-0.047065024
-0.44420714
-0.054155276
-0.39307669
0.036013041
-0.37275206
0.1414826
-0.35657391
0.21687816
-0.41225591
0.23758323
-0.46106494
0.22841016
-0.51324863
0.19819287
-0.56490893
0.155343
-0.61238867
0.11128748
-0.65381369
0.077388711
-0.69133415
0.058280548
-0.72940603
0.051417292
-0.77206046
0.051108395
-0.82156253
0.052317525
-0.87833437
0.052241777
-0.94177507
0.049986567
-1.0111656
0.045768373
-1.0858391
0.040244108
-1.16541
0.034130978
-1.249979
0.02802311
-1.3399768
0.022333932
-1.4360163
0.017304544
-1.5387378
0.013038468
-1.6485626
0.0095421762
-1.765691
0.0067621908
-1.890648
0.0046137105
-2.0242199
0.0030006855
-2.1666697
0.0018284709
-2.3184224
0.0010114573
-2.4809895
0.00047436248
-2.6556901
0.00015417254
-2.8427603
3.6750444e-07
-3.0424613
-4.1513508e-05
-3.2545845
-0.70548836
1.0341153
-0.74876619
0.6820645
-0.76319337
0.0047789404
-0.71982657
-0.63161171
-0.63699827
-0.93317906
-0.55698997
-0.90273887
-0.49561492
-0.66274951
-0.46242159
-0.34222212
-0.458294
-0.026972898
-0.4767767
0.20505835
-0.51140126
0.16137414
1.0690802
-0.65737381
0.78242733
-0.61947228
0.38921962
-0.57660294
0.081065663
-0.5222823
-0.09726034
-0.45655371
-0.10467142
-0.39274704
0.0094030183
-0.3653557
0.13322716
-0.36326316
0.21679422
-0.35530865
0.256085
-0.42944487
0.24911687
-0.48042206
0.21790152
-0.53178492
0.1703125
-0.57867001
0.11859425
-0.61819923
0.077269351
-0.65195149
0.053757658
-0.68495261
0.046065866
-0.72205879