/*--------------------------------*- C++ -*----------------------------------*\
| =========                 |                                                 |
| \\      /  F ield         | OpenFOAM: The Open Source CFD Toolbox           |
|  \\    /   O peration     | Version:  v2012                                 |
|   \\  /    A nd           | Website:  www.openfoam.com                      |
|    \\/     M anipulation  |                                                 |
\*---------------------------------------------------------------------------*/
FoamFile
{
    version     2.0;
    format      ascii;
    class       pointVectorField;
    location    "81.1321376458981121";
    object      pointDisplacement;
}
// * * * * * * * * * * * * * * * * * * * * * * * * * * * * * * * * * * * * * //

dimensions      [0 1 0 0 0 0 0];


internalField   nonuniform List<vector> 
18840
(
(-1.8564776 -0 -0)
(-1.8563842 0 0)
(-1.8561056 0 0)
(-1.8556447 0 0)
(-1.8550037 0 0)
(-1.8541836 0 0)
(-1.853185 0 0)
(-1.8520078 0 0)
(-1.8506516 0 0)
(-1.8491151 0 0)
(-1.8473972 0 0)
(-1.8454958 0 0)
(-1.843409 0 0)
(-1.8411341 0 0)
(-1.8386685 0 0)
(-1.8360093 0 0)
(-1.8331532 0 0)
(-1.830097 0 0)
(-1.8268375 0 0)
(-1.8233697 0 0)
(-1.8189462 0 0)
(-1.8564776 -0 -0)
(-1.8563828 0 0)
(-1.8561 0 0)
(-1.8556323 0 0)
(-1.8549819 0 0)
(-1.85415 0 0)
(-1.8531371 0 0)
(-1.8519432 0 0)
(-1.8505679 0 0)
(-1.84901 0 0)
(-1.8472682 0 0)
(-1.8453408 0 0)
(-1.8432254 0 0)
(-1.8409196 0 0)
(-1.8384207 0 0)
(-1.8357258 0 0)
(-1.8328315 0 0)
(-1.8297347 0 0)
(-1.8264317 0 0)
(-1.8229182 0 0)
(-1.8191243 0 0)
(-1.8564776 -0 -0)
(-1.8563811 0 0)
(-1.8560933 0 0)
(-1.8556175 0 0)
(-1.8549559 0 0)
(-1.8541099 0 0)
(-1.85308 0 0)
(-1.8518663 0 0)
(-1.8504683 0 0)
(-1.8488848 0 0)
(-1.8471145 0 0)
(-1.8451555 0 0)
(-1.8430056 0 0)
(-1.8406622 0 0)
(-1.8381224 0 0)
(-1.8353832 0 0)
(-1.8324412 0 0)
(-1.8292928 0 0)
(-1.8259342 0 0)
(-1.822361 0 0)
(-1.8184519 0 0)
(-1.8564776 -0 -0)
(-1.8563793 0 0)
(-1.8560863 0 0)
(-1.855602 0 0)
(-1.8549286 0 0)
(-1.8540678 0 0)
(-1.85302 0 0)
(-1.8517853 0 0)
(-1.8503631 0 0)
(-1.8487524 0 0)
(-1.8469517 0 0)
(-1.8449589 0 0)
(-1.8427718 0 0)
(-1.8403877 0 0)
(-1.8378035 0 0)
(-1.835016 0 0)
(-1.8320215 0 0)
(-1.8288164 0 0)
(-1.8253966 0 0)
(-1.8217576 0 0)
(-1.8177337 0 0)
(-1.8564776 -0 -0)
(-1.8563775 0 0)
(-1.856079 0 0)
(-1.8555857 0 0)
(-1.8549001 0 0)
(-1.8540237 0 0)
(-1.852957 0 0)
(-1.8517002 0 0)
(-1.8502527 0 0)
(-1.8486133 0 0)
(-1.8467804 0 0)
(-1.8447518 0 0)
(-1.8425252 0 0)
(-1.8400977 0 0)
(-1.8374659 0 0)
(-1.8346266 0 0)
(-1.8315759 0 0)
(-1.8283097 0 0)
(-1.824824 0 0)
(-1.821114 0 0)
(-1.8169752 0 0)
(-1.8564776 -0 -0)
(-1.8563755 0 0)
(-1.8560714 0 0)
(-1.8555688 0 0)
(-1.8548704 0 0)
(-1.8539777 0 0)
(-1.8528914 0 0)
(-1.8516115 0 0)
(-1.8501374 0 0)
(-1.848468 0 0)
(-1.8466013 0 0)
(-1.8445352 0 0)
(-1.8422671 0 0)
(-1.8397938 0 0)
(-1.837112 0 0)
(-1.8342179 0 0)
(-1.8311075 0 0)
(-1.8277766 0 0)
(-1.8242207 0 0)
(-1.8204352 0 0)
(-1.8161819 0 0)
(-1.8564776 -0 -0)
(-1.8563736 0 0)
(-1.8560636 0 0)
(-1.8555513 0 0)
(-1.8548396 0 0)
(-1.8539301 0 0)
(-1.8528234 0 0)
(-1.8515196 0 0)
(-1.850018 0 0)
(-1.8483172 0 0)
(-1.8464155 0 0)
(-1.8443104 0 0)
(-1.841999 0 0)
(-1.8394781 0 0)
(-1.836744 0 0)
(-1.8337927 0 0)
(-1.8306199 0 0)
(-1.8272212 0 0)
(-1.8235916 0 0)
(-1.8197262 0 0)
(-1.81536 0 0)
(-1.8564776 -0 -0)
(-1.8563716 0 0)
(-1.8560556 0 0)
(-1.8555335 0 0)
(-1.8548081 0 0)
(-1.8538813 0 0)
(-1.8527536 0 0)
(-1.8514252 0 0)
(-1.8498952 0 0)
(-1.8481622 0 0)
(-1.8462243 0 0)
(-1.8440789 0 0)
(-1.8417228 0 0)
(-1.8391527 0 0)
(-1.8363645 0 0)
(-1.8333542 0 0)
(-1.8301167 0 0)
(-1.8266476 0 0)
(-1.8229413 0 0)
(-1.8189929 0 0)
(-1.814516 0 0)
(-1.8564776 -0 -0)
(-1.8563695 0 0)
(-1.8560476 0 0)
(-1.8555156 0 0)
(-1.8547763 0 0)
(-1.8538317 0 0)
(-1.8526826 0 0)
(-1.851329 0 0)
(-1.84977 0 0)
(-1.8480041 0 0)
(-1.8460291 0 0)
(-1.8438424 0 0)
(-1.8414406 0 0)
(-1.8388201 0 0)
(-1.8359764 0 0)
(-1.8329053 0 0)
(-1.8296015 0 0)
(-1.8260598 0 0)
(-1.8222746 0 0)
(-1.8182402 0 0)
(-1.8136561 0 0)
(-1.8564776 -0 -0)
(-1.8563675 0 0)
(-1.8560396 0 0)
(-1.8554976 0 0)
(-1.8547443 0 0)
(-1.8537819 0 0)
(-1.8526111 0 0)
(-1.8512319 0 0)
(-1.8496435 0 0)
(-1.8478441 0 0)
(-1.8458315 0 0)
(-1.8436027 0 0)
(-1.8411544 0 0)
(-1.8384824 0 0)
(-1.8355822 0 0)
(-1.832449 0 0)
(-1.8290774 0 0)
(-1.8254615 0 0)
(-1.8215954 0 0)
(-1.8174728 0 0)
(-1.8127862 0 0)
(-1.8564776 -0 -0)
(-1.8563653 0 0)
(-1.8560308 0 0)
(-1.8554778 0 0)
(-1.8547092 0 0)
(-1.853727 0 0)
(-1.8525323 0 0)
(-1.851125 0 0)
(-1.8495042 0 0)
(-1.847668 0 0)
(-1.845614 0 0)
(-1.843339 0 0)
(-1.8408395 0 0)
(-1.8381111 0 0)
(-1.8351491 0 0)
(-1.831948 0 0)
(-1.8285024 0 0)
(-1.8248057 0 0)
(-1.8208517 0 0)
(-1.8166334 0 0)
(-1.8118454 0 0)
(-1.8564776 -0 -0)
(-1.8563842 0 0)
(-1.8561056 0 0)
(-1.8556447 0 0)
(-1.8550037 0 0)
(-1.8541836 0 0)
(-1.853185 0 0)
(-1.8520078 0 0)
(-1.8506516 0 0)
(-1.8491151 0 0)
(-1.8473972 0 0)
(-1.8454958 0 0)
(-1.843409 0 0)
(-1.8411341 0 0)
(-1.8386685 0 0)
(-1.8360093 0 0)
(-1.8331532 0 0)
(-1.830097 0 0)
(-1.8268375 0 0)
(-1.8233697 0 0)
(-1.8189462 0 0)
(-1.8564776 -0 -0)
(-1.8563828 0 0)
(-1.8561 0 0)
(-1.8556323 0 0)
(-1.8549819 0 0)
(-1.85415 0 0)
(-1.8531371 0 0)
(-1.8519432 0 0)
(-1.8505679 0 0)
(-1.84901 0 0)
(-1.8472682 0 0)
(-1.8453408 0 0)
(-1.8432254 0 0)
(-1.8409196 0 0)
(-1.8384207 0 0)
(-1.8357258 0 0)
(-1.8328315 0 0)
(-1.8297347 0 0)
(-1.8264317 0 0)
(-1.8229182 0 0)
(-1.8191243 0 0)
(-1.8564776 -0 -0)
(-1.8563811 0 0)
(-1.8560933 0 0)
(-1.8556175 0 0)
(-1.8549559 0 0)
(-1.8541099 0 0)
(-1.85308 0 0)
(-1.8518663 0 0)
(-1.8504683 0 0)
(-1.8488848 0 0)
(-1.8471145 0 0)
(-1.8451555 0 0)
(-1.8430056 0 0)
(-1.8406622 0 0)
(-1.8381224 0 0)
(-1.8353832 0 0)
(-1.8324412 0 0)
(-1.8292928 0 0)
(-1.8259342 0 0)
(-1.822361 0 0)
(-1.8184519 0 0)
(-1.8564776 -0 -0)
(-1.8563793 0 0)
(-1.8560863 0 0)
(-1.855602 0 0)
(-1.8549286 0 0)
(-1.8540678 0 0)
(-1.85302 0 0)
(-1.8517853 0 0)
(-1.8503631 0 0)
(-1.8487524 0 0)
(-1.8469517 0 0)
(-1.8449589 0 0)
(-1.8427718 0 0)
(-1.8403877 0 0)
(-1.8378035 0 0)
(-1.835016 0 0)
(-1.8320215 0 0)
(-1.8288164 0 0)
(-1.8253966 0 0)
(-1.8217576 0 0)
(-1.8177337 0 0)
(-1.8564776 -0 -0)
(-1.8563775 0 0)
(-1.856079 0 0)
(-1.8555857 0 0)
(-1.8549001 0 0)
(-1.8540237 0 0)
(-1.852957 0 0)
(-1.8517002 0 0)
(-1.8502527 0 0)
(-1.8486133 0 0)
(-1.8467804 0 0)
(-1.8447518 0 0)
(-1.8425252 0 0)
(-1.8400977 0 0)
(-1.8374659 0 0)
(-1.8346266 0 0)
(-1.8315759 0 0)
(-1.8283097 0 0)
(-1.824824 0 0)
(-1.821114 0 0)
(-1.8169752 0 0)
(-1.8564776 -0 -0)
(-1.8563755 0 0)
(-1.8560714 0 0)
(-1.8555688 0 0)
(-1.8548704 0 0)
(-1.8539777 0 0)
(-1.8528914 0 0)
(-1.8516115 0 0)
(-1.8501374 0 0)
(-1.848468 0 0)
(-1.8466013 0 0)
(-1.8445352 0 0)
(-1.8422671 0 0)
(-1.8397938 0 0)
(-1.837112 0 0)
(-1.8342179 0 0)
(-1.8311075 0 0)
(-1.8277766 0 0)
(-1.8242207 0 0)
(-1.8204352 0 0)
(-1.8161819 0 0)
(-1.8564776 -0 -0)
(-1.8563736 0 0)
(-1.8560636 0 0)
(-1.8555513 0 0)
(-1.8548396 0 0)
(-1.8539301 0 0)
(-1.8528234 0 0)
(-1.8515196 0 0)
(-1.850018 0 0)
(-1.8483172 0 0)
(-1.8464155 0 0)
(-1.8443104 0 0)
(-1.841999 0 0)
(-1.8394781 0 0)
(-1.836744 0 0)
(-1.8337927 0 0)
(-1.8306199 0 0)
(-1.8272212 0 0)
(-1.8235916 0 0)
(-1.8197262 0 0)
(-1.81536 0 0)
(-1.8564776 -0 -0)
(-1.8563716 0 0)
(-1.8560556 0 0)
(-1.8555335 0 0)
(-1.8548081 0 0)
(-1.8538813 0 0)
(-1.8527536 0 0)
(-1.8514252 0 0)
(-1.8498952 0 0)
(-1.8481622 0 0)
(-1.8462243 0 0)
(-1.8440789 0 0)
(-1.8417228 0 0)
(-1.8391527 0 0)
(-1.8363645 0 0)
(-1.8333542 0 0)
(-1.8301167 0 0)
(-1.8266476 0 0)
(-1.8229413 0 0)
(-1.8189929 0 0)
(-1.814516 0 0)
(-1.8564776 -0 -0)
(-1.8563695 0 0)
(-1.8560476 0 0)
(-1.8555156 0 0)
(-1.8547763 0 0)
(-1.8538317 0 0)
(-1.8526826 0 0)
(-1.851329 0 0)
(-1.84977 0 0)
(-1.8480041 0 0)
(-1.8460291 0 0)
(-1.8438424 0 0)
(-1.8414406 0 0)
(-1.8388201 0 0)
(-1.8359764 0 0)
(-1.8329053 0 0)
(-1.8296015 0 0)
(-1.8260598 0 0)
(-1.8222746 0 0)
(-1.8182402 0 0)
(-1.8136561 0 0)
(-1.8564776 -0 -0)
(-1.8563675 0 0)
(-1.8560396 0 0)
(-1.8554976 0 0)
(-1.8547443 0 0)
(-1.8537819 0 0)
(-1.8526111 0 0)
(-1.8512319 0 0)
(-1.8496435 0 0)
(-1.8478441 0 0)
(-1.8458315 0 0)
(-1.8436027 0 0)
(-1.8411544 0 0)
(-1.8384824 0 0)
(-1.8355822 0 0)
(-1.832449 0 0)
(-1.8290774 0 0)
(-1.8254615 0 0)
(-1.8215954 0 0)
(-1.8174728 0 0)
(-1.8127862 0 0)
(-1.8564776 -0 -0)
(-1.8563653 0 0)
(-1.8560308 0 0)
(-1.8554778 0 0)
(-1.8547092 0 0)
(-1.853727 0 0)
(-1.8525323 0 0)
(-1.851125 0 0)
(-1.8495042 0 0)
(-1.847668 0 0)
(-1.845614 0 0)
(-1.843339 0 0)
(-1.8408395 0 0)
(-1.8381111 0 0)
(-1.8351491 0 0)
(-1.831948 0 0)
(-1.8285024 0 0)
(-1.8248057 0 0)
(-1.8208517 0 0)
(-1.8166334 0 0)
(-1.8118454 0 0)
(-1.8564776 -0 -0)
(-1.8563907 0 0)
(-1.8561311 0 0)
(-1.8557008 0 0)
(-1.8551011 0 0)
(-1.854333 0 0)
(-1.8533964 0 0)
(-1.8522907 0 0)
(-1.8510145 0 0)
(-1.8495661 0 0)
(-1.8479429 0 0)
(-1.8461422 0 0)
(-1.8441603 0 0)
(-1.8419933 0 0)
(-1.8396368 0 0)
(-1.8370856 0 0)
(-1.8343345 0 0)
(-1.8313771 0 0)
(-1.8282072 0 0)
(-1.8248158 0 0)
(-1.8208885 0 0)
(-1.8564776 -0 -0)
(-1.8563903 0 0)
(-1.8561295 0 0)
(-1.8556973 0 0)
(-1.8550949 0 0)
(-1.8543234 0 0)
(-1.8533826 0 0)
(-1.852272 0 0)
(-1.8509904 0 0)
(-1.8495357 0 0)
(-1.8479059 0 0)
(-1.8460977 0 0)
(-1.8441079 0 0)
(-1.8419324 0 0)
(-1.8395668 0 0)
(-1.837006 0 0)
(-1.8342446 0 0)
(-1.8312765 0 0)
(-1.8280954 0 0)
(-1.8246924 0 0)
(-1.8207575 0 0)
(-1.8564776 -0 -0)
(-1.8563897 0 0)
(-1.8561272 0 0)
(-1.8556922 0 0)
(-1.855086 0 0)
(-1.8543096 0 0)
(-1.8533631 0 0)
(-1.8522459 0 0)
(-1.8509567 0 0)
(-1.8494939 0 0)
(-1.847855 0 0)
(-1.8460373 0 0)
(-1.8440373 0 0)
(-1.8418511 0 0)
(-1.8394743 0 0)
(-1.8369019 0 0)
(-1.8341286 0 0)
(-1.8311484 0 0)
(-1.827955 0 0)
(-1.8245399 0 0)
(-1.8206054 0 0)
(-1.8564776 -0 -0)
(-1.8563891 0 0)
(-1.8561248 0 0)
(-1.855687 0 0)
(-1.855077 0 0)
(-1.8542958 0 0)
(-1.8533437 0 0)
(-1.8522199 0 0)
(-1.8509236 0 0)
(-1.8494528 0 0)
(-1.8478055 0 0)
(-1.8459788 0 0)
(-1.8439695 0 0)
(-1.8417737 0 0)
(-1.8393872 0 0)
(-1.836805 0 0)
(-1.8340221 0 0)
(-1.8310326 0 0)
(-1.8278305 0 0)
(-1.8244073 0 0)
(-1.8204847 0 0)
(-1.8564776 -0 -0)
(-1.8563885 0 0)
(-1.8561225 0 0)
(-1.8556818 0 0)
(-1.855068 0 0)
(-1.854282 0 0)
(-1.8533243 0 0)
(-1.8521942 0 0)
(-1.8508907 0 0)
(-1.8494123 0 0)
(-1.8477569 0 0)
(-1.8459217 0 0)
(-1.8439037 0 0)
(-1.8416991 0 0)
(-1.8393041 0 0)
(-1.8367137 0 0)
(-1.8339232 0 0)
(-1.8309268 0 0)
(-1.8277188 0 0)
(-1.8242912 0 0)
(-1.8203916 0 0)
(-1.8564776 -0 -0)
(-1.8563879 0 0)
(-1.85612 0 0)
(-1.8556765 0 0)
(-1.8550588 0 0)
(-1.8542681 0 0)
(-1.8533046 0 0)
(-1.8521681 0 0)
(-1.8508575 0 0)
(-1.8493714 0 0)
(-1.8477079 0 0)
(-1.8458644 0 0)
(-1.8438379 0 0)
(-1.841625 0 0)
(-1.839222 0 0)
(-1.8366243 0 0)
(-1.8338272 0 0)
(-1.8308255 0 0)
(-1.8276137 0 0)
(-1.8241844 0 0)
(-1.8203178 0 0)
(-1.8564776 -0 -0)
(-1.8563872 0 0)
(-1.8561175 0 0)
(-1.855671 0 0)
(-1.8550493 0 0)
(-1.8542537 0 0)
(-1.8532844 0 0)
(-1.8521413 0 0)
(-1.8508233 0 0)
(-1.8493293 0 0)
(-1.8476574 0 0)
(-1.8458052 0 0)
(-1.8437699 0 0)
(-1.8415485 0 0)
(-1.8391373 0 0)
(-1.8365323 0 0)
(-1.8337287 0 0)
(-1.8307223 0 0)
(-1.8275073 0 0)
(-1.8240772 0 0)
(-1.8202524 0 0)
(-1.8564776 -0 -0)
(-1.8563866 0 0)
(-1.8561149 0 0)
(-1.8556652 0 0)
(-1.8550395 0 0)
(-1.8542388 0 0)
(-1.8532634 0 0)
(-1.8521132 0 0)
(-1.8507875 0 0)
(-1.8492851 0 0)
(-1.8476041 0 0)
(-1.8457426 0 0)
(-1.8436978 0 0)
(-1.8414671 0 0)
(-1.8390468 0 0)
(-1.8364335 0 0)
(-1.8336227 0 0)
(-1.8306104 0 0)
(-1.8273915 0 0)
(-1.8239602 0 0)
(-1.8201845 0 0)
(-1.8564776 -0 -0)
(-1.8563859 0 0)
(-1.8561122 0 0)
(-1.8556593 0 0)
(-1.8550293 0 0)
(-1.8542231 0 0)
(-1.8532413 0 0)
(-1.8520836 0 0)
(-1.8507494 0 0)
(-1.8492377 0 0)
(-1.8475469 0 0)
(-1.845675 0 0)
(-1.8436195 0 0)
(-1.8413779 0 0)
(-1.838947 0 0)
(-1.8363233 0 0)
(-1.8335032 0 0)
(-1.8304829 0 0)
(-1.8272578 0 0)
(-1.8238229 0 0)
(-1.8201016 0 0)
(-1.8564776 -0 -0)
(-1.8563852 0 0)
(-1.8561094 0 0)
(-1.8556531 0 0)
(-1.8550185 0 0)
(-1.8542064 0 0)
(-1.8532175 0 0)
(-1.8520516 0 0)
(-1.8507082 0 0)
(-1.8491863 0 0)
(-1.8474842 0 0)
(-1.8456003 0 0)
(-1.8435322 0 0)
(-1.8412774 0 0)
(-1.838833 0 0)
(-1.8361959 0 0)
(-1.8333628 0 0)
(-1.8303303 0 0)
(-1.8270945 0 0)
(-1.8236506 0 0)
(-1.819988 0 0)
(-1.8564776 -0 -0)
(-1.8563907 0 0)
(-1.8561311 0 0)
(-1.8557008 0 0)
(-1.8551011 0 0)
(-1.854333 0 0)
(-1.8533964 0 0)
(-1.8522907 0 0)
(-1.8510145 0 0)
(-1.8495661 0 0)
(-1.8479429 0 0)
(-1.8461422 0 0)
(-1.8441603 0 0)
(-1.8419933 0 0)
(-1.8396368 0 0)
(-1.8370856 0 0)
(-1.8343345 0 0)
(-1.8313771 0 0)
(-1.8282072 0 0)
(-1.8248158 0 0)
(-1.8208885 0 0)
(-1.8564776 -0 -0)
(-1.8563903 0 0)
(-1.8561295 0 0)
(-1.8556973 0 0)
(-1.8550949 0 0)
(-1.8543234 0 0)
(-1.8533826 0 0)
(-1.852272 0 0)
(-1.8509904 0 0)
(-1.8495357 0 0)
(-1.8479059 0 0)
(-1.8460977 0 0)
(-1.8441079 0 0)
(-1.8419324 0 0)
(-1.8395668 0 0)
(-1.837006 0 0)
(-1.8342446 0 0)
(-1.8312765 0 0)
(-1.8280954 0 0)
(-1.8246924 0 0)
(-1.8207575 0 0)
(-1.8564776 -0 -0)
(-1.8563897 0 0)
(-1.8561272 0 0)
(-1.8556922 0 0)
(-1.855086 0 0)
(-1.8543096 0 0)
(-1.8533631 0 0)
(-1.8522459 0 0)
(-1.8509567 0 0)
(-1.8494939 0 0)
(-1.847855 0 0)
(-1.8460373 0 0)
(-1.8440373 0 0)
(-1.8418511 0 0)
(-1.8394743 0 0)
(-1.8369019 0 0)
(-1.8341286 0 0)
(-1.8311484 0 0)
(-1.827955 0 0)
(-1.8245399 0 0)
(-1.8206054 0 0)
(-1.8564776 -0 -0)
(-1.8563891 0 0)
(-1.8561248 0 0)
(-1.855687 0 0)
(-1.855077 0 0)
(-1.8542958 0 0)
(-1.8533437 0 0)
(-1.8522199 0 0)
(-1.8509236 0 0)
(-1.8494528 0 0)
(-1.8478055 0 0)
(-1.8459788 0 0)
(-1.8439695 0 0)
(-1.8417737 0 0)
(-1.8393872 0 0)
(-1.836805 0 0)
(-1.8340221 0 0)
(-1.8310326 0 0)
(-1.8278305 0 0)
(-1.8244073 0 0)
(-1.8204847 0 0)
(-1.8564776 -0 -0)
(-1.8563885 0 0)
(-1.8561225 0 0)
(-1.8556818 0 0)
(-1.855068 0 0)
(-1.854282 0 0)
(-1.8533243 0 0)
(-1.8521942 0 0)
(-1.8508907 0 0)
(-1.8494123 0 0)
(-1.8477569 0 0)
(-1.8459217 0 0)
(-1.8439037 0 0)
(-1.8416991 0 0)
(-1.8393041 0 0)
(-1.8367137 0 0)
(-1.8339232 0 0)
(-1.8309268 0 0)
(-1.8277188 0 0)
(-1.8242912 0 0)
(-1.8203916 0 0)
(-1.8564776 -0 -0)
(-1.8563879 0 0)
(-1.85612 0 0)
(-1.8556765 0 0)
(-1.8550588 0 0)
(-1.8542681 0 0)
(-1.8533046 0 0)
(-1.8521681 0 0)
(-1.8508575 0 0)
(-1.8493714 0 0)
(-1.8477079 0 0)
(-1.8458644 0 0)
(-1.8438379 0 0)
(-1.841625 0 0)
(-1.839222 0 0)
(-1.8366243 0 0)
(-1.8338272 0 0)
(-1.8308255 0 0)
(-1.8276137 0 0)
(-1.8241844 0 0)
(-1.8203178 0 0)
(-1.8564776 -0 -0)
(-1.8563872 0 0)
(-1.8561175 0 0)
(-1.855671 0 0)
(-1.8550493 0 0)
(-1.8542537 0 0)
(-1.8532844 0 0)
(-1.8521413 0 0)
(-1.8508233 0 0)
(-1.8493293 0 0)
(-1.8476574 0 0)
(-1.8458052 0 0)
(-1.8437699 0 0)
(-1.8415485 0 0)
(-1.8391373 0 0)
(-1.8365323 0 0)
(-1.8337287 0 0)
(-1.8307223 0 0)
(-1.8275073 0 0)
(-1.8240772 0 0)
(-1.8202524 0 0)
(-1.8564776 -0 -0)
(-1.8563866 0 0)
(-1.8561149 0 0)
(-1.8556652 0 0)
(-1.8550395 0 0)
(-1.8542388 0 0)
(-1.8532634 0 0)
(-1.8521132 0 0)
(-1.8507875 0 0)
(-1.8492851 0 0)
(-1.8476041 0 0)
(-1.8457426 0 0)
(-1.8436978 0 0)
(-1.8414671 0 0)
(-1.8390468 0 0)
(-1.8364335 0 0)
(-1.8336227 0 0)
(-1.8306104 0 0)
(-1.8273915 0 0)
(-1.8239602 0 0)
(-1.8201845 0 0)
(-1.8564776 -0 -0)
(-1.8563859 0 0)
(-1.8561122 0 0)
(-1.8556593 0 0)
(-1.8550293 0 0)
(-1.8542231 0 0)
(-1.8532413 0 0)
(-1.8520836 0 0)
(-1.8507494 0 0)
(-1.8492377 0 0)
(-1.8475469 0 0)
(-1.845675 0 0)
(-1.8436195 0 0)
(-1.8413779 0 0)
(-1.838947 0 0)
(-1.8363233 0 0)
(-1.8335032 0 0)
(-1.8304829 0 0)
(-1.8272578 0 0)
(-1.8238229 0 0)
(-1.8201016 0 0)
(-1.8564776 -0 -0)
(-1.8563852 0 0)
(-1.8561094 0 0)
(-1.8556531 0 0)
(-1.8550185 0 0)
(-1.8542064 0 0)
(-1.8532175 0 0)
(-1.8520516 0 0)
(-1.8507082 0 0)
(-1.8491863 0 0)
(-1.8474842 0 0)
(-1.8456003 0 0)
(-1.8435322 0 0)
(-1.8412774 0 0)
(-1.838833 0 0)
(-1.8361959 0 0)
(-1.8333628 0 0)
(-1.8303303 0 0)
(-1.8270945 0 0)
(-1.8236506 0 0)
(-1.819988 0 0)
(-1.8160214 0 0)
(-1.8104888 0 0)
(-1.8045901 0 0)
(-1.7983186 0 0)
(-1.7916673 0 0)
(-1.7846247 0 0)
(-1.7771628 0 0)
(-1.7692365 0 0)
(-1.7607991 0 0)
(-1.7518127 0 0)
(-1.742244 0 0)
(-1.7320594 0 0)
(-1.7212165 0 0)
(-1.7096644 0 0)
(-1.6973514 0 0)
(-1.6842332 0 0)
(-1.6702677 0 0)
(-1.6553973 0 0)
(-1.6395555 0 0)
(-1.6226844 0 0)
(-1.6047341 0 0)
(-1.5856459 0 0)
(-1.5653455 0 0)
(-1.543756 0 0)
(-1.5207997 0 0)
(-1.49639 0 0)
(-1.4704286 0 0)
(-1.4428194 0 0)
(-1.4134493 0 0)
(-1.3821787 0 0)
(-1.3488773 0 0)
(-1.3134089 0 0)
(-1.2755873 0 0)
(-1.2352196 0 0)
(-1.192125 0 0)
(-1.1460773 0 0)
(-1.0968009 0 0)
(-1.0440494 0 0)
(-0.98757668 0 0)
(-0.92706579 0 0)
(-0.86215872 0 0)
(-0.79246092 0 0)
(-0.71754022 0 0)
(-0.63692239 0 0)
(-0.5500782 0 0)
(-0.45643367 0 0)
(-0.35535488 0 0)
(-0.24609597 0 0)
(-0.12779423 0 0)
(0 0 0)
(-1.8158921 0 0)
(-1.8103659 0 0)
(-1.8044737 0 0)
(-1.7982095 0 0)
(-1.7915676 0 0)
(-1.7845372 0 0)
(-1.7770907 0 0)
(-1.7691817 0 0)
(-1.7607626 0 0)
(-1.7517938 0 0)
(-1.7422422 0 0)
(-1.7320745 0 0)
(-1.7212488 0 0)
(-1.7097134 0 0)
(-1.697416 0 0)
(-1.6843132 0 0)
(-1.6703624 0 0)
(-1.6555053 0 0)
(-1.6396756 0 0)
(-1.6228154 0 0)
(-1.6048748 0 0)
(-1.5857955 0 0)
(-1.5655033 0 0)
(-1.5439209 0 0)
(-1.5209711 0 0)
(-1.496567 0 0)
(-1.4706103 0 0)
(-1.4430048 0 0)
(-1.4136374 0 0)
(-1.382369 0 0)
(-1.3490687 0 0)
(-1.3136009 0 0)
(-1.275779 0 0)
(-1.2354105 0 0)
(-1.1923145 0 0)
(-1.1462655 0 0)
(-1.0969865 0 0)
(-1.0442308 0 0)
(-0.98775274 0 0)
(-0.92723446 0 0)
(-0.86231807 0 0)
(-0.79260943 0 0)
(-0.71767612 0 0)
(-0.63704439 0 0)
(-0.55018481 0 0)
(-0.45652268 0 0)
(-0.35542396 0 0)
(-0.24614348 0 0)
(-0.12781875 0 0)
(0 0 0)
(-1.8157653 0 0)
(-1.8102757 0 0)
(-1.8044193 0 0)
(-1.7981906 0 0)
(-1.7915846 0 0)
(-1.7845911 0 0)
(-1.7771824 0 0)
(-1.769312 0 0)
(-1.7609309 0 0)
(-1.7519992 0 0)
(-1.742484 0 0)
(-1.7323523 0 0)
(-1.721562 0 0)
(-1.710061 0 0)
(-1.6977971 0 0)
(-1.6847265 0 0)
(-1.6708067 0 0)
(-1.6559791 0 0)
(-1.6401769 0 0)
(-1.6233416 0 0)
(-1.6054243 0 0)
(-1.5863673 0 0)
(-1.5660955 0 0)
(-1.5445312 0 0)
(-1.5215986 0 0)
(-1.4972099 0 0)
(-1.4712662 0 0)
(-1.4436717 0 0)
(-1.4143137 0 0)
(-1.3830523 0 0)
(-1.3497565 0 0)
(-1.3142916 0 0)
(-1.2764704 0 0)
(-1.2360996 0 0)
(-1.192999 0 0)
(-1.1469433 0 0)
(-1.0976545 0 0)
(-1.0448846 0 0)
(-0.98838854 0 0)
(-0.92784706 0 0)
(-0.86290154 0 0)
(-0.79315807 0 0)
(-0.71818395 0 0)
(-0.63750523 0 0)
(-0.55059156 0 0)
(-0.45686699 0 0)
(-0.35569661 0 0)
(-0.24633511 0 0)
(-0.12791941 0 0)
(0 0 0)
(-1.8156951 0 0)
(-1.8102736 0 0)
(-1.8044833 0 0)
(-1.7983186 0 0)
(-1.7917753 0 0)
(-1.7848435 0 0)
(-1.7774954 0 0)
(-1.7696842 0 0)
(-1.7613612 0 0)
(-1.7524866 0 0)
(-1.7430274 0 0)
(-1.7329507 0 0)
(-1.7222145 0 0)
(-1.710766 0 0)
(-1.6985527 0 0)
(-1.6855316 0 0)
(-1.6716593 0 0)
(-1.6568768 0 0)
(-1.6411168 0 0)
(-1.6243209 0 0)
(-1.6064403 0 0)
(-1.5874178 0 0)
(-1.5671778 0 0)
(-1.5456426 0 0)
(-1.5227366 0 0)
(-1.4983717 0 0)
(-1.4724488 0 0)
(-1.4448717 0 0)
(-1.4155278 0 0)
(-1.384277 0 0)
(-1.350988 0 0)
(-1.3155266 0 0)
(-1.2777048 0 0)
(-1.237329 0 0)
(-1.1942188 0 0)
(-1.148149 0 0)
(-1.0988405 0 0)
(-1.0460445 0 0)
(-0.98951535 0 0)
(-0.92893219 0 0)
(-0.86393546 0 0)
(-0.79413073 0 0)
(-0.7190846 0 0)
(-0.63832297 0 0)
(-0.55131382 0 0)
(-0.45747887 0 0)
(-0.3561821 0 0)
(-0.2466771 0 0)
(-0.12809926 0 0)
(0 0 0)
(-1.8156776 0 0)
(-1.8103553 0 0)
(-1.8046608 0 0)
(-1.7985886 0 0)
(-1.7921347 0 0)
(-1.7852892 0 0)
(-1.7780239 0 0)
(-1.7702926 0 0)
(-1.7620479 0 0)
(-1.7532498 0 0)
(-1.7438658 0 0)
(-1.7338631 0 0)
(-1.7231992 0 0)
(-1.711821 0 0)
(-1.699676 0 0)
(-1.6867211 0 0)
(-1.6729124 0 0)
(-1.6581906 0 0)
(-1.6424876 0 0)
(-1.6257448 0 0)
(-1.6079142 0 0)
(-1.5889388 0 0)
(-1.5687421 0 0)
(-1.547246 0 0)
(-1.5243761 0 0)
(-1.5000436 0 0)
(-1.4741487 0 0)
(-1.4465952 0 0)
(-1.4172706 0 0)
(-1.3860341 0 0)
(-1.3527536 0 0)
(-1.3172963 0 0)
(-1.2794731 0 0)
(-1.2390891 0 0)
(-1.1959644 0 0)
(-1.1498734 0 0)
(-1.1005358 0 0)
(-1.0477015 0 0)
(-0.99112464 0 0)
(-0.93048185 0 0)
(-0.86541202 0 0)
(-0.79551989 0 0)
(-0.72037143 0 0)
(-0.63949156 0 0)
(-0.55234607 0 0)
(-0.45835385 0 0)
(-0.35687686 0 0)
(-0.24716678 0 0)
(-0.12835699 0 0)
(0 0 0)
(-1.8157038 0 0)
(-1.8105115 0 0)
(-1.804942 0 0)
(-1.7989901 0 0)
(-1.7926519 0 0)
(-1.7859173 0 0)
(-1.7787574 0 0)
(-1.7711267 0 0)
(-1.7629793 0 0)
(-1.7542775 0 0)
(-1.7449883 0 0)
(-1.7350782 0 0)
(-1.7245046 0 0)
(-1.7132143 0 0)
(-1.7011548 0 0)
(-1.6882829 0 0)
(-1.6745539 0 0)
(-1.6599078 0 0)
(-1.6442763 0 0)
(-1.6276009 0 0)
(-1.6098333 0 0)
(-1.5909167 0 0)
(-1.5707745 0 0)
(-1.5493281 0 0)
(-1.5265034 0 0)
(-1.5022114 0 0)
(-1.4763518 0 0)
(-1.4488283 0 0)
(-1.4195278 0 0)
(-1.3883088 0 0)
(-1.3550392 0 0)
(-1.3195866 0 0)
(-1.2817606 0 0)
(-1.241366 0 0)
(-1.1982222 0 0)
(-1.152103 0 0)
(-1.1027269 0 0)
(-1.0498429 0 0)
(-0.99320382 0 0)
(-0.93248376 0 0)
(-0.86731973 0 0)
(-0.79731506 0 0)
(-0.72203441 0 0)
(-0.64100205 0 0)
(-0.55368059 0 0)
(-0.45948529 0 0)
(-0.35777551 0 0)
(-0.24780051 0 0)
(-0.12869065 0 0)
(0 0 0)
(-1.8157621 0 0)
(-1.8107296 0 0)
(-1.8053135 0 0)
(-1.7995088 0 0)
(-1.7933124 0 0)
(-1.7867136 0 0)
(-1.7796808 0 0)
(-1.7721707 0 0)
(-1.7641403 0 0)
(-1.7555542 0 0)
(-1.7463796 0 0)
(-1.7365808 0 0)
(-1.7261151 0 0)
(-1.7149301 0 0)
(-1.702973 0 0)
(-1.6902004 0 0)
(-1.6765671 0 0)
(-1.662012 0 0)
(-1.6464663 0 0)
(-1.6298717 0 0)
(-1.6121802 0 0)
(-1.5933345 0 0)
(-1.5732576 0 0)
(-1.5518708 0 0)
(-1.5291006 0 0)
(-1.504857 0 0)
(-1.4790394 0 0)
(-1.4515521 0 0)
(-1.4222811 0 0)
(-1.391083 0 0)
(-1.3578261 0 0)
(-1.3223787 0 0)
(-1.2845493 0 0)
(-1.2441412 0 0)
(-1.2009739 0 0)
(-1.1548202 0 0)
(-1.1053967 0 0)
(-1.0524516 0 0)
(-0.99573653 0 0)
(-0.93492233 0 0)
(-0.86964376 0 0)
(-0.79950209 0 0)
(-0.72406081 0 0)
(-0.64284276 0 0)
(-0.55530697 0 0)
(-0.46086444 0 0)
(-0.35887129 0 0)
(-0.24857348 0 0)
(-0.12909763 0 0)
(0 0 0)
(-1.8158396 0 0)
(-1.810996 0 0)
(-1.8057607 0 0)
(-1.8001298 0 0)
(-1.7940998 0 0)
(-1.7876588 0 0)
(-1.7807754 0 0)
(-1.773406 0 0)
(-1.7655118 0 0)
(-1.7570625 0 0)
(-1.7480227 0 0)
(-1.7383528 0 0)
(-1.7280118 0 0)
(-1.7169487 0 0)
(-1.7051105 0 0)
(-1.6924537 0 0)
(-1.678932 0 0)
(-1.6644824 0 0)
(-1.6490366 0 0)
(-1.6325369 0 0)
(-1.6149342 0 0)
(-1.5961706 0 0)
(-1.5761695 0 0)
(-1.5548525 0 0)
(-1.5321455 0 0)
(-1.5079579 0 0)
(-1.4821896 0 0)
(-1.4547445 0 0)
(-1.4255076 0 0)
(-1.3943338 0 0)
(-1.3610916 0 0)
(-1.3256501 0 0)
(-1.2878162 0 0)
(-1.2473926 0 0)
(-1.2041979 0 0)
(-1.1580033 0 0)
(-1.108524 0 0)
(-1.0555072 0 0)
(-0.9987028 0 0)
(-0.93777835 0 0)
(-0.87236594 0 0)
(-0.80206419 0 0)
(-0.72643494 0 0)
(-0.6449996 0 0)
(-0.55721282 0 0)
(-0.46248078 0 0)
(-0.36015583 0 0)
(-0.24947979 0 0)
(-0.12957478 0 0)
(0 0 0)
(-1.8159233 0 0)
(-1.8112959 0 0)
(-1.8062687 0 0)
(-1.8008354 0 0)
(-1.7949948 0 0)
(-1.7887346 0 0)
(-1.7820225 0 0)
(-1.7748158 0 0)
(-1.7670795 0 0)
(-1.7587838 0 0)
(-1.7498947 0 0)
(-1.7403724 0 0)
(-1.7301744 0 0)
(-1.71925 0 0)
(-1.7075468 0 0)
(-1.6950213 0 0)
(-1.681626 0 0)
(-1.6672957 0 0)
(-1.6519631 0 0)
(-1.6355716 0 0)
(-1.6180706 0 0)
(-1.5994005 0 0)
(-1.5794854 0 0)
(-1.5582476 0 0)
(-1.5356127 0 0)
(-1.5114887 0 0)
(-1.4857757 0 0)
(-1.4583787 0 0)
(-1.4291813 0 0)
(-1.3980353 0 0)
(-1.3648095 0 0)
(-1.3293745 0 0)
(-1.2915353 0 0)
(-1.2510939 0 0)
(-1.2078683 0 0)
(-1.1616274 0 0)
(-1.1120845 0 0)
(-1.0589857 0 0)
(-1.0020795 0 0)
(-0.94102967 0 0)
(-0.87546512 0 0)
(-0.80498135 0 0)
(-0.72913848 0 0)
(-0.64745593 0 0)
(-0.55938355 0 0)
(-0.46432203 0 0)
(-0.36161933 0 0)
(-0.25051247 0 0)
(-0.13011848 0 0)
(0 0 0)
(-1.8159988 0 0)
(-1.8116162 0 0)
(-1.8068228 0 0)
(-1.8016126 0 0)
(-1.7959847 0 0)
(-1.7899258 0 0)
(-1.7834036 0 0)
(-1.7763811 0 0)
(-1.7688221 0 0)
(-1.760696 0 0)
(-1.7519746 0 0)
(-1.742619 0 0)
(-1.7325818 0 0)
(-1.721812 0 0)
(-1.7102578 0 0)
(-1.6978751 0 0)
(-1.6846173 0 0)
(-1.6704203 0 0)
(-1.6552155 0 0)
(-1.6389462 0 0)
(-1.6215583 0 0)
(-1.6029907 0 0)
(-1.5831708 0 0)
(-1.5620216 0 0)
(-1.5394665 0 0)
(-1.5154128 0 0)
(-1.4897614 0 0)
(-1.4624182 0 0)
(-1.4332649 0 0)
(-1.4021501 0 0)
(-1.3689426 0 0)
(-1.3335143 0 0)
(-1.2956692 0 0)
(-1.2552084 0 0)
(-1.2119488 0 0)
(-1.1656566 0 0)
(-1.116043 0 0)
(-1.0628534 0 0)
(-1.0058339 0 0)
(-0.94464474 0 0)
(-0.87891164 0 0)
(-0.80822606 0 0)
(-0.73214592 0 0)
(-0.65018885 0 0)
(-0.56179912 0 0)
(-0.4663713 0 0)
(-0.36324857 0 0)
(-0.25166247 0 0)
(-0.13072401 0 0)
(0 0 0)
(-1.8150477 0 0)
(-1.8108963 0 0)
(-1.8063271 0 0)
(-1.8013354 0 0)
(-1.7959176 0 0)
(-1.7900545 0 0)
(-1.7837197 0 0)
(-1.7768817 0 0)
(-1.769502 0 0)
(-1.7615491 0 0)
(-1.7529985 0 0)
(-1.7438113 0 0)
(-1.7339371 0 0)
(-1.723325 0 0)
(-1.711924 0 0)
(-1.6996901 0 0)
(-1.6865796 0 0)
(-1.6725295 0 0)
(-1.6574677 0 0)
(-1.6413336 0 0)
(-1.6240729 0 0)
(-1.6056267 0 0)
(-1.5859238 0 0)
(-1.5648856 0 0)
(-1.5424352 0 0)
(-1.5184786 0 0)
(-1.4929164 0 0)
(-1.4656559 0 0)
(-1.4365777 0 0)
(-1.4055272 0 0)
(-1.3723721 0 0)
(-1.3369863 0 0)
(-1.2991727 0 0)
(-1.2587303 0 0)
(-1.2154757 0 0)
(-1.1691726 0 0)
(-1.1195307 0 0)
(-1.0662924 0 0)
(-1.0092022 0 0)
(-0.94791696 0 0)
(-0.88205855 0 0)
(-0.81121429 0 0)
(-0.7349394 0 0)
(-0.65274919 0 0)
(-0.56408205 0 0)
(-0.46832596 0 0)
(-0.36481847 0 0)
(-0.25278522 0 0)
(-0.13133035 0 0)
(0 0 0)
(-1.8160214 0 0)
(-1.8104888 0 0)
(-1.8045901 0 0)
(-1.7983186 0 0)
(-1.7916673 0 0)
(-1.7846247 0 0)
(-1.7771628 0 0)
(-1.7692365 0 0)
(-1.7607991 0 0)
(-1.7518127 0 0)
(-1.742244 0 0)
(-1.7320594 0 0)
(-1.7212165 0 0)
(-1.7096644 0 0)
(-1.6973514 0 0)
(-1.6842332 0 0)
(-1.6702677 0 0)
(-1.6553973 0 0)
(-1.6395555 0 0)
(-1.6226844 0 0)
(-1.6047341 0 0)
(-1.5856459 0 0)
(-1.5653455 0 0)
(-1.543756 0 0)
(-1.5207997 0 0)
(-1.49639 0 0)
(-1.4704286 0 0)
(-1.4428194 0 0)
(-1.4134493 0 0)
(-1.3821787 0 0)
(-1.3488773 0 0)
(-1.3134089 0 0)
(-1.2755873 0 0)
(-1.2352196 0 0)
(-1.192125 0 0)
(-1.1460773 0 0)
(-1.0968009 0 0)
(-1.0440494 0 0)
(-0.98757668 0 0)
(-0.92706579 0 0)
(-0.86215872 0 0)
(-0.79246092 0 0)
(-0.71754022 0 0)
(-0.63692239 0 0)
(-0.5500782 0 0)
(-0.45643367 0 0)
(-0.35535488 0 0)
(-0.24609597 0 0)
(-0.12779423 0 0)
(0 0 0)
(-1.8158921 0 0)
(-1.8103659 0 0)
(-1.8044737 0 0)
(-1.7982095 0 0)
(-1.7915676 0 0)
(-1.7845372 0 0)
(-1.7770907 0 0)
(-1.7691817 0 0)
(-1.7607626 0 0)
(-1.7517938 0 0)
(-1.7422422 0 0)
(-1.7320745 0 0)
(-1.7212488 0 0)
(-1.7097134 0 0)
(-1.697416 0 0)
(-1.6843132 0 0)
(-1.6703624 0 0)
(-1.6555053 0 0)
(-1.6396756 0 0)
(-1.6228154 0 0)
(-1.6048748 0 0)
(-1.5857955 0 0)
(-1.5655033 0 0)
(-1.5439209 0 0)
(-1.5209711 0 0)
(-1.496567 0 0)
(-1.4706103 0 0)
(-1.4430048 0 0)
(-1.4136374 0 0)
(-1.382369 0 0)
(-1.3490687 0 0)
(-1.3136009 0 0)
(-1.275779 0 0)
(-1.2354105 0 0)
(-1.1923145 0 0)
(-1.1462655 0 0)
(-1.0969865 0 0)
(-1.0442308 0 0)
(-0.98775274 0 0)
(-0.92723446 0 0)
(-0.86231807 0 0)
(-0.79260943 0 0)
(-0.71767612 0 0)
(-0.63704439 0 0)
(-0.55018481 0 0)
(-0.45652268 0 0)
(-0.35542396 0 0)
(-0.24614348 0 0)
(-0.12781875 0 0)
(0 0 0)
(-1.8157653 0 0)
(-1.8102757 0 0)
(-1.8044193 0 0)
(-1.7981906 0 0)
(-1.7915846 0 0)
(-1.7845911 0 0)
(-1.7771824 0 0)
(-1.769312 0 0)
(-1.7609309 0 0)
(-1.7519992 0 0)
(-1.742484 0 0)
(-1.7323523 0 0)
(-1.721562 0 0)
(-1.710061 0 0)
(-1.6977971 0 0)
(-1.6847265 0 0)
(-1.6708067 0 0)
(-1.6559791 0 0)
(-1.6401769 0 0)
(-1.6233416 0 0)
(-1.6054243 0 0)
(-1.5863673 0 0)
(-1.5660955 0 0)
(-1.5445312 0 0)
(-1.5215986 0 0)
(-1.4972099 0 0)
(-1.4712662 0 0)
(-1.4436717 0 0)
(-1.4143137 0 0)
(-1.3830523 0 0)
(-1.3497565 0 0)
(-1.3142916 0 0)
(-1.2764704 0 0)
(-1.2360996 0 0)
(-1.192999 0 0)
(-1.1469433 0 0)
(-1.0976545 0 0)
(-1.0448846 0 0)
(-0.98838854 0 0)
(-0.92784706 0 0)
(-0.86290154 0 0)
(-0.79315807 0 0)
(-0.71818395 0 0)
(-0.63750523 0 0)
(-0.55059156 0 0)
(-0.45686699 0 0)
(-0.35569661 0 0)
(-0.24633511 0 0)
(-0.12791941 0 0)
(0 0 0)
(-1.8156951 0 0)
(-1.8102736 0 0)
(-1.8044833 0 0)
(-1.7983186 0 0)
(-1.7917753 0 0)
(-1.7848435 0 0)
(-1.7774954 0 0)
(-1.7696842 0 0)
(-1.7613612 0 0)
(-1.7524866 0 0)
(-1.7430274 0 0)
(-1.7329507 0 0)
(-1.7222145 0 0)
(-1.710766 0 0)
(-1.6985527 0 0)
(-1.6855316 0 0)
(-1.6716593 0 0)
(-1.6568768 0 0)
(-1.6411168 0 0)
(-1.6243209 0 0)
(-1.6064403 0 0)
(-1.5874178 0 0)
(-1.5671778 0 0)
(-1.5456426 0 0)
(-1.5227366 0 0)
(-1.4983717 0 0)
(-1.4724488 0 0)
(-1.4448717 0 0)
(-1.4155278 0 0)
(-1.384277 0 0)
(-1.350988 0 0)
(-1.3155266 0 0)
(-1.2777048 0 0)
(-1.237329 0 0)
(-1.1942188 0 0)
(-1.148149 0 0)
(-1.0988405 0 0)
(-1.0460445 0 0)
(-0.98951535 0 0)
(-0.92893219 0 0)
(-0.86393546 0 0)
(-0.79413073 0 0)
(-0.7190846 0 0)
(-0.63832297 0 0)
(-0.55131382 0 0)
(-0.45747887 0 0)
(-0.3561821 0 0)
(-0.2466771 0 0)
(-0.12809926 0 0)
(0 0 0)
(-1.8156776 0 0)
(-1.8103553 0 0)
(-1.8046608 0 0)
(-1.7985886 0 0)
(-1.7921347 0 0)
(-1.7852892 0 0)
(-1.7780239 0 0)
(-1.7702926 0 0)
(-1.7620479 0 0)
(-1.7532498 0 0)
(-1.7438658 0 0)
(-1.7338631 0 0)
(-1.7231992 0 0)
(-1.711821 0 0)
(-1.699676 0 0)
(-1.6867211 0 0)
(-1.6729124 0 0)
(-1.6581906 0 0)
(-1.6424876 0 0)
(-1.6257448 0 0)
(-1.6079142 0 0)
(-1.5889388 0 0)
(-1.5687421 0 0)
(-1.547246 0 0)
(-1.5243761 0 0)
(-1.5000436 0 0)
(-1.4741487 0 0)
(-1.4465952 0 0)
(-1.4172706 0 0)
(-1.3860341 0 0)
(-1.3527536 0 0)
(-1.3172963 0 0)
(-1.2794731 0 0)
(-1.2390891 0 0)
(-1.1959644 0 0)
(-1.1498734 0 0)
(-1.1005358 0 0)
(-1.0477015 0 0)
(-0.99112464 0 0)
(-0.93048185 0 0)
(-0.86541202 0 0)
(-0.79551989 0 0)
(-0.72037143 0 0)
(-0.63949156 0 0)
(-0.55234607 0 0)
(-0.45835385 0 0)
(-0.35687686 0 0)
(-0.24716678 0 0)
(-0.12835699 0 0)
(0 0 0)
(-1.8157038 0 0)
(-1.8105115 0 0)
(-1.804942 0 0)
(-1.7989901 0 0)
(-1.7926519 0 0)
(-1.7859173 0 0)
(-1.7787574 0 0)
(-1.7711267 0 0)
(-1.7629793 0 0)
(-1.7542775 0 0)
(-1.7449883 0 0)
(-1.7350782 0 0)
(-1.7245046 0 0)
(-1.7132143 0 0)
(-1.7011548 0 0)
(-1.6882829 0 0)
(-1.6745539 0 0)
(-1.6599078 0 0)
(-1.6442763 0 0)
(-1.6276009 0 0)
(-1.6098333 0 0)
(-1.5909167 0 0)
(-1.5707745 0 0)
(-1.5493281 0 0)
(-1.5265034 0 0)
(-1.5022114 0 0)
(-1.4763518 0 0)
(-1.4488283 0 0)
(-1.4195278 0 0)
(-1.3883088 0 0)
(-1.3550392 0 0)
(-1.3195866 0 0)
(-1.2817606 0 0)
(-1.241366 0 0)
(-1.1982222 0 0)