/*--------------------------------*- C++ -*----------------------------------*\
| =========                 |                                                 |
| \\      /  F ield         | OpenFOAM: The Open Source CFD Toolbox           |
|  \\    /   O peration     | Version:  v2012                                 |
|   \\  /    A nd           | Website:  www.openfoam.com                      |
|    \\/     M anipulation  |                                                 |
\*---------------------------------------------------------------------------*/
FoamFile
{
    version     2.0;
    format      ascii;
    class       surfaceVectorField;
    location    "81.1321376458981121";
    object      Uf;
}
// * * * * * * * * * * * * * * * * * * * * * * * * * * * * * * * * * * * * * //

dimensions      [0 1 -1 0 0 0 0];


internalField   nonuniform List<vector> 
18180
(
(2.6937768 -0.0072016106 4.33893e-23)
(2.698827 -0.0017429241 -1.1308439e-22)
(2.6964257 -0.015710794 3.900854e-22)
(2.7027049 -0.0089277793 -1.2478957e-21)
(2.7053179 -0.0039183176 -1.3854444e-21)
(2.7025091 -3.6551512e-05 2.3581321e-21)
(2.7000852 -0.026072336 1.0146363e-21)
(2.7082963 -0.015859415 2.249665e-21)
(2.7116379 -0.0092246516 7.4854836e-22)
(2.7080423 -0.003569543 -5.8527072e-21)
(2.7065693 -1.2094854e-05 -2.364588e-21)
(2.7025205 0.002009016 1.3775385e-21)
(2.70434 -0.039503357 -3.383892e-22)
(2.7166846 -0.026537114 -9.7464418e-23)
(2.7212457 -0.016840911 1.0582805e-21)
(2.7164963 -0.0070572913 1.3160407e-21)
(2.7146074 -0.001409451 -4.8930521e-21)
(2.7093985 0.0030231945 -3.6256983e-21)
(2.705477 0.0048365296 -9.9250876e-23)
(2.6983253 0.0041519959 -6.7395086e-21)
(2.7084643 -0.056650815 -2.304192e-21)
(2.7265223 -0.040541867 -6.8304191e-23)
(2.734125 -0.028093711 2.9739542e-22)
(2.7296498 -0.014130392 3.4526816e-21)
(2.7271655 -0.0047040398 3.7645908e-21)
(2.719918 0.0041698127 -9.9355402e-22)
(2.7149249 0.0087416911 2.5641268e-22)
(2.7057846 0.010664501 3.4680898e-21)
(2.6990596 0.009921492 -2.7794636e-21)
(2.6900555 0.0061690545 -4.103526e-21)
(2.7117485 -0.078245075 -1.2675498e-21)
(2.737758 -0.059427172 1.376739e-21)
(2.7497308 -0.044072136 3.4905745e-21)
(2.7462225 -0.024657877 2.1378309e-21)
(2.7447131 -0.011054686 5.2324428e-21)
(2.7367037 0.0027388267 4.0402756e-21)
(2.7298625 0.011441042 -4.6483362e-22)
(2.7172643 0.017314744 2.3501773e-21)
(2.7087017 0.019584717 5.4191841e-21)
(2.6971803 0.018220106 2.0648201e-21)
(2.6884938 0.014633648 8.8099127e-22)
(2.6783344 0.0078471719 5.7847585e-21)
(2.7132672 -0.10479129 0)
(2.7494152 -0.08400365 -9.3821481e-22)
(2.7677263 -0.066091936 1.4045371e-21)
(2.7668077 -0.040327834 -7.0883326e-21)
(2.767183 -0.021538755 -8.4331116e-21)
(2.7586778 -0.0012423731 -3.7135968e-21)
(2.7512486 0.012339569 -4.9609778e-21)
(2.7358001 0.02299391 2.8854553e-21)
(2.7240329 0.028965982 5.5921347e-21)
(2.7083468 0.030387929 -6.7357251e-21)
(2.697262 0.029557371 -1.0061233e-20)
(2.6844055 0.024778064 -2.3533288e-21)
(2.6745731 0.01842878 2.250519e-21)
(2.6641492 0.0090774024 5.6525198e-21)
(2.7120222 -0.13665255 -5.5025972e-21)
(2.7607427 -0.11520456 -2.3244561e-21)
(2.7873695 -0.095507439 -3.3942662e-21)
(2.7909372 -0.062467105 -4.7452619e-21)
(2.795026 -0.037536635 -1.2872803e-20)
(2.7871367 -0.0090011953 -6.9506192e-21)
(2.7794415 0.010774907 -2.4591821e-21)
(2.7605401 0.027687793 -4.7044495e-21)
(2.7461588 0.038425869 2.7294829e-21)
(2.7262071 0.043363904 8.1653697e-21)
(2.7111522 0.045195518 -3.4748513e-21)
(2.6940441 0.041684577 -1.2476716e-20)
(2.6816203 0.037514241 -5.2257046e-21)
(2.6687014 0.029709881 -1.6791475e-21)
(2.6585852 0.021046824 1.4950524e-21)
(2.6485797 0.0098371551 3.9703199e-21)
(2.706802 -0.17397242 -3.8202011e-21)
(2.7705544 -0.15393906 -1.1133712e-20)
(2.8077332 -0.13373882 -8.3364761e-21)
(2.8184833 -0.092623528 -6.6426788e-21)
(2.8283869 -0.060733406 -7.9650764e-21)
(2.8224663 -0.021895025 -6.4210463e-22)
(2.8156505 0.0059113428 5.1298953e-21)
(2.7931797 0.031155941 1.6102467e-21)
(2.7756888 0.047958808 -4.637194e-22)
(2.7502337 0.057219129 -2.7462264e-21)
(2.7310704 0.062645185 2.3325795e-21)
(2.7091564 0.0609062 4.7930018e-21)
(2.6926393 0.058046571 -3.6814849e-21)
(2.6759848 0.050054457 4.6668329e-21)
(2.6634625 0.042872253 8.1378851e-21)
(2.6514382 0.032767291 1.9455735e-21)
(2.6417264 0.022434833 4.29744e-21)
(2.6326284 0.010132759 7.8301622e-22)
(2.6962879 -0.21671061 2.1387576e-20)
(2.777501 -0.2009031 2.7837845e-20)
(2.8274748 -0.1821813 2.1323375e-20)
(2.8488305 -0.13264341 8.0936548e-21)
(2.8674335 -0.093043305 9.9120388e-21)
(2.8654571 -0.041379035 -2.6549322e-20)
(2.8610695 -0.0033504383 -1.9784143e-20)
(2.8347039 0.032637567 5.9013782e-21)
(2.8141461 0.057660789 2.5763139e-21)
(2.7820047 0.07286863 2.1187983e-21)
(2.7575259 0.082691755 1.9990313e-23)
(2.7293029 0.082600807 2.9257684e-21)
(2.7080951 0.081587062 5.2338484e-21)
(2.6870228 0.073670253 -5.4722354e-22)
(2.6708829 0.066484552 7.3521109e-21)
(2.6560141 0.055069861 9.8624703e-21)
(2.6443531 0.045571264 4.0169072e-21)
(2.6338457 0.034016763 1.5755977e-21)
(2.6250174 0.022707823 -1.7899563e-21)
(2.6171093 0.010019345 -5.7600649e-21)
(2.6793296 -0.26474187 2.6335428e-20)
(2.7802376 -0.25685436 5.5689463e-20)
(2.8451177 -0.24227686 6.2251407e-20)
(2.8813898 -0.18448267 5.6437346e-20)
(2.9123039 -0.13686046 4.4359345e-20)
(2.9169695 -0.069388913 4.1868828e-20)
(2.917312 -0.018696058 7.8039924e-21)
(2.8870822 0.031596131 -3.6282771e-20)
(2.8632874 0.067422484 -1.2229446e-20)
(2.8227374 0.090561217 8.5590958e-21)
(2.7917543 0.1064387 8.1855334e-21)
(2.7555044 0.10862385 2.0660616e-21)
(2.7280896 0.10946327 4.9376595e-21)
(2.7012783 0.1006528 9.3520326e-21)
(2.6808078 0.093582606 3.84363e-21)
(2.6625131 0.080987337 -1.0938705e-21)
(2.6480901 0.070459076 1.1723474e-21)
(2.6357723 0.056892831 7.3859249e-22)
(2.6255805 0.045916946 -1.6316221e-21)
(2.616879 0.033721707 -4.1845372e-21)
(2.6092088 0.022076279 -7.9796388e-21)
(2.6026059 0.0095841481 -3.0162336e-21)
(2.6551392 -0.31775609 -1.7557404e-21)
(2.7774569 -0.32219187 -2.244234e-20)
(2.8589211 -0.31545498 4.733147e-21)
(2.9155731 -0.25060031 -1.2990566e-20)
(2.9631953 -0.19520474 -2.0028433e-20)
(2.9784341 -0.10850492 4.7666837e-20)
(2.9866654 -0.042278873 4.5350432e-20)
(2.9524527 0.027078594 7.5157967e-21)
(2.9256479 0.07719119 -3.4327892e-20)
(2.8743534 0.11117293 -2.4324929e-20)
(2.8351889 0.13513843 -4.7616618e-21)
(2.788497 0.14006906 1.2467577e-20)
(2.7531015 0.14341354 6.9609869e-21)
(2.7190019 0.13333529 -6.4897981e-21)
(2.6928613 0.12563385 -2.4229638e-21)
(2.6702692 0.11038053 -3.8518001e-21)
(2.6524887 0.098674775 -8.6343053e-21)
(2.637963 0.083227838 -1.438701e-21)
(2.6260057 0.070572498 -1.8797391e-21)
(2.6164874 0.056043718 2.821852e-22)
(2.6080448 0.044393523 -2.1191136e-21)
(2.6011926 0.032230318 -1.6510543e-21)
(2.594789 0.020777653 3.1389856e-21)
(2.589483 0.0089199648 7.7118606e-22)
(2.623726 -0.37505093 -1.2958989e-20)
(2.7675748 -0.39710406 -5.721228e-20)
(2.8662838 -0.40202112 -7.7537221e-20)
(2.9487202 -0.33327091 -6.2666854e-20)
(3.0182546 -0.27119519 -8.0850236e-20)
(3.0507624 -0.16228079 -1.1370229e-20)
(3.0715304 -0.077228116 5.2882728e-20)
(3.0346046 0.017396216 -3.0240142e-20)
(3.0049778 0.086449598 -6.7084917e-20)
(2.9396709 0.13532058 -2.0014035e-20)
(2.8900765 0.17031974 -1.0282784e-20)
(2.8294682 0.17901055 -1.1683097e-20)
(2.783589 0.18549412 4.6944373e-21)
(2.740098 0.17313715 8.6055457e-21)
(2.7066875 0.16443081 -3.9032364e-21)
(2.6788438 0.14558431 -5.7444492e-21)
(2.6568275 0.13149421 -7.1430405e-21)
(2.639714 0.11254469 -8.2613474e-21)
(2.6255899 0.097981983 -1.4206562e-21)
(2.6150195 0.081346201 -4.9994014e-21)
(2.6057672 0.06771317 -3.0081656e-21)
(2.5989441 0.053181263 1.7094773e-21)
(2.592289 0.041524665 2.2048297e-21)
(2.5871701 0.029896696 4.2149673e-21)
(2.5820217 0.019034607 1.9849025e-21)
(2.5779244 0.0081107511 -1.4897952e-21)
(2.5843773 -0.43351844 2.6177092e-20)
(2.7452802 -0.47716937 6.7478047e-20)
(2.8601203 -0.4998522 2.6599063e-20)
(2.9746233 -0.4310379 -3.8085445e-20)
(3.0710345 -0.36559957 -2.3487036e-20)
(3.1283601 -0.23344326 8.5752132e-20)
(3.1693352 -0.1264837 1.537581e-19)
(3.1353607 0.00028097041 9.6573729e-20)
(3.1044006 0.094394698 1.8231024e-20)
(3.0230747 0.16351759 -4.0073708e-20)
(2.9599702 0.2137704 4.8890872e-21)
(2.8803771 0.22747104 1.605008e-20)
(2.8204118 0.23827544 1.5279233e-20)
(2.7645164 0.2225476 -1.7617883e-21)
(2.7216457 0.21201941 1.9876482e-21)
(2.6873881 0.18777093 2.0752371e-21)
(2.660166 0.17033017 4.1008784e-22)
(2.6401482 0.14687097 4.5722251e-21)
(2.6234739 0.12906676 3.6693919e-21)
(2.6118618 0.10880676 -1.7936067e-21)
(2.6015667 0.093019247 -5.1991435e-21)
(2.5946377 0.076476522 -8.6307009e-21)
(2.5879843 0.06279683 -4.2383379e-21)
(2.5835505 0.048952955 -3.649489e-21)
(2.5785674 0.037789056 -1.8234097e-21)
(2.57498 0.027035923 1.6532203e-21)
(2.5709989 0.017035653 -1.6449541e-21)
(2.5679776 0.0072257796 -1.0164787e-21)
(2.5355483 -0.48965814 2.7404634e-20)
(2.7059867 -0.55590381 4.3874699e-20)
(2.8315251 -0.59916182 8.3235452e-20)
(2.9701123 -0.53589438 6.0839117e-20)
(3.0992281 -0.47252127 5.1504858e-22)
(3.1922756 -0.31708674 -1.7115788e-19)
(3.2624725 -0.18995261 -6.9586477e-20)
(3.2449245 -0.024412406 2.4164174e-19)
(3.2183718 0.10121109 1.8870898e-19)
(3.1250435 0.19685404 6.5403904e-20)
(3.0467034 0.2676012 1.0652715e-20)
(2.9444927 0.28827295 2.1175884e-20)
(2.8652319 0.30507509 3.249295e-20)
(2.7924141 0.28408916 -4.5323856e-22)
(2.7369347 0.27085588 -1.6813693e-20)
(2.6947716 0.23902817 -8.0558452e-21)
(2.6611656 0.21661655 -8.1072132e-21)
(2.6380221 0.18681331 -2.576567e-21)
(2.6184786 0.16470444 1.2918436e-21)
(2.6059617 0.14003203 1.1021317e-21)
(2.5946276 0.12085707 -4.1106544e-21)
(2.5878518 0.10101321 -8.5358715e-22)
(2.581071 0.085261673 -4.0509858e-21)
(2.5772253 0.069681663 -3.3424087e-21)
(2.5728714 0.056626426 -2.772075e-21)
(2.570436 0.043916433 -4.4893317e-21)
(2.566928 0.033581993 -1.2293659e-21)
(2.5646363 0.023905195 -4.5995116e-22)
(2.5616926 0.014929125 1.5196816e-22)
(2.5595956 0.0063181888 2.755886e-22)
(2.4771264 -0.5394364 -9.7684648e-21)
(2.6452792 -0.62682923 -9.5267705e-20)
(2.7732143 -0.69150455 -8.1260929e-20)
(2.9296181 -0.63646438 -2.8272139e-21)
(3.0837652 -0.57777164 -2.4680405e-20)
(3.1993422 -0.40668432 1.4492208e-19)
(3.3098526 -0.25995126 -1.5842653e-20)
(3.3298625 -0.050801497 -3.115828e-19)
(3.3202906 0.11030835 -1.9641811e-20)
(3.2300932 0.23779189 2.0410507e-19)
(3.1403679 0.33471164 8.7346839e-20)
(3.0202304 0.3653702 -2.3342599e-20)
(2.9176172 0.39017975 -1.2988472e-20)
(2.8245631 0.36149424 3.6205182e-20)
(2.751746 0.3440738 5.3301213e-21)
(2.6995171 0.3012389 -2.2180764e-20)
(2.6580313 0.27184089 -1.3951882e-20)
(2.6317184 0.23365438 -7.2090282e-21)
(2.60909 0.20557274 -1.9486093e-21)
(2.5960424 0.175033 -4.6792383e-22)
(2.583803 0.15160893 -6.7139296e-22)
(2.5775524 0.12799098 -2.3315108e-22)
(2.5708922 0.10914509 2.9066352e-21)
(2.5680173 0.090798798 1.8078501e-21)
(2.5642045 0.075938408 2.5588023e-21)
(2.5628166 0.06183766 1.6698197e-21)
(2.5603835 0.049839399 9.9140402e-23)
(2.5595452 0.038511956 -2.0355866e-21)
(2.557284 0.029207104 -1.317188e-21)
(2.5560507 0.020701218 9.0964537e-23)
(2.5539974 0.012824927 2.0849926e-22)
(2.5526709 0.0054264022 9.2151442e-22)
(2.4109324 -0.57879674 6.819426e-21)
(2.5629652 -0.68278113 3.0448554e-21)
(2.6837636 -0.76673139 -7.8101074e-20)
(2.8401477 -0.72338687 -1.4032934e-19)
(3.0142471 -0.67352273 -6.6792993e-20)
(3.1527719 -0.48504834 1.9501467e-20)
(3.290517 -0.32564772 1.7995662e-19)
(3.3376823 -0.073656521 -2.1809489e-19)
(3.3653869 0.12707886 -5.0097533e-19)
(3.2998377 0.29291466 5.4089276e-21)
(3.2129037 0.42027616 2.1771687e-19)
(3.0870727 0.46226723 7.8076385e-20)
(2.964687 0.49806033 -2.6455147e-20)
(2.8575392 0.45949715 -2.4313516e-20)
(2.7635532 0.43578385 2.2929574e-20)
(2.7000129 0.37708212 1.6237793e-20)
(2.6485172 0.33760504 -9.6910377e-21)
(2.6191256 0.28810191 1.8724752e-22)
(2.5933921 0.25210595 6.8061555e-21)
(2.5805282 0.21432352 1.9395844e-21)
(2.5677585 0.18533469 3.3954929e-21)
(2.5626631 0.15695479 6.4968858e-21)
(2.5564889 0.13445705 7.0091121e-21)
(2.5550231 0.11316782 2.2958391e-21)
(2.5521197 0.095715468 1.2459448e-21)
(2.5521968 0.079438091 1.4856254e-21)
(2.550746 0.065976621 6.2494653e-22)
(2.5512237 0.053606629 7.9482499e-22)
(2.5503248 0.042906393 -1.2194252e-21)
(2.550713 0.033064637 -1.672902e-21)
(2.5494702 0.024883994 -3.4527549e-22)
(2.5490749 0.017565998 3.8820924e-24)
(2.5477637 0.010800007 6.7701615e-22)
(2.5470625 0.0045769273 -3.9412646e-22)
(2.3394113 -0.60407669 2.7158052e-20)
(2.4612379 -0.71919064 1.7590569e-19)
(2.568518 -0.81968318 1.7423516e-19)
(2.7096713 -0.78807641 1.5135568e-19)
(2.8867046 -0.74910285 9.5374449e-20)
(3.028713 -0.53841346 2.8817e-20)
(3.1928678 -0.3643146 1.1006177e-19)
(3.2405007 -0.075565334 7.8716122e-20)
(3.3000692 0.15864246 -2.99776e-19)
(3.276142 0.37064681 -4.5397741e-19)
(3.2126858 0.5299392 2.6450794e-20)
(3.1036222 0.58535575 1.2660982e-19)
(2.9725046 0.6310701 -7.48021e-21)
(2.8724245 0.58144835 8.2164346e-21)
(2.7621117 0.5494895 1.1168277e-20)
(2.6922464 0.46974245 5.3669214e-21)
(2.6294912 0.41571409 -1.0718299e-21)
(2.5977778 0.3509972 -5.9486728e-21)
(2.5690952 0.30438567 3.4721168e-21)
(2.5575239 0.25761225 8.2827701e-21)
(2.5449481 0.22172885 3.6896219e-21)
(2.5419294 0.1878819 8.8225842e-22)
(2.536865 0.1608581 3.7882185e-21)
(2.5374696 0.13604094 3.9698351e-21)
(2.5359051 0.11573028 -5.2563999e-22)
(2.5378489 0.097326874 -4.0080885e-22)
(2.5377819 0.081830391 -2.1200259e-22)
(2.5399746 0.067839988 1.8484637e-21)
(2.5403154 0.056025028 2.0261683e-21)
(2.5421458 0.045455784 -3.7463764e-22)
(2.5424256 0.036153828 -7.9070603e-22)
(2.5437186 0.027800392 -6.3977871e-22)
(2.5432825 0.020762216 -3.1279251e-22)
(2.5435302 0.014595959 -1.3047211e-22)
(2.5428216 0.0089050027 -1.1562029e-21)
(2.5426147 0.0037869306 -3.4358688e-21)
(2.2653869 -0.61412194 6.3854804e-22)
(2.3470179 -0.73798264 7.5563595e-21)
(2.435433 -0.85042638 1.4821586e-19)
(2.5523236 -0.82450467 1.4391458e-19)
(2.7132357 -0.79662402 1.2185017e-19)
(2.8367244 -0.56579568 1.6104718e-19)
(3.0084057 -0.37119958 9.7908718e-20)
(3.0467082 -0.044706396 3.0913773e-19)
(3.1154461 0.22564176 2.820571e-19)
(3.098796 0.46766626 -1.6371397e-20)
(3.0719684 0.66400081 -1.5873869e-19)
(3.0193899 0.73604695 -1.7743373e-19)
(2.8994485 0.78775323 -8.4924147e-20)
(2.8330404 0.72718434 1.2370635e-20)
(2.724769 0.68325898 2.6204942e-20)
(2.6642803 0.5805996 1.2649111e-20)
(2.5949143 0.506923 7.4719335e-21)
(2.564411 0.42295753 1.5736914e-21)
(2.5336387 0.36208533 -2.9768638e-21)
(2.5249421 0.30438557 -7.2640546e-21)
(2.5136986 0.25999805 -2.8489439e-21)
(2.5140179 0.21989744 8.6176174e-22)
(2.510983 0.18765134 -1.8377791e-21)
(2.5145052 0.15910544 5.7779606e-21)
(2.5149302 0.13544289 5.9900467e-21)
(2.5193139 0.11461858 2.5571757e-21)
(2.521024 0.097048331 2.702368e-21)
(2.5252484 0.081637376 2.5635032e-21)
(2.527212 0.068312342 4.570458e-21)
(2.5308385 0.056605872 5.9988492e-22)
(2.5324791 0.046507424 -1.6904041e-21)
(2.535241 0.037693741 3.4712104e-22)
(2.5363917 0.02979354 5.0037076e-22)
(2.5383211 0.022865876 -1.8170559e-21)
(2.538505 0.016936304 -1.6635591e-21)
(2.5392286 0.011851562 7.5882665e-22)
(2.5389971 0.0071702124 -1.376067e-21)
(2.5391699 0.0030658386 -2.1419298e-21)
(2.1923043 -0.61007303 -2.5481362e-20)
(2.2293758 -0.74034882 -2.1613995e-20)
(2.2941792 -0.86117671 -1.536931e-20)
(2.381052 -0.83571422 -4.9064915e-20)
(2.5111839 -0.81330992 -5.5957908e-20)
(2.6004456 -0.56467671 -2.1524068e-19)
(2.7597834 -0.34890648 -1.8173618e-19)
(2.7814357 0.01099424 1.4063715e-20)
(2.8484594 0.31667584 2.1309966e-19)
(2.8400065 0.58255575 6.2035296e-19)
(2.8149874 0.80884276 3.4183069e-19)
(2.8019688 0.89069743 -1.0018451e-19)
(2.729054 0.95707037 -1.1756425e-19)
(2.706465 0.88484209 -1.2698772e-19)
(2.6239582 0.82673895 -3.656306e-20)
(2.5940468 0.70373694 -6.2060415e-21)
(2.532958 0.60763737 -1.9520821e-20)
(2.5130989 0.50308809 -7.8827601e-22)
(2.4838146 0.42401057 -6.4627151e-21)
(2.4806456 0.35352039 -3.2811268e-21)
(2.4723822 0.29880881 -7.4245948e-21)
(2.477626 0.25189541 -2.0837645e-20)
(2.4778885 0.21371993 -1.7563811e-20)
(2.4853772 0.18125876 6.5384426e-21)
(2.4886306 0.15402812 1.3871916e-20)
(2.4961137 0.13089937 5.4066274e-21)
(2.5001629 0.11103345 2.1441653e-21)
(2.5068605 0.09409018 2.563913e-21)
(2.5107577 0.079370435 2.445103e-21)
(2.5163995 0.066808775 5.9864768e-22)
(2.5197403 0.055654639 -3.2199617e-21)
(2.5242711 0.046103489 2.8316029e-22)
(2.5268088 0.037679296 2.2368672e-21)
(2.5301685 0.030508434 5.7574599e-22)
(2.5319338 0.023951074 -1.6203876e-21)
(2.5342822 0.018347526 -1.5434594e-21)
(2.5349264 0.013459309 7.5487886e-22)
(2.5359864 0.0093660247 -9.2444799e-22)
(2.5361218 0.0056102711 -1.6443318e-21)
(2.5365769 0.0024182981 -1.5826335e-21)
(2.1232166 -0.59454341 5.2767052e-21)
(2.1165195 -0.72864558 -3.1514647e-20)
(2.1539209 -0.85470601 -2.7947757e-20)
(2.2073782 -0.82288671 2.4790588e-20)
(2.298309 -0.80080738 -6.8596565e-21)
(2.3436253 -0.5378446 1.4343041e-20)
(2.4765787 -0.30257415 -1.3397877e-19)
(2.4755474 0.082651282 -5.3855058e-20)
(2.5322762 0.42101118 1.3195877e-19)
(2.527622 0.70633212 -1.1008549e-19)
(2.5050812 0.9557891 2.7172799e-19)
(2.5177632 1.0391011 4.653334e-19)
(2.47698 1.1131425 4.5461411e-20)
(2.4933379 1.0334136 -6.1157491e-20)
(2.4472283 0.96520664 -7.0572526e-20)
(2.4594932 0.82397826 -2.7645308e-20)
(2.4270579 0.70770619 1.2408195e-21)
(2.4330998 0.58553714 -3.2119605e-20)
(2.4146382 0.48675611 -1.4533557e-20)
(2.4221012 0.40305894 -2.4215654e-21)
(2.4195645 0.33623627 5.7852325e-22)
(2.4316734 0.28215145 -4.8872654e-22)
(2.4368424 0.23752134 -1.326075e-20)
(2.4495193 0.20131204 -2.1071234e-20)
(2.4566453 0.17037123 1.6544924e-21)
(2.4679669 0.14507071 3.9445221e-21)
(2.4750057 0.12299564 -4.2161553e-21)
(2.4846295 0.10480062 -5.7208227e-22)
(2.4908923 0.088632445 -1.9158113e-22)
(2.49886 0.075205733 3.1670747e-21)
(2.5041174 0.063201626 1.426339e-21)
(2.5105463 0.0532272 -3.5469101e-21)
(2.5147586 0.044121294 -2.300051e-22)
(2.5197954 0.036533916 -5.0983457e-22)
(2.5229119 0.02967626 -2.1224384e-21)
(2.5266115 0.02400012 -1.428429e-21)
(2.5287841 0.018689547 -1.3571211e-21)
(2.531379 0.014287836 1.6081306e-21)
(2.5323497 0.010354208 2.7657907e-23)
(2.5336316 0.0071527057 -2.3776571e-21)
(2.5340402 0.0042296467 -2.3293073e-21)
(2.5346962 0.0018481923 -4.4473162e-22)
(2.0599736 -0.57084796 -4.6055227e-21)
(2.0146013 -0.70561918 3.5345867e-20)
(2.0219547 -0.83398414 8.839119e-22)
(2.0412987 -0.79284852 -5.4793243e-21)
(2.0907243 -0.76406608 4.4729262e-20)
(2.0883615 -0.48965019 -1.4368755e-19)
(2.1844046 -0.23872836 -1.2450637e-19)
(2.1587131 0.16480614 6.0174914e-20)
(2.1969773 0.52999651 1.3734939e-19)
(2.1916994 0.82729402 -5.242997e-20)
(2.1674613 1.0962757 -2.8386451e-19)
(2.1979827 1.1759053 1.0935528e-19)
(2.1784831 1.2523419 2.8925377e-19)
(2.22321 1.1643831 -2.5943907e-20)
(2.2102257 1.0876688 -1.2910977e-19)
(2.2593863 0.9267716 -4.2655475e-20)
(2.2667717 0.7933316 -1.5233853e-21)
(2.3117889 0.65839013 2.0466002e-20)
(2.3191489 0.54299702 -1.0895779e-20)
(2.3455363 0.44872009 -6.0390778e-21)
(2.3538947 0.36940247 5.5574064e-21)
(2.3754459 0.30855576 4.1196058e-21)
(2.3875102 0.25715039 3.0147589e-21)
(2.4066841 0.21760245 -3.7808075e-21)
(2.4189051 0.18311151 -1.1127331e-20)
(2.4348404 0.15611003 -1.0803497e-22)
(2.4456014 0.13198275 1.9813161e-21)
(2.4586069 0.11279796 -6.2780665e-21)
(2.4676817 0.095424967 -2.8042455e-21)
(2.4782487 0.081473311 -3.5221182e-21)
(2.4857266 0.068655391 -3.8325312e-22)
(2.4942535 0.058296129 4.2952749e-21)
(2.5002698 0.048756701 -3.8083284e-22)
(2.5070391 0.041065315 2.7536779e-21)
(2.5117434 0.033824329 2.5292748e-21)
(2.5169937 0.027984605 -2.8323235e-21)
(2.5204433 0.02255177 -2.1880014e-21)
(2.5242875 0.018207936 9.1526952e-22)
(2.5267028 0.014028699 3.761806e-21)
(2.5294099 0.010698417 3.2613933e-21)
(2.5305978 0.0076233065 1.0253986e-21)
(2.5320087 0.0052107263 1.0451933e-21)
(2.5326143 0.0030270456 2.8788884e-21)
(2.5334011 0.0013545798 4.9410359e-21)
(2.0029338 -0.54207179 -3.8500605e-20)
(1.9260694 -0.67379215 7.8908963e-20)
(1.9034311 -0.80200396 1.1797628e-19)
(1.8904694 -0.74981271 -3.7859457e-20)
(1.9007338 -0.70975497 -4.4422904e-20)
(1.8527401 -0.42704818 2.1153182e-19)
(1.9052411 -0.16349789 3.4049928e-20)
(1.8548078 0.25049283 -7.8279475e-20)
(1.8700727 0.63625426 9.7311831e-20)
(1.8625467 0.93957917 -2.8239391e-21)
(1.8340865 1.222055 -1.8380275e-19)
(1.8759757 1.2943523 -9.0207297e-20)
(1.8716668 1.3690564 2.8501916e-19)
(1.9336851 1.272784 2.9986362e-19)
(1.9455485 1.1881636 2.96626e-21)
(2.0174808 1.0063001 -9.793679e-20)
(2.0601803 0.85470234 -1.560652e-20)
(2.1455618 0.70883822 -2.4662798e-20)
(2.1915097 0.58185616 -4.1325062e-21)
(2.2465275 0.48282835 7.9621781e-21)
(2.27403 0.39375488 1.2821968e-20)
(2.3085089 0.32813542 -1.336955e-20)
(2.3301081 0.27039212 -1.4990183e-20)
(2.3571014 0.22835255 7.5401242e-21)
(2.3757389 0.19072465 1.1594602e-21)
(2.3970352 0.16269047 -5.8683195e-21)
(2.4122908 0.13695518 4.5128719e-21)
(2.4290828 0.1173171 9.2799314e-21)
(2.4414211 0.09901482 1.5758093e-21)
(2.4548256 0.084815956 -2.064613e-21)
(2.4647945 0.071485644 -2.7552743e-21)
(2.4755564 0.061079971 -2.9124932e-22)
(2.4835729 0.051181662 4.14604e-21)
(2.4921896 0.043441857 -1.8180104e-21)
(2.4985398 0.036075468 1.1343109e-21)
(2.5053403 0.030361806 1.9862609e-21)
(2.5102582 0.024779163 -3.1050559e-21)
(2.5155113 0.020468668 2.1324158e-21)
(2.5191079 0.016305375 5.1378125e-21)
(2.5229514 0.013130529 5.2940069e-21)
(2.5254814 0.0099596758 4.8406471e-21)
(2.5281978 0.0075701725 3.1749179e-21)
(2.5295145 0.0052547681 3.2258173e-21)
(2.5309813 0.0035290043 2.7927042e-21)
(2.5317175 0.0019913339 4.7462222e-21)
(2.5325813 0.00093781318 2.5568591e-21)
(1.9509635 -0.51075795 2.0115341e-20)
(1.8509198 -0.6366677 -2.4500087e-19)
(1.801465 -0.76200474 -1.3640928e-19)
(1.7600306 -0.69696816 2.9889808e-19)
(1.7359526 -0.64465131 1.5362327e-19)
(1.6485173 -0.35606609 4.2253535e-19)
(1.6563559 -0.082594535 6.7003274e-19)
(1.5837565 0.33488283 2.7158947e-19)
(1.5737845 0.7337964 1.6828975e-19)
(1.5639435 1.036667 8.6323899e-20)
(1.5319735 1.3271545 -8.0429958e-21)
(1.5803945 1.3919366 2.3909591e-20)
(1.5861509 1.4608836 1.1538086e-19)
(1.6534293 1.356367 6.278629e-20)
(1.683428 1.2646043 7.5448018e-20)
(1.7658639 1.0619065 3.6466857e-20)
(1.8308902 0.88991008 -5.8670074e-20)
(1.9467608 0.7306469 1.1636928e-20)
(2.0325783 0.59384362 3.8249003e-21)
(2.1229219 0.49596139 -4.3587677e-21)
(2.1790713 0.4029339 7.103138e-21)
(2.230813 0.33671745 1.1542494e-20)
(2.2654621 0.27464999 -1.3008393e-20)
(2.3015764 0.23159927 -2.4129241e-20)
(2.3279781 0.19166618 -2.8943988e-21)
(2.3552506 0.1635616 3.8761948e-21)
(2.3757511 0.13687169 -2.8277633e-21)
(2.3966412 0.11741906 7.9837298e-21)
(2.4126479 0.098689737 1.255102e-20)
(2.4290429 0.084730528 -1.0375713e-21)
(2.4417405 0.071174314 -4.5439653e-21)
(2.4548271 0.060959965 -1.4917761e-21)
(2.4649813 0.051004048 8.6182404e-22)
(2.4754878 0.043522212 5.9038054e-21)
(2.4835978 0.036113971 2.7286307e-22)
(2.4920019 0.030583579 -3.1195905e-21)
(2.4983923 0.025097908 -2.3616637e-21)
(2.5050143 0.02107552 -2.4042869e-21)
(2.5099453 0.016942881 2.577065e-21)
(2.5150525 0.013953067 2.724715e-21)
(2.5186576 0.010903477 2.839555e-21)
(2.5223946 0.0087416696 3.9647041e-22)
(2.5249408 0.0064560988 -1.2394542e-21)
(2.5275888 0.0048814385 -1.1458498e-21)
(2.5289637 0.0032280525 -1.6171646e-21)
(2.5304296 0.002093063 1.0228941e-21)
(2.5312356 0.0011164329 -1.1049529e-21)
(2.5321388 0.00059564685 -3.4738137e-21)
(1.9039586 -0.47909854 2.7195848e-21)
(1.7879947 -0.59745232 2.5555089e-21)
(1.7174633 -0.71733061 -2.4888172e-19)
(1.652591 -0.63934803 -5.5121036e-19)
(1.6000311 -0.57468618 -1.4423624e-19)
(1.4818065 -0.28174964 6.6482068e-19)
(1.4485216 -0.001392067 9.2625511e-19)
(1.35953 0.4139156 2.9673464e-19)
(1.3248888 0.81848021 -8.5700111e-20)
(1.313673 1.1161033 -1.5698909e-20)
(1.2797482 1.4087707 -9.5387299e-20)
(1.3296839 1.4662928 -2.7716814e-20)
(1.3427293 1.5288879 1.199008e-21)
(1.4039796 1.4170539 -2.2772412e-19)
(1.443942 1.3179054 -2.8283724e-19)
(1.5277465 1.0952239 1.0093903e-19)
(1.6031807 0.90278491 6.4336908e-20)
(1.7368447 0.72560355 -6.8196558e-20)
(1.8527495 0.57615416 -1.3058379e-21)
(1.9783538 0.48158865 6.0829476e-21)
(2.0695305 0.39024179 -1.2515451e-21)
(2.1430964 0.32926299 7.5888931e-21)
(2.1950773 0.2669787 1.2080839e-20)
(2.2415009 0.22529461 -6.605788e-21)
(2.2770008 0.18451058 -1.7240702e-20)
(2.3106371 0.15752682 -4.020034e-21)
(2.337009 0.1308037 2.3055851e-21)
(2.3621614 0.11237498 -9.1845093e-21)
(2.3821527 0.093838074 9.0782419e-22)
(2.4015769 0.080616647 1.552102e-20)
(2.4171598 0.06728621 2.644157e-21)
(2.4325729 0.057656294 -3.5024922e-21)
(2.444957 0.047887863 -5.9410005e-22)
(2.4573523 0.040843714 -6.9199596e-21)
(2.4672675 0.033666364 -2.2286781e-21)
(2.4772571 0.028582003 2.5050021e-21)
(2.4851744 0.023271468 -6.7324065e-22)
(2.4931763 0.019589755 4.1054056e-21)
(2.4994077 0.015711153 4.1590551e-21)
(2.5057128 0.01312106 -1.0498205e-21)
(2.5105152 0.010240043 -9.5977974e-22)
(2.5153741 0.0083784229 2.961168e-21)
(2.5188864 0.0062939912 6.5193565e-22)
(2.5224413 0.0050010841 -6.0705408e-21)
(2.524929 0.0034823071 -6.0510787e-21)
(2.5274505 0.0026047106 -6.113458e-21)
(2.5288289 0.0015223919 -3.6724624e-21)
(2.5302512 0.0008918484 3.6369405e-23)
(2.5311001 0.00039676468 -2.1925207e-21)
(2.5319871 0.00030238823 -6.4248777e-21)
(1.8621207 -0.44858983 -2.6230183e-20)
(1.7373892 -0.55827991 1.0357929e-19)
(1.6513847 -0.67106842 1.0464127e-19)
(1.5683449 -0.58115744 -2.07841e-19)
(1.4933479 -0.50444683 -4.9360622e-19)
(1.3537775 -0.20874239 -3.7611234e-19)
(1.2855007 0.075940915 3.8732341e-19)
(1.187299 0.48443447 1.6947358e-19)
(1.1319646 0.88805354 -4.3695501e-19)
(1.1222859 1.1782818 -1.3605118e-19)
(1.0883502 1.4677351 -6.9562388e-20)
(1.1328112 1.5198396 -1.3322984e-19)
(1.1506707 1.5765852 -7.0637191e-20)
(1.1972124 1.4589735 1.2471934e-20)
(1.2376625 1.3528277 -2.0446882e-19)
(1.3153257 1.1105318 -3.7279038e-19)
(1.3926106 0.8987378 -1.0263317e-20)
(1.5345323 0.69928446 8.983747e-20)
(1.6677676 0.5325065 -3.5442863e-20)
(1.8228916 0.43917165 8.7973097e-21)
(1.9486907 0.35137347 1.6306199e-20)
(2.0473834 0.30127925 1.4428927e-21)
(2.1211058 0.24438179 9.860431e-21)
(2.1788414 0.20740312 1.0333576e-20)
(2.2246761 0.16806763 -7.8181839e-21)
(2.2647841 0.143681 -1.1820858e-20)
(2.2974363 0.11807204 8.1657645e-22)
(2.3267956 0.10158289 -4.3945886e-21)
(2.3509453 0.084030682 -1.5358175e-20)
(2.3732969 0.07215234 3.2034106e-21)
(2.3918112 0.059530588 1.7059449e-20)
(2.4094539 0.050827754 -1.0496595e-21)
(2.4240751 0.041607799 -6.9288169e-21)
(2.4382826 0.035296463 5.2077752e-21)
(2.4500063 0.028537623 -6.8472701e-22)
(2.46153 0.024023221 -8.4517894e-21)
(2.4709606 0.019121574 -4.0487294e-21)
(2.4802878 0.015997787 7.6711539e-21)
(2.4878331 0.012440738 1.2317528e-20)
(2.4953187 0.010296214 -1.0047944e-22)
(2.5012595 0.0077779409 -5.098705e-21)
(2.5071598 0.0063912903 -4.1010582e-21)
(2.5117357 0.0045792694 -4.2329785e-22)
(2.516278 0.0036720686 5.7720426e-21)
(2.5196252 0.0024156724 -5.3702941e-22)
(2.5229454 0.0018606877 -9.0754962e-21)
(2.5253191 0.00099819962 -9.1787656e-21)
(2.5276719 0.00070994818 -3.3536641e-21)
(2.5290135 0.00011528267 1.6929302e-22)
(2.5303603 -9.1685208e-05 7.4873379e-24)
(2.5312048 -0.0001951113 -3.9751707e-21)
(2.5320582 6.2842522e-05 -5.2252007e-21)
(1.8246004 -0.42033416 1.3006513e-19)
(1.697533 -0.52085002 2.5065566e-19)
(1.6020478 -0.62547613 3.7707687e-19)
(1.5058792 -0.52502735 5.0981403e-19)
(1.4139884 -0.43709102 2.1920983e-19)
(1.2618269 -0.14053629 -7.1372696e-19)
(1.166012 0.14670813 -6.0506182e-19)
(1.0654386 0.54486999 4.5828222e-19)
(0.99560669 0.94196861 2.5252997e-19)
(0.99081831 1.2248135 -1.8467367e-19)
(0.96034249 1.5077899 1.0420609e-19)
(0.99107574 1.5571121 1.6956272e-19)
(1.0088445 1.6091959 1.1242595e-19)
(1.0358246 1.4877828 4.7906797e-19)
(1.0682691 1.3759588 5.6568371e-19)
(1.1338518 1.1135578 -5.956027e-20)
(1.2068047 0.88281984 -2.1714521e-19)
(1.3510092 0.6574183 -1.2349446e-19)
(1.491731 0.46911865 -3.0147907e-20)
(1.6690938 0.37273802 -1.5341167e-20)
(1.823225 0.28629928 2.6870389e-20)
(1.9476048 0.25057829 1.5337869e-20)
(2.0461231 0.20437956 9.1339988e-22)
(2.1160247 0.17622363 4.6568065e-22)
(2.17328 0.14153081 5.5701e-22)
(2.2195955 0.12145125 -5.5302071e-22)
(2.2586741 0.098353352 -4.1529593e-21)
(2.2919335 0.084788761 -5.028614e-21)
(2.3202041 0.069095894 -9.966548e-21)
(2.3452141 0.05916642 -9.0182813e-21)
(2.3665702 0.047820093 8.7156623e-21)
(2.3862291 0.040427767 1.0682688e-20)
(2.4029982 0.032090908 -6.5763238e-21)
(2.4188699 0.026720737 -3.7060667e-21)
(2.4323332 0.020647995 7.8558489e-21)
(2.4452817 0.016916762 -2.5087068e-21)
(2.4561801 0.01255668 -9.8991107e-21)
(2.4667556 0.010069414 -1.6406942e-21)
(2.4755663 0.0070266545 9.5127908e-21)
(2.4841572 0.0055024696 9.8801108e-21)
(2.4912227 0.0034023073 -1.9294578e-21)
(2.4981286 0.0025286791 -5.6463576e-21)
(2.5036951 0.0011530424 -4.7078197e-21)
(2.5091385 0.00077046216 -7.107234e-22)
(2.5134225 -0.00013709354 5.160816e-21)
(2.5176052 -0.00024425082 -4.7375325e-21)
(2.5207367 -0.0007974563 -1.2892604e-20)
(2.5237874 -0.00073290767 -4.9799196e-21)
(2.5260068 -0.0010395122 6.0049695e-22)
(2.5281618 -0.00083600908 1.7789e-21)
(2.5294348 -0.0010246703 1.6479008e-21)
(2.5306809 -0.00088668954 3.4663424e-23)
(2.5314888 -0.00066670185 -1.0945763e-21)
(2.532293 -9.3579547e-05 1.3822844e-21)
(1.7911618 -0.39503084 1.1073321e-19)
(1.6668056 -0.4863114 1.9639404e-19)
(1.5675225 -0.58226286 3.1148473e-19)
(1.4628583 -0.4725783 4.4746921e-19)
(1.3589088 -0.3747081 5.7418176e-19)
(1.2022267 -0.078959597 3.6200208e-19)
(1.0867773 0.20883456 -5.1992468e-19)
(0.9910539 0.59521848 -2.1100309e-19)
(0.91334376 0.98183608 8.0141161e-19)
(0.91024748 1.2582291 7.336726e-19)
(0.88671694 1.533684 3.2599525e-19)