/*--------------------------------*- C++ -*----------------------------------*\
| =========                 |                                                 |
| \\      /  F ield         | OpenFOAM: The Open Source CFD Toolbox           |
|  \\    /   O peration     | Version:  v2012                                 |
|   \\  /    A nd           | Website:  www.openfoam.com                      |
|    \\/     M anipulation  |                                                 |
\*---------------------------------------------------------------------------*/
FoamFile
{
    version     2.0;
    format      ascii;
    class       volVectorField;
    location    "100.337729823899352";
    object      cellDisplacement;
}
// * * * * * * * * * * * * * * * * * * * * * * * * * * * * * * * * * * * * * //

dimensions      [0 1 0 0 0 0 0];


internalField   nonuniform List<vector> 
9200
(
(0.048987624 0 0)
(0.049233487 0 0)
(0.14251279 0 0)
(0.04959118 0 0)
(0.14312261 0 0)
(0.23004744 0 0)
(0.050049627 0 0)
(0.1441272 0 0)
(0.23098472 0 0)
(0.31187224 0 0)
(0.050528711 0 0)
(0.14533214 0 0)
(0.23249585 0 0)
(0.31307161 0 0)
(0.38823374 0 0)
(0.0510221 0 0)
(0.14665864 0 0)
(0.2343859 0 0)
(0.31507011 0 0)
(0.38968747 0 0)
(0.45942588 0 0)
(0.051508168 0 0)
(0.14802275 0 0)
(0.23646559 0 0)
(0.31755358 0 0)
(0.39209848 0 0)
(0.46110193 0 0)
(0.52571537 0 0)
(0.051978817 0 0)
(0.14937655 0 0)
(0.23860867 0 0)
(0.320306 0 0)
(0.3951423 0 0)
(0.46392846 0 0)
(0.52761806 0 0)
(0.58739548 0 0)
(0.052425958 0 0)
(0.15068557 0 0)
(0.24073925 0 0)
(0.32316419 0 0)
(0.39852649 0 0)
(0.46747703 0 0)
(0.53080936 0 0)
(0.58950355 0 0)
(0.64471938 0 0)
(0.052843852 0 0)
(0.15193098 0 0)
(0.2428072 0 0)
(0.32601572 0 0)
(0.40205539 0 0)
(0.47145571 0 0)
(0.53486288 0 0)
(0.59307483 0 0)
(0.6470372 0 0)
(0.69796015 0 0)
(0.053230762 0 0)
(0.15309622 0 0)
(0.24477258 0 0)
(0.32878179 0 0)
(0.40557689 0 0)
(0.47561247 0 0)
(0.53940793 0 0)
(0.5975951 0 0)
(0.65095648 0 0)
(0.70047686 0 0)
(0.74735286 0 0)
(0.05358418 0 0)
(0.15417325 0 0)
(0.24661292 0 0)
(0.33141333 0 0)
(0.40899937 0 0)
(0.47977612 0 0)
(0.54417113 0 0)
(0.60268509 0 0)
(0.65595259 0 0)
(0.7047617 0 0)
(0.75007492 0 0)
(0.79314894 0 0)
(0.053905186 0 0)
(0.15515816 0 0)
(0.24831306 0 0)
(0.33387777 0 0)
(0.41225757 0 0)
(0.48382688 0 0)
(0.54895764 0 0)
(0.60804477 0 0)
(0.66158562 0 0)
(0.71020887 0 0)
(0.75470098 0 0)
(0.79606837 0 0)
(0.83555848 0 0)
(0.054193555 0 0)
(0.15605038 0 0)
(0.24986716 0 0)
(0.3361552 0 0)
(0.41531024 0 0)
(0.48768652 0 0)
(0.55361783 0 0)
(0.61343486 0 0)
(0.66752345 0 0)
(0.71637308 0 0)
(0.76061713 0 0)
(0.80105346 0 0)
(0.83867901 0 0)
(0.87480776 0 0)
(0.054451978 0 0)
(0.15685322 0 0)
(0.2512748 0 0)
(0.33823804 0 0)
(0.41813386 0 0)
(0.49130343 0 0)
(0.55806105 0 0)
(0.61869697 0 0)
(0.67351512 0 0)
(0.72288937 0 0)
(0.76731531 0 0)
(0.80741882 0 0)
(0.8440065 0 0)
(0.87812532 0 0)
(0.91108506 0 0)
(0.054681404 0 0)
(0.15757011 0 0)
(0.25253952 0 0)
(0.34012447 0 0)
(0.42071612 0 0)
(0.49465172 0 0)
(0.56223157 0 0)
(0.62372101 0 0)
(0.67937675 0 0)
(0.72947962 0 0)
(0.77440483 0 0)
(0.81464475 0 0)
(0.8508387 0 0)
(0.88380995 0 0)
(0.91460295 0 0)
(0.94459442 0 0)
(0.054885091 0 0)
(0.1582079 0 0)
(0.25366887 0 0)
(0.34182075 0 0)
(0.42305753 0 0)
(0.4977147 0 0)
(0.56609097 0 0)
(0.62843802 0 0)
(0.68497714 0 0)
(0.73593507 0 0)
(0.78159083 0 0)
(0.82231376 0 0)
(0.85860123 0 0)
(0.89109217 0 0)
(0.92063036 0 0)
(0.94830882 0 0)
(0.97550174 0 0)
(0.055064462 0 0)
(0.1587716 0 0)
(0.25467069 0 0)
(0.34333488 0 0)
(0.42516228 0 0)
(0.50049282 0 0)
(0.56962663 0 0)
(0.63280712 0 0)
(0.69023936 0 0)
(0.74211598 0 0)
(0.78864534 0 0)
(0.83009662 0 0)
(0.86684693 0 0)
(0.89938836 0 0)
(0.92838213 0 0)
(0.95469153 0 0)
(0.9794136 0 0)
(1.0039892 0 0)
(0.055222335 0 0)
(0.15926863 0 0)
(0.25555618 0 0)
(0.34467974 0 0)
(0.42704374 0 0)
(0.50299148 0 0)
(0.57283188 0 0)
(0.63681165 0 0)
(0.69512017 0 0)
(0.7479296 0 0)
(0.7954127 0 0)
(0.83775754 0 0)
(0.87523478 0 0)
(0.9082197 0 0)
(0.9372182 0 0)
(0.96289537 0 0)
(0.9861395 0 0)
(1.0080954 0 0)
(1.0302037 0 0)
(0.055360657 0 0)
(0.15970494 0 0)
(0.25633448 0 0)
(0.34586752 0 0)
(0.42871402 0 0)
(0.50522458 0 0)
(0.57571811 0 0)
(0.64044549 0 0)
(0.69959429 0 0)
(0.75332593 0 0)
(0.80178505 0 0)
(0.84511468 0 0)
(0.88350163 0 0)
(0.91721415 0 0)
(0.94663435 0 0)
(0.97226826 0 0)
(0.99481171 0 0)
(1.0151727 0 0)
(1.0345039 0 0)
(1.0543083 0 0)
(0.055481677 0 0)
(0.1600873 0 0)
(0.25701743 0 0)
(0.3469132 0 0)
(0.43019182 0 0)
(0.5072087 0 0)
(0.57829593 0 0)
(0.64371856 0 0)
(0.70366121 0 0)
(0.7582771 0 0)
(0.80770306 0 0)
(0.85205565 0 0)
(0.89146018 0 0)
(0.92609738 0 0)
(0.95624392 0 0)
(0.98227781 0 0)
(1.0047275 0 0)
(1.0242958 0 0)
(1.0419206 0 0)
(1.0587985 0 0)
(1.076432 0 0)
(0.055587414 0 0)
(0.1604215 0 0)
(0.25761385 0 0)
(0.3478298 0 0)
(0.43149179 0 0)
(0.50896262 0 0)
(0.58058786 0 0)
(0.64664507 0 0)
(0.70732407 0 0)
(0.76278103 0 0)
(0.81314289 0 0)
(0.85851129 0 0)
(0.89898178 0 0)
(0.93466564 0 0)
(0.96574757 0 0)
(0.99250413 0 0)
(1.0153274 0 0)
(1.0347497 0 0)
(1.0515082 0 0)
(1.0665589 0 0)
(1.0811097 0 0)
(1.09672 0 0)
(0.055679318 0 0)
(0.16071275 0 0)
(0.25813475 0 0)
(0.34863174 0 0)
(0.43263363 0 0)
(0.51050752 0 0)
(0.58261247 0 0)
(0.64924711 0 0)
(0.71060487 0 0)
(0.76684218 0 0)
(0.81809155 0 0)
(0.86444864 0 0)
(0.90598509 0 0)
(0.94277521 0 0)
(0.97493189 0 0)
(1.0026382 0 0)
(1.0261782 0 0)
(1.0459455 0 0)
(1.0625018 0 0)
(1.0765916 0 0)
(1.0892021 0 0)
(1.1015807 0 0)
(1.1152861 0 0)
(0.055759553 0 0)
(0.16096683 0 0)
(0.25858804 0 0)
(0.34933109 0 0)
(0.43363148 0 0)
(0.51186232 0 0)
(0.58439572 0 0)
(0.65154829 0 0)
(0.71352111 0 0)
(0.77048069 0 0)
(0.82256186 0 0)
(0.86985718 0 0)
(0.9124321 0 0)
(0.95033986 0 0)
(0.98364179 0 0)
(1.0124455 0 0)
(1.0369441 0 0)
(1.0574202 0 0)
(1.0742886 0 0)
(1.0881178 0 0)
(1.0996889 0 0)
(1.1100053 0 0)
(1.1203262 0 0)
(1.1322597 0 0)
(0.055828968 0 0)
(0.1611872 0 0)
(0.25898285 0 0)
(0.34994048 0 0)
(0.43450345 0 0)
(0.51304832 0 0)
(0.58595832 0 0)
(0.65357457 0 0)
(0.71610477 0 0)
(0.77371957 0 0)
(0.82656678 0 0)
(0.87474603 0 0)
(0.91831351 0 0)
(0.95731224 0 0)
(0.99178193 0 0)
(1.0217689 0 0)
(1.0473853 0 0)
(1.0688271 0 0)
(1.0863912 0 0)
(1.1004971 0 0)
(1.1117458 0 0)
(1.1209256 0 0)
(1.1290707 0 0)
(1.1374738 0 0)
(1.1477409 0 0)
(0.055889636 0 0)
(0.16137947 0 0)
(0.25932627 0 0)
(0.35047042 0 0)
(0.43526209 0 0)
(0.51408265 0 0)
(0.58732568 0 0)
(0.65535239 0 0)
(0.71837895 0 0)
(0.77658841 0 0)
(0.8301378 0 0)
(0.87913236 0 0)
(0.92363278 0 0)
(0.96367914 0 0)
(0.99929429 0 0)
(1.030494 0 0)
(1.0573259 0 0)
(1.0799055 0 0)
(1.0984386 0 0)
(1.1132246 0 0)
(1.1247099 0 0)
(1.1335034 0 0)
(1.1404294 0 0)
(1.1465348 0 0)
(1.153124 0 0)
(1.1618444 0 0)
(0.055941826 0 0)
(0.16154597 0 0)
(0.25962534 0 0)
(0.35093134 0 0)
(0.43592316 0 0)
(0.51498489 0 0)
(0.58851712 0 0)
(0.65690685 0 0)
(0.72037764 0 0)
(0.77911783 0 0)
(0.83330032 0 0)
(0.88304509 0 0)
(0.92841337 0 0)
(0.96944355 0 0)
(1.0061593 0 0)
(1.0385615 0 0)
(1.0666508 0 0)
(1.0904747 0 0)
(1.1101619 0 0)
(1.1259183 0 0)
(1.1380627 0 0)
(1.14705 0 0)
(1.1535223 0 0)
(1.1583103 0 0)
(1.1624892 0 0)
(1.1673906 0 0)
(1.1746582 0 0)
(0.055987656 0 0)
(0.16169156 0 0)
(0.25988576 0 0)
(0.35133199 0 0)
(0.43649697 0 0)
(0.51576906 0 0)
(0.58955549 0 0)
(0.65826332 0 0)
(0.72212423 0 0)
(0.78133894 0 0)
(0.83609244 0 0)
(0.88651592 0 0)
(0.93267957 0 0)
(0.9746295 0 0)
(1.0123861 0 0)
(1.0459451 0 0)
(1.075289 0 0)
(1.100409 0 0)
(1.121364 0 0)
(1.1382882 0 0)
(1.1513992 0 0)
(1.1610219 0 0)
(1.1676406 0 0)
(1.1719059 0 0)
(1.1746823 0 0)
(1.1770539 0 0)
(1.180362 0 0)
(1.1862843 0 0)
(0.0560267 0 0)
(0.16181729 0 0)
(0.26011301 0 0)
(0.35168067 0 0)
(0.43699639 0 0)
(0.51645181 0 0)
(0.59045729 0 0)
(0.65944377 0 0)
(0.72365066 0 0)
(0.78328373 0 0)
(0.83854369 0 0)
(0.88958077 0 0)
(0.93647044 0 0)
(0.97926331 0 0)
(1.0179899 0 0)
(1.0526474 0 0)
(1.083203 0 0)
(1.1096207 0 0)
(1.1319086 0 0)
(1.1501301 0 0)
(1.1644208 0 0)
(1.1750032 0 0)
(1.1822282 0 0)
(1.1865899 0 0)
(1.1887717 0 0)
(1.1896425 0 0)
(1.1903109 0 0)
(1.1921393 0 0)
(1.1967999 0 0)
(0.056063102 0 0)
(0.1619279 0 0)
(0.26031162 0 0)
(0.35198443 0 0)
(0.43742993 0 0)
(0.51704455 0 0)
(0.59124227 0 0)
(0.66047081 0 0)
(0.72497805 0 0)
(0.78498083 0 0)
(0.84069191 0 0)
(0.89227623 0 0)
(0.93981873 0 0)
(0.98338344 0 0)
(1.0230065 0 0)
(1.0586876 0 0)
(1.090396 0 0)
(1.1180846 0 0)
(1.1417176 0 0)
(1.1613005 0 0)
(1.1769062 0 0)
(1.1886752 0 0)
(1.1968476 0 0)
(1.2017836 0 0)
(1.2040078 0 0)
(1.2042111 0 0)
(1.2032927 0 0)
(1.2023656 0 0)
(1.2027999 0 0)
(1.2062948 0 0)
(0.055856884 0 0)
(0.16202892 0 0)
(0.26048637 0 0)
(0.35225009 0 0)
(0.43780774 0 0)
(0.51756048 0 0)
(0.59192341 0 0)
(0.66136247 0 0)
(0.72613417 0 0)
(0.78645993 0 0)
(0.84256588 0 0)
(0.89463815 0 0)
(0.94276843 0 0)
(0.98702793 0 0)
(1.0274683 0 0)
(1.0640996 0 0)
(1.0968896 0 0)
(1.1257857 0 0)
(1.1507328 0 0)
(1.1716987 0 0)
(1.1887018 0 0)
(1.2018095 0 0)
(1.2111715 0 0)
(1.2170388 0 0)
(1.2198 0 0)
(1.2199894 0 0)
(1.2183283 0 0)
(1.2157181 0 0)
(1.2132911 0 0)
(1.2124336 0 0)
(1.2148369 0 0)
(0.055600623 0 0)
(0.16159401 0 0)
(0.26064865 0 0)
(0.35248262 0 0)
(0.43813719 0 0)
(0.51800906 0 0)
(0.59251737 0 0)
(0.6621378 0 0)
(0.72713687 0 0)
(0.7877454 0 0)
(0.84419945 0 0)
(0.89670269 0 0)
(0.94535367 0 0)
(0.99023922 0 0)
(1.0314219 0 0)
(1.0689203 0 0)
(1.102711 0 0)
(1.1327444 0 0)
(1.158956 0 0)
(1.1812873 0 0)
(1.1997116 0 0)
(1.2142414 0 0)
(1.2249545 0 0)
(1.23201 0 0)
(1.2356811 0 0)
(1.2363675 0 0)
(1.2346328 0 0)
(1.2312044 0 0)
(1.2270093 0 0)
(1.2231802 0 0)
(1.2211083 0 0)
(1.2225053 0 0)
(0.055369239 0 0)
(0.16081987 0 0)
(0.26000838 0 0)
(0.35269894 0 0)
(0.43842515 0 0)
(0.51840044 0 0)
(0.59303391 0 0)
(0.66281114 0 0)
(0.72800933 0 0)
(0.78886312 0 0)
(0.84561857 0 0)
(0.89850178 0 0)
(0.94761679 0 0)
(0.99305818 0 0)
(1.034906 0 0)
(1.0731947 0 0)
(1.1079063 0 0)
(1.1389944 0 0)
(1.166397 0 0)
(1.1900451 0 0)
(1.2098751 0 0)
(1.2258591 0 0)
(1.2380232 0 0)
(1.2464438 0 0)
(1.2512966 0 0)
(1.2528678 0 0)
(1.2515855 0 0)
(1.2480222 0 0)
(1.242932 0 0)
(1.2372414 0 0)
(1.2320978 0 0)
(1.2289034 0 0)
(1.2293595 0 0)
(0.055164474 0 0)
(0.16012506 0 0)
(0.25877162 0 0)
(0.35187064 0 0)
(0.4386919 0 0)
(0.51874304 0 0)
(0.59348595 0 0)
(0.66339806 0 0)
(0.72876603 0 0)
(0.7898329 0 0)
(0.84685165 0 0)
(0.90006793 0 0)
(0.94958922 0 0)
(0.99552511 0 0)
(1.037969 0 0)
(1.0769677 0 0)
(1.1125148 0 0)
(1.1445748 0 0)
(1.1730891 0 0)
(1.1979835 0 0)
(1.2191779 0 0)
(1.2366122 0 0)
(1.2502658 0 0)
(1.2601565 0 0)
(1.2663779 0 0)
(1.2691192 0 0)
(1.2686916 0 0)
(1.2655338 0 0)
(1.2602448 0 0)
(1.2535829 0 0)
(1.2464952 0 0)
(1.2401258 0 0)
(1.235878 0 0)
(1.2354686 0 0)
(0.054986693 0 0)
(0.15950826 0 0)
(0.2576616 0 0)
(0.3502143 0 0)
(0.43769546 0 0)
(0.51905885 0 0)
(0.59388205 0 0)
(0.66391002 0 0)
(0.72942544 0 0)
(0.79067618 0 0)
(0.84792118 0 0)
(0.90142822 0 0)
(0.9513088 0 0)
(0.997679 0 0)
(1.0406495 0 0)
(1.0802859 0 0)
(1.1165903 0 0)
(1.1495351 0 0)
(1.1790717 0 0)
(1.2051306 0 0)
(1.2276262 0 0)
(1.2464729 0 0)
(1.2616102 0 0)
(1.2730194 0 0)
(1.2807322 0 0)
(1.2848458 0 0)
(1.2855718 0 0)
(1.2832349 0 0)
(1.2783009 0 0)
(1.2713754 0 0)
(1.2632393 0 0)
(1.2548365 0 0)
(1.247321 0 0)
(1.242102 0 0)
(1.2408846 0 0)
(0.054838486 0 0)
(0.15897588 0 0)
(0.25667774 0 0)
(0.34872756 0 0)
(0.43566094 0 0)
(0.51791581 0 0)
(0.59424863 0 0)
(0.66435852 0 0)
(0.72999995 0 0)
(0.79140879 0 0)
(0.84885006 0 0)
(0.90261059 0 0)
(0.95280254 0 0)
(0.99955509 0 0)
(1.0429924 0 0)
(1.0831946 0 0)
(1.1201755 0 0)
(1.1539221 0 0)
(1.1843955 0 0)
(1.211532 0 0)
(1.2352459 0 0)
(1.2554443 0 0)
(1.2720379 0 0)
(1.2849698 0 0)
(1.2942281 0 0)
(1.2998432 0 0)
(1.3019356 0 0)
(1.3007317 0 0)
(1.2965805 0 0)
(1.2899576 0 0)
(1.2814916 0 0)
(1.2719649 0 0)
(1.2623371 0 0)
(1.2537553 0 0)
(1.2476268 0 0)
(1.2456681 0 0)
(0.054719944 0 0)
(0.1585303 0 0)
(0.25582787 0 0)
(0.34741062 0 0)
(0.43383482 0 0)
(0.51554348 0 0)
(0.59297862 0 0)
(0.66477264 0 0)
(0.73050255 0 0)
(0.79204748 0 0)
(0.8496571 0 0)
(0.90363698 0 0)
(0.95410229 0 0)
(1.0011879 0 0)
(1.0450328 0 0)
(1.0857372 0 0)
(1.1233239 0 0)
(1.1577898 0 0)
(1.1891099 0 0)
(1.2172329 0 0)
(1.242079 0 0)
(1.2635492 0 0)
(1.2815421 0 0)
(1.2959721 0 0)
(1.3067835 0 0)
(1.3139667 0 0)
(1.3175711 0 0)
(1.3177264 0 0)
(1.3146825 0 0)
(1.3088016 0 0)
(1.300583 0 0)
(1.2906598 0 0)
(1.2798323 0 0)
(1.2690545 0 0)
(1.2594785 0 0)
(1.2525136 0 0)
(1.2498643 0 0)
(0.054633057 0 0)
(0.15817636 0 0)
(0.25511795 0 0)
(0.34627304 0 0)
(0.43221753 0 0)
(0.51341573 0 0)
(0.59030805 0 0)
(0.66338637 0 0)
(0.73096564 0 0)
(0.79260631 0 0)
(0.85036 0 0)
(0.90452997 0 0)
(0.95523044 0 0)
(1.0026065 0 0)
(1.0468095 0 0)
(1.0879556 0 0)
(1.1260766 0 0)
(1.1611853 0 0)
(1.1932697 0 0)
(1.2222904 0 0)
(1.2481742 0 0)
(1.2708274 0 0)
(1.2901449 0 0)
(1.3060206 0 0)
(1.3183674 0 0)
(1.327137 0 0)
(1.3323288 0 0)
(1.3339964 0 0)
(1.3322962 0 0)
(1.3274931 0 0)
(1.3199721 0 0)
(1.3102404 0 0)
(1.2989494 0 0)
(1.2868986 0 0)
(1.2750524 0 0)
(1.2645537 0 0)
(1.2568072 0 0)
(1.2535255 0 0)
(0.054577663 0 0)
(0.15791569 0 0)
(0.25455338 0 0)
(0.34532299 0 0)
(0.43082025 0 0)
(0.51153073 0 0)
(0.58791352 0 0)
(0.66044358 0 0)
(0.72947797 0 0)
(0.79311877 0 0)
(0.85097548 0 0)
(0.9053081 0 0)
(0.95621277 0 0)
(1.0038401 0 0)
(1.0483529 0 0)
(1.0898868 0 0)
(1.1284818 0 0)
(1.1641604 0 0)
(1.196926 0 0)
(1.2267552 0 0)
(1.2535873 0 0)
(1.2773313 0 0)
(1.2978831 0 0)
(1.3151326 0 0)
(1.3289698 0 0)
(1.3393105 0 0)
(1.346111 0 0)
(1.3493795 0 0)
(1.3491919 0 0)
(1.3457151 0 0)
(1.3392384 0 0)
(1.3301575 0 0)
(1.3190001 0 0)
(1.3064192 0 0)
(1.2932278 0 0)
(1.2803813 0 0)
(1.2690244 0 0)
(1.2605606 0 0)
(1.2566917 0 0)
(0.054555032 0 0)
(0.15775115 0 0)
(0.25413848 0 0)
(0.34456776 0 0)
(0.42965347 0 0)
(0.50990289 0 0)
(0.58579293 0 0)
(0.65780528 0 0)
(0.72629046 0 0)
(0.79154607 0 0)
(0.85153931 0 0)
(0.9059878 0 0)
(0.95706832 0 0)
(1.0049123 0 0)
(1.049695 0 0)
(1.0915674 0 0)
(1.130576 0 0)
(1.1667584 0 0)
(1.2001309 0 0)
(1.2306859 0 0)
(1.2583736 0 0)
(1.2831137 0 0)
(1.3048084 0 0)
(1.3233441 0 0)
(1.3386016 0 0)
(1.3504729 0 0)
(1.3588776 0 0)
(1.3637801 0 0)
(1.3652016 0 0)
(1.3632276 0 0)
(1.3580531 0 0)
(1.3499798 0 0)
(1.3394241 0 0)
(1.326919 0 0)
(1.3131314 0 0)
(1.2988702 0 0)
(1.285097 0 0)
(1.2729456 0 0)
(1.2638132 0 0)
(1.259408 0 0)
(0.15768368 0 0)
(0.054557007 0 0)
(0.25387617 0 0)
(0.34401253 0 0)
(0.42872582 0 0)
(0.50854364 0 0)
(0.58396195 0 0)
(0.6554697 0 0)
(0.72343295 0 0)
(0.78814124 0 0)
(0.84989549 0 0)
(0.9066102 0 0)
(0.95781541 0 0)
(1.0058463 0 0)
(1.0508612 0 0)
(1.0930281 0 0)
(1.1324006 0 0)
(1.1690254 0 0)
(1.2029329 0 0)
(1.2341325 0 0)
(1.2625909 0 0)
(1.2882353 0 0)
(1.3109745 0 0)
(1.3307022 0 0)
(1.3472968 0 0)
(1.3606343 0 0)
(1.3706074 0 0)
(1.3771436 0 0)
(1.3802136 0 0)
(1.3798525 0 0)
(1.3761701 0 0)
(1.3693727 0 0)
(1.3597847 0 0)
(1.3478306 0 0)
(1.3340599 0 0)
(1.3191379 0 0)
(1.303883 0 0)
(1.2892439 0 0)
(1.2763554 0 0)
(1.2666107 0 0)
(1.2617095 0 0)
(0.25376944 0 0)
(0.15769104 0 0)
(0.05458408 0 0)
(0.34366214 0 0)
(0.42804393 0 0)
(0.50746308 0 0)
(0.58243362 0 0)
(0.65345323 0 0)
(0.72090371 0 0)
(0.7850909 0 0)
(0.84630045 0 0)
(0.9049057 0 0)
(0.95849771 0 0)
(1.0066621 0 0)
(1.0518769 0 0)
(1.0942992 0 0)
(1.1339866 0 0)
(1.1709986 0 0)
(1.2053776 0 0)
(1.2371495 0 0)
(1.2662943 0 0)
(1.2927517 0 0)
(1.3164431 0 0)
(1.3372668 0 0)
(1.3551032 0 0)
(1.3698254 0 0)
(1.3813071 0 0)
(1.3894454 0 0)
(1.3941739 0 0)
(1.3954768 0 0)
(1.3934054 0 0)
(1.3880813 0 0)
(1.3797373 0 0)
(1.3687086 0 0)
(1.3554367 0 0)
(1.3404736 0 0)
(1.3244949 0 0)
(1.3083101 0 0)
(1.2928711 0 0)
(1.279301 0 0)
(1.2689879 0 0)
(1.2636348 0 0)
(0.34351901 0 0)
(0.25378133 0 0)
(0.15777339 0 0)
(0.054643563 0 0)
(0.42761346 0 0)
(0.50666928 0 0)
(0.58121902 0 0)
(0.65177065 0 0)
(0.71872007 0 0)
(0.78239036 0 0)
(0.84308149 0 0)
(0.90114178 0 0)
(0.95674491 0 0)
(1.0074036 0 0)
(1.052764 0 0)
(1.0954061 0 0)
(1.1353676 0 0)
(1.1727169 0 0)
(1.2075077 0 0)
(1.2397823 0 0)
(1.2695377 0 0)
(1.2967239 0 0)
(1.3212723 0 0)
(1.3430942 0 0)
(1.3620767 0 0)
(1.3780905 0 0)
(1.3910021 0 0)
(1.4006888 0 0)
(1.4070519 0 0)
(1.4100344 0 0)
(1.4096313 0 0)
(1.4059121 0 0)
(1.3990217 0 0)
(1.3892032 0 0)
(1.3768121 0 0)
(1.3622949 0 0)
(1.3462165 0 0)
(1.3292474 0 0)
(1.3122021 0 0)
(1.2960172 0 0)
(1.2818168 0 0)
(1.2709842 0 0)
(1.265215 0 0)
(0.4274376 0 0)
(0.34353574 0 0)
(0.2539125 0 0)
(0.15795288 0 0)
(0.054735002 0 0)
(0.50616792 0 0)
(0.58032745 0 0)
(0.65043381 0 0)
(0.71689821 0 0)
(0.78005975 0 0)
(0.84023173 0 0)
(0.89777046 0 0)
(0.95283104 0 0)
(1.0056146 0 0)
(1.053569 0 0)
(1.0963719 0 0)
(1.13657 0 0)
(1.1742114 0 0)
(1.2093618 0 0)
(1.2420782 0 0)
(1.2723721 0 0)
(1.300205 0 0)
(1.3255237 0 0)
(1.3482498 0 0)
(1.3682778 0 0)
(1.3854849 0 0)
(1.3997368 0 0)
(1.4108973 0 0)
(1.4188446 0 0)
(1.4234892 0 0)
(1.4247822 0 0)
(1.4227363 0 0)
(1.4174385 0 0)
(1.4090466 0 0)
(1.3978277 0 0)
(1.3841454 0 0)
(1.3684592 0 0)
(1.3513337 0 0)
(1.3334459 0 0)
(1.3155972 0 0)
(1.2987248 0 0)
(1.2839433 0 0)
(1.2726304 0 0)
(1.266483 0 0)
(0.50596434 0 0)
(0.42745801 0 0)
(0.34371114 0 0)
(0.25419835 0 0)
(0.15822872 0 0)
(0.054857797 0 0)
(0.57976506 0 0)
(0.64945278 0 0)
(0.71545088 0 0)
(0.77811484 0 0)
(0.83777339 0 0)
(0.89478823 0 0)
(0.94932609 0 0)
(1.0015691 0 0)
(1.0517533 0 0)
(1.0972472 0 0)
(1.1376187 0 0)
(1.1755131 0 0)
(1.2109755 0 0)
(1.2440766 0 0)
(1.2748444 0 0)
(1.3032508 0 0)
(1.3292541 0 0)
(1.3527916 0 0)
(1.3737701 0 0)
(1.3920715 0 0)
(1.4075646 0 0)
(1.4201114 0 0)
(1.4295738 0 0)
(1.4358353 0 0)
(1.4388139 0 0)
(1.4384755 0 0)
(1.4348461 0 0)
(1.4280318 0 0)
(1.4182116 0 0)
(1.4056622 0 0)
(1.3907632 0 0)
(1.3739766 0 0)
(1.3558756 0 0)
(1.3371292 0 0)
(1.3185398 0 0)
(1.3010282 0 0)
(1.2857109 0 0)
(1.2739599 0 0)
(1.2674662 0 0)
(0.57953759 0 0)
(0.50598819 0 0)
(0.42767326 0 0)
(0.34409478 0 0)
(0.25463727 0 0)
(0.15859779 0 0)
(0.055010714 0 0)
(0.64883461 0 0)
(0.71438899 0 0)
(0.77657021 0 0)
(0.8357219 0 0)
(0.89221444 0 0)
(0.9462266 0 0)
(0.99794943 0 0)
(1.0475945 0 0)
(1.0954123 0 0)
(1.1385674 0 0)
(1.176649 0 0)
(1.212381 0 0)
(1.2458166 0 0)
(1.2769986 0 0)
(1.3059085 0 0)
(1.3325198 0 0)
(1.3567832 0 0)
(1.3786163 0 0)
(1.3979124 0 0)
(1.4145477 0 0)
(1.4283835 0 0)
(1.4392758 0 0)
(1.4470899 0 0)
(1.4517153 0 0)
(1.4530811 0 0)
(1.4511654 0 0)
(1.4460145 0 0)
(1.4377512 0 0)
(1.426567 0 0)
(1.4127585 0 0)
(1.396711 0 0)
(1.3788958 0 0)
(1.3598822 0 0)
(1.3403427 0 0)
(1.3210633 0 0)
(1.3029643 0 0)
(1.2871542 0 0)
(1.2750004 0 0)
(1.2681914 0 0)
(0.64858515 0 0)
(0.5795658 0 0)
(0.50624056 0 0)
(0.42814457 0 0)
(0.34468215 0 0)
(0.25522514 0 0)
(0.15905939 0 0)
(0.055193162 0 0)
(0.7137202 0 0)
(0.77543663 0 0)
(0.83409328 0 0)
(0.89006827 0 0)
(0.94355176 0 0)
(0.99474727 0 0)
(1.0438755 0 0)
(1.0911542 0 0)
(1.136723 0 0)
(1.1776718 0 0)
(1.2136059 0 0)
(1.2473321 0 0)
(1.2788744 0 0)
(1.3082264 0 0)
(1.3353724 0 0)
(1.360279 0 0)
(1.3828789 0 0)
(1.4030744 0 0)
(1.4207497 0 0)
(1.4357734 0 0)
(1.4480009 0 0)
(1.457287 0 0)
(1.4634997 0 0)
(1.4665378 0 0)
(1.4663408 0 0)
(1.4629049 0 0)
(1.4562911 0 0)
(1.4466408 0 0)
(1.4341636 0 0)
(1.4191635 0 0)
(1.402038 0 0)
(1.3832584 0 0)
(1.3633983 0 0)
(1.3431197 0 0)
(1.3232062 0 0)
(1.3045629 0 0)
(1.2883005 0 0)
(1.275779 0 0)
(1.268683 0 0)
(0.71345093 0 0)
(0.64861748 0 0)
(0.57985032 0 0)
(0.50678974 0 0)
(0.42886607 0 0)
(0.34547046 0 0)
(0.25595812 0 0)
(0.15960769 0 0)
(0.055402963 0 0)
(0.77472286 0 0)
(0.83289836 0 0)
(0.88836353 0 0)
(0.94132217 0 0)
(0.99198589 0 0)
(1.0405857 0 0)
(1.0873464 0 0)
(1.1323793 0 0)
(1.175828 0 0)
(1.214709 0 0)
(1.2486527 0 0)
(1.2805081 0 0)
(1.3102449 0 0)
(1.3378607 0 0)
(1.3633364 0 0)
(1.3866174 0 0)
(1.4076189 0 0)
(1.4262378 0 0)
(1.4423486 0 0)
(1.4558105 0 0)
(1.4664761 0 0)
(1.4741992 0 0)
(1.4788546 0 0)
(1.4803506 0 0)
(1.4786424 0 0)
(1.4737403 0 0)
(1.4657255 0 0)
(1.4547542 0 0)
(1.4410472 0 0)
(1.4249242 0 0)
(1.4067856 0 0)
(1.3871083 0 0)
(1.3664588 0 0)
(1.3455003 0 0)
(1.3249978 0 0)
(1.3058559 0 0)
(1.2891776 0 0)
(1.2763202 0 0)
(1.268965 0 0)
(0.77443537 0 0)
(0.71348646 0 0)
(0.64893126 0 0)
(0.58046904 0 0)
(0.50763296 0 0)
(0.42983478 0 0)
(0.34645275 0 0)
(0.25683079 0 0)
(0.16024129 0 0)
(0.055639374 0 0)
(0.83214638 0 0)
(0.88711357 0 0)
(0.93955168 0 0)
(0.98968324 0 0)
(1.0377498 0 0)
(1.0839806 0 0)
(1.1284957 0 0)
(1.17141 0 0)
(1.2128709 0 0)
(1.2498405 0 0)
(1.2819328 0 0)
(1.3120034 0 0)
(1.3400289 0 0)
(1.3660038 0 0)
(1.3898884 0 0)
(1.41161 0 0)
(1.4310762 0 0)
(1.4481736 0 0)
(1.4627681 0 0)
(1.474713 0 0)
(1.4838576 0 0)
(1.4900594 0 0)
(1.4932003 0 0)
(1.4932013 0 0)
(1.4900311 0 0)
(1.4837203 0 0)
(1.4743632 0 0)
(1.4621328 0 0)
(1.4472647 0 0)
(1.4300835 0 0)
(1.4109979 0 0)
(1.3904823 0 0)
(1.3691034 0 0)
(1.3475132 0 0)
(1.3264714 0 0)
(1.306868 0 0)
(1.2898099 0 0)
(1.2766485 0 0)
(1.2690591 0 0)
(0.83184422 0 0)
(0.77447278 0 0)
(0.71382671 0 0)
(0.64961397 0 0)
(0.58141705 0 0)
(0.50876212 0 0)
(0.43104162 0 0)
(0.34762295 0 0)
(0.25783687 0 0)
(0.16095294 0 0)
(0.055901057 0 0)
(0.88632663 0 0)
(0.93825425 0 0)
(0.98785622 0 0)
(1.0353852 0 0)
(1.0810783 0 0)
(1.1250644 0 0)
(1.1674646 0 0)
(1.2083943 0 0)
(1.2480172 0 0)
(1.2832095 0 0)
(1.3135369 0 0)
(1.3419183 0 0)
(1.3683299 0 0)
(1.3927456 0 0)
(1.4151046 0 0)
(1.4353295 0 0)
(1.4533176 0 0)
(1.4689426 0 0)
(1.4820641 0 0)
(1.4925318 0 0)
(1.5001945 0 0)
(1.5049137 0 0)
(1.506582 0 0)
(1.5051326 0 0)
(1.5005527 0 0)
(1.4928874 0 0)
(1.48225 0 0)
(1.4688253 0 0)
(1.452858 0 0)
(1.4346838 0 0)
(1.4147122 0 0)
(1.3934194 0 0)
(1.3713628 0 0)
(1.3491934 0 0)
(1.3276508 0 0)
(1.3076265 0 0)
(1.2902232 0 0)
(1.2767861 0 0)
(1.2689842 0 0)
(0.88601061 0 0)
(0.83188386 0 0)
(0.77483527 0 0)
(0.71456616 0 0)
(0.65065893 0 0)
(0.5826875 0 0)
(0.51017151 0 0)
(0.43248017 0 0)
(0.34897231 0 0)
(0.25896982 0 0)
(0.16174392 0 0)
(0.056112092 0 0)
(0.93743822 0 0)
(0.98651685 0 0)
(1.0335097 0 0)
(1.07866 0 0)
(1.1221056 0 0)
(1.1639766 0 0)
(1.2043964 0 0)
(1.243492 0 0)
(1.2814096 0 0)
(1.3149081 0 0)
(1.3435646 0 0)
(1.3703567 0 0)
(1.3952375 0 0)
(1.4181598 0 0)
(1.4390581 0 0)
(1.4578437 0 0)
(1.4744015 0 0)
(1.4885975 0 0)
(1.5002862 0 0)
(1.5093145 0 0)
(1.5155307 0 0)
(1.5188047 0 0)
(1.5190408 0 0)
(1.5161881 0 0)
(1.5102486 0 0)
(1.5012873 0 0)
(1.4894283 0 0)
(1.4748707 0 0)
(1.4578699 0 0)
(1.4387642 0 0)
(1.4179679 0 0)
(1.3959523 0 0)
(1.3732713 0 0)
(1.3505636 0 0)
(1.3285645 0 0)
(1.3081564 0 0)
(1.2904392 0 0)
(1.2767525 0 0)
(1.2687382 0 0)
(0.93711166 0 0)
(0.88605183 0 0)
(0.83226587 0 0)
(0.77562369 0 0)
(0.71569817 0 0)
(0.65205952 0 0)
(0.58427129 0 0)
(0.51184861 0 0)
(0.4341385 0 0)
(0.35049131 0 0)
(0.26022897 0 0)
(0.16219457 0 0)
(0.056080399 0 0)
(0.98567545 0 0)
(1.0321354 0 0)
(1.0767413 0 0)
(1.1196417 0 0)
(1.1609722 0 0)
(1.200865 0 0)
(1.2394521 0 0)
(1.2768427 0 0)
(1.3131383 0 0)
(1.3450362 0 0)
(1.3721227 0 0)
(1.3974094 0 0)
(1.4208254 0 0)
(1.4423198 0 0)
(1.4618169 0 0)
(1.4792123 0 0)
(1.4943824 0 0)
(1.5071885 0 0)
(1.5174788 0 0)
(1.525098 0 0)
(1.5299031 0 0)
(1.531771 0 0)
(1.5306175 0 0)
(1.5264071 0 0)
(1.5191618 0 0)
(1.5089597 0 0)
(1.495941 0 0)
(1.4803132 0 0)
(1.4623389 0 0)
(1.4423631 0 0)
(1.4207987 0 0)
(1.3981152 0 0)
(1.3748535 0 0)
(1.3516542 0 0)
(1.3292379 0 0)
(1.3084806 0 0)
(1.2904785 0 0)
(1.2764673 0 0)
(1.2683036 0 0)
(0.98533909 0 0)
(0.93715545 0 0)
(0.88645008 0 0)
(0.83309682 0 0)
(0.7768321 0 0)
(0.71721546 0 0)
(0.6538051 0 0)
(0.58615767 0 0)
(0.5137835 0 0)
(0.43600589 0 0)
(0.35218054 0 0)
(0.26089198 0 0)
(0.16210696 0 0)
(0.056045995 0 0)
(1.0312726 0 0)
(1.0753362 0 0)
(1.1176869 0 0)
(1.1584684 0 0)
(1.1978221 0 0)
(1.2358859 0 0)
(1.2727704 0 0)
(1.3085406 0 0)
(1.3433025 0 0)
(1.3736994 0 0)
(1.3993026 0 0)
(1.4231498 0 0)
(1.4451682 0 0)
(1.4652952 0 0)
(1.4834392 0 0)
(1.4994871 0 0)
(1.5133094 0 0)
(1.52476 0 0)
(1.5336832 0 0)
(1.5399283 0 0)
(1.5433556 0 0)
(1.5438526 0 0)
(1.5413499 0 0)
(1.5358306 0 0)
(1.5273311 0 0)
(1.5159473 0 0)
(1.5018274 0 0)
(1.4851897 0 0)
(1.4663042 0 0)
(1.445516 0 0)
(1.4232394 0 0)
(1.3999336 0 0)
(1.3761387 0 0)
(1.3524908 0 0)
(1.3296951 0 0)
(1.3086203 0 0)
(1.2901385 0 0)
(1.2759453 0 0)
(1.267689 0 0)
(1.030929 0 0)
(0.98538432 0 0)
(0.93756918 0 0)
(0.8873192 0 0)
(0.83437104 0 0)
(0.77845095 0 0)
(0.71910643 0 0)
(0.65588432 0 0)
(0.58833322 0 0)
(0.5159615 0 0)
(0.43808249 0 0)
(0.35303903 0 0)
(0.26075056 0 0)
(0.16201009 0 0)
(0.056005182 0 0)
(1.0744539 0 0)
(1.1162567 0 0)
(1.1564844 0 0)
(1.1952885 0 0)
(1.232813 0 0)
(1.2691749 0 0)
(1.3044444 0 0)
(1.3386862 0 0)
(1.37201 0 0)
(1.4009889 0 0)
(1.4251762 0 0)
(1.4476531 0 0)
(1.4683357 0 0)
(1.4871445 0 0)
(1.503978 0 0)
(1.5187179 0 0)
(1.5312265 0 0)
(1.541351 0 0)
(1.5489362 0 0)
(1.5538354 0 0)
(1.5559192 0 0)
(1.555084 0 0)
(1.5512766 0 0)
(1.5444959 0 0)
(1.5347973 0 0)
(1.5222876 0 0)
(1.5071275 0 0)
(1.4895403 0 0)
(1.4698009 0 0)
(1.4482574 0 0)
(1.425316 0 0)
(1.4014369 0 0)
(1.3771561 0 0)
(1.353099 0 0)
(1.3299574 0 0)
(1.308215 0 0)
(1.2894618 0 0)
(1.2752566 0 0)
(1.26689 0 0)
(1.0741032 0 0)
(1.030976 0 0)
(0.98581108 0 0)
(0.93847249 0 0)
(0.88865119 0 0)
(0.83607813 0 0)
(0.7804703 0 0)
(0.72135895 0 0)
(0.65828242 0 0)
(0.5907839 0 0)
(0.51838333 0 0)
(0.43911757 0 0)
(0.35285208 0 0)
(0.26059804 0 0)
(0.16189623 0 0)
(0.055957309 0 0)
(1.1153594 0 0)
(1.1550314 0 0)
(1.1932795 0 0)
(1.230256 0 0)
(1.2660798 0 0)
(1.3008282 0 0)
(1.334574 0 0)
(1.3673835 0 0)
(1.3993517 0 0)
(1.4269783 0 0)
(1.4498191 0 0)
(1.4709898 0 0)
(1.4903859 0 0)
(1.5079186 0 0)
(1.5234823 0 0)
(1.5369493 0 0)
(1.548173 0 0)
(1.5569982 0 0)
(1.5632736 0 0)
(1.56686 0 0)
(1.5676323 0 0)
(1.5655021 0 0)
(1.5604329 0 0)
(1.5524418 0 0)
(1.5415971 0 0)
(1.5280208 0 0)
(1.5118778 0 0)
(1.4933995 0 0)
(1.4728645 0 0)
(1.4506135 0 0)
(1.4270586 0 0)
(1.4026565 0 0)
(1.37793 0 0)
(1.3535005 0 0)
(1.3294833 0 0)
(1.3073357 0 0)
(1.2886393 0 0)
(1.2743948 0 0)
(1.2659067 0 0)
(1.1150043 0 0)
(1.0741511 0 0)
(1.0314138 0 0)
(0.9867427 0 0)
(0.93985651 0 0)
(0.89043795 0 0)
(0.83820828 0 0)
(0.78287435 0 0)
(0.72395672 0 0)
(0.66098237 0 0)
(0.59350948 0 0)
(0.51957417 0 0)
(0.43888863 0 0)
(0.35264802 0 0)
(0.2604217 0 0)
(0.16176285 0 0)
(0.055901371 0 0)
(1.1541215 0 0)
(1.19181 0 0)
(1.2282286 0 0)
(1.2635033 0 0)
(1.2977173 0 0)
(1.3309467 0 0)
(1.3632641 0 0)
(1.3947218 0 0)
(1.4254004 0 0)
(1.4517445 0 0)
(1.4733044 0 0)
(1.4932177 0 0)
(1.5113693 0 0)
(1.5276677 0 0)
(1.5419967 0 0)
(1.5542193 0 0)
(1.5641844 0 0)
(1.5717373 0 0)
(1.5767301 0 0)
(1.5790297 0 0)
(1.5785252 0 0)
(1.5751403 0 0)
(1.5688559 0 0)
(1.5597038 0 0)
(1.5477694 0 0)
(1.5331822 0 0)
(1.5161159 0 0)
(1.4968037 0 0)
(1.4755205 0 0)
(1.4526151 0 0)
(1.4285002 0 0)
(1.4036172 0 0)
(1.3784857 0 0)
(1.3529559 0 0)
(1.3283697 0 0)
(1.3063368 0 0)
(1.287664 0 0)
(1.2733593 0 0)
(1.2647345 0 0)
(1.153761 0 0)
(1.1150539 0 0)
(1.0745975 0 0)
(1.03237 0 0)
(0.98817213 0 0)
(0.94171349 0 0)
(0.89266602 0 0)
(0.84074455 0 0)
(0.785648 0 0)
(0.72688201 0 0)
(0.66398744 0 0)
(0.59483358 0 0)
(0.51930072 0 0)
(0.43863718 0 0)
(0.35241201 0 0)
(0.26021723 0 0)
(0.16160681 0 0)
(0.05583614 0 0)
(1.1908888 0 0)
(1.2267467 0 0)
(1.2614628 0 0)
(1.2951278 0 0)
(1.3278254 0 0)
(1.3596327 0 0)
(1.390604 0 0)
(1.4207761 0 0)
(1.4502325 0 0)
(1.4753609 0 0)
(1.4956898 0 0)
(1.5143857 0 0)
(1.5313362 0 0)
(1.5464365 0 0)
(1.5595598 0 0)
(1.570563 0 0)
(1.5792932 0 0)
(1.5855977 0 0)
(1.5893347 0 0)
(1.5903808 0 0)
(1.5886332 0 0)
(1.5840336 0 0)
(1.5765794 0 0)
(1.5663193 0 0)
(1.5533491 0 0)
(1.5378092 0 0)
(1.5198755 0 0)
(1.4997773 0 0)
(1.4778003 0 0)
(1.4542968 0 0)
(1.4296668 0 0)
(1.4043458 0 0)
(1.3778731 0 0)
(1.3515874 0 0)
(1.3271676 0 0)
(1.3052125 0 0)
(1.2865339 0 0)
(1.2721444 0 0)
(1.2633744 0 0)
(1.1905252 0 0)
(1.1538109 0 0)
(1.1155082 0 0)
(1.0755751 0 0)
(1.0338377 0 0)
(0.99008856 0 0)
(0.94402867 0 0)
(0.89532107 0 0)
(0.84367189 0 0)
(0.78877187 0 0)
(0.73013831 0 0)
(0.66543149 0 0)
(0.59451708 0 0)
(0.51900246 0 0)
(0.43834592 0 0)
(0.35213682 0 0)
(0.25997989 0 0)
(0.16142615 0 0)
(0.055760611 0 0)
(1.2258183 0 0)
(1.2599702 0 0)
(1.2930785 0 0)
(1.3252296 0 0)
(1.3565081 0 0)
(1.3869739 0 0)
(1.4166675 0 0)
(1.4456235 0 0)
(1.4739256 0 0)
(1.497885 0 0)
(1.5170206 0 0)
(1.5345463 0 0)
(1.5503315 0 0)
(1.5642623 0 0)
(1.5762059 0 0)
(1.5860131 0 0)
(1.5935306 0 0)
(1.5986109 0 0)
(1.6011187 0 0)
(1.6009391 0 0)
(1.5979856 0 0)
(1.592214 0 0)
(1.5836393 0 0)
(1.5723225 0 0)
(1.5583729 0 0)
(1.5419355 0 0)
(1.523182 0 0)
(1.5023529 0 0)
(1.4797401 0 0)
(1.4556857 0 0)
(1.4305859 0 0)
(1.4036785 0 0)
(1.3762405 0 0)
(1.3501647 0 0)
(1.3258704 0 0)
(1.3039575 0 0)
(1.2852436 0 0)
(1.270751 0 0)
(1.2618212 0 0)
(1.225453 0 0)
(1.1905747 0 0)
(1.1542701 0 0)
(1.1165038 0 0)
(1.0770752 0 0)
(1.0358056 0 0)
(0.99248038 0 0)
(0.94678875 0 0)
(0.89838467 0 0)
(0.84696909 0 0)
(0.79224855 0 0)
(0.73168964 0 0)
(0.66507355 0 0)
(0.5941729 0 0)
(0.51865332 0 0)
(0.43800417 0 0)
(0.35181759 0 0)
(0.25970436 0 0)
(0.16121593 0 0)
(0.055672658 0 0)
(1.2590367 0 0)
(1.2915799 0 0)
(1.3231742 0 0)
(1.3539109 0 0)
(1.3838529 0 0)
(1.4130462 0 0)
(1.4415308 0 0)
(1.4693369 0 0)
(1.496526 0 0)
(1.519351 0 0)
(1.5373515 0 0)
(1.5537441 0 0)
(1.5683925 0 0)
(1.5811808 0 0)
(1.591966 0 0)
(1.6005979 0 0)
(1.6069254 0 0)
(1.6108052 0 0)
(1.6121105 0 0)
(1.610739 0 0)
(1.6066155 0 0)
(1.5997155 0 0)
(1.5900685 0 0)
(1.5777489 0 0)
(1.5628743 0 0)
(1.5455853 0 0)
(1.5260671 0 0)
(1.5045678 0 0)
(1.4813675 0 0)
(1.4568098 0 0)
(1.4298796 0 0)
(1.4017871 0 0)
(1.374589 0 0)
(1.3486796 0 0)
(1.3244725 0 0)
(1.30257 0 0)
(1.2837931 0 0)
(1.2691735 0 0)
(1.260077 0 0)
(1.2586693 0 0)
(1.2255029 0 0)
(1.1910375 0 0)
(1.155279 0 0)
(1.1180318 0 0)
(1.0790884 0 0)
(1.0382621 0 0)
(0.99532961 0 0)
(0.94997305 0 0)
(0.90183583 0 0)
(0.85064088 0 0)