/*--------------------------------*- C++ -*----------------------------------*\
| =========                 |                                                 |
| \\      /  F ield         | OpenFOAM: The Open Source CFD Toolbox           |
|  \\    /   O peration     | Version:  v2012                                 |
|   \\  /    A nd           | Website:  www.openfoam.com                      |
|    \\/     M anipulation  |                                                 |
\*---------------------------------------------------------------------------*/
FoamFile
{
    version     2.0;
    format      ascii;
    class       surfaceScalarField;
    location    "100.337729823899352";
    object      meshPhi;
}
// * * * * * * * * * * * * * * * * * * * * * * * * * * * * * * * * * * * * * //

dimensions      [0 3 -1 0 0 0 0];
oriented        oriented;


internalField   nonuniform List<scalar> 
18180
(
1.0537111e-13
-0.034511003
0
-0.032433813
0
-0.067729195
0
-0.030135322
0
-0.062887479
0
-0.098420124
5.2563451e-14
-0.027590226
0
-0.057761693
0
-0.090896542
0
-0.12646392
-5.2518794e-14
-0.024913412
5.0802909e-14
-0.052490066
2.5292557e-17
-0.083097201
0
-0.11693895
-9.1894669e-14
-0.15273329
0
-0.022744653
5.0777712e-14
-0.048021855
-4.9112022e-14
-0.076042881
-9.49867e-14
-0.10737542
0
-0.14153033
0
-0.17704899
-5.242966e-14
-0.021603455
0
-0.044984305
-4.9064194e-14
-0.070566817
-4.7476373e-14
-0.09895925
-9.1817863e-14
-0.13055455
0
-0.1645629
0
-0.19992237
-5.240276e-14
-0.021166801
0
-0.043262737
4.9028335e-14
-0.066803949
1.2816694e-17
-0.092458125
0
-0.1207749
8.8774061e-14
-0.1522848
0
-0.18614375
1.8757155e-17
-0.22105231
0
-0.020939327
-5.0650337e-14
-0.042318225
4.9007073e-14
-0.064349717
-1.3061148e-17
-0.087727161
1.1831054e-17
-0.11289333
8.8710954e-14
-0.14107075
-8.5785443e-14
-0.17262888
0
-0.2061205
0
-0.24073466
0
-0.020507529
5.0599812e-14
-0.041379585
4.8973022e-14
-0.06234414
-4.7365442e-14
-0.083969348
0
-0.10665021
-4.4321288e-14
-0.13146931
4.2877776e-14
-0.15989057
-8.2914543e-14
-0.1915074
0
-0.22466643
0
-0.25882934
0
-0.019725737
5.0582662e-14
-0.039836848
-4.8926673e-14
-0.059911585
-4.7333723e-14
-0.08022302
4.5799812e-14
-0.10105728
-9.9860724e-18
-0.12323811
4.2849693e-14
-0.14853897
4.1442465e-14
-0.17758572
-8.0135987e-14
-0.20908582
0
-0.24181732
0
-0.27570455
0
-0.018730688
0
-0.037750932
0
-0.056876574
0
-0.07613036
0
-0.0956346
4.4271213e-14
-0.11607391
4.2810865e-14
-0.13885697
-4.1405772e-14
-0.1650144
0
-0.19422686
0
-0.22542183
0
-0.25774409
1.3737178e-17
-0.29117838
0
-0.017684843
0
-0.035490859
0
-0.053555542
-4.7275707e-14
-0.071858989
0
-0.090369892
0
-0.10962752
9.6387139e-18
-0.13062959
4.1377238e-14
-0.15425606
9.1889771e-18
-0.18078249
-7.7407647e-14
-0.209814
0
-0.24054954
0
-0.27237886
0
-0.30553075
-2.6095916e-14
-0.016666179
-7.6741338e-18
-0.033255614
0
-0.050220319
0
-0.067609308
0
-0.085266714
0
-0.1036047
0
-0.12341425
4.1358122e-14
-0.14521098
-3.9998194e-14
-0.16915221
3.8681552e-14
-0.19556572
-3.7390488e-14
-0.22422566
0
-0.25447524
0
-0.28587715
0
-0.31867299
-2.6093589e-14
-0.015695665
0
-0.031125638
2.4410729e-14
-0.047007943
0
-0.063503559
0
-0.08036569
-4.4178882e-14
-0.097930776
0
-0.11683769
0
-0.13733754
3.9969593e-14
-0.15924608
0
-0.18307223
3.7363787e-14
-0.2092851
0
-0.23752193
6.9901307e-14
-0.26727745
0
-0.29830308
6.5323982e-14
-0.3308687
-2.607471e-14
-0.014778387
-2.5221458e-14
-0.029117645
-2.4400594e-14
-0.04396499
0
-0.059597987
0
-0.075684107
0
-0.092526812
0
-0.11062462
0
-0.1300887
0
-0.1505547
3.86247e-14
-0.17219257
0
-0.1959331
-3.6112364e-14
-0.22195893
3.4926959e-14
-0.24974668
1.2080712e-17
-0.2791019
0
-0.30978187
-6.3105282e-14
-0.34201855
0
-0.013909368
2.522024e-14
-0.027228853
2.4398343e-14
-0.04109748
-2.3593023e-14
-0.055908977
2.2818081e-14
-0.071225068
0
-0.087332323
0
-0.10464416
0
-0.12312579
0
-0.14239948
0
-0.16241807
-3.7314899e-14
-0.18407678
3.6084078e-14
-0.20796427
6.8913501e-18
-0.23370446
0
-0.26106814
6.5258978e-14
-0.29000673
0
-0.32032571
0
-0.35234467
0
-0.013083832
7.4301934e-18
-0.025449884
0
-0.038396324
-2.3578048e-14
-0.052432044
0
-0.066991334
2.2056765e-14
-0.082343912
4.2666308e-14
-0.098878569
0
-0.1164002
-3.9879617e-14
-0.13457555
0
-0.15341622
0
-0.17349765
0
-0.19542918
3.4864993e-14
-0.21922744
3.3720406e-14
-0.24459879
5.7255527e-18
-0.27151221
6.3050292e-14
-0.30006337
6.0952256e-14
-0.33003557
0
-0.36179531
0
-0.012298428
0
-0.023774321
-2.4376563e-14
-0.035853339
0
-0.049156474
-2.2806837e-14
-0.062980805
-2.2047906e-14
-0.077565131
2.1317994e-14
-0.093331308
0
-0.1099662
0
-0.12714124
-3.8534878e-14
-0.1449681
0
-0.16385337
0
-0.18419954
0
-0.20618527
6.7377213e-14
-0.22973267
-3.2572853e-14
-0.25467011
0
-0.28117243
0
-0.30932007
-5.88853e-14
-0.33897653
0
-0.37054573
2.6054533e-14
-0.011551761
0
-0.02219764
-6.6869139e-18
-0.033462286
0
-0.046071666
-6.1149684e-18
-0.059185912
5.6990876e-18
-0.072999137
0
-0.088007695
-2.0606775e-14
-0.10381789
0
-0.12006945
3.8510864e-14
-0.13694488
3.724057e-14
-0.15485606
0
-0.17401543
0
-0.19440726
0
-0.21622871
0
-0.2394556
-3.1468801e-14
-0.26399847
0
-0.29009261
0
-0.31788656
0
-0.34720563
0
-0.37854017
0
-0.010841214
0
-0.020716289
2.4371655e-14
-0.031218
2.3564389e-14
-0.043169693
0
-0.05560041
6.6104748e-14
-0.068646259
0
-0.082909427
2.0597977e-14
-0.097942037
-1.9911872e-14
-0.11333379
0
-0.12932943
0
-0.14634539
0
-0.16452353
0
-0.18365101
0
-0.20391299
0
-0.22556765
-3.1445381e-14
-0.24848559
3.0405942e-14
-0.27264394
-2.9399676e-14
-0.29837537
0
-0.32576175
0
-0.35475713
0
-0.38592744
0
-0.0101646
0
-0.019326173
0
-0.029115218
0
-0.040443123
0
-0.052218363
2.2032602e-14
-0.064506765
0
-0.078038455
5.3667062e-18
-0.092330663
1.990291e-14
-0.10690452
-1.9238567e-14
-0.1220708
0
-0.13821864
0
-0.1554724
3.4758105e-14
-0.17358901
0
-0.19252467
0
-0.21271161
-5.7884201e-18
-0.2342387
0
-0.2568531
2.9372647e-14
-0.28066729
0
-0.30600873
5.4914171e-14
-0.33301318
0
-0.36167565
0
-0.39268169
-2.6036283e-14
-0.0095198137
0
-0.01802363
-2.4362797e-14
-0.027148842
2.3561709e-14
-0.03788241
0
-0.049032501
0
-0.060581057
2.1293959e-14
-0.073394275
2.0577635e-14
-0.086979248
-1.9890068e-14
-0.10076287
0
-0.11512007
1.8582267e-14
-0.1304263
0
-0.14674249
3.4732287e-14
-0.16389598
6.5546826e-18
-0.181761
0
-0.20069355
0
-0.2209484
3.0346773e-14
-0.24228998
2.9338658e-14
-0.26460395
-2.8368901e-14
-0.2880717
0
-0.31304485
0
-0.33964259
0
-0.36802764
4.9546594e-14
-0.39891642
0
-0.0089057498
0
-0.01680508
0
-0.025313363
0
-0.035478392
0
-0.046033198
0
-0.05686644
-5.8359107e-18
-0.06897717
5.534667e-18
-0.081884654
1.988765e-14
-0.094903527
-1.9216781e-14
-0.10846699
-3.7149795e-14
-0.12296074
0
-0.13834732
0
-0.15453014
0
-0.17148554
-3.2426389e-14
-0.18937598
0
-0.2084457
-3.0310863e-14
-0.2286352
2.9313247e-14
-0.24973859
2.8339659e-14
-0.27174091
-2.7402865e-14
-0.29487924
0
-0.3194895
-5.1229565e-14
-0.34573445
0
-0.37383162
0
-0.40460753
0
-0.0083231879
-1.2586278e-14
-0.01566676
-3.2859677e-18
-0.023604266
0
-0.033223129
0
-0.043211597
2.2018329e-14
-0.053358294
0
-0.064785786
-5.6235382e-18
-0.077042621
1.9881249e-14
-0.089324715
0
-0.10211036
0
-0.11582273
-1.7941122e-14
-0.13033729
1.733958e-14
-0.145564
0
-0.16160613
0
-0.17859647
5.9132422e-18
-0.19665672
0
-0.21576149
0
-0.23577083
-2.8309184e-14
-0.25658579
0
-0.27828714
2.6472395e-14
-0.30111786
2.5591853e-14
-0.32539745
0
-0.35127154
0
-0.37913799
4.6217496e-14
-0.40985088
-1.3015918e-14
-0.0077723575
1.258499e-14
-0.014604875
0
-0.022015974
-1.1775843e-14
-0.031110166
-2.2771985e-14
-0.040559759
0
-0.050050843
0
-0.060816127
-2.0566603e-14
-0.072447658
-4.8333009e-18
-0.084021679
4.3423814e-18
-0.096049099
0
-0.10901304
-1.7932302e-14
-0.12271407
-1.7326008e-14
-0.13702833
1.6747893e-14
-0.15215509
0
-0.16831294
0
-0.18553373
3.0256951e-14
-0.20365106
0
-0.2225864
5.6561184e-14
-0.24232501
2.7347435e-14
-0.26284905
2.6439783e-14
-0.28426714
2.5568881e-14
-0.30681155
0
-0.33076732
4.7796021e-14
-0.35632762
0
-0.38396751
0
-0.41464314
0
-0.0072523045
0
-0.013615772
-1.2175532e-14
-0.020540406
1.1770895e-14
-0.029130514
-3.3889348e-18
-0.038067812
0
-0.046939371
0
-0.05706224
0
-0.068092675
-1.9865755e-14
-0.078988788
-1.9201305e-14
-0.090280928
0
-0.10252795
0
-0.11547155
-1.7320416e-14
-0.12894517
-1.6737514e-14
-0.14321135
-3.1995605e-18
-0.15855604
0
-0.17499645
3.0222996e-14
-0.19224431
5.3233849e-18
-0.21016692
0
-0.2288471
0
-0.24830712
0
-0.26854993
-2.5540262e-14
-0.28970641
-2.4692262e-14
-0.31198435
2.3876086e-14
-0.33565349
0
-0.3609078
0
-0.38839014
0
-0.41905767
-1.3013777e-14
-0.006761589
0
-0.012693945
-3.287338e-18
-0.019169682
0
-0.027275472
-1.1379982e-14
-0.035724942
0
-0.044015714
-2.126714e-14
-0.053519603
2.0552865e-14
-0.063970477
4.8496578e-18
-0.074219633
0
-0.08480247
1.8543769e-14
-0.096364015
1.79212e-14
-0.10859802
0
-0.12128921
-1.6728077e-14
-0.13474937
0
-0.14930661
0
-0.16497625
-3.020232e-14
-0.1814225
0
-0.19842429
0
-0.21609135
0
-0.2345391
0
-0.25373382
0
-0.27372077
-2.4667006e-14
-0.29463224
2.385074e-14
-0.31666568
0
-0.34008253
4.2963944e-18
-0.36509091
0
-0.39241416
-4.1621392e-14
-0.42309113
0
-0.0062986354
0
-0.011835804
1.2176926e-14
-0.017897114
-3.7859807e-18
-0.025536857
0
-0.033519761
0
-0.041271828
-2.9853566e-18
-0.050182648
0
-0.060072148
0
-0.069706853
-1.9187373e-14
-0.07960924
0
-0.090514781
1.7910937e-14
-0.1020801
1.7308342e-14
-0.11403174
0
-0.12672917
3.2875776e-18
-0.14052686
1.5613471e-14
-0.15543297
1.5085687e-14
-0.17110012
0
-0.18723533
0
-0.20396736
2.72552e-14
-0.22147147
0
-0.23969865
0
-0.25864669
0
-0.27839192
-2.382289e-14
-0.29907652
2.4698574e-18
-0.32090526
-2.2269199e-14
-0.34410543
0
-0.36887348
0
-0.39609232
0
-0.42680144
0
-0.0058581598
0
-0.011038769
0
-0.016715913
-1.1767959e-14
-0.023908759
1.1377968e-14
-0.031442805
-1.0999355e-14
-0.03869683
-1.0631041e-14
-0.047043141
-3.0202159e-18
-0.056388805
1.9859056e-14
-0.065440542
1.9183453e-14
-0.074692765
-1.8533716e-14
-0.084974204
0
-0.095906659
0
-0.10715461
0
-0.11912299
0
-0.13217993
3.2873537e-18
-0.14632209
0
-0.16121769
0
-0.17653107
0
-0.19235053
0
-0.20895777
0
-0.22633211
5.089241e-14
-0.24436096
-2.4603104e-14
-0.26307622
-2.3790518e-14
-0.28259585
2.3004474e-14
-0.3030863
2.2245016e-14
-0.32473011
-1.9898249e-18
-0.34774032
0
-0.37231767
0
-0.3994374
0
-0.43019794
-2.6631856e-05
-0.0063828162
0
-0.010291671
0
-0.015620271
0
-0.022383185
1.1380701e-14
-0.029485934
-1.100132e-14
-0.036280187
-1.0630021e-14
-0.044091761
3.0506081e-18
-0.05291079
-9.9280762e-15
-0.061410502
0
-0.070044714
1.8533866e-14
-0.07973328
-1.7900371e-14
-0.090067713
0
-0.10064286
0
-0.11190737
0
-0.12424055
1.5594096e-14
-0.13761098
3.0133384e-14
-0.15171822
1.455864e-14
-0.16624172
1.4067219e-14
-0.18118875
0
-0.19690124
0
-0.21348546
0
-0.23073628
0
-0.2485606
0
-0.26705478
2.297531e-14
-0.28637608
0
-0.30668955
2.148212e-14
-0.328179
0
-0.35103026
0
-0.37543767
0
-0.40251075
3.7474321e-14
-0.43333065
-4.4462157e-05
-0.0063220795
-7.1038346e-05
-0.011162625
0
-0.014599264
0
-0.020952415
0
-0.02764145
1.1000536e-14
-0.034008866
-1.0632115e-14
-0.041320784
0
-0.04962926
1.9851202e-14
-0.05760806
9.5885404e-15
-0.065655411
0
-0.074781586
0
-0.08455219
1.7290755e-14
-0.094483663
0
-0.10506971
1.6130749e-14
-0.11670402
0
-0.12931197
0
-0.14261822
0
-0.1563681
1.4057278e-14
-0.17053782
-1.3585316e-14
-0.18537337
0
-0.20109079
0
-0.21761619
0
-0.23471001
0
-0.25233059
2.2947537e-14
-0.27062268
0
-0.28976599
0
-0.30992523
0
-0.3312758
-2.0053885e-14
-0.35400749
0
-0.37829195
0
-0.40532985
0
-0.43620969
-5.4605164e-05
-0.0062594267
-0.00011891838
-0.011130614
-0.00010605513
-0.015756841
0
-0.01960636
0
-0.025901582
0
-0.031874359
-1.0628358e-14
-0.03871786
-3.0947525e-18
-0.046536217
0
-0.054023702
9.5892648e-15
-0.061516716
0
-0.070107816
0
-0.079347102
0
-0.088665069
-1.6693622e-14
-0.098598652
0
-0.10956526
-1.5578292e-14
-0.12144582
0
-0.13396949
0
-0.14695855
0
-0.16039721
-1.3570737e-14
-0.17442714
0
-0.1892431
0
-0.20494001
0
-0.2213662
-2.3697793e-14
-0.23828992
0
-0.25571035
0
-0.27381943
-4.2854021e-14
-0.29280355
0
-0.31281904
2.0031888e-14
-0.33406856
0
-0.35670676
0
-0.38089994
0
-0.40794092
-3.4930195e-14
-0.43886527
-5.8166971e-05
-0.0061985912
-0.00014647816
-0.011094104
-0.00017818044
-0.015803676
-0.00014087333
-0.021018148
0
-0.024251749
1.0999239e-14
-0.029869449
0
-0.036273718
3.1116184e-18
-0.04362276
-2.431727e-18
-0.050646718
0
-0.057618619
0
-0.065702391
8.9401779e-15
-0.074439919
0
-0.08317514
0
-0.092483408
0
-0.10281498
0
-0.1140092
1.5037601e-14
-0.12578679
0
-0.13803108
2.3002346e-18
-0.15074801
2.0719517e-18
-0.1640434
-1.3102679e-14
-0.17803409
0
-0.19281088
0
-0.20844638
0
-0.22475835
0
-0.24149832
0
-0.25873604
0
-0.27667949
1.7942892e-18
-0.29551425
-1.603025e-18
-0.31541576
1.9342954e-14
-0.33657408
0
-0.35915486
3.6139018e-14
-0.3833062
0
-0.41034631
0
-0.44130849
-5.623702e-05
-0.0061403967
-0.00015650104
-0.011059516
-0.00022030134
-0.015843688
-0.00023717698
-0.021150225
-0.00017430229
-0.025815303
0
-0.027974601
0
-0.033980504
0
-0.040879757
-9.9215297e-15
-0.047466347
-1.9393585e-18
-0.053951991
0
-0.061555146
8.9450741e-15
-0.069816776
1.7275247e-14
-0.078000986
0
-0.086713162
0
-0.096440335
1.5565701e-14
-0.1069893
0
-0.11806056
-2.6287705e-18
-0.12958676
0
-0.14160241
1.3548463e-14
-0.15419405
1.9173218e-18
-0.16742781
1.2650368e-14
-0.18133634
-1.6007563e-18
-0.19606144
0
-0.21163629
0
-0.22780612
2.2098524e-14
-0.24437319
0
-0.26144056
0
-0.27922776
-1.997914e-14
-0.2979387
-1.9319229e-14
-0.31773254
1.2859657e-18
-0.33882698
-1.8050629e-14
-0.36138094
0
-0.38552103
0
-0.41258603
0
-0.44355166
-4.9866456e-05
-0.0060853337
-0.00015178098
-0.011027249
-0.00023628284
-0.015882388
-0.00029377812
-0.021266276
-0.00029357147
-0.026046617
-0.00020029051
-0.02958234
0
-0.031822105
-1.0268092e-14
-0.038297985
0
-0.044473528
1.9042632e-18
-0.050503964
9.2578403e-15
-0.057654064
0
-0.065464349
8.6378046e-15
-0.073127343
0
-0.081274007
0
-0.090429109
0
-0.10036977
0
-0.11077329
2.626041e-18
-0.12161238
-2.3360344e-18
-0.13295219
-1.3538733e-14
-0.14485538
-1.3081648e-14
-0.15736361
1.7243601e-18
-0.17048986
1.559183e-18
-0.18432363
1.180468e-14
-0.19901459
0
-0.21451654
0
-0.23054713
-2.1335985e-14
-0.24694364
0
-0.26384836
-1.9951079e-14
-0.28150074
0
-0.30009721
1.8652978e-14
-0.31980209
1.143768e-18
-0.34084325
-1.7430172e-14
-0.36341306
-3.3684237e-14
-0.38757791
0
-0.41464825
-3.1427961e-14
-0.44560722
-4.0089858e-05
-0.006034133
-0.00013500971
-0.010997427
-0.00023004156
-0.01591938
-0.00031567026
-0.021371634
-0.00036376693
-0.026246592
-0.00033749749
-0.029941292
-0.00022121498
-0.033420413
-1.0271375e-14
-0.035858972
0
-0.041659516
0
-0.047267239
9.2591478e-15
-0.053984121
-2.2133149e-18
-0.061367243
0
-0.068539563
8.3405389e-15
-0.076152294
-8.05615e-15
-0.084766339
0
-0.094133695
0
-0.10390514
2.6192818e-18
-0.11408859
-1.4010348e-14
-0.12477664
1.3529914e-14
-0.13601432
-1.3069653e-14
-0.14781163
0
-0.16018326
1.5087922e-18
-0.17320198
1.1791155e-14
-0.18702962
-1.3364842e-18
-0.20171527
0
-0.21712041
0
-0.23300438
2.0603527e-14
-0.24923708
0
-0.26599369
0
-0.28352259
1.2708989e-18
-0.30202106
0
-0.32164216
1.0265493e-18
-0.3426634
0
-0.36527052
0
-0.38947305
0
-0.41656392
3.0339663e-14
-0.44746206
-2.7891038e-05
-0.0059877225
-0.00010888325
-0.010970682
-0.00020540075
-0.015954251
-0.00030783295
-0.021466285
-0.00039094196
-0.026423889
-0.00041836126
-0.030255831
-0.00037299947
-0.033912587
-0.00024134926
-0.037389882
0
-0.038996112
9.5848543e-15
-0.044235721
0
-0.050535558
2.2494676e-18
-0.057511061
0
-0.064223634
0
-0.071333325
8.0527854e-15
-0.07943634
-1.7002111e-18
-0.088263423
0
-0.097435797
-1.4498482e-14
-0.10699424
1.400356e-14
-0.11705749
0
-0.12765904
-1.9004138e-18
-0.13876676
1.2618066e-14
-0.15040402
0
-0.162667
1.4064012e-18
-0.17569926
0
-0.18955123
0
-0.20417572
0
-0.2194737
0
-0.23520671
0
-0.25127709
0
-0.26789976
0
-0.28532122
1.7987668e-14
-0.3037255
0
-0.32328776
9.1894808e-19
-0.34430153
0
-0.36696966
0
-0.39123224
0
-0.41830169
0
-0.44913169
-1.4223686e-05
-0.0059468766
-7.5978279e-05
-0.010947544
-0.00016625504
-0.015986569
-0.00027532069
-0.021550278
-0.00038127001
-0.026578636
-0.0004497519
-0.030535313
-0.00046262637
-0.034351842
-0.00040692279
-0.038007581
-0.00025718149
-0.04037376
0
-0.041379643
-9.2576845e-15
-0.047298752
0
-0.053881427
-8.6326041e-15
-0.060165573
8.3364175e-15
-0.066804039
0
-0.074422744
0
-0.082739708
0
-0.091345129
0
-0.10030866
0
-0.10977424
2.154902e-18
-0.11977185
-1.3054098e-14
-0.13022895
-1.6546627e-18
-0.14116781
-1.2178464e-14
-0.15270303
0
-0.16497129
-1.1370412e-14
-0.17804568
1.0989584e-14
-0.19188096
0
-0.20642354
0
-0.22159174
0
-0.23716863
0
-0.25308985
0
-0.26959237
-1.7962108e-14
-0.28691013
1.7367629e-14
-0.30524251
1.6789616e-14
-0.3247578
8.2721113e-19
-0.34578511
0
-0.3685258
0
-0.39283857
0
-0.41989201
1.307174e-18
-0.45060055
-0.0059118032
0
-3.8859215e-05
-0.010928474
-0.0001164173
-0.016016083
-0.00022317119
-0.021623496
-0.00034101361
-0.026711559
-0.0004387294
-0.030778664
-0.00049759572
-0.034741808
-0.00050471237
-0.038556358
-0.00043332867
-0.041101448
-0.00026609759
-0.042553721
0
-0.044250904
0
-0.050464382
0
-0.056351306
-8.3353853e-15
-0.062547551
8.0483358e-15
-0.069710613
0
-0.07754454
0
-0.085613455
-7.2457362e-15
-0.094011426
0
-0.10290564
0
-0.11233142
0
-0.12217817
0
-0.1324585
-1.217011e-14
-0.14329465
1.3676859e-18
-0.15482784
1.3174915e-18
-0.16715437
0
-0.18024309
0
-0.19401849
1.0256319e-14
-0.20845607
0
-0.22349344
0
-0.23891719
1.3131339e-18
-0.25469733
0
-0.27108487
0
-0.28831835
1.6768515e-14
-0.30658857
0
-0.32607528
1.56683e-14
-0.3471368
0
-0.36995568
-2.9254063e-14
-0.39431639
0
-0.42129211
0
-0.45188946
-0.010913422
0
-0.0058828945
1.4084965e-05
-5.9729541e-05
-0.016042459
-0.00015648938
-0.02168547
-0.00027640874
-0.026822292
-0.00039243322
-0.030984999
-0.00048561082
-0.035079769
-0.00054285672
-0.039044945
-0.0005371407
-0.041739146
-0.00044811672
-0.043404416
-0.00027330369
-0.045231731
8.9402111e-15
-0.047230052
0
-0.052768361
0
-0.058551674
8.0489538e-15
-0.065281318
7.7694435e-15
-0.07265984
7.5013265e-15
-0.080221769
7.2437554e-15
-0.088083647
6.9925572e-15
-0.096432576
0
-0.10531554
0
-0.11458856
0
-0.12425105
-1.2161173e-14
-0.13443147
0
-0.14526399
1.1348218e-14
-0.15685079
-1.0964007e-14
-0.16920478
0
-0.18227155
1.0243313e-14
-0.19596941
-9.9028969e-15
-0.21029313
0
-0.22519227
0
-0.24047125
1.7907681e-14
-0.25611574
0
-0.27240414
0
-0.28956151
0
-0.30778735
1.5649508e-14
-0.32727636
1.5125849e-14
-0.3483895
0
-0.37126966
0
-0.39563123
0
-0.42253243
0
-0.4529822
-0.016065229
0
-0.010902611
3.8675691e-05
-0.0058609868
2.7358283e-05
-8.0380741e-05
-0.021735735
-0.00019379785
-0.026910108
-0.00031809016
-0.031153105
-0.00043445961
-0.035363833
-0.00052979034
-0.039471779
-0.00057747994
-0.042306495
-0.00055520391
-0.044147428
-0.00046029566
-0.046240757
-0.00028156211
-0.047993885
0
-0.049381672
0
-0.054805076
0
-0.061119968
7.7700109e-15
-0.068067159
-1.4703761e-18
-0.075151676
0
-0.082506547
1.1616648e-18
-0.090336162
-1.1041383e-18
-0.098704956
0
-0.10743651
0
-0.11651701
0
-0.12608548
-1.1737421e-14
-0.13625552
-1.1337774e-14
-0.14712612
1.0953658e-14
-0.15874963
-1.0583438e-14
-0.17111154
1.0229877e-14
-0.18413104
0
-0.19773566
0
-0.21194258
0
-0.22671629
0
-0.24184755
0
-0.25736571
0
-0.2735642
0
-0.29066157
1.5630278e-14
-0.30886289
1.5108086e-14
-0.32838566
1.4601665e-14
-0.3495549
6.3687853e-19
-0.37246815
0
-0.39680488
0
-0.42358602
2.5416089e-14
-0.45390771
-0.021773895
0
-0.016085081
5.9769292e-05
-0.010895742
7.5267904e-05
-0.0058468719
3.8970966e-05
-9.9528563e-05
-0.026975126
-0.00022299706
-0.031283114
-0.00035220725
-0.035592348
-0.00047400994
-0.039832347
-0.00056340632
-0.042801828
-0.00059658488
-0.04480195
-0.00057026403
-0.047128412
-0.00047431072
-0.049167563
-0.00028671937
-0.049885623
0
-0.051275681
0
-0.057212039
0
-0.063748069
1.4624604e-18
-0.070384982
7.2392603e-15
-0.077262237
0
-0.08459894
-6.7467303e-15
-0.092479907
0
-0.10070022
0
-0.10923029
0
-0.11822339
-1.1727705e-14
-0.12777352
0
-0.13796084
-1.1810438e-18
-0.14886162
0
-0.16050994
0
-0.17287257
1.9750675e-14
-0.1858341
8.6120499e-19
-0.1993353
0
-0.2134332
0
-0.22807297
0
-0.24306309
0
-0.25846285
0
-0.27458541
0
-0.29163158
0
-0.30983918
-6.2563412e-19
-0.32942686
6.259513e-19
-0.3506468
0
-0.37355286
-2.6307918e-14
-0.39782154
0
-0.42449363
0
-0.45465875
-0.027017324
0
-0.021803398
8.0590529e-05
-0.016100874
0.00011655996
-0.010892419
0.00010737898
-0.0058406669
4.8062458e-05
-0.00011450757
-0.031375382
-0.00024690771
-0.035763606
-0.00038426574
-0.04012246
-0.00050396015
-0.043220697
-0.00058174385
-0.045364961
-0.00061268498
-0.047903472
-0.00058766124
-0.050195897
-0.0004829665
-0.051205477
-0.00028804119
-0.05151231
0
-0.053531592
0
-0.059685201
0
-0.065904306
0
-0.072332819
-6.9882477e-15
-0.07920268
0
-0.086621247
-6.5120867e-15
-0.094359059
-8.0342531e-19
-0.1023671
0
-0.11081767
0
-0.11978883
0
-0.12932954
0
-0.13953137
0
-0.15047527
0
-0.16217174
0
-0.17451336
9.5331444e-15
-0.18738342
-9.2156671e-15
-0.2007851
0
-0.21477205
0
-0.22928366
0
-0.24413278
-1.6117286e-14
-0.25942474
0
-0.27547645
0
-0.29249349
1.456763e-14
-0.31073972
-5.8794752e-19
-0.33040834
1.3605738e-14
-0.35166832
0
-0.37453338
-2.5391485e-14
-0.39870979
0
-0.4252288
0
-0.45526281
-0.031427597
0
-0.027042089
9.9750155e-05
-0.021823221
0.00015728966
-0.016110264
0.00016652967
-0.010892549
0.00013255935
-0.0058431693
5.379766e-05
-0.00012676236
-0.035875209
-0.00026934234
-0.040337494
-0.00040846347
-0.043557308
-0.0005201481
-0.045834428
-0.00059725763
-0.048563661
-0.00063133905
-0.051093389
-0.00059841905
-0.052365371
-0.00048531755
-0.052995669
-0.0002892458
-0.053494232
0
-0.055849673
0
-0.06169325
-7.2380236e-15
-0.067702146
1.134234e-18
-0.07413216
6.7431158e-15
-0.081110009
6.5090664e-15
-0.088392114
1.2568565e-14
-0.095905981
6.0660734e-15
-0.10384353
0
-0.1122732
1.131165e-14
-0.12121056
-1.0922971e-14
-0.13074831
0
-0.14099792
-1.0193902e-14
-0.1520089
0
-0.1637292
0
-0.17601803
8.1508365e-19
-0.18879457
0
-0.20209667
-6.1233308e-19
-0.21597619
0
-0.23035475
0
-0.24507314
1.5561791e-14
-0.26025997
0
-0.27625773
0
-0.29326785
1.4063081e-14
-0.3115778
0
-0.33134793
1.3132859e-14
-0.35263692
1.2686946e-14
-0.37540961
0
-0.39944874
0
-0.42582603
0
-0.45571139
-0.03592575
0
-0.031446463
0.00011467865
-0.027048441
0.00019464641
-0.021828965
0.00022484338
-0.016112679
0.00020578826
-0.010895206
0.0001484142
-0.0058556866
5.5297899e-05
-0.00013824478
-0.040474098
-0.0002862628
-0.043808207
-0.000421414
-0.046207736
-0.0005337994
-0.049106802
-0.00061537098
-0.051857056
-0.00064298087
-0.053384165
-0.00060152065
-0.054307519
-0.00048756782
-0.055154171
-0.00029105388
-0.055512844
0
-0.057718335
0
-0.063354118
-6.9856534e-15
-0.069369659
6.742787e-15
-0.075930679
-6.5082645e-15
-0.082780136
6.2813418e-15
-0.089826214
6.0642309e-15
-0.097277797
5.8536808e-15
-0.10520036
0
-0.11357617
1.0915924e-14
-0.1224901
0
-0.13206651
-1.0182513e-14
-0.14238793
0
-0.15346618
-9.5069503e-15
-0.16518667
0
-0.17739767
8.8842301e-15
-0.19007431
0
-0.20328169
-8.3066595e-15
-0.21705296
0
-0.2313083
0
-0.24589151
5.8903185e-19
-0.2609858
0
-0.27694185
0
-0.29396965
1.3575583e-14
-0.31236738
1.3118939e-14
-0.33225488
-2.535084e-14
-0.35353961
-1.2244346e-14
-0.37618278
2.3651389e-14
-0.4000613
0
-0.426273
-2.2044341e-14
-0.45603343
-0.040530433
0
-0.035926367
0.00012683584
-0.031430976
0.00022364959
-0.027030452
0.00027820076
-0.021819761
0.00027797686
-0.01610613
0.00023045156
-0.010900455
0.00015247107
-0.0058783039
5.1657021e-05
-0.00014691639
-0.043970701
-0.00029526803
-0.046482523
-0.000432308
-0.049531001
-0.00054992203
-0.052483929
-0.00062679495
-0.054256252
-0.00064646538
-0.055461655
-0.00060450196
-0.056628069
-0.00049076062
-0.057336714
-0.00029134088
-0.057061862
0
-0.059253688
0
-0.06489854
0
-0.071063265
-6.5057067e-15
-0.077504422
-6.2802447e-15
-0.084109132
-6.0619784e-15
-0.091100319
-1.1702669e-14
-0.0985456
0
-0.10639823
0
-0.11473045
0
-0.12367309
9.7438788e-19
-0.13332162
0
-0.14373065
0
-0.15485902
0
-0.16654672
0
-0.1786588
8.5767225e-15
-0.19123454
-8.2926337e-15
-0.20435085
8.0193519e-15
-0.21802113
-1.5511601e-14
-0.23214542
0
-0.2466039
0
-0.26161141
0
-0.2775446
0
-0.29460762
-1.3104124e-14
-0.31311884
-1.2663461e-14
-0.33312046
-1.2234025e-14
-0.35438279
0
-0.37684652
5.2978368e-19
-0.40054405
0
-0.42660708
1.6776643e-19
-0.45622225
-0.044040127
0
-0.040520524
0.00013821125
-0.035877524
0.00024719055
-0.031371519
0.00031944222
-0.026988354
0.0003439046
-0.021795121
0.00031137468
-0.016088404
0.00023660152
-0.010906971
0.0001422291
-0.0059112861
4.1917699e-05
-0.00015150897
-0.046656783
-0.00030277758
-0.049835835
-0.0004452603
-0.052971479
-0.00056015738
-0.054977991
-0.00063035118
-0.056451931
-0.0006498535
-0.057920562
-0.00060848542
-0.058952187
-0.00049106926
-0.05902402
-0.00028918751
-0.058273359
0
-0.060687887
0
-0.066489102
0
-0.072546116
6.2785927e-15
-0.078736199
6.0593043e-15
-0.085292161
-5.8493018e-15
-0.092288135
5.6845964e-19
-0.099650921
5.4505036e-15
-0.10744093
0
-0.1157946
1.0165302e-14
-0.12480279
0
-0.13454223
0
-0.14504012
0
-0.15619193
0
-0.16780069
8.5630522e-15
-0.17979921
8.2799932e-15
-0.19228137
5.2337771e-19
-0.20531552
7.7425258e-15
-0.21888371
1.4976184e-14
-0.23288416
0
-0.24721716
-1.4003725e-14
-0.26215121
1.3539644e-14
-0.27807088
0
-0.29519402
-1.2649088e-14
-0.31382391
0
-0.33394505
4.7969212e-19
-0.35513687
0
-0.37741128
0
-0.40092158
0
-0.42681012
0
-0.45630436
-0.046727026
0
-0.044032402
0.00014685512
-0.040445065
0.00026921953
-0.035767407
0.00035277399
-0.031267907
0.00039456851
-0.026920745
0.00038521196
-0.021752839
0.00031973119
-0.016058606
0.00022039519
-0.010915876
0.0001151625
-0.0059530001
2.5046806e-05
-0.00015531105
-0.050021272
-0.00031176346
-0.053319002
-0.00045357665
-0.055545016
-0.00056353361
-0.057274237
-0.00063381664
-0.059025794
-0.00065416629
-0.060365795
-0.00060879728
-0.060758581
-0.00048736481
-0.060368067
-0.00028582218
-0.059391938
0
-0.062177929
0
-0.067886369
0
-0.073690134
6.9522497e-19
-0.07983666
-5.8472265e-15
-0.086407406
-1.1287709e-14
-0.093311266
-5.4475859e-15
-0.10059448
0
-0.10840049
0
-0.11681214
0
-0.12590502
-9.4746038e-15
-0.13574902
0
-0.14632005
8.8461331e-15
-0.15744499
-8.5505596e-15
-0.16894167
-8.2664857e-15
-0.18082538
7.993667e-15
-0.19322482
7.7301214e-15
-0.20618185
0
-0.21965243
0
-0.2335258
2.7964284e-14
-0.24774579
3.6596735e-19
-0.2626092
1.3070745e-14
-0.27853479
1.2633899e-14
-0.29572312
1.2209833e-14
-0.31448551
0
-0.33469342
-1.1395725e-14
-0.35581512
0
-0.37787518
2.1255745e-14
-0.40118353
0
-0.42691516
0
-0.45627099
-0.050086645
0
-0.046713498
0.00015143806
-0.043946733
0.0002860228
-0.040289706
0.00038399751
-0.035595825
0.00043530217
-0.031118031
0.00044154763
-0.026826033
0.00039558917
-0.021692301
0.00029783578
-0.016015715
0.00017803058
-0.010926388
6.8623088e-05
-0.0059987338
0
-0.00015987496
-0.053526587
-0.00031760803
-0.055954168
-0.00045644618
-0.057924483
-0.00056670221
-0.059939321
-0.00063797747
-0.061571683
-0.00065435144
-0.062277101
-0.00060405495
-0.062219874
-0.00048169333
-0.061632638
-0.00028233
-0.060567165
0
-0.063488919
0
-0.068953319
0
-0.074714633
-5.844746e-15
-0.080885195
0
-0.087357467
5.4454643e-15
-0.094166156
5.2566963e-15
-0.10146208
-4.3721164e-19
-0.10931965
0
-0.11780203
0
-0.12700085
-9.1437575e-15
-0.13695209
-8.8350206e-15
-0.14755134
8.5386703e-15
-0.15859001
0
-0.1699591
0
-0.1817455
4.8757286e-19
-0.19407179
-7.4627671e-15
-0.20695665
-7.2176107e-15
-0.22033175
0
-0.23408768
0
-0.24819189
1.3052068e-14
-0.26299871
1.261747e-14
-0.27893552
2.96862e-19
-0.29620278
1.1785055e-14
-0.31507153
0
-0.33537392
-1.0997507e-14
-0.35639695
-1.0621449e-14
-0.37824784
0
-0.40134988
0
-0.42691094
0
-0.4561378
-0.053594905
0
-0.050057566
0.00015517446
-0.046615244
0.00029497959
-0.043764777
0.00040792029
-0.040058778
0.00047358797
-0.035362629
0.00048660036
-0.03092159
0.00045298413
-0.026701878
0.00036855378
-0.021610051
0.00024049612
-0.015959898
0.00010577474
-0.010933726
0
-0.0054985861
0
-0.00016286687
-0.056203737
-0.00031970231
-0.05839838
-0.00045906859
-0.060657433
-0.00057034585
-0.062564738
-0.00063804959
-0.063573249
-0.00064916883
-0.063841625
-0.00059700759
-0.063616973
-0.0004758332
-0.062959122
-0.00027837912
-0.06156641
0
-0.064487926
-6.0547564e-15
-0.069908296
0
-0.075700501
-5.6391959e-15
-0.081768073
5.4427147e-15
-0.088133275
1.0507525e-14
-0.09495267
0
-0.10229489
-4.8970385e-15
-0.11020716
0
-0.11878741
0
-0.12810185
0
-0.13810987
0
-0.14867268
8.2421218e-15
-0.15960723
-7.9679996e-15
-0.17086569
0
-0.18256852
4.3565411e-19
-0.19482895
0
-0.20764841
6.9681291e-15
-0.22093434
0
-0.23456892
0
-0.24856979
0
-0.26332408
0
-0.27928389
0
-0.29660947
1.1374763e-14
-0.31559069
-3.383321e-19
-0.33595661
3.3884549e-19
-0.35690285
1.024949e-14
-0.37852354
-1.9791273e-14
-0.40141952
-1.9108109e-14
-0.42682492
-0.0041533495
-0.45173783
-0.056292407
0
-0.05355578
0.00015966475
-0.049933785
0.00030223622
-0.046410632
0.00042074965
-0.043491314
0.00050306845
-0.039755848
0.00052916788
-0.035069353
0.00049858456
-0.030676784
0.00042151486
-0.026545868
0.00029765244
-0.021504238
0.00014279465
-0.01588891
-1.2171583e-14
-0.010061092
0
-0.0059075215
1.301204e-14
-0.00016398116
-0.058693374
-0.00032156196
-0.061177513
-0.00046194474
-0.063340366
-0.0005703299
-0.064642204
-0.00063290693
-0.065226206
-0.00064158656
-0.065353721
-0.00058977164
-0.06507881
-0.00046926149
-0.064100383
-0.0002733956
-0.062265935
-6.054748e-15
-0.065382716
0
-0.070834651
0
-0.076523216
0
-0.082473387
0
-0.088847367
0
-0.095709699
0
-0.1030896
-4.1335517e-19
-0.1110846
0
-0.11977524
0
-0.12915605
0
-0.1391661
0
-0.14966963
0
-0.16050652
0
-0.17167229
0
-0.18330312
3.8736288e-19
-0.19550407
-6.9564589e-15
-0.20826424
-2.8119209e-19
-0.22146354
0
-0.23498396
0
-0.24888253
0
-0.26359522
0
-0.27956744
0
-0.29695472
1.0978464e-14
-0.31601071