/*--------------------------------*- C++ -*----------------------------------*\
| =========                 |                                                 |
| \\      /  F ield         | OpenFOAM: The Open Source CFD Toolbox           |
|  \\    /   O peration     | Version:  v2012                                 |
|   \\  /    A nd           | Website:  www.openfoam.com                      |
|    \\/     M anipulation  |                                                 |
\*---------------------------------------------------------------------------*/
FoamFile
{
    version     2.0;
    format      ascii;
    class       volScalarField;
    location    "100.337729823899352";
    object      p;
}
// * * * * * * * * * * * * * * * * * * * * * * * * * * * * * * * * * * * * * //

dimensions      [0 2 -2 0 0 0 0];


internalField   nonuniform List<scalar> 
9200
(
0.012018768
0.012061599
0.036245457
0.012106512
0.036435297
0.059303228
0.01216581
0.036688935
0.059584609
0.081546817
0.012260655
0.037098608
0.05994493
0.081897257
0.10284276
0.012340625
0.037675945
0.060532981
0.082350279
0.10322253
0.12326296
0.012433375
0.038372598
0.061350671
0.083097228
0.10371971
0.12363477
0.14283415
0.012487668
0.03923877
0.062328045
0.08414322
0.10455027
0.1241248
0.14315564
0.16161639
0.012514567
0.040201233
0.063516594
0.085420204
0.10573822
0.12496474
0.14357887
0.16184596
0.17967368
0.012479338
0.041276053
0.064814664
0.08698708
0.10722609
0.12620588
0.14433905
0.16214064
0.17977273
0.19708008
0.01237858
0.042396851
0.066193824
0.088737641
0.10909395
0.12781021
0.14551844
0.16272692
0.17987919
0.19701506
0.21391168
0.012203533
0.043528163
0.067537372
0.090632529
0.11125081
0.12988999
0.14710327
0.16371882
0.18019867
0.19687913
0.21365476
0.23023567
0.011957991
0.044612387
0.068734643
0.09253228
0.11367364
0.1323873
0.14923986
0.16512649
0.18087736
0.19684683
0.21323111
0.22977232
0.24614287
0.011655375
0.045601365
0.069634566
0.094289653
0.11623423
0.13531936
0.1519109
0.16712339
0.18194346
0.19709728
0.21277508
0.22902759
0.24545
0.26174386
0.01133727
0.046448627
0.070055306
0.095696465
0.11879152
0.13860508
0.15518269
0.16972803
0.18358917
0.19766899
0.21250008
0.22809139
0.24435825
0.26076109
0.27693279
0.011049248
0.047137492
0.06978626
0.096496595
0.1211314
0.14215465
0.1590398
0.1730468
0.18585557
0.19876591
0.21244834
0.22721547
0.24290143
0.25930262
0.27575426
0.2918603
0.010829732
0.047677352
0.06859253
0.096383007
0.12298037
0.14580779
0.16347198
0.17711835
0.18887013
0.20043797
0.21283172
0.22644047
0.24137046
0.25730274
0.27393375
0.2905059
0.30668303
0.010715401
0.048121447
0.066203845
0.094994197
0.12399344
0.14934305
0.16842097
0.18199937
0.19269686
0.20281554
0.21369936
0.22598711
0.23980198
0.25508423
0.27138047
0.28831257
0.30503792
0.32127972
0.010716518
0.048561018
0.062381206
0.09189691
0.12374764
0.15245221
0.17379057
0.18772193
0.19742092
0.20596261
0.21517458
0.22590032
0.23842885
0.25267393
0.26846831
0.28521243
0.30249932
0.31940068
0.33568479
0.010773171
0.049104259
0.056893639
0.086650257
0.12173452
0.15471817
0.17942194
0.19430712
0.20311025
0.20995888
0.21730574
0.22629332
0.23729471
0.25033298
0.26517431
0.28157697
0.29886075
0.31653397
0.33362748
0.34989986
0.011035723
0.049964119
0.049403685
0.079130887
0.11734703
0.15559095
0.18507058
0.20175045
0.20982896
0.2148621
0.22014698
0.22719429
0.23650598
0.24810259
0.26184934
0.27744585
0.29452388
0.31238154
0.33045
0.34773645
0.36401734
0.011850168
0.051470783
0.039674964
0.068023745
0.10985913
0.15436669
0.19037408
0.21000743
0.21762678
0.2207214
0.22372264
0.22862576
0.23607752
0.24609273
0.25850073
0.27310345
0.28954285
0.3073681
0.32581985
0.34427479
0.3617297
0.37809512
0.013675416
0.052839822
0.027193767
0.052973622
0.098237814
0.15012291
0.19482981
0.21897259
0.22652549
0.22756823
0.22804185
0.23056972
0.23600787
0.24431986
0.25526402
0.26862601
0.28419104
0.3015485
0.32016278
0.33921036
0.35802593
0.37560598
0.39201355
0.016969932
0.052995
0.012462636
0.033545453
0.081509784
0.14153231
0.19768393
0.22844964
0.23650112
0.23540167
0.23309524
0.23298439
0.23624175
0.24277878
0.25217519
0.26416473
0.27857909
0.29519556
0.3135313
0.33295362
0.35257788
0.37171385
0.38937678
0.40568662
0.021578614
0.050919576
0.00054790446
0.011368902
0.059861513
0.12760014
0.19784092
0.23806075
0.24744394
0.2441725
0.23884627
0.23580631
0.2366866
0.24139784
0.24924743
0.25979256
0.27288999
0.2884441
0.30619215
0.32555019
0.34577737
0.36594084
0.38534066
0.40304856
0.41917557
0.026995927
0.047734564
-0.0067578243
-0.014065087
0.033085612
0.10819351
0.1944486
0.24722152
0.25910859
0.253742
0.24522454
0.23895277
0.23722473
0.24005539
0.24642816
0.25556339
0.26724348
0.2815087
0.29829711
0.3172505
0.33765633
0.35866106
0.37930965
0.39888993
0.41659069
0.43251994
0.035268317
0.045087549
-0.011582205
-0.041116906
-0.00097937238
0.082316632
0.18643567
0.25517227
0.27109514
0.26385399
0.25210377
0.24232335
0.23770781
0.23860526
0.2436095
0.25147496
0.26175245
0.27456
0.29008426
0.3082139
0.32843609
0.34989259
0.37162479
0.39268276
0.41235785
0.42999392
0.44569268
0.047361556
0.040861568
-0.014244414
-0.064909874
-0.037668543
0.052731035
0.17237628
0.26062783
0.28261213
0.27410144
0.25926991
0.24580459
0.23796269
0.23684045
0.24065412
0.24747993
0.25648931
0.26777667
0.28177085
0.29868874
0.31827295
0.3398101
0.36229165
0.38468347
0.40604815
0.42573438
0.44323733
0.45865634
0.061718037
0.033744853
-0.013426351
-0.085128508
-0.072175294
0.023720946
0.15266194
0.26219439
0.2920392
0.28373788
0.26639816
0.24922469
0.23780483
0.23452386
0.23735021
0.24348307
0.25149154
0.26131665
0.27359694
0.2889269
0.30740872
0.3285548
0.3514272
0.37487701
0.3978391
0.41940067
0.43900226
0.4563015
0.47139591
0.076256767
0.027023341
-0.0084407615
-0.10038405
-0.10270959
-0.0040237017
0.12762607
0.25909442
0.29751604
0.29134651
0.27294403
0.25239339
0.23701473
0.2314338
0.23347059
0.23933952
0.24675647
0.25531619
0.26580315
0.27921644
0.2961119
0.31634464
0.33913924
0.36333142
0.38766809
0.41107229
0.43272196
0.4521407
0.46916617
0.48389246
0.090277935
0.024418829
-1.1232923e-05
-0.10971674
-0.12762354
-0.029170536
0.097827614
0.25201977
0.29799443
0.29517051
0.27801716
0.25503014
0.23538635
0.22718134
0.22872247
0.23487082
0.24224434
0.24988714
0.25862292
0.26986677
0.28469898
0.3034427
0.32560575
0.35010108
0.37555366
0.40067401
0.42437024
0.44598922
0.46512677
0.48181108
0.49612859
0.10457005
0.02736534
0.010774496
-0.11268786
-0.14542041
-0.050951545
0.068221754
0.24144204
0.29308956
0.29394103
0.28047555
0.25681779
0.23262833
0.22142199
0.22273139
0.22978604
0.237861
0.24510963
0.25227907
0.26119372
0.27352654
0.29016944
0.31106165
0.33530339
0.3615032
0.38811574
0.41387409
0.43771447
0.45917613
0.47793647
0.49421695
0.50808764
0.11936519
0.03575621
0.025590155
-0.11003029
-0.15627266
-0.068013541
0.046174581
0.22737962
0.28258726
0.28709179
0.2792066
0.25724621
0.2284984
0.21366295
0.2151022
0.22376191
0.23343328
0.24101721
0.24696839
0.25351334
0.26297
0.27690272
0.29580354
0.31912565
0.34554378
0.3733917
0.40103431
0.42724007
0.45107751
0.47225413
0.49054575
0.50636575
0.51975569
0.13431072
0.047041332
0.044656263
-0.10000838
-0.16038627
-0.080132973
0.033160942
0.20961254
0.26718829
0.27492784
0.27430432
0.25586817
0.22275163
0.20326814
0.20533544
0.21649006
0.22875462
0.2376034
0.24285145
0.247119
0.25341488
0.26405064
0.28020162
0.30181198
0.32779407
0.35641868
0.38580048
0.41429664
0.44075273
0.46442685
0.48519339
0.5029312
0.51823998
0.53112037
0.14818407
0.061690939
0.068045551
-0.083555127
-0.15643379
-0.087120058
0.027352244
0.18967502
0.24776521
0.2577158
0.26355657
0.25208472
0.21520408
0.18938582
0.19276537
0.20740105
0.22355887
0.23479943
0.24004192
0.2422639
0.24522469
0.25204162
0.26466708
0.28369272
0.30842206
0.3372184
0.36799532
0.39875395
0.42785839
0.45438428
0.47772541
0.49796366
0.51507065
0.5298241
0.54217118
0.15950497
0.081452729
0.093278601
-0.060253578
-0.14699734
-0.089760075
0.027178365
0.16994426
0.22614402
0.23627368
0.24828112
0.24554894
0.20597108
0.17089987
0.17655122
0.19584263
0.21734657
0.23244527
0.23858498
0.2391376
0.23871448
0.24128492
0.24964379
0.26515012
0.28768395
0.31586085
0.34752973
0.38031824
0.41224615
0.44171965
0.46808664
0.49093419
0.5105353
0.52694367
0.54110466
0.5528997
0.16689145
0.10368989
0.11709811
-0.032130133
-0.12908555
-0.090006357
0.030265888
0.15045526
0.20502493
0.21184477
0.22890327
0.23551089
0.19502347
0.14624613
0.15552348
0.18101117
0.20944585
0.23023502
0.23841292
0.2378334
0.23411591
0.23213543
0.23556436
0.24661384
0.26589685
0.29249802
0.32434112
0.35882402
0.39341768
0.42618669
0.4558045
0.48180955
0.50401371
0.52288009
0.53853195
0.5520704
0.56329961
0.16910044
0.1250806
0.13981876
0.00010282309
-0.10415871
-0.081566583
0.036521724
0.12626912
0.18452837
0.18536182
0.20625268
0.22226527
0.18079648
0.11316297
0.12800726
0.16164128
0.19890483
0.22768474
0.23934406
0.23831414
0.23153858
0.2248486
0.22281005
0.22851691
0.24344148
0.26734071
0.29845102
0.33404585
0.37116064
0.40728453
0.44057685
0.47005901
0.49550176
0.51692535
0.53497197
0.54981953
0.56271234
0.57336655
0.16508448
0.1437392
0.16396595
0.03504661
-0.073212491
-0.065394238
0.046365627
0.10607568
0.15600979
0.16045426
0.18138343
0.20656309
0.16288599
0.076506931
0.093898597
0.13668647
0.18418824
0.22404177
0.24100928
0.24037299
0.23093796
0.21953861
0.21165917
0.21125562
0.22072228
0.24067804
0.26992552
0.30583617
0.34510817
0.38457758
0.42184143
0.45534191
0.48441942
0.50911139
0.52963238
0.54678747
0.56079303
0.57302373
0.58309818
0.15455236
0.15902237
0.18578556
0.070963542
-0.038129508
-0.043512213
0.05879567
0.087154279
0.13271403
0.12931416
0.15802132
0.18852162
0.13897859
0.041533052
0.053665236
0.10720759
0.16372181
0.21819998
0.24271537
0.24391512
0.23208259
0.21614034
0.20224062
0.19513694
0.19813459
0.21284673
0.23890999
0.2740821
0.31490408
0.3576097
0.39907045
0.43704125
0.47040574
0.4988184
0.52258763
0.54210078
0.55830603
0.57144164
0.58300012
0.59249394
0.17025878
0.13817193
0.20518775
0.10481054
-0.0012232378
-0.018065798
0.071986512
0.071148467
0.10801363
0.10152166
0.13141803
0.16752416
0.11327031
0.0088332196
0.0057934773
0.068368232
0.13617654
0.20882893
0.243572
0.2477638
0.23452511
0.214381
0.19449534
0.18032989
0.17601515
0.18420998
0.20561867
0.23873208
0.28021054
0.32583503
0.37159884
0.41454276
0.45279313
0.4856804
0.5131873
0.53588212
0.55429981
0.5695102
0.58175727
0.59263913
0.601555
0.22078711
0.17753118
0.11746425
0.13452743
0.035070428
0.0089367703
0.08467124
0.059708039
0.086107927
0.071956838
0.10624852
0.14456533
0.088267483
-0.023377371
-0.044302146
0.020009325
0.10268887
0.19437559
0.24222238
0.25130055
0.23747079
0.2137636
0.18815309
0.16682708
0.15459641
0.15511976
0.17033048
0.19980753
0.24072527
0.28864944
0.33873741
0.38706042
0.43091315
0.46899638
0.501074
0.52745877
0.54894999
0.56620249
0.58038591
0.59173446
0.60194044
0.61028392
0.15936909
0.23173475
0.18173062
0.094363377
0.06992706
0.037821824
0.096284394
0.053351972
0.068163478
0.044034793
0.077969169
0.12201967
0.071760493
-0.060388214
-0.092733374
-0.032176034
0.066516596
0.17418453
0.23652986
0.25329906
0.23991545
0.21358021
0.18272932
0.15442561
0.13397048
0.12587893
0.13336923
0.15742427
0.19620229
0.24543257
0.29964054
0.35367235
0.40385219
0.44805445
0.48553022
0.51649394
0.54156872
0.56175078
0.57778609
0.59092259
0.60137016
0.61090515
0.61868451
0.10247543
0.17999621
0.23854801
0.18423811
0.070004155
0.069089071
0.10829201
0.055353115
0.055494887
0.018330079
0.047576311
0.096725619
0.058346567
-0.08897463
-0.14288578
-0.084797407
0.028115404
0.14849142
0.22506009
0.25142329
0.24226708
0.21293592
0.17755174
0.14272996
0.1140711
0.096712584
0.095084061
0.11179644
0.14649096
0.19559196
0.25330876
0.3133416
0.37058964
0.42187239
0.46582596
0.50226905
0.53184988
0.55545803
0.57424943
0.58903252
0.60111271
0.61066298
0.61953579
0.62676186
0.099913997
0.13023182
0.19622663
0.24260001
0.18556161
0.045167904
0.12177641
0.065206952
0.046268441
-0.0045105083
0.018207837
0.068400514
0.045067006
-0.11785078
-0.18189988
-0.13790973
-0.014529101
0.11722178
0.20760791
0.24409207
0.24009497
0.2108404
0.17178883
0.13118662
0.094676916
0.067750338
0.055835411
0.063245458
0.091567387
0.13859434
0.19872018
0.26467495
0.32985253
0.38922316
0.44094176
0.48405985
0.51908766
0.54705681
0.56907432
0.58641699
0.5999277
0.61095073
0.61961292
0.62783657
0.63452271
0.13555116
0.12608898
0.15251183
0.20924143
0.24512835
0.18604794
0.021778696
0.07812688
0.039536845
-0.023274678
-0.0084707178
0.039358254
0.032060323
-0.1386451
-0.22716328
-0.18284074
-0.056919836
0.082272948
0.18473248
0.23084421
0.23322047
0.20576512
0.16452179
0.11912871
0.075449322
0.039024996
0.015982044
0.012216497
0.031589506
0.074007004
0.13483602
0.20619733
0.2797507
0.34909125
0.40964708
0.46084217
0.50258377
0.5358655
0.56203799
0.58237323
0.59822989
0.61045997
0.62043266
0.62822258
0.63581439
0.64197487
0.093099224
0.14967803
0.14760701
0.17039863
0.22046103
0.24686257
0.18583119
0.001193005
0.035673478
-0.03759094
-0.030121338
0.01410443
0.020403878
-0.15344282
-0.26285
-0.23915077
-0.095658716
0.046703134
0.15970849
0.21250725
0.22064777
0.19667907
0.1547596
0.10586337
0.055972806
0.010505757
-0.024118828
-0.04071595
-0.033040665
0.0016124661
0.060610032
0.13625544
0.21849778
0.29862957
0.37048435
0.43136724
0.48133837
0.5212288
0.55249178
0.57672714
0.59531759
0.6096676
0.6206195
0.62955851
0.63649915
0.6434776
0.64912532
0.034761991
0.10928403
0.16356628
0.16535271
0.18496178
0.22906689
0.2485147
0.18534846
-0.017615778
-0.046063892
-0.045227059
-0.003717468
0.010322779
-0.16350452
-0.29236584
-0.28898713
-0.14799265
0.0020806771
0.13313383
0.19193766
0.20346425
0.18222667
0.14173571
0.090705441
0.03584194
-0.017883485
-0.064098863
-0.094835626
-0.10163493
-0.078467798
-0.024827972
0.052953615
0.14372887
0.23600089
0.32102222
0.39402335
0.45412071
0.50219505
0.53983643
0.56886917
0.59106759
0.60787424
0.62071201
0.63040245
0.63833583
0.64445212
0.65083168
0.65597881
-0.04821861
0.036776243
0.12596072
0.17679354
0.18049358
0.19991984
0.23656843
0.25120587
0.18446505
-0.034948212
-0.053719758
-0.013362616
-0.002237595
-0.16662158
-0.31343925
-0.33303621
-0.20230624
-0.048338221
0.089896313
0.17062543
0.18118517
0.16288043
0.12454694
0.073154316
0.014676013
-0.046185416
-0.10359034
-0.14928937
-0.1731698
-0.16568518
-0.12202825
-0.045543902
0.052546216
0.15797262
0.25864397
0.34650897
0.41929086
0.47758946
0.52318751
0.55826505
0.58491318
0.60500829
0.62001344
0.63135369
0.63981657
0.64677563
0.6520839
0.6578765
0.66254194
-0.055399767
-0.044344279
0.04220978
0.14241658
0.18939047
0.1940144
0.21456923
0.24484145
0.25542695
0.18808373
-0.052301898
-0.016935495
-0.018155665
-0.16113666
-0.32387187
-0.36639991
-0.2534143
-0.092686052
0.046358998
0.12916436
0.16039113
0.13632767
0.10294946
0.052725658
-0.0077222483
-0.074437117
-0.14216225
-0.20309319
-0.24624486
-0.25883721
-0.23103361
-0.16098637
-0.058186912
0.060846098
0.17946401
0.28579883
0.37459254
0.44582828
0.50145665
0.54411084
0.57639022
0.60054729
0.61850311
0.63171782
0.6416003
0.64887466
0.65487536
0.6593844
0.66461655
0.66883198
-0.015392222
-0.050769167
-0.033880984
0.05035754
0.15813135
0.2014823
0.20661328
0.22654806
0.25374587
0.26021817
0.19913705
-0.067428417
-0.030865407
-0.14666811
-0.32137215
-0.38612167
-0.29399033
-0.13079256
-0.002424512
0.091640715
0.12408957
0.10974273
0.075606715
0.029514024
-0.031596371
-0.10249925
-0.17942172
-0.2551475
-0.31908518
-0.35601899
-0.35079636
-0.29463617
-0.19203778
-0.060208535
0.079137634
0.20790036
0.31697472
0.40475664
0.47317122
0.52542629
0.56478276
0.59409893
0.61570255
0.63152343
0.64299417
0.65146644
0.65756729
0.6626101
0.66635329
0.67108068
0.67515755
-0.034327501
-0.0093112822
-0.039532052
-0.017912903
0.060830174
0.17238002
0.2132959
0.21887048
0.23779641
0.26428873
0.26625822
0.2125601
-0.078777352
-0.1235659
-0.30453633
-0.38934769
-0.32059732
-0.16615171
-0.05013661
0.043777109
0.092650551
0.073673597
0.046261848
0.0024583473
-0.056512318
-0.13039945
-0.21480687
-0.30445226
-0.38967718
-0.4547284
-0.47947014
-0.44672434
-0.35249529
-0.21111593
-0.048974824
0.10759466
0.2424718
0.35145211
0.43634476
0.50088472
0.54923102
0.58503788
0.61129007
0.63033434
0.64407384
0.65385883
0.66093335
0.66584946
0.6699735
0.67304272
0.6775393
0.68161975
-0.093018644
-0.025228463
0.00093961199
-0.022508212
0.0028024697
0.073648467
0.18518858
0.2245242
0.23095755
0.24856737
0.27620255
0.2725981
0.22546472
-0.08616224
-0.27304932
-0.37426629
-0.33119617
-0.19451357
-0.095405386
-0.0083904153
0.045741195
0.05359596
0.011430638
-0.025683952
-0.083258649
-0.15747745
-0.24811901
-0.34987719
-0.45599981
-0.55183502
-0.61367467
-0.61656233
-0.54281265
-0.39916918
-0.21301792
-0.023089115
0.14505095
0.28197881
0.38827656
0.46871033
0.52857319
0.57262897
0.60472943
0.62789626
0.6444429
0.65617172
0.66428078
0.66992991
0.67370673
0.67705356
0.67969556
0.68406733
0.6880432
-0.2287235
-0.055788594
-0.0040721876
0.015184399
-0.00042213231
0.027273475
0.088185381
0.19733855
0.234938
0.24278027
0.2579813
0.28772053
0.28021905
0.23889683
-0.089028605
-0.34129412
-0.32416863
-0.21176577
-0.13562846
-0.064249967
-0.0089626648
0.0057651765
-0.013620038
-0.055369977
-0.10879188
-0.18463417
-0.27835428
-0.39098885
-0.515965
-0.64399529
-0.74872805
-0.79980802
-0.76402447
-0.6318884
-0.42506138
-0.1931188
0.016221216
0.19053323
0.32525196
0.42648937
0.50126655
0.55588097
0.5954079
0.62375755
0.64390978
0.65804539
0.66777025
0.67415617
0.67843181
0.68127514
0.68407085
0.68631541
0.6905822
0.6944197
-0.29330782
-0.17359758
-0.014571304
0.024675574
0.034003521
0.025829044
0.05456923
0.1028924
0.20903397
0.24428038
0.25388982
0.26677332
0.29925473
0.28993489
0.25338329
-0.0861877
-0.2992119
-0.21902555
-0.16894969
-0.12011758
-0.072211175
-0.055096838
-0.054444417
-0.074495596
-0.13136418
-0.20834695
-0.3067838
-0.42622789
-0.56864117
-0.72754051
-0.88017966
-0.99206343
-1.0173212
-0.91700183
-0.70000983
-0.41964239
-0.15068352
0.069487934
0.24196624
0.37088529
0.46521877
0.53348926
0.58250088
0.61742101
0.64210066
0.65934514
0.67107479
0.67872534
0.68344873
0.68663771
0.68876436
0.69090807
0.69295568
0.69706695
0.70074453
-0.25845123
-0.23379112
-0.11281248
0.02885359
0.055534965
0.056597345
0.055953001
0.082959789
0.11713052
0.21988055
0.25295199
0.2640585
0.27672515
0.31085907
0.30218409
0.2718766
-0.076296384
-0.21438166
-0.18556979
-0.17347888
-0.13924713
-0.12977487
-0.11529413
-0.10797154
-0.13912765
-0.22507974
-0.32910791
-0.45758755
-0.61175227
-0.79995587
-1.00214
-1.1843163
-1.3030437
-1.27372
-1.0653343
-0.72997504
-0.3803548
-0.091040336
0.13128121
0.29720529
0.4175429
0.50369096
0.5649337
0.60821769
0.63862359
0.65976657
0.67411011
0.68333907
0.68898697
0.69243531
0.69475085
0.69588444
0.69779723
0.6995832
0.70351626
0.707012
-0.19320233
-0.20667428
-0.16917371
-0.0516483
0.072552846
0.085887337
0.081056696
0.086909736
0.11063098
0.1328036
0.22950472
0.26102626
0.27362294
0.28851934
0.32278169
0.31292631
0.29298744
-0.058547312
-0.18608433
-0.21792077
-0.20665343
-0.21780591
-0.19416667
-0.16068826
-0.15848094
-0.22061381
-0.34030615
-0.47893097
-0.64864168
-0.8575206
-1.1098967
-1.3640153
-1.59745
-1.6854653
-1.5387678
-1.1588504
-0.70541482
-0.31165003
-0.017029254
0.19900237
0.35421873
0.46406628
0.54126199
0.59528614
0.63294931
0.65900997
0.67663202
0.68795702
0.69477311
0.69892733
0.70132357
0.70224977
0.70309469
0.70468216
0.706194
0.70992134
0.71321681
-0.17853879
-0.15909442
-0.15091914
-0.10352575
0.0058275706
0.11506232
0.11567466
0.1060627
0.1176132
0.13698171
0.15094574
0.23782647
0.26888684
0.28351614
0.30130088
0.33531443
0.32438796
0.31353294
-0.033733132
-0.24741069
-0.27260178
-0.31840458
-0.2918108
-0.23194296
-0.19331077
-0.22578624
-0.32179114
-0.48480668
-0.6697491
-0.90403948
-1.1970033
-1.5284242
-1.8751571
-2.1280616
-2.0612957
-1.6734466
-1.1360477
-0.62476978
-0.2217158
0.067277299
0.26970935
0.41125318
0.50951115
0.57747711
0.62440571
0.65666624
0.67841952
0.69238754
0.70080535
0.70586241
0.70876382
0.7092924
0.70988142
0.71030553
0.71156367
0.71277515
0.71627421
0.7193536
-0.25575759
-0.16244704
-0.11842639
-0.093522189
-0.040370555
0.058419162
0.15395111
0.14539818
0.13085303
0.14558609
0.16243035
0.16861788
0.24625568
0.27680507
0.29381832
0.31443603
0.34836716
0.34120706
0.33527132
-0.0043476636
-0.33333481
-0.4255216
-0.4166269
-0.32195616
-0.24142203
-0.2433836
-0.31271554
-0.44789053
-0.67103375
-0.92574346
-1.2637056
-1.6679772
-2.1348143
-2.5836891
-2.6242037
-2.2943063
-1.7004761
-1.070854
-0.52104283
-0.11625249
0.15697958
0.34070186
0.46692129
0.55321611
0.61210371
0.65222315
0.67916404
0.69647781
0.70693877
0.71327113
0.71683968
0.71730248
0.71744289
0.71751131
0.71752551
0.71842523
0.71931612
0.72256659
0.72541693
-0.38155002
-0.24353828
-0.13787813
-0.074536625
-0.03725609
0.01798596
0.10619826
0.18636004
0.17437901
0.15431664
0.1710142
0.18065879
0.189378
0.25432585
0.28488381
0.30441291
0.32773611
0.36189204
0.35949708
0.35728909
0.024338265
-0.52734344
-0.54194652
-0.42778416
-0.30169761
-0.26971075
-0.31546708
-0.4213475
-0.60991826
-0.91981278
-1.2951407
-1.7720761
-2.361422
-2.9598091
-3.1777571
-2.9240149
-2.3178986
-1.6242022
-0.95610709
-0.39537321
-0.00095998473
0.24718084
0.40992883
0.52028529
0.59481549
0.64500585
0.67848433
0.70000606
0.71308156
0.72104651
0.72560018
0.72605962
0.72607892
0.7255806
0.72515969
0.72473344
0.72525486
0.72580545
0.72879109
0.7314013
-0.6135325
-0.41484386
-0.22150185
-0.10622222
-0.031705045
0.014638333
0.068270942
0.14604398
0.2095195
0.19954573
0.17525035
0.18819958
0.19834576
0.20970524
0.26289683
0.29320803
0.31507966
0.34098486
0.37560466
0.37822371
0.37707882
0.052633035
-0.66763547
-0.54185126
-0.37630877
-0.30264134
-0.32411356
-0.40825922
-0.56081535
-0.82559266
-1.2708073
-1.8391083
-2.5201608
-3.2547665
-3.6670376
-3.5304527
-2.9231626
-2.1328167
-1.3875217
-0.75421632
-0.24319551
0.11448519
0.33460539
0.47599785
0.57082001
0.63407438
0.6758761
0.70270427
0.71908984
0.72914329
0.73495799
0.73562229
0.73557938
0.73482097
0.73374244
0.73280011
0.73191617
0.73203888
0.73223224
0.73494186
0.73730184
-0.77527443
-0.67549598
-0.4333996
-0.19919291
-0.073148618
0.0062797643
0.058191346
0.10973443
0.17748454
0.22634785
0.21805864
0.19161828
0.20347698
0.21322218
0.22828308
0.27165813
0.30159589
0.3256428
0.3538882
0.38891367
0.39577348
0.3918538
0.081337732
-0.65771769
-0.45783429
-0.34106323
-0.33611714
-0.39971983
-0.52866454
-0.74590381
-1.1281678
-1.7792668
-2.6145214
-3.4689918
-4.0688765
-4.0769376
-3.5199238
-2.6549877
-1.787594
-1.0870437
-0.53628419
-0.089330507
0.22592618
0.41715738
0.53811448
0.6181578
0.6706316
0.704219
0.72479939
0.73747336
0.74488113
0.74591987
0.7460111
0.74502883
0.74358801
0.74189576
0.74041906
0.73905773
0.73876461
0.73858667
0.7410119
0.74311522
-0.75511884
-0.84968843
-0.70294108
-0.43450559
-0.17765606
-0.0425958
0.039113327
0.093657658
0.14272019
0.20194524
0.23648802
0.23112528
0.20568786
0.21559403
0.22691503
0.24378732
0.28047008
0.309902
0.3358481
0.36602458
0.40109849
0.4104638
0.3995785
0.10589233
-0.53763703
-0.38121295
-0.35064535
-0.39223786
-0.50097463
-0.68829864
-1.0026542
-1.5760955
-2.4711435
-3.6153815
-4.3384966
-4.5245683
-4.0707426
-3.1972112
-2.2172463
-1.3886376
-0.78448938
-0.32148668
0.059774107
0.33091502
0.49381506
0.59576543
0.66184345
0.70404955
0.73000379
0.74594404
0.75528736
0.75693968
0.7573148
0.75627646
0.75449712
0.75233988
0.75002754
0.74799866
0.74614367
0.74542141
0.74485703
0.74699144
0.74883869
-0.60139077
-0.81668492
-0.87677521
-0.69833695
-0.41729933
-0.15557307
-0.015690254
0.065965428
0.12052679
0.16516503
0.20417536
0.24543984
0.2383936
0.21824464
0.22652819
0.23886906
0.25690342
0.28897815
0.31793694
0.34539172
0.37687651
0.41127565
0.42079369
0.40298431
0.12305681
-0.4153901
-0.36555659
-0.38554586
-0.47299157
-0.63653852
-0.90552466
-1.3844877
-2.2165955
-3.3521022
-4.522378
-4.8246353
-4.5133302
-3.7039505
-2.6796061
-1.7287627
-1.0065736
-0.50590814
-0.12230408
0.19977889
0.42796445
0.56431946
0.64840118
0.70153669
0.73440399
0.75444609
0.76607827
0.76862722
0.76948729
0.76851132
0.76654546
0.76393532
0.76106509
0.75811845
0.75552335
0.7531622
0.75199322
0.75103265
0.75287486
0.75446785
-0.44155773
-0.63811959
-0.82968268
-0.85804467
-0.66491291
-0.38743397
-0.1335592
0.0068664421
0.086015856
0.13803883
0.17852138
0.21926438
0.24878327
0.24364414
0.22927687
0.23620258
0.24916241
0.26793563
0.29695397
0.32545581
0.35391057
0.38584884
0.41846897
0.425625
0.40272975
0.13319531
-0.37718959
-0.3780532
-0.44530241
-0.58390773
-0.81968304
-1.218878
-1.9572574
-3.0261337
-4.2487002
-5.0193637
-4.8413059
-4.1169699
-3.1114147
-2.101421
-1.2696394
-0.67203608
-0.26172545
0.057768867
0.32734889
0.51683689
0.62846127
0.69579007
0.73750453
0.7627939
0.77711661
0.78092109
0.78248459
0.78173545
0.77968375
0.77675906
0.77333501
0.76974344
0.76615249
0.76298079
0.7600922
0.75846438
0.75711145
0.75865633
0.75999942
-0.37942756
-0.46234222
-0.64090825
-0.79704213
-0.80039448
-0.60925206
-0.34810677
-0.11231105
0.024504039
0.09924133
0.14847455
0.19267852
0.22745647
0.25175563
0.24645396
0.2369259
0.24441785
0.25791938
0.27720254
0.30417512
0.33217851
0.36099076
0.39229593
0.42172711
0.424191
0.39533199
0.13783451
-0.36645654
-0.41686477
-0.53192231
-0.73484376
-1.0755726
-1.6897312
-2.6852089
-3.9741847
-4.8513445
-5.0720363
-4.4648567
-3.4768826
-2.4547079
-1.5629497
-0.87569674
-0.38950079
-0.04821153
0.21776874
0.44011605
0.59801167
0.68605944
0.73855765
0.77056579
0.78813409
0.79373578
0.79625492
0.79591077
0.79391488
0.79076209
0.78691375
0.78267611
0.77835933
0.77411703
0.7703434
0.76691464
0.76483526
0.76308415
0.76433029
0.76543053
-0.34757238
-0.36715226
-0.46751286
-0.60854251
-0.72971749
-0.71491201
-0.53889426
-0.3055166
-0.092727986
0.038045062
0.1080782
0.1610593
0.20169077
0.23381759
0.25218242
0.24854328
0.24359651
0.25125157
0.26532729
0.28490645
0.31045411
0.3377919
0.36618411
0.39557429
0.42020536
0.41583853
0.37756488
0.14005298
-0.38536684
-0.48058052
-0.65156173
-0.94355708
-1.4468268
-2.3079697
-3.5696228
-4.7077754
-5.0628485
-4.7443342
-3.8173846
-2.7727471
-1.8527596
-1.108028
-0.55018771
-0.1483326
0.13901008
0.35676513
0.54231104
0.67139335
0.73783108
0.77730914
0.79858949
0.80692905
0.8107132
0.81099095
0.80920054
0.80594463
0.80175019
0.79699072
0.79194469
0.7869
0.78197697
0.77758869
0.77363552
0.77109523
0.76894297
0.76989139
0.7707584
-0.34850469
-0.31971171
-0.34173494
-0.43893302
-0.54595992
-0.63840268
-0.61358819
-0.46121361
-0.26570511
-0.072863148
0.049423348
0.12104502
0.17036655
0.20870951
0.23602805
0.25093655
0.24983706
0.24855888
0.25690054
0.27151953
0.29119933
0.31560628
0.3419665
0.36902872
0.39509281
0.41326857
0.40015812
0.34986993
0.13970589
-0.42768242
-0.57123164
-0.81691536
-1.2384803
-1.9481746
-3.0723666
-4.3057517
-5.0743432
-4.8329841
-4.1058944
-3.0810862
-2.1253562
-1.3493472
-0.73913518
-0.27823572
0.062791474
0.29846093
0.47800717
0.63934673
0.73623108
0.78405415
0.80824423
0.82019574
0.82571278
0.82689554
0.8254908
0.82226426
0.81783912
0.81263223
0.80697918
0.80112815
0.79532064
0.78970779
0.78472968
0.78024258
0.77723519
0.77468047
0.77533414
0.77597979
-0.37158448
-0.30499604
-0.28277938
-0.3026858
-0.37897616
-0.46271239
-0.53332055
-0.50674774
-0.38025338
-0.2254083
-0.050911723
0.065678648
0.13261418
0.17868831
0.21284275
0.23650649
0.24889302
0.25039378
0.25222838
0.26154821
0.27660359
0.29616384
0.31944957
0.34436633
0.36907976
0.3903886
0.40057108
0.37733337
0.31308444
0.13382631
-0.49240149
-0.69675178
-1.0475946
-1.6393605
-2.5906632
-3.8093275
-4.7346871
-5.0140691
-4.2861083
-3.3250621
-2.3727039
-1.5819711
-0.94590674
-0.4362647
-0.043057788
0.24386312
0.4319526
0.59537575
0.72612131
0.79111394
0.81880881
0.83309579
0.84104902
0.84348862
0.84269619
0.83966273
0.83513103
0.82958854
0.82340283
0.81686674
0.81016973
0.80359652
0.79733162
0.7917536
0.78672477
0.78324546
0.78029021
0.7806526
0.78109199
-0.41344721
-0.31169072
-0.25591521
-0.23680801
-0.25120677
-0.30572746
-0.3701539
-0.42449428
-0.39327328
-0.30143482
-0.17552058
-0.026630402
0.084305795
0.14366454
0.18495438
0.21537705
0.23584986
0.24692928
0.25056171
0.25500735
0.26531159
0.28064933
0.29982096
0.32179533
0.34466802
0.36594953
0.38125443
0.3820419
0.34847749
0.26926504
0.12569186
-0.5831984
-0.87032016
-1.3595379
-2.1543867
-3.2676905
-4.3362305
-4.9007022
-4.6183556
-3.569804
-2.5738733
-1.7795134
-1.1509784
-0.61718381
-0.17725676
0.16065679
0.39252222
0.56362729
0.71110024
0.79069455
0.83016569
0.84622345
0.85642559
0.86059515
0.86067513
0.85803831
0.85355524
0.84780022
0.841196
0.83405013
0.82658182
0.81904759
0.81176079
0.80483561
0.79864811
0.79306934
0.78911727
0.78576726
0.78584235
0.78609449
-0.47474181
-0.33389337
-0.24909422
-0.20218345
-0.18422242
-0.19225319
-0.23052119
-0.27882314
-0.32072939
-0.29742621
-0.21759793
-0.13407807
0.0074951858
0.1006705
0.15304549
0.18992405
0.21673941
0.23474647
0.24511435
0.25058227
0.25713415
0.26828162
0.28367774
0.30214636
0.32245265
0.34258204
0.35938664
0.36765317
0.35811838
0.31499145
0.22194155
0.12178032
-0.70800208
-1.1036065
-1.7558445
-2.7250244
-3.8132678
-4.5960556
-4.7004214
-3.9717001
-2.8972908
-1.951493
-1.322273
-0.80162207
-0.33800284
0.049040677
0.33133263
0.53588849
0.7114498
0.78498641
0.82773271
0.86209287
0.87177694
0.87793588
0.87925947
0.8772377
0.87299423
0.86718248
0.86028671
0.85264952
0.84448436
0.83611
0.82780766
0.81980218
0.81220509
0.80539663
0.79926674
0.79484629
0.7911072
0.79090378
0.79084284
-0.55949981
-0.37020943
-0.25507392
-0.18522855
-0.14547179
-0.12832397
-0.13136914
-0.15768232
-0.1967631
-0.22857271
-0.20467123
-0.15660788
-0.07949709
0.036623557
0.11498058
0.16123742
0.19378248
0.21744842
0.23352024
0.24361535
0.25060225
0.25877294
0.27052778
0.28570242
0.30307546
0.32123754
0.33787776
0.34934823
0.34974193
0.32986234