/*--------------------------------*- C++ -*----------------------------------*\
| =========                 |                                                 |
| \\      /  F ield         | OpenFOAM: The Open Source CFD Toolbox           |
|  \\    /   O peration     | Version:  v2012                                 |
|   \\  /    A nd           | Website:  www.openfoam.com                      |
|    \\/     M anipulation  |                                                 |
\*---------------------------------------------------------------------------*/
FoamFile
{
    version     2.0;
    format      ascii;
    class       surfaceScalarField;
    location    "100.337729823899352";
    object      phi;
}
// * * * * * * * * * * * * * * * * * * * * * * * * * * * * * * * * * * * * * //

dimensions      [0 3 -1 0 0 0 0];
oriented        oriented;


internalField   nonuniform List<scalar> 
18180
(
0.00076713607
-3.5265266
0.0015789267
-3.2993449
-0.00032876535
-3.4929796
0.0024833705
-3.0881556
-0.00063099517
-3.268589
-0.00093019559
-3.4613585
0.0035989907
-2.8920647
-0.00084569985
-3.0603146
-0.0018336661
-3.2396764
-0.0015008812
-3.4318138
0.0049856065
-2.7095741
-0.00092133615
-2.8670893
-0.002718535
-3.0340942
-0.0030033049
-3.2121316
-0.0019152978
-3.4036291
0.0067721807
-2.5390806
-0.00080458467
-2.6865824
-0.0035662187
-2.8426888
-0.0045518333
-3.0082674
-0.0038688798
-3.1855867
-0.0021778447
-3.3771356
0.0090614969
-2.3790432
-0.0003661001
-2.5172795
-0.004347871
-2.6632558
-0.006179179
-2.818145
-0.0059276292
-2.9830296
-0.0044222209
-3.1603097
-0.0022841235
-3.3519781
0.011993604
-2.2289579
0.00050351521
-2.3582535
-0.0049931724
-2.4948145
-0.007901396
-2.6396423
-0.008182297
-2.7940747
-0.0068175893
-2.9589039
-0.0046469624
-3.136366
-0.0022441395
-3.328604
0.015697006
-2.088497
0.0019712456
-2.2092742
-0.0054105776
-2.3367491
-0.0097036269
-2.4720891
-0.010694283
-2.6166951
-0.0095036618
-2.7710928
-0.0071890472
-2.9360178
-0.0045660651
-3.1140673
-0.0020785104
-3.3068431
0.020312011
-1.9573473
0.0042193557
-2.0703048
-0.0054691798
-2.1891897
-0.01155258
-2.3152805
-0.013516426
-2.4503439
-0.012578893
-2.5950439
-0.010078855
-2.7493832
-0.0070739082
-2.9146314
-0.0042245445
-3.0933754
-0.0018159997
-3.2869325
0.025968817
-1.8349714
0.0074592324
-1.9412578
-0.005009248
-2.0522327
-0.013384345
-2.169479
-0.01668734
-2.2950217
-0.016155114
-2.4301798
-0.01343809
-2.574615
-0.0099439972
-2.7288179
-0.0065429583
-2.8947346
-0.0036823089
-3.0743582
-0.0014880452
-3.2685692
0.032783383
-1.7206068
0.011918358
-1.8214053
-0.0038298734
-1.9253975
-0.015107536
-2.0342908
-0.020237689
-2.1505171
-0.02033745
-2.2758227
-0.01741556
-2.4105835
-0.013304682
-2.5547789
-0.0092000872
-2.7095197
-0.0056923246
-2.8763886
-0.0030057696
-3.0569137
-0.0011268119
-3.2519686
0.040857181
-1.6135001
0.017829396
-1.7097577
-0.0016938577
-1.8077367
-0.016594184
-1.9089284
-0.024185293
-2.0161036
-0.025246079
-2.1316155
-0.022158443
-2.2565242
-0.017314206
-2.3911748
-0.012316233
-2.5358947
-0.007989167
-2.6916357
-0.0046280333
-2.8596386
-0.0022615863
-3.0411441
-0.00076119144
-3.236855
0.05026606
-1.5130323
0.025429283
-1.6055292
0.001674139
-1.6983962
-0.017677516
-1.7925996
-0.028535701
-1.8911703
-0.031008655
-1.9971063
-0.027842788
-2.1121445
-0.022129212
-2.2371278
-0.016036211
-2.3725587
-0.010675804
-2.5184248
-0.0064678447
-2.6753842
-0.003454736
-2.8445197
-0.0015103166
-3.0268967
-0.00041782643
-3.2232949
0.061053509
-1.4186835
0.034941051
-1.5080846
0.0065867131
-1.5966894
-0.018143678
-1.6846468
-0.033277957
-1.775101
-0.03777167
-1.8717432
-0.034666427
-1.9770496
-0.027933912
-2.0924165
-0.02049828
-2.2186306
-0.013870889
-2.3554436
-0.0086076846
-2.5025656
-0.0047883327
-2.6607543
-0.0022678217
-2.83096
-0.00080380536
-3.0140848
-0.00013027924
-3.210969
0.073229525
-1.3299913
0.04655777
-1.4168782
0.013385763
-1.5020443
-0.017729582
-1.5845135
-0.038379308
-1.6673649
-0.045697511
-1.755014
-0.042866927
-1.8508488
-0.034934055
-1.9567985
-0.025854381
-2.0738432
-0.017679399
-2.2018756
-0.011137344
-2.3400531
-0.0063254526
-2.4883546
-0.0030864802
-2.6477109
-0.001148904
-2.8187905
-0.00018602405
-3.0025503
8.8079774e-05
-3.1999072
0.086766848
-1.246543
0.060428941
-1.331412
0.022437738
-1.4139503
-0.016113832
-1.4917161
-0.043782239
-1.5674835
-0.054968357
-1.6464459
-0.052723259
-1.7330403
-0.043372705
-1.829909
-0.032262879
-1.9380792
-0.022201795
-2.0574574
-0.014127751
-2.187001
-0.0081312347
-2.3262161
-0.0040136281
-2.475682
-0.0014753743
-2.636063
-0.00016302445
-2.8079086
0.00031379445
-2.9922322
0.00025130185
-3.1898324
0.10158791
-1.167953
0.076649017
-1.2512225
0.034121804
-1.3319286
-0.012923757
-1.4058059
-0.049399985
-1.475016
-0.065783581
-1.5455494
-0.064566879
-1.623056
-0.053535028
-1.711122
-0.03989596
-1.8108262
-0.027523734
-1.9217405
-0.017630691
-2.0428749
-0.010251626
-2.1735282
-0.0050968169
-2.3138698
-0.0018200519
-2.4644429
-4.2649315e-05
-2.6257393
0.00064386295
-2.7981821
0.00067207092
-2.9829431
0.00034751246
-3.1807292
0.11761136
-1.0938669
0.095246568
-1.1758601
0.048799032
-1.2554963
-0.0077397127
-1.3263525
-0.055111467
-1.3895456
-0.078356374
-1.4518694
-0.078784791
-1.5203441
-0.065760947
-1.5997425
-0.048941301
-1.6913356
-0.033713967
-1.7942434
-0.021665455
-1.9072686
-0.012706575
-2.0297181
-0.0063700273
-2.1614989
-0.0022189991
-2.3029656
0.00014339179
-2.4545577
0.0011505889
-2.6165858
0.0012455262
-2.7894988
0.0008881653
-2.9745428
0.00037910878
-3.1723579
0.13485482
-1.0239835
0.11625729
-1.1049784
0.066829507
-1.1842026
-4.0422437e-05
-1.2529773
-0.060757455
-1.3106771
-0.092914057
-1.3649696
-0.095823007
-1.4243886
-0.080452135
-1.4951663
-0.059607096
-1.5789734
-0.040819216
-1.6744267
-0.026209862
-1.779811
-0.015475017
-1.8943381
-0.0078426963
-2.0180377
-0.0027061437
-2.1509683
0.0003723361
-2.2934716
0.0018063028
-2.445885
0.0020661094
-2.6084862
0.0016307978
-2.781675
0.00096649203
-2.9669011
0.00034719615
-3.1647107
0.15334091
-0.95806895
0.13977658
-1.0383382
0.088505525
-1.117634
0.010849149
-1.1853848
-0.066085204
-1.2381208
-0.10968706
-1.2844437
-0.11618557
-1.3346967
-0.098080471
-1.3968259
-0.072125073
-1.4731324
-0.048860266
-1.5616724
-0.031190474
-1.6600456
-0.018482815
-1.7671358
-0.0094858683
-1.8830594
-0.0032987807
-2.0079393
0.00059782347
-2.1418549
0.0025945462
-2.2852299
0.0031204947
-2.4382939
0.002689617
-2.6012623
0.001803532
-2.7746368
0.00091510978
-2.9599175
0.00025242234
-3.1575758
0.17206965
-0.89617276
0.16572705
-0.97553446
0.11364847
-1.0550822
0.025422276
-1.122982
-0.070703884
-1.1717174
-0.12881327
-1.2100882
-0.14042048
-1.2508166
-0.11918872
-1.3041673
-0.086753441
-1.3732351
-0.057827365
-1.4554283
-0.036473884
-1.5474998
-0.02159089
-1.6478105
-0.011219107
-1.7563371
-0.0039883142
-1.8734962
0.0007863359
-1.9993292
0.0034632772
-2.1340525
0.0043985584
-2.2781404
0.0040666058
-2.4316476
0.0030234254
-2.5948488
0.0017783479
-2.7682486
0.00074547959
-2.953492
0.00010081471
-3.1509224
0.18910687
-0.8379181
0.19246806
-0.91505474
0.14083162
-0.99489494
0.0431705
-1.0640633
-0.074887448
-1.1102091
-0.15040997
-1.141758
-0.16909289
-1.1725283
-0.14439509
-1.2166695
-0.10377356
-1.2787149
-0.067674852
-1.355172
-0.041859427
-1.4416873
-0.024585634
-1.5359812
-0.012898903
-1.6377071
-0.0047268506
-1.7474265
0.00090860966
-1.8654496
0.0043558037
-1.991985
0.0058462329
-2.1274489
0.0057628737
-2.2720858
0.0046458247
-2.4258656
0.0030842172
-2.5891186
0.0015747503
-2.7624485
0.00047703835
-2.9475162
-8.1230239e-05
-3.1446064
0.20280053
-0.78339183
0.21787958
-0.85604436
0.16679138
-0.93372478
0.06234274
-1.0057376
-0.080355357
-1.0504446
-0.17543901
-1.0773461
-0.20283392
-1.0996209
-0.17445924
-1.1339738
-0.1234937
-1.1890251
-0.078312799
-1.2603729
-0.047073755
-1.342117
-0.027172658
-1.4311792
-0.014309473
-1.526783
-0.0054188798
-1.6294255
0.00095520387
-1.7398581
0.0052015132
-1.8585431
0.0073890618
-1.985841
0.007728374
-2.1219658
0.0066854922
-2.2669885
0.0048733765
-2.4208472
0.0028972357
-2.5839964
0.0012187552
-2.7570983
0.00013741503
-2.9419309
-0.00028021555
-3.1386351
0.21140082
-0.73246151
0.24086463
-0.79961587
0.19075326
-0.87320704
0.080362288
-0.94383456
-0.087889776
-0.99047
-0.20625033
-1.0123082
-0.24255143
-1.0297092
-0.21026032
-1.0557544
-0.14633482
-1.1036926
-0.089598783
-1.1705323
-0.051766998
-1.2483239
-0.028976175
-1.332937
-0.015156842
-1.4231152
-0.0059126804
-1.5192132
0.00094211975
-1.6223015
0.0059275938
-1.7333035
0.0089234368
-1.8527617
0.0098820247
-1.980859
0.0091055369
-2.1175387
0.0071784535
-2.2627474
0.0047758132
-2.4164871
0.0024942303
-2.5793639
0.00074040962
-2.7521642
-0.00026198442
-2.9366428
-0.00050445548
-3.1328873
0.21289029
-0.68494184
0.2593538
-0.744669
0.212163
-0.8146764
0.096258304
-0.88159716
-0.095146935
-0.92924077
-0.24410276
-0.94577833
-0.28950552
-0.95789624
-0.25210328
-0.98020441
-0.17278951
-1.0223206
-0.10137826
-1.0851887
-0.055508341
-1.1598882
-0.029543098
-1.2408656
-0.015070731
-1.326332
-0.0059917248
-1.4164451
0.00091794775
-1.5124822
0.0064594602
-1.6158961
0.010321702
-1.7277074
0.012101591
-1.8481564
0.011830543
-1.9770298
0.0099823895
-2.1140794
0.0072646019
-2.2592562
0.0043869655
-2.4126862
0.0019099658
-2.5751636
0.00016785082
-2.747538
-0.00069954586
-2.9316182
-0.0007310014
-3.127364
0.20897071
-0.64101873
0.27178303
-0.69152765
0.22967977
-0.75625024
0.1064437
-0.81774726
-0.10628387
-0.86350257
-0.28630704
-0.88065688
-0.34462907
-0.88364339
-0.29909695
-0.90362603
-0.20245869
-0.94399411
-0.11347661
-1.003963
-0.057799407
-1.0764188
-0.028353631
-1.1546192
-0.013609533
-1.2360957
-0.0053825528
-1.3207582
0.00095752315
-1.4100837
0.0067244774
-1.5060637
0.011431861
-1.6102957
0.014224877
-1.7233148
0.014737522
-1.8448026
0.013228186
-1.9742935
0.010372126
-2.111486
0.0069751902
-2.2564051
0.0037454127
-2.4093488
0.0011795602
-2.5712892
-0.00047521655
-2.7431822
-0.0011574614
-2.9267691
-0.0009609646
-3.1219886
0.19953978
-0.60001353
0.27836328
-0.64215733
0.2422786
-0.69857257
0.11044753
-0.753519
-0.12405065
-0.79338604
-0.33109419
-0.81276751
-0.4064125
-0.81229321
-0.35026151
-0.82557059
-0.23311774
-0.86684003
-0.12518441
-0.92647263
-0.058086558
-0.99759277
-0.024830527
-1.0738718
-0.010280382
-1.1521307
-0.003746135
-1.2319279
0.0011836339
-1.314889
0.0066575943
-1.4035966
0.012078783
-1.5002846
0.016048528
-1.6059394
0.017653911
-1.7203068
0.016808622
-1.8426911
0.014069665
-1.9725644
0.010296151
-2.1096361
0.0063478437
-2.2540817
0.0028922441
-2.4063802
0.0003385234
-2.5676739
-0.0011634288
-2.7389931
-0.0016245363
-2.9220815
-0.0011894855
-3.1167656
0.18517802
-0.56182383
0.27888893
-0.59546497
0.24778336
-0.64245892
0.10843921
-0.69019708
-0.14576865
-0.72555672
-0.37544411
-0.74348924
-0.46686731
-0.74614577
-0.40459071
-0.75141147
-0.26282248
-0.79012948
-0.13448635
-0.85214849
-0.055702039
-0.92314483
-0.01837697
-0.99833025
-0.0045299927
-1.0741885
-0.00069919081
-1.1497377
0.0017480131
-1.2267148
0.0061931691
-1.3082982
0.012065037
-1.397459
0.017328081
-1.4957513
0.020356225
-1.6030986
0.020563707
-1.7186818
0.018279606
-1.8417415
0.014355934
-1.9717113
0.0097843473
-2.1084015
0.0054250467
-2.2521703
0.001868822
-2.4036709
-0.00058306296
-2.5642313
-0.0018749997
-2.73496
-0.0020892866
-2.9175035
-0.0014104666
-3.1116448
0.1656728
-0.52569353
0.27344137
-0.55163613
0.24593934
-0.58874084
0.10091866
-0.62892672
-0.16968233
-0.66037745
-0.41807006
-0.67775371
-0.52078595
-0.68379929
-0.45918605
-0.68534427
-0.29234187
-0.71652368
-0.13918744
-0.78044247
-0.049577609
-0.85290795
-0.0084094177
-0.92772051
0.0041915344
-1.0019773
0.0041989259
-1.0739954
0.0028426195
-1.1453815
0.0052771607
-1.2200036
0.011172434
-1.3016209
0.017779816
-1.3924798
0.022570743
-1.4928506
0.02427878
-1.6018233
0.022872998
-1.7184145
0.019116451
-1.8418397
0.014098504
-1.9715959
0.0088749471
-2.1076474
0.0042529094
-2.2505446
0.00071577899
-2.4011449
-0.0015551709
-2.5609163
-0.0025911716
-2.731014
-0.0025418099
-2.9130271
-0.0016201688
-3.1066282
0.12983833
-0.57673748
0.26214737
-0.50996602
0.23704691
-0.53816221
0.088715669
-0.57087058
-0.19477318
-0.5982587
-0.45810304
-0.61550709
-0.56845072
-0.624694
-0.51064159
-0.6264761
-0.32305049
-0.64961395
-0.13937376
-0.71173319
-0.038269485
-0.78671008
0.005593904
-0.86181777
0.016418368
-0.93521114
0.011410346
-1.0044359
0.0046740078
-1.0707092
0.0038636929
-1.138537
0.009156524
-1.2125915
0.017081451
-1.2958985
0.023976935
-1.3892283
0.02768633
-1.4917074
0.027666638
-1.6020893
0.024492772
-1.7193867
0.019297524
-1.8428391
0.013322143
-1.9720645
0.0076137047
-2.107228
0.0028796142
-2.2491051
-0.00052556084
-2.3987256
-0.0025482705
-2.5576692
-0.0032957726
-2.72714
-0.0029741158
-2.9085998
-0.0018155161
-3.1016799
0.087534657
-0.57860932
0.23635088
-0.54609015
0.22255465
-0.49116616
0.072559437
-0.51667383
-0.22008253
-0.54030296
-0.49445897
-0.55737983
-0.609547
-0.56937021
-0.55673695
-0.57306114
-0.35415572
-0.59067361
-0.13718486
-0.64755794
-0.020927713
-0.72433809
0.024125484
-0.80042275
0.032595737
-0.87357919
0.021425132
-0.94079908
0.0074999204
-1.0024652
0.0018902053
-1.0636643
0.0057572267
-1.1301305
0.014872721
-1.2057329
0.024211817
-1.2918373
0.030471727
-1.3878291
0.032425536
-1.4922768
0.030348938
-1.6038147
0.025348474
-1.7214639
0.018820866
-1.8445678
0.012065323
-1.9729483
0.0060528683
-2.1070114
0.0013531058
-2.2477481
-0.0018265591
-2.3963505
-0.0035392092
-2.5544486
-0.0039754179
-2.7232844
-0.0033799271
-2.9042163
-0.0019941951
-3.0968067
0.038687934
-0.58055006
0.20396301
-0.54136503
0.19682517
-0.51566039
0.053334514
-0.46693414
-0.24467785
-0.48712935
-0.52630723
-0.50422179
-0.64377873
-0.5184391
-0.59618932
-0.52470242
-0.38365334
-0.53916907
-0.13446837
-0.58948145
0.0017454353
-0.66577868
0.047646882
-0.74329398
0.053037994
-0.81675213
0.034736991
-0.88277606
0.011608271
-0.94041188
-0.00066949986
-0.99516368
0.00068787052
-1.0539374
0.010756412
-1.1216738
0.022877491
-1.2003695
0.032282358
-1.2897586
0.036869711
-1.3884035
0.036499514
-1.4945782
0.03217233
-1.6068885
0.025393817
-1.7244569
0.017706984
-1.8468297
0.01037934
-1.974078
0.004249687
-2.1068704
-0.00026944293
-2.2464114
-0.0031453897
-2.3939516
-0.0045072989
-2.5512174
-0.0046192799
-2.7194371
-0.0037545324
-2.8998449
-0.0021554133
-3.0919957
-0.016428159
-0.58273946
0.16414435
-0.53586917
0.16636627
-0.50616095
0.030246352
-0.48717005
-0.26780411
-0.43916249
-0.55309965
-0.45636907
-0.67133258
-0.47226858
-0.62851791
-0.48120561
-0.40989789
-0.49434737
-0.13187517
-0.53816735
0.027929027
-0.61147936
0.07636142
-0.69016111
0.077960855
-0.7643888
0.051828925
-0.83002572
0.017290399
-0.88424186
-0.0039016637
-0.93273578
-0.0063913314
-0.98374351
0.0043083046
-1.0434277
0.019544561
-1.1145514
0.032740121
-1.1971811
0.040686238
-1.2899682
0.042715155
-1.3910514
0.03964332
-1.4985428
0.033024095
-1.6111267
0.024616827
-1.7281584
0.015998679
-1.8494233
0.0083267612
-1.975295
0.0022635276
-2.1066927
-0.0019703128
-2.2449898
-0.0044535687
-2.3914998
-0.0054353507
-2.5479532
-0.0052189642
-2.7155664
-0.0040946675
-2.8955002
-0.0022984406
-3.0872541
-0.076417901
-0.58520554
0.11608424
-0.5298084
0.13121676
-0.49592796
0.0037592798
-0.47423102
-0.28453182
-0.46547089
-0.57489069
-0.41364859
-0.69269144
-0.43089915
-0.65392302
-0.44225744
-0.43209987
-0.45516004
-0.12956743
-0.49334983
0.055776033
-0.56207783
0.10980208
-0.64080564
0.10753883
-0.71617801
0.073182052
-0.7822039
0.024903996
-0.83368239
-0.0078235227
-0.87614568
-0.015778952
-0.91929679
-0.0049359995
-0.97069924
0.013765094
-1.0340769
0.03145576
-1.109821
0.043545964
-1.1966564
0.048734892
-1.2926857
0.047591165
-1.3957487
0.041651436
-1.5039802
0.032841762
-1.6163038
0.02304056
-1.7323254
0.013758812
-1.8521509
0.0059783759
-1.9764616
0.00015693151
-2.1063955
-0.0036795346
-2.2434471
-0.0057250184
-2.3889572
-0.0063094159
-2.5446367
-0.0057682947
-2.7116779
-0.0043982771
-2.8911607
-0.0024228469
-3.082588
-0.14001768
-0.58774252
0.05963577
-0.52387494
0.091503065
-0.48525585
-0.026081249
-0.46060824
-0.30077974
-0.45296744
-0.58519142
-0.45120284
-0.70870791
-0.39378462
-0.67289792
-0.40760677
-0.45019338
-0.42057016
-0.12767404
-0.45401581
0.083738993
-0.51761072
0.14703831
-0.59540486
0.14177498
-0.67173123
0.099253754
-0.7389767
0.034937803
-0.78852177
-0.012476103
-0.82510038
-0.027848965
-0.86029168
-0.017469345
-0.90321164
0.005082386
-0.9586511
0.028044585
-1.0274128
0.045123673
-1.1082292
0.054283548
-1.199143
0.055810071
-1.2979173
0.051169565
-1.4023136
0.042390345
-1.5106485
0.031614394
-1.6221366
0.020720756
-1.7367169
0.011066718
-1.8548314
0.0034096449
-1.9774413
-0.0020227824
-2.1058937
-0.0053669299
-2.2417356
-0.0069377286
-2.3863127
-0.0071186966
-2.5412542
-0.0062630471
-2.7077563
-0.004664362
-2.8868569
-0.002528695
-3.0780038
-0.20559163
-0.59053082
-0.0048663075
-0.51834512
0.047155504
-0.47464149
-0.058848757
-0.4469772
-0.31634383
-0.43999363
-0.59103186
-0.44309512
-0.71649387
-0.43935758
-0.68633426
-0.37631141
-0.46455217
-0.38988645
-0.1260283
-0.41942219
0.11064322
-0.47743988
0.1862056
-0.55306483
0.17994619
-0.63050084
0.12981805
-0.69927057
0.047722001
-0.74826856
-0.017737153
-0.77955613
-0.042935476
-0.8064785
-0.033813587
-0.84063213
-0.0069891718
-0.88797581
0.022143849
-0.94968823
0.045121275
-1.0244541
0.059093594
-1.1102196
0.064072971
-1.2046938
0.061429321
-1.3054711
0.053224647
-1.4104472
0.04179888
-1.5182291
0.029379569
-1.6283382
0.017740655
-1.7410974
0.0080143331
-1.8572908
0.00069809821
-1.9781403
-0.00421212
-2.1051247
-0.0069992859
-2.239834
-0.0080739371
-2.3835373
-0.0078553255
-2.5378044
-0.0067007436
-2.7038248
-0.0048927867
-2.8825772
-0.0026163943
-3.0735325
-0.27106244
-0.59360188
-0.076772594
-0.51371411
-0.001612862
-0.46464457
-0.093788262
-0.43416292
-0.33086603
-0.42737558
-0.59212859
-0.4348068
-0.71881465
-0.43665127
-0.6993753
-0.42210572
-0.47567509
-0.36205135
-0.12516643
-0.38817211
0.13579919
-0.44130984
0.22573743
-0.51344477
0.2193968
-0.58965905
0.16208251
-0.65997155
0.062252706
-0.71051723
-0.024040581
-0.73846805
-0.061355927
-0.75783358
-0.054528294
-0.78267469
-0.022922865
-0.82172954
0.013423323
-0.87637288
0.043288552
-0.94510307
0.062929509
-1.0256976
0.072150888
-1.1158137
0.072246474
-1.2130136
0.065256189
-1.314981
0.053628908
-1.4198168
0.039882956
-1.5263792
0.026216772
-1.634612
0.014205924
-1.7452489
0.0047002251
-1.8593868
-0.0020821108
-1.9784717
-0.0063618814
-2.1040576
-0.0085483531
-2.237714
-0.0091199543
-2.3806345
-0.0085140972
-2.5342919
-0.0070804091
-2.699878
-0.0050841476
-2.8783716
-0.0026866126
-3.0691763
-0.33402905
-0.59677954
-0.15465423
-0.51079332
-0.054530839
-0.45581939
-0.12967139
-0.42319793
-0.3438268
-0.41609946
-0.58832807
-0.42703328
-0.71551316
-0.43392265
-0.7059523
-0.4258137
-0.50087028
-0.39366947
-0.12381002
-0.36102423
0.15864713
-0.40795702
0.26422829
-0.47645483
0.2587016
-0.55009506
0.19398589
-0.61898202
0.076393679
-0.6710231
-0.033371377
-0.69788306
-0.083900658
-0.71284161
-0.080261339
-0.72922766
-0.043230541
-0.75958702
0.0015987227
-0.80719058
0.039446147
-0.86996057
0.065613083
-0.94538559
0.079835732
-1.0310835
0.083415356
-1.1246783
0.078345034
-1.2237561
0.067084365
-1.3261067
0.052342516
-1.4300286
0.036707108
-1.5347515
0.022240804
-1.640685
0.010238247
-1.7489742
0.0012254714
-1.8610018
-0.0048659905
-1.9783787
-0.0084299483
-2.102659
-0.0099915325
-2.2353723
-0.010065991
-2.377599
-0.0090921979
-2.530724
-0.0074023564
-2.6959534
-0.0052396137
-2.8742283
-0.0027402384
-3.0649672
-0.59952841
-0.3918635
-0.23590086
-0.51058844
-0.11099681
-0.44930865
-0.16480775
-0.41509824
-0.35454674
-0.40735696
-0.57986708
-0.42037144
-0.70654506
-0.43175992
-0.70642043
-0.42915221
-0.52157388
-0.40184009
-0.14766216
-0.36737127
0.17947062
-0.37897646
0.30091362
-0.44147672
0.29662741
-0.51191075
0.22457694
-0.57830413
0.089854678
-0.62953645
-0.04583421
-0.65543847
-0.11243568
-0.6664743
-0.11156624
-0.67887042
-0.068556116
-0.70130511
-0.013573848
-0.74185727
0.033504425
-0.79884254
0.067047227
-0.86916516
0.086964578
-0.9503876
0.094726308
-1.0402696
0.092304807
-1.136455
0.082079421
-1.2365537
0.066816392
-1.3384431
0.049401083
-1.44069
0.032386474
-1.5429955
0.017594318
-1.6462925
0.0059678631
-1.7521091
-0.0023091219
-1.8620662
-0.0075810649
-1.9778194
-0.010380374
-2.1009241
-0.011311674
-2.2328092
-0.010905852
-2.3744337
-0.0095888801
-2.5271076
-0.0076679418
-2.6920473
-0.005360848
-2.8702076
-0.0027782991
-3.0609
-0.51362709
-0.31683942
-0.60066371
-0.44210807
-0.17032143
-0.44620652
-0.19850644
-0.41000725
-0.36243916
-0.40207163
-0.56738843
-0.41560847
-0.69220135
-0.43042603
-0.70107502
-0.43276404
-0.53785865
-0.40958085
-0.17054064
-0.37647662
0.17661292
-0.36156225
0.33457815
-0.40966184
0.3322474
-0.47479273
0.25339832
-0.53853176
0.10087868
-0.58659437
-0.059704092
-0.61271734
-0.14744197
-0.61775495
-0.14847362
-0.62709672
-0.098946547
-0.64605884
-0.032356104
-0.68011295
0.025480515
-0.73157621
0.067234253
-0.79695669
0.09344333
-0.87367095
0.10598734
-0.95967928
0.10691275
-1.0528546
0.098457211
-1.1507824
0.083289777
-1.2509986
0.06444448
-1.3515356
0.044906524
-1.451373
0.027078475
-1.5507808
0.012439461
-1.65121
0.0015283564
-1.7545282
-0.0058278659
-1.8625001
-0.01017476
-1.9767818
-0.012184841
-2.0988522
-0.012496906
-2.230017
-0.011636571
-2.3711333
-0.010005159
-2.5234564
-0.0078793915
-2.6882139
-0.005449834
-2.8662958
-0.0028019369
-3.0570053
-0.44770171
-0.23115474
-0.51927059
-0.3932515
-0.59833543
-0.48336605
-0.23148636
-0.40760944
-0.36792655
-0.39937783
-0.55215581
-0.41304779
-0.6731004
-0.43038173
-0.69029049
-0.43683163
-0.54972007
-0.41760074
-0.19183782
-0.3857683
0.17156042
-0.3684008
0.35402656
-0.37796694
0.36456572
-0.43982854
0.27968282
-0.49904051
0.10836747
-0.54345226
-0.074508556
-0.56900406
-0.1852325
-0.57243497
-0.19042967
-0.57351413
-0.13255965
-0.5912311
-0.054517265
-0.6216253
0.015467194
-0.66797866
0.066288459
-0.72870197
0.099263555
-0.80094248
0.11704675
-0.8829063
0.12192612
-0.97283052
0.11599011
-1.0684887
0.10165809
-1.167244
0.081913517
-1.2666082
0.060039372
-1.3649022
0.03901864
-1.4616637
0.020974537
-1.5577919
0.0069482449
-1.6552536
-0.0029499868
-1.7561561
-0.0092306595
-1.8622841
-0.012601907
-1.9752647
-0.013822447
-2.0964511
-0.013540224
-2.2270041
-0.012257965
-2.3677151
-0.01034349
-2.5197938
-0.0080395662
-2.6844505
-0.0055088306
-2.8625353
-0.0028123431
-3.0532675
-0.40852836
-0.26503142
-0.45470825
-0.29059438
-0.52457723
-0.46201154
-0.5915178
-0.51518013
-0.37164432
-0.39874655
-0.53479105
-0.41246467
-0.65006067
-0.43173052
-0.67488628
-0.44137321
-0.55706276
-0.42617295
-0.21119109
-0.39571063
0.16460126
-0.37571819
0.37198194
-0.38323662
0.39165148
-0.40287425
0.30249075
-0.46074246
0.11370387
-0.50196995
-0.090189967
-0.52514275
-0.22070872
-0.53121003
-0.23478665
-0.52596742
-0.16783161
-0.53614978
-0.078112528
-0.56549209
0.0037317497
-0.60789458
0.064448002
-0.66434443
0.10451254
-0.73224457
0.12781078
-0.81001847
0.13710273
-0.89637759
0.13438724
-0.98949215
0.12171503
-1.0867853
0.10178708
-1.1853565
0.077969946
-1.2828357
0.053743352
-1.3780272
0.031948575
-1.4711471
0.014289752
-1.5637767
0.0012987002
-1.6582867
-0.007365437
-1.7569242
-0.012452396
-1.8614124
-0.014827696
-1.9732894
-0.015279433
-2.0937356
-0.014438932
-2.2237819
-0.012772208
-2.3641945
-0.010607473
-2.5161412
-0.0081518174
-2.6807909
-0.0055402316
-2.8588998
-0.0028107499
-3.0497057
-0.4013936
-0.37363519
-0.41585313
-0.29824881
-0.4640486
-0.34597467
-0.52672119
-0.52179472
-0.58110873
-0.53845365
-0.51506034
-0.41418549
-0.62363071
-0.43451945
-0.65583923
-0.4463372
-0.56002105
-0.43508601
-0.22859285
-0.4062229
0.15592443
-0.38388986
0.38712344
-0.38767885
0.41782747
-0.40717845
0.33331633
-0.43178511
0.11702162
-0.4618043
-0.1063359
-0.48335085
-0.25231906
-0.49137617
-0.27681598
-0.48723287
-0.20560106
-0.48625752
-0.10144243
-0.51079757
-0.0086880372
-0.55119316
0.062051429
-0.60383113
0.10937975
-0.66762427
0.13825629
-0.74112465
0.15222212
-0.82358184
0.15331128
-0.91373109
0.14314815
-1.0093116
0.12392173
-1.1072581
0.098794527
-1.2045403
0.071555687
-1.2990987
0.045767561
-1.3903964
0.023951175
-1.4794697
0.0072512493
-1.5685186
-0.0043443567
-1.6602381
-0.011594073
-1.7568206
-0.0154374
-1.8599117
-0.016827539
-1.9708794
-0.016548558
-2.0907254
-0.015194055
-2.2203786
-0.013183349
-2.3605971
-0.010801545
-2.512511
-0.0082198105
-2.677223
-0.0055465467
-2.8554288
-0.0027983801
-3.0463032
-0.4190019
-0.49315627
-0.40976318
-0.3745862
-0.42685255
-0.3297992
-0.47165377
-0.39587422
-0.52462985
-0.57324689
-0.56752585
-0.55375017
-0.59482589
-0.43861063
-0.63432939
-0.45157033
-0.55894289
-0.44407602
-0.2439013
-0.41722543
0.14569453
-0.39280972
0.39870369
-0.39223652
0.44188478
-0.40945123
0.36360563
-0.43548027
0.14195236
-0.45444468
-0.12225826
-0.44356386
-0.28152164
-0.45214022
-0.31441594
-0.45197837
-0.2453597
-0.44567489
-0.12650377
-0.45928885
-0.02020314
-0.4975116
0.059548125
-0.54714293
0.11414622
-0.60712117
0.1484353
-0.67634774
0.16710548
-0.75458628
0.17240249
-0.84125429
0.16554676
-0.93466316
0.14803172
-1.031888
0.12248355
-1.1293897
0.092697693
-1.2241776
0.062848632
-1.3147686
0.036390315
-1.401524
0.01531177
-1.4863261
0.00010691264
-1.5718988
-0.0098436398
-1.6610482
-0.015553063
-1.7558697
-0.018144263
-1.8578137
-0.018586514
-1.9680671
-0.017628325
-2.0874531
-0.015809645
-2.2168127
-0.013496897
-2.3569331
-0.010930769
-2.5089238
-0.008247423
-2.6737832
-0.0055302819
-2.8520997
-0.0027764411
-3.0430782
-0.44336359
-0.5660928
-0.42708714
-0.47154262
-0.4193278
-0.37698063
-0.43728516
-0.35851666
-0.47513886
-0.44018433
-0.51868156
-0.617055
-0.55145723
-0.56150946
-0.61172487
-0.45674735
-0.55419624
-0.45296846
-0.25699495
-0.42843067
0.13418082
-0.40250281
0.40631704
-0.39714564
0.4625161
-0.4105325
0.39257568
-0.43636293
0.16632554
-0.45749662
-0.11231561
-0.46207767
-0.30916504
-0.41405179
-0.34798034
-0.41691495
-0.28409761
-0.41157295
-0.15578606
-0.41459407
-0.031189746
-0.44663212
0.057768147
-0.49429752
0.11912201
-0.55074691
0.15847069
-0.61579973
0.18162906
-0.68956834
0.19130779
-0.77221204
0.18842398
-0.8628133
0.17368075
-0.95892217
0.14884381
-1.056791
0.11730546
-1.15254
0.083593903
-1.2435432
0.052117342
-1.3292159
0.025949034
-1.4109762
0.006333312
-1.4914757
-0.0069638456
-1.573825
-0.015045951
-1.6607369
-0.01917541
-1.7541127
-0.020545617
-1.8551705
-0.020098417
-1.9648952
-0.018522021
-2.0839511
-0.016292164
-2.2131105
-0.013719432
-2.3532418
-0.011000577
-2.5053975
-0.0082386021
-2.6704623
-0.0054939265
-2.8489352
-0.0027460597
-3.0400101
-0.46145757
-0.58916446
-0.44931231
-0.53951455
-0.43323942
-0.45335743
-0.42822666
-0.38092119
-0.44408786
-0.38391371
-0.47404362
-0.47963601
-0.50984793
-0.65362358
-0.53340241
-0.56198076
-0.54611118
-0.46147515
-0.26763077
-0.43978448
0.12184391
-0.41287199
0.40953002
-0.40240411
0.47852925
-0.41077577
0.41885488
-0.43468927
0.19012979
-0.45772969
-0.1015852
-0.46584478
-0.31781017
-0.45159218
-0.37855776
-0.38193902
-0.31945732
-0.38001082
-0.18801219
-0.37765321
-0.04440587
-0.39980421
0.057519095
-0.44505408
0.12462317
-0.49852457
0.16854941
-0.55955783
0.19573089
-0.62870368
0.20970826
-0.70681453
0.21125241
-0.79385747
0.20029371
-0.88817115
0.17748965
-0.98622529
0.14535708
-1.0834498
0.10834581
-1.1759319
0.071687277
-1.261852
0.039726493
-1.3418331
0.014826034
-1.4183998
-0.0026442355
-1.4948272
-0.013745842
-1.574288
-0.019848134
-1.6593518
-0.022414
-1.7516188
-0.022627094
-1.852039
-0.02136448
-1.9614148
-0.01923679
-2.080255
-0.016649869
-2.2093145
-0.013858237
-2.3495409
-0.011016624
-2.5019557
-0.0081972718
-2.6672762
-0.0054398139
-2.8459074
-0.0027083014
-3.037113
-0.46930514
-0.53490083
-0.46718887
-0.56683195
-0.45272904
-0.51569874
-0.43807331
-0.4392655
-0.43396676
-0.3859394
-0.44641284
-0.4058889
-0.46942769
-0.51487445
-0.49907035
-0.68291673
-0.51404635
-0.55501486
-0.27555755
-0.45100605
0.1088298
-0.42354658
0.40807279
-0.40807895
0.48925425
-0.41070169
0.44103637
-0.4307777
0.21195608
-0.45401131
-0.091111127
-0.46576192
-0.32443647
-0.45733144
-0.40212161
-0.42652764
-0.35102707
-0.34893507
-0.22016017
-0.34627228
-0.061727228
-0.358849
0.058229402
-0.39928274
0.13119042
-0.45043829
0.17885544
-0.50764279
0.20941291
-0.57213452
0.22734404
-0.64529676
0.23350428
-0.72800226
0.22718664
-0.81962071
0.20782874
-0.91728964
0.1766189
-1.0161776
0.13733198
-1.111103
0.095662531
-1.1986531
0.057316586
-1.2783017
0.026129538
-1.3520898
0.0034433529
-1.4235227
-0.011429473
-1.4962809
-0.020063941
-1.5733334
-0.024172974
-1.6569796
-0.025240916
-1.7484651
-0.024385749
-1.8484915
-0.022392014
-1.9576732
-0.019782729
-2.0764171
-0.016892259
-2.2054559
-0.013921031
-2.3458824
-0.010984551
-2.4986036
-0.0081271541
-2.6642114
-0.0053701611
-2.8430425
-0.0026641481
-3.0343667
-0.46171624
-0.28061107
-0.47773375
-0.52099094
-0.47031648
-0.54480799
-0.45463781
-0.49484394
-0.44048478
-0.42854306
-0.43597568
-0.39129224
-0.44513286
-0.42452766
-0.4627922
-0.54598475
-0.48702606
-0.70490537
-0.49377628
-0.54043827
0.095287449
-0.43424668
0.40185897
-0.41398309
0.49435267
-0.41071041
0.45765924
-0.42509513
0.23061503
-0.44687882
-0.081299232
-0.46133229
-0.32965542
-0.45861885
-0.42288442
-0.43502641
-0.38788088
-0.38826943
-0.24995982
-0.31764538
-0.08245877
-0.32414347
0.057855589
-0.35733118
0.13936137
-0.40635323
0.18956883
-0.46003644
0.22272545
-0.51993221
0.24402294
-0.58786986
0.25469006
-0.66552299
0.2536017
-0.75339978
0.23906154
-0.84975128
0.2105866
-0.95005055
0.17058752
-1.0481533
0.12457518
-1.1387626
0.07947319
-1.2196688
0.040969453
-1.2921155
0.011853026
-1.359556
-0.0077801561
-1.4263057
-0.019690931
-1.4958852
-0.025794556
-1.5710702
-0.027970661
-1.6537212
-0.027645564
-1.7447473
-0.025828106
-1.8445915
-0.023193072
-1.9537337
-0.02017202
-2.0724757
-0.017029625
-2.2015989
-0.01391561
-2.3422731
-0.010909783
-2.4953571
-0.0080317697
-2.6612878
-0.005287037
-2.8403146
-0.002614369