/*--------------------------------*- C++ -*----------------------------------*\
| =========                 |                                                 |
| \\      /  F ield         | OpenFOAM: The Open Source CFD Toolbox           |
|  \\    /   O peration     | Version:  v2012                                 |
|   \\  /    A nd           | Website:  www.openfoam.com                      |
|    \\/     M anipulation  |                                                 |
\*---------------------------------------------------------------------------*/
FoamFile
{
    version     2.0;
    format      ascii;
    class       pointVectorField;
    location    "100.337729823899352";
    object      pointDisplacement;
}
// * * * * * * * * * * * * * * * * * * * * * * * * * * * * * * * * * * * * * //

dimensions      [0 1 0 0 0 0 0];


internalField   nonuniform List<vector> 
18840
(
(1.8412524 0 0)
(1.8410974 0 0)
(1.8406367 0 0)
(1.8398782 0 0)
(1.8388279 0 0)
(1.8374902 0 0)
(1.835868 0 0)
(1.8339631 0 0)
(1.8317765 0 0)
(1.8293081 0 0)
(1.8265571 0 0)
(1.823522 0 0)
(1.8202008 0 0)
(1.8165908 0 0)
(1.8126889 0 0)
(1.8084915 0 0)
(1.8039947 0 0)
(1.7991944 0 0)
(1.7940861 0 0)
(1.7886701 0 0)
(1.7818026 0 0)
(1.8412524 0 0)
(1.841097 0 0)
(1.8406352 0 0)
(1.8398748 0 0)
(1.8388216 0 0)
(1.83748 0 0)
(1.8358529 0 0)
(1.8339422 0 0)
(1.8317488 0 0)
(1.8292727 0 0)
(1.8265132 0 0)
(1.8234689 0 0)
(1.8201379 0 0)
(1.8165177 0 0)
(1.8126053 0 0)
(1.8083973 0 0)
(1.80389 0 0)
(1.7990794 0 0)
(1.793961 0 0)
(1.7885326 0 0)
(1.782776 0 0)
(1.8412524 0 0)
(1.8410964 0 0)
(1.8406328 0 0)
(1.8398692 0 0)
(1.8388115 0 0)
(1.837464 0 0)
(1.8358296 0 0)
(1.8339102 0 0)
(1.8317068 0 0)
(1.8292194 0 0)
(1.8264473 0 0)
(1.8233895 0 0)
(1.8200439 0 0)
(1.8164083 0 0)
(1.8124798 0 0)
(1.8082551 0 0)
(1.8037307 0 0)
(1.7989026 0 0)
(1.7937662 0 0)
(1.7883169 0 0)
(1.7824573 0 0)
(1.8412524 0 0)
(1.8410959 0 0)
(1.8406306 0 0)
(1.8398641 0 0)
(1.8388022 0 0)
(1.8374491 0 0)
(1.8358076 0 0)
(1.8338798 0 0)
(1.8316665 0 0)
(1.8291679 0 0)
(1.8263835 0 0)
(1.823312 0 0)
(1.8199517 0 0)
(1.8163005 0 0)
(1.8123555 0 0)
(1.8081138 0 0)
(1.8035718 0 0)
(1.7987258 0 0)
(1.7935717 0 0)
(1.7881056 0 0)
(1.782161 0 0)
(1.8412524 0 0)
(1.8410954 0 0)
(1.8406286 0 0)
(1.8398594 0 0)
(1.8387935 0 0)
(1.8374349 0 0)
(1.8357866 0 0)
(1.8338504 0 0)
(1.8316273 0 0)
(1.8291176 0 0)
(1.8263205 0 0)
(1.8232352 0 0)
(1.8198598 0 0)
(1.8161923 0 0)
(1.8122301 0 0)
(1.8079704 0 0)
(1.8034099 0 0)
(1.798545 0 0)
(1.7933719 0 0)
(1.7878875 0 0)
(1.7818636 0 0)
(1.8412524 0 0)
(1.841095 0 0)
(1.8406268 0 0)
(1.839855 0 0)
(1.8387852 0 0)
(1.8374214 0 0)
(1.8357663 0 0)
(1.8338218 0 0)
(1.8315889 0 0)
(1.8290677 0 0)
(1.8262578 0 0)
(1.823158 0 0)
(1.8197668 0 0)
(1.8160822 0 0)
(1.8121017 0 0)
(1.8078225 0 0)
(1.8032416 0 0)
(1.7983557 0 0)
(1.7931611 0 0)
(1.7876553 0 0)
(1.7815564 0 0)
(1.8412524 0 0)
(1.8410946 0 0)
(1.8406252 0 0)
(1.839851 0 0)
(1.8387774 0 0)
(1.8374084 0 0)
(1.8357466 0 0)
(1.8337938 0 0)
(1.8315508 0 0)
(1.8290179 0 0)
(1.8261945 0 0)
(1.8230796 0 0)
(1.8196717 0 0)
(1.8159687 0 0)
(1.8119683 0 0)
(1.8076678 0 0)
(1.8030642 0 0)
(1.7981543 0 0)
(1.7929349 0 0)
(1.7874032 0 0)
(1.781233 0 0)
(1.8412524 0 0)
(1.8410943 0 0)
(1.8406236 0 0)
(1.8398472 0 0)
(1.8387699 0 0)
(1.8373958 0 0)
(1.8357273 0 0)
(1.833766 0 0)
(1.8315128 0 0)
(1.8289678 0 0)
(1.8261304 0 0)
(1.8229996 0 0)
(1.8195738 0 0)
(1.815851 0 0)
(1.8118288 0 0)
(1.8075047 0 0)
(1.8028756 0 0)
(1.7979385 0 0)
(1.7926901 0 0)
(1.7871276 0 0)
(1.7808898 0 0)
(1.8412524 0 0)
(1.841094 0 0)
(1.8406222 0 0)
(1.8398435 0 0)
(1.8387628 0 0)
(1.8373835 0 0)
(1.8357083 0 0)
(1.8337385 0 0)
(1.8314749 0 0)
(1.8289173 0 0)
(1.8260654 0 0)
(1.8229177 0 0)
(1.8194729 0 0)
(1.8157287 0 0)
(1.8116829 0 0)
(1.8073327 0 0)
(1.8026752 0 0)
(1.7977072 0 0)
(1.7924254 0 0)
(1.7868269 0 0)
(1.7805253 0 0)
(1.8412524 0 0)
(1.8410937 0 0)
(1.8406209 0 0)
(1.8398401 0 0)
(1.8387558 0 0)
(1.8373716 0 0)
(1.8356896 0 0)
(1.8337112 0 0)
(1.8314369 0 0)
(1.8288665 0 0)
(1.8259994 0 0)
(1.8228341 0 0)
(1.819369 0 0)
(1.815602 0 0)
(1.8115306 0 0)
(1.8071519 0 0)
(1.8024629 0 0)
(1.7974604 0 0)
(1.7921409 0 0)
(1.786501 0 0)
(1.7801396 0 0)
(1.8412524 0 0)
(1.8410931 0 0)
(1.8406184 0 0)
(1.8398341 0 0)
(1.8387445 0 0)
(1.8373528 0 0)
(1.8356611 0 0)
(1.8336706 0 0)
(1.8313817 0 0)
(1.828794 0 0)
(1.8259066 0 0)
(1.8227181 0 0)
(1.8192265 0 0)
(1.8154296 0 0)
(1.8113248 0 0)
(1.806909 0 0)
(1.8021792 0 0)
(1.7971318 0 0)
(1.7917633 0 0)
(1.7860696 0 0)
(1.7796476 0 0)
(1.8412524 0 0)
(1.8410974 0 0)
(1.8406367 0 0)
(1.8398782 0 0)
(1.8388279 0 0)
(1.8374902 0 0)
(1.835868 0 0)
(1.8339631 0 0)
(1.8317765 0 0)
(1.8293081 0 0)
(1.8265571 0 0)
(1.823522 0 0)
(1.8202008 0 0)
(1.8165908 0 0)
(1.8126889 0 0)
(1.8084915 0 0)
(1.8039947 0 0)
(1.7991944 0 0)
(1.7940861 0 0)
(1.7886701 0 0)
(1.7818026 0 0)
(1.8412524 0 0)
(1.841097 0 0)
(1.8406352 0 0)
(1.8398748 0 0)
(1.8388216 0 0)
(1.83748 0 0)
(1.8358529 0 0)
(1.8339422 0 0)
(1.8317488 0 0)
(1.8292727 0 0)
(1.8265132 0 0)
(1.8234689 0 0)
(1.8201379 0 0)
(1.8165177 0 0)
(1.8126053 0 0)
(1.8083973 0 0)
(1.80389 0 0)
(1.7990794 0 0)
(1.793961 0 0)
(1.7885326 0 0)
(1.782776 0 0)
(1.8412524 0 0)
(1.8410964 0 0)
(1.8406328 0 0)
(1.8398692 0 0)
(1.8388115 0 0)
(1.837464 0 0)
(1.8358296 0 0)
(1.8339102 0 0)
(1.8317068 0 0)
(1.8292194 0 0)
(1.8264473 0 0)
(1.8233895 0 0)
(1.8200439 0 0)
(1.8164083 0 0)
(1.8124798 0 0)
(1.8082551 0 0)
(1.8037307 0 0)
(1.7989026 0 0)
(1.7937662 0 0)
(1.7883169 0 0)
(1.7824573 0 0)
(1.8412524 0 0)
(1.8410959 0 0)
(1.8406306 0 0)
(1.8398641 0 0)
(1.8388022 0 0)
(1.8374491 0 0)
(1.8358076 0 0)
(1.8338798 0 0)
(1.8316665 0 0)
(1.8291679 0 0)
(1.8263835 0 0)
(1.823312 0 0)
(1.8199517 0 0)
(1.8163005 0 0)
(1.8123555 0 0)
(1.8081138 0 0)
(1.8035718 0 0)
(1.7987258 0 0)
(1.7935717 0 0)
(1.7881056 0 0)
(1.782161 0 0)
(1.8412524 0 0)
(1.8410954 0 0)
(1.8406286 0 0)
(1.8398594 0 0)
(1.8387935 0 0)
(1.8374349 0 0)
(1.8357866 0 0)
(1.8338504 0 0)
(1.8316273 0 0)
(1.8291176 0 0)
(1.8263205 0 0)
(1.8232352 0 0)
(1.8198598 0 0)
(1.8161923 0 0)
(1.8122301 0 0)
(1.8079704 0 0)
(1.8034099 0 0)
(1.798545 0 0)
(1.7933719 0 0)
(1.7878875 0 0)
(1.7818636 0 0)
(1.8412524 0 0)
(1.841095 0 0)
(1.8406268 0 0)
(1.839855 0 0)
(1.8387852 0 0)
(1.8374214 0 0)
(1.8357663 0 0)
(1.8338218 0 0)
(1.8315889 0 0)
(1.8290677 0 0)
(1.8262578 0 0)
(1.823158 0 0)
(1.8197668 0 0)
(1.8160822 0 0)
(1.8121017 0 0)
(1.8078225 0 0)
(1.8032416 0 0)
(1.7983557 0 0)
(1.7931611 0 0)
(1.7876553 0 0)
(1.7815564 0 0)
(1.8412524 0 0)
(1.8410946 0 0)
(1.8406252 0 0)
(1.839851 0 0)
(1.8387774 0 0)
(1.8374084 0 0)
(1.8357466 0 0)
(1.8337938 0 0)
(1.8315508 0 0)
(1.8290179 0 0)
(1.8261945 0 0)
(1.8230796 0 0)
(1.8196717 0 0)
(1.8159687 0 0)
(1.8119683 0 0)
(1.8076678 0 0)
(1.8030642 0 0)
(1.7981543 0 0)
(1.7929349 0 0)
(1.7874032 0 0)
(1.781233 0 0)
(1.8412524 0 0)
(1.8410943 0 0)
(1.8406236 0 0)
(1.8398472 0 0)
(1.8387699 0 0)
(1.8373958 0 0)
(1.8357273 0 0)
(1.833766 0 0)
(1.8315128 0 0)
(1.8289678 0 0)
(1.8261304 0 0)
(1.8229996 0 0)
(1.8195738 0 0)
(1.815851 0 0)
(1.8118288 0 0)
(1.8075047 0 0)
(1.8028756 0 0)
(1.7979385 0 0)
(1.7926901 0 0)
(1.7871276 0 0)
(1.7808898 0 0)
(1.8412524 0 0)
(1.841094 0 0)
(1.8406222 0 0)
(1.8398435 0 0)
(1.8387628 0 0)
(1.8373835 0 0)
(1.8357083 0 0)
(1.8337385 0 0)
(1.8314749 0 0)
(1.8289173 0 0)
(1.8260654 0 0)
(1.8229177 0 0)
(1.8194729 0 0)
(1.8157287 0 0)
(1.8116829 0 0)
(1.8073327 0 0)
(1.8026752 0 0)
(1.7977072 0 0)
(1.7924254 0 0)
(1.7868269 0 0)
(1.7805253 0 0)
(1.8412524 0 0)
(1.8410937 0 0)
(1.8406209 0 0)
(1.8398401 0 0)
(1.8387558 0 0)
(1.8373716 0 0)
(1.8356896 0 0)
(1.8337112 0 0)
(1.8314369 0 0)
(1.8288665 0 0)
(1.8259994 0 0)
(1.8228341 0 0)
(1.819369 0 0)
(1.815602 0 0)
(1.8115306 0 0)
(1.8071519 0 0)
(1.8024629 0 0)
(1.7974604 0 0)
(1.7921409 0 0)
(1.786501 0 0)
(1.7801396 0 0)
(1.8412524 0 0)
(1.8410931 0 0)
(1.8406184 0 0)
(1.8398341 0 0)
(1.8387445 0 0)
(1.8373528 0 0)
(1.8356611 0 0)
(1.8336706 0 0)
(1.8313817 0 0)
(1.828794 0 0)
(1.8259066 0 0)
(1.8227181 0 0)
(1.8192265 0 0)
(1.8154296 0 0)
(1.8113248 0 0)
(1.806909 0 0)
(1.8021792 0 0)
(1.7971318 0 0)
(1.7917633 0 0)
(1.7860696 0 0)
(1.7796476 0 0)
(1.8412524 0 0)
(1.8410969 0 0)
(1.8406351 0 0)
(1.8398757 0 0)
(1.8388251 0 0)
(1.8374881 0 0)
(1.8358678 0 0)
(1.8339661 0 0)
(1.8317837 0 0)
(1.8293203 0 0)
(1.8265749 0 0)
(1.8235453 0 0)
(1.8202291 0 0)
(1.8166227 0 0)
(1.8127223 0 0)
(1.8085233 0 0)
(1.8040206 0 0)
(1.7992084 0 0)
(1.7940806 0 0)
(1.7886357 0 0)
(1.7823689 0 0)
(1.8412524 0 0)
(1.8410967 0 0)
(1.8406346 0 0)
(1.8398747 0 0)
(1.8388234 0 0)
(1.8374855 0 0)
(1.8358642 0 0)
(1.8339614 0 0)
(1.8317777 0 0)
(1.829313 0 0)
(1.826566 0 0)
(1.8235348 0 0)
(1.8202168 0 0)
(1.8166085 0 0)
(1.812706 0 0)
(1.8085048 0 0)
(1.8039996 0 0)
(1.7991849 0 0)
(1.7940543 0 0)
(1.7886063 0 0)
(1.7823421 0 0)
(1.8412524 0 0)
(1.8410964 0 0)
(1.8406334 0 0)
(1.839872 0 0)
(1.8388187 0 0)
(1.8374784 0 0)
(1.8358543 0 0)
(1.8339482 0 0)
(1.8317609 0 0)
(1.8292921 0 0)
(1.8265407 0 0)
(1.8235048 0 0)
(1.8201817 0 0)
(1.8165681 0 0)
(1.81266 0 0)
(1.8084528 0 0)
(1.8039415 0 0)
(1.7991203 0 0)
(1.7939831 0 0)
(1.788528 0 0)
(1.7822751 0 0)
(1.8412524 0 0)
(1.8410962 0 0)
(1.8406326 0 0)
(1.8398702 0 0)
(1.8388157 0 0)
(1.8374738 0 0)
(1.8358477 0 0)
(1.8339394 0 0)
(1.8317495 0 0)
(1.8292779 0 0)
(1.8265236 0 0)
(1.8234844 0 0)
(1.820158 0 0)
(1.8165408 0 0)
(1.8126291 0 0)
(1.8084182 0 0)
(1.8039032 0 0)
(1.7990783 0 0)
(1.7939374 0 0)
(1.7884784 0 0)
(1.7822507 0 0)
(1.8412524 0 0)
(1.8410961 0 0)
(1.8406322 0 0)
(1.8398694 0 0)
(1.8388142 0 0)
(1.8374715 0 0)
(1.8358443 0 0)
(1.8339346 0 0)
(1.8317433 0 0)
(1.8292701 0 0)
(1.8265139 0 0)
(1.823473 0 0)
(1.8201446 0 0)
(1.8165256 0 0)
(1.8126121 0 0)
(1.8083995 0 0)
(1.8038829 0 0)
(1.7990568 0 0)
(1.7939149 0 0)
(1.7884548 0 0)
(1.7822656 0 0)
(1.8412524 0 0)
(1.8410961 0 0)
(1.8406322 0 0)
(1.8398694 0 0)
(1.8388141 0 0)
(1.8374712 0 0)
(1.8358436 0 0)
(1.8339336 0 0)
(1.8317417 0 0)
(1.8292679 0 0)
(1.826511 0 0)
(1.8234695 0 0)
(1.8201405 0 0)
(1.8165211 0 0)
(1.8126072 0 0)
(1.8083947 0 0)
(1.8038785 0 0)
(1.7990531 0 0)
(1.7939125 0 0)
(1.7884537 0 0)
(1.7823161 0 0)
(1.8412524 0 0)
(1.8410963 0 0)
(1.8406326 0 0)
(1.8398702 0 0)
(1.8388153 0 0)
(1.8374728 0 0)
(1.8358456 0 0)
(1.8339358 0 0)
(1.8317442 0 0)
(1.8292706 0 0)
(1.8265141 0 0)
(1.8234729 0 0)
(1.8201444 0 0)
(1.8165257 0 0)
(1.812613 0 0)
(1.8084019 0 0)
(1.8038877 0 0)
(1.7990649 0 0)
(1.7939276 0 0)
(1.7884722 0 0)
(1.7823983 0 0)
(1.8412524 0 0)
(1.8410965 0 0)
(1.8406334 0 0)
(1.8398717 0 0)
(1.8388178 0 0)
(1.8374762 0 0)
(1.83585 0 0)
(1.8339412 0 0)
(1.8317506 0 0)
(1.8292781 0 0)
(1.8265227 0 0)
(1.8234828 0 0)
(1.8201559 0 0)
(1.8165392 0 0)
(1.8126288 0 0)
(1.8084206 0 0)
(1.80391 0 0)
(1.7990916 0 0)
(1.7939596 0 0)
(1.7885098 0 0)
(1.7825114 0 0)
(1.8412524 0 0)
(1.8410968 0 0)
(1.8406345 0 0)
(1.839874 0 0)
(1.8388214 0 0)
(1.8374813 0 0)
(1.8358568 0 0)
(1.8339496 0 0)
(1.8317608 0 0)
(1.8292901 0 0)
(1.8265368 0 0)
(1.8234991 0 0)
(1.8201748 0 0)
(1.816561 0 0)
(1.8126542 0 0)
(1.8084503 0 0)
(1.8039449 0 0)
(1.7991329 0 0)
(1.7940086 0 0)
(1.7885671 0 0)
(1.782656 0 0)
(1.8412524 0 0)
(1.8410972 0 0)
(1.840636 0 0)
(1.839877 0 0)
(1.8388263 0 0)
(1.8374882 0 0)
(1.8358658 0 0)
(1.833961 0 0)
(1.8317746 0 0)
(1.8293066 0 0)
(1.8265561 0 0)
(1.8235215 0 0)
(1.8202006 0 0)
(1.8165908 0 0)
(1.8126886 0 0)
(1.8084902 0 0)
(1.8039915 0 0)
(1.7991878 0 0)
(1.7940741 0 0)
(1.7886474 0 0)
(1.7828461 0 0)
(1.8412524 0 0)
(1.8410969 0 0)
(1.8406351 0 0)
(1.8398757 0 0)
(1.8388251 0 0)
(1.8374881 0 0)
(1.8358678 0 0)
(1.8339661 0 0)
(1.8317837 0 0)
(1.8293203 0 0)
(1.8265749 0 0)
(1.8235453 0 0)
(1.8202291 0 0)
(1.8166227 0 0)
(1.8127223 0 0)
(1.8085233 0 0)
(1.8040206 0 0)
(1.7992084 0 0)
(1.7940806 0 0)
(1.7886357 0 0)
(1.7823689 0 0)
(1.8412524 0 0)
(1.8410967 0 0)
(1.8406346 0 0)
(1.8398747 0 0)
(1.8388234 0 0)
(1.8374855 0 0)
(1.8358642 0 0)
(1.8339614 0 0)
(1.8317777 0 0)
(1.829313 0 0)
(1.826566 0 0)
(1.8235348 0 0)
(1.8202168 0 0)
(1.8166085 0 0)
(1.812706 0 0)
(1.8085048 0 0)
(1.8039996 0 0)
(1.7991849 0 0)
(1.7940543 0 0)
(1.7886063 0 0)
(1.7823421 0 0)
(1.8412524 0 0)
(1.8410964 0 0)
(1.8406334 0 0)
(1.839872 0 0)
(1.8388187 0 0)
(1.8374784 0 0)
(1.8358543 0 0)
(1.8339482 0 0)
(1.8317609 0 0)
(1.8292921 0 0)
(1.8265407 0 0)
(1.8235048 0 0)
(1.8201817 0 0)
(1.8165681 0 0)
(1.81266 0 0)
(1.8084528 0 0)
(1.8039415 0 0)
(1.7991203 0 0)
(1.7939831 0 0)
(1.788528 0 0)
(1.7822751 0 0)
(1.8412524 0 0)
(1.8410962 0 0)
(1.8406326 0 0)
(1.8398702 0 0)
(1.8388157 0 0)
(1.8374738 0 0)
(1.8358477 0 0)
(1.8339394 0 0)
(1.8317495 0 0)
(1.8292779 0 0)
(1.8265236 0 0)
(1.8234844 0 0)
(1.820158 0 0)
(1.8165408 0 0)
(1.8126291 0 0)
(1.8084182 0 0)
(1.8039032 0 0)
(1.7990783 0 0)
(1.7939374 0 0)
(1.7884784 0 0)
(1.7822507 0 0)
(1.8412524 0 0)
(1.8410961 0 0)
(1.8406322 0 0)
(1.8398694 0 0)
(1.8388142 0 0)
(1.8374715 0 0)
(1.8358443 0 0)
(1.8339346 0 0)
(1.8317433 0 0)
(1.8292701 0 0)
(1.8265139 0 0)
(1.823473 0 0)
(1.8201446 0 0)
(1.8165256 0 0)
(1.8126121 0 0)
(1.8083995 0 0)
(1.8038829 0 0)
(1.7990568 0 0)
(1.7939149 0 0)
(1.7884548 0 0)
(1.7822656 0 0)
(1.8412524 0 0)
(1.8410961 0 0)
(1.8406322 0 0)
(1.8398694 0 0)
(1.8388141 0 0)
(1.8374712 0 0)
(1.8358436 0 0)
(1.8339336 0 0)
(1.8317417 0 0)
(1.8292679 0 0)
(1.826511 0 0)
(1.8234695 0 0)
(1.8201405 0 0)
(1.8165211 0 0)
(1.8126072 0 0)
(1.8083947 0 0)
(1.8038785 0 0)
(1.7990531 0 0)
(1.7939125 0 0)
(1.7884537 0 0)
(1.7823161 0 0)
(1.8412524 0 0)
(1.8410963 0 0)
(1.8406326 0 0)
(1.8398702 0 0)
(1.8388153 0 0)
(1.8374728 0 0)
(1.8358456 0 0)
(1.8339358 0 0)
(1.8317442 0 0)
(1.8292706 0 0)
(1.8265141 0 0)
(1.8234729 0 0)
(1.8201444 0 0)
(1.8165257 0 0)
(1.812613 0 0)
(1.8084019 0 0)
(1.8038877 0 0)
(1.7990649 0 0)
(1.7939276 0 0)
(1.7884722 0 0)
(1.7823983 0 0)
(1.8412524 0 0)
(1.8410965 0 0)
(1.8406334 0 0)
(1.8398717 0 0)
(1.8388178 0 0)
(1.8374762 0 0)
(1.83585 0 0)
(1.8339412 0 0)
(1.8317506 0 0)
(1.8292781 0 0)
(1.8265227 0 0)
(1.8234828 0 0)
(1.8201559 0 0)
(1.8165392 0 0)
(1.8126288 0 0)
(1.8084206 0 0)
(1.80391 0 0)
(1.7990916 0 0)
(1.7939596 0 0)
(1.7885098 0 0)
(1.7825114 0 0)
(1.8412524 0 0)
(1.8410968 0 0)
(1.8406345 0 0)
(1.839874 0 0)
(1.8388214 0 0)
(1.8374813 0 0)
(1.8358568 0 0)
(1.8339496 0 0)
(1.8317608 0 0)
(1.8292901 0 0)
(1.8265368 0 0)
(1.8234991 0 0)
(1.8201748 0 0)
(1.816561 0 0)
(1.8126542 0 0)
(1.8084503 0 0)
(1.8039449 0 0)
(1.7991329 0 0)
(1.7940086 0 0)
(1.7885671 0 0)
(1.782656 0 0)
(1.8412524 0 0)
(1.8410972 0 0)
(1.840636 0 0)
(1.839877 0 0)
(1.8388263 0 0)
(1.8374882 0 0)
(1.8358658 0 0)
(1.833961 0 0)
(1.8317746 0 0)
(1.8293066 0 0)
(1.8265561 0 0)
(1.8235215 0 0)
(1.8202006 0 0)
(1.8165908 0 0)
(1.8126886 0 0)
(1.8084902 0 0)
(1.8039915 0 0)
(1.7991878 0 0)
(1.7940741 0 0)
(1.7886474 0 0)
(1.7828461 0 0)
(1.7746275 0 0)
(1.7658681 0 0)
(1.7565842 0 0)
(1.7467636 0 0)
(1.7363986 0 0)
(1.7254803 0 0)
(1.7139987 0 0)
(1.7019428 0 0)
(1.6893012 0 0)
(1.6760611 0 0)
(1.6622075 0 0)
(1.6477238 0 0)
(1.6325917 0 0)
(1.6167893 0 0)
(1.6002918 0 0)
(1.5830727 0 0)
(1.5651045 0 0)
(1.5463547 0 0)
(1.5267838 0 0)
(1.5063511 0 0)
(1.4850114 0 0)
(1.4627137 0 0)
(1.4394032 0 0)
(1.4150218 0 0)
(1.3895024 0 0)
(1.3627727 0 0)
(1.3347578 0 0)
(1.3053761 0 0)
(1.274532 0 0)
(1.2421255 0 0)
(1.2080594 0 0)
(1.1722201 0 0)
(1.1344672 0 0)
(1.0946464 0 0)
(1.0526177 0 0)
(1.0082454 0 0)
(0.96134776 0 0)
(0.91169608 0 0)
(0.85907614 0 0)
(0.80330376 0 0)
(0.74412479 0 0)
(0.68121903 0 0)
(0.61428283 0 0)
(0.54299526 0 0)
(0.46697146 0 0)
(0.38577781 0 0)
(0.2989752 0 0)
(0.20609218 0 0)
(0.10652892 0 0)
(0 0 0)
(1.774616 0 0)
(1.7658779 0 0)
(1.7566138 0 0)
(1.7468115 0 0)
(1.7364632 0 0)
(1.72556 0 0)
(1.7140917 0 0)
(1.7020473 0 0)
(1.6894152 0 0)
(1.6761826 0 0)
(1.6623349 0 0)
(1.6478559 0 0)
(1.6327276 0 0)
(1.6169281 0 0)
(1.6004328 0 0)
(1.5832156 0 0)
(1.5652488 0 0)
(1.5464996 0 0)
(1.5269292 0 0)
(1.5064973 0 0)
(1.4851584 0 0)
(1.4628609 0 0)
(1.4395502 0 0)
(1.4151685 0 0)
(1.3896489 0 0)
(1.3629186 0 0)
(1.3349027 0 0)
(1.3055201 0 0)
(1.2746752 0 0)
(1.2422676 0 0)
(1.2082 0 0)
(1.1723589 0 0)
(1.1346034 0 0)
(1.0947802 0 0)
(1.0527488 0 0)
(1.0083733 0 0)
(0.96147206 0 0)
(0.9118162 0 0)
(0.85919126 0 0)
(0.80341293 0 0)
(0.74422718 0 0)
(0.68131384 0 0)
(0.61436988 0 0)
(0.54307418 0 0)
(0.46704098 0 0)
(0.38583597 0 0)
(0.29902064 0 0)
(0.20612403 0 0)
(0.10654581 0 0)
(0 0 0)
(1.7745974 0 0)
(1.7659237 0 0)
(1.7567206 0 0)
(1.7469755 0 0)
(1.7366805 0 0)
(1.7258265 0 0)
(1.7144036 0 0)
(1.7024006 0 0)
(1.6898059 0 0)
(1.6766068 0 0)
(1.6627892 0 0)
(1.6483375 0 0)
(1.6332335 0 0)
(1.6174557 0 0)
(1.6009801 0 0)
(1.5837806 0 0)
(1.5658293 0 0)
(1.5470936 0 0)
(1.5275351 0 0)
(1.5071139 0 0)
(1.4857843 0 0)
(1.4634946 0 0)
(1.4401903 0 0)
(1.4158135 0 0)
(1.3902978 0 0)
(1.3635702 0 0)
(1.3355555 0 0)
(1.3061728 0 0)
(1.2753269 0 0)
(1.242917 0 0)
(1.2088453 0 0)
(1.1729985 0 0)
(1.1352349 0 0)
(1.0954024 0 0)
(1.0533596 0 0)
(1.0089704 0 0)
(0.96205321 0 0)
(0.91237873 0 0)
(0.85973177 0 0)
(0.8039281 0 0)
(0.74471343 0 0)
(0.68176681 0 0)
(0.61478595 0 0)
(0.54344971 0 0)
(0.46737076 0 0)
(0.38611308 0 0)
(0.29923859 0 0)
(0.20627684 0 0)
(0.10662614 0 0)
(0 0 0)
(1.7746563 0 0)
(1.766091 0 0)
(1.7569905 0 0)
(1.7473419 0 0)
(1.737137 0 0)
(1.7263667 0 0)
(1.7150209 0 0)
(1.7030887 0 0)
(1.6905586 0 0)
(1.6774183 0 0)
(1.6636545 0 0)
(1.6492518 0 0)
(1.6341919 0 0)
(1.6184538 0 0)
(1.6020138 0 0)
(1.5848464 0 0)
(1.5669236 0 0)
(1.5482126 0 0)
(1.5286761 0 0)
(1.508274 0 0)
(1.4869606 0 0)
(1.4646844 0 0)
(1.441391 0 0)
(1.4170225 0 0)
(1.3915131 0 0)
(1.3647893 0 0)
(1.336776 0 0)
(1.3073922 0 0)
(1.2765429 0 0)
(1.2441269 0 0)
(1.2100465 0 0)
(1.1741878 0 0)
(1.1364086 0 0)
(1.0965573 0 0)
(1.0544919 0 0)
(1.0100762 0 0)
(0.96312827 0 0)
(0.91341796 0 0)
(0.86072951 0 0)
(0.80487863 0 0)
(0.74561009 0 0)
(0.68260169 0 0)
(0.61555187 0 0)
(0.54413987 0 0)
(0.46797585 0 0)
(0.3866211 0 0)
(0.29963824 0 0)
(0.20655685 0 0)
(0.10677291 0 0)
(0 0 0)
(1.7747888 0 0)
(1.7663753 0 0)
(1.7574185 0 0)
(1.7479053 0 0)
(1.7378271 0 0)
(1.7271744 0 0)
(1.7159373 0 0)
(1.7041049 0 0)
(1.6916664 0 0)
(1.6786105 0 0)
(1.6649244 0 0)
(1.6505925 0 0)
(1.6355965 0 0)
(1.6199158 0 0)
(1.6035275 0 0)
(1.5864065 0 0)
(1.5685248 0 0)
(1.54985 0 0)
(1.5303451 0 0)
(1.5099701 0 0)
(1.4886798 0 0)
(1.4664227 0 0)
(1.4431444 0 0)
(1.4187875 0 0)
(1.3932863 0 0)
(1.3665674 0 0)
(1.3385555 0 0)
(1.3091694 0 0)
(1.2783142 0 0)
(1.2458887 0 0)
(1.2117947 0 0)
(1.1759181 0 0)
(1.1381156 0 0)
(1.0982361 0 0)
(1.0561371 0 0)
(1.0116822 0 0)
(0.96468898 0 0)
(0.91492597 0 0)
(0.86217665 0 0)
(0.80625689 0 0)
(0.74691005 0 0)
(0.68381188 0 0)
(0.6166617 0 0)
(0.54513916 0 0)
(0.46885144 0 0)
(0.38735621 0 0)
(0.30021639 0 0)
(0.20696163 0 0)
(0.10698497 0 0)
(0 0 0)
(1.7749901 0 0)
(1.766771 0 0)
(1.7579984 0 0)
(1.748659 0 0)
(1.7387434 0 0)
(1.7282423 0 0)
(1.7171453 0 0)
(1.705442 0 0)
(1.6931224 0 0)
(1.6801763 0 0)
(1.6665918 0 0)
(1.6523529 0 0)
(1.6374404 0 0)
(1.6218348 0 0)
(1.6055139 0 0)
(1.5884532 0 0)
(1.5706248 0 0)
(1.5519971 0 0)
(1.5325334 0 0)
(1.5121936 0 0)
(1.4909327 0 0)
(1.4686998 0 0)
(1.4454407 0 0)
(1.4210982 0 0)
(1.395607 0 0)
(1.3688938 0 0)
(1.340883 0 0)
(1.3114933 0 0)
(1.2806297 0 0)
(1.2481907 0 0)
(1.2140782 0 0)
(1.1781775 0 0)
(1.1403442 0 0)
(1.1004272 0 0)
(1.0582838 0 0)
(1.0137772 0 0)
(0.96672422 0 0)
(0.91689182 0 0)
(0.86406279 0 0)
(0.80805303 0 0)
(0.7486038 0 0)
(0.68538855 0 0)
(0.61810725 0 0)
(0.54644033 0 0)
(0.46999104 0 0)
(0.38831283 0 0)
(0.30096871 0 0)
(0.20748831 0 0)
(0.10726071 0 0)
(0 0 0)
(1.7752558 0 0)
(1.7672722 0 0)
(1.7587236 0 0)
(1.7495952 0 0)
(1.7398778 0 0)
(1.7295616 0 0)
(1.7186366 0 0)
(1.7070922 0 0)
(1.6949184 0 0)
(1.682107 0 0)
(1.6686481 0 0)
(1.6545247 0 0)
(1.6397155 0 0)
(1.6242018 0 0)
(1.6079638 0 0)
(1.5909768 0 0)
(1.5732138 0 0)
(1.5546438 0 0)
(1.5352304 0 0)
(1.5149331 0 0)
(1.4937076 0 0)
(1.4715037 0 0)
(1.4482671 0 0)
(1.4239414 0 0)
(1.3984618 0 0)
(1.3717546 0 0)
(1.3437443 0 0)
(1.3143493 0 0)
(1.2834745 0 0)
(1.251018 0 0)
(1.2168819 0 0)
(1.180951 0 0)
(1.1430794 0 0)
(1.1031157 0 0)
(1.060917 0 0)
(1.0163465 0 0)
(0.96921984 0 0)
(0.91930174 0 0)
(0.86637447 0 0)
(0.81025397 0 0)
(0.75067914 0 0)
(0.68732027 0 0)
(0.61987801 0 0)
(0.54803368 0 0)
(0.4713863 0 0)
(0.389484 0 0)
(0.30188967 0 0)
(0.20813282 0 0)
(0.10759795 0 0)
(0 0 0)
(1.7755831 0 0)
(1.767875 0 0)
(1.7595884 0 0)
(1.7507075 0 0)
(1.7412225 0 0)
(1.7311242 0 0)
(1.7204031 0 0)
(1.7090477 0 0)
(1.6970463 0 0)
(1.6843938 0 0)
(1.6710857 0 0)
(1.6571007 0 0)
(1.6424123 0 0)
(1.6270065 0 0)
(1.6108661 0 0)
(1.593966 0 0)
(1.5762795 0 0)
(1.5577773 0 0)
(1.5384232 0 0)
(1.5181753 0 0)
(1.4969907 0 0)
(1.47482 0 0)
(1.4516087 0 0)
(1.4273016 0 0)
(1.4018344 0 0)
(1.3751332 0 0)
(1.3471223 0 0)
(1.3177203 0 0)
(1.2868311 0 0)
(1.2543527 0 0)
(1.2201878 0 0)
(1.1842204 0 0)
(1.146303 0 0)
(1.1062835 0 0)
(1.064019 0 0)
(1.0193727 0 0)
(0.9721585 0 0)
(0.92213892 0 0)
(0.86909554 0 0)
(0.81284431 0 0)
(0.75312119 0 0)
(0.68959319 0 0)
(0.6219613 0 0)
(0.54990788 0 0)
(0.47302703 0 0)
(0.3908611 0 0)
(0.30297258 0 0)
(0.20889051 0 0)
(0.10799418 0 0)
(0 0 0)
(1.7759712 0 0)
(1.7685766 0 0)
(1.7605888 0 0)
(1.7519904 0 0)
(1.7427704 0 0)
(1.7329223 0 0)
(1.7224387 0 0)
(1.7113046 0 0)
(1.6995056 0 0)
(1.6870376 0 0)
(1.6738979 0 0)
(1.6600669 0 0)
(1.645519 0 0)
(1.6302391 0 0)
(1.6142112 0 0)
(1.5974108 0 0)
(1.579811 0 0)
(1.5613856 0 0)
(1.5420983 0 0)
(1.5219048 0 0)
(1.5007654 0 0)
(1.4786318 0 0)
(1.4554478 0 0)
(1.4311602 0 0)
(1.4057058 0 0)
(1.3790099 0 0)
(1.3509971 0 0)
(1.3215856 0 0)
(1.2906786 0 0)
(1.258174 0 0)
(1.2239746 0 0)
(1.1879643 0 0)
(1.1499936 0 0)
(1.1099095 0 0)
(1.0675687 0 0)
(1.0228348 0 0)
(0.97552003 0 0)
(0.92538387 0 0)
(0.87220706 0 0)
(0.81580573 0 0)
(0.75591275 0 0)
(0.69219119 0 0)
(0.6243422 0 0)
(0.55204931 0 0)
(0.47490148 0 0)
(0.39243431 0 0)
(0.30420955 0 0)
(0.20975568 0 0)
(0.10844646 0 0)
(0 0 0)
(1.7764424 0 0)
(1.7694 0 0)
(1.761748 0 0)
(1.7534666 0 0)
(1.7445474 0 0)
(1.7349864 0 0)
(1.7247719 0 0)
(1.7138873 0 0)
(1.7023193 0 0)
(1.6900596 0 0)
(1.6771045 0 0)
(1.6634444 0 0)
(1.6490566 0 0)
(1.63392 0 0)
(1.6180187 0 0)
(1.6013289 0 0)
(1.5838223 0 0)
(1.5654772 0 0)
(1.5462604 0 0)
(1.5261268 0 0)
(1.5050384 0 0)
(1.4829441 0 0)
(1.4597867 0 0)
(1.4355176 0 0)
(1.4100746 0 0)
(1.383382 0 0)
(1.3553644 0 0)
(1.32594 0 0)
(1.2950108 0 0)
(1.262474 0 0)
(1.2282336 0 0)
(1.1921731 0 0)
(1.1541407 0 0)
(1.1139825 0 0)
(1.0715547 0 0)
(1.026721 0 0)
(0.97929188 0 0)
(0.9290238 0 0)
(0.87569644 0 0)
(0.81912582 0 0)
(0.75904143 0 0)
(0.69510233 0 0)
(0.62700947 0 0)
(0.55444758 0 0)
(0.47700008 0 0)
(0.3941953 0 0)
(0.30559398 0 0)
(0.21072371 0 0)
(0.10895214 0 0)
(0 0 0)
(1.7753911 0 0)
(1.7686844 0 0)
(1.7613577 0 0)
(1.7533919 0 0)
(1.744782 0 0)
(1.7355178 0 0)
(1.7255813 0 0)
(1.7149613 0 0)
(1.7036445 0 0)
(1.6916173 0 0)
(1.6788764 0 0)
(1.6654164 0 0)
(1.651216 0 0)
(1.6362518 0 0)
(1.6205076 0 0)
(1.6039596 0 0)
(1.5865812 0 0)
(1.568352 0 0)
(1.549241 0 0)
(1.529206 0 0)
(1.5082053 0 0)
(1.4861848 0 0)
(1.4630919 0 0)
(1.4388809 0 0)
(1.4134884 0 0)
(1.3868384 0 0)
(1.3588556 0 0)
(1.3294581 0 0)
(1.2985471 0 0)
(1.2660191 0 0)
(1.2317785 0 0)
(1.1957087 0 0)
(1.1576564 0 0)
(1.1174665 0 0)
(1.0749941 0 0)
(1.0301024 0 0)
(0.98260121 0 0)
(0.93224405 0 0)
(0.87880874 0 0)
(0.82211 0 0)
(0.76187574 0 0)
(0.69776044 0 0)
(0.62946366 0 0)
(0.55667108 0 0)
(0.47896159 0 0)
(0.39585553 0 0)
(0.30691158 0 0)
(0.21165653 0 0)
(0.10945229 0 0)
(0 0 0)
(1.7746275 0 0)
(1.7658681 0 0)
(1.7565842 0 0)
(1.7467636 0 0)
(1.7363986 0 0)
(1.7254803 0 0)
(1.7139987 0 0)
(1.7019428 0 0)
(1.6893012 0 0)
(1.6760611 0 0)
(1.6622075 0 0)
(1.6477238 0 0)
(1.6325917 0 0)
(1.6167893 0 0)
(1.6002918 0 0)
(1.5830727 0 0)
(1.5651045 0 0)
(1.5463547 0 0)
(1.5267838 0 0)
(1.5063511 0 0)
(1.4850114 0 0)
(1.4627137 0 0)
(1.4394032 0 0)
(1.4150218 0 0)
(1.3895024 0 0)
(1.3627727 0 0)
(1.3347578 0 0)
(1.3053761 0 0)
(1.274532 0 0)
(1.2421255 0 0)
(1.2080594 0 0)
(1.1722201 0 0)
(1.1344672 0 0)
(1.0946464 0 0)
(1.0526177 0 0)
(1.0082454 0 0)
(0.96134776 0 0)
(0.91169608 0 0)
(0.85907614 0 0)
(0.80330376 0 0)
(0.74412479 0 0)
(0.68121903 0 0)
(0.61428283 0 0)
(0.54299526 0 0)
(0.46697146 0 0)
(0.38577781 0 0)
(0.2989752 0 0)
(0.20609218 0 0)
(0.10652892 0 0)
(0 0 0)
(1.774616 0 0)
(1.7658779 0 0)
(1.7566138 0 0)
(1.7468115 0 0)
(1.7364632 0 0)
(1.72556 0 0)
(1.7140917 0 0)
(1.7020473 0 0)
(1.6894152 0 0)
(1.6761826 0 0)
(1.6623349 0 0)
(1.6478559 0 0)
(1.6327276 0 0)
(1.6169281 0 0)
(1.6004328 0 0)
(1.5832156 0 0)
(1.5652488 0 0)
(1.5464996 0 0)
(1.5269292 0 0)
(1.5064973 0 0)
(1.4851584 0 0)
(1.4628609 0 0)
(1.4395502 0 0)
(1.4151685 0 0)
(1.3896489 0 0)
(1.3629186 0 0)
(1.3349027 0 0)
(1.3055201 0 0)
(1.2746752 0 0)
(1.2422676 0 0)
(1.2082 0 0)
(1.1723589 0 0)
(1.1346034 0 0)
(1.0947802 0 0)
(1.0527488 0 0)
(1.0083733 0 0)
(0.96147206 0 0)
(0.9118162 0 0)
(0.85919126 0 0)
(0.80341293 0 0)
(0.74422718 0 0)
(0.68131384 0 0)
(0.61436988 0 0)
(0.54307418 0 0)
(0.46704098 0 0)
(0.38583597 0 0)
(0.29902064 0 0)
(0.20612403 0 0)
(0.10654581 0 0)
(0 0 0)
(1.7745974 0 0)
(1.7659237 0 0)
(1.7567206 0 0)
(1.7469755 0 0)
(1.7366805 0 0)
(1.7258265 0 0)
(1.7144036 0 0)
(1.7024006 0 0)
(1.6898059 0 0)
(1.6766068 0 0)
(1.6627892 0 0)
(1.6483375 0 0)
(1.6332335 0 0)
(1.6174557 0 0)
(1.6009801 0 0)
(1.5837806 0 0)
(1.5658293 0 0)
(1.5470936 0 0)
(1.5275351 0 0)
(1.5071139 0 0)
(1.4857843 0 0)
(1.4634946 0 0)
(1.4401903 0 0)
(1.4158135 0 0)
(1.3902978 0 0)
(1.3635702 0 0)
(1.3355555 0 0)
(1.3061728 0 0)
(1.2753269 0 0)
(1.242917 0 0)
(1.2088453 0 0)
(1.1729985 0 0)
(1.1352349 0 0)
(1.0954024 0 0)
(1.0533596 0 0)
(1.0089704 0 0)
(0.96205321 0 0)
(0.91237873 0 0)
(0.85973177 0 0)
(0.8039281 0 0)
(0.74471343 0 0)
(0.68176681 0 0)
(0.61478595 0 0)
(0.54344971 0 0)
(0.46737076 0 0)
(0.38611308 0 0)
(0.29923859 0 0)
(0.20627684 0 0)
(0.10662614 0 0)
(0 0 0)
(1.7746563 0 0)
(1.766091 0 0)
(1.7569905 0 0)
(1.7473419 0 0)
(1.737137 0 0)
(1.7263667 0 0)
(1.7150209 0 0)
(1.7030887 0 0)
(1.6905586 0 0)
(1.6774183 0 0)
(1.6636545 0 0)
(1.6492518 0 0)
(1.6341919 0 0)
(1.6184538 0 0)
(1.6020138 0 0)
(1.5848464 0 0)
(1.5669236 0 0)
(1.5482126 0 0)
(1.5286761 0 0)
(1.508274 0 0)
(1.4869606 0 0)
(1.4646844 0 0)
(1.441391 0 0)
(1.4170225 0 0)
(1.3915131 0 0)
(1.3647893 0 0)
(1.336776 0 0)
(1.3073922 0 0)
(1.2765429 0 0)
(1.2441269 0 0)
(1.2100465 0 0)
(1.1741878 0 0)
(1.1364086 0 0)
(1.0965573 0 0)
(1.0544919 0 0)
(1.0100762 0 0)
(0.96312827 0 0)
(0.91341796 0 0)
(0.86072951 0 0)
(0.80487863 0 0)
(0.74561009 0 0)
(0.68260169 0 0)
(0.61555187 0 0)
(0.54413987 0 0)
(0.46797585 0 0)
(0.3866211 0 0)
(0.29963824 0 0)
(0.20655685 0 0)
(0.10677291 0 0)
(0 0 0)
(1.7747888 0 0)
(1.7663753 0 0)
(1.7574185 0 0)
(1.7479053 0 0)
(1.7378271 0 0)
(1.7271744 0 0)
(1.7159373 0 0)
(1.7041049 0 0)
(1.6916664 0 0)
(1.6786105 0 0)
(1.6649244 0 0)
(1.6505925 0 0)
(1.6355965 0 0)
(1.6199158 0 0)
(1.6035275 0 0)
(1.5864065 0 0)
(1.5685248 0 0)
(1.54985 0 0)
(1.5303451 0 0)
(1.5099701 0 0)
(1.4886798 0 0)
(1.4664227 0 0)
(1.4431444 0 0)
(1.4187875 0 0)
(1.3932863 0 0)
(1.3665674 0 0)
(1.3385555 0 0)
(1.3091694 0 0)
(1.2783142 0 0)
(1.2458887 0 0)
(1.2117947 0 0)
(1.1759181 0 0)
(1.1381156 0 0)
(1.0982361 0 0)
(1.0561371 0 0)
(1.0116822 0 0)
(0.96468898 0 0)
(0.91492597 0 0)
(0.86217665 0 0)
(0.80625689 0 0)
(0.74691005 0 0)
(0.68381188 0 0)
(0.6166617 0 0)
(0.54513916 0 0)
(0.46885144 0 0)
(0.38735621 0 0)
(0.30021639 0 0)
(0.20696163 0 0)
(0.10698497 0 0)
(0 0 0)
(1.7749901 0 0)
(1.766771 0 0)
(1.7579984 0 0)
(1.748659 0 0)
(1.7387434 0 0)
(1.7282423 0 0)
(1.7171453 0 0)
(1.705442 0 0)
(1.6931224 0 0)
(1.6801763 0 0)
(1.6665918 0 0)
(1.6523529 0 0)
(1.6374404 0 0)
(1.6218348 0 0)
(1.6055139 0 0)
(1.5884532 0 0)
(1.5706248 0 0)
(1.5519971 0 0)
(1.5325334 0 0)
(1.5121936 0 0)
(1.4909327 0 0)
(1.4686998 0 0)
(1.4454407 0 0)
(1.4210982 0 0)
(1.395607 0 0)
(1.3688938 0 0)
(1.340883 0 0)
(1.3114933 0 0)
(1.2806297 0 0)
(1.2481907 0 0)
(1.2140782 0 0)
(1.1781775 0 0)
(1.1403442 0 0)
(1.1004272 0 0)
(1.0582838 0 0)
(1.0137772 0 0)
(0.96672422 0 0)
(0.91689182 0 0)
(0.86406279 0 0)
(0.80805303 0 0)
(0.7486038 0 0)
(0.68538855 0 0)
(0.61810725 0 0)
(0.54644033 0 0)
(0.46999104 0 0)
(0.38831283 0 0)
(0.30096871 0 0)
(0.20748831 0 0)
(0.10726071 0 0)
(0 0 0)
(1.7752558 0 0)
(1.7672722 0 0)
(1.7587236 0 0)
(1.7495952 0 0)
(1.7398778 0 0)
(1.7295616 0 0)
(1.7186366 0 0)
(1.7070922 0 0)
(1.6949184 0 0)
(1.682107 0 0)
(1.6686481 0 0)
(1.6545247 0 0)
(1.6397155 0 0)
(1.6242018 0 0)
(1.6079638 0 0)
(1.5909768 0 0)
(1.5732138 0 0)
(1.5546438 0 0)
(1.5352304 0 0)
(1.5149331 0 0)
(1.4937076 0 0)
(1.4715037 0 0)
(1.4482671 0 0)
(1.4239414 0 0)
(1.3984618 0 0)
(1.3717546 0 0)
(1.3437443 0 0)
(1.3143493 0 0)
(1.2834745 0 0)
(1.251018 0 0)
(1.2168819 0 0)
(1.180951 0 0)
(1.1430794 0 0)
(1.1031157 0 0)
(1.060917 0 0)
(1.0163465 0 0)
(0.96921984 0 0)
(0.91930174 0 0)
(0.86637447 0 0)
(0.81025397 0 0)
(0.75067914 0 0)
(0.68732027 0 0)
(0.61987801 0 0)
(0.54803368 0 0)
(0.4713863 0 0)
(0.389484 0 0)
(0.30188967 0 0)
(0.20813282 0 0)
(0.10759795 0 0)
(0 0 0)
(1.7755831 0 0)
(1.767875 0 0)
(1.7595884 0 0)
(1.7507075 0 0)
(1.7412225 0 0)
(1.7311242 0 0)
(1.7204031 0 0)
(1.7090477 0 0)
(1.6970463 0 0)
(1.6843938 0 0)
(1.6710857 0 0)
(1.6571007 0 0)
(1.6424123 0 0)
(1.6270065 0 0)
(1.6108661 0 0)
(1.593966 0 0)
(1.5762795 0 0)
(1.5577773 0 0)
(1.5384232 0 0)
(1.5181753 0 0)
(1.4969907 0 0)
(1.47482 0 0)
(1.4516087 0 0)
(1.4273016 0 0)
(1.4018344 0 0)
(1.3751332 0 0)
(1.3471223 0 0)
(1.3177203 0 0)
(1.2868311 0 0)
(1.2543527 0 0)
(1.2201878 0 0)
(1.1842204 0 0)
(1.146303 0 0)
(1.1062835 0 0)
(1.064019 0 0)
(1.0193727 0 0)
(0.9721585 0 0)
(0.92213892 0 0)
(0.86909554 0 0)
(0.81284431 0 0)
(0.75312119 0 0)
(0.68959319 0 0)
(0.6219613 0 0)