/*--------------------------------*- C++ -*----------------------------------*\
| =========                 |                                                 |
| \\      /  F ield         | OpenFOAM: The Open Source CFD Toolbox           |
|  \\    /   O peration     | Version:  v2012                                 |
|   \\  /    A nd           | Website:  www.openfoam.com                      |
|    \\/     M anipulation  |                                                 |
\*---------------------------------------------------------------------------*/
FoamFile
{
    version     2.0;
    format      ascii;
    class       volVectorField;
    location    "100.337729823899352";
    object      U;
}
// * * * * * * * * * * * * * * * * * * * * * * * * * * * * * * * * * * * * * //

dimensions      [0 1 -1 0 0 0 0];


internalField   nonuniform List<vector> 
9200
(
(2.6586086 -0.00021681639 0)
(2.6600191 -0.0011560958 4.1867197e-24)
(2.6592171 0.0002255127 2.4202636e-21)
(2.6622441 -0.0017089625 -3.3178194e-21)
(2.6607174 0.00038037487 0)
(2.658555 0.00050054353 -1.675297e-22)
(2.665442 -0.0027796608 6.8329178e-21)
(2.6631266 0.00080499618 -3.176945e-21)
(2.6600256 0.0012673471 -1.6819122e-23)
(2.6576892 0.00076512464 -2.3822814e-21)
(2.6693483 -0.0037766955 -3.3630362e-21)
(2.6666708 0.00080388062 -3.2837892e-21)
(2.6624197 0.0023013472 -2.8419427e-21)
(2.6591149 0.0021862903 -2.7838312e-23)
(2.6563692 0.0009717066 -1.0135016e-20)
(2.673899 -0.0052814731 -4.7356147e-21)
(2.6710676 0.00092925512 -3.5187592e-21)
(2.6659623 0.0030039555 -7.0751787e-21)
(2.6614337 0.003860027 -1.4462588e-21)
(2.6576849 0.0029276001 8.9745973e-21)
(2.6548214 0.0011219281 -5.3953238e-21)
(2.6789413 -0.0070665626 -1.1251239e-22)
(2.6763864 0.00061321521 5.8088057e-21)
(2.6703931 0.0039378776 5.0583757e-22)
(2.6648989 0.0053160194 1.0805625e-20)
(2.6598346 0.0051268094 2.9194176e-21)
(2.6559834 0.0034684725 2.4507205e-21)
(2.653127 0.0012120337 1.0382497e-20)
(2.6843747 -0.0094527772 8.4260585e-21)
(2.6824868 9.3276326e-05 4.1915746e-21)
(2.6758418 0.004575917 -7.4108114e-22)
(2.6692553 0.0071306908 -7.1561967e-21)
(2.6630551 0.0072289932 7.9898646e-21)
(2.6579 0.0060533691 4.7579992e-21)
(2.6541091 0.0037732568 -8.9321553e-21)
(2.6514123 0.0012365824 4.1804285e-21)
(2.6900555 -0.0124462 1.2878515e-21)
(2.6893938 -0.00099525878 1.855808e-21)
(2.6821957 0.0051826741 4.3018842e-21)
(2.6746793 0.0088424802 -8.6733827e-21)
(2.6671004 0.0098221677 -1.3554494e-21)
(2.6607541 0.0086464414 -5.8950481e-21)
(2.6557482 0.0065762691 -2.583971e-22)
(2.65221 0.0038360764 7.1774619e-22)
(2.6497775 0.0011966078 1.25185e-22)
(2.6958512 -0.016233751 -1.1845203e-21)
(2.6970309 -0.0026850632 3.8696791e-21)
(2.68956 0.0054287591 -6.0393117e-21)
(2.6810903 0.010759382 -1.5224897e-21)
(2.6721576 0.012528352 4.7561372e-21)
(2.66431 0.011843415 1.1457296e-20)
(2.6581488 0.0094602995 -5.6192384e-21)
(2.6535552 0.0066832877 2.1015595e-21)
(2.6504018 0.0036703096 -3.7905083e-21)
(2.6483079 0.0011010678 9.6580358e-21)
(2.7016049 -0.020915107 -1.6032995e-23)
(2.7053755 -0.0052307301 -1.3616199e-21)
(2.6979316 0.0053001196 1.5942558e-21)
(2.6886583 0.012621287 5.9796719e-21)
(2.6781584 0.015709165 -5.1454579e-21)
(2.6687304 0.015346647 7.4300343e-21)
(2.6610867 0.013022767 -2.0188172e-22)
(2.655468 0.0096440484 -4.0838705e-23)
(2.6514641 0.00639753 -2.2672023e-21)
(2.6487821 0.0033055927 -5.4054474e-21)
(2.6470635 0.00096080458 5.8125041e-21)
(2.7071703 -0.026617077 1.0434456e-21)
(2.7143579 -0.0088153473 1.7676082e-21)
(2.7073912 0.0045543767 -2.7039576e-22)
(2.6974488 0.014470808 -3.9452517e-21)
(2.6852933 0.019203094 2.5209003e-21)
(2.6739338 0.019566792 8.1310093e-21)
(2.6646719 0.017027411 -1.5398544e-21)
(2.6577344 0.013308577 -4.343811e-21)
(2.652903 0.0092303066 -6.0378608e-23)
(2.6495945 0.005772092 -3.1646785e-21)
(2.64742 0.0027839468 3.6985284e-21)
(2.646083 0.00078909277 -5.9960776e-21)
(2.7123569 -0.033435656 -4.9607337e-21)
(2.7239059 -0.013669981 -1.2070081e-22)
(2.7179844 0.0030045551 -1.2675787e-22)
(2.707645 0.016138363 1.2901115e-21)
(2.6936573 0.023146733 -1.3503756e-21)
(2.6800799 0.024441576 -1.989265e-21)
(2.6687893 0.021914442 4.6542991e-21)
(2.6604 0.01747544 -2.1161664e-21)
(2.6545152 0.012743842 -1.8096571e-21)
(2.6506133 0.0082997191 -1.9639828e-21)
(2.6480312 0.0048801437 -3.8346025e-22)
(2.6463571 0.0021560682 2.1227942e-21)
(2.6453808 0.00059955088 -1.6119447e-21)
(2.7169835 -0.041462027 3.5160426e-22)
(2.7339075 -0.020018745 -6.2117829e-21)
(2.7297694 0.00038739286 -1.4634649e-21)
(2.7194157 0.017499848 -1.5107708e-21)
(2.7034799 0.027500403 -1.8364106e-21)
(2.6872371 0.030205641 2.6342685e-21)
(2.673527 0.02769385 -6.4736853e-22)
(2.6633074 0.022586555 -7.6148846e-21)
(2.6562852 0.016745474 -2.4868551e-22)
(2.6516454 0.011446436 5.8097142e-21)
(2.64871 0.006963635 -6.1379694e-21)
(2.6468254 0.0038065632 5.1029328e-21)
(2.6456068 0.0014737633 -5.1236938e-21)
(2.6449343 0.00041540951 -6.2745423e-23)
(2.7208715 -0.050750301 2.2677395e-21)
(2.7442232 -0.028085512 5.9958954e-22)
(2.7427857 -0.0035858257 2.3336036e-21)
(2.7329796 0.018356006 -1.341972e-21)
(2.7149935 0.032281357 -9.5816887e-22)
(2.6955965 0.036959914 -1.926434e-21)
(2.6788775 0.034665674 -2.4614772e-23)
(2.6664579 0.028680367 1.5073988e-21)
(2.6580174 0.021653571 -3.0035995e-21)
(2.6526266 0.015008502 -6.8565044e-21)
(2.6492721 0.0095789977 3.0266846e-21)
(2.6472588 0.0053496805 2.3064737e-21)
(2.6459964 0.0026402181 1.7141326e-21)
(2.6451585 0.00078584262 5.8563624e-21)
(2.6447526 0.00026962975 -2.3657056e-21)
(2.7238414 -0.061327052 -4.2250087e-21)
(2.754674 -0.03807775 -1.8401436e-21)
(2.7570441 -0.0092351496 1.9334733e-22)
(2.7485694 0.018466234 5.342522e-22)
(2.7285118 0.037464421 1.8457471e-22)
(2.7053541 0.044887889 5.7051477e-22)
(2.6849202 0.043030018 2.127566e-21)
(2.6697487 0.036066528 8.2640059e-22)
(2.6596396 0.027493392 4.604002e-22)
(2.6533366 0.019365971 0)
(2.649619 0.012499917 2.2116163e-22)
(2.6474772 0.007323558 -7.6658805e-21)
(2.646284 0.0035900187 6.4659563e-21)
(2.6455362 0.0014683996 -1.2077385e-20)
(2.6449906 0.00014834999 4.9554524e-21)
(2.6447474 0.00015404117 -2.8621042e-21)
(2.7257292 -0.073185182 9.4720768e-22)
(2.7650404 -0.050159711 -5.4900657e-21)
(2.7725175 -0.016918239 -3.6532978e-21)
(2.7664336 0.017538548 6.5796619e-22)
(2.7443897 0.043002771 -2.0504292e-22)
(2.716785 0.054174779 2.6622641e-21)
(2.6917196 0.053089211 -2.6637393e-21)
(2.6731205 0.044965814 -2.4516924e-22)
(2.6609704 0.03453111 -4.1034798e-21)
(2.6536603 0.024506342 1.5155424e-21)
(2.6495217 0.016065943 2.1179948e-22)
(2.6473611 0.0094752244 3.6013337e-21)
(2.6462879 0.0048627494 2.3878188e-21)
(2.6457765 0.001812576 -4.0536387e-22)
(2.6454134 0.00037273589 4.848739e-22)
(2.6450724 -0.0003899657 -5.5909799e-21)
(2.6448761 7.4662657e-05 -6.5026504e-21)
(2.7263863 -0.086277964 2.5610338e-21)
(2.7750675 -0.064458673 -1.0169435e-21)
(2.7891284 -0.026992642 1.2025644e-21)
(2.7868196 0.015222347 1.6240119e-21)
(2.7630411 0.048821463 4.9825254e-21)
(2.7302089 0.065024873 -8.1098316e-22)
(2.6993806 0.065182878 -4.7625928e-21)
(2.6764654 0.055695992 -2.1446634e-21)
(2.6618412 0.042930824 -2.6580959e-21)
(2.6533776 0.03062327 -1.3150012e-22)
(2.6488535 0.020223032 -4.2689259e-23)
(2.6466835 0.012111393 0)
(2.645876 0.0061797991 -6.6684783e-21)
(2.6456907 0.0023673021 2.4279961e-21)
(2.6457033 0.00013388443 -5.8700838e-21)
(2.6455806 -0.00057707423 5.5400289e-21)
(2.6453469 -0.00080368634 0)
(2.6451123 2.3679514e-05 2.2602976e-22)
(2.7255559 -0.10051366 3.363086e-23)
(2.7844244 -0.081038393 3.15594e-22)
(2.8067194 -0.039847707 -5.090912e-21)
(2.8099575 0.011116405 6.974971e-21)
(2.7849165 0.054805044 5.5835236e-22)
(2.7460126 0.077666378 -4.2240144e-21)
(2.708022 0.079710007 -3.0492904e-21)
(2.6796603 0.068616906 3.0500435e-21)
(2.6620086 0.052920395 3.0788497e-21)
(2.6522747 0.037783358 2.8650006e-21)
(2.6473997 0.025092948 4.3336727e-21)
(2.645329 0.015148332 -2.9797116e-21)
(2.6448265 0.0078274773 2.9964646e-21)
(2.6451365 0.0028322927 2.5021048e-22)
(2.6456429 -1.1863019e-05 -2.3084628e-21)
(2.6460139 -0.0013470576 6.6149473e-22)
(2.6459846 -0.0013265065 0)
(2.6457466 -0.0010747348 4.0034378e-21)
(2.645398 -4.5431187e-06 -6.7632387e-22)
(2.7227505 -0.11572916 3.1209155e-22)
(2.7928785 -0.099893833 -8.2538001e-22)
(2.8250244 -0.055811446 -6.6406308e-21)
(2.8360613 0.0046883128 -3.2405873e-21)
(2.810486 0.060829741 2.3120777e-21)
(2.7646233 0.092336044 7.5464498e-22)
(2.7177932 0.097141279 -7.2346708e-22)
(2.6825405 0.084153905 2.1764413e-21)
(2.6611738 0.064737019 -2.0745384e-21)
(2.65006 0.046071263 -4.9165475e-22)
(2.644966 0.030648697 8.8834139e-22)
(2.6431189 0.018658823 -2.1433399e-21)
(2.6430443 0.0097116198 1.8739091e-21)
(2.6438936 0.0034849007 -8.8289746e-22)
(2.6450887 -0.0003824018 5.8824164e-22)
(2.6460866 -0.002148205 2.1613178e-22)
(2.646645 -0.0025515528 -4.8973382e-22)
(2.6465653 -0.0018380358 -3.4600644e-21)
(2.6462105 -0.001185636 -1.8382275e-22)
(2.6456912 -3.3727347e-06 -8.9104852e-21)
(2.71772 -0.13219379 -3.5454402e-21)
(2.8005545 -0.12108782 -1.5760962e-21)
(2.8439036 -0.075237798 -2.9274958e-22)
(2.8654131 -0.004613264 -1.3383422e-20)
(2.8403588 0.066684088 1.172177e-20)
(2.7865109 0.10929115 -2.4538865e-22)
(2.7288449 0.11800765 7.7689025e-21)
(2.684902 0.10281649 6.107529e-21)
(2.6589526 0.07864161 1.1806098e-21)
(2.6463825 0.0555315 -1.0731114e-21)
(2.6413022 0.036841854 -2.766769e-21)
(2.6399227 0.022557461 -2.7331523e-21)
(2.6403977 0.011889226 -2.1239047e-21)
(2.6418826 0.0042394713 2.1544578e-21)
(2.6438027 -0.00070305269 1.1824191e-21)
(2.6456639 -0.0033139321 -3.0268746e-22)
(2.646955 -0.0039431897 0)
(2.6475275 -0.0034253208 9.3239373e-21)
(2.6472566 -0.0020950728 -4.3541134e-21)
(2.6466826 -0.0011249667 -4.2363448e-21)
(2.6459144 5.8995429e-05 1.0910891e-22)
(2.7140639 -0.14972767 -3.5912127e-21)
(2.8077028 -0.14499309 -1.2969922e-21)
(2.8631945 -0.098479148 5.9926318e-23)
(2.8982109 -0.017525424 1.4070543e-21)
(2.8754803 0.07200801 1.9061334e-21)
(2.812505 0.12876889 6.235018e-21)
(2.7413617 0.14291084 1.8475516e-21)
(2.6864735 0.12519198 2.2648219e-22)
(2.6548676 0.094931952 3.6248246e-21)
(2.6408026 0.066169387 2.6653551e-21)
(2.6361244 0.043543505 1.7832452e-21)
(2.63559 0.026714417 -4.1321218e-22)
(2.6368358 0.014264814 -3.3545111e-21)
(2.6390106 0.0051694177 2.1971711e-21)
(2.6417141 -0.0010377935 -8.4610279e-21)
(2.6444699 -0.0045734794 2.4026336e-22)
(2.6467872 -0.0058453323 6.2998152e-21)
(2.6481749 -0.0053245488 -4.9367246e-22)
(2.6485906 -0.0039352277 6.0022689e-21)
(2.6479962 -0.0020908436 4.2310631e-21)
(2.6471159 -0.00089578633 9.6960205e-21)
(2.6460419 0.00019757946 1.5459406e-20)
(2.7147503 -0.16679268 0)
(2.8127489 -0.17056112 1.1538399e-21)
(2.8816734 -0.12496815 -9.4148205e-22)
(2.9329814 -0.034267795 -2.857033e-20)
(2.9154459 0.076410632 -2.3026165e-21)
(2.8437867 0.15080799 1.1840884e-20)
(2.75603 0.17247103 -4.323204e-21)
(2.6869463 0.15195646 -4.6871141e-21)
(2.648324 0.11393124 -1.7814502e-21)
(2.6327876 0.077955014 -1.7043325e-21)
(2.6290931 0.050537043 -1.0791937e-22)
(2.6299784 0.030899512 -6.2593118e-22)
(2.6323272 0.016694716 -5.5750748e-22)
(2.6352946 0.0062148793 2.4053818e-21)
(2.6387427 -0.001274719 -3.081735e-21)
(2.6424293 -0.0059619098 2.0510196e-21)
(2.6458191 -0.0080014928 -5.182544e-21)
(2.6483835 -0.0078893957 6.4136254e-21)
(2.6496697 -0.0062457535 -4.0686563e-23)
(2.6497623 -0.0040669492 -1.845048e-20)
(2.6487294 -0.0018219214 4.9502623e-21)
(2.6474711 -0.00051332878 -3.3810223e-21)
(2.6460664 0.00036260669 -1.114459e-21)
(2.7209919 -0.18143245 0)
(2.8124327 -0.1958474 -4.8007549e-22)
(2.893128 -0.15154388 2.4308093e-20)
(2.9632155 -0.052990086 1.756571e-20)
(2.9552616 0.080935097 -3.0715626e-20)
(2.8777515 0.17576041 6.9552504e-21)
(2.7736757 0.20730479 -5.3656003e-21)
(2.6863657 0.18385825 -1.3207496e-20)
(2.6386114 0.1359907 -1.2831036e-21)
(2.6216981 0.090803418 -3.0286635e-21)
(2.6198157 0.057519934 -3.4540832e-21)
(2.6229372 0.034771874 -1.7044428e-22)
(2.6268942 0.018936449 -6.3716369e-22)
(2.6308054 0.0072823836 -3.2333414e-22)
(2.6349433 -0.0014060743 3.0649464e-21)
(2.6394431 -0.0073246387 -1.281973e-21)
(2.6439501 -0.010420338 8.1485345e-21)
(2.6477798 -0.010890971 -6.5007624e-21)
(2.6503748 -0.0093848083 7.0125369e-22)
(2.6513615 -0.0066823637 -4.3783669e-21)
(2.6509763 -0.0038226458 1.0546399e-20)
(2.649407 -0.0013009638 -1.0498142e-22)
(2.6477131 3.0898548e-06 -1.0094803e-20)
(2.6459462 0.0005466872 -5.2792694e-21)
(2.7348641 -0.19193999 4.1095623e-21)
(2.8076031 -0.21932887 3.7195075e-22)
(2.8947879 -0.17634892 8.6322384e-21)
(2.9740575 -0.072365753 3.3230091e-20)
(2.9861938 0.087984558 1.7804566e-20)
(2.9050218 0.20554343 3.6963989e-21)
(2.7894291 0.24840466 8.8958864e-21)
(2.6847613 0.22189835 6.2225841e-21)
(2.6250759 0.16149182 -5.9627672e-22)
(2.606788 0.10456742 5.9772061e-22)
(2.6078442 0.064087811 9.1827672e-22)
(2.6143127 0.037884169 1.382512e-21)
(2.6206006 0.020636161 5.5845465e-22)
(2.6257082 0.0082019219 4.4928033e-22)
(2.6304457 -0.0014295565 1.2501959e-21)
(2.6355633 -0.0085712723 -2.1933903e-21)
(2.6410364 -0.012913119 2.9511561e-21)
(2.6462225 -0.014322056 -1.1138366e-21)
(2.6502816 -0.013166937 -4.0032415e-21)
(2.65268 -0.010292442 -1.8954117e-21)
(2.6531728 -0.0066282163 -1.0210246e-20)
(2.6521717 -0.003217691 6.8270292e-21)
(2.6499847 -0.00055794022 -6.2762616e-21)
(2.6478096 0.00063118543 2.8043093e-21)
(2.6456513 0.00078262599 1.3509403e-20)
(2.7590996 -0.1968427 1.3129382e-20)
(2.7969466 -0.2398437 -7.2407252e-22)
(2.8919244 -0.19907413 -2.8596287e-20)
(2.9733484 -0.090755673 -4.5715763e-20)
(2.9959055 0.096017868 1.1492066e-19)
(2.9221441 0.24252855 1.0872414e-20)
(2.7897546 0.29684003 1.0867097e-20)
(2.6770615 0.26722521 1.5729716e-20)
(2.6070401 0.19105709 1.1848708e-20)
(2.587223 0.11903231 6.0978356e-21)
(2.5926914 0.069731588 7.684721e-21)
(2.6039463 0.039678649 -3.7627743e-22)
(2.6135533 0.021332637 1.0830676e-23)
(2.6202568 0.0087086006 -1.2826638e-21)
(2.6255033 -0.0013790643 -4.9232213e-22)
(2.6309224 -0.0095842404 1.8943406e-22)
(2.6370869 -0.01531305 -1.8166877e-21)
(2.6435048 -0.017978823 1.5374578e-22)
(2.6492008 -0.017584039 -2.5426732e-21)
(2.6532487 -0.014771327 1.1702484e-20)
(2.6552139 -0.010592181 -8.4020998e-21)
(2.6550288 -0.0060930459 6.7540518e-21)
(2.6532914 -0.0022765738 -3.9970693e-21)
(2.6504264 0.00038210906 -6.7196302e-21)
(2.64774 0.0013514436 -3.3680258e-21)
(2.6451819 0.0010095698 -1.2265222e-20)
(2.7811783 -0.19631649 5.1012016e-20)
(2.7785171 -0.25501093 -3.5023126e-21)
(2.8777993 -0.21850921 -3.7257184e-21)
(2.9632106 -0.10469723 5.9181866e-21)
(2.9919519 0.1051167 -4.5552643e-20)
(2.9319861 0.28744884 -7.8332216e-20)
(2.7698107 0.35408776 3.448515e-20)
(2.6505203 0.31940101 -3.1470397e-21)
(2.5813032 0.2252491 -1.7002246e-21)
(2.5621686 0.13401743 6.0608912e-21)
(2.5738071 0.073840242 -6.7239504e-21)
(2.5916941 0.039493033 2.793293e-21)
(2.6058982 0.020462118 -4.1302137e-22)
(2.6147832 0.008447718 -9.7862434e-22)
(2.6204823 -0.0013570415 -8.855708e-22)
(2.6257874 -0.010242877 -2.0799695e-22)
(2.6321811 -0.017397555 1.2205287e-21)
(2.6395599 -0.021640536 -3.2576702e-21)
(2.6468528 -0.022441954 2.1226684e-21)
(2.6528314 -0.0201263 -2.7195318e-21)
(2.656595 -0.015661421 6.0267069e-21)
(2.6578882 -0.010280659 -1.271342e-20)
(2.6568567 -0.0050987612 1.0653487e-20)
(2.654285 -0.0010299425 2.0520535e-21)
(2.6507024 0.0014972367 7.1122452e-21)
(2.6474898 0.0021500699 1.2509403e-20)
(2.6445567 0.001254943 -1.553554e-20)
(2.8068324 -0.19040666 -4.66591e-20)
(2.7689211 -0.26351393 1.4915849e-21)
(2.8551248 -0.23365122 2.9266571e-21)
(2.9359036 -0.11179357 6.3014756e-20)
(2.9588801 0.1201713 -1.6834772e-19)
(2.9016811 0.33680076 -4.1695972e-20)
(2.7392032 0.42192063 4.3588937e-21)
(2.6014547 0.37679918 -1.1716886e-21)
(2.5399451 0.26252307 -1.1332955e-20)
(2.5303625 0.14922187 -6.7485541e-21)
(2.5506758 0.075724042 -3.5918292e-21)
(2.5773884 0.036584505 1.6193573e-21)
(2.5978225 0.01736107 3.0543388e-22)
(2.6097089 0.0069876014 7.3329978e-22)
(2.6158675 -0.0015129166 -4.963927e-22)
(2.620544 -0.010444985 -4.095601e-22)
(2.6265262 -0.018898979 -6.8069826e-22)
(2.6343732 -0.025010183 3.6828092e-22)
(2.6430776 -0.027497784 2.5521638e-22)
(2.6510756 -0.026198802 2.469689e-21)
(2.6570412 -0.021873536 -3.2916387e-22)
(2.6602229 -0.015809823 -2.2828463e-21)
(2.6606132 -0.0093692365 1.2126543e-21)
(2.6585872 -0.0036758327 -2.355398e-21)
(2.6551112 0.00048642976 7.7935473e-21)
(2.6507881 0.0027588157 1.893656e-20)
(2.6470504 0.0030145583 2.5003081e-21)
(2.6437525 0.0015164636 3.3197402e-21)
(2.8341986 -0.1791952 -1.0352637e-19)
(2.7583985 -0.26658866 1.9122055e-20)
(2.8228652 -0.24329189 2.0167725e-20)
(2.8902857 -0.11280369 -3.6665265e-21)
(2.905841 0.14156519 -4.9260463e-20)
(2.8372776 0.38564796 7.0066539e-20)
(2.6999515 0.49374042 -6.118742e-20)
(2.5461485 0.43909715 1.0848974e-20)
(2.4792121 0.29927046 3.7763619e-21)
(2.4889823 0.16309517 -1.4869201e-20)
(2.5228959 0.074605994 9.5266268e-21)
(2.5609363 0.030145939 -5.2696601e-21)
(2.5895432 0.011308641 -1.6528393e-22)
(2.6055086 0.0037953872 2.2571877e-22)
(2.6122622 -0.0020301887 3.0461533e-21)
(2.6157149 -0.010088405 -1.7319525e-21)
(2.6204421 -0.019527161 2.6443319e-23)
(2.6280376 -0.027711414 2.1531088e-22)
(2.637743 -0.03242172 -2.5039385e-22)
(2.6477247 -0.032757791 -1.3987096e-21)
(2.6561352 -0.029129286 2.2893813e-21)
(2.6617324 -0.022760093 -2.1289042e-21)
(2.6640246 -0.015205104 1.4407796e-21)
(2.6632996 -0.0078817066 8.1965028e-21)
(2.6601594 -0.001861966 7.3631199e-21)
(2.655734 0.0022356508 -1.3123098e-21)
(2.6506677 0.0041401821 8.5402258e-21)
(2.6464205 0.0039299637 -1.2854262e-20)
(2.6427807 0.0017854063 -6.6566938e-22)
(2.8646437 -0.16381897 6.6717364e-20)
(2.7478862 -0.26444885 -6.4396641e-22)
(2.7829997 -0.24548741 -1.7726818e-20)
(2.8312592 -0.10779031 -2.9845194e-20)
(2.8389065 0.16619958 -6.3034412e-21)
(2.7687594 0.43323066 -9.7264759e-21)
(2.6489278 0.55902017 -8.1350438e-21)
(2.4976107 0.50422533 8.583536e-21)
(2.4097914 0.3345855 3.5731002e-21)
(2.4349529 0.17237697 2.3182179e-21)
(2.4902246 0.069455346 -7.4496731e-22)
(2.5422579 0.019353705 1.4762157e-22)
(2.5812777 0.0015150796 0)
(2.6027831 -0.0017059002 -1.6838357e-21)
(2.6103412 -0.0031948797 -1.4775711e-21)
(2.6119496 -0.0090709525 -2.1434126e-21)
(2.6143699 -0.018942344 5.4245732e-22)
(2.6207375 -0.02931424 4.6158807e-22)
(2.6307982 -0.036781146 -2.6718927e-22)
(2.6425237 -0.039484068 -3.5438896e-22)
(2.6535327 -0.037240666 6.9899742e-22)
(2.6619492 -0.031110518 1.7235416e-21)
(2.6667831 -0.022735539 1.2326452e-21)
(2.667886 -0.013852556 -6.548395e-21)
(2.6658597 -0.0058522895 -9.8617185e-22)
(2.6615233 0.00029881887 1.2535204e-20)
(2.6561252 0.0041814293 -1.5337352e-20)
(2.6503326 0.005615174 -3.2920912e-20)
(2.6456025 0.0048806761 2.0898031e-20)
(2.641647 0.0020583559 -3.0017858e-22)
(2.8989023 -0.14116162 -1.7213882e-20)
(2.7288712 -0.25696256 9.0002401e-23)
(2.7384292 -0.2398029 -6.8747596e-20)
(2.7626707 -0.097579753 7.0045173e-21)
(2.7595307 0.19218593 7.2730936e-20)
(2.6916535 0.47913181 -3.9326748e-20)
(2.5873439 0.6167498 -6.2300219e-21)
(2.4514033 0.56743669 2.6370461e-20)
(2.3460742 0.37091799 3.0350513e-21)
(2.3702516 0.17512152 2.6132135e-21)
(2.4520649 0.058629132 -8.1766251e-21)
(2.5215216 0.0034959698 2.8467244e-21)
(2.573253 -0.012785401 -1.6867122e-21)
(2.6020284 -0.010207257 2.4724652e-21)
(2.6109424 -0.0052958764 -5.5693214e-21)
(2.6099941 -0.0073364933 1.9470737e-21)
(2.6088653 -0.016781849 2.3641053e-21)
(2.6127526 -0.029309915 5.1989344e-22)
(2.6222578 -0.040073366 5.5226201e-23)
(2.6352724 -0.045942265 -9.7511585e-22)
(2.6488644 -0.045938018 -3.4582448e-22)
(2.6604585 -0.040741772 1.8841699e-21)
(2.6683897 -0.032031068 -4.9578587e-21)
(2.6720518 -0.02176958 -9.3436132e-22)
(2.6716912 -0.011774168 -1.6680576e-21)
(2.6682117 -0.003325113 1.0512552e-21)
(2.662634 0.0027591633 -8.222359e-21)
(2.6562661 0.0062863532 -2.4192234e-20)
(2.6497798 0.007158785 -2.3593813e-20)
(2.644602 0.0058529204 -6.7847625e-21)
(2.6403617 0.0023310552 1.1280376e-20)
(2.9352386 -0.10964863 -8.5072431e-20)
(2.7035937 -0.24263909 -3.7008571e-22)
(2.691468 -0.22812426 6.4352702e-20)
(2.6877754 -0.083839268 -2.5194783e-21)
(2.672412 0.2189081 7.112743e-21)
(2.6070146 0.52098935 4.1022694e-20)
(2.5188923 0.6671905 3.2650255e-20)
(2.4026486 0.62507862 -3.3683257e-21)
(2.2923161 0.40905567 1.5909355e-20)
(2.303212 0.17322117 8.0322787e-21)
(2.4077416 0.040253538 -7.1572918e-22)
(2.4991114 -0.018046344 4.1905403e-22)
(2.565674 -0.032300685 0)
(2.603866 -0.022402718 -1.8212188e-21)
(2.6149108 -0.0086769346 -5.382157e-21)
(2.6107234 -0.0047764055 6.2494319e-21)
(2.6045901 -0.012634701 -1.229493e-21)
(2.6044414 -0.027140612 -7.3348869e-22)
(2.6122011 -0.041704934 1.4296135e-22)
(2.6258114 -0.051621894 -5.7760183e-21)
(2.6417924 -0.05482912 4.5461564e-21)
(2.6567956 -0.051465402 -1.8431142e-21)
(2.6683821 -0.043059655 6.3177755e-21)
(2.6752898 -0.031802747 -9.7602604e-22)
(2.6773849 -0.019855722 2.216476e-22)
(2.6753258 -0.0090071212 2.7834642e-21)
(2.6702898 -0.00035402286 7.9366585e-21)
(2.6634528 0.0054718767 -2.3449321e-20)
(2.656145 0.0085131733 1.6365184e-21)
(2.6490116 0.0087477103 2.1711207e-20)
(2.6434277 0.0068342367 -2.7370677e-20)
(2.6389365 0.0025992773 1.7443786e-20)
(2.9729308 -0.070351293 6.3327834e-22)
(2.6750674 -0.22013943 -1.5100339e-21)
(2.6427893 -0.21097544 8.5580342e-20)
(2.6090249 -0.064323394 2.8406637e-21)
(2.5812279 0.24541347 1.9603897e-20)
(2.5200294 0.55818388 4.252094e-20)
(2.4479322 0.70966933 8.2574185e-22)
(2.3527281 0.67543342 -6.2913469e-20)
(2.246506 0.44655678 -4.0479213e-20)
(2.2423865 0.16987135 -1.6827445e-20)
(2.3584982 0.014033282 -3.103311e-21)
(2.4751564 -0.046072214 1.6403048e-21)
(2.5587379 -0.057628709 7.9287875e-21)
(2.6088093 -0.038970317 5.6764827e-21)
(2.6231367 -0.013769416 7.1847341e-22)
(2.6150855 -0.0012831386 -7.0570521e-21)
(2.6022316 -0.0060227377 -2.6434064e-21)
(2.5962356 -0.022161742 1.2530078e-21)
(2.600757 -0.041022288 -1.4932306e-21)
(2.6140234 -0.055920944 1.460901e-21)
(2.6319986 -0.063447353 -3.4599376e-21)
(2.650505 -0.062968079 2.2502497e-21)
(2.6662245 -0.055738149 -8.8894111e-22)
(2.6771152 -0.044018585 -2.0477793e-21)
(2.6824534 -0.030369006 3.3138405e-21)
(2.6826257 -0.017013093 6.3818615e-21)
(2.6786795 -0.005603028 4.2911455e-21)
(2.6720404 0.0030000362 4.9854907e-21)
(2.6639537 0.0083891184 -3.7290706e-22)
(2.6557574 0.010826667 2.5313136e-20)
(2.6480343 0.010360587 9.9666196e-21)
(2.6420903 0.0078135472 -1.4086851e-20)
(2.637384 0.0028639543 -4.2795478e-22)
(3.0116872 -0.023145506 8.7217614e-20)
(2.6451432 -0.18885384 7.4463363e-22)
(2.5907304 -0.18815412 -3.0406424e-20)
(2.5295433 -0.044604159 1.0363813e-21)
(2.4906805 0.27168867 -5.5672341e-22)
(2.4350487 0.59092215 -3.3800248e-20)
(2.3788697 0.74452944 -5.8111655e-21)
(2.3044683 0.71770811 3.7083843e-20)
(2.2082036 0.4808134 -2.6386103e-20)
(2.1921697 0.16658866 -2.7237199e-20)
(2.3084288 -0.018131303 -1.7711082e-20)
(2.4493749 -0.081157421 -1.1138616e-22)
(2.5526494 -0.089064044 2.7296451e-21)
(2.6172826 -0.060666086 8.3919871e-21)
(2.6364943 -0.020961355 1.0691057e-20)
(2.6240531 0.0031143761 -6.5513286e-21)
(2.6026249 0.0034631694 1.1235768e-21)
(2.5885766 -0.013688115 -1.8004347e-21)
(2.5880817 -0.037306613 8.7937527e-22)
(2.5998232 -0.058185899 3.9167961e-21)
(2.6191949 -0.071236993 -3.0517556e-22)
(2.6411348 -0.074864036 8.7310176e-22)
(2.6613697 -0.069858772 8.8876983e-22)
(2.6769495 -0.058455931 4.4471284e-21)
(2.6864169 -0.043484323 1.5436905e-21)
(2.6896684 -0.027710366 -2.3225954e-21)
(2.6876196 -0.013285502 4.71671e-21)
(2.6816572 -0.0016297631 -5.0344251e-21)
(2.6734078 0.0066731193 -1.3107361e-21)
(2.6641214 0.01145922 1.5861125e-20)
(2.6551047 0.013193511 6.1897772e-21)
(2.6468578 0.011978176 2.9991249e-22)
(2.6406027 0.0087811139 7.9105299e-21)
(2.6357178 0.0031235432 9.7937828e-22)
(3.0465369 0.030924286 1.0047446e-20)
(2.6156527 -0.14854524 -2.5839861e-20)
(2.5368105 -0.15838114 -2.2062923e-19)
(2.4475359 -0.024663228 -5.6902017e-20)
(2.4023713 0.29268057 2.6159327e-20)
(2.3555012 0.61783283 -2.6910045e-21)
(2.3146408 0.77226116 9.6664273e-21)
(2.2600024 0.75157239 4.4016129e-20)
(2.1768335 0.51071649 3.4598902e-20)
(2.1538868 0.16363057 1.1568614e-20)
(2.2623642 -0.053607846 4.8531398e-20)
(2.422033 -0.12296745 -8.0993008e-21)
(2.5475392 -0.12680217 -2.6462557e-20)
(2.6295808 -0.088131562 -6.4029919e-21)
(2.6558941 -0.030785645 1.0624365e-20)
(2.6386595 0.0085654855 7.1384301e-21)
(2.6065711 0.016335828 -8.0450941e-22)
(2.5819309 -0.0010233103 8.7429738e-22)
(2.5743399 -0.029805228 1.1899568e-21)
(2.5831406 -0.057723519 4.0305383e-22)
(2.6031222 -0.077601381 2.08994e-21)
(2.6282558 -0.086676999 6.0006102e-21)
(2.6532572 -0.085142818 2.7739881e-21)
(2.6741823 -0.075032517 -1.5722564e-21)
(2.6886832 -0.059371596 -2.9093691e-21)
(2.6960104 -0.041373733 2.5385076e-21)
(2.6967196 -0.02384694 -6.3952773e-24)
(2.6922192 -0.008738366 5.1581982e-22)
(2.6841913 0.0028322834 -4.5006862e-21)
(2.6743552 0.010603057 7.1773192e-21)
(2.6639492 0.014634602 -5.3517692e-22)
(2.6541942 0.015582999 6.6724252e-21)
(2.6454947 0.013583417 6.3555127e-21)
(2.6389792 0.0097285881 2.8435225e-20)
(2.6339516 0.0033756644 -5.3773017e-22)
(3.0765844 0.090550377 -3.8319276e-20)
(2.5917276 -0.098119204 3.2337923e-20)
(2.4815728 -0.12234008 -3.9996835e-20)
(2.3647695 0.0033078514 -2.3996748e-21)
(2.3128501 0.30578135 2.0161685e-20)
(2.279602 0.63676545 1.5687138e-21)
(2.2571102 0.79328141 7.0653998e-22)
(2.2210556 0.77707578 -2.1403867e-20)
(2.1516259 0.53536206 -7.1682729e-20)
(2.1260994 0.16137629 6.345941e-20)
(2.222793 -0.090214187 3.5382807e-20)
(2.3953164 -0.17085507 1.4745865e-21)
(2.5434836 -0.17116874 1.9211143e-21)
(2.6461792 -0.12209549 -1.6970646e-20)
(2.6823307 -0.043776035 2.35319e-20)
(2.6599783 0.015111843 -6.1164535e-21)
(2.6149199 0.033214987 4.1526369e-21)
(2.5768055 0.016634373 2.2924462e-21)
(2.5596409 -0.017733592 -6.7901357e-22)
(2.5638889 -0.053839181 8.241036e-23)
(2.5835442 -0.081923734 -2.8185353e-21)
(2.611475 -0.097890627 -4.9955922e-21)
(2.6413424 -0.10121336 -5.5684757e-21)
(2.6681693 -0.093597037 -2.2599515e-21)
(2.6886099 -0.078088753 -1.4153589e-21)
(2.7010769 -0.0583066 -1.3666122e-21)
(2.7056017 -0.037660018 -3.8446427e-21)
(2.7033989 -0.018836643 7.4095558e-22)
(2.6962981 -0.0034591231 1.0180581e-21)
(2.6862161 0.0076993163 -7.1229016e-21)
(2.6748661 0.014721602 2.1477338e-20)
(2.6634387 0.017869705 -5.8731699e-22)
(2.6530375 0.017967259 -2.9944506e-20)
(2.6439601 0.015161345 8.3899439e-21)
(2.6372349 0.010648914 -8.622604e-21)
(2.6320994 0.003618757 -7.6293707e-21)
(3.1006333 0.15417719 -6.8682601e-21)
(2.5729793 -0.03813229 3.3253323e-20)
(2.426688 -0.080375295 2.0984553e-19)
(2.2845143 0.035121495 1.288174e-21)
(2.2231708 0.32381086 -6.2899653e-20)
(2.2056778 0.64393733 -1.348083e-20)
(2.2054818 0.80771915 1.982569e-20)
(2.1885115 0.79603487 1.6277002e-21)
(2.1327334 0.55378365 4.5932324e-20)
(2.1063933 0.15919098 2.3492365e-20)
(2.1890459 -0.12572837 -6.1405292e-20)
(2.3705898 -0.22282356 -2.0913313e-20)
(2.5415061 -0.22218839 1.7497126e-20)
(2.6668686 -0.16329333 -5.2492713e-20)
(2.716732 -0.060894094 -2.657129e-20)
(2.6896823 0.022737012 -1.4898473e-20)
(2.6286184 0.054635065 -9.3964271e-23)
(2.573576 0.040159166 -2.7234911e-21)
(2.5440707 -0.00029184506 1.1290653e-22)
(2.541951 -0.045855599 -1.0371023e-23)
(2.5602376 -0.083618525 2.6706715e-21)
(2.5904459 -0.10797313 -7.6773719e-22)
(2.6251234 -0.11764141 -4.5684104e-21)
(2.6582698 -0.11388786 9.651343e-21)
(2.6854955 -0.099630037 4.7966236e-21)
(2.7042262 -0.078715764 -4.909005e-22)
(2.713745 -0.055159088 1.053362e-21)
(2.714898 -0.032374626 1.8052388e-21)
(2.70951 -0.012770444 0)
(2.6997617 0.0024417597 -3.1843336e-22)
(2.6876797 0.01288464 1.375381e-21)
(2.6749314 0.018963352 5.7204719e-22)
(2.662599 0.021122269 -8.4608156e-21)
(2.6516502 0.020321467 -3.2200864e-20)
(2.6422702 0.016699082 9.022375e-21)
(2.6353851 0.011536243 -7.5253463e-21)
(2.630175 0.0038515791 -2.7910131e-20)
(3.1167989 0.2197913 2.6995985e-21)
(2.5621994 0.030313776 -3.0467465e-20)
(2.3752587 -0.032751773 -3.2455057e-20)
(2.2099627 0.070965431 -1.0339417e-19)
(2.1390462 0.34047609 -4.4665155e-20)
(2.1343013 0.65016793 -8.8158646e-22)
(2.1594617 0.81529784 -2.4377332e-20)
(2.1617579 0.81200484 -2.4526552e-21)
(2.1190605 0.5679855 1.2938622e-19)
(2.0933223 0.15771316 -9.7963223e-20)
(2.1626332 -0.16044483 -1.4924354e-22)
(2.3475106 -0.27583114 -2.4511456e-21)
(2.536422 -0.27680317 -3.5108261e-20)
(2.689377 -0.20934722 7.1164848e-21)
(2.755603 -0.081839849 -4.8751109e-20)
(2.727801 0.031237723 4.2311967e-20)
(2.649486 0.081072478 -2.4092384e-20)
(2.5727882 0.070411826 3.07432e-21)
(2.527579 0.023350024 -1.0142693e-22)
(2.5171333 -0.033149724 -8.1173856e-22)
(2.5329726 -0.082164044 -3.834307e-21)
(2.5648754 -0.11643148 -2.7028232e-21)
(2.6041687 -0.13396499 -1.0922506e-21)
(2.6438828 -0.13556876 7.8657352e-22)
(2.6786196 -0.12386749 7.5067376e-21)
(2.7047298 -0.10275777 -2.4136465e-21)
(2.7205426 -0.076701742 -7.2279423e-22)
(2.7262868 -0.049907295 -1.4498599e-21)
(2.7236215 -0.025603909 -5.2344153e-22)
(2.7148846 -0.005769969 -1.1484666e-20)
(2.7025295 0.0088477328 -5.3881896e-21)
(2.6885601 0.018296837 1.7037722e-20)
(2.6745547 0.023266065 -2.4723632e-20)
(2.6614457 0.024353894 -8.3211243e-21)
(2.6500507 0.022623956 2.5619549e-20)
(2.6404424 0.018185808 -2.7411073e-20)
(2.6334451 0.012385878 3.7278899e-20)
(2.6281917 0.0040731824 1.9523783e-21)
(3.1227547 0.2848826 -1.0236636e-20)
(2.5622594 0.10647649 -4.3562866e-22)
(2.3301632 0.020326464 -2.3825451e-19)
(2.143816 0.10926691 1.0942227e-19)
(2.0645185 0.35699146 -1.5222339e-21)
(2.0711098 0.65066827 9.0471315e-20)
(2.1178416 0.81709958 2.3812443e-20)
(2.1435336 0.82678654 -3.6845237e-20)
(2.1106493 0.58886954 1.9024334e-19)
(2.0851422 0.15214904 -1.2698639e-19)
(2.1372812 -0.18915254 2.1461858e-21)
(2.3262944 -0.32928017 0)
(2.5275403 -0.33213991 -2.2539989e-20)
(2.6980305 -0.25564043 -2.1299145e-20)