/*--------------------------------*- C++ -*----------------------------------*\
| =========                 |                                                 |
| \\      /  F ield         | OpenFOAM: The Open Source CFD Toolbox           |
|  \\    /   O peration     | Version:  v2012                                 |
|   \\  /    A nd           | Website:  www.openfoam.com                      |
|    \\/     M anipulation  |                                                 |
\*---------------------------------------------------------------------------*/
FoamFile
{
    version     2.0;
    format      ascii;
    class       surfaceVectorField;
    location    "100.337729823899352";
    object      Uf;
}
// * * * * * * * * * * * * * * * * * * * * * * * * * * * * * * * * * * * * * //

dimensions      [0 1 -1 0 0 0 0];


internalField   nonuniform List<vector> 
18180
(
(2.6593376 -0.00069966386 2.1636617e-24)
(2.6590782 8.169189e-06 1.2308151e-21)
(2.661169 -0.0014408033 -1.712691e-21)
(2.6605532 -0.00037450707 5.9301165e-24)
(2.6599925 0.00031040498 1.1694849e-21)
(2.6588327 0.00036535892 1.1043605e-21)
(2.6638969 -0.0022677235 1.9284063e-21)
(2.6628916 -0.00043019322 -3.2461685e-21)
(2.6619625 0.00059601548 -1.6418836e-21)
(2.6603111 0.00083135119 -8.5524446e-24)
(2.659315 0.00090862903 -8.9643748e-23)
(2.658138 0.00063508855 -1.2941905e-21)
(2.6674609 -0.0032891154 1.5632674e-21)
(2.6663085 -0.0009569043 1.6876373e-21)
(2.6649583 0.00079930485 -3.2321647e-21)
(2.662706 0.0015657904 -3.0066022e-21)
(2.6612629 0.0017918456 -1.4768651e-21)
(2.6595883 0.00173465 -2.2422271e-23)
(2.658426 0.0015167535 -1.1655293e-21)
(2.6570171 0.00087016968 -6.3244901e-21)
(2.6717003 -0.004560217 -4.0724394e-21)
(2.6705192 -0.0013831172 -3.4422324e-21)
(2.6689432 0.00087141478 -3.4052288e-21)
(2.6662358 0.001922438 -5.211592e-21)
(2.6642506 0.002658007 -5.0297625e-21)
(2.6619471 0.0030939564 -2.1322626e-21)
(2.6603132 0.003036153 -7.6088526e-22)
(2.6583869 0.0025632376 4.549879e-21)
(2.6570491 0.0020024342 -2.5938225e-22)
(2.6555867 0.0010480957 -7.725001e-21)
(2.6765051 -0.0061996719 -2.3462122e-21)
(2.675535 -0.0022833631 6.2675543e-22)
(2.6738165 0.00076157338 1.3020347e-21)
(2.6706278 0.0024588398 -1.4775613e-21)
(2.6682523 0.0034891195 -3.1571149e-21)
(2.6654557 0.0041796486 2.0167192e-21)
(2.6632246 0.0046040051 4.8857179e-21)
(2.6606203 0.0045041659 7.7364497e-22)
(2.6587959 0.0040462756 5.8452597e-21)
(2.6568251 0.0032026392 5.6572519e-21)
(2.6554219 0.0023556237 -1.3405801e-21)
(2.6539603 0.0011677471 2.6277249e-21)
(2.6817495 -0.0083024289 4.300541e-21)
(2.6812118 -0.0034250817 2.0762503e-21)
(2.6795393 0.00034679899 4.9729669e-21)
(2.6759859 0.0026277937 2.4855648e-21)
(2.6732092 0.0042569077 -1.3860599e-22)
(2.6698552 0.0055614045 -3.390027e-21)
(2.6671504 0.0062538846 1.5225488e-21)
(2.6639616 0.0062887268 9.3738701e-21)
(2.661499 0.0062024904 5.539899e-21)
(2.6588576 0.0055979734 3.8536924e-21)
(2.6569739 0.0047848023 3.6431282e-21)
(2.6550313 0.0036234572 -3.3374701e-21)
(2.6536345 0.0025560327 4.0091431e-22)
(2.6522546 0.0012245166 7.2286772e-21)
(2.6873107 -0.010997789 4.7367909e-21)
(2.6875173 -0.0051513963 5.084999e-21)
(2.6860566 -0.00047733516 2.9843769e-21)
(2.6821743 0.0026805671 4.2476594e-21)
(2.6791257 0.0048922841 1.8652718e-21)
(2.6752991 0.0067454018 -4.7688242e-21)
(2.6720585 0.0080023607 -7.9403183e-21)
(2.6681606 0.0084992391 -4.2066694e-21)
(2.6651458 0.0085668334 3.1600111e-21)
(2.661894 0.0079497767 9.2955683e-22)
(2.659375 0.00738014 -7.4764186e-22)
(2.6568078 0.0063192693 2.2071667e-21)
(2.6549562 0.0052018668 -4.4495367e-21)
(2.6531433 0.0038052007 -4.0251187e-21)
(2.6518246 0.0025982284 2.3909554e-21)
(2.6505787 0.0012162529 2.1182682e-21)
(2.6930509 -0.014404674 1.0055101e-23)
(2.6943408 -0.0074819147 2.6262629e-21)
(2.6933409 -0.0018701297 2.8966336e-21)
(2.6892604 0.0022704114 -2.1441217e-21)
(2.6860018 0.0053050875 -1.0427347e-21)
(2.6816913 0.0080183014 1.3404903e-21)
(2.6779926 0.0098345208 -4.9776078e-21)
(2.6733987 0.010716637 -1.8448911e-21)
(2.6697141 0.011204264 1.803169e-21)
(2.6656935 0.010849985 5.1596359e-21)
(2.6625918 0.010293892 3.0729885e-21)
(2.6594329 0.0090603 -5.7555178e-21)
(2.6569889 0.0080513738 -3.0289517e-21)
(2.6546337 0.006630691 9.4166081e-22)
(2.6529052 0.0052882694 1.4329045e-21)
(2.6512884 0.0037517758 -1.574782e-21)
(2.6501002 0.0024898722 -1.8984e-21)
(2.6490266 0.0011480201 4.9728973e-21)
(2.6988248 -0.018652952 -5.806164e-22)
(2.70161 -0.010637963 -1.2406626e-21)
(2.7013436 -0.0040057099 1.1660134e-21)
(2.6972015 0.0013741125 2.7128303e-21)
(2.6938866 0.0053662791 -2.0940936e-21)
(2.6891692 0.0090859315 7.1640791e-23)
(2.6850016 0.011716547 2.3548201e-21)
(2.6796016 0.013276178 -3.3646404e-21)
(2.675259 0.014170657 -3.6126079e-22)
(2.670431 0.01396147 6.1157667e-21)
(2.6665946 0.013633656 9.3759112e-21)
(2.6626771 0.012443139 5.5286337e-21)
(2.6596672 0.011294392 -2.8194417e-21)
(2.6567875 0.0095537455 -2.7825689e-21)
(2.6545438 0.0081967363 9.9433864e-22)
(2.65249 0.0065379678 -1.2004128e-22)
(2.6509508 0.0050623371 -3.003259e-21)
(2.6495745 0.0034848313 -4.612375e-21)
(2.648553 0.0022508968 1.8733952e-21)
(2.6476706 0.0010297344 7.7022559e-21)
(2.7044812 -0.023863292 5.3152754e-22)
(2.7092121 -0.014761629 8.9088733e-22)
(2.7100178 -0.0070861272 2.5562914e-22)
(2.7060247 -0.000256718 -7.7903142e-22)
(2.7028205 0.0049182331 6.3056317e-22)
(2.6977633 0.0099630446 -1.2222271e-21)
(2.6932014 0.013583407 8.502439e-22)
(2.6869493 0.015967887 4.2212813e-21)
(2.6818459 0.017506941 -1.1832957e-21)
(2.6760319 0.017670788 1.6053777e-21)
(2.6714196 0.017521591 7.7923159e-21)
(2.6666765 0.016201358 2.8688642e-21)
(2.6629396 0.015068515 -8.9337811e-22)
(2.6593859 0.013168124 -2.3080989e-21)
(2.6566393 0.011529165 -2.2647019e-21)
(2.6541626 0.0094336467 -5.0981779e-23)
(2.6522077 0.0078443834 -1.1266837e-21)
(2.6505098 0.0060794611 -2.7235968e-21)
(2.6492019 0.0045657273 -4.2474091e-21)
(2.6480847 0.0030403017 -7.7489938e-22)
(2.6472477 0.0019084919 4.7200238e-21)
(2.6465596 0.00087347525 -1.9274249e-22)
(2.7098508 -0.030143267 -2.05961e-21)
(2.7170397 -0.020032724 4.2273756e-22)
(2.7192925 -0.01132896 7.9169949e-22)
(2.7157158 -0.0028071464 8.0452658e-22)
(2.7128659 0.0037625907 -1.9616117e-22)
(2.7076055 0.010444267 5.2301321e-22)
(2.7027184 0.015341957 -1.2395112e-21)
(2.6955218 0.018882157 -2.6257538e-21)
(2.689616 0.021245637 5.2013985e-22)
(2.6826711 0.021866887 2.3129393e-22)
(2.6771102 0.022072637 2.9006045e-21)
(2.6713332 0.020760645 6.3631052e-21)
(2.6667999 0.019541851 1.661443e-21)
(2.6625066 0.017255277 -1.8329167e-21)
(2.659112 0.015435684 -3.1925093e-21)
(2.6560974 0.013021395 -3.0551301e-21)
(2.6537363 0.011036642 -9.6444296e-22)
(2.6517352 0.0087570532 -1.0291018e-21)
(2.650121 0.0070615253 -2.54414e-21)
(2.6487945 0.0053184763 -1.7503101e-21)
(2.6477359 0.0038564166 1.5889362e-21)
(2.6468738 0.0024646213 2.897187e-21)
(2.6462246 0.0014954759 -1.8003258e-21)
(2.6457183 0.00069269076 -3.7664783e-21)
(2.714748 -0.037587072 -2.2152578e-21)
(2.7249439 -0.026612377 -5.5968165e-21)
(2.7290749 -0.016956879 -3.2686437e-21)
(2.7262655 -0.0065246073 -8.0334173e-22)
(2.7240751 0.0016650384 -8.175863e-22)
(2.7188014 0.010374579 -8.3042516e-22)
(2.7137283 0.016861652 -1.5742935e-22)
(2.7055248 0.02191545 -2.9958682e-22)
(2.6987338 0.025405696 -1.6015678e-21)
(2.6904307 0.026736219 6.8098446e-22)
(2.6837789 0.027418057 4.0027846e-22)
(2.6767711 0.026095479 -1.3038877e-21)
(2.6712379 0.024880783 1.9142645e-21)
(2.6660135 0.022256288 -1.5876325e-21)
(2.6619026 0.020101262 -4.9580505e-21)
(2.6583093 0.017104242 -1.166086e-21)
(2.65543 0.014784724 -1.0029065e-21)
(2.6530526 0.012084041 2.0650906e-21)
(2.6511467 0.0099169397 2.0536405e-21)
(2.64964 0.0076202276 -4.0866516e-21)
(2.648382 0.0059408739 -3.3574897e-21)
(2.6474119 0.0043341407 2.4055453e-21)
(2.6465991 0.0030026186 3.6629484e-21)
(2.6459693 0.0018090527 -1.5625021e-21)
(2.6454976 0.0010454332 -3.4267839e-21)
(2.6451501 0.00050589726 -8.2376484e-22)
(2.7189929 -0.046265212 1.3418761e-21)
(2.7327661 -0.034659221 4.7768692e-22)
(2.7392388 -0.024196696 -2.6916152e-21)
(2.7376351 -0.011666056 -1.8674973e-21)
(2.7364964 -0.0016465001 4.9889602e-22)
(2.7314884 0.0095232529 -1.4090497e-21)
(2.7264257 0.01797225 -1.4235335e-21)
(2.7171585 0.02501553 -1.2297983e-21)
(2.7094303 0.029993105 -1.3825218e-21)
(2.6995202 0.032310599 -1.8749512e-21)
(2.6915574 0.033697429 2.7720961e-22)
(2.6830211 0.032473763 1.2822169e-21)
(2.6762923 0.031284318 -3.255152e-22)
(2.6699511 0.028195624 4.4837458e-22)
(2.6649357 0.025709265 -2.9002477e-21)
(2.6606217 0.022112129 -5.2709724e-21)
(2.6571805 0.019263886 -1.6725028e-21)
(2.6544219 0.015862129 -3.6090526e-21)
(2.6521525 0.013260971 -7.3653765e-22)
(2.6504326 0.010496708 4.3943976e-21)
(2.6490005 0.0083078631 -1.4014515e-21)
(2.6479652 0.0061428021 -1.8434649e-21)
(2.6470494 0.0045891815 3.6576699e-21)
(2.6463971 0.0032133653 3.3782723e-21)
(2.6458081 0.0020750793 -1.5898538e-21)
(2.6453731 0.0011238843 4.6048458e-22)
(2.6450502 0.00059387173 2.9961986e-21)
(2.6448382 0.00034126358 -1.2339945e-21)
(2.7224063 -0.056218256 -1.0877296e-21)
(2.7403313 -0.044305322 1.7921988e-22)
(2.7496242 -0.033262007 -6.6127272e-22)
(2.7497585 -0.018504251 3.454941e-22)
(2.7501545 -0.0064809736 1.2275078e-21)
(2.7458001 0.0076260247 1.4154362e-21)
(2.7410365 0.01845537 -3.7232382e-22)
(2.7306883 0.028071649 -5.6413698e-22)
(2.7219799 0.034996387 -3.6758567e-22)
(2.7101536 0.038691809 -1.8086173e-22)
(2.7006394 0.041070853 -6.3597227e-22)
(2.6902191 0.040046864 1.3505051e-22)
(2.6820005 0.038976145 1.0876757e-21)
(2.674265 0.035378217 4.0814767e-22)
(2.6681586 0.032475251 1.1554424e-21)
(2.662999 0.0280768 9.771671e-22)
(2.6588558 0.024641738 -1.213307e-21)
(2.6556347 0.020490197 -1.4761201e-21)
(2.6529936 0.017242296 -3.3128568e-21)
(2.6510905 0.013732693 -3.2570969e-21)
(2.6494514 0.01106432 1.5767071e-21)
(2.6483516 0.0084319038 -2.4111903e-21)
(2.6473717 0.0063648817 -2.847504e-21)
(2.6467554 0.0044547161 4.4233767e-21)
(2.646145 0.0031175755 4.1699735e-21)
(2.6457554 0.0020442188 -5.2986631e-21)
(2.6453537 0.0011429247 -3.4119582e-21)
(2.6450671 0.00046160015 5.3981719e-21)
(2.6448756 0.00019164018 1.4178111e-21)
(2.6447411 0.00021082996 -2.618172e-21)
(2.724817 -0.067455754 -1.5520134e-21)
(2.747448 -0.055647231 -4.8681736e-21)
(2.7600314 -0.04433781 -3.7264212e-21)
(2.7625306 -0.027323007 -2.7304463e-21)
(2.7650408 -0.013176346 -1.7946046e-21)
(2.7618611 0.0043771 4.2747245e-22)
(2.7578017 0.018042284 5.9818813e-22)
(2.7464078 0.030941725 1.6165084e-22)
(2.7367176 0.040381 -1.6782714e-23)
(2.7226237 0.04596165 1.4507657e-21)
(2.7112617 0.049715812 1.6515556e-21)
(2.6984957 0.049058714 -1.0741327e-21)
(2.6884342 0.048224822 -3.4865905e-22)
(2.6789657 0.044014696 9.2776564e-22)
(2.6714913 0.040639952 2.7259009e-22)
(2.6652991 0.035285796 -1.6846988e-21)
(2.6603274 0.031102433 -1.8983323e-21)
(2.6565973 0.025974299 9.9739316e-22)
(2.6535039 0.021992777 7.8327815e-22)
(2.6513888 0.017687633 1.0956483e-22)
(2.6495687 0.014326729 2.1632297e-22)
(2.6484617 0.01096157 1.938181e-21)
(2.6474172 0.008414299 -1.8426231e-21)
(2.6468637 0.0060719759 -2.5527773e-21)
(2.646286 0.0042458849 4.358257e-21)
(2.646018 0.0026859839 2.9713078e-21)
(2.6456604 0.0016345598 -6.04502e-21)
(2.6454665 0.00091111411 -5.68834e-21)
(2.6452091 0.00027375121 2.6450114e-21)
(2.6450248 -0.00012546577 -4.0844395e-22)
(2.6449154 -0.00013409813 -4.2723675e-21)
(2.644807 0.00011366035 -4.7137132e-21)
(2.7260687 -0.079952743 1.7812253e-21)
(2.7539154 -0.068746146 -5.1365094e-23)
(2.7702224 -0.057567475 -3.1783745e-21)
(2.775801 -0.038384831 -2.1289054e-21)
(2.781102 -0.022094872 -1.143799e-21)
(2.7797794 -0.00057759404 -9.7024895e-22)
(2.7769691 0.01640467 1.1572193e-21)
(2.7646507 0.033444134 2.8511749e-21)
(2.7540288 0.046086223 2.4759126e-21)
(2.7372657 0.054200975 -5.2100445e-22)
(2.7237225 0.059831385 8.672623e-22)
(2.7080411 0.059773052 -1.1133639e-21)
(2.6956789 0.05934578 -3.7484536e-21)
(2.6840324 0.054415252 -2.3997716e-21)
(2.6748492 0.050487884 -1.2268618e-21)
(2.667408 0.043931074 -1.4722644e-21)
(2.6614205 0.038838033 -3.3564712e-21)
(2.6571084 0.032543722 -2.0836476e-21)
(2.6535142 0.027638786 6.6430375e-22)
(2.6512063 0.022327891 7.2306766e-22)
(2.6491764 0.018187501 8.0271343e-23)
(2.6480672 0.014054643 1.0142122e-22)
(2.6470109 0.010824881 1.7400386e-21)
(2.6465955 0.0077991272 -1.6217607e-21)
(2.646075 0.0055255459 -2.2927895e-21)
(2.6459749 0.0035935106 2.4082527e-21)
(2.6457322 0.0021005221 1.0590052e-21)
(2.6457313 0.00095874126 -3.1847005e-21)
(2.6455632 0.00024004843 -2.7995247e-21)
(2.645492 -0.00011037884 3.0583181e-21)
(2.6453351 -0.00047793975 1.616558e-22)
(2.645207 -0.00060040886 -2.7473543e-21)
(2.6451194 -0.00039600191 -3.142123e-21)
(2.6449947 4.8729423e-05 -3.0801958e-21)
(2.7259571 -0.093637716 1.254892e-21)
(2.7594982 -0.083611492 1.419472e-21)
(2.7799031 -0.073041731 -3.2829803e-22)
(2.7893761 -0.05195019 -3.0879736e-21)
(2.7982193 -0.033611394 -2.0498693e-21)
(2.7996281 -0.0076178136 4.1373155e-21)
(2.7987772 0.013161768 4.3893722e-21)
(2.7857638 0.035347823 1.0821793e-21)
(2.7743463 0.052020385 2.6961113e-21)
(2.754475 0.06348897 3.0115735e-22)
(2.7383763 0.071635444 -2.5748516e-21)
(2.7190745 0.072493184 -1.9491954e-21)
(2.7038466 0.072713776 -3.8771429e-21)
(2.6894581 0.06692981 -7.8956637e-22)
(2.6781166 0.062352805 5.4003539e-22)
(2.66915 0.054284682 5.1178883e-22)
(2.6619277 0.048057392 3.0687197e-22)
(2.6569763 0.040312975 1.5078999e-22)
(2.6528076 0.03428827 1.41717e-21)
(2.6503252 0.027810554 2.1427802e-21)
(2.6481021 0.022714429 2.2191517e-21)
(2.647047 0.017641973 -1.5400635e-21)
(2.6459834 0.013658657 -1.540021e-21)
(2.6457265 0.0099325003 1.5209637e-21)
(2.6453335 0.0070224993 -1.6732707e-21)
(2.6454893 0.0044771616 -3.1496323e-21)
(2.6454043 0.0025933171 1.302435e-21)
(2.6456574 0.0011571725 1.9015574e-23)
(2.6456721 6.2846021e-05 -4.029318e-21)
(2.6458531 -0.00061939836 -2.55128e-21)
(2.6458046 -0.0009812722 3.0186727e-21)
(2.6457794 -0.00095828875 2.7247857e-21)
(2.6456765 -0.001059506 0)
(2.6455446 -0.00094157172 2.0352629e-21)
(2.6454401 -0.00056682193 2.1781721e-21)
(2.6452543 9.3192881e-06 -2.3266212e-22)
(2.7241061 -0.10843551 1.7753633e-22)
(2.763944 -0.1001956 -4.3831401e-22)
(2.7887933 -0.090788309 -2.7404958e-22)
(2.8029836 -0.068217128 -3.2206247e-21)
(2.8161793 -0.048082938 -5.8917932e-21)
(2.8214021 -0.017205703 -4.1501905e-21)
(2.8234478 0.0078847788 1.695632e-21)
(2.810096 0.036392629 4.6113454e-21)
(2.7981307 0.058055554 1.464672e-21)
(2.7746862 0.07388926 6.5816388e-22)
(2.7556307 0.085360949 -1.6510409e-21)
(2.7318626 0.087570619 -2.4439247e-21)
(2.7130718 0.088766339 -1.8472932e-21)
(2.6952225 0.081970784 -3.9178062e-22)
(2.6811488 0.076632556 2.5985568e-21)
(2.6703148 0.066644096 4.4387305e-22)
(2.6615772 0.058988119 4.1549489e-22)
(2.6559331 0.049437085 1.2629687e-21)
(2.6511301 0.042027942 1.1302059e-21)
(2.6485409 0.034154606 1.8547467e-21)
(2.6461419 0.027933292 2.5530252e-21)
(2.6452037 0.021820398 1.0394745e-21)
(2.6441867 0.016943031 -2.5474459e-21)
(2.6441512 0.012383047 -5.1113682e-22)
(2.6439054 0.0087841101 2.4162845e-21)
(2.6443393 0.0056186803 1.0203164e-21)
(2.6444941 0.0031644546 -3.3542597e-22)
(2.6451014 0.0011971555 4.1723417e-22)
(2.6453565 -0.00021147096 -8.1132929e-22)
(2.6458592 -0.0010985262 -1.0244143e-21)
(2.6460515 -0.00175488 4.3131505e-22)
(2.6463273 -0.0019597502 7.5957634e-23)
(2.6463259 -0.001964798 -2.5310841e-22)
(2.6462737 -0.0015867256 -1.7575342e-21)
(2.6461698 -0.0014493126 1.4619276e-22)
(2.6459774 -0.0011311663 1.8727735e-21)
(2.6458179 -0.00064008227 -4.2180189e-22)
(2.6455374 -3.9639657e-06 -4.8653535e-21)
(2.7201508 -0.12436212 -1.6814295e-21)
(2.7670471 -0.11845023 -6.4782066e-22)
(2.7968454 -0.1108415 -1.2133404e-21)
(2.816486 -0.087363023 -5.9408448e-22)
(2.834781 -0.065865499 -3.3601184e-21)
(2.8450746 -0.029782866 -1.0084034e-20)
(2.85123 4.1191748e-05 -8.4823122e-21)
(2.8380874 0.036209398 4.3669679e-21)
(2.8259241 0.064023444 7.1749474e-21)
(2.7983657 0.085471822 1.0077368e-21)
(2.7759348 0.10125628 2.3783069e-22)
(2.7466912 0.10539172 4.3486638e-21)
(2.7235048 0.10800777 3.6654012e-21)
(2.7013024 0.10002863 2.7504197e-21)
(2.6837609 0.093797183 4.208053e-21)
(2.6706285 0.08135104 1.654773e-21)
(2.6600259 0.071882703 -3.9223764e-22)
(2.6536529 0.060055237 -1.5652271e-21)
(2.6481594 0.050917099 -7.9216242e-22)
(2.6455822 0.041377007 -1.6487756e-21)
(2.6430725 0.033816196 -1.0007125e-21)
(2.642375 0.0265332 -9.6128512e-22)
(2.641467 0.020650576 -2.448174e-21)
(2.6417142 0.01521551 -2.1334548e-21)
(2.6416764 0.010823952 -1.923116e-22)
(2.6424382 0.0069282272 2.0166015e-21)
(2.6428543 0.0038625398 6.8693497e-22)
(2.6438354 0.0013546932 1.675676e-22)
(2.644424 -0.00054960079 8.9533872e-22)
(2.6453712 -0.0018735525 1.3509335e-22)
(2.6458681 -0.0027573545 -5.2016396e-23)
(2.6465193 -0.0030612692 1.0620139e-22)
(2.6468052 -0.0032618288 -2.3662047e-22)
(2.6470866 -0.0029960414 4.5017962e-21)
(2.6470626 -0.0026628917 3.1470961e-21)
(2.6469111 -0.0019688157 -3.91481e-21)
(2.6467512 -0.0016325512 -2.3390936e-21)
(2.6464469 -0.0011547952 -2.2457688e-21)
(2.6462036 -0.00060682192 -6.4949117e-21)
(2.6457966 2.8336971e-05 -4.3219824e-21)
(2.7158306 -0.14143813 -3.5690947e-21)
(2.7687115 -0.13869734 -2.4531896e-21)
(2.8042487 -0.13329237 -1.4318595e-21)
(2.829948 -0.1095978 -7.4442931e-22)
(2.8538729 -0.087248163 -1.104916e-22)
(2.8706169 -0.045898113 6.0181357e-22)
(2.8823626 -0.011058386 -5.7398767e-21)
(2.870369 0.034344063 -5.604365e-21)
(2.8585092 0.069657103 6.6491404e-21)
(2.8262197 0.098253278 8.9332751e-21)
(2.7999445 0.11957324 3.1036449e-21)
(2.7638784 0.12638888 8.1891925e-22)
(2.7353136 0.13100796 4.7087615e-21)
(2.707643 0.12166298 3.8973425e-21)
(2.6857141 0.11439888 3.0681873e-21)
(2.6697514 0.098807351 4.8328741e-21)
(2.6568415 0.087022087 2.4438004e-21)
(2.6497224 0.072298335 1.935602e-21)
(2.6434988 0.060982423 8.5898291e-22)
(2.6411311 0.049434049 3.796536e-22)
(2.6386262 0.040268752 -4.1522339e-22)
(2.63836 0.031690536 -1.5697072e-21)
(2.6376834 0.024682693 -1.5341406e-21)
(2.6383244 0.018339345 -3.0491908e-21)
(2.6385568 0.013102488 -2.7599261e-21)
(2.6396731 0.0084711393 7.3920485e-23)
(2.6403983 0.0047125598 2.1765338e-21)
(2.6417832 0.0015551384 -3.2413695e-21)
(2.6427232 -0.00088324831 -3.8017507e-21)
(2.6441307 -0.0026718084 6.9771715e-22)
(2.6450468 -0.0039642886 -2.2064842e-23)
(2.6462253 -0.0046015993 3.0555778e-21)
(2.6468683 -0.0049308296 3.2560343e-21)
(2.647567 -0.0046458868 -2.4753863e-22)
(2.6478621 -0.0043953908 4.2497949e-21)
(2.6480612 -0.003684745 7.6343995e-21)
(2.647946 -0.003048492 9.983974e-22)
(2.6476275 -0.0020929613 1.2707406e-23)
(2.6473615 -0.001600149 1.3975208e-22)
(2.6468999 -0.0010084088 2.8493275e-21)
(2.6465353 -0.00045671796 5.0635833e-21)
(2.6459849 0.00012949831 7.9172544e-21)
(2.7144186 -0.15874076 -1.7353375e-21)
(2.7696601 -0.16031557 -1.1227883e-21)
(2.8103106 -0.15806713 -3.0444644e-23)
(2.8429335 -0.13481626 -1.1162706e-21)
(2.8727441 -0.11205555 -4.5758538e-22)
(2.8971108 -0.065836432 -1.4495881e-20)
(2.9161798 -0.025918245 -1.4084834e-20)
(2.9068698 0.030235632 -4.7910883e-22)
(2.896134 0.074543806 -2.6889837e-22)
(2.8593157 0.11207636 6.957792e-21)
(2.8286711 0.14046268 9.1320775e-21)
(2.7841721 0.15099403 8.6589528e-22)
(2.7489422 0.15838658 -1.3414612e-21)
(2.7141911 0.14751342 -1.4756937e-21)
(2.6867178 0.13907282 -2.3128604e-21)
(2.6672523 0.11946602 -7.9470986e-22)
(2.6514858 0.10471916 8.3083717e-22)
(2.6436343 0.086297472 9.1441965e-22)
(2.6366604 0.072212246 4.0705453e-22)
(2.6347976 0.058218155 1.2637592e-21)
(2.6324905 0.047118657 8.0585836e-22)
(2.632946 0.037111974 5.490019e-22)
(2.6326898 0.028853465 -5.2315063e-22)
(2.6338909 0.021617669 -4.8660587e-22)
(2.6345056 0.015508728 -1.9089296e-21)
(2.6360269 0.010170039 -4.3219008e-22)
(2.63709 0.0057025206 2.3047826e-21)
(2.6388584 0.0018914793 -4.8790541e-22)
(2.6401784 -0.0011628322 -5.6807694e-21)
(2.642066 -0.0035425554 -3.1202962e-21)
(2.6434152 -0.0052967099 1.1761504e-21)
(2.6451456 -0.0063172454 -2.5231701e-21)
(2.6462869 -0.0069570401 3.6515294e-22)
(2.6475894 -0.0068851488 6.3621474e-21)
(2.6482827 -0.0066518286 3.0763558e-21)
(2.6489268 -0.0057932087 -2.6326212e-22)
(2.6491483 -0.0051147513 2.879009e-21)
(2.64918 -0.0040022917 -6.435652e-21)
(2.648909 -0.0031117421 -7.4915214e-21)
(2.6483643 -0.0019540922 4.5986852e-21)
(2.6479498 -0.0013494611 7.2433296e-21)
(2.6472922 -0.00070126638 3.0441831e-21)
(2.6467805 -0.00018884143 5.7227471e-21)
(2.6460599 0.00028153514 7.0291292e-21)
(2.7179758 -0.17448473 0)
(2.7694049 -0.1815603 -2.4405211e-22)
(2.8125855 -0.1836006 3.0946382e-22)
(2.8514549 -0.16089617 1.2924119e-20)
(2.8875929 -0.13888107 1.2107042e-20)
(2.920598 -0.088378215 8.4186623e-21)
(2.9486059 -0.044021156 -4.7279739e-21)
(2.9443636 0.024306579 -2.9659141e-20)
(2.9360221 0.078971669 -1.6986053e-20)
(2.8961177 0.12692787 2.4103144e-21)
(2.8613393 0.16405287 9.3160474e-21)
(2.8085504 0.17953969 3.1173257e-21)
(2.7651491 0.19078274 -4.8619055e-21)
(2.721322 0.17826532 -8.884071e-21)
(2.6866462 0.16854242 -9.0904128e-21)
(2.6626243 0.14383792 -2.9847298e-21)
(2.6433045 0.1253149 -1.5239043e-21)
(2.6347677 0.10216822 -2.4143161e-21)
(2.6270565 0.084549713 -2.3887555e-21)
(2.6261187 0.067560729 -2.5942976e-21)
(2.6242984 0.054106176 -1.8372609e-21)
(2.6258883 0.042517687 -1.5307602e-22)
(2.6263394 0.032876833 -3.9052621e-22)
(2.6283536 0.024814031 -6.3164455e-22)
(2.6295193 0.017843994 -5.9867606e-22)
(2.6315195 0.011906777 -4.2773427e-22)
(2.6329744 0.006764099 9.950832e-22)
(2.6350971 0.0023382403 2.740872e-21)
(2.636779 -0.0013448685 9.5135591e-23)
(2.6390869 -0.0043521869 -2.1662759e-21)
(2.6408859 -0.0066681487 3.283681e-22)
(2.6431922 -0.0082298443 5.1580737e-21)
(2.6448531 -0.0092559932 1.707654e-21)
(2.646806 -0.0094713689 -5.8530622e-21)
(2.6480715 -0.0094358518 -2.6122211e-22)
(2.6493867 -0.0086501632 3.5079943e-21)
(2.6500342 -0.0078668806 3.4278628e-22)
(2.6505222 -0.0064679305 -2.2470791e-21)
(2.6505888 -0.0054013839 -1.1177377e-20)
(2.6503737 -0.0039427429 -3.7033041e-21)
(2.6498906 -0.0028526071 7.842542e-21)
(2.6490699 -0.0015569612 2.380379e-21)
(2.6484717 -0.0008939929 -1.6879044e-21)
(2.6475903 -0.00025065984 -6.7961651e-21)
(2.6469174 0.00015753034 -5.7554677e-21)
(2.6459989 0.00045623363 -3.2330424e-21)
(2.7281607 -0.1871443 2.1237361e-21)
(2.7689088 -0.20069545 1.8908413e-22)
(2.8099368 -0.20786937 -3.9765959e-23)
(2.8525343 -0.1859373 4.1520778e-21)
(2.8939858 -0.16450535 1.6207123e-20)
(2.9307794 -0.11129459 2.884409e-20)
(2.9688184 -0.063581803 2.5660778e-20)
(2.9751976 0.018688224 1.7687155e-20)
(2.9712469 0.08475383 -5.6411872e-21)
(2.9294127 0.1442955 -1.3217694e-20)
(2.8918444 0.19139335 5.2711231e-21)
(2.8332236 0.21270349 7.9683073e-21)
(2.7818169 0.22891012 2.0045748e-21)
(2.7294741 0.21473081 5.2773754e-22)
(2.6855365 0.20369655 -3.1661717e-21)
(2.6555642 0.17248481 -6.8373795e-21)
(2.6316163 0.14918271 -9.2815327e-22)
(2.6223886 0.12000826 -3.2649565e-22)
(2.6139925 0.097882348 -1.1545384e-21)
(2.6145497 0.077214317 -1.0316721e-21)
(2.6136287 0.060876999 -1.1944078e-21)
(2.6169149 0.047531477 -9.939693e-22)
(2.6184799 0.036357922 6.3214851e-22)
(2.6216691 0.027580946 2.0031443e-22)
(2.6236415 0.019808974 -1.923961e-23)
(2.6262445 0.01347573 -8.453014e-23)
(2.628171 0.0077604946 7.5977792e-23)
(2.6305989 0.002850656 4.7706712e-22)
(2.6326188 -0.0014150759 2.1270109e-21)
(2.6352468 -0.0050509163 3.9020344e-22)
(2.6374378 -0.0079703946 -1.7530363e-21)
(2.6402439 -0.010167433 8.7127807e-22)
(2.6424442 -0.011710441 5.4622591e-21)
(2.6450957 -0.012405142 3.4424407e-21)
(2.6469749 -0.012667192 -3.7164989e-21)
(2.6490418 -0.012048814 -5.2303609e-21)
(2.6503267 -0.011332377 -1.7302959e-21)
(2.6515377 -0.0098466131 -6.1957832e-22)
(2.652043 -0.0085431151 -3.0950419e-21)
(2.6522752 -0.0066549114 -7.3448503e-21)
(2.6521115 -0.0052528609 -1.8160989e-22)
(2.6515787 -0.0035149821 8.6544629e-21)
(2.6508359 -0.0022856412 3.4777327e-21)
(2.6496984 -0.00092302462 -3.243265e-21)
(2.6488871 -0.00026661848 -8.1213088e-21)
(2.6477617 0.00032259154 -3.5333431e-21)
(2.6469092 0.00056263994 -1.1017044e-21)
(2.6457892 0.00066669463 4.2779147e-21)
(2.7473884 -0.19510305 8.7708037e-21)
(2.7685592 -0.21629107 1.652362e-21)
(2.8020961 -0.22982538 -1.9444998e-22)
(2.8493278 -0.20903367 -1.4367197e-20)
(2.8933081 -0.18816273 -1.0606671e-20)
(2.9308412 -0.13283835 -1.9084676e-20)
(2.973691 -0.081971424 -7.5675508e-21)
(2.9856472 0.013248726 7.4755154e-20)
(2.9912127 0.092715993 6.7992386e-20)
(2.9532819 0.16656661 1.4266373e-20)
(2.9138703 0.22504886 7.4048447e-21)
(2.8466735 0.25197149 7.3429246e-21)
(2.7895973 0.27379475 9.9145808e-21)
(2.7337027 0.25798176 1.2371354e-20)
(2.6807821 0.24556382 1.1135774e-20)
(2.6457508 0.20621517 9.0839865e-21)
(2.6157551 0.17683231 5.8352177e-21)
(2.6057425 0.13989577 2.7988892e-21)
(2.5966768 0.1120317 3.4401752e-21)
(2.5994732 0.086847627 4.2184691e-21)
(2.6000131 0.066977163 4.4152091e-21)
(2.605725 0.051670953 2.5979634e-22)
(2.6089552 0.038792139 4.7354869e-22)
(2.6138149 0.029464014 6.6318351e-22)
(2.6169585 0.020995316 2.7543203e-22)
(2.6203593 0.014568279 -3.7807366e-22)
(2.6228908 0.0084738842 -4.4583598e-22)
(2.6255721 0.0033279398 -2.9692223e-23)
(2.6278913 -0.0013968579 3.4959971e-22)
(2.6306772 -0.0055778052 7.1060834e-22)
(2.6331647 -0.0090913861 -9.6184186e-22)
(2.6363313 -0.012000758 -2.0017699e-21)
(2.6389951 -0.014156272 4.8689154e-22)
(2.6422833 -0.015490041 1.528179e-21)
(2.6448178 -0.016214149 -4.5867939e-22)
(2.6477268 -0.015981494 -1.8406505e-21)
(2.649723 -0.015451138 -3.2483334e-21)
(2.6517799 -0.013983199 3.9858449e-21)
(2.6529739 -0.012597352 5.1327906e-21)
(2.6539594 -0.01044504 -5.2051932e-21)
(2.6542278 -0.0086675511 -9.2756943e-21)
(2.6541097 -0.0063560774 -1.5809147e-21)
(2.6536484 -0.0046818456 6.789311e-21)
(2.6527365 -0.0027390142 1.321012e-21)
(2.6516937 -0.0014376164 -5.0982902e-21)
(2.6502063 -7.9775252e-05 -6.5017982e-21)
(2.649162 0.00052628992 -2.1178471e-21)
(2.6477723 0.00099756809 -3.3488819e-22)
(2.6467307 0.0010487495 4.7872056e-21)
(2.645412 0.00089807326 3.976159e-22)
(2.7705094 -0.19649733 3.2706244e-20)
(2.7685772 -0.22641278 4.673301e-21)
(2.7874227 -0.24749248 -2.1598022e-21)
(2.8377546 -0.22899886 -2.2499189e-21)
(2.8846249 -0.20930487 -1.5743737e-20)
(2.9241528 -0.1510977 -1.1048937e-20)
(2.9681094 -0.098198157 -1.9032441e-20)
(2.9825823 0.0088338586 -4.5627844e-20)
(2.9938624 0.10038612 3.1991278e-20)
(2.9630366 0.19335621 1.6670242e-20)
(2.9272303 0.26639479 -3.5226889e-20)
(2.8446528 0.29926003 2.2880272e-20)
(2.7794479 0.32686067 2.3072528e-20)
(2.7208889 0.30832103 3.7399037e-21)
(2.6633454 0.29450239 5.9744474e-21)
(2.6290759 0.24587951 6.9134579e-21)
(2.5937395 0.20886002 4.8467394e-21)
(2.5840599 0.1620447 8.9049037e-21)
(2.574275 0.12680383 6.0787429e-21)
(2.5801949 0.096044322 -4.2390199e-22)
(2.582932 0.071847396 2.3830095e-22)
(2.5920074 0.054349107 5.1770716e-21)
(2.5976143 0.039570564 1.2617808e-21)
(2.604786 0.029902425 -4.2669061e-22)
(2.609597 0.020888135 -2.0822236e-22)
(2.6140848 0.0147774 -4.9248926e-22)
(2.6174279 0.0085929828 -1.1255293e-21)
(2.6203314 0.0035878845 -1.087935e-21)
(2.6229083 -0.0013620834 -6.9556543e-22)
(2.625639 -0.0058881192 -3.4768815e-22)
(2.6282684 -0.0099159048 -1.5974326e-23)
(2.6315601 -0.013558831 7.1394189e-22)
(2.6345514 -0.016390441 -2.4690842e-22)
(2.6383399 -0.018531835 -2.5496982e-21)
(2.6414659 -0.019876668 -1.6094607e-21)
(2.6451986 -0.02024929 1.15531e-21)
(2.6479872 -0.020097148 -1.3134739e-22)
(2.651036 -0.018877415 -2.6326383e-21)
(2.653033 -0.017537457 4.2482841e-21)
(2.6549395 -0.015224267 8.8153176e-21)
(2.6559278 -0.013198853 -9.4439296e-22)
(2.6565651 -0.010433845 -1.0595192e-20)
(2.6565067 -0.0082431152 -3.3078717e-21)
(2.6559516 -0.0055873591 8.7376387e-21)
(2.6551341 -0.0037118628 3.575071e-21)
(2.6537933 -0.0016424645 -9.1993543e-22)
(2.6524207 -0.00033743586 -2.1860908e-21)
(2.650564 0.00094934804 3.1662586e-22)
(2.649271 0.0014550477 2.0483844e-21)
(2.6476118 0.0017577063 4.7086303e-21)
(2.6463746 0.0015736128 5.3821978e-22)
(2.6448655 0.0011343995 -1.3928756e-20)
(2.7944357 -0.19289632 5.3798433e-22)
(2.7707659 -0.23047794 2.585348e-20)
(2.7735581 -0.25937643 -9.2158685e-22)
(2.8183504 -0.24415232 -2.282095e-22)
(2.8660816 -0.22660747 -2.8792908e-22)
(2.903222 -0.16425948 3.0205493e-20)
(2.949099 -0.10860073 3.5424404e-20)
(2.9595311 0.0096330503 -8.2686058e-20)
(2.9748611 0.11215037 -1.090105e-19)
(2.9457107 0.222923 -4.3591597e-20)
(2.9163251 0.31249756 -5.9399347e-20)
(2.8335416 0.35583126 -3.6280932e-20)
(2.7539933 0.38916273 1.8916443e-20)
(2.6867846 0.36564707 1.6451486e-20)
(2.625164 0.34947232 -2.1262078e-21)
(2.5952479 0.29047694 -7.3103886e-21)
(2.5599298 0.24478433 -6.6783084e-21)
(2.5551098 0.18657835 -4.2871447e-21)
(2.5457315 0.14197946 -5.5893438e-22)
(2.556038 0.10436477 1.1510243e-21)
(2.5618529 0.074840353 -5.1052775e-21)
(2.5754107 0.054887897 -2.4541265e-21)
(2.5843009 0.037994186 2.1865986e-21)
(2.5946069 0.028233276 1.5277625e-21)
(2.6017246 0.018872835 -4.1716208e-23)
(2.6077027 0.013606508 1.978475e-22)
(2.6121607 0.0077241304 -9.3870956e-23)
(2.6152776 0.0033801445 -7.4438453e-22)
(2.6180973 -0.0014218364 -6.8443322e-22)
(2.6205031 -0.0059802407 -6.4342191e-22)
(2.6230774 -0.010331344 -3.1217198e-22)
(2.6261674 -0.014646207 -4.4846129e-22)
(2.6292584 -0.018170283 2.3789012e-22)
(2.6332978 -0.021270075 7.8699049e-22)
(2.6368791 -0.02338793 -1.3835904e-21)
(2.6413436 -0.02462019 -1.4689789e-21)
(2.6449016 -0.025062645 1.1574597e-21)
(2.6489899 -0.024353209 2.3053255e-21)
(2.6519239 -0.023266216 -3.7414852e-23)
(2.6549601 -0.021015301 -1.496954e-21)
(2.6568256 -0.018866512 2.7415749e-21)
(2.6584288 -0.01573709 1.7997202e-21)
(2.659095 -0.013121113 -7.3222223e-21)
(2.6592656 -0.0098171552 -5.6293484e-21)
(2.6587983 -0.0072865349 5.7738973e-21)
(2.6577306 -0.0043750122 4.0332317e-21)
(2.6565086 -0.0023734935 -2.2594288e-22)