/*--------------------------------*- C++ -*----------------------------------*\
| =========                 |                                                 |
| \\      /  F ield         | OpenFOAM: The Open Source CFD Toolbox           |
|  \\    /   O peration     | Version:  v2012                                 |
|   \\  /    A nd           | Website:  www.openfoam.com                      |
|    \\/     M anipulation  |                                                 |
\*---------------------------------------------------------------------------*/
FoamFile
{
    version     2.0;
    format      ascii;
    class       volVectorField;
    location    "57.8900752049272498";
    object      cellDisplacement;
}
// * * * * * * * * * * * * * * * * * * * * * * * * * * * * * * * * * * * * * //

dimensions      [0 1 0 0 0 0 0];


internalField   nonuniform List<vector> 
9200
(
(0.039616005 0 0)
(0.03981473 0 0)
(0.1152119 0 0)
(0.040113298 0 0)
(0.11571552 0 0)
(0.1859044 0 0)
(0.040469698 0 0)
(0.11651345 0 0)
(0.18665623 0 0)
(0.25192649 0 0)
(0.04084897 0 0)
(0.11750373 0 0)
(0.18790935 0 0)
(0.25290479 0 0)
(0.31349413 0 0)
(0.041223631 0 0)
(0.11852437 0 0)
(0.18939165 0 0)
(0.25449619 0 0)
(0.31465742 0 0)
(0.37086255 0 0)
(0.04158052 0 0)
(0.11955398 0 0)
(0.19102741 0 0)
(0.25650495 0 0)
(0.31661567 0 0)
(0.37221305 0 0)
(0.4242552 0 0)
(0.041928244 0 0)
(0.12056165 0 0)
(0.1926564 0 0)
(0.25864344 0 0)
(0.31901206 0 0)
(0.37445472 0 0)
(0.42577044 0 0)
(0.47392248 0 0)
(0.042252414 0 0)
(0.12151896 0 0)
(0.19424478 0 0)
(0.26083005 0 0)
(0.32167528 0 0)
(0.37730017 0 0)
(0.42834075 0 0)
(0.47561418 0 0)
(0.52007191 0 0)
(0.042556803 0 0)
(0.12242922 0 0)
(0.19577074 0 0)
(0.26297587 0 0)
(0.32439719 0 0)
(0.38041563 0 0)
(0.43153883 0 0)
(0.47845425 0 0)
(0.52192614 0 0)
(0.56293649 0 0)
(0.042835489 0 0)
(0.12327296 0 0)
(0.19720818 0 0)
(0.26502963 0 0)
(0.32706453 0 0)
(0.38363476 0 0)
(0.43513064 0 0)
(0.48207267 0 0)
(0.52508069 0 0)
(0.56496418 0 0)
(0.60269955 0 0)
(0.043088838 0 0)
(0.1240494 0 0)
(0.19854563 0 0)
(0.26696392 0 0)
(0.32962208 0 0)
(0.38681259 0 0)
(0.43884012 0 0)
(0.4860827 0 0)
(0.52904571 0 0)
(0.5683934 0 0)
(0.60489299 0 0)
(0.63957389 0 0)
(0.043316027 0 0)
(0.12475181 0 0)
(0.19977047 0 0)
(0.26876002 0 0)
(0.33202988 0 0)
(0.38986163 0 0)
(0.44252263 0 0)
(0.49028241 0 0)
(0.53352577 0 0)
(0.57277682 0 0)
(0.60864039 0 0)
(0.64194496 0 0)
(0.67371999 0 0)
(0.043518326 0 0)
(0.125383 0 0)
(0.2008812 0 0)
(0.27040433 0 0)
(0.33426222 0 0)
(0.3927323 0 0)
(0.44605777 0 0)
(0.49445757 0 0)
(0.53820371 0 0)
(0.5776767 0 0)
(0.61338275 0 0)
(0.64598019 0 0)
(0.67626368 0 0)
(0.7053303 0 0)
(0.043696868 0 0)
(0.12594305 0 0)
(0.20187579 0 0)
(0.2718944 0 0)
(0.3363084 0 0)
(0.39539154 0 0)
(0.44938631 0 0)
(0.49848663 0 0)
(0.54288486 0 0)
(0.58284591 0 0)
(0.61876372 0 0)
(0.65114969 0 0)
(0.68062236 0 0)
(0.70805564 0 0)
(0.73454383 0 0)
(0.043853749 0 0)
(0.12643786 0 0)
(0.20276038 0 0)
(0.273229 0 0)
(0.33815802 0 0)
(0.3978286 0 0)
(0.45247757 0 0)
(0.50228751 0 0)
(0.54741815 0 0)
(0.58803872 0 0)
(0.62442535 0 0)
(0.65696878 0 0)
(0.68617243 0 0)
(0.71271638 0 0)
(0.73744733 0 0)
(0.76153414 0 0)
(0.043990833 0 0)
(0.12687087 0 0)
(0.20353897 0 0)
(0.2744156 0 0)
(0.33981923 0 0)
(0.40003193 0 0)
(0.45530385 0 0)
(0.50581564 0 0)
(0.55169789 0 0)
(0.59307735 0 0)
(0.63013346 0 0)
(0.66313817 0 0)
(0.69248894 0 0)
(0.71870473 0 0)
(0.74243939 0 0)
(0.76462326 0 0)
(0.78642204 0 0)
(0.044110477 0 0)
(0.12724921 0 0)
(0.20422171 0 0)
(0.2754609 0 0)
(0.34129111 0 0)
(0.40200733 0 0)
(0.45786583 0 0)
(0.50904519 0 0)
(0.55567236 0 0)
(0.59785239 0 0)
(0.63569443 0 0)
(0.66937079 0 0)
(0.69917098 0 0)
(0.72548037 0 0)
(0.74882682 0 0)
(0.76992904 0 0)
(0.78969333 0 0)
(0.80936359 0 0)
(0.044214513 0 0)
(0.12757732 0 0)
(0.20481501 0 0)
(0.27637667 0 0)
(0.34259339 0 0)
(0.40376102 0 0)
(0.46015628 0 0)
(0.51197201 0 0)
(0.55931912 0 0)
(0.60229233 0 0)
(0.64098136 0 0)
(0.67547245 0 0)
(0.70594809 0 0)
(0.73269662 0 0)
(0.75611981 0 0)
(0.77676474 0 0)
(0.79533472 0 0)
(0.81282194 0 0)
(0.83046399 0 0)
(0.044305176 0 0)
(0.12786209 0 0)
(0.20532983 0 0)
(0.27717366 0 0)
(0.34372954 0 0)
(0.40530686 0 0)
(0.46219484 0 0)
(0.51459387 0 0)
(0.56262105 0 0)
(0.60636898 0 0)
(0.64590545 0 0)
(0.68128142 0 0)
(0.71259232 0 0)
(0.7400233 0 0)
(0.76387307 0 0)
(0.78453792 0 0)
(0.80258581 0 0)
(0.81878461 0 0)
(0.83410562 0 0)
(0.84986335 0 0)
(0.044384036 0 0)
(0.12810793 0 0)
(0.20577323 0 0)
(0.27786407 0 0)
(0.34472398 0 0)
(0.40666105 0 0)
(0.46398581 0 0)
(0.51692469 0 0)
(0.56558899 0 0)
(0.61006469 0 0)
(0.65042642 0 0)
(0.68671049 0 0)
(0.71894786 0 0)
(0.74723317 0 0)
(0.77177014 0 0)
(0.7928466 0 0)
(0.81088909 0 0)
(0.82648905 0 0)
(0.84040478 0 0)
(0.85369095 0 0)
(0.8676539 0 0)
(0.044453048 0 0)
(0.12832085 0 0)
(0.20615521 0 0)
(0.27845942 0 0)
(0.34558101 0 0)
(0.40783882 0 0)
(0.46555744 0 0)
(0.51897888 0 0)
(0.56822442 0 0)
(0.61338911 0 0)
(0.65453935 0 0)
(0.69170614 0 0)
(0.72490371 0 0)
(0.75414998 0 0)
(0.77955401 0 0)
(0.80132118 0 0)
(0.81975674 0 0)
(0.83528662 0 0)
(0.848533 0 0)
(0.86031319 0 0)
(0.87166272 0 0)
(0.88396124 0 0)
(0.044513321 0 0)
(0.12850464 0 0)
(0.20648247 0 0)
(0.27897068 0 0)
(0.34632506 0 0)
(0.40886065 0 0)
(0.46691968 0 0)
(0.52077745 0 0)
(0.57055553 0 0)
(0.61634744 0 0)
(0.65823552 0 0)
(0.69625311 0 0)
(0.73039365 0 0)
(0.76064605 0 0)
(0.78704348 0 0)
(0.80969853 0 0)
(0.82882634 0 0)
(0.84472797 0 0)
(0.85786968 0 0)
(0.8688947 0 0)
(0.87861728 0 0)
(0.88815176 0 0)
(0.89886661 0 0)
(0.044566474 0 0)
(0.12866431 0 0)
(0.2067634 0 0)
(0.27940907 0 0)
(0.34696046 0 0)
(0.4097406 0 0)
(0.46810328 0 0)
(0.522343 0 0)
(0.57259366 0 0)
(0.61896321 0 0)
(0.66153693 0 0)
(0.70034806 0 0)
(0.73539461 0 0)
(0.76665391 0 0)
(0.79410292 0 0)
(0.81777508 0 0)
(0.83780379 0 0)
(0.85439625 0 0)
(0.86788267 0 0)
(0.87873302 0 0)
(0.88762453 0 0)
(0.89542533 0 0)
(0.90323303 0 0)
(0.91248263 0 0)
(0.044613239 0 0)
(0.12880275 0 0)
(0.20700389 0 0)
(0.27978355 0 0)
(0.34750905 0 0)
(0.41049956 0 0)
(0.46911893 0 0)
(0.5236978 0 0)
(0.57437462 0 0)
(0.62125766 0 0)
(0.66445321 0 0)
(0.7040089 0 0)
(0.73991186 0 0)
(0.77213603 0 0)
(0.8006497 0 0)
(0.82541711 0 0)
(0.8464863 0 0)
(0.863994 0 0)
(0.878164 0 0)
(0.88932731 0 0)
(0.89800016 0 0)
(0.90487757 0 0)
(0.91082913 0 0)
(0.91702336 0 0)
(0.92488107 0 0)
(0.044654792 0 0)
(0.12892393 0 0)
(0.20721071 0 0)
(0.28010369 0 0)
(0.34797471 0 0)
(0.41114838 0 0)
(0.46999545 0 0)
(0.52486724 0 0)
(0.57591367 0 0)
(0.62325939 0 0)
(0.66702034 0 0)
(0.70725159 0 0)
(0.74395077 0 0)
(0.77709537 0 0)
(0.80663826 0 0)
(0.83251891 0 0)
(0.85471735 0 0)
(0.87328986 0 0)
(0.88838371 0 0)
(0.90022126 0 0)
(0.90917109 0 0)
(0.91575347 0 0)
(0.92070049 0 0)
(0.92492825 0 0)
(0.92958934 0 0)
(0.9361633 0 0)
(0.044691569 0 0)
(0.12902997 0 0)
(0.20738873 0 0)
(0.28037705 0 0)
(0.34837574 0 0)
(0.41170603 0 0)
(0.47074295 0 0)
(0.52587096 0 0)
(0.57724681 0 0)
(0.62499643 0 0)
(0.66925731 0 0)
(0.71010702 0 0)
(0.74754175 0 0)
(0.78153751 0 0)
(0.81205868 0 0)
(0.83903655 0 0)
(0.86239861 0 0)
(0.88213121 0 0)
(0.89831102 0 0)
(0.9110791 0 0)
(0.92068549 0 0)
(0.92750464 0 0)
(0.93210353 0 0)
(0.93522914 0 0)
(0.93780192 0 0)
(0.94103573 0 0)
(0.94639225 0 0)
(0.044724483 0 0)
(0.12912382 0 0)
(0.20754345 0 0)
(0.28061168 0 0)
(0.34871584 0 0)
(0.41218132 0 0)
(0.47138654 0 0)
(0.5267328 0 0)
(0.57838927 0 0)
(0.62649666 0 0)
(0.67120463 0 0)
(0.71260388 0 0)
(0.75070397 0 0)
(0.78549381 0 0)
(0.81693269 0 0)
(0.84494991 0 0)
(0.86946532 0 0)
(0.89040458 0 0)
(0.90777029 0 0)
(0.9216431 0 0)
(0.93218036 0 0)
(0.93963583 0 0)
(0.94442625 0 0)
(0.94712242 0 0)
(0.94850788 0 0)
(0.94954146 0 0)
(0.95142138 0 0)
(0.95565984 0 0)
(0.044753651 0 0)
(0.12920739 0 0)
(0.20767853 0 0)
(0.28081368 0 0)
(0.34900924 0 0)
(0.41258986 0 0)
(0.47193446 0 0)
(0.52746954 0 0)
(0.57937379 0 0)
(0.62778941 0 0)
(0.67288396 0 0)
(0.7147763 0 0)
(0.75347956 0 0)
(0.78898618 0 0)
(0.82127327 0 0)
(0.85027506 0 0)
(0.87589443 0 0)
(0.89803665 0 0)
(0.91664793 0 0)
(0.93173761 0 0)
(0.9433946 0 0)
(0.95177777 0 0)
(0.95717674 0 0)
(0.96001518 0 0)
(0.96090981 0 0)
(0.96065534 0 0)
(0.96021566 0 0)
(0.96084112 0 0)
(0.9640203 0 0)
(0.044781013 0 0)
(0.12928212 0 0)
(0.2077982 0 0)
(0.28098895 0 0)
(0.34925986 0 0)
(0.41293898 0 0)
(0.47240788 0 0)
(0.52810221 0 0)
(0.58021388 0 0)
(0.62889857 0 0)
(0.67433487 0 0)
(0.71665791 0 0)
(0.75589391 0 0)
(0.79205429 0 0)
(0.82512129 0 0)
(0.8550294 0 0)
(0.88168966 0 0)
(0.90500077 0 0)
(0.92486443 0 0)
(0.94123138 0 0)
(0.95412944 0 0)
(0.96364431 0 0)
(0.96996057 0 0)
(0.97337705 0 0)
(0.97436013 0 0)
(0.97352971 0 0)
(0.97171419 0 0)
(0.969908 0 0)
(0.9693458 0 0)
(0.97155597 0 0)
(0.044616911 0 0)
(0.1293535 0 0)
(0.20790607 0 0)
(0.2811436 0 0)
(0.34947818 0 0)
(0.41324112 0 0)
(0.47281314 0 0)
(0.52864397 0 0)
(0.58093691 0 0)
(0.62985145 0 0)
(0.67557725 0 0)
(0.71828047 0 0)
(0.75799267 0 0)
(0.79473136 0 0)
(0.82850133 0 0)
(0.85925146 0 0)
(0.88688241 0 0)
(0.91129176 0 0)
(0.9323807 0 0)
(0.95004815 0 0)
(0.96425565 0 0)
(0.97503478 0 0)
(0.98248792 0 0)
(0.98680718 0 0)
(0.98833056 0 0)
(0.98753117 0 0)
(0.98507174 0 0)
(0.9817878 0 0)
(0.97867827 0 0)
(0.97702018 0 0)
(0.97831333 0 0)
(0.044413853 0 0)
(0.1290017 0 0)
(0.20800945 0 0)
(0.2812806 0 0)
(0.34966928 0 0)
(0.41350254 0 0)
(0.47316638 0 0)
(0.52911151 0 0)
(0.58155447 0 0)
(0.63066671 0 0)
(0.67664567 0 0)
(0.71967769 0 0)
(0.75980207 0 0)
(0.79705822 0 0)
(0.83146335 0 0)
(0.86297196 0 0)
(0.89149613 0 0)
(0.91693948 0 0)
(0.9391906 0 0)
(0.95813305 0 0)
(0.97367974 0 0)
(0.98580007 0 0)
(0.99453554 0 0)
(0.9999929 0 0)
(1.0023976 0 0)
(1.0020982 0 0)
(0.99960855 0 0)
(0.99559333 0 0)
(0.99091719 0 0)
(0.98660221 0 0)
(0.98390853 0 0)
(0.98436608 0 0)
(0.044231602 0 0)
(0.12838557 0 0)
(0.20748295 0 0)
(0.28141299 0 0)
(0.34983834 0 0)
(0.41373195 0 0)
(0.4734733 0 0)
(0.52951577 0 0)
(0.58208829 0 0)
(0.6313678 0 0)
(0.67755763 0 0)
(0.72087603 0 0)
(0.76136536 0 0)
(0.79907153 0 0)
(0.83403684 0 0)
(0.86623653 0 0)
(0.89557967 0 0)
(0.92196861 0 0)
(0.94530761 0 0)
(0.96547807 0 0)
(0.98235312 0 0)
(0.99584911 0 0)
(1.0059535 0 0)
(1.0127081 0 0)
(1.0162446 0 0)
(1.0168008 0 0)
(1.0147643 0 0)
(1.0106547 0 0)
(1.0051748 0 0)
(0.99919227 0 0)
(0.99373174 0 0)
(0.99008681 0 0)
(0.98975448 0 0)
(0.044070674 0 0)
(0.12783276 0 0)
(0.20648906 0 0)
(0.28072388 0 0)
(0.35000086 0 0)
(0.41393746 0 0)
(0.47374574 0 0)
(0.52986974 0 0)
(0.58254836 0 0)
(0.63196941 0 0)
(0.67834138 0 0)
(0.72190585 0 0)
(0.7627058 0 0)
(0.80080822 0 0)
(0.83627231 0 0)
(0.86908449 0 0)
(0.8991642 0 0)
(0.92642825 0 0)
(0.95077679 0 0)
(0.97209395 0 0)
(0.99025305 0 0)
(1.005124 0 0)
(1.0166358 0 0)
(1.0247831 0 0)
(1.0296246 0 0)
(1.0313019 0 0)
(1.0300889 0 0)
(1.0263834 0 0)
(1.0207423 0 0)
(1.0138681 0 0)
(1.0066522 0 0)
(1.0001355 0 0)
(0.99559335 0 0)
(0.99454286 0 0)
(0.043932383 0 0)
(0.12734493 0 0)
(0.20559853 0 0)
(0.27938589 0 0)
(0.34916877 0 0)
(0.41413204 0 0)
(0.47399105 0 0)
(0.53018324 0 0)
(0.58295076 0 0)
(0.6324907 0 0)
(0.67901232 0 0)
(0.72278838 0 0)
(0.76386198 0 0)
(0.80230421 0 0)
(0.83819954 0 0)
(0.87156028 0 0)
(0.90230584 0 0)
(0.93035485 0 0)
(0.9556273 0 0)
(0.97801728 0 0)
(0.9973859 0 0)
(1.0135876 0 0)
(1.0265168 0 0)
(1.0361104 0 0)
(1.0423659 0 0)
(1.0453513 0 0)
(1.0452414 0 0)
(1.0423232 0 0)
(1.0370316 0 0)
(1.0299272 0 0)
(1.0217451 0 0)
(1.0133753 0 0)
(1.0058586 0 0)
(1.0004949 0 0)
(0.99876696 0 0)
(0.043817579 0 0)
(0.12692512 0 0)
(0.20481199 0 0)
(0.27818462 0 0)
(0.34752236 0 0)
(0.41318077 0 0)
(0.47422539 0 0)
(0.53046387 0 0)
(0.58330586 0 0)
(0.63294323 0 0)
(0.67959185 0 0)
(0.72354994 0 0)
(0.76485288 0 0)
(0.80359028 0 0)
(0.83986476 0 0)
(0.87370502 0 0)
(0.90503756 0 0)
(0.93379999 0 0)
(0.9599167 0 0)
(0.9832852 0 0)
(1.0037809 0 0)
(1.021258 0 0)
(1.0355735 0 0)
(1.0466184 0 0)
(1.0543442 0 0)
(1.0587585 0 0)
(1.0599526 0 0)
(1.0581153 0 0)
(1.0535691 0 0)
(1.0467582 0 0)
(1.0382751 0 0)
(1.0288526 0 0)
(1.0193983 0 0)
(1.0109631 0 0)
(1.0048254 0 0)
(1.0024824 0 0)
(0.04372745 0 0)
(0.12657652 0 0)
(0.20413523 0 0)
(0.27712408 0 0)
(0.34604327 0 0)
(0.41126009 0 0)
(0.47317279 0 0)
(0.53073392 0 0)
(0.58362261 0 0)
(0.63334142 0 0)
(0.68009429 0 0)
(0.72420685 0 0)
(0.76571095 0 0)
(0.80469868 0 0)
(0.84129496 0 0)
(0.87555815 0 0)
(0.90741517 0 0)
(0.93680691 0 0)
(0.9636803 0 0)
(0.98795009 0 0)
(1.0094898 0 0)
(1.0281528 0 0)
(1.0437877 0 0)
(1.0562604 0 0)
(1.065481 0 0)
(1.0713966 0 0)
(1.0740294 0 0)
(1.0734869 0 0)
(1.0699927 0 0)
(1.0638817 0 0)
(1.0556319 0 0)
(1.0458365 0 0)
(1.0352552 0 0)
(1.0247907 0 0)
(1.0154877 0 0)
(1.0086428 0 0)
(1.0057218 0 0)
(0.043662348 0 0)
(0.12630182 0 0)
(0.20357287 0 0)
(0.27620938 0 0)
(0.34473803 0 0)
(0.40954018 0 0)
(0.47101433 0 0)
(0.52958163 0 0)
(0.58392629 0 0)
(0.63369755 0 0)
(0.68053479 0 0)
(0.72478013 0 0)
(0.76645102 0 0)
(0.80565356 0 0)
(0.84252955 0 0)
(0.87715896 0 0)
(0.90947006 0 0)
(0.939424 0 0)
(0.9669787 0 0)
(0.99205683 0 0)
(1.0145474 0 0)
(1.0343134 0 0)
(1.0511979 0 0)
(1.0650469 0 0)
(1.0757382 0 0)
(1.0831783 0 0)
(1.0873289 0 0)
(1.088228 0 0)
(1.0860125 0 0)
(1.0809206 0 0)
(1.0733207 0 0)
(1.0636977 0 0)
(1.0526709 0 0)
(1.0409951 0 0)
(1.029585 0 0)
(1.0194879 0 0)
(1.0119778 0 0)
(1.0085332 0 0)
(0.043623184 0 0)
(0.12610271 0 0)
(0.20312876 0 0)
(0.27544884 0 0)
(0.34361088 0 0)
(0.40801912 0 0)
(0.46908291 0 0)
(0.52720153 0 0)
(0.58268362 0 0)
(0.63403284 0 0)
(0.68092884 0 0)
(0.72528402 0 0)
(0.76709934 0 0)
(0.80648247 0 0)
(0.84359191 0 0)
(0.8785396 0 0)
(0.91125237 0 0)
(0.94169518 0 0)
(0.96984887 0 0)
(0.99565853 0 0)
(1.0190174 0 0)
(1.0397921 0 0)
(1.0578345 0 0)
(1.0729886 0 0)
(1.0850993 0 0)
(1.0940464 0 0)
(1.0997563 0 0)
(1.1021925 0 0)
(1.1014156 0 0)
(1.0975813 0 0)
(1.0909617 0 0)
(1.0819359 0 0)
(1.0710175 0 0)
(1.0588237 0 0)
(1.0461305 0 0)
(1.0338428 0 0)
(1.0229967 0 0)
(1.0148806 0 0)
(1.0109461 0 0)
(0.043609816 0 0)
(0.12598126 0 0)
(0.20280657 0 0)
(0.27484611 0 0)
(0.34267416 0 0)
(0.40671059 0 0)
(0.46737616 0 0)
(0.52506972 0 0)
(0.5800968 0 0)
(0.63271285 0 0)
(0.6813003 0 0)
(0.72573308 0 0)
(0.76766863 0 0)
(0.8072038 0 0)
(0.84451402 0 0)
(0.87973423 0 0)
(0.91278966 0 0)
(0.94366256 0 0)
(0.97234849 0 0)
(0.99880436 0 0)
(1.0229398 0 0)
(1.044636 0 0)
(1.0637493 0 0)
(1.0801215 0 0)
(1.0935875 0 0)
(1.1040021 0 0)
(1.1112584 0 0)
(1.1152753 0 0)
(1.116041 0 0)
(1.1136363 0 0)
(1.1082469 0 0)
(1.1001593 0 0)
(1.0897819 0 0)
(1.0776328 0 0)
(1.0643491 0 0)
(1.0506987 0 0)
(1.0375922 0 0)
(1.0260637 0 0)
(1.017379 0 0)
(1.0130016 0 0)
(0.12593779 0 0)
(0.043616795 0 0)
(0.202608 0 0)
(0.27440706 0 0)
(0.34193054 0 0)
(0.40562044 0 0)
(0.46590892 0 0)
(0.52319058 0 0)
(0.57778032 0 0)
(0.62993503 0 0)
(0.67991351 0 0)
(0.72615675 0 0)
(0.76817655 0 0)
(0.80783939 0 0)
(0.84531571 0 0)
(0.88076902 0 0)
(0.91412425 0 0)
(0.94536657 0 0)
(0.97451248 0 0)
(1.0015437 0 0)
(1.0263779 0 0)
(1.048904 0 0)
(1.06899 0 0)
(1.0864872 0 0)
(1.1012307 0 0)
(1.1130522 0 0)
(1.1218107 0 0)
(1.1274062 0 0)
(1.1297773 0 0)
(1.1289205 0 0)
(1.1249456 0 0)
(1.1180565 0 0)
(1.1085705 0 0)
(1.0969044 0 0)
(1.0835998 0 0)
(1.0692875 0 0)
(1.0547522 0 0)
(1.0408889 0 0)
(1.0287172 0 0)
(1.0195156 0 0)
(1.0147265 0 0)
(0.20253578 0 0)
(0.12595527 0 0)
(0.04364346 0 0)
(0.274134 0 0)
(0.34138918 0 0)
(0.40475927 0 0)
(0.46468817 0 0)
(0.52157327 0 0)
(0.57574008 0 0)
(0.62745268 0 0)
(0.67696853 0 0)
(0.72471499 0 0)
(0.76865343 0 0)
(0.80840534 0 0)
(0.8460215 0 0)
(0.88167223 0 0)
(0.91527954 0 0)
(0.94684193 0 0)
(0.97639141 0 0)
(1.0039244 0 0)
(1.0293733 0 0)
(1.0526449 0 0)
(1.0736165 0 0)
(1.0921454 0 0)
(1.1080699 0 0)
(1.1212221 0 0)
(1.1314341 0 0)
(1.1385734 0 0)
(1.1425533 0 0)
(1.1433127 0 0)
(1.1408793 0 0)
(1.1353839 0 0)
(1.1270593 0 0)
(1.1162356 0 0)
(1.1033537 0 0)
(1.0889563 0 0)
(1.0736898 0 0)
(1.0583233 0 0)
(1.0437559 0 0)
(1.0310004 0 0)
(1.0213159 0 0)
(1.0161556 0 0)
(0.27403007 0 0)
(0.20256009 0 0)
(0.12603253 0 0)
(0.043696268 0 0)
(0.3410509 0 0)
(0.40413082 0 0)
(0.46372504 0 0)
(0.52023153 0 0)
(0.57398499 0 0)
(0.62526329 0 0)
(0.67433847 0 0)
(0.72162081 0 0)
(0.76716644 0 0)
(0.80893393 0 0)
(0.84664957 0 0)
(0.88246529 0 0)
(0.91628869 0 0)
(0.94812326 0 0)
(0.97801663 0 0)
(1.0059895 0 0)
(1.0319842 0 0)
(1.0559175 0 0)
(1.0776807 0 0)
(1.0971457 0 0)
(1.1141595 0 0)
(1.12855 0 0)
(1.1401426 0 0)
(1.1487791 0 0)
(1.1543342 0 0)
(1.1567266 0 0)
(1.1559211 0 0)
(1.1519593 0 0)
(1.1450024 0 0)
(1.1352992 0 0)
(1.1232071 0 0)
(1.1091714 0 0)
(1.0937536 0 0)
(1.0775895 0 0)
(1.0614593 0 0)
(1.0462426 0 0)
(1.0329379 0 0)
(1.0228164 0 0)
(1.0173132 0 0)
(0.34092157 0 0)
(0.27405682 0 0)
(0.20268228 0 0)
(0.1261886 0 0)
(0.043774206 0 0)
(0.40374202 0 0)
(0.46302433 0 0)
(0.51917214 0 0)
(0.57253043 0 0)
(0.62338364 0 0)
(0.67201985 0 0)
(0.7188562 0 0)
(0.76393486 0 0)
(0.80740943 0 0)
(0.847235 0 0)
(0.88316828 0 0)
(0.91717298 0 0)
(0.94923853 0 0)
(0.97942959 0 0)
(1.0077819 0 0)
(1.0342499 0 0)
(1.0587686 0 0)
(1.0812412 0 0)
(1.1015521 0 0)
(1.1195545 0 0)
(1.1350865 0 0)
(1.1479741 0 0)
(1.1580407 0 0)
(1.1651313 0 0)
(1.1691341 0 0)
(1.1699813 0 0)
(1.1676458 0 0)
(1.1622048 0 0)
(1.1538387 0 0)
(1.1428222 0 0)
(1.1295223 0 0)
(1.1144041 0 0)
(1.0980258 0 0)
(1.0810341 0 0)
(1.0641874 0 0)
(1.0483687 0 0)
(1.0345672 0 0)
(1.0240398 0 0)
(1.0182284 0 0)
(0.40359447 0 0)
(0.34095218 0 0)
(0.27421415 0 0)
(0.20292927 0 0)
(0.12642087 0 0)
(0.043877348 0 0)
(0.46259303 0 0)
(0.51840464 0 0)
(0.57138333 0 0)
(0.62182434 0 0)
(0.6700302 0 0)
(0.716422 0 0)
(0.76104915 0 0)
(0.80405172 0 0)
(0.84567924 0 0)
(0.88382015 0 0)
(0.91795448 0 0)
(0.95021527 0 0)
(0.98065795 0 0)
(1.0093377 0 0)
(1.0362203 0 0)
(1.0612518 0 0)
(1.0843496 0 0)
(1.1054151 0 0)
(1.1243161 0 0)
(1.1408929 0 0)
(1.1549755 0 0)
(1.1663891 0 0)
(1.1749563 0 0)
(1.1805312 0 0)
(1.1830112 0 0)
(1.1823416 0 0)
(1.1785253 0 0)
(1.1716552 0 0)
(1.1619406 0 0)
(1.1496688 0 0)
(1.13523 0 0)
(1.1190893 0 0)
(1.10182 0 0)
(1.0840515 0 0)
(1.06655 0 0)
(1.0501768 0 0)
(1.0359103 0 0)
(1.0250167 0 0)
(1.0189229 0 0)
(0.46243369 0 0)
(0.4036349 0 0)
(0.34114437 0 0)
(0.27454101 0 0)
(0.20330099 0 0)
(0.12672925 0 0)
(0.044004276 0 0)
(0.51793294 0 0)
(0.57055378 0 0)
(0.62059722 0 0)
(0.66838078 0 0)
(0.7143324 0 0)
(0.75850972 0 0)
(0.80105713 0 0)
(0.84220556 0 0)
(0.88223555 0 0)
(0.91867548 0 0)
(0.95107796 0 0)
(0.98173311 0 0)
(1.0106928 0 0)
(1.0379306 0 0)
(1.0634093 0 0)
(1.0870588 0 0)
(1.1087967 0 0)
(1.1285013 0 0)
(1.1460253 0 0)
(1.1612078 0 0)
(1.1738718 0 0)
(1.1838343 0 0)
(1.1909267 0 0)
(1.195012 0 0)
(1.1960008 0 0)
(1.1938574 0 0)
(1.1885987 0 0)
(1.1803523 0 0)
(1.1693436 0 0)
(1.1558823 0 0)
(1.1403647 0 0)
(1.1232712 0 0)
(1.1051655 0 0)
(1.0866857 0 0)
(1.0685703 0 0)
(1.051685 0 0)
(1.0369995 0 0)
(1.0257682 0 0)
(1.019421 0 0)
(0.51776278 0 0)
(0.46248502 0 0)
(0.40386259 0 0)
(0.34154455 0 0)
(0.27503401 0 0)
(0.20379308 0 0)
(0.12711015 0 0)
(0.044154604 0 0)
(0.57004692 0 0)
(0.61971013 0 0)
(0.66708342 0 0)
(0.71260173 0 0)
(0.75633091 0 0)
(0.79842201 0 0)
(0.83911063 0 0)
(0.87865135 0 0)
(0.91707059 0 0)
(0.95186711 0 0)
(0.98268192 0 0)
(1.0118783 0 0)
(1.0394213 0 0)
(1.0652871 0 0)
(1.0894164 0 0)
(1.1117451 0 0)
(1.1321689 0 0)
(1.1505478 0 0)
(1.1667279 0 0)
(1.1805428 0 0)
(1.1918101 0 0)
(1.2003456 0 0)
(1.2059863 0 0)
(1.2086096 0 0)
(1.2081368 0 0)
(1.2045524 0 0)
(1.1979036 0 0)
(1.1883332 0 0)
(1.1760929 0 0)
(1.1615004 0 0)
(1.1449714 0 0)
(1.1269819 0 0)
(1.1081055 0 0)
(1.0889591 0 0)
(1.0702853 0 0)
(1.0529301 0 0)
(1.0378546 0 0)
(1.0263194 0 0)
(1.0197416 0 0)
(0.56986731 0 0)
(0.51782432 0 0)
(0.46274607 0 0)
(0.40433312 0 0)
(0.34215001 0 0)
(0.27569153 0 0)
(0.20440449 0 0)
(0.12756259 0 0)
(0.044326728 0 0)
(0.61916959 0 0)
(0.66614735 0 0)
(0.71124024 0 0)
(0.75452761 0 0)
(0.79616307 0 0)
(0.83638774 0 0)
(0.87545711 0 0)
(0.91338701 0 0)
(0.95025249 0 0)
(0.98354648 0 0)
(1.0129207 0 0)
(1.0407244 0 0)
(1.0669216 0 0)
(1.0914681 0 0)
(1.114316 0 0)
(1.135374 0 0)
(1.1545155 0 0)
(1.171601 0 0)
(1.1864682 0 0)
(1.1989389 0 0)
(1.2088295 0 0)
(1.2159567 0 0)
(1.220168 0 0)
(1.2213531 0 0)
(1.2194524 0 0)
(1.2144721 0 0)
(1.2064756 0 0)
(1.1956376 0 0)
(1.1822219 0 0)
(1.1665639 0 0)
(1.1490819 0 0)
(1.1302627 0 0)
(1.1106648 0 0)
(1.0909118 0 0)
(1.0717154 0 0)
(1.0539288 0 0)
(1.0385022 0 0)
(1.0266892 0 0)
(1.0199058 0 0)
(0.61898111 0 0)
(0.5699405 0 0)
(0.5181178 0 0)
(0.46328005 0 0)
(0.4050436 0 0)
(0.3429577 0 0)
(0.27650761 0 0)
(0.20512915 0 0)
(0.12808216 0 0)
(0.044519903 0 0)
(0.66557797 0 0)
(0.71025805 0 0)
(0.75311078 0 0)
(0.79429381 0 0)
(0.83405527 0 0)
(0.87264958 0 0)
(0.91010335 0 0)
(0.94647835 0 0)
(0.98192731 0 0)
(1.0138715 0 0)
(1.0418687 0 0)
(1.0683497 0 0)
(1.0932551 0 0)
(1.116553 0 0)
(1.1381702 0 0)
(1.1579908 0 0)
(1.175885 0 0)
(1.1917054 0 0)
(1.2052815 0 0)
(1.2164282 0 0)
(1.2249573 0 0)
(1.2306949 0 0)
(1.2334992 0 0)
(1.2332753 0 0)
(1.2299791 0 0)
(1.2236409 0 0)
(1.2143524 0 0)
(1.2023011 0 0)
(1.1877732 0 0)
(1.1711076 0 0)
(1.1527377 0 0)
(1.1331414 0 0)
(1.1128822 0 0)
(1.0925623 0 0)
(1.0728926 0 0)
(1.0547106 0 0)
(1.0389601 0 0)
(1.0268992 0 0)
(1.0199308 0 0)
(0.66538332 0 0)
(0.61906236 0 0)
(0.57026448 0 0)
(0.51871283 0 0)
(0.46408312 0 0)
(0.40598873 0 0)
(0.34396119 0 0)
(0.2774789 0 0)
(0.20596432 0 0)
(0.12866648 0 0)
(0.044733348 0 0)
(0.7096617 0 0)
(0.75208988 0 0)
(0.79282623 0 0)
(0.83212532 0 0)
(0.87024317 0 0)
(0.90721924 0 0)
(0.94311933 0 0)
(0.97807128 0 0)
(1.0122486 0 0)
(1.0429103 0 0)
(1.0696049 0 0)
(1.0948163 0 0)
(1.1185032 0 0)
(1.1406076 0 0)
(1.1610247 0 0)
(1.179642 0 0)
(1.196322 0 0)
(1.2109008 0 0)
(1.2232023 0 0)
(1.2330398 0 0)
(1.2402245 0 0)
(1.2445892 0 0)
(1.2460087 0 0)
(1.244402 0 0)
(1.2397487 0 0)
(1.2321016 0 0)
(1.2215677 0 0)
(1.2083619 0 0)
(1.1927785 0 0)
(1.1751697 0 0)
(1.1559672 0 0)
(1.1356552 0 0)
(1.1147793 0 0)
(1.0939456 0 0)
(1.0738341 0 0)
(1.0552917 0 0)
(1.0392525 0 0)
(1.0269669 0 0)
(1.0198337 0 0)
(0.70945679 0 0)
(0.66547291 0 0)
(0.61941533 0 0)
(0.57091733 0 0)
(0.51960421 0 0)
(0.46515021 0 0)
(0.40716475 0 0)
(0.34515623 0 0)
(0.27859784 0 0)
(0.20690357 0 0)
(0.12931385 0 0)
(0.044906575 0 0)
(0.75147248 0 0)
(0.79176951 0 0)
(0.83061096 0 0)
(0.86825362 0 0)
(0.90474598 0 0)
(0.94016562 0 0)
(0.97464353 0 0)
(1.0083172 0 0)
(1.0412926 0 0)
(1.0707375 0 0)
(1.0961843 0 0)
(1.1202059 0 0)
(1.1427322 0 0)
(1.1636735 0 0)
(1.1829278 0 0)
(1.2003742 0 0)
(1.2158615 0 0)
(1.2292175 0 0)
(1.2402601 0 0)
(1.2488013 0 0)
(1.254655 0 0)
(1.2576655 0 0)
(1.2577221 0 0)
(1.2547649 0 0)
(1.2487917 0 0)
(1.2398791 0 0)
(1.2281582 0 0)
(1.2138538 0 0)
(1.197278 0 0)
(1.1787819 0 0)
(1.1588086 0 0)
(1.1378288 0 0)
(1.1163898 0 0)
(1.0950764 0 0)
(1.0745673 0 0)
(1.055699 0 0)
(1.0393957 0 0)
(1.0269096 0 0)
(1.0196089 0 0)
(0.75126291 0 0)
(0.70955235 0 0)
(0.66585119 0 0)
(0.62011811 0 0)
(0.57189076 0 0)
(0.52078771 0 0)
(0.46647402 0 0)
(0.40856119 0 0)
(0.3465334 0 0)
(0.27985846 0 0)
(0.207946 0 0)
(0.12969382 0 0)
(0.044886947 0 0)
(0.79113093 0 0)
(0.82952122 0 0)
(0.86669083 0 0)
(0.90270288 0 0)
(0.9376363 0 0)
(0.9716285 0 0)
(1.0048209 0 0)
(1.0372925 0 0)
(1.0691368 0 0)
(1.0974191 0 0)
(1.1216966 0 0)
(1.1445867 0 0)
(1.1659824 0 0)
(1.185798 0 0)
(1.2039263 0 0)
(1.220226 0 0)
(1.2345366 0 0)
(1.2466847 0 0)
(1.2564806 0 0)
(1.2637323 0 0)
(1.2682685 0 0)
(1.2699452 0 0)
(1.2686658 0 0)
(1.2643896 0 0)
(1.2571403 0 0)
(1.2470143 0 0)
(1.2341562 0 0)
(1.2188133 0 0)
(1.2013014 0 0)
(1.1819801 0 0)
(1.1612873 0 0)
(1.1396952 0 0)
(1.1177311 0 0)
(1.0959854 0 0)
(1.0751112 0 0)
(1.0559479 0 0)
(1.0394091 0 0)
(1.0266519 0 0)
(1.0192414 0 0)
(0.79091593 0 0)
(0.7513659 0 0)
(0.70994684 0 0)
(0.66659884 0 0)
(0.62116944 0 0)
(0.57318332 0 0)
(0.52225399 0 0)
(0.46804682 0 0)
(0.4101722 0 0)
(0.34808556 0 0)
(0.28125874 0 0)
(0.20851907 0 0)
(0.12964841 0 0)
(0.044865303 0 0)
(0.82886306 0 0)
(0.86556609 0 0)
(0.9010972 0 0)
(0.93554361 0 0)
(0.96904896 0 0)
(1.0017514 0 0)
(1.0337356 0 0)
(1.0650727 0 0)
(1.0958367 0 0)
(1.1230395 0 0)
(1.1462111 0 0)
(1.1679989 0 0)
(1.188303 0 0)
(1.2070306 0 0)
(1.2240555 0 0)
(1.2392259 0 0)
(1.2523763 0 0)
(1.2633258 0 0)
(1.271882 0 0)
(1.2778603 0 0)
(1.2810946 0 0)
(1.2814548 0 0)
(1.2788645 0 0)
(1.2733073 0 0)
(1.2648241 0 0)
(1.2535327 0 0)
(1.2395977 0 0)
(1.2232725 0 0)
(1.2048861 0 0)
(1.1847928 0 0)
(1.1634378 0 0)
(1.1412736 0 0)
(1.1188318 0 0)
(1.0966906 0 0)
(1.0754888 0 0)
(1.0560591 0 0)
(1.0391044 0 0)
(1.0262071 0 0)
(1.0187381 0 0)
(0.82864259 0 0)
(0.79102259 0 0)
(0.75177883 0 0)
(0.71073355 0 0)
(0.66771596 0 0)
(0.62255798 0 0)
(0.57478157 0 0)
(0.5239959 0 0)
(0.46985768 0 0)
(0.41198627 0 0)
(0.34981063 0 0)
(0.28200703 0 0)
(0.20845775 0 0)
(0.12959891 0 0)
(0.044840018 0 0)
(0.86488514 0 0)
(0.89994266 0 0)
(0.93390169 0 0)
(0.96691358 0 0)
(0.9991223 0 0)
(1.0306165 0 0)
(1.0614678 0 0)
(1.0917235 0 0)
(1.1214839 0 0)
(1.1476676 0 0)
(1.169764 0 0)
(1.1904911 0 0)
(1.2097442 0 0)
(1.227409 0 0)
(1.2433462 0 0)
(1.2574033 0 0)
(1.2694061 0 0)
(1.279164 0 0)
(1.286486 0 0)
(1.2911973 0 0)
(1.2931463 0 0)
(1.2922138 0 0)
(1.2883448 0 0)
(1.2815436 0 0)
(1.2718752 0 0)
(1.2594735 0 0)
(1.2445136 0 0)
(1.2272663 0 0)
(1.2080601 0 0)
(1.1872534 0 0)
(1.1652793 0 0)
(1.1425923 0 0)
(1.1197148 0 0)
(1.0972175 0 0)
(1.0757172 0 0)
(1.055699 0 0)
(1.0385215 0 0)
(1.0256384 0 0)
(1.018096 0 0)
(0.86465491 0 0)
(0.82875247 0 0)
(0.79145155 0 0)
(0.75260117 0 0)
(0.71190436 0 0)
(0.6691894 0 0)
(0.62427946 0 0)
(0.57668084 0 0)
(0.52600119 0 0)
(0.47189848 0 0)
(0.41400114 0 0)
(0.35071697 0 0)
(0.28193369 0 0)
(0.20839272 0 0)
(0.1295408 0 0)
(0.044810745 0 0)
(0.8992431 0 0)
(0.93271789 0 0)
(0.96523922 0 0)
(0.99694973 0 0)
(1.0279437 0 0)
(1.0583011 0 0)
(1.0880735 0 0)
(1.1173268 0 0)
(1.1461472 0 0)
(1.1713428 0 0)
(1.1924048 0 0)
(1.2121148 0 0)
(1.2303419 0 0)
(1.2469599 0 0)
(1.2618277 0 0)
(1.2747832 0 0)
(1.2856429 0 0)
(1.2942138 0 0)
(1.3003108 0 0)
(1.3037708 0 0)
(1.3044497 0 0)
(1.3022477 0 0)
(1.2971316 0 0)
(1.2891301 0 0)
(1.2783231 0 0)
(1.2648626 0 0)
(1.2489389 0 0)
(1.2308248 0 0)
(1.2108577 0 0)
(1.1893824 0 0)
(1.1668418 0 0)
(1.143677 0 0)
(1.1204035 0 0)
(1.0975826 0 0)
(1.0752964 0 0)
(1.054932 0 0)
(1.0378328 0 0)
(1.0249404 0 0)
(1.0173143 0 0)
(0.89900673 0 0)
(0.8647645 0 0)
(0.82919384 0 0)
(0.79230248 0 0)
(0.75382342 0 0)
(0.71345467 0 0)
(0.67101576 0 0)
(0.62631767 0 0)
(0.57886456 0 0)
(0.52825785 0 0)
(0.47416411 0 0)
(0.41504643 0 0)
(0.35063027 0 0)
(0.28185644 0 0)
(0.20831497 0 0)
(0.12947195 0 0)
(0.044777151 0 0)
(0.93200176 0 0)
(0.96403156 0 0)
(0.99524272 0 0)
(1.0257376 0 0)
(1.0555939 0 0)
(1.0848714 0 0)
(1.1136389 0 0)
(1.1419484 0 0)
(1.169864 0 0)
(1.1941158 0 0)
(1.2141887 0 0)
(1.2329067 0 0)
(1.2501233 0 0)
(1.2657134 0 0)
(1.2795262 0 0)
(1.2913866 0 0)
(1.3011057 0 0)
(1.3084941 0 0)
(1.3133739 0 0)
(1.3155915 0 0)
(1.3150207 0 0)
(1.3115773 0 0)
(1.3052522 0 0)
(1.2960931 0 0)
(1.2842004 0 0)
(1.2697378 0 0)
(1.252903 0 0)
(1.2339811 0 0)
(1.2132992 0 0)
(1.1912102 0 0)
(1.1681521 0 0)
(1.1445514 0 0)
(1.1209194 0 0)
(1.0971002 0 0)
(1.0743135 0 0)
(1.0540841 0 0)
(1.0370335 0 0)
(1.0241128 0 0)
(1.0163898 0 0)
(0.93175687 0 0)
(0.89911699 0 0)
(0.86521335 0 0)
(0.83007013 0 0)
(0.7935714 0 0)
(0.75544213 0 0)
(0.71537161 0 0)
(0.67317746 0 0)
(0.62866439 0 0)
(0.58132321 0 0)
(0.53076566 0 0)
(0.47532445 0 0)
(0.41493749 0 0)
(0.35053772 0 0)
(0.28176463 0 0)
(0.2082223 0 0)
(0.1293912 0 0)
(0.044738639 0 0)
(0.96330084 0 0)
(0.99401326 0 0)
(1.0240033 0 0)
(1.0533542 0 0)
(1.0821312 0 0)
(1.1104062 0 0)
(1.1382299 0 0)
(1.1656311 0 0)
(1.1926845 0 0)
(1.2160409 0 0)
(1.2351519 0 0)
(1.2528917 0 0)
(1.2691191 0 0)
(1.2836961 0 0)
(1.2964592 0 0)
(1.3072266 0 0)
(1.3158081 0 0)
(1.3220181 0 0)
(1.3256898 0 0)
(1.3266838 0 0)
(1.3248836 0 0)
(1.3202288 0 0)
(1.3127323 0 0)
(1.3024645 0 0)
(1.2895361 0 0)
(1.2741249 0 0)
(1.2564391 0 0)
(1.2367561 0 0)
(1.2154152 0 0)
(1.1927652 0 0)
(1.1692355 0 0)
(1.1452385 0 0)
(1.1203739 0 0)
(1.0958802 0 0)
(1.0732779 0 0)
(1.0531488 0 0)
(1.036121 0 0)
(1.0231502 0 0)
(1.0153224 0 0)
(0.96305051 0 0)
(0.93186612 0 0)
(0.8995742 0 0)
(0.86611208 0 0)
(0.83137795 0 0)
(0.79524807 0 0)
(0.75744275 0 0)
(0.71764572 0 0)
(0.67566607 0 0)
(0.6313027 0 0)
(0.58405365 0 0)
(0.53203626 0 0)
(0.47518852 0 0)
(0.414823 0 0)
(0.35042806 0 0)
(0.28165289 0 0)
(0.20811028 0 0)
(0.12929587 0 0)
(0.044694265 0 0)
(0.99326637 0 0)
(1.0227557 0 0)
(1.0515982 0 0)
(1.0798671 0 0)
(1.107639 0 0)
(1.1349691 0 0)
(1.1618876 0 0)
(1.1884272 0 0)
(1.2146685 0 0)
(1.2371544 0 0)
(1.2553156 0 0)
(1.2721024 0 0)
(1.2873566 0 0)
(1.3009274 0 0)
(1.3126431 0 0)
(1.3223175 0 0)
(1.3297632 0 0)
(1.3348017 0 0)
(1.337276 0 0)
(1.3370596 0 0)
(1.3340562 0 0)
(1.3282241 0 0)
(1.3196005 0 0)
(1.3082709 0 0)
(1.2943626 0 0)
(1.2780597 0 0)
(1.2595673 0 0)
(1.2391805 0 0)
(1.217237 0 0)
(1.1940747 0 0)
(1.1701154 0 0)
(1.1446432 0 0)
(1.1189033 0 0)
(1.0946396 0 0)
(1.0721838 0 0)
(1.052124 0 0)
(1.0350914 0 0)
(1.022054 0 0)
(1.0141089 0 0)
(0.99300975 0 0)
(0.96315915 0 0)
(0.9323281 0 0)
(0.90049219 0 0)
(0.86745306 0 0)
(0.83310641 0 0)
(0.79732537 0 0)
(0.75981813 0 0)
(0.72026133 0 0)
(0.67846371 0 0)
(0.63423225 0 0)
(0.58542945 0 0)
(0.53188205 0 0)
(0.47504761 0 0)
(0.41468293 0 0)
(0.35029164 0 0)
(0.28151655 0 0)
(0.20797601 0 0)
(0.12918382 0 0)
(0.044643098 0 0)
(1.0219971 0 0)
(1.05033 0 0)
(1.0780883 0 0)
(1.1053539 0 0)
(1.132181 0 0)
(1.1586049 0 0)
(1.1846636 0 0)
(1.2103903 0 0)
(1.2358419 0 0)
(1.257468 0 0)
(1.274715 0 0)
(1.2905661 0 0)
(1.304853 0 0)
(1.317421 0 0)
(1.3280888 0 0)
(1.3366704 0 0)
(1.3429835 0 0)
(1.3468576 0 0)
(1.3481476 0 0)
(1.346743 0 0)
(1.3425626 0 0)
(1.3355904 0 0)
(1.3258831 0 0)
(1.3135445 0 0)
(1.2987085 0 0)
(1.2815584 0 0)
(1.2623182 0 0)
(1.2412875 0 0)
(1.2187911 0 0)
(1.1951614 0 0)