/*--------------------------------*- C++ -*----------------------------------*\
| =========                 |                                                 |
| \\      /  F ield         | OpenFOAM: The Open Source CFD Toolbox           |
|  \\    /   O peration     | Version:  v2012                                 |
|   \\  /    A nd           | Website:  www.openfoam.com                      |
|    \\/     M anipulation  |                                                 |
\*---------------------------------------------------------------------------*/
FoamFile
{
    version     2.0;
    format      ascii;
    class       surfaceScalarField;
    location    "57.8900752049272498";
    object      meshPhi;
}
// * * * * * * * * * * * * * * * * * * * * * * * * * * * * * * * * * * * * * //

dimensions      [0 3 -1 0 0 0 0];
oriented        oriented;


internalField   nonuniform List<scalar> 
18180
(
0
-0.043705963
0
-0.040333151
8.4110156e-14
-0.088853668
0
-0.037583212
0
-0.082368959
0
-0.13472256
0
-0.035830014
0
-0.077030008
0
-0.12519616
-7.8470679e-14
-0.17893657
4.3452267e-14
-0.033918552
4.1977092e-14
-0.072699104
-8.1161465e-14
-0.11692519
0
-0.16688067
0
-0.22086831
4.3425243e-14
-0.032045691
4.1973399e-14
-0.069085455
-4.0559919e-14
-0.11048025
0
-0.15625251
0
-0.2063851
-7.3242865e-14
-0.25937963
0
-0.031157515
4.1928421e-14
-0.066560571
4.0559365e-14
-0.10565986
0
-0.14779999
-7.5763465e-14
-0.19359404
0
-0.24287032
7.0789881e-14
-0.29503318
0
-0.030985059
-4.1904948e-14
-0.065194279
0
-0.10218913
2.093759e-17
-0.14139934
3.7864053e-14
-0.18290036
0
-0.22791206
0
-0.27644733
0
-0.3275732
-4.332989e-14
-0.030897975
8.378949e-14
-0.064452426
2.3190586e-17
-0.099708625
-3.9169264e-14
-0.13638416
3.7863462e-14
-0.17421726
-7.3162704e-14
-0.21479865
3.1919532e-17
-0.25947197
0
-0.30719877
-6.6032331e-14
-0.35761923
-4.3308028e-14
-0.030339769
0
-0.063396403
0
-0.097310739
3.9148441e-14
-0.1317945
3.7824372e-14
-0.16677159
-3.6562682e-14
-0.20334118
3.5355723e-14
-0.24379679
0
-0.28834099
0
-0.33546859
-6.3785588e-14
-0.38502558
0
-0.029138862
0
-0.061187177
4.0453744e-14
-0.093902971
7.8256361e-14
-0.12657586
0
-0.15926854
-3.6558849e-14
-0.19279155
1.4838614e-17
-0.229488
3.4139503e-14
-0.27061948
0
-0.3150108
0
-0.36139388
-6.1613005e-14
-0.41044955
0
-0.027558543
0
-0.058012638
0
-0.08937752
0
-0.12048422
0
-0.15134908
-3.6539249e-14
-0.18282582
3.5302776e-14
-0.21665487
1.4238311e-17
-0.25427597
0
-0.29564006
6.3765565e-14
-0.33956053
0
-0.38535536
5.9532891e-14
-0.43375107
2.1626984e-14
-0.025886
0
-0.054533927
0
-0.084338411
-3.907299e-14
-0.11396977
0
-0.14333165
0
-0.17327505
-3.5298255e-14
-0.20506916
-3.4116542e-14
-0.23973908
6.5946501e-14
-0.27775007
0
-0.31889116
-6.1567226e-14
-0.36227994
0
-0.4073971
5.7499987e-14
-0.45534844
0
-0.024256313
0
-0.051098172
0
-0.079274852
0
-0.10744987
0
-0.13543265
0
-0.16404245
0
-0.19437934
1.4648137e-17
-0.22696509
-3.2953969e-14
-0.26184466
3.1848225e-14
-0.29966189
-3.077867e-14
-0.34040302
0
-0.383189
0
-0.42773797
5.5534533e-14
-0.47510099
-2.1613572e-14
-0.022706928
1.2481766e-17
-0.047842959
-2.0207794e-14
-0.074426822
0
-0.1011691
0
-0.12782141
0
-0.15521328
0
-0.18432028
0
-0.21536788
0
-0.24785653
3.1815939e-14
-0.28243154
-3.0748255e-14
-0.3200193
0
-0.36029036
-5.7433458e-14
-0.40248913
0
-0.44644474
0
-0.49342261
0
-0.02124803
1.2504525e-17
-0.044795111
1.1710173e-17
-0.06987049
1.9515941e-14
-0.095231465
0
-0.12057302
0
-0.14677349
3.5247096e-14
-0.17467455
0
-0.20436017
0
-0.23513939
0
-0.26705849
-3.074006e-14
-0.30146554
1.0957312e-17
-0.33887601
9.9968738e-18
-0.37863106
5.5486884e-14
-0.42025611
0
-0.46372346
5.1797746e-14
-0.51019063
2.1616142e-14
-0.019877051
0
-0.041947627
1.1834699e-17
-0.065609061
-1.9510529e-14
-0.08965859
-1.8865483e-14
-0.11370671
0
-0.13867957
0
-0.16534809
3.4044679e-14
-0.19362095
0
-0.22286901
0
-0.25284406
3.0719481e-14
-0.28467917
-2.9687437e-14
-0.31929193
1.0221487e-17
-0.35635786
-5.5442605e-14
-0.39556422
-5.356941e-14
-0.43666316
0
-0.47960295
5.0022261e-14
-0.52567632
0
-0.018589836
0
-0.039282717
0
-0.061620676
-1.9505769e-14
-0.084434495
9.3606291e-18
-0.10722107
1.821635e-14
-0.13094111
0
-0.15636409
0
-0.1831877
-3.2865656e-14
-0.21090554
0
-0.23943754
0
-0.2693986
2.9666574e-14
-0.30153904
0
-0.33600047
-2.7696697e-14
-0.37256546
0
-0.41117985
-5.1733319e-14
-0.45175571
0
-0.49421094
1.2568658e-17
-0.53979694
4.3203867e-14
-0.017381111
0
-0.036784315
2.018933e-14
-0.057878432
1.9512531e-14
-0.07953058
9.4951718e-18
-0.10110325
0
-0.12356097
0
-0.14774339
3.4000291e-14
-0.17318977
0
-0.19944277
0
-0.22664823
0
-0.25520745
2.9634387e-14
-0.28543149
1.0712111e-17
-0.31753416
0
-0.3515822
8.772151e-18
-0.38752198
0
-0.42558194
-4.9958606e-14
-0.46565215
-4.8273351e-14
-0.50761831
4.6647245e-14
-0.55282146
2.1605224e-14
-0.016247057
2.0870154e-14
-0.034438945
-2.0186177e-14
-0.054357796
0
-0.074917445
-9.6157567e-18
-0.095328457
1.8215468e-14
-0.11653295
8.4808643e-18
-0.13949219
1.6993937e-14
-0.16363451
0
-0.18848882
0
-0.21437154
1.2377291e-17
-0.2417503
0
-0.27062245
0
-0.30072944
0
-0.3324507
2.6724451e-14
-0.36596917
8.0827683e-18
-0.40131888
2.4968044e-14
-0.43882154
0
-0.47842586
0
-0.51994025
0
-0.56469054
0
-0.015183832
2.0880187e-14
-0.03223624
0
-0.051039261
0
-0.070564824
9.7295297e-18
-0.089871216
-3.6414383e-14
-0.10984534
8.5700243e-18
-0.13160614
0
-0.15450484
-7.1374012e-18
-0.17802529
0
-0.20262919
0
-0.22884645
0
-0.25660538
0
-0.28524257
0
-0.3149355
0
-0.34627884
-8.3602582e-18
-0.37926398
0
-0.41400554
0
-0.45103345
0
-0.49018271
0
-0.53123317
0
-0.57557968
4.3187437e-14
-0.014188251
0
-0.030167601
1.2454892e-17
-0.047908016
0
-0.066450316
-9.8357913e-18
-0.084707164
0
-0.10348535
0
-0.12407819
-1.697543e-14
-0.14578805
1.6412667e-14
-0.16801749
0
-0.19137565
0
-0.21639749
0
-0.24302649
0
-0.27055822
0
-0.29866309
0
-0.32803405
-5.1564489e-14
-0.35906299
0
-0.39151281
-2.4081746e-14
-0.42573025
-4.6554165e-14
-0.46227539
0
-0.5009923
0
-0.54156333
0
-0.58546362
-1.0799036e-14
-0.013256688
0
-0.028226192
0
-0.044952142
-1.9489836e-14
-0.06255481
0
-0.079819401
0
-0.097444729
-1.7578068e-14
-0.11690137
-1.6987319e-14
-0.13747209
1.6407517e-14
-0.15844306
0
-0.18055769
-6.4508874e-18
-0.20437161
0
-0.22976638
2.856682e-14
-0.25617677
0
-0.28310715
0
-0.31094727
0
-0.34024009
7.9389545e-18
-0.37088913
-2.4065865e-14
-0.40282535
0
-0.43653023
2.2478635e-14
-0.47265451
0
-0.51089979
0
-0.55100571
0
-0.59452414
1.0791729e-14
-0.012385944
0
-0.026406021
0
-0.04216048
0
-0.058863183
-1.8831205e-14
-0.0751899
0
-0.091710973
-8.7569752e-18
-0.11006908
8.2200046e-18
-0.12954887
-1.6395816e-14
-0.14929644
6.6313618e-18
-0.17017461
0
-0.19279089
-1.4778441e-14
-0.21690872
0
-0.24209353
0
-0.26804956
0
-0.29478229
0
-0.32256473
0
-0.35158888
2.4042141e-14
-0.38180714
-6.5380762e-18
-0.41323802
5.8356983e-18
-0.44649381
-2.1698955e-14
-0.48216323
0
-0.5199733
0
-0.55962516
3.9151204e-14
-0.60275391
1.0790942e-14
-0.011572215
0
-0.024701054
-6.3666604e-18
-0.039525603
0
-0.055361152
0
-0.070799955
-1.8191854e-14
-0.086271552
0
-0.10357039
1.6972124e-14
-0.12200802
0
-0.14057697
0
-0.16023383
6.5197267e-18
-0.18167474
1.4765348e-14
-0.20456642
-5.7589371e-18
-0.22851232
0
-0.25343432
0
-0.27926571
2.5722545e-14
-0.30589196
2.4854472e-14
-0.33342926
-2.4018082e-14
-0.36208615
-2.3205141e-14
-0.391841
0
-0.42281263
0
-0.45562558
-2.0955882e-14
-0.49088975
-4.0493531e-14
-0.52824686
0
-0.56748967
0
-0.61029823
0
-0.010812402
0
-0.023105503
0
-0.03704187
9.7423704e-15
-0.052039568
0
-0.066635423
0
-0.081111862
0
-0.097392249
-1.6977655e-14
-0.11483904
-1.6395443e-14
-0.13228018
-1.5826574e-14
-0.1507424
1.528343e-14
-0.17103582
1.476545e-14
-0.1927587
0
-0.2154946
1.3771849e-14
-0.23929849
0
-0.26423585
-2.5701317e-14
-0.29000299
0
-0.31629115
0
-0.34343562
-2.3187355e-14
-0.37170424
0
-0.40103199
-2.1659657e-14
-0.43157741
2.0934713e-14
-0.46398776
0
-0.49881828
0
-0.53579639
0
-0.57465518
-3.6487395e-14
-0.61717236
1.0796024e-14
-0.010104365
-1.0435461e-14
-0.021614033
1.0080671e-14
-0.034703886
0
-0.048890288
-5.1736158e-18
-0.062684454
0
-0.07622374
0
-0.091523294
1.6975279e-14
-0.10802683
0
-0.12440041
-1.5829385e-14
-0.14170481
1.5285463e-14
-0.16088238
0
-0.18148546
-1.4247064e-14
-0.20305806
-1.3758747e-14
-0.22573698
-1.3293599e-14
-0.24968439
0
-0.27462518
0
-0.2999525
2.3962802e-14
-0.32577299
-2.3155896e-14
-0.3525939
0
-0.38049152
2.1635171e-14
-0.40941081
0
-0.43956885
2.0211902e-14
-0.47158051
0
-0.50605141
0
-0.5426492
0
-0.58120794
5.6650653e-18
-0.62355852
0
-0.0094446403
6.4051763e-18
-0.020220788
-1.0086694e-14
-0.032505584
-9.7412488e-15
-0.045906066
0
-0.058935418
0
-0.071596744
0
-0.085956407
0
-0.10155855
1.6389746e-14
-0.11692802
0
-0.13312417
-6.5948538e-18
-0.15122087
-1.4748729e-14
-0.17074437
0
-0.19119087
1.3757274e-14
-0.21276644
0
-0.23565107
-4.9690753e-18
-0.25964142
0
-0.28413766
0
-0.30887329
2.3138671e-14
-0.3343517
-2.2360044e-14
-0.36092192
0
-0.3884678
-4.1763775e-14
-0.41702291
0
-0.44681737
1.9513674e-14
-0.47847319
-1.8859539e-14
-0.51258247
6.3658489e-18
-0.54889117
0
-0.58723612
3.4011913e-14
-0.62947532
0
-0.0088305077
-1.0434629e-14
-0.018920785
1.0086343e-14
-0.030441496
-9.7470944e-15
-0.043079992
5.2606949e-18
-0.05537798
0
-0.067222939
-4.3913212e-18
-0.08068375
0
-0.095420872
0
-0.10985176
-1.5816946e-14
-0.1249973
-1.5271443e-14
-0.14205151
-1.4750881e-14
-0.16053298
0
-0.17988014
1.3751034e-14
-0.20036637
5.3540723e-18
-0.22217189
1.2822713e-14
-0.2450858
0
-0.26863364
0
-0.29245004
0
-0.31682575
2.2335443e-14
-0.34217242
-2.1579001e-14
-0.36847879
5.1427694e-18
-0.39569002
2.0164312e-14
-0.42390478
0
-0.4533643
1.88392e-14
-0.4846899
-1.8204311e-14
-0.51850775
0
-0.55456632
0
-0.59281135
-3.2828551e-14
-0.63501165
0
-0.008256444
0
-0.017708876
0
-0.028505167
0
-0.040408085
-5.2985354e-18
-0.052004126
0
-0.063090544
0
-0.07569665
8.4763427e-15
-0.089601691
-1.6378518e-14
-0.10315652
0
-0.11731062
0
-0.13337053
-1.4740614e-14
-0.1508459
1.4231298e-14
-0.16912067
1.3745462e-14
-0.18853421
0
-0.20927704
-1.2809815e-14
-0.23106488
1.2375401e-14
-0.25352772
-3.8821348e-18
-0.27643519
0
-0.29986536
0
-0.32410831
0
-0.34927869
0
-0.37531096
0
-0.40219963
0
-0.43009671
1.8816655e-14
-0.45926243
3.254558e-18
-0.49029258
0
-0.5238297
0
-0.5597561
0
-0.59796148
0
-0.64016097
-3.7923021e-05
-0.0090562281
0
-0.016573809
0
-0.026689872
0
-0.037882614
-9.4111346e-15
-0.048805985
-9.0961956e-15
-0.059188002
-1.7567282e-14
-0.070982397
4.3520362e-18
-0.084087816
8.188426e-15
-0.096824939
0
-0.11004986
0
-0.12516492
0
-0.14167651
0
-0.1589072
1.3734856e-14
-0.17726855
-1.325997e-14
-0.19697478
0
-0.21767013
-1.236713e-14
-0.2390008
1.1943236e-14
-0.26086453
1.1532318e-14
-0.28335314
0
-0.30663879
0
-0.33077243
0
-0.35572392
2.0113183e-14
-0.38146034
-1.9436928e-14
-0.4080378
1.8792497e-14
-0.43565508
-1.816548e-14
-0.46454924
-1.7555359e-14
-0.4953085
1.6966585e-14
-0.52864708
0
-0.5644772
0
-0.60273939
0
-0.64498947
-6.3825179e-05
-0.0090386597
-0.00011008828
-0.018053195
0
-0.024982593
0
-0.035495616
0
-0.045776395
4.2283275e-18
-0.055501332
-4.3343253e-18
-0.066532631
8.4838049e-15
-0.078866832
0
-0.090841804
-3.0636779e-18
-0.10319604
0
-0.11741865
0
-0.13301238
1.422964e-14
-0.1492306
1.3736137e-14
-0.16656244
1.3254564e-14
-0.18526543
0
-0.20491369
1.2355092e-14
-0.22513032
-1.1930679e-14
-0.24589077
3.4725473e-18
-0.26737558
1.1130093e-14
-0.28974714
0
-0.31293134
0
-0.33685071
0
-0.36152981
0
-0.38696733
-1.8763565e-14
-0.41325937
3.2882186e-18
-0.44062423
0
-0.4692771
1.6950328e-14
-0.49980105
-1.638364e-14
-0.53296629
-3.16523e-14
-0.56879251
0
-0.60716683
0
-0.64949972
-7.9029098e-05
-0.0090220426
-0.00018542407
-0.018086372
-0.00017772295
-0.026996294
0
-0.033231076
0
-0.042908576
0
-0.052024119
8.7848721e-15
-0.06233556
-8.483322e-15
-0.073930758
8.190602e-15
-0.08519188
2.3723095e-14
-0.096732872
-3.3517419e-18
-0.11011201
0
-0.12483615
0
-0.14007836
0
-0.15640701
0
-0.17413959
0
-0.19278809
0
-0.21194827
0
-0.23164395
3.5379054e-18
-0.2520881
-1.1119825e-14
-0.27347336
-1.0744687e-14
-0.29572487
0
-0.31868481
0
-0.3423416
4.2355742e-18
-0.366734
0
-0.39188258
0
-0.41791871
1.7513198e-14
-0.44505793
1.6926604e-14
-0.47348466
1.636308e-14
-0.50381199
1.5815488e-14
-0.53686347
0
-0.57272383
0
-0.61129095
0
-0.65367187
-8.4896989e-05
-0.0090088805
-0.00022978227
-0.018115689
-0.00029938339
-0.027105801
-0.00023992391
-0.035624521
0
-0.040177939
0
-0.048750635
0
-0.058383716
-8.4785056e-15
-0.069270002
-8.1900858e-15
-0.079859793
-1.5811081e-14
-0.090640485
-7.6299928e-15
-0.10322767
-7.3648457e-15
-0.11712903
-1.4217855e-14
-0.13143642
0
-0.14679148
1.325124e-14
-0.16358627
0
-0.18127864
-1.2346732e-14
-0.19942776
1.191959e-14
-0.21810368
0
-0.23753199
0
-0.25788403
3.0065528e-18
-0.27913448
0
-0.30115843
0
-0.32386277
0
-0.34726091
0
-0.37137502
0
-0.39626378
0
-0.42206758
0
-0.44899185
-1.6342576e-14
-0.47723446
0
-0.50738887
1.5264757e-14
-0.5403496
2.9496668e-14
-0.57633129
0
-0.61508716
2.7511929e-14
-0.65750743
-8.2760955e-05
-0.0089991174
-0.00024699147
-0.018144762
-0.00037103039
-0.027197448
-0.00040395859
-0.035833463
-0.00029165544
-0.042756189
0
-0.045648595
0
-0.054668645
0
-0.064874262
8.1896503e-15
-0.074830569
-7.906476e-15
-0.084902216
0
-0.096745658
0
-0.10986989
-7.1137027e-15
-0.12328728
0
-0.13770312
0
-0.15359065
0
-0.17036444
1.2341268e-14
-0.18753901
-1.1913147e-14
-0.20522835
3.6125817e-18
-0.22366732
-1.1101656e-14
-0.24299977
-1.0721229e-14
-0.26319795
0
-0.28420564
-2.3984129e-18
-0.30600763
0
-0.32851271
0
-0.35165483
0
-0.37551052
0
-0.40015976
0
-0.42574165
1.6320253e-14
-0.45248705
0
-0.48055501
0
-0.51056649
1.4733065e-14
-0.54349956
3.1878328e-18
-0.57963605
0
-0.61859916
-2.6550117e-14
-0.66097345
-7.4001935e-05
-0.0089928608
-0.0002409129
-0.018172542
-0.00039877195
-0.027276979
-0.00050021091
-0.035999233
-0.00049082705
-0.043110131
-0.0003289209
-0.048247678
0
-0.051161281
0
-0.060731743
0
-0.070091764
-7.903055e-15
-0.079498185
-3.4083525e-18
-0.090645319
0
-0.10303766
0
-0.11560928
-2.8155744e-18
-0.12912322
0
-0.14413782
0
-0.16002799
0
-0.17625982
-1.1907363e-14
-0.19299005
0
-0.21045072
-1.1093725e-14
-0.22877226
0
-0.24792802
-2.0691245e-14
-0.26786894
0
-0.28868225
0
-0.31034977
0
-0.33266444
0
-0.35557211
0
-0.37918684
0
-0.40360672
0
-0.42899708
2.0337685e-18
-0.45557544
1.5226961e-14
-0.48349666
1.611194e-18
-0.51339329
1.422269e-14
-0.54635337
0
-0.58268818
2.6538624e-14
-0.62179122
2.5626979e-14
-0.66409648
-5.9965383e-05
-0.0089900224
-0.00021549033
-0.018198359
-0.00038888858
-0.027343159
-0.00053710904
-0.036132869
-0.00060752576
-0.043396532
-0.0005536937
-0.048790399
-0.00035769559
-0.053676369
8.4779419e-15
-0.056812262
0
-0.065630593
0
-0.074416448
-7.6280928e-15
-0.084902045
7.3622893e-15
-0.096608429
0
-0.10838087
2.7960986e-18
-0.12103314
-6.6207843e-15
-0.1352096
0
-0.15025007
0
-0.16556968
0
-0.18136642
1.1484579e-14
-0.19786035
0
-0.21515896
-1.0703818e-14
-0.23327403
1.0336148e-14
-0.25216439
0
-0.27192156
-9.6439353e-15
-0.2926807
-1.9471283e-18
-0.31426573
-1.8013709e-14
-0.33638943
0
-0.3590591
-1.6828596e-14
-0.38243968
0
-0.40665615
0
-0.43187127
3.0413854e-14
-0.45830615
0
-0.48609068
-1.4205846e-14
-0.51592432
0
-0.54897523
-2.652092e-14
-0.58549555
0
-0.62471017
-2.4729737e-14
-0.66686156
-4.2037507e-05
-0.0089903651
-0.00017466752
-0.018221869
-0.00034770079
-0.02739521
-0.00052321389
-0.036234012
-0.00065198399
-0.043634231
-0.00068554685
-0.04924693
-0.00060232302
-0.054392117
-0.00038439425
-0.059172099
0
-0.061406852
7.9023056e-15
-0.069647704
0
-0.079499342
7.3652253e-15
-0.090558202
-2.9348466e-18
-0.10158129
-6.8568685e-15
-0.11341277
0
-0.12678429
-2.827796e-18
-0.14101161
0
-0.155449
1.1893587e-14
-0.17034147
-1.14791e-14
-0.18589697
0
-0.2021786
1.0696254e-14
-0.21924287
-1.0327443e-14
-0.23710664
0
-0.25585624
-9.6330853e-15
-0.27562305
9.3084415e-15
-0.29636642
0
-0.31781303
0
-0.33971493
0
-0.36214785
1.6246433e-14
-0.3853143
0
-0.40934747
0
-0.43440903
-1.4678481e-14
-0.46070548
0
-0.48839288
-1.3712109e-14
-0.51821572
-1.3250191e-14
-0.55139032
0
-0.58810162
0
-0.6273357
2.386786e-14
-0.66930999
-2.1585318e-05
-0.0089938521
-0.00012245322
-0.018242642
-0.00028168932
-0.027432758
-0.00046727691
-0.036303469
-0.00063475579
-0.043822462
-0.00073597343
-0.049638284
-0.00074595983
-0.055007058
-0.00064710719
-0.060068532
-0.00040570543
-0.063549295
0
-0.06515217
0
-0.074422498
0
-0.08486347
0
-0.095188435
6.8560504e-15
-0.10624388
1.3233991e-14
-0.11884047
0
-0.13228804
-6.1624495e-15
-0.1458776
0
-0.15989966
0
-0.17455565
1.1077335e-14
-0.18985732
0
-0.20589007
2.0641406e-14
-0.22274357
0
-0.24051678
9.6229193e-15
-0.25929827
1.964714e-18
-0.27908512
-8.9808693e-15
-0.29974528
-1.6010124e-18
-0.3210029
0
-0.34267351
1.6220793e-14
-0.36487886
0
-0.38785123
0
-0.41172134
0
-0.4366342
-1.4169001e-14
-0.46282552
-1.3696696e-14
-0.49044679
-1.3233984e-14
-0.52030534
0
-0.55365232
2.4705995e-14
-0.59051476
0
-0.62972149
0
-0.67144228
-0.0090000113
0
-6.2876703e-05
-0.01826031
-0.00019735896
-0.027456344
-0.00037810111
-0.036342316
-0.00056657949
-0.043962579
-0.00071680096
-0.049962683
-0.00080110928
-0.055536959
-0.00080127124
-0.060838971
-0.00068292689
-0.06466769
-0.00041893662
-0.067011954
0
-0.069643863
0
-0.079500562
0
-0.089177732
-1.3710687e-14
-0.099501833
-3.0366937e-18
-0.11135863
0
-0.12405761
-6.1586224e-15
-0.13683476
-5.945013e-15
-0.15002165
0
-0.16382254
1.1069043e-14
-0.17819244
0
-0.19323302
0
-0.2090972
-1.9913834e-14
-0.22589693
0
-0.24372627
0
-0.2625694
1.8345692e-18
-0.28230249
0
-0.30280556
0
-0.32385588
0
-0.34529361
0
-0.36729044
-1.5135489e-14
-0.39008735
0
-0.41380074
0
-0.43859332
1.2265476e-18
-0.46470159
0
-0.49229535
1.0837822e-18
-0.52225716
0
-0.55579136
0
-0.59277654
0
-0.63184328
-2.2224714e-14
-0.67330031
-0.01827442
0
-0.0090084946
2.1626026e-05
-0.00010126743
-0.027466047
-0.00026458733
-0.036352089
-0.00045819452
-0.044055381
-0.00064004432
-0.050220044
-0.00078053612
-0.055980024
-0.00086033946
-0.061504766
-0.00084558829
-0.065636544
-0.00070551316
-0.068376809
-0.00043048281
-0.071224322
0
-0.074432662
0
-0.083526553
0
-0.093165661
1.3233528e-14
-0.10431265
0
-0.11629737
0
-0.12829931
-5.9414717e-15
-0.14068897
5.7330798e-15
-0.15367846
0
-0.16716771
0
-0.18126287
1.0308125e-14
-0.19617176
0
-0.21201893
-9.6069296e-15
-0.22889912
9.2771701e-15
-0.24681303
1.7919444e-14
-0.26562545
8.655192e-15
-0.28523646
-8.3637101e-15
-0.30556098
0
-0.32639452
0
-0.34761612
0
-0.36941734
0
-0.39204589
0
-0.41562798
-1.3656909e-14
-0.44031984
0
-0.4663759
0
-0.494007
-1.2329281e-14
-0.52411165
-1.1911922e-14
-0.55784707
0
-0.59486486
0
-0.63374498
1.4630193e-18
-0.67488931
-0.027461837
0
-0.018285648
6.2967653e-05
-0.009019294
4.2196065e-05
-0.00013559601
-0.036333948
-0.00032045392
-0.044101662
-0.00051781958
-0.050410777
-0.00069717566
-0.056336351
-0.00083811753
-0.062065455
-0.00090799069
-0.066484512
-0.00087404872
-0.06957795
-0.00072553067
-0.072874041
-0.00044390686
-0.075691963
0
-0.078192251
0
-0.087215314
0
-0.097679939
6.3831529e-15
-0.10898182
-2.3322979e-18
-0.12024873
5.9421067e-15
-0.13187911
5.7331894e-15
-0.14410127
5.5301891e-15
-0.15676167
0
-0.16995984
0
-0.1839539
2.1367914e-18
-0.19888314
0
-0.21482028
-9.26819e-15
-0.23178888
8.9506376e-15
-0.24970745
0
-0.26842984
1.5083674e-18
-0.28787969
-8.0714286e-15
-0.30802122
-1.141179e-18
-0.32865479
0
-0.34966523
0
-0.37128076
2.8208205e-14
-0.39376461
0
-0.41723357
0
-0.4418502
0
-0.46789824
0
-0.49562106
0
-0.5259135
-1.0461476e-18
-0.55980755
0
-0.59680997
0
-0.63540332
-2.0693729e-14
-0.67624888
-0.036289041
0
-0.027446964
0.00010125154
-0.018294154
0.00012280908
-0.0090326281
6.0302965e-05
-0.00016413335
-0.04410192
-0.00036228208
-0.05053417
-0.0005642606
-0.056606648
-0.00074859977
-0.062520813
-0.00088468483
-0.067210134
-0.00093906191
-0.070639183
-0.00089951304
-0.074345164
-0.00074862691
-0.077628956
-0.000453488
-0.079045344
0
-0.081614173
0
-0.091437136
0
-0.10208497
6.1575746e-15
-0.11265943
-1.9589834e-18
-0.12357131
5.7317456e-15
-0.13506692
1.4630586e-18
-0.14694761
-5.3354718e-15
-0.15929914
0
-0.17242163
0
-0.18647013
9.5918753e-15
-0.20149318
0
-0.2175071
-1.8645517e-18
-0.23449701
8.6356521e-15
-0.25236028
-1.6683208e-14
-0.27096608
8.0609386e-15
-0.29025808
-7.7895488e-15
-0.31021517
0
-0.33065203
0
-0.35146475
0
-0.37291544
0
-0.39527261
0
-0.4186509
0
-0.44321861
-1.2299396e-14
-0.46930854
-9.3475977e-19
-0.49718656
1.1485925e-14
-0.52766399
0
-0.56169348
0
-0.59856609
0
-0.63686676
0
-0.67738726
-0.044056536
0
-0.036224736
0.00013525978
-0.027422429
0.00019730692
-0.01829917
0.0001754276
-0.0090480882
7.4541201e-05
-0.00018562142
-0.050589385
-0.0003949167
-0.056790136
-0.00060587673
-0.062870469
-0.00079036165
-0.06781208
-0.0009155271
-0.071556776
-0.00096712985
-0.075643962
-0.00092858146
-0.079352821
-0.00076483134
-0.081223311
-0.0004577511
-0.082030286
0
-0.085556375
0
-0.095580221
0
-0.10550713
1.9387481e-18
-0.11573981
-1.76298e-18
-0.12655146
0
-0.13769927
1.176008e-18
-0.14925364
-5.1461957e-15
-0.1615493
0
-0.17475751
0
-0.1889074
0
-0.20398219
0
-0.22001544
-1.7387386e-18
-0.23699866
-8.3302743e-15
-0.25480727
0
-0.27326944
7.7788031e-15
-0.29237707
7.517705e-15
-0.31216565
-8.9366157e-19
-0.33241448
0
-0.35304284
0
-0.37434961
0
-0.39660049
0
-0.41990563
-1.228295e-14
-0.44445898
-1.1871168e-14
-0.47065651
0
-0.49871562
0
-0.52938652
0
-0.56346582
2.0676295e-14
-0.60016787
0
-0.63811349
1.926644e-14
-0.67833423
-0.050574711
0
-0.043977465
0.00016354814
-0.036142969
0.00026330011
-0.027386179
0.00028159829
-0.01830052
0.00021671838
-0.0090657982
8.3500221e-05
-0.00020242153
-0.056885854
-0.00042408647
-0.063114923
-0.00063984607
-0.068288131
-0.0008184544
-0.072328283
-0.00094348521
-0.076766159
-0.00099874688
-0.080873845
-0.00094881918
-0.083162852
-0.00077208451
-0.084459349
-0.00046162843
-0.085514486
0
-0.089432439
0
-0.098769305
0
-0.10836347
1.7632194e-18
-0.11852656
-1.435146e-18
-0.12898938
0
-0.13979566
0
-0.15130977
-1.045986e-18
-0.16371882
0
-0.17704045
9.2456954e-15
-0.19121815
0
-0.20630226
8.6172327e-15
-0.22235856
0
-0.23932699
8.0389334e-15
-0.25702952
0
-0.275325
1.0868373e-18
-0.29426761
-7.2555542e-15
-0.31389129
7.0149336e-15
-0.33396578
0
-0.35443129
-1.3118988e-14
-0.37561173
0
-0.39776949
0
-0.42102929
0
-0.44562081
1.145836e-14
-0.47196249
-1.107201e-14
-0.50024046
-1.0695236e-14
-0.53107009
-9.3295359e-19
-0.56513394
0
-0.60158048
0
-0.63918449
7.2463813e-19
-0.67909802
-0.056893005
0
-0.050504427
0.00018503585
-0.043866865
0.00031820326
-0.03603961
0.00037541072
-0.027338834
0.00034758422
-0.018298297
0.00024260357
-0.0090857292
8.5772669e-05
-0.00021741015
-0.063254874
-0.00044802015
-0.0686379
-0.00066303157
-0.072951078
-0.00084388484
-0.077707325
-0.00097461515
-0.082186425
-0.0010207003
-0.084879143
-0.00095791504
-0.086626476
-0.00077870176
-0.088205964
-0.00046574145
-0.088896577
0
-0.092402973
0
-0.10142248
0
-0.11097006
1.1051411e-14
-0.12079072
5.329209e-15
-0.13089768
0
-0.14167469
-4.960367e-15
-0.15332483
-1.0405057e-18
-0.1658633
9.2396135e-15
-0.17919258
-8.9178995e-15
-0.19336084
8.6091265e-15
-0.20847346
0
-0.22454378
0
-0.241463
-7.7551744e-15
-0.25903364
0
-0.27715538
-7.2435307e-15
-0.29593965
-7.002745e-15
-0.31542147
0
-0.33533504
0
-0.35565105
0
-0.37672011
0
-0.39880899
0
-0.42205814
0
-0.44672364
1.1058813e-14
-0.4732536
0
-0.5017638
-1.0320932e-14
-0.53270189
-9.9677026e-15
-0.56666317
0
-0.60284362
0
-0.64006497
0
-0.67970322
-0.063290425
0
-0.056829729
0.00020191863
-0.050379059
0.00036001733
-0.043717148
0.00045347584
-0.035916373
0.0004629903
-0.027280985
0.00038877842
-0.018293514
0.00024903184
-0.0091087644
7.9966185e-05
-0.00022977453
-0.06886125
-0.00046456168
-0.073422071
-0.00068398295
-0.078463224
-0.00087197146
-0.083284153
-0.00099618624
-0.08636302
-0.0010304822
-0.088539985
-0.0009660712
-0.090606199
-0.00078559769
-0.091833475
-0.00046652385
-0.091356864
0
-0.094869415
5.7276142e-15
-0.10385896
5.5232429e-15
-0.11307686
0
-0.12253182
0
-0.13261696
4.9595159e-15
-0.14354773
9.5699815e-15
-0.15534439
-9.2341856e-15
-0.16787384
-8.9097356e-15
-0.18117209
8.6000642e-15
-0.19536685
1.6101208e-18
-0.21051359
0
-0.22657672
-7.7462202e-15
-0.24341217
0
-0.26082973
0
-0.27877943
8.5251807e-19
-0.29742512
0
-0.31677246
0
-0.33653912
0
-0.35672201
0
-0.37770172
7.5332452e-19
-0.39974517
0
-0.42301336
0
-0.44779096
-1.0672112e-14
-0.47453765
0
-0.50326865
9.9603284e-15
-0.53425888
9.6187661e-15
-0.56806854
0
-0.60391997
0
-0.64079675
-1.7301536e-14
-0.68016063
-0.068956705
0
-0.063246295
0.0002170216
-0.056696257
0.00039295904
-0.050186545
0.00051304488
-0.043530737
0.00055901931
-0.035774494
0.00051745331
-0.027213364
0.00039873108
-0.018286234
0.0002319681
-0.0091336802
6.4647773e-05
-0.00023841413
-0.073740012
-0.00047942974
-0.079031207
-0.00070682928
-0.084161169
-0.00089130714
-0.087607605
-0.0010057266
-0.090190322
-0.001039151
-0.092711628
-0.00097433287
-0.09443871
-0.00078651211
-0.094514218
-0.0004630863
-0.093316344
0
-0.097141562
0
-0.10582244
1.0693396e-18
-0.11467164
5.1393965e-15
-0.12410854
-1.0284934e-18
-0.13435969
-4.7819312e-15
-0.14545473
4.6146816e-15
-0.15722853
4.4520181e-15
-0.16970448
0
-0.18302746
0
-0.19726332
-8.0092961e-15
-0.21242659
-7.7351958e-15
-0.22846201
7.4725244e-15
-0.24519021
7.2217661e-15
-0.26242326
0
-0.28020738
6.7478218e-15
-0.29873534
6.5244584e-15
-0.31796879
0
-0.33759832
0
-0.35766702
0
-0.37857862
1.1408144e-14
-0.40059849
1.1027808e-14
-0.4239147
-1.0658583e-14
-0.44883204
0
-0.47580219
9.949934e-15
-0.50474203
8.719152e-19
-0.5357104
-9.2809421e-15
-0.56931396
0
-0.60485028
1.7296954e-14
-0.64136485
0
-0.68048878
-0.07390237
0
-0.068954757
0.00022961419
-0.063122999
0.00042257452
-0.056475828
0.0005600977
-0.049930665
0.00063233142
-0.043310423
0.00062454779
-0.035615059
0.00053037414
-0.027137105
0.00037109147
-0.018276571
0.00018738303
-0.0091600327
3.8452645e-05
-0.00024613805
-0.079410394
-0.0004954616
-0.084813716
-0.00072252789
-0.088604346
-0.00089991738
-0.091570663
-0.0010140477
-0.094514034
-0.0010477317
-0.096716323
-0.00097521402
-0.097308115
-0.00078061699
-0.096694847
-0.00045766991
-0.095078837
-5.521978e-15
-0.098969563
0
-0.10729197
0
-0.11612273
-4.9553958e-15
-0.12573487
4.7801667e-15
-0.13616396
0
-0.14722452
0
-0.15892355
-4.2945439e-15
-0.17142293
0
-0.18478953
0
-0.19905206
7.7276902e-15
-0.21422405
-7.4639732e-15
-0.23020909
0
-0.24678415
0
-0.26381979
0
-0.28145985
-6.512096e-15
-0.29989528
5.7245039e-19
-0.31902203
0
-0.33853434
0
-0.35850846
-1.1389166e-14
-0.37936973
1.1012086e-14
-0.40138494
0
-0.42477501
0
-0.44984338
0
-0.47704068
0
-0.50612791
8.1472462e-19
-0.53704493
8.954039e-15
-0.57041716
1.728923e-14
-0.60561256
0
-0.64180361
-1.6101901e-14
-0.68069479
-0.07959941
0
-0.073943437
0.00023854448
-0.068855587
0.00044739866
-0.062897469
0.00060266201
-0.05617067
0.00069038367
-0.049612482
0.00070626548
-0.04305874
0.00063995095
-0.035441209
0.00049336079
-0.027052127
0.00029953302
-0.018264022
0.00011135125
-0.0091855984
0
-0.00025435177
-0.085239545
-0.00050647194
-0.089346265
-0.00072952292
-0.09267391
-0.00090712718
-0.096007375
-0.001022018
-0.09865867
-0.0010483021
-0.099752531
-0.00096766848
-0.099682667
-0.00077140837
-0.098670506
-0.00045066166
-0.096402035
0
-0.1003316
0
-0.10863226
0
-0.11764251
0
-0.12744411
0
-0.13782981
4.448092e-15
-0.14879473
-4.2910452e-15
-0.16051722
4.1410238e-15
-0.17306312
0
-0.18645343
0
-0.2007421
0
-0.215919
-1.2166336e-18
-0.23180777
-6.95812e-15
-0.2481758
6.7249937e-15
-0.26502109
6.5005797e-15
-0.28255774
0
-0.30091808
6.0787697e-15
-0.3199594
5.8780824e-15
-0.33936685
0
-0.35926111
0
-0.38008697
0
-0.40211851
0
-0.42560058
-9.9275796e-15
-0.45082536
6.9243379e-19
-0.47820091
9.2649133e-15
-0.50742723
0
-0.53824295
2.5917603e-14
-0.5713632
0
-0.60624866
0
-0.64209417
0
-0.68081882
-0.085437503
0
-0.079638688
0.00024639578
-0.073861924
0.0004650638
-0.06862938
0.00063853609
-0.062570662
0.00074335041
-0.055779242
0.00077107888
-0.049233099
0.00072335622
-0.042775976
0.00059513146
-0.035251326
0.00039806263
-0.02695805
0.00017786214
-0.018244413
0
-0.0083803797
0
-0.00025997244
-0.089828522
-0.00051137412
-0.093492215
-0.0007351795
-0.097185978
-0.00091384614
-0.10025836
-0.0010222755
-0.10183825
-0.0010400545
-0.10229512
-0.00095613326
-0.10184474
-0.00075942573
-0.10019226
-0.00044143913
-0.097281427
5.1357477e-15
-0.10157714
0
-0.11005336
0
-0.1192614
9.9432566e-19
-0.12901175
4.4452438e-15
-0.13928509
-4.2886699e-15
-0.15027396
-4.1382157e-15
-0.16204605
3.9938014e-15
-0.17460855
0
-0.18803011
0
-0.20235105
1.239851e-18
-0.21747162
0
-0.23319145
6.713391e-15
-0.24935663
6.767955e-19
-0.26605867
-6.274736e-15
-0.2835224
-6.0670189e-15
-0.30182939
0
-0.32079309
0
-0.34010981
0
-0.35993653
0
-0.38074504
1.0258438e-14
-0.40281222
0
-0.4263966
-9.5806784e-15
-0.45174055
0
-0.47928531
0
-0.50859272
6.6866162e-19
-0.53931258
8.3352311e-15
-0.57217802
0
-0.60672487
0
-0.64230356
-0.0062263247
-0.6746432
-0.090047491
0
-0.085457248
0.00025453382
-0.079525362
0.00048041095
-0.073619161
0.00066407239
-0.068277953
0.00078824027
-0.062142675
0.0008308046
-0.055303081
0.00078954684
-0.048789509
0.00067221043
-0.042462551
0.00048004669
-0.03504575
0.00023628382
-0.02684746
1.0078309e-14
-0.016759926
0
-0.0089699532
6.4921637e-18
-0.00026248235
-0.094019637
-0.00051518887
-0.098044772
-0.00074027952
-0.10150779
-0.00091383587
-0.10355777
-0.0010140757
-0.10452316
-0.0010275312
-0.10461709
-0.00094115435
-0.10354055
-0.00074393961
-0.1012674
-0.00043125111
-0.098062814
0
-0.10291325
0
-0.11158491
0
-0.12073841
8.4956647e-19
-0.13036083
4.2865713e-15
-0.14065762
-8.2714205e-15
-0.15170025
3.9915995e-15
-0.16347953
3.8511799e-15
-0.17606667
0
-0.1895284
0
-0.20381932
6.9384416e-15
-0.21881449
0
-0.23435408
6.4785288e-15
-0.25035419
0
-0.26695735
0
-0.28437538
4.6299716e-19
-0.30264082
0
-0.32154124
-5.4775214e-15
-0.34077305
0
-0.3605475
0
-0.38135599
0
-0.40347144
0
-0.42714375
0