/*--------------------------------*- C++ -*----------------------------------*\
| =========                 |                                                 |
| \\      /  F ield         | OpenFOAM: The Open Source CFD Toolbox           |
|  \\    /   O peration     | Version:  v2012                                 |
|   \\  /    A nd           | Website:  www.openfoam.com                      |
|    \\/     M anipulation  |                                                 |
\*---------------------------------------------------------------------------*/
FoamFile
{
    version     2.0;
    format      ascii;
    class       volScalarField;
    location    "57.8900752049272498";
    object      p;
}
// * * * * * * * * * * * * * * * * * * * * * * * * * * * * * * * * * * * * * //

dimensions      [0 2 -2 0 0 0 0];


internalField   nonuniform List<scalar> 
9200
(
0.033828963
0.037731414
0.069394387
0.04269558
0.074932694
0.11972305
0.052450299
0.081372277
0.1281649
0.15779742
0.067028216
0.093457212
0.13923377
0.16722735
0.18994226
0.089334363
0.10999408
0.15816861
0.18004246
0.19974474
0.21519464
0.11554002
0.13283047
0.18316086
0.20094601
0.21336529
0.2247724
0.23498366
0.14900998
0.16074238
0.21524853
0.22794301
0.23485831
0.23821309
0.2440255
0.25012015
0.17771288
0.19899111
0.25780655
0.26201737
0.26207498
0.25888599
0.25677065
0.25844228
0.26147518
0.19408437
0.25064467
0.30808483
0.30334375
0.29538192
0.28456934
0.27597808
0.27019213
0.26899968
0.26975567
0.19953285
0.32238433
0.36589264
0.35097588
0.33410207
0.31516901
0.29944711
0.28760311
0.2796308
0.27647097
0.27556127
0.20970953
0.40044428
0.42944999
0.40406891
0.37719138
0.34963192
0.3267721
0.30857152
0.29516199
0.2859617
0.28149755
0.27940004
0.21617224
0.47196467
0.49532734
0.46069564
0.42301948
0.38677008
0.35678143
0.33251404
0.31363961
0.29965908
0.28988892
0.28459253
0.28168759
0.21291429
0.52715236
0.55775017
0.51705664
0.46934453
0.42500627
0.38828049
0.35827644
0.3343966
0.31579301
0.30186946
0.2919615
0.28617344
0.28272271
0.20433352
0.56056528
0.60981228
0.56861282
0.51358558
0.4625124
0.41985611
0.38474464
0.3563663
0.33367449
0.3158724
0.30237141
0.2926063
0.28659678
0.28270941
0.19054403
0.56968973
0.64582696
0.61128125
0.55313797
0.49733065
0.45005108
0.41073295
0.37855342
0.35235429
0.3312188
0.31446866
0.30159646
0.29215003
0.2861386
0.28201433
0.16665256
0.55457988
0.66240689
0.64202511
0.5856588
0.52762952
0.47745161
0.43508477
0.39996797
0.37094695
0.34708169
0.32759751
0.31200267
0.29987156
0.29085593
0.28493362
0.28081619
0.12956826
0.51806317
0.65905888
0.65906966
0.60930215
0.55189366
0.50078362
0.45673446
0.41967782
0.3886338
0.3626825
0.341074
0.32319594
0.3087949
0.2974483
0.2889651
0.28318462
0.27916265
0.080815885
0.46538307
0.6372811
0.66280799
0.6233869
0.56928761
0.51918198
0.47490263
0.43696325
0.40472416
0.37738614
0.35421914
0.33469863
0.31834621
0.30506539
0.29451782
0.28661906
0.28106516
0.27721903
0.022928322
0.40337836
0.60197776
0.6541279
0.62821528
0.57967353
0.53231197
0.48915191
0.45136238
0.41872272
0.39065877
0.36651756
0.34577985
0.32808754
0.31317154
0.30097473
0.29122601
0.28394298
0.27868516
0.27507632
-0.039497863
0.3376665
0.55868767
0.63601262
0.62483407
0.58341788
0.54019067
0.49932628
0.46260414
0.43031162
0.40214036
0.37756733
0.35612516
0.33747453
0.32141876
0.30780394
0.29664064
0.28769067
0.28104158
0.27613956
0.27281516
-0.09970676
0.273677
0.51147907
0.61159543
0.6148441
0.58122523
0.54306909
0.50544282
0.47058721
0.43930359
0.41159077
0.38708469
0.36539189
0.34621289
0.32935985
0.31475819
0.30233502
0.29215693
0.28400229
0.27800293
0.27350468
0.2705018
-0.15317464
0.22013497
0.46494316
0.58403336
0.60012088
0.57417877
0.54154128
0.50778289
0.47542048
0.44569386
0.41892412
0.39492018
0.37337776
0.35404064
0.33675703
0.32145616
0.30815192
0.29682955
0.28759604
0.28023302
0.27489866
0.27084228
0.26819158
-0.19861872
0.18277292
0.42354475
0.55604386
0.58256029
0.5634718
0.53636847
0.50680764
0.47736215
0.44961091
0.42417972
0.40104069
0.3799869
0.3608138
0.3434013
0.32771305
0.31376361
0.30162909
0.29133455
0.28301445
0.27644139
0.27178681
0.26820188
0.26592931
-0.22964328
0.16043486
0.38740439
0.52954808
0.5638675
0.55026648
0.5283441
0.50305176
0.47674628
0.45125858
0.42747766
0.40550268
0.38521673
0.36647135
0.34918801
0.33335948
0.31903167
0.30627504
0.29520855
0.28588549
0.27845688
0.27267532
0.26871441
0.26562425
0.26375089
-0.24433264
0.14877279
0.35754806
0.50899515
0.54542
0.53558743
0.51822771
0.49706592
0.47394513
0.45087849
0.42898471
0.40842195
0.38913704
0.37103114
0.35408049
0.33831847
0.32381728
0.31066916
0.29898015
0.28890243
0.28050961
0.27395951
0.26897417
0.2657198
0.26314287
0.26168471
-0.24942893
0.14317489
0.33587083
0.49289905
0.52827154
0.52026971
0.5066973
0.48937439
0.46933368
0.44871787
0.42888885
0.40994437
0.39186255
0.37456953
0.35810796
0.34256621
0.32806073
0.31469664
0.30258742
0.29186723
0.28271838
0.27522851
0.26955211
0.26537068
0.26283424
0.26078482
0.25975303
-0.24058484
0.14067923
0.32061604
0.47820403
0.51273535
0.5049298
0.49432622
0.48045025
0.46326565
0.44500284
0.4273608
0.41023525
0.39354127
0.37720341
0.36134859
0.34613394
0.33174147
0.31830832
0.30593582
0.29475252
0.28492373
0.27666135
0.27005997
0.26525983
0.26189203
0.26008322
0.25857164
0.2579727
-0.224779
0.13854137
0.30999318
0.46681723
0.49902223
0.48996229
0.48157465
0.47070002
0.45606379
0.43992367
0.42453559
0.40941134
0.39430892
0.37908127
0.3639153
0.34909654
0.33488207
0.3214798
0.30898314
0.29748339
0.2871331
0.2781369
0.2707349
0.26501941
0.26110421
0.2585611
0.25748726
0.25652
0.25635612
-0.20288995
0.13647293
0.30506196
0.45906172
0.48711084
0.4755197
0.46878433
0.46045706
0.44801379
0.43362969
0.4205037
0.40757996
0.39427228
0.3803053
0.36592268
0.35156515
0.33753877
0.32421774
0.31169753
0.30002401
0.28929281
0.27969903
0.27149435
0.26494241
0.26012091
0.25710423
0.25539691
0.25506271
0.25464235
0.25491176
-0.17343193
0.13407442
0.30577369
0.45369538
0.47634203
0.46198413
0.45618965
0.4499848
0.43937049
0.42622915
0.4152985
0.40480811
0.39352993
0.38118074
0.36748918
0.35367855
0.33979361
0.32655138
0.31406472
0.30233461
0.29137635
0.28131907
0.27242108
0.26498508
0.25928808
0.25537796
0.25327668
0.25241537
0.25282214
0.2529475
0.25364479
-0.13758423
0.12777594
0.30979241
0.44963935
0.46611371
0.45008125
0.44396481
0.43949712
0.43035246
0.41780304
0.40889628
0.40108784
0.39213395
0.38168758
0.36907578
0.35566047
0.34174777
0.32852797
0.31608211
0.30437966
0.29333963
0.28298542
0.27351646
0.26527158
0.25860058
0.25377776
0.25080397
0.24963662
0.24962943
0.2507749
0.25144097
0.25255747
-0.10190672
0.12031963
0.31518085
0.4462786
0.45590143
0.44023755
0.43223754
0.42914977
0.42115191
0.40840644
0.40120437
0.3963836
0.39005428
0.38177333
0.37062147
0.35722778
0.34350352
0.33020895
0.31775659
0.30612245
0.29512895
0.28465674
0.27479142
0.26583884
0.25822592
0.252336
0.2484195
0.24641244
0.24619745
0.24704947
0.24892735
0.2501255
0.25164958
-0.070017875
0.11816339
0.32151655
0.44383274
0.44683038
0.43276026
0.42101452
0.41904915
0.41189893
0.39810865
0.39205821
0.39059461
0.3872097
0.38157818
0.371948
0.3587776
0.34513253
0.33165822
0.31910267
0.30752513
0.29667588
0.28626927
0.27621742
0.26672874
0.25824156
0.25126439
0.24619109
0.24322379
0.242217
0.242971
0.24468338
0.24728328
0.24900133
0.25091886
-0.04351206
0.1243933
0.32984418
0.44104905
0.44034473
0.42673563
0.41030431
0.40935876
0.40273635
0.38696009
0.38123801
0.38357664
0.3834633
0.38102402
0.37334978
0.36078793
0.34678146
0.33294541
0.32014008
0.30854988
0.29789811
0.2877308
0.27773265
0.26793718
0.2587285
0.25068467
0.24437398
0.24017071
0.23820353
0.23823113
0.23996742
0.24253676
0.24584401
0.24806661
0.25036122
-0.02279172
0.13931062
0.33960233
0.4388724
0.43523101
0.41946525
0.40024714
0.39988005
0.39369716
0.37513826
0.36842222
0.37513577
0.37863532
0.37996792
0.37491429
0.36302599
0.34858111
0.33414789
0.32089228
0.30915974
0.29870177
0.28892112
0.27923455
0.2694187
0.25971859
0.25072372
0.2431362
0.23754974
0.23428502
0.2333736
0.23446794
0.23719509
0.24061293
0.2446088
0.2473176
0.24997117
-0.0030202324
0.15913215
0.34973072
0.43773817
0.43069442
0.41036792
0.390286
0.39042565
0.38480052
0.36250357
0.35330488
0.36500804
0.37244317
0.37816709
0.37657804
0.36550343
0.35056117
0.33532073
0.32138261
0.30931966
0.29898404
0.28969393
0.28057912
0.27107762
0.26119776
0.2514595
0.24265515
0.23557508
0.23079549
0.22854909
0.2287504
0.23093972
0.23466054
0.23891314
0.24357496
0.24674908
0.24974199
0.017842747
0.17712747
0.35990062
0.43677729
0.42587213
0.40062194
0.38031937
0.38066463
0.37591146
0.34969666
0.33600558
0.35293879
0.36463761
0.37520295
0.37822723
0.36822089
0.35270504
0.33647951
0.32161969
0.3089944
0.29863657
0.28987939
0.28158181
0.27276599
0.26309551
0.25292285
0.24306268
0.23447678
0.22799302
0.22412376
0.22298219
0.22435103
0.22765757
0.2323683
0.23743661
0.24273814
0.24635444
0.24966606
0.038930166
0.18982908
0.36817721
0.43513869
0.4205454
0.3902625
0.36987224
0.37093905
0.36724637
0.33640638
0.31733932
0.33801726
0.35488373
0.3713255
0.37965511
0.37109473
0.3549424
0.33758577
0.32158701
0.30814188
0.29754667
0.289287
0.28201793
0.27428272
0.26528144
0.25508543
0.24444537
0.23444536
0.22615977
0.22039526
0.21755507
0.21760674
0.22019263
0.22463097
0.23032091
0.23618074
0.24209251
0.2461261
0.24973503
0.058533621
0.19745484
0.3729714
0.43185177
0.41431239
0.37884682
0.35873478
0.360809
0.35830568
0.32477687
0.29635799
0.32078664
0.34272699
0.36453472
0.38055979
0.37390644
0.35712862
0.3385413
0.32122686
0.30671086
0.29559726
0.28770529
0.28162427
0.27537276
0.26756339
0.25785445
0.24683078
0.2356306
0.22554651
0.21769464
0.21280014
0.21111666
0.21244716
0.21629154
0.22186755
0.22851885
0.23514116
0.24163099
0.24605558
0.24994002
0.19996811
0.075001952
0.37279095
0.4253788
0.40628976
0.36590574
0.34623803
0.35011216
0.34865147
0.31275016
0.2766605
0.29959766
0.32914563
0.35600626
0.38052268
0.37644582
0.35900248
0.33917817
0.3204386
0.3046222
0.29267035
0.28490434
0.2800955
0.27572714
0.26968546
0.26107014
0.25017987
0.23812578
0.22637007
0.21633144
0.20909176
0.20523781
0.20484093
0.2075286
0.21266266
0.21937276
0.22696055
0.23431195
0.2413455
0.24613388
0.25027179
0.36678047
0.19711414
0.087586586
0.4137802
0.39522531
0.3502016
0.33154013
0.3387121
0.33812661
0.30104183
0.25163377
0.27719114
0.31154085
0.34560837
0.3791099
0.37816635
0.36024156
0.33923217
0.31906684
0.30178148
0.28863594
0.28063331
0.27708455
0.2749771
0.27132706
0.26450284
0.25438323
0.24195714
0.22879542
0.2165898
0.20679368
0.20038011
0.19774817
0.19876354
0.20287577
0.20931883
0.21714965
0.22564245
0.23368589
0.24122724
0.24635151
0.25072092
0.39674516
0.35448719
0.18915371
0.096008881
0.37957629
0.3297144
0.313275
0.32617778
0.32679166
0.287943
0.2271012
0.24541234
0.29328513
0.33311219
0.37528805
0.37841851
0.36023017
0.33837694
0.31689528
0.29804167
0.28338265
0.27461578
0.27218478
0.27269083
0.2720949
0.26785205
0.25925693
0.2470777
0.23292141
0.21870874
0.20625437
0.19695444
0.19160507
0.19037843
0.19292159
0.1985118
0.20627021
0.21519879
0.22455926
0.23325479
0.24126677
0.24669859
0.25127795
0.35808044
0.37410746
0.33674478
0.17696435
0.10050272
0.30305645
0.28972692
0.31163926
0.3146008
0.27213498
0.20354496
0.21188161
0.26465833
0.31574369
0.36981883
0.3750973
0.35845699
0.33611403
0.3136804
0.29324537
0.27675146
0.26657809
0.26492677
0.26835097
0.27151858
0.27073696
0.26454054
0.25336049
0.2387713
0.22286359
0.20778577
0.19536749
0.18686025
0.18282522
0.18318044
0.1873518
0.19445715
0.203524
0.21351849
0.2237044
0.23300954
0.24145394
0.24716487
0.25193365
0.26872802
0.33090773
0.34905736
0.31507419
0.16188271
0.10157983
0.25954826
0.29399562
0.30126685
0.25430958
0.18065775
0.17767222
0.22981912
0.2947276
0.35708332
0.37004711
0.35278378
0.33206038
0.309073
0.28719726
0.26867436
0.25618249
0.25476811
0.26135902
0.2690341
0.2727042
0.26989098
0.26059363
0.24628168
0.22915274
0.21164058
0.19599971
0.18396976
0.17657918
0.17410883
0.17620798
0.18208873
0.19072891
0.20108449
0.21210527
0.22306987
0.23293972
0.24177786
0.24774046
0.25267889
0.22347766
0.22965546
0.296082
0.32263027
0.29101796
0.14556346
0.099876741
0.27228232
0.28717253
0.23545234
0.15907933
0.14406973
0.19312054
0.27274542
0.33967989
0.3574864
0.344671
0.32510197
0.3029137
0.27967818
0.25894903
0.2432544
0.24102866
0.2509876
0.26395702
0.27318625
0.27489849
0.26847645
0.25529226
0.23758113
0.21799497
0.19917912
0.18337519
0.17213451
0.16619629
0.16552996
0.16951402
0.17716344
0.18734059
0.1989535
0.21095356
0.22264556
0.2330335
0.242228
0.24841646
0.2535045
0.2463173
0.18337147
0.18679016
0.25724078
0.29361081
0.26602926
0.12939977
0.096295989
0.27252914
0.21519839
0.13998243
0.11191895
0.15830315
0.24653406
0.31576499
0.34308116
0.32971164
0.31603215
0.29450618
0.27061558
0.24757521
0.22733296
0.2230257
0.23634977
0.25542808
0.27143192
0.27900679
0.27662718
0.26553983
0.24804376
0.22692634
0.20515994
0.18547459
0.16998367
0.1599622
0.1558085
0.15716454
0.16314845
0.17260288
0.1843025
0.19712994
0.21005457
0.22241903
0.23327957
0.24279566
0.2491845
0.25440124
0.25806731
0.21527806
0.14122891
0.14127353
0.21799042
0.26358668
0.2414812
0.11430182
0.091561304
0.19452897
0.12324237
0.082040293
0.12625065
0.21550085
0.28598307
0.32160769
0.31454535
0.30174667
0.28494972
0.2595458
0.23433712
0.20871606
0.19956145
0.21638335
0.24246176
0.26652788
0.28162046
0.28452243
0.27665442
0.26031417
0.23839054
0.21409542
0.19059802
0.17058653
0.15593714
0.14757388
0.14551913
0.14908692
0.15715695
0.16843004
0.18162096
0.19560802
0.20939587
0.22237837
0.23367003
0.24347316
0.25003365
0.25536026
0.1745969
0.24458426
0.18159624
0.097559517
0.095053304
0.17993809
0.23462003
0.21868163
0.10121113
0.086891401
0.10905545
0.056600085
0.097790723
0.18255944
0.2503236
0.29456364
0.28962185
0.2875675
0.27241256
0.24773395
0.21932321
0.18670478
0.17023582
0.18972089
0.22361397
0.25812456
0.28187266
0.29157567
0.28812557
0.27403312
0.25220379
0.22600844
0.19897584
0.17434358
0.15463153
0.14138
0.13510394
0.13543288
0.14136773
0.1515806
0.16466269
0.1792957
0.19437655
0.20896554
0.22251698
0.23419872
0.2442479
0.25094895
0.25637517
0.097222865
0.15804775
0.23115594
0.14737067
0.054122009
0.050058393
0.14407494
0.20828952
0.19808164
0.09065044
0.081573056
0.036704682
0.073994325
0.15057435
0.21083744
0.26127995
0.25590403
0.26371095
0.2623699
0.23443545
0.20263916
0.16266833
0.13197932
0.15519398
0.19740962
0.2436692
0.27898244
0.29705929
0.2993699
0.28868467
0.26802693
0.24076815
0.21070384
0.18156073
0.1565076
0.13777392
0.12648002
0.1226933
0.12565248
0.1340729
0.146454
0.1613097
0.17731878
0.19342464
0.2087593
0.2228308
0.23484959
0.24509859
0.25191922
0.25744295
0.023341429
0.087859114
0.14712749
0.21719879
0.11470426
0.013618147
0.0090832115
0.11151078
0.18549945
0.1800869
0.081890064
0.075114729
0.055809217
0.12217198
0.17084119
0.2218708
0.21313108
0.22865266
0.24508097
0.22553223
0.18639337
0.13327389
0.086618979
0.10973251
0.16150279
0.22179486
0.27168008
0.30015508
0.30960254
0.30366877
0.2853475
0.25806995
0.22571487
0.19241013
0.16194196
0.13726763
0.12021478
0.11141924
0.11048433
0.11627668
0.1272607
0.1418001
0.15836934
0.1756821
0.19275176
0.20877638
0.22329992
0.23558881
0.24600923
0.25295204
0.25861609
0.044005628
0.017814243
0.082544691
0.14184062
0.20206861
0.085937429
-0.021062525
-0.025952484
0.083286707
0.16651955
0.16710011
0.075426782
0.067323313
0.099402881
0.13452421
0.17613523
0.16054478
0.18361179
0.21781319
0.21238472
0.17496837
0.11054597
0.032430396
0.05736312
0.11500376
0.18943234
0.25805111
0.29978574
0.31800153
0.31809828
0.3035203
0.27741814
0.24375509
0.20689743
0.17118282
0.14029968
0.11685498
0.10218062
0.096387157
0.098617595
0.10739588
0.12097475
0.13762763
0.15583893
0.17439096
0.19236194
0.20899211
0.2238756
0.23639256
0.24699799
0.25415369
0.25990315
0.084170545
0.039121817
0.019719244
0.084562258
0.1423772
0.18462581
0.063181061
-0.048003593
-0.053553502
0.060135324
0.1506246
0.1596243
0.071727329
0.058490607
0.10304315
0.1252766
0.10161408
0.12930688
0.18111765
0.19236614
0.16080541
0.091898328
-0.0065674965
-0.009235655
0.062994232
0.1477059
0.2361185
0.29436098
0.32343518
0.33112129
0.32161806
0.29814831
0.26436305
0.22483375
0.18431435
0.14719024
0.11688856
0.095541226
0.083914376
0.081575608
0.087225668
0.099082721
0.11524009
0.13394321
0.15373269
0.17345655
0.19222557
0.20933842
0.22452432
0.23730477
0.2482451
0.25549355
0.26126144
0.077436255
0.077710747
0.040601486
0.02956424
0.093949019
0.15011868
0.16729715
0.048306936
-0.065864942
-0.073479228
0.043289485
0.13755564
0.1541829
0.071373978
0.048935956
0.07285891
0.036773426
0.066125983
0.13565592
0.16525753
0.14196937
0.073572558
-0.048357836
-0.070687531
-0.0059675801
0.096687451
0.20719442
0.28255668
0.32465763
0.34154956
0.33874321
0.31932605
0.2868835
0.24580891
0.2012227
0.15810289
0.1206992
0.0920223
0.073626995
0.065668462
0.067170562
0.076420415
0.091386196
0.110078
0.13077432
0.15207226
0.17284421
0.19225154
0.20976948
0.22531945
0.23864375
0.24965065
0.25693308
0.2627103
0.02276521
0.060641169
0.078333441
0.049632845
0.046301396
0.110189
0.16342502
0.15311825
0.041079531
-0.074549654
-0.06963598
0.0319397
0.12849243
0.14857857
0.073881807
0.039183047
-0.031791476
-0.0030752146
0.080819232
0.13173774
0.11787245
0.053455703
-0.081157982
-0.15639114
-0.070785001
0.035226818
0.17093134
0.2642367
0.32042776
0.34829027
0.35362237
0.34007787
0.31042464
0.26920869
0.22156483
0.17300477
0.128526
0.092058023
0.066060241
0.051433212
0.047693909
0.053335071
0.066284455
0.084349493
0.10553527
0.12815764
0.15081842
0.17243507
0.19237886
0.210399
0.22675454
0.24019175
0.25116482
0.2584685
0.26425946
-0.099653124
-0.021850079
0.057854431
0.085513192
0.066639518
0.068955914
0.13243987
0.18132076
0.14420258
0.039827691
-0.073238268
-0.073760429
0.02767407
0.12395026
0.14343384
0.078536064
0.03164745
-0.075243288
0.020533225
0.092537989
0.089338289
0.029573691
-0.11234657
-0.22955936
-0.17831189
-0.024059226
0.12844646
0.24015829
0.309537
0.35002383
0.36526611
0.35894429
0.33407756
0.2941914
0.24479027
0.19163201
0.14041868
0.095954369
0.061681585
0.039397107
0.029287241
0.030218276
0.040197144
0.056892277
0.078046931
0.1016701
0.12605071
0.14981979
0.17214972
0.1927697
0.21196061
0.22846468
0.24185851
0.25277628
0.26010111
0.26590299
-0.14622301
-0.16072363
-0.057369534
0.065069432
0.10090191
0.0904893
0.095900486
0.15864152
0.20368878
0.14479773
0.043644746
-0.069461503
-0.067601181
0.02691114
0.12362466
0.13992674
0.085186034
0.026112631
-0.041584224
0.048413924
0.057620002
0.0034234969
-0.1453438
-0.30097071
-0.28115199
-0.11738915
0.078777276
0.21249714
0.29350277
0.34517872
0.37229954
0.37516241
0.35639998
0.31982513
0.27010949
0.21350857
0.15619917
0.10384061
0.06085027
0.030039754
0.012446187
0.0074948874
0.013428464
0.027874324
0.048356507
0.072567039
0.098439175
0.12426408
0.14897475
0.17221082
0.1944608
0.2138937
0.23030766
0.24362027
0.25448905
0.26183055
0.26764555
-0.10163268
-0.21069103
-0.20850371
-0.08319502
0.072951342
0.12339169
0.11861429
0.12597096
0.18691446
0.23005577
0.15701773
0.048139391
-0.057779635
-0.055000603
0.030473563
0.12502672
0.13642208
0.089221495
0.024021401
0.0027324901
0.024438706
-0.023406204
-0.17519512
-0.37252796
-0.39168819
-0.22109693
0.00065947498
0.16883967
0.27409715
0.33528405
0.3731358
0.3871356
0.37680869
0.3447879
0.29661701
0.23790799
0.17547395
0.11562691
0.063766617
0.023754924
-0.002361862
-0.014395456
-0.013683333
-0.0025008382
0.016531361
0.040807867
0.067869615
0.095608866
0.12266963
0.14857945
0.17404185
0.19665024
0.21597513
0.23224238
0.24548483
0.25630173
0.26365645
0.26948413
-0.039751293
-0.15648629
-0.26108725
-0.24053388
-0.097461583
0.081911442
0.15001949
0.14983127
0.15794466
0.21678743
0.25635674
0.17445898
0.057859428
-0.039498828
-0.035106277
0.037682032
0.12747634
0.13334382
0.089360654
0.023175217
-0.007658189
-0.048768118
-0.20166347
-0.43977487
-0.50297941
-0.33850573
-0.091637189
0.10765153
0.23565487
0.3216663
0.36890987
0.39365245
0.39310989
0.3683748
0.32311958
0.26398402
0.19759147
0.13100875
0.070427659
0.020800279
-0.014732177
-0.035024326
-0.040778895
-0.033999767
-0.017335732
0.0063569
0.034215317
0.063669948
0.093019398
0.12165376
0.15054177
0.17653924
0.19900886
0.21814122
0.23428216
0.24744976
0.25821341
0.2655772
0.27141938
-0.03502321
-0.07502399
-0.1989288
-0.29330958
-0.25511127
-0.099943528
0.095114377
0.17825248
0.18240097
0.18928253
0.2437569
0.28728863
0.18877137
0.072520976
-0.014941364
-0.0087296364
0.047610872
0.13019749
0.13016397
0.087660195
0.022666956
-0.072489232
-0.22665152
-0.49013333
-0.60773785
-0.46369606
-0.19533848
0.033504472
0.18780786
0.2875151
0.36107246
0.39496443
0.40547615
0.38807606
0.34875612
0.29058911
0.22176942
0.14942013
0.080621777
0.021252131
-0.024369617
-0.054003631
-0.067497022
-0.066366828
-0.05313104
-0.030809287
-0.0026621255
0.028235453
0.059770662
0.091168034
0.12373002
0.15338906
0.17923052
0.2014437
0.22041286
0.23642298
0.24951417
0.26022185
0.2675899
0.2734509
-0.092520404
-0.052022821
-0.097738054
-0.2229424
-0.30436434
-0.25278353
-0.091898218
0.11091679
0.2055738
0.21228058
0.21416708
0.27949713
0.30813285
0.20494638
0.091347496
0.016363863
0.022396613
0.059182382
0.13315417
0.12654805
0.085321989
0.022306914
-0.23824687
-0.51384438
-0.69427694
-0.58801358
-0.30668921
-0.051034308
0.12899996
0.24686454
0.33151204
0.39356893
0.41171992
0.40657196
0.37159946
0.31682376
0.24689105
0.17014862
0.093879
0.024991286
-0.031132561
-0.071026351
-0.093497554
-0.099337135
-0.090723469
-0.070706578
-0.042904079
-0.010935904
0.022626495
0.056806129
0.093323407
0.12697281
0.15646212
0.18198633
0.20398532
0.22278452
0.238664
0.25167479
0.26232491
0.26969269
0.27557457
-0.23556749
-0.10171347
-0.056460892
-0.10384211
-0.22520015
-0.29444653
-0.23551207
-0.076104069
0.12702702
0.22965568
0.24061345
0.27786145
0.3051166
0.32870579
0.22363027
0.11471337
0.05300894
0.05753143
0.073104605
0.13518315
0.12218945
0.082597362
0.021955068
-0.50952125
-0.74948833
-0.69796906
-0.41886944
-0.14599708
0.062989816
0.19617434
0.29601341
0.36941883
0.41666213
0.41605627
0.39272654
0.34100403
0.272091
0.19212267
0.10957019
0.031653954
-0.035054597
-0.085906986
-0.1184933
-0.13265299
-0.1299724
-0.11334397
-0.086661061
-0.054105808
-0.01875876
0.018192842
0.058985072
0.097005581
0.1304817
0.15958623
0.18484977
0.20662608
0.22525586
0.24100071
0.25392833
0.26452163
0.27189013
0.27778689
-0.47599183
-0.21875409
-0.092686195
-0.051859292
-0.095537621
-0.20758474
-0.26637251
-0.20624816
-0.055458734
0.14302116
0.24926624
0.27154377
0.29589849
0.33165919
0.3499179
0.24440808
0.14148573
0.093289389
0.092296314
0.092070005
0.13491515
0.11800649
0.07964126
0.021524958
-0.7617707
-0.77624246
-0.52424894
-0.24360778
-0.0097619943
0.13979113
0.2496915
0.33937425
0.39976784
0.4268325
0.40586787
0.36344432
0.29565125
0.2145205
0.12669091
0.040709049
-0.03638883
-0.098607179
-0.142284
-0.1660854
-0.17073853
-0.15872817
-0.13409224
-0.10156503
-0.064771505
-0.025114854
0.020313264
0.063149642
0.10100591
0.1340262
0.16282016
0.18781094
0.2093663
0.22782126
0.24342888
0.25627469
0.26681472
0.27417904
0.28008719
-0.72499109
-0.41327314
-0.17836708
-0.066750468
-0.034237369
-0.074617307
-0.17331986
-0.22385759
-0.16789079
-0.027934607
0.15885658
0.26872623
0.29755162
0.32169505
0.35670815
0.36871887
0.26584345
0.16882536
0.1332159
0.12120956
0.11457192
0.13387438
0.11413306
0.076611804
0.021015154
-0.80669289
-0.60566434
-0.32713955
-0.084975987
0.078056103
0.19721083
0.29682507
0.37676181
0.41894759
0.42133717
0.37946759
0.3177777
0.23556572
0.1444763
0.051247961
-0.035555861
-0.1092729
-0.16478183
-0.1994587
-0.21289428
-0.20687017
-0.18536813
-0.15363282
-0.1158504
-0.073621275
-0.023168568
0.025001554
0.067699717
0.1050253
0.13768485
0.16615129
0.19087136
0.21219891
0.23047557
0.24594953
0.25872475
0.26919473
0.27655403
0.28247649
-0.77897338
-0.63820602
-0.33262763
-0.11959409
-0.027130467
-0.0023047128
-0.041402746
-0.12499061
-0.17075701
-0.12336486
0.010003433
0.17679677
0.28888973
0.32122074
0.34550268
0.37782467
0.38314281
0.28620521
0.19604283
0.16456165
0.14401718
0.13274167
0.13392
0.11058882
0.073594145
0.02046424
-0.64464563
-0.38708605
-0.15539847
0.013694693
0.13916939
0.24649707
0.33854841
0.40567716
0.42137239
0.39780572
0.33392024
0.25553389
0.16112879
0.062589798
-0.033337874
-0.11820961
-0.18603808
-0.23267055
-0.25633771
-0.25778545
-0.24067472
-0.21065911
-0.1724874
-0.127908
-0.072005224
-0.017917793
0.030162618
0.072252127
0.10916686
0.1414417
0.16958269
0.19402244
0.21511772
0.23322188
0.24858155
0.26126338
0.27165607
0.279008
0.28495059
-0.63162585
-0.69281747
-0.51839329
-0.23889993
-0.053240999
0.023228009
0.039212422
-0.0010050506
-0.067950946
-0.11243147
-0.067833608
0.045573497
0.20488207
0.30818785
0.34180669
0.36674027
0.39380265
0.39232
0.30409224
0.22208615
0.18619326
0.16263476
0.1452669
0.13416268
0.10739192
0.070663096
0.019903189
-0.41744936
-0.21139072
-0.049040779
0.078084093
0.18865959
0.29108946
0.37302882
0.42191546
0.40432943
0.3522923
0.26962636
0.17703261
0.072960363
-0.03030048
-0.12604487
-0.20624706
-0.26570746
-0.30100509
-0.31149791
-0.30020463
-0.27302818
-0.23523179
-0.18863914
-0.12683031
-0.066155289
-0.012080775
0.035310306
0.076940501
0.11341067
0.145302
0.17310404
0.19725698
0.21812842
0.23609107
0.25130203
0.26388174
0.27419341
0.28153904
0.2874999
-0.41134354
-0.56803512
-0.56793151
-0.38115149
-0.13931579
0.015202969
0.078298981
0.087345548
0.044340374
-0.0090906167
-0.048435751
-0.021534151
0.09015408
0.23272233
0.32551388
0.35924299
0.38370775
0.40425832
0.39476772
0.31684265
0.24319867
0.2036685
0.17611046
0.15358042
0.13414219
0.10447871
0.067870001
0.019356331
-0.24573268
-0.10447848
0.016619941
0.12664186
0.23267704
0.33006558
0.39670327
0.42292083
0.36094063
0.28644853
0.18707867
0.082878901
-0.028138198
-0.13320793
-0.22585945
-0.29866825
-0.34687597
-0.36804699
-0.36415344
-0.34114315
-0.30469595
-0.25656998
-0.18837581
-0.12034522
-0.059572459
-0.0062700146
0.040616013
0.08173991
0.11776472
0.14925341
0.176707
0.20058419
0.22127673
0.23905047
0.254099
0.26657241
0.27680393
0.28414659
0.29011749
-0.2601798
-0.37356914
-0.47143973
-0.42447148
-0.24486512
-0.042889539
0.08294671
0.13508809
0.13828051
0.097053786
0.049019542
0.001008769
0.035746897
0.12891397
0.26117942
0.33987078
0.37262233
0.39517121
0.40866518
0.39098162
0.32263513
0.25715755
0.21612975
0.18486103
0.15870615
0.1336383
0.10176365
0.065243853
0.018841713
-0.1483794
-0.041246285
0.062521186
0.16722469
0.27280517
0.35966677
0.40140089
0.39174796
0.29627663
0.20052009
0.086966438
-0.026162954
-0.14124659
-0.24516293
-0.3318123
-0.39399539
-0.42748457
-0.43272282
-0.41541718
-0.38153763
-0.33255775
-0.25748339
-0.18121883
-0.11294034
-0.053023518
-0.00026741951
0.046048637
0.086661785
0.12221432
0.15328632
0.18040523
0.20406864
0.22451782
0.24208357
0.25696314
0.2693332
0.27948506
0.28682315
0.29279918
-0.1773475
-0.25473075
-0.31418942
-0.35928886
-0.28443495
-0.12192004
0.044887226
0.14766144
0.18975222
0.19094873
0.15228877
0.092143355
0.058801893
0.091309166
0.16523884
0.28502214
0.35038969
0.38156863
0.40081253
0.40689823
0.38292217
0.3230883
0.26524758
0.2235785
0.19037329
0.16135883
0.13258603
0.099175405
0.062794825
0.018369085
-0.091907505
-0.00093613203
0.097395635
0.2036145
0.30606295
0.37441465
0.39461493
0.33891251
0.21033536
0.09513495
-0.029943166
-0.14927263
-0.26548285
-0.36529019
-0.44244777
-0.48987633
-0.50610636
-0.49626662
-0.4664493
-0.41754915
-0.33512185
-0.24961373
-0.17290833
-0.10556876
-0.046233141
0.0058879902
0.051623857
0.091688574
0.1267484
0.15742002
0.18428684
0.20765055
0.22782992
0.24517823
0.25989396
0.27216348
0.28222752
0.28955723
0.29554053
-0.13314043
-0.19116614
-0.23047034
-0.24608946
-0.24584493
-0.15787118
-0.015731437
0.12031546
0.20470834
0.2408818
0.23766782
0.19954592
0.13776038
0.11564213
0.14707284
0.20200706
0.30272371
0.35771116
0.38597324
0.40071555
0.39967473
0.37207859
0.31989065
0.26817148
0.22723665
0.19313776
0.1621264
0.13100308
0.096663637
0.060521482
0.017941919
-0.061006654
0.025452294
0.12606761
0.23523313
0.32662015
0.37390251
0.3578231
0.26315284
0.10387839
-0.02892412
-0.16292382
-0.28572493
-0.40011104
-0.49226493
-0.55522217
-0.58447203
-0.58407655
-0.56013352
-0.51257119
-0.42238592
-0.32649277
-0.24030548
-0.16461829
-0.097885553
-0.039250382
0.012217057
0.057320589
0.096807534
0.13139327
0.16177165
0.18827358
0.21130152
0.23119766
0.24833594
0.26289456
0.27505139
0.28501098
0.29234547
0.29834848
-0.11554874
-0.16445746
-0.19189023
-0.1969253
-0.17821661
-0.14225579
-0.053056781
0.069564846
0.18137276
0.25352528
0.28068932
0.28404404
0.23663209
0.18165521
0.17008204
0.19625153
0.24244421
0.31682165
0.36241946
0.3861092
0.3957787
0.38880951
0.36001432
0.31402076
0.2674603
0.22805682
0.19368505
0.16146328
0.1289698
0.094205387
0.058422868
0.017550751
-0.046441598
0.042865402
0.14958422
0.25711562
0.33089068
0.34867205
0.29490331
0.16538091
-0.022224266
-0.17102412
-0.3114347
-0.43502671
-0.54402863
-0.62351281
-0.6678974
-0.67919675
-0.66325575
-0.61869433
-0.52049369
-0.41294228
-0.31608515
-0.23098692
-0.15592024
-0.089952286
-0.032048277
0.018694242
0.063124029
0.10205365
0.13630188
0.16624032
0.19232895
0.21500215
0.23462539
0.25156487
0.26595028
0.27796287
0.28782394
0.29519555
0.30114555
-0.11636056
-0.16306311
-0.18553775
-0.18430818
-0.16033484
-0.11661986
-0.058815185
0.029016401
0.1344418
0.22903804
0.2874337
0.32531622
0.31179977
0.2724475
0.21956176
0.21769285
0.2354322
0.27492204
0.32856123
0.36481117
0.3832995
0.38775181
0.37645022
0.34772319
0.30654806
0.26442116
0.22675844
0.19257643
0.15975373
0.12659788
0.091801985
0.056489161
0.017194234
-0.044128905
0.052714191
0.16498395
0.26258799
0.31334342
0.29633506
0.20761379
0.046854975
-0.16735085
-0.33089562
-0.47526915
-0.5964691
-0.69483076
-0.7564768