/*--------------------------------*- C++ -*----------------------------------*\
| =========                 |                                                 |
| \\      /  F ield         | OpenFOAM: The Open Source CFD Toolbox           |
|  \\    /   O peration     | Version:  v2012                                 |
|   \\  /    A nd           | Website:  www.openfoam.com                      |
|    \\/     M anipulation  |                                                 |
\*---------------------------------------------------------------------------*/
FoamFile
{
    version     2.0;
    format      ascii;
    class       surfaceScalarField;
    location    "57.8900752049272498";
    object      phi;
}
// * * * * * * * * * * * * * * * * * * * * * * * * * * * * * * * * * * * * * //

dimensions      [0 3 -1 0 0 0 0];
oriented        oriented;


internalField   nonuniform List<scalar> 
18180
(
-0.052634765
-3.5718676
-0.10759816
-3.3402213
-0.050534324
-3.4761856
-0.16709736
-3.1223346
-0.10185332
-3.2468665
-0.045133036
-3.3851837
-0.23588077
-2.9150921
-0.15549292
-3.0292483
-0.089940874
-3.1592315
-0.038999839
-3.3019698
-0.31761758
-2.7174593
-0.21387498
-2.8198409
-0.13567855
-2.9436154
-0.076948199
-3.0795986
-0.032584127
-3.227454
-0.41554505
-2.5269024
-0.27830067
-2.6178667
-0.18342389
-2.7343144
-0.11446539
-2.8667709
-0.063654884
-3.0090234
-0.026523976
-3.1624187
-0.53372326
-2.3404853
-0.34957222
-2.4211159
-0.23326884
-2.5314474
-0.15184863
-2.6596114
-0.093408034
-2.7996762
-0.051317767
-2.9477444
-0.021080391
-3.1056847
-0.673078
-2.1556174
-0.42934084
-2.2266799
-0.28502208
-2.3337341
-0.18866155
-2.458895
-0.12165462
-2.5962645
-0.074290374
-2.7423856
-0.040391887
-2.8948559
-0.016374027
-3.0567707
-0.82261865
-1.9693817
-0.51863221
-2.0328587
-0.33680802
-2.1403796
-0.22388203
-2.2643186
-0.14768806
-2.4000436
-0.095007443
-2.5436491
-0.057680997
-2.6935366
-0.031063893
-2.8494146
-0.012416529
-3.0143081
-0.94485909
-1.7599473
-0.61557483
-1.8399406
-0.38516116
-1.9516472
-0.25554064
-2.0766351
-0.17036069
-2.2112586
-0.11273639
-2.3531908
-0.072414186
-2.4999178
-0.043732754
-2.6519987
-0.023304938
-2.8102564
-0.00916236
-2.9777394
-1.0168562
-1.5298833
-0.69856174
-1.646113
-0.4258217
-1.7687735
-0.28109238
-1.8968304
-0.18803253
-2.0314892
-0.12648059
-2.1714944
-0.083937795
-2.3155203
-0.053837273
-2.4629906
-0.032297829
-2.616336
-0.016981579
-2.7765119
-0.0065346487
-2.9457808
-1.0397039
-1.2905417
-0.750686
-1.4488853
-0.45158901
-1.5921553
-0.29759488
-1.7256898
-0.19868
-1.8614097
-0.13504243
-1.9993701
-0.09147582
-2.1400931
-0.060843614
-2.283726
-0.038889238
-2.4313786
-0.023098698
-2.5856691
-0.011911102
-2.7471739
-0.0044417999
-2.9180375
-1.0251676
-1.0634823
-0.76133558
-1.2529167
-0.45198928
-1.4221592
-0.30107955
-1.5640784
-0.20015841
-1.7013639
-0.13717365
-1.8373525
-0.094221492
-1.9743811
-0.064191941
-2.1136605
-0.042666797
-2.2564743
-0.027063687
-2.4041625
-0.015809003
-2.5590518
-0.0078988545
-2.7216751
-0.0027911556
-2.8936489
-0.98333136
-0.86740021
-0.72916909
-1.0704366
-0.41979415
-1.2603709
-0.28677739
-1.4133499
-0.19079141
-1.5519825
-0.13171882
-1.686108
-0.091458689
-1.819011
-0.063385879
-1.9532913
-0.043249529
-2.0909722
-0.028572523
-2.2330537
-0.017835631
-2.380624
-0.010103651
-2.535938
-0.0047583256
-2.6993671
-0.0014981032
-2.8723983
-0.92438037
-0.70942664
-0.6609321
-0.91205056
-0.35601274
-1.1108893
-0.25047547
-1.2747786
-0.16956368
-1.4142061
-0.11783264
-1.5460881
-0.082684617
-1.6746042
-0.058066724
-1.8033416
-0.040365355
-1.935284
-0.027381747
-2.0715761
-0.017777372
-2.2127545
-0.010716825
-2.3601235
-0.0056832745
-2.5157129
-0.0023191461
-2.6798393
-0.00048365662
-2.853593
-0.85677967
-0.58968999
-0.565641
-0.78262956
-0.2668167
-0.97921907
-0.19105738
-1.1495028
-0.13587978
-1.2890586
-0.095318522
-1.4177682
-0.067710987
-1.5416004
-0.04809084
-1.6645402
-0.033889278
-1.7900462
-0.023373548
-1.9200902
-0.015490885
-2.0548286
-0.0095961678
-2.1950185
-0.0052772922
-2.3421888
-0.0022859808
-2.4979791
-0.00043765114
-2.6626066
0.00029977467
-2.8371248
-0.78518457
-0.50478651
-0.45155448
-0.68307691
-0.15928347
-0.86934883
-0.11170617
-1.0387822
-0.089771475
-1.1771358
-0.064807327
-1.3014632
-0.046738289
-1.4201663
-0.033585554
-1.5371593
-0.023877727
-1.6560429
-0.016564136
-1.7791509
-0.010959554
-1.9070009
-0.0066670743
-2.0399313
-0.0034498336
-2.1793641
-0.00114977
-2.3263918
0.00032123842
-2.4823309
0.0010183072
-2.6474456
0.00087838755
-2.8225175
-0.71198381
-0.45048695
-0.32514182
-0.61179351
-0.040341196
-0.78234613
-0.018480174
-0.94374939
-0.032602125
-1.078389
-0.027531436
-1.1971773
-0.020421816
-1.3100952
-0.014948757
-1.4209635
-0.01057792
-1.5331745
-0.0071098273
-1.6489287
-0.0042773376
-1.7692786
-0.0019723063
-1.8948358
-0.00016509365
-2.0265075
0.0011412553
-2.1654475
0.0019674788
-2.3124224
0.0022928179
-2.4685129
0.0021384316
-2.6340977
0.0013570522
-2.8097539
-0.63368918
-0.41705517
-0.19280707
-0.56462723
0.083250571
-0.71678956
0.081712774
-0.86462917
0.032653941
-0.99233671
0.014974102
-1.1045547
0.010165088
-1.210962
0.0072098712
-1.3154281
0.0056024969
-1.4208888
0.0047060467
-1.5292477
0.0043491785
-1.6417853
0.004344665
-1.7595627
0.0044763088
-1.883482
0.004576794
-2.0143613
0.0045411004
-2.1530646
0.0043107273
-2.3000382
0.0038075525
-2.4562855
0.002996887
-2.6223301
0.0017290794
-2.7984585
-0.54572355
-0.40213738
-0.05645262
-0.53635178
0.20561132
-0.6694145
0.18231853
-0.80035631
0.10175174
-0.9179291
0.060652771
-1.0225857
0.043465364
-1.1219237
0.031948881
-1.2198099
0.024008246
-1.3185348
0.018413844
-1.4196678
0.014572457
-1.5243689
0.01203068
-1.6340563
0.010318472
-1.7501069
0.0090643741
-1.8730531
0.0080299278
-2.0034632
0.0070666817
-2.1420237
0.0060792519
-2.2890704
0.0049669053
-2.4454818
0.0036584319
-2.6119375
0.0020131009
-2.7886025
-0.45043861
-0.40780256
0.080801371
-0.52340219
0.32191986
-0.63606
0.27778411
-0.74867305
0.17041952
-0.85407032
0.10751885
-0.95027829
0.078158805
-1.0422059
0.058451211
-1.1334134
0.044087587
-1.2254984
0.033608496
-1.3195891
0.026067583
-1.416688
0.020814466
-1.5182976
0.01713929
-1.626257
0.014444723
-1.7412812
0.012324743
-1.8635198
0.010540956
-1.9936426
0.0089414569
-2.1321992
0.0074157092
-2.2793072
0.0058533781
-2.4359199
0.0041678868
-2.6027994
0.0022315941
-2.7799449
-0.35298965
-0.42661806
0.20995992
-0.52197734
0.42660912
-0.61241968
0.36381318
-0.70667801
0.23489507
-0.79900626
0.1533308
-0.88626813
0.11284802
-0.97073467
0.08573437
-1.0553072
0.06518656
-1.1409997
0.049792298
-1.2283319
0.038423566
-1.3181768
0.030348323
-1.4120419
0.024656009
-1.5118615
0.020499382
-1.6188912
0.01727723
-1.7331351
0.014633638
-1.8548283
0.012366355
-1.9848187
0.010335375
-2.1233942
0.0084270044
-2.2706389
0.0065299182
-2.4274724
0.004557064
-2.5947947
0.0023959375
-2.7724569
-0.2549158
-0.44453103
0.32297328
-0.52559347
0.51425838
-0.59484206
0.43778446
-0.67174417
0.29255613
-0.75096998
0.19622934
-0.82916723
0.14636351
-0.9063676
0.11292433
-0.98453072
0.086725252
-1.0641909
0.066508991
-1.1451762
0.051250294
-1.2281626
0.040277364
-1.314737
0.032555923
-1.4067915
0.026975706
-1.5057889
0.022694618
-1.6120244
0.019212841
-1.7255083
0.01626532
-1.8469011
0.01369439
-1.9768652
0.011373375
-2.1155406
0.0091910838
-2.262921
0.0070422468
-2.4200501
0.0048488257
-2.5878052
0.0025147942
-2.7659112
-0.15969474
-0.46294992
0.42022433
-0.52863275
0.58297904
-0.58037984
0.49852344
-0.64167
0.34178877
-0.70834173
0.2348403
-0.77768936
0.1778204
-0.84799976
0.13933538
-0.92013116
0.10822499
-0.9942061
0.083386543
-1.0693369
0.064205368
-1.1458981
0.050263155
-1.2256113
0.0405202
-1.3103741
0.033598602
-1.4015416
0.028361092
-1.4997802
0.024117438
-1.6053115
0.020526339
-1.7184205
0.017415143
-1.8397039
0.014660662
-1.9697398
0.01214538
-2.1085313
0.0097639378
-2.2561339
0.0074231141
-2.4135509
0.0050599817
-2.581731
0.0025956044
-2.760277
-0.069870078
-0.47874912
0.49982012
-0.5302306
0.63469034
-0.56722447
0.54606535
-0.61472107
0.38179002
-0.66973447
0.26830185
-0.73072162
0.20662638
-0.79463593
0.16449141
-0.86121686
0.12933561
-0.93021367
0.10015961
-1.0000418
0.077018625
-1.07065
0.060006756
-1.1438662
0.048239427
-1.2217269
0.040086612
-1.3055213
0.034047017
-1.3960114
0.029173847
-1.493727
0.025020448
-1.5989411
0.021404609
-1.7119127
0.018220448
-1.8332298
0.015361582
-1.9633814
0.012715119
-2.1023507
0.010185316
-2.2501696
0.0076961064
-2.4079134
0.0052031557
-2.576474
0.0026442711
-2.755377
0.012541564
-0.48993951
0.56158632
-0.52898203
0.67093747
-0.55413692
0.58085201
-0.58949717
0.41237729
-0.63403408
0.29623426
-0.68735499
0.23245734
-0.74543189
0.18811441
-0.80699027
0.14984415
-0.87145325
0.11667615
-0.93656477
0.089508839
-1.00173
0.069264035
-1.0688233
0.055427089
-1.1401257
0.046160768
-1.2170149
0.039518827
-1.3001916
0.034204337
-1.3903046
0.029617038
-1.4879244
0.025562822
-1.5930929
0.021975184
-1.7060494
0.01877787
-1.8274551
0.015864926
-1.9577664
0.013127232
-2.0969304
0.010483318
-2.2450283
0.0078783573
-2.4030391
0.0052879956
-2.5719522
0.002665311
-2.7511682
0.085982127
-0.4956216
0.60668214
-0.5242337
0.6937372
-0.54018337
0.60346636
-0.56490285
0.43393321
-0.6004082
0.31866259
-0.64687409
0.25521416
-0.69970038
0.2100907
-0.7567736
0.1696639
-0.81724865
0.1328915
-0.87824397
0.10158826
-0.93850421
0.077854618
-0.99987096
0.06182886
-1.0649257
0.05155151
-1.135274
0.044543958
-1.2116541
0.03903403
-1.2946319
0.034191752
-1.3849298
0.029797675
-1.4826774
0.025847624
-1.5878071
0.022327216
-1.7008114
0.019155353
-1.8223667
0.016217828
-1.9528656
0.013412554
-2.0922669
0.010677805
-2.2405946
0.0079825894
-2.3988809
0.0053221015
-2.5680562
0.0026623972
-2.7474444
0.14933838
-0.49571773
0.63717527
-0.5159983
0.70515344
-0.5247584
0.61489334
-0.54040817
0.44734823
-0.56827274
0.33591492
-0.60874824
0.27497021
-0.65689747
0.23043013
-0.71000455
0.18881029
-0.7670188
0.14885755
-0.82449094
0.11326088
-0.88040053
0.085661397
-0.936449
0.067225386
-0.99556207
0.056000829
-1.0596667
0.048893044
-1.129709
0.043493356
-1.2061564
0.038632371
-1.2895601
0.034032664
-1.380244
0.029775399
-1.4780265
0.025947187
-1.5830991
0.022524758
-1.6962045
0.019400569
-1.8179373
0.016452414
-1.9486569
0.013592254
-2.0882887
0.010783035
-2.236864
0.0080185265
-2.3953353
0.0053117668
-2.5646774
0.0026386262
-2.7441662
0.20240984
-0.49086411
0.6556199
-0.50468622
0.70712689
-0.50775105
0.61658705
-0.51587771
0.45366587
-0.5372539
0.3485287
-0.572599
0.29192252
-0.61661355
0.24922887
-0.66623175
0.20736854
-0.72026959
0.16470236
-0.77479432
0.12461182
-0.82691455
0.0926379
-0.87806492
0.071433048
-0.93152089
0.059259471
-0.98964522
0.052338852
-1.053707
0.047417097
-1.124198
0.042840454
-1.2013723
0.038212896
-1.2854279
0.033718846
-1.376235
0.029594018
-1.4738526
0.025917366
-1.5789348
0.022614779
-1.6921965
0.019546253
-1.8141493
0.016590117
-1.9451078
0.013680732
-2.0849697
0.010809471
-2.2337297
0.0079941356
-2.3923426
0.0052623738
-2.5617259
0.0025967742
-2.7412267
0.24567782
-0.48187409
0.66447718
-0.49084302
0.7012581
-0.48923304
0.6101763
-0.4913737
0.45392077
-0.50720848
0.35717053
-0.53818316
0.30635045
-0.57855322
0.26663349
-0.62510023
0.22546556
-0.67659312
0.18060562
-0.72871399
0.13579327
-0.77760255
0.098791624
-0.82427387
0.074311516
-0.8723557
0.06109557
-0.92470292
0.054658053
-0.98305375
0.050642
-1.0480389
0.046730324
-1.119646
0.042306971
-1.1976648
0.03766779
-1.2819616
0.033250994
-1.3726094
0.02929675
-1.4701257
0.025804302
-1.5752921
0.022631245
-1.6887719
0.019614042
-1.8109813
0.016644641
-1.9421736
0.013687934
-2.0822455
0.010765421
-2.231179
0.0079161342
-2.3898065
0.0051788068
-2.5591578
0.0025393993
-2.7386168
0.27920756
-0.55178118
0.66580361
-0.47488315
0.68876789
-0.46937181
0.59736975
-0.46704905
0.44922923
-0.47828427
0.36250932
-0.50536339
0.31857549
-0.54251635
0.28280615
-0.5863347
0.24324228
-0.6356537
0.19677644
-0.68587061
0.14701193
-0.73207836
0.10417607
-0.77468101
0.075744989
-0.81764605
0.061283302
-0.86439556
0.055631954
-0.91723625
0.053004469
-0.97702313
0.050227138
-1.0435998
0.046306599
-1.1163088
0.041644056
-1.1947232
0.036935526
-1.2788727
0.032654271
-1.3693028
0.028930055
-1.4668062
0.025645758
-1.5721573
0.022597499
-1.6859172
0.019616999
-1.8083953
0.016624435
-1.9398233
0.013621151
-2.0800853
0.010657709
-2.2291032
0.0077906916
-2.3876973
0.0050656194
-2.5569062
0.0024689232
-2.7362572
0.30536344
-0.57770526
0.64959629
-0.52646681
0.67075949
-0.44846597
0.57967361
-0.44286993
0.44078485
-0.45071088
0.36492763
-0.47400723
0.32885575
-0.50829902
0.29789465
-0.54972042
0.26083333
-0.59717177
0.21343033
-0.64593648
0.15851346
-0.69000335
0.10889072
-0.72894555
0.075641886
-0.76702381
0.059603879
-0.80831139
0.05496874
-0.85573546
0.054321807
-0.91061468
0.053262798
-0.9725986
0.05022359
-1.0406268
0.04570124
-1.1138549
0.040702828
-1.1920964
0.036016599
-1.2759424
0.031978136
-1.3662726
0.028540637
-1.4638952
0.025470655
-1.5695234
0.022527552
-1.6836062
0.019561876
-1.8063636
0.016534713
-1.938009
0.013486054
-2.0784211
0.010492614
-2.2274859
0.0076235895
-2.38594
0.0049271652
-2.554937
0.0023876411
-2.7341346
0.32372994
-0.60177314
0.62779983
-0.54678575
0.63744406
-0.48403056
0.55823269
-0.41877658
0.42967835
-0.42435047
0.3645522
-0.44408772
0.33730764
-0.4756249
0.31205995
-0.51506619
0.27835759
-0.56091963
0.230772
-0.60862237
0.17056845
-0.65107551
0.11306569
-0.68676081
0.073943599
-0.72018128
0.055847913
-0.75609144
0.052427698
-0.79819319
0.05447338
-0.84836437
0.055775435
-0.90609274
0.054086134
-0.96994751
0.049921799
-1.0386501
0.044646592
-1.1117009
0.039450699
-1.1895528
0.034967735
-1.2731786
0.031286593
-1.3635277
0.02817007
-1.4613904
0.025297849
-1.5673785
0.02242754
-1.6818125
0.019451199
-1.8048464
0.016378665
-1.9366941
0.013287692
-2.0772052
0.010276111
-2.2262413
0.0074204766
-2.384502
0.0047676303
-2.5531928
0.0022977349
-2.7322602
0.33450529
-0.62381435
0.60082712
-0.56566242
0.59903603
-0.49923663
0.5253712
-0.44230091
0.41666483
-0.39881619
0.36190619
-0.41586241
0.34391266
-0.44433314
0.32555811
-0.48218861
0.2959251
-0.52670467
0.24897572
-0.57367474
0.18345915
-0.61501827
0.11685228
-0.64784508
0.070613946
-0.67683089
0.049817826
-0.70743808
0.047802706
-0.74428719
0.053280229
-0.789861
0.057710226
-0.84365949
0.057939095
-0.90379029
0.054412548
-0.96855022
0.048896648
-1.0371042
0.043065426
-1.1096545
0.037956291
-1.1871078
0.033881688
-1.2705957
0.030645008
-1.3610833
0.027849216
-1.4593008
0.025135896
-1.5657057
0.022297583
-1.68051
0.019284624
-1.8038184
0.016158751
-1.9358153
0.01303105
-2.0763833
0.010014211
-2.2253489
0.0071868525
-2.3833137
0.0045910478
-2.5516899
0.0022012158
-2.7306258
0.33851431
-0.64378669
0.56890493
-0.58273908
0.55578891
-0.51326189
0.488474
-0.45344774
0.39590327
-0.41411603
0.35789806
-0.3893374
0.34875805
-0.41478979
0.33869116
-0.45097565
0.3136896
-0.49439255
0.26818582
-0.54087235
0.19746761
-0.58157803
0.1204112
-0.61193498
0.065635673
-0.63670855
0.041331719
-0.66207808
0.040832085
-0.69366828
0.050523866
-0.73475265
0.059012776
-0.78490318
0.061823592
-0.84174341
0.059298237
-0.90311234
0.053613188
-0.96779898
0.047010343
-1.0357352
0.041042997
-1.1076701
0.036356784
-1.1847337
0.03286394
-1.2681647
0.03010769
-1.3589478
0.027594853
-1.4576242
0.02498416
-1.5644963
0.022133201
-1.6796845
0.019060588
-1.803225
0.015877458
-1.9353412
0.012721325
-2.0759128
0.0097129683
-2.224725
0.0069281279
-2.382346
0.0044012108
-2.5503779
0.0020999364
-2.7292597
0.33724693
-0.66171395
0.53195438
-0.59766878
0.50790442
-0.52569463
0.44773281
-0.46362266
0.37212494
-0.42219357
0.34703261
-0.39743017
0.352498
-0.38756467
0.35137536
-0.42141089
0.33183919
-0.46390774
0.28848155
-0.51002066
0.21287642
-0.55053806
0.12391285
-0.57878767
0.059004033
-0.59956395
0.030224943
-0.61976584
0.031257027
-0.64606833
0.046033734
-0.68274081
0.05962961
-0.72947411
0.065796256
-0.78342479
0.064712415
-0.84193521
0.058979271
-0.90337348
0.051471868
-0.96733226
0.044369108
-1.0343903
0.038779428
-1.1056161
0.034819556
-1.1823472
0.032009296
-1.2659146
0.029709283
-1.357145
0.02740925
-1.456373
0.024834188
-1.5637503
0.021927452
-1.679296
0.018777406
-1.8030366
0.015537782
-1.935216
0.012364158
-2.0757371
0.009378545
-2.2243216
0.0066494834
-2.3815422
0.0042016573
-2.5492876
0.0019955408
-2.7281322
0.32988707
-0.67660806
0.48946304
-0.61004253
0.45502625
-0.53562988
0.4030137
-0.47208273
0.34508535
-0.42906908
0.33477394
-0.40402986
0.3500279
-0.38917369
0.36352579
-0.39406412
0.35041208
-0.43508492
0.3096565
-0.48075801
0.22972513
-0.52146551
0.12750151
-0.54816361
0.050740418
-0.56518085
0.016357295
-0.58027244
0.018829314
-0.60125175
0.03963613
-0.63355847
0.05951881
-0.67708832
0.069925764
-0.72849702
0.070793171
-0.78463525
0.06519159
-0.84343929
0.056665894
-0.90406574
0.048116297
-0.96684308
0.04125594
-1.0328142
0.036532401
-1.1033305
0.033503897
-1.1799258
0.031384882
-1.2638652
0.029461395
-1.3557101
0.027281266
-1.4555672
0.024672479
-1.5634459
0.021672558
-1.6793169
0.01843409
-1.8032022
0.015143594
-1.9354014
0.011965594
-2.0757932
0.009017028
-2.2240673
0.0063558349
-2.380889
0.0039955881
-2.5483687
0.0018894927
-2.7272566
0.31648472
-0.68796786
0.44003456
-0.61798856
0.39593712
-0.54179774
0.3534999
-0.47723912
0.31452196
-0.43397351
0.32099455
-0.40930743
0.34800373
-0.39615934
0.36985553
-0.3896233
0.36926802
-0.40832547
0.33119432
-0.45260563
0.24731345
-0.49326343
0.13091631
-0.51922416
0.040807563
-0.5332579
-0.00036538561
-0.54342626
0.0033163376
-0.55900831
0.031166341
-0.58697995
0.058655724
-0.62749645
0.074277109
-0.67666787
0.077675899
-0.73084919
0.072448248
-0.78757366
0.062828761
-0.84551824
0.052502612
-0.90461944
0.043931863
-0.96582714
0.038053584
-1.0306339
0.034558373
-1.1006993
0.032531002
-1.1775247
0.031022027
-1.2621003
0.029353127
-1.3546933
0.027190006
-1.4552101
0.024482986
-1.563565
0.021361329
-1.6797064
0.018031006
-1.8036903
0.014699677
-1.9358333
0.011531955
-2.0760167
0.0086343608
-2.2239307
0.006051718
-2.3803391
0.0037858735
-2.5476395
0.0017830451
-2.7265913
0.29668762
-0.69492906
0.38312694
-0.62186017
0.33062342
-0.54352999
0.29802122
-0.47746674
0.27990765
-0.43505359
0.30570509
-0.41262957
0.3464068
-0.40180673
0.3771438
-0.39750849
0.38403755
-0.39960993
0.35263338
-0.42601921
0.26467708
-0.46519448
0.13346477
-0.49044776
0.028406861
-0.50219323
-0.020085743
-0.50887495
-0.015510054
-0.51917217
0.020472972
-0.5428112
0.057037645
-0.58049588
0.078924412
-0.62769309
0.085483796
-0.68026159
0.080936712
-0.7353773
0.070205092
-0.79123852
0.057776356
-0.84729129
0.04699128
-0.90426872
0.039466381
-0.96379791
0.035158717
-1.0277722
0.033062813
-1.0978522
0.031967258
-1.17528
0.030915106
-1.2607037
0.029355833
-1.3541281
0.027108674
-1.4552989
0.024249519
-1.5640793
0.02098831
-1.6804385
0.017570083
-1.8044406
0.01421162
-1.936459
0.011069682
-2.0763624
0.0082361708
-2.2238532
0.0057412581
-2.3798813
0.0035750068
-2.5470457
0.00167728
-2.7261362
-0.69705694
0.27065489
0.31902622
-0.62162146
0.25918534
-0.54129271
0.2361503
-0.47283869
0.24067205
-0.43064021
0.28923192
-0.41245937
0.34548016
-0.40574911
0.3855322
-0.40420905
0.40018546
-0.40878001
0.3729579
-0.41605286
0.281081
-0.43793143
0.13451256
-0.4611642
0.011998037
-0.46972467
-0.043594992
-0.47437058
-0.037821676
-0.48144858
0.0074085044
-0.50089056
0.054688059
-0.53591489
0.083953684
-0.5813811
0.094323188
-0.63260961
0.090820207
-0.68650829
0.079034401
-0.74083091
0.06420833
-0.79446336
0.050654342
-0.84780099
0.04088678
-0.90247963
0.035311473
-0.96067954
0.032902683
-1.0243947
0.032169486
-1.0949942
0.031820465
-1.1733324
0.03102817
-1.2597559
0.029429167
-1.354037
0.027008573
-1.4558218
0.023957767
-1.5649694
0.020550396
-1.6814597
0.01705481
-1.8054078
0.013685614
-1.9372264
0.010585133
-2.0767595
0.0078277023
-2.2238006
0.0054281136
-2.3794726
0.0033651507
-2.5466118
0.0015730915
-2.7258513
-0.61802053
0.24920135
-0.69433773
0.23898312
0.18355416
-0.53688063
0.16899294
-0.46535311
0.19676355
-0.4213255
0.27215782
-0.4073854
0.34614911
-0.40713155
0.39539328
-0.40958332
0.41745009
-0.41651344
0.39469262
-0.42651904
0.30214223
-0.43247123
0.13364856
-0.43227864
-0.0086020085
-0.43653817
-0.072298966
-0.43703277
-0.063365769
-0.44401567
-0.0080661678
-0.46103516
0.051662271
-0.49362308
0.089465412
-0.53757241
0.10427947
-0.58768057
0.10222691
-0.64067114
0.089534695
-0.69393816
0.072081704
-0.74576554
0.055175183
-0.79606247
0.042463682
-0.8463757
0.035044319
-0.89912571
0.031981164
-0.95670197
0.031498476
-1.0207897
0.031911694
-1.09233
0.032048531
-1.1718141
0.031303993
-1.2593083
0.029527492
-1.354429
0.026862534
-1.4567681
0.023596595
-1.5661883
0.020047025
-1.6827254
0.016490025
-1.8065379
0.013128209
-1.9380578
0.010084461
-2.0771618
0.0074137155
-2.2237305
0.005115498
-2.3791347
0.0031581094
-2.5462951
0.0014712264
-2.7257335
-0.5322764
0.10689617
-0.61205853
0.17613633
-0.68741634
0.20236614
0.09919318
-0.45834196
0.14931985
-0.41029758
0.25474704
-0.39768155
0.34980383
-0.40500718
0.4075462
-0.41322126
0.43585293
-0.42294401
0.41752833
-0.43523921
0.32442974
-0.44401428
0.14300996
-0.43692108
-0.031756954
-0.40536411
-0.10578495
-0.39936342
-0.091329737
-0.40455452
-0.024916478
-0.42249619
0.048089151
-0.45351068
0.095582773
-0.49616064
0.11541355
-0.54529419
0.11523525
-0.5976057
0.10188948
-0.65023379
0.08168096
-0.70084638
0.060837894
-0.74871688
0.044379185
-0.79517662
0.034406229
-0.84284785
0.030236738
-0.89448687
0.029821944
-0.95222105
0.031021826
-1.0172566
0.032243317
-1.0900645
0.03257351
-1.1708234
0.031674485
-1.2594061
0.029605598
-1.3553086
0.026647372
-1.4581001
0.023158671
-1.5676944
0.019480073
-1.6841851
0.015881653
-1.807769
0.012546114
-1.9389054
0.0095734296
-2.0775197
0.0069984833
-2.223653
0.0048061404
-2.3788376
0.0029553941
-2.5461209
0.0013722755
-2.7257462
-0.45528549
0.030893882
-0.52857325
0.032470947
-0.60483419
0.1027692
-0.67703643
0.161961
0.10044714
-0.4018576
0.2369552
-0.38622877
0.35734205
-0.39915681
0.4233086
-0.41467464
0.45564554
-0.4278925
0.44124446
-0.44244046
0.34769719
-0.45356546
0.15270383
-0.44864851
-0.046020108
-0.41885105
-0.14174881
-0.36597833
-0.12119706
-0.36527428
-0.041047064
-0.38401891
0.044729938
-0.41545937
0.10244797
-0.4570533
0.12776605
-0.50532533
0.12986814
-0.55708074
0.11622659
-0.60940533
0.093279397
-0.65937045
0.067954195
-0.70544645
0.046848478
-0.74857613
0.033467085
-0.79155067
0.027614704
-0.83751768
0.027005361
-0.88901745
0.028975703
-0.94763869
0.031425666
-1.0140606
0.033060638
-1.0883577
0.033297611
-1.1704492
0.032069599
-1.2600706
0.029622906
-1.3566495
0.026345252
-1.4597787
0.022640594
-1.5694376
0.018853584
-1.6857886
0.015236386
-1.8090489
0.011945921
-1.9397124
0.0090573781
-2.0778281
0.0065857262
-2.2235467
0.0045023623
-2.3786284
0.002758208
-2.5460434
0.0012767045
-2.7258846
-0.39925392
0.05201893
-0.45578645
-0.0332504
-0.52633899
-0.036992026
-0.59705261
0.031999305
-0.66425625
0.11937745
0.21863818
-0.37722977
0.36820465
-0.39100475
0.44390787
-0.41363499
0.47733415
-0.4311663
0.46549728
-0.44782222
0.37112897
-0.46079984
0.16176996
-0.45744398
-0.059510898
-0.43125202
-0.17607361
-0.38108356
-0.15274945
-0.33048373
-0.055985607
-0.34619265
0.043239958
-0.37910676
0.11030903
-0.42024005
0.14134682
-0.46765392
0.1460867
-0.51891153
0.13261498
-0.5711631
0.10712104
-0.62099682
0.076856684
-0.66593705
0.050120825
-0.70628153
0.032318442
-0.74493848
0.02406565
-0.78549326
0.022910499
-0.83092117
0.025591058
-0.88318582
0.029398105
-0.94330776
0.032573497
-1.0114544
0.03422682
-1.0873364
0.034117383
-1.1707346
0.032424482
-1.2612941
0.029546099
-1.3584162
0.02594428
-1.4617545
0.022042693
-1.5713719
0.018173361
-1.6874852
0.014561335
-1.8103164
0.011334015
-1.94046
0.0085411016
-2.0780609
0.0061786673
-2.2234506
0.0042060453
-2.3784745
0.0025675093
-2.5460875
0.0011848494
-2.7261224
-0.37313868
0.19885549
-0.40084927
0.0046709225
-0.45922583
-0.091771061
-0.5253821
-0.099659817
-0.58916037
-0.03388544
-0.65004016
0.076223575
0.38007381
-0.38299497
0.46949289
-0.41044677
0.50150273
-0.43253643
0.48998282
-0.45123271
0.39385842
-0.46536592
0.16917762
-0.46290745
-0.073193045
-0.43976782
-0.21022788
-0.39354739
-0.19293405
-0.33695314
-0.07083512
-0.31175815
0.044589295
-0.3443529
0.11976455
-0.38570594
0.15612305
-0.43222952
0.1637748
-0.48290409
0.15104169
-0.53524185
0.12341638
-0.58540231
0.087897218
-0.62986784
0.054477037
-0.66801032
0.031071507
-0.70272385
0.019543093
-0.73809585
0.017393259
-0.77763291
0.020678729
-0.82368052
0.025955624
-0.87752108
0.030909513
-0.93958822
0.034277111
-1.0096142
0.035593947
-1.0870874
0.034934738
-1.1716935
0.032683773
-1.2630433
0.029350428
-1.3605602
0.025438456
-1.4639813
0.021368537
-1.5734435
0.0174465
-1.6892086
0.013863832
-1.8115402
0.010716354
-1.9411104
0.0080288715
-2.0782276
0.0057800077
-2.2233565
0.0039187288
-2.3784131
0.0023840114
-2.5462157
0.0010969542
-2.7264556
-0.37684207
0.38989307
-0.3737888
0.17813696
-0.40580609
-0.041179579
-0.46433123
-0.14428062
-0.52520731
-0.15464055
-0.5812858
-0.093433185
-0.63520112
0.033900394
0.49855287
-0.4058926
0.52845697
-0.43206986
0.51464414
-0.45269021
0.41509518
-0.46719004
0.17463136
-0.46542353
-0.087554204
-0.44446911
-0.24351485
-0.40283139
-0.23517606
-0.34724169
-0.10374457
-0.30019585
0.048123786
-0.31232211
0.13139929
-0.35333447
0.17203194
-0.39900825
0.18276857
-0.44895913
0.17141379
-0.5013679
0.14230663
-0.55225307
0.10143864
-0.59692867
0.060237373
-0.6334837
0.029859201
-0.66464589
0.01399754
-0.6950356
0.010298494
-0.72882988
0.014041595
-0.76881055
0.020888827
-0.8164777
0.02786038
-0.87246783
0.033253386
-0.93673412
0.036329718
-1.0086779
0.037019438
-1.0876419
0.035664042
-1.1733045
0.032804196
-1.2652773
0.029019993
-1.3630334
0.024827158
-1.4664004
0.020624342
-1.5755925
0.016681032
-1.6909229
0.013151088
-1.8126839
0.010098454
-1.9416567
0.0075244006
-2.0783401
0.0053919882
-2.2233005
0.0036415903
-2.3784075
0.0022082638
-2.5464465
0.0010131816
-2.7268636
-0.40074282
0.52863364
-0.3741713
0.39639895
-0.37741526
0.15608334
-0.41308252
-0.084886024
-0.47042632
-0.19057164
-0.52527278
-0.20171207
-0.57349163
-0.14594132
-0.62030573
-0.0065529385
0.55791918
-0.42996668
0.53936242
-0.45220244
0.43415974
-0.46640253
0.17793944
-0.46502393
-0.10279113
-0.44603452
-0.27545662
-0.40879393
-0.27747184
-0.35636851
-0.14207574
-0.30496315
0.033813475
-0.28295873
0.14578468
-0.32424106
0.18896815
-0.36783419
0.20281194
-0.41694481
0.19358549
-0.46938974
0.16389991
-0.52124189
0.11784834
-0.56678973
0.067748467
-0.6024202
0.028824105
-0.63043806
0.0073850948
-0.65605394
0.0014619285
-0.68419303
0.0054728076
-0.71822096
0.013986816
-0.7598756
0.023218207
-0.80988636
0.030957063
-0.86837542
0.03614579
-0.93492614
0.038530393
-1.0087034
0.038377069
-1.0890039
0.03623613
-1.1755324
0.032755171
-1.2679416
0.028547224
-1.3657718
0.024114371
-1.4689542
0.019818376
-1.5777746
0.015885433
-1.69259
0.012430065
-1.8137314
0.0094852721
-1.9421127
0.0070308372
-2.078422
0.0050164077
-2.2232699
0.0033755639
-2.3784985
0.0020406518
-2.5467422
0.0009336452
-2.7273398
-0.42668482
0.58929768
-0.39548193
0.55614381
-0.37559804
0.4007079
-0.38335314
0.13267033
-0.42212772
-0.12567581
-0.4769204
-0.23048498
-0.52529174
-0.24100206
-0.56595406
-0.19109845
-0.60588721
-0.044472816
0.56402286
-0.4499745
0.45039095
-0.46302907
0.17886531
-0.4617956
-0.1188704
-0.44472608
-0.30601393
-0.41167467
-0.31837418
-0.36364687
-0.18419223
-0.31023077
0.015040446
-0.28318939
0.14754568
-0.28229715
0.20726923
-0.34026999
0.22364604
-0.38670481
0.21736973
-0.43913427
0.18824919
-0.49216229
0.13755714
-0.53920797
0.077440982
-0.57457525
0.028139733
-0.59985169
-0.00033821944
-0.6208841
-0.0092996947
-0.64343694
-0.0052417111
-0.67158204
0.0050413715
-0.70736252
0.016782195
-0.7515543
0.027193837
-0.80434509
0.034860973
-0.86549707
0.039310346
-0.93427815
0.040699733
-1.0097158
0.039562837
-1.0911343
0.03659979
-1.1783178
0.032518519
-1.2709678
0.027931931
-1.3687125
0.023307835
-1.4715904
0.018960283
-1.5799481
0.015068338
-1.6941872
0.011707283
-1.8146889
0.0088811679
-1.9424896
0.0065508343
-2.0785049
0.004654723
-2.2233037
0.0031213208
-2.3786488
0.0018814133
-2.5471218
0.00085836732
-2.72787
-0.44633806
0.58838334
-0.42094406
0.62023866
-0.39445721
0.58122417
-0.3793924
0.4028693
-0.39169676
0.10852001
-0.43249637
-0.16262944
-0.48346661
-0.26392133
-0.52516059
-0.27291703
-0.55878906
-0.22900912
-0.59245358
-0.07883333
0.46320922
-0.45735568
0.17725891
-0.45585153
-0.13560324
-0.44078837
-0.33507758
-0.41180519
-0.35667473
-0.36907551
-0.22780457
-0.31595644
-0.0088944347
-0.28323778
0.15070683
-0.28385238
0.21545938
-0.28826713
0.24529922
-0.36009517
0.24265959
-0.41052515
0.21530124
-0.46473523
0.16089832
-0.51387714
0.089866808
-0.54982953
0.028102518
-0.57276824
-0.009236837
-0.58925805
-0.022247956
-0.60621739
-0.0183557
-0.62856088
-0.0061527729
-0.65859916
0.0083666998
-0.69714957
0.021782684
-0.74439607
0.032299969
-0.80019015
0.039199666
-0.86398987
0.042499751
-0.9348257
0.042688385
-1.0116815
0.04049755
-1.0939788
0.036721443
-1.1815847
0.032087172
-1.2742816
0.027180111
-1.3717937
0.022418073
-1.4742617
0.018060559
-1.58208
0.014238195
-1.6957067
0.010988685
-1.8155579
0.0082899417
-1.9428429
0.0060865714
-2.0786022
0.0043080588
-2.2233872
0.0028793305
-2.3788845
0.0017305382
-2.5475553
0.00078721011
-2.7284512
-0.4498383
0.47216036
-0.43974756
0.61193698
-0.41750535
0.6488016
-0.39566237
0.6037357
-0.38551802
0.40280028
-0.40287852
0.085130289
-0.44371366
-0.19495411
-0.48968462
-0.29105618
-0.52482894
-0.29803004
-0.55236698
-0.2599157
-0.58023084
-0.10930247
0.17294869
-0.44745741
-0.15267405
-0.43446423
-0.36234322
-0.40962355
-0.39150814
-0.37264199
-0.27114546
-0.3216157
-0.037221185
-0.28452039
0.15261494
-0.28258429
0.22792476
-0.29402837
0.25729762
-0.29849167
0.26911144
-0.38518499
0.2446667
-0.43855032
0.18752063
-0.48983776
0.10513585
-0.52743694
0.029042386
-0.54910354
-0.019209203
-0.56122566