/*--------------------------------*- C++ -*----------------------------------*\
| =========                 |                                                 |
| \\      /  F ield         | OpenFOAM: The Open Source CFD Toolbox           |
|  \\    /   O peration     | Version:  v2012                                 |
|   \\  /    A nd           | Website:  www.openfoam.com                      |
|    \\/     M anipulation  |                                                 |
\*---------------------------------------------------------------------------*/
FoamFile
{
    version     2.0;
    format      ascii;
    class       pointVectorField;
    location    "57.8900752049272498";
    object      pointDisplacement;
}
// * * * * * * * * * * * * * * * * * * * * * * * * * * * * * * * * * * * * * //

dimensions      [0 1 0 0 0 0 0];


internalField   nonuniform List<vector> 
18840
(
(1.5885248 0 0)
(1.5883542 0 0)
(1.5878473 0 0)
(1.5870133 0 0)
(1.5858591 0 0)
(1.58439 0 0)
(1.5826096 0 0)
(1.5805207 0 0)
(1.5781248 0 0)
(1.5754226 0 0)
(1.5724141 0 0)
(1.5690985 0 0)
(1.5654744 0 0)
(1.5615403 0 0)
(1.5572936 0 0)
(1.5527317 0 0)
(1.5478518 0 0)
(1.5426509 0 0)
(1.5371259 0 0)
(1.5312796 0 0)
(1.5238878 0 0)
(1.5885248 0 0)
(1.5883541 0 0)
(1.5878468 0 0)
(1.5870119 0 0)
(1.5858562 0 0)
(1.584385 0 0)
(1.5826018 0 0)
(1.5805093 0 0)
(1.5781091 0 0)
(1.575402 0 0)
(1.5723878 0 0)
(1.5690661 0 0)
(1.5654355 0 0)
(1.5614945 0 0)
(1.5572407 0 0)
(1.5526718 0 0)
(1.5477848 0 0)
(1.542577 0 0)
(1.537045 0 0)
(1.5311884 0 0)
(1.5249989 0 0)
(1.5885248 0 0)
(1.5883537 0 0)
(1.5878453 0 0)
(1.5870083 0 0)
(1.5858496 0 0)
(1.5843742 0 0)
(1.5825858 0 0)
(1.5804869 0 0)
(1.5780793 0 0)
(1.5753637 0 0)
(1.5723401 0 0)
(1.5690081 0 0)
(1.5653664 0 0)
(1.5614136 0 0)
(1.5571475 0 0)
(1.5525658 0 0)
(1.5476657 0 0)
(1.5424443 0 0)
(1.536898 0 0)
(1.5310231 0 0)
(1.5247263 0 0)
(1.5885248 0 0)
(1.5883535 0 0)
(1.5878442 0 0)
(1.5870055 0 0)
(1.5858442 0 0)
(1.5843652 0 0)
(1.582572 0 0)
(1.5804674 0 0)
(1.5780529 0 0)
(1.5753295 0 0)
(1.572297 0 0)
(1.5689553 0 0)
(1.5653031 0 0)
(1.5613391 0 0)
(1.5570612 0 0)
(1.5524674 0 0)
(1.547555 0 0)
(1.542321 0 0)
(1.5367624 0 0)
(1.5308763 0 0)
(1.5244954 0 0)
(1.5885248 0 0)
(1.5883533 0 0)
(1.5878433 0 0)
(1.5870033 0 0)
(1.5858398 0 0)
(1.5843575 0 0)
(1.5825602 0 0)
(1.5804502 0 0)
(1.5780293 0 0)
(1.5752984 0 0)
(1.5722574 0 0)
(1.5689062 0 0)
(1.5652438 0 0)
(1.5612687 0 0)
(1.5569792 0 0)
(1.5523734 0 0)
(1.5474486 0 0)
(1.5422025 0 0)
(1.5366321 0 0)
(1.5307354 0 0)
(1.5242788 0 0)
(1.5885248 0 0)
(1.5883532 0 0)
(1.5878428 0 0)
(1.5870016 0 0)
(1.5858362 0 0)
(1.5843511 0 0)
(1.5825498 0 0)
(1.5804349 0 0)
(1.5780078 0 0)
(1.5752695 0 0)
(1.5722203 0 0)
(1.5688596 0 0)
(1.5651867 0 0)
(1.5612004 0 0)
(1.5568989 0 0)
(1.5522805 0 0)
(1.5473428 0 0)
(1.5420835 0 0)
(1.5365002 0 0)
(1.5305913 0 0)
(1.5240655 0 0)
(1.5885248 0 0)
(1.5883532 0 0)
(1.5878425 0 0)
(1.5870005 0 0)
(1.5858334 0 0)
(1.5843457 0 0)
(1.5825408 0 0)
(1.580421 0 0)
(1.5779879 0 0)
(1.5752424 0 0)
(1.5721846 0 0)
(1.5688143 0 0)
(1.5651305 0 0)
(1.5611323 0 0)
(1.5568179 0 0)
(1.5521857 0 0)
(1.5472336 0 0)
(1.5419594 0 0)
(1.5363608 0 0)
(1.5304365 0 0)
(1.5238473 0 0)
(1.5885248 0 0)
(1.5883532 0 0)
(1.5878424 0 0)
(1.5869998 0 0)
(1.5858312 0 0)
(1.5843412 0 0)
(1.5825327 0 0)
(1.5804083 0 0)
(1.5779692 0 0)
(1.5752164 0 0)
(1.5721499 0 0)
(1.5687694 0 0)
(1.5650741 0 0)
(1.5610631 0 0)
(1.5567346 0 0)
(1.552087 0 0)
(1.5471184 0 0)
(1.5418267 0 0)
(1.5362097 0 0)
(1.530266 0 0)
(1.5236186 0 0)
(1.5885248 0 0)
(1.5883532 0 0)
(1.5878424 0 0)
(1.5869993 0 0)
(1.5858295 0 0)
(1.5843373 0 0)
(1.5825256 0 0)
(1.5803966 0 0)
(1.5779516 0 0)
(1.5751913 0 0)
(1.5721158 0 0)
(1.5687247 0 0)
(1.5650172 0 0)
(1.5609922 0 0)
(1.5566482 0 0)
(1.5519834 0 0)
(1.5469959 0 0)
(1.5416837 0 0)
(1.5360446 0 0)
(1.5300772 0 0)
(1.5233767 0 0)
(1.5885248 0 0)
(1.5883534 0 0)
(1.5878426 0 0)
(1.5869992 0 0)
(1.5858283 0 0)
(1.584334 0 0)
(1.5825191 0 0)
(1.5803856 0 0)
(1.5779348 0 0)
(1.5751669 0 0)
(1.5720822 0 0)
(1.56868 0 0)
(1.5649595 0 0)
(1.5609194 0 0)
(1.5565583 0 0)
(1.5518744 0 0)
(1.5468655 0 0)
(1.5415298 0 0)
(1.5358649 0 0)
(1.529869 0 0)
(1.5231206 0 0)
(1.5885248 0 0)
(1.5883531 0 0)
(1.5878416 0 0)
(1.5869963 0 0)
(1.5858224 0 0)
(1.5843235 0 0)
(1.5825025 0 0)
(1.580361 0 0)
(1.5779002 0 0)
(1.5751202 0 0)
(1.5720211 0 0)
(1.5686021 0 0)
(1.5648623 0 0)
(1.5608002 0 0)
(1.5564143 0 0)
(1.5517026 0 0)
(1.5466632 0 0)
(1.5412937 0 0)
(1.5355919 0 0)
(1.5295553 0 0)
(1.5227592 0 0)
(1.5885248 0 0)
(1.5883542 0 0)
(1.5878473 0 0)
(1.5870133 0 0)
(1.5858591 0 0)
(1.58439 0 0)
(1.5826096 0 0)
(1.5805207 0 0)
(1.5781248 0 0)
(1.5754226 0 0)
(1.5724141 0 0)
(1.5690985 0 0)
(1.5654744 0 0)
(1.5615403 0 0)
(1.5572936 0 0)
(1.5527317 0 0)
(1.5478518 0 0)
(1.5426509 0 0)
(1.5371259 0 0)
(1.5312796 0 0)
(1.5238878 0 0)
(1.5885248 0 0)
(1.5883541 0 0)
(1.5878468 0 0)
(1.5870119 0 0)
(1.5858562 0 0)
(1.584385 0 0)
(1.5826018 0 0)
(1.5805093 0 0)
(1.5781091 0 0)
(1.575402 0 0)
(1.5723878 0 0)
(1.5690661 0 0)
(1.5654355 0 0)
(1.5614945 0 0)
(1.5572407 0 0)
(1.5526718 0 0)
(1.5477848 0 0)
(1.542577 0 0)
(1.537045 0 0)
(1.5311884 0 0)
(1.5249989 0 0)
(1.5885248 0 0)
(1.5883537 0 0)
(1.5878453 0 0)
(1.5870083 0 0)
(1.5858496 0 0)
(1.5843742 0 0)
(1.5825858 0 0)
(1.5804869 0 0)
(1.5780793 0 0)
(1.5753637 0 0)
(1.5723401 0 0)
(1.5690081 0 0)
(1.5653664 0 0)
(1.5614136 0 0)
(1.5571475 0 0)
(1.5525658 0 0)
(1.5476657 0 0)
(1.5424443 0 0)
(1.536898 0 0)
(1.5310231 0 0)
(1.5247263 0 0)
(1.5885248 0 0)
(1.5883535 0 0)
(1.5878442 0 0)
(1.5870055 0 0)
(1.5858442 0 0)
(1.5843652 0 0)
(1.582572 0 0)
(1.5804674 0 0)
(1.5780529 0 0)
(1.5753295 0 0)
(1.572297 0 0)
(1.5689553 0 0)
(1.5653031 0 0)
(1.5613391 0 0)
(1.5570612 0 0)
(1.5524674 0 0)
(1.547555 0 0)
(1.542321 0 0)
(1.5367624 0 0)
(1.5308763 0 0)
(1.5244954 0 0)
(1.5885248 0 0)
(1.5883533 0 0)
(1.5878433 0 0)
(1.5870033 0 0)
(1.5858398 0 0)
(1.5843575 0 0)
(1.5825602 0 0)
(1.5804502 0 0)
(1.5780293 0 0)
(1.5752984 0 0)
(1.5722574 0 0)
(1.5689062 0 0)
(1.5652438 0 0)
(1.5612687 0 0)
(1.5569792 0 0)
(1.5523734 0 0)
(1.5474486 0 0)
(1.5422025 0 0)
(1.5366321 0 0)
(1.5307354 0 0)
(1.5242788 0 0)
(1.5885248 0 0)
(1.5883532 0 0)
(1.5878428 0 0)
(1.5870016 0 0)
(1.5858362 0 0)
(1.5843511 0 0)
(1.5825498 0 0)
(1.5804349 0 0)
(1.5780078 0 0)
(1.5752695 0 0)
(1.5722203 0 0)
(1.5688596 0 0)
(1.5651867 0 0)
(1.5612004 0 0)
(1.5568989 0 0)
(1.5522805 0 0)
(1.5473428 0 0)
(1.5420835 0 0)
(1.5365002 0 0)
(1.5305913 0 0)
(1.5240655 0 0)
(1.5885248 0 0)
(1.5883532 0 0)
(1.5878425 0 0)
(1.5870005 0 0)
(1.5858334 0 0)
(1.5843457 0 0)
(1.5825408 0 0)
(1.580421 0 0)
(1.5779879 0 0)
(1.5752424 0 0)
(1.5721846 0 0)
(1.5688143 0 0)
(1.5651305 0 0)
(1.5611323 0 0)
(1.5568179 0 0)
(1.5521857 0 0)
(1.5472336 0 0)
(1.5419594 0 0)
(1.5363608 0 0)
(1.5304365 0 0)
(1.5238473 0 0)
(1.5885248 0 0)
(1.5883532 0 0)
(1.5878424 0 0)
(1.5869998 0 0)
(1.5858312 0 0)
(1.5843412 0 0)
(1.5825327 0 0)
(1.5804083 0 0)
(1.5779692 0 0)
(1.5752164 0 0)
(1.5721499 0 0)
(1.5687694 0 0)
(1.5650741 0 0)
(1.5610631 0 0)
(1.5567346 0 0)
(1.552087 0 0)
(1.5471184 0 0)
(1.5418267 0 0)
(1.5362097 0 0)
(1.530266 0 0)
(1.5236186 0 0)
(1.5885248 0 0)
(1.5883532 0 0)
(1.5878424 0 0)
(1.5869993 0 0)
(1.5858295 0 0)
(1.5843373 0 0)
(1.5825256 0 0)
(1.5803966 0 0)
(1.5779516 0 0)
(1.5751913 0 0)
(1.5721158 0 0)
(1.5687247 0 0)
(1.5650172 0 0)
(1.5609922 0 0)
(1.5566482 0 0)
(1.5519834 0 0)
(1.5469959 0 0)
(1.5416837 0 0)
(1.5360446 0 0)
(1.5300772 0 0)
(1.5233767 0 0)
(1.5885248 0 0)
(1.5883534 0 0)
(1.5878426 0 0)
(1.5869992 0 0)
(1.5858283 0 0)
(1.584334 0 0)
(1.5825191 0 0)
(1.5803856 0 0)
(1.5779348 0 0)
(1.5751669 0 0)
(1.5720822 0 0)
(1.56868 0 0)
(1.5649595 0 0)
(1.5609194 0 0)
(1.5565583 0 0)
(1.5518744 0 0)
(1.5468655 0 0)
(1.5415298 0 0)
(1.5358649 0 0)
(1.529869 0 0)
(1.5231206 0 0)
(1.5885248 0 0)
(1.5883531 0 0)
(1.5878416 0 0)
(1.5869963 0 0)
(1.5858224 0 0)
(1.5843235 0 0)
(1.5825025 0 0)
(1.580361 0 0)
(1.5779002 0 0)
(1.5751202 0 0)
(1.5720211 0 0)
(1.5686021 0 0)
(1.5648623 0 0)
(1.5608002 0 0)
(1.5564143 0 0)
(1.5517026 0 0)
(1.5466632 0 0)
(1.5412937 0 0)
(1.5355919 0 0)
(1.5295553 0 0)
(1.5227592 0 0)
(1.5885248 0 0)
(1.5883519 0 0)
(1.587839 0 0)
(1.586996 0 0)
(1.5858308 0 0)
(1.5843492 0 0)
(1.5825556 0 0)
(1.5804528 0 0)
(1.5780427 0 0)
(1.575326 0 0)
(1.5723025 0 0)
(1.5689713 0 0)
(1.5653311 0 0)
(1.5613794 0 0)
(1.5571137 0 0)
(1.5525308 0 0)
(1.5476269 0 0)
(1.5423979 0 0)
(1.5368394 0 0)
(1.5309524 0 0)
(1.5241957 0 0)
(1.5885248 0 0)
(1.5883519 0 0)
(1.587839 0 0)
(1.5869961 0 0)
(1.5858309 0 0)
(1.5843494 0 0)
(1.582556 0 0)
(1.5804534 0 0)
(1.5780436 0 0)
(1.5753272 0 0)
(1.5723041 0 0)
(1.5689733 0 0)
(1.5653334 0 0)
(1.5613822 0 0)
(1.5571169 0 0)
(1.5525341 0 0)
(1.5476303 0 0)
(1.5424012 0 0)
(1.5368423 0 0)
(1.5309546 0 0)
(1.5242026 0 0)
(1.5885248 0 0)
(1.5883517 0 0)
(1.5878382 0 0)
(1.5869943 0 0)
(1.5858278 0 0)
(1.5843448 0 0)
(1.5825496 0 0)
(1.580445 0 0)
(1.5780328 0 0)
(1.5753138 0 0)
(1.5722879 0 0)
(1.5689541 0 0)
(1.565311 0 0)
(1.5613562 0 0)
(1.5570872 0 0)
(1.5525004 0 0)
(1.5475923 0 0)
(1.5423584 0 0)
(1.5367943 0 0)
(1.5309007 0 0)
(1.524162 0 0)
(1.5885248 0 0)
(1.5883516 0 0)
(1.5878379 0 0)
(1.5869936 0 0)
(1.5858267 0 0)
(1.5843431 0 0)
(1.5825471 0 0)
(1.5804417 0 0)
(1.5780285 0 0)
(1.5753083 0 0)
(1.5722811 0 0)
(1.568946 0 0)
(1.5653013 0 0)
(1.5613449 0 0)
(1.557074 0 0)
(1.5524853 0 0)
(1.547575 0 0)
(1.5423387 0 0)
(1.536772 0 0)
(1.530875 0 0)
(1.5241633 0 0)
(1.5885248 0 0)
(1.5883517 0 0)
(1.587838 0 0)
(1.586994 0 0)
(1.5858274 0 0)
(1.5843441 0 0)
(1.5825484 0 0)
(1.5804431 0 0)
(1.5780301 0 0)
(1.5753101 0 0)
(1.572283 0 0)
(1.5689479 0 0)
(1.5653032 0 0)
(1.5613469 0 0)
(1.5570759 0 0)
(1.5524871 0 0)
(1.5475766 0 0)
(1.5423402 0 0)
(1.5367731 0 0)
(1.5308749 0 0)
(1.5242039 0 0)
(1.5885248 0 0)
(1.5883519 0 0)
(1.5878387 0 0)
(1.5869953 0 0)
(1.5858297 0 0)
(1.5843475 0 0)
(1.5825529 0 0)
(1.5804488 0 0)
(1.578037 0 0)
(1.5753182 0 0)
(1.5722923 0 0)
(1.5689586 0 0)
(1.5653152 0 0)
(1.5613602 0 0)
(1.5570906 0 0)
(1.5525033 0 0)
(1.5475943 0 0)
(1.5423595 0 0)
(1.536794 0 0)
(1.5308967 0 0)
(1.5242797 0 0)
(1.5885248 0 0)
(1.5883522 0 0)
(1.5878398 0 0)
(1.5869976 0 0)
(1.5858335 0 0)
(1.584353 0 0)
(1.5825603 0 0)
(1.5804582 0 0)
(1.5780484 0 0)
(1.5753318 0 0)
(1.5723081 0 0)
(1.5689766 0 0)
(1.5653355 0 0)
(1.561383 0 0)
(1.5571161 0 0)
(1.5525316 0 0)
(1.5476257 0 0)
(1.5423941 0 0)
(1.5368321 0 0)
(1.5309379 0 0)
(1.5243876 0 0)
(1.5885248 0 0)
(1.5883526 0 0)
(1.5878413 0 0)
(1.5870008 0 0)
(1.5858388 0 0)
(1.5843607 0 0)
(1.5825705 0 0)
(1.5804712 0 0)
(1.5780643 0 0)
(1.5753507 0 0)
(1.5723302 0 0)
(1.569002 0 0)
(1.5653645 0 0)
(1.5614157 0 0)
(1.5571528 0 0)
(1.5525727 0 0)
(1.5476716 0 0)
(1.5424454 0 0)
(1.5368893 0 0)
(1.5310006 0 0)
(1.52453 0 0)
(1.5885248 0 0)
(1.5883531 0 0)
(1.5878433 0 0)
(1.5870049 0 0)
(1.5858455 0 0)
(1.5843705 0 0)
(1.5825837 0 0)
(1.5804879 0 0)
(1.5780849 0 0)
(1.5753753 0 0)
(1.572359 0 0)
(1.5690353 0 0)
(1.5654025 0 0)
(1.5614588 0 0)
(1.5572015 0 0)
(1.5526276 0 0)
(1.5477334 0 0)
(1.5425151 0 0)
(1.5369681 0 0)
(1.5310888 0 0)
(1.5247115 0 0)
(1.5885248 0 0)
(1.5883537 0 0)
(1.5878457 0 0)
(1.5870099 0 0)
(1.5858538 0 0)
(1.5843825 0 0)
(1.5825999 0 0)
(1.5805086 0 0)
(1.5781104 0 0)
(1.5754058 0 0)
(1.5723949 0 0)
(1.5690768 0 0)
(1.5654501 0 0)
(1.5615129 0 0)
(1.5572627 0 0)
(1.5526968 0 0)
(1.5478117 0 0)
(1.5426042 0 0)
(1.5370703 0 0)
(1.5312092 0 0)
(1.5249524 0 0)
(1.5885248 0 0)
(1.5883519 0 0)
(1.587839 0 0)
(1.586996 0 0)
(1.5858308 0 0)
(1.5843492 0 0)
(1.5825556 0 0)
(1.5804528 0 0)
(1.5780427 0 0)
(1.575326 0 0)
(1.5723025 0 0)
(1.5689713 0 0)
(1.5653311 0 0)
(1.5613794 0 0)
(1.5571137 0 0)
(1.5525308 0 0)
(1.5476269 0 0)
(1.5423979 0 0)
(1.5368394 0 0)
(1.5309524 0 0)
(1.5241957 0 0)
(1.5885248 0 0)
(1.5883519 0 0)
(1.587839 0 0)
(1.5869961 0 0)
(1.5858309 0 0)
(1.5843494 0 0)
(1.582556 0 0)
(1.5804534 0 0)
(1.5780436 0 0)
(1.5753272 0 0)
(1.5723041 0 0)
(1.5689733 0 0)
(1.5653334 0 0)
(1.5613822 0 0)
(1.5571169 0 0)
(1.5525341 0 0)
(1.5476303 0 0)
(1.5424012 0 0)
(1.5368423 0 0)
(1.5309546 0 0)
(1.5242026 0 0)
(1.5885248 0 0)
(1.5883517 0 0)
(1.5878382 0 0)
(1.5869943 0 0)
(1.5858278 0 0)
(1.5843448 0 0)
(1.5825496 0 0)
(1.580445 0 0)
(1.5780328 0 0)
(1.5753138 0 0)
(1.5722879 0 0)
(1.5689541 0 0)
(1.565311 0 0)
(1.5613562 0 0)
(1.5570872 0 0)
(1.5525004 0 0)
(1.5475923 0 0)
(1.5423584 0 0)
(1.5367943 0 0)
(1.5309007 0 0)
(1.524162 0 0)
(1.5885248 0 0)
(1.5883516 0 0)
(1.5878379 0 0)
(1.5869936 0 0)
(1.5858267 0 0)
(1.5843431 0 0)
(1.5825471 0 0)
(1.5804417 0 0)
(1.5780285 0 0)
(1.5753083 0 0)
(1.5722811 0 0)
(1.568946 0 0)
(1.5653013 0 0)
(1.5613449 0 0)
(1.557074 0 0)
(1.5524853 0 0)
(1.547575 0 0)
(1.5423387 0 0)
(1.536772 0 0)
(1.530875 0 0)
(1.5241633 0 0)
(1.5885248 0 0)
(1.5883517 0 0)
(1.587838 0 0)
(1.586994 0 0)
(1.5858274 0 0)
(1.5843441 0 0)
(1.5825484 0 0)
(1.5804431 0 0)
(1.5780301 0 0)
(1.5753101 0 0)
(1.572283 0 0)
(1.5689479 0 0)
(1.5653032 0 0)
(1.5613469 0 0)
(1.5570759 0 0)
(1.5524871 0 0)
(1.5475766 0 0)
(1.5423402 0 0)
(1.5367731 0 0)
(1.5308749 0 0)
(1.5242039 0 0)
(1.5885248 0 0)
(1.5883519 0 0)
(1.5878387 0 0)
(1.5869953 0 0)
(1.5858297 0 0)
(1.5843475 0 0)
(1.5825529 0 0)
(1.5804488 0 0)
(1.578037 0 0)
(1.5753182 0 0)
(1.5722923 0 0)
(1.5689586 0 0)
(1.5653152 0 0)
(1.5613602 0 0)
(1.5570906 0 0)
(1.5525033 0 0)
(1.5475943 0 0)
(1.5423595 0 0)
(1.536794 0 0)
(1.5308967 0 0)
(1.5242797 0 0)
(1.5885248 0 0)
(1.5883522 0 0)
(1.5878398 0 0)
(1.5869976 0 0)
(1.5858335 0 0)
(1.584353 0 0)
(1.5825603 0 0)
(1.5804582 0 0)
(1.5780484 0 0)
(1.5753318 0 0)
(1.5723081 0 0)
(1.5689766 0 0)
(1.5653355 0 0)
(1.561383 0 0)
(1.5571161 0 0)
(1.5525316 0 0)
(1.5476257 0 0)
(1.5423941 0 0)
(1.5368321 0 0)
(1.5309379 0 0)
(1.5243876 0 0)
(1.5885248 0 0)
(1.5883526 0 0)
(1.5878413 0 0)
(1.5870008 0 0)
(1.5858388 0 0)
(1.5843607 0 0)
(1.5825705 0 0)
(1.5804712 0 0)
(1.5780643 0 0)
(1.5753507 0 0)
(1.5723302 0 0)
(1.569002 0 0)
(1.5653645 0 0)
(1.5614157 0 0)
(1.5571528 0 0)
(1.5525727 0 0)
(1.5476716 0 0)
(1.5424454 0 0)
(1.5368893 0 0)
(1.5310006 0 0)
(1.52453 0 0)
(1.5885248 0 0)
(1.5883531 0 0)
(1.5878433 0 0)
(1.5870049 0 0)
(1.5858455 0 0)
(1.5843705 0 0)
(1.5825837 0 0)
(1.5804879 0 0)
(1.5780849 0 0)
(1.5753753 0 0)
(1.572359 0 0)
(1.5690353 0 0)
(1.5654025 0 0)
(1.5614588 0 0)
(1.5572015 0 0)
(1.5526276 0 0)
(1.5477334 0 0)
(1.5425151 0 0)
(1.5369681 0 0)
(1.5310888 0 0)
(1.5247115 0 0)
(1.5885248 0 0)
(1.5883537 0 0)
(1.5878457 0 0)
(1.5870099 0 0)
(1.5858538 0 0)
(1.5843825 0 0)
(1.5825999 0 0)
(1.5805086 0 0)
(1.5781104 0 0)
(1.5754058 0 0)
(1.5723949 0 0)
(1.5690768 0 0)
(1.5654501 0 0)
(1.5615129 0 0)
(1.5572627 0 0)
(1.5526968 0 0)
(1.5478117 0 0)
(1.5426042 0 0)
(1.5370703 0 0)
(1.5312092 0 0)
(1.5249524 0 0)
(1.5158733 0 0)
(1.5064861 0 0)
(1.4965718 0 0)
(1.4861247 0 0)
(1.4751457 0 0)
(1.4636355 0 0)
(1.4515946 0 0)
(1.439024 0 0)
(1.4259249 0 0)
(1.4122961 0 0)
(1.3981336 0 0)
(1.3834329 0 0)
(1.3681894 0 0)
(1.3523952 0 0)
(1.3360393 0 0)
(1.3191102 0 0)
(1.301597 0 0)
(1.2834835 0 0)
(1.2647441 0 0)
(1.2453551 0 0)
(1.2252883 0 0)
(1.2045095 0 0)
(1.1829834 0 0)
(1.1606728 0 0)
(1.1375293 0 0)
(1.1135016 0 0)
(1.0885423 0 0)
(1.0625972 0 0)
(1.0355968 0 0)
(1.0074613 0 0)
(0.97812441 0 0)
(0.94750434 0 0)
(0.9154891 0 0)
(0.88194546 0 0)
(0.84677125 0 0)
(0.80990951 0 0)
(0.77122759 0 0)
(0.73050648 0 0)
(0.68757545 0 0)
(0.64234683 0 0)
(0.59459972 0 0)
(0.5440024 0 0)
(0.49029849 0 0)
(0.43322982 0 0)
(0.37249193 0 0)
(0.30773165 0 0)
(0.23856475 0 0)
(0.16454663 0 0)
(0.085116714 0 0)
(0 0 0)
(1.5158975 0 0)
(1.5065331 0 0)
(1.4966397 0 0)
(1.4862113 0 0)
(1.4752487 0 0)
(1.4637524 0 0)
(1.4517231 0 0)
(1.4391617 0 0)
(1.4260688 0 0)
(1.412443 0 0)
(1.3982811 0 0)
(1.3835794 0 0)
(1.3683336 0 0)
(1.3525359 0 0)
(1.3361759 0 0)
(1.3192426 0 0)
(1.3017246 0 0)
(1.2836052 0 0)
(1.2648604 0 0)
(1.2454671 0 0)
(1.2253962 0 0)
(1.2046125 0 0)
(1.1830813 0 0)
(1.1607658 0 0)
(1.1376178 0 0)
(1.1135852 0 0)
(1.0886205 0 0)
(1.0626702 0 0)
(1.0356639 0 0)
(1.0075238 0 0)
(0.97818296 0 0)
(0.94755878 0 0)
(0.91553932 0 0)
(0.88199163 0 0)
(0.84681332 0 0)
(0.80994837 0 0)
(0.77126539 0 0)
(0.73054452 0 0)
(0.68761324 0 0)
(0.64238437 0 0)
(0.594638 0 0)
(0.54404159 0 0)
(0.49033882 0 0)
(0.43327078 0 0)
(0.37253183 0 0)
(0.3077657 0 0)
(0.23858808 0 0)
(0.16455955 0 0)
(0.085122129 0 0)
(0 0 0)
(1.5159088 0 0)
(1.5066126 0 0)
(1.4967829 0 0)
(1.4864135 0 0)
(1.475505 0 0)
(1.4640577 0 0)
(1.4520723 0 0)
(1.4395496 0 0)
(1.42649 0 0)
(1.4128922 0 0)
(1.3987537 0 0)
(1.3840717 0 0)
(1.3688419 0 0)
(1.3530571 0 0)
(1.3367075 0 0)
(1.3197826 0 0)
(1.3022706 0 0)
(1.2841547 0 0)
(1.2654122 0 0)
(1.2460205 0 0)
(1.2259501 0 0)
(1.2051655 0 0)
(1.1836319 0 0)
(1.1613128 0 0)
(1.1381607 0 0)
(1.114123 0 0)
(1.089152 0 0)
(1.063194 0 0)
(1.0361787 0 0)
(1.0080301 0 0)
(0.97867968 0 0)
(0.94804491 0 0)
(0.91601423 0 0)
(0.88245412 0 0)
(0.84726153 0 0)
(0.81038223 0 0)
(0.77168638 0 0)
(0.73095248 0 0)
(0.68800553 0 0)
(0.64275867 0 0)
(0.594993 0 0)
(0.54437491 0 0)
(0.49064828 0 0)
(0.43355396 0 0)
(0.37278437 0 0)
(0.30797857 0 0)
(0.2387519 0 0)
(0.16467054 0 0)
(0.085178764 0 0)
(0 0 0)
(1.5159986 0 0)
(1.5068166 0 0)
(1.497094 0 0)
(1.4868242 0 0)
(1.4760073 0 0)
(1.4646436 0 0)
(1.4527335 0 0)
(1.4402781 0 0)
(1.4272776 0 0)
(1.4137313 0 0)
(1.3996379 0 0)
(1.384995 0 0)
(1.3697983 0 0)
(1.354041 0 0)
(1.3377143 0 0)
(1.3208084 0 0)
(1.3033113 0 0)
(1.2852061 0 0)
(1.2664717 0 0)
(1.2470855 0 0)
(1.2270179 0 0)
(1.2062338 0 0)
(1.1846982 0 0)
(1.1623748 0 0)
(1.1392167 0 0)
(1.1151712 0 0)
(1.0901902 0 0)
(1.0642203 0 0)
(1.0371903 0 0)
(1.0090264 0 0)
(0.97965916 0 0)
(0.94900532 0 0)
(0.91695364 0 0)
(0.88337006 0 0)
(0.84815101 0 0)
(0.81124418 0 0)
(0.77252104 0 0)
(0.73175806 0 0)
(0.68877801 0 0)
(0.64349355 0 0)
(0.59568579 0 0)
(0.5450208 0 0)
(0.49124323 0 0)
(0.43409361 0 0)
(0.37326119 0 0)
(0.30837938 0 0)
(0.23906334 0 0)
(0.16488447 0 0)
(0.085288951 0 0)
(0 0 0)
(1.5161633 0 0)
(1.5071411 0 0)
(1.4975685 0 0)
(1.4874387 0 0)
(1.4767509 0 0)
(1.465505 0 0)
(1.4537016 0 0)
(1.4413417 0 0)
(1.4284261 0 0)
(1.4149553 0 0)
(1.4009288 0 0)
(1.3863447 0 0)
(1.3711985 0 0)
(1.3554835 0 0)
(1.3391924 0 0)
(1.3223159 0 0)
(1.3048423 0 0)
(1.2867551 0 0)
(1.2680342 0 0)
(1.2486571 0 0)
(1.2285949 0 0)
(1.2078124 0 0)
(1.1862748 0 0)
(1.1639461 0 0)
(1.14078 0 0)
(1.1167239 0 0)
(1.0917293 0 0)
(1.0657426 0 0)
(1.0386928 0 0)
(1.0105071 0 0)
(0.9811149 0 0)
(0.95043347 0 0)
(0.91835144 0 0)
(0.88473341 0 0)
(0.84947544 0 0)
(0.81252793 0 0)
(0.77376334 0 0)
(0.73295537 0 0)
(0.68992442 0 0)
(0.64458277 0 0)
(0.59671108 0 0)
(0.54597452 0 0)
(0.49211903 0 0)
(0.43488534 0 0)
(0.37395857 0 0)
(0.30896522 0 0)
(0.23952 0 0)
(0.16519961 0 0)
(0.085451945 0 0)
(0 0 0)
(1.5163984 0 0)
(1.5075809 0 0)
(1.4982008 0 0)
(1.488251 0 0)
(1.4777295 0 0)
(1.466636 0 0)
(1.4549707 0 0)
(1.4427352 0 0)
(1.4299309 0 0)
(1.4165596 0 0)
(1.4026225 0 0)
(1.3881175 0 0)
(1.3730391 0 0)
(1.3573814 0 0)
(1.341138 0 0)
(1.3243011 0 0)
(1.3068591 0 0)
(1.2887967 0 0)
(1.2700947 0 0)
(1.2507303 0 0)
(1.2306752 0 0)
(1.2098951 0 0)
(1.1883553 0 0)
(1.1660199 0 0)
(1.1428435 0 0)
(1.1187734 0 0)
(1.0937614 0 0)
(1.0677535 0 0)
(1.0406781 0 0)
(1.0124635 0 0)
(0.98303873 0 0)
(0.95232114 0 0)
(0.92019899 0 0)
(0.88653556 0 0)
(0.85122664 0 0)
(0.81422541 0 0)
(0.77540494 0 0)
(0.73453603 0 0)
(0.69143696 0 0)
(0.64601914 0 0)
(0.59806146 0 0)
(0.54722896 0 0)
(0.49326935 0 0)
(0.43592359 0 0)
(0.37487139 0 0)
(0.30973158 0 0)
(0.24011846 0 0)
(0.16561373 0 0)
(0.08566647 0 0)
(0 0 0)
(1.5167002 0 0)
(1.508131 0 0)
(1.4989853 0 0)
(1.4892545 0 0)
(1.4789363 0 0)
(1.4680298 0 0)
(1.4565356 0 0)
(1.4444543 0 0)
(1.4317879 0 0)
(1.4185401 0 0)
(1.4047145 0 0)
(1.390309 0 0)
(1.3753167 0 0)
(1.3597308 0 0)
(1.3435469 0 0)
(1.3267592 0 0)
(1.3093568 0 0)
(1.2913257 0 0)
(1.2726472 0 0)
(1.2532985 0 0)
(1.2332522 0 0)
(1.2124746 0 0)
(1.1909314 0 0)
(1.1685877 0 0)
(1.1453984 0 0)
(1.1213109 0 0)
(1.096277 0 0)
(1.0702428 0 0)
(1.0431361 0 0)
(1.0148853 0 0)
(0.9854197 0 0)
(0.95465735 0 0)
(0.92248572 0 0)
(0.88876593 0 0)
(0.85339372 0 0)
(0.81632576 0 0)
(0.77743546 0 0)
(0.73648982 0 0)
(0.69330529 0 0)
(0.64779243 0 0)
(0.59972782 0 0)
(0.54877576 0 0)
(0.49468616 0 0)
(0.43720075 0 0)
(0.37599309 0 0)
(0.31067308 0 0)
(0.24085448 0 0)
(0.16612383 0 0)
(0.085931017 0 0)
(0 0 0)
(1.5170692 0 0)
(1.5087906 0 0)
(1.4999195 0 0)
(1.4904459 0 0)
(1.480367 0 0)
(1.4696821 0 0)
(1.4583918 0 0)
(1.4464959 0 0)
(1.4339941 0 0)
(1.4208934 0 0)
(1.4072023 0 0)
(1.3929179 0 0)
(1.3780291 0 0)
(1.3625279 0 0)
(1.3464141 0 0)
(1.3296848 0 0)
(1.3123293 0 0)
(1.2943352 0 0)
(1.2756846 0 0)
(1.256354 0 0)
(1.2363173 0 0)
(1.215542 0 0)
(1.1939939 0 0)
(1.1716393 0 0)
(1.1484338 0 0)
(1.1243246 0 0)
(1.0992642 0 0)
(1.0731986 0 0)
(1.0460544 0 0)
(1.01776 0 0)
(0.9882452 0 0)
(0.95742909 0 0)
(0.92519834 0 0)
(0.89141153 0 0)
(0.85596407 0 0)
(0.81881636 0 0)
(0.77984206 0 0)
(0.73880416 0 0)
(0.69551749 0 0)
(0.64989131 0 0)
(0.60169891 0 0)
(0.55060424 0 0)
(0.49635984 0 0)
(0.43870823 0 0)
(0.3773158 0 0)
(0.311783 0 0)
(0.24172298 0 0)
(0.16672633 0 0)
(0.086243569 0 0)
(0 0 0)
(1.5175093 0 0)
(1.5095617 0 0)
(1.501004 0 0)
(1.4918246 0 0)
(1.4820193 0 0)
(1.4715901 0 0)
(1.4605389 0 0)
(1.4488613 0 0)
(1.4365546 0 0)
(1.4236273 0 0)
(1.4100888 0 0)
(1.3959391 0 0)
(1.3811677 0 0)
(1.365766 0 0)
(1.3497357 0 0)
(1.3330744 0 0)
(1.3157718 0 0)
(1.2978195 0 0)
(1.2792001 0 0)
(1.259888 0 0)
(1.2398606 0 0)
(1.2190869 0 0)
(1.1975313 0 0)
(1.1751625 0 0)
(1.1519369 0 0)
(1.1278015 0 0)
(1.1027093 0 0)
(1.0766066 0 0)
(1.0494186 0 0)
(1.0210728 0 0)
(0.99149988 0 0)
(0.96062076 0 0)
(0.9283215 0 0)
(0.89445715 0 0)
(0.85892248 0 0)
(0.82168208 0 0)
(0.78260993 0 0)
(0.74146468 0 0)
(0.69805928 0 0)
(0.65230177 0 0)
(0.60396194 0 0)
(0.55270263 0 0)
(0.49827918 0 0)
(0.44043569 0 0)
(0.37883058 0 0)
(0.31305384 0 0)
(0.24271795 0 0)
(0.16741703 0 0)
(0.086602021 0 0)
(0 0 0)
(1.5180508 0 0)
(1.5104757 0 0)
(1.5022703 0 0)
(1.4934213 0 0)
(1.4839274 0 0)
(1.4737926 0 0)
(1.4630139 0 0)
(1.4515829 0 0)
(1.4394997 0 0)
(1.4267693 0 0)
(1.4134003 0 0)
(1.3993995 0 0)
(1.3847592 0 0)
(1.3694713 0 0)
(1.353537 0 0)
(1.3369512 0 0)
(1.3197041 0 0)
(1.3017926 0 0)
(1.2832031 0 0)
(1.2639102 0 0)
(1.2438929 0 0)
(1.223118 0 0)
(1.2015496 0 0)
(1.1791609 0 0)
(1.1559094 0 0)
(1.1317411 0 0)
(1.1066106 0 0)
(1.080464 0 0)
(1.0532245 0 0)
(1.0248186 0 0)
(0.99517757 0 0)
(0.96422495 0 0)
(0.93184677 0 0)
(0.89789407 0 0)
(0.86226005 0 0)
(0.82491346 0 0)
(0.78572887 0 0)
(0.7444607 0 0)
(0.70092029 0 0)
(0.65501371 0 0)
(0.60650663 0 0)
(0.55506108 0 0)
(0.50043513 0 0)
(0.4423747 0 0)
(0.3805296 0 0)
(0.3144788 0 0)
(0.24383409 0 0)
(0.16819218 0 0)
(0.087004212 0 0)
(0 0 0)
(1.5169662 0 0)
(1.5097495 0 0)
(1.5018905 0 0)
(1.4933762 0 0)
(1.484209 0 0)
(1.4743871 0 0)
(1.4638975 0 0)
(1.4527358 0 0)
(1.4409069 0 0)
(1.4284102 0 0)
(1.4152516 0 0)
(1.4014415 0 0)
(1.3869741 0 0)
(1.3718415 0 0)
(1.3560444 0 0)
(1.3395773 0 0)
(1.3224322 0 0)
(1.304608 0 0)
(1.2860939 0 0)
(1.2668678 0 0)
(1.2469058 0 0)
(1.226172 0 0)
(1.2046354 0 0)
(1.1822723 0 0)
(1.1590389 0 0)
(1.1348814 0 0)
(1.109755 0 0)
(1.0836064 0 0)
(1.0563574 0 0)
(1.0279331 0 0)
(0.99826513 0 0)
(0.96727898 0 0)
(0.93486168 0 0)
(0.90086087 0 0)
(0.86516722 0 0)
(0.82775119 0 0)
(0.78849046 0 0)
(0.7471358 0 0)
(0.70349595 0 0)
(0.65747311 0 0)
(0.60883199 0 0)
(0.55723259 0 0)
(0.50243463 0 0)
(0.44418624 0 0)
(0.38212965 0 0)
(0.31583234 0 0)
(0.24490438 0 0)
(0.16894456 0 0)
(0.087404541 0 0)
(0 0 0)
(1.5158733 0 0)
(1.5064861 0 0)
(1.4965718 0 0)
(1.4861247 0 0)
(1.4751457 0 0)
(1.4636355 0 0)
(1.4515946 0 0)
(1.439024 0 0)
(1.4259249 0 0)
(1.4122961 0 0)
(1.3981336 0 0)
(1.3834329 0 0)
(1.3681894 0 0)
(1.3523952 0 0)
(1.3360393 0 0)
(1.3191102 0 0)
(1.301597 0 0)
(1.2834835 0 0)
(1.2647441 0 0)
(1.2453551 0 0)
(1.2252883 0 0)
(1.2045095 0 0)
(1.1829834 0 0)
(1.1606728 0 0)
(1.1375293 0 0)
(1.1135016 0 0)
(1.0885423 0 0)
(1.0625972 0 0)
(1.0355968 0 0)
(1.0074613 0 0)
(0.97812441 0 0)
(0.94750434 0 0)
(0.9154891 0 0)
(0.88194546 0 0)
(0.84677125 0 0)
(0.80990951 0 0)
(0.77122759 0 0)
(0.73050648 0 0)
(0.68757545 0 0)
(0.64234683 0 0)
(0.59459972 0 0)
(0.5440024 0 0)
(0.49029849 0 0)
(0.43322982 0 0)
(0.37249193 0 0)
(0.30773165 0 0)
(0.23856475 0 0)
(0.16454663 0 0)
(0.085116714 0 0)
(0 0 0)
(1.5158975 0 0)
(1.5065331 0 0)
(1.4966397 0 0)
(1.4862113 0 0)
(1.4752487 0 0)
(1.4637524 0 0)
(1.4517231 0 0)
(1.4391617 0 0)
(1.4260688 0 0)
(1.412443 0 0)
(1.3982811 0 0)
(1.3835794 0 0)
(1.3683336 0 0)
(1.3525359 0 0)
(1.3361759 0 0)
(1.3192426 0 0)
(1.3017246 0 0)
(1.2836052 0 0)
(1.2648604 0 0)
(1.2454671 0 0)
(1.2253962 0 0)
(1.2046125 0 0)
(1.1830813 0 0)
(1.1607658 0 0)
(1.1376178 0 0)
(1.1135852 0 0)
(1.0886205 0 0)
(1.0626702 0 0)
(1.0356639 0 0)
(1.0075238 0 0)
(0.97818296 0 0)
(0.94755878 0 0)
(0.91553932 0 0)
(0.88199163 0 0)
(0.84681332 0 0)
(0.80994837 0 0)
(0.77126539 0 0)
(0.73054452 0 0)
(0.68761324 0 0)
(0.64238437 0 0)
(0.594638 0 0)
(0.54404159 0 0)
(0.49033882 0 0)
(0.43327078 0 0)
(0.37253183 0 0)
(0.3077657 0 0)
(0.23858808 0 0)
(0.16455955 0 0)
(0.085122129 0 0)
(0 0 0)
(1.5159088 0 0)
(1.5066126 0 0)
(1.4967829 0 0)
(1.4864135 0 0)
(1.475505 0 0)
(1.4640577 0 0)
(1.4520723 0 0)
(1.4395496 0 0)
(1.42649 0 0)
(1.4128922 0 0)
(1.3987537 0 0)
(1.3840717 0 0)
(1.3688419 0 0)
(1.3530571 0 0)
(1.3367075 0 0)
(1.3197826 0 0)
(1.3022706 0 0)
(1.2841547 0 0)
(1.2654122 0 0)
(1.2460205 0 0)
(1.2259501 0 0)
(1.2051655 0 0)
(1.1836319 0 0)
(1.1613128 0 0)
(1.1381607 0 0)
(1.114123 0 0)
(1.089152 0 0)
(1.063194 0 0)
(1.0361787 0 0)
(1.0080301 0 0)
(0.97867968 0 0)
(0.94804491 0 0)
(0.91601423 0 0)
(0.88245412 0 0)
(0.84726153 0 0)
(0.81038223 0 0)
(0.77168638 0 0)
(0.73095248 0 0)
(0.68800553 0 0)
(0.64275867 0 0)
(0.594993 0 0)
(0.54437491 0 0)
(0.49064828 0 0)
(0.43355396 0 0)
(0.37278437 0 0)
(0.30797857 0 0)
(0.2387519 0 0)
(0.16467054 0 0)
(0.085178764 0 0)
(0 0 0)
(1.5159986 0 0)
(1.5068166 0 0)
(1.497094 0 0)
(1.4868242 0 0)
(1.4760073 0 0)
(1.4646436 0 0)
(1.4527335 0 0)
(1.4402781 0 0)
(1.4272776 0 0)
(1.4137313 0 0)
(1.3996379 0 0)
(1.384995 0 0)
(1.3697983 0 0)
(1.354041 0 0)
(1.3377143 0 0)
(1.3208084 0 0)
(1.3033113 0 0)
(1.2852061 0 0)
(1.2664717 0 0)
(1.2470855 0 0)
(1.2270179 0 0)
(1.2062338 0 0)
(1.1846982 0 0)
(1.1623748 0 0)
(1.1392167 0 0)
(1.1151712 0 0)
(1.0901902 0 0)
(1.0642203 0 0)
(1.0371903 0 0)
(1.0090264 0 0)
(0.97965916 0 0)
(0.94900532 0 0)
(0.91695364 0 0)
(0.88337006 0 0)
(0.84815101 0 0)
(0.81124418 0 0)
(0.77252104 0 0)
(0.73175806 0 0)
(0.68877801 0 0)
(0.64349355 0 0)
(0.59568579 0 0)
(0.5450208 0 0)
(0.49124323 0 0)
(0.43409361 0 0)
(0.37326119 0 0)
(0.30837938 0 0)
(0.23906334 0 0)
(0.16488447 0 0)
(0.085288951 0 0)
(0 0 0)
(1.5161633 0 0)
(1.5071411 0 0)
(1.4975685 0 0)
(1.4874387 0 0)
(1.4767509 0 0)
(1.465505 0 0)
(1.4537016 0 0)
(1.4413417 0 0)
(1.4284261 0 0)
(1.4149553 0 0)
(1.4009288 0 0)
(1.3863447 0 0)
(1.3711985 0 0)
(1.3554835 0 0)
(1.3391924 0 0)
(1.3223159 0 0)
(1.3048423 0 0)
(1.2867551 0 0)
(1.2680342 0 0)
(1.2486571 0 0)
(1.2285949 0 0)
(1.2078124 0 0)
(1.1862748 0 0)
(1.1639461 0 0)
(1.14078 0 0)
(1.1167239 0 0)
(1.0917293 0 0)
(1.0657426 0 0)
(1.0386928 0 0)
(1.0105071 0 0)
(0.9811149 0 0)
(0.95043347 0 0)
(0.91835144 0 0)
(0.88473341 0 0)
(0.84947544 0 0)
(0.81252793 0 0)
(0.77376334 0 0)
(0.73295537 0 0)
(0.68992442 0 0)
(0.64458277 0 0)
(0.59671108 0 0)
(0.54597452 0 0)
(0.49211903 0 0)
(0.43488534 0 0)
(0.37395857 0 0)
(0.30896522 0 0)
(0.23952 0 0)
(0.16519961 0 0)
(0.085451945 0 0)
(0 0 0)
(1.5163984 0 0)
(1.5075809 0 0)
(1.4982008 0 0)
(1.488251 0 0)
(1.4777295 0 0)
(1.466636 0 0)
(1.4549707 0 0)
(1.4427352 0 0)
(1.4299309 0 0)
(1.4165596 0 0)
(1.4026225 0 0)
(1.3881175 0 0)
(1.3730391 0 0)
(1.3573814 0 0)
(1.341138 0 0)
(1.3243011 0 0)
(1.3068591 0 0)
(1.2887967 0 0)
(1.2700947 0 0)
(1.2507303 0 0)
(1.2306752 0 0)
(1.2098951 0 0)
(1.1883553 0 0)
(1.1660199 0 0)
(1.1428435 0 0)
(1.1187734 0 0)
(1.0937614 0 0)
(1.0677535 0 0)
(1.0406781 0 0)
(1.0124635 0 0)
(0.98303873 0 0)
(0.95232114 0 0)
(0.92019899 0 0)
(0.88653556 0 0)
(0.85122664 0 0)
(0.81422541 0 0)
(0.77540494 0 0)
(0.73453603 0 0)
(0.69143696 0 0)
(0.64601914 0 0)
(0.59806146 0 0)
(0.54722896 0 0)
(0.49326935 0 0)
(0.43592359 0 0)
(0.37487139 0 0)
(0.30973158 0 0)
(0.24011846 0 0)
(0.16561373 0 0)
(0.08566647 0 0)
(0 0 0)
(1.5167002 0 0)
(1.508131 0 0)
(1.4989853 0 0)
(1.4892545 0 0)
(1.4789363 0 0)
(1.4680298 0 0)
(1.4565356 0 0)
(1.4444543 0 0)
(1.4317879 0 0)
(1.4185401 0 0)
(1.4047145 0 0)
(1.390309 0 0)
(1.3753167 0 0)
(1.3597308 0 0)
(1.3435469 0 0)
(1.3267592 0 0)
(1.3093568 0 0)
(1.2913257 0 0)
(1.2726472 0 0)
(1.2532985 0 0)
(1.2332522 0 0)
(1.2124746 0 0)
(1.1909314 0 0)
(1.1685877 0 0)
(1.1453984 0 0)
(1.1213109 0 0)
(1.096277 0 0)
(1.0702428 0 0)
(1.0431361 0 0)
(1.0148853 0 0)
(0.9854197 0 0)
(0.95465735 0 0)
(0.92248572 0 0)
(0.88876593 0 0)
(0.85339372 0 0)
(0.81632576 0 0)
(0.77743546 0 0)
(0.73648982 0 0)
(0.69330529 0 0)
(0.64779243 0 0)
(0.59972782 0 0)
(0.54877576 0 0)
(0.49468616 0 0)
(0.43720075 0 0)
(0.37599309 0 0)
(0.31067308 0 0)
(0.24085448 0 0)
(0.16612383 0 0)
(0.085931017 0 0)
(0 0 0)
(1.5170692 0 0)
(1.5087906 0 0)
(1.4999195 0 0)
(1.4904459 0 0)
(1.480367 0 0)
(1.4696821 0 0)
(1.4583918 0 0)
(1.4464959 0 0)
(1.4339941 0 0)
(1.4208934 0 0)
(1.4072023 0 0)
(1.3929179 0 0)
(1.3780291 0 0)
(1.3625279 0 0)
(1.3464141 0 0)
(1.3296848 0 0)
(1.3123293 0 0)
(1.2943352 0 0)
(1.2756846 0 0)
(1.256354 0 0)
(1.2363173 0 0)
(1.215542 0 0)
(1.1939939 0 0)
(1.1716393 0 0)
(1.1484338 0 0)
(1.1243246 0 0)
(1.0992642 0 0)
(1.0731986 0 0)
(1.0460544 0 0)
(1.01776 0 0)
(0.9882452 0 0)
(0.95742909 0 0)
(0.92519834 0 0)
(0.89141153 0 0)
(0.85596407 0 0)