/*--------------------------------*- C++ -*----------------------------------*\
| =========                 |                                                 |
| \\      /  F ield         | OpenFOAM: The Open Source CFD Toolbox           |
|  \\    /   O peration     | Version:  v2012                                 |
|   \\  /    A nd           | Website:  www.openfoam.com                      |
|    \\/     M anipulation  |                                                 |
\*---------------------------------------------------------------------------*/
FoamFile
{
    version     2.0;
    format      ascii;
    class       volVectorField;
    location    "2.360403";
    object      cellDisplacement;
}
// * * * * * * * * * * * * * * * * * * * * * * * * * * * * * * * * * * * * * //

dimensions      [0 1 0 0 0 0 0];


internalField   nonuniform List<vector> 
9200
(
(0.041404509 0 0)
(0.041624155 0 0)
(0.12037391 0 0)
(0.041911866 0 0)
(0.12088413 0 0)
(0.19416982 0 0)
(0.042313419 0 0)
(0.12176632 0 0)
(0.19498518 0 0)
(0.26309278 0 0)
(0.042700988 0 0)
(0.12276374 0 0)
(0.19625381 0 0)
(0.26410777 0 0)
(0.32734522 0 0)
(0.043089123 0 0)
(0.12383992 0 0)
(0.19784674 0 0)
(0.26582364 0 0)
(0.32859052 0 0)
(0.38722852 0 0)
(0.043466593 0 0)
(0.12493166 0 0)
(0.19956903 0 0)
(0.26791012 0 0)
(0.33062662 0 0)
(0.38864922 0 0)
(0.44296524 0 0)
(0.043825418 0 0)
(0.12598506 0 0)
(0.20128486 0 0)
(0.27018544 0 0)
(0.33321241 0 0)
(0.39107971 0 0)
(0.44460478 0 0)
(0.49485946 0 0)
(0.044162339 0 0)
(0.12698559 0 0)
(0.20295577 0 0)
(0.2725018 0 0)
(0.33603823 0 0)
(0.39408274 0 0)
(0.44732364 0 0)
(0.49666991 0 0)
(0.54310061 0 0)
(0.044471136 0 0)
(0.12792015 0 0)
(0.20454339 0 0)
(0.27476124 0 0)
(0.33893382 0 0)
(0.39743127 0 0)
(0.45079726 0 0)
(0.49976028 0 0)
(0.54511241 0 0)
(0.58795159 0 0)
(0.044754203 0 0)
(0.12877792 0 0)
(0.20602052 0 0)
(0.27690337 0 0)
(0.34175031 0 0)
(0.40087014 0 0)
(0.45465436 0 0)
(0.50363401 0 0)
(0.54849917 0 0)
(0.59014247 0 0)
(0.62958209 0 0)
(0.045006639 0 0)
(0.12955628 0 0)
(0.20737821 0 0)
(0.27889541 0 0)
(0.34442306 0 0)
(0.40423897 0 0)
(0.45863232 0 0)
(0.50797919 0 0)
(0.55283427 0 0)
(0.5939002 0 0)
(0.63198289 0 0)
(0.66824009 0 0)
(0.045234552 0 0)
(0.13025432 0 0)
(0.20860294 0 0)
(0.28072475 0 0)
(0.34691738 0 0)
(0.40744774 0 0)
(0.46256726 0 0)
(0.51251666 0 0)
(0.55769301 0 0)
(0.59864321 0 0)
(0.63604934 0 0)
(0.67082917 0 0)
(0.70406367 0 0)
(0.045433839 0 0)
(0.13087387 0 0)
(0.20970137 0 0)
(0.28237584 0 0)
(0.34919884 0 0)
(0.41043283 0 0)
(0.46630154 0 0)
(0.5169908 0 0)
(0.56275881 0 0)
(0.60399833 0 0)
(0.64126803 0 0)
(0.6752708 0 0)
(0.70685878 0 0)
(0.73726846 0 0)
(0.045611876 0 0)
(0.13142085 0 0)
(0.21066907 0 0)
(0.28385334 0 0)
(0.35126833 0 0)
(0.41316772 0 0)
(0.46978199 0 0)
(0.52127228 0 0)
(0.56779974 0 0)
(0.60961983 0 0)
(0.64714909 0 0)
(0.68091634 0 0)
(0.71163166 0 0)
(0.74026211 0 0)
(0.76797474 0 0)
(0.045765388 0 0)
(0.13189766 0 0)
(0.21151994 0 0)
(0.28515725 0 0)
(0.35311139 0 0)
(0.41564403 0 0)
(0.47297886 0 0)
(0.52527104 0 0)
(0.57264463 0 0)
(0.61523529 0 0)
(0.65332318 0 0)
(0.68731741 0 0)
(0.71777058 0 0)
(0.74541944 0 0)
(0.77118409 0 0)
(0.79638495 0 0)
(0.045900362 0 0)
(0.13231262 0 0)
(0.21225561 0 0)
(0.28630002 0 0)
(0.3547478 0 0)
(0.4178553 0 0)
(0.47586747 0 0)
(0.52894241 0 0)
(0.57717203 0 0)
(0.62064444 0 0)
(0.65952075 0 0)
(0.69407397 0 0)
(0.72472388 0 0)
(0.75200594 0 0)
(0.77668741 0 0)
(0.79980067 0 0)
(0.82259746 0 0)
(0.046015939 0 0)
(0.13266981 0 0)
(0.21289281 0 0)
(0.28729078 0 0)
(0.35617367 0 0)
(0.41981142 0 0)
(0.47845552 0 0)
(0.53226555 0 0)
(0.58133295 0 0)
(0.62572381 0 0)
(0.66551559 0 0)
(0.70086252 0 0)
(0.73206217 0 0)
(0.75950938 0 0)
(0.78378779 0 0)
(0.80569525 0 0)
(0.8262273 0 0)
(0.84679082 0 0)
(0.046116017 0 0)
(0.13297746 0 0)
(0.21343509 0 0)
(0.28814434 0 0)
(0.35741923 0 0)
(0.42152415 0 0)
(0.48073876 0 0)
(0.53524379 0 0)
(0.58511362 0 0)
(0.63040758 0 0)
(0.67117954 0 0)
(0.70747688 0 0)
(0.73947388 0 0)
(0.76746398 0 0)
(0.79186888 0 0)
(0.8132624 0 0)
(0.83248466 0 0)
(0.8506318 0 0)
(0.86904997 0 0)
(0.046201614 0 0)
(0.13323975 0 0)
(0.2138988 0 0)
(0.28887458 0 0)
(0.3584853 0 0)
(0.42301059 0 0)
(0.48274408 0 0)
(0.53787855 0 0)
(0.58849779 0 0)
(0.63466232 0 0)
(0.67640312 0 0)
(0.71372691 0 0)
(0.74670176 0 0)
(0.77550395 0 0)
(0.80044048 0 0)
(0.82191919 0 0)
(0.84057811 0 0)
(0.85728411 0 0)
(0.87310856 0 0)
(0.88954199 0 0)
(0.046274028 0 0)
(0.1334621 0 0)
(0.21428872 0 0)
(0.28949491 0 0)
(0.35940573 0 0)
(0.42429283 0 0)
(0.48447854 0 0)
(0.54019099 0 0)
(0.59150655 0 0)
(0.63848073 0 0)
(0.6811569 0 0)
(0.71952503 0 0)
(0.75357619 0 0)
(0.78338092 0 0)
(0.80913909 0 0)
(0.83113869 0 0)
(0.84983356 0 0)
(0.86585769 0 0)
(0.88012905 0 0)
(0.89381192 0 0)
(0.90833767 0 0)
(0.046336429 0 0)
(0.13365102 0 0)
(0.21461978 0 0)
(0.2900205 0 0)
(0.36018137 0 0)
(0.42538776 0 0)
(0.48597717 0 0)
(0.54219963 0 0)
(0.59414323 0 0)
(0.64187725 0 0)
(0.68543921 0 0)
(0.72481672 0 0)
(0.7599777 0 0)
(0.7908994 0 0)
(0.81767516 0 0)
(0.84050394 0 0)
(0.85969906 0 0)
(0.87570734 0 0)
(0.88923519 0 0)
(0.90122289 0 0)
(0.91281809 0 0)
(0.92558563 0 0)
(0.046388158 0 0)
(0.13380822 0 0)
(0.2148955 0 0)
(0.29046182 0 0)
(0.36084526 0 0)
(0.42632178 0 0)
(0.48725205 0 0)
(0.5439316 0 0)
(0.59644642 0 0)
(0.64486412 0 0)
(0.68924725 0 0)
(0.7295893 0 0)
(0.76583294 0 0)
(0.79792095 0 0)
(0.82585588 0 0)
(0.84973122 0 0)
(0.86975877 0 0)
(0.88624456 0 0)
(0.89969537 0 0)
(0.91081477 0 0)
(0.92059882 0 0)
(0.93027323 0 0)
(0.94134798 0 0)
(0.04643341 0 0)
(0.13394204 0 0)
(0.21512964 0 0)
(0.2908345 0 0)
(0.36139804 0 0)
(0.42710976 0 0)
(0.48834177 0 0)
(0.54541445 0 0)
(0.5984283 0 0)
(0.64747115 0 0)
(0.69261147 0 0)
(0.73384585 0 0)
(0.77112285 0 0)
(0.80437076 0 0)
(0.83352641 0 0)
(0.85859146 0 0)
(0.879684 0 0)
(0.89700401 0 0)
(0.91089965 0 0)
(0.92187869 0 0)
(0.93071911 0 0)
(0.93843527 0 0)
(0.94624128 0 0)
(0.95576296 0 0)
(0.046470274 0 0)
(0.13405234 0 0)
(0.21532439 0 0)
(0.29114534 0 0)
(0.36186923 0 0)
(0.4277781 0 0)
(0.48925622 0 0)
(0.54667456 0 0)
(0.60013569 0 0)
(0.64972616 0 0)
(0.69554563 0 0)
(0.73761242 0 0)
(0.77586157 0 0)
(0.81021856 0 0)
(0.84060703 0 0)
(0.86694598 0 0)
(0.88925607 0 0)
(0.90765883 0 0)
(0.92238022 0 0)
(0.93376843 0 0)
(0.94239608 0 0)
(0.94903748 0 0)
(0.95476391 0 0)
(0.96085548 0 0)
(0.96888336 0 0)
(0.046503144 0 0)
(0.13414712 0 0)
(0.2154904 0 0)
(0.29140846 0 0)
(0.36225849 0 0)
(0.4283367 0 0)
(0.49003294 0 0)
(0.54774323 0 0)
(0.60158328 0 0)
(0.65166337 0 0)
(0.69809617 0 0)
(0.74091087 0 0)
(0.78005698 0 0)
(0.81546472 0 0)
(0.84703935 0 0)
(0.87467086 0 0)
(0.89829866 0 0)
(0.91795177 0 0)
(0.93376797 0 0)
(0.94597107 0 0)
(0.9549627 0 0)
(0.96131694 0 0)
(0.96588228 0 0)
(0.96974308 0 0)
(0.97416914 0 0)
(0.98083194 0 0)
(0.046529382 0 0)
(0.13422431 0 0)
(0.2156297 0 0)
(0.2916282 0 0)
(0.3625907 0 0)
(0.42880981 0 0)
(0.49067858 0 0)
(0.54864129 0 0)
(0.60281802 0 0)
(0.65331727 0 0)
(0.70028402 0 0)
(0.74378015 0 0)
(0.78375085 0 0)
(0.82012482 0 0)
(0.85282194 0 0)
(0.88172194 0 0)
(0.90670466 0 0)
(0.92771565 0 0)
(0.94480882 0 0)
(0.95811643 0 0)
(0.96790156 0 0)
(0.9745717 0 0)
(0.97876661 0 0)
(0.98133105 0 0)
(0.9834042 0 0)
(0.98630622 0 0)
(0.99165598 0 0)
(0.046553476 0 0)
(0.13429184 0 0)
(0.21575067 0 0)
(0.29181729 0 0)
(0.36286568 0 0)
(0.42920451 0 0)
(0.49122865 0 0)
(0.54939948 0 0)
(0.60385277 0 0)
(0.65471997 0 0)
(0.70216127 0 0)
(0.74625583 0 0)
(0.78696587 0 0)
(0.82423683 0 0)
(0.85798284 0 0)
(0.88808313 0 0)
(0.91440505 0 0)
(0.93682242 0 0)
(0.95530436 0 0)
(0.96991266 0 0)
(0.98080327 0 0)
(0.9882429 0 0)
(0.99269662 0 0)
(0.99480626 0 0)
(0.99548683 0 0)
(0.99588607 0 0)
(0.99731273 0 0)
(1.0014681 0 0)
(0.046571791 0 0)
(0.1343469 0 0)
(0.21585521 0 0)
(0.29197825 0 0)
(0.36310314 0 0)
(0.42954033 0 0)
(0.49168444 0 0)
(0.5500329 0 0)
(0.6047309 0 0)
(0.65590734 0 0)
(0.70374956 0 0)
(0.74837833 0 0)
(0.78975606 0 0)
(0.82783047 0 0)
(0.86254017 0 0)
(0.89377076 0 0)
(0.92137154 0 0)
(0.94519233 0 0)
(0.96513102 0 0)
(0.98116624 0 0)
(0.99337604 0 0)
(1.0019182 0 0)
(1.007107 0 0)
(1.0094153 0 0)
(1.0095489 0 0)
(1.0084176 0 0)
(1.0072193 0 0)
(1.0073001 0 0)
(1.0103094 0 0)
(0.046589984 0 0)
(0.13439762 0 0)
(0.21594886 0 0)
(0.29212105 0 0)
(0.36330336 0 0)
(0.42982262 0 0)
(0.4920781 0 0)
(0.55057038 0 0)
(0.60546225 0 0)
(0.65690553 0 0)
(0.70510033 0 0)
(0.75018911 0 0)
(0.79214943 0 0)
(0.83095388 0 0)
(0.86654604 0 0)
(0.89881333 0 0)
(0.92761428 0 0)
(0.9527917 0 0)
(0.97419409 0 0)
(0.99172683 0 0)
(1.0053937 0 0)
(1.0152706 0 0)
(1.0215497 0 0)
(1.0245557 0 0)
(1.0248197 0 0)
(1.023049 0 0)
(1.0202176 0 0)
(1.0175268 0 0)
(1.0163083 0 0)
(1.018279 0 0)
(0.046407009 0 0)
(0.13444326 0 0)
(0.21603529 0 0)
(0.29224875 0 0)
(0.36348134 0 0)
(0.43006785 0 0)
(0.49240735 0 0)
(0.55102082 0 0)
(0.60608395 0 0)
(0.65774827 0 0)
(0.70623177 0 0)
(0.75172378 0 0)
(0.79420365 0 0)
(0.83364758 0 0)
(0.87002997 0 0)
(0.90325589 0 0)
(0.93317337 0 0)
(0.95962744 0 0)
(0.9824603 0 0)
(1.0015127 0 0)
(1.016713 0 0)
(1.0280752 0 0)
(1.0356959 0 0)
(1.0397753 0 0)
(1.0406897 0 0)
(1.0389786 0 0)
(1.0354087 0 0)
(1.0309471 0 0)
(1.0268388 0 0)
(1.024439 0 0)
(1.0254144 0 0)
(0.046184904 0 0)
(0.13405385 0 0)
(0.21612203 0 0)
(0.29236713 0 0)
(0.36363911 0 0)
(0.43027964 0 0)
(0.49269854 0 0)
(0.55140841 0 0)
(0.60660269 0 0)
(0.65845448 0 0)
(0.7071889 0 0)
(0.75302452 0 0)
(0.79594649 0 0)
(0.83596026 0 0)
(0.87305386 0 0)
(0.90713924 0 0)
(0.93807841 0 0)
(0.96572462 0 0)
(0.98990494 0 0)
(1.0104414 0 0)
(1.027214 0 0)
(1.0401584 0 0)
(1.0492897 0 0)
(1.0547131 0 0)
(1.0566748 0 0)
(1.0555636 0 0)
(1.0519756 0 0)
(1.0466774 0 0)
(1.0406922 0 0)
(1.0352633 0 0)
(1.0317276 0 0)
(1.0318051 0 0)
(0.045983354 0 0)
(0.1333873 0 0)
(0.21555948 0 0)
(0.29248759 0 0)
(0.36378518 0 0)
(0.43047002 0 0)
(0.49294889 0 0)
(0.55173877 0 0)
(0.6070489 0 0)
(0.65905326 0 0)
(0.70798744 0 0)
(0.75411911 0 0)
(0.79743237 0 0)
(0.83793539 0 0)
(0.87565092 0 0)
(0.91051664 0 0)
(0.94238988 0 0)
(0.97112479 0 0)
(0.99656768 0 0)
(1.0185369 0 0)
(1.0368634 0 0)
(1.0514212 0 0)
(1.0621619 0 0)
(1.0691127 0 0)
(1.0724109 0 0)
(1.072316 0 0)
(1.0692686 0 0)
(1.0638726 0 0)
(1.0569476 0 0)
(1.0495064 0 0)
(1.0428291 0 0)
(1.0382641 0 0)
(1.0374842 0 0)
(0.04580576 0 0)
(0.13279056 0 0)
(0.21451293 0 0)
(0.2917617 0 0)
(0.36393288 0 0)
(0.43064462 0 0)
(0.49317915 0 0)
(0.55203216 0 0)
(0.60742743 0 0)
(0.65955866 0 0)
(0.70866357 0 0)
(0.75504589 0 0)
(0.79868481 0 0)
(0.83961629 0 0)
(0.87788292 0 0)
(0.91343638 0 0)
(0.94614542 0 0)
(0.9758828 0 0)
(1.0024943 0 0)
(1.0257982 0 0)
(1.0456085 0 0)
(1.061768 0 0)
(1.0741769 0 0)
(1.0827771 0 0)
(1.0876137 0 0)
(1.0888424 0 0)
(1.0867712 0 0)
(1.0818539 0 0)
(1.074746 0 0)
(1.0662644 0 0)
(1.0574689 0 0)
(1.049632 0 0)
(1.0440804 0 0)
(1.0425296 0 0)
(0.045651097 0 0)
(0.13226043 0 0)
(0.2135764 0 0)
(0.29036534 0 0)
(0.36305571 0 0)
(0.43082011 0 0)
(0.49338929 0 0)
(0.55229319 0 0)
(0.60776161 0 0)
(0.65999445 0 0)
(0.709232 0 0)
(0.75582616 0 0)
(0.79975239 0 0)
(0.84104528 0 0)
(0.8797826 0 0)
(0.91594949 0 0)
(0.94941227 0 0)
(0.98004568 0 0)
(1.0077216 0 0)
(1.0322701 0 0)
(1.0534938 0 0)
(1.0712097 0 0)
(1.0852765 0 0)
(1.0955811 0 0)
(1.1020865 0 0)
(1.1048569 0 0)
(1.104087 0 0)
(1.1001011 0 0)
(1.0934022 0 0)
(1.0846517 0 0)
(1.0747117 0 0)
(1.0646271 0 0)
(1.0556993 0 0)
(1.049257 0 0)
(1.0469716 0 0)
(0.045522376 0 0)
(0.13180421 0 0)
(0.21274841 0 0)
(0.28911577 0 0)
(0.36133659 0 0)
(0.42981058 0 0)
(0.49360301 0 0)
(0.55253495 0 0)
(0.60805762 0 0)
(0.66037149 0 0)
(0.70971889 0 0)
(0.7564933 0 0)
(0.80065346 0 0)
(0.84225785 0 0)
(0.88140612 0 0)
(0.91810526 0 0)
(0.95222801 0 0)
(0.98367395 0 0)
(1.0123218 0 0)
(1.0380085 0 0)
(1.0605472 0 0)
(1.0797451 0 0)
(1.0954166 0 0)
(1.1074209 0 0)
(1.1156737 0 0)
(1.1201372 0 0)
(1.1209045 0 0)
(1.1181921 0 0)
(1.1123721 0 0)
(1.1039591 0 0)
(1.09366 0 0)
(1.0823309 0 0)
(1.071054 0 0)
(1.0611158 0 0)
(1.0538225 0 0)
(1.0508794 0 0)
(0.045419181 0 0)
(0.13142251 0 0)
(0.2120364 0 0)
(0.2880145 0 0)
(0.35979921 0 0)
(0.42780108 0 0)
(0.49248239 0 0)
(0.55277699 0 0)
(0.60832929 0 0)
(0.66070703 0 0)
(0.71013968 0 0)
(0.75706299 0 0)
(0.80142856 0 0)
(0.84329178 0 0)
(0.88278285 0 0)
(0.91994834 0 0)
(0.95465948 0 0)
(0.98681786 0 0)
(1.0163318 0 0)
(1.0430593 0 0)
(1.0668163 0 0)
(1.0874037 0 0)
(1.1046194 0 0)
(1.1182919 0 0)
(1.1282969 0 0)
(1.1345352 0 0)
(1.1370009 0 0)
(1.1358134 0 0)
(1.13123 0 0)
(1.1236393 0 0)
(1.1135999 0 0)
(1.1018217 0 0)
(1.089199 0 0)
(1.0767907 0 0)
(1.0659059 0 0)
(1.0578469 0 0)
(1.05428 0 0)
(0.045343235 0 0)
(0.13111996 0 0)
(0.21144355 0 0)
(0.28706804 0 0)
(0.35844519 0 0)
(0.42600579 0 0)
(0.49021962 0 0)
(0.55154529 0 0)
(0.60860065 0 0)
(0.66101311 0 0)
(0.71051123 0 0)
(0.75756121 0 0)
(0.80209158 0 0)
(0.8441743 0 0)
(0.88396024 0 0)
(0.92152588 0 0)
(0.95674101 0 0)
(0.98953447 0 0)
(1.0198282 0 0)
(1.0474912 0 0)
(1.0723538 0 0)
(1.0942282 0 0)
(1.1129075 0 0)
(1.1281866 0 0)
(1.1398994 0 0)
(1.1479285 0 0)
(1.1522011 0 0)
(1.1527191 0 0)
(1.1496401 0 0)
(1.1432443 0 0)
(1.133964 0 0)
(1.1223671 0 0)
(1.1092017 0 0)
(1.0953524 0 0)
(1.081904 0 0)
(1.0701447 0 0)
(1.0613563 0 0)
(1.0572327 0 0)
(0.045294728 0 0)
(0.13089744 0 0)
(0.21097516 0 0)
(0.28628281 0 0)
(0.35728276 0 0)
(0.42442489 0 0)
(0.48819765 0 0)
(0.54903738 0 0)
(0.60726452 0 0)
(0.66131329 0 0)
(0.71085194 0 0)
(0.75800308 0 0)
(0.80267475 0 0)
(0.84493743 0 0)
(0.8849636 0 0)
(0.92287344 0 0)
(0.95853322 0 0)
(0.99187401 0 0)
(1.0228481 0 0)
(1.051351 0 0)
(1.0772228 0 0)
(1.1002798 0 0)
(1.1203168 0 0)
(1.1371263 0 0)
(1.1505051 0 0)
(1.1602971 0 0)
(1.1663996 0 0)
(1.1687372 0 0)
(1.1673547 0 0)
(1.1624361 0 0)
(1.1543011 0 0)
(1.1433972 0 0)
(1.1303295 0 0)
(1.1158462 0 0)
(1.1008612 0 0)
(1.0864284 0 0)
(1.0738541 0 0)
(1.064412 0 0)
(1.0597626 0 0)
(0.045274008 0 0)
(0.13075716 0 0)
(0.21063371 0 0)
(0.28566401 0 0)
(0.35631926 0 0)
(0.42306832 0 0)
(0.48641789 0 0)
(0.54679764 0 0)
(0.60452794 0 0)
(0.6598873 0 0)
(0.71118706 0 0)
(0.75840486 0 0)
(0.8031909 0 0)
(0.84560155 0 0)
(0.8858311 0 0)
(0.92403197 0 0)
(0.96006523 0 0)
(0.99388577 0 0)
(1.0254638 0 0)
(1.05471 0 0)
(1.0814802 0 0)
(1.1056097 0 0)
(1.1269038 0 0)
(1.1451438 0 0)
(1.1601141 0 0)
(1.1716258 0 0)
(1.1795295 0 0)
(1.1837274 0 0)
(1.1841791 0 0)
(1.1809465 0 0)
(1.174254 0 0)
(1.1644416 0 0)
(1.1519957 0 0)
(1.1375273 0 0)
(1.121815 0 0)
(1.1057576 0 0)
(1.0904252 0 0)
(1.0770995 0 0)
(1.0670378 0 0)
(1.061921 0 0)
(0.13070094 0 0)
(0.045275488 0 0)
(0.21042215 0 0)
(0.28521576 0 0)
(0.3555619 0 0)
(0.42194511 0 0)
(0.48489026 0 0)
(0.54482656 0 0)
(0.60208397 0 0)
(0.65693936 0 0)
(0.70968575 0 0)
(0.75880074 0 0)
(0.80365997 0 0)
(0.84619135 0 0)
(0.88658378 0 0)
(0.92502981 0 0)
(0.96138884 0 0)
(0.99561639 0 0)
(1.0277112 0 0)
(1.0576125 0 0)
(1.0851892 0 0)
(1.1102893 0 0)
(1.1327236 0 0)
(1.1522864 0 0)
(1.1687592 0 0)
(1.1819253 0 0)
(1.1915989 0 0)
(1.1976451 0 0)
(1.1999835 0 0)
(1.1985827 0 0)
(1.1935521 0 0)
(1.1851415 0 0)
(1.1737269 0 0)
(1.1598073 0 0)
(1.1440236 0 0)
(1.1271493 0 0)
(1.1101051 0 0)
(1.0939236 0 0)
(1.0799008 0 0)
(1.0692858 0 0)
(1.0637309 0 0)
(0.21034231 0 0)
(0.13070905 0 0)
(0.045298156 0 0)
(0.28494173 0 0)
(0.3550145 0 0)
(0.42106191 0 0)
(0.4836261 0 0)
(0.54313577 0 0)
(0.59993553 0 0)
(0.65431135 0 0)
(0.70655187 0 0)
(0.75723363 0 0)
(0.80411684 0 0)
(0.84672489 0 0)
(0.88725092 0 0)
(0.92590098 0 0)
(0.96252796 0 0)
(0.99710594 0 0)
(1.0296528 0 0)
(1.060126 0 0)
(1.0884086 0 0)
(1.1143712 0 0)
(1.1378453 0 0)
(1.1586228 0 0)
(1.1764869 0 0)
(1.1912206 0 0)
(1.2026065 0 0)
(1.2104681 0 0)
(1.2146819 0 0)
(1.2151843 0 0)
(1.2119832 0 0)
(1.2052081 0 0)
(1.1951482 0 0)
(1.1821967 0 0)
(1.1668847 0 0)
(1.1498557 0 0)
(1.1319053 0 0)
(1.1139323 0 0)
(1.0969779 0 0)
(1.082315 0 0)
(1.0711783 0 0)
(1.0652348 0 0)
(0.28484371 0 0)
(0.21036436 0 0)
(0.13078344 0 0)
(0.045349644 0 0)
(0.35468302 0 0)
(0.42042591 0 0)
(0.48263201 0 0)
(0.54173647 0 0)
(0.59809299 0 0)
(0.65199917 0 0)
(0.70376197 0 0)
(0.7539281 0 0)
(0.8024937 0 0)
(0.84723813 0 0)
(0.8878526 0 0)
(0.92666916 0 0)
(0.9635235 0 0)
(0.9983948 0 0)
(1.0313216 0 0)
(1.0622901 0 0)
(1.0911959 0 0)
(1.117928 0 0)
(1.1423278 0 0)
(1.1642065 0 0)
(1.1833571 0 0)
(1.1995534 0 0)
(1.2125682 0 0)
(1.222196 0 0)
(1.22827 0 0)
(1.2306819 0 0)
(1.229393 0 0)
(1.2244294 0 0)
(1.2159679 0 0)
(1.2043195 0 0)
(1.1899075 0 0)
(1.1732728 0 0)
(1.1550824 0 0)
(1.1361187 0 0)
(1.1172951 0 0)
(1.0996138 0 0)
(1.0843606 0 0)
(1.0727599 0 0)
(1.0664546 0 0)
(0.35456783 0 0)
(0.28488304 0 0)
(0.21048889 0 0)
(0.13094005 0 0)
(0.045427731 0 0)
(0.42004006 0 0)
(0.48191659 0 0)
(0.54063735 0 0)
(0.59657011 0 0)
(0.6500196 0 0)
(0.70130836 0 0)
(0.75098278 0 0)
(0.79902393 0 0)
(0.84556863 0 0)
(0.88842882 0 0)
(0.92735746 0 0)
(0.9643983 0 0)
(0.99951444 0 0)
(1.0327683 0 0)
(1.0641632 0 0)
(1.0936068 0 0)
(1.1210101 0 0)
(1.1462401 0 0)
(1.1691143 0 0)
(1.1894318 0 0)
(1.2069792 0 0)
(1.2215259 0 0)
(1.2328429 0 0)
(1.2407311 0 0)
(1.2450408 0 0)
(1.2456769 0 0)
(1.2426269 0 0)
(1.2359579 0 0)
(1.2258677 0 0)
(1.2127022 0 0)
(1.1968976 0 0)
(1.1790205 0 0)
(1.159737 0 0)
(1.1398412 0 0)
(1.1202191 0 0)
(1.1018782 0 0)
(1.0860854 0 0)
(1.0740511 0 0)
(1.0674262 0 0)
(0.41990949 0 0)
(0.35462289 0 0)
(0.28505844 0 0)
(0.21074481 0 0)
(0.13118194 0 0)
(0.045534354 0 0)
(0.48148308 0 0)
(0.53984613 0 0)
(0.59537533 0 0)
(0.64838336 0 0)
(0.69921048 0 0)
(0.74839868 0 0)
(0.79593513 0 0)
(0.84194803 0 0)
(0.88671979 0 0)
(0.92801177 0 0)
(0.96517854 0 0)
(1.0004976 0 0)
(1.0340224 0 0)
(1.0657801 0 0)
(1.0956903 0 0)
(1.1236844 0 0)
(1.1496424 0 0)
(1.1734015 0 0)
(1.1947815 0 0)
(1.2135684 0 0)
(1.2295323 0 0)
(1.242444 0 0)
(1.2520777 0 0)
(1.2582459 0 0)
(1.2608117 0 0)
(1.259705 0 0)
(1.2549428 0 0)
(1.2466135 0 0)
(1.2349579 0 0)
(1.2203398 0 0)
(1.2032192 0 0)
(1.1841695 0 0)
(1.1638735 0 0)
(1.1431031 0 0)
(1.1227525 0 0)
(1.1037949 0 0)
(1.0875078 0 0)
(1.0750888 0 0)
(1.0681685 0 0)
(0.4813373 0 0)
(0.41997485 0 0)
(0.35484469 0 0)
(0.28541104 0 0)
(0.21113103 0 0)
(0.1315027 0 0)
(0.045665964 0 0)
(0.53936823 0 0)
(0.59451725 0 0)
(0.64710202 0 0)
(0.69747771 0 0)
(0.74618715 0 0)
(0.79322705 0 0)
(0.83872986 0 0)
(0.88295986 0 0)
(0.92626129 0 0)
(0.96591463 0 0)
(1.0013729 0 0)
(1.0351225 0 0)
(1.067188 0 0)
(1.0974955 0 0)
(1.1259963 0 0)
(1.1525966 0 0)
(1.1771444 0 0)
(1.1994709 0 0)
(1.219382 0 0)
(1.2366542 0 0)
(1.2510505 0 0)
(1.2623375 0 0)
(1.2703018 0 0)
(1.2747669 0 0)
(1.275615 0 0)
(1.2727967 0 0)
(1.266361 0 0)
(1.2564332 0 0)
(1.2432742 0 0)
(1.2272769 0 0)
(1.2089095 0 0)
(1.188765 0 0)
(1.1675213 0 0)
(1.1459511 0 0)
(1.1249197 0 0)
(1.1054046 0 0)
(1.0886683 0 0)
(1.0758916 0 0)
(1.0687108 0 0)
(0.5392082 0 0)
(0.48141228 0 0)
(0.42023883 0 0)
(0.35528643 0 0)
(0.28593704 0 0)
(0.21164458 0 0)
(0.1319061 0 0)
(0.045824959 0 0)
(0.59400264 0 0)
(0.64618379 0 0)
(0.69612286 0 0)
(0.74436412 0 0)
(0.79091113 0 0)
(0.83590678 0 0)
(0.8796207 0 0)
(0.92236109 0 0)
(0.96413083 0 0)
(1.0021878 0 0)
(1.0360982 0 0)
(1.0684187 0 0)
(1.0990631 0 0)
(1.1280033 0 0)
(1.1551587 0 0)
(1.1803953 0 0)
(1.2035693 0 0)
(1.2244962 0 0)
(1.2429567 0 0)
(1.258722 0 0)
(1.2715581 0 0)
(1.2812343 0 0)
(1.2875432 0 0)
(1.2903251 0 0)
(1.2894797 0 0)
(1.2849897 0 0)
(1.2769338 0 0)
(1.2654593 0 0)
(1.2508643 0 0)
(1.2335552 0 0)
(1.2140163 0 0)
(1.1928453 0 0)
(1.1707293 0 0)
(1.1484121 0 0)
(1.1267621 0 0)
(1.1067296 0 0)
(1.089583 0 0)
(1.0764903 0 0)
(1.0690727 0 0)
(0.59383447 0 0)
(0.53929418 0 0)
(0.48170923 0 0)
(0.42075557 0 0)
(0.35594039 0 0)
(0.28663505 0 0)
(0.21228329 0 0)
(0.13238313 0 0)
(0.046006774 0 0)
(0.64563473 0 0)
(0.69515456 0 0)
(0.74293736 0 0)
(0.78900356 0 0)
(0.83349554 0 0)
(0.8766912 0 0)
(0.91889587 0 0)
(0.96009726 0 0)
(1.0003845 0 0)
(1.0370005 0 0)
(1.0695049 0 0)
(1.1004334 0 0)
(1.129745 0 0)
(1.1573821 0 0)
(1.1832239 0 0)
(1.2071411 0 0)
(1.2289726 0 0)
(1.2485141 0 0)
(1.2655353 0 0)
(1.2798035 0 0)
(1.2910888 0 0)
(1.2991627 0 0)
(1.3038287 0 0)
(1.3049443 0 0)
(1.3024372 0 0)
(1.2963137 0 0)
(1.2866844 0 0)
(1.2737294 0 0)
(1.257764 0 0)
(1.2392167 0 0)
(1.2185757 0 0)
(1.1964515 0 0)
(1.1735241 0 0)
(1.150527 0 0)
(1.1283026 0 0)
(1.1078023 0 0)
(1.0902852 0 0)
(1.0769043 0 0)
(1.0692782 0 0)
(0.64546111 0 0)
(0.59393633 0 0)
(0.53962536 0 0)
(0.4822921 0 0)
(0.42152564 0 0)
(0.35680783 0 0)
(0.2874994 0 0)
(0.21304271 0 0)
(0.13293936 0 0)
(0.046214442 0 0)
(0.69457802 0 0)
(0.74191863 0 0)
(0.7875132 0 0)
(0.83150865 0 0)
(0.87419054 0 0)
(0.91586 0 0)
(0.95651372 0 0)
(0.99622776 0 0)
(1.0351835 0 0)
(1.0705078 0 0)
(1.1016424 0 0)
(1.1312678 0 0)
(1.1593159 0 0)
(1.1856777 0 0)
(1.2102492 0 0)
(1.2328859 0 0)
(1.2533926 0 0)
(1.2715526 0 0)
(1.2871402 0 0)
(1.2999185 0 0)
(1.3096548 0 0)
(1.3161373 0 0)
(1.3191785 0 0)
(1.3186532 0 0)
(1.3145154 0 0)
(1.3068058 0 0)
(1.2956619 0 0)
(1.2812841 0 0)
(1.2640183 0 0)
(1.2443014 0 0)
(1.2226308 0 0)
(1.1996192 0 0)
(1.1759488 0 0)
(1.15232 0 0)
(1.1295737 0 0)
(1.1086435 0 0)
(1.0907934 0 0)
(1.0771577 0 0)
(1.0693442 0 0)
(0.69440243 0 0)
(0.64557543 0 0)
(0.5943042 0 0)
(0.54027546 0 0)
(0.48315856 0 0)
(0.42254029 0 0)
(0.35787817 0 0)
(0.2885259 0 0)
(0.21391756 0 0)
(0.13356308 0 0)
(0.04644343 0 0)
(0.74131294 0 0)
(0.78645036 0 0)
(0.82995801 0 0)
(0.87212967 0 0)
(0.91326602 0 0)
(0.95337719 0 0)
(0.99254182 0 0)
(1.0309169 0 0)
(1.068677 0 0)
(1.1027494 0 0)
(1.1326088 0 0)
(1.161005 0 0)
(1.1878156 0 0)
(1.2129529 0 0)
(1.2362946 0 0)
(1.2576655 0 0)
(1.2768546 0 0)
(1.2936413 0 0)
(1.3077982 0 0)
(1.3190901 0 0)
(1.3272919 0 0)
(1.3321925 0 0)
(1.3336198 0 0)
(1.3314758 0 0)
(1.3257468 0 0)
(1.3164966 0 0)
(1.3038924 0 0)
(1.2881612 0 0)
(1.2696627 0 0)
(1.248849 0 0)
(1.2262163 0 0)
(1.2023851 0 0)
(1.1780278 0 0)
(1.1538221 0 0)
(1.130597 0 0)
(1.1092843 0 0)
(1.0911348 0 0)
(1.0772688 0 0)
(1.0692897 0 0)
(0.74112701 0 0)
(0.69453063 0 0)
(0.64598086 0 0)
(0.59502188 0 0)
(0.54123826 0 0)
(0.48430255 0 0)
(0.4237994 0 0)
(0.35915116 0 0)
(0.28970872 0 0)
(0.21490509 0 0)
(0.13426207 0 0)
(0.046634626 0 0)
(0.78582154 0 0)
(0.82885197 0 0)
(0.87052161 0 0)
(0.9111302 0 0)
(0.95069629 0 0)
(0.98931102 0 0)
(1.0271364 0 0)
(1.0643086 0 0)
(1.1009198 0 0)
(1.1338317 0 0)
(1.1624884 0 0)
(1.189681 0 0)
(1.2153066 0 0)
(1.2392664 0 0)
(1.2613972 0 0)
(1.2815036 0 0)
(1.2993794 0 0)
(1.3148001 0 0)
(1.3275302 0 0)
(1.3373377 0 0)
(1.3440056 0 0)
(1.3473365 0 0)
(1.3471712 0 0)
(1.3434411 0 0)
(1.3361601 0 0)
(1.3254238 0 0)
(1.3114222 0 0)
(1.2943999 0 0)
(1.2747396 0 0)
(1.252897 0 0)
(1.2293711 0 0)
(1.2047822 0 0)
(1.1797931 0 0)
(1.1550571 0 0)
(1.1314039 0 0)
(1.1097438 0 0)
(1.091326 0 0)
(1.0772565 0 0)
(1.0691101 0 0)
(0.78563131 0 0)
(0.74126376 0 0)
(0.69496921 0 0)
(0.64675797 0 0)
(0.59607852 0 0)
(0.54251034 0 0)
(0.48571689 0 0)
(0.42528911 0 0)
(0.36061425 0 0)
(0.29103953 0 0)
(0.21600172 0 0)
(0.13468351 0 0)
(0.046625812 0 0)
(0.82819785 0 0)
(0.8693752 0 0)
(0.90946087 0 0)
(0.94849075 0 0)
(0.98655376 0 0)
(1.0238209 0 0)
(1.0604332 0 0)
(1.0964483 0 0)
(1.1320092 0 0)
(1.1638384 0 0)
(1.1913177 0 0)
(1.2173613 0 0)
(1.2418541 0 0)
(1.2646539 0 0)
(1.2855769 0 0)
(1.3044266 0 0)
(1.3209931 0 0)
(1.3350483 0 0)
(1.3463541 0 0)
(1.3546827 0 0)
(1.3598274 0 0)
(1.3615972 0 0)
(1.3598588 0 0)
(1.3545739 0 0)
(1.3457886 0 0)
(1.3336188 0 0)
(1.3182799 0 0)
(1.3000375 0 0)
(1.2792837 0 0)
(1.2564827 0 0)
(1.2321282 0 0)
(1.2068385 0 0)
(1.1812697 0 0)
(1.1560552 0 0)
(1.1320156 0 0)
(1.1100457 0 0)
(1.0913881 0 0)
(1.0770365 0 0)
(1.0687897 0 0)
(0.82800072 0 0)
(0.78577789 0 0)
(0.74172149 0 0)
(0.69580067 0 0)
(0.64790739 0 0)
(0.5974755 0 0)
(0.54408149 0 0)
(0.48739463 0 0)
(0.42700677 0 0)
(0.36226259 0 0)
(0.29252035 0 0)
(0.2166167 0 0)
(0.13467054 0 0)
(0.046619607 0 0)
(0.86869653 0 0)
(0.9082699 0 0)
(0.94676638 0 0)
(0.98428131 0 0)
(1.0209925 0 0)
(1.057041 0 0)
(1.0924898 0 0)
(1.127443 0 0)
(1.1620267 0 0)
(1.1928029 0 0)
(1.219164 0 0)
(1.2441146 0 0)
(1.2674944 0 0)
(1.2891338 0 0)
(1.3088542 0 0)
(1.3264556 0 0)
(1.3417175 0 0)
(1.354407 0 0)
(1.3642891 0 0)
(1.3711403 0 0)
(1.3747629 0 0)
(1.3749879 0 0)
(1.3717039 0 0)
(1.3649045 0 0)
(1.3546618 0 0)
(1.3411193 0 0)
(1.3245091 0 0)
(1.3051119 0 0)
(1.2833346 0 0)
(1.2596413 0 0)
(1.2345167 0 0)
(1.2085843 0 0)
(1.1824896 0 0)
(1.1568417 0 0)
(1.1324546 0 0)
(1.1102092 0 0)
(1.0911072 0 0)
(1.0766243 0 0)
(1.0683348 0 0)
(0.86849245 0 0)
(0.82815123 0 0)
(0.7862579 0 0)
(0.74259935 0 0)
(0.69702793 0 0)
(0.64941522 0 0)
(0.5991961 0 0)
(0.54594538 0 0)
(0.48932367 0 0)
(0.42893875 0 0)
(0.36409403 0 0)
(0.29332353 0 0)
(0.21657886 0 0)
(0.13465536 0 0)
(0.046609765 0 0)
(0.90756202 0 0)
(0.94553669 0 0)
(0.98250714 0 0)
(1.0186596 0 0)
(1.0541413 0 0)
(1.0890218 0 0)
(1.1234063 0 0)
(1.1573765 0 0)
(1.1910123 0 0)
(1.2207925 0 0)
(1.2460959 0 0)
(1.2699763 0 0)
(1.2922432 0 0)
(1.3127303 0 0)
(1.3312545 0 0)
(1.3476095 0 0)
(1.3615677 0 0)
(1.3728917 0 0)
(1.3813475 0 0)
(1.3867233 0 0)
(1.3888374 0 0)
(1.3875341 0 0)
(1.3827333 0 0)
(1.3744595 0 0)
(1.3628146 0 0)
(1.3479574 0 0)
(1.3301407 0 0)
(1.3096597 0 0)
(1.2869262 0 0)
(1.2624004 0 0)
(1.2365677 0 0)
(1.2100525 0 0)
(1.1834798 0 0)
(1.1574368 0 0)
(1.1327435 0 0)
(1.1098533 0 0)
(1.0905293 0 0)
(1.0760919 0 0)
(1.06774 0 0)
(0.9073447 0 0)
(0.86864612 0 0)
(0.82865015 0 0)
(0.78717812 0 0)
(0.74388809 0 0)
(0.69863433 0 0)
(0.65127947 0 0)
(0.60123892 0 0)
(0.54808974 0 0)
(0.49149845 0 0)
(0.43108446 0 0)
(0.36507563 0 0)
(0.29327821 0 0)
(0.21654624 0 0)
(0.13463806 0 0)
(0.046599331 0 0)
(0.94480538 0 0)
(0.98123781 0 0)
(1.0168379 0 0)
(1.0517537 0 0)
(1.0860619 0 0)
(1.1198689 0 0)
(1.1532643 0 0)
(1.1862843 0 0)
(1.2190352 0 0)
(1.2478808 0 0)
(1.2721495 0 0)
(1.2949599 0 0)
(1.3161207 0 0)
(1.3354656 0 0)
(1.3528002 0 0)
(1.3679084 0 0)
(1.3805583 0 0)
(1.3905116 0 0)
(1.3975409 0 0)
(1.4014454 0 0)
(1.4020592 0 0)
(1.399252 0 0)
(1.3929702 0 0)
(1.3832707 0 0)
(1.3702777 0 0)
(1.3541714 0 0)
(1.3352156 0 0)
(1.313717 0 0)
(1.290087 0 0)
(1.2647927 0 0)
(1.2383167 0 0)
(1.2112716 0 0)
(1.1842611 0 0)
(1.1578685 0 0)
(1.1323015 0 0)
(1.1090525 0 0)
(1.0898524 0 0)
(1.0754311 0 0)
(1.0670068 0 0)
(0.94457979 0 0)
(0.90749763 0 0)
(0.86915987 0 0)
(0.82960367 0 0)
(0.78852726 0 0)
(0.74558422 0 0)
(0.70061986 0 0)
(0.65348151 0 0)
(0.60358478 0 0)
(0.55050227 0 0)
(0.49391196 0 0)
(0.43222461 0 0)
(0.36502851 0 0)
(0.29323293 0 0)
(0.21650897 0 0)
(0.13461071 0 0)
(0.046583829 0 0)
(0.98048265 0 0)
(1.015534 0 0)
(1.0498835 0 0)
(1.0836214 0 0)
(1.1168531 0 0)
(1.1496662 0 0)
(1.182105 0 0)
(1.2142328 0 0)
(1.2461646 0 0)
(1.2741037 0 0)
(1.2973394 0 0)
(1.319087 0 0)
(1.3391518 0 0)
(1.3573592 0 0)
(1.3735052 0 0)
(1.3873651 0 0)
(1.398701 0 0)
(1.4072794 0 0)
(1.4128817 0 0)
(1.4153216 0 0)
(1.4144532 0 0)
(1.4101668 0 0)
(1.402443 0 0)
(1.3913665 0 0)
(1.3770869 0 0)
(1.3597939 0 0)
(1.3397656 0 0)
(1.3173098 0 0)
(1.2928494 0 0)
(1.2668557 0 0)
(1.2397935 0 0)
(1.2122656 0 0)
(1.1848637 0 0)
(1.1573334 0 0)
(1.1312343 0 0)
(1.1081797 0 0)
(1.0890691 0 0)
(1.0746439 0 0)
(1.0661286 0 0)
(0.98024497 0 0)
(0.94473408 0 0)
(0.90801977 0 0)
(0.87014325 0 0)
(0.83100835 0 0)
(0.79030368 0 0)
(0.74767308 0 0)
(0.70296345 0 0)
(0.65601527 0 0)
(0.60622678 0 0)
(0.55318557 0 0)
(0.49518073 0 0)
(0.43216741 0 0)
(0.3649805 0 0)
(0.29318092 0 0)
(0.21646372 0 0)
(0.13457376 0 0)
(0.04656478 0 0)
(1.0147557 0 0)
(1.0485451 0 0)
(1.0817127 0 0)
(1.1143645 0 0)
(1.1465948 0 0)
(1.1784518 0 0)
(1.2099964 0 0)
(1.2412971 0 0)
(1.272437 0 0)
(1.2994751 0 0)
(1.3216861 0 0)
(1.3423806 0 0)
(1.3613586 0 0)
(1.37843 0 0)
(1.393383 0 0)
(1.4059863 0 0)
(1.4160014 0 0)
(1.4232004 0 0)
(1.4273784 0 0)
(1.4283638 0 0)
(1.4260307 0 0)
(1.4202993 0 0)
(1.4111776 0 0)
(1.3987802 0 0)
(1.3832738 0 0)
(1.3648621 0 0)
(1.3438187 0 0)
(1.3204723 0 0)
(1.2952537 0 0)
(1.2686195 0 0)
(1.2410236 0 0)
(1.213063 0 0)
(1.1842482 0 0)
(1.1559695 0 0)
(1.130126 0 0)
(1.1072309 0 0)
(1.088179 0 0)
(1.0737208 0 0)
(1.0651087 0 0)
(1.0145091 0 0)
(0.98039608 0 0)
(0.9452666 0 0)
(0.90903123 0 0)
(0.87159477 0 0)
(0.83285292 0 0)
(0.79249043 0 0)
(0.75014669 0 0)
(0.70565976 0 0)
(0.65886258 0 0)
(0.60916229 0 0)
(0.55458105 0 0)
(0.49510446 0 0)
(0.43211329 0 0)
(0.36492288 0 0)
(0.29311376 0 0)
(0.21640822 0 0)
(0.1345225 0 0)
(0.046538573 0 0)
(1.0477418 0 0)
(1.0803425 0 0)
(1.1124202 0 0)
(1.1440643 0 0)
(1.1753327 0 0)
(1.2062917 0 0)
(1.2370095 0 0)
(1.2675161 0 0)
(1.2978735 0 0)
(1.3240157 0 0)
(1.3452091 0 0)
(1.3648631 0 0)
(1.382756 0 0)
(1.3986897 0 0)
(1.4124425 0 0)
(1.4237789 0 0)
(1.4324659 0 0)
(1.4382848 0 0)
(1.4410431 0 0)
(1.4405876 0 0)
(1.4368172 0 0)
(1.4296761 0 0)
(1.4192045 0 0)
(1.4055422 0 0)
(1.3888749 0 0)
(1.3693971 0 0)
(1.3474069 0 0)
(1.3232462 0 0)
(1.2973311 0 0)
(1.2701117 0 0)
(1.2420369 0 0)
(1.2123841 0 0)
(1.1825815 0 0)
(1.1545982 0 0)
(1.1289754 0 0)
(1.1061994 0 0)
(1.0871747 0 0)
(1.0726671 0 0)
(1.0639389 0 0)
(1.0474817 0 0)
(1.0146569 0 0)
(0.98093464 0 0)
(0.94630301 0 0)
(0.91052302 0 0)
(0.87350111 0 0)
(0.83513136 0 0)
(0.79508307 0 0)
(0.75298841 0 0)
(0.70868863 0 0)
(0.66202524 0 0)
(0.61068378 0 0)
(0.55449811 0 0)
(0.49503613 0 0)
(0.43203882 0 0)
(0.36484218 0 0)
(0.29303015 0 0)
(0.21633532 0 0)
(0.13445426 0 0)
(0.04650492 0 0)
(1.0795199 0 0)
(1.1110231 0 0)
(1.1420821 0 0)
(1.1727647 0 0)
(1.2031328 0 0)
(1.2332598 0 0)
(1.2631829 0 0)
(1.2929052 0 0)
(1.322482 0 0)
(1.3477331 0 0)
(1.3679354 0 0)
(1.3865513 0 0)
(1.4033552 0 0)
(1.4181443 0 0)
(1.4306862 0 0)
(1.440747 0 0)
(1.4481008 0 0)
(1.4525397 0 0)
(1.4538868 0 0)
(1.4520083 0 0)
(1.4468287 0 0)
(1.4383215 0 0)
(1.4265517 0 0)
(1.4116869 0 0)
(1.3939092 0 0)
(1.3734346 0 0)
(1.3505756 0 0)
(1.3256633 0 0)
(1.2991101 0 0)
(1.2713621 0 0)
(1.2413023 0 0)
(1.2104172 0 0)
(1.1809461 0 0)
(1.1532218 0 0)
(1.1277722 0 0)
(1.1050851 0 0)