/*--------------------------------*- C++ -*----------------------------------*\
| =========                 |                                                 |
| \\      /  F ield         | OpenFOAM: The Open Source CFD Toolbox           |
|  \\    /   O peration     | Version:  v2012                                 |
|   \\  /    A nd           | Website:  www.openfoam.com                      |
|    \\/     M anipulation  |                                                 |
\*---------------------------------------------------------------------------*/
FoamFile
{
    version     2.0;
    format      ascii;
    class       surfaceScalarField;
    location    "2.360403";
    object      meshPhi;
}
// * * * * * * * * * * * * * * * * * * * * * * * * * * * * * * * * * * * * * //

dimensions      [0 3 -1 0 0 0 0];
oriented        oriented;


internalField   nonuniform List<scalar> 
18180
(
0
-0.040041388
0
-0.036097078
0
-0.079723714
0
-0.032458454
0
-0.072295343
0
-0.11958815
0
-0.029866955
4.909637e-14
-0.065136554
0
-0.10899931
0
-0.15827979
-2.5363786e-14
-0.027958746
-2.453339e-14
-0.059447186
-4.7411303e-14
-0.098473313
0
-0.14521241
0
-0.19520819
0
-0.026485091
1.5929383e-17
-0.055399648
0
-0.089798842
0
-0.13211672
0
-0.18011088
0
-0.22940393
0
-0.025262708
2.4487439e-14
-0.052349026
2.369468e-14
-0.083183514
-2.2894423e-14
-0.12069393
0
-0.1651207
0
-0.21292419
0
-0.26168782
-2.5332631e-14
-0.024135394
2.4489401e-14
-0.04976849
2.3664896e-14
-0.078116497
-4.5762781e-14
-0.11150654
0
-0.15156816
3.2270266e-17
-0.19666635
0
-0.24380183
3.9975954e-14
-0.29169798
0
-0.023092405
-2.445953e-14
-0.047479858
-2.36515e-14
-0.074041682
2.2868124e-14
-0.10429079
2.2142408e-14
-0.14020669
2.1390382e-14
-0.18170849
-4.132138e-14
-0.22646168
0
-0.27249875
3.8618308e-14
-0.31977774
0
-0.022102248
0
-0.045338622
-2.3655361e-14
-0.070498541
2.2871588e-14
-0.098484015
0
-0.13097088
1.6498655e-17
-0.16870531
2.0650023e-14
-0.21034255
2.8550159e-17
-0.25420296
0
-0.29922386
-3.7282116e-14
-0.34561218
0
-0.021151965
0
-0.043280751
-1.668531e-17
-0.067218586
0
-0.09349597
0
-0.12325118
0
-0.15763603
-2.0638054e-14
-0.19606118
-1.9949262e-14
-0.23714665
0
-0.27995479
0
-0.32396241
0
-0.36993319
0
-0.020230545
0
-0.041278972
0
-0.064071932
0
-0.08895278
0
-0.11661173
-2.1336848e-14
-0.14820648
-2.0641598e-14
-0.18359355
-1.9937327e-14
-0.22174901
-1.9284774e-14
-0.26198066
0
-0.30381064
0
-0.34705966
-3.478745e-14
-0.3925062
-1.2638064e-14
-0.019334341
0
-0.039323123
0
-0.061004053
0
-0.084657107
0
-0.11064712
0
-0.13989864
-4.1242132e-14
-0.17253327
-1.9939911e-14
-0.20793572
-1.9259189e-14
-0.2455566
0
-0.28497252
2.2624831e-17
-0.32591252
0
-0.3684586
0
-0.41361078
9.8617047e-18
-0.018459458
-8.9875707e-18
-0.037406683
0
-0.058002345
0
-0.08050134
0
-0.10503537
0
-0.13232357
0
-0.16253974
0
-0.19535306
-1.9260486e-14
-0.23050948
1.2876448e-17
-0.26759779
1.7992103e-14
-0.30617596
0
-0.34635348
0
-0.38833629
0
-0.43303618
1.0047433e-17
-0.017599918
2.4410657e-14
-0.035530038
-1.1804653e-14
-0.055064349
0
-0.076460737
0
-0.099664542
0
-0.12527971
0
-0.1534269
0
-0.18383716
-1.9233524e-14
-0.21661906
0
-0.25155749
3.5971858e-14
-0.28796689
1.7366704e-14
-0.32575512
0
-0.36523279
0
-0.40673759
-3.1346741e-14
-0.45127564
-1.2627875e-14
-0.016751332
9.1346606e-18
-0.033692668
0
-0.052195098
1.1398996e-14
-0.072533501
0
-0.094477795
0
-0.11860227
-2.0579821e-14
-0.14500879
0
-0.17332389
0
-0.20380966
-1.8576806e-14
-0.23658407
0
-0.2710365
0
-0.30673171
0
-0.34376741
3.244043e-14
-0.38269643
0
-0.42388613
0
-0.46819473
0
-0.015913069
0
-0.031897429
-1.1781068e-14
-0.049404005
1.13959e-14
-0.06872755
0
-0.089465647
0
-0.11219778
0
-0.13709333
1.9892819e-14
-0.16362247
0
-0.19195275
1.8563748e-14
-0.22258188
1.2397745e-17
-0.2551458
0
-0.28902256
-1.6760052e-14
-0.32398902
0
-0.36037973
0
-0.39885453
0
-0.43979452
2.925349e-14
-0.48399634
-1.2623193e-14
-0.015085838
0
-0.030147567
-1.1787671e-14
-0.046699737
8.9063077e-18
-0.06505416
0
-0.084633693
0
-0.10603581
0
-0.12955777
1.9883246e-14
-0.15454817
-1.9197869e-14
-0.18099657
0
-0.20957904
0
-0.24020201
0
-0.27229634
-1.675639e-14
-0.30555384
0
-0.33986014
0
-0.37565867
0
-0.41382651
2.9239913e-14
-0.45455492
-2.8238494e-14
-0.49854827
1.2610732e-14
-0.014268126
0
-0.028447783
1.1794762e-14
-0.044088432
0
-0.061523255
-1.1008266e-14
-0.079995135
1.0645399e-14
-0.10011284
0
-0.12233957
0
-0.14596629
0
-0.17079085
-1.8539569e-14
-0.19745154
0
-0.22611572
0
-0.25641496
0
-0.28804471
1.6171471e-14
-0.32074085
8.5042518e-18
-0.35440958
1.5116134e-14
-0.38976408
0
-0.42764581
2.82248e-14
-0.46822756
0
-0.5121619
0
-0.013460332
-1.2199061e-14
-0.026801935
0
-0.04157632
0
-0.05814047
0
-0.075558136
0
-0.094434353
8.1164902e-18
-0.11542419
0
-0.13778437
0
-0.16115287
0
-0.18608489
1.791478e-14
-0.21285723
0
-0.24132072
0
-0.2712902
-1.6156645e-14
-0.30250993
0
-0.33463718
1.5102151e-14
-0.36776839
0
-0.4027233
1.2892009e-17
-0.44042252
0
-0.48090959
1.1140171e-17
-0.52476252
1.2607658e-14
-0.012664127
1.2197807e-14
-0.025213641
-9.1839043e-18
-0.039169515
-9.2879877e-18
-0.054905829
-1.1004067e-14
-0.071325632
0
-0.089006194
-1.0271549e-14
-0.10880888
-9.9224142e-15
-0.12997481
0
-0.15200425
0
-0.1754014
0
-0.20043799
0
-0.22706309
0
-0.25532403
-1.6151519e-14
-0.28503681
-1.5600754e-14
-0.31577836
0
-0.34736531
7.1219326e-18
-0.37999854
6.4313968e-18
-0.41463052
0
-0.45217007
0
-0.49263957
0
-0.53647748
0
-0.011882604
0
-0.023686474
1.17908e-14
-0.036872652
0
-0.051819609
-8.5935615e-18
-0.067297629
8.0701054e-18
-0.08383575
8.1767868e-18
-0.10249768
9.9272026e-15
-0.12252764
7.0494431e-18
-0.14329401
-6.5728974e-18
-0.16530105
0
-0.18880315
0
-0.21371356
0
-0.24023207
0
-0.26834685
0
-0.29766009
0
-0.32791525
0
-0.3589825
1.408147e-14
-0.39116072
0
-0.42550276
0
-0.46299782
0
-0.50345548
-2.4558386e-14
-0.54724873
1.260547e-14
-0.011122163
0
-0.022223104
0
-0.03468858
-1.1384666e-14
-0.048880184
0
-0.063474902
-1.0636849e-14
-0.078931047
1.027532e-14
-0.096496988
-9.9246611e-15
-0.11544082
9.5854303e-15
-0.13500265
-9.2513575e-15
-0.15571186
-8.941837e-15
-0.17784504
0
-0.20121744
-1.6676647e-14
-0.22601356
0
-0.25249728
0
-0.28035889
0
-0.30923361
1.4551695e-14
-0.33898176
0
-0.36954071
5.8736552e-18
-0.40130369
1.3138105e-14
-0.43545497
0
-0.4729111
0
-0.51344591
2.3722999e-14
-0.55727623
-6.2969452e-15
-0.010388342
-4.7031871e-18
-0.020826628
0
-0.032617147
0
-0.046085429
0
-0.059852148
0
-0.074291648
1.0265384e-14
-0.090811184
0
-0.10871445
0
-0.12712015
0
-0.14659971
-8.9314252e-15
-0.16747736
1.7258327e-14
-0.18947745
0
-0.2126943
0
-0.2375601
9.3081464e-18
-0.26392755
0
-0.29137813
-1.4535481e-14
-0.31977447
1.4049431e-14
-0.34901629
-1.3580908e-14
-0.37908486
5.3120382e-18
-0.41051017
1.2691221e-14
-0.44451009
2.4534228e-14
-0.48202452
0
-0.52266045
2.2906479e-14
-0.56654213
-6.3073053e-15
-0.0096844779
-6.0925679e-15
-0.019499021
5.8943214e-15
-0.030653944
1.1382829e-14
-0.04342764
1.1007629e-14
-0.056418574
7.9354547e-18
-0.069910792
0
-0.085435923
0
-0.10234328
0
-0.11964251
0
-0.13794749
0
-0.15764315
-8.615945e-15
-0.17840224
-5.3029822e-18
-0.20020651
0
-0.22348989
0
-0.24832043
-1.5016388e-14
-0.27436845
0
-0.30139868
0
-0.32932109
1.3564232e-14
-0.35805325
0
-0.38770147
0
-0.41884427
0
-0.45275248
0
-0.49034773
0
-0.53116884
7.5229504e-18
-0.57511799
-6.3069761e-15
-0.0090131596
6.0970394e-15
-0.018240709
1.7677423e-14
-0.028795323
-5.6960522e-15
-0.040900498
0
-0.05316303
0
-0.06577689
1.0270975e-14
-0.080359514
0
-0.09631884
9.5710782e-15
-0.1125608
0
-0.12974242
0
-0.14831719
-8.6176714e-15
-0.16791481
-8.3221733e-15
-0.18843068
0
-0.2102464
0
-0.23353111
0
-0.25814173
-1.4495778e-14
-0.28384523
0
-0.31045887
0
-0.33789687
0
-0.36617517
0
-0.39545618
-1.2235254e-14
-0.42635713
0
-0.46021797
2.287392e-14
-0.4979915
0
-0.53898189
-2.1347879e-14
-0.58299495
-6.301404e-15
-0.0083776997
6.0920575e-15
-0.017051407
0
-0.027038612
5.0488195e-18
-0.038497718
5.498655e-15
-0.050073964
0
-0.06188171
0
-0.075570711
9.9177031e-15
-0.090624707
0
-0.10586374
9.2400996e-15
-0.12197406
0
-0.1394813
0
-0.15797915
-8.3124675e-15
-0.17730157
0
-0.1977913
-1.5520175e-14
-0.21960032
0
-0.24270587
0
-0.26707638
-1.3992878e-14
-0.29245406
0
-0.31860338
5.4672009e-18
-0.34557808
0
-0.37344604
-1.2223328e-14
-0.40240121
0
-0.43312014
0
-0.46700498
0
-0.50496064
0
-0.54619457
0
-0.59029174
-5.2450037e-18
-0.0077804
0
-0.015929818
-4.9578959e-18
-0.025380064
-5.6905135e-15
-0.03621529
4.4873337e-18
-0.047140431
5.3119382e-15
-0.058210546
0
-0.071058361
-9.9165833e-15
-0.085246616
9.5748297e-15
-0.099535983
0
-0.11463037
-8.9253667e-15
-0.131123
0
-0.1485715
0
-0.1667641
4.9464935e-18
-0.18604602
0
-0.20651752
-7.4915226e-15
-0.22814045
0
-0.25108513
0
-0.27523151
0
-0.30018245
0
-0.32587694
1.2620643e-14
-0.35242619
0
-0.37992258
0
-0.4086092
3.4588895e-18
-0.43920077
-1.1027374e-14
-0.47314852
-2.1317692e-14
-0.51135664
0
-0.55282266
0
-0.59702131
0
-0.0072221972
-6.0964622e-15
-0.014876722
5.0202929e-18
-0.023815587
-5.1520727e-18
-0.034048455
0
-0.044353872
-5.311638e-15
-0.054750086
-4.1638469e-18
-0.066809075
0
-0.080166801
0
-0.093561634
0
-0.10769784
0
-0.12322681
-8.6139831e-15
-0.13967229
0
-0.1567852
0
-0.17494279
-7.7471026e-15
-0.19421266
4.1847354e-18
-0.21445393
7.2260551e-15
-0.23589369
0
-0.25875141
0
-0.28260779
0
-0.30709413
0
-0.33234268
-1.2188331e-14
-0.35849898
3.7973036e-18
-0.38567689
1.1390508e-14
-0.41415448
1.1016307e-14
-0.44467127
-2.1297177e-14
-0.47871583
0
-0.51718497
0
-0.55894041
5.4238393e-18
-0.60321176
6.3063782e-15
-0.0066981187
0
-0.013892164
0
-0.022340013
-5.6900993e-15
-0.031994063
5.4978845e-15
-0.04170816
0
-0.051485036
0
-0.06280583
-4.9574221e-15
-0.075369848
-9.5654259e-15
-0.087921798
0
-0.10115378
6.4076785e-18
-0.11577589
0
-0.13126461
-8.312609e-15
-0.14733869
8.0246084e-15
-0.16443663
0
-0.18261165
-7.4759305e-15
-0.20160442
0
-0.2215982
-6.9772666e-15
-0.24305425
0
-0.26576441
0
-0.28917517
-1.2590298e-14
-0.3132082
0
-0.33805618
0
-0.36386593
1.1376705e-14
-0.39078685
1.099739e-14
-0.41910743
2.7635526e-18
-0.44956884
-2.6099807e-18
-0.48374507
-1.9871827e-14
-0.52253595
0
-0.56453724
0
-0.60887979
-3.0336963e-05
-0.007279923
-6.0964367e-15
-0.012967236
0
-0.020949553
0
-0.030045854
4.5677558e-18
-0.03919641
-3.9704266e-18
-0.048402511
1.0263074e-14
-0.059030238
4.9570845e-15
-0.07083678
-3.4883363e-18
-0.082595743
0
-0.094977344
0
-0.10874771
0
-0.12332954
0
-0.138405
0
-0.15449586
0
-0.17165458
0
-0.18952459
7.2177072e-15
-0.20818879
-6.9671517e-15
-0.22816309
-3.2045128e-18
-0.24958124
0
-0.27197714
0
-0.29496013
0
-0.31859315
0
-0.34308409
1.1355442e-14
-0.36860694
1.0983342e-14
-0.39532025
-2.6786379e-18
-0.42350765
1.0268751e-14
-0.45396171
9.9249221e-15
-0.48830708
0
-0.52740884
0
-0.56969649
0
-0.61409059
-5.054839e-05
-0.0071945985
-8.6489407e-05
-0.01407954
0
-0.019634416
0
-0.028197743
0
-0.036811204
3.9904489e-18
-0.045487895
5.1292103e-15
-0.055468505
4.1634841e-18
-0.066551804
0
-0.077565739
4.6165438e-15
-0.089144074
0
-0.10211717
0
-0.11584767
8.3075051e-15
-0.1299636
0
-0.14509113
7.7346939e-15
-0.16130298
0
-0.17813875
0
-0.1955892
6.9677478e-15
-0.21415478
6.7263712e-15
-0.23416179
6.4949809e-15
-0.25539511
0
-0.27742343
0
-0.30003996
0
-0.3233208
0
-0.3475089
1.0965468e-14
-0.37278901
1.0603514e-14
-0.39932132
0
-0.42742361
9.9139846e-15
-0.45789346
-9.5820429e-15
-0.49243421
1.8526155e-14
-0.53188179
0
-0.57441508
0
-0.61887301
-6.2004336e-05
-0.0071119519
-0.00014480062
-0.014052556
-0.00013924513
-0.02123481
0
-0.026438249
0
-0.034546283
0
-0.042731578
0
-0.052106365
-4.9565494e-15
-0.062503055
0
-0.072815432
4.6223945e-15
-0.083634571
-4.4587182e-15
-0.095859941
8.6060585e-15
-0.10879436
0
-0.12199403
0
-0.13619831
0
-0.15152232
-7.4667731e-15
-0.16740117
0
-0.18374336
0
-0.20102952
3.048325e-18
-0.21962611
0
-0.2395121
-6.2704229e-15
-0.2604681
0
-0.2821977
0
-0.30448747
1.1322178e-14
-0.32746666
0
-0.35139455
0
-0.37645969
0
-0.40285801
-9.8969444e-15
-0.43090276
0
-0.46142789
-9.2526819e-15
-0.49617915
0
-0.53595864
0
-0.57875877
3.8219749e-18
-0.62322901
-6.6028687e-05
-0.0070374555
-0.00017841841
-0.014020353
-0.00023425379
-0.021331232
-0.00019020795
-0.028382881
0
-0.032388322
0
-0.040125869
0
-0.048934063
-4.9521758e-15
-0.058678644
4.781292e-15
-0.068330211
0
-0.078429181
3.2797249e-18
-0.089954065
-4.3023482e-15
-0.10214769
8.2984663e-15
-0.11447669
0
-0.12779504
0
-0.14228337
7.4632335e-15
-0.15727433
-7.1997695e-15
-0.17258945
-6.9505156e-15
-0.18871389
0
-0.20601163
-6.4810611e-15
-0.22451929
1.252334e-14
-0.24420039
-6.0509029e-15
-0.26491594
0
-0.28636555
0
-0.30838137
1.0928691e-14
-0.33109791
0
-0.35479003
0
-0.37968386
9.8827842e-15
-0.40597925
-9.5567999e-15
-0.43400381
9.2402985e-15
-0.4645937
-8.9324265e-15
-0.49957353
3.586993e-18
-0.53971197
0
-0.58271131
0
-0.6271893
-6.3874142e-05
-0.0069722873
-0.00019075241
-0.013990083
-0.00028994061
-0.021411853
-0.00032060121
-0.028592293
-0.00023423779
-0.034517844
0
-0.037652119
0
-0.045941954
0
-0.055067144
3.4158067e-18
-0.064095336
-4.618583e-15
-0.073512772
0
-0.08437979
-4.2986775e-15
-0.095884024
4.1484629e-15
-0.10739133
0
-0.11986151
0
-0.13355817
0
-0.1477214
-7.1994871e-15
-0.16208403
0
-0.17714636
2.9242947e-18
-0.19327679
0
-0.21050495
6.2558394e-15
-0.22884409
-6.040964e-15
-0.24834316
-5.8390725e-15
-0.2688371
0
-0.29002979
0
-0.31178738
-1.0546429e-14
-0.33426139
0
-0.35775659
0
-0.38251211
0
-0.40873797
0
-0.43675215
1.5729519e-18
-0.46744376
-8.6214413e-15
-0.50268692
1.6666164e-14
-0.54314561
0
-0.58634352
0
-0.63078688
-5.673039e-05
-0.0069173186
-0.00018517468
-0.013962711
-0.00031124388
-0.02148303
-0.00039746813
-0.02877357
-0.00039492024
-0.034866628
-0.0002692157
-0.039888049
0
-0.043107588
0
-0.051656549
0
-0.060095513
2.9951557e-18
-0.068869533
-3.3265539e-18
-0.079116774
-4.2981306e-15
-0.089982247
4.1502741e-15
-0.10071654
-2.3970382e-18
-0.112376
0
-0.12532242
0
-0.13871054
7.196052e-15
-0.15218242
-3.068241e-18
-0.16626781
0
-0.1813489
6.4718783e-15
-0.19742439
0
-0.21449958
6.0358587e-15
-0.23271574
5.8311132e-15
-0.25204225
-1.706431e-18
-0.27228225
0
-0.29323708
1.0527933e-14
-0.31476183
0
-0.33701723
0
-0.36034726
0
-0.38499378
0
-0.41115849
8.9055805e-15
-0.43920078
1.4144424e-18
-0.47002735
-1.6646704e-14
-0.50554779
0
-0.54631753
0
-0.58964259
0
-0.63405656
-4.5717776e-05
-0.0068729271
-0.00016493796
-0.013938958
-0.0003032245
-0.021544801
-0.00042736267
-0.028936147
-0.00048980676
-0.035172317
-0.00045429
-0.040441249
-0.00029949251
-0.045343011
0
-0.048420269
0
-0.056316632
0
-0.064486556
4.4572036e-15
-0.074145845
-4.3008034e-15
-0.084419154
0
-0.094431388
0
-0.1053192
0
-0.11755353
0
-0.13021261
0
-0.14284812
0
-0.15602809
0
-0.17015463
0
-0.18519707
-6.2409519e-15
-0.20112299
0
-0.21809093
0
-0.23619436
-5.6247801e-15
-0.25531048
-5.4375081e-15
-0.27531955
1.0509712e-14
-0.29605358
0
-0.31734912
0
-0.33941479
0
-0.36260759
0
-0.3871548
0
-0.41329343
-1.2912402e-18
-0.44138843
-8.3119785e-15
-0.47239389
-8.0339114e-15
-0.5081944
0
-0.54922299
1.4999803e-14
-0.59266439
1.4484093e-14
-0.63699009
-3.1910275e-05
-0.0068393937
-0.00013322956
-0.013919259
-0.0002708884
-0.021597246
-0.00041694004
-0.029080283
-0.00052684075
-0.035447045
-0.00056388148
-0.0409327
-0.00050567909
-0.046066135
-0.00032692527
-0.050528249
0
-0.052732757
0
-0.060355474
0
-0.069454515
3.2056801e-18
-0.079173843
-2.4066327e-18
-0.088516739
0
-0.098672488
0
-0.1102278
-2.2683097e-18
-0.12220227
0
-0.13404752
0
-0.14638049
-6.6925853e-15
-0.15963401
6.4621029e-15
-0.17374407
6.2355264e-15
-0.18863358
0
-0.20444707
-5.8145393e-15
-0.2213608
1.7880835e-18
-0.23932266
0
-0.25820457
5.245991e-15
-0.27799052
0
-0.29851034
9.8107133e-15
-0.31960041
0
-0.34149846
0
-0.36456461
0
-0.38904399
1.1938141e-18
-0.41517229
0
-0.44335893
-8.02382e-15
-0.4745653
0
-0.51063926
1.4988264e-14
-0.55190933
0
-0.59538379
2.3429605e-18
-0.63962107
-1.6337179e-05
-0.0068171411
-9.3141939e-05
-0.013903942
-0.00021933256
-0.021640044
-0.00037298303
-0.029205625
-0.00051419899
-0.035690599
-0.00060694918
-0.041372243
-0.00062795597
-0.046709879
-0.00055159778
-0.051390037
-0.00034787738
-0.054623699
-4.6178754e-15
-0.056457125
0
-0.065032809
0
-0.074227284
0
-0.082952713
-2.2896544e-18
-0.092418925
0
-0.10332381
0
-0.11465158
0
-0.12575152
0
-0.13728905
0
-0.1497343
0
-0.16299209
-1.2463603e-14
-0.17694683
0
-0.1917168
5.8099641e-15
-0.20748632
0
-0.22431934
0
-0.24209367
0
-0.26075231
5.0627622e-15
-0.28033837
0
-0.30065744
0
-0.32155231
9.159182e-15
-0.3432949
0
-0.36626372
0
-0.39068878
-8.2860989e-15
-0.4168339
0
-0.44513444
1.075033e-18
-0.47656824
0
-0.5129139
1.4466319e-14
-0.55436028
0
-0.59786002
1.3490276e-14
-0.64196684
-0.0068062057
0
-4.773383e-05
-0.01389335
-0.00015361055
-0.021672989
-0.00030233711
-0.029311373
-0.00046019463
-0.035902699
-0.00059274288
-0.041757969
-0.00067618442
-0.047282905
-0.00068456637
-0.052149723
-0.00058650367
-0.055649715
-0.00036175826
-0.058078442
0
-0.060861834
0
-0.069560682
0
-0.077717303
2.2476974e-18
-0.086538586
0
-0.096821916
0
-0.10753597
0
-0.11793337
-3.4663098e-15
-0.12872113
0
-0.14041393
0
-0.15288545
0
-0.16598185
-6.0097273e-15
-0.17980836
-5.8039464e-15
-0.19451926
-5.602902e-15
-0.21024056
-5.4137132e-15
-0.22696771
-5.2292659e-15
-0.24454891
5.0552661e-15
-0.26299777
-4.8871058e-15
-0.28239701
0
-0.30252742
0
-0.32323684
-8.840466e-15
-0.34484658
0
-0.36773297
0
-0.39212377
-7.999179e-15
-0.41829638
7.7344097e-15
-0.44674516
7.4774189e-15
-0.47842642
-7.2249706e-15
-0.51502648
1.396202e-14
-0.55661296
0
-0.60007142
0
-0.64406067
-0.013887646
0
-0.0068060285
1.6336329e-05
-7.8809681e-05
-0.021695991
-0.0002119534
-0.029396831
-0.00037319726
-0.036081747
-0.00053074834
-0.042088904
-0.00066055157
-0.047781575
-0.0007366791
-0.052823383
-0.00072732934
-0.056552593
-0.00060975491
-0.059285529
-0.00037467727
-0.062235159
-4.2997596e-15
-0.065137314
0
-0.072790983
0
-0.081014415
-3.8581528e-15
-0.090701792
-2.3918162e-18
-0.10083101
3.5920196e-15
-0.11056775
-3.4638107e-15
-0.12064935
-3.3431221e-15
-0.13163759
0
-0.14337796
0
-0.15567765
2.1020542e-18
-0.16864449
-5.7965602e-15
-0.18239821
-1.742865e-18
-0.19706003
-5.4050451e-15
-0.21273819
0
-0.22934843
-1.0092693e-14
-0.24672875
0
-0.2649781
0
-0.28420902
0
-0.30414974
0
-0.32468557
8.5353705e-15
-0.34618124
0
-0.36900367
0
-0.39336306
8.0137875e-19
-0.41959567
-7.4668797e-15
-0.44822721
9.3206058e-19
-0.48016908
6.973354e-15
-0.51697821
0
-0.55864913
0
-0.60206785
1.2562619e-14
-0.64588827
-0.021709003
0
-0.013886979
4.772994e-05
-0.0068163982
3.1904986e-05
-0.00010882724
-0.029461908
-0.00026175091
-0.036226334
-0.00043059152
-0.042363334
-0.00059151712
-0.048203645
-0.00071922232
-0.053407238
-0.00078218191
-0.057348789
-0.00075595776
-0.060350825
-0.00063151132
-0.063656707
-0.00038809522
-0.066228539
0
-0.068137062
0
-0.075830528
0
-0.084947474
2.4345912e-18
-0.094516105
3.5895821e-15
-0.10362948
3.4642311e-15
-0.11304659
0
-0.12337301
-1.3583976e-18
-0.13443197
0
-0.14598671
0
-0.15815715
1.8930948e-18
-0.17104516
0
-0.18473179
0
-0.19937204
0
-0.21502406
0
-0.23148998
4.8698751e-15
-0.24865497
-4.706803e-15
-0.26673252
4.551453e-15
-0.28579244
0
-0.30554879
0
-0.32592898
1.6478579e-14
-0.34732815
0
-0.37008823
0
-0.39444095
7.4550486e-15
-0.42076417
0
-0.44960658
8.7052377e-19
-0.48178889
0
-0.51877171
0
-0.56049859
0
-0.60381789
0
-0.64748357
-0.029505764
0
-0.021713973
7.882869e-05
-0.013891015
9.3121871e-05
-0.006838237
4.5709889e-05
-0.00013445566
-0.03633546
-0.00030209095
-0.042578558
-0.00047990958
-0.048546733
-0.00064372791
-0.053897727
-0.00076320676
-0.058036653
-0.0008126923
-0.061285058
-0.0007828702
-0.064915012
-0.00065419159
-0.067892347
-0.00039591077
-0.06887554
0
-0.07095751
0
-0.079542158
0
-0.088570832
0
-0.0970967
-1.3208946e-18
-0.10588959
0
-0.11559173
-6.4429304e-15
-0.12601158
-1.1768288e-18
-0.13686746
-5.9971183e-15
-0.14829615
0
-0.16039035
-5.5857138e-15
-0.17319095
0
-0.18684565
0
-0.2015064
5.0316511e-15
-0.21710537
9.7224912e-15
-0.23339548
-4.6981931e-15
-0.2503671
4.5433378e-15
-0.26827861
-4.3937891e-15
-0.28717255
0
-0.30675182
0
-0.32699123
7.9544377e-15
-0.34830067
0
-0.37101846
7.4420784e-15
-0.39537917
7.1963777e-15
-0.42182789
-7.1997712e-19
-0.45089256
6.7244663e-15
-0.48329709
6.4953915e-15
-0.52039235
-1.2547625e-14
-0.56213482
0
-0.60537728
1.2368292e-18
-0.64885624
-0.03640744
0
-0.029532597
0.00010896228
-0.021710455
0.00015367793
-0.013899296
0.0001331838
-0.0068720168
5.6725133e-05
-0.00015520127
-0.042732206
-0.0003366517
-0.048807951
-0.00052199578
-0.054291328
-0.00068274934
-0.05861423
-0.00079274804
-0.062088484
-0.00084155624
-0.066016598
-0.000811036
-0.069360822
-0.00066749633
-0.070768066
-0.00039842251
-0.07132227
0
-0.074452577
0
-0.082976487
0
-0.090952024
3.4626603e-15
-0.099154597
3.3386468e-15
-0.10826861
0
-0.11808629
0
-0.12828434
-2.9979421e-15
-0.13901817
-5.785075e-15
-0.15037879
0
-0.16237204
-5.3870825e-15
-0.17511937
0
-0.18879955
0
-0.20348857
-4.8529716e-15
-0.21899648
0
-0.23509194
4.5346863e-15
-0.25187823
-4.3841375e-15
-0.26963348
-4.2410075e-15
-0.2883631
0
-0.30778231
0
-0.32788991
7.6790537e-15
-0.3491281
0
-0.3718094
0
-0.39620156
0
-0.42279712
0
-0.45209434
0
-0.48466462
-6.2684831e-15
-0.52184368
0
-0.56359163
0
-0.60672221
1.0733418e-18
-0.65003703
-0.042822006
0
-0.036449813
0.00013473807
-0.029541879
0.00021247206
-0.021695516
0.00021945627
-0.013912129
0.00016486717
-0.0069173497
6.3880583e-05
-0.00017292141
-0.048984702
-0.00036600344
-0.054586227
-0.00055340337
-0.059078602
-0.00070902816
-0.06276104
-0.00082077717
-0.066959967
-0.00087185101
-0.070651534
-0.00082777886
-0.072447986
-0.00067199148
-0.073438357
-0.00040154731
-0.074420549
0
-0.077682969
0
-0.085180333
0
-0.092827749
3.340701e-15
-0.10138114
-1.4035659e-18
-0.11062835
0
-0.1202056
2.9964765e-15
-0.13028592
5.7796557e-15
-0.14096463
-5.5784557e-15
-0.15221314
0
-0.16413449
0
-0.17689481
0
-0.19063087
0
-0.20531404
4.6832371e-15
-0.22068332
0
-0.23658157
4.3761676e-15
-0.25319945
-4.2314905e-15
-0.27080727
-5.2699706e-19
-0.28939246
0
-0.30865598
0
-0.32864874
0
-0.34982515
0
-0.37248299
0
-0.3969148
6.7051026e-15
-0.4236883
0
-0.4532025
0
-0.48591062
0
-0.52311781
0
-0.56485648
0
-0.60789841
0
-0.651007
-0.049075298
0
-0.042858424
0.00015551019
-0.036462479
0.00026284775
-0.029528708
0.00030342356
-0.021668638
0.00027106192
-0.013928937
0.00018507693
-0.0069735358
6.6045623e-05
-0.00018792096
-0.054781362
-0.00038791088
-0.059428382
-0.00057461719
-0.063302014
-0.00073392551
-0.067743174
-0.00085032497
-0.07175938
-0.00089017049
-0.073930607
-0.00083365689
-0.075323452
-0.00067724315
-0.0767422
-0.00040489849
-0.07722305
0
-0.079726049
0
-0.086894905
0
-0.094909508
0
-0.10361427
-1.1667616e-18
-0.11260347
0
-0.1220665
0
-0.13210674
-8.1891862e-19
-0.14266457
0
-0.15382745
-5.1916543e-15
-0.16574618
5.0121552e-15
-0.17855171
0
-0.19233008
0
-0.20696793
0
-0.2221686
0
-0.23787382
-4.2227526e-15
-0.25434406
0
-0.27182616
0
-0.29027006
0
-0.30939488
0
-0.32928483
0
-0.35041161
0
-0.37304323
0
-0.39753831
0
-0.42450071
-6.2551602e-15
-0.4542283
6.1189165e-19
-0.48700911
0
-0.52423022
1.0814318e-18
-0.56596034
0
-0.60887348
1.0505619e-14
-0.65179668
-0.054875674
0
-0.04909405
0.00017312925
-0.042840576
0.00030328906
-0.0364376
0.00037553548
-0.029492881
0.00037471612
-0.021630064
0.00030341873
-0.013949402
0.00019063344
-0.0070415929
6.2061096e-05
-0.0001991325
-0.059662698
-0.00040275265
-0.063709609
-0.00059468936
-0.068364311
-0.00076035922
-0.072679512
-0.0008684791
-0.075209104
-0.00089671393
-0.076984966
-0.00084007776
-0.078806012
-0.00068266225
-0.079742546
-0.00040388052
-0.078837432
0
-0.081305649
0
-0.088835449
0
-0.097018879
6.2090738e-15
-0.10545238
-1.0194977e-18
-0.11433229
-2.8868883e-15
-0.12377176
0
-0.13368417
0
-0.1441452
0
-0.15529751
0
-0.16724108
1.1935562e-18
-0.18009229
0
-0.19389388
4.5099667e-15
-0.20843098
4.3597427e-15
-0.22344094
0
-0.23898102
5.6668098e-19
-0.25533191
0
-0.27269978
0
-0.29102012
0
-0.31001452
-4.5767031e-19
-0.32981533
-6.9084301e-15
-0.35089262
6.6823249e-15
-0.3735113
0
-0.39807528
0
-0.42524538
6.0363521e-15
-0.45514832
-5.8319261e-15
-0.48798155
-5.6329387e-15
-0.52517572
0
-0.56688128
0
-0.60969416
0
-0.6524121
-0.059780032
0
-0.054890046
0.00018804078
-0.049040678
0.00033745448
-0.042757039
0.00043314422
-0.036375803
0.00046400337
-0.02943481
0.00041930074
-0.021579462
0.00031141874
-0.013972197
0.00017829624
-0.0071226018
5.0653118e-05
-0.00020675274
-0.063983571
-0.0004167261
-0.06882312
-0.00061603836
-0.073407823
-0.00077677465
-0.076278583
-0.00087507248
-0.078416874
-0.00090352841
-0.080619546
-0.0008464124
-0.081968744
-0.00068064098
-0.081553002
-0.00039833776
-0.080002135
0
-0.083116841
0
-0.090820088
0
-0.098730148
1.0127165e-18
-0.10705844
2.8856834e-15
-0.11593047
0
-0.12523786
2.6857623e-15
-0.13504454
2.5906825e-15
-0.14549205
0
-0.15665157
0
-0.16861606
0
-0.18150798
0
-0.19528305
0
-0.20967655
0
-0.22451091
0
-0.23992438
4.8282238e-19
-0.25617789
-3.8057623e-15
-0.27344794
-3.6825716e-15
-0.29165301
0
-0.3105332
0
-0.33024821
-6.6692281e-15
-0.35128794
0
-0.37389196
6.237083e-15
-0.39853809
0
-0.42590371
-4.7911866e-19
-0.45597823
4.5623822e-19
-0.48879264
-5.4353404e-15
-0.52596448
0
-0.56765069
0
-0.61033614
0
-0.65288187
-0.064122866
0
-0.059807971
0.00019927941
-0.054825332
0.00036647536
-0.048900532
0.0004816139
-0.042610189
0.00053492285
-0.036278869
0.00051950342
-0.029354613
0.00043015883
-0.021515353
0.00029001438
-0.013998111
0.00014474009
-0.0072161983
3.0455861e-05
-0.00021389366
-0.069120592
-0.00043161668
-0.073942642
-0.00062947951
-0.077132902
-0.00078292808
-0.079614492
-0.0008816368
-0.082175307
-0.00091002416
-0.083924828
-0.00084379645
-0.083953552
-0.00067148566
-0.082923872
-0.00039216722
-0.081393001
0
-0.084974762
0
-0.092415525
-2.9922206e-15
-0.10022251
9.512433e-19
-0.10855815
-2.7829129e-15
-0.11729422
0
-0.12648875
0
-0.13628402
-5.9200575e-19
-0.14672811
0
-0.15787642
0
-0.16986701
4.4973568e-15
-0.18277417
-4.344057e-15
-0.19647078
0
-0.21071468
5.9018423e-19
-0.22541122
0
-0.24072435
-3.7972691e-15
-0.25689665
0
-0.27408286
-2.8081796e-19
-0.29219059
0
-0.31095809
0
-0.33060063
1.287693e-14
-0.35160525
0
-0.37419956
0
-0.39891773
0
-0.42648984
0
-0.45666569
0
-0.48946722
5.2444374e-15
-0.52659765
0
-0.56826009
0
-0.61084021
0
-0.65318512
-0.06925692
0
-0.064158595
0.00020696523
-0.059747368
0.00038849633
-0.05466242
0.00052302723
-0.048675724
0.00059430971
-0.042400726
0.00059853955
-0.036148582
0.00053331799
-0.029253002
0.00040037479
-0.021436137
0.00023422237
-0.014027086
8.6492816e-05
-0.0073171829
0
-0.00022148553
-0.074283446
-0.00044112208
-0.077766987
-0.00063463412
-0.08057277
-0.00078865026
-0.083467419
-0.00088761818
-0.085601128
-0.00090703598
-0.086068582
-0.00083257281
-0.085516986
-0.0006613226
-0.084520971
-0.00038660434
-0.082819367
0
-0.086462495
0
-0.093802526
0
-0.10162832
-2.7809857e-15
-0.1098273
-6.7658939e-19
-0.11844592
0
-0.12763384
-2.496012e-15
-0.13742136
-2.4092494e-15
-0.14782673
0
-0.15897306
0
-0.17098741
0
-0.18386894
-4.1910354e-15
-0.19746132
-4.051717e-15
-0.21157313
0
-0.22616123
3.7893e-15
-0.24139601
-7.3314971e-15
-0.25750501
-3.5467557e-15
-0.27462527
-2.3565121e-19
-0.29263847
0
-0.31130621
0
-0.33088212
0
-0.35185757
0
-0.3744299
0
-0.39922762
1.1230767e-14
-0.42696224
5.4252074e-15
-0.45723062
5.2404155e-15
-0.48997862
5.0599908e-15
-0.52709719
9.7700543e-15
-0.56873498
0
-0.61117028
1.6789444e-19
-0.65334906
-0.074430077
0
-0.069267402
0.00021404202
-0.064090312
0.00040358551
-0.059573164
0.00055471232
-0.054403558
0.00064547615
-0.048365479
0.00066436521
-0.042129499
0.00061401501
-0.035983886
0.00049677444
-0.029127651
0.00032309616
-0.021342742
0.00013915495
-0.014052843
-6.0951616e-15
-0.0067489342
0
-0.00022637458
-0.078177432
-0.0004448374
-0.081285635
-0.00063916402
-0.084490639
-0.00079367226
-0.08698852
-0.000884608
-0.087886302
-0.00089517202
-0.087802418
-0.0008201912
-0.087304182
-0.00065199394
-0.086141947
-0.00038009756
-0.083889826
0
-0.087755653
0
-0.095116786
0
-0.10280983
0
-0.11088771
0
-0.11950715
-2.4942259e-15
-0.12868762
-4.8132542e-15
-0.13841365
2.3227067e-15
-0.148788
0
-0.15995007
0
-0.17196599
7.2301322e-19
-0.18478921
0
-0.19827449
3.9093308e-15
-0.21227737
3.7811118e-15
-0.22678179
-3.6573224e-15
-0.24195605
2.8884982e-19
-0.25801932
0
-0.27508403
0
-0.29301426
0
-0.31158624
0
-0.33110482
-5.9995585e-15
-0.35204438
0
-0.3745983
5.6078245e-15
-0.39945681
-1.0838404e-14
-0.42733515
-5.2351825e-15
-0.45762479
5.0562725e-15
-0.49036255
-4.8818337e-15
-0.5274644
0
-0.56905753
-9.0977364e-15
-0.61136229
-0.0059598253
-0.64741861
-0.078361434
0
-0.074425474
0.00022150373
-0.069150319
0.00041729231
-0.063884492
0.00057641188
-0.05928802
0.00068500712
-0.054050127
0.00072169615
-0.047971885
0.00068076671
-0.041793835
0.00057138541
-0.035781671
0.0004012046
-0.028978083
0.00019176138
-0.021231536
0
-0.012946796
0
-0.0072970089
0
-0.00022832572
-0.081748042
-0.00044792681
-0.085240498
-0.00064296769
-0.088079099
-0.00079092463
-0.089396965
-0.00087320399
-0.089768167
-0.00088204834
-0.089752618
-0.00080866872
-0.089097361
-0.00064112992
-0.087399373
-0.00037249068
-0.084774376
0
-0.088982203
0
-0.096217097
0
-0.1037874
6.2052025e-19
-0.11187243
0
-0.12048786
0
-0.12959011
4.6410143e-15
-0.13926066
-3.9597817e-19
-0.14963714
0
-0.16081178
0
-0.17280895
-4.0366539e-15
-0.18556126
0
-0.19894221
-3.773189e-15
-0.21285261
3.2378367e-19
-0.22728993
7.061327e-15
-0.24242018
-6.8324355e-15
-0.25845252
0
-0.27547293
0
-0.29332424
0
-0.31181094
0
-0.33127011
0
-0.35217829
0
-0.37470737
-5.4123193e-15
-0.39961712
0
-0.42756854
-5.051675e-15
-0.45788957
1.0450355e-19
-0.49060172
0
-0.52772449
0
-0.5692194
-0.011530305
-0.60583493
-0.0054279039
-0.64190681
-0.081954662
0
-0.078368772
0.00022638264
-0.074269559
0.00043167696
-0.068866498
0.0005958416
-0.063541383
0.00071201328
-0.058891631
0.00076651235
-0.053604392
0.0007397866
-0.047496204
0.0006326924
-0.041395311