/*--------------------------------*- C++ -*----------------------------------*\
| =========                 |                                                 |
| \\      /  F ield         | OpenFOAM: The Open Source CFD Toolbox           |
|  \\    /   O peration     | Version:  v2012                                 |
|   \\  /    A nd           | Website:  www.openfoam.com                      |
|    \\/     M anipulation  |                                                 |
\*---------------------------------------------------------------------------*/
FoamFile
{
    version     2.0;
    format      ascii;
    class       volScalarField;
    location    "2.360403";
    object      p;
}
// * * * * * * * * * * * * * * * * * * * * * * * * * * * * * * * * * * * * * //

dimensions      [0 2 -2 0 0 0 0];


internalField   nonuniform List<scalar> 
9200
(
-4.5510425e-05
-4.6155608e-05
-5.0332032e-05
-3.5734458e-05
-5.2419943e-05
-0.00015012217
-3.2773947e-05
-3.1857641e-05
-0.00014875454
-0.00023927148
-2.183193e-05
-2.5040808e-05
-0.00011548585
-0.00023509294
-0.00033961833
-1.25703e-05
-3.4165881e-06
-9.7016576e-05
-0.00019113974
-0.00033301552
-0.00044624352
-1.3592383e-06
1.5915805e-05
-5.7524552e-05
-0.00016260716
-0.00027893899
-0.00043814238
-0.00056129978
1.0124557e-05
3.9161147e-05
-1.8865201e-05
-0.00010744181
-0.00024103238
-0.00037498048
-0.00055283868
-0.00068468514
2.1996806e-05
6.339316e-05
2.6191986e-05
-5.1638394e-05
-0.00017055113
-0.00032920678
-0.00048188476
-0.00067723387
-0.00081608717
3.3867469e-05
8.8608804e-05
7.3527328e-05
1.315728e-05
-9.7829575e-05
-0.00024464063
-0.00043005472
-0.00060016076
-0.00081130143
-0.00095462958
4.5512514e-05
0.00011400825
0.00012263114
8.1711455e-05
-1.3124466e-05
-0.0001561253
-0.00033292286
-0.00054455053
-0.00073022993
-0.0009544254
-0.0010987958
5.6729937e-05
0.00013906226
0.00017212422
0.00015310644
7.7174661e-05
-5.2175494e-05
-0.00022992847
-0.00043693397
-0.00067366875
-0.00087194858
-0.0011054382
-0.0012467359
6.734337e-05
0.00016329031
0.00022098092
0.00022537729
0.00017180336
5.9661344e-05
-0.00010750804
-0.00032133446
-0.00055825963
-0.00081786551
-0.0010247179
-0.0012627563
-0.0013960244
7.724354e-05
0.00018628817
0.00026830546
0.00029701105
0.00026816294
0.00017781435
2.5662308e-05
-0.00018167458
-0.00043252524
-0.00069809346
-0.00097723057
-0.0011874781
-0.0014242741
-0.0015439343
8.638137e-05
0.00020778069
0.00031339624
0.00036667665
0.00036420641
0.00029905049
0.00016778153
-2.7730639e-05
-0.00027742704
-0.00056545719
-0.00085736404
-0.001151402
-0.0013587008
-0.0015874997
-0.0016872769
9.4731343e-05
0.00022761165
0.00035573842
0.00043331758
0.00045809999
0.00042073689
0.00031495653
0.00013858658
-0.00010371781
-0.00039744126
-0.00072195127
-0.0010366346
-0.0013395903
-0.0015364042
-0.0017495187
-0.0018227283
0.00010229247
0.00024569174
0.0003949907
0.0004961344
0.00054835559
0.00054046501
0.00046390945
0.00031269249
8.670485e-05
-0.00020562377
-0.00054442322
-0.00090355211
-0.001236068
-0.0015405226
-0.0017181886
-0.0019071482
-0.0019466759
0.00010908335
0.00026198958
0.00043095777
0.00055457647
0.00063382137
0.00065622793
0.00061156869
0.00049061715
0.00028856587
8.3141099e-06
-0.00033694403
-0.00072095104
-0.0011115119
-0.0014553871
-0.0017524839
-0.001901262
-0.0020569181
-0.0020554758
0.00011513638
0.0002765223
0.00046356617
0.00060830749
0.00071367406
0.00076643885
0.00075530859
0.00066853018
0.00049717762
0.00023844612
-0.00010075627
-0.00050126538
-0.00092942912
-0.0013466909
-0.0016938492
-0.0019732718
-0.0020825005
-0.0021951926
-0.002145375
0.0001204929
0.0002893442
0.00049283908
0.00065717868
0.00078738764
0.00086992328
0.00089299949
0.00084307478
0.00070784098
0.00047930846
0.00015765453
-0.00024495863
-0.00070213316
-0.0011719977
-0.0016095248
-0.0019501864
-0.0022002711
-0.002258467
-0.0023182202
-0.0022127753
0.00012519893
0.00030053678
0.00051887667
0.00070119031
0.00085469516
0.00096589893
0.00102302
0.0010114488
0.00091634254
0.00072526277
0.00043204653
4.103489e-05
-0.00042892721
-0.00094301626
-0.0014504689
-0.0018999186
-0.0022226158
-0.00243042
-0.0024255185
-0.002422248
-0.002254166
0.00012932218
0.00031020151
0.00054183473
0.00074046378
0.00091554401
0.0010539207
0.0011442366
0.0011714623
0.0011190653
0.00097109129
0.00071575788
0.00034976463
-0.00011695305
-0.0006574016
-0.0012272078
-0.0017661894
-0.0022172143
-0.0025088019
-0.0026602973
-0.0025798291
-0.0025035823
-0.0022663083
0.00013295121
0.00031845202
0.0005619091
0.00077520784
0.00097005177
0.0011338369
0.0012559528
0.001321513
0.0013130955
0.0012121983
0.0010024159
0.00067345926
0.00022622229
-0.0003222046
-0.00093516319
-0.0015576449
-0.0021199407
-0.0025601096
-0.0028058621
-0.0028861204
-0.0027175224
-0.0025586686
-0.0022462145
0.00013613806
0.00032541998
0.00057931999
0.00080569462
0.0010184657
0.0012057234
0.00135785
0.0014605545
0.0014962248
0.0014447635
0.0012862604
0.001004462
0.00059168436
5.4589093e-05
-0.00058087334
-0.001266831
-0.0019368124
-0.002511842
-0.0029266165
-0.003110375
-0.0031038699
-0.0028346909
-0.0025841868
-0.0021913075
0.00013890473
0.00033123744
0.00059430058
0.00083223436
0.0010611226
0.0012698378
0.0014499164
0.0015880149
0.001666922
0.0016658047
0.0015623656
0.0013356518
0.0009703939
0.00046296976
-0.00017247764
-0.00089923819
-0.0016567291
-0.0023665649
-0.0029412417
-0.0033140193
-0.0034184292
-0.0033093057
-0.0029275435
-0.0025771068
-0.0020993948
0.00014128425
0.00033602245
0.00060708362
0.00085515731
0.0010984192
0.0013265614
0.0015323797
0.0017037274
0.001824257
0.0018731475
0.0018267669
0.0016607811
0.0013536633
0.00089239223
0.00027905025
-0.00046273278
-0.0012834996
-0.0021087134
-0.0028480025
-0.0034066225
-0.0037188894
-0.0037256681
-0.003498097
-0.0029924267
-0.0025347712
-0.0019687526
0.00014330398
0.00033989204
0.00061789595
0.000874799
0.0011307826
0.0013763632
0.0016056438
0.0018078398
0.0019678148
0.0020653718
0.0020764631
0.0019746645
0.0017336863
0.0013324498
0.00076162239
3.0942051e-05
-0.00082419165
-0.0017396502
-0.0026259952
-0.0033812982
-0.0039055545
-0.0041370849
-0.0040273559
-0.0036658735
-0.00302597
-0.0024549166
-0.0017981138
0.00014499851
0.00034295214
0.00062695767
0.00089148807
0.0011586543
0.0014197624
0.0016702364
0.0019007445
0.0020975996
0.0022417027
0.0023093699
0.0022732545
0.0021037977
0.0017735131
0.0012629604
0.00056823908
-0.00029092806
-0.001264954
-0.0022732584
-0.003210917
-0.0039655865
-0.0044346443
-0.0045637924
-0.0043184808
-0.0038083678
-0.0030250969
-0.0023357515
-0.0015867181
0.00014633616
0.00034533389
0.00063446356
0.00090554584
0.0011824686
0.0014573033
0.0017267652
0.0019830082
0.0022139414
0.0024019161
0.0025242192
0.0025535936
0.0024586286
0.0022071444
0.0017713519
0.0011348698
0.00030143043
-0.00069662397
-0.0017930338
-0.0028891821
-0.0038647469
-0.0045988369
-0.0049895194
-0.0049936055
-0.0045938552
-0.0039214742
-0.0029871477
-0.0021759484
-0.0013342846
0.00014734505
0.00034707745
0.00064063307
0.00091725692
0.0012026554
0.001489531
0.0017758813
0.0020553156
0.0023174171
0.0025462179
0.0027204392
0.0028137413
0.0027941047
0.0026263317
0.0022762631
0.001716811
0.0009365368
-5.0506855e-05
-0.0011964858
-0.0024160376
-0.0035913421
-0.0045874961
-0.0052777747
-0.0055648717
-0.0054206288
-0.0048482443
-0.0040013659
-0.0029098765
-0.0019746886
-0.0010410084
0.0001473707
0.00034844893
0.00064554739
0.00092694346
0.0012195958
0.0015169894
0.0018182471
0.002118425
0.0024087698
0.0026751494
0.0028980286
0.0030526269
0.0031073806
0.0030255817
0.0027686895
0.0023011015
0.0015978938
0.00065507155
-0.0005000074
-0.0018009072
-0.0031408535
-0.0043824096
-0.0053777486
-0.0059978496
-0.006154524
-0.0058386007
-0.0050764637
-0.0040445582
-0.0027915428
-0.0017316245
-0.00070752714
0.00014706499
0.00034815095
0.00064961158
0.00093472976
0.0012337273
0.0015401648
0.0018545331
0.0021731166
0.0024888584
0.0027894881
0.0030574268
0.0032699212
0.0033967057
0.0034008664
0.0032413556
0.0028763669
0.0022697738
0.0014009712
0.00027636774
-0.0010600104
-0.0025199261
-0.003973363
-0.0052636069
-0.0062325435
-0.0067532546
-0.0067515388
-0.0062410145
-0.0052735218
-0.0040480011
-0.0026308835
-0.0014469016
-0.00033488356
0.0001467171
0.00034680112
0.00065033058
0.00094121763
0.001245214
0.0015596253
0.0018853384
0.0022202014
0.0025585835
0.0028901772
0.0031994053
0.0034658764
0.0036612651
0.0037495168
0.0036887257
0.0034331439
0.0029380454
0.0021684774
0.0011108431
-0.00021470657
-0.0017436665
-0.0033629361
-0.0049181141
-0.0062344589
-0.0071473037
-0.0075369716
-0.0073483299
-0.006621286
-0.0054347138
-0.0040091194
-0.0024271657
-0.0011211052
7.5504016e-05
0.00014638398
0.00034514907
0.00064864528
0.00094282153
0.0012548965
0.0015755702
0.0019113829
0.0022603948
0.0026189089
0.0029782389
0.0033249692
0.0036411941
0.0039010141
0.0040700417
0.004106913
0.0039640061
0.0035906153
0.0029402653
0.0019814894
0.00071075519
-0.00083406988
-0.0025639784
-0.004338352
-0.0059779977
-0.007292617
-0.0081157951
-0.0083408571
-0.007936849
-0.0069728912
-0.0055557464
-0.0039258668
-0.0021801482
-0.00075525709
0.0005218543
0.00014599192
0.00034336615
0.00064637471
0.00094089684
0.0012577579
0.001589136
0.0019328904
0.0022945976
0.0026706694
0.0030547926
0.0034352522
0.0037969125
0.0041165011
0.0043619496
0.0044935101
0.0044634947
0.0042177084
0.0037011455
0.0028674144
0.0016910896
0.00018251611
-0.001598173
-0.0035334984
-0.0054531703
-0.0071539401
-0.0084336953
-0.0091301355
-0.0091558026
-0.0085087442
-0.0072895362
-0.0056328061
-0.0037967484
-0.0018901059
-0.00035075747
0.0010020827
0.00014553262
0.00034136625
0.0006437872
0.00093811066
0.0012556736
0.0015935705
0.0019513636
0.0023230415
0.0027149841
0.0031207959
0.0035315381
0.0039342519
0.0043087483
0.0046255303
0.0048473763
0.0049279735
0.00481187
0.0044384567
0.0037498043
0.0027015191
0.0012775212
-0.00049329999
-0.0025236631
-0.0046638421
-0.0067125667
-0.0084445923
-0.0096511686
-0.010180898
-0.0099719044
-0.0090555803
-0.0075652817
-0.0056626569
-0.0036208535
-0.0015577686
9.0636925e-05
0.0015139845
0.00014498612
0.00033917878
0.000640773
0.00093485133
0.0012524467
0.0015914215
0.0019578752
0.0023476854
0.0027520681
0.0031776265
0.0036149152
0.0040546741
0.0044790264
0.0048617134
0.0051683939
0.005355396
0.0053678376
0.0051422324
0.0046125317
0.0037190611
0.0024220087
0.0007190462
-0.0013371335
-0.0036269732
-0.0059651589
-0.0081194047
-0.0098460901
-0.010936358
-0.011257242
-0.0107787
-0.0095690132
-0.0077947067
-0.0056426985
-0.0033978431
-0.001184309
0.00056689949
0.0020552851
0.00014435681
0.00033679058
0.00063738454
0.00093096392
0.0012486074
0.0015878233
0.001955824
0.0023568891
0.0027844476
0.0032254384
0.0036870734
0.00415939
0.0046289798
0.0050717721
0.0054572958
0.0057450209
0.0058823321
0.0058050977
0.0054424978
0.0047235013
0.0035883584
0.0020056537
-7.9401815e-06
-0.0023700336
-0.0049236961
-0.0074455987
-0.0096738747
-0.011351868
-0.012278486
-0.012347135
-0.011565392
-0.010041035
-0.0079730201
-0.0055710081
-0.0031279328
-0.00077128027
0.0010757685
0.0026233337
0.00014364753
0.00033420012
0.00063361483
0.00092651939
0.0012439379
0.0015834913
0.0019519944
0.0023551236
0.0027971242
0.003267467
0.0037480475
0.0042504488
0.0047599152
0.0052575242
0.0057152812
0.0060972407
0.0063537048
0.0064221167
0.0062296451
0.0056979204
0.004751607
0.0033339091
0.0014265971
-0.00092857663
-0.0036131142
-0.0064279841
-0.0091107117
-0.011373092
-0.012952589
-0.013664822
-0.013437596
-0.012321159
-0.010464146
-0.008096163
-0.0054463448
-0.0028118653
-0.00032060751
0.0016147743
0.0032148731
0.00014285192
0.00033139971
0.00062947262
0.00092150568
0.0012385318
0.0015781241
0.0019473322
0.0023512111
0.0027958935
0.0032845984
0.0038019918
0.0043277071
0.0048743089
0.0054203221
0.0059443277
0.00641305
0.0067818084
0.0069903811
0.0069668579
0.006628897
0.0058902848
0.0046734415
0.0029285911
0.00065645899
-0.0020691105
-0.0050868886
-0.0081518637
-0.010962928
-0.013210848
-0.014636146
-0.015080898
-0.014515045
-0.013035403
-0.010831542
-0.0081608595
-0.0052681553
-0.0024508847
0.00016549094
0.002181245
0.0038270017
0.00032838145
0.00014194777
0.00062495763
0.0009159338
0.0012323685
0.0015718448
0.0019414226
0.0023463875
0.002792091
0.0032842666
0.0038247293
0.0043964964
0.0049717865
0.0055631675
0.0061457721
0.0066945652
0.0071672519
0.0075089431
0.0076495291
0.007506528
0.0069868165
0.0059974512
0.0044617347
0.0023419016
-0.00033537783
-0.0034563318
-0.0068105966
-0.010104552
-0.01300103
-0.015177411
-0.016387789
-0.016510847
-0.015565616
-0.013698024
-0.011137225
-0.0081646731
-0.0050365724
-0.0020466931
0.00068457834
0.0027724496
0.0044586969
0.00062007326
0.00032506941
0.00014093183
0.00090980238
0.0012254619
0.0015646197
0.0019344242
0.0023400898
0.0027873174
0.003280862
0.0038257029
0.0044263258
0.0050590781
0.0056852992
0.0063232765
0.0069430062
0.0075122459
0.0079777995
0.0082755838
0.0083239307
0.0080277848
0.0072833196
0.0059930793
0.0040850843
0.0015399888
-0.001581355
-0.005116901
-0.0088013814
-0.012291695
-0.015219747
-0.017259467
-0.018190363
-0.017937757
-0.016575526
-0.014299619
-0.011376147
-0.008106054
-0.0047523832
-0.0016013471
0.0012340937
0.0033857328
0.0051090343
0.00090311619
0.00061469227
0.00032146245
0.0001398043
0.00121781
0.0015564645
0.0019262824
0.0023325202
0.0027808233
0.003276439
0.003823047
0.0044290653
0.0050979017
0.0057951191
0.0064754798
0.0071628471
0.0078177246
0.0083991903
0.0088440852
0.0090774972
0.0090033124
0.0085132388
0.0074939802
0.005846134
0.0035077049
0.00048579155
-0.0031152492
-0.0070765586
-0.011073353
-0.014714674
-0.017609379
-0.019440185
-0.020024658
-0.019344092
-0.017531361
-0.014831734
-0.011544321
-0.0079843324
-0.0044169186
-0.0011171681
0.001811307
0.0040184293
0.0057712447
0.0012094203
0.00089568719
0.00060881778
0.00031761311
0.00013855029
0.0015473752
0.0019170134
0.0023235958
0.002772869
0.0032700142
0.0038193565
0.0044275771
0.0051031561
0.0058452699
0.0066129755
0.0073518761
0.0080891428
0.0087735354
0.0093572293
0.0097648928
0.0099077241
0.0096734421
0.0089412302
0.0075893272
0.0055203472
0.0026893026
-0.00086068382
-0.0049714211
-0.0093590531
-0.013636648
-0.017369909
-0.02015564
-0.021699449
-0.021869821
-0.020712082
-0.018420466
-0.015287077
-0.01163888
-0.007799605
-0.004031931
-0.00059672424
0.002413245
0.0046675939
0.0064339756
0.001537362
0.0012000307
0.00088752634
0.00060254455
0.00031352134
0.00013715575
0.0019066081
0.0023133343
0.0027633279
0.0032619411
0.0038133217
0.0044251493
0.0051033885
0.0058546456
0.0066773502
0.007523479
0.008323111
0.0091075014
0.009814587
0.010388169
0.010736665
0.010755524
0.01031607
0.0092849633
0.007534037
0.0049738209
0.0015851067
-0.0025417797
-0.0071837846
-0.011984981
-0.016496369
-0.020248347
-0.022839615
-0.0240142
-0.023703815
-0.022024245
-0.019231297
-0.015659672
-0.011657965
-0.007552584
-0.0035996051
-4.2999865e-05
0.0030367748
0.0053302207
0.0070981464
0.001895079
0.0015260735
0.0011896585
0.00087878125
0.00059586151
0.00030918206
0.00013560696
0.002301717
0.002752228
0.0032520173
0.0038054617
0.0044199379
0.0051029366
0.0058575438
0.0066918222
0.0076056323
0.0085364608
0.0093960227
0.010224372
0.010945546
0.011491888
0.011752287
0.011606587
0.010907966
0.0095114319
0.0072862972
0.004158741
0.00014608053
-0.0046013143
-0.0097845057
-0.01497046
-0.019651678
-0.02333509
-0.02563796
-0.026358869
-0.025504044
-0.023263901
-0.019953708
-0.015944772
-0.011600561
-0.0072446586
-0.003122833
0.00054061044
0.0036790607
0.0060039288
0.0077738736
0.00228876
0.0018819636
0.0015135354
0.0011785168
0.00086944275
0.00058875293
0.000304586
0.00013389749
0.0027395366
0.0032402933
0.0037954639
0.0044126935
0.0050991924
0.0058597844
0.0066985749
0.00762686
0.0086407792
0.0096601411
0.010579168
0.011447181
0.012169564
0.012665011
0.01280164
0.012442022
0.011419593
0.0095806139
0.0067972342
0.0030212297
-0.0016804514
-0.0070833459
-0.012802538
-0.018325839
-0.023095022
-0.026609266
-0.028523157
-0.028706057
-0.027248055
-0.024415638
-0.02057892
-0.0161387
-0.01146663
-0.0068783415
-0.002605255
0.0011509201
0.0043379904
0.0066868264
0.0084584781
0.0027252753
0.0022738642
0.001867297
0.0015000407
0.0011665974
0.00085949544
0.0005811983
0.00029973259
0.00013200549
0.0032267214
0.0037833936
0.0044029974
0.0050930939
0.0058582515
0.0067046726
0.007638793
0.0086712034
0.0097918948
0.010905373
0.011882417
0.012782263
0.013486871
0.013901875
0.013870616
0.0132368
0.0118142
0.009444633
0.0060103124
0.0015015139
-0.0039498347
-0.010030675
-0.016262003
-0.02205448
-0.026811534
-0.030043998
-0.031464165
-0.031027377
-0.02891418
-0.02546536
-0.021099389
-0.016239098
-0.011257793
-0.006457361
-0.0020502708
0.0017859617
0.0050117109
0.0073761753
0.0091474411
0.0032113266
0.0027086799
0.0022570753
0.0018514723
0.0014855844
0.001153886
0.00084891627
0.00057319151
0.00029458794
0.00012995171
0.0037691923
0.0043909059
0.0050841547
0.0058540199
0.0067063342
0.0076501632
0.0086904747
0.0098347195
0.011071688
0.012284382
0.013314924
0.014233498
0.01489616
0.015193592
0.014939331
0.013958816
0.012046779
0.0090466695
0.0048609273
-0.00046555808
-0.0067187478
-0.013483112
-0.020180604
-0.02615161
-0.030778565
-0.033606813
-0.034427287
-0.033294281
-0.030481703
-0.026400214
-0.021509226
-0.01624593
-0.01097751
-0.0059851707
-0.0014594065
0.0024443105
0.0056966906
0.008067842
0.0098391268
0.0037528858
0.0031931453
0.0026898097
0.002238913
0.0018344899
0.0014701559
0.0011403584
0.00083770305
0.00056468007
0.00028919448
0.00012769431
0.0043763478
0.0050724386
0.0058464581
0.0067049379
0.007656211
0.0087091061
0.0098638976
0.011130649
0.012493642
0.013809033
0.014883881
0.015804056
0.016393733
0.016526036
0.015981189
0.014567721
0.012062527
0.0083199538
0.003276431
-0.0029495088
-0.010043497
-0.017475547
-0.02456791
-0.030603229
-0.034965627
-0.037260445
-0.037377152
-0.035478333
-0.031930872
-0.02720926
-0.021805648
-0.016161801
-0.010628941
-0.0054624493
-0.00083339488
0.0031212069
0.0063865065
0.0087589221
0.010530368
0.0043593553
0.0037332641
0.0031722528
0.0026693425
0.0022193847
0.001816346
0.0014537318
0.0011260217
0.00082578746
0.00055572208
0.00028348047
0.00012515801
0.0050578418
0.0058356879
0.006699561
0.0076588446
0.0087209838
0.0098924942
0.011171526
0.012573499
0.014071616
0.015489919
0.016596544
0.017495579
0.01797128
0.017879014
0.016961741
0.015012994
0.011795247
0.0071871609
0.0011766146
-0.0060227984
-0.013978048
-0.022035792
-0.029423529
-0.035385428
-0.039334935
-0.040963776
-0.040277016
-0.037551312
-0.033243898
-0.02788551
-0.021989504
-0.015989006
-0.010211357
-0.0048887719
-0.00017851867
0.0038060032
0.0070765974
0.0094525249
0.011256282
0.0050404191
0.0043384122
0.0037104198
0.0031495182
0.0026472949
0.0021984978
0.0017970199
0.0014363341
0.0011107916
0.00081325692
0.00054620329
0.00027692677
0.00012192827
0.0058215337
0.0066904507
0.007656659
0.0087290025
0.0099122788
0.01121295
0.012630711
0.014178984
0.015818752
0.017338498
0.018459434
0.019305882
0.019615171
0.019225236
0.017836478
0.015231778
0.01116615
0.0055602837
-0.0015253533
-0.0097589795
-0.018571528
-0.027182071
-0.034735661
-0.040464398
-0.043842116
-0.044672115
-0.043088947
-0.039486633
-0.034407775
-0.028426779
-0.022061345
-0.015724554
-0.0097225254
-0.0042723437
0.00048920753
0.0044916892
0.0077738212
0.010194535
0.012030191
0.0058040733
0.0050182867
0.0043136289
0.0036854538
0.003124969
0.0026236923
0.0021762375
0.0017765575
0.0014178581
0.0010948022
0.00079993904
0.00053470549
0.00026910255
0.00011824392
0.0066773449
0.0076500337
0.008731208
0.0099274248
0.011243791
0.012688428
0.014257774
0.015961966
0.017749664
0.019366241
0.020476056
0.021228412
0.021305663
0.02052792
0.018548242
0.015147121
0.010083097
0.0033409557
-0.0049215389
-0.014230265
-0.023865226
-0.032920711
-0.040480335
-0.045796669
-0.048436244
-0.048337293
-0.045775708
-0.041263171
-0.035415595
-0.028830579
-0.022014686
-0.015363461
-0.0091728497
-0.0036364318
0.0011595335
0.0051940803
0.0085434885
0.010982557
0.012830899
0.0066603287
0.0057809848
0.0049915756
0.0042863939
0.0036584059
0.0030986525
0.0025985254
0.0021526839
0.0017548297
0.0013984998
0.0010778159
0.00078358046
0.00052046739
0.0002604166
0.00011408982
0.0076386446
0.0087280483
0.0099355816
0.0112687
0.012733356
0.014337157
0.016068897
0.017939625
0.01987966
0.021582578
0.022646487
0.02325177
0.023014483
0.021737867
0.019025
0.014666536
0.0084400923
0.00042099343
-0.009107311
-0.019504308
-0.029889494
-0.039244475
-0.046620906
-0.051328569
-0.053059623
-0.051910048
-0.048305822
-0.04286722
-0.036260071
-0.029085193
-0.021840435
-0.01491855
-0.0085947272
-0.0029955192
0.0018592328
0.0060167597
0.0093616498
0.01179918
0.013655221
0.007622579
0.0066365512
0.0057524213
0.004962029
0.0042567625
0.003629348
0.003070556
0.0025719205
0.0021276799
0.0017321209
0.0013779313
0.0010564201
0.00076314697
0.00050455384
0.00025066993
0.00010946297
0.008719143
0.0099372445
0.011284885
0.012771117
0.01440023
0.016176676
0.018083463
0.020130175
0.022223078
0.023994658
0.024967205
0.025357314
0.024701735
0.022790893
0.019177806
0.013680664
0.006116889
-0.0033164866
-0.014178295
-0.025640554
-0.036661217
-0.046131075
-0.053106526
-0.056995363
-0.057650573
-0.05534651
-0.050656412
-0.044284417
-0.036921903
-0.029175495
-0.021553857
-0.014433658
-0.0080080798
-0.0023072412
0.0027434695
0.0068969308
0.010213647
0.012643182
0.014501443
0.0087046112
0.0075983418
0.0066061909
0.0057205495
0.0049297171
0.0042248338
0.0035982577
0.0030408669
0.002543678
0.0021016298
0.0017079886
0.0013513067
0.0010291745
0.0007402959
0.00048665585
0.0002397572
0.00010432204
0.0099318841
0.011293138
0.01279788
0.014454511
0.016263436
0.018228294
0.020321412
0.022552176
0.024792943
0.026607621
0.027428761
0.027516012
0.02631313
0.023605276
0.018898616
0.012061804
0.002978874
-0.0079947304
-0.020226509
-0.032686888
-0.044181115
-0.053540222
-0.059870165
-0.062724148
-0.062151478
-0.058612209
-0.052803281
-0.045484802
-0.037377274
-0.029118902
-0.021212771
-0.013935514
-0.0073505929
-0.0013435363
0.0036976187
0.0078165043
0.011094658
0.013514118
0.015368877
0.0099196793
0.0086801809
0.0075661436
0.0065719236
0.005685447
0.0048947724
0.0041905784
0.0035654122
0.0030093214
0.0025143545
0.0020739422
0.001675767
0.0013166683
0.00099870031
0.00071454981
0.0004666067
0.00022751693
9.8626113e-05
0.011292719
0.012814838
0.014494937
0.016339009
0.018344058
0.020512974
0.022804716
0.025223837
0.027601664
0.029422425
0.030012758
0.029685611
0.027777055
0.024078869
0.018057814
0.0096623361
-0.0011219153
-0.013739726
-0.027336571
-0.040675957
-0.052429111
-0.061409917
-0.06683115
-0.068443553
-0.066514244
-0.061670032
-0.054701953
-0.046432304
-0.03764501
-0.02899003
-0.020852312
-0.013335924
-0.0062976286
-0.00029104904
0.0046989019
0.0087662283
0.01200522
0.014411097
0.016257152
0.011283876
0.0098954385
0.0086460945
0.0075292785
0.0065338344
0.0056472978
0.0048571615
0.004154399
0.0035304541
0.0029766701
0.0024831552
0.0020356598
0.0016328315
0.0012779166
0.00096431931
0.0006856658
0.00044414279
0.00021380453
9.2320871e-05
0.012821022
0.014523115
0.016396978
0.018447372
0.020669127
0.023056882
0.025555295
0.028164483
0.030659005
0.032432955
0.032689212
0.031807547
0.029001011
0.024085712
0.016501234
0.0063140488
-0.0063439989
-0.020676298
-0.035581427
-0.049618779
-0.061358165
-0.069658015
-0.073906448
-0.074090862
-0.070685848
-0.064456433
-0.056299463
-0.047145755
-0.037819544
-0.028834182
-0.020351466
-0.012183356
-0.0051298346
0.00081791579
0.0057313887
0.0097479485
0.012944042
0.015333164
0.017165882
0.01281675
0.011260319
0.0098594399
0.0086063862
0.0074878492
0.0064921903
0.0056060599
0.0048174418
0.0041158061
0.0034943943
0.0029418523
0.0024382582
0.0019833034
0.0015848134
0.0012341239
0.00092571489
0.00065325845
0.00041901399
0.00019846357
8.5345435e-05
0.014537814
0.016439541
0.018528215
0.020807433
0.023263691
0.025885393
0.028597174
0.031393088
0.033969545
0.035623391
0.035413375
0.033803053
0.029867394
0.023471662
0.014047426
0.0018294149
-0.012853034
-0.028923959
-0.045014401
-0.059495486
-0.070894119
-0.078194796
-0.081019593
-0.079594783
-0.074578605
-0.066895733
-0.057612406
-0.047742611
-0.037958365
-0.028489046
-0.019094676
-0.010880572
-0.0038931485
0.0019582431
0.0067988931
0.010759936
0.013910055
0.016279224
0.018093767
0.014539436
0.012794418
0.011222368
0.0098166109
0.008561174
0.0074422357
0.0064469128
0.0055624732
0.0047749327
0.0040761646
0.0034558337
0.0028895397
0.0023751081
0.0019247879
0.0015304764
0.0011849025
0.00088236718
0.00061696314
0.00039094449
0.00018133656
7.7633087e-05
0.016465152
0.018589327
0.020917116
0.023446761
0.026156773
0.029027238
0.031955245
0.034926121
0.037530777
0.038965091
0.038121389
0.035568498
0.030228094
0.022049405
0.010486643
-0.0039960867
-0.020818556
-0.038588356
-0.055656589
-0.070252429
-0.080949072
-0.086933831
-0.088080264
-0.08483845
-0.078087126
-0.068998881
-0.058784412
-0.048294729
-0.037847569
-0.0271295
-0.017639866
-0.0094930662
-0.0026252271
0.0031366423
0.0078990254
0.011801059
0.014901774
0.017248114
0.019038347
0.016474311
0.014518819
0.01275439
0.011176028
0.0097670788
0.0085109613
0.0073922851
0.0063989749
0.0055156048
0.0047314619
0.0040336393
0.0033951587
0.0028138391
0.0023045648
0.0018584911
0.0014693699
0.0011295815
0.00083379059
0.00057637866
0.00035964983
0.00016226462
6.9116083e-05
0.018628872
0.021001743
0.023593435
0.026397042
0.029380942
0.032513359
0.035653655
0.038776032
0.041330937
0.042412711
0.040725108
0.036969245
0.0298978
0.01959464
0.0055815363
-0.011382009
-0.030406203
-0.049745467
-0.06748993
-0.081815824
-0.091434303
-0.095767821
-0.094938335
-0.089678903
-0.081211902
-0.070938585
-0.059903969
-0.048524308
-0.03639701
-0.025507897
-0.016079798
-0.0080750588
-0.0013153855
0.0043499794
0.0090306057
0.01286944
0.015917704
0.018238754
0.019998438
0.018647618
0.016455989
0.014476382
0.012703952
0.01112142
0.0097114786
0.0084554636
0.0073392963
0.0063471247
0.005467893
0.0046846054
0.0039633593
0.0033048225
0.0027293274
0.0022245165
0.0017839077
0.0014006513
0.0010675474
0.00077945031
0.00053109248
0.00032483852
0.00014109246
5.9730988e-05
0.021059084
0.023707999
0.026590717
0.029693852
0.032972052
0.036375599
0.039714964
0.042949847
0.045345654
0.045899953
0.04310565
0.037831343
0.028647407
0.015844382
-0.00093262776
-0.020557612
-0.041759781
-0.062429209
-0.080470314
-0.09410695
-0.1022318
-0.10451153
-0.1014051
-0.094099965
-0.084157295
-0.072822515
-0.060614877
-0.047009376
-0.034599084
-0.023754447
-0.014490216
-0.0066104455
3.2258572e-05
0.0055971985
0.010191314
0.013963226
0.016956765
0.019250644
0.020977326
0.021089963
0.018632304
0.016410666
0.014420931
0.012643184
0.011059372
0.0096493152
0.0083964302
0.007281578
0.0062945944
0.0054161242
0.004603144
0.0038557355
0.0032040677
0.0026332808
0.0021344165
0.0016999955
0.0013235688
0.00099812449
0.00071880071
0.00048068318
0.00028622073
0.00011767409
4.9423659e-05
0.023787942
0.026742998
0.02994719
0.033377031
0.036968317
0.040646242
0.044159345
0.047447438
0.049533632
0.049333709
0.045104602
0.037931964
0.026199285
0.010495211
-0.0093462994
-0.031744306
-0.054982485
-0.076642682
-0.094545859
-0.10700907
-0.11312322
-0.11292289
-0.10744
-0.098339563
-0.08705309
-0.074199141
-0.059083694
-0.045033732
-0.032634775
-0.021972349
-0.012847869
-0.0051045408
0.0014168876
0.0068755181
0.011378962
0.015081496
0.018019047
0.020282055
0.021980129
0.023834083
0.02107857
0.018583467
0.016348965
0.014352496
0.012573191
0.010989187
0.0095829079
0.0083315795
0.0072233923
0.0062371429
0.0053215277
0.0044749727
0.0037358645
0.0030893938
0.0025251423
0.0020329872
0.0016058516
0.0012372915
0.00092062967
0.00065128673
0.00042473354
0.00024351952
9.1875086e-05
3.8154379e-05
0.026851243
0.030146938
0.033706053
0.037489857
0.041410346
0.045357787
0.049003229
0.052259571
0.053830975
0.052584319
0.04651262
0.03699096
0.02222308
0.0032008233
-0.019962017
-0.045130398
-0.070143757
-0.09238128
-0.10961988
-0.12027864
-0.12380751
-0.12092802
-0.11331551
-0.10255289
-0.089333056
-0.072729744
-0.056941675
-0.04284698
-0.030641798
-0.020129134
-0.011159566
-0.0035577159
0.0028351962
0.0081824178
0.012592926
0.016226005
0.019101123
0.021331576
0.023004218
0.026916226
0.023827597
0.021025482
0.018513882
0.016270879
0.01427256
0.012492985
0.01091409
0.0095092581
0.0082667236
0.0071591843
0.0061270042
0.0051689141
0.0043324197
0.0035992586
0.0029602742
0.0024033605
0.0019191708
0.0015004741
0.0011409878
0.00083437332
0.00057636469
0.0003628471
0.00019648202
6.3581376e-05
2.5870797e-05
0.030290658
0.033965527
0.037914952
0.042079405
0.046341441
0.050542258
0.054257966
0.05736489
0.058142539
0.055471284
0.047057384
0.034663437
0.016329439
-0.0064215599
-0.033065425
-0.060869575
-0.08730867
-0.10959472
-0.12544011
-0.13355401
-0.13416793
-0.12883385
-0.11921646
-0.10603797
-0.088044836
-0.07045132
-0.054530575
-0.040629422
-0.02857603
-0.018233523
-0.0094250236
-0.0019738555
0.0042843454
0.0095178719
0.013836998
0.017391638
0.020200895
0.022397578
0.024044356
0.030378948
0.026915595
0.023769148
0.020946003
0.018423492
0.016178345
0.014179645
0.012406851
0.010830161
0.0094363744
0.0081945414
0.0070304594
0.005945215
0.0049994579
0.004169752
0.0034454786
0.002814826
0.0022667204
0.0017917832
0.0013828726
0.001033826
0.00073868758
0.00049352263
0.00029466727
0.00014489712
3.2703443e-05
1.251416e-05
0.034153798
0.038249525
0.042626543
0.047197319
0.051807387
0.056230421
0.059928396
0.062723558
0.062328639
0.057747297
0.046391904
0.030529793
0.0080678636
-0.018764017
-0.048911212
-0.079115704
-0.10650586
-0.12805038
-0.14158932
-0.14666639
-0.14454505
-0.1368611
-0.12428394
-0.10510686
-0.085686489
-0.067828937
-0.052082322
-0.03832247
-0.026448618
-0.016284317
-0.0076487652
-0.00035610456
0.0057651592
0.010888831
0.015103401
0.018575742
0.021316174
0.023478571
0.02509914
0.034271005
0.030385357
0.026850127
0.023677011
0.020840016
0.018314622
0.016069171
0.01407928
0.012309211
0.010746788
0.0093544142
0.008043427
0.0068136446