/*--------------------------------*- C++ -*----------------------------------*\
| =========                 |                                                 |
| \\      /  F ield         | OpenFOAM: The Open Source CFD Toolbox           |
|  \\    /   O peration     | Version:  v2012                                 |
|   \\  /    A nd           | Website:  www.openfoam.com                      |
|    \\/     M anipulation  |                                                 |
\*---------------------------------------------------------------------------*/
FoamFile
{
    version     2.0;
    format      ascii;
    class       surfaceScalarField;
    location    "2.360403";
    object      phi;
}
// * * * * * * * * * * * * * * * * * * * * * * * * * * * * * * * * * * * * * //

dimensions      [0 3 -1 0 0 0 0];
oriented        oriented;


internalField   nonuniform List<scalar> 
18180
(
0.00024205864
-3.3106791
0.00046192597
-3.097075
0.00031599281
-3.2713128
0.00065282961
-2.8972671
0.00060184138
-3.0611626
0.00035329613
-3.2318016
0.00081795564
-2.709567
0.00085336377
-2.8648406
0.00067147027
-3.0247768
0.0003992904
-3.1935093
0.00095427836
-2.5335298
0.0010693791
-2.6802028
0.00095348177
-2.8317858
0.0007595478
-2.9889239
0.00044439431
-3.1570253
0.0010640276
-2.3685983
0.0012493325
-2.5062688
0.001195499
-2.6500931
0.0010795272
-2.7984624
0.00084599194
-2.9544271
0.00049037742
-3.1233199
0.0011485707
-2.2142167
0.0013946955
-2.3428797
0.0013981324
-2.4786876
0.0013550491
-2.6194736
0.0012036434
-2.7658161
0.0009345034
-2.9220579
0.00053647001
-3.0915725
0.0012102492
-2.0698471
0.0015075634
-2.1898238
0.0015623913
-2.3172765
0.0015866308
-2.4505961
0.001512758
-2.5889085
0.0013311185
-2.734667
0.0010235242
-2.8916673
0.00058231005
-3.0621446
0.0012515385
-1.9348492
0.0015907504
-2.0465858
0.0016906673
-2.1656789
0.0017753067
-2.2912909
0.0017737769
-2.422157
0.0016753854
-2.5591124
0.0014598217
-2.705308
0.0011124075
-2.8635005
0.00062737553
-3.0346923
0.0012750096
-1.8086378
0.0016474043
-1.9126597
0.001785922
-2.0236624
0.0019235901
-2.1413849
0.0019876575
-2.2648247
0.0019676121
-2.3939506
0.0018403486
-2.5308589
0.0015888705
-2.6780432
0.0012001746
-2.8373482
0.00067112246
-3.0095289
0.0012832224
-1.6906575
0.0016807902
-1.7874927
0.0018515386
-1.8908453
0.0020346262
-2.000776
0.0021569207
-2.116787
0.0022085647
-2.2384005
0.0021652118
-2.3669196
0.0020066122
-2.5044725
0.0017169259
-2.6528081
0.0012858055
-2.8132243
0.00071297197
-2.9859209
0.0012786268
-1.5803794
0.0016941676
-1.6705439
0.0018910693
-1.7667411
0.0021120649
-1.8691886
0.0022848166
-1.9777881
0.0024007074
-2.0920238
0.0024349375
-2.2127127
0.0023655162
-2.3415907
0.0021725856
-2.4800942
0.0018425618
-2.629509
0.0013682084
-2.7907823
0.00075234834
-2.9641002
0.0012634598
-1.4773057
0.0016906716
-1.5612833
0.0019080722
-1.6508358
0.002159779
-1.7462036
0.0023751833
-1.8475846
0.002547328
-1.9546479
0.0026518463
-2.0679139
0.0026657922
-2.1886708
0.0025667833
-2.3181773
0.0023365451
-2.4575963
0.0019642546
-2.6080032
0.0014462755
-2.7700773
0.00078868112
-2.9437843
0.0012397501
-1.3809706
0.0016731955
-1.4592159
0.0019059803
-1.542602
0.0021816895
-1.6313605
0.002432143
-1.7258823
0.0026523452
-1.8260132
0.0028190945
-1.932174
0.0029094507
-2.0453378
0.0028993078
-2.1664295
0.0027670802
-2.2965666
0.0024966164
-2.4369252
0.0020804147
-2.5881963
0.0015189
-2.7509298
0.00082143538
-2.9251804
0.0012093228
-1.2909395
0.0016443744
-1.3638712
0.0018880149
-1.4415403
0.0021816136
-1.5241435
0.0024599231
-1.612225
0.0027200778
-1.7057057
0.002940618
-1.8050313
0.0030994305
-1.9110666
0.0031717777
-2.0243443
0.0031334972
-2.1457479
0.0029643005
-2.2766652
0.0026508274
-2.4179164
0.0021894642
-2.5699876
0.0015850265
-2.7332921
0.00085011714
-2.907791
0.0011737728
-1.2068062
0.0016065796
-1.2748089
0.0018571247
-1.3471753
0.0021631629
-1.4240527
0.0024626905
-1.5061293
0.0027550168
-1.5933222
0.0030208442
-1.6860568
0.0032395853
-1.7852745
0.0033867939
-1.8913091
0.0034369074
-2.0046827
0.0033661368
-2.1266708
0.003156187
-2.2584057
0.0027971756
-2.4005119
0.0022898464
-2.5532288
0.0016436714
-2.7169371
0.00087430046
-2.8917462
0.001134471
-1.1281862
0.0015618903
-1.1916154
0.0018159575
-1.2590564
0.0021296698
-1.3306093
0.002444423
-1.4071023
0.0027616516
-1.4884159
0.0030644618
-1.5748748
0.0033343178
-1.6675379
0.0035479283
-1.7668068
0.0036793664
-1.8727793
0.003702566
-1.9864574
0.0035947654
-2.1091233
0.0033403928
-2.2416917
0.0029336614
-2.3845434
0.0023801062
-2.5378071
0.0016939565
-2.7018484
0.00089363392
-2.8768383
0.0010925797
-1.0547198
0.0015121026
-1.1139019
0.0017668468
-1.176764
0.0020841462
-1.2433607
0.0024088288
-1.3146676
0.0027443186
-1.3905148
0.0030762347
-1.4710677
0.0033884391
-1.5574741
0.0036594735
-1.6502753
0.0038640497
-1.7493652
0.0039749976
-1.8554316
0.0039662755
-1.9696783
0.0038168276
-2.0930684
0.0035145441
-2.2264014
0.0030583628
-2.3699427
0.0024588922
-2.5236001
0.0017351422
-2.6879295
0.00090785206
-2.8631942
0.0010490708
-0.98607182
0.0014587434
-1.0413045
0.001711817
-1.099906
0.0020292624
-1.1618856
0.002359282
-1.2283702
0.0027071025
-1.2991512
0.003060838
-1.3741956
0.0034069282
-1.4546777
0.0037262569
-1.5412982
0.0039950232
-1.6339513
0.0041860632
-1.7330396
0.0042713234
-1.8395237
0.0042253699
-1.9543385
0.0040296569
-2.0783965
0.0036762932
-2.2124699
0.0031694604
-2.3565478
0.0025250553
-2.5105707
0.0017666363
-2.6751156
0.00091677655
-2.8504973
0.0010047457
-0.92192794
0.0014030944
-0.97348236
0.0016525964
-1.0281167
0.0019673469
-1.0857921
0.0022988002
-1.1477903
0.0026537582
-1.2138777
0.0030227216
-1.2838017
0.0033947567
-1.3587386
0.0037533896
-1.4395182
0.0040769622
-1.5260861
0.0043393493
-1.6186989
0.0045117465
-1.718075
0.0045656433
-1.8249888
0.004476979
-1.9403206
0.0042305522
-2.0650545
0.0038233635
-2.199765
0.0032653328
-2.3443289
0.0025776163
-2.498605
0.0017880186
-2.6633048
0.00092033604
-2.838817
0.0009602568
-0.86199244
0.0013462146
-0.91011775
0.0015906399
-0.96105283
0.0019003992
-1.0147203
0.0022300289
-1.0725381
0.0025876694
-1.1342761
0.0029660289
-1.1994464
0.0033567271
-1.2692131
0.0037460814
-1.3445114
0.0041150197
-1.4253077
0.0044392828
-1.5118329
0.0046905196
-1.6046718
0.0048385627
-1.7043446
0.0048550691
-1.8116202
0.0047181674
-1.9275398
0.0044168278
-2.0529198
0.0039536513
-2.1882232
0.0033445611
-2.3331886
0.0026158402
-2.4876852
0.0017990542
-2.6524536
0.00091854875
-2.8280206
0.0009161241
-0.80598786
0.0012889676
-0.85091285
0.0015271553
-0.89839526
0.0018301102
-0.94833244
0.0021552548
-1.0022537
0.0025118262
-1.0599522
0.002894524
-1.1207131
0.0032973653
-1.1856683
0.0037094615
-1.2558573
0.0041145706
-1.3312142
0.0044909245
-1.4119576
0.0048116724
-1.4986785
0.0050463144
-1.5917106
0.0051637483
-1.6916305
0.0051365469
-1.7994153
0.0049459289
-1.915932
0.0045859215
-2.0419349
0.0040652421
-2.1777817
0.0034059789
-2.3231065
0.0026392325
-2.4776977
0.0017996914
-2.6425188
0.00091152795
-2.8181609
0.00087274955
-0.75365136
0.0012320463
-0.79559044
0.0014631303
-0.83984672
0.0017578904
-0.88631551
0.0020764209
-0.93659832
0.0024288302
-0.99053727
0.0028115703
-1.047208
0.0032208343
-1.1076934
0.0036484244
-1.1731323
0.004081019
-1.2434059
0.0044997156
-1.318679
0.0048799832
-1.3996117
0.0051922521
-1.4865244
0.0054041352
-1.5796858
0.0054842069
-1.6799661
0.0054068269
-1.7883027
0.0051572925
-1.9054369
0.0047354091
-2.0320468
0.004156468
-2.1683892
0.0034487326
-2.3139638
0.0026475726
-2.4686323
0.0017900546
-2.6334069
0.00089947252
-2.8090329
0.00083043997
-0.70473686
0.0011759991
-0.74389085
0.0013993617
-0.78513263
0.0016848988
-0.82837687
0.0019951584
-0.87526228
0.0023409083
-0.92569365
0.0027201113
-0.97856567
0.0031308895
-1.0349006
0.0035675404
-1.0959332
0.004019612
-1.1614738
0.0044712626
-1.2316119
0.0049008442
-1.3070675
0.0052807477
-1.3882233
0.0055787439
-1.4751525
0.0057610603
-1.5685324
0.0057966698
-1.6693367
0.005662674
-1.7782672
0.0053493686
-1.8960163
0.0048630794
-2.0232093
0.0042259948
-2.15996
0.0034722647
-2.3057334
0.0026408813
-2.4603697
0.0017704509
-2.6250633
0.00088266358
-2.8006496
0.0007894316
-0.65901686
0.0011212485
-0.69557143
0.001336482
-0.73400066
0.0016120744
-0.77424931
0.0019128135
-0.81796138
0.0022499385
-0.86511267
0.0026226896
-0.91445195
0.00303085
-0.96693354
0.0034709706
-1.0238759
0.0039353188
-1.0850216
0.0044111351
-1.1503702
0.004879976
-1.2206662
0.00531699
-1.2963746
0.0056913782
-1.3775403
0.0059685871
-1.4645997
0.0061139645
-1.5584088
0.0060977438
-1.6597512
0.0059008043
-1.769272
0.0055194007
-1.8876357
0.004967031
-2.0153337
0.0042728053
-2.1524264
0.0034763539
-2.2983265
0.0026194507
-2.4528954
0.0017413397
-2.6174136
0.00086144948
-2.7929352
0.00074990137
-0.6162797
0.00106811
-0.65040749
0.0012749842
-0.68621363
0.0015401633
-0.72368219
0.0018304816
-0.76443159
0.0021574802
-0.80851061
0.0025214595
-0.85456271
0.0029236025
-0.90346179
0.00336244
-0.95660749
0.0038327272
-1.0136734
0.004324683
-1.0745654
0.0048232059
-1.1400418
0.0053066918
-1.2106274
0.0057467906
-1.2863902
0.0061096874
-1.3676402
0.0063588428
-1.4550233
0.0064593985
-1.5492936
0.0063838529
-1.6511741
0.0061179701
-1.7612948
0.0056648885
-1.8802116
0.005045673
-2.0083519
0.0042962647
-2.1457335
0.0034610915
-2.2917026
0.0025838
-2.4460941
0.0017033306
-2.6104425
0.00083623112
-2.7858945
0.00071197412
-0.57632511
0.0010168091
-0.60819015
0.0012152424
-0.64154984
0.0014697492
-0.67644082
0.0017490394
-0.71442728
0.0020648094
-0.75562024
0.0024182239
-0.79861355
0.0028116147
-0.84418553
0.0032452096
-0.89379966
0.003715986
-0.94707749
0.0042169307
-1.0038268
0.004736247
-1.0648165
0.0052558505
-1.1306042
0.0057505524
-1.2012706
0.0061885442
-1.2771151
0.006533122
-1.3586397
0.0067462545
-1.4463755
0.0067937181
-1.5410947
0.0066513888
-1.643563
0.0063110959
-1.7542598
0.0057835916
-1.8736786
0.0050978063
-2.0022084
0.0042961017
-2.1398055
0.0034269087
-2.2857587
0.0025346841
-2.4399563
0.0016571404
-2.6040507
0.00080747197
-2.7794052
0.00067572238
-0.53896862
0.00096749558
-0.56872368
0.0011575317
-0.59980378
0.001401276
-0.63230469
0.0016691754
-0.66771825
0.0019729535
-0.70619884
0.0023144651
-0.74633983
0.0026969642
-0.788823
0.0031220957
-0.83515114
0.0035887698
-0.88490581
0.0040924703
-0.93780408
0.0046245493
-0.9946249
0.0051705049
-1.0559462
0.0057087231
-1.1218179
0.0062103956
-1.1925662
0.006640216
-1.268682
0.0069588274
-1.350473
0.0071273067
-1.4385539
0.0071131004
-1.533828
0.0068967889
-1.6368751
0.0064772816
-1.7481054
0.0058736369
-1.8679779
0.0051226256
-1.9968269
0.0042724594
-2.1345704
0.0033745179
-2.280455
0.0024730289
-2.4343762
0.0016036308
-2.5982188
0.0007756599
-2.7734513
0.00064117496
-0.50403689
0.00092024064
-0.53182505
0.0011020415
-0.56078242
0.0013350726
-0.59106919
0.0015914178
-0.62408835
0.0018827233
-0.66001836
0.0022113837
-0.69749723
0.0025813721
-0.7371158
0.0029954828
-0.78038137
0.0034542765
-0.8268548
0.0039554272
-0.87617233
0.0044931722
-0.92912342
0.0050565083
-0.9862972
0.0056275848
-1.0476864
0.0061812145
-1.1136221
0.0066847713
-1.1846744
0.0070993957
-1.2610694
0.0073834793
-1.3430629
0.0074980694
-1.4315626
0.0074135912
-1.5274331
0.0071165325
-1.6310486
0.0066139214
-1.7427729
0.0059335348
-1.8630345
0.0051197853
-1.992129
0.0042258349
-2.1299512
0.0033049163
-2.2757196
0.0023999862
-2.4293443
0.001543719
-2.5928691
0.00074130207
-2.7680021
0.00060837457
-0.47137526
0.00087503688
-0.49732172
0.0010488795
-0.52430859
0.0012713654
-0.55254024
0.0015161591
-0.58333422
0.0017947474
-0.61686921
0.0021099348
-0.65186117
0.0024662397
-0.68882133
0.0028673648
-0.72923268
0.003315243
-0.77265018
0.0038094192
-0.81863074
0.0043467121
-0.86798807
0.0049193988
-0.92131991
0.0055133732
-0.97853156
0.006107418
-1.0399437
0.0066725058
-1.1062181
0.0071718446
-1.1776025
0.0075631859
-1.2540885
0.0078033893
-1.3363553
0.0078545239
-1.4254362
0.0076912201
-1.5218937
0.0073073036
-1.6260285
0.0067187449
-1.7381912
0.0059622734
-1.8587671
0.0050893589
-1.9880395
0.0041570987
-2.1259058
0.0032193924
-2.2715098
0.0023168182
-2.4247664
0.0014783827
-2.5880093
0.00070487325
-2.763039
-0.003815265
-0.51839186
0.00083196619
-0.46506307
0.00099806447
-0.49021351
0.0012102853
-0.51654167
0.0014436765
-0.54526541
0.0017094955
-0.57655462
0.0020108616
-0.60922493
0.0023526904
-0.64371667
0.0027393755
-0.68146744
0.0031739671
-0.72203586
0.0036575752
-0.76490442
0.0041892542
-0.81091963
0.0047642658
-0.86069254
0.0053720901
-0.91402146
0.0059955734
-0.97120177
0.0066098352
-1.0329681
0.0071814207
-1.0996433
0.0076693091
-1.1711438
0.0080283376
-1.2477865
0.0082145539
-1.3305026
0.0081922775
-1.4201523
0.0079420073
-1.5171435
0.0074660144
-1.6217479
0.0067899273
-1.7342778
0.0059592926
-1.8551036
0.0050318703
-1.9845141
0.0040675156
-2.1223611
0.003119452
-2.2677504
0.0022249026
-2.42064
0.001408549
-2.5835537
0.000666807
-2.758495
-0.0068828382
-0.5198385
-0.00338978
-0.507284
0.00094969582
-0.45834752
0.0011518578
-0.4829069
0.0013741308
-0.50970677
0.0016273043
-0.53889173
0.0019147273
-0.56939249
0.0022416014
-0.60159228
0.002612832
-0.63686117
0.0030323529
-0.6747775
0.0035025439
-0.71474101
0.0040243579
-0.75763956
0.0045957024
-0.80411701
0.0052093505
-0.85384368
0.0058521223
-0.90707089
0.0065035576
-0.96461132
0.0071343526
-1.0268565
0.0077062804
-1.0937143
0.0081743454
-1.1652911
0.0084910237
-1.2422491
0.0086124823
-1.3254765
0.0085069086
-1.4156374
0.0081621093
-1.5131119
0.0075899497
-1.6181231
0.006826094
-1.7309626
0.0059245443
-1.8519952
0.0049483499
-1.981479
0.0039586654
-2.1192685
0.0030067601
-2.2644051
0.0021255866
-2.4168841
0.0013350851
-2.5795034
0.00062749521
-2.7543401
-0.0087247731
-0.52115075
-0.006322429
-0.50998958
-0.0030734382
-0.49596635
0.0010962289
-0.45148806
0.0013075665
-0.47649179
0.001548374
-0.50370747
0.0018219352
-0.53218047
0.0021336464
-0.56224999
0.0024887752
-0.59520459
0.0028919417
-0.63065192
0.0033465348
-0.66790562
0.003855073
-0.70789453
0.0044177474
-0.75131524
0.0050302781
-0.79770322
0.005683212
-0.84724358
0.0063605241
-0.90082966
0.0070375363
-0.9589099
0.0076799839
-1.0213898
0.0082449374
-1.0883135
0.0086837187
-1.1601335
0.0089469791
-1.2375106
0.0089925036
-1.3211878
0.0087939656
-1.4118217
0.0083479324
-1.5097241
0.0076767857
-1.6150881
0.0068264023
-1.7281937
0.0058585852
-1.8493688
0.0048402459
-1.9788814
0.0038323792
-2.1165597
0.0028830159
-2.2614176
0.0020201588
-2.4134923
0.001258793
-2.575791
0.0005873369
-2.7505714
-0.0094805404
-0.52231418
-0.0080898461
-0.51244131
-0.0058705423
-0.49981879
-0.002737882
-0.48479396
0.0012441747
-0.44547459
0.0014727732
-0.4708366
0.0017327412
-0.49741579
0.0020293113
-0.52550385
0.0023680069
-0.55630206
0.0027539668
-0.58945287
0.003191356
-0.62417725
0.0036839586
-0.66144675
0.0042338989
-0.70202835
0.0048394482
-0.7453234
0.0054945286
-0.79142947
0.006187397
-0.84131844
0.0068981625
-0.895502
0.0075972292
-0.95385661
0.0082452947
-1.0164081
0.0087947796
-1.0835314
0.0091935071
-1.1556917
0.0093914963
-1.2334617
0.0093497127
-1.3175757
0.0090490208
-1.4086289
0.0084961359
-1.5069122
0.0077247046
-1.6125909
0.0067906922
-1.7259017
0.0057624953
-1.8471698
0.0047093707
-1.9766573
0.0036905886
-2.1142015
0.0027498541
-2.2587529
0.0019098477
-2.41039
0.0011805107
-2.5724317
0.00054675137
-2.7471579
-0.0092961387
-0.52332127
-0.0088239074
-0.51461516
-0.0075600424
-0.50330462
-0.0054077132
-0.48975751
-0.0024139124
-0.47476667
0.0014007514
-0.44013877
0.0016472403
-0.46493502
0.0019289161
-0.49118231
0.0022511211
-0.51997028
0.0026193816
-0.55098492
0.0030384592
-0.58334936
0.0035131356
-0.61807647
0.0040471208
-0.65601634
0.0046408572
-0.69644494
0.0052912289
-0.73935697
0.005990457
-0.78579451
0.0067233796
-0.83633396
0.0074654269
-0.8908133
0.008181971
-0.94923038
0.0088284611
-1.0119484
0.0093525075
-1.0793656
0.0096992995
-1.1518567
0.009819513
-1.2300104
0.0096790782
-1.3145415
0.0092677877
-1.4059945
0.008603812
-1.5046278
0.0077326001
-1.6105663
0.0067194108
-1.7240303
0.0056378357
-1.8453395
0.0045577206
-1.9747761
0.0035351983
-2.1121368
0.0026088872
-2.2563386
0.001795937
-2.4075718
0.0011011238
-2.5693538
0.00050618395
-2.7440665
-0.0083245585
-0.52416425
-0.0086634733
-0.51649686
-0.0082670257
-0.50639393
-0.0070246016
-0.49424915
-0.0049649007
-0.4807715
-0.0020967612
-0.46562974
0.0015657584
-0.43460182
0.001832592
-0.4591241
0.0021385075
-0.48604133
0.002488905
-0.5150656
0.0028889892
-0.54523144
0.0033443148
-0.57757809
0.0038598879
-0.61305672
0.0044379346
-0.65082875
0.0050778651
-0.69077066
0.0057754696
-0.73398961
0.0065200722
-0.78113018
0.0072921643
-0.83197691
0.008062412
-0.8864912
0.0087907884
-0.94504511
0.0094270148
-1.0080283
0.0099143369
-1.075709
0.010196223
-1.1485343
0.010225676
-1.2271118
0.0099754894
-1.3120419
0.0094462291
-1.4038625
0.0086687374
-1.5028081
0.0077000309
-1.6089562
0.0066136011
-1.7225244
0.0054864465
-1.8438477
0.0043873267
-1.9731796
0.0033681397
-2.1103124
0.0024618103
-2.2541436
0.0016797718
-2.4049786
0.0010215496
-2.5665701
0.00046605662
-2.7412628
-0.0067240268
-0.52483758
-0.0077541516
-0.51807217
-0.0081241611
-0.50906565
-0.0077082722
-0.49822724
-0.0065156751
-0.48620474
-0.0045399276
-0.47256864
-0.0017814837
-0.45652804
0.0017407599
-0.42919731
0.0020303563
-0.45435586
0.0023630181
-0.4815244
0.0027438035
-0.5096441
0.0031788647
-0.53976361
0.0036742207
-0.57294328
0.0042335607
-0.60824968
0.00485839
-0.64543174
0.0055476109
-0.68565261
0.006294651
-0.72962661
0.0070849046
-0.77707726
0.0078945539
-0.82792223
0.0086890375
-0.88254128
0.009422127
-0.94134163
0.010037899
-1.0045605
0.010475771
-1.0725099
0.010678792
-1.1457192
0.010604185
-1.2247032
0.01023387
-1.3100131
0.0095809471
-1.4021874
0.0086893652
-1.5013999
0.0076272363
-1.6077095
0.0064746691
-1.7213516
0.0053102773
-1.8426357
0.0042003229
-1.9718242
0.0031914917
-2.1086756
0.0023104469
-2.2521276
0.0015627167
-2.4026143
0.0009426205
-2.5640249
0.00042673943
-2.738756
-0.0046570666
-0.52533674
-0.0062460136
-0.5193311
-0.0072688242
-0.51130155
-0.0075843009
-0.50166457
-0.0071788249
-0.49101616
-0.0060305181
-0.47884418
-0.0041246997
-0.46439435
-0.001465297
-0.44780982
0.0019271958
-0.42478166
0.0022419793
-0.45019598
0.0026035112
-0.47641615
0.0030178181
-0.50445506
0.0034917401
-0.53548355
0.0040301155
-0.56849873
0.00463616
-0.60311885
0.0053114135
-0.64054681
0.0060529648
-0.68157602
0.0068507454
-0.72586008
0.0076863981
-0.77326318
0.008531319
-0.82417507
0.009344713
-0.87902735
0.010073873
-0.93805352
0.010657336
-1.0014722
0.011031611
-1.0697344
0.011140968
-1.1433619
0.010949204
-1.2227476
0.010449652
-1.308425
0.0096691123
-1.4009159
0.0086648598
-1.5003538
0.0075148831
-1.6067927
0.0063042127
-1.7204564
0.0051114827
-1.841668
0.0039990898
-1.9706613
0.0030075436
-2.1072013
0.0021566589
-2.2502767
0.0014460077
-2.4004313
0.00086503691
-2.5617438
0.00038852145
-2.7365136
-0.0022893396
-0.5256582
-0.0042937264
-0.52026457
-0.0058445443
-0.51308615
-0.0067839289
-0.5045375
-0.0070741539
-0.49517156
-0.0066763598
-0.48440205
-0.0055602132
-0.47150921
-0.0037154092
-0.45659566
-0.0011500503
-0.44028925
0.002126451
-0.42094176
0.0024684488
-0.44538359
0.0028619356
-0.4714875
0.0033136986
-0.50049815
0.0038295234
-0.53138077
0.0044139691
-0.56362522
0.0050707821
-0.59845445
0.0058001956
-0.63674479
0.006596236
-0.67807998
0.0074457247
-0.7222656
0.008326114
-0.76969989
0.0092028467
-0.82083045
0.010028355
-0.87589862
0.01074321
-0.93510014
0.011280816
-0.9987629
0.011575938
-1.0673984
0.011576343
-1.1414413
0.01125509
-1.2212052
0.010618717
-1.3072275
0.0097086242
-1.4000077
0.0085948324
-1.4996373
0.007363889
-1.6061533
0.0061041457
-1.7198042
0.0048926047
-1.8408999
0.0037863433
-1.9696646
0.0028186796
-2.1058603
0.0020021826
-2.2485582
0.0013306893
-2.398446
0.00078934479
-2.5596684
0.00035162852
-2.7345194
-0.52579983
0.00021137646
-0.0020550079
-0.52086612
-0.0039981174
-0.51440767
-0.0054429548
-0.50682644
-0.0063264925
-0.49864209
-0.0065911818
-0.48920358
-0.0061916954
-0.47781168
-0.0051015443
-0.46455026
-0.0033162028
-0.44993121
-0.00083508608
-0.43351121
0.0023394528
-0.41640806
0.0027116598
-0.44070544
0.0031410194
-0.4678248
0.0036332896
-0.49671604
0.0041941079
-0.52675792
0.0048289886
-0.55917126
0.0055408599
-0.59491332
0.0063272868
-0.63350623
0.0071798397
-0.67468921
0.0080818484
-0.71887019
0.0090053386
-0.76651262
0.0099091201
-0.81784968
0.010738268
-0.87309121
0.0114265
-0.93249159
0.01190279
-0.99644139
0.012102103
-1.0654689
0.011978502
-1.1399193
0.011516559
-1.2200444
0.01073756
-1.3063865
0.0096977345
-1.3994261
0.0084791603
-1.4992009
0.0071756001
-1.6057555
0.0058769557
-1.7193536
0.0046566983
-1.8403078
0.0035649946
-1.9688001
0.0026271708
-2.1046271
0.0018485072
-2.2469635
0.0012176054
-2.3966216
0.00071599316
-2.5578214
0.00031623796
-2.7327418
-0.52113159
0.00031046324
-0.52579721
0.0027120769
-0.0018794329
-0.51525696
-0.0037010488
-0.50851612
-0.0050647628
-0.50140479
-0.005893865
-0.4932152
-0.0061269488
-0.48326035
-0.0057213946
-0.47159924
-0.0046586404
-0.45866413
-0.0029263628
-0.44395612
-0.0005132147
-0.42612715
0.0025680538
-0.41198897
0.0029742769
-0.43730839
0.0034425464
-0.46433695
0.0039783693
-0.4923371
0.004588759
-0.52250859
0.0052787866
-0.55587742
0.0060490952
-0.59191915
0.0068954279
-0.63030535
0.0078066276
-0.67144996
0.0087612256
-0.71583387
0.0097250922
-0.76366595
0.010649647
-0.81517121
0.011471944
-0.87059589
0.012118986
-0.93021015
0.012516856
-0.99447541
0.012603327
-1.0639139
0.012341188
-1.1387636
0.011728684
-1.2192235
0.010802877
-1.3058693
0.0096349205
-1.3991331
0.0083182264
-1.4990089
0.0069521452
-1.60556
0.0056258714
-1.7190835
0.0044071565
-1.8398507
0.0033378864
-1.9680288
0.0024350201
-2.103471
0.0016968857
-2.245491
0.0011074671
-2.3949769
0.00064533853
-2.556154
0.00028249869
-2.7311967
-0.51562821
0.00035973019
-0.5211295
0.0026759734
-0.52565074
0.0050799167
-0.0017006141
-0.50959461
-0.0034218624
-0.50344096
-0.0047073708
-0.49640985
-0.0054788727
-0.48781757
-0.0056779207
-0.47769562
-0.0052703257
-0.4664073
-0.0042310513
-0.453415
-0.0025347377
-0.43730658
-0.00018103917
-0.41899658
0.0028147797
-0.40882973
0.0032580289
-0.43408433
0.0037681623
-0.46019368
0.0043522346
-0.48828626
0.0050171963
-0.51944853
0.0057661339
-0.55311561
0.0065984684
-0.58889853
0.007507961
-0.62721231
0.0084793946
-0.66855938
0.0094858078
-0.71311509
0.010486117
-0.76110176
0.011423208
-0.8127889
0.012225732
-0.86839063
0.012814994
-0.92822242
0.01311635
-0.99284689
0.013072761
-1.0627193
0.01265829
-1.1379388
0.011886538
-1.2187237
0.010811374
-1.3056467
0.0095191382
-1.3990906
0.0081134089
-1.4990232
0.0066966724
-1.6055462
0.0053546622
-1.7189531
0.0041473979
-1.8394917
0.0031076005
-1.967322
0.0022439563
-2.1023983
0.0015483805
-2.2441384
0.0010008741
-2.393483
0.00057765814
-2.5546991
0.00025049056
-2.7298519
-0.51005511
0.0004142223
-0.51562053
0.0025989295
-0.52086062
0.004915077
-0.5253243
0.0071471127
-0.0015331851
-0.50473703
-0.00315807
-0.49876654
-0.0043651027
-0.49145183
-0.0050790743
-0.48279783
-0.0052493807
-0.47310612
-0.0048373817
-0.46180796
-0.0038049656
-0.44742923
-0.0021371413
-0.43084875
0.000157584
-0.41329647
0.0030813607
-0.40583261
0.0035644089
-0.43016895
0.0041211539
-0.45633924
0.0047586576
-0.48544713
0.0054821953
-0.51690449
0.0062941427
-0.55026615
0.0071926946
-0.58594469
0.0081682561
-0.62446568
0.0092009022
-0.66596504
0.0102575
-0.71065327
0.01128855
-0.75882131
0.01222746
-0.81067676
0.012994965
-0.86643623
0.013508353
-0.92653311
0.013694246
-0.99156287
0.01350338
-1.0618522
0.012923249
-1.1374294
0.011984797
-1.2185171
0.010760167
-1.3056847
0.0093505617
-1.3992655
0.007867418
-1.4992215
0.0064131285
-1.6056745
0.0050672606
-1.7189347
0.0038806031
-1.839201
0.0028764204
-1.9666685
0.0020554892
-2.1013972
0.0014039216
-2.2429209
0.00089832493
-2.3921674
0.00051313225
-2.5534024
0.00022019293
-2.7286995
-0.50528524
0.00046416557
-0.51002565
0.002529001
-0.51523516
0.0047180655
-0.52025631
0.0068680901
-0.52481951
0.0087480146
-0.0013748779
-0.50027036
-0.0029058254
-0.49413968
-0.0040361108
-0.48687193
-0.0046981363
-0.47871303
-0.0048393412
-0.46907228
-0.0044086524
-0.45641405
-0.0033760587
-0.44158766
-0.0017410992
-0.42580276
0.0005047892
-0.40787475
0.0033691347
-0.40214227
0.0038966782
-0.42651014
0.0045052743
-0.45370466
0.0052003437
-0.48310738
0.0059869372
-0.51421826
0.006866814
-0.54744571
0.0078355793
-0.58333925
0.0088797071
-0.62199378
0.0099741117
-0.66359901
0.011077791
-0.70846082
0.012131478
-0.7567969
0.01305907
-0.80878697
0.013774475
-0.86472018
0.014192461
-0.92514022
0.014243145
-0.99060618
0.013887287
-1.0613051
0.013128671
-1.1372184
0.012018367
-1.2185847
0.010647709
-1.3059513
0.0091310218
-1.3996305
0.0075840806
-1.499565
0.0061058043
-1.6059221
0.0047674164
-1.7189992
0.0036096688
-1.838965
0.0026464006
-1.9660576
0.0018709631
-2.1004967
0.0012642865
-2.2418355
0.00080020708
-2.3909977
0.00045190496
-2.5522892
0.00019156405
-2.7277102
-0.5009125
0.00051174486
-0.50524034
0.002461333
-0.50950795
0.0045297003
-0.51437319
0.0065653813
-0.51932028
0.0083772862
-0.52413989
0.00972012
-0.0012237331
-0.49586369
-0.002663771
-0.48988974
-0.0037231145
-0.48318903
-0.004334668
-0.47515461
-0.0044346586
-0.46419557
-0.0039786253
-0.45111573
-0.002954451
-0.43712686
-0.0013452715
-0.42100884
0.00086744729
-0.40187324
0.0036813304
-0.39869653
0.0042585141
-0.42405954
0.0049231463
-0.45155174
0.005680457
-0.48057435
0.006535601
-0.51152731
0.0074882691
-0.54497909
0.0085310185
-0.58098898
0.0096461735
-0.61971938
0.010801757
-0.66148862
0.011947243
-0.70651413
0.013013108
-0.7549755
0.013914306
-0.80709548
0.014558754
-0.86326101
0.014860185
-0.92407042
0.014754195
-0.98998346
0.014215046
-1.0610703
0.013266927
-1.1372932
0.011983502
-1.2188911
0.010474495
-1.3064212
0.0088638511
-1.4001514
0.007267791
-1.5000299
0.0057789108
-1.60626
0.0044586469
-1.7191349
0.0033372654
-1.8387647
0.0024194035
-1.9654979
0.0016915394
-2.0996779
0.0011301219
-2.2408913
0.00070681669
-2.3899877
0.00039412693
-2.5513155
0.00016472477
-2.726905
-0.49661283
0.00055696627
-0.50087368
0.0023981789
-0.50460411
0.0043499859
-0.5083735
0.0062722558
-0.51304101
0.0079910077
-0.51805924
0.009288015
-0.52329036
0.0099052382
-0.0010788752
-0.49183001
-0.0024334847
-0.4865027
-0.0034246877
-0.48001001
-0.0039765701
-0.47071742
-0.0040300028
-0.4593663
-0.0035596127
-0.44716911
-0.0025390459
-0.43289595
-0.00093860239
-0.41562325
0.0012487663
-0.39623327
0.0040214543
-0.39641639
0.0046524335
-0.42207425
0.005377879
-0.44916741
0.0062033186
-0.47800894
0.0071325037
-0.50919642
0.0081627328
-0.5427499
0.0092835934
-0.57880558
0.010471484
-0.61768917
0.011685792
-0.65961287
0.012865686
-0.70475502
0.013931431
-0.75333573
0.014789181
-0.80562669
0.015341476
-0.86208841
0.015502237
-0.92333318
0.015216179
-0.98969234
0.014476424
-1.0611352
0.013331751
-1.1376225
0.011878892
-1.2194179
0.010242894
-1.3070613
0.0085531946
-1.4008007
0.006923015
-1.5005876
0.0054365174
-1.6066776
0.0041442801
-1.7193184
0.0030658778
-1.8385987
0.002197089
-1.9649777
0.0015182075
-2.0989675
0.0010019282
-2.240074
0.0006183793
-2.3891081
0.00033991418
-2.5505157
0.00013982817
-2.7262551
-0.49267943
0.00060018487
-0.49659181
0.0023375956
-0.50015703
0.0041814114
-0.50322044
0.005993125
-0.50663017
0.0076143756
-0.51124764
0.0088481772
-0.51648225
0.0094502113
-0.5222751
0.0091503805
-0.00094091156
-0.48863002
-0.0022140342
-0.483604
-0.0031313795
-0.47593214
-0.0036197654
-0.46628128
-0.0036379257
-0.45585996
-0.0031498104
-0.44344093
-0.0021162441
-0.42807292
-0.00051883628
-0.41057754
0.001646451
-0.39184001
0.0043919751
-0.39457633
0.0050814248
-0.41983725
0.0058738339
-0.44672855
0.006773316
-0.47581164
0.0077820888
-0.50708696
0.0088953358
-0.54065638
0.010098022
-0.57685469
0.011358833
-0.61588157
0.012627671
-0.65790479
0.013833021
-0.70316171
0.014884466
-0.75189043
0.015678976
-0.80440039
0.016113788
-0.86123692
0.016106198
-0.92295086
0.015616382
-0.9897251
0.014662373
-1.0614779
0.013319544
-1.1381896
0.011705444
-1.2201304
0.009956379
-1.3078448
0.008203454
-1.4015507
0.0065542082
-1.5012242
0.005082597
-1.6071478
0.0038275061
-1.7195431
0.0027977757
-1.8384548
0.0019809042
-1.9645203
0.0013517672
-2.0983449
0.00088010685
-2.2393902
0.0005350636
-2.3883824
0.00028925129
-2.5498444
0.00011678255
-2.7257565
-0.48955679
0.00064166929
-0.49266295
0.0022792823
-0.49580381
0.0040201538
-0.49858053
0.0057310915
-0.50109815
0.0072555564
-0.5042896
0.0084164951
-0.5090054
0.0089933816
-0.51460021
0.0087182693
-0.5210999
0.0073096111
-0.00080922139
-0.48590996
-0.001998756
-0.47980107
-0.0028397135
-0.471813
-0.0032743494
-0.46313749
-0.0032561434
-0.45256749
-0.0027360917
-0.43912305
-0.0016847366
-0.42358053
-9.0414854e-05
-0.40675345
0.0020637926
-0.38794878
0.0047957565
-0.39247947
0.0055498825
-0.41752866
0.0064153882
-0.44465935
0.0073949523
-0.47381844
0.0084898667
-0.50508331
0.0096914872
-0.53878375
0.010978521
-0.57511401
0.012311153
-0.61421821
0.013629257
-0.65634696
0.014849626
-0.70175189
0.015869787
-0.75066555
0.016576098
-0.80347353
0.016862581
-0.86074772
0.016657012
-0.92292152
0.015942878
-0.99006224
0.014766717
-1.0620791
0.013229335
-1.1389653
0.011465446
-1.2210066
0.0096188155
-1.3087415
0.0078191761
-1.4023828
0.0061658885
-1.5019122
0.0047210802
-1.6076608
0.0035113161
-1.7197938
0.0025349939
-1.8383505
0.0017720624
-1.9641107
0.0011928837
-2.0978466
0.00076495869
-2.2388313
0.00045698046
-2.3877807
0.00024209046
-2.5493277
9.5476634e-05
-2.7253822
-0.48691154
0.00068161068
-0.48952691
0.0022242739
-0.49178332
0.0038650148
-0.49404156
0.0054805098
-0.49615296
0.0069185075
-0.49825007
0.0080045925
-0.5013676
0.008542995
-0.50633157
0.0082892985
-0.51242586
0.0069532972
-0.51977152
0.0042435538
-0.00068053474
-0.482294
-0.0017851871
-0.4759205
-0.0025576727
-0.46895189
-0.0029397497
-0.46021012
-0.0028731679
-0.44869388
-0.0023171757
-0.43512171
-0.0012510568
-0.42027193
0.00034878201
-0.40339443
0.0025064641
-0.38387646
0.0052372075