/*--------------------------------*- C++ -*----------------------------------*\
| =========                 |                                                 |
| \\      /  F ield         | OpenFOAM: The Open Source CFD Toolbox           |
|  \\    /   O peration     | Version:  v2012                                 |
|   \\  /    A nd           | Website:  www.openfoam.com                      |
|    \\/     M anipulation  |                                                 |
\*---------------------------------------------------------------------------*/
FoamFile
{
    version     2.0;
    format      ascii;
    class       surfaceVectorField;
    location    "2.360403";
    object      Uf;
}
// * * * * * * * * * * * * * * * * * * * * * * * * * * * * * * * * * * * * * //

dimensions      [0 1 -1 0 0 0 0];


internalField   nonuniform List<vector> 
18180
(
(2.5018242 -0.00021780363 5.5693105e-25)
(2.5020314 -0.00011097129 -2.1509278e-26)
(2.5017487 -0.00041582215 1.5603857e-23)
(2.5019582 -0.00038997718 -8.7969058e-25)
(2.5021242 -0.00029440758 -1.4315728e-24)
(2.5022674 -0.00013717319 -1.0965398e-23)
(2.5016431 -0.00058801892 1.4366424e-23)
(2.5018646 -0.0005870731 2.4173457e-23)
(2.5020344 -0.00056093569 8.6528423e-24)
(2.5021867 -0.00048237143 -2.7159304e-24)
(2.5023392 -0.00034066621 -1.1794758e-23)
(2.5025312 -0.00016001038 -9.8928779e-24)
(2.501508 -0.00073723534 -1.5092762e-24)
(2.5017256 -0.00078980767 -3.2618947e-24)
(2.5019084 -0.00079576463 6.1291878e-24)
(2.5020798 -0.00072604406 -2.065288e-23)
(2.5022399 -0.00064767498 -3.227164e-23)
(2.502441 -0.00056108134 1.8919736e-23)
(2.5026212 -0.00039846951 2.1222109e-23)
(2.5028294 -0.00018557463 1.3339432e-23)
(2.5013573 -0.00086068536 -3.6853195e-24)
(2.5015667 -0.00094640733 -8.532063e-25)
(2.5017481 -0.00099778606 -2.172918e-24)
(2.5019235 -0.00097815365 -1.0296838e-23)
(2.5021002 -0.00092011882 -3.6329225e-23)
(2.5023211 -0.00084494058 -6.7164191e-23)
(2.5025097 -0.000758213 -1.909156e-23)
(2.5027289 -0.00065096667 2.5339491e-23)
(2.5029285 -0.00045898577 1.7915318e-23)
(2.5031613 -0.00021279007 4.6261771e-23)
(2.5011954 -0.00096031113 -3.6661243e-25)
(2.5013908 -0.0010806474 -8.4903073e-24)
(2.5015675 -0.0011664146 -5.877341e-24)
(2.5017433 -0.0011728553 -1.6822444e-23)
(2.501922 -0.0011543035 -2.4779095e-23)
(2.5021453 -0.001139573 2.3640049e-24)
(2.5023524 -0.0010781032 -2.6305162e-23)
(2.5025949 -0.00098108494 1.1806445e-23)
(2.5028045 -0.00087402289 5.4518166e-23)
(2.5030498 -0.00074647723 -3.3296801e-24)
(2.5032719 -0.00052420292 2.3250298e-23)
(2.5035275 -0.00024181741 9.6786538e-24)
(2.5010289 -0.0010372769 -5.978841e-24)
(2.5012065 -0.0011852366 3.3732019e-25)
(2.5013732 -0.0013029251 -7.3686223e-24)
(2.5015437 -0.0013407079 1.0607932e-24)
(2.5017209 -0.0013507427 -9.225369e-24)
(2.5019423 -0.0013677235 -1.5234625e-23)
(2.5021515 -0.001353969 1.0708585e-23)
(2.5023979 -0.0013247701 -2.3427199e-24)
(2.5026289 -0.0012440485 3.4253719e-23)
(2.502901 -0.0011262352 8.8161687e-23)
(2.5031346 -0.00099925203 3.3744829e-23)
(2.5034048 -0.00084876799 3.6149184e-23)
(2.5036491 -0.00059357248 2.3462501e-23)
(2.5039281 -0.00027251407 -3.9663839e-23)
(2.5008621 -0.0010936389 -9.7177528e-25)
(2.5010192 -0.0012649244 -1.9668118e-24)
(2.5011725 -0.0014091945 4.098447e-24)
(2.5013339 -0.0014720605 1.2129241e-23)
(2.501504 -0.0015103188 2.0208986e-23)
(2.5017166 -0.0015653128 1.9549627e-23)
(2.5019239 -0.0015862692 1.4307244e-23)
(2.5021698 -0.0015919219 1.6798831e-23)
(2.502404 -0.0015643428 4.497837e-24)
(2.5026813 -0.0015227835 -2.2194261e-24)
(2.5029395 -0.0014239448 4.846483e-23)
(2.5032404 -0.0012822081 1.5681796e-23)
(2.5034981 -0.0011327988 1.7675337e-23)
(2.5037941 -0.00095724586 1.5855816e-23)
(2.5040609 -0.00066689767 -4.4271812e-23)
(2.504363 -0.00030471893 6.6876177e-24)
(2.5006985 -0.0011315833 8.6499599e-24)
(2.5008334 -0.0013214416 2.6545422e-23)
(2.5009708 -0.0014877753 2.6129542e-23)
(2.5011199 -0.0015728533 -4.0412798e-24)
(2.5012793 -0.0016352451 3.4282184e-24)
(2.5014786 -0.0017207179 -1.3790474e-23)
(2.5016776 -0.0017759317 -1.5044036e-23)
(2.5019153 -0.0018244634 5.3997245e-23)
(2.5021485 -0.0018353022 5.700715e-23)
(2.5024263 -0.0018324471 -9.6679114e-25)
(2.502689 -0.0017931389 -7.3188692e-24)
(2.5029971 -0.0017361994 -5.3359468e-24)
(2.503283 -0.0016163612 -3.7347505e-23)
(2.5036139 -0.0014482195 5.9991642e-23)
(2.5038962 -0.0012743785 5.8912552e-23)
(2.5042179 -0.00107145 -8.5091821e-23)
(2.5045068 -0.0007437521 -3.732309e-23)
(2.5048315 -0.00033820663 -5.100254e-24)
(2.5005407 -0.0011533954 -8.825597e-25)
(2.5006523 -0.0013575857 -1.3468559e-24)
(2.5007722 -0.001541549 1.5518998e-23)
(2.5009071 -0.0016450487 2.1847201e-23)
(2.5010529 -0.0017282943 -6.6250571e-24)
(2.5012353 -0.0018407961 -4.3335344e-23)
(2.5014218 -0.001925339 -6.0524257e-23)
(2.5016461 -0.0020084273 -4.0148347e-23)
(2.501871 -0.0020577868 2.5038737e-23)
(2.5021406 -0.0021035265 7.2936928e-23)
(2.5024033 -0.0021070943 1.8176891e-23)
(2.5027136 -0.0020926317 -9.521296e-24)
(2.5030057 -0.0020387453 -7.6730806e-24)
(2.5033461 -0.0019641119 -5.3286861e-23)
(2.5036606 -0.0018210141 3.8928513e-23)
(2.5040218 -0.0016236885 5.1424112e-23)
(2.5043287 -0.0014232472 -8.5499162e-23)
(2.5046758 -0.0011906535 -5.3557483e-23)
(2.5049864 -0.00082359677 -2.3213911e-23)
(2.5053327 -0.00037269883 -2.674169e-23)
(2.5003904 -0.0011613622 -3.5100144e-24)
(2.5004787 -0.0013760056 -1.1764843e-23)
(2.5005801 -0.0015735208 -1.2432064e-23)
(2.5006994 -0.0016920312 -3.5933332e-24)
(2.5008297 -0.0017926718 2.2261936e-24)
(2.5009926 -0.0019276199 5.0594069e-23)
(2.5011632 -0.0020375455 1.6696692e-23)
(2.50137 -0.002151666 -3.477943e-23)
(2.5015818 -0.0022342776 -1.4988146e-23)
(2.5018374 -0.0023193867 2.3991468e-23)
(2.5020919 -0.0023665197 6.9478837e-23)
(2.5023946 -0.0024065921 4.2414804e-23)
(2.5026882 -0.0024000212 1.6492641e-23)
(2.503033 -0.0023716319 -9.5770072e-24)
(2.5033559 -0.0023010182 -5.2939519e-23)
(2.5037294 -0.0022058891 -7.7803736e-23)
(2.5040728 -0.0020369733 -6.7808975e-23)
(2.5044643 -0.0018076347 -1.0392056e-22)
(2.5047955 -0.0015784503 -7.3806107e-23)
(2.5051672 -0.0013139514 2.9019564e-24)
(2.5054987 -0.00090576746 0)
(2.5058651 -0.00040786718 -4.2662054e-23)
(2.5002489 -0.0011576823 7.6878452e-24)
(2.5003141 -0.0013793408 3.8243887e-24)
(2.5003968 -0.0015867069 -3.8998e-24)
(2.5004996 -0.0017169951 -2.3717705e-23)
(2.5006132 -0.0018317617 -1.5459007e-23)
(2.500755 -0.0019850016 -5.842082e-24)
(2.5009074 -0.0021161214 4.0069642e-23)
(2.5010936 -0.0022563009 4.9796731e-23)
(2.5012884 -0.0023680208 1.4414676e-24)
(2.5015252 -0.0024888822 -7.6131177e-24)
(2.501766 -0.0025739042 2.9537513e-23)
(2.5020548 -0.0026584249 5.8291695e-23)
(2.5023407 -0.002700644 3.2401072e-23)
(2.5026792 -0.0027330124 2.5237036e-23)
(2.5030054 -0.0027142035 7.5542173e-25)
(2.5033861 -0.0026689547 -6.9427566e-23)
(2.5037404 -0.0025790077 -9.3311883e-23)
(2.5041476 -0.002460364 2.9467994e-23)
(2.5045199 -0.0022630086 -3.307263e-24)
(2.504941 -0.0019988025 -8.6251504e-23)
(2.5052959 -0.0017387865 -1.3604769e-23)
(2.505691 -0.0014402564 2.2226298e-24)
(2.506042 -0.00098948629 -3.8241526e-23)
(2.506427 -0.00044334045 3.2196459e-23)
(2.5001169 -0.0011443702 1.8184528e-23)
(2.5001597 -0.001370068 -1.857673e-23)
(2.5002238 -0.0015840195 -2.2673875e-23)
(2.50031 -0.0017231374 -4.2810225e-23)
(2.5004062 -0.0018489696 -6.2275574e-23)
(2.5005261 -0.0020165492 -6.4624346e-23)
(2.5006587 -0.0021648842 -5.6249271e-23)
(2.5008223 -0.002326579 -9.2169685e-23)
(2.5009974 -0.0024628873 -8.5084464e-23)
(2.5012116 -0.0026140684 -4.2304336e-23)
(2.5014342 -0.0027325991 -5.1541707e-23)
(2.5017033 -0.0028579877 2.1322464e-23)
(2.5019755 -0.0029429962 4.8505706e-23)
(2.5023003 -0.0030252176 3.5379516e-23)
(2.5026199 -0.0030606646 2.8755519e-23)
(2.5029961 -0.0030825711 1.6292012e-23)
(2.5033564 -0.0030488399 -5.0126947e-23)
(2.5037741 -0.0029834754 -9.236703e-23)
(2.5041604 -0.0028713918 2.4191663e-23)
(2.5046011 -0.0027259926 1.5852866e-22)
(2.5050017 -0.0024975308 8.2279349e-23)
(2.5054515 -0.0021956495 -1.0436152e-23)
(2.505829 -0.0019028281 4.7194886e-24)
(2.5062459 -0.0015683211 1.0562317e-24)
(2.5066147 -0.0010738779 6.8583995e-23)
(2.507016 -0.0004787123 8.3871892e-23)
(2.4999947 -0.0011232583 1.3329872e-23)
(2.5000162 -0.0013504547 3.0053013e-26)
(2.5000621 -0.0015681558 -3.519436e-23)
(2.5001318 -0.0017134847 -3.5960113e-23)
(2.5002105 -0.0018475964 -5.5310591e-23)
(2.5003082 -0.0020259052 -5.9352738e-23)
(2.5004204 -0.002187716 -6.1537008e-23)
(2.5005602 -0.0023665347 -5.561673e-23)
(2.5007135 -0.0025230798 -8.9767811e-23)
(2.5009027 -0.0026995769 -1.2042791e-22)
(2.5011038 -0.0028467032 -8.0258505e-23)
(2.5013489 -0.0030071327 -4.1529702e-23)
(2.501602 -0.0031304154 2.7849771e-23)
(2.5019067 -0.00325908 5.0860273e-23)
(2.5022129 -0.0033425382 3.8339801e-23)
(2.5025764 -0.0034199564 1.3815308e-23)
(2.5029316 -0.0034460887 1.7363975e-24)
(2.5033472 -0.0034543474 1.3589045e-23)
(2.5037426 -0.0034027036 -2.5512555e-23)
(2.5041979 -0.0033136167 -1.8806598e-23)
(2.5046162 -0.0031763902 1.0810878e-22)
(2.5050899 -0.0030008311 -3.9608767e-23)
(2.5055179 -0.0027386156 -1.2958467e-22)
(2.5059947 -0.0023963705 -2.9605816e-23)
(2.5063931 -0.0020689448 -3.3679779e-23)
(2.5068297 -0.0016967604 -2.93201e-23)
(2.5072144 -0.0011579854 -1.6355551e-23)
(2.5076294 -0.00051355089 -5.4675375e-23)
(2.4998822 -0.0010959996 1.8006334e-23)
(2.4998836 -0.0013225569 1.2936586e-23)
(2.4999122 -0.0015415799 2.1601815e-25)
(2.4999658 -0.0016908366 2.8473195e-23)
(2.5000274 -0.0018307483 2.8783043e-23)
(2.5001032 -0.0020165488 3.2143988e-23)
(2.5001946 -0.0021884137 2.970776e-23)
(2.5003101 -0.0023802956 2.8130267e-23)
(2.5004407 -0.0025529287 3.5187e-23)
(2.5006033 -0.0027498288 -3.1125469e-23)
(2.5007805 -0.0029207556 -5.9252605e-23)
(2.5009984 -0.0031108078 -1.3078432e-22)
(2.5012285 -0.0032671244 -9.4804458e-23)
(2.5015079 -0.003436077 -4.5141033e-23)
(2.5017945 -0.0035630012 -2.4630945e-23)
(2.502138 -0.0036928625 3.9736925e-23)
(2.5024806 -0.003772483 1.6362682e-23)
(2.5028853 -0.0038420938 1.4067968e-23)
(2.5032779 -0.0038559717 2.5523956e-23)
(2.5037344 -0.0038469113 -2.1124743e-23)
(2.5041655 -0.0037740305 -1.451786e-23)
(2.5046586 -0.0036573107 4.7942224e-23)
(2.5051083 -0.0034917848 -9.3332662e-23)
(2.5056138 -0.003282559 -1.5745205e-22)
(2.5060677 -0.0029840279 -6.3034751e-23)
(2.5065692 -0.0025989262 -2.4232622e-23)
(2.5069866 -0.0022353322 -1.9940823e-23)
(2.5074403 -0.0018240821 7.1851774e-24)
(2.5078384 -0.0012407943 -2.8840438e-23)
(2.5082643 -0.00054740923 -1.2076442e-23)
(2.4997791 -0.0010640418 2.7266508e-23)
(2.4997618 -0.0012882038 2.5454975e-23)
(2.499774 -0.0015065147 2.0686785e-23)
(2.4998124 -0.0016577335 5.4279226e-23)
(2.4998573 -0.0018012788 8.2011747e-23)
(2.499912 -0.0019917283 1.3602823e-22)
(2.499983 -0.0021705811 1.4094679e-22)
(2.5000743 -0.0023718419 7.1092202e-23)
(2.5001817 -0.0025567181 7.0255855e-23)
(2.5003169 -0.0027694228 1.0130379e-22)
(2.5004688 -0.0029595126 3.9374735e-23)
(2.5006575 -0.0031737654 -1.7791209e-23)
(2.5008616 -0.0033579185 -8.5078473e-23)
(2.5011119 -0.0035613758 -9.909258e-23)
(2.5013742 -0.0037262679 -5.1979872e-23)
(2.5016916 -0.0039021899 -3.2610665e-23)
(2.5020146 -0.0040308635 2.8198218e-23)
(2.5024 -0.0041593052 -1.337917e-24)
(2.5027815 -0.0042323367 -3.8004945e-24)
(2.5032296 -0.0042905509 5.4922354e-23)
(2.5036608 -0.0042887799 1.1449247e-23)
(2.5041591 -0.0042582656 1.200419e-23)
(2.5046261 -0.0041605284 7.1583512e-23)
(2.5051565 -0.0040120112 1.70484e-24)
(2.5056366 -0.0038149355 -5.7742469e-23)
(2.5061721 -0.00356851 3.3460879e-23)
(2.5066497 -0.003231256 7.1858835e-23)
(2.5071731 -0.0028010822 2.0957566e-22)
(2.5076071 -0.0024000513 2.3900448e-22)
(2.5080749 -0.0019487207 -6.9528725e-23)
(2.5084836 -0.001321254 -5.4272651e-23)
(2.5089173 -0.00057983685 -1.1168275e-23)
(2.4996852 -0.001028632 2.2192991e-23)
(2.4996505 -0.001248986 6.7893507e-24)
(2.4996475 -0.0014649141 4.7346241e-24)
(2.4996714 -0.0016164374 1.9322475e-23)
(2.4997006 -0.0017617558 5.1178039e-23)
(2.4997349 -0.0019544056 4.8692993e-23)
(2.4997861 -0.0021375539 9.9477967e-23)
(2.4998539 -0.0023449228 9.5440432e-23)
(2.4999383 -0.0025385568 2.8333088e-23)
(2.5000461 -0.0027628447 9.6330218e-23)
(2.500172 -0.0029677469 1.2622727e-22)
(2.5003303 -0.0032010529 1.8398175e-22)
(2.5005065 -0.0034079287 1.319928e-22)
(2.500725 -0.0036399729 6.3949506e-23)
(2.5009595 -0.0038372765 5.3108738e-23)
(2.5012461 -0.0040531963 5.69975e-23)
(2.501544 -0.0042252677 7.7034169e-23)
(2.501903 -0.0044060657 1.185163e-23)
(2.5022655 -0.0045340968 -1.6336968e-23)
(2.5026957 -0.0046578527 -3.6354171e-23)
(2.5031182 -0.0047209953 1.9350287e-23)
(2.5036116 -0.004763632 1.0585656e-23)
(2.5040824 -0.0047423819 1.0940617e-23)
(2.504623 -0.0046858406 1.3803737e-22)
(2.5051254 -0.004559378 7.272794e-23)
(2.5056919 -0.0043747145 -3.7416557e-23)
(2.5062006 -0.0041428127 4.9534246e-23)
(2.5067637 -0.0038557138 1.4900077e-23)
(2.5072623 -0.00347756 1.4488668e-22)
(2.5078041 -0.0030004557 1.434568e-22)
(2.5082518 -0.0025610699 -1.5112539e-22)
(2.5087303 -0.0020690755 -1.5917944e-22)
(2.5091467 -0.001398307 -1.1990479e-22)
(2.5095846 -0.00061039161 -7.835409e-23)
(2.4995998 -0.00099082911 3.3270496e-25)
(2.4995493 -0.0012062661 1.0147096e-23)
(2.4995321 -0.0014184684 -4.7643287e-24)
(2.4995426 -0.0015689248 -3.9901297e-26)
(2.4995569 -0.0017144479 1.3758917e-23)
(2.4995722 -0.0019072285 -4.7501384e-23)
(2.4996045 -0.0020923538 -5.1487442e-23)
(2.4996495 -0.0023029849 -1.3299466e-23)
(2.4997116 -0.0025022828 -1.8953835e-23)
(2.4997924 -0.0027343663 2.5687257e-23)
(2.4998923 -0.0029500905 9.0243322e-23)
(2.50002 -0.0031976625 -1.112889e-23)
(2.5001674 -0.0034223942 4.1517308e-23)
(2.5003524 -0.0036773149 8.8913888e-23)
(2.5005565 -0.0039014532 2.3554033e-23)
(2.5008089 -0.0041509981 8.9985055e-23)
(2.5010772 -0.0043606276 9.4267617e-23)
(2.5014042 -0.0045875551 7.4185751e-23)
(2.5017412 -0.0047649056 1.2212334e-23)
(2.5021455 -0.0049478072 -7.1085175e-23)
(2.5025503 -0.0050721977 -9.0733763e-23)
(2.5030283 -0.0051873149 2.9566791e-23)
(2.5034935 -0.0052367168 2.1404286e-23)
(2.5040336 -0.0052590001 -1.2371854e-22)
(2.5045445 -0.0052140287 -5.1546712e-24)
(2.5051271 -0.0051264989 2.0098293e-23)
(2.5056639 -0.0049672531 -8.5182718e-23)
(2.5062646 -0.0047419952 -1.1283852e-22)
(2.5067997 -0.0044720434 -1.4824453e-22)
(2.507387 -0.0041409533 -1.4256409e-22)
(2.5079035 -0.0037200262 -1.4851233e-22)
(2.5084596 -0.0031945683 -2.0435975e-22)
(2.5089178 -0.0027163134 -2.1291284e-22)
(2.5094032 -0.002183551 -9.0715147e-25)
(2.509824 -0.0014709129 4.048519e-23)
(2.5102626 -0.00063865101 1.8043423e-23)
(2.4995224 -0.00095151999 3.3647379e-24)
(2.4994575 -0.001161195 3.0157919e-24)
(2.4994273 -0.0013686178 1.2221696e-23)
(2.4994254 -0.0015168952 2.5382447e-23)
(2.4994259 -0.0016613262 3.0348043e-23)
(2.4994233 -0.0018525224 -3.4428138e-23)
(2.4994378 -0.0020376659 -9.3404907e-23)
(2.4994614 -0.0022491309 -1.3507766e-22)
(2.499502 -0.002451401 -1.0014236e-22)
(2.4995568 -0.0026879516 -5.9093888e-23)
(2.4996313 -0.002910918 -1.7319937e-23)
(2.4997286 -0.0031684087 3.195112e-23)
(2.4998469 -0.0034064742 -6.5297512e-23)
(2.4999978 -0.0036788814 -6.852675e-23)
(2.5001701 -0.0039244577 -2.5298275e-23)
(2.5003859 -0.00420136 -2.0701404e-22)
(2.5006216 -0.0044425474 -1.4758541e-22)
(2.5009122 -0.0047088486 3.6279938e-23)
(2.5012184 -0.0049295024 1.6156306e-23)
(2.50159 -0.0051653134 4.4330356e-23)
(2.5019696 -0.0053454131 -3.4113296e-23)
(2.502423 -0.0055269073 -1.3068267e-22)
(2.5028727 -0.0056440211 -1.7062865e-23)
(2.5034009 -0.0057458273 1.4752649e-22)
(2.5039103 -0.0057770782 1.1706564e-23)
(2.504498 -0.0057736608 -3.7334895e-23)
(2.5050488 -0.0057003557 -1.3708645e-23)
(2.5056723 -0.0055765565 -1.5577372e-22)
(2.5062418 -0.0053803573 -1.8283957e-22)
(2.506874 -0.0051100589 -5.933782e-23)
(2.5074324 -0.0047989714 -5.2524867e-23)
(2.5080401 -0.0044208283 1.6617743e-23)
(2.5085706 -0.003955634 -3.3843342e-23)
(2.5091365 -0.0033809068 -1.0021261e-22)
(2.5096017 -0.0028637142 1.0294785e-22)
(2.51009 -0.0022905972 8.9861856e-23)
(2.5105117 -0.0015380783 6.9330022e-23)
(2.5109473 -0.00066422296 3.4464289e-23)
(2.4994525 -0.00091143699 1.0382511e-23)
(2.4993746 -0.0011147306 2.0690956e-23)
(2.4993324 -0.0013165719 2.0555858e-23)
(2.4993191 -0.0014617887 -1.1720171e-23)
(2.4993069 -0.0016040763 3.3364858e-25)
(2.4992878 -0.0017922966 -1.4887524e-23)
(2.4992857 -0.0019758357 -7.7133062e-23)
(2.4992893 -0.0021861031 -3.5100932e-23)
(2.4993096 -0.0023890489 -7.3759393e-23)
(2.4993396 -0.0026272004 -1.472253e-22)
(2.4993895 -0.0028542632 -1.0897584e-22)
(2.4994573 -0.0031178093 -1.5864577e-22)
(2.4995469 -0.0033651023 -1.1409694e-22)
(2.4996638 -0.0036500369 -7.8637626e-23)
(2.4998037 -0.0039119634 -8.189486e-23)
(2.4999819 -0.0042102055 -2.9606987e-23)
(2.5001829 -0.0044770299 -2.0227433e-22)
(2.500434 -0.0047759095 -1.7019413e-22)
(2.5007054 -0.0050335089 4.0774884e-24)
(2.5010389 -0.0053151993 6.9514559e-23)
(2.5013869 -0.0055449549 9.7436175e-23)
(2.5018076 -0.0057867781 -4.5858512e-23)
(2.5022333 -0.0059664113 -1.3794235e-22)
(2.5027392 -0.0061421842 -2.5515856e-23)
(2.5032364 -0.0062477112 1.3066203e-22)
(2.5038168 -0.0063308 2.8846363e-23)
(2.5043713 -0.0063389496 -1.7452706e-23)
(2.5050067 -0.0063039573 2.4670697e-22)
(2.5055965 -0.0061973996 1.1624207e-22)
(2.5062592 -0.0060318222 -1.4352214e-22)
(2.5068588 -0.0057944771 -2.5601598e-23)
(2.5075189 -0.0054748073 1.5299784e-22)
(2.5080971 -0.0051197298 2.2207548e-22)
(2.5087206 -0.0046918349 2.1686362e-22)
(2.5092608 -0.0041813259 1.5782839e-22)
(2.5098315 -0.0035569827 5.8497041e-24)
(2.5102998 -0.0030012652 -8.1248973e-24)
(2.5107867 -0.0023887487 7.2972694e-23)
(2.5112058 -0.0015988786 3.9913831e-23)
(2.5116346 -0.00068675595 5.0853839e-26)
(2.4993895 -0.00087117698 -3.5469169e-24)
(2.4992998 -0.0010676567 8.9782657e-26)
(2.4992469 -0.0012633324 9.7793525e-24)
(2.4992231 -0.001404808 -1.6158765e-24)
(2.4991992 -0.0015441194 -3.2649323e-23)
(2.499165 -0.0017282607 -3.2811616e-23)
(2.4991476 -0.0019088795 -4.7837263e-23)
(2.4991325 -0.0021162846 -1.9570754e-23)
(2.4991338 -0.0023179854 2.1287126e-23)
(2.4991406 -0.0025553185 1.0192002e-22)
(2.4991671 -0.002783769 3.4940771e-23)
(2.4992068 -0.0030500086 -7.3866367e-23)
(2.4992685 -0.0033028803 -1.2048269e-22)
(2.4993521 -0.0035958805 -1.0419959e-22)
(2.4994597 -0.0038694755 -7.0342098e-23)
(2.4996 -0.0041834391 6.0137879e-24)
(2.4997652 -0.004470224 5.7071188e-23)
(2.4999752 -0.0047950271 -2.6326287e-23)
(2.500209 -0.0050831544 6.8699867e-24)
(2.5005004 -0.0054034611 -3.2041464e-23)
(2.5008119 -0.0056762581 2.9691441e-23)
(2.5011933 -0.0059712528 7.0591483e-23)
(2.5015874 -0.0062074947 -6.6292693e-23)
(2.5020616 -0.0064516183 -7.7336343e-23)
(2.5025367 -0.0066268207 3.0395935e-23)
(2.5030985 -0.0067917029 1.6879019e-22)
(2.503645 -0.0068806478 7.2701114e-23)
(2.5042792 -0.0069388888 -2.8238346e-22)
(2.5048789 -0.0069184876 -3.5397388e-23)
(2.5055614 -0.0068455899 3.4918698e-22)
(2.5061886 -0.0067006349 1.0572373e-22)
(2.5068878 -0.0064876531 -5.8008497e-23)
(2.5075143 -0.0062050528 1.1121154e-22)
(2.5081979 -0.0058319214 6.7537886e-24)
(2.5087915 -0.0054303252 -1.5409493e-24)
(2.5094256 -0.0049504437 1.0659239e-22)
(2.5099708 -0.0043940811 -3.8565534e-23)
(2.510541 -0.0037203956 4.2641459e-23)
(2.5110082 -0.0031270686 1.2047364e-22)
(2.5114894 -0.0024766624 4.8571247e-23)
(2.5119023 -0.0016524847 1.0797679e-23)
(2.5123206 -0.00070594713 -3.6635619e-24)
(2.4993327 -0.00083121661 -2.7865334e-24)
(2.4992325 -0.0010206093 -9.2653671e-24)
(2.4991698 -0.0012097161 -5.7763129e-24)
(2.4991367 -0.0013469432 -2.4688203e-23)
(2.4991021 -0.0014826363 -3.6079009e-23)
(2.4990541 -0.001661849 -3.4068899e-23)
(2.4990226 -0.0018385054 -3.4271523e-23)
(2.4989904 -0.0020417145 -4.2431144e-23)
(2.498974 -0.0022405968 -1.5487853e-23)
(2.4989592 -0.0024751113 5.4843842e-23)
(2.4989638 -0.0027026632 1.3198492e-22)
(2.4989768 -0.0029687305 2.5064416e-22)
(2.4990119 -0.0032240056 1.5072745e-22)
(2.4990634 -0.0035211448 -6.9350874e-24)
(2.4991396 -0.003802197 1.0329257e-23)
(2.4992425 -0.0041267589 2.9700645e-23)
(2.4993718 -0.004428204 1.0383146e-22)
(2.4995398 -0.004772613 8.5494443e-23)
(2.4997344 -0.0050849937 6.7317218e-24)
(2.4999811 -0.0054366371 1.0086568e-23)
(2.5002524 -0.0057456167 -2.6817578e-23)
(2.5005894 -0.0060861515 9.6545113e-23)
(2.5009458 -0.0063722698 1.3625666e-22)
(2.5013803 -0.0066776541 -2.0066606e-23)
(2.5018247 -0.0069169869 -2.9821386e-23)
(2.5023569 -0.0071587746 -2.8397451e-23)
(2.5028845 -0.0073247861 1.0163007e-22)
(2.5035049 -0.0074727237 1.6206776e-22)
(2.5041022 -0.0075394113 -1.7340948e-22)
(2.504791 -0.0075659868 -1.450596e-22)
(2.5054354 -0.0075111459 2.1830563e-22)
(2.5061635 -0.0073936511 1.9208354e-22)
(2.5068256 -0.0072050307 3.7970645e-23)
(2.5075576 -0.0069390339 1.887764e-22)
(2.5082068 -0.0066072643 9.0891364e-23)
(2.5089089 -0.006176951 4.4136322e-23)
(2.509513 -0.0057267264 1.4751331e-22)
(2.5101519 -0.0051931857 4.0774208e-23)
(2.510697 -0.0045909912 1.1916369e-22)
(2.511261 -0.0038688934 1.5305014e-22)
(2.511723 -0.0032393866 8.5277738e-23)
(2.512194 -0.0025531499 3.4880865e-23)
(2.5125972 -0.0016981794 2.1475322e-23)
(2.5130013 -0.00072154882 1.4666981e-23)
(2.4992817 -0.00079192492 2.0494011e-23)
(2.499172 -0.00097410509 2.3203891e-23)
(2.4991006 -0.0011563798 1.7536044e-23)
(2.4990589 -0.0012889956 -1.5868198e-23)
(2.4990147 -0.0014205941 -3.397515e-23)
(2.4989542 -0.0015942471 -4.5999664e-23)
(2.4989098 -0.0017661392 -4.4268604e-23)
(2.498862 -0.0019641117 2.2002211e-23)
(2.4988294 -0.0021589152 1.5155087e-23)
(2.4987946 -0.0023889942 -4.9206935e-23)
(2.4987788 -0.0026137576 1.7070427e-23)
(2.498767 -0.0028772598 2.1124677e-23)
(2.4987769 -0.0031322313 1.3209145e-22)
(2.498798 -0.003430126 1.1212982e-22)
(2.4988439 -0.0037149284 -3.8225803e-23)
(2.4989106 -0.0040455234 -1.0901175e-22)
(2.4990045 -0.0043567963 -9.2479857e-23)
(2.4991307 -0.0047149655 3.399287e-23)
(2.4992855 -0.0050456437 1.5522729e-23)
(2.4994862 -0.0054215796 1.1028166e-22)
(2.499715 -0.0057598806 1.1509967e-22)
(2.5000039 -0.0061380948 -1.8518357e-23)
(2.5003178 -0.0064668807 9.8565685e-23)
(2.5007062 -0.0068256731 2.4963405e-22)
(2.5011123 -0.0071224673 1.0297245e-22)
(2.5016054 -0.0074343863 7.4322408e-23)
(2.5021042 -0.0076725542 7.6882273e-23)
(2.5026985 -0.0079063737 -7.082146e-23)
(2.5032815 -0.0080576063 -1.6161924e-23)
(2.5039628 -0.0081816524 -2.8365899e-24)
(2.5046118 -0.0082197586 2.7114924e-23)
(2.5053549 -0.0082072264 1.7789679e-22)
(2.5060428 -0.0081117062 1.5303789e-22)
(2.5068138 -0.0079426865 -5.2394448e-23)
(2.5075074 -0.0077051269 8.9380773e-23)
(2.5082676 -0.0073806661 6.0255607e-23)
(2.5089348 -0.0069961281 1.5329334e-23)
(2.5096493 -0.0065054143 1.141262e-22)
(2.5102585 -0.0060049613 1.222631e-23)
(2.510896 -0.0054167388 -6.1763939e-23)
(2.5114356 -0.0047693328 -3.2601772e-23)
(2.5119875 -0.004000428 -4.4857459e-23)
(2.5124402 -0.0033366809 -9.4574736e-23)
(2.5128965 -0.0026172034 2.6234941e-25)
(2.5132864 -0.001735375 -6.4854244e-24)
(2.5136731 -0.0007333731 -5.6102235e-23)
(2.4992358 -0.000753584 1.8999839e-23)
(2.4991177 -0.00092852778 1.9137384e-23)
(2.4990384 -0.001103843 2.1733647e-23)
(2.4989892 -0.0012316102 3.5796281e-23)
(2.4989363 -0.0013587727 4.3769926e-24)
(2.4988645 -0.0015264209 2.9879348e-23)
(2.4988085 -0.0016929539 1.9467099e-23)
(2.4987464 -0.0018849042 8.5091825e-23)
(2.498699 -0.0020746464 1.5013743e-22)
(2.4986459 -0.0022990152 4.191123e-23)
(2.4986113 -0.0025194625 -1.8806569e-23)
(2.4985764 -0.0027784451 8.0381387e-24)
(2.4985628 -0.0030308532 1.175773e-23)
(2.4985554 -0.0033266491 2.0437156e-22)
(2.4985726 -0.0036120076 1.865538e-22)
(2.4986046 -0.0039446558 -4.5303076e-24)
(2.4986643 -0.0042614495 -7.1230708e-23)
(2.4987497 -0.0046280983 -1.7541497e-22)
(2.498865 -0.0049715629 -5.6596526e-23)
(2.4990193 -0.0053651665 -1.611265e-23)
(2.4992044 -0.0057261514 7.338169e-23)
(2.4994431 -0.0061342664 -1.6775076e-22)
(2.4997113 -0.0064983132 -2.9927637e-22)
(2.5000487 -0.006902156 -2.9080448e-23)
(2.5004106 -0.0072489873 1.1236725e-22)
(2.5008566 -0.0076231611 1.4112732e-22)
(2.5013175 -0.0079271093 1.1452559e-22)
(2.5018745 -0.0082406561 5.0983609e-23)
(2.5024317 -0.0084724762 -8.9682739e-23)
(2.503092 -0.008691642 -1.5697023e-22)
(2.5037325 -0.0088216747 -1.4654637e-22)
(2.5044764 -0.0089140092 -8.8274135e-24)
(2.505177 -0.0089166203 1.3442634e-22)
(2.5059734 -0.0088570133 5.1532271e-22)
(2.5067023 -0.0087143323 3.2532301e-22)
(2.5075126 -0.008486771 -1.5084162e-22)
(2.5082334 -0.0081951267 -1.8232945e-22)
(2.5090161 -0.0078070738 3.3862925e-23)
(2.5096957 -0.0073666075 1.2783874e-22)
(2.510416 -0.0068129051 -3.6062175e-22)
(2.5110244 -0.0062612133 -4.3701764e-22)
(2.5116539 -0.0056180091 1.0728345e-22)
(2.5121826 -0.0049266343 9.8070306e-23)
(2.5127165 -0.0041132031 -7.1509025e-23)
(2.5131555 -0.0034176486 1.8687708e-23)
(2.5135928 -0.0026680152 2.739228e-24)
(2.5139663 -0.0017636204 -4.4296107e-23)
(2.5143322 -0.00074129453 -1.2446223e-22)
(2.4991946 -0.00071641126 4.5227623e-24)
(2.499069 -0.00088416342 -3.6946892e-24)
(2.4989828 -0.0010525069 -3.8945705e-24)
(2.4989266 -0.001175291 -1.1447941e-23)
(2.498866 -0.001297792 1.3752887e-24)
(2.4987841 -0.0014591451 -3.3370874e-23)
(2.4987175 -0.0016199003 -9.7483196e-24)
(2.4986426 -0.0018052609 4.6979472e-23)
(2.4985817 -0.0019892005 1.0977296e-22)
(2.498512 -0.0022068852 8.0451124e-23)
(2.4984602 -0.0024218129 -2.3499847e-23)
(2.4984041 -0.0026747184 -1.0972837e-22)
(2.4983688 -0.0029227173 -8.5671803e-23)
(2.4983349 -0.0032140587 -2.7764175e-24)
(2.4983251 -0.0034972784 1.7993373e-22)
(2.4983245 -0.0038285857 2.7420789e-22)
(2.4983514 -0.004147145 9.4102728e-23)
(2.4983976 -0.0045176118 2.0861756e-22)
(2.4984744 -0.0048688841 1.1408475e-22)
(2.4985829 -0.005274082 -1.9360273e-22)
(2.4987241 -0.0056515084 -1.5730787e-22)
(2.4989117 -0.006082072 -8.5654655e-23)
(2.4991322 -0.006474053 -3.1714064e-22)
(2.4994154 -0.0069144561 -2.8407567e-22)
(2.4997287 -0.0073034515 -2.7260122e-23)
(2.5001212 -0.0077311609 -1.0576472e-22)
(2.5005369 -0.0080934342 -8.1885312e-23)
(2.5010468 -0.0084790634 2.590028e-22)
(2.5015677 -0.0087856701 2.0093755e-22)
(2.5021939 -0.0090947871 -2.2629647e-22)
(2.5028132 -0.0093140987 -2.9301452e-22)
(2.5035427 -0.0095108448 -1.0504246e-22)
(2.5042424 -0.0096124383 2.5786752e-23)
(2.5050494 -0.0096644264 2.9634353e-23)
(2.5058007 -0.0096241222 3.8855383e-22)
(2.5066482 -0.0095090763 6.100274e-22)
(2.5074148 -0.0093126439 1.6174734e-22)
(2.5082596 -0.0090196075 -2.131702e-22)
(2.5090023 -0.0086690087 -8.4896395e-24)
(2.5098011 -0.0082127253 4.8639895e-22)
(2.5104867 -0.0077137289 2.8201973e-23)
(2.5112056 -0.0070951974 -2.4301973e-22)
(2.511807 -0.0064919142 2.7686225e-22)
(2.5124216 -0.0057942035 2.597886e-23)
(2.5129337 -0.0050607317 -1.3665202e-22)
(2.5134438 -0.0042057114 -4.2345478e-23)
(2.5138651 -0.0034812438 -5.8720375e-23)
(2.5142793 -0.0027049906 -3.0818428e-23)
(2.5146333 -0.0017826109 -1.0674406e-22)
(2.5149756 -0.00074525095 3.580198e-22)
(2.4991577 -0.00068056985 1.5722868e-23)
(2.4990255 -0.0008412518 1.1224678e-23)
(2.4989329 -0.001002671 3.4983771e-24)
(2.4988707 -0.0011204188 -2.3384137e-24)
(2.4988031 -0.0012381358 -9.4912238e-24)
(2.4987121 -0.0013930308 -1.2776892e-23)
(2.4986361 -0.0015477358 -4.6006303e-23)
(2.4985496 -0.0017261229 -1.0565658e-22)
(2.4984766 -0.0019037258 -5.3300742e-23)
(2.4983918 -0.0021140119 1.0113651e-22)
(2.4983243 -0.0023225007 7.3125855e-23)
(2.4982489 -0.0025681232 6.9085837e-24)
(2.4981937 -0.0028102428 -7.4503732e-23)
(2.4981352 -0.0030952313 -3.0900373e-22)
(2.4981005 -0.0033740884 -2.3379407e-22)
(2.4980693 -0.0037012224 1.3613887e-22)
(2.4980655 -0.0040183439 2.2500338e-22)
(2.4980744 -0.0043886049 1.0797967e-22)
(2.4981141 -0.0047432887 2.1695587e-22)
(2.4981784 -0.0051546461 1.9829239e-22)
(2.4982763 -0.005542791 -9.2584093e-23)
(2.4984131 -0.0059888615 1.4802893e-22)
(2.4985851 -0.0064017586 2.2085001e-22)
(2.4988123 -0.0068704111 2.1542565e-22)
(2.4990741 -0.0072935763 2.5527663e-22)
(2.4994086 -0.0077656857 7.7008892e-23)
(2.4997732 -0.0081780687 4.0970313e-24)
(2.5002281 -0.0086268954 -5.6043756e-23)
(2.5007036 -0.0090010374 2.6805142e-22)
(2.501284 -0.0093930137 5.9841216e-22)
(2.5018699 -0.0096967165 1.9837063e-22)
(2.5025703 -0.0099941163 -3.4624205e-22)
(2.503255 -0.01019375 -1.6988778e-22)
(2.5040563 -0.01035923 6.5740994e-23)
(2.5048159 -0.010424374 6.8947565e-23)
(2.5056855 -0.010426655 9.9303687e-23)
(2.5064855 -0.010335625 3.0536039e-22)
(2.5073806 -0.010156542 -3.5940573e-24)
(2.5081804 -0.0098998173 -3.6162661e-22)
(2.5090537 -0.0095346489 -5.8659831e-22)
(2.5098123 -0.0091206538 -1.2586344e-22)
(2.5106195 -0.0085921564 1.1309281e-23)
(2.5113044 -0.0080326985 -2.4662306e-22)
(2.512014 -0.0073483454 2.3194999e-22)
(2.5126019 -0.0066938265 -7.0562996e-24)
(2.5131948 -0.005942891 -4.579692e-22)
(2.5136847 -0.0051698121 -3.735145e-22)
(2.5141654 -0.004276763 -1.1011151e-22)
(2.514565 -0.0035266986 -8.4151138e-23)
(2.5149523 -0.0027277618 -3.1349983e-23)
(2.5152839 -0.001792194 4.1124777e-22)
(2.5156 -0.00074524282 3.3077683e-22)
(2.4991244 -0.00064617523 4.0931997e-24)
(2.4989864 -0.000799923 1.3629847e-23)
(2.4988883 -0.00095455038 9.2960863e-24)
(2.4988206 -0.0010672908 -4.5314784e-24)
(2.4987469 -0.0011801716 -1.0232017e-23)
(2.4986477 -0.0013285458 -1.1490207e-23)
(2.4985633 -0.0014770523 -1.4631633e-23)
(2.4984665 -0.0016482367 -4.8634045e-23)
(2.4983825 -0.0018191418 -1.0534515e-22)
(2.4982841 -0.0020215345 -1.003277e-22)
(2.4982024 -0.0022229113 4.5641728e-23)
(2.4981096 -0.0024603512 5.038557e-23)
(2.4980361 -0.0026954537 -1.2843859e-23)
(2.4979553 -0.0029726009 5.5754582e-23)
(2.4978975 -0.0032453037 -1.6492238e-22)
(2.4978382 -0.0035659561 -2.8092258e-22)
(2.4978055 -0.0038789668 6.9727726e-23)
(2.4977795 -0.004245626 -1.4758423e-22)
(2.4977841 -0.0045999259 -2.6457248e-22)
(2.497806 -0.005012691 -1.6655223e-23)
(2.4978622 -0.0054064316 -3.8028954e-23)