# Field minima and maxima
# Time          	field           	min             	location(min)   	max             	location(max)   
0.0221698       	U               	(1.30211079e+00 -1.00705551e+00 -4.13258432e-17)	(1.19701676e+00 4.34263808e-01 0.00000000e+00)	(4.07092509e+00 1.36885245e+00 2.63775252e-17)	(-3.62556188e-01 1.03680493e+00 1.23401067e-17)
0.0221698       	p               	-9.94061916e+01	(1.05336012e+00 -4.06193307e-02 1.44245317e-17)	1.22811395e+02	(-1.01345612e+00 4.06193339e-02 -1.36426365e-17)
0.0425841       	U               	(7.85206180e-01 -1.66982707e+00 -7.25493786e-18)	(1.04191370e+00 4.62658917e-01 0.00000000e+00)	(4.17895046e+00 1.29033975e+00 8.14690063e-18)	(3.38278464e-01 -1.06357308e+00 0.00000000e+00)
0.0425841       	p               	-8.74191208e+00	(2.40116737e-01 -1.01443077e+00 -4.00348534e-17)	5.87696170e+00	(-9.95089521e-01 4.06193063e-02 0.00000000e+00)
0.0628021       	U               	(7.00698291e-01 -1.67350030e+00 -4.19268107e-18)	(1.06007836e+00 4.62658973e-01 1.23473527e-17)	(4.30198019e+00 5.39226854e-01 4.39577897e-18)	(1.94883216e-01 -1.16988480e+00 2.17419127e-17)
0.0628021       	p               	-8.24728160e+00	(1.78085397e-01 -1.02709274e+00 4.24316954e-17)	4.13722677e+00	(-9.76903336e-01 4.06193245e-02 1.36392922e-17)
0.0826865       	U               	(1.89062170e+00 -2.32533590e+00 -1.26410857e-18)	(8.85549980e-01 7.49835064e-01 0.00000000e+00)	(4.42116221e+00 3.93443262e-01 4.16739570e-18)	(-5.55624035e-02 1.09718654e+00 7.81924177e-19)
0.0826865       	p               	-8.02814834e+00	(1.95966288e-01 -1.02709273e+00 0.00000000e+00)	3.31107149e+00	(-9.59024415e-01 4.06193507e-02 0.00000000e+00)
0.102227        	U               	(1.51145273e+00 -2.23072820e+00 -1.96286682e-18)	(9.59572528e-01 6.83977626e-01 -1.23809051e-17)	(4.34599311e+00 5.74902330e-01 3.88269008e-18)	(-1.38175372e-01 1.15562986e+00 3.29407790e-17)
0.102227        	p               	-7.83975579e+00	(2.13533180e-01 -1.02709272e+00 -1.44052587e-17)	2.89273917e+00	(-9.41454965e-01 4.06193459e-02 0.00000000e+00)
0.121396        	U               	(1.85174888e+00 -2.32300557e+00 -2.03259755e-18)	(9.20313593e-01 7.49835070e-01 -1.20162280e-17)	(4.20210775e+00 6.96377533e-01 2.08928678e-18)	(-1.06506586e-01 1.08374238e+00 6.17535261e-17)
0.121396        	p               	-7.68382628e+00	(1.49797930e-01 -1.03340793e+00 -1.36432945e-17)	2.68758308e+00	(-9.24228369e-01 4.06193547e-02 2.80517114e-17)
0.140241        	U               	(1.47590469e+00 -2.21834976e+00 -1.40666315e-18)	(9.93695090e-01 6.83977635e-01 -1.23867158e-17)	(4.16806737e+00 5.43140114e-01 4.18254136e-18)	(-1.19253163e-01 1.23018891e+00 3.07520095e-17)
0.140241        	p               	-7.56744151e+00	(1.66724285e-01 -1.03340792e+00 -1.36433708e-17)	2.56661138e+00	(-1.12709276e+00 4.92598769e-02 0.00000000e+00)
0.158773        	U               	(1.46589398e+00 -2.21124713e+00 -2.92342358e-18)	(1.01032697e+00 6.83977626e-01 0.00000000e+00)	(4.23762156e+00 2.64453309e-01 3.31662162e-18)	(-5.36107061e-03 1.24528563e+00 3.00142935e-17)
0.158773        	p               	-7.47057579e+00	(1.83361949e-01 -1.03340793e+00 0.00000000e+00)	2.62602286e+00	(1.17615317e+00 -4.06191961e-02 0.00000000e+00)
0.17707         	U               	(1.45980527e+00 -2.20343915e+00 -5.14508799e-19)	(1.02672927e+00 6.83977636e-01 0.00000000e+00)	(4.20928144e+00 9.21358316e-01 6.66573894e-18)	(3.88647226e-01 -1.15562941e+00 0.00000000e+00)
0.17707         	p               	-7.39279427e+00	(1.99778629e-01 -1.03340794e+00 -7.82781748e-19)	2.74428989e+00	(1.19256967e+00 -4.06191824e-02 5.53991822e-17)
0.195136        	U               	(1.10112925e+00 -2.03945408e+00 -2.58609019e-18)	(1.09401330e+00 6.13866643e-01 0.00000000e+00)	(4.20478009e+00 9.31587607e-01 2.43233357e-18)	(4.04818527e-01 -1.15562939e+00 7.81974207e-19)
0.195136        	p               	-7.32403537e+00	(2.15978456e-01 -1.03340794e+00 0.00000000e+00)	2.83374250e+00	(1.20876895e+00 -4.06192197e-02 0.00000000e+00)
0.213064        	U               	(5.06565755e-01 -1.55564505e+00 -1.14889402e-18)	(1.19489128e+00 4.62659025e-01 3.71135050e-17)	(4.22157984e+00 5.14387133e-01 1.51067781e-18)	(-5.42065170e-02 1.23018892e+00 -1.97123219e-17)
0.213064        	p               	-7.26648394e+00	(2.32043405e-01 -1.03340794e+00 0.00000000e+00)	2.92474319e+00	(1.22483367e+00 -4.06192029e-02 1.28742603e-17)
0.230847        	U               	(1.64163318e+00 -1.45234363e+00 -2.44008669e-18)	(1.24942129e+00 6.96794622e-01 -1.03116367e-17)	(4.23228835e+00 5.07366159e-01 1.67719860e-18)	(-3.83250195e-02 1.23018889e+00 -1.02464097e-17)
0.230847        	p               	-7.21018040e+00	(2.47965884e-01 -1.03340794e+00 -1.36435530e-17)	2.98498900e+00	(1.24075608e+00 -4.06192281e-02 -1.44394255e-17)
0.248567        	U               	(1.09769910e+00 -2.01328839e+00 -2.19566547e-18)	(1.14181979e+00 6.13866669e-01 0.00000000e+00)	(3.97781319e+00 1.10032765e+00 5.60739933e-18)	(-1.85199934e-01 1.10565845e+00 0.00000000e+00)
0.248567        	p               	-7.16213392e+00	(1.82580263e-01 -1.03340794e+00 0.00000000e+00)	3.03254759e+00	(1.25660841e+00 -4.06192074e-02 0.00000000e+00)
0.266281        	U               	(2.67696331e-01 -1.27634354e+00 -2.64806605e-18)	(1.27567151e+00 3.82506644e-01 2.39749606e-17)	(4.03289916e+00 8.64770414e-01 2.78419411e-18)	(4.82651881e-01 -1.23018836e+00 2.05531992e-17)
0.266281        	p               	-7.11945436e+00	(1.98413174e-01 -1.03340794e+00 -4.24892920e-17)	3.07843641e+00	(1.27244220e+00 -4.06192205e-02 0.00000000e+00)
0.283976        	U               	(1.82630608e+00 -2.23814490e+00 -1.49800750e-18)	(1.06587022e+00 7.49835092e-01 0.00000000e+00)	(4.26026802e+00 4.89979561e-01 1.91420307e-18)	(9.01080156e-03 1.23018893e+00 0.00000000e+00)
0.283976        	p               	-7.08185226e+00	(2.14214880e-01 -1.03340795e+00 0.00000000e+00)	3.13737009e+00	(1.28824359e+00 -4.06192063e-02 0.00000000e+00)
0.301703        	U               	(1.45953023e+00 -2.14056565e+00 -4.05724113e-18)	(1.13815453e+00 6.83977665e-01 0.00000000e+00)	(4.02937409e+00 1.03206286e+00 2.42359531e-18)	(-1.64686078e-01 1.17707072e+00 -1.96600351e-17)
0.301703        	p               	-7.04747851e+00	(2.30029113e-01 -1.03340795e+00 -1.36415817e-17)	3.20886715e+00	(1.30405886e+00 -4.06192137e-02 2.65381843e-17)
0.319494        	U               	(1.46001678e+00 -2.13228131e+00 -3.74256674e-18)	(1.15399236e+00 6.83977654e-01 0.00000000e+00)	(4.01353177e+00 6.96608303e-01 1.92237266e-18)	(-7.74072344e-02 1.28335031e+00 -1.01280374e-17)
0.319494        	p               	-7.01552548e+00	(2.45883412e-01 -1.03340796e+00 0.00000000e+00)	3.27012208e+00	(1.31991224e+00 -4.06192408e-02 1.36610788e-17)
0.337348        	U               	(1.39279872e+00 -3.19782649e+00 -3.09705883e-18)	(1.32948981e+00 1.21582684e-01 1.36401481e-17)	(3.94899107e+00 1.22814435e+00 3.20705587e-18)	(6.21630420e-01 -1.13417569e+00 -2.17356214e-17)
0.337348        	p               	-6.98593554e+00	(2.61774389e-01 -1.03340796e+00 2.65008746e-17)	3.31080552e+00	(1.33580413e+00 -4.06192336e-02 0.00000000e+00)
0.355276        	U               	(1.59029796e+00 -1.61238217e+00 -1.45650908e-18)	(-6.07469757e-01 -7.29286200e-01 1.04205483e-17)	(4.26644163e+00 4.75460103e-01 1.54683729e-18)	(7.23297305e-02 1.23018891e+00 -1.97022623e-17)
0.355276        	p               	-6.95870451e+00	(2.77712771e-01 -1.03340797e+00 1.36414940e-17)	3.35716683e+00	(1.35174122e+00 -4.06192489e-02 -1.44445660e-17)
0.373298        	U               	(1.11779945e+00 -1.96031914e+00 -1.06786647e-18)	(1.25290031e+00 6.13866682e-01 2.40125828e-17)	(4.13993206e+00 7.17271887e-01 2.72411214e-18)	(4.72171240e-01 -1.16988483e+00 0.00000000e+00)
0.373298        	p               	-6.93390065e+00	(2.93714573e-01 -1.03340796e+00 -1.44236602e-17)	3.40273243e+00	(1.36774260e+00 -4.06192660e-02 0.00000000e+00)
0.391426        	U               	(1.45796309e+00 -2.10168812e+00 -1.30713901e-18)	(1.21786394e+00 6.83977664e-01 0.00000000e+00)	(4.00505204e+00 1.03059820e+00 2.55120907e-18)	(-8.51772434e-02 1.17707070e+00 2.98630524e-17)
0.391426        	p               	-6.91220609e+00	(3.09787322e-01 -1.03340797e+00 -1.44236350e-17)	3.45217108e+00	(1.38381432e+00 -4.06192702e-02 0.00000000e+00)
0.409657        	U               	(1.12159766e+00 -1.95002276e+00 -2.71046245e-18)	(1.28509961e+00 6.13866674e-01 0.00000000e+00)	(3.78877698e+00 3.65065044e-01 2.02189245e-18)	(6.92947027e-02 1.47090592e+00 0.00000000e+00)
0.409657        	p               	-6.89299087e+00	(3.25928422e-01 -1.03340797e+00 0.00000000e+00)	3.49593161e+00	(1.39995554e+00 -4.06192789e-02 0.00000000e+00)
0.427998        	U               	(1.12303800e+00 -1.94532627e+00 -2.21467933e-18)	(1.30130627e+00 6.13866656e-01 -4.88229466e-17)	(3.43396321e+00 1.49531113e+00 3.09680966e-18)	(9.06537386e-01 -1.13938542e+00 -2.93103324e-17)
0.427998        	p               	-6.87592764e+00	(3.42141955e-01 -1.03340798e+00 -1.36414199e-17)	3.53762493e+00	(1.41616906e+00 -4.06192837e-02 0.00000000e+00)
0.44646         	U               	(1.79166975e+00 -2.15196605e+00 -1.24281242e-18)	(1.21003031e+00 7.49835102e-01 0.00000000e+00)	(3.96194962e+00 9.94825258e-01 2.29890691e-18)	(6.28237370e-01 -1.15562950e+00 -7.81978440e-19)
0.44646         	p               	-6.86086278e+00	(3.58436415e-01 -1.03340797e+00 0.00000000e+00)	3.56516975e+00	(1.43246371e+00 -4.06192872e-02 0.00000000e+00)
0.465048        	U               	(1.20757471e+00 -3.29301213e+00 -1.56248811e-18)	(1.42986383e+00 2.01798793e-01 0.00000000e+00)	(4.08977143e+00 4.42061974e-01 2.50808852e-18)	(4.60955947e-01 -1.17685218e+00 0.00000000e+00)
0.465048        	p               	-6.84783704e+00	(3.74812759e-01 -1.03340798e+00 0.00000000e+00)	3.60472116e+00	(1.44884056e+00 -4.06192836e-02 1.44474915e-17)
0.483765        	U               	(1.12557494e+00 -1.93156572e+00 -1.90139833e-18)	(1.35042960e+00 6.13866680e-01 -4.88315819e-17)	(4.16192749e+00 4.38943710e-01 2.00789836e-18)	(1.69388368e-01 1.30751871e+00 1.71515894e-17)
0.483765        	p               	-6.83500005e+00	(3.91274875e-01 -1.03340798e+00 -2.80649041e-17)	3.62305955e+00	(1.46530289e+00 -4.06192867e-02 1.36654432e-17)
0.502612        	U               	(1.61012666e+00 -1.51287704e+00 -1.94979943e-18)	(1.48990938e+00 6.96794565e-01 3.02598902e-17)	(3.91743890e+00 6.46165265e-01 3.47041706e-18)	(6.05869829e-02 1.36212038e+00 2.48733547e-17)
0.502612        	p               	-6.82249354e+00	(4.07819928e-01 -1.03340799e+00 2.72826808e-17)	3.64112876e+00	(1.48184730e+00 -4.06192960e-02 0.00000000e+00)
0.52159         	U               	(1.76991233e+00 -2.11224051e+00 -1.57291187e-18)	(1.27602512e+00 7.49835101e-01 1.20473687e-17)	(4.07364361e+00 7.63264886e-01 4.69636704e-18)	(1.23027056e-01 1.20740253e+00 1.02229468e-17)
0.52159         	p               	-6.81274946e+00	(4.24448383e-01 -1.03340798e+00 0.00000000e+00)	3.64992963e+00	(1.49847618e+00 -4.06192967e-02 0.00000000e+00)
0.540696        	U               	(1.12549198e+00 -1.91707972e+00 -2.20522423e-18)	(1.40029032e+00 6.13866645e-01 0.00000000e+00)	(4.18903693e+00 4.67963202e-01 2.47570073e-18)	(2.35482923e-01 1.23018890e+00 4.01706760e-17)
0.540696        	p               	-6.79928900e+00	(4.41154021e-01 -1.03340799e+00 0.00000000e+00)	3.65075765e+00	(1.51518091e+00 -4.06193044e-02 0.00000000e+00)
0.55993         	U               	(1.12487578e+00 -1.91182036e+00 -2.10399460e-18)	(1.41706873e+00 6.13866658e-01 -1.24072657e-17)	(3.94289713e+00 9.81943150e-01 3.24936317e-18)	(3.44386767e-02 1.25113674e+00 1.86531711e-17)
0.55993         	p               	-6.78893855e+00	(4.57937664e-01 1.03340803e+00 0.00000000e+00)	3.64268191e+00	(1.53196226e+00 -4.06193095e-02 1.44491330e-17)
0.579293        	U               	(1.12393075e+00 -1.90629674e+00 -7.36319817e-19)	(1.43391939e+00 6.13866635e-01 1.24082682e-17)	(4.01925641e+00 7.66368804e-01 1.29772034e-18)	(1.73267527e-01 1.20740254e+00 2.04419959e-17)
0.579293        	p               	-6.77836566e+00	(4.74792860e-01 1.03340803e+00 -2.65003692e-17)	3.62834563e+00	(1.54881830e+00 -4.06193042e-02 1.28851614e-17)
0.598786        	U               	(5.66995317e-01 -1.55558867e+00 -1.08753423e-18)	(1.53567382e+00 4.62658957e-01 0.00000000e+00)	(4.17669143e+00 4.54155855e-01 8.51566137e-19)	(2.69576959e-01 1.30751868e+00 0.00000000e+00)
0.598786        	p               	-6.76843314e+00	(4.91724358e-01 1.03340802e+00 0.00000000e+00)	3.61037237e+00	(1.56574902e+00 -4.06193089e-02 0.00000000e+00)
0.618413        	U               	(8.33056841e-01 -1.74120287e+00 -2.51695856e-18)	(1.51324792e+00 5.39939849e-01 -1.24032564e-17)	(3.53828624e+00 7.20963911e-01 2.95081761e-18)	(-7.93023194e-03 1.49026195e+00 2.64328196e-17)
0.618413        	p               	-6.75906125e+00	(5.08728283e-01 1.03340803e+00 1.44234160e-17)	3.58814335e+00	(1.58275368e+00 -4.06193134e-02 -1.28859794e-17)
0.638176        	U               	(3.43741974e-01 -1.34022203e+00 -1.79404804e-18)	(1.60295217e+00 3.82506519e-01 0.00000000e+00)	(4.14707376e+00 4.33792887e-01 2.08226672e-18)	(6.14039064e-01 -1.25259684e+00 -7.81807636e-19)
0.638176        	p               	-6.74935218e+00	(5.25809101e-01 1.03340803e+00 0.00000000e+00)	3.56242448e+00	(1.59983373e+00 -4.06193103e-02 2.65543809e-17)
0.658078        	U               	(8.33529657e-01 -1.73367743e+00 -2.14785219e-18)	(1.54747580e+00 5.39939852e-01 3.72137411e-17)	(4.07104461e+00 7.42160959e-01 1.90745388e-18)	(2.18816571e-01 1.28335034e+00 0.00000000e+00)
0.658078        	p               	-6.74143096e+00	(5.42962348e-01 1.03340803e+00 0.00000000e+00)	3.52968170e+00	(1.61698779e+00 -4.06193162e-02 0.00000000e+00)
0.678124        	U               	(1.71176694e+00 -2.02577362e+00 -6.65591950e-18)	(1.41173437e+00 7.49835093e-01 1.20531663e-17)	(4.06618386e+00 7.46137741e-01 3.38206495e-18)	(2.36044566e-01 1.28335032e+00 0.00000000e+00)
0.678124        	p               	-6.73347969e+00	(5.60193512e-01 1.03340803e+00 0.00000000e+00)	3.49179513e+00	(1.63421880e+00 -4.06193132e-02 1.36689021e-17)
0.698316        	U               	(1.11169339e+00 -1.86708458e+00 -2.83625561e-18)	(1.53659976e+00 6.13866634e-01 0.00000000e+00)	(3.95656966e+00 6.86063518e-01 2.88553116e-18)	(2.29618157e-01 1.36212037e+00 0.00000000e+00)
0.698316        	p               	-6.72625184e+00	(5.77499863e-01 1.03340803e+00 0.00000000e+00)	3.45090566e+00	(1.65152540e+00 -4.06193208e-02 1.36696811e-17)
0.718661        	U               	(1.31289983e+00 -3.01821521e+00 -4.97582783e-19)	(1.63100459e+00 2.80771031e-01 -1.44037767e-17)	(3.77302634e+00 1.19188709e+00 3.32408680e-18)	(9.74319597e-01 -1.20740230e+00 1.97895122e-17)
0.718661        	p               	-6.71918533e+00	(5.94887232e-01 1.03340802e+00 0.00000000e+00)	3.40670208e+00	(1.66891253e+00 -4.06193263e-02 0.00000000e+00)
0.739164        	U               	(8.31377897e-01 -1.71441760e+00 -9.67716517e-19)	(1.61684244e+00 5.39939825e-01 0.00000000e+00)	(4.15351640e+00 4.81786553e-01 2.57684281e-18)	(3.89807313e-01 1.30751869e+00 8.56987656e-18)
0.739164        	p               	-6.71291972e+00	(6.12352809e-01 1.03340802e+00 -2.88466127e-17)	3.36051859e+00	(1.68637916e+00 -4.06193360e-02 -1.36707284e-17)
0.759832        	U               	(1.30278250e+00 -2.33851813e+00 -2.57111575e-18)	(1.70393168e+00 4.06193665e-02 0.00000000e+00)	(3.80507853e+00 6.30004220e-01 2.99095331e-18)	(2.57074043e-01 1.44381757e+00 -2.97890458e-17)
0.759832        	p               	-6.70630803e+00	(6.29906278e-01 1.03340803e+00 1.44233158e-17)	3.31203549e+00	(1.70393154e+00 -4.06193117e-02 -1.44529805e-17)
0.78067         	U               	(1.06589115e+00 -2.63346733e+00 -3.80872655e-18)	(1.71525299e+00 1.21582593e-01 0.00000000e+00)	(4.03336532e+00 7.68433492e-01 8.49239228e-19)	(3.23063372e-01 1.28335029e+00 0.00000000e+00)
0.78067         	p               	-6.70063181e+00	(6.47542248e-01 1.03340802e+00 0.00000000e+00)	3.26226233e+00	(1.72156836e+00 -4.06193382e-02 2.65612248e-17)
0.801688        	U               	(1.29556722e+00 -2.31366006e+00 -2.00928478e-18)	(1.73929803e+00 4.06193474e-02 2.73443885e-17)	(4.02570114e+00 7.72984889e-01 4.18176495e-18)	(3.40830104e-01 1.28335029e+00 0.00000000e+00)
0.801688        	p               	-6.69407952e+00	(6.65272473e-01 1.03340803e+00 0.00000000e+00)	3.21056620e+00	(1.73929799e+00 -4.06193320e-02 0.00000000e+00)
0.822892        	U               	(8.25787496e-01 -1.68886787e+00 -1.63474469e-18)	(1.68756239e+00 5.39939819e-01 0.00000000e+00)	(4.05387649e+00 4.62928082e-01 2.38654710e-18)	(4.42823258e-01 1.38772214e+00 3.26784702e-17)
0.822892        	p               	-6.68824256e+00	(6.83092111e-01 1.03340802e+00 0.00000000e+00)	3.15786575e+00	(1.75711840e+00 -4.06193357e-02 -7.82174454e-19)
0.844291        	U               	(5.83261898e-01 -1.51545065e+00 -1.57767305e-18)	(1.74490860e+00 4.62658936e-01 3.72344397e-17)	(4.00952335e+00 7.82356044e-01 4.51855375e-18)	(3.76466544e-01 1.28335029e+00 0.00000000e+00)
0.844291        	p               	-6.68188222e+00	(7.01013147e-01 1.03340802e+00 2.64999680e-17)	3.10314115e+00	(1.77503849e+00 -4.06193180e-02 1.36726590e-17)
0.865896        	U               	(1.35165312e+00 -1.87834899e+00 -2.45699385e-18)	(1.62699425e+00 6.83977638e-01 -3.72976989e-17)	(4.00124196e+00 7.87057107e-01 4.03454388e-18)	(3.94370430e-01 1.28335030e+00 0.00000000e+00)
0.865896        	p               	-6.67646369e+00	(7.19032535e-01 1.03340802e+00 1.36410329e-17)	3.04770098e+00	(1.79305918e+00 -4.06193414e-02 0.00000000e+00)
0.887716        	U               	(8.19516022e-01 -1.66521668e+00 -2.03831670e-18)	(1.74162453e+00 5.39939843e-01 1.24152039e-17)	(4.05369972e+00 4.78932685e-01 1.76200863e-18)	(4.96804820e-01 1.38772214e+00 -1.55571279e-17)
0.887716        	p               	-6.67083766e+00	(7.37161782e-01 1.03340802e+00 -1.28588664e-17)	2.98994153e+00	(1.81118723e+00 -4.06193247e-02 0.00000000e+00)
0.909754        	U               	(9.74713120e-01 -2.71953377e+00 -9.65802578e-19)	(1.81044257e+00 2.01798758e-01 2.80556863e-17)	(3.90105804e+00 4.39796041e-01 2.00063623e-18)	(4.96417359e-01 1.47090605e+00 -2.98445232e-17)
0.909754        	p               	-6.66079785e+00	(7.55394517e-01 1.03340803e+00 1.56434840e-18)	2.92938557e+00	(1.82942004e+00 -4.06193312e-02 -1.44561914e-17)
0.932022        	U               	(1.58861889e+00 -1.86365990e+00 -4.10904299e-18)	(1.62522644e+00 7.49835093e-01 0.00000000e+00)	(3.97450715e+00 3.66509303e-01 3.64080370e-18)	(8.61644627e-01 -1.25259685e+00 2.05859399e-17)
0.932022        	p               	-6.65445020e+00	(7.73739949e-01 1.03340803e+00 0.00000000e+00)	2.86727890e+00	(1.84776487e+00 -4.06193143e-02 1.36740706e-17)
0.954531        	U               	(1.23366841e+00 -2.21836646e+00 -2.23808538e-18)	(1.86622336e+00 4.06193732e-02 -2.81334313e-17)	(4.05097094e+00 6.12008947e-01 3.74483972e-18)	(9.86175798e-01 -1.32348756e+00 -3.60763285e-17)
0.954531        	p               	-6.65078134e+00	(7.92198849e-01 1.03340803e+00 -1.36409934e-17)	2.80433343e+00	(1.86622319e+00 -4.06193102e-02 -1.36747724e-17)
0.977293        	U               	(1.30699482e+00 -1.80907450e+00 -1.41560390e-18)	(1.71873396e+00 6.83977674e-01 0.00000000e+00)	(3.62137499e+00 1.17803567e+00 3.13097053e-18)	(2.53811447e-01 1.28544569e+00 0.00000000e+00)
0.977293        	p               	-6.64403580e+00	(8.10779919e-01 1.03340803e+00 -1.36409952e-17)	2.73993898e+00	(1.88480417e+00 -4.06193015e-02 -2.73495151e-17)
1.00032         	U               	(1.04491613e+00 -1.72641270e+00 -3.24436159e-18)	(1.78852379e+00 6.13866677e-01 0.00000000e+00)	(3.99060640e+00 5.43901516e-01 3.92372223e-18)	(1.03124075e+00 -1.40459587e+00 0.00000000e+00)
1.00032         	p               	-6.63720734e+00	(8.29484597e-01 1.03340803e+00 -1.28587881e-17)	2.67492231e+00	(1.90350816e+00 -4.06192858e-02 4.10276931e-17)
1.02363         	U               	(1.03727163e+00 -1.71015584e+00 -1.43014803e-18)	(1.80736445e+00 6.13866680e-01 0.00000000e+00)	(3.93866015e+00 7.61105396e-01 2.50259196e-18)	(4.99583947e-01 1.36212046e+00 0.00000000e+00)
1.02363         	p               	-6.63056306e+00	(8.48324285e-01 1.03340803e+00 2.80641095e-17)	2.60880685e+00	(1.92234750e+00 -4.06192790e-02 1.28937486e-17)
1.04723         	U               	(8.25113243e-01 -2.26297737e+00 -2.84719309e-18)	(1.93500748e+00 1.21582636e-01 2.65278103e-17)	(3.78895338e+00 9.90835893e-01 2.59633456e-18)	(4.12651985e-01 1.32795535e+00 3.25128749e-17)
1.04723         	p               	-6.62426229e+00	(8.67297744e-01 1.03340804e+00 0.00000000e+00)	2.54154855e+00	(1.94132236e+00 -4.06192874e-02 1.36764357e-17)
1.07114         	U               	(1.50261413e+00 -1.75030028e+00 -1.18979496e-18)	(1.73788287e+00 7.49835099e-01 0.00000000e+00)	(4.05056169e+00 5.61947606e-01 1.17323540e-18)	(6.63334357e-01 1.30751886e+00 3.58200159e-17)
1.07114         	p               	-6.61757590e+00	(8.86417216e-01 1.03340804e+00 0.00000000e+00)	2.47200092e+00	(1.96044130e+00 -4.06192783e-02 2.81353152e-17)
1.09537         	U               	(1.24899190e+00 -1.71169767e+00 -1.40009713e-18)	(1.81361502e+00 6.83977674e-01 0.00000000e+00)	(3.92630216e+00 8.31567758e-01 1.68071122e-18)	(5.80650938e-01 1.28335049e+00 1.86480547e-17)
1.09537         	p               	-6.61163708e+00	(9.05684281e-01 1.03340805e+00 -1.36408747e-17)	2.40152576e+00	(1.97970921e+00 -4.06192810e-02 0.00000000e+00)
1.11995         	U               	(1.81244282e+00 -1.75482494e+00 -2.06101037e-18)	(1.82952663e+00 7.99439837e-01 0.00000000e+00)	(3.90123377e+00 4.85352759e-01 2.05026567e-18)	(6.65490444e-01 1.47090622e+00 0.00000000e+00)
1.11995         	p               	-6.60532451e+00	(9.25112526e-01 1.03340804e+00 1.36408817e-17)	2.33013624e+00	(1.99913721e+00 -4.06192791e-02 1.28949887e-17)
1.14489         	U               	(1.29124013e+00 -2.33164175e+00 -1.18622413e-18)	(1.92466517e+00 4.33038213e-01 0.00000000e+00)	(3.91403409e+00 8.41069498e-01 1.71670120e-18)	(6.19572648e-01 1.28335050e+00 1.86453983e-17)
1.14489         	p               	-6.59958751e+00	(9.44706680e-01 1.03340805e+00 1.44230127e-17)	2.25770187e+00	(2.01873102e+00 -4.06192804e-02 -1.36782589e-17)
1.17023         	U               	(1.03884182e+00 -2.01420078e+00 -3.08640765e-18)	(2.03850854e+00 4.06194020e-02 0.00000000e+00)	(4.12065153e+00 3.06917411e-01 4.00701158e-18)	(8.44689799e-01 1.32348824e+00 1.87366549e-17)
1.17023         	p               	-6.59372676e+00	(9.64484174e-01 1.03340805e+00 -2.80638733e-17)	2.18410138e+00	(2.03850822e+00 -4.06192794e-02 -1.36781314e-17)
1.19598         	U               	(1.62695958e+00 -1.61735398e+00 -1.74660618e-18)	(1.77452279e+00 8.11204985e-01 0.00000000e+00)	(3.90302721e+00 8.50868571e-01 3.01728154e-18)	(6.59243528e-01 1.28335052e+00 2.71838367e-17)
1.19598         	p               	-6.58822749e+00	(9.84451467e-01 1.03340805e+00 1.36408095e-17)	2.10921396e+00	(2.05847585e+00 -4.06192776e-02 0.00000000e+00)
1.22218         	U               	(1.52730740e+00 -1.65240163e+00 -2.83888338e-18)	(1.96928527e+00 7.29286288e-01 1.13639122e-17)	(3.90966964e+00 8.01430451e-01 3.57342819e-18)	(6.55336034e-01 1.36212059e+00 3.25660473e-17)
1.22218         	p               	-6.58273486e+00	(1.00462974e+00 1.03340805e+00 2.80638132e-17)	2.03280785e+00	(2.07865390e+00 -4.06192794e-02 0.00000000e+00)
1.24888         	U               	(1.73528660e+00 -1.69416746e+00 -1.23799223e-18)	(1.92935040e+00 7.99439832e-01 0.00000000e+00)	(3.66720276e+00 8.40091895e-01 2.88470547e-18)	(1.46464947e+00 -1.44381706e+00 0.00000000e+00)
1.24888         	p               	-6.57774534e+00	(1.10626871e+00 1.03340804e+00 -1.44270510e-17)	1.95479018e+00	(2.09905454e+00 -4.06192755e-02 1.36800666e-17)
1.2761          	U               	(1.28401049e+00 -1.53223790e+00 -1.62792674e-18)	(2.06485499e+00 6.54574242e-01 -2.27203167e-17)	(3.75033725e+00 1.02590806e+00 2.78628270e-18)	(5.90518914e-01 1.32795539e+00 -3.32695350e-17)
1.2761          	p               	-6.57366810e+00	(1.12692183e+00 1.03340805e+00 0.00000000e+00)	1.87519265e+00	(2.11970714e+00 -4.06192765e-02 0.00000000e+00)
1.3039          	U               	(8.77087216e-01 -1.84638852e+00 -2.77519403e-18)	(2.14062857e+00 4.06194047e-02 2.65803856e-17)	(3.89667991e+00 8.17101180e-01 3.59264265e-18)	(7.16922207e-01 1.36212062e+00 1.70567445e-17)
1.3039          	p               	-6.57020191e+00	(1.14784240e+00 1.03340805e+00 0.00000000e+00)	1.79376770e+00	(2.14062824e+00 -4.06192781e-02 -2.81443688e-17)
1.33234         	U               	(1.68437329e+00 -1.65051215e+00 -2.13103839e-18)	(1.99212469e+00 7.99439846e-01 0.00000000e+00)	(3.78023687e+00 7.41283216e-01 3.30911057e-18)	(7.12788439e-01 1.44381790e+00 2.97244845e-17)
1.33234         	p               	-6.56688432e+00	(1.16906648e+00 1.03340805e+00 -1.44270687e-17)	1.71036123e+00	(2.16185168e+00 -4.06192748e-02 1.52453231e-17)
1.36148         	U               	(1.44190059e+00 -1.52623834e+00 -1.96550534e-18)	(2.19046346e+00 6.96794601e-01 2.00320944e-17)	(3.77609343e+00 7.46289279e-01 2.17113291e-18)	(7.34019069e-01 1.44381793e+00 0.00000000e+00)
1.36148         	p               	-6.55885737e+00	(1.19061316e+00 1.03340805e+00 0.00000000e+00)	1.62348396e+00	(2.18339830e+00 -4.06192713e-02 -1.44645253e-17)
1.39138         	U               	(1.62228331e+00 -1.48052831e+00 -2.09105349e-18)	(2.27635994e+00 7.40583980e-01 0.00000000e+00)	(3.98986172e+00 6.38930205e-01 2.76099100e-18)	(9.07631922e-01 1.30751899e+00 1.71175761e-17)
1.39138         	p               	-6.55695851e+00	(1.21252377e+00 1.03340805e+00 -2.65058520e-17)	1.53710367e+00	(-1.63424469e-01 5.23569012e-02 0.00000000e+00)
1.42161         	U               	(1.76305873e+00 -1.40040959e+00 -1.82723500e-18)	(2.36418667e+00 7.86000538e-01 0.00000000e+00)	(3.87835779e+00 8.38208609e-01 2.62110659e-18)	(8.03332401e-01 1.36212070e+00 0.00000000e+00)
1.42161         	p               	-6.55370319e+00	(1.23446199e+00 1.03340805e+00 2.57231308e-17)	1.54207071e+00	(-1.41571455e-01 5.23569913e-02 2.68297788e-17)
1.45189         	U               	(4.77790625e-01 -1.59366711e+00 -2.03171687e-18)	(2.24268205e+00 1.21582637e-01 -1.28787880e-17)	(3.72194419e+00 1.04911518e+00 2.82248872e-18)	(7.19386221e-01 1.32795546e+00 -2.47412648e-17)
1.45189         	p               	-6.54729813e+00	(1.25621226e+00 1.03340805e+00 -1.36443499e-17)	1.54724326e+00	(-1.19841550e-01 5.23567124e-02 2.68272705e-17)
1.48227         	U               	(1.19441185e+00 -1.33132807e+00 -2.94911237e-18)	(2.04795915e+00 7.49835084e-01 1.24767626e-17)	(3.62871981e+00 6.84709080e-01 2.71140331e-18)	(7.93946024e-01 1.52855103e+00 0.00000000e+00)
1.48227         	p               	-6.54276734e+00	(1.27780726e+00 1.03340805e+00 1.44271865e-17)	1.55282414e+00	(-9.83397741e-02 5.23570114e-02 0.00000000e+00)
1.51269         	U               	(4.27658147e-01 -1.48022890e+00 -9.05605093e-19)	(2.28566914e+00 1.21582627e-01 0.00000000e+00)	(4.06083893e+00 3.82905059e-01 2.26503463e-18)	(1.08581490e+00 1.40459689e+00 -7.79356668e-18)
1.51269         	p               	-6.53748534e+00	(1.29919708e+00 1.03340805e+00 2.80715739e-17)	1.55829932e+00	(-7.70147079e-02 5.23568561e-02 0.00000000e+00)
1.54322         	U               	(1.96065178e+00 -1.66671685e+00 -1.50227817e-18)	(2.28770132e-01 -8.25016961e-01 0.00000000e+00)	(3.71287772e+00 6.61212831e-01 3.97524912e-18)	(1.03240291e+00 1.23018910e+00 -2.04444239e-17)
1.54322         	p               	-6.53089958e+00	(1.32043546e+00 1.03340805e+00 0.00000000e+00)	1.56438392e+00	(-5.58180592e-02 5.23569077e-02 2.83628141e-17)
1.57381         	U               	(1.75904693e+00 -1.42242506e+00 -2.06340792e-18)	(2.47099199e+00 7.86000402e-01 0.00000000e+00)	(3.97877335e+00 1.34462048e-01 2.04367815e-18)	(1.23294319e+00 1.49714233e+00 0.00000000e+00)
1.57381         	p               	-6.52569750e+00	(1.34146800e+00 1.03340805e+00 0.00000000e+00)	1.57057449e+00	(-3.48093223e-02 5.23567905e-02 -1.83858007e-17)
1.60424         	U               	(1.84248009e+00 -1.58205895e+00 -2.66840718e-18)	(2.23940982e+00 8.50887984e-01 -1.00413994e-17)	(3.93053991e+00 3.69031773e-01 2.80148877e-18)	(1.13584344e+00 1.48871951e+00 -2.28149159e-17)
1.60424         	p               	-6.51867089e+00	(1.36213874e+00 1.03340806e+00 1.36444629e-17)	1.57744682e+00	(-1.42727091e-02 5.23568331e-02 0.00000000e+00)
1.63444         	U               	(1.48689928e+00 -1.42922729e+00 -1.76735973e-18)	(2.20534038e+00 7.99439816e-01 1.10058894e-17)	(4.04748468e+00 4.16149138e-01 5.33179387e-18)	(1.16879417e+00 1.40459693e+00 0.00000000e+00)
1.63444         	p               	-6.51092846e+00	(1.38241560e+00 1.03340805e+00 -1.36444564e-17)	1.58405923e+00	(6.00274536e-03 5.23567547e-02 -8.40497269e-18)
1.6645          	U               	(1.36642575e+00 -1.42308921e+00 -1.91969819e-18)	(4.35168644e-01 -7.29286041e-01 2.14853000e-17)	(3.96252758e+00 6.60620046e-01 1.83817873e-18)	(1.07879274e+00 1.38772259e+00 0.00000000e+00)
1.6645          	p               	-6.50215284e+00	(1.40235638e+00 1.03340805e+00 2.65061763e-17)	1.59153820e+00	(2.58833797e-02 5.23568419e-02 0.00000000e+00)
1.69436         	U               	(1.55543121e+00 -1.48072386e+00 -2.06342501e-18)	(2.36343441e+00 7.76278613e-01 -1.04213440e-17)	(3.95841712e+00 6.67007398e-01 2.10424834e-18)	(1.09840102e+00 1.38772259e+00 0.00000000e+00)
1.69436         	p               	-6.49248836e+00	(1.42191115e+00 1.03340805e+00 -1.44272527e-17)	1.59895829e+00	(4.54320283e-02 5.23567590e-02 0.00000000e+00)
1.72406         	U               	(1.50392018e+00 -1.57464691e+00 -1.77255510e-18)	(3.54752833e-01 -6.96794151e-01 -1.00969254e-17)	(3.83295821e+00 6.07198345e-01 1.66324278e-18)	(1.09828206e+00 1.47090650e+00 3.05683378e-17)
1.72406         	p               	-6.48144801e+00	(1.44111853e+00 1.03340805e+00 1.28617056e-17)	1.60700591e+00	(6.46233048e-02 5.23568498e-02 0.00000000e+00)