/*--------------------------------*- C++ -*----------------------------------*\
| =========                 |                                                 |
| \\      /  F ield         | OpenFOAM: The Open Source CFD Toolbox           |
|  \\    /   O peration     | Version:  v2012                                 |
|   \\  /    A nd           | Website:  www.openfoam.com                      |
|    \\/     M anipulation  |                                                 |
\*---------------------------------------------------------------------------*/
FoamFile
{
    version     2.0;
    format      ascii;
    class       volVectorField;
    location    "39.8012744659894295";
    object      cellDisplacement;
}
// * * * * * * * * * * * * * * * * * * * * * * * * * * * * * * * * * * * * * //

dimensions      [0 1 0 0 0 0 0];


internalField   nonuniform List<vector> 
9200
(
(-0.055461433 0 0)
(-0.055686576 0 0)
(-0.16070245 0 0)
(-0.056063907 0 0)
(-0.16129046 0 0)
(-0.25836921 0 0)
(-0.056532651 0 0)
(-0.16229628 0 0)
(-0.25925759 0 0)
(-0.34878526 0 0)
(-0.05705219 0 0)
(-0.16355881 0 0)
(-0.26078109 0 0)
(-0.34994067 0 0)
(-0.43238509 0 0)
(-0.057592386 0 0)
(-0.16496621 0 0)
(-0.26269962 0 0)
(-0.35188518 0 0)
(-0.43373828 0 0)
(-0.50951454 0 0)
(-0.05813518 0 0)
(-0.16644416 0 0)
(-0.26487101 0 0)
(-0.35440322 0 0)
(-0.43611596 0 0)
(-0.51111497 0 0)
(-0.58064852 0 0)
(-0.058664355 0 0)
(-0.16793086 0 0)
(-0.26715593 0 0)
(-0.35723386 0 0)
(-0.43911764 0 0)
(-0.51381547 0 0)
(-0.58241988 0 0)
(-0.64612051 0 0)
(-0.059172317 0 0)
(-0.16938949 0 0)
(-0.26946683 0 0)
(-0.36023441 0 0)
(-0.44254899 0 0)
(-0.51731644 0 0)
(-0.5855008 0 0)
(-0.64811175 0 0)
(-0.70637454 0 0)
(-0.05965097 0 0)
(-0.17078874 0 0)
(-0.271736 0 0)
(-0.36327429 0 0)
(-0.44618805 0 0)
(-0.52128684 0 0)
(-0.58941859 0 0)
(-0.65148476 0 0)
(-0.70852175 0 0)
(-0.76171923 0 0)
(-0.060098322 0 0)
(-0.17211374 0 0)
(-0.27392055 0 0)
(-0.36626806 0 0)
(-0.44988737 0 0)
(-0.52550652 0 0)
(-0.59388133 0 0)
(-0.6558344 0 0)
(-0.71224053 0 0)
(-0.76406648 0 0)
(-0.8125567 0 0)
(-0.060510857 0 0)
(-0.1733503 0 0)
(-0.27598948 0 0)
(-0.36915422 0 0)
(-0.45353762 0 0)
(-0.52981072 0 0)
(-0.59864774 0 0)
(-0.66077683 0 0)
(-0.71696991 0 0)
(-0.76805851 0 0)
(-0.81505603 0 0)
(-0.85916794 0 0)
(-0.060889665 0 0)
(-0.17449575 0 0)
(-0.27792674 0 0)
(-0.37189376 0 0)
(-0.45706314 0 0)
(-0.53406692 0 0)
(-0.60351538 0 0)
(-0.66605367 0 0)
(-0.72236965 0 0)
(-0.77320141 0 0)
(-0.81937181 0 0)
(-0.86185153 0 0)
(-0.90190311 0 0)
(-0.061233647 0 0)
(-0.17554548 0 0)
(-0.27972066 0 0)
(-0.37446083 0 0)
(-0.46041387 0 0)
(-0.53818641 0 0)
(-0.60834053 0 0)
(-0.67145027 0 0)
(-0.72812752 0 0)
(-0.77903606 0 0)
(-0.82487132 0 0)
(-0.86642778 0 0)
(-0.90473133 0 0)
(-0.9410083 0 0)
(-0.06154545 0 0)
(-0.17650314 0 0)
(-0.28137047 0 0)
(-0.37684419 0 0)
(-0.46355824 0 0)
(-0.54210701 0 0)
(-0.61301808 0 0)
(-0.67681335 0 0)
(-0.73403796 0 0)
(-0.78527545 0 0)
(-0.83114457 0 0)
(-0.87232362 0 0)
(-0.90961389 0 0)
(-0.94400808 0 0)
(-0.97679107 0 0)
(-0.061825391 0 0)
(-0.17737005 0 0)
(-0.28287542 0 0)
(-0.37903662 0 0)
(-0.46647916 0 0)
(-0.54579181 0 0)
(-0.61747821 0 0)
(-0.68202176 0 0)
(-0.7399163 0 0)
(-0.79167446 0 0)
(-0.83784313 0 0)
(-0.87901791 0 0)
(-0.91585135 0 0)
(-0.94914214 0 0)
(-0.97993318 0 0)
(-1.0094678 0 0)
(-0.062076619 0 0)
(-0.17815179 0 0)
(-0.28424173 0 0)
(-0.38104187 0 0)
(-0.46917007 0 0)
(-0.54921802 0 0)
(-0.62167459 0 0)
(-0.6869947 0 0)
(-0.74563477 0 0)
(-0.79804672 0 0)
(-0.84471059 0 0)
(-0.88616619 0 0)
(-0.92296779 0 0)
(-0.955759 0 0)
(-0.98535534 0 0)
(-1.0127707 0 0)
(-1.0393033 0 0)
(-0.062299976 0 0)
(-0.17885282 0 0)
(-0.28547436 0 0)
(-0.3828629 0 0)
(-0.47163143 0 0)
(-0.5523785 0 0)
(-0.62558338 0 0)
(-0.69168052 0 0)
(-0.75110227 0 0)
(-0.80425959 0 0)
(-0.85157625 0 0)
(-0.89352149 0 0)
(-0.93057666 0 0)
(-0.9632868 0 0)
(-0.99230118 0 0)
(-1.0184346 0 0)
(-1.0427427 0 0)
(-1.066484 0 0)
(-0.062498747 0 0)
(-0.17947912 0 0)
(-0.28658268 0 0)
(-0.3845105 0 0)
(-0.4738699 0 0)
(-0.55527146 0 0)
(-0.62919133 0 0)
(-0.69604853 0 0)
(-0.75625999 0 0)
(-0.81020789 0 0)
(-0.85826719 0 0)
(-0.90084334 0 0)
(-0.93837269 0 0)
(-0.97133043 0 0)
(-1.0002353 0 0)
(-1.0257434 0 0)
(-1.0486795 0 0)
(-1.0700743 0 0)
(-1.0912394 0 0)
(-0.062673905 0 0)
(-0.18003685 0 0)
(-0.28757467 0 0)
(-0.38599257 0 0)
(-0.47589468 0 0)
(-0.55790551 0 0)
(-0.63250025 0 0)
(-0.70008591 0 0)
(-0.76107312 0 0)
(-0.81582585 0 0)
(-0.86468393 0 0)
(-0.90800408 0 0)
(-0.94617351 0 0)
(-0.97960402 0 0)
(-1.0087236 0 0)
(-1.0340704 0 0)
(-1.0563024 0 0)
(-1.0762447 0 0)
(-1.094963 0 0)
(-1.1137313 0 0)
(-0.062828631 0 0)
(-0.18053112 0 0)
(-0.28845964 0 0)
(-0.38732193 0 0)
(-0.47771906 0 0)
(-0.56028996 0 0)
(-0.63551394 0 0)
(-0.70378992 0 0)
(-0.76552595 0 0)
(-0.82107415 0 0)
(-0.87075114 0 0)
(-0.91487675 0 0)
(-0.95379005 0 0)
(-0.98784864 0 0)
(-1.0174303 0 0)
(-1.0429815 0 0)
(-1.0650197 0 0)
(-1.0842124 0 0)
(-1.1013904 0 0)
(-1.1175973 0 0)
(-1.1341559 0 0)
(-0.062963776 0 0)
(-0.18096852 0 0)
(-0.28924714 0 0)
(-0.38850919 0 0)
(-0.47935505 0 0)
(-0.56243975 0 0)
(-0.63824698 0 0)
(-0.707168 0 0)
(-0.76961444 0 0)
(-0.825934 0 0)
(-0.87642499 0 0)
(-0.92138238 0 0)
(-0.96110503 0 0)
(-0.99590417 0 0)
(-1.0261295 0 0)
(-1.0521474 0 0)
(-1.0743576 0 0)
(-1.0933072 0 0)
(-1.1096595 0 0)
(-1.1242491 0 0)
(-1.13815 0 0)
(-1.1526519 0 0)
(-0.063082323 0 0)
(-0.1813533 0 0)
(-0.28994514 0 0)
(-0.38956632 0 0)
(-0.48081827 0 0)
(-0.56436908 0 0)
(-0.64071127 0 0)
(-0.7102314 0 0)
(-0.77334634 0 0)
(-0.83040075 0 0)
(-0.88168331 0 0)
(-0.92747205 0 0)
(-0.96803892 0 0)
(-1.0036553 0 0)
(-1.0346268 0 0)
(-1.0612782 0 0)
(-1.0839437 0 0)
(-1.1030524 0 0)
(-1.1191274 0 0)
(-1.1328465 0 0)
(-1.1450448 0 0)
(-1.1567805 0 0)
(-1.1693879 0 0)
(-0.063185027 0 0)
(-0.18169176 0 0)
(-0.29056248 0 0)
(-0.39050485 0 0)
(-0.4821211 0 0)
(-0.5660947 0 0)
(-0.64292653 0 0)
(-0.71299713 0 0)
(-0.77673275 0 0)
(-0.83448115 0 0)
(-0.88652141 0 0)
(-0.93312088 0 0)
(-0.97453736 0 0)
(-1.0110099 0 0)
(-1.0428014 0 0)
(-1.0702059 0 0)
(-1.0935259 0 0)
(-1.1130841 0 0)
(-1.129281 0 0)
(-1.1426742 0 0)
(-1.1539301 0 0)
(-1.1638915 0 0)
(-1.1736405 0 0)
(-1.1844836 0 0)
(-0.063274603 0 0)
(-0.18198735 0 0)
(-0.29110637 0 0)
(-0.39133555 0 0)
(-0.48327946 0 0)
(-0.56763295 0 0)
(-0.6449076 0 0)
(-0.71548246 0 0)
(-0.77979276 0 0)
(-0.83818773 0 0)
(-0.89094332 0 0)
(-0.93832109 0 0)
(-0.98057053 0 0)
(-1.0179102 0 0)
(-1.0505646 0 0)
(-1.0787883 0 0)
(-1.1028719 0 0)
(-1.1230843 0 0)
(-1.1397211 0 0)
(-1.1532213 0 0)
(-1.1641144 0 0)
(-1.1730873 0 0)
(-1.1809807 0 0)
(-1.1888637 0 0)
(-1.1980824 0 0)
(-0.063351694 0 0)
(-0.18224574 0 0)
(-0.29158463 0 0)
(-0.39206905 0 0)
(-0.48430431 0 0)
(-0.56899901 0 0)
(-0.6466749 0 0)
(-0.71770771 0 0)
(-0.78254377 0 0)
(-0.84153942 0 0)
(-0.8949655 0 0)
(-0.94307849 0 0)
(-0.9861298 0 0)
(-1.0243239 0 0)
(-1.05786 0 0)
(-1.086964 0 0)
(-1.1118895 0 0)
(-1.1328716 0 0)
(-1.150165 0 0)
(-1.1640888 0 0)
(-1.1750521 0 0)
(-1.183616 0 0)
(-1.1904518 0 0)
(-1.196411 0 0)
(-1.2025814 0 0)
(-1.2102872 0 0)
(-0.063418695 0 0)
(-0.1824697 0 0)
(-0.29200336 0 0)
(-0.39271419 0 0)
(-0.48521048 0 0)
(-0.57020949 0 0)
(-0.64824409 0 0)
(-0.71969186 0 0)
(-0.78500948 0 0)
(-0.84455654 0 0)
(-0.89860351 0 0)
(-0.94740591 0 0)
(-0.99121865 0 0)
(-1.030239 0 0)
(-1.0646507 0 0)
(-1.0946508 0 0)
(-1.1204514 0 0)
(-1.1422772 0 0)
(-1.160362 0 0)
(-1.1749393 0 0)
(-1.1863137 0 0)
(-1.1949309 0 0)
(-1.2013199 0 0)
(-1.2061761 0 0)
(-1.2103454 0 0)
(-1.2149069 0 0)
(-1.2212197 0 0)
(-0.063476068 0 0)
(-0.18266443 0 0)
(-0.2923688 0 0)
(-0.39328019 0 0)
(-0.48600698 0 0)
(-0.57127706 0 0)
(-0.6496336 0 0)
(-0.72145517 0 0)
(-0.78720857 0 0)
(-0.84726173 0 0)
(-0.901883 0 0)
(-0.95132433 0 0)
(-0.99585111 0 0)
(-1.0356577 0 0)
(-1.0709167 0 0)
(-1.1018098 0 0)
(-1.1285225 0 0)
(-1.1512515 0 0)
(-1.1702022 0 0)
(-1.185566 0 0)
(-1.1975918 0 0)
(-1.2066011 0 0)
(-1.2130069 0 0)
(-1.2173714 0 0)
(-1.2203724 0 0)
(-1.2228694 0 0)
(-1.2259538 0 0)
(-1.2309697 0 0)
(-0.063525896 0 0)
(-0.18283149 0 0)
(-0.2926863 0 0)
(-0.3937745 0 0)
(-0.48670682 0 0)
(-0.57221703 0 0)
(-0.65085871 0 0)
(-0.72301611 0 0)
(-0.78916517 0 0)
(-0.84967777 0 0)
(-0.90482419 0 0)
(-0.95485541 0 0)
(-1.0000473 0 0)
(-1.0405946 0 0)
(-1.0766637 0 0)
(-1.1084279 0 0)
(-1.1360507 0 0)
(-1.159699 0 0)
(-1.1795524 0 0)
(-1.1957883 0 0)
(-1.2086156 0 0)
(-1.2182691 0 0)
(-1.225056 0 0)
(-1.22942 0 0)
(-1.2318902 0 0)
(-1.233173 0 0)
(-1.2341206 0 0)
(-1.2358179 0 0)
(-1.2396397 0 0)
(-0.063566462 0 0)
(-0.18297614 0 0)
(-0.29296093 0 0)
(-0.39420444 0 0)
(-0.48731716 0 0)
(-0.57303983 0 0)
(-0.65193569 0 0)
(-0.72439335 0 0)
(-0.79089734 0 0)
(-0.85182757 0 0)
(-0.90745503 0 0)
(-0.95802608 0 0)
(-1.0038315 0 0)
(-1.0450689 0 0)
(-1.0819004 0 0)
(-1.114496 0 0)
(-1.143011 0 0)
(-1.1675852 0 0)
(-1.1883659 0 0)
(-1.2055323 0 0)
(-1.2192566 0 0)
(-1.2297041 0 0)
(-1.237132 0 0)
(-1.2418574 0 0)
(-1.2442931 0 0)
(-1.2450022 0 0)
(-1.2446733 0 0)
(-1.2441742 0 0)
(-1.2445967 0 0)
(-1.2473074 0 0)
(-0.06333489 0 0)
(-0.18309341 0 0)
(-0.29319625 0 0)
(-0.3945763 0 0)
(-0.48784899 0 0)
(-0.57375901 0 0)
(-0.6528782 0 0)
(-0.72560356 0 0)
(-0.79242756 0 0)
(-0.85373379 0 0)
(-0.90979673 0 0)
(-0.96086079 0 0)
(-1.0072304 0 0)
(-1.0491075 0 0)
(-1.0866514 0 0)
(-1.1200343 0 0)
(-1.1494044 0 0)
(-1.1748852 0 0)
(-1.1966024 0 0)
(-1.2147101 0 0)
(-1.2293651 0 0)
(-1.2407127 0 0)
(-1.2489495 0 0)
(-1.2543074 0 0)
(-1.2570937 0 0)
(-1.2577497 0 0)
(-1.2568079 0 0)
(-1.2549871 0 0)
(-1.2531458 0 0)
(-1.2523717 0 0)
(-1.2540593 0 0)
(-0.063049775 0 0)
(-0.18261194 0 0)
(-0.29338901 0 0)
(-0.39489445 0 0)
(-0.48830733 0 0)
(-0.57438261 0 0)
(-0.65369952 0 0)
(-0.72666285 0 0)
(-0.79377202 0 0)
(-0.85541713 0 0)
(-0.91187577 0 0)
(-0.96338716 0 0)
(-1.0102712 0 0)
(-1.0527364 0 0)
(-1.0909399 0 0)
(-1.1250572 0 0)
(-1.1552377 0 0)
(-1.1815977 0 0)
(-1.2042386 0 0)
(-1.2232873 0 0)
(-1.2388958 0 0)
(-1.2512082 0 0)
(-1.2603599 0 0)
(-1.2665156 0 0)
(-1.2699326 0 0)
(-1.2709193 0 0)
(-1.2698918 0 0)
(-1.2674161 0 0)
(-1.2641945 0 0)
(-1.2611011 0 0)
(-1.2592265 0 0)
(-1.2599636 0 0)
(-0.062790051 0 0)
(-0.18175727 0 0)
(-0.29269052 0 0)
(-0.39515498 0 0)
(-0.48870213 0 0)
(-0.57492231 0 0)
(-0.65441154 0 0)
(-0.72758576 0 0)
(-0.79495044 0 0)
(-0.85689878 0 0)
(-0.91371288 0 0)
(-0.96562943 0 0)
(-1.0129821 0 0)
(-1.0559866 0 0)
(-1.0947972 0 0)
(-1.129597 0 0)
(-1.1605368 0 0)
(-1.1877276 0 0)
(-1.2112622 0 0)
(-1.2312464 0 0)
(-1.2478031 0 0)
(-1.261081 0 0)
(-1.2712022 0 0)
(-1.2782787 0 0)
(-1.282507 0 0)
(-1.2841153 0 0)
(-1.2834088 0 0)
(-1.2808285 0 0)
(-1.2769121 0 0)
(-1.2723935 0 0)
(-1.2681374 0 0)
(-1.2652307 0 0)
(-1.2650928 0 0)
(-0.062558556 0 0)
(-0.18097929 0 0)
(-0.29133828 0 0)
(-0.39426853 0 0)
(-0.48902337 0 0)
(-0.5753826 0 0)
(-0.65502518 0 0)
(-0.72838574 0 0)
(-0.7959767 0 0)
(-0.8581965 0 0)
(-0.91533096 0 0)
(-0.96761321 0 0)
(-1.0153895 0 0)
(-1.0588853 0 0)
(-1.0982519 0 0)
(-1.1336796 0 0)
(-1.1653244 0 0)
(-1.1932997 0 0)
(-1.2176868 0 0)
(-1.2385751 0 0)
(-1.2560762 0 0)
(-1.2703177 0 0)
(-1.2814214 0 0)
(-1.2894947 0 0)
(-1.2946529 0 0)
(-1.2970608 0 0)
(-1.2969741 0 0)
(-1.294695 0 0)
(-1.2906436 0 0)
(-1.2853899 0 0)
(-1.2796528 0 0)
(-1.2743112 0 0)
(-1.2704557 0 0)
(-1.2695067 0 0)
(-0.062357797 0 0)
(-0.18028635 0 0)
(-0.29010428 0 0)
(-0.39248142 0 0)
(-0.48797751 0 0)
(-0.57576067 0 0)
(-0.65554835 0 0)
(-0.72907418 0 0)
(-0.79686754 0 0)
(-0.85932874 0 0)
(-0.91674941 0 0)
(-0.96936082 0 0)
(-1.0175206 0 0)
(-1.0614636 0 0)
(-1.101336 0 0)
(-1.1373397 0 0)
(-1.1696359 0 0)
(-1.1983388 0 0)
(-1.223527 0 0)
(-1.2452868 0 0)
(-1.2637092 0 0)
(-1.2788972 0 0)
(-1.2909723 0 0)
(-1.3000462 0 0)
(-1.3062017 0 0)
(-1.3095457 0 0)
(-1.3102715 0 0)
(-1.3086011 0 0)
(-1.3048413 0 0)
(-1.2994327 0 0)
(-1.2929209 0 0)
(-1.2860559 0 0)
(-1.2797057 0 0)
(-1.2749611 0 0)
(-1.273266 0 0)
(-0.06218895 0 0)
(-0.17968581 0 0)
(-0.2890065 0 0)
(-0.39084982 0 0)
(-0.48581068 0 0)
(-0.57457135 0 0)
(-0.65597584 0 0)
(-0.72966311 0 0)
(-0.79763344 0 0)
(-0.86031049 0 0)
(-0.91798807 0 0)
(-0.97089482 0 0)
(-1.0193996 0 0)
(-1.0637469 0 0)
(-1.1040786 0 0)
(-1.1406076 0 0)
(-1.1735003 0 0)
(-1.2028782 0 0)
(-1.2288158 0 0)
(-1.2513912 0 0)
(-1.2706967 0 0)
(-1.2868178 0 0)
(-1.2998467 0 0)
(-1.3099066 0 0)
(-1.3170849 0 0)
(-1.3214524 0 0)
(-1.3231197 0 0)
(-1.3222509 0 0)
(-1.3190978 0 0)
(-1.3139612 0 0)
(-1.3072657 0 0)
(-1.2995867 0 0)
(-1.2916608 0 0)
(-1.2843696 0 0)
(-1.2788086 0 0)
(-1.2764237 0 0)
(-0.062053804 0 0)
(-0.17918087 0 0)
(-0.28805319 0 0)
(-0.38939862 0 0)
(-0.48383466 0 0)
(-0.57207365 0 0)
(-0.65466527 0 0)
(-0.73014304 0 0)
(-0.79828977 0 0)
(-0.86115792 0 0)
(-0.91906325 0 0)
(-0.97223455 0 0)
(-1.0210501 0 0)
(-1.0657641 0 0)
(-1.1065098 0 0)
(-1.1435156 0 0)
(-1.1769542 0 0)
(-1.2069514 0 0)
(-1.2335811 0 0)
(-1.2569235 0 0)
(-1.2770665 0 0)
(-1.2940812 0 0)
(-1.3080469 0 0)
(-1.319069 0 0)
(-1.3272486 0 0)
(-1.3326552 0 0)
(-1.3353451 0 0)
(-1.3354243 0 0)
(-1.3330835 0 0)
(-1.3285416 0 0)
(-1.3221092 0 0)
(-1.314226 0 0)
(-1.3054476 0 0)
(-1.2965399 0 0)
(-1.2883742 0 0)
(-1.2820495 0 0)
(-1.2790304 0 0)
(-0.061953225 0 0)
(-0.17877698 0 0)
(-0.28725247 0 0)
(-0.38813813 0 0)
(-0.48207479 0 0)
(-0.56979195 0 0)
(-0.65187891 0 0)
(-0.72873838 0 0)
(-0.79882455 0 0)
(-0.8618803 0 0)
(-0.91999171 0 0)
(-0.97339943 0 0)
(-1.0224936 0 0)
(-1.0675363 0 0)
(-1.1086559 0 0)
(-1.1460936 0 0)
(-1.1800273 0 0)
(-1.2105923 0 0)
(-1.2378613 0 0)
(-1.2619101 0 0)
(-1.2828345 0 0)
(-1.3007063 0 0)
(-1.3155803 0 0)
(-1.3275386 0 0)
(-1.336691 0 0)
(-1.343122 0 0)
(-1.3468675 0 0)
(-1.3479915 0 0)
(-1.3466017 0 0)
(-1.3428611 0 0)
(-1.3370204 0 0)
(-1.3293817 0 0)
(-1.3203719 0 0)
(-1.310574 0 0)
(-1.3007429 0 0)
(-1.2917613 0 0)
(-1.2847365 0 0)
(-1.2811329 0 0)
(-0.061888206 0 0)
(-0.17847614 0 0)
(-0.28661031 0 0)
(-0.3870795 0 0)
(-0.48054746 0 0)
(-0.56776185 0 0)
(-0.64933332 0 0)
(-0.72570954 0 0)
(-0.79734544 0 0)
(-0.86247388 0 0)
(-0.92078332 0 0)
(-0.97440356 0 0)
(-1.0237492 0 0)
(-1.0690901 0 0)
(-1.1105434 0 0)
(-1.1483701 0 0)
(-1.1827536 0 0)
(-1.2138359 0 0)
(-1.2416893 0 0)
(-1.2663918 0 0)
(-1.2880442 0 0)
(-1.3067138 0 0)
(-1.3224537 0 0)
(-1.3353241 0 0)
(-1.3454118 0 0)
(-1.3528292 0 0)
(-1.3576248 0 0)
(-1.35982 0 0)
(-1.3594726 0 0)
(-1.3566912 0 0)
(-1.3516607 0 0)
(-1.3446 0 0)
(-1.3358261 0 0)
(-1.3257758 0 0)
(-1.315017 0 0)
(-1.3043318 0 0)
(-1.2945925 0 0)
(-1.2869146 0 0)
(-1.2827731 0 0)
(-0.06185909 0 0)
(-0.17828156 0 0)
(-0.28613193 0 0)
(-0.38623036 0 0)
(-0.47926314 0 0)
(-0.56599744 0 0)
(-0.6470669 0 0)
(-0.72294399 0 0)
(-0.79411342 0 0)
(-0.86093686 0 0)
(-0.92143608 0 0)
(-0.97526541 0 0)
(-1.0248362 0 0)
(-1.0704412 0 0)
(-1.1121951 0 0)
(-1.1503732 0 0)
(-1.1851616 0 0)
(-1.2167134 0 0)
(-1.2451016 0 0)
(-1.2704008 0 0)
(-1.2927215 0 0)
(-1.3121397 0 0)
(-1.3286979 0 0)
(-1.3424403 0 0)
(-1.3534456 0 0)
(-1.3618184 0 0)
(-1.3676186 0 0)
(-1.3708734 0 0)
(-1.3716064 0 0)
(-1.3698866 0 0)
(-1.3658164 0 0)
(-1.3595562 0 0)
(-1.3513558 0 0)
(-1.3415238 0 0)
(-1.3304865 0 0)
(-1.3188374 0 0)
(-1.3073493 0 0)
(-1.2969038 0 0)
(-1.288628 0 0)
(-1.2839926 0 0)
(-0.17819386 0 0)
(-0.061857692 0 0)
(-0.28582099 0 0)
(-0.38559767 0 0)
(-0.47823322 0 0)
(-0.56451438 0 0)
(-0.64509701 0 0)
(-0.72047992 0 0)
(-0.79116284 0 0)
(-0.85754195 0 0)
(-0.91986247 0 0)
(-0.97597178 0 0)
(-1.0257654 0 0)
(-1.0716137 0 0)
(-1.1136341 0 0)
(-1.1521256 0 0)
(-1.1872801 0 0)
(-1.2192578 0 0)
(-1.2481318 0 0)
(-1.2739761 0 0)
(-1.296913 0 0)
(-1.3170179 0 0)
(-1.3343368 0 0)
(-1.3489119 0 0)
(-1.3607965 0 0)
(-1.3700728 0 0)
(-1.3768279 0 0)
(-1.3811162 0 0)
(-1.3829369 0 0)
(-1.3823117 0 0)
(-1.3793009 0 0)
(-1.3740098 0 0)
(-1.3666166 0 0)
(-1.3573432 0 0)
(-1.3465162 0 0)
(-1.3345669 0 0)
(-1.3220788 0 0)
(-1.3098486 0 0)
(-1.2987481 0 0)
(-1.2899163 0 0)
(-1.2848259 0 0)
(-0.28567951 0 0)
(-0.17818909 0 0)
(-0.061884137 0 0)
(-0.38518639 0 0)
(-0.47746525 0 0)
(-0.56332353 0 0)
(-0.64344015 0 0)
(-0.71833864 0 0)
(-0.78853262 0 0)
(-0.85443869 0 0)
(-0.91634145 0 0)
(-0.97438061 0 0)
(-1.0265362 0 0)
(-1.0726145 0 0)
(-1.1148768 0 0)
(-1.1536528 0 0)
(-1.1891354 0 0)
(-1.2214969 0 0)
(-1.2508118 0 0)
(-1.2771508 0 0)
(-1.3006478 0 0)
(-1.3213874 0 0)
(-1.3394135 0 0)
(-1.3547606 0 0)
(-1.3674796 0 0)
(-1.3776384 0 0)
(-1.3853192 0 0)
(-1.390589 0 0)
(-1.3934541 0 0)
(-1.3939225 0 0)
(-1.392015 0 0)
(-1.3878013 0 0)
(-1.3813778 0 0)
(-1.3729024 0 0)
(-1.3626277 0 0)
(-1.3508721 0 0)
(-1.338058 0 0)
(-1.3247934 0 0)
(-1.3118668 0 0)
(-1.3001575 0 0)
(-1.2908165 0 0)
(-1.2853097 0 0)
(-0.38499868 0 0)
(-0.28566887 0 0)
(-0.178267 0 0)
(-0.061946321 0 0)
(-0.47696506 0 0)
(-0.56243488 0 0)
(-0.64210953 0 0)
(-0.716537 0 0)
(-0.7862473 0 0)
(-0.85167491 0 0)
(-0.91312083 0 0)
(-0.97075525 0 0)
(-1.0249343 0 0)
(-1.0734466 0 0)
(-1.1159448 0 0)
(-1.154971 0 0)
(-1.1907505 0 0)
(-1.223459 0 0)
(-1.2531733 0 0)
(-1.2799605 0 0)
(-1.3039692 0 0)
(-1.3252867 0 0)
(-1.34396 0 0)
(-1.3600287 0 0)
(-1.3735352 0 0)
(-1.3845308 0 0)
(-1.3930866 0 0)
(-1.3992777 0 0)
(-1.4031397 0 0)
(-1.4046813 0 0)
(-1.4038903 0 0)
(-1.4007914 0 0)
(-1.3954434 0 0)
(-1.3879478 0 0)
(-1.3784757 0 0)
(-1.3672559 0 0)
(-1.3546276 0 0)
(-1.3410141 0 0)
(-1.3270185 0 0)
(-1.3134493 0 0)
(-1.3011762 0 0)
(-1.2913633 0 0)
(-1.2854724 0 0)
(-0.4767365 0 0)
(-0.38498412 0 0)
(-0.28578877 0 0)
(-0.17845182 0 0)
(-0.062044103 0 0)
(-0.56185539 0 0)
(-0.64111532 0 0)
(-0.71508993 0 0)
(-0.78432354 0 0)
(-0.84927114 0 0)
(-0.91025457 0 0)
(-0.9674459 0 0)
(-1.0212391 0 0)
(-1.0718463 0 0)
(-1.116827 0 0)
(-1.156105 0 0)
(-1.1921499 0 0)
(-1.225169 0 0)
(-1.2552426 0 0)
(-1.2824347 0 0)
(-1.3069062 0 0)
(-1.3287525 0 0)
(-1.3480216 0 0)
(-1.3647493 0 0)
(-1.3789822 0 0)
(-1.3907706 0 0)
(-1.4001661 0 0)
(-1.4072297 0 0)
(-1.4120377 0 0)
(-1.4146111 0 0)
(-1.4149072 0 0)
(-1.4129321 0 0)
(-1.4087071 0 0)
(-1.4023029 0 0)
(-1.3938111 0 0)
(-1.3833854 0 0)
(-1.3712843 0 0)
(-1.3578408 0 0)
(-1.3434699 0 0)
(-1.3287989 0 0)
(-1.3146283 0 0)
(-1.3018324 0 0)
(-1.2915872 0 0)
(-1.2853466 0 0)
(-0.56158798 0 0)
(-0.4767161 0 0)
(-0.38514164 0 0)
(-0.28607821 0 0)
(-0.17874251 0 0)
(-0.062176308 0 0)
(-0.64046637 0 0)
(-0.71400911 0 0)
(-0.78277835 0 0)
(-0.84724922 0 0)
(-0.90775974 0 0)
(-0.9644932 0 0)
(-1.0178594 0 0)
(-1.0680986 0 0)
(-1.1152419 0 0)
(-1.1570424 0 0)
(-1.1933475 0 0)
(-1.2266474 0 0)
(-1.2570477 0 0)
(-1.2846045 0 0)
(-1.3094959 0 0)
(-1.3318219 0 0)
(-1.3516316 0 0)
(-1.3689668 0 0)
(-1.3838747 0 0)
(-1.3963988 0 0)
(-1.4065844 0 0)
(-1.4144833 0 0)
(-1.4201707 0 0)
(-1.4236957 0 0)
(-1.4250378 0 0)
(-1.4241766 0 0)
(-1.4210981 0 0)
(-1.4158282 0 0)
(-1.4084261 0 0)
(-1.3989914 0 0)
(-1.3876865 0 0)
(-1.3747522 0 0)
(-1.3605423 0 0)
(-1.3454724 0 0)
(-1.3301671 0 0)
(-1.3154421 0 0)
(-1.3021628 0 0)
(-1.2915189 0 0)
(-1.2849556 0 0)
(-0.64016542 0 0)
(-0.56156223 0 0)
(-0.47690563 0 0)
(-0.38552364 0 0)
(-0.28653442 0 0)
(-0.17913603 0 0)
(-0.062342156 0 0)
(-0.71330263 0 0)
(-0.78162367 0 0)
(-0.8456242 0 0)
(-0.90566256 0 0)
(-0.961928 0 0)
(-1.0148484 0 0)
(-1.0646685 0 0)
(-1.1114566 0 0)
(-1.1554783 0 0)
(-1.1943491 0 0)
(-1.2279187 0 0)
(-1.2586078 0 0)
(-1.2864955 0 0)
(-1.3117662 0 0)
(-1.3345275 0 0)
(-1.3548316 0 0)
(-1.3727178 0 0)
(-1.3882394 0 0)
(-1.401445 0 0)
(-1.4123772 0 0)
(-1.421069 0 0)
(-1.4275807 0 0)
(-1.4319921 0 0)
(-1.4343282 0 0)
(-1.4345417 0 0)
(-1.4325849 0 0)
(-1.4284695 0 0)
(-1.4222098 0 0)
(-1.4138788 0 0)
(-1.403566 0 0)
(-1.3914194 0 0)
(-1.3777086 0 0)
(-1.3627828 0 0)
(-1.3470512 0 0)
(-1.3311613 0 0)
(-1.3159193 0 0)
(-1.3021931 0 0)
(-1.2911836 0 0)
(-1.2843278 0 0)
(-0.71297598 0 0)
(-0.64013423 0 0)
(-0.56177605 0 0)
(-0.47736486 0 0)
(-0.38612566 0 0)
(-0.28715434 0 0)
(-0.17962997 0 0)
(-0.062539778 0 0)
(-0.78086854 0 0)
(-0.84441057 0 0)
(-0.90397576 0 0)
(-0.95976681 0 0)
(-1.0122276 0 0)
(-1.0616131 0 0)
(-1.1079988 0 0)
(-1.1516756 0 0)
(-1.1928113 0 0)
(-1.2289745 0 0)
(-1.2599497 0 0)
(-1.2881344 0 0)
(-1.3137463 0 0)
(-1.3369022 0 0)
(-1.3576529 0 0)
(-1.3760425 0 0)
(-1.3921292 0 0)
(-1.4059595 0 0)
(-1.4175775 0 0)
(-1.4270141 0 0)
(-1.4343153 0 0)
(-1.4395458 0 0)
(-1.4427785 0 0)
(-1.4440033 0 0)
(-1.4431427 0 0)
(-1.4401752 0 0)
(-1.4350896 0 0)
(-1.4279102 0 0)
(-1.4186992 0 0)
(-1.4075561 0 0)
(-1.3946328 0 0)
(-1.3801866 0 0)
(-1.3645881 0 0)
(-1.3482474 0 0)
(-1.3318095 0 0)
(-1.3160917 0 0)
(-1.301953 0 0)
(-1.2906079 0 0)
(-1.2834836 0 0)
(-0.78051893 0 0)
(-0.71294034 0 0)
(-0.64037048 0 0)
(-0.56230398 0 0)
(-0.47809326 0 0)
(-0.38694451 0 0)
(-0.28793159 0 0)
(-0.18021902 0 0)
(-0.062767866 0 0)
(-0.84361717 0 0)
(-0.90271563 0 0)
(-0.95803161 0 0)
(-1.0100223 0 0)
(-1.0589519 0 0)
(-1.1049126 0 0)
(-1.1482038 0 0)
(-1.1890164 0 0)
(-1.2274822 0 0)
(-1.2610626 0 0)
(-1.2895389 0 0)
(-1.3154634 0 0)
(-1.3389748 0 0)
(-1.3601312 0 0)
(-1.3789762 0 0)
(-1.3955735 0 0)
(-1.4099745 0 0)
(-1.4222294 0 0)
(-1.4323608 0 0)
(-1.4404007 0 0)
(-1.4464123 0 0)
(-1.4504723 0 0)
(-1.4526153 0 0)
(-1.4528003 0 0)
(-1.4509515 0 0)
(-1.4470234 0 0)
(-1.4410274 0 0)
(-1.432975 0 0)
(-1.4229449 0 0)
(-1.4110269 0 0)
(-1.3973599 0 0)
(-1.3822292 0 0)
(-1.3660027 0 0)
(-1.3490864 0 0)
(-1.3321444 0 0)
(-1.3159842 0 0)
(-1.3014655 0 0)
(-1.289814 0 0)
(-1.2824481 0 0)
(-0.8432493 0 0)
(-0.78047908 0 0)
(-0.71319727 0 0)
(-0.64095718 0 0)
(-0.56313849 0 0)
(-0.47908143 0 0)
(-0.38797158 0 0)
(-0.28886124 0 0)
(-0.18089952 0 0)
(-0.063024063 0 0)
(-0.90189106 0 0)
(-0.95673379 0 0)
(-1.0082487 0 0)
(-1.0567129 0 0)
(-1.1022289 0 0)
(-1.1451033 0 0)
(-1.1855433 0 0)
(-1.223706 0 0)
(-1.2596188 0 0)
(-1.2907145 0 0)
(-1.3169342 0 0)
(-1.340769 0 0)
(-1.3622948 0 0)
(-1.381553 0 0)
(-1.3986175 0 0)
(-1.4135389 0 0)
(-1.4263724 0 0)
(-1.4371427 0 0)
(-1.4458809 0 0)
(-1.4526308 0 0)
(-1.4574578 0 0)
(-1.4604331 0 0)
(-1.4615653 0 0)
(-1.4607762 0 0)
(-1.457983 0 0)
(-1.4531691 0 0)
(-1.4463191 0 0)
(-1.4374555 0 0)
(-1.4266476 0 0)
(-1.4139977 0 0)
(-1.3996435 0 0)
(-1.3838639 0 0)
(-1.3670485 0 0)
(-1.3496037 0 0)
(-1.3321907 0 0)
(-1.3156235 0 0)
(-1.3007558 0 0)
(-1.2888252 0 0)
(-1.2812358 0 0)
(-0.90150701 0 0)
(-0.84320794 0 0)
(-0.78075157 0 0)
(-0.7138324 0 0)
(-0.64188706 0 0)
(-0.56427705 0 0)
(-0.48032473 0 0)
(-0.38920015 0 0)
(-0.28993396 0 0)
(-0.18166453 0 0)
(-0.063305168 0 0)
(-0.95588499 0 0)
(-1.0069229 0 0)
(-1.0549115 0 0)
(-1.0999676 0 0)
(-1.1424086 0 0)
(-1.1824495 0 0)
(-1.2202559 0 0)
(-1.2558782 0 0)
(-1.2893214 0 0)
(-1.3181706 0 0)
(-1.3423129 0 0)
(-1.3641683 0 0)
(-1.383804 0 0)
(-1.4012903 0 0)
(-1.4166831 0 0)
(-1.4300483 0 0)
(-1.4414083 0 0)
(-1.4507852 0 0)
(-1.458227 0 0)
(-1.4637877 0 0)
(-1.4675266 0 0)
(-1.4695051 0 0)
(-1.4696936 0 0)
(-1.4679966 0 0)
(-1.4643361 0 0)
(-1.4586759 0 0)
(-1.4510246 0 0)
(-1.441389 0 0)
(-1.4298572 0 0)
(-1.4165229 0 0)
(-1.4015112 0 0)
(-1.3851286 0 0)
(-1.3677644 0 0)
(-1.3498217 0 0)
(-1.3319759 0 0)
(-1.3150326 0 0)
(-1.299845 0 0)
(-1.2876576 0 0)
(-1.2798686 0 0)
(-0.95549113 0 0)
(-0.90146176 0 0)
(-0.84349209 0 0)
(-0.78142692 0 0)
(-0.71484327 0 0)
(-0.64315568 0 0)
(-0.56570509 0 0)
(-0.48180901 0 0)
(-0.39061819 0 0)
(-0.29114184 0 0)
(-0.18250472 0 0)
(-0.063532951 0 0)
(-1.0060554 0 0)
(-1.0535648 0 0)
(-1.0981513 0 0)
(-1.1401371 0 0)
(-1.1797537 0 0)
(-1.2171746 0 0)
(-1.2524612 0 0)
(-1.2856339 0 0)
(-1.3168378 0 0)
(-1.3436022 0 0)
(-1.3657817 0 0)
(-1.3857576 0 0)
(-1.4036271 0 0)
(-1.4194496 0 0)
(-1.4332961 0 0)
(-1.4451919 0 0)
(-1.4551628 0 0)
(-1.4632481 0 0)
(-1.4694914 0 0)
(-1.4739565 0 0)
(-1.4767145 0 0)
(-1.4777685 0 0)
(-1.4770621 0 0)
(-1.4745068 0 0)
(-1.4700198 0 0)
(-1.4635818 0 0)
(-1.4551749 0 0)
(-1.4448205 0 0)
(-1.4326 0 0)
(-1.4186204 0 0)
(-1.4030007 0 0)
(-1.3860475 0 0)
(-1.3681694 0 0)
(-1.3497702 0 0)
(-1.3315219 0 0)
(-1.3142327 0 0)
(-1.2987509 0 0)
(-1.2863316 0 0)
(-1.2782806 0 0)
(-1.0056516 0 0)
(-0.95544268 0 0)
(-0.90175243 0 0)
(-0.84420309 0 0)
(-0.78250418 0 0)
(-0.71621854 0 0)
(-0.64474845 0 0)
(-0.5674165 0 0)
(-0.48352542 0 0)
(-0.3922146 0 0)
(-0.29246634 0 0)
(-0.18297228 0 0)
(-0.063488183 0 0)
(-1.0526838 0 0)
(-1.0967932 0 0)
(-1.1383131 0 0)
(-1.1774869 0 0)
(-1.2144945 0 0)
(-1.2494056 0 0)
(-1.2822581 0 0)
(-1.3132153 0 0)
(-1.3423458 0 0)
(-1.3671261 0 0)
(-1.387433 0 0)
(-1.4056566 0 0)
(-1.4218672 0 0)
(-1.436152 0 0)
(-1.4485395 0 0)
(-1.4590485 0 0)
(-1.4677241 0 0)
(-1.4746139 0 0)
(-1.4797629 0 0)
(-1.4832279 0 0)
(-1.4850589 0 0)
(-1.4852511 0 0)
(-1.4837185 0 0)
(-1.4803679 0 0)
(-1.4751205 0 0)
(-1.4679361 0 0)
(-1.4588207 0 0)
(-1.4477809 0 0)
(-1.4349192 0 0)
(-1.4203356 0 0)
(-1.4041355 0 0)
(-1.386653 0 0)
(-1.3682969 0 0)
(-1.3494701 0 0)
(-1.3308513 0 0)
(-1.3132433 0 0)
(-1.2974933 0 0)
(-1.2847267 0 0)
(-1.2764367 0 0)
(-1.0522725 0 0)
(-1.0056018 0 0)
(-0.95574304 0 0)
(-0.90248776 0 0)
(-0.84533245 0 0)
(-0.78396911 0 0)
(-0.71794944 0 0)
(-0.64665632 0 0)
(-0.5693907 0 0)
(-0.48545633 0 0)
(-0.39396671 0 0)
(-0.2931374 0 0)
(-0.18284044 0 0)
(-0.063433702 0 0)
(-1.095906 0 0)
(-1.136949 0 0)
(-1.1756629 0 0)
(-1.2122357 0 0)
(-1.246749 0 0)
(-1.2792454 0 0)
(-1.3098952 0 0)
(-1.3387991 0 0)
(-1.3659487 0 0)
(-1.3888417 0 0)
(-1.4073963 0 0)
(-1.4239649 0 0)
(-1.4386501 0 0)
(-1.4514821 0 0)
(-1.4624862 0 0)
(-1.4717059 0 0)
(-1.479183 0 0)
(-1.4849673 0 0)
(-1.4891116 0 0)
(-1.4916672 0 0)
(-1.4926593 0 0)
(-1.4920364 0 0)
(-1.4897218 0 0)
(-1.4856205 0 0)
(-1.4796456 0 0)
(-1.4717739 0 0)
(-1.4619879 0 0)
(-1.4503095 0 0)
(-1.4368374 0 0)
(-1.4216852 0 0)
(-1.4049479 0 0)
(-1.3869659 0 0)
(-1.3681656 0 0)
(-1.3489445 0 0)
(-1.3299832 0 0)
(-1.3120812 0 0)
(-1.2958614 0 0)
(-1.2828323 0 0)
(-1.2743805 0 0)
(-1.0954952 0 0)
(-1.0522212 0 0)
(-1.0059038 0 0)
(-0.95649618 0 0)
(-0.90365855 0 0)
(-0.8468748 0 0)
(-0.78581465 0 0)
(-0.72001844 0 0)
(-0.64885971 0 0)
(-0.57161676 0 0)
(-0.4875765 0 0)
(-0.39481685 0 0)
(-0.29291841 0 0)
(-0.18268047 0 0)
(-0.06337072 0 0)
(-1.1360582 0 0)
(-1.1743025 0 0)
(-1.210422 0 0)
(-1.2445075 0 0)
(-1.2766198 0 0)
(-1.306935 0 0)
(-1.3355552 0 0)
(-1.3624928 0 0)
(-1.3877395 0 0)
(-1.4088652 0 0)
(-1.4257743 0 0)
(-1.4408217 0 0)
(-1.4540592 0 0)
(-1.4655109 0 0)
(-1.4752239 0 0)
(-1.4832473 0 0)
(-1.4896262 0 0)
(-1.4944013 0 0)
(-1.4976203 0 0)
(-1.4993299 0 0)
(-1.4995239 0 0)
(-1.4981504 0 0)
(-1.4951138 0 0)
(-1.4903168 0 0)
(-1.4836699 0 0)
(-1.4751351 0 0)
(-1.4647201 0 0)
(-1.4524315 0 0)
(-1.4383913 0 0)
(-1.4227062 0 0)
(-1.4054586 0 0)
(-1.387014 0 0)
(-1.3678002 0 0)
(-1.3482133 0 0)
(-1.3289356 0 0)
(-1.3104241 0 0)
(-1.2938658 0 0)
(-1.2807314 0 0)
(-1.272115 0 0)
(-1.1356468 0 0)
(-1.0954446 0 0)
(-1.0525249 0 0)
(-1.0066725 0 0)
(-0.95770203 0 0)
(-0.90525967 0 0)
(-0.84881194 0 0)
(-0.78801924 0 0)
(-0.72241035 0 0)
(-0.65134188 0 0)
(-0.57405707 0 0)
(-0.48857785 0 0)
(-0.39452349 0 0)
(-0.29265634 0 0)
(-0.18249652 0 0)
(-0.063297545 0 0)
(-1.1734139 0 0)
(-1.2090668 0 0)
(-1.2427088 0 0)
(-1.2744094 0 0)
(-1.3043514 0 0)
(-1.3326533 0 0)
(-1.3593339 0 0)
(-1.3843891 0 0)
(-1.4078436 0 0)
(-1.4272914 0 0)
(-1.442688 0 0)
(-1.4562989 0 0)
(-1.4681595 0 0)
(-1.478325 0 0)
(-1.4868409 0 0)
(-1.4937583 0 0)
(-1.4991256 0 0)
(-1.5029753 0 0)
(-1.5053415 0 0)
(-1.506271 0 0)
(-1.5057454 0 0)
(-1.5036643 0 0)
(-1.4999453 0 0)
(-1.4944878 0 0)
(-1.487198 0 0)
(-1.4780523 0 0)
(-1.4670394 0 0)
(-1.4541816 0 0)
(-1.4396002 0 0)
(-1.4234146 0 0)
(-1.4056939 0 0)
(-1.3868165 0 0)
(-1.3672204 0 0)
(-1.3472935 0 0)
(-1.3272526 0 0)
(-1.3082966 0 0)
(-1.2916761 0 0)
(-1.2784247 0 0)
(-1.2696344 0 0)
(-1.1730053 0 0)
(-1.1355956 0 0)
(-1.0957555 0 0)
(-1.0533046 0 0)
(-1.0078977 0 0)
(-0.95934398 0 0)
(-0.9072722 0 0)
(-0.85113309 0 0)
(-0.79056943 0 0)
(-0.72510301 0 0)
(-0.65406517 0 0)
(-0.57519088 0 0)
(-0.48821282 0 0)
(-0.39417026 0 0)
(-0.29235497 0 0)
(-0.18228398 0 0)
(-0.063213759 0 0)
(-1.2081838 0 0)
(-1.2413632 0 0)
(-1.2726315 0 0)
(-1.3021788 0 0)
(-1.3301264 0 0)
(-1.3565019 0 0)
(-1.3813165 0 0)
(-1.4046023 0 0)
(-1.4263685 0 0)
(-1.4442645 0 0)
(-1.4582232 0 0)
(-1.4704601 0 0)
(-1.4810381 0 0)
(-1.4900074 0 0)
(-1.4974233 0 0)
(-1.5033306 0 0)
(-1.5077602 0 0)
(-1.5107457 0 0)
(-1.5123389 0 0)
(-1.5125564 0 0)
(-1.5113384 0 0)
(-1.5086055 0 0)
(-1.5042527 0 0)
(-1.4981802 0 0)
(-1.4902933 0 0)
(-1.4805561 0 0)
(-1.4689824 0 0)
(-1.4555807 0 0)
(-1.440495 0 0)
(-1.4238387 0 0)
(-1.4056732 0 0)
(-1.3863933 0 0)
(-1.3664421 0 0)
(-1.3455908 0 0)
(-1.3249776 0 0)
(-1.3059956 0 0)
(-1.2892927 0 0)
(-1.2759076 0 0)
(-1.2669424 0 0)
(-1.2077783 0 0)
(-1.1729574 0 0)
(-1.1359081 0 0)
(-1.0965418 0 0)
(-1.0545466 0 0)
(-1.0095744 0 0)
(-0.96141486 0 0)
(-0.90968425 0 0)
(-0.85381263 0 0)
(-0.79343891 0 0)
(-0.72805773 0 0)
(-0.65531342 0 0)
(-0.57476085 0 0)
(-0.48777457 0 0)
(-0.39376405 0 0)
(-0.29201035 0 0)
(-0.18204127 0 0)
(-0.063117176 0 0)
(-1.2404875 0 0)
(-1.2713061 0 0)
(-1.3004294 0 0)
(-1.3279952 0 0)
(-1.3540381 0 0)
(-1.3785679 0 0)
(-1.4016234 0 0)
(-1.4232362 0 0)
(-1.4434293 0 0)
(-1.4598519 0 0)
(-1.4724431 0 0)
(-1.483397 0 0)
(-1.4927793 0 0)
(-1.5006432 0 0)
(-1.5070473 0 0)
(-1.5120231 0 0)
(-1.515588 0 0)
(-1.517784 0 0)
(-1.5186667 0 0)
(-1.5182286 0 0)
(-1.5163861 0 0)
(-1.5130317 0 0)
(-1.5080797 0 0)
(-1.5014206 0 0)
(-1.4929605 0 0)
(-1.4826763 0 0)
(-1.4705685 0 0)
(-1.4566585 0 0)
(-1.4410927 0 0)
(-1.4239948 0 0)
(-1.4054154 0 0)
(-1.3857656 0 0)
(-1.3647302 0 0)
(-1.3431632 0 0)
(-1.3225504 0 0)
(-1.3035136 0 0)
(-1.2867102 0 0)
(-1.2731821 0 0)
(-1.2640328 0 0)
(-1.2400847 0 0)
(-1.2077305 0 0)
(-1.1732689 0 0)
(-1.1366974 0 0)
(-1.0978009 0 0)
(-1.0562493 0 0)
(-1.0116823 0 0)
(-0.96388945 0 0)
(-0.9124688 0 0)
(-0.8568314 0 0)
(-0.79658915 0 0)
(-0.72939267 0 0)
(-0.65482813 0 0)
(-0.57424743 0 0)
(-0.48727145 0 0)
(-0.39329782 0 0)
(-0.29161766 0 0)
(-0.18176373 0 0)
(-0.063007367 0 0)
(-1.2704418 0 0)
(-1.2991259 0 0)
(-1.3262841 0 0)
(-1.3519566 0 0)
(-1.3761695 0 0)
(-1.3989634 0 0)
(-1.4203705 0 0)
(-1.4404286 0 0)