/*--------------------------------*- C++ -*----------------------------------*\
| =========                 |                                                 |
| \\      /  F ield         | OpenFOAM: The Open Source CFD Toolbox           |
|  \\    /   O peration     | Version:  v2012                                 |
|   \\  /    A nd           | Website:  www.openfoam.com                      |
|    \\/     M anipulation  |                                                 |
\*---------------------------------------------------------------------------*/
FoamFile
{
    version     2.0;
    format      ascii;
    class       surfaceScalarField;
    location    "39.8012744659894295";
    object      meshPhi;
}
// * * * * * * * * * * * * * * * * * * * * * * * * * * * * * * * * * * * * * //

dimensions      [0 3 -1 0 0 0 0];
oriented        oriented;


internalField   nonuniform List<scalar> 
18180
(
5.5270809e-14
-0.025828979
0
-0.023981211
0
-0.049375641
5.532938e-14
-0.022437747
0
-0.045943614
0
-0.071663766
0
-0.021147183
0
-0.042747267
0
-0.066554497
4.9089758e-14
-0.092841892
1.1696886e-17
-0.02005391
0
-0.040078259
1.9325207e-17
-0.06191455
0
-0.086467341
0
-0.11296047
-2.772856e-14
-0.019079459
-2.6622103e-14
-0.037818932
0
-0.057749645
4.9123862e-14
-0.080355711
0
-0.105316
0
-0.13190734
-2.7738447e-14
-0.018141956
-2.6651045e-14
-0.03576793
9.3592891e-18
-0.054081226
0
-0.074746972
0
-0.09793414
0
-0.12295504
0
-0.14949361
0
-0.017224095
0
-0.033850163
0
-0.05083249
2.4587856e-14
-0.0697148
-2.3615256e-14
-0.090941088
0
-0.11428577
0
-0.13940635
0
-0.16593319
0
-0.016322425
-1.0481856e-17
-0.032002399
-5.123336e-14
-0.047822693
-2.460223e-14
-0.065188803
2.3627585e-14
-0.084563294
2.2694993e-14
-0.10602126
-4.358966e-14
-0.12956574
0
-0.15473277
0
-0.18107612
0
-0.015441168
0
-0.03021435
-2.5628063e-14
-0.044976502
0
-0.061074178
0
-0.078881488
0
-0.098477893
2.1812144e-14
-0.12022103
0
-0.14395723
0
-0.16899601
0
-0.19509609
0
-0.014584451
0
-0.028486399
2.5652482e-14
-0.042254842
0
-0.057250057
2.3653959e-14
-0.07377632
0
-0.091801664
2.1822872e-14
-0.11174332
-4.1923355e-14
-0.13377062
4.0287773e-14
-0.15740102
0
-0.18214067
3.7209772e-14
-0.20792884
2.7845102e-14
-0.013755367
0
-0.026825191
0
-0.039646844
0
-0.053640228
2.3658788e-14
-0.069081252
-2.2722875e-14
-0.085821922
-7.6253634e-18
-0.10416486
-4.1943789e-14
-0.12445226
-2.015292e-14
-0.14648958
0
-0.16983847
0
-0.19425426
0
-0.21975241
0
-0.012955952
0
-0.025234321
0
-0.037151608
-2.4649519e-14
-0.050212655
-2.3671564e-14
-0.06468869
-2.2735188e-14
-0.080338777
7.6542675e-18
-0.097374306
0
-0.11611798
2.0169802e-14
-0.13649696
0
-0.15828102
3.7233979e-14
-0.18129701
0
-0.20537319
-3.4389739e-14
-0.23054047
0
-0.012185467
1.3376504e-14
-0.023715521
0
-0.034773359
0
-0.046954286
0
-0.060544338
0
-0.075226286
7.6677982e-18
-0.091171423
0
-0.10859054
2.0166206e-14
-0.12742177
1.9383063e-14
-0.14761832
0
-0.16913751
3.5799253e-14
-0.19184989
0
-0.21558255
0
-0.24042297
1.3942841e-14
-0.011443937
-1.3382367e-14
-0.022268802
0
-0.032515674
0
-0.043863087
0
-0.056628218
0
-0.070408576
-2.1868853e-14
-0.085375047
0
-0.10166954
6.9934863e-18
-0.11915708
-1.9393118e-14
-0.13785996
5.9654435e-18
-0.15788856
0
-0.17918257
-3.4412587e-14
-0.20156156
0
-0.22491725
8.0036538e-18
-0.24941892
0
-0.010731939
1.3393029e-14
-0.02089403
4.2599993e-18
-0.030381268
0
-0.040941393
0
-0.052931395
0
-0.065859292
2.1879729e-14
-0.079912897
0
-0.095231214
0
-0.11157978
0
-0.12891653
0
-0.14750831
0
-0.167435
0
-0.18846712
0
-0.21049236
0
-0.23347014
3.0594544e-14
-0.25764907
-1.3946699e-14
-0.010050138
0
-0.019589697
-1.2857965e-14
-0.028371254
-1.2346794e-14
-0.038190077
1.1857816e-14
-0.049450647
0
-0.061565875
0
-0.074748164
0
-0.089176998
0
-0.10454822
0
-0.12069256
1.8654953e-14
-0.13790471
0
-0.1565078
-1.722369e-14
-0.1763062
1.6554186e-14
-0.19705307
8.4102222e-18
-0.21869121
0
-0.24127896
2.9426668e-14
-0.26512283
-6.5000251e-18
-0.0093993571
5.3774073e-18
-0.018353302
0
-0.026485974
-1.2351197e-14
-0.035609548
0
-0.046182721
1.1394409e-14
-0.05752279
0
-0.06986608
0
-0.083457673
0
-0.097954217
0
-0.1130852
0
-0.1290474
0
-0.14633614
1.7233295e-14
-0.16498119
1.656805e-14
-0.18459084
-1.5929129e-14
-0.20497717
0
-0.2262266
0
-0.24840888
0
-0.27190981
0
-0.008780131
0
-0.017182708
4.096961e-18
-0.024723697
-1.235923e-14
-0.033197096
0
-0.043121263
1.1402691e-14
-0.053724447
0
-0.065258335
0
-0.07805098
0
-0.091736826
-1.9427339e-14
-0.1059886
0
-0.12089619
0
-0.13693072
-1.7243046e-14
-0.15437934
0
-0.17297435
0
-0.19229455
-1.5312012e-14
-0.21230939
2.944796e-14
-0.23312755
0
-0.25488712
-2.7223349e-14
-0.27804901
1.3964811e-14
-0.008193304
0
-0.016074644
-4.0613558e-18
-0.023079759
4.010565e-18
-0.030948215
0
-0.040257317
0
-0.050161264
0
-0.060918585
-1.0528887e-14
-0.072945148
0
-0.085860393
0
-0.099313148
0
-0.11332278
0
-0.12823143
1.7258013e-14
-0.14448415
5.1358876e-18
-0.16205279
0
-0.18046905
4.2467037e-18
-0.19946759
0
-0.21906951
2.8326286e-14
-0.23945055
0
-0.26077642
4.9331822e-18
-0.28361024
1.3961353e-14
-0.0076390852
1.3412529e-14
-0.0150277
0
-0.021548233
-3.9802366e-18
-0.028855726
0
-0.037580455
0
-0.046823181
-1.0962086e-14
-0.056839942
0
-0.068132226
-1.0121205e-14
-0.080309424
0
-0.093003687
0
-0.1062152
-1.7960362e-14
-0.12017753
0
-0.13533142
0
-0.15184316
0
-0.16936116
-4.4618343e-18
-0.18751023
-1.4736473e-14
-0.20612166
0
-0.22530368
-2.7243212e-14
-0.24520984
0
-0.26610954
2.5202047e-14
-0.28861745
0
-0.0071180835
0
-0.014041905
-1.2875749e-14
-0.020122403
0
-0.026911929
0
-0.035080918
3.9503317e-18
-0.043699386
-1.0961751e-14
-0.053013848
3.8307181e-18
-0.063604345
0
-0.075073672
-9.7302208e-15
-0.087035637
0
-0.099508652
0
-0.11266581
1.7276605e-14
-0.12685077
0
-0.14233108
0
-0.15893252
-1.533916e-14
-0.17626569
0
-0.19407816
-1.4175576e-14
-0.21230504
0
-0.2310249
2.621489e-14
-0.25047128
0
-0.27092969
2.4248286e-14
-0.29310707
-3.2006442e-18
-0.0066299753
0
-0.013116734
0
-0.018796395
0
-0.025107805
0
-0.032746561
-3.9332643e-18
-0.040779393
-1.0964854e-14
-0.049430717
-1.0539819e-14
-0.059352961
-1.012499e-14
-0.070144172
9.7340481e-15
-0.081396678
0
-0.093159086
0
-0.10558555
0
-0.1189217
0
-0.13344262
0
-0.14918641
0
-0.16574666
1.4759105e-14
-0.1827712
1.4184425e-14
-0.20022692
1.3640393e-14
-0.21802549
0
-0.2362885
0
-0.25524343
0
-0.27526486
-2.3328475e-14
-0.29712234
0
-0.0061740397
-6.7098994e-15
-0.012249862
0
-0.017563187
0
-0.023432797
0
-0.030566226
-1.1414936e-14
-0.038050608
-3.6472278e-18
-0.046081248
1.0542822e-14
-0.055369157
1.0131983e-14
-0.065512219
9.7375678e-15
-0.076078291
-9.355951e-15
-0.087150711
-8.9956987e-15
-0.098886678
0
-0.11147291
0
-0.1251651
1.5980527e-14
-0.14009123
0
-0.15590891
0
-0.17219321
0
-0.18888182
1.3645651e-14
-0.20595111
3.1798767e-18
-0.22332427
1.261515e-14
-0.24110888
4.5645216e-18
-0.25958228
0
-0.279154
-2.2448568e-14
-0.30070281
0
-0.0057489969
6.7135636e-15
-0.011438764
-6.4432455e-15
-0.01641569
0
-0.021876625
0
-0.028528708
1.1421148e-14
-0.035501383
0
-0.04295568
0
-0.051642816
1.0134968e-14
-0.061166725
-9.7374215e-15
-0.071072175
-9.3593876e-15
-0.081474694
-8.9965309e-15
-0.092544737
8.6480864e-15
-0.10444364
0
-0.11740868
0
-0.13153435
5.3760263e-18
-0.14662982
0
-0.162286
1.4206995e-14
-0.17825238
1.365849e-14
-0.19460033
0
-0.21128727
-1.2622939e-14
-0.22821044
0
-0.24552424
2.3350617e-14
-0.26348545
0
-0.28262931
0
-0.30387791
-3.1604193e-18
-0.0053532799
6.7089296e-15
-0.010681244
0
-0.01534702
-6.1887522e-15
-0.020429161
-1.1885639e-14
-0.026624159
0
-0.033120818
0
-0.040042392
0
-0.048161648
-1.0137669e-14
-0.057096345
0
-0.066368319
-9.3625323e-15
-0.076123761
9.0027924e-15
-0.086549941
2.7845186e-18
-0.097787704
0
-0.11007889
0
-0.12348158
0
-0.13786449
1.4786504e-14
-0.15288907
0
-0.16825345
0
-0.18394933
0
-0.19996673
0
-0.21623993
0
-0.2327231
0
-0.24954216
-2.2466125e-14
-0.26701457
0
-0.28571929
0
-0.30666928
3.1475034e-18
-0.0049851555
-6.7123801e-15
-0.0099744416
-6.4428635e-15
-0.014351161
0
-0.019081766
-4.2584154e-18
-0.024844559
0
-0.030898776
0
-0.037330375
0
-0.044913445
0
-0.053288054
0
-0.061956179
0
-0.071090766
9.0030081e-15
-0.080896061
2.803348e-18
-0.091489682
-8.3236807e-15
-0.10314307
-8.0025882e-15
-0.11589538
1.5382344e-14
-0.12957717
0
-0.14391977
1.4224799e-14
-0.15871893
0
-0.17389597
-1.3145813e-14
-0.1893269
0
-0.20498336
0
-0.22084447
-1.1687234e-14
-0.23686808
0
-0.25320541
2.1623568e-14
-0.27017025
0
-0.28845347
0
-0.30911576
0
-0.0046428312
6.7130055e-15
-0.0093151576
6.4435333e-15
-0.013422686
6.1902226e-15
-0.017826775
-5.9443817e-15
-0.023182776
5.7113528e-15
-0.028826296
0
-0.034808466
0
-0.041886263
0
-0.049729509
0
-0.057824954
-3.0486392e-18
-0.066366842
0
-0.075576333
0
-0.085542214
2.8944243e-18
-0.096572314
2.9797286e-18
-0.10871071
-7.6978906e-15
-0.12173586
0
-0.13539491
0
-0.14958049
0
-0.1642555
-1.3158612e-14
-0.1792539
0
-0.19441099
1.2165507e-14
-0.20967754
-1.1697945e-14
-0.22510021
2.3142338e-18
-0.24067538
1.0816322e-14
-0.2565289
0
-0.27300341
0
-0.29085621
0
-0.31124072
0
-0.004324278
0
-0.0087002391
-6.4441163e-15
-0.012555819
-1.9092487e-18
-0.016657417
2.0965355e-18
-0.021632105
-1.1424091e-14
-0.026894273
-1.7562384e-18
-0.032464144
0
-0.039067526
0
-0.046406937
0
-0.053962691
0
-0.061941611
0
-0.070583009
-8.6610008e-15
-0.079939736
8.3301701e-15
-0.090357485
1.6019251e-14
-0.10190373
7.7015231e-15
-0.11431933
-2.8065125e-18
-0.12733047
-1.4240939e-14
-0.14087618
0
-0.15501072
2.6334348e-14
-0.16960521
0
-0.18439863
0
-0.19919289
1.1706425e-14
-0.2140427
0
-0.22902773
1.0827636e-14
-0.24415881
0
-0.2595416
-2.0025792e-14
-0.27550832
0
-0.29295811
-1.8537205e-14
-0.31307679
6.9874852e-15
-0.004026904
0
-0.008125989
0
-0.01174678
1.9017361e-18
-0.015567643
-5.947651e-15
-0.020185983
-5.7126461e-15
-0.025094266
-1.0980739e-14
-0.030284933
-1.9246644e-18
-0.036444323
0
-0.043306993
0
-0.05035549
3.0344298e-18
-0.057803202
0
-0.065905837
-8.6663929e-15
-0.074675135
0
-0.084492729
0
-0.095458249
3.0934295e-18
-0.10729634
2.8909508e-18
-0.11970551
7.1215575e-15
-0.13263423
-1.3701247e-14
-0.14621324
0
-0.16034775
4.3184963e-18
-0.1747719
0
-0.18926161
-1.1711645e-14
-0.20368581
0
-0.21809183
0
-0.23264178
1.0418478e-14
-0.24734523
-1.0020362e-14
-0.26225341
-1.9274655e-14
-0.2777388
1.8545299e-14
-0.29478669
1.7844775e-14
-0.31464026
-1.8382773e-05
-0.0043990561
0
-0.0075865243
6.4450408e-15
-0.010991674
0
-0.014552064
2.0612383e-18
-0.018839313
-1.9108348e-18
-0.023418022
5.4900763e-15
-0.028259704
5.2783106e-15
-0.03400406
5.0699104e-15
-0.040415743
0
-0.046989253
0
-0.053938689
0
-0.06153257
0
-0.06973898
8.3325957e-15
-0.078970783
8.0155858e-15
-0.089365417
0
-0.10064257
7.412235e-15
-0.11248179
-7.1250174e-15
-0.1248252
0
-0.13782903
0
-0.15149238
0
-0.16553095
0
-0.1797085
-1.1723391e-14
-0.19387854
-1.1273681e-14
-0.20787313
0
-0.2218372
-1.0426098e-14
-0.23596249
1.7791996e-18
-0.25024694
-1.4269088e-18
-0.26469579
1.8554717e-14
-0.27970092
0
-0.29637031
1.7177459e-14
-0.31596857
-3.081221e-05
-0.0043724653
-5.1244507e-05
-0.0082416711
0
-0.010282033
0
-0.013605885
-5.9485043e-15
-0.01758573
0
-0.021857974
-1.751548e-18
-0.026377792
5.2788925e-15
-0.031734397
0
-0.037719725
4.8763943e-15
-0.04385002
-9.3790315e-15
-0.0503336
0
-0.057448998
-8.6679614e-15
-0.065119394
8.3349069e-15
-0.07378304
8.0149313e-15
-0.083616104
0
-0.094342429
0
-0.10562941
2.8268497e-18
-0.11741037
0
-0.12985191
0
-0.14302352
0
-0.15666986
0
-0.17050175
1.1731508e-14
-0.18440836
0
-0.19821073
0
-0.2117823
2.4089123e-18
-0.22529041
0
-0.23900205
9.6512075e-15
-0.25288188
-9.2818378e-15
-0.26688795
1.7860207e-14
-0.28143836
0
-0.2977379
0
-0.31707717
-3.7995938e-05
-0.0043465833
-8.6039327e-05
-0.0082348788
-7.625607e-05
-0.01110479
0
-0.012719935
0
-0.016419142
0
-0.020406904
-1.098202e-14
-0.024628729
-1.9191379e-18
-0.029623515
0
-0.035207494
0
-0.040924183
4.6887543e-15
-0.046973965
0
-0.053639617
0
-0.06080158
8.3400032e-15
-0.068918347
-8.0172198e-15
-0.078201106
7.7101425e-15
-0.08838501
0
-0.099127256
-7.1341519e-15
-0.11036171
6.8610127e-15
-0.12226678
2.7104823e-18
-0.134903
0
-0.14809843
0
-0.16160855
0
-0.17524013
-1.1286121e-14
-0.18886237
0
-0.20228639
1.0439271e-14
-0.21539286
1.0042395e-14
-0.22846337
0
-0.24176959
9.2896665e-15
-0.25527089
0
-0.26885236
-1.7190705e-14
-0.2829642
0
-0.29891688
1.5918646e-14
-0.31799691
-4.064816e-05
-0.0043223761
-0.00010628442
-0.008226339
-0.00012827822
-0.011144954
-9.4720619e-05
-0.013626083
5.9487867e-15
-0.015329281
0
-0.019057371
0
-0.023003152
-5.2759996e-15
-0.02766163
0
-0.032867698
0
-0.038198395
4.690931e-15
-0.043845335
4.5088512e-15
-0.050087501
0
-0.056769785
0
-0.064363462
8.0226219e-15
-0.073109933
0
-0.082759353
-7.4207978e-15
-0.092964162
0
-0.10365404
0
-0.11503137
6.6015984e-15
-0.12713178
-6.3465536e-15
-0.13980382
0
-0.15292376
0
-0.16632129
0
-0.17975912
-1.0861897e-14
-0.19306265
0
-0.20606915
0
-0.2187362
2.0292479e-18
-0.23136034
-9.2966946e-15
-0.24429013
-8.9407204e-15
-0.257431
-8.6016404e-15
-0.27061007
0
-0.2843237
0
-0.29993431
-1.5324431e-14
-0.31873835
-3.94661e-05
-0.0043000706
-0.0001138964
-0.0082184848
-0.00015877479
-0.011178359
-0.00015943362
-0.013701796
-0.00011119394
-0.016276922
0
-0.017794933
0
-0.021491902
0
-0.025837262
1.9141982e-18
-0.030690224
-4.8798503e-15
-0.035659506
4.6900073e-15
-0.040931919
-4.511025e-15
-0.046775723
-4.3379245e-15
-0.053005794
0
-0.060102349
0
-0.068330622
0
-0.077455366
0
-0.087130551
7.1365464e-15
-0.097275205
6.8668244e-15
-0.10813088
0
-0.11971744
2.6963047e-18
-0.1318397
-6.1071649e-15
-0.14444755
-5.8764771e-15
-0.1575564
0
-0.17087828
0
-0.18405392
0
-0.19699704
0
-0.20959082
0
-0.221798
-9.3021348e-15
-0.23400716
-8.9488877e-15
-0.24657374
1.2086943e-18
-0.25938181
8.2803852e-15
-0.27218691
1.5932675e-14
-0.28553039
0
-0.30080989
0
-0.31932564
-3.5149406e-05
-0.0042799265
-0.00011076728
-0.0082112969
-0.00017045919
-0.011208753
-0.00019742809
-0.013765727
-0.00018698882
-0.016384568
-0.00012652121
-0.018764251
5.493417e-15
-0.020080395
0
-0.024139224
0
-0.028663024
4.8803051e-15
-0.033294648
-1.5145089e-18
-0.03821821
-4.5100832e-15
-0.043687592
-8.6757787e-15
-0.049492224
-1.5042755e-18
-0.056118403
0
-0.063849452
0
-0.072462032
7.4253052e-15
-0.08161786
0
-0.091219399
6.8663864e-15
-0.10155162
0
-0.11264157
6.3551952e-15
-0.12423549
0
-0.13627387
0
-0.14894224
0
-0.16209802
0
-0.17523679
0
-0.18810183
0
-0.2006663
0
-0.21283899
0
-0.2246176
0
-0.23640905
8.6130866e-15
-0.24864255
-8.2841881e-15
-0.26113381
-7.9705848e-15
-0.27360499
0
-0.28661277
-1.4759639e-14
-0.30155648
1.4205226e-14
-0.31976599
-2.8376536e-05
-0.0042621513
-9.8808023e-05
-0.0082047639
-0.00016608477
-0.011235934
-0.0002120581
-0.013822929
-0.00023137331
-0.01647677
-0.00021268845
-0.018940302
-0.00013957998
-0.021040847
0
-0.022552672
0
-0.026774916
0
-0.031092583
4.6924918e-15
-0.035690407
-1.5349473e-18
-0.040807169
-4.3377881e-15
-0.046211611
4.173195e-15
-0.052395597
4.0121297e-15
-0.059651874
0
-0.067768523
0
-0.076418078
0
-0.085480383
0
-0.095288237
-6.6098642e-15
-0.1058903
0
-0.11698138
0
-0.12845072
-1.1759938e-14
-0.14054513
5.6584973e-15
-0.15340036
0
-0.1665249
0
-0.17938504
0
-0.19189215
9.6883023e-15
-0.20408069
0
-0.21584205
0
-0.22718188
0
-0.23858955
0
-0.25049793
7.9781979e-15
-0.26271142
7.6735227e-15
-0.27487787
0
-0.28757534
0
-0.30219068
-1.3676715e-14
-0.3200751
-1.9822705e-05
-0.0042468854
-7.9881371e-05
-0.0081985676
-0.00014838815
-0.011259391
-0.00020670657
-0.013873205
-0.00024834863
-0.016558728
-0.00026309603
-0.019093274
-0.00023479329
-0.021302196
-0.00015153858
-0.023468782
0
-0.025008193
0
-0.029042115
0
-0.033336496
4.512582e-15
-0.038119839
-1.3797587e-18
-0.043148966
0
-0.048917899
-4.0127791e-15
-0.055723014
-3.8615485e-15
-0.063361868
0
-0.071521588
0
-0.080053578
0
-0.089336951
6.6121732e-15
-0.099455064
0
-0.11005946
6.1181032e-15
-0.12098422
-1.176776e-14
-0.1324803
0
-0.14487
5.4461188e-15
-0.15784045
0
-0.17074064
0
-0.18327226
0
-0.19543255
-1.8648893e-14
-0.20723651
0
-0.21859378
0
-0.22952699
-8.2981057e-15
-0.24054857
0
-0.2521694
7.6798792e-15
-0.26412417
0
-0.2760216
0
-0.28844339
0
-0.30271563
0
-0.32025821
-1.0145822e-05
-0.0042342221
-5.5869691e-05
-0.0081924428
-0.00012014633
-0.011278543
-0.0001847633
-0.013915966
-0.00024193075
-0.016630353
-0.00028234043
-0.019229926
-0.00029060201
-0.021533256
-0.00025499345
-0.023810621
-0.00016291741
-0.025841535
-4.8810572e-15
-0.0271201
0
-0.031144297
0
-0.035612928
4.3401521e-15
-0.040287808
-1.4889205e-18
-0.045670569
0
-0.052049015
-3.8622192e-15
-0.059228585
3.7135248e-15
-0.066917907
0
-0.074932119
6.8725664e-15
-0.083694901
0
-0.093332817
-6.3597037e-15
-0.10345734
6.1178922e-15
-0.11386383
2.4595473e-18
-0.12478106
-1.6989093e-14
-0.1365744
5.4488107e-15
-0.14919703
0
-0.16208263
-5.0427359e-15
-0.17469946
0
-0.18690747
0
-0.19871392
2.4941222e-18
-0.21015274
0
-0.22111701
0
-0.23164429
0
-0.24231535
0
-0.25366186
7.8698088e-19
-0.26539309
0
-0.2770471
0
-0.2892157
0
-0.30314406
1.2680095e-14
-0.32033391
-0.0042242236
0
-2.8625065e-05
-0.0081864108
-8.4139433e-05
-0.011293171
-0.00014966417
-0.013950809
-0.00021615612
-0.01669136
-0.000275009
-0.019349918
-0.00031203657
-0.021739588
-0.00031569924
-0.024112561
-0.00027405358
-0.026260828
-0.00017206453
-0.027836281
0
-0.029088834
0
-0.033275166
0
-0.037617861
4.1747362e-15
-0.042636712
-4.0155916e-15
-0.04861559
3.8628092e-15
-0.055355683
-7.430137e-15
-0.062594372
-1.5429731e-18
-0.070108367
0
-0.078358613
0
-0.087520324
-6.3617106e-15
-0.097171335
0
-0.10706782
0
-0.117425
5.6662965e-15
-0.12861201
-5.4513057e-15
-0.14073144
-5.2421152e-15
-0.15340787
0
-0.16607782
-4.8539825e-15
-0.17840758
0
-0.19029042
0
-0.2017576
-8.6396967e-15
-0.21282823
0
-0.22341975
0
-0.23356937
-7.6910855e-15
-0.24389366
-7.3997037e-15
-0.2550008
7.1187225e-15
-0.26652115
0
-0.27796919
-1.3179766e-14
-0.28990662
0
-0.30347013
4.7568496e-20
-0.32030711
-0.0081803359
0
-0.0042167971
1.0110185e-05
-4.3160091e-05
-0.01130335
-0.00010485868
-0.013977979
-0.00017503361
-0.016741494
-0.00024569659
-0.019453183
-0.00030410237
-0.021920765
-0.0003390521
-0.024379899
-0.00033916221
-0.026627963
-0.00028925966
-0.02833396
-0.00017883561
-0.029672057
0
-0.031077155
0
-0.035130553
0
-0.039805602
4.0160331e-15
-0.045409913
-1.8496505e-18
-0.051730795
3.7147839e-15
-0.058538338
0
-0.065571846
-1.5549435e-18
-0.073321231
0
-0.082014926
0
-0.091199093
0
-0.10059131
0
-0.11040713
0
-0.12101858
2.566295e-18
-0.13256322
0
-0.14482078
2.3129031e-18
-0.15738655
4.8567839e-15
-0.1698365
0
-0.18186651
0
-0.19343363
0
-0.20456327
0
-0.21529156
0
-0.22551741
0
-0.23529696
7.4057849e-15
-0.24530874
7.1235918e-15
-0.25618813
6.2757356e-19
-0.26753184
0
-0.27879161
7.2326096e-19
-0.29049986
1.2213712e-14
-0.30370647
0
-0.3201956
-0.011308536
0
-0.0081744452
2.8563582e-05
-0.0042118715
1.9683169e-05
-5.3813856e-05
-0.013997392
-0.0001226146
-0.016780594
-0.00019896189
-0.019538877
-0.00027180516
-0.022075905
-0.00033046521
-0.024611946
-0.00036410514
-0.026949733
-0.00035775627
-0.028762634
-0.00030051291
-0.030258855
-0.0001844987
-0.031499515
0
-0.03279345
0
-0.037166545
0
-0.042415579
3.8637755e-15
-0.048340335
3.7153044e-15
-0.054736842
0
-0.061311608
0
-0.068575636
0
-0.076810837
0
-0.085537264
0
-0.094433792
2.4706029e-18
-0.10371606
-5.6681655e-15
-0.11377388
5.4532187e-15
-0.1247515
5.2491606e-15
-0.13649126
-5.0504384e-15
-0.14874425
2.2152233e-18
-0.16116937
0
-0.17335418
-4.4979377e-15
-0.1850894
0
-0.19634378
0
-0.20715117
-8.00754e-15
-0.21753556
0
-0.22742179
0
-0.23685751
0
-0.24656504
0
-0.25725178
6.5993553e-15
-0.26842997
0
-0.2795193
0
-0.29101047
-1.176106e-14
-0.30385581
1.1321744e-14
-0.32000467
-0.014008174
0
-0.011309285
4.3137249e-05
-0.008168624
5.562839e-05
-0.004209537
2.8077378e-05
-6.2921016e-05
-0.016808424
-0.00013938568
-0.019606182
-0.00022019534
-0.022203715
-0.00029540586
-0.024807836
-0.0003547253
-0.027225284
-0.00038378606
-0.029133696
-0.00037150488
-0.030764334
-0.00030992775
-0.032171543
-0.00018873482
-0.033032582
-4.174068e-15
-0.034693226
4.0167326e-15
-0.039617324
0
-0.045169099
1.7994416e-18
-0.051174498
3.5748569e-15
-0.05731655
0
-0.064113414
6.6207259e-15
-0.071901647
3.1833082e-15
-0.080181396
0
-0.088592599
0
-0.097352672
5.672565e-15
-0.10687322
0
-0.11730953
1.0499838e-14
-0.12852318
0
-0.14033659
0
-0.15255401
0
-0.16478323
-4.4987753e-15
-0.17666778
0
-0.18808482
0
-0.19903129
8.0155313e-15
-0.20952071
0
-0.21959015
0
-0.22914218
-7.1351773e-15
-0.23825071
-6.864336e-15
-0.24768738
-6.6045861e-15
-0.2582029
5.0680448e-19
-0.26923597
0
-0.28015464
1.176742e-14
-0.29143522
0
-0.30393195
1.0902705e-14
-0.31975416
-0.016824404
0
-0.014011751
5.3832226e-05
-0.011305341
8.4047196e-05
-0.0081626757
7.9363917e-05
-0.0042097212
3.4655503e-05
-7.1536867e-05
-0.019654725
-0.00015431074
-0.022303228
-0.0002393158
-0.024966292
-0.0003169413
-0.027454083
-0.00037363228
-0.02944704
-0.0003983612
-0.031201398
-0.0003830233
-0.032749824
-0.00031688459
-0.033792128
-0.00019224415
-0.03475531
0
-0.036993317
0
-0.042202351
0
-0.047838582
1.5151258e-18
-0.053574369
3.4396264e-15
-0.059925896
3.3091951e-15
-0.067278972
3.1856446e-15
-0.075124497
3.0634944e-15
-0.083064639
0
-0.09131513
0
-0.10031211
0
-0.11022871
0
-0.12092953
0
-0.13226978
4.8635059e-15
-0.14416218
4.6798516e-15
-0.15627688
-4.5009937e-15
-0.1682037
-8.6619188e-15
-0.17975716
0
-0.19086568
0
-0.2015036
0
-0.2116938
7.4241944e-15
-0.22144719
0
-0.23069834
0
-0.23950317
-6.6093387e-15
-0.24869294
0
-0.25906555
4.528909e-19
-0.26994787
-5.8870878e-15
-0.28070863
-1.1331014e-14
-0.29178692
-2.18128e-14
-0.3039348
0
-0.31944663
-0.019684136
0
-0.016831666
6.2965234e-05
-0.014007724
0.00010492491
-0.011295815
0.00011994278
-0.0081568434
9.7954295e-05
-0.0042123477
3.8774736e-05
-7.9219696e-05
-0.022374036
-0.00016770678
-0.025086355
-0.0002566331
-0.027635004
-0.00033359737
-0.029702513
-0.00038763869
-0.031570021
-0.00041060013
-0.033252586
-0.0003915076
-0.034445997
-0.00032281592
-0.035635182
-0.00019698297
-0.036871784
0
-0.039416903
0
-0.044714187
0
-0.050072497
3.4416106e-15
-0.056002031
3.3096935e-15
-0.062933811
0
-0.070357494
0
-0.077842161
-1.2232978e-18
-0.08559941
0
-0.094087757
0
-0.10349941
-5.2522084e-15
-0.11370284
0
-0.12456159
0
-0.13605048
0
-0.14796041
-4.5028742e-15
-0.15983792
-4.3331125e-15
-0.17141556
-4.1695414e-15
-0.18263787
-1.3291646e-18
-0.19342612
-7.7226214e-15
-0.20377239
0
-0.21367223
0
-0.22313991
0
-0.23209478
0
-0.24062222
6.364605e-15
-0.24960337
0
-0.25984369
0
-0.27058494
-5.6689903e-15
-0.2811828
-1.0911577e-14
-0.29205717
1.0502923e-14
-0.30387605
-1.0111585e-14
-0.31910111
-0.022415396
0
-0.019699109
7.1623972e-05
-0.016829914
0.00012278161
-0.013993773
0.00014978778
-0.011281008
0.00014804034
-0.0081515125
0.00010957989
-0.0042173674
3.9797119e-05
-8.6087562e-05
-0.025167457
-0.00017975143
-0.027766858
-0.00026993801
-0.029900713
-0.00034592312
-0.031870303
-0.00039947541
-0.033679713
-0.0004196245
-0.035016196
-0.00039890482
-0.03640156
-0.00033099054
-0.037899095
-0.00020251724
-0.039088349
0
-0.041770345
0
-0.046797303
-3.4404681e-15
-0.052329005
-3.3101336e-15
-0.058852503
-1.7528274e-18
-0.065869617
0
-0.072917125
2.9500854e-15
-0.080198556
-1.2536599e-18
-0.088192692
0
-0.097114725
0
-0.10683228
0
-0.11720665
0
-0.12825743
0
-0.13988893
0
-0.15166909
0
-0.16319461
0
-0.17440732
4.0157672e-15
-0.18529286
0
-0.19578132
0
-0.20584708
-7.1536426e-15
-0.21547491
6.8824411e-15
-0.2246593
0
-0.23335296
0
-0.24163206
0
-0.25042895
0
-0.26055638
5.6733114e-15
-0.27114656
5.4593364e-15
-0.28158345
0
-0.29226038
0
-0.30376566
-9.7380983e-15
-0.31871949
-0.025208878
0
-0.022433804
7.9345351e-05
-0.019699194
0.00013971996
-0.016815726
0.00017537446
-0.013969779
0.00018492436
-0.011260693
0.00016558669
-0.0081468883
0.00011243923
-0.0042247067
3.7074779e-05
-9.2222838e-05
-0.027849809
-0.00018895315
-0.030042161
-0.00027980439
-0.032103295
-0.00035647466
-0.034031112
-0.00040824141
-0.035503072
-0.00042756824
-0.037069754
-0.00040918731
-0.038798742
-0.00034051019
-0.040260935
-0.00020751206
-0.041206441
0
-0.043712979
0
-0.048895305
0
-0.055023229
-3.1854968e-15
-0.061646863
3.0652519e-15
-0.068278012
1.2057081e-18
-0.075104694
2.8392315e-15
-0.082621082
2.7307499e-15
-0.091066396
0
-0.10030768
0
-0.11019878
4.8686784e-15
-0.12079388
0
-0.1320598
4.5058844e-15
-0.14366949
0
-0.15516499
0
-0.16631746
4.0179926e-15
-0.17717582
-3.8649363e-15
-0.18774439
3.7190661e-15
-0.19793863
0
-0.20773734
6.8878202e-15
-0.21710614
-6.6256185e-15
-0.22603693
0
-0.23447534
6.1336467e-15
-0.24253954
0
-0.2511847
0
-0.26120433
0
-0.27164772
0
-0.28191152
2.4374568e-19
-0.29240128
0
-0.30361397
1.8756992e-14
-0.31832163
-0.027883915
0
-0.025219283
8.6191815e-05
-0.022428522
0.00015479256
-0.019679036
0.00019966501
-0.016789311
0.0002166754
-0.013935463
0.00020686772
-0.011235023
0.00016982525
-0.0081430221
0.00010471104
-0.0042343369
2.9968207e-05
-9.6893448e-05
-0.030128229
-0.00019579501
-0.032270943
-0.00028832772
-0.034306857
-0.00036427391
-0.035906507
-0.00041600791
-0.037639572
-0.00043877263
-0.039581316
-0.00042107615
-0.041288858
-0.00034883009
-0.042505601
-0.00021060403
-0.042901821
0
-0.045670307
0
-0.05143386
0
-0.057679034
0
-0.06391516
2.9499453e-15
-0.070308694
0
-0.077364926
2.7327667e-15
-0.085346744
-1.4957445e-18
-0.094122757
0
-0.1035274
0
-0.11364825
0
-0.1244958
4.5100635e-15
-0.13582892
0
-0.14725967
0
-0.15842083
4.0199558e-15
-0.16920832
1.5231456e-18
-0.17973087
0
-0.18999703
3.58088e-15
-0.19991204
6.8929321e-15
-0.20945533
0
-0.21858417
0
-0.22726413
0
-0.23548627
-5.9055173e-15
-0.24336093
-5.6818672e-15
-0.25187572
-5.4673805e-15
-0.26180208
0
-0.27207739
0
-0.28217883
0
-0.29249027
0
-0.303423
0
-0.31790562
-0.03015961
0
-0.027880804
9.2248263e-05
-0.025197905
0.00016810324
-0.022391652
0.00022120233
-0.019638861
0.00024682922
-0.016750624
0.00024259411
-0.013890553
0.00021217044
-0.011203726
0.00015805073
-0.0081403688
8.4602623e-05
-0.0042461307
1.7824271e-05
-0.00010038504
-0.03237479
-0.00020176656
-0.034507726
-0.00029466522
-0.03622667
-0.00037124667
-0.038110032
-0.00042702421
-0.040245827
-0.00045165464
-0.042180024
-0.00043138324
-0.043640868
-0.0003539419
-0.044320917
-0.00021228553
-0.044607955
0
-0.048051941
0
-0.053952618
-3.0675517e-15
-0.059818042
1.1894813e-18
-0.065801228
0
-0.072417361
-2.7333162e-15
-0.079948623
0
-0.088269657
-2.531185e-15
-0.097189381
0
-0.10682234
0
-0.11722331
4.5114281e-15
-0.12819753
0
-0.13943659
-4.1785994e-15
-0.15060835
0
-0.16143589
0
-0.17187739
1.4102877e-18
-0.18209135
0
-0.19206622
3.4479268e-15
-0.20170594
0
-0.21101162
6.3846448e-15
-0.21991448
6.144075e-15
-0.22837229
0
-0.23638468
-5.6866248e-15
-0.24410212
-5.4713682e-15
-0.25251292
-5.2649438e-15
-0.2623362
0
-0.27245048
-4.8756806e-15
-0.28238633
0
-0.29252346
0
-0.30319917
0
-0.31749111
-0.032415537
0
-0.030150584
9.6852971e-05
-0.027840254
0.00017984398
-0.025135351
0.00024013861
-0.022323179
0.00027341966
-0.019578649
0.00027655131
-0.016699311
0.00024907282
-0.013835253
0.0001974389
-0.01116818
0.00012759411
-0.0081399709
5.0304192e-05
-0.0042596547
0
-0.00010345314
-0.034634445
-0.00020622507
-0.036463056
-0.00030033089
-0.038480066
-0.00038113333
-0.040791706
-0.00043959111
-0.042934468
-0.00046263108
-0.044625695
-0.00043759804
-0.045559061
-0.00035676598
-0.04616382
-0.00021464509
-0.046717085
0
-0.050422828
0
-0.05597434
0
-0.061572893
2.840693e-15
-0.067764854
-1.4551446e-18
-0.074863181
-5.2602451e-15
-0.082741094
2.5317657e-15
-0.091181329
2.4348381e-15
-0.1003175
0
-0.11025215
0
-0.12081841
0
-0.13174675
0
-0.14280153
-2.2457205e-18
-0.15371765
-3.8701411e-15
-0.16423041
0
-0.1743558
-3.5836208e-15
-0.18426663
0
-0.19395321
-3.3208366e-15
-0.20333546
0
-0.21241921
0
-0.22111323
0
-0.22935564
0
-0.23719418
5.4759438e-15
-0.24477186
0
-0.25309068
-5.069764e-15
-0.26282187
2.266581e-19
-0.27276169
0
-0.28254422
0
-0.29250777
0
-0.30295091
0
-0.31707243
-0.034686572
0
-0.032409629
0.00010033712
-0.03010128
0.00018879435
-0.027751284
0.00025682642
-0.025031925
0.00029670932
-0.022223314
0.0003062919
-0.019498319
0.00028416768
-0.016636516
0.00023207161
-0.013770041
0.00015935038
-0.011129226
7.5794253e-05
-0.0081403705
0
-0.003889711
0
-0.00010575465
-0.036615923
-0.00021019158
-0.038749551
-0.00030831513
-0.041217098
-0.00039236909
-0.043552187
-0.00045023567
-0.045458803
-0.00046923135
-0.04663696
-0.00044106725
-0.047524677
-0.00036072554
-0.048421723
-0.00021736498
-0.048791809
0
-0.052324996
0
-0.057615383
0
-0.063402818
0
-0.070080144
2.6297987e-15
-0.077526622
0
-0.085498136
2.4369041e-15
-0.094137525
-2.3451837e-15
-0.10359153
0
-0.11372172
0
-0.12427013
4.1809029e-15
-0.13505773
-4.0217998e-15
-0.14594811
3.8713282e-15
-0.15663509
3.728128e-15
-0.16684795
0
-0.17665398
3.453073e-15
-0.18626614
0
-0.19567539
-3.1976292e-15
-0.20481077
0
-0.21368617
0
-0.22218973
0
-0.23024177
0
-0.23790741
5.2731494e-15
-0.24537561
-5.0741176e-15
-0.25362084
-4.8825534e-15
-0.26324021
2.0201983e-19
-0.27303036
4.5221182e-15
-0.28264297
1.1783541e-20
-0.29244468
0
-0.30269645
-0.0029036886
-0.31373526
-0.036684263
0
-0.03468354
0.00010342557
-0.032356706
0.0001956063
-0.029996241
0.00026959105
-0.027614777
0.00031725086
-0.02488799
0.0003322156
-0.022092152
0.00031462509
-0.019398178
0.00026501096
-0.016562737
0.00018754228
-0.013695303
9.460103e-05
-0.011083469
0
-0.0074888808
0
-0.0041686978
-6.9865539e-15
-0.00010779295
-0.038918914
-0.00021575941
-0.041521806
-0.00031738496
-0.044033023
-0.00040180502
-0.046139357
-0.00045660258
-0.047551091
-0.00047296507
-0.048707534
-0.00044592607
-0.049909421
-0.0003651889
-0.050622222
-0.00021859226
-0.050396422
0
-0.053861679
0
-0.059323732
0
-0.065590768
2.6318241e-15
-0.072619653
0
-0.080133393
0
-0.088282876
0
-0.097251006
-1.6358285e-18
-0.1069286
-4.345152e-15
-0.1170641
0
-0.12749443
4.025195e-15
-0.13818197
0
-0.14893751
0
-0.15938205
-3.5879746e-15
-0.16928225
0
-0.17877562
3.3249489e-15
-0.18809405
0
-0.19724156
-7.0013906e-19