/*--------------------------------*- C++ -*----------------------------------*\
| =========                 |                                                 |
| \\      /  F ield         | OpenFOAM: The Open Source CFD Toolbox           |
|  \\    /   O peration     | Version:  v2012                                 |
|   \\  /    A nd           | Website:  www.openfoam.com                      |
|    \\/     M anipulation  |                                                 |
\*---------------------------------------------------------------------------*/
FoamFile
{
    version     2.0;
    format      ascii;
    class       volScalarField;
    location    "39.8012744659894295";
    object      p;
}
// * * * * * * * * * * * * * * * * * * * * * * * * * * * * * * * * * * * * * //

dimensions      [0 2 -2 0 0 0 0];


internalField   nonuniform List<scalar> 
9200
(
-0.00095488004
-0.00087615142
-0.00082774227
-0.00085441345
-0.00063812724
-0.0023440014
-0.0007338722
-0.00049298007
-0.0021312269
-0.0035916639
-0.00054675217
-0.00014645679
-0.001936703
-0.0034027714
-0.0050141327
-0.00026997343
0.00035432266
-0.001509002
-0.0032137745
-0.0048952455
-0.0064104541
0.00016181758
0.0010465116
-0.00085379628
-0.0028164268
-0.0047805426
-0.0063895743
-0.0077670203
0.00077140445
0.002019733
7.4274167e-05
-0.0021816567
-0.0045321113
-0.0063940512
-0.0078578396
-0.009019242
0.0016183322
0.0032843612
0.0014064974
-0.0012771384
-0.0040864645
-0.0063728573
-0.008004691
-0.0092195991
-0.010129619
0.0027372547
0.0049411548
0.003195148
3.795406e-05
-0.0034409737
-0.0062326729
-0.0082493336
-0.0095081629
-0.010425495
-0.011073741
0.0041844227
0.0070814656
0.0055810989
0.0018166577
-0.0024585201
-0.0060130711
-0.0084728683
-0.010014279
-0.010835548
-0.01144172
-0.011844319
0.0059862856
0.0098647067
0.0086673656
0.004198236
-0.0011037869
-0.0055938107
-0.0087616234
-0.010597933
-0.011565501
-0.011938942
-0.012256476
-0.012438592
0.0082133714
0.013466587
0.01257431
0.0072821989
0.00074266441
-0.0049721891
-0.0090190339
-0.011390304
-0.012455618
-0.01283266
-0.012799827
-0.012872467
-0.012867487
0.011022621
0.017625422
0.017367171
0.011193129
0.0031534745
-0.0040631108
-0.009282946
-0.01231953
-0.013676427
-0.013942353
-0.013786327
-0.013423011
-0.013302114
-0.013176554
0.014486199
0.022422944
0.023205231
0.016048376
0.0062253606
-0.0028275381
-0.0095102822
-0.013465245
-0.01517399
-0.015469773
-0.015013386
-0.01443155
-0.013828761
-0.013573812
-0.013400649
0.019142404
0.028147962
0.030102575
0.021962669
0.010035039
-0.0012029237
-0.009694918
-0.014823575
-0.017058639
-0.017370537
-0.016703275
-0.015673918
-0.014800287
-0.014052293
-0.013728973
-0.013475623
0.024359491
0.034130891
0.038235978
0.02892925
0.01464292
0.00085371814
-0.0098289466
-0.016418473
-0.019349902
-0.019779918
-0.018811415
-0.017382862
-0.015967644
-0.014941423
-0.014139501
-0.013800975
-0.013411283
0.029948919
0.041100194
0.047555195
0.037013076
0.020113368
0.0033879155
-0.009919689
-0.01830082
-0.022165267
-0.022744137
-0.021486551
-0.019504177
-0.01756944
-0.015963631
-0.014910224
-0.014121608
-0.01381695
-0.013342652
0.036395714
0.049403957
0.058156662
0.046437054
0.02646525
0.0064291992
-0.0099522783
-0.02053116
-0.025541336
-0.026370777
-0.024780688
-0.022190559
-0.019532745
-0.017358835
-0.015744143
-0.014764823
-0.014023269
-0.013754415
-0.013268384
0.043649324
0.058461718
0.070027328
0.057284768
0.033693555
0.010008584
-0.0099341263
-0.023133689
-0.029521897
-0.030735511
-0.028804665
-0.025489828
-0.022007046
-0.019028418
-0.016863854
-0.015392317
-0.014566587
-0.013903274
-0.013665338
-0.013184548
0.051564187
0.0682782
0.083069633
0.069514201
0.04173471
0.014142967
-0.0098691119
-0.026170612
-0.034230597
-0.035920524
-0.033635358
-0.0295087
-0.025029724
-0.021112371
-0.018145864
-0.01620084
-0.014981064
-0.014350413
-0.013777122
-0.013556619
-0.013076333
0.059986706
0.078842852
0.097167615
0.083032608
0.05060208
0.018841933
-0.0097761692
-0.029702597
-0.039745554
-0.042025027
-0.039371238
-0.034321251
-0.028700914
-0.023633966
-0.019712474
-0.017045346
-0.015481306
-0.014577902
-0.014155918
-0.013657006
-0.013436812
-0.012906743
0.068719486
0.090117911
0.11216538
0.097835441
0.060304213
0.024100051
-0.0096586618
-0.033801881
-0.046149437
-0.049140614
-0.046082517
-0.040007973
-0.033090351
-0.026686195
-0.021568785
-0.018020954
-0.015880022
-0.014801105
-0.014236473
-0.014001027
-0.013537312
-0.013305967
-0.012694719
0.077530632
0.10204965
0.12781948
0.11367279
0.070675862
0.029886762
-0.0095554731
-0.038566015
-0.053547382
-0.057355627
-0.053845871
-0.046625083
-0.038265095
-0.030336041
-0.02379706
-0.019109808
-0.016244557
-0.014784996
-0.014234539
-0.013995651
-0.013901067
-0.0134451
-0.013160368
-0.012452175
0.086186371
0.11454898
0.14395536
0.12996708
0.081787754
0.036117943
-0.0095029465
-0.044134721
-0.062054523
-0.066779178
-0.062724746
-0.054217482
-0.044275575
-0.034655352
-0.0264626
-0.020374963
-0.016528502
-0.014569756
-0.013868764
-0.01383488
-0.013874747
-0.013863246
-0.013371562
-0.012994265
-0.012172012
0.094416914
0.12747351
0.16033136
0.14625333
0.094294302
0.042618274
-0.0095428037
-0.050684018
-0.07180878
-0.077516216
-0.07279613
-0.062814324
-0.051149064
-0.039707462
-0.029647343
-0.021872946
-0.016765381
-0.014075785
-0.013150393
-0.013210538
-0.013635422
-0.013880409
-0.013884099
-0.013302768
-0.012800901
-0.011849312
0.10181043
0.14074721
0.1768879
0.16213288
0.10859681
0.048977393
-0.0098770521
-0.058441781
-0.083014143
-0.089486406
-0.084131086
-0.072437444
-0.058890727
-0.045539966
-0.03344317
-0.023688716
-0.01699013
-0.013300626
-0.011965528
-0.012100132
-0.01285907
-0.013649572
-0.01400832
-0.013953882
-0.013230509
-0.012572606
-0.011471272
0.10808031
0.15425176
0.19360719
0.17820599
0.1245355
0.054924763
-0.010765004
-0.067683257
-0.095890606
-0.10318659
-0.096810632
-0.083102745
-0.067482497
-0.052185177
-0.037947753
-0.02592897
-0.017271169
-0.012243271
-0.010272664
-0.010359403
-0.011490396
-0.012834736
-0.0138734
-0.014245611
-0.014059049
-0.013144012
-0.012301454
-0.011032379
0.11311065
0.16784485
0.21034026
0.19523987
0.14073266
0.060783237
-0.011872565
-0.078484101
-0.11070136
-0.11866577
-0.11100373
-0.09483878
-0.076885701
-0.059655548
-0.043271447
-0.028735867
-0.01770297
-0.010933284
-0.0080291978
-0.007909351
-0.0093610275
-0.011353168
-0.013134272
-0.01429009
-0.014573313
-0.014183419
-0.013031812
-0.011980487
-0.010535524
0.11701595
0.18121567
0.22687792
0.21336559
0.15521003
0.064840242
-0.013612318
-0.090989953
-0.12798669
-0.1361215
-0.12688778
-0.10769863
-0.087054768
-0.067936701
-0.049538657
-0.03229383
-0.018434492
-0.0094327314
-0.0052152712
-0.0046691557
-0.0063602569
-0.0090180897
-0.011686637
-0.013736064
-0.014873437
-0.014968554
-0.014308741
-0.012883037
-0.011603839
-0.0099786822
0.11962074
0.19451884
0.24292984
0.23117725
0.16698737
0.06542522
-0.017281827
-0.1062633
-0.14854807
-0.15608816
-0.14469205
-0.12176489
-0.097937238
-0.076989518
-0.056884218
-0.036834586
-0.019673153
-0.0078472103
-0.0018415001
-0.00057311338
-0.0023776201
-0.0056951026
-0.0093306551
-0.012462958
-0.014605401
-0.015591468
-0.015406635
-0.014419251
-0.012687644
-0.011166421
-0.009359512
0.12124837
0.20775778
0.25863157
0.24757423
0.17663124
0.06116223
-0.024976537
-0.12362409
-0.17216736
-0.17931018
-0.16484445
-0.13715396
-0.10949196
-0.086736685
-0.0654595
-0.042655267
-0.02168632
-0.0063428899
0.0020574719
0.0044232677
0.0026868672
-0.0012538905
-0.0059153636
-0.010262365
-0.013636156
-0.01569927
-0.016410379
-0.015861995
-0.014498712
-0.012436766
-0.010664256
-0.0086768225
0.12179955
0.22115479
0.27524165
0.26202595
0.18502053
0.051629188
-0.039882812
-0.14475004
-0.19979773
-0.2055336
-0.18800706
-0.15405011
-0.12169649
-0.097071623
-0.075419085
-0.050144757
-0.024836575
-0.0051528902
0.0064020637
0.010353691
0.008915749
0.0044246664
-0.0012990248
-0.0069720812
-0.011752067
-0.015148796
-0.01697014
-0.017293003
-0.016309839
-0.014531005
-0.012122965
-0.010094639
-0.0079305488
0.12136304
0.23385443
0.29344974
0.27486293
0.19140129
0.037718036
-0.067478097
-0.16831369
-0.22946442
-0.23435263
-0.21457113
-0.17275353
-0.13455509
-0.10784968
-0.086915559
-0.059794572
-0.029618628
-0.0046084233
0.011058268
0.017227491
0.016387252
0.011438348
0.0046426082
-0.0024450289
-0.00878569
-0.013724454
-0.016937693
-0.01836917
-0.018204151
-0.016727834
-0.014503946
-0.011740378
-0.0094560809
-0.007121567
0.11999363
0.24558455
0.30971014
0.28625172
0.19822352
0.01874293
-0.1052773
-0.18874559
-0.25991375
-0.26247829
-0.24192229
-0.19358216
-0.1480749
-0.11890929
-0.10005023
-0.072227581
-0.036648414
-0.0051854476
0.015816421
0.025028272
0.02516587
0.019878621
0.012005009
0.0034404747
-0.0045832787
-0.011260037
-0.01609777
-0.018937292
-0.019849443
-0.019111923
-0.017095949
-0.014406671
-0.011284824
-0.0087484096
-0.0062517392
0.11773141
0.25579971
0.3237153
0.29690873
0.20405485
-0.0020109127
-0.1475371
-0.21226698
-0.29137339
-0.29043732
-0.26914626
-0.21653153
-0.16224569
-0.1300635
-0.1148239
-0.088238136
-0.046678817
-0.0074996311
0.020354184
0.033698485
0.035307158
0.029820289
0.020866889
0.010768587
0.00097461114
-0.0075808602
-0.014285644
-0.018778994
-0.021083994
-0.021365095
-0.019985196
-0.017395149
-0.014230448
-0.010753776
-0.0079726244
-0.0053238332
0.11453581
0.26396784
0.33622121
0.30659055
0.20847853
-0.026494123
-0.19172665
-0.24692445
-0.3240303
-0.31927838
-0.29386354
-0.24150395
-0.17710296
-0.14124633
-0.13103389
-0.10884462
-0.060651423
-0.012347787
0.024208543
0.043121293
0.046847248
0.041327883
0.031280736
0.01959138
0.0079542506
-0.002572371
-0.011297908
-0.01775908
-0.021666006
-0.023325965
-0.022871749
-0.02079674
-0.017610423
-0.013968941
-0.010146238
-0.0071307783
-0.0043413599
0.11034446
0.26969253
0.34648388
0.31376133
0.20918945
-0.054862317
-0.24598269
-0.28933721
-0.35873374
-0.34765692
-0.31534796
-0.26532388
-0.19222512
-0.1524137
-0.14814596
-0.13540034
-0.079707855
-0.020775403
0.026704081
0.0530897
0.059792056
0.054444596
0.043273795
0.029923027
0.016383509
0.0038094444
-0.007023925
-0.015615857
-0.021627006
-0.024807208
-0.025593359
-0.024333103
-0.021522831
-0.017730352
-0.013617898
-0.0094626447
-0.0062258318
-0.0033083822
0.10529906
0.27259738
0.353803
0.31785666
0.20194495
-0.086281589
-0.31278846
-0.34341117
-0.39905057
-0.37332377
-0.33503286
-0.28599222
-0.2091773
-0.16339539
-0.16493575
-0.16963162
-0.10530766
-0.034109411
0.026880129
0.063251692
0.074096363
0.069182268
0.056839751
0.041731594
0.026231941
0.011582959
-0.0014392753
-0.012235428
-0.020391973
-0.02564562
-0.028016233
-0.027858755
-0.025712895
-0.022143646
-0.017745682
-0.013175134
-0.0087047051
-0.0052614953
-0.0022293053
0.099573578
0.27211254
0.35752421
0.31838791
0.18751587
-0.11691852
-0.39567861
-0.41118716
-0.44532832
-0.40463566
-0.34905972
-0.30431897
-0.22708934
-0.17547668
-0.18300229
-0.21411088
-0.13923121
-0.054024533
0.023410503
0.07305063
0.089620712
0.085502401
0.071925926
0.054943039
0.037408753
0.020680199
0.0054877278
-0.0075876143
-0.018048453
-0.025519749
-0.029851569
-0.031211874
-0.030047657
-0.026980367
-0.022643424
-0.017650204
-0.012640349
-0.0078752367
-0.004242036
-0.0011087063
0.26769732
0.093120581
0.35699086
0.31464777
0.16942147
-0.15075824
-0.49182123
-0.50269397
-0.50384151
-0.43973406
-0.36576665
-0.31986138
-0.24427304
-0.18819492
-0.20567111
-0.26955251
-0.1833882
-0.082799476
0.01451957
0.081687186
0.10608382
0.10327126
0.088415528
0.069419181
0.049775563
0.030967274
0.013669956
-0.0016445504
-0.014476414
-0.024335649
-0.03090177
-0.034141398
-0.034364671
-0.032121571
-0.028110908
-0.023010181
-0.017440474
-0.012014912
-0.0069779097
-0.003172103
4.8685654e-05
0.35166722
0.25902652
0.085943478
0.30583653
0.14857794
-0.19363279
-0.59545997
-0.62621761
-0.56617316
-0.4812913
-0.38183407
-0.3369409
-0.25970555
-0.20071856
-0.23157444
-0.3195567
-0.23619426
-0.12196605
-0.0026581349
0.088011147
0.12302496
0.12223155
0.10608436
0.084952876
0.063116249
0.042247086
0.022949405
0.0055236068
-0.0096271666
-0.021966069
-0.030987099
-0.036442099
-0.038433984
-0.037416792
-0.034045724
-0.029084752
-0.023235671
-0.017115447
-0.011301524
-0.0060170154
-0.0020566439
0.0012378431
0.29111178
0.34107337
0.24598775
0.07809344
0.12455149
-0.24598611
-0.7051283
-0.765984
-0.62516203
-0.52719343
-0.40001393
-0.34892996
-0.2767823
-0.21231776
-0.25657395
-0.36486261
-0.30108871
-0.16996806
-0.031584509
0.089671635
0.1395839
0.1419298
0.12458771
0.10123546
0.077149188
0.054249466
0.033088908
0.013762948
-0.0035383986
-0.018321349
-0.029943724
-0.037899377
-0.042048616
-0.0426546
-0.040317175
-0.035790193
-0.029886912
-0.023315116
-0.016676085
-0.010503857
-0.0049973901
-0.00090095778
0.0024533704
0.096642151
0.2720447
0.32487159
0.2285213
0.069650029
-0.30773318
-0.82315657
-0.90630854
-0.70108307
-0.58164826
-0.41721299
-0.35963108
-0.28957999
-0.22320483
-0.28109694
-0.40870194
-0.37314501
-0.23023849
-0.071800658
0.084387829
0.15417528
0.16158634
0.14336555
0.11785401
0.091509591
0.066633794
0.043777033
0.022825358
0.0036680189
-0.013384341
-0.027627347
-0.03830844
-0.044971459
-0.04763233
-0.046735353
-0.043021648
-0.037331
-0.03050706
-0.023246629
-0.01612485
-0.0096265234
-0.0039246037
0.00028938114
0.0036902506
-0.379164
0.064232599
0.25077951
0.30242928
0.20654654
0.060697519
-0.95136722
-1.0532219
-0.80875453
-0.64768797
-0.43294064
-0.36848798
-0.29820085
-0.23385005
-0.29416278
-0.45498325
-0.44418754
-0.29666302
-0.11037551
0.073356125
0.16549497
0.18009849
0.16160924
0.13420232
0.10575413
0.07899413
0.054629186
0.032379716
0.011772421
-0.0072135695
-0.02394655
-0.03746471
-0.046960749
-0.052102446
-0.053108143
-0.050615379
-0.045493859
-0.038650037
-0.03093885
-0.023030565
-0.01546572
-0.0086754867
-0.0028048892
0.0015091054
0.0049452637
-1.0901786
-0.45714213
0.023432304
0.2251896
0.27315423
0.17987277
0.051218139
-1.2161179
-0.93740468
-0.72847641
-0.44598513
-0.3735813
-0.30380676
-0.24372118
-0.30017364
-0.48795607
-0.51565931
-0.36715836
-0.14790005
0.056014543
0.17117354
0.19610348
0.1782638
0.14951208
0.11932877
0.090876331
0.065198802
0.042012368
0.020459023
3.9796391e-05
-0.018868252
-0.035191634
-0.047753938
-0.055795722
-0.05919074
-0.058395489
-0.054240899
-0.047704802
-0.039734023
-0.031179115
-0.022669595
-0.014704901
-0.0076580375
-0.0016440588
0.0027540498
0.0062167605
-1.3945813
-1.2358695
-0.53899406
-0.029727955
0.19086389
0.23656114
0.14825582
0.041204415
-1.0753726
-0.8172147
-0.45779223
-0.37653163
-0.30198186
-0.25118358
-0.30200117
-0.5189972
-0.57497722
-0.44093831
-0.19575824
0.028318824
0.16518146
0.20613846
0.19194025
0.16278345
0.13156768
0.10174551
0.075004414
0.051235767
0.029315903
0.0081245932
-0.012436179
-0.031345396
-0.047088869
-0.058401724
-0.06469968
-0.066135074
-0.063419538
-0.057566206
-0.049629345
-0.040573947
-0.031228101
-0.022169819
-0.013850839
-0.0065808313
-0.00044592065
0.0040205481
0.0075009366
-1.2217059
-1.5827526
-1.3854952
-0.62415939
-0.093128343
0.14564203
0.19213091
0.11158106
0.030630461
-0.9050892
-0.47852025
-0.37623763
-0.29401263
-0.25192307
-0.29922783
-0.53184402
-0.64438569
-0.507218
-0.25007079
-0.0082309862
0.14599717
0.20399664
0.20021071
0.17278476
0.14166447
0.11106502
0.083515707
0.059515901
0.037834776
0.016683765
-0.0047836137
-0.025832653
-0.044705404
-0.059582879
-0.069293002
-0.073550514
-0.072837065
-0.06811321
-0.060560801
-0.051250837
-0.041165861
-0.031091085
-0.021540814
-0.012911131
-0.0054469639
0.00078655065
0.0053024124
0.0087897035
-0.98820645
-1.3782582
-1.7757349
-1.5359995
-0.71223428
-0.16199534
0.09007616
0.13930939
0.069779498
0.019433144
-0.51308242
-0.37063009
-0.28044065
-0.24173903
-0.29375301
-0.53172542
-0.69283825
-0.59568457
-0.30727489
-0.05076023
0.12240104
0.18769696
0.19868292
0.1782485
0.14877112
0.11818345
0.090225461
0.066268585
0.045430173
0.025243141
0.0038538302
-0.018624717
-0.040360099
-0.058971666
-0.07257664
-0.080289447
-0.082221539
-0.079204148
-0.072414684
-0.063201219
-0.052555497
-0.041513079
-0.03077848
-0.020791109
-0.01188791
-0.0042581168
0.0020450714
0.0065892646
0.010077474
-0.55130023
-1.0642822
-1.5400846
-1.9679922
-1.6842761
-0.80157707
-0.2340212
0.024572517
0.077766165
0.0230185
0.0074514321
-0.36074586
-0.26053575
-0.22300004
-0.28771724
-0.52090081
-0.72501519
-0.67127004
-0.38698812
-0.11674608
0.094726249
0.16426849
0.1846168
0.17699171
0.15199988
0.12256544
0.094559165
0.070912551
0.051428689
0.033219388
0.013118554
-0.0097736144
-0.033838375
-0.056180902
-0.074097547
-0.085926159
-0.09123418
-0.090586437
-0.085151116
-0.076267427
-0.065410877
-0.053544038
-0.041626169
-0.030299528
-0.019921388
-0.010781225
-0.0030260589
0.0033123112
0.0078740666
0.011365381
-0.34725739
-0.58403263
-1.1340275
-1.6989751
-2.153815
-1.8270198
-0.89081169
-0.30953251
-0.050250942
0.0070872577
-0.028531819
-0.0048609841
-0.23494017
-0.19994003
-0.2785984
-0.49606201
-0.7378233
-0.73267651
-0.4625153
-0.19562744
0.026534212
0.1365846
0.15738103
0.16889189
0.15044864
0.12354899
0.09611202
0.07282165
0.055103433
0.039889208
0.022529067
0.00056447861
-0.024970332
-0.050811922
-0.073348875
-0.089953006
-0.099445549
-0.10195982
-0.098522886
-0.090602289
-0.079692267
-0.067229966
-0.054226253
-0.041514535
-0.029652832
-0.018929536
-0.0096073004
-0.0017796796
0.0045768214
0.0091669872
0.012719923
-0.2051605
-0.33122302
-0.60768755
-1.1933204
-1.8464833
-2.3272221
-1.9595754
-0.97840113
-0.38850745
-0.13425173
-0.072026353
-0.08372309
-0.017706159
-0.1721186
-0.25676597
-0.45731658
-0.72854136
-0.771086
-0.53472912
-0.27521258
-0.037459721
0.073990226
0.12320319
0.14808376
0.14390081
0.12070882
0.094295994
0.07151035
0.055654079
0.044412166
0.031426941
0.01212247
-0.013652293
-0.0424681
-0.069773939
-0.091780689
-0.10632901
-0.1129188
-0.11229607
-0.10591634
-0.095498823
-0.082616322
-0.06865918
-0.054610646
-0.041173676
-0.028833381
-0.01783755
-0.0084096768
-0.00053701059
0.0058618239
0.010563344
0.014156909
-0.13899286
-0.17340118
-0.31162671
-0.6221238
-1.2386735
-1.9735134
-2.4810774
-2.0772159
-1.0630916
-0.47159389
-0.22528882
-0.15772787
-0.14203923
-0.03239754
-0.22268861
-0.40747415
-0.69519487
-0.78112367
-0.59195332
-0.33175808
-0.11183008
0.021659366
0.068711851
0.11920791
0.13088573
0.11381854
0.089009773
0.066265247
0.052286449
0.045806178
0.038998631
0.024453842
0.00014490729
-0.030772098
-0.062776676
-0.090738401
-0.11125732
-0.1229541
-0.12611253
-0.12207679
-0.11266685
-0.099807349
-0.085039052
-0.069701806
-0.054687937
-0.040594645
-0.027870147
-0.016707849
-0.0072149238
0.00074893768
0.0073100864
0.012041378
0.015641772
-0.18128988
-0.10262143
-0.14067905
-0.28889579
-0.62705053
-1.2666523
-2.0751235
-2.6076855
-2.1754599
-1.1399383
-0.55867532
-0.32177038
-0.24888945
-0.20914484
-0.048579935
-0.34824078
-0.63914417
-0.76009595
-0.62035702
-0.36593185
-0.18282671
-0.044221956
0.012118038
0.076054169
0.11325184
0.10251684
0.079656626
0.057059511
0.043978424
0.042911095
0.044206983
0.036963896
0.016304478
-0.015375968
-0.051735454
-0.0860818
-0.11349979
-0.1314469
-0.13951502
-0.13878911
-0.13115132
-0.11869302
-0.10352903
-0.086956027
-0.070340267
-0.054443623
-0.039814757
-0.026848743
-0.015577655
-0.0059469086
0.0023078124
0.008836296
0.013576294
0.0171729
-0.28284277
-0.13530164
-0.065216307
-0.10843023
-0.26305352
-0.62277974
-1.2714267
-2.1477929
-2.6996148
-2.2483812
-1.2066204
-0.64321099
-0.41991104
-0.3551598
-0.28583148
-0.065826629
-0.56497348
-0.70868409
-0.61773164
-0.38465592
-0.24831497
-0.11364277
-0.061781678
0.022998399
0.087376532
0.088435446
0.066575105
0.042720456
0.030286887
0.034398269
0.045706196
0.048777073
0.034610777
0.003973674
-0.036017414
-0.077004906
-0.11222811
-0.13766399
-0.15193638
-0.15567856
-0.15072624
-0.13940056
-0.12394217
-0.10654699
-0.088343787
-0.070551741
-0.053924649
-0.038948036
-0.025819701
-0.014332513
-0.0042594245
0.0039521554
0.010430894
0.015162387
0.018749977
-0.47841849
-0.21449514
-0.088150173
-0.029250933
-0.077580344
-0.23455609
-0.60985138
-1.2502482
-2.1884859
-2.7515377
-2.2985286
-1.2466869
-0.71900065
-0.53393479
-0.47783944
-0.37236713
-0.084451518
-0.6327243
-0.58389208
-0.38476328
-0.29132002
-0.18126231
-0.14466135
-0.048752267
0.055218584
0.071057762
0.049806962
0.024561921
0.009173773
0.019030894
0.042060365
0.058689032
0.054568478
0.02749025
-0.015036286
-0.062660315
-0.10652772
-0.14076108
-0.16269541
-0.17226661
-0.17112062
-0.16174235
-0.14674808
-0.12849188
-0.10890465
-0.0891705
-0.070394001
-0.053279413
-0.038061208
-0.024621761
-0.012466013
-0.0024728462
0.0056780914
0.012080094
0.016799875
0.020371996
-0.54064324
-0.38482809
-0.14759019
-0.042330006
0.003363056
-0.048818535
-0.20430314
-0.58747461
-1.2063804
-2.1958599
-2.7626232
-2.289902
-1.2723063
-0.80098231
-0.66631597
-0.61693606
-0.46622146
-0.10659627
-0.52146279
-0.36821273
-0.30452309
-0.24539401
-0.22952682
-0.13654203
0.0047470043
0.054791207
0.033303163
-8.9410344e-05
-0.017591751
-0.0059784023
0.03126006
0.065352883
0.075451278
0.055134509
0.011792023
-0.042213904
-0.095424025
-0.13979553
-0.17099693
-0.18797088
-0.19197581
-0.1855656
-0.17170543
-0.15313964
-0.13217184
-0.11054385
-0.089507069
-0.070056957
-0.052594255
-0.036935163
-0.022539057
-0.010473494
-0.0005871991
0.0074597278
0.013786456
0.018486883
0.02203782
-0.44081392
-0.44036125
-0.29360662
-0.084815068
0.0005492858
0.031289545
-0.02306225
-0.17319443
-0.55384147
-1.1466144
-2.1641451
-2.7274165
-2.2517533
-1.293593
-0.8919092
-0.81655224
-0.77249153
-0.56327466
-0.13325078
-0.3343231
-0.29632447
-0.30177427
-0.31523107
-0.23709894
-0.069543458
0.027321829
0.020586382
-0.020948275
-0.056326386
-0.039560941
0.010666816
0.066222772
0.096367044
0.086772591
0.044814956
-0.01482004
-0.07793557
-0.13375555
-0.17594724
-0.20210274
-0.2128446
-0.21065515
-0.19880475
-0.1804979
-0.15846865
-0.1349122
-0.11154457
-0.089593762
-0.069650571
-0.051579368
-0.034582381
-0.020287679
-0.0083619199
0.0013546628
0.0093032917
0.01554695
0.020221758
0.023746055
-0.28489912
-0.35360903
-0.34029499
-0.20796072
-0.029557143
0.038119749
0.053701453
-0.00084822885
-0.1405088
-0.50741561
-1.075275
-2.1082886
-2.6706378
-2.1832305
-1.3071156
-0.99202086
-0.98489877
-0.94443701
-0.65918419
-0.16263083
-0.26952187
-0.34068107
-0.3958282
-0.34075386
-0.16191196
-0.01611597
0.0031544687
-0.039260413
-0.090858295
-0.091271894
-0.019657164
0.05910469
0.11551387
0.12210691
0.084376199
0.02013347
-0.053069388
-0.12161032
-0.17658154
-0.21388424
-0.23318957
-0.23672548
-0.22798118
-0.21064806
-0.18795969
-0.1626198
-0.13681321
-0.11220489
-0.089569069
-0.068798023
-0.048898644
-0.031996909
-0.017892696
-0.0061962048
0.0033641148
0.011204491
0.017359483
0.022002303
0.02549528
-0.23365465
-0.22705798
-0.26568948
-0.24461635
-0.13016594
0.015214906
0.068382476
0.07014072
0.018983577
-0.10446249
-0.45030292
-1.0187302
-2.0527891
-2.5705397
-2.0784673
-1.3122934
-1.0997633
-1.1701198
-1.1268632
-0.74941788
-0.19123928
-0.36262791
-0.45978923
-0.4411737
-0.26041451
-0.074006413
-0.024217832
-0.055992043
-0.13199665
-0.14718005
-0.07065019
0.041319723
0.13171599
0.16003897
0.13053671
0.063306075
-0.020069812
-0.10232424
-0.17191014
-0.22247262
-0.25240133
-0.26342053
-0.25912544
-0.24366327
-0.22084881
-0.19393716
-0.16569307
-0.13824958
-0.1126963
-0.088948804
-0.065719294
-0.045893603
-0.029238949
-0.015447681
-0.0039578374
0.0054350472
0.013161138
0.019220863
0.023826236
0.027284201
-0.36753956
-0.19812913
-0.16657925
-0.1808762
-0.15758387
-0.060745863
0.049378179
0.088876719
0.082091005
0.039064741
-0.0681739
-0.41074865
-0.97728702
-1.963348
-2.4214579
-1.9417071
-1.3094835
-1.2125407
-1.365917
-1.3089024
-0.8274185
-0.21442474
-0.5013515
-0.53274308
-0.35776445
-0.14747291
-0.062702544
-0.076820216
-0.16639121
-0.23520202
-0.13997481
0.0012698928
0.14026242
0.20015452
0.18275917
0.11488202
0.021875733
-0.075102289
-0.16094649
-0.22700222
-0.26982316
-0.29033727
-0.29208452
-0.27960879
-0.25734375
-0.22917796
-0.19854969
-0.16814941
-0.13943552
-0.1124009
-0.085389156
-0.062190397
-0.042681524
-0.02643838
-0.012924754
-0.0016548881
0.0075651745
0.015169162
0.021127963
0.025691751
0.029111214
-0.51560227
-0.34262094
-0.15775784
-0.10825
-0.10391806
-0.08130611
-0.0042564285
0.075952666
0.10202763
0.093356361
0.058864779
-0.051555829
-0.37711138
-0.91914342
-1.837402
-2.2239307
-1.7781808
-1.2985044
-1.3294945
-1.5652379
-1.4784393
-0.88517497
-0.22672399
-0.606259
-0.45312604
-0.23047258
-0.1103972
-0.10591477
-0.1997157
-0.32093969
-0.27014361
-0.045432861
0.13828991
0.23791036
0.24108514
0.17433304
0.072948329
-0.039095447
-0.14293081
-0.22661865
-0.2847846
-0.31705429
-0.32668399
-0.31854424
-0.29767414
-0.26868802
-0.23576805
-0.20234508
-0.17025053
-0.13958828
-0.10826218
-0.081210538
-0.05841277
-0.039438268
-0.023555073
-0.010334419
0.0007106715
0.0097493192
0.017224768
0.023078836
0.027598179
0.030973449
-0.6509609
-0.50601009
-0.29315211
-0.11296013
-0.056772977
-0.040684385
-0.017830415
0.039335994
0.094918241
0.1117776
0.10463701
0.068763744
-0.0361904
-0.34105954
-0.84391526
-1.6723936
-1.9824903
-1.5926618
-1.2754229
-1.4468818
-1.7558754
-1.6184696
-0.91602504
-0.22596911
-0.53409683
-0.31059679
-0.16353344
-0.14027254
-0.23577675
-0.40309682
-0.40930125
-0.1989159
0.10481646
0.27697174
0.30165118
0.24275861
0.13306128
0.0057992457
-0.11702338
-0.22066571
-0.29663871
-0.34314753
-0.36275888
-0.36052488
-0.34209619
-0.31284642
-0.27782329
-0.24131314
-0.20564717
-0.17100647
-0.13475398
-0.10328309
-0.076732701
-0.05462041
-0.036107814
-0.020602339
-0.007678047
0.0031326368
0.011982787
0.019326551
0.025074217
0.029541591
0.032869179
-0.58940754
-0.66349861
-0.47566596
-0.23848155
-0.070219515
-0.014544417
0.0074618111
0.029444992
0.070057609
0.10699436
0.11952721
0.11158139
0.07839227
-0.020499412
-0.30079211
-0.75474582
-1.4692032
-1.7031786
-1.3903469
-1.2379825
-1.5563776
-1.918293
-1.7083873
-0.91621641
-0.21817977
-0.3755655
-0.21477151
-0.17616838
-0.26901901
-0.49121957
-0.57393011
-0.38037881
-0.021080482
0.28619511
0.37210255
0.3149283
0.20339021
0.059632313
-0.083203776
-0.2083749
-0.30490299
-0.36824086
-0.40016763
-0.40564328
-0.39085778
-0.36207591
-0.32521522
-0.2855942
-0.24617998
-0.20720754
-0.16533472
-0.12879356
-0.097942612
-0.072263178
-0.050736829
-0.032706717
-0.01758051
-0.0049629415
0.0056056785
0.014264648
0.02147874
0.027106252
0.031518965
0.03479639
-0.42004646
-0.61174002
-0.63889497
-0.43280032
-0.18444396
-0.033468486
0.018009741
0.042010631
0.061217851
0.088684438
0.11413897
0.12603167
0.1179255
0.087607734
-0.0015046281
-0.2502846
-0.65043198
-1.2312017
-1.3972144
-1.1792384
-1.1958971
-1.6443603
-2.0266139
-1.727478
-0.88176688
-0.21384823
-0.25554299
-0.2128763
-0.30132427
-0.58156009
-0.73480819
-0.5930842
-0.20386891
0.22225926
0.41724983
0.40110177
0.27382694
0.12241561
-0.04122212
-0.18984682
-0.30897224
-0.39209466
-0.4388496
-0.45405923
-0.44433952
-0.41677751
-0.37851529
-0.33579288
-0.29248088
-0.24880248
-0.20052959
-0.15817452
-0.12239447
-0.092641751
-0.067699011
-0.04678247
-0.029233575
-0.014497916
-0.0021951108
0.008130126
0.016603628
0.023669052
0.029171278
0.033526837
0.036753255
-0.27330884
-0.43411774
-0.59214043
-0.58483132
-0.38097403
-0.13660292
-0.0050701671
0.041923505
0.064860651
0.080228999
0.099366159
0.12149666
0.13165034
0.1238209
0.098442192
0.020947416
-0.18525907
-0.52811391
-0.96998062
-1.0874589
-0.97401936
-1.1486969
-1.6977606
-2.0547581
-1.6622222
-0.79529796
-0.20554025
-0.24047777
-0.340942
-0.64551827
-0.87453788
-0.79290478
-0.39490784
0.09955781
0.42668158
0.47128857
0.36416062
0.18854483
0.0086876304
-0.16455333
-0.30913258
-0.41437837
-0.47886836
-0.50604422
-0.50296094
-0.47762794
-0.43835841
-0.39263575
-0.34520047
-0.29648144
-0.24091475
-0.19190962
-0.15047959
-0.11607685
-0.087243391
-0.063065288
-0.042753391
-0.025697582
-0.011360878
0.00062719363
0.010720862
0.018982647
0.025892845
0.031264975
0.035562485
0.038737631
-0.24897941
-0.26693106
-0.40775747
-0.53530908
-0.50857344
-0.32418309
-0.095478016
0.016542008
0.058889814
0.079329443
0.092027686
0.11032884
0.12698678
0.13768601
0.1307346
0.11099491
0.047644405
-0.11400632
-0.3910348
-0.70532778
-0.78980072
-0.78100322
-1.092436
-1.7032154
-1.9857737
-1.5115474
-0.6677499
-0.18192851
-0.36878585
-0.65517056
-0.96918232
-0.95640513
-0.57316254
-0.041400319
0.3882812
0.5400188
0.45066682
0.26951962
0.062394978
-0.13305945
-0.30461181
-0.435639
-0.52027158
-0.56200402
-0.56731291
-0.54521307
-0.50548395
-0.4571033
-0.40524935
-0.35100376
-0.28713048
-0.23052582
-0.1826338
-0.14292212
-0.10965957
-0.081778407
-0.05835445
-0.038659487
-0.022105274
-0.0081652789
0.0035269468
0.013353563
0.021395728
0.028144265
0.033384805
0.037623051
0.040746283
-0.36166871
-0.23608919
-0.23802276
-0.34516733
-0.45256581
-0.41782526
-0.26314642
-0.064948762
0.032512245
0.071230685
0.089743044
0.10434367
0.1177922
0.13309238
0.14328676
0.13999562
0.12562805
0.078532007
-0.039983713
-0.24535753
-0.45399277
-0.51459406
-0.60014172
-1.0269227
-1.6437294
-1.8156581
-1.2914833
-0.53510776
-0.15288074
-0.62088171
-0.99570195
-1.0591813
-0.72175671
-0.18823933
0.31225604
0.57659281
0.56148
0.35998907
0.12945596
-0.098271501
-0.29656107
-0.45500621
-0.5639228
-0.62243881
-0.63814316
-0.62040697
-0.58065759
-0.5296833
-0.47372612
-0.41329459
-0.33990491
-0.27460429
-0.21932723
-0.17356951
-0.13526397
-0.10318074
-0.07623428
-0.053576856
-0.034507164
-0.018449867
-0.0048780336
0.0064725823
0.016021038
0.023835695
0.030420916
0.035528406
0.039703798
0.042775338
-0.54916379
-0.30320924
-0.18964215
-0.18848074
-0.26286307
-0.35482396
-0.3232951
-0.20004851
-0.04077149
0.04562329
0.081619393
0.10115448
0.11273605
0.12561541
0.13894451
0.14841163
0.15084
0.14253868
0.11280494
0.035447444
-0.09935226
-0.22186592
-0.27256768
-0.43695957
-0.95135634
-1.5066085
-1.5581279
-1.0307297
-0.40641829
-0.12140749
-0.94286272
-1.0819729
-0.82135626
-0.34146198
0.18513044
0.56929565
0.65086357
0.50467742
0.21792281