/*--------------------------------*- C++ -*----------------------------------*\
| =========                 |                                                 |
| \\      /  F ield         | OpenFOAM: The Open Source CFD Toolbox           |
|  \\    /   O peration     | Version:  v2012                                 |
|   \\  /    A nd           | Website:  www.openfoam.com                      |
|    \\/     M anipulation  |                                                 |
\*---------------------------------------------------------------------------*/
FoamFile
{
    version     2.0;
    format      ascii;
    class       surfaceScalarField;
    location    "39.8012744659894295";
    object      phi;
}
// * * * * * * * * * * * * * * * * * * * * * * * * * * * * * * * * * * * * * //

dimensions      [0 3 -1 0 0 0 0];
oriented        oriented;


internalField   nonuniform List<scalar> 
18180
(
0.0042390177
-3.3966647
0.0082561157
-3.1774008
0.0033855214
-3.3765035
0.01212159
-2.9727278
0.0065717586
-3.1586247
0.0029121687
-3.3571276
0.01583756
-2.7816875
0.0095498351
-2.9553963
0.00566445
-3.1407661
0.0024958478
-3.3384453
0.019350722
-2.6032112
0.012334508
-2.7655411
0.0082275228
-2.9387921
0.0048559621
-3.1232134
0.0021705623
-3.3204973
0.022626042
-2.4364724
0.014881424
-2.5879931
0.010612618
-2.7502548
0.0070466059
-2.9225416
0.0042176551
-3.1064118
0.0019131942
-3.3034636
0.025557242
-2.2806288
0.017185073
-2.4220876
0.012803233
-2.5739214
0.0090710515
-2.7352819
0.006112472
-2.906858
0.0037029384
-3.0905625
0.0017012749
-3.2875786
0.028045658
-2.1349008
0.019212095
-2.2669477
0.014807013
-2.4090268
0.010928962
-2.5601458
0.0078560887
-2.7208314
0.0053533134
-2.8921567
0.0032782333
-3.0756881
0.0015148251
-3.2726539
0.029946027
-1.9985462
0.020968882
-2.1218793
0.016621741
-2.2547899
0.012637957
-2.3963795
0.0094493613
-2.5468905
0.0068683287
-2.7072663
0.0047313431
-2.8783299
0.0029132146
-3.0617601
0.0013391762
-3.2588501
0.031136859
-1.8708942
0.022454946
-1.9861403
0.018263933
-2.1105474
0.014217723
-2.2431181
0.010902353
-2.3841398
0.0082386685
-2.5343463
0.0060697321
-2.6944049
0.0042109668
-2.8652361
0.0025817116
-3.0487394
0.001165798
-3.2459959
0.031543724
-1.7513338
0.023631209
-1.8590252
0.019751904
-1.9755878
0.015715197
-2.0997713
0.012228443
-2.2317421
0.0094578358
-2.3724388
0.0072734371
-2.5222846
0.0054210909
-2.6820654
0.0037542337
-2.8529648
0.0022633749
-3.0366923
0.00099177327
-3.234155
0.031111704
-1.6392838
0.024390638
-1.7398525
0.021149497
-1.8492623
0.01719702
-1.9656842
0.013460679
-2.0891724
0.010514978
-2.2207536
0.0083206306
-2.3611228
0.0065218339
-2.5106764
0.0048719341
-2.6704642
0.0033239389
-2.841588
0.0019444104
-3.0255314
0.00081843828
-3.2231498
0.029521148
-1.5341658
0.024596742
-1.628011
0.02259366
-1.7309702
0.018765755
-1.8402653
0.01464675
-1.9558219
0.011403385
-2.0788033
0.0091756241
-2.2100562
0.007486802
-2.3501346
0.005922768
-2.4996825
0.0043648604
-2.6597136
0.0028898682
-2.8310749
0.001618804
-3.0152128
0.00064818832
-3.21301
0.026805688
-1.4354116
0.024092576
-1.522902
0.024283593
-1.6201619
0.02054961
-1.7229514
0.015862685
-1.8311495
0.012116385
-1.9459973
0.0097914491
-2.0685864
0.0082704395
-2.1996236
0.0068895121
-2.3397976
0.0053917251
-2.489588
0.0038484566
-2.6498157
0.0024346929
-2.8213379
0.0012873127
-3.0056426
0.00048061397
-3.2036081
0.022673408
-1.3425104
0.023332972
-1.4245686
0.026326358
-1.5161446
0.022691461
-1.613214
0.017208946
-1.7146237
0.012654275
-1.8218232
0.010104257
-1.9361613
0.0088073765
-2.0586253
0.0077370448
-2.1899046
0.0064066157
-2.3303743
0.0048446416
-2.4803139
0.0032900062
-2.640626
0.0019560064
-2.8122949
0.00095532994
-2.9967826
0.00030971813
-3.1949218
0.01697928
-1.2552149
0.022294482
-1.3320219
0.02865008
-1.4187799
0.025561759
-1.5105892
0.018821911
-1.6057587
0.013021718
-1.7057601
0.010034098
-1.8122487
0.009005708
-1.9265035
0.0084111116
-2.0493891
0.0074005041
-2.1811391
0.0059028632
-2.3217842
0.0042226846
-2.4717002
0.0026810417
-2.6320665
0.0014638868
-2.8038727
0.00063113379
-2.9885511
0.00014724036
-3.1868389
0.0095808219
-1.1731093
0.0208731
-1.2449358
0.031604406
-1.327499
0.02919717
-1.4146065
0.020850771
-1.5041088
0.01323334
-1.5973358
0.0094807197
-1.6963178
0.0087392144
-1.8027181
0.0088295749
-1.9176049
0.0083542049
-2.04123
0.0070456292
-2.1732937
0.0052755389
-2.3138375
0.0035048079
-2.4636527
0.0020350442
-2.6240517
0.0009764025
-2.7960191
0.00032693659
-2.980922
1.0924468e-05
-3.1793761
0.00042363884
-1.0958842
0.019045031
-1.162978
0.035328063
-1.2417631
0.033801116
-1.3248646
0.023499922
-1.409263
0.013313113
-1.4961165
0.0083215209
-1.5878764
0.0078528586
-1.686722
0.0088860434
-1.7939973
0.0092340735
-1.9099478
0.0082978604
-2.0341274
0.0064977052
-2.1660844
0.0044797952
-2.3063391
0.0027067357
-2.4560398
0.0013811098
-2.6165323
0.00051626007
-2.788673
5.9394271e-05
-2.9738405
-9.6411789e-05
-3.1724927
-0.010511855
-1.023239
0.016741612
-1.0857975
0.039974777
-1.1612543
0.039712498
-1.2409634
0.026981928
-1.3208349
0.013296308
-1.4017045
0.0064206157
-1.48648
0.0061497422
-1.5779884
0.0084385014
-1.6779953
0.0099885793
-1.7867175
0.0096833073
-1.9035223
0.0079517765
-2.0276982
0.0056700474
-2.1592315
0.0035302265
-2.2991695
0.0018704025
-2.4488254
0.00075489658
-2.6094387
0.00010422736
-2.7818169
-0.00017263512
-2.9672861
-0.00018569845
-3.1661678
-0.023195365
-0.95490294
0.01388954
-1.0130924
0.045708014
-1.0856337
0.04720601
-1.1625233
0.031545364
-1.2384666
0.013235858
-1.3137345
0.0036190336
-1.3917087
0.0033975606
-1.476041
0.0073062447
-1.5690467
0.010538641
-1.670969
0.011224693
-1.7809247
0.0097114576
-1.8979467
0.0071598837
-2.0216346
0.0045703974
-2.1525982
0.0024862166
-2.2922906
0.0010496674
-2.4419471
0.00018791147
-2.6027623
-0.00024683529
-2.7754197
-0.00036739688
-2.9612151
-0.00025758109
-3.160349
-0.037540876
-0.89064372
0.010407067
-0.94458607
0.052671411
-1.0145822
0.056545503
-1.0891972
0.037463497
-1.1618092
0.013196846
-1.2318617
-0.00025623633
-1.3031805
-0.00067469861
-1.3804228
0.0052674819
-1.466638
0.01080649
-1.5621713
0.012942214
-1.6657845
0.011864599
-1.7762231
0.0090535298
-1.8927404
0.005913565
-2.0156187
0.0032807305
-2.1460843
0.0014298874
-2.2856296
0.00029730935
-2.4354024
-0.00029416018
-2.5964808
-0.00052379929
-2.769504
-0.00051123972
-2.9556283
-0.00030377948
-3.155038
-0.053380719
-0.83025504
0.0062071421
-0.88004098
0.060978711
-0.94779866
0.067974569
-1.0206476
0.045014174
-1.0905227
0.013261108
-1.1557546
-0.0053900572
-1.2205373
-0.0063682862
-1.2907225
0.0020752266
-1.3702891
0.010671472
-1.4597767
0.014858812
-1.5575829
0.014518905
-1.6619882
0.011479466
-1.7719758
0.0076694935
-1.8874966
0.0043240296
-2.0095727
0.0019237884
-2.1396737
0.00044380192
-2.2792082
-0.00034798647
-2.4291652
-0.00068453265
-2.5905988
-0.00073479513
-2.764019
-0.00060400428
-2.9505079
-0.00034075336
-3.1502076
-0.070454698
-0.77351442
0.0012483942
-0.81929764
0.070722698
-0.88503048
0.081716586
-0.95655528
0.054482142
-1.0242809
0.01352379
-1.0850869
-0.011978359
-1.1434349
-0.014018675
-1.2065478
-0.0025596259
-1.2795478
0.010004213
-1.3632989
0.016997262
-1.4557917
0.01778316
-1.5547703
0.01459134
-1.6588442
0.0099756243
-1.76769
0.0057072986
-1.8820246
0.0025727197
-2.0034075
0.00062887506
-2.1333533
-0.00040573276
-2.2730017
-0.00085755173
-2.4232718
-0.00097154088
-2.5850985
-0.0008820655
-2.7589688
-0.00066946697
-2.945844
-0.00037025415
-3.1458221
-0.088460245
-0.72024355
-0.0044574012
-0.76218874
0.081938546
-0.82606704
0.097911364
-0.89658885
0.066157898
-0.96277262
0.014123289
-1.0195764
-0.020220819
-1.0715426
-0.023979449
-1.1275357
-0.0089366717
-1.1940115
0.0086623378
-1.2722718
0.019377465
-1.359925
0.021793306
-1.4540743
0.018564277
-1.5528558
0.012998639
-1.6556238
0.0075464466
-1.7628806
0.0034305971
-1.87616
0.00085901215
-1.997191
-0.00049579018
-2.1271526
-0.0010767148
-2.2670583
-0.0012287235
-2.4177158
-0.0011642816
-2.5799959
-0.00097478973
-2.7543246
-0.00071369363
-2.9416115
-0.00038160622
-3.14186
-0.1071517
-0.67030249
-0.010957397
-0.70847883
0.094648075
-0.77073244
0.11642934
-0.84027157
0.079993206
-0.90532825
0.015224079
-0.95893825
-0.030271775
-1.0046203
-0.036617105
-1.0533433
-0.017379846
-1.113295
0.006489765
-1.1862789
0.022026796
-1.2695248
0.026690755
-1.3594285
0.023596387
-1.4535494
0.016934536
-1.550856
0.0099855365
-1.6516936
0.0045673292
-1.7574787
0.0011415652
-1.8700654
-0.00064440701
-1.9909833
-0.001378696
-2.1211321
-0.0015532533
-2.2613976
-0.0014684134
-2.4125255
-0.0012761739
-2.5752791
-0.0010226328
-2.7501125
-0.00072964701
-2.9377881
-0.00038255921
-3.1383024
-0.12628072
-0.62349901
-0.018445826
-0.65788182
0.10851051
-0.718433
0.13745037
-0.78774
0.095350145
-0.85088098
0.01672674
-0.9022388
-0.042323844
-0.94234517
-0.052274787
-0.98375668
-0.028216607
-1.037053
0.0033416245
-1.1049452
0.024982301
-1.1841828
0.03262838
-1.2703871
0.029899585
-1.3604887
0.022005923
-1.4529856
0.013199138
-1.5479967
0.0060726477
-1.6468688
0.0014870428
-1.751565
-0.00088905264
-1.8638533
-0.0018196511
-1.9848453
-0.0019909315
-2.115328
-0.0018434976
-2.2560699
-0.0015930503
-2.407696
-0.0013221081
-2.5709617
-0.0010349245
-2.7462781
-0.00072713355
-2.9343536
-0.00037914315
-3.1351319
-0.14541121
-0.57943597
-0.027108457
-0.61021522
0.1230865
-0.6687879
0.16073386
-0.73798175
0.11229653
-0.80027099
0.017777656
-0.84765728
-0.057122173
-0.88323091
-0.071350998
-0.9183979
-0.041797495
-0.96504939
-0.00092181423
-1.0279298
0.028292453
-1.1035329
0.039762203
-1.1865444
0.037691515
-1.2732393
0.028455992
-1.3615834
0.017392372
-1.4513623
0.0080594929
-1.5438879
0.0019112499
-1.6412377
-0.0012771461
-1.745347
-0.0024705001
-1.85756
-0.0026139748
-1.9788447
-0.0023397516
-2.1098151
-0.0019711244
-2.2510873
-0.0016244477
-2.4032486
-0.0013176933
-2.5670157
-0.0010216374
-2.7428279
-0.00071436362
-2.9312842
-0.00037202546
-3.1323134
-0.16393704
-0.53771253
-0.036777516
-0.5654369
0.13808317
-0.62176364
0.18643597
-0.69101439
0.13179329
-0.7533775
0.017654654
-0.79616625
-0.075729652
-0.82514011
-0.094789111
-0.85523691
-0.058425627
-0.89695371
-0.0064672421
-0.95496706
0.032021377
-1.027248
0.048247981
-1.1075332
0.047185391
-1.1913921
0.036539003
-1.2762397
0.022800415
-1.3614238
0.010667339
-1.4481297
0.0024385074
-1.5385974
-0.0018666028
-1.6349875
-0.003424155
-1.7388568
-0.003512118
-1.8513039
-0.0030333757
-1.973067
-0.0024588103
-2.1046333
-0.0019685034
-2.2464875
-0.0015861006
-2.3991729
-0.0012780676
-2.5634358
-0.00099165068
-2.7397175
-0.00069470021
-2.9285587
-0.00036313007
-3.1298253
-0.18148975
-0.4982546
-0.04689209
-0.52354055
0.15331807
-0.57743115
0.21479345
-0.6468864
0.155968
-0.71138378
0.020887835
-0.75289918
-0.097432443
-0.77082561
-0.12332132
-0.79234884
-0.07801045
-0.83113141
-0.013382909
-0.88580486
0.036233917
-0.95506294
0.058256183
-1.0330401
0.058580127
-1.1145645
0.046507705
-1.1965455
0.029685003
-1.2777929
0.0140664
-1.3592142
0.0031010701
-1.4431977
-0.0027331142
-1.5322497
-0.0047978293
-1.6281836
-0.0048023699
-1.7322168
-0.0040174488
-1.8451751
-0.0031264013
-1.9676175
-0.0023958063
-2.0998408
-0.0018705169
-2.2422755
-0.0015005073
-2.3954671
-0.0012164196
-2.5601983
-0.00095257047
-2.7369547
-0.00067224512
-2.9261477
-0.00035405506
-3.1276351
-0.19796855
-0.46093415
-0.057001736
-0.48434324
0.16861942
-0.53579537
0.24573995
-0.60536582
0.18608369
-0.67347353
0.031813218
-0.718847
-0.11684196
-0.730099
-0.15531442
-0.73485234
-0.10020128
-0.76591854
-0.020932293
-0.81963347
0.041028325
-0.88675875
0.069939113
-0.96278165
0.072040439
-1.0424082
0.058597191
-1.122101
0.038327596
-1.2000873
0.018461382
-1.2767953
0.003948452
-1.3546754
-0.0039555408
-1.4366715
-0.0067351091
-1.5249753
-0.0066308842
-1.6210181
-0.0054111003
-1.7256565
-0.0040581526
-1.8393804
-0.0029647555
-1.9625557
-0.0022028653
-2.0954593
-0.0017104834
-2.2384515
-0.0013875156
-2.3921096
-0.0011442024
-2.5572949
-0.00091079814
-2.7344857
-0.00065026443
-2.9240229
-0.00034616869
-3.1257255
-0.21939107
-0.50089481
-0.066595968
-0.4477803
0.18380781
-0.49666594
0.27886378
-0.56611392
0.22209784
-0.6381083
0.051945775
-0.69037405
-0.12932167
-0.70320185
-0.18933573
-0.69235856
-0.12549735
-0.70558485
-0.027910468
-0.7552581
0.047018868
-0.82204082
0.083431869
-0.89652214
0.087693142
-0.9746012
0.073005379
-1.0525208
0.049021761
-1.1279224
0.024095866
-1.2005375
0.0050526423
-1.272714
-0.0056285149
-1.3478828
-0.0094153095
-1.4287965
-0.0091788546
-1.5171482
-0.0073601164
-1.6138859
-0.0053581494
-1.7194199
-0.0037429327
-1.8339852
-0.0026267781
-1.9579444
-0.0019294217
-2.091495
-0.0015177344
-2.2350006
-0.0012639959
-2.389088
-0.0010716032
-2.5546917
-0.00087142486
-2.7323024
-0.00063141883
-2.9221541
-0.00034047638
-3.1240567
-0.23841967
-0.49405418
-0.082426484
-0.48117044
0.19904686
-0.46032384
0.31362019
-0.52880814
0.2632233
-0.6042057
0.080655082
-0.66379894
-0.13355629
-0.68317966
-0.22289756
-0.66616533
-0.15608225
-0.65805799
-0.035795763
-0.69426528
0.055479054
-0.76037394
0.098993113
-0.83409175
0.10561086
-0.91085303
0.089878729
-0.98743049
0.062060667
-1.0609144
0.031255028
-1.1301046
0.0065119132
-1.1970099
-0.0078581018
-1.2655558
-0.013050839
-1.3392205
-0.012668822
-1.420112
-0.010041928
-1.5092889
-0.007149345
-1.6071239
-0.0048096032
-1.7136533
-0.0031899414
-1.8290899
-0.0021857679
-1.9537789
-0.0016181369
-2.0879414
-0.0013164491
-2.2319086
-0.0011440486
-2.3863807
-0.0010047478
-2.5523662
-0.00083856278
-2.7303578
-0.00061770272
-2.9205092
-0.00033767631
-3.1226104
-0.25494834
-0.48606585
-0.096217089
-0.47636637
0.20820157
-0.48738578
0.34946703
-0.49373277
0.30842608
-0.57119767
0.11665028
-0.63737973
-0.12982661
-0.66475786
-0.2546994
-0.6481321
-0.19384034
-0.62493414
-0.048703818
-0.64194547
0.065946556
-0.70160883
0.11721679
-0.77529159
0.12577922
-0.85090753
0.10929349
-0.92646884
0.077724641
-0.9986764
0.040269017
-1.0651594
0.0084626551
-1.1272705
-0.010745967
-1.1893898
-0.017890175
-1.2558601
-0.017369077
-1.3294692
-0.013669224
-1.4114098
-0.0095745601
-1.501925
-0.0062523991
-1.6009427
-0.0039439234
-1.7084453
-0.0025078226
-1.8246922
-0.0017036582
-1.9500828
-0.0013033071
-2.0847816
-0.0011254447
-2.2291596
-0.0010367295
-2.3839597
-0.00095032952
-2.5502901
-0.0008152331
-2.7286344
-0.00061051328
-2.9190574
-0.00033816864
-3.1213525
-0.26893956
-0.47689587
-0.10785415
-0.47052878
0.21929222
-0.48449492
0.3831203
-0.51842304
0.35664259
-0.53933994
0.15854154
-0.61045071
-0.11882138
-0.64578872
-0.28395133
-0.63247303
-0.2373149
-0.60141335
-0.070506472
-0.60014059
0.074506431
-0.6475842
0.13855802
-0.71983653
0.14818105
-0.79456326
0.13123961
-0.86929176
0.096262206
-0.94081481
0.05151573
-1.0053649
0.011088228
-1.0632059
-0.014395362
-1.1190943
-0.024223865
-1.1783864
-0.02359879
-1.2447654
-0.018493606
-1.319744
-0.01279696
-1.4033621
-0.0081649923
-1.4952997
-0.0049387162
-1.5954289
-0.0029217402
-1.7038311
-0.0017857405
-1.8208273
-0.0012285973
-1.9468142
-0.0010108472
-2.0819992
-0.00095864075
-2.2267172
-0.00095048176
-2.3817994
-0.00091267383
-2.5484349
-0.0008033828
-2.7270821
-0.00061066227
-2.9177675
-0.0003421088
-3.120269
-0.28053908
-0.46660736
-0.11725979
-0.46358652
0.23211403
-0.48036808
0.42026243
-0.5190155
0.40939759
-0.568416
0.20443269
-0.58276543
-0.10161515
-0.62522241
-0.31010702
-0.61679892
-0.28420357
-0.58255576
-0.10145047
-0.56767755
0.076715772
-0.5996164
0.16149502
-0.66759081
0.17286637
-0.74160355
0.15558333
-0.81557441
0.11787304
-0.88693544
0.065418893
-0.95037254
0.014623052
-1.0045285
-0.018896788
-1.0543934
-0.032376526
-1.1064648
-0.031734786
-1.1655643
-0.024809478
-1.2337416
-0.016999086
-1.3108981
-0.010643337
-1.3962511
-0.0062184017
-1.489463
-0.003444752
-1.5906111
-0.0018706039
-1.6998119
-0.0010903159
-1.8174439
-0.00079522556
-1.943968
-0.00075899281
-2.079552
-0.00082569281
-2.2245584
-0.00089037906
-2.3798709
-0.00089300627
-2.5467684
-0.00080402672
-2.725682
-0.00061840088
-2.9166156
-0.00034942053
-3.1193323
-0.29001653
-0.4553704
-0.1244591
-0.45549994
0.24643838
-0.47490891
0.46030517
-0.51778547
0.4676933
-0.57455264
0.26170325
-0.62307271
-0.079795872
-0.60229924
-0.33269878
-0.59998333
-0.33236982
-0.5658069
-0.14068705
-0.54071475
0.070124826
-0.5585279
0.18309774
-0.61846345
0.19969978
-0.69170773
0.18210932
-0.76501693
0.1426764
-0.83663067
0.082442069
-0.89982721
0.019361692
-0.95094869
-0.02432497
-0.99501146
-0.042710853
-1.0397827
-0.042214074
-1.0914748
-0.032957246
-1.1528985
-0.022382179
-1.2239243
-0.013780718
-1.3032661
-0.0078134679
-1.3901144
-0.0040796475
-1.4844696
-0.0019510171
-1.5864828
-0.00088139163
-1.6963516
-0.00046683042
-1.8145242
-0.00042692644
-1.9414805
-0.00055941942
-2.0774164
-0.00073211639
-2.2226478
-0.0008580943
-2.3781538
-0.00089310218
-2.5452613
-0.00081730311
-2.7244007
-0.00063350292
-2.915585
-0.00035983976
-3.1185321
-0.29773715
-0.44341434
-0.12961634
-0.44630029
0.26207037
-0.46811168
0.50264689
-0.51462182
0.53096627
-0.57830301
0.32684179
-0.63704928
-0.042069669
-0.65838274
-0.35120336
-0.58132237
-0.38021861
-0.54949884
-0.18647974
-0.51758465
0.055338667
-0.52353283
0.20028996
-0.57313115
0.22845883
-0.64469848
0.21064459
-0.71733962
0.17068578
-0.78949285
0.10309198
-0.8533615
0.025643958
-0.90215343
-0.030735975
-0.94067516
-0.055620416
-0.97803306
-0.055537749
-1.0221203
-0.043326169
-1.0767661
-0.029162574
-1.1419029
-0.017662459
-1.2157713
-0.0097349534
-1.2968865
-0.0048057726
-1.3849614
-0.0020009391
-1.4802714
-0.00057866641
-1.5829952
-1.3794744e-05
-1.6933902
4.9517056e-05
-1.8119975
-0.00013586286
-1.9393397
-0.0004186146
-2.0755494
-0.00068061965
-2.2209699
-0.00085606499
-2.3766132
-0.00091264926
-2.5438931
-0.00084263838
-2.723229
-0.00065534956
-2.9146553
-0.00037295757
-3.11785
-0.30412684
-0.43101726
-0.13304765
-0.43606553
0.27877481
-0.45996779
0.54661603
-0.5094489
0.59861763
-0.5795204
0.39886714
-0.64766144
0.0055577807
-0.68221962
-0.35875416
-0.64825247
-0.42639609
-0.53268937
-0.23651984
-0.49719154
0.033075008
-0.49307708
0.21205385
-0.53286729
0.25799837
-0.60032889
0.2410127
-0.6723603
0.20187868
-0.7452051
0.12798045
-0.81067132
0.033903666
-0.85786814
-0.038172516
-0.89108139
-0.07151873
-0.92092028
-0.07226824
-0.95713574
-0.056355562
-1.0049217
-0.037569114
-1.0643567
-0.022357606
-1.1331782
-0.011965855
-1.2092155
-0.0055742308
-1.2916779
-0.0019682458
-1.3807783
-0.00014332363
-1.4768195
0.00059825024
-1.5800668
0.00070518713
-1.6908901
0.0004644601
-1.8098461
6.8553961e-05
-1.9374818
-0.00033843302
-2.0739326
-0.00067236131
-2.2194821
-0.00088246954
-2.3752306
-0.00095040398
-2.5426416
-0.00087887918
-2.7221374
-0.00068302673
-2.9138202
-0.00038826459
-3.1172786
-0.30965928
-0.41846413
-0.13522532
-0.42491804
0.29624662
-0.45048561
0.59161981
-0.50233694
0.66952101
-0.57760155
0.47653826
-0.65450109
0.061902955
-0.70151083
-0.35690861
-0.68145328
-0.4762688
-0.59584409
-0.28885772
-0.47823959
0.0042616271
-0.46627598
0.21806661
-0.4968134
0.28616319
-0.55886414
0.27338627
-0.63018087
0.2361328
-0.7034833
0.15782494
-0.77154402
0.044870883
-0.8180825
-0.046535568
-0.84609456
-0.090843855
-0.86811493
-0.093033404
-0.89615925
-0.072534553
-0.93695447
-0.047836447
-0.99085004
-0.027912156
-1.0550053
-0.014453355
-1.1265966
-0.0062965944
-1.2041661
-0.0017705966
-1.2876334
0.00049071191
-1.3774536
0.0014162584
-1.4740023
0.0015604648
-1.5776407
0.0012645694
-1.6887739
0.00075555976
-1.8080099
0.00019093035
-1.9358939
-0.00031810858
-2.07252
-0.00070451669
-2.2181676
-0.00093481612
-2.3739773
-0.001004427
-2.5414905
-0.00092444534
-2.7211237
-0.00071542364
-2.9130647
-0.00040519557
-3.1167977
-0.40602988
-0.31484838
-0.13674716
-0.41301734
0.31410307
-0.43970977
0.6371581
-0.49338674
0.74249592
-0.57256223
0.55893898
-0.65729003
0.12508426
-0.7151513
-0.34520251
-0.71057692
-0.52097719
-0.63418356
-0.36159812
-0.52093688
-0.029776161
-0.44223306
0.21813006
-0.46420856
0.31167902
-0.5203243
0.30700973
-0.59013869
0.27239591
-0.66349895
0.19270103
-0.73505272
0.05914486
-0.78245221
-0.055359986
-0.80606762
-0.11392977
-0.81958215
-0.11851171
-0.8388112
-0.092398129
-0.87245715
-0.060198273
-0.92098217
-0.034337505
-0.98086352
-0.017101044
-1.0485267
-0.0068428342
-1.1218933
-0.0012829282
-1.200443
0.0014214423
-1.2845689
0.0024979966
-1.3748272
0.0026525508
-1.4717115
0.0022908582
-1.5756233
0.0016592567
-1.6870021
0.00093034898
-1.8064466
0.00023008102
-1.934517
-0.00035382568
-2.0712924
-0.00077322572
-2.2169903
-0.0010104294
-2.3728433
-0.001072213
-2.5404207
-0.00097749248
-2.7201707
-0.00075133022
-2.9123925
-0.00042316785
-3.1164014
-0.40055811
-0.13829145
-0.39407016
-0.32015753
0.33187554
-0.42771385
0.68278889
-0.48270056
0.81681483
-0.5649561
0.64477192
-0.65566266
0.19386251
-0.72350537
-0.32307527
-0.73461486
-0.55934797
-0.66962562
-0.43588678
-0.55770456
-0.093971728
-0.4547267
0.2126872
-0.43480188
0.33383444
-0.48450859
0.34061326
-0.55174009
0.30878008
-0.62374967
0.2281542
-0.69583692
0.075148277
-0.74787348
-0.065152239
-0.76968248
-0.14089258
-0.77589194
-0.14944821
-0.78498933
-0.11651103
-0.81101953
-0.07487225
-0.8543632
-0.041599814
-0.91038055
-0.019761212
-0.97460977
-0.0070335031
-1.0443848
-0.00034076279
-1.1187461
0.0027738107
-1.1978167
0.0039282305
-1.2822405
0.0040350021
-1.3727507
0.0035728728
-1.4698503
0.0028033634
-1.5739618
0.0018997555
-1.6855082
0.00099594089
-1.8051148
0.0001939115
-1.9333371
-0.00044002101
-2.0702105
-0.00087420745
-2.2159392
-0.0011054769
-2.3717993
-0.0011509507
-2.5394248
-0.0010360518
-2.7192927
-0.00078951235
-2.9117898
-0.0004416154
-3.1160712
-0.41466177
0.34906424
-0.38771424
-0.14071828
-0.38269193
-0.32623329
0.72812783
-0.47040981
0.89188146
-0.55501699
0.73366514
-0.65109866
0.26841534
-0.72762507
-0.29141746
-0.75248059
-0.58975934
-0.70160872
-0.50911474
-0.5941945
-0.16709308
-0.48253664
0.17948834
-0.41951589
0.35216108
-0.45141222
0.37301272
-0.51487206
0.34374261
-0.58409264
0.26116984
-0.65383489
0.089742951
-0.70742555
-0.079928259
-0.73032419
-0.17295425
-0.73461703
-0.18672726
-0.73512329
-0.14561352
-0.75236451
-0.09203881
-0.79061828
-0.04960565
-0.84323261
-0.02222874
-0.90454627
-0.0066408921
-0.97126947
0.0012639892
-1.0420615
0.0047104804
-1.1167593
0.0058185068
-1.1959241
0.0057709598
-1.2804587
0.0051441053
-1.371099
0.0042076016
-1.4683444
0.0031172196
-1.5725913
0.0019990851
-1.6842674
0.00096246135
-1.803979
9.0042217e-05
-1.9323066
-0.00056990531
-2.0692585
-0.0010019989
-2.214979
-0.0012158953
-2.3708362
-0.0012377036
-2.5384954
-0.0010981501
-2.7184735
-0.00082878149
-2.9112533
-0.00046001428
-3.1158022
-0.45671995
0.77283184
-0.40024404
0.36468574
-0.37481512
-0.14466541
-0.37207103
-0.33372843
0.96722995
-0.54300695
0.82549567
-0.6440815
0.34844607
-0.72851617
-0.25194847
-0.76439718
-0.61120365
-0.72843233
-0.579069
-0.62944446
-0.24718476
-0.51203012
0.13738777
-0.43839796
0.35105621
-0.41668922
0.40295095
-0.47945067
0.3764484
-0.54512707
0.29087261
-0.61104188
0.098929577
-0.66018735
-0.10267432
-0.68209978
-0.21457295
-0.68590369
-0.23120349
-0.68681479
-0.18078403
-0.69658222
-0.11193672
-0.72941127
-0.058181366
-0.77912368
-0.024235109
-0.83806908
-0.0053896641
-0.90226185
0.0037807959
-0.97001459
0.0074326931
-1.0409384
0.008305429
-1.1154365
0.0079371007
-1.1944764
0.0070404166
-1.2790415
0.0058870313
-1.369783
0.0045934438
-1.4671331
0.0032544247
-1.5714771
0.0019723964
-1.6832227
0.00084147079
-1.80301
-7.1838815e-05
-1.9314115
-0.00073602235
-2.0684022
-0.0011509143
-2.2140929
-0.0013375231
-2.3699304
-0.0013295801
-2.5376287
-0.0011619039
-2.7177156
-0.00086803927
-2.9107691
-0.00047790094
-3.1155748
-0.52897285
1.0422362
-0.4406295
0.81586593
-0.38568427
0.3786507
-0.36188642
-0.15092061
-0.3621572
-0.3433391
0.9198732
-0.63460603
0.43376136
-0.72676563
-0.2072603
-0.77049785
-0.62424694
-0.74874542
-0.64324847
-0.66204126
-0.33233601
-0.54219865
0.086532321
-0.45911609
0.34370792
-0.42930093
0.42130452
-0.43312781
0.40556693
-0.50626912
0.31587743
-0.56754686
0.10036633
-0.60980915
-0.13462753
-0.62583426
-0.26983944
-0.62422394
-0.28311318
-0.63082844
-0.22180885
-0.64256711
-0.13504874
-0.67058696
-0.06707486
-0.71779524
-0.025444933
-0.77495442
-0.0029623827
-0.83714088
0.0074897897
-0.90235084
0.011166979
-0.97000228
0.011548275
-1.0403557
0.010625364
-1.1144019
0.0092986677
-1.1933142
0.0078495147
-1.2779146
0.006327996
-1.3687367
0.0047662795
-1.4661726
0.0032371124
-1.5705688
0.0018355962
-1.6823598
0.00064550204
-1.8021712
-0.00028164049
-1.9306134
-0.00093067771
-2.0676169
-0.0013152465
-2.2132525
-0.0014663202
-2.3690818
-0.0014238478
-2.5368127
-0.0012255935
-2.7170064
-0.00090631992
-2.9103378
-0.00049487858
-3.1153874
-0.62141696
1.0151055
-0.51131404
1.1156777
-0.42464231
0.85747526
-0.37052687
0.3903884
-0.34895821
-0.16019107
-0.35282664
-0.35582612
0.52388666
-0.7220871
-0.15902035
-0.77229406
-0.63048774
-0.76164865
-0.69925046
-0.69053504
-0.42041243
-0.57185257
0.027797922
-0.48138549
0.32893757
-0.44257495
0.43629668
-0.44231947
0.42978537
-0.45503279
0.33568324
-0.52365134
0.095624197
-0.5602929
-0.17182619
-0.57037658
-0.3330216
-0.56022444
-0.34148115
-0.56284806
-0.26444433
-0.58511443
-0.16091715
-0.61398103
-0.076071279
-0.65905577
-0.025441509
-0.71502604
0.00098924241
-0.77571874
0.012690761
-0.83886771
0.016164981
-0.90371678
0.015731757
-0.97040506
0.01393978
-1.0398719
0.011957003
-1.1134992
0.010092682
-1.1923455
0.0083053359
-1.2770112
0.0065237114
-1.3679337
0.0047579636
-1.4654247
0.0030863487
-1.5698411
0.0016047519
-1.6816263
0.00038752904
-1.8014439
-0.00052929844
-1.9298958
-0.0011462786
-2.0668754
-0.0014895249
-2.2124511
-0.0015985141
-2.36827
-0.0015180377
-2.5360461
-0.0012877134
-2.7163547
-0.00094280472
-2.9099487
-0.00051061245
-3.1152223
-0.71137333
0.61649507
-0.60296647
1.1095537
-0.49367136
1.1874691
-0.40775474
0.89735622
-0.35490497
0.39943123
-0.33597318
-0.17311699
-0.34431957
-0.37221671
-0.10858487
-0.76981078
-0.63293335
-0.76724483
-0.74602065
-0.7126764
-0.50794314
-0.60087825
-0.038237621
-0.50371846
0.30601601
-0.4566722
0.44644341
-0.45069002
0.451618
-0.46175418
0.36753022
-0.48446069
0.088777771
-0.51445147
-0.20888345
-0.52115253
-0.39364003
-0.50750164
-0.4021707
-0.49668442
-0.30408316
-0.52027343
-0.18536029
-0.55811167
-0.08481511
-0.6028808
-0.023755286
-0.65814871
0.0068352819
-0.71784511
0.019688131
-0.77938324
0.02268775
-0.84188667
0.021054694
-0.90534387
0.017997834
-0.97062467
0.015053843
-1.03926
0.012602255
-1.1126521
0.010490386
-1.1915388
0.0084952116
-1.2763277
0.0065191233
-1.3673397
0.0045954778
-1.4648591
0.002821806
-1.5692555
0.001295679
-1.6810151
8.0806597e-05
-1.8007958
-0.00080511702
-1.9292271
-0.0013756133
-2.0661637
-0.0016686888
-2.2116683
-0.0017307181
-2.3674957
-0.0016099987
-2.5353232
-0.0013470012
-2.7157473
-0.0009768249
-2.9095928
-0.00052483436
-3.1150791
-0.76008363
-0.05716718
-0.69444934
0.71063329
-0.58321294
1.2018965
-0.47461715
1.2571009
-0.3902224
0.93532729
-0.33893816
0.40548784
-0.32295659
-0.19055331
-0.3365616
-0.39313878
-0.63450812
-0.76564119
-0.78484274
-0.72622842
-0.59065525
-0.62782783
-0.11097309
-0.52602498
0.27597371
-0.47186419
0.44991981
-0.45806638
0.46977299
-0.46636963
0.39609133
-0.48781545
0.11651393
-0.50987125
-0.24343254
-0.47795974
-0.44756155
-0.465133
-0.46090098
-0.44607713
-0.34270208
-0.45527113
-0.20277717
-0.50044815
-0.091450027
-0.54928918
-0.019958228
-0.60425533
0.014946567
-0.66338629
0.028767109
-0.72373113
0.03098945
-0.78431844
0.027724373
-0.84496912
0.022928606
-0.90647228
0.018628986
-0.97041925
0.01535089
-1.0385128
0.012825225
-1.111864
0.010623555
-1.1908986
0.008481729
-1.2758388
0.0063476644
-1.3669346
0.0043015666
-1.4644486
0.0024618917
-1.5687905
0.00092366197
-1.6804803
-0.00026427536
-1.8002143
-0.0010997918
-1.9285954
-0.0016120555
-2.0654646
-0.0018482211
-2.2109028
-0.0018600029
-2.3667445
-0.0016979424
-2.5346442
-0.001402425
-2.7151808
-0.0010078441
-2.9092615
-0.00053736426
-3.1149396
-0.75687274
-0.6351362
-0.74491971
-0.0039975209
-0.67383585
0.80391009
-0.56101387
1.2910966
-0.45442687
1.3240836
-0.37228185
0.9713238
-0.3227653
0.40838045
-0.31015965
-0.21302922
-0.32967968
-0.41903368
-0.81763243
-0.73066514
-0.66542366
-0.64931524
-0.18780877
-0.54885674
0.23818442
-0.48640425
0.44574581
-0.46556526
0.48275418
-0.46850642
0.42016219
-0.48786981
0.14186384
-0.51077937
-0.2348338
-0.51656401
-0.49611093
-0.42745304
-0.51524667
-0.40824876
-0.38436596
-0.40175744
-0.21404588
-0.44173413
-0.09205268
-0.49781481
-0.013564662
-0.55342252
0.025671997
-0.6122551
0.040169142
-0.67173196
0.041297977
-0.73081994
0.03594894
-0.78909354
0.028870555
-0.84720915
0.022724934
-0.9067991
0.018298754
-0.96977693
0.015226669
-1.0376584
0.012821215
-1.1111708
0.010578473
-1.1904403
0.0083047836
-1.2755432
0.0060336226
-1.3666932
0.0038959297
-1.4641647
0.0020239471
-1.5684127
0.00050345145
-1.6800208
-0.00063428082
-1.7996689
-0.0014048572
-1.9279812
-0.0018497016
-2.0647721
-0.00202423
-2.2101408
-0.0019839414
-2.3660289
-0.0017804045
-2.5339989
-0.0014531507
-2.7146465
-0.0010354677
-2.9089544
-0.00054811089
-3.1148075
-0.72676048
-0.84556589
-0.74382661
-0.63366003
-0.72334941
0.048203509
-0.64935968
0.8949021
-0.53669144
1.3761635
-0.43340917
1.3880001
-0.35414281
1.0053515
-0.30660979
0.40790307
-0.29789447
-0.24088829
-0.32383483
-0.45024751
-0.73017223
-0.66376541
-0.26505001
-0.56992377
0.19127424
-0.50009636
0.43376021
-0.47225989
0.48825805
-0.46847462
0.43807567
-0.48379061
0.16368754
-0.50725894
-0.22398214
-0.51967237
-0.51321986
-0.49753665
-0.56416934
-0.37614874
-0.4279637
-0.36213227
-0.22607588
-0.38758843
-0.084130964
-0.44776978
-0.0034530357
-0.50581777
0.039235976
-0.5644028
0.054077521
-0.62324057
0.053800565
-0.68116792
0.045923031
-0.73749909
0.035971192
-0.79261912
0.027390231
-0.84817272
0.02139593
-0.90628861
0.017585868
-0.96878745
0.014966923
-1.036789
0.012708476
-1.1106318
0.010400838
-1.1901759
0.0079871638
-1.2754276
0.0055954024
-1.3665988
0.0033963908
-1.4639808
0.0015244152