/*--------------------------------*- C++ -*----------------------------------*\
| =========                 |                                                 |
| \\      /  F ield         | OpenFOAM: The Open Source CFD Toolbox           |
|  \\    /   O peration     | Version:  v2012                                 |
|   \\  /    A nd           | Website:  www.openfoam.com                      |
|    \\/     M anipulation  |                                                 |
\*---------------------------------------------------------------------------*/
FoamFile
{
    version     2.0;
    format      ascii;
    class       pointVectorField;
    location    "39.8012744659894295";
    object      pointDisplacement;
}
// * * * * * * * * * * * * * * * * * * * * * * * * * * * * * * * * * * * * * //

dimensions      [0 1 0 0 0 0 0];


internalField   nonuniform List<vector> 
18840
(
(-1.613915 -0 -0)
(-1.6138729 0 0)
(-1.6137472 0 0)
(-1.6135395 0 0)
(-1.6132512 0 0)
(-1.6128823 0 0)
(-1.612433 0 0)
(-1.6119029 0 0)
(-1.6112913 0 0)
(-1.6105973 0 0)
(-1.6098197 0 0)
(-1.608957 0 0)
(-1.6080077 0 0)
(-1.6069698 0 0)
(-1.6058414 0 0)
(-1.6046203 0 0)
(-1.603304 0 0)
(-1.6018902 0 0)
(-1.6003762 0 0)
(-1.5987585 0 0)
(-1.5966759 0 0)
(-1.613915 -0 -0)
(-1.6138716 0 0)
(-1.6137421 0 0)
(-1.6135282 0 0)
(-1.6132312 0 0)
(-1.6128514 0 0)
(-1.6123889 0 0)
(-1.6118434 0 0)
(-1.6112142 0 0)
(-1.6105004 0 0)
(-1.6097007 0 0)
(-1.6088139 0 0)
(-1.6078381 0 0)
(-1.6067716 0 0)
(-1.6056123 0 0)
(-1.604358 0 0)
(-1.6030063 0 0)
(-1.6015547 0 0)
(-1.6000004 0 0)
(-1.59834 0 0)
(-1.5965051 0 0)
(-1.613915 -0 -0)
(-1.6138701 0 0)
(-1.6137363 0 0)
(-1.6135153 0 0)
(-1.6132085 0 0)
(-1.6128163 0 0)
(-1.6123387 0 0)
(-1.6117754 0 0)
(-1.6111258 0 0)
(-1.6103889 0 0)
(-1.6095634 0 0)
(-1.6086477 0 0)
(-1.6076402 0 0)
(-1.6065388 0 0)
(-1.6053414 0 0)
(-1.6040456 0 0)
(-1.6026487 0 0)
(-1.6011481 0 0)
(-1.5995403 0 0)
(-1.5978221 0 0)
(-1.5958966 0 0)
(-1.613915 -0 -0)
(-1.6138686 0 0)
(-1.6137301 0 0)
(-1.6135016 0 0)
(-1.6131842 0 0)
(-1.6127786 0 0)
(-1.6122848 0 0)
(-1.6117024 0 0)
(-1.6110306 0 0)
(-1.6102684 0 0)
(-1.6094145 0 0)
(-1.608467 0 0)
(-1.6074241 0 0)
(-1.6062837 0 0)
(-1.6050432 0 0)
(-1.6037 0 0)
(-1.6022512 0 0)
(-1.6006936 0 0)
(-1.5990236 0 0)
(-1.5972375 0 0)
(-1.5952156 0 0)
(-1.613915 -0 -0)
(-1.6138669 0 0)
(-1.6137236 0 0)
(-1.6134869 0 0)
(-1.6131584 0 0)
(-1.6127385 0 0)
(-1.6122273 0 0)
(-1.6116243 0 0)
(-1.6109287 0 0)
(-1.6101392 0 0)
(-1.6092545 0 0)
(-1.6082725 0 0)
(-1.6071911 0 0)
(-1.6060079 0 0)
(-1.6047201 0 0)
(-1.6033247 0 0)
(-1.6018185 0 0)
(-1.6001978 0 0)
(-1.5984589 0 0)
(-1.5965975 0 0)
(-1.5944749 0 0)
(-1.613915 -0 -0)
(-1.6138652 0 0)
(-1.6137166 0 0)
(-1.6134715 0 0)
(-1.6131311 0 0)
(-1.6126961 0 0)
(-1.6121663 0 0)
(-1.6115414 0 0)
(-1.6108204 0 0)
(-1.610002 0 0)
(-1.6090843 0 0)
(-1.6080654 0 0)
(-1.6069428 0 0)
(-1.6057138 0 0)
(-1.6043753 0 0)
(-1.602924 0 0)
(-1.601356 0 0)
(-1.5996677 0 0)
(-1.5978546 0 0)
(-1.5959124 0 0)
(-1.5936863 0 0)
(-1.613915 -0 -0)
(-1.6138634 0 0)
(-1.6137095 0 0)
(-1.6134553 0 0)
(-1.6131025 0 0)
(-1.6126515 0 0)
(-1.6121023 0 0)
(-1.6114543 0 0)
(-1.6107065 0 0)
(-1.6098575 0 0)
(-1.6089052 0 0)
(-1.6078474 0 0)
(-1.6066814 0 0)
(-1.6054042 0 0)
(-1.6040122 0 0)
(-1.6025019 0 0)
(-1.6008691 0 0)
(-1.5991095 0 0)
(-1.5972184 0 0)
(-1.5951909 0 0)
(-1.5928603 0 0)
(-1.613915 -0 -0)
(-1.6138615 0 0)
(-1.613702 0 0)
(-1.6134386 0 0)
(-1.6130727 0 0)
(-1.6126051 0 0)
(-1.6120356 0 0)
(-1.6113636 0 0)
(-1.610588 0 0)
(-1.6097071 0 0)
(-1.6087186 0 0)
(-1.6076204 0 0)
(-1.6064091 0 0)
(-1.6050817 0 0)
(-1.6036342 0 0)
(-1.6020627 0 0)
(-1.6003625 0 0)
(-1.598529 0 0)
(-1.5965568 0 0)
(-1.594441 0 0)
(-1.5920052 0 0)
(-1.613915 -0 -0)
(-1.6138596 0 0)
(-1.6136944 0 0)
(-1.6134215 0 0)
(-1.6130422 0 0)
(-1.6125574 0 0)
(-1.6119669 0 0)
(-1.6112702 0 0)
(-1.6104657 0 0)
(-1.6095519 0 0)
(-1.6085262 0 0)
(-1.6073861 0 0)
(-1.6061282 0 0)
(-1.6047491 0 0)
(-1.6032443 0 0)
(-1.6016097 0 0)
(-1.5998402 0 0)
(-1.5979307 0 0)
(-1.5958753 0 0)
(-1.5936684 0 0)
(-1.5911285 0 0)
(-1.613915 -0 -0)
(-1.6138577 0 0)
(-1.6136868 0 0)
(-1.6134042 0 0)
(-1.6130113 0 0)
(-1.6125089 0 0)
(-1.611897 0 0)
(-1.6111748 0 0)
(-1.6103408 0 0)
(-1.6093932 0 0)
(-1.6083294 0 0)
(-1.6071464 0 0)
(-1.6058407 0 0)
(-1.6044085 0 0)
(-1.6028452 0 0)
(-1.6011461 0 0)
(-1.5993058 0 0)
(-1.5973186 0 0)
(-1.5951782 0 0)
(-1.5928784 0 0)
(-1.5902363 0 0)
(-1.613915 -0 -0)
(-1.6138557 0 0)
(-1.6136786 0 0)
(-1.6133858 0 0)
(-1.6129784 0 0)
(-1.6124572 0 0)
(-1.6118224 0 0)
(-1.6110729 0 0)
(-1.6102074 0 0)
(-1.6092237 0 0)
(-1.6081191 0 0)
(-1.6068903 0 0)
(-1.6055338 0 0)
(-1.604045 0 0)
(-1.6024196 0 0)
(-1.6006519 0 0)
(-1.5987366 0 0)
(-1.5966671 0 0)
(-1.5944372 0 0)
(-1.5920395 0 0)
(-1.5892955 0 0)
(-1.613915 -0 -0)
(-1.6138729 0 0)
(-1.6137472 0 0)
(-1.6135395 0 0)
(-1.6132512 0 0)
(-1.6128823 0 0)
(-1.612433 0 0)
(-1.6119029 0 0)
(-1.6112913 0 0)
(-1.6105973 0 0)
(-1.6098197 0 0)
(-1.608957 0 0)
(-1.6080077 0 0)
(-1.6069698 0 0)
(-1.6058414 0 0)
(-1.6046203 0 0)
(-1.603304 0 0)
(-1.6018902 0 0)
(-1.6003762 0 0)
(-1.5987585 0 0)
(-1.5966759 0 0)
(-1.613915 -0 -0)
(-1.6138716 0 0)
(-1.6137421 0 0)
(-1.6135282 0 0)
(-1.6132312 0 0)
(-1.6128514 0 0)
(-1.6123889 0 0)
(-1.6118434 0 0)
(-1.6112142 0 0)
(-1.6105004 0 0)
(-1.6097007 0 0)
(-1.6088139 0 0)
(-1.6078381 0 0)
(-1.6067716 0 0)
(-1.6056123 0 0)
(-1.604358 0 0)
(-1.6030063 0 0)
(-1.6015547 0 0)
(-1.6000004 0 0)
(-1.59834 0 0)
(-1.5965051 0 0)
(-1.613915 -0 -0)
(-1.6138701 0 0)
(-1.6137363 0 0)
(-1.6135153 0 0)
(-1.6132085 0 0)
(-1.6128163 0 0)
(-1.6123387 0 0)
(-1.6117754 0 0)
(-1.6111258 0 0)
(-1.6103889 0 0)
(-1.6095634 0 0)
(-1.6086477 0 0)
(-1.6076402 0 0)
(-1.6065388 0 0)
(-1.6053414 0 0)
(-1.6040456 0 0)
(-1.6026487 0 0)
(-1.6011481 0 0)
(-1.5995403 0 0)
(-1.5978221 0 0)
(-1.5958966 0 0)
(-1.613915 -0 -0)
(-1.6138686 0 0)
(-1.6137301 0 0)
(-1.6135016 0 0)
(-1.6131842 0 0)
(-1.6127786 0 0)
(-1.6122848 0 0)
(-1.6117024 0 0)
(-1.6110306 0 0)
(-1.6102684 0 0)
(-1.6094145 0 0)
(-1.608467 0 0)
(-1.6074241 0 0)
(-1.6062837 0 0)
(-1.6050432 0 0)
(-1.6037 0 0)
(-1.6022512 0 0)
(-1.6006936 0 0)
(-1.5990236 0 0)
(-1.5972375 0 0)
(-1.5952156 0 0)
(-1.613915 -0 -0)
(-1.6138669 0 0)
(-1.6137236 0 0)
(-1.6134869 0 0)
(-1.6131584 0 0)
(-1.6127385 0 0)
(-1.6122273 0 0)
(-1.6116243 0 0)
(-1.6109287 0 0)
(-1.6101392 0 0)
(-1.6092545 0 0)
(-1.6082725 0 0)
(-1.6071911 0 0)
(-1.6060079 0 0)
(-1.6047201 0 0)
(-1.6033247 0 0)
(-1.6018185 0 0)
(-1.6001978 0 0)
(-1.5984589 0 0)
(-1.5965975 0 0)
(-1.5944749 0 0)
(-1.613915 -0 -0)
(-1.6138652 0 0)
(-1.6137166 0 0)
(-1.6134715 0 0)
(-1.6131311 0 0)
(-1.6126961 0 0)
(-1.6121663 0 0)
(-1.6115414 0 0)
(-1.6108204 0 0)
(-1.610002 0 0)
(-1.6090843 0 0)
(-1.6080654 0 0)
(-1.6069428 0 0)
(-1.6057138 0 0)
(-1.6043753 0 0)
(-1.602924 0 0)
(-1.601356 0 0)
(-1.5996677 0 0)
(-1.5978546 0 0)
(-1.5959124 0 0)
(-1.5936863 0 0)
(-1.613915 -0 -0)
(-1.6138634 0 0)
(-1.6137095 0 0)
(-1.6134553 0 0)
(-1.6131025 0 0)
(-1.6126515 0 0)
(-1.6121023 0 0)
(-1.6114543 0 0)
(-1.6107065 0 0)
(-1.6098575 0 0)
(-1.6089052 0 0)
(-1.6078474 0 0)
(-1.6066814 0 0)
(-1.6054042 0 0)
(-1.6040122 0 0)
(-1.6025019 0 0)
(-1.6008691 0 0)
(-1.5991095 0 0)
(-1.5972184 0 0)
(-1.5951909 0 0)
(-1.5928603 0 0)
(-1.613915 -0 -0)
(-1.6138615 0 0)
(-1.613702 0 0)
(-1.6134386 0 0)
(-1.6130727 0 0)
(-1.6126051 0 0)
(-1.6120356 0 0)
(-1.6113636 0 0)
(-1.610588 0 0)
(-1.6097071 0 0)
(-1.6087186 0 0)
(-1.6076204 0 0)
(-1.6064091 0 0)
(-1.6050817 0 0)
(-1.6036342 0 0)
(-1.6020627 0 0)
(-1.6003625 0 0)
(-1.598529 0 0)
(-1.5965568 0 0)
(-1.594441 0 0)
(-1.5920052 0 0)
(-1.613915 -0 -0)
(-1.6138596 0 0)
(-1.6136944 0 0)
(-1.6134215 0 0)
(-1.6130422 0 0)
(-1.6125574 0 0)
(-1.6119669 0 0)
(-1.6112702 0 0)
(-1.6104657 0 0)
(-1.6095519 0 0)
(-1.6085262 0 0)
(-1.6073861 0 0)
(-1.6061282 0 0)
(-1.6047491 0 0)
(-1.6032443 0 0)
(-1.6016097 0 0)
(-1.5998402 0 0)
(-1.5979307 0 0)
(-1.5958753 0 0)
(-1.5936684 0 0)
(-1.5911285 0 0)
(-1.613915 -0 -0)
(-1.6138577 0 0)
(-1.6136868 0 0)
(-1.6134042 0 0)
(-1.6130113 0 0)
(-1.6125089 0 0)
(-1.611897 0 0)
(-1.6111748 0 0)
(-1.6103408 0 0)
(-1.6093932 0 0)
(-1.6083294 0 0)
(-1.6071464 0 0)
(-1.6058407 0 0)
(-1.6044085 0 0)
(-1.6028452 0 0)
(-1.6011461 0 0)
(-1.5993058 0 0)
(-1.5973186 0 0)
(-1.5951782 0 0)
(-1.5928784 0 0)
(-1.5902363 0 0)
(-1.613915 -0 -0)
(-1.6138557 0 0)
(-1.6136786 0 0)
(-1.6133858 0 0)
(-1.6129784 0 0)
(-1.6124572 0 0)
(-1.6118224 0 0)
(-1.6110729 0 0)
(-1.6102074 0 0)
(-1.6092237 0 0)
(-1.6081191 0 0)
(-1.6068903 0 0)
(-1.6055338 0 0)
(-1.604045 0 0)
(-1.6024196 0 0)
(-1.6006519 0 0)
(-1.5987366 0 0)
(-1.5966671 0 0)
(-1.5944372 0 0)
(-1.5920395 0 0)
(-1.5892955 0 0)
(-1.613915 -0 -0)
(-1.6138827 0 0)
(-1.6137862 0 0)
(-1.6136261 0 0)
(-1.613402 0 0)
(-1.613113 0 0)
(-1.6127574 0 0)
(-1.6123328 0 0)
(-1.6118364 0 0)
(-1.6112648 0 0)
(-1.6106146 0 0)
(-1.6098819 0 0)
(-1.6090626 0 0)
(-1.6081524 0 0)
(-1.6071468 0 0)
(-1.6060409 0 0)
(-1.6048297 0 0)
(-1.6035078 0 0)
(-1.60207 0 0)
(-1.60051 0 0)
(-1.5986777 0 0)
(-1.613915 -0 -0)
(-1.6138817 0 0)
(-1.6137821 0 0)
(-1.6136169 0 0)
(-1.6133857 0 0)
(-1.6130877 0 0)
(-1.6127215 0 0)
(-1.6122848 0 0)
(-1.6117751 0 0)
(-1.6111894 0 0)
(-1.6105244 0 0)
(-1.6097765 0 0)
(-1.6089418 0 0)
(-1.6080161 0 0)
(-1.6069951 0 0)
(-1.6058738 0 0)
(-1.6046473 0 0)
(-1.6033103 0 0)
(-1.6018575 0 0)
(-1.6002827 0 0)
(-1.5984398 0 0)
(-1.613915 -0 -0)
(-1.6138806 0 0)
(-1.6137779 0 0)
(-1.6136073 0 0)
(-1.6133688 0 0)
(-1.6130618 0 0)
(-1.6126849 0 0)
(-1.6122362 0 0)
(-1.6117135 0 0)
(-1.611114 0 0)
(-1.6104347 0 0)
(-1.6096722 0 0)
(-1.6088229 0 0)
(-1.6078826 0 0)
(-1.6068471 0 0)
(-1.6057117 0 0)
(-1.6044716 0 0)
(-1.6031215 0 0)
(-1.6016563 0 0)
(-1.6000699 0 0)
(-1.598223 0 0)
(-1.613915 -0 -0)
(-1.6138796 0 0)
(-1.6137737 0 0)
(-1.6135981 0 0)
(-1.6133527 0 0)
(-1.6130371 0 0)
(-1.6126503 0 0)
(-1.6121905 0 0)
(-1.6116559 0 0)
(-1.6110438 0 0)
(-1.6103517 0 0)
(-1.6095762 0 0)
(-1.608714 0 0)
(-1.6077613 0 0)
(-1.6067139 0 0)
(-1.6055674 0 0)
(-1.6043171 0 0)
(-1.6029579 0 0)
(-1.601485 0 0)
(-1.5998923 0 0)
(-1.5980502 0 0)
(-1.613915 -0 -0)
(-1.6138786 0 0)
(-1.6137698 0 0)
(-1.6135893 0 0)
(-1.6133374 0 0)
(-1.6130137 0 0)
(-1.6126176 0 0)
(-1.6121475 0 0)
(-1.6116018 0 0)
(-1.6109782 0 0)
(-1.6102743 0 0)
(-1.6094872 0 0)
(-1.6086136 0 0)
(-1.6076501 0 0)
(-1.6065928 0 0)
(-1.6054375 0 0)
(-1.6041799 0 0)
(-1.6028151 0 0)
(-1.6013384 0 0)
(-1.5997441 0 0)
(-1.5979151 0 0)
(-1.613915 -0 -0)
(-1.6138776 0 0)
(-1.613766 0 0)
(-1.6135809 0 0)
(-1.6133227 0 0)
(-1.6129915 0 0)
(-1.6125865 0 0)
(-1.6121067 0 0)
(-1.6115505 0 0)
(-1.6109161 0 0)
(-1.6102012 0 0)
(-1.6094032 0 0)
(-1.6085192 0 0)
(-1.607546 0 0)
(-1.6064802 0 0)
(-1.6053177 0 0)
(-1.6040547 0 0)
(-1.6026865 0 0)
(-1.6012089 0 0)
(-1.5996164 0 0)
(-1.5978077 0 0)
(-1.613915 -0 -0)
(-1.6138767 0 0)
(-1.6137623 0 0)
(-1.6135728 0 0)
(-1.6133086 0 0)
(-1.6129701 0 0)
(-1.6125566 0 0)
(-1.6120674 0 0)
(-1.6115012 0 0)
(-1.6108562 0 0)
(-1.6101306 0 0)
(-1.6093221 0 0)
(-1.608428 0 0)
(-1.6074455 0 0)
(-1.6063716 0 0)
(-1.6052025 0 0)
(-1.6039348 0 0)
(-1.6025643 0 0)
(-1.6010869 0 0)
(-1.5994977 0 0)
(-1.5977149 0 0)
(-1.613915 -0 -0)
(-1.6138758 0 0)
(-1.6137586 0 0)
(-1.6135648 0 0)
(-1.6132949 0 0)
(-1.6129491 0 0)
(-1.6125274 0 0)
(-1.6120289 0 0)
(-1.6114525 0 0)
(-1.6107969 0 0)
(-1.6100605 0 0)
(-1.6092411 0 0)
(-1.6083365 0 0)
(-1.6073442 0 0)
(-1.6062615 0 0)
(-1.6050852 0 0)
(-1.603812 0 0)
(-1.6024383 0 0)
(-1.6009605 0 0)
(-1.5993741 0 0)
(-1.5976209 0 0)
(-1.613915 -0 -0)
(-1.6138749 0 0)
(-1.613755 0 0)
(-1.6135568 0 0)
(-1.6132811 0 0)
(-1.6129283 0 0)
(-1.6124981 0 0)
(-1.61199 0 0)
(-1.6114032 0 0)
(-1.6107365 0 0)
(-1.6099884 0 0)
(-1.6091572 0 0)
(-1.6082407 0 0)
(-1.6072371 0 0)
(-1.6061437 0 0)
(-1.6049578 0 0)
(-1.6036764 0 0)
(-1.6022968 0 0)
(-1.6008153 0 0)
(-1.5992283 0 0)
(-1.5975057 0 0)
(-1.613915 -0 -0)
(-1.6138739 0 0)
(-1.6137514 0 0)
(-1.6135488 0 0)
(-1.6132672 0 0)
(-1.612907 0 0)
(-1.6124681 0 0)
(-1.61195 0 0)
(-1.611352 0 0)
(-1.6106732 0 0)
(-1.6099121 0 0)
(-1.6090674 0 0)
(-1.608137 0 0)
(-1.6071193 0 0)
(-1.6060119 0 0)
(-1.6048126 0 0)
(-1.6035186 0 0)
(-1.6021276 0 0)
(-1.6006362 0 0)
(-1.5990415 0 0)
(-1.5973492 0 0)
(-1.613915 -0 -0)
(-1.6138827 0 0)
(-1.6137862 0 0)
(-1.6136261 0 0)
(-1.613402 0 0)
(-1.613113 0 0)
(-1.6127574 0 0)
(-1.6123328 0 0)
(-1.6118364 0 0)
(-1.6112648 0 0)
(-1.6106146 0 0)
(-1.6098819 0 0)
(-1.6090626 0 0)
(-1.6081524 0 0)
(-1.6071468 0 0)
(-1.6060409 0 0)
(-1.6048297 0 0)
(-1.6035078 0 0)
(-1.60207 0 0)
(-1.60051 0 0)
(-1.5986777 0 0)
(-1.613915 -0 -0)
(-1.6138817 0 0)
(-1.6137821 0 0)
(-1.6136169 0 0)
(-1.6133857 0 0)
(-1.6130877 0 0)
(-1.6127215 0 0)
(-1.6122848 0 0)
(-1.6117751 0 0)
(-1.6111894 0 0)
(-1.6105244 0 0)
(-1.6097765 0 0)
(-1.6089418 0 0)
(-1.6080161 0 0)
(-1.6069951 0 0)
(-1.6058738 0 0)
(-1.6046473 0 0)
(-1.6033103 0 0)
(-1.6018575 0 0)
(-1.6002827 0 0)
(-1.5984398 0 0)
(-1.613915 -0 -0)
(-1.6138806 0 0)
(-1.6137779 0 0)
(-1.6136073 0 0)
(-1.6133688 0 0)
(-1.6130618 0 0)
(-1.6126849 0 0)
(-1.6122362 0 0)
(-1.6117135 0 0)
(-1.611114 0 0)
(-1.6104347 0 0)
(-1.6096722 0 0)
(-1.6088229 0 0)
(-1.6078826 0 0)
(-1.6068471 0 0)
(-1.6057117 0 0)
(-1.6044716 0 0)
(-1.6031215 0 0)
(-1.6016563 0 0)
(-1.6000699 0 0)
(-1.598223 0 0)
(-1.613915 -0 -0)
(-1.6138796 0 0)
(-1.6137737 0 0)
(-1.6135981 0 0)
(-1.6133527 0 0)
(-1.6130371 0 0)
(-1.6126503 0 0)
(-1.6121905 0 0)
(-1.6116559 0 0)
(-1.6110438 0 0)
(-1.6103517 0 0)
(-1.6095762 0 0)
(-1.608714 0 0)
(-1.6077613 0 0)
(-1.6067139 0 0)
(-1.6055674 0 0)
(-1.6043171 0 0)
(-1.6029579 0 0)
(-1.601485 0 0)
(-1.5998923 0 0)
(-1.5980502 0 0)
(-1.613915 -0 -0)
(-1.6138786 0 0)
(-1.6137698 0 0)
(-1.6135893 0 0)
(-1.6133374 0 0)
(-1.6130137 0 0)
(-1.6126176 0 0)
(-1.6121475 0 0)
(-1.6116018 0 0)
(-1.6109782 0 0)
(-1.6102743 0 0)
(-1.6094872 0 0)
(-1.6086136 0 0)
(-1.6076501 0 0)
(-1.6065928 0 0)
(-1.6054375 0 0)
(-1.6041799 0 0)
(-1.6028151 0 0)
(-1.6013384 0 0)
(-1.5997441 0 0)
(-1.5979151 0 0)
(-1.613915 -0 -0)
(-1.6138776 0 0)
(-1.613766 0 0)
(-1.6135809 0 0)
(-1.6133227 0 0)
(-1.6129915 0 0)
(-1.6125865 0 0)
(-1.6121067 0 0)
(-1.6115505 0 0)
(-1.6109161 0 0)
(-1.6102012 0 0)
(-1.6094032 0 0)
(-1.6085192 0 0)
(-1.607546 0 0)
(-1.6064802 0 0)
(-1.6053177 0 0)
(-1.6040547 0 0)
(-1.6026865 0 0)
(-1.6012089 0 0)
(-1.5996164 0 0)
(-1.5978077 0 0)
(-1.613915 -0 -0)
(-1.6138767 0 0)
(-1.6137623 0 0)
(-1.6135728 0 0)
(-1.6133086 0 0)
(-1.6129701 0 0)
(-1.6125566 0 0)
(-1.6120674 0 0)
(-1.6115012 0 0)
(-1.6108562 0 0)
(-1.6101306 0 0)
(-1.6093221 0 0)
(-1.608428 0 0)
(-1.6074455 0 0)
(-1.6063716 0 0)
(-1.6052025 0 0)
(-1.6039348 0 0)
(-1.6025643 0 0)
(-1.6010869 0 0)
(-1.5994977 0 0)
(-1.5977149 0 0)
(-1.613915 -0 -0)
(-1.6138758 0 0)
(-1.6137586 0 0)
(-1.6135648 0 0)
(-1.6132949 0 0)
(-1.6129491 0 0)
(-1.6125274 0 0)
(-1.6120289 0 0)
(-1.6114525 0 0)
(-1.6107969 0 0)
(-1.6100605 0 0)
(-1.6092411 0 0)
(-1.6083365 0 0)
(-1.6073442 0 0)
(-1.6062615 0 0)
(-1.6050852 0 0)
(-1.603812 0 0)
(-1.6024383 0 0)
(-1.6009605 0 0)
(-1.5993741 0 0)
(-1.5976209 0 0)
(-1.613915 -0 -0)
(-1.6138749 0 0)
(-1.613755 0 0)
(-1.6135568 0 0)
(-1.6132811 0 0)
(-1.6129283 0 0)
(-1.6124981 0 0)
(-1.61199 0 0)
(-1.6114032 0 0)
(-1.6107365 0 0)
(-1.6099884 0 0)
(-1.6091572 0 0)
(-1.6082407 0 0)
(-1.6072371 0 0)
(-1.6061437 0 0)
(-1.6049578 0 0)
(-1.6036764 0 0)
(-1.6022968 0 0)
(-1.6008153 0 0)
(-1.5992283 0 0)
(-1.5975057 0 0)
(-1.613915 -0 -0)
(-1.6138739 0 0)
(-1.6137514 0 0)
(-1.6135488 0 0)
(-1.6132672 0 0)
(-1.612907 0 0)
(-1.6124681 0 0)
(-1.61195 0 0)
(-1.611352 0 0)
(-1.6106732 0 0)
(-1.6099121 0 0)
(-1.6090674 0 0)
(-1.608137 0 0)
(-1.6071193 0 0)
(-1.6060119 0 0)
(-1.6048126 0 0)
(-1.6035186 0 0)
(-1.6021276 0 0)
(-1.6006362 0 0)
(-1.5990415 0 0)
(-1.5973492 0 0)
(-1.5963763 0 0)
(-1.5937297 0 0)
(-1.5908779 0 0)
(-1.5878153 0 0)
(-1.584538 0 0)
(-1.5810348 0 0)
(-1.5772749 0 0)
(-1.5732054 0 0)
(-1.5687689 0 0)
(-1.5639143 0 0)
(-1.5585887 0 0)
(-1.5527339 0 0)
(-1.5462872 0 0)
(-1.5391856 0 0)
(-1.5313662 0 0)
(-1.5227671 0 0)
(-1.5133294 0 0)
(-1.5030013 0 0)
(-1.4917383 0 0)
(-1.4794781 0 0)
(-1.466143 0 0)
(-1.4516479 0 0)
(-1.4359112 0 0)
(-1.4188623 0 0)
(-1.4004286 0 0)
(-1.3805229 0 0)
(-1.3590316 0 0)
(-1.3358432 0 0)
(-1.3108594 0 0)
(-1.2839893 0 0)
(-1.2550944 0 0)
(-1.2239686 0 0)
(-1.1904394 0 0)
(-1.1543845 0 0)
(-1.1156424 0 0)
(-1.073971 0 0)
(-1.0290677 0 0)
(-0.98069816 0 0)
(-0.92865041 0 0)
(-0.87255818 0 0)
(-0.81209519 0 0)
(-0.74699351 0 0)
(-0.67685764 0 0)
(-0.60121036 0 0)
(-0.51954828 0 0)
(-0.43131348 0 0)
(-0.33585237 0 0)
(-0.23252405 0 0)
(-0.12068984 0 0)
(0 0 0)
(-1.5961366 0 0)
(-1.5934925 0 0)
(-1.5906432 0 0)
(-1.5875841 0 0)
(-1.5843126 0 0)
(-1.5808192 0 0)
(-1.5770736 0 0)
(-1.5730223 0 0)
(-1.5686074 0 0)
(-1.5637771 0 0)
(-1.5584776 0 0)
(-1.5526497 0 0)
(-1.5462294 0 0)
(-1.5391527 0 0)
(-1.5313571 0 0)
(-1.5227811 0 0)
(-1.5133658 0 0)
(-1.5030588 0 0)
(-1.4918149 0 0)
(-1.4795725 0 0)
(-1.4662534 0 0)
(-1.4517729 0 0)
(-1.4360496 0 0)
(-1.4190134 0 0)
(-1.4005924 0 0)
(-1.380698 0 0)
(-1.3592168 0 0)
(-1.3360365 0 0)
(-1.3110583 0 0)
(-1.2841923 0 0)
(-1.2553011 0 0)
(-1.2241777 0 0)
(-1.1906491 0 0)
(-1.1545956 0 0)
(-1.115854 0 0)
(-1.074182 0 0)
(-1.0292761 0 0)
(-0.98090109 0 0)
(-0.92884701 0 0)
(-0.8727464 0 0)
(-0.81227361 0 0)
(-0.7471607 0 0)
(-0.67701126 0 0)
(-0.60134793 0 0)
(-0.51966672 0 0)
(-0.43141139 0 0)
(-0.33592891 0 0)
(-0.23257673 0 0)
(-0.12071652 0 0)
(0 0 0)
(-1.5959305 0 0)
(-1.5933038 0 0)
(-1.5904718 0 0)
(-1.5874303 0 0)
(-1.5841776 0 0)
(-1.5807059 0 0)
(-1.5769857 0 0)
(-1.5729636 0 0)
(-1.5685813 0 0)
(-1.563787 0 0)
(-1.5585267 0 0)
(-1.5527392 0 0)
(-1.5463588 0 0)
(-1.5393216 0 0)
(-1.5315653 0 0)
(-1.523028 0 0)
(-1.5136504 0 0)
(-1.503381 0 0)
(-1.4921726 0 0)
(-1.4799631 0 0)
(-1.4666753 0 0)
(-1.4522248 0 0)
(-1.4365294 0 0)
(-1.4195189 0 0)
(-1.4011241 0 0)
(-1.381254 0 0)
(-1.359794 0 0)
(-1.336632 0 0)
(-1.3116696 0 0)
(-1.2848166 0 0)
(-1.2559357 0 0)
(-1.2248199 0 0)
(-1.191296 0 0)
(-1.155246 0 0)
(-1.1165047 0 0)
(-1.0748302 0 0)
(-1.0299177 0 0)
(-0.98153044 0 0)
(-0.92946081 0 0)
(-0.87334001 0 0)
(-0.81284139 0 0)
(-0.74769661 0 0)
(-0.67750869 0 0)
(-0.60179909 0 0)
(-0.52006282 0 0)
(-0.43174581 0 0)
(-0.3361946 0 0)
(-0.23276368 0 0)
(-0.12081432 0 0)
(0 0 0)
(-1.5957828 0 0)
(-1.5931906 0 0)
(-1.5903923 0 0)
(-1.5873836 0 0)
(-1.584164 0 0)
(-1.5807265 0 0)
(-1.5770429 0 0)
(-1.5730606 0 0)
(-1.5687227 0 0)
(-1.5639773 0 0)
(-1.5587692 0 0)
(-1.5530361 0 0)
(-1.5467108 0 0)
(-1.5397287 0 0)
(-1.5320277 0 0)
(-1.5235458 0 0)
(-1.5142231 0 0)
(-1.5040076 0 0)
(-1.4928518 0 0)
(-1.4806924 0 0)
(-1.4674517 0 0)
(-1.4530462 0 0)
(-1.4373935 0 0)
(-1.4204232 0 0)
(-1.4020673 0 0)
(-1.3822335 0 0)
(-1.3608067 0 0)
(-1.3376736 0 0)
(-1.3127356 0 0)
(-1.2859032 0 0)
(-1.2570394 0 0)
(-1.2259358 0 0)
(-1.1924189 0 0)
(-1.1563733 0 0)
(-1.1176311 0 0)
(-1.07595 0 0)
(-1.0310247 0 0)
(-0.98261732 0 0)
(-0.93052076 0 0)
(-0.87436534 0 0)
(-0.81382327 0 0)
(-0.74862388 0 0)
(-0.67836961 0 0)
(-0.60258066 0 0)
(-0.5207511 0 0)
(-0.4323285 0 0)
(-0.33665821 0 0)
(-0.23309087 0 0)
(-0.1209862 0 0)
(0 0 0)
(-1.5956875 0 0)
(-1.5931471 0 0)
(-1.5903994 0 0)
(-1.5874396 0 0)
(-1.5842674 0 0)
(-1.5808767 0 0)
(-1.5772409 0 0)
(-1.5733095 0 0)
(-1.5690272 0 0)
(-1.5643424 0 0)
(-1.5591991 0 0)
(-1.5535334 0 0)
(-1.5472776 0 0)
(-1.5403661 0 0)
(-1.5327369 0 0)
(-1.5243267 0 0)
(-1.5150749 0 0)
(-1.5049306 0 0)
(-1.4938441 0 0)
(-1.4817508 0 0)
(-1.4685733 0 0)
(-1.4542286 0 0)
(-1.4386333 0 0)
(-1.4217167 0 0)
(-1.403413 0 0)
(-1.383628 0 0)
(-1.3622451 0 0)
(-1.339151 0 0)
(-1.3142472 0 0)
(-1.2874435 0 0)
(-1.2586027 0 0)
(-1.2275156 0 0)
(-1.1940089 0 0)
(-1.1579682 0 0)
(-1.1192237 0 0)
(-1.0775328 0 0)
(-1.032589 0 0)
(-0.98415315 0 0)
(-0.9320188 0 0)
(-0.87581516 0 0)
(-0.81521173 0 0)
(-0.74993507 0 0)
(-0.6795876 0 0)
(-0.60368713 0 0)
(-0.52172648 0 0)
(-0.43315514 0 0)
(-0.33731639 0 0)
(-0.23355572 0 0)
(-0.12123084 0 0)
(0 0 0)
(-1.5956339 0 0)
(-1.5931628 0 0)
(-1.5904824 0 0)
(-1.5875871 0 0)
(-1.5844768 0 0)
(-1.581146 0 0)
(-1.5775697 0 0)
(-1.5737001 0 0)
(-1.5694843 0 0)
(-1.5648711 0 0)
(-1.5598042 0 0)
(-1.5542191 0 0)
(-1.5480467 0 0)
(-1.5412209 0 0)
(-1.5336791 0 0)
(-1.525357 0 0)
(-1.516193 0 0)
(-1.5061359 0 0)
(-1.4951354 0 0)
(-1.4831252 0 0)
(-1.4700268 0 0)
(-1.4557576 0 0)
(-1.4402345 0 0)
(-1.423386 0 0)
(-1.405147 0 0)
(-1.3854227 0 0)
(-1.3640953 0 0)
(-1.3410506 0 0)
(-1.3161898 0 0)
(-1.2894227 0 0)
(-1.2606116 0 0)
(-1.2295457 0 0)
(-1.1960518 0 0)
(-1.1600171 0 0)
(-1.1212696 0 0)
(-1.0795652 0 0)
(-1.0345971 0 0)
(-0.9861256 0 0)
(-0.93394287 0 0)
(-0.8776774 0 0)
(-0.81699571 0 0)
(-0.7516201 0 0)
(-0.68115289 0 0)
(-0.60510954 0 0)
(-0.52298139 0 0)
(-0.43421944 0 0)
(-0.3381639 0 0)
(-0.23415475 0 0)
(-0.12154643 0 0)
(0 0 0)
(-1.5956086 0 0)
(-1.5932234 0 0)
(-1.5906262 0 0)
(-1.5878109 0 0)
(-1.584777 0 0)
(-1.5815195 0 0)
(-1.5780145 0 0)
(-1.5742171 0 0)
(-1.5700776 0 0)
(-1.5655465 0 0)
(-1.5605678 0 0)
(-1.5550758 0 0)
(-1.5490004 0 0)
(-1.5422752 0 0)
(-1.5348366 0 0)
(-1.5266184 0 0)
(-1.5175584 0 0)
(-1.5076054 0 0)
(-1.4967072 0 0)
(-1.4847962 0 0)
(-1.4717932 0 0)
(-1.4576152 0 0)
(-1.4421786 0 0)
(-1.425412 0 0)
(-1.4072511 0 0)
(-1.3875992 0 0)
(-1.3663378 0 0)
(-1.3433532 0 0)
(-1.3185452 0 0)
(-1.2918227 0 0)
(-1.2630473 0 0)
(-1.2320074 0 0)
(-1.1985299 0 0)
(-1.1625022 0 0)
(-1.1237506 0 0)
(-1.0820301 0 0)
(-1.0370327 0 0)
(-0.98851814 0 0)
(-0.93627747 0 0)
(-0.87993737 0 0)
(-0.81916064 0 0)
(-0.75366502 0 0)
(-0.68305305 0 0)
(-0.60683679 0 0)
(-0.52450588 0 0)
(-0.43551295 0 0)
(-0.33919432 0 0)
(-0.23488328 0 0)
(-0.12193039 0 0)
(0 0 0)
(-1.5955944 0 0)
(-1.5933112 0 0)
(-1.5908126 0 0)
(-1.5880921 0 0)
(-1.5851489 0 0)
(-1.581978 0 0)
(-1.578556 0 0)
(-1.5748407 0 0)
(-1.5707871 0 0)
(-1.5663486 0 0)
(-1.5614695 0 0)
(-1.5560829 0 0)
(-1.5501173 0 0)
(-1.5435066 0 0)
(-1.5361863 0 0)
(-1.5280878 0 0)
(-1.5191481 0 0)
(-1.5093155 0 0)
(-1.4985364 0 0)
(-1.4867413 0 0)
(-1.4738496 0 0)
(-1.4597776 0 0)
(-1.4444422 0 0)
(-1.4277721 0 0)
(-1.4097018 0 0)
(-1.3901341 0 0)
(-1.3689504 0 0)
(-1.3460363 0 0)
(-1.3212904 0 0)
(-1.2946206 0 0)
(-1.2658875 0 0)
(-1.2348786 0 0)
(-1.2014207 0 0)
(-1.1654019 0 0)
(-1.1266457 0 0)
(-1.084906 0 0)
(-1.0398745 0 0)
(-0.99131088 0 0)
(-0.93900309 0 0)
(-0.88257619 0 0)
(-0.82168884 0 0)
(-0.75605352 0 0)
(-0.68527272 0 0)
(-0.60885487 0 0)
(-0.52628783 0 0)
(-0.43702551 0 0)
(-0.34039944 0 0)
(-0.2357356 0 0)
(-0.12237973 0 0)
(0 0 0)
(-1.5955704 0 0)
(-1.5934052 0 0)
(-1.5910205 0 0)
(-1.5884096 0 0)
(-1.5855717 0 0)
(-1.5825011 0 0)
(-1.5791729 0 0)
(-1.5755505 0 0)
(-1.5715929 0 0)
(-1.5672557 0 0)
(-1.562485 0 0)
(-1.5572142 0 0)
(-1.5513717 0 0)
(-1.5448905 0 0)
(-1.5377038 0 0)
(-1.5297402 0 0)
(-1.5209362 0 0)
(-1.5112403 0 0)
(-1.500596 0 0)
(-1.4889328 0 0)
(-1.4761686 0 0)
(-1.4622182 0 0)
(-1.4469988 0 0)
(-1.430439 0 0)
(-1.4124729 0 0)
(-1.3930009 0 0)
(-1.3719054 0 0)
(-1.3490727 0 0)
(-1.3243995 0 0)
(-1.2977905 0 0)
(-1.2691057 0 0)
(-1.2381329 0 0)
(-1.204699 0 0)
(-1.1686907 0 0)
(-1.1299293 0 0)
(-1.0881684 0 0)
(-1.0430992 0 0)
(-0.99448027 0 0)
(-0.94209732 0 0)
(-0.88557243 0 0)
(-0.82455949 0 0)
(-0.75876579 0 0)
(-0.68779393 0 0)
(-0.61114791 0 0)
(-0.5283132 0 0)
(-0.43874511 0 0)
(-0.34176975 0 0)
(-0.2367049 0 0)
(-0.12289087 0 0)
(0 0 0)
(-1.5955167 0 0)
(-1.5934871 0 0)
(-1.5912329 0 0)
(-1.5887481 0 0)
(-1.5860295 0 0)
(-1.5830696 0 0)
(-1.5798456 0 0)
(-1.5763254 0 0)
(-1.5724722 0 0)
(-1.5682439 0 0)
(-1.5635903 0 0)
(-1.5584467 0 0)
(-1.5527406 0 0)
(-1.5464034 0 0)
(-1.5393644 0 0)
(-1.5315489 0 0)
(-1.522894 0 0)
(-1.5133488 0 0)
(-1.5028558 0 0)
(-1.491342 0 0)
(-1.4787206 0 0)
(-1.4649052 0 0)
(-1.4498159 0 0)
(-1.433381 0 0)
(-1.415531 0 0)
(-1.3961659 0 0)
(-1.3751695 0 0)
(-1.3524291 0 0)
(-1.3278382 0 0)
(-1.301298 0 0)
(-1.2726675 0 0)
(-1.241736 0 0)
(-1.2083303 0 0)
(-1.1723348 0 0)
(-1.1335678 0 0)
(-1.0917835 0 0)
(-1.0466731 0 0)
(-0.99799428 0 0)
(-0.9455288 0 0)
(-0.88889587 0 0)
(-0.82774417 0 0)
(-0.7617755 0 0)
(-0.69059204 0 0)
(-0.61369349 0 0)
(-0.53056265 0 0)
(-0.4406555 0 0)
(-0.34329236 0 0)
(-0.23778242 0 0)
(-0.12345929 0 0)
(0 0 0)
(-1.5949443 0 0)
(-1.5930377 0 0)
(-1.5909041 0 0)
(-1.5885359 0 0)
(-1.5859292 0 0)
(-1.5830706 0 0)
(-1.5799404 0 0)
(-1.5765118 0 0)
(-1.5727509 0 0)
(-1.5686172 0 0)
(-1.5640643 0 0)
(-1.5590298 0 0)
(-1.5534406 0 0)
(-1.5472268 0 0)
(-1.5403167 0 0)
(-1.5326338 0 0)
(-1.5241144 0 0)
(-1.514709 0 0)
(-1.50436 0 0)
(-1.4929891 0 0)
(-1.4805055 0 0)
(-1.4668255 0 0)
(-1.4518704 0 0)
(-1.4355659 0 0)
(-1.4178415 0 0)
(-1.3985953 0 0)
(-1.3777117 0 0)
(-1.3550798 0 0)
(-1.3305902 0 0)
(-1.3041399 0 0)
(-1.2755875 0 0)
(-1.2447246 0 0)
(-1.2113761 0 0)
(-1.1754236 0 0)
(-1.1366836 0 0)
(-1.0949105 0 0)
(-1.0497965 0 0)
(-1.0010949 0 0)
(-0.94858566 0 0)
(-0.89188479 0 0)
(-0.83063424 0 0)
(-0.76453114 0 0)
(-0.69317684 0 0)
(-0.61606599 0 0)
(-0.53267757 0 0)
(-0.44246861 0 0)
(-0.34475291 0 0)
(-0.23883019 0 0)
(-0.12402664 0 0)
(0 0 0)
(-1.5963763 0 0)
(-1.5937297 0 0)
(-1.5908779 0 0)
(-1.5878153 0 0)
(-1.584538 0 0)
(-1.5810348 0 0)
(-1.5772749 0 0)
(-1.5732054 0 0)
(-1.5687689 0 0)
(-1.5639143 0 0)
(-1.5585887 0 0)
(-1.5527339 0 0)
(-1.5462872 0 0)
(-1.5391856 0 0)
(-1.5313662 0 0)
(-1.5227671 0 0)
(-1.5133294 0 0)
(-1.5030013 0 0)
(-1.4917383 0 0)
(-1.4794781 0 0)
(-1.466143 0 0)
(-1.4516479 0 0)
(-1.4359112 0 0)
(-1.4188623 0 0)
(-1.4004286 0 0)
(-1.3805229 0 0)
(-1.3590316 0 0)
(-1.3358432 0 0)
(-1.3108594 0 0)
(-1.2839893 0 0)
(-1.2550944 0 0)
(-1.2239686 0 0)
(-1.1904394 0 0)
(-1.1543845 0 0)
(-1.1156424 0 0)
(-1.073971 0 0)
(-1.0290677 0 0)
(-0.98069816 0 0)
(-0.92865041 0 0)
(-0.87255818 0 0)
(-0.81209519 0 0)
(-0.74699351 0 0)
(-0.67685764 0 0)
(-0.60121036 0 0)
(-0.51954828 0 0)
(-0.43131348 0 0)
(-0.33585237 0 0)
(-0.23252405 0 0)
(-0.12068984 0 0)
(0 0 0)
(-1.5961366 0 0)
(-1.5934925 0 0)
(-1.5906432 0 0)
(-1.5875841 0 0)
(-1.5843126 0 0)
(-1.5808192 0 0)
(-1.5770736 0 0)
(-1.5730223 0 0)
(-1.5686074 0 0)
(-1.5637771 0 0)
(-1.5584776 0 0)
(-1.5526497 0 0)
(-1.5462294 0 0)
(-1.5391527 0 0)
(-1.5313571 0 0)
(-1.5227811 0 0)
(-1.5133658 0 0)
(-1.5030588 0 0)
(-1.4918149 0 0)
(-1.4795725 0 0)
(-1.4662534 0 0)
(-1.4517729 0 0)
(-1.4360496 0 0)
(-1.4190134 0 0)
(-1.4005924 0 0)
(-1.380698 0 0)
(-1.3592168 0 0)
(-1.3360365 0 0)
(-1.3110583 0 0)
(-1.2841923 0 0)
(-1.2553011 0 0)
(-1.2241777 0 0)
(-1.1906491 0 0)
(-1.1545956 0 0)
(-1.115854 0 0)
(-1.074182 0 0)
(-1.0292761 0 0)
(-0.98090109 0 0)
(-0.92884701 0 0)
(-0.8727464 0 0)
(-0.81227361 0 0)
(-0.7471607 0 0)
(-0.67701126 0 0)
(-0.60134793 0 0)
(-0.51966672 0 0)
(-0.43141139 0 0)
(-0.33592891 0 0)
(-0.23257673 0 0)
(-0.12071652 0 0)
(0 0 0)
(-1.5959305 0 0)
(-1.5933038 0 0)
(-1.5904718 0 0)
(-1.5874303 0 0)
(-1.5841776 0 0)
(-1.5807059 0 0)
(-1.5769857 0 0)
(-1.5729636 0 0)
(-1.5685813 0 0)
(-1.563787 0 0)
(-1.5585267 0 0)
(-1.5527392 0 0)
(-1.5463588 0 0)
(-1.5393216 0 0)
(-1.5315653 0 0)
(-1.523028 0 0)
(-1.5136504 0 0)
(-1.503381 0 0)
(-1.4921726 0 0)
(-1.4799631 0 0)
(-1.4666753 0 0)
(-1.4522248 0 0)
(-1.4365294 0 0)
(-1.4195189 0 0)
(-1.4011241 0 0)
(-1.381254 0 0)
(-1.359794 0 0)
(-1.336632 0 0)
(-1.3116696 0 0)
(-1.2848166 0 0)
(-1.2559357 0 0)
(-1.2248199 0 0)
(-1.191296 0 0)
(-1.155246 0 0)
(-1.1165047 0 0)
(-1.0748302 0 0)
(-1.0299177 0 0)
(-0.98153044 0 0)
(-0.92946081 0 0)
(-0.87334001 0 0)
(-0.81284139 0 0)
(-0.74769661 0 0)
(-0.67750869 0 0)
(-0.60179909 0 0)
(-0.52006282 0 0)
(-0.43174581 0 0)
(-0.3361946 0 0)
(-0.23276368 0 0)
(-0.12081432 0 0)
(0 0 0)
(-1.5957828 0 0)
(-1.5931906 0 0)
(-1.5903923 0 0)
(-1.5873836 0 0)
(-1.584164 0 0)
(-1.5807265 0 0)
(-1.5770429 0 0)
(-1.5730606 0 0)
(-1.5687227 0 0)
(-1.5639773 0 0)
(-1.5587692 0 0)
(-1.5530361 0 0)
(-1.5467108 0 0)
(-1.5397287 0 0)
(-1.5320277 0 0)
(-1.5235458 0 0)
(-1.5142231 0 0)
(-1.5040076 0 0)
(-1.4928518 0 0)
(-1.4806924 0 0)
(-1.4674517 0 0)
(-1.4530462 0 0)
(-1.4373935 0 0)
(-1.4204232 0 0)
(-1.4020673 0 0)
(-1.3822335 0 0)
(-1.3608067 0 0)
(-1.3376736 0 0)
(-1.3127356 0 0)
(-1.2859032 0 0)
(-1.2570394 0 0)
(-1.2259358 0 0)
(-1.1924189 0 0)
(-1.1563733 0 0)
(-1.1176311 0 0)
(-1.07595 0 0)
(-1.0310247 0 0)
(-0.98261732 0 0)
(-0.93052076 0 0)
(-0.87436534 0 0)
(-0.81382327 0 0)
(-0.74862388 0 0)
(-0.67836961 0 0)
(-0.60258066 0 0)
(-0.5207511 0 0)
(-0.4323285 0 0)
(-0.33665821 0 0)
(-0.23309087 0 0)
(-0.1209862 0 0)
(0 0 0)
(-1.5956875 0 0)
(-1.5931471 0 0)
(-1.5903994 0 0)
(-1.5874396 0 0)
(-1.5842674 0 0)
(-1.5808767 0 0)
(-1.5772409 0 0)
(-1.5733095 0 0)
(-1.5690272 0 0)
(-1.5643424 0 0)
(-1.5591991 0 0)
(-1.5535334 0 0)
(-1.5472776 0 0)
(-1.5403661 0 0)
(-1.5327369 0 0)
(-1.5243267 0 0)
(-1.5150749 0 0)
(-1.5049306 0 0)
(-1.4938441 0 0)
(-1.4817508 0 0)
(-1.4685733 0 0)
(-1.4542286 0 0)
(-1.4386333 0 0)
(-1.4217167 0 0)
(-1.403413 0 0)
(-1.383628 0 0)
(-1.3622451 0 0)
(-1.339151 0 0)
(-1.3142472 0 0)
(-1.2874435 0 0)
(-1.2586027 0 0)
(-1.2275156 0 0)
(-1.1940089 0 0)
(-1.1579682 0 0)
(-1.1192237 0 0)
(-1.0775328 0 0)
(-1.032589 0 0)
(-0.98415315 0 0)
(-0.9320188 0 0)
(-0.87581516 0 0)
(-0.81521173 0 0)
(-0.74993507 0 0)
(-0.6795876 0 0)
(-0.60368713 0 0)
(-0.52172648 0 0)
(-0.43315514 0 0)
(-0.33731639 0 0)
(-0.23355572 0 0)
(-0.12123084 0 0)
(0 0 0)
(-1.5956339 0 0)
(-1.5931628 0 0)
(-1.5904824 0 0)
(-1.5875871 0 0)
(-1.5844768 0 0)
(-1.581146 0 0)
(-1.5775697 0 0)
(-1.5737001 0 0)
(-1.5694843 0 0)
(-1.5648711 0 0)
(-1.5598042 0 0)
(-1.5542191 0 0)
(-1.5480467 0 0)
(-1.5412209 0 0)
(-1.5336791 0 0)
(-1.525357 0 0)
(-1.516193 0 0)
(-1.5061359 0 0)
(-1.4951354 0 0)
(-1.4831252 0 0)
(-1.4700268 0 0)
(-1.4557576 0 0)
(-1.4402345 0 0)
(-1.423386 0 0)
(-1.405147 0 0)
(-1.3854227 0 0)
(-1.3640953 0 0)
(-1.3410506 0 0)
(-1.3161898 0 0)
(-1.2894227 0 0)
(-1.2606116 0 0)
(-1.2295457 0 0)
(-1.1960518 0 0)
(-1.1600171 0 0)
(-1.1212696 0 0)