/*--------------------------------*- C++ -*----------------------------------*\
| =========                 |                                                 |
| \\      /  F ield         | OpenFOAM: The Open Source CFD Toolbox           |
|  \\    /   O peration     | Version:  v2012                                 |
|   \\  /    A nd           | Website:  www.openfoam.com                      |
|    \\/     M anipulation  |                                                 |
\*---------------------------------------------------------------------------*/
FoamFile
{
    version     2.0;
    format      ascii;
    class       volVectorField;
    location    "39.8012744659894295";
    object      U;
}
// * * * * * * * * * * * * * * * * * * * * * * * * * * * * * * * * * * * * * //

dimensions      [0 1 -1 0 0 0 0];


internalField   nonuniform List<vector> 
9200
(
(2.5527456 -0.0016253394 2.790645e-22)
(2.5535027 -0.0048140717 -4.465968e-22)
(2.5574781 -0.0013891528 -2.7731582e-24)
(2.554747 -0.0077375368 -2.7051888e-22)
(2.558297 -0.0039899161 4.3893922e-22)
(2.5591616 -0.0012418237 -2.0532077e-23)
(2.5565395 -0.010770893 -3.2262129e-23)
(2.5596335 -0.0063719973 -4.7976155e-22)
(2.5599814 -0.0035788687 9.1816574e-22)
(2.5613497 -0.0010960205 3.9400657e-22)
(2.5587787 -0.013427305 5.5039177e-23)
(2.561532 -0.0087919023 -2.4034152e-23)
(2.5612836 -0.0057052911 2.2624793e-22)
(2.5621991 -0.0032026827 -1.1119668e-21)
(2.5630293 -0.0009665141 -2.7345203e-22)
(2.5614303 -0.0161201 -3.2153694e-22)
(2.5637823 -0.010802227 4.8649101e-23)
(2.5631397 -0.0078764477 -3.6567025e-23)
(2.5634996 -0.0050787387 2.6367989e-22)
(2.5638963 -0.002916685 -8.5843297e-22)
(2.5645625 -0.00085213662 -2.8175734e-22)
(2.5644357 -0.018440936 3.2653562e-22)
(2.5663761 -0.012820524 -2.570292e-22)
(2.5653169 -0.0096573473 3.1774596e-22)
(2.5653517 -0.0070171968 1.4512596e-22)
(2.5651797 -0.0045754826 -2.9908218e-22)
(2.5654387 -0.0026983703 3.2078294e-22)
(2.5659041 -0.00074737737 3.0463111e-22)
(2.5677195 -0.020565083 7.2148948e-22)
(2.5691428 -0.014483758 -2.6277894e-22)
(2.5678298 -0.011472382 -1.0410942e-21)
(2.5675074 -0.0085758847 -8.505181e-23)
(2.5670043 -0.0063367231 1.562805e-22)
(2.5667052 -0.0041598118 -2.7811502e-24)
(2.5667734 -0.00252365 1.1774852e-21)
(2.5671045 -0.00064763194 2.9478289e-22)
(2.5712442 -0.022245713 0)
(2.5720093 -0.016010005 1.982765e-22)
(2.570505 -0.012987673 -2.9903744e-21)
(2.5700021 -0.01018492 -2.2673523e-22)
(2.5691259 -0.007720521 -3.2234649e-22)
(2.5685049 -0.0057813256 -3.998209e-22)
(2.5680187 -0.0038115422 -3.7596443e-23)
(2.5679582 -0.0023668807 3.3487206e-22)
(2.5681693 -0.00054964146 1.327883e-23)
(2.5749538 -0.023451159 -1.5254873e-22)
(2.5748471 -0.017250364 1.5242656e-21)
(2.5732981 -0.014435122 1.0125122e-21)
(2.5726571 -0.011533397 5.4291164e-22)
(2.5715936 -0.0091580309 -3.3347064e-22)
(2.5705889 -0.0070174716 8.5176969e-22)
(2.5697939 -0.0053288735 -6.563064e-22)
(2.5691878 -0.0035098445 -9.9807169e-22)
(2.5690093 -0.0022064236 -6.0149653e-22)
(2.569105 -0.00045228668 3.0728359e-22)
(2.5787626 -0.024045482 1.9438799e-21)
(2.5775148 -0.018307623 2.70795e-21)
(2.5760824 -0.015692123 3.878718e-21)
(2.5754581 -0.012866143 -4.6159245e-22)
(2.574239 -0.010341925 -5.7694464e-22)
(2.5730102 -0.0083016115 9.6556066e-22)
(2.5718284 -0.0064540653 1.5993267e-21)
(2.5709495 -0.0049535061 1.1050688e-21)
(2.5702374 -0.0032298224 1.0617599e-22)
(2.5699426 -0.0020282942 -2.9331835e-22)
(2.569912 -0.00035600813 4.9888477e-22)
(2.5825795 -0.023968843 1.9848556e-22)
(2.579822 -0.019105673 -2.7224859e-21)
(2.5787452 -0.016864217 1.2429995e-21)
(2.5783081 -0.014099945 -2.1652357e-21)
(2.5770852 -0.011499668 2.8391503e-21)
(2.5756004 -0.0093139287 -1.6892345e-21)
(2.5741707 -0.0076283079 -7.2228435e-22)
(2.57294 -0.0060105492 1.5100716e-22)
(2.5720047 -0.0046191999 7.9752107e-22)
(2.5711894 -0.0029445842 1.4636758e-21)
(2.5707623 -0.0018259811 1.2019105e-22)
(2.5705877 -0.00026208513 -2.6295764e-22)
(2.5865538 -0.023405092 0)
(2.5815882 -0.0196632 -4.8027519e-21)
(2.5811496 -0.017994977 -3.4559918e-22)
(2.5811686 -0.015381347 1.3857175e-22)
(2.5800722 -0.012543727 5.1618206e-22)
(2.5783971 -0.010244569 -8.2478146e-22)
(2.5766376 -0.0085152123 -1.1068687e-21)
(2.5751975 -0.0071384526 -8.8748892e-22)
(2.5739771 -0.0056446615 -8.4265306e-22)
(2.5729876 -0.0042826992 2.4616123e-22)
(2.5720476 -0.0026300526 -1.7921379e-22)
(2.5714649 -0.0015988741 -1.7965828e-22)
(2.5711316 -0.00017161012 -5.8519428e-22)
(2.5898873 -0.021694711 5.2370435e-21)
(2.582735 -0.019281147 3.4526471e-21)
(2.5831655 -0.019195416 3.9126321e-21)
(2.5839933 -0.016767093 -2.1408533e-21)
(2.5832264 -0.013594676 -2.2746143e-21)
(2.581355 -0.010971394 -3.1533206e-22)
(2.5792539 -0.0092656864 -5.0511325e-22)
(2.5775116 -0.007993589 2.0916914e-21)
(2.576182 -0.0067877606 -2.2949844e-22)
(2.5749856 -0.0052930535 -1.2188149e-21)
(2.5739025 -0.0039022367 -1.3838328e-21)
(2.5728041 -0.0022705021 -6.6604734e-22)
(2.5720413 -0.0013494893 9.0984097e-23)
(2.5715542 -8.2391176e-05 4.7550228e-23)
(2.5930502 -0.019091296 -7.7586523e-21)
(2.5834815 -0.018779183 0)
(2.5840605 -0.020760834 -1.107099e-21)
(2.5867537 -0.01840886 -1.8219955e-23)
(2.5865727 -0.014698757 9.2323289e-22)
(2.5845347 -0.011554196 1.1611067e-21)
(2.5819537 -0.0097184317 2.24177e-21)
(2.5798733 -0.0087036826 -3.0224623e-22)
(2.57838 -0.0077135435 -1.047376e-21)
(2.5772042 -0.006485986 1.0621944e-22)
(2.5759754 -0.0048870252 -3.4623069e-22)
(2.5747363 -0.0034481597 -3.553101e-23)
(2.5734427 -0.0018611263 1.3394886e-22)
(2.5724855 -0.0010805666 3.0611603e-22)
(2.5718625 2.4304008e-05 1.9023858e-22)
(2.5959344 -0.015460212 -6.997398e-21)
(2.5824715 -0.018195222 -2.1556173e-21)
(2.5851018 -0.022480719 -1.6339283e-20)
(2.5894983 -0.02047637 6.0815644e-22)
(2.5901767 -0.015977766 -2.2958255e-21)
(2.5880009 -0.011964605 1.5069144e-21)
(2.5847769 -0.009865034 -7.4144623e-22)
(2.582167 -0.0090914646 -4.0710792e-22)
(2.5805236 -0.0085528487 -2.5783451e-21)
(2.5793838 -0.0075500302 2.0550178e-22)
(2.5782878 -0.0061236713 1.2041763e-21)
(2.576926 -0.0043725454 7.2908337e-22)
(2.5754652 -0.0029095267 1.6312114e-22)
(2.5739482 -0.0014077651 -4.8738298e-23)
(2.5728022 -0.00079391303 5.2519075e-23)
(2.5720237 0.0001410776 1.5123612e-23)
(2.5983911 -0.010502696 1.379539e-21)
(2.580291 -0.017092573 -1.5397261e-20)
(2.5856353 -0.024623652 1.0219054e-21)
(2.5919943 -0.023217541 1.6109293e-21)
(2.5941293 -0.017549277 -2.2971167e-21)
(2.5918823 -0.012223859 -2.4763471e-21)
(2.587759 -0.0095873136 8.2430786e-22)
(2.5843664 -0.0091066473 -4.5997213e-21)
(2.5824394 -0.0091494924 -1.2593026e-21)
(2.5814509 -0.0086431912 1.2015492e-21)
(2.5805755 -0.0073309594 3.8426311e-22)
(2.5794031 -0.0056075692 2.0880572e-22)
(2.5777959 -0.0037241679 -2.4656726e-22)
(2.5760644 -0.0022943639 -2.6473248e-22)
(2.574316 -0.00092655385 -3.7151686e-22)
(2.5730025 -0.00050183044 -4.3650181e-23)
(2.572066 0.00023377374 5.0778145e-23)
(2.6002901 -0.0042187451 9.6295045e-21)
(2.5766744 -0.015847393 -3.6551171e-21)
(2.5849391 -0.02731193 8.5829079e-21)
(2.594334 -0.026662891 7.2041454e-22)
(2.5985873 -0.019572064 2.4427616e-22)
(2.596344 -0.012346891 -2.9321564e-21)
(2.5909978 -0.0087938787 1.4011661e-21)
(2.5864265 -0.0085692491 -1.1638126e-21)
(2.5840267 -0.0094328402 3.5828186e-21)
(2.5831913 -0.0096505914 3.3159174e-21)
(2.5827618 -0.008704126 4.7756551e-22)
(2.5819151 -0.0068988804 8.8793213e-22)
(2.580482 -0.0048863562 3.2404345e-23)
(2.5785389 -0.0029490464 -2.4920333e-24)
(2.5765154 -0.0016268142 1.2661829e-22)
(2.5745475 -0.00044218685 -1.0314277e-22)
(2.5730959 -0.00023020963 1.6922248e-23)
(2.5720393 0.00029951946 8.6897842e-23)
(2.6015452 0.0033799707 -5.08579e-21)
(2.5714427 -0.014250362 2.5121917e-20)
(2.5830634 -0.030707438 -9.1223872e-21)
(2.5964995 -0.031093934 -1.0524061e-20)
(2.6036559 -0.022240452 0)
(2.6015942 -0.012358128 1.3093992e-21)
(2.59463 -0.0073532732 -4.1052185e-21)
(2.588337 -0.007332013 5.6325561e-22)
(2.5851464 -0.0092838088 5.7992153e-21)
(2.5844532 -0.010564326 1.0338759e-21)
(2.5846228 -0.010188365 0)
(2.5844056 -0.0084764389 -8.2575722e-22)
(2.5832938 -0.0061576599 -5.4400389e-22)
(2.5814429 -0.0039598195 2.9393375e-22)
(2.5791172 -0.0020821508 4.2264476e-22)
(2.5768119 -0.00094262199 -4.6162244e-22)
(2.574644 1.9952121e-05 4.3577749e-23)
(2.573084 3.2091819e-05 4.4487804e-23)
(2.5719333 0.00035408178 5.265118e-23)
(2.6020459 0.01232945 -5.9061057e-21)
(2.5644194 -0.012218694 6.3275437e-20)
(2.5798543 -0.034938804 1.3852725e-20)
(2.5984292 -0.036760487 1.5915114e-20)
(2.6094848 -0.025754796 -1.4225545e-21)
(2.6078865 -0.012305494 1.3337168e-21)
(2.5988315 -0.0051275319 1.4937146e-21)
(2.5901184 -0.0051665939 2.977843e-21)
(2.5856491 -0.0085180968 1.5507422e-21)
(2.5850237 -0.011305374 -2.7592664e-21)
(2.5859916 -0.011844625 5.4042075e-22)
(2.5866711 -0.010341898 2.2747745e-21)
(2.5862126 -0.0077893971 1.8584761e-21)
(2.5845747 -0.0050908297 -3.5707846e-22)
(2.5822138 -0.0028736227 -1.6041216e-22)
(2.5795091 -0.0011760262 2.5788485e-22)
(2.5769625 -0.00027858074 -4.8545445e-23)
(2.5746271 0.00044110681 1.9673615e-23)
(2.5729757 0.00027299383 -1.4753567e-23)
(2.5717663 0.00041310036 -8.3851298e-23)
(2.6016998 0.022576051 -7.0780623e-21)
(2.5554821 -0.0097486253 -4.9558746e-20)
(2.5751684 -0.040129442 4.1539237e-20)
(2.6000723 -0.043895267 -1.8929948e-20)
(2.6162149 -0.030349123 -1.5427055e-21)
(2.6154959 -0.012237635 4.7906928e-21)
(2.6038169 -0.0019549877 -7.3626788e-21)
(2.5917859 -0.0018212531 -2.8367686e-21)
(2.5854105 -0.0069344168 6.2771863e-21)
(2.5846684 -0.011784683 5.4234714e-21)
(2.5866123 -0.013688255 5.2946025e-22)
(2.5885718 -0.012619914 1.7940997e-21)
(2.589079 -0.0098224213 9.0626441e-22)
(2.5879606 -0.0065946179 1.0872276e-21)
(2.5856311 -0.0037560967 -1.3280832e-22)
(2.5827478 -0.0017043777 7.3566895e-23)
(2.5797104 -0.00028900129 -4.8790579e-22)
(2.5769812 0.00033425363 3.874456e-22)
(2.5745299 0.00081017499 -6.5838327e-23)
(2.5727976 0.00046963266 -1.062256e-22)
(2.5715551 0.00047435411 -2.1804682e-22)
(2.6003419 0.034028707 -1.7576126e-20)
(2.5445607 -0.0067287639 -6.1154334e-20)
(2.5688178 -0.046381036 5.675772e-20)
(2.6013541 -0.052722834 -2.519926e-20)
(2.6239861 -0.036278611 -5.8974352e-21)
(2.6247214 -0.012230841 -6.2763505e-21)
(2.6098315 0.0023376762 -8.0700211e-21)
(2.5933918 0.002984593 -1.0144458e-20)
(2.5842645 -0.0042751272 -1.0803179e-21)
(2.5831281 -0.011897749 3.4723488e-21)
(2.5862897 -0.015740639 -6.8001326e-21)
(2.5899018 -0.015418604 -6.769652e-21)
(2.5918115 -0.012423729 -1.1762517e-21)
(2.5914971 -0.0085259498 5.7641884e-22)
(2.5894369 -0.0049618091 1.2356129e-21)
(2.5863743 -0.0022634069 -7.9122679e-22)
(2.5830313 -0.00054014251 1.2758588e-22)
(2.5797375 0.00052544832 -1.2667109e-22)
(2.576884 0.00086907716 1.6488975e-22)
(2.5743682 0.001118852 1.7055475e-22)
(2.572574 0.00059584594 3.378849e-23)
(2.5713095 0.00052631228 -1.3397548e-22)
(2.5976443 0.046543478 -1.2749306e-20)
(2.5317317 -0.0031458931 8.0913589e-20)
(2.5606747 -0.053791347 1.212274e-21)
(2.6021849 -0.063463674 5.3234369e-20)
(2.6329178 -0.043792657 -2.1651786e-21)
(2.6358619 -0.012359119 -7.3005073e-21)
(2.6171397 0.0079310757 5.4235008e-22)
(2.594982 0.0095751614 8.1102735e-21)
(2.5820463 -0.00028543282 -3.5376069e-21)
(2.580138 -0.01150318 -1.1964842e-20)
(2.5846849 -0.018030696 1.7837422e-21)
(2.5904551 -0.018861112 6.1125662e-21)
(2.5942746 -0.015761347 1.8635758e-21)
(2.5951763 -0.011061546 1.941945e-21)
(2.5935823 -0.0065327342 1.4440929e-21)
(2.5904854 -0.0030478482 -1.2052828e-21)
(2.5867671 -0.00074606703 1.6448185e-22)
(2.5830814 0.00053813114 -2.7793715e-23)
(2.5796267 0.0012289163 1.3564071e-22)
(2.5766999 0.0013104313 1.3179625e-22)
(2.5741502 0.0013654709 -2.0336304e-22)
(2.572321 0.00071397767 3.6070344e-22)
(2.5710419 0.000564506 3.1712577e-22)
(2.5934639 0.059892285 2.3046645e-20)
(2.5170486 0.0010632534 -3.5322232e-20)
(2.5508384 -0.062384783 -1.4263445e-19)
(2.6025804 -0.076289166 9.8384441e-20)
(2.6431253 -0.053134354 8.2604501e-21)
(2.6492477 -0.01272887 3.3138896e-21)
(2.6260094 0.015023554 -2.7158617e-21)
(2.5966067 0.018297367 1.1464543e-20)
(2.5785745 0.0053474407 1.149766e-21)
(2.575373 -0.010460962 -5.928351e-21)
(2.5815075 -0.020581652 3.027984e-20)
(2.5899903 -0.023097591 -2.0065184e-21)
(2.5963456 -0.020031212 -3.216626e-22)
(2.5989528 -0.014393894 -2.8173179e-22)
(2.5981313 -0.008620686 -9.7099762e-22)
(2.5950734 -0.0040640503 1.2469743e-21)
(2.5910317 -0.0010531716 -1.1778648e-21)
(2.5868245 0.00066715926 -1.0070016e-22)
(2.5829358 0.0014670058 -3.2732154e-23)
(2.5794155 0.0017993149 -1.7641853e-23)
(2.5764609 0.001654931 -7.9137034e-23)
(2.5738981 0.0015530569 -1.1244049e-22)
(2.5720513 0.0008315709 -1.8762215e-22)
(2.5707596 0.00058966164 4.1865181e-22)
(2.5880801 0.073813916 1.52195e-20)
(2.5006296 0.0058092413 -1.0463389e-19)
(2.539369 -0.072236323 -5.838573e-20)
(2.6025476 -0.091183751 2.8909385e-20)
(2.6544047 -0.06448809 1.6610263e-21)
(2.6652249 -0.013484602 -4.5352429e-21)
(2.6368552 0.023794396 5.1799552e-22)
(2.5983082 0.029515401 4.7676578e-21)
(2.573636 0.01296688 -4.6787828e-21)
(2.5685044 -0.0086113041 1.4614689e-20)
(2.5764158 -0.023425391 5.9073047e-21)
(2.5882526 -0.028287985 -1.5288036e-20)
(2.5978776 -0.025469808 -1.5983723e-21)
(2.6028096 -0.0187453 -3.3269432e-21)
(2.6031294 -0.011399764 6.2116855e-21)
(2.6002566 -0.0054083388 -1.7182451e-21)
(2.5958347 -0.0014186786 -8.8638044e-22)
(2.5910863 0.00082309144 2.0958973e-22)
(2.5866029 0.0018742032 -3.0704809e-22)
(2.5826479 0.0022053463 3.2956142e-22)
(2.5791388 0.0022287417 -6.2244249e-23)
(2.5761927 0.0019089599 -1.6980684e-23)
(2.5736355 0.0016869666 1.8372453e-22)
(2.5717741 0.00090407161 -2.842661e-22)
(2.5704734 0.00060681681 -5.4861269e-22)
(2.581368 0.088223024 -2.9450615e-20)
(2.4824762 0.011302448 1.2382443e-19)
(2.5257649 -0.083271622 -6.0552265e-20)
(2.6023195 -0.10809393 -1.0982782e-19)
(2.6653819 -0.077684357 -2.6786223e-20)
(2.6823831 -0.014808655 1.7355194e-20)
(2.6500742 0.034359941 -3.5030497e-21)
(2.6003819 0.043589414 -7.4563052e-21)
(2.5670007 0.022907605 -1.3497003e-20)
(2.5591641 -0.0057889523 -1.9968015e-20)
(2.5690571 -0.026583179 -4.3575748e-20)
(2.5849719 -0.034610756 1.871869e-20)
(2.5987176 -0.032322764 8.3563263e-21)
(2.6067212 -0.024391198 2.4675614e-21)
(2.6086706 -0.015069116 1.5354674e-21)
(2.6061522 -0.007195539 -1.130625e-21)
(2.6013192 -0.0018638433 -3.0219213e-23)
(2.5958657 0.0010966986 4.1126407e-22)
(2.5907281 0.0024190126 -4.4708912e-22)
(2.5861831 0.0028119963 -2.1757922e-22)
(2.582278 0.0027391617 -1.7150262e-22)
(2.5788329 0.0025227133 -7.9823827e-23)
(2.575917 0.0020813528 -7.8333615e-23)
(2.5733727 0.001775057 -1.4539085e-23)
(2.5714966 0.00094893664 1.1285938e-22)
(2.5701887 0.00061939046 -3.1933742e-22)
(2.5714464 0.10296921 4.1012454e-21)
(2.4625896 0.017493678 2.3583736e-20)
(2.5091442 -0.095058354 8.2184125e-20)
(2.5997695 -0.12697514 -3.1707363e-20)
(2.6778864 -0.092156909 6.0140098e-21)
(2.6975204 -0.016318463 7.2686104e-21)
(2.6641159 0.046947222 -3.8100836e-21)
(2.6027256 0.060835222 -9.1265929e-21)
(2.5586748 0.035508863 -4.0330966e-21)
(2.5469468 -0.0018398264 -2.5634951e-20)
(2.5590675 -0.030122911 -1.136404e-20)
(2.5798745 -0.04223507 -2.0118785e-21)
(2.5987034 -0.040862852 -4.0629598e-21)
(2.6106633 -0.031622103 -1.1102287e-20)
(2.6148601 -0.01988924 3.3912738e-21)
(2.6129476 -0.0095515983 2.7646252e-21)
(2.6076383 -0.0024149663 0)
(2.601298 0.0015465379 0)
(2.5952807 0.0032270728 0)
(2.5900793 0.0036303631 -1.5975388e-22)
(2.585653 0.003455671 -3.9816358e-22)
(2.5818802 0.0030753924 2.1953235e-22)
(2.5785284 0.0026957454 -1.953547e-22)
(2.5756504 0.002183687 1.4621547e-22)
(2.5731158 0.0018268865 -1.0048037e-22)
(2.5712246 0.00098263065 -5.3473507e-22)
(2.5699076 0.00062859157 -3.1005423e-22)
(2.5558912 0.11742278 2.4334325e-20)
(2.4409488 0.024931313 -1.5844359e-19)
(2.4891696 -0.10733438 1.0699032e-19)
(2.5937178 -0.14793243 4.7817563e-20)
(2.6889763 -0.10799389 8.4935407e-20)
(2.715233 -0.016506542 -2.6821023e-20)
(2.6728357 0.062862681 8.4714214e-21)
(2.6005172 0.08186358 2.3059713e-20)
(2.5481998 0.051145038 6.1176194e-20)
(2.5315809 0.0033813031 6.4225736e-20)
(2.5460639 -0.034098288 3.1287903e-20)
(2.5726913 -0.051374862 -2.5865398e-20)
(2.5976689 -0.051349155 -1.5049902e-20)
(2.614602 -0.040763659 7.3814512e-22)
(2.621821 -0.026142934 6.0835431e-21)
(2.6208611 -0.01266001 -5.8729296e-21)
(2.6150277 -0.0030880021 -4.2971246e-21)
(2.6075264 0.0022417203 -2.6641374e-22)
(2.6003564 0.0044265143 -6.8017436e-22)
(2.5942668 0.0048060015 5.3980383e-22)
(2.5892767 0.004415434 1.1257978e-21)
(2.5850947 0.0038138644 4.3080834e-22)
(2.5814991 0.0032356963 -5.7027971e-22)
(2.5782481 0.0027680103 3.1366262e-22)
(2.5754037 0.0022310009 9.2338538e-23)
(2.5728715 0.0018518006 7.1872854e-23)
(2.5709617 0.001005048 3.9160315e-23)
(2.5696325 0.00063578075 4.2021308e-23)
(2.5351978 0.13104859 0)
(2.4175379 0.032629605 9.0077853e-20)
(2.4665181 -0.11972881 1.1353701e-19)
(2.5846113 -0.17115916 1.6083514e-19)
(2.7007739 -0.12701409 -6.2362958e-20)
(2.739358 -0.016831544 7.8460424e-21)
(2.6777745 0.082845148 -1.3235e-20)
(2.5873912 0.10794306 -7.277647e-20)
(2.5301531 0.070090905 4.1102709e-20)
(2.5126517 0.010102299 5.4483187e-20)
(2.5297215 -0.038595417 5.6683748e-20)
(2.5631843 -0.062199812 -2.3137038e-20)
(2.5954487 -0.06404886 8.3419175e-21)
(2.6184891 -0.052134639 -3.0232615e-21)
(2.6296789 -0.034165467 -9.9477987e-21)
(2.6301589 -0.016722321 1.1489721e-20)
(2.6237702 -0.0039353583 6.0847385e-21)
(2.6147722 0.0032887092 1.6779901e-21)
(2.6060474 0.0061622891 0)
(2.5987801 0.006512308 1.010715e-22)
(2.5930359 0.0057665361 4.1747594e-23)
(2.588448 0.004786596 -3.238481e-22)
(2.584576 0.0039195115 0)
(2.5811677 0.0032508373 8.6113516e-24)
(2.5780074 0.0027623088 -5.913836e-22)
(2.575184 0.0022386044 -4.6028836e-22)
(2.5726431 0.0018590294 1.135421e-23)
(2.5707095 0.0010217122 7.4626649e-22)
(2.5693649 0.00064234713 1.0367643e-21)
(2.5100665 0.14408176 -2.7644504e-21)
(2.3921006 0.041302127 3.1605037e-20)
(2.4422938 -0.13254577 -2.5083312e-20)
(2.5730932 -0.19663868 -2.4525112e-20)
(2.7143837 -0.15085383 4.2092241e-20)
(2.7787941 -0.022573092 1.9938785e-20)
(2.7115849 0.10379939 3.7165741e-21)
(2.5774548 0.13862408 1.5741944e-20)
(2.4984324 0.091959689 -2.9860168e-20)
(2.4869613 0.018205291 -5.9834452e-20)
(2.5097675 -0.043659544 -7.3875324e-20)
(2.5511409 -0.074907894 6.7622988e-21)
(2.5919016 -0.079174596 -2.5975317e-20)
(2.6222532 -0.066060543 4.365503e-21)
(2.6385468 -0.044310781 -1.4703563e-20)
(2.6411382 -0.022002104 6.6990842e-21)
(2.634222 -0.0050013038 -6.5509937e-21)
(2.6233147 0.0047884757 4.1045404e-21)
(2.6125061 0.0086496132 1.1118141e-21)
(2.6036341 0.0089398055 2.9450381e-21)
(2.596898 0.007698938 2.6811781e-21)
(2.5917849 0.0061280837 3.2883317e-22)
(2.5876956 0.0047950129 1.2140222e-21)
(2.5841454 0.0038198828 -1.4648258e-21)
(2.5809072 0.0031559018 5.6476747e-22)
(2.5778148 0.0027012025 -4.3633444e-22)
(2.5749942 0.0022213302 -2.4876533e-22)
(2.5724316 0.0018575044 0)
(2.5704682 0.0010373213 0)
(2.5691037 0.00064963404 9.9701375e-22)
(2.4772602 0.15747932 -1.131043e-20)
(2.363385 0.048289787 -1.9308191e-19)
(2.4164684 -0.14470001 -3.3579117e-19)
(2.5592667 -0.22413006 -1.7203363e-19)
(2.728572 -0.18059934 8.6900786e-21)
(2.8305049 -0.0367186 1.6937375e-22)
(2.7819117 0.11997214 -7.6901043e-21)
(2.6084116 0.17209126 1.1040657e-19)
(2.4692788 0.11627693 -3.8688014e-20)
(2.4494848 0.02632589 1.536215e-20)
(2.4852973 -0.04954609 -8.015453e-20)
(2.5364216 -0.089666145 1.4553607e-20)
(2.5868972 -0.096925006 -6.6729426e-21)
(2.6257994 -0.082810409 -4.2814577e-21)
(2.6485079 -0.056969998 1.4439712e-21)
(2.6541123 -0.02879832 -1.2015401e-24)
(2.6468011 -0.0063813947 4.3906863e-21)
(2.6335035 0.0068891085 -1.0659234e-20)
(2.6199298 0.012120822 -6.9143043e-21)
(2.6088794 0.012365125 1.4353766e-22)
(2.6007939 0.010411254 5.6566454e-22)
(2.5950129 0.0080191809 1.6066526e-21)
(2.5906694 0.0059713197 3.1427857e-22)
(2.5870913 0.004514113 1.3098133e-21)
(2.5838325 0.0035684021 -1.1155016e-21)
(2.580728 0.0029869115 -4.0115919e-22)
(2.5776729 0.0026075124 9.1322332e-22)
(2.574834 0.0021934642 6.6090776e-23)
(2.5722361 0.0018557045 2.3901826e-22)
(2.5702366 0.001056544 -4.3131675e-23)
(2.5688478 0.00065877703 1.7537506e-21)
(2.4344114 0.17117257 -3.5036745e-21)
(2.3304063 0.057277689 4.1224109e-20)
(2.3912938 -0.1582236 2.2518471e-19)
(2.5426832 -0.25320093 -5.8449803e-20)
(2.7413685 -0.21488809 -1.2519869e-19)
(2.8867141 -0.059652266 6.979558e-20)
(2.8749613 0.12824424 4.0696243e-20)
(2.6903476 0.20644683 -9.261278e-21)
(2.4755485 0.14473633 -1.0887088e-19)
(2.4089768 0.033606726 -1.1270658e-20)
(2.4538221 -0.057351304 6.8187683e-20)
(2.5190223 -0.10667909 1.0182437e-21)
(2.5803434 -0.11740561 4.5134642e-20)
(2.6289993 -0.10262297 -2.309357e-21)
(2.6595936 -0.072521933 2.2220199e-20)
(2.6693996 -0.037483202 -1.1608872e-20)
(2.6619802 -0.0081881751 6.4550984e-21)
(2.6457597 0.0097214287 7.6278551e-22)
(2.6285631 0.016884048 3.5611458e-22)
(2.614577 0.017094443 -3.7182004e-23)
(2.6046636 0.014188432 -2.7170375e-21)
(2.5979895 0.010634045 -2.2093037e-21)
(2.5933591 0.0076022069 1.1698389e-21)
(2.589794 0.0054105535 7.9091119e-22)
(2.586676 0.0040256135 -4.7189097e-21)
(2.5836505 0.0032186125 1.1579883e-21)
(2.5806319 0.0027780963 6.0301862e-22)
(2.5775798 0.0025056739 6.1420808e-22)
(2.5747011 0.0021682867 -5.7120463e-23)
(2.5720544 0.0018616984 6.4156532e-22)
(2.5700129 0.0010836445 1.4634731e-21)
(2.5685952 0.00067076543 4.7383712e-23)
(2.3856971 0.18404906 7.5616598e-21)
(2.2932856 0.067332093 2.2516951e-19)
(2.3622276 -0.17013472 1.768647e-19)
(2.5258678 -0.2838633 -4.5670979e-20)
(2.7510474 -0.25407275 -5.891748e-20)
(2.9415824 -0.089386267 -9.3202886e-21)
(2.974878 0.12899232 -8.1629352e-20)
(2.8006992 0.23985571 9.7753956e-21)
(2.5348366 0.18037731 1.9866433e-19)
(2.3904995 0.043550857 -2.2373374e-19)
(2.4154979 -0.068439985 2.8347439e-21)
(2.4986497 -0.12632762 9.899185e-21)
(2.5722503 -0.14069786 3.4845957e-20)
(2.6316935 -0.12563047 2.047902e-20)
(2.6717667 -0.091365359 -3.5849741e-21)
(2.687296 -0.04846306 9.8062715e-21)
(2.6802865 -0.010597812 -8.0300529e-21)
(2.6605886 0.013443447 -1.2570999e-20)
(2.6387028 0.023286398 -1.7626828e-21)
(2.6208026 0.023526046 6.5913798e-21)
(2.6084254 0.019339054 9.6718628e-22)
(2.6005618 0.014220578 -7.2211423e-22)
(2.5955701 0.0098158745 1.0892853e-21)
(2.5920867 0.0066268422 2.4022143e-21)
(2.5892141 0.0045702785 1.3806989e-21)
(2.586465 0.0034094572 -2.497468e-21)
(2.5835992 0.0028203263 -9.447745e-22)
(2.5806144 0.0025602676 1.9384416e-22)
(2.5775299 0.0024089561 -1.0730477e-21)
(2.5745909 0.0021577783 -2.3042455e-22)
(2.571883 0.0018825435 -4.1708388e-22)
(2.5697942 0.00112233 -1.3142716e-21)
(2.5683434 0.00068631504 -2.3873809e-21)
(2.3312561 0.19596009 -3.5362386e-21)
(2.2530528 0.076114835 8.6057564e-20)
(2.3281637 -0.18157496 -2.3319091e-19)
(2.5022577 -0.31617279 6.0755776e-21)
(2.7596747 -0.29517265 5.8458193e-20)
(2.9916172 -0.12710152 -6.4944886e-21)
(3.0733539 0.12185541 -5.7110042e-20)
(2.9202548 0.27008446 6.4558784e-20)
(2.6268834 0.22321934 2.7596341e-19)
(2.4030768 0.061776776 2.1264829e-20)
(2.3830332 -0.080434504 0)
(2.474387 -0.14950875 -6.4537232e-22)
(2.5628027 -0.166709 3.8060501e-20)
(2.6336925 -0.15190389 -7.0600228e-21)
(2.6848959 -0.11382953 -2.9050921e-20)
(2.7080649 -0.062241658 -1.4455761e-20)
(2.7022913 -0.013813902 2.3130481e-21)
(2.678566 0.01820619 -5.2770324e-21)
(2.650712 0.031741317 -5.1423632e-21)
(2.6276408 0.032120255 -1.2096768e-21)
(2.6119744 0.026255619 0)
(2.6025327 0.019029668 -2.9588908e-21)
(2.597089 0.012795436 -2.7343302e-21)
(2.5937478 0.0082367095 -1.602145e-22)
(2.5912675 0.0052831213 1.1716623e-21)
(2.5889446 0.0035693267 -1.0761156e-21)
(2.5864533 0.0027381394 1.7282675e-21)
(2.583669 0.0024178544 9.5142666e-22)
(2.5806656 0.0023608264 -1.3031472e-21)
(2.5775159 0.0023390525 8.7711542e-23)
(2.5744974 0.0021725622 3.7111389e-22)
(2.5717179 0.0019243456 2.0754579e-22)
(2.5695777 0.0011756448 -5.9850553e-21)
(2.5680901 0.00070603164 -5.0352617e-21)
(2.2722203 0.2066393 2.9697213e-20)
(2.2092904 0.084244194 -5.4034959e-20)
(2.2905465 -0.19408007 -1.9907844e-19)
(2.4726037 -0.35153705 3.2557363e-20)
(2.756897 -0.34320437 1.2007382e-19)
(3.0380939 -0.16586371 1.1003122e-19)
(3.1655453 0.10704851 -4.0683494e-19)
(3.0401706 0.29739845 -2.7155481e-21)
(2.7338635 0.27071452 -1.4983445e-19)
(2.4475997 0.090283593 2.0978624e-19)
(2.3693282 -0.087489863 -7.2320326e-22)
(2.4468629 -0.17593572 -9.7766341e-21)
(2.5520174 -0.19541715 -3.0912023e-20)
(2.6348174 -0.18132936 -2.4334144e-20)
(2.6987467 -0.14024417 6.05769e-20)
(2.731889 -0.079345526 2.3747968e-20)
(2.7285986 -0.018161882 0)
(2.7003583 0.024176912 -1.560742e-21)
(2.6650081 0.042717575 1.1259338e-20)
(2.6351843 0.043431861 -1.8694668e-21)
(2.615167 0.035383302 -4.2884355e-21)
(2.6036566 0.025368546 -4.7200066e-21)
(2.59765 0.016699979 -1.4443848e-21)
(2.5945385 0.010349485 -2.7723916e-21)
(2.5926105 0.0061853589 5.7181335e-21)
(2.5909113 0.0037466566 -1.7973207e-21)
(2.5889721 0.0025118456 -7.7505583e-22)
(2.5866228 0.0020742116 -1.0505984e-21)
(2.5838441 0.0020496027 6.3395944e-21)
(2.5807731 0.0022030175 1.014611e-21)
(2.5775294 0.002312769 6.2095581e-22)
(2.5744145 0.0022216592 -5.5605178e-22)
(2.5715549 0.0019921184 -4.2536732e-23)
(2.5693598 0.0012458757 6.0061672e-21)
(2.5678326 0.00073029248 1.6097548e-22)
(2.2099458 0.21610228 -1.7043501e-20)
(2.1616587 0.091303168 -5.5410234e-20)
(2.2489657 -0.20729289 8.6527909e-20)
(2.4374835 -0.38858557 -1.4758386e-21)
(2.7430447 -0.3989821 -6.4934703e-21)
(3.0703065 -0.21558881 -9.7505491e-20)
(3.2470737 0.090490108 2.6131717e-19)
(3.1549385 0.32324075 -3.0973571e-19)
(2.8465884 0.32106244 1.4636504e-19)
(2.513672 0.1286848 -1.1376711e-20)
(2.3765437 -0.085657656 -5.9777512e-20)
(2.4163247 -0.20278705 -1.8002952e-21)
(2.5392381 -0.22690633 3.2428711e-20)
(2.6349324 -0.21371748 4.3086047e-20)
(2.7129291 -0.17079308 3.7592973e-20)
(2.7588668 -0.10041808 3.6453559e-20)
(2.7598074 -0.023996813 -4.3831855e-21)
(2.7266967 0.031439818 -3.8016373e-21)
(2.6820804 0.056757078 0)
(2.6435312 0.058104317 0)
(2.6178123 0.047249728 -8.6608182e-21)
(2.6036199 0.033562993 -1.682338e-20)
(2.5969332 0.021709802 8.3763847e-21)
(2.5941732 0.013025495 1.5632772e-21)
(2.5930071 0.0073181753 -9.6069062e-23)
(2.5921498 0.0039178827 -2.0175128e-21)
(2.5909835 0.0021638406 -1.1581525e-21)
(2.5892633 0.0014823111 1.8031438e-21)
(2.5869473 0.0014685793 1.5474301e-21)
(2.5841051 0.00174728 -2.8370809e-21)
(2.5809236 0.0021049849 2.3638044e-22)
(2.5775607 0.0023362164 7.918337e-23)
(2.574336 0.0023120864 -2.5062074e-22)
(2.5713897 0.0020895034 -2.3354299e-21)
(2.5691375 0.0013344958 7.0127154e-21)
(2.5675684 0.00075927472 3.8833645e-21)
(2.1459491 0.2244231 6.3800166e-20)
(2.1104943 0.097174823 4.3595875e-20)
(2.2033219 -0.22074478 1.4961192e-19)
(2.3969185 -0.42715048 1.2619109e-19)
(2.7203641 -0.45805417 -1.8352827e-20)
(3.082381 -0.27998485 -1.8761593e-19)
(3.3098356 0.061615864 3.7143199e-19)
(3.2589102 0.34559238 -2.6215699e-21)
(2.9586361 0.37187239 8.9837536e-20)
(2.5940539 0.1758672 1.6369654e-20)
(2.39458 -0.073519068 8.1358817e-21)
(2.3923925 -0.22644567 4.2536311e-20)
(2.5247068 -0.2609594 -1.3756372e-20)
(2.6337519 -0.24868097 2.3148858e-20)
(2.7268906 -0.20562721 -7.6201269e-20)
(2.7889398 -0.12608329 1.5969845e-20)
(2.7964954 -0.031804252 9.8680521e-21)
(2.758374 0.040107362 1.3967712e-20)
(2.7024749 0.0744067 1.1319239e-20)
(2.65278 0.076887049 8.2085544e-21)
(2.6196579 0.062454708 -1.1691432e-20)
(2.6020291 0.043976973 1.037576e-22)
(2.5945454 0.027982309 4.953216e-21)
(2.5923234 0.016314356 3.5352535e-21)
(2.5921937 0.0086564432 -2.0010995e-21)
(2.5924479 0.0040725364 8.5798134e-21)
(2.5922945 0.0016379483 -3.9101639e-21)
(2.5914238 0.00064754193 7.0563998e-21)
(2.5897712 0.00054623726 -2.0714776e-21)
(2.5873977 0.00095923473 -4.5115166e-22)
(2.5844309 0.0015352292 -3.3654914e-21)
(2.5811026 0.0020823271 1.875065e-21)
(2.5775998 0.0024216026 3.2680321e-22)
(2.5742553 0.0024486696 1.4955394e-21)
(2.5712179 0.0022187653 -3.6356087e-21)
(2.5689075 0.0014421797 -4.9067273e-21)
(2.5672953 0.00079296617 -1.7994311e-21)
(2.0818156 0.23173079 1.6351665e-20)
(2.0564211 0.10188377 -9.5458855e-21)
(2.1536349 -0.23456642 -1.6818634e-19)
(2.3509754 -0.46679103 7.709309e-20)
(2.6885789 -0.52035468 1.0335902e-20)
(3.0828741 -0.34862179 4.7252911e-19)
(3.3613706 0.012669875 -5.9612089e-19)
(3.3507947 0.35902159 8.5038668e-19)
(3.0660038 0.42108464 -2.6359298e-19)
(2.6819191 0.22844059 -2.378033e-19)
(2.4230532 -0.052329834 -8.230418e-20)
(2.3856 -0.24380297 2.6510151e-21)
(2.5061604 -0.29694214 -1.7881623e-19)
(2.6308546 -0.28600764 -2.8815298e-20)
(2.7400671 -0.24452318 -7.3320412e-22)
(2.8219061 -0.15709995 3.1150207e-20)
(2.8392116 -0.042077217 -4.6550876e-20)
(2.7961578 0.050235849 2.0189139e-20)
(2.7267967 0.09630222 -1.9459102e-20)
(2.6630276 0.10061528 -1.901449e-20)
(2.6203771 0.081686252 1.3422245e-20)
(2.5983937 0.056991914 5.7960099e-20)
(2.5900156 0.035661912 -1.03895e-20)
(2.5886025 0.020209541 -6.0462042e-21)
(2.5898809 0.010142472 5.94334e-21)
(2.591592 0.0041238719 3.4358037e-21)
(2.5927317 0.0008937207 -4.6594145e-21)
(2.5929488 -0.00050304491 1.0618987e-20)
(2.5921724 -0.00071641568 -5.3056249e-22)
(2.5904553 -0.00024247774 -2.4290513e-21)
(2.5879422 0.00057907102 5.7414322e-21)
(2.5848004 0.0014315015 2.0460822e-21)
(2.5812961 0.0021514952 -2.0049747e-22)
(2.5776374 0.0025745047 8.8451867e-23)
(2.5741666 0.0026342039 -3.674559e-23)
(2.5710358 0.0023808211 1.5820046e-21)
(2.5686672 0.0015688349 -4.6464324e-21)
(2.5670116 0.0008311842 1.4777005e-22)
(2.0190925 0.23817156 -1.6910553e-19)
(2.0003945 0.10558811 6.84554e-21)
(2.0999929 -0.24865678 3.6998504e-20)
(2.2995724 -0.506918 -1.2608339e-20)
(2.6469101 -0.58576523 5.7153502e-20)
(3.0713804 -0.42217446 -4.8160001e-23)
(3.3979633 -0.039737685 9.827943e-19)
(3.4375883 0.35766442 2.2447046e-20)
(3.1719822 0.47173965 -7.9157356e-21)