/*--------------------------------*- C++ -*----------------------------------*\
| =========                 |                                                 |
| \\      /  F ield         | OpenFOAM: The Open Source CFD Toolbox           |
|  \\    /   O peration     | Version:  v2012                                 |
|   \\  /    A nd           | Website:  www.openfoam.com                      |
|    \\/     M anipulation  |                                                 |
\*---------------------------------------------------------------------------*/
FoamFile
{
    version     2.0;
    format      ascii;
    class       surfaceVectorField;
    location    "39.8012744659894295";
    object      Uf;
}
// * * * * * * * * * * * * * * * * * * * * * * * * * * * * * * * * * * * * * //

dimensions      [0 1 -1 0 0 0 0];


internalField   nonuniform List<vector> 
18180
(
(2.5531368 -0.0032574624 -9.5922361e-23)
(2.5556255 -0.0015049142 1.3538348e-22)
(2.5541456 -0.0063415868 -3.5561301e-22)
(2.5564243 -0.0043941468 4.8385849e-24)
(2.5579013 -0.0027053742 2.2548065e-22)
(2.5581534 -0.0013140075 -1.1828875e-23)
(2.5556732 -0.0093049447 -1.474084e-22)
(2.5577424 -0.0070417167 -3.8886419e-22)
(2.5589876 -0.0052496035 -3.578294e-23)
(2.5589676 -0.003780155 6.8331255e-22)
(2.5595853 -0.002421391 4.6454021e-22)
(2.5603278 -0.0011674852 1.908543e-22)
(2.5576965 -0.012148694 1.2847004e-23)
(2.5596159 -0.0097623883 -1.7745809e-24)
(2.5606145 -0.0076245865 -2.442772e-22)
(2.5602829 -0.0060317747 -1.1973432e-22)
(2.5606543 -0.0047083709 5.606264e-22)
(2.5611647 -0.0033870962 -1.193424e-22)
(2.5617886 -0.0021593622 -3.8420825e-22)
(2.5621914 -0.0010299765 5.3648827e-23)
(2.5601488 -0.014832081 -1.3953902e-22)
(2.5618855 -0.012089428 5.1781126e-23)
(2.5626947 -0.0098417922 1.3522355e-23)
(2.5621543 -0.008324746 -3.0425445e-23)
(2.5622427 -0.0068357247 9.0444308e-23)
(2.56247 -0.0053858798 2.5055396e-22)
(2.5628711 -0.004200095 -4.0111595e-22)
(2.5630489 -0.0030568215 -9.8268162e-22)
(2.5634773 -0.0019540403 -5.7574248e-22)
(2.5638122 -0.00090819088 -2.776657e-22)
(2.5629832 -0.017328826 1.3324243e-23)
(2.5645268 -0.014438315 -2.5610935e-22)
(2.5651225 -0.011865978 -1.0929842e-22)
(2.5643662 -0.010218003 1.8588269e-22)
(2.5642647 -0.0088124604 1.465136e-22)
(2.5643293 -0.0074384013 6.2185159e-23)
(2.5644566 -0.0060923163 2.0241942e-22)
(2.5643397 -0.004822074 -2.4838444e-23)
(2.5645595 -0.0037959045 -5.6939339e-22)
(2.5646833 -0.0028053619 -2.5716272e-22)
(2.5650153 -0.0017920925 2.9607197e-23)
(2.5652407 -0.00079871578 1.713018e-23)
(2.5661324 -0.019558397 5.3061007e-22)
(2.5674075 -0.016423794 8.73513e-24)
(2.5678057 -0.013693275 -2.6000015e-22)
(2.5669241 -0.012132593 -6.4594718e-22)
(2.5666154 -0.010625017 -3.8438972e-22)
(2.5665011 -0.0091060057 1.1233193e-22)
(2.5664656 -0.0078386429 2.6187563e-23)
(2.5661762 -0.0066701433 1.5081416e-22)
(2.5661225 -0.005499101 -6.3781208e-23)
(2.5659571 -0.00436352 -1.479905e-22)
(2.5660931 -0.0034676408 1.5358379e-22)
(2.5661122 -0.0026092654 7.5701384e-22)
(2.5663533 -0.0016580405 7.5568136e-22)
(2.5665111 -0.00069651457 2.9940428e-22)
(2.5695407 -0.021446402 3.4869095e-22)
(2.5704409 -0.018242947 4.7197343e-22)
(2.5706239 -0.015297772 -2.4546198e-23)
(2.5696611 -0.013720366 -1.6431945e-21)
(2.5692121 -0.012280081 -2.0483183e-21)
(2.5690108 -0.010816007 -6.2578766e-22)
(2.5687964 -0.0094388203 -1.5826258e-22)
(2.5683128 -0.0081396264 -2.0395117e-22)
(2.5681006 -0.0070643868 -9.1038848e-23)
(2.5677673 -0.0060535018 -1.2729257e-22)
(2.5676352 -0.0050112498 -2.0794529e-22)
(2.567366 -0.0039821994 -2.0533916e-23)
(2.5674169 -0.003194098 5.4960089e-22)
(2.5673712 -0.002443701 7.4838438e-22)
(2.5675457 -0.0015359472 3.1549911e-22)
(2.5676423 -0.00059766512 1.5145962e-22)
(2.573161 -0.022883027 -7.8823533e-23)
(2.57352 -0.019698866 7.9247844e-22)
(2.5734756 -0.016685313 8.8343294e-22)
(2.5725273 -0.01520647 6.0453749e-22)
(2.5719483 -0.013776318 -9.2201736e-22)
(2.5716805 -0.012246238 -1.1884313e-21)
(2.571374 -0.010908358 1.7095638e-22)
(2.5707919 -0.0096611698 -2.7870243e-22)
(2.570401 -0.0084926069 -3.280946e-22)
(2.569867 -0.0073619922 2.7637806e-22)
(2.5695818 -0.0064265401 2.4691183e-22)
(2.56915 -0.0055505689 -5.281872e-22)
(2.568936 -0.0046082113 -3.5730577e-22)
(2.5686067 -0.0036576817 -5.2582535e-22)
(2.5685936 -0.0029530778 -3.5391689e-22)
(2.5684878 -0.0022850526 -1.4256289e-22)
(2.5686034 -0.0014125893 -3.0440846e-22)
(2.5686423 -0.00050000096 1.6318028e-22)
(2.5769219 -0.023776816 9.3070544e-22)
(2.5765648 -0.020828491 1.3175071e-21)
(2.5762256 -0.017856231 2.135895e-21)
(2.5754049 -0.016455442 2.7251218e-21)
(2.5747368 -0.015127945 2.4935316e-21)
(2.5744799 -0.01363519 2.6071749e-22)
(2.5741045 -0.012264614 2.3864525e-23)
(2.5734404 -0.010925695 -3.1015909e-23)
(2.5729605 -0.0097930345 -4.5927907e-22)
(2.5723071 -0.0087212696 3.2795362e-22)
(2.5718401 -0.0077048571 9.1056839e-22)
(2.5712041 -0.0067301087 1.2329627e-21)
(2.5708452 -0.0059091563 5.0924601e-22)
(2.5703716 -0.005137428 2.4181379e-22)
(2.5700982 -0.0042670237 8.8695684e-23)
(2.5697148 -0.0033670387 -4.3351699e-22)
(2.5696439 -0.0027225407 -2.3581208e-22)
(2.56948 -0.0021155898 -4.4436882e-22)
(2.5695378 -0.0012791838 -3.0794028e-24)
(2.5695128 -0.00040319694 4.0496971e-22)
(2.5807349 -0.024072293 1.0420027e-21)
(2.5794894 -0.021526481 -4.4328094e-22)
(2.578707 -0.018780133 -9.8062707e-23)
(2.5781571 -0.01757145 1.9618431e-21)
(2.5774583 -0.016350633 2.5167883e-21)
(2.5772952 -0.014880343 7.9086032e-22)
(2.5769308 -0.013548449 -1.3419004e-21)
(2.5762632 -0.012169176 1.221709e-21)
(2.5757097 -0.010977984 1.1882272e-21)
(2.5749187 -0.0098176364 -1.1459118e-21)
(2.5743486 -0.0088402993 -4.0623559e-22)
(2.5735788 -0.0079581693 1.1014306e-22)
(2.5730387 -0.0070775313 3.9968861e-22)
(2.5723788 -0.0062278392 8.6083158e-22)
(2.5719781 -0.0054908311 6.1207664e-22)
(2.5714762 -0.0047830005 9.4825702e-22)
(2.5711507 -0.0039575518 4.6341836e-22)
(2.5707161 -0.0030843658 7.9830974e-22)
(2.5705869 -0.0024828652 6.145947e-22)
(2.5703565 -0.0019251362 -8.2494434e-23)
(2.5703514 -0.0011319306 3.0319359e-22)
(2.5702535 -0.00030812141 1.1060303e-22)
(2.5846331 -0.023728795 9.5923607e-23)
(2.582187 -0.021773101 -2.352144e-21)
(2.5807346 -0.019372646 -3.7974078e-21)
(2.580583 -0.018539342 -1.510135e-21)
(2.5799876 -0.017497651 4.221339e-22)
(2.5800543 -0.01610816 6.7972083e-22)
(2.5797862 -0.014817613 -9.7480477e-22)
(2.5791818 -0.013306197 -7.9775865e-22)
(2.5786287 -0.012077468 1.6388193e-21)
(2.577732 -0.010859524 9.7072167e-22)
(2.5770456 -0.009823054 -1.2425512e-21)
(2.5760977 -0.0089064819 -1.3922718e-21)
(2.5754454 -0.0080923003 -9.2100873e-22)
(2.5746711 -0.0073784077 -8.1177416e-22)
(2.5741065 -0.00660252 -3.8561192e-22)
(2.5734529 -0.0058239084 -3.5563792e-22)
(2.5730239 -0.0051335082 -5.0005764e-23)
(2.5724967 -0.0044475882 5.1640582e-22)
(2.5721186 -0.0036449125 8.3454356e-22)
(2.5716221 -0.0027842038 6.2606567e-22)
(2.5714265 -0.0022186116 -3.4523961e-23)
(2.5711175 -0.0017101887 -3.3193391e-23)
(2.571041 -0.00097153278 -2.1991245e-22)
(2.5708647 -0.00021596042 -4.2723469e-22)
(2.5882763 -0.022503719 2.7061194e-21)
(2.5844643 -0.021301661 1.757684e-21)
(2.5821808 -0.019526093 -5.3696485e-22)
(2.5824916 -0.019424818 -3.5731722e-22)
(2.5821913 -0.018682559 1.8547412e-21)
(2.5826789 -0.017368976 -1.2612257e-21)
(2.5826282 -0.016160658 -1.0392655e-21)
(2.5821901 -0.014470052 -1.0879868e-21)
(2.581702 -0.013134566 -9.2589254e-22)
(2.580694 -0.011741753 9.2146794e-23)
(2.5799255 -0.01064723 -5.6153664e-22)
(2.5787915 -0.0097451823 -6.6727433e-22)
(2.5779895 -0.0089190757 -7.9592689e-22)
(2.5770509 -0.008249051 5.3190967e-22)
(2.5763932 -0.0075755366 6.5192974e-22)
(2.5756774 -0.0069595136 -5.5699822e-22)
(2.5751164 -0.0062377215 -5.2581952e-22)
(2.5744786 -0.00546532 -1.0344415e-21)
(2.57402 -0.0047841991 -5.1083468e-22)
(2.5734475 -0.0040886911 -5.8357582e-22)
(2.5730061 -0.0032961426 -8.0168164e-22)
(2.5724302 -0.002446733 -4.2741131e-22)
(2.5721569 -0.0019211016 -4.3099568e-22)
(2.571757 -0.0014717321 -4.1392476e-23)
(2.5716017 -0.00080020957 -2.3577719e-22)
(2.5713488 -0.00012612963 -2.6270159e-22)
(2.5915217 -0.020423888 -1.4782303e-21)
(2.5860404 -0.020207063 2.5660208e-21)
(2.5831207 -0.019116661 1.6685591e-21)
(2.5836033 -0.020036317 1.1268318e-21)
(2.583628 -0.020070108 1.3187884e-21)
(2.5851155 -0.018794624 1.9077684e-21)
(2.5854197 -0.017688013 -1.0440279e-21)
(2.5852765 -0.015712125 -5.8074432e-22)
(2.5849555 -0.014217657 -6.221997e-22)
(2.5838489 -0.0125539 -5.2253864e-22)
(2.582998 -0.011307 4.4758246e-22)
(2.581604 -0.010332162 9.8861035e-22)
(2.580649 -0.0095126206 9.1426974e-22)
(2.5795253 -0.0089788527 -4.0167091e-22)
(2.5787319 -0.0083640393 8.5468417e-22)
(2.5779238 -0.0078506076 4.8375373e-22)
(2.5773178 -0.0072521318 -6.5211664e-22)
(2.5766856 -0.0066337873 -5.433653e-23)
(2.576132 -0.0059067866 -5.3413451e-22)
(2.5754813 -0.0050859915 -7.7394048e-22)
(2.5749736 -0.004387481 -8.4767423e-22)
(2.5743238 -0.0036707188 -6.9569211e-22)
(2.5738025 -0.0028882336 -3.4023837e-22)
(2.573128 -0.0020617944 -2.5851663e-22)
(2.5727654 -0.0015888004 1.1318575e-22)
(2.572268 -0.0012123981 2.0065449e-22)
(2.5720355 -0.00061701415 1.8116477e-22)
(2.5717077 -2.7997901e-05 1.2057959e-22)
(2.5945405 -0.017267879 -7.3652861e-21)
(2.5866249 -0.018633141 -4.8742443e-21)
(2.5829596 -0.01850583 -1.1138809e-21)
(2.5846625 -0.020668024 -8.3343846e-21)
(2.5845986 -0.021748616 -8.9780686e-21)
(2.5869957 -0.020616246 -2.4689589e-22)
(2.5881719 -0.019522522 3.0544854e-22)
(2.5884519 -0.017168818 -1.1838184e-21)
(2.588435 -0.015416861 -7.4015125e-22)
(2.5872423 -0.013304163 1.2301887e-21)
(2.5863258 -0.011803023 1.3397953e-21)
(2.5845847 -0.01069243 1.9093515e-22)
(2.5834125 -0.0098114326 7.0026249e-22)
(2.5820023 -0.0093983671 8.8275911e-22)
(2.5810585 -0.0089023525 -3.564309e-22)
(2.5801633 -0.0086265006 -1.4627769e-21)
(2.5794877 -0.0081399759 -1.838466e-21)
(2.5788675 -0.0076300088 -4.0859109e-22)
(2.5783305 -0.0070149918 1.5752113e-22)
(2.5777445 -0.0063011826 6.6599428e-22)
(2.5771703 -0.0055204182 4.5490452e-22)
(2.5764551 -0.0046247031 2.0198067e-22)
(2.5758677 -0.003901051 3.5956623e-22)
(2.5751065 -0.0031735573 6.5741523e-23)
(2.5744878 -0.0024131503 1.4902314e-22)
(2.5737006 -0.0016300125 4.0818471e-23)
(2.5732413 -0.0012261201 1.2274841e-22)
(2.5726478 -0.00093444401 1.7684181e-22)
(2.5723481 -0.00041345446 1.190717e-22)
(2.5719391 8.3835212e-05 1.0052731e-22)
(2.5972039 -0.012926216 -2.6687167e-21)
(2.5863464 -0.016291097 -1.1281702e-20)
(2.5813448 -0.017675169 -8.9980694e-21)
(2.5846173 -0.021475381 -5.0725326e-22)
(2.5853775 -0.023658528 -7.3681305e-21)
(2.5887887 -0.022857047 -7.1838806e-21)
(2.5907881 -0.021982556 1.1263239e-21)
(2.5917798 -0.018983234 -8.8080901e-22)
(2.5922192 -0.016854287 -2.2964927e-21)
(2.5909729 -0.014063061 -2.4003485e-21)
(2.5900065 -0.012139989 -5.5135887e-22)
(2.5877834 -0.010751822 1.1439142e-21)
(2.5863179 -0.0097384656 6.7623415e-23)
(2.584489 -0.0094778377 -2.708794e-21)
(2.5833035 -0.0090981261 -2.5735438e-21)
(2.5822514 -0.0091206792 -8.5672065e-22)
(2.5815135 -0.0088444747 -1.8967628e-21)
(2.5809635 -0.0085986722 -6.5968082e-22)
(2.5804519 -0.0080989606 7.2018393e-22)
(2.5799748 -0.0074382186 2.9663974e-22)
(2.5794699 -0.0067226865 7.8050717e-22)
(2.5788499 -0.0058605086 6.9820735e-22)
(2.578206 -0.0050043572 4.6024315e-22)
(2.577368 -0.0040419954 2.3170123e-22)
(2.5766695 -0.0033060526 -4.8575695e-23)
(2.5757711 -0.0025959327 -5.4899288e-23)
(2.5750417 -0.0018780767 -1.6034944e-22)
(2.5741368 -0.0011624683 -2.1327825e-22)
(2.5735845 -0.00084228983 -1.6659729e-22)
(2.5729053 -0.00064502904 3.661249e-24)
(2.5725295 -0.0002043703 -1.5247873e-23)
(2.5720492 0.00018832235 3.3297649e-23)
(2.5993724 -0.0072912634 5.642636e-21)
(2.5849759 -0.01322642 -1.188399e-21)
(2.5784222 -0.016542372 -9.3296188e-21)
(2.5834156 -0.02230689 -3.1859925e-21)
(2.5852755 -0.026088363 4.9289708e-21)
(2.5902305 -0.025664226 8.7633355e-22)
(2.5932033 -0.025099091 1.1507668e-21)
(2.5952703 -0.021358001 9.1393001e-22)
(2.5964329 -0.018663318 -9.8388826e-22)
(2.5951736 -0.014895846 -2.6286752e-21)
(2.5941878 -0.01233182 -2.711879e-21)
(2.5913128 -0.010474143 -4.990729e-22)
(2.5894326 -0.009197067 1.1223883e-21)
(2.586978 -0.0090675611 -1.7335371e-22)
(2.5854309 -0.0088245212 -2.8242894e-21)
(2.5841201 -0.009272458 -4.1681171e-22)
(2.5832596 -0.0092796808 1.2427501e-21)
(2.582778 -0.0094046445 1.0733801e-21)
(2.5823502 -0.0091377837 2.2940952e-21)
(2.582097 -0.0086740836 8.3244156e-22)
(2.5817052 -0.0080198251 4.324747e-22)
(2.5812498 -0.007110613 6.3893787e-22)
(2.5807011 -0.0062487114 5.5972623e-22)
(2.5799515 -0.0052398881 1.1887772e-22)
(2.5791839 -0.0043195593 -1.024161e-22)
(2.5781761 -0.0033290398 -1.2243964e-22)
(2.577343 -0.0026095609 -1.2922613e-22)
(2.5762961 -0.0019540861 -6.5939119e-23)
(2.5754525 -0.001302543 -1.1411472e-22)
(2.574434 -0.00067965139 -2.3471759e-22)
(2.5738008 -0.00045366142 -7.4392364e-23)
(2.5730497 -0.0003633769 -1.2774885e-23)
(2.5725982 -1.5764814e-05 3.3283044e-23)
(2.5720575 0.00026727824 6.8777638e-23)
(2.6009386 -0.00032229995 2.0254602e-21)
(2.5824324 -0.0093324488 1.7531549e-20)
(2.573971 -0.015088741 1.1215226e-20)
(2.5809509 -0.023429399 -6.4439614e-21)
(2.5839698 -0.029152235 -5.6616219e-22)
(2.5909849 -0.029241373 -1.1626631e-21)
(2.595453 -0.029046474 -5.0900609e-21)
(2.5990104 -0.024407126 3.5299778e-22)
(2.6012064 -0.021026564 1.1804923e-22)
(2.6000118 -0.015892709 7.8745174e-22)
(2.599057 -0.012401073 -7.4039194e-22)
(2.5953236 -0.0097996797 -3.5303409e-21)
(2.5928746 -0.0080690004 -1.4441674e-21)
(2.5895097 -0.0080476502 9.7391246e-22)
(2.5874137 -0.0079257898 -2.7138302e-22)
(2.585678 -0.0089329188 2.4016256e-21)
(2.5846053 -0.0093343612 4.7280931e-21)
(2.5841856 -0.010009284 2.3005848e-21)
(2.5838434 -0.010094887 2.1367271e-21)
(2.5838919 -0.0099245268 1.6253721e-21)
(2.5837234 -0.0094401176 2.3079589e-22)
(2.5835884 -0.0085879546 -1.8687637e-22)
(2.583202 -0.0076920945 2.4292031e-24)
(2.5826161 -0.0065209991 1.5794794e-22)
(2.5819349 -0.0055181216 -2.6543858e-22)
(2.5809741 -0.004414052 1.6572493e-22)
(2.5800395 -0.0034689946 1.5067778e-22)
(2.5788371 -0.0025071671 2.1422431e-22)
(2.5778598 -0.0018415167 2.795825e-22)
(2.5766697 -0.0012780755 -1.7323202e-22)
(2.5757176 -0.00071607306 -2.883803e-22)
(2.5745982 -0.00020663218 -2.8355836e-23)
(2.5738959 -8.5685713e-05 3.069619e-23)
(2.5730894 -9.6511015e-05 3.0972599e-23)
(2.5725792 0.00014463859 6.4982383e-23)
(2.5719856 0.0003273289 6.944265e-23)
(2.6018039 0.0079950931 -5.5096858e-21)
(2.5786067 -0.0045727159 2.9782858e-20)
(2.5678134 -0.013260008 4.4837603e-20)
(2.5770147 -0.024805887 1.9373482e-20)
(2.5814051 -0.032976572 2.7498793e-21)
(2.5910562 -0.033795257 3.6481646e-21)
(2.5974966 -0.034115307 3.138205e-21)
(2.6030427 -0.028370636 -5.8865995e-21)
(2.6066679 -0.024133743 -7.350927e-22)
(2.6056767 -0.017173357 6.8014969e-22)
(2.6048457 -0.012380751 1.321965e-21)
(2.6000086 -0.0086700592 1.4205098e-21)
(2.596801 -0.0062232391 -1.2120475e-21)
(2.592163 -0.0062372567 -4.9354039e-22)
(2.5892575 -0.0062041247 1.8109538e-21)
(2.5868446 -0.0079359228 1.0667487e-21)
(2.5854062 -0.0088600328 3.6038997e-21)
(2.5850079 -0.010313922 1.4356888e-21)
(2.584748 -0.010914198 -9.2614506e-22)
(2.5851999 -0.011216746 7.8229987e-22)
(2.5853301 -0.011010432 2.7924918e-22)
(2.5856526 -0.010266512 1.1596889e-21)
(2.5855762 -0.0094082792 7.7636001e-22)
(2.5853245 -0.008126175 5.4262547e-22)
(2.584802 -0.0069803008 6.974107e-22)
(2.5839503 -0.0056138538 -4.4786813e-22)
(2.5830612 -0.0045218045 -4.2457975e-23)
(2.5818409 -0.0034061711 6.2329235e-23)
(2.5807173 -0.0024925374 1.2136682e-22)
(2.5793212 -0.0016202992 3.3686113e-22)
(2.5782056 -0.0010465419 -8.9835797e-23)
(2.5768921 -0.00060417083 -2.5243343e-22)
(2.5758421 -0.00015030142 -4.0250946e-24)
(2.574639 0.00023459534 3.1393681e-23)
(2.5738814 0.00025891466 3.1665351e-23)
(2.5730295 0.0001548742 1.441804e-23)
(2.5724719 0.00028959972 1.7819677e-23)
(2.571847 0.00038416361 -1.6920451e-23)
(2.601867 0.017637578 -6.5117139e-21)
(2.5734112 0.0010723051 -2.8127766e-20)
(2.559801 -0.010998235 4.9685299e-21)
(2.5714392 -0.026458744 5.2187695e-20)
(2.5774329 -0.037695784 2.8159652e-20)
(2.5903529 -0.039507621 -2.8625185e-21)
(2.5992783 -0.040540853 -2.0909236e-21)
(2.6074042 -0.033490283 7.0057332e-21)
(2.6129625 -0.02820663 -1.4846418e-21)
(2.6123865 -0.018860802 1.7459892e-21)
(2.6118186 -0.012320219 3.1200794e-21)
(2.6056014 -0.0070263287 -3.1008781e-21)
(2.6014076 -0.0035064626 -3.0827283e-21)
(2.595029 -0.0034403909 -7.1441331e-22)
(2.5909801 -0.0034262051 -2.6776534e-23)
(2.5875624 -0.0060668976 4.6600853e-21)
(2.5855258 -0.0076677968 3.9930518e-21)
(2.5850536 -0.010182831 3.5414109e-21)
(2.5848401 -0.01150968 1.4689985e-21)
(2.5857865 -0.012519834 -1.0900543e-21)
(2.5863123 -0.012756513 5.3475716e-22)
(2.5872894 -0.012239713 1.1847681e-21)
(2.5876533 -0.011484095 2.0263978e-21)
(2.587896 -0.010077053 1.5771307e-21)
(2.5876937 -0.0088094977 1.3664466e-21)
(2.5871085 -0.0071803843 1.4653193e-21)
(2.5863243 -0.0058507594 3.8922511e-22)
(2.5851206 -0.0044105188 -2.4275665e-22)
(2.5839796 -0.0033112464 -1.461487e-22)
(2.5824929 -0.0022776811 -4.4293567e-23)
(2.5811826 -0.001454372 1.6264401e-22)
(2.5796162 -0.00072393088 -1.2036598e-22)
(2.5783824 -0.00027083915 -2.755731e-22)
(2.5769732 3.3774001e-05 1.7368076e-22)
(2.5758435 0.00037004075 2.097123e-22)
(2.5745782 0.00062921274 -2.3910817e-23)
(2.5737788 0.00057279173 -4.1151018e-23)
(2.5728853 0.00037321344 -6.1447769e-23)
(2.5722992 0.00041755088 -9.5413248e-23)
(2.5716548 0.00044432442 -1.5224493e-22)
(2.6009981 0.02853963 -1.2502957e-20)
(2.5668167 0.0076331095 -3.4716468e-20)
(2.5498385 -0.0082388079 -5.5550777e-20)
(2.5640587 -0.028437985 4.6740774e-21)
(2.5718867 -0.043427907 4.940338e-20)
(2.5887688 -0.046553469 7.4983847e-21)
(2.6007347 -0.048548971 -2.2169603e-20)
(2.6121444 -0.040010254 -1.228318e-20)
(2.6202306 -0.033488924 -3.7929966e-21)
(2.6203623 -0.021108631 -3.9679919e-21)
(2.6202631 -0.012280062 -9.2813576e-22)
(2.6123639 -0.0048039609 -1.7674345e-21)
(2.6069249 0.0002481807 -7.7281919e-21)
(2.5982374 0.00056525785 -8.7538033e-21)
(2.5926157 0.00068013069 -6.6129351e-21)
(2.5877543 -0.0030711 -1.9031198e-21)
(2.5848183 -0.005525852 2.4753024e-21)
(2.5841272 -0.0094640497 4.8688145e-21)
(2.5838724 -0.011796854 4.4152633e-21)
(2.5854356 -0.013801028 -8.0838765e-22)
(2.5864456 -0.014701217 -3.2579544e-21)
(2.5882692 -0.014570209 -3.1979903e-21)
(2.5892591 -0.014022951 -2.6310157e-21)
(2.5902204 -0.012519875 2.7986928e-22)
(2.5904909 -0.011133375 -1.6982222e-22)
(2.590318 -0.0091615889 7.3987324e-22)
(2.589788 -0.0075659061 8.2328154e-22)
(2.5887231 -0.0057623985 1.1654518e-21)
(2.5875976 -0.004366832 5.7428234e-22)
(2.5860199 -0.0029953246 -4.6842507e-22)
(2.5846216 -0.0019800039 -3.7328819e-22)
(2.5829003 -0.001111025 1.0110125e-22)
(2.5814264 -0.0004282688 -1.6986935e-22)
(2.5797304 0.00012606911 -3.0639653e-22)
(2.5784055 0.00044075681 1.2179001e-22)
(2.5769346 0.00060682246 2.740119e-22)
(2.5757463 0.00081627788 5.3385572e-23)
(2.5744469 0.00096750241 5.4644391e-23)
(2.5736092 0.00082849466 3.6797282e-23)
(2.5726835 0.00053395841 -3.48666e-23)
(2.5720816 0.00051183621 -8.7910664e-23)
(2.5714281 0.00050083689 -1.7520064e-22)
(2.5989479 0.040573827 -1.5081848e-20)
(2.5588395 0.015071792 3.2661128e-20)
(2.5379313 -0.0049129209 1.2259682e-20)
(2.554762 -0.030738897 -2.9340527e-20)
(2.5646098 -0.050266329 2.8054521e-20)
(2.5861734 -0.055095093 5.4948405e-20)
(2.6017835 -0.058348107 1.5331345e-20)
(2.6172888 -0.048167786 -1.3462566e-20)
(2.6286015 -0.040228325 -3.9687962e-21)
(2.6298227 -0.024079622 -6.6268634e-21)
(2.6304782 -0.012336368 -6.8055798e-21)
(2.6205805 -0.0019482572 -2.7992566e-21)
(2.613608 0.0052189707 -3.6196296e-21)
(2.6019333 0.006029932 1.442064e-22)
(2.5942135 0.0064173447 -7.1148333e-22)
(2.5873654 0.001318877 -6.7508039e-21)
(2.5831183 -0.0021761821 -2.3500931e-21)
(2.5820137 -0.0079592174 -6.6012452e-21)
(2.581583 -0.011644531 -4.5045854e-21)
(2.5838504 -0.015023867 2.6114638e-21)
(2.5854604 -0.016870509 -2.3645728e-21)
(2.5883895 -0.017331241 -2.1726407e-22)
(2.5901877 -0.017151563 -1.1304329e-22)
(2.5921277 -0.015593296 -2.3686126e-21)
(2.5930842 -0.014109138 3.9450454e-22)
(2.5935346 -0.01172942 4.1328492e-22)
(2.5933982 -0.0098070207 1.2820182e-21)
(2.5925728 -0.0075100537 1.0222618e-21)
(2.5915789 -0.0057521619 1.3433389e-21)
(2.5899849 -0.0039863526 -8.5791839e-24)
(2.5884986 -0.0026623008 -1.0051773e-21)
(2.5865858 -0.0014901171 -3.040898e-22)
(2.5849617 -0.0006388982 1.4665067e-22)
(2.5830641 9.3787856e-06 4.8389143e-23)
(2.5814654 0.00052110239 -7.5579335e-23)
(2.579685 0.00088395758 8.7014715e-24)
(2.5783012 0.0010661955 1.4977614e-22)
(2.576792 0.0010940062 1.4877028e-22)
(2.575573 0.0011902565 1.5052713e-22)
(2.5742581 0.001244536 -2.0014112e-23)
(2.5733885 0.0010173727 -8.8756572e-23)
(2.5724444 0.00065605338 2.0028814e-22)
(2.5718322 0.00059670813 1.2165023e-22)
(2.5711737 0.00054577578 9.5917259e-23)
(2.595484 0.053542592 5.7484618e-21)
(2.5494182 0.023350077 -2.4184481e-20)
(2.5241441 -0.00098792051 2.0848185e-20)
(2.5436266 -0.033367449 -3.3120811e-20)
(2.5555918 -0.058287199 -7.3121029e-20)
(2.5825077 -0.065267786 5.0758963e-20)
(2.6023893 -0.070129356 7.6565778e-20)
(2.6228473 -0.058194885 3.0304765e-20)
(2.6381925 -0.048678607 3.2222744e-21)
(2.6409913 -0.027950237 6.1174502e-22)
(2.642779 -0.01257753 -1.8155313e-21)
(2.6305391 0.0016056362 -4.9815494e-21)
(2.6217231 0.011594871 -1.1413191e-21)
(2.6062675 0.01321906 6.1592595e-21)
(2.5958215 0.014122234 9.8435721e-21)
(2.5863159 0.0074214739 4.5280668e-21)
(2.5802523 0.0026832018 -1.1154504e-21)
(2.5784633 -0.0054720362 -4.7565037e-21)
(2.5776758 -0.010912153 -8.8455608e-21)
(2.5807516 -0.016130873 9.572252e-21)
(2.583043 -0.019290161 1.650865e-20)
(2.5873643 -0.020613556 -1.4851628e-22)
(2.5902149 -0.020997816 1.9171846e-21)
(2.5934577 -0.019457599 2.8325951e-21)
(2.5953448 -0.017924749 7.3440291e-22)
(2.5966692 -0.015064375 7.6998554e-22)
(2.5971277 -0.012749014 7.9291632e-22)
(2.5966981 -0.0098175038 4.5709777e-22)
(2.5959329 -0.0075880051 1.9616093e-22)
(2.59436 -0.0052745799 1.3436169e-21)
(2.5928561 -0.0035582193 6.1846182e-23)
(2.5907795 -0.0020313177 -1.1953535e-21)
(2.5889707 -0.00090476573 -5.2913167e-22)
(2.5868078 -2.5877995e-05 2.9319996e-23)
(2.5850155 0.00060719719 -6.5465665e-23)
(2.5830143 0.0010114857 -3.0310745e-23)
(2.5813366 0.0013348848 4.863952e-23)
(2.5795226 0.0015195952 5.7517657e-23)
(2.5781031 0.0015729002 5.4578473e-23)
(2.5765795 0.0014859944 2.4293532e-23)
(2.5753442 0.0014850714 -1.39172e-22)
(2.5740224 0.0014610674 -1.5727179e-22)
(2.5731359 0.0011719703 1.1621249e-22)
(2.5721825 0.00077391076 8.1086927e-23)
(2.5715635 0.00067382174 5.6297016e-23)
(2.5708973 0.00057732671 3.6886455e-22)
(2.5906818 0.067216307 1.9001908e-20)
(2.538602 0.032310601 -4.2125116e-20)
(2.508564 0.0035268201 -7.1139477e-20)
(2.5307061 -0.036330904 -4.7087217e-20)
(2.5449115 -0.067519238 -9.9098492e-20)
(2.5777868 -0.077075485 -5.5135023e-20)
(2.6025635 -0.08401215 6.2482912e-20)
(2.6287292 -0.070269588 4.9053631e-20)
(2.648954 -0.059098673 4.8501786e-21)
(2.6541007 -0.032913296 1.7564253e-21)
(2.6575039 -0.013132089 -7.4215628e-22)
(2.6426207 0.0058969683 1.8881656e-21)
(2.6316139 0.019568462 -1.0447702e-21)
(2.6113905 0.022415553 1.0687133e-21)
(2.5974859 0.024149724 8.0039528e-21)
(2.5845274 0.015581762 3.2336304e-21)
(2.5760226 0.0093651134 -1.8620975e-21)
(2.5732286 -0.001767792 8.0146917e-21)
(2.5718237 -0.0094450871 4.6870595e-21)
(2.5758063 -0.017069674 1.0565723e-22)
(2.5788765 -0.021982671 1.7685651e-20)
(2.5849216 -0.024510078 7.0496413e-21)
(2.5890923 -0.02572154 -8.8695224e-21)
(2.5940158 -0.024306929 -1.7984564e-21)
(2.5971373 -0.022794302 -9.8137661e-22)
(2.5996527 -0.019375831 -1.8536236e-21)
(2.6009457 -0.016603867 -1.8552736e-21)
(2.6010996 -0.012867862 3.028212e-21)
(2.6007139 -0.010027705 2.7404649e-21)
(2.5992364 -0.0069835348 -1.3518839e-21)
(2.5977517 -0.0047419445 -2.8521717e-22)
(2.5954822 -0.0027159343 1.5385225e-22)
(2.5935135 -0.0012350985 -1.0272497e-21)
(2.5910757 -9.7045662e-05 -4.7906805e-22)
(2.5890266 0.00074149702 5.963148e-23)
(2.5867221 0.0012822424 -2.0587115e-22)
(2.5848306 0.0016749731 -1.7447537e-22)
(2.582795 0.0018432464 1.519159e-22)
(2.5810857 0.0019880659 1.6176381e-22)
(2.579277 0.0020181465 -4.0373484e-23)
(2.5778446 0.0019591471 -7.0408193e-23)
(2.5763249 0.0017843878 -4.745987e-23)
(2.5750837 0.0017056982 -6.3113808e-23)
(2.5737631 0.0016213085 3.8492172e-23)
(2.5728699 0.0012984357 4.2662359e-24)
(2.5719088 0.00086852371 -2.368729e-22)
(2.5712838 0.00072170252 5.5418766e-23)
(2.5706124 0.00059840604 -7.4368203e-23)
(2.5846115 0.08140871 -7.8641802e-21)
(2.5265638 0.041932721 7.0665286e-20)
(2.4912487 0.0086685915 1.3423779e-20)
(2.5158144 -0.039635174 -8.2175216e-20)
(2.532339 -0.077980242 -5.9505302e-20)
(2.57211 -0.090527545 -8.462492e-20)
(2.6024297 -0.099884917 -4.2783874e-20)
(2.634309 -0.084298015 5.0346879e-22)
(2.6600772 -0.071444867 -1.3039224e-20)
(2.6683288 -0.039152131 9.6645066e-21)
(2.6740914 -0.014152748 6.7767036e-21)
(2.657206 0.01091422 -4.0088917e-21)
(2.6436861 0.029288472 -1.5598829e-21)
(2.6176502 0.033890933 -3.5069958e-21)
(2.5993798 0.036867667 -1.5490574e-21)
(2.5818982 0.026148931 -4.5448119e-21)
(2.5702072 0.018207748 -9.235559e-21)
(2.566009 0.0034061456 -1.2444323e-20)
(2.5636779 -0.0070738595 -3.2556666e-21)
(2.5686685 -0.017772743 -1.5064679e-20)
(2.5726133 -0.024979016 -1.9662543e-20)
(2.5807561 -0.02912741 1.2438434e-20)
(2.5865573 -0.03148888 2.2844696e-21)
(2.5936018 -0.030344928 -3.2320471e-21)
(2.5983117 -0.028959891 3.5455426e-21)
(2.6024009 -0.024920135 4.7425038e-22)
(2.6048308 -0.021620691 -3.3275583e-22)
(2.605816 -0.016871622 -8.4840229e-22)
(2.6059927 -0.013261694 3.7953643e-21)
(2.6046956 -0.0092570926 2.4772618e-21)
(2.603303 -0.00630962 -1.4146085e-21)
(2.6008248 -0.003602027 -8.4997206e-22)
(2.5986686 -0.0016403664 -4.439851e-22)
(2.5958725 -0.00013689225 -2.3109833e-22)
(2.5935559 0.00096315055 3.137981e-22)
(2.5909191 0.0016363062 -1.1716329e-22)
(2.5887345 0.0021433416 -3.794093e-22)
(2.5863982 0.00235205 -2.614493e-22)
(2.5844746 0.0025115236 4.6846115e-23)
(2.5824641 0.002477351 7.4195242e-23)
(2.5807609 0.0024693878 -1.1869976e-22)
(2.5789845 0.002378543 -7.0524412e-23)
(2.5775569 0.0022318242 -4.9452952e-23)
(2.5760521 0.0019968162 -4.8247484e-23)
(2.5748144 0.0018596426 4.8312085e-23)
(2.5735004 0.0017318667 8.2687594e-23)
(2.5726002 0.0013794864 -1.4488842e-22)
(2.5716313 0.00092694128 -8.1892551e-23)
(2.5710021 0.00075182109 -2.0679696e-22)
(2.5703268 0.00061322671 -4.3165685e-22)
(2.5762409 0.095931531 -1.2112341e-20)
(2.5132807 0.052149551 -2.398734e-21)
(2.4721996 0.014591042 7.2024131e-20)
(2.4985007 -0.042956668 1.0261375e-19)
(2.517176 -0.089389376 1.320795e-20)
(2.5641139 -0.10556477 -4.5839225e-20)
(2.6010018 -0.11790173 -6.9458497e-20)
(2.6407297 -0.099965366 -5.0745923e-20)
(2.6718437 -0.085147175 -9.8364969e-21)
(2.6813129 -0.0463884 -9.4194389e-21)
(2.6902054 -0.01554687 1.2142904e-20)
(2.6728223 0.016683784 6.5622845e-21)
(2.6573303 0.040940731 -3.6617104e-21)
(2.625184 0.04786326 -6.3705009e-21)
(2.601593 0.052620376 -8.3194274e-21)
(2.5785782 0.03947245 -5.7109457e-21)
(2.5626983 0.029552908 -8.6065492e-21)
(2.5564926 0.010292354 -1.9649373e-20)
(2.5528509 -0.0036412829 -2.2896375e-20)
(2.5589761 -0.01819372 -1.5565159e-20)
(2.563895 -0.028321128 -2.6930601e-20)
(2.5745594 -0.034562241 -2.2388301e-20)
(2.5823379 -0.038479429 8.0064008e-21)
(2.5920039 -0.037798157 7.0987037e-21)
(2.5987103 -0.03668036 1.9388452e-21)
(2.6048276 -0.031965806 -1.5667066e-21)
(2.6087582 -0.028082341 -4.5444037e-21)
(2.6108875 -0.022096593 2.938407e-21)
(2.6118689 -0.017520752 2.494414e-21)
(2.610878 -0.012257077 2.1619846e-21)
(2.6096636 -0.0083846193 8.8214638e-22)
(2.6069425 -0.0047592973 -5.4393281e-22)
(2.6045844 -0.0021355571 -1.4604304e-23)
(2.6013374 -0.00012599526 -1.4817074e-23)
(2.5986727 0.0013279765 1.9875652e-22)
(2.595589 0.0021822175 2.0759785e-22)
(2.5930805 0.0028270038 -2.1607163e-22)
(2.5904108 0.0030362185 -3.0064657e-22)
(2.5881963 0.0032170749 -1.877001e-22)
(2.5859202 0.0031399523 -3.1312392e-22)
(2.5840219 0.0030981128 -2.8862133e-22)
(2.5820785 0.0029104782 2.9219642e-23)
(2.5804075 0.0027842471 7.4857934e-23)
(2.5786784 0.0026108866 -1.3898395e-22)
(2.5772664 0.0024028838 -1.3880059e-22)
(2.5757805 0.0021335095 3.609826e-23)
(2.5745496 0.0019557436 6.8527001e-23)
(2.5732406 0.0018014778 -5.8334308e-23)
(2.5723333 0.001428531 2.6191229e-24)
(2.5713565 0.00096611401 -2.1714402e-22)
(2.570724 0.00077423013 -4.3064412e-22)
(2.5700438 0.00062408204 -3.1474289e-22)
(2.5634081 0.11045395 1.4556919e-20)
(2.4978159 0.06316717 -7.881009e-20)
(2.4514065 0.021441086 -7.0480821e-20)
(2.4785786 -0.046185755 6.613073e-20)
(2.4988221 -0.10138482 9.5002962e-20)
(2.5528137 -0.12202906 6.4654573e-20)
(2.5966422 -0.1378561 9.3878473e-21)
(2.6453987 -0.11729457 2.7786311e-20)
(2.6836172 -0.10026617 4.6797263e-20)
(2.6961979 -0.053575599 -1.0763229e-20)
(2.7066735 -0.016521037 -1.0347423e-20)
(2.6847641 0.02405937 7.8889539e-21)
(2.6686219 0.055245494 2.5364416e-21)
(2.6307617 0.064755252 9.8908392e-21)
(2.6015844 0.071807925 7.5057653e-21)
(2.5742806 0.055898005 2.6764569e-20)
(2.5532618 0.043766536 2.9663801e-20)
(2.5445428 0.019131176 3.0724232e-20)
(2.5390065 0.0010042033 2.0800306e-20)
(2.5463378 -0.018284475 3.3850151e-21)
(2.5523479 -0.032063872 1.0676118e-20)
(2.5660187 -0.040956929 -1.875735e-20)
(2.5761626 -0.046876398 -1.4337982e-20)
(2.5890059 -0.046881628 -8.6447882e-21)
(2.5981688 -0.046221399 -9.7403273e-21)
(2.6068381 -0.04081258 -1.621908e-21)
(2.6126986 -0.036297669 -4.983933e-21)
(2.6163636 -0.028829349 -2.3421794e-21)
(2.618457 -0.02307585 4.7824505e-21)
(2.617945 -0.016204727 -1.3213008e-21)
(2.6170367 -0.011122096 -1.6986292e-21)
(2.6140458 -0.006257612 -8.3468586e-22)
(2.6114566 -0.0027432321 -2.2204248e-21)