/*--------------------------------*- C++ -*----------------------------------*\
| =========                 |                                                 |
| \\      /  F ield         | OpenFOAM: The Open Source CFD Toolbox           |
|  \\    /   O peration     | Version:  v2012                                 |
|   \\  /    A nd           | Website:  www.openfoam.com                      |
|    \\/     M anipulation  |                                                 |
\*---------------------------------------------------------------------------*/
FoamFile
{
    version     2.0;
    format      ascii;
    class       volScalarField;
    location    "17.34855226677666";
    object      p;
}
// * * * * * * * * * * * * * * * * * * * * * * * * * * * * * * * * * * * * * //

dimensions      [0 2 -2 0 0 0 0];


internalField   nonuniform List<scalar> 
9200
(
-8.6906061e-05
-0.00017024481
0.0017947823
-0.00018751972
0.0015891272
0.0018683345
-0.00029500713
0.0014987959
0.0015361892
0.0023481564
-0.00034478313
0.0012255914
0.0013299032
0.0018853746
0.0028109964
-0.00042471886
0.0010398308
0.00086686874
0.0015407131
0.0022023292
0.0034486395
-0.00045677634
0.00081288738
0.00050522759
0.00086171411
0.001692363
0.002679811
0.0042612114
-0.00048094443
0.00067873586
0.00010765597
0.00027733033
0.0007541063
0.0019782103
0.0033199471
0.0052968527
-0.00046742109
0.00059723574
-0.00014960063
-0.00034939828
-0.00011441624
0.00073780573
0.0024021427
0.0041751354
0.006586044
-0.00042679705
0.00062373885
-0.00029471712
-0.00080831732
-0.0010534601
-0.00047852339
0.00082059909
0.0030218159
0.0052802186
0.008158239
-0.00034870516
0.000753842
-0.00024751057
-0.0011086472
-0.0018225042
-0.0018186756
-0.00080244206
0.0010700464
0.0038788106
0.0066688641
0.010036232
-0.00031882276
0.0009813409
4.8921208e-06
-0.0011413567
-0.0024138027
-0.0030190288
-0.0026271893
-0.0010050062
0.0015399277
0.0050139807
0.0083671508
0.01223666
-0.00028902048
0.0013374631
0.00048075511
-0.00087305706
-0.0026926861
-0.0040614322
-0.004376108
-0.0033791436
-0.0010139322
0.0022837948
0.0064594883
0.010394107
0.014769714
-0.00032290823
0.0017269197
0.0012422277
-0.00025244606
-0.002601628
-0.0047948636
-0.0060302269
-0.0057698582
-0.0039750692
-0.00075587893
0.0033444724
0.0082387053
0.012761449
0.017638695
-0.00050357395
0.0021695367
0.0020931625
0.00075714039
-0.0020530507
-0.0051425944
-0.007434519
-0.0081676058
-0.0070626567
-0.004311268
-0.00017101007
0.0047526482
0.010365551
0.015473977
0.020842229
-0.0007674989
0.0026474853
0.0031272906
0.0021613753
-0.00099450886
-0.0049957144
-0.008506576
-0.010427875
-0.010284518
-0.0081053996
-0.0043009327
0.00078256576
0.0065256522
0.012845696
0.018530959
0.024376456
-0.0013305868
0.0030619879
0.0044295946
0.0039574284
0.00062326062
-0.0042694889
-0.0091295008
-0.012480858
-0.013520018
-0.01216598
-0.008768538
-0.003884018
0.0021264046
0.0086692961
0.015678281
0.021927531
0.028231791
-0.0021201931
0.0035839738
0.0057698055
0.0061389717
0.0028330924
-0.0028785749
-0.0092020959
-0.014222701
-0.016730651
-0.01640364
-0.013615828
-0.008962165
-0.0030329085
0.0038641655
0.011180835
0.018857596
0.025655108
0.032387325
-0.0030773469
0.0039735559
0.0071267349
0.0086405489
0.0056427619
-0.00075502974
-0.0086182478
-0.015560428
-0.019850268
-0.020825136
-0.018781162
-0.014494127
-0.0086484417
-0.00174938
0.0059868913
0.014052405
0.022374459
0.029701004
0.036825161
-0.0043602577
0.0040658792
0.0083841568
0.011387964
0.0090362017
0.0021443292
-0.0072823435
-0.016391794
-0.022825363
-0.025424949
-0.02431667
-0.020429138
-0.014743481
-0.0078392534
-5.5748299e-05
0.0084794113
0.017273727
0.026218186
0.034050005
0.041552794
-0.0059708338
0.0039182595
0.0094259816
0.014288412
0.012958096
0.0058387558
-0.0051133101
-0.016615882
-0.025592723
-0.030223823
-0.030285493
-0.02684481
-0.021252006
-0.014390763
-0.0065819211
0.0020167126
0.011325963
0.02083435
0.030377382
0.038686996
0.046558723
-0.0078865652
0.0034214379
0.010132548
0.017224249
0.017334763
0.010305375
-0.0020543123
-0.01613699
-0.028083822
-0.0352456
-0.036805259
-0.033853091
-0.028240858
-0.021295083
-0.013525359
-0.0049388474
0.0044383446
0.014514
0.024724774
0.034837982
0.043597135
0.051726591
-0.01002545
0.002469262
0.010403486
0.02005265
0.022060252
0.015483681
0.0019139034
-0.014874035
-0.030224641
-0.040513469
-0.044029605
-0.041652085
-0.035824458
-0.028567532
-0.020713833
-0.012264483
-0.0029680998
0.007188492
0.018035653
0.028936235
0.039582394
0.048763035
0.056977245
-0.012268661
0.00093204267
0.010084797
0.022618482
0.027002279
0.021266622
0.0067641972
-0.012772963
-0.031942863
-0.046043709
-0.052144163
-0.050516325
-0.044221185
-0.036267957
-0.02807859
-0.019716403
-0.010718426
-0.00070959321
0.010258584
0.021887516
0.033459082
0.044593706
0.054155582
0.062564174
-0.014498945
-0.0013984693
0.0090726131
0.024754935
0.032006821
0.027502394
0.01241066
-0.0098199112
-0.033179468
-0.051844235
-0.061368196
-0.0608096
-0.053753829
-0.044555516
-0.035576398
-0.027125914
-0.018502537
-0.008965129
0.001821293
0.013651584
0.026069407
0.038281108
0.04985649
0.059723395
0.068520969
-0.01629235
-0.0046660091
0.0072961534
0.026285604
0.036953429
0.033997998
0.018704663
-0.0060570116
-0.033907003
-0.057917484
-0.071947995
-0.073008455
-0.064887467
-0.053702108
-0.043240296
-0.034321997
-0.026055045
-0.01721821
-0.0070380741
0.0046334187
0.017379299
0.030581761
0.043388177
0.055352311
0.065447782
0.074487351
-0.01819112
-0.0089966334
0.0046867306
0.027058345
0.041587458
0.040516898
0.025430027
-0.0015882145
-0.034144873
-0.064273325
-0.084146757
-0.087698986
-0.078248871
-0.064135996
-0.051201147
-0.041178063
-0.033080429
-0.025125835
-0.015933732
-0.0049257337
0.0077549183
0.021458601
0.035421774
0.048766986
0.061059962
0.07133422
0.080369729
-0.018799482
-0.015026109
0.0008215647
0.026722975
0.045777804
0.046786057
0.032302272
0.0033958784
-0.033974276
-0.0709326
-0.098246074
-0.10558607
-0.094642235
-0.076429776
-0.0597081
-0.047629144
-0.039294972
-0.032292762
-0.024474167
-0.014641838
-0.0025794979
0.011226217
0.025905889
0.040581769
0.054400466
0.066940812
0.077334665
0.08631421
-0.017711801
-0.020743463
-0.0026715826
0.025102787
0.049363704
0.05253483
0.03899824
0.008635931
-0.033564141
-0.077977165
-0.11453607
-0.12755369
-0.1151573
-0.091412377
-0.069137003
-0.053675878
-0.044436
-0.038307914
-0.032201412
-0.024108448
-0.013269783
7.4181386e-05
0.015092217
0.030731335
0.046052326
0.060259599
0.072963553
0.083432261
0.092374595
-0.015634745
-0.025445415
-0.0049704974
0.024546631
0.052125604
0.057572372
0.045170997
0.013812742
-0.033120224
-0.085554954
-0.13335846
-0.15470618
-0.14122129
-0.11038275
-0.080193846
-0.05944788
-0.048273303
-0.042753786
-0.038622169
-0.032846558
-0.023928801
-0.011698761
0.0031210767
0.01939312
0.035939124
0.051820209
0.066315508
0.079099625
0.089595658
0.098469686
-0.012776158
-0.029598393
-0.0068502627
0.024260655
0.051618588
0.061422886
0.050456756
0.018518262
-0.03299016
-0.093904846
-0.15502082
-0.18842146
-0.1745381
-0.13490602
-0.09386993
-0.065311277
-0.050680887
-0.045231836
-0.043224799
-0.040330369
-0.034098124
-0.023757133
-0.009785006
0.0066468244
0.024157379
0.041530131
0.057855537
0.072540913
0.085324925
0.095794552
0.10455569
-0.0093147607
-0.033786935
-0.0091633841
0.021468588
0.048032308
0.06320414
0.054487312
0.022341199
-0.033508522
-0.10344542
-0.17984755
-0.23020397
-0.21743911
-0.16673306
-0.11143741
-0.071775655
-0.051655291
-0.045418155
-0.045514169
-0.046013228
-0.04326703
-0.035702478
-0.02336975
-0.007378493
0.010723603
0.029403495
0.047488299
0.064130169
0.078905695
0.091611123
0.10200206
0.11061613
-0.0054683599
-0.037936862
-0.012014603
0.016953561
0.043905703
0.062187715
0.056693397
0.024912452
-0.035002565
-0.11415095
-0.20769449
-0.28136987
-0.27267719
-0.2085083
-0.13460336
-0.079642523
-0.051295927
-0.043076737
-0.045064027
-0.049367307
-0.050905234
-0.04708254
-0.037330419
-0.022526882
-0.0043403651
0.015400897
0.035141631
0.053770679
0.070606617
0.085374905
0.097929628
0.10819362
0.11662786
-0.0014095256
-0.040920099
-0.015162736
0.010987004
0.039395163
0.058120679
0.056457192
0.025859269
-0.03771785
-0.12657284
-0.23815068
-0.34231849
-0.34316151
-0.2618845
-0.16608147
-0.090310129
-0.050033839
-0.038129434
-0.041557345
-0.049943725
-0.056503407
-0.057428009
-0.051313623
-0.038620759
-0.020996518
-0.00056041463
0.020711298
0.041351793
0.060357595
0.077250396
0.091914468
0.10425292
0.11434722
0.12257348
0.0026692388
-0.04247009
-0.018142892
0.003979423
0.03276579
0.052236106
0.052930543
0.024967411
-0.041900601
-0.14071545
-0.2722203
-0.4161219
-0.43297611
-0.33131009
-0.20792446
-0.10582935
-0.048670626
-0.030751898
-0.034875615
-0.04743755
-0.059641952
-0.06628878
-0.06495218
-0.055442846
-0.039215098
-0.018576671
0.0040360704
0.02667134
0.047977821
0.067201889
0.084022003
0.098491448
0.11055507
0.12044189
0.12843697
0.005779984
-0.042540556
-0.020494796
-0.0027854237
0.024992085
0.043778864
0.047113168
0.021344215
-0.047420153
-0.15702626
-0.30762611
-0.50424527
-0.55058144
-0.4243155
-0.26325549
-0.12811005
-0.048430989
-0.021437978
-0.025166368
-0.041773111
-0.060065638
-0.073305137
-0.077892143
-0.072769879
-0.058946091
-0.038784967
-0.015115616
0.0094974504
0.033250173
0.05498729
0.074258178
0.090881154
0.1050743
0.11681216
0.12645915
0.13420407
0.0074494561
-0.04162144
-0.022281208
-0.0077678353
0.015228894
0.034126802
0.037918646
0.015884492
-0.054819953
-0.17490345
-0.3460522
-0.59848802
-0.69092605
-0.55037372
-0.34186922
-0.1604521
-0.050917002
-0.011073304
-0.012900852
-0.033176448
-0.057767592
-0.078280551
-0.089858479
-0.090384756
-0.080152412
-0.061327503
-0.037058974
-0.010512581
0.015832917
0.040392422
0.062332378
0.081475614
0.097788265
0.11163353
0.12300262
0.13238289
0.13986257
0.0077530748
-0.040009674
-0.023767837
-0.011559665
0.0030523107
0.023088188
0.02755212
0.0063891219
-0.062649698
-0.19484693
-0.38664877
-0.68820581
-0.83380546
-0.70200319
-0.45222171
-0.21022678
-0.058652307
-0.0010710787
0.0010374938
-0.022244653
-0.053061724
-0.081262056
-0.10071697
-0.10813042
-0.10280372
-0.086391867
-0.062149808
-0.033847067
-0.0047065399
0.022977994
0.048032435
0.069947886
0.088803137
0.1047055
0.11814218
0.12910728
0.13819918
0.14540211
0.006931249
-0.03776862
-0.025819433
-0.015751224
-0.01056144
0.011034586
0.014460982
-0.0032320023
-0.073031568
-0.21548733
-0.42919336
-0.7750928
-0.97739622
-0.87861519
-0.59146645
-0.28764389
-0.075577931
0.0065322134
0.015225625
-0.0099885027
-0.04663688
-0.082605115
-0.11054497
-0.12595284
-0.12691284
-0.11419272
-0.09083328
-0.061071879
-0.029034865
0.002283535
0.0308787
0.056096894
0.077765158
0.096190743
0.11159769
0.12457605
0.13510944
0.1438963
0.15081415
0.0053932479
-0.035197612
-0.027177902
-0.019625863
-0.023530369
-0.0020891731
-0.00075124738
-0.017405954
-0.079396507
-0.23370662
-0.47296172
-0.84933822
-1.1191384
-1.07415
-0.75425269
-0.39367038
-0.10720787
0.0095247608
0.027719338
0.0021321331
-0.039566691
-0.083008324
-0.11968229
-0.14395414
-0.15255256
-0.14498617
-0.12363057
-0.092916543
-0.057867903
-0.022569148
0.010319159
0.03941779
0.064497078
0.085716742
0.10359117
0.11843295
0.13091386
0.14099483
0.14946458
0.15609182
-0.032459297
0.0038099268
-0.027187489
-0.023776753
-0.035869857
-0.016429929
-0.017892962
-0.035722958
-0.09015187
-0.24071032
-0.49757609
-0.91319816
-1.2500034
-1.250727
-0.92624894
-0.51128799
-0.15632795
0.0053678883
0.036576271
0.012184073
-0.033293472
-0.083502557
-0.12875135
-0.16242544
-0.1798845
-0.1790583
-0.16112858
-0.13026988
-0.092217855
-0.052403851
-0.014520708
0.019331689
0.048489738
0.073140615
0.093737598
0.11096101
0.12518296
0.13713729
0.14675161
0.15489633
0.16122982
-0.027230228
-0.029524618
0.0024812791
-0.028771258
-0.047413231
-0.032251284
-0.037540088
-0.057359389
-0.10701142
-0.2450903
-0.50274697
-0.9471556
-1.3705262
-1.4093954
-1.0944816
-0.62784247
-0.2217795
-0.0089733693
0.040392196
0.017887197
-0.029536984
-0.08540116
-0.13863093
-0.18185105
-0.20916695
-0.21672417
-0.20395381
-0.17414178
-0.13340433
-0.088443617
-0.044700041
-0.0050613399
0.029173621
0.057967803
0.081936996
0.10176731
0.11826142
0.13182318
0.1432311
0.15237031
0.16018561
0.16622417
-0.033406861
-0.027653446
-0.026635511
0.0014397053
-0.056682549
-0.050778377
-0.060166474
-0.08260952
-0.12906935
-0.25271236
-0.50944243
-0.9666981
-1.4447694
-1.6064494
-1.255336
-0.7445041
-0.29977568
-0.036334004
0.037427172
0.01745641
-0.030241963
-0.090184291
-0.15038343
-0.20286759
-0.24073238
-0.25829557
-0.25273817
-0.22564874
-0.18292505
-0.13251102
-0.081427658
-0.035041951
0.0056647489
0.039666461
0.067723277
0.090800609
0.10975138
0.12545856
0.13833311
0.14918307
0.15784349
0.16532775
0.17107204
-0.06445655
-0.037969629
-0.028527128
-0.024229806
0.00078983417
-0.073700577
-0.086344141
-0.11212646
-0.15579841
-0.26752063
-0.5212732
-0.97308181
-1.5083427
-1.6740035
-1.4032714
-0.8641912
-0.38586005
-0.079224718
0.024242809
0.011034137
-0.037453339
-0.099365024
-0.1651374
-0.22618932
-0.27493814
-0.30402179
-0.30803763
-0.28596043
-0.24254798
-0.18654333
-0.12723529
-0.071248831
-0.023204571
0.017394386
0.050622329
0.077633126
0.099653578
0.11764214
0.13252413
0.14469633
0.15498353
0.16316508
0.1703193
0.1757719
-0.099263675
-0.073181555
-0.042395604
-0.029694243
-0.022498789
0.00058622741
-0.11577791
-0.14666485
-0.18749333
-0.28824812
-0.53247547
-0.96511015
-1.5429457
-1.7971611
-1.5270239
-0.97435633
-0.47385982
-0.13520147
-0.0033097101
-0.0058721504
-0.052996838
-0.11441239
-0.1839554
-0.25249187
-0.31208883
-0.35403308
-0.37023482
-0.35619214
-0.31424761
-0.25312728
-0.18426338
-0.11756076
-0.058772642
-0.0099532058
0.029861544
0.061862114
0.087584337
0.10842758
0.12539966
0.13943544
0.15089975
0.16062428
0.16833016
0.17515844
0.18032374
-0.14813883
-0.12489078
-0.083969193
-0.047042403
-0.031083095
-0.021435816
0.00073807217
-0.18594572
-0.22398178
-0.31317766
-0.54076595
-0.94790303
-1.5487285
-1.8754508
-1.6693155
-1.0883847
-0.56162675
-0.19410728
-0.045078695
-0.034831265
-0.078169052
-0.13676974
-0.207665
-0.28229336
-0.3522883
-0.40819283
-0.43936825
-0.43724884
-0.400102
-0.33532859
-0.25595899
-0.17570781
-0.1040386
-0.043884249
0.0044241939
0.042804739
0.073220371
0.097477565
0.11706536
0.13299204
0.14617444
0.15693206
0.16609834
0.17333617
0.17984575
0.18472848
-0.2299634
-0.18276319
-0.14971202
-0.095896635
-0.053129589
-0.032447705
-0.020874477
0.0010621926
-0.26537994
-0.3412658
-0.54680973
-0.92163718
-1.5275502
-1.9188152
-1.7831573
-1.2301715
-0.67851535
-0.25983992
-0.093405456
-0.076701358
-0.11398334
-0.16747236
-0.23683241
-0.31582506
-0.39538172
-0.46595132
-0.51492998
-0.5294315
-0.50205585
-0.43666974
-0.34663858
-0.25001231
-0.16116176
-0.086845062
-0.027147001
0.019566357
0.055981487
0.084551156
0.10722957
0.12552122
0.14039391
0.15272542
0.16278338
0.17140221
0.17818457
0.18438301
0.18898626
-0.311333
-0.27892946
-0.21852246
-0.17451413
-0.10545959
-0.059206673
-0.033681225
-0.020577171
0.0014046904
-0.37184921
-0.54931852
-0.88988439
-1.4797055
-1.9192994
-1.8625868
-1.3523105
-0.81372158
-0.37666479
-0.14975277
-0.13263037
-0.16017087
-0.2070961
-0.27167943
-0.35300777
-0.44089525
-0.52641295
-0.5958536
-0.63248068
-0.6216059
-0.56106735
-0.46172642
-0.3458047
-0.23533231
-0.14166385
-0.066998451
-0.0091601358
0.035117395
0.069176243
0.095732228
0.11677405
0.13375904
0.14758341
0.15907465
0.16844891
0.1765388
0.18287853
0.18876904
0.19309557
-0.40363644
-0.3619742
-0.33242705
-0.25484347
-0.19934013
-0.1132123
-0.063281994
-0.034774382
-0.020361609
0.0016826042
-0.54816707
-0.85577059
-1.4045531
-1.873971
-1.8950322
-1.4531762
-0.94217677
-0.49358006
-0.25765892
-0.1933305
-0.22037815
-0.25509709
-0.31222938
-0.39329441
-0.48810523
-0.58813798
-0.68047063
-0.74479523
-0.75978161
-0.71258179
-0.60834646
-0.47038555
-0.33223207
-0.21308953
-0.11799198
-0.045246868
0.0095168772
0.050756672
0.082208022
0.1066664
0.12605908
0.14174839
0.15454184
0.16521567
0.17393333
0.18151329
0.18741445
0.19299791
0.19705738
-0.54577463
-0.43518641
-0.41645546
-0.38950974
-0.29162206
-0.22245393
-0.12174489
-0.066350039
-0.03570195
-0.020194007
0.0018730912
-0.81673649
-1.3052812
-1.7830797
-1.873134
-1.5196983
-1.0371362
-0.61924226
-0.35619101
-0.29060591
-0.28748196
-0.3122131
-0.35766441
-0.43609347
-0.5358765
-0.64941322
-0.76615726
-0.86365461
-0.9145721
-0.89428716
-0.79460068
-0.63383232
-0.46018903
-0.30733259
-0.1844242
-0.091306874
-0.022395167
0.028395054
0.066213814
0.094933135
0.11727833
0.13504214
0.14946403
0.16126061
0.17115531
0.1792443
0.18631836
0.19177805
0.19706886
0.20088214
-0.77129294
-0.54430363
-0.46646474
-0.47391686
-0.44856417
-0.32961303
-0.24259883
-0.12953611
-0.069245265
-0.036574564
-0.020063538
0.0019731533
-1.1893916
-1.6513265
-1.7952941
-1.53593
-1.0939942
-0.73670242
-0.47550435
-0.38509191
-0.37384786
-0.37457344
-0.4079178
-0.48003839
-0.58331393
-0.70831783
-0.85000393
-0.98568058
-1.0848371
-1.1085731
-1.0310987
-0.85046466
-0.63050942
-0.43289915
-0.27218876
-0.15112277
-0.062857464
0.00082415225
0.047065678
0.081274676
0.10724138
0.12750837
0.1436896
0.15689482
0.16774902
0.1769041
0.1843698
0.19092794
0.19596484
0.20100353
0.20476093
-1.0641349
-0.72106284
-0.54227252
-0.49873695
-0.53265338
-0.50745886
-0.36816106
-0.2598212
-0.13555877
-0.072100847
-0.037398698
-0.019642733
0.0018695283
-1.4875581
-1.6657197
-1.4972785
-1.1187121
-0.84039221
-0.59796825
-0.50645484
-0.45698664
-0.44670782
-0.45949415
-0.52515636
-0.62848945
-0.76360262
-0.92857399
-1.1065007
-1.2662859
-1.3609113
-1.3337345
-1.1472756
-0.86508792
-0.5999651
-0.38929579
-0.22999869
-0.11507874
-0.033778006
0.023797332
0.065207278
0.095776994
0.11904866
0.13731199
0.15198724
0.16405275
0.17402079
0.18244436
0.18926904
0.1953336
0.20001627
0.20498839
0.20874876
-1.3033502
-0.93326254
-0.6688054
-0.53768146
-0.53061591
-0.59035002
-0.56417468
-0.40553021
-0.27408896
-0.13998809
-0.074848008
-0.037562017
-0.019128567
0.0016440538
-1.4949843
-1.4065488
-1.1085396
-0.91251976
-0.71822466
-0.64256524
-0.57259536
-0.51208006
-0.51057099
-0.56748525
-0.67207097
-0.8127455
-0.99910118
-1.2195614
-1.4482114
-1.6386101
-1.6998262
-1.5420673
-1.1918143
-0.83771815
-0.54770058
-0.33521269
-0.18362259
-0.078021346
-0.0049985761
0.046043524
0.082579809
0.10960159
0.13029617
0.14667134
0.15994988
0.17095493
0.18005201
0.18771856
0.19392892
0.19960676
0.20412919
0.20904295
0.21274209
-1.2975648
-1.1093573
-0.80412283
-0.61364208
-0.53103381
-0.55972516
-0.64404055
-0.61639648
-0.44013031
-0.28531276
-0.14284957
-0.076365311
-0.037636251
-0.018442397
0.0013046819
-1.2704913
-1.0666544
-0.94018982
-0.8280557
-0.79110484
-0.71993176
-0.60424327
-0.55113924
-0.60229464
-0.70852594
-0.85769923
-1.058008
-1.3197367
-1.6201438
-1.9249057
-2.0965503
-1.986161
-1.6045876
-1.1621684
-0.77427299
-0.47777195
-0.27451319
-0.13566492
-0.041355389
0.02276173
0.06720927
0.099013715
0.1226708
0.14096188
0.15560408
0.16759803
0.17757123
0.18576745
0.19270935
0.19845837
0.20396911
0.20825405
0.21311777
0.21673538
-1.1036626
-1.088188
-0.91826441
-0.68144164
-0.55567694
-0.52210371
-0.58408417
-0.69031347
-0.66184134
-0.46964395
-0.29371149
-0.14280478
-0.077633967
-0.037364779
-0.01768901
0.00088946513
-0.99324341
-0.93428113
-0.91900647
-0.94308351
-0.87951615
-0.72951587
-0.60863294
-0.6182744
-0.73298308
-0.88991513
-1.1080234
-1.4018329
-1.7727716
-2.2023022
-2.5021373
-2.4747274
-2.1142406
-1.5971768
-1.1061193
-0.68742364
-0.39774548
-0.21129809
-0.088232132
-0.0061488037
0.048984023
0.087054088
0.11440652
0.13495775
0.15106603
0.1641339
0.17489633
0.18380986
0.1911467
0.19756993
0.203117
0.20826331
0.21242051
0.21720032
0.22072631
-0.88858325
-0.92314794
-0.8817922
-0.73810824
-0.56661243
-0.49509526
-0.50904071
-0.60284173
-0.7263927
-0.69852225
-0.49301812
-0.29446489
-0.14143959
-0.078147769
-0.036980651
-0.016828836
0.00041972531
-0.90083704
-0.98111299
-1.0814392
-1.0501737
-0.87429421
-0.69140255
-0.64648744
-0.72554071
-0.90651341
-1.1369111
-1.4660341
-1.8947735
-2.4431004
-2.8909883
-2.9758357
-2.6499072
-2.0855461
-1.5215838
-0.99893847
-0.58431214
-0.31365414
-0.14891469
-0.042891442
0.026850625
0.073329232
0.10544351
0.12872614
0.14648466
0.16063506
0.17222285
0.18174091
0.1896501
0.19639164
0.20260126
0.20760973
0.21261779
0.21660291
0.22128891
0.22471155
-0.83808393
-0.7649773
-0.74366745
-0.68757266
-0.57316907
-0.45929025
-0.43383443
-0.49020837
-0.61487305
-0.75133597
-0.72354461
-0.51063501
-0.28415183
-0.13897881
-0.077959484
-0.036388939
-0.01590273
-6.8869002e-05
-1.0088214
-1.193228
-1.2187476
-1.0291887
-0.79661332
-0.69012305
-0.72896405
-0.87334821
-1.1434936
-1.5009586
-1.9798966
-2.6347256
-3.2336938
-3.4585166
-3.1879985
-2.5786265
-1.9020385
-1.3166663
-0.8395983
-0.47123527
-0.23116887
-0.089769556
-0.00072891476
0.057175734
0.0956231
0.1223407
0.14199586
0.15727999
0.16963359
0.17976444
0.1881158
0.19534308
0.20184761
0.207346
0.21218626
0.21698859
0.22080175
0.22537843
0.22868803
-1.0059396
-0.75670991
-0.635641
-0.57469293
-0.51194587
-0.42629141
-0.36057853
-0.37397391
-0.46587869
-0.61879396
-0.76227984
-0.74086774
-0.51456838
-0.26856417
-0.13415681
-0.07670866
-0.035613998
-0.014913073
-0.00054480293
-1.2682449
-1.3658749
-1.1874823
-0.91242013
-0.74376712
-0.74604969
-0.85065633
-1.0780318
-1.4876951
-2.043242
-2.7702922
-3.5147755
-3.8895375
-3.7114904
-3.0905928
-2.308376
-1.6108934
-1.0831629
-0.678088
-0.35961778
-0.15359719
-0.035490368
0.037588309
0.084601698
0.11582604
0.13776882
0.1542451
0.16732012
0.1779695
0.18675585
0.19431624
0.20126712
0.20687987
0.21219959
0.21677743
0.22138113
0.22500911
0.22946454
0.23265247
-1.3015788
-0.9789016
-0.66763609
-0.50949337
-0.42308458
-0.35916867
-0.29950474
-0.2717713
-0.31655869
-0.43695996
-0.6142374
-0.76821087
-0.7411644
-0.51319084
-0.24923339
-0.12657229
-0.074178615
-0.034609467
-0.013873708
-0.00097554103
-1.4743769
-1.3307103
-1.0276281
-0.80140266
-0.76904727
-0.84226192
-1.0243639
-1.3767151
-1.9999977
-2.837849
-3.7029428
-4.2458767
-4.1884622
-3.6055133
-2.7573487
-1.9336053
-1.2999146
-0.85701361
-0.51709568
-0.25258572
-0.082553503
0.013198575
0.071780983
0.10908869
0.13395954
0.15175635
0.16547671
0.17655524
0.18566636
0.19352203
0.2007313
0.20661611
0.21204799
0.2170618
0.22139544
0.22578514
0.22921918
0.23354254
0.23660158
-1.5314837
-1.2943732
-0.92586237
-0.57887981
-0.39390141
-0.29276502
-0.23155916
-0.1927649
-0.19335399
-0.26131332
-0.40412053
-0.61056579
-0.76251675
-0.73103453
-0.50442258
-0.22725685
-0.11731043
-0.070633231
-0.033334856
-0.012793549
-0.0013387087
-1.4385104
-1.1307455
-0.8589592
-0.7915951
-0.83698561
-0.9881008
-1.277608
-1.8347287
-2.6877842
-3.8430603
-4.4836131
-4.5789902
-4.082769
-3.2237255
-2.3047262
-1.5471755
-1.0137952
-0.65170883
-0.36641807
-0.15339308
-0.018790238
0.056206773
0.10185208
0.13065896
0.15004863
0.16435445
0.17572645
0.18505517
0.19305084
0.20041728
0.20641882
0.21212866
0.21721497
0.22195379
0.22602685
0.23019442
0.23342521
0.23760816
0.24053219
-1.494256
-1.5335338
-1.2457857
-0.85291853
-0.49418476
-0.29290502
-0.18467693
-0.12794808
-0.10451721
-0.12397275
-0.21139215
-0.37406073
-0.60159592
-0.74842
-0.70744898
-0.48826142
-0.20555242
-0.10839021
-0.06640734
-0.031774801
-0.011668696
-0.0016268251
-1.2073807
-0.91251281
-0.81172737
-0.83006825
-0.95462495
-1.2004469
-1.671883
-2.4720625
-3.6215353
-4.6452467
-4.8472977
-4.4680053
-3.6547524
-2.693596
-1.8383585
-1.1997833
-0.76728705
-0.4729342
-0.24170298
-0.0665521
0.036899803
0.093605805
0.12785081
0.14933509
0.16422537
0.17574803
0.18513922
0.19310024
0.20036878
0.20645009
0.21229381
0.21762767
0.22241294
0.22685869
0.23066509
0.23460108
0.23762072
0.24165797
0.24444146
-1.2427904
-1.492928
-1.4792964
-1.1674475
-0.76787065
-0.41560071
-0.20768666
-0.097455117
-0.045182704
-0.032273385
-0.065946819
-0.1663498
-0.35339799
-0.58362015
-0.72349034
-0.66964655
-0.46151097
-0.1867489
-0.10035208
-0.061657196
-0.02989538
-0.010488393
-0.0018487317
-0.95401877
-0.82789172
-0.82031335
-0.91674421
-1.1304152
-1.5259459
-2.2555064
-3.3378053
-4.4409377
-5.032411
-4.7693512
-4.0111977
-3.0524485
-2.1437694
-1.4216241
-0.90793261
-0.56019619
-0.32185614
-0.14359197
0.0063250584
0.084126603
0.12538627
0.14979308
0.16537558
0.17691553
0.18619813
0.19387335
0.20071201
0.20673994
0.21268543
0.21814061
0.22315738
0.22762118
0.23177014
0.23530102
0.23899795
0.24179998
0.24568824
0.24832675
-0.97444456
-1.2303846
-1.433375
-1.3811921
-1.0677358
-0.67961691
-0.34460713
-0.13843324
-0.02985066
0.017352271
0.023430077
-0.014100074
-0.13902878
-0.33261304
-0.55865282
-0.6833003
-0.61776328
-0.42220986
-0.17158014
-0.092443542
-0.056532713
-0.027725689
-0.0092362737
-0.0020084389
-0.82821151
-0.80250708
-0.87570912
-1.0574833
-1.3946754
-2.0238741
-3.016637
-4.2312218
-4.931993
-4.99223
-4.3260112
-3.363705
-2.4333737
-1.6567193
-1.0770732
-0.66822435
-0.38612629
-0.19572212
-0.057208483
0.06678833
0.12321232
0.1515074
0.16809811
0.17956974
0.18855354
0.19562922
0.20155518
0.20739328
0.21330914
0.21887874
0.22401571
0.22869291
0.23283403
0.23667821
0.23992654
0.24337903
0.24595757
0.24969253
0.25218598
-0.8101962
-0.96671496
-1.1715305
-1.3278353
-1.2515316
-0.95643359
-0.59601505
-0.28410297
-0.085358669
0.018451701
0.062216259
0.06939555
0.015418441
-0.11191266
-0.31168847
-0.52543959
-0.62835744
-0.5530915
-0.37139025
-0.15750178
-0.084929005
-0.051105853
-0.025238641
-0.0079071797
-0.0021011935
-0.77412047
-0.82998809
-0.98105028
-1.2697712
-1.7969174
-2.6689875
-3.89089
-4.8540473
-5.0248677
-4.5881284
-3.6620532
-2.7045761
-1.891266
-1.2604497
-0.79937645
-0.46977695
-0.23746862
-0.087447162
0.027429444
0.11630641
0.15451965
0.17259133
0.18406652
0.19259543
0.19867063
0.20302963
0.20849712
0.21423367
0.2198269
0.22509615
0.22989038
0.23422965
0.23804116
0.2415745
0.24453492
0.24773751
0.2500864
0.25366714
0.25601654
-0.73370542
-0.77612735
-0.92310332
-1.0786471
-1.1914958
-1.1042392
-0.84283034
-0.52240921
-0.23553647
-0.046000989
0.052756849
0.10040584
0.096809188
0.041276273
-0.08267891
-0.28944939
-0.4815186
-0.56030718
-0.47967351
-0.31592854
-0.14240676
-0.076915778
-0.045473762
-0.022467849
-0.0064994722
-0.0021167658
-0.77538625
-0.90179871
-1.1461347
-1.5873413
-2.3304341
-3.4545422
-4.5541357
-5.0801942
-4.7083868
-3.915569
-2.9669094
-2.1161429
-1.453665
-0.94748321
-0.57222565
-0.30174166
-0.10967398
0.0095661374
0.099146444
0.15587827
0.17912476
0.19066505
0.19871783
0.20336621
0.20528028
0.2101563
0.21550049
0.22102499
0.22636241
0.23130598
0.23576155
0.23975731
0.24323441
0.24645171
0.24911805
0.25206295
0.25418378
0.25760746
0.25981631
-0.71143867
-0.67869718
-0.72125308
-0.8435939
-0.96328353
-1.0386235
-0.95180258
-0.73378254
-0.45894454
-0.19397948
-0.015743359
0.085840094
0.1252654
0.12110467
0.064472702
-0.053735925
-0.26084153
-0.42757116
-0.48301661
-0.40118048
-0.26052113
-0.12545702
-0.068492569
-0.039721945
-0.019436772
-0.0050212326
-0.0020420351
-0.81808081
-1.0229961
-1.3934872
-2.0173268
-3.0042387
-4.1461566
-4.8977121
-4.9253258
-4.1141866
-3.1737401
-2.3170533
-1.6437324
-1.1119922
-0.69496571
-0.38107022
-0.15568276
-0.0011691734
0.094157079
0.15353006
0.18660487
0.19988201
0.2072676
0.21006361
0.20847762
0.21248562
0.21715503
0.22247891
0.22782567
0.23288347
0.23750691
0.24161981
0.2452685
0.24840591
0.25129938
0.25366433
0.25635285
0.25824368
0.26150946
0.26358342
-0.72857917
-0.63855917
-0.61187749
-0.64661013
-0.73974952
-0.83420224
-0.88222092
-0.80341467
-0.63079396
-0.39957904
-0.15623054
0.014876749
0.11044646
0.14674331
0.13937314
0.082846703
-0.028699797
-0.22278109
-0.36683122
-0.39397925
-0.31847119
-0.20800244
-0.10805303
-0.059586836
-0.033892822
-0.016221479
-0.003482562
-0.001855486
-0.90061141
-1.2079315
-1.7327729
-2.5753512
-3.6661173
-4.5852565
-4.9109863
-4.4442591
-3.4082112
-2.4920235
-1.8042027
-1.2786279
-0.83818365
-0.48292115
-0.21589548
-0.027358259
0.092506759
0.15840805
0.19351495
0.21164728
0.21898557
0.21916764
0.21272267
0.21563154
0.21923519
0.22418953
0.22945581
0.2346077
0.23939061
0.24369126
0.2474593
0.25075431
0.25354248
0.25610502
0.25817305
0.26060004
0.26226066
0.26536923
0.26731566
-0.77825711
-0.63384094
-0.55856968
-0.53493763
-0.55943498
-0.62787428
-0.70125876
-0.73321855
-0.66574364
-0.53517566
-0.3364827
-0.12109719
0.045739192
0.13096311
0.16137763
0.15187775
0.095750356
-0.010375026
-0.18108792
-0.30338398
-0.3089841
-0.24687907
-0.16342242
-0.090592328
-0.050542818
-0.02803112
-0.012888937
-0.0019076809
-0.0015676527
-1.0313522
-1.4651815
-2.1721895
-3.157195
-4.1417774
-4.714233
-4.5864891
-3.7598228
-2.7956814
-1.9498258
-1.4192589
-0.98812519
-0.60854441
-0.29872246
-0.070252987
0.080717767
0.16196225
0.20311552
0.22485255
0.23414477
0.23157561
0.21820597
0.21969354
0.22178771
0.22613993
0.23120857
0.23641588
0.24137278
0.24587916
0.24985556
0.25326975
0.25619721
0.25863305
0.26086966
0.26263632
0.26479803
0.26622924
0.26918252
0.27100988
-0.86381834
-0.65561076
-0.53631043
-0.47351328
-0.45186617
-0.46789044
-0.51817789
-0.57414144
-0.59769227
-0.54492822
-0.43684975
-0.2832439
-0.0759407
0.070856138
0.14549367
0.1707769
0.15848041
0.10362977
0.0030001199
-0.14158159
-0.24051633
-0.23219232
-0.18700306
-0.12729593
-0.073766924
-0.041456644
-0.022225301
-0.0095122571
-0.0003291951
-0.0012069681
-1.2167994
-1.7980947
-2.6531923
-3.6204892
-4.3556806
-4.5368114
-4.0177264
-3.1243852
-2.2654195
-1.5567862
-1.1208379
-0.74505215
-0.40817253
-0.13465016
0.055415885
0.1638774
0.21681475
0.24178216
0.25210145
0.24761513
0.22567509
0.22478186
0.22481875
0.22830721
0.23301076
0.23822369
0.24336059
0.24812098
0.25234908
0.25598731
0.2590278
0.26159015
0.26368044
0.26558546
0.26704585
0.26893932
0.27014484
0.27294434
0.27466319
-0.98946463
-0.70341927
-0.535173
-0.43831986
-0.38653014
-0.36758565
-0.37797843
-0.41476684
-0.46013436
-0.47697731
-0.43490083
-0.36127551
-0.21499711
-0.038862401
0.090704875
0.15472903
0.17456706
0.16000744
0.10702959