/*--------------------------------*- C++ -*----------------------------------*\
| =========                 |                                                 |
| \\      /  F ield         | OpenFOAM: The Open Source CFD Toolbox           |
|  \\    /   O peration     | Version:  v2012                                 |
|   \\  /    A nd           | Website:  www.openfoam.com                      |
|    \\/     M anipulation  |                                                 |
\*---------------------------------------------------------------------------*/
FoamFile
{
    version     2.0;
    format      ascii;
    class       volVectorField;
    location    "17.34855226677666";
    object      U;
}
// * * * * * * * * * * * * * * * * * * * * * * * * * * * * * * * * * * * * * //

dimensions      [0 1 -1 0 0 0 0];


internalField   nonuniform List<vector> 
9200
(
(2.5598541 -0.0019675202 -1.9718811e-22)
(2.5594611 -0.0066028051 8.4870852e-23)
(2.5654971 -0.0021185647 -1.3983179e-22)
(2.5589484 -0.010309944 2.6908579e-24)
(2.5651531 -0.0072313633 5.3211511e-23)
(2.5686174 -0.0022152729 1.3724563e-22)
(2.5581446 -0.014294224 6.5461709e-24)
(2.5646609 -0.01126421 2.578479e-23)
(2.5682911 -0.0076336918 -5.3659212e-23)
(2.5726579 -0.0023265009 1.3574473e-22)
(2.5572262 -0.017705903 -1.9692618e-23)
(2.5639164 -0.015638275 1.7176032e-22)
(2.5678354 -0.011889877 -7.9538074e-23)
(2.5723701 -0.0081334977 6.7961351e-23)
(2.5765888 -0.002435202 1.016164e-22)
(2.5561826 -0.021124716 2.817182e-23)
(2.56299 -0.019370568 2.8971278e-23)
(2.5671186 -0.016537238 -1.0238179e-22)
(2.5719751 -0.012676514 -1.1734511e-22)
(2.5763601 -0.00864089 -7.6604959e-23)
(2.5806746 -0.0025350061 9.8262499e-23)
(2.5550989 -0.024162637 7.9221705e-24)
(2.5619188 -0.023086884 3.2458213e-23)
(2.5661882 -0.020529054 1.1782006e-22)
(2.5713267 -0.017678313 -1.5786862e-22)
(2.5760484 -0.013484713 2.3119794e-22)
(2.580533 -0.0091254356 -7.6528671e-23)
(2.5848023 -0.0026153847 -5.8314549e-22)
(2.5540184 -0.027037671 -5.1001358e-23)
(2.5607175 -0.026340729 -7.9330169e-24)
(2.5650597 -0.024517979 5.5751307e-23)
(2.5704346 -0.022025958 2.0564031e-22)
(2.5755097 -0.018862368 4.7666817e-24)
(2.5803307 -0.014262265 7.7230058e-23)
(2.584773 -0.0095326955 -1.4911588e-22)
(2.5889432 -0.0026675131 -1.0617644e-22)
(2.5530177 -0.02961156 -4.5931951e-23)
(2.5594475 -0.029326183 -1.4923511e-23)
(2.5637162 -0.028039755 1.9576314e-23)
(2.5692985 -0.026410461 2.8180861e-22)
(2.5747146 -0.023608975 1.3149162e-22)
(2.5799557 -0.02001074 3.3041597e-22)
(2.5847052 -0.014919672 -3.1956792e-22)
(2.589045 -0.0098219931 -1.3945875e-22)
(2.5930319 -0.002685643 6.6886615e-22)
(2.5521689 -0.031952804 0)
(2.5581597 -0.031844927 -4.4029792e-23)
(2.5621842 -0.031275155 2.4644176e-22)
(2.5678583 -0.030360891 1.5168772e-22)
(2.5736496 -0.028459546 -8.5489142e-23)
(2.5793352 -0.025165356 -2.1072046e-22)
(2.5845458 -0.020991432 3.6883938e-22)
(2.5891342 -0.015389212 -8.0652857e-22)
(2.5932752 -0.0099718771 4.2858085e-22)
(2.5970124 -0.0026679329 5.1953467e-22)
(2.5515919 -0.034023098 1.2949634e-23)
(2.5569374 -0.033915639 -1.0232615e-23)
(2.5604772 -0.034004689 2.4324875e-22)
(2.5661046 -0.034058317 -1.9491534e-23)
(2.5722156 -0.032955097 -1.1248039e-22)
(2.5784547 -0.030507941 3.6040269e-23)
(2.5841782 -0.02651264 1.1865896e-22)
(2.5892334 -0.021703435 -3.0540333e-22)
(2.5935387 -0.015634759 1.3475317e-22)
(2.5974003 -0.0099817994 -6.8447507e-23)
(2.600835 -0.0026159979 -5.0794603e-24)
(2.5512919 -0.035732003 -2.8339809e-23)
(2.5556871 -0.035406306 -2.0375496e-22)
(2.5586259 -0.036209415 -1.8347004e-23)
(2.5639984 -0.037284734 -7.8922269e-23)
(2.5703669 -0.037295928 -7.0716936e-22)
(2.5771856 -0.035605905 -9.9224279e-22)
(2.583601 -0.032307961 -5.2438646e-22)
(2.5891851 -0.027507402 3.1281914e-22)
(2.5939246 -0.022091897 -3.9434857e-22)
(2.5978487 -0.015655052 3.5388428e-22)
(2.6013659 -0.0098659182 1.0530197e-21)
(2.604462 -0.00253368 -2.1122087e-21)
(2.5513178 -0.037391942 -1.1496186e-24)
(2.5547419 -0.036331646 -1.9525913e-22)
(2.5567163 -0.037713127 1.0027066e-22)
(2.5615145 -0.040000692 3.0518541e-22)
(2.5680112 -0.04128766 5.0373482e-23)
(2.5754588 -0.04069519 -3.2377844e-22)
(2.5826718 -0.03797869 -5.2315722e-22)
(2.5890135 -0.033657352 4.2508797e-22)
(2.594238 -0.02806893 1.8678662e-22)
(2.5985327 -0.022154056 4.1469196e-22)
(2.6020035 -0.015474109 -5.0216187e-22)
(2.605133 -0.0096447807 7.8649262e-22)
(2.6078675 -0.0024256129 -1.4628468e-23)
(2.5518506 -0.038670137 -1.3357016e-22)
(2.5542294 -0.036721298 2.8888151e-22)
(2.554784 -0.038604597 3.266738e-22)
(2.5586405 -0.042028762 -5.274374e-22)
(2.5650661 -0.044897418 -2.1007237e-22)
(2.5731427 -0.045628042 1.5661945e-22)
(2.5813198 -0.043804506 2.0198562e-21)
(2.5885801 -0.039786101 1.1602327e-21)
(2.5945372 -0.034436043 8.6979083e-23)
(2.5992217 -0.028189952 5.6860021e-22)
(2.6029825 -0.021926383 2.1171173e-23)
(2.60596 -0.015127727 1.8806332e-22)
(2.6086765 -0.0093381449 -2.1112704e-21)
(2.6110347 -0.0022960816 2.4602474e-21)
(2.5530582 -0.040072832 1.1668542e-22)
(2.5544011 -0.036300053 -2.579326e-22)
(2.5528594 -0.038285403 1.1487618e-23)
(2.5553441 -0.043297709 8.5422672e-22)
(2.5614432 -0.047983383 3.3705853e-22)
(2.5701071 -0.050418645 -5.4460049e-22)
(2.5794007 -0.049700512 3.6375022e-23)
(2.5878382 -0.046213063 8.8518134e-23)
(2.5947016 -0.040845616 -6.3066388e-22)
(2.600009 -0.034625537 -1.0397734e-22)
(2.6040345 -0.027921785 2.1666339e-22)
(2.607222 -0.021465182 -3.7212283e-23)
(2.6096918 -0.014651365 -1.1869954e-21)
(2.6119827 -0.008960744 -8.2926982e-22)
(2.6139532 -0.0021484013 -2.6893876e-23)
(2.554882 -0.04137623 3.0042676e-22)
(2.5551754 -0.035170517 6.7526334e-23)
(2.5511242 -0.037472284 9.1093129e-22)
(2.5517723 -0.04345911 7.8183125e-22)
(2.5570402 -0.050411375 8.6836614e-22)
(2.566191 -0.054978955 -1.0662354e-21)
(2.5767646 -0.055753015 9.8783627e-23)
(2.5866643 -0.052917574 -2.2569371e-22)
(2.5947308 -0.047639516 1.577461e-24)
(2.6007979 -0.041114063 -5.5156429e-22)
(2.6052806 -0.034294418 7.4988643e-22)
(2.6086064 -0.027348746 3.5611093e-22)
(2.6112233 -0.020828096 5.0363096e-23)
(2.6131873 -0.014072304 -2.5569591e-22)
(2.6150444 -0.0085210444 7.5220047e-22)
(2.6166157 -0.0019846437 -1.8856044e-21)
(2.5574048 -0.0427763 6.1367914e-22)
(2.5567421 -0.033376654 2.9531135e-22)
(2.5496572 -0.035232586 -1.4008463e-22)
(2.5479223 -0.042612946 -1.4532762e-21)
(2.5518253 -0.051994734 3.4167396e-22)
(2.5612265 -0.059216504 4.6353749e-23)
(2.5732173 -0.061959607 6.606659e-23)
(2.5849308 -0.060064815 -1.0350711e-21)
(2.5945549 -0.054844155 -7.9531756e-22)
(2.6016472 -0.047991372 7.1999372e-22)
(2.6066426 -0.040677853 1.0867125e-21)
(2.6102479 -0.033566538 -2.4994101e-22)
(2.6129043 -0.026561445 2.2434209e-22)
(2.6149799 -0.020061047 -3.735153e-22)
(2.6164438 -0.013406427 2.0043522e-21)
(2.6178578 -0.0080218906 0)
(2.619017 -0.0018056117 -2.3605787e-21)
(2.5606795 -0.044364732 1.1595951e-21)
(2.5593002 -0.030863761 -3.987092e-22)
(2.5486883 -0.031927763 -1.1805314e-21)
(2.5436984 -0.04032293 -1.439268e-21)
(2.5456922 -0.052514572 -1.0637466e-21)
(2.5550314 -0.063009626 2.6258031e-21)
(2.5685389 -0.068328801 -2.0912809e-21)
(2.5824614 -0.067756343 9.0001249e-22)
(2.5941141 -0.062687884 9.0081984e-22)
(2.6025619 -0.055296942 3.5507128e-22)
(2.6082359 -0.047367767 -2.3522128e-21)
(2.6120702 -0.039715971 -1.1779396e-21)
(2.6148648 -0.032583434 -2.7602675e-23)
(2.6169296 -0.025635703 6.9457545e-22)
(2.6184998 -0.019191728 -5.9703162e-22)
(2.6194633 -0.012658546 0)
(2.6204195 -0.0074619483 -3.7014082e-21)
(2.621155 -0.0016113222 4.2193694e-23)
(2.564741 -0.04623371 -2.7862979e-21)
(2.5630077 -0.027733839 -9.5476091e-23)
(2.5483437 -0.027348895 -1.3343178e-21)
(2.5393511 -0.036558068 2.952585e-22)
(2.5385777 -0.051768228 9.2946215e-22)
(2.5474224 -0.066172031 4.9395395e-22)
(2.5624698 -0.074833296 1.1480192e-21)
(2.5790377 -0.076126093 6.704136e-22)
(2.5933066 -0.071366198 2.0097551e-21)
(2.6035861 -0.063283177 1.1021778e-21)
(2.6101431 -0.054372058 -2.1180458e-21)
(2.6142255 -0.046021073 -8.3628923e-22)
(2.6170054 -0.038448307 -3.6206544e-22)
(2.6191428 -0.031470634 -1.5681726e-21)
(2.6207087 -0.024619967 5.1123484e-22)
(2.6217977 -0.018228804 8.9757782e-22)
(2.622248 -0.011824887 -2.3042816e-22)
(2.6227256 -0.0068378477 -2.9174135e-21)
(2.6230266 -0.0014018634 3.085152e-21)
(2.5696013 -0.048508237 -1.0985884e-21)
(2.5680079 -0.024059388 3.80474e-22)
(2.548791 -0.021477625 3.5122079e-23)
(2.53497 -0.031108169 1.7526666e-21)
(2.5304911 -0.049529704 -6.5440527e-23)
(2.5382198 -0.068530136 -3.5901707e-21)
(2.5547306 -0.081414107 8.5621548e-22)
(2.5743892 -0.085290807 -8.8069964e-23)
(2.5919889 -0.081135783 0)
(2.6047439 -0.072197796 -4.5816578e-22)
(2.612525 -0.061909413 4.0908696e-21)
(2.616852 -0.052413905 2.3590531e-21)
(2.6194816 -0.044288478 9.5895456e-23)
(2.6214698 -0.037082309 -8.9254388e-22)
(2.6231379 -0.030314067 2.0956242e-21)
(2.6242798 -0.023531401 -4.8552063e-22)
(2.6248875 -0.017165186 2.0644468e-21)
(2.6247973 -0.010896614 -2.4283237e-21)
(2.6247713 -0.0061464112 1.3864851e-21)
(2.624621 -0.0011774939 1.8505538e-21)
(2.5752594 -0.051279512 2.5562528e-21)
(2.574418 -0.019910998 -4.4395659e-22)
(2.5501884 -0.014310194 1.1246511e-21)
(2.5306911 -0.023825844 1.4215955e-21)
(2.5214481 -0.045566852 -5.179799e-21)
(2.5272671 -0.069853966 3.8967103e-21)
(2.545034 -0.08797036 2.6947319e-21)
(2.5681976 -0.095351151 9.7276875e-22)
(2.5899587 -0.092271098 -8.7541059e-23)
(2.6060388 -0.082380584 -3.910594e-22)
(2.6155592 -0.070209208 -1.1828254e-21)
(2.6202073 -0.059016011 -2.6722611e-21)
(2.6224438 -0.049929879 7.5565277e-22)
(2.6240299 -0.042508981 -5.6433433e-22)
(2.6255643 -0.035770013 -7.7582184e-22)
(2.6269298 -0.029149404 9.9089561e-22)
(2.6276808 -0.022359068 -2.2105954e-21)
(2.6277779 -0.01598343 -5.1174617e-22)
(2.6271066 -0.0098634918 -3.0138286e-22)
(2.6265499 -0.0053847688 3.7906972e-21)
(2.6259311 -0.00093820535 2.3399438e-21)
(2.5816887 -0.054617357 -7.2768649e-21)
(2.5823348 -0.015400396 -1.8470207e-21)
(2.5526872 -0.0058205688 1.1914372e-21)
(2.5266613 -0.014615733 3.6667469e-21)
(2.5114946 -0.039645684 5.314183e-22)
(2.5144482 -0.069903703 -9.9772906e-22)
(2.5330856 -0.094358801 2.9564299e-21)
(2.5601027 -0.10636962 -1.0900556e-21)
(2.5869471 -0.10505794 -1.6013515e-21)
(2.6074285 -0.094230485 3.3704975e-21)
(2.6194462 -0.079612989 2.0947798e-21)
(2.6246074 -0.065952575 -6.11295e-22)
(2.6261929 -0.05534765 3.3209848e-21)
(2.6269316 -0.047464411 -2.1393441e-21)
(2.6280357 -0.040947366 -1.5105377e-21)
(2.629436 -0.034584049 1.2965378e-21)
(2.6305992 -0.027963656 -1.2053737e-21)
(2.6309393 -0.021071651 1.3679652e-21)
(2.6304689 -0.01466157 -2.9752968e-21)
(2.6291682 -0.0087168047 1.3893141e-21)
(2.6280536 -0.0045492087 3.9391747e-21)
(2.6269795 -0.00068524957 -2.8526122e-21)
(2.5888723 -0.058580041 -1.2535736e-21)
(2.5917906 -0.010655013 6.4694308e-22)
(2.5564248 0.0039426729 3.1435391e-22)
(2.5230396 -0.0033591546 8.5947693e-24)
(2.5007069 -0.031567695 4.8104477e-21)
(2.4996792 -0.068422285 -6.7716897e-21)
(2.5186162 -0.10039247 -2.8618971e-21)
(2.5497116 -0.1183595 3.8395271e-21)
(2.5826142 -0.11977595 4.7618476e-21)
(2.6088082 -0.10820345 2.4319908e-23)
(2.6243815 -0.090556018 -2.2909177e-22)
(2.6304477 -0.073455299 3.9600404e-21)
(2.6311197 -0.060489536 -3.4024039e-22)
(2.6304452 -0.051759774 1.9761615e-21)
(2.6305669 -0.045467969 -2.5792734e-21)
(2.6317505 -0.039745303 1.5567267e-21)
(2.6332387 -0.033514736 1.6571432e-21)
(2.6342104 -0.026705717 -1.181365e-21)
(2.6340666 -0.019627004 1.3219049e-21)
(2.6329514 -0.013178359 -1.8988515e-21)
(2.6309723 -0.0074511738 4.7477179e-21)
(2.6292755 -0.0036397449 -4.2713728e-21)
(2.6277835 -0.00042015258 -2.4457056e-21)
(2.5968534 -0.06322915 1.7434269e-20)
(2.6029075 -0.0058371902 1.4636982e-21)
(2.5614847 0.01491674 7.8197953e-22)
(2.5199617 0.0099425088 1.9538106e-21)
(2.4891961 -0.021138138 1.5730776e-21)
(2.4829246 -0.065155801 6.0547829e-21)
(2.5013905 -0.10584585 -7.9297427e-21)
(2.5366203 -0.13127449 4.629061e-21)
(2.5765492 -0.13667136 -8.721844e-22)
(2.6099893 -0.12479993 -1.714482e-22)
(2.6305364 -0.10357862 -1.1227135e-20)
(2.6381788 -0.08185694 -9.0167075e-23)
(2.6377428 -0.065373225 -4.9412914e-21)
(2.6349417 -0.055134251 6.3783677e-21)
(2.6333271 -0.048998929 -1.5379321e-22)
(2.6337591 -0.044203468 -1.1090269e-23)
(2.6354468 -0.038908304 1.2362485e-21)
(2.6371013 -0.032484161 -3.3587341e-22)
(2.6377993 -0.025301451 1.130622e-21)
(2.6370565 -0.017981325 0)
(2.6352092 -0.01151762 9.1898931e-23)
(2.6325078 -0.0060654957 -2.6994876e-22)
(2.6302147 -0.0026694255 9.5218958e-21)
(2.6282481 -9.0287874e-05 3.0250485e-21)
(2.6052923 -0.068301653 3.7596911e-22)
(2.6160968 -0.0010661882 -1.033873e-20)
(2.5681906 0.027090341 2.4183901e-21)
(2.5175522 0.025276764 -2.2696285e-21)
(2.477068 -0.0082401253 7.3987803e-21)
(2.464204 -0.05986613 1.0480256e-20)
(2.4812304 -0.11045954 -8.7555279e-21)
(2.5204287 -0.14499868 1.0780838e-21)
(2.5682804 -0.15594298 -6.2302547e-22)
(2.6106898 -0.14453638 3.1499845e-21)
(2.6380277 -0.11932241 1.2605894e-20)
(2.6482995 -0.091614002 -2.3643542e-21)
(2.6466905 -0.070083216 4.0426638e-21)
(2.640938 -0.057339884 6.67073e-22)
(2.6365697 -0.051093473 1.1865695e-21)
(2.6354785 -0.047531482 -1.7913443e-21)
(2.6369655 -0.043713198 -1.6391017e-21)
(2.6393607 -0.03832412 1.2099621e-21)
(2.6411056 -0.03136987 -1.4140415e-21)
(2.6413697 -0.023669329 -1.3732616e-21)
(2.6398865 -0.016096709 -4.8783879e-22)
(2.6372212 -0.0096711511 2.9645174e-21)
(2.6337619 -0.0045635737 -5.5799675e-21)
(2.6308801 -0.0016558862 7.6885322e-21)
(2.6284152 0.00026753204 6.0807555e-23)
(2.6083698 -0.073958432 -6.1078622e-21)
(2.628944 0.0032889971 1.9725046e-20)
(2.577519 0.040325808 -7.2645789e-21)
(2.5162186 0.042680356 -2.4516975e-21)
(2.4644462 0.0072014051 -1.2552734e-20)
(2.4435608 -0.052343385 -1.3004755e-21)
(2.4580213 -0.11396405 -3.1665941e-22)
(2.5007735 -0.15934074 -4.0760283e-21)
(2.5572857 -0.17770648 0)
(2.6105172 -0.16793014 -2.068043e-21)
(2.6468987 -0.13852027 1.2621528e-21)
(2.6613299 -0.10331502 -3.0603867e-22)
(2.6587155 -0.074791605 1.9005373e-21)
(2.6490874 -0.058128183 -8.1196491e-21)
(2.64068 -0.051257824 9.2069388e-22)
(2.6369741 -0.049161517 -1.7920272e-21)
(2.637637 -0.047472599 -7.5314745e-22)
(2.6405928 -0.043842381 1.7163613e-21)
(2.6436538 -0.037799923 -1.5658865e-21)
(2.6452787 -0.030030792 4.7563537e-22)
(2.6448948 -0.021733817 1.8617256e-21)
(2.6425219 -0.013946562 -6.5866094e-22)
(2.6389642 -0.0076395751 -1.6559185e-21)
(2.634723 -0.0029554468 -6.1205218e-21)
(2.631277 -0.00059412723 -1.0509879e-20)
(2.6283947 0.00057361192 -4.4882154e-21)
(2.6081888 -0.078972625 1.0965009e-21)
(2.6333993 0.0067110251 3.8949897e-20)
(2.587883 0.054177317 5.1141495e-22)
(2.5168486 0.061946749 1.9275137e-21)
(2.4516128 0.025271424 9.4877027e-21)
(2.4210662 -0.042423062 -1.1577892e-20)
(2.4316948 -0.116071 1.6464997e-20)
(2.4773181 -0.1740435 -1.7480407e-21)
(2.5430104 -0.20198919 0)
(2.6089749 -0.19544577 0)
(2.6570718 -0.16197871 -2.3932864e-20)
(2.6777892 -0.11770286 4.6647593e-21)
(2.6746745 -0.079781028 -7.4003971e-21)
(2.6602047 -0.057265636 -4.7398877e-21)
(2.6461694 -0.048927845 2.9159068e-21)
(2.638407 -0.048432505 -9.9175451e-22)
(2.6373087 -0.049581248 4.3902754e-21)
(2.6404709 -0.04861564 -3.0019651e-22)
(2.6449315 -0.044297837 -3.2763307e-22)
(2.6483972 -0.037104717 -3.3183482e-22)
(2.649594 -0.02833018 1.6351109e-21)
(2.648323 -0.019435175 -4.9607617e-22)
(2.6449205 -0.011518763 1.3413084e-21)
(2.6404138 -0.0054318469 -1.242414e-22)
(2.6353832 -0.0012583993 6.6590289e-22)
(2.6313956 0.00052239022 -1.1336733e-20)
(2.628116 0.00090782616 2.3983848e-22)
(2.6024653 -0.079942612 -1.7920765e-21)
(2.6171078 0.013038879 -6.0832026e-20)
(2.5844214 0.070337724 1.6924733e-20)
(2.5143895 0.083297547 -3.2235638e-21)
(2.4391685 0.045989586 5.6341172e-21)
(2.3968751 -0.029999243 4.1944175e-21)
(2.4023143 -0.11652625 -1.3934789e-20)
(2.449834 -0.18876367 2.11079e-21)
(2.5248679 -0.22869129 -3.228321e-21)
(2.6054294 -0.22750207 0)
(2.6683435 -0.19054034 0)
(2.6981447 -0.13565609 -1.1057854e-21)
(2.6955072 -0.085475398 -5.1327994e-21)
(2.6752391 -0.054568731 1.2676802e-20)
(2.6536869 -0.043491903 -6.8879846e-21)
(2.6400241 -0.044572684 3.3244267e-21)
(2.6358813 -0.049318155 -2.2764216e-21)
(2.6386328 -0.052081464 3.6326398e-21)
(2.6444695 -0.050525711 1.447206e-21)
(2.6501282 -0.044716792 -1.1967274e-21)
(2.6535735 -0.036007346 -2.8670715e-21)
(2.6539805 -0.026152862 4.5809017e-21)
(2.6515862 -0.016735549 -5.0497117e-21)
(2.647038 -0.0088163574 1.0324698e-20)
(2.6415485 -0.003064518 -1.6294201e-22)
(2.635745 0.00050824255 7.8403416e-21)
(2.6312358 0.0016691704 3.7983566e-22)
(2.6275698 0.0012471721 -6.0051728e-21)
(2.5863834 -0.076347196 5.6941627e-23)
(2.5708295 0.027203638 -2.0039874e-20)
(2.5291844 0.091147617 9.8914144e-22)
(2.486326 0.10800554 -7.4687402e-23)
(2.423215 0.069632919 -1.6711274e-20)
(2.3713265 -0.01501716 -5.3810638e-21)
(2.3701431 -0.11518481 -3.4373558e-21)
(2.418424 -0.20323743 -1.1241311e-20)
(2.5025497 -0.25763036 1.9180331e-21)
(2.5992588 -0.26438594 1.0402631e-20)
(2.680332 -0.22508408 1.8717605e-20)
(2.7227968 -0.15820358 -2.744305e-20)
(2.7222367 -0.092415676 -2.0135291e-20)
(2.6952778 -0.049875307 1.3558774e-20)
(2.6639923 -0.034305708 -6.0937236e-21)
(2.6421452 -0.036727161 -3.1195483e-21)
(2.633289 -0.045848291 -1.1164964e-21)
(2.6347322 -0.053561364 -3.1368483e-22)
(2.64173 -0.056027652 8.0261891e-22)
(2.6498983 -0.052651107 1.0073339e-21)
(2.6561883 -0.044728355 2.2219284e-21)
(2.6590902 -0.034305418 -2.350124e-21)
(2.6583354 -0.023416219 -2.182661e-22)
(2.6546082 -0.013621743 -6.9884851e-22)
(2.6488311 -0.0058561946 4.216295e-21)
(2.6423541 -0.00056114081 -7.1754418e-22)
(2.6358183 0.0023277827 -2.7702799e-21)
(2.6308163 0.0028181812 8.021228e-21)
(2.6267982 0.0015635892 6.9324977e-21)
(2.5635854 -0.069634846 6.4293253e-21)
(2.5191701 0.047394073 5.7207187e-20)
(2.4468356 0.11702481 -6.618553e-21)
(2.4115029 0.13361766 4.6501627e-21)
(2.38683 0.094721234 1.7412001e-21)
(2.3436772 0.0025795977 -2.9055876e-21)
(2.3354853 -0.11197148 1.6759038e-20)
(2.3833792 -0.21720989 -5.3556146e-21)
(2.4760292 -0.28869728 -9.1851238e-22)
(2.5901898 -0.3064389 7.8033111e-22)
(2.692816 -0.26647064 -2.0728651e-20)
(2.7521417 -0.18651546 8.1779488e-21)
(2.7559658 -0.10131321 3.4858893e-20)
(2.7215979 -0.043023641 -8.1675509e-21)
(2.677996 -0.020575233 5.210241e-21)
(2.6451616 -0.023919588 -1.1670989e-21)
(2.629479 -0.03823831 -2.4318072e-22)
(2.6284138 -0.052280873 -1.0646155e-21)
(2.6361637 -0.060243043 -1.7271829e-21)
(2.6470403 -0.060601447 -2.5972423e-22)
(2.6568042 -0.054420734 -1.1655237e-22)
(2.6629967 -0.043999721 -5.1078965e-21)
(2.664799 -0.031843998 5.5816353e-21)
(2.6625373 -0.020075682 -3.8551162e-21)
(2.6573125 -0.010104702 9.7682248e-22)
(2.6502614 -0.0026674285 -8.7418751e-21)
(2.6428221 0.0020473696 -1.3126997e-20)
(2.635606 0.0041806548 -1.6454528e-20)
(2.6301529 0.003958992 2.271544e-22)
(2.6258462 0.001879798 1.4600465e-20)
(2.534277 -0.061073659 -6.9387442e-21)
(2.4735114 0.069483777 -1.7116788e-20)
(2.3800348 0.1456678 1.1241882e-22)
(2.3157737 0.15854134 2.0522743e-21)
(2.3146121 0.11742758 -1.9496338e-21)
(2.307611 0.021361223 2.8202883e-21)
(2.298747 -0.10677306 -1.6955494e-20)
(2.3449038 -0.23026231 2.1852368e-20)
(2.4449029 -0.32121816 -9.8939349e-21)
(2.5772115 -0.35358173 -6.8076925e-21)
(2.705045 -0.31556626 -2.7331772e-20)
(2.7865108 -0.22193379 5.0834425e-20)
(2.7980523 -0.11310655 6.9193098e-20)
(2.7556697 -0.03400916 -1.1298077e-20)
(2.6967342 -0.0014548622 1.5527688e-20)
(2.6495393 -0.0049870859 -1.4905067e-21)
(2.6244241 -0.025422508 -2.1116093e-22)
(2.6193051 -0.047375995 -1.098623e-21)
(2.6271899 -0.062538175 2.3550661e-21)
(2.6408578 -0.068170238 -9.5616527e-22)
(2.6546743 -0.064952572 -8.0680543e-23)
(2.6650492 -0.055315039 -8.2721742e-22)
(2.6703478 -0.042265971 -3.3328405e-21)
(2.6705171 -0.028525234 4.3161069e-21)
(2.6664606 -0.016125618 -2.591835e-21)
(2.6596267 -0.0062163324 1.1091977e-20)
(2.651302 0.00070976848 -8.1549366e-21)
(2.6429466 0.004727158 6.4399628e-21)
(2.6351132 0.0060447472 3.5552367e-21)
(2.6292612 0.0050887445 1.0527065e-22)
(2.6247022 0.0021889853 4.4057742e-22)
(2.4970051 -0.050392689 1.2845192e-20)
(2.4282276 0.091241699 -4.087413e-20)
(2.3385269 0.17306053 1.8070196e-20)
(2.2457538 0.18380074 -1.9759604e-20)
(2.2216573 0.13507797 -1.8233896e-20)
(2.2522819 0.037590674 -5.4686422e-22)
(2.2600287 -0.10016302 1.3149019e-21)
(2.3035597 -0.24201204 8.491108e-21)
(2.4087355 -0.35420298 7.6319152e-21)
(2.5581237 -0.40439013 1.5109908e-20)
(2.713567 -0.3715473 -2.1692385e-20)
(2.8232397 -0.26507006 -2.9453696e-21)
(2.8483969 -0.12881091 -8.5819545e-20)
(2.7991665 -0.023014671 -4.29114e-20)
(2.7214004 0.023706682 2.7556096e-21)
(2.655685 0.021139237 -8.0218214e-21)
(2.6180493 -0.0062628656 3.2195712e-21)
(2.6070185 -0.03791166 -8.5576013e-23)
(2.6142055 -0.062213446 -5.6390659e-22)
(2.6306152 -0.074905966 1.9885833e-21)
(2.6490105 -0.076111909 9.4395633e-22)
(2.66447 -0.068304234 -1.4829632e-21)
(2.6743565 -0.054910298 -1.0273506e-21)
(2.6779774 -0.039345518 -1.2054539e-21)
(2.6760478 -0.024310986 5.0585408e-22)
(2.6699841 -0.011595766 2.0158858e-21)
(2.6614914 -0.0020060719 7.0066059e-21)
(2.6519377 0.0042293249 -3.9857261e-21)
(2.6427318 0.0074461732 6.4202386e-21)
(2.6343546 0.0079005435 1.9051947e-20)
(2.6281609 0.0061984785 4.84785e-23)
(2.6233925 0.002487287 1.8904036e-22)
(2.4536211 -0.037451922 -1.4248712e-20)
(2.3779657 0.112236 1.4714785e-20)
(2.3080352 0.19752365 2.6373713e-20)
(2.2129913 0.208022 -4.6000272e-20)
(2.1465183 0.15017574 5.1274176e-21)
(2.177502 0.047047734 -5.8003489e-22)
(2.216653 -0.093591038 3.8680665e-21)
(2.2604984 -0.25249905 -1.2589327e-20)
(2.3685083 -0.38683393 4.9562401e-21)
(2.5319635 -0.45803023 2.3514163e-20)
(2.7147886 -0.43331964 1.0317483e-19)
(2.8572832 -0.31430937 -1.1388199e-19)
(2.9016914 -0.14762239 -6.7376917e-20)
(2.8498327 -0.0095593045 1.2330412e-20)
(2.7531401 0.055680424 -1.2778696e-20)
(2.6642278 0.055707056 -6.8779986e-21)
(2.6101712 0.020401873 -6.2674017e-22)
(2.5910753 -0.022935155 1.0211213e-22)
(2.5965843 -0.058554622 2.855439e-21)
(2.615563 -0.080308392 -3.6523636e-21)
(2.638982 -0.087644775 -1.4086988e-21)
(2.6604291 -0.082949751 -8.2894004e-22)
(2.6760626 -0.070014611 3.9851062e-22)
(2.6843569 -0.052901261 -8.6641186e-22)
(2.6855922 -0.035144739 1.9500922e-21)
(2.6811986 -0.019219719 -1.5902887e-21)
(2.672999 -0.0065448577 8.6228443e-21)
(2.6628672 0.0024617567 -8.3469184e-21)
(2.6521579 0.0078443526 5.19374e-22)
(2.6421901 0.01017119 -9.7400981e-21)
(2.6333482 0.0097292729 -3.9401383e-21)
(2.6268716 0.0072775598 8.6520647e-21)
(2.6219366 0.0027717448 5.7295845e-21)
(2.4065418 -0.022812057 -2.3707041e-20)
(2.3237401 0.13244831 4.5240509e-21)
(2.2784838 0.21833912 -1.9271838e-20)
(2.2002227 0.23133642 3.7708492e-20)
(2.1082207 0.16603552 7.2080895e-20)
(2.1015891 0.052334855 -9.0487437e-21)
(2.164 -0.09077317 -8.6250907e-21)
(2.2167929 -0.26140292 1.4893337e-21)
(2.3249882 -0.41862662 6.5088884e-21)
(2.4996894 -0.51333577 -9.1158007e-21)
(2.7091397 -0.50186758 2.4001635e-20)
(2.8885363 -0.37266877 8.181075e-20)
(2.9583918 -0.16934702 1.2570502e-19)
(2.9022973 0.0085709287 1.3224749e-21)
(2.7871191 0.096455559 -1.8577085e-20)
(2.6752291 0.1002173 -1.3980676e-21)
(2.6007182 0.055838676 1.3481443e-21)
(2.5709281 -0.001527608 2.7464607e-21)
(2.5736518 -0.050880019 1.2555806e-21)
(2.5949526 -0.083886274 -1.4411434e-21)
(2.6237546 -0.099248598 1.9055744e-21)
(2.6520467 -0.099198233 1.6599603e-21)
(2.67464 -0.087756927 1.0522352e-21)
(2.6889523 -0.069605986 -2.6067055e-22)
(2.6946315 -0.049108009 -2.7520416e-21)
(2.6928975 -0.02965514 2.7676602e-21)
(2.6857927 -0.013318101 -2.506252e-21)
(2.6754204 -0.0010558648 -2.5278016e-21)
(2.663724 0.0071154333 5.5075104e-22)
(2.6519634 0.011503748 -5.0647749e-22)
(2.6413375 0.012871244 -5.2785493e-21)
(2.6321145 0.011514043 6.4674481e-22)
(2.6254135 0.0083181632 -9.8591689e-21)
(2.6203533 0.0030435436 9.4905009e-21)
(2.3581164 -0.0069964986 1.2923206e-20)
(2.2702056 0.15080375 -3.8199874e-21)
(2.2466453 0.23494468 -2.6832168e-20)
(2.1941834 0.25269064 7.1472369e-20)
(2.0964477 0.18636923 -1.310768e-20)
(2.0457285 0.056232189 -8.115172e-22)
(2.102356 -0.091090871 -8.0722984e-21)
(2.1722416 -0.2701921 -1.8095849e-21)
(2.2786982 -0.44820585 -1.3346794e-20)
(2.4605843 -0.56833506 9.3595952e-21)
(2.6921937 -0.57492222 -1.9618698e-20)
(2.918483 -0.44258021 1.3287366e-19)
(3.0284037 -0.20356288 -9.5344543e-20)
(2.9719108 0.028266873 -1.2607597e-19)
(2.8224191 0.14719488 1.5592382e-20)
(2.6833828 0.15664318 -8.9694819e-21)
(2.5890099 0.10151781 -3.7428892e-21)
(2.5459278 0.027213396 -3.2076055e-22)
(2.5447007 -0.038597219 -2.6653355e-21)
(2.5680539 -0.085199321 1.825649e-21)
(2.6025258 -0.11062137 2.8947048e-21)
(2.6384414 -0.11693426 -1.3920312e-21)
(2.6691977 -0.10828539 -4.8878569e-23)
(2.6909847 -0.089829203 3.149148e-21)
(2.7025618 -0.066772826 4.7210752e-21)
(2.7047481 -0.043472625 0)
(2.6996183 -0.022944495 -1.898395e-24)
(2.6896769 -0.0067108803 8.561505e-22)
(2.6771951 0.004768927 4.171061e-21)
(2.6640462 0.011884242 -9.9021017e-22)
(2.6513675 0.015158866 4.1165112e-21)
(2.6401949 0.015517895 4.5506472e-21)
(2.6306755 0.013240192 4.4761254e-21)
(2.6238072 0.0093136282 -8.093638e-21)
(2.6186613 0.0033024984 -1.5167957e-20)
(2.311377 0.0088266862 8.8486164e-21)
(2.2243992 0.16685578 7.4568535e-22)
(2.2165878 0.24701208 2.0468901e-20)
(2.1853778 0.26989428 -6.8189947e-20)
(2.1006769 0.21146748 -3.5675746e-20)
(2.0102379 0.068071346 1.5844621e-22)
(2.042402 -0.097176791 9.5490466e-22)
(2.1246543 -0.27777831 1.8392645e-20)
(2.2307179 -0.47579298 -6.2599101e-21)
(2.4145226 -0.62044332 -8.6403374e-20)
(2.6605657 -0.64729279 -5.1689066e-20)
(2.9226934 -0.51913495 -9.0678054e-20)
(3.101321 -0.25023603 -2.8574353e-19)
(3.0752976 0.038455267 -2.7075678e-20)
(2.8892779 0.20368925 1.401565e-20)
(2.6911697 0.22429355 7.6670538e-21)
(2.5711549 0.15868199 -1.3400868e-20)
(2.515224 0.064196876 -1.0329401e-20)
(2.5089615 -0.021253563 6.5415241e-22)
(2.5341816 -0.083922086 -4.5976591e-21)
(2.5745704 -0.12149034 3.8125715e-21)
(2.6187792 -0.13601128 -4.8040348e-21)
(2.6588297 -0.13166846 -1.3985385e-20)
(2.6895895 -0.11392295 -4.5304448e-21)
(2.7086955 -0.088689635 2.3914982e-21)
(2.7162843 -0.061377147 -6.522969e-22)
(2.7142939 -0.036049581 6.5817693e-21)
(2.7055117 -0.015142331 1.3965649e-21)
(2.6927394 0.00046622644 -3.5474758e-21)
(2.6782816 0.010823114 4.2776104e-21)
(2.6638403 0.016692383 4.8290603e-21)
(2.6503903 0.018764712 -5.9319602e-21)
(2.6387866 0.018086129 1.3664359e-20)
(2.6290545 0.014895463 -5.5562176e-21)
(2.6220736 0.010258694 -1.253061e-21)
(2.6168785 0.0035469087 -3.3963383e-21)
(2.2696749 0.023474279 -3.5316878e-21)
(2.1909856 0.17987882 -5.611138e-21)
(2.1920423 0.25509739 -3.6804317e-21)
(2.1747998 0.28332924 -8.9785429e-21)
(2.1070223 0.23552039 1.9236419e-20)
(1.9965346 0.090283297 4.1725749e-20)
(1.983202 -0.095971515 6.1088532e-20)
(2.0764063 -0.29102152 5.8090538e-21)
(2.1814452 -0.49823508 4.202049e-20)
(2.3622439 -0.66944603 -7.1293147e-20)
(2.6149497 -0.71558559 -8.8979512e-20)
(2.9007308 -0.59329272 -2.3110075e-19)
(3.1198235 -0.30454495 2.8600401e-19)
(3.1732045 0.041524288 3.1537505e-19)
(3.0000622 0.26285704 6.6461016e-21)
(2.7314681 0.30316497 -1.5109923e-20)
(2.5474504 0.22586692 -7.4863446e-21)
(2.4766776 0.10996042 -4.8355265e-21)
(2.4656134 0.0014183649 -1.2483815e-20)
(2.4926992 -0.079902481 -1.4576962e-20)
(2.5392861 -0.13166903 0)
(2.5923374 -0.15625882 -9.6733789e-21)
(2.6426664 -0.15790237 -6.3281971e-21)
(2.6838565 -0.14214897 -2.2545861e-21)
(2.712237 -0.11541595 -1.2971227e-20)
(2.7269539 -0.084080518 -1.0685788e-21)
(2.7295243 -0.05343736 -4.1302794e-22)
(2.7228978 -0.026990006 -4.7692868e-21)
(2.7103801 -0.0064250474 -4.8795724e-22)
(2.6949143 0.0080564617 1.1434662e-20)
(2.6786633 0.017000761 -9.5801983e-21)
(2.6631244 0.021470495 -5.0750753e-21)
(2.6490591 0.022280971 1.2855567e-21)
(2.6371397 0.020554743 -1.8419192e-22)
(2.6272752 0.016469999 3.7171427e-22)
(2.6202327 0.01114956 3.9130135e-22)
(2.6150219 0.0037761102 -8.1610163e-22)
(2.2349909 0.036166631 -2.1727502e-21)
(2.1690142 0.18952289 5.5489573e-22)
(2.1748351 0.25982803 -1.0389989e-20)
(2.1652014 0.29399133 3.0246022e-20)
(2.1106252 0.25816042 2.4828942e-20)
(1.9950382 0.1163375 4.7548106e-20)
(1.9354458 -0.085126067 9.8718017e-20)
(2.0178259 -0.29562204 -4.547493e-20)
(2.134821 -0.52349347 3.8858941e-20)
(2.3048584 -0.71126765 8.4800308e-21)
(2.5569745 -0.77950334 -1.0893462e-19)
(2.8568664 -0.66661118 -2.3883324e-19)
(3.1054557 -0.3576662 3.0061142e-19)
(3.1866906 0.033845657 4.0534642e-19)
(3.1061418 0.32415213 -1.3079266e-19)
(2.8152545 0.39824922 3.7797394e-21)
(2.54156 0.30649442 -3.1805436e-21)
(2.4276338 0.16303561 1.1142666e-20)
(2.4137436 0.029428002 1.9321924e-21)
(2.443037 -0.073223025 1.0151235e-21)
(2.4962301 -0.14110135 -4.0203728e-22)
(2.5585671 -0.17752109 -3.8213774e-21)
(2.619949 -0.18689104 -1.1095981e-20)
(2.672874 -0.17466202 7.795603e-21)
(2.7123039 -0.14742556 1.2273144e-20)
(2.7360806 -0.11233997 7.8744282e-21)
(2.7449373 -0.075950435 -4.8546997e-21)
(2.7417333 -0.043112869 1.2091421e-20)
(2.730244 -0.016520199 7.7643688e-21)
(2.7140911 0.0029935088 -4.850087e-21)
(2.6961584 0.015904513 -3.1814056e-21)
(2.6783566 0.023194511 1.2212025e-20)
(2.6619281 0.026155464 -6.2068153e-21)
(2.647406 0.025673072 4.5467599e-21)
(2.6352825 0.022906542 -1.3120759e-22)
(2.6253608 0.017956321 5.4439913e-21)
(2.6183038 0.011983694 1.1487171e-20)
(2.6131075 0.0039896738 -1.1996875e-20)
(2.2083274 0.046626169 2.7566831e-21)
(2.156738 0.195818 -5.9762851e-21)
(2.1648691 0.26184599 3.9018743e-22)
(2.1583531 0.3024268 -1.4956885e-20)
(2.1112991 0.27836349 -9.5369344e-20)
(1.9985343 0.1467368 -4.7029728e-20)
(1.902797 -0.06939965 -5.8792338e-20)
(1.9530471 -0.29489668 -8.6850818e-21)
(2.0797139 -0.53418163 -5.2018767e-20)
(2.2476415 -0.75291565 1.0107391e-19)
(2.4895894 -0.83508627 -1.2718252e-19)