/*--------------------------------*- C++ -*----------------------------------*\
| =========                 |                                                 |
| \\      /  F ield         | OpenFOAM: The Open Source CFD Toolbox           |
|  \\    /   O peration     | Version:  v2012                                 |
|   \\  /    A nd           | Website:  www.openfoam.com                      |
|    \\/     M anipulation  |                                                 |
\*---------------------------------------------------------------------------*/
FoamFile
{
    version     2.0;
    format      ascii;
    class       surfaceVectorField;
    location    "17.34855226677666";
    object      Uf;
}
// * * * * * * * * * * * * * * * * * * * * * * * * * * * * * * * * * * * * * //

dimensions      [0 1 -1 0 0 0 0];


internalField   nonuniform List<vector> 
18180
(
(2.559651 -0.0043749974 -5.142157e-23)
(2.5631394 -0.0020443259 -1.6749246e-22)
(2.5591962 -0.0085069786 4.2398092e-23)
(2.5627764 -0.0069222688 6.8769319e-23)
(2.5653193 -0.0047849547 -4.006744e-23)
(2.5668858 -0.0021677722 1.0440547e-24)
(2.558533 -0.012380057 4.6834394e-24)
(2.562274 -0.010794939 1.4435573e-23)
(2.5648987 -0.0092941698 3.9036889e-23)
(2.5665511 -0.0074360989 7.42578e-24)
(2.5684488 -0.005048529 3.8587013e-23)
(2.5707073 -0.0022718122 1.3720424e-22)
(2.5576699 -0.016049598 -7.015277e-24)
(2.5615087 -0.014977335 6.9328814e-23)
(2.5642761 -0.013543691 1.0122961e-22)
(2.5660761 -0.011582576 -2.7762618e-23)
(2.5680556 -0.0098061528 -6.7033754e-23)
(2.5704018 -0.0078877553 1.1362336e-23)
(2.5725092 -0.0053679863 1.0071476e-22)
(2.5746361 -0.0023817758 1.1839323e-22)
(2.5566868 -0.019479924 5.0461525e-24)
(2.5605882 -0.018551961 5.0535996e-24)
(2.5634376 -0.017556163 9.7961357e-23)
(2.5653458 -0.01609564 3.2387406e-23)
(2.5674649 -0.014315551 -9.1344319e-23)
(2.5699776 -0.012289739 -1.0223897e-22)
(2.572166 -0.010449586 -2.7806951e-23)
(2.5743787 -0.0083914958 -5.5384199e-24)
(2.5764706 -0.0056899237 9.5130799e-24)
(2.5786626 -0.0024859463 9.9911212e-23)
(2.5556225 -0.022690072 1.7705769e-23)
(2.5595387 -0.022121964 3.0351404e-23)
(2.5624364 -0.021303361 3.0773476e-23)
(2.5644175 -0.019959903 9.5146971e-23)
(2.5666377 -0.018588574 1.1425985e-23)
(2.5692977 -0.017117265 -1.3059123e-22)
(2.57164 -0.015288768 -1.3828861e-22)
(2.5740265 -0.013087457 5.9857627e-23)
(2.576199 -0.01110756 8.2470184e-23)
(2.5784784 -0.0088872475 -7.6850291e-23)
(2.5806014 -0.0059955265 7.9319891e-24)
(2.5827648 -0.0025758781 -2.4818154e-22)
(2.5545404 -0.025650969 -2.2532384e-23)
(2.5584002 -0.0252696 -1.3595414e-23)
(2.5612979 -0.024764709 1.158227e-23)
(2.5633188 -0.023814817 3.3162217e-23)
(2.5656049 -0.022606234 8.5740585e-23)
(2.568389 -0.021289947 1.6246682e-22)
(2.5708656 -0.019913549 3.0003798e-23)
(2.5734346 -0.018280347 -7.3323975e-23)
(2.57577 -0.016294082 1.1417349e-22)
(2.5782226 -0.01388004 1.5237153e-22)
(2.5804284 -0.011738372 2.9349772e-24)
(2.5826803 -0.0093325141 -1.1270667e-22)
(2.5847871 -0.0062514362 -3.5884302e-22)
(2.5869004 -0.002641894 -3.406397e-22)
(2.5535012 -0.028363641 -4.8381261e-23)
(2.5572346 -0.028200701 -3.2657743e-23)
(2.5600611 -0.027890077 -1.1545996e-23)
(2.5620477 -0.027204862 6.0513849e-24)
(2.5643653 -0.026336372 3.7054671e-23)
(2.56726 -0.025479939 1.7581423e-22)
(2.5698474 -0.024310107 2.4500671e-22)
(2.572593 -0.022830819 1.6794339e-22)
(2.5750988 -0.021303231 7.0261678e-23)
(2.5777677 -0.01944622 1.7033008e-22)
(2.5801369 -0.017265434 2.0808155e-22)
(2.5825464 -0.014596533 -1.2451051e-22)
(2.5847379 -0.012269617 -2.3720667e-22)
(2.5869376 -0.0096798012 -1.442059e-22)
(2.5889958 -0.0064321523 -1.2337643e-22)
(2.5910144 -0.0026767377 2.8788639e-22)
(2.552579 -0.03081807 -2.2192454e-23)
(2.5561029 -0.030746484 -4.4964845e-23)
(2.5587819 -0.030627 -2.9966752e-23)
(2.5606481 -0.030317354 1.1793834e-22)
(2.5629244 -0.029722231 1.3682883e-22)
(2.5658715 -0.02921959 8.0730682e-23)
(2.5685541 -0.028452826 2.1455752e-22)
(2.5714949 -0.027452255 9.5078154e-23)
(2.5741642 -0.026135778 1.934898e-23)
(2.5770622 -0.024400255 -4.2820111e-23)
(2.579635 -0.022661239 5.0742203e-23)
(2.5822809 -0.020509378 3.4995119e-22)
(2.5846228 -0.018091273 3.6214226e-23)
(2.5869494 -0.015158429 -5.6856666e-22)
(2.5890911 -0.012646916 -4.8420503e-22)
(2.591188 -0.0098982213 1.4935571e-22)
(2.5931576 -0.0065236556 5.4468892e-22)
(2.5950484 -0.0026766454 5.9293846e-22)
(2.5518707 -0.033022705 6.6928254e-24)
(2.5550894 -0.032950118 -5.2023375e-24)
(2.557528 -0.032914471 -2.6562244e-23)
(2.559152 -0.032943218 1.0200118e-22)
(2.561302 -0.032691038 2.4479151e-22)
(2.5642323 -0.032689821 1.1125217e-22)
(2.5669519 -0.032285823 6.3216418e-23)
(2.5700606 -0.031679796 1.7388895e-23)
(2.5729085 -0.030785406 -9.9439124e-23)
(2.5760923 -0.029500957 -2.3703238e-23)
(2.5788801 -0.027947088 -8.3186852e-23)
(2.5817891 -0.02585038 -4.5041973e-23)
(2.5843558 -0.023829422 2.3953957e-22)
(2.586921 -0.021353474 2.7634033e-23)
(2.5891855 -0.018686666 -5.4753736e-22)
(2.5913654 -0.015514092 -3.2947753e-22)
(2.5934114 -0.012841494 2.7672858e-22)
(2.595365 -0.0099769446 1.7586602e-22)
(2.5972129 -0.0065246879 2.1567071e-22)
(2.5989488 -0.0026415336 2.5278816e-22)
(2.5514368 -0.034920766 -8.3899811e-24)
(2.5542057 -0.034725668 -7.6162628e-23)
(2.5562912 -0.034690122 -1.1025068e-22)
(2.5576192 -0.035082004 -1.4357273e-23)
(2.5595204 -0.035152305 1.0804802e-22)
(2.5623291 -0.035671898 7.9472843e-23)
(2.565016 -0.035734455 -5.0207207e-23)
(2.5682625 -0.035704287 -3.7025205e-22)
(2.5712601 -0.03521554 -4.19835e-22)
(2.5747442 -0.03430276 -5.5975187e-22)
(2.5777988 -0.033145773 -4.9540996e-22)
(2.5810629 -0.031423146 -2.4701751e-22)
(2.5838799 -0.029527653 -2.1368672e-22)
(2.5867151 -0.027018456 2.173761e-22)
(2.5892084 -0.024684985 1.4110407e-23)
(2.5916095 -0.021900993 -3.5062694e-22)
(2.5937381 -0.019005935 -1.3869711e-22)
(2.595722 -0.015645113 2.4768324e-22)
(2.5976321 -0.012852652 1.4981688e-22)
(2.5994093 -0.0099229015 5.0305522e-22)
(2.6011094 -0.0064433265 5.417372e-22)
(2.6026724 -0.0025741492 -1.0770572e-21)
(2.5513053 -0.036567038 -1.4287257e-23)
(2.5536242 -0.036036167 -1.131975e-22)
(2.5551986 -0.035903806 -1.993641e-22)
(2.5560542 -0.036579226 -6.1570991e-23)
(2.557639 -0.036993773 4.2957703e-23)
(2.560162 -0.038136464 1.511286e-22)
(2.5627146 -0.038699159 1.1959544e-22)
(2.566035 -0.039319732 -1.3191659e-23)
(2.5691494 -0.039371097 -3.1564858e-22)
(2.5729608 -0.039024081 -5.1292908e-22)
(2.5762931 -0.038254603 -6.4675913e-22)
(2.579967 -0.036812314 -7.5375154e-22)
(2.5831207 -0.035240844 -5.2375115e-22)
(2.5863432 -0.032994093 -4.3826112e-23)
(2.5890964 -0.030703673 3.7084317e-22)
(2.591744 -0.027792971 2.487385e-22)
(2.5940866 -0.025159985 -9.4002135e-23)
(2.5962586 -0.022123554 1.7012932e-23)
(2.5982022 -0.019047259 3.8531095e-22)
(2.5999534 -0.015563087 -8.1385894e-23)
(2.6016954 -0.012699788 2.4928847e-22)
(2.6032744 -0.0097534989 9.1870399e-22)
(2.6048088 -0.0062920655 -6.1418321e-22)
(2.6061873 -0.0024787371 -1.0456148e-21)
(2.5515931 -0.038024453 -6.9587061e-23)
(2.553444 -0.037050277 1.316664e-22)
(2.5544771 -0.036523014 5.4954305e-23)
(2.5546331 -0.037487263 7.0036476e-23)
(2.5557177 -0.038147282 2.172807e-22)
(2.5577602 -0.03990671 -2.188165e-22)
(2.5600291 -0.041062782 -1.2513398e-22)
(2.5633241 -0.042490023 4.3849573e-23)
(2.5664891 -0.043170662 -8.4231946e-23)
(2.5706301 -0.043494244 1.0438857e-22)
(2.5742618 -0.043259228 -7.5494718e-23)
(2.5784319 -0.04227606 8.6603377e-22)
(2.581973 -0.041007313 7.9115342e-22)
(2.585665 -0.038897708 3.3273559e-22)
(2.5887895 -0.036824303 8.0503508e-22)
(2.59181 -0.034053356 2.5317722e-22)
(2.5943926 -0.031374396 1.3520289e-22)
(2.5967616 -0.028130534 3.8092328e-22)
(2.5988888 -0.025249709 4.9423609e-22)
(2.6007866 -0.022038345 2.1459879e-22)
(2.6025095 -0.018841329 -2.3169193e-22)
(2.6040079 -0.01529802 -1.5119694e-22)
(2.6055604 -0.012411401 4.7721864e-22)
(2.6069283 -0.0094888835 -6.8698877e-22)
(2.6082856 -0.0060833815 -1.0981572e-21)
(2.6094721 -0.002359754 1.2443283e-21)
(2.5524747 -0.039398105 -4.2346011e-24)
(2.5539046 -0.037464477 -1.967897e-22)
(2.5543182 -0.036475733 6.2799073e-24)
(2.5533634 -0.037516676 1.4020464e-22)
(2.5537893 -0.038457272 1.6378023e-22)
(2.5551306 -0.040990055 5.8960668e-22)
(2.5569369 -0.042681909 1.8663385e-22)
(2.5600825 -0.04505582 -8.7956703e-23)
(2.5631937 -0.046510238 7.2697319e-23)
(2.5676464 -0.047704295 -3.801449e-22)
(2.5715738 -0.048125535 -2.057896e-22)
(2.5763199 -0.047698589 9.5484933e-23)
(2.580328 -0.046866345 9.9473433e-22)
(2.584622 -0.045029184 1.0347955e-21)
(2.5881967 -0.043122248 6.0633544e-22)
(2.5916781 -0.040324916 2.4613485e-22)
(2.5946221 -0.037744126 -2.8392337e-22)
(2.5973068 -0.034532487 -7.2592438e-24)
(2.5996286 -0.031527283 2.2098973e-22)
(2.6016589 -0.028053669 3.8964969e-22)
(2.6035262 -0.024998694 1.2220735e-22)
(2.6051302 -0.021691924 -8.5158127e-24)
(2.6066122 -0.018434726 7.1635674e-23)
(2.6078508 -0.014885539 -5.1114335e-22)
(2.6092012 -0.012015366 -1.6335953e-21)
(2.6103517 -0.0091462591 -1.4593702e-21)
(2.6115246 -0.0058269493 7.6024803e-22)
(2.6125132 -0.002220992 1.1950449e-21)
(2.5540007 -0.040723856 2.116446e-22)
(2.5550454 -0.037579844 9.1695994e-23)
(2.5548013 -0.035719608 -8.9732124e-23)
(2.5525017 -0.036896356 3.2485166e-22)
(2.5519626 -0.037880656 4.7633116e-22)
(2.5524048 -0.040915032 4.030733e-22)
(2.5534981 -0.043396136 8.1681164e-22)
(2.5562384 -0.046913906 8.6141468e-22)
(2.5591677 -0.049252779 6.1164823e-22)
(2.5638846 -0.051539754 -3.7636828e-22)
(2.5680832 -0.052798501 -8.141931e-22)
(2.5734914 -0.053130748 -2.1749113e-22)
(2.5780383 -0.052850982 6.8629471e-23)
(2.5830808 -0.051336281 -9.68711e-23)
(2.5872315 -0.049689527 -7.3876177e-23)
(2.5913248 -0.046938483 4.4312697e-23)
(2.5947167 -0.044366076 -3.0389999e-22)
(2.5977854 -0.040982238 -5.8658018e-22)
(2.6004167 -0.037969775 -3.3530627e-22)
(2.6026774 -0.034457267 3.3019395e-22)
(2.6046785 -0.03122323 4.9225171e-22)
(2.6063503 -0.027630472 2.8757076e-22)
(2.6079375 -0.024478039 1.6606947e-22)
(2.6092495 -0.021141277 4.4746263e-24)
(2.6104833 -0.01787445 -5.4749809e-22)
(2.611463 -0.014356947 -7.1342451e-22)
(2.6126052 -0.011532851 -5.3284016e-22)
(2.613534 -0.008737173 -2.5067617e-23)
(2.6145171 -0.0055287351 3.7573701e-22)
(2.615302 -0.0020651338 -9.7209981e-22)
(2.5561858 -0.042079482 4.6231705e-22)
(2.5569344 -0.037308718 2.9782646e-22)
(2.5559851 -0.034234574 1.8524691e-22)
(2.5520977 -0.035202605 -5.2130729e-23)
(2.550366 -0.036281791 3.6775791e-22)
(2.5496407 -0.040084967 -2.9084631e-22)
(2.5497826 -0.043037211 -3.7329645e-22)
(2.5518468 -0.047798098 5.580726e-22)
(2.5543451 -0.051250249 5.9616405e-22)
(2.5592109 -0.054887641 4.432838e-22)
(2.5636253 -0.057194842 -4.9122875e-22)
(2.5697694 -0.058528033 -4.9054865e-22)
(2.5749313 -0.058985932 8.1874711e-23)
(2.5809032 -0.057945409 -4.7970561e-22)
(2.5857684 -0.056630337 -6.440026e-22)
(2.5906539 -0.053897331 -5.1532445e-22)
(2.5946399 -0.051368054 -4.1028349e-22)
(2.5982267 -0.047818596 3.6145281e-22)
(2.6012369 -0.044670971 1.0562247e-22)
(2.6037544 -0.040892389 2.8147346e-22)
(2.6059845 -0.037580015 9.2397084e-22)
(2.607796 -0.033924387 2.3674297e-22)
(2.6094548 -0.03056758 4.288089e-23)
(2.6107842 -0.026948466 2.8910619e-22)
(2.6120921 -0.023762572 1.4028121e-22)
(2.6131272 -0.020438093 -1.6518331e-22)
(2.6141138 -0.017197385 -3.1658805e-22)
(2.6148375 -0.01373373 8.9358074e-22)
(2.6157676 -0.01097606 1.3993283e-21)
(2.6164699 -0.0082672326 3.6968448e-22)
(2.6172576 -0.005191284 -9.1113533e-22)
(2.6178326 -0.0018936052 -2.1274919e-21)
(2.5590972 -0.04356993 8.9580878e-22)
(2.5597345 -0.03671964 9.9063249e-23)
(2.5580642 -0.032057163 -6.3359584e-23)
(2.5523129 -0.032640864 -4.5480976e-22)
(2.5491565 -0.033517332 -6.7779134e-22)
(2.5468007 -0.03781961 -8.0048254e-22)
(2.5457393 -0.041416921 -1.4460367e-21)
(2.5468541 -0.047646272 -1.2552555e-21)
(2.5486556 -0.052285453 -3.846615e-22)
(2.5535166 -0.057594341 1.5084637e-21)
(2.5580247 -0.061206611 1.3794499e-21)
(2.5649609 -0.063849313 -1.0404695e-21)
(2.5707994 -0.065281914 -1.0488917e-21)
(2.5779049 -0.064907019 4.9008331e-22)
(2.5836546 -0.064062197 -3.4973229e-23)
(2.5895725 -0.061398761 -4.2532624e-23)
(2.5943271 -0.058908969 8.1296535e-23)
(2.5985982 -0.055074621 -2.1036914e-22)
(2.6021199 -0.051763395 5.3138936e-22)
(2.6049768 -0.047674459 -8.4219445e-22)
(2.6074661 -0.044131282 -6.9065476e-22)
(2.6093896 -0.040188856 -6.7995067e-23)
(2.6111898 -0.036728166 -7.2956769e-22)
(2.6125874 -0.033066699 -1.4064263e-22)
(2.6139176 -0.029677615 9.4127172e-23)
(2.6149448 -0.026090748 4.6346321e-22)
(2.6159876 -0.022913614 1.785115e-22)
(2.6167641 -0.019619025 -4.8717856e-22)
(2.6175064 -0.016425398 6.5988511e-22)
(2.617974 -0.013026141 9.8507391e-22)
(2.6186875 -0.010348738 0)
(2.6191558 -0.0077371576 -1.8815115e-21)
(2.6197418 -0.0048143123 -3.053512e-21)
(2.6201007 -0.0017068109 -1.138638e-21)
(2.5627785 -0.045299913 -8.7962974e-22)
(2.5635506 -0.035909563 4.9490959e-22)
(2.5612163 -0.029226209 -2.41999e-22)
(2.5533098 -0.029078045 -8.6175806e-22)
(2.5485103 -0.029536503 -1.2600081e-21)
(2.5441528 -0.034280846 -4.4203541e-22)
(2.5414517 -0.03837458 -5.4286017e-22)
(2.5411825 -0.046140905 -2.3510884e-22)
(2.5420154 -0.052139361 -3.3644321e-23)
(2.5466592 -0.05945753 -2.7182228e-22)
(2.551099 -0.06467466 1.5240422e-21)
(2.5588444 -0.069020903 1.8688067e-21)
(2.5654023 -0.071725559 -4.1716251e-22)
(2.5738677 -0.072293394 -6.8709767e-22)
(2.580692 -0.0721103 7.8135113e-22)
(2.5879424 -0.069592093 1.469584e-21)
(2.5936968 -0.067186286 1.4739462e-21)
(2.5988926 -0.062990897 9.9197961e-22)
(2.6030912 -0.059423859 7.4119964e-22)
(2.6063879 -0.054826904 -9.0250279e-22)
(2.6092216 -0.050974939 -2.2311868e-21)
(2.6112646 -0.046683127 -1.581354e-21)
(2.6131841 -0.042965543 -1.0013609e-21)
(2.6145705 -0.039071437 -7.5853634e-22)
(2.6159712 -0.035596923 -2.0046719e-22)
(2.6170341 -0.032017612 -8.1383354e-22)
(2.6180735 -0.02865485 -4.7490661e-22)
(2.6188459 -0.025119224 6.0134137e-22)
(2.6196415 -0.021969364 -2.4238368e-23)
(2.6201716 -0.018702091 1.6092586e-22)
(2.6206698 -0.015565114 4.6389442e-22)
(2.6208745 -0.012234627 -1.1718325e-22)
(2.6213645 -0.0096482357 -1.9075546e-21)
(2.621588 -0.0071445787 -3.3034391e-21)
(2.6219667 -0.004395731 -1.4873164e-21)
(2.6221017 -0.0015048069 1.5897472e-21)
(2.5672528 -0.047378912 -1.9141007e-21)
(2.5684833 -0.034960673 -1.1766173e-21)
(2.5655918 -0.025805685 1.5049224e-22)
(2.5552507 -0.024554974 -1.227668e-23)
(2.5485749 -0.024285969 -6.2659638e-22)
(2.541799 -0.029259131 2.4983166e-22)
(2.5370869 -0.033727367 1.0484455e-21)
(2.5349616 -0.043151865 1.0555088e-22)
(2.5343986 -0.05062136 4.1529441e-22)
(2.5385156 -0.060289339 -1.3807044e-21)
(2.5426664 -0.067419715 -1.616746e-21)
(2.5511891 -0.073921241 6.7813748e-22)
(2.5584701 -0.078272987 9.9721196e-22)
(2.5685275 -0.080150471 5.2002004e-22)
(2.5766353 -0.080896264 2.7841712e-22)
(2.5855843 -0.078673676 3.361024e-22)
(2.5926256 -0.076433544 9.7106965e-22)
(2.5990717 -0.071789476 7.5483863e-22)
(2.6041845 -0.067889177 2.9574879e-22)
(2.6080902 -0.062584989 2.6219424e-21)
(2.6113742 -0.05825393 1.0909339e-21)
(2.6135307 -0.053376543 1.5862882e-22)
(2.615583 -0.049305114 8.151885e-22)
(2.6168872 -0.045140123 -3.6225082e-22)
(2.6182852 -0.041455519 -1.2537151e-22)
(2.61927 -0.037753716 -6.3183005e-22)
(2.6203455 -0.034354261 -1.2189773e-21)
(2.6211698 -0.030882527 2.9500213e-22)
(2.6219642 -0.027566769 1.3301168e-21)
(2.6225198 -0.024066435 4.3416491e-24)
(2.6230805 -0.020942568 1.8273843e-22)
(2.623364 -0.017687946 1.4889849e-21)
(2.6236122 -0.014610843 9.5563369e-22)
(2.6235397 -0.01135284 -1.3464321e-21)
(2.6237963 -0.0088684311 -2.6646442e-21)
(2.6237619 -0.006486224 -7.2857965e-22)
(2.6239282 -0.003933734 2.2072888e-21)
(2.623832 -0.0012877631 2.4572579e-21)
(2.5725254 -0.049911456 7.9019867e-22)
(2.5746 -0.033970329 -7.6584111e-22)
(2.5713206 -0.021873988 -4.5584533e-23)
(2.5582825 -0.019105397 7.3606378e-22)
(2.5495131 -0.017734613 5.981831e-22)
(2.5398915 -0.02267052 7.3987941e-22)
(2.5327587 -0.02732251 1.5815706e-21)
(2.5282434 -0.038457804 -1.7714747e-21)
(2.5258177 -0.047485784 -2.7085332e-21)
(2.5290105 -0.059861752 1.9488886e-21)
(2.5325594 -0.069240619 2.7906429e-22)
(2.5417632 -0.078413703 -3.9474504e-22)
(2.5497194 -0.084842686 1.8063729e-21)
(2.5615868 -0.088500442 9.1547781e-22)
(2.5711893 -0.09052887 4.6018398e-22)
(2.5822635 -0.088840442 -8.7801027e-23)
(2.5909397 -0.086913708 -4.5242767e-23)
(2.599067 -0.081769297 -1.9885277e-22)
(2.6054131 -0.077460717 -4.2348359e-22)
(2.610184 -0.071187113 -8.4554851e-22)
(2.6140932 -0.066179734 1.3652638e-21)
(2.6163963 -0.060438399 6.6211512e-22)
(2.6185861 -0.055801456 -2.4131625e-22)
(2.619681 -0.051150852 1.5436715e-21)
(2.6210126 -0.047181252 4.368857e-22)
(2.6217897 -0.043383589 -2.3734073e-22)
(2.622793 -0.039877029 -7.229101e-22)
(2.6235491 -0.036414981 -8.3318549e-22)
(2.624392 -0.033119817 6.1152396e-22)
(2.6250623 -0.029721821 1.5338139e-21)
(2.6256494 -0.026439566 2.7755967e-22)
(2.6260046 -0.022935256 -1.362818e-21)
(2.6263312 -0.019823824 -1.450707e-22)
(2.6263525 -0.016564236 7.5428991e-22)
(2.6263378 -0.013549221 -1.4377749e-21)
(2.6259673 -0.010371231 -1.344976e-21)
(2.6259782 -0.0080024567 5.1416695e-22)
(2.625672 -0.0057590732 2.6078884e-21)
(2.6256179 -0.0034280596 2.8532117e-21)
(2.6252889 -0.0010557899 2.0994551e-21)
(2.578582 -0.052985281 -2.5253821e-21)
(2.5819348 -0.033040187 3.1810786e-22)
(2.5785093 -0.017526793 -1.1690441e-21)
(2.5625399 -0.012750794 3.8723082e-22)
(2.5514797 -0.0098762749 1.1591655e-21)
(2.5385819 -0.0144647 2.4168169e-21)
(2.5286085 -0.019031272 2.5818727e-21)
(2.5211193 -0.031867312 9.6907221e-22)
(2.5163042 -0.04250229 -2.2282703e-21)
(2.5180935 -0.057938721 -3.0536652e-21)
(2.5206423 -0.06990162 1.3672717e-21)
(2.5303397 -0.082312418 3.4186429e-21)
(2.5388591 -0.091311315 2.8299781e-21)
(2.5527226 -0.097325504 7.7031671e-22)
(2.5640141 -0.10108813 -9.3314862e-23)
(2.5776888 -0.10028719 -3.3613046e-22)
(2.5884022 -0.098907535 -8.6989851e-22)
(2.5987587 -0.093268109 1.6708842e-21)
(2.606757 -0.088506679 1.5529873e-21)
(2.6127716 -0.080973962 8.7303955e-22)
(2.6175681 -0.075045273 5.111277e-22)
(2.6201071 -0.068045097 -8.9218352e-22)
(2.6224814 -0.062565417 -1.6070853e-21)
(2.6232303 -0.057150721 3.7555398e-22)
(2.6243815 -0.0527001 2.0815189e-21)
(2.6247222 -0.048676114 -7.1659264e-22)
(2.6255296 -0.045049427 -1.3783701e-21)
(2.6260672 -0.041714815 -1.0454995e-21)
(2.6268417 -0.038439792 -1.1555589e-21)
(2.6275316 -0.0351669 2.7809496e-22)
(2.6282251 -0.031947525 1.1488669e-21)
(2.628792 -0.028546423 -1.2604658e-22)
(2.6291892 -0.025260679 -1.6910478e-21)
(2.629333 -0.021704385 -3.9065092e-22)
(2.6294118 -0.018588242 4.5976946e-22)
(2.6291416 -0.015311212 -1.7665922e-21)
(2.6288443 -0.01236403 -1.6833511e-21)
(2.6281511 -0.0092803359 5.5994984e-22)
(2.6279031 -0.0070439575 2.5496206e-21)
(2.6273111 -0.0049598259 3.8662123e-21)
(2.627028 -0.0028774238 3.1664201e-21)
(2.6264703 -0.00080953819 -3.0103245e-22)
(2.5854011 -0.056660141 -4.1641166e-21)
(2.5904639 -0.032269378 -3.2493033e-21)
(2.5872214 -0.012879743 -5.5817493e-22)
(2.5681495 -0.0055707798 -7.6819613e-22)
(2.5546187 -0.00073026327 7.3817148e-22)
(2.538022 -0.0045685542 5.9019174e-22)
(2.5247896 -0.0087574951 1.7762521e-21)
(2.5137024 -0.023232592 4.2481482e-21)
(2.5059196 -0.03545496 2.7427866e-21)
(2.5057439 -0.054274534 -3.1814275e-21)
(2.5068157 -0.069151636 -3.981683e-21)
(2.5167252 -0.085404447 -1.9361833e-21)
(2.5256078 -0.097512863 -5.0475697e-23)
(2.5415918 -0.106562 3.4112552e-21)
(2.5547326 -0.11260994 1.457571e-21)
(2.5715125 -0.11318683 1.8855707e-21)
(2.5847078 -0.11269655 1.6872087e-21)
(2.5979636 -0.10665822 -7.7468215e-22)
(2.6081416 -0.101456 1.6411417e-21)
(2.6159302 -0.092362949 1.5400083e-21)
(2.6219969 -0.085238974 8.9375158e-22)
(2.6249594 -0.076482339 3.0433415e-21)
(2.6276258 -0.069782086 1.751305e-21)
(2.6278871 -0.063174684 -4.7344992e-22)
(2.6287392 -0.057960743 1.4287306e-21)
(2.6283522 -0.053523045 2.6370646e-21)
(2.6287475 -0.049656942 -1.2273343e-23)
(2.6287852 -0.046449035 -2.3630759e-21)
(2.629344 -0.043269725 -2.0629116e-21)
(2.6299275 -0.040336002 4.9374978e-23)
(2.6306322 -0.037250834 1.4310169e-21)
(2.6313682 -0.034040249 1.4799315e-21)
(2.6319634 -0.030825158 2.7412752e-22)
(2.6324313 -0.027323955 -1.1931634e-21)
(2.63263 -0.023988104 5.0341164e-23)
(2.6325245 -0.020336992 1.3445397e-21)
(2.6323283 -0.017203261 -7.5431044e-22)
(2.6317267 -0.013907276 -2.4259354e-21)
(2.6311235 -0.011040067 -3.1012396e-22)
(2.6300821 -0.0080731385 3.0987608e-21)
(2.6295621 -0.0059883434 4.3570445e-21)
(2.6286723 -0.0040866628 -2.3678334e-22)
(2.628166 -0.0022782117 -3.5858225e-21)
(2.6273739 -0.00055044506 -2.6468278e-21)
(2.5929968 -0.060974529 8.4039907e-21)
(2.6001957 -0.031769097 1.2756594e-22)
(2.5975356 -0.0080657801 1.0690289e-21)
(2.5751932 0.0023400965 7.1557445e-22)
(2.5590397 0.009667815 5.560159e-22)
(2.5383436 0.0069933205 1.1301478e-21)
(2.521449 0.0035562228 1.0138571e-21)
(2.5061303 -0.012396291 8.0389943e-22)
(2.4947583 -0.026153953 3.1374098e-21)
(2.4919809 -0.048642523 5.4430582e-21)
(2.4910206 -0.066736379 -1.4307184e-22)
(2.5007587 -0.087448779 -7.3604831e-21)
(2.5097141 -0.10323853 -5.480937e-21)
(2.5278581 -0.1160945 9.3665297e-22)
(2.542946 -0.12507607 4.2475583e-21)
(2.5633347 -0.1276711 1.4436551e-21)
(2.5794798 -0.12854206 1.8501509e-21)
(2.5964229 -0.12233153 2.2763873e-21)
(2.6094186 -0.11678683 -7.6855221e-23)
(2.6196949 -0.10585292 -5.6658858e-21)
(2.6275625 -0.09725039 -5.9130743e-21)
(2.6312742 -0.086133275 -1.3599659e-22)
(2.6344433 -0.077733323 1.8667924e-21)
(2.6341063 -0.069345615 -5.4942964e-22)
(2.6345427 -0.062951005 -2.7182127e-21)
(2.6330598 -0.057766054 3.0766252e-21)
(2.6327691 -0.053461919 4.251396e-21)
(2.6319228 -0.050355535 8.8937331e-22)
(2.6319935 -0.047274915 -1.3256727e-21)
(2.6322 -0.044824747 -1.2731524e-21)
(2.6327886 -0.042044619 7.4639844e-22)
(2.6336328 -0.039319588 1.3950119e-21)
(2.63438 -0.036306796 1.4396016e-21)
(2.6352002 -0.032990642 6.4352653e-22)
(2.6357046 -0.029686949 -7.4436757e-22)
(2.6360303 -0.025991594 -7.9411073e-24)
(2.6359959 -0.022562868 1.2230397e-21)
(2.6355816 -0.018790091 6.4959208e-22)
(2.6350731 -0.015635991 -9.1743685e-22)
(2.6340952 -0.012333754 -8.8456628e-22)
(2.6331621 -0.0095661422 2.341424e-21)
(2.6317496 -0.0067464354 2.1956786e-21)
(2.630946 -0.0048372387 -2.203362e-21)
(2.6297526 -0.0031462223 2.7441913e-21)
(2.6290399 -0.0016343135 3.7391098e-21)
(2.6279999 -0.00025241407 3.3529062e-22)
(2.6012145 -0.065966015 8.618856e-21)
(2.6112807 -0.031630283 3.3178689e-21)
(2.6097235 -0.0032672607 -4.6355839e-21)
(2.5839173 0.010896285 1.9489117e-21)
(2.5649502 0.021268335 1.6276487e-21)
(2.5396365 0.020183673 -7.5916363e-22)
(2.5187165 0.017932546 -2.2879841e-22)
(2.4985245 0.00070032755 4.7359955e-21)
(2.4829285 -0.014444614 4.5837238e-21)
(2.4768689 -0.040825891 6.1014175e-21)
(2.47325 -0.062412245 8.3418195e-21)
(2.482331 -0.088188723 -1.4934401e-21)
(2.4909719 -0.10824569 -8.3565022e-21)
(2.5112044 -0.12575323 -3.3579891e-21)
(2.5282525 -0.13840255 2.7939283e-21)
(2.5527187 -0.14381835 1.9583912e-21)
(2.5722759 -0.14666442 -7.4341871e-22)
(2.593797 -0.14067167 1.1731697e-21)
(2.6103514 -0.13500694 1.545091e-21)
(2.6240339 -0.1220161 6.2820001e-21)
(2.634408 -0.11167227 1.0900913e-21)
(2.6393843 -0.097495617 -6.7199023e-21)
(2.6434094 -0.086814118 -1.2655131e-21)
(2.6424248 -0.075870029 2.0266573e-21)
(2.6423672 -0.067719334 -2.981324e-22)
(2.6393613 -0.061287723 -2.0890037e-21)
(2.6380408 -0.056212758 3.4265665e-21)
(2.6357917 -0.053078908 3.7309235e-21)
(2.635003 -0.050052859 5.3896386e-22)
(2.6344419 -0.04825233 -9.9273741e-22)
(2.6346478 -0.045919421 -9.3121416e-22)
(2.6353996 -0.043953985 -8.3367539e-22)
(2.6362317 -0.041396274 -2.4988967e-22)
(2.6374377 -0.038611187 1.2228794e-21)
(2.6382691 -0.035510668 4.6310432e-22)
(2.6391331 -0.031917504 -8.842263e-22)
(2.6395082 -0.028433265 -1.8460943e-22)
(2.639609 -0.02447144 -1.4002835e-22)
(2.6392858 -0.020921577 -7.0977769e-22)
(2.6384901 -0.017022872 -2.4569108e-22)
(2.6376267 -0.013859135 -2.0773733e-22)
(2.6362283 -0.010578529 1.5529516e-21)
(2.6349439 -0.0079375406 1.4017421e-21)
(2.6331423 -0.0053016135 -2.9707501e-21)
(2.632048 -0.0036005567 1.7169634e-21)
(2.6305525 -0.0021539077 8.5891809e-21)
(2.6296083 -0.00094099498 5.4351215e-21)
(2.6283476 9.1747718e-05 1.5172962e-21)
(2.6068827 -0.071368615 -2.974743e-21)
(2.622265 -0.031911162 1.0241958e-20)
(2.622736 0.0012018735 5.1976387e-21)
(2.5950647 0.019969207 -8.7763272e-21)
(2.5730113 0.033977962 -2.585587e-21)
(2.5422617 0.035015628 -5.7084808e-23)
(2.516863 0.034349048 -2.3637186e-21)
(2.4910107 0.016089276 -7.4970285e-21)
(2.4705453 -0.00021420247 -2.9118541e-21)
(2.4604797 -0.03066048 2.9761488e-21)
(2.4535359 -0.055956813 4.3921308e-21)
(2.4613917 -0.087370214 4.9907082e-21)
(2.4692362 -0.11226958 -4.3944085e-21)
(2.4913597 -0.13531341 -6.3631131e-21)
(2.510271 -0.15243449 -1.5855272e-21)
(2.5392038 -0.16163043 5.298775e-22)
(2.5625984 -0.16721818 -3.010473e-22)
(2.5896617 -0.16203939 -1.3693579e-21)
(2.6106006 -0.15663145 4.532922e-22)
(2.6288345 -0.14147897 2.1899334e-21)
(2.6426123 -0.12919331 6.7433473e-21)
(2.6496047 -0.11118401 6.0960202e-21)
(2.6550338 -0.097550485 -1.3005842e-21)
(2.6534642 -0.083059807 -1.6962777e-22)
(2.6529053 -0.072393723 2.9355631e-21)
(2.6478956 -0.064003191 -2.1479694e-21)
(2.6451498 -0.057656714 -3.8741795e-21)
(2.6408427 -0.054246151 7.9606297e-22)
(2.638694 -0.051133727 1.0491545e-21)
(2.6368129 -0.050110388 -3.4021795e-22)
(2.6362515 -0.048365517 -1.7916972e-21)
(2.636598 -0.047501229 -1.256907e-21)
(2.6373126 -0.045666724 -1.1811933e-21)
(2.6388168 -0.043778806 7.1066167e-23)
(2.6399975 -0.041188292 1.4716986e-21)
(2.6415413 -0.038057553 -2.018511e-22)
(2.6424227 -0.034702742 -1.4925243e-21)
(2.6432214 -0.030688905 -4.5293698e-22)
(2.6433901 -0.026951588 -4.1763845e-22)
(2.6431556 -0.022685006 2.6892939e-22)
(2.6424751 -0.019007026 7.2655082e-22)
(2.6412213 -0.015003182 -5.7472193e-22)
(2.6399609 -0.011854978 1.0918803e-21)
(2.6381037 -0.0086378867 6.1283703e-22)
(2.6364506 -0.0061571652 -3.5518718e-21)
(2.6342477 -0.0037456517 -5.8549128e-21)
(2.6328662 -0.0022854927 5.5174351e-22)
(2.6310785 -0.0011158472 -1.5692394e-21)
(2.6298941 -0.00021074709 -5.4020889e-21)
(2.6284223 0.00042326188 -2.2530996e-21)
(2.6082762 -0.076657434 -2.3848027e-21)
(2.6261347 -0.032953794 1.6793719e-20)
(2.6312464 0.0052115629 2.9660039e-20)
(2.6067019 0.029150865 9.9599691e-21)
(2.5828749 0.047653531 -3.2461029e-21)
(2.5471372 0.051316497 -2.5814062e-21)
(2.5165442 0.052761877 -1.8860454e-22)
(2.4839387 0.033831823 3.61767e-21)
(2.4578141 0.016605291 -1.1626231e-21)
(2.4429098 -0.018025759 -1.2057133e-20)
(2.4319359 -0.047181946 -6.6116848e-21)
(2.4379245 -0.084743477 7.7321631e-21)
(2.4444161 -0.11502961 8.355884e-21)
(2.4680976 -0.14451182 -1.044482e-21)
(2.488652 -0.16694389 -2.8729465e-21)
(2.5223305 -0.18102723 -2.0033514e-21)
(2.5499083 -0.19027315 0)
(2.5835152 -0.18672778 0)
(2.6097202 -0.18214981 -9.9927997e-22)
(2.6338724 -0.16490585 -1.3187459e-20)
(2.6521562 -0.15058316 -1.1758756e-20)
(2.6622122 -0.12793643 2.9926237e-21)
(2.6698363 -0.11060938 2.262926e-21)
(2.6679055 -0.091347953 -3.914136e-21)
(2.6669634 -0.07720417 -2.9063588e-21)
(2.6594427 -0.065878273 -1.4709154e-21)
(2.6548331 -0.057554262 -6.3728991e-21)
(2.647657 -0.053448215 -2.5069199e-21)
(2.6435171 -0.049984889 1.9518892e-21)
(2.6395864 -0.049820027 -3.0828784e-23)
(2.6377147 -0.048767856 -1.378412e-21)
(2.6371845 -0.049374433 1.3523701e-21)
(2.6374673 -0.048575699 1.9052314e-21)
(2.6390949 -0.048053719 -5.2277008e-22)
(2.6405298 -0.046331819 6.7408952e-22)
(2.6428006 -0.044074017 6.7675294e-22)
(2.6443142 -0.041174538 -9.2588109e-22)
(2.6460599 -0.037446431 -9.382272e-22)
(2.6468905 -0.033695105 5.8282948e-23)
(2.6474652 -0.02916596 1.0613322e-21)
(2.6473236 -0.025134822 1.7445967e-21)
(2.6466311 -0.020564788 6.6249387e-22)
(2.6455203 -0.016775807 -5.7462752e-22)
(2.6437366 -0.012711785 3.5858245e-22)
(2.6420427 -0.0096175356 -1.0680047e-22)
(2.6396977 -0.0065166884 -8.7532912e-22)
(2.6376642 -0.0042354973 -3.0214155e-21)
(2.6350569 -0.002092266 -2.6686212e-21)
(2.6333992 -0.00089690604 -4.7340141e-21)
(2.631334 -2.6220491e-05 -1.0931609e-20)
(2.6299456 0.00050904864 -8.0275075e-21)
(2.6282456 0.00074360047 -2.0831871e-21)
(2.605231 -0.079704878 -3.9624925e-22)
(2.6173772 -0.032203748 -3.0396714e-20)
(2.6249802 0.0097664567 -1.2615167e-20)
(2.6072359 0.039047106 2.7755931e-20)
(2.5860941 0.062553553 8.993459e-21)
(2.5508653 0.068979647 -1.3870753e-21)
(2.5155778 0.073156795 -7.3445733e-22)
(2.4780545 0.053836418 3.8117555e-21)
(2.4451818 0.036079009 7.4962437e-21)
(2.4243701 -0.0028261242 6.7966417e-21)
(2.4085646 -0.035951611 -3.4270404e-21)
(2.4119909 -0.080098445 -1.277623e-20)
(2.4165114 -0.11625771 7.5485022e-22)
(2.4412683 -0.15303218 9.1933136e-21)
(2.4631146 -0.18163084 2.4615626e-22)
(2.5016366 -0.2018316 -2.5007738e-21)
(2.5336345 -0.2157871 -1.6683688e-21)
(2.5747691 -0.21496324 0)
(2.6071426 -0.21199929 0)
(2.6388147 -0.1929535 0)
(2.662897 -0.17666788 -1.1564335e-20)
(2.6773996 -0.14859604 -1.2323495e-20)
(2.6883091 -0.12680015 1.6825005e-21)
(2.6864718 -0.10131513 -3.9102713e-22)
(2.6854411 -0.082497723 -6.2284709e-21)
(2.6749031 -0.066958501 2.8109897e-21)
(2.6679748 -0.05569047 4.261435e-21)
(2.656966 -0.050259239 -5.8324404e-21)
(2.6500547 -0.046018384 -2.1510365e-21)
(2.6431421 -0.04671147 3.1236883e-21)
(2.6392428 -0.046408038 1.2390134e-21)
(2.6371903 -0.048882024 -1.6451667e-21)
(2.636571 -0.049459718 9.4461622e-22)
(2.6380147 -0.050852436 4.0049226e-21)
(2.6395209 -0.05043837 1.7325051e-21)
(2.6425127 -0.049587027 5.885794e-22)
(2.6446927 -0.047546129 5.8971111e-22)
(2.6475697 -0.04451101 -7.6967758e-22)
(2.6492919 -0.041055325 -7.7886728e-22)
(2.6510204 -0.036546724 -1.6213256e-21)
(2.6516508 -0.032302284 -6.9191852e-22)
(2.6518156 -0.02722289 3.1334267e-21)
(2.6512472 -0.022894898 2.1280401e-21)