/*--------------------------------*- C++ -*----------------------------------*\
| =========                 |                                                 |
| \\      /  F ield         | OpenFOAM: The Open Source CFD Toolbox           |
|  \\    /   O peration     | Version:  v2012                                 |
|   \\  /    A nd           | Website:  www.openfoam.com                      |
|    \\/     M anipulation  |                                                 |
\*---------------------------------------------------------------------------*/
FoamFile
{
    version     2.0;
    format      ascii;
    class       volVectorField;
    location    "49.8824687878157391";
    object      cellDisplacement;
}
// * * * * * * * * * * * * * * * * * * * * * * * * * * * * * * * * * * * * * //

dimensions      [0 1 0 0 0 0 0];


internalField   nonuniform List<vector> 
9200
(
(-0.019375314 0 0)
(-0.019496532 0 0)
(-0.05630116 0 0)
(-0.019594762 0 0)
(-0.056444044 0 0)
(-0.090457446 0 0)
(-0.01972294 0 0)
(-0.056756403 0 0)
(-0.090797442 0 0)
(-0.12231283 0 0)
(-0.019846111 0 0)
(-0.057088066 0 0)
(-0.091242431 0 0)
(-0.12264243 0 0)
(-0.15174898 0 0)
(-0.019971685 0 0)
(-0.057435649 0 0)
(-0.09176806 0 0)
(-0.12324383 0 0)
(-0.15223246 0 0)
(-0.17920691 0 0)
(-0.020091169 0 0)
(-0.057778853 0 0)
(-0.092326181 0 0)
(-0.12396825 0 0)
(-0.15296209 0 0)
(-0.17967962 0 0)
(-0.20458846 0 0)
(-0.020204409 0 0)
(-0.058110112 0 0)
(-0.092873226 0 0)
(-0.12471667 0 0)
(-0.15384911 0 0)
(-0.18054913 0 0)
(-0.20520618 0 0)
(-0.22827033 0 0)
(-0.02030855 0 0)
(-0.058419899 0 0)
(-0.093397728 0 0)
(-0.12546407 0 0)
(-0.15480139 0 0)
(-0.18161471 0 0)
(-0.20618475 0 0)
(-0.22888584 0 0)
(-0.25016032 0 0)
(-0.020402351 0 0)
(-0.058704093 0 0)
(-0.093887068 0 0)
(-0.12617789 0 0)
(-0.15575264 0 0)
(-0.18277278 0 0)
(-0.20742528 0 0)
(-0.23001079 0 0)
(-0.25092026 0 0)
(-0.27057917 0 0)
(-0.020486098 0 0)
(-0.058960289 0 0)
(-0.094333425 0 0)
(-0.1268435 0 0)
(-0.15666438 0 0)
(-0.18392994 0 0)
(-0.208783 0 0)
(-0.23143183 0 0)
(-0.25216462 0 0)
(-0.27135349 0 0)
(-0.28944183 0 0)
(-0.020558642 0 0)
(-0.059186227 0 0)
(-0.094733487 0 0)
(-0.12744948 0 0)
(-0.15751029 0 0)
(-0.18503935 0 0)
(-0.21015509 0 0)
(-0.23299768 0 0)
(-0.25376477 0 0)
(-0.27276243 0 0)
(-0.29036647 0 0)
(-0.30701641 0 0)
(-0.020621578 0 0)
(-0.059383816 0 0)
(-0.095085156 0 0)
(-0.12798924 0 0)
(-0.15828407 0 0)
(-0.18607895 0 0)
(-0.21148061 0 0)
(-0.23460484 0 0)
(-0.25556264 0 0)
(-0.27456522 0 0)
(-0.2919127 0 0)
(-0.30797714 0 0)
(-0.32323219 0 0)
(-0.020674231 0 0)
(-0.059552115 0 0)
(-0.095389373 0 0)
(-0.1284625 0 0)
(-0.15897104 0 0)
(-0.18702244 0 0)
(-0.21271783 0 0)
(-0.23615151 0 0)
(-0.25740032 0 0)
(-0.27658468 0 0)
(-0.29391379 0 0)
(-0.3097053 0 0)
(-0.3243448 0 0)
(-0.33831359 0 0)
(-0.020718326 0 0)
(-0.059694171 0 0)
(-0.095647876 0 0)
(-0.12886814 0 0)
(-0.15957503 0 0)
(-0.18787034 0 0)
(-0.21384427 0 0)
(-0.23759612 0 0)
(-0.25918999 0 0)
(-0.27867893 0 0)
(-0.2961784 0 0)
(-0.31192755 0 0)
(-0.32622776 0 0)
(-0.33947924 0 0)
(-0.35220553 0 0)
(-0.020753926 0 0)
(-0.059811167 0 0)
(-0.095864649 0 0)
(-0.12921305 0 0)
(-0.16009262 0 0)
(-0.18860849 0 0)
(-0.21485482 0 0)
(-0.23892089 0 0)
(-0.26087099 0 0)
(-0.28073721 0 0)
(-0.29854207 0 0)
(-0.31443718 0 0)
(-0.32866972 0 0)
(-0.34156048 0 0)
(-0.35352299 0 0)
(-0.36509355 0 0)
(-0.020782757 0 0)
(-0.059906135 0 0)
(-0.09604329 0 0)
(-0.12949796 0 0)
(-0.16053183 0 0)
(-0.18925011 0 0)
(-0.2157399 0 0)
(-0.24010233 0 0)
(-0.26240548 0 0)
(-0.28265821 0 0)
(-0.30084932 0 0)
(-0.31705777 0 0)
(-0.33144156 0 0)
(-0.34424323 0 0)
(-0.35577465 0 0)
(-0.36648041 0 0)
(-0.37693926 0 0)
(-0.020805082 0 0)
(-0.05998126 0 0)
(-0.096187919 0 0)
(-0.12973298 0 0)
(-0.16089715 0 0)
(-0.18978865 0 0)
(-0.2165056 0 0)
(-0.2411477 0 0)
(-0.26378131 0 0)
(-0.28442531 0 0)
(-0.30305752 0 0)
(-0.31967675 0 0)
(-0.33435668 0 0)
(-0.34728465 0 0)
(-0.35869872 0 0)
(-0.36894239 0 0)
(-0.37847703 0 0)
(-0.38789763 0 0)
(-0.020822627 0 0)
(-0.060038473 0 0)
(-0.096302189 0 0)
(-0.12991987 0 0)
(-0.16119645 0 0)
(-0.19024354 0 0)
(-0.21715452 0 0)
(-0.24204599 0 0)
(-0.26499731 0 0)
(-0.28601941 0 0)
(-0.30508256 0 0)
(-0.32215299 0 0)
(-0.33724695 0 0)
(-0.35048622 0 0)
(-0.36203 0 0)
(-0.37212739 0 0)
(-0.38112305 0 0)
(-0.38951702 0 0)
(-0.39794276 0 0)
(-0.020835548 0 0)
(-0.06008133 0 0)
(-0.096391151 0 0)
(-0.13006987 0 0)
(-0.16143826 0 0)
(-0.1906116 0 0)
(-0.21769666 0 0)
(-0.24281556 0 0)
(-0.26605152 0 0)
(-0.28742588 0 0)
(-0.30691208 0 0)
(-0.3244588 0 0)
(-0.34004267 0 0)
(-0.35370996 0 0)
(-0.365553 0 0)
(-0.3757551 0 0)
(-0.3845694 0 0)
(-0.39238342 0 0)
(-0.3997109 0 0)
(-0.40720265 0 0)
(-0.020845797 0 0)
(-0.060111095 0 0)
(-0.096456854 0 0)
(-0.13018353 0 0)
(-0.16162887 0 0)
(-0.19091428 0 0)
(-0.21814236 0 0)
(-0.24345366 0 0)
(-0.26695287 0 0)
(-0.28865932 0 0)
(-0.30854308 0 0)
(-0.3265567 0 0)
(-0.34265803 0 0)
(-0.35681999 0 0)
(-0.36908803 0 0)
(-0.37960008 0 0)
(-0.38851286 0 0)
(-0.39610633 0 0)
(-0.40277174 0 0)
(-0.40906274 0 0)
(-0.41566335 0 0)
(-0.020852989 0 0)
(-0.060131456 0 0)
(-0.096504967 0 0)
(-0.13027216 0 0)
(-0.16177885 0 0)
(-0.19114992 0 0)
(-0.21850142 0 0)
(-0.24398295 0 0)
(-0.26770986 0 0)
(-0.28971257 0 0)
(-0.30997082 0 0)
(-0.32843258 0 0)
(-0.34504399 0 0)
(-0.35975077 0 0)
(-0.37254614 0 0)
(-0.38349929 0 0)
(-0.3927083 0 0)
(-0.40036936 0 0)
(-0.40677033 0 0)
(-0.41234876 0 0)
(-0.41766887 0 0)
(-0.42343208 0 0)
(-0.020859272 0 0)
(-0.06014338 0 0)
(-0.096537337 0 0)
(-0.13033533 0 0)
(-0.16189168 0 0)
(-0.19133807 0 0)
(-0.21878723 0 0)
(-0.24440567 0 0)
(-0.26833488 0 0)
(-0.29060913 0 0)
(-0.31120861 0 0)
(-0.3300843 0 0)
(-0.3471863 0 0)
(-0.36245034 0 0)
(-0.37582216 0 0)
(-0.38730068 0 0)
(-0.39695387 0 0)
(-0.40491764 0 0)
(-0.41136857 0 0)
(-0.41663432 0 0)
(-0.4211553 0 0)
(-0.42553558 0 0)
(-0.43050335 0 0)
(-0.020863662 0 0)
(-0.06014999 0 0)
(-0.096558673 0 0)
(-0.13038234 0 0)
(-0.16197747 0 0)
(-0.19147795 0 0)
(-0.21900859 0 0)
(-0.24474492 0 0)
(-0.26884324 0 0)
(-0.29135018 0 0)
(-0.31226016 0 0)
(-0.33152336 0 0)
(-0.34908825 0 0)
(-0.36488879 0 0)
(-0.37885774 0 0)
(-0.39093654 0 0)
(-0.4011407 0 0)
(-0.40955796 0 0)
(-0.41629118 0 0)
(-0.42156848 0 0)
(-0.42572512 0 0)
(-0.42924811 0 0)
(-0.43274699 0 0)
(-0.43696592 0 0)
(-0.02086824 0 0)
(-0.060152299 0 0)
(-0.096570066 0 0)
(-0.13041282 0 0)
(-0.16203816 0 0)
(-0.19158618 0 0)
(-0.21917913 0 0)
(-0.24500456 0 0)
(-0.26924736 0 0)
(-0.29196142 0 0)
(-0.31314686 0 0)
(-0.33275663 0 0)
(-0.35074855 0 0)
(-0.3670609 0 0)
(-0.38161196 0 0)
(-0.39432312 0 0)
(-0.40515386 0 0)
(-0.41412271 0 0)
(-0.42131117 0 0)
(-0.42686715 0 0)
(-0.43100613 0 0)
(-0.43410846 0 0)
(-0.43666144 0 0)
(-0.43931115 0 0)
(-0.44282211 0 0)
(-0.020871715 0 0)
(-0.060152378 0 0)
(-0.096575705 0 0)
(-0.13043443 0 0)
(-0.16208308 0 0)
(-0.19166226 0 0)
(-0.21930515 0 0)
(-0.24520565 0 0)
(-0.26956544 0 0)
(-0.29244956 0 0)
(-0.31387766 0 0)
(-0.33380236 0 0)
(-0.3521867 0 0)
(-0.36896966 0 0)
(-0.38407425 0 0)
(-0.3974156 0 0)
(-0.40891247 0 0)
(-0.41852502 0 0)
(-0.42629113 0 0)
(-0.43230402 0 0)
(-0.43669312 0 0)
(-0.43973292 0 0)
(-0.44180713 0 0)
(-0.4434473 0 0)
(-0.44530079 0 0)
(-0.44814634 0 0)
(-0.020875823 0 0)
(-0.060151318 0 0)
(-0.096576474 0 0)
(-0.13044686 0 0)
(-0.16211275 0 0)
(-0.19171889 0 0)
(-0.21939854 0 0)
(-0.24535198 0 0)
(-0.26980757 0 0)
(-0.29283848 0 0)
(-0.31447689 0 0)
(-0.33467566 0 0)
(-0.3534098 0 0)
(-0.370631 0 0)
(-0.38625473 0 0)
(-0.40019666 0 0)
(-0.41237043 0 0)
(-0.42268205 0 0)
(-0.43110751 0 0)
(-0.43769217 0 0)
(-0.44253388 0 0)
(-0.44580886 0 0)
(-0.44778139 0 0)
(-0.44888079 0 0)
(-0.4496359 0 0)
(-0.4507266 0 0)
(-0.45294614 0 0)
(-0.020879546 0 0)
(-0.060150226 0 0)
(-0.096575603 0 0)
(-0.13045566 0 0)
(-0.16213463 0 0)
(-0.19175634 0 0)
(-0.21946409 0 0)
(-0.24546156 0 0)
(-0.26999154 0 0)
(-0.29313733 0 0)
(-0.31495538 0 0)
(-0.33539637 0 0)
(-0.35444442 0 0)
(-0.37205711 0 0)
(-0.38815773 0 0)
(-0.40266688 0 0)
(-0.41549037 0 0)
(-0.4265172 0 0)
(-0.43566728 0 0)
(-0.44292805 0 0)
(-0.44836092 0 0)
(-0.45207969 0 0)
(-0.45425172 0 0)
(-0.45519855 0 0)
(-0.4553501 0 0)
(-0.45527562 0 0)
(-0.45565162 0 0)
(-0.45728297 0 0)
(-0.020883749 0 0)
(-0.060150105 0 0)
(-0.096573657 0 0)
(-0.13046106 0 0)
(-0.16214905 0 0)
(-0.19178416 0 0)
(-0.2195109 0 0)
(-0.24553672 0 0)
(-0.2701253 0 0)
(-0.29336719 0 0)
(-0.31533669 0 0)
(-0.33598303 0 0)
(-0.35530215 0 0)
(-0.37326998 0 0)
(-0.38980768 0 0)
(-0.40483529 0 0)
(-0.41827128 0 0)
(-0.43000248 0 0)
(-0.4399069 0 0)
(-0.44791338 0 0)
(-0.45403609 0 0)
(-0.45833608 0 0)
(-0.46094032 0 0)
(-0.46206163 0 0)
(-0.46201321 0 0)
(-0.46126901 0 0)
(-0.46039293 0 0)
(-0.46008825 0 0)
(-0.46116895 0 0)
(-0.020887545 0 0)
(-0.060152285 0 0)
(-0.096573793 0 0)
(-0.13046714 0 0)
(-0.16216193 0 0)
(-0.19180279 0 0)
(-0.21954283 0 0)
(-0.24559264 0 0)
(-0.27022455 0 0)
(-0.2935363 0 0)
(-0.31563133 0 0)
(-0.33645413 0 0)
(-0.35601111 0 0)
(-0.37428883 0 0)
(-0.39121639 0 0)
(-0.40672396 0 0)
(-0.42072923 0 0)
(-0.43312433 0 0)
(-0.44378079 0 0)
(-0.4525712 0 0)
(-0.45945336 0 0)
(-0.46445431 0 0)
(-0.46765042 0 0)
(-0.46918473 0 0)
(-0.46926831 0 0)
(-0.46826838 0 0)
(-0.46665656 0 0)
(-0.4650319 0 0)
(-0.46409027 0 0)
(-0.46465524 0 0)
(-0.020804608 0 0)
(-0.060155964 0 0)
(-0.096575638 0 0)
(-0.13047492 0 0)
(-0.16217356 0 0)
(-0.19181884 0 0)
(-0.21956688 0 0)
(-0.24562986 0 0)
(-0.27029414 0 0)
(-0.29366237 0 0)
(-0.3158603 0 0)
(-0.33682876 0 0)
(-0.35658423 0 0)
(-0.37513608 0 0)
(-0.39241397 0 0)
(-0.40834902 0 0)
(-0.42287447 0 0)
(-0.43589089 0 0)
(-0.44725942 0 0)
(-0.45683381 0 0)
(-0.46452953 0 0)
(-0.47031795 0 0)
(-0.47422687 0 0)
(-0.47633657 0 0)
(-0.47681387 0 0)
(-0.47591152 0 0)
(-0.47399014 0 0)
(-0.47156147 0 0)
(-0.46921663 0 0)
(-0.46767212 0 0)
(-0.4677567 0 0)
(-0.020705405 0 0)
(-0.059971431 0 0)
(-0.09658168 0 0)
(-0.13048594 0 0)
(-0.16218743 0 0)
(-0.19183337 0 0)
(-0.21958579 0 0)
(-0.24565961 0 0)
(-0.2703466 0 0)
(-0.29375153 0 0)
(-0.31603184 0 0)
(-0.33712194 0 0)
(-0.35704787 0 0)
(-0.37583359 0 0)
(-0.39341533 0 0)
(-0.40973701 0 0)
(-0.42473655 0 0)
(-0.43831858 0 0)
(-0.45035567 0 0)
(-0.46070071 0 0)
(-0.46922247 0 0)
(-0.47584 0 0)
(-0.48054506 0 0)
(-0.48337222 0 0)
(-0.48442507 0 0)
(-0.48388801 0 0)
(-0.48201598 0 0)
(-0.47921815 0 0)
(-0.47600203 0 0)
(-0.47298748 0 0)
(-0.47087981 0 0)
(-0.47051512 0 0)
(-0.020616363 0 0)
(-0.059669527 0 0)
(-0.096305634 0 0)
(-0.13050158 0 0)
(-0.16220592 0 0)
(-0.19185014 0 0)
(-0.21960436 0 0)
(-0.24568246 0 0)
(-0.27038485 0 0)
(-0.29381809 0 0)
(-0.31616329 0 0)
(-0.3373511 0 0)
(-0.35741405 0 0)
(-0.37640155 0 0)
(-0.39425159 0 0)
(-0.41090989 0 0)
(-0.42633138 0 0)
(-0.44043441 0 0)
(-0.45309048 0 0)
(-0.46415247 0 0)
(-0.47347494 0 0)
(-0.48094468 0 0)
(-0.48651191 0 0)
(-0.49015823 0 0)
(-0.49193062 0 0)
(-0.49194424 0 0)
(-0.49041042 0 0)
(-0.48761985 0 0)
(-0.4839762 0 0)
(-0.480022 0 0)
(-0.47636628 0 0)
(-0.47372874 0 0)
(-0.47294757 0 0)
(-0.020537915 0 0)
(-0.059398751 0 0)
(-0.095824008 0 0)
(-0.13015351 0 0)
(-0.16222751 0 0)
(-0.19187277 0 0)
(-0.21962612 0 0)
(-0.24570668 0 0)
(-0.27041797 0 0)
(-0.29386585 0 0)
(-0.31626072 0 0)
(-0.33752714 0 0)
(-0.35770438 0 0)
(-0.3768615 0 0)
(-0.39493808 0 0)
(-0.41189398 0 0)
(-0.427693 0 0)
(-0.44226019 0 0)
(-0.45547813 0 0)
(-0.46720872 0 0)
(-0.47730149 0 0)
(-0.4856184 0 0)
(-0.49206716 0 0)
(-0.49659028 0 0)
(-0.49918744 0 0)
(-0.49991703 0 0)
(-0.49892331 0 0)
(-0.49643378 0 0)
(-0.49274442 0 0)
(-0.48830093 0 0)
(-0.48363894 0 0)
(-0.47938924 0 0)
(-0.47625746 0 0)
(-0.47508834 0 0)
(-0.020470715 0 0)
(-0.059160037 0 0)
(-0.095390102 0 0)
(-0.12951951 0 0)
(-0.16181274 0 0)
(-0.19189856 0 0)
(-0.21965247 0 0)
(-0.24573409 0 0)
(-0.27044858 0 0)
(-0.29390665 0 0)
(-0.31633783 0 0)
(-0.33766435 0 0)
(-0.35793 0 0)
(-0.37722976 0 0)
(-0.39550315 0 0)
(-0.41271277 0 0)
(-0.42883948 0 0)
(-0.44382567 0 0)
(-0.4575563 0 0)
(-0.46989648 0 0)
(-0.48070553 0 0)
(-0.48984022 0 0)
(-0.49716418 0 0)
(-0.5025896 0 0)
(-0.50608822 0 0)
(-0.50765426 0 0)
(-0.50736815 0 0)
(-0.50538648 0 0)
(-0.50196379 0 0)
(-0.49742615 0 0)
(-0.49221424 0 0)
(-0.48689222 0 0)
(-0.48207656 0 0)
(-0.4784824 0 0)
(-0.47695543 0 0)
(-0.020415015 0 0)
(-0.058955594 0 0)
(-0.095009167 0 0)
(-0.12894857 0 0)
(-0.1610367 0 0)
(-0.19141956 0 0)
(-0.21968631 0 0)
(-0.24576831 0 0)
(-0.27048267 0 0)
(-0.29394243 0 0)
(-0.31639905 0 0)
(-0.33777105 0 0)
(-0.3581068 0 0)
(-0.37752487 0 0)
(-0.39596069 0 0)
(-0.41338951 0 0)
(-0.42980413 0 0)
(-0.44515713 0 0)
(-0.45934272 0 0)
(-0.47223906 0 0)
(-0.48371086 0 0)
(-0.49361212 0 0)
(-0.50179199 0 0)
(-0.50813111 0 0)
(-0.51256193 0 0)
(-0.51503946 0 0)
(-0.51558526 0 0)
(-0.51429688 0 0)
(-0.51136158 0 0)
(-0.50704655 0 0)
(-0.50168435 0 0)
(-0.49575028 0 0)
(-0.48979864 0 0)
(-0.4844607 0 0)
(-0.48043599 0 0)
(-0.47857639 0 0)
(-0.020371269 0 0)
(-0.058785917 0 0)
(-0.094681723 0 0)
(-0.12844735 0 0)
(-0.16034075 0 0)
(-0.19051137 0 0)
(-0.21914784 0 0)
(-0.24581144 0 0)
(-0.27052477 0 0)
(-0.29398032 0 0)
(-0.31645407 0 0)
(-0.33785815 0 0)
(-0.35824565 0 0)
(-0.37776021 0 0)
(-0.39633499 0 0)
(-0.41394685 0 0)
(-0.43060508 0 0)
(-0.44628259 0 0)
(-0.46087683 0 0)
(-0.47427082 0 0)
(-0.48634163 0 0)
(-0.49695269 0 0)
(-0.50595087 0 0)
(-0.51318737 0 0)
(-0.51855077 0 0)
(-0.52198003 0 0)
(-0.52345516 0 0)
(-0.52299836 0 0)
(-0.52073724 0 0)
(-0.51687049 0 0)
(-0.51169031 0 0)
(-0.50555309 0 0)
(-0.49892893 0 0)
(-0.49239374 0 0)
(-0.48656011 0 0)
(-0.48213469 0 0)
(-0.47996976 0 0)
(-0.020339726 0 0)
(-0.058652673 0 0)
(-0.094411214 0 0)
(-0.12801672 0 0)
(-0.15972772 0 0)
(-0.189698 0 0)
(-0.21812297 0 0)
(-0.24522411 0 0)
(-0.27057274 0 0)
(-0.29402675 0 0)
(-0.31650838 0 0)
(-0.33793237 0 0)
(-0.35835679 0 0)
(-0.37795108 0 0)
(-0.39663766 0 0)
(-0.41440394 0 0)
(-0.43127208 0 0)
(-0.447229 0 0)
(-0.46217819 0 0)
(-0.4760173 0 0)
(-0.48863297 0 0)
(-0.499895 0 0)
(-0.50965215 0 0)
(-0.51775221 0 0)
(-0.52404873 0 0)
(-0.5284423 0 0)
(-0.5308885 0 0)
(-0.53136039 0 0)
(-0.52991699 0 0)
(-0.52670113 0 0)
(-0.52194034 0 0)
(-0.51593552 0 0)
(-0.50905041 0 0)
(-0.50178272 0 0)
(-0.49469295 0 0)
(-0.48840317 0 0)
(-0.4836051 0 0)
(-0.48115775 0 0)
(-0.020320677 0 0)
(-0.058556385 0 0)
(-0.094198484 0 0)
(-0.12766127 0 0)
(-0.15920361 0 0)
(-0.1889817 0 0)
(-0.21720207 0 0)
(-0.24409326 0 0)
(-0.26993494 0 0)
(-0.29407897 0 0)
(-0.31656592 0 0)
(-0.33800082 0 0)
(-0.35845142 0 0)
(-0.37810791 0 0)
(-0.39688797 0 0)
(-0.41478073 0 0)
(-0.43182177 0 0)
(-0.44802085 0 0)
(-0.46328411 0 0)
(-0.47751445 0 0)
(-0.49061297 0 0)
(-0.50246417 0 0)
(-0.51292402 0 0)
(-0.52183263 0 0)
(-0.52903353 0 0)
(-0.53439441 0 0)
(-0.53782363 0 0)
(-0.5392797 0 0)
(-0.53876949 0 0)
(-0.5363585 0 0)
(-0.53222036 0 0)
(-0.52659103 0 0)
(-0.51979278 0 0)
(-0.51220812 0 0)
(-0.50432874 0 0)
(-0.49672794 0 0)
(-0.4900068 0 0)
(-0.48486379 0 0)
(-0.4821586 0 0)
(-0.02031424 0 0)
(-0.058497972 0 0)
(-0.09404555 0 0)
(-0.12738172 0 0)
(-0.15876945 0 0)
(-0.18837025 0 0)
(-0.21639543 0 0)
(-0.24307831 0 0)
(-0.26869352 0 0)
(-0.29338914 0 0)
(-0.31663239 0 0)
(-0.33807296 0 0)
(-0.35853484 0 0)
(-0.37824198 0 0)
(-0.3970957 0 0)
(-0.41509215 0 0)
(-0.43227891 0 0)
(-0.44868392 0 0)
(-0.46421409 0 0)
(-0.4787876 0 0)
(-0.49231696 0 0)
(-0.50469942 0 0)
(-0.5157954 0 0)
(-0.52545185 0 0)
(-0.53351122 0 0)
(-0.53981675 0 0)
(-0.54423972 0 0)
(-0.54670644 0 0)
(-0.54719191 0 0)
(-0.54570281 0 0)
(-0.54234525 0 0)
(-0.53730671 0 0)
(-0.53084869 0 0)
(-0.52329766 0 0)
(-0.51504332 0 0)
(-0.50659736 0 0)
(-0.49851252 0 0)
(-0.49139566 0 0)
(-0.48593266 0 0)
(-0.48298987 0 0)
(-0.058477979 0 0)
(-0.02031767 0 0)
(-0.093953271 0 0)
(-0.12718136 0 0)
(-0.15842997 0 0)
(-0.18786388 0 0)
(-0.2157046 0 0)
(-0.24219022 0 0)
(-0.2675833 0 0)
(-0.29203802 0 0)
(-0.31589112 0 0)
(-0.33814576 0 0)
(-0.35862129 0 0)
(-0.37836379 0 0)
(-0.39727535 0 0)
(-0.41535471 0 0)
(-0.43265827 0 0)
(-0.44923779 0 0)
(-0.46500064 0 0)
(-0.4798704 0 0)
(-0.49377443 0 0)
(-0.50662763 0 0)
(-0.51830332 0 0)
(-0.52864646 0 0)
(-0.53750122 0 0)
(-0.54471153 0 0)
(-0.55011736 0 0)
(-0.55360305 0 0)
(-0.55510694 0 0)
(-0.55461723 0 0)
(-0.55217524 0 0)
(-0.54789355 0 0)
(-0.54199023 0 0)
(-0.53473228 0 0)
(-0.5264627 0 0)
(-0.51758535 0 0)
(-0.50860326 0 0)
(-0.50007451 0 0)
(-0.49258521 0 0)
(-0.48682777 0 0)
(-0.48366927 0 0)
(-0.093922304 0 0)
(-0.058488206 0 0)
(-0.020331107 0 0)
(-0.12706062 0 0)
(-0.15818564 0 0)
(-0.18746867 0 0)
(-0.21513605 0 0)
(-0.24143087 0 0)
(-0.26660957 0 0)
(-0.29083165 0 0)
(-0.31444142 0 0)
(-0.33736229 0 0)
(-0.35870679 0 0)
(-0.37847933 0 0)
(-0.39743688 0 0)
(-0.41558007 0 0)
(-0.43297918 0 0)
(-0.44970469 0 0)
(-0.46566148 0 0)
(-0.48078631 0 0)
(-0.49501782 0 0)
(-0.50828818 0 0)
(-0.52047957 0 0)
(-0.53144521 0 0)
(-0.54103615 0 0)
(-0.54909099 0 0)
(-0.55544174 0 0)
(-0.55994269 0 0)
(-0.56248983 0 0)
(-0.56303641 0 0)
(-0.56159132 0 0)
(-0.5582034 0 0)
(-0.55302465 0 0)
(-0.54628323 0 0)
(-0.53826722 0 0)
(-0.52931952 0 0)
(-0.51985003 0 0)
(-0.51037455 0 0)
(-0.50142663 0 0)
(-0.49359625 0 0)
(-0.48756661 0 0)
(-0.48421072 0 0)
(-0.12702121 0 0)
(-0.093940769 0 0)
(-0.058529277 0 0)
(-0.02035712 0 0)
(-0.15803985 0 0)
(-0.18718502 0 0)
(-0.21469132 0 0)
(-0.24080693 0 0)
(-0.26578011 0 0)
(-0.28977176 0 0)
(-0.31314014 0 0)
(-0.33581202 0 0)
(-0.3578851 0 0)
(-0.37859565 0 0)
(-0.39758758 0 0)
(-0.41578056 0 0)
(-0.43325489 0 0)
(-0.45010067 0 0)
(-0.46622367 0 0)
(-0.48156477 0 0)
(-0.49607565 0 0)
(-0.50970794 0 0)
(-0.52236042 0 0)
(-0.5338887 0 0)
(-0.5441465 0 0)
(-0.55298294 0 0)
(-0.56022901 0 0)
(-0.56571467 0 0)
(-0.56930359 0 0)
(-0.57091389 0 0)
(-0.5705066 0 0)
(-0.56810855 0 0)
(-0.56380525 0 0)
(-0.55775533 0 0)
(-0.55021406 0 0)
(-0.54147148 0 0)
(-0.53188157 0 0)
(-0.52186456 0 0)
(-0.51192381 0 0)
(-0.50259252 0 0)
(-0.49444328 0 0)
(-0.48816487 0 0)
(-0.48463093 0 0)
(-0.15799243 0 0)
(-0.12704559 0 0)
(-0.094007564 0 0)
(-0.058608482 0 0)
(-0.020395785 0 0)
(-0.18701664 0 0)
(-0.21437474 0 0)
(-0.24032022 0 0)
(-0.26509701 0 0)
(-0.28887056 0 0)
(-0.31200338 0 0)
(-0.33442555 0 0)
(-0.35624516 0 0)
(-0.37773901 0 0)
(-0.39773555 0 0)
(-0.41596853 0 0)
(-0.43349933 0 0)
(-0.45044394 0 0)
(-0.46670227 0 0)
(-0.48222592 0 0)
(-0.49697592 0 0)
(-0.51092298 0 0)
(-0.52397877 0 0)
(-0.53600681 0 0)
(-0.54687266 0 0)
(-0.55642614 0 0)
(-0.56450045 0 0)
(-0.57092593 0 0)
(-0.57553615 0 0)
(-0.5782108 0 0)
(-0.57888014 0 0)
(-0.57752733 0 0)
(-0.57420132 0 0)
(-0.56899604 0 0)
(-0.56210653 0 0)
(-0.5537957 0 0)
(-0.54436932 0 0)
(-0.53417791 0 0)
(-0.5236434 0 0)
(-0.5132763 0 0)
(-0.50358437 0 0)
(-0.49514396 0 0)
(-0.48863662 0 0)
(-0.48494048 0 0)
(-0.18696352 0 0)
(-0.15802358 0 0)
(-0.12713419 0 0)
(-0.094137322 0 0)
(-0.058726877 0 0)
(-0.020446728 0 0)
(-0.21418745 0 0)
(-0.23997513 0 0)
(-0.26456656 0 0)
(-0.28812887 0 0)
(-0.31103162 0 0)
(-0.33320912 0 0)
(-0.35477931 0 0)
(-0.37601653 0 0)
(-0.39685076 0 0)
(-0.41614449 0 0)
(-0.433727 0 0)
(-0.45074864 0 0)
(-0.46711822 0 0)
(-0.48279355 0 0)
(-0.4977439 0 0)
(-0.51195869 0 0)
(-0.52536804 0 0)
(-0.53784045 0 0)
(-0.54924691 0 0)
(-0.55945145 0 0)
(-0.56829339 0 0)
(-0.57559526 0 0)
(-0.58118284 0 0)
(-0.58490896 0 0)
(-0.5866671 0 0)
(-0.58640288 0 0)
(-0.58411131 0 0)
(-0.57986666 0 0)
(-0.57379459 0 0)
(-0.56609519 0 0)
(-0.55705479 0 0)
(-0.54697806 0 0)
(-0.53622128 0 0)
(-0.52521111 0 0)
(-0.51444314 0 0)
(-0.50442149 0 0)
(-0.4957117 0 0)
(-0.48899667 0 0)
(-0.4851552 0 0)
(-0.21413146 0 0)
(-0.18700196 0 0)
(-0.15813278 0 0)
(-0.1273041 0 0)
(-0.09432733 0 0)
(-0.058882287 0 0)
(-0.020509909 0 0)
(-0.23977339 0 0)
(-0.26419061 0 0)
(-0.28755414 0 0)
(-0.31023462 0 0)
(-0.3321728 0 0)
(-0.35349256 0 0)
(-0.37447158 0 0)
(-0.39504771 0 0)
(-0.41523836 0 0)
(-0.43393877 0 0)
(-0.45102646 0 0)
(-0.46748632 0 0)
(-0.4832848 0 0)
(-0.49840277 0 0)
(-0.51284578 0 0)
(-0.52655989 0 0)
(-0.53941902 0 0)
(-0.55130913 0 0)
(-0.5621015 0 0)
(-0.57163842 0 0)
(-0.57975064 0 0)
(-0.58626341 0 0)
(-0.59100644 0 0)
(-0.59384154 0 0)
(-0.59468295 0 0)
(-0.5934858 0 0)
(-0.5902711 0 0)
(-0.58513546 0 0)
(-0.57821531 0 0)
(-0.56974165 0 0)
(-0.56000513 0 0)
(-0.54932104 0 0)
(-0.53803821 0 0)
(-0.52658039 0 0)
(-0.5154455 0 0)
(-0.5051164 0 0)
(-0.49616075 0 0)
(-0.48925581 0 0)
(-0.48528332 0 0)
(-0.23971647 0 0)
(-0.21417934 0 0)
(-0.18713207 0 0)
(-0.15834131 0 0)
(-0.12755434 0 0)
(-0.094579831 0 0)
(-0.059076104 0 0)
(-0.020584778 0 0)
(-0.26397271 0 0)
(-0.28714887 0 0)
(-0.30961331 0 0)
(-0.3313191 0 0)
(-0.35239643 0 0)
(-0.3731197 0 0)
(-0.39342982 0 0)
(-0.41335624 0 0)
(-0.43301298 0 0)
(-0.45128578 0 0)
(-0.46781911 0 0)
(-0.48371746 0 0)
(-0.49897335 0 0)
(-0.51360718 0 0)
(-0.52758283 0 0)
(-0.54078021 0 0)
(-0.55309276 0 0)
(-0.5644081 0 0)
(-0.57458003 0 0)
(-0.58343649 0 0)
(-0.59080397 0 0)
(-0.59651397 0 0)
(-0.60039978 0 0)
(-0.60233954 0 0)
(-0.60226147 0 0)
(-0.60014285 0 0)
(-0.59601785 0 0)
(-0.59000816 0 0)
(-0.58227864 0 0)
(-0.57306347 0 0)
(-0.5626715 0 0)
(-0.55141421 0 0)
(-0.5396403 0 0)
(-0.5277729 0 0)
(-0.51629467 0 0)
(-0.50568474 0 0)
(-0.49650417 0 0)
(-0.48942822 0 0)
(-0.48533926 0 0)
(-0.26391435 0 0)
(-0.23977372 0 0)
(-0.21433035 0 0)
(-0.1873779 0 0)
(-0.15864826 0 0)
(-0.12788364 0 0)
(-0.094889853 0 0)
(-0.059304888 0 0)
(-0.02067126 0 0)
(-0.28691515 0 0)
(-0.309174 0 0)
(-0.33065503 0 0)
(-0.35149275 0 0)
(-0.37196424 0 0)
(-0.39201588 0 0)
(-0.41167347 0 0)
(-0.4310571 0 0)
(-0.45033775 0 0)
(-0.46812733 0 0)
(-0.48410968 0 0)
(-0.4994761 0 0)
(-0.51426708 0 0)
(-0.52846451 0 0)
(-0.54195106 0 0)
(-0.55463406 0 0)
(-0.56641373 0 0)
(-0.5771509 0 0)
(-0.58668259 0 0)
(-0.59484192 0 0)
(-0.60145411 0 0)
(-0.60634521 0 0)
(-0.60936494 0 0)
(-0.61040546 0 0)
(-0.60941334 0 0)
(-0.60637831 0 0)
(-0.60136469 0 0)
(-0.59451342 0 0)
(-0.58599913 0 0)
(-0.57608041 0 0)
(-0.56506822 0 0)
(-0.5532792 0 0)
(-0.5410512 0 0)
(-0.52880036 0 0)
(-0.51700854 0 0)
(-0.50613933 0 0)
(-0.49675362 0 0)
(-0.48952251 0 0)
(-0.48532883 0 0)
(-0.28685655 0 0)
(-0.26398089 0 0)
(-0.23994428 0 0)
(-0.21461416 0 0)
(-0.18773991 0 0)
(-0.1590516 0 0)
(-0.12829026 0 0)
(-0.095259889 0 0)
(-0.059570377 0 0)
(-0.020768607 0 0)
(-0.30891856 0 0)
(-0.33018291 0 0)
(-0.35078901 0 0)
(-0.37101352 0 0)
(-0.39080651 0 0)
(-0.41019902 0 0)
(-0.42931071 0 0)
(-0.44830764 0 0)
(-0.46716184 0 0)
(-0.48446249 0 0)
(-0.49992551 0 0)
(-0.51484777 0 0)
(-0.52922951 0 0)
(-0.54296394 0 0)
(-0.55596502 0 0)
(-0.56814975 0 0)
(-0.57939376 0 0)
(-0.58953669 0 0)
(-0.59841356 0 0)
(-0.6058592 0 0)
(-0.61169876 0 0)
(-0.61576 0 0)
(-0.61790334 0 0)
(-0.6180445 0 0)
(-0.61614091 0 0)
(-0.61220819 0 0)
(-0.60632418 0 0)
(-0.59865518 0 0)
(-0.58939758 0 0)
(-0.57881037 0 0)
(-0.567218 0 0)
(-0.55493095 0 0)
(-0.54228179 0 0)
(-0.52968123 0 0)
(-0.51759837 0 0)
(-0.506492 0 0)
(-0.49692129 0 0)
(-0.48955156 0 0)
(-0.48526569 0 0)
(-0.30884834 0 0)
(-0.28693205 0 0)
(-0.26417326 0 0)
(-0.24026059 0 0)
(-0.21502741 0 0)
(-0.18821424 0 0)
(-0.15955007 0 0)
(-0.12877203 0 0)
(-0.095683948 0 0)
(-0.05986883 0 0)
(-0.020876923 0 0)
(-0.32990659 0 0)
(-0.35028814 0 0)
(-0.37026987 0 0)
(-0.38981268 0 0)
(-0.40894243 0 0)
(-0.42778067 0 0)
(-0.44649206 0 0)
(-0.46505846 0 0)
(-0.48348655 0 0)
(-0.50033361 0 0)
(-0.51536491 0 0)
(-0.52990023 0 0)
(-0.54384289 0 0)
(-0.55711699 0 0)
(-0.56965482 0 0)
(-0.58134259 0 0)
(-0.59202928 0 0)
(-0.60156132 0 0)
(-0.60977273 0 0)
(-0.6164905 0 0)
(-0.62154249 0 0)
(-0.62476024 0 0)
(-0.62602206 0 0)
(-0.62526003 0 0)
(-0.62245576 0 0)
(-0.61763775 0 0)
(-0.6109122 0 0)
(-0.60246065 0 0)
(-0.59248873 0 0)
(-0.58127218 0 0)
(-0.56913548 0 0)
(-0.5563895 0 0)
(-0.54335285 0 0)
(-0.53042704 0 0)
(-0.51807834 0 0)
(-0.5067561 0 0)
(-0.49701581 0 0)
(-0.48952118 0 0)
(-0.48515384 0 0)
(-0.32982784 0 0)
(-0.30892514 0 0)
(-0.28714584 0 0)
(-0.26452324 0 0)
(-0.24071943 0 0)
(-0.2155718 0 0)
(-0.1888014 0 0)
(-0.16013983 0 0)
(-0.12932718 0 0)
(-0.096164767 0 0)
(-0.060200879 0 0)
(-0.020968435 0 0)
(-0.34999312 0 0)
(-0.36973972 0 0)
(-0.38903521 0 0)
(-0.40790689 0 0)
(-0.42647857 0 0)
(-0.44490687 0 0)
(-0.46317616 0 0)
(-0.48130716 0 0)
(-0.49934207 0 0)
(-0.51583412 0 0)
(-0.5304997 0 0)
(-0.54461321 0 0)
(-0.55811827 0 0)
(-0.57095865 0 0)
(-0.58303631 0 0)
(-0.5942074 0 0)
(-0.60432316 0 0)
(-0.61322983 0 0)
(-0.62075961 0 0)
(-0.62673171 0 0)
(-0.63097016 0 0)
(-0.63333398 0 0)
(-0.6337146 0 0)
(-0.63205805 0 0)
(-0.62836179 0 0)
(-0.62268423 0 0)
(-0.61514162 0 0)
(-0.60593727 0 0)
(-0.59529368 0 0)
(-0.58348388 0 0)
(-0.57084119 0 0)
(-0.55766863 0 0)
(-0.54427487 0 0)
(-0.53105213 0 0)
(-0.51846 0 0)
(-0.50693995 0 0)
(-0.49704929 0 0)
(-0.48944437 0 0)
(-0.48499143 0 0)
(-0.34990793 0 0)
(-0.32990331 0 0)
(-0.30914553 0 0)
(-0.28752847 0 0)
(-0.26503272 0 0)
(-0.24131989 0 0)
(-0.21624015 0 0)
(-0.18949496 0 0)
(-0.16081881 0 0)
(-0.12995062 0 0)
(-0.096694037 0 0)
(-0.060414899 0 0)
(-0.020973388 0 0)
(-0.36942504 0 0)
(-0.38848161 0 0)
(-0.40709968 0 0)
(-0.42540562 0 0)
(-0.44355533 0 0)
(-0.46153577 0 0)
(-0.47936521 0 0)
(-0.49709569 0 0)
(-0.51483257 0 0)
(-0.5310346 0 0)
(-0.5453004 0 0)
(-0.55899672 0 0)
(-0.572094 0 0)
(-0.58450794 0 0)
(-0.59610156 0 0)
(-0.60674038 0 0)
(-0.61627625 0 0)
(-0.62454365 0 0)
(-0.63136887 0 0)
(-0.63657482 0 0)
(-0.63999796 0 0)
(-0.64149948 0 0)
(-0.64099224 0 0)
(-0.63844195 0 0)
(-0.63387289 0 0)
(-0.62735465 0 0)
(-0.61902928 0 0)
(-0.60911025 0 0)
(-0.5978275 0 0)
(-0.58546331 0 0)
(-0.57234997 0 0)
(-0.55878586 0 0)
(-0.54506335 0 0)
(-0.53156877 0 0)
(-0.51875419 0 0)
(-0.50705746 0 0)
(-0.49702807 0 0)
(-0.48926828 0 0)
(-0.48476302 0 0)
(-0.36932881 0 0)
(-0.34998386 0 0)
(-0.3301347 0 0)
(-0.30955283 0 0)
(-0.28808274 0 0)
(-0.26569426 0 0)
(-0.24205756 0 0)
(-0.21703379 0 0)
(-0.19029521 0 0)
(-0.16158392 0 0)
(-0.13064105 0 0)
(-0.097017576 0 0)
(-0.060440536 0 0)
(-0.020978512 0 0)
(-0.38815285 0 0)
(-0.40652277 0 0)
(-0.42457027 0 0)
(-0.44244534 0 0)
(-0.46013642 0 0)
(-0.47766655 0 0)
(-0.49508997 0 0)
(-0.51251602 0 0)
(-0.5300285 0 0)
(-0.54590928 0 0)
(-0.55977425 0 0)
(-0.57308925 0 0)
(-0.58579068 0 0)
(-0.59775403 0 0)
(-0.60885151 0 0)
(-0.61894807 0 0)
(-0.62788861 0 0)
(-0.63549878 0 0)
(-0.64159907 0 0)
(-0.64601715 0 0)
(-0.6486014 0 0)
(-0.64923862 0 0)
(-0.64784905 0 0)
(-0.6444209 0 0)
(-0.63899521 0 0)
(-0.63166871 0 0)
(-0.62258959 0 0)
(-0.61199 0 0)
(-0.60011068 0 0)
(-0.58722824 0 0)
(-0.57367979 0 0)
(-0.55975452 0 0)
(-0.54573104 0 0)
(-0.53198644 0 0)
(-0.5189733 0 0)
(-0.50711366 0 0)
(-0.49684134 0 0)
(-0.48900535 0 0)
(-0.48447938 0 0)
(-0.38805221 0 0)
(-0.36940327 0 0)
(-0.35022531 0 0)
(-0.33056151 0 0)
(-0.3101399 0 0)
(-0.28880006 0 0)
(-0.26650932 0 0)
(-0.24292969 0 0)
(-0.21794449 0 0)
(-0.19119601 0 0)
(-0.16242833 0 0)
(-0.1310402 0 0)
(-0.097056461 0 0)
(-0.06046807 0 0)
(-0.02098482 0 0)
(-0.40618133 0 0)
(-0.42397421 0 0)
(-0.44157902 0 0)
(-0.4589897 0 0)
(-0.47622431 0 0)
(-0.49334178 0 0)
(-0.51044747 0 0)
(-0.52763378 0 0)
(-0.54490094 0 0)
(-0.56046676 0 0)
(-0.57396804 0 0)
(-0.58691376 0 0)
(-0.59919459 0 0)
(-0.61069455 0 0)
(-0.62129001 0 0)
(-0.6308319 0 0)
(-0.63915469 0 0)
(-0.64608308 0 0)
(-0.65143866 0 0)
(-0.65505666 0 0)
(-0.65680365 0 0)
(-0.6565688 0 0)
(-0.65429763 0 0)
(-0.65000014 0 0)
(-0.64374471 0 0)
(-0.63563541 0 0)
(-0.62584144 0 0)
(-0.61460022 0 0)
(-0.60215862 0 0)
(-0.58879534 0 0)
(-0.57484571 0 0)
(-0.5605895 0 0)
(-0.54628792 0 0)
(-0.53232046 0 0)
(-0.51912448 0 0)
(-0.50691225 0 0)
(-0.49650698 0 0)
(-0.4886871 0 0)
(-0.48413218 0 0)
(-0.40607576 0 0)
(-0.38812863 0 0)
(-0.36964747 0 0)
(-0.35067158 0 0)
(-0.33118556 0 0)
(-0.31090936 0 0)
(-0.28968209 0 0)
(-0.26746821 0 0)
(-0.24393241 0 0)
(-0.21897049 0 0)
(-0.19219162 0 0)
(-0.16291201 0 0)
(-0.13107673 0 0)
(-0.097100319 0 0)
(-0.060499631 0 0)
(-0.020991501 0 0)
(-0.42362197 0 0)
(-0.44096258 0 0)
(-0.45809467 0 0)
(-0.47503714 0 0)
(-0.49185362 0 0)
(-0.50864828 0 0)
(-0.52550305 0 0)
(-0.54243109 0 0)
(-0.55945714 0 0)
(-0.57474904 0 0)
(-0.58790665 0 0)
(-0.60045713 0 0)
(-0.61230532 0 0)
(-0.62333757 0 0)
(-0.6334181 0 0)
(-0.64238735 0 0)
(-0.6500717 0 0)
(-0.65629574 0 0)
(-0.6608891 0 0)
(-0.6636917 0 0)
(-0.66458025 0 0)
(-0.6634762 0 0)
(-0.66033509 0 0)
(-0.65519229 0 0)
(-0.64812993 0 0)
(-0.63927528 0 0)
(-0.62879951 0 0)
(-0.6169534 0 0)
(-0.60399048 0 0)
(-0.59018173 0 0)
(-0.57586292 0 0)
(-0.56130414 0 0)
(-0.54675081 0 0)
(-0.53257588 0 0)
(-0.51890529 0 0)
(-0.50648308 0 0)
(-0.49613333 0 0)
(-0.4883177 0 0)
(-0.48372763 0 0)
(-0.42351483 0 0)
(-0.40615327 0 0)
(-0.38838105 0 0)
(-0.37011136 0 0)
(-0.35132687 0 0)
(-0.33199876 0 0)
(-0.3118508 0 0)
(-0.29071897 0 0)
(-0.26857091 0 0)
(-0.24506024 0 0)
(-0.22010291 0 0)
(-0.19275814 0 0)
(-0.16295355 0 0)
(-0.13111707 0 0)
(-0.097145634 0 0)
(-0.060531441 0 0)
(-0.020998857 0 0)
(-0.44059725 0 0)
(-0.45745968 0 0)
(-0.47411542 0 0)
(-0.49063311 0 0)
(-0.50711582 0 0)
(-0.52364656 0 0)
(-0.54023808 0 0)
(-0.55692161 0 0)
(-0.57374573 0 0)
(-0.58878133 0 0)
(-0.60157283 0 0)
(-0.61371881 0 0)
(-0.62513119 0 0)
(-0.63568518 0 0)
(-0.64523056 0 0)
(-0.65360252 0 0)
(-0.66062723 0 0)
(-0.66613011 0 0)
(-0.66994044 0 0)
(-0.67191477 0 0)
(-0.67195236 0 0)
(-0.66997673 0 0)
(-0.66597581 0 0)
(-0.66000465 0 0)
(-0.65216923 0 0)
(-0.64259947 0 0)
(-0.6314828 0 0)
(-0.61907104 0 0)
(-0.60562228 0 0)
(-0.59140297 0 0)
(-0.57674668 0 0)
(-0.56190861 0 0)
(-0.54712434 0 0)
(-0.53233596 0 0)
(-0.51836109 0 0)
(-0.50603039 0 0)
(-0.49571278 0 0)
(-0.48788892 0 0)
(-0.48325641 0 0)
(-0.44048646 0 0)
(-0.42359573 0 0)
(-0.40641397 0 0)
(-0.38886281 0 0)
(-0.37079024 0 0)
(-0.35218077 0 0)
(-0.33300194 0 0)
(-0.31296583 0 0)
(-0.29191124 0 0)
(-0.26981019 0 0)
(-0.24630793 0 0)
(-0.22074123 0 0)
(-0.19281287 0 0)
(-0.16300296 0 0)
(-0.13116447 0 0)
(-0.097193009 0 0)
(-0.06056444 0 0)
(-0.021006187 0 0)
(-0.45708464 0 0)
(-0.47345783 0 0)
(-0.4896817 0 0)
(-0.50586142 0 0)
(-0.52207117 0 0)