/*--------------------------------*- C++ -*----------------------------------*\
| =========                 |                                                 |
| \\      /  F ield         | OpenFOAM: The Open Source CFD Toolbox           |
|  \\    /   O peration     | Version:  v2012                                 |
|   \\  /    A nd           | Website:  www.openfoam.com                      |
|    \\/     M anipulation  |                                                 |
\*---------------------------------------------------------------------------*/
FoamFile
{
    version     2.0;
    format      ascii;
    class       surfaceScalarField;
    location    "49.8824687878157391";
    object      meshPhi;
}
// * * * * * * * * * * * * * * * * * * * * * * * * * * * * * * * * * * * * * //

dimensions      [0 3 -1 0 0 0 0];
oriented        oriented;


internalField   nonuniform List<scalar> 
18180
(
1.0689501e-13
0.061000864
1.0691229e-13
0.055515388
0
0.11921343
1.069334e-13
0.050183036
0
0.10906699
0
0.17516184
-2.4639309e-17
0.045887407
-1.0304298e-13
0.099237469
0
0.16102331
0
0.22823631
-5.3512597e-14
0.042511316
0
0.090776521
-4.8096594e-17
0.14712287
0
0.21063208
0
0.27814663
0
0.039742328
-5.153978e-14
0.084028542
0
0.13516108
-9.556431e-14
0.19341148
0
0.25722642
0
0.32469405
0
0.037360122
-5.1524732e-14
0.078536407
-4.9632806e-14
0.12531857
-4.7767193e-14
0.17815487
-9.2037318e-14
0.23685354
0
0.30081883
8.5322023e-14
0.36818009
0
0.03518635
-5.1557181e-14
0.073721148
4.9641324e-14
0.1170704
4.7775868e-14
0.16532495
0
0.21852485
0
0.27747008
0
0.34154114
-3.5943865e-17
0.40871597
0
0.033171053
5.1540748e-14
0.069337923
0
0.10991044
2.3330466e-17
0.15462911
-9.2071361e-14
0.20297738
4.4310338e-14
0.2564327
0
0.31581794
0
0.37972104
-3.3487399e-17
0.44654361
0
0.031288592
0
0.065261121
4.9632444e-14
0.10342699
-2.3676719e-17
0.14545089
4.6044405e-14
0.19010714
-4.4339825e-14
0.23856082
0
0.29257925
-8.2242978e-14
0.35189496
0
0.41540704
7.6257815e-14
0.48190106
0
0.029525319
5.1553739e-14
0.061443648
-4.9663206e-14
0.097393784
-4.779892e-14
0.13720874
0
0.17912929
2.0679011e-17
0.22349978
4.2689098e-14
0.27251209
4.1111452e-14
0.32685455
0
0.38590788
0
0.44888875
0
0.51473745
0
0.027866296
0
0.057850287
-4.9668952e-14
0.091707673
4.7829677e-14
0.12956034
0
0.16933892
0
0.21062988
-4.2698541e-14
0.25545738
-1.8909751e-17
0.30504605
3.960248e-14
0.35929753
0
0.41785555
0
0.48008664
-7.0791742e-14
0.54521288
0
0.026294345
0
0.054456421
0
0.086313772
-2.4976291e-17
0.12232507
0
0.16030558
4.4365657e-14
0.19923652
-1.9822969e-17
0.24062521
-4.1131228e-14
0.28598341
0
0.33576185
-3.8166734e-14
0.38980334
-7.3515416e-14
0.44773195
0
0.50900593
6.8169862e-14
0.57327545
0
0.024796336
-2.5783696e-14
0.051238014
0
0.081184467
0
0.11542918
0
0.1517614
0
0.18871405
4.2736042e-14
0.22731681
4.1141157e-14
0.26905707
0
0.31478537
-3.8177509e-14
0.3646569
0
0.41834698
7.0791742e-14
0.47539218
0
0.53568499
-6.5694219e-14
0.59917314
-1.3263381e-17
0.023365489
0
0.048184934
-2.4828335e-14
0.076306238
0
0.10884345
0
0.14360007
-4.4379536e-14
0.17878579
0
0.21509227
0
0.25379647
0
0.29584086
0
0.34181791
0
0.39169122
3.5420331e-14
0.44481621
6.8198445e-14
0.50096091
0
0.56022957
6.3264895e-14
0.62281662
-2.6778749e-14
0.02199892
2.5786568e-14
0.04528782
0
0.071671872
-2.3911113e-14
0.10256209
0
0.13578158
0
0.16929543
0
0.20360724
0
0.23977317
0
0.27855464
0
0.32080323
3.6790408e-14
0.36705055
-1.4542722e-17
0.41676818
1.3351572e-17
0.46926592
0
0.5244189
-6.3299012e-14
0.58268136
6.0947362e-14
0.64444593
0
0.020692784
0
0.042537996
0
0.067280252
-2.3925652e-14
0.096579176
2.3043834e-14
0.12829762
0
0.16018543
0
0.19266575
4.1166456e-14
0.22664602
0
0.26265028
0
0.30145856
-3.6802515e-14
0.34410206
-3.5429559e-14
0.39059073
-1.3539686e-17
0.44001977
-6.5723296e-14
0.49172091
-6.3318217e-14
0.54587805
-6.0960493e-14
0.60313336
5.8715281e-14
0.66408784
2.6793951e-14
0.019445423
-1.2450174e-17
0.039927984
-2.4831733e-14
0.063127168
0
0.090893709
0
0.12114649
-2.2185695e-14
0.15143356
0
0.18217555
0
0.21421412
-1.7107036e-17
0.2478669
0
0.28371912
0
0.32288714
0
0.36598428
-3.4134482e-14
0.41249509
-1.24555e-17
0.46140269
0
0.51223687
-6.0999907e-14
0.56536664
0
0.62174596
0
0.68198531
0
0.018258009
0
0.037449531
-1.247971e-17
0.059206813
0
0.085504177
2.3033444e-14
0.11432192
0
0.14303593
-2.137307e-14
0.17209694
0
0.20234576
0
0.23395447
3.8215225e-14
0.26731615
0
0.30336118
0
0.34307225
-1.3558751e-17
0.38648148
3.2900191e-14
0.43273439
-1.1450426e-17
0.48100248
3.0512278e-14
0.53090415
-5.8767104e-14
0.58311525
0
0.63864036
5.4494766e-14
0.69814462
0
0.017131588
0
0.035097496
0
0.055508257
-1.3801036e-17
0.08040528
2.3047911e-14
0.10782136
2.2200388e-14
0.13499173
0
0.16241462
-2.0592017e-14
0.19098331
0
0.22074511
0
0.25196828
0
0.28541669
0
0.32205793
0
0.36219849
-3.2914375e-14
0.40551927
1.1612401e-17
0.45138155
-1.045197e-17
0.49887589
-2.9387007e-14
0.54787907
5.6600095e-14
0.59918476
0
0.6539358
-1.2977335e-17
0.71276849
0
0.016067805
5.1592014e-14
0.032871531
0
0.052024125
0
0.075587561
0
0.1016353
0
0.12729889
-1.0255999e-17
0.15312697
2.0594147e-14
0.18009673
-1.9841367e-14
0.20814747
0
0.23748073
0
0.26875857
0
0.30273896
0
0.33979253
0
0.37998227
0
0.42313067
0
0.46845823
0
0.51517473
0
0.56326373
0
0.61372797
0
0.66772755
-5.0590982e-14
0.72591605
0
0.015066429
0
0.030771775
-2.4846206e-14
0.048745809
0
0.071038017
0
0.09575434
-2.220244e-14
0.11995219
2.1387911e-14
0.14423388
-9.3641046e-18
0.1696754
0
0.19611912
-1.9119307e-14
0.22370933
0
0.25307726
0
0.28480223
-3.4201073e-14
0.31915268
0
0.35631557
3.1728589e-14
0.39648997
-3.0556859e-14
0.43938207
9.8188528e-18
0.48412444
0
0.52997054
0
0.57715685
0
0.62681765
0
0.68017323
0
0.73776387
-1.3390962e-14
0.014126913
0
0.028794255
0
0.045664061
-2.392991e-14
0.066740823
-2.3049978e-14
0.090162174
-4.4394363e-14
0.11294881
2.1378666e-14
0.13573949
9.3678519e-18
0.15971848
1.9846112e-14
0.18463708
-1.913e-14
0.21059291
-1.8424055e-14
0.23822549
0
0.2680094
0
0.30006167
0
0.33449457
0
0.37178812
-3.0561713e-14
0.41196107
2.9432774e-14
0.45442201
0
0.49842052
-2.730919e-14
0.5433808
2.6281504e-14
0.58968886
5.0615342e-14
0.63864254
0
0.69136078
-9.4070866e-18
0.74834806
0
0.013246525
1.2901281e-14
0.026935046
0
0.042768482
0
0.062680556
2.3035971e-14
0.084846596
0
0.10628405
0
0.12764536
-9.3711793e-18
0.15022463
8.4464508e-18
0.17369078
-1.9132627e-14
0.19809739
-7.1342244e-18
0.22411061
6.8878895e-18
0.25215936
0
0.28226407
0
0.3143549
-3.1758245e-14
0.34900833
0
0.38649014
0
0.42637375
0
0.46826324
2.7318087e-14
0.5114506
2.6296975e-14
0.55547405
2.5321264e-14
0.60097778
0
0.64926331
0
0.70140122
0
0.75780817
-1.3397874e-14
0.012422509
-6.1692272e-18
0.025190022
-1.2417029e-14
0.040048277
0
0.058845124
0
0.079794239
2.2192108e-14
0.099948243
0
0.11995
0
0.14119174
-1.9857907e-14
0.16327015
1.9127347e-14
0.18620401
-7.1114515e-18
0.21069074
0
0.23712944
-1.7110026e-14
0.26552865
0
0.29562385
3.1771951e-14
0.3278781
3.0592809e-14
0.36290074
0
0.40035234
0
0.43977202
2.7327138e-14
0.48092826
2.6321304e-14
0.52322221
-2.5343389e-14
0.56637209
4.8797973e-14
0.61112243
-4.6992357e-14
0.65879562
0
0.71036062
0
0.76619814
6.9031816e-18
0.011651067
0
0.023554562
-1.2423434e-14
0.037493183
-1.1957928e-14
0.055222962
0
0.074994194
-2.220435e-14
0.093931456
2.1380489e-14
0.11264746
0
0.13261338
0
0.15336713
1.9129325e-14
0.17489939
0
0.19794112
-1.7768815e-14
0.22285945
-6.6714879e-18
0.24970223
0
0.27806104
0
0.3082231
0
0.34099185
0
0.37624554
0
0.41332315
0
0.45208169
2.6331627e-14
0.49243811
0
0.53383999
-5.7512838e-18
0.57614485
-2.3504986e-14
0.6201924
0
0.66730865
0
0.71836031
0
0.77363433
0
0.010928632
6.1254472e-18
0.022023668
0
0.035094435
-2.3930763e-14
0.051803706
1.1525535e-14
0.070438777
-2.2192583e-14
0.08822295
0
0.10573233
-2.0610048e-14
0.12448473
0
0.14397489
-1.9131e-14
0.164172
0
0.18584636
0
0.20931645
0
0.23469512
-1.6500725e-14
0.26149628
-1.5892306e-14
0.28983377
0
0.32050629
0
0.35369969
-2.8421619e-14
0.38878657
0
0.42529814
0
0.46331573
0
0.5028138
2.4435517e-14
0.54336702
-5.1525456e-18
0.58488897
-2.264641e-14
0.6283119
0
0.67493135
0
0.72545891
0
0.78016448
0
0.010251855
0
0.020591917
6.409967e-18
0.032844516
1.1957969e-14
0.048578072
0
0.066121025
5.9868255e-18
0.08281338
0
0.099195016
0
0.11679884
0
0.13508548
0
0.1540141
0
0.17439336
1.7767644e-14
0.19647834
0
0.22046418
-6.3118703e-18
0.24580977
0
0.27249637
5.642659e-18
0.3012647
2.9522965e-14
0.33248961
0
0.36576553
0
0.4004179
0
0.43623719
0
0.47345727
-6.3345958e-18
0.51216355
0
0.55189769
-2.2666859e-14
0.59269546
0
0.6355601
-4.2025323e-14
0.68172073
0
0.73174423
-3.897797e-14
0.78587806
1.3391029e-14
0.0096165722
-1.2895098e-14
0.019255309
-1.2423553e-14
0.030737585
0
0.04553832
1.1525657e-14
0.062034091
0
0.077694062
4.9303513e-18
0.093025191
0
0.10954535
0
0.1266884
1.9133567e-14
0.14441471
0
0.16356866
1.7776811e-14
0.18432817
0
0.20698216
-1.6502575e-14
0.2309479
1.5902307e-14
0.25610252
0
0.28314629
-1.4762695e-14
0.31251493
0
0.3439923
0
0.37698828
0
0.4110435
2.5409833e-14
0.44613771
0
0.48261667
-2.356281e-14
0.52052862
-2.2679864e-14
0.55951069
2.183502e-14
0.59966062
0
0.64203218
0
0.68774935
0
0.73725804
-4.4449464e-18
0.79082482
0
0.0090134478
-1.290118e-14
0.018009646
0
0.028764882
1.1958028e-14
0.042677654
-1.1518222e-14
0.058170793
2.2198903e-14
0.072856264
-1.0690708e-14
0.087208534
4.6863053e-18
0.10270972
0
0.11876918
0
0.13536025
0
0.15335668
-1.7771908e-14
0.17284897
0
0.19422797
-1.6512377e-14
0.21687727
3.1818919e-14
0.24057815
-1.5333379e-14
0.26602995
0
0.29367699
0
0.32336719
-9.9705838e-18
0.35469882
-2.6403946e-14
0.38722696
0
0.42064856
-2.4493239e-14
0.45507693
2.357654e-14
0.49082785
2.2698699e-14
0.52801608
4.2969408e-18
0.56629736
-3.6449878e-18
0.60586451
4.0515813e-14
0.64776354
0
0.69307539
0
0.74209018
0
0.79507974
4.1482195e-05
0.0099010131
0
0.016840083
0
0.02691947
-1.1965685e-14
0.039983983
-7.5019564e-18
0.054523251
0
0.068289024
0
0.081729378
0
0.096271551
-1.9858137e-14
0.11130927
0
0.12683168
0
0.14373699
1.7773583e-14
0.16202135
0
0.18217902
-1.6508899e-14
0.20356975
0
0.22588104
-1.5337995e-14
0.24983206
1.4774449e-14
0.27588207
1.4235531e-14
0.30386769
0
0.33348661
0
0.36448987
0
0.3965205
4.9010995e-14
0.42935756
0
0.46312548
4.5441967e-14
0.49818391
-4.512874e-18
0.53467687
0
0.57234559
0
0.61136506
1.9515282e-14
0.65285761
-3.7586204e-14
0.69778135
0
0.74628127
-3.4862829e-14
0.79869142
6.9855645e-05
0.0098898091
0.00011450231
0.018313673
0
0.025188818
0
0.037446453
-1.1525811e-14
0.051080433
-5.9829281e-18
0.063981552
0
0.07657131
0
0.090211323
0
0.10428845
-1.9135906e-14
0.11880955
0
0.13468571
0
0.15181721
0
0.17081027
0
0.19099958
5.8110696e-18
0.21197886
-1.5342106e-14
0.23450374
0
0.25905984
-1.4246984e-14
0.28545369
1.3726639e-14
0.3133999
-1.3218624e-14
0.34279896
0
0.37342471
-2.4524327e-14
0.4049432
0
0.43719941
-2.2738338e-14
0.4703376
2.1891179e-14
0.504738
-2.1078187e-14
0.54063538
2.0290629e-14
0.57770996
-2.8648354e-18
0.61624367
-1.8802904e-14
0.65735993
-3.6214046e-14
0.70191965
0
0.74989848
0
0.80171889
8.6544593e-05
0.0098772454
0.00019259084
0.018306014
0.00017944745
0.027203878
0
0.035055873
0
0.04783081
0
0.059922771
1.069087e-14
0.071722402
0
0.084510753
-9.9272401e-15
0.097687261
9.5681958e-15
0.11127124
-9.2219834e-15
0.12617417
-1.7782976e-14
0.14220771
0
0.1600913
-6.6202013e-18
0.17913857
1.5922383e-14
0.19884465
1.5345746e-14
0.2200091
-5.5996954e-18
0.24315127
0
0.2680564
1.3728076e-14
0.29441571
0
0.32218052
-1.274071e-14
0.35131437
0
0.38153027
0
0.41253327
0
0.44424845
0
0.47679008
-2.1098175e-14
0.51060764
0
0.54591944
0
0.58247079
-1.8819987e-14
0.62055917
1.8116683e-14
0.6613533
0
0.70553652
0
0.75297302
0
0.80420855
9.2996031e-05
0.0098669575
0.00023834171
0.018292103
0.00030184325
0.027291444
0.00024823269
0.037589013
1.1518205e-14
0.044756313
0
0.056100164
0
0.067166342
1.0301097e-14
0.079155869
9.9314498e-15
0.091486375
9.5683885e-15
0.10419398
9.2223282e-15
0.11817357
8.8919587e-15
0.1331591
0
0.14998744
0
0.16795729
1.5919151e-14
0.18644879
0
0.20631449
0
0.22811724
-5.4886311e-18
0.2516123
-1.3733959e-14
0.27647446
-4.6917768e-18
0.30267605
0
0.33029374
0
0.3591089
0
0.38884035
0
0.41937963
0
0.45057947
0
0.48257285
-4.0651144e-14
0.51583157
0
0.55062438
2.666583e-18
0.58667555
-1.8135263e-14
0.62437892
-1.7455667e-14
0.66485896
0
0.70868345
0
0.75557448
0
0.80621114
9.0676906e-05
0.0098587424
0.00025584637
0.018279886
0.00037353578
0.02736036
0.00041794879
0.037823577
0.00031706286
0.047614483
0
0.052486111
0
0.062885796
0
0.074126973
-9.9315092e-15
0.085661958
3.5844044e-18
0.097553529
9.2226124e-15
0.1106558
-3.3283464e-18
0.12464237
8.5712796e-15
0.14046473
0
0.15742144
1.5927124e-14
0.17476202
0
0.19338946
0
0.21392191
5.5249022e-18
0.23607812
-1.3744399e-14
0.25952149
0
0.28424769
1.2756097e-14
0.3103532
0
0.33772168
0
0.36611675
0
0.39544309
0
0.42556617
0
0.45628783
0
0.48774495
0
0.52048224
0
0.55477376
-1.814683e-14
0.59039866
-1.9694457e-18
0.62774016
1.6818936e-14
0.66795947
0
0.71142264
0
0.75773617
-3.0050436e-14
0.80778102
8.106737e-05
0.0098522405
0.00024922689
0.01826863
0.00040092798
0.027418073
0.0005175238
0.038021905
0.0005338334
0.048011274
0.00037238261
0.055433642
0
0.058848506
0
0.069402862
0
0.080192529
-3.5773011e-18
0.091321859
9.2264178e-15
0.103593
8.8893638e-15
0.1166289
0
0.13149652
8.2627559e-15
0.14749882
0
0.16375514
0
0.18120471
-1.4800266e-14
0.20053311
-1.4265731e-14
0.22141752
0
0.24350136
1.3245205e-14
0.26681699
-1.2767247e-14
0.29146215
-3.9916064e-18
0.31737632
-2.3693632e-14
0.34441443
0
0.37245809
0
0.40145258
0
0.43118831
2.0366827e-14
0.46141065
0
0.4923488
0
0.52460024
0
0.55846168
0
0.59366351
-1.6833748e-14
0.6307058
1.6207138e-14
0.67070303
0
0.71380388
0
0.75951153
-2.8956221e-14
0.80895837
6.5674396e-05
0.0098471387
0.00022264285
0.01825842
0.00039048235
0.027463413
0.00055574059
0.038187932
0.00066105101
0.048346269
0.00062685235
0.056028282
0.00041117383
0.061743696
0
0.064946694
0
0.075056758
0
0.085474121
-9.2266049e-15
0.096959507
3.2310096e-18
0.10909618
-8.5721929e-15
0.12305691
-3.469873e-18
0.1381599
0
0.15339764
0
0.16973141
0
0.18791679
0
0.20759466
1.3748301e-14
0.22837573
0
0.25033863
0
0.273598
0
0.29808716
0
0.32373412
-1.1420769e-14
0.35052611
0
0.37831763
0
0.40697158
0
0.43626848
0
0.46599362
0
0.49644573
0
0.52826269
0
0.56169365
0
0.59653654
-1.5306092e-18
0.63333843
-1.3619188e-18
0.6731591
3.0072945e-14
0.71585589
0
0.76092676
-2.7902379e-14
0.80978976
4.6013249e-05
0.0098434669
0.00018025058
0.018249578
0.00034873619
0.027496494
0.0005414006
0.038321731
0.00070981549
0.048629366
0.00077613405
0.056536226
0.00069238208
0.062581152
0.00044090432
0.067675332
0
0.07020508
-9.5724368e-15
0.079987932
0
0.0907319
-3.1698946e-18
0.10201815
8.572545e-15
0.11512335
0
0.12937633
0
0.14365685
0
0.15893705
0
0.17604201
0
0.19457368
-5.1546094e-18
0.21410911
0
0.23477233
4.4217485e-18
0.25671308
-4.0605719e-18
0.27984637
0
0.30409466
0
0.32960688
0
0.3562539
-1.0598053e-14
0.38373959
0
0.41201808
0
0.44086077
0
0.47008763
0
0.50008926
0
0.53149398
-1.6865578e-14
0.56454136
-1.6232543e-14
0.59905397
-1.5629539e-14
0.63569164
1.5047094e-14
0.67534186
-2.8979834e-14
0.71761759
0
0.76203184
2.6886855e-14
0.81030539
2.3613729e-05
0.0098417377
0.00012622538
0.018242043
0.00028224261
0.027517929
0.00048360135
0.038423372
0.0006914643
0.048861735
0.00083333191
0.056973998
0.0008575174
0.063307096
0.00074260095
0.068739213
0.00046390665
0.072641304
0
0.074813783
0
0.084889035
0
0.09537802
-3.5776384e-18
0.10766707
3.5741481e-18
0.12112077
0
0.13450159
7.6771384e-15
0.14879082
-7.4008555e-15
0.16487572
0
0.18231998
0
0.20066456
0
0.22008334
1.2783983e-14
0.24076345
-1.2316159e-14
0.26261869
1.1868004e-14
0.28550957
0
0.3096459
-1.1017391e-14
0.33515339
-2.9282444e-18
0.36162124
-1.0214502e-14
0.38876412
0
0.4166252
0
0.44499684
-1.8227023e-14
0.47374826
0
0.50332127
1.6881609e-14
0.53433766
0
0.56701655
0
0.60127643
0
0.6377953
0
0.67730337
-2.7924811e-14
0.7191168
0
0.76285034
0
0.81055774
0.0098418171
0
6.4751907e-05
0.018236089
0.00019758683
0.027528324
0.00039138066
0.038493502
0.00061760167
0.049044043
0.0008117988
0.057341546
0.00092105937
0.0639395
0.00091994516
0.069665847
0.00078109485
0.073909464
0.00047975107
0.076909486
0
0.079374781
0
0.089162143
0
0.10067043
-8.2649008e-15
0.11336455
-7.9643715e-15
0.1259037
0
0.1392609
-2.9035671e-18
0.15438296
2.8780102e-18
0.17079827
0
0.18800445
0
0.20623247
-4.4578761e-18
0.22570849
2.4647232e-14
0.24635619
-1.1874415e-14
0.26796525
1.1441697e-14
0.29071965
-1.1022688e-14
0.31496435
1.0613894e-14
0.34047299
0
0.36665947
9.8469915e-15
0.39339802
0
0.42082907
0
0.44872419
-1.7563112e-14
0.47700124
0
0.50616261
0
0.53682451
-1.5657468e-14
0.56918833
0
0.60322461
-1.0789878e-18
0.63968953
0
0.67905231
0
0.72038666
0
0.76341522
2.4968249e-14
0.81056961
0.018232271
0
0.009843176
-2.362025e-05
0.00010131416
0.027527386
0.00027395084
0.038532866
0.00049979484
0.049176919
0.00072510432
0.057639067
0.00089758926
0.064476431
0.00098829107
0.070473036
0.00096731613
0.075003488
0.00080750358
0.078407782
0.00049164718
0.081066747
0
0.083314987
0
0.09411511
0
0.10608199
-7.9676602e-15
0.11783407
2.602086e-18
0.13031819
0
0.14452882
0
0.15997079
6.8830714e-15
0.17609279
0
0.1931823
0
0.21150752
1.232634e-14
0.23100886
1.1883991e-14
0.25141817
1.145195e-14
0.27286256
-3.2663643e-18
0.29575617
0
0.32015184
-2.9386912e-18
0.34551484
-2.5720291e-18
0.37134111
-9.4878748e-15
0.39767324
1.8266371e-14
0.42464955
0
0.45205906
1.6920688e-14
0.47987368
0
0.50866111
0
0.5390026
-1.5086348e-14
0.57106776
0
0.60494767
2.796022e-14
0.64139948
1.3461495e-14
0.68062972
0
0.72142022
0
0.76374723
0
0.81038204
0.02751495
0
0.018231444
-6.4754383e-05
0.0098459404
-4.6039837e-05
0.00014042617
0.038541539
0.00034979969
0.049260774
0.00058687182
0.057866869
0.00080199236
0.064917449
0.00096323843
0.071158324
0.0010388421
0.075951101
0.00099974973
0.079707199
0.00082738446
0.082794269
0.00049993661
0.084552697
0
0.087958677
0
0.099244892
0
0.11026368
-7.6814942e-15
0.12192806
2.9478266e-18
0.13528163
-7.1406756e-15
0.14980197
-6.8842085e-15
0.16489533
2.3143714e-18
0.18089809
0
0.19812073
0
0.21653145
0
0.23580542
-2.2912995e-14
0.25602162
0
0.2775949
-1.0637322e-14
0.30071377
0
0.32511958
-2.7629886e-18
0.35023106
-9.5005983e-15
0.37568162
9.1458405e-15
0.40159107
0
0.42811189
0
0.45503232
-2.143518e-18
0.48240591
0
0.51084573
-3.0203677e-14
0.54089704
-1.1119366e-18
0.57270391
0
0.60647741
0
0.64296174
0
0.68200834
0
0.72224574
0
0.76387994
-2.3188144e-14
0.81001039
0.038518849
0
0.027493433
-0.00010121538
0.018233999
-0.00012623968
0.0098513437
-6.5741539e-05
0.00017929244
0.049296137
0.00041080412
0.058024861
0.00064931565
0.065261364
0.00086082294
0.071720395
0.0010122666
0.076753737
0.0010733226
0.080835316
0.0010242464
0.084298185
0.0008412847
0.086524362
0.00050745083
0.088769934
0
0.092798665
0
0.10316479
0
0.11406388
-2.9688174e-18
0.12660399
2.9544883e-18
0.14025582
-6.8852018e-15
0.15437663
6.6355922e-15
0.16934637
6.3994165e-15
0.18551299
1.233873e-14
0.20288268
0
0.22107769
0
0.24013427
0
0.2604693
-1.0641738e-14
0.28230417
0
0.30554735
0
0.32980609
0
0.35459537
9.1542987e-15
0.37967862
1.8629072e-18
0.40517976
0
0.43122805
0
0.45767787
1.5711578e-14
0.48462974
0
0.51275235
0
0.54253269
-1.4006164e-14
0.57412877
-1.3482227e-14
0.60785939
-7.9958916e-19
0.64436749
-7.4463943e-19
0.68322199
0
0.72286481
0
0.76383354
0
0.80949265
0.049282769
0
0.038470547
-0.00014012952
0.027463631
-0.00019721189
0.01824065
-0.00018031363
0.0098600588
-8.1197188e-05
0.00021061124
0.058113104
0.00045466505
0.065507475
0.00069703595
0.07215897
0.00090440284
0.077412847
0.0010456345
0.081793455
0.0010996669
0.085614209
0.0010414601
0.088255361
0.00085414167
0.091053112
0.00051656718
0.093155812
-7.9656136e-15
0.096472742
0
0.10669938
0
0.11846501
7.1362363e-15
0.13129587
2.5000804e-18
0.1444999
0
0.15849206
0
0.17365023
1.2342113e-14
0.19002704
0
0.20719362
0
0.22514435
-3.3259317e-18
0.24432194
0
0.26494856
-1.0259771e-14
0.28694588
9.8829877e-15
0.31010898
9.517985e-15
0.33412416
-9.1668952e-15
0.35861359
-2.6469665e-14
0.38336178
8.4935893e-15
0.40844848
0
0.43404301
0
0.4600245
-1.6541979e-18
0.48657211
0
0.51439045
-1.40198e-14
0.54394662
-1.3495637e-14
0.57539059
-1.2991301e-14
0.60910279
-2.5018669e-14
0.64564491
0
0.68422899
0
0.72330559
2.2353191e-14
0.76362331
2.1537176e-14
0.80883897
0.058131742
0
0.049232046
-0.00017888819
0.038397638
-0.0002728087
0.027423837
-0.00028147445
0.018253106
-0.00022282587
0.009872572
-9.0905868e-05
0.00023316871
0.065655355
0.00048814914
0.072473889
0.00073224089
0.077931324
0.00093407349
0.082583879
0.0010713105
0.086740194
0.0011182205
0.089779298
0.0010577455
0.093076964
0.00086982556
0.095759118
0.00052166842
0.096320222
0
0.099772344
0
0.11083295
0
0.12288614
-2.4779615e-18
0.13523002
-6.6376061e-15
0.14830016
0
0.16249975
-1.2342853e-14
0.17792913
-1.1899974e-14
0.19411547
0
0.21100872
0
0.22908726
0
0.2485802
0
0.26937236
0
0.29131986
9.5272561e-15
0.31431306
9.174498e-15
0.33809389
8.8329417e-15
0.3623331
0
0.38676535
0
0.41144369
1.5749997e-14
0.43657112
0
0.46209719
-1.4328866e-18
0.48824689
-1.4036713e-14
0.51579994
0
0.54517326
0
0.57650887
1.2519113e-14
0.6102368
-6.4201416e-19
0.64674772
1.1608799e-14
0.68506095
2.2362089e-14
0.72354916
0
0.76326703
0
0.8080784
0.065704365
0
0.058097673
-0.00021027871
0.049145175
-0.0003482401
0.038295709
-0.00038896659
0.027374008
-0.00034754871
0.018272328
-0.00024962915
0.0098892088
-9.333586e-05
0.00025037281
0.072666622
0.00051276653
0.078311128
0.00075620558
0.083207946
0.00095704776
0.087674409
0.0010895563
0.091092511
0.0011360866
0.094856806
0.001077494
0.098056064
0.00087850217
0.099200973
0.00052155645
0.099103294
0
0.10365249
0
0.11499136
0
0.12653476
0
0.13873647
2.1976249e-18
0.15202701
0
0.16655397
-5.9526367e-15
0.18180702
1.7272802e-18
0.19768671
0
0.21471597
0
0.23314315
0
0.25280173
0
0.27353424
-9.5360114e-15
0.29535572
-9.1865991e-15
0.31820385
0
0.34180236
-2.0307623e-18
0.36579958
8.1955303e-15
0.38991446
7.886883e-15
0.41417471
-1.5178366e-14
0.43884476
0
0.46390896
0
0.48968841
0
0.51700064
0
0.54624049
0
0.57750677
5.9382542e-19
0.61123602
0
0.64770167
0
0.68567854
2.1551001e-14
0.7236267
-4.1523719e-14
0.76278665
0
0.80721791
0.07273673
0
0.065675508
-0.00023293176
0.05801153
-0.00040952047
0.049013344
-0.00049650601
0.038164292
-0.00047965525
0.027314548
-0.00038894661
0.01829827
-0.0002565265
0.0099102415
-8.698746e-05
0.00026302505
0.078554333
0.00052955954
0.083668339
0.00077484024
0.088414061
0.00097359345
0.092190512
0.0011073449
0.096387779
0.0011574443
0.10006932
0.0010882406
0.10174134
0.00087860369
0.10228576
0.00052145523
0.10244283
0
0.10754803
0
0.11838189
-6.6413074e-15
0.12977076
-2.1880677e-18
0.14220248
6.1749705e-15
0.15586585
-1.1906131e-14
0.1702315
5.7405586e-15
0.18514188
-5.5325828e-15
0.20116455
0
0.2185803
-1.028004e-14
0.2371777
-9.9094355e-15
0.25674801
0
0.27736026
0
0.29913131
-8.8552106e-15
0.32186338
0
0.3452571
8.2042896e-15
0.3690375
0
0.39283023
0
0.4166683
0
0.44086353
0
0.4654922
1.3539827e-14
0.4909153
2.6061577e-14
0.51802484
0
0.54715627
0
0.57837997
0
0.61212372
-1.1194249e-14
0.6484657
-1.0781221e-14
0.68612371
0
0.72354034
0
0.76220111
-1.9280481e-14
0.8062853
0.078661297
0
0.072710807
-0.00025017468
0.065568398
-0.00045374187
0.057858281
-0.00058417502
0.04883796
-0.00061225206
0.038003551
-0.0005359371
0.027245523
-0.00039920505
0.018330982
-0.00023930564
0.0099363799
-7.0334421e-05
0.00027166449
0.08396645
0.00054263423
0.088958312
0.00078840315
0.093069093
0.00098964402
0.097663265
0.0011282091
0.10179283
0.0011690425
0.10397131
0.0010885335
0.10510274
0.0008785648
0.10593674
0.0005219502
0.1057549
0
0.11069954
0
0.12137081
-1.2806734e-14
0.13299217
-6.1759545e-15
0.14583503
2.0778146e-18
0.15935317
-5.7404138e-15
0.1733387
5.5345106e-15
0.18839343
1.796853e-18
0.20484488
0
0.22244192
0
0.24091779
0
0.26033626
0
0.28093404
8.8646015e-15
0.3027076
0
0.32531101
0
0.34851596
7.906459e-15
0.37206171
-1.5198553e-18
0.39552356
-1.4644022e-14
0.41892516
0
0.44266413
0
0.46686032
-9.0144494e-19
0.4919551
-1.2555215e-14
0.5188738
-1.2084876e-14
0.54793834
-4.8919506e-19
0.57915161
4.5161893e-19
0.61286531
-3.8389909e-19
0.64907637
-1.0389933e-14
0.68636734
3.9644394e-20
0.7233208
0
0.76151788
-1.8583034e-14
0.80528556
0.084102201
0
0.078664584
-0.00026294623
0.072588167
-0.00048736793
0.065362205
-0.00064735559
0.057640792
-0.0007207798
0.048619888
-0.00068411047
0.037814187
-0.00054909438
0.027168752
-0.00037189778
0.018372219
-0.00019371481
0.0099690264
-4.1862243e-05
0.00027837569
0.089306778
0.000552219
0.093723577
0.00080156508
0.098677015
0.0010083349
0.10321959
0.0011395085
0.10588141
0.0011696138
0.10757645
0.0010888661
0.10903751
0.00087950385
0.10953395
0.00051987478
0.10830397
0
0.11346297
6.4051078e-15
0.12436251
0
0.13642371
5.9543775e-15
0.14913626
5.743504e-15
0.16224415
0
0.17637021
-1.8249611e-18
0.19189403
5.1470765e-15
0.20854233
0
0.22598826
-9.5614204e-15
0.2442657
0
0.26365881
0
0.28437116
0
0.30611659
8.2246576e-15
0.32854156
0
0.35156781
7.6190998e-15
0.37489197
0
0.39800809
-7.0544141e-15
0.42097295
0
0.44425027
0
0.46804164
1.2569763e-14
0.49281355
1.2097466e-14
0.51957785
1.1644752e-14
0.54860065
-4.1413364e-19
0.57980617
0
0.61349073
0
0.64948541
-1.0013356e-14
0.68644701
0
0.72295093
0
0.76074876
-1.7911216e-14
0.80424006
0.089457296
0
0.084114307
-0.00027171582
0.078563206
-0.00051244739
0.072342403
-0.00069535529
0.065057629
-0.00079881417
0.057361248
-0.00080595609
0.048360353
-0.00070093768
0.03760005
-0.00051050418
0.027081623
-0.00030053361
0.018423891
-0.00011543374
0.010004764
0
0.00028333352
0.094151851
0.0005615105
0.099425946
0.00081661898
0.10434326
0.001018385
0.10746503
0.0011402108
0.10969698
0.0011701124
0.11175506
0.0010899705
0.11287804
0.00087582086
0.11232892
0.00051472186
0.11046444
0
0.11624814
0
0.12759543
5.9553277e-15
0.13954613
-5.7447095e-15
0.15182386
1.6627578e-18
0.16506379
5.3392555e-15
0.17969631
5.1474771e-15
0.19543726
4.9636494e-15
0.21190587
0
0.22911223
0
0.24733105
0
0.26685038
0
0.28763056
8.2365641e-15
0.3092909
7.926948e-15
0.33157219
0
0.35444089
-7.3434481e-15
0.37752263
0
0.40028767
0
0.42281533
0
0.44565191
0
0.46903921
-1.2111797e-14
0.49351934
0
0.52014523
0
0.54915725
-3.4533201e-19
0.58036185
0
0.61393057
-1.6879289e-19
0.649723
0
0.68633134
-1.8594033e-14
0.72246523
0
0.75990765
9.3750873e-19
0.80313599
0.094350175
0
0.089457412
-0.00027841496
0.084000993
-0.00052974212
0.078318686
-0.0007314912
0.071973209
-0.00085801893
0.064655452
-0.00089323964
0.057019832
-0.00082641345
0.048061429
-0.00065172079
0.037357681
-0.00041155905
0.026984361
-0.0001787284
0.0184763
0
0.0091325502
0
0.00028812646
0.099909132
0.00057196937
0.10516091
0.00082466742
0.10871418
0.001019144
0.11145641
0.0011408716
0.1140787
0.0011712727
0.11580606
0.0010851448
0.11588368
0.00086687236
0.11473473
0.0005083771
0.11266055
0
0.11928395
0
0.13054644
0
0.14204702
-5.5406815e-15
0.15444639
0
0.1682194
1.8986899e-18
0.18308976
-9.9321083e-15
0.19862772
-4.7852858e-15
0.21482123
9.2259535e-15
0.23192718
-8.8891983e-15
0.25023819
8.5602123e-15
0.26988975
0
0.29068926
0
0.31225446
0
0.33441808
0
0.35712299
0
0.37996148
0
0.40237322
0
0.42447146
0
0.44686466
0
0.46988355
0
0.4940851
-1.1232138e-14
0.52060427
2.1625366e-14
0.54960003
-1.0410995e-14
0.58075374
-1.0025454e-14
0.61420863
-3.1249275e-20
0.64974122
0
0.68608381
0
0.72186167
0
0.75899704
0.0073383105
0.7945912
0.10012422
0
0.094369802
-0.0002833943
0.089306582
-0.00054277313
0.083716535
-0.00075646491
0.077928433
-0.0009030531
0.071479608
-0.00095928768
0.064153958
-0.00091578252
0.056616552
-0.00076897906
0.047723157
-0.0005254595
0.037084552
-0.00024404731
0.026868474
0
0.017035487
0
0.009773156
0
0.00029342955
0.10567107
0.00057753664
0.10962238
0.00082538568
0.11284765
0.0010198055
0.11600012
0.0011419061
0.11830718
0.0011659038
0.1189973
0.0010738274
0.11850686
0.00085627205
0.11720729
0.00050263516
0.11509859
0
0.12205535
0
0.13287978
0
0.1444836
-5.346074e-15
0.15743498
1.9435785e-18
0.17146669
4.9681957e-15
0.18611408
4.7878463e-15
0.2013464
1.2432592e-18
0.21741096
0
0.23457753
0
0.25302368
-2.2455095e-18
0.27274873
0
0.29353139
7.6514767e-15
0.31503774
-1.7708939e-18
0.33708651
0
0.35962378
-1.3432931e-18
0.38220721
6.5581814e-15
0.40427117
-6.3096312e-15
0.42594395
0
0.4479204
0
0.47058241
0
0.49453569
0
0.52094129
-1.0419525e-14
0.54992089
0
0.58100182
0
0.61424962
5.7955184e-20
0.64961709
-8.9646105e-15
0.68567774
0
0.72114958
0.014410224
0.75098023
0.0066730576
0.78660834
0.10587273
0
0.10012936
-0.00028819991
0.094209153
-0.00055244379
0.088957695
-0.00077506961
0.083256246
-0.00093427909
0.077389617
-0.0010101917
0.070861888
-0.00098332646
0.063558057
-0.00085195103
0.056150054
-0.00062057323
0.047342607
-0.00031164212
0.036778305
0
0.024854501
0
0.018268568
0
0.010453895
-1.3393237e-14
0.00029621868
0.11018584
0.00057807743
0.11386306
0.0008259609
0.11751252
0.0010206073
0.12037122
0.0011365015
0.12165915
0.001153527
0.12181015
0.0010607534
0.12122983
0.00084656432
0.11992954
0.00049650343
0.11727049
0
0.12423705
0
0.1351417
0
0.14730292
-1.9722753e-18
0.16052968
4.9700947e-15
0.17433024
0
0.18864812
-4.6187059e-15
0.20373111
4.4512574e-15
0.21983183
0
0.23711331
0
0.25565414
0
0.2754358
0
0.296218
1.8438998e-18
0.31765061
0
0.33958349
0
0.36193981
-1.2430052e-18
0.38427395
-6.319611e-15
0.40599623
-6.0790867e-15
0.42725232
0
0.44882227
0
0.47116322
0
0.49486726
0
0.52118099
-1.0040598e-14
0.55011406
9.6685364e-15
0.58104948
-9.3117568e-15
0.6141423
1.7316307e-19
0.64931087
1.7275595e-14
0.68509406
0.021286625
0.71354724
0.013105218
0.74349306
0.0059641116
0.77923756
0.11040147
0
0.10583531
-0.00029333777
0.0999219
-0.0005617732
0.093812035
-0.00078883936
0.088410622
-0.00095726549
0.082616233
-0.0010455236
0.076701386
-0.0010360725
0.070122802
-0.00091455262
0.062867083