/*--------------------------------*- C++ -*----------------------------------*\
| =========                 |                                                 |
| \\      /  F ield         | OpenFOAM: The Open Source CFD Toolbox           |
|  \\    /   O peration     | Version:  v2012                                 |
|   \\  /    A nd           | Website:  www.openfoam.com                      |
|    \\/     M anipulation  |                                                 |
\*---------------------------------------------------------------------------*/
FoamFile
{
    version     2.0;
    format      ascii;
    class       volScalarField;
    location    "49.8824687878157391";
    object      p;
}
// * * * * * * * * * * * * * * * * * * * * * * * * * * * * * * * * * * * * * //

dimensions      [0 2 -2 0 0 0 0];


internalField   nonuniform List<scalar> 
9200
(
-0.0025062035
-0.0027260597
-0.0059988225
-0.0028615092
-0.0067562109
-0.010522254
-0.0031710136
-0.0074251984
-0.011797416
-0.014101786
-0.0033662497
-0.0086164387
-0.013111604
-0.01592679
-0.016733196
-0.0035409153
-0.0097488389
-0.015249555
-0.018014827
-0.019122818
-0.018142327
-0.0035690532
-0.010914267
-0.017408763
-0.021299424
-0.022063956
-0.021076798
-0.018223563
-0.0034690657
-0.011842176
-0.019622022
-0.024833694
-0.02663941
-0.024918861
-0.021522026
-0.016816831
-0.0032122285
-0.01245735
-0.021487817
-0.028593932
-0.031833406
-0.030875716
-0.026272046
-0.020295762
-0.013719107
-0.0028267189
-0.012616449
-0.022813094
-0.032084278
-0.037597737
-0.037970619
-0.033587132
-0.025854856
-0.017516548
-0.0091883063
-0.0023388949
-0.012240774
-0.023341496
-0.034988262
-0.043397453
-0.046178791
-0.042657016
-0.034350374
-0.023481403
-0.0130715
-0.0033666344
-0.0017960499
-0.011263993
-0.022890271
-0.036923082
-0.048831153
-0.055010487
-0.053561556
-0.045241324
-0.032783928
-0.019084943
-0.0070871697
0.0035246881
-0.0012428671
-0.0096550647
-0.021325195
-0.037556199
-0.053415866
-0.064057649
-0.065954534
-0.058819571
-0.04505007
-0.028695434
-0.012775691
0.00023243525
0.01120419
-0.0007003029
-0.007391302
-0.018583273
-0.036611007
-0.05667579
-0.072808532
-0.079543027
-0.074976198
-0.060892835
-0.041618576
-0.022096869
-0.0048701234
0.0085213125
0.019357088
-0.00025336238
-0.0044574165
-0.014688387
-0.033886616
-0.058180273
-0.080695207
-0.093910505
-0.093702106
-0.080541049
-0.058847043
-0.034875616
-0.013267356
0.0042783664
0.017401849
0.027684176
0.00026590895
-0.00073420154
-0.0097653229
-0.02928737
-0.057569404
-0.087151344
-0.10852404
-0.11484244
-0.10439677
-0.080998073
-0.052235106
-0.024969113
-0.0026554272
0.014225163
0.026505556
0.035921189
0.0010851233
0.0037258843
-0.0040717533
-0.022823415
-0.054611083
-0.091630034
-0.1228041
-0.13808835
-0.13289534
-0.10894658
-0.075171991
-0.041034289
-0.01244167
0.009116677
0.024501608
0.03550257
0.043847672
0.0012629152
0.0087681889
0.0019152603
-0.014629243
-0.049224779
-0.093672696
-0.13612007
-0.163021
-0.16633997
-0.14406431
-0.10501353
-0.062679114
-0.02596015
0.0018386819
0.021389575
0.034681866
0.044127716
0.051298493
0.0003304188
0.01327383
0.008004175
-0.0049008085
-0.041521873
-0.092981371
-0.1478688
-0.189077
-0.20485958
-0.1878672
-0.14411705
-0.091708703
-0.044446257
-0.0082122777
0.016915418
0.033562094
0.044418553
0.052185617
0.058162633
-0.0021241163
0.016801592
0.014352944
0.0060099269
-0.031790005
-0.089473258
-0.15755168
-0.21564646
-0.2484091
-0.24183717
-0.19535349
-0.13081327
-0.069629705
-0.022076629
0.010797822
0.031905843
0.045146122
0.05345618
0.059548831
0.06437905
-0.0056730307
0.018922916
0.020581551
0.01783669
-0.020473969
-0.083322235
-0.16474205
-0.24209756
-0.29667783
-0.30754361
-0.26203634
-0.18374511
-0.10415278
-0.041088875
0.0023096002
0.029743965
0.046098548
0.055790176
0.061631612
0.066149854
0.069927239
-0.011405948
0.019232444
0.026111581
0.030160089
-0.0081471792
-0.074976501
-0.16934963
-0.26807479
-0.34900668
-0.38693402
-0.34807711
-0.25536038
-0.15155797
-0.067379993
-0.009355526
0.02667251
0.0475693
0.05899212
0.065277144
0.068862284
0.07197055
0.074818736
-0.01801601
0.018066885
0.030340029
0.042470068
0.0045512488
-0.065094429
-0.17117821
-0.29337256
-0.40522567
-0.48191971
-0.46037523
-0.34984672
-0.21688434
-0.10384683
-0.025602906
0.02239929
0.049422628
0.063552174
0.070290856
0.073505871
0.075130897
0.077029996
0.079087578
-0.026458628
0.013918204
0.032981519
0.054363409
0.016876115
-0.054588139
-0.17039155
-0.31671871
-0.46275061
-0.59327269
-0.60749394
-0.48103017
-0.30736026
-0.15479992
-0.048334354
0.016205934
0.051773256
0.069520738
0.077291963
0.07987143
0.080466192
0.080467966
0.081373746
0.082783117
-0.036042797
0.0046691705
0.033040736
0.064980823
0.028042342
-0.044459434
-0.16745718
-0.33751173
-0.51983589
-0.71471587
-0.79549781
-0.66185202
-0.43597015
-0.22661613
-0.08035216
0.0071608532
0.054421923
0.077285181
0.08643421
0.088647858
0.087741741
0.086213174
0.084937137
0.085064042
0.085963132
-0.043715585
-0.0074926272
0.031319001
0.073698416
0.03720778
-0.03563544
-0.16296712
-0.35410517
-0.57380781
-0.84583384
-1.0293476
-0.90099367
-0.61862214
-0.3314268
-0.12605251
-0.0061508052
0.057139941
0.086964889
0.098253127
0.10002424
0.097668481
0.093999014
0.090844391
0.088621934
0.088172337
0.088689196
-0.050314915
-0.01985829
0.027643162
0.079591484
0.043495939
-0.028932631
-0.15766562
-0.36516832
-0.62350096
-0.97441211
-1.3077288
-1.2108015
-0.86398849
-0.48218687
-0.19409358
-0.02624353
0.059404108
0.098738002
0.11301651
0.11458674
0.1104213
0.10452415
0.098795521
0.094481613
0.091615955
0.090773176
0.091022756
-0.056192896
-0.031965724
0.021209179
0.081700606
0.046054655
-0.024987336
-0.15224792
-0.37047637
-0.66601502
-1.1048483
-1.5985098
-1.5851047
-1.1864906
-0.68497069
-0.29122413
-0.05792666
0.059992672
0.11253934
0.1310722
0.13262858
0.12657141
0.1179182
0.10945383
0.10231131
0.097256629
0.094015168
0.092940213
0.093022793
-0.060876775
-0.043557716
0.013214403
0.079170622
0.044235104
-0.024278596
-0.14720492
-0.37019014
-0.69517837
-1.22607
-1.8750664
-2.0298411
-1.6060352
-0.96266576
-0.42194333
-0.10440863
0.056466992
0.12784933
0.15250813
0.15451169
0.14636237
0.13469837
0.1228871
0.11272562
0.10473503
0.099301675
0.095913019
0.094743217
0.094744021
-0.063657805
-0.054182059
0.0041091808
0.071745455
0.03766065
-0.027128827
-0.14293184
-0.36439875
-0.71142575
-1.319918
-2.1008265
-2.455978
-2.0979379
-1.335511
-0.60579794
-0.16961626
0.046952089
0.14340141
0.17708185
0.18030328
0.17008474
0.15502135
0.13954094
0.12572479
0.11461035
0.10625094
0.10074281
0.097396988
0.096246432
0.096236037
-0.063995696
-0.063456867
-0.0061579507
0.060023546
0.026123165
-0.033608944
-0.13959199
-0.35190239
-0.71687447
-1.3651348
-2.2560715
-2.8157166
-2.5590742
-1.7248129
-0.84347902
-0.26202662
0.028594765
0.15780037
0.20398557
0.20979067
0.19770625
0.17907305
0.15947457
0.14167886
0.12681653
0.1153651
0.10703103
0.10169625
0.098546671
0.097507477
0.097542806
-0.062115575
-0.071597277
-0.017964386
0.045164106
0.010950601
-0.04364927
-0.13734339
-0.33193947
-0.70695176
-1.3672554
-2.3251825
-3.0697908
-2.9361984
-2.0897246
-1.100015
-0.3821694
-0.0030229327
0.16862749
0.23194799
0.2422667
0.22893451
0.20669906
0.18276705
0.16055512
0.14165296
0.12651708
0.11522405
0.10723081
0.102266
0.099432757
0.098577084
0.098702646
-0.058155624
-0.078523553
-0.03261161
0.028300796
-0.0096798671
-0.056987379
-0.13664469
-0.31029464
-0.68222124
-1.3354836
-2.305805
-3.1926723
-3.1949944
-2.384286
-1.344182
-0.52148978
-0.050446918
0.17257018
0.25871368
0.27649559
0.26302378
0.23750648
0.20915474
0.18234188
0.15900878
0.13994449
0.12514084
0.11439453
0.10698728
0.10254334
0.10011684
0.099499066
0.099748383
-0.052263377
-0.083043849
-0.048516976
0.0068027818
-0.032872165
-0.073491136
-0.13729792
-0.29223581
-0.64336248
-1.2642829
-2.2128625
-3.1821737
-3.3171063
-2.5830636
-1.5518915
-0.66340331
-0.11468472
0.16602268
0.2810653
0.31039261
0.29874447
0.27068994
0.23816433
0.20669454
0.17880444
0.15547504
0.13696765
0.12295983
0.1130559
0.10641885
0.10260671
0.10065167
0.10031069
0.10070772
-0.044582645
-0.084658136
-0.063808345
-0.017978581
-0.06120469
-0.091963137
-0.13886457
-0.27566735
-0.59114879
-1.1665006
-2.0694923
-3.0547162
-3.3029762
-2.6803869
-1.7179052
-0.79963954
-0.19562039
0.14394999
0.29512325
0.34088118
0.33421695
0.30502789
0.26895809
0.23309405
0.20064666
0.17298528
0.150487
0.1330715
0.1202046
0.11136066
0.10562595
0.10252253
0.10108162
0.10104311
0.10160366
-0.035435293
-0.082893789
-0.077532226
-0.046550442
-0.093116396
-0.11384449
-0.14038925
-0.25872645
-0.53693597
-1.0580138
-1.8932373
-2.8407365
-3.1711969
-2.6829343
-1.8263833
-0.93369067
-0.29427432
0.10107796
0.29579349
0.36417384
0.36678426
0.33881868
0.30036611
0.26071119
0.22400735
0.19206264
0.16555241
0.14448082
0.12854535
0.1170678
0.10943637
0.10469251
0.10234599
0.10144343
0.10172197
0.10245501
-0.02518729
-0.078556283
-0.089631487
-0.07734786
-0.12973923
-0.1378509
-0.1420683
-0.24132461
-0.48795548
-0.94595808
-1.698409
-2.5719923
-2.9546861
-2.6068827
-1.8683523
-1.0679411
-0.41391818
0.032571232
0.27672749
0.37598267
0.39305871
0.36988372
0.33086255
0.28846984
0.24810414
0.21220187
0.18175608
0.15703474
0.1378089
0.12362617
0.11370809
0.1073882
0.10368744
0.1021222
0.10176698
0.10236798
0.10327687
-0.013626751
-0.072991632
-0.097956794
-0.10925144
-0.16888853
-0.16554232
-0.14222613
-0.22027576
-0.44173514
-0.83215782
-1.4985945
-2.282826
-2.6882357
-2.4759319
-1.8652421
-1.197633
-0.55673204
-0.066932881
0.23140659
0.37118178
0.40936663
0.39551139
0.35863423
0.31504038
0.27197984
0.23269588
0.19863934
0.17034768
0.14784722
0.13075353
0.11850595
0.11025458
0.1053015
0.10266635
0.10188731
0.10207612
0.10299758
0.10408114
-0.0039597607
-0.066865635
-0.099503129
-0.14031853
-0.20930075
-0.19585719
-0.14393825
-0.1956822
-0.38591721
-0.72120733
-1.303454
-1.9940584
-2.4001067
-2.3113048
-1.8351683
-1.3200963
-0.7225985
-0.20334823
0.15291599
0.34384891
0.41195319
0.41264799
0.38162159
0.33892122
0.29451068
0.25272195
0.21558771
0.18402229
0.15830758
0.13831382
0.12353944
0.11333887
0.10681079
0.10324432
0.10167324
0.10166975
0.10238944
0.10362351
0.10487692
0.005339722
-0.060310692
-0.094495629
-0.16887386
-0.24909136
-0.22705649
-0.14731406
-0.17406309
-0.32760533
-0.59750363
-1.1212362
-1.7248654
-2.1164768
-2.1279309
-1.7883868
-1.4306724
-0.90939967
-0.38181303
0.032730996
0.28738428
0.39674441
0.41832612
0.39762606
0.35853948
0.31450854
0.27136509
0.23192447
0.19754642
0.16886119
0.14599181
0.12868734
0.11634453
0.10824725
0.10345841
0.10126981
0.10074207
0.10149118
0.10272105
0.10425535
0.10567107
-0.052371487
0.014399569
-0.085095219
-0.1934794
-0.28579193
-0.25759327
-0.15193134
-0.15615374
-0.2724507
-0.48243306
-0.92778546
-1.4806579
-1.8585889
-1.9429155
-1.7352633
-1.5259183
-1.1136207
-0.60557397
-0.13919595
0.19370849
0.35913516
0.40957383
0.40444417
0.3723249
0.33075878
0.28771396
0.24693485
0.21039118
0.17910093
0.15352834
0.13367175
0.11916504
0.10930866
0.10332671
0.10026055
0.099418387
0.09989827
0.10136763
0.10308123
0.10489993
0.1064685
-0.074680944
-0.042517716
0.022801108
-0.21288092
-0.31679271
-0.28449874
-0.15809279
-0.13868161
-0.21925806
-0.37726104
-0.7467754
-1.2328938
-1.6219872
-1.7689985
-1.6825142
-1.6105739
-1.3336046
-0.87801284
-0.3735686
0.052343018
0.29335368
0.38268301
0.39977027
0.37867737
0.34204235
0.30082065
0.25992037
0.22201888
0.18863763
0.16061726
0.13829887
0.12155599
0.10990087
0.10254059
0.098650549
0.09726457
0.097719698
0.099160018
0.10131024
0.10347705
0.10556193
0.1072725
-0.22608692
-0.06476104
-0.031343983
0.030291676
-0.34012067
-0.30580402
-0.16556673
-0.12188341
-0.16880873
-0.28051304
-0.57759239
-1.001463
-1.3747525
-1.6014259
-1.6331544
-1.6852114
-1.5753151
-1.2041228
-0.68225195
-0.14982419
0.19298328
0.33331435
0.38171519
0.37616385
0.34742477
0.30987204
0.27021434
0.23193884
0.19709219
0.1669983
0.14235329
0.12338067
0.10980656
0.10101443
0.096123419
0.094273386
0.094504589
0.096194307
0.098539403
0.10132617
0.10391298
0.10624435
0.10808503
-0.35465964
-0.23309402
-0.055390167
-0.019499629
0.036651867
-0.32044277
-0.17266988
-0.10786564
-0.12147445
-0.19408708
-0.42468343
-0.78203578
-1.1458192
-1.4128316
-1.5789483
-1.7549405
-1.8226204
-1.5804326
-1.0775391
-0.42490742
0.04755023
0.27717866
0.34907304
0.36351087
0.34593048
0.31425578
0.27733468
0.23974841
0.20420764
0.17245243
0.14568982
0.12450034
0.10893533
0.09855019
0.092597375
0.090119037
0.090233994
0.09200357
0.094855163
0.098043469
0.10141935
0.10439149
0.10694877
0.10890703
-0.32762812
-0.36024653
-0.23429387
-0.046453066
-0.0079221256
0.041665556
-0.17754238
-0.093181002
-0.076076302
-0.11702938
-0.28909725
-0.58570792
-0.92266367
-1.2284184
-1.4954736
-1.8272716
-2.0550154
-1.9829914
-1.560742
-0.78181457
-0.14851585
0.17656547
0.30184178
0.34016322
0.33702566
0.31345929
0.28091456
0.24518973
0.20974015
0.17687071
0.14822786
0.12486895
0.10720917
0.095092
0.087886322
0.084718537
0.084571376
0.08655791
0.089775213
0.093708964
0.097675259
0.10159131
0.1049134
0.10767557
0.1097386
-0.17918432
-0.32734044
-0.35703577
-0.23057548
-0.037614472
0.0022923897
0.04520731
-0.076474184
-0.034384244
-0.048522057
-0.17106976
-0.41144273
-0.71665818
-1.0363298
-1.3860706
-1.8409683
-2.2829717
-2.3875132
-2.1095166
-1.2228734
-0.40215359
0.048299135
0.23553644
0.30543312
0.32012086
0.30711813
0.28065057
0.24806253
0.21362593
0.18021911
0.1499975
0.12451829
0.1046608
0.090605156
0.081955461
0.077891405
0.077427489
0.079509176
0.083259715
0.087825682
0.092757506
0.09743484
0.10184159
0.10547807
0.10842391
0.11057915
-0.05916306
-0.1769998
-0.31978401
-0.34600526
-0.22279157
-0.028879297
0.010656674
0.047259422
0.0023585474
0.011620813
-0.070177201
-0.26051845
-0.52996478
-0.8493526
-1.2455461
-1.7879042
-2.4891688
-2.8143936
-2.6902367
-1.7346279
-0.71067868
-0.10975203
0.1510325
0.25849761
0.2948929
0.29493461
0.27636648
0.24827146
0.21585312
0.18257356
0.15112029
0.1235958
0.10140836
0.085179741
0.074796583
0.069609968
0.068620919
0.070757661
0.074948621
0.08034498
0.086155073
0.091998751
0.097319801
0.1021678
0.10608334
0.10919215
0.1114276
0.035456847
-0.041426303
-0.1704951
-0.30567386
-0.32831788
-0.21193195
-0.020591075
0.01711569
0.047908147
0.063723121
0.014415763
-0.13271204
-0.36562147
-0.67189212
-1.0932017
-1.716404
-2.5846177
-3.2818187
-3.2959146
-2.3040244
-1.0662742
-0.29605578
0.04907273
0.19963284
0.26119519
0.27678802
0.26794565
0.24580171
0.21648571
0.18409783
0.15182348
0.12235182
0.097690897
0.078993293
0.066536932
0.059879345
0.058123356
0.060121236
0.064728077
0.07089556
0.07781193
0.084758397
0.091427402
0.097325236
0.10256546
0.10672621
0.10997879
0.11228268
0.10831847
0.065553134
-0.02342666
-0.15956469
-0.2859427
-0.30536034
-0.19896997
-0.013058305
0.021707556
0.04728168
0.084182016
-0.026882871
-0.22433743
-0.50924462
-0.93814587
-1.6101499
-2.6321592
-3.5900178
-3.9982754
-2.8787825
-1.4607215
-0.50689497
-0.068308627
0.12954875
0.21929452
0.25260683
0.25534883
0.24062553
0.21563878
0.18500592
0.15241941
0.12114206
0.093857996
0.072348561
0.057386314
0.04884197
0.045935151
0.047538244
0.052406973
0.059347198
0.067346221
0.075652799
0.083626719
0.091035245
0.097444126
0.10302926
0.10740418
0.11078335
0.11314335
0.14081175
0.14608273
0.092355496
-0.0050378361
-0.14466041
-0.26162994
-0.27860943
-0.18494026
-0.0067423281
0.024505556
0.045538234
0.058953428
-0.10579394
-0.36463947
-0.78758442
-1.4842085
-2.6085617
-3.8609318
-4.6226094
-3.5878774
-1.875607
-0.73461752
-0.19916935
0.049784735
0.16957056
0.22256784
0.23845511
0.23274105
0.2133799
0.18554444
0.15327186
0.12041033
0.090365049
0.065660539
0.047682441
0.036717123
0.03219888
0.033030356
0.037898744
0.045489192
0.054608744
0.064288533
0.073854093
0.08274859
0.090812029
0.097669093
0.10355548
0.10811616
0.11160493
0.11400839
0.12728025
0.18626676
0.17726326
0.1161956
0.013503054
-0.12651596
-0.23385329
-0.2495262
-0.17049003
-0.0019100643
0.025788016
0.042860311
-0.0087088183
-0.23987381
-0.64549576
-1.349049
-2.4978521
-4.0417792
-5.2079725
-4.3592886
-2.4110214
-0.97620129
-0.33787893
-0.038535605
0.11309377
0.18667106
0.21730867
0.22199666
0.20975654
0.18590147
0.15477272
0.12065432
0.087759919
0.059451145
0.037872018
0.023849579
0.017122558
0.016701478
0.021217775
0.029224933
0.039372589
0.050502591
0.061703738
0.072398699
0.082110356
0.090748433
0.097993583
0.1041427
0.1088603
0.11243835
0.1149192
0.06920779
0.18113196
0.22165724
0.20277045
0.13712024
0.031852534
-0.10612235
-0.2036765
-0.21930905
-0.15556089
0.0021079243
0.02631354
0.039346158
-0.13524791
-0.51477887
-1.2032401
-2.3188064
-4.1183016
-5.6885966
-5.1367515
-3.0916392
-1.2821582
-0.48653798
-0.13142359
0.050181031
0.14564333
0.19155043
0.20829703
0.20464295
0.18622691
0.15727141
0.12240941
0.086651752
0.054335686
0.028505993
0.010685883
0.0010338877
-0.0012630494
0.0024304372
0.010535553
0.02152253
0.034040555
0.046998334
0.059570641
0.071270165
0.081696505
0.090835512
0.098411137
0.10478716
0.10962948
0.11332714
0.11589705
-0.04939934
0.13123242
0.22219421
0.24899547
0.22310512
0.15512159
0.049613339
-0.084646127
-0.17195832
-0.18888613
-0.14027336
0.0066005372
0.026393834
0.035443161
-0.39793326
-1.0460491
-2.1301373
-4.0911666
-6.0142002
-5.8703946
-3.8087826
-1.7043269
-0.66400954
-0.23159549
-0.016114872
0.098916834
0.16162068
0.19105976
0.19782568
0.18646351
0.16105122
0.1261799
0.087696249
0.050998365
0.020224545
-0.0022299856
-0.015648313
-0.020571374
-0.018315674
-0.010548896
0.0010043628
0.014779235
0.029471518
0.044074727
0.057871176
0.070453507
0.081492215
0.091049622
0.098915234
0.10547619
0.11048784
0.11429598
0.11691564
-0.29701645
0.020693827
0.17862788
0.25283069
0.26920841
0.23874667
0.17025704
0.066424258
-0.063475166
-0.13946086
-0.15905631
-0.12663738
0.011443484
0.026072472
0.031171037
-0.89129658
-1.9413488
-3.9779827
-6.1484283
-6.4264031
-4.5211704
-2.1690355
-0.93024175
-0.34424775
-0.089352418
0.049338274
0.12607106
0.17043362
0.1887152
0.18636945
0.16623147
0.13238175
0.091494427
0.050185538
0.013736414
-0.014274161
-0.032418781
-0.040853776
-0.040778259
-0.033927008
-0.022191792
-0.0073796928
0.0089646035
0.025627944
0.041711834
0.056588583
0.069923136
0.081479239
0.091367413
0.099496114
0.10630998
0.11146734
0.11531304
0.11797534
-0.75392539
-0.21079684
0.075227029
0.21401738
0.2746766
0.28339863
0.25018874
0.18263135
0.081802796
-0.043870874
-0.10661954
-0.13305575
-0.11296775
0.01494947
0.025359667
0.026831523
-1.7516535
-3.7891719
-6.0809624
-6.7510845
-5.129477
-2.6437743
-1.2287331
-0.51907787
-0.16792887
-0.0084485518
0.087830968
0.14436151
0.1770931
0.18556064
0.17267156
0.14162075
0.09862983
0.052632775
0.0098064225
-0.024760461
-0.048705091
-0.061668194
-0.064651462
-0.059415075
-0.048014499
-0.032485625
-0.014645546
0.0040462066
0.02249623
0.03989336
0.055684439
0.069633071
0.08162659
0.091829459
0.10032307
0.10732116
0.11249968
0.11637924
0.11907618
-1.5723738
-0.63362897
-0.14104231
0.11665534
0.23911415
0.28921534
0.2924329
0.25786596
0.19224398
0.095688449
-0.026908154
-0.078294738
-0.10832622
-0.09781228
0.017118973
0.024432015
0.022683873
-3.5327172
-5.8272032
-6.8120206
-5.5413755
-3.0942903
-1.5437173
-0.71703425
-0.2930198
-0.06659915
0.039189643
0.11563573
0.16087968
0.18331163
0.18032221
0.1537627
0.11009318
0.059224966
0.0091769802
-0.032958639
-0.063885444
-0.082521089
-0.089572256
-0.086779075
-0.07634256
-0.06053822
-0.041452356
-0.02082421
1.5522418e-05
0.020068365
0.038564269
0.055082868
0.069548627
0.08192248
0.092694175
0.10141013
0.1083937
0.11358852
0.11749396
0.12021809
-3.2222718
-1.4015652
-0.53201322
-0.086145216
0.14641367
0.25554914
0.2976649
0.29719402
0.26236917
0.19963274
0.10745176
-0.014200936
-0.053905759
-0.085563602
-0.08108425
0.018257856
0.023429453
0.019038491
-5.4210617
-6.6058326
-5.7189748
-3.4968535
-1.8572966
-0.92619455
-0.43454546
-0.16469047
-0.0064316361
0.074696722
0.142221
0.17810232
0.18810743
0.16890928
0.12584625
0.069900397
0.012643585
-0.038162804
-0.077311003
-0.10288655
-0.1151426
-0.11574209
-0.10701612
-0.091478762
-0.0715057
-0.049116599
-0.025912391
-0.0031320553
0.018272251
0.037604915
0.054731752
0.069709141
0.082857281
0.093918009
0.10256044
0.10953313
0.11473153
0.11865672
0.12140076
-4.9079073
-2.8782076
-1.2399398
-0.44827292
-0.044878302
0.16630195
0.26495353
0.30150633
0.29883028
0.26436537
0.20420014
0.11504739
-0.0027743665
-0.033962361
-0.065060614
-0.064896196
0.018808473
0.022475199
0.016172631
-6.1715546
-5.647483
-3.7864763
-2.1422202
-1.1380639
-0.58479054
-0.27441764
-0.092439782
0.037549406
0.11152729
0.17064768
0.19566245
0.18617946
0.14605246
0.085766701
0.020705242
-0.039604118
-0.088357343
-0.12223267
-0.14095222
-0.14600773
-0.13984392
-0.12521917
-0.10480638
-0.080928711
-0.055455421
-0.029899399
-0.0054949025
0.016927709
0.036944565
0.054724055
0.070815603
0.084309068
0.095234774
0.10378427
0.11073593
0.11592808
0.11986665
0.12262371
-5.5753269
-4.3381645
-2.5270102
-1.0927646
-0.38065623
-0.014982957
0.1782622
0.26907796
0.30172888
0.29729511
0.26313173
0.20568829
0.1178243
0.010952097
-0.01888684
-0.046020038
-0.049049607
0.018890856
0.021745422
0.013991096
-5.344563
-3.8990729
-2.335245
-1.3371832
-0.74044722
-0.39166531
-0.18700079
-0.044933206
0.082825567
0.15312076
0.20185428
0.2064197
0.17032054
0.10773419
0.034160525
-0.036792762
-0.096351963
-0.14005686
-0.16660672
-0.17728646
-0.17462735
-0.16164796
-0.14133315
-0.1163162
-0.088755697
-0.060436635
-0.032911451
-0.0073204194
0.015914858
0.036753182
0.056106767
0.072536958
0.085832584
0.096598222
0.10508492
0.11200037
0.11717665
0.1211227
0.12388624
-4.8699146
-4.8944567
-3.7543878
-2.2011574
-0.96118953
-0.32688302
0.0057466983
0.18402387
0.26853328
0.29767378
0.29258933
0.26237916
0.20216175
0.12017312
0.025554946
-0.0061464799
-0.029825706
-0.034068868
0.018343899
0.021250851
0.011834474
-3.8225965
-2.4354887
-1.502364
-0.89136167
-0.5169455
-0.28914084
-0.13712523
0.0064104291
0.13302629
0.20190564
0.22617287
0.20041485
0.1347305
0.053443011
-0.028938911
-0.10090249
-0.15584156
-0.19175191
-0.20932451
-0.21118984
-0.20065345
-0.18104533
-0.15531817
-0.12591767
-0.094923805
-0.064219063
-0.035293679
-0.0087531173
0.015521878
0.038541901
0.058251116
0.074360987
0.087418282
0.098027323
0.1064555
0.11332472
0.11847553
0.12242359
0.12518762
-3.5803225
-4.3016445
-4.1836629
-3.2100414
-1.9076317
-0.84816452
-0.28521934
0.018837002
0.18414502
0.26273517
0.29030156
0.28834366
0.25492749
0.19803728
0.12145637
0.037593159
0.0052493221
-0.01627452
-0.02030722
0.01747299
0.020674425
0.009667419
-2.4581839
-1.6124142
-1.0235073
-0.64334337
-0.40278645
-0.24567461
-0.083433258
0.066681124
0.19556052
0.24542762
0.23154466
0.16877685
0.078281717
-0.015889327
-0.10126805
-0.16933805
-0.21606345
-0.24192338
-0.24940402
-0.24215438
-0.22390358
-0.19795485
-0.16703318
-0.13350739
-0.099629623
-0.067266366
-0.037241873
-0.009359039
0.017853536
0.041247491
0.060515534
0.076266595
0.089086959
0.099553931
0.10789216
0.11470714
0.11982262
0.12376785
0.12652711
-2.3715529
-3.2318585
-3.6917495
-3.5030466
-2.7128511
-1.6402918
-0.75314415
-0.25412873
0.025048193
0.17874516
0.25369875
0.28587863
0.28004184
0.24743011
0.19248407
0.12161351
0.047633015
0.015078381
-0.0049061631
-0.008497377
0.016989253
0.020009178
0.0076780886
-1.6536714
-1.1249501
-0.76011329
-0.52443044
-0.37542129
-0.19778153
-0.016470039
0.14574788
0.2650727
0.26983569
0.20459474
0.11024513
0.0024678967
-0.097587736
-0.17992436
-0.23946006
-0.27496152
-0.28921296
-0.28612346
-0.26989978
-0.24424424
-0.21217285
-0.17632294
-0.1393254
-0.10348201
-0.069837225
-0.038119199
-0.0062811906
0.021271403
0.044100117
0.062843605
0.078257092
0.090840382
0.10115749
0.10939177
0.11614491
0.12121587
0.12515434
0.12790366
-1.6325565
-2.2007374
-2.8267726
-3.0937269
-2.8817014
-2.2552966
-1.4009661
-0.67527097
-0.2322136
0.026222087
0.17057805
0.25029329
0.27760807
0.27109853
0.23820158
0.18589365
0.12065365
0.055874199
0.023371067
0.0048180877
0.0012790443
0.017162663
0.01934108
0.0060019353
-1.1868372
-0.8515372
-0.65018287
-0.51247665
-0.33151969
-0.12324903
0.069542729
0.24837477
0.30460555
0.25175933
0.14429048
0.027068524
-0.089369697
-0.18803969
-0.2615221
-0.30852947
-0.33067328
-0.33261141
-0.31907439
-0.29422883
-0.26139772
-0.22348091
-0.18347841
-0.14415706
-0.10681603
-0.071039477
-0.034105786
-0.0019512028
0.024877171
0.046990832
0.065257879
0.080329245
0.092673495
0.10282972
0.11095134
0.11763544
0.12265572
0.12658076
0.12931601
-1.2050118
-1.558393
-1.9771405
-2.4100296
-2.5483946
-2.3443374
-1.8568199
-1.2008767
-0.61060272
-0.21360406
0.025396947
0.17075511
0.24387801
0.26877497
0.26032525
0.22790994
0.17827004
0.11870384
0.062096531
0.03041358
0.012938893
0.0089252376
0.017742476
0.018697872
0.004667749
-0.91538219
-0.76862191
-0.63721991
-0.4874207
-0.27620397
-0.044980144
0.19802916
0.33062536
0.29883932
0.19085907
0.05366061
-0.076503607
-0.19286255
-0.28298403
-0.34247386
-0.37402225
-0.38179845
-0.37154189
-0.3479855
-0.31478154
-0.27507236
-0.23223087
-0.18949836
-0.14843046
-0.10841995
-0.065867508
-0.028660519
0.0026161521
0.02848468
0.049963945
0.067754561
0.082484354
0.094582243
0.10456832
0.11256833
0.11918002
0.12414001
0.1280442
0.13076266
-0.95093249
-1.1838095
-1.4424627
-1.7286915
-2.0171624
-2.0775198
-1.8992771
-1.5301148
-1.0343462
-0.54908491
-0.19515098
0.034104902
0.17037554
0.23711528
0.25796287
0.24828728
0.2164701
0.16982446
0.1157572
0.066141081
0.036105548
0.019561592
0.014767801
0.018465607
0.018115358
0.0036146703
-0.86142335
-0.76423583
-0.64644034
-0.44383358
-0.19313237
0.10260191
0.32543835
0.35866473
0.24235164
0.092056434
-0.061855123
-0.19527215
-0.30283389
-0.37779259
-0.41938792
-0.43401335
-0.42753692
-0.40564784
-0.37241118
-0.3311866
-0.28569514
-0.23967973
-0.19492466
-0.15054067
-0.10184047
-0.059080309
-0.022906922
0.0071285386
0.032168829
0.053013666
0.070335241
0.08471808
0.096562566
0.10637086
0.11424804
0.12077372
0.12566427
0.12954237
0.13224211
-0.91491641
-0.96401691
-1.1295533
-1.296407
-1.4784478
-1.655921
-1.6810526
-1.5400871
-1.2685535
-0.89200867
-0.48595264
-0.16981434
0.047811452
0.16952858
0.2283464
0.24586605
0.23500515
0.20416771
0.1605049
0.11195067
0.068396213
0.040447027
0.024792982
0.019144264
0.019146172
0.017575198
0.002825204
-0.86948487
-0.79282522
-0.61347
-0.32558372
0.0074616124
0.29140457
0.3949147
0.32625945
0.14107278
-0.037369589
-0.19629307
-0.32303597
-0.41348037
-0.46795521
-0.48961069
-0.48740702
-0.46743941
-0.4344013
-0.3919014
-0.34396676
-0.29483554
-0.24650906
-0.19767405
-0.1422851
-0.09345821
-0.051890293
-0.017281983
0.01170538
0.035919937
0.056145388
0.072996111
0.087026696
0.098612914
0.10824676
0.11598438
0.12240921
0.12722523
0.13107299
0.13375273
-0.94357338
-0.92115491
-0.95142976
-1.0453687
-1.1353849
-1.2418756
-1.3437123
-1.356739
-1.2564291
-1.0611032
-0.75731629
-0.4279286
-0.13103368
0.059722741
0.16669318
0.21836503
0.23250523
0.22079952
0.19119513
0.15088677
0.10738969
0.069150589
0.04355945
0.028736235
0.022308311
0.01967242
0.017029376
0.0022713751
-0.91851275
-0.75718598
-0.45267271
-0.081675785
0.2350512
0.41743944
0.39373635
0.23840305
0.0045917588
-0.19097206
-0.34260824
-0.45255644
-0.5189111
-0.54982416
-0.5516195
-0.53366011
-0.50091349
-0.45728629
-0.40710377
-0.35506884
-0.30334834
-0.25005956
-0.18744997
-0.13203653
-0.084550758
-0.044923835
-0.011608401
0.016332361
0.039748686
0.059355994
0.07573391
0.089410411
0.10075012
0.11018587
0.11776728
0.12408259
0.12881977
0.13263369
0.1352924
-1.0048739
-0.97215371
-0.89337816
-0.90538218
-0.93086747
-0.97054985
-1.0275664
-1.0864508
-1.0970572
-1.0325655
-0.87722245
-0.64969535
-0.35322006
-0.096858022
0.069434495
0.16250042
0.20714458
0.21821463
0.205908
0.17782869
0.14094145
0.10223196
0.068690039
0.045531794
0.031502091
0.02443891
0.019967268
0.0164486
0.0019071345
-0.86861621
-0.57156106
-0.1975996
0.14374343
0.40368461
0.45569277
0.32513106
0.10653608
-0.16041247
-0.36087362
-0.49224104
-0.57612962
-0.61412353
-0.62126905
-0.60475979
-0.57215094
-0.52741004
-0.47511911
-0.42041927
-0.36556403
-0.30789004
-0.23755079
-0.17504825
-0.12110448
-0.075987683
-0.037927791
-0.0059076849
0.021028282
0.043652751
0.062643478
0.078551806
0.0918956
0.10295932
0.11217479
0.11959163
0.12579046
0.13044485
0.13422139
0.13685851
-0.93980005
-1.0335759
-0.96070473
-0.82623742
-0.81300036
-0.7975242
-0.80965527
-0.83766341
-0.87593653
-0.88884538
-0.84207027
-0.73744112
-0.53650582
-0.28933221
-0.065428797
0.07661054
0.15692952
0.19500753
0.20323123
0.19061668
0.16428857
0.13085282
0.096592085
0.06727024
0.046449948
0.033203677
0.025717483
0.019988163
0.015795412
0.0016934393
-0.67381641
-0.32720734
0.0053908701
0.2988754
0.48426206
0.40862719
0.2041933
-0.062839497
-0.34625137
-0.53679273
-0.63553576
-0.68686836
-0.69605975
-0.68152168
-0.64843687
-0.6023416
-0.54798144
-0.49084652
-0.43319023
-0.37130806
-0.29276129
-0.22269887
-0.16175958
-0.11066682
-0.06741799
-0.030933764
-0.00015048986
0.025792512
0.047632083
0.066015165
0.081488934
0.094460532
0.10522326
0.1142077
0.1214535
0.12752965
0.13209655
0.1358322
0.13844916
-0.74259094
-0.95196824
-1.0099494
-0.90797408
-0.74316942
-0.69534753
-0.66364798
-0.65836451
-0.67257784
-0.7002167
-0.71301614
-0.70352793
-0.60423242
-0.44292479
-0.22878948
-0.039168433
0.081676662
0.15021255
0.18216026
0.18785132
0.17519156
0.15079596
0.12075976
0.090616061
0.065066646
0.046459861
0.034024055
0.026245975
0.019727231
0.01504337
0.0015887126
-0.44278992
-0.15569779
0.1116452
0.38177401
0.46544638
0.2954433
0.037936596
-0.26312702
-0.54258681
-0.70613424
-0.76328613
-0.78034572
-0.76375566
-0.73016535
-0.68219454
-0.62560754
-0.56623416
-0.50615108
-0.4403543
-0.35320909
-0.27515896
-0.20670026
-0.14914889
-0.10024841
-0.058886616
-0.023898791
0.0056648878
0.030628225
0.051699653
0.069526456
0.08451453
0.097084357
0.1075347
0.116281
0.12334962
0.12929488
0.13376933
0.13746327
0.14006466
-0.52997665