/*--------------------------------*- C++ -*----------------------------------*\
| =========                 |                                                 |
| \\      /  F ield         | OpenFOAM: The Open Source CFD Toolbox           |
|  \\    /   O peration     | Version:  v2012                                 |
|   \\  /    A nd           | Website:  www.openfoam.com                      |
|    \\/     M anipulation  |                                                 |
\*---------------------------------------------------------------------------*/
FoamFile
{
    version     2.0;
    format      ascii;
    class       surfaceScalarField;
    location    "49.8824687878157391";
    object      phi;
}
// * * * * * * * * * * * * * * * * * * * * * * * * * * * * * * * * * * * * * //

dimensions      [0 3 -1 0 0 0 0];
oriented        oriented;


internalField   nonuniform List<scalar> 
18180
(
0.0035049209
-3.6138551
0.0068607198
-3.3766763
0.0056809969
-3.6777486
0.0099042693
-3.1543795
0.011482269
-3.4360292
0.0063446546
-3.7400417
0.012685186
-2.9462752
0.017196177
-3.2091479
0.012897494
-3.4945384
0.0067451873
-3.7998613
0.015009557
-2.751489
0.023048077
-2.9970162
0.019637658
-3.2637734
0.013858783
-3.5512607
0.0066044063
-3.8563761
0.016791997
-2.5689491
0.028886591
-2.7988448
0.026836914
-3.0486
0.021476975
-3.3176802
0.013727883
-3.6049786
0.0059785595
-3.908902
0.017873458
-2.3976565
0.034591575
-2.6134482
0.034421141
-2.847719
0.029985347
-3.1001021
0.021685514
-3.3690799
0.012594416
-3.6551868
0.0048727041
-3.9572608
0.018158022
-2.2369066
0.039910029
-2.439336
0.04227694
-2.659838
0.039422401
-2.8971624
0.030979279
-3.1497659
0.020344184
-3.4174462
0.010458134
-3.7014946
0.0033398355
-4.0011365
0.017576208
-2.0861202
0.044555653
-2.2757038
0.050136322
-2.4833847
0.049760508
-2.7077348
0.04180367
-2.9456393
0.029831113
-3.1971607
0.017384646
-3.4627206
0.0074205346
-3.7437552
0.0014052584
-4.0403694
0.016135707
-1.9448732
0.04819664
-2.1218512
0.057637574
-2.3172941
0.060788512
-2.5299531
0.054279139
-2.7556883
0.0414264
-2.992818
0.026333954
-3.2422565
0.012906611
-3.5042837
0.003643983
-3.7816799
-0.00069964001
-4.0750272
0.013914598
-1.8127938
0.050485778
-1.9773173
0.064324901
-2.1606712
0.072166021
-2.3624534
0.068344545
-2.5776969
0.055446194
-2.8031007
0.037835915
-3.0382712
0.020533165
-3.2841584
0.0071634146
-3.541816
-0.00053574105
-3.8153255
-0.0027698132
-4.1050938
0.011083962
-1.68956
0.051079549
-1.8417126
0.069674107
-2.0129306
0.083409088
-2.2040808
0.083795486
-2.4100345
0.072055482
-2.6258068
0.052417314
-2.8496397
0.030920238
-3.0811923
0.012706923
-3.3221449
0.00057620476
-3.5748757
-0.0049778811
-3.8443153
-0.0047814141
-4.1307878
0.0079305127
-1.5748799
0.049647077
-1.7147177
0.0731205
-1.8736224
0.093914546
-2.0540534
0.10025488
-2.2512855
0.091292467
-2.4591691
0.070511194
-2.673896
0.044777126
-2.8940226
0.020914145
-3.1201153
0.0033940422
-3.3554685
-0.0063901821
-3.6033397
-0.0092248194
-3.8687912
-0.0065948971
-4.1522555
0.0048266565
-1.4684608
0.045861534
-1.5960381
0.074089216
-1.7424144
0.10298145
-1.9118048
0.11718616
-2.100421
0.11301907
-2.3014205
0.0924793
-2.5092175
0.062799036
-2.7203498
0.032592243
-2.9345027
0.0084614816
-3.1540778
-0.0066656233
-3.3837367
-0.013215378
-3.6270094
-0.013045794
-3.8890194
-0.0081109579
-4.1700422
0.0021670343
-1.3700031
0.039408943
-1.4853968
0.072037568
-1.6190546
0.10984791
-1.7769399
0.13390441
-1.9566939
0.13691354
-2.1513399
0.11854532
-2.3538648
0.085696128
-2.5585942
0.048630826
-2.7631722
0.016536031
-2.9696098
-0.0053755773
-3.1824021
-0.01672845
-3.4066929
-0.019417027
-3.6462069
-0.016249283
-3.9054256
-0.0092813904
-4.1844043
0.0013282414
-1.2795536
0.03003985
-1.3825563
0.06650401
-1.5033502
0.11373487
-1.6491975
0.14960935
-1.8195829
0.16245381
-2.0079295
0.14876817
-2.2063842
0.1141332
-2.4069827
0.070029999
-2.6047516
0.028572548
-2.8001711
-0.0019727995
-2.9982452
-0.019559611
-3.2046479
-0.025952422
-3.4246072
-0.024636179
-3.661278
-0.018723583
-3.9184352
-0.010099581
-4.195934
0.0021081581
-1.1958359
0.018177875
-1.2882307
0.057042435
-1.3950872
0.11385662
-1.5283793
0.16341289
-1.6887365
0.18891624
-1.8704492
0.18298559
-2.0655173
0.14869251
-2.2639823
0.097892914
-2.4577228
0.04566653
-2.6447495
0.0042165664
-2.8296593
-0.021480159
-3.0198648
-0.032724765
-3.2211272
-0.033743081
-3.4379553
-0.028662465
-3.6727983
-0.020437644
-3.9285492
-0.01058002
-4.2049959
0.0040519484
-1.1187308
0.0039097009
-1.200803
0.042240033
-1.2940175
0.10945622
-1.4143003
0.17434656
-1.5638802
0.21535214
-1.7383084
0.22074611
-1.9301998
0.18977993
-2.1281531
0.13338537
-2.3206956
0.069215718
-2.5023408
0.014283912
-2.6762454
-0.022053654
-2.850968
-0.039866718
-3.0346272
-0.04389946
-3.2323537
-0.039737048
-3.4473967
-0.031431361
-3.6812932
-0.02142632
-3.9363155
-0.010757274
-4.2121361
0.0075645439
-1.0481117
-0.013478798
-1.1193464
0.022109897
-1.1999516
0.099906808
-1.3068451
0.18154639
-1.4449283
0.24069067
-1.6111082
0.26126676
-1.7994924
0.23751311
-1.9981032
0.17763845
-2.1921465
0.10085004
-2.3717792
0.029508656
-2.5372076
-0.020773068
-2.6977111
-0.047440303
-2.8638916
-0.055564281
-3.0432017
-0.05246522
-3.2392253
-0.043813106
-3.4536822
-0.032998212
-3.6874699
-0.021769899
-3.9421972
-0.010678823
-4.2176166
0.012895635
-0.98329167
-0.034228474
-1.0442015
-0.0029555583
-1.1123396
0.084808947
-1.2060523
0.18453187
-1.3321477
0.26413128
-1.4890387
0.30377013
-1.6729903
0.29184744
-1.8727131
0.23170934
-2.0705735
0.14243549
-2.2517458
0.051535903
-2.411907
-0.016820793
-2.5598566
-0.055509666
-2.708768
-0.069237711
-2.869256
-0.067533518
-3.0467806
-0.058203213
-3.2427087
-0.046053879
-3.4576015
-0.033500797
-3.6918085
-0.02157417
-3.9465973
-0.010396991
-4.2218435
0.020173771
-0.92321352
-0.058069909
-0.97519018
-0.03293413
-1.0311496
0.06431663
-1.1119266
0.18307934
-1.2258297
0.28509962
-1.3725936
0.34754986
-1.5509537
0.35287394
-1.7516989
0.29697093
-1.9551389
0.1963126
-2.1411862
0.082619505
-2.2996196
-0.0091628372
-2.4368872
-0.064088164
-2.5690127
-0.085553857
-2.7102356
-0.085740216
-2.8686607
-0.075395032
-3.0466654
-0.061235374
-3.243826
-0.046681078
-3.4598058
-0.033121769
-3.6948041
-0.020953401
-3.9498327
-0.0099626922
-4.2250283
0.028850735
-0.86663253
-0.084362272
-0.91162513
-0.067978051
-0.95602054
0.03840531
-1.0242522
0.17706539
-1.1260795
0.3028422
-1.2618892
0.39107347
-1.4330522
0.41941254
-1.6340407
0.37419815
-1.8449485
0.26545031
-2.0398384
0.12598604
-2.2001493
0.0036437308
-2.3284699
-0.073135693
-2.4442534
-0.10529901
-2.5657906
-0.10810372
-2.7043798
-0.096310571
-2.8639965
-0.079333024
-3.044234
-0.0619116
-3.2433913
-0.045989269
-3.4608315
-0.032057846
-3.6967893
-0.020018267
-3.9522228
-0.0094221335
-4.227454
0.040114573
-0.81261779
-0.11250673
-0.8522159
-0.10821234
-0.88628313
0.0070842773
-0.94269452
0.16650645
-1.0328174
0.31656073
-1.1569924
0.43198151
-1.3185846
0.48780536
-1.5169296
0.46045893
-1.7352632
0.35013696
-1.9441089
0.18499977
-2.1133683
0.024661228
-2.2360989
-0.082094918
-2.3347701
-0.1294248
-2.4354695
-0.13590627
-2.5534606
-0.12210112
-2.6940603
-0.10123925
-2.8571302
-0.079900654
-3.040541
-0.060695845
-3.242095
-0.04429261
-3.4611287
-0.030497338
-3.6981352
-0.018868136
-3.9539643
-0.0088148229
-4.2292234
0.051026977
-0.75828407
-0.14113844
-0.79679422
-0.15330231
-0.82110016
-0.029480206
-0.86673514
0.1516509
-0.94594475
0.32578986
-1.0581684
0.4681106
-1.2078181
0.55414514
-1.3994095
0.55037277
-1.6208157
0.44572271
-1.8443093
0.25842656
-2.0310534
0.0552205
-2.1578615
-0.090262011
-2.2421865
-0.15896275
-2.3195254
-0.17075577
-2.4151338
-0.15418128
-2.5360825
-0.12802401
-2.6816883
-0.10140782
-2.8494643
-0.077822497
-3.0364444
-0.058075373
-3.2404055
-0.041887469
-3.4610275
-0.028607238
-3.6990168
-0.017587327
-3.9552323
-0.0081731405
-4.2305104
0.057663945
-0.70265609
-0.17137767
-0.73998833
-0.20356699
-0.75964277
-0.070962517
-0.79569449
0.13313536
-0.86533327
0.33059946
-0.96585599
0.49814846
-1.1018722
0.61502263
-1.282242
0.64001535
-1.5020976
0.54868228
-1.7362885
0.34318381
-1.9416599
0.092465711
-2.0813175
-0.099226323
-2.1622664
-0.19552119
-2.2189878
-0.21480864
-2.2889957
-0.1942969
-2.3889106
-0.16094109
-2.5170276
-0.12729084
-2.6692035
-0.097945597
-2.8420062
-0.073844016
-3.0324474
-0.05450119
-3.2386898
-0.039032002
-3.4607474
-0.026526849
-3.6996096
-0.016243958
-3.9561208
-0.0075223989
-4.2313779
0.061232837
-0.64852596
-0.20499069
-0.68017513
-0.25610302
-0.69975547
-0.11678187
-0.7289981
0.1120017
-0.79070991
0.33154296
-0.88041398
0.52159191
-1.0019987
0.66780831
-1.1673213
0.72503955
-1.3794415
0.65406147
-1.619106
0.4413813
-1.8462231
0.13734051
-1.9987034
-0.11193433
-2.0811822
-0.24208626
-2.1282338
-0.27110766
-2.1752881
-0.24485258
-2.2515538
-0.20145091
-2.3617456
-0.15848396
-2.4988053
-0.12166045
-2.6577983
-0.09198289
-2.8353772
-0.06863748
-3.0289289
-0.050356569
-3.237138
-0.03593702
-3.4604072
-0.024366867
-3.6999997
-0.01489069
-3.9567522
-0.0068816097
-4.2319325
0.062434237
-0.59704542
-0.24086217
-0.62302708
-0.30720215
-0.64061586
-0.16432251
-0.66652534
0.089515736
-0.72172795
0.3295922
-0.8019879
0.53850892
-0.90913187
0.7104531
-1.0564807
0.79984924
-1.2534925
0.75491942
-1.4911044
0.54408109
-1.7327528
0.19451744
-1.9147754
-0.12606892
-1.9964045
-0.30069512
-2.0343674
-0.3424928
-2.0686214
-0.30897933
-2.1234445
-0.2514534
-2.2142591
-0.19596957
-2.336801
-0.14954031
-2.4829004
-0.11283154
-2.6481837
-0.0845066
-2.8298838
-0.062757965
-3.0260545
-0.045946347
-3.2358728
-0.032765936
-3.4601276
-0.022210897
-3.7003022
-0.013566294
-3.9571661
-0.0062644235
-4.2321982
0.06141671
-0.54840856
-0.27780562
-0.56976525
-0.35688461
-0.58416546
-0.21019414
-0.60822788
0.066941803
-0.65826873
0.32597007
-0.73048043
0.54940507
-0.82385612
0.74163669
-0.95138198
0.85937873
-1.1266109
0.84034966
-1.3489619
0.64332392
-1.6005686
0.2536644
-1.8025317
-0.1420635
-1.9099286
-0.37187378
-1.9363404
-0.43081384
-1.9570465
-0.38867603
-2.0003556
-0.31332492
-2.0735563
-0.24086075
-2.1814338
-0.18208421
-2.3158884
-0.13663633
-2.4700347
-0.10223207
-2.6405998
-0.076303447
-2.825688
-0.056631987
-3.0238996
-0.041499202
-3.234946
-0.029638645
-3.4599481
-0.0201191
-3.7005388
-0.012298116
-3.9574178
-0.0056800192
-4.2322318
0.05858711
-0.50311687
-0.31479275
-0.52042489
-0.40511015
-0.53168538
-0.25319953
-0.55385388
0.045569502
-0.60031159
0.32176305
-0.66563475
0.55510483
-0.746392
0.76115762
-0.85372738
0.9002538
-1.0021466
0.90308981
-1.1986803
0.72397895
-1.4391715
0.29154024
-1.6483792
-0.16489909
-1.7901999
-0.46191611
-1.8303699
-0.53923387
-1.8382132
-0.48461775
-1.8717547
-0.38796707
-1.9369637
-0.29451971
-2.0314
-0.21968283
-2.1550579
-0.16349657
-2.2996538
-0.12180262
-2.4603646
-0.090952073
-2.6351106
-0.067953308
-2.8227318
-0.050567289
-3.0224445
-0.037176815
-3.234373
-0.026638368
-3.4599009
-0.018132388
-3.7007331
-0.01110393
-3.9575077
-0.0051340911
-4.2320445
0.054290931
-0.46131458
-0.3507811
-0.47552159
-0.45117247
-0.48387215
-0.29318413
-0.50364085
0.026508609
-0.54742546
0.31776137
-0.60713208
0.55666674
-0.67671113
0.76980563
-0.76472453
0.92160378
-0.88430119
0.94027511
-1.0480038
0.77568531
-1.2593287
0.29919532
-1.4561069
-0.21912155
-1.6040565
-0.57284984
-1.6891613
-0.66965236
-1.7095817
-0.59880608
-1.7339523
-0.47359468
-1.7966578
-0.35712677
-1.8852089
-0.26274601
-1.9990434
-0.19329255
-2.1355006
-0.14303127
-2.2880302
-0.10651408
-2.4537419
-0.079756574
-2.6315185
-0.059854562
-2.820932
-0.044770634
-3.0216373
-0.03308582
-3.2341294
-0.023818982
-3.4599456
-0.016276216
-3.7008869
-0.0099943123
-3.9574796
-0.0046296332
-4.2316698
0.04489248
-0.49768311
-0.38488876
-0.43503357
-0.49442319
-0.44118069
-0.33010289
-0.45817248
0.010280563
-0.4992584
0.31477565
-0.55455798
0.55527065
-0.6146091
0.76906406
-0.68503259
0.92485627
-0.77657657
0.95249702
-0.90458561
0.79584806
-1.0765433
0.28123124
-1.2500293
-0.29495588
-1.3896026
-0.69642216
-1.489826
-0.81633315
-1.5514843
-0.72816613
-1.5894756
-0.56955194
-1.6478471
-0.42554504
-1.7384302
-0.3110984
-1.8469759
-0.22572764
-1.9763993
-0.16549463
-2.1223308
-0.12262399
-2.2806293
-0.091744352
-2.4498026
-0.069138799
-2.6295903
-0.052257588
-2.8201058
-0.039369446
-3.0214019
-0.029290482
-3.2341585
-0.021211475
-3.4601044
-0.014564391
-3.7010228
-0.008974233
-3.9573261
-0.0041676104
-4.2311138
0.03534563
-0.48760622
-0.42103194
-0.47006708
-0.53418462
-0.40362087
-0.36393904
-0.41787152
-0.0032300365
-0.45575833
0.31346082
-0.50740187
0.55205118
-0.55962079
0.76080171
-0.61482869
0.91315595
-0.68134917
0.94319401
-0.77477384
0.78612461
-0.90271619
0.2429079
-1.0463001
-0.38081156
-1.1729625
-0.8203617
-1.2744836
-0.95369027
-1.360878
-0.8586688
-1.4296043
-0.67364156
-1.4946137
-0.49668553
-1.5862782
-0.36194124
-1.6971196
-0.26027087
-1.821745
-0.1885129
-1.9623159
-0.13870717
-2.1146703
-0.10346275
-2.2767527
-0.078071378
-2.4480822
-0.059382032
-2.6290199
-0.045301835
-2.8201319
-0.034431981
-3.0216248
-0.025823012
-3.2344255
-0.018830097
-3.4603411
-0.013002111
-3.7011332
-0.0080446281
-3.9570663
-0.0037475348
-4.2303938
0.025742749
-0.4772362
-0.45421692
-0.46291553
-0.57583208
-0.43748928
-0.39480521
-0.38262175
-0.01454154
-0.41694438
0.31403288
-0.46517273
0.54798794
-0.51107948
0.74697355
-0.55373208
0.89036179
-0.59951046
0.91655259
-0.66169054
0.75033039
-0.74634424
0.18972325
-0.85705355
-0.46917217
-0.96621362
-0.93848262
-1.0631699
-1.0767303
-1.1592886
-0.97659811
-1.2509789
-0.77470578
-1.3371876
-0.56964086
-1.4306549
-0.41084967
-1.5463318
-0.29507663
-1.6710944
-0.21121929
-1.807554
-0.15396103
-1.9551676
-0.11429076
-2.1114324
-0.08617714
-2.275696
-0.065784675
-2.448132
-0.050619181
-2.6295722
-0.039047545
-2.8208004
-0.029984078
-3.0222246
-0.022693219
-3.2348779
-0.016677134
-3.4606594
-0.011588364
-3.7012063
-0.0072035248
-3.9566848
-0.0033679042
-4.2295155
0.016204618
-0.46700773
-0.48357112
-0.45634262
-0.61310577
-0.43474967
-0.43378441
-0.40914345
-0.024196986
-0.38266674
0.31619914
-0.42737998
0.5438335
-0.46826186
0.72952657
-0.50106598
0.8600621
-0.53040801
0.87661385
-0.56607844
0.69467999
-0.61294246
0.12668004
-0.69028596
-0.55379918
-0.78020627
-1.0437626
-0.8687996
-1.180408
-0.9668024
-1.075647
-1.0677096
-0.86102738
-1.1727655
-0.6389031
-1.2763864
-0.45592286
-1.3939998
-0.32626149
-1.5234073
-0.23234581
-1.6580811
-0.16738251
-1.8019271
-0.12344425
-1.9533242
-0.092857946
-2.1115979
-0.071012773
-2.2767989
-0.054978488
-2.4495555
-0.042882239
-2.6309615
-0.033501403
-2.821988
-0.026023078
-3.0230995
-0.019895503
-3.2354793
-0.014746607
-3.4610068
-0.010317971
-3.7012388
-0.0064470372
-3.9562072
-0.0030265381
-4.2284916
0.0067484534
-0.45735301
-0.5082795
-0.45072978
-0.6448576
-0.43373073
-0.47033573
-0.4089002
-0.047290268
-0.3963927
0.31940472
-0.39360212
0.54012152
-0.43045364
0.71010878
-0.4558047
0.82510011
-0.47261007
0.82768647
-0.48754779
0.62657539
-0.50443567
0.058164619
-0.55089585
-0.62990787
-0.6214829
-1.1301361
-0.70126679
-1.2612146
-0.79479772
-1.1540643
-0.89532577
-0.92892594
-1.0074185
-0.69552673
-1.1241027
-0.49603525
-1.2441832
-0.35044791
-1.3775866
-0.24947824
-1.513952
-0.17785099
-1.6550406
-0.12999082
-1.8023884
-0.097413526
-1.9553714
-0.074533185
-2.1142641
-0.057974572
-2.2795112
-0.045624928
-2.4519849
-0.036139154
-2.6329744
-0.02863637
-2.8235241
-0.022528177
-3.0241899
-0.017414308
-3.2361728
-0.013027243
-3.4613981
-0.0091830025
-3.701242
-0.0057699979
-3.9556254
-0.0027208458
-4.2273406
-0.0026108005
-0.44873249
-0.52771407
-0.44632172
-0.67033904
-0.43441392
-0.50394406
-0.41088352
-0.069431311
-0.39716362
0.3088484
-0.39402792
0.53694264
-0.39678563
0.6900021
-0.41686402
0.78768671
-0.42445686
0.77386875
-0.42445225
0.552681
-0.41969287
-0.011526878
-0.44071726
-0.69443125
-0.49322661
-1.1938135
-0.56483958
-1.319183
-0.64963213
-1.2126339
-0.74267082
-0.980046
-0.85134937
-0.73596001
-0.97448082
-0.52702909
-1.1005321
-0.36698825
-1.2349384
-0.25934424
-1.3749351
-0.18399188
-1.5148343
-0.13291791
-1.6588062
-0.099071207
-1.807072
-0.075760255
-1.9601538
-0.059158762
-2.118702
-0.046929514
-2.2833294
-0.037625605
-2.4551023
-0.030321669
-2.6354071
-0.02440594
-2.8253343
-0.019467666
-3.0254014
-0.015228167
-3.2369375
-0.011504567
-3.46182
-0.0081739151
-3.7012194
-0.0051665474
-3.954955
-0.002448026
-4.2260699
-0.011650414
-0.44177871
-0.54141273
-0.44341342
-0.68908813
-0.43675696
-0.53399706
-0.415169
-0.091054414
-0.399712
0.30010537
-0.39669207
0.52124327
-0.38504978
0.66979552
-0.38267724
0.74970957
-0.38454076
0.71836227
-0.37423198
0.47818739
-0.35559629
-0.078613242
-0.35810969
-0.74607253
-0.39550399
-1.2342143
-0.45948915
-1.3568098
-0.53311159
-1.2543277
-0.61391458
-1.0185567
-0.71087222
-0.76282862
-0.8315423
-0.54505831
-0.96340981
-0.37547969
-1.0988779
-0.25996963
-1.241094
-0.18382011
-1.3817319
-0.1312457
-1.5228643
-0.097025926
-1.6669632
-0.074091955
-1.8145999
-0.058069324
-1.9667622
-0.046436407
-2.1242753
-0.037676195
-2.2878618
-0.030848364
-2.4586725
-0.025343538
-2.6381319
-0.020753595
-2.8272803
-0.016804434
-3.0266982
-0.013312539
-3.2377622
-0.010162422
-3.4622876
-0.0072803283
-3.7011576
-0.0046304928
-3.9541878
-0.0022052082
-4.2246961
-0.019412238
-0.43703448
-0.54919995
-0.44235153
-0.70108895
-0.44060893
-0.559834
-0.421764
-0.11193281
-0.4047808
0.29231518
-0.40026105
0.50949058
-0.39177347
0.63732626
-0.35895307
0.71217521
-0.35040127
0.66337224
-0.33448191
0.40643844
-0.30774081
-0.14033463
-0.29893354
-0.78492348
-0.32528591
-1.2539546
-0.38208312
-1.3781162
-0.44367974
-1.2836095
-0.50936913
-1.0502181
-0.58856378
-0.7815214
-0.69883633
-0.55029829
-0.83281677
-0.37388156
-0.97140454
-0.25140762
-1.1138144
-0.17520182
-1.2559607
-0.12397762
-1.3950074
-0.090519631
-1.5352433
-0.068951408
-1.6778315
-0.054265306
-1.8238258
-0.04380191
-1.9744432
-0.036015301
-2.1305285
-0.029990008
-2.2928142
-0.025149757
-2.4625098
-0.021112557
-2.6410043
-0.017619535
-2.8293129
-0.014499295
-3.0280288
-0.011641724
-3.2386361
-0.0089840709
-3.4627666
-0.0064916544
-3.7010581
-0.0041556141
-3.9533425
-0.00198955
-4.2232222
-0.026848362
-0.43415718
-0.55102049
-0.4435585
-0.70654643
-0.4460959
-0.58060504
-0.43070697
-0.13251616
-0.4117023
0.28470419
-0.40557164
0.50110979
-0.39881627
0.60813735
-0.36904431
0.66748541
-0.31969315
0.61028027
-0.301918
0.33927278
-0.27221735
-0.19384962
-0.25887194
-0.81205465
-0.27745129
-1.2577176
-0.32752032
-1.3877786
-0.377546
-1.3059409
-0.42648231
-1.0808842
-0.4846417
-0.79838898
-0.57797417
-0.54578095
-0.70944454
-0.36038911
-0.85228346
-0.23372067
-0.99508261
-0.15712149
-1.1378003
-0.10993454
-1.275667
-0.078945283
-1.412133
-0.059828088
-1.5499132
-0.047364538
-1.6900996
-0.038728049
-1.8339242
-0.03240326
-1.9826624
-0.027544959
-2.1371096
-0.023649613
-2.2979749
-0.020388836
-2.4664656
-0.017537867
-2.6439296
-0.014944515
-2.8313429
-0.012513404
-3.0293796
-0.010190203
-3.2395336
-0.0079529493
-3.4632668
-0.0057974485
-3.7009155
-0.0037358334
-3.9524147
-0.0017983093
-4.2216762
-0.43300058
-0.03430813
-0.54756795
-0.44594261
-0.7062053
-0.45310125
-0.59542821
-0.44215608
-0.15223036
-0.42153958
0.2769738
-0.41243018
0.49487907
-0.40636996
0.58263609
-0.37985111
0.62453196
-0.3315783
0.56365917
-0.27781998
0.27851582
-0.24572203
-0.23925846
-0.23108161
-0.82877801
-0.24744099
-1.2506916
-0.2901748
-1.3901925
-0.32988929
-1.3265912
-0.36165504
-1.1152231
-0.39773552
-0.81913556
-0.46981766
-0.53560876
-0.59383084
-0.33459656
-0.74080499
-0.20584928
-0.88578
-0.12979519
-1.0280016
-0.088025607
-1.1650558
-0.061840556
-1.2979818
-0.046336533
-1.430943
-0.037077118
-1.5655202
-0.030991842
-1.7028741
-0.026661277
-1.8443001
-0.023359979
-1.9910512
-0.020703059
-2.1437835
-0.018450888
-2.3031659
-0.016434506
-2.4704103
-0.01453408
-2.6468269
-0.012672313
-2.8333558
-0.010809543
-3.0307085
-0.008933477
-3.2404473
-0.0070531298
-3.4637601
-0.0051877181
-3.7007335
-0.0033653696
-3.9514125
-0.0016289156
-4.2200592
-0.44974533
-0.5391489
-0.43359206
-0.041634902
-0.69981618
-0.46152675
-0.60349988
-0.4559167
-0.17020947
-0.43474259
0.26856247
-0.42163657
0.49006203
-0.41472455
0.56097345
-0.39130921
0.58372642
-0.34456943
0.51669843
-0.28944363
0.24758907
-0.25154215
-0.27701186
-0.21190884
-0.83762074
-0.22719185
-1.2381694
-0.26537481
-1.3886822
-0.29615468
-1.3494499
-0.3114451
-1.1560751
-0.32607099
-0.84743751
-0.3750214
-0.52393042
-0.48679052
-0.29698136
-0.63662389
-0.16632408
-0.78560524
-0.093471758
-0.92740381
-0.05784895
-1.0632403
-0.038782411
-1.1930113
-0.02827956
-1.3210753
-0.023230998
-1.4499766
-0.020470629
-1.5810833
-0.018693184
-1.7155238
-0.017350278
-1.854585
-0.016225014
-1.9993497
-0.015207709
-2.1503615
-0.014213183
-2.3082596
-0.013168897
-2.4742739
-0.012023153
-2.6496542
-0.010750901
-2.8352938
-0.0093530545
-3.0320119
-0.007848568
-3.2413618
-0.0062696455
-3.4642556
-0.0046530573
-3.7004793
-0.0030388073
-3.9503346
-0.0014790081
-4.2183926
-0.47122478
-0.68751809
-0.45512749
-0.52593698
-0.43561212
-0.048747677
-0.60465902
-0.47124824
-0.18580023
-0.45090385
0.25881999
-0.43355183
0.48523892
-0.42399626
0.54275619
-0.40316413
0.5456336
-0.35876597
0.47014244
-0.30290939
0.21411157
-0.26068836
-0.26646582
-0.26607407
-0.83918805
-0.21498522
-1.2219009
-0.2485901
-1.3855204
-0.27271828
-1.3764625
-0.27323607
-1.204077
-0.26840659
-0.88447103
-0.29431063
-0.51381248
-0.39006387
-0.24863904
-0.53993814
-0.11388526
-0.69400113
-0.047769119
-0.83633181
-0.019697084
-0.97035223
-0.009460736
-1.0971654
-0.0056386758
-1.2203845
-0.0057839288
-1.3434799
-0.0071513153
-1.4682637
-0.0084998615
-1.5959928
-0.0095150043
-1.7276996
-0.010200916
-1.864527
-0.010625053
-2.0073947
-0.010820133
-2.1567278
-0.010780427
-2.3131803
-0.010488081
-2.4779936
-0.0099351626
-2.6523643
-0.009133078
-2.83715
-0.0081121477
-3.0332781
-0.0069142909
-3.2422795
-0.0055886442
-3.4646986
-0.0041847868
-3.7001589
-0.0027511556
-3.9491952
-0.001346377
-4.2166746
-0.48730169
-0.59944559
-0.4822536
-0.66955276
-0.46114582
-0.50872985
-0.43896118
-0.055688355
-0.19857277
-0.4690598
0.24725317
-0.44792505
0.47911975
-0.43467448
0.52713806
-0.41507866
0.51087271
-0.37397208
0.42471757
-0.31829889
0.18066712
-0.27425279
-0.26029869
-0.27092693
-0.78865529
-0.32133152
-1.2026834
-0.23904268
-1.3829928
-0.2550376
-1.4074362
-0.24554477
-1.2577209
-0.22426808
-0.92900071
-0.2288511
-0.5064835
-0.30621426
-0.19127174
-0.45188222
-0.047484666
-0.61095364
0.0081609857
-0.75469319
0.026002331
-0.88657747
0.026090949
-1.0102328
0.021500873
-1.1287526
0.015162997
-1.2460407
0.0088734023
-1.3643382
0.00382006
-1.4852701
5.6380467e-05
-1.6099285
-0.0026962899
-1.7392012
-0.0047369118
-1.8740038
-0.0062567715
-2.0150743
-0.0073420392
-2.1628118
-0.0080197686
-2.3178725
-0.0083016693
-2.4815338
-0.008208202
-2.6549249
-0.0077765149
-2.8389105
-0.0070580903
-3.0345163
-0.0061113756
-3.2431625
-0.0049975007
-3.4650996
-0.0037749555
-3.6997542
-0.0024978554
-3.9479973
-0.0012290139
-4.2149278
-0.48818131
-0.20827778
-0.50398939
-0.58854678
-0.49293124
-0.64690097
-0.46776494
-0.48826133
-0.44357973
-0.062487174
0.2338698
-0.46429321
0.47085026
-0.44694352
0.51300774
-0.42727798
0.47991164
-0.38970218
0.38108265
-0.33534919
0.14768519
-0.29017127
-0.25656506
-0.28214377
-0.74142697
-0.32303069
-1.1435036
-0.3854138
-1.3820479
-0.24366169
-1.4407969
-0.22521151
-1.3144154
-0.19325141
-0.97767505
-0.18028563
-0.50159535
-0.23798332
-0.12662624
-0.3749752
0.032913045
-0.53658379
0.074523262
-0.68182997
0.078586521
-0.81158832
0.067253783
-0.93180695
0.052890001
-1.0458096
0.039306462
-1.1573754
0.027360017
-1.269169
0.018053165
-1.383133
0.011181759
-1.5007136
0.0061394824
-1.6227825
0.0023489437
-1.7499702
-0.00058725685
-1.882942
-0.0028779734
-2.0223533
-0.0046104189
-2.1685678
-0.0058190311
-2.3222975
-0.006531604
-2.4848485
-0.0067879688
-2.6573273
-0.0066436358
-2.8405867
-0.0061651568
-3.0357059
-0.0054224895
-3.2440149
-0.0044847886
-3.4653967
-0.0034163935
-3.6992764
-0.0022747842
-3.9467413
-0.0011251121
-4.213149
-0.48190846
0.21895859
-0.50752223
-0.21532755
-0.51964316
-0.57263619
-0.50332528
-0.62043955
-0.4747621
-0.46542949
-0.44932583
-0.069255279
0.45983991
-0.46060362
0.49942034
-0.44011364
0.45245406
-0.40542059
0.34013605
-0.35381506
0.11601103
-0.30859341
-0.2544543
-0.29652388
-0.69774562
-0.33085034
-1.0843098
-0.38728377
-1.3526542
-0.41849351
-1.4743812
-0.21337699
-1.3695234
-0.17423712
-1.0264022
-0.14894535
-0.49818972
-0.18762541
-0.057153916
-0.31125591
0.12515314
-0.47122299
0.15121703
-0.61755645
0.13785938
-0.74519125
0.11346638
-0.86161602
0.088206004
-0.97106587
0.066318827
-1.0770802
0.048051036
-1.1824902
0.033943454
-1.2894333
0.023602111
-1.3997574
0.016075485
-1.5146193
0.010448062
-1.6346011
0.0060577625
-1.7600188
0.0025319697
-1.8913472
-0.00029687655
-2.0291949
-0.0024917253
-2.1739678
-0.0040837812
-2.3264201
-0.0051108534
-2.4879351
-0.0056270962
-2.6595705
-0.0057013255
-2.8421689
-0.0054105199
-3.0368519
-0.004832162
-3.2447704
-0.0040403149
-3.4656048
-0.003102649
-3.6986921
-0.0020782472
-3.9454319
-0.0010330559
-4.2113554
-0.47533679
0.44592879
-0.49954277
0.20232379
-0.52634135
-0.21920755
-0.53411257
-0.55260462
-0.51301837
-0.59123811
-0.48187189
-0.44125638
-0.45600326
-0.076164758
0.48555751
-0.45351428
0.42772909
-0.42100644
0.30298212
-0.3733654
0.086458387
-0.32923868
-0.25287636
-0.31449501
-0.65733845
-0.3420869
-1.0272086
-0.39313821
-1.3175196
-0.42621706
-1.4893029
-0.40687645
-1.4214879
-0.1652926
-1.0726555
-0.13214227
-0.49509586
-0.15568783
0.014175641
-0.26246142
0.22652901
-0.41635862
0.23772079
-0.56178097
0.20326251
-0.68683748
0.16386406
-0.79916017
0.12686192
-0.90397919
0.095800092
-1.004603
0.070560448
-1.1038111
0.05114369
-1.2038523
0.036998717
-1.3068658
0.026820672
-1.4143934
0.019310226
-1.5271899
0.013482744
-1.6454926
0.0087502084
-1.7693862
0.0048359967
-1.8992111
0.0016385017
-2.0355988
-0.00087634537
-2.178987
-0.0027344775
-2.330238
-0.0039819888
-2.4907809
-0.0046845273
-2.6616546
-0.0049205917
-2.8436567
-0.0047740575
-3.0379092
-0.004326723
-3.2454379
-0.0036549987
-3.46567
-0.0028279994
-3.6980199
-0.0019049542
-3.9440796
-0.00095140614
-4.2095435
-0.46729727
0.47073601
-0.48981505
0.42885616
-0.51781059
0.18512591
-0.54376681
-0.22012268
-0.54694827
-0.52937431
-0.52165589
-0.56045493
-0.48883785
-0.41682395
-0.46333941
-0.083499421
0.40506303
-0.4364862
0.27015472
-0.39330961
0.059794638
-0.35172556
-0.25117065
-0.33534453
-0.62016286
-0.35693713
-0.9729726
-0.40161541
-1.2796846
-0.43486821
-1.4949779
-0.42398381
-1.478112
-0.35411336
-1.1174033
-0.12444038
-0.49178749
-0.13884118
0.084110186
-0.22885838
0.33298199
-0.37238042
0.33181826
-0.51429493
0.27376127
-0.63595726
0.21752097
-0.74382925
0.16813051
-0.84390661
0.12726553
-0.93930895
0.094480107
-1.0325572
0.069290823
-1.1259045
0.051005745
-1.2216853
0.038026086
-1.3218468
0.028628213
-1.4273709
0.021435435
-1.5385974
0.015586426
-1.6555667
0.010655651
-1.7781216
0.0064883701
-1.9065545
0.0030486467
-2.0415426
0.00032696943
-2.1836317
-0.0017040812
-2.3337428
-0.0030959152
-2.4933937
-0.0039248092
-2.6635661
-0.0042762265
-2.8450277
-0.0042381714
-3.0388855
-0.0038941227
-3.2459628
-0.003320857
-3.4656223
-0.0025873617
-3.6972511
-0.0017519894
-3.9426935
-0.00087889233
-4.207732
-0.45173231
0.38383653
-0.48027119
0.45440703
-0.50566997
0.40937948
-0.53514371
0.16783254
-0.559249
-0.21837987
-0.55774783
-0.5039151
-0.5289459
-0.52928388
-0.49536434
-0.39323698
-0.47099641
-0.091626359
0.24146801
-0.4129537
0.036566149
-0.37513889
-0.24924208
-0.35812398
-0.58652998
-0.37433245
-0.92257765
-0.41270788
-1.2395127
-0.4457701
-1.4924942
-0.44092327
-1.5217774
-0.38432655
-1.2196022
-0.25574842
-0.48630352
-0.13307586
0.15088437
-0.20860428
0.44020364
-0.33930144
0.43042519
-0.4746199
0.34783359
-0.59185457
0.27337976
-0.69492326
0.21119158
-0.79014186
0.16019765
-0.88051905
0.11940621
-0.96809667
0.088011486
-1.055018
0.065247689
-1.1437347
0.049314897
-1.2365479
0.038049694
-1.3348446
0.029617032
-1.4390001
0.022803802
-1.5490736
0.016988306
-1.6649236
0.011938926
-1.7862655
0.0076151035
-1.9133778
0.0040317307
-2.0470479
0.0011919468
-2.1878958
-0.00093567331
-2.3369428
-0.0024106798
-2.4957568
-0.0033174843
-2.6653069
-0.0037464818
-2.846291
-0.0037875234
-3.0397336
-0.0035238366
-3.2463705
-0.0030308594
-3.4654224
-0.0023762768
-3.6964073
-0.0016167747
-3.9412724
-0.00081438004
-4.2059179
-0.43175676
0.21632322
-0.46582374
0.36369825
-0.49440744
0.43636192
-0.52097503
0.38790049
-0.55090118
0.15081848
-0.57231524
-0.21435694
-0.56617795
-0.47723856
-0.53468316
-0.49883013
-0.50117417
-0.37154065
-0.47855919
-0.10092499
0.016749618
-0.39821324
-0.24738704
-0.38152302
-0.55690949
-0.39316431
-0.87665512
-0.42569143
-1.1979544
-0.45832524
-1.4804769
-0.4614737
-1.5522708
-0.41457491
-1.3100306
-0.29785296
-0.58867835
-0.15644254
0.21655409
-0.201509
0.54353598
-0.31492831
0.53022162
-0.44252941
0.42368406
-0.55377159
0.33031399
-0.65167978
0.25521426
-0.74197745
0.19406393
-0.82750874
0.14495331
-0.9097636
0.10696037
-0.9905919
0.079362568
-1.0724808
0.060300717
-1.1580431
0.047197832
-1.2491332
0.037691597
-1.3463281
0.030129552
-1.4495564
0.023625403
-1.5587625
0.017839679
-1.6736546
0.012720671
-1.7938556
0.0083151881
-1.9197091
0.0046675342
-2.0521097
0.0017820719
-2.1917949
-0.00038105075
-2.3398309
-0.0018903952
-2.4978879
-0.002836518
-2.6668792
-0.0033126835
-2.8474204
-0.0034088527
-3.0404741
-0.0032066688
-3.2466037
-0.0027788827
-3.4650995
-0.002190831
-3.6954634
-0.0014970134
-3.9398206
-0.00075681422
-4.2041156
-0.41978329
-0.00030057735
-0.44910321
0.19442469
-0.48019927
0.34376454
-0.50782865
0.41644333
-0.53510643
0.36484037
-0.56452605
0.13437311
-0.58256455
-0.20849969
-0.57202827
-0.45036333
-0.53876318
-0.47002189
-0.50601783
-0.35261516
-0.48554053
-0.11159953
-0.24606045
-0.40411602
-0.53166636
-0.41222846
-0.8354449
-0.43984907
-1.1556409
-0.47212925
-1.4579119
-0.48467632
-1.5675601
-0.45044422
-1.3844065