/*--------------------------------*- C++ -*----------------------------------*\
| =========                 |                                                 |
| \\      /  F ield         | OpenFOAM: The Open Source CFD Toolbox           |
|  \\    /   O peration     | Version:  v2012                                 |
|   \\  /    A nd           | Website:  www.openfoam.com                      |
|    \\/     M anipulation  |                                                 |
\*---------------------------------------------------------------------------*/
FoamFile
{
    version     2.0;
    format      ascii;
    class       pointVectorField;
    location    "49.8824687878157391";
    object      pointDisplacement;
}
// * * * * * * * * * * * * * * * * * * * * * * * * * * * * * * * * * * * * * //

dimensions      [0 1 0 0 0 0 0];


internalField   nonuniform List<vector> 
18840
(
(-0.88065316 -0 -0)
(-0.88052086 0 0)
(-0.88012574 0 0)
(-0.87947103 0 0)
(-0.87855928 0 0)
(-0.8773923 0 0)
(-0.87597144 0 0)
(-0.87429757 0 0)
(-0.87237118 0 0)
(-0.87019236 0 0)
(-0.8677609 0 0)
(-0.86507633 0 0)
(-0.86213789 0 0)
(-0.85894463 0 0)
(-0.85549538 0 0)
(-0.85178882 0 0)
(-0.84782351 0 0)
(-0.8435981 0 0)
(-0.83911146 0 0)
(-0.83435991 0 0)
(-0.82835079 0 0)
(-0.88065316 -0 -0)
(-0.88052064 0 0)
(-0.88012496 0 0)
(-0.87946955 0 0)
(-0.87855712 0 0)
(-0.87738964 0 0)
(-0.8759686 0 0)
(-0.874295 0 0)
(-0.87236947 0 0)
(-0.87019225 0 0)
(-0.86776327 0 0)
(-0.86508221 0 0)
(-0.86214845 0 0)
(-0.85896122 0 0)
(-0.85551951 0 0)
(-0.85182218 0 0)
(-0.84786797 0 0)
(-0.84365558 0 0)
(-0.83918379 0 0)
(-0.83444992 0 0)
(-0.82947589 0 0)
(-0.88065316 -0 -0)
(-0.88052022 0 0)
(-0.8801234 0 0)
(-0.87946638 0 0)
(-0.87855206 0 0)
(-0.8773826 0 0)
(-0.87595964 0 0)
(-0.87428437 0 0)
(-0.87235755 0 0)
(-0.87017963 0 0)
(-0.86775068 0 0)
(-0.86507056 0 0)
(-0.86213886 0 0)
(-0.85895498 0 0)
(-0.85551809 0 0)
(-0.85182727 0 0)
(-0.8478814 0 0)
(-0.84367929 0 0)
(-0.83921959 0 0)
(-0.83450069 0 0)
(-0.82947659 0 0)
(-0.88065316 -0 -0)
(-0.88051987 0 0)
(-0.8801221 0 0)
(-0.87946375 0 0)
(-0.87854793 0 0)
(-0.87737696 0 0)
(-0.87595266 0 0)
(-0.87427638 0 0)
(-0.87234906 0 0)
(-0.87017129 0 0)
(-0.86774334 0 0)
(-0.86506525 0 0)
(-0.86213678 0 0)
(-0.85895755 0 0)
(-0.85552695 0 0)
(-0.85184428 0 0)
(-0.84790865 0 0)
(-0.84371913 0 0)
(-0.83927469 0 0)
(-0.83457389 0 0)
(-0.82951065 0 0)
(-0.88065316 -0 -0)
(-0.88051957 0 0)
(-0.88012101 0 0)
(-0.87946158 0 0)
(-0.87854457 0 0)
(-0.87737249 0 0)
(-0.87594729 0 0)
(-0.87427051 0 0)
(-0.87234322 0 0)
(-0.8701662 0 0)
(-0.86773988 0 0)
(-0.86506446 0 0)
(-0.86213992 0 0)
(-0.85896607 0 0)
(-0.85554253 0 0)
(-0.85186882 0 0)
(-0.84794435 0 0)
(-0.8437685 0 0)
(-0.83934062 0 0)
(-0.83465957 0 0)
(-0.8295652 0 0)
(-0.88065316 -0 -0)
(-0.88051932 0 0)
(-0.88012011 0 0)
(-0.87945979 0 0)
(-0.87854186 0 0)
(-0.87736896 0 0)
(-0.87594321 0 0)
(-0.87426625 0 0)
(-0.87233933 0 0)
(-0.87016336 0 0)
(-0.86773892 0 0)
(-0.86506642 0 0)
(-0.86214598 0 0)
(-0.85897762 0 0)
(-0.85556116 0 0)
(-0.85189638 0 0)
(-0.84798291 0 0)
(-0.84382044 0 0)
(-0.83940864 0 0)
(-0.83474669 0 0)
(-0.82962729 0 0)
(-0.88065316 -0 -0)
(-0.88051911 0 0)
(-0.88011938 0 0)
(-0.87945838 0 0)
(-0.87853974 0 0)
(-0.87736628 0 0)
(-0.8759402 0 0)
(-0.87426329 0 0)
(-0.87233689 0 0)
(-0.87016204 0 0)
(-0.86773946 0 0)
(-0.86506971 0 0)
(-0.86215307 0 0)
(-0.85898975 0 0)
(-0.85557974 0 0)
(-0.85192302 0 0)
(-0.84801947 0 0)
(-0.84386898 0 0)
(-0.83947151 0 0)
(-0.83482649 0 0)
(-0.82968719 0 0)
(-0.88065316 -0 -0)
(-0.88051895 0 0)
(-0.88011881 0 0)
(-0.87945733 0 0)
(-0.87853821 0 0)
(-0.87736442 0 0)
(-0.87593825 0 0)
(-0.87426157 0 0)
(-0.87233578 0 0)
(-0.87016203 0 0)
(-0.86774114 0 0)
(-0.86507376 0 0)
(-0.86216035 0 0)
(-0.85900121 0 0)
(-0.85559655 0 0)
(-0.85194647 0 0)
(-0.84805107 0 0)
(-0.84391038 0 0)
(-0.83952459 0 0)
(-0.83489342 0 0)
(-0.82973867 0 0)
(-0.88065316 -0 -0)
(-0.88051883 0 0)
(-0.88011841 0 0)
(-0.87945662 0 0)
(-0.87853729 0 0)
(-0.87736343 0 0)
(-0.87593744 0 0)
(-0.8742612 0 0)
(-0.87233621 0 0)
(-0.87016358 0 0)
(-0.86774425 0 0)
(-0.86507889 0 0)
(-0.86216808 0 0)
(-0.85901222 0 0)
(-0.85561164 0 0)
(-0.85196657 0 0)
(-0.84807722 0 0)
(-0.84394379 0 0)
(-0.83956657 0 0)
(-0.83494563 0 0)
(-0.82977944 0 0)
(-0.88065316 -0 -0)
(-0.88051876 0 0)
(-0.88011819 0 0)
(-0.8794563 0 0)
(-0.87853699 0 0)
(-0.87736336 0 0)
(-0.87593784 0 0)
(-0.87426235 0 0)
(-0.87233838 0 0)
(-0.87016704 0 0)
(-0.86774926 0 0)
(-0.86508573 0 0)
(-0.86217706 0 0)
(-0.85902371 0 0)
(-0.85562605 0 0)
(-0.85198439 0 0)
(-0.84809901 0 0)
(-0.84397022 0 0)
(-0.83959837 0 0)
(-0.83498378 0 0)
(-0.82981004 0 0)
(-0.88065316 -0 -0)
(-0.88051846 0 0)
(-0.88011709 0 0)
(-0.87945404 0 0)
(-0.87853334 0 0)
(-0.87735815 0 0)
(-0.87593098 0 0)
(-0.87425375 0 0)
(-0.87232795 0 0)
(-0.87015469 0 0)
(-0.86773485 0 0)
(-0.86506912 0 0)
(-0.86215806 0 0)
(-0.85900213 0 0)
(-0.85560171 0 0)
(-0.85195712 0 0)
(-0.84806869 0 0)
(-0.84393674 0 0)
(-0.83956165 0 0)
(-0.834944 0 0)
(-0.82976265 0 0)
(-0.88065316 -0 -0)
(-0.88052086 0 0)
(-0.88012574 0 0)
(-0.87947103 0 0)
(-0.87855928 0 0)
(-0.8773923 0 0)
(-0.87597144 0 0)
(-0.87429757 0 0)
(-0.87237118 0 0)
(-0.87019236 0 0)
(-0.8677609 0 0)
(-0.86507633 0 0)
(-0.86213789 0 0)
(-0.85894463 0 0)
(-0.85549538 0 0)
(-0.85178882 0 0)
(-0.84782351 0 0)
(-0.8435981 0 0)
(-0.83911146 0 0)
(-0.83435991 0 0)
(-0.82835079 0 0)
(-0.88065316 -0 -0)
(-0.88052064 0 0)
(-0.88012496 0 0)
(-0.87946955 0 0)
(-0.87855712 0 0)
(-0.87738964 0 0)
(-0.8759686 0 0)
(-0.874295 0 0)
(-0.87236947 0 0)
(-0.87019225 0 0)
(-0.86776327 0 0)
(-0.86508221 0 0)
(-0.86214845 0 0)
(-0.85896122 0 0)
(-0.85551951 0 0)
(-0.85182218 0 0)
(-0.84786797 0 0)
(-0.84365558 0 0)
(-0.83918379 0 0)
(-0.83444992 0 0)
(-0.82947589 0 0)
(-0.88065316 -0 -0)
(-0.88052022 0 0)
(-0.8801234 0 0)
(-0.87946638 0 0)
(-0.87855206 0 0)
(-0.8773826 0 0)
(-0.87595964 0 0)
(-0.87428437 0 0)
(-0.87235755 0 0)
(-0.87017963 0 0)
(-0.86775068 0 0)
(-0.86507056 0 0)
(-0.86213886 0 0)
(-0.85895498 0 0)
(-0.85551809 0 0)
(-0.85182727 0 0)
(-0.8478814 0 0)
(-0.84367929 0 0)
(-0.83921959 0 0)
(-0.83450069 0 0)
(-0.82947659 0 0)
(-0.88065316 -0 -0)
(-0.88051987 0 0)
(-0.8801221 0 0)
(-0.87946375 0 0)
(-0.87854793 0 0)
(-0.87737696 0 0)
(-0.87595266 0 0)
(-0.87427638 0 0)
(-0.87234906 0 0)
(-0.87017129 0 0)
(-0.86774334 0 0)
(-0.86506525 0 0)
(-0.86213678 0 0)
(-0.85895755 0 0)
(-0.85552695 0 0)
(-0.85184428 0 0)
(-0.84790865 0 0)
(-0.84371913 0 0)
(-0.83927469 0 0)
(-0.83457389 0 0)
(-0.82951065 0 0)
(-0.88065316 -0 -0)
(-0.88051957 0 0)
(-0.88012101 0 0)
(-0.87946158 0 0)
(-0.87854457 0 0)
(-0.87737249 0 0)
(-0.87594729 0 0)
(-0.87427051 0 0)
(-0.87234322 0 0)
(-0.8701662 0 0)
(-0.86773988 0 0)
(-0.86506446 0 0)
(-0.86213992 0 0)
(-0.85896607 0 0)
(-0.85554253 0 0)
(-0.85186882 0 0)
(-0.84794435 0 0)
(-0.8437685 0 0)
(-0.83934062 0 0)
(-0.83465957 0 0)
(-0.8295652 0 0)
(-0.88065316 -0 -0)
(-0.88051932 0 0)
(-0.88012011 0 0)
(-0.87945979 0 0)
(-0.87854186 0 0)
(-0.87736896 0 0)
(-0.87594321 0 0)
(-0.87426625 0 0)
(-0.87233933 0 0)
(-0.87016336 0 0)
(-0.86773892 0 0)
(-0.86506642 0 0)
(-0.86214598 0 0)
(-0.85897762 0 0)
(-0.85556116 0 0)
(-0.85189638 0 0)
(-0.84798291 0 0)
(-0.84382044 0 0)
(-0.83940864 0 0)
(-0.83474669 0 0)
(-0.82962729 0 0)
(-0.88065316 -0 -0)
(-0.88051911 0 0)
(-0.88011938 0 0)
(-0.87945838 0 0)
(-0.87853974 0 0)
(-0.87736628 0 0)
(-0.8759402 0 0)
(-0.87426329 0 0)
(-0.87233689 0 0)
(-0.87016204 0 0)
(-0.86773946 0 0)
(-0.86506971 0 0)
(-0.86215307 0 0)
(-0.85898975 0 0)
(-0.85557974 0 0)
(-0.85192302 0 0)
(-0.84801947 0 0)
(-0.84386898 0 0)
(-0.83947151 0 0)
(-0.83482649 0 0)
(-0.82968719 0 0)
(-0.88065316 -0 -0)
(-0.88051895 0 0)
(-0.88011881 0 0)
(-0.87945733 0 0)
(-0.87853821 0 0)
(-0.87736442 0 0)
(-0.87593825 0 0)
(-0.87426157 0 0)
(-0.87233578 0 0)
(-0.87016203 0 0)
(-0.86774114 0 0)
(-0.86507376 0 0)
(-0.86216035 0 0)
(-0.85900121 0 0)
(-0.85559655 0 0)
(-0.85194647 0 0)
(-0.84805107 0 0)
(-0.84391038 0 0)
(-0.83952459 0 0)
(-0.83489342 0 0)
(-0.82973867 0 0)
(-0.88065316 -0 -0)
(-0.88051883 0 0)
(-0.88011841 0 0)
(-0.87945662 0 0)
(-0.87853729 0 0)
(-0.87736343 0 0)
(-0.87593744 0 0)
(-0.8742612 0 0)
(-0.87233621 0 0)
(-0.87016358 0 0)
(-0.86774425 0 0)
(-0.86507889 0 0)
(-0.86216808 0 0)
(-0.85901222 0 0)
(-0.85561164 0 0)
(-0.85196657 0 0)
(-0.84807722 0 0)
(-0.84394379 0 0)
(-0.83956657 0 0)
(-0.83494563 0 0)
(-0.82977944 0 0)
(-0.88065316 -0 -0)
(-0.88051876 0 0)
(-0.88011819 0 0)
(-0.8794563 0 0)
(-0.87853699 0 0)
(-0.87736336 0 0)
(-0.87593784 0 0)
(-0.87426235 0 0)
(-0.87233838 0 0)
(-0.87016704 0 0)
(-0.86774926 0 0)
(-0.86508573 0 0)
(-0.86217706 0 0)
(-0.85902371 0 0)
(-0.85562605 0 0)
(-0.85198439 0 0)
(-0.84809901 0 0)
(-0.84397022 0 0)
(-0.83959837 0 0)
(-0.83498378 0 0)
(-0.82981004 0 0)
(-0.88065316 -0 -0)
(-0.88051846 0 0)
(-0.88011709 0 0)
(-0.87945404 0 0)
(-0.87853334 0 0)
(-0.87735815 0 0)
(-0.87593098 0 0)
(-0.87425375 0 0)
(-0.87232795 0 0)
(-0.87015469 0 0)
(-0.86773485 0 0)
(-0.86506912 0 0)
(-0.86215806 0 0)
(-0.85900213 0 0)
(-0.85560171 0 0)
(-0.85195712 0 0)
(-0.84806869 0 0)
(-0.84393674 0 0)
(-0.83956165 0 0)
(-0.834944 0 0)
(-0.82976265 0 0)
(-0.88065316 -0 -0)
(-0.8805201 0 0)
(-0.88012234 0 0)
(-0.87946241 0 0)
(-0.8785422 0 0)
(-0.87736306 0 0)
(-0.87592589 0 0)
(-0.87423123 0 0)
(-0.87227926 0 0)
(-0.87006989 0 0)
(-0.86760271 0 0)
(-0.86487714 0 0)
(-0.86189239 0 0)
(-0.85864749 0 0)
(-0.85514135 0 0)
(-0.85137274 0 0)
(-0.84734035 0 0)
(-0.8430428 0 0)
(-0.83847868 0 0)
(-0.83364283 0 0)
(-0.82810414 0 0)
(-0.88065316 -0 -0)
(-0.88052006 0 0)
(-0.88012219 0 0)
(-0.87946214 0 0)
(-0.87854185 0 0)
(-0.87736266 0 0)
(-0.87592551 0 0)
(-0.87423095 0 0)
(-0.87227917 0 0)
(-0.87007006 0 0)
(-0.86760324 0 0)
(-0.8648781 0 0)
(-0.86189383 0 0)
(-0.85864945 0 0)
(-0.85514381 0 0)
(-0.85137565 0 0)
(-0.84734359 0 0)
(-0.84304619 0 0)
(-0.83848195 0 0)
(-0.83364565 0 0)
(-0.82811084 0 0)
(-0.88065316 -0 -0)
(-0.88051983 0 0)
(-0.88012134 0 0)
(-0.87946034 0 0)
(-0.87853886 0 0)
(-0.87735828 0 0)
(-0.87591958 0 0)
(-0.87422332 0 0)
(-0.87226974 0 0)
(-0.87005873 0 0)
(-0.86758992 0 0)
(-0.86486269 0 0)
(-0.86187622 0 0)
(-0.85862949 0 0)
(-0.85512133 0 0)
(-0.85135042 0 0)
(-0.84731534 0 0)
(-0.84301455 0 0)
(-0.8384465 0 0)
(-0.83360605 0 0)
(-0.82808232 0 0)
(-0.88065316 -0 -0)
(-0.8805197 0 0)
(-0.88012083 0 0)
(-0.87945932 0 0)
(-0.87853722 0 0)
(-0.877356 0 0)
(-0.87591663 0 0)
(-0.87421974 0 0)
(-0.87226555 0 0)
(-0.87005398 0 0)
(-0.86758463 0 0)
(-0.86485691 0 0)
(-0.86186993 0 0)
(-0.85862267 0 0)
(-0.85511389 0 0)
(-0.85134222 0 0)
(-0.84730617 0 0)
(-0.84300411 0 0)
(-0.83843442 0 0)
(-0.8335921 0 0)
(-0.82809081 0 0)
(-0.88065316 -0 -0)
(-0.88051965 0 0)
(-0.88012067 0 0)
(-0.87945906 0 0)
(-0.87853694 0 0)
(-0.8773558 0 0)
(-0.87591668 0 0)
(-0.8742202 0 0)
(-0.87226662 0 0)
(-0.87005585 0 0)
(-0.86758749 0 0)
(-0.86486091 0 0)
(-0.86187522 0 0)
(-0.85862934 0 0)
(-0.85512199 0 0)
(-0.85135172 0 0)
(-0.84731695 0 0)
(-0.84301598 0 0)
(-0.83844705 0 0)
(-0.83360544 0 0)
(-0.82813798 0 0)
(-0.88065316 -0 -0)
(-0.88051968 0 0)
(-0.88012084 0 0)
(-0.87945954 0 0)
(-0.87853797 0 0)
(-0.87735767 0 0)
(-0.87591969 0 0)
(-0.8742247 0 0)
(-0.87227294 0 0)
(-0.87006436 0 0)
(-0.86759852 0 0)
(-0.86487481 0 0)
(-0.86189227 0 0)
(-0.85864981 0 0)
(-0.85514606 0 0)
(-0.85137954 0 0)
(-0.84734855 0 0)
(-0.84305129 0 0)
(-0.83848589 0 0)
(-0.83364789 0 0)
(-0.82822565 0 0)
(-0.88065316 -0 -0)
(-0.8805198 0 0)
(-0.88012135 0 0)
(-0.87946077 0 0)
(-0.87854032 0 0)
(-0.87736159 0 0)
(-0.87592565 0 0)
(-0.87423321 0 0)
(-0.87228452 0 0)
(-0.87007953 0 0)
(-0.86761782 0 0)
(-0.86489874 0 0)
(-0.86192134 0 0)
(-0.85868448 0 0)
(-0.85518675 0 0)
(-0.85142658 0 0)
(-0.84740222 0 0)
(-0.84311173 0 0)
(-0.83855311 0 0)
(-0.83372217 0 0)
(-0.82835671 0 0)
(-0.88065316 -0 -0)
(-0.88052 0 0)
(-0.88012218 0 0)
(-0.87946273 0 0)
(-0.87854398 0 0)
(-0.87736754 0 0)
(-0.87593455 0 0)
(-0.87424573 0 0)
(-0.87230136 0 0)
(-0.87010141 0 0)
(-0.86764548 0 0)
(-0.8649329 0 0)
(-0.86196273 0 0)
(-0.85873382 0 0)
(-0.85524474 0 0)
(-0.8514939 0 0)
(-0.84747945 0 0)
(-0.84319941 0 0)
(-0.83865163 0 0)
(-0.83383216 0 0)
(-0.82853548 0 0)
(-0.88065316 -0 -0)
(-0.88052028 0 0)
(-0.88012334 0 0)
(-0.87946543 0 0)
(-0.87854893 0 0)
(-0.87737552 0 0)
(-0.87594637 0 0)
(-0.87426224 0 0)
(-0.87232346 0 0)
(-0.87013003 0 0)
(-0.86768155 0 0)
(-0.86497741 0 0)
(-0.86201669 0 0)
(-0.85879825 0 0)
(-0.8553207 0 0)
(-0.85158246 0 0)
(-0.84758173 0 0)
(-0.84331655 0 0)
(-0.83878479 0 0)
(-0.83398288 0 0)
(-0.82876825 0 0)
(-0.88065316 -0 -0)
(-0.88052065 0 0)
(-0.88012483 0 0)
(-0.87946886 0 0)
(-0.87855518 0 0)
(-0.87738549 0 0)
(-0.87596107 0 0)
(-0.8742827 0 0)
(-0.87235078 0 0)
(-0.87016532 0 0)
(-0.86772602 0 0)
(-0.86503229 0 0)
(-0.86208328 0 0)
(-0.85887791 0 0)
(-0.85541489 0 0)
(-0.85169272 0 0)
(-0.84770977 0 0)
(-0.84346435 0 0)
(-0.83895482 0 0)
(-0.83417779 0 0)
(-0.82906069 0 0)
(-0.88065316 -0 -0)
(-0.8805201 0 0)
(-0.88012234 0 0)
(-0.87946241 0 0)
(-0.8785422 0 0)
(-0.87736306 0 0)
(-0.87592589 0 0)
(-0.87423123 0 0)
(-0.87227926 0 0)
(-0.87006989 0 0)
(-0.86760271 0 0)
(-0.86487714 0 0)
(-0.86189239 0 0)
(-0.85864749 0 0)
(-0.85514135 0 0)
(-0.85137274 0 0)
(-0.84734035 0 0)
(-0.8430428 0 0)
(-0.83847868 0 0)
(-0.83364283 0 0)
(-0.82810414 0 0)
(-0.88065316 -0 -0)
(-0.88052006 0 0)
(-0.88012219 0 0)
(-0.87946214 0 0)
(-0.87854185 0 0)
(-0.87736266 0 0)
(-0.87592551 0 0)
(-0.87423095 0 0)
(-0.87227917 0 0)
(-0.87007006 0 0)
(-0.86760324 0 0)
(-0.8648781 0 0)
(-0.86189383 0 0)
(-0.85864945 0 0)
(-0.85514381 0 0)
(-0.85137565 0 0)
(-0.84734359 0 0)
(-0.84304619 0 0)
(-0.83848195 0 0)
(-0.83364565 0 0)
(-0.82811084 0 0)
(-0.88065316 -0 -0)
(-0.88051983 0 0)
(-0.88012134 0 0)
(-0.87946034 0 0)
(-0.87853886 0 0)
(-0.87735828 0 0)
(-0.87591958 0 0)
(-0.87422332 0 0)
(-0.87226974 0 0)
(-0.87005873 0 0)
(-0.86758992 0 0)
(-0.86486269 0 0)
(-0.86187622 0 0)
(-0.85862949 0 0)
(-0.85512133 0 0)
(-0.85135042 0 0)
(-0.84731534 0 0)
(-0.84301455 0 0)
(-0.8384465 0 0)
(-0.83360605 0 0)
(-0.82808232 0 0)
(-0.88065316 -0 -0)
(-0.8805197 0 0)
(-0.88012083 0 0)
(-0.87945932 0 0)
(-0.87853722 0 0)
(-0.877356 0 0)
(-0.87591663 0 0)
(-0.87421974 0 0)
(-0.87226555 0 0)
(-0.87005398 0 0)
(-0.86758463 0 0)
(-0.86485691 0 0)
(-0.86186993 0 0)
(-0.85862267 0 0)
(-0.85511389 0 0)
(-0.85134222 0 0)
(-0.84730617 0 0)
(-0.84300411 0 0)
(-0.83843442 0 0)
(-0.8335921 0 0)
(-0.82809081 0 0)
(-0.88065316 -0 -0)
(-0.88051965 0 0)
(-0.88012067 0 0)
(-0.87945906 0 0)
(-0.87853694 0 0)
(-0.8773558 0 0)
(-0.87591668 0 0)
(-0.8742202 0 0)
(-0.87226662 0 0)
(-0.87005585 0 0)
(-0.86758749 0 0)
(-0.86486091 0 0)
(-0.86187522 0 0)
(-0.85862934 0 0)
(-0.85512199 0 0)
(-0.85135172 0 0)
(-0.84731695 0 0)
(-0.84301598 0 0)
(-0.83844705 0 0)
(-0.83360544 0 0)
(-0.82813798 0 0)
(-0.88065316 -0 -0)
(-0.88051968 0 0)
(-0.88012084 0 0)
(-0.87945954 0 0)
(-0.87853797 0 0)
(-0.87735767 0 0)
(-0.87591969 0 0)
(-0.8742247 0 0)
(-0.87227294 0 0)
(-0.87006436 0 0)
(-0.86759852 0 0)
(-0.86487481 0 0)
(-0.86189227 0 0)
(-0.85864981 0 0)
(-0.85514606 0 0)
(-0.85137954 0 0)
(-0.84734855 0 0)
(-0.84305129 0 0)
(-0.83848589 0 0)
(-0.83364789 0 0)
(-0.82822565 0 0)
(-0.88065316 -0 -0)
(-0.8805198 0 0)
(-0.88012135 0 0)
(-0.87946077 0 0)
(-0.87854032 0 0)
(-0.87736159 0 0)
(-0.87592565 0 0)
(-0.87423321 0 0)
(-0.87228452 0 0)
(-0.87007953 0 0)
(-0.86761782 0 0)
(-0.86489874 0 0)
(-0.86192134 0 0)
(-0.85868448 0 0)
(-0.85518675 0 0)
(-0.85142658 0 0)
(-0.84740222 0 0)
(-0.84311173 0 0)
(-0.83855311 0 0)
(-0.83372217 0 0)
(-0.82835671 0 0)
(-0.88065316 -0 -0)
(-0.88052 0 0)
(-0.88012218 0 0)
(-0.87946273 0 0)
(-0.87854398 0 0)
(-0.87736754 0 0)
(-0.87593455 0 0)
(-0.87424573 0 0)
(-0.87230136 0 0)
(-0.87010141 0 0)
(-0.86764548 0 0)
(-0.8649329 0 0)
(-0.86196273 0 0)
(-0.85873382 0 0)
(-0.85524474 0 0)
(-0.8514939 0 0)
(-0.84747945 0 0)
(-0.84319941 0 0)
(-0.83865163 0 0)
(-0.83383216 0 0)
(-0.82853548 0 0)
(-0.88065316 -0 -0)
(-0.88052028 0 0)
(-0.88012334 0 0)
(-0.87946543 0 0)
(-0.87854893 0 0)
(-0.87737552 0 0)
(-0.87594637 0 0)
(-0.87426224 0 0)
(-0.87232346 0 0)
(-0.87013003 0 0)
(-0.86768155 0 0)
(-0.86497741 0 0)
(-0.86201669 0 0)
(-0.85879825 0 0)
(-0.8553207 0 0)
(-0.85158246 0 0)
(-0.84758173 0 0)
(-0.84331655 0 0)
(-0.83878479 0 0)
(-0.83398288 0 0)
(-0.82876825 0 0)
(-0.88065316 -0 -0)
(-0.88052065 0 0)
(-0.88012483 0 0)
(-0.87946886 0 0)
(-0.87855518 0 0)
(-0.87738549 0 0)
(-0.87596107 0 0)
(-0.8742827 0 0)
(-0.87235078 0 0)
(-0.87016532 0 0)
(-0.86772602 0 0)
(-0.86503229 0 0)
(-0.86208328 0 0)
(-0.85887791 0 0)
(-0.85541489 0 0)
(-0.85169272 0 0)
(-0.84770977 0 0)
(-0.84346435 0 0)
(-0.83895482 0 0)
(-0.83417779 0 0)
(-0.82906069 0 0)
(-0.82131476 0 0)
(-0.81367679 0 0)
(-0.80562544 0 0)
(-0.79717298 0 0)
(-0.78833087 0 0)
(-0.77911704 0 0)
(-0.76955576 0 0)
(-0.75966965 0 0)
(-0.74947609 0 0)
(-0.7389917 0 0)
(-0.72823594 0 0)
(-0.7172276 0 0)
(-0.70598176 0 0)
(-0.69450912 0 0)
(-0.68281807 0 0)
(-0.67091414 0 0)
(-0.65880303 0 0)
(-0.6464899 0 0)
(-0.63396967 0 0)
(-0.62124207 0 0)
(-0.6083078 0 0)
(-0.59516144 0 0)
(-0.5817869 0 0)
(-0.56817231 0 0)
(-0.55431788 0 0)
(-0.54021618 0 0)
(-0.52583364 0 0)
(-0.51114108 0 0)
(-0.49613358 0 0)
(-0.48078598 0 0)
(-0.46503264 0 0)
(-0.44880028 0 0)
(-0.43207265 0 0)
(-0.41486941 0 0)
(-0.39714112 0 0)
(-0.37877141 0 0)
(-0.35970413 0 0)
(-0.3399594 0 0)
(-0.31943622 0 0)
(-0.29795767 0 0)
(-0.27549562 0 0)
(-0.25193027 0 0)
(-0.22704461 0 0)
(-0.20067519 0 0)
(-0.17261493 0 0)
(-0.14265577 0 0)
(-0.1106347 0 0)
(-0.076378537 0 0)
(-0.039592129 0 0)
(0 0 0)
(-0.82133506 0 0)
(-0.81371499 0 0)
(-0.80567968 0 0)
(-0.79724104 0 0)
(-0.78841019 0 0)
(-0.7792052 0 0)
(-0.76965072 0 0)
(-0.75976957 0 0)
(-0.74957916 0 0)
(-0.73909612 0 0)
(-0.72833988 0 0)
(-0.71732927 0 0)
(-0.70607954 0 0)
(-0.69460184 0 0)
(-0.68290495 0 0)
(-0.67099455 0 0)
(-0.65887609 0 0)
(-0.64655483 0 0)
(-0.63402732 0 0)
(-0.6212932 0 0)
(-0.60835318 0 0)
(-0.59520151 0 0)
(-0.58182158 0 0)
(-0.56820077 0 0)
(-0.55434001 0 0)
(-0.54023321 0 0)
(-0.52584729 0 0)
(-0.51115181 0 0)
(-0.49614174 0 0)
(-0.48079262 0 0)
(-0.46503712 0 0)
(-0.44880449 0 0)
(-0.43207752 0 0)
(-0.41487453 0 0)
(-0.39714574 0 0)
(-0.37877447 0 0)
(-0.35970355 0 0)
(-0.33995435 0 0)
(-0.31942737 0 0)
(-0.29794395 0 0)
(-0.27548179 0 0)
(-0.25192092 0 0)
(-0.22703973 0 0)
(-0.20067458 0 0)
(-0.17261699 0 0)
(-0.1426587 0 0)
(-0.11063766 0 0)
(-0.076381361 0 0)
(-0.039593997 0 0)
(0 0 0)
(-0.82134792 0 0)
(-0.81378198 0 0)
(-0.80579698 0 0)
(-0.79740415 0 0)
(-0.78861427 0 0)
(-0.77944518 0 0)
(-0.76992169 0 0)
(-0.76006707 0 0)
(-0.74989895 0 0)
(-0.73943389 0 0)
(-0.72869127 0 0)
(-0.71769031 0 0)
(-0.70644686 0 0)
(-0.69497234 0 0)
(-0.68327568 0 0)
(-0.67136331 0 0)
(-0.65924093 0 0)
(-0.64691309 0 0)
(-0.63437827 0 0)
(-0.62163707 0 0)
(-0.60868965 0 0)
(-0.59552974 0 0)
(-0.58214095 0 0)
(-0.56851051 0 0)
(-0.5546394 0 0)
(-0.54052231 0 0)
(-0.52612748 0 0)
(-0.51142388 0 0)
(-0.49640579 0 0)
(-0.48104882 0 0)
(-0.46528482 0 0)
(-0.44904541 0 0)
(-0.43231165 0 0)
(-0.41510139 0 0)
(-0.39736513 0 0)
(-0.37898487 0 0)
(-0.35990169 0 0)
(-0.34013854 0 0)
(-0.31959796 0 0)
(-0.29809889 0 0)
(-0.27562439 0 0)
(-0.25205516 0 0)
(-0.22716579 0 0)
(-0.20079143 0 0)
(-0.17272138 0 0)
(-0.14274784 0 0)
(-0.1107094 0 0)
(-0.07643278 0 0)
(-0.039621098 0 0)
(0 0 0)
(-0.82142656 0 0)
(-0.81395099 0 0)
(-0.80605034 0 0)
(-0.79773484 0 0)
(-0.78901483 0 0)
(-0.77990784 0 0)
(-0.77043864 0 0)
(-0.76063082 0 0)
(-0.75050258 0 0)
(-0.74007067 0 0)
(-0.72935427 0 0)
(-0.71837306 0 0)
(-0.70714386 0 0)
(-0.6956787 0 0)
(-0.68398653 0 0)
(-0.67207451 0 0)
(-0.65994888 0 0)
(-0.64761423 0 0)
(-0.63507023 0 0)
(-0.62231845 0 0)
(-0.60935956 0 0)
(-0.59618669 0 0)
(-0.58278351 0 0)
(-0.56913728 0 0)
(-0.55524955 0 0)
(-0.54111573 0 0)
(-0.52670473 0 0)
(-0.51198519 0 0)
(-0.49695149 0 0)
(-0.48157929 0 0)
(-0.46579875 0 0)
(-0.44954383 0 0)
(-0.43279467 0 0)
(-0.4155686 0 0)
(-0.39781588 0 0)
(-0.37941728 0 0)
(-0.36031255 0 0)
(-0.34052536 0 0)
(-0.31995953 0 0)
(-0.29843317 0 0)
(-0.2759335 0 0)
(-0.25234133 0 0)
(-0.22742954 0 0)
(-0.2010316 0 0)
(-0.17293325 0 0)
(-0.14292711 0 0)
(-0.11085262 0 0)
(-0.076534598 0 0)
(-0.039674453 0 0)
(0 0 0)
(-0.82157222 0 0)
(-0.81422277 0 0)
(-0.80644006 0 0)
(-0.79823306 0 0)
(-0.78961156 0 0)
(-0.78059264 0 0)
(-0.77120096 0 0)
(-0.76146042 0 0)
(-0.75138981 0 0)
(-0.74100628 0 0)
(-0.73032889 0 0)
(-0.71937781 0 0)
(-0.70817099 0 0)
(-0.69672119 0 0)
(-0.68503749 0 0)
(-0.67312817 0 0)
(-0.66100026 0 0)
(-0.64865797 0 0)
(-0.63610284 0 0)
(-0.62333746 0 0)
(-0.61036263 0 0)
(-0.59717138 0 0)
(-0.58374801 0 0)
(-0.57008015 0 0)
(-0.55616941 0 0)
(-0.54201176 0 0)
(-0.52757708 0 0)
(-0.51283408 0 0)
(-0.49777706 0 0)
(-0.48238157 0 0)
(-0.46657673 0 0)
(-0.45029769 0 0)
(-0.43352393 0 0)
(-0.41627325 0 0)
(-0.39849552 0 0)
(-0.38006939 0 0)
(-0.36093312 0 0)
(-0.34111159 0 0)
(-0.32050986 0 0)
(-0.29894454 0 0)
(-0.27640639 0 0)
(-0.2527773 0 0)
(-0.22782939 0 0)
(-0.20139336 0 0)
(-0.17325083 0 0)
(-0.14319516 0 0)
(-0.11106637 0 0)
(-0.076686023 0 0)
(-0.039753591 0 0)
(0 0 0)
(-0.82178622 0 0)
(-0.81459802 0 0)
(-0.80696645 0 0)
(-0.79889885 0 0)
(-0.79040436 0 0)
(-0.78149964 0 0)
(-0.77220876 0 0)
(-0.76255584 0 0)
(-0.75256067 0 0)
(-0.74224111 0 0)
(-0.73161589 0 0)
(-0.72070528 0 0)
(-0.7095288 0 0)
(-0.69810033 0 0)
(-0.68642922 0 0)
(-0.6745247 0 0)
(-0.662395 0 0)
(-0.65004459 0 0)
(-0.63747603 0 0)
(-0.62469335 0 0)
(-0.61169797 0 0)
(-0.59848299 0 0)
(-0.58503319 0 0)
(-0.57133701 0 0)
(-0.55739672 0 0)
(-0.54320851 0 0)
(-0.52874233 0 0)
(-0.51396737 0 0)
(-0.49887898 0 0)
(-0.48345257 0 0)
(-0.46761519 0 0)
(-0.45130309 0 0)
(-0.43449604 0 0)
(-0.41721202 0 0)
(-0.3994001 0 0)
(-0.38093699 0 0)
(-0.36175986 0 0)
(-0.34189426 0 0)
(-0.32124535 0 0)
(-0.29962985 0 0)
(-0.27704059 0 0)
(-0.25336023 0 0)
(-0.22836242 0 0)
(-0.20187436 0 0)
(-0.17367214 0 0)
(-0.1435501 0 0)
(-0.11134901 0 0)
(-0.076885999 0 0)
(-0.03985801 0 0)
(0 0 0)
(-0.82207084 0 0)
(-0.81507826 0 0)
(-0.80763051 0 0)
(-0.7997329 0 0)
(-0.79139394 0 0)
(-0.78262959 0 0)
(-0.77346314 0 0)
(-0.76391834 0 0)
(-0.75401604 0 0)
(-0.74377607 0 0)
(-0.73321686 0 0)
(-0.72235743 0 0)
(-0.711219 0 0)
(-0.69981747 0 0)
(-0.6881629 0 0)
(-0.67626547 0 0)
(-0.66413429 0 0)
(-0.65177439 0 0)
(-0.63919006 0 0)
(-0.62638639 0 0)
(-0.61336514 0 0)
(-0.60012022 0 0)
(-0.58663759 0 0)
(-0.57290638 0 0)
(-0.55892937 0 0)
(-0.54470303 0 0)
(-0.53019737 0 0)
(-0.51538204 0 0)
(-0.50025375 0 0)
(-0.48478802 0 0)
(-0.46891014 0 0)
(-0.45255608 0 0)
(-0.43570634 0 0)
(-0.41838009 0 0)
(-0.4005253 0 0)
(-0.38201578 0 0)
(-0.36278792 0 0)
(-0.34286842 0 0)
(-0.32216191 0 0)
(-0.30048474 0 0)
(-0.27783161 0 0)
(-0.25408653 0 0)
(-0.22902563 0 0)
(-0.20247146 0 0)
(-0.17419427 0 0)
(-0.14398961 0 0)
(-0.11169881 0 0)
(-0.077133251 0 0)
(-0.039986967 0 0)
(0 0 0)
(-0.82242973 0 0)
(-0.81566618 0 0)
(-0.80843416 0 0)
(-0.80073653 0 0)
(-0.79258109 0 0)
(-0.78398376 0 0)
(-0.77496615 0 0)
(-0.76554983 0 0)
(-0.75575804 0 0)
(-0.7456148 0 0)
(-0.73513577 0 0)
(-0.72433703 0 0)
(-0.71324373 0 0)
(-0.70187482 0 0)
(-0.6902406 0 0)
(-0.67835212 0 0)
(-0.66621966 0 0)
(-0.65384879 0 0)
(-0.64124535 0 0)
(-0.62841637 0 0)
(-0.61536387 0 0)
(-0.60208243 0 0)
(-0.5885596 0 0)
(-0.5747858 0 0)
(-0.56076471 0 0)
(-0.54649272 0 0)
(-0.53193896 0 0)
(-0.5170739 0 0)
(-0.50189686 0 0)
(-0.48638353 0 0)
(-0.47045648 0 0)
(-0.45405152 0 0)
(-0.43715 0 0)
(-0.41977238 0 0)
(-0.40186549 0 0)
(-0.38330021 0 0)
(-0.36401241 0 0)
(-0.34402935 0 0)
(-0.3232544 0 0)
(-0.30150456 0 0)
(-0.27877523 0 0)
(-0.25495197 0 0)
(-0.22981491 0 0)
(-0.20318114 0 0)
(-0.17481418 0 0)
(-0.14451094 0 0)
(-0.11211338 0 0)
(-0.077426168 0 0)
(-0.040139727 0 0)
(0 0 0)
(-0.82286865 0 0)
(-0.81636606 0 0)
(-0.80938058 0 0)
(-0.80191164 0 0)
(-0.79396812 0 0)
(-0.78556635 0 0)
(-0.7767239 0 0)
(-0.76745977 0 0)
(-0.75779778 0 0)
(-0.74776317 0 0)
(-0.73737377 0 0)
(-0.72664687 0 0)
(-0.71560785 0 0)
(-0.70427718 0 0)
(-0.69266662 0 0)
(-0.68078869 0 0)
(-0.66865426 0 0)
(-0.65626904 0 0)
(-0.64364246 0 0)
(-0.63078366 0 0)
(-0.61769387 0 0)
(-0.60436836 0 0)
(-0.59079729 0 0)
(-0.57697304 0 0)
(-0.56289995 0 0)
(-0.54857394 0 0)
(-0.53396313 0 0)
(-0.51903887 0 0)
(-0.50380351 0 0)
(-0.48823347 0 0)
(-0.47224882 0 0)
(-0.45578392 0 0)
(-0.43882092 0 0)
(-0.42138257 0 0)
(-0.40341469 0 0)
(-0.38478443 0 0)
(-0.36542697 0 0)
(-0.34537062 0 0)
(-0.32451726 0 0)
(-0.3026834 0 0)
(-0.27986581 0 0)
(-0.255952 0 0)
(-0.23072611 0 0)
(-0.20399934 0 0)
(-0.17552816 0 0)
(-0.14511097 0 0)
(-0.11259036 0 0)
(-0.077763046 0 0)
(-0.040315381 0 0)
(0 0 0)
(-0.82339391 0 0)
(-0.81718223 0 0)
(-0.81047209 0 0)
(-0.80326206 0 0)
(-0.79556215 0 0)
(-0.78738349 0 0)
(-0.77873936 0 0)
(-0.76964979 0 0)
(-0.76013563 0 0)
(-0.75022122 0 0)
(-0.73993228 0 0)
(-0.72928904 0 0)
(-0.71831318 0 0)
(-0.70702631 0 0)
(-0.69544172 0 0)
(-0.68357248 0 0)
(-0.67143287 0 0)
(-0.65903125 0 0)
(-0.64637825 0 0)
(-0.6334849 0 0)
(-0.62035127 0 0)
(-0.60697295 0 0)
(-0.59334451 0 0)
(-0.57946125 0 0)
(-0.56532805 0 0)
(-0.55093972 0 0)
(-0.53626247 0 0)
(-0.5212688 0 0)
(-0.50596523 0 0)
(-0.49032936 0 0)
(-0.47427807 0 0)
(-0.45774446 0 0)
(-0.44071073 0 0)
(-0.42320222 0 0)
(-0.4051641 0 0)
(-0.38645969 0 0)
(-0.36702363 0 0)
(-0.34688469 0 0)
(-0.32594281 0 0)
(-0.30401445 0 0)
(-0.28109715 0 0)
(-0.25708065 0 0)
(-0.23175359 0 0)
(-0.20492113 0 0)
(-0.17633188 0 0)
(-0.14578594 0 0)
(-0.11312669 0 0)
(-0.078141875 0 0)
(-0.040512944 0 0)
(0 0 0)
(-0.82262114 0 0)
(-0.81669594 0 0)
(-0.81026359 0 0)
(-0.80332609 0 0)
(-0.79588827 0 0)
(-0.78795239 0 0)
(-0.77953279 0 0)
(-0.77065111 0 0)
(-0.76132371 0 0)
(-0.75157288 0 0)
(-0.74142815 0 0)
(-0.73091122 0 0)
(-0.7200428 0 0)
(-0.70884468 0 0)
(-0.69733092 0 0)
(-0.68551632 0 0)
(-0.67341846 0 0)
(-0.66104702 0 0)
(-0.64841319 0 0)
(-0.63552803 0 0)
(-0.62239115 0 0)
(-0.60900092 0 0)
(-0.59535544 0 0)
(-0.58145095 0 0)
(-0.56729317 0 0)
(-0.55287654 0 0)
(-0.53816618 0 0)
(-0.52313492 0 0)
(-0.507792 0 0)
(-0.49211706 0 0)
(-0.47602575 0 0)
(-0.45944946 0 0)
(-0.44236961 0 0)
(-0.42481272 0 0)
(-0.40672594 0 0)
(-0.38796884 0 0)
(-0.36847451 0 0)
(-0.3482703 0 0)
(-0.32725762 0 0)
(-0.30525142 0 0)
(-0.28224884 0 0)
(-0.25814398 0 0)
(-0.23272814 0 0)
(-0.20580168 0 0)
(-0.17710541 0 0)
(-0.14644077 0 0)
(-0.11365166 0 0)
(-0.078517084 0 0)
(-0.040713111 0 0)
(0 0 0)
(-0.82131476 0 0)
(-0.81367679 0 0)
(-0.80562544 0 0)
(-0.79717298 0 0)
(-0.78833087 0 0)
(-0.77911704 0 0)
(-0.76955576 0 0)
(-0.75966965 0 0)
(-0.74947609 0 0)
(-0.7389917 0 0)
(-0.72823594 0 0)
(-0.7172276 0 0)
(-0.70598176 0 0)
(-0.69450912 0 0)
(-0.68281807 0 0)
(-0.67091414 0 0)
(-0.65880303 0 0)
(-0.6464899 0 0)
(-0.63396967 0 0)
(-0.62124207 0 0)
(-0.6083078 0 0)
(-0.59516144 0 0)
(-0.5817869 0 0)
(-0.56817231 0 0)
(-0.55431788 0 0)
(-0.54021618 0 0)
(-0.52583364 0 0)
(-0.51114108 0 0)
(-0.49613358 0 0)
(-0.48078598 0 0)
(-0.46503264 0 0)
(-0.44880028 0 0)
(-0.43207265 0 0)
(-0.41486941 0 0)
(-0.39714112 0 0)
(-0.37877141 0 0)
(-0.35970413 0 0)
(-0.3399594 0 0)
(-0.31943622 0 0)
(-0.29795767 0 0)
(-0.27549562 0 0)
(-0.25193027 0 0)
(-0.22704461 0 0)
(-0.20067519 0 0)
(-0.17261493 0 0)
(-0.14265577 0 0)
(-0.1106347 0 0)
(-0.076378537 0 0)
(-0.039592129 0 0)
(0 0 0)
(-0.82133506 0 0)
(-0.81371499 0 0)
(-0.80567968 0 0)
(-0.79724104 0 0)
(-0.78841019 0 0)
(-0.7792052 0 0)
(-0.76965072 0 0)
(-0.75976957 0 0)
(-0.74957916 0 0)
(-0.73909612 0 0)
(-0.72833988 0 0)
(-0.71732927 0 0)
(-0.70607954 0 0)
(-0.69460184 0 0)
(-0.68290495 0 0)
(-0.67099455 0 0)
(-0.65887609 0 0)
(-0.64655483 0 0)
(-0.63402732 0 0)
(-0.6212932 0 0)
(-0.60835318 0 0)
(-0.59520151 0 0)
(-0.58182158 0 0)
(-0.56820077 0 0)
(-0.55434001 0 0)
(-0.54023321 0 0)
(-0.52584729 0 0)
(-0.51115181 0 0)
(-0.49614174 0 0)
(-0.48079262 0 0)
(-0.46503712 0 0)
(-0.44880449 0 0)
(-0.43207752 0 0)
(-0.41487453 0 0)
(-0.39714574 0 0)
(-0.37877447 0 0)
(-0.35970355 0 0)
(-0.33995435 0 0)
(-0.31942737 0 0)
(-0.29794395 0 0)
(-0.27548179 0 0)
(-0.25192092 0 0)
(-0.22703973 0 0)
(-0.20067458 0 0)
(-0.17261699 0 0)
(-0.1426587 0 0)
(-0.11063766 0 0)
(-0.076381361 0 0)
(-0.039593997 0 0)
(0 0 0)
(-0.82134792 0 0)
(-0.81378198 0 0)
(-0.80579698 0 0)
(-0.79740415 0 0)
(-0.78861427 0 0)
(-0.77944518 0 0)
(-0.76992169 0 0)
(-0.76006707 0 0)
(-0.74989895 0 0)
(-0.73943389 0 0)
(-0.72869127 0 0)
(-0.71769031 0 0)
(-0.70644686 0 0)
(-0.69497234 0 0)
(-0.68327568 0 0)
(-0.67136331 0 0)
(-0.65924093 0 0)
(-0.64691309 0 0)
(-0.63437827 0 0)
(-0.62163707 0 0)
(-0.60868965 0 0)
(-0.59552974 0 0)
(-0.58214095 0 0)
(-0.56851051 0 0)
(-0.5546394 0 0)
(-0.54052231 0 0)
(-0.52612748 0 0)
(-0.51142388 0 0)
(-0.49640579 0 0)
(-0.48104882 0 0)
(-0.46528482 0 0)
(-0.44904541 0 0)
(-0.43231165 0 0)
(-0.41510139 0 0)
(-0.39736513 0 0)
(-0.37898487 0 0)
(-0.35990169 0 0)
(-0.34013854 0 0)
(-0.31959796 0 0)
(-0.29809889 0 0)
(-0.27562439 0 0)
(-0.25205516 0 0)
(-0.22716579 0 0)
(-0.20079143 0 0)
(-0.17272138 0 0)
(-0.14274784 0 0)
(-0.1107094 0 0)
(-0.07643278 0 0)
(-0.039621098 0 0)
(0 0 0)
(-0.82142656 0 0)
(-0.81395099 0 0)
(-0.80605034 0 0)
(-0.79773484 0 0)
(-0.78901483 0 0)
(-0.77990784 0 0)
(-0.77043864 0 0)
(-0.76063082 0 0)
(-0.75050258 0 0)
(-0.74007067 0 0)
(-0.72935427 0 0)
(-0.71837306 0 0)
(-0.70714386 0 0)
(-0.6956787 0 0)
(-0.68398653 0 0)
(-0.67207451 0 0)
(-0.65994888 0 0)
(-0.64761423 0 0)
(-0.63507023 0 0)
(-0.62231845 0 0)
(-0.60935956 0 0)
(-0.59618669 0 0)
(-0.58278351 0 0)
(-0.56913728 0 0)
(-0.55524955 0 0)
(-0.54111573 0 0)
(-0.52670473 0 0)
(-0.51198519 0 0)
(-0.49695149 0 0)
(-0.48157929 0 0)
(-0.46579875 0 0)
(-0.44954383 0 0)
(-0.43279467 0 0)
(-0.4155686 0 0)
(-0.39781588 0 0)
(-0.37941728 0 0)
(-0.36031255 0 0)
(-0.34052536 0 0)
(-0.31995953 0 0)
(-0.29843317 0 0)
(-0.2759335 0 0)
(-0.25234133 0 0)
(-0.22742954 0 0)
(-0.2010316 0 0)