/*--------------------------------*- C++ -*----------------------------------*\
| =========                 |                                                 |
| \\      /  F ield         | OpenFOAM: The Open Source CFD Toolbox           |
|  \\    /   O peration     | Version:  v2012                                 |
|   \\  /    A nd           | Website:  www.openfoam.com                      |
|    \\/     M anipulation  |                                                 |
\*---------------------------------------------------------------------------*/
FoamFile
{
    version     2.0;
    format      ascii;
    class       volVectorField;
    location    "49.8824687878157391";
    object      U;
}
// * * * * * * * * * * * * * * * * * * * * * * * * * * * * * * * * * * * * * //

dimensions      [0 1 -1 0 0 0 0];


internalField   nonuniform List<vector> 
9200
(
(2.6504264 -0.0011124209 9.919787e-22)
(2.6494428 -0.0044382853 0)
(2.6551525 -0.0017539747 -1.1387847e-22)
(2.648266 -0.0066638083 0)
(2.6544062 -0.0075325723 2.6205537e-22)
(2.6594025 -0.0020500138 -5.4478045e-22)
(2.6461308 -0.0093005769 -2.7200648e-23)
(2.6532105 -0.011779849 -8.8190401e-22)
(2.6591083 -0.0086968283 1.8602523e-22)
(2.6644303 -0.0022449722 3.0299716e-22)
(2.6432093 -0.011251112 4.6764984e-22)
(2.6511619 -0.01697759 1.2476042e-21)
(2.6583221 -0.0138357 3.8299979e-22)
(2.6646979 -0.0095998074 -1.0530037e-22)
(2.6695 -0.0022510259 -4.4137006e-22)
(2.6393825 -0.013040064 1.0809992e-21)
(2.6480391 -0.021749629 1.9720795e-21)
(2.6569441 -0.020248179 6.8569902e-22)
(2.6645704 -0.015546582 6.3001063e-22)
(2.6704828 -0.0097694948 -1.0477445e-21)
(2.6742893 -0.0020686456 -4.7395504e-24)
(2.6345949 -0.014187538 0)
(2.6438005 -0.026741365 -1.338557e-22)
(2.6544712 -0.02654999 -2.1272118e-21)
(2.6642057 -0.023153218 -2.0153703e-21)
(2.671332 -0.016105632 1.497228e-22)
(2.676084 -0.0092014953 4.054252e-22)
(2.6784397 -0.0016888852 -1.711524e-22)
(2.6288992 -0.014799189 1.4229442e-21)
(2.6382066 -0.031399418 1.5145368e-22)
(2.6508189 -0.033417531 -3.1615357e-21)
(2.6628173 -0.031116819 -2.9443826e-21)
(2.6724606 -0.024463611 -8.2589039e-22)
(2.6781687 -0.015466766 6.1658312e-22)
(2.6810593 -0.0078245735 -5.1058894e-22)
(2.6816017 -0.0010903741 1.2679485e-21)
(2.6223556 -0.014686353 4.7479549e-23)
(2.6313062 -0.035687107 -1.6747225e-22)
(2.6455742 -0.040317449 1.8978454e-21)
(2.6602679 -0.040173006 5.148883e-21)
(2.6728462 -0.03373637 5.2762775e-21)
(2.6811892 -0.024051219 1.1144946e-21)
(2.6845783 -0.013465643 3.7971374e-22)
(2.6849963 -0.0056562941 6.5785192e-22)
(2.683419 -7.6390527e-05 -1.2988451e-21)
(2.6151304 -0.013876902 -1.1741736e-22)
(2.6231136 -0.039251542 -3.0416735e-22)
(2.6386286 -0.047137981 -3.4262608e-21)
(2.655938 -0.049889824 -2.2909466e-22)
(2.6723108 -0.04473458 1.8800111e-21)
(2.6839715 -0.034128349 5.6690816e-22)
(2.6897949 -0.021601984 -6.9929431e-23)
(2.6900172 -0.010054604 -8.7364762e-22)
(2.6876035 -0.0027751783 2.5119143e-21)
(2.6837025 0.0010071161 -1.8929716e-21)
(2.6074376 -0.012375 -6.3885541e-22)
(2.6138364 -0.041841077 3.5469784e-22)
(2.6298103 -0.053454013 7.6235878e-23)
(2.649533 -0.060148753 -4.1497767e-23)
(2.670049 -0.057222447 -3.720539e-21)
(2.6863408 -0.046597789 -7.2374484e-21)
(2.6954969 -0.031724802 -5.8288679e-21)
(2.6975598 -0.016986512 -2.1667923e-21)
(2.6939758 -0.0053170229 2.2424342e-21)
(2.6886356 0.00069049854 -1.3306462e-21)
(2.6824114 0.0021009257 -2.493361e-21)
(2.5995667 -0.010302549 -5.8814528e-23)
(2.6037612 -0.043147852 -1.4463164e-22)
(2.6191232 -0.058855753 1.6489464e-22)
(2.6406399 -0.070534198 -1.3997463e-21)
(2.6655794 -0.071169333 -5.0032025e-22)
(2.6873715 -0.061500057 -1.4969085e-22)
(2.7015897 -0.044822428 9.0633921e-22)
(2.7064667 -0.026202251 1.6726605e-22)
(2.7037538 -0.010268239 -2.2630264e-21)
(2.6960292 0.00048022662 5.8131155e-21)
(2.687833 0.0045220766 -2.6662184e-21)
(2.6795754 0.0032275296 2.1383748e-22)
(2.5918541 -0.0078018085 9.7828699e-22)
(2.5933098 -0.042880005 -1.8171705e-21)
(2.6066481 -0.062856934 5.2450214e-22)
(2.6290068 -0.080558738 2.0314885e-24)
(2.6582251 -0.08628942 -9.9177757e-23)
(2.6864525 -0.07898759 -7.3130454e-22)
(2.7071322 -0.061256379 4.5882911e-21)
(2.7168311 -0.038756685 -2.1010219e-21)
(2.7158262 -0.017519774 -2.8390459e-21)
(2.7077186 -0.0017544108 1.0793528e-21)
(2.6959456 0.0069719196 3.697758e-22)
(2.6851536 0.0084904326 -3.3788463e-21)
(2.6752876 0.0043127208 8.7949853e-21)
(2.584688 -0.0051950055 -2.6022023e-22)
(2.5829957 -0.040777353 1.1452598e-21)
(2.5925925 -0.064952894 -1.2370153e-21)
(2.6144438 -0.089628805 2.4855473e-23)
(2.6474333 -0.10214781 1.4710815e-21)
(2.6826841 -0.099033308 3.4326297e-21)
(2.7114952 -0.081437572 -1.2775293e-21)
(2.7278242 -0.055324948 -1.6301976e-21)
(2.7305921 -0.028126161 -9.7461653e-22)
(2.7225456 -0.0060178366 -4.3288926e-21)
(2.708972 0.0080360482 6.7850115e-21)
(2.6936411 0.013770732 -3.3926029e-21)
(2.6807632 0.01236049 -1.2315082e-21)
(2.6697438 0.005281365 -1.3957056e-21)
(2.5785283 -0.0025954876 -2.2356508e-22)
(2.5733955 -0.03659241 3.9329244e-21)
(2.5772591 -0.064653992 9.814953e-23)
(2.5968951 -0.09707037 1.8457162e-21)
(2.6326723 -0.11817692 -1.4993869e-21)
(2.675231 -0.12139764 2.0287671e-21)
(2.7136615 -0.10572006 2.8281837e-21)
(2.7389603 -0.076604146 9.0775751e-21)
(2.7474704 -0.04300544 1.4676836e-20)
(2.7412921 -0.013204325 2.9054044e-22)
(2.7258166 0.0075753805 -3.5795597e-21)
(2.7072608 0.018419727 2.0651618e-21)
(2.6891778 0.020431169 -2.0176007e-21)
(2.6748812 0.015924244 2.4390357e-21)
(2.663192 0.0061023716 -5.1857913e-21)
(2.5723506 -0.0010425769 0)
(2.5652595 -0.030111244 -6.0771107e-22)
(2.5610613 -0.061492601 6.690704e-21)
(2.5764356 -0.10217513 2.3502195e-22)
(2.6135352 -0.13366582 -3.2759325e-21)
(2.6632061 -0.14569316 -5.4421245e-21)
(2.7126043 -0.13421845 -1.632091e-21)
(2.7492831 -0.10340801 7.3983827e-21)
(2.7662989 -0.063090442 3.9444056e-21)
(2.7637584 -0.024351164 -1.1103091e-21)
(2.747574 0.005104138 4.7815014e-22)
(2.7251291 0.022274943 -1.1977902e-21)
(2.7026321 0.028663536 -3.4009891e-21)
(2.6828109 0.026563281 7.991141e-23)
(2.6677951 0.019021528 -3.2095896e-22)
(2.6558973 0.0067761596 1.5500926e-21)
(2.5681872 -0.001159601 -4.5663082e-22)
(2.5630415 -0.021066799 -1.361494e-20)
(2.5444609 -0.055147617 -3.1198856e-21)
(2.5532767 -0.10424202 1.0332164e-20)
(2.5897559 -0.14781788 1.1317378e-21)
(2.645799 -0.17130713 -1.0980365e-21)
(2.7071299 -0.16693128 -2.0328307e-21)
(2.7577618 -0.13634383 -7.2748163e-21)
(2.7864414 -0.089645572 -2.2611114e-20)
(2.7902356 -0.040457163 -7.6034739e-21)
(2.7744248 -0.00038233662 7.3920885e-21)
(2.7484871 0.02532505 -3.4670062e-21)
(2.720403 0.036940733 2.6545593e-21)
(2.6954086 0.038109489 4.1787038e-21)
(2.6749076 0.031871768 1.9531958e-21)
(2.6598303 0.021552201 1.7623891e-21)
(2.6481212 0.0072917048 2.793189e-21)
(2.5676957 -0.0022686607 -8.9383445e-22)
(2.5617001 -0.0099674965 -4.4401396e-21)
(2.5280489 -0.044845781 -1.2104974e-20)
(2.5276339 -0.10253306 4.594715e-21)
(2.5611601 -0.15976383 2.0907327e-21)
(2.6222675 -0.19744344 -5.1663247e-21)
(2.6959877 -0.2035567 7.2945872e-21)
(2.7630535 -0.17601264 -1.5859884e-21)
(2.8071639 -0.12383016 -6.0075316e-21)
(2.8207112 -0.063064726 5.9393105e-21)
(2.8072688 -0.0096724756 -1.7542432e-21)
(2.7778302 0.026901305 3.4876379e-22)
(2.7437228 0.045783759 -9.6877653e-22)
(2.7120269 0.050504306 1.420627e-21)
(2.68609 0.046252041 6.0777648e-21)
(2.6658893 0.036173069 3.6832355e-21)
(2.6513101 0.023474951 1.4945734e-21)
(2.6401061 0.0076466102 0)
(2.5700557 -0.0042225558 -3.6390278e-22)
(2.561256 0.0030450503 1.8624418e-20)
(2.5127357 -0.029681203 8.3542084e-22)
(2.4996125 -0.09639881 -6.2116767e-21)
(2.5276526 -0.16854949 5.7705029e-21)
(2.5918825 -0.22306269 1.4074255e-22)
(2.6777775 -0.24349471 -4.422585e-21)
(2.7635226 -0.22270031 -7.3509529e-21)
(2.8272803 -0.16700087 1.1529993e-20)
(2.8551338 -0.093776261 2.5096148e-20)
(2.8468069 -0.024192992 -1.1604786e-20)
(2.8145253 0.02668437 1.0441275e-20)
(2.7732611 0.054955128 1.1859858e-21)
(2.7337428 0.064768143 -9.0107141e-21)
(2.7007043 0.062137624 3.1387749e-21)
(2.6752725 0.052778667 2.4469258e-21)
(2.6561802 0.039391744 -5.6377118e-21)
(2.6425291 0.024796785 4.0368477e-21)
(2.6320621 0.0078509818 4.4796563e-23)
(2.5749043 -0.0078444983 4.9010456e-22)
(2.5644396 0.018977444 -2.5306825e-21)
(2.4971315 -0.009891011 1.1866256e-20)
(2.4696804 -0.0853632 -8.5071183e-21)
(2.4896035 -0.17350188 -5.4938131e-21)
(2.5544729 -0.24710724 -1.2441168e-20)
(2.6512804 -0.28576841 -7.5656227e-21)
(2.757224 -0.27637914 -1.9533341e-20)
(2.8450898 -0.22029925 -1.9655595e-20)
(2.8930012 -0.13466459 9.2506688e-21)
(2.893933 -0.045568636 -1.1112052e-20)
(2.8598991 0.023729828 -6.6150608e-21)
(2.8104862 0.064808185 0)
(2.7611538 0.081099664 -5.6152193e-21)
(2.7195587 0.080944522 1.0854256e-21)
(2.6873081 0.07133237 5.5507118e-21)
(2.6635602 0.057567556 -6.852887e-21)
(2.6461676 0.041543412 -3.3115812e-21)
(2.6337381 0.025560219 -4.0511407e-21)
(2.6241609 0.0079215766 -1.7773347e-21)
(2.580628 -0.01298376 1.1784466e-20)
(2.5721267 0.037766287 -2.6874227e-21)
(2.4827054 0.014005287 2.1299552e-21)
(2.438547 -0.069276878 -1.3001777e-20)
(2.4477991 -0.17436038 4.4041567e-21)
(2.5108894 -0.2690533 2.51504e-21)
(2.6166095 -0.32979051 6.357301e-21)
(2.7431004 -0.3369937 1.5944455e-20)
(2.8589263 -0.28488542 1.1819761e-20)
(2.9334386 -0.18787786 -2.3451537e-20)
(2.9494449 -0.076165106 -1.4189882e-20)
(2.9156491 0.01713427 1.2044796e-20)
(2.8570293 0.075194379 -9.0290019e-21)
(2.7955484 0.10052184 7.8382459e-21)
(2.7429975 0.1032033 -1.2652819e-20)
(2.7024787 0.093506132 3.8361878e-21)
(2.6727306 0.077901154 -2.9365734e-21)
(2.6515007 0.060655029 -4.0365476e-21)
(2.6361786 0.042710324 -4.6862603e-22)
(2.6251392 0.025830382 -9.5784672e-22)
(2.6165349 0.0078782181 1.8097025e-22)
(2.5864636 -0.019340651 8.0228428e-21)
(2.5836887 0.058980079 -2.3606896e-21)
(2.4700338 0.042239504 -5.013817e-21)
(2.4065233 -0.048294305 1.4253352e-20)
(2.4031274 -0.17096996 7.4538435e-21)
(2.4621967 -0.28829338 1.6399562e-21)
(2.5743517 -0.37468255 -3.1646804e-21)
(2.720871 -0.40481578 2.5427883e-20)
(2.8682265 -0.36266937 4.3309218e-20)
(2.976591 -0.25654222 -1.7791111e-20)
(3.0146255 -0.11878064 -2.873515e-21)
(2.9839155 0.0050474488 2.8497465e-20)
(2.9149209 0.08620302 -1.0334402e-20)
(2.8383481 0.12372938 4.6224579e-21)
(2.77188 0.13043701 8.9257511e-21)
(2.7207838 0.11999911 5.7946117e-21)
(2.6838464 0.10217962 -7.4866293e-21)
(2.6577711 0.081919534 -5.2287634e-21)
(2.6395468 0.062189712 7.7901519e-21)
(2.62647 0.043016072 -1.2092448e-21)
(2.6168846 0.025683797 9.4694443e-22)
(2.6092797 0.0077416929 3.0597885e-21)
(2.5844596 -0.027517893 -2.3639816e-20)
(2.5948793 0.081862497 6.8790387e-21)
(2.4586443 0.07510297 -4.7963153e-22)
(2.373685 -0.022439332 2.384631e-20)
(2.3561018 -0.16323911 7.6270417e-22)
(2.4090904 -0.30398176 5.3372537e-21)
(2.5239873 -0.41828306 1.2821399e-20)
(2.6878007 -0.476966 2.2669006e-20)
(2.8687331 -0.45322738 2.1566013e-20)
(3.0206292 -0.34427691 -6.5245668e-21)
(3.0921553 -0.17829257 1.4984606e-20)
(3.0691331 -0.014998075 -2.8378854e-20)
(2.9872915 0.097586361 1.2952461e-20)
(2.8913379 0.15197052 -2.1250063e-20)
(2.8070554 0.16396086 1.2668194e-20)
(2.7425401 0.15257752 -1.641437e-21)
(2.6965588 0.13110398 3.136336e-21)
(2.6648463 0.10712085 1.4734419e-22)
(2.6430748 0.083643672 4.2705838e-21)
(2.6280433 0.062386646 -2.3290248e-23)
(2.6172292 0.042603822 3.6174678e-21)
(2.6090812 0.025199673 -6.0640849e-21)
(2.602459 0.0075321773 -1.8976127e-21)
(2.5783259 -0.036949562 2.2998414e-20)
(2.6088039 0.10588209 5.3013945e-21)
(2.4475663 0.11218198 1.8707141e-21)
(2.3392931 0.00827802 -1.7936e-20)
(2.3069966 -0.1512956 1.6231773e-20)
(2.3522382 -0.31538376 -2.4374856e-21)
(2.4653864 -0.458003 2.2157474e-22)
(2.6401899 -0.54902757 -1.0393404e-20)
(2.8504958 -0.55082242 -5.2897893e-21)
(3.052236 -0.44744869 0)
(3.1749935 -0.25736656 7.3526946e-20)
(3.1742116 -0.047215203 3.7603157e-20)
(3.0805142 0.10826007 3.2334899e-21)
(2.9578144 0.18651152 -2.9344659e-21)
(2.8495549 0.20584477 -1.0357388e-20)
(2.7678823 0.19280847 4.0075155e-21)
(2.710663 0.16643527 -4.0094426e-21)
(2.6720874 0.13683023 6.3716562e-21)
(2.6464042 0.10876751 6.4131274e-21)
(2.629114 0.083429891 -1.3215499e-21)
(2.6172301 0.061488872 -7.7805328e-21)
(2.6085808 0.041619782 -4.4950187e-22)
(2.6017965 0.024453877 5.0716758e-21)
(2.5961094 0.0072681337 -1.1273886e-21)
(2.5682014 -0.04460295 1.6873302e-20)
(2.6022996 0.13096877 -9.5338479e-21)
(2.4345177 0.15416229 -4.416373e-22)
(2.3016622 0.043555938 -2.3300385e-20)
(2.255904 -0.13550187 1.239226e-21)
(2.2926951 -0.3222887 6.5609642e-21)
(2.3997914 -0.49195129 1.9200246e-20)
(2.5775271 -0.61688213 -8.231058e-21)
(2.8089968 -0.64993802 -7.2914278e-20)
(3.0561272 -0.56085287 -6.2434621e-20)
(3.2413516 -0.35016736 6.6084391e-20)
(3.2840436 -0.089861986 1.1295899e-19)
(3.194139 0.11744428 -1.6375484e-20)
(3.0435291 0.22842988 -3.3735899e-20)
(2.9016256 0.2583886 -2.4994811e-20)
(2.7968724 0.24302911 5.9148186e-21)
(2.7256393 0.20964362 -1.1380853e-20)
(2.678877 0.172622 4.4565569e-21)
(2.648696 0.13792053 4.3520958e-21)
(2.6291661 0.10770029 -9.5288245e-22)
(2.6161978 0.081669654 -6.3966884e-22)
(2.6072556 0.05973927 2.1114499e-21)
(2.6005969 0.040201992 -2.4015529e-21)
(2.5950657 0.023515185 2.5030235e-21)
(2.5902459 0.0069657842 1.3662105e-21)
(2.5447874 -0.048632089 -5.2002039e-20)
(2.5642963 0.15757513 8.7339362e-21)
(2.4063764 0.20030663 9.7921882e-21)
(2.2592891 0.083253572 1.8176626e-20)
(2.2023903 -0.11663236 -1.7933893e-20)
(2.2317809 -0.32502628 1.8958193e-21)
(2.3296474 -0.51931643 -1.1862556e-20)
(2.5023579 -0.67752675 -2.9236709e-20)
(2.7436036 -0.7467941 -2.352106e-20)
(3.030631 -0.67988893 2.6535423e-20)
(3.2834594 -0.45700811 9.2122252e-20)
(3.378217 -0.13869893 -1.1772204e-19)
(3.3073668 0.13106311 -2.613394e-20)
(3.1439505 0.28135368 7.2150374e-21)
(2.9669107 0.32474109 -1.8787764e-21)
(2.8300985 0.30580736 1.7685643e-20)
(2.7406937 0.2628435 -1.1910382e-20)
(2.6842173 0.21563548 -5.0384179e-21)
(2.6490637 0.17238999 -6.1580856e-21)
(2.6272555 0.13530989 -6.6069805e-21)
(2.6135233 0.10453551 1.785328e-21)
(2.6044985 0.07874403 2.2665128e-21)
(2.5981938 0.057362393 5.7169454e-21)
(2.5933083 0.038473714 9.6238024e-23)
(2.5888993 0.022443392 -2.5582393e-21)
(2.5848675 0.0066388783 -2.1617665e-21)
(2.5136082 -0.050472125 -3.1244741e-22)
(2.5200281 0.18687855 -2.1899477e-20)
(2.3563964 0.24601118 1.1214495e-20)
(2.2114282 0.12652237 -1.6369355e-21)
(2.145966 -0.095870666 -2.0556654e-21)
(2.170745 -0.32435345 1.9713669e-21)
(2.2576913 -0.53985331 2.4031809e-20)
(2.4181275 -0.72843762 1.2678182e-21)
(2.6562585 -0.836202 -5.4726626e-20)
(2.9697509 -0.80044536 -1.3383845e-20)
(3.2899859 -0.57718819 6.6006627e-20)
(3.4618787 -0.19843008 6.8107944e-20)
(3.4105839 0.1487646 -4.1484081e-20)
(3.2378188 0.35082637 -3.2774179e-20)
(3.0389266 0.41087082 -6.1973438e-20)
(2.8689342 0.38506308 1.748507e-20)
(2.7549362 0.32818271 1.2374701e-20)
(2.6867571 0.2674803 7.415189e-21)
(2.6462384 0.21287809 -1.0982609e-20)
(2.6223657 0.1672278 -7.5069043e-21)
(2.6082407 0.1299523 -1.9334676e-21)
(2.5996616 0.099854465 -2.0375448e-21)
(2.5940815 0.074996237 -1.3248987e-21)
(2.5900624 0.054554549 -1.4528897e-21)
(2.5867145 0.03654036 0)
(2.5832889 0.021288732 -1.4381807e-21)
(2.5799608 0.0062987548 -5.3030192e-21)
(2.4777918 -0.050438514 1.1677971e-20)
(2.4719421 0.21784371 5.2457568e-20)
(2.2966643 0.29000529 7.4557587e-21)
(2.1571433 0.16972786 -2.4729642e-22)
(2.0877892 -0.074327113 7.453761e-22)
(2.1104273 -0.32137741 -1.3594539e-21)
(2.1864653 -0.55391232 6.0667389e-21)
(2.3282773 -0.7677307 -1.3011025e-20)
(2.5499227 -0.91057819 1.5732087e-20)
(2.8670403 -0.90908742 4.461947e-21)
(3.2456544 -0.69822755 -2.3194384e-19)
(3.4853187 -0.27417825 -1.7441667e-19)
(3.511027 0.16665221 2.2796449e-19)
(3.3223904 0.4331961 3.9744773e-20)
(3.0973455 0.51922895 -1.0335247e-19)
(2.9069627 0.48648109 -1.6687719e-20)
(2.7679622 0.40889773 -3.3479151e-22)
(2.6847218 0.32953617 -7.5453489e-21)
(2.6386248 0.26039755 1.8594656e-20)
(2.6131443 0.20371232 2.0626473e-21)
(2.5993178 0.15858802 -1.8121448e-21)
(2.5918223 0.12271512 -2.5574879e-22)
(2.587615 0.094164471 -2.7978312e-21)
(2.5849357 0.070718329 7.5067094e-22)
(2.5828392 0.051479984 1.0317844e-21)
(2.5807933 0.03448892 3.725915e-22)
(2.578213 0.020092179 2.0188541e-22)
(2.5755041 0.0059544912 1.5641089e-22)
(2.4389375 -0.048947243 1.8677824e-20)
(2.4188509 0.24924249 -9.4607475e-21)
(2.2346884 0.33300848 2.2026595e-20)
(2.0968135 0.21017044 2.3915451e-21)
(2.0296874 -0.053243326 -7.6214045e-21)
(2.0515361 -0.31732553 1.2955599e-20)
(2.1180069 -0.56216017 -1.9875033e-20)
(2.2363877 -0.79486904 8.84825e-21)
(2.4288552 -0.96626467 -5.8180839e-20)
(2.7250969 -0.99435855 8.7696166e-20)
(3.1250453 -0.8071122 1.248482e-19)
(3.4380546 -0.3380224 -7.6982348e-19)
(3.5370842 0.18870362 2.4860036e-19)
(3.3940219 0.53526007 2.1295575e-19)
(3.1367161 0.64854027 -2.2114539e-20)
(2.9240361 0.61006718 1.6949866e-20)
(2.7746657 0.50918875 -5.8194684e-22)
(2.6765178 0.40369333 1.7876869e-20)
(2.6241641 0.31552934 1.1011477e-20)
(2.5979933 0.24521543 7.3518542e-21)
(2.585461 0.19031204 1.1889163e-20)
(2.5800142 0.14773723 8.949202e-22)
(2.5779595 0.11432794 -1.6713402e-21)
(2.5773148 0.087883372 -1.1693329e-21)
(2.5769989 0.066147791 -6.8609616e-22)
(2.5764757 0.048271147 -2.2002726e-21)
(2.5755075 0.032388966 9.2133081e-22)
(2.5736416 0.018886244 2.6113184e-21)
(2.5714703 0.0056131846 3.2134091e-21)
(2.3989846 -0.045764024 1.0416134e-20)
(2.3647536 0.28007504 6.0857146e-20)
(2.1738064 0.37425636 -1.3016972e-20)
(2.033771 0.24796588 7.5256736e-20)
(1.9709997 -0.033954798 -6.8941108e-20)
(1.9951467 -0.31312112 4.3012678e-21)
(2.0537961 -0.56560396 2.3139675e-20)
(2.1457617 -0.80948611 8.0786127e-21)
(2.299608 -1.0012522 -3.2768381e-21)
(2.5516402 -1.0515407 4.9677149e-20)
(2.932764 -0.88904343 2.1398784e-19)
(3.2748939 -0.3647903 7.1429235e-19)
(3.4217451 0.23777875 -1.6483629e-19)
(3.3861965 0.6762438 1.0594674e-20)
(3.1411172 0.81333922 1.8485157e-19)
(2.9105482 0.75580038 -5.2454858e-20)
(2.7576161 0.62745113 -2.8431222e-21)
(2.6587295 0.49244181 9.3356276e-21)
(2.6007007 0.37885294 2.8272237e-21)
(2.5749797 0.29164691 6.712235e-21)
(2.565229 0.22512167 4.687645e-21)
(2.5630945 0.17448479 1.9250981e-21)
(2.5642651 0.13569646 3.0263303e-21)
(2.5664796 0.10536872 3.5690366e-21)
(2.56863 0.081339248 6.2351254e-22)
(2.5701781 0.061470281 -1.6468339e-21)
(2.5709072 0.045031341 -1.136259e-21)
(2.5708116 0.030294521 -8.6123072e-23)
(2.5695393 0.017696034 -2.2071797e-21)
(2.5678292 0.0052802073 1.0106055e-21)
(2.355584 -0.042185089 2.9802534e-21)
(2.3110118 0.31014316 -4.6064397e-20)
(2.117758 0.41328161 -1.7193424e-20)
(1.9731829 0.28316077 -8.1134565e-21)
(1.9122089 -0.017104956 3.7343e-20)
(1.9420633 -0.30952122 -5.3281869e-20)
(1.9948489 -0.56540222 -9.364663e-21)
(2.059806 -0.81324383 -9.3733721e-20)
(2.1690845 -1.0137541 3.7085017e-20)
(2.360485 -1.0807465 5.1055098e-20)
(2.6871193 -0.93127941 -6.4660463e-20)
(3.0124901 -0.35600732 1.151544e-19)
(3.1671189 0.32292474 -2.3664359e-19)
(3.1692728 0.83671714 -3.0657642e-19)
(3.0462908 1.0136208 -1.4437297e-19)
(2.861635 0.93245448 -3.1640667e-20)
(2.704726 0.75939541 2.8918842e-20)
(2.6195198 0.59381377 3.9935211e-21)
(2.5658507 0.45117977 4.6639559e-21)
(2.5419866 0.34264848 -9.8177709e-21)
(2.5370125 0.26242913 -7.607964e-21)
(2.5398687 0.20263064 -2.3347521e-21)
(2.5455875 0.15761778 3.6699144e-21)
(2.5517216 0.12323831 3.616357e-21)
(2.5571388 0.096272255 2.5084651e-21)
(2.5613967 0.074778818 -3.0490449e-22)
(2.5643648 0.056825649 9.4524473e-24)
(2.5660612 0.041838541 7.198692e-22)
(2.5666554 0.028246271 -4.1016494e-22)
(2.5658682 0.016540352 -7.0039156e-22)
(2.5645492 0.0049595056 1.1015845e-21)
(2.307948 -0.037664786 2.3432871e-20)
(2.2549484 0.33935993 -5.7595234e-20)
(2.0692093 0.45010765 -2.1420306e-20)
(1.9194982 0.31513937 -1.4511691e-19)
(1.8561884 -0.0030382521 6.0803735e-20)
(1.8924753 -0.30713655 -7.9753714e-20)
(1.9418422 -0.56286671 -1.3043681e-20)
(1.9815841 -0.8082304 5.0803958e-20)
(2.0438923 -1.0091454 -2.2687861e-20)
(2.167485 -1.0780677 5.9513361e-20)
(2.4121175 -0.93930077 2.252492e-20)
(2.6894785 -0.32174589 -3.8501494e-19)
(2.8390547 0.42925763 -1.4540126e-19)
(2.8669729 0.99959893 -7.2994685e-20)
(2.8331829 1.2119026 1.9103583e-20)
(2.7415489 1.1247278 -7.2185818e-20)
(2.619323 0.9084135 6.035903e-20)
(2.5455766 0.70014084 4.7698413e-20)
(2.5134642 0.53110969 3.3982207e-20)
(2.4970432 0.39764793 1.4601772e-20)
(2.4991233 0.30133775 3.4864086e-21)
(2.5091131 0.23126428 2.6405186e-21)
(2.5210132 0.17956422 -5.6216273e-21)
(2.5323089 0.14070498 -7.059269e-21)
(2.5419646 0.11091425 -1.1910958e-21)
(2.5496653 0.087349712 1.280109e-22)
(2.5554399 0.068379708 2.3481279e-22)
(2.5594457 0.052315232 1.0975427e-23)
(2.5618629 0.038749552 -1.1380032e-22)
(2.5629874 0.026273799 -9.1355981e-22)
(2.5625895 0.015432769 1.6422149e-21)
(2.5615986 0.0046538336 -5.9574214e-23)
(2.2580863 -0.031622068 -2.8722223e-20)
(2.1979296 0.36775256 3.918187e-20)
(2.0269135 0.48608863 -4.9715033e-21)
(1.8755686 0.34398807 1.0537939e-19)
(1.8069716 0.0088461918 1.4617842e-19)
(1.846777 -0.30684756 6.8953606e-20)
(1.8951618 -0.5588517 1.0632802e-20)
(1.9128293 -0.79638088 -3.547149e-20)
(1.9298673 -0.98950965 -3.4255546e-20)
(1.9849932 -1.0597032 -7.3645437e-20)
(2.1325172 -0.91200323 -3.1531038e-20)
(2.3371328 -0.26562745 0)
(2.4651591 0.54158931 1.3981541e-19)
(2.5116156 1.161072 1.4892868e-19)
(2.5339248 1.3911585 2.2335031e-19)
(2.5297663 1.3039041 -1.0889829e-19)
(2.4882355 1.0653811 -4.2523122e-20)
(2.4386782 0.80989103 1.3316474e-20)
(2.4330262 0.61130711 -3.0253841e-21)
(2.4375431 0.45543718 8.1109825e-21)
(2.4499881 0.34046264 1.5076365e-20)
(2.4696784 0.25923145 -4.0102036e-21)
(2.4897021 0.20045925 -1.6534783e-21)
(2.5076043 0.15714308 -4.5091692e-22)
(2.5225803 0.12441062 -3.6549076e-21)
(2.5345646 0.099094331 1.6158021e-21)
(2.5437875 0.07881183 1.7428264e-21)
(2.5505868 0.062263648 -1.0086402e-21)
(2.5553092 0.048009197 -3.1462285e-22)
(2.5582386 0.03580398 3.2899968e-23)
(2.5597571 0.024397657 -8.5135193e-22)
(2.5596655 0.014382589 4.5671929e-22)
(2.5589465 0.0043649971 1.248671e-21)
(2.2079211 -0.024680056 -9.4469652e-21)
(2.1427997 0.39498762 4.906998e-21)
(1.9932368 0.52130984 5.3065722e-20)
(1.8398087 0.37532948 1.119193e-19)
(1.7673849 0.016807669 6.1402311e-20)
(1.8056501 -0.3073497 1.9615634e-19)
(1.8549288 -0.55463831 6.3017717e-21)
(1.8543365 -0.77910208 -9.9822673e-21)
(1.8304702 -0.95905923 7.1992099e-20)
(1.8207956 -1.0223591 -2.6593345e-19)
(1.8693275 -0.85629267 2.776794e-19)
(1.9835735 -0.19528963 -4.2171908e-20)
(2.0771551 0.65215552 3.2063218e-20)
(2.1313568 1.3097527 -3.1409411e-20)
(2.1965531 1.5477275 -2.1396106e-19)
(2.2570541 1.458526 -4.3773319e-20)
(2.294571 1.2061646 1.3956974e-19)
(2.3029623 0.92174783 -1.2801125e-20)
(2.3210172 0.68522938 -2.2885527e-20)
(2.3581362 0.51125154 -2.5501535e-20)
(2.3884097 0.37821044 -9.3539779e-21)
(2.4205772 0.28488207 -2.0365484e-20)
(2.4509937 0.21907128 -6.9399533e-22)
(2.4771142 0.17143382 1.8359821e-21)
(2.4985954 0.13611468 -7.0205842e-21)
(2.5157508 0.10914231 3.5454673e-21)
(2.5291157 0.088008194 -7.3748295e-23)
(2.5392502 0.070791552 8.9462149e-22)
(2.546675 0.056508801 5.5556297e-22)
(2.5518505 0.043953187 -4.0332524e-22)
(2.5551188 0.033027783 1.7383261e-22)
(2.5569162 0.022631179 1.5307857e-21)
(2.5570597 0.013395696 -4.4420908e-22)
(2.5565633 0.0040940318 -1.4119412e-21)
(2.1599681 -0.016918755 7.1191843e-20)
(2.0918327 0.41925168 2.5983562e-23)
(1.9672641 0.55316562 5.2964674e-22)
(1.8185058 0.41108848 -1.3931388e-19)
(1.7346956 0.031389778 -1.9729728e-19)
(1.7718436 -0.31245674 4.4110761e-21)
(1.820728 -0.54984714 6.1868296e-21)
(1.8060582 -0.75943989 4.8676714e-20)
(1.7471387 -0.92360211 -1.4205543e-20)
(1.6796188 -0.97075864 2.024096e-19)
(1.6368205 -0.78242937 -2.337091e-19)
(1.6546022 -0.11616521 -1.5030884e-19)
(1.702892 0.753544 -3.3039789e-20)
(1.7604521 1.436906 9.8771871e-20)
(1.8558526 1.674015 -7.4908141e-20)
(1.9619952 1.5841511 -2.2674985e-20)
(2.0538962 1.3190482 2.3425804e-19)
(2.1308589 1.0207931 -5.7358341e-20)
(2.1851608 0.7530762 -1.9004455e-20)
(2.2534864 0.55731264 -5.6951617e-21)
(2.3129308 0.41187853 -2.7208725e-21)
(2.3612061 0.30631789 -3.3318939e-22)
(2.404487 0.23379254 9.152997e-21)
(2.4405782 0.18239361 -1.486385e-20)
(2.4698059 0.14495143 8.4149203e-21)
(2.4930406 0.11687898 -7.8590851e-21)
(2.5112371 0.0951195 2.8892957e-21)
(2.5252542 0.077782026 -8.0700578e-22)
(2.5358236 0.06336389 -8.4669819e-22)
(2.5435571 0.0511604 -1.3567706e-22)
(2.5489733 0.040174047 1.2756869e-21)
(2.5524387 0.0304363 -1.0798605e-22)
(2.5544196 0.020982034 8.5429911e-22)
(2.554738 0.012475267 -3.9239643e-22)
(2.5544215 0.0038413815 -1.6415614e-21)
(2.1163981 -0.0085332802 -4.5179294e-20)
(2.0465682 0.43996105 1.604583e-20)
(1.9501404 0.5804736 -2.0082953e-20)
(1.8127334 0.44370957 -2.1680243e-21)
(1.7141498 0.05251887 -1.7690238e-19)
(1.7390685 -0.31051324 -2.485801e-20)
(1.7924975 -0.54834421 3.013663e-21)
(1.7675134 -0.73793144 4.0344478e-20)
(1.6796028 -0.88348119 -6.2031883e-20)
(1.5633102 -0.91113996 2.8141083e-19)
(1.4430346 -0.69777244 -5.4457616e-19)
(1.3705731 -0.03183695 -1.7139255e-19)
(1.3671585 0.84061201 -3.8307891e-19)
(1.4257726 1.5347498 -1.2051036e-19)
(1.5423474 1.7671378 -1.3194321e-19)
(1.6741178 1.6800671 2.7005225e-19)
(1.7957672 1.4051734 -1.1403855e-19)
(1.9226341 1.0944216 9.7955091e-20)
(2.0294818 0.81133194 -3.0692349e-20)
(2.1261406 0.59015604 4.5402723e-21)
(2.2208591 0.43610249 -4.2539472e-21)
(2.2915952 0.32149446 2.9796032e-20)
(2.3501199 0.24281991 -8.2163934e-21)
(2.3980431 0.18858226 7.5452496e-22)
(2.4362616 0.1498676 3.5811175e-21)
(2.4664556 0.12132632 -3.1160284e-21)
(2.4901322 0.099595964 -1.8665061e-21)
(2.5085389 0.082430923 2.0936283e-21)
(2.5226653 0.068469089 -3.4043119e-21)
(2.5333064 0.056562167 1.0970009e-21)
(2.5411022 0.046239464 -1.0181594e-21)
(2.5465909 0.0366845 1.5954762e-21)
(2.5501396 0.028036751 -1.7497624e-22)
(2.5522258 0.01945351 -6.3201104e-22)
(2.5526689 0.011622385 4.1833799e-22)
(2.5524953 0.0036070234 1.1445411e-21)
(2.079223 0.00019629486 -5.5176471e-20)
(2.0090149 0.45641024 1.7088635e-20)
(1.9423585 0.6024493 -1.6597849e-20)
(1.8202315 0.47453177 5.191985e-20)
(1.7068258 0.071786986 -4.2658341e-21)
(1.7124542 -0.3039854 -8.5288273e-20)
(1.7675004 -0.54068533 -3.0043445e-21)
(1.7373293 -0.71815459 -1.4052179e-20)
(1.6273844 -0.84156346 8.3961478e-20)
(1.471113 -0.84798677 7.0437707e-19)
(1.2901998 -0.60913321 4.9048381e-19)
(1.1428608 0.052586833 -1.4402943e-20)
(1.089682 0.91303049 -3.8106229e-19)
(1.1469467 1.6017353 3.5389004e-19)
(1.2769564 1.8298109 1.4570286e-19)
(1.4150074 1.74989 -2.0261164e-19)
(1.5420774 1.4690699 -2.4799405e-19)
(1.6932705 1.1436927 8.5514574e-20)
(1.8509837 0.85079045 -3.1204069e-20)
(1.9841887 0.6109143 -1.548388e-20)
(2.1109913 0.44520471 -2.7076984e-20)
(2.2118973 0.32764634 -9.7269409e-22)
(2.2883481 0.24427609 -9.050341e-21)
(2.3499083 0.18850882 6.3375875e-21)
(2.3983181 0.14964773 -1.5839339e-20)
(2.4362689 0.12160383 1.3631911e-20)
(2.4659878 0.10058443 -2.2402039e-20)
(2.4892076 0.084270314 9.7893238e-21)
(2.5072402 0.071079358 -2.7594577e-21)
(2.5210828 0.060073431 4.1807558e-21)
(2.5315254 0.05039074 4.5228993e-21)
(2.5391962 0.041749679 -1.2786961e-22)
(2.5446267 0.033486894 -7.2615452e-22)
(2.5481688 0.025830265 -5.3643443e-23)
(2.5502971 0.018045573 -4.0832181e-22)
(2.5508235 0.010836527 1.0997964e-21)
(2.5507613 0.0033905885 7.0430568e-22)
(2.0477448 0.0087018409 -3.5238358e-20)
(1.9827021 0.46786585 1.0561549e-20)
(1.9442896 0.61844117 -3.0949594e-22)
(1.8398924 0.50226449 -2.8948204e-21)
(1.7137377 0.091616272 3.8266546e-21)
(1.6968781 -0.2986034 -1.5504274e-19)
(1.7451036 -0.53144086 3.1653467e-21)
(1.719914 -0.69256769 -4.3326513e-21)
(1.5859232 -0.80007356 -1.6140752e-20)
(1.4019795 -0.78529681 1.396424e-19)
(1.1750536 -0.52141015 5.6559443e-19)
(0.97308938 0.1321609 -9.5856178e-19)
(0.87966292 0.97024392 8.8874866e-19)
(0.93476503 1.6400713 4.4569694e-19)
(1.0704964 1.8680581 -9.8194542e-21)
(1.1975031 1.7982306 -1.5401533e-19)
(1.3078526 1.518213 2.0340118e-19)
(1.4569669 1.1757392 -4.9875659e-20)
(1.6508087 0.86801946 2.1469106e-20)
(1.8305074 0.61744949 -3.4323645e-20)
(1.9875069 0.43795305 -1.2186354e-20)
(2.1218191 0.3206633 -1.0987999e-20)
(2.2202825 0.23646309 1.438679e-20)
(2.2969502 0.18064099 1.4460976e-21)
(2.3566624 0.14314176 -5.2142445e-21)
(2.4030357 0.11674526 -2.4475117e-21)
(2.4392227 0.097390229 -5.5282841e-21)
(2.467559 0.082581426 4.7947486e-22)
(2.4897385 0.070813989 1.7372868e-20)
(2.5070025 0.061014629 -6.9037808e-22)
(2.5202858 0.05256753 -6.2605132e-22)
(2.5303341 0.044834561 -1.5921392e-21)
(2.5377407 0.037682645 -1.1369894e-21)
(2.5430139 0.030576125 -1.7839023e-21)
(2.5464795 0.0238135 1.2227228e-23)
(2.5485998 0.01675572 2.6770495e-22)
(2.5491754 0.010115982 5.0736272e-22)
(2.5491982 0.0031914233 7.1491238e-22)
(2.0297806 0.016649763 -3.1727681e-20)
(1.9729513 0.47428803 -4.255775e-20)
(1.9553091 0.6285816 1.1024689e-20)
(1.869643 0.52615649 9.3311266e-20)
(1.7358233 0.11193966 -1.5148923e-21)
(1.6965755 -0.29356047 1.502827e-19)
(1.7275458 -0.52461032 5.1419665e-22)
(1.7099148 -0.66551998 -7.6312104e-20)
(1.5662112 -0.75803852 -1.2041005e-19)
(1.3477469 -0.72208055 -6.1529256e-19)
(1.0928395 -0.44068069 -7.5762723e-19)
(0.85327062 0.20325608 5.7362273e-19)
(0.73627181 1.0108456 -2.4777529e-19)
(0.7902318 1.6535178 -3.1053584e-19)
(0.92390144 1.8876406 -5.3263945e-20)
(1.0255972 1.8327911 1.3529153e-19)
(1.101172 1.5618878 3.2094182e-19)
(1.2229048 1.2000521 3.6834229e-19)
(1.4336911 0.86659108 -8.3467986e-20)
(1.6628725 0.60525726 -2.3279248e-21)
(1.8565763 0.41567262 4.8651864e-21)
(2.022218 0.2971635 1.7645019e-20)
(2.1472798 0.21749079 -6.2955304e-21)
(2.2403852 0.16365923 1.0367167e-20)
(2.3123083 0.1292622 -1.1593559e-20)
(2.3675924 0.10592376 -8.4653575e-21)