/*--------------------------------*- C++ -*----------------------------------*\
| =========                 |                                                 |
| \\      /  F ield         | OpenFOAM: The Open Source CFD Toolbox           |
|  \\    /   O peration     | Version:  v2012                                 |
|   \\  /    A nd           | Website:  www.openfoam.com                      |
|    \\/     M anipulation  |                                                 |
\*---------------------------------------------------------------------------*/
FoamFile
{
    version     2.0;
    format      ascii;
    class       surfaceScalarField;
    location    "71.6485249520715399";
    object      phi;
}
// * * * * * * * * * * * * * * * * * * * * * * * * * * * * * * * * * * * * * //

dimensions      [0 3 -1 0 0 0 0];
oriented        oriented;


internalField   nonuniform List<scalar> 
18180
(
0.0020894415
-3.4731705
0.0042107622
-3.2501138
0.0014124515
-3.4233118
0.0063548959
-3.0420892
0.0028811364
-3.2043301
0.00089496871
-3.3726561
0.0086800856
-2.8471744
0.0044598836
-2.9999106
0.0018280286
-3.1572948
0.00032245423
-3.3229051
0.011222186
-2.664631
0.006282704
-2.8084084
0.0028826423
-2.9566512
0.00067405557
-3.1105517
-0.00022233303
-3.2746181
0.014075488
-2.4940192
0.0084406855
-2.62876
0.0041475621
-2.7687475
0.0011237841
-2.9130633
-0.00043063746
-3.0650362
-0.00071063835
-3.2290167
0.017286176
-2.3343846
0.011054933
-2.4605115
0.0057236142
-2.5922337
0.0017319879
-2.7283351
-0.00059457433
-2.8700206
-0.0014150778
-3.0216801
-0.0010934148
-3.1859326
0.020917087
-2.1850278
0.014242176
-2.303072
0.0077259042
-2.4266621
0.00258089
-2.5548259
-0.000676602
-2.6879032
-0.0021399816
-2.8287256
-0.0022118332
-2.980835
-0.00136271
-3.1460261
0.02500519
-2.0451754
0.018131419
-2.155913
0.010285474
-2.2716631
0.0037730676
-2.392193
-0.00064678723
-2.517202
-0.0028865649
-2.6487293
-0.0034020002
-2.7897094
-0.0027803553
-2.9428618
-0.0015201386
-3.1091061
0.029583305
-1.9141219
0.022847351
-2.0183441
0.013548387
-2.1268586
0.0054322512
-2.2398685
-0.0004217956
-2.3572146
-0.003663163
-2.4802113
-0.0047160492
-2.6115281
-0.004307476
-2.7533589
-0.0031074686
-2.907815
-0.0015698738
-3.0755123
0.034662272
-1.7911913
0.028518586
-1.8897018
0.017672219
-1.9916661
0.007707316
-2.0975436
7.6866764e-05
-2.2074875
-0.0044441447
-2.3226785
-0.0062013014
-2.4449915
-0.0060424357
-2.5767076
-0.0048284703
-2.7197519
-0.0032031566
-2.8757842
-0.0015215005
-3.0446851
0.040236407
-1.6758186
0.035266064
-1.7693042
0.022822437
-1.8655119
0.010768974
-1.9648581
0.00097103212
-2.0677628
-0.0052012976
-2.17543
-0.0078925838
-2.2895315
-0.0080633118
-2.4117747
-0.0068115924
-2.544352
-0.0049793904
-2.6889775
-0.0030957906
-2.8465372
-0.0013926483
-3.0168128
0.046282583
-1.5674014
0.043184548
-1.65655
0.029169599
-1.7477444
0.014809672
-1.8412783
0.0024046994
-1.9375383
-0.005878127
-2.0379692
-0.0098253617
-2.1443014
-0.010458597
-2.2579781
-0.0091534543
-2.3806513
-0.0070374994
-2.5145914
-0.0048055397
-2.6609051
-0.0028248629
-2.8200312
-0.0012057423
-2.9914761
0.052769838
-1.4654541
0.052365098
-1.5508234
0.03685982
-1.6377421
0.020042912
-1.7262223
0.0045559761
-1.8164093
-0.0064010438
-1.9098509
-0.012027064
-2.0087411
-0.013319308
-2.1144401
-0.011977027
-2.2281486
-0.0094803563
-2.3518503
-0.0067861846
-2.487423
-0.004372277
-2.635476
-0.0024365696
-2.7960771
-0.0009845443
-2.968764
0.059663109
-1.3695302
0.062873724
-1.4516012
0.046040743
-1.5348874
0.026684383
-1.6190904
0.0076379947
-1.7038849
-0.0066655791
-1.7907281
-0.014522157
-1.8822865
-0.016751458
-1.9804
-0.015408465
-2.0858454
-0.012442163
-2.2001854
-0.0091351989
-2.3254041
-0.0061555551
-2.462803
-0.0037539279
-2.6125516
-0.001979121
-2.7745327
-0.00075169155
-2.9481251
0.066931673
-1.2792311
0.074749049
-1.3584018
0.056827958
-1.4386189
0.034959408
-1.5192834
0.011896093
-1.5994354
-0.0065342859
-1.6801675
-0.017326126
-1.7645424
-0.020873789
-1.8550823
-0.01960273
-1.9527885
-0.016057888
-2.058625
-0.011978537
-2.174346
-0.0082594338
-2.3014333
-0.0052562915
-2.4406475
-0.0030253535
-2.5919909
-0.0014968975
-2.7551141
-0.00052573891
-2.9296183
0.074553846
-1.1942015
0.088003716
-1.2707924
0.069300084
-1.348411
0.045081523
-1.4262298
0.017613873
-1.502524
-0.0058304019
-1.5777323
-0.020443408
-1.6551612
-0.025823937
-1.7381159
-0.024737612
-1.828228
-0.020491617
-1.9262058
-0.015437825
-2.0332586
-0.01079022
-2.1508542
-0.0070131444
-2.2798546
-0.0041979725
-2.4208341
-0.0022556489
-2.5735554
-0.0010265801
-2.7376851
-0.00032304009
-2.9128712
0.082512194
-1.114141
0.10262379
-1.188387
0.083494504
-1.2637853
0.057239936
-1.3393759
0.025110147
-1.4126268
-0.0043293892
-1.4829566
-0.023862814
-1.5537688
-0.031759105
-1.6291733
-0.031028785
-1.7116105
-0.025928764
-1.8019657
-0.019652448
-1.9011514
-0.013843436
-2.0101576
-0.0091075634
-2.129737
-0.0055518326
-2.2606401
-0.003080114
-2.4031755
-0.001504493
-2.5570824
-0.00059945893
-2.7220657
-0.00016577589
-2.8978863
0.090835177
-1.0387389
0.11856776
-1.1108541
0.099400618
-1.1843061
0.071585344
-1.2582041
0.034723714
-1.3292168
-0.001765719
-1.3953776
-0.027550835
-1.4599619
-0.038857666
-1.5278846
-0.03873362
-1.6025634
-0.032592145
-1.6854298
-0.024770857
-1.7771926
-0.017516887
-1.8784317
-0.011606845
-1.9895026
-0.0071486463
-2.1110327
-0.0040125113
-2.2435987
-0.001987278
-2.3874831
-0.00082102614
-2.5424028
-0.00024339401
-2.708085
-5.186257e-05
-2.8842413
0.099760804
-0.96737551
0.13581548
-1.0379032
0.11694535
-1.1095782
0.088216028
-1.1822224
0.046810479
-1.2517906
0.0022009459
-1.3145529
-0.031441015
-1.3733278
-0.047316169
-1.4338814
-0.048159004
-1.5007677
-0.0407454
-1.5761879
-0.030958953
-1.6608211
-0.021899352
-1.7548543
-0.014567073
-1.8582629
-0.0090330481
-1.971276
-0.0050980642
-2.094521
-0.0025078708
-2.2285501
-0.00098705376
-2.3735875
-0.0002423909
-2.5293369
2.8754012e-05
-2.695528
2.1138017e-05
-2.8719471
0.10959535
-0.89945174
0.15462999
-0.96919698
0.13598382
-1.0392369
0.10716242
-1.1109594
0.061728506
-1.1798509
0.007966499
-1.2400383
-0.035439807
-1.2934653
-0.057348154
-1.3467541
-0.059667848
-1.4057837
-0.050703752
-1.4737577
-0.038400805
-1.5514914
-0.02707068
-1.638801
-0.018019539
-1.7351321
-0.011230994
-1.8404684
-0.0063679009
-1.9552806
-0.0030999772
-2.0800364
-0.001124737
-2.2152843
-0.00012966611
-2.3613108
0.00020574759
-2.5176827
0.00020008987
-2.6842331
5.8473619e-05
-2.8607469
0.11873358
-0.83511618
0.17555565
-0.90441811
0.15640105
-0.97297355
0.12838705
-1.0439782
0.079824181
-1.1129107
0.015983563
-1.1713982
-0.039419703
-1.2199773
-0.069181409
-1.2661011
-0.073680986
-1.3171676
-0.062843779
-1.3776612
-0.047303907
-1.4486698
-0.033096968
-1.5296555
-0.021964524
-1.6194927
-0.013734635
-1.7177861
-0.0078337588
-1.8249847
-0.0037906021
-1.9413331
-0.0012595422
-2.0673402
7.1506994e-05
-2.2036641
0.00055404657
-2.3504731
0.00051438943
-2.5072879
0.00027990455
-2.6740658
5.6730425e-05
-2.8506313
0.1242571
-0.77835511
0.19824292
-0.84282246
0.17819869
-0.91058879
0.15184929
-0.98096891
0.10144361
-1.0505326
0.026815551
-1.1082637
-0.043203588
-1.1524895
-0.083054753
-1.1915249
-0.090678212
-1.2344647
-0.077609464
-1.2873994
-0.057902376
-1.3518508
-0.040027216
-1.4268959
-0.026361639
-1.5108599
-0.016492904
-1.6026902
-0.0094733071
-1.7027369
-0.0045918161
-1.8115383
-0.0014209941
-1.9292111
0.0003515276
-2.0563214
0.0010505056
-2.1934891
0.0010425862
-2.3408917
0.0006761574
-2.4980185
0.00028151513
-2.6648678
1.0147999e-05
-2.8413078
0.1244649
-0.7298935
0.21978283
-0.7858393
0.20207859
-0.85204012
0.17743929
-0.92166505
0.12682001
-0.992293
0.041152693
-1.0503311
-0.046463315
-1.0907929
-0.099189246
-1.1226761
-0.11119524
-1.1572302
-0.095518874
-1.2024569
-0.070460247
-1.2605164
-0.047889102
-1.330034
-0.031122086
-1.4086634
-0.019399764
-1.4946825
-0.011219765
-1.5881128
-0.0054898164
-1.6897745
-0.0016313662
-1.7999606
0.000666203
-1.9187448
0.001690305
-2.0467504
0.0017827981
-2.1845925
0.0013364947
-2.3324382
0.00070819584
-2.4897111
0.00020260925
-2.6565076
-7.1243135e-05
-2.8327675
0.11951967
-0.68898101
0.23726721
-0.7341959
0.22681869
-0.79683373
0.20471107
-0.86569201
0.15553021
-0.93726525
0.05927458
-0.996767
-0.048852288
-1.0346035
-0.11767089
-1.0594877
-0.13579962
-1.0850891
-0.1171624
-1.1223245
-0.085272277
-1.1741421
-0.056684369
-1.2385782
-0.03610079
-1.3124266
-0.022285338
-1.3933275
-0.012950132
-1.4808129
-0.0064340748
-1.5756793
-0.001901349
-1.6786871
0.0009830849
-1.7900273
0.0024328086
-1.9097584
0.0027332242
-2.0384675
0.0022665583
-2.1768143
0.0014440427
-2.3249527
0.00061915571
-2.4822363
4.3128152e-05
-2.6488522
-0.00018259543
-2.8248425
0.10877984
-0.6534449
0.2487413
-0.68809689
0.2501351
-0.74463501
0.2319637
-0.81130486
0.18565624
-0.88357976
0.08021723
-0.94540274
-0.051130292
-0.98198427
-0.13874201
-1.0015205
-0.16506291
-1.0179753
-0.14321677
-1.0465515
-0.10265717
-1.0922014
-0.066381925
-1.1520551
-0.041090436
-1.2217573
-0.024908222
-1.2981798
-0.014476429
-1.3803998
-0.0073279912
-1.4690289
-0.0022182766
-1.5650731
0.0012617182
-1.6692224
0.0032290118
-1.7815725
0.0038564048
-1.9020377
0.0034744864
-2.0313034
0.0025087256
-2.1700304
0.0013795305
-2.3183052
0.00041323987
-2.4754679
-0.00017243578
-2.6418394
-0.000320987
-2.8175143
0.09317528
-0.62153016
0.25279745
-0.64591851
0.26974567
-0.69565124
0.25767605
-0.75835232
0.21440999
-0.82862227
0.10157026
-0.89292144
-0.055256355
-0.92956991
-0.16402515
-0.94545872
-0.19969486
-0.9553199
-0.17452742
-0.97490958
-0.12297965
-1.014205
-0.076906295
-1.0699925
-0.045815684
-1.1362364
-0.026953132
-1.2088378
-0.015539502
-1.2864207
-0.0080207545
-1.3694363
-0.0025423049
-1.4589098
0.0014655969
-1.5559422
0.0040106015
-1.6611557
0.0050949855
-1.7743546
0.0049315268
-1.8954501
0.003920243
-2.0251476
0.0025257133
-2.1640947
0.001162735
-2.3123645
0.00012263781
-2.4693344
-0.00042845845
-2.6353545
-0.0004740013
-2.8106015
0.073885342
-0.59214663
0.24951123
-0.60739318
0.28484074
-0.64973221
0.28100621
-0.70772399
0.2410755
-0.77432046
0.12135351
-0.837143
-0.06116918
-0.8760664
-0.19620367
-0.88687768
-0.24088796
-0.89332959
-0.21192966
-0.90684754
-0.14676114
-0.93977463
-0.088138367
-0.99194872
-0.049928371
-1.0554835
-0.02803105
-1.1249747
-0.01580797
-1.1985196
-0.0083021001
-1.2764637
-0.0027986933
-1.3598634
0.001566356
-1.4500508
0.0046981252
-1.5481412
0.0063636372
-1.6543217
0.0065804687
-1.7682667
0.0056618683
-1.8898654
0.0040856486
-2.0198551
0.0023401547
-2.1588795
0.00081806519
-2.3070466
-0.00023662031
-2.4637204
-0.00071174108
-2.6293261
-0.00062382958
-2.8041125
0.052517464
-0.56469436
0.23961035
-0.57208419
0.29475883
-0.60676056
0.30027185
-0.65843484
0.26495202
-0.7215868
0.13859688
-0.78101044
-0.067488283
-0.8206135
-0.23513222
-0.82731484
-0.29011753
-0.82730437
-0.25532504
-0.83951144
-0.17439905
-0.86849015
-0.099968227
-0.91754552
-0.053007434
-0.97913772
-0.027685444
-1.0462908
-0.014882096
-1.1164375
-0.0078999354
-1.1898076
-0.0028744484
-1.2676158
0.0015461445
-1.3513056
0.005197376
-1.4423608
0.0075498403
-1.5415229
0.0083303965
-1.6486156
0.0076856911
-1.7631998
0.0060583179
-1.8851858
0.0039926611
-2.0152999
0.0019787139
-2.1542833
0.00036987927
-2.3022395
-0.00064662595
-2.458544
-0.00101096
-2.6236592
-0.00077435525
-2.7979579
0.02916161
-0.5380927
0.22427054
-0.53984137
0.2990008
-0.56646285
0.31472548
-0.61130425
0.28498448
-0.66908781
0.15025207
-0.72336117
-0.078322751
-0.76066107
-0.2774812
-0.76909161
-0.3477234
-0.75992139
-0.30357109
-0.7692551
-0.20478079
-0.79901601
-0.11218155
-0.84646924
-0.054564099
-0.90689232
-0.025410965
-0.97248613
-0.012301848
-1.0399459
-0.0064828748
-1.1092594
-0.002615101
-1.181842
0.0013985195
-1.2593704
0.005401645
-1.3436068
0.0085114148
-1.4357876
0.010053233
-1.5360517
0.009907217
-1.6439691
0.0084127836
-1.7590786
0.0061379819
-1.881255
0.0036680201
-2.0113799
0.0014700656
-2.1502085
-0.00015439329
-2.2978717
-0.0010902948
-2.4537166
-0.0013173002
-2.6183188
-0.00092449074
-2.7921345
-0.0068407344
-0.60334427
0.20425881
-0.50918008
0.29704776
-0.52867041
0.32395243
-0.5663955
0.29999188
-0.61751806
0.1565304
-0.66612099
-0.094907037
-0.69791656
-0.32151592
-0.70806189
-0.41002463
-0.69753275
-0.355926
-0.6983613
-0.2351843
-0.72931835
-0.12361262
-0.77834107
-0.054066118
-0.83847897
-0.020654959
-0.90330236
-0.0075746937
-0.9687934
-0.0036756507
-1.0346348
-0.0018254779
-1.1023313
0.001130401
-1.1739838
0.0051912795
-1.2516549
0.0090751199
-1.3369156
0.011581417
-1.4303701
0.012200531
-1.5316941
0.011081559
-1.6403178
0.0087676679
-1.75575
0.0059235498
-1.8779953
0.0031415448
-2.0079909
0.00084289668
-2.1465625
-0.000744096
-2.293835
-0.0015525743
-2.4491837
-0.0016235176
-2.6132232
-0.0010707373
-2.7865174
-0.044520142
-0.61952077
0.16834925
-0.55770454
0.29020255
-0.49372485
0.32789891
-0.52390467
0.30946394
-0.56761682
0.1575389
-0.60987956
-0.11484108
-0.63793799
-0.36449289
-0.64694266
-0.46893807
-0.64039995
-0.41109756
-0.63373825
-0.26466007
-0.65991501
-0.13172039
-0.71250068
-0.050765292
-0.77373424
-0.012861142
-0.83848264
-0.00017845108
-0.9027557
0.00097348444
-0.96577177
-0.00027753573
-1.028951
0.00076235289
-1.0949116
0.0044329907
-1.1662017
0.0090354694
-1.2446905
0.012705346
-1.3313447
0.014395671
-1.4261471
0.013955898
-1.5284351
0.011839277
-1.6375545
0.0087621672
-1.7531396
0.0054425182
-1.8752818
0.0024449967
-2.0050414
0.00012527327
-2.14326
-0.001366523
-2.2900855
-0.0020204241
-2.4448772
-0.0019229761
-2.6083012
-0.0012103254
-2.781104
-0.083272751
-0.63659571
0.1264653
-0.56790883
0.26947953
-0.52766035
0.32677989
-0.48444781
0.31328936
-0.51998456
0.15366243
-0.555655
-0.13664547
-0.58040191
-0.40552209
-0.58944125
-0.52110069
-0.5865252
-0.46557485
-0.57786678
-0.29510814
-0.59486371
-0.13482367
-0.64860579
-0.043355471
-0.71255683
-0.0015154045
-0.77782028
0.010386244
-0.84155309
0.0078940495
-0.9024292
0.0023102205
-0.96157992
0.0003395122
-1.0219727
0.002978964
-1.0869352
0.0081546038
-1.1588144
0.013174066
-1.2387629
0.016277128
-1.3270414
0.016882964
-1.4231535
0.015272335
-1.5261979
0.012171641
-1.6355988
0.0084152876
-1.7511319
0.0047264216
-1.8730419
0.0016110021
-2.0024292
-0.00065811164
-2.1402396
-0.0020067287
-2.286554
-0.00248283
-2.440713
-0.0022101439
-2.6034966
-0.0013411285
-2.7758443
-0.12233965
-0.6540922
0.078343256
-0.57875231
0.24268107
-0.53178328
0.31357174
-0.50567164
0.31108533
-0.47497134
0.1455978
-0.50436282
-0.15935208
-0.5258164
-0.44371637
-0.53523589
-0.56722475
-0.53554334
-0.51617562
-0.52842083
-0.32750538
-0.53756639
-0.13429758
-0.58765532
-0.030320236
-0.65480806
0.013834325
-0.72115263
0.024557351
-0.78491963
0.017569447
-0.84437954
0.0062398198
-0.90000837
-0.00010376494
-0.95503922
0.00066972887
-1.0136267
0.0061592047
-1.0789166
0.012693661
-1.1523281
0.017585064
-1.234162
0.019665281
-1.3241342
0.018945211
-1.4213637
0.016106701
-1.5249107
0.012080037
-1.6343443
0.0077536307
-1.7496354
0.0038099091
-1.871137
0.00067122727
-2.0000983
-0.0014826391
-2.137432
-0.0026490612
-2.2831786
-0.0029307535
-2.4366395
-0.0024807205
-2.5987983
-0.001461369
-2.7707494
-0.16046508
-0.67128203
0.024023574
-0.59005911
0.20908741
-0.53583078
0.29535508
-0.5047427
0.29976393
-0.48655222
0.13432156
-0.45663757
-0.18206163
-0.47502736
-0.47813026
-0.48489621
-0.60706074
-0.48809188
-0.56100161
-0.48374636
-0.36021308
-0.48830836
-0.13287176
-0.53169814
-0.011321883
-0.60030642
0.033624962
-0.66832421
0.042655503
-0.73257668
0.030470279
-0.79134769
0.011859004
-0.84405919
-0.0004963909
-0.89394222
-0.0026877289
-0.94609187
0.0027400699
-1.0046667
0.010929532
-1.0716127
0.018018039
-1.1472116
0.022063443
-1.2311204
0.022695015
-1.3226392
0.02048571
-1.4207155
0.016430074
-1.5244642
0.011578499
-1.6336647
0.0068105418
-1.7484995
0.002730019
-1.8695134
-0.00033947671
-1.9979691
-0.0023247011
-2.1347806
-0.0032798747
-2.2798936
-0.0033569474
-2.4326226
-0.0027315048
-2.5941712
-0.0015699537
-2.7657752
-0.19606398
-0.68735435
-0.035935232
-0.60161873
0.16817398
-0.53981956
0.27123821
-0.50285532
0.28317333
-0.48026206
0.12407873
-0.46884739
-0.20378528
-0.42876804
-0.50807809
-0.43900904
-0.64046437
-0.44463471
-0.59915414
-0.44348062
-0.39098534
-0.44604351
-0.13206152
-0.48223509
0.012190355
-0.54931493
0.058318204
-0.61917934
0.064843932
-0.68421306
0.047035089
-0.74302181
0.019535926
-0.79347806
-0.00076192071
-0.83851738
-0.0072694372
-0.88417351
-0.0024455718
-0.93580415
0.0075071583
-0.99617239
0.017239059
-1.0657008
0.023802335
-1.1438211
0.026321244
-1.2297487
0.025190145
-1.3225342
0.021428071
-1.4211
0.016233356
-1.5247226
0.01069363
-1.6334139
0.0056250155
-1.7476404
0.0015241156
-1.8680599
-0.0014051163
-1.9959826
-0.0031655186
-2.1322253
-0.0038879265
-2.2766548
-0.0037558224
-2.4286369
-0.0029602743
-2.5896073
-0.0016666833
-2.7609285
-0.22746907
-0.70135189
-0.10045753
-0.61313783
0.11956468
-0.54368747
0.24036986
-0.50006312
0.26105797
-0.47276853
0.10995433
-0.45862787
-0.21358279
-0.45263102
-0.5334931
-0.39768343
-0.66774838
-0.40530167
-0.6305083
-0.4073068
-0.41832213
-0.40966425
-0.13213913
-0.43946603
0.037902067
-0.50247176
0.087792206
-0.57339518
0.091152727
-0.63953845
0.067648336
-0.69903784
0.02970198
-0.74801672
-0.00079372151
-0.78854238
-0.013287371
-0.82768037
-0.009778764
-0.87213327
0.0020172302
-0.92567621
0.014880079
-0.98913387
0.024580246
-1.0617316
0.029593311
-1.1423757
0.030067715
-1.230043
0.027004444
-1.3236949
0.021726174
-1.4223671
0.015528269
-1.5255177
0.0094633381
-1.6334693
0.0042403024
-1.7469508
0.00022944888
-1.8667451
-0.0024860352
-1.9940734
-0.0039883793
-2.1297123
-0.0044641367
-2.2734289
-0.0041232896
-2.4246589
-0.0031656542
-2.5850861
-0.001751431
-2.7562371
-0.25325604
-0.71227538
-0.16786854
-0.62425876
0.063085864
-0.54734346
0.20215221
-0.49655794
0.23326571
-0.46422645
0.091454774
-0.44672162
-0.22388039
-0.44188376
-0.54330587
-0.43689602
-0.68969767
-0.36973293
-0.65529088
-0.37499429
-0.44166834
-0.3779068
-0.13311394
-0.40254573
0.063882746
-0.46036002
0.12119482
-0.53087967
0.12165332
-0.59827591
0.092624575
-0.65903588
0.042819716
-0.70734315
-0.00052116015
-0.7437379
-0.020958692
-0.77638962
-0.019678396
-0.81343062
-0.0059922468
-0.8598786
0.010554739
-0.91709686
0.024080946
-0.98427002
0.032262079
-1.0599829
0.034939401
-1.1429072
0.03305876
-1.2318827
0.028037474
-1.3259633
0.021366402
-1.4243269
0.014346189
-1.5266974
0.0079344452
-1.633713
0.0027021168
-1.7463541
-0.0011210005
-1.8654653
-0.0035622646
-1.9922065
-0.0047792437
-2.1272049
-0.0050014904
-2.2701907
-0.0044565748
-2.4206716
-0.0033469793
-2.5806641
-0.0018242015
-2.7517098
-0.27261201
-0.71898414
-0.23591328
-0.63456194
-0.00098937407
-0.55087635
0.15636197
-0.49262332
0.1998215
-0.45500577
0.068447587
-0.43364193
-0.23483726
-0.42931024
-0.54962859
-0.42955684
-0.70152009
-0.41885559
-0.67424483
-0.34566785
-0.46104978
-0.34996118
-0.13456572
-0.37064605
0.088802476
-0.42273462
0.15727618
-0.49181878
0.15621972
-0.56013846
0.12223285
-0.62269578
0.059538155
-0.67128518
0.0003018064
-0.70394689
-0.030489865
-0.73003391
-0.032598536
-0.75944498
-0.017006691
-0.79852136
0.0038592104
-0.8493026
0.021989601
-0.91102439
0.034075903
-0.98200185
0.039611022
-1.0605727
0.039464298
-1.1453094
0.035119114
-1.2350996
0.028237493
-1.3291217
0.020366082
-1.4267931
0.01273489
-1.5281103
0.0061604318
-1.6340217
0.0010554846
-1.7457487
-0.0024943588
-1.8641956
-0.0046132536
-1.9903272
-0.0055268082
-2.1246691
-0.0054948584
-2.2669161
-0.0047540357
-2.4167161
-0.003504139
-2.5763285
-0.0018852221
-2.7473603
-0.72038592
-0.2859268
-0.30190949
-0.64333349
-0.071657693
-0.55459665
0.103101
-0.4886731
0.16092263
-0.44556302
0.041233321
-0.42019249
-0.24640257
-0.41562516
-0.5522396
-0.42062205
-0.70809954
-0.41666879
-0.69318248
-0.39468197
-0.47688529
-0.32455063
-0.13696471
-0.34207546
0.11195922
-0.38939813
0.19463542
-0.4558205
0.1941198
-0.52470805
0.15607303
-0.58906226
0.080274623
-0.63928675
0.0020475022
-0.66912395
-0.042047558
-0.6884982
-0.049020902
-0.70988278
-0.031546097
-0.74132908
-0.0056145997
-0.78550443
0.018004637
-0.84170513
0.034798082
-0.90801225
0.043888671
-0.98245623
0.046077062
-1.0633835
0.042895174
-1.1493914
0.036144848
-1.2394412
0.027598872
-1.3329488
0.018769098
-1.4295769
0.010754787
-1.5296069
0.0041990686
-1.6342905
-0.00064773728
-1.7450929
-0.003857979
-1.8628718
-0.0056213303
-1.9884093
-0.0062222825
-2.1220846
-0.0059407873
-2.2636215
-0.0050149588
-2.4127882
-0.0036374928
-2.5721454
-0.001934884
-2.743184
-0.64924476
-0.36341116
-0.71660571
-0.29331701
-0.1469821
-0.55872432
0.04262994
-0.48517711
0.11688468
-0.43643221
0.010466437
-0.40718383
-0.25837276
-0.40178034
-0.55089301
-0.41083593
-0.70915785
-0.41317919
-0.70520636
-0.39933185
-0.50953702
-0.35661403
-0.13856216
-0.31779135
0.13279276
-0.35879947
0.23174385
-0.42255606
0.23354624
-0.49051969
0.19168917
-0.55566548
0.10390752
-0.6088525
0.0042406144
-0.63786517
-0.055715795
-0.65182223
-0.06942411
-0.6646353
-0.050162128
-0.68798068
-0.01827114
-0.7254284
0.011857403
-0.7760674
0.034225975
-0.83772825
0.047596653
-0.90816681
0.052748114
-0.98549817
0.051266877
-1.0681894
0.045062256
-1.1548751
0.036097747
-1.2446536
0.026155415
-1.3372108
0.01664058
-1.4324923
0.0084751721
-1.531049
0.002108459
-1.6344267
-0.0023879622
-1.7443158
-0.0051865184
-1.8614773
-0.0065722533
-1.9864207
-0.0068592297
-2.1194406
-0.0063372697
-2.2603044
-0.0052394378
-2.4089596
-0.0037477273
-2.5680973
-0.0019737218
-2.7392225
-0.56299005
-0.22396649
-0.65188176
-0.41851118
-0.70821265
-0.29423467
-0.024518571
-0.48262776
0.067893326
-0.42795438
-0.022885188
-0.39546206
-0.27024355
-0.38888264
-0.5455984
-0.40089293
-0.70431167
-0.40923125
-0.71066163
-0.40234474
-0.5371323
-0.36619983
-0.16938887
-0.32051468
0.15197956
-0.33314405
0.26811758
-0.3915164
0.27288944
-0.4574457
0.22691639
-0.52133076
0.12662686
-0.57482472
0.0046797218
-0.60595064
-0.072842459
-0.61734157
-0.094357976
-0.62367312
-0.073518749
-0.63825699
-0.034499559
-0.6687756
0.0033262255
-0.71388936
0.032211864
-0.77094988
0.050597662
-0.83746072
0.059339057
-0.91131108
0.060119488
-0.99088556
0.054933535
-1.0747327
0.045885955
-1.1614704
0.034994763
-1.2504506
0.023973121
-1.3416842
0.014061264
-1.4353638
0.0059704741
-1.5323229
-4.5992197e-05
-1.6343941
-0.0041062699
-1.7433873
-0.0064578032
-1.8599652
-0.0074549268
-1.9843451
-0.0074333293
-2.1167292
-0.0066835565
-2.2570125
-0.0054281643
-2.4052174
-0.0038358283
-2.5642426
-0.0020023497
-2.7354585
-0.48153389
-0.097032974
-0.56707771
-0.29951556
-0.65078761
-0.46632822
-0.69498526
-0.28985836
0.014388427
-0.42087641
-0.057165286
-0.3860555
-0.28127467
-0.37800939
-0.53651504
-0.3917482
-0.69343724
-0.40526237
-0.70960724
-0.40484958
-0.55927025
-0.37455639
-0.19922769
-0.33096209
0.14437313
-0.30903853
0.30223726
-0.36386877
0.31112333
-0.42556637
0.26064732
-0.48699345
0.14735603
-0.5387614
0.003005195
-0.57006239
-0.096596277
-0.57901697
-0.12488353
-0.58382352
-0.10240828
-0.59200267
-0.05476437
-0.61525515
-0.0077444237
-0.6549449
0.02868158
-0.70752123
0.052810936
-0.77017387
0.065739745
-0.84065379
0.069332966
-0.91718557
0.065673365
-0.99835151
0.056950815
-1.0826672
0.045360207
-1.1688534
0.032897744
-1.2565742
0.021142537
-1.3461476
0.011122205
-1.4380408
0.0033161498
-1.5333329
-0.002237622
-1.6341057
-0.0057748602
-1.742267
-0.0076537878
-1.8583196
-0.0082612284
-1.9821588
-0.0079421435
-2.1139668
-0.0069799066
-2.253738
-0.005582365
-2.4016231
-0.0039029641
-2.5605447
-0.002021463
-2.7318923
-0.41604266
-0.042855155
-0.48276199
-0.17241718
-0.56975457
-0.3713095
-0.64442886
-0.50729272
-0.67798672
-0.28023116
-0.091064475
-0.37936194
-0.2905819
-0.37032947
-0.52395263
-0.38432873
-0.67677098
-0.40187064
-0.70225722
-0.40712966
-0.5755022
-0.38287241
-0.22695959
-0.34132648
0.1338787
-0.31651881
0.32013498
-0.32351999
0.34647809
-0.39529837
0.29170177
-0.45266578
0.16496382
-0.50154118
-0.0019109675
-0.530994
-0.12628544
-0.53739351
-0.16242004
-0.53869078
-0.13670355
-0.54696625
-0.079594578
-0.56465068
-0.021462039
-0.59899793
0.023651831
-0.64730927
0.054229539
-0.70620484
0.071883721
-0.7733689
0.078796726
-0.84694711
0.07717203
-0.92546077
0.069238799
-1.0075406
0.057286174
-1.091657
0.043537193
-1.1767202
0.029903558
-1.2627583
0.017771798
-1.3504146
0.0079198949
-1.4404024
0.00058449587
-1.5340167
-0.0043941796
-1.6335333
-0.0073662071
-1.7409357
-0.0087605597
-1.8565185
-0.0089857959
-1.9798658
-0.0083848332
-2.1111539
-0.0072274599
-2.2505473
-0.0057036187
-2.398153
-0.0039504859
-2.5570461
-0.0020317886
-2.7285008
-0.37507868
-0.12442021
-0.41476296
-0.10261917
-0.48626925
-0.24698492
-0.56992591
-0.43658994
-0.63322962
-0.54247353
-0.65816437
-0.26330849
-0.29799294
-0.36552797
-0.50886223
-0.37916091
-0.65493822
-0.39959706
-0.68907928
-0.40953156
-0.58549902
-0.39131293
-0.25209769
-0.35215355
0.12129082
-0.32472512
0.33613867
-0.32900225
0.37428619
-0.34738638
0.31934569
-0.41922209
0.17881284
-0.46366568
-0.010476774
-0.49034205
-0.15827275
-0.49621367
-0.20654434
-0.49066584
-0.17460684
-0.49842488
-0.10815276
-0.51607982
-0.037922535
-0.54584808
0.017244303
-0.59019144
0.054932664
-0.64550365
0.077761685
-0.70938163
0.088421522
-0.78005389
0.089305582
-0.85599394
0.082653175
-0.93582291
0.070758322
-1.0181075
0.055977704
-1.1013563
0.040514918
-1.1847756
0.026135486
-1.2687719
0.013980103
-1.3543171
0.0045510805
-1.4423397
-0.0021556867
-1.534318
-0.0064788183
-1.6326505
-0.0088576237
-1.7393865
-0.0097680565
-1.8545636
-0.0096256768
-1.9774651
-0.008761941
-2.1083487
-0.0074279874
-2.2474348
-0.0057938452
-2.394862
-0.0039798179
-2.5537112
-0.002034082
-2.7253142
-0.36278158
-0.30385526
-0.37381005
-0.15777376
-0.41795031
-0.1627301
-0.49092831
-0.31708367
-0.56639862
-0.49421507
-0.61884244
-0.57223411
-0.63560865
-0.23857075
-0.49186548
-0.37625975
-0.62889476
-0.3986401
-0.67084435
-0.41229383
-0.58935561
-0.39980239
-0.27419107
-0.36357361
0.1071116
-0.33390037
0.34904966
-0.33402002
0.40169877
-0.35234649
0.35129915
-0.37562958
0.18951097
-0.42726208
-0.020823754
-0.45088332
-0.18850891
-0.45748883
-0.25047615
-0.44984614
-0.21462811
-0.4484631
-0.13733753
-0.46708655
-0.05653306
-0.49530618
0.00965022
-0.53604144
0.055093864
-0.58804719
0.083431011
-0.64870162
0.098148916
-0.71642645
0.1019435
-0.78982068
0.097057127
-0.86744485
0.085703874
-0.94789677
0.070254053
-1.0296777
0.053118104
-1.1114301
0.036427015
-1.192723
0.021735248
-1.2743948
0.0098918861
-1.3577137
0.0011095232
-1.4437765
-0.0048530838
-1.5341889
-0.0084574215
-1.6314588
-0.010231876
-1.7376174
-0.010669751
-1.8524518
-0.010180049
-1.9749985
-0.0090750968
-2.1055531
-0.0075838456
-2.2444496
-0.0058551349
-2.3917147
-0.003992455
-2.5505753
-0.0020290654
-2.7223104
-0.37569395
-0.47269194
-0.36361726
-0.30759129
-0.37661601
-0.19151992
-0.42557498
-0.21991846
-0.49420572
-0.38039931
-0.55873792
-0.54512965
-0.60141193
-0.59688313
-0.61040046
-0.20618747
-0.59939213
-0.39921973
-0.64839114
-0.41554926
-0.58744494
-0.40830284
-0.29296882
-0.37533134
0.091840388
-0.34417346
0.35834935
-0.33950107
0.42735932
-0.35549632
0.38262021
-0.37984408
0.22106213
-0.40454798
-0.031454858
-0.41437111
-0.21570405
-0.42124095
-0.28871241
-0.41696976
-0.25563569
-0.40682082
-0.16619214
-0.4176131
-0.074945373
-0.44667359
0.0011795049
-0.48479181
0.054994964
-0.5338213
0.089020118
-0.5913699
0.10796149
-0.65606987
0.1149573
-0.72681305
0.11227937
-0.80225528
0.1019871
-0.88091041
0.086334379
-0.96128711
0.067807276
-1.0418643
0.048843764
-1.1215228
0.031434427
-1.200297
0.016856187
-1.2794381
0.0056302127
-1.3604884
-0.0023170011
-1.4446677
-0.0074426202
-1.5336299
-0.010301961
-1.6299506
-0.011476744
-1.7356363
-0.011462306
-1.8502105
-0.010649852
-1.9724658
-0.0093268913
-2.10281
-0.007697749
-2.241563
-0.0058897321
-2.3887485
-0.0039898369
-2.5476016
-0.00201745
-2.7194852
-0.40138286
-0.56720499
-0.3796868
-0.45037216
-0.36882866
-0.30888978
-0.38556139
-0.22395935
-0.43431699
-0.27170301
-0.49384148
-0.43644123
-0.54733449
-0.59003155
-0.58154724
-0.61620216
-0.58267839
-0.16666986
-0.62285692
-0.41921996
-0.58034506
-0.41674038
-0.30832765
-0.38722133
0.076234048
-0.35554618
0.36366028
-0.34571401
0.44996048
-0.35782279
0.41251695
-0.38147721
0.2516442
-0.4077043
-0.012033708
-0.42173617
-0.24120259
-0.38658607
-0.32183146
-0.3859786
-0.29506779
-0.37566571
-0.19772915
-0.37343299
-0.091614787
-0.39909114
-0.0071406199
-0.43646316
0.054958969
-0.48280169
0.094726131
-0.53744484
0.11788648
-0.59906317
0.12823152
-0.66696258
0.12812113
-0.74009109
0.11941085
-0.81697587
0.10410696
-0.89602294
0.084609946
-0.97561264
0.063546501
-1.0542738
0.043326841
-1.1313063
0.02571796
-1.2072384
0.011656335
-1.2837413
0.0013139132
-1.3625598
-0.0056665577
-1.4449817
-0.0098840659
-1.5326332
-0.011991485
-1.6281485
-0.012584641
-1.7334606
-0.012145143
-1.8478533
-0.011037576
-1.9699125
-0.0095205776
-2.100108
-0.0077727042
-2.23882
-0.0058998246
-2.3859313
-0.0039734048
-2.5448187
-0.0019999094
-2.7168163
-0.42298748
-0.59574528
-0.40680356
-0.53365118
-0.38599527
-0.42697366
-0.37744684
-0.31048185
-0.39691532
-0.25380453
-0.44062094
-0.31689936
-0.48891106
-0.48603527
-0.53302467
-0.62939242
-0.55979848
-0.62955958
-0.55280806
-0.12068217
-0.5688239
-0.42484541
-0.31978648
-0.39954742
0.060946332
-0.36771087
0.36483699
-0.35289218
0.46835407
-0.35975329
0.43969552
-0.38100276
0.28158471
-0.40861589
0.0079625711
-0.42536874
-0.23920513
-0.42148389
-0.35220574
-0.35419989
-0.33053423
-0.34876709
-0.23257189
-0.33910489
-0.10931258
-0.35401508
-0.013684556
-0.39079624
0.055337539
-0.43503947
0.10081176
-0.48696986
0.12799289
-0.54550571
0.14166999
-0.61034294
0.14436709
-0.68088731
0.13772032
-0.75588919
0.1233738
-0.83365816
0.10346534
-0.91241174
0.080638204
-0.99043368
0.057641716
-1.0665049
0.036769249
-1.1404537
0.019471691
-1.2133375
0.0062914901
-1.2871811
-0.0029442371
-1.3639025
-0.0088583729
-1.4447071
-0.012143845
-1.5312211
-0.013511684
-1.6260661
-0.013552183
-1.7311276
-0.012720062