/*--------------------------------*- C++ -*----------------------------------*\
| =========                 |                                                 |
| \\      /  F ield         | OpenFOAM: The Open Source CFD Toolbox           |
|  \\    /   O peration     | Version:  v2012                                 |
|   \\  /    A nd           | Website:  www.openfoam.com                      |
|    \\/     M anipulation  |                                                 |
\*---------------------------------------------------------------------------*/
FoamFile
{
    version     2.0;
    format      ascii;
    class       pointVectorField;
    location    "71.6485249520715399";
    object      pointDisplacement;
}
// * * * * * * * * * * * * * * * * * * * * * * * * * * * * * * * * * * * * * //

dimensions      [0 1 0 0 0 0 0];


internalField   nonuniform List<vector> 
18840
(
(1.4703295 0 0)
(1.4701607 0 0)
(1.4696591 0 0)
(1.4688339 0 0)
(1.4676919 0 0)
(1.4662385 0 0)
(1.4644774 0 0)
(1.4624114 0 0)
(1.4600423 0 0)
(1.4573711 0 0)
(1.4543977 0 0)
(1.4511218 0 0)
(1.4475424 0 0)
(1.4436579 0 0)
(1.4394665 0 0)
(1.4349658 0 0)
(1.4301533 0 0)
(1.4250267 0 0)
(1.4195834 0 0)
(1.4138269 0 0)
(1.4065532 0 0)
(1.4703295 0 0)
(1.4701606 0 0)
(1.4696586 0 0)
(1.4688324 0 0)
(1.4676889 0 0)
(1.4662333 0 0)
(1.4644694 0 0)
(1.4623999 0 0)
(1.4600266 0 0)
(1.4573505 0 0)
(1.4543718 0 0)
(1.4510902 0 0)
(1.4475047 0 0)
(1.4436139 0 0)
(1.4394162 0 0)
(1.4349094 0 0)
(1.4300912 0 0)
(1.4249591 0 0)
(1.4195105 0 0)
(1.4137457 0 0)
(1.4076575 0 0)
(1.4703295 0 0)
(1.4701602 0 0)
(1.469657 0 0)
(1.4688286 0 0)
(1.4676819 0 0)
(1.466222 0 0)
(1.4644526 0 0)
(1.4623765 0 0)
(1.4599956 0 0)
(1.4573108 0 0)
(1.4543226 0 0)
(1.4510305 0 0)
(1.4474339 0 0)
(1.4435315 0 0)
(1.4393217 0 0)
(1.4348025 0 0)
(1.4299717 0 0)
(1.4248267 0 0)
(1.4193646 0 0)
(1.4135823 0 0)
(1.4073879 0 0)
(1.4703295 0 0)
(1.4701599 0 0)
(1.4696557 0 0)
(1.4688254 0 0)
(1.4676757 0 0)
(1.4662118 0 0)
(1.4644372 0 0)
(1.4623549 0 0)
(1.4599666 0 0)
(1.4572735 0 0)
(1.4542758 0 0)
(1.4509734 0 0)
(1.4473658 0 0)
(1.4434517 0 0)
(1.4392297 0 0)
(1.4346981 0 0)
(1.4298547 0 0)
(1.4246971 0 0)
(1.4192227 0 0)
(1.4134293 0 0)
(1.4071515 0 0)
(1.4703295 0 0)
(1.4701596 0 0)
(1.4696546 0 0)
(1.4688226 0 0)
(1.4676703 0 0)
(1.4662025 0 0)
(1.4644231 0 0)
(1.4623347 0 0)
(1.4599391 0 0)
(1.4572376 0 0)
(1.4542304 0 0)
(1.4509177 0 0)
(1.4472987 0 0)
(1.4433726 0 0)
(1.439138 0 0)
(1.4345934 0 0)
(1.4297369 0 0)
(1.4245665 0 0)
(1.4190798 0 0)
(1.4132757 0 0)
(1.406923 0 0)
(1.4703295 0 0)
(1.4701595 0 0)
(1.4696537 0 0)
(1.4688201 0 0)
(1.4676654 0 0)
(1.4661941 0 0)
(1.4644099 0 0)
(1.4623155 0 0)
(1.4599127 0 0)
(1.4572026 0 0)
(1.4541858 0 0)
(1.4508622 0 0)
(1.4472314 0 0)
(1.4432925 0 0)
(1.4390445 0 0)
(1.434486 0 0)
(1.4296152 0 0)
(1.4244306 0 0)
(1.4189303 0 0)
(1.4131135 0 0)
(1.4066926 0 0)
(1.4703295 0 0)
(1.4701593 0 0)
(1.469653 0 0)
(1.4688181 0 0)
(1.467661 0 0)
(1.4661863 0 0)
(1.4643975 0 0)
(1.4622971 0 0)
(1.4598869 0 0)
(1.4571682 0 0)
(1.4541412 0 0)
(1.4508063 0 0)
(1.4471628 0 0)
(1.4432103 0 0)
(1.4389476 0 0)
(1.4343736 0 0)
(1.4294868 0 0)
(1.4242859 0 0)
(1.4187694 0 0)
(1.4129368 0 0)
(1.4064534 0 0)
(1.4703295 0 0)
(1.4701592 0 0)
(1.4696524 0 0)
(1.4688164 0 0)
(1.4676571 0 0)
(1.4661791 0 0)
(1.4643857 0 0)
(1.4622793 0 0)
(1.4598617 0 0)
(1.457134 0 0)
(1.4540965 0 0)
(1.4507496 0 0)
(1.4470927 0 0)
(1.4431253 0 0)
(1.4388465 0 0)
(1.4342552 0 0)
(1.4293501 0 0)
(1.4241302 0 0)
(1.4185941 0 0)
(1.4127415 0 0)
(1.4062009 0 0)
(1.4703295 0 0)
(1.4701592 0 0)
(1.469652 0 0)
(1.468815 0 0)
(1.4676537 0 0)
(1.4661724 0 0)
(1.4643745 0 0)
(1.4622622 0 0)
(1.4598371 0 0)
(1.4571001 0 0)
(1.4540519 0 0)
(1.4506923 0 0)
(1.4470211 0 0)
(1.4430376 0 0)
(1.4387412 0 0)
(1.4341307 0 0)
(1.429205 0 0)
(1.423963 0 0)
(1.4184038 0 0)
(1.4125267 0 0)
(1.405934 0 0)
(1.4703295 0 0)
(1.4701592 0 0)
(1.4696517 0 0)
(1.4688138 0 0)
(1.4676506 0 0)
(1.4661663 0 0)
(1.464364 0 0)
(1.4622458 0 0)
(1.4598132 0 0)
(1.4570669 0 0)
(1.4540075 0 0)
(1.4506349 0 0)
(1.4469486 0 0)
(1.442948 0 0)
(1.4386325 0 0)
(1.4340008 0 0)
(1.4290521 0 0)
(1.4237851 0 0)
(1.4181989 0 0)
(1.4122928 0 0)
(1.4056531 0 0)
(1.4703295 0 0)
(1.4701588 0 0)
(1.4696503 0 0)
(1.46881 0 0)
(1.4676429 0 0)
(1.4661531 0 0)
(1.4643435 0 0)
(1.462216 0 0)
(1.4597719 0 0)
(1.4570119 0 0)
(1.4539364 0 0)
(1.4505451 0 0)
(1.4468376 0 0)
(1.4428132 0 0)
(1.438471 0 0)
(1.43381 0 0)
(1.4288292 0 0)
(1.4235273 0 0)
(1.4179034 0 0)
(1.4119563 0 0)
(1.4052699 0 0)
(1.4703295 0 0)
(1.4701607 0 0)
(1.4696591 0 0)
(1.4688339 0 0)
(1.4676919 0 0)
(1.4662385 0 0)
(1.4644774 0 0)
(1.4624114 0 0)
(1.4600423 0 0)
(1.4573711 0 0)
(1.4543977 0 0)
(1.4511218 0 0)
(1.4475424 0 0)
(1.4436579 0 0)
(1.4394665 0 0)
(1.4349658 0 0)
(1.4301533 0 0)
(1.4250267 0 0)
(1.4195834 0 0)
(1.4138269 0 0)
(1.4065532 0 0)
(1.4703295 0 0)
(1.4701606 0 0)
(1.4696586 0 0)
(1.4688324 0 0)
(1.4676889 0 0)
(1.4662333 0 0)
(1.4644694 0 0)
(1.4623999 0 0)
(1.4600266 0 0)
(1.4573505 0 0)
(1.4543718 0 0)
(1.4510902 0 0)
(1.4475047 0 0)
(1.4436139 0 0)
(1.4394162 0 0)
(1.4349094 0 0)
(1.4300912 0 0)
(1.4249591 0 0)
(1.4195105 0 0)
(1.4137457 0 0)
(1.4076575 0 0)
(1.4703295 0 0)
(1.4701602 0 0)
(1.469657 0 0)
(1.4688286 0 0)
(1.4676819 0 0)
(1.466222 0 0)
(1.4644526 0 0)
(1.4623765 0 0)
(1.4599956 0 0)
(1.4573108 0 0)
(1.4543226 0 0)
(1.4510305 0 0)
(1.4474339 0 0)
(1.4435315 0 0)
(1.4393217 0 0)
(1.4348025 0 0)
(1.4299717 0 0)
(1.4248267 0 0)
(1.4193646 0 0)
(1.4135823 0 0)
(1.4073879 0 0)
(1.4703295 0 0)
(1.4701599 0 0)
(1.4696557 0 0)
(1.4688254 0 0)
(1.4676757 0 0)
(1.4662118 0 0)
(1.4644372 0 0)
(1.4623549 0 0)
(1.4599666 0 0)
(1.4572735 0 0)
(1.4542758 0 0)
(1.4509734 0 0)
(1.4473658 0 0)
(1.4434517 0 0)
(1.4392297 0 0)
(1.4346981 0 0)
(1.4298547 0 0)
(1.4246971 0 0)
(1.4192227 0 0)
(1.4134293 0 0)
(1.4071515 0 0)
(1.4703295 0 0)
(1.4701596 0 0)
(1.4696546 0 0)
(1.4688226 0 0)
(1.4676703 0 0)
(1.4662025 0 0)
(1.4644231 0 0)
(1.4623347 0 0)
(1.4599391 0 0)
(1.4572376 0 0)
(1.4542304 0 0)
(1.4509177 0 0)
(1.4472987 0 0)
(1.4433726 0 0)
(1.439138 0 0)
(1.4345934 0 0)
(1.4297369 0 0)
(1.4245665 0 0)
(1.4190798 0 0)
(1.4132757 0 0)
(1.406923 0 0)
(1.4703295 0 0)
(1.4701595 0 0)
(1.4696537 0 0)
(1.4688201 0 0)
(1.4676654 0 0)
(1.4661941 0 0)
(1.4644099 0 0)
(1.4623155 0 0)
(1.4599127 0 0)
(1.4572026 0 0)
(1.4541858 0 0)
(1.4508622 0 0)
(1.4472314 0 0)
(1.4432925 0 0)
(1.4390445 0 0)
(1.434486 0 0)
(1.4296152 0 0)
(1.4244306 0 0)
(1.4189303 0 0)
(1.4131135 0 0)
(1.4066926 0 0)
(1.4703295 0 0)
(1.4701593 0 0)
(1.469653 0 0)
(1.4688181 0 0)
(1.467661 0 0)
(1.4661863 0 0)
(1.4643975 0 0)
(1.4622971 0 0)
(1.4598869 0 0)
(1.4571682 0 0)
(1.4541412 0 0)
(1.4508063 0 0)
(1.4471628 0 0)
(1.4432103 0 0)
(1.4389476 0 0)
(1.4343736 0 0)
(1.4294868 0 0)
(1.4242859 0 0)
(1.4187694 0 0)
(1.4129368 0 0)
(1.4064534 0 0)
(1.4703295 0 0)
(1.4701592 0 0)
(1.4696524 0 0)
(1.4688164 0 0)
(1.4676571 0 0)
(1.4661791 0 0)
(1.4643857 0 0)
(1.4622793 0 0)
(1.4598617 0 0)
(1.457134 0 0)
(1.4540965 0 0)
(1.4507496 0 0)
(1.4470927 0 0)
(1.4431253 0 0)
(1.4388465 0 0)
(1.4342552 0 0)
(1.4293501 0 0)
(1.4241302 0 0)
(1.4185941 0 0)
(1.4127415 0 0)
(1.4062009 0 0)
(1.4703295 0 0)
(1.4701592 0 0)
(1.469652 0 0)
(1.468815 0 0)
(1.4676537 0 0)
(1.4661724 0 0)
(1.4643745 0 0)
(1.4622622 0 0)
(1.4598371 0 0)
(1.4571001 0 0)
(1.4540519 0 0)
(1.4506923 0 0)
(1.4470211 0 0)
(1.4430376 0 0)
(1.4387412 0 0)
(1.4341307 0 0)
(1.429205 0 0)
(1.423963 0 0)
(1.4184038 0 0)
(1.4125267 0 0)
(1.405934 0 0)
(1.4703295 0 0)
(1.4701592 0 0)
(1.4696517 0 0)
(1.4688138 0 0)
(1.4676506 0 0)
(1.4661663 0 0)
(1.464364 0 0)
(1.4622458 0 0)
(1.4598132 0 0)
(1.4570669 0 0)
(1.4540075 0 0)
(1.4506349 0 0)
(1.4469486 0 0)
(1.442948 0 0)
(1.4386325 0 0)
(1.4340008 0 0)
(1.4290521 0 0)
(1.4237851 0 0)
(1.4181989 0 0)
(1.4122928 0 0)
(1.4056531 0 0)
(1.4703295 0 0)
(1.4701588 0 0)
(1.4696503 0 0)
(1.46881 0 0)
(1.4676429 0 0)
(1.4661531 0 0)
(1.4643435 0 0)
(1.462216 0 0)
(1.4597719 0 0)
(1.4570119 0 0)
(1.4539364 0 0)
(1.4505451 0 0)
(1.4468376 0 0)
(1.4428132 0 0)
(1.438471 0 0)
(1.43381 0 0)
(1.4288292 0 0)
(1.4235273 0 0)
(1.4179034 0 0)
(1.4119563 0 0)
(1.4052699 0 0)
(1.4703295 0 0)
(1.4701577 0 0)
(1.4696479 0 0)
(1.4688101 0 0)
(1.467652 0 0)
(1.4661795 0 0)
(1.4643971 0 0)
(1.4623076 0 0)
(1.4599131 0 0)
(1.4572142 0 0)
(1.4542112 0 0)
(1.4509034 0 0)
(1.4472895 0 0)
(1.4433677 0 0)
(1.4391355 0 0)
(1.4345902 0 0)
(1.4297284 0 0)
(1.4245464 0 0)
(1.4190403 0 0)
(1.4132118 0 0)
(1.406526 0 0)
(1.4703295 0 0)
(1.4701578 0 0)
(1.4696483 0 0)
(1.4688111 0 0)
(1.4676537 0 0)
(1.4661823 0 0)
(1.4644012 0 0)
(1.4623133 0 0)
(1.4599206 0 0)
(1.4572238 0 0)
(1.4542231 0 0)
(1.4509178 0 0)
(1.4473067 0 0)
(1.4433876 0 0)
(1.4391585 0 0)
(1.4346161 0 0)
(1.4297573 0 0)
(1.4245783 0 0)
(1.419075 0 0)
(1.4132491 0 0)
(1.4065711 0 0)
(1.4703295 0 0)
(1.4701577 0 0)
(1.4696479 0 0)
(1.4688103 0 0)
(1.4676525 0 0)
(1.4661805 0 0)
(1.4643987 0 0)
(1.4623101 0 0)
(1.4599166 0 0)
(1.4572191 0 0)
(1.4542176 0 0)
(1.4509115 0 0)
(1.4472995 0 0)
(1.4433795 0 0)
(1.4391493 0 0)
(1.4346057 0 0)
(1.4297456 0 0)
(1.424565 0 0)
(1.4190599 0 0)
(1.4132315 0 0)
(1.4065698 0 0)
(1.4703295 0 0)
(1.4701577 0 0)
(1.4696481 0 0)
(1.4688106 0 0)
(1.4676531 0 0)
(1.4661814 0 0)
(1.4644001 0 0)
(1.462312 0 0)
(1.459919 0 0)
(1.4572221 0 0)
(1.4542213 0 0)
(1.4509159 0 0)
(1.4473047 0 0)
(1.4433855 0 0)
(1.4391562 0 0)
(1.4346135 0 0)
(1.4297541 0 0)
(1.4245743 0 0)
(1.4190698 0 0)
(1.4132413 0 0)
(1.4066096 0 0)
(1.4703295 0 0)
(1.4701579 0 0)
(1.4696487 0 0)
(1.4688119 0 0)
(1.4676553 0 0)
(1.4661849 0 0)
(1.4644049 0 0)
(1.4623183 0 0)
(1.4599269 0 0)
(1.4572318 0 0)
(1.454233 0 0)
(1.4509297 0 0)
(1.4473206 0 0)
(1.4434039 0 0)
(1.439177 0 0)
(1.434637 0 0)
(1.4297803 0 0)
(1.4246033 0 0)
(1.4191015 0 0)
(1.4132752 0 0)
(1.4066868 0 0)
(1.4703295 0 0)
(1.4701582 0 0)
(1.4696497 0 0)
(1.468814 0 0)
(1.467659 0 0)
(1.4661905 0 0)
(1.4644125 0 0)
(1.4623283 0 0)
(1.4599395 0 0)
(1.4572471 0 0)
(1.4542512 0 0)
(1.4509511 0 0)
(1.4473454 0 0)
(1.4434322 0 0)
(1.4392091 0 0)
(1.4346731 0 0)
(1.4298207 0 0)
(1.4246481 0 0)
(1.4191509 0 0)
(1.4133287 0 0)
(1.4067966 0 0)
(1.4703295 0 0)
(1.4701585 0 0)
(1.4696511 0 0)
(1.468817 0 0)
(1.4676641 0 0)
(1.4661979 0 0)
(1.4644227 0 0)
(1.4623414 0 0)
(1.4599558 0 0)
(1.4572669 0 0)
(1.4542747 0 0)
(1.4509785 0 0)
(1.447377 0 0)
(1.4434685 0 0)
(1.4392502 0 0)
(1.4347194 0 0)
(1.4298726 0 0)
(1.424706 0 0)
(1.4192152 0 0)
(1.4133989 0 0)
(1.4069358 0 0)
(1.4703295 0 0)
(1.470159 0 0)
(1.4696528 0 0)
(1.4688207 0 0)
(1.4676703 0 0)
(1.4662071 0 0)
(1.4644352 0 0)
(1.4623575 0 0)
(1.4599758 0 0)
(1.4572911 0 0)
(1.4543033 0 0)
(1.451012 0 0)
(1.4474157 0 0)
(1.4435127 0 0)
(1.4393005 0 0)
(1.4347763 0 0)
(1.4299367 0 0)
(1.4247781 0 0)
(1.4192959 0 0)
(1.4134882 0 0)
(1.4071067 0 0)
(1.4703295 0 0)
(1.4701596 0 0)
(1.469655 0 0)
(1.4688252 0 0)
(1.4676778 0 0)
(1.466218 0 0)
(1.46445 0 0)
(1.4623766 0 0)
(1.4599995 0 0)
(1.4573197 0 0)
(1.4543373 0 0)
(1.4510517 0 0)
(1.4474616 0 0)
(1.4435653 0 0)
(1.4393605 0 0)
(1.4348445 0 0)
(1.4300142 0 0)
(1.4248659 0 0)
(1.4193956 0 0)
(1.4136003 0 0)
(1.407314 0 0)
(1.4703295 0 0)
(1.4701602 0 0)
(1.4696575 0 0)
(1.4688305 0 0)
(1.4676865 0 0)
(1.4662307 0 0)
(1.4644672 0 0)
(1.4623987 0 0)
(1.460027 0 0)
(1.4573529 0 0)
(1.4543767 0 0)
(1.4510976 0 0)
(1.4475147 0 0)
(1.4436263 0 0)
(1.4394302 0 0)
(1.4349239 0 0)
(1.4301047 0 0)
(1.4249694 0 0)
(1.4195149 0 0)
(1.4137407 0 0)
(1.407577 0 0)
(1.4703295 0 0)
(1.4701577 0 0)
(1.4696479 0 0)
(1.4688101 0 0)
(1.467652 0 0)
(1.4661795 0 0)
(1.4643971 0 0)
(1.4623076 0 0)
(1.4599131 0 0)
(1.4572142 0 0)
(1.4542112 0 0)
(1.4509034 0 0)
(1.4472895 0 0)
(1.4433677 0 0)
(1.4391355 0 0)
(1.4345902 0 0)
(1.4297284 0 0)
(1.4245464 0 0)
(1.4190403 0 0)
(1.4132118 0 0)
(1.406526 0 0)
(1.4703295 0 0)
(1.4701578 0 0)
(1.4696483 0 0)
(1.4688111 0 0)
(1.4676537 0 0)
(1.4661823 0 0)
(1.4644012 0 0)
(1.4623133 0 0)
(1.4599206 0 0)
(1.4572238 0 0)
(1.4542231 0 0)
(1.4509178 0 0)
(1.4473067 0 0)
(1.4433876 0 0)
(1.4391585 0 0)
(1.4346161 0 0)
(1.4297573 0 0)
(1.4245783 0 0)
(1.419075 0 0)
(1.4132491 0 0)
(1.4065711 0 0)
(1.4703295 0 0)
(1.4701577 0 0)
(1.4696479 0 0)
(1.4688103 0 0)
(1.4676525 0 0)
(1.4661805 0 0)
(1.4643987 0 0)
(1.4623101 0 0)
(1.4599166 0 0)
(1.4572191 0 0)
(1.4542176 0 0)
(1.4509115 0 0)
(1.4472995 0 0)
(1.4433795 0 0)
(1.4391493 0 0)
(1.4346057 0 0)
(1.4297456 0 0)
(1.424565 0 0)
(1.4190599 0 0)
(1.4132315 0 0)
(1.4065698 0 0)
(1.4703295 0 0)
(1.4701577 0 0)
(1.4696481 0 0)
(1.4688106 0 0)
(1.4676531 0 0)
(1.4661814 0 0)
(1.4644001 0 0)
(1.462312 0 0)
(1.459919 0 0)
(1.4572221 0 0)
(1.4542213 0 0)
(1.4509159 0 0)
(1.4473047 0 0)
(1.4433855 0 0)
(1.4391562 0 0)
(1.4346135 0 0)
(1.4297541 0 0)
(1.4245743 0 0)
(1.4190698 0 0)
(1.4132413 0 0)
(1.4066096 0 0)
(1.4703295 0 0)
(1.4701579 0 0)
(1.4696487 0 0)
(1.4688119 0 0)
(1.4676553 0 0)
(1.4661849 0 0)
(1.4644049 0 0)
(1.4623183 0 0)
(1.4599269 0 0)
(1.4572318 0 0)
(1.454233 0 0)
(1.4509297 0 0)
(1.4473206 0 0)
(1.4434039 0 0)
(1.439177 0 0)
(1.434637 0 0)
(1.4297803 0 0)
(1.4246033 0 0)
(1.4191015 0 0)
(1.4132752 0 0)
(1.4066868 0 0)
(1.4703295 0 0)
(1.4701582 0 0)
(1.4696497 0 0)
(1.468814 0 0)
(1.467659 0 0)
(1.4661905 0 0)
(1.4644125 0 0)
(1.4623283 0 0)
(1.4599395 0 0)
(1.4572471 0 0)
(1.4542512 0 0)
(1.4509511 0 0)
(1.4473454 0 0)
(1.4434322 0 0)
(1.4392091 0 0)
(1.4346731 0 0)
(1.4298207 0 0)
(1.4246481 0 0)
(1.4191509 0 0)
(1.4133287 0 0)
(1.4067966 0 0)
(1.4703295 0 0)
(1.4701585 0 0)
(1.4696511 0 0)
(1.468817 0 0)
(1.4676641 0 0)
(1.4661979 0 0)
(1.4644227 0 0)
(1.4623414 0 0)
(1.4599558 0 0)
(1.4572669 0 0)
(1.4542747 0 0)
(1.4509785 0 0)
(1.447377 0 0)
(1.4434685 0 0)
(1.4392502 0 0)
(1.4347194 0 0)
(1.4298726 0 0)
(1.424706 0 0)
(1.4192152 0 0)
(1.4133989 0 0)
(1.4069358 0 0)
(1.4703295 0 0)
(1.470159 0 0)
(1.4696528 0 0)
(1.4688207 0 0)
(1.4676703 0 0)
(1.4662071 0 0)
(1.4644352 0 0)
(1.4623575 0 0)
(1.4599758 0 0)
(1.4572911 0 0)
(1.4543033 0 0)
(1.451012 0 0)
(1.4474157 0 0)
(1.4435127 0 0)
(1.4393005 0 0)
(1.4347763 0 0)
(1.4299367 0 0)
(1.4247781 0 0)
(1.4192959 0 0)
(1.4134882 0 0)
(1.4071067 0 0)
(1.4703295 0 0)
(1.4701596 0 0)
(1.469655 0 0)
(1.4688252 0 0)
(1.4676778 0 0)
(1.466218 0 0)
(1.46445 0 0)
(1.4623766 0 0)
(1.4599995 0 0)
(1.4573197 0 0)
(1.4543373 0 0)
(1.4510517 0 0)
(1.4474616 0 0)
(1.4435653 0 0)
(1.4393605 0 0)
(1.4348445 0 0)
(1.4300142 0 0)
(1.4248659 0 0)
(1.4193956 0 0)
(1.4136003 0 0)
(1.407314 0 0)
(1.4703295 0 0)
(1.4701602 0 0)
(1.4696575 0 0)
(1.4688305 0 0)
(1.4676865 0 0)
(1.4662307 0 0)
(1.4644672 0 0)
(1.4623987 0 0)
(1.460027 0 0)
(1.4573529 0 0)
(1.4543767 0 0)
(1.4510976 0 0)
(1.4475147 0 0)
(1.4436263 0 0)
(1.4394302 0 0)
(1.4349239 0 0)
(1.4301047 0 0)
(1.4249694 0 0)
(1.4195149 0 0)
(1.4137407 0 0)
(1.407577 0 0)
(1.3982957 0 0)
(1.3890179 0 0)
(1.3792257 0 0)
(1.3689153 0 0)
(1.3580896 0 0)
(1.3467517 0 0)
(1.3349049 0 0)
(1.3225532 0 0)
(1.3097003 0 0)
(1.2963468 0 0)
(1.282491 0 0)
(1.2681324 0 0)
(1.2532731 0 0)
(1.2379124 0 0)
(1.2220457 0 0)
(1.2056653 0 0)
(1.1887626 0 0)
(1.171325 0 0)
(1.1533325 0 0)
(1.1347725 0 0)
(1.1156312 0 0)
(1.0958851 0 0)
(1.0755014 0 0)
(1.0544458 0 0)
(1.0326841 0 0)
(1.0101821 0 0)
(0.98689435 0 0)
(0.96275978 0 0)
(0.93770872 0 0)
(0.91167071 0 0)
(0.8845932 0 0)
(0.8564091 0 0)
(0.82702005 0 0)
(0.79630063 0 0)
(0.76415476 0 0)
(0.73054021 0 0)
(0.69534227 0 0)
(0.65836265 0 0)
(0.61945387 0 0)
(0.57853221 0 0)
(0.5353577 0 0)
(0.48962425 0 0)
(0.44122382 0 0)
(0.38989665 0 0)
(0.33526192 0 0)
(0.27701636 0 0)
(0.21479565 0 0)
(0.14820352 0 0)
(0.076702733 0 0)
(0 0 0)
(1.3983605 0 0)
(1.3891077 0 0)
(1.3793383 0 0)
(1.3690485 0 0)
(1.3582409 0 0)
(1.3469183 0 0)
(1.335084 0 0)
(1.3227417 0 0)
(1.3098945 0 0)
(1.2965429 0 0)
(1.282686 0 0)
(1.2683245 0 0)
(1.2534607 0 0)
(1.238094 0 0)
(1.2222203 0 0)
(1.2058323 0 0)
(1.1889214 0 0)
(1.1714742 0 0)
(1.1534723 0 0)
(1.1349042 0 0)
(1.115755 0 0)
(1.0960003 0 0)
(1.0756078 0 0)
(1.0545437 0 0)
(1.0327739 0 0)
(1.0102639 0 0)
(0.98696926 0 0)
(0.96282863 0 0)
(0.93777073 0 0)
(0.91172733 0 0)
(0.88464539 0 0)
(0.85645703 0 0)
(0.82706429 0 0)
(0.79634248 0 0)
(0.76419472 0 0)
(0.73057805 0 0)
(0.6953778 0 0)
(0.65839534 0 0)
(0.61948279 0 0)
(0.57855834 0 0)
(0.53538194 0 0)
(0.48964351 0 0)
(0.44124092 0 0)
(0.38991454 0 0)
(0.33527905 0 0)
(0.2770326 0 0)
(0.2148093 0 0)
(0.1482126 0 0)
(0.076706854 0 0)
(0 0 0)
(1.3984132 0 0)
(1.3892301 0 0)
(1.379526 0 0)
(1.3692965 0 0)
(1.3585441 0 0)
(1.3472711 0 0)
(1.3354809 0 0)
(1.3231767 0 0)
(1.3103612 0 0)
(1.2970352 0 0)
(1.2831989 0 0)
(1.268854 0 0)
(1.2540027 0 0)
(1.238645 0 0)
(1.2227775 0 0)
(1.2063935 0 0)
(1.1894838 0 0)
(1.1720348 0 0)
(1.1540301 0 0)
(1.1354582 0 0)
(1.1163043 0 0)
(1.0965435 0 0)
(1.0761437 0 0)
(1.0550707 0 0)
(1.0332915 0 0)
(1.0107723 0 0)
(0.98746839 0 0)
(0.96331793 0 0)
(0.93824896 0 0)
(0.91219543 0 0)
(0.88510279 0 0)
(0.85690316 0 0)
(0.82749952 0 0)
(0.79676693 0 0)
(0.76460726 0 0)
(0.73097768 0 0)
(0.69576391 0 0)
(0.65876595 0 0)
(0.61983491 0 0)
(0.57889119 0 0)
(0.53569491 0 0)
(0.48993118 0 0)
(0.4415031 0 0)
(0.39015161 0 0)
(0.33548788 0 0)
(0.27721024 0 0)
(0.21494979 0 0)
(0.14831022 0 0)
(0.076757117 0 0)
(0 0 0)
(1.3985431 0 0)
(1.3894752 0 0)
(1.3798791 0 0)
(1.36975 0 0)
(1.3590895 0 0)
(1.3479 0 0)
(1.3361844 0 0)
(1.3239459 0 0)
(1.311187 0 0)
(1.297909 0 0)
(1.2841137 0 0)
(1.2698032 0 0)
(1.2549801 0 0)
(1.2396448 0 0)
(1.2237948 0 0)
(1.2074242 0 0)
(1.1905232 0 0)
(1.1730782 0 0)
(1.1550747 0 0)
(1.1365017 0 0)
(1.1173439 0 0)
(1.0975769 0 0)
(1.0771686 0 0)
(1.0560846 0 0)
(1.0342927 0 0)
(1.0117598 0 0)
(0.98844171 0 0)
(0.96427587 0 0)
(0.93918918 0 0)
(0.91311797 0 0)
(0.88600658 0 0)
(0.85778677 0 0)
(0.82836216 0 0)
(0.79760773 0 0)
(0.76542432 0 0)
(0.73176924 0 0)
(0.69652812 0 0)
(0.65949942 0 0)
(0.62053353 0 0)
(0.57955238 0 0)
(0.53631557 0 0)
(0.49050444 0 0)
(0.44202577 0 0)
(0.39062066 0 0)
(0.33589884 0 0)
(0.2775576 0 0)
(0.21522363 0 0)
(0.14850071 0 0)
(0.076855636 0 0)
(0 0 0)
(1.3987456 0 0)
(1.3898379 0 0)
(1.3803921 0 0)
(1.3704029 0 0)
(1.3598712 0 0)
(1.3487988 0 0)
(1.3371882 0 0)
(1.325043 0 0)
(1.3123656 0 0)
(1.2991589 0 0)
(1.2854254 0 0)
(1.2711679 0 0)
(1.2563887 0 0)
(1.2410893 0 0)
(1.2252683 0 0)
(1.2089203 0 0)
(1.1920353 0 0)
(1.1746003 0 0)
(1.1566023 0 0)
(1.1380304 0 0)
(1.1188697 0 0)
(1.0990965 0 0)
(1.0786783 0 0)
(1.0575806 0 0)
(1.0357724 0 0)
(1.0132218 0 0)
(0.98988448 0 0)
(0.96569715 0 0)
(0.94058647 0 0)
(0.91449001 0 0)
(0.88735115 0 0)
(0.85910213 0 0)
(0.82964696 0 0)
(0.79885961 0 0)
(0.76664016 0 0)
(0.73294697 0 0)
(0.69766514 0 0)
(0.66059063 0 0)
(0.62157312 0 0)
(0.58053647 0 0)
(0.53723932 0 0)
(0.49135874 0 0)
(0.44280438 0 0)
(0.39131789 0 0)
(0.3365088 0 0)
(0.27807201 0 0)
(0.2156286 0 0)
(0.14878249 0 0)
(0.077001694 0 0)
(0 0 0)
(1.3990154 0 0)
(1.3903121 0 0)
(1.3810583 0 0)
(1.3712485 0 0)
(1.360882 0 0)
(1.3499604 0 0)
(1.338486 0 0)
(1.3264622 0 0)
(1.3138923 0 0)
(1.3007802 0 0)
(1.2871302 0 0)
(1.2729447 0 0)
(1.2582256 0 0)
(1.2429756 0 0)
(1.2271949 0 0)
(1.2108785 0 0)
(1.1940165 0 0)
(1.1765971 0 0)
(1.1586087 0 0)
(1.1400403 0 0)
(1.1208774 0 0)
(1.1010972 0 0)
(1.0806675 0 0)
(1.0595534 0 0)
(1.0377251 0 0)
(1.015152 0 0)
(0.99179013 0 0)
(0.96757542 0 0)
(0.94243378 0 0)
(0.9163042 0 0)
(0.88912957 0 0)
(0.86084222 0 0)
(0.83134627 0 0)
(0.80051489 0 0)
(0.76824762 0 0)
(0.73450376 0 0)
(0.69916746 0 0)
(0.66203208 0 0)
(0.62294682 0 0)
(0.58183705 0 0)
(0.53845942 0 0)
(0.49248815 0 0)
(0.44383372 0 0)
(0.39223831 0 0)
(0.33731333 0 0)
(0.27874982 0 0)
(0.21616185 0 0)
(0.14915358 0 0)
(0.077194212 0 0)
(0 0 0)
(1.3993485 0 0)
(1.3908924 0 0)
(1.3818719 0 0)
(1.3722796 0 0)
(1.3621148 0 0)
(1.3513781 0 0)
(1.3400719 0 0)
(1.3281989 0 0)
(1.3157626 0 0)
(1.3027688 0 0)
(1.2892243 0 0)
(1.2751307 0 0)
(1.260488 0 0)
(1.2453005 0 0)
(1.2295709 0 0)
(1.2132946 0 0)
(1.1964627 0 0)
(1.1790644 0 0)
(1.1610892 0 0)
(1.1425261 0 0)
(1.1233615 0 0)
(1.1035735 0 0)
(1.0831297 0 0)
(1.061996 0 0)
(1.0401436 0 0)
(1.0175432 0 0)
(0.99415072 0 0)
(0.96990214 0 0)
(0.94472287 0 0)
(0.91855188 0 0)
(0.89133243 0 0)
(0.86299761 0 0)
(0.83345112 0 0)
(0.80256447 0 0)
(0.77023699 0 0)
(0.73642996 0 0)
(0.70102602 0 0)
(0.66381474 0 0)
(0.62464533 0 0)
(0.58344497 0 0)
(0.53996771 0 0)
(0.49388444 0 0)
(0.44510607 0 0)
(0.39337548 0 0)
(0.33830697 0 0)
(0.27958623 0 0)
(0.21681954 0 0)
(0.14961135 0 0)
(0.077431813 0 0)
(0 0 0)
(1.3997456 0 0)
(1.3915784 0 0)
(1.3828306 0 0)
(1.3734936 0 0)
(1.3635657 0 0)
(1.3530477 0 0)
(1.3419422 0 0)
(1.3302505 0 0)
(1.3179739 0 0)
(1.3051217 0 0)
(1.2917061 0 0)
(1.2777249 0 0)
(1.263173 0 0)
(1.24806 0 0)
(1.2323921 0 0)
(1.2161646 0 0)
(1.1993689 0 0)
(1.1819966 0 0)
(1.1640382 0 0)
(1.1454819 0 0)
(1.1263154 0 0)
(1.106518 0 0)
(1.0860576 0 0)
(1.0649005 0 0)
(1.0430193 0 0)
(1.0203857 0 0)
(0.99695657 0 0)
(0.97266747 0 0)
(0.94744299 0 0)
(0.92122244 0 0)
(0.89394919 0 0)
(0.86555726 0 0)
(0.83595002 0 0)
(0.80499703 0 0)
(0.77259737 0 0)
(0.73871449 0 0)
(0.70322935 0 0)
(0.66592755 0 0)
(0.62665826 0 0)
(0.5853501 0 0)
(0.54175398 0 0)
(0.49553843 0 0)
(0.44661314 0 0)
(0.39472183 0 0)
(0.33948299 0 0)
(0.2805756 0 0)
(0.21759732 0 0)
(0.15015267 0 0)
(0.077712769 0 0)
(0 0 0)
(1.4002107 0 0)
(1.3923722 0 0)
(1.3839355 0 0)
(1.3748901 0 0)
(1.3652329 0 0)
(1.3549674 0 0)
(1.3440972 0 0)
(1.332619 0 0)
(1.3205319 0 0)
(1.3078463 0 0)
(1.2945759 0 0)
(1.2807205 0 0)
(1.2662761 0 0)
(1.2512521 0 0)
(1.2356567 0 0)
(1.2194861 0 0)
(1.202732 0 0)
(1.1853897 0 0)
(1.1674504 0 0)
(1.1489004 0 0)
(1.1297309 0 0)
(1.1099226 0 0)
(1.0894418 0 0)
(1.0682568 0 0)
(1.0463417 0 0)
(1.023669 0 0)
(1.0001962 0 0)
(0.97585931 0 0)
(0.95058225 0 0)
(0.92430343 0 0)
(0.89696678 0 0)
(0.86850797 0 0)
(0.83883007 0 0)
(0.80779956 0 0)
(0.77531534 0 0)
(0.74134401 0 0)
(0.70576461 0 0)
(0.66835791 0 0)
(0.62897295 0 0)
(0.58753997 0 0)
(0.54380674 0 0)
(0.49743867 0 0)
(0.44834456 0 0)
(0.39626879 0 0)
(0.34083386 0 0)
(0.28171139 0 0)
(0.21848987 0 0)
(0.1507738 0 0)
(0.078035183 0 0)
(0 0 0)
(1.4007736 0 0)
(1.3933049 0 0)
(1.3852176 0 0)
(1.3764995 0 0)
(1.3671502 0 0)
(1.3571753 0 0)
(1.3465729 0 0)
(1.3353363 0 0)
(1.3234666 0 0)
(1.3109707 0 0)
(1.2978605 0 0)
(1.2841454 0 0)
(1.2698251 0 0)
(1.2549037 0 0)
(1.2393903 0 0)
(1.2232824 0 0)
(1.2065714 0 0)
(1.1892575 0 0)
(1.1713356 0 0)
(1.1527917 0 0)
(1.1336187 0 0)
(1.1137958 0 0)
(1.0932886 0 0)
(1.0720691 0 0)
(1.0501132 0 0)
(1.0273934 0 0)
(1.0038687 0 0)
(0.97947565 0 0)
(0.9541369 0 0)
(0.92779039 0 0)
(0.9003799 0 0)
(0.87184332 0 0)
(0.84208377 0 0)
(0.81096426 0 0)
(0.77838289 0 0)
(0.74430971 0 0)
(0.70862226 0 0)
(0.67109616 0 0)
(0.63157995 0 0)
(0.59000504 0 0)
(0.54611626 0 0)
(0.49957635 0 0)
(0.45029219 0 0)
(0.39800879 0 0)
(0.34235266 0 0)
(0.28298774 0 0)
(0.21949258 0 0)
(0.15147141 0 0)
(0.078397149 0 0)
(0 0 0)
(1.3997316 0 0)
(1.3926198 0 0)
(1.3848769 0 0)
(1.3764909 0 0)
(1.3674657 0 0)
(1.3578006 0 0)
(1.3474842 0 0)
(1.3365132 0 0)
(1.3248935 0 0)
(1.3126264 0 0)
(1.2997203 0 0)
(1.2861897 0 0)
(1.2720355 0 0)
(1.2572605 0 0)
(1.2418739 0 0)
(1.2258742 0 0)
(1.2092545 0 0)
(1.1920173 0 0)
(1.17416 0 0)
(1.1556716 0 0)
(1.1365419 0 0)
(1.116748 0 0)
(1.0962601 0 0)
(1.0750528 0 0)
(1.0531008 0 0)
(1.0303776 0 0)
(1.0068433 0 0)
(0.9824353 0 0)
(0.95707584 0 0)
(0.93070172 0 0)
(0.90325679 0 0)
(0.87468031 0 0)
(0.84487654 0 0)
(0.81370557 0 0)
(0.78106371 0 0)
(0.74692257 0 0)
(0.71116085 0 0)
(0.67354934 0 0)
(0.63393486 0 0)
(0.5922476 0 0)
(0.54823331 0 0)
(0.50155087 0 0)
(0.45210385 0 0)
(0.39963991 0 0)
(0.34378748 0 0)
(0.28420366 0 0)
(0.22045652 0 0)
(0.15214985 0 0)
(0.078758015 0 0)
(0 0 0)
(1.3982957 0 0)
(1.3890179 0 0)
(1.3792257 0 0)
(1.3689153 0 0)
(1.3580896 0 0)
(1.3467517 0 0)
(1.3349049 0 0)
(1.3225532 0 0)
(1.3097003 0 0)
(1.2963468 0 0)
(1.282491 0 0)
(1.2681324 0 0)
(1.2532731 0 0)
(1.2379124 0 0)
(1.2220457 0 0)
(1.2056653 0 0)
(1.1887626 0 0)
(1.171325 0 0)
(1.1533325 0 0)
(1.1347725 0 0)
(1.1156312 0 0)
(1.0958851 0 0)
(1.0755014 0 0)
(1.0544458 0 0)
(1.0326841 0 0)
(1.0101821 0 0)
(0.98689435 0 0)
(0.96275978 0 0)
(0.93770872 0 0)
(0.91167071 0 0)
(0.8845932 0 0)
(0.8564091 0 0)
(0.82702005 0 0)
(0.79630063 0 0)
(0.76415476 0 0)
(0.73054021 0 0)
(0.69534227 0 0)
(0.65836265 0 0)
(0.61945387 0 0)
(0.57853221 0 0)
(0.5353577 0 0)
(0.48962425 0 0)
(0.44122382 0 0)
(0.38989665 0 0)
(0.33526192 0 0)
(0.27701636 0 0)
(0.21479565 0 0)
(0.14820352 0 0)
(0.076702733 0 0)
(0 0 0)
(1.3983605 0 0)
(1.3891077 0 0)
(1.3793383 0 0)
(1.3690485 0 0)
(1.3582409 0 0)
(1.3469183 0 0)
(1.335084 0 0)
(1.3227417 0 0)
(1.3098945 0 0)
(1.2965429 0 0)
(1.282686 0 0)
(1.2683245 0 0)
(1.2534607 0 0)
(1.238094 0 0)
(1.2222203 0 0)
(1.2058323 0 0)
(1.1889214 0 0)
(1.1714742 0 0)
(1.1534723 0 0)
(1.1349042 0 0)
(1.115755 0 0)
(1.0960003 0 0)
(1.0756078 0 0)
(1.0545437 0 0)
(1.0327739 0 0)
(1.0102639 0 0)
(0.98696926 0 0)
(0.96282863 0 0)
(0.93777073 0 0)
(0.91172733 0 0)
(0.88464539 0 0)
(0.85645703 0 0)
(0.82706429 0 0)
(0.79634248 0 0)
(0.76419472 0 0)
(0.73057805 0 0)
(0.6953778 0 0)
(0.65839534 0 0)
(0.61948279 0 0)
(0.57855834 0 0)
(0.53538194 0 0)
(0.48964351 0 0)
(0.44124092 0 0)
(0.38991454 0 0)
(0.33527905 0 0)
(0.2770326 0 0)
(0.2148093 0 0)
(0.1482126 0 0)
(0.076706854 0 0)
(0 0 0)
(1.3984132 0 0)
(1.3892301 0 0)
(1.379526 0 0)
(1.3692965 0 0)
(1.3585441 0 0)
(1.3472711 0 0)
(1.3354809 0 0)
(1.3231767 0 0)
(1.3103612 0 0)
(1.2970352 0 0)
(1.2831989 0 0)
(1.268854 0 0)
(1.2540027 0 0)
(1.238645 0 0)
(1.2227775 0 0)
(1.2063935 0 0)
(1.1894838 0 0)
(1.1720348 0 0)
(1.1540301 0 0)
(1.1354582 0 0)
(1.1163043 0 0)
(1.0965435 0 0)
(1.0761437 0 0)
(1.0550707 0 0)
(1.0332915 0 0)
(1.0107723 0 0)
(0.98746839 0 0)
(0.96331793 0 0)
(0.93824896 0 0)
(0.91219543 0 0)
(0.88510279 0 0)
(0.85690316 0 0)
(0.82749952 0 0)
(0.79676693 0 0)
(0.76460726 0 0)
(0.73097768 0 0)
(0.69576391 0 0)
(0.65876595 0 0)
(0.61983491 0 0)
(0.57889119 0 0)
(0.53569491 0 0)
(0.48993118 0 0)
(0.4415031 0 0)
(0.39015161 0 0)
(0.33548788 0 0)
(0.27721024 0 0)
(0.21494979 0 0)
(0.14831022 0 0)
(0.076757117 0 0)
(0 0 0)
(1.3985431 0 0)
(1.3894752 0 0)
(1.3798791 0 0)
(1.36975 0 0)
(1.3590895 0 0)
(1.3479 0 0)
(1.3361844 0 0)
(1.3239459 0 0)
(1.311187 0 0)
(1.297909 0 0)
(1.2841137 0 0)
(1.2698032 0 0)
(1.2549801 0 0)
(1.2396448 0 0)
(1.2237948 0 0)
(1.2074242 0 0)
(1.1905232 0 0)
(1.1730782 0 0)
(1.1550747 0 0)
(1.1365017 0 0)
(1.1173439 0 0)
(1.0975769 0 0)
(1.0771686 0 0)
(1.0560846 0 0)
(1.0342927 0 0)
(1.0117598 0 0)
(0.98844171 0 0)
(0.96427587 0 0)
(0.93918918 0 0)
(0.91311797 0 0)
(0.88600658 0 0)
(0.85778677 0 0)
(0.82836216 0 0)
(0.79760773 0 0)
(0.76542432 0 0)
(0.73176924 0 0)
(0.69652812 0 0)
(0.65949942 0 0)
(0.62053353 0 0)
(0.57955238 0 0)
(0.53631557 0 0)
(0.49050444 0 0)
(0.44202577 0 0)
(0.39062066 0 0)
(0.33589884 0 0)
(0.2775576 0 0)
(0.21522363 0 0)
(0.14850071 0 0)
(0.076855636 0 0)
(0 0 0)
(1.3987456 0 0)
(1.3898379 0 0)
(1.3803921 0 0)
(1.3704029 0 0)
(1.3598712 0 0)
(1.3487988 0 0)
(1.3371882 0 0)
(1.325043 0 0)
(1.3123656 0 0)
(1.2991589 0 0)
(1.2854254 0 0)
(1.2711679 0 0)
(1.2563887 0 0)
(1.2410893 0 0)
(1.2252683 0 0)
(1.2089203 0 0)
(1.1920353 0 0)
(1.1746003 0 0)
(1.1566023 0 0)
(1.1380304 0 0)
(1.1188697 0 0)
(1.0990965 0 0)
(1.0786783 0 0)
(1.0575806 0 0)
(1.0357724 0 0)
(1.0132218 0 0)
(0.98988448 0 0)
(0.96569715 0 0)
(0.94058647 0 0)
(0.91449001 0 0)
(0.88735115 0 0)
(0.85910213 0 0)
(0.82964696 0 0)
(0.79885961 0 0)
(0.76664016 0 0)
(0.73294697 0 0)
(0.69766514 0 0)
(0.66059063 0 0)
(0.62157312 0 0)
(0.58053647 0 0)
(0.53723932 0 0)
(0.49135874 0 0)
(0.44280438 0 0)
(0.39131789 0 0)
(0.3365088 0 0)
(0.27807201 0 0)
(0.2156286 0 0)
(0.14878249 0 0)
(0.077001694 0 0)
(0 0 0)
(1.3990154 0 0)
(1.3903121 0 0)
(1.3810583 0 0)
(1.3712485 0 0)
(1.360882 0 0)
(1.3499604 0 0)
(1.338486 0 0)
(1.3264622 0 0)
(1.3138923 0 0)
(1.3007802 0 0)
(1.2871302 0 0)
(1.2729447 0 0)
(1.2582256 0 0)
(1.2429756 0 0)
(1.2271949 0 0)
(1.2108785 0 0)
(1.1940165 0 0)
(1.1765971 0 0)
(1.1586087 0 0)
(1.1400403 0 0)
(1.1208774 0 0)
(1.1010972 0 0)
(1.0806675 0 0)
(1.0595534 0 0)
(1.0377251 0 0)
(1.015152 0 0)
(0.99179013 0 0)
(0.96757542 0 0)
(0.94243378 0 0)
(0.9163042 0 0)
(0.88912957 0 0)
(0.86084222 0 0)
(0.83134627 0 0)
(0.80051489 0 0)
(0.76824762 0 0)
(0.73450376 0 0)
(0.69916746 0 0)
(0.66203208 0 0)
(0.62294682 0 0)
(0.58183705 0 0)
(0.53845942 0 0)
(0.49248815 0 0)
(0.44383372 0 0)
(0.39223831 0 0)
(0.33731333 0 0)
(0.27874982 0 0)
(0.21616185 0 0)
(0.14915358 0 0)
(0.077194212 0 0)
(0 0 0)
(1.3993485 0 0)
(1.3908924 0 0)
(1.3818719 0 0)
(1.3722796 0 0)
(1.3621148 0 0)
(1.3513781 0 0)
(1.3400719 0 0)
(1.3281989 0 0)
(1.3157626 0 0)
(1.3027688 0 0)
(1.2892243 0 0)
(1.2751307 0 0)
(1.260488 0 0)
(1.2453005 0 0)
(1.2295709 0 0)
(1.2132946 0 0)
(1.1964627 0 0)
(1.1790644 0 0)
(1.1610892 0 0)
(1.1425261 0 0)
(1.1233615 0 0)
(1.1035735 0 0)
(1.0831297 0 0)
(1.061996 0 0)
(1.0401436 0 0)
(1.0175432 0 0)
(0.99415072 0 0)
(0.96990214 0 0)
(0.94472287 0 0)
(0.91855188 0 0)
(0.89133243 0 0)
(0.86299761 0 0)
(0.83345112 0 0)
(0.80256447 0 0)
(0.77023699 0 0)
(0.73642996 0 0)
(0.70102602 0 0)
(0.66381474 0 0)
(0.62464533 0 0)
(0.58344497 0 0)
(0.53996771 0 0)
(0.49388444 0 0)
(0.44510607 0 0)
(0.39337548 0 0)
(0.33830697 0 0)
(0.27958623 0 0)
(0.21681954 0 0)
(0.14961135 0 0)
(0.077431813 0 0)
(0 0 0)
(1.3997456 0 0)
(1.3915784 0 0)
(1.3828306 0 0)
(1.3734936 0 0)
(1.3635657 0 0)
(1.3530477 0 0)
(1.3419422 0 0)
(1.3302505 0 0)
(1.3179739 0 0)
(1.3051217 0 0)
(1.2917061 0 0)
(1.2777249 0 0)
(1.263173 0 0)
(1.24806 0 0)
(1.2323921 0 0)
(1.2161646 0 0)
(1.1993689 0 0)
(1.1819966 0 0)
(1.1640382 0 0)
(1.1454819 0 0)
(1.1263154 0 0)
(1.106518 0 0)
(1.0860576 0 0)
(1.0649005 0 0)
(1.0430193 0 0)
(1.0203857 0 0)
(0.99695657 0 0)
(0.97266747 0 0)
(0.94744299 0 0)
(0.92122244 0 0)