/*--------------------------------*- C++ -*----------------------------------*\
| =========                 |                                                 |
| \\      /  F ield         | OpenFOAM: The Open Source CFD Toolbox           |
|  \\    /   O peration     | Version:  v2012                                 |
|   \\  /    A nd           | Website:  www.openfoam.com                      |
|    \\/     M anipulation  |                                                 |
\*---------------------------------------------------------------------------*/
FoamFile
{
    version     2.0;
    format      ascii;
    class       volVectorField;
    location    "71.6485249520715399";
    object      U;
}
// * * * * * * * * * * * * * * * * * * * * * * * * * * * * * * * * * * * * * //

dimensions      [0 1 -1 0 0 0 0];


internalField   nonuniform List<vector> 
9200
(
(2.6299804 -0.00070446242 -6.8924272e-21)
(2.6309835 -0.0029311355 3.9779288e-21)
(2.6322764 -0.00045655875 -1.0630261e-20)
(2.6326069 -0.0045408944 -4.2738672e-23)
(2.6334814 -0.0020944984 -8.4448769e-21)
(2.6328014 -0.00028706824 2.5730713e-22)
(2.6348165 -0.0067000312 9.0665287e-21)
(2.6353484 -0.0032033959 -5.4364595e-23)
(2.6340864 -0.0013986688 -3.3361754e-21)
(2.6333582 -5.9149475e-05 -9.2815923e-21)
(2.6373938 -0.0087351731 1.9546328e-21)
(2.6380358 -0.0049438844 1.0843033e-20)
(2.6361028 -0.0020811749 1.9864069e-22)
(2.6347061 -0.00058478732 1.2688643e-20)
(2.6333635 0.0002000195 9.6070392e-22)
(2.6402246 -0.011206081 -2.9445997e-23)
(2.6412291 -0.0066254459 -1.500667e-20)
(2.6390367 -0.0033542831 -2.7909209e-21)
(2.6368647 -0.0007418261 -7.0012499e-21)
(2.6347273 0.00023901548 9.3008357e-21)
(2.6330111 0.00043655466 1.2799195e-20)
(2.6431059 -0.013857409 -1.0536768e-22)
(2.6449071 -0.00888232 -8.8103343e-21)
(2.6426034 -0.0045544139 -1.0109457e-20)
(2.6400297 -0.0014287685 -2.1805857e-21)
(2.6369528 0.00063912876 3.7635098e-22)
(2.6343615 0.0010187436 -1.5375636e-20)
(2.6323174 0.00062571104 -3.8884795e-23)
(2.6458973 -0.01693127 -2.6918309e-22)
(2.6488522 -0.011485959 4.0996192e-21)
(2.6468159 -0.0063159384 1.7859528e-21)
(2.6439524 -0.0019936177 1.283899e-20)
(2.6402382 0.0005989909 -5.1560586e-21)
(2.6365688 0.0019685439 1.6306538e-20)
(2.6336141 0.0016982282 -1.898113e-20)
(2.631383 0.00077088819 5.5594511e-21)
(2.6484121 -0.020362298 6.0728615e-21)
(2.6529783 -0.014751178 2.3185833e-21)
(2.6515046 -0.0084128772 2.4673112e-21)
(2.6486858 -0.0030580723 1.1344678e-20)
(2.6443549 0.00077346349 1.1211211e-20)
(2.6398563 0.0025754254 6.794541e-22)
(2.6357249 0.0031333969 5.0713517e-21)
(2.6325794 0.0022338694 1.0589079e-20)
(2.6302882 0.00087866361 -6.2999346e-21)
(2.6504757 -0.02424354 6.1270714e-21)
(2.6571018 -0.018690492 1.1305743e-20)
(2.656633 -0.011184902 -6.8771819e-21)
(2.6541116 -0.0043815811 -3.4173552e-21)
(2.6494116 0.00057865932 -2.5543024e-21)
(2.6439865 0.0035164786 -5.5237134e-21)
(2.6388838 0.0043292553 -1.9206806e-21)
(2.6345365 0.0040517702 -1.5905224e-20)
(2.6313547 0.0025978836 3.9641304e-21)
(2.6291165 0.00094153744 -1.124652e-20)
(2.651888 -0.02856425 8.5220984e-21)
(2.6610812 -0.023468182 3.4745862e-21)
(2.6620729 -0.014665907 -2.838197e-21)
(2.6602552 -0.0063142512 4.0995017e-22)
(2.6553237 0.00029178713 -2.8983284e-22)
(2.6491222 0.0042648324 3.2310289e-22)
(2.6428418 0.0059801741 -6.7349572e-21)
(2.6374535 0.0057241341 -2.8268885e-21)
(2.6331189 0.0046725967 9.7466525e-21)
(2.6300466 0.0027811051 7.1777995e-22)
(2.627946 0.00095153104 6.173222e-21)
(2.6525378 -0.033343222 2.7870276e-21)
(2.664714 -0.029191767 1.2479436e-20)
(2.6677432 -0.01906442 2.6159145e-21)
(2.6670581 -0.0088942156 6.0270773e-21)
(2.6621914 -0.00041517987 1.8299135e-20)
(2.6551897 0.0051455005 1.603393e-21)
(2.6477818 0.0076329149 -7.9505625e-21)
(2.6410775 0.0079540759 4.5065037e-21)
(2.6357133 0.006670713 1.1028046e-20)
(2.6315973 0.0049767039 -1.3925113e-20)
(2.6287474 0.0027884111 1.56641e-20)
(2.6268453 0.00091252073 9.4183587e-21)
(2.6521825 -0.038560025 3.9983727e-22)
(2.6678864 -0.035963129 2.5521923e-21)
(2.6735066 -0.024528327 1.2552568e-21)
(2.6745154 -0.012362398 -2.6830518e-21)
(2.6700306 -0.0015493395 3.4117215e-21)
(2.6623516 0.0058961149 -1.9654637e-22)
(2.6536275 0.0096639394 -3.5903443e-22)
(2.6455759 0.010362098 -1.0994939e-21)
(2.6388881 0.0092964029 -6.3278751e-21)
(2.6338285 0.0071345264 4.5760988e-21)
(2.630085 0.0049737062 -2.5975281e-20)
(2.6275326 0.0026355012 9.6475253e-21)
(2.6258658 0.00083461757 -3.9065934e-21)
(2.6506622 -0.044190417 6.8252964e-22)
(2.6703448 -0.043865886 6.0738013e-21)
(2.679266 -0.031214254 -9.7789651e-23)
(2.6825755 -0.016897058 -1.0665631e-21)
(2.6789341 -0.0033403671 -7.6955477e-21)
(2.6706784 0.0065719947 -9.7772868e-21)
(2.6605632 0.011901513 -7.3879071e-21)
(2.6508516 0.013368592 1.2854783e-20)
(2.6427665 0.012228813 2.948053e-21)
(2.6364964 0.0099488398 2.7758025e-21)
(2.6319516 0.0071298591 7.812302e-22)
(2.6286765 0.0046970983 1.5375166e-20)
(2.6264595 0.0023496554 -1.0446884e-20)
(2.6250415 0.00072803041 -1.4762621e-20)
(2.6478094 -0.050204896 -5.1252273e-21)
(2.6719288 -0.052981374 0)
(2.6848486 -0.039263784 3.6913494e-22)
(2.6912007 -0.022721415 1.0677997e-22)
(2.6889676 -0.005959099 -6.6894162e-22)
(2.68035 0.0070161819 2.2197354e-21)
(2.6686752 0.014488318 -2.1978498e-21)
(2.6570628 0.016892557 3.6732155e-23)
(2.647218 0.015913578 -9.7204541e-21)
(2.639666 0.013135899 7.5239751e-22)
(2.6341113 0.0099299691 1.1010326e-20)
(2.6302091 0.0067084353 -2.9270495e-21)
(2.6274415 0.0041973473 1.6652561e-20)
(2.6255657 0.0019684142 -1.3972128e-20)
(2.6243936 0.00060419522 1.6806034e-20)
(2.6434545 -0.056569951 -1.1004671e-21)
(2.6724669 -0.063356048 8.1065608e-22)
(2.6901054 -0.048810485 -4.3762798e-21)
(2.7003019 -0.030054805 -5.6109872e-21)
(2.7002163 -0.0096524445 8.2207679e-21)
(2.6915416 0.0071325982 2.2290781e-21)
(2.6781811 0.01739014 5.0366074e-21)
(2.6642638 0.021163614 4.1746399e-22)
(2.6523364 0.020336957 8.2760091e-22)
(2.6431689 0.017142176 -8.0995359e-21)
(2.6365709 0.01310665 8.357079e-21)
(2.631905 0.0093170982 1.005251e-20)
(2.6286941 0.0059471222 -6.5085742e-21)
(2.6264264 0.0035350889 7.0983962e-21)
(2.6248702 0.0015315195 -1.2223844e-20)
(2.6239229 0.00047772054 1.0794586e-20)
(2.63744 -0.063263444 1.6795772e-21)
(2.6718018 -0.075017462 0)
(2.6948667 -0.059950913 3.0761477e-21)
(2.7097746 -0.039118817 4.097005e-21)
(2.7127419 -0.014689021 -4.0301089e-21)
(2.7044781 0.006743471 -4.8759422e-22)
(2.6893069 0.020645778 -3.6576389e-22)
(2.6726355 0.02627897 -2.0951366e-22)
(2.6581052 0.025785825 5.7988619e-21)
(2.6470193 0.02198419 2.6879214e-21)
(2.6391286 0.017085206 8.0280031e-21)
(2.6337219 0.01225559 -3.6818535e-21)
(2.6300016 0.008224298 -4.2610036e-21)
(2.6274665 0.0049370221 1.5067143e-22)
(2.6256554 0.0027748171 -8.1133202e-21)
(2.6243747 0.001072863 1.7921018e-20)
(2.6236004 0.0003711391 -1.2335481e-20)
(2.6296677 -0.070269782 3.7253823e-21)
(2.6698022 -0.087971057 5.1397927e-21)
(2.6989614 -0.072741071 -3.8681505e-21)
(2.7194653 -0.050120178 -2.4823527e-21)
(2.7265962 -0.021378606 4.6683774e-21)
(2.7193993 0.0056478171 -1.3002291e-21)
(2.7023523 0.024240806 -6.6111847e-21)
(2.6823625 0.032425246 -4.9552435e-21)
(2.6646038 0.032449507 7.2032974e-21)
(2.6511151 0.027958071 -4.3677148e-21)
(2.6417286 0.021876746 6.9173004e-22)
(2.635435 0.015914433 5.521457e-21)
(2.6312849 0.010750609 -6.9904637e-21)
(2.6284769 0.0067833527 -9.7082234e-21)
(2.626556 0.0037744784 3.5436958e-21)
(2.6251317 0.0019798583 -3.601131e-21)
(2.624068 0.00062611601 1.6675381e-20)
(2.6234268 0.00031538177 -6.6146767e-24)
(2.6198599 -0.077540537 1.7299793e-21)
(2.6663917 -0.1021833 4.1415105e-21)
(2.7022208 -0.087198462 4.4327212e-21)
(2.7291851 -0.063229134 -1.28623e-21)
(2.7417747 -0.030064994 -3.9498411e-21)
(2.7365674 0.0035716089 6.1669377e-22)
(2.7176671 0.028153616 8.6330439e-21)
(2.6937005 0.039785943 8.1599629e-21)
(2.671892 0.040617438 6.6047611e-21)
(2.6554092 0.035275722 -3.2728917e-21)
(2.6441961 0.027741052 4.0615031e-21)
(2.6369433 0.020276773 7.5754608e-21)
(2.6323092 0.01387813 3.8766406e-21)
(2.6293533 0.0087797664 -1.2139676e-21)
(2.6273647 0.0051296174 3.1720158e-21)
(2.6259664 0.0025545671 4.3625594e-21)
(2.6248411 0.001210038 4.1793045e-21)
(2.6239334 0.00023634552 -2.9292592e-20)
(2.6233613 0.00026041493 1.0951303e-20)
(2.6063522 -0.085188352 -4.3372946e-22)
(2.661532 -0.11760172 -4.8933239e-21)
(2.7044947 -0.10328331 -4.277566e-21)
(2.7386982 -0.078577941 3.4246435e-21)
(2.7582326 -0.04110201 9.0185291e-22)
(2.756251 0.00017838392 -6.2639343e-21)
(2.7356529 0.032336417 4.9322124e-21)
(2.7069619 0.048574102 1.857118e-21)
(2.6800694 0.050618671 -2.4020954e-21)
(2.6598035 0.044241634 -6.4347271e-21)
(2.6463806 0.034845393 -1.1104979e-21)
(2.6380317 0.025539415 1.878653e-21)
(2.6329554 0.017556021 -1.2219189e-20)
(2.6298615 0.011244581 -3.3251994e-21)
(2.627962 0.0065283736 7.2803673e-21)
(2.626667 0.0033924645 -8.6536419e-21)
(2.6256814 0.0013666507 -2.5549991e-22)
(2.6247571 0.00051984541 -5.3713066e-21)
(2.6239456 -6.0011404e-05 -4.0584788e-21)
(2.623354 0.00020578069 1.0831235e-20)
(2.5874324 -0.093521423 -3.0500689e-21)
(2.6548141 -0.13437156 4.451977e-21)
(2.705655 -0.12089755 1.324774e-21)
(2.7477164 -0.096232379 -3.4184698e-21)
(2.7758565 -0.054863945 -7.8797138e-22)
(2.778708 -0.004899028 1.6030602e-21)
(2.7567767 0.036694472 1.4942035e-21)
(2.722518 0.059028293 -6.7697516e-21)
(2.6892559 0.062842803 -1.2941596e-20)
(2.6641909 0.055207763 -6.4976969e-21)
(2.6480569 0.043419068 5.6684232e-22)
(2.6384992 0.03178711 3.5635398e-21)
(2.6330048 0.02191526 -7.440158e-21)
(2.6298851 0.014099849 -5.5093243e-21)
(2.6281182 0.0082648702 -8.6583331e-21)
(2.6271044 0.0041658672 5.3294539e-21)
(2.6263631 0.0016890885 9.6285641e-21)
(2.6256714 0.00028936285 -4.4455009e-21)
(2.6248435 -4.4755375e-05 -5.5146979e-21)
(2.6240602 -0.00025797208 2.780323e-20)
(2.623389 0.00018127346 6.3379233e-22)
(2.5692573 -0.10236188 -2.3793874e-21)
(2.6455333 -0.15275208 -6.7264946e-21)
(2.7055569 -0.13989465 -7.5842506e-21)
(2.7558885 -0.11620365 5.3911177e-21)
(2.7944305 -0.071710788 2.6955815e-21)
(2.8041666 -0.012114172 -7.8604687e-21)
(2.781531 0.041108545 1.167993e-20)
(2.7408067 0.071395708 1.1771242e-20)
(2.699598 0.077753851 -2.1187228e-21)
(2.6684262 0.068589624 3.3616492e-21)
(2.6489518 0.053711075 8.4523667e-21)
(2.6380653 0.039124427 4.0566085e-21)
(2.6322614 0.026956304 -1.345204e-20)
(2.6292298 0.017426735 2.0382917e-21)
(2.6277299 0.010247727 5.9069007e-21)
(2.6270522 0.0051545493 -1.1987247e-21)
(2.6267488 0.0018392956 -6.8094529e-21)
(2.626414 0.00012057362 1.318264e-20)
(2.6258978 -0.00061449868 1.566042e-20)
(2.625065 -0.00044613424 -3.3626211e-21)
(2.6242281 -0.00036279965 -7.2316141e-22)
(2.6234384 0.0001821543 -1.9454901e-20)
(2.57018 -0.11005041 4.3941619e-21)
(2.6293671 -0.17326743 9.9774402e-22)
(2.7041598 -0.16003309 -1.012071e-20)
(2.7629883 -0.13837772 1.1714939e-21)
(2.8136632 -0.09198963 -4.2845445e-21)
(2.8328352 -0.021991308 3.1449315e-21)
(2.8104342 0.045420876 -2.178661e-21)
(2.7623024 0.085943264 -2.54594e-21)
(2.71127 0.095880648 5.2830727e-21)
(2.6723293 0.084889802 6.2352672e-21)
(2.6487115 0.065995522 1.1682058e-21)
(2.6363941 0.047631615 -2.2486743e-21)
(2.6304669 0.032661167 4.5923069e-21)
(2.6277454 0.021166465 -2.3152622e-21)
(2.6266409 0.012534149 0)
(2.6264197 0.0062685989 -5.6884036e-21)
(2.6266105 0.0020889187 -1.1141589e-21)
(2.6268522 -0.0003290151 -6.2730362e-21)
(2.6267751 -0.0012301303 -9.193601e-21)
(2.6263137 -0.0012959043 -9.9532632e-21)
(2.6253808 -0.00065413589 6.6982244e-21)
(2.6244146 -0.00036174737 -1.2080495e-20)
(2.623468 0.00021633008 -1.2198043e-20)
(2.5936241 -0.11314267 -1.809905e-20)
(2.6156066 -0.19395973 0)
(2.7019249 -0.18198477 6.3145394e-21)
(2.7691415 -0.16279102 7.0230346e-21)
(2.8334384 -0.11604941 1.4486711e-21)
(2.865018 -0.035208098 -6.3543088e-21)
(2.8442262 0.049396087 4.8457547e-21)
(2.7875647 0.10295525 4.0642063e-21)
(2.724443 0.1178244 -4.4056449e-21)
(2.6756726 0.10469118 4.2908554e-21)
(2.6468945 0.080591251 0)
(2.6330623 0.057355827 -1.3703156e-21)
(2.6273267 0.038949391 -1.5946367e-21)
(2.6252503 0.025217024 1.7226625e-21)
(2.6247653 0.01504416 6.4155231e-21)
(2.6250868 0.0075679545 6.6484603e-21)
(2.6258625 0.0023606851 3.6759822e-22)
(2.626732 -0.00079419337 3.0324136e-22)
(2.6273614 -0.0022401978 7.4074899e-21)
(2.6274003 -0.0023023347 5.6880925e-22)
(2.6268721 -0.001724612 3.5971742e-21)
(2.6257423 -0.00069956648 -4.8753563e-21)
(2.6245903 -0.00023094115 -1.4955804e-20)
(2.623451 0.00028490518 6.9484622e-21)
(2.6358264 -0.11102672 7.8757947e-21)
(2.6119262 -0.21268003 -1.0267796e-20)
(2.6992538 -0.20566301 8.1380919e-21)
(2.7749613 -0.18942473 7.6799381e-22)
(2.8533322 -0.14424262 1.0530398e-20)
(2.9007034 -0.052552697 -9.8854635e-21)
(2.8838102 0.052532321 4.1509198e-22)
(2.8177086 0.12263103 -3.6920577e-21)
(2.7394113 0.14425077 -3.91606e-21)
(2.6781534 0.12867418 -2.6813842e-21)
(2.642954 0.097847837 0)
(2.6275537 0.068322619 -6.0645463e-21)
(2.622486 0.045659145 -1.1189804e-20)
(2.621562 0.029392834 -5.3962831e-21)
(2.6220218 0.01764645 -5.8402577e-21)
(2.6230284 0.0089899211 1.1198617e-22)
(2.6244051 0.0027383736 1.0362496e-20)
(2.6259725 -0.0013347206 7.2777344e-21)
(2.6273589 -0.0033893244 2.0605819e-20)
(2.6282202 -0.0038199789 -4.2798045e-21)
(2.6282363 -0.0030537732 9.0211663e-21)
(2.6275223 -0.001884514 7.4377249e-21)
(2.6261087 -0.00056804078 8.7365877e-21)
(2.6247178 2.8633177e-05 -1.5228876e-20)
(2.6233646 0.00038502445 2.8919374e-23)
(2.6961507 -0.10389417 2.1455002e-20)
(2.6234061 -0.22681095 2.9366247e-21)
(2.6966713 -0.22927414 -6.0901463e-21)
(2.7783842 -0.21681705 -2.0084116e-20)
(2.8718438 -0.17517536 3.2055048e-20)
(2.9371651 -0.073698723 1.2159471e-20)
(2.9276366 0.054643058 -6.2741413e-21)
(2.853514 0.14494824 1.8026493e-20)
(2.7572203 0.17579669 -1.0626354e-20)
(2.6795145 0.15759986 -1.0509e-20)
(2.6362157 0.11815828 -2.2008675e-21)
(2.6192464 0.080510135 0)
(2.6155292 0.052557087 -4.8574439e-21)
(2.6164798 0.03339995 -4.5355703e-21)
(2.6183685 0.020123788 -4.4965375e-22)
(2.6202568 0.010428609 3.4779181e-23)
(2.6222542 0.0032057258 -5.3151235e-21)
(2.6244679 -0.0018327259 -5.1600519e-21)
(2.626682 -0.0047157096 -2.6207926e-22)
(2.628437 -0.0056142335 -9.1351576e-22)
(2.629374 -0.005016112 8.9877795e-22)
(2.6292278 -0.0034615408 -1.1861196e-20)
(2.6282144 -0.0017717311 -1.2182598e-20)
(2.6264487 -0.00021538197 1.3224368e-20)
(2.6247686 0.00039433477 1.2218773e-20)
(2.623186 0.00053913822 6.703037e-24)
(2.7643435 -0.091683008 -3.6015601e-22)
(2.6408768 -0.23449917 1.2272569e-20)
(2.6955364 -0.25032638 1.7521158e-20)
(2.7776427 -0.24352198 -7.8996187e-21)
(2.8812037 -0.20591782 2.4793391e-21)
(2.9657002 -0.096071978 6.9857252e-20)
(2.9685419 0.05761266 -6.1923643e-21)
(2.8895509 0.17077316 2.1531141e-21)
(2.777827 0.21316622 2.5483215e-22)
(2.6800694 0.1923255 -1.4126032e-20)
(2.6259167 0.14193325 -9.8111025e-21)
(2.6074075 0.093853145 2.6580367e-21)
(2.6059787 0.059311137 5.3748935e-21)
(2.6097879 0.036850872 7.8590895e-21)
(2.6137909 0.022143989 5.5242476e-21)
(2.616862 0.011707127 1.6876983e-21)
(2.6194858 0.0037248129 2.2498168e-23)
(2.6222453 -0.0022425913 8.6771685e-22)
(2.6251958 -0.0060743515 -8.6741206e-21)
(2.6279407 -0.0077059439 1.0098143e-21)
(2.629913 -0.0074074966 -9.8972355e-21)
(2.6307663 -0.0057948475 8.0564039e-21)
(2.6303212 -0.0035158769 -8.9436538e-21)
(2.6289102 -0.001393863 1.1708444e-20)
(2.6267358 0.00028871531 9.1502943e-21)
(2.6247311 0.00084596204 2.6514132e-20)
(2.6228879 0.00072624905 -1.4108132e-23)
(2.8356839 -0.076116508 2.9163871e-20)
(2.6655468 -0.23500157 0)
(2.6971952 -0.2673682 -2.3816547e-21)
(2.773689 -0.26830096 -4.7745065e-21)
(2.881262 -0.23457591 -2.8847337e-20)
(2.9749797 -0.11870617 -8.3616905e-21)
(2.9952749 0.063590393 -2.2677833e-21)
(2.9153627 0.20282442 -1.5397858e-20)
(2.791947 0.25765842 5.3370832e-22)
(2.6789512 0.23407894 -1.1344747e-20)
(2.6114708 0.16966618 3.167876e-21)
(2.5911911 0.10821197 4.3999939e-21)
(2.5933045 0.065497371 2.1738984e-22)
(2.6012588 0.039244125 8.6736739e-22)
(2.6083045 0.023280937 1.1362327e-21)
(2.613003 0.012545644 6.7366159e-22)
(2.6162823 0.004216111 -1.4416713e-21)
(2.6194014 -0.0025116813 -2.3265989e-22)
(2.622907 -0.0073549222 6.7684245e-21)
(2.6265532 -0.0099345516 2.4438274e-21)
(2.6297081 -0.010241684 -8.5272052e-21)
(2.6317326 -0.0087240217 -5.9177548e-21)
(2.6323387 -0.0061384898 -6.6157211e-21)
(2.631466 -0.0032205626 6.9987486e-21)
(2.6295725 -0.00076734751 -8.6785015e-21)
(2.6269447 0.00094249963 -1.247695e-21)
(2.6245953 0.0013679359 1.417777e-20)
(2.6224734 0.00089085806 -2.1449884e-20)
(2.9055753 -0.057573112 9.9993725e-21)
(2.6966259 -0.22883879 3.1315097e-20)
(2.7014983 -0.27934853 -2.6496395e-20)
(2.7658089 -0.28991118 2.9151897e-20)
(2.8763215 -0.26080438 2.0152634e-20)
(2.9729223 -0.1393396 -2.2864098e-20)
(3.00182 0.070479315 5.0350553e-20)
(2.9318317 0.24348357 -1.6898848e-20)
(2.7845527 0.31061339 2.6971251e-21)
(2.6668529 0.28384558 5.3906938e-21)
(2.5917645 0.20218665 1.4094911e-20)
(2.5697037 0.12340051 -9.6217996e-21)
(2.576928 0.070584524 1.0319887e-20)
(2.5906626 0.03997488 2.7176798e-21)
(2.601958 0.022995663 -1.9296486e-22)
(2.6089115 0.012586297 -6.1777199e-22)
(2.6129271 0.004525503 -3.2889092e-21)
(2.6161546 -0.0025910172 4.2614349e-22)
(2.6198872 -0.0084136253 -3.4668467e-22)
(2.624233 -0.012138101 2.5407989e-22)
(2.6285298 -0.01335932 2.645766e-21)
(2.6319444 -0.012267119 -8.1153335e-21)
(2.6338372 -0.0095329195 -1.1880056e-20)
(2.6340323 -0.0060435032 -3.5338132e-21)
(2.6326138 -0.0025911742 6.3941749e-22)
(2.6301667 8.5237826e-05 -2.1897386e-20)
(2.6270527 0.0017295308 -2.8162381e-20)
(2.6243454 0.0019456975 -1.0696729e-20)
(2.6219542 0.0010643377 1.5012746e-21)
(2.9759417 -0.03765515 -2.4462283e-20)
(2.7357479 -0.21671219 -9.509578e-21)
(2.70817 -0.28658034 -1.7152623e-21)
(2.7547605 -0.30706329 9.4452722e-21)
(2.8590829 -0.28359381 -1.0164565e-20)
(2.9603985 -0.15520148 -2.9517837e-21)
(2.9946533 0.079358652 1.8748316e-19)
(2.9355407 0.29179852 -3.7378535e-20)
(2.7585978 0.37397647 4.4708847e-21)
(2.6297496 0.34028478 2.3864637e-20)
(2.5612105 0.23966018 3.6977731e-21)
(2.5420274 0.13930916 2.6155917e-21)
(2.5562467 0.073940337 -4.7520601e-22)
(2.5777611 0.038353942 -7.3240173e-21)
(2.5948306 0.020641617 -1.7529963e-21)
(2.6048919 0.011366742 -1.9880633e-22)
(2.6098102 0.0044515063 1.1079885e-21)
(2.6128374 -0.0024675237 -2.9037425e-22)
(2.616329 -0.0090724862 1.2974138e-21)
(2.6209878 -0.014100902 1.1621517e-22)
(2.6262683 -0.016569235 7.17863e-21)
(2.631118 -0.016284731 -6.9527572e-21)
(2.6346011 -0.013733232 1.7638111e-20)
(2.6361628 -0.0098162911 -9.2149672e-21)
(2.6357879 -0.0055185138 4.6493297e-21)
(2.6337167 -0.0016496122 2.8748888e-20)
(2.6306646 0.001137441 7.3026237e-23)
(2.6270425 0.0026272351 8.2293798e-22)
(2.6239716 0.002569608 -1.0833941e-20)
(2.62132 0.001250629 2.1576466e-20)
(3.0553752 -0.013376876 1.2851768e-20)
(2.7715153 -0.20059333 -1.0655776e-19)
(2.7168194 -0.28778885 -5.1054645e-20)
(2.7404089 -0.31906339 -5.1006394e-20)
(2.8339894 -0.30212863 7.2830439e-21)
(2.9331992 -0.16449294 -4.5366728e-20)
(2.959435 0.094392666 -8.794897e-20)
(2.8972768 0.34266233 -4.1894227e-20)
(2.7274752 0.44761819 3.8371327e-20)
(2.5730927 0.40198891 2.4105923e-21)
(2.5103712 0.27910225 1.2593189e-21)
(2.5063162 0.1553907 5.5186312e-21)
(2.5307027 0.074865336 -8.4332015e-21)
(2.5623709 0.033620901 -3.3224966e-21)
(2.5870048 0.015527605 1.37097e-21)
(2.6013279 0.0083350851 -1.0108374e-21)
(2.607428 0.0037146598 1.2622695e-21)
(2.6099075 -0.0021332769 8.0698111e-22)
(2.6125349 -0.0091488669 2.7423124e-21)
(2.6169324 -0.015539504 1.3664157e-21)
(2.6228438 -0.019614592 -6.7331004e-21)
(2.6290681 -0.020582706 -5.2920636e-21)
(2.6342962 -0.018638155 -4.2653679e-21)
(2.637617 -0.014599343 1.4258658e-21)
(2.6386401 -0.0095685773 7.9985268e-21)
(2.6375473 -0.0045815695 8.2278142e-21)
(2.6347342 -0.0004239475 -7.4552391e-21)
(2.6310384 0.0023620803 9.9813459e-21)
(2.6269015 0.0036153049 1.6987817e-20)
(2.6234722 0.003232523 -2.401891e-23)
(2.6205744 0.0014450506 0)
(3.1403201 0.015737893 -2.9953341e-21)
(2.8103097 -0.17771771 8.2169294e-21)
(2.7258599 -0.28386162 -2.6935571e-21)
(2.7234673 -0.32515302 -5.4326229e-21)
(2.8012701 -0.31466319 -3.7806622e-20)
(2.8897586 -0.16846417 3.858654e-21)
(2.9083433 0.11531249 -2.0304342e-19)
(2.8334559 0.39246302 1.3268529e-20)
(2.6885074 0.5220379 -4.4791777e-21)
(2.5195888 0.46904499 8.2295457e-21)
(2.4407243 0.31692639 -2.4726607e-21)
(2.4586568 0.16910045 -5.7867143e-21)
(2.4999731 0.072520018 3.26116e-22)
(2.5443089 0.024978316 9.8889804e-21)
(2.5786457 0.0068848441 -1.7324101e-21)
(2.5985823 0.0029092153 9.028277e-24)
(2.6063392 0.0019870057 -3.2222002e-22)
(2.6079474 -0.0016171244 1.5266154e-21)
(2.6089307 -0.0084196534 -3.7306185e-21)
(2.612274 -0.016131827 2.9487784e-21)
(2.6182598 -0.022145893 7.4979064e-22)
(2.6256174 -0.024897769 -3.2571947e-21)
(2.6326647 -0.024075987 -5.2667081e-21)
(2.6380186 -0.020344829 4.8094059e-21)
(2.6409171 -0.014835523 -2.3880134e-20)
(2.6411967 -0.0087960057 3.467699e-20)
(2.639253 -0.0032575642 4.3821222e-21)
(2.6356356 0.0010540319 -2.9379003e-20)
(2.6312691 0.0037335201 -1.2043655e-20)
(2.6266229 0.0046750946 6.3390712e-21)
(2.6228484 0.0039244432 -2.143372e-23)
(2.6197217 0.001644707 0)
(3.2270245 0.047639988 -1.5042275e-21)
(2.8606433 -0.14602798 7.4928575e-20)
(2.7365873 -0.2738238 1.5644734e-19)
(2.7094547 -0.3265551 2.4005861e-20)
(2.7619261 -0.32243969 -3.3272863e-20)
(2.8341414 -0.16664907 0)
(2.8441892 0.13878404 0)
(2.767907 0.44097839 2.6480822e-21)
(2.6389272 0.58811168 -7.7092052e-20)
(2.4766288 0.53802757 1.3815811e-20)
(2.3696301 0.3543948 -1.4115351e-21)
(2.3966572 0.17669007 -1.9192341e-23)
(2.4637048 0.065667034 1.6325099e-21)
(2.5235465 0.011606428 -4.4990578e-21)
(2.5698421 -0.0060388059 1.5377031e-21)
(2.5971509 -0.0056626448 2.9361091e-21)
(2.6073265 -0.0011219561 -7.9759118e-22)
(2.6076449 -0.00094942686 5.5003042e-21)
(2.606061 -0.0066558562 -2.0791126e-21)
(2.6073232 -0.015480998 -1.7591599e-22)
(2.6125879 -0.023753668 -2.8801275e-21)
(2.6206457 -0.028859121 -1.9403129e-21)
(2.6294348 -0.029809809 1.2075658e-21)
(2.6370485 -0.026925229 8.4169708e-21)
(2.6422121 -0.021336093 -6.8337061e-22)
(2.6444143 -0.01442485 8.881345e-21)
(2.6437593 -0.0075156658 3.2475634e-21)
(2.6408524 -0.0015780163 1.0999081e-20)
(2.6363898 0.0027515129 5.1434741e-21)
(2.6313449 0.0052246657 2.0741134e-20)
(2.6262039 0.0057887266 -6.8791683e-21)
(2.6221037 0.0046352465 0)
(2.6187675 0.0018467888 -2.3180181e-20)
(3.3125279 0.08200151 -2.5966592e-21)
(2.9173505 -0.10709079 -2.1579735e-20)
(2.7497346 -0.25606739 -6.263188e-23)
(2.692209 -0.32268293 1.83452e-20)
(2.7166683 -0.32298836 1.5631386e-21)
(2.7698581 -0.16102733 0)
(2.7690178 0.16331023 -7.1089153e-22)
(2.6947388 0.48660286 3.7411518e-20)
(2.5804141 0.6464122 4.2120711e-20)
(2.4350801 0.60358348 -6.108525e-21)
(2.3105585 0.39462612 9.6115244e-21)
(2.3257872 0.17771698 8.3750338e-23)
(2.4209941 0.052141912 4.5410316e-23)
(2.5003644 -0.0070050095 -5.9875678e-22)
(2.5607391 -0.023978075 -2.6552545e-21)
(2.5974466 -0.01808242 -6.2154837e-21)
(2.6109966 -0.006133982 3.5709701e-21)
(2.6098452 -0.00021371443 -7.0080348e-21)
(2.6045887 -0.0035643454 2.8919234e-21)
(2.6024809 -0.013147267 -1.7926216e-21)
(2.6059715 -0.023935985 -1.6835487e-21)
(2.6140748 -0.03202799 4.7062216e-21)
(2.6243667 -0.035489289 -1.3467509e-21)
(2.6343521 -0.034157517 -1.4130489e-21)
(2.6421608 -0.02900331 -1.0298017e-21)
(2.6467783 -0.021556769 -4.7799186e-21)
(2.6480135 -0.013365116 1.4289612e-20)
(2.6462552 -0.0057539684 -1.9678773e-20)
(2.6423032 0.00041908915 -1.3357688e-20)
(2.6369691 0.0046356712 -2.0020113e-20)
(2.6312567 0.0068096197 2.5905942e-20)
(2.6256453 0.0069397042 -1.4069119e-20)
(2.6212437 0.0053558747 8.2189447e-21)
(2.6177193 0.0020473473 -6.7417161e-21)
(3.3910906 0.11764106 2.9674158e-20)
(2.9790755 -0.06059466 -2.8049605e-20)
(2.7650085 -0.23036955 -1.3839239e-19)
(2.6730032 -0.31265575 1.1623836e-19)
(2.6688982 -0.3185959 5.3016953e-20)
(2.6977563 -0.14850668 4.7066283e-23)
(2.6868339 0.18842163 3.6232174e-20)
(2.6157877 0.52797497 -4.685902e-20)
(2.5167799 0.69754969 2.9287504e-20)
(2.3909911 0.66260597 -1.7802801e-20)
(2.263332 0.43693443 -3.4806012e-20)
(2.2575027 0.17573672 -2.2681972e-22)
(2.371351 0.030287918 0)
(2.4752275 -0.031645074 -5.2120637e-22)
(2.5514579 -0.047517547 -5.9053511e-21)
(2.5998798 -0.035031162 -1.0521551e-20)
(2.6182034 -0.013532607 -6.1760241e-21)
(2.6153818 0.00048958352 -5.1902741e-21)
(2.6052569 0.0010969326 9.5434678e-21)
(2.5982391 -0.0085974697 -6.4473192e-21)
(2.5986126 -0.022125261 3.0933575e-22)
(2.6058683 -0.033868345 2.5782444e-22)
(2.6172395 -0.040696839 2.8089363e-21)
(2.629586 -0.041745459 -8.8464054e-21)
(2.6403444 -0.037728958 6.0983613e-21)
(2.6478974 -0.030195646 -5.5487109e-21)
(2.6515994 -0.020970515 6.4816579e-21)
(2.651617 -0.011669546 -4.9526842e-21)
(2.6486131 -0.0035457567 7.6913156e-21)
(2.643568 0.0026931304 -4.810117e-21)
(2.6373562 0.0066732108 1.5764455e-21)
(2.6310002 0.0084639527 -2.1278742e-20)
(2.6249504 0.0081130237 1.6639252e-20)
(2.6202754 0.0060784073 7.5870862e-21)
(2.6165856 0.0022436695 4.1588339e-20)
(3.4572908 0.1530743 -3.5163315e-21)
(3.0448427 -0.0069426686 -7.3716372e-20)
(2.7826926 -0.19642401 0)
(2.6528018 -0.29567036 3.048994e-21)
(2.6178931 -0.30977102 0)
(2.6234127 -0.13931059 0)
(2.6020712 0.21523649 -5.8361965e-22)
(2.5358107 0.56589559 -2.9649496e-20)
(2.4521365 0.74099071 2.1186143e-21)
(2.3467183 0.71393154 6.6248494e-20)
(2.224807 0.47813246 -2.7127641e-20)
(2.2002502 0.17404494 -1.6234881e-20)
(2.3176404 0.00074304768 -1.431966e-20)
(2.4481788 -0.0630375 -5.4891756e-21)
(2.5421178 -0.077009835 -5.8292954e-21)
(2.6047681 -0.057243384 6.6593555e-21)
(2.6296862 -0.023867621 3.7933482e-21)
(2.625286 0.0010338762 1.2383961e-20)
(2.6089244 0.0076454953 -1.0644696e-20)
(2.5951365 -0.0012914356 4.911429e-21)
(2.590765 -0.017665389 8.8394952e-23)
(2.5960217 -0.033777472 -3.6389934e-21)
(2.6078529 -0.044921571 6.4501509e-21)
(2.6224068 -0.049330934 -6.9063796e-22)
(2.6363373 -0.047295455 -5.5620644e-21)
(2.6473102 -0.040322295 3.2293798e-21)
(2.6541169 -0.030411739 7.6566635e-21)
(2.656545 -0.019563011 9.3659626e-21)
(2.6551278 -0.009365732 -1.2691992e-21)
(2.6507718 -0.00093479503 -8.0130472e-21)
(2.6446089 0.0052021403 4.4125912e-21)
(2.6375387 0.0088297934 2.1139223e-20)
(2.6305748 0.010164838 -1.4959416e-20)
(2.6241249 0.0092952519 -2.7897474e-21)
(2.6192065 0.0067959832 1.0038428e-20)
(2.615375 0.0024364403 6.7227469e-21)
(3.5061469 0.18642033 -4.0054002e-20)
(3.1131861 0.053070949 2.2967991e-21)
(2.802359 -0.15369597 0)
(2.6321136 -0.2704878 -2.0500969e-19)
(2.5646153 -0.29322428 -1.5672216e-19)
(2.5449199 -0.13286993 6.8261288e-20)
(2.5188884 0.23294118 -2.8689616e-21)
(2.4586907 0.59836725 5.9603931e-20)
(2.3895616 0.77723242 -5.5912497e-21)
(2.3044344 0.75686453 2.2176216e-20)
(2.1935468 0.51603857 4.4723188e-20)
(2.1564798 0.17374208 5.6104784e-20)
(2.2654639 -0.033552931 3.3596462e-21)
(2.4187889 -0.10147277 2.6036254e-21)
(2.5330148 -0.11260908 3.8573366e-21)
(2.6122295 -0.085346535 -8.9114186e-21)
(2.6462215 -0.03778705 -2.0485326e-21)
(2.6405436 0.00133344 -1.2913933e-20)
(2.6165261 0.016447909 -5.1067562e-21)
(2.5938114 0.0094088326 5.4465652e-21)
(2.582685 -0.0098506931 9.3650617e-22)
(2.5845455 -0.031082058 -5.1133947e-22)
(2.5960206 -0.047597014 4.127651e-21)
(2.6124782 -0.056469439 -4.2727396e-21)
(2.6296989 -0.057430306 -3.8693831e-21)
(2.644533 -0.051814261 6.6762773e-21)
(2.6550851 -0.041766315 1.857948e-21)
(2.660652 -0.0295921 -3.7409889e-21)
(2.6614808 -0.017343258 -3.8673917e-21)
(2.6584518 -0.0064934984 1.4813253e-20)
(2.6526851 0.0020288673 -1.3138852e-20)
(2.6454006 0.0079054719 -1.5047218e-20)
(2.6375095 0.011073742 1.8262409e-20)
(2.6299835 0.011891421 -3.68956e-23)
(2.6231762 0.010474608 -1.5546793e-20)
(2.618046 0.0075027348 -9.5094071e-21)
(2.6140966 0.0026251015 -2.7951657e-20)
(3.5339789 0.21588928 -1.2156286e-22)
(3.1809722 0.11802975 7.4018461e-20)
(2.823091 -0.10187003 2.6761295e-21)
(2.6117426 -0.23667377 -5.7509627e-20)
(2.5096104 -0.26933021 -4.9263224e-22)
(2.4628734 -0.11728117 -9.2153827e-20)
(2.431477 0.23721846 -1.2558249e-20)
(2.3835945 0.62066296 -3.2731478e-20)
(2.33099 0.80625167 2.630439e-20)
(2.2656411 0.79081275 -1.3902141e-19)
(2.1682181 0.5487102 -1.107915e-22)
(2.1255996 0.17500781 9.6548771e-20)
(2.2196383 -0.06933816 3.7841057e-20)
(2.3878501 -0.14629184 3.6005752e-20)
(2.5240404 -0.1541519 9.4733029e-21)
(2.6222618 -0.1198648 -1.0188673e-20)
(2.6683898 -0.055977254 -2.311463e-20)
(2.6621766 0.001116981 -1.2994862e-20)
(2.6290302 0.027842531 4.6718974e-21)
(2.5948954 0.024225431 -7.5812792e-22)
(2.5746687 0.0021032967 6.6012849e-21)
(2.5714361 -0.025067277 1.8603642e-22)
(2.5815579 -0.048108123 -9.8975838e-22)
(2.5994718 -0.062671621 5.4316208e-22)
(2.6199876 -0.067779783 -4.3789515e-22)
(2.6390545 -0.064501393 3.7281881e-21)
(2.6539872 -0.055016973 -2.0615066e-21)
(2.6634592 -0.041932843 1.1591105e-21)
(2.6673212 -0.027711313 -2.1171617e-21)
(2.6662762 -0.014342619 -1.1775114e-20)
(2.6615037 -0.0031048168 -1.3447502e-21)
(2.6543079 0.0052923047 6.7035554e-21)
(2.6459281 0.010759806 8.9745427e-21)
(2.6372673 0.013375026 -1.135821e-20)
(2.6292322 0.013624937 1.5222318e-23)
(2.6221132 0.011640923 -1.1000861e-20)
(2.6168035 0.0081937773 2.3590166e-20)
(2.6127594 0.0028085146 -3.1620694e-20)
(3.5382221 0.24012295 2.8764425e-20)
(3.2433462 0.18592687 -2.9590826e-20)
(2.8449998 -0.041045092 -4.4528408e-20)
(2.5927675 -0.19396101 -1.2413334e-19)
(2.45428 -0.23819296 1.7663392e-19)
(2.3799576 -0.096054128 -1.9714194e-19)
(2.3380327 0.25043309 -2.2902224e-22)
(2.3083548 0.62656374 -1.4286246e-20)
(2.2767509 0.82770964 -5.8892621e-21)
(2.2314757 0.81752954 6.3013649e-20)
(2.1487878 0.57424077 7.3879383e-22)
(2.1043605 0.17682161 -1.9971526e-19)
(2.1804105 -0.1040838 -4.20383e-22)
(2.3577558 -0.19597002 -1.5636278e-21)