/*--------------------------------*- C++ -*----------------------------------*\
| =========                 |                                                 |
| \\      /  F ield         | OpenFOAM: The Open Source CFD Toolbox           |
|  \\    /   O peration     | Version:  v2012                                 |
|   \\  /    A nd           | Website:  www.openfoam.com                      |
|    \\/     M anipulation  |                                                 |
\*---------------------------------------------------------------------------*/
FoamFile
{
    version     2.0;
    format      ascii;
    class       surfaceVectorField;
    location    "71.6485249520715399";
    object      Uf;
}
// * * * * * * * * * * * * * * * * * * * * * * * * * * * * * * * * * * * * * //

dimensions      [0 1 -1 0 0 0 0];


internalField   nonuniform List<vector> 
18180
(
(2.6304988 -0.0018617838 -1.2747963e-21)
(2.6313955 -0.00057833647 -8.7940746e-21)
(2.6318225 -0.0037533288 1.9000323e-21)
(2.632519 -0.0025053999 -2.3480631e-21)
(2.6328991 -0.0013034949 -9.500884e-21)
(2.6324503 -0.0003703551 -5.0921078e-21)
(2.6337488 -0.0056672859 4.6650419e-21)
(2.6342784 -0.0038603158 -4.8653339e-23)
(2.6344463 -0.0026596938 -4.1086689e-21)
(2.633692 -0.0017406133 -5.8462745e-21)
(2.6334655 -0.00085506589 -1.5997498e-21)
(2.6331185 -0.00017112718 -4.5947932e-21)
(2.6361485 -0.0077451377 5.3909944e-21)
(2.6367624 -0.0058064488 9.9779213e-21)
(2.6367373 -0.0041188478 5.5774873e-21)
(2.6356271 -0.0026326651 7.4327252e-23)
(2.6351285 -0.0017469995 -1.509397e-21)
(2.6344369 -0.00098465067 4.8165456e-21)
(2.6340548 -0.00031894174 2.0722604e-21)
(2.6333593 7.2680755e-05 -4.0717078e-21)
(2.6388568 -0.010019106 9.2922946e-22)
(2.6396856 -0.0076617059 -6.6738832e-21)
(2.6396861 -0.0058050984 -2.5163521e-21)
(2.638428 -0.0041354657 3.9082106e-21)
(2.637619 -0.0027559221 -1.3463765e-21)
(2.6365271 -0.0013998644 -3.4636193e-21)
(2.6358216 -0.00066687878 2.5130243e-21)
(2.634717 -0.00016574768 1.0965391e-20)
(2.6340683 0.00022766876 5.2707396e-21)
(2.6331932 0.00032034139 6.982791e-21)
(2.6417137 -0.012573609 -6.8683468e-23)
(2.6429917 -0.010023719 -4.4854238e-21)
(2.6431299 -0.0078030265 -1.1804333e-20)
(2.6417949 -0.0055721992 -1.2522828e-20)
(2.64088 -0.0039670315 -6.5731955e-21)
(2.6395824 -0.0023748105 -2.4784625e-21)
(2.6385004 -0.0011122209 -4.5099199e-21)
(2.6369095 -3.9387154e-05 -3.2485486e-21)
(2.6358774 0.00044107705 4.6887244e-21)
(2.6345498 0.0006356508 -3.2513711e-21)
(2.633709 0.00075337912 -1.7610632e-21)
(2.6326624 0.00053277622 6.2687377e-21)
(2.6445485 -0.01545014 -1.9002963e-22)
(2.64646 -0.012650777 2.0336757e-21)
(2.646946 -0.010225027 -2.1383289e-21)
(2.6457247 -0.007577174 -3.4207561e-21)
(2.6447805 -0.005477138 -3.9618017e-21)
(2.6433329 -0.0032518066 1.5631489e-21)
(2.6420569 -0.0017149093 5.5816184e-21)
(2.6401351 -0.0003973333 -3.6940844e-21)
(2.6386507 0.00060920019 -2.482804e-21)
(2.6367671 0.0013153792 8.4786665e-21)
(2.6355022 0.0015005375 9.9747544e-22)
(2.6339861 0.0013643897 -1.7210089e-20)
(2.6329875 0.001200129 -9.8279063e-21)
(2.6318458 0.00069956239 2.8088341e-21)
(2.647197 -0.018705059 3.0084498e-21)
(2.6499813 -0.015821968 1.047162e-21)
(2.6509846 -0.013179539 3.1791636e-21)
(2.6500238 -0.00992315 3.2801381e-21)
(2.6492391 -0.0073967789 2.1380847e-21)
(2.6478147 -0.0046587724 6.647905e-21)
(2.6463987 -0.0025566254 1.2066718e-20)
(2.6441578 -0.00058612506 1.2011011e-20)
(2.6423658 0.00069353521 3.3026271e-21)
(2.6400558 0.001604368 -2.1877157e-21)
(2.6382678 0.002269993 8.2304497e-21)
(2.6361451 0.0025610925 1.0591941e-20)
(2.634705 0.0024282733 -6.5509802e-21)
(2.6330919 0.0019707082 -3.9391508e-21)
(2.6320013 0.0015485927 8.1586766e-21)
(2.6308281 0.00082571399 -4.7334382e-22)
(2.6494785 -0.022371578 6.1008776e-21)
(2.6533645 -0.019511537 8.734665e-21)
(2.6551093 -0.016786487 6.9632047e-21)
(2.6546324 -0.012937581 -2.3651495e-21)
(2.654155 -0.0098519343 -2.3619877e-21)
(2.6528814 -0.0063623187 -5.2584679e-22)
(2.6514899 -0.0037393473 3.7155492e-21)
(2.6490543 -0.0012082323 4.2748929e-21)
(2.6469682 0.00066327787 4.0970923e-21)
(2.6441802 0.0021687839 2.6986657e-21)
(2.6419908 0.0030632136 -2.526375e-21)
(2.6393686 0.0034675838 -6.4318544e-22)
(2.6373574 0.0037361962 1.457861e-21)
(2.6351256 0.0036005757 -5.598718e-21)
(2.6335908 0.0031603796 -3.1030059e-21)
(2.6319587 0.0024190457 7.2187981e-21)
(2.6308394 0.001788635 -9.9563509e-22)
(2.6296929 0.00091064811 -8.8162711e-21)
(2.6512056 -0.02647916 7.3648298e-21)
(2.6564491 -0.023848759 4.7778623e-21)
(2.6591583 -0.021161856 7.258571e-21)
(2.6593962 -0.016643853 4.1120047e-21)
(2.6594444 -0.012983085 -4.7898169e-21)
(2.6585289 -0.0087074261 -3.1707016e-21)
(2.6572867 -0.0053861628 -1.4393813e-21)
(2.6547276 -0.0020044516 -1.8264923e-21)
(2.652467 0.0004327531 -1.3840078e-21)
(2.6492798 0.00245375 -1.0906506e-21)
(2.6466407 0.0038891388 -2.5020333e-21)
(2.6434131 0.0047697448 -6.1407972e-21)
(2.6409293 0.0051815285 -4.4087264e-21)
(2.6381627 0.0050388379 -2.3823027e-21)
(2.636044 0.0048979752 -9.1463128e-21)
(2.6338185 0.0043675922 -2.8561464e-21)
(2.6322665 0.0036572549 6.9525068e-21)
(2.6306902 0.0026910909 2.3126182e-21)
(2.6295972 0.0019125921 -5.0635581e-21)
(2.6285206 0.00094662099 -2.3849175e-21)
(2.6522238 -0.031037542 5.5582127e-21)
(2.6590271 -0.028883036 1.0522817e-20)
(2.6629586 -0.026425286 8.1282959e-21)
(2.6642063 -0.021228745 3.0378626e-21)
(2.6650033 -0.016941861 -1.9501429e-23)
(2.6646636 -0.011730148 1.6709512e-21)
(2.663771 -0.0076452241 3.3129e-21)
(2.661238 -0.0033136685 9.5094943e-21)
(2.658873 -7.8899428e-05 9.3170522e-21)
(2.655272 0.0027607864 6.7319986e-22)
(2.6522579 0.0047205371 9.8476719e-22)
(2.6484517 0.0059781666 -3.8855981e-21)
(2.6453948 0.0068165839 -7.3631929e-21)
(2.6419531 0.0069843195 -1.0164732e-21)
(2.6393264 0.0068737659 9.6306046e-22)
(2.6365727 0.0062056763 4.2202892e-21)
(2.6344597 0.0056848547 1.0408881e-20)
(2.6323464 0.0048273028 -2.2956462e-21)
(2.630848 0.0039034747 -6.8496076e-21)
(2.6293853 0.002784821 8.321163e-21)
(2.6283601 0.0019193918 1.1077966e-20)
(2.6273844 0.00093168458 7.824084e-21)
(2.6523542 -0.036041607 1.5533353e-21)
(2.66098 -0.034675418 2.6675809e-21)
(2.6663535 -0.032689315 7.3490629e-21)
(2.6688972 -0.026820299 6.7708335e-21)
(2.6707217 -0.021887528 1.9127283e-21)
(2.6712426 -0.015655489 -8.1316158e-23)
(2.670912 -0.010686506 1.5256738e-21)
(2.6685647 -0.0051582274 4.6963937e-21)
(2.6662427 -0.00099713955 1.0605272e-20)
(2.6622901 0.0027952755 8.8908208e-21)
(2.658891 0.0055273594 6.7317202e-22)
(2.6544094 0.0074440427 6.0512165e-22)
(2.6508029 0.0086799721 -4.0271848e-21)
(2.6466714 0.0090212956 -4.4667482e-21)
(2.6434023 0.0091771882 1.6092645e-21)
(2.6399702 0.0086369525 -1.0050268e-21)
(2.6373541 0.0080233543 2.0583575e-21)
(2.6347569 0.0069066697 7.7463275e-21)
(2.6327504 0.0060704211 -4.3635896e-21)
(2.6308278 0.0049751783 -2.0055242e-20)
(2.6294387 0.0039064747 -5.8550266e-21)
(2.6281279 0.0027106191 1.260334e-20)
(2.6272005 0.0018192053 9.5367888e-21)
(2.6263445 0.00087288727 2.639593e-21)
(2.6513968 -0.041470548 5.4593085e-22)
(2.6620515 -0.041258387 3.2929435e-21)
(2.6691569 -0.040042164 4.3721393e-21)
(2.673367 -0.033548237 1.1979277e-21)
(2.676483 -0.027984271 5.5600804e-22)
(2.6781719 -0.020646782 7.4321466e-23)
(2.6786809 -0.014701671 -1.8476539e-21)
(2.6767516 -0.0077733338 -5.2326771e-21)
(2.674632 -0.0024703423 -2.3285256e-21)
(2.6703764 0.0025818627 -3.2972559e-21)
(2.6666549 0.0062493961 -5.1479141e-21)
(2.6614595 0.0089511066 -3.8547748e-21)
(2.6572119 0.010810883 -3.9916169e-21)
(2.6522313 0.01154858 6.3648509e-21)
(2.6483024 0.011909493 6.1122412e-21)
(2.644156 0.011311758 9.5848806e-22)
(2.6408925 0.010787302 -1.5339613e-21)
(2.6376753 0.0096283263 -1.6966624e-21)
(2.6352073 0.0085835729 3.6456867e-21)
(2.632874 0.0071321532 2.6455606e-21)
(2.6310497 0.0060664491 -1.2147322e-20)
(2.6293668 0.0048329829 -4.9392232e-21)
(2.6281238 0.0036911885 1.2607565e-20)
(2.6269842 0.0024900769 -5.7510279e-22)
(2.6261726 0.0016310158 -7.2865293e-21)
(2.6254442 0.00078039096 -9.4294361e-21)
(2.6491879 -0.047296482 -2.3188644e-21)
(2.6620758 -0.048661389 3.3537778e-22)
(2.6711634 -0.048568569 2.9349149e-21)
(2.6774093 -0.041525647 3.1654009e-21)
(2.682151 -0.035372826 1.4351363e-22)
(2.6853855 -0.026894523 8.3455077e-24)
(2.687033 -0.019903367 -4.6018523e-22)
(2.6858055 -0.011333472 -8.6262243e-22)
(2.6841194 -0.0046820637 -4.0642131e-21)
(2.6796667 0.0019278608 -2.6527369e-21)
(2.6756767 0.0068081464 -3.5772031e-21)
(2.6696803 0.010599124 -5.9245095e-21)
(2.6647555 0.013239572 -4.7056536e-21)
(2.6588041 0.014440609 -3.6108907e-21)
(2.6540616 0.015174878 6.2302708e-21)
(2.649017 0.014663337 1.3703107e-21)
(2.6450671 0.014122481 -3.5992118e-21)
(2.6411953 0.012690299 1.8324633e-21)
(2.6381345 0.011569262 1.7300774e-21)
(2.635284 0.0099392444 6.9649562e-21)
(2.6330677 0.0085711012 6.0677593e-21)
(2.6310635 0.00691546 -1.1052943e-21)
(2.6294685 0.0057156529 5.9164066e-21)
(2.6280455 0.0044428472 1.6025022e-20)
(2.626967 0.0032969955 3.5581323e-21)
(2.6260018 0.0021556956 -1.224031e-20)
(2.6253124 0.0013791654 -1.4354104e-20)
(2.6247091 0.00066502744 1.2975976e-21)
(2.6455588 -0.053487813 -3.0452805e-21)
(2.6608799 -0.056893543 -2.0992747e-21)
(2.6722069 -0.058329935 4.1893763e-22)
(2.6808747 -0.050860426 -2.2257169e-21)
(2.6875653 -0.044195336 -2.0832475e-21)
(2.6927548 -0.034579836 -2.6724773e-21)
(2.6959042 -0.026506485 -2.8481171e-21)
(2.6957497 -0.016073914 4.2339896e-21)
(2.6947809 -0.0078519881 3.925216e-21)
(2.6902803 0.00070046222 8.0550731e-22)
(2.6861338 0.0070921915 2.2245637e-21)
(2.6792704 0.012293587 3.6527038e-21)
(2.6735879 0.015993192 1.5409455e-21)
(2.6664599 0.017884302 -8.673811e-22)
(2.6607843 0.019094747 2.3349779e-22)
(2.6546787 0.018644911 4.3906967e-22)
(2.6498633 0.018178579 -4.2690706e-21)
(2.6451678 0.016538653 -8.8970074e-21)
(2.6414764 0.015192296 -3.82243e-21)
(2.6380937 0.01312103 4.621191e-21)
(2.6353825 0.011544466 9.6390826e-21)
(2.6329873 0.0096181686 1.0523046e-20)
(2.6310855 0.0080511382 3.7809898e-21)
(2.6294352 0.0063211084 -4.7491233e-21)
(2.6280888 0.0050818969 4.6826098e-21)
(2.6269215 0.0038604137 1.1791943e-20)
(2.6260105 0.0027732985 -3.0828257e-21)
(2.6252083 0.0017461359 -1.3082696e-20)
(2.6246399 0.0010904648 1.8037209e-21)
(2.6241478 0.00053984471 1.3747704e-20)
(2.6403463 -0.06001682 3.3621915e-22)
(2.6583006 -0.06595238 -5.407557e-22)
(2.6721232 -0.069362197 3.917206e-22)
(2.6835971 -0.061624507 1.9560662e-21)
(2.692566 -0.054563117 -5.249601e-22)
(2.7001577 -0.043881052 -6.6609871e-23)
(2.7051973 -0.034735468 -5.9400094e-22)
(2.7065687 -0.022239066 -4.8041113e-21)
(2.7066895 -0.01223302 1.8896113e-21)
(2.7023704 -0.001312075 3.7921013e-21)
(2.6982271 0.0069548868 8.2511284e-22)
(2.6904295 0.01400703 9.0708426e-22)
(2.683931 0.019088849 2.2446586e-21)
(2.6753979 0.021912302 2.3677458e-21)
(2.6685903 0.023804889 9.3437843e-23)
(2.6611605 0.023515239 3.1551855e-21)
(2.6553178 0.023139292 3.396809e-21)
(2.6496465 0.021175049 1.7740247e-21)
(2.6451589 0.019618621 -2.5243929e-21)
(2.6411176 0.017113215 1.053039e-22)
(2.6378928 0.015146765 8.1870061e-21)
(2.6351202 0.012673665 2.232568e-21)
(2.632844 0.010809362 2.9543134e-21)
(2.6309331 0.0087611147 2.7704881e-21)
(2.6293698 0.0071197608 -5.3469878e-21)
(2.6280654 0.0054332117 -3.1214938e-21)
(2.6269639 0.0042414273 3.5077116e-21)
(2.62603 0.0031482819 -6.3981629e-22)
(2.625276 0.0021722739 -1.0099507e-20)
(2.6246142 0.0012981649 3.1124646e-21)
(2.6241564 0.00078985389 1.4477452e-20)
(2.6237553 0.00042349262 -9.7302134e-22)
(2.6334234 -0.066863886 2.7368147e-21)
(2.6541961 -0.075829771 3.4416612e-21)
(2.6707684 -0.08167708 2.6561598e-21)
(2.6854147 -0.073859914 -1.9672651e-21)
(2.6969828 -0.066551879 -5.1255953e-22)
(2.7074404 -0.054950749 2.4900038e-22)
(2.7147826 -0.044803057 6.9688027e-22)
(2.7182324 -0.030095383 4.3924076e-21)
(2.7199017 -0.018117501 4.6517526e-22)
(2.7160861 -0.0043439618 -2.6414441e-21)
(2.7121893 0.0062076091 -9.0755829e-22)
(2.703419 0.015644787 -3.6008926e-21)
(2.6960487 0.022531523 -3.5933836e-21)
(2.685823 0.026638625 -2.7044864e-21)
(2.6776625 0.029462916 -2.6621222e-21)
(2.6685928 0.029418406 3.5617397e-21)
(2.6614637 0.029215437 6.5246881e-21)
(2.6545723 0.026891078 6.2658052e-22)
(2.6491361 0.025049975 -9.5854332e-22)
(2.6443348 0.021929567 1.6723442e-21)
(2.6404723 0.019533114 4.2364662e-21)
(2.6372483 0.016489557 6.7527718e-21)
(2.6346073 0.014130501 1.074629e-21)
(2.6324778 0.011489888 -5.3651471e-21)
(2.6306648 0.0095055168 -5.6716529e-21)
(2.6292209 0.0074911728 -7.0323311e-21)
(2.6279887 0.005888931 -4.9446189e-21)
(2.6269984 0.0043455412 1.8769022e-21)
(2.6261208 0.0032750437 -2.0887767e-21)
(2.6253847 0.0023703549 -5.8177035e-21)
(2.6247659 0.001542862 6.7982381e-21)
(2.6242155 0.00084556571 1.7287287e-20)
(2.623842 0.00050263179 2.657057e-21)
(2.6235142 0.00034277417 -6.0629839e-21)
(2.6245992 -0.074013227 2.6941954e-21)
(2.6484781 -0.086500985 3.9380744e-21)
(2.6680397 -0.095261578 4.6238991e-21)
(2.6861771 -0.087578226 4.780192e-21)
(2.7006458 -0.080197634 4.2159506e-22)
(2.7144346 -0.067903024 -2.5521496e-21)
(2.7244883 -0.056897729 -1.8642154e-21)
(2.7306629 -0.039919306 -3.2287956e-21)
(2.7344402 -0.025834046 2.1459692e-22)
(2.7315871 -0.0086867781 2.6112521e-21)
(2.7282716 0.0046107497 -3.095822e-22)
(2.7185338 0.017097137 3.7530808e-21)
(2.7102669 0.026308882 1.266954e-21)
(2.6980124 0.032149545 8.9834821e-22)
(2.688222 0.03624881 1.8226989e-21)
(2.6770984 0.036593349 9.1604784e-22)
(2.6683704 0.036662777 6.89397e-21)
(2.6599617 0.033887559 1.8733821e-21)
(2.6533344 0.03171427 -3.8018953e-21)
(2.6476066 0.027847723 -7.9196454e-23)
(2.6430038 0.024881239 2.4332944e-21)
(2.6392933 0.021062723 4.1937982e-21)
(2.6362145 0.018140857 6.5830152e-21)
(2.6338395 0.014878387 4.6833723e-21)
(2.6318142 0.01235265 -1.3740585e-21)
(2.630296 0.0097478625 -4.0515551e-21)
(2.6289298 0.0077933972 -5.3181633e-21)
(2.6279052 0.0059419475 -3.1551684e-21)
(2.6269739 0.0044749484 3.3516024e-21)
(2.6262508 0.0031537976 3.9613355e-21)
(2.6255631 0.002262345 5.1465923e-22)
(2.6249797 0.0015881794 3.5728924e-22)
(2.6244675 0.00093307727 1.021731e-20)
(2.623996 0.00042780157 -6.7116364e-21)
(2.6236886 0.00026714322 -1.5141354e-20)
(2.6233905 0.00028741248 5.5684764e-21)
(2.6128794 -0.081490249 6.118188e-22)
(2.6409847 -0.097915524 -1.6380189e-21)
(2.6638803 -0.11007702 -5.275068e-22)
(2.6857731 -0.10274274 -1.4022092e-22)
(2.7033959 -0.095490168 -6.858494e-23)
(2.7209537 -0.082813731 3.9199986e-21)
(2.7341013 -0.071169616 1.1482652e-21)
(2.7437407 -0.051974461 -1.7325475e-22)
(2.7502799 -0.035731872 -1.4425625e-21)
(2.7489899 -0.014680617 -5.1270117e-21)
(2.7467396 0.0018809228 -2.9391293e-21)
(2.736098 0.018205141 2.812332e-21)
(2.726962 0.030383906 6.7204841e-21)
(2.712294 0.038542842 5.1857716e-21)
(2.7005539 0.04436683 4.9026702e-21)
(2.6868554 0.045297632 2.7939593e-21)
(2.6761181 0.045786443 1.9499886e-21)
(2.6657966 0.042461597 -2.0713978e-23)
(2.6576802 0.039885046 -4.9069596e-21)
(2.6508342 0.03505688 -2.17271e-21)
(2.6453251 0.031380275 1.388523e-21)
(2.6410596 0.0266209 2.9509106e-21)
(2.6375058 0.022969833 4.6312194e-21)
(2.6349077 0.018892459 -2.4939747e-21)
(2.6326432 0.015753448 -4.4421247e-21)
(2.6310561 0.012538175 2.1060086e-22)
(2.629616 0.010042177 -2.3051155e-21)
(2.6286383 0.0076342539 3.1077711e-21)
(2.6276734 0.0058337665 5.2953373e-21)
(2.6270036 0.0042457534 -2.8445935e-21)
(2.6263285 0.002990321 -2.3645766e-21)
(2.6258163 0.0019501545 2.013014e-21)
(2.6252754 0.0012786765 1.8873003e-21)
(2.6247938 0.00085886312 -6.7978422e-22)
(2.6243591 0.00039237729 -1.6929843e-20)
(2.6239352 8.5550709e-05 -1.6454103e-20)
(2.6236632 8.656041e-05 3.1943664e-21)
(2.6233518 0.00023261066 1.0889744e-20)
(2.5965749 -0.089508422 -1.7857967e-21)
(2.6306573 -0.11020261 2.0526454e-21)
(2.6580603 -0.12610454 -6.3879134e-23)
(2.6841263 -0.11927778 -1.729662e-21)
(2.7050943 -0.11235917 -1.3823961e-21)
(2.7267944 -0.099696774 -3.8356055e-21)
(2.7433586 -0.087716616 -1.1174126e-22)
(2.757291 -0.06651621 1.2909992e-21)
(2.7673403 -0.048177795 2.858208e-23)
(2.7683942 -0.022686094 1.2655954e-21)
(2.7678564 -0.0023450377 -2.1983893e-21)
(2.7564896 0.018755353 -2.3170917e-21)
(2.7465694 0.034683182 3.1554863e-21)
(2.7290542 0.04591643 -1.0212756e-21)
(2.7150012 0.054042005 -2.6011979e-21)
(2.6980802 0.055834138 -5.6720948e-21)
(2.684817 0.056950457 -7.8489088e-21)
(2.6720739 0.052953908 -4.4858763e-21)
(2.6620709 0.049886379 -6.4672703e-21)
(2.6538557 0.043823271 -2.8723896e-21)
(2.6472469 0.039241621 -2.4362526e-22)
(2.642371 0.033289362 1.2676208e-21)
(2.6382733 0.028735105 2.7494387e-21)
(2.635465 0.023695407 -2.8601915e-21)
(2.6329809 0.01978519 -9.7492575e-21)
(2.631383 0.01579747 -8.8079217e-21)
(2.6298737 0.012698784 -4.4540232e-21)
(2.6289656 0.0097284643 -6.0386462e-21)
(2.6280427 0.0074177354 -9.5729189e-22)
(2.6275182 0.0053263037 6.2860756e-21)
(2.6268931 0.0037765358 -1.4267001e-21)
(2.6265059 0.0025257678 6.4803052e-22)
(2.6260337 0.0015383309 4.8528915e-21)
(2.6256715 0.00081851587 -2.3872873e-21)
(2.6252296 0.00039099058 -4.8928277e-21)
(2.6247979 0.00023257027 -5.4448535e-21)
(2.6244096 -4.8011024e-05 -4.811069e-21)
(2.6240004 -0.00016074313 1.2152168e-20)
(2.623719 -3.6541245e-05 1.9602239e-20)
(2.6233676 0.00019330602 5.642575e-21)
(2.57804 -0.098342589 -2.7034761e-21)
(2.6161832 -0.12364557 -4.9237127e-21)
(2.650018 -0.14358819 -1.3247949e-21)
(2.6809793 -0.13718021 -1.6692897e-21)
(2.7056043 -0.13066523 -3.279206e-21)
(2.7317289 -0.11850965 3.3929667e-21)
(2.7519395 -0.1065691 1.1341352e-21)
(2.7710692 -0.08375997 -3.2147531e-22)
(2.7854552 -0.063540853 1.0122591e-21)
(2.7898444 -0.033117827 -4.3735164e-21)
(2.7918646 -0.0084895873 -3.2875292e-21)
(2.7800858 0.018506755 6.7263366e-21)
(2.7695694 0.039103284 6.7580503e-21)
(2.7487393 0.054349541 6.7228129e-21)
(2.7319694 0.065518856 2.8120743e-21)
(2.7110311 0.06855615 -4.4033899e-21)
(2.6946006 0.070585282 -7.3483708e-21)
(2.6787839 0.065767293 -4.6466006e-21)
(2.6663797 0.062105611 -1.4023575e-21)
(2.6564812 0.054446467 1.1089335e-21)
(2.6485194 0.048699825 4.6421624e-21)
(2.6429741 0.041233936 2.3424552e-21)
(2.6382749 0.035542501 3.8183666e-21)
(2.6353125 0.029329083 -5.0959859e-21)
(2.6326206 0.024491371 -1.0547252e-20)
(2.6310699 0.019631375 -2.6174834e-21)
(2.6295464 0.015800541 -1.6084846e-21)
(2.6287768 0.012139788 2.9927366e-22)
(2.6279175 0.0092726956 -1.1305098e-21)
(2.6275666 0.0066822662 -4.8628922e-21)
(2.6270774 0.004671975 1.9554441e-21)
(2.6269162 0.0029820615 -8.4839442e-22)
(2.6265625 0.0017543147 1.1327746e-21)
(2.6263832 0.0008909998 1.1436838e-20)
(2.6260552 0.00020931291 4.6653227e-21)
(2.6257812 -0.00017054875 5.7841186e-21)
(2.6253884 -0.0003437504 5.4291652e-21)
(2.6249518 -0.00024899732 -4.4197522e-21)
(2.6245795 -0.0003460404 1.1696329e-20)
(2.624144 -0.00031131362 1.3289345e-20)
(2.6238226 -0.00010469948 -6.7472352e-23)
(2.6234113 0.00018171753 -9.5871964e-21)
(2.5697342 -0.10655229 1.1210193e-21)
(2.5981774 -0.13842361 -6.6184258e-22)
(2.637179 -0.16303345 -2.7347985e-21)
(2.6760294 -0.15645457 -8.4526838e-21)
(2.7048349 -0.15029763 -8.8950313e-21)
(2.7355711 -0.1391224 -3.1164191e-21)
(2.7595575 -0.12768979 3.2105134e-21)
(2.7847742 -0.10388776 4.6107858e-22)
(2.8043695 -0.082178014 -9.1159648e-22)
(2.8133105 -0.046419397 2.9241674e-21)
(2.818982 -0.017035711 -2.1730896e-21)
(2.8072637 0.017156298 -4.9698777e-21)
(2.7964677 0.043503272 4.5180274e-21)
(2.7718258 0.063919414 4.4465111e-21)
(2.7519154 0.079058153 4.3722852e-21)
(2.7260113 0.083854162 8.4821708e-21)
(2.70563 0.087190022 1.7064788e-21)
(2.6859126 0.081385405 2.1318071e-21)
(2.6704433 0.077005564 4.8467334e-21)
(2.6584616 0.067270032 2.2395711e-21)
(2.6488276 0.06001923 4.6878652e-21)
(2.6425635 0.050617745 3.0074874e-21)
(2.6372016 0.043479486 7.9794826e-22)
(2.6341803 0.035835681 4.3291816e-21)
(2.631334 0.029873052 -4.126321e-21)
(2.6299434 0.024010189 -7.7854618e-21)
(2.6284626 0.019337159 -2.1175416e-22)
(2.6278967 0.014937189 1.0011792e-21)
(2.6271671 0.011416329 2.8540083e-21)
(2.6270518 0.0082230005 7.0727901e-24)
(2.6267253 0.0057176263 -3.5191674e-21)
(2.6268186 0.003594659 -1.1556971e-21)
(2.6266773 0.001966269 -3.8658863e-21)
(2.6267936 0.0007359911 -6.5329895e-21)
(2.6266405 -0.00011552675 3.1271401e-21)
(2.6265915 -0.00056671033 1.7950969e-21)
(2.6263512 -0.00092637681 2.8149428e-21)
(2.6261053 -0.0009612235 2.6267565e-21)
(2.6257104 -0.00089016143 -6.7688536e-21)
(2.6252221 -0.00055198607 1.7562544e-21)
(2.6248238 -0.00050139731 3.1123128e-21)
(2.6243211 -0.00036227215 -6.5017119e-21)
(2.6239429 -0.00010521508 -1.5643853e-20)
(2.6234536 0.00019954314 -1.5762598e-20)
(2.5822953 -0.11151805 -7.229769e-21)
(2.5900093 -0.15272564 2.1684574e-21)
(2.622256 -0.18411569 4.8213561e-22)
(2.6675589 -0.17770007 3.7016845e-21)
(2.7030049 -0.17125769 -1.62739e-21)
(2.7383549 -0.16143486 -1.4012014e-21)
(2.7661681 -0.15103819 4.1954281e-21)
(2.7982824 -0.12702099 1.3124807e-21)
(2.8238826 -0.10444594 -1.3217513e-21)
(2.8387576 -0.063106101 -5.3200054e-21)
(2.8494666 -0.028584526 -1.7640766e-21)
(2.8385141 0.014326723 4.0139031e-21)
(2.8278973 0.047687343 1.4514311e-21)
(2.7988486 0.07469322 9.9461845e-22)
(2.7753576 0.09493332 8.7009246e-22)
(2.7433387 0.10216518 -3.4921505e-21)
(2.7180777 0.10733383 2.760324e-22)
(2.6934385 0.10036459 4.7782229e-21)
(2.6740571 0.095131804 5.2304026e-21)
(2.6594871 0.082703055 3.0626204e-21)
(2.6477725 0.07349816 5.6447386e-22)
(2.6407492 0.061599394 -1.2346848e-22)
(2.6346722 0.052611265 -1.7947294e-21)
(2.6317527 0.043213655 -1.9158795e-21)
(2.628844 0.035875701 1.3947793e-21)
(2.6277834 0.028873151 3.1367559e-21)
(2.6264558 0.023237226 -2.2835433e-22)
(2.626207 0.018051087 2.1206814e-21)
(2.6256716 0.01381665 3.3157618e-21)
(2.6258354 0.010007096 3.382902e-21)
(2.6257308 0.0069320471 6.8777176e-22)
(2.6261259 0.0042800817 -2.6043169e-21)
(2.6262239 0.0022202923 -3.4832207e-22)
(2.6266643 0.00062188022 -3.9296871e-22)
(2.6267901 -0.00056844398 -2.874113e-21)
(2.6271049 -0.0013014961 6.9057824e-22)
(2.6270781 -0.0017580098 -6.1341041e-22)
(2.6270875 -0.0017757189 -4.2264864e-21)
(2.6268753 -0.0018056527 -4.5150384e-21)
(2.6265925 -0.0015140722 -3.0567277e-21)
(2.6261516 -0.0012120015 5.095507e-21)
(2.6255615 -0.00067727198 8.0840447e-22)
(2.6251008 -0.00052234234 -8.3567726e-21)
(2.6245003 -0.00029520874 -1.3543457e-20)
(2.624048 -1.9495408e-05 -1.3623238e-20)
(2.6234611 0.00025122432 -2.4560173e-21)
(2.6154332 -0.1117124 -4.6759152e-21)
(2.5973844 -0.16376605 -1.4132719e-20)
(2.6137047 -0.20413304 -5.3061246e-21)
(2.6604552 -0.19991042 4.125958e-21)
(2.7005446 -0.19421977 7.2569031e-21)
(2.7405725 -0.1857677 3.4935013e-21)
(2.772149 -0.17650491 3.7905881e-21)
(2.8115042 -0.15335682 8.807062e-21)
(2.843719 -0.13058501 6.141887e-21)
(2.8660585 -0.083750357 -4.2881509e-21)
(2.8834594 -0.043872415 -8.1791299e-21)
(2.8744684 0.0094298527 -2.9066312e-21)
(2.8646824 0.051292946 2.556076e-21)
(2.83073 0.086656789 5.0185858e-22)
(2.8031426 0.11339741 5.5894372e-23)
(2.7634299 0.12396754 3.8296027e-24)
(2.7321785 0.13165207 -4.1526332e-21)
(2.7013036 0.1233464 -3.528313e-21)
(2.6769546 0.11712095 6.8765086e-22)
(2.6591717 0.1012097 2.1075309e-21)
(2.6448581 0.089473008 0)
(2.6370507 0.074348463 -3.0858863e-21)
(2.6302154 0.062974748 -3.7963241e-21)
(2.6276398 0.051403799 -6.3669009e-21)
(2.6248249 0.042378563 -6.5535588e-21)
(2.6243512 0.034086296 -3.5362244e-21)
(2.6233441 0.027351363 -1.9565743e-21)
(2.6235761 0.02136455 -2.1256697e-21)
(2.6233474 0.016376486 8.1349764e-23)
(2.6238618 0.01196336 3.2080438e-21)
(2.6240229 0.008294729 3.2701583e-21)
(2.6247277 0.0051103906 8.5382821e-21)
(2.6251093 0.0025513034 5.5333979e-21)
(2.6259096 0.0004802798 3.8813356e-21)
(2.6263395 -0.0010783145 3.9079953e-21)
(2.6270432 -0.0021147217 1.0633555e-20)
(2.6273601 -0.0028314056 1.4229047e-20)
(2.6277914 -0.0030440763 1.4577296e-21)
(2.627824 -0.0030904505 -1.9371888e-21)
(2.6278199 -0.0026847247 4.8718309e-21)
(2.6275772 -0.0023976162 6.4005226e-21)
(2.6271986 -0.0018060069 5.5512574e-21)
(2.6266622 -0.0013149137 1.4884406e-21)
(2.6259257 -0.00063266573 2.0504597e-21)
(2.625375 -0.00038940901 -2.7112038e-21)
(2.6246532 -9.8876462e-05 -1.5095085e-20)
(2.6241057 0.00014177407 -4.5126652e-21)
(2.6234077 0.00033584837 3.4277005e-21)
(2.6670004 -0.10728053 1.4893171e-20)
(2.6217088 -0.16991276 5.3638965e-21)
(2.6178587 -0.22038383 -3.4441094e-21)
(2.658545 -0.22111751 -8.164046e-21)
(2.6979193 -0.2180092 7.8532504e-22)
(2.7413459 -0.21133482 -6.2364934e-21)
(2.7767302 -0.20364612 -1.0007827e-20)
(2.8239422 -0.18217704 1.6682215e-20)
(2.8628986 -0.16015967 2.1653791e-20)
(2.8935185 -0.10835938 1.1311485e-20)
(2.919546 -0.063198005 1.5068342e-21)
(2.9143621 0.0019836444 -8.0481841e-21)
(2.9064587 0.053937022 -3.0417597e-21)
(2.868311 0.099552277 9.3726928e-21)
(2.8362122 0.13454904 7.5316945e-21)
(2.7873546 0.14968323 -7.2202823e-21)
(2.7486148 0.16081804 -7.3838443e-21)
(2.709536 0.15104503 -7.235071e-21)
(2.6788568 0.14369846 -6.7266186e-21)
(2.6570294 0.12332412 -2.4368779e-21)
(2.6394717 0.10831913 -1.137399e-21)
(2.6308802 0.089025484 0)
(2.6232604 0.074572641 -2.9303723e-21)
(2.6213748 0.0602999 -5.4503057e-21)
(2.6188906 0.049183765 -7.9171752e-21)
(2.6193693 0.039420554 -7.8146892e-21)
(2.6189354 0.031439434 -4.9514504e-21)
(2.6198917 0.024675874 -2.8791584e-21)
(2.6201337 0.018916064 -3.0542422e-21)
(2.6210964 0.013973402 -2.850733e-21)
(2.6215959 0.0097294769 7.2082806e-23)
(2.6226193 0.0060465109 -2.6540604e-21)
(2.6232934 0.0029762057 2.2596251e-21)
(2.6244271 0.00041231613 2.4640118e-21)
(2.6251949 -0.0015927453 8.4928484e-22)
(2.6263255 -0.00305516 3.441241e-21)
(2.6270091 -0.0040792245 9.8201903e-21)
(2.6279 -0.0045214885 9.6563026e-21)
(2.6283322 -0.0047427297 -2.5399244e-21)
(2.6288006 -0.0044286603 -1.6478942e-21)
(2.6288243 -0.004069977 4.8230973e-21)
(2.6287354 -0.0032613032 -1.6062637e-21)
(2.6284038 -0.0026834367 -2.5368168e-21)
(2.6278716 -0.0018271545 -2.5464053e-21)
(2.627197 -0.0011908116 -2.075151e-21)
(2.6262799 -0.00038861695 1.1020017e-20)
(2.6256124 -8.5864137e-05 -5.2377311e-22)
(2.6247431 0.0002147049 -1.2631084e-21)
(2.6240902 0.00037640657 6.3285711e-21)
(2.6232711 0.00046343657 1.7615208e-23)
(2.7313909 -0.097645879 1.0181512e-20)
(2.6585738 -0.17031731 1.6753114e-20)
(2.6324344 -0.2310517 7.7611807e-21)
(2.6646502 -0.23876796 1.0353732e-20)
(2.6960848 -0.24043057 6.1115201e-21)
(2.7400729 -0.23651937 -7.0104664e-21)
(2.778001 -0.23076946 -1.3787497e-20)
(2.8304412 -0.21127334 -8.6071648e-21)
(2.8766807 -0.19119476 1.6771099e-20)
(2.9159819 -0.13493875 5.1322774e-20)
(2.9519114 -0.085533839 4.1976248e-20)
(2.9532361 -0.0068928814 2.8228326e-21)
(2.9487755 0.056458149 -6.2318808e-21)
(2.9080655 0.11372885 -1.9864149e-21)
(2.8721371 0.15866546 9.8234487e-21)
(2.8154407 0.17965949 8.9988435e-21)
(2.7678696 0.19550969 -5.0031353e-21)
(2.7188234 0.18420955 -1.2407083e-20)
(2.6798013 0.1756958 -1.2378236e-20)
(2.6525529 0.14962908 -1.0172325e-20)
(2.6308933 0.13044245 -6.133781e-21)
(2.6215293 0.10579023 2.6864735e-22)
(2.613128 0.087364126 1.3736708e-21)
(2.612407 0.069722205 2.7260023e-21)
(2.6105935 0.056008249 4.3069345e-22)
(2.6125227 0.044564116 1.6300741e-21)
(2.6130213 0.035160005 1.8701711e-21)
(2.6150468 0.027671641 5.8358197e-22)
(2.6160027 0.02116006 2.6378013e-21)
(2.6175632 0.015840501 6.3797483e-22)
(2.6185023 0.011090052 8.890626e-22)
(2.6198452 0.0070171282 2.8529854e-23)
(2.6208234 0.0034753675 -2.5564216e-21)
(2.6222394 0.000433224 -2.1689618e-21)
(2.6233191 -0.0020461302 -2.0446119e-21)
(2.624831 -0.0039911397 -6.9481712e-21)
(2.6259139 -0.0054197658 -4.6098698e-21)
(2.6273149 -0.0062373336 3.8510568e-22)
(2.6281804 -0.0066987069 8.0571132e-23)
(2.6291806 -0.0065267783 -5.4846668e-21)
(2.6296526 -0.0062454999 -4.6812265e-21)
(2.6300759 -0.0054124209 4.5407099e-21)
(2.630023 -0.0046664902 -1.5666953e-21)
(2.6297793 -0.003489239 -1.0378768e-20)
(2.6293033 -0.0026555275 -1.0508561e-20)
(2.6285644 -0.0015795038 -2.6505192e-23)
(2.6277209 -0.00082329303 1.2440886e-20)
(2.6265929 4.1097214e-05 1.1151413e-20)
(2.6257853 0.00035562602 1.0632931e-20)
(2.6247491 0.00062413105 1.9492573e-20)
(2.6239845 0.00068546003 1.3705604e-20)
(2.6230311 0.00063434002 -3.8862842e-24)
(2.8012102 -0.083642625 1.4897051e-20)
(2.7036032 -0.16457136 -1.7699559e-22)
(2.6536256 -0.23482845 5.9304498e-21)
(2.6748461 -0.25121278 4.8200462e-21)
(2.6963937 -0.25928985 7.2359506e-21)
(2.7379849 -0.25946692 6.181293e-21)
(2.7755995 -0.25636122 -6.2846469e-21)
(2.8299689 -0.23897184 -1.8550231e-20)
(2.8812338 -0.22081855 -1.3709445e-20)
(2.92439 -0.16155693 -3.0356188e-21)
(2.9704956 -0.10830966 2.9435726e-20)
(2.9810984 -0.014841752 3.3162952e-20)
(2.9823569 0.061019647 -4.1642361e-21)
(2.9412121 0.13149548 -1.0881364e-20)
(2.9028899 0.18760253 -6.9168487e-21)
(2.8402566 0.21498276 1.3424695e-21)
(2.785124 0.23656884 3.9895023e-22)
(2.728726 0.22381055 -5.6064123e-21)
(2.6794915 0.2141516 -1.2688706e-20)
(2.6456062 0.18079669 -5.3259437e-21)
(2.6184512 0.15630723 -3.1037011e-21)
(2.6081858 0.12477326 -2.5830632e-21)
(2.5990269 0.10124976 3.5582727e-21)
(2.6001031 0.079422913 1.4019027e-21)
(2.5994287 0.062475702 2.709483e-21)
(2.6034605 0.049098684 3.0810901e-21)
(2.60538 0.038066535 4.2456947e-21)
(2.6089419 0.029944694 4.4202644e-21)
(2.6109554 0.022728382 3.2564366e-21)
(2.6133346 0.017259114 3.0458491e-21)
(2.6148675 0.012147588 1.1636147e-21)
(2.6165414 0.0078948967 9.5238035e-23)
(2.6178301 0.0039864265 -7.342404e-22)
(2.6194321 0.00055115037 -1.039397e-22)
(2.6207754 -0.0023789986 2.9899174e-22)
(2.622576 -0.004844121 3.8703538e-21)
(2.6240128 -0.0067384767 -6.9259729e-22)
(2.62588 -0.0080386922 -3.0167509e-21)
(2.6272235 -0.0088596585 1.7509954e-21)
(2.6288324 -0.0089963206 -3.8429946e-21)
(2.6298071 -0.008874308 -9.1891196e-21)
(2.6308313 -0.0080774759 -7.8723593e-21)
(2.6312657 -0.0072999342 8.3369959e-22)
(2.6315599 -0.005969777 5.8797156e-22)