/*--------------------------------*- C++ -*----------------------------------*\
| =========                 |                                                 |
| \\      /  F ield         | OpenFOAM: The Open Source CFD Toolbox           |
|  \\    /   O peration     | Version:  v2012                                 |
|   \\  /    A nd           | Website:  www.openfoam.com                      |
|    \\/     M anipulation  |                                                 |
\*---------------------------------------------------------------------------*/
FoamFile
{
    version     2.0;
    format      ascii;
    class       volVectorField;
    location    "53.7971014022953611";
    object      cellDisplacement;
}
// * * * * * * * * * * * * * * * * * * * * * * * * * * * * * * * * * * * * * //

dimensions      [0 1 0 0 0 0 0];


internalField   nonuniform List<vector> 
9200
(
(-0.055124101 0 0)
(-0.055348004 0 0)
(-0.15972572 0 0)
(-0.055723739 0 0)
(-0.16031102 0 0)
(-0.25680122 0 0)
(-0.056190481 0 0)
(-0.16131228 0 0)
(-0.25768508 0 0)
(-0.34667026 0 0)
(-0.056708294 0 0)
(-0.16256996 0 0)
(-0.25920141 0 0)
(-0.34781962 0 0)
(-0.42976458 0 0)
(-0.057246542 0 0)
(-0.16397215 0 0)
(-0.26111205 0 0)
(-0.34975422 0 0)
(-0.43110964 0 0)
(-0.50642553 0 0)
(-0.05778779 0 0)
(-0.16544543 0 0)
(-0.26327518 0 0)
(-0.35226089 0 0)
(-0.43347484 0 0)
(-0.50801684 0 0)
(-0.57712599 0 0)
(-0.058315321 0 0)
(-0.16692741 0 0)
(-0.26555269 0 0)
(-0.35508077 0 0)
(-0.4364617 0 0)
(-0.51070127 0 0)
(-0.57888607 0 0)
(-0.64219555 0 0)
(-0.058822069 0 0)
(-0.16838224 0 0)
(-0.26785635 0 0)
(-0.35807026 0 0)
(-0.43987815 0 0)
(-0.51418403 0 0)
(-0.58194871 0 0)
(-0.64417442 0 0)
(-0.70207664 0 0)
(-0.059299514 0 0)
(-0.16977773 0 0)
(-0.27011939 0 0)
(-0.36110099 0 0)
(-0.44350347 0 0)
(-0.51813524 0 0)
(-0.58584349 0 0)
(-0.64752541 0 0)
(-0.70420928 0 0)
(-0.75707489 0 0)
(-0.059746041 0 0)
(-0.17110007 0 0)
(-0.27229838 0 0)
(-0.36408554 0 0)
(-0.44718983 0 0)
(-0.52233729 0 0)
(-0.59028269 0 0)
(-0.65184806 0 0)
(-0.70790337 0 0)
(-0.75940612 0 0)
(-0.80759105 0 0)
(-0.060157802 0 0)
(-0.17233401 0 0)
(-0.27436288 0 0)
(-0.36696478 0 0)
(-0.450829 0 0)
(-0.52662493 0 0)
(-0.59502635 0 0)
(-0.65676167 0 0)
(-0.71260096 0 0)
(-0.76336951 0 0)
(-0.81007199 0 0)
(-0.85390402 0 0)
(-0.060536152 0 0)
(-0.17347797 0 0)
(-0.27629657 0 0)
(-0.36969757 0 0)
(-0.45434429 0 0)
(-0.53086685 0 0)
(-0.59987379 0 0)
(-0.66201038 0 0)
(-0.71796601 0 0)
(-0.76847606 0 0)
(-0.81435587 0 0)
(-0.85656725 0 0)
(-0.89636259 0 0)
(-0.060879744 0 0)
(-0.17452618 0 0)
(-0.27808785 0 0)
(-0.37226028 0 0)
(-0.45768709 0 0)
(-0.53497337 0 0)
(-0.6046803 0 0)
(-0.66738185 0 0)
(-0.72368998 0 0)
(-0.77426982 0 0)
(-0.81981348 0 0)
(-0.86110703 0 0)
(-0.89916775 0 0)
(-0.93521146 0 0)
(-0.061191369 0 0)
(-0.17548333 0 0)
(-0.27973594 0 0)
(-0.37463951 0 0)
(-0.46082436 0 0)
(-0.5388833 0 0)
(-0.60934211 0 0)
(-0.67272174 0 0)
(-0.72956881 0 0)
(-0.78046868 0 0)
(-0.82603967 0 0)
(-0.8669555 0 0)
(-0.90400962 0 0)
(-0.93818569 0 0)
(-0.97075682 0 0)
(-0.061471191 0 0)
(-0.17634963 0 0)
(-0.28123986 0 0)
(-0.37683004 0 0)
(-0.46374059 0 0)
(-0.54255913 0 0)
(-0.61378799 0 0)
(-0.67791035 0 0)
(-0.73541932 0 0)
(-0.7868289 0 0)
(-0.83268958 0 0)
(-0.87359563 0 0)
(-0.91019323 0 0)
(-0.94327365 0 0)
(-0.97387036 0 0)
(-1.0032143 0 0)
(-0.061722428 0 0)
(-0.17713159 0 0)
(-0.28260599 0 0)
(-0.37883353 0 0)
(-0.46642745 0 0)
(-0.54597839 0 0)
(-0.61797328 0 0)
(-0.68286542 0 0)
(-0.74111239 0 0)
(-0.79316708 0 0)
(-0.83951079 0 0)
(-0.88068686 0 0)
(-0.91724771 0 0)
(-0.94982982 0 0)
(-0.97924122 0 0)
(-1.0064857 0 0)
(-1.0328473 0 0)
(-0.061945834 0 0)
(-0.17783266 0 0)
(-0.28383882 0 0)
(-0.38065474 0 0)
(-0.46888704 0 0)
(-0.54913366 0 0)
(-0.62187226 0 0)
(-0.68753666 0 0)
(-0.74655851 0 0)
(-0.79934839 0 0)
(-0.84633316 0 0)
(-0.88798698 0 0)
(-0.92479112 0 0)
(-0.95728686 0 0)
(-0.98611849 0 0)
(-1.0120924 0 0)
(-1.036252 0 0)
(-1.0598418 0 0)
(-0.062144698 0 0)
(-0.1784596 0 0)
(-0.28494806 0 0)
(-0.3823025 0 0)
(-0.47112408 0 0)
(-0.55202301 0 0)
(-0.62547352 0 0)
(-0.69189222 0 0)
(-0.7516969 0 0)
(-0.8052704 0 0)
(-0.85298762 0 0)
(-0.89525708 0 0)
(-0.93252081 0 0)
(-0.96525491 0 0)
(-0.99397257 0 0)
(-1.0193242 0 0)
(-1.0421257 0 0)
(-1.0633944 0 0)
(-1.0844258 0 0)
(-0.062319956 0 0)
(-0.17901779 0 0)
(-0.28594114 0 0)
(-0.38378631 0 0)
(-0.47314943 0 0)
(-0.5546551 0 0)
(-0.62877675 0 0)
(-0.69591995 0 0)
(-0.75649483 0 0)
(-0.81086435 0 0)
(-0.85936975 0 0)
(-0.90237116 0 0)
(-0.94026034 0 0)
(-0.97345322 0 0)
(-1.0023755 0 0)
(-1.0275613 0 0)
(-1.0496633 0 0)
(-1.0694958 0 0)
(-1.0881087 0 0)
(-1.1067611 0 0)
(-0.062474779 0 0)
(-0.17951289 0 0)
(-0.28682772 0 0)
(-0.38511722 0 0)
(-0.47497445 0 0)
(-0.55703865 0 0)
(-0.63178754 0 0)
(-0.69961643 0 0)
(-0.76093415 0 0)
(-0.81609326 0 0)
(-0.86540955 0 0)
(-0.90920402 0 0)
(-0.9478205 0 0)
(-0.98162364 0 0)
(-1.0109934 0 0)
(-1.0363744 0 0)
(-1.0582798 0 0)
(-1.0773693 0 0)
(-1.094461 0 0)
(-1.1105834 0 0)
(-1.1270421 0 0)
(-0.062609997 0 0)
(-0.17995091 0 0)
(-0.28761686 0 0)
(-0.38630722 0 0)
(-0.47661268 0 0)
(-0.55918894 0 0)
(-0.63451818 0 0)
(-0.70298915 0 0)
(-0.76501311 0 0)
(-0.82093628 0 0)
(-0.87105722 0 0)
(-0.91567374 0 0)
(-0.95508695 0 0)
(-0.98961147 0 0)
(-1.0196062 0 0)
(-1.0454406 0 0)
(-1.0675086 0 0)
(-1.0863526 0 0)
(-1.102628 0 0)
(-1.1171546 0 0)
(-1.1309896 0 0)
(-1.1454079 0 0)
(-0.062728579 0 0)
(-0.1803365 0 0)
(-0.28831684 0 0)
(-0.38736677 0 0)
(-0.478078 0 0)
(-0.56111935 0 0)
(-0.63698242 0 0)
(-0.70604909 0 0)
(-0.76873669 0 0)
(-0.82538997 0 0)
(-0.87629602 0 0)
(-0.9217337 0 0)
(-0.96197766 0 0)
(-0.9973029 0 0)
(-1.0280233 0 0)
(-1.0544717 0 0)
(-1.0769824 0 0)
(-1.095978 0 0)
(-1.1119747 0 0)
(-1.1256415 0 0)
(-1.1377983 0 0)
(-1.1494872 0 0)
(-1.162025 0 0)
(-0.062831275 0 0)
(-0.18067553 0 0)
(-0.28893603 0 0)
(-0.38830855 0 0)
(-0.47938414 0 0)
(-0.5628472 0 0)
(-0.63919778 0 0)
(-0.70881275 0 0)
(-0.77211818 0 0)
(-0.82945997 0 0)
(-0.88111591 0 0)
(-0.92735577 0 0)
(-0.96844001 0 0)
(-1.0046072 0 0)
(-1.0361254 0 0)
(-1.0633042 0 0)
(-1.0864527 0 0)
(-1.1058863 0 0)
(-1.1219981 0 0)
(-1.1353387 0 0)
(-1.146566 0 0)
(-1.156507 0 0)
(-1.1662257 0 0)
(-1.1770138 0 0)
(-0.062920802 0 0)
(-0.18097176 0 0)
(-0.28948191 0 0)
(-0.38914211 0 0)
(-0.48054552 0 0)
(-0.56438787 0 0)
(-0.64118076 0 0)
(-0.71129754 0 0)
(-0.77517388 0 0)
(-0.83315884 0 0)
(-0.88552533 0 0)
(-0.93253513 0 0)
(-0.97444113 0 0)
(-1.0114629 0 0)
(-1.0438281 0 0)
(-1.0718023 0 0)
(-1.095691 0 0)
(-1.1157635 0 0)
(-1.1323045 0 0)
(-1.1457455 0 0)
(-1.156611 0 0)
(-1.1655775 0 0)
(-1.1734695 0 0)
(-1.1813394 0 0)
(-1.1905156 0 0)
(-0.062997803 0 0)
(-0.18123054 0 0)
(-0.28996193 0 0)
(-0.38987894 0 0)
(-0.48157418 0 0)
(-0.56575715 0 0)
(-0.64294975 0 0)
(-0.713523 0 0)
(-0.77792333 0 0)
(-0.83650516 0 0)
(-0.88953619 0 0)
(-0.93727411 0 0)
(-0.97997422 0 0)
(-1.0178401 0 0)
(-1.0510704 0 0)
(-1.0799026 0 0)
(-1.1046091 0 0)
(-1.1254315 0 0)
(-1.1426151 0 0)
(-1.1564691 0 0)
(-1.1673987 0 0)
(-1.1759581 0 0)
(-1.182809 0 0)
(-1.1887859 0 0)
(-1.1949576 0 0)
(-1.2026338 0 0)
(-0.063064681 0 0)
(-0.18145486 0 0)
(-0.29038241 0 0)
(-0.39052692 0 0)
(-0.48248376 0 0)
(-0.56697081 0 0)
(-0.64452194 0 0)
(-0.71550853 0 0)
(-0.78038757 0 0)
(-0.83951853 0 0)
(-0.8931674 0 0)
(-0.94158828 0 0)
(-0.98504083 0 0)
(-1.0237227 0 0)
(-1.0578179 0 0)
(-1.087529 0 0)
(-1.1130853 0 0)
(-1.1347273 0 0)
(-1.1526844 0 0)
(-1.1671781 0 0)
(-1.1785084 0 0)
(-1.1871148 0 0)
(-1.1935211 0 0)
(-1.1984119 0 0)
(-1.2026159 0 0)
(-1.2071943 0 0)
(-1.2134883 0 0)
(-0.063121904 0 0)
(-0.18164975 0 0)
(-0.29074926 0 0)
(-0.39109594 0 0)
(-0.48328407 0 0)
(-0.56804205 0 0)
(-0.64591403 0 0)
(-0.7172734 0 0)
(-0.78258722 0 0)
(-0.84222182 0 0)
(-0.89644083 0 0)
(-0.94549523 0 0)
(-0.98965559 0 0)
(-1.0291159 0 0)
(-1.064046 0 0)
(-1.0946343 0 0)
(-1.1210824 0 0)
(-1.1436028 0 0)
(-1.1624039 0 0)
(-1.1776683 0 0)
(-1.1896354 0 0)
(-1.198623 0 0)
(-1.2050411 0 0)
(-1.2094433 0 0)
(-1.2124983 0 0)
(-1.2150471 0 0)
(-1.218161 0 0)
(-1.2231696 0 0)
(-0.063171571 0 0)
(-0.18181687 0 0)
(-0.29106804 0 0)
(-0.39159272 0 0)
(-0.48398719 0 0)
(-0.5689854 0 0)
(-0.64714255 0 0)
(-0.7188367 0 0)
(-0.78454411 0 0)
(-0.84463674 0 0)
(-0.8993793 0 0)
(-0.94901892 0 0)
(-0.99383762 0 0)
(-1.0340304 0 0)
(-1.0697623 0 0)
(-1.1012102 0 0)
(-1.1285497 0 0)
(-1.151965 0 0)
(-1.1716451 0 0)
(-1.1877632 0 0)
(-1.2005161 0 0)
(-1.2101333 0 0)
(-1.2169208 0 0)
(-1.2213166 0 0)
(-1.2238446 0 0)
(-1.225199 0 0)
(-1.2262136 0 0)
(-1.2279542 0 0)
(-1.231778 0 0)
(-0.063211988 0 0)
(-0.18196144 0 0)
(-0.29134359 0 0)
(-0.39202502 0 0)
(-0.48460087 0 0)
(-0.56981174 0 0)
(-0.64822236 0 0)
(-0.72021611 0 0)
(-0.78627802 0 0)
(-0.84678679 0 0)
(-0.9020077 0 0)
(-0.95218329 0 0)
(-0.99761082 0 0)
(-1.0384881 0 0)
(-1.0749733 0 0)
(-1.1072405 0 0)
(-1.1354581 0 0)
(-1.1597813 0 0)
(-1.1803661 0 0)
(-1.1973911 0 0)
(-1.211021 0 0)
(-1.2214165 0 0)
(-1.2288297 0 0)
(-1.2335751 0 0)
(-1.2360636 0 0)
(-1.236849 0 0)
(-1.2366095 0 0)
(-1.2361926 0 0)
(-1.2366695 0 0)
(-1.2393922 0 0)
(-0.062981668 0 0)
(-0.18207858 0 0)
(-0.29157957 0 0)
(-0.39239866 0 0)
(-0.4851354 0 0)
(-0.57053399 0 0)
(-0.64916813 0 0)
(-0.72142898 0 0)
(-0.78780944 0 0)
(-0.8486934 0 0)
(-0.9043493 0 0)
(-0.9550147 0 0)
(-1.0010015 0 0)
(-1.0425124 0 0)
(-1.0797036 0 0)
(-1.1127498 0 0)
(-1.1418094 0 0)
(-1.1670218 0 0)
(-1.1885225 0 0)
(-1.2064661 0 0)
(-1.2210073 0 0)
(-1.2322861 0 0)
(-1.2404902 0 0)
(-1.2458514 0 0)
(-1.248678 0 0)
(-1.2494049 0 0)
(-1.2485579 0 0)
(-1.246842 0 0)
(-1.2450966 0 0)
(-1.244389 0 0)
(-1.2460966 0 0)
(-0.062698016 0 0)
(-0.18159991 0 0)
(-0.2917727 0 0)
(-0.39271824 0 0)
(-0.48559619 0 0)
(-0.57116051 0 0)
(-0.64999198 0 0)
(-0.72249043 0 0)
(-0.78915607 0 0)
(-0.85037805 0 0)
(-0.90642808 0 0)
(-0.95753826 0 0)
(-1.0040361 0 0)
(-1.0461314 0 0)
(-1.0839755 0 0)
(-1.117747 0 0)
(-1.1476065 0 0)
(-1.1736853 0 0)
(-1.1960928 0 0)
(-1.2149558 0 0)
(-1.2304269 0 0)
(-1.2426488 0 0)
(-1.2517512 0 0)
(-1.2578942 0 0)
(-1.2613334 0 0)
(-1.2623785 0 0)
(-1.2614419 0 0)
(-1.2590778 0 0)
(-1.2559772 0 0)
(-1.2529932 0 0)
(-1.2511946 0 0)
(-1.2519603 0 0)
(-0.06243959 0 0)
(-0.18074977 0 0)
(-0.29107883 0 0)
(-0.3929797 0 0)
(-0.48599276 0 0)
(-0.57170252 0 0)
(-0.65070664 0 0)
(-0.72341571 0 0)
(-0.79033595 0 0)
(-0.85186083 0 0)
(-0.9082665 0 0)
(-0.95977978 0 0)
(-1.0067429 0 0)
(-1.049373 0 0)
(-1.0878197 0 0)
(-1.1222677 0 0)
(-1.1528769 0 0)
(-1.1797738 0 0)
(-1.2030606 0 0)
(-1.2228419 0 0)
(-1.2392388 0 0)
(-1.2524029 0 0)
(-1.2624558 0 0)
(-1.2695038 0 0)
(-1.2737356 0 0)
(-1.2753839 0 0)
(-1.2747551 0 0)
(-1.2722823 0 0)
(-1.2684948 0 0)
(-1.2641112 0 0)
(-1.2599765 0 0)
(-1.2571564 0 0)
(-1.257054 0 0)
(-0.062209202 0 0)
(-0.17997581 0 0)
(-0.28973422 0 0)
(-0.39209971 0 0)
(-0.4863154 0 0)
(-0.57216475 0 0)
(-0.65132208 0 0)
(-0.7242174 0 0)
(-0.79136425 0 0)
(-0.85316028 0 0)
(-0.90988538 0 0)
(-0.9617628 0 0)
(-1.0091472 0 0)
(-1.0522663 0 0)
(-1.0912643 0 0)
(-1.1263337 0 0)
(-1.15764 0 0)
(-1.1853116 0 0)
(-1.2094395 0 0)
(-1.2301097 0 0)
(-1.2474299 0 0)
(-1.2615324 0 0)
(-1.2725459 0 0)
(-1.2805732 0 0)
(-1.2857188 0 0)
(-1.2881481 0 0)
(-1.2881193 0 0)
(-1.2859353 0 0)
(-1.2820104 0 0)
(-1.2769009 0 0)
(-1.2713134 0 0)
(-1.2661049 0 0)
(-1.2623443 0 0)
(-1.2614381 0 0)
(-0.062009363 0 0)
(-0.17928629 0 0)
(-0.28850698 0 0)
(-0.39032329 0 0)
(-0.48527763 0 0)
(-0.57254421 0 0)
(-0.65184691 0 0)
(-0.72490755 0 0)
(-0.7922563 0 0)
(-0.85429376 0 0)
(-0.91130564 0 0)
(-0.96351097 0 0)
(-1.0112765 0 0)
(-1.0548401 0 0)
(-1.0943405 0 0)
(-1.1299818 0 0)
(-1.1619325 0 0)
(-1.1903222 0 0)
(-1.2152408 0 0)
(-1.2367706 0 0)
(-1.2549938 0 0)
(-1.2700179 0 0)
(-1.2819765 0 0)
(-1.2909835 0 0)
(-1.2971143 0 0)
(-1.3004654 0 0)
(-1.3012277 0 0)
(-1.2996325 0 0)
(-1.2959868 0 0)
(-1.2907204 0 0)
(-1.2843687 0 0)
(-1.2776655 0 0)
(-1.2714589 0 0)
(-1.2668183 0 0)
(-1.2651717 0 0)
(-0.061841235 0 0)
(-0.1786886 0 0)
(-0.28741493 0 0)
(-0.38870118 0 0)
(-0.48312453 0 0)
(-0.57136446 0 0)
(-0.65227535 0 0)
(-0.72549738 0 0)
(-0.79302365 0 0)
(-0.85527705 0 0)
(-0.91254543 0 0)
(-0.96504514 0 0)
(-1.0131541 0 0)
(-1.0571206 0 0)
(-1.0970772 0 0)
(-1.1332393 0 0)
(-1.1657808 0 0)
(-1.1948382 0 0)
(-1.2204982 0 0)
(-1.2428334 0 0)
(-1.2619247 0 0)
(-1.2778591 0 0)
(-1.2907426 0 0)
(-1.3007096 0 0)
(-1.3078453 0 0)
(-1.3122073 0 0)
(-1.3138973 0 0)
(-1.3130833 0 0)
(-1.310023 0 0)
(-1.3050179 0 0)
(-1.2984827 0 0)
(-1.2909774 0 0)
(-1.2832262 0 0)
(-1.2760887 0 0)
(-1.2706387 0 0)
(-1.2683087 0 0)
(-0.061706606 0 0)
(-0.17818589 0 0)
(-0.28646638 0 0)
(-0.38725809 0 0)
(-0.48116061 0 0)
(-0.568883 0 0)
(-0.65097532 0 0)
(-0.72597821 0 0)
(-0.7936805 0 0)
(-0.85612534 0 0)
(-0.91362226 0 0)
(-0.96638576 0 0)
(-1.0148039 0 0)
(-1.0591355 0 0)
(-1.0995038 0 0)
(-1.1361399 0 0)
(-1.1692225 0 0)
(-1.1988923 0 0)
(-1.2252367 0 0)
(-1.2483312 0 0)
(-1.2682474 0 0)
(-1.2850552 0 0)
(-1.2988522 0 0)
(-1.3097611 0 0)
(-1.3178721 0 0)
(-1.3232495 0 0)
(-1.3259507 0 0)
(-1.3260709 0 0)
(-1.3238005 0 0)
(-1.3193697 0 0)
(-1.3130872 0 0)
(-1.3053788 0 0)
(-1.2967886 0 0)
(-1.2880661 0 0)
(-1.2800632 0 0)
(-1.2738573 0 0)
(-1.2708979 0 0)
(-0.061606338 0 0)
(-0.17778362 0 0)
(-0.28566937 0 0)
(-0.38600435 0 0)
(-0.47941121 0 0)
(-0.56661585 0 0)
(-0.64820714 0 0)
(-0.72458451 0 0)
(-0.794216 0 0)
(-0.85684849 0 0)
(-0.91455147 0 0)
(-0.96755086 0 0)
(-1.0162465 0 0)
(-1.0609064 0 0)
(-1.1016464 0 0)
(-1.1387116 0 0)
(-1.1722854 0 0)
(-1.2025175 0 0)
(-1.2294954 0 0)
(-1.2532901 0 0)
(-1.2739772 0 0)
(-1.2916254 0 0)
(-1.3063066 0 0)
(-1.318118 0 0)
(-1.3271726 0 0)
(-1.3335552 0 0)
(-1.3372985 0 0)
(-1.3384549 0 0)
(-1.3371218 0 0)
(-1.3334704 0 0)
(-1.3277585 0 0)
(-1.3202863 0 0)
(-1.3114682 0 0)
(-1.3018705 0 0)
(-1.2922358 0 0)
(-1.2834255 0 0)
(-1.2765254 0 0)
(-1.2729869 0 0)
(-0.061541419 0 0)
(-0.17748377 0 0)
(-0.28502989 0 0)
(-0.38495103 0 0)
(-0.47789253 0 0)
(-0.5645982 0 0)
(-0.64567805 0 0)
(-0.72157588 0 0)
(-0.7927484 0 0)
(-0.8574422 0 0)
(-0.91534373 0 0)
(-0.96855536 0 0)
(-1.0175016 0 0)
(-1.0624588 0 0)
(-1.1035311 0 0)
(-1.1409834 0 0)
(-1.1750038 0 0)
(-1.2057482 0 0)
(-1.233305 0 0)
(-1.2577485 0 0)
(-1.2791552 0 0)
(-1.2975849 0 0)
(-1.3131073 0 0)
(-1.3258066 0 0)
(-1.3357844 0 0)
(-1.3431334 0 0)
(-1.3478904 0 0)
(-1.3500951 0 0)
(-1.3497998 0 0)
(-1.3470951 0 0)
(-1.3421699 0 0)
(-1.3352561 0 0)
(-1.3266665 0 0)
(-1.3168212 0 0)
(-1.3062756 0 0)
(-1.2957957 0 0)
(-1.2862351 0 0)
(-1.2786886 0 0)
(-1.2746162 0 0)
(-0.061512195 0 0)
(-0.17728955 0 0)
(-0.28455314 0 0)
(-0.3841058 0 0)
(-0.47661517 0 0)
(-0.5628443 0 0)
(-0.64342564 0 0)
(-0.71882816 0 0)
(-0.78953816 0 0)
(-0.85591773 0 0)
(-0.9159964 0 0)
(-0.96941666 0 0)
(-1.0185876 0 0)
(-1.0638087 0 0)
(-1.1051803 0 0)
(-1.1429823 0 0)
(-1.1774051 0 0)
(-1.2086151 0 0)
(-1.2367026 0 0)
(-1.2617391 0 0)
(-1.2838074 0 0)
(-1.3029717 0 0)
(-1.3192935 0 0)
(-1.3328384 0 0)
(-1.3436973 0 0)
(-1.3519683 0 0)
(-1.3577083 0 0)
(-1.360954 0 0)
(-1.3617289 0 0)
(-1.3600835 0 0)
(-1.3561082 0 0)
(-1.3499726 0 0)
(-1.3419364 0 0)
(-1.3323047 0 0)
(-1.3214879 0 0)
(-1.3100623 0 0)
(-1.2987889 0 0)
(-1.2885291 0 0)
(-1.2803898 0 0)
(-1.275828 0 0)
(-0.17720155 0 0)
(-0.061510517 0 0)
(-0.28424277 0 0)
(-0.38347554 0 0)
(-0.47559032 0 0)
(-0.56136953 0 0)
(-0.64146774 0 0)
(-0.71637978 0 0)
(-0.7866067 0 0)
(-0.8525458 0 0)
(-0.91443616 0 0)
(-0.97012243 0 0)
(-1.0195155 0 0)
(-1.0649797 0 0)
(-1.1066168 0 0)
(-1.1447312 0 0)
(-1.1795183 0 0)
(-1.2111507 0 0)
(-1.23972 0 0)
(-1.2652992 0 0)
(-1.2879783 0 0)
(-1.3078157 0 0)
(-1.3248766 0 0)
(-1.3392274 0 0)
(-1.3509392 0 0)
(-1.3600915 0 0)
(-1.3667743 0 0)
(-1.3710311 0 0)
(-1.3728565 0 0)
(-1.37229 0 0)
(-1.3693755 0 0)
(-1.364199 0 0)
(-1.3569472 0 0)
(-1.3478562 0 0)
(-1.3372459 0 0)
(-1.3255289 0 0)
(-1.3132755 0 0)
(-1.3012674 0 0)
(-1.2903588 0 0)
(-1.281669 0 0)
(-1.2766557 0 0)
(-0.28410079 0 0)
(-0.17719599 0 0)
(-0.06153652 0 0)
(-0.38306526 0 0)
(-0.47482568 0 0)
(-0.56018496 0 0)
(-0.63982026 0 0)
(-0.71425147 0 0)
(-0.78399348 0 0)
(-0.84946344 0 0)
(-0.91094014 0 0)
(-0.96854506 0 0)
(-1.0202847 0 0)
(-1.0659787 0 0)
(-1.1078569 0 0)
(-1.146255 0 0)
(-1.1813688 0 0)
(-1.2133823 0 0)
(-1.2423895 0 0)
(-1.268462 0 0)
(-1.2916976 0 0)
(-1.3121578 0 0)
(-1.3299095 0 0)
(-1.3450094 0 0)
(-1.3575235 0 0)
(-1.3675266 0 0)
(-1.3751038 0 0)
(-1.380312 0 0)
(-1.3831604 0 0)
(-1.3836687 0 0)
(-1.381854 0 0)
(-1.3777603 0 0)
(-1.3714695 0 0)
(-1.3631546 0 0)
(-1.3530787 0 0)
(-1.3415547 0 0)
(-1.3289866 0 0)
(-1.3159654 0 0)
(-1.3032688 0 0)
(-1.291757 0 0)
(-1.2825623 0 0)
(-1.2771363 0 0)
(-0.38287706 0 0)
(-0.2840888 0 0)
(-0.17727258 0 0)
(-0.061598043 0 0)
(-0.47432689 0 0)
(-0.55930033 0 0)
(-0.63849691 0 0)
(-0.71246052 0 0)
(-0.78172206 0 0)
(-0.84671747 0 0)
(-0.90774221 0 0)
(-0.96494695 0 0)
(-1.0186976 0 0)
(-1.0668085 0 0)
(-1.108922 0 0)
(-1.1475697 0 0)
(-1.1829795 0 0)
(-1.215338 0 0)
(-1.2447415 0 0)
(-1.2712613 0 0)
(-1.2950065 0 0)
(-1.3160335 0 0)
(-1.334414 0 0)
(-1.3502114 0 0)
(-1.3634892 0 0)
(-1.3743036 0 0)
(-1.3827242 0 0)
(-1.3888308 0 0)
(-1.3926641 0 0)
(-1.3942182 0 0)
(-1.3934842 0 0)
(-1.3904984 0 0)
(-1.3852939 0 0)
(-1.3779512 0 0)
(-1.3686558 0 0)
(-1.357652 0 0)
(-1.3452704 0 0)
(-1.3319132 0 0)
(-1.3181705 0 0)
(-1.3048373 0 0)
(-1.2927667 0 0)
(-1.2831046 0 0)
(-1.2772975 0 0)
(-0.47409796 0 0)
(-0.38286083 0 0)
(-0.28420646 0 0)
(-0.17745545 0 0)
(-0.061694964 0 0)
(-0.55872279 0 0)
(-0.63750731 0 0)
(-0.7110213 0 0)
(-0.77980991 0 0)
(-0.84432902 0 0)
(-0.90489543 0 0)
(-0.9616617 0 0)
(-1.0150316 0 0)
(-1.0652233 0 0)
(-1.1098011 0 0)
(-1.1487001 0 0)
(-1.1843747 0 0)
(-1.2170421 0 0)
(-1.2468026 0 0)
(-1.2737274 0 0)
(-1.2979349 0 0)
(-1.3194804 0 0)
(-1.3384428 0 0)
(-1.3548803 0 0)
(-1.3688583 0 0)
(-1.3804359 0 0)
(-1.3896728 0 0)
(-1.3966268 0 0)
(-1.4013709 0 0)
(-1.4039218 0 0)
(-1.4042473 0 0)
(-1.402367 0 0)
(-1.3982889 0 0)
(-1.3920513 0 0)
(-1.383731 0 0)
(-1.3735005 0 0)
(-1.3616306 0 0)
(-1.3484472 0 0)
(-1.3343445 0 0)
(-1.3199337 0 0)
(-1.3060056 0 0)
(-1.2934166 0 0)
(-1.2833257 0 0)
(-1.277172 0 0)
(-0.55845503 0 0)
(-0.47407559 0 0)
(-0.38301547 0 0)
(-0.28449262 0 0)
(-0.17774353 0 0)
(-0.061826094 0 0)
(-0.63686077 0 0)
(-0.70994591 0 0)
(-0.7782731 0 0)
(-0.84231916 0 0)
(-0.90241736 0 0)
(-0.95873016 0 0)
(-1.011678 0 0)
(-1.0615063 0 0)
(-1.1082312 0 0)
(-1.1496336 0 0)
(-1.1855678 0 0)
(-1.2185148 0 0)
(-1.2486005 0 0)
(-1.2758902 0 0)
(-1.3005178 0 0)
(-1.322534 0 0)
(-1.3420221 0 0)
(-1.3590469 0 0)
(-1.3736791 0 0)
(-1.3859708 0 0)
(-1.3959691 0 0)
(-1.4037346 0 0)
(-1.4093344 0 0)
(-1.4128114 0 0)
(-1.4141625 0 0)
(-1.4133595 0 0)
(-1.4103939 0 0)
(-1.4052932 0 0)
(-1.3980807 0 0)
(-1.3888364 0 0)
(-1.3777423 0 0)
(-1.3650554 0 0)
(-1.3511186 0 0)
(-1.3363257 0 0)
(-1.3212885 0 0)
(-1.3068109 0 0)
(-1.2937424 0 0)
(-1.2832565 0 0)
(-1.2767824 0 0)
(-0.63655957 0 0)
(-0.55842729 0 0)
(-0.47426173 0 0)
(-0.38339316 0 0)
(-0.28494447 0 0)
(-0.17813382 0 0)
(-0.061990674 0 0)
(-0.70924201 0 0)
(-0.77712441 0 0)
(-0.84070354 0 0)
(-0.90033345 0 0)
(-0.95618255 0 0)
(-1.0086896 0 0)
(-1.0581036 0 0)
(-1.104478 0 0)
(-1.1480852 0 0)
(-1.1865652 0 0)
(-1.2197808 0 0)
(-1.2501535 0 0)
(-1.2777751 0 0)
(-1.3027838 0 0)
(-1.3252268 0 0)
(-1.345198 0 0)
(-1.3627584 0 0)
(-1.3779837 0 0)
(-1.3909316 0 0)
(-1.4016546 0 0)
(-1.4101914 0 0)
(-1.4165937 0 0)
(-1.4209313 0 0)
(-1.4232331 0 0)
(-1.4234639 0 0)
(-1.4215886 0 0)
(-1.4176239 0 0)
(-1.411565 0 0)
(-1.4034463 0 0)
(-1.3933412 0 0)
(-1.3814227 0 0)
(-1.367973 0 0)
(-1.3533318 0 0)
(-1.3378873 0 0)
(-1.3222715 0 0)
(-1.3072821 0 0)
(-1.2937703 0 0)
(-1.2829216 0 0)
(-1.2761574 0 0)
(-0.70891547 0 0)
(-0.6365264 0 0)
(-0.5586372 0 0)
(-0.47471564 0 0)
(-0.38398941 0 0)
(-0.28555902 0 0)
(-0.17862391 0 0)
(-0.062186824 0 0)
(-0.776372 0 0)
(-0.83949599 0 0)
(-0.89865705 0 0)
(-0.95403592 0 0)
(-1.0060879 0 0)
(-1.0550719 0 0)
(-1.1010488 0 0)
(-1.1443157 0 0)
(-1.1850436 0 0)
(-1.2208314 0 0)
(-1.2514895 0 0)
(-1.279409 0 0)
(-1.3047598 0 0)
(-1.3275904 0 0)
(-1.3479968 0 0)
(-1.3660442 0 0)
(-1.3818179 0 0)
(-1.3953738 0 0)
(-1.4067567 0 0)
(-1.4160154 0 0)
(-1.4231916 0 0)
(-1.4283309 0 0)
(-1.4315009 0 0)
(-1.4327041 0 0)
(-1.4318929 0 0)
(-1.4290348 0 0)
(-1.4241192 0 0)
(-1.4171631 0 0)
(-1.4081869 0 0)
(-1.3972694 0 0)
(-1.3845885 0 0)
(-1.3704179 0 0)
(-1.3551149 0 0)
(-1.3390687 0 0)
(-1.3229115 0 0)
(-1.3074502 0 0)
(-1.2935291 0 0)
(-1.2823478 0 0)
(-1.2753168 0 0)
(-0.77602263 0 0)
(-0.70887759 0 0)
(-0.63675848 0 0)
(-0.5591592 0 0)
(-0.47543701 0 0)
(-0.38480107 0 0)
(-0.28632982 0 0)
(-0.17920849 0 0)
(-0.062413258 0 0)
(-0.83870591 0 0)
(-0.89740361 0 0)
(-0.95231149 0 0)
(-1.0038979 0 0)
(-1.0524306 0 0)
(-1.0979874 0 0)
(-1.1408739 0 0)
(-1.1812842 0 0)
(-1.2193572 0 0)
(-1.2525964 0 0)
(-1.2808078 0 0)
(-1.3064738 0 0)
(-1.3296535 0 0)
(-1.3504567 0 0)
(-1.3689469 0 0)
(-1.3852155 0 0)
(-1.3993229 0 0)
(-1.4113232 0 0)
(-1.4212559 0 0)
(-1.4291505 0 0)
(-1.4350547 0 0)
(-1.4390338 0 0)
(-1.4411252 0 0)
(-1.441307 0 0)
(-1.4395184 0 0)
(-1.4357234 0 0)
(-1.4299336 0 0)
(-1.4221333 0 0)
(-1.4123588 0 0)
(-1.4006829 0 0)
(-1.3872743 0 0)
(-1.3724308 0 0)
(-1.3565094 0 0)
(-1.3398962 0 0)
(-1.3232399 0 0)
(-1.3073405 0 0)
(-1.2930421 0 0)
(-1.2815565 0 0)
(-1.2742857 0 0)
(-0.83833803 0 0)
(-0.77598039 0 0)
(-0.70913032 0 0)
(-0.63733882 0 0)
(-0.55998546 0 0)
(-0.47641622 0 0)
(-0.38581954 0 0)
(-0.28725206 0 0)
(-0.17988394 0 0)
(-0.062667611 0 0)
(-0.8965828 0 0)
(-0.95102131 0 0)
(-1.002136 0 0)
(-1.0502075 0 0)
(-1.0953244 0 0)
(-1.1377989 0 0)
(-1.1778423 0 0)
(-1.2156191 0 0)
(-1.2511734 0 0)
(-1.2819791 0 0)
(-1.3079397 0 0)
(-1.3314383 0 0)
(-1.3526028 0 0)
(-1.3714929 0 0)
(-1.3882151 0 0)
(-1.4028318 0 0)
(-1.4153899 0 0)
(-1.4259398 0 0)
(-1.4345166 0 0)
(-1.4411438 0 0)
(-1.445874 0 0)
(-1.4487771 0 0)
(-1.4498703 0 0)
(-1.4490952 0 0)
(-1.4463976 0 0)
(-1.4417422 0 0)
(-1.435116 0 0)
(-1.4265268 0 0)
(-1.4159955 0 0)
(-1.4036038 0 0)
(-1.3895208 0 0)
(-1.3740414 0 0)
(-1.3575395 0 0)
(-1.3404038 0 0)
(-1.3232821 0 0)
(-1.3069787 0 0)
(-1.2923338 0 0)
(-1.2805713 0 0)
(-1.2730783 0 0)
(-0.89619869 0 0)
(-0.83829448 0 0)
(-0.77624853 0 0)
(-0.70975845 0 0)
(-0.63825978 0 0)
(-0.56111383 0 0)
(-0.4776489 0 0)
(-0.38703816 0 0)
(-0.28831634 0 0)
(-0.1806433 0 0)
(-0.06294671 0 0)
(-0.95017623 0 0)
(-1.000818 0 0)
(-1.0484183 0 0)
(-1.0930798 0 0)
(-1.135126 0 0)
(-1.1747759 0 0)
(-1.2122033 0 0)
(-1.2474746 0 0)
(-1.2806078 0 0)
(-1.3091706 0 0)
(-1.3329733 0 0)
(-1.3544608 0 0)
(-1.3737183 0 0)
(-1.3908499 0 0)
(-1.4059254 0 0)
(-1.4189997 0 0)
(-1.4301212 0 0)
(-1.4393173 0 0)
(-1.4466192 0 0)
(-1.4520691 0 0)
(-1.4557217 0 0)
(-1.4576402 0 0)
(-1.4578044 0 0)
(-1.4561402 0 0)
(-1.4525872 0 0)
(-1.4471104 0 0)
(-1.4397157 0 0)
(-1.4303806 0 0)
(-1.4191449 0 0)
(-1.4060833 0 0)
(-1.3913572 0 0)
(-1.3752848 0 0)
(-1.3582414 0 0)
(-1.3406149 0 0)
(-1.3230644 0 0)
(-1.3063883 0 0)
(-1.2914255 0 0)
(-1.279408 0 0)
(-1.2717166 0 0)
(-0.94978289 0 0)
(-0.89615117 0 0)
(-0.83857378 0 0)
(-0.77691637 0 0)
(-0.71075984 0 0)
(-0.63951729 0 0)
(-0.56252941 0 0)
(-0.47912073 0 0)
(-0.3884449 0 0)
(-0.28951482 0 0)
(-0.18147733 0 0)
(-0.063172742 0 0)
(-0.99995466 0 0)
(-1.0470795 0 0)
(-1.0912761 0 0)
(-1.1328716 0 0)
(-1.1721026 0 0)
(-1.2091511 0 0)
(-1.2440958 0 0)
(-1.2769666 0 0)
(-1.3078586 0 0)
(-1.3342527 0 0)
(-1.3560584 0 0)
(-1.3756466 0 0)
(-1.3931514 0 0)
(-1.4086487 0 0)
(-1.4221891 0 0)
(-1.433828 0 0)
(-1.4436032 0 0)
(-1.4515329 0 0)
(-1.4576478 0 0)
(-1.4620107 0 0)
(-1.464693 0 0)
(-1.4657021 0 0)
(-1.4649906 0 0)
(-1.4624862 0 0)
(-1.4581382 0 0)
(-1.4519051 0 0)
(-1.443772 0 0)
(-1.4337391 0 0)
(-1.4218343 0 0)
(-1.4081418 0 0)
(-1.3928187 0 0)
(-1.3761864 0 0)
(-1.3586356 0 0)
(-1.3405578 0 0)
(-1.3226093 0 0)
(-1.3055897 0 0)
(-1.2903346 0 0)
(-1.2780868 0 0)
(-1.2701348 0 0)
(-0.99955095 0 0)
(-0.9497317 0 0)
(-0.89643646 0 0)
(-0.83927713 0 0)
(-0.77798357 0 0)
(-0.71212291 0 0)
(-0.64109653 0 0)
(-0.56422652 0 0)
(-0.48082306 0 0)
(-0.39002865 0 0)
(-0.29082901 0 0)
(-0.18194056 0 0)
(-0.063127668 0 0)
(-1.0462028 0 0)
(-1.0899264 0 0)
(-1.1310608 0 0)
(-1.1698543 0 0)
(-1.2064957 0 0)
(-1.2410718 0 0)
(-1.2736308 0 0)
(-1.3042834 0 0)
(-1.3330179 0 0)
(-1.3573878 0 0)
(-1.377298 0 0)
(-1.3951454 0 0)
(-1.4110251 0 0)
(-1.4249932 0 0)
(-1.4371102 0 0)
(-1.4474079 0 0)
(-1.4559114 0 0)
(-1.4626568 0 0)
(-1.4676872 0 0)
(-1.4710608 0 0)
(-1.4728315 0 0)
(-1.4729963 0 0)
(-1.4714765 0 0)
(-1.4681965 0 0)
(-1.4630974 0 0)
(-1.4561408 0 0)
(-1.4473287 0 0)
(-1.436634 0 0)
(-1.4241053 0 0)
(-1.4098214 0 0)
(-1.3939306 0 0)
(-1.3767768 0 0)
(-1.3587535 0 0)
(-1.3402542 0 0)
(-1.3219385 0 0)
(-1.3046027 0 0)
(-1.2890809 0 0)
(-1.2764884 0 0)
(-1.2682981 0 0)
(-1.0457913 0 0)
(-0.9994985 0 0)
(-0.95002691 0 0)
(-0.89716358 0 0)
(-0.84039555 0 0)
(-0.77943536 0 0)
(-0.71383918 0 0)
(-0.64298875 0 0)
(-0.56618423 0 0)
(-0.48273817 0 0)
(-0.391767 0 0)
(-0.29149298 0 0)
(-0.18180745 0 0)
(-0.063072872 0 0)
(-1.0890434 0 0)
(-1.1297053 0 0)
(-1.1680439 0 0)
(-1.2042564 0 0)
(-1.2384423 0 0)
(-1.2706523 0 0)
(-1.3010037 0 0)
(-1.3295208 0 0)
(-1.3562301 0 0)
(-1.3786864 0 0)
(-1.3968596 0 0)
(-1.413087 0 0)
(-1.4274455 0 0)
(-1.4399937 0 0)
(-1.4507753 0 0)
(-1.4598084 0 0)
(-1.4671229 0 0)
(-1.4727701 0 0)
(-1.4768061 0 0)
(-1.479286 0 0)
(-1.4802358 0 0)
(-1.4796047 0 0)
(-1.477321 0 0)
(-1.4733066 0 0)
(-1.4675093 0 0)
(-1.4598837 0 0)
(-1.4504168 0 0)
(-1.4391034 0 0)
(-1.4259818 0 0)
(-1.4111414 0 0)
(-1.3947227 0 0)
(-1.3770784 0 0)
(-1.3586157 0 0)
(-1.339726 0 0)
(-1.3210715 0 0)
(-1.3034433 0 0)
(-1.287456 0 0)
(-1.274602 0 0)
(-1.2662499 0 0)
(-1.0886327 0 0)
(-1.0457371 0 0)
(-0.99979452 0 0)
(-0.95077094 0 0)
(-0.8983226 0 0)
(-0.84192422 0 0)
(-0.78126528 0 0)
(-0.71589097 0 0)
(-0.64517425 0 0)
(-0.56839206 0 0)
(-0.4848411 0 0)
(-0.39260774 0 0)
(-0.29127131 0 0)
(-0.18164609 0 0)
(-0.063009551 0 0)
(-1.1288187 0 0)
(-1.1666928 0 0)
(-1.2024576 0 0)
(-1.2362215 0 0)
(-1.2680544 0 0)
(-1.298078 0 0)
(-1.3263199 0 0)
(-1.3528255 0 0)
(-1.3776002 0 0)
(-1.3982963 0 0)
(-1.4148615 0 0)
(-1.429575 0 0)
(-1.4425198 0 0)
(-1.4537389 0 0)
(-1.463252 0 0)
(-1.4710964 0 0)
(-1.4773207 0 0)
(-1.481968 0 0)
(-1.4850923 0 0)
(-1.4867463 0 0)
(-1.4869215 0 0)
(-1.4855586 0 0)
(-1.4825673 0 0)
(-1.4778723 0 0)
(-1.4714113 0 0)
(-1.4631453 0 0)
(-1.4530753 0 0)
(-1.4411726 0 0)
(-1.4274983 0 0)
(-1.4121356 0 0)
(-1.3952175 0 0)
(-1.3771168 0 0)
(-1.3582448 0 0)
(-1.3389942 0 0)
(-1.3200253 0 0)
(-1.3017944 0 0)
(-1.2854703 0 0)
(-1.27251 0 0)
(-1.2639932 0 0)
(-1.1284071 0 0)
(-1.0885786 0 0)
(-1.0460341 0 0)
(-1.0005537 0 0)
(-0.95196456 0 0)
(-0.89990917 0 0)
(-0.84384447 0 0)
(-0.78345128 0 0)
(-0.71826334 0 0)
(-0.64763647 0 0)
(-0.57081226 0 0)
(-0.48583087 0 0)
(-0.39231072 0 0)
(-0.29100636 0 0)
(-0.18146064 0 0)
(-0.062935984 0 0)
(-1.1658084 0 0)
(-1.2011119 0 0)
(-1.2344389 0 0)
(-1.265866 0 0)
(-1.2955219 0 0)
(-1.3234534 0 0)
(-1.3497107 0 0)
(-1.3743052 0 0)
(-1.3972984 0 0)
(-1.4163491 0 0)
(-1.4314044 0 0)
(-1.4447139 0 0)
(-1.4563344 0 0)
(-1.4662887 0 0)
(-1.4746091 0 0)
(-1.4813533 0 0)
(-1.4865744 0 0)
(-1.4903107 0 0)
(-1.4926037 0 0)
(-1.4935002 0 0)
(-1.4929747 0 0)
(-1.4909219 0 0)
(-1.4872645 0 0)
(-1.4819221 0 0)
(-1.4748434 0 0)
(-1.4659825 0 0)
(-1.4553295 0 0)
(-1.4428752 0 0)
(-1.4286751 0 0)
(-1.4128221 0 0)
(-1.3954387 0 0)
(-1.3769123 0 0)
(-1.3576619 0 0)
(-1.3380741 0 0)
(-1.318352 0 0)
(-1.2996795 0 0)
(-1.2832909 0 0)
(-1.2702127 0 0)
(-1.2615225 0 0)
(-1.1653996 0 0)
(-1.1283521 0 0)
(-1.0888829 0 0)
(-1.0468037 0 0)
(-1.0017653 0 0)
(-0.95359039 0 0)
(-0.90190374 0 0)
(-0.84614612 0 0)
(-0.78598047 0 0)
(-0.72093406 0 0)
(-0.65033793 0 0)
(-0.57193297 0 0)
(-0.48546115 0 0)
(-0.39195337 0 0)
(-0.29070186 0 0)
(-0.18124642 0 0)
(-0.062851773 0 0)
(-1.2002337 0 0)
(-1.233103 0 0)
(-1.2641038 0 0)
(-1.2933707 0 0)
(-1.3209551 0 0)
(-1.346915 0 0)
(-1.3712762 0 0)
(-1.3941079 0 0)
(-1.4154415 0 0)
(-1.4329478 0 0)
(-1.4465987 0 0)
(-1.458589 0 0)
(-1.4689464 0 0)
(-1.4777055 0 0)
(-1.4849315 0 0)
(-1.4906741 0 0)
(-1.49497 0 0)
(-1.4978619 0 0)
(-1.4994056 0 0)
(-1.4996133 0 0)
(-1.4984153 0 0)
(-1.4957252 0 0)
(-1.4914475 0 0)
(-1.4855046 0 0)
(-1.4778354 0 0)
(-1.468404 0 0)
(-1.4572128 0 0)
(-1.4442327 0 0)
(-1.4295412 0 0)
(-1.4132265 0 0)
(-1.3954076 0 0)
(-1.3764832 0 0)
(-1.3568811 0 0)
(-1.3363829 0 0)
(-1.3160935 0 0)
(-1.2973914 0 0)
(-1.2809184 0 0)
(-1.2677061 0 0)
(-1.258841 0 0)
(-1.1998275 0 0)
(-1.1653475 0 0)
(-1.1286574 0 0)
(-1.0896581 0 0)
(-1.048031 0 0)
(-1.0034248 0 0)
(-0.95564207 0 0)
(-0.9042951 0 0)
(-0.84880311 0 0)
(-0.78882621 0 0)
(-0.72386483 0 0)
(-0.65157231 0 0)
(-0.5714978 0 0)
(-0.48501773 0 0)
(-0.39154266 0 0)
(-0.29035391 0 0)
(-0.18100193 0 0)
(-0.062754691 0 0)
(-1.232232 0 0)
(-1.2627879 0 0)
(-1.2916362 0 0)
(-1.3188456 0 0)
(-1.3444803 0 0)
(-1.3685668 0 0)
(-1.3911812 0 0)
(-1.412367 0 0)
(-1.4321307 0 0)
(-1.4481945 0 0)
(-1.4605321 0 0)
(-1.4712568 0 0)
(-1.4804154 0 0)
(-1.4880726 0 0)
(-1.4942949 0 0)
(-1.4991193 0 0)
(-1.5025703 0 0)
(-1.5046957 0 0)
(-1.5055525 0 0)
(-1.505126 0 0)
(-1.5033199 0 0)
(-1.5000229 0 0)
(-1.4951596 0 0)
(-1.4886417 0 0)
(-1.4804221 0 0)
(-1.470458 0 0)
(-1.4587456 0 0)
(-1.4452734 0 0)
(-1.4301146 0 0)
(-1.4133671 0 0)
(-1.3951405 0 0)
(-1.3758517 0 0)
(-1.3551823 0 0)
(-1.3339759 0 0)
(-1.3136827 0 0)
(-1.2949226 0 0)
(-1.2783476 0 0)
(-1.2649916 0 0)
(-1.2559431 0 0)
(-1.2318278 0 0)
(-1.1997752 0 0)
(-1.1656512 0 0)
(-1.1294347 0 0)
(-1.0909017 0 0)
(-1.0497153 0 0)
(-1.0055114 0 0)
(-0.95809371 0 0)
(-0.90705562 0 0)
(-0.85179668 0 0)
(-0.79195063 0 0)
(-0.72518476 0 0)
(-0.65108223 0 0)
(-0.57097885 0 0)
(-0.48450896 0 0)
(-0.39107148 0 0)
(-0.28995769 0 0)
(-0.18072244 0 0)
(-0.062644358 0 0)
(-1.2619268 0 0)
(-1.2903416 0 0)
(-1.3171498 0 0)
(-1.3424206 0 0)
(-1.3661969 0 0)
(-1.3885569 0 0)
(-1.4095503 0 0)
(-1.429191 0 0)