/*--------------------------------*- C++ -*----------------------------------*\
| =========                 |                                                 |
| \\      /  F ield         | OpenFOAM: The Open Source CFD Toolbox           |
|  \\    /   O peration     | Version:  v2012                                 |
|   \\  /    A nd           | Website:  www.openfoam.com                      |
|    \\/     M anipulation  |                                                 |
\*---------------------------------------------------------------------------*/
FoamFile
{
    version     2.0;
    format      ascii;
    class       surfaceScalarField;
    location    "53.7971014022953611";
    object      meshPhi;
}
// * * * * * * * * * * * * * * * * * * * * * * * * * * * * * * * * * * * * * //

dimensions      [0 3 -1 0 0 0 0];
oriented        oriented;


internalField   nonuniform List<scalar> 
18180
(
0
-0.025955544
0
-0.024107311
-5.2791202e-14
-0.049629434
0
-0.022586841
0
-0.046206143
-5.0736786e-14
-0.072082276
0
-0.021336037
-5.2837387e-14
-0.043047964
0
-0.066981023
0
-0.093444733
-2.7518058e-14
-0.020288114
2.6434947e-14
-0.040444817
-5.0775499e-14
-0.062392201
0
-0.087084277
0
-0.11374069
2.7539827e-14
-0.019358192
0
-0.038263946
0
-0.058309176
4.8813653e-14
-0.081035625
0
-0.10612046
-4.5039339e-14
-0.1328455
0
-0.018459714
-2.6481691e-14
-0.036288529
-2.5407716e-14
-0.054735447
0
-0.075522044
4.6911097e-14
-0.098818365
0
-0.1239242
-4.3289168e-14
-0.15055809
0
-0.01757436
1.0613823e-17
-0.034437505
0
-0.051578918
2.4432486e-14
-0.070594575
-2.3457674e-14
-0.091935241
0
-0.11535308
0
-0.14051291
0
-0.16709846
0
-0.016698882
2.6507497e-14
-0.032645004
2.5458892e-14
-0.048649392
0
-0.066167407
-2.3470001e-14
-0.085673396
2.2544125e-14
-0.10721895
0
-0.13079106
0
-0.15594997
0
-0.18230867
0
-0.015838042
0
-0.03090115
0
-0.045869035
-2.4452274e-14
-0.062137409
0
-0.080096074
2.2563529e-14
-0.09980803
-4.3342873e-14
-0.12160278
0
-0.1453183
0
-0.17029675
0
-0.19636823
0
-0.014996642
0
-0.029207261
0
-0.043198684
0
-0.058381632
-2.3496215e-14
-0.075078155
2.2567378e-14
-0.093248817
-4.3364028e-14
-0.11328701
-2.0834118e-14
-0.13532418
-4.0022457e-14
-0.1588757
0
-0.18349889
0
-0.20920925
2.7667731e-14
-0.014178255
5.3122689e-14
-0.027571238
9.2025885e-18
-0.040628717
0
-0.054823936
2.3517817e-14
-0.070451989
8.1236017e-18
-0.087363622
0
-0.10584857
0
-0.1262061
2.0019988e-14
-0.14819922
1.2797641e-17
-0.17140616
0
-0.19564434
0
-0.22101344
1.3834622e-14
-0.013385422
0
-0.025997824
0
-0.038159944
0
-0.051433603
0
-0.066111179
2.2599942e-14
-0.08195254
-2.1700797e-14
-0.099166618
-7.5888868e-18
-0.11804666
2.0036752e-14
-0.13845387
0
-0.16012883
0
-0.18293652
0
-0.2067694
0
-0.23174918
6.6973632e-18
-0.012617647
0
-0.024489671
0
-0.035798468
0
-0.048199606
-2.3525427e-14
-0.062002492
2.2603634e-14
-0.076892786
4.3432394e-14
-0.09304553
-2.0858205e-14
-0.11065415
0
-0.1295988
6.5807808e-18
-0.14976662
-3.7013323e-14
-0.17110897
-3.5566072e-14
-0.19354239
0
-0.21695782
0
-0.24155068
1.3854069e-14
-0.011875284
2.6599793e-14
-0.023047429
0
-0.033549165
0
-0.045121946
0
-0.058108166
2.2623136e-14
-0.072109972
2.1723458e-14
-0.087307668
0
-0.10383325
-2.0050276e-14
-0.1215087
0
-0.14028521
6.0955899e-18
-0.16022225
1.7796782e-14
-0.18126863
0
-0.2032879
0
-0.22624641
0
-0.25043612
1.3859522e-14
-0.011159156
5.5532141e-18
-0.021671509
-1.2771512e-14
-0.031415903
0
-0.042204774
0
-0.054421688
0
-0.067579931
-2.1734195e-14
-0.081884025
0
-0.097467467
-2.006802e-14
-0.11406277
0
-0.13157222
-1.8528611e-14
-0.15018804
5.6953116e-18
-0.16995521
1.7107575e-14
-0.19066196
-3.2887223e-14
-0.21223587
0
-0.23472636
0
-0.25852911
0
-0.010470269
0
-0.02036084
1.2780645e-14
-0.029400568
1.2272773e-14
-0.039450301
-1.1787132e-14
-0.050941939
0
-0.063293016
2.1744359e-14
-0.076739491
0
-0.091462392
0
-0.10712842
0
-0.12352596
-1.8532309e-14
-0.14088418
0
-0.1594568
-3.4238311e-14
-0.17902265
-1.6451478e-14
-0.19935084
0
-0.22042925
0
-0.24243495
-2.9239219e-14
-0.26583739
-1.3868736e-14
-0.0098097495
5.6030677e-18
-0.019113311
1.2784935e-14
-0.027504321
-1.2272915e-14
-0.036859997
1.1787264e-14
-0.047667103
0
-0.059245532
0
-0.071861958
-2.0899838e-14
-0.085770769
0
-0.10060136
0
-0.1160491
0
-0.13226542
1.7825229e-14
-0.14966811
1.7125839e-14
-0.16821673
5.0205787e-18
-0.18750717
1.5821768e-14
-0.20736342
0
-0.22793297
0
-0.24943513
2.81317e-14
-0.27243498
0
-0.009178511
0
-0.017927223
0
-0.0257259
1.2276883e-14
-0.034431904
4.3875611e-18
-0.044591911
1.13308e-14
-0.055433693
1.0881358e-14
-0.067245128
0
-0.080372218
0
-0.094424965
0
-0.10904386
0
-0.12428859
0
-0.14057368
-1.7135308e-14
-0.15808939
0
-0.17651031
-1.5830328e-14
-0.19540811
0
-0.21476041
0
-0.23476872
0
-0.25575717
5.289805e-18
-0.27836299
-1.3869197e-14
-0.0085777995
-1.332437e-14
-0.016799692
0
-0.024061245
0
-0.03216215
1.179944e-14
-0.041708305
4.1021994e-18
-0.051849366
-1.088543e-14
-0.062884643
0
-0.075257298
0
-0.088565131
1.931446e-14
-0.10242596
-1.8561229e-14
-0.11683435
0
-0.13210113
0
-0.14859294
1.6484144e-14
-0.16617198
0
-0.18431943
4.3907344e-18
-0.20276224
0
-0.22155065
-2.8145552e-14
-0.24099393
-2.7064548e-14
-0.26146358
2.6034781e-14
-0.28369526
0
-0.0080082488
1.3327439e-14
-0.015729885
-1.2791211e-14
-0.022504825
-1.2287808e-14
-0.030044027
0
-0.039006459
0
-0.048484004
3.9039729e-18
-0.058775684
0
-0.070419946
0
-0.08300859
0
-0.096144225
0
-0.10980139
0
-0.12419649
0
-0.13973724
0
-0.1564678
5.2739744e-18
-0.1739115
0
-0.19165708
4.0576627e-18
-0.20955063
0
-0.22776582
0
-0.24661669
0
-0.26659027
-2.5043979e-14
-0.28845737
0
-0.0074709049
-1.3330167e-14
-0.014718533
0
-0.021050468
1.2286564e-14
-0.02807031
-1.180581e-14
-0.036476938
0
-0.045327388
-1.0892553e-14
-0.054911558
4.0124396e-18
-0.065854905
0
-0.077747312
0
-0.090175768
0
-0.10313357
0
-0.11677514
0
-0.13144638
0
-0.14734238
0
-0.16410057
1.5248512e-14
-0.18121268
-1.4658298e-14
-0.19845013
1.4091724e-14
-0.21579496
0
-0.23341109
0
-0.25170602
0
-0.27118263
0
-0.29269092
-6.941936e-15
-0.0069658311
-1.332688e-14
-0.013765835
-1.2796527e-14
-0.019692894
0
-0.026232455
0
-0.034107891
-4.0694357e-18
-0.042369556
1.089946e-14
-0.051284066
-1.0473539e-14
-0.061556026
-1.0061161e-14
-0.072775239
0
-0.084510994
-3.288525e-18
-0.096789684
0
-0.10973973
0
-0.12362199
0
-0.13870242
0
-0.15484133
0
-0.17140922
0
-0.18801945
0
-0.20472159
0
-0.22149662
0
-0.23854435
-2.5062353e-14
-0.25627345
0
-0.27527533
-2.3186851e-14
-0.2964427
-6.9395786e-15
-0.0064926497
-2.8602818e-18
-0.012870064
0
-0.018425716
0
-0.024520438
0
-0.031888608
-1.134279e-14
-0.039598398
1.0898394e-14
-0.047884874
-1.0472476e-14
-0.057516704
-2.013669e-14
-0.068087017
3.6125299e-18
-0.079144278
0
-0.090756088
8.9361836e-15
-0.10304856
0
-0.11621744
0
-0.13055346
0
-0.14607495
0
-0.1621565
1.4671701e-14
-0.17821959
1.4109649e-14
-0.19429301
1.3561286e-14
-0.21046773
3.1348034e-18
-0.22670348
1.2537861e-14
-0.24318838
0
-0.26038397
0
-0.27891035
2.2315508e-14
-0.29975589
-6.9437955e-15
-0.0060503675
2.8680648e-18
-0.012029283
0
-0.017242499
0
-0.022924503
0
-0.029808349
-1.134509e-14
-0.037002895
-1.0900874e-14
-0.044705224
-1.0479196e-14
-0.053728383
0
-0.063674376
9.6760157e-15
-0.07407131
9.3036938e-15
-0.085027099
0
-0.096679092
-3.0561704e-18
-0.10918721
0
-0.1228416
0
-0.1376935
1.5275343e-14
-0.15329075
0
-0.16895583
1.4114166e-14
-0.18446198
1.357389e-14
-0.20004618
0
-0.21572894
-1.2545417e-14
-0.23143171
1.2066281e-14
-0.24738839
0
-0.2640392
0
-0.28212425
-2.1472466e-14
-0.30266214
-6.9445426e-15
-0.0056376413
0
-0.011241818
0
-0.016136967
-2.0247859e-18
-0.021435172
0
-0.027857756
0
-0.03457253
0
-0.041734373
0
-0.05018028
0
-0.059528671
0
-0.069285922
-9.3034522e-15
-0.079599341
3.1823007e-18
-0.090624679
0
-0.10249097
0
-0.11549432
0
-0.12969418
0
-0.14475762
1.4694168e-14
-0.16002695
0
-0.17511344
4.1526168e-18
-0.19017375
0
-0.20532151
0
-0.22051725
2.5946061e-18
-0.23572915
-2.3219236e-14
-0.25116109
0
-0.26730669
0
-0.28494865
-2.0665042e-14
-0.30518631
3.317408e-18
-0.0052529026
6.6669629e-15
-0.010505235
0
-0.015103672
0
-0.020044467
5.9060428e-15
-0.026029491
0
-0.032297592
0
-0.038962048
0
-0.046861455
0
-0.055639035
-9.6851734e-15
-0.064781353
0
-0.074470501
0
-0.084883138
0
-0.096116652
-8.2682362e-15
-0.10849389
0
-0.1220755
-1.5285183e-14
-0.1365457
0
-0.15133739
0
-0.16606047
0
-0.18073275
-1.306816e-14
-0.19541486
-1.256186e-14
-0.2101385
2.4161209e-14
-0.22488349
2.3537778e-18
-0.23961981
-1.1172965e-14
-0.25455732
-2.1489111e-14
-0.27019201
0
-0.28741725
-1.988907e-14
-0.30736999
0
-0.0048944953
-6.6646912e-15
-0.0098166469
0
-0.014137651
0
-0.018745334
5.9067698e-15
-0.024317205
5.6732497e-15
-0.030169789
-1.091046e-14
-0.036377634
0
-0.043761069
0
-0.051994999
9.6875486e-15
-0.060549909
-9.3088288e-15
-0.06963611
0
-0.079452597
0
-0.090061862
8.274764e-15
-0.10181825
0
-0.11479664
7.6462784e-15
-0.12866609
0
-0.14291682
0
-0.15721603
4.5060986e-18
-0.17153362
0
-0.18588876
-1.2570258e-14
-0.20023618
0
-0.21454617
-1.1626046e-14
-0.22885588
2.1394937e-18
-0.24314497
-1.0752344e-14
-0.25760072
0
-0.27275132
0
-0.28955708
0
-0.30923798
0
-0.0045604714
0
-0.009173157
2.1680194e-18
-0.013233526
-2.0044282e-18
-0.017531491
0
-0.022714906
5.6779343e-15
-0.028180719
5.4541494e-15
-0.033969199
0
-0.040867284
0
-0.048584085
0
-0.056582246
0
-0.065090025
0
-0.074330519
-8.6062277e-15
-0.084325772
0
-0.095464761
-7.9523897e-15
-0.10784911
-3.0602362e-14
-0.12113113
0
-0.13481246
0
-0.14861502
0
-0.16254692
1.3085038e-14
-0.17660544
0
-0.19068016
0
-0.20465396
1.1634243e-14
-0.21857219
0
-0.23246763
1.0759395e-14
-0.24632834
0
-0.26032504
-1.9904869e-14
-0.27498262
-1.914942e-14
-0.2914004
1.8427452e-14
-0.3108246
-6.9461532e-15
-0.0042482954
-6.6714718e-15
-0.0085712093
0
-0.012387873
1.9988867e-18
-0.016397348
-2.1719559e-18
-0.021216615
0
-0.026322657
-5.4548135e-15
-0.031724884
-2.0311413e-18
-0.038167937
0
-0.045394112
0
-0.052866575
0
-0.060823863
0
-0.069511472
-8.6119143e-15
-0.078907179
0
-0.089433975
0
-0.10122668
3.4886643e-18
-0.1139345
-7.3591201e-15
-0.12705031
7.0767045e-15
-0.14032173
0
-0.15382637
0
-0.16754145
-1.2586466e-14
-0.18132495
-1.2107125e-14
-0.19507833
-1.1642501e-14
-0.20872092
1.1193421e-14
-0.22224688
1.0764828e-14
-0.23574388
0
-0.2492015
9.9581522e-15
-0.26274593
0
-0.2769419
0
-0.29297725
-1.7736562e-14
-0.31214702
-1.9402563e-05
-0.0046423661
0
-0.0080049682
-6.4063825e-15
-0.011597059
-6.1507118e-15
-0.015337942
2.1560917e-18
-0.019817807
-1.9941621e-18
-0.024587909
5.4553902e-15
-0.029634232
0
-0.035651163
-2.054945e-18
-0.042412012
0
-0.049390542
0
-0.056827782
0
-0.064987822
0
-0.073802032
0
-0.083724709
0
-0.094929231
0
-0.10706809
7.3655764e-15
-0.11962751
0
-0.13235602
0
-0.14536802
0
-0.15872347
0
-0.17221248
0
-0.18569979
-2.3298021e-14
-0.19916331
0
-0.21245128
-1.0772439e-14
-0.22559699
0
-0.23871313
1.5817501e-18
-0.25178707
-9.5860723e-15
-0.26489801
0
-0.27863854
1.7742515e-14
-0.29431706
1.7074629e-14
-0.31324488
-3.2530963e-05
-0.0046156958
-5.4093125e-05
-0.008698979
0
-0.010852658
0
-0.014348809
-1.1819824e-14
-0.018512586
1.993795e-18
-0.022969493
0
-0.027687074
5.2436405e-15
-0.033305243
0
-0.039625063
0
-0.046141402
-9.3200959e-15
-0.053089741
0
-0.06074898
3.1771682e-18
-0.069003745
0
-0.078334504
7.96404e-15
-0.088954695
0
-0.1005274
0
-0.11253587
7.0861417e-15
-0.12471717
-6.8119664e-15
-0.1372054
0
-0.1501528
0
-0.16335352
0
-0.17655389
-1.1655034e-14
-0.18976349
0
-0.20293382
-1.0782628e-14
-0.21588761
0
-0.22864759
-9.9734084e-15
-0.24140191
0
-0.2541064
0
-0.26680456
0
-0.28011774
0
-0.29545103
0
-0.31413326
-4.0125925e-05
-0.0045896414
-9.0847907e-05
-0.008694353
-8.0517709e-05
-0.011725289
0
-0.01342099
0
-0.017295232
5.6778597e-15
-0.021460644
1.8395534e-18
-0.025873389
-5.2461732e-15
-0.031118889
0
-0.037022517
4.8480872e-15
-0.043106438
4.659118e-15
-0.04959764
0
-0.056782629
0
-0.06450174
-8.284123e-15
-0.073257563
0
-0.083300496
7.661115e-15
-0.094310329
0
-0.10576826
0
-0.11740474
2.6570236e-18
-0.12936499
0
-0.14182561
0
-0.15467587
0
-0.16764536
0
-0.18058785
1.1219579e-14
-0.19354666
0
-0.2064362
-2.0755184e-14
-0.21902686
9.9808217e-15
-0.23142461
0
-0.24382223
0
-0.25618412
-8.8817927e-15
-0.26848983
1.4382755e-18
-0.28139538
0
-0.29640612
6.690742e-19
-0.31484458
-4.293659e-05
-0.0045651983
-0.00011225278
-0.0086876266
-0.00013548864
-0.011771654
-0.00010001851
-0.014383559
-5.9091599e-15
-0.016156009
0
-0.020054343
0
-0.024184237
0
-0.029082799
-5.0436412e-15
-0.034593747
4.8468828e-15
-0.040273108
0
-0.046338386
4.4803035e-15
-0.053074112
0
-0.060283872
0
-0.068485545
3.7427225e-18
-0.077961808
-7.6633597e-15
-0.088412648
7.3704534e-15
-0.099322946
0
-0.11041039
0
-0.12183557
-6.5573695e-15
-0.13378063
-6.3067825e-15
-0.14619242
-6.0680582e-15
-0.15889104
0
-0.17165614
0
-0.18436838
2.9526794e-18
-0.19707246
0
-0.20965913
0
-0.22191452
-9.6067655e-15
-0.23393683
9.2386945e-15
-0.24600117
8.8879301e-15
-0.25803827
0
-0.26997749
0
-0.28251664
-1.5828397e-14
-0.29721235
0
-0.31538889
-4.1696321e-05
-0.0045426109
-0.00012031832
-0.0086813226
-0.00016774416
-0.011810516
-0.00016841508
-0.014469807
-0.00011733939
-0.017164058
0
-0.018736861
0
-0.022610909
0
-0.027185954
2.0527073e-18
-0.032329255
-1.7944422e-18
-0.037629003
0
-0.043297133
4.4826428e-15
-0.049608308
-1.5731893e-18
-0.05633471
3.3641095e-18
-0.064006034
0
-0.072931549
3.8839091e-18
-0.082830069
0
-0.093197543
7.0913363e-15
-0.10373281
2.7440709e-18
-0.11462095
0
-0.12605056
0
-0.13797257
6.071071e-15
-0.15027836
0
-0.16284791
0
-0.17544645
0
-0.18791908
1.0392449e-14
-0.20035623
0
-0.21265126
0
-0.22454611
0
-0.23621033
0
-0.24795058
1.0232782e-18
-0.25969237
1.6460439e-14
-0.27129434
-1.5836208e-14
-0.28349804
0
-0.29788862
0
-0.31579292
-3.7141765e-05
-0.0045221529
-0.00011703467
-0.0086754298
-0.00018013055
-0.011845763
-0.00020862026
-0.014543196
-0.00019742083
-0.017287229
-0.00013339574
-0.019769722
0
-0.021139626
0
-0.025417574
0
-0.0302175
1.7898902e-18
-0.035161956
-1.675011e-18
-0.040459166
0
-0.04636976
8.6209598e-15
-0.052639034
-1.6759843e-18
-0.059805622
0
-0.068199843
0
-0.077556118
0
-0.087388937
0
-0.097374067
6.8230725e-15
-0.10772083
-6.562815e-15
-0.11863894
0
-0.13006346
6.0739363e-15
-0.1418907
-5.840317e-15
-0.15412862
0
-0.16663208
0
-0.17903897
0
-0.19125544
1.0002801e-14
-0.20341794
0
-0.21540875
0
-0.22695765
8.9013474e-15
-0.23825371
-8.5621987e-15
-0.24969716
-8.2354859e-15
-0.26115764
-7.0058681e-19
-0.27246421
0
-0.2843679
0
-0.29845049
0
-0.31606224
-2.9989036e-05
-0.004504044
-0.00010441463
-0.0086699437
-0.0001755424
-0.011877196
-0.00022414675
-0.014608916
-0.00024439186
-0.017393727
-0.00022438257
-0.019968454
-0.00014710291
-0.022166067
0
-0.023763557
0
-0.028247715
0
-0.032861227
1.6773205e-18
-0.037811306
-1.7092534e-18
-0.043343453
4.3118375e-15
-0.049180968
1.6675112e-18
-0.055870631
-3.988522e-15
-0.0637552
0
-0.072583851
0
-0.081893218
-7.095643e-15
-0.091332867
6.8281008e-15
-0.10113871
0
-0.11154822
0
-0.12248209
0
-0.13381446
-5.8429726e-15
-0.14559921
5.6227177e-15
-0.1578739
-1.8958387e-18
-0.17029585
0
-0.182468
0
-0.19439238
0
-0.20627532
0
-0.21795728
8.9082506e-15
-0.22913935
0
-0.24009328
0
-0.25124206
8.0475144e-19
-0.26245923
7.6289433e-15
-0.27350158
0
-0.28513299
-1.4125366e-14
-0.29891257
0
-0.31621411
-2.0951219e-05
-0.0044884383
-8.4424447e-05
-0.008664538
-0.00015686398
-0.011904293
-0.00021854703
-0.014666772
-0.00026242905
-0.017488729
-0.00027771914
-0.020142679
-0.00024762493
-0.022458122
-0.00015978045
-0.024746806
0
-0.026402546
0
-0.030715977
0
-0.035341967
1.7122354e-18
-0.04051531
-1.5321123e-18
-0.045946552
0
-0.052186925
0
-0.059585182
-2.0172006e-18
-0.067903134
0
-0.076703886
0
-0.085607827
0
-0.094875896
0
-0.10478018
0
-0.1152333
-6.0767958e-15
-0.12608365
-5.845486e-15
-0.13738467
-5.6232139e-15
-0.14928196
-5.4096281e-15
-0.16159147
5.2041648e-15
-0.17384416
0
-0.18572836
0
-0.19734928
-9.2657393e-15
-0.20893083
0
-0.22029418
0
-0.23112874
0
-0.24172875
0
-0.2526139
7.6337435e-15
-0.2636071
7.3437426e-15
-0.27442334
0
-0.28581711
0
-0.29928029
0
-0.31625171
-1.0724205e-05
-0.0044754401
-5.9052518e-05
-0.0086589459
-0.00012702576
-0.011926457
-0.00019539118
-0.014716167
-0.00025574153
-0.017572149
-0.00029818848
-0.020298918
-0.00030668874
-0.022718426
-0.00026906946
-0.025126543
-0.00017202734
-0.02730167
0
-0.028702773
0
-0.033039118
0
-0.037872962
-4.3112752e-15
-0.042920158
4.146306e-15
-0.048740964
-3.9897391e-15
-0.055677703
3.8378213e-15
-0.063502739
-3.6917584e-15
-0.071812902
0
-0.080193978
0
-0.088931671
0
-0.098336868
6.3221368e-15
-0.1083149
-6.0790654e-15
-0.11869797
0
-0.12952773
-2.2020685e-18
-0.14096688
-5.4098606e-15
-0.1530017
0
-0.16525922
-5.0109693e-15
-0.17726401
0
-0.1888332
0
-0.20012387
0
-0.21139976
0
-0.22244239
0
-0.23291714
-7.9404399e-15
-0.24318556
0
-0.2538177
7.3495314e-15
-0.26462307
0
-0.27524053
-1.3607118e-14
-0.28642083
0
-0.29956407
0
-0.31619613
-0.0044651189
0
-3.0257728e-05
-0.0086531994
-8.8966313e-05
-0.011943461
-0.00015830342
-0.014756687
-0.00022857065
-0.017643704
-0.00029058443
-0.0204368
-0.00032951569
-0.022952014
-0.00033337245
-0.025464832
-0.00028959798
-0.027764713
-0.000182075
-0.029479913
0
-0.030877545
0
-0.035405175
0
-0.040091985
0
-0.045517024
-1.9438098e-18
-0.052020016
0
-0.059371473
0
-0.067209312
-1.5845632e-18
-0.075085096
0
-0.08330318
6.5739977e-15
-0.092216104
0
-0.10172662
0
-0.11164721
-2.3325972e-18
-0.1220187
0
-0.13300779
0
-0.14467202
-5.2112251e-15
-0.15675396
5.0136541e-15
-0.16882719
0
-0.18054953
0
-0.1917674
-8.9255476e-15
-0.20272133
0
-0.21367745
0
-0.22440518
0
-0.23453288
0
-0.24446767
-6.8675335e-19
-0.25487971
5.4617368e-19
-0.26551091
0
-0.27596815
0
-0.28695708
0
-0.29976017
-1.2137794e-14
-0.31604967
-0.0086471685
0
-0.0044573823
1.0687081e-05
-4.5639369e-05
-0.011955397
-0.00011092919
-0.014788578
-0.00018514058
-0.017703116
-0.00025972489
-0.02055622
-0.00032132281
-0.0231583
-0.00035828403
-0.025766352
-0.00035866877
-0.028173734
-0.00030630196
-0.030026277
-0.00018973496
-0.031515008
0
-0.033082721
0
-0.037453924
-4.1471315e-15
-0.042505194
-3.9887094e-15
-0.048600564
0
-0.055498677
0
-0.062882162
0
-0.070271743
3.4161422e-15
-0.077984466
0
-0.086415229
0
-0.095466137
6.0855823e-15
-0.10492712
0
-0.11484824
5.6298516e-15
-0.12540789
5.4187364e-15
-0.13665927
0
-0.14843413
0
-0.16042278
4.8260526e-15
-0.17228033
-4.6430796e-15
-0.18367987
0
-0.19453861
0
-0.20513805
1.8112426e-18
-0.21578525
0
-0.22619117
0
-0.23597004
7.361033e-15
-0.24559986
0
-0.25580229
-6.8125971e-15
-0.26629361
1.3110257e-14
-0.27661043
1.2616087e-14
-0.28741056
-1.2141988e-14
-0.29987837
0
-0.31583128
-0.011961714
0
-0.0086411086
3.0194031e-05
-0.0044521664
2.0805952e-05
-5.6936397e-05
-0.014811752
-0.0001297275
-0.01775019
-0.00021040476
-0.02065627
-0.00028735033
-0.023336269
-0.00034944177
-0.026030163
-0.00038532717
-0.028535188
-0.00037910272
-0.03050096
-0.00031902949
-0.032156944
-0.00019629502
-0.033549637
0
-0.034974193
0
-0.039695482
0
-0.045403765
-3.8372801e-15
-0.051871884
0
-0.058819733
0
-0.065743928
3.4181894e-15
-0.072968895
-3.2899962e-15
-0.080928344
0
-0.089529469
0
-0.098536452
2.4640484e-18
-0.10800349
2.4728615e-18
-0.11813433
0
-0.12897287
0
-0.1403741
5.0158783e-15
-0.15213552
4.82838e-15
-0.16399007
0
-0.17559788
-4.4696595e-15
-0.18666433
-8.6004284e-15
-0.19713978
0
-0.20738736
1.6684539e-18
-0.21771372
0
-0.22781057
0
-0.23725778
0
-0.24658662
0
-0.25661213
-6.5595776e-15
-0.266977
6.3119917e-15
-0.27717179
1.2148169e-14
-0.28779411
0
-0.29992226
1.1255136e-14
-0.31554337
-0.014825313
0
-0.01196303
4.5618281e-05
-0.0086349175
5.8802767e-05
-0.0044495734
2.9677826e-05
-6.6585544e-05
-0.017784654
-0.00014745393
-0.020736045
-0.00023290295
-0.0234845
-0.00031256347
-0.026255136
-0.00037566668
-0.028847841
-0.00040697263
-0.030915492
-0.00039465062
-0.032714112
-0.00032994121
-0.034284724
-0.00020125195
-0.035244402
0
-0.037062541
0
-0.042414825
-3.8376531e-15
-0.04847676
1.9919285e-18
-0.055007302
0
-0.061490302
3.4187589e-15
-0.068247105
-6.5755582e-15
-0.075748843
-1.4597162e-18
-0.083910804
0
-0.092470474
0
-0.10148207
5.6360175e-15
-0.11117981
0
-0.12160843
-5.2174729e-15
-0.13261239
-5.0177004e-15
-0.14403898
0
-0.15576039
2.075553e-18
-0.16746724
8.9443361e-15
-0.1787902
-4.302878e-15
-0.18948533
0
-0.1995758
0
-0.20946519
1.5341991e-18
-0.21948566
0
-0.22927028
7.0930227e-15
-0.23839448
6.208893e-19
-0.24744925
-4.5699964e-19
-0.25732207
6.3164913e-15
-0.26758101
0
-0.27765445
0
-0.28810454
0
-0.29990284
1.0838638e-14
-0.31520818
-0.017805915
0
-0.014830809
5.6965324e-05
-0.011959087
8.8881011e-05
-0.0086284006
8.3889575e-05
-0.0044495313
3.6628451e-05
-7.57011e-05
-0.020795091
-0.00016328869
-0.023601855
-0.00025336283
-0.026439744
-0.00033587897
-0.029110811
-0.00039648266
-0.031269356
-0.00042345591
-0.033199426
-0.0004080012
-0.034921535
-0.00033809671
-0.036073946
-0.00020532466
-0.037140379
0
-0.039612146
0
-0.045298781
0
-0.051432679
1.5749243e-18
-0.057498612
0
-0.063809461
-6.5781611e-15
-0.070867586
-3.1637281e-15
-0.078602099
-1.3765397e-18
-0.086724453
0
-0.095281457
0
-0.10453982
-5.4217152e-15
-0.11455615
0
-0.12516258
0
-0.13619962
0
-0.14766109
2.2501787e-18
-0.15933622
-4.4724146e-15
-0.17082041
0
-0.18182775
-4.1424675e-15
-0.19214299
0
-0.20183415
0
-0.21138052
7.3786634e-15
-0.22108826
0
-0.23058517
6.8294192e-15
-0.23940076
6.5697958e-15
-0.24820682
-6.3213566e-15
-0.25795576
3.3062442e-19
-0.26810535
0
-0.27806844
0
-0.28835284
0
-0.29982172
0
-0.31482549
-0.020832989
0
-0.017817316
6.6654478e-05
-0.01482783
0.0001110365
-0.011948962
0.00012683786
-0.0086218262
0.00010353372
-0.0044519642
4.097863e-05
-8.3861893e-05
-0.023687754
-0.00017764513
-0.026582737
-0.00027214249
-0.02932255
-0.00035424106
-0.031562053
-0.00041232568
-0.033612504
-0.00043763636
-0.03547807
-0.00041794739
-0.036792163
-0.00034495123
-0.038095455
-0.00021076887
-0.039489219
0
-0.042314055
0
-0.048080689
0
-0.053756239
1.3501763e-18
-0.059644789
-1.4637985e-18
-0.066275798
3.1642915e-15
-0.073594766
0
-0.081290506
-1.3034431e-18
-0.089398011
0
-0.09821368
0
-0.10781041
-5.2181796e-15
-0.1180199
-5.0210439e-15
-0.12865227
-4.8339893e-15
-0.13973581
4.6517169e-15
-0.15124667
-8.9505526e-15
-0.16280901
1.9220235e-18
-0.17403534
0
-0.18469879
-1.3212466e-18
-0.19461702
0
-0.20392706
0
-0.21313148
7.1043483e-15
-0.22254941
0
-0.23175441
0
-0.24028423
6.3264408e-15
-0.24888082
0
-0.25852057
-5.856393e-15
-0.26856819
0
-0.27841549
0
-0.2885311
0
-0.29968807
-1.0052355e-14
-0.3144158
-0.023741336
0
-0.020854732
7.5830954e-05
-0.017818545
0.00012999071
-0.014813921
0.00015851522
-0.011932988
0.00015654363
-0.0086156142
0.00011581228
-0.0044568347
4.2054579e-05
-9.1233218e-05
-0.026683294
-0.00019072877
-0.029481475
-0.00028683128
-0.031793777
-0.00036818963
-0.0339531
-0.00042602866
-0.035953986
-0.00044820226
-0.0374205
-0.0004264535
-0.03893067
-0.00035426822
-0.040597529
-0.00021717707
-0.041964806
0
-0.044918533
0
-0.05024849
0
-0.055739729
-3.289305e-15
-0.061960409
3.1647909e-15
-0.068878707
3.0463875e-15
-0.076160821
-2.92968e-15
-0.083827064
2.8188396e-15
-0.092199106
-5.427459e-15
-0.10136868
0
-0.11117703
0
-0.12140244
0
-0.13206332
-4.6532991e-15
-0.14326807
0
-0.15477618
0
-0.16613941
0
-0.17707247
0
-0.18738499
3.8397625e-15
-0.19691919
0
-0.20585407
0
-0.21473252
6.8404122e-15
-0.22385769
0
-0.23279823
-6.3316835e-15
-0.24106952
0
-0.24948524
-5.8611609e-15
-0.2590341
5.6399628e-15
-0.26897031
0
-0.27870071
0
-0.28865191
0
-0.29951313
0
-0.31397821
-0.026740477
0
-0.023769479
8.4049669e-05
-0.020859826
0.00014795456
-0.017805947
0.00018568731
-0.014788986
0.00019569796
-0.011910959
0.00017508662
-0.0086100075
0.00011882272
-0.0044640823
3.917313e-05
-9.7909097e-05
-0.029587396
-0.00020090397
-0.031964658
-0.00029800025
-0.034221916
-0.00038038725
-0.036348935
-0.00043626722
-0.037959248
-0.00045729319
-0.039660284
-0.00043809499
-0.041570159
-0.0003652092
-0.043225922
-0.0002229702
-0.044311605
0
-0.04693556
0
-0.052081753
0
-0.057910249
3.1668081e-15
-0.064440461
3.045433e-15
-0.07132485
0
-0.078562773
-5.6401865e-15
-0.086495865
2.7128887e-15
-0.095231393
0
-0.10462916
5.0239169e-15
-0.11444808
2.6261249e-18
-0.12468233
-4.6547537e-15
-0.13547611
4.4770558e-15
-0.14675495
0
-0.1581542
4.1488163e-15
-0.1692829
1.6989907e-18
-0.17991826
1.4118253e-18
-0.18988327
3.6958447e-15
-0.1990461
0
-0.20762409
0
-0.21618512
0
-0.2250397
0
-0.23371787
6.0967858e-15
-0.24176437
5.8658513e-15
-0.25003099
-3.0910615e-19
-0.2594986
-5.430622e-15
-0.26932472
0
-0.27892495
0
-0.28872052
0
-0.29930503
-9.3238e-15
-0.31353558
-0.029640038
0
-0.026763365
9.1417806e-05
-0.023771343
0.00016401194
-0.020842522
0.00021146346
-0.017779755
0.00022942908
-0.014752761
0.00021891381
-0.011883061
0.00017955415
-0.0086050848
0.00011064374
-0.0044736872
3.166005e-05
-0.00010308179
-0.032075675
-0.00020865188
-0.034420557
-0.00030783868
-0.036662684
-0.00038947141
-0.038408152
-0.00044510655
-0.040283905
-0.00046989761
-0.042416976
-0.00045167566
-0.044331895
-0.00037480925
-0.045705276
-0.0002262636
-0.046056701
3.4192541e-15
-0.048633915
0
-0.054114165
0
-0.060270944
-3.0443558e-15
-0.066772848
-2.9320032e-15
-0.073597304
2.8213064e-15
-0.081101048
-2.7134342e-15
-0.089399364
-1.5447812e-18
-0.098377567
0
-0.10778047
0
-0.11758352
-4.6535204e-15
-0.12793517
4.4808459e-15
-0.13884961
4.3100032e-15
-0.15011163
-4.1482301e-15
-0.1613451
0
-0.17222248
0
-0.18256135
0
-0.19220166
0
-0.2010064
0
-0.20923792
0
-0.2175
0
-0.22608308
0
-0.23453536
0
-0.24237878
0
-0.25052393
0
-0.25992615
5.2298689e-15
-0.26962136
5.033037e-15
-0.27909896
0
-0.28874629
0
-0.29906845
-8.9798425e-15
-0.31308368
-0.03212714
0
-0.02965147
9.8028404e-05
-0.02675103
0.00017835343
-0.023738435
0.00023442454
-0.02080302
0.00026144187
-0.017739941
0.00025687976
-0.01470499
0.00022451499
-0.011849044
0.00016708968
-0.0086013446
8.9385155e-05
-0.0044855289
1.8827892e-05
-0.00010703627
-0.034550216
-0.00021553274
-0.036895735
-0.00031519361
-0.038767259
-0.00039736151
-0.040800305
-0.00045742626
-0.043136468
-0.00048452493
-0.045290302
-0.00046349135
-0.046921033
-0.00038018412
-0.047568206
-0.0002268842
-0.04748443
3.2917019e-15
-0.050534927
3.1675604e-15
-0.056358361
0
-0.062494902
1.366723e-18
-0.068921588
2.8203266e-15
-0.076008198
0
-0.083872977
1.5839604e-18
-0.092423394
2.5131499e-15
-0.10140026
0
-0.11076601
0
-0.12067347
0
-0.1311636
0
-0.14211638
4.1494147e-15
-0.15328367
0
-0.16432428
0
-0.1749503
1.4633188e-18
-0.18501655
3.5617365e-15
-0.19433983
-3.4274457e-15
-0.20280245
0
-0.21070771
0
-0.21867967
8.2494012e-19
-0.22701666
0
-0.23524476
0
-0.24291823
5.4392311e-15
-0.25097523
5.2334879e-15
-0.26030585
0
-0.26987328
0
-0.27922444
-9.3306082e-15
-0.28872706
8.9823808e-15
-0.29880813
0
-0.31264406
-0.034611273
0
-0.032133874
0.00010314246
-0.02962125
0.00019118545
-0.026693377
0.00025484942
-0.023670672
0.000289807
-0.020741306
0.00029294216
-0.01768615
0.00026373883
-0.014645913
0.00020891314
-0.01181039
0.00013487725
-0.0085999096
5.3141054e-05
-0.0044992024
-6.9424279e-15
-0.0001105654
-0.037048487
-0.00022068801
-0.039035897
-0.00032156786
-0.041208384
-0.00040835471
-0.043727825
-0.0004716176
-0.046100713
-0.00049703104
-0.04797322
-0.00046993198
-0.048881257
-0.00038114459
-0.049120049
-0.00022700248
-0.049113277
0
-0.052658156
0
-0.058480251
0
-0.064528334
-2.8207105e-15
-0.071208138
0
-0.078647492
-2.6136665e-15
-0.086769077
2.5151679e-15
-0.095311189
-2.4203937e-15
-0.10422933
0
-0.11369223
4.480609e-15
-0.12374644
-4.3121683e-15
-0.13429301
-4.15043e-15
-0.14520498
0
-0.15625041
0
-0.16708582
0
-0.17747829
1.3509782e-18
-0.18728155
3.4295168e-15
-0.19630889
3.2993806e-15
-0.20444625
0
-0.21204004
0
-0.21973629
0
-0.22783187
0
-0.23586892
5.4433591e-15
-0.2433953
5.2378447e-15
-0.251383
5.0398597e-15
-0.2606507
4.8502082e-15
-0.27007656
0
-0.27931133
8.9862374e-15
-0.2886684
-8.6509268e-15
-0.29853388
8.3278164e-15
-0.31220877
-0.03712024
0
-0.034620965
0.00010708894
-0.03209574
0.0002011372
-0.029537618
0.00027311081
-0.026590675
0.00031495112
-0.023568283
0.00032468187
-0.020657302
0.00030101673
-0.017619596
0.00024572883
-0.014576059
0.00016859774
-0.011768012
8.011161e-05
-0.0085993336
0
-0.0041080179
6.9424164e-15
-0.00011321685
-0.039214158
-0.00022512633
-0.04150798
-0.00033039823
-0.044189042
-0.00042097346
-0.046762956
-0.00048366567
-0.048860513
-0.00050377104
-0.050020069
-0.00047100711
-0.050542539
-0.00038131944
-0.050889185
-0.00022770892
-0.050948566
0
-0.054672436
0
-0.060409345
2.8225189e-15
-0.066694503
1.6037371e-18
-0.073719745
-1.6516735e-18
-0.081412868
2.5156508e-15
-0.089516669
1.3851855e-18
-0.097979512
-1.3425875e-18
-0.10699293
0
-0.11661366
0
-0.12672975
0
-0.13725723
3.9959518e-15
-0.14811751
0
-0.15902884
3.7043136e-15
-0.16965595
0
-0.17981317
1.2454779e-18
-0.18937062
-3.3012648e-15
-0.19811441
0
-0.20594623
0
-0.21324056
0
-0.2206765
0
-0.22855371
-5.4478643e-15
-0.2364014
0
-0.24381742
0
-0.25175523
0
-0.26094127
-9.3416737e-15
-0.27024872
4.4955823e-15
-0.27934938
0
-0.28857216
8.3296671e-15
-0.29826189
-0.0028594859
-0.30891086
-0.039300936
0
-0.03713164
0.00011063042
-0.034578673
0.000208853
-0.031996154
0.00028731676
-0.029401474
0.00033745376
-0.026443304
0.00035269425
-0.023431383
0.00033353185
-0.020551342
0.0002807191
-0.017540791
0.00019856697
-0.014495856
0.00010008149
-0.011718425
0
-0.007910367
0
-0.0044023692
0
-0.00011548616
-0.041699654
-0.00023125187
-0.044520053
-0.00034052911
-0.047276853
-0.00043158478
-0.049582162
-0.00049007293
-0.050981538
-0.00050485596
-0.051775082
-0.00047117929
-0.052432348
-0.00038247684
-0.05285631
-0.00022836524
-0.052668578
0
-0.056501315
0
-0.062457478
0
-0.069078671
1.6814174e-18
-0.076353889
-1.551151e-18
-0.084018231
-2.421341e-15
-0.092021904
1.3494748e-18
-0.10058148
-2.242633e-15
-0.10977304
0
-0.11946422
4.1521656e-15
-0.12956505
-3.99673e-15
-0.140087
3.8474051e-15
-0.15088225
-3.7055367e-15
-0.16161791
1.5887565e-18
-0.1720231
0
-0.18196373
-3.3029655e-15