/*--------------------------------*- C++ -*----------------------------------*\
| =========                 |                                                 |
| \\      /  F ield         | OpenFOAM: The Open Source CFD Toolbox           |
|  \\    /   O peration     | Version:  v2012                                 |
|   \\  /    A nd           | Website:  www.openfoam.com                      |
|    \\/     M anipulation  |                                                 |
\*---------------------------------------------------------------------------*/
FoamFile
{
    version     2.0;
    format      ascii;
    class       surfaceScalarField;
    location    "53.7971014022953611";
    object      phi;
}
// * * * * * * * * * * * * * * * * * * * * * * * * * * * * * * * * * * * * * //

dimensions      [0 3 -1 0 0 0 0];
oriented        oriented;


internalField   nonuniform List<scalar> 
18180
(
0.0076679824
-3.6023233
0.017385309
-3.3755727
0.00049330629
-3.5791428
0.030107311
-3.1661528
0.0029540023
-3.3559346
-0.0054795242
-3.5512104
0.047816752
-2.974365
0.0083063864
-3.1510441
-0.0095304556
-3.3311088
-0.011870243
-3.5179777
0.071823273
-2.7971214
0.018327849
-2.9652777
-0.011750306
-3.12948
-0.023276137
-3.2995996
-0.017332399
-3.4803493
0.10374165
-2.6334792
0.034680784
-2.7954985
-0.011071942
-2.9480917
-0.034113087
-3.0999996
-0.034989971
-3.2629059
-0.021280009
-3.4399645
0.14504374
-2.4816352
0.059551192
-2.6414193
-0.0064500812
-2.7836489
-0.044643447
-2.9203484
-0.053436665
-3.0637702
-0.043368842
-3.2230133
-0.023468773
-3.3987832
0.19714856
-2.3401684
0.095373285
-2.5014795
0.0035293108
-2.6361083
-0.054634393
-2.7577988
-0.073963738
-2.8834082
-0.06719987
-3.0234044
-0.047875496
-3.1820179
-0.024009932
-3.3582328
0.26133216
-2.2075288
0.14511981
-2.3748442
0.020954723
-2.504693
-0.063896066
-2.6122582
-0.097445876
-2.7192378
-0.094652733
-2.8406716
-0.074397655
-2.9814443
-0.048824774
-3.141766
-0.023223006
-3.3197996
0.3388082
-2.0823497
0.21229135
-2.260498
0.048363474
-2.389029
-0.072065619
-2.4830355
-0.12516128
-2.5706141
-0.1273463
-2.6724096
-0.10502217
-2.7956633
-0.075619881
-2.9401219
-0.046981305
-3.1036609
-0.021505924
-3.2842341
0.43069777
-1.9635145
0.30112119
-2.1578103
0.089347411
-2.2891844
-0.078415652
-2.3701663
-0.15850731
-2.4367487
-0.16743379
-2.5173738
-0.14151583
-2.622437
-0.10614175
-2.75142
-0.07227276
-2.9012731
-0.043235879
-3.0687288
-0.019232698
-3.2521604
0.53670366
-1.8486699
0.41526726
-2.065086
0.14884836
-2.2058898
-0.081640786
-2.2743341
-0.19921445
-2.3173888
-0.21748118
-2.3744158
-0.18607013
-2.4602198
-0.14184123
-2.5738184
-0.10044461
-2.7103731
-0.065937365
-2.8660411
-0.038397991
-3.037418
-0.016706415
-3.2236498
0.64942269
-1.7307864
0.55375906
-1.9753422
0.23063302
-2.136282
-0.079834871
-2.1968909
-0.24906061
-2.2132007
-0.28074148
-2.242628
-0.24124198
-2.307441
-0.18433813
-2.4055248
-0.1324538
-2.5295614
-0.090537979
-2.6738429
-0.057995378
-2.8349134
-0.033107157
-3.0098922
-0.014148563
-3.1987655
0.7591875
-1.6023672
0.69739022
-1.8633133
0.33018752
-2.065096
-0.074156649
-2.1319205
-0.31014534
-2.1252372
-0.36140569
-2.1217548
-0.31019455
-2.1625824
-0.23530722
-2.2449843
-0.16919438
-2.3572321
-0.1175287
-2.4912579
-0.078585141
-2.642273
-0.049492543
-2.8079221
-0.027817744
-2.9860346
-0.011706744
-3.1772573
0.85385528
-1.4613847
0.83289141
-1.7274386
0.42516746
-1.9492338
-0.073091888
-2.0568373
-0.38712307
-2.0450342
-0.46485157
-2.0116839
-0.39724018
-2.0242943
-0.29653709
-2.0905648
-0.21132921
-2.191995
-0.14720409
-2.3168703
-0.10030666
-2.4590808
-0.066136078
-2.6154698
-0.04113876
-2.7848556
-0.022822581
-2.9656302
-0.0094691493
-3.1589027
0.92505265
-1.3118134
0.94375302
-1.5624501
0.49734965
-1.7912523
-0.081482489
-1.9321875
-0.49023703
-1.9444236
-0.59609765
-1.9043164
-0.50793985
-1.8912102
-0.3701606
-1.940511
-0.25922293
-2.0324416
-0.17949997
-2.1496355
-0.12306325
-2.2842109
-0.082952298
-2.4325316
-0.0541788
-2.5930364
-0.033366771
-2.7653635
-0.018288842
-2.9483306
-0.0074801474
-3.1433295
0.96949255
-1.160768
1.0189046
-1.3777633
0.52713928
-1.5845107
-0.13665599
-1.7280444
-0.62092182
-1.7927656
-0.75663921
-1.7750107
-0.64459517
-1.7585015
-0.45857769
-1.7932147
-0.31283497
-1.877238
-0.21392584
-1.9885525
-0.14639614
-2.1169907
-0.099636372
-2.258258
-0.066730002
-2.410913
-0.043267905
-2.5744464
-0.026404774
-2.7490541
-0.014293821
-2.9338083
-0.0057536134
-3.1302676
0.98823972
-1.01657
1.0548475
-1.1880678
0.51546915
-1.3589497
-0.22994351
-1.4837637
-0.78045223
-1.5602972
-0.94377578
-1.5973254
-0.79876924
-1.6122677
-0.56136294
-1.646685
-0.37166162
-1.7252491
-0.24941958
-1.8328236
-0.16946799
-1.9567412
-0.1155878
-2.0922553
-0.07841042
-2.2378177
-0.052267502
-2.3934289
-0.033658633
-2.5591799
-0.020341209
-2.735503
-0.010854604
-2.9217071
-0.0042838078
-3.1193863
0.98408906
-0.88445363
1.0525564
-1.0061615
0.46785879
-1.1338449
-0.34697178
-1.2349939
-0.94985559
-1.3066284
-1.1222586
-1.3740478
-0.95270932
-1.4353857
-0.66940664
-1.4957137
-0.433988
-1.5757044
-0.28430897
-1.6819172
-0.19100444
-1.8030477
-0.12993718
-1.9340836
-0.08862964
-2.0736148
-0.05998428
-2.2218073
-0.039785795
-2.3794008
-0.025414828
-2.5467093
-0.015175883
-2.724346
-0.007950539
-2.9117184
-0.0030542146
-3.110404
0.96068545
-0.76770634
1.0181053
-0.84238133
0.39307161
-0.92524028
-0.47620574
-0.99817468
-1.1183523
-1.0592207
-1.2860642
-1.1355654
-1.0910755
-1.2282307
-0.7652869
-1.3314933
-0.49396918
-1.4275396
-0.31632251
-1.5356899
-0.2092954
-1.6558357
-0.14155297
-1.7836194
-0.096638249
-1.9180557
-0.065910045
-2.0596065
-0.044444407
-2.2093396
-0.029267773
-2.3681937
-0.018487364
-2.5366076
-0.010856416
-2.7152149
-0.0055396938
-2.9035265
-0.0020440355
-3.1030277
0.92230678
-0.66791505
0.95980185
-0.70225085
0.29958383
-0.74318842
-0.60707619
-0.78838705
-1.2745971
-0.83508559
-1.4279729
-0.9105363
-1.2072424
-1.0124722
-0.83473819
-1.1512441
-0.53915043
-1.2785608
-0.34191693
-1.3943661
-0.22228408
-1.5153258
-0.14910097
-1.6409256
-0.10156922
-1.7710523
-0.069466606
-1.9066243
-0.047231785
-2.0490796
-0.031612484
-2.1996572
-0.020570726
-2.3593219
-0.012766863
-2.528482
-0.0073039268
-2.7078279
-0.0035703094
-2.8968735
-0.0012275277
-3.0970381
0.87338739
-0.58466404
0.88555307
-0.58695599
0.19559912
-0.59294555
-0.73111273
-0.61358639
-1.4097075
-0.64684376
-1.5427243
-0.71401323
-1.2984412
-0.81290994
-0.87426759
-0.96586354
-0.55585916
-1.127208
-0.35487428
-1.2584362
-0.22766898
-1.3819919
-0.15113641
-1.5063166
-0.10251864
-1.6327263
-0.070055827
-1.7628579
-0.047735639
-1.8984876
-0.032148479
-2.0412424
-0.021193758
-2.1922411
-0.013495166
-2.3523493
-0.0081179332
-2.5220227
-0.0044294552
-2.7018794
-0.001988981
-2.8915197
-0.00057840429
-3.0922261
0.81824439
-0.51634081
0.80244847
-0.49526452
0.089084184
-0.47546669
-0.84240508
-0.47647121
-1.5183763
-0.49888001
-1.6301458
-0.55352962
-1.3633178
-0.6431799
-0.88797621
-0.79255685
-0.53856401
-0.97623836
-0.34684577
-1.1284728
-0.22286064
-1.2566307
-0.14624932
-1.3802728
-0.098637513
-1.5033509
-0.067134561
-1.6283915
-0.045579699
-1.7575149
-0.030600551
-1.8927269
-0.02014356
-2.0354858
-0.012859103
-2.1866057
-0.0078260308
-2.3469395
-0.0043999738
-2.5169189
-0.0021436719
-2.6971573
-0.00074551229
-2.8872599
-7.6571065e-05
-3.0883978
0.76109964
-0.46050069
0.71649081
-0.42447892
-0.013474424
-0.38804603
-0.93711408
-0.37593015
-1.5996293
-0.38956209
-1.6930202
-0.43051516
-1.4049741
-0.50635801
-0.88163873
-0.64328474
-0.49130401
-0.83328586
-0.31134808
-1.005367
-0.20483561
-1.1402528
-0.13328818
-1.2633329
-0.089241147
-1.3831914
-0.060288473
-1.5032655
-0.040482674
-1.626116
-0.026756942
-1.7540433
-0.017249722
-1.8888104
-0.010715975
-2.0313554
-0.0062879404
-2.1823977
-0.003354948
-2.3427777
-0.0014780753
-2.5129405
-0.00036171871
-2.6934306
0.00021041426
-2.8839118
0.00030194309
-3.0853865
0.70468664
-0.41549853
0.63252218
-0.37099543
-0.10779864
-0.32578227
-1.0131882
-0.30747314
-1.6566637
-0.31360777
-1.7363764
-0.34109158
-1.429772
-0.40061044
-0.86014313
-0.5220101
-0.421852
-0.70657907
-0.24755659
-0.89109306
-0.17053444
-1.0337854
-0.11156122
-1.1560567
-0.073930212
-1.2725052
-0.049305494
-1.3875503
-0.032307663
-1.5043004
-0.020507898
-1.6251493
-0.012412775
-1.7520809
-0.0069715001
-1.8863125
-0.0034151279
-2.028475
-0.0011874304
-2.179304
0.00010959265
-2.3396371
0.00077278102
-2.509875
0.00099512941
-2.6905601
0.00092697561
-2.881323
0.00056540076
-3.0830457
0.65107859
-0.37893133
0.55341376
-0.33119866
-0.19105457
-0.28363181
-1.0720686
-0.26270919
-1.6946699
-0.26453368
-1.7658399
-0.27938006
-1.4440861
-0.32204599
-0.82728441
-0.42799409
-0.33702546
-0.60103635
-0.15988133
-0.78864279
-0.11826563
-0.93783384
-0.080827116
-1.0589219
-0.052723495
-1.1714516
-0.034238231
-1.2812654
-0.021103252
-1.3919021
-0.011874818
-1.5058694
-0.0056243755
-1.6252015
-0.0015991986
-1.7512956
0.00083504193
-1.8848509
0.0021522713
-2.0265394
0.0026987604
-2.1771049
0.0027373536
-2.3373043
0.0024624554
-2.5075696
0.0019987077
-2.6883643
0.001445338
-2.8793785
0.00075299169
-3.0812745
0.60183412
-0.34878621
0.48082023
-0.3014702
-0.26186685
-0.25652452
-1.1166501
-0.23514278
-1.718375
-0.23440985
-1.7867391
-0.23919472
-1.4515953
-0.26748133
-0.78562987
-0.35857346
-0.24158541
-0.51797539
-0.05488152
-0.70078348
-0.04893532
-0.85278852
-0.041238189
-0.97213896
-0.026139465
-1.0800139
-0.015427668
-1.1842592
-0.0071271733
-1.2886603
-0.0010181226
-1.3959073
0.0030238072
-1.5079378
0.0053501538
-1.6261173
0.0064371164
-1.7512784
0.0066594331
-1.8841169
0.0063065669
-2.0253302
0.0055913385
-2.1755926
0.0046758563
-2.335627
0.0036907333
-2.5058654
0.0027127274
-2.6867464
0.0018018531
-2.8779588
0.00088132994
-3.0799721
0.55790569
-0.323538
0.415941
-0.27934324
-0.32055599
-0.23914864
-1.1502092
-0.21932379
-1.7317974
-0.21744761
-1.801964
-0.21504464
-1.4540771
-0.23263286
-0.73698108
-0.3113311
-0.13859479
-0.45643054
0.06109165
-0.62903769
0.034187894
-0.77905193
0.0065222186
-0.89556684
0.0048969544
-0.99799666
0.0065004718
-1.0962405
0.00916312
-1.1942468
0.011744187
-1.294832
0.013310447
-1.3998228
0.013742764
-1.5104518
0.013307823
-1.6275148
0.01228654
-1.7517495
0.010908824
-1.8838979
0.009331189
-2.0246624
0.0076771239
-2.1746215
0.0060514194
-2.3344625
0.0045420113
-2.5046513
0.0031911731
-2.6855764
0.0020275598
-2.8769652
0.0009585553
-3.0790627
0.51966218
-0.30200781
0.35921537
-0.26253371
-0.36887826
-0.22760409
-1.1727477
-0.21321626
-1.737826
-0.20932559
-1.8147188
-0.2008293
-1.4536736
-0.21164878
-0.68288186
-0.28224245
-0.03112148
-0.41398138
0.18214744
-0.57289908
0.12619282
-0.7165025
0.060788409
-0.82862372
0.039088822
-0.92488553
0.03057499
-1.0166683
0.027106261
-1.1081528
0.025962817
-1.2021309
0.024950521
-1.3003257
0.023391062
-1.4037729
0.021313156
-1.5131262
0.018932433
-1.6290889
0.016429984
-1.7524793
0.013911617
-1.8840605
0.01144849
-2.0244078
0.009111407
-2.1740697
0.0069709998
-2.3337082
0.0050881794
-2.503824
0.0034798746
-2.6847974
0.0021489904
-2.8763123
0.00099369054
-3.0784698
0.48696974
-0.2832633
0.31032432
-0.24910603
-0.40780034
-0.22039691
-1.1872456
-0.20994237
-1.7382262
-0.20913095
-1.8197226
-0.200714
-1.4490572
-0.20190147
-0.62461007
-0.26572183
0.078447972
-0.38728507
0.30320961
-0.53076106
0.22232437
-0.66478902
0.11933045
-0.77062309
0.075118116
-0.86007635
0.055781143
-0.94498348
0.0459858
-1.0297859
0.04110074
-1.1172053
0.037582115
-1.2088433
0.034047145
-1.3054725
0.030280712
-1.4075291
0.026462554
-1.5156618
0.022760691
-1.6307001
0.019244973
-1.7534145
0.015932334
-1.8844774
0.012843571
-2.0244652
0.010023795
-2.1738463
0.0075251677
-2.333272
0.0053906475
-2.5033139
0.0036178105
-2.6843069
0.002188808
-2.8759305
0.00099579913
-3.0781432
0.44951325
-0.31168439
0.26872485
-0.23790715
-0.43876498
-0.21511555
-1.1953877
-0.20930479
-1.7332285
-0.21151966
-1.8197255
-0.20575673
-1.4343893
-0.21207036
-0.56091544
-0.26166983
0.18929489
-0.37232467
0.42017894
-0.50025796
0.31816463
-0.62264011
0.17938278
-0.72067739
0.11154279
-0.8027572
0.08095086
-0.88042854
0.064960118
-0.95846254
0.05657776
-1.0394215
0.050806232
-1.1247364
0.04543594
-1.2149264
0.040015505
-1.310161
0.034721896
-1.4108913
0.029766286
-1.5179964
0.025214363
-1.6322947
0.021033428
-1.7544306
0.017184445
-1.8850879
0.013668009
-2.0247593
0.010522376
-2.1738742
0.0077906159
-2.3330864
0.0055019137
-2.5030459
0.003638773
-2.6840603
0.0021666203
-2.8757616
0.00097303231
-3.0780183
0.41740139
-0.31678361
0.2294274
-0.26827623
-0.46298364
-0.2108408
-1.1983202
-0.20943127
-1.7237499
-0.21560867
-1.8130322
-0.21506127
-1.4114537
-0.22559316
-0.49648237
-0.27283242
0.29782371
-0.36622475
0.5304772
-0.47889355
0.4101258
-0.58851993
0.23835353
-0.67768967
0.14688677
-0.75200545
0.10494941
-0.82222328
0.083212442
-0.89345088
0.071790308
-0.96807692
0.064206044
-1.0473535
0.057287286
-1.1314981
0.050324396
-1.2203859
0.043554966
-1.3142093
0.037303736
-1.4137987
0.031683574
-1.5201242
0.026630171
-1.6338277
0.022035417
-1.755511
0.017839249
-1.8858228
0.014045857
-2.0252322
0.01069728
-2.1740921
0.0078317712
-2.3330969
0.0054665428
-2.5029671
0.0035716664
-2.6839861
0.002098893
-2.8757535
0.00093225249
-3.0780622
0.3905646
-0.32307563
0.1957365
-0.2789773
-0.47270869
-0.25544436
-1.1967704
-0.20982223
-1.7101345
-0.22010027
-1.7993217
-0.22637119
-1.3805958
-0.24301531
-0.42995201
-0.2886917
0.39642087
-0.3677123
0.63185144
-0.46411761
0.49554015
-0.56085166
0.29403299
-0.6405065
0.17982215
-0.70687229
0.12677651
-0.76957874
0.099969429
-0.83401427
0.086171211
-0.90247615
0.077390578
-0.97602059
0.069343931
-1.0545413
0.061036463
-1.1375623
0.052824833
-1.2250356
0.045238456
-1.3176209
0.038512108
-1.4163354
0.032583438
-1.5220435
0.027273268
-1.6352824
0.022439763
-1.7566092
0.018033903
-1.8866716
0.014078412
-2.0258363
0.010623083
-2.1744631
0.0077022383
-2.3332549
0.0053216067
-2.5030318
0.0034403637
-2.6840499
0.0019988822
-2.875865
0.00087902951
-3.0782299
0.36867571
-0.33044058
0.16769425
-0.29091399
-0.47871024
-0.26984348
-1.1723232
-0.27713332
-1.6926043
-0.22461746
-1.7787836
-0.23787917
-1.3429692
-0.26127416
-0.36366799
-0.30608992
0.48521838
-0.37401435
0.72110181
-0.45371208
0.57280835
-0.53815386
0.34470245
-0.60804465
0.20926079
-0.66644389
0.14560757
-0.72171954
0.11455447
-0.77945953
0.099219224
-0.84195013
0.090009992
-0.91008294
0.081390465
-0.983425
0.072016126
-1.0610901
0.06242676
-1.1427486
0.053459939
-1.2288903
0.045568989
-1.3204627
0.038749022
-1.4184902
0.032756982
-1.5237467
0.027348507
-1.6366653
0.02239361
-1.7577459
0.01787765
-1.8875832
0.01384781
-2.0265488
0.010360914
-2.1749428
0.0074459697
-2.3335251
0.0050972166
-2.503201
0.0032639177
-2.6841937
0.0018769977
-2.8760567
0.00081774901
-3.0785034
0.35129146
-0.33870558
0.1450394
-0.30366154
-0.48115902
-0.28531006
-1.1454952
-0.29390493
-1.6524314
-0.31440831
-1.7519324
-0.24888781
-1.3001204
-0.27817146
-0.29929721
-0.32264323
0.56341337
-0.38103845
0.79625391
-0.4461312
0.64117104
-0.51905075
0.38913612
-0.57931761
0.23438425
-0.62990751
0.16081733
-0.67793149
0.12642321
-0.72914227
0.1105084
-0.78588045
0.10177234
-0.84892758
0.09325947
-0.91754208
0.083174541
-0.99037285
0.072300707
-1.0667491
0.061894242
-1.146991
0.052746172
-1.2319815
0.044989054
-1.3227458
0.038337871
-1.4202808
0.032426089
-1.5252736
0.027010427
-1.6379984
0.022010507
-1.7588867
0.017456957
-1.8885608
0.013420257
-2.0273347
0.0099603677
-2.1755078
0.0070985428
-2.3338723
0.004817455
-2.5034377
0.0030572886
-2.6843926
0.0017413137
-2.876304
0.0007517913
-3.0788511
0.33778253
-0.34772813
0.12741921
-0.31695586
-0.48023846
-0.30140528
-1.1165694
-0.31146291
-1.6081902
-0.33524864
-1.71421
-0.34939171
-1.2536029
-0.29300247
-0.23808387
-0.33657814
0.63086533
-0.38706363
0.8580383
-0.43999014
0.70014678
-0.50227677
0.42660165
-0.55344365
0.25469476
-0.5965974
0.17197045
-0.63758972
0.13519148
-0.68250596
0.11970355
-0.73371285
0.112445
-0.79199423
0.10483463
-0.85632622
0.094473439
-0.92485296
0.082436807
-0.99649096
0.07051299
-1.0713549
0.059968574
-1.1502952
0.05118123
-1.2343234
0.043866804
-1.3244906
0.037522183
-1.4217844
0.031751458
-1.5266782
0.026372968
-1.6392991
0.021377076
-1.7600493
0.016839947
-1.8895689
0.012848767
-2.0281797
0.0094612213
-2.1761239
0.0066884367
-2.334278
0.0045013795
-2.5037119
0.0028321315
-2.6846136
0.0015980667
-2.8765884
0.00068371498
-3.0792655
0.32711152
-0.35761732
0.11431643
-0.33049018
-0.47610951
-0.31788763
-1.0855368
-0.32965928
-1.5598785
-0.35687717
-1.6677604
-0.37892599
-1.225357
-0.37509417
-0.18131084
-0.34715157
0.68814387
-0.39102654
0.90763841
-0.43402002
0.74953037
-0.48672438
0.4569079
-0.52969873
0.26997335
-0.56591103
0.17891838
-0.60031373
0.14063691
-0.63908557
0.12657326
-0.68499167
0.12186705
-0.7387978
0.11605282
-0.79926849
0.10592126
-0.8640094
0.092875162
-0.93146392
0.07933761
-1.0014724
0.067200453
-1.0748358
0.057226478
-1.152632
0.049201495
-1.2359128
0.042480288
-1.3257849
0.036470727
-1.4230746
0.03084361
-1.5280119
0.025517858
-1.6405825
0.020559179
-1.76122
0.016080137
-1.8906186
0.012175454
-2.0290544
0.0088951936
-2.1767858
0.0062381921
-2.3347133
0.004163918
-2.5040063
0.0025974586
-2.6848479
0.0014520016
-2.8768946
0.00061544095
-3.0797291
0.3185472
-0.36809762
0.10487298
-0.34403337
-0.46893095
-0.33445306
-1.0523074
-0.34833303
-1.5072376
-0.37940229
-1.613114
-0.4087213
-1.185939
-0.41575386
-0.1734455
-0.38021899
0.73554321
-0.39191192
0.94653545
-0.42745532
0.78968131
-0.47169022
0.48038061
-0.50749309
0.28022237
-0.53734466
0.18169762
-0.56568431
0.14247424
-0.5984365
0.13095454
-0.63931891
0.12991954
-0.68892412
0.12689717
-0.74592755
0.11756957
-0.80737377
0.10370089
-0.87119365
0.088439014
-0.93688024
0.074450674
-1.0051211
0.063054955
-1.0770941
0.054210971
-1.1539587
0.047141947
-1.2368569
0.041012357
-1.3267782
0.035287812
-1.4242585
0.029773733
-1.5293109
0.024503341
-1.6418712
0.019606838
-1.7624098
0.015219412
-1.8916731
0.011433708
-2.0299574
0.0082873089
-2.1774631
0.0057654432
-2.3351669
0.0038165976
-2.5043037
0.0023601333
-2.6850719
0.0013066619
-2.8772181
0.00054836545
-3.0802399
0.31141376
-0.37924769
0.098470289
-0.35754979
-0.45884478
-0.35088747
-1.0167354
-0.36723634
-1.4502386
-0.40243333
-1.5504063
-0.43927928
-1.1358528
-0.4561727
-0.1608634
-0.42555825
0.73830692
-0.3802558
0.97622481
-0.41930106
0.82129068
-0.45674155
0.49760566
-0.48638428
0.28564664
-0.5105125
0.18040246
-0.53325509
0.14049262
-0.56021191
0.13266103
-0.59622543
0.13651283
-0.64200244
0.13737478
-0.69591163
0.12949431
-0.75452844
0.11503408
-0.81524598
0.097933751
-0.87715368
0.081773302
-0.9407382
0.068628481
-1.0072505
0.058778668
-1.0780796
0.051348753
-1.1544458
0.045212233
-1.237389
0.039559566
-1.3276301
0.034027344
-1.4254072
0.028585598
-1.5306186
0.023370831
-1.6431662
0.018558398
-1.7636006
0.01429078
-1.8927418
0.010649874
-2.0308632
0.0076572173
-2.178151
0.0052838204
-2.3356182
0.0034681938
-2.5045945
0.0021252812
-2.6852868
0.0011646151
-2.8775506
0.00048343209
-3.0807789
-0.39109938
0.30506486
0.094426715
-0.37105515
-0.44610678
-0.36704133
-0.97869287
-0.38613684
-1.3890153
-0.42555929
-1.4801858
-0.4697968
-1.0758077
-0.49664843
-0.14120632
-0.47301907
0.73757188
-0.42206748
0.98634716
-0.38801783
0.84524868
-0.44108429
0.50928879
-0.46605862
0.28665759
-0.48517621
0.17517483
-0.502688
0.13472138
-0.52420479
0.13162913
-0.55548625
0.14175625
-0.59776228
0.14754859
-0.64890405
0.14179604
-0.70510416
0.12701576
-0.7632257
0.10797478
-0.82189725
0.089266239
-0.8813143
0.073943312
-0.9427323
0.062804182
-1.007796
0.054943438
-1.0779691
0.048899123
-1.1543804
0.043502459
-1.237764
0.03815102
-1.3284683
0.032710013
-1.4265975
0.027305252
-1.5319555
0.022150629
-1.6444808
0.017443749
-1.7647908
0.013320369
-1.8937966
0.0098447404
-2.0317686
0.0070201661
-2.1788254
0.0048037436
-2.3360659
0.0031252564
-2.5048669
0.0018966405
-2.6854826
0.0010276964
-2.8778988
0.00042122157
-3.0813465
-0.38449538
0.091974506
-0.403489
0.29886488
-0.43111368
-0.38278938
-0.93818558
-0.40475088
-1.3238464
-0.44840273
-1.4031382
-0.49972527
-1.0068154
-0.53607578
-0.11494576
-0.52006973
0.73456164
-0.46723086
0.99083577
-0.4241703
0.87204012
-0.41258443
0.51626983
-0.44586015
0.28373438
-0.46108666
0.16623976
-0.47382793
0.12533806
-0.49022114
0.12792499
-0.51702199
0.14580518
-0.55602449
0.15751866
-0.6046699
0.1545872
-0.65879584
0.13980225
-0.7147786
0.11874328
-0.77074416
0.097067874
-0.82649839
0.079030148
-0.8832001
0.066204675
-0.9427436
0.057769842
-1.0069709
0.05189426
-1.0772022
0.046949828
-1.154159
0.042007578
-1.2381674
0.036772852
-1.3294008
0.031337305
-1.4278583
0.025948877
-1.5333371
0.020865939
-1.6457952
0.016286854
-1.7659713
0.012329045
-1.8948437
0.0090346399
-2.0326509
0.0063879418
-2.179487
0.004333041
-2.336491
0.0027925824
-2.5051206
0.0016768686
-2.6856783
0.00089720975
-2.8782565
0.00036217682
-3.0819271
-0.39799057
-0.41434958
-0.39787734
0.09051638
-0.41629505
0.29234171
-0.89540683
-0.42276577
-1.2550778
-0.47061334
-1.3201276
-0.52850945
-0.93018452
-0.57361008
-0.082587214
-0.5655713
0.73027899
-0.51299159
0.98955129
-0.46354636
0.89365335
-0.44352356
0.53574882
-0.42983249
0.27758229
-0.43781658
0.15387226
-0.4464776
0.11256273
-0.45815403
0.12165503
-0.48067985
0.14867421
-0.51656996
0.1673481
-0.56299216
0.16794225
-0.61532781
0.1535335
-0.66958321
0.1304348
-0.72335588
0.10535273
-0.77595871
0.083955513
-0.82834738
0.068916042
-0.88262538
0.059670949
-0.94107973
0.054010094
-1.0053719
0.049724285
-1.0762752
0.045450305
-1.1540344
0.040663788
-1.2387408
0.035389895
-1.3304689
0.029903407
-1.4292117
0.024528372
-1.5347502
0.019535988
-1.6471158
0.015107297
-1.7671301
0.011333572
-1.8958549
0.0082324028
-2.0335086
0.0057694874
-2.1801136
0.0038774878
-2.3368925
0.0024735749
-2.5053559
0.0014677836
-2.6858653
0.00077407485
-2.8786246
0.00030682775
-3.0825219
-0.43989806
-0.85069268
-0.41314671
-0.3958039
-0.41080644
0.089181907
-0.42916728
0.28497876
-1.1830869
-0.49184686
-1.2321154
-0.55570271
-0.84739611
-0.60852408
-0.04485733
-0.60845797
0.72565051
-0.5581348
0.98353889
-0.50457102
0.9090522
-0.47665644
0.55126292
-0.45677624
0.28000548
-0.43035966
0.13850979
-0.42036577
0.096606835
-0.42780237
0.11289623
-0.44632224
0.15039416
-0.47926439
0.17710066
-0.52365195
0.1819201
-0.57446684
0.16833128
-0.62734564
0.1432438
-0.67940975
0.11432252
-0.72938466
0.088821083
-0.77787866
0.07089369
-0.82714871
0.060495726
-0.87997606
0.055049563
-0.93847967
0.051636474
-1.0036192
0.048323729
-1.0755238
0.044266691
-1.1541601
0.039383
-1.2395415
0.033963397
-1.3317079
0.028402449
-1.4306497
0.023054804
-1.5361912
0.01817748
-1.6484141
0.013921581
-1.7682584
0.01034751
-1.8968333
0.0074479882
-2.0343244
0.0051715044
-2.1806977
0.0034412162
-2.3372561
0.0021705574
-2.505576
0.0012705629
-2.6860513
0.00065880053
-2.878996
0.0002555496
-3.0831126
-0.51171166
-1.1083593
-0.45723978
-0.8037888
-0.42688276
-0.37644667
-0.42313862
0.087306979
-0.44182368
0.27629265
-1.1400891
-0.58093446
-0.7600021
-0.64030053
-0.0026825007
-0.64780287
0.72138276
-0.60137434
0.97380697
-0.54599186
0.9176059
-0.51081197
0.56103098
-0.484139
0.27687144
-0.45171614
0.12430166
-0.41405023
0.077788756
-0.39899809
0.10182967
-0.41385185
0.15102607
-0.44399824
0.18685315
-0.48652557
0.19658848
-0.53600117
0.18428912
-0.5878042
0.15735893
-0.63860752
0.12420062
-0.6864742
0.093759552
-0.73151214
0.072114415
-0.77604164
0.060088744
-0.82336539
0.054796164
-0.8761685
0.052483854
-0.93573983
0.05046355
-1.0021369
0.047460992
-1.0751423
0.043235196
-1.1546592
0.038078735
-1.2406193
0.032461392
-1.3331092
0.026833077
-1.4321697
0.021539957
-1.5376383
0.016805732
-1.6496956
0.012743658
-1.7693397
0.0093817836
-1.8977608
0.0066890363
-2.0350844
0.0045988686
-2.1812216
0.0030270675
-2.3375883
0.0018850023
-2.5057765
0.0010858775
-2.6862301
0.00055152294
-2.879373
0.00020823746
-3.0837035
-0.60374531
-1.045104
-0.53158509
-1.0310941
-0.47208597
-0.75577091
-0.43957025
-0.35673243
-0.43466742
0.084303376
-0.45398125
0.26585031
-0.66974717
-0.66837615
0.042856368
-0.68293423
0.71789445
-0.64149549
0.96123789
-0.58639626
0.91866451
-0.54471845
0.56369743
-0.51117015
0.26538375
-0.47070084
0.10172995
-0.42698329
0.053150071
-0.38685194
0.088835188
-0.38330169
0.15062671
-0.41067058
0.19668401
-0.45150553
0.21199312
-0.49978404
0.2014699
-0.55071561
0.17293611
-0.6006542
0.13522431
-0.64694279
0.098937026
-0.68897811
0.072576031
-0.72904154
0.058294218
-0.77097652
0.053026843
-0.81813232
0.052049523
-0.87224449
0.051696342
-0.93343642
0.050123595
-1.001214
0.046865464
-1.0752997
0.04220187
-1.1555674
0.036681934
-1.2419688
0.030864344
-1.3346664
0.025199443
-1.4337362
0.019996919
-1.5390786
0.015434859
-1.6509257
0.011585484
-1.7703741
0.0084451028
-1.8986334
0.005961284
-2.0357728
0.0040550015
-2.1816848
0.0026368548
-2.3378773
0.0016177329
-2.5059613
0.0009140003
-2.6864143
0.0004521875
-2.8797506
0.00016467982
-3.0842779
-0.69245344
-0.57821456
-0.62522469
-0.94850286
-0.54750309
-0.95274965
-0.48552558
-0.70699811
-0.4510147
-0.3371037
-0.44523004
0.079703531
-0.46538654
0.2533083
0.090517008
-0.71312766
0.71521679
-0.67743925
0.94640332
-0.6242571
0.911714
-0.57709885
0.55825873
-0.53694987
0.24497637
-0.48879008
0.067901248
-0.43465212
0.020764572
-0.39195222
0.065225223
-0.36054921
0.14958842
-0.37965893
0.2065932
-0.41841198
0.2281322
-0.46566112
0.21989665
-0.51589517
0.1901156
-0.56529219
0.1476251
-0.61048893
0.10454287
-0.65001207
0.072302113
-0.6859031
0.054964676
-0.72255699
0.049509853
-0.76409291
0.050102596
-0.81280285
0.051843289
-0.86898038
0.052130754
-0.93191132
0.050196688
-1.0010157
0.046290168
-1.0760576
0.041046302
-1.1568946
0.035147687
-1.243566
0.029165855
-1.3363307
0.023511509
-1.4353238
0.018439904
-1.5404826
0.014078009
-1.6521099
0.010457071
-1.7713423
0.0075443025
-1.8994312
0.00526889
-2.0363823
0.0035421481
-2.1820765
0.0022715904
-2.338129
0.0013690526
-2.5061311
0.00075489891
-2.6865962
0.00036066558
-2.8801216
0.00012475601
-3.0848402
-0.73797269
0.13894417
-0.71274565
-0.4878629
-0.64125136
-0.85178543
-0.56098828
-0.87435061
-0.49735498
-0.65783902
-0.46109628
-0.31796065
-0.45469847
0.073165624
-0.47579969
0.23841575
0.71312783
-0.70822742
0.92937943
-0.6580181
0.89622258
-0.60640772
0.54351312
-0.56000305
0.21602416
-0.50600433
0.024757859
-0.44337607
-0.021752201
-0.38941204
0.038759672
-0.36271024
0.13600054
-0.34439156
0.21672637
-0.38777507
0.24498053
-0.43342704
0.23953661
-0.48313055
0.20897773
-0.53227724
0.16165503
-0.57687597
0.11079405
-0.61433816
0.071331509
-0.64637267
0.049957881
-0.67786402
0.043997442
-0.7137841
0.046397062
-0.75711632
0.0507178
-0.80839747
0.053359398
-0.86679623
0.053158071
-0.93138583
0.050308904
-1.0016564
0.045544428
-1.0774123
0.039689282
-1.1585904
0.03345546
-1.2453573
0.027371574
-1.3380638
0.021783536
-1.4368974
0.01688365
-1.5418356
0.012747043
-1.6532179
0.0093668072
-1.7722451
0.0066845855
-1.900152
0.0046147143
-2.0369091
0.0030616087
-2.182402
0.0019316397
-2.3383372
0.0011388809
-2.5062909
0.00060833127
-2.6867753
0.00027674704
-2.8804817
8.7840591e-05
-3.0853707
-0.73289237
0.71084916
-0.75616954
0.18527053
-0.72724061
-0.39904209
-0.65252184
-0.75727881
-0.57211312
-0.79664544
-0.50737792
-0.6087388
-0.46973513
-0.2996554
-0.46300005
0.064515167
-0.48505493
0.22105372
0.90976541
-0.68622294
0.87150692
-0.6309359
0.51800141
-0.57852778
0.17821885
-0.52018532
-0.025225927
-0.45370807
-0.07275469
-0.38958509
0.0074045747
-0.35520874
0.12484367
-0.34892218
0.21489324
-0.34058706
0.26243744
-0.40353362
0.26035662
-0.45221464
0.22958186
-0.50137398
0.17751631
-0.54580615
0.11794538
-0.58175484
0.069741455
-0.61020983
0.043134463
-0.63664575
0.036230215
-0.66695062
0.04067549
-0.70491122
0.048126928
-0.75139001
0.053691794
-0.80547703
0.055688517
-0.86595318
0.054234549
-0.93195479
0.050176141
-1.0030972
0.044503934
-1.0792873
0.038091927
-1.1605838
0.031605658
-1.247273
0.02549637
-1.3398164
0.020032783
-1.4384327
0.015342698
-1.5431164
0.011452523
-1.6542602
0.0083214031
-1.7730645
0.0058697583
-1.9007926
0.0040005218
-2.0373551
0.0026138927
-2.1826568
0.0016168748
-2.3385186
0.00092686426
-2.5064354
0.00047393967
-2.6869467
0.00020014
-2.8808305
5.3659678e-05
-3.0858763
-0.70747896
0.88673601
-0.74873304
0.70620273
-0.76941746
0.23034013
-0.73477939
-0.31395905
-0.66046149
-0.66595715
-0.58091255
-0.72015108
-0.51542748
-0.56023013
-0.47691603
-0.282483
-0.47012334
0.05373249
-0.49309717
0.20129167
0.83669553
-0.64903862
0.48073717
-0.59128879
0.13142728
-0.52970592
-0.080554766
-0.46251207
-0.12895473
-0.39466794
-0.031719313
-0.34755502
0.11676169
-0.34444894
0.21683958
-0.34885167
0.27028416
-0.34677917
0.28220249
-0.42347848
0.25196483
-0.47235341
0.19545779
-0.5170915
0.12624541
-0.55195744
0.067625345
-0.57722784
0.034385026
-0.59868846
0.025941012
-0.62333252
0.032666944
-0.65591938
0.043879613
-0.69767837
0.053019931
-0.7476282
0.057739072
-0.80429915
0.058057741
-0.8665096
0.05495487
-0.93356148
0.049617222
-1.0052313
0.043107373
-1.081575
0.036249154
-1.1627721
0.029614915
-1.2492534
0.023561305
-1.3415488
0.018277652
-1.4398979
0.013830774
-1.544315
0.010203459
-1.6552087
0.0073261587
-1.7738115
0.0051023813
-1.9013551
0.003427151
-2.037717
0.0021988899
-2.1828591
0.0013268067
-2.3386666
0.00073249065
-2.5065685
0.00035129148
-2.6871171
0.00013047045
-2.8811677
2.1590842e-05
-3.0863375
-0.65942878
0.79102245
-0.71835675
0.85873899
-0.76002422
0.69958655
-0.77648621
0.2749254
-0.73731899
-0.23428929
-0.66611815
-0.57778168
-0.58713508
-0.64546918
-0.52134608
-0.51298761
-0.48265626
-0.26670882
-0.47611279
0.040898738
-0.49996262
0.17923599
0.43168608
-0.59759423
0.076747
-0.53456285
-0.13931214
-0.46858322
-0.18703248
-0.40155587
-0.07762446
-0.34581146
0.10667676
-0.33475363
0.22602858
-0.35158796
0.28061515
-0.35747655
0.29844025
-0.36116108
0.27601913
-0.44540956
0.21563421
-0.49040795
0.1360366
-0.52484926
0.06510962
-0.54715516
0.023595009
-0.56379853
0.012869981
-0.58272132