/*--------------------------------*- C++ -*----------------------------------*\
| =========                 |                                                 |
| \\      /  F ield         | OpenFOAM: The Open Source CFD Toolbox           |
|  \\    /   O peration     | Version:  v2012                                 |
|   \\  /    A nd           | Website:  www.openfoam.com                      |
|    \\/     M anipulation  |                                                 |
\*---------------------------------------------------------------------------*/
FoamFile
{
    version     2.0;
    format      ascii;
    class       pointVectorField;
    location    "53.7971014022953611";
    object      pointDisplacement;
}
// * * * * * * * * * * * * * * * * * * * * * * * * * * * * * * * * * * * * * //

dimensions      [0 1 0 0 0 0 0];


internalField   nonuniform List<vector> 
18840
(
(-1.596092 -0 -0)
(-1.5960528 0 0)
(-1.5959358 0 0)
(-1.5957427 0 0)
(-1.5954747 0 0)
(-1.5951318 0 0)
(-1.5947144 0 0)
(-1.5942218 0 0)
(-1.5936535 0 0)
(-1.5930086 0 0)
(-1.5922862 0 0)
(-1.5914846 0 0)
(-1.5906024 0 0)
(-1.5896378 0 0)
(-1.5885892 0 0)
(-1.5874542 0 0)
(-1.5862307 0 0)
(-1.5849164 0 0)
(-1.5835089 0 0)
(-1.5820052 0 0)
(-1.5800696 0 0)
(-1.596092 -0 -0)
(-1.5960516 0 0)
(-1.5959312 0 0)
(-1.5957324 0 0)
(-1.5954565 0 0)
(-1.5951038 0 0)
(-1.5946743 0 0)
(-1.5941677 0 0)
(-1.5935834 0 0)
(-1.5929204 0 0)
(-1.5921777 0 0)
(-1.5913538 0 0)
(-1.5904472 0 0)
(-1.5894562 0 0)
(-1.5883787 0 0)
(-1.5872128 0 0)
(-1.5859561 0 0)
(-1.5846062 0 0)
(-1.5831603 0 0)
(-1.5816158 0 0)
(-1.579908 0 0)
(-1.596092 -0 -0)
(-1.5960502 0 0)
(-1.5959258 0 0)
(-1.5957205 0 0)
(-1.5954355 0 0)
(-1.5950714 0 0)
(-1.5946279 0 0)
(-1.5941049 0 0)
(-1.5935016 0 0)
(-1.5928171 0 0)
(-1.5920501 0 0)
(-1.5911992 0 0)
(-1.5902627 0 0)
(-1.5892386 0 0)
(-1.5881249 0 0)
(-1.5869193 0 0)
(-1.585619 0 0)
(-1.5842215 0 0)
(-1.5827236 0 0)
(-1.581122 0 0)
(-1.5793245 0 0)
(-1.596092 -0 -0)
(-1.5960488 0 0)
(-1.5959201 0 0)
(-1.5957076 0 0)
(-1.5954128 0 0)
(-1.5950361 0 0)
(-1.5945774 0 0)
(-1.5940363 0 0)
(-1.5934121 0 0)
(-1.5927037 0 0)
(-1.5919097 0 0)
(-1.5910286 0 0)
(-1.5900582 0 0)
(-1.5889966 0 0)
(-1.5878413 0 0)
(-1.5865897 0 0)
(-1.5852388 0 0)
(-1.5837856 0 0)
(-1.5822264 0 0)
(-1.5805575 0 0)
(-1.5786648 0 0)
(-1.596092 -0 -0)
(-1.5960472 0 0)
(-1.5959138 0 0)
(-1.5956938 0 0)
(-1.5953883 0 0)
(-1.594998 0 0)
(-1.5945227 0 0)
(-1.593962 0 0)
(-1.593315 0 0)
(-1.5925806 0 0)
(-1.591757 0 0)
(-1.5908426 0 0)
(-1.5898351 0 0)
(-1.588732 0 0)
(-1.5875306 0 0)
(-1.5862281 0 0)
(-1.5848208 0 0)
(-1.5833055 0 0)
(-1.5816781 0 0)
(-1.5799345 0 0)
(-1.5779421 0 0)
(-1.596092 -0 -0)
(-1.5960456 0 0)
(-1.5959072 0 0)
(-1.5956789 0 0)
(-1.5953621 0 0)
(-1.5949572 0 0)
(-1.5944641 0 0)
(-1.5938823 0 0)
(-1.5932108 0 0)
(-1.5924483 0 0)
(-1.5915929 0 0)
(-1.5906426 0 0)
(-1.5895949 0 0)
(-1.5884472 0 0)
(-1.5871961 0 0)
(-1.5858385 0 0)
(-1.5843706 0 0)
(-1.5827884 0 0)
(-1.5810875 0 0)
(-1.5792635 0 0)
(-1.5771687 0 0)
(-1.596092 -0 -0)
(-1.5960438 0 0)
(-1.5959002 0 0)
(-1.5956632 0 0)
(-1.5953343 0 0)
(-1.5949138 0 0)
(-1.5944018 0 0)
(-1.5937975 0 0)
(-1.5931 0 0)
(-1.5923076 0 0)
(-1.5914184 0 0)
(-1.5904301 0 0)
(-1.5893399 0 0)
(-1.5881447 0 0)
(-1.5868412 0 0)
(-1.5854254 0 0)
(-1.5838934 0 0)
(-1.5822406 0 0)
(-1.5804623 0 0)
(-1.5785536 0 0)
(-1.5763551 0 0)
(-1.596092 -0 -0)
(-1.596042 0 0)
(-1.595893 0 0)
(-1.5956468 0 0)
(-1.5953051 0 0)
(-1.5948683 0 0)
(-1.5943363 0 0)
(-1.5937086 0 0)
(-1.5929836 0 0)
(-1.5921599 0 0)
(-1.5912352 0 0)
(-1.590207 0 0)
(-1.5890722 0 0)
(-1.5878276 0 0)
(-1.5864691 0 0)
(-1.5849928 0 0)
(-1.583394 0 0)
(-1.581668 0 0)
(-1.5798091 0 0)
(-1.5778126 0 0)
(-1.5755097 0 0)
(-1.596092 -0 -0)
(-1.5960401 0 0)
(-1.5958855 0 0)
(-1.59563 0 0)
(-1.595275 0 0)
(-1.5948212 0 0)
(-1.5942685 0 0)
(-1.5936161 0 0)
(-1.5928627 0 0)
(-1.5920065 0 0)
(-1.5910448 0 0)
(-1.5899753 0 0)
(-1.5887943 0 0)
(-1.5874984 0 0)
(-1.5860832 0 0)
(-1.5845444 0 0)
(-1.5828767 0 0)
(-1.5810752 0 0)
(-1.5791336 0 0)
(-1.5770464 0 0)
(-1.57464 0 0)
(-1.596092 -0 -0)
(-1.5960382 0 0)
(-1.5958779 0 0)
(-1.5956129 0 0)
(-1.5952443 0 0)
(-1.594773 0 0)
(-1.5941989 0 0)
(-1.5935212 0 0)
(-1.5927385 0 0)
(-1.5918486 0 0)
(-1.5908491 0 0)
(-1.5897368 0 0)
(-1.5885084 0 0)
(-1.5871597 0 0)
(-1.5856863 0 0)
(-1.5840833 0 0)
(-1.5823452 0 0)
(-1.5804663 0 0)
(-1.5784402 0 0)
(-1.5762603 0 0)
(-1.5737523 0 0)
(-1.596092 -0 -0)
(-1.5960362 0 0)
(-1.5958698 0 0)
(-1.5955946 0 0)
(-1.5952115 0 0)
(-1.5947215 0 0)
(-1.5941245 0 0)
(-1.5934197 0 0)
(-1.5926055 0 0)
(-1.5916796 0 0)
(-1.5906395 0 0)
(-1.5894816 0 0)
(-1.5882024 0 0)
(-1.5867974 0 0)
(-1.5852621 0 0)
(-1.5835908 0 0)
(-1.5817781 0 0)
(-1.5798173 0 0)
(-1.5777021 0 0)
(-1.5754248 0 0)
(-1.5728155 0 0)
(-1.596092 -0 -0)
(-1.5960528 0 0)
(-1.5959358 0 0)
(-1.5957427 0 0)
(-1.5954747 0 0)
(-1.5951318 0 0)
(-1.5947144 0 0)
(-1.5942218 0 0)
(-1.5936535 0 0)
(-1.5930086 0 0)
(-1.5922862 0 0)
(-1.5914846 0 0)
(-1.5906024 0 0)
(-1.5896378 0 0)
(-1.5885892 0 0)
(-1.5874542 0 0)
(-1.5862307 0 0)
(-1.5849164 0 0)
(-1.5835089 0 0)
(-1.5820052 0 0)
(-1.5800696 0 0)
(-1.596092 -0 -0)
(-1.5960516 0 0)
(-1.5959312 0 0)
(-1.5957324 0 0)
(-1.5954565 0 0)
(-1.5951038 0 0)
(-1.5946743 0 0)
(-1.5941677 0 0)
(-1.5935834 0 0)
(-1.5929204 0 0)
(-1.5921777 0 0)
(-1.5913538 0 0)
(-1.5904472 0 0)
(-1.5894562 0 0)
(-1.5883787 0 0)
(-1.5872128 0 0)
(-1.5859561 0 0)
(-1.5846062 0 0)
(-1.5831603 0 0)
(-1.5816158 0 0)
(-1.579908 0 0)
(-1.596092 -0 -0)
(-1.5960502 0 0)
(-1.5959258 0 0)
(-1.5957205 0 0)
(-1.5954355 0 0)
(-1.5950714 0 0)
(-1.5946279 0 0)
(-1.5941049 0 0)
(-1.5935016 0 0)
(-1.5928171 0 0)
(-1.5920501 0 0)
(-1.5911992 0 0)
(-1.5902627 0 0)
(-1.5892386 0 0)
(-1.5881249 0 0)
(-1.5869193 0 0)
(-1.585619 0 0)
(-1.5842215 0 0)
(-1.5827236 0 0)
(-1.581122 0 0)
(-1.5793245 0 0)
(-1.596092 -0 -0)
(-1.5960488 0 0)
(-1.5959201 0 0)
(-1.5957076 0 0)
(-1.5954128 0 0)
(-1.5950361 0 0)
(-1.5945774 0 0)
(-1.5940363 0 0)
(-1.5934121 0 0)
(-1.5927037 0 0)
(-1.5919097 0 0)
(-1.5910286 0 0)
(-1.5900582 0 0)
(-1.5889966 0 0)
(-1.5878413 0 0)
(-1.5865897 0 0)
(-1.5852388 0 0)
(-1.5837856 0 0)
(-1.5822264 0 0)
(-1.5805575 0 0)
(-1.5786648 0 0)
(-1.596092 -0 -0)
(-1.5960472 0 0)
(-1.5959138 0 0)
(-1.5956938 0 0)
(-1.5953883 0 0)
(-1.594998 0 0)
(-1.5945227 0 0)
(-1.593962 0 0)
(-1.593315 0 0)
(-1.5925806 0 0)
(-1.591757 0 0)
(-1.5908426 0 0)
(-1.5898351 0 0)
(-1.588732 0 0)
(-1.5875306 0 0)
(-1.5862281 0 0)
(-1.5848208 0 0)
(-1.5833055 0 0)
(-1.5816781 0 0)
(-1.5799345 0 0)
(-1.5779421 0 0)
(-1.596092 -0 -0)
(-1.5960456 0 0)
(-1.5959072 0 0)
(-1.5956789 0 0)
(-1.5953621 0 0)
(-1.5949572 0 0)
(-1.5944641 0 0)
(-1.5938823 0 0)
(-1.5932108 0 0)
(-1.5924483 0 0)
(-1.5915929 0 0)
(-1.5906426 0 0)
(-1.5895949 0 0)
(-1.5884472 0 0)
(-1.5871961 0 0)
(-1.5858385 0 0)
(-1.5843706 0 0)
(-1.5827884 0 0)
(-1.5810875 0 0)
(-1.5792635 0 0)
(-1.5771687 0 0)
(-1.596092 -0 -0)
(-1.5960438 0 0)
(-1.5959002 0 0)
(-1.5956632 0 0)
(-1.5953343 0 0)
(-1.5949138 0 0)
(-1.5944018 0 0)
(-1.5937975 0 0)
(-1.5931 0 0)
(-1.5923076 0 0)
(-1.5914184 0 0)
(-1.5904301 0 0)
(-1.5893399 0 0)
(-1.5881447 0 0)
(-1.5868412 0 0)
(-1.5854254 0 0)
(-1.5838934 0 0)
(-1.5822406 0 0)
(-1.5804623 0 0)
(-1.5785536 0 0)
(-1.5763551 0 0)
(-1.596092 -0 -0)
(-1.596042 0 0)
(-1.595893 0 0)
(-1.5956468 0 0)
(-1.5953051 0 0)
(-1.5948683 0 0)
(-1.5943363 0 0)
(-1.5937086 0 0)
(-1.5929836 0 0)
(-1.5921599 0 0)
(-1.5912352 0 0)
(-1.590207 0 0)
(-1.5890722 0 0)
(-1.5878276 0 0)
(-1.5864691 0 0)
(-1.5849928 0 0)
(-1.583394 0 0)
(-1.581668 0 0)
(-1.5798091 0 0)
(-1.5778126 0 0)
(-1.5755097 0 0)
(-1.596092 -0 -0)
(-1.5960401 0 0)
(-1.5958855 0 0)
(-1.59563 0 0)
(-1.595275 0 0)
(-1.5948212 0 0)
(-1.5942685 0 0)
(-1.5936161 0 0)
(-1.5928627 0 0)
(-1.5920065 0 0)
(-1.5910448 0 0)
(-1.5899753 0 0)
(-1.5887943 0 0)
(-1.5874984 0 0)
(-1.5860832 0 0)
(-1.5845444 0 0)
(-1.5828767 0 0)
(-1.5810752 0 0)
(-1.5791336 0 0)
(-1.5770464 0 0)
(-1.57464 0 0)
(-1.596092 -0 -0)
(-1.5960382 0 0)
(-1.5958779 0 0)
(-1.5956129 0 0)
(-1.5952443 0 0)
(-1.594773 0 0)
(-1.5941989 0 0)
(-1.5935212 0 0)
(-1.5927385 0 0)
(-1.5918486 0 0)
(-1.5908491 0 0)
(-1.5897368 0 0)
(-1.5885084 0 0)
(-1.5871597 0 0)
(-1.5856863 0 0)
(-1.5840833 0 0)
(-1.5823452 0 0)
(-1.5804663 0 0)
(-1.5784402 0 0)
(-1.5762603 0 0)
(-1.5737523 0 0)
(-1.596092 -0 -0)
(-1.5960362 0 0)
(-1.5958698 0 0)
(-1.5955946 0 0)
(-1.5952115 0 0)
(-1.5947215 0 0)
(-1.5941245 0 0)
(-1.5934197 0 0)
(-1.5926055 0 0)
(-1.5916796 0 0)
(-1.5906395 0 0)
(-1.5894816 0 0)
(-1.5882024 0 0)
(-1.5867974 0 0)
(-1.5852621 0 0)
(-1.5835908 0 0)
(-1.5817781 0 0)
(-1.5798173 0 0)
(-1.5777021 0 0)
(-1.5754248 0 0)
(-1.5728155 0 0)
(-1.596092 -0 -0)
(-1.5960615 0 0)
(-1.5959704 0 0)
(-1.5958192 0 0)
(-1.5956076 0 0)
(-1.5953348 0 0)
(-1.5949994 0 0)
(-1.594599 0 0)
(-1.5941309 0 0)
(-1.593592 0 0)
(-1.5929791 0 0)
(-1.5922883 0 0)
(-1.591516 0 0)
(-1.5906578 0 0)
(-1.5897095 0 0)
(-1.5886665 0 0)
(-1.5875239 0 0)
(-1.5862765 0 0)
(-1.5849193 0 0)
(-1.5834464 0 0)
(-1.5817159 0 0)
(-1.596092 -0 -0)
(-1.5960606 0 0)
(-1.5959667 0 0)
(-1.5958108 0 0)
(-1.5955927 0 0)
(-1.5953118 0 0)
(-1.5949666 0 0)
(-1.5945551 0 0)
(-1.5940749 0 0)
(-1.5935232 0 0)
(-1.5928969 0 0)
(-1.5921925 0 0)
(-1.5914063 0 0)
(-1.5905344 0 0)
(-1.5895724 0 0)
(-1.5885157 0 0)
(-1.5873596 0 0)
(-1.5860988 0 0)
(-1.5847284 0 0)
(-1.5832424 0 0)
(-1.5815026 0 0)
(-1.596092 -0 -0)
(-1.5960596 0 0)
(-1.5959628 0 0)
(-1.5958021 0 0)
(-1.5955774 0 0)
(-1.5952882 0 0)
(-1.5949333 0 0)
(-1.594511 0 0)
(-1.5940191 0 0)
(-1.593455 0 0)
(-1.5928159 0 0)
(-1.5920985 0 0)
(-1.5912995 0 0)
(-1.5904147 0 0)
(-1.5894401 0 0)
(-1.5883712 0 0)
(-1.5872033 0 0)
(-1.5859313 0 0)
(-1.5845502 0 0)
(-1.5830545 0 0)
(-1.581312 0 0)
(-1.596092 -0 -0)
(-1.5960587 0 0)
(-1.5959591 0 0)
(-1.5957939 0 0)
(-1.595563 0 0)
(-1.5952661 0 0)
(-1.5949023 0 0)
(-1.5944701 0 0)
(-1.5939676 0 0)
(-1.5933925 0 0)
(-1.5927422 0 0)
(-1.5920136 0 0)
(-1.5912035 0 0)
(-1.5903081 0 0)
(-1.5893235 0 0)
(-1.5882453 0 0)
(-1.5870691 0 0)
(-1.5857901 0 0)
(-1.5844033 0 0)
(-1.5829031 0 0)
(-1.5811664 0 0)
(-1.596092 -0 -0)
(-1.5960578 0 0)
(-1.5959556 0 0)
(-1.5957861 0 0)
(-1.5955494 0 0)
(-1.5952455 0 0)
(-1.5948735 0 0)
(-1.5944323 0 0)
(-1.5939203 0 0)
(-1.5933352 0 0)
(-1.5926749 0 0)
(-1.5919364 0 0)
(-1.5911168 0 0)
(-1.5902126 0 0)
(-1.5892201 0 0)
(-1.5881352 0 0)
(-1.5869538 0 0)
(-1.5856712 0 0)
(-1.5842826 0 0)
(-1.5827829 0 0)
(-1.5810604 0 0)
(-1.596092 -0 -0)
(-1.5960569 0 0)
(-1.5959523 0 0)
(-1.5957788 0 0)
(-1.5955367 0 0)
(-1.5952261 0 0)
(-1.5948466 0 0)
(-1.5943971 0 0)
(-1.5938761 0 0)
(-1.5932819 0 0)
(-1.5926124 0 0)
(-1.591865 0 0)
(-1.591037 0 0)
(-1.5901252 0 0)
(-1.5891264 0 0)
(-1.5880366 0 0)
(-1.5868521 0 0)
(-1.5855683 0 0)
(-1.5841812 0 0)
(-1.5826855 0 0)
(-1.5809842 0 0)
(-1.596092 -0 -0)
(-1.5960561 0 0)
(-1.5959491 0 0)
(-1.5957717 0 0)
(-1.5955246 0 0)
(-1.5952078 0 0)
(-1.5948211 0 0)
(-1.5943636 0 0)
(-1.5938341 0 0)
(-1.5932311 0 0)
(-1.5925529 0 0)
(-1.5917969 0 0)
(-1.590961 0 0)
(-1.5900422 0 0)
(-1.5890377 0 0)
(-1.5879438 0 0)
(-1.5867572 0 0)
(-1.5854737 0 0)
(-1.5840895 0 0)
(-1.5825998 0 0)
(-1.5809255 0 0)
(-1.596092 -0 -0)
(-1.5960553 0 0)
(-1.5959459 0 0)
(-1.5957648 0 0)
(-1.5955127 0 0)
(-1.5951899 0 0)
(-1.5947962 0 0)
(-1.5943308 0 0)
(-1.5937929 0 0)
(-1.5931812 0 0)
(-1.592494 0 0)
(-1.5917294 0 0)
(-1.5908852 0 0)
(-1.589959 0 0)
(-1.5889483 0 0)
(-1.5878499 0 0)
(-1.5866607 0 0)
(-1.5853771 0 0)
(-1.5839957 0 0)
(-1.5825119 0 0)
(-1.5808684 0 0)
(-1.596092 -0 -0)
(-1.5960545 0 0)
(-1.5959428 0 0)
(-1.595758 0 0)
(-1.5955008 0 0)
(-1.595172 0 0)
(-1.5947711 0 0)
(-1.5942978 0 0)
(-1.593751 0 0)
(-1.5931301 0 0)
(-1.5924332 0 0)
(-1.5916589 0 0)
(-1.5908052 0 0)
(-1.5898702 0 0)
(-1.5888515 0 0)
(-1.5877464 0 0)
(-1.586552 0 0)
(-1.5852659 0 0)
(-1.5838842 0 0)
(-1.5824035 0 0)
(-1.5807926 0 0)
(-1.596092 -0 -0)
(-1.5960537 0 0)
(-1.5959395 0 0)
(-1.5957509 0 0)
(-1.5954888 0 0)
(-1.5951537 0 0)
(-1.5947453 0 0)
(-1.5942634 0 0)
(-1.5937072 0 0)
(-1.5930758 0 0)
(-1.5923679 0 0)
(-1.5915822 0 0)
(-1.5907169 0 0)
(-1.5897703 0 0)
(-1.5887401 0 0)
(-1.5876245 0 0)
(-1.5864205 0 0)
(-1.5851262 0 0)
(-1.5837382 0 0)
(-1.582254 0 0)
(-1.5806763 0 0)
(-1.596092 -0 -0)
(-1.5960615 0 0)
(-1.5959704 0 0)
(-1.5958192 0 0)
(-1.5956076 0 0)
(-1.5953348 0 0)
(-1.5949994 0 0)
(-1.594599 0 0)
(-1.5941309 0 0)
(-1.593592 0 0)
(-1.5929791 0 0)
(-1.5922883 0 0)
(-1.591516 0 0)
(-1.5906578 0 0)
(-1.5897095 0 0)
(-1.5886665 0 0)
(-1.5875239 0 0)
(-1.5862765 0 0)
(-1.5849193 0 0)
(-1.5834464 0 0)
(-1.5817159 0 0)
(-1.596092 -0 -0)
(-1.5960606 0 0)
(-1.5959667 0 0)
(-1.5958108 0 0)
(-1.5955927 0 0)
(-1.5953118 0 0)
(-1.5949666 0 0)
(-1.5945551 0 0)
(-1.5940749 0 0)
(-1.5935232 0 0)
(-1.5928969 0 0)
(-1.5921925 0 0)
(-1.5914063 0 0)
(-1.5905344 0 0)
(-1.5895724 0 0)
(-1.5885157 0 0)
(-1.5873596 0 0)
(-1.5860988 0 0)
(-1.5847284 0 0)
(-1.5832424 0 0)
(-1.5815026 0 0)
(-1.596092 -0 -0)
(-1.5960596 0 0)
(-1.5959628 0 0)
(-1.5958021 0 0)
(-1.5955774 0 0)
(-1.5952882 0 0)
(-1.5949333 0 0)
(-1.594511 0 0)
(-1.5940191 0 0)
(-1.593455 0 0)
(-1.5928159 0 0)
(-1.5920985 0 0)
(-1.5912995 0 0)
(-1.5904147 0 0)
(-1.5894401 0 0)
(-1.5883712 0 0)
(-1.5872033 0 0)
(-1.5859313 0 0)
(-1.5845502 0 0)
(-1.5830545 0 0)
(-1.581312 0 0)
(-1.596092 -0 -0)
(-1.5960587 0 0)
(-1.5959591 0 0)
(-1.5957939 0 0)
(-1.595563 0 0)
(-1.5952661 0 0)
(-1.5949023 0 0)
(-1.5944701 0 0)
(-1.5939676 0 0)
(-1.5933925 0 0)
(-1.5927422 0 0)
(-1.5920136 0 0)
(-1.5912035 0 0)
(-1.5903081 0 0)
(-1.5893235 0 0)
(-1.5882453 0 0)
(-1.5870691 0 0)
(-1.5857901 0 0)
(-1.5844033 0 0)
(-1.5829031 0 0)
(-1.5811664 0 0)
(-1.596092 -0 -0)
(-1.5960578 0 0)
(-1.5959556 0 0)
(-1.5957861 0 0)
(-1.5955494 0 0)
(-1.5952455 0 0)
(-1.5948735 0 0)
(-1.5944323 0 0)
(-1.5939203 0 0)
(-1.5933352 0 0)
(-1.5926749 0 0)
(-1.5919364 0 0)
(-1.5911168 0 0)
(-1.5902126 0 0)
(-1.5892201 0 0)
(-1.5881352 0 0)
(-1.5869538 0 0)
(-1.5856712 0 0)
(-1.5842826 0 0)
(-1.5827829 0 0)
(-1.5810604 0 0)
(-1.596092 -0 -0)
(-1.5960569 0 0)
(-1.5959523 0 0)
(-1.5957788 0 0)
(-1.5955367 0 0)
(-1.5952261 0 0)
(-1.5948466 0 0)
(-1.5943971 0 0)
(-1.5938761 0 0)
(-1.5932819 0 0)
(-1.5926124 0 0)
(-1.591865 0 0)
(-1.591037 0 0)
(-1.5901252 0 0)
(-1.5891264 0 0)
(-1.5880366 0 0)
(-1.5868521 0 0)
(-1.5855683 0 0)
(-1.5841812 0 0)
(-1.5826855 0 0)
(-1.5809842 0 0)
(-1.596092 -0 -0)
(-1.5960561 0 0)
(-1.5959491 0 0)
(-1.5957717 0 0)
(-1.5955246 0 0)
(-1.5952078 0 0)
(-1.5948211 0 0)
(-1.5943636 0 0)
(-1.5938341 0 0)
(-1.5932311 0 0)
(-1.5925529 0 0)
(-1.5917969 0 0)
(-1.590961 0 0)
(-1.5900422 0 0)
(-1.5890377 0 0)
(-1.5879438 0 0)
(-1.5867572 0 0)
(-1.5854737 0 0)
(-1.5840895 0 0)
(-1.5825998 0 0)
(-1.5809255 0 0)
(-1.596092 -0 -0)
(-1.5960553 0 0)
(-1.5959459 0 0)
(-1.5957648 0 0)
(-1.5955127 0 0)
(-1.5951899 0 0)
(-1.5947962 0 0)
(-1.5943308 0 0)
(-1.5937929 0 0)
(-1.5931812 0 0)
(-1.592494 0 0)
(-1.5917294 0 0)
(-1.5908852 0 0)
(-1.589959 0 0)
(-1.5889483 0 0)
(-1.5878499 0 0)
(-1.5866607 0 0)
(-1.5853771 0 0)
(-1.5839957 0 0)
(-1.5825119 0 0)
(-1.5808684 0 0)
(-1.596092 -0 -0)
(-1.5960545 0 0)
(-1.5959428 0 0)
(-1.595758 0 0)
(-1.5955008 0 0)
(-1.595172 0 0)
(-1.5947711 0 0)
(-1.5942978 0 0)
(-1.593751 0 0)
(-1.5931301 0 0)
(-1.5924332 0 0)
(-1.5916589 0 0)
(-1.5908052 0 0)
(-1.5898702 0 0)
(-1.5888515 0 0)
(-1.5877464 0 0)
(-1.586552 0 0)
(-1.5852659 0 0)
(-1.5838842 0 0)
(-1.5824035 0 0)
(-1.5807926 0 0)
(-1.596092 -0 -0)
(-1.5960537 0 0)
(-1.5959395 0 0)
(-1.5957509 0 0)
(-1.5954888 0 0)
(-1.5951537 0 0)
(-1.5947453 0 0)
(-1.5942634 0 0)
(-1.5937072 0 0)
(-1.5930758 0 0)
(-1.5923679 0 0)
(-1.5915822 0 0)
(-1.5907169 0 0)
(-1.5897703 0 0)
(-1.5887401 0 0)
(-1.5876245 0 0)
(-1.5864205 0 0)
(-1.5851262 0 0)
(-1.5837382 0 0)
(-1.582254 0 0)
(-1.5806763 0 0)
(-1.5795423 0 0)
(-1.5770434 0 0)
(-1.5743519 0 0)
(-1.5714626 0 0)
(-1.5683724 0 0)
(-1.5650705 0 0)
(-1.5615266 0 0)
(-1.5576873 0 0)
(-1.5534944 0 0)
(-1.5488956 0 0)
(-1.5438366 0 0)
(-1.5382578 0 0)
(-1.5320947 0 0)
(-1.5252831 0 0)
(-1.5177603 0 0)
(-1.5094655 0 0)
(-1.5003409 0 0)
(-1.4903331 0 0)
(-1.4793914 0 0)
(-1.4674409 0 0)
(-1.454393 0 0)
(-1.4401713 0 0)
(-1.4247231 0 0)
(-1.4079957 0 0)
(-1.3899173 0 0)
(-1.3703938 0 0)
(-1.3493047 0 0)
(-1.3265168 0 0)
(-1.3018987 0 0)
(-1.2753335 0 0)
(-1.2467034 0 0)
(-1.2158617 0 0)
(-1.1826583 0 0)
(-1.1469589 0 0)
(-1.1085885 0 0)
(-1.0672965 0 0)
(-1.0227742 0 0)
(-0.97479116 0 0)
(-0.92313956 0 0)
(-0.86744584 0 0)
(-0.80738861 0 0)
(-0.74271207 0 0)
(-0.67302133 0 0)
(-0.5978377 0 0)
(-0.51665903 0 0)
(-0.42892969 0 0)
(-0.33399828 0 0)
(-0.23123425 0 0)
(-0.12001558 0 0)
(0 0 0)
(-1.5793278 0 0)
(-1.5768315 0 0)
(-1.5741426 0 0)
(-1.5712571 0 0)
(-1.5681733 0 0)
(-1.5648822 0 0)
(-1.5613535 0 0)
(-1.5575332 0 0)
(-1.5533621 0 0)
(-1.5487871 0 0)
(-1.5437533 0 0)
(-1.5381996 0 0)
(-1.5320607 0 0)
(-1.5252714 0 0)
(-1.5177694 0 0)
(-1.5094945 0 0)
(-1.5003892 0 0)
(-1.4903994 0 0)
(-1.4794742 0 0)
(-1.4675399 0 0)
(-1.4545073 0 0)
(-1.4402999 0 0)
(-1.4248653 0 0)
(-1.4081521 0 0)
(-1.3900872 0 0)
(-1.3705753 0 0)
(-1.3494971 0 0)
(-1.3267171 0 0)
(-1.3021038 0 0)
(-1.2755421 0 0)
(-1.2469146 0 0)
(-1.216074 0 0)
(-1.1828705 0 0)
(-1.1471724 0 0)
(-1.1088022 0 0)
(-1.0675093 0 0)
(-1.0229843 0 0)
(-0.97499545 0 0)
(-0.92333747 0 0)
(-0.86763534 0 0)
(-0.80756827 0 0)
(-0.74288046 0 0)
(-0.67317617 0 0)
(-0.59797654 0 0)
(-0.51677874 0 0)
(-0.42902882 0 0)
(-0.3340759 0 0)
(-0.23128773 0 0)
(-0.12004266 0 0)
(0 0 0)
(-1.5791478 0 0)
(-1.5766682 0 0)
(-1.573996 0 0)
(-1.5711275 0 0)
(-1.5680624 0 0)
(-1.564793 0 0)
(-1.5612902 0 0)
(-1.5574991 0 0)
(-1.5533601 0 0)
(-1.5488202 0 0)
(-1.543824 0 0)
(-1.5383086 0 0)
(-1.5322071 0 0)
(-1.5254544 0 0)
(-1.5179884 0 0)
(-1.509749 0 0)
(-1.500678 0 0)
(-1.4907227 0 0)
(-1.4798304 0 0)
(-1.4679273 0 0)
(-1.4549255 0 0)
(-1.4407481 0 0)
(-1.4253423 0 0)
(-1.4086568 0 0)
(-1.3906187 0 0)
(-1.3711316 0 0)
(-1.3500758 0 0)
(-1.3273138 0 0)
(-1.3027157 0 0)
(-1.2761665 0 0)
(-1.2475482 0 0)
(-1.2167143 0 0)
(-1.1835154 0 0)
(-1.1478208 0 0)
(-1.1094508 0 0)
(-1.0681555 0 0)
(-1.0236238 0 0)
(-0.97562266 0 0)
(-0.92394927 0 0)
(-0.86822719 0 0)
(-0.80813446 0 0)
(-0.74341495 0 0)
(-0.67367237 0 0)
(-0.59842674 0 0)
(-0.51717417 0 0)
(-0.42936284 0 0)
(-0.33434143 0 0)
(-0.23147463 0 0)
(-0.12014043 0 0)
(0 0 0)
(-1.5790267 0 0)
(-1.5765801 0 0)
(-1.5739401 0 0)
(-1.571103 0 0)
(-1.5680697 0 0)
(-1.564834 0 0)
(-1.561367 0 0)
(-1.5576149 0 0)
(-1.5535191 0 0)
(-1.5490264 0 0)
(-1.5440802 0 0)
(-1.5386167 0 0)
(-1.5325675 0 0)
(-1.5258667 0 0)
(-1.5184528 0 0)
(-1.5102654 0 0)
(-1.501246 0 0)
(-1.4913415 0 0)
(-1.4804989 0 0)
(-1.4686444 0 0)
(-1.4556893 0 0)
(-1.4415572 0 0)
(-1.4261956 0 0)
(-1.4095529 0 0)
(-1.3915552 0 0)
(-1.3721051 0 0)
(-1.3510833 0 0)
(-1.3283501 0 0)
(-1.303776 0 0)
(-1.2772471 0 0)
(-1.2486451 0 0)
(-1.217823 0 0)
(-1.1846313 0 0)
(-1.1489414 0 0)
(-1.1105708 0 0)
(-1.069269 0 0)
(-1.0247247 0 0)
(-0.97670369 0 0)
(-0.92500375 0 0)
(-0.86924754 0 0)
(-0.80911179 0 0)
(-0.74433802 0 0)
(-0.67452952 0 0)
(-0.59920504 0 0)
(-0.51785976 0 0)
(-0.42994347 0 0)
(-0.3348036 0 0)
(-0.2318009 0 0)
(-0.12031184 0 0)
(0 0 0)
(-1.5789591 0 0)
(-1.5765621 0 0)
(-1.5739703 0 0)
(-1.5711799 0 0)
(-1.5681918 0 0)
(-1.5650009 0 0)
(-1.56158 0 0)
(-1.5578769 0 0)
(-1.5538346 0 0)
(-1.5494 0 0)
(-1.5445159 0 0)
(-1.5391171 0 0)
(-1.5331339 0 0)
(-1.5265004 0 0)
(-1.5191549 0 0)
(-1.5110358 0 0)
(-1.5020841 0 0)
(-1.4922476 0 0)
(-1.4814717 0 0)
(-1.4696816 0 0)
(-1.4567894 0 0)
(-1.4427188 0 0)
(-1.4274165 0 0)
(-1.4108307 0 0)
(-1.3928869 0 0)
(-1.3734866 0 0)
(-1.3525098 0 0)
(-1.3298155 0 0)
(-1.3052756 0 0)
(-1.2787751 0 0)
(-1.2501956 0 0)
(-1.2193902 0 0)
(-1.1862095 0 0)
(-1.1505251 0 0)
(-1.1121527 0 0)
(-1.0708415 0 0)
(-1.0262791 0 0)
(-0.97823002 0 0)
(-0.92649289 0 0)
(-0.87068919 0 0)
(-0.81049277 0 0)
(-0.74564227 0 0)
(-0.67574118 0 0)
(-0.60030593 0 0)
(-0.51883042 0 0)
(-0.43076639 0 0)
(-0.33545907 0 0)
(-0.23226397 0 0)
(-0.12055556 0 0)
(0 0 0)
(-1.5789352 0 0)
(-1.5766045 0 0)
(-1.5740767 0 0)
(-1.5713475 0 0)
(-1.5684181 0 0)
(-1.5652839 0 0)
(-1.5619194 0 0)
(-1.5582751 0 0)
(-1.5542961 0 0)
(-1.5499299 0 0)
(-1.5451189 0 0)
(-1.5397972 0 0)
(-1.533894 0 0)
(-1.5273426 0 0)
(-1.5200809 0 0)
(-1.5120465 0 0)
(-1.5031793 0 0)
(-1.4934269 0 0)
(-1.4827343 0 0)
(-1.4710258 0 0)
(-1.4582123 0 0)
(-1.4442181 0 0)
(-1.4289905 0 0)
(-1.4124766 0 0)
(-1.3946 0 0)
(-1.3752614 0 0)
(-1.3543412 0 0)
(-1.3316966 0 0)
(-1.3071998 0 0)
(-1.2807358 0 0)
(-1.2521859 0 0)
(-1.2214025 0 0)
(-1.1882358 0 0)
(-1.1525584 0 0)
(-1.1141836 0 0)
(-1.0728595 0 0)
(-1.0282734 0 0)
(-0.98018935 0 0)
(-0.92840468 0 0)
(-0.87254012 0 0)
(-0.81226635 0 0)
(-0.74731763 0 0)
(-0.67729763 0 0)
(-0.60172048 0 0)
(-0.52007864 0 0)
(-0.43182532 0 0)
(-0.33630262 0 0)
(-0.23286038 0 0)
(-0.12086981 0 0)
(0 0 0)
(-1.5789418 0 0)
(-1.5766932 0 0)
(-1.5742445 0 0)
(-1.571591 0 0)
(-1.5687334 0 0)
(-1.565668 0 0)
(-1.5623703 0 0)
(-1.5587938 0 0)
(-1.5548871 0 0)
(-1.550599 0 0)
(-1.5458722 0 0)
(-1.5406396 0 0)
(-1.5348296 0 0)
(-1.5283749 0 0)
(-1.5212129 0 0)
(-1.5132789 0 0)
(-1.5045124 0 0)
(-1.4948613 0 0)
(-1.4842686 0 0)
(-1.4726575 0 0)
(-1.459939 0 0)
(-1.4460371 0 0)
(-1.4308991 0 0)
(-1.4144712 0 0)
(-1.3966753 0 0)
(-1.3774109 0 0)
(-1.3565579 0 0)
(-1.3339738 0 0)
(-1.3095304 0 0)
(-1.2831112 0 0)
(-1.2545972 0 0)
(-1.2238412 0 0)
(-1.1906925 0 0)
(-1.1550235 0 0)
(-1.1166455 0 0)
(-1.0753061 0 0)
(-1.0306914 0 0)
(-0.98256524 0 0)
(-0.93072369 0 0)
(-0.87478569 0 0)
(-0.81441802 0 0)
(-0.74935021 0 0)
(-0.67918648 0 0)
(-0.60343763 0 0)
(-0.52159446 0 0)
(-0.43311184 0 0)
(-0.33732784 0 0)
(-0.23358544 0 0)
(-0.121252 0 0)
(0 0 0)
(-1.5789621 0 0)
(-1.5768108 0 0)
(-1.5744558 0 0)
(-1.5718918 0 0)
(-1.5691193 0 0)
(-1.5661344 0 0)
(-1.5629136 0 0)
(-1.5594134 0 0)
(-1.5555871 0 0)
(-1.5513868 0 0)
(-1.546755 0 0)
(-1.5416233 0 0)
(-1.5359189 0 0)
(-1.5295749 0 0)
(-1.5225274 0 0)
(-1.5147099 0 0)
(-1.5060607 0 0)
(-1.4965271 0 0)
(-1.486051 0 0)
(-1.4745543 0 0)
(-1.4619467 0 0)
(-1.4481522 0 0)
(-1.433119 0 0)
(-1.4167918 0 0)
(-1.3990898 0 0)
(-1.3799112 0 0)
(-1.3591372 0 0)
(-1.3366246 0 0)
(-1.3122441 0 0)
(-1.2858781 0 0)
(-1.2574072 0 0)
(-1.2266843 0 0)
(-1.1935574 0 0)
(-1.1578989 0 0)
(-1.1195174 0 0)
(-1.0781597 0 0)
(-1.0335119 0 0)
(-0.98533784 0 0)
(-0.93343052 0 0)
(-0.87740712 0 0)
(-0.81693014 0 0)
(-0.75172375 0 0)
(-0.68139242 0 0)
(-0.60544341 0 0)
(-0.52336582 0 0)
(-0.43461583 0 0)
(-0.33852654 0 0)
(-0.23443349 0 0)
(-0.12169917 0 0)
(0 0 0)
(-1.5789747 0 0)
(-1.576936 0 0)
(-1.5746892 0 0)
(-1.5722286 0 0)
(-1.5695546 0 0)
(-1.5666625 0 0)
(-1.5635276 0 0)
(-1.560113 0 0)
(-1.5563761 0 0)
(-1.5522712 0 0)
(-1.5477423 0 0)
(-1.5427217 0 0)
(-1.5371358 0 0)
(-1.5309173 0 0)
(-1.5239998 0 0)
(-1.516314 0 0)
(-1.5077978 0 0)
(-1.4983984 0 0)
(-1.488055 0 0)
(-1.4766886 0 0)
(-1.4642082 0 0)
(-1.4505369 0 0)
(-1.4356234 0 0)
(-1.4194112 0 0)
(-1.4018161 0 0)
(-1.3827355 0 0)
(-1.3620514 0 0)
(-1.3396213 0 0)
(-1.3153149 0 0)
(-1.2890106 0 0)
(-1.2605894 0 0)
(-1.2299053 0 0)
(-1.1968052 0 0)
(-1.1611591 0 0)
(-1.1227737 0 0)
(-1.0813959 0 0)
(-1.0367116 0 0)
(-0.98848369 0 0)
(-0.93650283 0 0)
(-0.88038309 0 0)
(-0.81978203 0 0)
(-0.75441854 0 0)
(-0.68389754 0 0)
(-0.607722 0 0)
(-0.52537871 0 0)
(-0.4363253 0 0)
(-0.33988924 0 0)
(-0.2353977 0 0)
(-0.12220774 0 0)
(0 0 0)
(-1.5789588 0 0)
(-1.5770498 0 0)
(-1.5749269 0 0)
(-1.5725854 0 0)
(-1.5700227 0 0)
(-1.5672325 0 0)
(-1.564193 0 0)
(-1.560872 0 0)
(-1.5572317 0 0)
(-1.5532287 0 0)
(-1.5488107 0 0)
(-1.5439114 0 0)
(-1.5384572 0 0)
(-1.5323784 0 0)
(-1.525605 0 0)
(-1.5180647 0 0)
(-1.5096953 0 0)
(-1.5004445 0 0)
(-1.4902504 0 0)
(-1.479032 0 0)
(-1.4666941 0 0)
(-1.4531594 0 0)
(-1.4383802 0 0)
(-1.4222976 0 0)
(-1.4048218 0 0)
(-1.3858497 0 0)
(-1.3652668 0 0)
(-1.3429305 0 0)
(-1.3187084 0 0)
(-1.2924745 0 0)
(-1.2641096 0 0)
(-1.2334702 0 0)
(-1.2004016 0 0)
(-1.1647706 0 0)
(-1.1263812 0 0)
(-1.0849812 0 0)
(-1.040257 0 0)
(-0.9919709 0 0)
(-0.93990943 0 0)
(-0.88368351 0 0)
(-0.82294539 0 0)
(-0.75740839 0 0)
(-0.68667734 0 0)
(-0.61025107 0 0)
(-0.52761387 0 0)
(-0.43822405 0 0)
(-0.34140307 0 0)
(-0.23646935 0 0)
(-0.1227732 0 0)
(0 0 0)
(-1.57845 0 0)
(-1.5766581 0 0)
(-1.5746494 0 0)
(-1.5724174 0 0)
(-1.5699592 0 0)
(-1.5672623 0 0)
(-1.5643084 0 0)
(-1.5610706 0 0)
(-1.5575148 0 0)
(-1.5535986 0 0)
(-1.5492739 0 0)
(-1.5444769 0 0)
(-1.5391334 0 0)
(-1.5331727 0 0)
(-1.526524 0 0)
(-1.5191128 0 0)
(-1.510876 0 0)
(-1.5017621 0 0)
(-1.4917092 0 0)
(-1.4806316 0 0)
(-1.4684302 0 0)
(-1.4550311 0 0)
(-1.4403885 0 0)
(-1.4244396 0 0)
(-1.4070903 0 0)
(-1.3882374 0 0)
(-1.3677679 0 0)
(-1.3455406 0 0)
(-1.321421 0 0)
(-1.295279 0 0)
(-1.2669935 0 0)
(-1.2364251 0 0)
(-1.2034161 0 0)
(-1.1678299 0 0)
(-1.1294686 0 0)
(-1.0880808 0 0)
(-1.0433539 0 0)
(-0.99504637 0 0)
(-0.94294268 0 0)
(-0.88665047 0 0)
(-0.82581494 0 0)
(-0.76014474 0 0)
(-0.68924421 0 0)
(-0.61260724 0 0)
(-0.52971449 0 0)
(-0.44002539 0 0)
(-0.34285466 0 0)
(-0.23751109 0 0)
(-0.12333744 0 0)
(0 0 0)
(-1.5795423 0 0)
(-1.5770434 0 0)
(-1.5743519 0 0)
(-1.5714626 0 0)
(-1.5683724 0 0)
(-1.5650705 0 0)
(-1.5615266 0 0)
(-1.5576873 0 0)
(-1.5534944 0 0)
(-1.5488956 0 0)
(-1.5438366 0 0)
(-1.5382578 0 0)
(-1.5320947 0 0)
(-1.5252831 0 0)
(-1.5177603 0 0)
(-1.5094655 0 0)
(-1.5003409 0 0)
(-1.4903331 0 0)
(-1.4793914 0 0)
(-1.4674409 0 0)
(-1.454393 0 0)
(-1.4401713 0 0)
(-1.4247231 0 0)
(-1.4079957 0 0)
(-1.3899173 0 0)
(-1.3703938 0 0)
(-1.3493047 0 0)
(-1.3265168 0 0)
(-1.3018987 0 0)
(-1.2753335 0 0)
(-1.2467034 0 0)
(-1.2158617 0 0)
(-1.1826583 0 0)
(-1.1469589 0 0)
(-1.1085885 0 0)
(-1.0672965 0 0)
(-1.0227742 0 0)
(-0.97479116 0 0)
(-0.92313956 0 0)
(-0.86744584 0 0)
(-0.80738861 0 0)
(-0.74271207 0 0)
(-0.67302133 0 0)
(-0.5978377 0 0)
(-0.51665903 0 0)
(-0.42892969 0 0)
(-0.33399828 0 0)
(-0.23123425 0 0)
(-0.12001558 0 0)
(0 0 0)
(-1.5793278 0 0)
(-1.5768315 0 0)
(-1.5741426 0 0)
(-1.5712571 0 0)
(-1.5681733 0 0)
(-1.5648822 0 0)
(-1.5613535 0 0)
(-1.5575332 0 0)
(-1.5533621 0 0)
(-1.5487871 0 0)
(-1.5437533 0 0)
(-1.5381996 0 0)
(-1.5320607 0 0)
(-1.5252714 0 0)
(-1.5177694 0 0)
(-1.5094945 0 0)
(-1.5003892 0 0)
(-1.4903994 0 0)
(-1.4794742 0 0)
(-1.4675399 0 0)
(-1.4545073 0 0)
(-1.4402999 0 0)
(-1.4248653 0 0)
(-1.4081521 0 0)
(-1.3900872 0 0)
(-1.3705753 0 0)
(-1.3494971 0 0)
(-1.3267171 0 0)
(-1.3021038 0 0)
(-1.2755421 0 0)
(-1.2469146 0 0)
(-1.216074 0 0)
(-1.1828705 0 0)
(-1.1471724 0 0)
(-1.1088022 0 0)
(-1.0675093 0 0)
(-1.0229843 0 0)
(-0.97499545 0 0)
(-0.92333747 0 0)
(-0.86763534 0 0)
(-0.80756827 0 0)
(-0.74288046 0 0)
(-0.67317617 0 0)
(-0.59797654 0 0)
(-0.51677874 0 0)
(-0.42902882 0 0)
(-0.3340759 0 0)
(-0.23128773 0 0)
(-0.12004266 0 0)
(0 0 0)
(-1.5791478 0 0)
(-1.5766682 0 0)
(-1.573996 0 0)
(-1.5711275 0 0)
(-1.5680624 0 0)
(-1.564793 0 0)
(-1.5612902 0 0)
(-1.5574991 0 0)
(-1.5533601 0 0)
(-1.5488202 0 0)
(-1.543824 0 0)
(-1.5383086 0 0)
(-1.5322071 0 0)
(-1.5254544 0 0)
(-1.5179884 0 0)
(-1.509749 0 0)
(-1.500678 0 0)
(-1.4907227 0 0)
(-1.4798304 0 0)
(-1.4679273 0 0)
(-1.4549255 0 0)
(-1.4407481 0 0)
(-1.4253423 0 0)
(-1.4086568 0 0)
(-1.3906187 0 0)
(-1.3711316 0 0)
(-1.3500758 0 0)
(-1.3273138 0 0)
(-1.3027157 0 0)
(-1.2761665 0 0)
(-1.2475482 0 0)
(-1.2167143 0 0)
(-1.1835154 0 0)
(-1.1478208 0 0)
(-1.1094508 0 0)
(-1.0681555 0 0)
(-1.0236238 0 0)
(-0.97562266 0 0)
(-0.92394927 0 0)
(-0.86822719 0 0)
(-0.80813446 0 0)
(-0.74341495 0 0)
(-0.67367237 0 0)
(-0.59842674 0 0)
(-0.51717417 0 0)
(-0.42936284 0 0)
(-0.33434143 0 0)
(-0.23147463 0 0)
(-0.12014043 0 0)
(0 0 0)
(-1.5790267 0 0)
(-1.5765801 0 0)
(-1.5739401 0 0)
(-1.571103 0 0)
(-1.5680697 0 0)
(-1.564834 0 0)
(-1.561367 0 0)
(-1.5576149 0 0)
(-1.5535191 0 0)
(-1.5490264 0 0)
(-1.5440802 0 0)
(-1.5386167 0 0)
(-1.5325675 0 0)
(-1.5258667 0 0)
(-1.5184528 0 0)
(-1.5102654 0 0)
(-1.501246 0 0)
(-1.4913415 0 0)
(-1.4804989 0 0)
(-1.4686444 0 0)
(-1.4556893 0 0)
(-1.4415572 0 0)
(-1.4261956 0 0)
(-1.4095529 0 0)
(-1.3915552 0 0)
(-1.3721051 0 0)
(-1.3510833 0 0)
(-1.3283501 0 0)
(-1.303776 0 0)
(-1.2772471 0 0)
(-1.2486451 0 0)
(-1.217823 0 0)
(-1.1846313 0 0)
(-1.1489414 0 0)
(-1.1105708 0 0)
(-1.069269 0 0)
(-1.0247247 0 0)
(-0.97670369 0 0)
(-0.92500375 0 0)
(-0.86924754 0 0)
(-0.80911179 0 0)
(-0.74433802 0 0)
(-0.67452952 0 0)
(-0.59920504 0 0)
(-0.51785976 0 0)
(-0.42994347 0 0)
(-0.3348036 0 0)
(-0.2318009 0 0)
(-0.12031184 0 0)
(0 0 0)
(-1.5789591 0 0)
(-1.5765621 0 0)
(-1.5739703 0 0)
(-1.5711799 0 0)
(-1.5681918 0 0)
(-1.5650009 0 0)
(-1.56158 0 0)
(-1.5578769 0 0)
(-1.5538346 0 0)
(-1.5494 0 0)
(-1.5445159 0 0)
(-1.5391171 0 0)
(-1.5331339 0 0)
(-1.5265004 0 0)
(-1.5191549 0 0)
(-1.5110358 0 0)
(-1.5020841 0 0)
(-1.4922476 0 0)
(-1.4814717 0 0)
(-1.4696816 0 0)
(-1.4567894 0 0)
(-1.4427188 0 0)
(-1.4274165 0 0)
(-1.4108307 0 0)
(-1.3928869 0 0)
(-1.3734866 0 0)
(-1.3525098 0 0)
(-1.3298155 0 0)
(-1.3052756 0 0)
(-1.2787751 0 0)
(-1.2501956 0 0)
(-1.2193902 0 0)
(-1.1862095 0 0)
(-1.1505251 0 0)
(-1.1121527 0 0)
(-1.0708415 0 0)
(-1.0262791 0 0)
(-0.97823002 0 0)
(-0.92649289 0 0)
(-0.87068919 0 0)
(-0.81049277 0 0)
(-0.74564227 0 0)
(-0.67574118 0 0)
(-0.60030593 0 0)
(-0.51883042 0 0)
(-0.43076639 0 0)
(-0.33545907 0 0)
(-0.23226397 0 0)
(-0.12055556 0 0)
(0 0 0)
(-1.5789352 0 0)
(-1.5766045 0 0)
(-1.5740767 0 0)
(-1.5713475 0 0)
(-1.5684181 0 0)
(-1.5652839 0 0)
(-1.5619194 0 0)
(-1.5582751 0 0)
(-1.5542961 0 0)
(-1.5499299 0 0)
(-1.5451189 0 0)
(-1.5397972 0 0)
(-1.533894 0 0)
(-1.5273426 0 0)
(-1.5200809 0 0)
(-1.5120465 0 0)
(-1.5031793 0 0)
(-1.4934269 0 0)
(-1.4827343 0 0)
(-1.4710258 0 0)
(-1.4582123 0 0)
(-1.4442181 0 0)
(-1.4289905 0 0)
(-1.4124766 0 0)
(-1.3946 0 0)
(-1.3752614 0 0)
(-1.3543412 0 0)
(-1.3316966 0 0)
(-1.3071998 0 0)
(-1.2807358 0 0)
(-1.2521859 0 0)
(-1.2214025 0 0)
(-1.1882358 0 0)
(-1.1525584 0 0)