/*--------------------------------*- C++ -*----------------------------------*\
| =========                 |                                                 |
| \\      /  F ield         | OpenFOAM: The Open Source CFD Toolbox           |
|  \\    /   O peration     | Version:  v2012                                 |
|   \\  /    A nd           | Website:  www.openfoam.com                      |
|    \\/     M anipulation  |                                                 |
\*---------------------------------------------------------------------------*/
FoamFile
{
    version     2.0;
    format      ascii;
    class       volVectorField;
    location    "53.7971014022953611";
    object      U;
}
// * * * * * * * * * * * * * * * * * * * * * * * * * * * * * * * * * * * * * //

dimensions      [0 1 -1 0 0 0 0];


internalField   nonuniform List<vector> 
9200
(
(2.7044856 -0.0018526429 0)
(2.7081448 -0.0095593245 6.350146e-22)
(2.7117589 0.00072365761 7.6919762e-21)
(2.7135911 -0.017104822 9.6351424e-22)
(2.7184979 -0.0013340259 5.4685305e-22)
(2.7086016 0.0029766127 5.2686982e-21)
(2.7214546 -0.028786644 -2.0561998e-21)
(2.7288162 -0.0035745812 3.6779604e-21)
(2.7163246 0.0061657857 1.4043929e-21)
(2.7024351 0.0053880452 -8.9014955e-21)
(2.7305004 -0.044275794 1.8277521e-22)
(2.7450031 -0.0096451032 4.9512533e-21)
(2.7281483 0.009297093 2.9883919e-21)
(2.7105556 0.014989357 4.3248208e-21)
(2.6911669 0.0075300058 -6.2997425e-21)
(2.7403899 -0.06532823 1.0603824e-20)
(2.765732 -0.019665439 5.945285e-21)
(2.7472365 0.010015121 -8.12802e-21)
(2.7231712 0.024573292 -4.0863547e-21)
(2.6984907 0.023242065 7.1699186e-23)
(2.6764733 0.0091937829 0)
(2.750034 -0.092917317 -1.5277734e-20)
(2.7918452 -0.035598182 -1.0808631e-20)
(2.7725247 0.0081440974 1.1587763e-20)
(2.7436124 0.033783129 -2.1025097e-20)
(2.7101165 0.038921344 -6.0707146e-21)
(2.6822759 0.029950768 -4.0718107e-21)
(2.6594467 0.010317165 -5.9655273e-21)
(2.7584075 -0.12817876 -1.0219713e-20)
(2.8229984 -0.059183987 4.916869e-21)
(2.8057353 0.0023724803 1.307011e-20)
(2.7712211 0.04247864 -2.4520787e-20)
(2.7286622 0.056316972 1.1381949e-20)
(2.6916044 0.050477606 8.9926278e-21)
(2.6633254 0.034482414 8.6627824e-21)
(2.6414608 0.010872543 6.5099634e-21)
(2.764091 -0.17216239 1.2473979e-20)
(2.8592371 -0.092465999 9.7431085e-21)
(2.8476548 -0.0088029257 3.1783131e-20)
(2.8080668 0.050775958 -1.605173e-20)
(2.7538088 0.07552076 -4.4626001e-21)
(2.7060701 0.074297152 1.5837068e-20)
(2.6695945 0.058096633 8.2277078e-21)
(2.6433728 0.036734977 -4.3785457e-21)
(2.6236293 0.010897259 -1.4921577e-21)
(2.7654334 -0.22584367 -3.7984655e-20)
(2.9002208 -0.13802844 -4.6855425e-20)
(2.8998206 -0.026911667 -2.5425659e-20)
(2.8557125 0.058117453 5.9491948e-20)
(2.7872352 0.098048368 -1.2991735e-20)
(2.725305 0.10161698 2.2399572e-20)
(2.6788216 0.085782636 -1.6837433e-20)
(2.6464459 0.06163353 -7.7147395e-21)
(2.6237618 0.036955689 -7.3070998e-21)
(2.6067997 0.010491875 -3.0925146e-21)
(2.7608567 -0.28983582 -4.4465087e-20)
(2.9455917 -0.19888127 1.3695611e-20)
(2.9640706 -0.054574535 -6.2309157e-20)
(2.9166732 0.064392389 3.4782402e-20)
(2.8303779 0.12468408 -1.9545584e-20)
(2.7501033 0.13493078 2.1628554e-21)
(2.6904176 0.11760519 -1.5425451e-21)
(2.6503823 0.090635401 8.7345863e-22)
(2.6239468 0.061603916 -4.4364491e-21)
(2.6054635 0.035570417 2.3680103e-21)
(2.5915151 0.0097768459 2.8472035e-21)
(2.7485199 -0.36562385 -4.5580799e-21)
(2.9945987 -0.2785316 1.6259745e-20)
(3.0432787 -0.095258468 6.8874087e-20)
(2.9945282 0.06864243 -5.0867e-20)
(2.8855476 0.1570361 5.411055e-20)
(2.7810123 0.17593369 -1.4255813e-20)
(2.7041983 0.15634894 -9.4373322e-21)
(2.6544331 0.12344003 -5.0265564e-21)
(2.6232636 0.089872468 -3.561117e-21)
(2.6033081 0.0588352 -3.4721284e-21)
(2.5890625 0.033044909 -1.9144602e-21)
(2.5780647 0.0088645652 -5.4269014e-21)
(2.7278214 -0.45024464 9.5017871e-20)
(3.0421554 -0.38028381 -6.5888899e-20)
(3.137975 -0.15385099 -2.0632469e-19)
(3.0946496 0.069463079 -1.9575721e-20)
(2.9566618 0.19640933 1.1525873e-20)
(2.8189689 0.22746962 -1.8816456e-20)
(2.7195763 0.20378525 -1.1417924e-21)
(2.6576969 0.16254878 3.2839403e-21)
(2.6209781 0.1210179 -2.5717133e-21)
(2.5990129 0.084972182 2.9041034e-21)
(2.5851808 0.054195756 3.336677e-21)
(2.5748351 0.029804119 -4.4128933e-21)
(2.566542 0.0078483864 2.3825692e-22)
(2.6890948 -0.53680218 6.7862433e-21)
(3.0667882 -0.49475089 1.2328341e-20)
(3.236464 -0.22886978 3.6176251e-21)
(3.2156924 0.065064051 -1.8403424e-19)
(3.0492016 0.2445816 -2.3143022e-20)
(2.8662453 0.29266858 1.6307034e-20)
(2.7357721 0.26283864 3.3600711e-21)
(2.6588178 0.20910828 6.7513741e-21)
(2.6158559 0.15700243 0)
(2.5920234 0.11284894 7.5074573e-21)
(2.5783301 0.077396811 6.9034242e-21)
(2.5698022 0.048448589 3.8919672e-21)
(2.5628322 0.026195831 3.8177113e-21)
(2.5569052 0.0067997378 3.0163116e-22)
(2.6305795 -0.61657129 -3.849488e-20)
(3.0470384 -0.60848737 -1.3700774e-19)
(3.2754631 -0.31219902 4.2411844e-19)
(3.329222 0.060818489 1.1712796e-19)
(3.1564536 0.30385359 1.8416504e-20)
(2.9258903 0.37601265 -2.4394689e-21)
(2.752241 0.33672178 -3.0202163e-20)
(2.655918 0.26509965 -1.0061345e-21)
(2.6063308 0.1981455 0)
(2.5810808 0.1438773 2.9959162e-22)
(2.5682318 0.10124981 -1.9617271e-21)
(2.5613398 0.068366549 -4.8733981e-21)
(2.5571331 0.042195044 -1.2539381e-21)
(2.5529573 0.022483284 -1.4862363e-22)
(2.5490269 0.0057695996 -1.3965629e-22)
(2.5499272 -0.68216363 -3.2502951e-20)
(2.967481 -0.70822525 -1.2961627e-19)
(3.2472161 -0.38474839 1.799956e-19)
(3.3517544 0.060056895 -3.300605e-20)
(3.2420762 0.38142639 2.0024744e-19)
(2.9870032 0.48251252 -4.5590231e-20)
(2.7683485 0.43021269 1.1269437e-20)
(2.6465416 0.33219596 8.1602124e-21)
(2.590354 0.24528382 6.1455585e-21)
(2.5648122 0.17769325 1.019349e-20)
(2.5537842 0.12671507 1.1717255e-20)
(2.5494721 0.088033076 5.6252183e-21)
(2.5478233 0.058795772 -1.6812147e-21)
(2.5469725 0.035872562 1.3152079e-21)
(2.545028 0.018852725 -2.4311066e-21)
(2.5427323 0.0047917861 9.6866978e-22)
(2.4503226 -0.72595358 6.6366262e-20)
(2.8337613 -0.7814176 3.9243429e-19)
(3.130388 -0.42806535 2.3439231e-20)
(3.2812235 0.085602887 -2.0585729e-19)
(3.2525415 0.49188883 -1.3264657e-19)
(3.0026643 0.61994116 5.4233806e-20)
(2.7745803 0.54937284 0)
(2.6278108 0.4127671 2.9772444e-20)
(2.5653316 0.29842854 2.1533066e-20)
(2.5415497 0.21429909 3.449417e-21)
(2.5339942 0.1529946 9.0193311e-21)
(2.5333287 0.10807951 1.2301083e-21)
(2.5352073 0.074469448 7.4185403e-21)
(2.5373927 0.049315661 -2.3045171e-21)
(2.5390393 0.02977735 2.0957019e-21)
(2.5388202 0.015426919 1.4824542e-21)
(2.5378265 0.0038862056 -2.369428e-22)
(2.3403623 -0.74901692 4.1389469e-20)
(2.6558928 -0.8281816 -3.8145189e-21)
(2.9279391 -0.43407671 -2.1524171e-19)
(3.0658628 0.15181898 0)
(3.0434336 0.62709748 -1.6933227e-19)
(2.9087383 0.79027569 -9.8031596e-21)
(2.738611 0.69495049 -1.1096217e-20)
(2.5945487 0.50949676 -8.3828321e-21)
(2.5283545 0.35734256 -9.2040457e-21)
(2.509435 0.25272006 -5.2957664e-21)
(2.5077384 0.17964216 -8.1094868e-21)
(2.5123278 0.12750478 -3.9126538e-21)
(2.5186509 0.089623313 1.3582758e-21)
(2.5247528 0.061373625 -1.149118e-21)
(2.5296012 0.040329018 3.2404097e-21)
(2.5330256 0.024094411 -6.4128987e-22)
(2.5340974 0.012279437 5.8939555e-22)
(2.5341126 0.0030625684 -1.0186357e-21)
(2.2279759 -0.75381418 -9.2538549e-20)
(2.4522047 -0.84273864 -3.4600224e-20)
(2.6706718 -0.40900758 -9.4061478e-20)
(2.7780243 0.24722816 -4.0431225e-19)
(2.7535975 0.77448276 1.4715942e-19)
(2.6961026 0.96477917 -7.9157742e-20)
(2.6177968 0.85012051 8.8224535e-21)
(2.5318831 0.61959079 2.5508704e-20)
(2.4764263 0.42133713 2.8638832e-21)
(2.46657 0.29153386 -1.707751e-21)
(2.4739831 0.20530993 -1.1102412e-20)
(2.4858572 0.14571142 4.9489656e-21)
(2.4979317 0.10322059 0)
(2.508625 0.072304551 1.2025815e-21)
(2.5174194 0.049220415 -2.6773718e-21)
(2.5240068 0.032068758 3.2946687e-21)
(2.5286288 0.01892627 -1.6509544e-21)
(2.5306287 0.00944767 -3.558631e-21)
(2.5314061 0.0023260181 -3.3177383e-21)
(2.1205077 -0.74325414 1.2827145e-19)
(2.2424122 -0.82461501 -1.709175e-19)
(2.3867831 -0.35857326 -4.2620085e-20)
(2.4463901 0.35436636 -2.3835068e-19)
(2.4160419 0.92832146 -3.5515602e-19)
(2.3993128 1.125779 -1.2974104e-19)
(2.4010119 0.99345049 -3.0233366e-20)
(2.4127611 0.7271443 -9.102159e-21)
(2.4044332 0.48764116 -1.7917127e-20)
(2.4113466 0.328595 2.3540166e-21)
(2.4319072 0.22838963 1.0476831e-20)
(2.4535432 0.16134852 5.4259506e-22)
(2.4728364 0.11469162 -4.5118775e-21)
(2.4890631 0.081138599 0)
(2.5022302 0.056607823 1.8633802e-21)
(2.5125818 0.038249689 5.4971916e-22)
(2.5202041 0.024648404 -1.5398623e-21)
(2.5255691 0.014317425 2.1528272e-23)
(2.5282007 0.0069432945 -3.2057783e-21)
(2.5295362 0.0016856735 3.4023903e-22)
(2.0238605 -0.71974736 7.5840266e-21)
(2.0425829 -0.78735742 -3.520529e-19)
(2.1029562 -0.28942966 -4.0397719e-20)
(2.1051237 0.46699585 3.1403572e-20)
(2.0592353 1.074571 -4.2654273e-21)
(2.0707145 1.2702393 4.1101476e-19)
(2.1235291 1.1166458 -9.707337e-20)
(2.2221602 0.81217496 -2.5719941e-20)
(2.3021372 0.54647368 -7.0115375e-21)
(2.3425965 0.36106637 1.3267462e-20)
(2.3810934 0.24667022 -2.1273514e-21)
(2.4153279 0.17304365 -5.3300762e-21)
(2.4434424 0.12286627 2.5160297e-21)
(2.4661278 0.087417417 3.6535644e-21)
(2.4842805 0.061641714 3.0554828e-21)
(2.4986094 0.042718417 -2.5852893e-21)
(2.5097035 0.028547815 -5.6989212e-21)
(2.5178378 0.018102116 -2.2684938e-21)
(2.5235969 0.010274141 1.4143024e-22)
(2.5266241 0.0047599963 -5.9047099e-21)
(2.5283358 0.0011411012 1.5993052e-21)
(1.9410086 -0.6856907 -2.5719458e-20)
(1.8631367 -0.73457989 1.8211284e-19)
(1.8407276 -0.20737181 1.8298123e-20)
(1.7815025 0.57595479 -8.9096813e-20)
(1.7196297 1.2051203 1.3196347e-19)
(1.7465259 1.3875309 -3.5300208e-19)
(1.8313105 1.2182744 -3.071303e-20)
(1.9803598 0.86610566 6.6607456e-20)
(2.1592981 0.58147239 2.8381658e-20)
(2.2591251 0.38392123 -1.399593e-21)
(2.3217658 0.25767604 -1.1552726e-20)
(2.3716 0.17907229 -1.5738438e-20)
(2.4101318 0.12673973 1.2863637e-20)
(2.440164 0.090213707 3.667316e-21)
(2.4637984 0.063996985 -4.3138685e-22)
(2.4824589 0.044767152 -2.2386964e-21)
(2.4970719 0.030644141 -2.4828543e-21)
(2.5083388 0.020106311 9.7765753e-21)
(2.5166055 0.012414782 -2.7150423e-22)
(2.5224944 0.0067792286 -2.1982817e-21)
(2.5257332 0.0028834971 8.798207e-21)
(2.5276745 0.00067443303 -5.0365975e-21)
(1.8722538 -0.64507503 -2.5288798e-20)
(1.7100079 -0.67119691 1.7358846e-18)
(1.614617 -0.11986114 4.1189468e-19)
(1.4971746 0.67616519 -1.4789766e-19)
(1.4231812 1.3140711 -6.1728622e-21)
(1.4576314 1.4808824 -6.0335015e-20)
(1.5570576 1.294047 4.2591673e-19)
(1.7261534 0.89159165 -6.0833502e-20)
(1.978658 0.5807959 -5.0412031e-21)
(2.1592778 0.38866435 -2.5391233e-21)
(2.25516 0.25863802 6.6626647e-21)
(2.3232802 0.17773761 -1.112075e-20)
(2.3736662 0.12514609 5.6118143e-21)
(2.4117563 0.088886191 -2.2383463e-21)
(2.4412614 0.062982987 9.4215412e-21)
(2.4644474 0.04419273 -1.8772822e-21)
(2.4827464 0.030374052 -1.2191522e-21)
(2.4970737 0.020294992 -1.2571044e-20)
(2.5081248 0.012862311 1.1128812e-20)
(2.5162536 0.0075432607 -3.727907e-21)
(2.5220753 0.0038022042 2.5712929e-21)
(2.5253816 0.0013023739 1.7816495e-21)
(2.5274817 0.00027664496 2.8439635e-21)
(1.8141791 -0.60135907 -6.6328835e-20)
(1.5858118 -0.60299497 -6.4507468e-19)
(1.4322358 -0.033136792 4.2349205e-19)
(1.2671257 0.76428405 -2.0917634e-19)
(1.1862587 1.3973849 -9.2119636e-20)
(1.223805 1.5498765 3.2162844e-19)
(1.3183293 1.3440352 2.7391352e-20)
(1.4890632 0.89420566 -7.257552e-20)
(1.7799097 0.54496268 1.0070573e-19)
(2.0428139 0.36591842 5.264849e-22)
(2.1835833 0.24645248 1.4310331e-20)
(2.2719161 0.16743965 -5.9456811e-21)
(2.3351983 0.11716115 -1.2991052e-20)
(2.3817655 0.082736155 3.9293011e-21)
(2.4173074 0.058255674 1.5067271e-20)
(2.4450975 0.040505774 -1.8510399e-20)
(2.4670816 0.027631039 -7.6197047e-21)
(2.4845076 0.018240868 1.1151597e-21)
(2.4981926 0.011532753 -4.9017086e-21)
(2.5087706 0.0067253352 -2.8064808e-21)
(2.5165735 0.0034295373 1.4797122e-22)
(2.522184 0.0013062528 -5.6981331e-21)
(2.5254444 -2.2782907e-06 1.6660906e-22)
(2.5275563 -3.8446652e-05 8.4409507e-21)
(1.7698694 -0.5575418 6.7768645e-20)
(1.4907372 -0.53490894 -1.2223923e-18)
(1.2951709 0.048822433 -1.2672952e-18)
(1.0969585 0.83739188 -3.6818482e-19)
(1.0175528 1.4576219 4.4438378e-20)
(1.0507886 1.5976676 -2.6375853e-19)
(1.1237101 1.374498 -2.049488e-19)
(1.2834288 0.87924377 3.9183652e-19)
(1.5872295 0.48191227 1.5031262e-19)
(1.9149771 0.31118878 -2.366632e-21)
(2.1097261 0.21750739 4.9395504e-21)
(2.2198018 0.14708245 -7.8349264e-22)
(2.2962492 0.10206137 -8.54017e-21)
(2.3512888 0.071398082 4.9895954e-21)
(2.39275 0.049454962 -1.343552e-21)
(2.4250209 0.033578598 1.3974596e-20)
(2.450595 0.022085958 -7.0132941e-21)
(2.471003 0.01390778 -5.418687e-22)
(2.4872739 0.0081195715 -4.9305582e-21)
(2.5001044 0.0042008242 6.2112234e-21)
(2.510045 0.0015937922 3.5572424e-21)
(2.5173953 7.2557179e-06 6.1066885e-21)
(2.5226914 -0.00074937937 6.0051903e-22)
(2.52582 -0.001071089 1.1534642e-20)
(2.5279034 -0.00021149282 4.7201063e-21)
(1.736359 -0.51528099 -2.3555839e-20)
(1.4225551 -0.46977573 2.8605928e-19)
(1.2000819 0.12315184 -8.8221743e-19)
(0.98407692 0.89516507 1.0005423e-18)
(0.91779112 1.4990021 1.9060776e-19)
(0.93282951 1.6302368 -6.1644766e-20)
(0.97475239 1.3923494 5.433673e-20)
(1.1153802 0.85152672 3.4581816e-19)
(1.4178288 0.39978466 2.8691998e-22)
(1.7870914 0.22704485 -7.1567481e-20)
(2.0363574 0.16863974 4.7510235e-20)
(2.1699015 0.11616134 -2.3503757e-21)
(2.2586072 0.079605404 -1.0283543e-20)
(2.3215957 0.054718592 -1.199169e-21)
(2.3685159 0.036567714 8.8503441e-21)
(2.4049251 0.023277422 -8.061332e-21)
(2.4338393 0.013756852 -9.3690843e-21)
(2.4570451 0.0070919683 1.7445686e-20)
(2.4757212 0.0026360025 -5.1416007e-21)
(2.4907017 -0.00023647915 -1.639322e-23)
(2.5025614 -0.0018599833 8.3573874e-21)
(2.5117664 -0.0026364721 7.0837639e-21)
(2.5185816 -0.0027947359 7.6787712e-21)
(2.5234905 -0.0024097738 7.2320043e-21)
(2.5264319 -0.0019324536 -6.3663542e-22)
(2.5284071 -0.00036132718 1.8113681e-21)
(1.7105009 -0.47583715 -2.1725274e-19)
(1.3778391 -0.40927898 -1.482777e-20)
(1.1424686 0.18704316 1.4841448e-18)
(0.92468957 0.9395404 2.8255366e-19)
(0.86795083 1.5259076 -2.5239718e-20)
(0.86085513 1.6526294 2.5850312e-19)
(0.87224209 1.4019663 -4.2636331e-19)
(0.98697695 0.81419736 -1.9293654e-19)
(1.2811901 0.30487345 -1.4172155e-19)
(1.6719781 0.12052141 2.1592173e-19)
(1.9671833 0.099206526 -1.968948e-20)
(2.1252566 0.074646323 8.391773e-21)
(2.224235 0.050116952 -9.1454844e-21)
(2.2940323 0.032997959 3.1639229e-21)
(2.3455639 0.019756058 -6.2828978e-22)
(2.3855448 0.0097802087 -3.5492867e-22)
(2.4174059 0.0026513497 2.8612179e-21)
(2.4431175 -0.0020968929 -2.3451354e-20)
(2.4639735 -0.0050268453 5.1074035e-21)
(2.4808888 -0.0065386758 5.273994e-21)
(2.4945368 -0.0070600536 -5.8017436e-21)
(2.5053759 -0.0068037676 -9.0268854e-21)
(2.5137931 -0.006067027 -8.8043801e-21)
(2.5200219 -0.0050468343 3.9184298e-21)
(2.5244944 -0.0037223182 -2.7756242e-23)
(2.5272125 -0.0025995674 -8.2936388e-21)
(2.5290253 -0.00050374046 -5.2260302e-21)
(1.6906147 -0.44020939 1.1376969e-19)
(1.3533675 -0.35449885 7.2467105e-19)
(1.1149137 0.24047313 -1.1840517e-18)
(0.91008386 0.97306739 -2.1901618e-18)
(0.85351486 1.5420376 -2.1600968e-19)
(0.82940425 1.6694541 -7.5393008e-22)
(0.81418366 1.4061654 -2.5654156e-19)
(0.9023251 0.76851891 -9.8719288e-19)
(1.1828377 0.20124446 -5.6491205e-19)
(1.579933 -0.00062392676 3.4518782e-19)
(1.9073794 0.012351737 -1.2803044e-19)
(2.0883963 0.02315735 -6.1000618e-20)
(2.1951383 0.014581561 9.328783e-21)
(2.2699035 0.0069129175 7.4882329e-21)
(2.3248163 -0.00043013587 7.2159275e-21)
(2.3675506 -0.0066134709 -1.9712325e-22)
(2.4018408 -0.010980595 2.7002283e-23)
(2.4297039 -0.013585949 5.7394054e-21)
(2.4524483 -0.014707457 -3.6965876e-21)
(2.4710618 -0.014740888 -7.2393227e-21)
(2.4862667 -0.013928584 6.8113026e-21)
(2.4985965 -0.012557939 -8.0175873e-21)
(2.5084067 -0.010770723 6.7747568e-21)
(2.5160141 -0.0087933498 -1.5037527e-20)
(2.5216275 -0.0068145833 -6.1853644e-21)
(2.5256329 -0.0047339777 -7.6983691e-21)
(2.5280972 -0.003095648 -6.5401596e-23)
(2.52972 -0.00062121412 -5.0239816e-21)
(1.6759152 -0.40879519 1.9756845e-19)
(1.3456488 -0.30611747 4.3565992e-19)
(1.1127433 0.28477766 -1.4697819e-18)
(0.9250107 0.99737351 -1.1757214e-18)
(0.8643516 1.5503632 -6.0616999e-21)
(0.83387247 1.6824621 -1.2062108e-19)
(0.79392895 1.4082493 -7.4196346e-20)
(0.85975425 0.71649555 2.4574164e-19)
(1.1265941 0.091365543 1.7096209e-19)
(1.5170212 -0.13035918 -6.3350774e-19)
(1.8619901 -0.087613897 5.446833e-20)
(2.061247 -0.037178616 -1.9200158e-20)
(2.1730298 -0.025641836 1.2697667e-21)
(2.250241 -0.022654572 -1.0749535e-21)
(2.3070422 -0.023311961 -1.0343953e-21)
(2.3515308 -0.025333246 6.2362628e-21)
(2.3876173 -0.026806146 -3.017035e-22)
(2.4172157 -0.027090092 -5.4316945e-22)
(2.4415453 -0.026285596 -1.7183852e-21)
(2.4615766 -0.024647069 1.4218194e-20)
(2.4781013 -0.022443306 -2.5492665e-21)
(2.4916907 -0.019801836 -5.5578726e-21)
(2.5027503 -0.01691385 -2.084786e-22)
(2.5115475 -0.013887413 1.2297186e-20)
(2.5183417 -0.01090397 1.8678177e-20)
(2.5233269 -0.0081572737 5.5676679e-21)
(2.5268498 -0.0054841426 -3.859175e-21)
(2.5290363 -0.0034455566 0)
(2.5304552 -0.00070725741 9.9642321e-21)
(1.6659976 -0.38176212 -1.0220386e-19)
(1.3508215 -0.26435206 -1.5393415e-18)
(1.1289899 0.32053075 -9.8748372e-19)
(0.95553885 1.0127511 1.2881153e-18)
(0.91464728 1.553038 -7.3159934e-19)
(0.86804183 1.690206 1.1144019e-19)
(0.79246047 1.4071954 -2.2017507e-19)
(0.84791444 0.66134776 7.3893728e-19)
(1.1111372 -0.022298074 1.5467974e-18)
(1.4866187 -0.26273308 -8.0232764e-19)
(1.8350918 -0.19530209 7.3466826e-20)
(2.0451655 -0.10428234 9.6325302e-20)
(2.1591076 -0.068995132 -2.6277064e-20)
(2.2358836 -0.054421117 -3.0277941e-20)
(2.2927712 -0.047950789 -9.0623226e-21)
(2.3378611 -0.045731846 -6.7415265e-21)
(2.3750813 -0.044309131 -5.9327499e-21)
(2.405995 -0.042290766 1.2126129e-23)
(2.4315955 -0.039477899 -8.4393149e-21)
(2.4527724 -0.03610797 -5.0536854e-22)
(2.4703431 -0.03238878 2.7124179e-21)
(2.4849579 -0.028469033 -6.3112295e-21)
(2.4970484 -0.024389933 -8.2378646e-23)
(2.5069038 -0.020288522 -9.2114632e-22)
(2.5147181 -0.016266835 -9.0559032e-21)
(2.5207081 -0.012480239 -1.6574117e-21)
(2.5250639 -0.0091296807 -5.6125078e-21)
(2.5281001 -0.0060066043 4.8498417e-21)
(2.5299936 -0.0036718487 -8.7404864e-21)
(2.5312029 -0.00076250448 3.1707141e-21)
(1.6610683 -0.35700637 8.8754152e-20)
(1.3656434 -0.22820717 -9.2300085e-19)
(1.1567228 0.34929967 1.3127667e-18)
(1.0040129 1.0222995 7.6615974e-19)
(0.97449163 1.5506565 2.8067943e-19)
(0.92450395 1.6925031 6.0171942e-20)
(0.85885968 1.3973094 5.4260062e-19)
(0.88265948 0.60212991 -7.2312014e-19)
(1.1305977 -0.13728645 -3.2034311e-20)
(1.489689 -0.3925992 2.6886922e-19)
(1.8290691 -0.30491793 2.149896e-19)
(2.0415645 -0.17485222 -5.3136657e-20)
(2.1540408 -0.11376447 -1.7986839e-20)
(2.2273701 -0.086820933 -5.8721717e-21)
(2.2823824 -0.073254051 8.1099338e-21)
(2.3267918 -0.067008454 -1.1948282e-20)
(2.3643956 -0.062946195 -6.8398375e-21)
(2.3962365 -0.058778631 -5.481426e-21)
(2.4228452 -0.054009474 2.1413036e-23)
(2.4449194 -0.048852862 0)
(2.4632807 -0.043592161 0)
(2.4786543 -0.038329499 2.4813489e-22)
(2.4915523 -0.033099161 2.6247524e-22)
(2.5022689 -0.02789048 5.9146664e-23)
(2.5109911 -0.022822796 -3.8328007e-21)
(2.5178595 -0.018010785 6.0694223e-21)
(2.5230622 -0.01359683 -2.0951497e-20)
(2.5267955 -0.0097842356 -9.2419793e-21)
(2.5293489 -0.0063337559 -3.8581472e-22)
(2.5309419 -0.0037950438 4.5701676e-22)
(2.5319418 -0.00079063229 -9.3102578e-21)
(1.6612349 -0.33426671 1.8439915e-19)
(1.3897433 -0.19679609 2.7819455e-19)
(1.1929432 0.37285125 1.6964574e-18)
(1.0612408 1.0278508 4.2031024e-20)
(1.0448478 1.5443303 -1.8488899e-20)
(1.0002849 1.6899422 -8.664689e-20)
(0.95068439 1.3794607 6.2596349e-19)
(0.9949306 0.53616808 -2.5235953e-20)
(1.1844046 -0.25176853 -9.4429012e-20)
(1.5241632 -0.51659627 7.4870402e-19)
(1.844123 -0.41192076 -3.0298404e-19)
(2.0508901 -0.24553289 -6.007939e-20)
(2.1578965 -0.15810312 2.950212e-20)
(2.2248901 -0.1184373 2.9919842e-20)
(2.2758883 -0.098142631 3.1283665e-20)
(2.318311 -0.088308988 4.218226e-21)
(2.355582 -0.082122557 -9.1367187e-21)
(2.3879944 -0.076147157 -9.3200214e-21)
(2.4154252 -0.06956188 -5.2686701e-22)
(2.4382201 -0.062640935 -6.804768e-21)
(2.4571446 -0.055788864 2.5448595e-22)
(2.473023 -0.049189865 -7.8790969e-21)
(2.4864713 -0.042801196 3.5110342e-21)
(2.497846 -0.036569642 -5.6001227e-22)
(2.5073095 -0.030472346 1.7894664e-22)
(2.5149672 -0.024640536 1.0651944e-20)
(2.5209283 -0.019211624 2.2547549e-21)
(2.5253661 -0.014322124 3.6227332e-21)
(2.5284899 -0.010171005 8.2863959e-21)
(2.5305703 -0.0064976432 8.7483314e-21)
(2.5318618 -0.0038334594 1.0006741e-21)
(2.5326559 -0.00079618859 -3.6326703e-21)
(1.667349 -0.31462002 -1.0357433e-21)
(1.4221045 -0.17114169 3.6240594e-19)
(1.2364321 0.38871325 -9.3440336e-19)
(1.1236029 1.0288644 -6.5854792e-19)
(1.1216983 1.5346059 -3.742315e-19)
(1.0917947 1.6804071 3.0718453e-20)
(1.071828 1.3537115 -5.8071108e-20)
(1.1247018 0.47002301 -5.0781806e-19)
(1.2806794 -0.36062804 -2.093774e-18)
(1.5852281 -0.63195132 1.0211585e-19)
(1.8790666 -0.51285232 -1.0820682e-19)
(2.0727237 -0.31350821 5.6942053e-20)
(2.1702749 -0.20025104 -4.4491495e-21)
(2.2282628 -0.14788087 -2.4895159e-20)
(2.2730906 -0.12154897 -1.5845451e-20)
(2.3122247 -0.10884306 9.6774001e-21)
(2.3484567 -0.10125345 1.4266631e-20)
(2.3811833 -0.093991794 6.0315998e-21)
(2.4093552 -0.085851705 -8.1889859e-23)
(2.4327915 -0.077219898 -3.2627991e-21)
(2.4521186 -0.068753998 -3.1977187e-21)
(2.4682624 -0.060781684 -8.114555e-21)
(2.4820038 -0.053283995 -7.7904348e-21)
(2.4937967 -0.046080216 -1.5749352e-22)
(2.5038281 -0.039077471 3.3448458e-22)
(2.5121466 -0.032279897 5.5645909e-22)
(2.518802 -0.025850706 9.6481766e-21)
(2.5238933 -0.019952665 1.7117809e-21)
(2.527592 -0.014718087 3.1121704e-21)
(2.530124 -0.010335815 -6.2904985e-21)
(2.5317452 -0.0065281948 -3.7273346e-21)
(2.5327395 -0.0038030872 2.9057932e-21)
(2.5333342 -0.00078362382 2.0935748e-23)
(1.6799426 -0.29793552 -8.4253307e-21)
(1.4608213 -0.14854555 -4.431307e-19)
(1.2896385 0.39308093 -1.2096075e-20)
(1.1931783 1.0213785 -7.6775682e-20)
(1.2016851 1.5205895 9.7605771e-19)
(1.1945839 1.6640553 -7.9513751e-20)
(1.2134872 1.3199908 -9.6609999e-19)
(1.2797701 0.40330719 6.1170007e-19)
(1.4155509 -0.45999278 4.0865005e-19)
(1.6678338 -0.73624191 6.4266767e-20)
(1.9316587 -0.60533556 2.791701e-19)
(2.1059433 -0.37654668 -9.7340135e-21)
(2.1904197 -0.23870506 -5.3449592e-20)
(2.2369979 -0.17398935 1.6320274e-20)
(2.2736277 -0.14247497 -4.0881702e-20)
(2.3081652 -0.12786199 -1.2144165e-20)
(2.3426994 -0.11980503 8.6658937e-21)
(2.3755776 -0.11196022 2.4872207e-21)
(2.4045433 -0.10263416 -8.8224626e-23)
(2.4286691 -0.09239345 1.6168987e-21)
(2.4483286 -0.082268185 -3.1958393e-21)
(2.4645431 -0.072876221 6.9619078e-21)
(2.4783137 -0.064267925 -3.9786666e-21)
(2.4902719 -0.056195348 1.3402557e-20)
(2.5006612 -0.048392998 -8.8756475e-21)
(2.5095054 -0.040785942 8.5372882e-21)
(2.5167691 -0.033436281 -8.8042053e-21)
(2.5224756 -0.026548669 -7.1029392e-22)
(2.5267325 -0.020307922 -9.0158392e-21)
(2.5297196 -0.01483994 -4.743722e-22)
(2.5316809 -0.010318669 -5.4215536e-21)
(2.5328603 -0.0064512977 -1.0847918e-20)
(2.5335657 -0.0037176386 6.1335282e-21)
(2.533969 -0.00075688431 0)
(1.69867 -0.28409834 -8.1124862e-20)
(1.5043878 -0.12946518 -7.1463019e-21)
(1.350893 0.39812435 -2.609363e-20)
(1.2703504 0.99974483 2.9682348e-19)
(1.2880624 1.498947 5.5123348e-19)
(1.3043067 1.6416208 1.0106498e-20)
(1.3677207 1.2785011 5.9217086e-20)
(1.4501348 0.33668106 3.6106369e-19)
(1.5654267 -0.5473576 6.6069852e-19)
(1.7688646 -0.8269884 -2.3974929e-19)
(1.9986856 -0.68784309 2.6521309e-19)
(2.1489624 -0.43285428 7.8249332e-20)
(2.2173644 -0.27243735 2.5388434e-20)
(2.2503724 -0.19589822 3.9470377e-20)
(2.2769645 -0.16017677 1.548424e-20)
(2.3056491 -0.14473122 4.0049967e-21)
(2.3378778 -0.13731173 2.1882201e-20)
(2.3708401 -0.12976134 6.6289242e-21)
(2.4007976 -0.11973589 -6.6408458e-21)
(2.4258123 -0.10802351 -7.3039405e-21)
(2.4458526 -0.09617583 -5.7321597e-22)
(2.4620034 -0.085253781 3.3348091e-23)
(2.4755512 -0.075505692 3.6905151e-21)
(2.4873939 -0.066622836 1.6042287e-21)
(2.4979085 -0.058184363 8.0250908e-21)
(2.5071114 -0.049921313 1.0787264e-21)
(2.5148933 -0.041829281 -4.1600348e-22)
(2.5211726 -0.034046005 -4.0889767e-21)
(2.5259748 -0.026817168 2.8387582e-21)
(2.5294306 -0.020342127 -8.9251223e-22)
(2.5317348 -0.014736062 7.9719602e-22)
(2.533149 -0.01015367 1.4585031e-20)
(2.5339066 -0.0062884486 2.5178165e-21)
(2.5343345 -0.0035886905 -2.0921893e-21)
(2.5345561 -0.00071927124 4.1793471e-21)
(1.723683 -0.27293146 -5.9756376e-20)
(1.5517127 -0.11395044 1.2837059e-18)
(1.4168477 0.39972542 3.9118296e-19)
(1.3531765 0.98038528 -1.2498024e-20)
(1.3815017 1.465776 -2.5952118e-19)
(1.4237295 1.6150999 1.8207207e-20)
(1.5278076 1.2343323 4.1038852e-19)
(1.6265215 0.27042799 -3.5516577e-19)
(1.7239766 -0.6247778 -8.6010303e-19)
(1.8843419 -0.90184312 4.1630289e-20)
(2.0758719 -0.75958843 9.1090067e-20)
(2.1999929 -0.48134123 -6.2845513e-20)
(2.2500891 -0.30031598 4.0814591e-20)
(2.2675886 -0.21304246 -1.3359264e-20)
(2.2824934 -0.17403775 -6.8181753e-21)
(2.3040972 -0.15897058 4.0048974e-21)
(2.3334673 -0.15342471 1.0249974e-20)
(2.3665524 -0.14719162 -1.5369397e-20)
(2.3978472 -0.13705486 8.8025788e-21)
(2.4241151 -0.12405445 8.5633523e-21)
(2.4447265 -0.11038635 2.5188449e-21)
(2.4607632 -0.097754224 6.9348525e-21)
(2.473854 -0.08675279 -9.2348339e-23)
(2.485279 -0.077091564 -2.929712e-23)
(2.4956436 -0.068151775 -3.0534785e-21)
(2.5050125 -0.05945325 -5.1078759e-21)
(2.5131991 -0.050807627 1.4720978e-20)
(2.5200096 -0.042316797 -3.6158409e-21)
(2.5253566 -0.034197183 9.3925387e-21)
(2.5292912 -0.026727383 4.1725369e-22)
(2.5319773 -0.020111272 6.208813e-21)
(2.533628 -0.014448282 -3.1647735e-21)
(2.5345206 -0.0098698162 5.3762286e-21)
(2.5348787 -0.0060574894 3.1801146e-22)
(2.5350426 -0.0034259069 -2.3852115e-21)
(2.5350929 -0.00067346041 -3.5412052e-22)
(1.7574047 -0.26372494 -9.6855255e-20)
(1.6014588 -0.10181172 1.2124943e-21)
(1.4859311 0.39892237 3.5161345e-19)
(1.4388509 0.95758325 -2.157032e-19)
(1.4810287 1.4305787 -5.2330949e-19)
(1.5508353 1.5835235 1.9099848e-20)
(1.6976655 1.1968189 0)
(1.8022612 0.2056807 1.5126176e-20)
(1.8854146 -0.68882509 -1.4854832e-19)
(2.0077158 -0.96259798 1.5651208e-19)
(2.1593488 -0.82263822 -5.3763495e-19)
(2.2573138 -0.52127782 -6.4214704e-20)
(2.2874119 -0.32226807 3.4252468e-20)
(2.2883064 -0.22433343 -2.11481e-23)
(2.2896179 -0.18322926 5.7018291e-21)
(2.3029881 -0.17005898 -9.4848067e-21)
(2.3289172 -0.16782626 -2.3482578e-20)
(2.3622354 -0.16412376 -1.9371328e-20)
(2.3953614 -0.15457874 1.0008692e-20)
(2.4234203 -0.1405093 5.1585183e-21)
(2.4449549 -0.12489439 4.5250228e-21)
(2.4609322 -0.11027706 9.526147e-21)
(2.4733628 -0.097810153 7.732813e-21)
(2.4840416 -0.087321448 -3.8316939e-22)
(2.4939347 -0.078005154 1.6604744e-20)
(2.5032287 -0.069084323 9.3415273e-21)
(2.5116847 -0.060150756 -1.8834845e-20)
(2.5189726 -0.051160975 -2.7753932e-21)
(2.5248706 -0.042336821 -1.1599474e-20)
(2.5293217 -0.033963734 2.8710033e-21)
(2.5324195 -0.026340113 -6.6414467e-24)
(2.5343662 -0.019663411 -7.194824e-21)
(2.5353936 -0.014012386 -4.5587668e-21)
(2.5357916 -0.0094917579 -1.1925654e-20)
(2.5357736 -0.0057733692 -5.3725038e-21)
(2.5356884 -0.0032372794 2.1625082e-21)
(2.5355784 -0.00062158286 -9.2688798e-21)
(1.7970943 -0.25587818 4.6713388e-20)
(1.6523564 -0.09253781 -1.6700413e-19)
(1.5565602 0.39550286 1.3203351e-19)
(1.5264507 0.93288416 1.4387003e-21)
(1.5848039 1.3900892 -2.6575951e-19)
(1.6849731 1.5419838 5.6885534e-19)
(1.8725238 1.1760427 1.9058603e-20)
(1.9894777 0.17065398 1.522794e-19)
(2.0407813 -0.7512782 1.1158098e-18)
(2.1336251 -1.0101412 -2.4807068e-20)
(2.2462172 -0.87134141 -3.8717893e-20)
(2.3188643 -0.55310108 -7.3311925e-20)
(2.3281391 -0.33792862 2.6843384e-20)
(2.3118209 -0.23060529 1.3463037e-21)
(2.2978757 -0.18855844 -7.3201701e-21)
(2.3017613 -0.17763198 -8.7411431e-21)
(2.3236996 -0.18028472 -1.8554884e-20)
(2.3574162 -0.18046581 1.3810426e-20)
(2.3929759 -0.17234482 8.8535646e-21)
(2.4235302 -0.15749619 -7.9574397e-21)
(2.4465186 -0.13977628 -5.4609478e-22)
(2.46262 -0.12279953 2.4413455e-22)
(2.4742323 -0.1085221 -2.8534283e-23)
(2.4838099 -0.097058367 -4.7254247e-21)
(2.4928493 -0.087432997 0)
(2.5017701 -0.078518155 -1.2410692e-21)
(2.5103163 -0.069575928 9.0049543e-21)
(2.5180151 -0.060379795 2.1910967e-20)
(2.5244712 -0.051063182 -1.0580982e-20)
(2.5294888 -0.041960475 9.8133994e-21)
(2.5330684 -0.033407547 9.9538447e-21)
(2.5353566 -0.02570709 8.4322275e-22)
(2.5365941 -0.019039535 -8.5305218e-21)
(2.537029 -0.013458721 2.6550103e-21)
(2.5369605 -0.009040281 -4.6906301e-21)
(2.5365906 -0.0054486008 5.4144516e-22)
(2.5362723 -0.003029352 4.1395274e-21)
(2.5360123 -0.00056529406 -1.4600399e-21)
(1.842888 -0.24895551 6.6551822e-20)
(1.7045424 -0.085541381 -1.2880785e-19)
(1.6277763 0.38961769 -1.1962968e-19)
(1.6149512 0.90570642 1.4974599e-19)
(1.6916438 1.3450597 8.4142325e-19)
(1.8244401 1.4921556 3.1383769e-19)
(2.0477858 1.1336607 -5.8029004e-19)
(2.191829 0.16833504 -8.1473551e-20)
(2.1898782 -0.77996915 1.5837915e-18)
(2.2583421 -1.0481495 -2.237869e-19)
(2.3345387 -0.91541122 5.2460202e-20)
(2.3827373 -0.5764706 5.3559579e-20)
(2.3712374 -0.34766694 -5.3054969e-20)
(2.3371139 -0.23162135 2.7115608e-21)
(2.3066406 -0.18855927 -2.9806307e-20)
(2.2993689 -0.18244252 -3.1456683e-21)
(2.3172095 -0.19096089 4.8073542e-22)
(2.3515827 -0.19629345 4.7225287e-21)
(2.3903188 -0.19046869 -1.789818e-20)
(2.4242244 -0.17517509 -4.7671327e-21)
(2.4493801 -0.15519349 1.5874138e-21)
(2.4659423 -0.13537465 -2.8045561e-21)