/*--------------------------------*- C++ -*----------------------------------*\
| =========                 |                                                 |
| \\      /  F ield         | OpenFOAM: The Open Source CFD Toolbox           |
|  \\    /   O peration     | Version:  v2012                                 |
|   \\  /    A nd           | Website:  www.openfoam.com                      |
|    \\/     M anipulation  |                                                 |
\*---------------------------------------------------------------------------*/
FoamFile
{
    version     2.0;
    format      ascii;
    class       volVectorField;
    location    "4.5110046";
    object      cellDisplacement;
}
// * * * * * * * * * * * * * * * * * * * * * * * * * * * * * * * * * * * * * //

dimensions      [0 1 0 0 0 0 0];


internalField   nonuniform List<vector> 
9200
(
(0.052971325 0 0)
(0.053220518 0 0)
(0.15414575 0 0)
(0.053625271 0 0)
(0.15481111 0 0)
(0.24892583 0 0)
(0.05409728 0 0)
(0.15585808 0 0)
(0.24991887 0 0)
(0.33756245 0 0)
(0.054633771 0 0)
(0.15718192 0 0)
(0.25156301 0 0)
(0.338864 0 0)
(0.42034269 0 0)
(0.055190285 0 0)
(0.15865026 0 0)
(0.25360548 0 0)
(0.34100463 0 0)
(0.42190585 0 0)
(0.49753376 0 0)
(0.055749713 0 0)
(0.16018883 0 0)
(0.25589183 0 0)
(0.34370854 0 0)
(0.42452813 0 0)
(0.4993534 0 0)
(0.56943858 0 0)
(0.056294166 0 0)
(0.16173724 0 0)
(0.25830083 0 0)
(0.3467383 0 0)
(0.42781835 0 0)
(0.50239051 0 0)
(0.57148405 0 0)
(0.63632864 0 0)
(0.056813777 0 0)
(0.16325233 0 0)
(0.26073267 0 0)
(0.34992974 0 0)
(0.43152147 0 0)
(0.50624465 0 0)
(0.57493867 0 0)
(0.63860007 0 0)
(0.69850142 0 0)
(0.057302611 0 0)
(0.16470149 0 0)
(0.26311373 0 0)
(0.35315465 0 0)
(0.43542557 0 0)
(0.51057413 0 0)
(0.57930148 0 0)
(0.64242376 0 0)
(0.70097791 0 0)
(0.75621689 0 0)
(0.057756204 0 0)
(0.166067 0 0)
(0.26539801 0 0)
(0.35632324 0 0)
(0.43938516 0 0)
(0.51514925 0 0)
(0.58422242 0 0)
(0.64729163 0 0)
(0.70517978 0 0)
(0.7589001 0 0)
(0.80975558 0 0)
(0.058173691 0 0)
(0.16733773 0 0)
(0.26755379 0 0)
(0.35936796 0 0)
(0.44328007 0 0)
(0.51979085 0 0)
(0.58942904 0 0)
(0.6527802 0 0)
(0.71051107 0 0)
(0.76344249 0 0)
(0.8126305 0 0)
(0.85935826 0 0)
(0.058554258 0 0)
(0.16850831 0 0)
(0.26956303 0 0)
(0.36224599 0 0)
(0.44702934 0 0)
(0.5243641 0 0)
(0.59471189 0 0)
(0.65858415 0 0)
(0.71653895 0 0)
(0.7692409 0 0)
(0.81752404 0 0)
(0.86242621 0 0)
(0.90528468 0 0)
(0.058899423 0 0)
(0.16957839 0 0)
(0.27141739 0 0)
(0.36493221 0 0)
(0.4505783 0 0)
(0.52877397 0 0)
(0.59992958 0 0)
(0.66448706 0 0)
(0.72292705 0 0)
(0.77579733 0 0)
(0.82375572 0 0)
(0.86764079 0 0)
(0.90853437 0 0)
(0.94775376 0 0)
(0.059210067 0 0)
(0.17054915 0 0)
(0.27311398 0 0)
(0.36741322 0 0)
(0.45389406 0 0)
(0.53295478 0 0)
(0.6049673 0 0)
(0.67031789 0 0)
(0.72942353 0 0)
(0.78274714 0 0)
(0.83081995 0 0)
(0.87431397 0 0)
(0.91408001 0 0)
(0.95118555 0 0)
(0.98700206 0 0)
(0.059488763 0 0)
(0.17142548 0 0)
(0.27465661 0 0)
(0.36968629 0 0)
(0.45696023 0 0)
(0.53686511 0 0)
(0.60974798 0 0)
(0.67595338 0 0)
(0.73584352 0 0)
(0.78982 0 0)
(0.83832179 0 0)
(0.88187958 0 0)
(0.9211644 0 0)
(0.95703793 0 0)
(0.99060763 0 0)
(1.0232257 0 0)
(0.059737132 0 0)
(0.17221159 0 0)
(0.27604997 0 0)
(0.37175363 0 0)
(0.45977104 0 0)
(0.54048505 0 0)
(0.6142259 0 0)
(0.68131039 0 0)
(0.7420607 0 0)
(0.79681981 0 0)
(0.84596146 0 0)
(0.88991773 0 0)
(0.92921476 0 0)
(0.964543 0 0)
(0.99677413 0 0)
(1.0270042 0 0)
(1.0566383 0 0)
(0.059958041 0 0)
(0.17291452 0 0)
(0.27730357 0 0)
(0.37362351 0 0)
(0.4623301 0 0)
(0.54380686 0 0)
(0.61837467 0 0)
(0.68633339 0 0)
(0.74797627 0 0)
(0.80360056 0 0)
(0.85352679 0 0)
(0.89811568 0 0)
(0.93778462 0 0)
(0.97307417 0 0)
(1.0046729 0 0)
(1.0334646 0 0)
(1.0605829 0 0)
(1.087414 0 0)
(0.060153665 0 0)
(0.17354004 0 0)
(0.27842506 0 0)
(0.37530549 0 0)
(0.46464528 0 0)
(0.54683342 0 0)
(0.62218595 0 0)
(0.69099183 0 0)
(0.75352859 0 0)
(0.81005965 0 0)
(0.86085722 0 0)
(0.90623271 0 0)
(0.94652784 0 0)
(0.98216045 0 0)
(1.0136701 0 0)
(1.0417668 0 0)
(1.0673421 0 0)
(1.0915228 0 0)
(1.115744 0 0)
(0.060326385 0 0)
(0.17409503 0 0)
(0.27942594 0 0)
(0.3768125 0 0)
(0.46672973 0 0)
(0.54957437 0 0)
(0.62566149 0 0)
(0.69527477 0 0)
(0.75868316 0 0)
(0.81612918 0 0)
(0.86785046 0 0)
(0.91410963 0 0)
(0.95519632 0 0)
(0.99144509 0 0)
(1.0232695 0 0)
(1.051226 0 0)
(1.0760217 0 0)
(1.0985637 0 0)
(1.1200111 0 0)
(1.1417814 0 0)
(0.060478513 0 0)
(0.17458566 0 0)
(0.28031464 0 0)
(0.37815669 0 0)
(0.46859713 0 0)
(0.55204318 0 0)
(0.62881159 0 0)
(0.69918309 0 0)
(0.7634251 0 0)
(0.8217699 0 0)
(0.874429 0 0)
(0.92162588 0 0)
(0.9636083 0 0)
(1.0006539 0 0)
(1.033084 0 0)
(1.0613245 0 0)
(1.0859295 0 0)
(1.1076286 0 0)
(1.1273354 0 0)
(1.1462039 0 0)
(1.1656965 0 0)
(0.060611975 0 0)
(0.17501812 0 0)
(0.28110259 0 0)
(0.37935214 0 0)
(0.47026431 0 0)
(0.55425741 0 0)
(0.63165197 0 0)
(0.70272793 0 0)
(0.76775569 0 0)
(0.82696282 0 0)
(0.88054676 0 0)
(0.92870261 0 0)
(0.97163909 0 0)
(1.0095953 0 0)
(1.0428306 0 0)
(1.0716651 0 0)
(1.0965238 0 0)
(1.1179804 0 0)
(1.1367613 0 0)
(1.1537964 0 0)
(1.1702691 0 0)
(1.1876238 0 0)
(0.060729167 0 0)
(0.17539867 0 0)
(0.28179781 0 0)
(0.38041125 0 0)
(0.4717465 0 0)
(0.55623446 0 0)
(0.63420088 0 0)
(0.70592577 0 0)
(0.77168535 0 0)
(0.8317089 0 0)
(0.88618517 0 0)
(0.93529187 0 0)
(0.97921042 0 0)
(1.0181397 0 0)
(1.0522987 0 0)
(1.0819395 0 0)
(1.1073786 0 0)
(1.1290562 0 0)
(1.1475431 0 0)
(1.1635895 0 0)
(1.1781292 0 0)
(1.1923427 0 0)
(1.2077138 0 0)
(0.060831387 0 0)
(0.17573209 0 0)
(0.28241056 0 0)
(0.38134739 0 0)
(0.47306092 0 0)
(0.55799409 0 0)
(0.63647937 0 0)
(0.70879738 0 0)
(0.77523238 0 0)
(0.83601823 0 0)
(0.89134111 0 0)
(0.94137028 0 0)
(0.9862676 0 0)
(1.0261989 0 0)
(1.0613512 0 0)
(1.0919325 0 0)
(1.1181798 0 0)
(1.1404211 0 0)
(1.1590958 0 0)
(1.1747952 0 0)
(1.188265 0 0)
(1.2004567 0 0)
(1.212574 0 0)
(1.2260838 0 0)
(0.060920891 0 0)
(0.1760245 0 0)
(0.28294822 0 0)
(0.38217196 0 0)
(0.47422199 0 0)
(0.55955391 0 0)
(0.63850819 0 0)
(0.71136539 0 0)
(0.77841893 0 0)
(0.83991033 0 0)
(0.89602642 0 0)
(0.94693276 0 0)
(0.99278319 0 0)
(1.0337188 0 0)
(1.0698919 0 0)
(1.1014862 0 0)
(1.1286899 0 0)
(1.1517374 0 0)
(1.1709583 0 0)
(1.1868106 0 0)
(1.1998807 0 0)
(1.2109392 0 0)
(1.2209392 0 0)
(1.2310813 0 0)
(1.2428668 0 0)
(0.060998543 0 0)
(0.17627927 0 0)
(0.28341922 0 0)
(0.38289672 0 0)
(0.47524578 0 0)
(0.56093345 0 0)
(0.64030899 0 0)
(0.71365346 0 0)
(0.7812698 0 0)
(0.84340873 0 0)
(0.90026044 0 0)
(0.95199096 0 0)
(0.99875201 0 0)
(1.0406705 0 0)
(1.0778758 0 0)
(1.1105206 0 0)
(1.1387577 0 0)
(1.1627663 0 0)
(1.1827873 0 0)
(1.1991651 0 0)
(1.2123529 0 0)
(1.222958 0 0)
(1.2317451 0 0)
(1.2396849 0 0)
(1.2479966 0 0)
(1.2581649 0 0)
(0.061066446 0 0)
(0.17650179 0 0)
(0.28383019 0 0)
(0.38353163 0 0)
(0.47614494 0 0)
(0.56214868 0 0)
(0.64190201 0 0)
(0.71568526 0 0)
(0.7838111 0 0)
(0.84654034 0 0)
(0.90406826 0 0)
(0.95656389 0 0)
(1.0041822 0 0)
(1.0470461 0 0)
(1.0852638 0 0)
(1.1189573 0 0)
(1.1482628 0 0)
(1.1733281 0 0)
(1.1943222 0 0)
(1.2114934 0 0)
(1.2251861 0 0)
(1.2358719 0 0)
(1.2441525 0 0)
(1.2508169 0 0)
(1.2568347 0 0)
(1.2634227 0 0)
(1.2720951 0 0)
(0.06112499 0 0)
(0.17669461 0 0)
(0.28418818 0 0)
(0.38408659 0 0)
(0.47693356 0 0)
(0.56321733 0 0)
(0.643307 0 0)
(0.71748372 0 0)
(0.78606853 0 0)
(0.84933319 0 0)
(0.9074792 0 0)
(0.96067889 0 0)
(1.0090954 0 0)
(1.0528503 0 0)
(1.0920428 0 0)
(1.1267767 0 0)
(1.1571663 0 0)
(1.1833299 0 0)
(1.2053912 0 0)
(1.2235331 0 0)
(1.2380091 0 0)
(1.2491766 0 0)
(1.2575007 0 0)
(1.2636043 0 0)
(1.2682697 0 0)
(1.2724835 0 0)
(1.2774759 0 0)
(1.2847457 0 0)
(0.061176237 0 0)
(0.17686262 0 0)
(0.28449876 0 0)
(0.38456992 0 0)
(0.47762224 0 0)
(0.56415325 0 0)
(0.64454262 0 0)
(0.71907091 0 0)
(0.78806788 0 0)
(0.8518155 0 0)
(0.91052215 0 0)
(0.96436535 0 0)
(1.0135175 0 0)
(1.0581057 0 0)
(1.0982238 0 0)
(1.1339619 0 0)
(1.1654162 0 0)
(1.1926833 0 0)
(1.2158625 0 0)
(1.2350886 0 0)
(1.2505405 0 0)
(1.2624802 0 0)
(1.2712628 0 0)
(1.2773718 0 0)
(1.281423 0 0)
(1.2842226 0 0)
(1.2867544 0 0)
(1.2902452 0 0)
(1.2962195 0 0)
(0.061222884 0 0)
(0.1770071 0 0)
(0.28476758 0 0)
(0.38498978 0 0)
(0.47822285 0 0)
(0.5649717 0 0)
(0.6456256 0 0)
(0.72046734 0 0)
(0.78983294 0 0)
(0.85401488 0 0)
(0.91322924 0 0)
(0.96765597 0 0)
(1.0174814 0 0)
(1.0628383 0 0)
(1.1038206 0 0)
(1.1405144 0 0)
(1.1730027 0 0)
(1.2013616 0 0)
(1.2256778 0 0)
(1.2460482 0 0)
(1.2625901 0 0)
(1.2754995 0 0)
(1.2850407 0 0)
(1.2915825 0 0)
(1.295601 0 0)
(1.2977327 0 0)
(1.2987759 0 0)
(1.2997305 0 0)
(1.3018328 0 0)
(1.3065931 0 0)
(0.061003896 0 0)
(0.17713956 0 0)
(0.28499858 0 0)
(0.38535267 0 0)
(0.478744 0 0)
(0.56568388 0 0)
(0.64657243 0 0)
(0.7216925 0 0)
(0.7913871 0 0)
(0.85595776 0 0)
(0.91562821 0 0)
(0.97058259 0 0)
(1.0210199 0 0)
(1.0670827 0 0)
(1.1088671 0 0)
(1.1464562 0 0)
(1.1799285 0 0)
(1.2093502 0 0)
(1.2347873 0 0)
(1.2563118 0 0)
(1.27401 0 0)
(1.2880208 0 0)
(1.2985331 0 0)
(1.3058197 0 0)
(1.3102458 0 0)
(1.3123059 0 0)
(1.3126284 0 0)
(1.3120345 0 0)
(1.3115192 0 0)
(1.3123154 0 0)
(1.3159563 0 0)
(0.060727522 0 0)
(0.17667721 0 0)
(0.28520724 0 0)
(0.38566536 0 0)
(0.47919505 0 0)
(0.56630281 0 0)
(0.64739716 0 0)
(0.7227639 0 0)
(0.79275112 0 0)
(0.85766906 0 0)
(0.91775005 0 0)
(0.97317758 0 0)
(1.0241682 0 0)
(1.0708733 0 0)
(1.1133927 0 0)
(1.1518127 0 0)
(1.1862134 0 0)
(1.2166518 0 0)
(1.2431766 0 0)
(1.2658474 0 0)
(1.2847329 0 0)
(1.2999185 0 0)
(1.3115312 0 0)
(1.3197795 0 0)
(1.3249342 0 0)
(1.3273747 0 0)
(1.327587 0 0)
(1.3262194 0 0)
(1.3240848 0 0)
(1.3221928 0 0)
(1.321783 0 0)
(1.3243755 0 0)
(0.060478751 0 0)
(0.17584034 0 0)
(0.28452288 0 0)
(0.38594633 0 0)
(0.47958337 0 0)
(0.56683768 0 0)
(0.64811349 0 0)
(0.72369805 0 0)
(0.79394505 0 0)
(0.85917206 0 0)
(0.91961912 0 0)
(0.9754712 0 0)
(1.0269595 0 0)
(1.0742471 0 0)
(1.1174388 0 0)
(1.1566229 0 0)
(1.1918836 0 0)
(1.2232804 0 0)
(1.250852 0 0)
(1.2746357 0 0)
(1.2946906 0 0)
(1.311078 0 0)
(1.3238759 0 0)
(1.3332331 0 0)
(1.3393467 0 0)
(1.3424989 0 0)
(1.3430651 0 0)
(1.3415485 0 0)
(1.3385886 0 0)
(1.3350195 0 0)
(1.3318454 0 0)
(1.3303012 0 0)
(1.3319291 0 0)
(0.060256947 0 0)
(0.17508611 0 0)
(0.28317663 0 0)
(0.38506695 0 0)
(0.47993227 0 0)
(0.56729794 0 0)
(0.64873293 0 0)
(0.72450931 0 0)
(0.79498639 0 0)
(0.86048807 0 0)
(0.92126338 0 0)
(0.97749288 0 0)
(1.0294272 0 0)
(1.0772396 0 0)
(1.1210402 0 0)
(1.1609215 0 0)
(1.1969772 0 0)
(1.2292679 0 0)
(1.2578261 0 0)
(1.2826821 0 0)
(1.3038772 0 0)
(1.3214588 0 0)
(1.3354842 0 0)
(1.3460383 0 0)
(1.3532567 0 0)
(1.3573562 0 0)
(1.3586154 0 0)
(1.3574247 0 0)
(1.3542777 0 0)
(1.3498319 0 0)
(1.3449134 0 0)
(1.340539 0 0)
(1.3379496 0 0)
(1.3386748 0 0)
(0.060064838 0 0)
(0.1744162 0 0)
(0.28196468 0 0)
(0.38326638 0 0)
(0.4788798 0 0)
(0.56771073 0 0)
(0.64926531 0 0)
(0.72521098 0 0)
(0.79589179 0 0)
(0.86163687 0 0)
(0.92270295 0 0)
(0.97926919 0 0)
(1.0316015 0 0)
(1.0798857 0 0)
(1.1242374 0 0)
(1.1647523 0 0)
(1.2015323 0 0)
(1.2346467 0 0)
(1.2641314 0 0)
(1.2900047 0 0)
(1.3122935 0 0)
(1.3310381 0 0)
(1.3462816 0 0)
(1.3580717 0 0)
(1.3664926 0 0)
(1.3717015 0 0)
(1.3739021 0 0)
(1.3733856 0 0)
(1.3705371 0 0)
(1.3658661 0 0)
(1.3600213 0 0)
(1.3538482 0 0)
(1.3483565 0 0)
(1.3447846 0 0)
(1.344681 0 0)
(0.059903216 0 0)
(0.17383466 0 0)
(0.28088753 0 0)
(0.38164663 0 0)
(0.47667401 0 0)
(0.56650481 0 0)
(0.64974267 0 0)
(0.72581485 0 0)
(0.79667489 0 0)
(0.8626359 0 0)
(0.92396173 0 0)
(0.98082538 0 0)
(1.0335122 0 0)
(1.0822184 0 0)
(1.1270653 0 0)
(1.1681513 0 0)
(1.2055917 0 0)
(1.2394626 0 0)
(1.2698 0 0)
(1.2966254 0 0)
(1.3199583 0 0)
(1.3398208 0 0)
(1.3562506 0 0)
(1.3692819 0 0)
(1.3789612 0 0)
(1.385379 0 0)
(1.3886811 0 0)
(1.3890923 0 0)
(1.3868976 0 0)
(1.3824971 0 0)
(1.3763897 0 0)
(1.3692408 0 0)
(1.3618877 0 0)
(1.3553516 0 0)
(1.3508761 0 0)
(1.3499978 0 0)
(0.059774199 0 0)
(0.1733472 0 0)
(0.27995321 0 0)
(0.38020638 0 0)
(0.47468999 0 0)
(0.56393723 0 0)
(0.64840493 0 0)
(0.72635443 0 0)
(0.79735002 0 0)
(0.86350196 0 0)
(0.92505599 0 0)
(0.98218391 0 0)
(1.0351854 0 0)
(1.0842681 0 0)
(1.1295601 0 0)
(1.1711607 0 0)
(1.2091964 0 0)
(1.2437537 0 0)
(1.2748778 0 0)
(1.3025871 0 0)
(1.3268969 0 0)
(1.3478268 0 0)
(1.3653996 0 0)
(1.3796395 0 0)
(1.3905766 0 0)
(1.3982565 0 0)
(1.4027713 0 0)
(1.4042856 0 0)
(1.4030091 0 0)
(1.3992417 0 0)
(1.3933775 0 0)
(1.385929 0 0)
(1.377553 0 0)
(1.3691043 0 0)
(1.3615971 0 0)
(1.3562729 0 0)
(1.3546845 0 0)
(0.059678229 0 0)
(0.17295678 0 0)
(0.27916941 0 0)
(0.37895741 0 0)
(0.47292607 0 0)
(0.56162799 0 0)
(0.64551843 0 0)
(0.72490587 0 0)
(0.79795169 0 0)
(0.86424696 0 0)
(0.92600561 0 0)
(0.98336598 0 0)
(1.036646 0 0)
(1.0860638 0 0)
(1.1317535 0 0)
(1.173814 0 0)
(1.2123867 0 0)
(1.2475682 0 0)
(1.2794061 0 0)
(1.3079263 0 0)
(1.333149 0 0)
(1.3550848 0 0)
(1.3737445 0 0)
(1.3891492 0 0)
(1.4013195 0 0)
(1.4102738 0 0)
(1.4160665 0 0)
(1.4187953 0 0)
(1.4186117 0 0)
(1.4157476 0 0)
(1.4104945 0 0)
(1.4032615 0 0)
(1.3945499 0 0)
(1.3850314 0 0)
(1.3755533 0 0)
(1.3671391 0 0)
(1.3610362 0 0)
(1.3587849 0 0)
(0.059616594 0 0)
(0.17266709 0 0)
(0.27854205 0 0)
(0.37790934 0 0)
(0.47139645 0 0)
(0.55957515 0 0)
(0.64292229 0 0)
(0.7217396 0 0)
(0.79641113 0 0)
(0.8649129 0 0)
(0.92682182 0 0)
(0.98438915 0 0)
(1.0379164 0 0)
(1.0876315 0 0)
(1.1336762 0 0)
(1.1761486 0 0)
(1.2152019 0 0)
(1.2509436 0 0)
(1.2834323 0 0)
(1.3126951 0 0)
(1.3387535 0 0)
(1.3616261 0 0)
(1.3813177 0 0)
(1.3978307 0 0)
(1.4111855 0 0)
(1.4213941 0 0)
(1.4284752 0 0)
(1.4324819 0 0)
(1.4335137 0 0)
(1.4317406 0 0)
(1.4273791 0 0)
(1.4207355 0 0)
(1.4122126 0 0)
(1.4023229 0 0)
(1.3917304 0 0)
(1.381298 0 0)
(1.3720416 0 0)
(1.3652084 0 0)
(1.3623503 0 0)
(0.059589481 0 0)
(0.17247997 0 0)
(0.27807597 0 0)
(0.37707039 0 0)
(0.47011292 0 0)
(0.55779507 0 0)
(0.64061466 0 0)
(0.71889277 0 0)
(0.79300232 0 0)
(0.86329477 0 0)
(0.92754973 0 0)
(0.98527142 0 0)
(1.039016 0 0)
(1.0889953 0 0)
(1.135356 0 0)
(1.1781941 0 0)
(1.2176776 0 0)
(1.253925 0 0)
(1.2869988 0 0)
(1.3169339 0 0)
(1.3437604 0 0)
(1.3674987 0 0)
(1.3881498 0 0)
(1.4057142 0 0)
(1.4202007 0 0)
(1.4316172 0 0)
(1.43997 0 0)
(1.4452765 0 0)
(1.4475991 0 0)
(1.4470389 0 0)
(1.4437558 0 0)
(1.4379878 0 0)
(1.4300313 0 0)
(1.4203035 0 0)
(1.4093049 0 0)
(1.3977141 0 0)
(1.386386 0 0)
(1.3763446 0 0)
(1.3688424 0 0)
(1.3654187 0 0)
(0.17239749 0 0)
(0.059588925 0 0)
(0.27777504 0 0)
(0.37644727 0 0)
(0.46908554 0 0)
(0.55630129 0 0)
(0.63861332 0 0)
(0.71636203 0 0)
(0.78993877 0 0)
(0.85967748 0 0)
(0.92586757 0 0)
(0.98605468 0 0)
(1.0399643 0 0)
(1.0901771 0 0)
(1.1368176 0 0)
(1.179982 0 0)
(1.2198487 0 0)
(1.2565461 0 0)
(1.2901487 0 0)
(1.320694 0 0)
(1.3482149 0 0)
(1.3727439 0 0)
(1.394289 0 0)
(1.4128394 0 0)
(1.4283934 0 0)
(1.4409601 0 0)
(1.4505426 0 0)
(1.4571365 0 0)
(1.4607677 0 0)
(1.4614958 0 0)
(1.4594249 0 0)
(1.4547306 0 0)
(1.4476361 0 0)
(1.4384521 0 0)
(1.4275894 0 0)
(1.4155582 0 0)
(1.4030298 0 0)
(1.3908728 0 0)
(1.3801037 0 0)
(1.3719754 0 0)
(1.3680341 0 0)
(0.27764177 0 0)
(0.1723947 0 0)
(0.059614714 0 0)
(0.37604448 0 0)
(0.46832251 0 0)
(0.55510575 0 0)
(0.63693371 0 0)
(0.71416727 0 0)
(0.78721456 0 0)
(0.85642481 0 0)
(0.92206711 0 0)
(0.98432314 0 0)
(1.0408046 0 0)
(1.0911942 0 0)
(1.1380848 0 0)
(1.1815375 0 0)
(1.2217449 0 0)
(1.2588465 0 0)
(1.2929215 0 0)
(1.3240142 0 0)
(1.3521661 0 0)
(1.3774173 0 0)
(1.3997768 0 0)
(1.4192409 0 0)
(1.4358031 0 0)
(1.449457 0 0)
(1.4602099 0 0)
(1.4680555 0 0)
(1.4729886 0 0)
(1.4750328 0 0)
(1.4742588 0 0)
(1.4707714 0 0)
(1.4647363 0 0)
(1.4563977 0 0)
(1.4460555 0 0)
(1.434134 0 0)
(1.4211313 0 0)
(1.4077334 0 0)
(1.3948 0 0)
(1.3833541 0 0)
(1.3746527 0 0)
(1.3702298 0 0)
(0.37586636 0 0)
(0.27763681 0 0)
(0.17247123 0 0)
(0.059675106 0 0)
(0.46782945 0 0)
(0.55421777 0 0)
(0.63558933 0 0)
(0.71232566 0 0)
(0.78485257 0 0)
(0.85353408 0 0)
(0.91864945 0 0)
(0.98036593 0 0)
(1.0390357 0 0)
(1.0920971 0 0)
(1.139175 0 0)
(1.1828852 0 0)
(1.223396 0 0)
(1.2608556 0 0)
(1.2953543 0 0)
(1.3269407 0 0)
(1.3556585 0 0)
(1.3815605 0 0)
(1.4046681 0 0)
(1.4249743 0 0)
(1.4424691 0 0)
(1.4571485 0 0)
(1.4690097 0 0)
(1.4780459 0 0)
(1.4842461 0 0)
(1.4876038 0 0)
(1.4881523 0 0)
(1.4859562 0 0)
(1.4811248 0 0)
(1.4738386 0 0)
(1.4643271 0 0)
(1.4529033 0 0)
(1.4399847 0 0)
(1.4260793 0 0)
(1.4118661 0 0)
(1.3982156 0 0)
(1.3861432 0 0)
(1.3769065 0 0)
(1.3720435 0 0)
(0.46761145 0 0)
(0.37585883 0 0)
(0.27775958 0 0)
(0.17265259 0 0)
(0.059769634 0 0)
(0.55364409 0 0)
(0.63458922 0 0)
(0.71085097 0 0)
(0.78287011 0 0)
(0.85102666 0 0)
(0.91561236 0 0)
(0.97681019 0 0)
(1.0349479 0 0)
(1.0903014 0 0)
(1.1401409 0 0)
(1.1840475 0 0)
(1.2248271 0 0)
(1.262606 0 0)
(1.2974818 0 0)
(1.3295082 0 0)
(1.3587355 0 0)
(1.3852275 0 0)
(1.4090088 0 0)
(1.4300816 0 0)
(1.4484428 0 0)
(1.4640794 0 0)
(1.4769798 0 0)
(1.4871418 0 0)
(1.494555 0 0)
(1.4991965 0 0)
(1.5010678 0 0)
(1.5001988 0 0)
(1.4966648 0 0)
(1.4905737 0 0)
(1.4820987 0 0)
(1.471489 0 0)
(1.4590453 0 0)
(1.4451981 0 0)
(1.430444 0 0)
(1.4154764 0 0)
(1.4011554 0 0)
(1.3885018 0 0)
(1.3787757 0 0)
(1.3735041 0 0)
(0.55338982 0 0)
(0.46760221 0 0)
(0.37602272 0 0)
(0.27805074 0 0)
(0.17293605 0 0)
(0.059897231 0 0)
(0.63394284 0 0)
(0.70975508 0 0)
(0.78128298 0 0)
(0.84892272 0 0)
(0.91297764 0 0)
(0.97364859 0 0)
(1.0312761 0 0)
(1.0861076 0 0)
(1.1383307 0 0)
(1.1850732 0 0)
(1.2260601 0 0)
(1.2641233 0 0)
(1.299335 0 0)
(1.331756 0 0)
(1.3614378 0 0)
(1.3884566 0 0)
(1.4128504 0 0)
(1.4346224 0 0)
(1.4537699 0 0)
(1.4702907 0 0)
(1.4841694 0 0)
(1.4953874 0 0)
(1.5039426 0 0)
(1.5098165 0 0)
(1.512985 0 0)
(1.5134474 0 0)
(1.5112437 0 0)
(1.5064425 0 0)
(1.4991583 0 0)
(1.4895759 0 0)
(1.4779312 0 0)
(1.4645363 0 0)
(1.4498147 0 0)
(1.4342743 0 0)
(1.4186004 0 0)
(1.4036613 0 0)
(1.3904705 0 0)
(1.3802885 0 0)
(1.3746437 0 0)
(0.63365456 0 0)
(0.55337883 0 0)
(0.46780258 0 0)
(0.37641043 0 0)
(0.27850652 0 0)
(0.17332048 0 0)
(0.060057226 0 0)
(0.70904579 0 0)
(0.78010346 0 0)
(0.84723827 0 0)
(0.9107671 0 0)
(0.97090735 0 0)
(1.0280104 0 0)
(1.0823378 0 0)
(1.13405 0 0)
(1.1832628 0 0)
(1.2271494 0 0)
(1.2654307 0 0)
(1.300942 0 0)
(1.333714 0 0)
(1.3638025 0 0)
(1.3912961 0 0)
(1.4162377 0 0)
(1.4386386 0 0)
(1.4585063 0 0)
(1.4758391 0 0)
(1.4906188 0 0)
(1.5028287 0 0)
(1.5124592 0 0)
(1.5194955 0 0)
(1.5239128 0 0)
(1.5256851 0 0)
(1.5248199 0 0)
(1.5213505 0 0)
(1.5153586 0 0)
(1.5069565 0 0)
(1.4963223 0 0)
(1.4837103 0 0)
(1.4694189 0 0)
(1.453885 0 0)
(1.437606 0 0)
(1.4212803 0 0)
(1.4057644 0 0)
(1.3920763 0 0)
(1.381478 0 0)
(1.3754865 0 0)
(0.70873052 0 0)
(0.63364026 0 0)
(0.55361042 0 0)
(0.46827683 0 0)
(0.3770192 0 0)
(0.27912416 0 0)
(0.17380092 0 0)
(0.060247487 0 0)
(0.77933986 0 0)
(0.84598626 0 0)
(0.9089973 0 0)
(0.96860682 0 0)
(1.0251797 0 0)
(1.0789875 0 0)
(1.1302015 0 0)
(1.1789155 0 0)
(1.225346 0 0)
(1.2665847 0 0)
(1.3023288 0 0)
(1.3354132 0 0)
(1.3658644 0 0)
(1.3937791 0 0)
(1.4192149 0 0)
(1.4421858 0 0)
(1.4627003 0 0)
(1.4807701 0 0)
(1.4963851 0 0)
(1.5095178 0 0)
(1.5201507 0 0)
(1.5282765 0 0)
(1.5338759 0 0)
(1.5369119 0 0)
(1.5373663 0 0)
(1.5352425 0 0)
(1.5305835 0 0)
(1.5234636 0 0)
(1.5140037 0 0)
(1.5023909 0 0)
(1.488868 0 0)
(1.4737419 0 0)
(1.4574438 0 0)
(1.4404823 0 0)
(1.4235473 0 0)
(1.4075007 0 0)
(1.3933538 0 0)
(1.3823673 0 0)
(1.3760601 0 0)
(0.77900071 0 0)
(0.70871344 0 0)
(0.63389782 0 0)
(0.55416175 0 0)
(0.46902157 0 0)
(0.37784289 0 0)
(0.27989816 0 0)
(0.17437568 0 0)
(0.060467286 0 0)
(0.84517677 0 0)
(0.90768189 0 0)
(0.9667659 0 0)
(1.0228035 0 0)
(1.0760812 0 0)
(1.1267815 0 0)
(1.1750109 0 0)
(1.2209563 0 0)
(1.2647997 0 0)
(1.3035486 0 0)
(1.3368798 0 0)
(1.3676541 0 0)
(1.3959467 0 0)
(1.4218224 0 0)
(1.4453019 0 0)
(1.4664032 0 0)
(1.4851436 0 0)
(1.501514 0 0)
(1.5154961 0 0)
(1.5270688 0 0)
(1.5362122 0 0)
(1.5429176 0 0)
(1.5471559 0 0)
(1.5488882 0 0)
(1.5480932 0 0)
(1.544784 0 0)
(1.5389964 0 0)
(1.5308186 0 0)
(1.520368 0 0)
(1.5078266 0 0)
(1.4934539 0 0)
(1.4775422 0 0)
(1.4605357 0 0)
(1.4429343 0 0)
(1.425438 0 0)
(1.4088972 0 0)
(1.3943251 0 0)
(1.3829848 0 0)
(1.3763874 0 0)
(0.84481654 0 0)
(0.77898147 0 0)
(0.70899564 0 0)
(0.63451582 0 0)
(0.55502583 0 0)
(0.47002907 0 0)
(0.37887616 0 0)
(0.2808229 0 0)
(0.17503769 0 0)
(0.060713755 0 0)
(0.90683177 0 0)
(0.96539827 0 0)
(1.0209023 0 0)
(1.0736433 0 0)
(1.1238141 0 0)
(1.1715377 0 0)
(1.2170111 0 0)
(1.260385 0 0)
(1.3017927 0 0)
(1.3381675 0 0)
(1.3691982 0 0)
(1.3978276 0 0)
(1.4240973 0 0)
(1.4480352 0 0)
(1.4696603 0 0)
(1.4890021 0 0)
(1.5060644 0 0)
(1.5208249 0 0)
(1.5332605 0 0)
(1.5433556 0 0)
(1.5510953 0 0)
(1.5564569 0 0)
(1.5594054 0 0)
(1.5599003 0 0)
(1.557928 0 0)
(1.5534947 0 0)
(1.546647 0 0)
(1.5374668 0 0)
(1.5260809 0 0)
(1.5126768 0 0)
(1.4975046 0 0)
(1.4808626 0 0)
(1.4631908 0 0)
(1.4449996 0 0)
(1.4269796 0 0)
(1.409983 0 0)
(1.3950196 0 0)
(1.3833533 0 0)
(1.3764919 0 0)
(0.90645351 0 0)
(0.84479723 0 0)
(0.77928448 0 0)
(0.70967096 0 0)
(0.63548622 0 0)
(0.55619748 0 0)
(0.47129321 0 0)
(0.38010963 0 0)
(0.28189043 0 0)
(0.17578406 0 0)
(0.060987615 0 0)
(0.96451454 0 0)
(1.0194895 0 0)
(1.0716914 0 0)
(1.1213251 0 0)
(1.1685269 0 0)
(1.2135039 0 0)
(1.2564162 0 0)
(1.2973656 0 0)
(1.3364469 0 0)
(1.3705549 0 0)
(1.3994514 0 0)
(1.4260729 0 0)
(1.4504186 0 0)
(1.4725153 0 0)
(1.4924014 0 0)
(1.5100834 0 0)
(1.525549 0 0)
(1.5387825 0 0)
(1.5497598 0 0)
(1.5584598 0 0)
(1.5648694 0 0)
(1.5689617 0 0)
(1.5706881 0 0)
(1.5700153 0 0)
(1.5669258 0 0)
(1.5614353 0 0)
(1.5535821 0 0)
(1.543463 0 0)
(1.5312017 0 0)
(1.5169798 0 0)
(1.5010633 0 0)
(1.4837351 0 0)
(1.4654483 0 0)
(1.4467055 0 0)
(1.4282014 0 0)
(1.4107816 0 0)
(1.3954597 0 0)
(1.3834966 0 0)
(1.3763928 0 0)
(0.96412342 0 0)
(0.90643349 0 0)
(0.84511708 0 0)
(0.7800099 0 0)
(0.71073418 0 0)
(0.63680317 0 0)
(0.55766546 0 0)
(0.47280178 0 0)
(0.3815344 0 0)
(0.28309223 0 0)
(0.17661245 0 0)
(0.061204086 0 0)
(1.0185768 0 0)
(1.0702418 0 0)
(1.1193321 0 0)
(1.1659993 0 0)
(1.2104613 0 0)
(1.2528883 0 0)
(1.2933883 0 0)
(1.3320224 0 0)
(1.3688772 0 0)
(1.4008772 0 0)
(1.4277801 0 0)
(1.4524909 0 0)
(1.4750083 0 0)
(1.4953789 0 0)
(1.5136235 0 0)
(1.5297301 0 0)
(1.5436833 0 0)
(1.5554709 0 0)
(1.5650692 0 0)
(1.5724514 0 0)
(1.5776047 0 0)
(1.5804926 0 0)
(1.5810646 0 0)
(1.5792842 0 0)
(1.5751427 0 0)
(1.5686488 0 0)
(1.559853 0 0)
(1.548845 0 0)
(1.5357586 0 0)
(1.5207779 0 0)
(1.5041622 0 0)
(1.4861975 0 0)
(1.4673354 0 0)
(1.4480817 0 0)
(1.429127 0 0)
(1.4113212 0 0)
(1.39567 0 0)
(1.3834335 0 0)
(1.3760883 0 0)
(1.0181728 0 0)
(0.9641027 0 0)
(0.9067691 0 0)
(0.84588818 0 0)
(0.78115375 0 0)
(0.71217548 0 0)
(0.63845453 0 0)
(0.55942026 0 0)
(0.47454479 0 0)
(0.38313822 0 0)
(0.28442801 0 0)
(0.17706689 0 0)
(0.06115489 0 0)
(1.0693051 0 0)
(1.1178518 0 0)
(1.1639773 0 0)
(1.2079086 0 0)
(1.2498267 0 0)
(1.2898506 0 0)
(1.3280489 0 0)
(1.3644744 0 0)
(1.3992515 0 0)
(1.4292755 0 0)
(1.4542815 0 0)
(1.4771756 0 0)
(1.4979828 0 0)
(1.5167288 0 0)
(1.5334099 0 0)
(1.5480207 0 0)
(1.5605488 0 0)
(1.5709689 0 0)
(1.579258 0 0)
(1.5853993 0 0)
(1.5893661 0 0)
(1.5911144 0 0)
(1.5905908 0 0)
(1.5877667 0 0)
(1.5826265 0 0)
(1.5751901 0 0)
(1.5655 0 0)
(1.553661 0 0)
(1.5398029 0 0)
(1.5241041 0 0)
(1.5068388 0 0)
(1.4882776 0 0)
(1.4688815 0 0)
(1.4491521 0 0)
(1.4297853 0 0)
(1.4116224 0 0)
(1.3956691 0 0)
(1.3830926 0 0)
(1.3755618 0 0)
(1.0688906 0 0)
(1.0181509 0 0)
(0.96445377 0 0)
(0.9075796 0 0)
(0.84710015 0 0)
(0.78270328 0 0)
(0.71398512 0 0)
(0.6404288 0 0)
(0.56144627 0 0)
(0.47650672 0 0)
(0.38492227 0 0)
(0.28510126 0 0)
(0.17692716 0 0)
(0.061100676 0 0)
(1.1168952 0 0)
(1.1624747 0 0)
(1.2058649 0 0)
(1.2472584 0 0)
(1.2867821 0 0)
(1.3245136 0 0)
(1.360518 0 0)
(1.3948841 0 0)
(1.4277099 0 0)
(1.4558478 0 0)
(1.4790483 0 0)
(1.5002452 0 0)
(1.5194432 0 0)
(1.5366441 0 0)
(1.5518429 0 0)
(1.5650402 0 0)
(1.5762193 0 0)
(1.5853468 0 0)
(1.5924004 0 0)
(1.5973665 0 0)
(1.6002123 0 0)
(1.6008793 0 0)
(1.5993213 0 0)
(1.5955062 0 0)
(1.589427 0 0)
(1.5810964 0 0)
(1.5705691 0 0)
(1.5579438 0 0)
(1.5433602 0 0)
(1.5269958 0 0)
(1.5091213 0 0)
(1.4900043 0 0)
(1.4701114 0 0)
(1.4499461 0 0)
(1.4301973 0 0)
(1.4117074 0 0)
(1.3952778 0 0)
(1.3824868 0 0)
(1.3748224 0 0)
(1.1164714 0 0)
(1.068868 0 0)
(1.0185123 0 0)
(0.96529618 0 0)
(0.90885304 0 0)
(0.84874658 0 0)
(0.78465039 0 0)
(0.71614706 0 0)
(0.64270876 0 0)
(0.56372836 0 0)
(0.47869 0 0)
(0.38578585 0 0)
(0.28488157 0 0)
(0.17677513 0 0)
(0.061038839 0 0)
(1.1615046 0 0)
(1.2043476 0 0)
(1.2452017 0 0)
(1.2842066 0 0)
(1.321448 0 0)
(1.3569994 0 0)
(1.3909582 0 0)
(1.4233873 0 0)
(1.4543474 0 0)
(1.4806869 0 0)
(1.5022019 0 0)
(1.5218042 0 0)
(1.5394694 0 0)
(1.5552013 0 0)
(1.5690056 0 0)
(1.5808671 0 0)
(1.5907625 0 0)
(1.5986669 0 0)
(1.6045559 0 0)
(1.6084145 0 0)
(1.6101984 0 0)
(1.609845 0 0)
(1.6073054 0 0)
(1.6025567 0 0)
(1.5955855 0 0)
(1.5864162 0 0)
(1.575095 0 0)
(1.5617361 0 0)
(1.5464745 0 0)
(1.5294817 0 0)
(1.5110378 0 0)
(1.4914023 0 0)
(1.4710542 0 0)
(1.4504857 0 0)
(1.4303856 0 0)
(1.4112575 0 0)
(1.3945341 0 0)
(1.3816801 0 0)
(1.3738681 0 0)
(1.1610756 0 0)
(1.1164473 0 0)
(1.0692369 0 0)
(1.0193812 0 0)
(0.96662372 0 0)
(0.91058369 0 0)
(0.850811 0 0)
(0.7869754 0 0)
(0.71864561 0 0)
(0.64527673 0 0)
(0.56626813 0 0)
(0.47972083 0 0)
(0.38548926 0 0)
(0.28463874 0 0)
(0.17660008 0 0)
(0.060967391 0 0)
(1.2033675 0 0)
(1.2436745 0 0)
(1.2821457 0 0)
(1.3188746 0 0)
(1.3539468 0 0)
(1.3874672 0 0)
(1.4195039 0 0)
(1.4500819 0 0)
(1.4792576 0 0)
(1.503913 0 0)
(1.5238475 0 0)
(1.5419309 0 0)
(1.5581393 0 0)
(1.5724865 0 0)
(1.5849716 0 0)
(1.5955677 0 0)
(1.6042479 0 0)
(1.6109943 0 0)
(1.6157895 0 0)
(1.6186026 0 0)
(1.6193799 0 0)
(1.6180563 0 0)
(1.614591 0 0)
(1.6089557 0 0)
(1.6011468 0 0)
(1.5911819 0 0)
(1.579119 0 0)
(1.5650668 0 0)
(1.5491692 0 0)
(1.5315896 0 0)
(1.5126134 0 0)
(1.4925021 0 0)
(1.4717331 0 0)
(1.4507926 0 0)
(1.4298753 0 0)
(1.4103363 0 0)
(1.3936088 0 0)
(1.3806683 0 0)
(1.372697 0 0)
(1.2029348 0 0)
(1.1610502 0 0)
(1.1168213 0 0)
(1.0701284 0 0)
(1.0207515 0 0)
(0.96842319 0 0)
(0.91275293 0 0)
(0.85328101 0 0)
(0.78966398 0 0)
(0.72145965 0 0)
(0.64813489 0 0)
(0.56744698 0 0)
(0.4793508 0 0)
(0.38516101 0 0)
(0.28435692 0 0)
(0.17639946 0 0)
(0.060886214 0 0)
(1.2426881 0 0)
(1.2806149 0 0)
(1.3168156 0 0)
(1.3513854 0 0)
(1.3844373 0 0)
(1.4160487 0 0)
(1.4462509 0 0)
(1.4750642 0 0)
(1.5025617 0 0)
(1.5256315 0 0)
(1.5440615 0 0)
(1.5606996 0 0)
(1.5755376 0 0)
(1.588579 0 0)
(1.5998071 0 0)
(1.6092026 0 0)
(1.6167389 0 0)
(1.6223943 0 0)
(1.6261555 0 0)
(1.6279836 0 0)
(1.6278062 0 0)
(1.6255659 0 0)
(1.6212205 0 0)
(1.6147509 0 0)
(1.6061462 0 0)
(1.5954367 0 0)
(1.5826711 0 0)
(1.5679733 0 0)
(1.5514758 0 0)
(1.5333446 0 0)
(1.5138788 0 0)
(1.4933267 0 0)
(1.472169 0 0)
(1.4502273 0 0)
(1.4287528 0 0)
(1.4092574 0 0)
(1.3924961 0 0)
(1.3794489 0 0)
(1.3713074 0 0)
(1.2422523 0 0)
(1.2029092 0 0)
(1.1614295 0 0)
(1.11773 0 0)
(1.0715321 0 0)
(1.0226087 0 0)
(0.97068313 0 0)
(0.9153488 0 0)
(0.85613333 0 0)
(0.79269088 0 0)
(0.72459293 0 0)
(0.64944399 0 0)
(0.56700958 0 0)
(0.47894162 0 0)
(0.38478191 0 0)
(0.28403267 0 0)
(0.17616977 0 0)
(0.060793424 0 0)
(1.2796272 0 0)
(1.3152868 0 0)
(1.3493356 0 0)
(1.3818956 0 0)
(1.4130513 0 0)
(1.4428414 0 0)
(1.471296 0 0)
(1.4984512 0 0)
(1.5243647 0 0)
(1.5459208 0 0)
(1.5629175 0 0)
(1.5781944 0 0)
(1.5917396 0 0)
(1.6035412 0 0)
(1.6135784 0 0)
(1.6218374 0 0)
(1.6282945 0 0)
(1.6329245 0 0)
(1.6357126 0 0)
(1.6366044 0 0)
(1.6355234 0 0)
(1.6324116 0 0)
(1.6272373 0 0)
(1.6199751 0 0)
(1.6106244 0 0)
(1.599209 0 0)
(1.5857882 0 0)
(1.5704746 0 0)
(1.5534162 0 0)
(1.5347787 0 0)
(1.5148574 0 0)
(1.4938983 0 0)
(1.4715552 0 0)
(1.4488961 0 0)
(1.4275008 0 0)
(1.4080148 0 0)
(1.3911931 0 0)
(1.3780192 0 0)
(1.3696971 0 0)
(1.2791915 0 0)
(1.2422254 0 0)
(1.2032905 0 0)
(1.162349 0 0)
(1.1191608 0 0)
(1.0734386 0 0)
(1.0249423 0 0)
(0.97338274 0 0)
(0.91834519 0 0)
(0.85934796 0 0)
(0.79606285 0 0)
(0.72601004 0 0)
(0.64893947 0 0)
(0.56652455 0 0)
(0.47846933 0 0)
(0.38434504 0 0)
(0.28365942 0 0)
(0.17590734 0 0)
(0.060687927 0 0)
(1.3143004 0 0)
(1.3478147 0 0)
(1.3798613 0 0)
(1.4105359 0 0)
(1.4398842 0 0)
(1.4679432 0 0)
(1.4947559 0 0)
(1.520343 0 0)
(1.544745 0 0)
(1.5648554 0 0)
(1.5804989 0 0)
(1.5944942 0 0)
(1.6068099 0 0)
(1.6174327 0 0)
(1.6263497 0 0)
(1.6335352 0 0)
(1.6389713 0 0)
(1.6426472 0 0)
(1.6445189 0 0)
(1.6445182 0 0)
(1.6425747 0 0)
(1.6386404 0 0)
(1.6326774 0 0)
(1.6246709 0 0)
(1.6146117 0 0)
(1.6025369 0 0)
(1.5884894 0 0)
(1.572603 0 0)
(1.5550255 0 0)
(1.5359157 0 0)
(1.5155718 0 0)
(1.4932433 0 0)
(1.4700168 0 0)
(1.4474659 0 0)
(1.4261117 0 0)
(1.4066044 0 0)
(1.3896965 0 0)
(1.376377 0 0)
(1.3678652 0 0)
(1.3138667 0 0)
(1.2791642 0 0)
(1.2426067 0 0)
(1.2042193 0 0)
(1.1638018 0 0)
(1.1211061 0 0)
(1.0758303 0 0)
(1.0277287 0 0)
(0.97650304 0 0)
(0.92172281 0 0)
(0.86292732 0 0)
(0.79756847 0 0)
(0.7254399 0 0)
(0.6483788 0 0)
(0.56596588 0 0)
(0.47792663 0 0)
(0.38384416 0 0)
(0.28323383 0 0)
(0.17560812 0 0)
(0.060567818 0 0)
(1.3468344 0 0)
(1.3783521 0 0)
(1.408524 0 0)
(1.4374024 0 0)
(1.4650341 0 0)
(1.4914681 0 0)
(1.5167292 0 0)
(1.5408181 0 0)
(1.5637667 0 0)
(1.5825064 0 0)
(1.5968838 0 0)
(1.6096649 0 0)
(1.6208112 0 0)
(1.6303203 0 0)
(1.6381798 0 0)
(1.6443595 0 0)
(1.6488406 0 0)
(1.6516052 0 0)
(1.6526051 0 0)
(1.6517591 0 0)
(1.6490016 0 0)
(1.6442847 0 0)
(1.6375804 0 0)
(1.6288667 0 0)
(1.6181446 0 0)
(1.6054378 0 0)
(1.5908071 0 0)
(1.574388 0 0)
(1.5563257 0 0)
(1.5367785 0 0)
(1.5148884 0 0)
(1.4915057 0 0)
(1.4684093 0 0)
(1.4459265 0 0)
(1.4245817 0 0)
(1.4050237 0 0)
(1.3880044 0 0)
(1.3745208 0 0)
(1.3658091 0 0)
(1.3464046 0 0)
(1.3138391 0 0)
(1.2795457 0 0)
(1.2435398 0 0)
(1.205685 0 0)
(1.1657731 0 0)
(1.1235457 0 0)
(1.078691 0 0)
(1.0309505 0 0)
(0.98001681 0 0)
(0.92548214 0 0)
(0.86450772 0 0)
(0.79693273 0 0)
(0.7248059 0 0)
(0.6477306 0 0)
(0.56532233 0 0)