/*--------------------------------*- C++ -*----------------------------------*\
| =========                 |                                                 |
| \\      /  F ield         | OpenFOAM: The Open Source CFD Toolbox           |
|  \\    /   O peration     | Version:  v2012                                 |
|   \\  /    A nd           | Website:  www.openfoam.com                      |
|    \\/     M anipulation  |                                                 |
\*---------------------------------------------------------------------------*/
FoamFile
{
    version     2.0;
    format      ascii;
    class       surfaceScalarField;
    location    "4.5110046";
    object      phi;
}
// * * * * * * * * * * * * * * * * * * * * * * * * * * * * * * * * * * * * * //

dimensions      [0 3 -1 0 0 0 0];
oriented        oriented;


internalField   nonuniform List<scalar> 
18180
(
0.00056533412
-3.3711957
0.0010764294
-3.1520165
0.00068769071
-3.3900831
0.0015244397
-2.9466515
0.0013086141
-3.1690667
0.00075238009
-3.4077922
0.0019117904
-2.7543042
0.0018576068
-2.9617312
0.0014308383
-3.1850608
0.00083213351
-3.4242303
0.0022327009
-2.5743937
0.0023294392
-2.7675113
0.0020333278
-2.9759984
0.0015841105
-3.2003016
0.00091167974
-3.4399853
0.0024929466
-2.406475
0.0027237961
-2.5863597
0.002551422
-2.7805647
0.0022533181
-2.9901411
0.0017374327
-3.2150725
0.00099320791
-3.4549175
0.0026944652
-2.2500673
0.0030432769
-2.417826
0.0029865232
-2.5986899
0.0028309859
-2.7938319
0.0024742607
-3.0040927
0.0018953001
-3.2292439
0.0010751022
-3.4692487
0.0028429486
-2.1042373
0.0032921786
-2.2610389
0.0033399574
-2.4296402
0.0033181538
-2.611276
0.003113209
-2.8069759
0.0027026861
-3.01755
0.0020545638
-3.2428319
0.0011563775
-3.4828025
0.0029437104
-1.9680154
0.0034762196
-2.1149102
0.0036167125
-2.2723635
0.0037160709
-2.4415719
0.0036548501
-2.6235664
0.0034065238
-2.8196297
0.0029342288
-3.0304878
0.002213403
-3.2557456
0.0012358129
-3.495758
0.0030027716
-1.840528
0.0036019765
-1.9782948
0.0038225177
-2.1255842
0.0040296274
-2.2834561
0.0041001426
-2.4529028
0.0040067381
-2.6352056
0.0037056017
-2.8317342
0.0031663953
-3.042844
0.0023695042
-3.2680672
0.0013121756
-3.5080029
0.0030259437
-1.7211198
0.0036764821
-1.8501945
0.0039643666
-1.9880904
0.0042647381
-2.1355991
0.0044537581
-2.2936318
0.0045039236
-2.463331
0.0043678624
-2.646301
0.0040074977
-2.8434656
0.0033959625
-3.0546846
0.0025205146
-3.2797572
0.0013842166
-3.519687
0.003018912
-1.6093326
0.0037067453
-1.7300689
0.0040496403
-1.8591309
0.0044286895
-1.9970883
0.004721543
-2.1447049
0.0049022959
-2.3030538
0.0049210969
-2.4735248
0.0047350164
-2.6573184
0.0043082864
-2.8548185
0.0036196286
-3.0659722
0.0026640207
-3.2908853
0.0014507087
-3.5306993
0.0029868737
-1.504761
0.0036996058
-1.6175929
0.0040858727
-1.7383055
0.0045292941
-1.8673662
0.0049108847
-2.005412
0.0052074038
-2.1534069
0.0053688185
-2.3125104
0.005348423
-2.4838186
0.0051038247
-2.6681242
0.0046039046
-2.8657191
0.0038339535
-3.076701
0.0027976229
-3.3014054
0.0015104918
-3.5411876
0.0029345194
-1.4069803
0.0036614031
-1.5123814
0.0040804016
-1.625228
0.0045746373
-1.7459635
0.005029868
-1.8751048
0.0054265462
-2.0135323
0.0057160687
-2.1622664
0.0058503085
-2.3221763
0.0057813613
-2.4939889
0.0054697077
-2.6785144
0.0048900534
-2.8760765
0.0040354854
-3.08687
0.0029190142
-3.3113839
0.0015625087
-3.5510705
0.0028661168
-1.3155601
0.0035979093
-1.4140097
0.0040401659
-1.5194756
0.004572701
-1.6324053
0.0050870081
-1.7532256
0.0055679052
-1.8827506
0.0059697843
-2.0219103
0.006244916
-2.171383
0.0063422821
-2.3316771
0.0062150467
-2.5037464
0.0058277164
-2.6884325
0.0051623398
-2.8859271
0.0042208355
-3.0964897
0.0030260583
-3.3208067
0.0016058481
-3.5604563
0.0027854124
-1.2300913
0.0035143672
-1.322045
0.0039715629
-1.4206031
0.0045311236
-1.5262206
0.0050908415
-1.6392415
0.0056402938
-1.7604409
0.0061380216
-1.8906534
0.0065385214
-2.0304638
0.0067897482
-2.1802181
0.0068398585
-2.3406742
0.0066441316
-2.5130224
0.0061726969
-2.6978749
0.0054163678
-2.8952472
0.0043868159
-3.1055836
0.0031168629
-3.329715
0.0016397685
-3.5692716
0.00269564
-1.1501836
0.0034153954
-1.2360726
0.0038803647
-1.3281718
0.0044570124
-1.4269477
0.0050496577
-1.5326518
0.0056527171
-1.6460303
0.0062297144
-1.7678523
0.0067388065
-1.8985999
0.0071290874
-2.038584
0.0073459778
-2.1883753
0.0073376071
-2.349173
0.0070629524
-2.5219341
0.0064993908
-2.7068559
0.0056478978
-2.9040615
0.0045305115
-3.1141433
0.0031898439
-3.3381014
0.0016637224
-3.5776279
0.0025995498
-1.0754735
0.0033049958
-1.1556991
0.0037716862
-1.2417634
0.0043568342
-1.3341419
0.0049712659
-1.4329873
0.0056140657
-1.5390162
0.006254202
-1.6529644
0.0068545929
-1.7752075
0.0073672763
-1.9060557
0.0077374151
-2.0460728
0.0079083425
-2.1962081
0.0078295865
-2.3574841
0.0074655586
-2.5304807
0.0068025871
-2.7153592
0.0058529549
-2.9123461
0.0046494088
-3.1222062
0.0032437715
-3.3460071
0.0016773236
-3.5854749
0.0024994483
-1.0056209
0.0031865823
-1.0805587
0.0036499818
-1.1609845
0.0042363554
-1.2473845
0.0048628441
-1.3398047
0.0055328434
-1.4389304
0.0062208896
-1.5454943
0.0068953758
-1.6597868
0.0075127359
-1.7821088
0.0080200673
-1.9130412
0.00835866
-2.0533725
0.0084709171
-2.2039465
0.0083094221
-2.365538
0.0078459157
-2.5386223
0.0070772662
-2.7233734
0.0060279764
-2.9201523
0.0047414479
-3.12978
0.0032777393
-3.3534476
0.0016803244
-3.592894
0.0023972401
-0.94030915
0.0030630223
-1.0103092
0.003519067
-1.0854686
0.0041006284
-1.1662807
0.0047308479
-1.2526878
0.0054169684
-1.3453341
0.0061389342
-1.4449752
0.0068709511
-1.5518367
0.0075748894
-1.6661874
0.0082016404
-1.7886281
0.0086930458
-1.9198957
0.0089872762
-2.0606438
0.0090272398
-2.211487
0.0087704959
-2.3732283
0.0081980395
-2.5463177
0.0073187647
-2.730927
0.0061699137
-2.9274854
0.0048050342
-3.1369119
0.0032911234
-3.3604484
0.0016726462
-3.5998444
0.0022944584
-0.87924146
0.0029366901
-0.94463217
0.0033821605
-1.0148721
0.0039540074
-1.090463
0.0045809767
-1.1712443
0.0052736424
-1.2578152
0.006016996
-1.3509672
0.0067910514
-1.4508791
0.007563749
-1.5577748
0.0082911886
-1.6722766
0.0089180701
-1.7950952
0.0093812997
-1.9267677
0.0096169908
-2.067697
0.0095703606
-2.2186814
0.0092060337
-2.3805465
0.008516189
-2.5536015
0.0075229184
-2.7380402
0.0062762313
-2.9343918
0.0048389845
-3.1436015
0.0032836671
-3.3670285
0.0016544187
-3.6064035
0.0021923136
-0.82214086
0.0028095279
-0.88322912
0.003241936
-0.94887466
0.003800186
-1.0195859
0.0044181758
-1.0951075
0.0051092818
-1.1759857
0.0058630607
-1.2630585
0.0066650557
-1.3564675
0.0074895084
-1.4563846
0.0082987086
-1.5634519
0.0090420628
-1.6783462
0.0096579797
-1.801557
0.010079056
-1.9333748
0.010240859
-2.0743641
0.010092984
-2.2255207
0.0096093338
-2.3875057
0.0087950202
-2.5604878
0.0076860606
-2.7447498
0.0063448828
-2.9408785
0.0048426721
-3.1499035
0.0032555273
-3.3732095
0.0016260642
-3.6125441
0.00209177
-0.76874883
0.002683099
-0.82582165
0.0031005832
-0.88717672
0.0036422497
-0.95332739
0.0042466684
-1.023934
0.0049294997
-1.0994831
0.0056843239
-1.1808617
0.0065017502
-1.268187
0.0073622022
-1.3615644
0.0082346937
-1.4616571
0.0090747172
-1.5691113
0.0098245309
-1.6843603
0.010416442
-1.807696
0.010779794
-1.9395114
0.010851445
-2.0806867
0.010587704
-2.2321047
0.0099739358
-2.3941408
0.0090295898
-2.5670163
0.0078050047
-2.7510826
0.00637448
-2.9470076
0.0048160435
-3.1558231
0.0032074132
-3.3790186
0.0015882934
-3.6183208
0.0019935901
-0.71882337
0.0025586273
-0.77215
0.0029598704
-0.82949847
0.0034827348
-0.89138526
0.0040700024
-0.95740121
0.0047391239
-1.0279658
0.0054871412
-1.1040135
0.0063091655
-1.1856467
0.0071914098
-1.2728985
0.0081097277
-1.3664453
0.0090265992
-1.4669213
0.0098899738
-1.5746779
0.010634754
-1.6900426
0.01118768
-1.8134028
0.011476224
-1.945359
0.011440864
-2.0868218
0.011047076
-2.238436
0.010293576
-2.4004743
0.0092153303
-2.5732082
0.0078772714
-2.7570826
0.0063643699
-2.9527898
0.0047597957
-3.1614026
0.0031405234
-3.384462
0.0015420444
-3.6237124
0.001898354
-0.67214004
0.0024370529
-0.72197051
0.0028211976
-0.7755787
0.0033236931
-0.83347746
0.0038911109
-0.89520588
0.0045422393
-0.9611118
0.0052770238
-1.0321705
0.0060944764
-1.1084802
0.0069860332
-1.1899956
0.0079341417
-1.2774031
0.0089086911
-1.3713391
0.0098646488
-1.4720773
0.010741894
-1.5799366
0.011467991
-1.6953517
0.011964959
-1.8187923
0.012160484
-1.9510232
0.012001091
-2.0928063
0.011463639
-2.2445474
0.010562173
-2.4065203
0.0093483507
-2.5791012
0.007901218
-2.7627713
0.0063148617
-2.9582551
0.004675268
-3.1666306
0.0030564407
-3.3895636
0.0014883449
-3.6287675
0.0018064881
-0.62848922
0.0023190773
-0.67505621
0.0026856499
-0.72517225
0.0031667541
-0.77934083
0.0037123792
-0.83706448
0.0043422452
-0.89861818
0.0050586718
-0.96500971
0.0058639664
-1.0363414
0.0067541396
-1.1124895
0.0077177151
-1.1941412
0.008731984
-1.2819523
0.0097597185
-1.3761247
0.01074761
-1.4769319
0.011627067
-1.5848585
0.012318572
-1.700384
0.012740916
-1.8240787
0.012824271
-1.9566371
0.012523643
-2.0986506
0.011829769
-2.2504317
0.010774171
-2.4123075
0.0094256229
-2.5847143
0.0078763522
-2.7681675
0.00622715
-2.9634008
0.0045643423
-3.1715485
0.0029569018
-3.3943275
0.0014282172
-3.6334766
0.0017182914
-0.58767292
0.0022051998
-0.63119531
0.0025540466
-0.67804951
0.0030131878
-0.72872788
0.0035357112
-0.78271165
0.0041419228
-0.84020215
0.0048360245
-0.90222776
0.0056230392
-0.96890558
0.006502878
-1.0400338
0.0074694667
-1.1162941
0.0085071115
-1.1983706
0.0095866879
-1.2864053
0.010662939
-1.3806117
0.011673566
-1.4815131
0.012541158
-1.5896118
0.01317994
-1.7053542
0.013507396
-1.8293194
0.013458493
-1.9621648
0.012999504
-2.1043274
0.012138112
-2.2561016
0.010924819
-2.4178519
0.0094454144
-2.5900698
0.007803279
-2.7732832
0.0061031778
-2.968263
0.0044291807
-3.1761508
0.0028437064
-3.3987851
0.0013626486
-3.6378773
0.0016339485
-0.5495079
0.0020957368
-0.59018738
0.0024269864
-0.63399639
0.0028639566
-0.68140816
0.0033625991
-0.73189788
0.0039435051
-0.7855978
0.0046123297
-0.84354113
0.0053762602
-0.90586729
0.0062384589
-0.97230366
0.0071975005
-1.0435167
0.0082440715
-1.1202277
0.0093569735
-1.2025249
0.010499688
-1.2905572
0.011618012
-1.38487
0.012639803
-1.4859858
0.013478953
-1.5943006
0.014044723
-1.7102689
0.014255209
-1.8344746
0.014053056
-1.967536
0.013419576
-2.1098274
0.012381965
-2.2615675
0.011010736
-2.4231762
0.0094072794
-2.5951745
0.0076835765
-2.7781354
0.0059453513
-2.9728428
0.0042721724
-3.1804704
0.0027187103
-3.402937
0.0012925767
-3.6419652
0.0015536008
-0.51382104
0.0019908474
-0.551848
0.0023048701
-0.5928115
0.0027197659
-0.63716669
0.0031941799
-0.68439102
0.0037487533
-0.7345556
0.0043902117
-0.78868377
0.0051274239
-0.84694052
0.0059661744
-0.9089933
0.006908947
-0.97548455
0.0079520024
-1.0471766
0.0090815455
-1.1241131
0.010269916
-1.2063691
0.011472205
-1.2945075
0.012624011
-1.3890725
0.0136428
-1.4904254
0.014434304
-1.5989233
0.014904089
-1.7150317
0.014973584
-1.8394664
0.014597315
-1.9727928
0.013775124
-2.1151771
0.012555975
-2.2668567
0.011029962
-2.4282845
0.0093119682
-2.6000409
0.007519481
-2.782733
0.005756447
-2.9771545
0.0040959521
-3.1844978
0.002583813
-3.4068102
0.0012189313
-3.6457732
0.0014774526
-0.48045006
0.0018906022
-0.51600344
0.00218794
-0.55430853
0.0025810885
-0.59580195
0.0030312956
-0.63997488
0.0035590159
-0.68684158
0.0041717565
-0.73740531
0.0048796181
-0.79185718
0.0056904606
-0.84981585
0.0066099395
-0.9118917
0.0076390678
-0.97889149
0.0087706291
-1.0508197
0.0099855146
-1.1276744
0.01124863
-1.2100273
0.01250517
-1.29845
0.013679399
-1.3932548
0.014678088
-1.494745
0.015399286
-1.6033144
0.015747118
-1.7195967
0.015650657
-1.8443626
0.015080578
-1.9779498
0.014058625
-2.1204039
0.012656245
-2.2719742
0.010981898
-2.4331861
0.0091610806
-2.6046754
0.0073137963
-2.7870769
0.0055396767
-2.9811955
0.0039033516
-3.1882654
0.0024409845
-3.4104111
0.0011426396
-3.6493063
-0.0030406648
-0.52824826
0.0017953131
-0.48248913
0.0020763313
-0.51831191
0.0024482138
-0.5571264
0.0028745178
-0.59844542
0.0033753032
-0.64223741
0.003958571
-0.68947083
0.0046353195
-0.74036533
0.0054149547
-0.79450232
0.0063056711
-0.85245141
0.0073123729
-0.91506511
0.0084335266
-0.98231602
0.0096578031
-1.0541208
0.010959977
-1.1310558
0.012295879
-1.213716
0.013599206
-1.3023665
0.014781796
-1.3972521
0.015739271
-1.4987526
0.016363489
-1.6074233
0.016561281
-1.7240686
0.016274147
-1.8492573
0.015493163
-1.9830619
0.014263911
-2.1255041
0.012680308
-2.2769227
0.010866944
-2.437885
0.0089569963
-2.6090798
0.0070699938
-2.7911738
0.0052985834
-2.9849874
0.003697383
-3.191777
0.0022922134
-3.4137718
0.0010646153
-3.6525944
-0.0061889105
-0.52957803
-0.002607292
-0.52618059
0.0019703797
-0.48465735
0.0023213099
-0.520963
0.0027242148
-0.55961428
0.003198308
-0.60053625
0.0037518744
-0.64466236
0.0043964483
-0.69222995
0.0051426024
-0.74280031
0.0060004288
-0.7968947
0.0069780042
-0.85540924
0.0080784507
-0.91829202
0.0092973066
-0.9853774
0.010618608
-1.0572401
0.012009403
-1.1345019
0.013414526
-1.2173803
0.014754356
-1.3060477
0.015926847
-1.4008969
0.016817046
-1.5024942
0.017314275
-1.6115412
0.017333077
-1.7286678
0.01683233
-1.8541861
0.015826478
-1.9880982
0.014386208
-2.1304809
0.012626767
-2.2817038
0.010686479
-2.4423842
0.00870303
-2.6132551
0.0067920946
-2.7950277
0.0050370489
-2.9885367
0.0034811056
-3.1950588
0.0021394294
-3.4169057
0.00098574456
-3.6556454
-0.0080994752
-0.53077628
-0.0056823786
-0.52884028
-0.002310453
-0.52437855
0.0022008252
-0.48714722
0.0025806147
-0.5233041
0.0030284986
-0.56154973
0.0035525133
-0.60277348
0.0041644809
-0.64723308
0.0048757008
-0.69447392
0.0056977228
-0.74496903
0.0066410228
-0.79965328
0.0077125464
-0.85845714
0.008913467
-0.92113228
0.010236311
-0.98824973
0.011659027
-1.0604571
0.01313887
-1.1379335
0.014607251
-1.2207747
0.015968727
-1.3093844
0.017106879
-1.4043521
0.01789923
-1.5063162
0.018237511
-1.615845
0.018049236
-1.7333716
0.01731435
-1.8591129
0.016073125
-1.9930695
0.014421708
-2.1353338
0.012495338
-2.2863239
0.010443105
-2.44668
0.0084033233
-2.6172005
0.0064846863
-2.7986483
0.0047590846
-2.991852
0.003257482
-3.1981231
0.0019844536
-3.4198394
0.00090686638
-3.6584751
-0.0089136151
-0.53183558
-0.0075585295
-0.53124007
-0.0053053821
-0.5283443
-0.0019690264
-0.52302667
0.0024442797
-0.4893473
0.0028661798
-0.52510033
0.0033610851
-0.56361521
0.0039404545
-0.60516881
0.0046160446
-0.64930272
0.0054003056
-0.6964383
0.0063056234
-0.74754375
0.0073418004
-0.80253851
0.0085146697
-0.86109401
0.0098238384
-0.9237727
0.011257756
-0.99125153
0.012786234
-1.0636768
0.014353817
-1.1410692
0.01587496
-1.2238281
0.017236784
-1.3125646
0.0183109
-1.407904
0.018971896
-1.5103545
0.019119115
-1.6202917
0.018697022
-1.7381178
0.017710061
-1.8640228
0.016226379
-1.9979657
0.014367761
-2.1400735
0.012287228
-2.2907765
0.010140574
-2.4507683
0.0080628796
-2.6209223
0.0061526536
-2.8020324
0.004468661
-2.994943
0.003029295
-3.2009957
0.0018289648
-3.422573
0.0008287504
-3.6610912
-0.0087790577
-0.53274981
-0.008372237
-0.53336565
-0.0071394961
-0.53192539
-0.0048935503
-0.52826061
-0.0016206295
-0.52146742
0.002712063
-0.49101726
0.0031779982
-0.5270086
0.0037251363
-0.56584637
0.0043649059
-0.60707875
0.0051103654
-0.65108233
0.0059751062
-0.6988436
0.006971251
-0.75027952
0.0081080039
-0.80498793
0.0093909888
-0.86351718
0.010817684
-0.92657318
0.012370694
-0.9942791
0.014008434
-1.0665759
0.015658187
-1.1438555
0.017214663
-1.2267472
0.018549265
-1.3158643
0.019525886
-1.4116818
0.02002091
-1.5145149
0.019945046
-1.6247963
0.019263766
-1.7429057
0.018009567
-1.8689217
0.016280536
-2.0027989
0.01422339
-2.144682
0.012005153
-2.2950526
0.0097838734
-2.4546511
0.0076872467
-2.624416
0.0058009551
-2.8051902
0.0041695718
-2.9978264
0.0027991091
-3.2036802
0.0016744851
-3.4251271
0.00075207062
-3.6634981
-0.0078504268
-0.53351236
-0.0082669963
-0.53520362
-0.0079445774
-0.53510015
-0.0066926171
-0.53298809
-0.0044783458
-0.52793587
-0.0012513461
-0.51943305
0.003004146
-0.49278455
0.0035190667
-0.52908525
0.0041232766
-0.56761027
0.0048294658
-0.60869112
0.0056521438
-0.6533312
0.0066048641
-0.70144011
0.0076995638
-0.75255575
0.0089461295
-0.80720776
0.010350131
-0.86612954
0.011905649
-0.92942721
0.013586038
-0.99696187
0.015332782
-1.0691087
0.017051823
-1.1465216
0.018619253
-1.2297828
0.019894716
-1.3193524
0.020738526
-1.4155423
0.021031814
-1.5187201
0.020700637
-1.629369
0.019736281
-1.7477384
0.018203489
-1.8738019
0.016231645
-2.0075411
0.013989521
-2.1491523
0.011653503
-2.2991491
0.0093788795
-2.4583229
0.0072822434
-2.6276862
0.0054344386
-2.8081252
0.0038653935
-3.0005128
0.0025692678
-3.2061903
0.001522373
-3.4274951
0.00067739881
-3.6657077
-0.0062874921
-0.53411848
-0.0073928507
-0.53674058
-0.0078602041
-0.53784708
-0.0074948366
-0.53717882
-0.00624627
-0.53377615
-0.0040457211
-0.52708595
-0.00086227219
-0.51759668
0.003323355
-0.49471508
0.0038918634
-0.53071674
0.0045588836
-0.56907364
0.0053386525
-0.61079457
0.0062459159
-0.65579598
0.0072941387
-0.7035554
0.0084966639
-0.75458654
0.0098648906
-0.80964463
0.011403952
-0.86882767
0.013101201
-0.93191189
0.014914229
-0.99925382
0.016762164
-1.0715262
0.018530073
-1.1492835
0.02007943
-1.2329517
0.021261706
-1.3228701
0.021935142
-1.4193875
0.021988805
-1.5230049
0.021369692
-1.6340664
0.020101204
-1.7526132
0.018284166
-1.8786459
0.016077948
-2.0121908
0.013669188
-2.1534761
0.011237976
-2.3030611
0.0089320281
-2.4617831
0.0068537299
-2.6307319
0.0050577795
-2.8108519
0.0035594495
-3.0030039
0.0023418994
-3.2085237
0.0013738271
-3.4296964
0.00060522392
-3.6677118
-0.0042542442
-0.53456437
-0.0059042269
-0.53796733
-0.0070305284
-0.54014787
-0.0074348667
-0.54080513
-0.0070477709
-0.53895402
-0.0057846474
-0.53399389
-0.0035975795
-0.52639479
-0.00045418479
-0.51602911
0.0036720499
-0.49622333
0.0042995461
-0.53205038
0.0050362633
-0.57104082
0.0058967412
-0.6131342
0.0068957895
-0.65776222
0.0080484046
-0.70541086
0.0093709102
-0.7568593
0.0108769
-0.81220136
0.012568252
-0.87113184
0.014418131
-0.93397538
0.016361313
-1.0014303
0.018294527
-1.0740249
0.020086207
-1.1521303
0.021586505
-1.2361154
0.022638539
-1.3263875
0.023099836
-1.4233958
0.022873137
-1.5275079
0.021934699
-1.6388725
0.020346457
-1.7575099
0.018246188
-1.883441
0.01582024
-2.0167337
0.013267231
-2.1576506
0.010765206
-2.3067823
0.0084500439
-2.4650263
0.0064075143
-2.6335649
0.0046754158
-2.8133697
0.0032548225
-3.0053078
0.0021189101
-3.2106972
0.0012298735
-3.4317101
0.00053597882
-3.6695237
-0.0019177583
-0.53484727
-0.0039599865
-0.53887547
-0.0056059644
-0.54198662
-0.0066531493
-0.54384284
-0.0070138622
-0.54343407
-0.0065881709
-0.54011916
-0.0053109732
-0.53434127
-0.003136406
-0.52594072
-2.2658015e-05
-0.5141101
0.0040531775
-0.49744742
0.0047461884
-0.53388748
0.0055594268
-0.57325895
0.0065073826
-0.61496253
0.0076064776
-0.65945695
0.0088752646
-0.70752998
0.01033516
-0.75928772
0.012000009
-0.8143404
0.013860165
-0.87297997
0.015865743
-0.93592149
0.017927888
-1.0036827
0.01992588
-1.0765731
0.021714965
-1.1549708
0.023131926
-1.2393381
0.024010395
-1.3301216
0.024212171
-1.427663
0.023663445
-1.5321821
0.022378798
-1.643763
0.02046219
-1.7624083
0.018087162
-1.8881817
0.015461605
-2.0211663
0.012789846
-2.1616581
0.010242466
-2.3103017
0.007939816
-2.4680597
0.0059492556
-2.6361883
0.0042915422
-2.8156925
0.0029543081
-3.0074326
0.0019019591
-3.2126979
0.0010913507
-3.4335546
0.00046999535
-3.6711375
-0.53496515
0.00055282483
-0.0017220065
-0.53945913
-0.0037401014
-0.54335137
-0.0052947258
-0.5462713
-0.0062807142
-0.54718744
-0.0065827749
-0.54542068
-0.0061196128
-0.54138799
-0.0048296502
-0.53489014
-0.0026570489
-0.5250886
0.00043611465
-0.51200067
0.0044705773
-0.49916728
0.0052355457
-0.53598443
0.0061316426
-0.57496073
0.0071745168
-0.6165094
0.0083845269
-0.66143307
0.0097872901
-0.70983997
0.011408937
-0.76127761
0.013254721
-0.81598772
0.015292334
-0.87470813
0.017447204
-0.93794659
0.01961267
-1.0059597
0.021654823
-1.0791069
0.023412079
-1.1578875
0.02470356
-1.2427878
0.02535649
-1.3341433
0.025247569
-1.4321411
0.024338022
-1.5369809
0.022687022
-1.6487096
0.020441761
-1.7673065
0.017807337
-1.8928502
0.015006986
-2.0254636
0.012244343
-2.1654865
0.0096775237
-2.3136196
0.0074082692
-2.4708843
0.0054844312
-2.6386123
0.0039100402
-2.8178253
0.002660388
-3.0093866
0.0016924417
-3.2145379
0.00095889323
-3.4352075
0.0004074173
-3.6725728
-0.53971434
0.00064597537
-0.53495307
0.0030233719
-0.0015896694
-0.54423286
-0.0035086395
-0.54807425
-0.0049886187
-0.55018877
-0.0059002997
-0.54986419
-0.0061453912
-0.54748847
-0.0056464215
-0.542825
-0.0043339837
-0.53499513
-0.0021550415
-0.52403058
0.00092252333
-0.51050556
0.0049277702
-0.50114035
0.0057706131
-0.53757177
0.0067562044
-0.57637559
0.0079034954
-0.61835387
0.0092417078
-0.66363341
0.010805226
-0.71169411
0.012616044
-0.76274066
0.014657172
-0.81751257
0.016870395
-0.87652624
0.019163656
-0.93997775
0.021418279
-1.0082034
0.023482333
-1.081721
0.025169547
-1.1610451
0.026281637
-1.2465379
0.026649899
-1.3383665
0.026179688
-1.4367643
0.024876414
-1.541899
0.022847626
-1.6537117
0.020281508
-1.7721789
0.017409362
-1.8974301
0.014462926
-2.0296133
0.011638949
-2.1691287
0.0090784882
-2.3167324
0.0068622991
-2.4735066
0.0050182341
-2.6408504
0.0035344215
-2.819787
0.0023751832
-3.0111702
0.0014914834
-3.2161978
0.00083299585
-3.436692
0.00034824741
-3.6738256
-0.54462516
0.00068676119
-0.53970967
0.0030139618
-0.53481188
0.0053601274
-0.0014467111
-0.54923934
-0.0032820708
-0.552417
-0.0046767989
-0.55342069
-0.0055154837
-0.5526027
-0.0057053047
-0.54969252
-0.0051625605
-0.54377657
-0.0038200846
-0.53488753
-0.0016328668
-0.52358028
0.0014384297
-0.50934667
0.0054276119
-0.5026214
0.0063542286
-0.53887127
0.0074373055
-0.57809856
0.0087047563
-0.62045111
0.010199314
-0.66536531
0.011956009
-0.71298956
0.013976234
-0.7640788
0.016215357
-0.81914434
0.018597498
-0.87833718
0.021021567
-0.94195037
0.023351593
-1.0105217
0.025405913
-1.0845641
0.026970139
-1.1644749
0.027838059
-1.2504674
0.027860365
-1.342735
0.026982713
-1.4415386
0.025261178
-1.5469236
0.02285194
-1.6587408
0.019980503
-1.7770115
0.016897937
-1.9018954
0.013837454
-2.0336014
0.010982693
-2.1725778
0.0084537133
-2.3196406
0.0063086127
-2.4759385
0.0045554577
-2.6429183
0.0031677568
-2.8215793
0.0021004632
-3.0127869
0.0012999614
-3.2176969
0.00071410379
-3.4379983
0.00029267444
-3.6749192
-0.5497591
0.00073745876
-0.54462947
0.0029632972
-0.53944594
0.005252455
-0.53450671
0.007393962
-0.0013081309
-0.55385773
-0.003051949
-0.55606612
-0.0043622306
-0.5566971
-0.0051300325
-0.55544709
-0.0052578163
-0.55137483
-0.0046639856
-0.54451147
-0.0032918261
-0.53538401
-0.0010899272
-0.52343743
0.0019896517
-0.5077525
0.0059726339
-0.50382376
0.0069895848
-0.54047996
0.0081835741
-0.58009669
0.0095991096
-0.62206976
0.011286779
-0.66651135
0.013263045
-0.71415781
0.015499776
-0.76554515
0.017933806
-0.82075974
0.020483452
-0.88005829
0.023034065
-0.94398131
0.025416842
-1.0130371
0.027412509
-1.0876316
0.028786269
-1.1680504
0.029339925
-1.2545066
0.028957307
-1.3472804
0.027633383
-1.4465034
0.025477781
-1.5520447
0.022694175
-1.6637829
0.019540353
-1.7817741
0.016279951
-1.9062376
0.013139987
-2.0374156
0.01028527
-2.175824
0.007811571
-2.3223447
0.0057535543
-2.4781925
0.0041003967
-2.6448255
0.0028126635
-2.8232163
0.0018376392
-3.0142432
0.001118531
-3.2190304
0.00060258048
-3.4391545
0.00024121569
-3.675857
-0.55450205
0.0007843294
-0.54976721
0.0029218101
-0.544247
0.0051145904
-0.53885386
0.0071977471
-0.53403972
0.0089578379
-0.0011681439
-0.55778272
-0.002820535
-0.55974435
-0.0040478924
-0.56005082
-0.0047390485
-0.55774035
-0.0047986448
-0.55283693
-0.0041563436
-0.54584369
-0.0027495231
-0.53615337
-0.00051757141
-0.52281197
0.0025798341
-0.50595581
0.0065652558
-0.50533342
0.0076831665
-0.54237818
0.0090138904
-0.58161434
0.010617138
-0.6230829
0.012530771
-0.66752798
0.01473872
-0.71547633
0.01719187
-0.76698885
0.019824787
-0.82225039
0.022547577
-0.8818153
0.02521309
-0.94617778
0.02760674
-1.0157267
0.029476698
-1.0908164
0.030583828
-1.1717568
0.030752826
-1.2588063
0.029911783
-1.3521129
0.028110632
-1.4516413
0.025514273
-1.5572423
0.022371284
-1.6688115
0.018965429
-1.7864555
0.015564348
-1.9104301
0.012381245
-2.0410399
0.0095567739
-2.1788596
0.0071602132
-2.3248522
0.0052029456
-2.4802768
0.003656796
-2.6465809
0.0024712938
-2.8246982
0.0015877991
-3.0155502
0.00094764229
-3.2202185
0.00049846266
-3.4401534
0.00019376173
-3.6766628
-0.55855804
0.00083055125
-0.55451465
0.0028770272
-0.54926588
0.0049849187
-0.54337486
0.0069820523
-0.53793743
0.0086879901
-0.53341447
0.009887826
-0.0010281407
-0.56172215
-0.0025897899
-0.56347214
-0.0037299643
-0.56283041
-0.0043396016
-0.55981098
-0.0043339215
-0.55488879
-0.0036389323
-0.54741861
-0.0021835458
-0.53639952
8.7153967e-05
-0.52196401
0.0032078927
-0.50454651
0.0072099858
-0.50712921
0.008450695
-0.54380576
0.0099578347
-0.58251544
0.011787759
-0.62396538
0.013945642
-0.66871473
0.016388258
-0.7167679
0.019066164
-0.7682695
0.021913359
-0.82375176
0.024810234
-0.88371027
0.027558526
-0.94850273
0.029899669
-1.0185254
0.031564739
-1.0941838
0.032325793
-1.1757763
0.032042928
-1.2634423
0.030696236
-1.3571923
0.028395386
-1.4569286
0.025361368
-1.5624871
0.021883521
-1.6738026
0.018263036
-1.7910211
0.01476224
-1.9144575
0.011572888
-2.0444583
0.0088073405
-2.1816847
0.0065073075
-2.3271665
0.0046619897
-2.4821986
0.0032278254
-2.648189
0.0021453661
-2.8260423
0.0013517182
-3.016712
0.00078754285
-3.2212548
0.00040160824
-3.4410201
0.0001499544
-3.6773394
-0.56261534
0.00087558307
-0.55858557
0.0028295792
-0.5538984
0.0048523975
-0.54811971
0.0067731513
-0.54201883
0.0084089376
-0.53670245
0.0095643818
-0.53263589
0.010024221
-0.00088896506
-0.56568728
-0.0023570054
-0.56661177
-0.0034061003
-0.56538762
-0.0039367129
-0.56246137
-0.0038629214
-0.55715639
-0.0031031961
-0.54843899
-0.001591232
-0.5364108
0.00072087077
-0.52149444
0.0038751102
-0.5034809
0.0079193049
-0.50847079
0.00931874
-0.54461654
0.011045033
-0.58328415
0.013127363
-0.62503015
0.015536532
-0.66987002
0.018225673
-0.71785779
0.021152716
-0.76953398
0.024228646
-0.82536791
0.027279742
-0.88569309
0.030054159
-0.95091818
0.032264011
-1.0215192
0.033639009
-1.097882
0.033975074
-1.1801751
0.033176798
-1.2683836
0.031283929
-1.3624803
0.028470608
-1.4623274
0.025013328
-1.5677484
0.021234918
-1.6787196
0.017443623
-1.7954495
0.013886447
-1.9182892
0.010727108
-2.0476654
0.0080467918
-2.1842978
0.0058598899
-2.329293
0.0041352074
-2.4839614
0.0028160941
-2.6496617
0.0018361768
-2.8272445
0.0011298935
-3.0177363
0.0006383054
-3.2221614
0.00031192036
-3.4417553
0.00010967941
-3.6779087
-0.5666802
0.00091967819
-0.56264569
0.0027797199
-0.55786734
0.004715169
-0.55248641
0.0065615393
-0.54633653
0.008134645
-0.54018739
0.0092416255
-0.53515778
0.0096725582
-0.53170929
0.0092124584
-0.00074925843
-0.56905891
-0.0021207795
-0.56952991
-0.0030805801
-0.56851171
-0.0035306089
-0.56530438
-0.0033781233
-0.55884566
-0.0025456309
-0.54921458
-0.00097768561
-0.53679567
0.0013818595
-0.52134236
0.0045915204
-0.50201194
0.0087162403
-0.50921899
0.010315939
-0.54529546
0.012294256
-0.58424004
0.014642179
-0.62605372
0.017317575
-0.67078547
0.020285286
-0.71890489
0.023489579
-0.77089464
0.026788436
-0.82703319
0.029946729
-0.88773463
0.032672247
-0.95352605
0.034663455
-1.0248629
0.035660942
-1.1019893
0.035493458
-1.184899
0.034119931
-1.2735814
0.031648815
-1.3679606
0.028322602
-1.4678131
0.024468902
-1.5729872
0.020433781
-1.6835348
0.016520427
-1.7997069
0.012951061
-1.9219209
0.0098560874
-2.0506514
0.0072843792
-2.1866996
0.0052242284
-2.3312319
0.0036264311
-2.4855755
0.0024236588
-2.6509947
0.0015446343
-2.8283185
0.00092257236
-3.0186325
0.00049987048
-3.2229418
0.00022925751
-3.4423833
7.2732559e-05
-3.6783745
-0.57015474
0.00096286028
-0.56670179
0.0027287286
-0.56181657
0.0045742191
-0.55620355
0.006343166
-0.55028879
0.0078573444
-0.54392864
0.0089202817
-0.53789179
0.0093296849
-0.53331259
0.0088625157
-0.53064176
0.0073048594
-0.00060823954
-0.57221043
-0.0018838622
-0.57300129
-0.0027534065
-0.57181054
-0.0031134645
-0.56755346
-0.0028755395
-0.56028101
-0.0019739901
-0.5503581
-0.00034711021
-0.53746888
0.0020809993
-0.52074898
0.0053794318
-0.50000855
0.0096276155
-0.50985023
0.011463297
-0.54616182
0.013715058
-0.58514157
0.016347751
-0.6268033
0.019327038
-0.67163221
0.022614031
-0.72003323
0.026104862
-0.7722685
0.029591529
-0.82871767
0.032788852
-0.88995455
0.035379706
-0.95647777
0.037060108
-1.02861
0.037589275
-1.1064321
0.036839471
-1.1899137
0.034836703
-1.2790326
0.03176737
-1.3736022
0.027942505
-1.473341
0.023732257
-1.578172
0.019492477
-1.6882131
0.015508891
-1.8037777
0.011970683
-1.9253292
0.0089716748
-2.0534142
0.0065285738
-2.1888879
0.0046057908
-2.3329938
0.0031387921
-2.4870391
0.0020520543
-2.6521978
0.0012712942
-2.8292606
0.00072981583
-3.0194137
0.00037208
-3.2236146
0.00015339876
-3.4429012
3.7397987e-05
-3.6787559
-0.57341054
0.0010052573
-0.57017773
0.0026753685
-0.56575761
0.0044317364
-0.55989842
0.0061195671
-0.55360501
0.007571065
-0.54732002
0.0085952254
-0.54091145
0.0089849185
-0.53514777
0.0085289403
-0.53118114
0.0069908084
-0.52943909
0.0041601893
-0.00046731214
-0.57590113
-0.0016463402
-0.57663294
-0.0024183535
-0.57450593
-0.0026834093
-0.56954019
-0.0023644537
-0.56207696
-0.0013936213
-0.5517662
0.00031036375
-0.53766272
0.0028385408
-0.51959353
0.006261341
-0.49794398
0.01067559
-0.51066852
0.012775238
-0.5469608
0.015326795
-0.58573962
0.018286532
-0.62746337
0.02162049
-0.67254902
0.025250815
-0.72114132
0.029006519
-0.77361553
0.032622344
-0.83055471
0.035778039
-0.8924915
0.038141682
-0.95980656
0.039412377
-1.0326906
0.039377436
-1.1111716
0.037968101
-1.1952411
0.035292417
-1.284751
0.031620774
-1.379373
0.027327895
-1.4788765
0.022813059
-1.5832604
0.018426882
-1.6927235