/*--------------------------------*- C++ -*----------------------------------*\
| =========                 |                                                 |
| \\      /  F ield         | OpenFOAM: The Open Source CFD Toolbox           |
|  \\    /   O peration     | Version:  v2012                                 |
|   \\  /    A nd           | Website:  www.openfoam.com                      |
|    \\/     M anipulation  |                                                 |
\*---------------------------------------------------------------------------*/
FoamFile
{
    version     2.0;
    format      ascii;
    class       pointVectorField;
    location    "4.5110046";
    object      pointDisplacement;
}
// * * * * * * * * * * * * * * * * * * * * * * * * * * * * * * * * * * * * * //

dimensions      [0 1 0 0 0 0 0];


internalField   nonuniform List<vector> 
18840
(
(1.792854 0 0)
(1.7927749 0 0)
(1.7925395 0 0)
(1.7921514 0 0)
(1.7916126 0 0)
(1.790925 0 0)
(1.790089 0 0)
(1.7891044 0 0)
(1.7879703 0 0)
(1.7866854 0 0)
(1.7852475 0 0)
(1.7836543 0 0)
(1.7819027 0 0)
(1.7799895 0 0)
(1.7779108 0 0)
(1.7756624 0 0)
(1.77324 0 0)
(1.7706389 0 0)
(1.7678541 0 0)
(1.7648818 0 0)
(1.7610754 0 0)
(1.792854 0 0)
(1.7927745 0 0)
(1.7925378 0 0)
(1.7921474 0 0)
(1.7916053 0 0)
(1.7909132 0 0)
(1.7900718 0 0)
(1.789081 0 0)
(1.7879398 0 0)
(1.786647 0 0)
(1.7852006 0 0)
(1.7835982 0 0)
(1.7818369 0 0)
(1.7799133 0 0)
(1.777824 0 0)
(1.7755647 0 0)
(1.7731314 0 0)
(1.7705192 0 0)
(1.7677235 0 0)
(1.7647398 0 0)
(1.7615415 0 0)
(1.792854 0 0)
(1.7927738 0 0)
(1.7925354 0 0)
(1.7921418 0 0)
(1.7915953 0 0)
(1.7908975 0 0)
(1.790049 0 0)
(1.7890498 0 0)
(1.7878992 0 0)
(1.7865958 0 0)
(1.7851375 0 0)
(1.7835222 0 0)
(1.7817469 0 0)
(1.7798084 0 0)
(1.777703 0 0)
(1.7754269 0 0)
(1.7729756 0 0)
(1.7703447 0 0)
(1.767529 0 0)
(1.7645234 0 0)
(1.761255 0 0)
(1.792854 0 0)
(1.7927732 0 0)
(1.7925329 0 0)
(1.7921361 0 0)
(1.791585 0 0)
(1.7908811 0 0)
(1.7900253 0 0)
(1.7890175 0 0)
(1.7878568 0 0)
(1.7865419 0 0)
(1.7850708 0 0)
(1.7834413 0 0)
(1.7816504 0 0)
(1.779695 0 0)
(1.7775713 0 0)
(1.7752755 0 0)
(1.772803 0 0)
(1.7701494 0 0)
(1.7673096 0 0)
(1.7642784 0 0)
(1.7609433 0 0)
(1.792854 0 0)
(1.7927726 0 0)
(1.7925302 0 0)
(1.7921301 0 0)
(1.7915743 0 0)
(1.7908643 0 0)
(1.7900008 0 0)
(1.7889838 0 0)
(1.7878125 0 0)
(1.7864854 0 0)
(1.7850005 0 0)
(1.7833556 0 0)
(1.7815475 0 0)
(1.7795733 0 0)
(1.777429 0 0)
(1.7751107 0 0)
(1.7726139 0 0)
(1.7699341 0 0)
(1.767066 0 0)
(1.7640046 0 0)
(1.7606024 0 0)
(1.792854 0 0)
(1.7927719 0 0)
(1.7925275 0 0)
(1.7921239 0 0)
(1.7915632 0 0)
(1.7908468 0 0)
(1.7899754 0 0)
(1.7889489 0 0)
(1.7877663 0 0)
(1.7864262 0 0)
(1.7849266 0 0)
(1.783265 0 0)
(1.7814383 0 0)
(1.7794434 0 0)
(1.7772763 0 0)
(1.774933 0 0)
(1.772409 0 0)
(1.7696995 0 0)
(1.7667992 0 0)
(1.7637032 0 0)
(1.7602338 0 0)
(1.792854 0 0)
(1.7927711 0 0)
(1.7925246 0 0)
(1.7921174 0 0)
(1.7915516 0 0)
(1.7908287 0 0)
(1.789949 0 0)
(1.7889125 0 0)
(1.7877182 0 0)
(1.7863644 0 0)
(1.7848491 0 0)
(1.7831696 0 0)
(1.7813229 0 0)
(1.7793056 0 0)
(1.7771137 0 0)
(1.7747431 0 0)
(1.772189 0 0)
(1.7694466 0 0)
(1.7665105 0 0)
(1.7633756 0 0)
(1.7598394 0 0)
(1.792854 0 0)
(1.7927704 0 0)
(1.7925216 0 0)
(1.7921106 0 0)
(1.7915395 0 0)
(1.7908096 0 0)
(1.7899213 0 0)
(1.7888745 0 0)
(1.7876678 0 0)
(1.7862996 0 0)
(1.7847676 0 0)
(1.7830693 0 0)
(1.7812012 0 0)
(1.77916 0 0)
(1.7769414 0 0)
(1.7745411 0 0)
(1.7719544 0 0)
(1.7691762 0 0)
(1.7662009 0 0)
(1.7630233 0 0)
(1.7594213 0 0)
(1.792854 0 0)
(1.7927696 0 0)
(1.7925184 0 0)
(1.7921034 0 0)
(1.7915267 0 0)
(1.7907895 0 0)
(1.7898923 0 0)
(1.7888344 0 0)
(1.7876147 0 0)
(1.7862313 0 0)
(1.7846819 0 0)
(1.7829636 0 0)
(1.781073 0 0)
(1.7790062 0 0)
(1.7767592 0 0)
(1.7743273 0 0)
(1.7717057 0 0)
(1.7688889 0 0)
(1.7658714 0 0)
(1.7626474 0 0)
(1.7589816 0 0)
(1.792854 0 0)
(1.7927688 0 0)
(1.7925152 0 0)
(1.7920961 0 0)
(1.7915135 0 0)
(1.7907686 0 0)
(1.7898618 0 0)
(1.7887923 0 0)
(1.7875588 0 0)
(1.7861595 0 0)
(1.7845917 0 0)
(1.7828523 0 0)
(1.7809378 0 0)
(1.7788442 0 0)
(1.7765672 0 0)
(1.7741018 0 0)
(1.771443 0 0)
(1.7685852 0 0)
(1.7655227 0 0)
(1.7622493 0 0)
(1.7585221 0 0)
(1.792854 0 0)
(1.7927679 0 0)
(1.7925113 0 0)
(1.7920871 0 0)
(1.7914974 0 0)
(1.7907432 0 0)
(1.7898246 0 0)
(1.7887411 0 0)
(1.7874911 0 0)
(1.7860726 0 0)
(1.7844828 0 0)
(1.7827185 0 0)
(1.7807759 0 0)
(1.7786509 0 0)
(1.7763387 0 0)
(1.7738343 0 0)
(1.7711324 0 0)
(1.7682272 0 0)
(1.7651128 0 0)
(1.7617826 0 0)
(1.7579934 0 0)
(1.792854 0 0)
(1.7927749 0 0)
(1.7925395 0 0)
(1.7921514 0 0)
(1.7916126 0 0)
(1.790925 0 0)
(1.790089 0 0)
(1.7891044 0 0)
(1.7879703 0 0)
(1.7866854 0 0)
(1.7852475 0 0)
(1.7836543 0 0)
(1.7819027 0 0)
(1.7799895 0 0)
(1.7779108 0 0)
(1.7756624 0 0)
(1.77324 0 0)
(1.7706389 0 0)
(1.7678541 0 0)
(1.7648818 0 0)
(1.7610754 0 0)
(1.792854 0 0)
(1.7927745 0 0)
(1.7925378 0 0)
(1.7921474 0 0)
(1.7916053 0 0)
(1.7909132 0 0)
(1.7900718 0 0)
(1.789081 0 0)
(1.7879398 0 0)
(1.786647 0 0)
(1.7852006 0 0)
(1.7835982 0 0)
(1.7818369 0 0)
(1.7799133 0 0)
(1.777824 0 0)
(1.7755647 0 0)
(1.7731314 0 0)
(1.7705192 0 0)
(1.7677235 0 0)
(1.7647398 0 0)
(1.7615415 0 0)
(1.792854 0 0)
(1.7927738 0 0)
(1.7925354 0 0)
(1.7921418 0 0)
(1.7915953 0 0)
(1.7908975 0 0)
(1.790049 0 0)
(1.7890498 0 0)
(1.7878992 0 0)
(1.7865958 0 0)
(1.7851375 0 0)
(1.7835222 0 0)
(1.7817469 0 0)
(1.7798084 0 0)
(1.777703 0 0)
(1.7754269 0 0)
(1.7729756 0 0)
(1.7703447 0 0)
(1.767529 0 0)
(1.7645234 0 0)
(1.761255 0 0)
(1.792854 0 0)
(1.7927732 0 0)
(1.7925329 0 0)
(1.7921361 0 0)
(1.791585 0 0)
(1.7908811 0 0)
(1.7900253 0 0)
(1.7890175 0 0)
(1.7878568 0 0)
(1.7865419 0 0)
(1.7850708 0 0)
(1.7834413 0 0)
(1.7816504 0 0)
(1.779695 0 0)
(1.7775713 0 0)
(1.7752755 0 0)
(1.772803 0 0)
(1.7701494 0 0)
(1.7673096 0 0)
(1.7642784 0 0)
(1.7609433 0 0)
(1.792854 0 0)
(1.7927726 0 0)
(1.7925302 0 0)
(1.7921301 0 0)
(1.7915743 0 0)
(1.7908643 0 0)
(1.7900008 0 0)
(1.7889838 0 0)
(1.7878125 0 0)
(1.7864854 0 0)
(1.7850005 0 0)
(1.7833556 0 0)
(1.7815475 0 0)
(1.7795733 0 0)
(1.777429 0 0)
(1.7751107 0 0)
(1.7726139 0 0)
(1.7699341 0 0)
(1.767066 0 0)
(1.7640046 0 0)
(1.7606024 0 0)
(1.792854 0 0)
(1.7927719 0 0)
(1.7925275 0 0)
(1.7921239 0 0)
(1.7915632 0 0)
(1.7908468 0 0)
(1.7899754 0 0)
(1.7889489 0 0)
(1.7877663 0 0)
(1.7864262 0 0)
(1.7849266 0 0)
(1.783265 0 0)
(1.7814383 0 0)
(1.7794434 0 0)
(1.7772763 0 0)
(1.774933 0 0)
(1.772409 0 0)
(1.7696995 0 0)
(1.7667992 0 0)
(1.7637032 0 0)
(1.7602338 0 0)
(1.792854 0 0)
(1.7927711 0 0)
(1.7925246 0 0)
(1.7921174 0 0)
(1.7915516 0 0)
(1.7908287 0 0)
(1.789949 0 0)
(1.7889125 0 0)
(1.7877182 0 0)
(1.7863644 0 0)
(1.7848491 0 0)
(1.7831696 0 0)
(1.7813229 0 0)
(1.7793056 0 0)
(1.7771137 0 0)
(1.7747431 0 0)
(1.772189 0 0)
(1.7694466 0 0)
(1.7665105 0 0)
(1.7633756 0 0)
(1.7598394 0 0)
(1.792854 0 0)
(1.7927704 0 0)
(1.7925216 0 0)
(1.7921106 0 0)
(1.7915395 0 0)
(1.7908096 0 0)
(1.7899213 0 0)
(1.7888745 0 0)
(1.7876678 0 0)
(1.7862996 0 0)
(1.7847676 0 0)
(1.7830693 0 0)
(1.7812012 0 0)
(1.77916 0 0)
(1.7769414 0 0)
(1.7745411 0 0)
(1.7719544 0 0)
(1.7691762 0 0)
(1.7662009 0 0)
(1.7630233 0 0)
(1.7594213 0 0)
(1.792854 0 0)
(1.7927696 0 0)
(1.7925184 0 0)
(1.7921034 0 0)
(1.7915267 0 0)
(1.7907895 0 0)
(1.7898923 0 0)
(1.7888344 0 0)
(1.7876147 0 0)
(1.7862313 0 0)
(1.7846819 0 0)
(1.7829636 0 0)
(1.781073 0 0)
(1.7790062 0 0)
(1.7767592 0 0)
(1.7743273 0 0)
(1.7717057 0 0)
(1.7688889 0 0)
(1.7658714 0 0)
(1.7626474 0 0)
(1.7589816 0 0)
(1.792854 0 0)
(1.7927688 0 0)
(1.7925152 0 0)
(1.7920961 0 0)
(1.7915135 0 0)
(1.7907686 0 0)
(1.7898618 0 0)
(1.7887923 0 0)
(1.7875588 0 0)
(1.7861595 0 0)
(1.7845917 0 0)
(1.7828523 0 0)
(1.7809378 0 0)
(1.7788442 0 0)
(1.7765672 0 0)
(1.7741018 0 0)
(1.771443 0 0)
(1.7685852 0 0)
(1.7655227 0 0)
(1.7622493 0 0)
(1.7585221 0 0)
(1.792854 0 0)
(1.7927679 0 0)
(1.7925113 0 0)
(1.7920871 0 0)
(1.7914974 0 0)
(1.7907432 0 0)
(1.7898246 0 0)
(1.7887411 0 0)
(1.7874911 0 0)
(1.7860726 0 0)
(1.7844828 0 0)
(1.7827185 0 0)
(1.7807759 0 0)
(1.7786509 0 0)
(1.7763387 0 0)
(1.7738343 0 0)
(1.7711324 0 0)
(1.7682272 0 0)
(1.7651128 0 0)
(1.7617826 0 0)
(1.7579934 0 0)
(1.792854 0 0)
(1.7927771 0 0)
(1.7925485 0 0)
(1.7921715 0 0)
(1.7916482 0 0)
(1.7909796 0 0)
(1.7901656 0 0)
(1.7892054 0 0)
(1.7880975 0 0)
(1.7868395 0 0)
(1.7854284 0 0)
(1.7838607 0 0)
(1.7821322 0 0)
(1.7802382 0 0)
(1.7781732 0 0)
(1.7759313 0 0)
(1.773506 0 0)
(1.7708903 0 0)
(1.7680765 0 0)
(1.7650579 0 0)
(1.761547 0 0)
(1.792854 0 0)
(1.7927767 0 0)
(1.7925468 0 0)
(1.7921678 0 0)
(1.7916417 0 0)
(1.7909697 0 0)
(1.7901516 0 0)
(1.7891868 0 0)
(1.7880736 0 0)
(1.7868099 0 0)
(1.7853928 0 0)
(1.7838187 0 0)
(1.7820834 0 0)
(1.7801822 0 0)
(1.7781098 0 0)
(1.7758602 0 0)
(1.7734269 0 0)
(1.7708029 0 0)
(1.7679805 0 0)
(1.7649532 0 0)
(1.7614372 0 0)
(1.792854 0 0)
(1.7927762 0 0)
(1.7925449 0 0)
(1.7921636 0 0)
(1.7916344 0 0)
(1.7909584 0 0)
(1.7901358 0 0)
(1.7891657 0 0)
(1.7880468 0 0)
(1.786777 0 0)
(1.7853532 0 0)
(1.7837722 0 0)
(1.7820296 0 0)
(1.780121 0 0)
(1.7780409 0 0)
(1.7757835 0 0)
(1.7733424 0 0)
(1.7707106 0 0)
(1.7678805 0 0)
(1.7648456 0 0)
(1.761333 0 0)
(1.792854 0 0)
(1.7927758 0 0)
(1.7925434 0 0)
(1.7921602 0 0)
(1.7916284 0 0)
(1.7909493 0 0)
(1.790123 0 0)
(1.7891489 0 0)
(1.7880256 0 0)
(1.786751 0 0)
(1.7853224 0 0)
(1.7837363 0 0)
(1.7819887 0 0)
(1.7800751 0 0)
(1.7779902 0 0)
(1.7757284 0 0)
(1.7732831 0 0)
(1.7706477 0 0)
(1.7678148 0 0)
(1.7647779 0 0)
(1.7612803 0 0)
(1.792854 0 0)
(1.7927755 0 0)
(1.7925422 0 0)
(1.7921575 0 0)
(1.7916238 0 0)
(1.7909423 0 0)
(1.7901133 0 0)
(1.7891361 0 0)
(1.7880096 0 0)
(1.7867316 0 0)
(1.7852996 0 0)
(1.7837103 0 0)
(1.7819598 0 0)
(1.7800435 0 0)
(1.7779564 0 0)
(1.775693 0 0)
(1.773247 0 0)
(1.770612 0 0)
(1.7677806 0 0)
(1.7647468 0 0)
(1.7612753 0 0)
(1.792854 0 0)
(1.7927753 0 0)
(1.7925413 0 0)
(1.7921555 0 0)
(1.7916204 0 0)
(1.7909372 0 0)
(1.7901062 0 0)
(1.7891269 0 0)
(1.7879982 0 0)
(1.7867181 0 0)
(1.7852841 0 0)
(1.7836931 0 0)
(1.7819413 0 0)
(1.7800243 0 0)
(1.7779372 0 0)
(1.7756748 0 0)
(1.773231 0 0)
(1.7705996 0 0)
(1.7677737 0 0)
(1.764747 0 0)
(1.7613122 0 0)
(1.792854 0 0)
(1.7927751 0 0)
(1.7925407 0 0)
(1.7921542 0 0)
(1.7916181 0 0)
(1.7909337 0 0)
(1.7901013 0 0)
(1.7891207 0 0)
(1.7879907 0 0)
(1.7867094 0 0)
(1.7852745 0 0)
(1.783683 0 0)
(1.7819312 0 0)
(1.780015 0 0)
(1.7779297 0 0)
(1.7756703 0 0)
(1.7732309 0 0)
(1.7706057 0 0)
(1.767788 0 0)
(1.7647718 0 0)
(1.7613827 0 0)
(1.792854 0 0)
(1.792775 0 0)
(1.7925403 0 0)
(1.7921532 0 0)
(1.7916165 0 0)
(1.7909313 0 0)
(1.7900982 0 0)
(1.7891168 0 0)
(1.7879861 0 0)
(1.7867043 0 0)
(1.7852692 0 0)
(1.7836779 0 0)
(1.781927 0 0)
(1.7800125 0 0)
(1.7779301 0 0)
(1.7756747 0 0)
(1.7732412 0 0)
(1.7706237 0 0)
(1.7678161 0 0)
(1.7648123 0 0)
(1.7614766 0 0)
(1.792854 0 0)
(1.792775 0 0)
(1.79254 0 0)
(1.7921527 0 0)
(1.7916155 0 0)
(1.7909299 0 0)
(1.7900963 0 0)
(1.7891144 0 0)
(1.7879833 0 0)
(1.7867013 0 0)
(1.7852663 0 0)
(1.7836755 0 0)
(1.7819257 0 0)
(1.7800133 0 0)
(1.7779339 0 0)
(1.775683 0 0)
(1.7732555 0 0)
(1.7706462 0 0)
(1.7678491 0 0)
(1.7648583 0 0)
(1.7615822 0 0)
(1.792854 0 0)
(1.792775 0 0)
(1.79254 0 0)
(1.7921526 0 0)
(1.7916151 0 0)
(1.7909292 0 0)
(1.7900952 0 0)
(1.7891129 0 0)
(1.7879814 0 0)
(1.7866993 0 0)
(1.7852643 0 0)
(1.783674 0 0)
(1.7819252 0 0)
(1.7800144 0 0)
(1.7779376 0 0)
(1.7756906 0 0)
(1.7732685 0 0)
(1.7706665 0 0)
(1.767879 0 0)
(1.7649012 0 0)
(1.7616927 0 0)
(1.792854 0 0)
(1.7927771 0 0)
(1.7925485 0 0)
(1.7921715 0 0)
(1.7916482 0 0)
(1.7909796 0 0)
(1.7901656 0 0)
(1.7892054 0 0)
(1.7880975 0 0)
(1.7868395 0 0)
(1.7854284 0 0)
(1.7838607 0 0)
(1.7821322 0 0)
(1.7802382 0 0)
(1.7781732 0 0)
(1.7759313 0 0)
(1.773506 0 0)
(1.7708903 0 0)
(1.7680765 0 0)
(1.7650579 0 0)
(1.761547 0 0)
(1.792854 0 0)
(1.7927767 0 0)
(1.7925468 0 0)
(1.7921678 0 0)
(1.7916417 0 0)
(1.7909697 0 0)
(1.7901516 0 0)
(1.7891868 0 0)
(1.7880736 0 0)
(1.7868099 0 0)
(1.7853928 0 0)
(1.7838187 0 0)
(1.7820834 0 0)
(1.7801822 0 0)
(1.7781098 0 0)
(1.7758602 0 0)
(1.7734269 0 0)
(1.7708029 0 0)
(1.7679805 0 0)
(1.7649532 0 0)
(1.7614372 0 0)
(1.792854 0 0)
(1.7927762 0 0)
(1.7925449 0 0)
(1.7921636 0 0)
(1.7916344 0 0)
(1.7909584 0 0)
(1.7901358 0 0)
(1.7891657 0 0)
(1.7880468 0 0)
(1.786777 0 0)
(1.7853532 0 0)
(1.7837722 0 0)
(1.7820296 0 0)
(1.780121 0 0)
(1.7780409 0 0)
(1.7757835 0 0)
(1.7733424 0 0)
(1.7707106 0 0)
(1.7678805 0 0)
(1.7648456 0 0)
(1.761333 0 0)
(1.792854 0 0)
(1.7927758 0 0)
(1.7925434 0 0)
(1.7921602 0 0)
(1.7916284 0 0)
(1.7909493 0 0)
(1.790123 0 0)
(1.7891489 0 0)
(1.7880256 0 0)
(1.786751 0 0)
(1.7853224 0 0)
(1.7837363 0 0)
(1.7819887 0 0)
(1.7800751 0 0)
(1.7779902 0 0)
(1.7757284 0 0)
(1.7732831 0 0)
(1.7706477 0 0)
(1.7678148 0 0)
(1.7647779 0 0)
(1.7612803 0 0)
(1.792854 0 0)
(1.7927755 0 0)
(1.7925422 0 0)
(1.7921575 0 0)
(1.7916238 0 0)
(1.7909423 0 0)
(1.7901133 0 0)
(1.7891361 0 0)
(1.7880096 0 0)
(1.7867316 0 0)
(1.7852996 0 0)
(1.7837103 0 0)
(1.7819598 0 0)
(1.7800435 0 0)
(1.7779564 0 0)
(1.775693 0 0)
(1.773247 0 0)
(1.770612 0 0)
(1.7677806 0 0)
(1.7647468 0 0)
(1.7612753 0 0)
(1.792854 0 0)
(1.7927753 0 0)
(1.7925413 0 0)
(1.7921555 0 0)
(1.7916204 0 0)
(1.7909372 0 0)
(1.7901062 0 0)
(1.7891269 0 0)
(1.7879982 0 0)
(1.7867181 0 0)
(1.7852841 0 0)
(1.7836931 0 0)
(1.7819413 0 0)
(1.7800243 0 0)
(1.7779372 0 0)
(1.7756748 0 0)
(1.773231 0 0)
(1.7705996 0 0)
(1.7677737 0 0)
(1.764747 0 0)
(1.7613122 0 0)
(1.792854 0 0)
(1.7927751 0 0)
(1.7925407 0 0)
(1.7921542 0 0)
(1.7916181 0 0)
(1.7909337 0 0)
(1.7901013 0 0)
(1.7891207 0 0)
(1.7879907 0 0)
(1.7867094 0 0)
(1.7852745 0 0)
(1.783683 0 0)
(1.7819312 0 0)
(1.780015 0 0)
(1.7779297 0 0)
(1.7756703 0 0)
(1.7732309 0 0)
(1.7706057 0 0)
(1.767788 0 0)
(1.7647718 0 0)
(1.7613827 0 0)
(1.792854 0 0)
(1.792775 0 0)
(1.7925403 0 0)
(1.7921532 0 0)
(1.7916165 0 0)
(1.7909313 0 0)
(1.7900982 0 0)
(1.7891168 0 0)
(1.7879861 0 0)
(1.7867043 0 0)
(1.7852692 0 0)
(1.7836779 0 0)
(1.781927 0 0)
(1.7800125 0 0)
(1.7779301 0 0)
(1.7756747 0 0)
(1.7732412 0 0)
(1.7706237 0 0)
(1.7678161 0 0)
(1.7648123 0 0)
(1.7614766 0 0)
(1.792854 0 0)
(1.792775 0 0)
(1.79254 0 0)
(1.7921527 0 0)
(1.7916155 0 0)
(1.7909299 0 0)
(1.7900963 0 0)
(1.7891144 0 0)
(1.7879833 0 0)
(1.7867013 0 0)
(1.7852663 0 0)
(1.7836755 0 0)
(1.7819257 0 0)
(1.7800133 0 0)
(1.7779339 0 0)
(1.775683 0 0)
(1.7732555 0 0)
(1.7706462 0 0)
(1.7678491 0 0)
(1.7648583 0 0)
(1.7615822 0 0)
(1.792854 0 0)
(1.792775 0 0)
(1.79254 0 0)
(1.7921526 0 0)
(1.7916151 0 0)
(1.7909292 0 0)
(1.7900952 0 0)
(1.7891129 0 0)
(1.7879814 0 0)
(1.7866993 0 0)
(1.7852643 0 0)
(1.783674 0 0)
(1.7819252 0 0)
(1.7800144 0 0)
(1.7779376 0 0)
(1.7756906 0 0)
(1.7732685 0 0)
(1.7706665 0 0)
(1.767879 0 0)
(1.7649012 0 0)
(1.7616927 0 0)
(1.7571651 0 0)
(1.7521522 0 0)
(1.7467753 0 0)
(1.7410175 0 0)
(1.7348606 0 0)
(1.7282847 0 0)
(1.721266 0 0)
(1.7137723 0 0)
(1.7057636 0 0)
(1.6972004 0 0)
(1.6880468 0 0)
(1.6782649 0 0)
(1.6678107 0 0)
(1.6566343 0 0)
(1.6446836 0 0)
(1.6319026 0 0)
(1.6182348 0 0)
(1.6036244 0 0)
(1.5880129 0 0)
(1.5713394 0 0)
(1.5535447 0 0)
(1.5345641 0 0)
(1.5143219 0 0)
(1.4927393 0 0)
(1.4697406 0 0)
(1.4452397 0 0)
(1.4191335 0 0)
(1.3913185 0 0)
(1.3616985 0 0)
(1.3301597 0 0)
(1.2965591 0 0)
(1.2607591 0 0)
(1.2226391 0 0)
(1.1820601 0 0)
(1.1388391 0 0)
(1.0927589 0 0)
(1.0436229 0 0)
(0.99125392 0 0)
(0.93541091 0 0)
(0.87577628 0 0)
(0.81207018 0 0)
(0.74404986 0 0)
(0.67140321 0 0)
(0.59376222 0 0)
(0.5107719 0 0)
(0.4220445 0 0)
(0.32709806 0 0)
(0.22540564 0 0)
(0.11643052 0 0)
(0 0 0)
(1.7570587 0 0)
(1.7520538 0 0)
(1.746685 0 0)
(1.7409355 0 0)
(1.7347876 0 0)
(1.7282221 0 0)
(1.7212157 0 0)
(1.7137365 0 0)
(1.7057434 0 0)
(1.6971964 0 0)
(1.6880594 0 0)
(1.6782944 0 0)
(1.6678568 0 0)
(1.6566974 0 0)
(1.6447635 0 0)
(1.631998 0 0)
(1.6183445 0 0)
(1.6037481 0 0)
(1.5881498 0 0)
(1.5714883 0 0)
(1.5537045 0 0)
(1.534734 0 0)
(1.5145013 0 0)
(1.4929267 0 0)
(1.4699347 0 0)
(1.4454399 0 0)
(1.4193389 0 0)
(1.3915276 0 0)
(1.3619101 0 0)
(1.330373 0 0)
(1.2967734 0 0)
(1.2609731 0 0)
(1.2228512 0 0)
(1.1822695 0 0)
(1.1390454 0 0)
(1.0929604 0 0)
(1.0438186 0 0)
(0.99144305 0 0)
(0.93559307 0 0)
(0.87595046 0 0)
(0.81223473 0 0)
(0.74420323 0 0)
(0.67154351 0 0)
(0.59388704 0 0)
(0.51087954 0 0)
(0.42213438 0 0)
(0.32716832 0 0)
(0.22545402 0 0)
(0.11645515 0 0)
(0 0 0)
(1.7569795 0 0)
(1.7520094 0 0)
(1.7466745 0 0)
(1.7409581 0 0)
(1.7348429 0 0)
(1.7283104 0 0)
(1.7213382 0 0)
(1.713894 0 0)
(1.7059366 0 0)
(1.6974258 0 0)
(1.6883248 0 0)
(1.6785951 0 0)
(1.6681924 0 0)
(1.6570676 0 0)
(1.6451674 0 0)
(1.6324342 0 0)
(1.6188115 0 0)
(1.6042445 0 0)
(1.5886744 0 0)
(1.5720394 0 0)
(1.5542802 0 0)
(1.5353325 0 0)
(1.515121 0 0)
(1.4935658 0 0)
(1.4705907 0 0)
(1.4461108 0 0)
(1.4200228 0 0)
(1.3922222 0 0)
(1.3626127 0 0)
(1.3310812 0 0)
(1.297485 0 0)
(1.2616853 0 0)
(1.2235608 0 0)
(1.1829734 0 0)
(1.1397412 0 0)
(1.0936443 0 0)
(1.0444867 0 0)
(0.99209214 0 0)
(0.9362202 0 0)
(0.87655142 0 0)
(0.81280438 0 0)
(0.74473673 0 0)
(0.67203515 0 0)
(0.59432971 0 0)
(0.51126645 0 0)
(0.42245972 0 0)
(0.32742463 0 0)
(0.22563274 0 0)
(0.11654777 0 0)
(0 0 0)
(1.7569747 0 0)
(1.7520675 0 0)
(1.7467934 0 0)
(1.7411359 0 0)
(1.7350781 0 0)
(1.7286022 0 0)
(1.7216862 0 0)
(1.7142983 0 0)
(1.7063976 0 0)
(1.6979434 0 0)
(1.6888984 0 0)
(1.6792234 0 0)
(1.6688742 0 0)
(1.657802 0 0)
(1.6459529 0 0)
(1.6332689 0 0)
(1.6196937 0 0)
(1.6051721 0 0)
(1.5896452 0 0)
(1.573051 0 0)
(1.5553299 0 0)
(1.5364178 0 0)
(1.5162391 0 0)
(1.4947136 0 0)
(1.4717651 0 0)
(1.4473086 0 0)
(1.4212407 0 0)
(1.3934564 0 0)
(1.3638591 0 0)
(1.3323361 0 0)
(1.2987444 0 0)
(1.2629443 0 0)
(1.2248146 0 0)
(1.1842171 0 0)
(1.1409699 0 0)
(1.0948515 0 0)
(1.0456662 0 0)
(0.99323806 0 0)
(0.9373263 0 0)
(0.87761026 0 0)
(0.81380783 0 0)
(0.74567636 0 0)
(0.67290088 0 0)
(0.59510987 0 0)
(0.51194937 0 0)
(0.42303404 0 0)
(0.32787714 0 0)
(0.22594847 0 0)
(0.11671166 0 0)
(0 0 0)
(1.7570402 0 0)
(1.7522234 0 0)
(1.7470367 0 0)
(1.7414635 0 0)
(1.7354873 0 0)
(1.729091 0 0)
(1.7222531 0 0)
(1.7149428 0 0)
(1.7071194 0 0)
(1.698742 0 0)
(1.6897726 0 0)
(1.6801713 0 0)
(1.6698939 0 0)
(1.6588919 0 0)
(1.6471111 0 0)
(1.6344933 0 0)
(1.6209817 0 0)
(1.6065211 0 0)
(1.5910523 0 0)
(1.5745132 0 0)
(1.5568436 0 0)
(1.5379795 0 0)
(1.5178449 0 0)
(1.4963598 0 0)
(1.4734474 0 0)
(1.4490225 0 0)
(1.4229816 0 0)
(1.3952193 0 0)
(1.3656388 0 0)
(1.334127 0 0)
(1.3005405 0 0)
(1.2647396 0 0)
(1.2266024 0 0)
(1.1859901 0 0)
(1.1427212 0 0)
(1.0965722 0 0)
(1.0473472 0 0)
(0.99487116 0 0)
(0.93890244 0 0)
(0.87911867 0 0)
(0.81523691 0 0)
(0.74701431 0 0)
(0.67413373 0 0)
(0.59622136 0 0)
(0.51292284 0 0)
(0.42385268 0 0)
(0.32852216 0 0)
(0.22639864 0 0)
(0.11694555 0 0)
(0 0 0)
(1.7571692 0 0)
(1.7524696 0 0)
(1.7473962 0 0)
(1.7419321 0 0)
(1.7360613 0 0)
(1.7297671 0 0)
(1.7230292 0 0)
(1.7158171 0 0)
(1.7080911 0 0)
(1.6998103 0 0)
(1.6909356 0 0)
(1.6814266 0 0)
(1.6712391 0 0)
(1.6603248 0 0)
(1.6486292 0 0)
(1.636094 0 0)
(1.6226622 0 0)
(1.6082783 0 0)
(1.5928823 0 0)
(1.5764121 0 0)
(1.5588075 0 0)
(1.5400038 0 0)
(1.5199246 0 0)
(1.4984899 0 0)
(1.475623 0 0)
(1.4512382 0 0)
(1.4252312 0 0)
(1.3974965 0 0)
(1.367937 0 0)
(1.3364394 0 0)
(1.3028595 0 0)
(1.2670568 0 0)
(1.2289097 0 0)
(1.1882788 0 0)
(1.1449815 0 0)
(1.0987928 0 0)
(1.049517 0 0)
(0.9969791 0 0)
(0.94093642 0 0)
(0.8810648 0 0)
(0.81708073 0 0)
(0.7487406 0 0)
(0.6757241 0 0)
(0.59765559 0 0)
(0.51417943 0 0)
(0.4249094 0 0)
(0.32935469 0 0)
(0.22697976 0 0)
(0.1172476 0 0)
(0 0 0)
(1.7573525 0 0)
(1.752796 0 0)
(1.747861 0 0)
(1.74253 0 0)
(1.7367877 0 0)
(1.730618 0 0)
(1.7240012 0 0)
(1.7169076 0 0)
(1.7092978 0 0)
(1.7011321 0 0)
(1.6923712 0 0)
(1.6829734 0 0)
(1.6728935 0 0)
(1.6620836 0 0)
(1.65049 0 0)
(1.6380539 0 0)
(1.6247179 0 0)
(1.610426 0 0)
(1.5951173 0 0)
(1.5787299 0 0)
(1.5612034 0 0)
(1.5424723 0 0)
(1.5224596 0 0)
(1.5010856 0 0)
(1.4782734 0 0)
(1.4539368 0 0)
(1.4279707 0 0)
(1.4002693 0 0)
(1.3707352 0 0)
(1.3392546 0 0)
(1.3056823 0 0)
(1.2698776 0 0)
(1.2317185 0 0)
(1.191065 0 0)
(1.1477332 0 0)
(1.1014963 0 0)
(1.0521584 0 0)
(0.99954526 0 0)
(0.94341261 0 0)
(0.88343382 0 0)
(0.81932509 0 0)
(0.75084175 0 0)
(0.67766001 0 0)
(0.59940155 0 0)
(0.51570925 0 0)
(0.42619586 0 0)
(0.33036832 0 0)
(0.22768746 0 0)
(0.11761546 0 0)
(0 0 0)
(1.7575785 0 0)
(1.7531901 0 0)
(1.7484176 0 0)
(1.7432432 0 0)
(1.7376517 0 0)
(1.7316281 0 0)
(1.7251537 0 0)
(1.7181976 0 0)
(1.7107218 0 0)
(1.7026898 0 0)
(1.694062 0 0)
(1.6847935 0 0)
(1.6748374 0 0)
(1.664148 0 0)
(1.6526727 0 0)
(1.6403517 0 0)
(1.6271275 0 0)
(1.612943 0 0)
(1.597736 0 0)
(1.5814445 0 0)
(1.5640093 0 0)
(1.5453631 0 0)
(1.5254278 0 0)
(1.5041241 0 0)
(1.4813758 0 0)
(1.4570956 0 0)
(1.4311773 0 0)
(1.4035145 0 0)
(1.3740103 0 0)
(1.3425499 0 0)
(1.3089865 0 0)
(1.2731792 0 0)
(1.2350063 0 0)
(1.1943267 0 0)
(1.1509546 0 0)
(1.1046612 0 0)
(1.055251 0 0)
(1.0025498 0 0)
(0.94631153 0 0)
(0.88620716 0 0)
(0.8219526 0 0)
(0.75330179 0 0)
(0.6799265 0 0)
(0.60144573 0 0)
(0.51750045 0 0)
(0.42770215 0 0)
(0.33155521 0 0)
(0.22851614 0 0)
(0.11804619 0 0)
(0 0 0)
(1.7578339 0 0)
(1.7536374 0 0)
(1.7490512 0 0)
(1.7440561 0 0)
(1.7386369 0 0)
(1.7327809 0 0)
(1.7264706 0 0)
(1.7196725 0 0)
(1.7123497 0 0)
(1.7044669 0 0)
(1.6959861 0 0)
(1.6868619 0 0)
(1.6770471 0 0)
(1.6664957 0 0)
(1.6551549 0 0)
(1.6429649 0 0)
(1.6298681 0 0)
(1.6158057 0 0)
(1.6007131 0 0)
(1.5845302 0 0)
(1.5671993 0 0)
(1.5486502 0 0)
(1.5288029 0 0)
(1.5075791 0 0)
(1.4849036 0 0)
(1.460688 0 0)
(1.4348242 0 0)
(1.4072057 0 0)
(1.3777357 0 0)
(1.3462985 0 0)
(1.3127454 0 0)
(1.2769353 0 0)
(1.2387471 0 0)
(1.1980381 0 0)
(1.1546204 0 0)
(1.108263 0 0)
(1.0587705 0 0)
(1.0059692 0 0)
(0.94961082 0 0)
(0.88936358 0 0)
(0.82494297 0 0)
(0.75610149 0 0)
(0.68250608 0 0)
(0.60377236 0 0)
(0.5195392 0 0)
(0.4294165 0 0)
(0.33290608 0 0)
(0.2294594 0 0)
(0.11853647 0 0)
(0 0 0)
(1.7581147 0 0)
(1.7541354 0 0)
(1.7497598 0 0)
(1.7449667 0 0)
(1.7397428 0 0)
(1.7340771 0 0)
(1.7279497 0 0)
(1.7213281 0 0)
(1.7141754 0 0)
(1.7064566 0 0)
(1.698137 0 0)
(1.689173 0 0)
(1.6795169 0 0)
(1.6691208 0 0)
(1.6579309 0 0)
(1.6458868 0 0)
(1.6329297 0 0)
(1.6190018 0 0)
(1.6040376 0 0)
(1.5879772 0 0)
(1.5707641 0 0)
(1.5523244 0 0)
(1.5325742 0 0)
(1.5114387 0 0)
(1.4888447 0 0)
(1.4647017 0 0)
(1.4388989 0 0)
(1.4113296 0 0)
(1.3818979 0 0)
(1.350487 0 0)
(1.3169452 0 0)
(1.2811315 0 0)
(1.2429261 0 0)
(1.2021844 0 0)
(1.1587154 0 0)
(1.1122863 0 0)
(1.0627018 0 0)
(1.0097884 0 0)
(0.95329524 0 0)
(0.89288804 0 0)
(0.82828186 0 0)
(0.7592272 0 0)
(0.68538555 0 0)
(0.60636921 0 0)
(0.52181449 0 0)
(0.43132949 0 0)
(0.3344133 0 0)
(0.23051175 0 0)
(0.11908331 0 0)
(0 0 0)
(1.7575125 0 0)
(1.753731 0 0)
(1.7495489 0 0)
(1.7449453 0 0)
(1.7399091 0 0)
(1.7344261 0 0)
(1.7284715 0 0)
(1.7220178 0 0)
(1.7150293 0 0)
(1.707471 0 0)
(1.6993076 0 0)
(1.6904978 0 0)
(1.6809959 0 0)
(1.6707514 0 0)
(1.6597098 0 0)
(1.6478105 0 0)
(1.6349949 0 0)
(1.6212061 0 0)
(1.6063779 0 0)
(1.5904498 0 0)
(1.5733637 0 0)
(1.5550428 0 0)
(1.5354044 0 0)
(1.5143753 0 0)
(1.4918818 0 0)
(1.4678324 0 0)
(1.4421142 0 0)
(1.4146198 0 0)
(1.385254 0 0)
(1.3538989 0 0)
(1.3204007 0 0)
(1.2846176 0 0)
(1.2464302 0 0)
(1.2056923 0 0)
(1.1622111 0 0)
(1.1157515 0 0)
(1.0661168 0 0)
(1.0131334 0 0)
(0.95654861 0 0)
(0.89602637 0 0)
(0.83127932 0 0)
(0.76205605 0 0)
(0.688013 0 0)
(0.60875851 0 0)
(0.52392516 0 0)
(0.4331196 0 0)
(0.33583796 0 0)
(0.23151981 0 0)
(0.11962132 0 0)
(0 0 0)
(1.7571651 0 0)
(1.7521522 0 0)
(1.7467753 0 0)
(1.7410175 0 0)
(1.7348606 0 0)
(1.7282847 0 0)
(1.721266 0 0)
(1.7137723 0 0)
(1.7057636 0 0)
(1.6972004 0 0)
(1.6880468 0 0)
(1.6782649 0 0)
(1.6678107 0 0)
(1.6566343 0 0)
(1.6446836 0 0)
(1.6319026 0 0)
(1.6182348 0 0)
(1.6036244 0 0)
(1.5880129 0 0)
(1.5713394 0 0)
(1.5535447 0 0)
(1.5345641 0 0)
(1.5143219 0 0)
(1.4927393 0 0)
(1.4697406 0 0)
(1.4452397 0 0)
(1.4191335 0 0)
(1.3913185 0 0)
(1.3616985 0 0)
(1.3301597 0 0)
(1.2965591 0 0)
(1.2607591 0 0)
(1.2226391 0 0)
(1.1820601 0 0)
(1.1388391 0 0)
(1.0927589 0 0)
(1.0436229 0 0)
(0.99125392 0 0)
(0.93541091 0 0)
(0.87577628 0 0)
(0.81207018 0 0)
(0.74404986 0 0)
(0.67140321 0 0)
(0.59376222 0 0)
(0.5107719 0 0)
(0.4220445 0 0)
(0.32709806 0 0)
(0.22540564 0 0)
(0.11643052 0 0)
(0 0 0)
(1.7570587 0 0)
(1.7520538 0 0)
(1.746685 0 0)
(1.7409355 0 0)
(1.7347876 0 0)
(1.7282221 0 0)
(1.7212157 0 0)
(1.7137365 0 0)
(1.7057434 0 0)
(1.6971964 0 0)
(1.6880594 0 0)
(1.6782944 0 0)
(1.6678568 0 0)
(1.6566974 0 0)
(1.6447635 0 0)
(1.631998 0 0)
(1.6183445 0 0)
(1.6037481 0 0)
(1.5881498 0 0)
(1.5714883 0 0)
(1.5537045 0 0)
(1.534734 0 0)
(1.5145013 0 0)
(1.4929267 0 0)
(1.4699347 0 0)
(1.4454399 0 0)
(1.4193389 0 0)
(1.3915276 0 0)
(1.3619101 0 0)
(1.330373 0 0)
(1.2967734 0 0)
(1.2609731 0 0)
(1.2228512 0 0)
(1.1822695 0 0)
(1.1390454 0 0)
(1.0929604 0 0)
(1.0438186 0 0)
(0.99144305 0 0)
(0.93559307 0 0)
(0.87595046 0 0)
(0.81223473 0 0)
(0.74420323 0 0)
(0.67154351 0 0)
(0.59388704 0 0)
(0.51087954 0 0)
(0.42213438 0 0)
(0.32716832 0 0)
(0.22545402 0 0)
(0.11645515 0 0)
(0 0 0)
(1.7569795 0 0)
(1.7520094 0 0)
(1.7466745 0 0)
(1.7409581 0 0)
(1.7348429 0 0)
(1.7283104 0 0)
(1.7213382 0 0)
(1.713894 0 0)
(1.7059366 0 0)
(1.6974258 0 0)
(1.6883248 0 0)
(1.6785951 0 0)
(1.6681924 0 0)
(1.6570676 0 0)
(1.6451674 0 0)
(1.6324342 0 0)
(1.6188115 0 0)
(1.6042445 0 0)
(1.5886744 0 0)
(1.5720394 0 0)
(1.5542802 0 0)
(1.5353325 0 0)
(1.515121 0 0)
(1.4935658 0 0)
(1.4705907 0 0)
(1.4461108 0 0)
(1.4200228 0 0)
(1.3922222 0 0)
(1.3626127 0 0)
(1.3310812 0 0)
(1.297485 0 0)
(1.2616853 0 0)
(1.2235608 0 0)
(1.1829734 0 0)
(1.1397412 0 0)
(1.0936443 0 0)
(1.0444867 0 0)
(0.99209214 0 0)
(0.9362202 0 0)
(0.87655142 0 0)
(0.81280438 0 0)
(0.74473673 0 0)
(0.67203515 0 0)
(0.59432971 0 0)
(0.51126645 0 0)
(0.42245972 0 0)
(0.32742463 0 0)
(0.22563274 0 0)
(0.11654777 0 0)
(0 0 0)
(1.7569747 0 0)
(1.7520675 0 0)
(1.7467934 0 0)
(1.7411359 0 0)
(1.7350781 0 0)
(1.7286022 0 0)
(1.7216862 0 0)
(1.7142983 0 0)
(1.7063976 0 0)
(1.6979434 0 0)
(1.6888984 0 0)
(1.6792234 0 0)
(1.6688742 0 0)
(1.657802 0 0)
(1.6459529 0 0)
(1.6332689 0 0)
(1.6196937 0 0)
(1.6051721 0 0)
(1.5896452 0 0)
(1.573051 0 0)
(1.5553299 0 0)
(1.5364178 0 0)
(1.5162391 0 0)
(1.4947136 0 0)
(1.4717651 0 0)
(1.4473086 0 0)
(1.4212407 0 0)
(1.3934564 0 0)
(1.3638591 0 0)
(1.3323361 0 0)
(1.2987444 0 0)
(1.2629443 0 0)
(1.2248146 0 0)
(1.1842171 0 0)
(1.1409699 0 0)
(1.0948515 0 0)
(1.0456662 0 0)
(0.99323806 0 0)
(0.9373263 0 0)
(0.87761026 0 0)
(0.81380783 0 0)
(0.74567636 0 0)
(0.67290088 0 0)
(0.59510987 0 0)
(0.51194937 0 0)
(0.42303404 0 0)
(0.32787714 0 0)
(0.22594847 0 0)
(0.11671166 0 0)
(0 0 0)
(1.7570402 0 0)
(1.7522234 0 0)
(1.7470367 0 0)
(1.7414635 0 0)
(1.7354873 0 0)
(1.729091 0 0)
(1.7222531 0 0)
(1.7149428 0 0)
(1.7071194 0 0)
(1.698742 0 0)
(1.6897726 0 0)
(1.6801713 0 0)
(1.6698939 0 0)
(1.6588919 0 0)
(1.6471111 0 0)
(1.6344933 0 0)
(1.6209817 0 0)
(1.6065211 0 0)
(1.5910523 0 0)
(1.5745132 0 0)
(1.5568436 0 0)
(1.5379795 0 0)
(1.5178449 0 0)
(1.4963598 0 0)
(1.4734474 0 0)
(1.4490225 0 0)
(1.4229816 0 0)
(1.3952193 0 0)
(1.3656388 0 0)
(1.334127 0 0)
(1.3005405 0 0)
(1.2647396 0 0)
(1.2266024 0 0)
(1.1859901 0 0)
(1.1427212 0 0)
(1.0965722 0 0)
(1.0473472 0 0)
(0.99487116 0 0)
(0.93890244 0 0)
(0.87911867 0 0)
(0.81523691 0 0)
(0.74701431 0 0)
(0.67413373 0 0)
(0.59622136 0 0)
(0.51292284 0 0)
(0.42385268 0 0)
(0.32852216 0 0)
(0.22639864 0 0)
(0.11694555 0 0)
(0 0 0)
(1.7571692 0 0)
(1.7524696 0 0)
(1.7473962 0 0)
(1.7419321 0 0)
(1.7360613 0 0)
(1.7297671 0 0)
(1.7230292 0 0)
(1.7158171 0 0)
(1.7080911 0 0)
(1.6998103 0 0)
(1.6909356 0 0)
(1.6814266 0 0)
(1.6712391 0 0)
(1.6603248 0 0)
(1.6486292 0 0)
(1.636094 0 0)
(1.6226622 0 0)
(1.6082783 0 0)
(1.5928823 0 0)
(1.5764121 0 0)
(1.5588075 0 0)
(1.5400038 0 0)
(1.5199246 0 0)
(1.4984899 0 0)
(1.475623 0 0)
(1.4512382 0 0)
(1.4252312 0 0)
(1.3974965 0 0)
(1.367937 0 0)
(1.3364394 0 0)
(1.3028595 0 0)
(1.2670568 0 0)
(1.2289097 0 0)
(1.1882788 0 0)
(1.1449815 0 0)
(1.0987928 0 0)
(1.049517 0 0)
(0.9969791 0 0)
(0.94093642 0 0)
(0.8810648 0 0)
(0.81708073 0 0)
(0.7487406 0 0)
(0.6757241 0 0)
(0.59765559 0 0)
(0.51417943 0 0)
(0.4249094 0 0)
(0.32935469 0 0)
(0.22697976 0 0)
(0.1172476 0 0)
(0 0 0)
(1.7573525 0 0)
(1.752796 0 0)
(1.747861 0 0)
(1.74253 0 0)
(1.7367877 0 0)
(1.730618 0 0)
(1.7240012 0 0)
(1.7169076 0 0)
(1.7092978 0 0)
(1.7011321 0 0)
(1.6923712 0 0)
(1.6829734 0 0)
(1.6728935 0 0)
(1.6620836 0 0)
(1.65049 0 0)
(1.6380539 0 0)
(1.6247179 0 0)
(1.610426 0 0)
(1.5951173 0 0)
(1.5787299 0 0)
(1.5612034 0 0)
(1.5424723 0 0)
(1.5224596 0 0)
(1.5010856 0 0)
(1.4782734 0 0)
(1.4539368 0 0)
(1.4279707 0 0)
(1.4002693 0 0)
(1.3707352 0 0)
(1.3392546 0 0)
(1.3056823 0 0)
(1.2698776 0 0)
(1.2317185 0 0)
(1.191065 0 0)
(1.1477332 0 0)
(1.1014963 0 0)
(1.0521584 0 0)
(0.99954526 0 0)
(0.94341261 0 0)
(0.88343382 0 0)
(0.81932509 0 0)
(0.75084175 0 0)
(0.67766001 0 0)
(0.59940155 0 0)
(0.51570925 0 0)
(0.42619586 0 0)
(0.33036832 0 0)
(0.22768746 0 0)
(0.11761546 0 0)
(0 0 0)
(1.7575785 0 0)
(1.7531901 0 0)
(1.7484176 0 0)
(1.7432432 0 0)
(1.7376517 0 0)
(1.7316281 0 0)
(1.7251537 0 0)
(1.7181976 0 0)
(1.7107218 0 0)
(1.7026898 0 0)
(1.694062 0 0)
(1.6847935 0 0)
(1.6748374 0 0)
(1.664148 0 0)
(1.6526727 0 0)
(1.6403517 0 0)
(1.6271275 0 0)
(1.612943 0 0)
(1.597736 0 0)
(1.5814445 0 0)
(1.5640093 0 0)
(1.5453631 0 0)
(1.5254278 0 0)
(1.5041241 0 0)
(1.4813758 0 0)
(1.4570956 0 0)
(1.4311773 0 0)
(1.4035145 0 0)
(1.3740103 0 0)
(1.3425499 0 0)
(1.3089865 0 0)
(1.2731792 0 0)
(1.2350063 0 0)
(1.1943267 0 0)
(1.1509546 0 0)
(1.1046612 0 0)
(1.055251 0 0)
(1.0025498 0 0)
(0.94631153 0 0)
(0.88620716 0 0)
(0.8219526 0 0)
(0.75330179 0 0)
(0.6799265 0 0)
(0.60144573 0 0)
(0.51750045 0 0)
(0.42770215 0 0)
(0.33155521 0 0)
(0.22851614 0 0)