/*--------------------------------*- C++ -*----------------------------------*\
| =========                 |                                                 |
| \\      /  F ield         | OpenFOAM: The Open Source CFD Toolbox           |
|  \\    /   O peration     | Version:  v2012                                 |
|   \\  /    A nd           | Website:  www.openfoam.com                      |
|    \\/     M anipulation  |                                                 |
\*---------------------------------------------------------------------------*/
FoamFile
{
    version     2.0;
    format      ascii;
    class       volVectorField;
    location    "4.5110046";
    object      U;
}
// * * * * * * * * * * * * * * * * * * * * * * * * * * * * * * * * * * * * * //

dimensions      [0 1 -1 0 0 0 0];


internalField   nonuniform List<vector> 
9200
(
(2.5029658 -0.00023478166 0)
(2.5028413 -0.00078285727 -2.9647025e-24)
(2.5036601 -0.00029332642 0)
(2.5026946 -0.0011862289 1.0290176e-23)
(2.5035127 -0.00098564896 -1.1368914e-22)
(2.5041249 -0.00033261455 -4.4152915e-23)
(2.5024607 -0.0016000321 5.9583354e-23)
(2.5033272 -0.0014942376 -1.1885676e-22)
(2.503961 -0.0011145274 -1.7805082e-22)
(2.5047323 -0.00037986017 2.5785472e-22)
(2.5022061 -0.0019127025 -1.0491134e-22)
(2.5030446 -0.0020174029 7.4667303e-23)
(2.5037534 -0.00169065 -7.3334092e-23)
(2.504548 -0.0012755138 1.3710542e-22)
(2.505378 -0.00042984688 -1.4148946e-22)
(2.5019173 -0.0021907903 2.3980637e-23)
(2.5027266 -0.0024127138 -4.4543924e-23)
(2.5034367 -0.0022842629 1.2307282e-22)
(2.5043118 -0.0019366591 -3.4097897e-22)
(2.5051731 -0.0014458384 2.5140848e-22)
(2.5060898 -0.00048334059 -2.7569362e-22)
(2.5016197 -0.0024022995 -3.9392256e-23)
(2.5023694 -0.0027661075 9.439867e-23)
(2.5030791 -0.0027342512 1.0447204e-22)
(2.5039522 -0.0026192671 8.4188116e-23)
(2.5049084 -0.0021979416 -1.0501424e-22)
(2.5058641 -0.0016298463 -2.7933918e-22)
(2.5068614 -0.00053981437 2.0107948e-22)
(2.5013167 -0.0025673547 1.9808958e-23)
(2.5019962 -0.0030350848 -1.6891803e-23)
(2.502676 -0.0031377286 8.0974974e-25)
(2.5035438 -0.003139399 3.6398529e-23)
(2.5045052 -0.0029761491 -2.0759743e-22)
(2.5055697 -0.0024812214 2.1934569e-22)
(2.5066154 -0.0018255904 2.7822106e-23)
(2.5076946 -0.00059885433 3.3998508e-22)
(2.501018 -0.002683843 -4.4995667e-23)
(2.501615 -0.0032461636 4.1924881e-23)
(2.5022535 -0.0034460066 9.4586028e-23)
(2.5030819 -0.0036075278 -6.171308e-23)
(2.504045 -0.0035730283 -5.4756295e-23)
(2.5051212 -0.0033643026 -4.8268881e-23)
(2.5062909 -0.0027837394 -1.8218367e-22)
(2.5074291 -0.0020320219 3.1873304e-22)
(2.5085879 -0.00065989797 -2.2180074e-23)
(2.5007278 -0.002759608 1.1458391e-23)
(2.5012366 -0.0033956651 -8.9094666e-23)
(2.5018203 -0.003689134 2.8022544e-23)
(2.5025955 -0.0039674096 1.882658e-24)
(2.5035224 -0.0041125868 -1.296674e-22)
(2.5046064 -0.0040469089 1.3340893e-22)
(2.505797 -0.0037802802 1.7653408e-22)
(2.5070752 -0.0031040882 2.5319983e-23)
(2.5083047 -0.0022474301 2.5025929e-23)
(2.5095397 -0.00072229492 -3.7808856e-22)
(2.5004508 -0.002799106 -1.2991616e-23)
(2.5008675 -0.0034936363 -2.5830963e-23)
(2.5013886 -0.0038624378 3.1676412e-23)
(2.5020947 -0.0042531743 -3.7160737e-23)
(2.5029696 -0.0045305996 0)
(2.5040193 -0.0046670082 -2.3396894e-24)
(2.5052262 -0.0045574309 -4.4288666e-23)
(2.5065364 -0.0042224926 7.9213669e-23)
(2.5079225 -0.0034398498 4.3374939e-23)
(2.5092411 -0.0024698001 2.4154159e-22)
(2.5105471 -0.00078530958 -1.9714884e-25)
(2.5001893 -0.0028079092 3.0216919e-23)
(2.5005134 -0.0035454212 6.7409734e-23)
(2.5009663 -0.003977149 -5.0981693e-23)
(2.5015935 -0.0044587582 1.9850817e-23)
(2.5023977 -0.0048652315 0)
(2.503395 -0.0051518551 -1.9265833e-23)
(2.5045723 -0.0052672803 1.1937657e-22)
(2.5059093 -0.0051032605 -1.6160599e-22)
(2.5073406 -0.0046879871 -2.5461299e-22)
(2.5088326 -0.0037881199 4.6454845e-22)
(2.5102362 -0.002696761 3.5649775e-22)
(2.5116066 -0.00084813788 9.4851015e-25)
(2.4999453 -0.0027909477 3.4272969e-23)
(2.5001779 -0.0035580134 5.9868894e-23)
(2.5005598 -0.0040390239 1.2724771e-22)
(2.5011013 -0.0045967761 6.267574e-23)
(2.5018229 -0.0051087117 -1.7389425e-22)
(2.502746 -0.0055435954 1.0126141e-22)
(2.5038731 -0.0058281458 3.6945055e-24)
(2.5051873 -0.0059125752 8.3031982e-23)
(2.5066581 -0.0056814289 7.1232882e-23)
(2.5082109 -0.0051731425 1.3437329e-23)
(2.5098046 -0.0041454169 9.1626648e-23)
(2.511287 -0.0029256398 -7.1822813e-22)
(2.5127134 -0.00090992711 -2.5416637e-24)
(2.4997198 -0.0027527944 -1.0213501e-23)
(2.4998636 -0.0035375574 -5.5610914e-24)
(2.5001736 -0.0040558695 -1.8801991e-23)
(2.5006258 -0.0046734117 2.0308525e-24)
(2.501256 -0.0052749432 -1.0518625e-22)
(2.5020904 -0.0058323951 -3.6937128e-23)
(2.5031421 -0.0062859655 2.457569e-22)
(2.5044103 -0.0065595039 -1.1879229e-22)
(2.505868 -0.0066002194 -1.234727e-22)
(2.5074754 -0.0062881432 8.3610697e-23)
(2.5091475 -0.0056735272 5.2829718e-23)
(2.5108362 -0.0045077529 -3.8150813e-22)
(2.5123895 -0.0031535096 -3.8958837e-22)
(2.5138622 -0.0009697973 0)
(2.4995127 -0.0026975887 -8.9578654e-24)
(2.4995717 -0.0034898792 -6.1990007e-23)
(2.499811 -0.0040345637 -2.0850844e-22)
(2.5001727 -0.004697441 6.3734309e-23)
(2.5007062 -0.0053703943 6.9118222e-23)
(2.5014407 -0.0060333272 -1.5313162e-22)
(2.5023997 -0.0066284551 3.3805009e-22)
(2.503593 -0.0070934661 -1.4049035e-22)
(2.5050118 -0.0073439941 2.928611e-22)
(2.5066188 -0.0073265979 -1.8919504e-22)
(2.5083629 -0.0069185806 3.0726313e-22)
(2.5101499 -0.0061839731 -3.2011862e-22)
(2.5119246 -0.0048706935 -1.5425735e-23)
(2.5135388 -0.0033772663 4.5743841e-22)
(2.5150469 -0.0010268674 0)
(2.4993237 -0.0026290611 5.0234572e-23)
(2.4993029 -0.0034202478 1.0010852e-22)
(2.4994736 -0.003981745 1.1315762e-23)
(2.499746 -0.0046766312 1.4810104e-23)
(2.5001805 -0.0054047596 3.7178171e-22)
(2.500808 -0.006152971 -3.9607365e-22)
(2.5016601 -0.0068716466 8.2690854e-24)
(2.5027579 -0.0074993089 1.2692074e-22)
(2.504105 -0.0079652134 -2.9768661e-22)
(2.5056832 -0.0081786784 4.3832076e-22)
(2.5074431 -0.0080868802 -4.3793193e-22)
(2.5093219 -0.0075669427 3.0986102e-23)
(2.5112167 -0.0066986358 -5.4579706e-22)
(2.5130659 -0.0052294591 -3.6161945e-22)
(2.5147294 -0.0035937271 -5.7494417e-24)
(2.5162605 -0.0010802786 3.490102e-22)
(2.499152 -0.0025504613 1.4892057e-23)
(2.499057 -0.0033333997 1.274623e-23)
(2.4991623 -0.0039034313 7.4538449e-23)
(2.4993479 -0.004618578 -3.6571771e-23)
(2.4996837 -0.0053866671 3.0576513e-22)
(2.5002004 -0.0062018782 4.1590247e-22)
(2.5009361 -0.007021987 -5.1436115e-22)
(2.5019211 -0.0077937203 -9.5294839e-23)
(2.5031723 -0.0084454163 -4.1559489e-22)
(2.5046851 -0.0088993245 8.1510486e-22)
(2.50643 -0.0090592691 -3.4739828e-22)
(2.5083444 -0.008875039 -7.0576066e-23)
(2.5103529 -0.0082264908 -3.3952635e-22)
(2.5123453 -0.0072111085 -2.0042666e-22)
(2.5142554 -0.0055790564 2.4777618e-23)
(2.5159547 -0.0037997297 -2.15743e-22)
(2.5174959 -0.0011292162 -2.0618537e-22)
(2.4989969 -0.0024645807 -1.6533505e-23)
(2.4988333 -0.0032334846 -1.6311514e-22)
(2.4988771 -0.0038050312 -1.1197836e-22)
(2.4989798 -0.0045302224 2.3386211e-22)
(2.499219 -0.0053247013 -1.092614e-22)
(2.4996242 -0.006189506 3.3452773e-22)
(2.5002378 -0.0070907573 -1.229883e-22)
(2.5010974 -0.0079826979 2.7579636e-22)
(2.5022314 -0.0088015398 2.6617332e-22)
(2.5036507 -0.0094663203 -4.395117e-22)
(2.5053403 -0.0098925052 6.5898301e-22)
(2.5072574 -0.0099800985 -4.3157632e-22)
(2.509325 -0.0096838455 3.2846284e-22)
(2.5114551 -0.008889649 1.4897685e-22)
(2.5135325 -0.0077145847 6.452644e-22)
(2.5154874 -0.0059144245 8.6220812e-22)
(2.5172078 -0.0039921847 2.1999228e-22)
(2.5187454 -0.0011729213 -1.1461525e-22)
(2.4988571 -0.0023737754 -1.6833093e-23)
(2.4986308 -0.0031240786 -3.8659823e-23)
(2.4986173 -0.0036913049 2.2551714e-23)
(2.4986419 -0.004417851 -1.8873751e-22)
(2.4987883 -0.005226788 -3.1029366e-22)
(2.4990836 -0.0061254549 -8.7800446e-22)
(2.4995728 -0.0070881571 7.6832822e-22)
(2.5002988 -0.0080780506 9.1998459e-22)
(2.5012995 -0.0090387304 -1.9910321e-22)
(2.5025996 -0.0098963363 1.0910505e-22)
(2.5042017 -0.010560176 -2.2889712e-22)
(2.506078 -0.01093996 6.5605682e-23)
(2.5081703 -0.010934051 0)
(2.5103868 -0.01050494 -3.8233688e-22)
(2.5126272 -0.0095481722 1.0890565e-23)
(2.5147738 -0.008202042 5.4721904e-22)
(2.5167555 -0.0062305475 -9.5100729e-24)
(2.5184811 -0.0041680613 1.9625113e-22)
(2.5200011 -0.0012106961 4.50966e-22)
(2.4987317 -0.0022800072 -3.5637244e-23)
(2.4984483 -0.0030082146 -1.920893e-23)
(2.498382 -0.0035663747 -1.2965444e-22)
(2.4983336 -0.0042870287 -2.3680229e-22)
(2.498392 -0.0051001746 1.753821e-22)
(2.498581 -0.0060187064 -2.0277143e-22)
(2.4989466 -0.0070247891 -1.7095742e-22)
(2.4995347 -0.0080905744 -1.253187e-22)
(2.5003908 -0.0091690291 -3.9073024e-22)
(2.5015516 -0.010193176 3.8190231e-22)
(2.5030355 -0.011078068 2.8038668e-22)
(2.5048344 -0.011723604 -5.2374836e-22)
(2.5069054 -0.012035255 2.4613023e-22)
(2.509173 -0.011912583 2.7581255e-22)
(2.5115304 -0.011328987 -1.6557072e-23)
(2.5138665 -0.010193351 0)
(2.516064 -0.00866639 2.6670739e-22)
(2.5180526 -0.006522511 -1.8671484e-22)
(2.5197667 -0.0043243638 -1.6791931e-22)
(2.5212552 -0.0012419059 -4.4599904e-22)
(2.4986194 -0.0021849363 4.3076971e-23)
(2.4982843 -0.0028884252 3.0654481e-23)
(2.4981698 -0.0034337513 1.6557062e-23)
(2.4980541 -0.0041426036 3.2849343e-22)
(2.49803 -0.0049513273 3.7256812e-22)
(2.4981176 -0.0058775769 8.2934319e-22)
(2.4983626 -0.006910729 -2.4516435e-22)
(2.4988122 -0.0080318122 -1.0745992e-21)
(2.4995168 -0.0092036055 2.6882773e-23)
(2.5005229 -0.010368708 -7.6428219e-22)
(2.5018637 -0.011448059 4.8435484e-22)
(2.5035496 -0.012345225 -8.9618697e-22)
(2.5055582 -0.012951479 9.5181925e-22)
(2.5078292 -0.013170271 1.6186977e-22)
(2.5102688 -0.012905834 -5.4087101e-22)
(2.5127556 -0.012145874 1.1974587e-21)
(2.5151693 -0.010816177 1.7565424e-22)
(2.5173967 -0.0091005395 -9.6510529e-22)
(2.5193713 -0.0067855506 -8.3463615e-23)
(2.5210566 -0.0044582278 -3.9562073e-23)
(2.5224996 -0.0012659989 -1.7416731e-22)
(2.4985191 -0.0020898569 1.0839552e-23)
(2.4981376 -0.0027667973 3.6264643e-23)
(2.4979791 -0.0032963793 1.3282625e-22)
(2.4978017 -0.0039887284 7.4201888e-24)
(2.4977012 -0.0047859191 -4.1347056e-22)
(2.4976934 -0.0057095603 1.0129833e-22)
(2.4978227 -0.0067554515 1.4778894e-22)
(2.4981358 -0.0079129358 -2.2205191e-22)
(2.4986863 -0.009154816 -4.338867e-24)
(2.4995275 -0.010434154 -2.1848081e-22)
(2.5007053 -0.011681321 4.852626e-22)
(2.5022476 -0.012804111 6.7480836e-22)
(2.5041531 -0.013694545 -1.5885062e-21)
(2.5063827 -0.014236798 2.0080416e-22)
(2.508856 -0.014335255 6.8625262e-22)
(2.5114601 -0.013902802 -5.8391143e-22)
(2.5140607 -0.012944874 -4.735829e-22)
(2.5165306 -0.011407424 -5.4251814e-23)
(2.5187648 -0.0094974685 -3.0290784e-22)
(2.5207035 -0.0070151985 1.6358789e-22)
(2.5223425 -0.0045671868 -1.804054e-22)
(2.5237265 -0.0012825418 1.9895654e-22)
(2.4984297 -0.0019956873 -2.0244667e-23)
(2.4980065 -0.0026450563 -9.8840573e-23)
(2.4978084 -0.0031566935 0)
(2.4975748 -0.0038289069 -9.3688408e-23)
(2.497404 -0.0046088415 -5.334323e-22)
(2.4973074 -0.0055212876 -5.3333801e-22)
(2.4973271 -0.0065676016 -3.7080522e-22)
(2.4975085 -0.0077446441 4.9614453e-22)
(2.4979056 -0.0090348811 2.4832644e-23)
(2.4985765 -0.010402475 3.1046197e-22)
(2.4995769 -0.011788688 2.1972339e-22)
(2.5009503 -0.01311008 -1.4057611e-22)
(2.502716 -0.014260422 -7.3448553e-24)
(2.504858 -0.015120804 1.36537e-22)
(2.5073171 -0.015570669 9.9682686e-23)
(2.5099912 -0.015518939 -6.5311806e-22)
(2.5127483 -0.014891459 5.0496849e-22)
(2.5154429 -0.0137147 -1.0281974e-21)
(2.5179446 -0.011957721 -1.4202329e-22)
(2.5201607 -0.0098504249 6.5319109e-22)
(2.5220409 -0.0072075513 2.1738635e-22)
(2.5236164 -0.0046494942 -3.1495331e-22)
(2.5249286 -0.001291271 -4.6232043e-23)
(2.4983502 -0.0019033334 1.9810097e-23)
(2.4978897 -0.0025245249 3.5785329e-23)
(2.497656 -0.0030166764 0)
(2.4973716 -0.0036660434 2.9641176e-22)
(2.4971367 -0.0044242477 6.0854468e-22)
(2.4969581 -0.0053185188 -1.6480333e-22)
(2.4968754 -0.0063549089 2.9026316e-23)
(2.4969312 -0.0075368478 -6.0676585e-23)
(2.4971788 -0.0088557512 -2.5057006e-22)
(2.4976783 -0.010286825 -1.9669365e-22)
(2.4984923 -0.011783406 -5.5716381e-22)
(2.4996772 -0.01327301 -3.7781545e-22)
(2.5012715 -0.01465679 8.9609838e-22)
(2.503283 -0.015814162 -9.014791e-22)
(2.5056767 -0.016616722 -5.2900247e-22)
(2.5083705 -0.016942342 1.8559698e-21)
(2.5112394 -0.016708586 -9.3077133e-22)
(2.5141331 -0.015858747 2.2246237e-22)
(2.5168978 -0.014443555 5.1712633e-22)
(2.5194041 -0.012457807 0)
(2.5215758 -0.010153319 -8.7020332e-23)
(2.5233753 -0.0073595317 2.194668e-22)
(2.5248706 -0.0047042781 2.2924221e-22)
(2.5260992 -0.0012921197 -2.7187803e-23)
(2.4982795 -0.0018133891 0)
(2.4977858 -0.0024062805 8.6310746e-23)
(2.4975203 -0.0028779074 5.1541201e-23)
(2.4971902 -0.0035025221 -4.7924033e-23)
(2.4968971 -0.0042355981 -1.5960188e-22)
(2.4966436 -0.0051061809 5.9226826e-22)
(2.496466 -0.0061241455 5.5323094e-22)
(2.4964037 -0.0072985254 -3.9384025e-22)
(2.4965078 -0.0086286962 2.7228234e-22)
(2.4968384 -0.010100385 -3.0127352e-22)
(2.497462 -0.01167936 7.3440464e-24)
(2.498445 -0.01330598 3.0456088e-22)
(2.4998424 -0.014891861 2.2589105e-22)
(2.5016845 -0.016321519 8.9799383e-24)
(2.5039633 -0.017460413 -1.6594358e-22)
(2.5066215 -0.018172913 7.8420134e-22)
(2.5095512 -0.018339155 2.5628344e-22)
(2.5126039 -0.017889865 -6.3600803e-22)
(2.5156126 -0.01679057 6.7095551e-25)
(2.5184198 -0.01511943 2.5847993e-22)
(2.520901 -0.01289903 0)
(2.5230012 -0.010401127 1.2211571e-22)
(2.5246983 -0.0074689728 5.6644125e-23)
(2.5260978 -0.0047314114 1.2450554e-22)
(2.5272322 -0.0012852074 -1.4460663e-22)
(2.4982166 -0.0017263999 5.8445261e-23)
(2.4976936 -0.0022910741 0)
(2.4973996 -0.0027416666 -6.0878857e-23)
(2.4970286 -0.0033402294 -3.3288651e-22)
(2.4966832 -0.0040457522 -6.3872315e-22)
(2.4963615 -0.0048884027 2.2281586e-22)
(2.4960968 -0.0058811529 -1.3902161e-23)
(2.4959248 -0.0070376236 1.2529718e-22)
(2.4958931 -0.0083640895 8.4994762e-22)
(2.4960602 -0.0098558405 1.4950821e-22)
(2.496494 -0.011490869 7.2815565e-22)
(2.4972674 -0.013223277 4.8950156e-22)
(2.4984487 -0.014977936 -4.0532551e-22)
(2.5000889 -0.016648568 -7.2073727e-22)
(2.5022064 -0.018102387 -3.9608658e-22)
(2.5047728 -0.019192051 -4.6157341e-22)
(2.5077046 -0.019777702 1.3354307e-21)
(2.5108662 -0.019746247 -1.7004623e-21)
(2.5140859 -0.019046737 -6.5989105e-22)
(2.5171833 -0.017672095 -4.5997018e-23)
(2.5200013 -0.015730711 0)
(2.5224262 -0.01327388 0)
(2.5244277 -0.010590058 -1.9204461e-22)
(2.526002 -0.0075344864 -3.2419769e-22)
(2.5272913 -0.0047311984 -3.4500775e-23)
(2.5283226 -0.0012707833 2.9519949e-22)
(2.4981605 -0.0016425413 -1.0376719e-23)
(2.4976117 -0.0021796186 3.2412436e-23)
(2.4972926 -0.0026088331 9.5514236e-23)
(2.496885 -0.0031807213 4.7604756e-22)
(2.4964927 -0.0038569752 -3.4070062e-24)
(2.4961095 -0.0046686265 -4.8778166e-24)
(2.4957655 -0.005630856 -3.9989915e-22)
(2.4954922 -0.0067610645 1.8444073e-22)
(2.4953337 -0.0080712282 -1.9218335e-22)
(2.495345 -0.0095650877 1.4209323e-21)
(2.4955933 -0.011232041 -6.987805e-23)
(2.4961547 -0.013040175 -2.8426738e-22)
(2.4971073 -0.01492923 -1.9060281e-22)
(2.4985196 -0.016806054 4.5980733e-22)
(2.5004351 -0.018544829 -3.9207171e-22)
(2.5028555 -0.019995383 6.139159e-22)
(2.5057275 -0.020999411 -6.6085805e-22)
(2.5089376 -0.021416642 -9.4803282e-22)
(2.5123211 -0.021146275 -2.2611494e-22)
(2.5156851 -0.020161732 1.2959662e-21)
(2.5188394 -0.018488484 2.1300406e-24)
(2.5216339 -0.016266878 -3.7563334e-22)
(2.52397 -0.013576242 1.7166757e-22)
(2.5258461 -0.010717427 -5.3922483e-22)
(2.5272784 -0.0075552815 -1.5684914e-22)
(2.528445 -0.0047041054 8.5415442e-23)
(2.5293659 -0.0012491678 3.090641e-22)
(2.4981099 -0.0015624564 -1.1739966e-22)
(2.4975387 -0.0020720285 -1.3764558e-22)
(2.4971977 -0.0024803078 3.0057612e-23)
(2.4967577 -0.0030250364 5.1009157e-23)
(2.4963234 -0.0036711661 4.9977286e-22)
(2.495885 -0.0044495764 -1.8935112e-22)
(2.4954693 -0.0053774057 -4.2029241e-23)
(2.4951035 -0.0064747198 -2.616687e-23)
(2.4948276 -0.0077583086 -8.6662611e-22)
(2.4946925 -0.0092389518 -7.7982886e-22)
(2.4947626 -0.010916391 -1.2265885e-21)
(2.4951143 -0.012772129 -6.3638289e-23)
(2.4958319 -0.01476165 3.0111634e-22)
(2.4969975 -0.016807459 -3.7283658e-22)
(2.498677 -0.018795969 4.8779527e-22)
(2.5009018 -0.020580497 5.731829e-22)
(2.5036518 -0.021993892 -8.6428603e-22)
(2.5068437 -0.022869569 -1.2377943e-21)
(2.5103308 -0.023072004 -1.3244149e-21)
(2.5139194 -0.022519619 2.8877526e-21)
(2.5173983 -0.021216784 1.3722376e-21)
(2.5205735 -0.019225759 4.7681213e-22)
(2.5233074 -0.016718879 -1.1734776e-21)
(2.5255222 -0.013801297 3.7507243e-23)
(2.5272475 -0.010781432 1.2348109e-22)
(2.5285204 -0.0075311085 9.3776131e-23)
(2.5295534 -0.0046506749 -2.4098807e-22)
(2.5303583 -0.001220711 7.9170483e-22)
(2.4980637 -0.0014854753 -2.5703206e-23)
(2.497473 -0.0019692082 -3.4751464e-23)
(2.4971132 -0.0023561779 2.5981496e-23)
(2.4966448 -0.0028743218 -1.2366946e-22)
(2.4961734 -0.0034895553 1.7516898e-22)
(2.4956856 -0.004233587 1.1966349e-22)
(2.4952053 -0.0051240791 -4.9005798e-23)
(2.4947557 -0.0061836024 -1.1912182e-22)
(2.4943721 -0.0074323267 -7.8738871e-22)
(2.4941009 -0.0088871215 -4.6792788e-22)
(2.4940023 -0.010556432 4.0660822e-22)
(2.4941507 -0.012434326 0)
(2.4946326 -0.014491816 -3.9152053e-22)
(2.49554 -0.01666884 1.5499458e-22)
(2.496957 -0.0188677 9.7502001e-22)
(2.4989429 -0.02095198 -5.9898858e-22)
(2.5015119 -0.022752978 2.9917959e-22)
(2.5046159 -0.024087691 8.2642282e-23)
(2.5081367 -0.024785541 -1.3992878e-21)
(2.5118925 -0.024722848 3.2071665e-21)
(2.5156619 -0.023845293 -2.0862684e-22)
(2.5192202 -0.022194265 -1.7373199e-21)
(2.5223761 -0.019871309 -1.2167239e-21)
(2.525011 -0.017079081 1.6208126e-21)
(2.5270725 -0.013945312 4.7677374e-22)
(2.5286231 -0.010781083 3.5561749e-22)
(2.5297212 -0.007462364 2.4053752e-22)
(2.5306119 -0.0045716036 -1.3479253e-21)
(2.531297 -0.0011857964 -1.4032893e-21)
(2.4980231 -0.0014129795 0)
(2.4974135 -0.0018697814 9.898135e-23)
(2.4970372 -0.0022377237 6.1923357e-23)
(2.4965444 -0.0027285766 8.0247102e-23)
(2.4960405 -0.0033136172 -3.0908592e-22)
(2.4955089 -0.004022113 -4.7309035e-22)
(2.4949708 -0.0048737654 -5.8353527e-22)
(2.4944456 -0.0058916508 -2.2025906e-22)
(2.4939641 -0.007099347 2.9959316e-22)
(2.4935676 -0.0085179224 4.7260509e-22)
(2.4933114 -0.01016358 1.0889946e-21)
(2.4932657 -0.012041086 -9.0542265e-24)
(2.4935165 -0.014136568 -7.4589565e-22)
(2.4941608 -0.016407637 2.2973868e-22)
(2.495297 -0.018775551 6.3392472e-22)
(2.4970083 -0.021119079 -1.7259326e-22)
(2.4993426 -0.023276337 1.6068329e-22)
(2.5022901 -0.025055907 -1.0519244e-21)
(2.5057686 -0.026261788 -3.0704261e-22)
(2.5096205 -0.026726166 2.6978877e-21)
(2.5136285 -0.026345965 1.729509e-21)
(2.5175467 -0.025102122 -2.4870574e-21)
(2.5211432 -0.023077608 5.5214516e-23)
(2.5242365 -0.020413888 -1.3968406e-21)
(2.5267332 -0.017341079 -7.0891631e-22)
(2.5286103 -0.014005624 -2.2529323e-21)
(2.5299646 -0.010716341 -1.7040328e-22)
(2.5308749 -0.0073502138 1.2600259e-22)
(2.5316164 -0.0044678617 -4.0116563e-22)
(2.5321794 -0.0011448547 -6.580098e-22)
(2.4979865 -0.0013367945 3.3238526e-23)
(2.4973615 -0.0017765219 4.0097781e-23)
(2.4969685 -0.0021230238 8.5813886e-24)
(2.4964543 -0.002589573 -2.0196127e-22)
(2.4959224 -0.0031432199 -6.234393e-22)
(2.4953525 -0.0038170623 -4.5679422e-22)
(2.494763 -0.0046281723 6.4874107e-22)
(2.4941701 -0.0056024627 3.0001349e-22)
(2.4936001 -0.0067640936 1.1354256e-21)
(2.4930893 -0.0081387104 4.3108965e-22)
(2.4926873 -0.0097477171 7.5350898e-22)
(2.4924591 -0.011605794 7.497886e-22)
(2.4924871 -0.013712078 7.0228738e-22)
(2.4928698 -0.016042221 -1.9985013e-21)
(2.4937147 -0.018537234 -1.0459247e-22)
(2.4951247 -0.0210959 5.4718834e-22)
(2.4971781 -0.023569326 5.6701066e-22)
(2.4999043 -0.025767585 -3.0221414e-22)
(2.5032625 -0.027477582 1.9757987e-21)
(2.5071299 -0.028496078 -2.3026094e-21)
(2.511307 -0.028667033 -4.0853516e-22)
(2.5155418 -0.02791714 -1.9503681e-21)
(2.5195691 -0.026269434 4.8958287e-23)
(2.5231571 -0.023851325 1.5292266e-21)
(2.5261421 -0.020843453 9.813231e-22)
(2.5284616 -0.017499747 -1.3017745e-21)
(2.5301254 -0.013980878 -7.1519379e-23)
(2.5312644 -0.010588271 1.8194936e-22)
(2.5319762 -0.0071966014 -8.6201165e-22)
(2.5325641 -0.0043407598 2.3469694e-23)
(2.5330041 -0.0010983863 4.3534713e-21)
(2.4979529 -0.0012551152 -1.2987623e-23)
(2.4973152 -0.0016784677 5.3496253e-23)
(2.4969088 -0.0020163092 2.8143384e-23)
(2.496373 -0.0024545168 -2.2653166e-22)
(2.4958165 -0.002980825 2.9751489e-22)
(2.4952135 -0.0036181036 1.745201e-22)
(2.4945791 -0.0043897955 4.6200661e-22)
(2.4939259 -0.0053180195 2.9480231e-22)
(2.4932765 -0.0064310724 3.3838501e-22)
(2.4926622 -0.0077551345 2.9984707e-22)
(2.4921267 -0.0093177946 -2.3150305e-22)
(2.4917289 -0.011140108 8.3025845e-22)
(2.4915459 -0.013233939 -1.120246e-21)
(2.4916735 -0.015590546 9.2335395e-22)
(2.4922241 -0.018172388 -1.136786e-21)
(2.4933147 -0.020899652 3.9145667e-23)
(2.4950501 -0.023643512 4.2261915e-22)
(2.4974969 -0.026222785 -1.0143937e-21)
(2.5006584 -0.028418575 -1.4705101e-21)
(2.504455 -0.030000394 2.9617098e-21)
(2.5087182 -0.030766284 7.6329419e-22)
(2.513205 -0.030581817 -1.6954458e-21)
(2.5176321 -0.029411854 -1.0310494e-21)
(2.5217214 -0.027327049 -1.0092463e-21)
(2.5252498 -0.024500859 7.9600527e-23)
(2.5280793 -0.021151302 9.3342025e-22)
(2.5301838 -0.017551584 1.905494e-21)
(2.5316079 -0.013871275 -2.7232884e-22)
(2.5325156 -0.010399047 -5.5128026e-22)
(2.533021 -0.0070040951 1.5782117e-23)
(2.5334525 -0.0041919397 1.0548831e-21)
(2.5337701 -0.0010469576 -1.4831917e-21)
(2.4979217 -0.001173157 1.4881018e-23)
(2.4972773 -0.0015721394 2.3164515e-23)
(2.4968573 -0.0019030223 4.2429106e-23)
(2.4963028 -0.0023296019 -2.8872111e-22)
(2.4957213 -0.0028224869 3.2240353e-22)
(2.4950891 -0.0034286336 7.8719113e-22)
(2.4944158 -0.004158001 -5.2790684e-22)
(2.4937099 -0.0050416236 -8.5052603e-22)
(2.4929897 -0.0061025472 -3.0219329e-22)
(2.4922823 -0.0073728772 -5.5024605e-22)
(2.4916255 -0.0088805417 -1.0035514e-21)
(2.491072 -0.010654963 -1.498629e-21)
(2.4906914 -0.012715759 -3.8491822e-22)
(2.4905752 -0.015070632 2.6855667e-21)
(2.4908347 -0.017700487 1.6802453e-22)
(2.491597 -0.020550795 -3.9810907e-23)
(2.4929868 -0.023514586 -1.5214587e-21)
(2.4951051 -0.026429188 9.2903642e-22)
(2.4979989 -0.02907797 3.4000038e-23)
(2.5016368 -0.031215654 2.132952e-22)
(2.5058929 -0.032601801 -2.2240779e-21)
(2.5105494 -0.033045362 -1.3051468e-21)
(2.5153203 -0.032442909 9.0314418e-22)
(2.5198955 -0.030805141 -1.0914071e-21)
(2.5239926 -0.028255096 -4.1158813e-23)
(2.5274069 -0.025012833 5.1442002e-21)
(2.5300337 -0.021330601 1.9648539e-21)
(2.5318874 -0.017495092 -2.4849672e-21)
(2.5330483 -0.01367861 -9.2813684e-22)
(2.5337121 -0.010151758 -2.2930709e-22)
(2.5340061 -0.0067756657 -1.0301196e-21)
(2.5342804 -0.0040233241 -3.7995237e-23)
(2.534477 -0.00099118824 -5.6026594e-21)
(2.4978914 -0.0010897716 -1.7836492e-23)
(2.4972427 -0.0014666071 1.1612292e-23)
(2.4968167 -0.0017797745 -4.4631416e-23)
(2.4962433 -0.0021958976 5.7484047e-24)
(2.4956397 -0.0026770058 -1.5485788e-22)
(2.4949776 -0.0032431498 4.6556214e-22)
(2.49427 -0.0039374444 2.737784e-23)
(2.4935182 -0.0047721661 3.6384443e-23)
(2.4927361 -0.0057829277 -5.3214587e-22)
(2.4919454 -0.0069944658 3.9090897e-23)
(2.4911796 -0.0084431902 -3.9489757e-22)
(2.4904838 -0.010158328 -8.2123298e-22)
(2.4899212 -0.012170931 4.1477448e-22)
(2.4895748 -0.014498091 7.3906956e-22)
(2.4895531 -0.017142178 1.7741573e-21)
(2.4899852 -0.020069833 1.280967e-21)
(2.4910125 -0.023203182 1.2272364e-21)
(2.4927632 -0.02639972 -8.0976272e-22)
(2.4953266 -0.029457973 2.9308602e-22)
(2.498721 -0.032126549 -1.9539355e-21)
(2.5028716 -0.034139768 1.3181285e-21)
(2.5076002 -0.035255843 -8.7603206e-22)
(2.5126369 -0.035303977 8.2254628e-22)
(2.5176548 -0.03422102 -1.2327242e-22)
(2.5223245 -0.032071321 1.3994146e-21)
(2.5263691 -0.029034393 2.4227186e-21)
(2.5296123 -0.025375803 1.0426072e-21)
(2.5319901 -0.021376944 5.8638645e-23)
(2.5335602 -0.017330874 7.796291e-22)
(2.5344382 -0.013406046 7.7629844e-22)
(2.5348489 -0.0098501364 -5.6330706e-22)
(2.534929 -0.0065144931 2.2181883e-22)
(2.535047 -0.0038370438 8.7986351e-22)
(2.535125 -0.00093171243 4.262417e-21)
(2.4978624 -0.0010058086 -2.2116163e-23)
(2.4972088 -0.0013590203 -2.405616e-23)
(2.4967801 -0.0016580141 -1.2030438e-22)
(2.4961993 -0.0020495235 -1.6456712e-22)
(2.4955716 -0.0025199296 -3.9552374e-24)
(2.4948829 -0.0030739003 -2.1487957e-22)
(2.4941397 -0.0037205621 -6.1235964e-23)
(2.4933473 -0.0045160141 5.0863994e-22)
(2.492511 -0.0054703704 4.2200645e-22)
(2.4916477 -0.0066258285 -4.6811211e-22)
(2.4907838 -0.0080084645 -3.122928e-22)
(2.4899601 -0.0096595116 9.0963027e-22)
(2.4892307 -0.011608788 1.3056573e-21)
(2.4886712 -0.013889365 -2.2733685e-21)
(2.488381 -0.016514905 -3.7594416e-22)
(2.4884898 -0.019480177 4.2454762e-24)
(2.4891456 -0.022730082 3.7773982e-21)
(2.4905015 -0.026154288 -5.444829e-21)
(2.492682 -0.029567246 -4.2129071e-23)
(2.4957552 -0.032727962 1.3897593e-21)
(2.4997015 -0.035354685 -1.8573818e-21)
(2.5043948 -0.037168143 8.6422957e-22)
(2.509599 -0.037933369 4.5409867e-21)
(2.5149904 -0.037509642 -5.0539571e-22)
(2.5202062 -0.035884661 1.5163857e-21)
(2.5249071 -0.033184492 2.8605e-21)
(2.5288337 -0.029647505 -3.6649115e-21)
(2.5318483 -0.025581088 -7.4425718e-21)
(2.5339331 -0.021288577 1.0358303e-22)
(2.5351907 -0.017061402 2.0213867e-21)
(2.5357701 -0.013057759 8.115458e-24)
(2.5359216 -0.0094983309 -1.2040101e-21)
(2.5357882 -0.0062238748 -2.0107578e-22)
(2.5357522 -0.0036353484 2.4958694e-21)
(2.5357151 -0.00086915479 3.0738142e-21)
(2.4978357 -0.00092096684 -4.135735e-23)
(2.497176 -0.0012508792 2.0243928e-23)
(2.4967439 -0.0015336336 -1.43331e-23)
(2.4961604 -0.0019058817 3.4493076e-24)
(2.4955241 -0.0023470638 2.598726e-23)
(2.4948045 -0.0028894963 -2.6320976e-22)
(2.49403 -0.0035241333 -1.1355781e-22)
(2.4931953 -0.0042629093 -4.9598125e-22)
(2.492311 -0.0051736137 2.7999667e-22)
(2.4913835 -0.0062640214 2.5931344e-22)
(2.4904342 -0.0075843926 4.25936e-22)
(2.4894951 -0.0091613015 -6.4933628e-22)
(2.4886155 -0.01104146 -1.8975344e-22)
(2.4878595 -0.013255117 2.5694112e-21)
(2.4873192 -0.01583889 -1.2645139e-21)
(2.487115 -0.018800646 -1.4094176e-21)
(2.4874016 -0.022121536 -6.5775307e-22)
(2.4883446 -0.025712988 -1.4207034e-21)
(2.4901023 -0.029423737 -4.9488766e-23)
(2.4927862 -0.033022511 9.0369307e-22)
(2.4964344 -0.036232061 1.1492111e-21)
(2.5009804 -0.038745011 -2.5489041e-21)
(2.5062382 -0.040274171 2.1461443e-21)
(2.5119085 -0.040600459 -5.107215e-22)
(2.5176151 -0.039625723 -2.1376696e-21)
(2.5229669 -0.037400682 1.9321827e-21)
(2.5276272 -0.034119943 -8.3732359e-23)
(2.5313672 -0.030079925 -1.4443877e-21)
(2.5340964 -0.025623191 -7.357048e-22)
(2.5358476 -0.021066221 -5.8230775e-23)
(2.5367681 -0.016690631 -2.097037e-22)
(2.5370375 -0.012638653 -2.9299947e-22)
(2.5369271 -0.00910081 6.8395994e-22)
(2.5365827 -0.0059071999 1.2615837e-22)
(2.5363965 -0.0034205136 -8.6202e-22)
(2.5362487 -0.00080412674 -6.7790546e-21)
(2.4978113 -0.0008354744 -3.8974264e-23)
(2.4971456 -0.001141665 -5.9470109e-23)
(2.4967088 -0.0014087405 3.2350426e-23)
(2.4961217 -0.0017589052 -4.029272e-23)
(2.4954832 -0.002178465 1.0166558e-23)
(2.4947533 -0.0026854356 -3.1834319e-23)
(2.4939397 -0.0033080365 -2.0678476e-22)
(2.4930683 -0.0040354844 6.2611133e-23)
(2.4921338 -0.00487882 -1.9367578e-22)
(2.4911496 -0.0059210454 1.242362e-21)
(2.4901242 -0.0071663991 4.018625e-22)
(2.4890845 -0.0086746518 -1.8874173e-21)
(2.4880688 -0.010471556 -2.3083253e-21)
(2.4871361 -0.012611353 7.9413962e-22)
(2.4863631 -0.015125768 2.1383736e-22)
(2.4858649 -0.018056126 1.1204309e-21)
(2.485788 -0.021396953 -1.4364202e-21)
(2.4863135 -0.025104834 2.9786979e-21)
(2.4876189 -0.029045703 9.5423408e-22)
(2.4898588 -0.033024519 -7.2235861e-22)
(2.4931234 -0.036766386 1.2528444e-21)
(2.4974112 -0.039960467 0)
(2.5025993 -0.042276156 -1.108188e-22)
(2.5084323 -0.04342487 -3.5400492e-23)
(2.5145439 -0.043216662 -7.7600701e-21)
(2.5205101 -0.041611851 6.3103755e-21)
(2.5259236 -0.038736043 1.8071834e-23)
(2.5304648 -0.034855764 9.0389185e-22)
(2.533948 -0.030320756 7.1961152e-21)
(2.5363376 -0.025499712 -2.7646893e-21)
(2.5377193 -0.020712658 -8.8123549e-22)
(2.5382829 -0.016223665 5.3988497e-22)
(2.5382348 -0.012154213 -6.7965167e-22)
(2.537863 -0.0086623306 2.4764609e-21)
(2.5373123 -0.0055679466 7.7633271e-22)
(2.5369809 -0.0031947977 0)
(2.5367278 -0.0007372444 1.9542709e-22)
(2.4977896 -0.00074938549 -5.7385824e-23)
(2.497118 -0.0010317492 9.8493471e-24)
(2.4966762 -0.0012825759 2.4261321e-23)
(2.4960838 -0.0016115609 1.4875697e-23)
(2.495442 -0.0020056307 2.3457276e-24)
(2.4947104 -0.0024876742 -3.8131883e-23)
(2.4938844 -0.0030676069 4.4077105e-23)
(2.492964 -0.0037826288 4.4513276e-22)
(2.4919871 -0.0046160704 6.9315345e-23)
(2.4909432 -0.0055782139 -4.243007e-22)
(2.4898506 -0.0067709073 3.2928784e-22)
(2.4887205 -0.0081925835 9.940765e-23)
(2.4875865 -0.0099141391 1.3871324e-21)
(2.4864928 -0.011960022 -2.5446028e-21)
(2.4855107 -0.01439687 -5.0740495e-22)
(2.4847352 -0.017258365 -1.2676656e-21)
(2.4843133 -0.020586957 -8.2645233e-23)
(2.4844204 -0.024348829 2.971646e-21)
(2.4852598 -0.028464575 -1.2728875e-21)
(2.4870122 -0.032749004 -1.2788666e-22)
(2.4898206 -0.036966167 -6.0758476e-22)
(2.4937459 -0.040798548 -1.329192e-21)
(2.4987368 -0.04389989 -3.7730981e-21)
(2.5046006 -0.045918989 3.7735541e-21)
(2.5110041 -0.04657804 1.9587516e-21)
(2.5175139 -0.045735122 6.7435186e-22)
(2.5236678 -0.043426065 3.461947e-21)
(2.5290576 -0.039859937 -1.8850147e-21)
(2.5333966 -0.03537387 -3.6643261e-21)
(2.5365534 -0.030362767 -1.0608381e-21)
(2.5385532 -0.025210966 8.4184294e-22)
(2.5395345 -0.020232398 3.5595261e-21)
(2.5397266 -0.015666603 1.4386554e-21)
(2.5393579 -0.011610457 -3.163318e-22)
(2.5387279 -0.0081879116 -9.2491426e-22)