/*--------------------------------*- C++ -*----------------------------------*\
| =========                 |                                                 |
| \\      /  F ield         | OpenFOAM: The Open Source CFD Toolbox           |
|  \\    /   O peration     | Version:  v2012                                 |
|   \\  /    A nd           | Website:  www.openfoam.com                      |
|    \\/     M anipulation  |                                                 |
\*---------------------------------------------------------------------------*/
FoamFile
{
    version     2.0;
    format      ascii;
    class       surfaceVectorField;
    location    "4.5110046";
    object      Uf;
}
// * * * * * * * * * * * * * * * * * * * * * * * * * * * * * * * * * * * * * //

dimensions      [0 1 -1 0 0 0 0];


internalField   nonuniform List<vector> 
18180
(
(2.5029015 -0.00051932453 -1.5321383e-24)
(2.5033628 -0.00026455644 5.5414034e-26)
(2.5027655 -0.00098937658 3.8857312e-24)
(2.5032252 -0.00088597864 -5.9280297e-23)
(2.5035839 -0.00065389037 -5.8754154e-23)
(2.5038763 -0.00031330658 -2.2450093e-23)
(2.5025737 -0.0014022227 3.5766756e-23)
(2.5030558 -0.0013428504 -5.5392372e-23)
(2.5034168 -0.0012448812 -1.1635985e-22)
(2.5037216 -0.0010511945 -1.4641408e-22)
(2.5040402 -0.00074002454 -1.1335051e-22)
(2.5044382 -0.00035663521 1.0931271e-22)
(2.5023291 -0.0017600826 -2.543497e-23)
(2.5027948 -0.0018122589 6.5419244e-23)
(2.5031812 -0.0017683166 -1.8837762e-23)
(2.5035258 -0.0015941253 -9.5711182e-23)
(2.5038537 -0.0014079404 -1.2393199e-22)
(2.5042639 -0.0011963747 -1.7620369e-23)
(2.5046371 -0.00084660398 1.9545246e-22)
(2.5050596 -0.00040527601 5.481077e-23)
(2.5020568 -0.002057498 -3.8293589e-23)
(2.5025034 -0.0021669442 -7.4212195e-23)
(2.5028802 -0.0022192196 1.3054531e-23)
(2.5032276 -0.0021531081 9.9277883e-23)
(2.5035897 -0.002002005 2.8173826e-23)
(2.5040415 -0.0018157221 -2.0902489e-22)
(2.5044259 -0.0016122929 -1.099727e-22)
(2.504865 -0.0013621149 1.9522163e-22)
(2.5052721 -0.00095939366 6.1556516e-23)
(2.5057405 -0.000457045 -2.097135e-22)
(2.5017635 -0.0022995793 -8.7736652e-24)
(2.5021758 -0.0024833151 5.978917e-23)
(2.5025419 -0.0025971406 2.7267344e-23)
(2.5028913 -0.0025762137 2.9675401e-23)
(2.5032519 -0.0025139351 1.1345935e-22)
(2.5037029 -0.0024545779 1.0289926e-22)
(2.504126 -0.0022947043 -1.2124373e-22)
(2.5046145 -0.0020695055 -2.210066e-22)
(2.5050363 -0.0018290447 6.7206892e-23)
(2.5055251 -0.0015393941 -1.8444297e-23)
(2.5059732 -0.0010810833 -2.775776e-22)
(2.5064822 -0.0005120543 -3.3281417e-23)
(2.5014631 -0.0024878895 -8.7941879e-24)
(2.5018349 -0.0027240367 -2.8671011e-23)
(2.5021765 -0.0029043387 3.6879015e-23)
(2.5025129 -0.0029550624 4.6818816e-23)
(2.5028708 -0.0029449707 5.0895664e-23)
(2.5033192 -0.0029402234 6.98626e-23)
(2.5037411 -0.0028849356 5.9489142e-23)
(2.5042329 -0.0028007164 -6.4163216e-23)
(2.5047 -0.0026061268 -1.5803112e-22)
(2.5052453 -0.0023419689 5.9834539e-23)
(2.505712 -0.0020637284 -2.1616293e-23)
(2.5062462 -0.0017293705 -1.2316553e-22)
(2.5067343 -0.0012104227 1.1154194e-22)
(2.5072851 -0.00056983316 2.7170633e-22)
(2.5011623 -0.0026274639 -1.3684995e-23)
(2.5014874 -0.0029124845 3.1054208e-23)
(2.5017992 -0.0031446534 1.3507094e-23)
(2.5021169 -0.0032440099 3.9780819e-23)
(2.5024577 -0.0032961872 4.9276816e-23)
(2.5028858 -0.0033765645 -3.0976874e-23)
(2.5033051 -0.0033838926 -1.430865e-23)
(2.5037984 -0.0033598644 -9.9461742e-24)
(2.5042674 -0.0032812413 -1.2860536e-22)
(2.5048193 -0.0031734948 -1.2641827e-22)
(2.5053379 -0.0029443894 8.1038019e-23)
(2.5059367 -0.0026350325 1.5192404e-23)
(2.5064477 -0.0023139744 -8.070977e-23)
(2.5070293 -0.0019305497 1.7573515e-22)
(2.5075574 -0.0013466817 3.2900226e-22)
(2.5081486 -0.0006298925 1.5583982e-22)
(2.500868 -0.0027230245 -1.5817888e-23)
(2.5011431 -0.0030457506 -6.693458e-23)
(2.5014194 -0.0033232989 -2.5791056e-23)
(2.5017116 -0.0034713702 3.5361796e-23)
(2.5020296 -0.0035722442 6.0183598e-23)
(2.5024305 -0.0037110722 4.7456713e-23)
(2.5028305 -0.0037926104 -2.8844691e-23)
(2.5033059 -0.0038643042 -9.6267729e-23)
(2.5037749 -0.0038548377 -9.3472513e-23)
(2.5043314 -0.0038139567 4.0911488e-23)
(2.5048552 -0.0037134848 4.5626391e-23)
(2.5054653 -0.0035757988 6.6029121e-23)
(2.5060357 -0.0033063815 3.2072983e-24)
(2.50669 -0.0029466186 -7.6624518e-23)
(2.5072462 -0.0025785474 1.6709608e-22)
(2.5078743 -0.0021415475 1.6939589e-22)
(2.5084416 -0.0014887084 2.2154557e-24)
(2.5090716 -0.00069162497 -2.0314743e-22)
(2.5005847 -0.0027799883 -1.1782507e-24)
(2.5008079 -0.0031327991 -7.5006475e-24)
(2.5010458 -0.0034463443 -5.6397764e-23)
(2.5013084 -0.0036329604 -2.7701049e-23)
(2.5015972 -0.0037785445 2.9910987e-23)
(2.5019624 -0.0039758708 -5.1151707e-24)
(2.5023367 -0.0041158131 -1.8296248e-23)
(2.502786 -0.0042537349 9.2551249e-25)
(2.5032367 -0.0043276856 -6.2651326e-23)
(2.5037761 -0.0043944602 -6.4931565e-23)
(2.504303 -0.0043707815 6.3250373e-23)
(2.5049223 -0.004306472 4.2914238e-23)
(2.505502 -0.0041781432 6.2408042e-23)
(2.5061734 -0.0040051183 1.2715598e-22)
(2.5067967 -0.0036905978 5.3173054e-23)
(2.5075062 -0.0032748074 3.4500122e-23)
(2.5081072 -0.0028553711 3.4508762e-23)
(2.5087807 -0.002360498 1.3511674e-22)
(2.5093854 -0.0016351479 -5.7870724e-23)
(2.5100515 -0.00075433684 -1.8593963e-22)
(2.5003157 -0.0028036187 9.3398874e-24)
(2.5004868 -0.003178538 2.7885557e-23)
(2.5006845 -0.0035203393 2.2358671e-23)
(2.5009145 -0.0037394301 -3.8615952e-23)
(2.5011703 -0.0039217685 -1.1043858e-23)
(2.5014949 -0.0041655807 2.5664662e-23)
(2.5018357 -0.0043592622 -7.6954216e-24)
(2.5022492 -0.0045643383 -1.8268458e-23)
(2.502674 -0.0047044214 0)
(2.5031871 -0.0048464485 -9.7950096e-24)
(2.5036966 -0.0049166549 -1.1087606e-23)
(2.5043014 -0.0049721997 5.954448e-23)
(2.5048883 -0.0049281677 4.0297766e-23)
(2.5055743 -0.0048349501 -1.0393782e-22)
(2.5062123 -0.0046737693 -4.5247081e-23)
(2.5069457 -0.0044591733 -9.0436529e-23)
(2.5076218 -0.0040943388 -1.1062966e-22)
(2.5083853 -0.0036169329 2.575272e-22)
(2.50903 -0.0031419711 3.567923e-22)
(2.5097468 -0.0025852052 2.9994519e-22)
(2.5103865 -0.0017844145 1.8413874e-22)
(2.5110852 -0.00081725772 3.8540599e-25)
(2.5000632 -0.0027991 3.2313189e-23)
(2.500183 -0.0031892623 4.5291966e-23)
(2.50034 -0.003551857 6.3512432e-23)
(2.5005359 -0.0037963336 9.7826794e-23)
(2.5007562 -0.0040090236 4.1132039e-23)
(2.5010365 -0.0042921363 6.7970492e-24)
(2.5013391 -0.0045301499 4.1983937e-23)
(2.5017108 -0.0047891833 -7.8646604e-23)
(2.5021006 -0.004990921 -8.9873473e-23)
(2.502576 -0.0052101111 5.1318785e-23)
(2.5030596 -0.0053553931 4.3026084e-23)
(2.5036392 -0.0054956934 -7.5921845e-24)
(2.504211 -0.0055562663 5.9588877e-23)
(2.504886 -0.0055953693 1.0066946e-22)
(2.5055361 -0.0055259238 -3.5170843e-23)
(2.5062908 -0.0053972287 -4.3218011e-23)
(2.5069879 -0.0051974087 -8.6208898e-23)
(2.5077835 -0.0049346701 -1.1838894e-22)
(2.5085113 -0.0045143217 2.3140749e-22)
(2.5093268 -0.0039697976 2.749394e-22)
(2.5100131 -0.0034354027 2.1961141e-22)
(2.5107701 -0.0028131448 -1.8998868e-22)
(2.5114414 -0.0019347286 -3.7071391e-22)
(2.5121686 -0.0008795587 -8.879507e-25)
(2.4998288 -0.0027711955 1.1281458e-23)
(2.4998988 -0.0031705198 1.3910451e-23)
(2.5000154 -0.0035473511 2.6053286e-23)
(2.5001767 -0.0038110783 1.9838419e-23)
(2.5003602 -0.0040476183 5.1765907e-23)
(2.5005945 -0.0043615117 6.3593635e-23)
(2.5008556 -0.0046362539 3.1332998e-23)
(2.5011807 -0.0049415401 -2.266207e-23)
(2.5015299 -0.0051947202 -1.3838417e-22)
(2.5019602 -0.0054766289 -1.0426469e-22)
(2.5024072 -0.0056927522 2.9836689e-23)
(2.5029486 -0.0059210271 1.7472636e-22)
(2.5034953 -0.0060660804 1.2879903e-22)
(2.5041475 -0.0061999903 -5.8582744e-23)
(2.5047857 -0.0062461471 -2.1276306e-23)
(2.5055344 -0.0062622045 -2.2195608e-23)
(2.5062498 -0.0061612335 -2.9395938e-23)
(2.5070743 -0.0059899184 7.7526585e-23)
(2.5078308 -0.0057453554 4.9704436e-23)
(2.5086874 -0.0054275756 3.346749e-23)
(2.509465 -0.0049465636 7.1575804e-23)
(2.5103289 -0.0043296621 -1.4899649e-22)
(2.511054 -0.0037323141 -5.4420995e-22)
(2.511847 -0.0030415141 -5.5121609e-22)
(2.512546 -0.0020841499 -2.0256311e-22)
(2.5132967 -0.00094037314 -1.2491888e-24)
(2.4996128 -0.0027242247 -9.564569e-24)
(2.4996354 -0.0031275203 -3.6535391e-23)
(2.4997127 -0.0035128336 -3.4724488e-23)
(2.4998397 -0.0037901819 -1.088504e-22)
(2.4999862 -0.0040447115 -1.1684577e-22)
(2.5001737 -0.0043820064 2.3202381e-23)
(2.5003917 -0.0046856818 3.3920454e-23)
(2.5006675 -0.0050277373 3.6136436e-23)
(2.5009719 -0.0053241311 -1.5101791e-23)
(2.5013511 -0.0056604997 -1.2956169e-22)
(2.5017547 -0.0059364 -9.6989322e-23)
(2.502249 -0.0062371212 1.538945e-22)
(2.5027584 -0.0064629531 2.9345642e-22)
(2.5033727 -0.0066965214 4.9735487e-23)
(2.5039879 -0.0068370866 -1.3000643e-22)
(2.5047174 -0.0069583728 9.0202937e-23)
(2.5054255 -0.0069840148 9.1699989e-23)
(2.5062508 -0.006969552 -1.5689038e-22)
(2.5070327 -0.0068303938 -5.7382381e-23)
(2.5079273 -0.0066087033 1.9733331e-22)
(2.508742 -0.0063129765 1.8432649e-22)
(2.5096574 -0.0059330834 -1.3681113e-22)
(2.5104815 -0.0053864533 -3.4978107e-22)
(2.5113893 -0.0046923113 -1.9528727e-22)
(2.5121492 -0.0040290009 -1.9621955e-22)
(2.5129732 -0.0032672961 4.1138145e-23)
(2.5136951 -0.0022306286 2.3639918e-22)
(2.5144636 -0.0009988205 0)
(2.499415 -0.0026621346 2.1633413e-23)
(2.4993931 -0.0030649776 4.6487698e-23)
(2.4994328 -0.0034538021 2.1784474e-23)
(2.4995265 -0.0037398833 -2.4728869e-23)
(2.4996366 -0.0040071074 -9.490022e-23)
(2.4997779 -0.0043609505 -9.4987316e-23)
(2.4999522 -0.0046864847 3.8449485e-23)
(2.5001775 -0.0050570179 2.2033674e-22)
(2.5004345 -0.0053879767 2.2554043e-22)
(2.5007591 -0.0057682485 -1.6720698e-22)
(2.5011137 -0.0060950228 -2.7868926e-22)
(2.5015536 -0.0064595368 -7.1072433e-23)
(2.5020174 -0.0067543965 1.6761132e-22)
(2.5025834 -0.0070712203 2.3070386e-22)
(2.5031614 -0.0073033256 -2.2854335e-24)
(2.5038549 -0.0075366997 -2.2041763e-22)
(2.5045431 -0.0076670261 -1.2350093e-23)
(2.5053545 -0.0077683952 3.6649273e-22)
(2.5061352 -0.0077666128 1.3512266e-22)
(2.507039 -0.0077131794 -3.1590401e-22)
(2.5078875 -0.0075285741 -7.7873506e-23)
(2.5088511 -0.0072482641 1.6677825e-22)
(2.509722 -0.0068947754 -1.3865978e-22)
(2.5106924 -0.0064456816 -4.3487571e-22)
(2.5115587 -0.0058288118 -2.8953018e-22)
(2.5125045 -0.0050531348 -1.9147109e-22)
(2.5132944 -0.0043214955 3.4145588e-23)
(2.5141434 -0.0034873464 2.2189371e-22)
(2.5148828 -0.002372068 -2.9712498e-24)
(2.5156628 -0.001054031 1.7748689e-22)
(2.499235 -0.0025884028 3.196934e-23)
(2.4991716 -0.0029871336 3.1177123e-23)
(2.4991758 -0.0033752704 5.4959015e-23)
(2.4992377 -0.0036658325 8.7437374e-23)
(2.4993127 -0.0039411049 4.398987e-23)
(2.4994092 -0.0043054689 -1.30526e-23)
(2.4995402 -0.0046464047 -1.174467e-23)
(2.4997151 -0.005037587 1.6272216e-22)
(2.4999237 -0.0053951564 3.3766336e-22)
(2.5001916 -0.0058100056 3.9421248e-22)
(2.500494 -0.0061780523 2.3570258e-23)
(2.5008744 -0.0065947862 -4.5641893e-22)
(2.5012859 -0.0069492357 -2.6183713e-22)
(2.5017943 -0.0073404532 -4.4154396e-23)
(2.5023254 -0.0076518601 1.2074407e-23)
(2.5029703 -0.0079803505 -1.4892469e-22)
(2.5036229 -0.008213691 -3.5862467e-22)
(2.5044016 -0.0084401689 2.6856609e-22)
(2.5051673 -0.0085535123 6.3305332e-22)
(2.5060643 -0.0086264329 3.8795345e-23)
(2.5069195 -0.0085893971 -3.9114153e-22)
(2.5079024 -0.0084876471 -2.5113321e-22)
(2.5088167 -0.008249852 -2.1504013e-23)
(2.5098466 -0.0079023242 -1.5742209e-22)
(2.5107702 -0.0074844389 -4.3919155e-22)
(2.5117905 -0.0069592387 -3.7016978e-22)
(2.5126935 -0.0062679994 -2.7831233e-22)
(2.5136701 -0.0054072441 -1.6512461e-22)
(2.5144844 -0.0046056834 1.0027095e-23)
(2.5153515 -0.0036984927 -1.123585e-22)
(2.5161025 -0.0025063893 5.7151692e-23)
(2.5168874 -0.0011051681 6.6661179e-23)
(2.4990718 -0.0025060416 -1.3487384e-24)
(2.4989702 -0.0028976954 -7.5597786e-23)
(2.4989414 -0.0032816699 -7.8139592e-23)
(2.4989733 -0.0035731074 -5.0649396e-23)
(2.4990149 -0.0038524089 -2.1854516e-23)
(2.4990685 -0.0042220489 1.5552688e-22)
(2.4991576 -0.0045726762 1.0319067e-22)
(2.4992832 -0.0049775427 -7.3524579e-23)
(2.4994435 -0.0053543542 9.1274843e-23)
(2.4996542 -0.0057948207 3.2038783e-22)
(2.4999026 -0.0061951873 3.7384684e-22)
(2.5002206 -0.0066537917 1.4192165e-22)
(2.5005752 -0.0070573355 -3.1209276e-22)
(2.5010196 -0.0075104382 -1.1261529e-22)
(2.5014954 -0.0078913397 9.6492824e-23)
(2.5020806 -0.0083061398 8.9030691e-23)
(2.502686 -0.0086300515 -6.324055e-23)
(2.5034174 -0.0089645028 -4.2828247e-22)
(2.5041505 -0.0091929147 1.6668582e-22)
(2.5050201 -0.0094043279 7.3571905e-22)
(2.5058668 -0.0094927763 1.7272854e-22)
(2.5068522 -0.0095274965 -3.9020267e-22)
(2.5077826 -0.0094465295 -2.5715175e-22)
(2.508844 -0.0092863169 1.3276038e-22)
(2.5098216 -0.0089872264 5.70941e-24)
(2.5109137 -0.0085637182 -9.1112179e-23)
(2.5118853 -0.0080749457 -1.984651e-23)
(2.5129488 -0.007467145 2.2963499e-22)
(2.5138818 -0.0066980648 3.4545595e-22)
(2.5148811 -0.0057496115 4.5064898e-22)
(2.5157132 -0.0048774261 3.4134795e-22)
(2.5165908 -0.0038976093 5.8538179e-24)
(2.517347 -0.0026315691 1.4058834e-23)
(2.5181299 -0.0011514456 -1.5961538e-22)
(2.4989246 -0.0024176204 -1.6688331e-23)
(2.498788 -0.0027998535 -2.8141918e-23)
(2.4987286 -0.0031768527 -9.8796634e-23)
(2.4987327 -0.003466168 -6.8744429e-23)
(2.4987428 -0.0037460915 -4.2452937e-23)
(2.4987559 -0.0041165454 -1.5108321e-22)
(2.4988051 -0.0044719052 1.5460825e-23)
(2.4988831 -0.0048843268 -4.2765749e-23)
(2.4989964 -0.0052737865 -2.1315634e-22)
(2.4991508 -0.0057317947 -5.0002517e-22)
(2.4993448 -0.0061560541 -2.9212167e-22)
(2.4995992 -0.0066463878 5.5488201e-22)
(2.4998941 -0.0070890835 3.3765659e-22)
(2.5002703 -0.0075927248 4.0729858e-22)
(2.5006846 -0.0080318112 6.0872423e-22)
(2.501202 -0.0085196327 3.4329767e-23)
(2.5017498 -0.0089241811 2.5708533e-23)
(2.5024207 -0.0093581991 1.8569629e-22)
(2.5031075 -0.0096893973 -1.5597294e-22)
(2.503933 -0.010022515 -3.3241652e-22)
(2.5047519 -0.010238463 2.0010228e-22)
(2.5057174 -0.01042512 3.5724957e-22)
(2.5066479 -0.010479605 -1.7461777e-22)
(2.5077231 -0.010465182 -2.1176148e-22)
(2.5087282 -0.010330838 1.5870308e-22)
(2.5098658 -0.010101384 -3.2995956e-23)
(2.510903 -0.0097327051 -1.2562169e-22)
(2.5120514 -0.00922453 7.8755101e-23)
(2.5130647 -0.0086587316 3.174042e-22)
(2.5141633 -0.0079624836 5.9540371e-22)
(2.5151186 -0.0071129103 6.994161e-22)
(2.5161313 -0.0060751984 4.1851624e-22)
(2.516974 -0.0051326453 1.0138413e-22)
(2.5178541 -0.0040816365 2.0791818e-22)
(2.5186088 -0.0027456395 4.603733e-23)
(2.5193825 -0.0011921355 1.73032e-22)
(2.4987923 -0.0023253003 -2.6550983e-23)
(2.4986238 -0.0026963076 -1.7609791e-23)
(2.4985364 -0.0030641137 -2.8607668e-23)
(2.4985147 -0.0033488681 -8.4581398e-23)
(2.4984957 -0.0036265822 -5.6108199e-23)
(2.4984711 -0.0039941275 -1.0940338e-22)
(2.4984826 -0.0043500017 -2.1357742e-22)
(2.4985155 -0.0047647142 -3.6692859e-24)
(2.4985835 -0.0051610324 -5.9294724e-23)
(2.4986833 -0.0056293899 -2.556304e-22)
(2.4988239 -0.0060698997 -5.2903935e-22)
(2.4990149 -0.0065826846 -5.1853135e-22)
(2.4992492 -0.0070550017 2.8289571e-22)
(2.4995548 -0.0075978156 3.1396407e-22)
(2.4999039 -0.0080841757 3.7975707e-22)
(2.5003474 -0.008632756 2.5353897e-22)
(2.5008299 -0.0091059645 -2.9813954e-22)
(2.5014298 -0.0096257214 9.6324575e-23)
(2.502058 -0.010049964 2.5009266e-22)
(2.5028236 -0.010497216 1.9550818e-22)
(2.503599 -0.010828996 3.4313851e-23)
(2.5045258 -0.011151764 -3.7883053e-22)
(2.5054353 -0.011346282 -2.3898929e-22)
(2.5065007 -0.011496917 1.5740554e-22)
(2.5075165 -0.011507236 1.272078e-22)
(2.5086816 -0.011431647 1.4025834e-22)
(2.5097594 -0.011233864 -4.2184083e-23)
(2.5109691 -0.010923993 -1.9599946e-22)
(2.5120604 -0.010477464 -3.2952092e-24)
(2.5132575 -0.0098762778 5.3521697e-24)
(2.5143049 -0.009227885 2.6440213e-22)
(2.5154293 -0.008438197 4.0456161e-22)
(2.5163981 -0.0075064244 1.3324425e-22)
(2.517414 -0.0063790402 -9.9631738e-23)
(2.5182597 -0.0053673451 -1.6680577e-24)
(2.5191335 -0.0042475613 1.1038614e-23)
(2.51988 -0.0028466787 1.3113227e-22)
(2.5206374 -0.001226572 -5.2310924e-24)
(2.4986736 -0.0022308706 5.0416245e-24)
(2.4984764 -0.0025893099 -2.1911531e-24)
(2.4983636 -0.0029462279 6.5601534e-24)
(2.4983182 -0.0032244831 -1.4191124e-24)
(2.4982723 -0.0034976858 -5.4093019e-23)
(2.4982128 -0.0038592865 1.0314975e-22)
(2.4981891 -0.0042121582 5.5341001e-23)
(2.4981798 -0.0046247279 7.2975675e-23)
(2.4982049 -0.0050229304 2.7728785e-22)
(2.4982527 -0.0054953972 5.0784914e-22)
(2.4983415 -0.0059453668 3.306288e-22)
(2.4984707 -0.0064722195 -2.2439846e-22)
(2.4986448 -0.0069653805 -2.0930806e-22)
(2.4988794 -0.007536791 -6.3040365e-22)
(2.4991613 -0.0080597511 -6.1591678e-22)
(2.4995273 -0.0086564956 -4.8232122e-23)
(2.4999391 -0.009186557 -1.7490171e-22)
(2.5004601 -0.0097790233 -5.8067357e-22)
(2.5010199 -0.010283891 -2.1046755e-22)
(2.5017128 -0.010831255 4.3478424e-22)
(2.5024299 -0.011269729 3.8580208e-22)
(2.5032995 -0.011722403 -3.1713704e-22)
(2.5041704 -0.012046448 -7.162346e-22)
(2.505205 -0.012347979 2.2660902e-22)
(2.5062091 -0.012510625 6.1085135e-22)
(2.5073772 -0.012612426 2.0380601e-22)
(2.5084785 -0.012567343 2.169232e-22)
(2.5097316 -0.012417679 -1.3950558e-22)
(2.5108783 -0.012145989 -2.8754005e-22)
(2.512154 -0.011744412 6.0083441e-22)
(2.5132924 -0.01121205 6.1888441e-22)
(2.5145288 -0.0105101 8.933142e-23)
(2.5156016 -0.0097743051 2.196487e-22)
(2.5167409 -0.0088871951 -3.5976218e-22)
(2.5177136 -0.0078725447 -5.8900195e-22)
(2.518722 -0.006656299 -1.346827e-22)
(2.5195624 -0.0055776263 -1.2427205e-22)
(2.5204213 -0.0043924544 -1.0237394e-22)
(2.5211526 -0.0029328647 -2.3595644e-22)
(2.5218865 -0.0012541628 -3.0774135e-22)
(2.4985676 -0.0021357762 2.6417024e-23)
(2.4983445 -0.0024807373 3.9614063e-23)
(2.4982085 -0.0028254989 3.355376e-23)
(2.4981417 -0.0030957551 8.2585147e-23)
(2.4980712 -0.0033626198 7.6644087e-23)
(2.4979798 -0.0037158593 1.181423e-23)
(2.4979236 -0.0040628618 1.6256464e-22)
(2.4978751 -0.0044696353 -4.8659954e-23)
(2.4978601 -0.0048655342 -3.3654124e-23)
(2.4978588 -0.0053368052 2.3466265e-22)
(2.4978984 -0.0057903403 4.5308962e-22)
(2.4979682 -0.006323898 4.8288591e-22)
(2.4980836 -0.0068299912 -4.2084837e-23)
(2.4982482 -0.0074202841 -2.3341309e-22)
(2.4984626 -0.0079698411 -6.3399692e-22)
(2.4987496 -0.0086028075 -5.3041156e-22)
(2.4990876 -0.0091779013 1.0747087e-23)
(2.4995243 -0.0098293006 -9.824892e-23)
(2.5000084 -0.010402227 -4.8220359e-22)
(2.5006182 -0.011036145 -1.2889243e-22)
(2.501265 -0.011568772 4.8482399e-22)
(2.5020618 -0.0121376 5.8030516e-22)
(2.5028767 -0.012583139 -8.4259069e-23)
(2.5038594 -0.013031358 -1.2473952e-21)
(2.504832 -0.013337601 -3.6109228e-22)
(2.5059801 -0.013605083 5.6990048e-22)
(2.5070816 -0.013723955 1.8199229e-22)
(2.5083534 -0.013762697 4.2854303e-22)
(2.5095386 -0.013650117 9.3348461e-23)
(2.5108759 -0.013412835 -5.6275952e-22)
(2.512086 -0.013056624 2.7678473e-22)
(2.5134197 -0.012552215 3.4762186e-22)
(2.5145963 -0.011926547 -1.5989265e-22)
(2.5158612 -0.011116876 5.8729132e-23)
(2.5169491 -0.010289778 -4.9435125e-22)
(2.5180915 -0.009302423 -6.2831821e-22)
(2.5190579 -0.0082053176 -1.9687671e-22)
(2.5200474 -0.0069023603 4.2714565e-23)
(2.5208741 -0.005759808 6.5427214e-23)
(2.521709 -0.0045136538 -1.1119714e-22)
(2.5224184 -0.0030026218 -1.7739109e-22)
(2.523122 -0.001274416 1.5478466e-23)
(2.4984729 -0.002041161 -5.2243536e-24)
(2.4982266 -0.0023721033 -4.4582835e-23)
(2.4980699 -0.0027038156 -3.3556117e-23)
(2.4979836 -0.0029649476 1.757364e-23)
(2.4978909 -0.0032240634 6.4183011e-23)
(2.4977703 -0.0035670749 1.7567772e-23)
(2.4976845 -0.0039059278 -4.4831858e-23)
(2.4975999 -0.0043039646 -2.6752464e-22)
(2.4975476 -0.0046941105 -4.7546604e-22)
(2.4975006 -0.0051597738 -4.7440987e-22)
(2.4974939 -0.0056118645 -2.2667965e-22)
(2.4975074 -0.006145799 -1.387256e-22)
(2.4975666 -0.0066578718 -1.2022048e-22)
(2.4976636 -0.0072583917 3.2498132e-22)
(2.4978116 -0.0078253816 1.4911437e-22)
(2.49802 -0.0084833968 -9.6649072e-23)
(2.4982828 -0.0090922291 1.0737187e-23)
(2.4986323 -0.0097892164 1.5609246e-22)
(2.499036 -0.010417278 5.4883066e-23)
(2.4995551 -0.011122913 4.3460209e-24)
(2.5001222 -0.011736588 3.4802756e-22)
(2.5008328 -0.012407838 1.6701411e-22)
(2.5015771 -0.012962635 2.5340048e-22)
(2.502489 -0.013544655 3.2690074e-22)
(2.5034104 -0.013988165 -7.713221e-22)
(2.5045147 -0.014419822 -7.1217825e-22)
(2.5055947 -0.014696385 1.6758899e-22)
(2.5068606 -0.014915109 1.4937865e-22)
(2.5080606 -0.014976968 3.8309389e-22)
(2.5094353 -0.014937208 5.1001357e-24)
(2.5107009 -0.014744408 -6.1967989e-22)
(2.5121163 -0.014405591 -3.0138723e-23)
(2.5133824 -0.013954349 3.216771e-23)
(2.5147638 -0.013336391 -7.5564917e-22)
(2.5159684 -0.012610638 -5.5761959e-22)
(2.5172491 -0.011687308 -9.8891702e-23)
(2.5183409 -0.010766046 -2.1975818e-22)
(2.5194736 -0.0096769946 1.8336719e-22)
(2.520423 -0.0084990744 4.1662469e-22)
(2.5213822 -0.0071130438 1.9151842e-22)
(2.5221866 -0.0059106946 2.5176191e-23)
(2.5229888 -0.004609059 -2.4940671e-22)
(2.5236696 -0.0030548079 -6.6627073e-23)
(2.5243363 -0.0012869849 7.424314e-23)
(2.4983886 -0.0019479388 4.5501011e-25)
(2.4981215 -0.0022645315 8.2367012e-24)
(2.4979461 -0.0025827023 -2.9267843e-23)
(2.4978425 -0.0028339167 -4.8897037e-23)
(2.4977296 -0.0030842156 0)
(2.4975827 -0.0034156067 1.5080905e-22)
(2.4974698 -0.0037445502 1.0791099e-22)
(2.4973524 -0.0041315497 2.6328512e-22)
(2.4972659 -0.0045131666 5.6731089e-23)
(2.4971768 -0.004969636 -3.4598783e-22)
(2.4971269 -0.0054161175 -3.4288157e-22)
(2.4970878 -0.005945112 -2.4742431e-22)
(2.4970937 -0.0064571896 -1.641736e-22)
(2.4971262 -0.0070604022 -2.1307611e-22)
(2.4972102 -0.0076366544 2.0837938e-22)
(2.4973418 -0.0083095982 1.1657292e-22)
(2.49753 -0.0089416324 -1.1749653e-22)
(2.4977916 -0.0096714658 -8.7810499e-23)
(2.4981123 -0.010342044 4.8359746e-23)
(2.498536 -0.011104663 -1.3072837e-22)
(2.4990164 -0.011785471 -1.8178188e-22)
(2.4996309 -0.012543466 -8.4667187e-23)
(2.5002923 -0.013194204 -2.6318561e-22)
(2.501117 -0.013896599 3.8660748e-22)
(2.5019695 -0.014465991 4.5957488e-22)
(2.5030079 -0.01505053 -4.6205296e-22)
(2.504044 -0.015480838 -3.999374e-22)
(2.5052777 -0.015881525 -2.0292119e-22)
(2.5064693 -0.01611475 -2.2524154e-22)
(2.5078556 -0.016268223 9.9287266e-22)
(2.5091536 -0.016258662 6.4366612e-22)
(2.5106279 -0.016123941 -7.9432574e-22)
(2.5119685 -0.015837805 -2.3707539e-22)
(2.5134534 -0.015383396 3.6170558e-22)
(2.5147659 -0.014826934 -3.8180988e-22)
(2.5161827 -0.014085393 -2.4225345e-22)
(2.5174036 -0.013253672 1.9864797e-22)
(2.518686 -0.012212077 -7.0160885e-23)
(2.5197697 -0.011195042 3.1560314e-22)
(2.5208791 -0.010004496 2.767069e-22)
(2.5218005 -0.0087487652 6.0062736e-23)
(2.522718 -0.0072848656 2.1844453e-22)
(2.5234918 -0.0060278664 -3.8761131e-23)
(2.5242527 -0.0046773683 -3.8727484e-23)
(2.5248986 -0.0030888188 9.6130384e-23)
(2.5255223 -0.0012917058 -3.6410124e-23)
(2.4983136 -0.0018568343 9.5725856e-24)
(2.4980281 -0.0021590152 5.3613788e-23)
(2.497836 -0.0024633555 6.1896037e-23)
(2.4977168 -0.0027041154 4.3793424e-23)
(2.4975858 -0.0029448565 2.6635716e-23)
(2.4974152 -0.0032636413 -2.4359909e-23)
(2.4972779 -0.0035813611 1.1846369e-22)
(2.4971306 -0.0039555775 6.4596104e-23)
(2.4970129 -0.0043264978 2.115754e-22)
(2.4968852 -0.0047709382 6.0026992e-22)
(2.4967955 -0.0052084246 2.264445e-22)
(2.4967077 -0.0057281114 2.0025511e-22)
(2.4966638 -0.0062351761 2.9993203e-22)
(2.4966357 -0.0068346802 -1.8597577e-22)
(2.4966586 -0.0074130832 -2.3285449e-22)
(2.4967166 -0.0080920134 1.0862232e-22)
(2.496832 -0.0087376989 1.9640345e-23)
(2.497007 -0.0094886245 -2.7635221e-22)
(2.4972442 -0.010189706 -2.5074101e-22)
(2.4975704 -0.010994921 -9.3364585e-23)
(2.4979598 -0.01172893 -2.6542092e-22)
(2.4984711 -0.012557644 -1.1950005e-22)
(2.4990404 -0.013289622 -2.515375e-23)
(2.4997647 -0.014096222 -7.0807885e-23)
(2.5005329 -0.014778417 5.4972237e-22)
(2.5014854 -0.015503346 4.4495402e-22)
(2.5024569 -0.01607753 -4.3093203e-22)
(2.5036329 -0.016651338 -5.2865125e-22)
(2.5047912 -0.017055115 -3.4136328e-22)
(2.5061607 -0.017408115 1.3990315e-22)
(2.5074666 -0.017582657 1.302044e-21)
(2.5089737 -0.017652699 1.0423997e-21)
(2.5103669 -0.017556328 -3.1725787e-22)
(2.5119351 -0.017309349 -7.799731e-22)
(2.5133427 -0.016916569 -2.2122838e-22)
(2.5148861 -0.016332663 1.0965959e-22)
(2.5162336 -0.015661363 2.5020237e-22)
(2.5176715 -0.014787315 3.8557675e-22)
(2.5188954 -0.013844943 1.3359156e-22)
(2.5201643 -0.012682234 0)
(2.521227 -0.011569335 -4.2045674e-23)
(2.5222993 -0.010279377 1.875335e-23)
(2.5231819 -0.0089502943 1.6915373e-22)
(2.5240465 -0.0074152118 1.3664814e-22)
(2.5247816 -0.006109797 1.4004225e-22)
(2.5254931 -0.0047180886 1.7654417e-22)
(2.5260984 -0.0031045364 5.1205852e-23)
(2.5266739 -0.0012886068 -8.7047372e-23)
(2.498247 -0.001768401 3.0203376e-23)
(2.4979451 -0.0020562279 0)
(2.4977382 -0.0023466975 4.1706923e-23)
(2.4976051 -0.0025767241 1.1500262e-23)
(2.4974579 -0.0028073989 -6.5555785e-24)
(2.4972661 -0.0031129142 -1.4395834e-22)
(2.4971067 -0.0034184935 -1.9518815e-22)
(2.4969325 -0.0037786738 -3.482577e-22)
(2.4967866 -0.0041372483 -4.0720511e-22)
(2.4966239 -0.0045674808 3.4815492e-23)
(2.4964978 -0.0049933014 4.0133947e-22)
(2.4963652 -0.0055001892 2.8405047e-22)
(2.4962752 -0.0059981164 2.6014159e-22)
(2.4961906 -0.0065885949 3.3564123e-22)
(2.4961562 -0.007163109 -1.255532e-22)
(2.4961444 -0.00784033 2.3858779e-22)
(2.4961901 -0.0084912283 5.7081819e-22)
(2.4962812 -0.0092526819 2.0985274e-22)
(2.4964362 -0.0099731775 -6.8308912e-23)
(2.496665 -0.010807445 2.2220021e-22)
(2.4969618 -0.011581093 3.7986352e-22)
(2.4973656 -0.01246446 2.5200216e-22)
(2.4978364 -0.013262521 4.0014016e-22)
(2.4984503 -0.014156207 -5.6446464e-23)
(2.4991221 -0.014936039 -1.0033154e-22)
(2.4999718 -0.0157852 -2.5624874e-22)
(2.5008599 -0.016491002 -3.6815311e-22)
(2.5019543 -0.01722716 -1.9702378e-22)
(2.5030553 -0.017793925 -2.8488738e-22)
(2.5043792 -0.018341035 -3.1763351e-22)
(2.505666 -0.018702795 1.4034706e-22)
(2.507176 -0.01898904 1.0656283e-21)
(2.5085968 -0.019087955 8.1402495e-22)
(2.5102226 -0.019054757 -7.3890506e-22)
(2.5117058 -0.018855345 -1.1861588e-21)
(2.5133591 -0.018478233 -6.4815499e-22)
(2.5148236 -0.017965572 -3.4073394e-22)
(2.5164117 -0.017238919 -2.3064888e-23)
(2.5177807 -0.016444132 1.0111423e-22)
(2.5192235 -0.015430349 1.2670991e-22)
(2.520436 -0.01437424 0)
(2.5216754 -0.013089706 5.578671e-25)
(2.522704 -0.011882602 5.9002674e-23)
(2.5237251 -0.010497243 -3.8328993e-23)
(2.5245584 -0.0091006502 -7.1883439e-23)
(2.5253597 -0.0075023111 -1.3707334e-22)
(2.5260483 -0.0061557221 -1.0738761e-22)
(2.5267032 -0.0047313121 4.362398e-23)
(2.5272627 -0.0031021606 -8.7704989e-23)
(2.5277853 -0.0012778733 7.898668e-23)
(2.4981876 -0.0016830472 2.2879491e-23)
(2.4978715 -0.0019568002 4.5467124e-23)
(2.4976513 -0.0022334193 1.6750098e-23)
(2.4975058 -0.0024525588 4.8342606e-23)
(2.4973443 -0.002672941 1.9942172e-23)
(2.4971335 -0.0029648458 2.1193237e-22)
(2.4969544 -0.0032576462 8.5156406e-23)
(2.4967562 -0.0036029175 -1.6539536e-22)
(2.4965847 -0.0039479806 -3.1040195e-22)
(2.4963904 -0.0043624193 -3.1648219e-22)
(2.4962313 -0.0047745129 1.0514689e-22)
(2.4960578 -0.0052658791 -9.383259e-23)
(2.4959256 -0.0057513809 -2.1338104e-22)
(2.495789 -0.0063285371 8.6975293e-23)
(2.4957012 -0.0068941405 1.5586204e-22)
(2.4956242 -0.0075631813 -3.6131143e-23)
(2.495604 -0.0082120336 3.113802e-22)
(2.495615 -0.0089747857 1.1402898e-21)
(2.4956906 -0.0097047278 8.0657771e-22)
(2.4958242 -0.010555643 3.8109026e-23)
(2.4960286 -0.011356159 3.1573009e-22)
(2.4963237 -0.012278718 2.1330833e-22)
(2.4966923 -0.013127721 8.9612556e-23)
(2.4971891 -0.014090804 1.4298114e-22)
(2.4977554 -0.014952077 -2.9435424e-22)
(2.4984888 -0.015907602 3.5423053e-23)
(2.4992778 -0.016729857 -1.1061147e-22)
(2.5002696 -0.0176129 -5.5525753e-22)
(2.5012909 -0.018331952 -3.940116e-22)
(2.5025413 -0.019065076 1.1758496e-22)
(2.5037819 -0.019609683 9.4268965e-23)
(2.5052629 -0.020111203 -5.6150458e-22)
(2.5066828 -0.020413252 3.0368378e-22)
(2.5083354 -0.020611216 1.7297314e-22)
(2.5098694 -0.020615989 -1.3115787e-21)
(2.5116087 -0.020458276 -9.5059884e-22)
(2.5131738 -0.020138974 -4.3569826e-22)
(2.5149005 -0.019613823 3.3488666e-22)
(2.5164089 -0.018968583 6.4758498e-22)
(2.5180256 -0.01808733 -2.1518447e-23)
(2.5194008 -0.017161925 1.100891e-24)
(2.5208307 -0.016003436 -1.9062609e-22)
(2.5220167 -0.014832476 -1.9414112e-22)
(2.5232099 -0.013427693 8.7960773e-23)
(2.5241911 -0.012129845 -4.0671903e-24)
(2.5251474 -0.010654864 -3.6864005e-22)
(2.5259214 -0.0091977744 -4.3532827e-22)
(2.5266495 -0.0075450792 -2.3972146e-22)
(2.5272846 -0.0061653941 -9.773132e-23)
(2.5278765 -0.0047174258 2.6498443e-23)
(2.5283858 -0.0030820438 1.8678513e-22)
(2.5288518 -0.0012597907 3.0225233e-22)
(2.4981344 -0.001601062 -6.5683781e-23)
(2.4978059 -0.0018608768 -7.5069471e-23)
(2.497574 -0.0021240152 -5.5469921e-23)
(2.4974178 -0.0023324278 3.1215581e-23)
(2.4972436 -0.0025423149 6.1687591e-23)
(2.4970159 -0.0028203962 7.2892436e-23)
(2.4968192 -0.0031001463 2.5639587e-22)
(2.4965995 -0.0034300391 4.8810989e-22)
(2.4964052 -0.0037607446 2.5662738e-22)
(2.4961824 -0.0041582524 -9.7939326e-23)
(2.4959935 -0.0045551462 -1.0021069e-22)
(2.4957831 -0.0050289833 -2.3766137e-23)
(2.4956124 -0.0054994798 -2.1495684e-22)
(2.4954282 -0.0060599134 -2.0982397e-22)
(2.4952914 -0.0066125623 7.5601093e-23)
(2.495154 -0.007268137 -3.4999754e-22)
(2.4950721 -0.0079088302 -5.4072971e-22)
(2.4950079 -0.0086650096 -4.9096797e-22)
(2.4950078 -0.0093956967 2.8358967e-22)
(2.4950498 -0.010252237 7.4632081e-23)
(2.495164 -0.011067916 -6.6766467e-22)
(2.4953516 -0.012015211 -6.6487734e-23)
(2.495617 -0.012900582 -1.7024555e-22)
(2.4959934 -0.013915607 1.2802097e-23)
(2.4964482 -0.014841647 6.352169e-23)
(2.4970553 -0.015884392 -2.832805e-22)
(2.497733 -0.016806186 2.9485604e-23)
(2.4986043 -0.017818026 4.7404135e-22)