/*--------------------------------*- C++ -*----------------------------------*\
| =========                 |                                                 |
| \\      /  F ield         | OpenFOAM: The Open Source CFD Toolbox           |
|  \\    /   O peration     | Version:  v2012                                 |
|   \\  /    A nd           | Website:  www.openfoam.com                      |
|    \\/     M anipulation  |                                                 |
\*---------------------------------------------------------------------------*/
FoamFile
{
    version     2.0;
    format      ascii;
    class       volVectorField;
    location    "35.9040569518127981";
    object      cellDisplacement;
}
// * * * * * * * * * * * * * * * * * * * * * * * * * * * * * * * * * * * * * //

dimensions      [0 1 0 0 0 0 0];


internalField   nonuniform List<vector> 
9200
(
(-0.019007258 0 0)
(-0.019126347 0 0)
(-0.055235599 0 0)
(-0.019221195 0 0)
(-0.055373082 0 0)
(-0.08874733 0 0)
(-0.019345544 0 0)
(-0.055676519 0 0)
(-0.089078824 0 0)
(-0.12000745 0 0)
(-0.019464316 0 0)
(-0.055997352 0 0)
(-0.089510306 0 0)
(-0.12032684 0 0)
(-0.1488947 0 0)
(-0.019585508 0 0)
(-0.056333215 0 0)
(-0.090019333 0 0)
(-0.12091094 0 0)
(-0.14936638 0 0)
(-0.17584532 0 0)
(-0.019700226 0 0)
(-0.05666376 0 0)
(-0.090559045 0 0)
(-0.12161366 0 0)
(-0.15007553 0 0)
(-0.17630471 0 0)
(-0.20075571 0 0)
(-0.019808881 0 0)
(-0.056982158 0 0)
(-0.091086463 0 0)
(-0.12233786 0 0)
(-0.15093671 0 0)
(-0.17715148 0 0)
(-0.20135989 0 0)
(-0.22400097 0 0)
(-0.019908272 0 0)
(-0.057278622 0 0)
(-0.091590512 0 0)
(-0.12305932 0 0)
(-0.15185962 0 0)
(-0.17818768 0 0)
(-0.2023136 0 0)
(-0.22460063 0 0)
(-0.24548207 0 0)
(-0.019997587 0 0)
(-0.057549797 0 0)
(-0.092059082 0 0)
(-0.12374602 0 0)
(-0.15277918 0 0)
(-0.17931181 0 0)
(-0.20352144 0 0)
(-0.22569891 0 0)
(-0.24622672 0 0)
(-0.26552286 0 0)
(-0.020076867 0 0)
(-0.057792973 0 0)
(-0.092484521 0 0)
(-0.12438389 0 0)
(-0.15365788 0 0)
(-0.18043254 0 0)
(-0.204842 0 0)
(-0.2270853 0 0)
(-0.2474421 0 0)
(-0.26627823 0 0)
(-0.28403087 0 0)
(-0.020145228 0 0)
(-0.058006504 0 0)
(-0.092864184 0 0)
(-0.12496216 0 0)
(-0.15446983 0 0)
(-0.18150335 0 0)
(-0.20617307 0 0)
(-0.22861022 0 0)
(-0.24900428 0 0)
(-0.26765624 0 0)
(-0.28493726 0 0)
(-0.30127977 0 0)
(-0.020204117 0 0)
(-0.058192029 0 0)
(-0.093195843 0 0)
(-0.12547447 0 0)
(-0.15520979 0 0)
(-0.18250387 0 0)
(-0.20745576 0 0)
(-0.23017354 0 0)
(-0.25075942 0 0)
(-0.26941911 0 0)
(-0.28644939 0 0)
(-0.30221799 0 0)
(-0.31719156 0 0)
(-0.020253009 0 0)
(-0.058348996 0 0)
(-0.093481025 0 0)
(-0.12592121 0 0)
(-0.1558633 0 0)
(-0.183408 0 0)
(-0.2086493 0 0)
(-0.2316737 0 0)
(-0.25254995 0 0)
(-0.2713923 0 0)
(-0.28840672 0 0)
(-0.3039097 0 0)
(-0.31828208 0 0)
(-0.33199627 0 0)
(-0.020293538 0 0)
(-0.058480269 0 0)
(-0.093721212 0 0)
(-0.12630109 0 0)
(-0.15643491 0 0)
(-0.18421769 0 0)
(-0.2097321 0 0)
(-0.23307071 0 0)
(-0.25429044 0 0)
(-0.27343733 0 0)
(-0.29062261 0 0)
(-0.30608533 0 0)
(-0.32012475 0 0)
(-0.33313552 0 0)
(-0.34563208 0 0)
(-0.020325876 0 0)
(-0.058587263 0 0)
(-0.093920872 0 0)
(-0.12662171 0 0)
(-0.15692123 0 0)
(-0.18491839 0 0)
(-0.2107003 0 0)
(-0.23434874 0 0)
(-0.25592155 0 0)
(-0.27544472 0 0)
(-0.29293442 0 0)
(-0.30854198 0 0)
(-0.32251563 0 0)
(-0.33517387 0 0)
(-0.34692315 0 0)
(-0.35828896 0 0)
(-0.020351647 0 0)
(-0.058672881 0 0)
(-0.094083306 0 0)
(-0.12688328 0 0)
(-0.15733066 0 0)
(-0.18552458 0 0)
(-0.21154445 0 0)
(-0.23548437 0 0)
(-0.25740637 0 0)
(-0.27731302 0 0)
(-0.29518723 0 0)
(-0.31110675 0 0)
(-0.32523071 0 0)
(-0.33780182 0 0)
(-0.34912772 0 0)
(-0.35964544 0 0)
(-0.36992263 0 0)
(-0.020371249 0 0)
(-0.058739445 0 0)
(-0.094212954 0 0)
(-0.12709669 0 0)
(-0.15766775 0 0)
(-0.18602897 0 0)
(-0.21227132 0 0)
(-0.23648646 0 0)
(-0.25873427 0 0)
(-0.27902854 0 0)
(-0.29734191 0 0)
(-0.31366984 0 0)
(-0.32808617 0 0)
(-0.34078132 0 0)
(-0.3519922 0 0)
(-0.36205746 0 0)
(-0.37142957 0 0)
(-0.3806912 0 0)
(-0.020386248 0 0)
(-0.058788758 0 0)
(-0.094313231 0 0)
(-0.12726292 0 0)
(-0.1579404 0 0)
(-0.18645204 0 0)
(-0.21288352 0 0)
(-0.23734349 0 0)
(-0.25990471 0 0)
(-0.28057275 0 0)
(-0.29931339 0 0)
(-0.31608924 0 0)
(-0.33091576 0 0)
(-0.34391827 0 0)
(-0.355257 0 0)
(-0.36517861 0 0)
(-0.37402133 0 0)
(-0.38227614 0 0)
(-0.39056382 0 0)
(-0.020396999 0 0)
(-0.058824506 0 0)
(-0.094389368 0 0)
(-0.12739411 0 0)
(-0.1581573 0 0)
(-0.18678977 0 0)
(-0.21339123 0 0)
(-0.23807485 0 0)
(-0.26091642 0 0)
(-0.28193226 0 0)
(-0.30109151 0 0)
(-0.31833975 0 0)
(-0.33365253 0 0)
(-0.34707784 0 0)
(-0.35871025 0 0)
(-0.3687342 0 0)
(-0.37739893 0 0)
(-0.38508526 0 0)
(-0.39229668 0 0)
(-0.3996705 0 0)
(-0.02040523 0 0)
(-0.058847791 0 0)
(-0.094443232 0 0)
(-0.12748987 0 0)
(-0.15832453 0 0)
(-0.18706444 0 0)
(-0.21380487 0 0)
(-0.23867725 0 0)
(-0.26177828 0 0)
(-0.28312178 0 0)
(-0.30267399 0 0)
(-0.32038485 0 0)
(-0.33621093 0 0)
(-0.35012509 0 0)
(-0.36217561 0 0)
(-0.3725039 0 0)
(-0.38126521 0 0)
(-0.38873481 0 0)
(-0.39529601 0 0)
(-0.40149212 0 0)
(-0.40799323 0 0)
(-0.020410786 0 0)
(-0.058862439 0 0)
(-0.094480537 0 0)
(-0.1275624 0 0)
(-0.15845295 0 0)
(-0.18727369 0 0)
(-0.21413409 0 0)
(-0.23917381 0 0)
(-0.26249918 0 0)
(-0.28413511 0 0)
(-0.30405703 0 0)
(-0.32221093 0 0)
(-0.33854209 0 0)
(-0.35299574 0 0)
(-0.36556686 0 0)
(-0.37632822 0 0)
(-0.38537938 0 0)
(-0.39291483 0 0)
(-0.3992164 0 0)
(-0.40471348 0 0)
(-0.40995917 0 0)
(-0.41564045 0 0)
(-0.020415537 0 0)
(-0.058869206 0 0)
(-0.094503074 0 0)
(-0.12761033 0 0)
(-0.1585457 0 0)
(-0.18743763 0 0)
(-0.21439242 0 0)
(-0.2395665 0 0)
(-0.26309127 0 0)
(-0.28499488 0 0)
(-0.30525368 0 0)
(-0.3238167 0 0)
(-0.34063331 0 0)
(-0.3556387 0 0)
(-0.3687795 0 0)
(-0.38005746 0 0)
(-0.38954399 0 0)
(-0.39737596 0 0)
(-0.40372633 0 0)
(-0.40891615 0 0)
(-0.41337691 0 0)
(-0.41770153 0 0)
(-0.42260334 0 0)
(-0.020418725 0 0)
(-0.058871345 0 0)
(-0.094515466 0 0)
(-0.12764378 0 0)
(-0.15861316 0 0)
(-0.18755499 0 0)
(-0.21458842 0 0)
(-0.23987831 0 0)
(-0.26356991 0 0)
(-0.28570346 0 0)
(-0.30626851 0 0)
(-0.32521378 0 0)
(-0.34248784 0 0)
(-0.35802429 0 0)
(-0.37175556 0 0)
(-0.38362524 0 0)
(-0.3936529 0 0)
(-0.40192892 0 0)
(-0.40855543 0 0)
(-0.41375629 0 0)
(-0.41785925 0 0)
(-0.42134223 0 0)
(-0.42480329 0 0)
(-0.42897136 0 0)
(-0.020422188 0 0)
(-0.058869681 0 0)
(-0.094518859 0 0)
(-0.12766154 0 0)
(-0.15865696 0 0)
(-0.18764271 0 0)
(-0.21473577 0 0)
(-0.24011318 0 0)
(-0.26394731 0 0)
(-0.28628488 0 0)
(-0.30712178 0 0)
(-0.32640924 0 0)
(-0.34410526 0 0)
(-0.36014778 0 0)
(-0.37445467 0 0)
(-0.38694854 0 0)
(-0.39759268 0 0)
(-0.40640941 0 0)
(-0.41348176 0 0)
(-0.41895552 0 0)
(-0.42304096 0 0)
(-0.42611047 0 0)
(-0.42864214 0 0)
(-0.43127039 0 0)
(-0.4347441 0 0)
(-0.020424767 0 0)
(-0.058866322 0 0)
(-0.09451726 0 0)
(-0.12767202 0 0)
(-0.15868671 0 0)
(-0.18770006 0 0)
(-0.21484065 0 0)
(-0.24029164 0 0)
(-0.26424136 0 0)
(-0.2867474 0 0)
(-0.30782355 0 0)
(-0.32742115 0 0)
(-0.34550429 0 0)
(-0.36201229 0 0)
(-0.37686667 0 0)
(-0.38998293 0 0)
(-0.40128328 0 0)
(-0.41073238 0 0)
(-0.41837076 0 0)
(-0.42429178 0 0)
(-0.42862225 0 0)
(-0.43163026 0 0)
(-0.43369141 0 0)
(-0.43532782 0 0)
(-0.43717522 0 0)
(-0.43999637 0 0)
(-0.020428047 0 0)
(-0.05886225 0 0)
(-0.094511701 0 0)
(-0.12767421 0 0)
(-0.15870264 0 0)
(-0.18773976 0 0)
(-0.21491485 0 0)
(-0.24041783 0 0)
(-0.2644622 0 0)
(-0.28711274 0 0)
(-0.30839634 0 0)
(-0.32826433 0 0)
(-0.34669286 0 0)
(-0.36363368 0 0)
(-0.37900148 0 0)
(-0.39271133 0 0)
(-0.40467883 0 0)
(-0.41481547 0 0)
(-0.42310122 0 0)
(-0.42958241 0 0)
(-0.43435628 0 0)
(-0.43759474 0 0)
(-0.43955592 0 0)
(-0.44066041 0 0)
(-0.44142809 0 0)
(-0.44252682 0 0)
(-0.44473341 0 0)
(-0.020431 0 0)
(-0.05885847 0 0)
(-0.094505167 0 0)
(-0.1276742 0 0)
(-0.15871238 0 0)
(-0.18776211 0 0)
(-0.21496321 0 0)
(-0.24050902 0 0)
(-0.264627 0 0)
(-0.28739177 0 0)
(-0.30885246 0 0)
(-0.32895849 0 0)
(-0.34769604 0 0)
(-0.36502402 0 0)
(-0.38086353 0 0)
(-0.39513411 0 0)
(-0.4077428 0 0)
(-0.41858325 0 0)
(-0.427581 0 0)
(-0.43472581 0 0)
(-0.44007858 0 0)
(-0.44375173 0 0)
(-0.44590875 0 0)
(-0.44686337 0 0)
(-0.44703736 0 0)
(-0.44699052 0 0)
(-0.44738773 0 0)
(-0.44901696 0 0)
(-0.020434519 0 0)
(-0.05885604 0 0)
(-0.094498419 0 0)
(-0.12767177 0 0)
(-0.15871614 0 0)
(-0.18777648 0 0)
(-0.21499461 0 0)
(-0.24056806 0 0)
(-0.26474396 0 0)
(-0.28760322 0 0)
(-0.30921322 0 0)
(-0.32952157 0 0)
(-0.34852654 0 0)
(-0.36620491 0 0)
(-0.38247656 0 0)
(-0.39726009 0 0)
(-0.41047386 0 0)
(-0.42200804 0 0)
(-0.43174723 0 0)
(-0.43962482 0 0)
(-0.44565459 0 0)
(-0.449897 0 0)
(-0.45247767 0 0)
(-0.45360339 0 0)
(-0.4535808 0 0)
(-0.45287466 0 0)
(-0.45204042 0 0)
(-0.45176905 0 0)
(-0.45285716 0 0)
(-0.020437614 0 0)
(-0.058856102 0 0)
(-0.094494412 0 0)
(-0.12767133 0 0)
(-0.15871985 0 0)
(-0.18778353 0 0)
(-0.2150131 0 0)
(-0.24060935 0 0)
(-0.26482805 0 0)
(-0.28775708 0 0)
(-0.30949084 0 0)
(-0.32997219 0 0)
(-0.34921056 0 0)
(-0.36719533 0 0)
(-0.38385264 0 0)
(-0.39911079 0 0)
(-0.4128874 0 0)
(-0.42507654 0 0)
(-0.43555499 0 0)
(-0.44420275 0 0)
(-0.45097924 0 0)
(-0.45590958 0 0)
(-0.45906929 0 0)
(-0.46059985 0 0)
(-0.46070714 0 0)
(-0.45974963 0 0)
(-0.458191 0 0)
(-0.45662105 0 0)
(-0.455724 0 0)
(-0.45630542 0 0)
(-0.02035591 0 0)
(-0.058858051 0 0)
(-0.094492904 0 0)
(-0.12767364 0 0)
(-0.15872381 0 0)
(-0.18778948 0 0)
(-0.21502527 0 0)
(-0.24063404 0 0)
(-0.26488458 0 0)
(-0.28786902 0 0)
(-0.30970409 0 0)
(-0.33032859 0 0)
(-0.34976246 0 0)
(-0.36801732 0 0)
(-0.38502083 0 0)
(-0.40070209 0 0)
(-0.41499331 0 0)
(-0.42779619 0 0)
(-0.43897628 0 0)
(-0.44839469 0 0)
(-0.45597059 0 0)
(-0.46167473 0 0)
(-0.46553336 0 0)
(-0.46762706 0 0)
(-0.46812048 0 0)
(-0.46725865 0 0)
(-0.46539554 0 0)
(-0.46303339 0 0)
(-0.4607556 0 0)
(-0.45926599 0 0)
(-0.45937492 0 0)
(-0.020258223 0 0)
(-0.05867603 0 0)
(-0.094496321 0 0)
(-0.12768033 0 0)
(-0.15873133 0 0)
(-0.18779574 0 0)
(-0.2150342 0 0)
(-0.24065256 0 0)
(-0.26492531 0 0)
(-0.28794666 0 0)
(-0.3098629 0 0)
(-0.33060626 0 0)
(-0.35020646 0 0)
(-0.36869242 0 0)
(-0.38599654 0 0)
(-0.4020601 0 0)
(-0.4168203 0 0)
(-0.43018262 0 0)
(-0.44202251 0 0)
(-0.45219857 0 0)
(-0.46058566 0 0)
(-0.46710538 0 0)
(-0.47174688 0 0)
(-0.47454389 0 0)
(-0.4755996 0 0)
(-0.47509616 0 0)
(-0.47328183 0 0)
(-0.47055656 0 0)
(-0.46742013 0 0)
(-0.46448362 0 0)
(-0.46244053 0 0)
(-0.46210767 0 0)
(-0.020170644 0 0)
(-0.058379487 0 0)
(-0.09422447 0 0)
(-0.12769279 0 0)
(-0.15874492 0 0)
(-0.18780556 0 0)
(-0.2150442 0 0)
(-0.24066615 0 0)
(-0.26495372 0 0)
(-0.28800257 0 0)
(-0.30998261 0 0)
(-0.3308217 0 0)
(-0.35055634 0 0)
(-0.36924059 0 0)
(-0.38680967 0 0)
(-0.40320642 0 0)
(-0.41838432 0 0)
(-0.43226205 0 0)
(-0.44471375 0 0)
(-0.45559672 0 0)
(-0.46477127 0 0)
(-0.47212847 0 0)
(-0.47761758 0 0)
(-0.48121912 0 0)
(-0.48297949 0 0)
(-0.48301442 0 0)
(-0.48153196 0 0)
(-0.47881356 0 0)
(-0.4752564 0 0)
(-0.47139321 0 0)
(-0.46782629 0 0)
(-0.46526215 0 0)
(-0.46451931 0 0)
(-0.020093426 0 0)
(-0.058113546 0 0)
(-0.093752054 0 0)
(-0.12735027 0 0)
(-0.15876284 0 0)
(-0.18782292 0 0)
(-0.21505917 0 0)
(-0.24068225 0 0)
(-0.26497817 0 0)
(-0.2880419 0 0)
(-0.31007082 0 0)
(-0.33098644 0 0)
(-0.35083145 0 0)
(-0.36968303 0 0)
(-0.3874762 0 0)
(-0.40416712 0 0)
(-0.41971845 0 0)
(-0.43405566 0 0)
(-0.44706316 0 0)
(-0.45860662 0 0)
(-0.46854002 0 0)
(-0.47672955 0 0)
(-0.48308493 0 0)
(-0.48754896 0 0)
(-0.49011943 0 0)
(-0.49085508 0 0)
(-0.48989941 0 0)
(-0.48747678 0 0)
(-0.48387483 0 0)
(-0.47953005 0 0)
(-0.47497046 0 0)
(-0.47081901 0 0)
(-0.46776898 0 0)
(-0.46664439 0 0)
(-0.020027397 0 0)
(-0.057879323 0 0)
(-0.093326794 0 0)
(-0.12672884 0 0)
(-0.15835472 0 0)
(-0.18784466 0 0)
(-0.21507991 0 0)
(-0.24070336 0 0)
(-0.26500195 0 0)
(-0.28807503 0 0)
(-0.31013946 0 0)
(-0.33111373 0 0)
(-0.35104496 0 0)
(-0.37003596 0 0)
(-0.38802319 0 0)
(-0.40496525 0 0)
(-0.42084106 0 0)
(-0.43559292 0 0)
(-0.44910783 0 0)
(-0.46125413 0 0)
(-0.47189462 0 0)
(-0.4808893 0 0)
(-0.48810532 0 0)
(-0.49345661 0 0)
(-0.496913 0 0)
(-0.49846921 0 0)
(-0.4982053 0 0)
(-0.49627835 0 0)
(-0.49293839 0 0)
(-0.48850057 0 0)
(-0.48339955 0 0)
(-0.47818951 0 0)
(-0.47348155 0 0)
(-0.46997674 0 0)
(-0.46849969 0 0)
(-0.019972636 0 0)
(-0.057678783 0 0)
(-0.092953787 0 0)
(-0.12616966 0 0)
(-0.15759347 0 0)
(-0.18737296 0 0)
(-0.21510982 0 0)
(-0.24073218 0 0)
(-0.26503016 0 0)
(-0.28810511 0 0)
(-0.31019437 0 0)
(-0.33121269 0 0)
(-0.35121027 0 0)
(-0.37031748 0 0)
(-0.38846537 0 0)
(-0.40562402 0 0)
(-0.4217844 0 0)
(-0.43689952 0 0)
(-0.45086468 0 0)
(-0.46356133 0 0)
(-0.4748572 0 0)
(-0.48460862 0 0)
(-0.49266739 0 0)
(-0.49891621 0 0)
(-0.5032884 0 0)
(-0.50574058 0 0)
(-0.506293 0 0)
(-0.50504341 0 0)
(-0.50217772 0 0)
(-0.49795919 0 0)
(-0.4927102 0 0)
(-0.48689744 0 0)
(-0.48106762 0 0)
(-0.47584563 0 0)
(-0.47191756 0 0)
(-0.47011296 0 0)
(-0.019929753 0 0)
(-0.057512599 0 0)
(-0.092633496 0 0)
(-0.1256795 0 0)
(-0.15691173 0 0)
(-0.18648101 0 0)
(-0.21457863 0 0)
(-0.24077155 0 0)
(-0.26506785 0 0)
(-0.28813793 0 0)
(-0.31024359 0 0)
(-0.33129303 0 0)
(-0.35134049 0 0)
(-0.37054114 0 0)
(-0.38882576 0 0)
(-0.40616551 0 0)
(-0.42256717 0 0)
(-0.43800334 0 0)
(-0.45237311 0 0)
(-0.46556225 0 0)
(-0.47745068 0 0)
(-0.48790393 0 0)
(-0.49677063 0 0)
(-0.50390288 0 0)
(-0.50919148 0 0)
(-0.51257859 0 0)
(-0.51404354 0 0)
(-0.51360903 0 0)
(-0.51140124 0 0)
(-0.50761924 0 0)
(-0.50254964 0 0)
(-0.4965362 0 0)
(-0.49004394 0 0)
(-0.48363871 0 0)
(-0.47792947 0 0)
(-0.4736073 0 0)
(-0.47150179 0 0)
(-0.019898843 0 0)
(-0.057382225 0 0)
(-0.092369281 0 0)
(-0.12525877 0 0)
(-0.15631172 0 0)
(-0.18568338 0 0)
(-0.21357107 0 0)
(-0.24019163 0 0)
(-0.26511219 0 0)
(-0.28818091 0 0)
(-0.31029399 0 0)
(-0.33136247 0 0)
(-0.35144336 0 0)
(-0.37072167 0 0)
(-0.38911683 0 0)
(-0.40660911 0 0)
(-0.42321784 0 0)
(-0.43893075 0 0)
(-0.45365182 0 0)
(-0.46728155 0 0)
(-0.47970932 0 0)
(-0.4908067 0 0)
(-0.50042393 0 0)
(-0.50840885 0 0)
(-0.5146158 0 0)
(-0.51894862 0 0)
(-0.52136668 0 0)
(-0.52184488 0 0)
(-0.52043889 0 0)
(-0.51729146 0 0)
(-0.51262864 0 0)
(-0.50674668 0 0)
(-0.499997 0 0)
(-0.49287001 0 0)
(-0.48591881 0 0)
(-0.47976076 0 0)
(-0.47507229 0 0)
(-0.47268852 0 0)
(-0.019880322 0 0)
(-0.057288334 0 0)
(-0.092161935 0 0)
(-0.12491231 0 0)
(-0.15579972 0 0)
(-0.18498136 0 0)
(-0.2126662 0 0)
(-0.23907853 0 0)
(-0.264483 0 0)
(-0.28823006 0 0)
(-0.31034779 0 0)
(-0.33142654 0 0)
(-0.351532 0 0)
(-0.37086974 0 0)
(-0.38935659 0 0)
(-0.40697404 0 0)
(-0.42375398 0 0)
(-0.43970621 0 0)
(-0.45473828 0 0)
(-0.46875525 0 0)
(-0.48166074 0 0)
(-0.49334097 0 0)
(-0.50365371 0 0)
(-0.51243889 0 0)
(-0.51953858 0 0)
(-0.52482234 0 0)
(-0.52820476 0 0)
(-0.52964894 0 0)
(-0.52915931 0 0)
(-0.52680034 0 0)
(-0.52274365 0 0)
(-0.51722602 0 0)
(-0.51056312 0 0)
(-0.50312282 0 0)
(-0.49539326 0 0)
(-0.48793815 0 0)
(-0.48135634 0 0)
(-0.47632865 0 0)
(-0.47369068 0 0)
(-0.019874182 0 0)
(-0.05723167 0 0)
(-0.092013422 0 0)
(-0.12464035 0 0)
(-0.15537618 0 0)
(-0.18438334 0 0)
(-0.21187471 0 0)
(-0.23807974 0 0)
(-0.26326015 0 0)
(-0.28755083 0 0)
(-0.31041215 0 0)
(-0.33149571 0 0)
(-0.35160939 0 0)
(-0.37099593 0 0)
(-0.38955584 0 0)
(-0.40727573 0 0)
(-0.42419891 0 0)
(-0.44035499 0 0)
(-0.45565114 0 0)
(-0.4700078 0 0)
(-0.48333981 0 0)
(-0.49554566 0 0)
(-0.50648781 0 0)
(-0.51601386 0 0)
(-0.52396369 0 0)
(-0.53017915 0 0)
(-0.5345367 0 0)
(-0.53697051 0 0)
(-0.5374584 0 0)
(-0.53600574 0 0)
(-0.53271394 0 0)
(-0.52777061 0 0)
(-0.52143605 0 0)
(-0.51403129 0 0)
(-0.50593129 0 0)
(-0.49764269 0 0)
(-0.48971123 0 0)
(-0.48274028 0 0)
(-0.47739807 0 0)
(-0.4745258 0 0)
(-0.057212887 0 0)
(-0.019877835 0 0)
(-0.091924557 0 0)
(-0.12444652 0 0)
(-0.15504616 0 0)
(-0.1838886 0 0)
(-0.21119729 0 0)
(-0.23720693 0 0)
(-0.26216738 0 0)
(-0.28622086 0 0)
(-0.30968223 0 0)
(-0.33156558 0 0)
(-0.3516917 0 0)
(-0.37111153 0 0)
(-0.38972772 0 0)
(-0.40752973 0 0)
(-0.4245685 0 0)
(-0.44089666 0 0)
(-0.45642313 0 0)
(-0.47107303 0 0)
(-0.48477572 0 0)
(-0.49744696 0 0)
(-0.50896225 0 0)
(-0.51916833 0 0)
(-0.52790682 0 0)
(-0.53501778 0 0)
(-0.54034405 0 0)
(-0.54377692 0 0)
(-0.54526259 0 0)
(-0.5447914 0 0)
(-0.54239901 0 0)
(-0.53819662 0 0)
(-0.53240015 0 0)
(-0.5252781 0 0)
(-0.5171658 0 0)
(-0.50845028 0 0)
(-0.49963358 0 0)
(-0.49126459 0 0)
(-0.48392804 0 0)
(-0.47829626 0 0)
(-0.47521117 0 0)
(-0.091895974 0 0)
(-0.057223832 0 0)
(-0.019891322 0 0)
(-0.12433077 0 0)
(-0.15480955 0 0)
(-0.1835039 0 0)
(-0.21064097 0 0)
(-0.23646079 0 0)
(-0.26120899 0 0)
(-0.28503432 0 0)
(-0.3082569 0 0)
(-0.33079525 0 0)
(-0.35177294 0 0)
(-0.37122136 0 0)
(-0.38988367 0 0)
(-0.40774862 0 0)
(-0.42488051 0 0)
(-0.44135295 0 0)
(-0.45707123 0 0)
(-0.4719736 0 0)
(-0.48600051 0 0)
(-0.4990843 0 0)
(-0.51110908 0 0)
(-0.52193091 0 0)
(-0.53139893 0 0)
(-0.53934764 0 0)
(-0.54560862 0 0)
(-0.55004099 0 0)
(-0.55254905 0 0)
(-0.55309193 0 0)
(-0.55167881 0 0)
(-0.54835516 0 0)
(-0.54326795 0 0)
(-0.53664579 0 0)
(-0.5287761 0 0)
(-0.51999541 0 0)
(-0.51069629 0 0)
(-0.50139277 0 0)
(-0.49261166 0 0)
(-0.48493982 0 0)
(-0.4790404 0 0)
(-0.47576052 0 0)
(-0.12429517 0 0)
(-0.091916038 0 0)
(-0.057265207 0 0)
(-0.019917224 0 0)
(-0.15467014 0 0)
(-0.18322867 0 0)
(-0.21020641 0 0)
(-0.23584886 0 0)
(-0.26039336 0 0)
(-0.28399143 0 0)
(-0.30697696 0 0)
(-0.32927111 0 0)
(-0.3509661 0 0)
(-0.37133407 0 0)
(-0.39002919 0 0)
(-0.40794344 0 0)
(-0.42514939 0 0)
(-0.44173995 0 0)
(-0.45762271 0 0)
(-0.47273916 0 0)
(-0.4870425 0 0)
(-0.50048393 0 0)
(-0.5129638 0 0)
(-0.52434149 0 0)
(-0.53447031 0 0)
(-0.54319456 0 0)
(-0.55034306 0 0)
(-0.55574864 0 0)
(-0.5592811 0 0)
(-0.56086598 0 0)
(-0.56046991 0 0)
(-0.55811877 0 0)
(-0.55389139 0 0)
(-0.54794539 0 0)
(-0.54053367 0 0)
(-0.53194861 0 0)
(-0.5225354 0 0)
(-0.51269512 0 0)
(-0.50293354 0 0)
(-0.49377495 0 0)
(-0.48579024 0 0)
(-0.47964601 0 0)
(-0.47619038 0 0)
(-0.15462721 0 0)
(-0.1243221 0 0)
(-0.09198364 0 0)
(-0.057344026 0 0)
(-0.01995554 0 0)
(-0.18306738 0 0)
(-0.20989856 0 0)
(-0.23537179 0 0)
(-0.25972173 0 0)
(-0.28310551 0 0)
(-0.30585979 0 0)
(-0.32790877 0 0)
(-0.34935564 0 0)
(-0.37049192 0 0)
(-0.39017423 0 0)
(-0.40812727 0 0)
(-0.42538754 0 0)
(-0.44207539 0 0)
(-0.45809206 0 0)
(-0.47338922 0 0)
(-0.48792931 0 0)
(-0.50168195 0 0)
(-0.51455965 0 0)
(-0.52643052 0 0)
(-0.53716035 0 0)
(-0.5465954 0 0)
(-0.55456626 0 0)
(-0.56090351 0 0)
(-0.56544522 0 0)
(-0.56807594 0 0)
(-0.56873341 0 0)
(-0.56740546 0 0)
(-0.56413871 0 0)
(-0.55902278 0 0)
(-0.55224818 0 0)
(-0.54407812 0 0)
(-0.53481846 0 0)
(-0.52481232 0 0)
(-0.51446197 0 0)
(-0.50428001 0 0)
(-0.49476734 0 0)
(-0.48649632 0 0)
(-0.48012682 0 0)
(-0.47651092 0 0)
(-0.18301906 0 0)
(-0.15466184 0 0)
(-0.12441238 0 0)
(-0.092113111 0 0)
(-0.057461409 0 0)
(-0.020005958 0 0)
(-0.20971768 0 0)
(-0.23503486 0 0)
(-0.25920093 0 0)
(-0.28237599 0 0)
(-0.30490423 0 0)
(-0.32671309 0 0)
(-0.34791706 0 0)
(-0.36880124 0 0)
(-0.3893031 0 0)
(-0.40829968 0 0)
(-0.4256105 0 0)
(-0.44237373 0 0)
(-0.45850024 0 0)
(-0.47394764 0 0)
(-0.48868602 0 0)
(-0.50270316 0 0)
(-0.51592934 0 0)
(-0.52823822 0 0)
(-0.53950243 0 0)
(-0.54958235 0 0)
(-0.55831425 0 0)
(-0.5655217 0 0)
(-0.57103245 0 0)
(-0.57470169 0 0)
(-0.57642841 0 0)
(-0.57616467 0 0)
(-0.57391121 0 0)
(-0.56973942 0 0)
(-0.56376722 0 0)
(-0.55619417 0 0)
(-0.54730361 0 0)
(-0.53740361 0 0)
(-0.52684052 0 0)
(-0.51602014 0 0)
(-0.50544401 0 0)
(-0.49560698 0 0)
(-0.48707166 0 0)
(-0.48049761 0 0)
(-0.47673807 0 0)
(-0.20966646 0 0)
(-0.18306129 0 0)
(-0.15477297 0 0)
(-0.12458231 0 0)
(-0.092301748 0 0)
(-0.05761511 0 0)
(-0.020068375 0 0)
(-0.23483874 0 0)
(-0.25883208 0 0)
(-0.28181135 0 0)
(-0.30412125 0 0)
(-0.32569508 0 0)
(-0.34665339 0 0)
(-0.36728448 0 0)
(-0.38753059 0 0)
(-0.40740771 0 0)
(-0.42581788 0 0)
(-0.44264592 0 0)
(-0.45886208 0 0)
(-0.47443133 0 0)
(-0.48933556 0 0)
(-0.50357827 0 0)
(-0.51710465 0 0)
(-0.52979439 0 0)
(-0.54153563 0 0)
(-0.55219679 0 0)
(-0.56161817 0 0)
(-0.56963049 0 0)
(-0.57605986 0 0)
(-0.58073689 0 0)
(-0.58352604 0 0)
(-0.58434734 0 0)
(-0.58316349 0 0)
(-0.57999881 0 0)
(-0.57494724 0 0)
(-0.56813947 0 0)
(-0.55980203 0 0)
(-0.55022533 0 0)
(-0.53972602 0 0)
(-0.52864451 0 0)
(-0.51738317 0 0)
(-0.50644565 0 0)
(-0.49630708 0 0)
(-0.4875298 0 0)
(-0.48076863 0 0)
(-0.47687948 0 0)
(-0.23478571 0 0)
(-0.20971718 0 0)
(-0.18319329 0 0)
(-0.15498192 0 0)
(-0.12483134 0 0)
(-0.092551792 0 0)
(-0.057806597 0 0)
(-0.020142304 0 0)
(-0.25861919 0 0)
(-0.28141298 0 0)
(-0.3035104 0 0)
(-0.32485613 0 0)
(-0.34557786 0 0)
(-0.36595825 0 0)
(-0.38594041 0 0)
(-0.40555542 0 0)
(-0.42490746 0 0)
(-0.44290121 0 0)
(-0.45918959 0 0)
(-0.47485788 0 0)
(-0.48989854 0 0)
(-0.50432969 0 0)
(-0.51811348 0 0)
(-0.53113604 0 0)
(-0.54329397 0 0)
(-0.55447216 0 0)
(-0.56452176 0 0)
(-0.57327255 0 0)
(-0.58055199 0 0)
(-0.5861898 0 0)
(-0.59001986 0 0)
(-0.59192361 0 0)
(-0.59183623 0 0)
(-0.5897419 0 0)
(-0.58567936 0 0)
(-0.57976633 0 0)
(-0.57215875 0 0)
(-0.56309028 0 0)
(-0.55286601 0 0)
(-0.54180236 0 0)
(-0.53023719 0 0)
(-0.51857141 0 0)
(-0.50729685 0 0)
(-0.49688215 0 0)
(-0.48788409 0 0)
(-0.48095427 0 0)
(-0.47694989 0 0)
(-0.25856325 0 0)
(-0.2348448 0 0)
(-0.20986976 0 0)
(-0.18343943 0 0)
(-0.15528734 0 0)
(-0.12515779 0 0)
(-0.092858307 0 0)
(-0.058032367 0 0)
(-0.0202276 0 0)
(-0.28118376 0 0)
(-0.30307898 0 0)
(-0.32420402 0 0)
(-0.34469054 0 0)
(-0.36482436 0 0)
(-0.38455243 0 0)
(-0.40390082 0 0)
(-0.42298328 0 0)
(-0.44196834 0 0)
(-0.4594941 0 0)
(-0.47524533 0 0)
(-0.49039522 0 0)
(-0.5049815 0 0)
(-0.51898344 0 0)
(-0.53229027 0 0)
(-0.54481314 0 0)
(-0.55644967 0 0)
(-0.5670588 0 0)
(-0.57647935 0 0)
(-0.58454556 0 0)
(-0.5910811 0 0)
(-0.59590984 0 0)
(-0.59888258 0 0)
(-0.5998968 0 0)
(-0.59890491 0 0)
(-0.59590506 0 0)
(-0.59096499 0 0)
(-0.58422106 0 0)
(-0.57584025 0 0)
(-0.56607711 0 0)
(-0.55524136 0 0)
(-0.54365301 0 0)
(-0.53164056 0 0)
(-0.5195975 0 0)
(-0.50801448 0 0)
(-0.49734563 0 0)
(-0.48814541 0 0)
(-0.48106247 0 0)
(-0.47695432 0 0)
(-0.28112659 0 0)
(-0.25863051 0 0)
(-0.23501585 0 0)
(-0.21015264 0 0)
(-0.18379937 0 0)
(-0.15568764 0 0)
(-0.12556038 0 0)
(-0.093223806 0 0)
(-0.05829425 0 0)
(-0.020323601 0 0)
(-0.30282791 0 0)
(-0.32374021 0 0)
(-0.34400035 0 0)
(-0.36389222 0 0)
(-0.38336503 0 0)
(-0.40245153 0 0)
(-0.42126636 0 0)
(-0.43997144 0 0)
(-0.45854315 0 0)
(-0.47559458 0 0)
(-0.49083988 0 0)
(-0.50555566 0 0)
(-0.51973863 0 0)
(-0.53328894 0 0)
(-0.5461251 0 0)
(-0.55816168 0 0)
(-0.56927142 0 0)
(-0.57929715 0 0)
(-0.58807667 0 0)
(-0.59544235 0 0)
(-0.60121528 0 0)
(-0.60522182 0 0)
(-0.60732594 0 0)
(-0.60744943 0 0)
(-0.60555606 0 0)
(-0.6016678 0 0)
(-0.59586874 0 0)
(-0.58831885 0 0)
(-0.57920341 0 0)
(-0.56878133 0 0)
(-0.55737219 0 0)
(-0.54529365 0 0)
(-0.53286661 0 0)
(-0.52047871 0 0)
(-0.50861041 0 0)
(-0.4977083 0 0)
(-0.48832634 0 0)
(-0.48110651 0 0)
(-0.47690698 0 0)
(-0.30275929 0 0)
(-0.28120163 0 0)
(-0.25882161 0 0)
(-0.23533007 0 0)
(-0.21056313 0 0)
(-0.18427002 0 0)
(-0.15618118 0 0)
(-0.12603659 0 0)
(-0.093642398 0 0)
(-0.058588484 0 0)
(-0.020430324 0 0)
(-0.32346913 0 0)
(-0.34350882 0 0)
(-0.36316284 0 0)
(-0.38239064 0 0)
(-0.40121759 0 0)
(-0.41976198 0 0)
(-0.43818583 0 0)
(-0.45647193 0 0)
(-0.47463311 0 0)
(-0.49124442 0 0)
(-0.50606752 0 0)
(-0.52040127 0 0)
(-0.53415588 0 0)
(-0.54726075 0 0)
(-0.55964564 0 0)
(-0.57119402 0 0)
(-0.58175815 0 0)
(-0.59118767 0 0)
(-0.59931547 0 0)
(-0.60596362 0 0)
(-0.61095642 0 0)
(-0.61412641 0 0)
(-0.61535653 0 0)
(-0.61458523 0 0)
(-0.61179932 0 0)
(-0.60703604 0 0)
(-0.6004056 0 0)
(-0.59208316 0 0)
(-0.58226391 0 0)
(-0.57122037 0 0)
(-0.55927447 0 0)
(-0.54674318 0 0)
(-0.53393484 0 0)
(-0.5212275 0 0)
(-0.50909783 0 0)
(-0.49798405 0 0)
(-0.48843467 0 0)
(-0.4810913 0 0)
(-0.47681093 0 0)
(-0.32339199 0 0)
(-0.302835 0 0)
(-0.28141269 0 0)
(-0.2591681 0 0)
(-0.23578489 0 0)
(-0.21110225 0 0)
(-0.18485118 0 0)
(-0.15676459 0 0)
(-0.12658513 0 0)
(-0.09411681 0 0)
(-0.058915818 0 0)
(-0.020520654 0 0)
(-0.34322002 0 0)
(-0.36264368 0 0)
(-0.38162813 0 0)
(-0.40020106 0 0)
(-0.41848317 0 0)
(-0.4366279 0 0)
(-0.45461941 0 0)
(-0.47248478 0 0)
(-0.4902675 0 0)
(-0.50653276 0 0)
(-0.52099426 0 0)
(-0.53491616 0 0)
(-0.5482482 0 0)
(-0.56093171 0 0)
(-0.57286495 0 0)
(-0.58390796 0 0)
(-0.59391672 0 0)
(-0.60273656 0 0)
(-0.61019457 0 0)
(-0.61610502 0 0)
(-0.62029004 0 0)
(-0.62261162 0 0)
(-0.62296778 0 0)
(-0.62130944 0 0)
(-0.61763964 0 0)
(-0.61202528 0 0)
(-0.60458884 0 0)
(-0.59552449 0 0)
(-0.58504131 0 0)
(-0.57341314 0 0)
(-0.56096702 0 0)
(-0.54801611 0 0)
(-0.53485667 0 0)
(-0.52185686 0 0)
(-0.50948886 0 0)
(-0.49818023 0 0)
(-0.48848293 0 0)
(-0.48103045 0 0)
(-0.4766659 0 0)
(-0.34313696 0 0)
(-0.32346663 0 0)
(-0.30305218 0 0)
(-0.28179023 0 0)
(-0.25967157 0 0)
(-0.23637884 0 0)
(-0.21176354 0 0)
(-0.18553723 0 0)
(-0.15743549 0 0)
(-0.12720057 0 0)
(-0.094638957 0 0)
(-0.059127676 0 0)
(-0.020526266 0 0)
(-0.3623357 0 0)
(-0.38108654 0 0)
(-0.39940982 0 0)
(-0.41742946 0 0)
(-0.43529997 0 0)
(-0.45300653 0 0)
(-0.47057226 0 0)
(-0.48805233 0 0)
(-0.50554568 0 0)
(-0.52152413 0 0)
(-0.53559534 0 0)
(-0.54911509 0 0)
(-0.56205174 0 0)
(-0.57431707 0 0)
(-0.58577797 0 0)
(-0.59630511 0 0)
(-0.60575049 0 0)
(-0.61394335 0 0)
(-0.62070461 0 0)
(-0.62585468 0 0)
(-0.62922952 0 0)
(-0.63069444 0 0)
(-0.63016969 0 0)
(-0.6276255 0 0)
(-0.62308973 0 0)
(-0.61664387 0 0)
(-0.60843434 0 0)
(-0.59866469 0 0)
(-0.58755171 0 0)
(-0.57537617 0 0)
(-0.56246588 0 0)
(-0.54912895 0 0)
(-0.53564655 0 0)
(-0.52238023 0 0)
(-0.50979332 0 0)
(-0.49831133 0 0)
(-0.48847667 0 0)
(-0.48087143 0 0)
(-0.47645593 0 0)
(-0.36224271 0 0)
(-0.34321256 0 0)
(-0.3236945 0 0)
(-0.30345326 0 0)
(-0.28233676 0 0)
(-0.26032504 0 0)
(-0.23710818 0 0)
(-0.21254775 0 0)
(-0.18632781 0 0)
(-0.15819119 0 0)
(-0.12788217 0 0)
(-0.094959819 0 0)
(-0.059155355 0 0)
(-0.020532199 0 0)
(-0.38076513 0 0)
(-0.39884479 0 0)
(-0.41661065 0 0)
(-0.43421056 0 0)
(-0.45163123 0 0)
(-0.4689004 0 0)
(-0.48607559 0 0)
(-0.50326064 0 0)
(-0.5205323 0 0)
(-0.53619795 0 0)
(-0.54988314 0 0)
(-0.56303437 0 0)
(-0.5755832 0 0)
(-0.58740933 0 0)
(-0.59839101 0 0)
(-0.60839389 0 0)
(-0.61725769 0 0)
(-0.62480204 0 0)
(-0.63084416 0 0)
(-0.63521038 0 0)
(-0.63775013 0 0)
(-0.63835625 0 0)
(-0.63695633 0 0)
(-0.63354122 0 0)
(-0.62815651 0 0)
(-0.62091008 0 0)
(-0.61195717 0 0)
(-0.60151685 0 0)
(-0.5898141 0 0)
(-0.57712802 0 0)
(-0.56378754 0 0)
(-0.55009573 0 0)
(-0.53631803 0 0)
(-0.5228054 0 0)
(-0.51002435 0 0)
(-0.4983815 0 0)
(-0.48830768 0 0)
(-0.48062779 0 0)
(-0.47619222 0 0)
(-0.38066865 0 0)
(-0.36231711 0 0)
(-0.34345063 0 0)
(-0.32411467 0 0)
(-0.30403148 0 0)
(-0.28304423 0 0)
(-0.26112964 0 0)
(-0.23796962 0 0)
(-0.21344734 0 0)
(-0.18721749 0 0)
(-0.15902469 0 0)
(-0.12827836 0 0)
(-0.095002289 0 0)
(-0.059185177 0 0)
(-0.02053937 0 0)
(-0.39851182 0 0)
(-0.41602671 0 0)
(-0.4333609 0 0)
(-0.45050568 0 0)
(-0.46748237 0 0)
(-0.48435388 0 0)
(-0.50122095 0 0)
(-0.51816913 0 0)
(-0.53520328 0 0)
(-0.55056841 0 0)
(-0.56390249 0 0)
(-0.57669224 0 0)
(-0.58883201 0 0)
(-0.60021239 0 0)
(-0.61071114 0 0)
(-0.6201736 0 0)
(-0.62842781 0 0)
(-0.63529607 0 0)
(-0.64059847 0 0)
(-0.64416806 0 0)
(-0.64587406 0 0)
(-0.64561389 0 0)
(-0.64333945 0 0)
(-0.63906224 0 0)
(-0.63285415 0 0)
(-0.62483393 0 0)
(-0.61517513 0 0)
(-0.60410178 0 0)
(-0.59184494 0 0)
(-0.57868419 0 0)
(-0.5649481 0 0)
(-0.55093037 0 0)
(-0.53687987 0 0)
(-0.5231493 0 0)
(-0.51018797 0 0)
(-0.49819854 0 0)
(-0.48799318 0 0)
(-0.48032929 0 0)
(-0.47586539 0 0)
(-0.39841048 0 0)
(-0.38074552 0 0)
(-0.3625586 0 0)
(-0.34389025 0 0)
(-0.32472896 0 0)
(-0.3047894 0 0)
(-0.28391396 0 0)
(-0.26207633 0 0)
(-0.23895999 0 0)
(-0.21446013 0 0)
(-0.18820015 0 0)
(-0.15950495 0 0)
(-0.12831994 0 0)
(-0.09505007 0 0)
(-0.059219276 0 0)
(-0.020547062 0 0)
(-0.41568361 0 0)
(-0.4327578 0 0)
(-0.44962785 0 0)
(-0.46631601 0 0)
(-0.48288934 0 0)
(-0.49944813 0 0)
(-0.51606753 0 0)
(-0.53276464 0 0)
(-0.54957122 0 0)
(-0.56467535 0 0)
(-0.57767364 0 0)
(-0.59007945 0 0)
(-0.60180454 0 0)
(-0.61273724 0 0)
(-0.62273654 0 0)
(-0.63163526 0 0)
(-0.63925657 0 0)
(-0.64542474 0 0)
(-0.6499681 0 0)
(-0.65272502 0 0)
(-0.65357654 0 0)
(-0.65245339 0 0)
(-0.6493166 0 0)
(-0.6442006 0 0)
(-0.63719244 0 0)
(-0.62843427 0 0)
(-0.61810351 0 0)
(-0.60643419 0 0)
(-0.59366193 0 0)
(-0.58006255 0 0)
(-0.56596153 0 0)
(-0.55164693 0 0)
(-0.53734998 0 0)
(-0.5234149 0 0)
(-0.50998758 0 0)
(-0.49779119 0 0)
(-0.48764063 0 0)
(-0.47998108 0 0)
(-0.47548267 0 0)
(-0.41558102 0 0)
(-0.39848955 0 0)
(-0.38099598 0 0)
(-0.36301582 0 0)
(-0.34453532 0 0)
(-0.32552949 0 0)
(-0.30571687 0 0)
(-0.28493674 0 0)
(-0.26316468 0 0)
(-0.24007335 0 0)
(-0.21557793 0 0)
(-0.18876237 0 0)
(-0.15955207 0 0)
(-0.1283656 0 0)
(-0.09509971 0 0)
(-0.059253896 0 0)
(-0.020555527 0 0)
(-0.43240167 0 0)
(-0.44900686 0 0)
(-0.46541201 0 0)
(-0.4816895 0 0)
(-0.49793895 0 0)
(-0.51423736 0 0)
(-0.53060075 0 0)
(-0.54706619 0 0)
(-0.56368323 0 0)
(-0.57853919 0 0)
(-0.59118281 0 0)
(-0.60320248 0 0)
(-0.61451281 0 0)
(-0.62498325 0 0)
(-0.63445543 0 0)
(-0.64276177 0 0)
(-0.64972858 0 0)
(-0.65517978 0 0)
(-0.65894198 0 0)
(-0.66087262 0 0)
(-0.66087776 0 0)
(-0.65888993 0 0)
(-0.65490103 0 0)
(-0.64896398 0 0)
(-0.64118848 0 0)
(-0.63172359 0 0)
(-0.6207603 0 0)
(-0.60853311 0 0)
(-0.59528208 0 0)
(-0.58127752 0 0)
(-0.56684391 0 0)
(-0.55225453 0 0)
(-0.53773131 0 0)
(-0.52319373 0 0)
(-0.50946687 0 0)
(-0.49736132 0 0)
(-0.48724164 0 0)
(-0.47957389 0 0)
(-0.47503365 0 0)
(-0.43229655 0 0)
(-0.41566423 0 0)
(-0.39874845 0 0)
(-0.38147143 0 0)
(-0.36368462 0 0)
(-0.34537592 0 0)
(-0.32651716 0 0)
(-0.3068155 0 0)
(-0.28611264 0 0)
(-0.26438799 0 0)
(-0.24130522 0 0)
(-0.21621077 0 0)
(-0.1888228 0 0)
(-0.15960774 0 0)
(-0.12841892 0 0)
(-0.095151722 0 0)
(-0.059289971 0 0)
(-0.020564094 0 0)
(-0.44864153 0 0)
(-0.46476827 0 0)
(-0.4807554 0 0)
(-0.49670503 0 0)