/*--------------------------------*- C++ -*----------------------------------*\
| =========                 |                                                 |
| \\      /  F ield         | OpenFOAM: The Open Source CFD Toolbox           |
|  \\    /   O peration     | Version:  v2012                                 |
|   \\  /    A nd           | Website:  www.openfoam.com                      |
|    \\/     M anipulation  |                                                 |
\*---------------------------------------------------------------------------*/
FoamFile
{
    version     2.0;
    format      ascii;
    class       volScalarField;
    location    "35.9040569518127981";
    object      p;
}
// * * * * * * * * * * * * * * * * * * * * * * * * * * * * * * * * * * * * * //

dimensions      [0 2 -2 0 0 0 0];


internalField   nonuniform List<scalar> 
9200
(
0.0016328211
0.0016942811
0.0041462395
0.0016290947
0.0045954679
0.0063914466
0.0016762764
0.0051697123
0.0069192274
0.0080493011
0.0016350667
0.0060332804
0.0076567042
0.008717177
0.0093129033
0.0015981615
0.0070419479
0.0087025346
0.00971442
0.01009649
0.010052094
0.0015735641
0.0081328145
0.0099587457
0.011089496
0.011301289
0.010945922
0.010287903
0.001554099
0.0092987623
0.011295582
0.012777227
0.012953455
0.012351456
0.011272632
0.010007163
0.0015646959
0.010442825
0.012721195
0.014591612
0.015011497
0.014283652
0.012849377
0.011058475
0.0092318461
0.0015993317
0.011556254
0.014106669
0.016542927
0.017258751
0.016723173
0.015028298
0.012771914
0.01031939
0.0079930774
0.0016855024
0.012591349
0.015434838
0.018466718
0.019713765
0.019438987
0.017814723
0.015151126
0.012124348
0.0090827249
0.0063372897
0.0018531449
0.013541924
0.016626348
0.020322518
0.022195768
0.022464616
0.020975238
0.018229949
0.014638744
0.010928135
0.0073933338
0.004319671
0.0021470184
0.01439044
0.017643036
0.021994657
0.024658584
0.025616952
0.024566131
0.0217804
0.017928535
0.013500706
0.009224428
0.0053071016
0.0020023989
0.0026084952
0.015137063
0.018441681
0.023406319
0.02697046
0.028856508
0.028415973
0.025885107
0.02177338
0.016901296
0.011771655
0.0070692824
0.0028884692
-0.00054931363
0.0032835789
0.0157943
0.018996959
0.024464541
0.029037785
0.032050199
0.032505439
0.030392237
0.026282637
0.020917055
0.015172452
0.0095073934
0.0045297994
0.00020634344
-0.0032700024
0.0042203084
0.016394444
0.01929663
0.025091518
0.030754963
0.035111726
0.036720401
0.035311547
0.03132624
0.025680632
0.019218973
0.012796505
0.0067798334
0.0016799603
-0.0026694274
-0.0060970761
0.0054328609
0.016965622
0.019339635
0.025190819
0.032009562
0.037932811
0.040996509
0.040560971
0.036942554
0.031081474
0.024061255
0.016730282
0.0098516564
0.0036712368
-0.0014040934
-0.0056714025
-0.0089697582
0.0069905419
0.017549573
0.019140218
0.024664517
0.032647599
0.040353805
0.045214868
0.046110401
0.043077905
0.037181691
0.029603364
0.021469798
0.013537677
0.0064322647
0.00026803584
-0.004647469
-0.0087357851
-0.011831092
0.0089172812
0.01819347
0.018753796
0.023420934
0.032564658
0.042393494
0.049278265
0.051898091
0.049730337
0.043951805
0.03592258
0.026927131
0.018003733
0.0097519086
0.0026396221
-0.003344139
-0.0079796284
-0.011803746
-0.014637465
0.011097246
0.018887786
0.018245395
0.021339373
0.031687671
0.043844683
0.053298651
0.057945206
0.056878428
0.051418185
0.043005168
0.033183555
0.023163452
0.013796802
0.0054951305
-0.0014249023
-0.0070842881
-0.01133645
-0.014823871
-0.017355327
0.013392594
0.019627593
0.017734749
0.018278293
0.029867703
0.044485598
0.056995462
0.063891405
0.064506151
0.059586867
0.050894623
0.040230234
0.029092213
0.018477534
0.0090005406
0.0008905025
-0.0056658092
-0.010878665
-0.014661282
-0.017752037
-0.019931011
0.015862341
0.020398565
0.01739718
0.014075303
0.02695803
0.044289126
0.060102558
0.069914818
0.072562446
0.068463873
0.059611334
0.0481126
0.035773693
0.023855061
0.013061391
0.0037686835
-0.0039465446
-0.0099967044
-0.014662123
-0.017903786
-0.020548737
-0.022313027
0.019250202
0.021247219
0.017461994
0.0085075755
0.022826716
0.043124531
0.062668252
0.076130259
0.081051817
0.078062666
0.069185174
0.056852308
0.04323987
0.029896037
0.017720196
0.007111378
-0.0017557182
-0.0089131279
-0.014342103
-0.018377976
-0.021021042
-0.023180362
-0.024547857
0.023305053
0.022557468
0.018074291
0.0012922156
0.017335211
0.040856117
0.064560285
0.082208251
0.089960374
0.088380296
0.079636646
0.06648134
0.051497374
0.036605781
0.022921671
0.010944232
0.00080913309
-0.0074481327
-0.01392127
-0.018637404
-0.021977888
-0.023979775
-0.025619618
-0.026694875
0.027794061
0.024188525
0.019066386
-0.0079137399
0.010336807
0.037389373
0.065583939
0.088104045
0.099217267
0.099395058
0.090977854
0.07702224
0.060561161
0.043959743
0.028636213
0.0151909
0.0037623651
-0.0056922387
-0.01320558
-0.018897449
-0.022828289
-0.025422147
-0.026753229
-0.027844582
-0.028551821
0.032468705
0.0259369
0.0202575
-0.019555283
0.0016678505
0.032618002
0.065556888
0.093719426
0.1087497
0.11107346
0.10320114
0.088487242
0.070435834
0.051936083
0.034795973
0.019785699
0.0070140658
-0.0036330154
-0.012271745
-0.018945582
-0.023781158
-0.026869261
-0.028678125
-0.02931778
-0.02985698
-0.03000741
0.037011516
0.027619029
0.021096747
-0.033521025
-0.008844455
0.02645437
0.06422014
0.098948976
0.11847818
0.12334348
0.11627009
0.10086872
0.081118454
0.060500122
0.041325608
0.024615258
0.010471456
-0.0013615368
-0.011098865
-0.018838606
-0.024602856
-0.028522545
-0.030722846
-0.031717745
-0.031653024
-0.031658604
-0.031236328
0.041197601
0.029091254
0.021557028
-0.048706758
-0.021271404
0.018879902
0.061498474
0.10365313
0.1282998
0.13610927
0.13011511
0.11413381
0.092589296
0.069609732
0.048129321
0.029543128
0.013984241
0.0010178473
-0.0097650402
-0.018537625
-0.02532602
-0.030125345
-0.033080249
-0.034359318
-0.034520119
-0.03373683
-0.033222363
-0.032332684
0.044783935
0.030151775
0.0213639
-0.064627473
-0.035992316
0.010005559
0.056683266
0.10768177
0.13808369
0.14924154
0.14462863
0.1282152
0.10480863
0.079209102
0.055097367
0.034398553
0.017362822
0.0033377871
-0.0083667952
-0.018094858
-0.025886688
-0.031684176
-0.035470544
-0.037419825
-0.037753656
-0.037075154
-0.035567748
-0.03454428
-0.033281322
0.047801744
0.030642103
0.0200927
-0.080841615
-0.05342439
-0.00025848349
0.049576377
0.11088439
0.1476874
0.16257888
0.15966348
0.14300699
0.11770792
0.089228806
0.062103596
0.03898094
0.020367611
0.0053794728
-0.0070634312
-0.017581103
-0.026301747
-0.033106258
-0.037873944
-0.04060255
-0.041512822
-0.040882865
-0.039370753
-0.037152168
-0.035633859
-0.03404028
0.049756256
0.030561636
0.017674455
-0.097333746
-0.073312088
-0.012426018
0.040193578
0.11317662
0.1569519
0.17593887
0.17503283
0.15836179
0.13118823
0.099579131
0.069008622
0.043058731
0.022707427
0.0068607163
-0.0060706334
-0.017123828
-0.026602401
-0.034368284
-0.040168014
-0.043861721
-0.045489835
-0.045335528
-0.043733055
-0.041395154
-0.038499181
-0.036485766
-0.034538739
0.050550984
0.029807768
0.014015816
-0.1124001
-0.094584024
-0.026967957
0.029223408
0.1144568
0.16571561
0.18909874
0.190517
0.17409029
0.14511376
0.11015181
0.075658528
0.046371769
0.024038853
0.007431024
-0.0056714319
-0.016903658
-0.026865783
-0.035452882
-0.042289536
-0.047045322
-0.049616008
-0.050104588
-0.048867661
-0.046296784
-0.043143918
-0.039603312
-0.03711009
-0.034804837
0.050119747
0.028017156
0.010798722
-0.12626626
-0.11810209
-0.045124878
0.016905378
0.11476468
0.17375758
0.20183447
0.2058619
0.18996758
0.15931578
0.12081076
0.081888785
0.048634294
0.023956344
0.0066737541
-0.0062323576
-0.017159798
-0.027216713
-0.0363794
-0.044168595
-0.050060535
-0.053707988
-0.055109451
-0.05442462
-0.0520935
-0.04856865
-0.044620699
-0.040465917
-0.037516848
-0.034886762
0.04834966
0.024458075
0.0082768287
-0.14018092
-0.14314714
-0.067956094
0.0030995766
0.11396705
0.18095744
0.21388355
0.2208053
0.20573406
0.17359182
0.13140298
0.087519905
0.049537034
0.021998178
0.0040683062
-0.0081972719
-0.018235797
-0.027831638
-0.037205452
-0.045766481
-0.052778263
-0.057672566
-0.06015045
-0.060309672
-0.058427111
-0.055002058
-0.050544092
-0.045830405
-0.041094463
-0.037717533
-0.034788884
0.045147954
0.018867798
0.0052680251
-0.15580359
-0.16902209
-0.093937
-0.0096513295
0.11201342
0.18711822
0.22506095
0.23506606
0.22112233
0.18771223
0.14174319
0.092371491
0.048757598
0.017639814
-0.00098009705
-0.012105788
-0.020551342
-0.028965351
-0.038017419
-0.047067921
-0.055110031
-0.061289661
-0.065075924
-0.06631692
-0.065190997
-0.062094516
-0.057586311
-0.052223085
-0.046779404
-0.041498616
-0.037724065
-0.034523305
0.040496252
0.011121826
0.00099436295
-0.17130083
-0.19845935
-0.12236677
-0.021177187
0.10898982
0.19219828
0.23507498
0.24841139
0.23584049
0.20143838
0.1516456
0.096238542
0.045968987
0.010304343
-0.0091741631
-0.018589191
-0.024574188
-0.030919921
-0.03897107
-0.048076898
-0.056974263
-0.064454311
-0.069684521
-0.072258758
-0.072176185
-0.069727954
-0.065413119
-0.059842644
-0.053609335
-0.047476244
-0.041689517
-0.037549035
-0.034102934
0.034489744
0.001405212
-0.0049676493
-0.18629649
-0.22836844
-0.15461151
-0.035484039
0.10548477
0.19593054
0.244068
0.26052415
0.24965288
0.21450231
0.16089771
0.098948024
0.040835381
-0.00064929791
-0.021346513
-0.028430205
-0.030918364
-0.034095785
-0.0402446
-0.04883749
-0.058299077
-0.067025486
-0.073802061
-0.077930116
-0.079175002
-0.077695328
-0.073898663
-0.06837328
-0.06177095
-0.05470935
-0.047931258
-0.041679473
-0.037205501
-0.033540321
0.027305191
-0.0095015604
-0.012706223
-0.20007148
-0.25806191
-0.18662536
-0.05492056
0.097154186
0.19910975
0.25067722
0.27140833
0.26223193
0.22669325
0.16929478
0.10025406
0.033068419
-0.015901801
-0.038434711
-0.042595724
-0.040330028
-0.038978342
-0.042120334
-0.049429087
-0.059040757
-0.068869666
-0.07725204
-0.083120378
-0.085975326
-0.085778102
-0.082842631
-0.077685339
-0.070969464
-0.063374536
-0.055532077
-0.048156296
-0.041481586
-0.036706743
-0.032848199
0.019145906
-0.020810102
-0.021728687
-0.21152996
-0.28648333
-0.21807267
-0.07645441
0.08452665
0.19707321
0.2579204
0.28048792
0.27355135
0.23769451
0.17666263
0.10003818
0.022305639
-0.036148568
-0.061494737
-0.062191704
-0.053363895
-0.046208125
-0.044948623
-0.049996993
-0.059187636
-0.069876754
-0.079856893
-0.087622477
-0.092344933
-0.093759741
-0.092022164
-0.087589513
-0.081074724
-0.073200207
-0.064659789
-0.056088509
-0.048164387
-0.041109481
-0.036066103
-0.032039079
0.010251208
-0.032021048
-0.031765276
-0.22059941
-0.31233541
-0.24793788
-0.098961132
0.06980667
0.19175801
0.2602625
0.28898791
0.28294198
0.24751876
0.18276048
0.098036196
0.0084623361
-0.062125121
-0.091725989
-0.088418337
-0.07192376
-0.056539809
-0.049199105
-0.050755433
-0.058774461
-0.069963644
-0.08146058
-0.091232003
-0.098060309
-0.10139416
-0.10122213
-0.097863826
-0.091912181
-0.084058361
-0.075067884
-0.065635831
-0.056391326
-0.047969489
-0.040577057
-0.035296752
-0.031125159
-0.04252253
0.00087225513
-0.042859335
-0.22702264
-0.33416096
-0.27527698
-0.1213188
0.053726774
0.18370266
0.26067793
0.29348467
0.29177161
0.25539455
0.18759846
0.094145572
-0.0091313893
-0.094520117
-0.13041826
-0.12272936
-0.096759493
-0.071021846
-0.055461882
-0.052013634
-0.057903972
-0.069090564
-0.081934153
-0.093764334
-0.10289849
-0.10846219
-0.11019421
-0.10829954
-0.103265
-0.095792387
-0.086632547
-0.076578432
-0.06631417
-0.056454634
-0.047586167
-0.039898198
-0.034411526
-0.030118225
-0.054853934
-0.051597147
-0.0087686944
-0.22966117
-0.35057516
-0.29896383
-0.1421519
0.036444201
0.17349273
0.25809956
0.29807142
0.29677074
0.26290681
0.19053124
0.088157009
-0.02999986
-0.13454809
-0.17932196
-0.16672545
-0.12938964
-0.090719977
-0.064510977
-0.054203048
-0.056763488
-0.067284348
-0.081192448
-0.095063802
-0.10666082
-0.11472008
-0.11871291
-0.11865369
-0.11493469
-0.10819412
-0.099217728
-0.088798151
-0.07774103
-0.066708425
-0.056293596
-0.047029207
-0.039086484
-0.033422884
-0.029029641
-0.22761759
-0.06759187
-0.058831197
-0.019003591
-0.36025741
-0.31784502
-0.16029336
0.018506414
0.16066811
0.25314747
0.29948655
0.30430771
0.26736297
0.19305535
0.080037232
-0.055371098
-0.18045635
-0.23842551
-0.22211964
-0.17178773
-0.11699434
-0.07725348
-0.05790407
-0.05566132
-0.06465275
-0.079221402
-0.095022695
-0.10917936
-0.11996651
-0.12653924
-0.12869363
-0.12668341
-0.12107886
-0.11262683
-0.10218161
-0.090560379
-0.078567851
-0.066833905
-0.055923899
-0.046313182
-0.038155222
-0.032343036
-0.027870264
-0.36206301
-0.21993605
-0.08070845
-0.064772946
-0.029748093
-0.33087237
-0.17476383
0.00032075967
0.14530569
0.24511761
0.29791117
0.30859116
0.27693751
0.19470808
0.070298854
-0.083269409
-0.23319532
-0.30695661
-0.28837525
-0.22534663
-0.15201939
-0.094852887
-0.063855502
-0.055047693
-0.061428629
-0.076086979
-0.093610938
-0.11033775
-0.12403447
-0.13347177
-0.13819487
-0.13829022
-0.13421803
-0.12669175
-0.11654617
-0.10468315
-0.091928568
-0.079073595
-0.066706904
-0.055361179
-0.045452581
-0.037117773
-0.031183872
-0.02665018
-0.33710208
-0.35500928
-0.20622885
-0.092125627
-0.070094541
-0.039701136
-0.18484766
-0.017691882
0.12735795
0.23351404
0.29329328
0.30885491
0.28336041
0.20412365
0.064626499
-0.11559618
-0.2890383
-0.38441301
-0.36494581
-0.28888485
-0.19730002
-0.11929922
-0.073055438
-0.055551475
-0.057981627
-0.071992681
-0.090876306
-0.11009792
-0.12680142
-0.13934689
-0.14696076
-0.14953428
-0.14740241
-0.1411961
-0.13174271
-0.11994257
-0.10672701
-0.09291567
-0.079274583
-0.066343939
-0.054621239
-0.044462444
-0.035987558
-0.029956215
-0.025378449
-0.19011008
-0.33580314
-0.33896688
-0.18674768
-0.098871333
-0.074441472
-0.048365385
-0.035181186
0.10683659
0.21797862
0.2845485
0.30571588
0.28481016
0.21085557
0.06803238
-0.1360749
-0.35439667
-0.46776903
-0.45029528
-0.35850749
-0.24959502
-0.15170656
-0.087133314
-0.058037108
-0.054873228
-0.067264349
-0.087020373
-0.1085047
-0.12822503
-0.14403902
-0.15483176
-0.16022828
-0.16041889
-0.1559437
-0.14756921
-0.13621047
-0.12281378
-0.10832286
-0.093537116
-0.079187784
-0.065762088
-0.053721139
-0.04335846
-0.03477658
-0.028668902
-0.024063535
-0.051924921
-0.19068191
-0.32679201
-0.31417421
-0.16239993
-0.099721647
-0.077501391
-0.055405926
0.083808377
0.19808196
0.2709099
0.29814161
0.2818981
0.21230921
0.069481729
-0.1496851
-0.40357137
-0.56805824
-0.54619609
-0.43536402
-0.30440432
-0.18912485
-0.10710208
-0.063808801
-0.05288297
-0.062436548
-0.082345749
-0.10575626
-0.12835834
-0.14752228
-0.16169059
-0.17021722
-0.17308778
-0.17072977
-0.16384345
-0.15330112
-0.1400833
-0.12516426
-0.10948393
-0.09380958
-0.07883128
-0.064980644
-0.052679362
-0.042154295
-0.033493432
-0.027329844
-0.022714551
0.05827401
-0.068103368
-0.1871338
-0.31017058
-0.28191922
-0.13422625
-0.094362761
-0.079231695
-0.060542057
0.17340718
0.25161034
0.28475112
0.27396083
0.20847214
0.06606437
-0.16376994
-0.45646039
-0.66066081
-0.66524056
-0.52995133
-0.3677919
-0.23001203
-0.13185388
-0.074013185
-0.053102955
-0.058243482
-0.077391824
-0.10212772
-0.12738293
-0.14983417
-0.16751828
-0.1794021
-0.18526183
-0.18538055
-0.18036919
-0.17104741
-0.15836794
-0.1433582
-0.12700333
-0.11022546
-0.093751614
-0.07822663
-0.06402137
-0.051511679
-0.040857953
-0.032145119
-0.025950135
-0.021341334
0.14352372
0.029928195
-0.083620859
-0.18012651
-0.2867576
-0.24426644
-0.10353065
-0.083160597
-0.078559607
-0.063588084
0.22562042
0.26440923
0.25928344
0.19875851
0.056219692
-0.18137649
-0.50799179
-0.77617046
-0.7888007
-0.64895025
-0.45255924
-0.28016501
-0.16169535
-0.089209094
-0.056752983
-0.055633384
-0.072869394
-0.09815569
-0.12554397
-0.1511423
-0.17235658
-0.187769
-0.19685522
-0.19975518
-0.1969766
-0.18926164
-0.17751707
-0.16275695
-0.14603863
-0.12834324
-0.11056555
-0.093386862
-0.077399228
-0.062902496
-0.050225319
-0.039475054
-0.030745588
-0.02454587
-0.019950643
0.19191684
0.10760424
-0.0011427793
-0.097594794
-0.17100017
-0.257884
-0.20388925
-0.071954552
-0.069041196
-0.074769762
-0.064317258
0.23568817
0.2363018
0.18141599
0.039209132
-0.20769399
-0.56288009
-0.89695447
-0.94988146
-0.77362055
-0.55771057
-0.34828826
-0.2006681
-0.11161235
-0.065127709
-0.05583246
-0.069665845
-0.094485672
-0.12331392
-0.151653
-0.1763537
-0.19536436
-0.20785435
-0.21377032
-0.21352587
-0.20777573
-0.19735242
-0.18322816
-0.16646371
-0.14813196
-0.12920033
-0.11052943
-0.092744542
-0.076370029
-0.061630116
-0.048824076
-0.038024502
-0.029320361
-0.02312761
-0.018541748
0.19701065
0.14889951
0.065478174
-0.036190927
-0.1089328
-0.16174248
-0.22617769
-0.16323706
-0.041499276
-0.05452445
-0.06836193
-0.062724658
0.20339969
0.154519
0.013465581
-0.24368137
-0.63131303
-1.0375082
-1.1306791
-0.94322381
-0.66964967
-0.43189284
-0.25118818
-0.14412117
-0.081753483
-0.060020015
-0.069095043
-0.091953325
-0.12127332
-0.15182916
-0.17970039
-0.2023349
-0.21832274
-0.2274129
-0.22992606
-0.22644391
-0.21770636
-0.2046045
-0.18816662
-0.16948872
-0.1496511
-0.12960058
-0.11015011
-0.091848415
-0.075143518
-0.060205666
-0.047333045
-0.036547069
-0.027885799
-0.021682211
-0.017040381
0.15883662
0.14607638
0.095408453
0.01655383
-0.075367165
-0.12103576
-0.15394271
-0.19429539
-0.12402343
-0.013353696
-0.039775264
-0.060585847
-0.059452485
0.11624347
-0.023245138
-0.29085488
-0.71502695
-1.2055734
-1.3587024
-1.1409548
-0.82949517
-0.52928125
-0.31240278
-0.18235
-0.10987192
-0.071798861
-0.071932241
-0.09179731
-0.12022495
-0.15202496
-0.18279844
-0.20887793
-0.228413
-0.24075491
-0.24615563
-0.24516116
-0.23842043
-0.22671917
-0.21099344
-0.19232438
-0.17183955
-0.15062163
-0.12958054
-0.109454
-0.090700543
-0.073718015
-0.058662171
-0.04581241
-0.035067213
-0.026410757
-0.020093261
-0.015434343
0.065064981
0.099951862
0.081181618
0.029627573
-0.039616793
-0.11669506
-0.1344383
-0.1474455
-0.16324929
-0.08752438
0.010957925
-0.026528767
-0.052001444
-0.055233345
-0.073254146
-0.35124764
-0.81582062
-1.4085305
-1.6435271
-1.3915078
-1.0172601
-0.66757534
-0.39791239
-0.22586312
-0.14217176
-0.094345226
-0.081649135
-0.094319439
-0.12112757
-0.15302749
-0.18589026
-0.21535393
-0.23835013
-0.25395977
-0.26227754
-0.26387933
-0.25937114
-0.24940131
-0.2347811
-0.21650173
-0.19570183
-0.17353999
-0.15108309
-0.12916877
-0.10843952
-0.089295112
-0.07213602
-0.057084467
-0.044297348
-0.033522169
-0.02471016
-0.018401406
-0.01375995
-0.13807268
-0.0016181035
0.025326669
-0.00065053949
-0.050086867
-0.10329799
-0.16014157
-0.14675301
-0.14107782
-0.13485561
-0.055898804
0.031914202
-0.015638678
-0.042582714
-0.050037981
-0.42720207
-0.93444409
-1.6443845
-2.0001322
-1.7101667
-1.2507834
-0.83083365
-0.50978613
-0.30484764
-0.17556499
-0.12415674
-0.099043737
-0.10257923
-0.12462433
-0.15537512
-0.18968723
-0.22197818
-0.24849411
-0.26728458
-0.27845338
-0.28262919
-0.28046725
-0.27249774
-0.25935036
-0.24186555
-0.22112124
-0.19831936
-0.1746317
-0.15106533
-0.12835833
-0.10709527
-0.087685919
-0.07051246
-0.05552083
-0.042685787
-0.031609175
-0.022911112
-0.016632999
-0.012020142
-0.52059611
-0.21984648
-0.084273309
-0.068408812
-0.10193676
-0.14522372
-0.17498933
-0.20617277
-0.16190649
-0.13649665
-0.1101202
-0.028159753
0.048219016
-0.005837813
-0.032278539
-0.043920546
-1.0692951
-1.9119207
-2.423693
-2.1099675
-1.5433249
-1.0263696
-0.64668815
-0.38982483
-0.25224719
-0.15105268
-0.12996605
-0.11342285
-0.13302058
-0.1598198
-0.19439877
-0.22941674
-0.25910552
-0.28111612
-0.29495326
-0.30154183
-0.30168082
-0.29587097
-0.28450913
-0.26823074
-0.24795603
-0.22486759
-0.20021959
-0.17514448
-0.15055355
-0.12713013
-0.1054883
-0.086024538
-0.068911925
-0.053818271
-0.040520965
-0.029592195
-0.021024259
-0.014796398
-0.010215582
-1.2179306
-0.63334395
-0.31732254
-0.1861156
-0.1837478
-0.22476922
-0.25667384
-0.2564429
-0.25341134
-0.18122036
-0.13460717
-0.087651229
-0.0054563712
0.062490255
0.0028624416
-0.021284486
-0.036289456
-2.2135281
-2.8859532
-2.5957421
-1.9035062
-1.2646766
-0.8033204
-0.50339933
-0.31825132
-0.21736513
-0.15939579
-0.15332684
-0.14567601
-0.1674839
-0.20080998
-0.23768379
-0.2708633
-0.29581113
-0.31218497
-0.3208577
-0.32307602
-0.31941433
-0.31008143
-0.29538625
-0.27602369
-0.25306283
-0.227783
-0.20143024
-0.17505223
-0.14951811
-0.1255668
-0.10381438
-0.084395228
-0.067119567
-0.051316953
-0.038243908
-0.027475393
-0.01906878
-0.012890974
-0.0083479374
-2.5496906
-1.3772606
-0.76464138
-0.43232691
-0.30893143
-0.32226454
-0.370354
-0.38493054
-0.34844078
-0.3019365
-0.20262173
-0.13169307
-0.068805637
0.014410087
0.073746083
0.010338287
-0.0098212191
-0.02708073
-3.3832502
-3.1692978
-2.3357543
-1.5567207
-0.98366021
-0.63368376
-0.40948817
-0.27756659
-0.2164898
-0.18261393
-0.16797701
-0.17799981
-0.20922727
-0.24769765
-0.28375807
-0.3121143
-0.33060241
-0.34096041
-0.34481042
-0.34308817
-0.33587252
-0.32309849
-0.30510186
-0.28273468
-0.25722656
-0.22989046
-0.20190936
-0.17431087
-0.14805969
-0.1239174
-0.10218154
-0.082507213
-0.064219429
-0.04868704
-0.035850236
-0.025294294
-0.017040613
-0.010919226
-0.0064189765
-3.9316677
-2.8912808
-1.5455634
-0.91740526
-0.56313419
-0.45294531
-0.48459512
-0.53912281
-0.53003204
-0.44964719
-0.35310596
-0.22101783
-0.12930101
-0.052132137
0.029916064
0.080980283
0.016146974
0.001291855
-0.019396535
-3.8242743
-2.8535528
-1.9046976
-1.1892846
-0.7802205
-0.51463862
-0.36226083
-0.26816273
-0.23466608
-0.19189563
-0.19412561
-0.21974163
-0.25917601
-0.29894155
-0.33015832
-0.35102279
-0.36233794
-0.36716949
-0.36691934
-0.36171781
-0.35110572
-0.334919
-0.31366154
-0.28840191
-0.26046217
-0.23112626
-0.20159318
-0.17304157
-0.14649146
-0.12231839
-0.10020673
-0.07912515
-0.061166925
-0.045921538
-0.033398475
-0.023039328
-0.014943657
-0.0088832138
-0.0044308105
-4.521664
-4.4946332
-3.2165064
-1.7247601
-1.0776621
-0.70754968
-0.61699371
-0.67039129
-0.73042374
-0.69009431
-0.56076285
-0.40176999
-0.2366341
-0.12704775
-0.038756809
0.04029284
0.083630776
0.02053709
0.0093144584
-0.013823455
-3.4431007
-2.2909745
-1.4199876
-0.93709325
-0.63672049
-0.45175877
-0.33991774
-0.28418834
-0.2309465
-0.21031757
-0.23373166
-0.27296048
-0.31573724
-0.35138106
-0.3738172
-0.38581568
-0.39056851
-0.39102369
-0.38748196
-0.37912079
-0.3651502
-0.34555391
-0.3211019
-0.29302826
-0.26267675
-0.23140022
-0.20062575
-0.17163426
-0.14498368
-0.1202736
-0.096259524
-0.075558253
-0.057954716
-0.043108744
-0.030871591
-0.020715832
-0.012780348
-0.0067856867
-0.0023855521
-4.0593409
-5.218128
-5.0302171
-3.5022977
-1.9090539
-1.2325088
-0.86306926
-0.79856082
-0.87672305
-0.94437939
-0.86088489
-0.67820818
-0.44447135
-0.25207223
-0.1260406
-0.028847507
0.046223507
0.080873047
0.02437115
0.013423799
-0.0088404694
-2.6990009
-1.6693834
-1.1001238
-0.76860174
-0.55259137
-0.42698635
-0.35673577
-0.27726911
-0.23468334
-0.24760743
-0.28889647
-0.33600988
-0.37501054
-0.4006755
-0.41196211
-0.41571333
-0.41563086
-0.41306664
-0.40683874
-0.39541635
-0.37804728
-0.35504017
-0.32740971
-0.2964825
-0.26374503
-0.23088124
-0.19948797
-0.17029891
-0.14290141
-0.1156681
-0.092085223
-0.071802485
-0.054709624
-0.040221458
-0.028277175
-0.018325987
-0.01055461
-0.0046294164
-0.00028505675
-3.122365
-4.6578716
-5.8635124
-5.4881275
-3.7305966
-2.1096063
-1.3803307
-1.0252999
-0.99267533
-1.1025223
-1.1699643
-1.0435006
-0.78120852
-0.49299706
-0.26846534
-0.12650069
-0.022655658
0.047387788
0.073376124
0.026188812
0.015146633
-0.0049363913
-1.9246202
-1.2630591
-0.9006748
-0.66486471
-0.52066942
-0.4461875
-0.35394207
-0.25829791
-0.26274465
-0.30609046
-0.35788925
-0.4040849
-0.43109193
-0.44257552
-0.44319519
-0.44118101
-0.43843611
-0.43393966
-0.42526696
-0.41069751
-0.38984038
-0.36334324
-0.3324044
-0.29859322
-0.2638616
-0.23015688
-0.19843606
-0.1682309
-0.13753715
-0.11078404
-0.087685887
-0.068033347
-0.051391324
-0.037269724
-0.025617174
-0.015874458
-0.0082703077
-0.0024166302
0.0018685555
-2.1660169
-3.5122317
-5.192141
-6.3838394
-5.8219444
-3.891645
-2.3202615
-1.5200512
-1.1882721
-1.1952417
-1.3364381
-1.4119408
-1.2138315
-0.88633529
-0.54483276
-0.28875919
-0.1282094
-0.020152155
0.044163574
0.063371347
0.025010907
0.014915334
-0.0019516045
-1.4165566
-1.0193245
-0.78149786
-0.60986958
-0.54214098
-0.44904897
-0.30927222
-0.26869661
-0.31756221
-0.3840421
-0.43513275
-0.4691098
-0.47761421
-0.47468121
-0.46807106
-0.46365963
-0.46009963
-0.45418789
-0.44295925
-0.42502994
-0.40046841
-0.37021969
-0.33585427
-0.29957968
-0.26373713
-0.22953653
-0.19645827
-0.16200252
-0.13183352
-0.10562943
-0.08329848
-0.064193601
-0.048012984
-0.034254654
-0.022897441
-0.013365443
-0.0059297708
-0.00014835165
0.0040713879
-1.5465307
-2.3683689
-3.8181799
-5.5851085
-6.7103168
-5.9925829
-3.975799
-2.4934048
-1.6470768
-1.3444532
-1.3937168
-1.590403
-1.6515478
-1.3948871
-0.99143955
-0.58929504
-0.30984853
-0.13090876
-0.021189286
0.037343004
0.052096658
0.021805498
0.013230678
-0.00040499658
-1.1143027
-0.87570962
-0.69847114
-0.65138691
-0.55854263
-0.39094169
-0.29032887
-0.31561678
-0.39729383
-0.4753232
-0.51034724
-0.52159733
-0.51044694
-0.49755976
-0.48877612
-0.48498854
-0.4816021
-0.47417785
-0.46001791
-0.43832252
-0.40960782
-0.37535918
-0.33799938
-0.30029181
-0.26374099
-0.22775737
-0.18925615
-0.15536358
-0.12580153
-0.10051867
-0.078844055
-0.060300099
-0.04457451
-0.031183022
-0.020123067
-0.010800214
-0.003531598
0.0021699229
0.0063212879
-1.1798375
-1.6402536
-2.4970672
-3.9759194
-5.7706224
-6.7883326
-5.9741047
-3.9710621
-2.5788651
-1.7489494
-1.4762995
-1.600428
-1.836266
-1.9175096
-1.5790941
-1.0928286
-0.62515648
-0.32491588
-0.1347983
-0.025430204
0.027820046
0.040067696
0.016996557
0.010329301
-0.0001456353
-0.9295826
-0.7886571
-0.75844908
-0.67211116
-0.49947096
-0.33554141
-0.3200275
-0.3962782
-0.49697529
-0.56651545
-0.57033062
-0.55478946
-0.52985451
-0.51443009
-0.50821373
-0.50684402
-0.50360069
-0.49407734
-0.47632069
-0.45014853
-0.41684574
-0.37901406
-0.33984373
-0.30116557
-0.26230935
-0.21947529
-0.1815593
-0.14832227
-0.11985323
-0.095345129
-0.074343885
-0.056350926
-0.041083693
-0.02806025
-0.017294422
-0.0081732626
-0.0010850565
0.0045340408
0.0086155676
-0.9526893
-1.2173641
-1.6847036
-2.521034
-3.948829
-5.7059467
-6.6014538
-5.7619505
-3.8633998
-2.5748726
-1.8177629
-1.5849198
-1.7856003
-2.1044125
-2.2042723
-1.7612364
-1.1813803
-0.65666759
-0.33580447
-0.13974783
-0.032362056
0.016474536
0.027821996
0.011383603
0.0062932767
-0.00086859783
-0.8636742
-0.84579368
-0.7866358
-0.61465745
-0.40092179
-0.33939428
-0.39362055
-0.50902358
-0.60254614
-0.63848033
-0.60444745
-0.56845257
-0.54044995
-0.52974956
-0.52911596
-0.53033483
-0.52639376
-0.5137501
-0.49130416
-0.4599602
-0.42243168
-0.38235469
-0.34189597
-0.30028076
-0.25285138
-0.21059608
-0.17336616
-0.14141331
-0.11384659
-0.090135648
-0.069793405
-0.052354796
-0.037546296
-0.024884918
-0.014399933
-0.0055001439
0.00140562
0.0069396056
0.010951848
-0.90663884
-0.95485231
-1.2173363
-1.6694931
-2.4415885
-3.7307816
-5.3945688
-6.1731439
-5.3797988
-3.6507279
-2.5178387
-1.8330113
-1.6564921
-1.979613
-2.4007246
-2.4909677
-1.9310844
-1.2443847
-0.67260078
-0.34421156
-0.14547309
-0.041349401
0.0041166519
0.015726133
0.0055824095
0.0016371036
-0.0010199906
-0.89896472
-0.89543495
-0.73323233
-0.4934339
-0.3741491
-0.39883358
-0.51220173
-0.64238566
-0.6907743
-0.67415999
-0.61090429
-0.56914114
-0.5489081
-0.5478052
-0.55328942
-0.55586516
-0.54978082
-0.53242078
-0.50424182
-0.46797927
-0.42770944
-0.38596749
-0.34181923
-0.28957304
-0.24266483
-0.20110105
-0.16536382
-0.13444973
-0.10781535
-0.084882021
-0.065202024
-0.04831756
-0.033958656
-0.021638184
-0.011460564
-0.0027866027
0.0039351086
0.0093832427
0.013327414
-0.91430477
-0.90048244
-0.93376706
-1.1707105
-1.5837607
-2.2740041
-3.3505126
-4.8644268
-5.555374
-4.8537018
-3.383681
-2.336165
-1.7888767
-1.7274265
-2.1898148
-2.7028665
-2.7569713
-2.0728579
-1.2685869
-0.67144255
-0.34738751
-0.15146777
-0.051608222
-0.0085036537
0.0042386357
0.0001597095
-0.0023062197
-0.0012845653
-0.97151476
-0.83310075
-0.596818
-0.42137188
-0.41523036
-0.51718976
-0.66960796
-0.76905413
-0.73655003
-0.66950957
-0.59806794
-0.56672167
-0.56157031
-0.5716882
-0.58113097
-0.58340683
-0.57273815
-0.54912753
-0.51528935
-0.47572195
-0.43334757
-0.3870342
-0.32982258
-0.27795875
-0.23171239
-0.19186523
-0.15730894
-0.12747406
-0.10174641
-0.079594243
-0.060575299
-0.044232702
-0.030292238
-0.018349524
-0.0084827397
-3.9496846e-05
0.0065002577
0.011861406
0.015738174
-1.0018101
-0.90132741
-0.83942462
-0.88142322
-1.0803448
-1.4328867
-2.0172054
-2.8895785
-4.1775398
-4.6738537
-4.2678342
-2.9359992
-2.1228049
-1.7276308
-1.8018123
-2.4035237
-2.9849126
-2.9743083
-2.168379
-1.2571789
-0.65618725
-0.34399696
-0.15691469
-0.062231337
-0.020683583
-0.0063121795
-0.0055216785
-0.0055753968
-0.0016692679
-0.91223338
-0.68606363
-0.47685689
-0.44003864
-0.52977719
-0.69719336
-0.83873214
-0.84913232
-0.72878458
-0.63607688
-0.58120687
-0.57004637
-0.58324798
-0.6030837
-0.61360282
-0.61138785
-0.5939673
-0.56390674
-0.52612197
-0.48394147
-0.43598024
-0.37375938
-0.31667062
-0.26539282
-0.22109711
-0.18257542
-0.14925497
-0.12046675
-0.095650105
-0.074277164
-0.055903007
-0.040060339
-0.026585156
-0.015026671
-0.005474768
0.0027385302
0.0090980126
0.014368025
0.018178965
-0.95670809
-0.98109059
-0.85142604
-0.75253107
-0.79688365
-0.95587455
-1.2401338
-1.7022983
-2.4076841
-3.4464556
-3.9320135
-3.5656505
-2.5189918
-1.9072478
-1.6717105
-1.8741707
-2.5952965
-3.2171414
-3.1086975
-2.1971337
-1.2116521
-0.6258762
-0.33498587
-0.16109404
-0.072250881
-0.031827527
-0.015680728
-0.010879409
-0.0081839826
-0.0021167809
-0.75886736
-0.54278458
-0.4690064
-0.54586693
-0.73531505
-0.91937237
-0.97251107
-0.85316023
-0.67757052
-0.5977815
-0.57120016
-0.58770192
-0.61631349
-0.63958292
-0.64749298
-0.63804681
-0.61330774
-0.57856483
-0.53757608
-0.48865989
-0.42150685
-0.3589789
-0.30234055
-0.25324967
-0.21042069
-0.17329894
-0.14117405