/*--------------------------------*- C++ -*----------------------------------*\
| =========                 |                                                 |
| \\      /  F ield         | OpenFOAM: The Open Source CFD Toolbox           |
|  \\    /   O peration     | Version:  v2012                                 |
|   \\  /    A nd           | Website:  www.openfoam.com                      |
|    \\/     M anipulation  |                                                 |
\*---------------------------------------------------------------------------*/
FoamFile
{
    version     2.0;
    format      ascii;
    class       surfaceScalarField;
    location    "35.9040569518127981";
    object      phi;
}
// * * * * * * * * * * * * * * * * * * * * * * * * * * * * * * * * * * * * * //

dimensions      [0 3 -1 0 0 0 0];
oriented        oriented;


internalField   nonuniform List<scalar> 
18180
(
-0.00076249271
-3.4443839
-0.00081615873
-3.2168443
0.0024215213
-3.5051673
0.00025743762
-3.0036989
0.0052323086
-3.2733259
0.0032678437
-3.5642909
0.0026604098
-2.803778
0.0086350569
-3.0562073
0.0068538682
-3.3287185
0.0041860402
-3.6212297
0.0065334805
-2.6174746
0.012872383
-2.8528783
0.010809206
-3.1078248
0.0085456277
-3.3823083
0.0047079049
-3.6754458
0.011858125
-2.44356
0.017953068
-2.6639729
0.015382929
-2.901544
0.013091076
-3.1581896
0.0094693397
-3.4331831
0.0050104105
-3.726671
0.018519617
-2.2814495
0.023876999
-2.4881147
0.020567307
-2.7101155
0.018032717
-2.9489479
0.014306957
-3.2058821
0.0099967803
-3.4813459
0.0051255368
-3.7751683
0.026324437
-2.1302781
0.030544499
-2.324268
0.026373508
-2.532122
0.023356569
-2.7549045
0.019382721
-2.9937357
0.014978673
-3.250946
0.010184299
-3.5269361
0.0051107046
-3.8210323
0.035018105
-1.9893768
0.037854638
-2.1714972
0.032745041
-2.3665219
0.0290655
-2.5748902
0.024674986
-2.7971868
0.020087623
-3.0361349
0.015189839
-3.2940136
0.010132716
-3.570322
0.0050005918
-3.8644511
0.044341941
-1.8580488
0.045701796
-2.0290512
0.03963058
-2.2122087
0.035105958
-2.4076878
0.030166212
-2.6152677
0.025292448
-2.8373636
0.020259665
-3.0770149
0.015082083
-3.3351934
0.0099046687
-3.6115121
0.0048197432
-3.905543
0.054055545
-1.7356259
0.05399643
-1.8962252
0.046978228
-2.0683221
0.041424067
-2.2520034
0.035788211
-2.4465136
0.03056037
-2.6533913
0.025358016
-2.8760811
0.020073193
-3.1164264
0.014739112
-3.3746904
0.0095448756
-3.6506798
0.0045834775
-3.9440974
0.063894784
-1.6214511
0.062674695
-1.7723535
0.054750806
-1.9341075
0.04797014
-2.106846
0.041466342
-2.289476
0.035804239
-2.4828413
0.030446977
-2.6901763
0.025074756
-2.9137903
0.019623289
-3.1544642
0.014216732
-3.4123776
0.0090809653
-3.6875699
0.0043015712
-3.9801267
0.073585354
-1.5148865
0.07168569
-1.6567811
0.06293615
-1.8089001
0.054718848
-1.9713983
0.047123812
-2.1430567
0.040921253
-2.3242054
0.03542877
-2.5176437
0.030057252
-2.7258832
0.024539314
-2.9501602
0.018964854
-3.1908826
0.013546961
-3.448035
0.0085309583
-3.7220172
0.0039820071
-4.0134494
0.08286907
-1.4153307
0.081005434
-1.5488892
0.07156417
-1.6920821
0.061679121
-1.8450012
0.052693722
-2.0063437
0.045792274
-2.1761678
0.04018428
-2.3569345
0.034929482
-2.5511559
0.029478758
-2.7603499
0.023790636
-2.98508
0.018121827
-3.2254168
0.012750321
-3.4813185
0.007909716
-3.7539332
0.0036344395
-4.0442254
0.091514687
-1.3222235
0.090639338
-1.4481081
0.080704523
-1.5830844
0.068896273
-1.72707
0.05812665
-1.8786589
0.050292155
-2.0378
0.044567174
-2.2068716
0.039577913
-2.3882611
0.034373453
-2.583502
0.028713737
-2.7934577
0.022827801
-3.0182629
0.017105981
-3.2577292
0.011844966
-3.5122072
0.0072336377
-3.7833262
0.0032710281
-4.0723003
0.099321227
-1.2350503
0.10061464
-1.353895
0.090463341
-1.4813771
0.076454744
-1.6170816
0.063394399
-1.7594243
0.05429333
-1.9083681
0.048413465
-2.0664396
0.043856313
-2.2359954
0.039137909
-2.4183587
0.03370089
-2.6144958
0.027714256
-2.8249566
0.021639911
-3.0493647
0.015930932
-3.2876978
0.010852099
-3.5405759
0.0065222953
-3.8101804
0.0029046482
-4.0978948
0.10613356
-1.1533554
0.11098547
-1.2657562
0.1009796
-1.386459
0.084479277
-1.514548
0.068497192
-1.6481428
0.05766842
-1.787278
0.051543506
-1.9348542
0.047594462
-2.0933325
0.043655268
-2.2638609
0.038710524
-2.4471865
0.032786986
-2.6441334
0.026426348
-2.8547102
0.020225873
-3.0783371
0.014619478
-3.315236
0.0097973539
-3.5664727
0.0057966824
-3.8345522
0.0025459943
-4.121029
0.11180004
-1.0767046
0.12181098
-1.183236
0.11241468
-1.2978637
0.093137732
-1.4190127
0.073456958
-1.5443527
0.060301885
-1.6740309
0.053772345
-1.8114846
0.05060004
-1.9594698
0.047786133
-2.1190534
0.043674496
-2.2906769
0.03805332
-2.4750192
0.031507031
-2.6724237
0.024819924
-2.882567
0.018604983
-3.10499
0.013204956
-3.3403153
0.0087092685
-3.5898872
0.0050761196
-3.8565982
0.002201738
-4.1419655
0.11611755
-1.0047611
0.13314708
-1.1058901
0.12493856
-1.2151471
0.10262214
-1.3300372
0.078327485
-1.4476264
0.0620951
-1.5681819
0.054910547
-1.6958125
0.052665272
-1.8337246
0.051369899
-1.9830658
0.048509779
-2.1439962
0.043502837
-2.3167775
0.036934929
-2.5018476
0.029782152
-2.6991444
0.022903764
-2.9083176
0.016818099
-3.1293217
0.011728357
-3.3629928
0.0076166469
-3.611042
0.0043756215
-3.8764442
0.001874496
-4.1607283
0.11892905
-0.93714716
0.14503886
-1.0333636
0.13875867
-1.1379002
0.11315303
-1.247209
0.083180761
-1.3575449
0.062944697
-1.4693061
0.054711335
-1.5873261
0.053549602
-1.7155293
0.054223801
-1.8551588
0.053116016
-2.0062321
0.049118636
-2.1686048
0.042754556
-2.3424074
0.035199768
-2.527559
0.027599558
-2.7239983
0.020725834
-2.9319137
0.014922042
-3.1513279
0.010233569
-3.3834077
0.0065457867
-3.6300044
0.0037056253
-3.894234
0.0015651976
-4.1775501
0.1200527
-0.87356702
0.1575913
-0.96533688
0.15405243
-1.0657363
0.12496382
-1.1701342
0.088106036
-1.2737106
0.062749404
-1.3769898
0.052958839
-1.485633
0.053055774
-1.6044024
0.056153075
-1.7347197
0.057377862
-1.8766028
0.054872708
-2.0295661
0.049013289
-2.1932084
0.041160636
-2.3671829
0.032797887
-2.5515601
0.025012805
-2.7468316
0.018364199
-2.9532918
0.012981682
-3.1711431
0.0087624358
-3.4016758
0.0055186381
-3.6469488
0.0030734287
-3.9100872
0.0012754693
-4.1925163
0.11964043
-0.81380998
0.17081665
-0.90141925
0.17096223
-0.99829198
0.1382877
-1.0984221
0.093206505
-1.1957456
0.061418651
-1.2908523
0.049497938
-1.3903844
0.050953708
-1.4999107
0.056978492
-1.6212697
0.061178318
-1.7544403
0.060728943
-1.8987529
0.05575603
-2.0532909
0.047765213
-2.2172283
0.038612672
-2.3904434
0.029785456
-2.5736597
0.022127671
-2.767598
0.015913546
-2.9725725
0.011061079
-3.1888362
0.0073508229
-3.4179161
0.0045519104
-3.6619814
0.0024841755
-3.9241997
0.0010067132
-4.2058373
0.11785198
-0.7576312
0.18480076
-0.84146952
0.18968144
-0.93521862
0.15335251
-1.0316972
0.098595314
-1.123268
0.058871998
-1.2105346
0.044147479
-1.3011845
0.04698847
-1.4016812
0.056504626
-1.514347
0.064365262
-1.6392104
0.06664098
-1.7754829
0.063024809
-1.9218183
0.055119695
-2.0768418
0.045177719
-2.239977
0.035162703
-2.4120009
0.026303163
-2.5939288
0.019080284
-2.7863704
0.013470416
-2.9897902
0.0092164435
-3.2045528
0.0060261799
-3.4323003
0.0036565594
-3.6753311
0.0019404466
-3.9366925
0.00075745758
-4.2175774
0.11472629
-0.70487059
0.19963905
-0.78524848
0.21024091
-0.8762058
0.17037637
-0.96959662
0.1043949
-1.0559176
0.055038257
-1.1356775
0.036729761
-1.2176841
0.040953796
-1.3093626
0.054519132
-1.4135516
0.066804828
-1.5304581
0.07255167
-1.6591799
0.070853721
-1.7980442
0.063334947
-1.9451715
0.05264042
-2.0993783
0.041287524
-2.261227
0.030994198
-2.4318833
0.022544295
-2.6122346
0.016014154
-2.8031515
0.011120952
-3.0050706
0.0074911527
-3.2184021
0.0048063013
-3.4449903
0.0028379538
-3.6871049
0.0014433116
-3.9477179
0.00052686942
-4.2279062
0.11045021
-0.6553667
0.21532225
-0.73248943
0.2326477
-0.82098344
0.18955247
-0.91178399
0.11072737
-0.99333478
0.049843736
-1.0659234
0.027093216
-1.1395549
0.032660721
-1.2226213
0.050843244
-1.3185586
0.068381584
-1.4277933
0.078398466
-1.5493742
0.079269038
-1.6813538
0.072520543
-1.8214366
0.061162045
-1.9677873
0.048322787
-2.1204708
0.036328363
-2.2808185
0.026377152
-2.449862
0.018719244
-2.6285928
0.013059584
-2.8179819
0.0089322393
-3.0184793
0.0059134345
-3.2305644
0.0036997819
-3.4561403
0.002096806
-3.6974597
0.00099424481
-3.9573785
0.00031433391
-4.236904
0.10526253
-0.60874917
0.23176085
-0.68294812
0.25682418
-0.76919307
0.21092615
-0.85784163
0.11771198
-0.93518334
0.043218708
-1.0009217
0.015110553
-1.0664689
0.021947649
-1.1411532
0.04532676
-1.2290579
0.068971536
-1.3308791
0.08411595
-1.4456669
0.088282919
-1.5712447
0.082778929
-1.7049836
0.0709108
-1.8444168
0.056452738
-1.9889944
0.042454846
-2.139972
0.030669312
-2.2985923
0.021614853
-2.465827
0.015022629
-2.6429545
0.010319141
-2.8309572
0.0069479498
-3.0301846
0.0044967062
-3.2411734
0.002707538
-3.4658671
0.0014304364
-3.7065046
0.0005913665
-3.9658362
0.00011629943
-4.2447114
0.099552988
-0.56462285
0.24878918
-0.63617645
0.28237259
-0.7202657
0.23402706
-0.8068961
0.12534135
-0.88092409
0.035095123
-0.94033958
0.00069501908
-0.99812111
0.008689052
-1.0646686
0.037845087
-1.1447711
0.068471978
-1.239423
0.08963568
-1.3477146
0.09789087
-1.4672922
0.094197783
-1.5952658
0.082055172
-1.7285931
0.065878026
-1.866055
0.049548132
-2.0085561
0.035529442
-2.157543
0.024740067
-2.3141973
0.016994082
-2.4797152
0.011609469
-2.6554224
0.0078598561
-2.842179
0.005188649
-3.040338
0.0032419249
-3.2503892
0.0018249306
-3.4743473
0.00083407873
-3.7144019
0.0002279558
-3.9731825
-5.7667378e-05
-4.2514075
0.09372814
-0.52281824
0.26654647
-0.59208211
0.30886872
-0.67372368
0.25813813
-0.75813186
0.13337061
-0.82945114
0.025386182
-0.88361847
-0.016220025
-0.93420024
-0.0071983525
-0.99290342
0.028311005
-1.0654421
0.066804751
-1.1531692
0.094889237
-1.2552227
0.10807191
-1.3691286
0.10684357
-1.4918268
0.094754786
-1.6197296
0.076810643
-1.7509405
0.057806626
-1.8858829
0.041090166
-2.0260015
0.028144168
-2.1727985
0.018956974
-2.327577
0.012746471
-2.491597
0.0085818903
-2.6660955
0.0057132371
-2.8518706
0.0036552911
-3.0491109
0.0021409094
-3.2583667
0.0010435929
-3.4817008
0.00030256346
-3.7212467
-9.5248909e-05
-3.9795314
-0.00020235825
-4.2571188
0.087969655
-0.48335139
0.28494873
-0.55027154
0.33633146
-0.62991712
0.28306465
-0.71159386
0.14159055
-0.77998813
0.01419587
-0.82984241
-0.035651508
-0.87419652
-0.025760123
-0.92558316
0.016673325
-0.99084012
0.063921938
-1.0718884
0.099814674
-1.1679353
0.11878629
-1.276435
0.12075404
-1.3942644
0.1091511
-1.5173403
0.089465877
-1.6430743
0.067450167
-1.7713487
0.047508649
-1.903391
0.031892136
-2.0409116
0.020893146
-2.1855914
0.013661582
-2.3387938
0.0090260992
-2.5016364
0.0059879643
-2.6752274
0.003880365
-2.8601767
0.0023346173
-3.05667
0.0011798971
-3.2652538
0.00035306674
-3.4880654
-0.00017254087
-3.7271352
-0.00039755404
-3.9849227
-0.00034180552
-4.2619058
0.082585723
-0.44640576
0.30384306
-0.51069211
0.36398436
-0.58765282
0.30858837
-0.66760795
0.15013908
-0.73292864
0.0019698221
-0.77857533
-0.05747746
-0.81732656
-0.046882123
-0.86235271
0.0029275523
-0.92073263
0.059804878
-0.99537448
0.10435875
-1.0856266
0.12997638
-1.1889331
0.13593427
-1.3022216
0.12535695
-1.4209877
0.10405275
-1.5419405
0.078715889
-1.6643724
0.054968272
-1.7891532
0.036066902
-1.9180018
0.022787942
-2.0530222
0.014273824
-2.1959939
0.0090843468
-2.3480503
0.0059061601
-2.5100911
0.0038292352
-2.6829958
0.0023402703
-2.8673148
0.0012046644
-3.0631677
0.00034276557
-3.2711816
-0.00025518647
-3.493509
-0.00059047852
-3.732172
-0.00066148288
-3.9894867
-0.00046363907
-4.2658669
0.071139791
-0.48221859
0.32320727
-0.47365193
0.39178538
-0.54761033
0.33424087
-0.62472843
0.15920072
-0.68864448
-0.010640426
-0.73041322
-0.081241216
-0.76348159
-0.07020311
-0.80266831
-0.012799933
-0.85489057
0.054474885
-0.92342982
0.10848011
-1.0080946
0.14156789
-1.1063752
0.15235191
-1.2153754
0.14344893
-1.3302704
0.12076357
-1.4470736
0.091851544
-1.5644331
0.063678571
-1.6827493
0.040773728
-1.8036066
0.024632441
-1.9293895
0.014492207
-2.0624695
0.0086268105
-2.2043307
0.0053359843
-2.3557112
0.0033893986
-2.517223
0.0020732652
-2.6896265
0.0010585164
-2.8734164
0.00023953136
-3.0687557
-0.00038765951
-3.2762406
-0.0007969166
-3.4981569
-0.00096470573
-3.7364504
-0.00089299386
-3.993285
-0.00056652355
-4.2690722
0.061053526
-0.47516394
0.33899946
-0.50659934
0.41962338
-0.51003174
0.35951452
-0.5835923
0.1699828
-0.64671398
-0.022885159
-0.68582332
-0.10631892
-0.71341862
-0.095314352
-0.74646347
-0.030105959
-0.79304547
0.048012008
-0.85588169
0.11215473
-0.93515281
0.15347392
-1.0285382
0.16993718
-1.1334335
0.16345834
-1.2448157
0.13976412
-1.3580395
0.10710763
-1.4710568
0.073873215
-1.5836845
0.046142127
-1.6972503
0.026427613
-1.8143213
0.014217094
-1.9377858
0.0075025683
-2.0696997
0.0041185953
-2.2109997
0.0024218853
-2.3620545
0.0014267756
-2.5232548
0.000666995
-2.6952829
-5.3371627e-06
-2.8786792
-0.00058709177
-3.073527
-0.0010258461
-3.2805529
-0.0012744617
-3.5020803
-0.0012976011
-3.7400411
-0.0010966344
-3.9963987
-0.00065758229
-4.2715958
0.052030821
-0.4678517
0.35792904
-0.50264607
0.44420486
-0.54045543
0.38395577
-0.54450033
0.18036927
-0.60445015
-0.03393984
-0.64445812
-0.13249968
-0.66718995
-0.12216048
-0.69413865
-0.048703672
-0.73501318
0.040601655
-0.79256383
0.11536907
-0.86662885
0.16559665
-0.95521801
0.18858324
-1.0561313
0.18536825
-1.1642784
0.161182
-1.2744246
0.12472883
-1.3837974
0.085806619
-1.4914885
0.052328739
-1.5984537
0.028187889
-1.7073648
0.013342998
-1.8215511
0.0055400167
-1.9436955
0.0020674591
-2.0751688
0.00076012628
-2.2163672
0.00026928953
-2.3673739
-6.3048936e-05
-2.5284043
-0.00045201198
-2.7001649
-0.00089152129
-2.8831815
-0.001299499
-3.077602
-0.001587347
-3.2841941
-0.0016973457
-3.5053867
-0.0015929682
-3.743006
-0.0012765724
-3.9988759
-0.00073824021
-4.2734951
0.04371433
-0.46067545
0.37922759
-0.49766492
0.47152395
-0.53927127
0.40711958
-0.57441681
0.18897356
-0.56287475
-0.045314786
-0.60129433
-0.16031919
-0.62369527
-0.15082631
-0.64560255
-0.068713249
-0.6807848
0.032436196
-0.73329452
0.11812204
-0.80236246
0.17783091
-0.88622934
0.2081482
-0.98322278
0.20910765
-1.0883401
0.1850999
-1.1958367
0.14494188
-1.3022142
0.099749572
-1.4057249
0.059516903
-1.5067591
0.029946105
-1.6080496
0.011760533
-1.7133663
0.0025504112
-1.8259981
-0.001031782
-1.947765
-0.0017918038
-2.0793431
-0.0015544622
-2.220803
-0.0012423712
-2.3719218
-0.0011720703
-2.532864
-0.0013442042
-2.7043768
-0.0016376787
-2.8870577
-0.0019187339
-3.0810475
-0.0020830899
-3.2872562
-0.00207231
-3.508115
-0.0018544225
-3.7454146
-0.0014353071
-4.0007993
-0.00080899127
-4.2748314
0.035809542
-0.45396732
0.401938
-0.49186578
0.50101234
-0.53648276
0.43260519
-0.57561687
0.19807275
-0.5939233
-0.057749548
-0.55811468
-0.18779699
-0.58042169
-0.18101299
-0.60013226
-0.090140779
-0.63037233
0.023546263
-0.67789764
0.12044372
-0.74219743
0.19005985
-0.82139969
0.22846314
-0.91449499
0.23455417
-1.0167042
0.21154372
-1.1219002
0.16794664
-1.2258864
0.11597997
-1.3259558
0.067916842
-1.4217471
0.031753218
-1.5159333
0.0093736849
-1.6127846
-0.0016685303
-1.7161472
-0.0054226726
-1.8283885
-0.005459547
-1.9505024
-0.0042262662
-2.0826803
-0.0030024607
-2.2246168
-0.0022527209
-2.3759182
-0.0019952621
-2.5367664
-0.0020676354
-2.7080277
-0.0022756534
-2.8903536
-0.0024622637
-3.0839603
-0.0025224576
-3.2897896
-0.0024047125
-3.5103648
-0.0020849996
-3.7473438
-0.0015742993
-4.0022156
-0.00087033288
-4.2756662
0.028122007
-0.44800491
0.42502403
-0.48550127
0.53188071
-0.53207896
0.45977173
-0.57456141
0.20762665
-0.59563299
-0.069390744
-0.59040851
-0.21401492
-0.53808466
-0.21031944
-0.55731112
-0.11231754
-0.58372468
0.013878708
-0.62629677
0.12236902
-0.68595889
0.202167
-0.76057385
0.24933265
-0.84975169
0.26153532
-0.94910942
0.24048466
-1.05227
0.19390083
-1.1543953
0.13477585
-1.2517575
0.077761564
-1.3430008
0.033681281
-1.4305987
0.0060765991
-1.5193166
-0.0073597448
-1.6136536
-0.011375679
-1.7165763
-0.010497207
-1.8294345
-0.0079530635
-1.9525176
-0.0054932659
-2.0855808
-0.0037907128
-2.2280584
-0.002901529
-2.3794888
-0.002616504
-2.5401954
-0.0026691703
-2.7111818
-0.0028310337
-2.8931754
-0.0029437508
-3.0863729
-0.0029128597
-3.2918753
-0.0026987968
-3.5121998
-0.0022872306
-3.7488578
-0.0016948997
-4.0031866
-0.00092289744
-4.2760468
0.020546986
-0.44301698
0.44743924
-0.47883932
0.56312893
-0.52610167
0.4877352
-0.57099264
0.21707969
-0.59451631
-0.081332763
-0.59189137
-0.24084862
-0.57010748
-0.23755724
-0.5166382
-0.13444027
-0.54055858
0.0034098914
-0.5784682
0.12383794
-0.63347791
0.21405296
-0.70360038
0.27054621
-0.78882582
0.28983101
-0.88530942
0.27182762
-0.9866203
0.22291783
-1.0873512
0.15640144
-1.1826922
0.089301967
-1.2701089
0.035826656
-1.3516474
0.0017801406
-1.4325638
-0.014733467
-1.5181027
-0.019170664
-1.6118649
-0.017186052
-1.7156454
-0.012965622
-1.8299346
-0.0088814304
-1.9543636
-0.0058937858
-2.0883438
-0.004123431
-2.2312578
-0.0033125508
-2.3827226
-0.0031054809
-2.543231
-0.0031861363
-2.7139203
-0.0033232998
-2.8955374
-0.0033734614
-3.0883649
-0.0032599627
-3.2935852
-0.0029579346
-3.5137007
-0.0024632529
-3.7499957
-0.0017984022
-4.0037471
-0.00096726293
-4.2760249
0.013035125
-0.43917671
0.46817707
-0.47214929
0.59361735
-0.51867982
0.51549915
-0.56484141
0.22586829
-0.59031318
-0.093974471
-0.59013664
-0.26677694
-0.57260256
-0.26939201
-0.54432093
-0.15567606
-0.50039045
-0.0077379385
-0.53427401
0.12469093
-0.5846323
0.22562423
-0.6503184
0.29189001
-0.73156218
0.31919659
-0.82510914
0.30542412
-0.92464885
0.25505208
-1.0243678
0.18110082
-1.1183469
0.1028006
-1.2026432
0.0383026
-1.2786846
-0.0035889019
-1.3521374
-0.024024145
-1.4290603
-0.029123518
-1.5138082
-0.025828925
-1.6086545
-0.019516029
-1.7143848
-0.013348965
-1.8305693
-0.0086770031
-1.9563339
-0.0057236876
-2.091111
-0.0041808524
-2.2343127
-0.0035871078
-2.3856846
-0.0035159003
-2.5459242
-0.003646035
-2.7162704
-0.0037664326
-2.8975122
-0.0037587709
-3.0899764
-0.0035680229
-3.2949832
-0.0031848468
-3.514894
-0.0026149329
-3.7508053
-0.0018859869
-4.0039526
-0.0010039889
-4.2756367
0.0055462993
-0.4365769
0.48630132
-0.46567479
0.62216815
-0.51004521
0.54199253
-0.55616266
0.23335888
-0.58288598
-0.1074234
-0.58518248
-0.29209503
-0.57155404
-0.29958529
-0.54853996
-0.18688265
-0.51825644
-0.018975868
-0.49369443
0.12474239
-0.5392596
0.23679656
-0.60062427
0.31320199
-0.67785144
0.34941323
-0.76837418
0.34111685
-0.86614946
0.29033683
-0.96512411
0.20911584
-1.0583329
0.11853888
-1.1402056
0.041236589
-1.211294
-0.010102201
-1.2776433
-0.035457407
-1.3461396
-0.041550097
-1.4219762
-0.036751218
-1.5080036
-0.027874783
-1.6052936
-0.019089574
-1.7135769
-0.012260185
-1.8316708
-0.0077626852
-1.9586095
-0.0052413195
-2.0939629
-0.004108041
-2.2372607
-0.0038012978
-2.3884146
-0.0038860005
-2.5483075
-0.0040676105
-2.7182668
-0.0041698077
-2.8991132
-0.0041047932
-3.0912738
-0.0038402386
-3.2961064
-0.0033817979
-3.5158365
-0.0027439382
-3.7513207
-0.0019587625
-4.003833
-0.0010336302
-4.2749376
-0.43530526
-0.0018754346
0.50100478
-0.45963748
0.64765371
-0.50049266
0.56614875
-0.54519286
0.23898521
-0.57235791
-0.12173697
-0.57694052
-0.31692001
-0.5671803
-0.32803937
-0.54930196
-0.21694445
-0.52366372
-0.043905448
-0.49799458
0.12414372
-0.49767185
0.24736004
-0.55424064
0.33437336
-0.6276454
0.38030788
-0.71503874
0.37878511
-0.8110254
0.32880772
-0.90941752
0.24072027
-1.0023561
0.13690273
-1.0825087
0.044825991
-1.1491442
-0.017808343
-1.2086858
-0.049267079
-1.2689312
-0.056777879
-1.3359624
-0.050290121
-1.4132604
-0.038326452
-1.5022372
-0.026305181
-1.6028023
-0.016763499
-1.7137068
-0.010295853
-1.8334374
-0.0065039242
-1.9612509
-0.0046510282
-2.0969325
-0.0040111614
-2.2401198
-0.0040074933
-2.3909163
-0.0042404606
-2.5503826
-0.0044624425
-2.719933
-0.0045392307
-2.900405
-0.0044149466
-3.09228
-0.0040790693
-3.2969986
-0.0035507428
-3.5165444
-0.0028518204
-3.7515805
-0.002017802
-4.0034245
-0.0010567314
-4.2739557
-0.45432361
0.51167806
-0.43543875
-0.0091232013
0.66908226
-0.49037935
0.58695086
-0.53227708
0.24225523
-0.55903978
-0.13682992
-0.56567643
-0.3411003
-0.5596601
-0.35465813
-0.54682326
-0.24527155
-0.52618316
-0.068590802
-0.50370322
0.10793049
-0.4864331
0.25731062
-0.511689
0.35520397
-0.58057314
0.41165692
-0.66499384
0.41815115
-0.75905233
0.37021066
-0.85686153
0.27595106
-0.94997409
0.15827693
-1.0292542
0.049496021
-1.0921742
-0.026640126
-1.1450493
-0.065664014
-1.197062
-0.07511952
-1.2553645
-0.066789295
-1.324014
-0.051164064
-1.4048163
-0.035200723
-1.4978089
-0.022303375
-1.6017699
-0.013368626
-1.7149205
-0.0079658312
-1.8358952
-0.0051849918
-1.9642687
-0.0040997185
-2.0999904
-0.0039605378
-2.2428641
-0.0042375422
-2.3931797
-0.0045930223
-2.5521764
-0.0048366124
-2.7213035
-0.0048779014
-2.901399
-0.0046915129
-3.0930471
-0.0042864944
-3.2976899
-0.0036934522
-3.5170597
-0.002940045
-3.7515802
-0.002064144
-4.0027512
-0.0010738275
-4.2727351
-0.48012281
0.68559384
-0.4496745
0.51757563
-0.43725562
-0.016253634
0.60342506
-0.5178161
0.24274893
-0.54334863
-0.15251944
-0.55179837
-0.36437148
-0.54937194
-0.37935573
-0.54127318
-0.27155128
-0.52576457
-0.092484177
-0.50706378
0.09159675
-0.49208564
0.25071899
-0.48395107
0.37568734
-0.53735604
0.44308714
-0.61770569
0.45865881
-0.70983506
0.41375891
-0.8066961
0.31356599
-0.89951787
0.182013
-0.9789642
0.05528959
-1.0397072
-0.036308311
-1.0868963
-0.084723521
-1.1304501
-0.096881937
-1.1798125
-0.086583383
-1.2398611
-0.066680395
-1.3126091
-0.045979586
-1.3982243
-0.028987535
-1.4954186
-0.017012581
-1.6023337
-0.0096070925
-1.7172101
-0.0056597172
-1.8390057
-0.004004252
-1.9675825
-0.0036800113
-2.1030844
-0.0039967142
-2.2454617
-0.0045068401
-2.395208
-0.0049492217
-2.5536943
-0.0051923206
-2.7223971
-0.0051872964
-2.9021425
-0.0049360443
-3.0936087
-0.0044642138
-3.2982145
-0.0038115834
-3.5173583
-0.0030100395
-3.7513504
-0.0020988044
-4.0018498
-0.0010854401
-4.2712973
-0.50226061
0.61463079
-0.46959194
0.69625585
-0.44674087
0.51872416
-0.44087185
-0.023924617
0.24011546
-0.52575497
-0.16855469
-0.53579107
-0.38639852
-0.53679352
-0.40206496
-0.53301215
-0.29569615
-0.52235723
-0.11521654
-0.50785002
0.075312323
-0.49555262
0.24451603
-0.49007584
0.3793824
-0.49292024
0.47439342
-0.57404519
0.49962818
-0.66271275
0.45835787
-0.75822222
0.35209695
-0.84999944
0.20538545
-0.9278871
0.060113623
-0.9881289
-0.047319932
-1.0327545
-0.10636953
-1.0694099
-0.12234865
-1.1092489
-0.1099998
-1.160439
-0.085156036
-1.2252256
-0.0588357
-1.3036726
-0.036910452
-1.3943701
-0.021240891
-1.4952724
-0.011386985
-1.6044485
-0.0060046448
-1.7204598
-0.0036415593
-1.8426452
-0.0030819194
-1.9711018
-0.0034404385
-2.1061335
-0.0041350492
-2.2478856
-0.0048188839
-2.3969935
-0.0053089415
-2.554954
-0.0055292403
-2.7232301
-0.0054678512
-2.9026671
-0.0051497059
-3.0940089
-0.0046137868
-3.2985678
-0.0039067481
-3.5174738
-0.0030631808
-3.7508945
-0.0021227726
-4.0007442
-0.0010920771
-4.269682
-0.50681108
0.23410495
-0.48573379
0.6198802
-0.46068463
0.70098237
-0.44502786
0.51453899
-0.44647289
-0.032154908
-0.18458982
-0.5182197
-0.40678052
-0.52247511
-0.42273735
-0.52250079
-0.31783447
-0.51610987
-0.13659859
-0.50583159
0.059263688
-0.49663181
0.23855285
-0.49386718
0.3841442
-0.50025515
0.48993271
-0.5139074
0.54057099
-0.6187482
0.50340348
-0.71127244
0.3906586
-0.80130209
0.22708112
-0.87644594
0.061493883
-0.93330569
-0.062752555
-0.97644036
-0.13137853
-1.0116163
-0.15177776
-1.0440143
-0.13743388
-1.0856253
-0.10685804
-1.1423151
-0.073944654
-1.2137879
-0.046146901
-1.2983001
-0.026044723
-1.3934813
-0.013241348
-1.4972004
-0.0061255286
-1.6078837
-0.0029065296
-1.7244956
-0.0020630384
-1.8466706
-0.0024741552
-1.9747043
-0.0033949492
-2.1090909
-0.0043746699
-2.2501058
-0.0051691578
-2.3985326
-0.0056685323
-2.5559488
-0.0058456354
-2.7238347
-0.0057194893
-2.9030184
-0.0053335017
-3.0942592
-0.0047367268
-3.2987751
-0.0039805094
-3.5173668
-0.0031008332
-3.750243
-0.0021370148
-3.999452
-0.0010942305
-4.2679052
-0.4997281
-0.20018788
-0.48734987
0.22517388
-0.46995302
0.61830461
-0.45300464
0.69978716
-0.44488378
0.50459726
-0.45409113
-0.040225592
-0.42507997
-0.50701804
-0.44135018
-0.51026497
-0.33827402
-0.50730795
-0.15671761
-0.5008812
0.043701945
-0.4951547
0.23271953
-0.49515922
0.38983845
-0.50512086
0.5071486
-0.52308695
0.57002291
-0.54713563
0.54868863
-0.66731494
0.42989628
-0.75478668
0.24839404
-0.82712494
0.058932482
-0.87763703
-0.084374709
-0.91513175
-0.16191256
-0.94950296
-0.1854351
-0.98177516
-0.16936236
-1.0156794
-0.13214682
-1.0636637
-0.091455873
-1.1282387
-0.056745125
-1.2068574
-0.031388451
-1.2966904
-0.015080595
-1.3952688
-0.0059047336
-1.5008868
-0.0016714814
-1.6123942
-0.00049975999
-1.7291206
-0.00098612906
-1.8509324
-0.0021892337
-1.9783026
-0.0035340792
-2.1118878
-0.0047034947
-2.2521003
-0.0055484128
-2.3998111
-0.0060225152
-2.556705
-0.0061391458
-2.7242383
-0.0059419928
-2.9032177
-0.0054884267
-3.0943889
-0.0048345352
-3.2987947
-0.0040344459
-3.5170705
-0.0031243207
-3.7493794
-0.0021424706
-3.9979939
-0.0010923642
-4.2659978
-0.49105368
-0.44087125
-0.48187625
-0.21418754
-0.4681888
0.21287846
-0.45504078
0.60955492
-0.44663382
0.69241938
-0.4468802
0.48901483
-0.46300042
-0.048096895
-0.45794528
-0.49684349
-0.35747795
-0.49632443
-0.17595769
-0.49298643
0.028781423
-0.49089344
0.22707876
-0.49395494
0.39627763
-0.50728544
0.52592896
-0.52965268
0.60220588
-0.55919389
0.59235246
-0.59410037
0.47049181
-0.71195624
0.27189866
-0.78256094
0.057544545
-0.82922105
-0.10859915
-0.856585
-0.19861722
-0.88176486
-0.22325994
-0.91528933
-0.20540502
-0.94912477
-0.16153172
-0.98938138
-0.11156601
-1.0467614
-0.068719343
-1.1197512
-0.037204631
-1.2046127
-0.016787654
-1.2984472
-0.0051996484
-1.3993098
0.00021209666
-1.5060051
0.0017500375
-1.6177408
0.0011521789
-1.734128
-0.00040708663
-1.8552719
-0.0022033258
-1.9817902
-0.0038335577
-2.1144853
-0.0051033298
-2.2538404
-0.0059451699
-2.4008415
-0.0063647705
-2.5572319
-0.0064073802
-2.7244681
-0.0061352311
-2.9032879
-0.0056155449
-3.0943753
-0.0049087681
-3.2986515
-0.0040701085
-3.5165491
-0.0031349617
-3.7483371
-0.0021400333
-3.9963948
-0.001086917
-4.2639732
-0.48275438
-0.4726784
-0.47650655
-0.45336514
-0.46409677
-0.22681182
-0.45005768
0.19738421
-0.44178937
0.5939929
-0.44182062
0.67830562
-0.45051151
0.46812856
-0.47272605
-0.055801609
-0.37602798
-0.48358069
-0.19497762
-0.48224661
0.014462771
-0.48363781
0.22181916
-0.49014948
0.40334609
-0.50682018
0.54615678
-0.53337894
0.63692702
-0.56842918
0.64044658
-0.61074826
0.52463249
-0.65227605
0.29833433
-0.74240779
0.059915278
-0.7881655
-0.12993547
-0.81080324
-0.23653458
-0.82176675
-0.26479731
-0.84364478
-0.24360277
-0.88029609
-0.19455785
-0.91895667
-0.13463637
-0.96930038
-0.082074603
-1.0367214
-0.043390502
-1.1169878
-0.018215642
-1.2064901
-0.0038469554
-1.3029851
0.0029120219
-1.4051825
0.0048466589
-1.5122119
0.0040847512
-1.6236001
0.0020745818
-1.739306
-0.00027937456
-1.8595567
-0.0024733786
-1.9850967
-0.0042615801
-2.1168272
-0.0055535552
-2.2553259
-0.0063474976
-2.4016251
-0.0066894029
-2.5575546
-0.0066482329
-2.7245299
-0.0062993022
-2.9032283
-0.0057160614
-3.0942398
-0.0049610092
-3.298309
-0.0040890697
-3.5158469
-0.0031340001
-3.7471229
-0.0021305276
-3.9946772
-0.0010782941
-4.2618594
-0.46951897
-0.3945817
-0.46987859
-0.4857511
-0.46174351
-0.46283714
-0.4476095
-0.23779048
-0.43402043
0.17912632
-0.43084252
0.57237579
-0.43865256
0.65746565
-0.45549902
0.44247154
-0.48282251
-0.063336067
-0.21464728
-0.46887168
0.00045668368
-0.47323397
0.21719503
-0.48359648
0.41103179
-0.50371943
0.56766262
-0.53428246
0.674057
-0.57467777
0.6928645
-0.62445797
0.58473957
-0.67503113
0.35338969
-0.7112886
0.065017284
-0.75050877
-0.14785579
-0.77293123
-0.27235122
-0.77786492
-0.30928572
-0.78051269
-0.28339966
-0.80687805
-0.22852192
-0.84897374
-0.16055465
-0.89581542
-0.096905421
-0.95762118
-0.049809383
-1.0335859
-0.019190117
-1.1191704
-0.0016612455
-1.2116977
0.0066111435
-1.3097211
0.0089668381
-1.4123975
0.0079674473
-1.5191011
0.0053886507
-1.6297197
0.0023479885
-1.7444669
-0.00053216635
-1.8636689
-0.002947477
-1.9881498
-0.004784067
-2.1189059
-0.0060336274
-2.2565468
-0.0067442023
-2.4021779
-0.0069911975
-2.5576717
-0.0068601164
-2.7244433
-0.0064346068
-2.9030578
-0.0057913171
-3.0939516
-0.0049929177
-3.2978068
-0.004092825
-3.5149416
-0.0031226056
-3.7457702
-0.0021147276
-3.9928491
-0.0010668595
-4.2596664
-0.45319902
-0.23594069
-0.45581948
-0.41399904
-0.45618575
-0.49776175
-0.44809448
-0.46945002
-0.43319226
-0.24714078
-0.42103823
0.15885671
-0.42232765
0.54550032
-0.4369652
0.63003199
-0.4615382
0.41271688
-0.49287232
-0.07056984
-0.013789497
-0.45962673
0.21346308
-0.47414044
0.41948876
-0.49799977
0.59029595
-0.5323751
0.71337784
-0.57786753
0.74962039
-0.63517542
0.65154268
-0.69556706
0.41521376
-0.74093633
0.10593904
-0.75513814
-0.16434907
-0.73649336
-0.30561524
-0.74234195
-0.3548472
-0.73536246
-0.32759139
-0.73918368
-0.26185484
-0.77598531
-0.18712568
-0.82497664
-0.11328545
-0.8824284
-0.056328869
-0.95425151
-0.019503827
-1.0362874
0.001555657
-1.1252447
0.011500472
-1.2194527
0.014287002
-1.3180697
0.01296247
-1.4204449
0.009676119
-1.5262702
0.0057935784
-1.63583
0.0020829552
-1.7494653
-0.0010847364
-1.867526
-0.0035723144
-1.9909185
-0.0053681626
-2.1206959
-0.0065247269
-2.2575151
-0.0071254787
-2.4024994
-0.0072659233
-2.5576102
-0.0070420211
-2.72422
-0.0065418771
-2.9027656
-0.0058428286
-3.0935391
-0.0050061081
-3.2971
-0.0040828048
-3.5138738
-0.0031018573
-3.744267
-0.0020933813
-3.9909237
-0.0010529196
-4.2574148
-0.44292465
-0.029055928
-0.43638045
-0.26036168
-0.44091043
-0.43467969
-0.4429098
-0.50940181
-0.43586786
-0.47383343
-0.42141589
-0.25527154
-0.41149701
0.13758534
-0.41611828
0.51419931
-0.43684328
0.59653089
-0.46839399
0.37971968