/*--------------------------------*- C++ -*----------------------------------*\
| =========                 |                                                 |
| \\      /  F ield         | OpenFOAM: The Open Source CFD Toolbox           |
|  \\    /   O peration     | Version:  v2012                                 |
|   \\  /    A nd           | Website:  www.openfoam.com                      |
|    \\/     M anipulation  |                                                 |
\*---------------------------------------------------------------------------*/
FoamFile
{
    version     2.0;
    format      ascii;
    class       pointVectorField;
    location    "35.9040569518127981";
    object      pointDisplacement;
}
// * * * * * * * * * * * * * * * * * * * * * * * * * * * * * * * * * * * * * //

dimensions      [0 1 0 0 0 0 0];


internalField   nonuniform List<vector> 
18840
(
(-0.86788174 -0 -0)
(-0.86775098 0 0)
(-0.86736044 0 0)
(-0.86671334 0 0)
(-0.86581216 0 0)
(-0.8646587 0 0)
(-0.86325427 0 0)
(-0.86159965 0 0)
(-0.85969525 0 0)
(-0.85754108 0 0)
(-0.85513681 0 0)
(-0.85248183 0 0)
(-0.84957525 0 0)
(-0.84641592 0 0)
(-0.84300252 0 0)
(-0.83933351 0 0)
(-0.83540727 0 0)
(-0.83122216 0 0)
(-0.82677688 0 0)
(-0.82206755 0 0)
(-0.81610902 0 0)
(-0.86788174 -0 -0)
(-0.86775072 0 0)
(-0.8673595 0 0)
(-0.86671148 0 0)
(-0.86580931 0 0)
(-0.86465496 0 0)
(-0.86324983 0 0)
(-0.86159488 0 0)
(-0.85969063 0 0)
(-0.85753725 0 0)
(-0.85513454 0 0)
(-0.85248206 0 0)
(-0.84957905 0 0)
(-0.84642455 0 0)
(-0.84301739 0 0)
(-0.83935621 0 0)
(-0.83543952 0 0)
(-0.8312658 0 0)
(-0.82683356 0 0)
(-0.82213993 0 0)
(-0.81720403 0 0)
(-0.86788174 -0 -0)
(-0.86775025 0 0)
(-0.86735778 0 0)
(-0.86670793 0 0)
(-0.86580355 0 0)
(-0.86464679 0 0)
(-0.86323922 0 0)
(-0.86158197 0 0)
(-0.85967573 0 0)
(-0.85752083 0 0)
(-0.85511726 0 0)
(-0.85246474 0 0)
(-0.84956273 0 0)
(-0.84641047 0 0)
(-0.84300697 0 0)
(-0.83935109 0 0)
(-0.83544154 0 0)
(-0.83127691 0 0)
(-0.82685573 0 0)
(-0.82217625 0 0)
(-0.81719136 0 0)
(-0.86788174 -0 -0)
(-0.86774986 0 0)
(-0.8673563 0 0)
(-0.86670489 0 0)
(-0.86579868 0 0)
(-0.86463997 0 0)
(-0.86323051 0 0)
(-0.86157161 0 0)
(-0.85966412 0 0)
(-0.85750856 0 0)
(-0.85510509 0 0)
(-0.85245364 0 0)
(-0.84955386 0 0)
(-0.84640521 0 0)
(-0.84300696 0 0)
(-0.8393582 0 0)
(-0.83545794 0 0)
(-0.83130508 0 0)
(-0.82689852 0 0)
(-0.82223682 0 0)
(-0.81721371 0 0)
(-0.86788174 -0 -0)
(-0.86774951 0 0)
(-0.86735502 0 0)
(-0.8667023 0 0)
(-0.86579457 0 0)
(-0.86463429 0 0)
(-0.8632234 0 0)
(-0.86156334 0 0)
(-0.85965515 0 0)
(-0.85749952 0 0)
(-0.8550968 0 0)
(-0.85244712 0 0)
(-0.84955033 0 0)
(-0.84640612 0 0)
(-0.843014 0 0)
(-0.83937335 0 0)
(-0.83548348 0 0)
(-0.83134364 0 0)
(-0.82695318 0 0)
(-0.82231101 0 0)
(-0.81725748 0 0)
(-0.86788174 -0 -0)
(-0.86774922 0 0)
(-0.86735394 0 0)
(-0.86670012 0 0)
(-0.86579113 0 0)
(-0.86462961 0 0)
(-0.86321761 0 0)
(-0.86155675 0 0)
(-0.8596482 0 0)
(-0.85749282 0 0)
(-0.85509115 0 0)
(-0.85244351 0 0)
(-0.84954994 0 0)
(-0.84641037 0 0)
(-0.84302451 0 0)
(-0.83939203 0 0)
(-0.8355125 0 0)
(-0.83138552 0 0)
(-0.82701075 0 0)
(-0.82238746 0 0)
(-0.81730942 0 0)
(-0.86788174 -0 -0)
(-0.86774897 0 0)
(-0.86735304 0 0)
(-0.86669831 0 0)
(-0.86578832 0 0)
(-0.86462583 0 0)
(-0.863213 0 0)
(-0.86155157 0 0)
(-0.85964285 0 0)
(-0.85748783 0 0)
(-0.85508722 0 0)
(-0.8524415 0 0)
(-0.84955092 0 0)
(-0.84641558 0 0)
(-0.84303543 0 0)
(-0.83941033 0 0)
(-0.83554012 0 0)
(-0.83142463 0 0)
(-0.82706383 0 0)
(-0.82245722 0 0)
(-0.81735966 0 0)
(-0.86788174 -0 -0)
(-0.86774877 0 0)
(-0.86735231 0 0)
(-0.8666969 0 0)
(-0.86578616 0 0)
(-0.86462298 0 0)
(-0.8632096 0 0)
(-0.86154784 0 0)
(-0.8596391 0 0)
(-0.85748446 0 0)
(-0.85508477 0 0)
(-0.85244065 0 0)
(-0.84955252 0 0)
(-0.84642061 0 0)
(-0.84304509 0 0)
(-0.83942599 0 0)
(-0.83556338 0 0)
(-0.83145723 0 0)
(-0.82710775 0 0)
(-0.82251473 0 0)
(-0.817402 0 0)
(-0.86788174 -0 -0)
(-0.86774861 0 0)
(-0.86735177 0 0)
(-0.86669587 0 0)
(-0.86578467 0 0)
(-0.8646211 0 0)
(-0.8632075 0 0)
(-0.86154571 0 0)
(-0.85963718 0 0)
(-0.85748304 0 0)
(-0.85508421 0 0)
(-0.85244138 0 0)
(-0.84955511 0 0)
(-0.84642579 0 0)
(-0.84305367 0 0)
(-0.83943897 0 0)
(-0.83558187 0 0)
(-0.83148256 0 0)
(-0.8271413 0 0)
(-0.82255827 0 0)
(-0.81743423 0 0)
(-0.86788174 -0 -0)
(-0.86774851 0 0)
(-0.86735142 0 0)
(-0.86669526 0 0)
(-0.86578387 0 0)
(-0.86462025 0 0)
(-0.86320677 0 0)
(-0.86154531 0 0)
(-0.85963732 0 0)
(-0.85748393 0 0)
(-0.85508605 0 0)
(-0.85244441 0 0)
(-0.84955961 0 0)
(-0.84643212 0 0)
(-0.84306229 0 0)
(-0.83945044 0 0)
(-0.83559681 0 0)
(-0.83150172 0 0)
(-0.82716551 0 0)
(-0.82258859 0 0)
(-0.81745704 0 0)
(-0.86788174 -0 -0)
(-0.86774819 0 0)
(-0.86735021 0 0)
(-0.86669276 0 0)
(-0.86577978 0 0)
(-0.86461437 0 0)
(-0.86319896 0 0)
(-0.86153544 0 0)
(-0.85962526 0 0)
(-0.85746952 0 0)
(-0.85506912 0 0)
(-0.85242476 0 0)
(-0.84953703 0 0)
(-0.84640641 0 0)
(-0.84303328 0 0)
(-0.83941801 0 0)
(-0.8355609 0 0)
(-0.83146231 0 0)
(-0.82712263 0 0)
(-0.82254248 0 0)
(-0.81740333 0 0)
(-0.86788174 -0 -0)
(-0.86775098 0 0)
(-0.86736044 0 0)
(-0.86671334 0 0)
(-0.86581216 0 0)
(-0.8646587 0 0)
(-0.86325427 0 0)
(-0.86159965 0 0)
(-0.85969525 0 0)
(-0.85754108 0 0)
(-0.85513681 0 0)
(-0.85248183 0 0)
(-0.84957525 0 0)
(-0.84641592 0 0)
(-0.84300252 0 0)
(-0.83933351 0 0)
(-0.83540727 0 0)
(-0.83122216 0 0)
(-0.82677688 0 0)
(-0.82206755 0 0)
(-0.81610902 0 0)
(-0.86788174 -0 -0)
(-0.86775072 0 0)
(-0.8673595 0 0)
(-0.86671148 0 0)
(-0.86580931 0 0)
(-0.86465496 0 0)
(-0.86324983 0 0)
(-0.86159488 0 0)
(-0.85969063 0 0)
(-0.85753725 0 0)
(-0.85513454 0 0)
(-0.85248206 0 0)
(-0.84957905 0 0)
(-0.84642455 0 0)
(-0.84301739 0 0)
(-0.83935621 0 0)
(-0.83543952 0 0)
(-0.8312658 0 0)
(-0.82683356 0 0)
(-0.82213993 0 0)
(-0.81720403 0 0)
(-0.86788174 -0 -0)
(-0.86775025 0 0)
(-0.86735778 0 0)
(-0.86670793 0 0)
(-0.86580355 0 0)
(-0.86464679 0 0)
(-0.86323922 0 0)
(-0.86158197 0 0)
(-0.85967573 0 0)
(-0.85752083 0 0)
(-0.85511726 0 0)
(-0.85246474 0 0)
(-0.84956273 0 0)
(-0.84641047 0 0)
(-0.84300697 0 0)
(-0.83935109 0 0)
(-0.83544154 0 0)
(-0.83127691 0 0)
(-0.82685573 0 0)
(-0.82217625 0 0)
(-0.81719136 0 0)
(-0.86788174 -0 -0)
(-0.86774986 0 0)
(-0.8673563 0 0)
(-0.86670489 0 0)
(-0.86579868 0 0)
(-0.86463997 0 0)
(-0.86323051 0 0)
(-0.86157161 0 0)
(-0.85966412 0 0)
(-0.85750856 0 0)
(-0.85510509 0 0)
(-0.85245364 0 0)
(-0.84955386 0 0)
(-0.84640521 0 0)
(-0.84300696 0 0)
(-0.8393582 0 0)
(-0.83545794 0 0)
(-0.83130508 0 0)
(-0.82689852 0 0)
(-0.82223682 0 0)
(-0.81721371 0 0)
(-0.86788174 -0 -0)
(-0.86774951 0 0)
(-0.86735502 0 0)
(-0.8667023 0 0)
(-0.86579457 0 0)
(-0.86463429 0 0)
(-0.8632234 0 0)
(-0.86156334 0 0)
(-0.85965515 0 0)
(-0.85749952 0 0)
(-0.8550968 0 0)
(-0.85244712 0 0)
(-0.84955033 0 0)
(-0.84640612 0 0)
(-0.843014 0 0)
(-0.83937335 0 0)
(-0.83548348 0 0)
(-0.83134364 0 0)
(-0.82695318 0 0)
(-0.82231101 0 0)
(-0.81725748 0 0)
(-0.86788174 -0 -0)
(-0.86774922 0 0)
(-0.86735394 0 0)
(-0.86670012 0 0)
(-0.86579113 0 0)
(-0.86462961 0 0)
(-0.86321761 0 0)
(-0.86155675 0 0)
(-0.8596482 0 0)
(-0.85749282 0 0)
(-0.85509115 0 0)
(-0.85244351 0 0)
(-0.84954994 0 0)
(-0.84641037 0 0)
(-0.84302451 0 0)
(-0.83939203 0 0)
(-0.8355125 0 0)
(-0.83138552 0 0)
(-0.82701075 0 0)
(-0.82238746 0 0)
(-0.81730942 0 0)
(-0.86788174 -0 -0)
(-0.86774897 0 0)
(-0.86735304 0 0)
(-0.86669831 0 0)
(-0.86578832 0 0)
(-0.86462583 0 0)
(-0.863213 0 0)
(-0.86155157 0 0)
(-0.85964285 0 0)
(-0.85748783 0 0)
(-0.85508722 0 0)
(-0.8524415 0 0)
(-0.84955092 0 0)
(-0.84641558 0 0)
(-0.84303543 0 0)
(-0.83941033 0 0)
(-0.83554012 0 0)
(-0.83142463 0 0)
(-0.82706383 0 0)
(-0.82245722 0 0)
(-0.81735966 0 0)
(-0.86788174 -0 -0)
(-0.86774877 0 0)
(-0.86735231 0 0)
(-0.8666969 0 0)
(-0.86578616 0 0)
(-0.86462298 0 0)
(-0.8632096 0 0)
(-0.86154784 0 0)
(-0.8596391 0 0)
(-0.85748446 0 0)
(-0.85508477 0 0)
(-0.85244065 0 0)
(-0.84955252 0 0)
(-0.84642061 0 0)
(-0.84304509 0 0)
(-0.83942599 0 0)
(-0.83556338 0 0)
(-0.83145723 0 0)
(-0.82710775 0 0)
(-0.82251473 0 0)
(-0.817402 0 0)
(-0.86788174 -0 -0)
(-0.86774861 0 0)
(-0.86735177 0 0)
(-0.86669587 0 0)
(-0.86578467 0 0)
(-0.8646211 0 0)
(-0.8632075 0 0)
(-0.86154571 0 0)
(-0.85963718 0 0)
(-0.85748304 0 0)
(-0.85508421 0 0)
(-0.85244138 0 0)
(-0.84955511 0 0)
(-0.84642579 0 0)
(-0.84305367 0 0)
(-0.83943897 0 0)
(-0.83558187 0 0)
(-0.83148256 0 0)
(-0.8271413 0 0)
(-0.82255827 0 0)
(-0.81743423 0 0)
(-0.86788174 -0 -0)
(-0.86774851 0 0)
(-0.86735142 0 0)
(-0.86669526 0 0)
(-0.86578387 0 0)
(-0.86462025 0 0)
(-0.86320677 0 0)
(-0.86154531 0 0)
(-0.85963732 0 0)
(-0.85748393 0 0)
(-0.85508605 0 0)
(-0.85244441 0 0)
(-0.84955961 0 0)
(-0.84643212 0 0)
(-0.84306229 0 0)
(-0.83945044 0 0)
(-0.83559681 0 0)
(-0.83150172 0 0)
(-0.82716551 0 0)
(-0.82258859 0 0)
(-0.81745704 0 0)
(-0.86788174 -0 -0)
(-0.86774819 0 0)
(-0.86735021 0 0)
(-0.86669276 0 0)
(-0.86577978 0 0)
(-0.86461437 0 0)
(-0.86319896 0 0)
(-0.86153544 0 0)
(-0.85962526 0 0)
(-0.85746952 0 0)
(-0.85506912 0 0)
(-0.85242476 0 0)
(-0.84953703 0 0)
(-0.84640641 0 0)
(-0.84303328 0 0)
(-0.83941801 0 0)
(-0.8355609 0 0)
(-0.83146231 0 0)
(-0.82712263 0 0)
(-0.82254248 0 0)
(-0.81740333 0 0)
(-0.86788174 -0 -0)
(-0.8677503 0 0)
(-0.86735738 0 0)
(-0.8667055 0 0)
(-0.86579657 0 0)
(-0.86463194 0 0)
(-0.86321251 0 0)
(-0.86153879 0 0)
(-0.85961094 0 0)
(-0.85742882 0 0)
(-0.85499198 0 0)
(-0.85229977 0 0)
(-0.84935133 0 0)
(-0.8461456 0 0)
(-0.8426814 0 0)
(-0.83895737 0 0)
(-0.8349721 0 0)
(-0.83072403 0 0)
(-0.82621161 0 0)
(-0.82142954 0 0)
(-0.81595112 0 0)
(-0.86788174 -0 -0)
(-0.86775027 0 0)
(-0.86735729 0 0)
(-0.86670539 0 0)
(-0.86579649 0 0)
(-0.86463196 0 0)
(-0.86321271 0 0)
(-0.86153927 0 0)
(-0.8596118 0 0)
(-0.85743014 0 0)
(-0.85499385 0 0)
(-0.85230225 0 0)
(-0.84935443 0 0)
(-0.84614933 0 0)
(-0.8426857 0 0)
(-0.83896213 0 0)
(-0.83497713 0 0)
(-0.83072909 0 0)
(-0.82621635 0 0)
(-0.82143358 0 0)
(-0.81595859 0 0)
(-0.86788174 -0 -0)
(-0.86775006 0 0)
(-0.8673565 0 0)
(-0.86670372 0 0)
(-0.86579373 0 0)
(-0.86462793 0 0)
(-0.86320726 0 0)
(-0.86153229 0 0)
(-0.85960317 0 0)
(-0.85741976 0 0)
(-0.85498161 0 0)
(-0.85228802 0 0)
(-0.84933808 0 0)
(-0.84613068 0 0)
(-0.84266451 0 0)
(-0.83893812 0 0)
(-0.83494996 0 0)
(-0.83069832 0 0)
(-0.82618147 0 0)
(-0.82139417 0 0)
(-0.8159296 0 0)
(-0.86788174 -0 -0)
(-0.86774993 0 0)
(-0.86735603 0 0)
(-0.86670278 0 0)
(-0.86579223 0 0)
(-0.86462584 0 0)
(-0.86320459 0 0)
(-0.86152904 0 0)
(-0.85959937 0 0)
(-0.85741544 0 0)
(-0.85497679 0 0)
(-0.85228269 0 0)
(-0.8493322 0 0)
(-0.84612416 0 0)
(-0.84265722 0 0)
(-0.83892985 0 0)
(-0.83494042 0 0)
(-0.83068714 0 0)
(-0.82616819 0 0)
(-0.82137847 0 0)
(-0.81593543 0 0)
(-0.86788174 -0 -0)
(-0.86774989 0 0)
(-0.86735588 0 0)
(-0.86670254 0 0)
(-0.86579197 0 0)
(-0.86462568 0 0)
(-0.86320466 0 0)
(-0.86152952 0 0)
(-0.85960042 0 0)
(-0.85741723 0 0)
(-0.85497946 0 0)
(-0.85228637 0 0)
(-0.84933698 0 0)
(-0.84613008 0 0)
(-0.84266425 0 0)
(-0.83893789 0 0)
(-0.83494929 0 0)
(-0.83069654 0 0)
(-0.82617774 0 0)
(-0.821388 0 0)
(-0.81597762 0 0)
(-0.86788174 -0 -0)
(-0.86774992 0 0)
(-0.86735604 0 0)
(-0.86670299 0 0)
(-0.86579293 0 0)
(-0.86462741 0 0)
(-0.86320746 0 0)
(-0.86153369 0 0)
(-0.85960628 0 0)
(-0.85742509 0 0)
(-0.85498962 0 0)
(-0.85229911 0 0)
(-0.84935254 0 0)
(-0.84614864 0 0)
(-0.84268594 0 0)
(-0.83896277 0 0)
(-0.83497731 0 0)
(-0.83072756 0 0)
(-0.82621147 0 0)
(-0.82142443 0 0)
(-0.81605791 0 0)
(-0.86788174 -0 -0)
(-0.86775002 0 0)
(-0.8673565 0 0)
(-0.86670411 0 0)
(-0.86579509 0 0)
(-0.86463102 0 0)
(-0.86321296 0 0)
(-0.86154153 0 0)
(-0.85961694 0 0)
(-0.85743904 0 0)
(-0.85500733 0 0)
(-0.85232103 0 0)
(-0.84937908 0 0)
(-0.8461802 0 0)
(-0.84272285 0 0)
(-0.83900529 0 0)
(-0.83502562 0 0)
(-0.83078173 0 0)
(-0.82627144 0 0)
(-0.82149038 0 0)
(-0.8161791 0 0)
(-0.86788174 -0 -0)
(-0.86775021 0 0)
(-0.86735726 0 0)
(-0.86670591 0 0)
(-0.86579845 0 0)
(-0.86463648 0 0)
(-0.86322112 0 0)
(-0.86155302 0 0)
(-0.85963239 0 0)
(-0.85745909 0 0)
(-0.85503265 0 0)
(-0.85235226 0 0)
(-0.84941688 0 0)
(-0.84622518 0 0)
(-0.84277562 0 0)
(-0.83906642 0 0)
(-0.83509562 0 0)
(-0.83086103 0 0)
(-0.82636037 0 0)
(-0.82158952 0 0)
(-0.81634535 0 0)
(-0.86788174 -0 -0)
(-0.86775046 0 0)
(-0.86735832 0 0)
(-0.86670838 0 0)
(-0.86580298 0 0)
(-0.86464379 0 0)
(-0.86323195 0 0)
(-0.86156814 0 0)
(-0.85965262 0 0)
(-0.85748528 0 0)
(-0.85506565 0 0)
(-0.85239297 0 0)
(-0.84946619 0 0)
(-0.84628401 0 0)
(-0.84284491 0 0)
(-0.83914712 0 0)
(-0.83518873 0 0)
(-0.83096758 0 0)
(-0.82648144 0 0)
(-0.82172661 0 0)
(-0.81656276 0 0)
(-0.86788174 -0 -0)
(-0.8677508 0 0)
(-0.86735969 0 0)
(-0.86671152 0 0)
(-0.86580869 0 0)
(-0.86465292 0 0)
(-0.8632454 0 0)
(-0.86158686 0 0)
(-0.85967762 0 0)
(-0.85751758 0 0)
(-0.85510634 0 0)
(-0.8524432 0 0)
(-0.84952714 0 0)
(-0.84635693 0 0)
(-0.8429311 0 0)
(-0.839248 0 0)
(-0.8353058 0 0)
(-0.83110263 0 0)
(-0.82663674 0 0)
(-0.82190463 0 0)
(-0.81683624 0 0)
(-0.86788174 -0 -0)
(-0.8677503 0 0)
(-0.86735738 0 0)
(-0.8667055 0 0)
(-0.86579657 0 0)
(-0.86463194 0 0)
(-0.86321251 0 0)
(-0.86153879 0 0)
(-0.85961094 0 0)
(-0.85742882 0 0)
(-0.85499198 0 0)
(-0.85229977 0 0)
(-0.84935133 0 0)
(-0.8461456 0 0)
(-0.8426814 0 0)
(-0.83895737 0 0)
(-0.8349721 0 0)
(-0.83072403 0 0)
(-0.82621161 0 0)
(-0.82142954 0 0)
(-0.81595112 0 0)
(-0.86788174 -0 -0)
(-0.86775027 0 0)
(-0.86735729 0 0)
(-0.86670539 0 0)
(-0.86579649 0 0)
(-0.86463196 0 0)
(-0.86321271 0 0)
(-0.86153927 0 0)
(-0.8596118 0 0)
(-0.85743014 0 0)
(-0.85499385 0 0)
(-0.85230225 0 0)
(-0.84935443 0 0)
(-0.84614933 0 0)
(-0.8426857 0 0)
(-0.83896213 0 0)
(-0.83497713 0 0)
(-0.83072909 0 0)
(-0.82621635 0 0)
(-0.82143358 0 0)
(-0.81595859 0 0)
(-0.86788174 -0 -0)
(-0.86775006 0 0)
(-0.8673565 0 0)
(-0.86670372 0 0)
(-0.86579373 0 0)
(-0.86462793 0 0)
(-0.86320726 0 0)
(-0.86153229 0 0)
(-0.85960317 0 0)
(-0.85741976 0 0)
(-0.85498161 0 0)
(-0.85228802 0 0)
(-0.84933808 0 0)
(-0.84613068 0 0)
(-0.84266451 0 0)
(-0.83893812 0 0)
(-0.83494996 0 0)
(-0.83069832 0 0)
(-0.82618147 0 0)
(-0.82139417 0 0)
(-0.8159296 0 0)
(-0.86788174 -0 -0)
(-0.86774993 0 0)
(-0.86735603 0 0)
(-0.86670278 0 0)
(-0.86579223 0 0)
(-0.86462584 0 0)
(-0.86320459 0 0)
(-0.86152904 0 0)
(-0.85959937 0 0)
(-0.85741544 0 0)
(-0.85497679 0 0)
(-0.85228269 0 0)
(-0.8493322 0 0)
(-0.84612416 0 0)
(-0.84265722 0 0)
(-0.83892985 0 0)
(-0.83494042 0 0)
(-0.83068714 0 0)
(-0.82616819 0 0)
(-0.82137847 0 0)
(-0.81593543 0 0)
(-0.86788174 -0 -0)
(-0.86774989 0 0)
(-0.86735588 0 0)
(-0.86670254 0 0)
(-0.86579197 0 0)
(-0.86462568 0 0)
(-0.86320466 0 0)
(-0.86152952 0 0)
(-0.85960042 0 0)
(-0.85741723 0 0)
(-0.85497946 0 0)
(-0.85228637 0 0)
(-0.84933698 0 0)
(-0.84613008 0 0)
(-0.84266425 0 0)
(-0.83893789 0 0)
(-0.83494929 0 0)
(-0.83069654 0 0)
(-0.82617774 0 0)
(-0.821388 0 0)
(-0.81597762 0 0)
(-0.86788174 -0 -0)
(-0.86774992 0 0)
(-0.86735604 0 0)
(-0.86670299 0 0)
(-0.86579293 0 0)
(-0.86462741 0 0)
(-0.86320746 0 0)
(-0.86153369 0 0)
(-0.85960628 0 0)
(-0.85742509 0 0)
(-0.85498962 0 0)
(-0.85229911 0 0)
(-0.84935254 0 0)
(-0.84614864 0 0)
(-0.84268594 0 0)
(-0.83896277 0 0)
(-0.83497731 0 0)
(-0.83072756 0 0)
(-0.82621147 0 0)
(-0.82142443 0 0)
(-0.81605791 0 0)
(-0.86788174 -0 -0)
(-0.86775002 0 0)
(-0.8673565 0 0)
(-0.86670411 0 0)
(-0.86579509 0 0)
(-0.86463102 0 0)
(-0.86321296 0 0)
(-0.86154153 0 0)
(-0.85961694 0 0)
(-0.85743904 0 0)
(-0.85500733 0 0)
(-0.85232103 0 0)
(-0.84937908 0 0)
(-0.8461802 0 0)
(-0.84272285 0 0)
(-0.83900529 0 0)
(-0.83502562 0 0)
(-0.83078173 0 0)
(-0.82627144 0 0)
(-0.82149038 0 0)
(-0.8161791 0 0)
(-0.86788174 -0 -0)
(-0.86775021 0 0)
(-0.86735726 0 0)
(-0.86670591 0 0)
(-0.86579845 0 0)
(-0.86463648 0 0)
(-0.86322112 0 0)
(-0.86155302 0 0)
(-0.85963239 0 0)
(-0.85745909 0 0)
(-0.85503265 0 0)
(-0.85235226 0 0)
(-0.84941688 0 0)
(-0.84622518 0 0)
(-0.84277562 0 0)
(-0.83906642 0 0)
(-0.83509562 0 0)
(-0.83086103 0 0)
(-0.82636037 0 0)
(-0.82158952 0 0)
(-0.81634535 0 0)
(-0.86788174 -0 -0)
(-0.86775046 0 0)
(-0.86735832 0 0)
(-0.86670838 0 0)
(-0.86580298 0 0)
(-0.86464379 0 0)
(-0.86323195 0 0)
(-0.86156814 0 0)
(-0.85965262 0 0)
(-0.85748528 0 0)
(-0.85506565 0 0)
(-0.85239297 0 0)
(-0.84946619 0 0)
(-0.84628401 0 0)
(-0.84284491 0 0)
(-0.83914712 0 0)
(-0.83518873 0 0)
(-0.83096758 0 0)
(-0.82648144 0 0)
(-0.82172661 0 0)
(-0.81656276 0 0)
(-0.86788174 -0 -0)
(-0.8677508 0 0)
(-0.86735969 0 0)
(-0.86671152 0 0)
(-0.86580869 0 0)
(-0.86465292 0 0)
(-0.8632454 0 0)
(-0.86158686 0 0)
(-0.85967762 0 0)
(-0.85751758 0 0)
(-0.85510634 0 0)
(-0.8524432 0 0)
(-0.84952714 0 0)
(-0.84635693 0 0)
(-0.8429311 0 0)
(-0.839248 0 0)
(-0.8353058 0 0)
(-0.83110263 0 0)
(-0.82663674 0 0)
(-0.82190463 0 0)
(-0.81683624 0 0)
(-0.80923382 0 0)
(-0.80167501 0 0)
(-0.793705 0 0)
(-0.78533535 0 0)
(-0.77657692 0 0)
(-0.76744709 0 0)
(-0.75796995 0 0)
(-0.74816785 0 0)
(-0.73805751 0 0)
(-0.72765478 0 0)
(-0.71697869 0 0)
(-0.70604806 0 0)
(-0.69487833 0 0)
(-0.68348101 0 0)
(-0.67186621 0 0)
(-0.66004206 0 0)
(-0.64801639 0 0)
(-0.63579398 0 0)
(-0.6233673 0 0)
(-0.61073668 0 0)
(-0.59790952 0 0)
(-0.58488816 0 0)
(-0.57165836 0 0)
(-0.5582046 0 0)
(-0.54452289 0 0)
(-0.5306048 0 0)
(-0.51641747 0 0)
(-0.5019297 0 0)
(-0.48713302 0 0)
(-0.47200334 0 0)
(-0.45647912 0 0)
(-0.44048782 0 0)
(-0.42401148 0 0)
(-0.40707029 0 0)
(-0.38961655 0 0)
(-0.37153591 0 0)
(-0.35277469 0 0)
(-0.33335482 0 0)
(-0.31317229 0 0)
(-0.29204665 0 0)
(-0.26995386 0 0)
(-0.2467884 0 0)
(-0.222346 0 0)
(-0.19646987 0 0)
(-0.16895929 0 0)
(-0.13960862 0 0)
(-0.10825609 0 0)
(-0.074729504 0 0)
(-0.038735412 0 0)
(0 0 0)
(-0.80925418 0 0)
(-0.80171244 0 0)
(-0.79375759 0 0)
(-0.7854009 0 0)
(-0.77665296 0 0)
(-0.76753151 0 0)
(-0.75806099 0 0)
(-0.74826379 0 0)
(-0.73815652 0 0)
(-0.72775499 0 0)
(-0.71707824 0 0)
(-0.70614516 0 0)
(-0.6949714 0 0)
(-0.68356889 0 0)
(-0.67194809 0 0)
(-0.66011717 0 0)
(-0.64808367 0 0)
(-0.63585253 0 0)
(-0.62341797 0 0)
(-0.61078038 0 0)
(-0.59794728 0 0)
(-0.58492076 0 0)
(-0.57168606 0 0)
(-0.55822672 0 0)
(-0.5445392 0 0)
(-0.5306163 0 0)
(-0.51642578 0 0)
(-0.50193526 0 0)
(-0.48713613 0 0)
(-0.47200503 0 0)
(-0.45647891 0 0)
(-0.44048783 0 0)
(-0.42401275 0 0)
(-0.40707238 0 0)
(-0.38961871 0 0)
(-0.37153717 0 0)
(-0.352773 0 0)
(-0.33334928 0 0)
(-0.31316326 0 0)
(-0.2920327 0 0)
(-0.26993914 0 0)
(-0.24677696 0 0)
(-0.22233792 0 0)
(-0.19646534 0 0)
(-0.16895733 0 0)
(-0.13960807 0 0)
(-0.10825655 0 0)
(-0.07473091 0 0)
(-0.038736698 0 0)
(0 0 0)
(-0.80926547 0 0)
(-0.80177659 0 0)
(-0.79387083 0 0)
(-0.78555877 0 0)
(-0.77685081 0 0)
(-0.76776461 0 0)
(-0.7583248 0 0)
(-0.74855406 0 0)
(-0.73846903 0 0)
(-0.72808542 0 0)
(-0.71742219 0 0)
(-0.70649865 0 0)
(-0.69533109 0 0)
(-0.6839317 0 0)
(-0.67231099 0 0)
(-0.66047782 0 0)
(-0.64843992 0 0)
(-0.63620154 0 0)
(-0.62375903 0 0)
(-0.6111139 0 0)
(-0.5982732 0 0)
(-0.58523858 0 0)
(-0.57199545 0 0)
(-0.55852705 0 0)
(-0.54482964 0 0)
(-0.53089668 0 0)
(-0.51669738 0 0)
(-0.50219886 0 0)
(-0.48739176 0 0)
(-0.47225282 0 0)
(-0.45671839 0 0)
(-0.44072101 0 0)
(-0.42423973 0 0)
(-0.40729264 0 0)
(-0.38983204 0 0)
(-0.37174219 0 0)
(-0.35296656 0 0)
(-0.33352966 0 0)
(-0.31333064 0 0)
(-0.29218467 0 0)
(-0.2700784 0 0)
(-0.24690697 0 0)
(-0.2224588 0 0)
(-0.19657641 0 0)
(-0.16905601 0 0)
(-0.13969227 0 0)
(-0.10832462 0 0)
(-0.074780116 0 0)
(-0.038762832 0 0)
(0 0 0)
(-0.80934 0 0)
(-0.80193988 0 0)
(-0.79411694 0 0)
(-0.78588083 0 0)
(-0.7772416 0 0)
(-0.76821673 0 0)
(-0.75883082 0 0)
(-0.74910676 0 0)
(-0.73906159 0 0)
(-0.72871114 0 0)
(-0.71807416 0 0)
(-0.70717039 0 0)
(-0.69601708 0 0)
(-0.68462703 0 0)
(-0.67301074 0 0)
(-0.66117769 0 0)
(-0.64913608 0 0)
(-0.63689024 0 0)
(-0.62443793 0 0)
(-0.61178171 0 0)
(-0.59892937 0 0)
(-0.58588193 0 0)
(-0.5726248 0 0)
(-0.5591411 0 0)
(-0.54542742 0 0)
(-0.53147789 0 0)
(-0.51726252 0 0)
(-0.50274815 0 0)
(-0.48792543 0 0)
(-0.47277115 0 0)
(-0.45722031 0 0)
(-0.44120785 0 0)
(-0.4247118 0 0)
(-0.40774943 0 0)
(-0.39027285 0 0)
(-0.37216533 0 0)
(-0.3533691 0 0)
(-0.33390918 0 0)
(-0.31368575 0 0)
(-0.29251302 0 0)
(-0.27038161 0 0)
(-0.24718664 0 0)
(-0.2227153 0 0)
(-0.1968089 0 0)
(-0.16926044 0 0)
(-0.1398651 0 0)
(-0.10846296 0 0)
(-0.074878897 0 0)
(-0.038814819 0 0)
(0 0 0)
(-0.80947894 0 0)
(-0.80220301 0 0)
(-0.79449628 0 0)
(-0.78636715 0 0)
(-0.77782522 0 0)
(-0.76888754 0 0)
(-0.75957861 0 0)
(-0.74992157 0 0)
(-0.739934 0 0)
(-0.72963202 0 0)
(-0.71903417 0 0)
(-0.70816064 0 0)
(-0.69702981 0 0)
(-0.68565517 0 0)
(-0.67404733 0 0)
(-0.66221681 0 0)
(-0.65017253 0 0)
(-0.63791847 0 0)
(-0.62545438 0 0)
(-0.61278411 0 0)
(-0.59991566 0 0)
(-0.58684996 0 0)
(-0.57357298 0 0)
(-0.56006804 0 0)
(-0.54633159 0 0)
(-0.53235833 0 0)
(-0.51811935 0 0)
(-0.50358158 0 0)
(-0.48873545 0 0)
(-0.47355771 0 0)
(-0.45798259 0 0)
(-0.44194641 0 0)
(-0.42542637 0 0)
(-0.40843995 0 0)
(-0.39093877 0 0)
(-0.37280436 0 0)
(-0.35397761 0 0)
(-0.33448462 0 0)
(-0.31422641 0 0)
(-0.29301553 0 0)
(-0.27084606 0 0)
(-0.24761395 0 0)
(-0.22310595 0 0)
(-0.19716117 0 0)
(-0.16956895 0 0)
(-0.14012527 0 0)
(-0.10867067 0 0)
(-0.075026496 0 0)
(-0.038892207 0 0)
(0 0 0)
(-0.80968356 0 0)
(-0.80256674 0 0)
(-0.79500925 0 0)
(-0.7870179 0 0)
(-0.77860168 0 0)
(-0.76977721 0 0)
(-0.76056842 0 0)
(-0.75099865 0 0)
(-0.74108643 0 0)
(-0.7308485 0 0)
(-0.72030301 0 0)
(-0.70947019 0 0)
(-0.69836988 0 0)
(-0.68701669 0 0)
(-0.67542146 0 0)
(-0.66359563 0 0)
(-0.65154925 0 0)
(-0.63928653 0 0)
(-0.62680844 0 0)
(-0.61412045 0 0)
(-0.60123134 0 0)
(-0.58814206 0 0)
(-0.57483894 0 0)
(-0.56130593 0 0)
(-0.54754005 0 0)
(-0.53353623 0 0)
(-0.5192658 0 0)
(-0.50469611 0 0)
(-0.48981849 0 0)
(-0.47460958 0 0)
(-0.45900181 0 0)
(-0.44293289 0 0)
(-0.42638023 0 0)
(-0.40936101 0 0)
(-0.39182599 0 0)
(-0.37365513 0 0)
(-0.35478863 0 0)
(-0.3352531 0 0)
(-0.31494906 0 0)
(-0.29368913 0 0)
(-0.27146939 0 0)
(-0.24818616 0 0)
(-0.22362793 0 0)
(-0.19763098 0 0)
(-0.16997966 0 0)
(-0.14047098 0 0)
(-0.10894617 0 0)
(-0.075221885 0 0)
(-0.038994507 0 0)
(0 0 0)
(-0.80995613 0 0)
(-0.80303261 0 0)
(-0.7956569 0 0)
(-0.78783383 0 0)
(-0.77957176 0 0)
(-0.77088662 0 0)
(-0.76180151 0 0)
(-0.75233939 0 0)
(-0.74251988 0 0)
(-0.73236166 0 0)
(-0.72188244 0 0)
(-0.7111011 0 0)
(-0.70003911 0 0)
(-0.68871303 0 0)
(-0.67713441 0 0)
(-0.66531562 0 0)
(-0.65326752 0 0)
(-0.64099486 0 0)
(-0.62850049 0 0)
(-0.6157912 0 0)
(-0.6028762 0 0)
(-0.58975714 0 0)
(-0.57642141 0 0)
(-0.56285351 0 0)
(-0.54905085 0 0)
(-0.5350088 0 0)
(-0.52069889 0 0)
(-0.50608888 0 0)
(-0.49117124 0 0)
(-0.47592269 0 0)
(-0.46027418 0 0)
(-0.4441635 0 0)
(-0.42756882 0 0)
(-0.41050801 0 0)
(-0.3929304 0 0)
(-0.3747135 0 0)
(-0.35579739 0 0)
(-0.33620972 0 0)
(-0.31584977 0 0)
(-0.29452956 0 0)
(-0.27224718 0 0)
(-0.2488998 0 0)
(-0.22427838 0 0)
(-0.19821535 0 0)
(-0.17048977 0 0)
(-0.14090002 0 0)
(-0.1092878 0 0)
(-0.075463832 0 0)
(-0.039120991 0 0)
(0 0 0)
(-0.81030027 0 0)
(-0.80360334 0 0)
(-0.79644119 0 0)
(-0.78881629 0 0)
(-0.78073632 0 0)
(-0.77221708 0 0)
(-0.76327997 0 0)
(-0.75394584 0 0)
(-0.74423668 0 0)
(-0.73417529 0 0)
(-0.72377659 0 0)
(-0.71305636 0 0)
(-0.70203982 0 0)
(-0.69074657 0 0)
(-0.6791884 0 0)
(-0.66737856 0 0)
(-0.65532898 0 0)
(-0.64304501 0 0)
(-0.63053114 0 0)
(-0.61779636 0 0)
(-0.60485019 0 0)
(-0.59169485 0 0)
(-0.57831908 0 0)
(-0.56470856 0 0)
(-0.55086157 0 0)
(-0.53677362 0 0)
(-0.52241554 0 0)
(-0.50775586 0 0)
(-0.49278939 0 0)
(-0.47749291 0 0)
(-0.46179485 0 0)
(-0.44563331 0 0)
(-0.42898751 0 0)
(-0.41187609 0 0)
(-0.39424661 0 0)
(-0.3759741 0 0)
(-0.35699912 0 0)
(-0.33734994 0 0)
(-0.31692351 0 0)
(-0.29553233 0 0)
(-0.2731754 0 0)
(-0.24975078 0 0)
(-0.22505334 0 0)
(-0.1989109 0 0)
(-0.1710964 0 0)
(-0.14140973 0 0)
(-0.10969326 0 0)
(-0.075750768 0 0)
(-0.039270938 0 0)
(0 0 0)
(-0.81072161 0 0)
(-0.80428314 0 0)
(-0.79736527 0 0)
(-0.7899672 0 0)
(-0.78209767 0 0)
(-0.77377283 0 0)
(-0.76501 0 0)
(-0.75582747 0 0)
(-0.74624798 0 0)
(-0.73629554 0 0)
(-0.72598699 0 0)
(-0.71533908 0 0)
(-0.70437719 0 0)
(-0.69312241 0 0)
(-0.68158802 0 0)
(-0.66978872 0 0)
(-0.65773704 0 0)
(-0.64543847 0 0)
(-0.63290123 0 0)
(-0.62013658 0 0)
(-0.60715329 0 0)
(-0.59395411 0 0)
(-0.58053026 0 0)
(-0.56686918 0 0)
(-0.55296974 0 0)
(-0.53882727 0 0)
(-0.52441197 0 0)
(-0.50969315 0 0)
(-0.49466835 0 0)
(-0.4793149 0 0)
(-0.46355879 0 0)
(-0.44733705 0 0)
(-0.4306303 0 0)
(-0.41345914 0 0)
(-0.39576905 0 0)
(-0.3774314 0 0)
(-0.35838757 0 0)
(-0.33866736 0 0)
(-0.31816488 0 0)
(-0.29669167 0 0)
(-0.27424853 0 0)
(-0.2507347 0 0)
(-0.22594882 0 0)
(-0.19971372 0 0)
(-0.17179597 0 0)
(-0.14199715 0 0)
(-0.11016027 0 0)
(-0.076081044 0 0)
(-0.039443456 0 0)
(0 0 0)
(-0.81122602 0 0)
(-0.80507627 0 0)
(-0.79843157 0 0)
(-0.79129059 0 0)
(-0.78366314 0 0)
(-0.77556012 0 0)
(-0.76699464 0 0)
(-0.75798616 0 0)
(-0.74855454 0 0)
(-0.73872289 0 0)
(-0.72851555 0 0)
(-0.71795191 0 0)
(-0.70705354 0 0)
(-0.6958428 0 0)
(-0.6843345 0 0)
(-0.67254387 0 0)
(-0.66048684 0 0)
(-0.6481717 0 0)
(-0.63560795 0 0)
(-0.62280876 0 0)
(-0.60978183 0 0)
(-0.59653016 0 0)
(-0.58304916 0 0)
(-0.56932889 0 0)
(-0.55536869 0 0)
(-0.54116316 0 0)
(-0.526681 0 0)
(-0.51189276 0 0)
(-0.4967999 0 0)
(-0.48138059 0 0)
(-0.46555738 0 0)
(-0.44926624 0 0)
(-0.43248897 0 0)
(-0.41524896 0 0)
(-0.39748933 0 0)
(-0.37907702 0 0)
(-0.35995498 0 0)
(-0.34015461 0 0)
(-0.31956636 0 0)
(-0.29800098 0 0)
(-0.27546055 0 0)
(-0.2518458 0 0)
(-0.2269594 0 0)
(-0.20061909 0 0)
(-0.17258433 0 0)
(-0.14265865 0 0)
(-0.1106859 0 0)
(-0.076452705 0 0)
(-0.03963757 0 0)
(0 0 0)
(-0.81044144 0 0)
(-0.80457709 0 0)
(-0.79820868 0 0)
(-0.79133861 0 0)
(-0.78397154 0 0)
(-0.77610984 0 0)
(-0.76776772 0 0)
(-0.75896622 0 0)
(-0.74972092 0 0)
(-0.74005286 0 0)
(-0.72998989 0 0)
(-0.71955263 0 0)
(-0.70876173 0 0)
(-0.69763973 0 0)
(-0.68620214 0 0)
(-0.67446591 0 0)
(-0.66245041 0 0)
(-0.65016526 0 0)
(-0.63762052 0 0)
(-0.62482948 0 0)
(-0.61179941 0 0)
(-0.598536 0 0)
(-0.58503803 0 0)
(-0.57129627 0 0)
(-0.55731065 0 0)
(-0.54307565 0 0)
(-0.5285595 0 0)
(-0.51373332 0 0)
(-0.49860109 0 0)
(-0.48314276 0 0)
(-0.46727921 0 0)
(-0.45094456 0 0)
(-0.43412096 0 0)
(-0.41683364 0 0)
(-0.39902612 0 0)
(-0.38056047 0 0)
(-0.36137996 0 0)
(-0.34151602 0 0)
(-0.32085928 0 0)
(-0.29921807 0 0)
(-0.27659462 0 0)
(-0.25289322 0 0)
(-0.22791874 0 0)
(-0.20148488 0 0)
(-0.17334401 0 0)
(-0.14330125 0 0)
(-0.11120104 0 0)
(-0.076821186 0 0)
(-0.039834366 0 0)
(0 0 0)
(-0.80923382 0 0)
(-0.80167501 0 0)
(-0.793705 0 0)
(-0.78533535 0 0)
(-0.77657692 0 0)
(-0.76744709 0 0)
(-0.75796995 0 0)
(-0.74816785 0 0)
(-0.73805751 0 0)
(-0.72765478 0 0)
(-0.71697869 0 0)
(-0.70604806 0 0)
(-0.69487833 0 0)
(-0.68348101 0 0)
(-0.67186621 0 0)
(-0.66004206 0 0)
(-0.64801639 0 0)
(-0.63579398 0 0)
(-0.6233673 0 0)
(-0.61073668 0 0)
(-0.59790952 0 0)
(-0.58488816 0 0)
(-0.57165836 0 0)
(-0.5582046 0 0)
(-0.54452289 0 0)
(-0.5306048 0 0)
(-0.51641747 0 0)
(-0.5019297 0 0)
(-0.48713302 0 0)
(-0.47200334 0 0)
(-0.45647912 0 0)
(-0.44048782 0 0)
(-0.42401148 0 0)
(-0.40707029 0 0)
(-0.38961655 0 0)
(-0.37153591 0 0)
(-0.35277469 0 0)
(-0.33335482 0 0)
(-0.31317229 0 0)
(-0.29204665 0 0)
(-0.26995386 0 0)
(-0.2467884 0 0)
(-0.222346 0 0)
(-0.19646987 0 0)
(-0.16895929 0 0)
(-0.13960862 0 0)
(-0.10825609 0 0)
(-0.074729504 0 0)
(-0.038735412 0 0)
(0 0 0)
(-0.80925418 0 0)
(-0.80171244 0 0)
(-0.79375759 0 0)
(-0.7854009 0 0)
(-0.77665296 0 0)
(-0.76753151 0 0)
(-0.75806099 0 0)
(-0.74826379 0 0)
(-0.73815652 0 0)
(-0.72775499 0 0)
(-0.71707824 0 0)
(-0.70614516 0 0)
(-0.6949714 0 0)
(-0.68356889 0 0)
(-0.67194809 0 0)
(-0.66011717 0 0)
(-0.64808367 0 0)
(-0.63585253 0 0)
(-0.62341797 0 0)
(-0.61078038 0 0)
(-0.59794728 0 0)
(-0.58492076 0 0)
(-0.57168606 0 0)
(-0.55822672 0 0)
(-0.5445392 0 0)
(-0.5306163 0 0)
(-0.51642578 0 0)
(-0.50193526 0 0)
(-0.48713613 0 0)
(-0.47200503 0 0)
(-0.45647891 0 0)
(-0.44048783 0 0)
(-0.42401275 0 0)
(-0.40707238 0 0)
(-0.38961871 0 0)
(-0.37153717 0 0)
(-0.352773 0 0)
(-0.33334928 0 0)
(-0.31316326 0 0)
(-0.2920327 0 0)
(-0.26993914 0 0)
(-0.24677696 0 0)
(-0.22233792 0 0)
(-0.19646534 0 0)
(-0.16895733 0 0)
(-0.13960807 0 0)
(-0.10825655 0 0)
(-0.07473091 0 0)
(-0.038736698 0 0)
(0 0 0)
(-0.80926547 0 0)
(-0.80177659 0 0)
(-0.79387083 0 0)
(-0.78555877 0 0)
(-0.77685081 0 0)
(-0.76776461 0 0)
(-0.7583248 0 0)
(-0.74855406 0 0)
(-0.73846903 0 0)
(-0.72808542 0 0)
(-0.71742219 0 0)
(-0.70649865 0 0)
(-0.69533109 0 0)
(-0.6839317 0 0)
(-0.67231099 0 0)
(-0.66047782 0 0)
(-0.64843992 0 0)
(-0.63620154 0 0)
(-0.62375903 0 0)
(-0.6111139 0 0)
(-0.5982732 0 0)
(-0.58523858 0 0)
(-0.57199545 0 0)
(-0.55852705 0 0)
(-0.54482964 0 0)
(-0.53089668 0 0)
(-0.51669738 0 0)
(-0.50219886 0 0)
(-0.48739176 0 0)
(-0.47225282 0 0)
(-0.45671839 0 0)
(-0.44072101 0 0)
(-0.42423973 0 0)
(-0.40729264 0 0)
(-0.38983204 0 0)
(-0.37174219 0 0)
(-0.35296656 0 0)
(-0.33352966 0 0)
(-0.31333064 0 0)
(-0.29218467 0 0)
(-0.2700784 0 0)
(-0.24690697 0 0)
(-0.2224588 0 0)
(-0.19657641 0 0)
(-0.16905601 0 0)
(-0.13969227 0 0)
(-0.10832462 0 0)
(-0.074780116 0 0)
(-0.038762832 0 0)
(0 0 0)
(-0.80934 0 0)
(-0.80193988 0 0)
(-0.79411694 0 0)
(-0.78588083 0 0)
(-0.7772416 0 0)
(-0.76821673 0 0)
(-0.75883082 0 0)
(-0.74910676 0 0)
(-0.73906159 0 0)
(-0.72871114 0 0)
(-0.71807416 0 0)
(-0.70717039 0 0)
(-0.69601708 0 0)
(-0.68462703 0 0)
(-0.67301074 0 0)
(-0.66117769 0 0)
(-0.64913608 0 0)
(-0.63689024 0 0)
(-0.62443793 0 0)
(-0.61178171 0 0)
(-0.59892937 0 0)
(-0.58588193 0 0)
(-0.5726248 0 0)
(-0.5591411 0 0)
(-0.54542742 0 0)
(-0.53147789 0 0)
(-0.51726252 0 0)
(-0.50274815 0 0)
(-0.48792543 0 0)
(-0.47277115 0 0)
(-0.45722031 0 0)
(-0.44120785 0 0)
(-0.4247118 0 0)
(-0.40774943 0 0)
(-0.39027285 0 0)
(-0.37216533 0 0)
(-0.3533691 0 0)
(-0.33390918 0 0)
(-0.31368575 0 0)
(-0.29251302 0 0)
(-0.27038161 0 0)
(-0.24718664 0 0)
(-0.2227153 0 0)
(-0.1968089 0 0)
(-0.16926044 0 0)
(-0.1398651 0 0)
(-0.10846296 0 0)