/*--------------------------------*- C++ -*----------------------------------*\
| =========                 |                                                 |
| \\      /  F ield         | OpenFOAM: The Open Source CFD Toolbox           |
|  \\    /   O peration     | Version:  v2012                                 |
|   \\  /    A nd           | Website:  www.openfoam.com                      |
|    \\/     M anipulation  |                                                 |
\*---------------------------------------------------------------------------*/
FoamFile
{
    version     2.0;
    format      ascii;
    class       volVectorField;
    location    "35.9040569518127981";
    object      U;
}
// * * * * * * * * * * * * * * * * * * * * * * * * * * * * * * * * * * * * * //

dimensions      [0 1 -1 0 0 0 0];


internalField   nonuniform List<vector> 
9200
(
(2.5264516 0.00029747369 -2.0914939e-22)
(2.5240016 0.00089648144 -1.5266522e-23)
(2.5265563 -0.0009374315 -1.7162944e-22)
(2.520913 0.00047212201 2.5944961e-22)
(2.5248891 -0.003121271 2.4381792e-22)
(2.5290813 -0.0012735497 0)
(2.5162234 -0.00086294028 -4.0960646e-27)
(2.5231793 -0.0055937264 2.6882548e-22)
(2.5277466 -0.0043996272 6.0814436e-22)
(2.5317736 -0.0017197315 3.2146085e-22)
(2.5110477 -0.003367758 -3.2467208e-22)
(2.520376 -0.0088858169 -2.9578279e-22)
(2.5264144 -0.0074775437 -2.1679333e-22)
(2.5308614 -0.0058154992 -3.901818e-23)
(2.5351972 -0.0020415414 6.6929044e-23)
(2.505359 -0.007125603 -6.5247462e-22)
(2.5174802 -0.01270484 7.4700382e-23)
(2.5242215 -0.011345991 -3.4481047e-22)
(2.5300277 -0.0095837341 -2.5203855e-22)
(2.5345917 -0.0067526517 -2.6011879e-22)
(2.5388446 -0.0022723645 -3.5132649e-24)
(2.4996539 -0.011974334 -1.6108965e-22)
(2.5143491 -0.017422206 1.1797373e-21)
(2.5219673 -0.015478094 1.3411631e-21)
(2.5286145 -0.01408555 8.1794159e-22)
(2.534101 -0.010976798 2.3461753e-22)
(2.5384984 -0.0074410327 -6.48174e-23)
(2.5426642 -0.0024191254 -2.4746995e-23)
(2.4940936 -0.017899154 3.7653603e-22)
(2.5113179 -0.022688829 8.4096642e-22)
(2.519558 -0.020382931 1.2346138e-21)
(2.5272314 -0.018588993 5.7439083e-22)
(2.5332226 -0.015878725 1.2272981e-23)
(2.5383079 -0.01199834 -1.663937e-23)
(2.5425401 -0.0078938299 -1.4408932e-22)
(2.5465056 -0.0025056316 8.8433573e-23)
(2.4888933 -0.024625638 8.1584627e-22)
(2.5084367 -0.028627528 1.2700505e-21)
(2.517271 -0.025655998 -1.0736893e-21)
(2.5258071 -0.023715063 -2.6809044e-21)
(2.53241 -0.020598817 -1.1854632e-21)
(2.5378827 -0.017190299 6.4430063e-24)
(2.5425956 -0.012669632 1.3747094e-23)
(2.5465824 -0.0081664425 2.0458926e-22)
(2.5502985 -0.0025430969 -3.1750243e-22)
(2.4841331 -0.031980727 6.111319e-22)
(2.5057999 -0.035006433 -5.2731727e-22)
(2.5151871 -0.031496481 -1.9560569e-21)
(2.5245602 -0.028995673 -1.6786265e-21)
(2.5316046 -0.025813953 -2.7999076e-22)
(2.5375409 -0.022063971 6.3974165e-24)
(2.5425414 -0.018057467 4.6182374e-22)
(2.5468583 -0.013074909 -2.0184751e-22)
(2.5505615 -0.0082930323 -8.2996632e-23)
(2.5539787 -0.0025381899 2.5276355e-22)
(2.4798219 -0.039738778 5.2359078e-22)
(2.5034317 -0.041823814 4.9875194e-22)
(2.5134236 -0.037707797 -1.5642959e-21)
(2.5235649 -0.034657542 -1.6346746e-22)
(2.5309733 -0.031002217 1.4304572e-21)
(2.5372215 -0.027332781 -1.8068305e-22)
(2.5425663 -0.023044231 -2.045409e-22)
(2.547139 -0.018593805 -7.6176587e-23)
(2.5510476 -0.013262954 6.8952787e-23)
(2.5544187 -0.0082986217 3.0732057e-22)
(2.5575016 -0.0024949301 -8.3115364e-22)
(2.4759923 -0.04771957 -3.4305215e-22)
(2.5013302 -0.048977589 4.0916216e-23)
(2.5120344 -0.044330813 -5.520918e-22)
(2.5229328 -0.040489057 1.3628566e-21)
(2.5305822 -0.036390312 8.2538738e-22)
(2.5370317 -0.032431711 1.3945606e-22)
(2.5426018 -0.028369483 -7.8347882e-22)
(2.5474897 -0.023678622 3.4772153e-22)
(2.5516532 -0.01886016 -2.7335208e-22)
(2.5551169 -0.013267397 4.0575142e-22)
(2.5581122 -0.0081964646 -8.641596e-22)
(2.5608296 -0.002415745 7.7150036e-23)
(2.4726114 -0.05569444 6.0111998e-22)
(2.4994058 -0.056429454 -3.0417404e-22)
(2.5110488 -0.051298604 -2.7814892e-22)
(2.5227444 -0.046536679 -5.0212491e-23)
(2.5305418 -0.041735271 -1.1846511e-22)
(2.5370092 -0.037575762 -2.9560158e-22)
(2.5426848 -0.033442778 -4.0095889e-22)
(2.5478352 -0.029092872 -2.9240622e-22)
(2.5523276 -0.024033277 2.8469293e-22)
(2.556058 -0.018892132 -2.0772992e-22)
(2.559029 -0.013105363 8.1288136e-22)
(2.5616065 -0.0079920348 -1.0290381e-21)
(2.5639317 -0.0023032928 1.8343698e-21)
(2.4695815 -0.063439885 2.6543848e-22)
(2.4975335 -0.064145044 1.088474e-21)
(2.5104715 -0.058634245 5.3101172e-22)
(2.5230848 -0.052749813 -1.0535485e-22)
(2.5309523 -0.047056166 -7.3804602e-22)
(2.5372321 -0.042480466 -4.461622e-22)
(2.5428086 -0.038470697 7.0977471e-23)
(2.5481373 -0.034243855 2.5941538e-22)
(2.5529974 -0.029569738 6.4416506e-22)
(2.5570858 -0.024133889 2.8229944e-22)
(2.5603247 -0.018700646 9.6599456e-22)
(2.5627478 -0.01278517 -8.835063e-22)
(2.5648722 -0.0076887601 3.4409345e-21)
(2.5667826 -0.0021621017 -1.3008998e-21)
(2.4667579 -0.070753739 1.2398138e-22)
(2.4955676 -0.072111744 2.4286194e-22)
(2.5102845 -0.066374673 2.9547993e-22)
(2.5240361 -0.059172961 3.1898468e-23)
(2.5319365 -0.052251815 7.1802103e-22)
(2.5377762 -0.047114525 2.0443798e-21)
(2.5429937 -0.043139351 1.1154887e-21)
(2.548339 -0.039344207 -6.8222249e-23)
(2.5535524 -0.034898163 -5.4379912e-22)
(2.5581412 -0.029801994 -3.6397483e-23)
(2.5617486 -0.023971311 -1.6381962e-22)
(2.5644145 -0.018285091 6.7550705e-22)
(2.5662394 -0.012313259 1.5124517e-23)
(2.567885 -0.0072944315 -3.0273696e-22)
(2.5693655 -0.0019987355 -1.2199109e-21)
(2.4639577 -0.077495694 2.0560373e-21)
(2.4933233 -0.080359618 1.7344751e-21)
(2.5104475 -0.074599978 4.0975434e-22)
(2.5256743 -0.065853993 -6.4006182e-22)
(2.5336248 -0.057310842 7.1031649e-22)
(2.5387441 -0.051310751 2.6721989e-21)
(2.5432595 -0.047381676 3.3649104e-21)
(2.5483898 -0.044077015 -7.8291231e-23)
(2.5538927 -0.040254335 -2.1800215e-21)
(2.5590536 -0.035365619 -1.4670781e-22)
(2.5632708 -0.02974177 2.0074226e-21)
(2.5662748 -0.023522496 -6.4408533e-22)
(2.5682821 -0.017644857 -1.9290866e-22)
(2.5694736 -0.011699506 9.5409373e-22)
(2.5706262 -0.0068245728 -2.7368029e-21)
(2.5716737 -0.0018204922 1.4371711e-21)
(2.4609964 -0.08341066 -7.3269687e-22)
(2.4906053 -0.088904621 -1.0599688e-21)
(2.5108889 -0.083421357 -1.2246307e-22)
(2.5280824 -0.072893517 -1.4575495e-22)
(2.5361675 -0.062204714 -8.6661964e-22)
(2.5402519 -0.054975252 2.0464138e-22)
(2.5436464 -0.050984845 1.2767009e-22)
(2.5482339 -0.048368754 1.2817308e-21)
(2.5538989 -0.045348761 -7.0063451e-22)
(2.5596971 -0.041096639 4.7309017e-22)
(2.5646767 -0.035534149 -3.0194625e-22)
(2.5683402 -0.029324456 0)
(2.5706036 -0.022768582 1.816684e-22)
(2.5718808 -0.016787806 -2.2227548e-21)
(2.5724249 -0.01095947 -6.8096308e-22)
(2.5730835 -0.0063003563 -1.2876226e-22)
(2.5737094 -0.0016337162 -1.2892129e-21)
(2.4577007 -0.088522403 -4.3709579e-21)
(2.4872223 -0.097777869 -1.8721727e-21)
(2.5115372 -0.092958132 1.8232722e-22)
(2.5313406 -0.080417133 -7.4509224e-22)
(2.5397491 -0.066938663 1.5836309e-22)
(2.5424578 -0.057949289 -1.0511076e-21)
(2.5442086 -0.053772201 -6.1122215e-21)
(2.5478247 -0.05198695 -1.5552576e-21)
(2.553443 -0.050134613 8.575999e-22)
(2.5598993 -0.04675737 1.0904577e-21)
(2.5658367 -0.041661333 2.7160018e-22)
(2.5703708 -0.035271081 1.1996147e-21)
(2.5732637 -0.028497263 -1.2748952e-21)
(2.5746652 -0.021707491 1.2342535e-21)
(2.575168 -0.01573376 -1.4931982e-21)
(2.5750733 -0.010113959 -1.7694386e-21)
(2.5752513 -0.0057424385 -5.958067e-22)
(2.5754809 -0.0014426944 1.3885737e-22)
(2.4541286 -0.092679374 -5.2207114e-21)
(2.4828559 -0.10719391 6.8492417e-22)
(2.5122883 -0.10338844 7.0590694e-22)
(2.5355281 -0.088602673 2.6033929e-22)
(2.5445641 -0.071563435 -1.2088695e-21)
(2.5455376 -0.060156448 1.2935466e-22)
(2.5450403 -0.055503838 4.9025778e-22)
(2.5471275 -0.05471761 -2.7335248e-21)
(2.5523941 -0.054401789 -1.5436557e-21)
(2.5594807 -0.052353419 2.3077352e-21)
(2.5665488 -0.047951239 -1.488219e-21)
(2.5722559 -0.041712032 2.4907265e-21)
(2.5760153 -0.034467106 0)
(2.5779347 -0.027238519 1.6330815e-23)
(2.5783922 -0.020358984 -1.186611e-21)
(2.5781111 -0.014513693 1.2096338e-21)
(2.5774062 -0.0091870818 -1.1908809e-21)
(2.5771305 -0.00516521 -7.6402349e-22)
(2.5770013 -0.0012497869 3.3221057e-21)
(2.4499827 -0.095593552 1.2961671e-21)
(2.4773467 -0.11690902 1.5391327e-21)
(2.5130406 -0.11483971 4.0726802e-22)
(2.5407181 -0.097628374 -9.3943082e-22)
(2.5507859 -0.076153008 9.1561612e-22)
(2.5496935 -0.061487733 -2.1981979e-21)
(2.5461755 -0.056185798 -2.2104922e-22)
(2.5461091 -0.056387269 1.0452564e-21)
(2.5506191 -0.057980666 1.2687724e-21)
(2.5582471 -0.05773621 -3.1754278e-21)
(2.5666114 -0.05447626 -1.5739092e-21)
(2.5737903 -0.048543459 -3.6560915e-22)
(2.5787851 -0.0410519 -2.0275718e-22)
(2.5814494 -0.033065479 3.7970674e-22)
(2.5822454 -0.025565243 2.5286821e-21)
(2.5817291 -0.018763388 1.3112795e-21)
(2.5806904 -0.013166198 5.8484497e-22)
(2.5794198 -0.0082038675 1.4049424e-21)
(2.5787291 -0.0045758621 8.1325487e-22)
(2.5782864 -0.0010567455 2.2122523e-21)
(2.4453115 -0.09718744 3.0243086e-21)
(2.4704277 -0.12710692 5.7509546e-22)
(2.5136781 -0.12748835 -1.3325694e-21)
(2.5469921 -0.10770509 -5.6637337e-21)
(2.5586354 -0.080738624 2.117456e-21)
(2.555097 -0.061878561 -9.2891838e-22)
(2.5477564 -0.055180883 1.1248155e-21)
(2.5447212 -0.056618655 5.8563122e-22)
(2.547968 -0.060692228 4.9699807e-21)
(2.5559916 -0.062807417 1.0420293e-21)
(2.5657976 -0.061168706 -2.3387262e-21)
(2.5747814 -0.055906518 -7.0425826e-21)
(2.5813891 -0.048208116 3.0710469e-21)
(2.5851857 -0.039567406 -2.8989647e-23)
(2.5865045 -0.031073579 1.7204715e-21)
(2.5861039 -0.023530866 -6.569714e-22)
(2.5846396 -0.016976274 -1.3236628e-21)
(2.5829004 -0.011732987 1.6397411e-21)
(2.5811208 -0.007188247 7.2142066e-22)
(2.580061 -0.0039787072 -2.9468462e-22)
(2.5793463 -0.00086561395 -1.5876279e-21)
(2.4392287 -0.097511569 2.6048019e-21)
(2.4615103 -0.1379944 -1.2405636e-21)
(2.5141479 -0.14153674 2.1455415e-23)
(2.5544114 -0.11905856 5.4681886e-21)
(2.5683309 -0.085457205 -7.3984997e-21)
(2.5619613 -0.061168684 2.2914617e-21)
(2.5499472 -0.052621958 5.0537172e-21)
(2.5429563 -0.055396494 -5.2134073e-22)
(2.5443578 -0.062196537 4.5298417e-22)
(2.5525026 -0.067414137 1.0803786e-21)
(2.5638653 -0.068010304 3.6443766e-21)
(2.5750045 -0.063818512 -4.5917051e-21)
(2.5836734 -0.05613514 6.3840748e-22)
(2.5889993 -0.046744566 1.236181e-22)
(2.5911994 -0.037246229 6.8838305e-23)
(2.5910321 -0.028559536 -9.6735353e-22)
(2.5894465 -0.021216331 -1.5824214e-21)
(2.5871089 -0.015061172 -1.7389594e-21)
(2.5847499 -0.010254682 0)
(2.582525 -0.0061616998 0)
(2.5811439 -0.0033791312 8.9554224e-23)
(2.5801883 -0.00067749639 -1.3504825e-21)
(2.4315213 -0.096629338 -1.0139428e-21)
(2.4513499 -0.14946341 9.6406539e-23)
(2.5142924 -0.15707346 -1.3596627e-21)
(2.5629844 -0.13187663 5.4440719e-21)
(2.5800528 -0.090384523 -8.0081723e-21)
(2.5705163 -0.059327105 -2.7925625e-21)
(2.5528209 -0.048245098 -2.7733384e-21)
(2.5408623 -0.052259532 -1.9836281e-21)
(2.5396335 -0.062525584 3.9504808e-21)
(2.5475875 -0.071434932 -6.5001127e-21)
(2.5605669 -0.074944705 4.8123219e-21)
(2.5742192 -0.072351226 6.261037e-21)
(2.5854484 -0.064926887 -1.1914271e-21)
(2.5927979 -0.054833518 -1.3775275e-21)
(2.5962356 -0.044105101 -3.5183743e-23)
(2.5965924 -0.034173169 6.7048992e-22)
(2.5949244 -0.025638442 -2.0889606e-21)
(2.5922434 -0.018717809 -1.4138745e-21)
(2.5891439 -0.013082005 3.758823e-21)
(2.5862589 -0.008767377 2.9704662e-23)
(2.5836546 -0.0051421843 4.9218711e-23)
(2.5819971 -0.0027819196 1.6509464e-21)
(2.5808424 -0.0004926063 -7.0212784e-23)
(2.4226754 -0.094684361 -5.01634e-21)
(2.4397985 -0.16156064 1.4610587e-21)
(2.5139352 -0.17420144 -1.4338898e-22)
(2.5727041 -0.14639347 8.898989e-22)
(2.5940016 -0.09565002 6.7894986e-21)
(2.5809603 -0.056246159 4.6554187e-21)
(2.5564918 -0.041852961 -5.0034694e-21)
(2.5384165 -0.047090524 -9.5026764e-21)
(2.5336553 -0.061238714 -9.7361299e-21)
(2.5410343 -0.074661603 9.0828466e-21)
(2.5556426 -0.081916542 -1.2184908e-21)
(2.5721713 -0.081546995 7.9496872e-21)
(2.5865122 -0.074739232 -9.8790668e-22)
(2.5964546 -0.063984497 -4.4712714e-22)
(2.6015956 -0.051895273 -7.0659964e-22)
(2.6027408 -0.04039136 -1.209487e-21)
(2.6011895 -0.030510036 0)
(2.5981256 -0.022452748 0)
(2.5944984 -0.016133664 9.1426233e-23)
(2.5907695 -0.011096384 -1.4693238e-21)
(2.5874554 -0.0073001135 -1.2883726e-21)
(2.5845362 -0.0041431029 -5.2527286e-23)
(2.5826409 -0.0021904296 -2.8541039e-23)
(2.5813445 -0.00031242846 1.7222185e-22)
(2.4122733 -0.091630447 1.0168214e-21)
(2.4264233 -0.17445856 4.0137213e-21)
(2.5131094 -0.19300558 1.2384243e-21)
(2.5835795 -0.16277925 -1.2295113e-20)
(2.6103291 -0.10135641 2.8563235e-20)
(2.5934673 -0.051898329 6.4620745e-23)
(2.5610691 -0.033262169 -7.2989404e-22)
(2.535601 -0.039635505 6.471412e-21)
(2.526357 -0.05821415 -8.4162338e-21)
(2.5326395 -0.076992285 -1.3735468e-20)
(2.5488487 -0.088851921 -9.3980212e-21)
(2.5685974 -0.091444364 -5.7232939e-21)
(2.5866442 -0.085708183 8.6433735e-22)
(2.5998391 -0.074417296 1.4778926e-21)
(2.6072331 -0.060793179 -2.5936889e-21)
(2.6095347 -0.0474357 1.2094468e-21)
(2.6082382 -0.035826727 1.617292e-21)
(2.6048926 -0.02646558 -1.8635257e-21)
(2.600632 -0.019150927 -2.3127326e-21)
(2.5962441 -0.013552855 1.3000166e-21)
(2.5920236 -0.009150698 -1.7022337e-21)
(2.5883723 -0.0058737427 -2.3977264e-21)
(2.585197 -0.0031729999 -1.3566789e-22)
(2.5830967 -0.0016132862 0)
(2.58165 -0.00011495122 -1.7473996e-21)
(2.3992866 -0.087857478 1.156417e-21)
(2.4116082 -0.18795728 4.3978529e-21)
(2.5118574 -0.21347304 -1.8520501e-21)
(2.5955887 -0.18120706 -2.1059376e-20)
(2.6291765 -0.1076211 -2.7930038e-21)
(2.6081597 -0.046164077 -6.8543354e-21)
(2.56662 -0.02239425 7.462717e-22)
(2.532424 -0.029694137 1.070774e-21)
(2.5176396 -0.053262333 1.6425688e-20)
(2.522251 -0.078267114 -1.1783768e-20)
(2.5399583 -0.095677858 -9.5999081e-21)
(2.5632363 -0.10207253 3.6464784e-21)
(2.58561 -0.097972364 5.4641183e-22)
(2.6028015 -0.086345286 1.8634725e-21)
(2.613113 -0.071050039 2.1923407e-21)
(2.6170128 -0.055472943 -2.9478178e-21)
(2.6161909 -0.041756683 2.3555003e-21)
(2.6125644 -0.030712251 -5.6953113e-22)
(2.6076851 -0.0222617 1.0994362e-22)
(2.6024862 -0.015868217 1.7746509e-22)
(2.5975335 -0.011046559 5.6470633e-23)
(2.5929514 -0.0072776749 1.4078831e-21)
(2.5890438 -0.0045013482 4.0025547e-21)
(2.5856619 -0.0022361709 1.7068646e-22)
(2.58339 -0.0010610417 -4.253673e-23)
(2.5817859 0.00011242009 2.4043329e-22)
(2.3818514 -0.083257239 -2.4125116e-20)
(2.3946601 -0.20218644 -4.8781116e-21)
(2.5095418 -0.23531545 2.7869078e-22)
(2.6079832 -0.20142741 1.4253442e-20)
(2.6500064 -0.11452833 -2.3369104e-20)
(2.6251705 -0.039014484 2.8315148e-21)
(2.5731991 -0.0090200715 -6.2838821e-21)
(2.5288637 -0.017163885 -2.0380497e-21)
(2.5074272 -0.046216827 -5.6907889e-21)
(2.5097326 -0.078364837 2.6065865e-20)
(2.5287658 -0.10231476 1.8315923e-20)
(2.5558362 -0.11343376 1.3987627e-21)
(2.5831657 -0.11165629 2.8942715e-21)
(2.6051749 -0.099993768 -1.6833104e-21)
(2.6191868 -0.082925021 -3.5275056e-21)
(2.6252451 -0.064743838 1.764378e-21)
(2.6251601 -0.048421395 -4.277937e-22)
(2.6213014 -0.035285112 1.8562797e-21)
(2.6156793 -0.025374916 -3.9788558e-21)
(2.6096221 -0.01810228 1.7312798e-21)
(2.6037635 -0.012712617 2.4275822e-21)
(2.5984316 -0.0086640543 0)
(2.5936003 -0.0054965314 -6.5208235e-22)
(2.5895024 -0.0031892191 2.0372861e-21)
(2.5859523 -0.0013339979 0)
(2.5835476 -0.00052597075 9.8939254e-23)
(2.5818101 0.00028579115 1.9394364e-21)
(2.359202 -0.078686239 3.4158761e-21)
(2.3750008 -0.21666136 -9.6140006e-21)
(2.5048124 -0.2581875 4.0375449e-21)
(2.6186303 -0.22305755 9.8813518e-20)
(2.6694903 -0.12188387 1.2346945e-20)
(2.6438368 -0.030342604 -3.0525195e-20)
(2.5808145 0.0068279097 4.8278597e-21)
(2.5249276 -0.001824824 7.1661112e-21)
(2.4956481 -0.036983557 3.7424355e-21)
(2.4949781 -0.077177109 -3.1185589e-21)
(2.5151066 -0.10868164 -3.4330426e-21)
(2.5461704 -0.12551707 -5.0145977e-21)
(2.5790642 -0.12685879 6.7119418e-21)
(2.6067732 -0.11558335 -6.4532123e-21)
(2.6253931 -0.096702593 4.9741049e-22)
(2.634301 -0.075508531 4.1682254e-21)
(2.6353113 -0.056006521 -3.5167962e-21)
(2.6312643 -0.040232126 -3.6146647e-21)
(2.624786 -0.028496176 -3.0610151e-22)
(2.6176539 -0.020118467 8.688997e-23)
(2.610812 -0.014150187 1.0945846e-21)
(2.6045586 -0.0097578973 7.9238793e-23)
(2.5990065 -0.0064327436 0)
(2.594016 -0.0038149067 -1.8893369e-21)
(2.5897783 -0.0019379392 -5.9565337e-21)
(2.5860857 -0.00046745291 -2.9271712e-22)
(2.5835792 5.4267379e-06 -5.8558305e-23)
(2.5817182 0.00043660888 -2.1345017e-21)
(2.3325194 -0.073766413 4.022848e-20)
(2.3523878 -0.23216419 -2.5984692e-21)
(2.4985181 -0.28177997 3.0147848e-21)
(2.6259067 -0.24522644 9.6571174e-20)
(2.6847905 -0.12965784 -2.6295662e-21)
(2.6617794 -0.020115691 3.329893e-21)
(2.5886255 0.025253886 7.9907808e-21)
(2.5205495 0.016253325 -8.6030038e-21)
(2.4822705 -0.025428644 1.2572057e-20)
(2.4779166 -0.074635965 -1.3081899e-20)
(2.4988649 -0.11470039 -4.9704959e-21)
(2.5340423 -0.13828425 -7.0769356e-21)
(2.5730664 -0.14365244 4.3718459e-21)
(2.6073922 -0.1333132 4.8393766e-21)
(2.6316474 -0.11267825 2.2332501e-21)
(2.6442503 -0.08806438 -7.4288179e-22)
(2.6468272 -0.064721174 1.157642e-21)
(2.6426857 -0.045645921 1.7706602e-21)
(2.6351792 -0.031584757 4.4716937e-21)
(2.6267335 -0.02183739 2.3117077e-21)
(2.6186427 -0.01518633 2.1642169e-21)
(2.6113937 -0.01051552 2.2001165e-21)
(2.6049717 -0.0070434089 1.341548e-21)
(2.5993232 -0.0043613057 3.1620422e-21)
(2.5942392 -0.0022315988 1.3031271e-21)
(2.5898999 -0.00074418501 1.7356327e-21)
(2.5860827 0.00036310821 -9.9672121e-22)
(2.5834826 0.00052744128 -1.5284878e-22)
(2.5815177 0.00061674338 2.2682176e-22)
(2.3023739 -0.069577281 -1.3709088e-21)
(2.3263512 -0.24763215 1.7640989e-22)
(2.4884867 -0.30614592 5.4069981e-21)
(2.6322638 -0.26846661 -1.3009779e-20)
(2.697952 -0.1373756 2.6582648e-20)
(2.6769479 -0.0085921348 2.2378543e-21)
(2.5944166 0.046267608 -3.4258918e-20)
(2.5150951 0.037160575 3.282801e-22)
(2.4672243 -0.011576466 8.538731e-21)
(2.4585242 -0.07068353 -1.2655474e-20)
(2.4799751 -0.12030406 4.6976462e-21)
(2.5193055 -0.15167776 2.4641152e-22)
(2.5649465 -0.16206231 -6.4522127e-21)
(2.6068121 -0.15335894 1.0101592e-20)
(2.6378381 -0.13114263 -6.1201842e-21)
(2.6551488 -0.10273693 -1.6741582e-21)
(2.6599115 -0.07481519 1.8812237e-21)
(2.6558317 -0.051636955 -2.4389285e-21)
(2.647116 -0.034617963 2.1643232e-21)
(2.6370116 -0.023130153 6.327561e-22)
(2.6273631 -0.015669545 -2.7217e-21)
(2.6188496 -0.010742028 -7.6586746e-23)
(2.6115153 -0.0072547881 -1.3146038e-21)
(2.6050979 -0.0045788838 -1.0080775e-22)
(2.5994395 -0.0024444904 5.0700405e-23)
(2.5943039 -0.00073976654 2.0442121e-21)
(2.5898894 0.00039755742 2.8157095e-21)
(2.5859699 0.0011608551 1.1758619e-21)
(2.5832757 0.001028574 2.3136824e-22)
(2.5812161 0.00077975369 8.7459777e-22)
(2.2670809 -0.064228798 1.1851349e-22)
(2.2993403 -0.26420747 -2.8711821e-22)
(2.4753421 -0.33014966 -3.1098612e-21)
(2.630318 -0.29111966 -1.5159708e-19)
(2.709694 -0.14562321 -1.7964682e-19)
(2.6904722 0.0039406324 2.1322977e-20)
(2.5976798 0.069617389 2.1953421e-21)
(2.5068282 0.060691514 3.8571178e-21)
(2.4503647 0.0045709595 4.2086889e-21)
(2.4367949 -0.065350664 3.0940886e-20)
(2.458433 -0.12542924 2.7342469e-20)
(2.5018608 -0.16561675 8.1444749e-21)
(2.5545095 -0.18207867 -1.2715485e-20)
(2.6048033 -0.17584239 -8.5795407e-22)
(2.6438193 -0.15237726 4.1864849e-21)
(2.6670279 -0.11986991 -7.7698455e-22)
(2.6747743 -0.086577423 1.1963981e-22)
(2.6710118 -0.058347097 3.1968456e-21)
(2.6608967 -0.037577057 -1.4262037e-22)
(2.6487226 -0.023856751 -2.630067e-21)
(2.6370679 -0.01539769 1.7420514e-21)
(2.6269715 -0.010234456 -6.9716266e-22)
(2.6184938 -0.0068670118 -2.8407891e-21)
(2.6113176 -0.0043782586 -2.8351956e-21)
(2.6050205 -0.0023518733 -1.5295831e-21)
(2.5994037 -0.00066786735 -1.7363853e-21)
(2.594239 0.00067001405 1.6795668e-21)
(2.5897607 0.0014926269 -2.7874204e-21)
(2.5857614 0.0019296483 5.3637604e-22)
(2.5829773 0.0015038335 -1.0608683e-21)
(2.5808217 0.00091586108 -3.6140539e-22)
(2.2267773 -0.058532569 -5.9339963e-21)
(2.2667798 -0.28128635 6.7917082e-21)
(2.460855 -0.35452127 -3.1487214e-20)
(2.6250656 -0.31547481 -1.2217426e-19)
(2.7150836 -0.15455181 8.5352592e-21)
(2.705364 0.016118404 7.5906904e-20)
(2.6021631 0.094382008 1.8293978e-20)
(2.4962407 0.086346614 -7.0444267e-22)
(2.4311446 0.022684011 -1.800928e-21)
(2.4128108 -0.058639766 5.9360079e-20)
(2.4342887 -0.13005174 4.0149728e-20)
(2.4816773 -0.17999871 -1.4111765e-20)
(2.5415901 -0.20363156 0)
(2.6011337 -0.20084698 -1.7970246e-21)
(2.6494134 -0.17662451 9.3752836e-21)
(2.6798811 -0.13982088 -3.1872448e-21)
(2.6916187 -0.10033294 -2.5997044e-22)
(2.6885655 -0.065955032 -5.394321e-22)
(2.6768804 -0.040453924 -2.7343171e-22)
(2.6621432 -0.023863874 -8.7237652e-24)
(2.647927 -0.014130975 2.0807307e-21)
(2.6357761 -0.0087426382 4.5349558e-21)
(2.6258812 -0.0056499981 3.1785139e-21)
(2.6177828 -0.0035715363 -8.4708156e-22)
(2.6109217 -0.0018615637 1.2160914e-21)
(2.604807 -0.00033574486 1.5270615e-21)
(2.5992532 0.00098825882 5.1396096e-23)
(2.59407 0.0020087683 7.1701796e-22)
(2.5895295 0.0025446373 1.533511e-22)
(2.5854618 0.0026710072 5.4057903e-22)
(2.5825942 0.0019560649 2.2717299e-22)
(2.5803639 0.0010495439 2.8108557e-22)
(2.1869994 -0.052705376 4.1165096e-21)
(2.2292863 -0.30033667 -3.8901211e-21)
(2.4402912 -0.38069606 -6.5048603e-21)
(2.6185362 -0.33709485 7.8866459e-20)
(2.7142341 -0.16581601 4.8187151e-19)
(2.7240504 0.027713934 3.7802102e-20)
(2.6103998 0.12017105 -3.5135188e-20)
(2.4865858 0.1134693 0)
(2.4096319 0.042407289 0)
(2.386691 -0.050773942 -3.6650113e-20)
(2.4076709 -0.1341189 -4.3805701e-20)
(2.4587808 -0.19471869 2.8475442e-21)
(2.5260792 -0.22661449 -2.9289078e-21)
(2.5955748 -0.22837137 1.4292842e-20)
(2.6544046 -0.20409811 -1.9976061e-22)
(2.6936614 -0.16293982 -3.4641769e-21)
(2.7106255 -0.1164412 -7.59693e-21)
(2.7088503 -0.074678497 -3.7903188e-21)
(2.6954727 -0.043261823 2.5274311e-21)
(2.6776124 -0.02298253 3.1240427e-21)
(2.6601415 -0.011601204 3.6291037e-21)
(2.645339 -0.0059583477 3.055163e-21)
(2.6336063 -0.0033353722 -6.636329e-21)
(2.6243974 -0.0019253973 4.524539e-23)
(2.6168941 -0.00081226081 3.7070617e-22)
(2.6104242 0.00034195164 7.264605e-22)
(2.6045089 0.0015036811 1.281336e-21)
(2.5990158 0.0025447931 -1.0263028e-21)
(2.593814 0.0032884117 -1.1343798e-21)
(2.5892112 0.0035580852 1.5365457e-21)
(2.5850796 0.0033868855 1.0667863e-22)
(2.5821353 0.0023925557 4.3101182e-22)
(2.5798431 0.0011782683 -3.0759502e-23)
(2.1498483 -0.046586892 -9.5614351e-21)
(2.1897903 -0.32084715 -3.8897753e-20)
(2.4132691 -0.40886464 1.6062539e-20)
(2.6034203 -0.36150608 4.6876561e-20)
(2.7084016 -0.17333564 -4.9515526e-20)
(2.7217996 0.038026734 -2.0699227e-19)
(2.619757 0.14810848 -3.9712071e-20)
(2.478212 0.14273871 0)
(2.3870908 0.063258415 0)
(2.3584633 -0.041828964 -4.9484319e-20)
(2.3787997 -0.13768162 -2.267842e-20)
(2.4332677 -0.20963117 7.8409329e-21)
(2.5079045 -0.25086709 -3.8218788e-20)
(2.5879181 -0.25837741 2.7771535e-21)
(2.6585512 -0.23492963 3.5131981e-21)
(2.7082602 -0.18956995 2.4858104e-21)
(2.731947 -0.13528883 -6.1629368e-21)
(2.7322287 -0.084773096 -2.2036739e-21)
(2.7171227 -0.046038334 3.60965e-21)
(2.6955193 -0.021037027 3.2026798e-21)
(2.673967 -0.0074998883 -6.5057386e-21)
(2.6557495 -0.0015350166 -1.0553146e-21)
(2.6416371 0.00041518883 -5.3432123e-21)
(2.6310045 0.00081740308 6.8626138e-23)
(2.6227799 0.0010124687 8.6580438e-22)
(2.6159666 0.0014891499 4.1683701e-21)
(2.6098957 0.0022908675 -1.4660562e-21)
(2.6041622 0.0032030293 -2.7055949e-21)
(2.5987117 0.0040210021 -4.0647213e-22)
(2.5934822 0.0045186107 5.8941207e-23)
(2.588816 0.0045370902 2.6682269e-22)
(2.5846237 0.0040790924 -3.4927212e-22)
(2.58161 0.0028170203 -7.1952843e-23)
(2.5792639 0.00130155 2.0425126e-22)
(2.1166167 -0.040074345 -1.2982604e-20)
(2.1498558 -0.34219708 1.5844241e-21)
(2.3807531 -0.438086 6.3015617e-21)
(2.5794117 -0.38988755 -2.5998863e-20)
(2.6961756 -0.18411096 -2.4005583e-19)
(2.7040871 0.051230892 -9.2121862e-20)
(2.6081655 0.17684011 4.6617518e-20)
(2.4665626 0.17450118 -3.1563386e-21)
(2.3645957 0.086095069 0)
(2.3283336 -0.032338622 1.6878739e-21)
(2.347911 -0.14061925 3.4798986e-20)
(2.4052911 -0.22464385 1.0822069e-21)
(2.4870688 -0.27618254 1.9343192e-21)
(2.5779647 -0.29071437 -7.0155767e-22)
(2.6615782 -0.26922261 6.2047507e-21)
(2.7235198 -0.22000687 -7.7654729e-22)
(2.7556741 -0.15728128 3.4503963e-22)
(2.759062 -0.096544288 -4.7872417e-22)
(2.7423005 -0.048842836 1.3960553e-21)
(2.7163176 -0.01786124 -3.2730379e-21)
(2.6896999 -0.0014739832 -4.7322448e-21)
(2.6671305 0.0049321772 -5.3882779e-21)
(2.6499329 0.005976867 -2.8116038e-21)
(2.6374659 0.0049862224 -3.0291856e-21)
(2.6283469 0.0038332198 3.0022408e-21)
(2.6212268 0.0032893211 -5.4571187e-21)
(2.6150973 0.0034275974 2.271725e-21)
(2.609382 0.0040457541 -5.0422875e-21)
(2.603789 0.0047970334 -3.0311711e-22)
(2.5983542 0.005434604 -5.1024957e-21)
(2.5930843 0.0057073003 -2.0183991e-21)
(2.5883524 0.0054848954 -6.8157041e-22)
(2.5841025 0.0047486086 5.2749196e-23)
(2.5810264 0.0032284767 1.0185344e-22)
(2.5786358 0.0014192276 8.0337296e-22)
(2.0881475 -0.033151551 5.9635111e-21)
(2.1111945 -0.36348424 1.4892097e-20)
(2.3432612 -0.46805383 -1.3952623e-21)
(2.5485799 -0.41841149 2.9074015e-20)
(2.6761992 -0.19881908 1.0124281e-19)
(2.6787775 0.061550476 1.3901245e-19)
(2.5816063 0.20444278 -4.3333203e-20)
(2.4500767 0.20642401 1.0691912e-21)
(2.342614 0.11013243 -5.6447475e-21)
(2.297284 -0.021568885 1.3505451e-20)
(2.3151494 -0.14324798 -1.4530508e-20)
(2.3750801 -0.23951728 2.4085104e-20)
(2.4636046 -0.30235665 3.6539109e-20)
(2.5655713 -0.32521451 -7.6291672e-21)
(2.6631936 -0.3069321 6.2604815e-21)
(2.739198 -0.25452857 -1.6445937e-21)
(2.7818454 -0.18282914 -4.3983074e-21)
(2.789667 -0.11032479 8.2299208e-21)
(2.7715028 -0.051789665 8.5538404e-21)
(2.7404632 -0.013283629 -3.6324832e-21)
(2.7076732 0.0068106006 -3.2522447e-21)
(2.6796273 0.013887504 4.3404757e-21)
(2.6584627 0.013789967 6.6187141e-21)
(2.6436148 0.010937927 4.4324122e-21)
(2.6333659 0.0079377689 4.7824054e-22)
(2.6259154 0.0059079806 -7.3871254e-21)
(2.6198715 0.0050553323 -5.1651571e-21)
(2.6143444 0.0051011751 -1.7464694e-21)
(2.6089079 0.0056638949 6.0619249e-22)
(2.6034013 0.006315957 -1.7724667e-21)
(2.5979511 0.0068000491 6.6765511e-22)
(2.5926274 0.0068604278 2.7897351e-22)
(2.5878278 0.0064036049 1.3075322e-22)
(2.5835238 0.0053958556 -2.6625115e-23)
(2.580392 0.0036260375 -1.0880189e-22)
(2.5779652 0.0015313094 1.1276836e-21)
(2.0650893 -0.02583368 8.4729321e-20)
(2.0754804 -0.3839573 5.1846934e-20)
(2.3015205 -0.49795748 5.4353148e-20)
(2.5105693 -0.44675789 -2.5629683e-20)
(2.6460641 -0.21123016 -5.0416804e-20)
(2.6456761 0.068037787 -3.3231227e-21)
(2.5493355 0.23027112 6.7973362e-20)
(2.4273151 0.23571366 -2.1254772e-20)
(2.3205868 0.13516787 -7.9034121e-21)
(2.2667044 -0.01067914 -1.7094291e-20)
(2.2808217 -0.14501734 -5.7500853e-20)
(2.3428802 -0.25430853 2.8131969e-20)
(2.4376223 -0.3290572 0)
(2.5505892 -0.36159773 -1.5811064e-20)
(2.6631011 -0.34805011 6.4711401e-21)
(2.7550135 -0.29328648 -3.645609e-21)
(2.8103924 -0.21233727 -9.6569199e-21)
(2.8243327 -0.12649117 5.9519768e-22)
(2.805206 -0.054991775 -1.7867246e-21)
(2.7684713 -0.0071644303 -2.5323502e-21)
(2.7282634 0.017733275 5.562813e-21)
(2.6933902 0.025816524 3.3782193e-21)
(2.6671924 0.024336993 -3.1335241e-22)
(2.6492728 0.019090261 -7.3281566e-23)
(2.6375651 0.013625825 -6.5887646e-21)
(2.6297357 0.0095695369 1.7639167e-21)
(2.6238933 0.0072746434 1.5721979e-21)
(2.6187888 0.0064647018 6.935113e-21)
(2.6137345 0.0066014294 -2.171247e-21)
(2.6084819 0.0071950002 5.2142717e-21)
(2.6030028 0.0077844086 1.8228629e-22)
(2.5975066 0.0081282478 6.0449978e-21)
(2.5921168 0.0079819698 1.1895728e-21)
(2.5872485 0.0072942682 4.7744833e-22)
(2.5828945 0.0060208116 2.1105694e-22)
(2.5797136 0.0040093247 -4.3456572e-22)
(2.5772584 0.001637805 -2.0117784e-21)
(2.0479778 -0.01821312 1.2856753e-20)
(2.0441377 -0.40278793 -1.9364986e-20)
(2.2565117 -0.52684095 -4.4666312e-20)
(2.4651124 -0.47464466 4.503572e-22)
(2.6042774 -0.22191717 -9.5676753e-20)
(2.6028558 0.07886462 1.1249354e-19)
(2.5127056 0.25469256 1.1503537e-19)
(2.3970574 0.26597252 -1.7214772e-20)
(2.2964161 0.15718023 -2.5861471e-21)
(2.2371264 0.0029585025 -8.6871846e-21)
(2.245555 -0.14710949 3.035302e-21)
(2.3088659 -0.26845516 -5.072424e-20)
(2.4092485 -0.3561784 -2.6943064e-21)
(2.5329602 -0.39954116 1.6197031e-20)
(2.6609655 -0.39229031 -3.9017133e-22)
(2.7705933 -0.33649341 -1.7961612e-20)
(2.8411957 -0.24616314 -7.3995236e-21)
(2.8632472 -0.14542987 1.2048038e-20)
(2.8438864 -0.058624358 -1.3028037e-20)
(2.8008572 0.00068320015 2.135696e-21)
(2.7518601 0.031699544 2.8623646e-21)
(2.7086257 0.041239582 3.0012564e-21)
(2.6760852 0.038150911 -1.7473757e-22)
(2.6542357 0.029894888 -4.0816336e-21)
(2.6406439 0.021244925 -9.9263648e-21)
(2.6323414 0.01448954 -1.7860285e-21)
(2.6268252 0.010233931 -1.1224409e-21)
(2.6223744 0.0081690102 4.1257467e-21)
(2.6180042 0.0076593368 4.5165679e-21)
(2.6132692 0.0080068797 1.7700058e-21)
(2.6081009 0.0086790977 3.2407042e-21)
(2.6025925 0.0092208494 5.3546719e-21)
(2.5970224 0.0094266262 -1.4405895e-21)
(2.5915568 0.0090741472 -1.3608337e-21)
(2.5866201 0.0081571274 -4.4700344e-22)
(2.5822211 0.0066231716 -8.3508533e-22)
(2.5789978 0.0043778383 1.2870302e-21)
(2.5765214 0.0017387215 -1.3756105e-21)
(2.0371937 -0.010342853 -5.5073804e-20)
(2.018234 -0.41923407 -9.4477161e-20)
(2.2094326 -0.55377377 -1.6831975e-19)
(2.4122994 -0.50103433 6.9907069e-21)
(2.5510014 -0.23069007 4.6162376e-20)
(2.5504938 0.091205054 2.0170703e-19)
(2.4663205 0.28038136 -8.0385911e-20)
(2.3641354 0.2978871 5.1336455e-20)
(2.2661564 0.1847354 1.0750773e-21)
(2.2093936 0.012767197 1.9081622e-20)