/*--------------------------------*- C++ -*----------------------------------*\
| =========                 |                                                 |
| \\      /  F ield         | OpenFOAM: The Open Source CFD Toolbox           |
|  \\    /   O peration     | Version:  v2012                                 |
|   \\  /    A nd           | Website:  www.openfoam.com                      |
|    \\/     M anipulation  |                                                 |
\*---------------------------------------------------------------------------*/
FoamFile
{
    version     2.0;
    format      ascii;
    class       surfaceVectorField;
    location    "35.9040569518127981";
    object      Uf;
}
// * * * * * * * * * * * * * * * * * * * * * * * * * * * * * * * * * * * * * //

dimensions      [0 1 -1 0 0 0 0];


internalField   nonuniform List<vector> 
18180
(
(2.5251855 0.00061993468 -1.0895779e-22)
(2.5261673 -0.00033155618 -1.900378e-22)
(2.5224055 0.00066347472 1.2669454e-22)
(2.5241962 -0.001149991 1.1530922e-22)
(2.5256948 -0.0020439312 4.3057884e-23)
(2.5279754 -0.0011086579 -8.4367635e-23)
(2.5184896 -0.00020924003 1.2537588e-22)
(2.5219603 -0.002617634 2.6298574e-22)
(2.5240055 -0.0044159182 2.5674077e-22)
(2.5264399 -0.0037725059 4.304409e-22)
(2.5283916 -0.0028641137 3.1426631e-22)
(2.5304155 -0.0015008333 1.635645e-22)
(2.5135489 -0.0021619193 -1.6777718e-22)
(2.518423 -0.004949635 -1.5171063e-22)
(2.5217307 -0.0072866352 -2.2939116e-23)
(2.5248643 -0.0065533854 2.1443552e-23)
(2.5270582 -0.0060064925 1.8185088e-22)
(2.5293027 -0.0051208683 2.7847692e-22)
(2.5313022 -0.0038095192 1.3517855e-22)
(2.5335412 -0.0018836619 1.9168422e-22)
(2.5081081 -0.0053082731 -4.9406508e-22)
(2.5146611 -0.0081239791 -1.234676e-22)
(2.5188796 -0.010860434 -1.0433405e-22)
(2.5222897 -0.010139053 -3.2019713e-22)
(2.5252812 -0.0094714403 -2.8294697e-22)
(2.5282401 -0.0085504412 -2.3474743e-22)
(2.5304306 -0.007776236 -1.4909831e-22)
(2.5327831 -0.0062928881 -1.516455e-22)
(2.5348843 -0.0044485177 -1.0207724e-22)
(2.5370566 -0.0021591188 3.103953e-23)
(2.5024109 -0.0096326199 -3.9854949e-22)
(2.5105571 -0.0123707 2.8082937e-22)
(2.5158622 -0.015144377 6.4573325e-22)
(2.5196187 -0.014117521 7.1985866e-22)
(2.5230567 -0.013476846 5.2642386e-22)
(2.5264633 -0.012741541 2.4759927e-22)
(2.5292974 -0.01191074 3.008804e-22)
(2.5321195 -0.010293363 -4.1387116e-24)
(2.5343381 -0.0089467675 -4.4594252e-24)
(2.5365844 -0.0071033022 -1.6069289e-22)
(2.5386657 -0.0049154281 -3.5192991e-23)
(2.5407978 -0.002347122 -1.4329182e-23)
(2.4967806 -0.015041266 1.1673104e-22)
(2.506519 -0.017432422 3.4235902e-22)
(2.5127827 -0.020138164 1.0046756e-21)
(2.5167385 -0.018930336 1.2076924e-21)
(2.5207223 -0.018015767 1.2861032e-21)
(2.5246773 -0.01706282 9.505653e-22)
(2.5278998 -0.01640409 6.920857e-22)
(2.5309723 -0.01499899 4.0779749e-22)
(2.5336471 -0.013515518 1.1971963e-22)
(2.5362485 -0.011497156 1.0663174e-22)
(2.5384 -0.0098063638 -3.9920981e-23)
(2.5405653 -0.0076716801 -1.0501972e-22)
(2.5426001 -0.0052205198 -8.6418679e-23)
(2.544625 -0.0024631894 3.2903213e-23)
(2.4914063 -0.021376722 6.0355213e-22)
(2.5026284 -0.02336443 8.2174554e-22)
(2.509829 -0.025757563 1.0626984e-21)
(2.513959 -0.024200184 -1.4032106e-22)
(2.5183762 -0.023097836 4.1785259e-23)
(2.5227966 -0.022080366 -7.5839796e-22)
(2.5264954 -0.021243382 -1.1077966e-21)
(2.5298713 -0.019612782 -3.2206388e-22)
(2.5328027 -0.018307332 -6.0666136e-22)
(2.5356037 -0.016546822 9.3033055e-24)
(2.5380882 -0.014691235 -4.7114239e-24)
(2.5405006 -0.012340285 -1.5619383e-24)
(2.5425688 -0.010371995 -6.2526071e-23)
(2.5446041 -0.0080326921 3.3514914e-23)
(2.5465453 -0.0054041214 1.4845848e-22)
(2.5484412 -0.0025247157 -1.1829655e-22)
(2.4864334 -0.028432223 7.100586e-22)
(2.4990161 -0.029913962 1.4471326e-22)
(2.5070741 -0.031917459 3.4124768e-22)
(2.5113517 -0.030088796 -3.7339083e-22)
(2.5161942 -0.028673563 -1.5296585e-21)
(2.5210684 -0.027357288 -1.3818452e-21)
(2.5251628 -0.026431202 -2.1629723e-21)
(2.5287523 -0.024784207 -1.4579062e-21)
(2.5319938 -0.023301587 -7.175574e-22)
(2.5350342 -0.021345145 -5.777888e-22)
(2.5377061 -0.019698557 6.4194477e-24)
(2.5402654 -0.017632018 2.3839991e-22)
(2.5425676 -0.015467418 2.4529287e-22)
(2.544773 -0.012876071 -9.606854e-23)
(2.546725 -0.010713316 -5.4399581e-24)
(2.5486136 -0.0082309251 5.8294101e-23)
(2.5504344 -0.0054893974 -1.963188e-22)
(2.5521751 -0.0025405981 -2.7036827e-23)
(2.4819053 -0.035997809 5.6589429e-22)
(2.4957208 -0.036995222 5.6201566e-22)
(2.5045761 -0.03852887 2.9130687e-24)
(2.5090304 -0.036382283 -1.055575e-21)
(2.5142758 -0.034698055 -1.7536114e-21)
(2.519568 -0.033106796 -1.0447451e-21)
(2.5240459 -0.031919 -8.9565907e-22)
(2.5278071 -0.030017761 -9.5506362e-23)
(2.5312784 -0.02848192 6.0388997e-22)
(2.5344803 -0.026587621 -2.2940588e-22)
(2.5373758 -0.024797665 -9.0276824e-23)
(2.5401116 -0.022563295 -1.0104739e-22)
(2.5425543 -0.020625952 1.1747872e-22)
(2.5448914 -0.018330665 1.8778879e-22)
(2.5470034 -0.015943687 -1.3690659e-22)
(2.5489975 -0.013170696 -6.3663464e-23)
(2.5508127 -0.010871546 -4.4758339e-24)
(2.5525289 -0.0082958815 1.1581111e-22)
(2.5542061 -0.0054925336 2.809565e-22)
(2.555774 -0.0025161559 -2.99346e-22)
(2.4778429 -0.043878511 7.5744425e-23)
(2.4927348 -0.044445507 2.680298e-22)
(2.5023458 -0.045516471 2.6216083e-22)
(2.5070413 -0.043100619 -3.6570041e-23)
(2.5127057 -0.041126027 -1.0412301e-21)
(2.5184071 -0.03912465 -7.3211237e-23)
(2.5232383 -0.03765793 6.2527098e-22)
(2.5271057 -0.035540157 3.4023784e-22)
(2.5307712 -0.033784083 1.1177844e-21)
(2.534078 -0.03173038 7.722908e-22)
(2.5371234 -0.029956559 -1.5250317e-23)
(2.5399748 -0.027860853 -4.8772383e-22)
(2.5425846 -0.025810948 -5.0370742e-22)
(2.545085 -0.023367375 7.6755883e-23)
(2.5473202 -0.021215507 1.4287278e-22)
(2.5494455 -0.018729483 -1.7624967e-22)
(2.5513605 -0.016175007 -1.0793403e-22)
(2.553124 -0.013265221 2.4067294e-22)
(2.5547795 -0.010875825 3.581852e-22)
(2.5563014 -0.0082465899 -2.8942838e-22)
(2.5578171 -0.0054222807 -8.4820981e-22)
(2.5591965 -0.0024545978 -3.6851307e-22)
(2.4742451 -0.051860205 1.4485941e-22)
(2.4900117 -0.052156887 -3.2324717e-22)
(2.5003358 -0.052826642 -1.3741305e-22)
(2.5054016 -0.050159634 -1.2162269e-22)
(2.5115251 -0.047925106 -4.1052902e-22)
(2.5176493 -0.045454564 -2.9643656e-22)
(2.5228354 -0.043603044 6.32641e-22)
(2.5267593 -0.041123813 6.0830217e-22)
(2.5305613 -0.039137899 3.3764615e-22)
(2.5338788 -0.036994165 2.543923e-22)
(2.5370201 -0.03509008 -8.5361517e-23)
(2.5399263 -0.032946724 -1.3580769e-22)
(2.5426447 -0.030983945 -5.8581127e-22)
(2.545282 -0.028737961 -5.341765e-22)
(2.5476683 -0.026495447 1.6936247e-23)
(2.5499636 -0.023859279 3.1510176e-22)
(2.5520017 -0.021530137 1.501684e-23)
(2.5539021 -0.018876453 -2.39928e-22)
(2.5556032 -0.01619594 8.873443e-23)
(2.5571117 -0.01318487 6.13119e-22)
(2.558586 -0.010741256 2.4572915e-24)
(2.5598921 -0.0080923406 -9.4813253e-22)
(2.5612311 -0.0052825447 -4.9448327e-22)
(2.5624085 -0.0023584683 9.72171e-22)
(2.4710456 -0.059720582 4.276524e-22)
(2.4874488 -0.059999677 8.4938578e-22)
(2.4984383 -0.060416697 4.1549418e-22)
(2.5040778 -0.057552294 1.2128934e-22)
(2.5107505 -0.055084862 1.3999429e-22)
(2.5173493 -0.052037932 -1.8677382e-22)
(2.5229203 -0.049731576 -7.870784e-23)
(2.5268586 -0.046801243 -4.0057826e-22)
(2.5307539 -0.044471166 -4.3863817e-22)
(2.5339763 -0.042114873 -2.8445833e-22)
(2.5371244 -0.04009793 -3.7340447e-22)
(2.5399812 -0.038031622 -1.0830049e-22)
(2.5427488 -0.036046042 -1.5708481e-22)
(2.5454813 -0.03385083 -6.46023e-23)
(2.5479913 -0.031752564 -7.2529345e-24)
(2.5504777 -0.029335781 1.8462506e-22)
(2.5526737 -0.026917009 4.7044903e-22)
(2.5547588 -0.024084537 2.8347384e-22)
(2.5565891 -0.021599819 4.5491158e-23)
(2.5582347 -0.018794608 3.9008923e-22)
(2.5596986 -0.016020335 8.9200248e-22)
(2.5609238 -0.012942279 -5.1149689e-23)
(2.5621962 -0.010474783 -9.5383422e-22)
(2.5632689 -0.0078375649 1.2476403e-21)
(2.5644177 -0.0050762429 2.6645759e-21)
(2.5653819 -0.0022313785 2.3750843e-22)
(2.4681223 -0.067250435 1.923386e-22)
(2.4849064 -0.067857811 2.5393756e-22)
(2.4965176 -0.068266624 6.5149259e-22)
(2.5030077 -0.065280557 6.7872099e-22)
(2.5103749 -0.06263165 4.0929763e-22)
(2.517547 -0.058908743 2.7501277e-22)
(2.5235764 -0.056051865 -3.4427667e-23)
(2.5275077 -0.052496087 3.140502e-22)
(2.5314609 -0.049721091 1.4389112e-23)
(2.5344576 -0.04708592 6.8030278e-22)
(2.5375133 -0.044863739 8.4084112e-22)
(2.5401883 -0.042816093 3.4851642e-22)
(2.5429043 -0.040876415 6.1073191e-22)
(2.5456511 -0.038915645 7.8063979e-26)
(2.5482415 -0.036890892 9.0108679e-23)
(2.5509133 -0.034577145 -1.4968614e-22)
(2.5532842 -0.032326294 3.0288709e-23)
(2.5556282 -0.029688055 2.9691822e-22)
(2.5576312 -0.027088524 1.1761444e-22)
(2.559466 -0.024051094 5.5077436e-23)
(2.5610605 -0.021424796 3.8216855e-22)
(2.5624094 -0.018488994 8.1804035e-22)
(2.563609 -0.015651879 -7.7890062e-23)
(2.5645256 -0.01254481 -4.258051e-22)
(2.5655787 -0.010081503 1.6706447e-21)
(2.5664049 -0.0074879135 1.5341614e-21)
(2.5673523 -0.0048094373 -7.8509119e-22)
(2.5680957 -0.0020788929 -1.2596495e-21)
(2.4653108 -0.074262407 1.1223994e-21)
(2.4822082 -0.075647436 9.3819658e-22)
(2.4944078 -0.076381147 1.0136747e-21)
(2.5021072 -0.073379032 3.2788134e-22)
(2.5103687 -0.070626597 3.5453282e-22)
(2.5182684 -0.066109505 -1.8271198e-22)
(2.5248827 -0.062605315 -3.1534537e-22)
(2.5288128 -0.058224387 3.774638e-22)
(2.5328089 -0.054841334 7.1403963e-22)
(2.5354351 -0.051772505 1.7127786e-21)
(2.5382764 -0.049265308 2.3688101e-21)
(2.5405945 -0.047250626 2.7169832e-21)
(2.5431311 -0.045326751 2.2778885e-21)
(2.5457757 -0.043616979 5.0862543e-22)
(2.5483653 -0.041791102 -7.3425407e-23)
(2.5511918 -0.039807798 -1.1438101e-21)
(2.5537282 -0.037683708 -1.3893128e-21)
(2.5563694 -0.03513628 -3.4155101e-22)
(2.5586127 -0.032684472 -9.3399732e-23)
(2.5607616 -0.029771338 1.0045719e-21)
(2.5625352 -0.026980514 9.5815503e-22)
(2.5640567 -0.023742725 -4.0843102e-22)
(2.5653758 -0.020992739 -6.3834694e-24)
(2.5663843 -0.017959003 2.3320021e-22)
(2.567295 -0.015093417 -9.2375718e-23)
(2.567885 -0.012000655 4.9352042e-22)
(2.5687059 -0.0095704526 3.4672948e-22)
(2.5692787 -0.0070551153 -1.5424784e-21)
(2.570017 -0.0044931772 -2.0037754e-21)
(2.5705382 -0.0019079496 1.3341763e-22)
(2.4624274 -0.080593657 6.1491561e-22)
(2.4791501 -0.083307858 4.6586978e-22)
(2.4919187 -0.084783372 2.904033e-22)
(2.501256 -0.081919113 7.9507349e-22)
(2.5106756 -0.07916271 1.3472301e-22)
(2.519533 -0.073730763 1.2678349e-22)
(2.5269187 -0.069468795 -3.8462206e-22)
(2.5308877 -0.0639951 -7.5546274e-22)
(2.5349388 -0.059805582 -1.0458326e-22)
(2.5370339 -0.056121226 4.5274891e-22)
(2.5395233 -0.053178123 1.3970661e-21)
(2.5412707 -0.051144786 1.3761699e-21)
(2.5434595 -0.049230761 1.6920463e-21)
(2.5458373 -0.047884479 2.3022619e-21)
(2.5483093 -0.046299457 6.2450439e-22)
(2.551228 -0.044724789 -3.9526043e-22)
(2.5538959 -0.042896329 -1.4155503e-21)
(2.5568698 -0.040683376 -8.2874977e-22)
(2.5593861 -0.038349993 1.7356952e-22)
(2.5619286 -0.03545148 -2.2510739e-22)
(2.5639973 -0.032745491 8.140744e-22)
(2.5658572 -0.029529235 9.8500419e-22)
(2.5673421 -0.026548366 -3.1125993e-22)
(2.5684801 -0.023138514 -2.235758e-22)
(2.5694817 -0.020293646 6.5069531e-25)
(2.5701136 -0.017208339 -1.226754e-21)
(2.5707175 -0.014353883 -6.8752234e-22)
(2.5709743 -0.011322583 1.2131894e-22)
(2.5715557 -0.0089573873 -1.6744523e-21)
(2.5718749 -0.0065575709 -1.4084574e-21)
(2.5724022 -0.0041416175 6.2796509e-22)
(2.5727072 -0.0017253603 4.8549223e-23)
(2.4592933 -0.086118512 -2.6128274e-21)
(2.4755465 -0.090729801 -1.3131755e-21)
(2.4888571 -0.093519033 -1.4796883e-21)
(2.5003292 -0.09096941 -4.2710717e-22)
(2.5112239 -0.08836169 3.5042111e-23)
(2.5213394 -0.081891049 -4.3962345e-22)
(2.5297661 -0.076755795 -4.5547127e-22)
(2.5338622 -0.069860253 9.1516578e-24)
(2.5380183 -0.064614255 -3.3694692e-22)
(2.5394056 -0.060037233 -9.5981714e-22)
(2.5413918 -0.056477773 -4.4428009e-22)
(2.5422982 -0.054362524 -3.0127645e-21)
(2.5439369 -0.052406302 -3.0968435e-21)
(2.5458321 -0.051495309 -7.2719422e-22)
(2.5480224 -0.050236773 -1.8429557e-22)
(2.5509299 -0.049268189 1.0657174e-21)
(2.5536633 -0.047836419 1.0458409e-22)
(2.5569832 -0.04606623 2.1158076e-22)
(2.5598016 -0.044038077 7.9211214e-22)
(2.5628394 -0.041384279 3.7046926e-22)
(2.5652761 -0.038726478 -5.5707275e-24)
(2.5675833 -0.035400183 4.6281707e-22)
(2.5693895 -0.032409357 6.1988876e-22)
(2.5708492 -0.028903161 -6.4947825e-22)
(2.5719782 -0.025755791 -5.7099448e-22)
(2.572671 -0.022228149 7.1789417e-22)
(2.5733196 -0.01933039 -4.3638496e-22)
(2.5735526 -0.016250954 -1.85142e-21)
(2.5738424 -0.013451177 -1.1006786e-21)
(2.5737708 -0.010528825 -1.2353482e-21)
(2.5741117 -0.0082634658 -9.7657567e-22)
(2.5741843 -0.00601619 -3.6663938e-22)
(2.5745062 -0.0037682302 -9.3089152e-22)
(2.5746084 -0.0015364224 -5.6186294e-22)
(2.4558547 -0.090714036 -4.8100824e-21)
(2.4711491 -0.098034231 -1.7953517e-21)
(2.4849659 -0.10263805 -5.5074997e-22)
(2.4991902 -0.10063593 -5.5882166e-22)
(2.5119254 -0.098364793 4.5289569e-22)
(2.5236847 -0.090739494 2.2155912e-22)
(2.5335045 -0.084618875 -2.2551996e-22)
(2.5378756 -0.075907322 -9.8132219e-22)
(2.5422373 -0.069288209 -5.4817317e-22)
(2.5427176 -0.063484163 1.4358768e-22)
(2.5440493 -0.059051482 -4.4108979e-22)
(2.5437983 -0.056703762 -2.6546932e-22)
(2.5446384 -0.054665825 -2.7003278e-21)
(2.5457698 -0.054253796 -4.3914046e-21)
(2.5474644 -0.053400617 -2.1641345e-21)
(2.5502084 -0.053216914 -1.5471091e-21)
(2.5529009 -0.052351958 -3.8325397e-22)
(2.5565558 -0.051264716 1.5961509e-21)
(2.559683 -0.049672003 1.7194831e-21)
(2.5633069 -0.047365456 -2.2286531e-22)
(2.5662047 -0.04493244 -6.3777336e-22)
(2.5691152 -0.041687178 1.4012128e-21)
(2.5713449 -0.038626617 1.8667828e-21)
(2.5732479 -0.03486162 5.8892878e-22)
(2.5746856 -0.031594149 -6.1610933e-22)
(2.5756416 -0.027856173 -6.1714544e-22)
(2.5763547 -0.024590843 6.0490901e-22)
(2.5765608 -0.021020674 1.282038e-24)
(2.5768341 -0.018122959 -1.3347735e-21)
(2.5766639 -0.015112351 -1.1691305e-22)
(2.5766431 -0.012411519 -2.3003492e-22)
(2.5762581 -0.0096418738 -1.4747678e-21)
(2.5763648 -0.0075112286 -9.0330815e-22)
(2.576205 -0.0054484376 -6.8148318e-22)
(2.5763333 -0.0033825467 -3.2771061e-22)
(2.5762525 -0.0013444404 1.7601599e-21)
(2.4519861 -0.094215486 -1.8530006e-21)
(2.4658329 -0.10502265 -1.7770506e-21)
(2.4800089 -0.11218762 1.1263513e-21)
(2.4976283 -0.11108884 5.4347762e-22)
(2.512677 -0.10932077 5.515802e-22)
(2.5265466 -0.10045429 -1.3303432e-22)
(2.5382101 -0.093232539 -3.5966143e-22)
(2.5430575 -0.082261246 5.9411005e-22)
(2.5477793 -0.073878287 -1.1101041e-22)
(2.5471771 -0.066431409 -1.7127807e-21)
(2.5476852 -0.060802887 -1.0734386e-21)
(2.5459164 -0.058134117 -4.9116636e-23)
(2.5456269 -0.05581719 1.2268213e-22)
(2.5456909 -0.055953886 7.7532924e-22)
(2.5466012 -0.055572332 -7.8080979e-22)
(2.5489817 -0.056379569 -6.9517747e-22)
(2.5514768 -0.056267526 -9.032229e-23)
(2.5554249 -0.056100061 -2.3766778e-21)
(2.5588432 -0.055157777 -5.2568507e-22)
(2.5631407 -0.053434624 3.3084791e-22)
(2.5665811 -0.051351416 -1.5324989e-21)
(2.5702495 -0.048252886 -9.1648075e-22)
(2.5730488 -0.045264843 1.0147458e-21)
(2.5755846 -0.04137584 1.1189476e-21)
(2.5774465 -0.037895989 -1.0477197e-22)
(2.5787818 -0.033753257 1.9338367e-22)
(2.5797509 -0.030260364 2.0409961e-22)
(2.5801273 -0.026386308 1.2958746e-21)
(2.5803832 -0.023072202 7.3320348e-22)
(2.5800883 -0.019546323 8.5943497e-23)
(2.5799807 -0.016707366 1.2621575e-21)
(2.5794212 -0.013827384 8.9177093e-22)
(2.5791032 -0.011266631 -2.732974e-22)
(2.5784283 -0.0086863043 1.3121732e-22)
(2.5783135 -0.0067206581 3.56775e-22)
(2.5779413 -0.0048650369 3.9023112e-23)
(2.5778941 -0.0029892293 2.0256475e-21)
(2.5776523 -0.0011514647 2.7566914e-21)
(2.4475688 -0.096495449 2.1892152e-21)
(2.4592855 -0.11164737 9.2820194e-22)
(2.4737712 -0.12220578 1.0409492e-21)
(2.4955399 -0.12229842 7.5531877e-23)
(2.51337 -0.12141112 -4.9182341e-22)
(2.5299129 -0.11120536 -2.6852186e-21)
(2.5439603 -0.10279712 -3.3807936e-21)
(2.5495514 -0.089025387 6.1761395e-22)
(2.5548422 -0.078452448 1.5366856e-21)
(2.552971 -0.068882383 -2.3962519e-23)
(2.5524858 -0.061630993 -1.5422798e-21)
(2.5487975 -0.058275537 -5.0569409e-22)
(2.5469925 -0.05560992 4.7444301e-22)
(2.5455533 -0.056406361 1.8979674e-22)
(2.5453919 -0.05649859 8.0774079e-22)
(2.5471542 -0.058579852 3.0440704e-21)
(2.5492491 -0.059383544 3.1813929e-21)
(2.5534199 -0.060438942 1.1532965e-21)
(2.5570816 -0.060381847 -9.960517e-22)
(2.5621305 -0.059484393 -2.7508175e-21)
(2.5661909 -0.057963864 -1.9691253e-21)
(2.5707895 -0.055204709 -4.359014e-21)
(2.5743024 -0.052378697 -3.8158747e-21)
(2.5776649 -0.048372687 1.3846311e-21)
(2.5801307 -0.044771827 1.4889354e-21)
(2.5820435 -0.04029586 -1.1408832e-22)
(2.5833801 -0.036448913 1.6851974e-22)
(2.5840205 -0.032051007 1.0625478e-21)
(2.5844462 -0.028420459 2.1110545e-21)
(2.5842066 -0.024529123 9.0623351e-22)
(2.5839897 -0.02124731 2.942254e-22)
(2.5832076 -0.017853188 -3.0709738e-23)
(2.5827311 -0.01513116 -4.0133926e-22)
(2.5818122 -0.012436235 1.1221152e-21)
(2.5812184 -0.010050212 1.5262711e-21)
(2.5802826 -0.0076865854 1.0561517e-21)
(2.579965 -0.0059077679 7.6580029e-22)
(2.579404 -0.0042717136 2.4866395e-22)
(2.5792034 -0.0025908087 9.1678448e-22)
(2.5788211 -0.000959395 2.766953e-22)
(2.4421681 -0.097406346 2.8075208e-21)
(2.4513046 -0.11797572 8.5164967e-22)
(2.4658195 -0.13278099 -3.6317955e-22)
(2.4928212 -0.13445792 2.9291712e-22)
(2.5139209 -0.13479106 -6.3285293e-22)
(2.5337482 -0.12319424 2.1316412e-21)
(2.5508261 -0.11352463 8.8879747e-23)
(2.5575058 -0.096372944 -6.5473449e-21)
(2.5636457 -0.083094898 -2.8000686e-21)
(2.5603119 -0.070770788 2.2059554e-21)
(2.5586442 -0.061436726 7.3526185e-22)
(2.5525714 -0.057163984 2.1168478e-21)
(2.5488885 -0.053824864 3.1551286e-21)
(2.5454441 -0.055290798 2.8471333e-22)
(2.5438092 -0.055971794 1.3591343e-23)
(2.5446579 -0.059459498 5.1807655e-22)
(2.5461024 -0.061487334 2.6357899e-21)
(2.5503559 -0.064115629 2.9891108e-21)
(2.5541887 -0.065213607 1.0618464e-21)
(2.5600512 -0.065457196 2.3673328e-21)
(2.5647991 -0.064737284 7.5303133e-22)
(2.5705094 -0.062518236 -3.4861087e-21)
(2.5748967 -0.06002679 -5.7761096e-21)
(2.5793161 -0.056022967 -3.1308406e-21)
(2.5825695 -0.052333422 1.8140107e-21)
(2.5852628 -0.047462754 1.5699835e-21)
(2.5871563 -0.043295313 4.986779e-23)
(2.5882437 -0.038385253 2.0832436e-23)
(2.5889305 -0.034283186 8.67023e-22)
(2.5888055 -0.029793187 3.5217792e-22)
(2.5886504 -0.026135908 -8.1735449e-22)
(2.5878019 -0.022352066 -1.1282988e-21)
(2.5871235 -0.019185139 -1.4573703e-21)
(2.5858932 -0.016000891 -1.5351746e-21)
(2.5850751 -0.013447465 -1.0612759e-22)
(2.5838386 -0.010980057 8.0460449e-22)
(2.5829961 -0.0087948104 3.486388e-22)
(2.5818324 -0.0066654009 3.5465958e-22)
(2.5813343 -0.0050859457 -1.4240915e-22)
(2.5806091 -0.0036733262 -9.8985578e-23)
(2.5802752 -0.0021914156 -7.2093992e-22)
(2.5797736 -0.00076980162 -1.4669087e-21)
(2.4352458 -0.097071375 7.3474894e-22)
(2.4418657 -0.12397744 1.3269447e-21)
(2.4562597 -0.14392359 -5.496594e-22)
(2.4890926 -0.14771389 -1.3008167e-21)
(2.5142226 -0.1495852 -6.9226246e-22)
(2.5380004 -0.13661592 2.7836571e-21)
(2.5588416 -0.12562689 5.4557259e-21)
(2.5670374 -0.10445327 -1.3969615e-21)
(2.5743884 -0.087902941 -7.7135583e-21)
(2.5694236 -0.072148017 -5.0524981e-21)
(2.5663822 -0.060131483 -3.3578869e-22)
(2.5574057 -0.054586428 -2.8816627e-22)
(2.5514322 -0.050304554 1.0089713e-21)
(2.5454974 -0.052437493 1.4696224e-21)
(2.5418742 -0.053749557 -1.2769956e-21)
(2.5414161 -0.059027307 1.7521121e-21)
(2.5419165 -0.062383157 2.2603468e-21)
(2.5461104 -0.066901473 -3.0879892e-21)
(2.5499627 -0.069520663 -2.8368764e-21)
(2.5566756 -0.071249295 2.980922e-21)
(2.5621609 -0.071629425 4.2479126e-21)
(2.5691685 -0.070221045 4.9769474e-21)
(2.5745987 -0.068264191 1.016395e-21)
(2.5803313 -0.064382991 -2.8594221e-21)
(2.5845906 -0.06070846 -3.071397e-22)
(2.5883171 -0.055472256 -3.8824385e-22)
(2.5909621 -0.050949379 -6.5207483e-22)
(2.592678 -0.045400335 4.183273e-23)
(2.5938017 -0.040805439 1.5087057e-23)
(2.5939395 -0.035681161 3.7524616e-22)
(2.5939053 -0.031476224 -1.2103628e-22)
(2.5930091 -0.027071843 -1.5385712e-21)
(2.5922771 -0.023505704 -1.8441626e-21)
(2.5908665 -0.019943829 -1.4965816e-21)
(2.589762 -0.016966287 -1.5709804e-21)
(2.5881413 -0.01405316 1.0610728e-21)
(2.5870204 -0.01170902 1.9422787e-21)
(2.5855147 -0.0094971702 1.5875011e-23)
(2.5844544 -0.0075294959 1.534932e-23)
(2.5830969 -0.0056424368 2.5067694e-23)
(2.5824413 -0.0042669113 6.8711284e-23)
(2.5815751 -0.0030749556 8.8479311e-22)
(2.581123 -0.0017953306 2.0051188e-22)
(2.5805254 -0.00058333239 -6.9826134e-22)
(2.42695 -0.095620058 -3.0822562e-21)
(2.4308004 -0.12970744 2.4647778e-22)
(2.4453805 -0.15570589 8.0161611e-22)
(2.4845967 -0.16206573 -2.5752445e-23)
(2.5141078 -0.1659627 -7.311309e-22)
(2.5425787 -0.15163314 -2.1377008e-22)
(2.5680072 -0.13931084 3.0906211e-21)
(2.5782523 -0.11342445 6.1293683e-21)
(2.5872611 -0.092983275 -3.6121935e-22)
(2.5805037 -0.072996411 -1.5580231e-21)
(2.5759134 -0.057636483 1.0563057e-21)
(2.5634764 -0.050427149 -3.9186296e-21)
(2.5547179 -0.044864933 -3.9257932e-21)
(2.5457146 -0.047657208 -6.2022434e-21)
(2.5395984 -0.049563241 -5.8691979e-21)
(2.5373856 -0.056832512 -5.9344223e-21)
(2.5365442 -0.061857565 -3.1222168e-21)
(2.5404886 -0.068706115 6.5641817e-21)
(2.5442011 -0.073130662 1.5524837e-21)
(2.551772 -0.076772879 -3.8104164e-21)
(2.5580223 -0.078585986 1.6958867e-21)
(2.5665162 -0.078307034 6.410041e-21)
(2.573161 -0.077142586 7.1336423e-21)
(2.5804901 -0.073567356 2.5685767e-21)
(2.5859981 -0.07003189 -1.0862596e-21)
(2.5910486 -0.064446954 -8.1201062e-22)
(2.5946874 -0.059587354 -8.9675658e-22)
(2.5972686 -0.053337147 -1.0344239e-21)
(2.5990053 -0.048149461 -3.8212478e-22)
(2.5995395 -0.042213775 -6.3321841e-22)
(2.5997695 -0.037396589 -3.0094299e-22)
(2.5989268 -0.032307597 3.2991488e-22)
(2.5981617 -0.028167873 -1.0095465e-21)
(2.5965495 -0.024015998 -1.025089e-21)
(2.5952828 -0.020650216 -6.8329613e-22)
(2.5933875 -0.017401701 -6.4822578e-22)
(2.5919107 -0.014672572 1.8638043e-21)
(2.5899679 -0.012070708 1.0961235e-21)
(2.5885896 -0.0099630578 -7.4487747e-22)
(2.5868646 -0.0080200737 -6.408776e-22)
(2.5856186 -0.0062779808 -6.4195388e-22)
(2.5841004 -0.0046333303 -2.6016087e-24)
(2.5833091 -0.0034594969 7.7069672e-22)
(2.5823218 -0.0024806587 7.9556257e-22)
(2.5817718 -0.0014020987 -4.8678855e-23)
(2.5810912 -0.0004008338 5.3261887e-23)
(2.4172999 -0.093083912 -1.8985903e-21)
(2.4181748 -0.13532403 -4.1582253e-22)
(2.4328866 -0.16820828 2.7801956e-21)
(2.4792903 -0.17757961 1.3476423e-21)
(2.5135085 -0.18395054 5.7068848e-22)
(2.5474193 -0.16838309 -6.333286e-21)
(2.5783241 -0.15477457 -5.9236957e-21)
(2.5912222 -0.1234537 1.4985362e-20)
(2.6024392 -0.098451278 1.8041464e-20)
(2.593751 -0.073365464 3.3642381e-21)
(2.5874235 -0.05388199 2.2830451e-21)
(2.5709288 -0.044539917 1.912556e-21)
(2.5588572 -0.037325419 -2.7950294e-21)
(2.5461457 -0.040723764 8.4057078e-22)
(2.5369616 -0.043195423 -1.2478345e-21)
(2.5325209 -0.052755556 -8.9493898e-21)
(2.5298838 -0.059678439 -9.0540581e-21)
(2.5333072 -0.069261413 -1.17728e-20)
(2.5366962 -0.075892023 -2.7087023e-21)
(2.5451154 -0.081888137 -3.2587239e-22)
(2.5521318 -0.085540033 -5.4452965e-21)
(2.5622911 -0.086768648 -3.5125475e-21)
(2.5703245 -0.086703868 8.8418289e-22)
(2.5795556 -0.083666093 4.3421441e-21)
(2.5865804 -0.080444568 -3.0770666e-23)
(2.5932919 -0.074575267 2.6837906e-22)
(2.5982035 -0.069403679 5.4760394e-22)
(2.6019295 -0.062359266 -1.5402657e-21)
(2.6045086 -0.056510698 -1.6817189e-21)
(2.6056257 -0.049624152 2.6916002e-22)
(2.6062514 -0.044043533 4.0441004e-23)
(2.6055311 -0.038066716 2.2879633e-22)
(2.6048317 -0.033263253 8.3569085e-22)
(2.603069 -0.028450278 -9.4904056e-22)
(2.6016222 -0.024535294 -9.6291975e-22)
(2.5993972 -0.020771163 -1.1766668e-21)
(2.5976678 -0.017693839 -1.1508445e-21)
(2.5953833 -0.014819257 7.0788994e-22)
(2.5935983 -0.012377806 -3.8357264e-23)
(2.5914044 -0.010105426 -1.5879448e-21)
(2.5898159 -0.0082475723 -1.5022231e-21)
(2.5879189 -0.0065736388 -1.8526793e-21)
(2.5865184 -0.0050573732 -1.2643565e-21)
(2.5848695 -0.0036490085 -9.4871573e-23)
(2.5839617 -0.0026708421 -8.3897449e-23)
(2.5828706 -0.0018964783 -1.4004798e-23)
(2.58225 -0.0010122787 8.3226042e-23)
(2.5814848 -0.00021183778 -8.0483911e-22)
(2.4055622 -0.089614456 1.08896e-21)
(2.4040437 -0.1407027 2.7392376e-21)
(2.4187673 -0.18142289 4.2122287e-21)
(2.4729843 -0.1943336 1.0255339e-21)
(2.5124624 -0.20355485 -3.5863595e-22)
(2.5525106 -0.18699557 -1.011971e-20)
(2.5897855 -0.17219351 -1.6824206e-20)
(2.6060155 -0.13468432 -7.4546899e-21)
(2.6200689 -0.1044221 1.2359333e-20)
(2.6093192 -0.073244685 1.0523833e-20)
(2.6010599 -0.048795792 -3.5108719e-21)
(2.5798759 -0.036871263 4.1180075e-22)
(2.5639376 -0.027531902 3.2939657e-23)
(2.5468526 -0.031445147 1.87163e-22)
(2.5339592 -0.034446867 3.6805488e-21)
(2.526762 -0.046575268 1.1538285e-20)
(2.5218522 -0.055650414 4.4211504e-21)
(2.5244688 -0.068426197 -1.0131135e-20)
(2.5272711 -0.077674033 -1.2726908e-20)
(2.5364933 -0.086507902 -1.162947e-20)
(2.5442545 -0.092418159 -9.5023474e-21)
(2.5562409 -0.095584484 -2.7552488e-21)
(2.565827 -0.096980388 -8.8144918e-22)
(2.5772797 -0.094768699 -2.5305326e-21)
(2.5861098 -0.092085512 7.000505e-22)
(2.5948627 -0.086032594 1.3735588e-21)
(2.6013699 -0.080610474 1.6771374e-21)
(2.6065786 -0.072702488 1.8417181e-21)
(2.6102714 -0.066111609 -1.2058255e-22)
(2.6121945 -0.058083802 -2.7740272e-21)
(2.6133989 -0.051597677 -9.3872794e-22)
(2.6129112 -0.044543592 1.791124e-21)
(2.6123475 -0.038896772 1.9987411e-21)
(2.6104331 -0.033222087 5.0363033e-22)
(2.6088568 -0.028662532 -1.1948948e-21)
(2.6063093 -0.024324635 -8.5849437e-22)
(2.6042765 -0.02076512 -1.060898e-21)
(2.601572 -0.017479078 -1.0445205e-21)
(2.5994694 -0.014749447 7.1997855e-22)
(2.5968968 -0.012276397 6.6668891e-22)
(2.5948706 -0.010141118 -7.9348537e-22)
(2.5924924 -0.0081967483 -1.1825299e-22)
(2.5907384 -0.006589522 -4.3129802e-22)
(2.5887109 -0.0051747584 8.6196977e-22)
(2.5871847 -0.003878367 2.0026602e-21)
(2.5854305 -0.0026958531 2.0360698e-23)
(2.5844223 -0.0019096563 8.8199868e-23)
(2.583245 -0.001332021 -2.1664284e-23)
(2.5825491 -0.00062684629 -8.6641091e-22)
(2.5817197 8.4999581e-07 -7.3498351e-22)
(2.3902766 -0.085405388 -1.1908292e-20)
(2.3876186 -0.14610078 -1.9177901e-21)
(2.4028499 -0.19527422 -3.9567834e-22)
(2.4654815 -0.21208273 2.2994418e-21)
(2.5106608 -0.22470769 -7.5094976e-22)
(2.5574717 -0.20733721 6.3518892e-21)
(2.6019938 -0.19160878 -2.810828e-21)
(2.6223545 -0.14724414 -2.2235839e-20)
(2.6399408 -0.1110081 -1.3426077e-20)
(2.6273607 -0.072676949 7.1794813e-23)
(2.6169504 -0.042309547 -1.8489982e-21)
(2.5903932 -0.02724583 -6.5637911e-21)
(2.5700199 -0.015354938 -2.8866834e-21)
(2.5478608 -0.01973063 -6.6961553e-22)
(2.5305842 -0.023147106 -5.3576098e-22)
(2.5200794 -0.038108576 -2.3693287e-21)
(2.5123622 -0.04960922 4.9966873e-21)
(2.5138535 -0.066045684 2.1334847e-20)
(2.515782 -0.078336207 7.775445e-21)
(2.5257219 -0.090513172 3.5440459e-21)
(2.5341745 -0.099143675 4.8258079e-21)
(2.5481263 -0.10471986 -3.999026e-21)
(2.5594123 -0.10798726 2.4849633e-21)
(2.5734103 -0.1069529 3.2647518e-21)
(2.5843469 -0.10508465 1.7596654e-21)
(2.5955612 -0.099001688 -5.8959553e-22)
(2.6040279 -0.093429008 3.0696645e-23)
(2.6111174 -0.084603499 -8.8177214e-22)
(2.6162515 -0.077203714 -7.6331649e-22)
(2.6192638 -0.06783861 1.974408e-21)
(2.6212667 -0.060270377 -5.1288254e-22)
(2.6211427 -0.051881933 -1.6615075e-21)
(2.6208255 -0.045201298 9.1730579e-22)
(2.6187823 -0.038460988 2.1012729e-21)
(2.617079 -0.033076245 6.8393147e-22)
(2.6141443 -0.027994124 -2.3057634e-21)
(2.6118158 -0.023870962 -2.002799e-21)
(2.6086671 -0.020143403 9.3564264e-22)
(2.6061734 -0.017028056 9.8033969e-22)
(2.6031328 -0.014261102 1.3234098e-21)
(2.6007526 -0.011907144 1.2816496e-21)
(2.5979871 -0.0098331464 2.7710614e-23)
(2.5957831 -0.0080037059 6.8041294e-22)
(2.5932783 -0.0063705193 3.5874413e-22)
(2.5913982 -0.0050051206 1.5974273e-21)
(2.589274 -0.0038330589 3.0022981e-21)
(2.5876464 -0.0027461672 1.135205e-21)
(2.5858062 -0.0017766745 8.3754912e-23)
(2.584714 -0.0011789295 -2.0556495e-23)
(2.5834676 -0.00078851951 2.9517816e-23)
(2.5826962 -0.00024072222 1.6731621e-22)
(2.5818067 0.00020071025 1.1057416e-21)
(2.3701469 -0.080772877 -9.8927964e-21)
(2.3677618 -0.15121823 -1.6732614e-20)
(2.3845008 -0.20962259 -7.3254733e-21)
(2.4556778 -0.23071471 -3.362495e-22)
(2.5070978 -0.24706093 2.2211486e-21)
(2.5609602 -0.22907154 5.0470565e-20)
(2.6134853 -0.21259305 5.7951425e-20)
(2.6381985 -0.16091179 1.3282365e-20)
(2.6600751 -0.1182023 -4.912179e-21)
(2.6472874 -0.07164911 -2.7013995e-20)
(2.6348166 -0.034356567 -1.440617e-20)
(2.6025413 -0.015665964 3.8482962e-21)
(2.5771345 -0.00070625022 -5.4169111e-22)
(2.5492047 -0.0053557721 5.645414e-22)
(2.5268297 -0.0091636685 2.7183555e-21)
(2.5124297 -0.027257252 9.0567346e-22)
(2.5013401 -0.041418577 -8.1602879e-22)
(2.5013681 -0.061983013 -4.378548e-21)
(2.502108 -0.077762156 1.0984456e-20)
(2.5126509 -0.093803187 1.1044168e-20)
(2.5217073 -0.10563618 7.0769498e-21)
(2.5377307 -0.11413012 6.4384212e-21)
(2.5508413 -0.11971921 -1.9153769e-21)
(2.5676989 -0.12027011 4.1052966e-21)
(2.5810462 -0.1195533 4.8670562e-21)
(2.5951735 -0.11365599 -1.865637e-21)
(2.6060009 -0.10808079 -4.148137e-21)
(2.6154328 -0.098317728 -5.7284436e-22)
(2.6223938 -0.090060869 -1.4476707e-21)
(2.6268444 -0.079148244 3.9132874e-22)
(2.6299246 -0.070309138 3.0065264e-21)
(2.6303434 -0.060294443 -9.2728186e-22)
(2.6304055 -0.052336752 -2.0239627e-21)
(2.628253 -0.044251045 -2.050664e-21)
(2.6264495 -0.037836064 -9.7066559e-22)
(2.623068 -0.031827814 7.5509109e-22)
(2.6203849 -0.026986075 -2.0810881e-21)
(2.6166803 -0.022697992 -1.9083369e-21)
(2.6137722 -0.019144031 8.8160569e-22)