/*--------------------------------*- C++ -*----------------------------------*\
| =========                 |                                                 |
| \\      /  F ield         | OpenFOAM: The Open Source CFD Toolbox           |
|  \\    /   O peration     | Version:  v2012                                 |
|   \\  /    A nd           | Website:  www.openfoam.com                      |
|    \\/     M anipulation  |                                                 |
\*---------------------------------------------------------------------------*/
FoamFile
{
    version     2.0;
    format      ascii;
    class       volVectorField;
    location    "69.7435890445533886";
    object      cellDisplacement;
}
// * * * * * * * * * * * * * * * * * * * * * * * * * * * * * * * * * * * * * //

dimensions      [0 1 0 0 0 0 0];


internalField   nonuniform List<vector> 
9200
(
(-0.010592961 0 0)
(-0.010655248 0 0)
(-0.030795664 0 0)
(-0.010747456 0 0)
(-0.030937235 0 0)
(-0.049642651 0 0)
(-0.010867604 0 0)
(-0.03117518 0 0)
(-0.049846475 0 0)
(-0.067148035 0 0)
(-0.011014789 0 0)
(-0.031516486 0 0)
(-0.050221216 0 0)
(-0.067415141 0 0)
(-0.083371472 0 0)
(-0.011175698 0 0)
(-0.031922619 0 0)
(-0.050739475 0 0)
(-0.067905439 0 0)
(-0.083700245 0 0)
(-0.098341951 0 0)
(-0.01134069 0 0)
(-0.03236442 0 0)
(-0.051349634 0 0)
(-0.068542148 0 0)
(-0.084250883 0 0)
(-0.098705027 0 0)
(-0.11212322 0 0)
(-0.011508677 0 0)
(-0.032829196 0 0)
(-0.052035898 0 0)
(-0.069335895 0 0)
(-0.085013393 0 0)
(-0.099340577 0 0)
(-0.11252955 0 0)
(-0.12475838 0 0)
(-0.011672116 0 0)
(-0.033295656 0 0)
(-0.052759157 0 0)
(-0.070223093 0 0)
(-0.08593276 0 0)
(-0.10017995 0 0)
(-0.1132144 0 0)
(-0.12519122 0 0)
(-0.1363285 0 0)
(-0.011832843 0 0)
(-0.033761702 0 0)
(-0.05349594 0 0)
(-0.071166265 0 0)
(-0.0869684 0 0)
(-0.10117794 0 0)
(-0.11411004 0 0)
(-0.12593621 0 0)
(-0.13679442 0 0)
(-0.14688138 0 0)
(-0.011985406 0 0)
(-0.034211643 0 0)
(-0.054230885 0 0)
(-0.072138332 0 0)
(-0.088093266 0 0)
(-0.10235629 0 0)
(-0.11523227 0 0)
(-0.12692176 0 0)
(-0.13757941 0 0)
(-0.147362 0 0)
(-0.15650192 0 0)
(-0.012131941 0 0)
(-0.034649238 0 0)
(-0.054950199 0 0)
(-0.073109364 0 0)
(-0.0892595 0 0)
(-0.10362173 0 0)
(-0.11646919 0 0)
(-0.12805985 0 0)
(-0.13859443 0 0)
(-0.14818412 0 0)
(-0.15699867 0 0)
(-0.16523467 0 0)
(-0.012268891 0 0)
(-0.035061721 0 0)
(-0.055646293 0 0)
(-0.07407006 0 0)
(-0.090433529 0 0)
(-0.10494334 0 0)
(-0.1178478 0 0)
(-0.12940401 0 0)
(-0.13983387 0 0)
(-0.14925748 0 0)
(-0.15783382 0 0)
(-0.1657317 0 0)
(-0.17316869 0 0)
(-0.012398157 0 0)
(-0.035456074 0 0)
(-0.056313263 0 0)
(-0.075000749 0 0)
(-0.091597025 0 0)
(-0.10628802 0 0)
(-0.11929594 0 0)
(-0.13085769 0 0)
(-0.14119855 0 0)
(-0.15049444 0 0)
(-0.15891307 0 0)
(-0.16657877 0 0)
(-0.17366764 0 0)
(-0.18034583 0 0)
(-0.012517987 0 0)
(-0.035822637 0 0)
(-0.056946446 0 0)
(-0.075900547 0 0)
(-0.092730759 0 0)
(-0.10761637 0 0)
(-0.12076957 0 0)
(-0.13239119 0 0)
(-0.14269091 0 0)
(-0.15190423 0 0)
(-0.1602025 0 0)
(-0.16767609 0 0)
(-0.17450169 0 0)
(-0.18083236 0 0)
(-0.18685078 0 0)
(-0.012629313 0 0)
(-0.036168216 0 0)
(-0.057543759 0 0)
(-0.076754829 0 0)
(-0.0938265 0 0)
(-0.10892413 0 0)
(-0.1222426 0 0)
(-0.1339654 0 0)
(-0.1442833 0 0)
(-0.15342765 0 0)
(-0.16160054 0 0)
(-0.16893187 0 0)
(-0.17557391 0 0)
(-0.1816524 0 0)
(-0.18732491 0 0)
(-0.19271756 0 0)
(-0.012731636 0 0)
(-0.03648583 0 0)
(-0.058102279 0 0)
(-0.077568096 0 0)
(-0.094874639 0 0)
(-0.11018209 0 0)
(-0.12368489 0 0)
(-0.13554722 0 0)
(-0.14592905 0 0)
(-0.15504237 0 0)
(-0.16312197 0 0)
(-0.17034931 0 0)
(-0.1768429 0 0)
(-0.18270486 0 0)
(-0.18810865 0 0)
(-0.1931681 0 0)
(-0.19802636 0 0)
(-0.012825388 0 0)
(-0.036781718 0 0)
(-0.058623167 0 0)
(-0.078329122 0 0)
(-0.095869262 0 0)
(-0.11139609 0 0)
(-0.12508987 0 0)
(-0.13710521 0 0)
(-0.1475859 0 0)
(-0.15672044 0 0)
(-0.16472999 0 0)
(-0.17184429 0 0)
(-0.17820785 0 0)
(-0.18391086 0 0)
(-0.18911064 0 0)
(-0.1939171 0 0)
(-0.19845425 0 0)
(-0.20280494 0 0)
(-0.012910804 0 0)
(-0.037051723 0 0)
(-0.059105232 0 0)
(-0.079044267 0 0)
(-0.096808015 0 0)
(-0.11254366 0 0)
(-0.12643582 0 0)
(-0.13862605 0 0)
(-0.14923336 0 0)
(-0.15842281 0 0)
(-0.16641459 0 0)
(-0.17343836 0 0)
(-0.17967688 0 0)
(-0.18525849 0 0)
(-0.19028687 0 0)
(-0.19486689 0 0)
(-0.19914802 0 0)
(-0.20320086 0 0)
(-0.20712491 0 0)
(-0.012987757 0 0)
(-0.037300048 0 0)
(-0.059549676 0 0)
(-0.079704437 0 0)
(-0.09768556 0 0)
(-0.11363518 0 0)
(-0.12772511 0 0)
(-0.14009311 0 0)
(-0.15084224 0 0)
(-0.16012546 0 0)
(-0.16813978 0 0)
(-0.17510155 0 0)
(-0.181223 0 0)
(-0.18667227 0 0)
(-0.19155041 0 0)
(-0.1959512 0 0)
(-0.20002239 0 0)
(-0.20384135 0 0)
(-0.20748931 0 0)
(-0.21100599 0 0)
(-0.013057033 0 0)
(-0.037524793 0 0)
(-0.059957959 0 0)
(-0.080318044 0 0)
(-0.098504579 0 0)
(-0.1146529 0 0)
(-0.12894067 0 0)
(-0.14149809 0 0)
(-0.15240713 0 0)
(-0.16179534 0 0)
(-0.16986279 0 0)
(-0.17681205 0 0)
(-0.18283848 0 0)
(-0.18815322 0 0)
(-0.19289581 0 0)
(-0.19715859 0 0)
(-0.20104038 0 0)
(-0.20463672 0 0)
(-0.20806016 0 0)
(-0.21133274 0 0)
(-0.21451234 0 0)
(-0.013118432 0 0)
(-0.037728616 0 0)
(-0.060330373 0 0)
(-0.08087751 0 0)
(-0.099259232 0 0)
(-0.11560854 0 0)
(-0.13008963 0 0)
(-0.14283369 0 0)
(-0.15390697 0 0)
(-0.1634253 0 0)
(-0.17157239 0 0)
(-0.1785356 0 0)
(-0.18450878 0 0)
(-0.18970088 0 0)
(-0.19429316 0 0)
(-0.19840952 0 0)
(-0.20212753 0 0)
(-0.20553666 0 0)
(-0.20876105 0 0)
(-0.21183762 0 0)
(-0.21480292 0 0)
(-0.21765789 0 0)
(-0.013172884 0 0)
(-0.037910974 0 0)
(-0.06066902 0 0)
(-0.081391551 0 0)
(-0.099955769 0 0)
(-0.11648822 0 0)
(-0.1311583 0 0)
(-0.14409321 0 0)
(-0.15534347 0 0)
(-0.16499508 0 0)
(-0.17323558 0 0)
(-0.18025153 0 0)
(-0.18620952 0 0)
(-0.19130378 0 0)
(-0.19574946 0 0)
(-0.19971191 0 0)
(-0.203276 0 0)
(-0.20653139 0 0)
(-0.20956285 0 0)
(-0.21243962 0 0)
(-0.21522885 0 0)
(-0.21790825 0 0)
(-0.22049786 0 0)
(-0.013220225 0 0)
(-0.038073693 0 0)
(-0.060974187 0 0)
(-0.081855112 0 0)
(-0.10058929 0 0)
(-0.1173045 0 0)
(-0.13215623 0 0)
(-0.14527606 0 0)
(-0.15670086 0 0)
(-0.16650086 0 0)
(-0.17485379 0 0)
(-0.18193242 0 0)
(-0.18790374 0 0)
(-0.19294354 0 0)
(-0.19725172 0 0)
(-0.20104781 0 0)
(-0.20445674 0 0)
(-0.20755194 0 0)
(-0.21040972 0 0)
(-0.21310404 0 0)
(-0.21572244 0 0)
(-0.21825985 0 0)
(-0.22070947 0 0)
(-0.2230401 0 0)
(-0.013261509 0 0)
(-0.03821738 0 0)
(-0.061248903 0 0)
(-0.082275958 0 0)
(-0.10116747 0 0)
(-0.11804677 0 0)
(-0.13307312 0 0)
(-0.14637636 0 0)
(-0.15798373 0 0)
(-0.16793165 0 0)
(-0.17640176 0 0)
(-0.18356916 0 0)
(-0.18958062 0 0)
(-0.19459422 0 0)
(-0.19881283 0 0)
(-0.20246071 0 0)
(-0.20569124 0 0)
(-0.20860954 0 0)
(-0.2112944 0 0)
(-0.21382902 0 0)
(-0.2162657 0 0)
(-0.21864162 0 0)
(-0.2209778 0 0)
(-0.22321166 0 0)
(-0.22533254 0 0)
(-0.013296906 0 0)
(-0.038343234 0 0)
(-0.061492923 0 0)
(-0.082650553 0 0)
(-0.10168561 0 0)
(-0.1187269 0 0)
(-0.13391907 0 0)
(-0.14739698 0 0)
(-0.15917918 0 0)
(-0.16928398 0 0)
(-0.17788561 0 0)
(-0.18514641 0 0)
(-0.19121224 0 0)
(-0.19623799 0 0)
(-0.200399 0 0)
(-0.20390285 0 0)
(-0.20694971 0 0)
(-0.20968883 0 0)
(-0.21219818 0 0)
(-0.21455584 0 0)
(-0.21682156 0 0)
(-0.21903533 0 0)
(-0.22124393 0 0)
(-0.22340263 0 0)
(-0.22546618 0 0)
(-0.22737912 0 0)
(-0.013327155 0 0)
(-0.038452808 0 0)
(-0.06170955 0 0)
(-0.082985487 0 0)
(-0.10215208 0 0)
(-0.11933713 0 0)
(-0.13468672 0 0)
(-0.14833321 0 0)
(-0.16029452 0 0)
(-0.17055272 0 0)
(-0.1792856 0 0)
(-0.18665706 0 0)
(-0.19279686 0 0)
(-0.19784426 0 0)
(-0.20197463 0 0)
(-0.20538714 0 0)
(-0.20828439 0 0)
(-0.21083628 0 0)
(-0.21314291 0 0)
(-0.21530259 0 0)
(-0.21738489 0 0)
(-0.21944688 0 0)
(-0.22150128 0 0)
(-0.22355105 0 0)
(-0.22557397 0 0)
(-0.22747515 0 0)
(-0.22922025 0 0)
(-0.013352813 0 0)
(-0.038546576 0 0)
(-0.061898307 0 0)
(-0.083278785 0 0)
(-0.10256342 0 0)
(-0.11988839 0 0)
(-0.13538603 0 0)
(-0.14919119 0 0)
(-0.16131968 0 0)
(-0.17173411 0 0)
(-0.18060857 0 0)
(-0.18809382 0 0)
(-0.19431465 0 0)
(-0.1994094 0 0)
(-0.20353909 0 0)
(-0.20688505 0 0)
(-0.20964646 0 0)
(-0.21200899 0 0)
(-0.21410874 0 0)
(-0.21606316 0 0)
(-0.21794931 0 0)
(-0.21983012 0 0)
(-0.22173094 0 0)
(-0.22365339 0 0)
(-0.22560471 0 0)
(-0.22750629 0 0)
(-0.22928057 0 0)
(-0.2308561 0 0)
(-0.013374088 0 0)
(-0.038627231 0 0)
(-0.062062765 0 0)
(-0.083535669 0 0)
(-0.10292728 0 0)
(-0.12037474 0 0)
(-0.13601195 0 0)
(-0.14996768 0 0)
(-0.16226321 0 0)
(-0.17282811 0 0)
(-0.18184046 0 0)
(-0.18944983 0 0)
(-0.19576659 0 0)
(-0.20091384 0 0)
(-0.2050532 0 0)
(-0.20836467 0 0)
(-0.21103015 0 0)
(-0.21322512 0 0)
(-0.21513069 0 0)
(-0.21687792 0 0)
(-0.21853881 0 0)
(-0.22020928 0 0)
(-0.22193092 0 0)
(-0.22372471 0 0)
(-0.2255637 0 0)
(-0.22741936 0 0)
(-0.22923239 0 0)
(-0.23088262 0 0)
(-0.23232121 0 0)
(-0.013392032 0 0)
(-0.038693179 0 0)
(-0.062201202 0 0)
(-0.083754898 0 0)
(-0.10324082 0 0)
(-0.12080629 0 0)
(-0.13657351 0 0)
(-0.15066932 0 0)
(-0.16311714 0 0)
(-0.1738317 0 0)
(-0.18298775 0 0)
(-0.19072262 0 0)
(-0.19713858 0 0)
(-0.20235593 0 0)
(-0.20652812 0 0)
(-0.20982074 0 0)
(-0.21240986 0 0)
(-0.21447056 0 0)
(-0.2161855 0 0)
(-0.21770807 0 0)
(-0.21914008 0 0)
(-0.22058534 0 0)
(-0.22210505 0 0)
(-0.22372978 0 0)
(-0.22544755 0 0)
(-0.22722432 0 0)
(-0.22903111 0 0)
(-0.23076217 0 0)
(-0.23231589 0 0)
(-0.23361361 0 0)
(-0.013348604 0 0)
(-0.038749189 0 0)
(-0.062318271 0 0)
(-0.083939859 0 0)
(-0.10351074 0 0)
(-0.12117874 0 0)
(-0.13706755 0 0)
(-0.15129508 0 0)
(-0.16389144 0 0)
(-0.17474778 0 0)
(-0.18404146 0 0)
(-0.19190624 0 0)
(-0.19843213 0 0)
(-0.2037237 0 0)
(-0.20793373 0 0)
(-0.21122753 0 0)
(-0.21377572 0 0)
(-0.21573322 0 0)
(-0.21727248 0 0)
(-0.2185777 0 0)
(-0.21979079 0 0)
(-0.22100143 0 0)
(-0.22227906 0 0)
(-0.22369837 0 0)
(-0.22525793 0 0)
(-0.22694314 0 0)
(-0.22869266 0 0)
(-0.23044878 0 0)
(-0.23212272 0 0)
(-0.23357851 0 0)
(-0.23476234 0 0)
(-0.013291828 0 0)
(-0.038665711 0 0)
(-0.062410417 0 0)
(-0.084091568 0 0)
(-0.10373611 0 0)
(-0.12150085 0 0)
(-0.13750197 0 0)
(-0.15185101 0 0)
(-0.16457948 0 0)
(-0.17557381 0 0)
(-0.18500747 0 0)
(-0.19300178 0 0)
(-0.19963798 0 0)
(-0.20501487 0 0)
(-0.20928144 0 0)
(-0.21258951 0 0)
(-0.21510557 0 0)
(-0.21698401 0 0)
(-0.21838794 0 0)
(-0.21948548 0 0)
(-0.22045664 0 0)
(-0.22142358 0 0)
(-0.22245343 0 0)
(-0.22363846 0 0)
(-0.22500809 0 0)
(-0.22655264 0 0)
(-0.22822592 0 0)
(-0.22996287 0 0)
(-0.23170249 0 0)
(-0.23331962 0 0)
(-0.23469894 0 0)
(-0.23576353 0 0)
(-0.013238599 0 0)
(-0.038497271 0 0)
(-0.062296826 0 0)
(-0.084210002 0 0)
(-0.10391967 0 0)
(-0.1217701 0 0)
(-0.13787473 0 0)
(-0.15233706 0 0)
(-0.16519201 0 0)
(-0.17631536 0 0)
(-0.18588155 0 0)
(-0.19400481 0 0)
(-0.20075771 0 0)
(-0.20622316 0 0)
(-0.21054957 0 0)
(-0.21388443 0 0)
(-0.21639577 0 0)
(-0.21822117 0 0)
(-0.2195078 0 0)
(-0.22043106 0 0)
(-0.22117036 0 0)
(-0.22187907 0 0)
(-0.22266513 0 0)
(-0.22359616 0 0)
(-0.22472433 0 0)
(-0.22608636 0 0)
(-0.22763772 0 0)
(-0.22933184 0 0)
(-0.23107947 0 0)
(-0.23279732 0 0)
(-0.23437581 0 0)
(-0.23567322 0 0)
(-0.23664218 0 0)
(-0.013190326 0 0)
(-0.038338556 0 0)
(-0.062026767 0 0)
(-0.084058693 0 0)
(-0.10406361 0 0)
(-0.12199071 0 0)
(-0.13819116 0 0)
(-0.15275851 0 0)
(-0.16572476 0 0)
(-0.17697134 0 0)
(-0.18666877 0 0)
(-0.19491914 0 0)
(-0.20178718 0 0)
(-0.20734594 0 0)
(-0.21174636 0 0)
(-0.21512007 0 0)
(-0.21763296 0 0)
(-0.21941971 0 0)
(-0.22062721 0 0)
(-0.22140777 0 0)
(-0.22193008 0 0)
(-0.22237482 0 0)
(-0.2228883 0 0)
(-0.22355261 0 0)
(-0.22442024 0 0)
(-0.2255562 0 0)
(-0.22694773 0 0)
(-0.22854425 0 0)
(-0.23027066 0 0)
(-0.23203822 0 0)
(-0.23375787 0 0)
(-0.23529217 0 0)
(-0.23652626 0 0)
(-0.23739393 0 0)
(-0.013146836 0 0)
(-0.038196323 0 0)
(-0.061777383 0 0)
(-0.08369311 0 0)
(-0.10388463 0 0)
(-0.12216441 0 0)
(-0.13845281 0 0)
(-0.15311703 0 0)
(-0.16618704 0 0)
(-0.17754777 0 0)
(-0.18736853 0 0)
(-0.19574275 0 0)
(-0.20272734 0 0)
(-0.20838106 0 0)
(-0.21285779 0 0)
(-0.21627756 0 0)
(-0.2188131 0 0)
(-0.22058514 0 0)
(-0.22172197 0 0)
(-0.22238437 0 0)
(-0.22273133 0 0)
(-0.22292496 0 0)
(-0.22315028 0 0)
(-0.22353302 0 0)
(-0.22413903 0 0)
(-0.22501363 0 0)
(-0.22618158 0 0)
(-0.22763558 0 0)
(-0.22928999 0 0)
(-0.23107183 0 0)
(-0.23287285 0 0)
(-0.2345861 0 0)
(-0.23608991 0 0)
(-0.23725309 0 0)
(-0.23804035 0 0)
(-0.013109319 0 0)
(-0.038067374 0 0)
(-0.061547924 0 0)
(-0.08335308 0 0)
(-0.10344406 0 0)
(-0.12197432 0 0)
(-0.13865989 0 0)
(-0.15341309 0 0)
(-0.16657637 0 0)
(-0.1780441 0 0)
(-0.18798452 0 0)
(-0.19647975 0 0)
(-0.20357833 0 0)
(-0.20932658 0 0)
(-0.21388871 0 0)
(-0.21736508 0 0)
(-0.2199296 0 0)
(-0.22169599 0 0)
(-0.22279247 0 0)
(-0.22336379 0 0)
(-0.22355438 0 0)
(-0.2235294 0 0)
(-0.22347292 0 0)
(-0.22354787 0 0)
(-0.22385953 0 0)
(-0.22445599 0 0)
(-0.22536626 0 0)
(-0.22661979 0 0)
(-0.2281609 0 0)
(-0.22990061 0 0)
(-0.23174178 0 0)
(-0.23358009 0 0)
(-0.23530216 0 0)
(-0.23676698 0 0)
(-0.23787585 0 0)
(-0.2385768 0 0)
(-0.013077461 0 0)
(-0.037957396 0 0)
(-0.061344595 0 0)
(-0.083041293 0 0)
(-0.10303121 0 0)
(-0.12148244 0 0)
(-0.13847239 0 0)
(-0.15365148 0 0)
(-0.16689682 0 0)
(-0.17846478 0 0)
(-0.18851868 0 0)
(-0.19712984 0 0)
(-0.20433994 0 0)
(-0.21018269 0 0)
(-0.21483187 0 0)
(-0.21836722 0 0)
(-0.22097588 0 0)
(-0.22275887 0 0)
(-0.22382252 0 0)
(-0.22431839 0 0)
(-0.22439129 0 0)
(-0.22418 0 0)
(-0.22385849 0 0)
(-0.22362212 0 0)
(-0.22361707 0 0)
(-0.22391138 0 0)
(-0.22455141 0 0)
(-0.22555324 0 0)
(-0.22690621 0 0)
(-0.22855859 0 0)
(-0.23038877 0 0)
(-0.23230368 0 0)
(-0.23418527 0 0)
(-0.23590591 0 0)
(-0.23734314 0 0)
(-0.23838887 0 0)
(-0.23902179 0 0)
(-0.013052196 0 0)
(-0.037863311 0 0)
(-0.061166332 0 0)
(-0.082762935 0 0)
(-0.10265344 0 0)
(-0.12102086 0 0)
(-0.13794692 0 0)
(-0.15346318 0 0)
(-0.16715094 0 0)
(-0.17881258 0 0)
(-0.18897157 0 0)
(-0.19769629 0 0)
(-0.20501568 0 0)
(-0.21094898 0 0)
(-0.21568911 0 0)
(-0.21929184 0 0)
(-0.22195028 0 0)
(-0.2237555 0 0)
(-0.22481103 0 0)
(-0.22525738 0 0)
(-0.22522345 0 0)
(-0.22485254 0 0)
(-0.22430652 0 0)
(-0.22376671 0 0)
(-0.22342549 0 0)
(-0.22339543 0 0)
(-0.22372716 0 0)
(-0.22445035 0 0)
(-0.22556454 0 0)
(-0.22705843 0 0)
(-0.2288365 0 0)
(-0.23077453 0 0)
(-0.23276099 0 0)
(-0.23468448 0 0)
(-0.23641433 0 0)
(-0.23781381 0 0)
(-0.2388119 0 0)
(-0.23937156 0 0)
(-0.013033126 0 0)
(-0.037789745 0 0)
(-0.061017277 0 0)
(-0.082519732 0 0)
(-0.102314 0 0)
(-0.12059742 0 0)
(-0.13745633 0 0)
(-0.1529149 0 0)
(-0.16696019 0 0)
(-0.17908754 0 0)
(-0.18934968 0 0)
(-0.19818096 0 0)
(-0.20560316 0 0)
(-0.21162609 0 0)
(-0.21645875 0 0)
(-0.2201282 0 0)
(-0.22284555 0 0)
(-0.22469181 0 0)
(-0.22574687 0 0)
(-0.22615488 0 0)
(-0.22604687 0 0)
(-0.2255449 0 0)
(-0.22479668 0 0)
(-0.22399154 0 0)
(-0.22332914 0 0)
(-0.22294836 0 0)
(-0.22293732 0 0)
(-0.22334424 0 0)
(-0.22419371 0 0)
(-0.22546214 0 0)
(-0.22710252 0 0)
(-0.22902173 0 0)
(-0.23106671 0 0)
(-0.23313181 0 0)
(-0.23509817 0 0)
(-0.23682598 0 0)
(-0.23819784 0 0)
(-0.23914004 0 0)
(-0.23964131 0 0)
(-0.013020982 0 0)
(-0.037733891 0 0)
(-0.060896895 0 0)
(-0.082314919 0 0)
(-0.10201746 0 0)
(-0.12021675 0 0)
(-0.13700474 0 0)
(-0.15239937 0 0)
(-0.16639118 0 0)
(-0.17891414 0 0)
(-0.18964834 0 0)
(-0.19858111 0 0)
(-0.20610838 0 0)
(-0.21221576 0 0)
(-0.21713958 0 0)
(-0.22088214 0 0)
(-0.22366342 0 0)
(-0.22555374 0 0)
(-0.22662612 0 0)
(-0.2270203 0 0)
(-0.2268487 0 0)
(-0.22623446 0 0)
(-0.22532532 0 0)
(-0.22428708 0 0)
(-0.22330824 0 0)
(-0.2225684 0 0)
(-0.22219866 0 0)
(-0.22226205 0 0)
(-0.22279508 0 0)
(-0.22379988 0 0)
(-0.22523675 0 0)
(-0.22705364 0 0)
(-0.22911985 0 0)
(-0.23128052 0 0)
(-0.23341738 0 0)
(-0.23542198 0 0)
(-0.2371556 0 0)
(-0.2384902 0 0)
(-0.23938989 0 0)
(-0.23982768 0 0)
(-0.037699125 0 0)
(-0.013013447 0 0)
(-0.060807646 0 0)
(-0.082150014 0 0)
(-0.10176667 0 0)
(-0.11988339 0 0)
(-0.13659984 0 0)
(-0.15192667 0 0)
(-0.16585444 0 0)
(-0.17834876 0 0)
(-0.18949837 0 0)
(-0.19890388 0 0)
(-0.20652169 0 0)
(-0.21271534 0 0)
(-0.21773389 0 0)
(-0.22154762 0 0)
(-0.22439743 0 0)
(-0.22634576 0 0)
(-0.22744251 0 0)
(-0.22783095 0 0)
(-0.22762323 0 0)
(-0.22692401 0 0)
(-0.22586694 0 0)
(-0.22462221 0 0)
(-0.22337394 0 0)
(-0.22230399 0 0)
(-0.22156437 0 0)
(-0.22124713 0 0)
(-0.22142123 0 0)
(-0.22210989 0 0)
(-0.22330382 0 0)
(-0.224938 0 0)
(-0.22693001 0 0)
(-0.2291507 0 0)
(-0.23142165 0 0)
(-0.23363196 0 0)
(-0.23567294 0 0)
(-0.23740134 0 0)
(-0.23870771 0 0)
(-0.23955785 0 0)
(-0.23994308 0 0)
(-0.060749314 0 0)
(-0.037677533 0 0)
(-0.013011051 0 0)
(-0.082026424 0 0)
(-0.1015641 0 0)
(-0.11960163 0 0)
(-0.13624537 0 0)
(-0.15150067 0 0)
(-0.1653606 0 0)
(-0.17781607 0 0)
(-0.1889503 0 0)
(-0.19877747 0 0)
(-0.20685466 0 0)
(-0.21313189 0 0)
(-0.21823678 0 0)
(-0.22212769 0 0)
(-0.22505026 0 0)
(-0.22705855 0 0)
(-0.22819191 0 0)
(-0.22859509 0 0)
(-0.22836227 0 0)
(-0.22759283 0 0)
(-0.22642165 0 0)
(-0.2250055 0 0)
(-0.22351333 0 0)
(-0.22212724 0 0)
(-0.22101873 0 0)
(-0.22031208 0 0)
(-0.22010073 0 0)
(-0.22043251 0 0)
(-0.22131714 0 0)
(-0.22271878 0 0)
(-0.22455763 0 0)
(-0.22674353 0 0)
(-0.22911814 0 0)
(-0.23150098 0 0)
(-0.23377518 0 0)
(-0.23584602 0 0)
(-0.23757573 0 0)
(-0.2388462 0 0)
(-0.23965675 0 0)
(-0.23998548 0 0)
(-0.081945449 0 0)
(-0.060713127 0 0)
(-0.037671176 0 0)
(-0.013015164 0 0)
(-0.10141189 0 0)
(-0.11937295 0 0)
(-0.13594555 0 0)
(-0.1511282 0 0)
(-0.16491428 0 0)
(-0.17732099 0 0)
(-0.18843366 0 0)
(-0.19826678 0 0)
(-0.20675265 0 0)
(-0.21345798 0 0)
(-0.21865625 0 0)
(-0.22262249 0 0)
(-0.22561815 0 0)
(-0.22769452 0 0)
(-0.22887048 0 0)
(-0.22929406 0 0)
(-0.22905777 0 0)
(-0.22824377 0 0)
(-0.22697121 0 0)
(-0.22540097 0 0)
(-0.22370209 0 0)
(-0.22204018 0 0)
(-0.22058105 0 0)
(-0.21949056 0 0)
(-0.21888386 0 0)
(-0.21881646 0 0)
(-0.21933883 0 0)
(-0.22044013 0 0)
(-0.22207323 0 0)
(-0.22413356 0 0)
(-0.22650663 0 0)
(-0.22903561 0 0)
(-0.23152178 0 0)
(-0.23385829 0 0)
(-0.23595596 0 0)
(-0.2376774 0 0)
(-0.23891899 0 0)
(-0.23968399 0 0)
(-0.23996406 0 0)
(-0.10131049 0 0)
(-0.081895123 0 0)
(-0.06069991 0 0)
(-0.03768403 0 0)
(-0.013026057 0 0)
(-0.11920156 0 0)
(-0.13570416 0 0)
(-0.15081286 0 0)
(-0.16452271 0 0)
(-0.17687334 0 0)
(-0.18794932 0 0)
(-0.19777547 0 0)
(-0.20628565 0 0)
(-0.21338756 0 0)
(-0.21898199 0 0)
(-0.22302798 0 0)
(-0.22610038 0 0)
(-0.22824833 0 0)
(-0.22947417 0 0)
(-0.22993407 0 0)
(-0.22970491 0 0)
(-0.22885845 0 0)
(-0.22751329 0 0)
(-0.22582146 0 0)
(-0.22393852 0 0)
(-0.222026 0 0)
(-0.22024927 0 0)
(-0.21878018 0 0)
(-0.21776149 0 0)
(-0.21727924 0 0)
(-0.21740286 0 0)
(-0.21815339 0 0)
(-0.21950195 0 0)
(-0.22137537 0 0)
(-0.22365878 0 0)
(-0.22622793 0 0)
(-0.22890565 0 0)
(-0.23149184 0 0)
(-0.2338802 0 0)
(-0.23599786 0 0)
(-0.23771614 0 0)
(-0.23892239 0 0)
(-0.23964911 0 0)
(-0.23987758 0 0)
(-0.11908623 0 0)
(-0.10124745 0 0)
(-0.081876512 0 0)
(-0.060716709 0 0)
(-0.037716509 0 0)
(-0.013043194 0 0)
(-0.13552172 0 0)
(-0.15055784 0 0)
(-0.16418995 0 0)
(-0.17647711 0 0)
(-0.18750965 0 0)
(-0.19731588 0 0)
(-0.2058281 0 0)
(-0.21296164 0 0)
(-0.21893603 0 0)
(-0.22335417 0 0)
(-0.22650008 0 0)
(-0.22871856 0 0)
(-0.23000142 0 0)
(-0.2305023 0 0)
(-0.23029547 0 0)
(-0.22943849 0 0)
(-0.22803414 0 0)
(-0.22623547 0 0)
(-0.22419886 0 0)
(-0.22207539 0 0)
(-0.22001586 0 0)
(-0.21818613 0 0)
(-0.21675908 0 0)
(-0.21586384 0 0)
(-0.21556723 0 0)
(-0.21590978 0 0)
(-0.21691291 0 0)
(-0.21851968 0 0)
(-0.22064783 0 0)
(-0.22316071 0 0)
(-0.22591524 0 0)
(-0.22873667 0 0)
(-0.23141233 0 0)
(-0.23384957 0 0)
(-0.23598403 0 0)
(-0.23769156 0 0)
(-0.2388669 0 0)
(-0.2395511 0 0)
(-0.23973296 0 0)
(-0.13540228 0 0)
(-0.11901472 0 0)
(-0.10122113 0 0)
(-0.081899699 0 0)
(-0.060765175 0 0)
(-0.037767844 0 0)
(-0.013066653 0 0)
(-0.15036643 0 0)
(-0.16391932 0 0)
(-0.1761391 0 0)
(-0.18711686 0 0)
(-0.1968915 0 0)
(-0.20539846 0 0)
(-0.21254993 0 0)
(-0.21855451 0 0)
(-0.22333048 0 0)
(-0.22681167 0 0)
(-0.22910699 0 0)
(-0.23045037 0 0)
(-0.23100121 0 0)
(-0.23082646 0 0)
(-0.22996889 0 0)
(-0.22852795 0 0)
(-0.22665258 0 0)
(-0.224485 0 0)
(-0.2221712 0 0)
(-0.21985974 0 0)
(-0.21770974 0 0)
(-0.21588531 0 0)
(-0.21455489 0 0)
(-0.21382644 0 0)
(-0.21374175 0 0)
(-0.21434726 0 0)
(-0.21562765 0 0)
(-0.217512 0 0)
(-0.21989506 0 0)
(-0.22263375 0 0)
(-0.22557404 0 0)
(-0.22852937 0 0)
(-0.23128885 0 0)
(-0.23376503 0 0)
(-0.23591107 0 0)
(-0.23761034 0 0)
(-0.23875029 0 0)
(-0.23939632 0 0)
(-0.23953047 0 0)
(-0.15023879 0 0)
(-0.1353254 0 0)
(-0.11898357 0 0)
(-0.10124762 0 0)
(-0.081965565 0 0)
(-0.060840621 0 0)
(-0.037836613 0 0)
(-0.013095713 0 0)
(-0.16371464 0 0)
(-0.17586193 0 0)
(-0.18677861 0 0)
(-0.19651144 0 0)
(-0.20499568 0 0)
(-0.21215237 0 0)
(-0.21818415 0 0)
(-0.22301122 0 0)
(-0.22682573 0 0)
(-0.22940566 0 0)
(-0.2308167 0 0)
(-0.23142535 0 0)
(-0.23129148 0 0)
(-0.2304499 0 0)
(-0.22898551 0 0)
(-0.22704663 0 0)
(-0.22477419 0 0)
(-0.22230496 0 0)
(-0.21977455 0 0)
(-0.217332 0 0)
(-0.21514552 0 0)
(-0.21338922 0 0)
(-0.212208 0 0)
(-0.21168881 0 0)
(-0.21186624 0 0)
(-0.21275208 0 0)
(-0.21432619 0 0)
(-0.21649029 0 0)
(-0.21913381 0 0)
(-0.22209608 0 0)
(-0.22520874 0 0)
(-0.22828938 0 0)
(-0.2311212 0 0)
(-0.23363327 0 0)
(-0.23578769 0 0)
(-0.23747292 0 0)
(-0.23857988 0 0)
(-0.23918498 0 0)
(-0.23927476 0 0)
(-0.16357584 0 0)
(-0.15015869 0 0)
(-0.13529529 0 0)
(-0.11901276 0 0)
(-0.10132358 0 0)
(-0.082071519 0 0)
(-0.060946077 0 0)
(-0.037922949 0 0)
(-0.013130369 0 0)
(-0.17564929 0 0)
(-0.18649765 0 0)
(-0.19617928 0 0)
(-0.20463409 0 0)
(-0.21178391 0 0)
(-0.21782082 0 0)
(-0.22268563 0 0)
(-0.22657056 0 0)
(-0.2294545 0 0)
(-0.23110426 0 0)
(-0.23176979 0 0)
(-0.23168572 0 0)
(-0.23087066 0 0)
(-0.22940013 0 0)
(-0.22742306 0 0)
(-0.22506778 0 0)
(-0.22246359 0 0)
(-0.21974035 0 0)
(-0.217045 0 0)
(-0.21453145 0 0)
(-0.21236917 0 0)
(-0.21073131 0 0)
(-0.20974786 0 0)
(-0.20947678 0 0)
(-0.20993379 0 0)
(-0.21113292 0 0)
(-0.21301456 0 0)
(-0.21546824 0 0)
(-0.21836515 0 0)
(-0.22154348 0 0)
(-0.22482236 0 0)
(-0.22801624 0 0)
(-0.23091412 0 0)
(-0.23345353 0 0)
(-0.23561153 0 0)
(-0.23728318 0 0)
(-0.23835432 0 0)
(-0.23892117 0 0)
(-0.2389668 0 0)
(-0.1755025 0 0)
(-0.16348663 0 0)
(-0.15012292 0 0)
(-0.13532413 0 0)
(-0.11909597 0 0)
(-0.10145035 0 0)
(-0.08221688 0 0)
(-0.061074842 0 0)
(-0.038023799 0 0)
(-0.013169282 0 0)
(-0.18627631 0 0)
(-0.19590007 0 0)
(-0.20431354 0 0)
(-0.21144591 0 0)
(-0.21748327 0 0)
(-0.22237155 0 0)
(-0.22630881 0 0)
(-0.22927386 0 0)
(-0.23118534 0 0)
(-0.23204034 0 0)
(-0.23200799 0 0)
(-0.23122744 0 0)
(-0.22976487 0 0)
(-0.22776172 0 0)
(-0.22534518 0 0)
(-0.22263636 0 0)
(-0.21975246 0 0)
(-0.21682812 0 0)
(-0.2140202 0 0)
(-0.21149268 0 0)
(-0.20941237 0 0)
(-0.20794779 0 0)
(-0.20720525 0 0)
(-0.20722254 0 0)
(-0.2080001 0 0)
(-0.20951851 0 0)
(-0.21171494 0 0)
(-0.21445239 0 0)
(-0.21760088 0 0)
(-0.22098652 0 0)
(-0.22441688 0 0)
(-0.22771387 0 0)
(-0.23066711 0 0)
(-0.23323039 0 0)
(-0.23538846 0 0)
(-0.23704294 0 0)
(-0.23807903 0 0)
(-0.23860653 0 0)
(-0.23860938 0 0)
(-0.18611838 0 0)
(-0.17540198 0 0)
(-0.16344424 0 0)
(-0.15015363 0 0)
(-0.13541623 0 0)
(-0.11923692 0 0)
(-0.10162226 0 0)
(-0.082398113 0 0)
(-0.061229762 0 0)
(-0.038138886 0 0)
(-0.013212572 0 0)
(-0.19567669 0 0)
(-0.20404227 0 0)
(-0.21114964 0 0)
(-0.21716957 0 0)
(-0.22206686 0 0)
(-0.2260409 0 0)
(-0.22907824 0 0)
(-0.23108924 0 0)
(-0.23215806 0 0)
(-0.23225076 0 0)
(-0.23151656 0 0)
(-0.23007342 0 0)
(-0.22806358 0 0)
(-0.22560621 0 0)
(-0.22281278 0 0)
(-0.2197916 0 0)
(-0.2166744 0 0)
(-0.2136059 0 0)
(-0.21074195 0 0)
(-0.20825754 0 0)
(-0.20632962 0 0)
(-0.20508624 0 0)
(-0.20461417 0 0)
(-0.20494508 0 0)
(-0.20605487 0 0)
(-0.20791647 0 0)
(-0.21043035 0 0)
(-0.21345224 0 0)
(-0.21683996 0 0)
(-0.22042249 0 0)
(-0.22399372 0 0)
(-0.22738228 0 0)
(-0.23038381 0 0)
(-0.23296336 0 0)
(-0.23511784 0 0)
(-0.23675362 0 0)
(-0.23775386 0 0)
(-0.23824243 0 0)
(-0.23820489 0 0)
(-0.19551004 0 0)
(-0.18600158 0 0)
(-0.17534885 0 0)
(-0.16347141 0 0)
(-0.15024446 0 0)
(-0.13556305 0 0)
(-0.11942712 0 0)
(-0.10184014 0 0)
(-0.082612357 0 0)
(-0.061402126 0 0)
(-0.038264683 0 0)
(-0.013242674 0 0)
(-0.20382143 0 0)
(-0.21089495 0 0)
(-0.21689314 0 0)
(-0.2217877 0 0)
(-0.22578129 0 0)
(-0.22886424 0 0)
(-0.2309611 0 0)
(-0.23215075 0 0)
(-0.23241371 0 0)
(-0.23172846 0 0)
(-0.23031835 0 0)
(-0.22831644 0 0)
(-0.22583492 0 0)
(-0.22298133 0 0)
(-0.21985265 0 0)
(-0.21656638 0 0)
(-0.21326635 0 0)
(-0.21010788 0 0)
(-0.20725368 0 0)
(-0.20487487 0 0)
(-0.2031321 0 0)
(-0.20215227 0 0)
(-0.20199662 0 0)
(-0.20267459 0 0)
(-0.20414437 0 0)
(-0.2063453 0 0)
(-0.20917602 0 0)
(-0.21247037 0 0)
(-0.21608954 0 0)
(-0.21985579 0 0)
(-0.22355351 0 0)
(-0.22702302 0 0)
(-0.23006472 0 0)
(-0.23265585 0 0)
(-0.23480294 0 0)
(-0.23641752 0 0)
(-0.23738133 0 0)
(-0.23783187 0 0)
(-0.2377361 0 0)
(-0.20365263 0 0)
(-0.19538346 0 0)
(-0.18593061 0 0)
(-0.17536067 0 0)
(-0.16356135 0 0)
(-0.15039818 0 0)
(-0.13576828 0 0)
(-0.11966922 0 0)
(-0.1020974 0 0)
(-0.082858318 0 0)
(-0.061595149 0 0)
(-0.038306276 0 0)
(-0.013213723 0 0)
(-0.21068854 0 0)
(-0.21665255 0 0)
(-0.22153228 0 0)
(-0.22553255 0 0)
(-0.22865123 0 0)
(-0.23081252 0 0)
(-0.2320982 0 0)
(-0.23249997 0 0)
(-0.23193225 0 0)
(-0.23049785 0 0)
(-0.22851349 0 0)
(-0.22602665 0 0)
(-0.22313299 0 0)
(-0.21991752 0 0)
(-0.21649456 0 0)
(-0.21299664 0 0)
(-0.2095685 0 0)
(-0.20637535 0 0)
(-0.20359039 0 0)
(-0.20138017 0 0)
(-0.19988638 0 0)
(-0.19920126 0 0)
(-0.19938504 0 0)
(-0.20042706 0 0)
(-0.20225752 0 0)
(-0.20481014 0 0)
(-0.20795194 0 0)
(-0.21151233 0 0)
(-0.2153468 0 0)
(-0.21928489 0 0)
(-0.22309624 0 0)
(-0.22663737 0 0)
(-0.22971133 0 0)
(-0.23230849 0 0)
(-0.23444344 0 0)
(-0.23603348 0 0)
(-0.23696275 0 0)
(-0.23736351 0 0)
(-0.2371965 0 0)
(-0.21052972 0 0)
(-0.20352081 0 0)
(-0.19529402 0 0)
(-0.1859199 0 0)
(-0.17543829 0 0)
(-0.16371738 0 0)
(-0.15060465 0 0)
(-0.13602036 0 0)
(-0.11995267 0 0)
(-0.10239057 0 0)
(-0.08312814 0 0)
(-0.061635345 0 0)
(-0.038212423 0 0)
(-0.013180277 0 0)
(-0.21645496 0 0)
(-0.22131205 0 0)
(-0.22530563 0 0)
(-0.22843781 0 0)
(-0.2306485 0 0)
(-0.23201779 0 0)
(-0.23253606 0 0)
(-0.23211992 0 0)
(-0.23073674 0 0)
(-0.22865427 0 0)
(-0.22617407 0 0)
(-0.22325772 0 0)
(-0.21998056 0 0)
(-0.21644401 0 0)
(-0.21277518 0 0)
(-0.20911624 0 0)
(-0.20562348 0 0)
(-0.2024626 0 0)
(-0.19980394 0 0)
(-0.19780572 0 0)
(-0.19658586 0 0)
(-0.19623824 0 0)
(-0.19679665 0 0)
(-0.19822524 0 0)
(-0.20043138 0 0)
(-0.20332264 0 0)
(-0.20676769 0 0)
(-0.21057746 0 0)
(-0.21461538 0 0)
(-0.21870977 0 0)
(-0.22262234 0 0)
(-0.22622426 0 0)
(-0.22932575 0 0)
(-0.23192072 0 0)
(-0.23403963 0 0)
(-0.23560576 0 0)
(-0.23649963 0 0)
(-0.23683112 0 0)
(-0.23659813 0 0)
(-0.2163003 0 0)
(-0.2104024 0 0)
(-0.20342203 0 0)
(-0.19526568 0 0)
(-0.18597434 0 0)
(-0.17557587 0 0)
(-0.1639305 0 0)
(-0.15086727 0 0)
(-0.13632105 0 0)
(-0.12027589 0 0)
(-0.10271512 0 0)
(-0.083193938 0 0)
(-0.061474702 0 0)
(-0.038106247 0 0)
(-0.013142614 0 0)
(-0.22112489 0 0)
(-0.22510146 0 0)
(-0.22823902 0 0)
(-0.2304809 0 0)
(-0.23190854 0 0)
(-0.23252439 0 0)
(-0.23224661 0 0)
(-0.23103106 0 0)
(-0.22892845 0 0)
(-0.22626572 0 0)
(-0.22334401 0 0)
(-0.2200267 0 0)
(-0.2164035 0 0)
(-0.21259549 0 0)
(-0.20873196 0 0)
(-0.20496687 0 0)
(-0.20146963 0 0)
(-0.19840409 0 0)
(-0.19592426 0 0)
(-0.194184 0 0)
(-0.19329501 0 0)
(-0.19331042 0 0)
(-0.19425763 0 0)
(-0.19607716 0 0)
(-0.19865251 0 0)
(-0.20188574 0 0)
(-0.2056211 0 0)
(-0.20966828 0 0)
(-0.21389225 0 0)
(-0.21813049 0 0)
(-0.22213062 0 0)
(-0.22578744 0 0)
(-0.2289043 0 0)
(-0.23149491 0 0)
(-0.2335941 0 0)
(-0.23514969 0 0)
(-0.23598233 0 0)
(-0.23623699 0 0)
(-0.23594507 0 0)
(-0.22097628 0 0)
(-0.21617319 0 0)
(-0.21030767 0 0)
(-0.20338123 0 0)
(-0.19529141 0 0)
(-0.18608374 0 0)
(-0.1757734 0 0)
(-0.16420157 0 0)
(-0.1511734 0 0)
(-0.13665921 0 0)
(-0.12063141 0 0)
(-0.1027829 0 0)
(-0.082992548 0 0)
(-0.061290421 0 0)
(-0.037985053 0 0)
(-0.01309945 0 0)
(-0.22492656 0 0)
(-0.22805264 0 0)
(-0.23031275 0 0)
(-0.23178784 0 0)
(-0.23247928 0 0)
(-0.23231078 0 0)
(-0.2312467 0 0)
(-0.22932851 0 0)
(-0.22658164 0 0)
(-0.22338646 0 0)
(-0.22004425 0 0)
(-0.21635874 0 0)
(-0.21243784 0 0)
(-0.20840493 0 0)
(-0.20440663 0 0)
(-0.20060406 0 0)
(-0.19716138 0 0)
(-0.19423674 0 0)
(-0.19198933 0 0)
(-0.19055317 0 0)
(-0.1900109 0 0)
(-0.19042369 0 0)
(-0.19178129 0 0)
(-0.19400121 0 0)
(-0.19694856 0 0)
(-0.20050406 0 0)
(-0.20451659 0 0)
(-0.20878216 0 0)
(-0.21317759 0 0)
(-0.21754371 0 0)
(-0.22162212 0 0)
(-0.22531907 0 0)
(-0.22845161 0 0)
(-0.23102769 0 0)
(-0.23314781 0 0)
(-0.23465689 0 0)
(-0.23540176 0 0)
(-0.23558662 0 0)
(-0.23523354 0 0)
(-0.22478067 0 0)
(-0.22085056 0 0)
(-0.21607589 0 0)
(-0.21026001 0 0)
(-0.20338921 0 0)
(-0.1953761 0 0)
(-0.18625276 0 0)
(-0.1760215 0 0)
(-0.16451913 0 0)
(-0.15152215 0 0)
(-0.13703172 0 0)
(-0.12069 0 0)
(-0.10253937 0 0)
(-0.082761424 0 0)
(-0.061085922 0 0)
(-0.037850163 0 0)
(-0.013050852 0 0)
(-0.22788832 0 0)
(-0.23015376 0 0)
(-0.23165467 0 0)
(-0.23240552 0 0)
(-0.23233155 0 0)
(-0.23139361 0 0)
(-0.22963559 0 0)
(-0.22708609 0 0)
(-0.22373413 0 0)
(-0.22002736 0 0)
(-0.21629934 0 0)
(-0.21229139 0 0)
(-0.2081178 0 0)
(-0.20391366 0 0)
(-0.1998426 0 0)
(-0.19606758 0 0)
(-0.19273703 0 0)
(-0.19000516 0 0)
(-0.18803188 0 0)
(-0.18693928 0 0)
(-0.18679225 0 0)
(-0.18761395 0 0)
(-0.18938679 0 0)
(-0.19200131 0 0)
(-0.19530593 0 0)
(-0.19917823 0 0)
(-0.20345049 0 0)
(-0.20791922 0 0)
(-0.21247004 0 0)
(-0.21695106 0 0)
(-0.22109032 0 0)
(-0.22482618 0 0)
(-0.22796001 0 0)
(-0.23060015 0 0)
(-0.23268847 0 0)
(-0.23409562 0 0)
(-0.23476118 0 0)
(-0.23487478 0 0)
(-0.23446866 0 0)
(-0.22774384 0 0)
(-0.22465261 0 0)
(-0.22074729 0 0)
(-0.2160203 0 0)
(-0.2102621 0 0)
(-0.2034536 0 0)
(-0.19550928 0 0)
(-0.18646824 0 0)
(-0.17631712 0 0)
(-0.16487741 0 0)
(-0.15190437 0 0)
(-0.13707395 0 0)
(-0.1203949 0 0)
(-0.1022542 0 0)
(-0.08249514 0 0)
(-0.06085788 0 0)
(-0.037699039 0 0)