/*--------------------------------*- C++ -*----------------------------------*\
| =========                 |                                                 |
| \\      /  F ield         | OpenFOAM: The Open Source CFD Toolbox           |
|  \\    /   O peration     | Version:  v2012                                 |
|   \\  /    A nd           | Website:  www.openfoam.com                      |
|    \\/     M anipulation  |                                                 |
\*---------------------------------------------------------------------------*/
FoamFile
{
    version     2.0;
    format      ascii;
    class       surfaceScalarField;
    location    "69.7435890445533886";
    object      meshPhi;
}
// * * * * * * * * * * * * * * * * * * * * * * * * * * * * * * * * * * * * * //

dimensions      [0 3 -1 0 0 0 0];
oriented        oriented;


internalField   nonuniform List<scalar> 
18180
(
0
-0.061586774
0
-0.056052764
8.0058053e-14
-0.12251625
8.3094687e-14
-0.050983971
0
-0.11224261
0
-0.18297713
-4.1530651e-14
-0.047255631
0
-0.10258845
0
-0.16845859
7.4325535e-14
-0.24059016
4.1566652e-14
-0.044571868
0
-0.09462927
0
-0.15440155
0
-0.22259334
7.160971e-14
-0.29452414
0
-0.042482211
4.0052989e-14
-0.088594308
-3.8583297e-14
-0.14257122
0
-0.20525844
0
-0.27343568
-6.8946955e-14
-0.3436614
-4.1562326e-14
-0.040684413
-2.5690538e-17
-0.08387398
-3.8564565e-14
-0.1330484
7.4321784e-14
-0.1899216
0
-0.25323651
0
-0.32017548
0
-0.38896632
-4.1573273e-14
-0.038976254
0
-0.079756127
3.8572449e-14
-0.12518479
2.5357637e-17
-0.17700379
-2.4430983e-17
-0.23502406
-6.8955121e-14
-0.29776633
0
-0.36315627
-6.3998296e-14
-0.4299666
-4.1584011e-14
-0.037307806
0
-0.075943053
-3.8580848e-14
-0.11839233
3.7160179e-14
-0.16619703
0
-0.21929051
0
-0.27722544
0
-0.3388457
0
-0.40226236
0
-0.4674093
0
-0.035665644
0
-0.072285084
0
-0.11218522
0
-0.1567907
-3.5823384e-14
-0.20577622
2.2992209e-17
-0.25900367
0
-0.31631504
0
-0.37633373
0
-0.43779798
-5.9405019e-14
-0.5010763
0
-0.0340549
0
-0.068742043
3.862393e-14
-0.106313
-7.4400458e-14
-0.14821907
0
-0.19388648
0
-0.24296469
0
-0.29582194
0
-0.3520872
-6.1663631e-14
-0.41044146
0
-0.46996541
0
-0.53190339
0
-0.032480314
0
-0.065300665
3.8658455e-14
-0.10067693
-2.5692723e-17
-0.14018806
0
-0.18307998
3.4515343e-14
-0.22867992
3.3225127e-14
-0.27737881
3.2026066e-14
-0.32961609
3.0851232e-14
-0.38475105
0
-0.44136675
0
-0.49921679
5.516865e-14
-0.55967178
0
-0.030938668
0
-0.061960447
0
-0.095236821
0
-0.13253556
-3.5817133e-14
-0.17299619
3.4520368e-14
-0.21567174
3.324972e-14
-0.26076034
0
-0.30898122
3.0852761e-14
-0.36056471
-5.942655e-14
-0.41445609
-5.723588e-14
-0.4694658
0
-0.52565707
-5.3130943e-14
-0.58498708
2.0831191e-14
-0.029429051
0
-0.058718781
0
-0.089984614
0
-0.12520604
0
-0.16345269
0
-0.20358556
-6.6507035e-14
-0.24564872
0
-0.29028019
-3.0854127e-14
-0.33820556
2.9722549e-14
-0.38907685
-2.863316e-14
-0.44154056
0
-0.49482217
0
-0.54957501
5.1212883e-14
-0.60772256
2.0835296e-14
-0.027952566
-2.0068323e-14
-0.055581375
0
-0.084924712
0
-0.11817975
0
-0.1543648
0
-0.19220014
0
-0.23169418
0
-0.27336449
-3.0837231e-14
-0.31791933
2.9706368e-14
-0.36543426
-2.8618515e-14
-0.4151018
-2.7585078e-14
-0.46596971
0
-0.51773573
0
-0.5711844
4.934475e-14
-0.62852307
1.614483e-17
-0.026512775
2.007202e-14
-0.052552058
-1.9319137e-14
-0.080061979
0
-0.1114596
0
-0.14569663
0
-0.1813897
0
-0.2186014
0
-0.25779054
0
-0.29944566
-2.9706741e-14
-0.34380103
0
-0.39041218
-2.7571191e-14
-0.43862412
1.2072718e-17
-0.48800683
-5.1189282e-14
-0.53839753
0
-0.59079276
0
-0.64725913
0
-0.02510867
0
-0.049632811
1.2916121e-17
-0.075407516
1.8622215e-14
-0.10504488
-1.2913457e-17
-0.13743979
0
-0.17109716
-3.3266596e-14
-0.20619561
-3.201978e-14
-0.24320461
0
-0.28246403
0
-0.32410866
1.5956139e-17
-0.36770204
0
-0.41290059
1.2364291e-17
-0.45975363
0
-0.50786663
0
-0.5571167
0
-0.60852705
4.5814132e-14
-0.6643445
-2.0845769e-14
-0.023742123
2.0078635e-14
-0.04682421
0
-0.070965885
-1.8612102e-14
-0.098939746
0
-0.12958793
-1.7273451e-14
-0.16129655
0
-0.19438394
0
-0.2294027
-3.0842973e-14
-0.26661471
0
-0.30588721
0
-0.3467624
0
-0.3890487
2.6561383e-14
-0.43304968
1.1150021e-17
-0.47882287
0
-0.52584175
4.7540513e-14
-0.57402369
0
-0.62457812
4.4146649e-14
-0.67969989
2.0832009e-14
-0.02241644
2.0067437e-14
-0.044122935
0
-0.06673785
1.8615063e-14
-0.093144128
1.3183786e-17
-0.12212895
0
-0.15197288
-1.6637732e-14
-0.18312816
0
-0.21624478
0
-0.25158398
2.9727385e-14
-0.28878247
0
-0.32723913
0
-0.36687843
5.3132073e-14
-0.40810332
2.5589645e-14
-0.45123235
-2.4656588e-14
-0.4960885
0
-0.5421121
-4.5791726e-14
-0.58934714
0
-0.63910584
0
-0.69373299
1.6783996e-17
-0.021135686
0
-0.041528045
1.9331682e-14
-0.062715112
-1.8617826e-14
-0.087650236
1.7928996e-14
-0.1150515
1.7278285e-14
-0.14311133
1.6639879e-14
-0.17241333
1.6015269e-14
-0.20368604
0
-0.23724801
0
-0.27260834
0
-0.30892176
0
-0.34611743
0
-0.38488955
0
-0.42549024
-2.4664384e-14
-0.46781674
2.37655e-14
-0.51178626
0
-0.55689234
0
-0.60321949
0
-0.65226727
-4.0983752e-14
-0.70636279
-1.6891165e-17
-0.019903067
0
-0.039043128
3.8681336e-14
-0.058894796
-1.8634095e-14
-0.082447828
1.3450055e-17
-0.10834167
-1.7268631e-14
-0.13469893
1.0812439e-17
-0.16222979
0
-0.19171306
0
-0.22354054
-2.9712526e-14
-0.25720358
0
-0.2916502
0
-0.3266456
0
-0.36313063
0
-0.40152436
-2.4651068e-14
-0.44143176
2.3753093e-14
-0.48295831
-2.288956e-14
-0.52611023
-2.2059021e-14
-0.57033065
0
-0.61578788
0
-0.66415472
3.9506113e-14
-0.71783981
0
-0.018721088
0
-0.036672137
1.9336591e-14
-0.055273773
0
-0.077524076
0
-0.10198596
1.7282622e-14
-0.12672122
1.663314e-14
-0.15256643
4.8077308e-14
-0.1803197
1.543684e-14
-0.2104464
-1.4866619e-14
-0.24247939
0
-0.27524944
0
-0.3082979
0
-0.34256442
0
-0.3789983
2.4658961e-14
-0.41702872
0
-0.45614324
0
-0.49686617
2.2062846e-14
-0.53921479
-2.1262794e-14
-0.58252134
4.0985579e-14
-0.62712127
0
-0.67485353
0
-0.72812277
-1.0437302e-14
-0.017591732
0
-0.03441456
0
-0.051848223
0
-0.072865011
-1.7949394e-14
-0.095961575
0
-0.11916277
-1.6635052e-14
-0.14341135
0
-0.16949996
1.0004582e-17
-0.19795878
0
-0.22839984
0
-0.25960163
0
-0.29091666
0
-0.32317839
0
-0.35767777
0
-0.39407869
0
-0.43136232
-2.2881703e-14
-0.46966259
0
-0.509639
7.0715434e-18
-0.55114702
0
-0.59355895
3.9496159e-14
-0.63732608
0
-0.68448902
-3.6683136e-14
-0.73747618
1.042958e-14
-0.016516315
-7.1001036e-18
-0.032269703
0
-0.048611809
0
-0.068455677
0
-0.090250711
0
-0.11200505
-1.0775714e-17
-0.13475063
1.6032746e-14
-0.159247
0
-0.18607431
-1.4859178e-14
-0.21495079
-1.431067e-14
-0.2446367
0
-0.27437351
0
-0.30484718
0
-0.33734859
1.171777e-17
-0.37207654
0
-0.40801071
0
-0.444529
8.4014997e-18
-0.48211254
0
-0.52132418
6.4219614e-18
-0.56199173
-1.9744134e-14
-0.60350652
0
-0.64649427
0
-0.69314055
0
-0.74586787
-1.0430279e-14
-0.015494377
0
-0.030236911
-9.6776129e-15
-0.045556125
0
-0.064285205
0
-0.084837148
0
-0.10522994
0
-0.12656632
0
-0.14955184
-1.5431241e-14
-0.17479051
1.4869967e-14
-0.20212311
8.7503095e-18
-0.23032734
0
-0.25855509
1.3275728e-14
-0.28738727
0
-0.31802564
0
-0.35096276
1.0949927e-17
-0.38548518
0
-0.42074018
0
-0.45662473
7.7000698e-18
-0.49351456
0
-0.53196441
-3.9467252e-14
-0.57179401
1.9026846e-14
-0.61246672
-3.6672258e-14
-0.65469591
0
-0.70090066
0
-0.75345069
0
-0.014524997
-7.088575e-18
-0.028314102
9.6783852e-15
-0.04267416
-9.3222131e-15
-0.060342856
0
-0.079708214
0
-0.098821672
0
-0.11883749
0
-0.1403952
-1.544271e-14
-0.16410023
0
-0.18991522
0
-0.21666316
0
-0.24341975
1.3281979e-14
-0.27072264
-1.2793012e-14
-0.29968599
-2.4635182e-14
-0.3308038
0
-0.36365801
9.9190978e-18
-0.39764712
0
-0.43240495
0
-0.46771015
0
-0.50392474
-1.9734119e-14
-0.54161915
1.9021885e-14
-0.58064963
-1.8331635e-14
-0.62046801
-3.5342949e-14
-0.66201012
0
-0.70781295
-3.2839812e-14
-0.76021995
8.6143564e-18
-0.013606582
1.0041336e-14
-0.026498586
9.67262e-15
-0.039959917
9.3229454e-15
-0.05661951
-8.9781861e-15
-0.074853436
0
-0.092765166
0
-0.11154303
-1.6027324e-14
-0.13175548
0
-0.15398951
1.48623e-14
-0.17832023
-1.4312745e-14
-0.20364065
0
-0.22895721
6.4196363e-18
-0.25478374
6.0738451e-18
-0.28220662
0
-0.31163964
0
-0.34274312
0
-0.37519385
2.2040241e-14
-0.40878345
0
-0.44309425
0
-0.47785664
6.4047188e-18
-0.51338891
1.9010726e-14
-0.55035393
1.8330963e-14
-0.58858145
0
-0.6276206
0
-0.66850218
0
-0.71399548
-3.1651446e-14
-0.76635667
-1.0423195e-14
-0.012737845
-1.0041864e-14
-0.024787051
-6.4596322e-18
-0.037407579
9.3162817e-15
-0.053106741
-8.9717653e-15
-0.070263576
-8.652105e-15
-0.087045724
-1.6653742e-14
-0.10466275
0
-0.12360954
0
-0.14443886
0
-0.16732757
1.4313507e-14
-0.19125565
-1.3784548e-14
-0.21516226
0
-0.23955439
6.082547e-18
-0.26553014
-1.2315415e-14
-0.29344097
-1.1869178e-14
-0.32289925
0
-0.35366633
0
-0.38581854
0
-0.41909557
-2.0462893e-14
-0.45295814
0
-0.48711172
0
-0.5219708
0
-0.55820871
-3.532278e-14
-0.59568227
-1.7026735e-14
-0.63395628
0
-0.67426756
0
-0.71950088
-3.0506401e-14
-0.77186091
0
-0.011916226
-1.0049368e-14
-0.023177227
6.4789961e-18
-0.035012457
-9.3241313e-15
-0.04979721
0
-0.065929008
0
-0.081649405
1.6644214e-14
-0.098175518
-1.603003e-14
-0.11593503
0
-0.13542834
0
-0.15692025
1.4323304e-14
-0.17949636
-1.3792473e-14
-0.20203377
0
-0.22502649
0
-0.24961805
6.0374191e-18
-0.27613828
1.1867843e-14
-0.30411202
0
-0.33326266
0
-0.3638447
0
-0.39578399
7.8367145e-18
-0.42863841
0
-0.46198494
0
-0.49553164
0
-0.5296982
-4.4778905e-18
-0.5652477
3.7731344e-18
-0.60198898
1.6413205e-14
-0.63958291
3.1646341e-14
-0.67935381
0
-0.724418
2.9407395e-14
-0.7768355
0
-0.011132829
0
-0.021665597
0
-0.032767275
-9.317184e-15
-0.046684006
-7.1400562e-18
-0.061840553
1.7282904e-14
-0.076562936
8.3226704e-15
-0.092061485
-8.0206947e-15
-0.10870724
0
-0.12693817
0
-0.14708088
0
-0.16835081
-1.3785531e-14
-0.1895648
0
-0.21119838
1.2791278e-14
-0.23445453
0
-0.25966996
1.1872506e-14
-0.28629714
0
-0.3139639
1.1007951e-14
-0.34295332
0
-0.37344195
0
-0.40506016
3.9418366e-14
-0.43745027
1.8996591e-14
-0.47025392
-1.8306098e-14
-0.50313731
4.7060089e-18
-0.53664182
-3.9913416e-18
-0.57152558
0
-0.60759475
1.5816145e-14
-0.64451429
0
-0.68384077
0
-0.72878891
0
-0.78129529
-5.0971045e-05
-0.012187341
0
-0.020235908
0
-0.030665432
-9.3175114e-15
-0.043755351
0
-0.057987413
-5.8730172e-18
-0.071773273
-8.3231785e-15
-0.086301905
0
-0.10190174
-7.7242737e-15
-0.11894669
0
-0.13779277
0
-0.15780322
0
-0.17774886
0
-0.19806789
0
-0.22002669
-1.2313112e-14
-0.24400141
-1.1865726e-14
-0.26937905
0
-0.29568109
1.1010679e-14
-0.32316464
0
-0.3521835
0
-0.382489
0
-0.41366064
1.8989476e-14
-0.44554837
1.8304286e-14
-0.47775946
1.7640599e-14
-0.50999366
4.2166741e-18
-0.54284761
0
-0.5771144
1.5813622e-14
-0.6125239
0
-0.64885778
2.9397715e-14
-0.68779279
2.8340292e-14
-0.73271496
0
-0.78537908
-8.5509675e-05
-0.012129086
-0.00013849581
-0.021977029
0
-0.028690911
0
-0.041000064
0
-0.054357772
8.6482127e-15
-0.067266819
-5.3865999e-18
-0.080879554
-8.0165884e-15
-0.09549648
1.5444503e-14
-0.11142861
-7.4383699e-15
-0.12903753
0
-0.14783653
-1.3786613e-14
-0.16657019
6.2055914e-18
-0.18562926
0
-0.20632894
0
-0.22910857
1.1864906e-14
-0.25330136
0
-0.27833524
4.9850375e-18
-0.30442879
-1.0601311e-14
-0.33194894
-1.0219222e-14
-0.36088792
0
-0.39086128
0
-0.42158955
0
-0.45296901
0
-0.48457215
-1.6999929e-14
-0.5161422
1.6394694e-14
-0.54838323
0
-0.58205527
2.5972864e-18
-0.61686047
0
-0.65264191
-2.8331103e-14
-0.69129126
0
-0.73627105
0
-0.78910441
-0.00010548265
-0.012064681
-0.00023239591
-0.021935794
-0.0002087081
-0.030982812
0
-0.038401903
0
-0.05093877
0
-0.063029776
5.3826872e-18
-0.075777794
8.0169894e-15
-0.089470586
4.8908506e-18
-0.10435982
7.4387264e-15
-0.12079292
-4.5427057e-18
-0.1384313
0
-0.15601117
0
-0.1738697
0
-0.19335095
0
-0.2149732
1.1857967e-14
-0.23803374
0
-0.26185375
0
-0.28664068
4.7108696e-18
-0.31271754
0
-0.34020354
9.8404496e-15
-0.36897818
0
-0.39862511
0
-0.42890495
0
-0.45973874
0
-0.49071478
1.6387063e-14
-0.52163604
1.5800423e-14
-0.55328452
1.5232301e-14
-0.58640896
2.2752792e-18
-0.62063755
1.4163445e-14
-0.65595933
2.7310238e-14
-0.69441633
0
-0.73953014
0
-0.7925338
-0.00011281459
-0.011997946
-0.00028681363
-0.021880779
-0.00035080436
-0.031080908
-0.00027655548
-0.041196945
0
-0.047702851
0
-0.059048142
0
-0.070980365
-8.017336e-15
-0.083804644
0
-0.097719829
-7.4390471e-15
-0.11303993
4.5360943e-18
-0.12956787
-6.8938596e-15
-0.14605088
0
-0.16276995
0
-0.18107968
1.2318302e-14
-0.20157933
0
-0.22354951
1.1420476e-14
-0.24619524
-1.1000532e-14
-0.26974253
0
-0.2944694
1.0213769e-14
-0.32048866
0
-0.34792799
9.479999e-15
-0.37658287
0
-0.40588853
0
-0.43564503
0
-0.46590748
0
-0.4962363
0
-0.52651454
0
-0.55761339
-2.4351184e-18
-0.59021749
1.9761714e-18
-0.6239308
2.7299757e-14
-0.65884673
0
-0.69723179
0
-0.74252582
2.7489432e-18
-0.79567632
-0.00010944543
-0.011929579
-0.00030694983
-0.02182238
-0.00043376906
-0.031157095
-0.00046574817
-0.041475845
-0.00034240617
-0.050789208
0
-0.055287821
0
-0.066472197
0
-0.078479969
-7.7208449e-15
-0.091487607
-4.7343241e-18
-0.10576115
7.1638494e-15
-0.12122976
1.3791922e-14
-0.13666802
-3.0127647e-18
-0.15230935
0
-0.16949509
0
-0.18890824
0
-0.20982833
0
-0.23133139
-5.2142857e-18
-0.25368199
1.0599956e-14
-0.2771481
-1.0211423e-14
-0.30177215
4.1434007e-18
-0.3277906
9.4803457e-15
-0.3553431
-9.1367762e-15
-0.38383645
0
-0.41263006
0
-0.4418339
0
-0.47148612
0
-0.50116386
0
-0.53082797
0
-0.56140657
1.4150667e-14
-0.59354192
1.7166076e-18
-0.62677514
0
-0.66139039
2.5371848e-14
-0.69979861
0
-0.74531432
-2.3575509e-14
-0.79858811
-9.7331933e-05
-0.011860219
-0.0002980338
-0.021761092
-0.00046517197
-0.031222105
-0.0005769296
-0.041718532
-0.00057688005
-0.051253251
-0.0003948639
-0.058438894
-8.3302095e-15
-0.062218363
8.0229101e-15
-0.073479195
0
-0.085641196
4.6963961e-18
-0.098940711
-4.5109116e-18
-0.1133982
0
-0.12784191
6.641538e-15
-0.14246428
-1.2793843e-14
-0.15857735
0
-0.17694047
0
-0.19684935
0
-0.21723763
0
-0.23842557
1.0593499e-14
-0.26069771
0
-0.28401822
1.9667101e-14
-0.30862444
-9.4729742e-15
-0.33488648
3.9294689e-18
-0.36255507
0
-0.39068018
0
-0.41887454
0
-0.44747637
-1.5771378e-14
-0.47651635
0
-0.50554528
0
-0.53461995
1.4146102e-14
-0.56471558
0
-0.59641741
1.4695592e-18
-0.62923207
0
-0.66364027
-2.4452834e-14
-0.70216368
0
-0.74791492
0
-0.80127958
-7.8429615e-05
-0.01179123
-0.00026533481
-0.02169796
-0.00045263508
-0.031274342
-0.00061983007
-0.041933
-0.00071498043
-0.051656641
-0.00066522346
-0.059112568
-0.000434258
-0.065290528
0
-0.068765699
0
-0.080157994
0
-0.092552675
4.4951671e-18
-0.10605822
6.8946281e-15
-0.11954967
0
-0.13321216
6.395423e-15
-0.14830331
6.1555176e-15
-0.16565224
0
-0.18459087
1.1424079e-14
-0.20389298
-1.0996967e-14
-0.22394499
0
-0.24507482
1.020297e-14
-0.26717169
9.8331919e-15
-0.29042877
0
-0.31533005
9.1293968e-15
-0.34198902
8.79877e-15
-0.36949646
-8.4812659e-15
-0.39699345
0
-0.42457571
0
-0.45259813
1.5203128e-14
-0.48101133
0
-0.50942122
0
-0.5379214
0
-0.56757241
-1.3148397e-14
-0.59889236
-1.2677297e-14
-0.63136348
1.2223499e-14
-0.66566041
2.357154e-14
-0.70436175
0
-0.75036287
2.1904658e-14
-0.80373446
-5.4653557e-05
-0.011723574
-0.00021406604
-0.021634613
-0.00040386175
-0.031313703
-0.00060418203
-0.042118044
-0.00076850111
-0.052015175
-0.00082444666
-0.059701092
-0.00073158475
-0.066183779
-0.00046665503
-0.071671218
0
-0.074996984
0
-0.086570282
0
-0.099184805
3.5988552e-18
-0.11177082
6.6387796e-15
-0.12452587
0
-0.13864907
0
-0.15502028
-3.6208922e-18
-0.17302666
0
-0.19127373
0
-0.21021856
-1.0590788e-14
-0.23024852
0
-0.25117984
0
-0.27317131
0
-0.29672846
9.1218609e-15
-0.3221393
-8.790908e-15
-0.34886166
0
-0.3758706
0
-0.4027435
0
-0.42976222
0
-0.45720784
0
-0.4850322
0
-0.51281742
0
-0.54077836
1.314216e-14
-0.57002357
0
-0.60100954
1.0953687e-18
-0.6332232
0
-0.66748062
0
-0.70642424
0
-0.75262339
0
-0.80596239
-2.7896339e-05
-0.011658233
-0.00014937829
-0.021572024
-0.00032654499
-0.031340709
-0.00054002352
-0.042272604
-0.0007494982
-0.052327766
-0.00088619778
-0.06022493
-0.00090660878
-0.066965185
-0.00078615701
-0.072822307
-0.00049377233
-0.07764096
-7.4401089e-15
-0.080951305
0
-0.09275061
0
-0.10448441
0
-0.11637972
0
-0.12958853
6.1589429e-15
-0.1450186
0
-0.16212793
-3.0799085e-18
-0.17935535
0
-0.19722331
1.0589689e-14
-0.21619143
-1.01998e-14
-0.23600848
0
-0.25679305
-9.4686682e-15
-0.2790513
9.122882e-15
-0.30313836
2.6365371e-14
-0.32881832
8.4729224e-15
-0.3552289
8.1642165e-15
-0.38163343
-7.8739644e-15
-0.40796663
0
-0.43446144
0
-0.46136341
0
-0.48858425
0
-0.51577872
0
-0.54321889
1.2667592e-14
-0.57209832
0
-0.60282678
0
-0.63485638
0
-0.66914716
2.1899208e-14
-0.70833992
2.110915e-14
-0.75472526
-2.0348223e-14
-0.80795427
-0.011595572
0
-7.6358211e-05
-0.021510942
-0.0002283835
-0.03135577
-0.00043734883
-0.042396396
-0.00067026608
-0.052593546
-0.00086436433
-0.060682438
-0.00097448705
-0.067656402
-0.00097427297
-0.073833575
-0.00083192359
-0.079057738
-0.00051622622
-0.083234819
0
-0.086704941
0
-0.09766961
0
-0.10875017
0
-0.12109956
-3.5940904e-18
-0.13562362
0
-0.15186572
5.7114577e-15
-0.16810912
-2.7002185e-18
-0.18493356
0
-0.20288071
0
-0.22162666
-9.8231711e-15
-0.24125366
0
-0.26227863
-9.120045e-15
-0.28506461
4.1372022e-18
-0.3095081
8.4689286e-15
-0.33502853
3.3131649e-18
-0.36093768
7.8693282e-15
-0.38684388
-7.587314e-15
-0.41270029
0
-0.43871222
0
-0.46507521
1.3610356e-14
-0.49172411
0
-0.51832863
0
-0.54528874
-1.2209189e-14
-0.57384233
1.177406e-14
-0.60437377
1.1354981e-14
-0.63629202
0
-0.67066595
-2.1106444e-14
-0.71013136
0
-0.75661195
0
-0.8097309
-0.021452118
0
-0.011536233
2.7611599e-05
-0.00011699471
-0.031358566
-0.00030635032
-0.04248926
-0.00054313232
-0.052811279
-0.00077307426
-0.061071747
-0.00095046322
-0.068256539
-0.0010471302
-0.074726111
-0.0010310445
-0.080307233
-0.00086966776
-0.084910378
-0.00053473981
-0.088558868
0
-0.091255612
0
-0.10161398
0
-0.11315207
3.6297457e-18
-0.12680856
-5.9311797e-15
-0.14221121
0
-0.15750745
-5.4970902e-15
-0.17332473
5.2939586e-15
-0.19029022
0
-0.20800887
0
-0.22652342
0
-0.24636702
0
-0.26790297
8.7804391e-15
-0.29106418
0
-0.31546422
0
-0.34062748
-7.8617365e-15
-0.366089
-7.5799177e-15
-0.39154785
7.3092316e-15
-0.41699151
0
-0.44254138
0
-0.46838301
0
-0.49445836
0
-0.5205158
0
-0.54700318
0
-0.57528207
0
-0.60569264
1.094428e-14
-0.63756606
0
-0.67206654
-2.0344073e-14
-0.71174065
0
-0.75831195
-1.8904174e-14
-0.81125251
-0.03134877
0
-0.021397443
7.583192e-05
-0.011481269
5.3553797e-05
-0.00015715586
-0.042550527
-0.00038064957
-0.052980023
-0.00062655257
-0.061391151
-0.00085002216
-0.068764216
-0.0010212199
-0.075497993
-0.0011081784
-0.081407277
-0.0010777351
-0.086391163
-0.00090053027
-0.090480119
-0.00054681585
-0.092592176
0
-0.09490371
0
-0.10571724
-6.1552844e-15
-0.11854487
5.9311733e-15
-0.13312902
-3.1501833e-18
-0.14752213
0
-0.16237222
0
-0.17839608
5.0982197e-15
-0.19512967
0
-0.21257447
0
-0.2312865
0
-0.25163266
0
-0.27353934
8.4577876e-15
-0.29671887
3.5615118e-18
-0.32089178
-7.8602442e-15
-0.34571886
7.5777098e-15
-0.3707773
-7.3040883e-15
-0.39584273
7.0439084e-15
-0.42088023
0
-0.44597319
-1.3108928e-14
-0.47130469
0
-0.49684644
0
-0.52234863
0
-0.54841057
-1.1344394e-14
-0.5764648
-1.0940508e-14
-0.60680527
1.0548576e-14
-0.63870045
-1.0170894e-14
-0.67331539
1.9610528e-14
-0.71319233
0
-0.75978116
0
-0.81255357
-0.042578605
0
-0.031329194
0.00011666544
-0.021348215
0.00014734818
-0.011432108
7.6110432e-05
-0.00019537953
-0.053098808
-0.00043920293
-0.061639708
-0.00068890265
-0.0691773
-0.00091325914
-0.07614769
-0.0010807611
-0.082354416
-0.0011582245
-0.087694585
-0.0011155916
-0.092175895
-0.00092029117
-0.094727178
-0.00055108888
-0.095693481
0
-0.098736683
0
-0.110805
0
-0.12458999
3.1691696e-18
-0.1381232
5.4966738e-15
-0.15205198
-5.2959732e-15
-0.16717157
0
-0.18296439
-2.0533054e-18
-0.19938272
-9.460933e-15
-0.21700834
0
-0.23621955
8.7791726e-15
-0.25692636
0
-0.27887007
-3.6143528e-18
-0.30190578
0
-0.32590099
7.5730128e-15
-0.35041115
-7.2939856e-15
-0.37505834
7.042917e-15
-0.39975506
-6.7903404e-15
-0.42440149
0
-0.44904164
0
-0.47388848
1.7994541e-18
-0.49888735
0
-0.52387627
0
-0.5495342
-1.0935356e-14
-0.57741077
-1.0545766e-14
-0.60775534
5.479932e-19
-0.6397015
0
-0.67444012
0
-0.71444996
0
-0.76106735
0
-0.81363008
-0.053166123
0
-0.042579298
0.00015707538
-0.031300696
0.00022711846
-0.021304986
0.00020979252
-0.011389221
9.357621e-05
-0.00022549705
-0.061817429
-0.00048290981
-0.069495194
-0.00074008886
-0.076672528
-0.00096642891
-0.08314558
-0.0011294248
-0.088815963
-0.0011986622
-0.093668809
-0.0011394048
-0.096593872
-0.00092686401
-0.098048502
-0.00055259473
-0.099015139
0
-0.10354075
0
-0.11656161
0
-0.12928108
5.4991733e-15
-0.14233641
0
-0.15659226
0
-0.17148513
-4.9090998e-15
-0.18692171
-1.9899863e-18
-0.2035067
0
-0.22163458
0
-0.24119564
8.4557116e-15
-0.26193503
0
-0.28376742
0
-0.30673458
0
-0.33056879
0
-0.35472289
7.0356552e-15
-0.37899391
-1.3568254e-14
-0.40333544
0
-0.4275709
0
-0.45177583
0
-0.47614709
1.5565044e-18
-0.50063318
0
-0.52511272
0
-0.55041823
-1.0541096e-14
-0.57817044
0
-0.60855184
-9.8013066e-15
-0.64058413
-9.449027e-15
-0.67540066
1.8219007e-14
-0.71555073
0
-0.76213142
1.6928297e-14
-0.81451961
-0.0619218
0
-0.053192298
0.000195489
-0.042553132
0.00030604797
-0.031261053
0.00032388573
-0.021269142
0.00025844555
-0.011353516
0.00010432017
-0.00024794662
-0.069717295
-0.00051873781
-0.077070779
-0.00078309977
-0.083777904
-0.0010098474
-0.089751904
-0.0011685816
-0.094954772
-0.0012235753
-0.098234647
-0.0011469513
-0.10010635
-0.00092944752
-0.10168364
-0.00055684405
-0.10331598
0
-0.10898204
0
-0.12096502
0
-0.13319541
5.2955498e-15
-0.14662539
0
-0.16066422
0
-0.17516516
4.7291294e-15
-0.19075545
-4.5548163e-15
-0.20784694
0
-0.22631544
0
-0.24589615
8.1442884e-15
-0.26652421
0
-0.2883433
0
-0.31132831
0
-0.33495179
0
-0.35871279
0
-0.38261331
6.5390526e-15
-0.40658188
6.3060818e-15
-0.43041793
0
-0.45420087
0
-0.47811148
1.132495e-14
-0.50208755
0
-0.5261044
0
-0.55109084
1.01614e-14
-0.5787631
0
-0.60922899
9.4474507e-15
-0.64132908
-9.1077664e-15
-0.67622543
0
-0.71644755
-1.6926506e-14
-0.76301503
-1.6315456e-14
-0.81519125
-0.069840783
0
-0.061968014
0.00022578068
-0.053177286
0.00038108058
-0.042493976
0.00043671216
-0.031209911
0.00039957852
-0.021242073
0.00028867387
-0.011326119
0.00010668727
-0.00026630779
-0.077340493
-0.00054878914
-0.084248478
-0.00081814945
-0.090498163
-0.0010446638
-0.09602962
-0.001192356
-0.099644555
-0.0012310823
-0.10190742
-0.0011501493
-0.10402304
-0.00093710856
-0.10635081
-0.00056433758
-0.10820337
0
-0.11310634
0
-0.12460134
0
-0.13724027
-5.0969304e-15
-0.15046659
-4.9103413e-15
-0.16408442
0
-0.17872648
2.1133458e-18
-0.1948302
-4.3864945e-15
-0.21225394
0
-0.23072206
0
-0.25017981
0
-0.27081976
0
-0.29275949
0
-0.31570507
-7.0228584e-15
-0.33902383
0
-0.36239506
-6.5317275e-15
-0.38593392
1.2604482e-14
-0.40953178
0
-0.43296501
0
-0.45633195
0
-0.47979952
0
-0.50329892
0
-0.5268643
0
-0.55159299
9.7949531e-15
-0.57923481
-2.8731833e-19
-0.60978286
-9.1056775e-15
-0.64195215
8.7788023e-15
-0.67687665
0
-0.7171798
0
-0.76369656
0
-0.81568476
-0.077479017
0
-0.069886287
0.00024829193
-0.061954638
0.00044029859
-0.053110117
0.00054404897
-0.042400634
0.00053895305
-0.031147316
0.00044680505
-0.021224084
0.00029581199
-0.01130742
9.9072504e-05
-0.00028167559
-0.084555065
-0.00057326947
-0.091051456
-0.000846248
-0.096888554
-0.0010655925
-0.10081843
-0.0011991585
-0.1034461
-0.0012343356
-0.10606605
-0.0011600231
-0.10902728
-0.0009501669
-0.11160183
-0.00056885387
-0.11173081
0
-0.11649699
0
-0.12840673
0
-0.14086372
2.0105007e-18
-0.1536489
4.7261562e-15
-0.16739284
-4.5513535e-15
-0.18255426
-4.3835425e-15
-0.19898124
0
-0.21638412
0
-0.23470878
0
-0.25418447
0
-0.27498737
0
-0.29702557
0
-0.31984122
6.7694575e-15
-0.34281471
0
-0.36579675
6.2968083e-15
-0.38897587
0
-0.41220105
-1.1719086e-14
-0.43523296
0
-0.45819966
0
-0.48124503
9.15357e-19
-0.50426894
0
-0.5274351
0
-0.55195635
9.4417054e-15
-0.57959793
9.1037977e-15
-0.61023105
-8.7769682e-15
-0.64243792
0
-0.6773935
0
-0.71773308
0
-0.76422405
1.5156961e-14
-0.81600044
-0.084695414
0
-0.077513611
0.00026659752
-0.069852583
0.00048423837
-0.061864824
0.00062887154
-0.052991808
0.00067173328
-0.042272536
0.00060264399
-0.031072997
0.00045821187
-0.021215271
0.00027522083
-0.011298243
7.9843455e-05
-0.00029417774
-0.091408704
-0.00059290929
-0.097527494
-0.00086296526
-0.10175068
-0.0010710768
-0.10471594
-0.0012020783
-0.10780513
-0.0012453186
-0.11136017
-0.0011764583
-0.11459253
-0.00095768307
-0.11546004
-0.00056708564
-0.11451957
0
-0.12006695
0
-0.1318244
-4.9097538e-15
-0.14382938
4.7277007e-15
-0.15672552
-4.552932e-15
-0.17099227
4.3828289e-15
-0.18646843
4.223505e-15
-0.20285281
-1.784116e-18
-0.22008631
0
-0.23843231
0
-0.25809599
0
-0.27907727
0
-0.30113949
0
-0.32372936
0
-0.34632911
1.9993088e-18
-0.36893804
-6.0671801e-15
-0.39177038
0
-0.41461034
-5.6488156e-15
-0.43723858
0
-0.459823
0
-0.48246316
0
-0.50503936
0
-0.52783647
-1.8875254e-14
-0.55221007
0
-0.57986084
-8.7754115e-15
-0.61056994
-8.4602559e-15
-0.64280873
-8.1560787e-15
-0.67775319
1.5724084e-14
-0.71814982
0
-0.76457195
1.460847e-14
-0.8161755
-0.091566047
0
-0.084704797
0.00028182852
-0.077443752
0.00051985687
-0.069716586
0.00069169901
-0.061699183
0.00077682542
-0.052821718
0.00075145896
-0.042110104
0.00061787274
-0.030988091
0.00042651006
-0.021217112
0.00022222227
-0.011299479
4.7376777e-05
-0.00030423982
-0.097941943
-0.00060447247
-0.10243553
-0.00086701176
-0.10571024
-0.0010735107
-0.1092348
-0.0012130285
-0.11334386
-0.0012632214
-0.11719606
-0.0011859699
-0.11873849
-0.00095501386
-0.11857809
-0.00056342689
-0.11747672
-5.0990339e-15
-0.12328014
0
-0.13459522
0
-0.14669171
-4.5503184e-15
-0.16010908
0
-0.17468496
4.2227216e-15
-0.19009929
1.7682864e-18
-0.20628633
-1.6632361e-18
-0.2235406
0
-0.24209688
0
-0.26197816
7.0117982e-15
-0.28306655
0
-0.30504414
-6.5177991e-15
-0.32736339
6.285896e-15
-0.34960375
0
-0.37186362
0
-0.39432687
1.2230727e-18
-0.4167669
5.4443751e-15
-0.4390034
0
-0.46122753
0
-0.48347511
9.7796369e-15
-0.50561859
0
-0.52810164
0
-0.55234903
-8.7727828e-15
-0.58003346
0
-0.61080355
1.229611e-19
-0.64305097
7.8612447e-15
-0.67799248
0
-0.71839871
0
-0.7647885
1.4079663e-14
-0.81617956
-0.098125705
0
-0.091564876
0.00029420521
-0.08458313
0.00054938235
-0.077240891
0.00074244696
-0.06947912
0.00085451239
-0.061457137
0.00086949979
-0.052599914
0.00077078929
-0.041915501
0.00057478732
-0.030889246
0.00034436581
-0.021231334
0.00013209892
-0.01130867
1.0421229e-14
-0.00031012573
-0.10286997
-0.00060702325
-0.10642431
-0.00086873364
-0.11034825
-0.0010834144
-0.11497385
-0.0012306009
-0.11940653
-0.0012734282
-0.1215985
-0.001182849
-0.12215912
-0.00094918396
-0.12186973
-0.00055897877
-0.12006525
0
-0.12587507
0
-0.13726012
-4.5498994e-15
-0.1498722
0
-0.16359631
-2.0170215e-18
-0.17809056
-4.0646046e-15
-0.19328032
0
-0.20948558
-1.6611129e-18
-0.22697257
0
-0.24577197
0
-0.26579865
-6.7518327e-15
-0.28690031
0
-0.30874248
6.2780618e-15
-0.33078498
0
-0.35269105
0
-0.37458307
5.6382868e-15
-0.39665715
-5.439189e-15
-0.41869321
5.248484e-15
-0.44054852
0
-0.46242136
0
-0.48430076
-9.4271904e-15
-0.50604304
0
-0.5282277
0
-0.55239479
8.4563231e-15
-0.58009937
8.1531526e-15
-0.61093414
6.0522511e-20
-0.64318529
-2.2730926e-14
-0.67808704
5.6301814e-20
-0.718533
0
-0.76484941
-8.8577219e-20
-0.81603155
-0.10304954
0
-0.098127109
0.00030424055
-0.091403856
0.00057336755
-0.08429556
0.00078436366
-0.076907359
0.00091707077
-0.06913962
0.00095658095
-0.061138809
0.00089235705
-0.052327497
0.00071734142
-0.041684737
0.00046362817
-0.030776426
0.00020460796
-0.021248661
-1.0047431e-14
-0.010301893
0
-0.00031130129
-0.10685705
-0.00060805164
-0.11114218
-0.00087678586
-0.11624536
-0.001099146
-0.12121881
-0.0012406065
-0.12402969
-0.001270362
-0.12528424
-0.0011758967
-0.12574923
-0.00094172284
-0.12475809
-0.00055174662
-0.12204119
0
-0.12836662
0
-0.14024584
0
-0.15316577
-4.2194292e-15
-0.16679703
-1.7368142e-18
-0.18103855
0
-0.19624046
0
-0.21269871
-1.6956645e-18
-0.2304545
0
-0.24942245
6.7474408e-15
-0.26950917
6.507882e-15
-0.29057903
0
-0.31225467
0
-0.33402589
-5.8363065e-15
-0.35559116
0
-0.37709775
-5.4350167e-15
-0.39876398
-5.2434649e-15
-0.42040621
-5.0605038e-15
-0.44188724
0
-0.46343406
0
-0.48496673
-9.0879969e-15
-0.50631461
0
-0.52824195
0
-0.55233066
-6.9062664e-20
-0.58007631
0
-0.61095363
-7.5760285e-15
-0.64320745
0
-0.67809429
0
-0.71853659
0
-0.76476838
-0.0074408855
-0.80827955
-0.10700878
0
-0.10303236
0.00031007718
-0.097944725
0.00059289486
-0.091039483
0.00081833795
-0.083843954
0.00096849585
-0.076442786
0.0010264084
-0.068698128
0.0009817869
-0.060745265
0.00083094919
-0.052005531
0.0005788748
-0.041415477
0.00027503943
-0.030641065
0
-0.019559416
0
-0.011010616
-2.0848612e-14
-0.00031172276
-0.11161399
-0.00061369458
-0.11715318
-0.00088955388
-0.12262691
-0.0011080664
-0.12602269
-0.001237787
-0.12794232
-0.0012631547
-0.12913022
-0.0011667392
-0.12890048
-0.00092966033
-0.12701744
-0.0005429639
-0.12392472
0
-0.1311674
0
-0.14335322
0
-0.15617716
1.7203657e-18
-0.16952924
-3.9149608e-15
-0.18377732
7.540456e-15
-0.19924758
7.2658488e-15
-0.21599682
3.498675e-15
-0.23394297
0
-0.25298973
6.5002239e-15
-0.27308714
6.270258e-15
-0.2940977
0
-0.31560772
5.8304839e-15
-0.33710069
0
-0.35831184
5.4295588e-15
-0.37940681
1.1731267e-18
-0.40067344
0
-0.42191856
4.8779802e-15
-0.44304069
0
-0.46428349
0
-0.48548941
0
-0.50646142
0
-0.52814089
8.1487223e-15
-0.55218123
-1.6253061e-19
-0.57992589
-7.5747976e-15
-0.61087973
0
-0.64314979
-7.6769354e-20
-0.67799169
0
-0.71840379
-0.01444475
-0.75750318
-0.0067740543
-0.8010679
-0.11176383
0
-0.10694667
0.00031106654
-0.1028193
0.00060427926
-0.097528547
0.00084617046
-0.090472645
0.0010100857
-0.083227986
0.0010835739
-0.075847256