/*--------------------------------*- C++ -*----------------------------------*\
| =========                 |                                                 |
| \\      /  F ield         | OpenFOAM: The Open Source CFD Toolbox           |
|  \\    /   O peration     | Version:  v2012                                 |
|   \\  /    A nd           | Website:  www.openfoam.com                      |
|    \\/     M anipulation  |                                                 |
\*---------------------------------------------------------------------------*/
FoamFile
{
    version     2.0;
    format      ascii;
    class       volScalarField;
    location    "69.7435890445533886";
    object      p;
}
// * * * * * * * * * * * * * * * * * * * * * * * * * * * * * * * * * * * * * //

dimensions      [0 2 -2 0 0 0 0];


internalField   nonuniform List<scalar> 
9200
(
0.007785114
0.0076737682
0.024421765
0.0075327369
0.024115678
0.039575254
0.0072987725
0.023700031
0.039107554
0.054668982
0.0070038005
0.022992259
0.038466051
0.054092327
0.069439907
0.0066066147
0.022074136
0.037384936
0.053301806
0.068810173
0.084007708
0.00613222
0.020845209
0.035983709
0.0519673
0.067951773
0.083377245
0.098332127
0.0055406517
0.019331452
0.034125213
0.050240873
0.066497881
0.082529152
0.097743378
0.11237342
0.0048433989
0.017465275
0.03183746
0.047958226
0.064626408
0.081083456
0.096969564
0.11188026
0.1260823
0.0040173719
0.015241063
0.029029064
0.045148311
0.062157291
0.079235903
0.095641499
0.11122362
0.12572076
0.13948671
0.0031644429
0.01264274
0.025682893
0.041703962
0.059125595
0.076801171
0.093962274
0.11009676
0.12521742
0.13917418
0.15252874
0.0021574979
0.0095737445
0.021757019
0.037606543
0.05541929
0.073824604
0.091748323
0.10869719
0.12434823
0.1388852
0.15218628
0.16500346
0.00097419471
0.0061564289
0.017189752
0.032796737
0.051021201
0.070197138
0.089058582
0.10684611
0.12330401
0.13829233
0.15218625
0.16488549
0.17705388
-0.00030348505
0.0024222545
0.012045952
0.027236094
0.045859617
0.065909766
0.085789181
0.1046164
0.12191373
0.13765454
0.15181807
0.16498165
0.17706641
0.18865567
-0.0016694305
-0.0016609306
0.0062734513
0.020872282
0.039907284
0.060900525
0.081942085
0.10190815
0.12026224
0.13677466
0.1516403
0.1649452
0.17730867
0.18875263
0.19978303
-0.003107
-0.0060246478
-0.00011227809
0.013693457
0.033107483
0.055157532
0.077468751
0.09873049
0.11825402
0.13577298
0.15125944
0.16510987
0.17752932
0.18912376
0.19994259
0.21044254
-0.0045657988
-0.01058345
-0.0070961357
0.005671831
0.025441786
0.048640773
0.072368637
0.095038226
0.11589977
0.13454846
0.15094416
0.16525652
0.17802821
0.18955202
0.20041382
0.21064188
0.22064603
-0.0060008453
-0.015229729
-0.014639072
-0.0032225958
0.016863712
0.041352127
0.066629791
0.090827475
0.11314726
0.13312066
0.15052704
0.16556682
0.17862915
0.19033092
0.20099823
0.21118134
0.22086391
0.23041255
-0.0073753879
-0.019865029
-0.022705841
-0.013025736
0.0073320274
0.033272556
0.060274397
0.086090572
0.10997279
0.13142929
0.15008173
0.16595556
0.17951225
0.19130763
0.20199023
0.21186846
0.22143951
0.23062788
0.23975924
-0.0085631173
-0.024329885
-0.031268313
-0.023787481
-0.0032128125
0.024393814
0.053326837
0.080845192
0.10633876
0.12943152
0.14953473
0.16647862
0.18062496
0.1926677
0.20325173
0.21300277
0.22217699
0.23120876
0.23995662
0.24870189
-0.0093445431
-0.028523531
-0.04028392
-0.035576715
-0.014851575
0.014702022
0.045825833
0.075125465
0.10221093
0.12705163
0.14884577
0.16709781
0.18203869
0.19438323
0.20497272
0.21445342
0.22338395
0.231948
0.24051518
0.24887564
0.25728
-0.0099462479
-0.032313458
-0.049739006
-0.048468279
-0.027690212
0.0041732746
0.037816708
0.068987385
0.097556323
0.12419067
0.14792131
0.16778422
0.18374742
0.19654164
0.20714167
0.2164131
0.22493105
0.23316295
0.24121249
0.24938969
0.25741279
0.26554673
-0.011644455
-0.035555146
-0.059725298
-0.062559106
-0.041865082
-0.0072284836
0.029343029
0.06251207
0.092345246
0.12072051
0.14662914
0.1684634
0.18575593
0.19916759
0.2098564
0.21887807
0.22701176
0.23472152
0.24237782
0.25000577
0.25786238
0.26559451
0.2734907
-0.018623074
-0.036269925
-0.070215065
-0.078134485
-0.057553808
-0.019560398
0.020438692
0.055803617
0.086557842
0.1164737
0.14479041
0.16901623
0.18803537
0.20230241
0.2131612
0.22194846
0.22962327
0.23681705
0.24387316
0.25107145
0.25836477
0.26596072
0.27344472
0.28110923
-0.031459575
-0.030893408
-0.082099448
-0.095268907
-0.075131634
-0.032906913
0.011126179
0.048983181
0.080193882
0.11123415
0.14215949
0.16926908
0.19052345
0.20596928
0.21711965
0.22567331
0.23286119
0.23944381
0.24589213
0.25243977
0.25928851
0.26632593
0.2737192
0.28098855
0.2884402
-0.039606409
-0.0225854
-0.093587514
-0.11375873
-0.095208621
-0.047437008
0.0014148941
0.042185057
0.073283503
0.10473218
0.13840956
0.16896809
0.19311092
0.210177
0.22178869
0.23011934
0.23676737
0.2426888
0.24842496
0.25430585
0.26047609
0.26707269
0.27392552
0.28116406
0.28825061
0.2955129
-0.046233957
-0.017641788
-0.10413939
-0.13302252
-0.11661019
-0.063357125
-0.0087044224
0.035546086
0.06591358
0.096627808
0.13312923
0.16776111
0.19561758
0.21491231
0.22722393
0.23534825
0.24139495
0.24658019
0.25154973
0.25665669
0.26212581
0.26803597
0.2744659
0.28119862
0.2883211
0.29525253
0.30234596
-0.053192
-0.016514021
-0.11387197
-0.15123786
-0.13739134
-0.081628427
-0.019319144
0.029184109
0.058254677
0.086510406
0.12580292
0.16518268
0.19777054
0.22012453
0.23347968
0.24142246
0.24678736
0.25114848
0.25527998
0.25956463
0.26422439
0.2694159
0.27517215
0.28151146
0.28817629
0.29521421
0.30201416
0.30894929
-0.059857368
-0.02045888
-0.12316163
-0.168795
-0.15687008
-0.099550764
-0.03044264
0.023108676
0.0505815
0.073865664
0.1158037
0.16063069
0.19916825
0.22571013
0.24060052
0.24840772
0.25298267
0.25640621
0.25962242
0.26303275
0.26684327
0.27120612
0.27623903
0.28193217
0.28824922
0.29488829
0.30186368
0.30855409
0.31535235
-0.064321434
-0.025713935
-0.13057966
-0.18573847
-0.17478899
-0.11642201
-0.043038839
0.017394649
0.043348925
0.058069509
0.10233355
0.15333505
0.19923978
0.23147956
0.24861362
0.2563654
0.26001665
0.26235133
0.26455666
0.26704917
0.26998259
0.27348008
0.27767183
0.28265282
0.2883587
0.29471312
0.30136483
0.30830892
0.31488865
0.32155102
-0.066870412
-0.029884903
-0.14097941
-0.2019424
-0.19185482
-0.13129876
-0.055699527
0.011985073
0.037349343
0.038431167
0.08447398
0.14234506
0.19719371
0.23711696
0.25750872
0.26534625
0.26791427
0.26896997
0.27003714
0.27156725
0.27362251
0.27624437
0.27955316
0.28368104
0.28870237
0.29449319
0.30093368
0.30762017
0.31454359
0.32103085
0.32755277
-0.067434591
-0.036289074
-0.15772219
-0.21900454
-0.20749108
-0.14328201
-0.066922518
0.0065758137
0.032378372
0.013884399
0.061160489
0.12644938
0.19201252
0.24214104
0.26720889
0.27537182
0.27668412
0.27623021
0.27599638
0.27650468
0.2777022
0.27948508
0.28190299
0.28512492
0.28929368
0.29443621
0.30037745
0.3069383
0.31367758
0.32058698
0.32699044
0.33337008
-0.066178423
-0.046732659
-0.17789614
-0.23767122
-0.22248289
-0.15299265
-0.075160871
0.001040508
0.028177449
-0.015947138
0.031356451
0.10407455
0.1821399
0.24585631
0.2775451
0.28640711
0.28629982
0.28408018
0.28234234
0.28174647
0.28211815
0.28314236
0.28472634
0.28701907
0.29025108
0.29455688
0.29990104
0.30604684
0.31275413
0.31956115
0.32645251
0.33277113
0.33900979
-0.062674765
-0.062323398
-0.20479501
-0.25884176
-0.2367428
-0.16066631
-0.080857049
-0.0050860493
0.023798205
-0.045449394
-0.003245044
0.07482601
0.16555568
0.24703899
0.28816911
0.2983272
0.29667416
0.29243585
0.28896457
0.28714617
0.28672471
0.28711329
0.28798449
0.28939697
0.29163998
0.29498323
0.29952204
0.30514046
0.31153368
0.31840694
0.32528418
0.33215182
0.33838076
0.34447354
-0.059417691
-0.082512177
-0.24513442
-0.2838452
-0.25406464
-0.16643272
-0.084046654
-0.010569142
0.0177806
-0.071018924
-0.043944966
0.039336267
0.14160474
0.24419285
0.29839025
0.31083316
0.30762442
0.30116045
0.29572529
0.29253654
0.29133222
0.291247
0.29159655
0.2922602
0.29352636
0.29580913
0.29937309
0.3042388
0.31019492
0.31686757
0.32391848
0.33086397
0.33769485
0.34382928
0.34976227
-0.058973982
-0.10258274
-0.30049988
-0.30893239
-0.27442514
-0.17411764
-0.083439789
-0.014810502
0.011493851
-0.090767807
-0.08909811
-0.0047772635
0.11033919
0.2364606
0.3073557
0.3234246
0.31880791
0.31004045
0.30244774
0.29771528
0.29571432
0.29533139
0.29543197
0.29557013
0.29596228
0.29713711
0.29957222
0.30347399
0.30875579
0.31510207
0.32207459
0.32929938
0.33630713
0.34308913
0.34912173
0.35488563
-0.058529511
-0.1189656
-0.35981524
-0.33536219
-0.29705903
-0.18268381
-0.082238803
-0.016476222
0.0067606547
-0.10748055
-0.13342483
-0.055860869
0.074388902
0.22293553
0.31379453
0.33536914
0.32970539
0.31874606
0.30890028
0.30245686
0.29961618
0.29910658
0.29930233
0.29924626
0.29896739
0.29907124
0.30025565
0.30298123
0.30734179
0.31312019
0.31989583
0.32717758
0.33456633
0.34162181
0.34834069
0.3542627
0.35986586
-0.053825815
-0.13518274
-0.42138657
-0.3763516
-0.32315861
-0.19217901
-0.078236176
-0.016631908
0.0038324477
-0.12062429
-0.17446252
-0.10882508
0.036004196
0.20235661
0.3153775
0.34488916
0.33955164
0.32676272
0.31478631
0.30651607
0.30277411
0.30233275
0.30297249
0.30315602
0.30253419
0.30169852
0.30157696
0.30292318
0.30609646
0.31103389
0.31737672
0.32460608
0.33219567
0.33973077
0.34681446
0.35345438
0.35925641
0.3647053
-0.044530318
-0.15757826
-0.48922365
-0.43249516
-0.35513086
-0.20192526
-0.071461524
-0.01132617
0.0057694956
-0.13124895
-0.21031305
-0.15763655
-0.0028071472
0.17433686
0.31067346
0.34897528
0.34689178
0.33342608
0.31973614
0.30962515
0.30484555
0.30461254
0.30615996
0.30711986
0.30661353
0.30509412
0.30368885
0.30349523
0.30519879
0.30898537
0.31460769
0.32156629
0.32925955
0.33714197
0.34480144
0.35188998
0.35843395
0.36410595
0.36939499
-0.030649438
-0.18674781
-0.56318402
-0.49945884
-0.39455511
-0.21329316
-0.062355657
0.00058999221
0.0095424043
-0.13143867
-0.24119353
-0.20252154
-0.040387202
0.13987886
0.30015324
0.34552507
0.34936132
0.33788253
0.32330145
0.31149222
0.30552065
0.30558561
0.30850404
0.31089363
0.31111502
0.30930655
0.30674845
0.30490694
0.30487429
0.30715805
0.3117201
0.31811868
0.32572512
0.33387939
0.34202764
0.34978412
0.35685178
0.36328199
0.36881373
0.3739372
-0.22351244
-0.013234225
-0.64196159
-0.5817409
-0.44185333
-0.22887244
-0.0501717
0.016257666
0.011409877
-0.12494639
-0.25963454
-0.24227728
-0.076002588
0.10566932
0.28208007
0.33398385
0.3444793
0.33891544
0.32486691
0.31178518
0.30443201
0.30480409
0.30958407
0.31414707
0.31589692
0.31435637
0.31090135
0.30738762
0.30537564
0.30579351
0.30888921
0.31437406
0.32161836
0.32988464
0.3384811
0.34686207
0.35468247
0.36170202
0.36800037
0.37338204
0.3783353
-0.72417143
-0.26503903
0.0064867572
-0.68788262
-0.49567321
-0.25122537
-0.035535734
0.035595833
0.014831375
-0.1083868
-0.275123
-0.27253977
-0.10669247
0.075692826
0.25437895
0.31427176
0.33115632
0.33510231
0.32381159
0.31012399
0.30118754
0.30174078
0.30893589
0.31646871
0.32078446
0.32023015
0.31627906
0.31116847
0.30698855
0.30517091
0.30635764
0.31048785
0.31701868
0.32515227
0.33407181
0.34307432
0.35165048
0.35949825
0.36644196
0.37259062
0.37781299
0.38259183
-0.80852074
-0.80918558
-0.30627458
0.028828278
-0.55190279
-0.27734047
-0.020866137
0.058944194
0.025180073
-0.083222433
-0.2772157
-0.30668108
-0.13393875
0.046359946
0.22355525
0.28775838
0.30964557
0.32479586
0.31952988
0.30610316
0.29538086
0.29579632
0.3058289
0.31781393
0.32544594
0.32686699
0.32299012
0.31647805
0.31001173
0.3056135
0.30441313
0.30668861
0.31205128
0.3197202
0.32875905
0.33830704
0.34766891
0.35639477
0.36423182
0.37107226
0.37705405
0.3821084
0.38670935
-0.61528963
-0.92787308
-0.8957684
-0.3451517
0.053492519
-0.30366076
-0.0072623123
0.084937273
0.044394436
-0.053111596
-0.26757426
-0.32749249
-0.17373542
0.012549522
0.19219276
0.2603478
0.28236702
0.30753731
0.31140987
0.29944362
0.2865818
0.28625726
0.29953535
0.31680067
0.32959578
0.33414313
0.33110138
0.32352829
0.31474858
0.30746642
0.30339657
0.3032546
0.30691678
0.31367341
0.3225373
0.33247079
0.34259855
0.35226863
0.36109486
0.36888265
0.37559311
0.3813914
0.38626987
0.3906904
-0.33330125
-0.69147857
-1.0433661
-0.98054853
-0.380939
0.077512775
0.0041237576
0.11193448
0.071543897
-0.019680116
-0.24567637
-0.33485153
-0.20770703
-0.017659328
0.14646761
0.23295143
0.24968063
0.28422102
0.29893019
0.28981473
0.27450002
0.27227424
0.28916392
0.31287512
0.33257936
0.34185062
0.34064091
0.3324943
0.3214889
0.31108353
0.30367798
0.30052454
0.30186648
0.30717284
0.31544082
0.32551833
0.33631454
0.3469512
0.35687482
0.36574924
0.37344941
0.38000371
0.38560296
0.39029921
0.39453778
0.012547369
-0.37026257
-0.77462553
-1.1540371
-1.0602624
-0.41313846
0.09921536
0.13824155
0.10484799
0.017060398
-0.21213197
-0.32596649
-0.2293243
-0.036710421
0.1072792
0.18720247
0.21685345
0.25509388
0.28216357
0.27714739
0.25864749
0.25286103
0.2735828
0.30507379
0.33368369
0.34963259
0.35154871
0.34349524
0.33048943
0.3168037
0.30564014
0.29887262
0.29721773
0.30042656
0.30758103
0.31742915
0.32870058
0.34030726
0.35138618
0.36148506
0.37035505
0.37792921
0.38430227
0.38968942
0.39419934
0.39825455
0.16215048
0.017442445
-0.41427598
-0.85847892
-1.2579767
-1.1322669
-0.44085174
0.11807928
0.1423038
0.055670461
-0.1683495
-0.30058204
-0.23382721
-0.047217741
0.0686139
0.15204033
0.17030915
0.22259677
0.26129047
0.26139904
0.23936439
0.22673078
0.25117192
0.29199272
0.33189593
0.35700897
0.36363144
0.35656447
0.34196102
0.32491976
0.30964992
0.29869094
0.29332883
0.29371236
0.299109
0.30825369
0.31969948
0.33211273
0.34443158
0.35588677
0.36609488
0.37490691
0.38231746
0.38848779
0.3936536
0.39797355
0.40184305
0.17938569
0.18210633
0.019210502
-0.46242433
-0.93806799
-1.3543557
-1.1943966
-0.46313908
0.13312898
0.093929406
-0.11671172
-0.25992718
-0.22145317
-0.050086827
0.036894894
0.11069218
0.12930191
0.18197731
0.23782497
0.24259053
0.21599339
0.19299946
0.2201988
0.27164363
0.32582989
0.36322773
0.37662962
0.3714843
0.35608094
0.33563628
0.31602063
0.30035799
0.29058275
0.28735323
0.29024599
0.2980757
0.30928657
0.32229706
0.33577503
0.34870562
0.36044943
0.37069614
0.37939674
0.38661078
0.3925631
0.39749933
0.40162267
0.40530434
0.13101424
0.21168587
0.19757527
0.017260535
-0.50913093
-1.0105238
-1.4415516
-1.2445139
-0.47935967
0.1433742
-0.060141532
-0.20718096
-0.19344616
-0.043599707
0.012162656
0.071697854
0.082292406
0.14177329
0.20929958
0.22155392
0.18934219
0.14841713
0.17868432
0.24157479
0.31365746
0.36725126
0.39002726
0.38829389
0.37158836
0.34899181
0.32496201
0.30419934
0.28935491
0.28170438
0.28126067
0.28704524
0.29746971
0.31075589
0.32525589
0.33969345
0.35312852
0.36506429
0.37527653
0.38381812
0.39081185
0.39653287
0.4012253
0.40514319
0.40864064
-0.0018074942
0.16704498
0.23797114
0.20850742
0.0095242827
-0.54636763
-1.0746173
-1.5153039
-1.2808049
-0.4890012
0.14976306
-0.14660271
-0.15192654
-0.030222028
-0.0035759861
0.037509471
0.034339506
0.096100709
0.17850087
0.19824842
0.15774898
0.097103844
0.12342985
0.19921037
0.29220939
0.36754286
0.40302055
0.40640753
0.3903096
0.36473111
0.33652089
0.31043428
0.28997569
0.27712276
0.27246151
0.2753585
0.28431587
0.29741077
0.31271732
0.32860234
0.34386075
0.35768827
0.36971473
0.37982593
0.38817358
0.39492629
0.40039187
0.40482067
0.4085343
0.4118595
-0.082631763
0.054295383
0.20034669
0.25754226
0.216362
-0.0027237674
-0.56900596
-1.1280835
-1.5719383
-1.3015669
-0.4900304
0.15302236
-0.10023399
-0.0095519537
-0.0042253166
0.0085016302
-0.012425644
0.044591068
0.14030549
0.17650178
0.13057908
0.040902641
0.059185152
0.14269267
0.25764173
0.36151587
0.41430361
0.42505763
0.41054528
0.38292242
0.35055872
0.31912078
0.29267631
0.27393399
0.2641691
0.26325727
0.26993278
0.2822356
0.29799355
0.31520828
0.3323445
0.34826972
0.36236133
0.37438631
0.38434669
0.39246987
0.39894369
0.40411713
0.40827997
0.41181229
0.41511932
-0.044485742
-0.018788621
0.10545539
0.22914798
0.26971064
0.22153063
-0.014740826
-0.57709694
-1.1680303
-1.6085251
-1.3070848
-0.48319236
0.15293795
0.019849056
0.0096721563
-0.014837426
-0.056498691
-0.00953192
0.094033979
0.15028765
0.10857386
0.00070606858
-0.021245904
0.080161666
0.21107778
0.34607688
0.42197453
0.44301267
0.43161335
0.40281729
0.36679159
0.33013308
0.29753398
0.27238069
0.25669037
0.25100558
0.25447562
0.26523826
0.28095205
0.2992879
0.31825265
0.33645393
0.35289136
0.36712748
0.37908138
0.38884699
0.3966895
0.40282507
0.40769619
0.41163354
0.41513125
0.41847247
0.055556517
0.011945072
0.041818873
0.14992279
0.25184628
0.27667424
0.22414289
-0.023086046
-0.57173935
-1.1931513
-1.6233678
-1.2908591
-0.47435947
0.14792238
0.03240845
-0.029510669
-0.096171615
-0.062755429
0.04361923
0.11843871
0.086996708
-0.042837837
-0.088240052
-0.0021563619
0.15432372
0.3208835
0.42318595
0.45880559
0.45226442
0.42356391
0.38456857
0.34310868
0.30444752
0.27257047
0.25027205
0.2388714
0.23812919
0.24646844
0.26149352
0.28058253
0.3013384
0.32185309
0.34090203
0.3577022
0.37198909
0.38380993
0.39330019
0.40077201
0.40654843
0.41118424
0.41504254
0.41851774
0.42182883
0.062384437
0.094138634
0.06671878
0.097906499
0.18834189
0.26818192
0.28170199
0.22642224
-0.025822983
-0.55335969
-1.2004252
-1.6146347
-1.2604515
-0.4676227
0.13611954
-0.034924451
-0.12733754
-0.11104829
-0.0066192013
0.082597432
0.063956601
-0.077867952
-0.17438766
-0.076206871
0.094390501
0.28673952
0.41554433
0.46970117
0.47121685
0.44376081
0.40295847
0.35740796
0.31307324
0.27445327
0.24505599
0.22708973
0.22109669
0.22600782
0.23954809
0.25888138
0.28120766
0.30415842
0.32596408
0.34566772
0.36270654
0.37695852
0.38853343
0.39761807
0.40468298
0.41020067
0.41477463
0.41847648
0.42192495
0.42518483
-0.033874461
0.094568599
0.13141701
0.11800335
0.14592839
0.21837781
0.27916904
0.2857041
0.23047387
-0.021890187
-0.52257565
-1.1926451
-1.5892636
-1.2109036
-0.4635463
0.11521952
-0.14746448
-0.15293934
-0.052968965
0.044842655
0.039915967
-0.10972016
-0.24555115
-0.1895518
0.036706096
0.24620803
0.39943215
0.47214172
0.48595433
0.46222548
0.4206426
0.37211013
0.3228279
0.27775782
0.24106022
0.21582712
0.20357583
0.20396491
0.21507037
0.23398564
0.25753965
0.28285818
0.30773203
0.33052803
0.3507651
0.36792015
0.38198196
0.39312774
0.40174981
0.40855233
0.41402893
0.41833899
0.42195282
0.42534402
0.42853842
-0.15552326
-0.026567913
0.12323684
0.16378956
0.1608995
0.18465995
0.24026189
0.28731559
0.28973604
0.23733616
-0.011838004
-0.49082687
-1.1774691
-1.5380849
-1.1370671
-0.46184314
0.082674131
-0.18401595
-0.093530229
0.0073355644
0.017260605
-0.14223761
-0.31028689
-0.27779274
-0.065672103
0.18288324
0.37301091
0.4662025
0.49363583
0.47648673
0.43640361
0.38600787
0.33288415
0.2820162
0.23811624
0.2051678
0.18573333
0.18046617
0.18804349
0.20570271
0.22999993
0.25753772
0.28551723
0.31203434
0.33566349
0.35621011
0.37326971
0.38688938
0.39752092
0.40588019
0.4127152
0.41776826
0.4219695
0.42545284
0.42877252
0.43188695
-0.20177305
-0.15191352
-0.0096206524
0.14664971
0.19089665
0.19496244
0.21441421
0.25598142
0.29386924
0.2946174
0.24625804
-0.006867812
-0.46258821
-1.141484
-1.4572993
-1.0424264
-0.46171772
0.035510373
-0.12440642
-0.022808479
-0.0026491236
-0.16862833
-0.3645307
-0.37601824
-0.1707986
0.099661975
0.31089111
0.44916088
0.49287794
0.48580291
0.44789431
0.39789205
0.34215923
0.28654721
0.23591317
0.19505425
0.16769688
0.1556398
0.158484
0.17386282
0.19823078
0.22772662
0.25886986
0.28916466
0.31696499
0.34131262
0.36190315
0.37852643
0.39158164
0.40196841
0.41047483
0.41671643
0.42160295
0.42563303
0.42897547
0.43220595
0.43522777
-0.14025392
-0.20434763
-0.13504781
0.014508954
0.16573714
0.21278396
0.22069032
0.23637302
0.26873486
0.30029093
0.30000718
0.25030352
-0.0017724481
-0.42685377
-1.0811815
-1.3449315
-0.93120735
-0.4628501
-0.026296864
-0.040685676
-0.019356088
-0.1819139
-0.4027328
-0.45918942
-0.26898142
0.013798091
0.2403088
0.39061074
0.48343584
0.48512917
0.45560148
0.40592142
0.34960126
0.29045813
0.23395247
0.18535008
0.14950302
0.12961574
0.12643276
0.13833297
0.16189051
0.19287903
0.22720239
0.26152319
0.29382957
0.32269332
0.34735461
0.36754015
0.38355635
0.39640392
0.40712369
0.41482371
0.42084615
0.4254792
0.42933154
0.43251397
0.43564012
0.43855812
-0.04652168
-0.14054974
-0.18972276
-0.10780818
0.043928748
0.18281462
0.2301757
0.23998184
0.2530302
0.27990834
0.30740734
0.30434657
0.25549951
0.011724804
-0.38218527
-0.99311227
-1.2008841
-0.80718067
-0.46667462
-0.095508947
-0.034830861
-0.18027331
-0.41898432
-0.52119345
-0.35652736
-0.077350466
0.15731141
0.33055994
0.43650407
0.47941932
0.45262828
0.40960578
0.35369609
0.29293127
0.23158899
0.17575483
0.13118037
0.10248231
0.091962025
0.099013465
0.12066262
0.15247554
0.18974536
0.22844314
0.2655778
0.29953528
0.32903461
0.35339322
0.37294271
0.38881899
0.40227309
0.41193703
0.41934089
0.4250226
0.4294039
0.43305609
0.43606275
0.43907039
0.44187518
-0.044902178
-0.042409198
-0.12552353
-0.15990071
-0.07218129
0.073979249
0.19934205
0.24440895
0.2550379
0.26633945
0.28950856
0.31421344
0.31109265
0.26309602
0.034735271
-0.32686824
-0.87525403
-1.0277988
-0.67607132
-0.47471981
-0.17072964
-0.16360198
-0.40970169
-0.55389715
-0.4274977
-0.16124913
0.073366433
0.25655963
0.38686799
0.4476836
0.44716424
0.4051672
0.35403963
0.29270275
0.22826465
0.16590786
0.11261323
0.074389421
0.055147585
0.055849858
0.074255382
0.10599109
0.14581195
0.18889012
0.23158255
0.27108405
0.30613368
0.33546588
0.3591956
0.37871654
0.39559345
0.40769122
0.41696548
0.42390648
0.42926017
0.43336534
0.43680014
0.43961528
0.44249232
0.44517622
-0.13342261
-0.03575011
-0.02532953
-0.096457437
-0.11732772
-0.030984004
0.10101523
0.21481214
0.25640169
0.26731998
0.27767698
0.299684
0.3200721
0.32076727
0.27476371
0.069328938
-0.25772223
-0.72758488
-0.8298707
-0.54663319
-0.48495984
-0.25190864
-0.37427417
-0.55037919
-0.47172018
-0.22977913
-0.007855122
0.17845236
0.31836435
0.41092307
0.42451856
0.39826369
0.34767551
0.28966808
0.2229918
0.15551654
0.09373872
0.045364043
0.016187427
0.0088236932
0.022419548
0.052897073
0.094652469
0.14204083
0.19050552
0.23681229
0.27764991
0.31295727
0.34167639
0.36555624
0.38663401
0.40179215
0.41338008
0.42203802
0.42854555
0.4335441
0.43735611
0.44055546
0.44316527
0.44590236
0.44845847
-0.31519929
-0.087722965
-0.0052306353
0.0060861682
-0.054815605
-0.065316338
0.013158735
0.12456023
0.22837835
0.26673545
0.27807152
0.28912902
0.30959977
0.32652425
0.33268173
0.29105207
0.11684473
-0.17064407
-0.55024641
-0.61446989
-0.41822267
-0.49904653
-0.33052834
-0.5089557
-0.47876545
-0.27527292
-0.071851702
0.1000874
0.2432017
0.35053736
0.4024403
0.38119306
0.33939866
0.28123353
0.21598399
0.14390508
0.074510005
0.015627581
-0.024826558
-0.041923906
-0.035048075
-0.0073083826
0.035470223
0.086916436
0.14146105
0.19482481
0.24385282
0.28495812
0.31958844
0.34869976
0.37491261
0.39383156
0.40832804
0.41910044
0.42719478
0.43323959
0.43786662
0.44136607
0.44431434
0.44670782
0.44929709
0.45171925
-0.43393794
-0.23425059
-0.028923517
0.038750331
0.048566139
-0.0024315265
-0.0069338417
0.057945422
0.14644454
0.24061562
0.27620578
0.28891965
0.29959641
0.31953113
0.33472216
0.3462707
0.31248941
0.17262372
-0.065942289
-0.35302583
-0.39519105
-0.29585996
-0.51812132
-0.39139479
-0.44636772
-0.2895002
-0.1088178
0.031499502
0.16322048
0.2764907
0.35105449
0.37068875
0.3249882
0.27209207
0.20482537
0.13161107
0.054607732
-0.014685706
-0.067441332
-0.096343597
-0.098185196
-0.075095228
-0.032542787
0.022439027
0.083246797
0.14441876
0.20145221
0.25102998
0.29203219
0.32736589
0.35986258
0.38337812
0.40144615
0.41487102
0.42491325
0.43241273
0.43798084
0.44221581
0.44538589
0.44807173
0.45023841
0.4526701
0.45495575
-0.37781121
-0.33230777
-0.14191737
0.038655434
0.092804891
0.097084806
0.05785592
0.054038684
0.10180028
0.17016944
0.25248679
0.28607577
0.29854684
0.31066144
0.32961464
0.34523713
0.36166759
0.33921318
0.23460957
0.052034467
-0.14953955
-0.18578658
-0.18786799
-0.53344716
-0.4210951
-0.27047122
-0.12360843
-0.02095413
0.085311764
0.19147027
0.28003533
0.33057385
0.32463788
0.26079225
0.19456602
0.11635174
0.03486914
-0.045484494
-0.11145755
-0.15385263
-0.16711059
-0.15080514
-0.11018455
-0.05254173
0.014502002
0.084142288
0.15045824
0.20889166
0.25822039
0.3006616
0.34079914
0.36992872
0.3923586
0.40902678
0.42151071
0.43079002
0.4376848
0.44275555
0.44658104
0.44941046
0.45182327
0.45374759
0.45601879
0.45816532
-0.22007523
-0.28323239
-0.21977423
-0.044505687
0.10773857
0.15231878
0.14486865
0.11611586
0.11170404
0.14469723
0.19681067
0.26462297
0.29536818
0.3087827
0.32196988
0.34094039
0.35849721
0.37939343
0.37077827
0.3016887
0.17678991
0.04909245
0.0054215295
-0.097507254
-0.52881798
-0.41387002
-0.12057168
-0.054856458
0.016208519
0.10243898
0.19023456
0.26067677
0.2992462
0.26855403
0.18656293
0.10371745
0.013199704
-0.075722375
-0.15631679
-0.21435969
-0.24127331
-0.2348452
-0.19820771
-0.13921065
-0.06624895
0.012399527
0.089071014
0.157737
0.21635157
0.26764196
0.31693517
0.3528827
0.3806309
0.40124103
0.4167024
0.42821185
0.43672526
0.44299548
0.44755184
0.45095785
0.45343601
0.45555405
0.45723249
0.45933854
0.46134568
-0.098744898
-0.14718701
-0.18042505
-0.10512986
0.046916925
0.17215122
0.21008095
0.19554628
0.16619884
0.16159102
0.18702774
0.22036221
0.27775164
0.30499388
0.3190666
0.33374569
0.35351572
0.37410875
0.39986131
0.40641744
0.37196203
0.30124761
0.23342411
0.17118685
-0.023156833
-0.49412612
-0.37090255
-0.068504556
-0.036492016
0.013404985
0.082962966
0.16393753
0.23809626
0.25691629
0.20316587
0.098442362
-0.0041960236
-0.10714287
-0.20097018
-0.27680543
-0.32091984
-0.32690539
-0.29740863
-0.2387938
-0.16059939
-0.072611708
0.015580407
0.095767121
0.16515187
0.22675026
0.28740521
0.33154604
0.36575076
0.39113898
0.41020845
0.42442932
0.43497178
0.44270188
0.4483319
0.45236646
0.45534382
0.45744167
0.45926274
0.46068696
0.46262566
0.46449442
-0.063597795
-0.059073582
-0.066723683
-0.077050866
0.00049847174
0.12723573
0.23001829
0.26217967
0.24666537
0.20951492
0.2061938
0.21468583
0.24575707
0.29022872
0.31459206
0.32942698
0.34577033
0.36729474
0.39167372
0.42288516
0.44487825
0.44255904
0.41914369
0.39235293
0.30596327
0.041276832
-0.42826958
-0.29941438
-0.069303171
-0.069433337
-0.030340235
0.034951694
0.13990573
0.21527531
0.20343313
0.1249696
-0.0081282317
-0.13304156
-0.24650648
-0.34049882
-0.40451274
-0.42782273
-0.40795775
-0.35258386
-0.27029379
-0.17277793
-0.072235567
0.021222481
0.10288212
0.1765311
0.25094941
0.30514797
0.34712686
0.37828351
0.4017103
0.41920621
0.43220951
0.44177208
0.44870642
0.45369273
0.45719945
0.45971025
0.46142814
0.46294127
0.46410687
0.46587649
0.4676084
-0.082787181
-0.04267945
-0.0088779751
0.012502238
0.023378669
0.0968565
0.19786331
0.2804059
0.30664497
0.28792504
0.24659351
0.23404979
0.24295151
0.26616182
0.30201858
0.32426945
0.34007324
0.35829633
0.38201978
0.41077992
0.44791814
0.48445096
0.50996766
0.5239538
0.51881201
0.40684888
0.097346888
-0.32946755
-0.21212472
-0.13640898
-0.14475725
-0.1162848
0.0062549476
0.13878181
0.1785381
0.13762477
0.028980394
-0.13816922
-0.28617932
-0.40540416
-0.49225156
-0.53569361
-0.5314462
-0.48148858
-0.39721774
-0.29034867
-0.17651173
-0.068538191
0.027584071
0.11528161
0.20626915
0.27264883
0.32410291
0.36217124
0.39084055
0.41227598
0.42824332
0.44002364
0.44859927
0.45474041
0.45908151
0.46201296
0.46406087
0.46538557
0.46658523
0.46748848
0.46908598
0.47068413
-0.17096408
-0.077970117
-0.01051984
0.044015166
0.085728556
0.11328256
0.17595601
0.25473489
0.32033731
0.34219918
0.31874511
0.27155785
0.25974336
0.26547657
0.28488742
0.31328325
0.33400615
0.3509674
0.37122071
0.3975551
0.43085305
0.47405876
0.52306713
0.57024702
0.60856789
0.60845669
0.47351495
0.14904375
-0.20107635
-0.1234038
-0.25362715
-0.2855583
-0.17048922
0.021090602
0.12805057
0.12774865
0.054870782
-0.090842493
-0.29645131
-0.4657368
-0.58237996
-0.6523194
-0.66580305
-0.62778911
-0.5432332
-0.42784452
-0.29964412
-0.17616162
-0.063707843
0.040794177
0.15190586
0.2329166
0.29584034
0.34224532
0.37717825
0.40333464
0.4228555
0.43730017
0.44785901
0.45545877
0.46081243
0.46444936
0.46681458
0.46838396
0.46930972
0.47019106
0.47082498
0.47224711
0.47372048
-0.33990052
-0.17448292
-0.05827948
0.026666853
0.093269835
0.14512809
0.18413619
0.2376175
0.29658501
0.35268214
0.36491286
0.33739525
0.29332729
0.28071733
0.28497238
0.30067372
0.32409799
0.34375007
0.36205627
0.38444797
0.41362704
0.45120878
0.49999003
0.55834457
0.61919399
0.66747813
0.6595756
0.50910261
0.20186554
-0.058000387
-0.033860881
-0.4524824
-0.37421306
-0.14336722
0.048446677
0.096800791
0.060718048
-0.05132304
-0.24101965
-0.48672384
-0.67181732
-0.77364061
-0.81529753
-0.78961398
-0.71116038
-0.58806424
-0.44485398
-0.3037027
-0.17409104
-0.049904534
0.085953713
0.18467853
0.26140177
0.31782041
0.36026167
0.39203626
0.41580067
0.43342981
0.44636595
0.45572633
0.46236588
0.46686054
0.46980902
0.47159062
0.47267596
0.47319793
0.47374951
0.47410429
0.47535618
0.47672086
-0.59470925
-0.38942483
-0.15956793
-0.029084945
0.063720342
0.13526414
0.19155569
0.23614266
0.28385573
0.33949786
0.37144426
0.38101334
0.34634305
0.31083724
0.29818165
0.30080963
0.31432386
0.33433239
0.35346384
0.37321824
0.39780618
0.42980742
0.47113172
0.52419615
0.58780609
0.65313615
0.69849985
0.67472425
0.51934983
0.25151253
0.069453474
0.012450826
-0.60216042
-0.34115196
-0.064717656
0.045230658
0.048823573
-0.029091132
-0.18867538
-0.42787433
-0.71076688
-0.90176547
-0.97311873
-0.97437727
-0.90011183
-0.7744553
-0.61552239
-0.45524421
-0.3051048
-0.16033913
0.0060648819
0.12635143
0.21973883
0.28811967
0.33953739
0.37800601
0.40680216
0.42822153
0.44399159
0.45545835
0.46364972
0.46924326
0.47290376
0.47514509
0.47633843
0.47693563
0.47703898
0.47724085
0.47731921
0.47842025
0.47959587
-0.80504648
-0.69808513
-0.40109116
-0.13299579