/*--------------------------------*- C++ -*----------------------------------*\
| =========                 |                                                 |
| \\      /  F ield         | OpenFOAM: The Open Source CFD Toolbox           |
|  \\    /   O peration     | Version:  v2012                                 |
|   \\  /    A nd           | Website:  www.openfoam.com                      |
|    \\/     M anipulation  |                                                 |
\*---------------------------------------------------------------------------*/
FoamFile
{
    version     2.0;
    format      ascii;
    class       surfaceScalarField;
    location    "69.7435890445533886";
    object      phi;
}
// * * * * * * * * * * * * * * * * * * * * * * * * * * * * * * * * * * * * * //

dimensions      [0 3 -1 0 0 0 0];
oriented        oriented;


internalField   nonuniform List<scalar> 
18180
(
0.0029871433
-3.3882027
0.0057960392
-3.1707624
0.0026459611
-3.3299192
0.0084416227
-2.9676658
0.0051491352
-3.1170757
0.0025085157
-3.2719669
0.010906112
-2.7770844
0.0075277262
-2.9184399
0.0048947488
-3.063246
0.0022876332
-3.2166415
0.013169818
-2.598161
0.009797981
-2.731981
0.0072053688
-2.8689374
0.0044886738
-3.0113123
0.0020370775
-3.1647446
0.015214982
-2.4304929
0.011942084
-2.5562827
0.0094788857
-2.6863126
0.0066676324
-2.8202595
0.0040293009
-2.9624621
0.00173716
-3.1173445
0.016990896
-2.2734457
0.013935073
-2.3910942
0.011713805
-2.5140635
0.0088831333
-2.6411777
0.0060474724
-2.7742996
0.003464199
-2.9174494
0.0014011863
-3.0734407
0.018464319
-2.1265084
0.015727317
-2.2361662
0.013895166
-2.3519647
0.01115756
-2.4723825
0.0081656776
-2.5981934
0.0052529405
-2.7315585
0.0028100278
-2.8758774
0.0010415302
-3.033482
0.019582998
-1.9890132
0.017259128
-2.0910734
0.015985204
-2.19962
0.013503948
-2.3132988
0.010433596
-2.4323637
0.0071848759
-2.557924
0.0042999311
-2.691969
0.0020930641
-2.8378229
0.00067484128
-2.9967141
0.020322007
-1.8603785
0.018445924
-1.9552227
0.01792011
-2.0567661
0.015916785
-2.1636345
0.012897095
-2.2761832
0.0093322012
-2.3947979
0.005949028
-2.5204835
0.0032258726
-2.6556138
0.0013560868
-2.8029685
0.00031109631
-2.9633582
0.020669699
-1.7400589
0.019168189
-1.8280244
0.019616892
-1.9228916
0.018372934
-2.0231884
0.015592167
-2.1292338
0.011770105
-2.2414326
0.0078411898
-2.3598718
0.0045058163
-2.4859913
0.0020978347
-2.6222478
0.00064522311
-2.7711352
-1.1201564e-05
-2.9325199
0.020599579
-1.6274829
0.019285955
-1.7089309
0.020967226
-1.7974398
0.020823864
-1.8914675
0.018546242
-1.9912816
0.014574167
-2.0972444
0.010069109
-2.2092464
0.0060136211
-2.3275854
0.0029529949
-2.4541826
0.00099612282
-2.5916734
9.5957926e-06
-2.7419046
-0.00024853373
-2.904503
0.020095787
-1.5222655
0.018647691
-1.5973645
0.021833308
-1.6798608
0.023196149
-1.7679535
0.021772042
-1.8618851
0.017822846
-1.9619385
0.012734641
-2.0678295
0.0078433973
-2.1794738
0.0039802012
-2.297664
0.0014092982
-2.4248907
-4.0291076e-06
-2.5635607
-0.00052796874
-2.7151849
-0.00044195358
-2.8787458
0.019133345
-1.4239609
0.017121558
-1.4929592
0.022076667
-1.5695837
0.025365489
-1.6520609
0.025273967
-1.7405383
0.021593807
-1.8350667
0.015953477
-1.9351804
0.010103946
-2.0405702
0.0052611392
-2.1515304
0.0019109544
-2.2696535
-6.7367709e-06
-2.3978035
-0.00084075185
-2.5378916
-0.00093996017
-2.6907689
-0.00058426577
-2.855426
0.017728214
-1.332167
0.014534161
-1.3952212
0.021458857
-1.4661355
0.027270248
-1.5432933
0.029023837
-1.626652
0.02596553
-1.7161625
0.01985231
-1.810857
0.012925535
-1.9102862
0.0068887172
-2.0145587
0.0025577807
-2.1249485
-1.9799245e-05
-2.2436155
-0.0012106438
-2.3730045
-0.0014825583
-2.5144354
-0.0012204324
-2.6685234
-0.00066938427
-2.8339561
0.01589588
-1.2465181
0.010720131
-1.3037535
0.019768058
-1.3690498
0.028717613
-1.441048
0.033003086
-1.5197557
0.031020695
-1.6046823
0.024567577
-1.6944765
0.016457778
-1.7882928
0.0089820422
-1.8862983
0.0034068345
-1.989526
-1.3577727e-05
-2.0999768
-0.0016701375
-2.2196337
-0.0021382634
-2.3503117
-0.0019222236
-2.4930719
-0.0013816623
-2.6482028
-0.00070233101
-2.8145177
0.01365218
-1.1666638
0.0054976217
-1.2181756
0.016767179
-1.2778972
0.029542185
-1.3448914
0.037164242
-1.4192289
0.03680395
-1.5001384
0.030252424
-1.5855612
0.020868625
-1.6742842
0.011682231
-1.7663195
0.0045415439
-1.8627701
1.8815049e-05
-1.9656574
-0.0022389183
-2.0769196
-0.002943723
-2.1976987
-0.0027662328
-2.3296079
-0.00216763
-2.4735667
-0.0014372881
-2.6297335
-0.00068995047
-2.7967424
0.011020686
-1.0922877
-0.0013216715
-1.1381289
0.012205949
-1.1922813
0.029556066
-1.2543788
0.041446483
-1.3246306
0.04339547
-1.4019637
0.037032178
-1.4836314
0.026348285
-1.5678338
0.015156419
-1.6543483
0.0060617673
-1.7444166
0.0001088775
-1.8402064
-0.0029489176
-1.9436007
-0.0039638285
-2.0557504
-0.0038031026
-2.1775926
-0.003107289
-2.3106931
-0.0022410579
-2.455856
-0.0014025259
-2.6129699
-0.00064248519
-2.7807445
0.0080722986
-1.0230456
-0.0098909063
-1.0633377
0.0058365035
-1.1118459
0.028562847
-1.1691098
0.045785729
-1.2355289
0.050849611
-1.3096998
0.045061869
-1.3881618
0.033083151
-1.4685054
0.019598962
-1.5500951
0.0080945818
-1.6342133
0.00028982248
-1.7232456
-0.0038316802
-1.8192076
-0.0052593582
-1.9232506
-0.0051186502
-2.0362522
-0.0042590326
-2.1591753
-0.0031956825
-2.2934681
-0.0021727007
-2.4397623
-0.0012975064
-2.5977871
-0.00057030641
-2.7661411
0.0048818835
-0.95808466
-0.020405814
-0.99341912
-0.002585548
-1.0363234
0.026359428
-1.0887301
0.050120769
-1.1515375
0.059216561
-1.2229134
0.054475793
-1.2986733
0.041277126
-1.3757979
0.025224579
-1.4531278
0.010794498
-1.5317706
0.00061235558
-1.6143966
-0.0049273142
-1.7032717
-0.0069168769
-1.799539
-0.0067951712
-1.9041872
-0.0057128316
-2.018214
-0.0043581979
-2.142315
-0.0030774996
-2.2777831
-0.001996014
-2.4251915
-0.0011432973
-2.5840527
-0.00048247239
-2.7530289
0.00038230594
-0.89609782
-0.033430743
-0.92715229
-0.013346055
-0.96529186
0.022733106
-1.0129644
0.05439369
-1.0723115
0.068545143
-1.1412186
0.065393417
-1.2147126
0.051121697
-1.2892181
0.032270377
-1.3629892
0.014348049
-1.4367258
0.0011431302
-1.5132596
-0.006278011
-1.595322
-0.009032779
-1.6841426
-0.0089467487
-1.7807526
-0.0075592321
-1.8863992
-0.0058130392
-2.0016176
-0.0041679161
-2.1269006
-0.0028035111
-2.2635373
-0.0017444281
-2.412022
-0.0009597697
-2.571688
-0.00038961568
-2.7411622
-0.0051275421
-0.83928118
-0.050179797
-0.86257969
-0.027139773
-0.89712792
0.017503608
-0.94143308
0.05853783
-0.99757039
0.078884025
-1.0642709
0.07791538
-1.1358731
0.062789694
-1.2082907
0.040983936
-1.2791983
0.018976817
-1.3486791
0.0019724554
-1.4195092
-0.0079306541
-1.4949592
-0.011730965
-1.576705
-0.011704821
-1.6655168
-0.0099150677
-1.7628924
-0.0076447778
-1.869856
-0.0055169784
-1.9863607
-0.0037624969
-2.1128371
-0.0024235475
-2.2506675
-0.0014496304
-2.4001987
-0.00076763987
-2.5606111
-0.00030438701
-2.7305749
-0.0071913194
-0.79206506
-0.069697511
-0.80406999
-0.044114162
-0.83042922
0.010693234
-0.87272631
0.062567548
-0.9270253
0.090269586
-0.99177915
0.092117679
-1.0617831
0.076423165
-1.132573
0.051614484
-1.2012822
0.024939
-1.2672071
0.0032201264
-1.3328045
-0.00993197
-1.4018407
-0.015158535
-1.4766512
-0.01523587
-1.5580606
-0.012915288
-1.6474362
-0.009955643
-1.7462479
-0.0071949251
-1.8546587
-0.0049324469
-1.9724179
-0.0032140078
-2.1001144
-0.0019833931
-2.2390961
-0.0011404366
-2.3896211
-0.00058623428
-2.5506938
-0.00023236031
-2.7209891
-0.0022522657
-0.75404656
-0.085931222
-0.76115338
-0.06279141
-0.7711955
0.0025374653
-0.80566599
0.067053605
-0.85982667
0.10277981
-0.92349205
0.10803996
-0.99211357
0.092121452
-1.0616457
0.064399447
-1.1287837
0.032530455
-1.1918816
0.0050424713
-1.2527926
-0.012326545
-1.3156381
-0.019492957
-1.3835758
-0.019742347
-1.4579745
-0.016724652
-1.5398525
-0.012858225
-1.6306016
-0.0092797062
-1.7309964
-0.0063664835
-1.8407747
-0.0041621213
-1.9597846
-0.0025870875
-2.088666
-0.0015233517
-2.2287656
-0.00084097346
-2.3801982
-0.00042391931
-2.5418507
-0.00016977532
-2.7124276
0.010703914
-0.72172419
-0.094184677
-0.73207251
-0.081703355
-0.72895501
-0.0071346232
-0.74585001
0.072805142
-0.79503606
0.11694627
-0.85901391
0.12568876
-0.92657957
0.10993073
-0.99512163
0.079548478
-1.0612512
0.042082179
-1.1222866
0.0076410621
-1.1791037
-0.015152107
-1.2360486
-0.024942594
-1.2971747
-0.025471855
-1.3646678
-0.021540123
-1.4395448
-0.016480901
-1.5228212
-0.011848695
-1.6153032
-0.0081168759
-1.7171503
-0.0053053163
-1.8282295
-0.0032954214
-1.948436
-0.0019366878
-2.0784503
-0.0010770493
-2.2195693
-0.00056897922
-2.3718515
-0.00028167988
-2.5339787
-0.00012202318
-2.7047228
0.030928121
-0.69183896
-0.093057225
-0.71003192
-0.098660052
-0.70267856
-0.020667476
-0.70063543
0.077231019
-0.73485288
0.13365705
-0.79776231
0.14520396
-0.86492155
0.12982997
-0.93264994
0.097227509
-0.99825227
0.05395704
-1.0580014
0.011267438
-1.1113729
-0.018430088
-1.1627333
-0.031744966
-1.2170787
-0.03272339
-1.2776244
-0.027599256
-1.3458305
-0.020967996
-1.4223625
-0.014978117
-1.5075298
-0.010225128
-1.6015301
-0.0066746164
-1.7046956
-0.0041336696
-1.8169811
-0.0024054334
-1.9383125
-0.0013075222
-2.0693642
-0.00067064212
-2.2114664
-0.00033747269
-2.3644815
-0.00017105727
-2.5270174
-9.0584806e-05
-2.6978629
0.057133137
-0.66251158
-0.082871779
-0.69005081
-0.11292834
-0.68411782
-0.040818262
-0.66858243
0.075754131
-0.68464796
0.15145229
-0.73959117
0.16698532
-0.8068223
0.15174738
-0.87392097
0.11754068
-0.9393688
0.068541574
-0.99861681
0.01623173
-1.0492402
-0.022160652
-1.0953483
-0.040167414
-1.1429468
-0.041854042
-1.1964641
-0.035186133
-1.2580839
-0.026482443
-1.3283767
-0.018739111
-1.4070657
-0.012717155
-1.4939015
-0.0082833781
-1.5892321
-0.0051189114
-1.6935639
-0.002946649
-1.8069757
-0.0015490468
-1.9293362
-0.00073418555
-2.0613689
-0.0003235452
-2.2043277
-0.00015663678
-2.3580038
-9.6322041e-05
-2.5208291
-7.6096423e-05
-2.6916501
0.087788918
-0.63276603
-0.064813137
-0.66938975
-0.12435666
-0.6677135
-0.065883613
-0.64590565
0.065441008
-0.64462524
0.16511752
-0.6861209
0.19130368
-0.75201195
0.1756426
-0.81865103
0.1405017
-0.88419861
0.086232307
-0.94372148
0.022901982
-0.99235164
-0.026314479
-1.0335648
-0.050502289
-1.0744162
-0.053283719
-1.1207708
-0.044638942
-1.1757769
-0.03320698
-1.2400997
-0.023194531
-1.3129981
-0.01559597
-1.3935621
-0.010120719
-1.481752
-0.0062479599
-1.5782391
-0.0035707812
-1.6836847
-0.0018140856
-1.7981288
-0.00076850621
-1.9214471
-0.00024146274
-2.0543501
-4.8581625e-05
-2.1981001
-3.3363992e-05
-2.3523014
-5.9626025e-05
-2.5153402
-7.1864212e-05
-2.686074
0.12124966
-0.60229183
-0.040341955
-0.64679783
-0.13284549
-0.65067551
-0.09434293
-0.62686455
0.04581619
-0.61345856
0.17197742
-0.64009932
0.21622507
-0.69991249
0.20146132
-0.76655839
0.1660464
-0.83237692
0.10742646
-0.89291138
0.031707962
-0.94035866
-0.030836862
-0.97705114
-0.063061593
-1.0111413
-0.067496594
-1.0501397
-0.05635638
-1.0984452
-0.041345752
-1.1569671
-0.028394851
-1.224536
-0.018834582
-1.2995811
-0.012141975
-1.3815754
-0.0074911303
-1.470966
-0.0042697333
-1.5685134
-0.0021117229
-1.6749671
-0.00078444626
-1.7903854
-9.3595346e-05
-1.914556
0.00015219809
-2.0482442
0.00014793683
-2.1926547
3.1697598e-05
-2.3473065
-5.3894258e-05
-2.510441
-8.8747854e-05
-2.6810107
0.1568562
-0.57136741
-0.010944079
-0.62194034
-0.13806888
-0.63198439
-0.12449607
-0.60885082
0.018015484
-0.5870205
0.16961176
-0.60045897
0.238207
-0.65166916
0.22950267
-0.71742212
0.19413818
-0.78364702
0.13254568
-0.8458436
0.043223084
-0.89299594
-0.035622075
-0.92550501
-0.078176897
-0.95277122
-0.085042409
-0.9841674
-0.070802274
-1.0256419
-0.051124432
-1.0785076
-0.034373036
-1.141137
-0.022368758
-1.2113112
-0.014260136
-1.2878657
-0.0087819843
-1.3710084
-0.0050121404
-1.4614117
-0.0024381723
-1.559918
-0.00079279198
-1.6673531
0.00010720572
-1.7836426
0.00045788129
-1.9085838
0.00044769167
-2.0429382
0.00026242276
-2.1879541
4.5460341e-05
-2.3429189
-8.8297711e-05
-2.5060706
-0.00012246604
-2.6764284
0.19470445
-0.63458796
0.022352514
-0.59556093
-0.13951023
-0.61149915
-0.15492792
-0.59056447
-0.015791768
-0.56374016
0.15889551
-0.56637153
0.25513344
-0.60764645
0.25890026
-0.6712265
0.2247392
-0.73778368
0.16189932
-0.80214607
0.058174597
-0.85007278
-0.040358275
-0.87886168
-0.096149105
-0.89902972
-0.10652789
-0.92245743
-0.088507575
-0.95691522
-0.062787972
-1.0042693
-0.041138393
-1.0623583
-0.026089937
-1.1282151
-0.016338112
-1.200003
-0.010009103
-1.2775915
-0.0057341188
-1.361686
-0.0027735211
-1.4529783
-0.00079926707
-1.5524059
0.00035348578
-1.660743
0.00085204513
-1.777831
0.00087850497
-1.9034258
0.0006348135
-2.0383814
0.00030012799
-2.1838653
4.7798998e-06
-2.3390599
-0.00015412398
-2.5021129
-0.00016269654
-2.672182
0.2376879
-0.64081372
0.060996245
-0.66330351
-0.13731098
-0.58930517
-0.18444202
-0.57165042
-0.053425911
-0.5423279
0.14075822
-0.53632347
0.26610269
-0.56823449
0.28790668
-0.62745829
0.25694303
-0.69390346
0.19480481
-0.76059833
0.076610419
-0.81053813
-0.044794481
-0.8368696
-0.11709927
-0.85003112
-0.13259694
-0.86469962
-0.11006466
-0.89181847
-0.076597108
-0.93380613
-0.048669585
-0.98778189
-0.02983903
-1.0498615
-0.018182873
-1.1175861
-0.011008916
-1.1902988
-0.006332236
-1.2686211
-0.003074502
-1.3534561
-0.00080248394
-1.4455544
0.0006255877
-1.5458653
0.001321371
-1.6550638
0.0014336803
-1.7728505
0.0011644632
-1.8990146
0.00071922852
-2.034464
0.00026716952
-2.1803435
-7.4316286e-05
-2.3356413
-0.0002376259
-2.4984818
-0.00021413148
-2.6682425
0.28508275
-0.64437306
0.10786251
-0.67777937
-0.1322273
-0.6591727
-0.21196505
-0.55207115
-0.093336602
-0.52180102
0.11653926
-0.50943694
0.27065446
-0.53236426
0.31428881
-0.5860256
0.28886395
-0.65051588
0.2281035
-0.71783784
0.09681421
-0.77140835
-0.050324922
-0.79683305
-0.14141385
-0.80525551
-0.1639191
-0.81098727
-0.13615664
-0.82996337
-0.0928139
-0.86667651
-0.056904059
-0.91701926
-0.033401097
-0.97591439
-0.019542009
-1.0402136
-0.011561124
-1.1087792
-0.0066571644
-1.1818836
-0.003270019
-1.2606618
-0.00079064652
-1.3461525
0.00090425082
-1.4390633
0.0018407045
-1.5402421
0.0020975635
-1.6502338
0.0018518669
-1.7686367
0.0013209267
-1.8952626
0.00070954646
-2.0311293
0.00017302709
-2.1772735
-0.00019091892
-2.3325629
-0.00033813674
-2.4950987
-0.00027419433
-2.6645389
0.33581294
-0.64435389
0.16236351
-0.68900355
-0.11835126
-0.6823682
-0.24354743
-0.61709964
-0.13437611
-0.50173069
0.087614001
-0.48476639
0.26869941
-0.4995313
0.33688072
-0.54692932
0.31924624
-0.60815864
0.25972629
-0.67345856
0.11607903
-0.72832771
-0.059906643
-0.75420706
-0.17151251
-0.75997562
-0.20135286
-0.76061177
-0.16769932
-0.77121621
-0.11172843
-0.80247253
-0.065723723
-0.84969534
-0.036500573
-0.90603102
-0.020104703
-0.96752297
-0.011388274
-1.0326154
-0.006510275
-1.1012017
-0.0032555935
-1.1742933
-0.00073804059
-1.253451
0.0011701061
-1.3396783
0.0023741989
-1.4334281
0.0028407933
-1.5354638
0.002683534
-1.646187
0.0021120202
-1.7650989
0.0013572351
-1.8921018
0.00061695299
-2.02828
2.8799539e-05
-2.1746058
-0.00033615062
-2.3297494
-0.00045107041
-2.4919262
-0.00033565482
-2.6610607
0.38883289
-0.64078713
0.22407275
-0.69621856
-0.094978708
-0.70301682
-0.27009203
-0.64523946
-0.1883657
-0.55317538
0.05485693
-0.46138865
0.26085364
-0.46949657
0.35474569
-0.50989666
0.3468012
-0.56680132
0.28878314
-0.62917417
0.13291685
-0.68210655
-0.073287158
-0.70784704
-0.21109368
-0.70836742
-0.24618437
-0.70841897
-0.20546004
-0.71502249
-0.13380381
-0.74089183
-0.074947997
-0.78546637
-0.038798153
-0.83991101
-0.01950659
-0.89922355
-0.010159189
-0.9614493
-0.005643252
-1.0261805
-0.0028917403
-1.0941504
-0.00060282583
-1.167175
0.0013980924
-1.2469374
0.0028719293
-1.3339871
0.0036164292
-1.4286251
0.0036307242
-1.5314834
0.0030848119
-1.6428464
0.0022240216
-1.7621725
0.001285915
-1.8894463
0.00045406724
-2.0258609
-0.0001585133
-2.1722397
-0.00050165546
-2.327132
-0.00057120411
-2.4889021
-0.0003972128
-2.6577517
0.44349534
-0.63405688
0.29182135
-0.69871313
-0.061877848
-0.71988829
-0.29000382
-0.67243242
-0.2428472
-0.58074608
0.0025128591
-0.49278677
0.2482212
-0.44182567
0.36734265
-0.47508653
0.37060449
-0.52653872
0.31478433
-0.5853494
0.14520401
-0.63382429
-0.090302949
-0.6584786
-0.25955901
-0.65358546
-0.29957506
-0.64870872
-0.24841063
-0.658023
-0.15925755
-0.68162763
-0.084389114
-0.72404142
-0.039886557
-0.77728379
-0.017340824
-0.83506105
-0.0074999253
-0.8950127
-0.0037595874
-0.95648069
-0.0020012092
-1.0199751
-0.00032474986
-1.0872165
0.001563914
-1.1604971
0.0032698489
-1.2410909
0.0043557283
-1.329084
0.0046428812
-1.424607
0.0042154928
-1.5282327
0.0033102815
-1.6401407
0.0022009839
-1.7597786
0.0011214719
-1.8872382
0.00023387499
-2.0237963
-0.00037587535
-2.1701156
-0.00067993763
-2.3246582
-0.00069429827
-2.4860044
-0.00045822205
-2.654602
0.49896346
-0.6243479
0.36484091
-0.6972714
-0.020172323
-0.73091794
-0.30156505
-0.69757327
-0.29620659
-0.60899682
-0.056022745
-0.5140808
0.21592901
-0.45320869
0.37462701
-0.4425627
0.39006294
-0.48786618
0.33679738
-0.54164029
0.15203902
-0.5850669
-0.11096186
-0.60701389
-0.31160012
-0.60106724
-0.36048686
-0.58683463
-0.29389527
-0.59614919
-0.18613563
-0.62349452
-0.093758302
-0.66521481
-0.039296887
-0.71792372
-0.013172818
-0.77480256
-0.0030076675
-0.83307933
-0.0005223539
-0.89183938
-0.00036294133
-0.95141334
0.00017785097
-1.0133752
0.0016406019
-1.0803518
0.0034849589
-1.1543989
0.0049654396
-1.2359994
0.0056435399
-1.3249629
0.0054574261
-1.421354
0.0046009943
-1.5256474
0.0033718703
-1.6380101
0.0020583439
-1.7578586
0.00087947901
-1.8854089
-2.9434003e-05
-2.0220114
-0.00061325301
-2.1681622
-0.00086451821
-2.3222899
-0.00081660729
-2.4831981
-0.00051644364
-2.6516307
0.55444251
-0.61208095
0.44319906
-0.69291394
0.028291673
-0.73616843
-0.30305893
-0.71859601
-0.34609152
-0.63755264
-0.12009142
-0.53672447
0.17681619
-0.46759944
0.36617343
-0.43790776
0.40439616
-0.45066464
0.35393466
-0.49859117
0.15443514
-0.53740429
-0.13441433
-0.55590183
-0.36194212
-0.5516957
-0.4228561
-0.53326109
-0.3411373
-0.53287562
-0.21048254
-0.56442786
-0.1017581
-0.60881186
-0.036537473
-0.66164865
-0.0065418002
-0.71825122
0.0037307484
-0.77543595
0.0044309507
-0.83203302
0.0022663465
-0.88816899
0.00099107041
-0.94541732
0.0015979091
-1.0064598
0.0034147618
-1.0739075
0.0053225598
-1.149006
0.0065256348
-1.231695
0.0067367997
-1.3216325
0.0060595177
-1.4187916
0.0047950588
-1.5236744
0.0032841658
-1.636379
0.001813001
-1.756341
0.00057560143
-1.8838967
-0.00032593301
-2.020439
-0.0008622663
-2.1663442
-0.0010499027
-2.3199942
-0.00093508766
-2.4805189
-0.00057079492
-2.648832
0.60935617
-0.59764827
0.52642601
-0.68552414
0.083129846
-0.73812333
-0.29460879
-0.73372382
-0.39031771
-0.6641791
-0.18842822
-0.56094434
0.12978869
-0.48225785
0.35196529
-0.44643327
0.40842359
-0.43547167
0.36567973
-0.45645539
0.15266168
-0.49063738
-0.15931874
-0.50720028
-0.40852334
-0.50471171
-0.48093801
-0.48855114
-0.39088364
-0.47714521
-0.23156911
-0.50468141
-0.10547369
-0.55438358
-0.030991457
-0.6084083
0.0029968306
-0.66521441
0.013081357
-0.72184186
0.011464632
-0.77685642
0.0061653022
-0.83005199
0.002246932
-0.88301495
0.0014115083
-0.9385519
0.0029356487
-0.99961349
0.0052718293
-1.0680939
0.0071468401
-1.1444041
0.0079476648
-1.2282066
0.007623441
-1.3190409
0.0064481926
-1.4168927
0.0048082889
-1.5222372
0.0030638938
-1.6351893
0.0014825639
-1.7551732
0.00022483772
-1.8826302
-0.00064166712
-2.0190264
-0.0011153758
-2.1646122
-0.0012315669
-2.317782
-0.0010476325
-2.4779402
-0.00062118458
-2.6462189
-0.58052565
0.66253525
0.61455305
-0.67599561
0.14420362
-0.73691233
-0.27838613
-0.74339298
-0.42719766
-0.68660217
-0.25939729
-0.58487719
0.073467896
-0.4971242
0.33115595
-0.454392
0.4074261
-0.4388622
0.37701229
-0.44069414
0.14785476
-0.44589483
-0.18447534
-0.46056178
-0.45158616
-0.4598717
-0.53276844
-0.44816144
-0.44129778
-0.43210191
-0.25328516
-0.44858206
-0.10276858
-0.50140533
-0.021592538
-0.55820429
0.015744745
-0.61549882
0.025378
-0.67207582
0.020955491
-0.72608754
0.011652997
-0.77685853
0.0040933981
-0.82588515
0.0010489406
-0.87628263
0.0019030834
-0.93130911
0.0046228329
-0.99325572
0.0073264539
-1.0630631
0.0089480086
-1.1406707
0.0091999958
-1.2255324
0.008286462
-1.3171674
0.0066250978
-1.4155697
0.0046544563
-1.5212779
0.0027293101
-1.6343662
0.0010846534
-1.754289
-0.00015759214
-1.8815673
-0.00096764447
-2.0177385
-0.0013662015
-2.1629588
-0.0014059288
-2.3156323
-0.0011528508
-2.4755219
-0.00066740026
-2.6437749
-0.66235975
0.70616734
-0.55998827
0.71206055
0.21091748
-0.73297324
-0.25564925
-0.74864672
-0.45723471
-0.70306818
-0.3307127
-0.60689986
0.0085041377
-0.51236335
0.30232523
-0.46115091
0.40116855
-0.44146167
0.38335606
-0.43899989
0.15887572
-0.44585632
-0.20822119
-0.41759831
-0.49030814
-0.41789542
-0.57790514
-0.4103331
-0.48929063
-0.39445958
-0.27813722
-0.40066226
-0.09521318
-0.45049572
-0.0067523779
-0.51102987
0.031936679
-0.56903957
0.040909891
-0.62590255
0.033237523
-0.6794611
0.019057645
-0.72837883
0.0067031906
-0.77384399
0.00048961383
-0.81932625
0.0001489573
-0.86857239
0.003148099
-0.92423543
0.0068427665
-0.98762072
0.0095571678
-1.0589683
0.010663128
-1.1378426
0.010238725
-1.2236555
0.0087109806
-1.3159454
0.0065965385
-1.4147775
0.0043503263
-1.5207117
0.0022995501
-1.6338667
0.00063609689
-1.7536429
-0.0005622991
-1.8806538
-0.0012951584
-2.0165355
-0.0016095433
-2.1613546
-0.0015702686
-2.3136055
-0.0012496754
-2.4732396
-0.00070907
-2.6415442
-0.72433421
0.2826716
-0.64224936
0.79821381
-0.53685221
0.75679454
-0.22881293
-0.74876679
-0.48224372
-0.71330943
-0.39940954
-0.62593799
-0.063550828
-0.52725286
0.26443196
-0.46725454
0.38953813
-0.4427622
0.38315118
-0.4349648
0.16666683
-0.44085546
-0.20471658
-0.44478079
-0.52439129
-0.37986706
-0.61643846
-0.37525884
-0.53241852
-0.3618124
-0.30495363
-0.36132271
-0.08677901
-0.40378551
0.014315349
-0.46669867
0.051740559
-0.5257624
0.059767711
-0.58305794
0.048586734
-0.63668615
0.028729597
-0.68436997
0.010285583
-0.72669559
-0.00027489315
-0.76744311
-0.0025156345
-0.81100697
0.00058150595
-0.86057824
0.0054318045
-0.91773309
0.0095547438
-0.98292999
0.01185203
-1.0558623
0.012205512
-1.1359207
0.011021191
-1.2225339
0.0088889424
-1.3153162
0.0063741713
-1.4144133
0.0039151623
-1.5204945
0.0017939929
-1.6336172
0.00015281315
-1.7531753
-0.00097449879
-1.8798618
-0.0016169255
-2.0153937
-0.0018413056
-2.1598347
-0.0017226028
-2.3116809
-0.0013373269
-2.4711421
-0.00074596332
-2.6394972
-0.74212045
-0.199954
-0.70837404
0.35861136
-0.61786002
0.88901705
-0.51128576
0.7959681
-0.50397757
-0.71666993
-0.46348956
-0.64075707
-0.14063691
-0.54122688
0.21728381
-0.47282919
0.37148011
-0.44236752
0.37548418
-0.4287274
0.17029276
-0.43259094
-0.20180853
-0.43914298
-0.53351428
-0.43200541
-0.64916113
-0.34331142
-0.56941085
-0.33317876
-0.33165919
-0.32906172
-0.079953747
-0.36315379
0.040295505
-0.42523582
0.075488656
-0.48564743
0.081862378
-0.54328877
0.067215699
-0.59743385
0.041027073
-0.64454977
0.015091641
-0.68424297
-0.001250963
-0.72042582
-0.0063115705
-0.75831645
-0.0033833796
-0.80185517
0.0027867407
-0.85292396
0.0086813921
-0.91216745
0.012571857
-0.97936878
0.014058618
-1.0538031
0.013488642
-1.1348669
0.011515031
-1.2220916
0.0088214184
-1.3151796
0.0059748758
-1.4144321
0.0033699344
-1.5205428
0.0012316418
-1.6335724
-0.00035095881
-1.7528529
-0.0013856117
-1.8791431
-0.0019270952
-2.0143069
-0.0020583952
-2.1583742
-0.0018615987
-2.309899
-0.0014153562
-2.4691866
-0.00077802704
-2.6376427
-0.71274359
-0.52296229
-0.73072445
-0.16651056
-0.6867832
0.43737656
-0.59001777
0.97755949
-0.48400082
0.82895348
-0.52128521
-0.65036937
-0.22013619
-0.5536083
0.16125801
-0.47787903
0.345988
-0.44045352
0.36030167
-0.42075226
0.16823483
-0.42061217
-0.20027804
-0.42948433
-0.53895934
-0.43000082
-0.67039471
-0.40689758
-0.60057567
-0.30734253
-0.3568196
-0.30226174
-0.075466178
-0.3288582
0.068600899
-0.38724597
0.10322437
-0.44843124
0.10690105
-0.50637254
0.089247656
-0.5613634
0.056316414
-0.60859922
0.021410058
-0.64624194
-0.0024198445
-0.67809801
-0.011452063
-0.71027665
-0.0090929177
-0.74770956
-0.0014421235
-0.7927975
0.0066414999
-0.84621628
0.012596738
-0.9078806
0.015643056
-0.97701765
0.016024086
-1.0527582
0.014441966
-1.1346244
0.011702814
-1.2222388
0.0085189068
-1.315465
0.0054198042
-1.4147361
0.00273655
-1.5208113
0.00063027617
-1.6336696
-0.00086359182
-1.7526152
-0.0017875439
-1.8784861
-0.0022211025
-2.0132615
-0.0022586214
-2.1570166
-0.0019864528
-2.3082272
-0.0014836337
-2.4674169
-0.0008053093
-2.6359478
-0.65423608
-0.57126254
-0.70513938
-0.53812984
-0.7129346
-0.1292557
-0.66067244
0.51789053
-0.55942123
1.0628112
-0.45580067
0.85503291
-0.29943705
-0.5634036
0.097222589
-0.48221864
0.3123471
-0.43731609
0.33780343
-0.41146853
0.15949251
-0.40590122
-0.20019168
-0.41604852
-0.54125178
-0.42345933
-0.68587051
-0.41051303
-0.63846326
-0.36415231
-0.37980784
-0.278913
-0.073940995
-0.29938352
0.096781575
-0.35312455
0.13424054
-0.41397317
0.13461145
-0.47206968
0.114654
-0.52809886
0.074971913
-0.57618515
0.029582
-0.61243092
-0.003719683
-0.64026124
-0.018163514
-0.66668604
-0.016931041
-0.69784935
-0.0076440951
-0.73693171
0.0031077217
-0.78467
0.011675915
-0.84091245
0.016781875
-0.90502951
0.018518471
-0.97589264
0.017620828
-1.0526906
0.01501865
-1.1350932
0.011583024
-1.2228779
0.0080003413
-1.3160812
0.0047332267
-1.4152784
0.0020370245
-1.5212264
8.5697955e-06
-1.6338691
-0.0013723337
-1.7524378
-0.0021736785
-1.8778564
-0.002495534
-2.0122797
-0.0024405437
-2.1557377
-0.0020968258
-2.3067172
-0.0015422496
-2.4657963
-0.00082790797
-2.6344483
-0.56972443
-0.37627767
-0.65307317
-0.61477882
-0.69085073
-0.54977515
-0.68990204
-0.088923843
-0.63088615
0.59922053
-0.52665226
1.1435211
-0.42705866
0.87374949
0.026828155
-0.4856384
0.27034117
-0.43326932
0.30837839
-0.40136248
0.14379441
-0.38961663
-0.20184499
-0.39958934
-0.54008759
-0.4134558
-0.69601431
-0.40917815
-0.6679727
-0.37595617
-0.43208544
-0.30642298
-0.072920268
-0.27580943
0.12330725
-0.32227287
0.16723639
-0.38207553
0.16467116
-0.44019168
0.14331198
-0.49730745
0.097391265
-0.54695689
0.040016921
-0.58254533
-0.005052152
-0.60669145
-0.026691155
-0.62732698
-0.027328178
-0.65200524
-0.01625301
-0.68494489
-0.002271154
-0.72713664
0.0095408104
-0.77815813
0.017283929
-0.83734247
0.020848227
-0.90367701
0.020988796
-0.97593999
0.018758557
-1.0534806
0.015197607
-1.1361607
0.011168848
-1.2239153
0.0072913246
-1.3169512
0.0039411008
-1.4159711
0.001292483
-1.5217504
-0.00062470818
-1.6341146
-0.0018684354
-1.7522713
-0.0025388616
-1.8772592
-0.0027479921
-2.0113491
-0.0026033866
-2.15458
-0.0021927248
-2.3053344
-0.0015914633
-2.4643512
-0.00084601122
-2.6331087
-0.48805143
-0.047472921
-0.57274985
-0.44893101
-0.64479431
-0.65227241
-0.6709875
-0.55823652
-0.66260529
-0.046116219
-0.59811875
0.68054503
-0.49226364
1.2186169
-0.39818136
0.88484652
0.22039955
-0.42874932
0.2726199
-0.39095273
0.12164475
-0.37302084
-0.20552336
-0.38127622
-0.5353199
-0.40058742
-0.70015964
-0.40506765
-0.6889825
-0.38294119
-0.48068588
-0.32171889
-0.11203622
-0.26321073
0.1481188
-0.29723033
0.20141409
-0.35264518
0.19671673
-0.41049765
0.17501857
-0.46871596
0.12402566
-0.52063343
0.053299397
-0.55641158
-0.0062624906
-0.57718395
-0.037281936
-0.59197049
-0.040744858
-0.60992358
-0.027746155
-0.63650744
-0.0098734804
-0.67317494
0.005915054
-0.71924481
0.01695442
-0.77369248
0.022882824
-0.83558618
0.024473631
-0.90376015
0.022902826
-0.97704232
0.019387021
-1.0550007
0.014981553
-1.1377055
0.010485526
-1.2252418
0.006422049
-1.3179867
0.0030699483
-1.4167786
0.00052218811
-1.5223265
-0.0012508888
-1.6343688
-0.0023442645
-1.7521028
-0.0028792486
-1.8766798
-0.0029769626
-2.0104898
-0.0027468866
-2.153509
-0.0022744339
-2.3040982
-0.001631623
-2.4630381
-0.00085990685
-2.6319332
-0.42416096
0.16344379
-0.48949451
-0.12336753
-0.57092591
-0.51513741
-0.63015675
-0.68453703
-0.64645284
-0.56392548
-0.63182981
-0.0013436246
-0.56292722
0.76104612
-0.45683968
1.2872037
-0.36960283
0.88823963
0.23123773
-0.38079261
0.094111366
-0.35719665
-0.21115519
-0.36272952
-0.52690079
-0.38592589
-0.69772529
-0.398695
-0.70138841
-0.38728233
-0.52349968
-0.33433584
-0.1548518
-0.27465627
0.14378015
-0.25551623
0.23518479
-0.32743106
0.23038402
-0.3828948
0.20941021
-0.44192363
0.1551079
-0.49672159
0.070244222
-0.53397882
-0.0069192909
-0.55184061
-0.050115121
-0.56047919
-0.057682796
-0.57133035
-0.042636192
-0.59131001
-0.020095795
-0.6223736
0.00053361872
-0.66370361
0.015609648
-0.71378612
0.024496111
-0.77141762
0.027999519
-0.83559767
0.027425218
-0.90514125
0.024169786
-0.97903057
0.019492728
-1.0571026
0.014393104
-1.1396075
0.0095672468
-1.2267636
0.0054251467
-1.3191238
0.0021457162
-1.4176317
-0.00025267144
-1.5229233
-0.0018606847
-1.6345987
-0.0027938578
-1.7519253
-0.0031921546
-1.8761257
-0.003181666
-2.0096842
-0.0028711915
-2.1525525
-0.0023423862
-2.3029707
-0.0016631812
-2.461887
-0.00086985597
-2.6308882
-0.37126689
0.18492012
-0.41975743
0.10061607
-0.48984593
-0.19710961
-0.56393928
-0.57371058
-0.60991126
-0.71251918
-0.61820807
-0.56707777
-0.59807793
0.04482897
-0.52581492
0.83982589
-0.42099627
1.348569
-0.3417206
0.88402445
0.062612628
-0.3430493
-0.21819102
-0.34551127
-0.51510201
-0.3707728
-0.68814871
-0.39111218
-0.70548434
-0.38909263
-0.55882958
-0.34602978
-0.19805146
-0.28676193
0.13312256
-0.2604927
0.25541259
-0.27222346
0.26476146
-0.35859531
0.24568476
-0.41639854
0.18950017
-0.47345356
0.090710178
-0.51380398
-0.0066794533
-0.53052597
-0.065103819
-0.53322105
-0.078677883
-0.53605059
-0.061481218
-0.54903103
-0.033319225
-0.57442201
-0.006835331
-0.61112249
0.013085139
-0.65718982
0.025577699
-0.71096304
0.031495838
-0.77127991
0.032295947
-0.83719377
0.029559414
-0.9076053
0.024753653
-0.981735
0.019092833
-1.0596458
0.013469913