/*--------------------------------*- C++ -*----------------------------------*\
| =========                 |                                                 |
| \\      /  F ield         | OpenFOAM: The Open Source CFD Toolbox           |
|  \\    /   O peration     | Version:  v2012                                 |
|   \\  /    A nd           | Website:  www.openfoam.com                      |
|    \\/     M anipulation  |                                                 |
\*---------------------------------------------------------------------------*/
FoamFile
{
    version     2.0;
    format      ascii;
    class       volVectorField;
    location    "69.7435890445533886";
    object      U;
}
// * * * * * * * * * * * * * * * * * * * * * * * * * * * * * * * * * * * * * //

dimensions      [0 1 -1 0 0 0 0];


internalField   nonuniform List<vector> 
9200
(
(2.573976 -0.0011587023 -2.8754858e-21)
(2.5746915 -0.0036729818 -1.2993769e-21)
(2.5773898 -0.00099362999 -2.8521946e-21)
(2.5757444 -0.005811372 7.5627213e-23)
(2.5781308 -0.0034257418 -2.9709505e-21)
(2.578849 -0.00092748426 1.7558733e-21)
(2.5772122 -0.0080257845 5.147451e-22)
(2.5792084 -0.0053406184 1.5175765e-22)
(2.5796128 -0.0034016987 2.4737691e-22)
(2.5807771 -0.00082609612 -1.3550064e-22)
(2.5788934 -0.0098870951 -9.0371789e-23)
(2.5806766 -0.0074622587 2.9145374e-21)
(2.580735 -0.0052651755 -2.7583183e-21)
(2.5815801 -0.0032552025 1.3648929e-23)
(2.5823578 -0.00071517952 2.5389193e-21)
(2.580791 -0.011737545 1.3843913e-21)
(2.5823098 -0.0092537349 -2.058957e-21)
(2.5822753 -0.0074499996 2.5110682e-21)
(2.5827887 -0.0050105423 2.3918997e-21)
(2.5832196 -0.0030441256 -5.4102111e-21)
(2.5837873 -0.00058810981 -2.7593591e-22)
(2.5827701 -0.013273418 0)
(2.584102 -0.011101009 -7.2001769e-23)
(2.5839755 -0.0093441068 -1.6953922e-21)
(2.5844616 -0.0071978234 -2.842251e-23)
(2.5845472 -0.0046699711 -5.9915614e-22)
(2.5847276 -0.0027288375 -4.4600103e-21)
(2.5849592 -0.00045055192 -5.3156484e-22)
(2.5848135 -0.014645889 -1.0125886e-22)
(2.5858609 -0.012683733 -3.1543059e-22)
(2.5858134 -0.011380395 1.6571694e-21)
(2.5863098 -0.009146468 1.157981e-21)
(2.5864093 -0.0068181464 4.5996155e-21)
(2.5861989 -0.0041656151 -4.9873241e-21)
(2.5859862 -0.0023167204 8.1075402e-21)
(2.5858754 -0.0003074542 -3.0264859e-22)
(2.5868689 -0.015713352 5.1741663e-23)
(2.5875652 -0.014141758 -1.5953954e-21)
(2.587571 -0.01323918 6.6928757e-22)
(2.5883013 -0.011345758 -5.6660651e-22)
(2.5884995 -0.0087827011 1.975734e-21)
(2.5882904 -0.0061863386 6.1935145e-22)
(2.5876087 -0.0034979019 9.1296404e-22)
(2.5869747 -0.0018202878 4.9255496e-21)
(2.5865249 -0.00015749076 -4.0910731e-21)
(2.5889422 -0.016479774 -1.0539135e-21)
(2.5891059 -0.0153032 9.3265971e-22)
(2.5891852 -0.015066675 2.6009487e-21)
(2.590191 -0.013494325 -1.47433e-21)
(2.5907868 -0.01110794 2.2949543e-21)
(2.5906947 -0.0080669694 9.2435455e-22)
(2.5899421 -0.0052911706 -9.2406497e-21)
(2.5887406 -0.0026837967 7.9345195e-21)
(2.5876645 -0.0012694883 -4.3026834e-21)
(2.5868903 4.0302937e-05 -1.1974424e-20)
(2.5910585 -0.016932735 7.8777885e-22)
(2.5904684 -0.016157125 1.8298294e-21)
(2.5905067 -0.016675867 -5.1601812e-21)
(2.5918843 -0.015764265 2.7792889e-21)
(2.5930185 -0.013518799 2.2795475e-21)
(2.593395 -0.010397726 1.7245305e-21)
(2.5926944 -0.0069639098 -4.0883822e-22)
(2.5912986 -0.0041529741 -2.5338347e-21)
(2.5895471 -0.0017670398 -4.125513e-21)
(2.5880689 -0.00070642939 5.5241571e-23)
(2.5869738 0.00020936191 8.6304659e-22)
(2.5932008 -0.017042122 1.2061476e-21)
(2.5916555 -0.016561838 -2.1490124e-21)
(2.5914442 -0.018072511 1.8071707e-21)
(2.5931854 -0.018020026 3.446612e-21)
(2.5950883 -0.016231422 -5.3758125e-21)
(2.5961494 -0.01293033 3.7195648e-21)
(2.595874 -0.0091364511 -6.0631544e-21)
(2.5943851 -0.0054889611 -1.6998845e-21)
(2.5922839 -0.0028391252 9.6315411e-21)
(2.5900138 -0.00081025673 -2.6667427e-21)
(2.5882102 -0.00016489882 -4.7462843e-23)
(2.5868879 0.00030989155 1.1932504e-20)
(2.5955328 -0.016821244 -1.0603662e-21)
(2.5926024 -0.016352803 -5.9670594e-22)
(2.591934 -0.019065255 3.7865824e-21)
(2.5939466 -0.020273567 -4.5056436e-21)
(2.5967749 -0.019168242 -3.3114802e-21)
(2.5988652 -0.015929626 3.4803631e-21)
(2.5992676 -0.01157787 -1.9708525e-21)
(2.598041 -0.0073237236 -4.3601081e-21)
(2.5956444 -0.0037305958 -1.4968613e-21)
(2.5928657 -0.0014454225 -6.9382325e-22)
(2.5901495 0.00011273409 6.4687196e-21)
(2.5880977 0.00032659457 -4.2252739e-21)
(2.5866149 0.00041635564 -4.3229523e-21)
(2.5981517 -0.016216366 2.6945552e-23)
(2.5934998 -0.015462282 1.6792261e-21)
(2.5917862 -0.019613608 6.0345752e-21)
(2.5939991 -0.02237045 1.5949206e-22)
(2.5979039 -0.022380123 2.245202e-21)
(2.6013302 -0.019374821 -8.8109243e-21)
(2.6028201 -0.014591727 4.4633835e-21)
(2.6020921 -0.009427213 1.3369566e-21)
(2.5997017 -0.0050677251 -6.3601801e-23)
(2.5964009 -0.0018253036 4.0915391e-21)
(2.5930497 -7.8375415e-05 -4.9971126e-21)
(2.5899988 0.00094059685 -3.9623299e-21)
(2.5877724 0.000731973 1.4449554e-22)
(2.5862227 0.00052788099 -1.9923574e-21)
(2.6011142 -0.015234217 -6.0131968e-22)
(2.5943449 -0.013750016 -8.6927729e-22)
(2.5910941 -0.01949903 -6.4609665e-21)
(2.5932023 -0.024280897 1.959801e-21)
(2.5982146 -0.025846341 -6.765929e-22)
(2.6033839 -0.023383276 -1.0889948e-21)
(2.6063589 -0.01820169 3.8959703e-21)
(2.6065374 -0.01212141 3.4111435e-21)
(2.6043242 -0.0066020594 2.987683e-21)
(2.6007283 -0.0025540391 1.3190157e-21)
(2.596635 6.8494847e-05 7.42298e-21)
(2.592869 0.001163882 3.9179365e-21)
(2.5896224 0.0016334579 2.4652677e-21)
(2.5873074 0.0010379778 1.1270729e-20)
(2.5857465 0.00060183417 6.9290316e-21)
(2.6045805 -0.013893196 -2.9769174e-21)
(2.5952561 -0.011058315 -2.4668018e-21)
(2.5897326 -0.018531445 -1.8195726e-20)
(2.5913297 -0.025867735 9.1262874e-22)
(2.5976419 -0.029539774 3.6919253e-21)
(2.6047789 -0.028031914 -3.5665555e-22)
(2.6097688 -0.022586395 -7.6284024e-21)
(2.6112648 -0.01545293 5.4982147e-21)
(2.609569 -0.0086476688 -2.8602614e-21)
(2.6057447 -0.0033476186 -4.0638231e-21)
(2.6010705 -8.3431486e-06 9.5346923e-23)
(2.5963892 0.0017989698 1.3833866e-22)
(2.5923832 0.0022031974 -2.3959588e-21)
(2.5890776 0.0021622995 1.90481e-21)
(2.5867591 0.0012537544 -3.5337131e-22)
(2.5852259 0.00063838261 2.0970397e-21)
(2.6087072 -0.012216586 3.8911392e-21)
(2.5963507 -0.0072535992 1.0291608e-20)
(2.5876831 -0.016523134 1.1104524e-20)
(2.5882574 -0.026958391 -5.0310739e-21)
(2.5957752 -0.033437082 -4.0221912e-21)
(2.6053991 -0.033376598 -4.6473568e-21)
(2.6128653 -0.027886698 9.5355835e-21)
(2.6162283 -0.019637039 -3.5979179e-21)
(2.6153937 -0.011245265 -3.5076552e-21)
(2.6115609 -0.0044844609 -7.0284835e-21)
(2.6062438 1.8389593e-05 -5.9405373e-21)
(2.6007601 0.0023472492 -8.1712469e-23)
(2.5957509 0.0032482796 -8.8493662e-21)
(2.5916796 0.0029920404 -2.0254494e-21)
(2.5884284 0.0025151299 2.7545465e-22)
(2.5861725 0.0013784047 -9.6550455e-21)
(2.5846993 0.00064604129 8.7267591e-21)
(2.6136833 -0.010207831 7.0914292e-22)
(2.5977618 -0.0022030274 -4.966184e-22)
(2.5848974 -0.013260462 1.4008894e-20)
(2.5837953 -0.027403207 -3.7227199e-22)
(2.5924536 -0.037483334 -4.4715591e-21)
(2.6049115 -0.039480633 1.0151401e-20)
(2.6155287 -0.034243934 -8.7470934e-21)
(2.6213333 -0.024850824 -3.1096907e-24)
(2.6218353 -0.014610596 -7.5953539e-22)
(2.6181952 -0.0059673323 4.2425531e-21)
(2.6123125 -6.9569296e-05 -2.6428966e-21)
(2.6058442 0.003168845 4.7646563e-21)
(2.5999003 0.0043289686 -3.8003187e-23)
(2.5948271 0.0043411312 -4.0608043e-21)
(2.5908477 0.0035127071 2.2459941e-21)
(2.5877383 0.0026959654 7.8362261e-21)
(2.585587 0.0014089023 2.5973317e-22)
(2.584196 0.00063135249 -3.8337146e-21)
(2.6195394 -0.007882421 -2.0670184e-21)
(2.59974 0.0043050413 -7.9932189e-21)
(2.5813434 -0.008513402 8.4848744e-21)
(2.5777537 -0.027020814 -1.4164993e-21)
(2.5874239 -0.04161877 4.2338032e-21)
(2.6031194 -0.046415082 -4.9033671e-21)
(2.6175338 -0.041803633 -1.9994206e-21)
(2.6265053 -0.031297296 9.0838325e-21)
(2.6289003 -0.018927834 -1.3202468e-22)
(2.6257656 -0.0079696863 5.3015262e-21)
(2.6193221 -0.00021230066 3.9490426e-21)
(2.611814 0.0041235774 4.6230928e-21)
(2.604683 0.0058275795 -4.1584962e-22)
(2.5986451 0.0058162821 -2.7118048e-21)
(2.5937342 0.0050465727 4.9315733e-21)
(2.5899675 0.0037704926 1.5089477e-23)
(2.5870573 0.0027194952 -3.0821399e-21)
(2.5850351 0.0013558053 -3.3682822e-21)
(2.5837387 0.00059851607 -1.7053742e-20)
(2.6249712 -0.0054656044 -8.4431789e-22)
(2.6024527 0.012377689 2.2048099e-21)
(2.5771159 -0.0020371019 2.5345373e-20)
(2.569948 -0.025623509 3.4113179e-20)
(2.5804233 -0.045779116 -4.4990625e-21)
(2.5997819 -0.05423062 -4.7651528e-21)
(2.6187109 -0.050716913 4.9141757e-21)
(2.631632 -0.039189404 -4.4451385e-21)
(2.6366128 -0.024424996 5.2959114e-21)
(2.6343781 -0.010638061 -1.7691575e-22)
(2.6274493 -0.00050029232 1.6521193e-21)
(2.6187076 0.0053391486 -2.591362e-21)
(2.6102366 0.0076779547 4.287637e-21)
(2.6029723 0.0078094353 -2.1913117e-21)
(2.5971644 0.0067589755 -5.1273565e-21)
(2.5925829 0.005372324 -6.0961689e-21)
(2.5891062 0.0037880678 2.4361028e-21)
(2.5864234 0.0026072917 -4.5358209e-21)
(2.5845409 0.0012352478 -3.0009585e-21)
(2.583346 0.00055055811 3.4176046e-21)
(2.6302687 -0.002631409 5.2689713e-23)
(2.6046703 0.02216351 -3.5652437e-21)
(2.5719269 0.0063391292 -1.9003799e-20)
(2.5603101 -0.023009823 1.3620657e-20)
(2.5711882 -0.049906939 -4.2521444e-21)
(2.5946646 -0.062972772 -1.195186e-20)
(2.6188694 -0.061119443 -9.839982e-21)
(2.6366015 -0.048736828 -3.8898199e-23)
(2.6449805 -0.031357503 6.3425792e-21)
(2.6441771 -0.014167571 3.5351775e-21)
(2.6368686 -0.00099125122 -1.0950024e-20)
(2.626713 0.0068336712 -7.8781595e-21)
(2.6165704 0.010065824 -2.6553301e-21)
(2.6078859 0.010307762 -8.4558326e-23)
(2.6009544 0.0090355855 2.5645785e-21)
(2.5956158 0.00716729 -4.0651188e-21)
(2.5914659 0.0053541464 -2.3598108e-21)
(2.5883153 0.0036004721 -6.319538e-21)
(2.5858642 0.0023860144 2.9998246e-21)
(2.5841196 0.0010632767 -1.0207439e-21)
(2.5830225 0.00049273065 6.2199633e-21)
(2.6387957 0.0016902307 3.8331788e-21)
(2.6001458 0.03465856 8.702672e-21)
(2.5622519 0.016969022 -3.3681487e-20)
(2.5483535 -0.019011462 -6.5787836e-20)
(2.5595382 -0.053942965 3.4807927e-20)
(2.5875421 -0.072693006 -7.6554129e-21)
(2.6178307 -0.073121621 -5.4641643e-21)
(2.6412785 -0.060142987 -1.2978167e-20)
(2.6539982 -0.039989918 1.0071402e-20)
(2.6553144 -0.018795714 8.3021251e-21)
(2.6478211 -0.0017755921 -9.9490716e-21)
(2.6360148 0.0086673297 3.2448393e-22)
(2.623823 0.013110186 -2.7199122e-21)
(2.6133444 0.013531407 2.371267e-21)
(2.6051196 0.011890244 -2.9385428e-21)
(2.5988577 0.0095213071 5.7894958e-21)
(2.5941284 0.007095315 6.2576257e-21)
(2.5904529 0.0050452757 1.1398384e-20)
(2.5876303 0.0032496787 4.3563524e-21)
(2.5853957 0.002086805 1.411196e-22)
(2.5837776 0.0008648889 3.9631535e-21)
(2.5827569 0.00043802341 -4.0350446e-21)
(2.6531241 0.0061218539 -1.4236613e-21)
(2.5988493 0.051162546 -4.1457771e-22)
(2.5437718 0.030599235 -2.1721559e-20)
(2.5301208 -0.013507399 -7.0892438e-21)
(2.5450868 -0.057844784 4.6599445e-21)
(2.5782442 -0.083438913 1.7704029e-20)
(2.6154281 -0.086819287 -6.5588524e-21)
(2.6455208 -0.073575437 -1.4704536e-21)
(2.6636273 -0.050605176 -2.9225398e-21)
(2.6679479 -0.024793638 9.5016611e-21)
(2.6605838 -0.0029812286 3.4581682e-21)
(2.6468794 0.010904576 -6.7442877e-21)
(2.632125 0.016981967 7.3465354e-21)
(2.6193986 0.01766206 -5.1743739e-21)
(2.6095559 0.015546468 7.2895795e-21)
(2.6022713 0.01245103 6.8721748e-21)
(2.5968659 0.0093496966 -5.1362253e-21)
(2.5927968 0.0066233125 6.0905623e-21)
(2.5895906 0.0045079127 -2.9300519e-22)
(2.5870729 0.0027809826 8.9658154e-21)
(2.5850252 0.0017430224 -8.9922065e-21)
(2.5835144 0.00067256112 1.1256275e-20)
(2.5825614 0.00039689838 2.951409e-22)
(2.6771048 0.005927242 -1.3212239e-20)
(2.6290653 0.067278853 -7.234895e-21)
(2.5317939 0.046850805 2.0784466e-21)
(2.501685 -0.0065869272 2.7967693e-20)
(2.5251411 -0.061747012 -6.0228965e-21)
(2.5666084 -0.095237254 9.735947e-21)
(2.6115281 -0.10227217 -4.1744329e-21)
(2.6491696 -0.089170475 2.9039919e-21)
(2.6737962 -0.063472715 -1.6716775e-20)
(2.6822216 -0.032482402 6.8922301e-21)
(2.675476 -0.0047695522 2.5511347e-21)
(2.6596242 0.013596959 -2.3821103e-21)
(2.6416745 0.021896672 2.4870372e-21)
(2.626075 0.022938071 -6.924186e-22)
(2.6142196 0.020199247 4.4471392e-22)
(2.6056976 0.016155308 -6.5962365e-22)
(2.599603 0.01212063 1.4381273e-21)
(2.5951072 0.0086415436 -4.7119248e-21)
(2.5916809 0.0058430406 6.0193289e-21)
(2.5889055 0.0038075139 -1.0877139e-20)
(2.5866528 0.0022411982 -2.8526544e-21)
(2.5847575 0.0013852655 -2.9586766e-21)
(2.5833266 0.00049547355 -3.038923e-22)
(2.5824154 0.00036590609 -4.9467153e-22)
(2.7093163 -0.0016673658 3.6683104e-20)
(2.6936436 0.077958081 6.3394752e-21)
(2.5646983 0.063979794 5.9983112e-20)
(2.4824046 0.0014068818 4.8016091e-20)
(2.4964297 -0.066521813 -3.8663734e-21)
(2.551626 -0.10826173 -1.230324e-20)
(2.6060604 -0.11949922 1.6837667e-20)
(2.6520638 -0.10700224 -9.0229746e-21)
(2.6843766 -0.078847968 5.3552303e-21)
(2.6982589 -0.042219798 -1.0964652e-21)
(2.6928491 -0.007352493 -3.5553946e-21)
(2.674634 0.01679766 -1.4446703e-20)
(2.6527111 0.028090832 -4.0334301e-21)
(2.6334327 0.029666202 7.5352177e-21)
(2.6190188 0.026090573 -2.3399442e-21)
(2.6090162 0.020799682 2.6019484e-21)
(2.6021448 0.015565053 -1.0852896e-20)
(2.5972868 0.011083671 -5.1916715e-21)
(2.5936564 0.0075306826 1.4804688e-20)
(2.5908109 0.0048475699 6.5941666e-21)
(2.5884074 0.0030091918 4.9397416e-22)
(2.5863709 0.0016757193 -3.724813e-21)
(2.5845896 0.0010380042 5.5168874e-21)
(2.5832077 0.00032273345 -1.3239076e-20)
(2.5823092 0.00033780859 -9.2879091e-21)
(2.7456085 -0.015555595 -6.2842691e-21)
(2.7801369 0.081567262 5.1033623e-20)
(2.6448434 0.079933296 -2.8587401e-20)
(2.5018669 0.011403358 -6.136644e-21)
(2.4721607 -0.072090327 1.5007919e-20)
(2.5313377 -0.12333868 1.826548e-20)
(2.5988979 -0.13851635 3.4125018e-21)
(2.6540491 -0.12709871 -6.143998e-21)
(2.695187 -0.096936783 6.4970319e-21)
(2.7161314 -0.05440935 3.736507e-22)
(2.7130814 -0.010997428 1.4525945e-21)
(2.6923617 0.020545754 -5.0289051e-21)
(2.6655349 0.035853427 -2.8307019e-21)
(2.6415363 0.038198106 4.6588363e-21)
(2.6238546 0.033529269 7.7044915e-21)
(2.6120406 0.026572571 -3.0979303e-21)
(2.6043269 0.019794524 -3.5410164e-21)
(2.5991273 0.014059902 -5.6782314e-22)
(2.5954117 0.0095370224 0)
(2.592545 0.0061476338 5.2377138e-21)
(2.5901951 0.003725281 -2.4089842e-21)
(2.588094 0.0021749269 4.941828e-21)
(2.5862194 0.0011253955 -1.8089546e-20)
(2.584507 0.00072221504 2.3198333e-21)
(2.5831467 0.00018642281 6.6566292e-22)
(2.5822319 0.0003186024 5.1726235e-21)
(2.781686 -0.034584937 -5.4112398e-20)
(2.8748056 0.076843167 1.4685113e-20)
(2.751162 0.093698185 -2.544328e-20)
(2.570105 0.026584847 -5.7416869e-20)
(2.475814 -0.074620464 -6.7913831e-21)
(2.505433 -0.14095547 1.5780711e-20)
(2.5894851 -0.15962469 1.1965284e-21)
(2.6550379 -0.1494031 1.0382103e-20)
(2.7059773 -0.1179044 3.5005889e-22)
(2.7358521 -0.069475081 -1.5531193e-20)
(2.7365571 -0.016042909 1.1510107e-20)
(2.7133236 0.024857018 -2.7426124e-21)
(2.6805114 0.045507782 1.5646058e-20)
(2.6504696 0.048974523 1.0453017e-20)
(2.6285895 0.042863613 -3.7410474e-22)
(2.6145503 0.033705605 3.5945508e-21)
(2.6059143 0.024912581 5.1971894e-21)
(2.6004544 0.017623659 3.0893308e-21)
(2.5967438 0.01193097 -9.2507516e-23)
(2.5940029 0.0076631801 -1.5614654e-21)
(2.5917746 0.0046109156 -9.498389e-21)
(2.589826 0.0025570237 -6.5152277e-21)
(2.587954 0.0013608403 4.1231905e-21)
(2.5861829 0.00062681332 1.0719314e-21)
(2.5844931 0.00045974152 -9.7507688e-21)
(2.5831287 9.4194659e-05 3.5903015e-21)
(2.5821718 0.00031072423 -1.5019675e-21)
(2.8146361 -0.058058651 1.9518291e-20)
(2.9680414 0.064737459 7.2071413e-21)
(2.8668709 0.10485351 6.1608501e-20)
(2.6670948 0.047354108 -3.9135544e-20)
(2.5035382 -0.069710187 -1.8717965e-20)
(2.4878631 -0.15749418 -2.785825e-20)
(2.5776104 -0.18330852 1.6779123e-20)
(2.6549328 -0.1738432 3.4094569e-21)
(2.7164351 -0.14182572 1.8524416e-21)
(2.7573434 -0.087882324 -2.0360231e-20)
(2.7636553 -0.022889048 1.4311588e-20)
(2.7380963 0.029710761 -2.3943968e-21)
(2.6980669 0.057414405 -1.0797746e-20)
(2.6603342 0.062505237 1.3437298e-21)
(2.6330496 0.054528744 -5.7022143e-21)
(2.6162557 0.042436913 -7.6646912e-21)
(2.6066314 0.031033285 2.5986322e-21)
(2.601033 0.021791398 3.215248e-21)
(2.5974957 0.014719369 2.7309457e-21)
(2.5949984 0.009433796 4.2321972e-22)
(2.5930447 0.0056178901 -5.5639593e-22)
(2.5913279 0.0030235465 -6.1561628e-21)
(2.5896854 0.0014145017 -3.4278332e-21)
(2.5879675 0.00061533108 4.1536938e-21)
(2.5862427 0.00021103461 1.4191882e-20)
(2.5845309 0.00027194221 -9.4350745e-21)
(2.5831371 5.4103088e-05 6.2908623e-21)
(2.58212 0.00031460559 8.0634695e-22)
(2.8432434 -0.084745288 7.7592089e-21)
(3.0529575 0.046469645 6.4574263e-20)
(2.9812859 0.11364802 4.3075436e-20)
(2.7762556 0.072408178 3.6465969e-21)
(2.5632728 -0.055551238 -9.791446e-20)
(2.493023 -0.16864032 2.8868538e-21)
(2.5608749 -0.20895069 -5.1722631e-21)
(2.653379 -0.20024263 4.9534143e-21)
(2.7262103 -0.16865557 0)
(2.7803914 -0.11006977 2.4258711e-20)
(2.7947131 -0.032027712 -3.2948707e-20)
(2.7672887 0.035055647 1.2655691e-20)
(2.7186985 0.071956943 -1.8301984e-21)
(2.6712466 0.079393318 -4.2452038e-21)
(2.6370111 0.069025474 -5.0928592e-21)
(2.6167929 0.053051438 6.9531337e-22)
(2.606129 0.038232956 -7.964792e-22)
(2.6005999 0.026560912 -1.4662685e-21)
(2.5974692 0.017851094 1.2199821e-21)
(2.5954071 0.011439704 1.7033139e-21)
(2.5938402 0.0067709599 5.8673061e-21)
(2.5925001 0.0035274041 -4.9653858e-21)
(2.5911759 0.0014723155 -4.1169763e-21)
(2.5897497 0.00035859901 -1.081777e-22)
(2.58811 -2.0911905e-05 -8.8443118e-21)
(2.5863798 -9.8690595e-05 -8.7805957e-24)
(2.5846011 0.00017345278 -6.6782656e-21)
(2.5831548 4.4400226e-05 7.9686786e-21)
(2.582063 0.00033154711 1.1166861e-20)
(2.8632008 -0.11316072 -9.1884422e-21)
(3.1252257 0.022433375 -1.7857451e-20)
(3.0885464 0.11977682 -5.2099867e-20)
(2.887445 0.099248815 4.3570883e-20)
(2.63863 -0.032677942 -3.0441519e-20)
(2.5150679 -0.17119478 1.1073622e-19)
(2.5473997 -0.23381037 -6.6533286e-20)
(2.6497061 -0.22885182 1.5130104e-20)
(2.7350306 -0.19823746 1.2901384e-20)
(2.8047372 -0.13649174 3.475065e-20)
(2.8300716 -0.043975547 4.3948167e-23)
(2.8015402 0.040812324 1.434264e-20)
(2.7429231 0.089547437 -4.571341e-21)
(2.6833421 0.10032155 4.1772529e-21)
(2.6401949 0.086951009 8.3737402e-21)
(2.6157055 0.065852368 8.4346557e-21)
(2.6039793 0.046583456 6.7910635e-21)
(2.5988359 0.031854082 2.801189e-22)
(2.5964629 0.021237881 -6.0963913e-21)
(2.5950882 0.013593021 -2.0313111e-22)
(2.5940721 0.0080452971 -1.6456596e-21)
(2.5931959 0.0040918233 1.2241091e-21)
(2.5923237 0.0014910186 4.0621807e-21)
(2.5912845 2.8679611e-05 4.1870363e-21)
(2.5899932 -0.00056072043 4.6548995e-24)
(2.5883598 -0.00051582353 8.0313946e-22)
(2.586573 -0.0002849155 -2.8520208e-21)
(2.5846846 0.00016674143 1.4808529e-20)
(2.5831655 0.00011860962 6.9178548e-21)
(2.5819861 0.00036075059 -1.3466055e-23)
(2.87486 -0.14581342 7.0200325e-21)
(3.1888797 -0.0034209618 -2.784243e-21)
(3.1856159 0.12309737 2.3776728e-20)
(2.9956055 0.12744784 -1.9150791e-21)
(2.7226161 -0.0030507886 9.2338138e-20)
(2.5483597 -0.16476158 -1.1584491e-20)
(2.5416283 -0.25437845 -2.4719346e-20)
(2.6443892 -0.25976736 6.8856849e-21)
(2.7431339 -0.23081933 1.5479307e-20)
(2.8303818 -0.16771248 -9.2948558e-22)
(2.8702878 -0.059584235 5.9044257e-20)
(2.8418743 0.046842773 -1.5251875e-20)
(2.7713932 0.11063203 8.9561258e-21)
(2.696723 0.1260648 -9.0707824e-21)
(2.6422523 0.10898736 -2.1048688e-21)
(2.6124334 0.081180939 -1.3695147e-21)
(2.5996631 0.056113254 1.3311314e-21)
(2.5953662 0.037547763 1.7074032e-21)
(2.5942494 0.024691747 2.3217019e-22)
(2.5939266 0.015763242 -6.7663422e-22)
(2.5936598 0.009349122 -1.5626968e-21)
(2.5933551 0.0047048723 -2.8365864e-21)
(2.5929924 0.0015018105 -1.2769462e-21)
(2.5924727 -0.00041330183 -7.3509839e-22)
(2.5916238 -0.0012495739 -2.8444814e-21)
(2.5903846 -0.0013029456 -2.337664e-21)
(2.5886942 -0.00084892938 6.7839309e-21)
(2.5867995 -0.00033781931 5.8373326e-21)
(2.5847691 0.00025600421 6.6934196e-21)
(2.5831556 0.00026730735 -7.5002106e-21)
(2.5818821 0.00040374809 3.7729464e-24)
(2.8788202 -0.18384386 1.9766732e-21)
(3.2405569 -0.036037911 6.5350696e-20)
(3.2708528 0.12329648 1.1411071e-20)
(3.09875 0.1554165 4.45761e-20)
(2.8097408 0.031236535 -3.3975676e-20)
(2.5925232 -0.15031799 -5.7976388e-20)
(2.5491307 -0.26907766 4.4364271e-20)
(2.6384978 -0.29134026 -7.0208773e-21)
(2.7507733 -0.26601225 -9.7527354e-21)
(2.8568892 -0.20403764 -2.0718667e-20)
(2.9153008 -0.079758393 -3.1124547e-20)
(2.8895095 0.052457643 -9.5332163e-21)
(2.8056867 0.13548673 -8.8168095e-21)
(2.7116914 0.15747159 -8.5579807e-21)
(2.6427278 0.13591971 6.0208441e-21)
(2.6062967 0.099397468 2.5115675e-21)
(2.5925631 0.066818464 -8.6987707e-21)
(2.5897558 0.043430912 -5.4562582e-21)
(2.5905823 0.027957703 -1.6914438e-21)
(2.5918167 0.017712274 3.2087847e-21)
(2.5925771 0.010554961 4.9608894e-21)
(2.5929459 0.0052991685 3.5809876e-21)
(2.5931372 0.0015166929 3.3056226e-21)
(2.5931698 -0.0009247771 -1.5371864e-21)
(2.5929079 -0.0021238453 -2.9778515e-21)
(2.5921619 -0.0023190353 -1.1933154e-20)
(2.590893 -0.0018421857 3.1519263e-22)
(2.5890867 -0.0010080129 -5.0017459e-21)
(2.5870399 -0.00025421224 -1.3468126e-20)
(2.5848471 0.0004330956 -1.5613591e-20)
(2.5831144 0.00044585199 -2.4364639e-20)
(2.5817435 0.00047452738 1.2230676e-20)
(2.8732469 -0.22481845 0)
(3.2806808 -0.077435537 -8.118134e-20)
(3.3472857 0.11865609 -8.7148601e-20)
(3.1958649 0.18186073 9.3519864e-20)
(2.8975385 0.069179771 4.030264e-21)
(2.6453263 -0.12931334 1.9025797e-20)
(2.5638746 -0.27708406 4.6422216e-21)
(2.6330051 -0.32147043 2.6336189e-21)
(2.7545208 -0.30191788 -1.9617635e-20)
(2.8794551 -0.24258463 -5.5447731e-20)
(2.9598545 -0.10312719 -8.1344748e-20)
(2.941408 0.057783458 5.1008631e-22)
(2.8465471 0.16412905 -4.0707932e-20)
(2.7297405 0.19533244 2.277032e-20)
(2.6412383 0.16859531 9.0903144e-21)
(2.5964755 0.12088634 -1.1163348e-20)
(2.5819615 0.078635314 -5.5626707e-21)
(2.5815114 0.049217628 -3.5828223e-21)
(2.585195 0.030671767 -2.6403425e-21)
(2.5886724 0.019130197 -2.2187153e-21)
(2.59084 0.011434671 -2.2405961e-22)
(2.5920141 0.0057882414 1.1213789e-21)
(2.5927552 0.0015116556 4.6000457e-22)
(2.5933335 -0.0014651567 1.1013737e-21)
(2.5936825 -0.0031341589 2.5388308e-22)
(2.5935927 -0.0035953165 3.115814e-21)
(2.592864 -0.0031471081 -2.6020941e-21)
(2.5914908 -0.0021628415 5.4184164e-21)
(2.5895129 -0.00098912163 -2.6569698e-21)
(2.5872763 -3.8568489e-05 -4.7496294e-21)
(2.5849042 0.00069349448 1.0580416e-20)
(2.5830363 0.0006696446 4.5321881e-21)
(2.581562 0.00057010252 -5.3377249e-21)
(2.8556284 -0.26816284 3.4261058e-21)
(3.3068675 -0.12411158 4.2650062e-20)
(3.4179186 0.10690982 7.1638301e-20)
(3.292008 0.20779358 -4.6371687e-20)
(2.9851984 0.10682332 4.0361878e-20)
(2.7019623 -0.10187354 -5.4380506e-20)
(2.5847685 -0.27865946 -7.8289139e-21)
(2.6288964 -0.34768893 -3.9158953e-20)
(2.7535693 -0.33696293 5.9708503e-21)
(2.8904232 -0.28046736 2.7734865e-20)
(2.9858749 -0.1268026 1.0747759e-21)
(2.9857952 0.066300316 9.6920131e-20)
(2.8841766 0.19808963 3.2042689e-20)
(2.7501747 0.24068265 -7.4657003e-21)
(2.6382241 0.20799954 -5.9874876e-21)
(2.5820436 0.14600246 -2.8669328e-20)
(2.567043 0.091435251 -2.8841533e-21)
(2.5700918 0.054523128 -4.2130269e-21)
(2.5778054 0.032381216 1.8869892e-21)
(2.5844264 0.019593337 1.8066924e-21)
(2.5885204 0.011697121 4.0915881e-22)
(2.5906746 0.0060039341 -2.4164868e-21)
(2.5919334 0.0014664415 -7.1997659e-21)
(2.5929663 -0.0020092695 -3.9008043e-21)
(2.5938931 -0.0042099713 -1.4062609e-21)
(2.5944959 -0.0050842598 -1.7701286e-21)
(2.5944945 -0.0047923478 1.0044728e-22)
(2.5936981 -0.003712971 9.2338222e-21)
(2.5921501 -0.0022585535 -2.0347253e-22)
(2.5899505 -0.0007959688 -2.1625823e-22)
(2.5874929 0.00029953773 1.6245513e-20)
(2.5849268 0.0010300135 1.0799958e-20)
(2.5829178 0.00093540317 1.1653164e-20)
(2.5813344 0.00066325448 -1.6550951e-20)
(2.8260776 -0.3127269 8.6599555e-21)
(3.3129722 -0.17668128 4.2858013e-20)
(3.4750293 0.089137401 -2.0520428e-19)
(3.3920656 0.2319758 -5.8067995e-20)
(3.0790123 0.15083698 -3.9158272e-20)
(2.7597908 -0.073522734 -4.1769447e-21)
(2.611064 -0.27280952 1.719193e-21)
(2.6258037 -0.36975094 -2.1700477e-20)
(2.748237 -0.36905681 -1.1750575e-20)
(2.8924978 -0.31526674 1.7674905e-19)
(2.99311 -0.14942725 3.3285951e-20)
(3.0090699 0.080694111 1.5869926e-19)
(2.9012416 0.24172676 4.3234029e-20)
(2.7568742 0.2952346 -1.0891737e-20)
(2.6321537 0.2557287 -1.6775781e-20)
(2.5622965 0.17520307 1.4765904e-20)
(2.5468908 0.10497787 9.704788e-21)
(2.554927 0.05887137 6.4039411e-21)
(2.5681288 0.032533209 4.0209946e-21)
(2.5790319 0.018591749 2.807475e-21)
(2.5857441 0.01094577 -3.5794251e-22)
(2.5891265 0.0057362448 1.768461e-22)
(2.5908468 0.0013060557 -1.0739479e-21)
(2.5921588 -0.0025008051 -2.9577606e-22)
(2.5935227 -0.0052836312 0)
(2.5947907 -0.0066939129 6.6345418e-24)
(2.5955835 -0.0067399706 1.2876098e-22)
(2.5955817 -0.005689353 1.7291737e-21)
(2.5946324 -0.0040062174 9.012975e-21)
(2.5928439 -0.002131343 -2.8937136e-21)
(2.5903787 -0.00043719739 1.0627777e-20)
(2.5876767 0.00074867586 -1.2137679e-20)
(2.5849075 0.0014325742 -4.4227337e-21)
(2.5827541 0.0012348345 4.941032e-21)
(2.5810619 0.00075550455 4.7912155e-21)
(2.784466 -0.35852539 4.9353393e-21)
(3.2991196 -0.23456291 -3.4552484e-20)
(3.5169826 0.061611183 2.2818088e-19)
(3.4851739 0.25140261 -2.6712575e-19)
(3.1841064 0.20109268 1.8242159e-19)
(2.8276369 -0.033333014 6.1984293e-20)
(2.6384002 -0.26448962 -8.3444671e-21)
(2.6249297 -0.38558948 3.347281e-21)
(2.7374148 -0.39812132 1.0144467e-20)
(2.8833358 -0.34790881 9.394024e-21)
(2.9876538 -0.1669117 -1.2644775e-19)
(3.0112162 0.10021322 -5.0371232e-20)
(2.897553 0.29925266 -2.5077443e-20)
(2.7265552 0.36054891 -7.5951218e-21)
(2.6088749 0.31248737 1.0156193e-20)
(2.5360254 0.20937976 3.1438969e-20)
(2.5205415 0.11896 -4.7607859e-21)
(2.5354435 0.061669831 4.230538e-21)
(2.5558952 0.030501528 1.3270794e-21)
(2.5724702 0.015526744 -2.469207e-21)
(2.5826956 0.0087105022 7.360249e-22)
(2.5876554 0.0046960337 9.9025085e-22)
(2.589772 0.00094615056 1.7767366e-21)
(2.5911006 -0.0029068919 2.0834314e-21)
(2.5926359 -0.0062272587 4.8833598e-21)
(2.5944217 -0.0083254192 2.6310134e-22)
(2.5960166 -0.008888969 2.4659558e-21)
(2.5969204 -0.0080713097 -3.4352183e-22)
(2.5968216 -0.006269979 -2.2621616e-21)
(2.5956356 -0.0040254931 3.0122899e-21)
(2.5935474 -0.0017899077 3.3116512e-21)
(2.5907813 7.3944507e-05 3.0906634e-21)
(2.5878169 0.0012958503 5.6583679e-22)
(2.5848404 0.0018903558 6.3744128e-22)
(2.5825418 0.0015610377 -3.7561409e-22)
(2.5807441 0.00085302559 -1.7406411e-20)
(2.7323747 -0.40495422 -2.4245094e-20)
(3.2692196 -0.29609506 1.489882e-21)
(3.5364513 0.026975798 -1.160739e-19)
(3.5629977 0.26760254 -5.4336803e-21)
(3.2924322 0.25185258 1.0531012e-19)
(2.9076335 0.020059883 -2.138451e-20)
(2.667844 -0.24403056 2.0586686e-21)
(2.6282156 -0.39754854 4.4738405e-21)
(2.7223788 -0.42197527 -6.4074743e-21)
(2.8636442 -0.3744156 -1.304864e-19)
(2.9725563 -0.17890094 1.6892359e-20)
(2.987404 0.12410922 -2.2213859e-20)
(2.8704156 0.3669651 -3.0432956e-20)
(2.6701716 0.43791215 9.9369043e-20)
(2.5493656 0.37466386 -5.845654e-21)
(2.4966389 0.24815046 -7.8315789e-21)
(2.4871681 0.13311438 -7.7772623e-21)
(2.5110805 0.062243172 -8.8676641e-21)
(2.5408736 0.025587361 -3.3992708e-21)
(2.5647498 0.009745678 -2.6368206e-21)
(2.5796042 0.0044392945 1.8530555e-21)
(2.5866424 0.0025328659 -6.2119016e-22)
(2.5890964 0.0002623598 1.2012095e-21)
(2.5900846 -0.0031677765 2.0866696e-21)
(2.5913883 -0.0069062004 -1.1550626e-21)
(2.5934035 -0.0097969741 -3.4210227e-21)
(2.59569 -0.011126023 -1.7347477e-21)
(2.5975641 -0.010762021 -3.2468641e-21)
(2.5984784 -0.0090535231 3.6971647e-22)
(2.59818 -0.0065264879 2.7085073e-21)
(2.5966773 -0.0037771729 -3.4967292e-21)
(2.5942375 -0.0012481238 3.6711758e-21)
(2.5911447 0.00072153972 -1.1446013e-20)
(2.5879059 0.0019269465 1.2165526e-20)
(2.5847217 0.0023930092 2.038159e-20)
(2.5822802 0.0019061512 -1.6512906e-20)
(2.5803784 0.00095194112 1.3628676e-20)
(2.6715114 -0.45093379 -3.8840571e-20)
(3.2241728 -0.36130932 1.1410305e-19)
(3.5370602 -0.012723596 -4.1208621e-19)
(3.6155182 0.27499577 4.9046964e-19)
(3.4010952 0.30223687 -1.8498084e-19)
(2.9961268 0.078862559 -1.5798197e-20)
(2.7015546 -0.2103894 -2.4737116e-20)
(2.6310195 -0.40044058 -3.6231333e-21)
(2.7028263 -0.44098095 -1.2618522e-20)
(2.8352543 -0.39928826 -3.0472896e-20)
(2.9414819 -0.18312059 3.9950155e-20)
(2.9407571 0.1518274 -9.5700407e-20)
(2.8239441 0.43458908 -1.612633e-21)
(2.6219469 0.52313929 -1.166912e-20)
(2.4669294 0.4387276 -1.0404992e-20)
(2.4322427 0.28633863 -2.267241e-20)
(2.4454667 0.14668045 4.1484126e-21)
(2.4813519 0.05980477 -3.4571518e-22)
(2.5229086 0.017079712 1.107332e-21)
(2.5559036 0.00055979808 1.0741862e-21)
(2.5767317 -0.0024809599 -1.6921205e-21)
(2.5865208 -0.0011830334 -4.7156707e-22)
(2.5893111 -0.00092093786 -2.3936927e-21)
(2.5895218 -0.0032336614 -3.0920913e-21)
(2.5900301 -0.0071274669 -9.6478366e-22)
(2.5918212 -0.010896543 -1.1909803e-21)
(2.5945514 -0.013239787 -2.9360307e-21)
(2.597358 -0.013652045 -5.1041992e-23)
(2.5994203 -0.01227646 -2.0112776e-21)
(2.6002246 -0.0096680786 1.7179736e-21)
(2.5996215 -0.0064592425 2.4009096e-21)
(2.5977286 -0.0032740125 -7.8674523e-21)
(2.5948939 -0.00052410203 -3.4702963e-21)
(2.5914557 0.0014878162 -4.0380478e-21)
(2.5879379 0.0026273218 5.2068381e-21)
(2.5845495 0.0029305942 -1.5038261e-21)
(2.5819698 0.0022626145 7.9738746e-22)
(2.5799709 0.00105098 4.0537581e-20)
(2.6027522 -0.49630956 8.7776267e-20)
(3.1666424 -0.43080534 -1.6007145e-20)
(3.527129 -0.058308958 1.3404407e-19)
(3.6398956 0.2722904 -1.2479402e-19)
(3.5017294 0.34912355 -4.1566567e-19)
(3.0933985 0.1448066 4.8094498e-20)