/*--------------------------------*- C++ -*----------------------------------*\
| =========                 |                                                 |
| \\      /  F ield         | OpenFOAM: The Open Source CFD Toolbox           |
|  \\    /   O peration     | Version:  v2012                                 |
|   \\  /    A nd           | Website:  www.openfoam.com                      |
|    \\/     M anipulation  |                                                 |
\*---------------------------------------------------------------------------*/
FoamFile
{
    version     2.0;
    format      ascii;
    class       surfaceVectorField;
    location    "69.7435890445533886";
    object      Uf;
}
// * * * * * * * * * * * * * * * * * * * * * * * * * * * * * * * * * * * * * //

dimensions      [0 1 -1 0 0 0 0];


internalField   nonuniform List<vector> 
18180
(
(2.5743457 -0.0024616708 -2.0610098e-21)
(2.5760077 -0.0010746402 -2.8636247e-21)
(2.5752356 -0.0047759076 -5.8883397e-22)
(2.5767353 -0.0035471064 -2.1506301e-21)
(2.5777727 -0.0022627031 -2.9135634e-21)
(2.5779835 -0.00095993791 -5.0537778e-22)
(2.5765029 -0.0069546959 3.0254286e-22)
(2.5778008 -0.0055716874 1.1439725e-22)
(2.5786877 -0.004402902 -1.3572636e-21)
(2.5787339 -0.0034134675 -1.3319031e-21)
(2.5792437 -0.0022263418 9.7633675e-22)
(2.5798566 -0.00087584963 7.9254682e-22)
(2.578081 -0.0089831737 2.0205119e-22)
(2.5792617 -0.0077388682 1.7368738e-21)
(2.5799671 -0.0064358425 1.5794392e-21)
(2.5798313 -0.005302147 -1.3285248e-21)
(2.5801927 -0.0043437916 -1.3058464e-21)
(2.5806391 -0.0033270957 1.2834071e-22)
(2.581192 -0.002107196 -5.8425434e-23)
(2.5815648 -0.00076960484 1.2264926e-21)
(2.579874 -0.010845129 6.7170906e-22)
(2.580907 -0.009564621 -1.0965395e-21)
(2.5815206 -0.0083752624 3.4447376e-22)
(2.5813336 -0.0074559473 2.7051601e-21)
(2.5815309 -0.0063935513 -3.5321595e-23)
(2.581804 -0.0051355012 -1.3585259e-22)
(2.5822046 -0.0041343437 1.2426379e-21)
(2.5823966 -0.0031476946 -2.7483325e-21)
(2.5828032 -0.0019475306 -1.5689151e-21)
(2.5830859 -0.00065046231 1.1053003e-21)
(2.5818137 -0.012526065 6.690109e-22)
(2.5827352 -0.011413455 6.4268098e-22)
(2.5832359 -0.010205878 -1.0321972e-21)
(2.5829988 -0.0092996776 -1.8737921e-21)
(2.5831539 -0.0084096424 3.3736073e-22)
(2.5834087 -0.0073215768 1.2172001e-21)
(2.5836532 -0.0061407052 1.1411743e-21)
(2.5836644 -0.0048370773 8.6854026e-22)
(2.5839057 -0.0038519571 -2.924037e-21)
(2.5839874 -0.0028835475 -4.9262639e-21)
(2.5842732 -0.0017237858 -2.4381217e-21)
(2.5843831 -0.0005180503 -4.0612986e-22)
(2.583826 -0.013984438 -5.2325211e-23)
(2.584576 -0.012973183 -1.6415133e-22)
(2.5850109 -0.011906364 -1.9779345e-22)
(2.5848136 -0.011243206 8.0868309e-22)
(2.5849252 -0.010390541 3.7052613e-23)
(2.5851796 -0.0092434581 -2.4213521e-22)
(2.5854167 -0.0081800798 5.846597e-22)
(2.5854313 -0.007004434 2.3286854e-21)
(2.5855095 -0.0057808218 2.0873698e-21)
(2.5853877 -0.0044130978 -2.8340881e-21)
(2.5854879 -0.0034373483 -4.7325069e-21)
(2.5853666 -0.0025189416 1.9408041e-21)
(2.5854899 -0.001443151 3.9328304e-21)
(2.5854293 -0.00037767141 -4.1497566e-22)
(2.5858756 -0.015193144 -2.2196313e-23)
(2.5864137 -0.014389216 -8.5899093e-22)
(2.5867416 -0.01343446 -9.7685086e-22)
(2.5865736 -0.012966525 1.8610265e-22)
(2.5867217 -0.012322962 1.1466801e-21)
(2.5870889 -0.011362761 5.2455573e-22)
(2.5873389 -0.010272944 2.667913e-22)
(2.5873996 -0.0089611721 1.5744776e-21)
(2.5874895 -0.0078048738 3.2436997e-21)
(2.5873655 -0.0064963572 2.5724174e-21)
(2.5872797 -0.0052118816 -2.0900019e-21)
(2.5869154 -0.0038255409 -1.9822475e-21)
(2.5868247 -0.0028940534 4.3896424e-21)
(2.5864917 -0.0020638833 6.4869205e-21)
(2.5864435 -0.0011134277 2.3991074e-21)
(2.5862071 -0.00023107659 -2.2321188e-21)
(2.5879403 -0.016109475 -5.1960321e-22)
(2.5881655 -0.015504527 5.0038907e-22)
(2.5883614 -0.014739368 -2.8902674e-22)
(2.5882382 -0.014612729 5.418941e-22)
(2.5884052 -0.014173431 1.6674745e-21)
(2.5889039 -0.013369131 -4.2251564e-22)
(2.5892778 -0.012431157 -1.0356761e-21)
(2.5895374 -0.0112246 8.917044e-22)
(2.5896815 -0.0099714051 2.1406936e-21)
(2.5896139 -0.0084181634 1.4400543e-21)
(2.5895329 -0.0071281225 7.7696512e-22)
(2.5891299 -0.0057304178 -4.4024598e-21)
(2.5888145 -0.0044282166 -4.3340516e-21)
(2.588188 -0.0030832709 4.4891219e-21)
(2.5878872 -0.0022374544 6.4804782e-21)
(2.5873316 -0.0015397626 2.2551351e-22)
(2.5871138 -0.0007488002 -4.2004262e-21)
(2.586711 -5.6753014e-05 -8.1061205e-21)
(2.5900358 -0.016713225 -1.0222205e-22)
(2.5898449 -0.016315501 4.1593566e-22)
(2.58981 -0.015749104 1.3962714e-21)
(2.5896754 -0.016002226 -2.1705841e-21)
(2.5898681 -0.015885483 -1.409615e-21)
(2.590544 -0.015421965 2.6917834e-21)
(2.591066 -0.014649515 7.2373888e-22)
(2.5915955 -0.013506748 4.3764309e-22)
(2.59194 -0.012323972 2.2869927e-21)
(2.592109 -0.010746204 2.004074e-21)
(2.5920901 -0.0092575611 1.3378534e-21)
(2.5917112 -0.007505162 2.4533901e-22)
(2.5913644 -0.0061260639 -4.6767035e-21)
(2.5906365 -0.004711475 -5.8247779e-21)
(2.5900625 -0.0034482084 2.5248498e-21)
(2.5891559 -0.0022168838 1.7923969e-21)
(2.5886373 -0.0015046545 -4.2111279e-21)
(2.5878758 -0.00098271999 -2.083036e-21)
(2.5874993 -0.00035828639 -5.7578863e-21)
(2.5869434 0.00012640363 -5.4362423e-21)
(2.5921655 -0.016995109 1.0039706e-21)
(2.5914798 -0.016743886 -7.0793717e-22)
(2.5910818 -0.01636193 -2.2623495e-22)
(2.5908247 -0.017132577 1.8182887e-21)
(2.5909911 -0.017385707 -1.5597995e-21)
(2.591836 -0.017360462 -7.7761515e-22)
(2.5925566 -0.016906738 3.1241294e-21)
(2.5934728 -0.016002151 -1.3758343e-21)
(2.5940881 -0.014896895 -1.6763986e-21)
(2.5946034 -0.01321906 3.0135823e-21)
(2.5948184 -0.011674653 2.7554819e-21)
(2.5946552 -0.0097553294 -2.2418988e-21)
(2.5943375 -0.0080739007 -3.3307722e-21)
(2.59356 -0.0062126995 -1.0666293e-21)
(2.5928936 -0.0048160658 -2.1028799e-21)
(2.5918064 -0.0034838156 3.6621877e-21)
(2.5909614 -0.0023275593 2.9836527e-21)
(2.58979 -0.0012797426 -3.3825434e-21)
(2.589074 -0.0007430795 -1.3513882e-21)
(2.5881429 -0.00043062548 2.889471e-24)
(2.5876127 1.3389996e-05 3.9252453e-22)
(2.586935 0.00026056081 6.5006737e-21)
(2.5944059 -0.016933614 3.4925474e-23)
(2.5930216 -0.016691102 2.892735e-22)
(2.5921448 -0.016458724 -1.3468575e-21)
(2.5916444 -0.017836786 8.741802e-22)
(2.5916973 -0.018578333 2.8300325e-21)
(2.5926609 -0.019193542 -1.4060874e-21)
(2.5935787 -0.019158195 -6.6273285e-22)
(2.5949599 -0.018604793 4.399908e-24)
(2.5959598 -0.017716192 -4.3090603e-21)
(2.5969976 -0.016077684 -8.6502902e-22)
(2.5975528 -0.01445406 3.5959556e-21)
(2.5977347 -0.012241481 8.2145476e-22)
(2.5976276 -0.010366998 -3.9484129e-21)
(2.5969833 -0.0082131979 -5.1954393e-21)
(2.5962743 -0.0064272715 -3.0745906e-21)
(2.5950342 -0.0045933999 -1.5964807e-21)
(2.5940205 -0.0032761955 3.8807779e-21)
(2.5925886 -0.0021292986 4.3726658e-21)
(2.5914876 -0.0011471602 -1.6472041e-21)
(2.5900904 -0.0003401743 1.9863853e-21)
(2.5892124 -1.1470368e-05 3.3198886e-21)
(2.5881598 8.5416214e-05 -2.1752317e-21)
(2.5875131 0.00030835158 3.5826716e-21)
(2.5867495 0.0003641131 3.6536778e-21)
(2.5968861 -0.01651595 -4.9849618e-22)
(2.5946429 -0.016129177 3.3492991e-22)
(2.5930661 -0.015910581 5.7938478e-22)
(2.5920169 -0.018013504 2.7808366e-21)
(2.5918576 -0.019341544 4.9482351e-21)
(2.5928997 -0.020748654 1.939126e-21)
(2.5939737 -0.021336406 -2.0949255e-21)
(2.5958925 -0.021346448 -1.0670794e-21)
(2.5973583 -0.020793947 -4.4004112e-22)
(2.5990747 -0.019273429 -6.1125915e-21)
(2.600139 -0.017673425 -2.871238e-21)
(2.6008763 -0.015248183 3.9808424e-21)
(2.6011034 -0.013110041 1.3541028e-21)
(2.6007132 -0.010482489 -2.8608901e-22)
(2.6001345 -0.0083823732 -1.4160735e-21)
(2.5988968 -0.0061746997 -2.1723477e-21)
(2.5977411 -0.0044156286 -7.5620253e-22)
(2.5960396 -0.0027602027 1.3494297e-21)
(2.5946925 -0.0016229303 1.7790901e-21)
(2.5929673 -0.00074917361 -2.8855525e-21)
(2.5916482 4.8161399e-06 5.4354398e-22)
(2.5900795 0.00053436397 1.1561237e-21)
(2.5890801 0.00065504173 -4.0893927e-21)
(2.5879369 0.00053305011 -1.9997621e-21)
(2.5872131 0.00056909887 -2.0143124e-21)
(2.5864195 0.00047315353 -3.1360489e-21)
(2.5996826 -0.015721815 -2.9771225e-22)
(2.5964055 -0.014960314 -4.2950954e-22)
(2.5939365 -0.014605454 3.6228143e-22)
(2.5920858 -0.017518187 -2.4625997e-21)
(2.5914286 -0.019553035 -4.2251792e-22)
(2.5923856 -0.021990763 3.9590741e-21)
(2.5935874 -0.023327182 1.0898062e-21)
(2.5960569 -0.024140794 -2.663755e-22)
(2.5980645 -0.024134268 7.3535278e-22)
(2.6006678 -0.022891034 5.479389e-22)
(2.6023915 -0.021409546 -4.8205682e-21)
(2.6038884 -0.018777291 -2.3385546e-21)
(2.6046488 -0.016421905 4.1701678e-21)
(2.6047223 -0.013333519 3.9274387e-21)
(2.6043893 -0.010797519 2.4088187e-21)
(2.6032415 -0.0079882911 2.1769716e-21)
(2.6020905 -0.0058364811 1.5131974e-21)
(2.6002379 -0.0037874587 6.4060177e-22)
(2.5986371 -0.0022005792 2.6587905e-21)
(2.5965319 -0.00086077069 5.7889305e-21)
(2.5949025 8.0526082e-06 1.4211897e-21)
(2.5929663 0.00055431037 -4.5700826e-22)
(2.591482 0.0010431093 1.0995247e-22)
(2.589813 0.0012934671 -6.8874525e-22)
(2.5887285 0.0012103915 1.3438012e-21)
(2.5875394 0.00088781659 5.8109909e-21)
(2.5867832 0.00078083877 4.8616087e-21)
(2.5859832 0.00056554355 2.5511528e-21)
(2.6029055 -0.014564515 -1.828919e-21)
(2.5984179 -0.013107507 -1.5514308e-21)
(2.5948158 -0.012395894 -1.6948033e-21)
(2.5917762 -0.016185192 -9.6942834e-21)
(2.5903905 -0.01900204 -1.2524932e-20)
(2.5910408 -0.022742767 -2.7012482e-21)
(2.5922347 -0.025074025 1.4186716e-21)
(2.5953463 -0.026959406 2.8420845e-21)
(2.5979186 -0.027710189 1.5808581e-21)
(2.6015231 -0.026959515 -5.1223879e-22)
(2.6041048 -0.025740032 -7.1055413e-22)
(2.6066343 -0.022977383 -4.4198297e-21)
(2.608121 -0.020432683 -2.0593465e-21)
(2.6088692 -0.016801647 4.7120643e-21)
(2.6089803 -0.013811629 4.4896609e-21)
(2.6080968 -0.010352123 2.1785408e-22)
(2.6070345 -0.007641728 -3.4330275e-23)
(2.6050642 -0.0049444957 -6.0387806e-22)
(2.6033206 -0.0029453867 -1.4626614e-21)
(2.6009173 -0.0012574765 6.9577133e-22)
(2.5989271 2.3666286e-05 3.6362887e-21)
(2.5965215 0.00094983895 3.7127921e-21)
(2.5946881 0.0015020423 1.9647553e-21)
(2.5926297 0.0016932036 7.0222699e-22)
(2.5910491 0.0019091424 -4.6875165e-23)
(2.5893501 0.0019027902 2.1798293e-21)
(2.5882222 0.0016310815 6.4306903e-21)
(2.5870315 0.0011478678 5.3507506e-21)
(2.5862698 0.00092844281 3.1656988e-21)
(2.5854834 0.0006204471 4.4682324e-21)
(2.606713 -0.013056927 5.7218589e-22)
(2.600832 -0.010511756 3.7778414e-21)
(2.5958217 -0.0091413337 4.1261606e-21)
(2.5911255 -0.013841525 4.4455863e-21)
(2.5886735 -0.017501484 -3.0547213e-21)
(2.5887413 -0.022823506 -1.149017e-20)
(2.5897421 -0.026399906 -2.1588009e-21)
(2.5934401 -0.029723098 -1.6079958e-21)
(2.5966773 -0.031503947 -2.9438158e-22)
(2.6015465 -0.031494022 -5.5578844e-22)
(2.6050994 -0.030746598 -2.5739021e-21)
(2.6088992 -0.027957951 4.6819929e-21)
(2.6113689 -0.025282531 1.2412214e-21)
(2.6130749 -0.02108417 -5.5742887e-21)
(2.6138298 -0.017584355 7.9769071e-22)
(2.6133862 -0.0133098 9.0981747e-22)
(2.612579 -0.0099633675 -3.1948112e-21)
(2.6106039 -0.006527218 -4.9819861e-21)
(2.6087503 -0.003923057 -5.595864e-21)
(2.6060182 -0.0016332406 -5.0196916e-21)
(2.6037439 1.6229733e-05 -3.0238159e-21)
(2.6009275 0.001191389 5.1666647e-24)
(2.598648 0.0020721696 2.4622717e-23)
(2.5960748 0.0025371071 -4.4392094e-21)
(2.5941235 0.0027536014 -5.7308952e-21)
(2.5920318 0.0026049481 -2.2072582e-21)
(2.5904222 0.0025691144 -1.2624242e-22)
(2.5887511 0.0023419888 1.0749974e-21)
(2.5876218 0.0019164514 -2.841122e-23)
(2.5864628 0.0013172349 -5.0905134e-21)
(2.5857151 0.0010109718 -3.9761021e-21)
(2.5849589 0.00064228275 5.4733516e-21)
(2.6112786 -0.01121217 2.2468231e-21)
(2.6038042 -0.0071168305 1.6514241e-21)
(2.5970799 -0.0046871769 4.7167339e-21)
(2.5901582 -0.010312824 1.2179993e-20)
(2.5862436 -0.014842014 1.260537e-20)
(2.5853771 -0.022064648 5.2670961e-21)
(2.5859516 -0.027153086 -2.6236176e-21)
(2.5901916 -0.032319221 -4.755914e-21)
(2.5940587 -0.035470224 -4.2544044e-21)
(2.6003703 -0.036515359 3.1973691e-21)
(2.6051471 -0.03647328 2.9999973e-21)
(2.6105683 -0.033818402 -6.7355926e-21)
(2.6142416 -0.031128717 8.7867154e-23)
(2.6172015 -0.026340403 4.6751648e-21)
(2.6188664 -0.022294826 -1.7402654e-21)
(2.6191058 -0.017076836 -2.1521698e-21)
(2.6187225 -0.01295776 -2.0875276e-21)
(2.6168443 -0.008557006 4.4154192e-22)
(2.6149893 -0.005229623 -1.203987e-21)
(2.6119675 -0.0022358376 -4.7931985e-21)
(2.60938 -2.2490345e-05 -4.2364156e-21)
(2.6060601 0.001622968 -4.8809072e-22)
(2.6033875 0.0027779407 2.422753e-21)
(2.6003367 0.0033565522 -5.9450557e-23)
(2.5978952 0.0037909989 -4.2958971e-21)
(2.5952897 0.0038048643 -6.4110132e-21)
(2.5933062 0.0036973624 -3.0772669e-21)
(2.5912616 0.0032572072 1.4997242e-22)
(2.5896786 0.0030068193 1.29378e-21)
(2.58808 0.0026072239 4.1260209e-21)
(2.5869816 0.0020690095 -6.1601187e-22)
(2.5858759 0.0013939355 -4.6056997e-21)
(2.585158 0.001030671 4.3512364e-21)
(2.5844437 0.00063856073 2.3301849e-21)
(2.6167095 -0.0090496833 -7.2545865e-22)
(2.6075482 -0.0028166228 -3.7307406e-21)
(2.598784 0.001126659 -4.3705341e-21)
(2.5889038 -0.0054167326 4.0706588e-21)
(2.5830609 -0.010802674 1.1154328e-20)
(2.5808233 -0.020268987 6.139669e-21)
(2.5806733 -0.027161252 -9.1188178e-22)
(2.585376 -0.034643914 1.9739723e-21)
(2.5898545 -0.039551011 2.6988842e-23)
(2.5978139 -0.042032777 -4.6879953e-21)
(2.6039854 -0.04299928 2.3717477e-21)
(2.6113638 -0.04066393 3.9632665e-21)
(2.6165649 -0.038099809 -5.2601805e-21)
(2.6211546 -0.032743105 3.3531119e-22)
(2.624006 -0.02814591 4.6926549e-21)
(2.6252122 -0.021833925 -6.8774292e-23)
(2.6254863 -0.016810048 -4.3526154e-22)
(2.6238632 -0.011228063 2.3296285e-21)
(2.6221073 -0.0069799582 4.7897943e-21)
(2.6187977 -0.0030360979 4.0910782e-21)
(2.6159348 -0.00013014683 7.6361439e-22)
(2.6120835 0.0020660924 1.0579159e-21)
(2.6089292 0.0036590038 4.6915003e-21)
(2.605272 0.0045229692 2.126101e-21)
(2.6023719 0.0051049649 -2.3326424e-22)
(2.5992737 0.0050864585 -1.399085e-21)
(2.5968002 0.0050835791 -3.3636757e-21)
(2.594278 0.0047004037 5.1901782e-22)
(2.5923394 0.0043106 3.6338358e-21)
(2.5904037 0.0036439899 1.1098221e-21)
(2.5888903 0.0032263082 3.7944448e-21)
(2.5873936 0.002707947 2.2758225e-21)
(2.5863468 0.0020952684 -1.4672642e-21)
(2.5853068 0.0013818615 -1.5878657e-21)
(2.5846296 0.00099599726 -3.5931918e-21)
(2.583964 0.00061463022 -1.0566094e-20)
(2.6223463 -0.0066277276 -1.4351777e-21)
(2.6122005 0.0024357898 1.0868377e-22)
(2.6011418 0.0084302951 -2.7233124e-21)
(2.5875286 0.0010753049 8.9764778e-21)
(2.5791588 -0.0051646931 1.7197642e-20)
(2.5749714 -0.017228062 2.1539117e-20)
(2.57372 -0.026244335 1.6943676e-20)
(2.5787613 -0.036575453 -2.98671e-21)
(2.5838063 -0.043685226 -2.7896248e-22)
(2.5936303 -0.048042771 -3.5004465e-22)
(2.6013947 -0.05037825 -4.8319438e-21)
(2.6111057 -0.048606383 9.5202423e-23)
(2.6181421 -0.046354921 1.5732352e-21)
(2.6247693 -0.040472156 -3.2451886e-21)
(2.6291546 -0.035336285 2.0926101e-21)
(2.6316817 -0.027796817 7.152012e-21)
(2.6328858 -0.021735528 2.6729256e-21)
(2.6317165 -0.014705379 -1.548906e-22)
(2.6302162 -0.0093203047 2.4704599e-21)
(2.6266558 -0.0041652033 3.4426893e-21)
(2.623522 -0.00034644038 2.7620645e-21)
(2.6190411 0.0026152157 6.177405e-22)
(2.6153764 0.0047545261 8.9486497e-22)
(2.6110365 0.0059338836 4.4522346e-21)
(2.607553 0.0067738871 2.0147927e-21)
(2.6038286 0.0068369506 -1.3191008e-21)
(2.6008813 0.0068425785 -2.4428265e-21)
(2.5979012 0.0062963885 -3.9426411e-21)
(2.5955069 0.0059088991 -2.6664933e-22)
(2.5931535 0.0052124695 -6.847942e-22)
(2.5913191 0.0046010949 -3.1430733e-21)
(2.5895318 0.0037794407 1.2480646e-21)
(2.5881161 0.0032461716 -2.3043053e-22)
(2.5867357 0.0026623528 -3.8224238e-21)
(2.5857525 0.0020115744 -3.9716387e-21)
(2.5847837 0.0012944103 -3.1812198e-21)
(2.5841532 0.00091745606 -9.7916387e-21)
(2.5835381 0.0005740936 -6.6287275e-21)
(2.6277088 -0.0040077721 -3.8078078e-22)
(2.6164976 0.0086055649 -2.2216774e-21)
(2.6035986 0.017390155 -7.769132e-22)
(2.5859342 0.0093027906 -8.5810891e-21)
(2.5744344 0.0022876077 2.427616e-21)
(2.5678349 -0.012719124 1.9373153e-20)
(2.5649676 -0.024216178 2.3523527e-20)
(2.5701189 -0.037992495 1.4583963e-20)
(2.575651 -0.047814579 -4.3714658e-21)
(2.5875731 -0.054537009 -8.2953618e-21)
(2.5971375 -0.058659693 -8.4789394e-21)
(2.6095815 -0.057739738 -7.3461246e-21)
(2.6187928 -0.056031767 -2.7101576e-21)
(2.6279098 -0.049708517 2.3912244e-21)
(2.6342 -0.04408327 -2.1681732e-21)
(2.6384633 -0.035200096 1.0498731e-21)
(2.6409369 -0.027972007 5.836789e-21)
(2.6404878 -0.019200205 4.3990426e-21)
(2.6394419 -0.012428428 1.7413617e-21)
(2.6356817 -0.0057244386 -5.6615443e-21)
(2.6323169 -0.00073197536 -4.8602587e-21)
(2.6271138 0.0032351729 -3.2021331e-21)
(2.6228445 0.0061142759 -5.3234287e-21)
(2.6176525 0.0077465608 -2.6216257e-21)
(2.6135097 0.0089093764 6.9968723e-22)
(2.6090621 0.0090173454 2.0622302e-21)
(2.6055115 0.0090845699 -1.10259e-21)
(2.6019582 0.00843391 2.3010697e-22)
(2.599123 0.0079267062 -1.1523318e-21)
(2.5963833 0.0069669208 -4.5863569e-21)
(2.5941502 0.0062756237 -5.0465641e-21)
(2.5920179 0.0053630622 -4.1932901e-21)
(2.5903257 0.0045985895 -4.2329276e-23)
(2.5887051 0.003692529 -2.0229071e-21)
(2.5874011 0.0030948543 -5.4576107e-21)
(2.5861389 0.0024946036 -6.9820893e-22)
(2.5852247 0.0018393831 1.0011178e-22)
(2.584326 0.0011476715 -1.9925394e-21)
(2.5837458 0.00080541429 1.1239823e-21)
(2.5831778 0.0005211103 4.844685e-21)
(2.6346751 -0.00031381959 2.0062966e-21)
(2.6174454 0.01635994 4.4582435e-21)
(2.6023322 0.028486779 2.7743156e-21)
(2.5817063 0.019518806 -1.8904555e-20)
(2.5669272 0.011806584 -2.6588615e-20)
(2.559033 -0.0065727189 -4.2834272e-20)
(2.5541315 -0.020881841 -2.7414305e-20)
(2.5593178 -0.038766002 2.4394314e-20)
(2.565168 -0.051883956 1.5932461e-20)
(2.579399 -0.061513536 -5.9857092e-21)
(2.590984 -0.067891807 -9.7316347e-21)
(2.606588 -0.06814257 -8.6472127e-21)
(2.6183327 -0.067252842 -7.5787407e-21)
(2.6304187 -0.060622381 -1.1438491e-20)
(2.6390184 -0.054590829 -6.7253856e-21)
(2.6455009 -0.044281402 5.1111113e-21)
(2.6496405 -0.035781984 8.26949e-21)
(2.6502554 -0.024958816 7.3402294e-21)
(2.6499325 -0.016518928 5.9985637e-21)
(2.6460669 -0.0078555755 -3.3332734e-21)
(2.6425285 -0.0013664064 -1.0432765e-20)
(2.6364811 0.0039283105 -5.2072571e-21)
(2.6315199 0.0077905354 -3.6392781e-21)
(2.6252845 0.010030504 -5.2508138e-21)
(2.6203183 0.011635631 -2.6887045e-21)
(2.6149577 0.011830907 -9.5104806e-23)
(2.6107067 0.011962281 1.1845569e-21)
(2.6064951 0.011113723 -1.5381556e-21)
(2.6031069 0.01048988 -2.7932169e-22)
(2.5998965 0.0092829534 4.2064582e-21)
(2.5972911 0.0083716615 1.0275562e-21)
(2.5948634 0.0071306273 1.1921974e-21)
(2.5928419 0.0062288821 2.0935237e-21)
(2.5909524 0.0051968426 4.6469553e-21)
(2.58942 0.0043475504 2.8367683e-21)
(2.5879672 0.0034218244 -8.8265127e-22)
(2.5867769 0.0028068791 3.7008536e-21)
(2.5856253 0.0022336411 1.5440257e-21)
(2.584779 0.0016023367 -4.2031773e-22)
(2.5839448 0.00096224913 1.5172825e-21)
(2.5834127 0.00067490351 5.0537021e-21)
(2.5828869 0.00046487176 9.9773956e-22)
(2.6462001 0.0042085906 1.1166478e-21)
(2.6218757 0.026885904 1.6874721e-21)
(2.5994759 0.042754201 3.9912406e-21)
(2.5696036 0.03259235 -6.7935017e-21)
(2.5527021 0.024006281 -2.7501084e-20)
(2.5448359 0.0014463276 -2.0136102e-20)
(2.5389316 -0.016076181 -3.5454824e-20)
(2.5459158 -0.038791799 -2.9915187e-20)
(2.5520703 -0.055829934 1.9228691e-20)
(2.5689329 -0.068967513 2.6095457e-20)
(2.5827373 -0.078122628 5.449305e-21)
(2.6019318 -0.079888953 -7.0968542e-21)
(2.6165892 -0.080121215 -6.0298543e-21)
(2.632142 -0.073353276 -3.4298636e-21)
(2.6434708 -0.067042952 -7.031449e-21)
(2.6527111 -0.055284667 -7.8559539e-21)
(2.6589741 -0.04543953 3.3566391e-21)
(2.6610929 -0.032249113 9.781184e-21)
(2.6618429 -0.021846678 8.9220015e-21)
(2.6580241 -0.010740274 5.8347328e-21)
(2.6544164 -0.0023576477 -3.0206638e-21)
(2.6473952 0.0046831143 -8.3121035e-21)
(2.6416293 0.0098414573 -3.3284405e-21)
(2.6340894 0.012902315 3.9056464e-21)
(2.6281132 0.015112249 2.4821586e-21)
(2.6216105 0.01542857 -3.9731227e-21)
(2.6164731 0.015651685 -1.5281529e-21)
(2.611439 0.01455769 4.8763104e-21)
(2.6074122 0.013760919 2.3471471e-21)
(2.6036818 0.01217584 2.058211e-21)
(2.6006218 0.011011285 6.3490045e-21)
(2.5978498 0.0094338967 2.2500561e-22)
(2.5955431 0.0082463992 3.6947472e-22)
(2.5934533 0.006854927 6.172371e-21)
(2.5916642 0.0058357333 8.6553854e-21)
(2.5900149 0.0047716108 5.4443146e-21)
(2.5886434 0.003900293 1.953638e-21)
(2.5873464 0.0030109915 6.7037572e-21)
(2.5862624 0.0024205168 4.7015759e-21)
(2.5852067 0.001911735 -4.5099892e-21)
(2.5844223 0.001329861 -2.7319115e-21)
(2.5836428 0.00076694851 7.6770869e-21)
(2.5831483 0.00054711603 3.867122e-21)
(2.5826596 0.00041708106 -1.8299779e-21)
(2.6655164 0.0059020004 -7.5155523e-21)
(2.6458564 0.037268172 -4.410994e-21)
(2.6144638 0.059377821 -3.9390511e-21)
(2.562259 0.048968151 8.5521026e-22)
(2.5375821 0.039016554 -9.4226659e-21)
(2.5210885 0.011658893 3.5889094e-21)
(2.5154263 -0.0098200688 1.1026769e-20)
(2.5265811 -0.038079064 -6.5642112e-21)
(2.5347797 -0.059666352 -8.6051579e-22)
(2.5559039 -0.076891771 7.2406605e-21)
(2.5722313 -0.089388053 1.3586446e-20)
(2.5954653 -0.093032668 6.5596889e-21)
(2.6134128 -0.094714704 -5.3266811e-21)
(2.6329224 -0.08801766 -1.7386905e-21)
(2.6474064 -0.081590739 7.9008304e-22)
(2.6599925 -0.068429364 -9.2368159e-21)
(2.6688822 -0.057220385 -1.0050861e-20)
(2.6730492 -0.041373428 2.0770336e-21)
(2.675324 -0.028708629 8.1532031e-21)
(2.67179 -0.014593753 5.9608292e-21)
(2.6682796 -0.0038488361 2.9894445e-21)
(2.6601525 0.0054630972 4.8849499e-22)
(2.6534655 0.012324977 -4.4900518e-21)
(2.6443002 0.01650339 -2.0421613e-21)
(2.6370599 0.019528709 4.8352819e-21)
(2.6290993 0.020015602 3.2474263e-21)
(2.6228488 0.020375501 -2.8582051e-21)
(2.6167934 0.018954275 -2.3147753e-21)
(2.611966 0.017927363 3.7522873e-21)
(2.6076074 0.015856533 3.2420233e-21)
(2.604042 0.014342044 2.9798755e-21)
(2.6009203 0.012282742 4.1050836e-21)
(2.5982804 0.010756389 -1.7387044e-21)
(2.5959739 0.0089890335 -4.9201314e-21)
(2.5939908 0.0076518539 5.0799028e-22)
(2.5922299 0.0062259348 6.0542846e-21)
(2.5906708 0.0051734588 2.9691248e-21)
(2.5892418 0.0041512246 -5.6831253e-21)
(2.58802 0.0033124106 -1.288749e-21)
(2.5868584 0.0025060973 2.9472643e-21)
(2.5858664 0.0019760155 -5.8193794e-21)
(2.584888 0.0015608386 -5.9196912e-21)
(2.5841568 0.001053831 3.9102681e-21)
(2.5834177 0.00058238264 5.3694646e-21)
(2.5829568 0.00043336523 -1.4424442e-23)
(2.582486 0.00038111636 -1.0705235e-22)
(2.6937505 0.0018483235 1.2571833e-20)
(2.6928666 0.042611017 -3.2326133e-21)
(2.6624369 0.073201408 -2.2017874e-22)
(2.5928388 0.065600855 2.6963564e-20)
(2.5487976 0.055530032 3.2001312e-20)
(2.5051757 0.023704267 2.5493135e-20)
(2.4917217 -0.0023300247 3.8327916e-20)
(2.4977183 -0.037115897 1.1751437e-20)
(2.5103041 -0.063937624 -4.9084907e-21)
(2.5384731 -0.085440827 -9.2220359e-21)
(2.5588661 -0.10176522 -1.6530277e-21)
(2.5870775 -0.1075965 1.3340757e-20)
(2.6087026 -0.11107376 6.6837801e-21)
(2.6326164 -0.10468261 -6.6441773e-21)
(2.6506652 -0.098339723 -3.259385e-21)
(2.6672113 -0.083912501 4.1526451e-21)
(2.6792637 -0.071387213 -5.3108227e-21)
(2.6861444 -0.052646185 -8.7535421e-21)
(2.6905091 -0.037445009 2.7639678e-21)
(2.6876093 -0.019681459 1.5703373e-21)
(2.6844539 -0.0060267346 -6.0450746e-22)
(2.6751039 0.0062161875 -6.1072202e-21)
(2.6673807 0.015296375 -8.6167031e-21)
(2.6561953 0.020979508 -3.22325e-21)
(2.6473779 0.025113568 -8.8255186e-22)
(2.6375531 0.025853991 5.0583985e-21)
(2.6298773 0.026404371 3.5594197e-21)
(2.6225254 0.024543684 -1.5315807e-21)
(2.6166997 0.023218163 -9.9434041e-22)
(2.6115907 0.020505024 1.5434583e-21)
(2.6074126 0.018526597 1.0259014e-21)
(2.6038976 0.015854665 -5.8518822e-21)
(2.6009165 0.013875732 -4.9136837e-21)
(2.5984275 0.011592499 -1.9384466e-21)
(2.5962336 0.0098785908 -4.9598516e-21)
(2.5943699 0.0080757944 5.227639e-21)
(2.5927018 0.0067011189 1.0559501e-20)
(2.591238 0.005336076 6.3120771e-21)
(2.5898902 0.0043216165 -1.8481613e-21)
(2.5886512 0.0034009638 -5.0863294e-21)
(2.5875596 0.0026400483 -1.1231572e-21)
(2.5865082 0.0019532321 -3.2967957e-21)
(2.5855913 0.0015120197 -3.3546052e-21)
(2.5846703 0.0012084286 1.3573714e-21)
(2.5839792 0.00079072251 2.7041759e-21)
(2.5832647 0.00040750987 -6.8908506e-21)
(2.5828248 0.00032854621 -7.0806628e-21)
(2.5823593 0.00035159836 -4.9723752e-21)
(2.7280708 -0.0087836061 1.4479126e-20)
(2.7551433 0.040721963 4.3961076e-20)
(2.7383401 0.080225847 2.9435742e-20)
(2.6640608 0.078967162 -1.1478034e-20)
(2.6061142 0.072248515 1.4213254e-20)
(2.5310303 0.037200167 2.6284722e-20)
(2.492462 0.0065507519 2.0032046e-20)
(2.4755458 -0.036030437 3.1201694e-20)
(2.4838884 -0.069415179 5.8871279e-21)
(2.5140427 -0.095463505 7.404119e-21)
(2.5411418 -0.11578035 3.4934785e-21)
(2.5762256 -0.1236738 -4.2979983e-21)
(2.6023591 -0.12920493 9.9000712e-21)
(2.6311115 -0.12337166 5.1312794e-21)
(2.6530897 -0.11733876 -7.535234e-21)
(2.67421 -0.10187535 -1.1170719e-21)
(2.689963 -0.088171779 5.945269e-21)
(2.7003425 -0.066398227 2.8051457e-21)
(2.7074947 -0.04843638 -3.3676368e-22)
(2.7057285 -0.026315096 1.9753359e-22)
(2.7033044 -0.0091321454 -9.6744183e-22)
(2.6926499 0.0068583379 -4.3034395e-21)
(2.6837951 0.01880241 -9.5798932e-21)
(2.6701146 0.026503985 -8.5297258e-21)
(2.659338 0.032135263 -3.4118959e-21)
(2.6471246 0.033238914 3.9417488e-22)
(2.6376204 0.034069683 6.0487783e-21)
(2.6286155 0.031633728 7.6162321e-21)
(2.6215178 0.02990707 2.8508052e-21)
(2.6154921 0.026336013 -2.7281977e-21)
(2.6105791 0.023750304 -3.4364909e-22)
(2.6066387 0.020287711 -5.2680796e-22)
(2.6032725 0.017720541 -7.0742231e-21)
(2.6006121 0.014798457 -5.6146002e-21)
(2.5982379 0.012597367 -2.8021259e-21)
(2.5963334 0.010295968 -2.5476246e-21)
(2.5945635 0.0085437708 7.1537793e-21)
(2.5930906 0.0068263249 9.9324391e-21)
(2.5917071 0.0055062663 5.8931639e-21)
(2.5904967 0.0042760304 2.0091974e-21)
(2.5893313 0.0033572317 -1.006249e-21)
(2.5882467 0.0025843439 2.7590384e-21)
(2.5872614 0.0019369173 7.5401686e-22)
(2.5862922 0.0013954743 -1.1039853e-20)
(2.5854318 0.0010614935 -6.6826112e-21)
(2.5845462 0.00087719563 3.8888418e-21)
(2.5838792 0.00054516525 -5.19852e-21)
(2.5831753 0.00025332128 -6.1584817e-21)
(2.582742 0.00024501074 -4.1441492e-21)
(2.5822681 0.00032802852 -1.9243504e-21)
(2.7642521 -0.025378123 -3.1000153e-20)
(2.82304 0.03150071 4.3956138e-21)
(2.8290582 0.079259944 3.2250049e-20)
(2.7593976 0.087749583 1.2043292e-20)
(2.6997849 0.087236049 -2.6962637e-20)
(2.6048026 0.052760537 -4.3272559e-20)
(2.5371298 0.018974564 -3.2636335e-20)
(2.4867272 -0.032414945 -6.4701696e-21)
(2.4740486 -0.073628563 3.7428714e-21)
(2.4889434 -0.10716938 1.5401573e-20)
(2.5179511 -0.1323124 1.6981447e-20)
(2.5616765 -0.1418234 9.5848666e-21)
(2.5940337 -0.14925184 2.2673728e-21)
(2.6282935 -0.14406366 6.9626753e-21)
(2.6545601 -0.13856503 2.3960406e-21)
(2.6808053 -0.12241587 -2.846184e-21)
(2.700763 -0.10775747 3.3205138e-21)
(2.7155493 -0.082946519 -4.7243792e-21)
(2.7263223 -0.062099929 -7.8453829e-21)
(2.7263702 -0.034865064 6.0465432e-21)
(2.7252128 -0.013465517 6.6499617e-21)
(2.7132351 0.0072664366 -6.8440876e-22)
(2.7031941 0.022869596 -3.847425e-21)
(2.6864658 0.033260715 5.5026882e-21)
(2.6732743 0.040899795 6.7175273e-21)
(2.6580077 0.042536649 3.9428849e-21)
(2.6461528 0.043771388 7.6531124e-21)
(2.635028 0.04057433 2.0952235e-21)
(2.6263015 0.038323942 3.5296566e-21)
(2.6191514 0.033618999 5.611099e-21)
(2.6133376 0.030221475 3.6062218e-22)
(2.6089321 0.02572706 1.127041e-21)
(2.6051472 0.02240529 9.7476052e-22)
(2.6023577 0.018688856 -1.6405626e-22)
(2.5998131 0.015872955 1.3221507e-21)
(2.5979141 0.012975626 -3.2576767e-22)
(2.5961001 0.01075164 -4.7806969e-23)
(2.5946942 0.008582698 -7.9523458e-22)
(2.5932984 0.0069087887 1.7239491e-21)
(2.5921521 0.0053650292 -2.266947e-21)
(2.5910114 0.004170986 -6.0727434e-21)
(2.5900058 0.0031303411 -4.5000898e-21)
(2.5889891 0.0023520373 -9.7909952e-22)
(2.588021 0.0017603607 4.5249437e-21)
(2.5871158 0.0012514636 -6.610204e-21)
(2.5861991 0.00087150226 -8.3319372e-21)
(2.5853731 0.00065327258 1.6749327e-21)
(2.5844985 0.00058855767 -3.8268015e-21)
(2.5838425 0.00034350728 -4.7173601e-21)
(2.5831361 0.00013945866 2.154942e-21)
(2.5826953 0.00018871798 4.3549185e-21)
(2.5822005 0.00031459075 1.7738319e-21)
(2.7987135 -0.046878453 -1.6062636e-20)
(2.8896942 0.015997409 -2.2881917e-20)
(2.9229865 0.070580339 1.0820765e-20)
(2.8637892 0.091113756 3.8584907e-20)
(2.8109561 0.099845248 1.9541886e-20)
(2.7060842 0.070093371 -3.2417872e-20)
(2.6202258 0.03747206 -4.7969751e-20)
(2.5343046 -0.022465827 -3.7681132e-20)
(2.4901408 -0.072214924 -1.2954596e-20)
(2.48176 -0.11683539 -1.7522682e-20)
(2.4963535 -0.149916 -6.7702467e-21)
(2.5431886 -0.16253111 1.6309781e-20)
(2.5833487 -0.17162524 9.2490172e-21)
(2.6238256 -0.16686954 2.3625836e-21)
(2.6549836 -0.16194173 6.7789097e-21)
(2.6868193 -0.1455444 6.0553281e-21)
(2.7113815 -0.13025914 1.1264326e-21)
(2.7315903 -0.10260916 -1.0181336e-20)
(2.746958 -0.078879954 -1.8026661e-20)
(2.7497223 -0.045743168 -3.1065361e-22)
(2.7505605 -0.019397263 1.2957813e-20)
(2.7373399 0.0072638739 4.4271954e-21)
(2.7261253 0.027498064 -2.5626662e-21)
(2.7057171 0.041441107 -6.8458617e-21)
(2.6895835 0.051751482 1.980719e-21)
(2.6704366 0.054165505 8.3606054e-21)
(2.6555673 0.055987299 5.7455891e-21)
(2.6417195 0.051803366 2.2239299e-21)
(2.6308944 0.048863602 -3.1275445e-21)
(2.6223547 0.042646148 -4.0876299e-21)
(2.6154316 0.038175252 -2.2240083e-21)
(2.610529 0.032344451 3.0878009e-21)
(2.6062849 0.02803688 3.8542932e-21)
(2.6034288 0.023322873 4.187731e-21)
(2.6007534 0.019746089 3.1544034e-21)
(2.5989462 0.016144466 2.9068004e-21)
(2.5971324 0.013346576 1.3666283e-21)
(2.595854 0.010659168 1.7015074e-22)
(2.5945174 0.0085579516 -5.3579357e-22)