# Force coefficients
# dragDir       : (1.00000000e+00 0.00000000e+00 0.00000000e+00)
# sideDir       : (0.00000000e+00 0.00000000e+00 -1.00000000e+00)
# liftDir       : (0.00000000e+00 1.00000000e+00 0.00000000e+00)
# rollAxis      : (1.00000000e+00 0.00000000e+00 0.00000000e+00)
# pitchAxis     : (0.00000000e+00 0.00000000e+00 -1.00000000e+00)
# yawAxis       : (0.00000000e+00 1.00000000e+00 0.00000000e+00)
# magUInf       : 1.00000000e+00
# lRef          : 1.00000000e+00
# Aref          : 2.00000000e+00
# CofR          : (0.00000000e+00 0.00000000e+00 0.00000000e+00)
#
# Time          	Cd              	Cs              	Cl              	CmRoll          	CmPitch         	CmYaw           	Cd(f)           	Cd(r)           	Cs(f)           	Cs(r)           	Cl(f)           	Cl(r)           
0.0221698       	3.56422440e+02	-1.06289187e-18	-7.00643454e-02	2.11295375e-19	1.48996779e-03	4.14858367e-18	1.78211220e+02	1.78211220e+02	3.61713773e-18	-4.68002960e-18	-3.35422049e-02	-3.65221405e-02
0.0425841       	1.59141135e+01	1.41704344e-18	-6.32378030e-02	-1.04140147e-20	2.60857198e-03	8.91691426e-19	7.95705676e+00	7.95705676e+00	1.60021315e-18	-1.83169704e-19	-2.90103295e-02	-3.42274735e-02
0.0628021       	1.04079721e+01	-1.69385758e-19	-6.06995001e-02	8.91519762e-19	3.74383225e-03	2.20884108e-19	5.20398605e+00	5.20398605e+00	1.36191229e-19	-3.05576987e-19	-2.66059178e-02	-3.40935823e-02
0.0826865       	8.06201589e+00	-1.94265454e-18	-6.04062471e-02	1.86858676e-18	4.99723158e-03	1.53565427e-19	4.03100795e+00	4.03100795e+00	-8.17761843e-19	-1.12489270e-18	-2.52058920e-02	-3.52003551e-02
0.102227        	7.27413786e+00	1.75606350e-18	-6.07631975e-02	-1.46708410e-18	6.34730669e-03	7.38980764e-19	3.63706893e+00	3.63706893e+00	1.61701251e-18	1.39050988e-19	-2.40342920e-02	-3.67289054e-02
0.121396        	6.81293712e+00	1.95967993e-18	-5.84406881e-02	1.64903417e-18	7.44119378e-03	2.67835933e-19	3.40646856e+00	3.40646856e+00	1.24767590e-18	7.12004033e-19	-2.17791503e-02	-3.66615378e-02
0.140241        	6.46467033e+00	2.83344167e-18	-6.79459231e-02	1.96121163e-18	9.95859474e-03	4.97604985e-19	3.23233516e+00	3.23233516e+00	1.91432582e-18	9.19115848e-19	-2.40143668e-02	-4.39315563e-02
0.158773        	6.20501661e+00	3.14456289e-19	-5.42746492e-02	1.23089495e-18	9.45829189e-03	6.54912003e-19	3.10250831e+00	3.10250831e+00	8.12140148e-19	-4.97683859e-19	-1.76790327e-02	-3.65956165e-02
0.17707         	5.98963009e+00	-2.22246728e-19	-5.67013690e-02	7.94878917e-19	1.10702222e-02	2.18094845e-19	2.99481505e+00	2.99481505e+00	1.06971481e-19	-3.29218209e-19	-1.72804624e-02	-3.94209067e-02
0.195136        	5.80600113e+00	2.43266982e-20	-5.78020666e-02	-6.99844420e-20	1.25325612e-02	7.23486398e-20	2.90300057e+00	2.90300057e+00	8.45119889e-20	-6.01852907e-20	-1.63684721e-02	-4.14335945e-02
0.213064        	5.63945785e+00	2.08444610e-18	-5.63496890e-02	4.32060721e-19	1.34884037e-02	4.43791953e-19	2.81972892e+00	2.81972892e+00	1.48601500e-18	5.98431098e-19	-1.46864408e-02	-4.16632482e-02
0.230847        	5.47428446e+00	1.35413273e-18	-5.63100230e-02	-7.39999675e-19	1.46853914e-02	6.90473771e-19	2.73714223e+00	2.73714223e+00	1.36754013e-18	-1.34074081e-20	-1.34696201e-02	-4.28404030e-02
0.248567        	5.30909571e+00	7.05512374e-19	-5.68977312e-02	-4.95508801e-19	1.59950300e-02	5.22703013e-19	2.65454785e+00	2.65454785e+00	8.75459200e-19	-1.69946826e-19	-1.24538356e-02	-4.44438955e-02
0.266281        	5.14671969e+00	1.24868229e-18	-5.61234709e-02	-4.79020525e-20	1.70576615e-02	5.36243435e-19	2.57335985e+00	2.57335985e+00	1.16058458e-18	8.80977111e-20	-1.10040739e-02	-4.51193970e-02
0.283976        	4.98409841e+00	1.47650973e-18	-5.63854006e-02	5.33443563e-19	1.83779001e-02	3.26645695e-19	2.49204920e+00	2.49204920e+00	1.06490056e-18	4.11609170e-19	-9.81480025e-03	-4.65706004e-02
0.301703        	4.82504912e+00	2.68985800e-18	-5.60121747e-02	4.56873389e-19	1.95822579e-02	1.33563119e-18	2.41252456e+00	2.41252456e+00	2.68056019e-18	9.29780467e-21	-8.42382947e-03	-4.75883453e-02
0.319494        	4.66969508e+00	1.00955881e-18	-5.62041286e-02	4.86105760e-19	2.09963720e-02	2.33395642e-19	2.33484754e+00	2.33484754e+00	7.38175047e-19	2.71383763e-19	-7.10569233e-03	-4.90984362e-02
0.337348        	4.51909032e+00	1.09719901e-18	-5.54198701e-02	8.17527426e-19	2.21287502e-02	-6.71139123e-21	2.25954516e+00	2.25954516e+00	5.41888116e-19	5.55310898e-19	-5.58118480e-03	-4.98386853e-02
0.355276        	4.37168654e+00	1.46457000e-18	-5.46006619e-02	-6.15027864e-19	2.33575255e-02	3.51037990e-19	2.18584327e+00	2.18584327e+00	1.08332299e-18	3.81247012e-19	-3.94280550e-03	-5.06578564e-02
0.373298        	4.22936670e+00	2.36461312e-18	-5.27907611e-02	1.00746973e-18	2.42826634e-02	1.40786478e-18	2.11468335e+00	2.11468335e+00	2.59017134e-18	-2.25558226e-19	-2.11271714e-03	-5.06780439e-02
0.391426        	4.09086436e+00	9.31787867e-19	-5.16565341e-02	-1.82009556e-20	2.54612754e-02	4.79243586e-20	2.04543218e+00	2.04543218e+00	5.13818292e-19	4.17969575e-19	-3.66991648e-04	-5.12895425e-02
0.409657        	3.95858734e+00	1.02896945e-18	-5.11101744e-02	1.14631925e-19	2.68727186e-02	2.03957957e-19	1.97929367e+00	1.97929367e+00	7.18442684e-19	3.10526770e-19	1.31763137e-03	-5.24278058e-02
0.427998        	3.83264686e+00	1.41633644e-18	-4.94572122e-02	-6.39659006e-19	2.79551568e-02	6.08606843e-19	1.91632343e+00	1.91632343e+00	1.31677506e-18	9.95613766e-20	3.22655067e-03	-5.26837629e-02
0.44646         	3.71541035e+00	2.39508259e-18	-4.87421638e-02	1.06272187e-18	2.94286893e-02	1.41999157e-18	1.85770518e+00	1.85770518e+00	2.61753286e-18	-2.22450273e-19	5.05760734e-03	-5.37997712e-02
0.465048        	3.60412288e+00	-2.60159344e-19	-4.47716327e-02	-8.49561871e-19	2.95326504e-02	-8.59013818e-19	1.80206144e+00	1.80206144e+00	-9.89093491e-19	7.28934146e-19	7.14683404e-03	-5.19184668e-02
0.483765        	3.50205641e+00	5.47963795e-19	-4.24545595e-02	7.63253005e-19	3.02357762e-02	3.41176562e-19	1.75102820e+00	1.75102820e+00	6.15158460e-19	-6.71946651e-20	9.00849642e-03	-5.14630559e-02
0.502612        	3.40479623e+00	1.99904965e-18	-3.76836556e-02	7.28428848e-19	2.98320812e-02	1.17064004e-18	1.70239811e+00	1.70239811e+00	2.17016487e-18	-1.71115215e-19	1.09902534e-02	-4.86739089e-02
0.52159         	3.31270161e+00	1.29795896e-18	-4.62084391e-02	-1.02755493e-18	3.54616137e-02	4.99888041e-19	1.65635081e+00	1.65635081e+00	1.14886752e-18	1.49091440e-19	1.23573942e-02	-5.85658332e-02
0.540696        	3.22726454e+00	-2.66269344e-19	-3.97630011e-02	-1.08968909e-19	3.42297593e-02	-2.51314291e-19	1.61363227e+00	1.61363227e+00	-3.84448963e-19	1.18179619e-19	1.43482587e-02	-5.41112599e-02
0.55993         	3.14783406e+00	8.30422417e-19	-2.79702292e-02	1.25568285e-18	3.01024718e-02	7.10211863e-19	1.57391703e+00	1.57391703e+00	1.12542307e-18	-2.95000654e-19	1.61173572e-02	-4.40875864e-02
0.579293        	3.07286451e+00	7.29788615e-19	-3.03616826e-02	1.15000868e-19	3.29157749e-02	5.01376016e-19	1.53643226e+00	1.53643226e+00	8.66270324e-19	-1.36481709e-19	1.77349336e-02	-4.80966163e-02
0.598786        	3.00136677e+00	5.10708495e-19	-2.87073808e-02	2.18807195e-19	3.36727574e-02	3.75407021e-19	1.50068338e+00	1.50068338e+00	6.30761268e-19	-1.20052774e-19	1.93190670e-02	-4.80264478e-02
0.618413        	2.93422411e+00	4.96353627e-19	-2.71013584e-02	-2.52702153e-19	3.44496694e-02	3.52065796e-19	1.46711205e+00	1.46711205e+00	6.00242609e-19	-1.03888982e-19	2.08989902e-02	-4.80003486e-02
0.638176        	2.86954236e+00	6.36807320e-19	-2.76207972e-02	8.95697592e-19	3.63773061e-02	6.01269112e-19	1.43477118e+00	1.43477118e+00	9.19672771e-19	-2.82865452e-19	2.25669075e-02	-5.01877048e-02
0.658078        	2.80824644e+00	3.43671526e-19	-2.44286282e-02	3.41722542e-19	3.62334308e-02	6.49182671e-20	1.40412322e+00	1.40412322e+00	2.36754030e-19	1.06917496e-19	2.40191167e-02	-4.84477449e-02
0.678124        	2.74951792e+00	3.57195010e-19	-2.21543082e-02	3.90812753e-19	3.65809183e-02	1.30858112e-19	1.37475896e+00	1.37475896e+00	3.09455618e-19	4.77393928e-20	2.55037642e-02	-4.76580724e-02
0.698316        	2.69293562e+00	1.82789177e-19	-1.95113486e-02	5.69504624e-19	3.67275616e-02	6.92269736e-20	1.34646781e+00	1.34646781e+00	1.60621562e-19	2.21676148e-20	2.69718873e-02	-4.64832359e-02
0.718661        	2.63828146e+00	7.01313649e-19	-1.66355496e-02	1.05861650e-18	3.67054623e-02	5.78850527e-19	1.31914073e+00	1.31914073e+00	9.29507351e-19	-2.28193703e-19	2.83876875e-02	-4.50232371e-02
0.739164        	2.58599735e+00	3.16924655e-19	-1.31498195e-02	5.12812047e-19	3.62781369e-02	2.67979659e-19	1.29299868e+00	1.29299868e+00	4.26441987e-19	-1.09517332e-19	2.97032272e-02	-4.28530466e-02
0.759832        	2.53490300e+00	5.81382238e-19	-9.86461277e-03	-5.02951514e-20	3.58914316e-02	5.04891133e-19	1.26745150e+00	1.26745150e+00	7.95582252e-19	-2.14200014e-19	3.09591253e-02	-4.08237380e-02
0.78067         	2.48619631e+00	7.71960444e-19	-5.81995286e-03	-1.51383679e-19	3.50068009e-02	7.93562953e-19	1.24309815e+00	1.24309815e+00	1.17954317e-18	-4.07582731e-19	3.20968245e-02	-3.79167773e-02
0.801688        	2.43814661e+00	5.99163532e-19	-2.88054954e-03	9.24197535e-19	3.47432430e-02	4.51688474e-19	1.21907331e+00	1.21907331e+00	7.51270239e-19	-1.52106708e-19	3.33029682e-02	-3.61835177e-02
0.822892        	2.39183973e+00	6.44832311e-19	9.99019434e-04	1.01693014e-18	3.37590599e-02	5.51846577e-19	1.19591987e+00	1.19591987e+00	8.74262732e-19	-2.29430421e-19	3.42585696e-02	-3.32595501e-02
0.844291        	2.34664174e+00	1.92088482e-19	4.63620292e-03	1.79154944e-18	3.27996173e-02	-1.69144918e-19	1.17332087e+00	1.17332087e+00	-7.31006774e-20	2.65189159e-19	3.51177188e-02	-3.04815159e-02
0.865896        	2.30390119e+00	7.70432457e-19	1.23426757e-02	1.14443792e-18	2.87117220e-02	2.19697698e-19	1.15195059e+00	1.15195059e+00	6.04913926e-19	1.65518531e-19	3.48830598e-02	-2.25403841e-02
0.887716        	2.26112218e+00	3.18192185e-19	2.01800709e-02	1.79329273e-18	2.41809874e-02	3.68722601e-20	1.13056109e+00	1.13056109e+00	1.95968353e-19	1.22223832e-19	3.42710229e-02	-1.40909520e-02
0.909754        	2.22001699e+00	8.12544424e-19	1.36828386e-02	1.23970948e-18	3.07807070e-02	4.66243199e-19	1.11000849e+00	1.11000849e+00	8.72515411e-19	-5.99709875e-20	3.76221263e-02	-2.39392877e-02
0.932022        	2.17959758e+00	6.03529696e-19	2.01253309e-02	1.17879925e-19	2.69536782e-02	6.18120397e-19	1.08979879e+00	1.08979879e+00	9.19885245e-19	-3.16355550e-19	3.70163436e-02	-1.68910127e-02
0.954531        	2.14111072e+00	7.76848078e-19	3.47815569e-02	1.59422888e-19	1.60095623e-02	8.77206643e-19	1.07055536e+00	1.07055536e+00	1.26563068e-18	-4.88782604e-19	3.34003408e-02	1.38121612e-03
0.977293        	2.10367728e+00	-1.74983722e-18	4.00839774e-02	1.15887548e-18	1.24528581e-02	-8.35567568e-19	1.05183864e+00	1.05183864e+00	-1.71048618e-18	-3.93510423e-20	3.24948468e-02	7.58913057e-03
1.00032         	2.06781004e+00	2.52605811e-19	4.42202425e-02	8.76900935e-19	9.73298355e-03	3.02762753e-19	1.03390502e+00	1.03390502e+00	4.29065659e-19	-1.76459848e-19	3.18431048e-02	1.23771377e-02
1.02363         	2.03266010e+00	1.50355673e-18	4.98006222e-02	8.06570874e-19	5.62421828e-03	1.01755307e-18	1.01633005e+00	1.01633005e+00	1.76933143e-18	-2.65774704e-19	3.05245294e-02	1.92760928e-02
1.04723         	1.99933709e+00	1.49901749e-18	5.56173203e-02	8.33397419e-19	1.24737088e-03	1.00406601e-18	9.99668544e-01	9.99668544e-01	1.75357476e-18	-2.54557268e-19	2.90560310e-02	2.65612892e-02
1.07114         	1.96662524e+00	-9.22705427e-19	6.12000084e-02	1.62984704e-18	-3.03567513e-03	-6.55021701e-19	9.83312618e-01	9.83312618e-01	-1.11637441e-18	1.93668988e-19	2.75643291e-02	3.36356793e-02
1.09537         	1.93582201e+00	1.82203756e-18	6.78921265e-02	5.52689078e-19	-8.48248093e-03	1.13586819e-18	9.67911006e-01	9.67911006e-01	2.04688697e-18	-2.24849409e-19	2.54635823e-02	4.24285442e-02
1.11995         	1.90535437e+00	1.79675908e-18	7.47989858e-02	4.99134489e-19	-1.43178198e-02	1.14050752e-18	9.52677187e-01	9.52677187e-01	2.03888707e-18	-2.42127983e-19	2.30816731e-02	5.17173127e-02
1.14489         	1.87718335e+00	1.99225351e-18	8.21285649e-02	5.84223584e-19	-2.07604056e-02	1.51804421e-18	9.38591675e-01	9.38591675e-01	2.51417097e-18	-5.21917458e-19	2.03038769e-02	6.18246881e-02
1.17023         	1.84922710e+00	1.41417454e-18	8.96938808e-02	1.18300981e-19	-2.76699867e-02	1.25899005e-18	9.24613548e-01	9.24613548e-01	1.96607732e-18	-5.51902785e-19	1.71769537e-02	7.25169271e-02
1.19598         	1.82408056e+00	1.26835462e-18	9.72780780e-02	1.19697247e-18	-3.48318349e-02	8.87880138e-19	9.12040279e-01	9.12040279e-01	1.52205745e-18	-2.53702827e-19	1.38072040e-02	8.34708739e-02
1.22218         	1.79942498e+00	1.22281357e-18	1.05063014e-01	1.26332754e-18	-4.24508100e-02	8.81579081e-19	8.99712491e-01	8.99712491e-01	1.49298587e-18	-2.70172294e-19	1.00806971e-02	9.49823171e-02
1.24888         	1.77733420e+00	1.27372689e-18	1.12971441e-01	1.18024708e-19	-5.04982250e-02	9.80283754e-19	8.88667102e-01	8.88667102e-01	1.61714720e-18	-3.43420310e-19	5.98749549e-03	1.06983945e-01
1.2761          	1.75586348e+00	1.32255953e-18	1.21836281e-01	1.23285243e-18	-5.98941762e-02	1.08112598e-18	8.77931739e-01	8.77931739e-01	1.74240574e-18	-4.19846214e-19	1.02396422e-03	1.20812317e-01
1.3039          	1.73835566e+00	9.98352742e-19	1.33010103e-01	-1.28120467e-19	-7.21841864e-02	7.67629598e-19	8.69177832e-01	8.69177832e-01	1.26680597e-18	-2.68453227e-19	-5.67913512e-03	1.38689238e-01
1.33234         	1.72078069e+00	6.41477949e-19	1.45694041e-01	7.93971974e-19	-8.66036357e-02	7.11772179e-19	8.60390347e-01	8.60390347e-01	1.03251115e-18	-3.91033205e-19	-1.37566153e-02	1.59450656e-01
1.36148         	1.70725806e+00	5.18651023e-19	1.42811861e-01	-4.40287925e-19	-8.35952019e-02	5.67619537e-19	8.53629029e-01	8.53629029e-01	8.26945048e-19	-3.08294025e-19	-1.21892713e-02	1.55001132e-01
1.39138         	1.69507781e+00	7.14483676e-19	1.60819533e-01	-1.20003740e-18	-1.04908775e-01	9.68534664e-19	8.47538905e-01	8.47538905e-01	1.32577650e-18	-6.11292826e-19	-2.44990085e-02	1.85318541e-01
1.42161         	1.68836309e+00	8.05260189e-19	1.76265636e-01	-1.21013262e-18	-1.24152441e-01	1.27330756e-18	8.44181544e-01	8.44181544e-01	1.67593765e-18	-8.70677464e-19	-3.60196228e-02	2.12285259e-01
1.45189         	1.68358678e+00	7.47380895e-19	1.85397912e-01	-1.21544375e-18	-1.36830925e-01	1.27394143e-18	8.41793391e-01	8.41793391e-01	1.64763188e-18	-9.00250984e-19	-4.41319691e-02	2.29529881e-01
1.48227         	1.68195140e+00	1.34849960e-19	1.97301092e-01	-1.26150837e-18	-1.53514106e-01	3.12643288e-19	8.40975700e-01	8.40975700e-01	3.80068268e-19	-2.45218308e-19	-5.48635594e-02	2.52164652e-01
1.51269         	1.68270351e+00	7.69238003e-19	2.09496900e-01	-1.26280413e-18	-1.71336805e-01	1.27021092e-18	8.41351755e-01	8.41351755e-01	1.65482992e-18	-8.85591920e-19	-6.65883549e-02	2.76085255e-01
1.54322         	1.68720996e+00	7.97424166e-19	2.20953392e-01	-1.39303065e-18	-1.88839029e-01	1.31513407e-18	8.43604978e-01	8.43604978e-01	1.71384616e-18	-9.16421991e-19	-7.83623325e-02	2.99315724e-01
1.57381         	1.69504203e+00	5.01197972e-19	2.34598051e-01	-2.21701360e-19	-2.09658109e-01	6.63154492e-19	8.47521016e-01	8.47521016e-01	9.13753478e-19	-4.12555506e-19	-9.23590833e-02	3.26957134e-01
1.60424         	1.70831425e+00	2.00867981e-19	2.47912140e-01	-1.28961367e-18	-2.30444418e-01	1.35748360e-19	8.54157123e-01	8.54157123e-01	2.36182350e-19	-3.53143692e-20	-1.06488348e-01	3.54400488e-01
1.63444         	1.72391648e+00	2.70969928e-19	2.61154670e-01	-1.30662214e-18	-2.51583527e-01	3.27698478e-19	8.61958239e-01	8.61958239e-01	4.63183442e-19	-1.92213515e-19	-1.21006192e-01	3.82160863e-01
1.6645          	1.74452216e+00	4.79993813e-19	2.75415904e-01	-1.86957160e-19	-2.74578436e-01	8.01580128e-19	8.72261080e-01	8.72261080e-01	1.04157703e-18	-5.61583222e-19	-1.36870484e-01	4.12286388e-01
1.69436         	1.76796032e+00	1.58753107e-19	2.89210807e-01	-1.38880347e-18	-2.97455135e-01	1.47592630e-19	8.83980158e-01	8.83980158e-01	2.26969183e-19	-6.82160766e-20	-1.52849731e-01	4.42060539e-01
1.72406         	1.79627987e+00	6.54189309e-19	3.03120659e-01	-1.96081494e-19	-3.20986656e-01	9.90902644e-19	8.98139935e-01	8.98139935e-01	1.31799730e-18	-6.63807989e-19	-1.69426326e-01	4.72546986e-01
1.75356         	1.82775164e+00	4.75558155e-19	3.17120392e-01	4.40460111e-19	-3.45123884e-01	6.71726648e-19	9.13875822e-01	9.13875822e-01	9.09505725e-19	-4.33947570e-19	-1.86563688e-01	5.03684080e-01
1.7829          	1.86382998e+00	2.91768450e-19	3.31496087e-01	-1.34592026e-18	-3.70167612e-01	3.93079904e-19	9.31914992e-01	9.31914992e-01	5.38964129e-19	-2.47195679e-19	-2.04419569e-01	5.35915655e-01
1.81204         	1.90308466e+00	5.46766179e-19	3.45559379e-01	-1.59853362e-19	-3.95288496e-01	8.45183849e-19	9.51542328e-01	9.51542328e-01	1.11856694e-18	-5.71800760e-19	-2.22508807e-01	5.68068185e-01
1.84102         	1.94819914e+00	4.45948761e-19	3.60174485e-01	-3.11688003e-19	-4.21877416e-01	7.16912483e-19	9.74099571e-01	9.74099571e-01	9.39886863e-19	-4.93938102e-19	-2.41790174e-01	6.01964659e-01
1.8698          	1.99711409e+00	4.86640444e-19	3.78659007e-01	5.10171456e-19	-4.54982396e-01	6.56370619e-19	9.98557045e-01	9.98557045e-01	8.99690841e-19	-4.13050398e-19	-2.65652893e-01	6.44311900e-01
1.89843         	2.05069727e+00	4.51797802e-19	3.95146350e-01	5.85694283e-19	-4.85870853e-01	6.77305437e-19	1.02534863e+00	1.02534863e+00	9.03204338e-19	-4.51406536e-19	-2.88297678e-01	6.83444028e-01
1.92685         	2.10550411e+00	2.39471724e-19	4.01989713e-01	-4.86724045e-19	-5.02719063e-01	2.46383337e-19	1.05275205e+00	1.05275205e+00	3.66119199e-19	-1.26647475e-19	-3.01724206e-01	7.03713919e-01
1.95514         	2.16723954e+00	8.71028406e-19	4.19277524e-01	7.72251896e-19	-5.36194869e-01	1.11353376e-18	1.08361977e+00	1.08361977e+00	1.54904796e-18	-6.78019553e-19	-3.26556107e-01	7.45833632e-01
1.98323         	2.23309207e+00	4.78229296e-19	4.42567916e-01	6.24284224e-19	-5.79754862e-01	7.47041041e-19	1.11654604e+00	1.11654604e+00	9.86155689e-19	-5.07926393e-19	-3.58470904e-01	8.01038821e-01
2.01118         	2.30512041e+00	5.13644408e-19	4.64226527e-01	6.17929700e-19	-6.21647476e-01	8.56503947e-19	1.15256020e+00	1.15256020e+00	1.11332615e-18	-5.99681743e-19	-3.89534212e-01	8.53760739e-01
2.03895         	2.38115151e+00	3.50161347e-19	4.80691310e-01	5.73153241e-19	-6.55760535e-01	6.21903607e-19	1.19057575e+00	1.19057575e+00	7.96984280e-19	-4.46822934e-19	-4.15414880e-01	8.96106190e-01
2.06658         	2.46195671e+00	9.31997817e-19	4.98939930e-01	-6.31670591e-19	-6.92843051e-01	1.65247293e-18	1.23097835e+00	1.23097835e+00	2.11847184e-18	-1.18647402e-18	-4.43373085e-01	9.42313016e-01
2.09403         	2.54491943e+00	6.03632398e-19	5.15235259e-01	-4.85028471e-19	-7.27297405e-01	9.63236666e-19	1.27245971e+00	1.27245971e+00	1.26505286e-18	-6.61420467e-19	-4.69679776e-01	9.84915035e-01
2.12136         	2.63174832e+00	-1.89943542e-19	5.31283213e-01	-2.22755816e-19	-7.62255019e-01	-2.26576311e-19	1.31587416e+00	1.31587416e+00	-3.21548082e-19	1.31604540e-19	-4.96613413e-01	1.02789663e+00
2.14852         	2.72228675e+00	-1.68747736e-19	5.51289102e-01	-2.28954198e-19	-8.04415980e-01	-2.54007349e-19	1.36114338e+00	1.36114338e+00	-3.38381217e-19	1.69633481e-19	-5.28771429e-01	1.08006053e+00
2.17557         	2.81859060e+00	6.08839957e-19	5.71310868e-01	9.68125512e-20	-8.47537533e-01	9.06963799e-19	1.40929530e+00	1.40929530e+00	1.21138378e-18	-6.02543821e-19	-5.61882099e-01	1.13319297e+00
2.20247         	2.91841726e+00	-2.38803660e-19	5.90870186e-01	1.61635209e-19	-8.89966121e-01	-2.57949341e-19	1.45920863e+00	1.45920863e+00	-3.77351171e-19	1.38547511e-19	-5.94531028e-01	1.18540121e+00
2.22924         	3.02257333e+00	4.72278978e-19	6.10498496e-01	-7.88835907e-19	-9.32468884e-01	7.20512620e-19	1.51128666e+00	1.51128666e+00	9.56652109e-19	-4.84373131e-19	-6.27219636e-01	1.23771813e+00
2.25581         	3.12911044e+00	6.23535035e-19	6.29705781e-01	-4.32619286e-19	-9.74867892e-01	9.50762194e-19	1.56455522e+00	1.56455522e+00	1.26252971e-18	-6.38994677e-19	-6.60015002e-01	1.28972078e+00
2.28222         	3.23752871e+00	6.28310621e-19	6.50136981e-01	-3.38739279e-19	-1.01994989e+00	1.04958127e-18	1.61876435e+00	1.61876435e+00	1.36373658e-18	-7.35425962e-19	-6.94881395e-01	1.34501838e+00
2.30844         	3.35318815e+00	5.59338541e-19	6.71323606e-01	-1.21198173e-18	-1.06681325e+00	8.82542267e-19	1.67659407e+00	1.67659407e+00	1.16221154e-18	-6.02872997e-19	-7.31151446e-01	1.40247505e+00
2.33452         	3.46906863e+00	6.57994092e-19	6.92120850e-01	-8.15387890e-19	-1.11318899e+00	1.28649119e-18	1.73453432e+00	1.73453432e+00	1.61548824e-18	-9.57494148e-19	-7.67128563e-01	1.45924941e+00
2.360403        	3.59086082e+00	7.08519015e-20	7.12833116e-01	-5.12506658e-19	-1.15996425e+00	3.72312840e-19	1.79543041e+00	1.79543041e+00	4.07738790e-19	-3.36886889e-19	-8.03547690e-01	1.51638081e+00
2.38613         	3.71644591e+00	5.65078631e-19	7.33193140e-01	-1.17118906e-18	-1.20633408e+00	9.28479658e-19	1.85822295e+00	1.85822295e+00	1.21101897e-18	-6.45940342e-19	-8.39737511e-01	1.57293065e+00
2.41167         	3.84695268e+00	5.91757774e-20	7.54352668e-01	-3.69571171e-19	-1.25426443e+00	3.83135878e-19	1.92347634e+00	1.92347634e+00	4.12723767e-19	-3.53547990e-19	-8.77088093e-01	1.63144076e+00
2.437049        	3.98061164e+00	5.96969018e-19	7.74606708e-01	-7.07564661e-19	-1.30087495e+00	1.19935059e-18	1.99030582e+00	1.99030582e+00	1.49783510e-18	-9.00866081e-19	-9.13571600e-01	1.68817831e+00
2.462255        	4.11781939e+00	1.82600582e-21	7.95226070e-01	-3.94270429e-19	-1.34843804e+00	3.08637697e-19	2.05890970e+00	2.05890970e+00	3.09550700e-19	-3.07724694e-19	-9.50825010e-01	1.74605108e+00
2.487309        	4.25874947e+00	5.02675756e-19	8.16816013e-01	-7.30351396e-19	-1.39791030e+00	1.07842058e-18	2.12937473e+00	2.12937473e+00	1.32975845e-18	-8.27082699e-19	-9.89502293e-01	1.80631831e+00
2.512191        	4.40250584e+00	3.53865855e-19	8.36906667e-01	1.34562482e-19	-1.44498323e+00	5.37443953e-19	2.20125292e+00	2.20125292e+00	7.14376881e-19	-3.60511026e-19	-1.02652989e+00	1.86343656e+00
2.53694         	4.55147771e+00	3.33714951e-19	8.57548803e-01	1.67978939e-19	-1.49329147e+00	5.03223490e-19	2.27573886e+00	2.27573886e+00	6.70080965e-19	-3.36366014e-19	-1.06451707e+00	1.92206587e+00
2.561527        	4.70231757e+00	6.93240873e-19	8.79095890e-01	-8.13416159e-19	-1.54342636e+00	1.49685411e-18	2.35115878e+00	2.35115878e+00	1.84347455e-18	-1.15023368e-18	-1.10387841e+00	1.98297430e+00
2.585986        	4.85893986e+00	2.47929923e-19	9.00641813e-01	-6.40884710e-19	-1.59381041e+00	2.17646256e-19	2.42946993e+00	2.42946993e+00	3.41611218e-19	-9.36812947e-20	-1.14348951e+00	2.04413132e+00
2.61029         	5.01382879e+00	-2.84330916e-20	9.21596541e-01	-4.49500466e-19	-1.64313654e+00	2.66429881e-19	2.50691439e+00	2.50691439e+00	2.52213335e-19	-2.80646427e-19	-1.18233827e+00	2.10393481e+00
2.634472        	5.17617877e+00	3.86199507e-19	9.45151688e-01	-1.08611029e-18	-1.69734333e+00	5.38120669e-19	2.58808938e+00	2.58808938e+00	7.31220423e-19	-3.45020916e-19	-1.22476748e+00	2.16991917e+00
2.658514        	5.33644019e+00	-6.53095012e-20	9.67202124e-01	-4.53620295e-19	-1.74880726e+00	1.67191267e-19	2.66822009e+00	2.66822009e+00	1.34536516e-19	-1.99846018e-19	-1.26520620e+00	2.23240832e+00
2.682437        	5.50320966e+00	4.22086135e-19	9.89057666e-01	-1.06279320e-18	-1.79993829e+00	6.21974079e-19	2.75160483e+00	2.75160483e+00	8.33017146e-19	-4.10931011e-19	-1.30540945e+00	2.29446712e+00
2.706233        	5.66874271e+00	4.96797542e-19	9.97365112e-01	-1.02780080e-18	-1.82569031e+00	7.43996458e-19	2.83437135e+00	2.83437135e+00	9.92395229e-19	-4.95597687e-19	-1.32700776e+00	2.32437287e+00
2.729916        	5.83668014e+00	1.00517757e-19	1.02620665e+00	-1.18478567e-18	-1.88999959e+00	5.75145232e-20	2.91834007e+00	2.91834007e+00	1.07773402e-19	-7.25564468e-21	-1.37689626e+00	2.40310291e+00
2.753459        	6.00415331e+00	1.00931573e-18	1.04922875e+00	-1.13511415e-18	-1.94340715e+00	2.59825701e-18	3.00207665e+00	3.00207665e+00	3.10291488e-18	-2.09359915e-18	-1.41879278e+00	2.46802153e+00
2.776848        	6.17366535e+00	-1.94353519e-19	1.07176612e+00	-4.58779664e-19	-1.99587582e+00	-5.07509343e-20	3.08683268e+00	3.08683268e+00	-1.47927694e-19	-4.64258252e-20	-1.45999276e+00	2.53175888e+00
2.800073        	6.34203980e+00	1.17606801e-18	1.09058259e+00	-5.37990538e-19	-2.04120723e+00	2.60239564e-18	3.17101990e+00	3.17101990e+00	3.19042964e-18	-2.01436163e-18	-1.49591594e+00	2.58649853e+00
2.823162        	6.51031724e+00	-1.13679522e-19	1.11002724e+00	-3.34510741e-19	-2.08767008e+00	1.31610323e-19	3.25515862e+00	3.25515862e+00	7.47705618e-20	-1.88450083e-19	-1.53265646e+00	2.64268369e+00
2.846093        	6.67461283e+00	4.92782151e-19	1.12867198e+00	-8.54217133e-19	-2.13252623e+00	7.70203684e-19	3.33730642e+00	3.33730642e+00	1.01659476e-18	-5.23812608e-19	-1.56819024e+00	2.69686222e+00
2.868905        	6.84120570e+00	5.40256241e-19	1.14690005e+00	-9.46089824e-19	-2.17649087e+00	8.61683900e-19	3.42060285e+00	3.42060285e+00	1.13181202e-18	-5.91555779e-19	-1.60304084e+00	2.74994089e+00
2.891572        	7.00128951e+00	-1.46198178e-19	1.16310136e+00	-4.30544195e-19	-2.21639489e+00	-6.75741820e-21	3.50064476e+00	3.50064476e+00	-7.98565074e-20	-6.63416710e-20	-1.63484421e+00	2.79794556e+00
2.914136        	7.15988565e+00	5.09940642e-19	1.17929653e+00	-9.04067357e-19	-2.25610786e+00	8.27415798e-19	3.57994283e+00	3.57994283e+00	1.08238612e-18	-5.72445477e-19	-1.66645960e+00	2.84575612e+00
2.936576        	7.31644062e+00	3.21580284e-19	1.19809141e+00	-9.31055297e-19	-2.30066523e+00	6.04499296e-19	3.65822031e+00	3.65822031e+00	7.65289438e-19	-4.43709154e-19	-1.70161953e+00	2.89971093e+00
2.95893         	7.46618142e+00	3.27275270e-19	1.21317553e+00	-9.75244644e-19	-2.33784050e+00	6.61132193e-19	3.73309071e+00	3.73309071e+00	8.24769828e-19	-4.97494558e-19	-1.73125274e+00	2.94442827e+00
2.981183        	7.61305732e+00	1.20958458e-18	1.22968631e+00	-1.41351535e-18	-2.37752375e+00	3.09017156e-18	3.80652866e+00	3.80652866e+00	3.69496385e-18	-2.48537926e-18	-1.76268060e+00	2.99236691e+00
3.003369        	7.75500825e+00	5.95834997e-21	1.24186441e+00	-4.81998770e-19	-2.40854019e+00	1.85946733e-19	3.87750413e+00	3.87750413e+00	1.88925908e-19	-1.82967558e-19	-1.78760799e+00	3.02947239e+00
3.025473        	7.89143928e+00	-2.16205402e-20	1.25848694e+00	-3.97089370e-19	-2.44800478e+00	1.48077477e-19	3.94571964e+00	3.94571964e+00	1.37267207e-19	-1.58887747e-19	-1.81876131e+00	3.07724826e+00
3.047513        	8.01943556e+00	8.51220025e-20	1.27185754e+00	-4.26869301e-19	-2.48091035e+00	2.56309349e-19	4.00971778e+00	4.00971778e+00	2.98870351e-19	-2.13748348e-19	-1.84498158e+00	3.11683912e+00
3.069421        	8.14683210e+00	3.44620880e-19	1.28738221e+00	-8.62455748e-19	-2.51776943e+00	5.66536831e-19	4.07341605e+00	4.07341605e+00	7.38847271e-19	-3.94226391e-19	-1.87407832e+00	3.16146053e+00
3.091246        	8.26140319e+00	1.13004139e-18	1.29915295e+00	-1.57529611e-18	-2.54696788e+00	3.17997769e-18	4.13070160e+00	4.13070160e+00	3.74499838e-18	-2.61495700e-18	-1.89739141e+00	3.19654436e+00
3.112972        	8.36991149e+00	-6.05246220e-20	1.30887258e+00	-4.23055063e-19	-2.57179007e+00	2.51759232e-19	4.18495574e+00	4.18495574e+00	2.21496921e-19	-2.82021543e-19	-1.91735377e+00	3.22622636e+00
3.134634        	8.47168484e+00	-2.87184880e-19	1.32229065e+00	-4.15006785e-19	-2.60362230e+00	-2.96336616e-19	4.23584242e+00	4.23584242e+00	-4.39929055e-19	1.52744176e-19	-1.94247697e+00	3.26476762e+00
3.156227        	8.56607621e+00	-4.58867773e-19	1.33120001e+00	-1.50668893e-18	-2.62650710e+00	-1.18926633e-18	4.28303811e+00	4.28303811e+00	-1.41870022e-18	9.59832443e-19	-1.96090710e+00	3.29210711e+00
3.177777        	8.65255153e+00	1.97566465e-19	1.33891619e+00	-9.37122845e-19	-2.64666431e+00	3.63819325e-19	4.32627576e+00	4.32627576e+00	4.62602558e-19	-2.65036093e-19	-1.97720621e+00	3.31612240e+00
3.199281        	8.73489897e+00	1.78383990e-19	1.35024647e+00	-8.62016277e-19	-2.67341833e+00	2.75729589e-19	4.36744948e+00	4.36744948e+00	3.64921584e-19	-1.86537594e-19	-1.99829510e+00	3.34854157e+00
3.220761        	8.80510604e+00	-4.35376281e-19	1.35574472e+00	-8.72911029e-19	-2.68840135e+00	-1.40739986e-18	4.40255302e+00	4.40255302e+00	-1.62508800e-18	1.18971172e-18	-2.01052899e+00	3.36627371e+00
3.242213        	8.87172530e+00	-4.91289681e-19	1.36667828e+00	-8.64874897e-19	-2.71376432e+00	-1.49056620e-18	4.43586265e+00	4.43586265e+00	-1.73621104e-18	1.24492136e-18	-2.03042518e+00	3.39710346e+00
3.263618        	8.92477488e+00	-1.51692490e-19	1.37285835e+00	-3.31326786e-19	-2.72923864e+00	-2.03742523e-19	4.46238744e+00	4.46238744e+00	-2.79588768e-19	1.27896278e-19	-2.04280946e+00	3.41566782e+00
3.284977        	8.96734082e+00	-2.64196595e-19	1.37600373e+00	-1.54543601e-18	-2.73826797e+00	-9.99297203e-19	4.48367041e+00	4.48367041e+00	-1.13139550e-18	8.67198906e-19	-2.05026610e+00	3.42626983e+00
3.306312        	9.00634322e+00	-3.94003358e-20	1.37834544e+00	-2.59024632e-19	-2.74558227e+00	7.81818945e-21	4.50317161e+00	4.50317161e+00	-1.18819784e-20	-2.75183573e-20	-2.05640955e+00	3.43475499e+00
3.327629        	9.03756196e+00	1.06033975e-18	1.38193945e+00	-8.99194137e-19	-2.75495012e+00	2.92525541e-18	4.51878098e+00	4.51878098e+00	3.45542529e-18	-2.39508554e-18	-2.06398040e+00	3.44591985e+00
3.348944        	9.06015326e+00	-1.00626807e-19	1.38524554e+00	-1.47750899e-18	-2.76333951e+00	-6.36340035e-19	4.53007663e+00	4.53007663e+00	-6.86653438e-19	5.86026631e-19	-2.07071674e+00	3.45596228e+00
3.370262        	9.07907406e+00	-3.29370789e-19	1.38906590e+00	-8.52516138e-19	-2.77238287e+00	-1.26066461e-18	4.53953703e+00	4.53953703e+00	-1.42535001e-18	1.09597922e-18	-2.07784991e+00	3.46691582e+00
3.3916          	9.08342742e+00	1.82977129e-19	1.39390505e+00	-8.35482999e-19	-2.78305918e+00	2.20582230e-19	4.54171371e+00	4.54171371e+00	3.12070794e-19	-1.29093665e-19	-2.08610665e+00	3.48001170e+00