/*--------------------------------*- C++ -*----------------------------------*\
| =========                 |                                                 |
| \\      /  F ield         | OpenFOAM: The Open Source CFD Toolbox           |
|  \\    /   O peration     | Version:  v2012                                 |
|   \\  /    A nd           | Website:  www.openfoam.com                      |
|    \\/     M anipulation  |                                                 |
\*---------------------------------------------------------------------------*/
FoamFile
{
    version     2.0;
    format      ascii;
    class       volVectorField;
    location    "101.881115955756229";
    object      cellDisplacement;
}
// * * * * * * * * * * * * * * * * * * * * * * * * * * * * * * * * * * * * * //

dimensions      [0 1 0 0 0 0 0];


internalField   nonuniform List<vector> 
9200
(
(0.054961497 0 0)
(0.055224307 0 0)
(0.15994266 0 0)
(0.055639912 0 0)
(0.16063281 0 0)
(0.25828981 0 0)
(0.056135181 0 0)
(0.16172829 0 0)
(0.25932652 0 0)
(0.35027338 0 0)
(0.056688096 0 0)
(0.16309763 0 0)
(0.26103118 0 0)
(0.3516254 0 0)
(0.43618338 0 0)
(0.05726133 0 0)
(0.16461524 0 0)
(0.26315301 0 0)
(0.35385496 0 0)
(0.4378124 0 0)
(0.51630739 0 0)
(0.057835218 0 0)
(0.16620018 0 0)
(0.2655209 0 0)
(0.35666061 0 0)
(0.44053517 0 0)
(0.51820021 0 0)
(0.59095269 0 0)
(0.058393322 0 0)
(0.1677916 0 0)
(0.26800575 0 0)
(0.35979948 0 0)
(0.44395868 0 0)
(0.52136711 0 0)
(0.59308783 0 0)
(0.66041091 0 0)
(0.058925394 0 0)
(0.16934471 0 0)
(0.2705065 0 0)
(0.36309718 0 0)
(0.44780249 0 0)
(0.52537536 0 0)
(0.59668582 0 0)
(0.66278176 0 0)
(0.7249818 0 0)
(0.059425231 0 0)
(0.17082892 0 0)
(0.27295128 0 0)
(0.36642148 0 0)
(0.45184705 0 0)
(0.52987834 0 0)
(0.6012377 0 0)
(0.66677959 0 0)
(0.7275746 0 0)
(0.78494358 0 0)
(0.059888715 0 0)
(0.17222492 0 0)
(0.27529173 0 0)
(0.36967915 0 0)
(0.45593496 0 0)
(0.53462531 0 0)
(0.60636495 0 0)
(0.67186058 0 0)
(0.73196828 0 0)
(0.78775513 0 0)
(0.84057798 0 0)
(0.060314598 0 0)
(0.17352213 0 0)
(0.27749676 0 0)
(0.37280234 0 0)
(0.45994518 0 0)
(0.53942745 0 0)
(0.61177779 0 0)
(0.6775877 0 0)
(0.73754969 0 0)
(0.79252152 0 0)
(0.84359874 0 0)
(0.8921426 0 0)
(0.060702451 0 0)
(0.17471491 0 0)
(0.27954748 0 0)
(0.37574849 0 0)
(0.46379622 0 0)
(0.54414524 0 0)
(0.61725705 0 0)
(0.68363658 0 0)
(0.7438538 0 0)
(0.79859782 0 0)
(0.84873745 0 0)
(0.8953703 0 0)
(0.93989664 0 0)
(0.061053524 0 0)
(0.17580315 0 0)
(0.28143604 0 0)
(0.37849168 0 0)
(0.4674324 0 0)
(0.54868143 0 0)
(0.62264945 0 0)
(0.68977013 0 0)
(0.75052268 0 0)
(0.80546643 0 0)
(0.85528763 0 0)
(0.90086375 0 0)
(0.94332415 0 0)
(0.98407446 0 0)
(0.061369164 0 0)
(0.1767885 0 0)
(0.28315978 0 0)
(0.38101952 0 0)
(0.47082184 0 0)
(0.5529702 0 0)
(0.62783981 0 0)
(0.69580998 0 0)
(0.7572885 0 0)
(0.81273732 0 0)
(0.8627047 0 0)
(0.90788636 0 0)
(0.94917322 0 0)
(0.9876997 0 0)
(1.0249111 0 0)
(0.061651759 0 0)
(0.17767599 0 0)
(0.28472306 0 0)
(0.38332926 0 0)
(0.47394766 0 0)
(0.55697147 0 0)
(0.63275236 0 0)
(0.70163025 0 0)
(0.76395682 0 0)
(0.82012148 0 0)
(0.87056843 0 0)
(0.91584481 0 0)
(0.95665013 0 0)
(0.99388952 0 0)
(1.0287283 0 0)
(1.0626171 0 0)
(0.061903387 0 0)
(0.17847066 0 0)
(0.28613138 0 0)
(0.38542447 0 0)
(0.47680591 0 0)
(0.56066522 0 0)
(0.63734032 0 0)
(0.70714545 0 0)
(0.77039161 0 0)
(0.827408 0 0)
(0.87856181 0 0)
(0.92428996 0 0)
(0.96513841 0 0)
(1.0018218 0 0)
(1.0352596 0 0)
(1.0666239 0 0)
(1.0974036 0 0)
(0.06212679 0 0)
(0.17917961 0 0)
(0.28739475 0 0)
(0.38731399 0 0)
(0.47940036 0 0)
(0.56404533 0 0)
(0.64157963 0 0)
(0.71230199 0 0)
(0.77649588 0 0)
(0.83444533 0 0)
(0.88645752 0 0)
(0.93288663 0 0)
(0.97416056 0 0)
(1.0108353 0 0)
(1.0436313 0 0)
(1.073484 0 0)
(1.101595 0 0)
(1.1294583 0 0)
(0.062324353 0 0)
(0.17980925 0 0)
(0.288522 0 0)
(0.38900883 0 0)
(0.4817412 0 0)
(0.56711584 0 0)
(0.64546207 0 0)
(0.71707053 0 0)
(0.78220869 0 0)
(0.84112865 0 0)
(0.89408861 0 0)
(0.94138272 0 0)
(0.98335209 0 0)
(1.0204248 0 0)
(1.0531599 0 0)
(1.0822963 0 0)
(1.1087834 0 0)
(1.1338314 0 0)
(1.1589697 0 0)
(0.062498573 0 0)
(0.18036678 0 0)
(0.28952493 0 0)
(0.39052272 0 0)
(0.48384203 0 0)
(0.56988805 0 0)
(0.64899201 0 0)
(0.72144168 0 0)
(0.78749685 0 0)
(0.84739011 0 0)
(0.90134536 0 0)
(0.94960548 0 0)
(0.99244829 0 0)
(1.0302087 0 0)
(1.0633134 0 0)
(1.0923356 0 0)
(1.1180207 0 0)
(1.1413364 0 0)
(1.1635196 0 0)
(1.1861037 0 0)
(0.062651784 0 0)
(0.18085876 0 0)
(0.29041324 0 0)
(0.39186921 0 0)
(0.48571895 0 0)
(0.57237739 0 0)
(0.65218085 0 0)
(0.72541825 0 0)
(0.79234777 0 0)
(0.85319255 0 0)
(0.90815242 0 0)
(0.9574309 0 0)
(1.0012571 0 0)
(1.0398991 0 0)
(1.0736828 0 0)
(1.103044 0 0)
(1.1285608 0 0)
(1.150999 0 0)
(1.1713391 0 0)
(1.1908267 0 0)
(1.2110276 0 0)
(0.062786141 0 0)
(0.18129177 0 0)
(0.2911985 0 0)
(0.39306313 0 0)
(0.48738918 0 0)
(0.57460278 0 0)
(0.65504689 0 0)
(0.72901344 0 0)
(0.79676418 0 0)
(0.85851902 0 0)
(0.91446509 0 0)
(0.96477801 0 0)
(1.0096457 0 0)
(1.0492903 0 0)
(1.083966 0 0)
(1.1139962 0 0)
(1.1398204 0 0)
(1.1620346 0 0)
(1.1814113 0 0)
(1.1989498 0 0)
(1.2159191 0 0)
(1.233888 0 0)
(0.062903833 0 0)
(0.18167202 0 0)
(0.29188989 0 0)
(0.39411804 0 0)
(0.48887025 0 0)
(0.57658386 0 0)
(0.65761003 0 0)
(0.73224594 0 0)
(0.80075929 0 0)
(0.86337233 0 0)
(0.92026642 0 0)
(0.97160057 0 0)
(1.0175351 0 0)
(1.0582499 0 0)
(1.0939449 0 0)
(1.1248681 0 0)
(1.1513478 0 0)
(1.1738356 0 0)
(1.1929318 0 0)
(1.2094303 0 0)
(1.2243417 0 0)
(1.2389437 0 0)
(1.2548327 0 0)
(0.063006544 0 0)
(0.18200496 0 0)
(0.29249773 0 0)
(0.39504795 0 0)
(0.49017952 0 0)
(0.57834147 0 0)
(0.65989376 0 0)
(0.7351389 0 0)
(0.80435334 0 0)
(0.86776517 0 0)
(0.92555546 0 0)
(0.97787593 0 0)
(1.0248667 0 0)
(1.0666739 0 0)
(1.1034623 0 0)
(1.1354269 0 0)
(1.1628065 0 0)
(1.1859346 0 0)
(1.205269 0 0)
(1.2214287 0 0)
(1.2352144 0 0)
(1.2476551 0 0)
(1.2600477 0 0)
(1.2739904 0 0)
(0.063096212 0 0)
(0.18229625 0 0)
(0.29303027 0 0)
(0.39586515 0 0)
(0.49133351 0 0)
(0.5798954 0 0)
(0.66192039 0 0)
(0.73771716 0 0)
(0.80757156 0 0)
(0.87171965 0 0)
(0.93034653 0 0)
(0.9836021 0 0)
(1.0316169 0 0)
(1.0745154 0 0)
(1.112431 0 0)
(1.1455167 0 0)
(1.1739495 0 0)
(1.1979743 0 0)
(1.217931 0 0)
(1.2342912 0 0)
(1.2476792 0 0)
(1.2589167 0 0)
(1.2690423 0 0)
(1.2793599 0 0)
(1.2914912 0 0)
(0.063174129 0 0)
(0.18255014 0 0)
(0.29349611 0 0)
(0.39658191 0 0)
(0.49234816 0 0)
(0.58126568 0 0)
(0.66371376 0 0)
(0.74000669 0 0)
(0.81044079 0 0)
(0.87526218 0 0)
(0.93466202 0 0)
(0.98879277 0 0)
(1.0377825 0 0)
(1.0817427 0 0)
(1.1207825 0 0)
(1.1550218 0 0)
(1.1845987 0 0)
(1.2096933 0 0)
(1.2305477 0 0)
(1.2475106 0 0)
(1.2610599 0 0)
(1.2718394 0 0)
(1.2806767 0 0)
(1.2886273 0 0)
(1.2970103 0 0)
(1.3074483 0 0)
(0.063241989 0 0)
(0.18277141 0 0)
(0.29390238 0 0)
(0.39720882 0 0)
(0.49323792 0 0)
(0.58247036 0 0)
(0.66529533 0 0)
(0.74203305 0 0)
(0.81299003 0 0)
(0.87842251 0 0)
(0.93853008 0 0)
(0.99347098 0 0)
(1.0433751 0 0)
(1.0883498 0 0)
(1.1284881 0 0)
(1.1638832 0 0)
(1.1946477 0 0)
(1.2209129 0 0)
(1.2428443 0 0)
(1.2606969 0 0)
(1.2748263 0 0)
(1.2857259 0 0)
(1.2940443 0 0)
(1.3006294 0 0)
(1.3065436 0 0)
(1.3131118 0 0)
(1.3219757 0 0)
(0.063300691 0 0)
(0.18296347 0 0)
(0.29425614 0 0)
(0.39775615 0 0)
(0.49401656 0 0)
(0.58352716 0 0)
(0.66668682 0 0)
(0.74382123 0 0)
(0.81524683 0 0)
(0.88123126 0 0)
(0.94198295 0 0)
(0.99766674 0 0)
(1.0484193 0 0)
(1.0943482 0 0)
(1.1355395 0 0)
(1.1720692 0 0)
(1.2040234 0 0)
(1.2315015 0 0)
(1.2546228 0 0)
(1.2735635 0 0)
(1.2885771 0 0)
(1.3000318 0 0)
(1.3084276 0 0)
(1.314432 0 0)
(1.318897 0 0)
(1.3229006 0 0)
(1.3277786 0 0)
(1.3351723 0 0)
(0.063351743 0 0)
(0.18313039 0 0)
(0.29456335 0 0)
(0.3982327 0 0)
(0.49469617 0 0)
(0.58445169 0 0)
(0.66790751 0 0)
(0.74539474 0 0)
(0.81723942 0 0)
(0.88371937 0 0)
(0.9450528 0 0)
(1.0014135 0 0)
(1.0529456 0 0)
(1.0997617 0 0)
(1.1419479 0 0)
(1.1795693 0 0)
(1.2126913 0 0)
(1.2413906 0 0)
(1.2657574 0 0)
(1.2859078 0 0)
(1.3020113 0 0)
(1.3143373 0 0)
(1.3232607 0 0)
(1.3292982 0 0)
(1.3331207 0 0)
(1.3355988 0 0)
(1.3378151 0 0)
(1.3411093 0 0)
(1.3471382 0 0)
(0.063398573 0 0)
(0.18327449 0 0)
(0.2948296 0 0)
(0.3986468 0 0)
(0.49528823 0 0)
(0.58525894 0 0)
(0.66897592 0 0)
(0.74677583 0 0)
(0.81899316 0 0)
(0.88591661 0 0)
(0.94777408 0 0)
(1.0047466 0 0)
(1.0569898 0 0)
(1.1046228 0 0)
(1.1477356 0 0)
(1.1863907 0 0)
(1.220641 0 0)
(1.250542 0 0)
(1.276163 0 0)
(1.2975824 0 0)
(1.314909 0 0)
(1.3283294 0 0)
(1.3381132 0 0)
(1.3446491 0 0)
(1.3484593 0 0)
(1.3502324 0 0)
(1.3508418 0 0)
(1.3513835 0 0)
(1.3532041 0 0)
(1.3579598 0 0)
(0.063170243 0 0)
(0.18340679 0 0)
(0.29505939 0 0)
(0.39900551 0 0)
(0.49580253 0 0)
(0.58596169 0 0)
(0.66990862 0 0)
(0.74798492 0 0)
(0.82053333 0 0)
(0.88785174 0 0)
(0.95017778 0 0)
(1.0077016 0 0)
(1.0605892 0 0)
(1.1089679 0 0)
(1.1529365 0 0)
(1.1925581 0 0)
(1.22788 0 0)
(1.2589456 0 0)
(1.2858023 0 0)
(1.308506 0 0)
(1.3271295 0 0)
(1.3417857 0 0)
(1.3526583 0 0)
(1.3600365 0 0)
(1.3643138 0 0)
(1.3660283 0 0)
(1.3658708 0 0)
(1.364731 0 0)
(1.3637075 0 0)
(1.3641492 0 0)
(1.3677245 0 0)
(0.062882893 0 0)
(0.18292471 0 0)
(0.29526859 0 0)
(0.39931543 0 0)
(0.49624825 0 0)
(0.58657241 0 0)
(0.67072104 0 0)
(0.74904093 0 0)
(0.82188193 0 0)
(0.88955135 0 0)
(0.95229643 0 0)
(1.0103132 0 0)
(1.0637814 0 0)
(1.1128371 0 0)
(1.1575881 0 0)
(1.1981034 0 0)
(1.234431 0 0)
(1.2666066 0 0)
(1.2946617 0 0)
(1.3186341 0 0)
(1.338572 0 0)
(1.3545418 0 0)
(1.3666587 0 0)
(1.3751244 0 0)
(1.3802268 0 0)
(1.3823751 0 0)
(1.3821118 0 0)
(1.380143 0 0)
(1.3773598 0 0)
(1.374872 0 0)
(1.3740322 0 0)
(1.3765076 0 0)
(0.062624107 0 0)
(0.18205502 0 0)
(0.29455586 0 0)
(0.39959672 0 0)
(0.49663324 0 0)
(0.58710149 0 0)
(0.67142684 0 0)
(0.74996088 0 0)
(0.82306046 0 0)
(0.89104057 0 0)
(0.95415747 0 0)
(1.0126147 0 0)
(1.0666041 0 0)
(1.1162697 0 0)
(1.1617324 0 0)
(1.2030675 0 0)
(1.2403263 0 0)
(1.2735457 0 0)
(1.3027479 0 0)
(1.3279518 0 0)
(1.3491899 0 0)
(1.3665013 0 0)
(1.3799529 0 0)
(1.3896689 0 0)
(1.3958486 0 0)
(1.3987997 0 0)
(1.3989355 0 0)
(1.3968135 0 0)
(1.39314 0 0)
(1.3888205 0 0)
(1.3849656 0 0)
(1.3829281 0 0)
(1.3843854 0 0)
(0.062393735 0 0)
(0.1812722 0 0)
(0.293159 0 0)
(0.39867932 0 0)
(0.49698232 0 0)
(0.58755827 0 0)
(0.67203847 0 0)
(0.75076031 0 0)
(0.82408729 0 0)
(0.89234198 0 0)
(0.95578965 0 0)
(1.0146374 0 0)
(1.0690922 0 0)
(1.1193057 0 0)
(1.165411 0 0)
(1.2074921 0 0)
(1.2456071 0 0)
(1.2797966 0 0)
(1.3100795 0 0)
(1.3364653 0 0)
(1.358969 0 0)
(1.3776122 0 0)
(1.3924305 0 0)
(1.4034906 0 0)
(1.4109217 0 0)
(1.414943 0 0)
(1.4158601 0 0)
(1.4141012 0 0)
(1.4102267 0 0)
(1.404956 0 0)
(1.3991948 0 0)
(1.3940624 0 0)
(1.3909136 0 0)
(1.3914237 0 0)
(0.062194044 0 0)
(0.18057684 0 0)
(0.29190287 0 0)
(0.39681049 0 0)
(0.49588321 0 0)
(0.58797187 0 0)
(0.67256621 0 0)
(0.75145291 0 0)
(0.82498014 0 0)
(0.89347672 0 0)
(0.95721604 0 0)
(1.0164105 0 0)
(1.07128 0 0)
(1.1219825 0 0)
(1.1686657 0 0)
(1.2114224 0 0)
(1.2503171 0 0)
(1.2853992 0 0)
(1.3166907 0 0)
(1.3441945 0 0)
(1.3679125 0 0)
(1.3878528 0 0)
(1.4040313 0 0)
(1.416479 0 0)
(1.4252707 0 0)
(1.4305427 0 0)
(1.4325138 0 0)
(1.4315105 0 0)
(1.427962 0 0)
(1.4224428 0 0)
(1.4156707 0 0)
(1.4085636 0 0)
(1.40224 0 0)
(1.3980541 0 0)
(1.3976888 0 0)
(0.06202635 0 0)
(0.17997391 0 0)
(0.29078695 0 0)
(0.3951308 0 0)
(0.49359228 0 0)
(0.5867121 0 0)
(0.67304365 0 0)
(0.7520511 0 0)
(0.82575366 0 0)
(0.89446328 0 0)
(0.9584609 0 0)
(1.0179608 0 0)
(1.0731981 0 0)
(1.1243363 0 0)
(1.1715366 0 0)
(1.2149012 0 0)
(1.2545028 0 0)
(1.2904004 0 0)
(1.3226209 0 0)
(1.351169 0 0)
(1.3760399 0 0)
(1.3972272 0 0)
(1.4147345 0 0)
(1.4285706 0 0)
(1.4387676 0 0)
(1.4454038 0 0)
(1.4486229 0 0)
(1.4486613 0 0)
(1.4458429 0 0)
(1.4406118 0 0)
(1.4335437 0 0)
(1.4253666 0 0)
(1.416998 0 0)
(1.4095631 0 0)
(1.4044165 0 0)
(1.403238 0 0)
(0.061892365 0 0)
(0.17946854 0 0)
(0.28981985 0 0)
(0.39363852 0 0)
(0.49153363 0 0)
(0.58404407 0 0)
(0.67164434 0 0)
(0.75259075 0 0)
(0.82642227 0 0)
(0.89531916 0 0)
(0.95954307 0 0)
(1.0193129 0 0)
(1.0748761 0 0)
(1.1264004 0 0)
(1.1740617 0 0)
(1.2179716 0 0)
(1.2582097 0 0)
(1.2948464 0 0)
(1.3279183 0 0)
(1.3574324 0 0)
(1.3833823 0 0)
(1.4057564 0 0)
(1.4245435 0 0)
(1.4397376 0 0)
(1.4513461 0 0)
(1.4594016 0 0)
(1.4639935 0 0)
(1.4652738 0 0)
(1.4634772 0 0)
(1.4589478 0 0)
(1.4521292 0 0)
(1.4436094 0 0)
(1.4341135 0 0)
(1.4245691 0 0)
(1.4160997 0 0)
(1.4100578 0 0)
(1.4081291 0 0)
(0.061792961 0 0)
(0.17906441 0 0)
(0.2890091 0 0)
(0.39234537 0 0)
(0.48970491 0 0)
(0.58164708 0 0)
(0.66864239 0 0)
(0.7510722 0 0)
(0.82702415 0 0)
(0.89605799 0 0)
(0.96048244 0 0)
(1.0204889 0 0)
(1.0763395 0 0)
(1.1282056 0 0)
(1.1762766 0 0)
(1.2206735 0 0)
(1.2614822 0 0)
(1.2987864 0 0)
(1.3326309 0 0)
(1.3630301 0 0)
(1.3899819 0 0)
(1.4134709 0 0)
(1.4334758 0 0)
(1.4499805 0 0)
(1.462976 0 0)
(1.4724646 0 0)
(1.4784881 0 0)
(1.4811381 0 0)
(1.4805749 0 0)
(1.4770508 0 0)
(1.4709059 0 0)
(1.4625969 0 0)
(1.4527119 0 0)
(1.4419836 0 0)
(1.4313389 0 0)
(1.4219057 0 0)
(1.4150363 0 0)
(1.4124119 0 0)
(0.06172913 0 0)
(0.17876484 0 0)
(0.288361 0 0)
(0.39126133 0 0)
(0.48812024 0 0)
(0.57951782 0 0)
(0.66594573 0 0)
(0.74777479 0 0)
(0.82540474 0 0)
(0.89672355 0 0)
(0.96129302 0 0)
(1.0215083 0 0)
(1.0776129 0 0)
(1.1297802 0 0)
(1.1782141 0 0)
(1.2230445 0 0)
(1.264363 0 0)
(1.3022655 0 0)
(1.3368092 0 0)
(1.3680147 0 0)
(1.3958851 0 0)
(1.4204103 0 0)
(1.4415644 0 0)
(1.4593173 0 0)
(1.4736519 0 0)
(1.4845538 0 0)
(1.4920273 0 0)
(1.4961176 0 0)
(1.4969286 0 0)
(1.4946259 0 0)
(1.4894624 0 0)
(1.4817972 0 0)
(1.472084 0 0)
(1.4609214 0 0)
(1.4490379 0 0)
(1.4373697 0 0)
(1.4270408 0 0)
(1.4194017 0 0)
(1.4161364 0 0)
(0.061701353 0 0)
(0.17857208 0 0)
(0.28788037 0 0)
(0.39039463 0 0)
(0.48679189 0 0)
(0.57767311 0 0)
(0.66355111 0 0)
(0.74481377 0 0)
(0.82184859 0 0)
(0.89501912 0 0)
(0.96202176 0 0)
(1.0223897 0 0)
(1.0787166 0 0)
(1.1311498 0 0)
(1.1799046 0 0)
(1.2251198 0 0)
(1.2668917 0 0)
(1.3053297 0 0)
(1.3405011 0 0)
(1.3724357 0 0)
(1.4011449 0 0)
(1.4266242 0 0)
(1.4488474 0 0)
(1.4677806 0 0)
(1.4833947 0 0)
(1.4956648 0 0)
(1.5045749 0 0)
(1.5101297 0 0)
(1.5123857 0 0)
(1.5114496 0 0)
(1.507496 0 0)
(1.500792 0 0)
(1.4916928 0 0)
(1.4806632 0 0)
(1.4683007 0 0)
(1.4553399 0 0)
(1.4427152 0 0)
(1.4315538 0 0)
(1.4232045 0 0)
(1.4193461 0 0)
(0.17848804 0 0)
(0.06170115 0 0)
(0.28757123 0 0)
(0.38975221 0 0)
(0.48572987 0 0)
(0.57612662 0 0)
(0.66147641 0 0)
(0.742184 0 0)
(0.8186561 0 0)
(0.89123788 0 0)
(0.96024725 0 0)
(1.0231792 0 0)
(1.0796706 0 0)
(1.1323378 0 0)
(1.1813752 0 0)
(1.2269309 0 0)
(1.2691053 0 0)
(1.3080195 0 0)
(1.3437537 0 0)
(1.3763453 0 0)
(1.4058134 0 0)
(1.4321635 0 0)
(1.4553759 0 0)
(1.4754122 0 0)
(1.4922346 0 0)
(1.505812 0 0)
(1.5161169 0 0)
(1.5231286 0 0)
(1.5268612 0 0)
(1.5273724 0 0)
(1.5247833 0 0)
(1.5192735 0 0)
(1.5111093 0 0)
(1.5006631 0 0)
(1.488395 0 0)
(1.4749119 0 0)
(1.4609425 0 0)
(1.4474301 0 0)
(1.4354966 0 0)
(1.4264881 0 0)
(1.422084 0 0)
(0.28743624 0 0)
(0.178487 0 0)
(0.061728466 0 0)
(0.38933869 0 0)
(0.48494275 0 0)
(0.57489065 0 0)
(0.65973773 0 0)
(0.73990606 0 0)
(0.81582054 0 0)
(0.88784274 0 0)
(0.95626904 0 0)
(1.0213499 0 0)
(1.0805229 0 0)
(1.1333635 0 0)
(1.1826503 0 0)
(1.2285073 0 0)
(1.2710375 0 0)
(1.3103751 0 0)
(1.3466107 0 0)
(1.3797909 0 0)
(1.4099436 0 0)
(1.4370846 0 0)
(1.4612 0 0)
(1.4822565 0 0)
(1.5002131 0 0)
(1.5150276 0 0)
(1.5266677 0 0)
(1.5351006 0 0)
(1.5403072 0 0)
(1.542304 0 0)
(1.5411627 0 0)
(1.5370047 0 0)
(1.5300194 0 0)
(1.5204854 0 0)
(1.5087705 0 0)
(1.4953433 0 0)
(1.4808089 0 0)
(1.4659014 0 0)
(1.4515614 0 0)
(1.4389116 0 0)
(1.429296 0 0)
(1.4243879 0 0)
(0.38915844 0 0)
(0.28743448 0 0)
(0.17856869 0 0)
(0.061791827 0 0)
(0.48443616 0 0)
(0.57397436 0 0)
(0.65834817 0 0)
(0.73799702 0 0)
(0.81336455 0 0)
(0.88482814 0 0)
(0.95269728 0 0)
(1.0172023 0 0)
(1.078651 0 0)
(1.1342807 0 0)
(1.1837526 0 0)
(1.2298741 0 0)
(1.2727191 0 0)
(1.3124313 0 0)
(1.349113 0 0)
(1.3828195 0 0)
(1.4135856 0 0)
(1.4414395 0 0)
(1.4663779 0 0)
(1.4883708 0 0)
(1.5073776 0 0)
(1.5233551 0 0)
(1.5362611 0 0)
(1.5460555 0 0)
(1.5527042 0 0)
(1.5561892 0 0)
(1.5565385 0 0)
(1.5538256 0 0)
(1.5481864 0 0)
(1.5398123 0 0)
(1.5289815 0 0)
(1.5160771 0 0)
(1.5015611 0 0)
(1.486047 0 0)
(1.4702629 0 0)
(1.4551565 0 0)
(1.4418439 0 0)
(1.4316658 0 0)
(1.426295 0 0)
(0.48421541 0 0)
(0.38915569 0 0)
(0.28756552 0 0)
(0.17875926 0 0)
(0.061890707 0 0)
(0.57338505 0 0)
(0.65731799 0 0)
(0.73647144 0 0)
(0.81130615 0 0)
(0.88221659 0 0)
(0.94952615 0 0)
(1.0134802 0 0)
(1.0743594 0 0)
(1.1323777 0 0)
(1.1847352 0 0)
(1.2310559 0 0)
(1.2741784 0 0)
(1.3142214 0 0)
(1.3512986 0 0)
(1.3854732 0 0)
(1.4167876 0 0)
(1.4452826 0 0)
(1.4709633 0 0)
(1.4938083 0 0)
(1.5137835 0 0)
(1.5308431 0 0)
(1.5449379 0 0)
(1.5560242 0 0)
(1.5640608 0 0)
(1.5690081 0 0)
(1.5708573 0 0)
(1.5696377 0 0)
(1.5654378 0 0)
(1.5583939 0 0)
(1.5487059 0 0)
(1.5366609 0 0)
(1.5226378 0 0)
(1.5071047 0 0)
(1.490673 0 0)
(1.4740757 0 0)
(1.4582564 0 0)
(1.4443304 0 0)
(1.4336353 0 0)
(1.4278379 0 0)
(0.57312803 0 0)
(0.48421207 0 0)
(0.38933098 0 0)
(0.28787121 0 0)
(0.17905633 0 0)
(0.062024129 0 0)
(0.6566556 0 0)
(0.73534088 0 0)
(0.80966138 0 0)
(0.88002824 0 0)
(0.94677897 0 0)
(1.0101747 0 0)
(1.0705086 0 0)
(1.1279668 0 0)
(1.1828151 0 0)
(1.2321066 0 0)
(1.2754387 0 0)
(1.315775 0 0)
(1.3532018 0 0)
(1.387792 0 0)
(1.4195946 0 0)
(1.448662 0 0)
(1.4750118 0 0)
(1.4986292 0 0)
(1.5194855 0 0)
(1.5375427 0 0)
(1.5527493 0 0)
(1.56505 0 0)
(1.574403 0 0)
(1.5807619 0 0)
(1.5840894 0 0)
(1.5843787 0 0)
(1.581673 0 0)
(1.5760605 0 0)
(1.5676926 0 0)
(1.5567697 0 0)
(1.543577 0 0)
(1.5285074 0 0)
(1.5120202 0 0)
(1.4947357 0 0)
(1.4773803 0 0)
(1.4609023 0 0)
(1.4464098 0 0)
(1.435237 0 0)
(1.4290488 0 0)
(0.6563665 0 0)
(0.57312436 0 0)
(0.48442673 0 0)
(0.389739 0 0)
(0.28834799 0 0)
(0.17945816 0 0)
(0.062191197 0 0)
(0.73461387 0 0)
(0.80844259 0 0)
(0.87827959 0 0)
(0.94447715 0 0)
(1.0073119 0 0)
(1.0670885 0 0)
(1.1240081 0 0)
(1.1783045 0 0)
(1.2301794 0 0)
(1.2765594 0 0)
(1.3171169 0 0)
(1.3548534 0 0)
(1.3898121 0 0)
(1.422048 0 0)
(1.4516264 0 0)
(1.4785745 0 0)
(1.5028866 0 0)
(1.5245438 0 0)
(1.5435139 0 0)
(1.5597457 0 0)
(1.5731836 0 0)
(1.5837775 0 0)
(1.5914784 0 0)
(1.5962383 0 0)
(1.5980201 0 0)
(1.5968287 0 0)
(1.592708 0 0)
(1.5857623 0 0)
(1.5761405 0 0)
(1.5640514 0 0)
(1.5497862 0 0)
(1.5337334 0 0)
(1.5163576 0 0)
(1.4982757 0 0)
(1.4802191 0 0)
(1.4631299 0 0)
(1.4481144 0 0)
(1.4365032 0 0)
(1.4299545 0 0)
(0.73429747 0 0)
(0.65636229 0 0)
(0.57337368 0 0)
(0.48492656 0 0)
(0.39037646 0 0)
(0.28899268 0 0)
(0.17996064 0 0)
(0.062390103 0 0)
(0.80765881 0 0)
(0.87698389 0 0)
(0.94263797 0 0)
(1.004913 0 0)
(1.0641267 0 0)
(1.1204937 0 0)
(1.1742583 0 0)
(1.2255894 0 0)
(1.2746353 0 0)
(1.318309 0 0)
(1.3562818 0 0)
(1.3915654 0 0)
(1.4241858 0 0)
(1.4542175 0 0)
(1.4817004 0 0)
(1.5066368 0 0)
(1.5290145 0 0)
(1.5488128 0 0)
(1.5659883 0 0)
(1.5804808 0 0)
(1.5922339 0 0)
(1.6011989 0 0)
(1.6073245 0 0)
(1.6105569 0 0)
(1.6108692 0 0)
(1.6082667 0 0)
(1.6028081 0 0)
(1.5945968 0 0)
(1.5837961 0 0)
(1.5706123 0 0)
(1.555335 0 0)
(1.5383649 0 0)
(1.5201569 0 0)
(1.5013363 0 0)
(1.4826275 0 0)
(1.4649749 0 0)
(1.4494774 0 0)
(1.4374608 0 0)
(1.4305828 0 0)
(0.80731801 0 0)
(0.73429261 0 0)
(0.65664172 0 0)
(0.5739556 0 0)
(0.48570748 0 0)
(0.39123765 0 0)
(0.28979984 0 0)
(0.18056085 0 0)
(0.062619644 0 0)
(0.87615118 0 0)
(0.94127527 0 0)
(1.0029966 0 0)
(1.0616446 0 0)
(1.1174492 0 0)
(1.1706652 0 0)
(1.221473 0 0)
(1.2699876 0 0)
(1.3163984 0 0)
(1.3575469 0 0)
(1.3930826 0 0)
(1.4260428 0 0)
(1.4564766 0 0)
(1.4844348 0 0)
(1.509928 0 0)
(1.5329539 0 0)
(1.5535015 0 0)
(1.5715329 0 0)
(1.5869947 0 0)
(1.5998283 0 0)
(1.6099759 0 0)
(1.6173893 0 0)
(1.6220112 0 0)
(1.6237898 0 0)
(1.6227 0 0)
(1.6187605 0 0)
(1.612029 0 0)
(1.6026256 0 0)
(1.5907097 0 0)
(1.576495 0 0)
(1.5602738 0 0)
(1.5424433 0 0)
(1.5234625 0 0)
(1.5039524 0 0)
(1.4846424 0 0)
(1.4664681 0 0)
(1.450525 0 0)
(1.4381378 0 0)
(1.4309591 0 0)
(0.87578895 0 0)
(0.80731248 0 0)
(0.73459982 0 0)
(0.65729576 0 0)
(0.57486374 0 0)
(0.48676244 0 0)
(0.39231661 0 0)
(0.29076361 0 0)
(0.18125287 0 0)
(0.062877402 0 0)
(0.94039986 0 0)
(1.001577 0 0)
(1.0596618 0 0)
(1.1148987 0 0)
(1.1675536 0 0)
(1.217817 0 0)
(1.2658184 0 0)
(1.3117104 0 0)
(1.3556607 0 0)
(1.3944234 0 0)
(1.4276483 0 0)
(1.4584393 0 0)
(1.4868194 0 0)
(1.5128093 0 0)
(1.5364137 0 0)
(1.5576334 0 0)
(1.5764425 0 0)
(1.5927896 0 0)
(1.6066167 0 0)
(1.6178677 0 0)
(1.6264879 0 0)
(1.6324201 0 0)
(1.6356065 0 0)
(1.6359961 0 0)
(1.6335753 0 0)
(1.6283621 0 0)
(1.6204298 0 0)
(1.6098962 0 0)
(1.596934 0 0)
(1.5817533 0 0)
(1.564643 0 0)
(1.5460123 0 0)
(1.5263092 0 0)
(1.5061626 0 0)
(1.4862945 0 0)
(1.4676386 0 0)
(1.4512859 0 0)
(1.4385596 0 0)
(1.4311072 0 0)
(0.9400192 0 0)
(0.87578354 0 0)
(0.80764327 0 0)
(0.73531714 0 0)
(0.65831681 0 0)
(0.57609188 0 0)
(0.48808429 0 0)
(0.39360423 0 0)
(0.29187603 0 0)
(0.18203243 0 0)
(0.063163643 0 0)
(1.000665 0 0)
(1.058193 0 0)
(1.1128609 0 0)
(1.1649463 0 0)
(1.2146514 0 0)
(1.262117 0 0)
(1.3075049 0 0)
(1.3509459 0 0)
(1.392569 0 0)
(1.4290679 0 0)
(1.4601365 0 0)
(1.4888913 0 0)
(1.5153224 0 0)
(1.539443 0 0)
(1.561266 0 0)
(1.580773 0 0)
(1.5979219 0 0)
(1.6126614 0 0)
(1.6249327 0 0)
(1.6346761 0 0)
(1.641837 0 0)
(1.6463571 0 0)
(1.648172 0 0)
(1.6472408 0 0)
(1.6435506 0 0)
(1.6371329 0 0)
(1.6280594 0 0)
(1.6164639 0 0)
(1.6025135 0 0)
(1.586425 0 0)
(1.5684878 0 0)
(1.5491081 0 0)
(1.5287363 0 0)
(1.5079969 0 0)
(1.4876133 0 0)
(1.4685127 0 0)
(1.4517859 0 0)
(1.4387503 0 0)
(1.431048 0 0)
(1.0002696 0 0)
(0.94001365 0 0)
(0.87613406 0 0)
(0.80841598 0 0)
(0.73643849 0 0)
(0.65969839 0 0)
(0.5776296 0 0)
(0.48966159 0 0)
(0.39509117 0 0)
(0.29312857 0 0)
(0.18289848 0 0)
(0.0633908 0 0)
(1.0572494 0 0)
(1.1113519 0 0)
(1.1628637 0 0)
(1.2119987 0 0)
(1.258911 0 0)
(1.3037722 0 0)
(1.3467192 0 0)
(1.3878424 0 0)
(1.4272524 0 0)
(1.4616363 0 0)
(1.4906852 0 0)
(1.5175071 0 0)
(1.5420868 0 0)
(1.5644466 0 0)
(1.5845818 0 0)
(1.6024555 0 0)
(1.6180208 0 0)
(1.631228 0 0)
(1.6420162 0 0)
(1.6503206 0 0)
(1.6560892 0 0)
(1.6592591 0 0)
(1.6597677 0 0)
(1.6575755 0 0)
(1.6526825 0 0)
(1.6451184 0 0)
(1.6349708 0 0)
(1.6223701 0 0)
(1.6074953 0 0)
(1.5905578 0 0)
(1.5718433 0 0)
(1.5517692 0 0)
(1.5307742 0 0)
(1.5094862 0 0)
(1.4886256 0 0)
(1.4691193 0 0)
(1.4520494 0 0)
(1.4387308 0 0)
(1.4307808 0 0)
(1.0568404 0 0)
(1.0002632 0 0)
(0.94038162 0 0)
(0.87695591 0 0)
(0.80962476 0 0)
(0.73795437 0 0)
(0.66142852 0 0)
(0.57946603 0 0)
(0.49148331 0 0)
(0.39676517 0 0)
(0.29452152 0 0)
(0.18337719 0 0)
(0.063342775 0 0)
(1.1103827 0 0)
(1.1613212 0 0)
(1.2098801 0 0)
(1.2562255 0 0)
(1.3005385 0 0)
(1.3429661 0 0)
(1.3836068 0 0)
(1.4225312 0 0)
(1.4598686 0 0)
(1.4922663 0 0)
(1.5193995 0 0)
(1.5443866 0 0)
(1.5672251 0 0)
(1.58792 0 0)
(1.6064434 0 0)
(1.6227579 0 0)
(1.6368179 0 0)
(1.6485642 0 0)
(1.657933 0 0)
(1.664867 0 0)
(1.6693074 0 0)
(1.671189 0 0)
(1.6704489 0 0)
(1.6670594 0 0)
(1.6610198 0 0)
(1.6523741 0 0)
(1.6412071 0 0)
(1.6276644 0 0)
(1.611918 0 0)
(1.5941851 0 0)
(1.5747497 0 0)
(1.5540275 0 0)
(1.5324535 0 0)
(1.5106563 0 0)
(1.4893609 0 0)
(1.4694812 0 0)
(1.4520973 0 0)
(1.4384238 0 0)
(1.4302889 0 0)
(1.1099627 0 0)
(1.0568332 0 0)
(1.0006468 0 0)
(0.94124594 0 0)
(0.8782398 0 0)
(0.81125841 0 0)
(0.7398542 0 0)
(0.66349526 0 0)
(0.58158619 0 0)
(0.49353427 0 0)
(0.39862822 0 0)
(0.2952301 0 0)
(0.18324169 0 0)
(0.063290272 0 0)
(1.1603309 0 0)
(1.2083111 0 0)
(1.2540803 0 0)
(1.2978305 0 0)
(1.3397166 0 0)
(1.3798454 0 0)
(1.4182993 0 0)
(1.455166 0 0)
(1.4905555 0 0)
(1.5210645 0 0)
(1.5463777 0 0)
(1.5696421 0 0)
(1.5908368 0 0)
(1.6099432 0 0)
(1.6269292 0 0)
(1.6417602 0 0)
(1.6543857 0 0)
(1.6647373 0 0)
(1.6727514 0 0)
(1.6783752 0 0)
(1.6815486 0 0)
(1.6821975 0 0)
(1.6802694 0 0)
(1.6757373 0 0)
(1.6686138 0 0)
(1.65894 0 0)
(1.6468164 0 0)
(1.6323835 0 0)
(1.6158238 0 0)
(1.5973489 0 0)
(1.5772379 0 0)
(1.5559124 0 0)
(1.5338011 0 0)
(1.511539 0 0)
(1.4898425 0 0)
(1.4696213 0 0)
(1.451734 0 0)
(1.4378449 0 0)
(1.4295803 0 0)
(1.1599022 0 0)
(1.1099555 0 0)
(1.0572288 0 0)
(1.0015458 0 0)
(0.94259594 0 0)
(0.87997743 0 0)
(0.81330658 0 0)
(0.74212228 0 0)
(0.66588141 0 0)
(0.58397413 0 0)
(0.4958175 0 0)
(0.39953982 0 0)
(0.29501646 0 0)
(0.18309431 0 0)
(0.063229942 0 0)
(1.2073039 0 0)
(1.2524925 0 0)
(1.2956672 0 0)
(1.3369944 0 0)
(1.3765896 0 0)
(1.414543 0 0)
(1.4509504 0 0)
(1.4858811 0 0)
(1.5194166 0 0)
(1.5481304 0 0)
(1.5717357 0 0)
(1.5933755 0 0)
(1.6130019 0 0)
(1.6305914 0 0)
(1.6461182 0 0)
(1.6595372 0 0)
(1.6707884 0 0)
(1.6798053 0 0)
(1.6865265 0 0)
(1.6909035 0 0)
(1.6928665 0 0)
(1.6923412 0 0)
(1.6892778 0 0)
(1.6836629 0 0)
(1.6755074 0 0)
(1.6648663 0 0)
(1.6518362 0 0)
(1.6365718 0 0)
(1.6192469 0 0)
(1.6000787 0 0)
(1.5793379 0 0)
(1.557452 0 0)
(1.534849 0 0)
(1.5121573 0 0)
(1.490094 0 0)
(1.4691918 0 0)
(1.4510025 0 0)
(1.4370624 0 0)
(1.4286523 0 0)
(1.2068683 0 0)
(1.1598938 0 0)
(1.1103602 0 0)
(1.0581578 0 0)
(1.0029533 0 0)
(0.94442387 0 0)
(0.88215377 0 0)
(0.81575123 0 0)
(0.74474226 0 0)
(0.66856928 0 0)
(0.58663266 0 0)
(0.49690895 0 0)
(0.39925282 0 0)
(0.29478201 0 0)
(0.18292428 0 0)
(0.06316021 0 0)
(1.2514736 0 0)
(1.2940663 0 0)
(1.3348212 0 0)
(1.373862 0 0)
(1.4112905 0 0)
(1.4472098 0 0)
(1.4816937 0 0)
(1.5147823 0 0)
(1.546551 0 0)
(1.5735778 0 0)
(1.5955768 0 0)
(1.6156668 0 0)
(1.6337953 0 0)
(1.6499447 0 0)
(1.6640833 0 0)
(1.6761537 0 0)
(1.6860892 0 0)
(1.6938311 0 0)
(1.6993286 0 0)
(1.7025145 0 0)
(1.7033153 0 0)
(1.7016644 0 0)
(1.6975229 0 0)
(1.6908757 0 0)
(1.6817474 0 0)
(1.6701882 0 0)
(1.6563101 0 0)
(1.6402614 0 0)
(1.6222249 0 0)
(1.6024056 0 0)
(1.5810775 0 0)
(1.5586786 0 0)
(1.5356213 0 0)
(1.5125359 0 0)
(1.4895949 0 0)
(1.468263 0 0)
(1.4500885 0 0)
(1.4360715 0 0)
(1.4275034 0 0)
(1.2510337 0 0)
(1.2068591 0 0)
(1.1603064 0 0)
(1.1113148 0 0)
(1.0596132 0 0)
(1.0048564 0 0)
(0.94671279 0 0)
(0.88475408 0 0)
(0.81857592 0 0)
(0.74769286 0 0)
(0.67156195 0 0)
(0.58788315 0 0)
(0.49655235 0 0)
(0.39893703 0 0)
(0.29451033 0 0)
(0.18272865 0 0)
(0.063080534 0 0)
(1.2930395 0 0)
(1.3332129 0 0)
(1.3716853 0 0)
(1.4085672 0 0)
(1.4439702 0 0)
(1.4779767 0 0)
(1.5106329 0 0)
(1.5419707 0 0)
(1.5720746 0 0)
(1.5975099 0 0)
(1.617979 0 0)
(1.636589 0 0)
(1.6532965 0 0)
(1.6680786 0 0)
(1.6808879 0 0)
(1.6916654 0 0)
(1.7003473 0 0)
(1.706876 0 0)
(1.7111964 0 0)
(1.7132441 0 0)
(1.7129385 0 0)
(1.7102183 0 0)
(1.7050474 0 0)
(1.6974246 0 0)
(1.6873713 0 0)
(1.6749512 0 0)
(1.6602711 0 0)
(1.6434918 0 0)
(1.6247809 0 0)
(1.6043559 0 0)
(1.5824904 0 0)
(1.5596172 0 0)
(1.5361424 0 0)
(1.5119689 0 0)
(1.4884405 0 0)
(1.4671781 0 0)
(1.4489856 0 0)
(1.4348699 0 0)
(1.4261309 0 0)
(1.2925968 0 0)
(1.2510251 0 0)
(1.2072775 0 0)
(1.1612799 0 0)
(1.1128082 0 0)
(1.0615812 0 0)
(1.0072427 0 0)
(0.94944829 0 0)
(0.88775659 0 0)
(0.8217566 0 0)
(0.75097957 0 0)
(0.67295153 0 0)
(0.58746103 0 0)
(0.49615982 0 0)
(0.39857227 0 0)
(0.29419732 0 0)
(0.18250415 0 0)
(0.062989323 0 0)
(1.3321824 0 0)
(1.3700748 0 0)
(1.4063935 0 0)
(1.4412587 0 0)
(1.4747594 0 0)
(1.506949 0 0)
(1.5378689 0 0)
(1.5675591 0 0)
(1.596091 0 0)
(1.6200078 0 0)
(1.6390141 0 0)
(1.6562197 0 0)
(1.67158 0 0)
(1.6850555 0 0)
(1.6965918 0 0)
(1.7061325 0 0)
(1.7136195 0 0)
(1.7189959 0 0)
(1.7222006 0 0)
(1.7231538 0 0)
(1.721786 0 0)
(1.7180419 0 0)
(1.7118961 0 0)
(1.7033443 0 0)
(1.692422 0 0)
(1.6791865 0 0)
(1.6637586 0 0)
(1.6462847 0 0)
(1.6269483 0 0)
(1.605966 0 0)
(1.5836023 0 0)
(1.5602923 0 0)
(1.5355177 0 0)
(1.5105759 0 0)
(1.4871609 0 0)
(1.4659308 0 0)
(1.447691 0 0)
(1.4334539 0 0)
(1.4245335 0 0)
(1.3317392 0 0)
(1.292588 0 0)
(1.2514474 0 0)
(1.2082664 0 0)
(1.1628059 0 0)
(1.1148311 0 0)
(1.0640495 0 0)
(1.0100919 0 0)
(0.95260614 0 0)
(0.89113961 0 0)
(0.8253007 0 0)
(0.75248739 0 0)
(0.67246432 0 0)
(0.58699569 0 0)
(0.49570649 0 0)
(0.39815128 0 0)
(0.29383683 0 0)
(0.182247 0 0)
(0.062885198 0 0)
(1.3690435 0 0)
(1.4047865 0 0)
(1.4390942 0 0)
(1.4720658 0 0)
(1.5037616 0 0)
(1.534229 0 0)
(1.5635149 0 0)
(1.591647 0 0)
(1.6186814 0 0)
(1.6411444 0 0)
(1.6587589 0 0)
(1.6746358 0 0)
(1.6887077 0 0)
(1.7009303 0 0)
(1.7112531 0 0)
(1.7196172 0 0)
(1.7259649 0 0)
(1.7302376 0 0)
(1.7323652 0 0)
(1.7322759 0 0)
(1.7298973 0 0)
(1.7251821 0 0)
(1.7181064 0 0)
(1.7086797 0 0)
(1.6969327 0 0)
(1.6829349 0 0)
(1.6667934 0 0)
(1.6486744 0 0)
(1.6287595 0 0)
(1.6072601 0 0)
(1.5844383 0 0)
(1.5596201 0 0)
(1.5338883 0 0)
(1.5090905 0 0)
(1.4857483 0 0)
(1.4645161 0 0)
(1.4462004 0 0)
(1.4318218 0 0)
(1.4227088 0 0)
(1.3686014 0 0)
(1.3317305 0 0)
(1.2930125 0 0)
(1.2524488 0 0)
(1.2098183 0 0)
(1.1648713 0 0)
(1.1173654 0 0)
(1.0669961 0 0)
(1.0133839 0 0)
(0.9561649 0 0)
(0.89490828 0 0)
(0.82690814 0 0)
(0.75193705 0 0)
(0.67192657 0 0)
(0.58645835 0 0)
(0.49518391 0 0)
(0.39766765 0 0)
(0.29342447 0 0)
(0.18195305 0 0)
(0.062766361 0 0)
(1.4037583 0 0)
(1.4374949 0 0)
(1.4699173 0 0)
(1.5010931 0 0)
(1.5310789 0 0)
(1.5599274 0 0)
(1.5876698 0 0)
(1.6143153 0 0)
(1.6399065 0 0)
(1.6609827 0 0)
(1.6772932 0 0)
(1.6918995 0 0)
(1.7047352 0 0)
(1.7157618 0 0)
(1.7249272 0 0)
(1.7321709 0 0)
(1.7374299 0 0)
(1.7406476 0 0)
(1.7417543 0 0)
(1.7406634 0 0)
(1.7373171 0 0)
(1.7316732 0 0)
(1.7237197 0 0)
(1.7134617 0 0)
(1.7009426 0 0)
(1.6862158 0 0)
(1.669411 0 0)
(1.6506939 0 0)
(1.6302425 0 0)
(1.6082653 0 0)
(1.5837315 0 0)
(1.5577626 0 0)
(1.5321999 0 0)
(1.5075039 0 0)
(1.4841981 0 0)
(1.4629316 0 0)
(1.4445124 0 0)
(1.429971 0 0)
(1.4206555 0 0)
(1.4033189 0 0)
(1.3685929 0 0)
(1.3321566 0 0)
(1.2940218 0 0)
(1.2540189 0 0)
(1.2119185 0 0)
(1.1674618 0 0)
(1.1203945 0 0)
(1.0704015 0 0)
(1.0170918 0 0)
(0.96012887 0 0)
(0.89659984 0 0)
(0.82629439 0 0)
(0.75132806 0 0)
(0.67130428 0 0)
(0.58583853 0 0)
(0.49458343 0 0)
(0.39711318 0 0)
(0.2929523 0 0)