/*--------------------------------*- C++ -*----------------------------------*\
| =========                 |                                                 |
| \\      /  F ield         | OpenFOAM: The Open Source CFD Toolbox           |
|  \\    /   O peration     | Version:  v2012                                 |
|   \\  /    A nd           | Website:  www.openfoam.com                      |
|    \\/     M anipulation  |                                                 |
\*---------------------------------------------------------------------------*/
FoamFile
{
    version     2.0;
    format      ascii;
    class       volScalarField;
    location    "101.881115955756229";
    object      p;
}
// * * * * * * * * * * * * * * * * * * * * * * * * * * * * * * * * * * * * * //

dimensions      [0 2 -2 0 0 0 0];


internalField   nonuniform List<scalar> 
9200
(
0.0018294147
0.0019822466
0.0043939308
0.0021864347
0.0047301436
0.0075884636
0.0025217237
0.0052073051
0.0081354866
0.010254349
0.0029717479
0.0059874957
0.0089772587
0.010931113
0.012520435
0.0035236985
0.0070623863
0.01030442
0.012031645
0.013260373
0.014329732
0.0042107487
0.0084382795
0.012127313
0.013732071
0.014526354
0.015072852
0.015741044
0.0049965416
0.010195904
0.014459864
0.016071899
0.016444662
0.016402776
0.016438218
0.016796807
0.0058864712
0.01232722
0.017408603
0.01906576
0.019088474
0.018383801
0.017722393
0.017398263
0.017543819
0.0068294845
0.0148871
0.020981278
0.022836092
0.022458397
0.021121646
0.019625269
0.018553487
0.018009699
0.018088292
0.0077760384
0.017861941
0.025252507
0.027405105
0.026678205
0.024597639
0.022272797
0.02025639
0.018983129
0.018371808
0.018529973
0.0086351633
0.021239798
0.030225813
0.0328656
0.031761652
0.028928904
0.025627132
0.022662583
0.020379944
0.019103308
0.018557531
0.018894549
0.0092917888
0.024952456
0.035899695
0.039250058
0.037791627
0.034106518
0.029794415
0.025717216
0.022425696
0.020109415
0.019003855
0.018655664
0.019247757
0.0096045956
0.028878593
0.042204242
0.0466004
0.044790824
0.04018606
0.034738433
0.029518558
0.025041421
0.021692133
0.019548017
0.018770066
0.018741147
0.019658464
0.0094245873
0.032815656
0.048994843
0.05491717
0.05279526
0.047156393
0.040478699
0.034010783
0.028335908
0.023759342
0.020580097
0.018795235
0.018485962
0.018889537
0.020206634
0.0086252466
0.036456216
0.056005573
0.064166846
0.061809854
0.055016781
0.046958003
0.039179489
0.032244002
0.02644312
0.02200511
0.019197649
0.017945181
0.018231335
0.019160724
0.020926348
0.0072008722
0.039387015
0.062805569
0.074256576
0.071821856
0.063736393
0.054122377
0.044924697
0.036735015
0.029685809
0.023987978
0.019893238
0.017646711
0.017087362
0.018077101
0.019616273
0.021768056
0.0053995388
0.040995273
0.068750708
0.085019846
0.082784313
0.073271071
0.061886034
0.051137611
0.041684343
0.033466968
0.026498322
0.021081388
0.017526486
0.016025935
0.016306768
0.018087551
0.020303149
0.022820269
0.0032538649
0.040371134
0.07281759
0.096190262
0.094607254
0.083551223
0.07015509
0.057667325
0.046947247
0.037665984
0.029549601
0.022776739
0.017815283
0.015005897
0.014432576
0.015682831
0.01832351
0.021230529
0.024356037
-0.0020050338
0.036671141
0.073585277
0.10734086
0.10712829
0.094469078
0.078826176
0.064348411
0.052321689
0.042135807
0.033057767
0.025042411
0.018581202
0.014281227
0.012437195
0.0129633
0.015287093
0.018835386
0.022414823
0.026143841
-0.012664749
0.027400582
0.069971321
0.11796302
0.12009943
0.10585414
0.087777897
0.071011665
0.057573642
0.046666082
0.036911515
0.027858791
0.019944419
0.013971777
0.010583586
0.009932407
0.011712235
0.015182644
0.019659216
0.023892214
0.028014911
-0.02838843
0.0090626505
0.062219213
0.12744988
0.13315998
0.11747548
0.096882239
0.077489487
0.06245359
0.051008098
0.040939497
0.031183112
0.02196515
0.014252325
0.0090336371
0.0068453791
0.0076088263
0.010766806
0.015425635
0.0208229
0.025690586
0.030212282
-0.039389425
-0.017463405
0.050997465
0.13482954
0.145583
0.12896166
0.10598432
0.083658514
0.06669862
0.054890554
0.044932836
0.034922463
0.024688682
0.0152641
0.0080043738
0.0038895201
0.003207683
0.005584831
0.010203203
0.016059787
0.022312144
0.027776012
0.032702012
-0.046355784
-0.044451446
0.038435409
0.13926624
0.1560598
0.13965625
0.11476275
0.089339847
0.070012928
0.058018405
0.048655771
0.038949136
0.028124887
0.017143068
0.0077071671
0.0013031962
-0.0012989784
-0.00017556764
0.003971894
0.010086053
0.017105825
0.024149298
0.030159849
0.035413365
-0.049977831
-0.068595992
0.020239133
0.14047454
0.16320744
0.14839863
0.12292445
0.094090705
0.072040616
0.060021556
0.051842247
0.043103399
0.032254868
0.020006033
0.0083573305
-0.00065233728
-0.0056792111
-0.0063384895
-0.0031467181
0.0028673661
0.010468743
0.018574702
0.026324431
0.03281499
0.038338623
-0.049886363
-0.089897279
-0.0032097108
0.13881491
0.1660499
0.15388182
0.12989042
0.098027542
0.073106164
0.060661551
0.054223879
0.047190357
0.037031216
0.023946066
0.010167059
-0.0017039071
-0.0096497988
-0.012709914
-0.0110147
-0.0055578834
0.0023547242
0.011379441
0.020467076
0.028821918
0.035716279
0.041451685
-0.045856512
-0.10815687
-0.023760001
0.1337602
0.16385335
0.15507334
0.13490111
0.10093168
0.072268187
0.05982649
0.055633997
0.051012659
0.042378512
0.029030269
0.013327242
-0.0015647374
-0.012908696
-0.019018671
-0.019511044
-0.015107958
-0.0072811152
0.0024978429
0.012824994
0.022770473
0.031617069
0.038834766
0.044724436
-0.038182543
-0.1220646
-0.035486799
0.12385617
0.15621745
0.15135219
0.13714408
0.10257953
0.069181798
0.056860898
0.055129372
0.054267778
0.048196366
0.035294066
0.018000823
3.3024626e-05
-0.015122585
-0.024970773
-0.028412345
-0.025778408
-0.018412645
-0.0082093377
0.0033210936
0.014798927
0.025456946
0.034678536
0.042140505
0.048128652
-0.027567034
-0.13133159
-0.039900261
0.10971419
0.14357548
0.14274276
0.13596614
0.10277468
0.063375978
0.051296018
0.05284816
0.056679898
0.054312535
0.042729446
0.024302905
0.003325954
-0.015970531
-0.030221533
-0.037476493
-0.037428267
-0.031206335
-0.020746483
-0.0082922765
0.0048344639
0.01728017
0.028489396
0.037971225
0.045602802
0.051638008
-0.015167871
-0.13650332
-0.038472678
0.093285701
0.1269058
0.12957039
0.13118383
0.10148885
0.054232141
0.042533932
0.048330806
0.057817777
0.060555809
0.051280776
0.032284003
0.0084842977
-0.015160758
-0.034426321
-0.046394159
-0.04991452
-0.045633947
-0.035520899
-0.021931081
-0.0075848591
0.0070497378
0.020224633
0.031824949
0.041458181
0.049189436
0.055226443
-0.0012496353
-0.13803608
-0.032556638
0.075556539
0.107062
0.11245858
0.12274661
0.097701111
0.04104484
0.029675438
0.041483129
0.057225936
0.066679881
0.060804038
0.041912642
0.015585419
-0.012478498
-0.037256566
-0.054837668
-0.063024367
-0.061701994
-0.052608771
-0.038488819
-0.02181596
-0.0056711444
0.0098923752
0.023577964
0.035417062
0.045102058
0.052869969
0.058869246
0.013306954
-0.13483015
-0.02394959
0.057496724
0.08545293
0.092171696
0.11097332
0.091146409
0.023860359
0.011757108
0.030801721
0.054278883
0.072184125
0.071079156
0.053052871
0.024583536
-0.0078232736
-0.038454663
-0.062470368
-0.076508614
-0.079368561
-0.07222411
-0.057980613
-0.039918143
-0.020849138
-0.0029913564
0.013292252
0.027280024
0.039217995
0.048866525
0.056615861
0.062543595
0.027290654
-0.1270481
-0.01426932
0.039692017
0.06400075
0.070212131
0.09626522
0.082881868
0.0036678788
-0.010925421
0.015494177
0.047881381
0.076572587
0.082094009
0.065452484
0.035286245
-0.0012499218
-0.037880019
-0.068998513
-0.090075861
-0.09854781
-0.094585748
-0.08089392
-0.061431005
-0.039767698
-0.018622813
0.00043737736
0.017171897
0.031267896
0.043180859
0.052717257
0.060400956
0.066228812
0.039925985
-0.1156446
-0.0035475628
0.020186567
0.043741156
0.047694864
0.079005077
0.073978795
-0.018121706
-0.037530131
-0.0049814115
0.036927959
0.079027672
0.092755124
0.078717414
0.047336476
0.0070033614
-0.03555706
-0.074220865
-0.10342874
-0.11909418
-0.11987102
-0.10781221
-0.087182741
-0.062764484
-0.038019507
-0.015256006
0.0045321421
0.021447887
0.035478933
0.047261189
0.056622691
0.064201737
0.069906496
0.050869237
-0.10210252
0.0065131943
0.0024719607
0.020212184
0.026525798
0.059115257
0.064579441
-0.040962627
-0.069192206
-0.03142868
0.020990723
0.078715583
0.10272352
0.092190043
0.06020187
0.016501377
-0.03170703
-0.078078487
-0.1163031
-0.14079827
-0.14822997
-0.13926938
-0.1182214
-0.090620393
-0.062022429
-0.034705608
-0.010905813
0.0091846736
0.026034807
0.039853249
0.051418087
0.060554449
0.067997466
0.073560542
0.059905414
-0.088442969
0.014686714
-0.01343905
-0.00064283657
0.0028633204
0.037753927
0.052935663
-0.065744498
-0.10444639
-0.065236151
-0.0010459641
0.074375674
0.11101971
0.10532217
0.07316533
0.026617968
-0.02676214
-0.080694416
-0.12851612
-0.16340138
-0.17970964
-0.17591576
-0.15549054
-0.12504135
-0.09091238
-0.058784086
-0.030010363
-0.0057454912
0.014276653
0.030849655
0.044335591
0.055614942
0.064487574
0.071770142
0.07717708
0.067096471
-0.075418238
0.02112184
-0.026008512
-0.02106987
-0.020111857
0.014500782
0.039152394
-0.08666682
-0.13963092
-0.10362034
-0.027749578
0.06461163
0.11603324
0.11675287
0.085363958
0.036563641
-0.021344654
-0.082387417
-0.14001238
-0.18663022
-0.21426334
-0.21827896
-0.20041001
-0.16724869
-0.12783994
-0.088603503
-0.053658686
-0.024156815
4.8208439e-05
0.019690066
0.035815319
0.048876621
0.059819799
0.068400533
0.075504423
0.080744346
0.071710028
-0.063019178
0.02628665
-0.035196043
-0.039296789
-0.04320244
-0.007102773
0.027443691
-0.10496371
-0.17236518
-0.14261661
-0.056535598
0.04972276
0.11652947
0.12508428
0.095694414
0.045423399
-0.016217443
-0.083631813
-0.15085557
-0.2101645
-0.25171889
-0.26682312
-0.25427614
-0.21969828
-0.17330205
-0.12696077
-0.083183644
-0.04688476
-0.017395462
0.006300898
0.025314312
0.040862966
0.05343356
0.064005411
0.072275111
0.079187417
0.084252536
0.073347953
-0.051583145
0.029752285
-0.041282985
-0.055108639
-0.064104297
-0.027025535
0.016263231
-0.11872845
-0.20434151
-0.1810029
-0.086177066
0.030371175
0.11225801
0.1291434
0.10293924
0.052208677
-0.0122162
-0.085025218
-0.16120943
-0.23368467
-0.29160984
-0.32183745
-0.31847256
-0.28475925
-0.23163967
-0.17279714
-0.12068985
-0.07527613
-0.038800695
-0.0099788192
0.012849602
0.031050664
0.045933312
0.057970358
0.068149061
0.076096165
0.082808524
0.087693633
0.072156081
-0.04111649
0.03173874
-0.044897907
-0.067240742
-0.081605938
-0.043916407
0.0020680333
-0.13279236
-0.22904352
-0.21818855
-0.11690674
0.0070319005
0.10295463
0.12869836
0.10586163
0.055960783
-0.010172324
-0.087210229
-0.17135523
-0.25692482
-0.33343127
-0.38336941
-0.39447069
-0.36539059
-0.30598127
-0.23501316
-0.1678065
-0.11121309
-0.065420826
-0.029771999
-0.0021464643
0.019549397
0.036814639
0.050977023
0.062457455
0.072232226
0.079851394
0.086359198
0.091061246
-0.031546001
0.068322705
0.03275491
-0.046194723
-0.075457328
-0.095948553
-0.057853257
-0.016331935
-0.14321369
-0.25514671
-0.25018243
-0.14661501
-0.018478597
0.088309414
0.12334693
0.10387854
0.055724101
-0.010817284
-0.090782025
-0.18157128
-0.27964887
-0.37620843
-0.45122971
-0.48352357
-0.46554944
-0.40118146
-0.31527733
-0.23027312
-0.15704851
-0.098951296
-0.054175885
-0.020152938
0.0058876343
0.026277244
0.042536839
0.055954415
0.066871282
0.076240193
0.083531058
0.089832754
0.094350373
0.033507134
-0.022863833
0.062297558
-0.0441728
-0.079689469
-0.10681221
-0.071329901
-0.036285077
-0.15003411
-0.27489201
-0.28695887
-0.17334891
-0.044896623
0.070390496
0.11275762
0.096654647
0.050780406
-0.014738263
-0.096186438
-0.19207905
-0.30151009
-0.41884451
-0.52383788
-0.58598601
-0.58866789
-0.52444861
-0.41947655
-0.31283519
-0.21728042
-0.14179609
-0.084654247
-0.042077437
-0.010262444
0.01394249
0.032933386
0.048162537
0.060834676
0.071193674
0.080161695
0.087127706
0.093224035
0.097557172
-0.038496636
0.034408703
-0.014579832
0.054954957
-0.081421348
-0.11392779
-0.082838748
-0.053719343
-0.15301412
-0.28899825
-0.31802311
-0.20827717
-0.079600002
0.05074217
0.098132089
0.084539714
0.040611555
-0.022328031
-0.10370709
-0.20300044
-0.32200715
-0.46020816
-0.60008081
-0.70310184
-0.73991102
-0.68533748
-0.55857694
-0.41836182
-0.29680927
-0.19772582
-0.12336105
-0.069113324
-0.029607227
-0.00036968881
0.021872936
0.039440771
0.053650525
0.065594981
0.075411292
0.083988452
0.090635703
0.096529112
0.10067879
-0.081442536
-0.030128467
0.035820723
-0.0063094289
0.047068807
-0.11671347
-0.091252488
-0.068331839
-0.14992927
-0.29623518
-0.34340149
-0.24409258
-0.11796272
0.017946585
0.081596414
0.066119784
0.025705332
-0.033944247
-0.11337431
-0.21437621
-0.34064526
-0.49880315
-0.67716883
-0.83538821
-0.92634231
-0.90253129
-0.75007813
-0.56494827
-0.40208972
-0.2715523
-0.17344351
-0.10304427
-0.053055363
-0.017169283
0.0093118057
0.029568968
0.045743213
0.058971624
0.070219464
0.079514876
0.08771449
0.094050764
0.09974513
0.10371343
-0.11502159
-0.079248729
-0.01958401
0.038245405
0.0023198036
0.039158582
-0.095258913
-0.078966523
-0.14022377
-0.29506867
-0.35968799
-0.27777316
-0.15003091
-0.01670731
0.050266221
0.046367395
0.0051208635
-0.049341851
-0.12521247
-0.22598037
-0.35708388
-0.53291713
-0.75088885
-0.97639311
-1.1384343
-1.1752508
-1.0120627
-0.76813939
-0.54733397
-0.36994426
-0.2391894
-0.14641477
-0.081989526
-0.037089037
-0.0050799994
0.018623248
0.036952946
0.051802943
0.064106967
0.074698026
0.083498222
0.091335441
0.09736981
0.10287055
0.10666048
-0.094136879
-0.10904287
-0.07429594
-0.0082519987
0.04176459
0.01136157
0.030963274
-0.083428373
-0.12546516
-0.28418096
-0.36502605
-0.30306235
-0.17453401
-0.056422344
0.020202272
0.015457726
-0.017944772
-0.068862594
-0.13879083
-0.23770161
-0.37094713
-0.56087902
-0.81757229
-1.1137099
-1.3679961
-1.4739318
-1.3239463
-1.0359643
-0.75290619
-0.50558927
-0.32598874
-0.20272914
-0.11837933
-0.061127443
-0.021684327
0.0064301503
0.027456197
0.043975497
0.057597675
0.069045986
0.079024778
0.087357225
0.09484847
0.1005915
0.10590529
0.10952002
-0.081099775
-0.088022658
-0.098706286
-0.066864682
0.002549015
0.045797587
0.020471352
0.024065161
-0.1077736
-0.26329316
-0.35799201
-0.31582287
-0.19437852
-0.097105244
-0.018548037
-0.014988219
-0.04752088
-0.090110474
-0.15451767
-0.24882017
-0.38234966
-0.58038562
-0.87372659
-1.2366477
-1.60313
-1.7928248
-1.6987769
-1.3784378
-1.0328075
-0.70600226
-0.445865
-0.27601316
-0.16490653
-0.090729564
-0.041157612
-0.0071756545
0.017208838
0.035745622
0.050610685
0.06311727
0.07378412
0.083196825
0.091089849
0.098253036
0.10371654
0.10884976
0.11229151
-0.087501856
-0.073291057
-0.076922186
-0.084680974
-0.057275148
0.013343635
0.050337903
0.030030494
0.018708896
-0.23330347
-0.33807108
-0.31577526
-0.20941208
-0.1383888
-0.061368002
-0.057917609
-0.074581394
-0.11456597
-0.17002401
-0.26011369
-0.3905313
-0.5916524
-0.91018472
-1.334517
-1.8246423
-2.1415578
-2.1166863
-1.7658803
-1.3644225
-0.97369685
-0.62454554
-0.37742093
-0.2244827
-0.12782416
-0.06448856
-0.022561025
0.0062234685
0.027170436
0.043462027
0.056850439
0.068360332
0.078321288
0.087214251
0.094697026
0.10155113
0.10674609
0.11170288
0.1149732
-0.19615487
-0.064540277
-0.061488754
-0.061471774
-0.067479544
-0.04550918
0.02364655
0.055011585
0.04015765
0.012544662
-0.30607479
-0.30333716
-0.21570273
-0.1757357
-0.10775448
-0.1102676
-0.11574007
-0.13309402
-0.18466664
-0.26847124
-0.39704347
-0.59508272
-0.9266165
-1.4012237
-2.0153213
-2.4900963
-2.5841707
-2.2289446
-1.7133714
-1.2366655
-0.84239563
-0.52676921
-0.30672377
-0.17443445
-0.092970831
-0.040329086
-0.005631532
0.018401253
0.036282842
0.050602301
0.062699598
0.073332334
0.082661868
0.091080805
0.098182536
0.10474473
0.10967825
0.11446201
0.11756512
-0.26438111
-0.15340572
-0.040326753
-0.046718814
-0.042810306
-0.048646672
-0.03202685
0.032749744
0.059266636
0.050025997
0.0068483645
-0.27987714
-0.21114856
-0.20378229
-0.15605291
-0.17110252
-0.17111438
-0.16378975
-0.18959725
-0.27313592
-0.39692275
-0.59366118
-0.92826188
-1.4410413
-2.1557729
-2.811826
-3.073925
-2.7791991
-2.1673931
-1.5380764
-1.0519737
-0.69995941
-0.42620388
-0.23830556
-0.12799087
-0.06127675
-0.018642902
0.0094884498
0.029325941
0.044552939
0.05718242
0.068173524
0.078045482
0.086814512
0.094802642
0.10154937
0.10783143
0.11250795
0.11712819
0.12007425
-0.24569646
-0.21612856
-0.10840013
-0.015798721
-0.030091303
-0.02294471
-0.028858683
-0.017676898
0.040582811
0.063771646
0.059498754
0.002211331
-0.1988763
-0.22065073
-0.20548231
-0.24027874
-0.23861302
-0.20966176
-0.20337422
-0.26170159
-0.39119966
-0.58129694
-0.91603525
-1.4584891
-2.2286757
-3.0715155
-3.5426989
-3.4056524
-2.752293
-1.9577892
-1.2914557
-0.85751853
-0.55935757
-0.33013416
-0.17544506
-0.086406527
-0.033240209
0.00038981398
0.022773976
0.039022662
0.052015405
0.063234332
0.073297724
0.082516642
0.090788672
0.098383784
0.10479527
0.11080554
0.11523602
0.11971228
0.12262726
-0.18267022
-0.2039384
-0.16617799
-0.065523666
0.0083768831
-0.01236218
-0.0034495767
-0.0085215866
-0.0030074713
0.048130705
0.06826302
0.067877932
-0.0020487618
-0.2198507
-0.25136993
-0.31476546
-0.31619125
-0.26808974
-0.22850181
-0.2578406
-0.35978209
-0.55882511
-0.88448146
-1.4475112
-2.2333473
-3.2402281
-3.9318607
-3.9982856
-3.411073
-2.5037947
-1.6280541
-1.0328941
-0.67384188
-0.4306391
-0.24282131
-0.11979269
-0.050124551
-0.0090578962
0.016761245
0.0342821
0.047556296
0.058728769
0.068805004
0.078102276
0.086759896
0.094589486
0.10182401
0.10791587
0.11367016
0.11788042
0.12233483
0.12525824
-0.20144466
-0.15965739
-0.16055967
-0.11652234
-0.026505169
0.031805027
0.0056918418
0.015380146
0.011753799
0.011369726
0.055978898
0.07219801
0.075209417
-0.0060776847
-0.28922092
-0.38831536
-0.40088513
-0.33538702
-0.26209039
-0.26272617
-0.33664099
-0.49858751
-0.824725
-1.4030123
-2.1972562
-3.2997846
-4.1946325
-4.48962
-4.0420715
-3.0930258
-2.0629731
-1.2763683
-0.79470112
-0.51278333
-0.31668472
-0.16633275
-0.071617619
-0.019237226
0.011316722
0.030585764
0.044125694
0.055026409
0.064773235
0.073945152
0.082608053
0.090781679
0.098221784
0.10512625
0.1109182
0.11644799
0.12056638
0.12501394
0.12790221
-0.3167128
-0.17621896
-0.12908579
-0.11534939
-0.069116824
0.0086925146
0.054140501
0.023158952
0.033170241
0.031164452
0.025378759
0.063003737
0.075958357
0.082083517
-0.009745541
-0.45339002
-0.48874407
-0.40846006
-0.30444784
-0.27180872
-0.32269779
-0.44930957
-0.71505785
-1.2743499
-2.1321974
-3.247899
-4.3162877
-4.8268202
-4.5653424
-3.6744986
-2.55038
-1.5917871
-0.95723731
-0.59288477
-0.37638117
-0.22018771
-0.10172683
-0.031180932
0.0063070128
0.028101632
0.042051723
0.052466211
0.061563153
0.070230868
0.078685757
0.086823301
0.094596961
0.10170465
0.10830556
0.11382728
0.11926646
0.12329374
0.12771384
0.13055534
-0.50406755
-0.3352695
-0.15298808
-0.094235413
-0.070327012
-0.02514239
0.040712838
0.074487335
0.039779421
0.049165133
0.048967295
0.037495941
0.070021319
0.07991248
0.088455562
-0.012956632
-0.57026987
-0.48408322
-0.35114638
-0.28241925
-0.31132698
-0.41255578
-0.62268548
-1.0804594
-1.9168953
-3.132936
-4.2902032
-4.9864021
-4.9224434
-4.1614502
-3.0314871
-1.9528806
-1.1686553
-0.69506143
-0.42905503
-0.26290427
-0.14223219
-0.04818739
0.0012445033
0.026859014
0.041595099
0.051410441
0.059506751
0.06729498
0.075147863
0.083038039
0.09078063
0.098255151
0.10506695
0.11137764
0.11677353
0.12210962
0.12605343
0.13042706
0.13321664
-0.63505575
-0.53649337
-0.34052649
-0.13402235
-0.060163771
-0.028478655
0.012984346
0.068212139
0.091384155
0.055295649
0.063331436
0.06210629
0.049837285
0.076935946
0.084069956
0.094044195
-0.015520045
-0.55499412
-0.39532841
-0.29424045
-0.30066473
-0.37891011
-0.550184
-0.91268436
-1.6348941
-2.7827617
-4.1588968
-4.9682706
-5.0826275
-4.4894844
-3.4372939
-2.3158025
-1.4141298
-0.82833886
-0.49240315
-0.29699441
-0.16987652
-0.074680901
-0.0062591125
0.026616812
0.042890462
0.052169027
0.058967921
0.065442553
0.072291099
0.079540647
0.087063096
0.09457999
0.10180722
0.1082988
0.11445459
0.11974378
0.1249915
0.12883269
0.13315323
0.13588418
-0.60908794
-0.67598774
-0.54698737
-0.33216585
-0.11581873
-0.030895914
0.0073101804
0.04479259
0.090111064
0.1048014
0.069304304
0.073206697
0.073434534
0.061627835
0.083779319
0.088299555
0.098539701
-0.017352317
-0.43441328
-0.30596068
-0.29121225
-0.34515847
-0.48608495
-0.77328048
-1.3716273
-2.3812698
-3.7353437
-4.8136299
-5.0806552
-4.6429049
-3.7147312
-2.6322318
-1.6684139
-0.98571314
-0.57490576
-0.33758528
-0.19030259
-0.093915545
-0.018694724
0.025722549
0.045882954
0.054942991
0.060269613
0.065013277
0.070377079
0.07657708
0.083513723
0.090939516
0.09830626
0.10519003
0.11147102
0.11757515
0.12275823
0.12789439
0.13163131
0.13588963
0.13855622
-0.46375707
-0.63909831
-0.68758032
-0.53808249
-0.31396695
-0.098134925
-0.0054969933
0.036839945
0.070709842
0.10670884
0.11468684
0.08045057
0.081866178
0.082681569
0.073069563
0.090197694
0.092423258
0.10194552
-0.01824775
-0.31724855
-0.28354262
-0.31216795
-0.42456478
-0.65353147
-1.1295479
-1.9952104
-3.2632421
-4.4169725
-4.9443649
-4.6712431
-3.8613647
-2.8616412
-1.9016705
-1.1525107
-0.67516576
-0.38965352
-0.21762803
-0.10656339
-0.031290131
0.022313397
0.049614839
0.059794849
0.063646708
0.06631399
0.069700349
0.074351358
0.08032084
0.087361607
0.094801729
0.10180473
0.10838531
0.11475133
0.12074063
0.12579584
0.13081943
0.13444481
0.1386341
0.14123088
-0.32816709
-0.478288
-0.64101607
-0.67152143
-0.51215174
-0.2884045
-0.081181945
0.015739107
0.059955728
0.090183911
0.11802969
0.12174913
0.088896113
0.089108099
0.09010962
0.083256394
0.096085112
0.096273729
0.10424974
-0.018122336
-0.27159449
-0.27994534
-0.3654819
-0.54579101
-0.91894282
-1.6197575
-2.7591486
-3.9759153
-4.6382709
-4.5905614
-3.9251257
-3.0033501
-2.0940043
-1.3145332
-0.78505384
-0.45679524
-0.2519057
-0.12325053
-0.039534845
0.017762825
0.052369538
0.066165744
0.069211327
0.069581466
0.070527386
0.073095567
0.077622445
0.083980421
0.091288883
0.098350269
0.1049077
0.11181905
0.11806808
0.12393279
0.12885803
0.13376128
0.13726983
0.14138427
0.14390619
-0.2513379
-0.33254725
-0.47338364
-0.61757332
-0.63144849
-0.47323467
-0.258332
-0.065228776
0.032314984
0.076011847
0.10307599
0.1270184
0.12496284
0.096327938
0.095246642
0.095939619
0.091635988
0.10129005
0.099654429
0.10540595
-0.01696396
-0.24601201
-0.30757645
-0.44763108
-0.73887035
-1.2881385
-2.2456535
-3.4278176
-4.2992227
-4.3863701
-3.9063632
-3.0801993
-2.2349781
-1.4654587
-0.90187083
-0.53364034
-0.2999212
-0.14677222
-0.048205215
0.014480631
0.053968874
0.072735013
0.076634928
0.074938727
0.073067472
0.073015327
0.075577178
0.080870534
0.087856668
0.094782486
0.10118151
0.10848286
0.11526813
0.12141781
0.12715156
0.13193842
0.13671645
0.14010269
0.14413801
0.14658028
-0.20827427
-0.22423207
-0.32143333
-0.4480154
-0.57286393
-0.57332277
-0.42554427
-0.2274154
-0.050830928
0.044153038
0.086447109
0.1142621
0.13092734
0.12735929
0.10305396
0.10021841
0.10092389
0.098370615
0.10568312
0.1023862
0.10541057
-0.014829742
-0.25027231
-0.35826651
-0.58197272
-1.0107605
-1.7755582
-2.8396269
-3.8070315
-4.192739
-3.820845
-3.0915417
-2.3232835
-1.5931146
-1.0241516
-0.6216371
-0.35889483
-0.18245011
-0.06469224
0.010706893
0.056042669
0.079215987
0.085114359
0.082200986
0.07742815
0.074267802
0.074315424
0.078117037
0.084524739
0.091136627
0.097096057
0.10486468
0.11203004
0.11876433
0.12479532
0.13039016
0.13503309
0.1396811
0.14293962
0.14689328
0.14925158
-0.19354676
-0.16623896
-0.19076539
-0.28866783
-0.40457019
-0.51110687
-0.50368666
-0.37363697
-0.19900268
-0.037793635
0.05285149
0.096839951
0.12056461
0.13404106
0.1281975
0.10874819
0.10446086
0.10499077
0.10367211
0.10915579
0.10431037
0.10428207
-0.011879867
-0.27556931
-0.44540735
-0.77438758
-1.3697108
-2.2695743
-3.2153168
-3.8218518
-3.7762993
-3.121746
-2.3540579
-1.6844395
-1.1360798
-0.72351044
-0.4303618
-0.23086608
-0.091927541
-0.00037477408
0.055044264
0.085576071
0.094022102
0.090862485
0.083502227
0.07692427
0.0739241
0.075770536
0.081310317
0.087369373
0.092600786
0.10084312
0.1084468
0.11564906
0.12229038
0.12819463
0.1336443
0.13813798
0.14265159
0.14577641
0.14964779
0.1519186
-0.19784765
-0.13658436
-0.12137257
-0.1507075
-0.23995044
-0.34696737
-0.43867483
-0.42827242
-0.32126589
-0.1705568
-0.024638413
0.063701241
0.10349792
0.12517458
0.13452604
0.12834315
0.11282903
0.10785841
0.1082706
0.10769784
0.11164291
0.10529769
0.10201394
-0.0084447214
-0.32613174
-0.57388198
-1.0279911
-1.7531499
-2.6199662
-3.3338793
-3.5520481
-3.1951244
-2.4505801
-1.752293
-1.2191826
-0.82478102
-0.5184326
-0.29256787
-0.1326599
-0.021933106
0.047802631
0.086448167
0.10192644
0.10024285
0.090941298
0.080904206
0.074420042
0.07383749
0.078185379
0.083421965
0.087563799
0.096345137
0.10437201
0.1121437
0.11930042
0.12584269
0.13161099
0.13691019
0.14124916
0.14562304
0.14860945
0.1523982
0.15458047
-0.2206157
-0.12420521
-0.080370527
-0.074238866
-0.10578341
-0.18526087
-0.28053689
-0.36179901
-0.35145903
-0.26869967
-0.13956113
-0.0075768068
0.07429083
0.10905095
0.12729078
0.13388627
0.12782173
0.11570862
0.11042835
0.11087138
0.11059057
0.11310071
0.1052521
0.09858103
-0.0049870293
-0.40511095
-0.74486294
-1.3072919
-2.0529821
-2.7808106
-3.1917249
-3.1121055
-2.5806614
-1.9248192
-1.2991948
-0.90411231
-0.61123097
-0.37131765
-0.18776444
-0.05632321
0.031138255
0.082158485
0.10657703
0.10907823
0.099150838
0.085931831
0.075710192
0.072263577
0.075070376
0.079179621
0.08183191
0.091219984
0.099698256
0.1080831
0.11587769
0.12298605
0.12941539
0.13504151
0.14018416
0.14436012
0.14859004
0.15143764
0.15514093
0.15723578
-0.26282656
-0.12571463
-0.055361966
-0.025357421
-0.026035024
-0.058238415
-0.12842475
-0.21129236
-0.28459298
-0.27849988
-0.21161555
-0.11324738
0.01591074
0.083383229
0.11289458
0.12806372
0.1325227
0.12703341
0.11771185
0.11245457
0.11286251
0.11244681
0.11351234
0.1041269
0.094085031
-0.0013334565
-0.51326618
-0.93773426
-1.5443663
-2.2228317
-2.7409176
-2.88741
-2.6134645
-2.0837824
-1.5113947
-0.98953997
-0.68887271
-0.45815526
-0.26008986
-0.10575688
0.0019914389
0.069800076
0.105537
0.11534798
0.10709294
0.091512871
0.077546346
0.070910065
0.071823739
0.074468104
0.075197367
0.085291435
0.09424014
0.10333585
0.11183867
0.11966042
0.12669828
0.13300694
0.1384832
0.14345779
0.14746397
0.15155137
0.15425848
0.15787276
0.1598833
-0.32504143
-0.14066271
-0.041152009
0.0088078394
0.027576693
0.021539033
-0.010316159
-0.072042498
-0.14574627
-0.21025093
-0.20468957
-0.16572052
-0.083197825
0.035207483
0.090448729
0.11570554
0.12798127
0.13092663
0.12605799
0.1189107
0.11432281
0.11425349
0.11335689
0.11289054
0.10193992
0.088764454
0.0030148396
-0.63966271
-1.1120047
-1.7022714
-2.2508027
-2.5611057
-2.5185278
-2.1815314
-1.6833063
-1.211301
-0.77758388
-0.53521875
-0.34272731
-0.17303538
-0.041793522
0.044930476
0.09566421
0.11621484
0.1130277
0.096836315
0.079518833
0.069518424
0.068228105
0.069048225
0.067400947
0.078327392
0.087783811
0.097692341
0.10703011
0.11566674
0.12348081
0.13043776
0.13661516
0.1419253
0.14672101
0.15056378
0.1545013
0.15706865
0.16059076
0.16252214
-0.40338618
-0.16974004
-0.036481892
0.034413922
0.068051026
0.077419358
0.066856942
0.035820383
-0.019138118
-0.087405535
-0.14142305
-0.15027952
-0.11629214
-0.053203792
0.049798649
0.096274463
0.11767975
0.12748433
0.12927418
0.12505339
0.11918269
0.11587749
0.11506445
0.11338482
0.1112627
0.098737821
0.082455384
0.0083954973
-0.75880643
-1.2486788
-1.7681926
-2.1709276
-2.3194651
-2.175589
-1.8350857
-1.3936418
-0.99309462
-0.62538937
-0.41928337
-0.25250263
-0.10395298
0.0062798557
0.074386289
0.10923342
0.11474304
0.1005509
0.080980974
0.067716259
0.063970823
0.062607173
0.05813622
0.070040363
0.080058782
0.090912609
0.10122017
0.11083411
0.11955076
0.12734248
0.13420361
0.14022593
0.14535441
0.14998194
0.15365302
0.157436
0.15986344
0.16329214
0.16515128
-0.49359936
-0.21289808
-0.042346817
0.053061241
0.10172804
0.12198061
0.12328872
0.10898282
0.078362113
0.029282708
-0.037584073
-0.092808225
-0.096625486
-0.073714438
-0.018214687
0.061859835
0.10121699
0.11911645
0.12681092
0.12774602
0.12405663
0.11896477
0.11679417
0.11518515
0.11256931
0.10867501
0.094600506
0.075283122
0.013126328
-0.87311805
-1.3335641
-1.7642111
-2.0413673
-2.0824951
-1.9043848
-1.5717077
-1.1785318
-0.83247149
-0.50963072
-0.32840911
-0.18044503
-0.050107857
0.039963147
0.091260819
0.10966241
0.10092239
0.08088658
0.064952549
0.058661877
0.054752942
0.04704789
0.060094439
0.070740274
0.082699359
0.094145468
0.10491342
0.11472269
0.12349841
0.13124593
0.13797748
0.14382076
0.14878753
0.15323092
0.15672816
0.16034935
0.1626379
0.16597461
0.16776836
-0.57322353
-0.26966718
-0.061168758
0.063031513
0.12993676
0.16112994
0.17037501
0.16499716
0.14707669
0.11735213
0.071278048
0.0013226116
-0.048969679
-0.05201624
-0.034145174
0.013238912
0.073237309
0.1054943
0.12024504
0.12614638
0.12641746
0.12310328
0.11849344
0.11689374
0.114597
0.11098133
0.10520327
0.089582744
0.069750849
0.016360886
-0.96276228
-1.3796915
-1.7265397
-1.9110321
-1.893651
-1.6939144
-1.3767974
-1.0167789
-0.70967903
-0.41787002
-0.25553252
-0.12297651
-0.010632888
0.060304425
0.094586044
0.095732596
0.07791429
0.060404005
0.051782694
0.045045104
0.033729107
0.04810785
0.059456775
0.072700808
0.085485324
0.097623553
0.10873407
0.11870861
0.12751166
0.13516722
0.14173498
0.14742879
0.15221077
0.1564656
0.15978009
0.16323351
0.16539075
0.16863613
0.17036977
-0.65806367
-0.3331287
-0.095690234
0.060124358
0.14989743
0.19532123
0.21296439
0.21340407
0.20197445
0.18184267
0.15026984
0.103675
0.036481351
-0.0088673473
-0.012996775
0.0021407584
0.039808809
0.083684281
0.10938637
0.12122887
0.12560072
0.12533173
0.12235077
0.11823543
0.11632539
0.11346387
0.10864422
0.10101349
0.084200394
0.065137724
0.019096925
-1.0380101
-1.4090188
-1.689024
-1.8134621
-1.7583629
-1.5418383
-1.2291798
-0.89208911
-0.61141915
-0.34287188
-0.19698511
-0.078805938
0.014517949