/*--------------------------------*- C++ -*----------------------------------*\
| =========                 |                                                 |
| \\      /  F ield         | OpenFOAM: The Open Source CFD Toolbox           |
|  \\    /   O peration     | Version:  v2012                                 |
|   \\  /    A nd           | Website:  www.openfoam.com                      |
|    \\/     M anipulation  |                                                 |
\*---------------------------------------------------------------------------*/
FoamFile
{
    version     2.0;
    format      ascii;
    class       surfaceScalarField;
    location    "101.881115955756229";
    object      phi;
}
// * * * * * * * * * * * * * * * * * * * * * * * * * * * * * * * * * * * * * //

dimensions      [0 3 -1 0 0 0 0];
oriented        oriented;


internalField   nonuniform List<scalar> 
18180
(
-0.0021600756
-3.5870102
-0.0043969162
-3.3558979
-0.0030194393
-3.592855
-0.0067621928
-3.140591
-0.006190573
-3.360793
-0.0030818996
-3.597936
-0.0093716673
-2.9402114
-0.0096262828
-3.1443946
-0.0063244234
-3.3649743
-0.0029920755
-3.6023779
-0.012285845
-2.7534948
-0.013553723
-2.9427398
-0.009877125
-3.1475383
-0.0061442698
-3.368741
-0.0026492312
-3.6067032
-0.015527598
-2.5797605
-0.018120799
-2.7548585
-0.013990344
-2.9448321
-0.0096215354
-3.150521
-0.0054399275
-3.3724983
-0.0021388158
-3.6110388
-0.01911608
-2.418151
-0.023483642
-2.5800503
-0.018839834
-2.7559276
-0.013681683
-2.9468744
-0.0085331272
-3.1536132
-0.0043940203
-3.3763687
-0.001517646
-3.6155973
-0.023021971
-2.2678533
-0.029789545
-2.4172981
-0.024625847
-2.5799647
-0.018508199
-2.7569281
-0.012164306
-2.9490777
-0.0069036762
-3.1568899
-0.0031250105
-3.3804921
-0.0008569834
-3.6203689
-0.027202036
-2.1279854
-0.037190503
-2.2657281
-0.031542288
-2.4158547
-0.024311672
-2.5797175
-0.016497747
-2.7580651
-0.0098633362
-2.9515303
-0.004926491
-3.1604893
-0.0017759426
-3.3848999
-0.00021947001
-3.6254305
-0.031567949
-1.9978072
-0.045842268
-2.1243868
-0.039808945
-2.2626204
-0.031296679
-2.4140623
-0.02171779
-2.5795646
-0.01340423
-2.759487
-0.0070637195
-2.9543902
-0.002819988
-3.1644788
-0.00047297935
-3.3896355
0.00034021244
-3.6306744
-0.035998905
-1.8766854
-0.055910596
-1.9924755
-0.049665071
-2.1192687
-0.03969208
-2.2589392
-0.027992786
-2.4123679
-0.017667485
-2.5797556
-0.0096350307
-2.7614684
-0.0040734418
-2.957862
-0.0007684305
-3.1689258
0.00069748403
-3.3946509
0.00077767902
-3.6360539
-0.04032878
-1.764114
-0.067567826
-1.869408
-0.061386677
-1.9850784
-0.049747341
-2.113469
-0.035496776
-2.2555692
-0.022766054
-2.4113306
-0.012737829
-2.5808558
-0.0056137444
-2.7643517
-0.0011483675
-2.9619888
0.0010843621
-3.1737748
0.0016733664
-3.3999168
0.0011049561
-3.6414216
-0.044349135
-1.6596279
-0.080993158
-1.7547293
-0.075287353
-1.8594904
-0.06174847
-1.9769839
-0.044401822
-2.1083781
-0.028794362
-2.2533497
-0.01643621
-2.4115959
-0.0075024465
-2.5831435
-0.0016775446
-2.7681165
0.0015126721
-2.9667078
0.0026456591
-3.1789457
0.0024002589
-3.4052848
0.0013116085
-3.6467286
-0.047810137
-1.5627644
-0.096368608
-1.6479796
-0.091726263
-1.741979
-0.076024121
-1.848853
-0.054885768
-1.9700759
-0.03581508
-2.1049733
-0.020757431
-2.2528291
-0.0097777458
-2.4133322
-0.0023941556
-2.5865279
0.0019211927
-2.7726387
0.0037747445
-2.9718968
0.0038355571
-3.1843285
0.0028570695
-3.4106444
0.0013891857
-3.6518172
-0.05044074
-1.4730624
-0.11387846
-1.5486932
-0.11110896
-1.632021
-0.09295712
-1.7284582
-0.067133535
-1.839984
-0.043855835
-1.9654944
-0.025676187
-2.1037359
-0.012432935
-2.2540639
-0.0033345067
-2.4163184
0.0022862286
-2.5908243
0.0050212854
-2.7778206
0.0055488888
-2.9774721
0.0046279499
-3.1898133
0.0030501721
-3.4158613
0.0013458973
-3.6566184
-0.05186333
-1.390204
-0.13367328
-1.4564409
-0.13388567
-1.5290967
-0.11299074
-1.6151954
-0.081342524
-1.7174471
-0.052902548
-1.8342465
-0.031103361
-1.9636159
-0.015406103
-2.1045122
-0.0044954926
-2.2566597
0.0025544057
-2.420298
0.0063582429
-2.595912
0.0075168811
-2.7835558
0.0067962557
-2.9832976
0.005025984
-3.1952772
0.0029969674
-3.420826
0.0011967583
-3.6609956
-0.05179132
-1.3137812
-0.15578604
-1.3710194
-0.16054115
-1.4327389
-0.13663045
-1.5084755
-0.09772524
-1.6018345
-0.062894997
-1.7106038
-0.036875272
-1.8318653
-0.018562393
-1.9640276
-0.0058326861
-2.1067223
0.0026993325
-2.2602544
0.0077171857
-2.425169
0.0097169048
-2.601746
0.0093607061
-2.7897219
0.0075132923
-2.9892396
0.0050504491
-3.2005821
0.002725282
-3.4254214
0.00095816307
-3.6649119
-0.050617545
-1.2422327
-0.18025477
-1.2920141
-0.19158469
-1.3427181
-0.1644569
-1.4077537
-0.11650793
-1.4925411
-0.073721251
-1.5939885
-0.042745413
-1.7079574
-0.02168401
-1.8321158
-0.0072393957
-1.9659535
0.0027071352
-2.1099641
0.0090250104
-2.2648533
0.012068936
-2.4309766
0.012314237
-2.6082112
0.010542954
-2.7961713
0.0077212308
-2.9951419
0.0047362899
-3.2056193
0.002270694
-3.4295725
0.00064291564
-3.6682706
-0.048824957
-1.1728199
-0.20799829
-1.2169814
-0.22760533
-1.2585392
-0.19719309
-1.3126578
-0.13794746
-1.3889932
-0.085211025
-1.4838564
-0.048378351
-1.5914093
-0.024461409
-1.7083664
-0.0085392845
-1.8339542
0.0026022941
-1.9688935
0.01019881
-2.1142194
0.014463428
-2.2705094
0.015577001
-2.4376317
0.01413251
-2.6151673
0.011078329
-2.8027467
0.007458214
-3.0008856
0.0041270841
-3.2102762
0.0016692438
-3.433218
0.00026208768
-3.6710462
-0.045349975
-1.1034143
-0.24049282
-1.1426245
-0.26945951
-1.177491
-0.23558707
-1.2226668
-0.16241543
-1.2907056
-0.097135916
-1.3796958
-0.053348677
-1.48177
-0.026490509
-1.592394
-0.0094766106
-1.7103869
0.0024503587
-1.8366738
0.011157398
-1.9727793
0.01675384
-2.1196427
0.019022477
-2.2772408
0.01821973
-2.4450114
0.015173152
-2.6224485
0.010999085
-2.8093054
0.0067731557
-3.0063375
0.0032704448
-3.2144709
0.00094963127
-3.4363144
-0.00015060536
-3.6731902
-0.04144814
-1.0320075
-0.27714607
-1.0688823
-0.318632
-1.0956473
-0.27972958
-1.1357263
-0.19025352
-1.1971889
-0.10924756
-1.2810447
-0.057140503
-1.3786193
-0.027277733
-1.4838346
-0.009715002
-1.594957
0.0023667204
-1.713045
0.011826273
-1.8401789
0.018764063
-1.9778544
0.022466389
-2.1262923
0.022686492
-2.2849178
0.019977942
-2.4529523
0.015451523
-2.6299023
0.010350729
-2.8156973
0.0057216745
-3.0113922
0.002215614
-3.2181169
0.00014334585
-3.4388177
-0.0005670675
-3.6747379
-0.044702999
-0.95529391
-0.31658725
-0.99452418
-0.37621578
-1.0133381
-0.32887333
-1.0487473
-0.22082536
-1.1073674
-0.12122081
-1.1874937
-0.059161702
-1.2815731
-0.026248976
-1.3823452
-0.0088388086
-1.4873675
0.0025177761
-1.5977309
0.012142776
-1.7161063
0.020291439
-1.8446954
0.025670291
-1.9841853
0.027343148
-2.134061
0.02540715
-2.293396
0.020835084
-2.4612962
0.01499668
-2.6373566
0.0091895127
-2.8217817
0.0043640154
-3.0159374
0.0010114464
-3.2211754
-0.00072199841
-3.4406826
-0.0010085521
-3.6756552
-0.054218972
-0.87672966
-0.35952448
-0.91416506
-0.43902895
-0.93360707
-0.38228038
-0.96204959
-0.25206819
-1.0195795
-0.13212965
-1.0985705
-0.058740328
-1.1903037
-0.022774027
-1.2875959
-0.0063664422
-1.3873314
0.0031169367
-1.4904702
0.012056284
-1.6002863
0.021110682
-1.7198141
0.028343798
-1.8504026
0.031931509
-1.9917713
0.031298522
-2.142883
0.027116596
-2.3025686
0.020785426
-2.4698698
0.013852834
-2.6446421
0.0075811153
-2.8274216
0.00276302
-3.0199023
-0.00029601827
-3.2236028
-0.00161515
-3.441924
-0.0014397138
-3.6759819
-0.067833144
-0.80024442
-0.40348572
-0.83444054
-0.49817274
-0.85678535
-0.43806596
-0.87982257
-0.28241103
-0.93365333
-0.13996124
-1.0137021
-0.05509948
-1.1044448
-0.016155952
-1.1993254
-0.0017635181
-1.29457
0.0044300959
-1.3910238
0.011534809
-1.4924726
0.020979265
-1.6029103
0.030149511
-1.7245202
0.036125572
-1.8574604
0.0374152
-2.0006735
0.034188388
-2.1527307
0.027749443
-2.3122683
0.019842763
-2.478476
0.012080801
-2.651581
0.0055995885
-2.8325011
0.00098224872
-3.0232134
-0.001661999
-3.2253915
-0.0025038049
-3.4425394
-0.0018578563
-3.6757246
-0.085181309
-0.72635604
-0.44636314
-0.75891529
-0.55108713
-0.7831692
-0.49218801
-0.80455357
-0.31205688
-0.85200395
-0.14292294
-0.93249695
-0.047063615
-1.0238225
-0.0057409815
-1.1171244
0.0054214537
-1.2087382
0.0067638632
-1.2991499
0.010553505
-1.3924329
0.019637875
-1.4937216
0.03070988
-1.6061877
0.039538453
-1.7306227
0.04344483
-1.8661077
0.041868836
-2.0109958
0.035855279
-2.1635105
0.027263398
-2.3222947
0.018047048
-2.4868939
0.0097587163
-2.6580092
0.0033254815
-2.8369161
-0.00091005258
-3.0258329
-0.0030457576
-3.2265143
-0.0033702889
-3.4425546
-0.0022556295
-3.6749298
-0.10567659
-0.65649234
-0.48672474
-0.68743011
-0.59776066
-0.71377405
-0.54162188
-0.73552064
-0.34122515
-0.7771016
-0.14116018
-0.85543269
-0.033306136
-0.94819652
0.0090881305
-1.0407826
0.015942241
-1.1297313
0.010398399
-1.214482
0.0091028888
-1.2999536
0.016815943
-1.392034
0.029615092
-1.495154
0.041732942
-1.6109027
0.049007701
-1.7386855
0.049898154
-1.8766969
0.045001527
-2.0227603
0.03616709
-2.1750013
0.025654235
-2.3323603
0.015468194
-2.4948943
0.0069804924
-2.6637692
0.00084350214
-2.8405781
-0.0028643215
-3.0277177
-0.0044096517
-3.226993
-0.0041961718
-3.4419936
-0.0026245388
-3.6736256
-0.12861053
-0.59207467
-0.52317979
-0.62137057
-0.63723706
-0.64938435
-0.58482581
-0.67225539
-0.36869509
-0.70966371
-0.1361043
-0.78369414
-0.013244625
-0.8773008
0.028921024
-0.9700326
0.030269025
-1.0570571
0.015739558
-1.1370437
0.0073241211
-1.2148251
0.012225586
-1.2976334
0.026429393
-1.3912105
0.04223497
-1.4980436
0.05367032
-1.6179915
0.057945218
-1.7492497
0.055009674
-1.8892859
0.046549432
-2.0357059
0.035044065
-2.186849
0.02296477
-2.342167
0.01220604
-2.5022562
0.0038523662
-2.6687283
-0.0017601532
-2.8434362
-0.0048128587
-3.0288733
-0.0057211506
-3.2268389
-0.0049661873
-3.4409035
-0.0029592383
-3.6718663
-0.15328187
-0.53380363
-0.55482908
-0.56166531
-0.66917096
-0.59077373
-0.6207188
-0.61508123
-0.39280897
-0.64965803
-0.12881932
-0.71836607
0.012514935
-0.81113196
0.054275073
-0.90453632
0.048814256
-0.99039224
0.023134497
-1.0662872
0.0049659431
-1.1366809
0.0056063172
-1.210338
0.02069992
-1.2941224
0.040547368
-1.3917936
0.056964877
-1.5036883
0.06562057
-1.6281493
0.065625993
-1.7624357
0.058334433
-1.9036076
0.046318208
-2.0494206
0.032474923
-2.198683
0.019287098
-2.3514151
0.0083868386
-2.5087844
0.00048961479
-2.6727805
-0.0044073129
-2.8454514
-0.0067077137
-3.0293057
-0.0069532406
-3.226097
-0.0056687331
-3.4393188
-0.0032557947
-3.6696908
-0.17899465
-0.48182549
-0.58122993
-0.50855783
-0.69374582
-0.53834161
-0.64906307
-0.56392821
-0.4125525
-0.59676399
-0.11987687
-0.65990877
0.042592243
-0.75000066
0.085311534
-0.84393394
0.07199746
-0.92940673
0.032933963
-1.0018942
0.0021190749
-1.0653156
-0.0033915297
-1.12969
0.011904253
-1.203632
0.03616813
-1.2919053
0.058413053
-1.3955136
0.072498227
-1.5130071
0.076528437
-1.6416056
0.071368151
-1.7779715
0.059518544
-1.9192113
0.044206948
-2.0634721
0.028522529
-2.2101141
0.014760753
-2.359831
0.0041558358
-2.5143079
-0.0029903055
-2.6758611
-0.0070163339
-2.8466181
-0.0085050458
-3.0290446
-0.0080847456
-3.2247979
-0.0062954661
-3.4372945
-0.0035131567
-3.6671558
-0.20507533
-0.43601643
-0.60230763
-0.46182608
-0.7114417
-0.49203399
-0.67024545
-0.51857117
-0.42780437
-0.55001815
-0.10991853
-0.607931
0.075618948
-0.694379
0.12155854
-0.78790265
0.10017384
-0.87367732
0.045545644
-0.94359318
-0.0011928446
-1.0003445
-0.015081794
-1.0555173
-0.000330738
-1.1194266
0.028593431
-1.1981158
0.057551784
-1.293232
0.078144678
-1.4035324
0.087344497
-1.5263223
0.085415246
-1.6581072
0.074611942
-1.7954017
0.05833006
-1.9356018
0.040218345
-2.0773708
0.023324204
-2.2207623
0.0095649029
-2.3671531
-0.00030840418
-2.5187145
-0.0064816664
-2.6779281
-0.009519149
-2.8469491
-0.010169329
-3.0281264
-0.0091001929
-3.223002
-0.0068413828
-3.4348759
-0.0037306763
-3.6643058
-0.23723275
-0.46737268
-0.61840929
-0.42092322
-0.72293876
-0.45142791
-0.68503432
-0.47857404
-0.43906121
-0.50857635
-0.099572925
-0.56148141
0.10970158
-0.64335035
0.16160886
-0.73597889
0.13280846
-0.82199152
0.06122498
-0.89080947
-0.0049334208
-0.94150846
-0.029762078
-0.98744961
-0.016522441
-1.0411869
0.01736085
-1.110152
0.053959224
-1.1966201
0.082151489
-1.2995192
0.097677762
-1.4162699
0.10016579
-1.5434407
0.091473955
-1.6772082
0.074951581
-1.8142145
0.05467152
-1.9522442
0.034462289
-2.0906207
0.017084968
-2.2302458
0.0039059367
-2.3731566
-0.00489467
-2.5219005
-0.0098737849
-2.6789789
-0.011858439
-2.8464845
-0.011673651
-3.0266089
-0.0099896695
-3.2207576
-0.0073044209
-3.4321248
-0.0039085691
-3.6611953
-0.26843103
-0.45587681
-0.62910479
-0.45778118
-0.72920116
-0.41569248
-0.69443263
-0.44327873
-0.44709014
-0.47173179
-0.089479203
-0.5197042
0.14326692
-0.59628386
0.20289343
-0.68608435
0.16807079
-0.77259056
0.079289335
-0.84139336
-0.0093885364
-0.88791072
-0.047747139
-0.9252096
-0.037141486
-0.9685878
0.0020182812
-1.0277048
0.047270699
-1.105465
0.084170059
-1.2008197
0.10714161
-1.3112732
0.11525118
-1.4336169
0.10987903
-1.5640117
0.094088758
-1.6984881
0.072143263
-1.8338489
0.048587245
-1.9684895
0.02715301
-2.1026967
0.010064739
-2.238258
-0.0019767603
-2.3777458
-0.0094069647
-2.5238471
-0.01307755
-2.6790459
-0.013989633
-2.8452787
-0.01299987
-3.024552
-0.010748334
-3.2181299
-0.0076850204
-3.42909
-0.004048161
-3.657868
-0.29792407
-0.44700197
-0.63428643
-0.45180164
-0.72979096
-0.4583153
-0.69952352
-0.41177374
-0.45275515
-0.43872938
-0.080108151
-0.48206092
0.17533797
-0.55292017
0.2435843
-0.63832958
0.20370913
-0.72297514
0.098126686
-0.79265724
-0.015346393
-0.836899
-0.069596009
-0.86765509
-0.062676873
-0.90133215
-0.017872611
-0.95046275
0.037208014
-1.0195464
0.083943578
-1.1073191
0.11539769
-1.2112531
0.13027035
-1.3284563
0.12949878
-1.4553501
0.11564077
-1.5876701
0.092825405
-1.7212981
0.06611408
-1.8534885
0.04026814
-1.9836427
0.018597914
-2.1131375
0.0025619042
-2.2445424
-0.0079105667
-2.3808073
-0.013719706
-2.524571
-0.016021287
-2.678186
-0.015881283
-2.8434045
-0.014138024
-3.0220219
-0.011375772
-3.2151747
-0.0079856998
-3.4258284
-0.0041515001
-3.65437
-0.32539795
-0.4410121
-0.63424626
-0.44815131
-0.7257616
-0.4569638
-0.70328943
-0.45581315
-0.45658161
-0.4089946
-0.071935476
-0.44779159
0.20519897
-0.51298193
0.28272495
-0.59332706
0.23896971
-0.67475298
0.11740192
-0.74337908
-0.022462683
-0.7869176
-0.096157835
-0.81184285
-0.093457048
-0.83843775
-0.042754917
-0.8781245
0.0235658
-0.93862702
0.081335036
-1.018919
0.12219525
-1.1161863
0.1448256
-1.2278736
0.14991183
-1.3509173
0.13936531
-1.4811443
0.11679745
-1.6137454
0.087432091
-1.744703
0.056977707
-1.8722348
0.030048815
-1.9970403
0.0091762046
-2.1215671
-0.0051083976
-2.2489954
-0.013645539
-2.3823374
-0.017718775
-2.5241271
-0.018652262
-2.6764817
-0.017514584
-2.8409351
-0.01508542
-3.0190871
-0.011875266
-3.2119555
-0.0082106003
-3.4223826
-0.0042211527
-3.6507403
-0.35105886
-0.43788316
-0.62961157
-0.44675923
-0.71763754
-0.45741734
-0.70229159
-0.45923409
-0.46942891
-0.44408724
-0.064746988
-0.41701001
0.23227631
-0.47585063
0.31929737
-0.55073716
0.27324253
-0.62867977
0.13635323
-0.69474032
-0.02805911
-0.73907818
-0.12695389
-0.75754445
-0.12957608
-0.7771951
-0.0726959
-0.8100838
0.0062003349
-0.86246818
0.076348945
-0.93552467
0.12740781
-1.0260976
0.1585661
-1.1318917
0.17062833
-1.250566
0.16486245
-1.3784437
0.14398181
-1.510402
0.1128555
-1.6412087
0.077866714
-1.7675983
0.045049288
-1.8892061
0.018391481
-2.0081322
-0.00065860407
-2.1277468
-0.01266074
-2.2515285
-0.019014618
-2.3823907
-0.021317848
-2.5226109
-0.020936911
-2.6740236
-0.018882204
-2.8379563
-0.015845451
-3.0158188
-0.012253
-3.2085235
-0.0083650326
-3.4188013
-0.0042600348
-3.6470145
-0.37559256
-0.43716749
-0.62120566
-0.44740522
-0.705922
-0.45962591
-0.69700601
-0.46398344
-0.47941947
-0.45037552
-0.074642396
-0.43506442
0.25633756
-0.44198193
0.35258533
-0.51024242
0.30539814
-0.58389604
0.15356384
-0.64684117
-0.03398515
-0.69003373
-0.1594799
-0.70789649
-0.1709861
-0.71751789
-0.10670889
-0.74468551
-0.014727788
-0.79076858
0.069120498
-0.85702846
0.13105725
-0.94104086
0.1712307
-1.0406262
0.19112973
-1.1542902
0.19157762
-1.2792505
0.17409834
-1.4105774
0.14257001
-1.5420966
0.10351225
-1.6687913
0.064341904
-1.7888308
0.030846793
-1.9035745
0.0058653735
-2.0164577
-0.010524038
-2.1315249
-0.019810707
-2.252184
-0.023881416
-2.3810754
-0.024459541
-2.5201361
-0.022859489
-2.6709168
-0.019986551
-2.8345507
-0.016426361
-3.0122836
-0.012517266
-3.204932
-0.0084550837
-3.4151184
-0.004271257
-3.6432259
-0.39940605
-0.43936066
-0.60978365
-0.44970966
-0.69103343
-0.46345395
-0.68811072
-0.46980937
-0.48713358
-0.45741028
-0.084575848
-0.44131898
0.26426282
-0.44394114
0.38215626
-0.4725813
0.33480717
-0.54058453
0.16833552
-0.5995414
-0.042599066
-0.63937511
-0.19170591
-0.6590772
-0.21688749
-0.66329421
-0.14413399
-0.68151614
-0.038008538
-0.72292321
0.059960227
-0.78330485
0.13331901
-0.8610619
0.1826729
-0.95424554
0.21090097
-1.0622076
0.21880911
-1.1834143
0.20662486
-1.3137132
0.17656314
-1.446465
0.13444714
-1.5748652
0.088745531
-1.6950632
0.047360172
-1.8072624
0.015079219
-1.9146475
-0.0068859579
-2.0218228
-0.019974106
-2.1329123
-0.026337107
-2.2510859
-0.028150066
-2.3785381
-0.027113698
-2.5168353
-0.024419618
-2.6672659
-0.020837871
-2.8308041
-0.016839921
-3.0085419
-0.012677768
-3.2012232
-0.0084872739
-3.4113739
-0.0042579887
-3.6393992
-0.42300282
-0.44534697
-0.59633321
-0.45393555
-0.67319322
-0.46871874
-0.67641957
-0.47644045
-0.49295728
-0.46513494
-0.094657548
-0.44820753
0.26986499
-0.44787762
0.40216998
-0.46502428
0.36069603
-0.49933692
0.1808387
-0.55389314
-0.052946366
-0.59027394
-0.22302467
-0.60925478
-0.26250976
-0.61467356
-0.18516405
-0.62361093
-0.062520706
-0.65843006
0.049663592
-0.71423344
0.13451211
-0.78617904
0.19287921
-0.87292962
0.22946951
-0.97453217
0.24571273
-1.0909221
0.24073223
-1.2193664
0.21451173
-1.3534625
0.17107122
-1.4848458
0.11916224
-1.6070947
0.068902691
-1.7185033
0.027754727
-1.8218305
-0.0013113047
-1.9220228
-0.019321009
-2.0241227
-0.028671829
-2.1320463
-0.032085949
-2.2484188
-0.031766394
-2.3749442
-0.029274164
-2.5128416
-0.025629372
-2.6631789
-0.021452163
-2.826792
-0.017100315
-3.0046507
-0.012745017
-3.1974419
-0.0084682614
-3.4075896
-0.0042233603
-3.6355609
-0.44651079
-0.45407478
-0.58282636
-0.45998275
-0.65329459
-0.47501124
-0.66290318
-0.48353715
-0.49724318
-0.47331136
-0.10485082
-0.45582156
0.27261499
-0.45191943
0.42064791
-0.46743475
0.38584885
-0.49106914
0.19097446
-0.51021824
-0.064401565
-0.5434519
-0.2533055
-0.56112335
-0.30450239
-0.56840434
-0.22832893
-0.57278191
-0.089229586
-0.59823852
0.039252645
-0.64953904
0.135083
-0.7163989
0.20198943
-0.7968507
0.24648625
-0.89156954
0.27141679
-1.0019642
0.27532293
-1.1272705
0.25567261
-1.2622494
0.21348595
-1.3975825
0.15646988
-1.5239193
0.096654863
-1.6367061
0.044832534
-1.7374788
0.0067003928
-1.8316977
-0.017599686
-1.925482
-0.030857778
-2.0235146
-0.03636261
-2.1291552
-0.036964414
-2.2443986
-0.034713648
-2.3704707
-0.030954418
-2.508295
-0.026510057
-2.6587548
-0.021849378
-2.822588
-0.017223103
-3.0006612
-0.012729814
-3.1936177
-0.0084046285
-3.4037964
-0.0041703852
-3.6317293
-0.46290654
-0.46921408
-0.57119275
-0.46684191
-0.63290427
-0.48155764
-0.64858163
-0.49064092
-0.49992839
-0.48201556
-0.11508257
-0.46395986
0.27226417
-0.45643721
0.436381
-0.46874024
0.40970117
-0.49218428
0.21163148
-0.51249135
-0.076255522
-0.49931588
-0.28244988
-0.51537167
-0.34335757
-0.52333807
-0.27097017
-0.5269656
-0.11923593
-0.54402573
0.028718191
-0.58913978
0.13572439
-0.6516927
0.21026854
-0.726142
0.26180048
-0.81369182
0.29521087
-0.91700895
0.30930428
-1.0376222
0.29911219
-1.1723582
0.26155598
-1.3119693
0.20147221
-1.4443083
0.13194236
-1.5610329
0.067535119
-1.6612823
0.018021681
-1.7506685
-0.0144563
-1.8366444
-0.032857671
-1.9251614
-0.041097714
-2.0202837
-0.042893199
-2.1245308
-0.040937593
-2.2392634
-0.037005889
-2.3653004
-0.032182594
-2.503324
-0.027089334
-2.6540863
-0.022051777
-2.8182588
-0.017224411
-2.9966191
-0.012642856
-3.1897834
-0.0083027057
-3.4000081
-0.0041019048
-3.6279263
-0.47320334
-0.56203414
-0.47016849
-0.49005676
-0.6134098
-0.48752765
-0.63404545
-0.49740725
-0.5011522
-0.49058666
-0.12535097
-0.47262741
0.26877634
-0.46144197
0.44841672
-0.46956872
0.43121595
-0.49115478
0.23189944
-0.51323016
-0.071520038
-0.51820332
-0.31036895
-0.47239502
-0.37944861
-0.48028285
-0.31129927
-0.4841433
-0.15142242
-0.49594789
0.016794644
-0.5334569
0.13705153
-0.59190061
0.2180819
-0.66087584
0.27546734
-0.74123985
0.31662284
-0.83666761
0.34170491
-0.95100851
0.34398432
-1.0840691
0.31523567
-1.2276334
0.25537034
-1.3675545
0.17658859
-1.490747
0.097492896
-1.5928187
0.033568405
-1.6786736
-0.0095049106
-1.757457
-0.0345882
-1.8366736
-0.046439997
-1.9214361
-0.049788021
-2.0148229
-0.048198264
-2.1184884
-0.044018845
-2.2332567
-0.038680329
-2.3596054
-0.032996926
-2.4980499
-0.027398622
-2.649264
-0.022082595
-2.813865
-0.017120242
-2.9925603
-0.012494449
-3.1859565
-0.0081684623
-3.3962493
-0.0040205474
-3.6241652
-0.49240198
-0.59540822
-0.4785945
-0.55475097
-0.47485979
-0.5087273
-0.61932774
-0.50356311
-0.5004808
-0.49925302
-0.13586181
-0.48095615
0.26168812
-0.46651157
0.45599904
-0.47012743
0.44917385
-0.48842894
0.25113474
-0.51118017
-0.066207103
-0.51953978
-0.32439188
-0.50519837
-0.41326126
-0.43952171
-0.34869511
-0.44395474
-0.18370979
-0.45294808
0.002780158
-0.48321033
0.13904714
-0.53681095
0.22592998
-0.60102832
0.2876845
-0.67442973
0.3353814
-0.76148252
0.37154599
-0.86803288
0.38894692
-0.99747248
0.37402322
-1.144396
0.31916938
-1.2930726
0.23337186
-1.42608
0.13761509
-1.5326442
0.055019585
-1.6160566
-0.0022367228
-1.6877586
-0.036026457
-1.7578229
-0.052572019
-1.8322496
-0.05794903
-1.9148339
-0.056815274
-2.0075638
-0.052288429
-2.1113616
-0.046257804
-2.2266065
-0.03979002
-2.3535417
-0.033441608
-2.492584
-0.02747095
-2.6443626
-0.021964972
-2.8094545
-0.016926042
-2.9885152
-0.012294295
-3.1821625
-0.0080074138
-3.3925315
-0.0039287142
-3.6204636
-0.50891661
-0.60413417
-0.49666529
-0.57853934
-0.48174751
-0.54901045
-0.47735806
-0.52506549
-0.49759652
-0.50762555
-0.14630365
-0.48969227
0.25205924
-0.47230135
0.45866971
-0.47029153
0.46249695
-0.48435566
0.26813812
-0.50623373
-0.060982405
-0.51742083
-0.33673485
-0.50823843
-0.44241229
-0.47699903
-0.38317606
-0.40604199
-0.21468705
-0.41399777
-0.012873887
-0.43849581
0.14101933
-0.48646766
0.23434601
-0.54642076
0.29873396
-0.61332346
0.35138488
-0.69184001
0.39783203
-0.78922068
0.43180285
-0.9123154
0.43507513
-1.0600015
0.39103158
-1.2178411
0.30239355
-1.3637695
0.19109568
-1.4812627
0.085727485
-1.5650537
0.0088002907
-1.6288555
-0.037116727
-1.6884859
-0.059825898
-1.7523403
-0.067765758
-1.8240954
-0.067194621
-1.9059522
-0.062184758
-1.998958
-0.05523103
-2.1034525
-0.047728838
-2.21952
-0.040397367
-2.3472497
-0.033563445
-2.4870225
-0.027339304
-2.6394482
-0.021721223
-2.8050682
-0.01665631
-2.9845092
-0.012051357
-3.1784158
-0.007824596
-3.3888743
-0.0038285653
-3.616832
-0.51543195
-0.49226211
-0.51415064
-0.58797246
-0.49895778
-0.56253477
-0.48313852
-0.54438117
-0.47790592
-0.53883474
-0.15641573
-0.49839618
0.23943217
-0.47804003
0.45652135
-0.47126672
0.47063197
-0.47933471
0.28179443
-0.49882362
-0.056360414
-0.51188789
-0.34746712
-0.50774907
-0.46912499
-0.48249968
-0.4248805
-0.4363021
-0.24340668
-0.37827622
-0.029198353
-0.39880237
0.14230964
-0.44100042
0.24353992
-0.49677427
0.30900257
-0.55784781
0.36470463
-0.62797513
0.41974847
-0.71513937
0.47010638
-0.82887516
0.49391414
-0.97256455
0.46499394
-1.1354867
0.37669067
-1.2937386
0.25335604
-1.4276506
0.1265983
-1.5237717
0.026565837
-1.58454
-0.036546797
-1.6312332
-0.068499653
-1.6816198
-0.0798093
-1.742034
-0.079856118
-1.813045
-0.074172535
-1.895403
-0.065990419
-1.9894167
-0.057131664
-2.095041
-0.048520579
-2.2121775
-0.040568766
-2.3408513
-0.033409219
-2.4814502
-0.027035439
-2.6345708
-0.021372272
-2.8007388
-0.016324434
-2.9805655
-0.011773787
-3.1747351
-0.0076245287
-3.385286
-0.0037220279
-3.6132835
-0.50680177
-0.16593086
-0.52313245
-0.48446308
-0.51759075
-0.57066513
-0.49990889
-0.54697267
-0.48311693
-0.54032489
-0.47669442
-0.54960835
0.22396769
-0.48390596
0.44939404
-0.47202876
0.47228143
-0.47382721
0.29099431
-0.48935537
-0.052914635
-0.50331469
-0.3564831
-0.50394858
-0.49350729
-0.48436065
-0.46331404
-0.44509808
-0.29213645
-0.3885275
-0.044563846
-0.36397
0.1427046
-0.40034323
0.25334814
-0.45184634
0.31891353
-0.50776239
0.37555855
-0.56996137
0.43688583
-0.64642865
0.50187227
-0.74818047
0.54659667
-0.88289744
0.53494318
-1.0439758
0.44906807
-1.2093948
0.31131317
-1.3532469
0.16572291
-1.4683663
0.046595004
-1.5454835
-0.032900443
-1.5899669
-0.077850076
-1.6237027
-0.094691388
-1.6685258
-0.095490546
-1.728094
-0.088831226
-1.7999465
-0.079017881
-1.8837489
-0.068384564
-1.9793114
-0.058117345
-2.0863583
-0.04872765
-2.2047368
-0.040370548
-2.3344543
-0.033023841
-2.4759323
-0.026589045
-2.6297768
-0.020937342
-2.7964953
-0.015942525
-2.9766981
-0.011468895
-3.1711289
-0.0074112394
-3.3817807
-0.0036108014
-3.6098254
-0.48982659
0.20602009
-0.51480587
-0.17514524
-0.52927279
-0.47396465
-0.51975845
-0.5521424
-0.4997744
-0.53152476
-0.48207821
-0.53609861
-0.47472476
-0.5578652
0.43731527
-0.47294338
0.46768427
-0.46834558
0.29467664
-0.47833849
-0.051116872
-0.49220843
-0.36381604
-0.49707174
-0.514941
-0.48352609
-0.49816622
-0.45056069
-0.33967414
-0.39854348
-0.087166875
-0.34697957
0.14289569
-0.36523647
0.26328842
-0.41125304
0.3288476
-0.46278199
0.38429935
-0.51769332
0.44927281
-0.58360029
0.52594697
-0.67170395
0.59042283
-0.79327361
0.59736474
-0.94672004
0.51698115
-1.113356
0.36299312
-1.2625605
0.19339
-1.382451
0.054924857
-1.4783406
-0.034609016
-1.5455318
-0.088379471
-1.5812441
-0.11261335
-1.6075859
-0.11495921
-1.650808
-0.10687449
-1.7116986
-0.094897594
-1.7855663
-0.081954272
-1.8714861
-0.069551114
-1.9689489
-0.058323567
-2.0776109
-0.048444176
-2.1973264
-0.039866097
-2.328139
-0.032449091
-2.4705242
-0.026027241
-2.6250985
-0.02043376
-2.7923527
-0.015521414
-2.9729205
-0.011143161
-3.1676111
-0.0071882751
-3.3783656
-0.0034963454
-3.6064666
-0.47409067
0.42046513
-0.49503085
0.18527543
-0.52216869
-0.18314011
-0.5339249
-0.46098165
-0.52065226
-0.53259197
-0.49876969
-0.51604266
-0.48024832
-0.53173431
-0.47199
-0.56375481
0.45702708
-0.46320342
0.2919954
-0.46650026
-0.051303443
-0.47921415
-0.36931133
-0.4878133
-0.53275476
-0.48028391
-0.52866358
-0.4540981
-0.38551163
-0.40573087
-0.13071264
-0.35608345
0.11717866
-0.3223254
0.27333382
-0.37618706
0.33894134
-0.42227883
0.39139977
-0.47100511
0.45730438
-0.5269134
0.54209926
-0.60088076
0.62380413
-0.70627907
0.65002788
-0.8472766
0.5801698
-1.0113154
0.41577822
-1.1675635
0.21523613
-1.2858902
0.04640023
-1.3755349
-0.056668414
-1.458012
-0.10884811
-1.5268355
-0.13510068
-1.5605463
-0.13931229
-1.5850149
-0.12927993
-1.6301136
-0.11429971
-1.693886
-0.098391416
-1.7705665
-0.083250473
-1.8590225
-0.069684883
-1.9585905
-0.057884211
-2.0689533
-0.047759641
-2.1900479
-0.039113996
-2.3219717
-0.031722888
-2.4652659
-0.025374332
-2.6205583
-0.019876914
-2.7883269
-0.015070631
-2.9692428
-0.010802279
-3.1641894
-0.0069586802
-3.3750504
-0.0033798965
-3.6032112
-0.45860967
0.44062561
-0.4744427
0.39876631
-0.50081884
0.16295925
-0.52830348
-0.18965419
-0.5368824
-0.44593418
-0.52036986
-0.51231974
-0.49711885
-0.50037952
-0.47781089
-0.52707321
-0.46891016
-0.5663883
0.28273047
-0.45478005
-0.053679671
-0.4651903
-0.37263477
-0.47699764
-0.54625016
-0.47535584
-0.55395816
-0.45607271
-0.42901367
-0.41162516
-0.17446514
-0.363091
0.09011099
-0.33010563
0.26338433
-0.3132636
0.34924974
-0.38736528
0.3973505
-0.42928646
0.46159481
-0.47642227
0.5508269
-0.53669983
0.64597449
-0.62417263
0.69097768
-0.74850797
0.63700574
-0.90546109
0.4716452
-1.0685422
0.24701406
-1.200771
0.038663306
-1.2797159
-0.095630301
-1.3382612
-0.15166368
-1.4169275
-0.16847757
-1.4952003
-0.16995078
-1.5316731
-0.15762071
-1.5584217
-0.13816919
-1.6078984
-0.11828578
-1.6755196
-0.099708155
-1.7554754
-0.083187836
-1.8466837
-0.068976654
-1.9484306
-0.056925427
-2.0605123
-0.046755914
-2.1829771
-0.038166951
-2.3160002
-0.030878924
-2.4601854
-0.024651716
-2.6161722
-0.019280253
-2.7844237
-0.01459854
-2.9656755
-0.010451114
-3.1608727
-0.0067250212
-3.3718385
-0.0032624768
-3.6000656
-0.44408659
0.26736165
-0.4539157
0.4191746
-0.47626763
0.37310895
-0.50585252
0.13954592
-0.53296262
-0.19446675
-0.53818498
-0.42930022
-0.51884389
-0.49192325
-0.4947597
-0.48463444
-0.47540836
-0.5217344
-0.46540337
-0.56595677
-0.058289437
-0.45123798
-0.37341133
-0.4655241
-0.554733
-0.46956189
-0.57343418
-0.45697418
-0.4689344
-0.41719882
-0.21777036
-0.36945478
0.062306949
-0.33639726
0.25455251
-0.32218347
0.34441468
-0.30927987
0.4026004
-0.39360769
0.46290851
-0.43166681
0.55298004
-0.47956931
0.65712108
-0.54889958
0.71886858
-0.65328252
0.68371658
-0.79651028
0.52787771
-0.96299028
0.28938504
-1.1122844
0.049131109
-1.2127461
-0.12600187
-1.2509728
-0.20642056
-1.2851746
-0.21798214
-1.369091
-0.2086196
-1.4582469
-0.19282989
-1.4982221
-0.16830291
-1.5299915
-0.1424333
-1.5853447
-0.11942094
-1.6572635
-0.099253216
-1.7407033
-0.082038101
-1.8347131
-0.067603874
-1.9386185
-0.055561353
-2.0523723
-0.045505973
-2.1761726
-0.037071327
-2.3102572
-0.02994659
-2.4553015
-0.023877938
-2.6119432
-0.018655513
-2.7806541
-0.014112229
-2.9622232
-0.01009375
-3.1576645
-0.0064894099
-3.3687376
-0.0031447275
-3.5970313
-0.43858459
-0.064858528
-0.43518017
0.24777743
-0.4512357
0.39321515
-0.47793584
0.344091
-0.50991651
0.11554236
-0.53596061
-0.19758184
-0.53762256
-0.41170058
-0.51608969
-0.47192259
-0.49159122
-0.4696496
-0.4725419
-0.51575427
-0.46133592
-0.5629821
-0.37147768
-0.45428234
-0.55757611
-0.46373393