/*--------------------------------*- C++ -*----------------------------------*\
| =========                 |                                                 |
| \\      /  F ield         | OpenFOAM: The Open Source CFD Toolbox           |
|  \\    /   O peration     | Version:  v2012                                 |
|   \\  /    A nd           | Website:  www.openfoam.com                      |
|    \\/     M anipulation  |                                                 |
\*---------------------------------------------------------------------------*/
FoamFile
{
    version     2.0;
    format      ascii;
    class       pointVectorField;
    location    "101.881115955756229";
    object      pointDisplacement;
}
// * * * * * * * * * * * * * * * * * * * * * * * * * * * * * * * * * * * * * //

dimensions      [0 1 0 0 0 0 0];


internalField   nonuniform List<vector> 
18840
(
(1.9145272 0 0)
(1.9144235 0 0)
(1.9141153 0 0)
(1.9136072 0 0)
(1.912903 0 0)
(1.9120046 0 0)
(1.9109132 0 0)
(1.9096292 0 0)
(1.908152 0 0)
(1.9064805 0 0)
(1.9046126 0 0)
(1.902546 0 0)
(1.9002778 0 0)
(1.8978046 0 0)
(1.8951225 0 0)
(1.8922273 0 0)
(1.8891144 0 0)
(1.8857792 0 0)
(1.8822163 0 0)
(1.8784228 0 0)
(1.8735808 0 0)
(1.9145272 0 0)
(1.914423 0 0)
(1.9141131 0 0)
(1.9136022 0 0)
(1.912894 0 0)
(1.9119905 0 0)
(1.9108928 0 0)
(1.9096014 0 0)
(1.9081157 0 0)
(1.9064346 0 0)
(1.9045562 0 0)
(1.9024783 0 0)
(1.9001978 0 0)
(1.8977117 0 0)
(1.895016 0 0)
(1.8921067 0 0)
(1.8889793 0 0)
(1.885629 0 0)
(1.8820505 0 0)
(1.8782392 0 0)
(1.8741662 0 0)
(1.9145272 0 0)
(1.9144222 0 0)
(1.91411 0 0)
(1.9135954 0 0)
(1.9128818 0 0)
(1.9119714 0 0)
(1.9108654 0 0)
(1.909564 0 0)
(1.9080669 0 0)
(1.9063729 0 0)
(1.9044802 0 0)
(1.9023866 0 0)
(1.9000891 0 0)
(1.8975847 0 0)
(1.8948695 0 0)
(1.8919395 0 0)
(1.8887903 0 0)
(1.8854169 0 0)
(1.8818141 0 0)
(1.8779762 0 0)
(1.8738167 0 0)
(1.9145272 0 0)
(1.9144215 0 0)
(1.914107 0 0)
(1.9135885 0 0)
(1.9128695 0 0)
(1.9119521 0 0)
(1.9108374 0 0)
(1.9095257 0 0)
(1.9080167 0 0)
(1.9063091 0 0)
(1.9044013 0 0)
(1.9022908 0 0)
(1.899975 0 0)
(1.8974506 0 0)
(1.8947139 0 0)
(1.8917609 0 0)
(1.8885871 0 0)
(1.8851877 0 0)
(1.8815573 0 0)
(1.8776909 0 0)
(1.8734518 0 0)
(1.9145272 0 0)
(1.9144207 0 0)
(1.9141039 0 0)
(1.9135816 0 0)
(1.912857 0 0)
(1.9119324 0 0)
(1.9108087 0 0)
(1.9094864 0 0)
(1.9079649 0 0)
(1.9062431 0 0)
(1.9043191 0 0)
(1.9021908 0 0)
(1.8998552 0 0)
(1.8973093 0 0)
(1.8945491 0 0)
(1.8915707 0 0)
(1.8883696 0 0)
(1.8849411 0 0)
(1.8812799 0 0)
(1.877381 0 0)
(1.8730636 0 0)
(1.9145272 0 0)
(1.91442 0 0)
(1.9141009 0 0)
(1.9135746 0 0)
(1.9128444 0 0)
(1.9119123 0 0)
(1.9107795 0 0)
(1.909446 0 0)
(1.9079115 0 0)
(1.9061747 0 0)
(1.9042338 0 0)
(1.9020864 0 0)
(1.8997298 0 0)
(1.8971605 0 0)
(1.894375 0 0)
(1.8913689 0 0)
(1.8881379 0 0)
(1.8846772 0 0)
(1.8809816 0 0)
(1.8770461 0 0)
(1.8726519 0 0)
(1.9145272 0 0)
(1.9144192 0 0)
(1.9140978 0 0)
(1.9135675 0 0)
(1.9128315 0 0)
(1.9118919 0 0)
(1.9107495 0 0)
(1.9094046 0 0)
(1.9078565 0 0)
(1.906104 0 0)
(1.9041453 0 0)
(1.9019778 0 0)
(1.8995986 0 0)
(1.8970046 0 0)
(1.8941916 0 0)
(1.8911557 0 0)
(1.8878921 0 0)
(1.8843962 0 0)
(1.8806626 0 0)
(1.8766864 0 0)
(1.8722171 0 0)
(1.9145272 0 0)
(1.9144184 0 0)
(1.9140947 0 0)
(1.9135604 0 0)
(1.9128184 0 0)
(1.911871 0 0)
(1.9107188 0 0)
(1.9093621 0 0)
(1.9077999 0 0)
(1.9060311 0 0)
(1.9040536 0 0)
(1.9018649 0 0)
(1.899462 0 0)
(1.8968414 0 0)
(1.8939992 0 0)
(1.8909312 0 0)
(1.8876324 0 0)
(1.8840982 0 0)
(1.8803231 0 0)
(1.876302 0 0)
(1.8717599 0 0)
(1.9145272 0 0)
(1.9144177 0 0)
(1.9140916 0 0)
(1.9135531 0 0)
(1.9128052 0 0)
(1.9118497 0 0)
(1.9106874 0 0)
(1.9093184 0 0)
(1.9077417 0 0)
(1.9059559 0 0)
(1.9039589 0 0)
(1.901748 0 0)
(1.8993201 0 0)
(1.8966715 0 0)
(1.8937982 0 0)
(1.8906958 0 0)
(1.8873594 0 0)
(1.8837838 0 0)
(1.8799638 0 0)
(1.8758938 0 0)
(1.8712817 0 0)
(1.9145272 0 0)
(1.9144169 0 0)
(1.9140884 0 0)
(1.9135457 0 0)
(1.9127916 0 0)
(1.9118279 0 0)
(1.9106554 0 0)
(1.9092737 0 0)
(1.9076821 0 0)
(1.9058787 0 0)
(1.9038614 0 0)
(1.9016273 0 0)
(1.8991732 0 0)
(1.8964952 0 0)
(1.8935892 0 0)
(1.8904504 0 0)
(1.8870739 0 0)
(1.8834544 0 0)
(1.8795862 0 0)
(1.8754635 0 0)
(1.8707845 0 0)
(1.9145272 0 0)
(1.9144159 0 0)
(1.9140843 0 0)
(1.9135363 0 0)
(1.9127746 0 0)
(1.9118009 0 0)
(1.9106157 0 0)
(1.9092188 0 0)
(1.907609 0 0)
(1.9057846 0 0)
(1.9037431 0 0)
(1.9014815 0 0)
(1.8989963 0 0)
(1.8962836 0 0)
(1.8933389 0 0)
(1.8901573 0 0)
(1.8867337 0 0)
(1.8830624 0 0)
(1.8791376 0 0)
(1.8749531 0 0)
(1.8702066 0 0)
(1.9145272 0 0)
(1.9144235 0 0)
(1.9141153 0 0)
(1.9136072 0 0)
(1.912903 0 0)
(1.9120046 0 0)
(1.9109132 0 0)
(1.9096292 0 0)
(1.908152 0 0)
(1.9064805 0 0)
(1.9046126 0 0)
(1.902546 0 0)
(1.9002778 0 0)
(1.8978046 0 0)
(1.8951225 0 0)
(1.8922273 0 0)
(1.8891144 0 0)
(1.8857792 0 0)
(1.8822163 0 0)
(1.8784228 0 0)
(1.8735808 0 0)
(1.9145272 0 0)
(1.914423 0 0)
(1.9141131 0 0)
(1.9136022 0 0)
(1.912894 0 0)
(1.9119905 0 0)
(1.9108928 0 0)
(1.9096014 0 0)
(1.9081157 0 0)
(1.9064346 0 0)
(1.9045562 0 0)
(1.9024783 0 0)
(1.9001978 0 0)
(1.8977117 0 0)
(1.895016 0 0)
(1.8921067 0 0)
(1.8889793 0 0)
(1.885629 0 0)
(1.8820505 0 0)
(1.8782392 0 0)
(1.8741662 0 0)
(1.9145272 0 0)
(1.9144222 0 0)
(1.91411 0 0)
(1.9135954 0 0)
(1.9128818 0 0)
(1.9119714 0 0)
(1.9108654 0 0)
(1.909564 0 0)
(1.9080669 0 0)
(1.9063729 0 0)
(1.9044802 0 0)
(1.9023866 0 0)
(1.9000891 0 0)
(1.8975847 0 0)
(1.8948695 0 0)
(1.8919395 0 0)
(1.8887903 0 0)
(1.8854169 0 0)
(1.8818141 0 0)
(1.8779762 0 0)
(1.8738167 0 0)
(1.9145272 0 0)
(1.9144215 0 0)
(1.914107 0 0)
(1.9135885 0 0)
(1.9128695 0 0)
(1.9119521 0 0)
(1.9108374 0 0)
(1.9095257 0 0)
(1.9080167 0 0)
(1.9063091 0 0)
(1.9044013 0 0)
(1.9022908 0 0)
(1.899975 0 0)
(1.8974506 0 0)
(1.8947139 0 0)
(1.8917609 0 0)
(1.8885871 0 0)
(1.8851877 0 0)
(1.8815573 0 0)
(1.8776909 0 0)
(1.8734518 0 0)
(1.9145272 0 0)
(1.9144207 0 0)
(1.9141039 0 0)
(1.9135816 0 0)
(1.912857 0 0)
(1.9119324 0 0)
(1.9108087 0 0)
(1.9094864 0 0)
(1.9079649 0 0)
(1.9062431 0 0)
(1.9043191 0 0)
(1.9021908 0 0)
(1.8998552 0 0)
(1.8973093 0 0)
(1.8945491 0 0)
(1.8915707 0 0)
(1.8883696 0 0)
(1.8849411 0 0)
(1.8812799 0 0)
(1.877381 0 0)
(1.8730636 0 0)
(1.9145272 0 0)
(1.91442 0 0)
(1.9141009 0 0)
(1.9135746 0 0)
(1.9128444 0 0)
(1.9119123 0 0)
(1.9107795 0 0)
(1.909446 0 0)
(1.9079115 0 0)
(1.9061747 0 0)
(1.9042338 0 0)
(1.9020864 0 0)
(1.8997298 0 0)
(1.8971605 0 0)
(1.894375 0 0)
(1.8913689 0 0)
(1.8881379 0 0)
(1.8846772 0 0)
(1.8809816 0 0)
(1.8770461 0 0)
(1.8726519 0 0)
(1.9145272 0 0)
(1.9144192 0 0)
(1.9140978 0 0)
(1.9135675 0 0)
(1.9128315 0 0)
(1.9118919 0 0)
(1.9107495 0 0)
(1.9094046 0 0)
(1.9078565 0 0)
(1.906104 0 0)
(1.9041453 0 0)
(1.9019778 0 0)
(1.8995986 0 0)
(1.8970046 0 0)
(1.8941916 0 0)
(1.8911557 0 0)
(1.8878921 0 0)
(1.8843962 0 0)
(1.8806626 0 0)
(1.8766864 0 0)
(1.8722171 0 0)
(1.9145272 0 0)
(1.9144184 0 0)
(1.9140947 0 0)
(1.9135604 0 0)
(1.9128184 0 0)
(1.911871 0 0)
(1.9107188 0 0)
(1.9093621 0 0)
(1.9077999 0 0)
(1.9060311 0 0)
(1.9040536 0 0)
(1.9018649 0 0)
(1.899462 0 0)
(1.8968414 0 0)
(1.8939992 0 0)
(1.8909312 0 0)
(1.8876324 0 0)
(1.8840982 0 0)
(1.8803231 0 0)
(1.876302 0 0)
(1.8717599 0 0)
(1.9145272 0 0)
(1.9144177 0 0)
(1.9140916 0 0)
(1.9135531 0 0)
(1.9128052 0 0)
(1.9118497 0 0)
(1.9106874 0 0)
(1.9093184 0 0)
(1.9077417 0 0)
(1.9059559 0 0)
(1.9039589 0 0)
(1.901748 0 0)
(1.8993201 0 0)
(1.8966715 0 0)
(1.8937982 0 0)
(1.8906958 0 0)
(1.8873594 0 0)
(1.8837838 0 0)
(1.8799638 0 0)
(1.8758938 0 0)
(1.8712817 0 0)
(1.9145272 0 0)
(1.9144169 0 0)
(1.9140884 0 0)
(1.9135457 0 0)
(1.9127916 0 0)
(1.9118279 0 0)
(1.9106554 0 0)
(1.9092737 0 0)
(1.9076821 0 0)
(1.9058787 0 0)
(1.9038614 0 0)
(1.9016273 0 0)
(1.8991732 0 0)
(1.8964952 0 0)
(1.8935892 0 0)
(1.8904504 0 0)
(1.8870739 0 0)
(1.8834544 0 0)
(1.8795862 0 0)
(1.8754635 0 0)
(1.8707845 0 0)
(1.9145272 0 0)
(1.9144159 0 0)
(1.9140843 0 0)
(1.9135363 0 0)
(1.9127746 0 0)
(1.9118009 0 0)
(1.9106157 0 0)
(1.9092188 0 0)
(1.907609 0 0)
(1.9057846 0 0)
(1.9037431 0 0)
(1.9014815 0 0)
(1.8989963 0 0)
(1.8962836 0 0)
(1.8933389 0 0)
(1.8901573 0 0)
(1.8867337 0 0)
(1.8830624 0 0)
(1.8791376 0 0)
(1.8749531 0 0)
(1.8702066 0 0)
(1.9145272 0 0)
(1.914425 0 0)
(1.9141214 0 0)
(1.9136213 0 0)
(1.9129281 0 0)
(1.9120438 0 0)
(1.9109692 0 0)
(1.9097043 0 0)
(1.9082478 0 0)
(1.9065981 0 0)
(1.9047524 0 0)
(1.9027073 0 0)
(1.9004586 0 0)
(1.8980016 0 0)
(1.8953307 0 0)
(1.8924398 0 0)
(1.8893221 0 0)
(1.8859702 0 0)
(1.8823759 0 0)
(1.8785335 0 0)
(1.8740799 0 0)
(1.9145272 0 0)
(1.9144247 0 0)
(1.9141203 0 0)
(1.9136188 0 0)
(1.9129237 0 0)
(1.9120371 0 0)
(1.9109597 0 0)
(1.9096915 0 0)
(1.9082315 0 0)
(1.9065777 0 0)
(1.9047275 0 0)
(1.9026775 0 0)
(1.9004236 0 0)
(1.897961 0 0)
(1.8952841 0 0)
(1.8923869 0 0)
(1.8892626 0 0)
(1.8859039 0 0)
(1.8823027 0 0)
(1.8784531 0 0)
(1.8739969 0 0)
(1.9145272 0 0)
(1.9144243 0 0)
(1.9141187 0 0)
(1.9136153 0 0)
(1.9129176 0 0)
(1.9120278 0 0)
(1.9109466 0 0)
(1.9096741 0 0)
(1.9082091 0 0)
(1.90655 0 0)
(1.9046939 0 0)
(1.9026377 0 0)
(1.9003772 0 0)
(1.8979077 0 0)
(1.8952237 0 0)
(1.8923192 0 0)
(1.8891875 0 0)
(1.8858215 0 0)
(1.8822131 0 0)
(1.8783564 0 0)
(1.8739067 0 0)
(1.9145272 0 0)
(1.914424 0 0)
(1.9141175 0 0)
(1.9136125 0 0)
(1.9129129 0 0)
(1.9120205 0 0)
(1.9109364 0 0)
(1.9096605 0 0)
(1.9081918 0 0)
(1.9065286 0 0)
(1.9046684 0 0)
(1.9026077 0 0)
(1.9003427 0 0)
(1.8978686 0 0)
(1.8951802 0 0)
(1.8922717 0 0)
(1.8891363 0 0)
(1.8857671 0 0)
(1.8821562 0 0)
(1.8782979 0 0)
(1.8738679 0 0)
(1.9145272 0 0)
(1.9144238 0 0)
(1.9141166 0 0)
(1.9136105 0 0)
(1.9129094 0 0)
(1.9120152 0 0)
(1.9109289 0 0)
(1.9096505 0 0)
(1.9081792 0 0)
(1.9065133 0 0)
(1.9046502 0 0)
(1.9025868 0 0)
(1.9003191 0 0)
(1.8978428 0 0)
(1.8951525 0 0)
(1.8922427 0 0)
(1.8891069 0 0)
(1.8857383 0 0)
(1.8821293 0 0)
(1.8782742 0 0)
(1.8738765 0 0)
(1.9145272 0 0)
(1.9144236 0 0)
(1.914116 0 0)
(1.9136092 0 0)
(1.912907 0 0)
(1.9120115 0 0)
(1.9109238 0 0)
(1.9096438 0 0)
(1.9081708 0 0)
(1.9065032 0 0)
(1.9046385 0 0)
(1.9025738 0 0)
(1.9003052 0 0)
(1.8978284 0 0)
(1.8951385 0 0)
(1.8922299 0 0)
(1.8890965 0 0)
(1.8857318 0 0)
(1.8821284 0 0)
(1.8782807 0 0)
(1.8739271 0 0)
(1.9145272 0 0)
(1.9144236 0 0)
(1.9141156 0 0)
(1.9136085 0 0)
(1.9129057 0 0)
(1.9120094 0 0)
(1.9109208 0 0)
(1.9096399 0 0)
(1.908166 0 0)
(1.9064975 0 0)
(1.9046323 0 0)
(1.9025674 0 0)
(1.9002991 0 0)
(1.8978233 0 0)
(1.8951354 0 0)
(1.8922299 0 0)
(1.8891012 0 0)
(1.8857428 0 0)
(1.882148 0 0)
(1.8783108 0 0)
(1.8740119 0 0)
(1.9145272 0 0)
(1.9144236 0 0)
(1.9141155 0 0)
(1.9136082 0 0)
(1.9129051 0 0)
(1.9120085 0 0)
(1.9109194 0 0)
(1.9096381 0 0)
(1.9081638 0 0)
(1.9064952 0 0)
(1.9046301 0 0)
(1.9025656 0 0)
(1.9002985 0 0)
(1.8978247 0 0)
(1.8951397 0 0)
(1.8922386 0 0)
(1.8891158 0 0)
(1.8857655 0 0)
(1.882181 0 0)
(1.8783566 0 0)
(1.8741216 0 0)
(1.9145272 0 0)
(1.9144236 0 0)
(1.9141156 0 0)
(1.9136083 0 0)
(1.9129051 0 0)
(1.9120084 0 0)
(1.9109192 0 0)
(1.9096377 0 0)
(1.9081634 0 0)
(1.9064949 0 0)
(1.9046302 0 0)
(1.9025666 0 0)
(1.9003008 0 0)
(1.8978293 0 0)
(1.8951476 0 0)
(1.8922511 0 0)
(1.8891346 0 0)
(1.8857927 0 0)
(1.8822192 0 0)
(1.8784083 0 0)
(1.8742452 0 0)
(1.9145272 0 0)
(1.9144236 0 0)
(1.9141158 0 0)
(1.9136086 0 0)
(1.9129056 0 0)
(1.9120089 0 0)
(1.9109196 0 0)
(1.9096381 0 0)
(1.9081638 0 0)
(1.9064954 0 0)
(1.904631 0 0)
(1.902568 0 0)
(1.9003033 0 0)
(1.8978335 0 0)
(1.8951545 0 0)
(1.8922619 0 0)
(1.8891508 0 0)
(1.8858164 0 0)
(1.8822529 0 0)
(1.8784562 0 0)
(1.8743773 0 0)
(1.9145272 0 0)
(1.914425 0 0)
(1.9141214 0 0)
(1.9136213 0 0)
(1.9129281 0 0)
(1.9120438 0 0)
(1.9109692 0 0)
(1.9097043 0 0)
(1.9082478 0 0)
(1.9065981 0 0)
(1.9047524 0 0)
(1.9027073 0 0)
(1.9004586 0 0)
(1.8980016 0 0)
(1.8953307 0 0)
(1.8924398 0 0)
(1.8893221 0 0)
(1.8859702 0 0)
(1.8823759 0 0)
(1.8785335 0 0)
(1.8740799 0 0)
(1.9145272 0 0)
(1.9144247 0 0)
(1.9141203 0 0)
(1.9136188 0 0)
(1.9129237 0 0)
(1.9120371 0 0)
(1.9109597 0 0)
(1.9096915 0 0)
(1.9082315 0 0)
(1.9065777 0 0)
(1.9047275 0 0)
(1.9026775 0 0)
(1.9004236 0 0)
(1.897961 0 0)
(1.8952841 0 0)
(1.8923869 0 0)
(1.8892626 0 0)
(1.8859039 0 0)
(1.8823027 0 0)
(1.8784531 0 0)
(1.8739969 0 0)
(1.9145272 0 0)
(1.9144243 0 0)
(1.9141187 0 0)
(1.9136153 0 0)
(1.9129176 0 0)
(1.9120278 0 0)
(1.9109466 0 0)
(1.9096741 0 0)
(1.9082091 0 0)
(1.90655 0 0)
(1.9046939 0 0)
(1.9026377 0 0)
(1.9003772 0 0)
(1.8979077 0 0)
(1.8952237 0 0)
(1.8923192 0 0)
(1.8891875 0 0)
(1.8858215 0 0)
(1.8822131 0 0)
(1.8783564 0 0)
(1.8739067 0 0)
(1.9145272 0 0)
(1.914424 0 0)
(1.9141175 0 0)
(1.9136125 0 0)
(1.9129129 0 0)
(1.9120205 0 0)
(1.9109364 0 0)
(1.9096605 0 0)
(1.9081918 0 0)
(1.9065286 0 0)
(1.9046684 0 0)
(1.9026077 0 0)
(1.9003427 0 0)
(1.8978686 0 0)
(1.8951802 0 0)
(1.8922717 0 0)
(1.8891363 0 0)
(1.8857671 0 0)
(1.8821562 0 0)
(1.8782979 0 0)
(1.8738679 0 0)
(1.9145272 0 0)
(1.9144238 0 0)
(1.9141166 0 0)
(1.9136105 0 0)
(1.9129094 0 0)
(1.9120152 0 0)
(1.9109289 0 0)
(1.9096505 0 0)
(1.9081792 0 0)
(1.9065133 0 0)
(1.9046502 0 0)
(1.9025868 0 0)
(1.9003191 0 0)
(1.8978428 0 0)
(1.8951525 0 0)
(1.8922427 0 0)
(1.8891069 0 0)
(1.8857383 0 0)
(1.8821293 0 0)
(1.8782742 0 0)
(1.8738765 0 0)
(1.9145272 0 0)
(1.9144236 0 0)
(1.914116 0 0)
(1.9136092 0 0)
(1.912907 0 0)
(1.9120115 0 0)
(1.9109238 0 0)
(1.9096438 0 0)
(1.9081708 0 0)
(1.9065032 0 0)
(1.9046385 0 0)
(1.9025738 0 0)
(1.9003052 0 0)
(1.8978284 0 0)
(1.8951385 0 0)
(1.8922299 0 0)
(1.8890965 0 0)
(1.8857318 0 0)
(1.8821284 0 0)
(1.8782807 0 0)
(1.8739271 0 0)
(1.9145272 0 0)
(1.9144236 0 0)
(1.9141156 0 0)
(1.9136085 0 0)
(1.9129057 0 0)
(1.9120094 0 0)
(1.9109208 0 0)
(1.9096399 0 0)
(1.908166 0 0)
(1.9064975 0 0)
(1.9046323 0 0)
(1.9025674 0 0)
(1.9002991 0 0)
(1.8978233 0 0)
(1.8951354 0 0)
(1.8922299 0 0)
(1.8891012 0 0)
(1.8857428 0 0)
(1.882148 0 0)
(1.8783108 0 0)
(1.8740119 0 0)
(1.9145272 0 0)
(1.9144236 0 0)
(1.9141155 0 0)
(1.9136082 0 0)
(1.9129051 0 0)
(1.9120085 0 0)
(1.9109194 0 0)
(1.9096381 0 0)
(1.9081638 0 0)
(1.9064952 0 0)
(1.9046301 0 0)
(1.9025656 0 0)
(1.9002985 0 0)
(1.8978247 0 0)
(1.8951397 0 0)
(1.8922386 0 0)
(1.8891158 0 0)
(1.8857655 0 0)
(1.882181 0 0)
(1.8783566 0 0)
(1.8741216 0 0)
(1.9145272 0 0)
(1.9144236 0 0)
(1.9141156 0 0)
(1.9136083 0 0)
(1.9129051 0 0)
(1.9120084 0 0)
(1.9109192 0 0)
(1.9096377 0 0)
(1.9081634 0 0)
(1.9064949 0 0)
(1.9046302 0 0)
(1.9025666 0 0)
(1.9003008 0 0)
(1.8978293 0 0)
(1.8951476 0 0)
(1.8922511 0 0)
(1.8891346 0 0)
(1.8857927 0 0)
(1.8822192 0 0)
(1.8784083 0 0)
(1.8742452 0 0)
(1.9145272 0 0)
(1.9144236 0 0)
(1.9141158 0 0)
(1.9136086 0 0)
(1.9129056 0 0)
(1.9120089 0 0)
(1.9109196 0 0)
(1.9096381 0 0)
(1.9081638 0 0)
(1.9064954 0 0)
(1.904631 0 0)
(1.902568 0 0)
(1.9003033 0 0)
(1.8978335 0 0)
(1.8951545 0 0)
(1.8922619 0 0)
(1.8891508 0 0)
(1.8858164 0 0)
(1.8822529 0 0)
(1.8784562 0 0)
(1.8743773 0 0)
(1.8685406 0 0)
(1.8622277 0 0)
(1.855484 0 0)
(1.8482923 0 0)
(1.840635 0 0)
(1.8324946 0 0)
(1.8238511 0 0)
(1.8146752 0 0)
(1.8049268 0 0)
(1.7945669 0 0)
(1.7835622 0 0)
(1.771879 0 0)
(1.759477 0 0)
(1.7463111 0 0)
(1.7323341 0 0)
(1.7174981 0 0)
(1.701755 0 0)
(1.6850531 0 0)
(1.6673382 0 0)
(1.6485551 0 0)
(1.6286462 0 0)
(1.6075455 0 0)
(1.5851785 0 0)
(1.5614681 0 0)
(1.5363371 0 0)
(1.5096981 0 0)
(1.4814496 0 0)
(1.4514872 0 0)
(1.4197083 0 0)
(1.3859961 0 0)
(1.3502123 0 0)
(1.3122173 0 0)
(1.2718728 0 0)
(1.2290178 0 0)
(1.1834627 0 0)
(1.1350222 0 0)
(1.0835047 0 0)
(1.0286731 0 0)
(0.97027956 0 0)
(0.90805821 0 0)
(0.84172822 0 0)
(0.77100537 0 0)
(0.69555552 0 0)
(0.61499936 0 0)
(0.52895484 0 0)
(0.43700445 0 0)
(0.33865308 0 0)
(0.23335968 0 0)
(0.12054399 0 0)
(0 0 0)
(1.8684654 0 0)
(1.8621654 0 0)
(1.8554343 0 0)
(1.8482548 0 0)
(1.8406097 0 0)
(1.832482 0 0)
(1.823852 0 0)
(1.8146901 0 0)
(1.8049561 0 0)
(1.7946104 0 0)
(1.7836197 0 0)
(1.77195 0 0)
(1.7595611 0 0)
(1.746408 0 0)
(1.7324433 0 0)
(1.717619 0 0)
(1.7018869 0 0)
(1.6851954 0 0)
(1.6674899 0 0)
(1.6487153 0 0)
(1.6288143 0 0)
(1.607721 0 0)
(1.5853608 0 0)
(1.5616563 0 0)
(1.5365302 0 0)
(1.5098958 0 0)
(1.4816512 0 0)
(1.4516915 0 0)
(1.4199145 0 0)
(1.3862035 0 0)
(1.3504203 0 0)
(1.3124248 0 0)
(1.2720787 0 0)
(1.2292214 0 0)
(1.1836629 0 0)
(1.1352176 0 0)
(1.0836946 0 0)
(1.0288565 0 0)
(0.97045536 0 0)
(0.9082256 0 0)
(0.84188602 0 0)
(0.77115225 0 0)
(0.69569007 0 0)
(0.61512012 0 0)
(0.52906002 0 0)
(0.43709242 0 0)
(0.33872195 0 0)
(0.23340739 0 0)
(0.12056853 0 0)
(0 0 0)
(1.8684089 0 0)
(1.8621547 0 0)
(1.8554676 0 0)
(1.8483305 0 0)
(1.8407266 0 0)
(1.832639 0 0)
(1.8240483 0 0)
(1.8149253 0 0)
(1.8052294 0 0)
(1.7949206 0 0)
(1.7839656 0 0)
(1.7723305 0 0)
(1.7599749 0 0)
(1.7468537 0 0)
(1.7329196 0 0)
(1.7181248 0 0)
(1.7024205 0 0)
(1.6857551 0 0)
(1.6680741 0 0)
(1.6493224 0 0)
(1.6294423 0 0)
(1.6083684 0 0)
(1.586026 0 0)
(1.5623374 0 0)
(1.5372254 0 0)
(1.5106031 0 0)
(1.482369 0 0)
(1.4524178 0 0)
(1.4206467 0 0)
(1.3869394 0 0)
(1.3511579 0 0)
(1.3131614 0 0)
(1.2728117 0 0)
(1.2299477 0 0)
(1.1843794 0 0)
(1.1359207 0 0)
(1.0843812 0 0)
(1.0295228 0 0)
(0.97109763 0 0)
(0.90883985 0 0)
(0.84246751 0 0)
(0.77169598 0 0)
(0.69619071 0 0)
(0.61557166 0 0)
(0.52945566 0 0)
(0.43742513 0 0)
(0.33898405 0 0)
(0.23359048 0 0)
(0.12066377 0 0)
(0 0 0)
(1.8684313 0 0)
(1.8622569 0 0)
(1.8556466 0 0)
(1.8485832 0 0)
(1.8410501 0 0)
(1.8330306 0 0)
(1.8245059 0 0)
(1.8154467 0 0)
(1.8058126 0 0)
(1.795564 0 0)
(1.7846671 0 0)
(1.7730876 0 0)
(1.7607854 0 0)
(1.7477156 0 0)
(1.7338307 0 0)
(1.7190826 0 0)
(1.7034229 0 0)
(1.6867995 0 0)
(1.6691577 0 0)
(1.6504423 0 0)
(1.6305959 0 0)
(1.6095528 0 0)
(1.5872384 0 0)
(1.5635747 0 0)
(1.5384847 0 0)
(1.5118815 0 0)
(1.4836632 0 0)
(1.4537243 0 0)
(1.4219618 0 0)
(1.3882595 0 0)
(1.3524789 0 0)
(1.314479 0 0)
(1.2741214 0 0)
(1.2312447 0 0)
(1.185658 0 0)
(1.1371749 0 0)
(1.0856055 0 0)
(1.0307105 0 0)
(0.972242 0 0)
(0.90993365 0 0)
(0.84350264 0 0)
(0.77266367 0 0)
(0.69708114 0 0)
(0.61637442 0 0)
(0.53015909 0 0)
(0.43801649 0 0)
(0.33944988 0 0)
(0.23391593 0 0)
(0.12083312 0 0)
(0 0 0)
(1.8685283 0 0)
(1.8624672 0 0)
(1.8559659 0 0)
(1.8490069 0 0)
(1.8415738 0 0)
(1.8336502 0 0)
(1.8252176 0 0)
(1.8162471 0 0)
(1.8066988 0 0)
(1.796533 0 0)
(1.7857161 0 0)
(1.7742133 0 0)
(1.7619846 0 0)
(1.748985 0 0)
(1.7351673 0 0)
(1.7204836 0 0)
(1.7048849 0 0)
(1.6883189 0 0)
(1.6707309 0 0)
(1.6520656 0 0)
(1.6322651 0 0)
(1.611264 0 0)
(1.5889875 0 0)
(1.5653579 0 0)
(1.5402976 0 0)
(1.5137201 0 0)
(1.4855229 0 0)
(1.4556003 0 0)
(1.4238491 0 0)
(1.3901528 0 0)
(1.3543725 0 0)
(1.316367 0 0)
(1.2759973 0 0)
(1.2331016 0 0)
(1.1874881 0 0)
(1.13897 0 0)
(1.0873574 0 0)
(1.03241 0 0)
(0.97387928 0 0)
(0.91149832 0 0)
(0.84498305 0 0)
(0.77404738 0 0)
(0.69835434 0 0)
(0.61752206 0 0)
(0.53116459 0 0)
(0.43886175 0 0)
(0.34011568 0 0)
(0.23438103 0 0)
(0.12107525 0 0)
(0 0 0)
(1.8686933 0 0)
(1.8627782 0 0)
(1.8564173 0 0)
(1.8495927 0 0)
(1.8422881 0 0)
(1.8344878 0 0)
(1.8261733 0 0)
(1.8173161 0 0)
(1.8078767 0 0)
(1.7978167 0 0)
(1.7871016 0 0)
(1.7756962 0 0)
(1.7635606 0 0)
(1.7506501 0 0)
(1.7369176 0 0)
(1.7223151 0 0)
(1.7067937 0 0)
(1.6903008 0 0)
(1.672781 0 0)
(1.6541788 0 0)
(1.6344366 0 0)
(1.6134887 0 0)
(1.5912599 0 0)
(1.5676727 0 0)
(1.54265 0 0)
(1.5161047 0 0)
(1.4879338 0 0)
(1.4580312 0 0)
(1.4262938 0 0)
(1.3926048 0 0)
(1.3568242 0 0)
(1.3188106 0 0)
(1.2784249 0 0)
(1.2355044 0 0)
(1.1898559 0 0)
(1.1412924 0 0)
(1.0896238 0 0)
(1.0346084 0 0)
(0.97599706 0 0)
(0.91352192 0 0)
(0.84689758 0 0)
(0.77583682 0 0)
(0.70000054 0 0)
(0.61900583 0 0)
(0.53246454 0 0)
(0.4399545 0 0)
(0.34097632 0 0)
(0.23498225 0 0)
(0.12138828 0 0)
(0 0 0)
(1.8689176 0 0)
(1.8631801 0 0)
(1.85699 0 0)
(1.850329 0 0)
(1.8431809 0 0)
(1.8355305 0 0)
(1.8273596 0 0)
(1.8186396 0 0)
(1.8093319 0 0)
(1.7993993 0 0)
(1.7888078 0 0)
(1.7775212 0 0)
(1.7654984 0 0)
(1.7526952 0 0)
(1.7390654 0 0)
(1.7245611 0 0)
(1.7091329 0 0)
(1.6927282 0 0)
(1.6752911 0 0)
(1.6567652 0 0)
(1.6370931 0 0)
(1.6162091 0 0)
(1.5940375 0 0)
(1.5705013 0 0)
(1.5455235 0 0)
(1.5190166 0 0)
(1.4908771 0 0)
(1.4609985 0 0)
(1.4292774 0 0)
(1.3955966 0 0)
(1.3598152 0 0)
(1.3217913 0 0)
(1.2813858 0 0)
(1.2384347 0 0)
(1.1927433 0 0)
(1.1441243 0 0)
(1.0923873 0 0)
(1.037289 0 0)
(0.97857934 0 0)
(0.9159892 0 0)
(0.84923177 0 0)
(0.77801833 0 0)
(0.70200745 0 0)
(0.62081449 0 0)
(0.53404893 0 0)
(0.44128626 0 0)
(0.34202524 0 0)
(0.23571504 0 0)
(0.12176976 0 0)
(0 0 0)
(1.8691905 0 0)
(1.8636612 0 0)
(1.8576716 0 0)
(1.8512025 0 0)
(1.8442378 0 0)
(1.836763 0 0)
(1.8287607 0 0)
(1.820201 0 0)
(1.8110466 0 0)
(1.801264 0 0)
(1.7908189 0 0)
(1.7796718 0 0)
(1.7677798 0 0)
(1.7551012 0 0)
(1.7415915 0 0)
(1.7272016 0 0)
(1.7118822 0 0)
(1.6955808 0 0)
(1.6782407 0 0)
(1.6598039 0 0)
(1.6402136 0 0)
(1.6194042 0 0)
(1.597299 0 0)
(1.5738215 0 0)
(1.5488959 0 0)
(1.5224338 0 0)
(1.4943305 0 0)
(1.4644792 0 0)
(1.4327769 0 0)
(1.3991055 0 0)
(1.3633228 0 0)
(1.3252864 0 0)
(1.2848574 0 0)
(1.2418704 0 0)
(1.1961287 0 0)
(1.1474443 0 0)
(1.095627 0 0)
(1.0404315 0 0)
(0.98160647 0 0)
(0.91888139 0 0)
(0.85196786 0 0)
(0.78057553 0 0)
(0.70435986 0 0)
(0.62293432 0 0)
(0.53590567 0 0)
(0.44284691 0 0)
(0.34325445 0 0)
(0.23657373 0 0)
(0.1222167 0 0)
(0 0 0)
(1.8694996 0 0)
(1.864208 0 0)
(1.858448 0 0)
(1.8521985 0 0)
(1.8454426 0 0)
(1.8381683 0 0)
(1.8303607 0 0)
(1.8219875 0 0)
(1.8130101 0 0)
(1.8033962 0 0)
(1.793114 0 0)
(1.782124 0 0)
(1.7703824 0 0)
(1.7578476 0 0)
(1.7444751 0 0)
(1.7302163 0 0)
(1.7150205 0 0)
(1.6988368 0 0)
(1.6816073 0 0)
(1.6632709 0 0)
(1.6437734 0 0)
(1.6230491 0 0)
(1.6010189 0 0)
(1.5776078 0 0)
(1.5527411 0 0)
(1.5263296 0 0)
(1.4982672 0 0)
(1.4684468 0 0)
(1.4367657 0 0)
(1.4031047 0 0)
(1.3673201 0 0)
(1.3292694 0 0)
(1.2888133 0 0)
(1.2457852 0 0)
(1.1999861 0 0)
(1.1512273 0 0)
(1.0993184 0 0)
(1.044012 0 0)
(0.98505561 0 0)
(0.92217672 0 0)
(0.85508521 0 0)
(0.78348892 0 0)
(0.70703996 0 0)
(0.62534922 0 0)
(0.5380207 0 0)
(0.44462452 0 0)
(0.34465449 0 0)
(0.2375517 0 0)
(0.12272566 0 0)
(0 0 0)
(1.8698446 0 0)
(1.8648222 0 0)
(1.8593221 0 0)
(1.8533197 0 0)
(1.8467998 0 0)
(1.8397538 0 0)
(1.8321652 0 0)
(1.8240012 0 0)
(1.815222 0 0)
(1.8057952 0 0)
(1.7956931 0 0)
(1.7848787 0 0)
(1.7733075 0 0)
(1.7609354 0 0)
(1.7477177 0 0)
(1.7336053 0 0)
(1.718546 0 0)
(1.702491 0 0)
(1.6853828 0 0)
(1.6671595 0 0)
(1.6477678 0 0)
(1.6271388 0 0)
(1.6051904 0 0)
(1.5818519 0 0)
(1.5570505 0 0)
(1.5306949 0 0)
(1.5026772 0 0)
(1.4728905 0 0)
(1.4412322 0 0)
(1.4075822 0 0)
(1.3717948 0 0)
(1.333727 0 0)
(1.29324 0 0)
(1.2501653 0 0)
(1.2043014 0 0)
(1.1554588 0 0)
(1.1034467 0 0)
(1.0480159 0 0)
(0.98891201 0 0)
(0.9258606 0 0)
(0.85856968 0 0)
(0.78674499 0 0)
(0.71003477 0 0)
(0.62804717 0 0)
(0.5403831 0 0)
(0.44660971 0 0)
(0.34621776 0 0)
(0.23864351 0 0)
(0.12329364 0 0)
(0 0 0)
(1.8690723 0 0)
(1.8643011 0 0)
(1.8590446 0 0)
(1.8532784 0 0)
(1.8469906 0 0)
(1.8401696 0 0)
(1.8327946 0 0)
(1.8248363 0 0)
(1.816256 0 0)
(1.8070199 0 0)
(1.7971014 0 0)
(1.7864656 0 0)
(1.7750692 0 0)
(1.7628654 0 0)
(1.7498087 0 0)
(1.7358509 0 0)
(1.72094 0 0)
(1.7050268 0 0)
(1.6880546 0 0)
(1.6699634 0 0)
(1.6506961 0 0)
(1.6301799 0 0)
(1.6083357 0 0)
(1.5850954 0 0)
(1.5603852 0 0)
(1.5341131 0 0)
(1.5061698 0 0)
(1.4764479 0 0)
(1.4448453 0 0)
(1.4112406 0 0)
(1.3754867 0 0)
(1.3374398 0 0)
(1.2969609 0 0)
(1.2538802 0 0)
(1.207994 0 0)
(1.159111 0 0)
(1.10704 0 0)
(1.05153 0 0)
(0.99232455 0 0)
(0.92914731 0 0)
(0.86170356 0 0)
(0.78969694 0 0)
(0.71277177 0 0)
(0.63053284 0 0)
(0.54257738 0 0)
(0.44846969 0 0)
(0.34769699 0 0)
(0.23969022 0 0)
(0.12385281 0 0)
(0 0 0)
(1.8685406 0 0)
(1.8622277 0 0)
(1.855484 0 0)
(1.8482923 0 0)
(1.840635 0 0)
(1.8324946 0 0)
(1.8238511 0 0)
(1.8146752 0 0)
(1.8049268 0 0)
(1.7945669 0 0)
(1.7835622 0 0)
(1.771879 0 0)
(1.759477 0 0)
(1.7463111 0 0)
(1.7323341 0 0)
(1.7174981 0 0)
(1.701755 0 0)
(1.6850531 0 0)
(1.6673382 0 0)
(1.6485551 0 0)
(1.6286462 0 0)
(1.6075455 0 0)
(1.5851785 0 0)
(1.5614681 0 0)
(1.5363371 0 0)
(1.5096981 0 0)
(1.4814496 0 0)
(1.4514872 0 0)
(1.4197083 0 0)
(1.3859961 0 0)
(1.3502123 0 0)
(1.3122173 0 0)
(1.2718728 0 0)
(1.2290178 0 0)
(1.1834627 0 0)
(1.1350222 0 0)
(1.0835047 0 0)
(1.0286731 0 0)
(0.97027956 0 0)
(0.90805821 0 0)
(0.84172822 0 0)
(0.77100537 0 0)
(0.69555552 0 0)
(0.61499936 0 0)
(0.52895484 0 0)
(0.43700445 0 0)
(0.33865308 0 0)
(0.23335968 0 0)
(0.12054399 0 0)
(0 0 0)
(1.8684654 0 0)
(1.8621654 0 0)
(1.8554343 0 0)
(1.8482548 0 0)
(1.8406097 0 0)
(1.832482 0 0)
(1.823852 0 0)
(1.8146901 0 0)
(1.8049561 0 0)
(1.7946104 0 0)
(1.7836197 0 0)
(1.77195 0 0)
(1.7595611 0 0)
(1.746408 0 0)
(1.7324433 0 0)
(1.717619 0 0)
(1.7018869 0 0)
(1.6851954 0 0)
(1.6674899 0 0)
(1.6487153 0 0)
(1.6288143 0 0)
(1.607721 0 0)
(1.5853608 0 0)
(1.5616563 0 0)
(1.5365302 0 0)
(1.5098958 0 0)
(1.4816512 0 0)
(1.4516915 0 0)
(1.4199145 0 0)
(1.3862035 0 0)
(1.3504203 0 0)
(1.3124248 0 0)
(1.2720787 0 0)
(1.2292214 0 0)
(1.1836629 0 0)
(1.1352176 0 0)
(1.0836946 0 0)
(1.0288565 0 0)
(0.97045536 0 0)
(0.9082256 0 0)
(0.84188602 0 0)
(0.77115225 0 0)
(0.69569007 0 0)
(0.61512012 0 0)
(0.52906002 0 0)
(0.43709242 0 0)
(0.33872195 0 0)
(0.23340739 0 0)
(0.12056853 0 0)
(0 0 0)
(1.8684089 0 0)
(1.8621547 0 0)
(1.8554676 0 0)
(1.8483305 0 0)
(1.8407266 0 0)
(1.832639 0 0)
(1.8240483 0 0)
(1.8149253 0 0)
(1.8052294 0 0)
(1.7949206 0 0)
(1.7839656 0 0)
(1.7723305 0 0)
(1.7599749 0 0)
(1.7468537 0 0)
(1.7329196 0 0)
(1.7181248 0 0)
(1.7024205 0 0)
(1.6857551 0 0)
(1.6680741 0 0)
(1.6493224 0 0)
(1.6294423 0 0)
(1.6083684 0 0)
(1.586026 0 0)
(1.5623374 0 0)
(1.5372254 0 0)
(1.5106031 0 0)
(1.482369 0 0)
(1.4524178 0 0)
(1.4206467 0 0)
(1.3869394 0 0)
(1.3511579 0 0)
(1.3131614 0 0)
(1.2728117 0 0)
(1.2299477 0 0)
(1.1843794 0 0)
(1.1359207 0 0)
(1.0843812 0 0)
(1.0295228 0 0)
(0.97109763 0 0)
(0.90883985 0 0)
(0.84246751 0 0)
(0.77169598 0 0)
(0.69619071 0 0)
(0.61557166 0 0)
(0.52945566 0 0)
(0.43742513 0 0)
(0.33898405 0 0)
(0.23359048 0 0)
(0.12066377 0 0)
(0 0 0)
(1.8684313 0 0)
(1.8622569 0 0)
(1.8556466 0 0)
(1.8485832 0 0)
(1.8410501 0 0)
(1.8330306 0 0)
(1.8245059 0 0)
(1.8154467 0 0)
(1.8058126 0 0)
(1.795564 0 0)
(1.7846671 0 0)
(1.7730876 0 0)
(1.7607854 0 0)
(1.7477156 0 0)
(1.7338307 0 0)
(1.7190826 0 0)
(1.7034229 0 0)
(1.6867995 0 0)
(1.6691577 0 0)
(1.6504423 0 0)
(1.6305959 0 0)
(1.6095528 0 0)
(1.5872384 0 0)
(1.5635747 0 0)
(1.5384847 0 0)
(1.5118815 0 0)
(1.4836632 0 0)
(1.4537243 0 0)
(1.4219618 0 0)
(1.3882595 0 0)
(1.3524789 0 0)
(1.314479 0 0)
(1.2741214 0 0)
(1.2312447 0 0)
(1.185658 0 0)
(1.1371749 0 0)
(1.0856055 0 0)
(1.0307105 0 0)
(0.972242 0 0)
(0.90993365 0 0)
(0.84350264 0 0)
(0.77266367 0 0)
(0.69708114 0 0)
(0.61637442 0 0)
(0.53015909 0 0)
(0.43801649 0 0)
(0.33944988 0 0)
(0.23391593 0 0)
(0.12083312 0 0)
(0 0 0)
(1.8685283 0 0)
(1.8624672 0 0)
(1.8559659 0 0)
(1.8490069 0 0)
(1.8415738 0 0)
(1.8336502 0 0)
(1.8252176 0 0)
(1.8162471 0 0)
(1.8066988 0 0)
(1.796533 0 0)
(1.7857161 0 0)
(1.7742133 0 0)
(1.7619846 0 0)
(1.748985 0 0)
(1.7351673 0 0)
(1.7204836 0 0)
(1.7048849 0 0)
(1.6883189 0 0)
(1.6707309 0 0)
(1.6520656 0 0)
(1.6322651 0 0)
(1.611264 0 0)
(1.5889875 0 0)
(1.5653579 0 0)
(1.5402976 0 0)
(1.5137201 0 0)
(1.4855229 0 0)
(1.4556003 0 0)
(1.4238491 0 0)
(1.3901528 0 0)
(1.3543725 0 0)
(1.316367 0 0)
(1.2759973 0 0)
(1.2331016 0 0)
(1.1874881 0 0)
(1.13897 0 0)
(1.0873574 0 0)
(1.03241 0 0)
(0.97387928 0 0)
(0.91149832 0 0)
(0.84498305 0 0)
(0.77404738 0 0)
(0.69835434 0 0)
(0.61752206 0 0)
(0.53116459 0 0)
(0.43886175 0 0)
(0.34011568 0 0)
(0.23438103 0 0)
(0.12107525 0 0)
(0 0 0)
(1.8686933 0 0)
(1.8627782 0 0)
(1.8564173 0 0)
(1.8495927 0 0)
(1.8422881 0 0)
(1.8344878 0 0)
(1.8261733 0 0)
(1.8173161 0 0)
(1.8078767 0 0)
(1.7978167 0 0)
(1.7871016 0 0)
(1.7756962 0 0)
(1.7635606 0 0)
(1.7506501 0 0)
(1.7369176 0 0)
(1.7223151 0 0)
(1.7067937 0 0)
(1.6903008 0 0)
(1.672781 0 0)
(1.6541788 0 0)
(1.6344366 0 0)
(1.6134887 0 0)
(1.5912599 0 0)
(1.5676727 0 0)
(1.54265 0 0)
(1.5161047 0 0)
(1.4879338 0 0)
(1.4580312 0 0)
(1.4262938 0 0)
(1.3926048 0 0)
(1.3568242 0 0)
(1.3188106 0 0)
(1.2784249 0 0)
(1.2355044 0 0)
(1.1898559 0 0)
(1.1412924 0 0)
(1.0896238 0 0)
(1.0346084 0 0)
(0.97599706 0 0)
(0.91352192 0 0)
(0.84689758 0 0)
(0.77583682 0 0)
(0.70000054 0 0)
(0.61900583 0 0)
(0.53246454 0 0)
(0.4399545 0 0)
(0.34097632 0 0)
(0.23498225 0 0)
(0.12138828 0 0)
(0 0 0)
(1.8689176 0 0)
(1.8631801 0 0)
(1.85699 0 0)
(1.850329 0 0)
(1.8431809 0 0)
(1.8355305 0 0)
(1.8273596 0 0)
(1.8186396 0 0)
(1.8093319 0 0)
(1.7993993 0 0)
(1.7888078 0 0)
(1.7775212 0 0)
(1.7654984 0 0)
(1.7526952 0 0)
(1.7390654 0 0)
(1.7245611 0 0)
(1.7091329 0 0)
(1.6927282 0 0)
(1.6752911 0 0)
(1.6567652 0 0)
(1.6370931 0 0)
(1.6162091 0 0)
(1.5940375 0 0)
(1.5705013 0 0)
(1.5455235 0 0)
(1.5190166 0 0)
(1.4908771 0 0)
(1.4609985 0 0)
(1.4292774 0 0)
(1.3955966 0 0)
(1.3598152 0 0)
(1.3217913 0 0)
(1.2813858 0 0)
(1.2384347 0 0)
(1.1927433 0 0)
(1.1441243 0 0)
(1.0923873 0 0)
(1.037289 0 0)
(0.97857934 0 0)
(0.9159892 0 0)
(0.84923177 0 0)
(0.77801833 0 0)
(0.70200745 0 0)
(0.62081449 0 0)
(0.53404893 0 0)
(0.44128626 0 0)
(0.34202524 0 0)
(0.23571504 0 0)
(0.12176976 0 0)
(0 0 0)
(1.8691905 0 0)
(1.8636612 0 0)
(1.8576716 0 0)
(1.8512025 0 0)
(1.8442378 0 0)
(1.836763 0 0)
(1.8287607 0 0)
(1.820201 0 0)
(1.8110466 0 0)
(1.801264 0 0)
(1.7908189 0 0)
(1.7796718 0 0)
(1.7677798 0 0)
(1.7551012 0 0)
(1.7415915 0 0)
(1.7272016 0 0)
(1.7118822 0 0)
(1.6955808 0 0)
(1.6782407 0 0)
(1.6598039 0 0)
(1.6402136 0 0)
(1.6194042 0 0)
(1.597299 0 0)
(1.5738215 0 0)
(1.5488959 0 0)
(1.5224338 0 0)
(1.4943305 0 0)
(1.4644792 0 0)
(1.4327769 0 0)
(1.3991055 0 0)
(1.3633228 0 0)
(1.3252864 0 0)
(1.2848574 0 0)
(1.2418704 0 0)
(1.1961287 0 0)
(1.1474443 0 0)
(1.095627 0 0)
(1.0404315 0 0)
(0.98160647 0 0)
(0.91888139 0 0)
(0.85196786 0 0)
(0.78057553 0 0)
(0.70435986 0 0)
(0.62293432 0 0)
(0.53590567 0 0)