/*--------------------------------*- C++ -*----------------------------------*\
| =========                 |                                                 |
| \\      /  F ield         | OpenFOAM: The Open Source CFD Toolbox           |
|  \\    /   O peration     | Version:  v2012                                 |
|   \\  /    A nd           | Website:  www.openfoam.com                      |
|    \\/     M anipulation  |                                                 |
\*---------------------------------------------------------------------------*/
FoamFile
{
    version     2.0;
    format      ascii;
    class       volVectorField;
    location    "101.881115955756229";
    object      U;
}
// * * * * * * * * * * * * * * * * * * * * * * * * * * * * * * * * * * * * * //

dimensions      [0 1 -1 0 0 0 0];


internalField   nonuniform List<vector> 
9200
(
(2.673131 0.00096915175 -4.6674079e-22)
(2.6746739 0.0029332933 -3.5865763e-21)
(2.6703297 0.0013366039 -4.5271096e-22)
(2.6771836 0.0051177942 8.5377149e-22)
(2.6715561 0.0042969346 -1.1737824e-21)
(2.6682334 0.0014005799 0)
(2.6809498 0.0072969661 2.1601531e-21)
(2.6736273 0.0074473023 6.8320135e-22)
(2.6691895 0.0045391434 1.209487e-21)
(2.6658789 0.0014080564 9.9332362e-22)
(2.6857405 0.0099332885 3.9346593e-22)
(2.676704 0.010842523 1.7530816e-21)
(2.6708497 0.0078776416 -1.558745e-22)
(2.6665379 0.0045551745 4.7395216e-23)
(2.6637437 0.0013042261 3.7388323e-22)
(2.6917085 0.012710224 2.7769155e-22)
(2.6806014 0.014949334 5.918961e-22)
(2.673254 0.011537316 -1.9327579e-21)
(2.6677331 0.0079233298 -4.5789477e-22)
(2.6641317 0.0041584613 1.6217248e-22)
(2.6619303 0.0011117399 -7.527764e-22)
(2.6988231 0.015927902 -4.6626187e-21)
(2.6854788 0.01960524 -4.9864541e-22)
(2.6762366 0.015999629 -8.7000006e-22)
(2.6693801 0.011643341 -1.7186924e-21)
(2.6648837 0.0072676805 5.8944186e-23)
(2.662089 0.0034534923 3.0082193e-22)
(2.660548 0.00084460573 -7.9915775e-22)
(2.7072267 0.019390241 -1.0539315e-21)
(2.6912925 0.025205819 -1.7285442e-21)
(2.6798844 0.021155551 -9.0554444e-22)
(2.6713328 0.016211124 -6.6564527e-22)
(2.6658069 0.010687938 2.9584779e-22)
(2.6624553 0.0060897131 -5.1344893e-23)
(2.6605284 0.0025091819 6.6684257e-22)
(2.6596525 0.0005318531 6.4502249e-22)
(2.7170091 0.023182146 -1.4753853e-22)
(2.6982157 0.031721079 1.0685032e-21)
(2.6841056 0.027437007 1.8048022e-21)
(2.6736049 0.021541238 -7.734706e-22)
(2.6667733 0.01492725 0)
(2.6627511 0.0089450736 -2.0988763e-22)
(2.6605968 0.0045092876 -2.1836177e-22)
(2.659512 0.0014296127 -4.1417807e-22)
(2.6592655 0.00021094147 2.1861906e-22)
(2.7283354 0.027178777 2.1989402e-22)
(2.7063462 0.039404416 0)
(2.6889765 0.034885236 5.4989864e-22)
(2.6760497 0.02807377 1.5472834e-21)
(2.6677244 0.019880662 3.0396532e-22)
(2.662869 0.012538091 -6.0886203e-22)
(2.6604023 0.0066001655 -7.3856425e-23)
(2.6593792 0.0026975932 -4.6600035e-22)
(2.659061 0.00031686185 -4.5770245e-22)
(2.6593281 -6.2971708e-05 -3.2005635e-22)
(2.7413715 0.031316139 -1.1742336e-21)
(2.7158982 0.048354144 -1.1315953e-21)
(2.6944944 0.043824655 5.5272889e-22)
(2.6786463 0.03587585 1.3073483e-21)
(2.6684673 0.025959917 -1.2940248e-21)
(2.6626975 0.016718463 1.3438633e-22)
(2.6598609 0.0093147347 1.2537551e-23)
(2.6588539 0.003897576 -2.1892168e-22)
(2.6588186 0.00081931945 1.2415993e-22)
(2.659115 -0.00075290081 -1.6119432e-22)
(2.6597615 -0.00021987121 -1.8653849e-24)
(2.7563185 0.035448334 -2.322297e-21)
(2.7270961 0.058758944 -2.8724022e-21)
(2.7007285 0.054457839 2.4965888e-22)
(2.6812789 0.045283946 3.2852319e-22)
(2.6688971 0.033198743 -9.9541553e-22)
(2.6620229 0.021853011 -9.2275495e-22)
(2.6588269 0.012445676 -4.862952e-22)
(2.6578598 0.0055981721 1.3649973e-22)
(2.6581265 0.0010718495 -2.2392581e-23)
(2.6588805 -0.00099001266 -5.8599064e-23)
(2.6596297 -0.0017098878 1.683028e-23)
(2.6604835 -0.00035697569 0)
(2.7733893 0.039404962 0)
(2.7402383 0.070778977 -1.8499454e-21)
(2.7077367 0.067099459 -1.4177422e-21)
(2.6838619 0.056523019 -2.9360641e-21)
(2.6688065 0.041869887 -3.1710048e-22)
(2.6607028 0.027912556 6.0284782e-22)
(2.6570904 0.016319521 8.2454406e-23)
(2.6562367 0.0075298805 7.8515483e-22)
(2.6568764 0.0017022691 -3.7275483e-22)
(2.65818 -0.0016659365 7.3680475e-24)
(2.6594899 -0.0026086025 1.9256907e-22)
(2.6605395 -0.0024769418 1.4084233e-22)
(2.6614109 -0.00047344311 3.6754352e-22)
(2.7928024 0.042977214 0)
(2.7556655 0.084591292 2.2769712e-21)
(2.7156102 0.082074034 2.5627676e-21)
(2.6862599 0.069928319 0)
(2.6679856 0.052113892 -1.8501419e-21)
(2.6585021 0.035072683 5.4652634e-22)
(2.6545152 0.020846668 7.3987581e-22)
(2.6537901 0.0099978905 1.3714874e-22)
(2.6549177 0.0023812668 1.0366252e-22)
(2.6568575 -0.0020989163 3.2190646e-22)
(2.6589281 -0.0041387298 -1.9012477e-22)
(2.6605497 -0.0039302224 -6.5208642e-24)
(2.6617048 -0.0030035902 -6.1353382e-23)
(2.6624449 -0.00053734665 1.6848554e-22)
(2.8147842 0.045907145 0)
(2.7737562 0.10036909 2.1357753e-21)
(2.7244498 0.099762216 5.7459261e-21)
(2.6883175 0.085855443 -1.2223636e-21)
(2.6661461 0.064143978 5.3501661e-21)
(2.6551814 0.043342422 3.8985002e-22)
(2.6508993 0.026118378 -1.5761634e-22)
(2.6504176 0.012877369 2.29731e-21)
(2.6520578 0.0034118508 -7.5969433e-22)
(2.6547894 -0.002660189 5.2744742e-23)
(2.6577133 -0.0055814935 -3.9455376e-22)
(2.6602665 -0.0062079634 4.3910176e-22)
(2.6619514 -0.0048885141 -2.3004048e-23)
(2.6630101 -0.0032689545 -2.399036e-22)
(2.6634846 -0.00053727567 -1.3901812e-21)
(2.8396528 0.047951095 3.5076879e-21)
(2.7949499 0.11829201 2.331214e-21)
(2.7343566 0.12059052 -1.8949142e-21)
(2.6898343 0.10472832 6.6349483e-21)
(2.6629371 0.078155698 -4.9982947e-21)
(2.6504274 0.052751757 -3.9393419e-22)
(2.6460604 0.032032269 -3.1075982e-22)
(2.6459841 0.016218802 1.7672304e-21)
(2.6482368 0.0046685002 -8.0169088e-22)
(2.6517561 -0.0030403987 3.9435921e-22)
(2.6557381 -0.0073322044 1.5707758e-22)
(2.6593342 -0.0085728532 -9.876977e-22)
(2.662081 -0.007776311 5.5525096e-22)
(2.6635827 -0.0054499045 8.3961408e-23)
(2.6643586 -0.0032697118 3.6821047e-22)
(2.6644446 -0.00047340957 -5.2819237e-22)
(2.8678597 0.048709578 -1.7433296e-21)
(2.8201035 0.13846448 5.7281214e-22)
(2.745505 0.14502927 -5.908265e-22)
(2.6905524 0.12703571 3.1478404e-21)
(2.6579174 0.094367514 1.811926e-23)
(2.6438669 0.063255335 4.2375293e-21)
(2.6397765 0.038468105 0)
(2.6404143 0.019870542 -2.6886707e-21)
(2.6433838 0.0062121519 2.5483919e-21)
(2.6477304 -0.0033329803 -7.4358407e-22)
(2.6527385 -0.009077783 9.7539089e-23)
(2.6576467 -0.011439688 -5.5392273e-22)
(2.6615993 -0.010949685 3.891909e-22)
(2.6642473 -0.0087845562 -7.3744412e-22)
(2.6653319 -0.0055970046 -3.8112151e-22)
(2.6656486 -0.0030155372 8.7974407e-22)
(2.6652772 -0.00035129248 1.551752e-21)
(2.898521 0.047991202 -1.1409764e-21)
(2.8498613 0.16078727 2.2720893e-21)
(2.7585624 0.17355052 1.6603462e-22)
(2.6902176 0.15332826 -1.6664069e-20)
(2.6505433 0.11301496 6.7183155e-24)
(2.6350431 0.074761463 -4.5111938e-21)
(2.6318036 0.045189521 5.1593985e-22)
(2.6336388 0.023648368 -5.6911772e-21)
(2.6375336 0.0079150915 1.1450295e-21)
(2.6426717 -0.0034282843 5.6678899e-22)
(2.6486866 -0.0108612 -6.3953671e-22)
(2.6548826 -0.014503027 6.6809192e-22)
(2.6604006 -0.014838713 -3.0084252e-23)
(2.6643818 -0.012628813 5.8290744e-22)
(2.6666395 -0.0092037594 -5.4283326e-22)
(2.6670931 -0.0053318852 9.9759603e-23)
(2.6667966 -0.0025281936 2.4907042e-22)
(2.6659147 -0.00014417677 9.7583053e-22)
(2.9259001 0.046418372 4.0126576e-21)
(2.8809559 0.18563044 -1.008803e-21)
(2.7736711 0.20669202 -1.5050307e-21)
(2.6889217 0.18423274 2.9637823e-22)
(2.6401804 0.13434123 -2.2117973e-21)
(2.6234133 0.087116637 5.3380758e-21)
(2.621861 0.051868658 6.8701882e-21)
(2.6256192 0.027239693 5.2105051e-22)
(2.6307696 0.0096268404 -7.5846395e-22)
(2.6366902 -0.0033684016 1.1838256e-21)
(2.6435297 -0.012509075 7.4567567e-22)
(2.6509752 -0.017758151 1.3079135e-21)
(2.6580896 -0.019167967 7.2491565e-22)
(2.6638801 -0.017422168 1.0701919e-22)
(2.6675487 -0.013558872 1.4448457e-22)
(2.6691338 -0.0090292525 -2.2088983e-23)
(2.6687653 -0.0046711526 8.8593617e-23)
(2.6677408 -0.001840352 1.872034e-22)
(2.6662108 0.00019021456 -7.5477684e-22)
(2.939972 0.044114472 8.2851948e-21)
(2.9077225 0.21428899 -2.2202158e-22)
(2.7853366 0.24530205 5.4981078e-21)
(2.6862213 0.22062473 2.0143388e-20)
(2.6262686 0.15864168 1.1418684e-20)
(2.6083389 0.10009473 1.594908e-20)
(2.6096349 0.058070324 -2.057953e-21)
(2.6163372 0.030226798 5.4993059e-21)
(2.6232592 0.011084028 -4.7221578e-21)
(2.6299715 -0.0031908172 3.8865123e-21)
(2.6373908 -0.013943688 -9.745255e-22)
(2.6458182 -0.020974663 -1.5935503e-21)
(2.6545371 -0.023902579 -2.614788e-21)
(2.6622677 -0.022946849 4.055406e-22)
(2.6679546 -0.019109491 -2.1114271e-21)
(2.6709606 -0.013713986 -1.3714368e-21)
(2.6716108 -0.0082748496 2.8273334e-23)
(2.6702565 -0.0036403825 1.1479336e-21)
(2.6684373 -0.00097405719 -1.780824e-21)
(2.6662664 0.00051699984 1.263119e-22)
(2.9396918 0.040279599 -3.1042866e-21)
(2.928268 0.2475659 -4.0237655e-20)
(2.7834498 0.29024936 1.9785469e-21)
(2.6766997 0.26324541 1.3948283e-21)
(2.607985 0.1864083 1.4599301e-20)
(2.5891297 0.11341716 -1.1188629e-21)
(2.5947777 0.063259101 -1.9536833e-20)
(2.6057939 0.032076662 -2.2202634e-21)
(2.615242 0.011927382 6.3275054e-21)
(2.6228275 -0.0030062409 3.6124137e-21)
(2.6304795 -0.015050224 -1.0147957e-21)
(2.6394803 -0.023958798 -2.3915217e-21)
(2.6495471 -0.0287822 2.5334172e-21)
(2.6593419 -0.029163893 -2.2320496e-21)
(2.6673098 -0.025722617 -1.2415475e-21)
(2.6724768 -0.019841245 -2.2824711e-21)
(2.6744733 -0.013089475 -7.648264e-22)
(2.6739573 -0.0069677829 -1.3208042e-22)
(2.6714886 -0.0022753195 3.5559201e-22)
(2.6688376 7.4619611e-05 -1.5067347e-21)
(2.6660412 0.00085076262 -4.1443202e-23)
(2.9321734 0.039042253 -1.3942256e-20)
(2.9293033 0.285478 3.5726048e-20)
(2.7667454 0.34345493 -5.00882e-21)
(2.6503923 0.31144825 -2.7853963e-20)
(2.5819201 0.21785742 -2.6579542e-20)
(2.5650386 0.12679879 -2.4853336e-20)
(2.5769226 0.066791113 1.5341e-20)
(2.5940129 0.032164464 0)
(2.6070246 0.011695283 -3.1113863e-21)
(2.6156772 -0.0029910626 1.1543812e-21)
(2.6231502 -0.015735222 2.5179178e-21)
(2.6321122 -0.026447509 -1.2668965e-21)
(2.6430825 -0.033529582 1.9456351e-21)
(2.6547963 -0.035822697 -2.9451811e-21)
(2.6653411 -0.033384196 2.09299e-21)
(2.6730772 -0.027385285 -1.9408425e-21)
(2.677281 -0.0195782 2.5227943e-21)
(2.6779411 -0.011699782 -1.5262519e-21)
(2.6760678 -0.0051461597 -3.2811026e-22)
(2.6723998 -0.00061952497 -5.0289627e-22)
(2.6688927 0.0012787643 1.0925911e-21)
(2.6654266 0.001258889 -2.767991e-21)
(2.8994123 0.044996444 -5.693002e-21)
(2.8784514 0.32622143 9.5900144e-20)
(2.737581 0.40556918 -5.7697899e-21)
(2.6061216 0.36454332 6.5879267e-21)
(2.5416501 0.2514252 6.4852221e-21)
(2.5347595 0.13976797 -1.0638383e-20)
(2.5557215 0.067935047 3.4610693e-20)
(2.5810374 0.02974142 -1.4444197e-20)
(2.5989776 0.0098429767 -3.7253717e-21)
(2.6090468 -0.0033916705 -1.5458767e-21)
(2.6158788 -0.015927864 5.4247236e-21)
(2.6240053 -0.028148147 -2.1451809e-21)
(2.6351691 -0.037773305 -4.3121479e-21)
(2.6484599 -0.042611443 5.6384739e-21)
(2.6616292 -0.041896592 -6.3431186e-21)
(2.6724336 -0.036383132 1.7878735e-21)
(2.6793917 -0.027837846 1.1932741e-21)
(2.6821855 -0.018303279 1.392461e-21)
(2.681222 -0.0095776611 1.8349193e-22)
(2.6778484 -0.0028581168 8.5922324e-22)
(2.6729476 0.0012834554 -2.5181782e-21)
(2.6685847 0.0025827313 3.2639107e-22)
(2.6645156 0.0016637635 8.2146456e-23)
(2.8467792 0.056239051 -6.7938691e-21)
(2.8062731 0.36821524 9.7719289e-20)
(2.6899497 0.46864104 9.39526e-21)
(2.5547689 0.42204655 9.9387974e-21)
(2.4858866 0.28449555 1.1560799e-20)
(2.4958516 0.15072312 1.1724764e-20)
(2.5308251 0.065892414 -2.2699602e-20)
(2.5670186 0.024057926 3.1654982e-21)
(2.5915103 0.0057180205 3.3770075e-21)
(2.6035633 -0.0045102741 -7.3715065e-21)
(2.6092672 -0.015574273 5.7873719e-21)
(2.615568 -0.028746216 -7.7406271e-22)
(2.6259536 -0.04106939 -2.3802887e-22)
(2.640195 -0.049110616 4.2854214e-22)
(2.6558634 -0.050966659 -1.6298613e-21)
(2.6700275 -0.046730329 6.7513069e-21)
(2.6804476 -0.037975889 6.0767808e-23)
(2.6860369 -0.027006084 -4.920626e-22)
(2.687 -0.016025124 1.9385072e-21)
(2.684182 -0.0067731344 4.7787139e-22)
(2.6792224 -0.00016130939 2.8348961e-21)
(2.6731006 0.0033912352 -4.9244207e-22)
(2.6679114 0.0039617596 -1.2752775e-22)
(2.6632845 0.0020750603 1.9136436e-21)
(2.7806141 0.070831987 3.6689546e-21)
(2.7269264 0.41069955 -1.0604792e-19)
(2.6265936 0.5249723 8.3101302e-21)
(2.5030646 0.4801529 -7.2971446e-22)
(2.4234712 0.31635313 -9.4731662e-21)
(2.4465748 0.15705131 -5.1417286e-21)
(2.5020988 0.059597404 -1.3711976e-20)
(2.5518883 0.01426794 8.4112263e-21)
(2.5852408 -0.0012385356 -1.9530725e-21)
(2.5999223 -0.0066873061 2.0846303e-21)
(2.6040306 -0.014632222 -2.7276589e-21)
(2.6073274 -0.027899634 -4.1428634e-23)
(2.6156809 -0.042920465 9.4703788e-22)
(2.6299587 -0.054797863 -1.2196592e-21)
(2.647733 -0.060191778 4.8192632e-21)
(2.6654223 -0.058201755 -7.6668126e-21)
(2.6798576 -0.050014068 2.0521479e-21)
(2.6891388 -0.037995965 -2.7465509e-21)
(2.6927666 -0.024848994 8.5366473e-22)
(2.6915347 -0.012781286 1.6658784e-22)
(2.6866991 -0.0033527731 1.5336471e-21)
(2.6801307 0.0028759988 -2.4312199e-21)
(2.6728334 0.0056560969 2.9348725e-21)
(2.6668729 0.0053978366 0)
(2.6617446 0.0024951909 1.293904e-21)
(2.7047227 0.088586603 6.0268722e-21)
(2.6354336 0.45168413 -1.172272e-19)
(2.5544989 0.57545961 1.2987676e-20)
(2.448216 0.53436382 1.3428573e-20)
(2.3633625 0.34791646 -1.9882406e-22)
(2.3895266 0.15751403 1.9530412e-22)
(2.4691056 0.04755018 4.5895132e-21)
(2.5360668 -0.00039136592 -1.8037614e-21)
(2.5802882 -0.011799363 2.4655528e-22)
(2.5984559 -0.010368796 -2.3026451e-22)
(2.6009748 -0.013057912 -1.8740098e-21)
(2.5999126 -0.025241132 2.085251e-21)
(2.6046929 -0.042767614 5.5610765e-23)
(2.6177817 -0.05907815 -7.150173e-21)
(2.6369944 -0.069045621 3.0678324e-21)
(2.6581454 -0.07047065 -2.1276831e-21)
(2.6770874 -0.063836551 -4.4410533e-21)
(2.6908643 -0.051444092 -5.6319542e-21)
(2.6982015 -0.036317055 -1.7210891e-21)
(2.6993189 -0.021368099 -4.5220267e-21)
(2.6956082 -0.0086390432 -3.4068652e-21)
(2.6886723 0.00059994149 -5.2465142e-22)
(2.6805275 0.0061818047 -1.0358882e-21)
(2.6721367 0.0080299093 -2.4710442e-21)
(2.6654822 0.0068623617 1.8213185e-22)
(2.6599176 0.002913055 -5.9755409e-21)
(2.6246899 0.10891543 7.855055e-21)
(2.5375431 0.48912204 -3.6535402e-20)
(2.4771961 0.61861038 -5.3338427e-20)
(2.3896821 0.58266842 3.0579885e-20)
(2.3078047 0.37884853 8.0426571e-22)
(2.330928 0.15339695 1.6771543e-21)
(2.4316723 0.028365267 -1.5790407e-21)
(2.5199336 -0.020573981 1.170261e-21)
(2.5773324 -0.026790307 4.5013294e-21)
(2.6010907 -0.015931302 2.6604194e-21)
(2.6008394 -0.011013347 2.1217941e-23)
(2.5940286 -0.020413205 -3.1860555e-22)
(2.5934102 -0.040016237 1.0003462e-21)
(2.6037708 -0.061280867 -1.4715519e-22)
(2.6234574 -0.076919857 -1.6198972e-21)
(2.6477656 -0.083070724 -8.8725605e-21)
(2.6715288 -0.079242365 -2.1433873e-21)
(2.6906203 -0.067375278 1.5168874e-20)
(2.7026842 -0.05076132 1.5998873e-21)
(2.7072864 -0.032871314 -4.3991952e-22)
(2.705432 -0.016613309 -8.3427119e-22)
(2.6990571 -0.0036940121 2.6474553e-22)
(2.6900269 0.0049879729 -1.8992018e-21)
(2.6803879 0.0096838531 3.9483834e-21)
(2.6710159 0.010466195 -3.6349011e-22)
(2.6637587 0.0083294864 -9.1597623e-21)
(2.6578268 0.003321702 -1.0327266e-21)
(2.5451409 0.13121376 -7.3250765e-20)
(2.4395879 0.52215583 -3.6595844e-20)
(2.4002769 0.65432079 -6.5393664e-20)
(2.3313858 0.62389482 -5.665273e-20)
(2.2578006 0.40707663 5.0251816e-20)
(2.2765109 0.14655879 -2.0727874e-20)
(2.3912757 0.0021441591 1.170227e-21)
(2.5035156 -0.047067867 0)
(2.5768889 -0.046686815 1.7651585e-21)
(2.6077181 -0.023849949 3.3819357e-21)
(2.6048508 -0.0083759052 8.2561123e-22)
(2.5907061 -0.013032038 -1.7292998e-21)
(2.5822981 -0.034056781 1.4633629e-20)
(2.5880873 -0.060700818 3.6608016e-21)
(2.6069946 -0.083126893 -1.0941515e-20)
(2.6338866 -0.095445879 6.908573e-21)
(2.6625868 -0.095877943 1.1004235e-21)
(2.6877005 -0.085755679 3.9490951e-21)
(2.7056104 -0.068367032 3.3481545e-21)
(2.7148691 -0.047782464 -2.7225787e-21)
(2.7160249 -0.027662892 2.8436045e-21)
(2.7108571 -0.010683142 7.3292132e-21)
(2.7017491 0.0019304574 -2.533173e-21)
(2.6907076 0.0097075408 3.382752e-21)
(2.6797072 0.013307083 -3.6562791e-21)
(2.6694867 0.012920287 2.7298196e-21)
(2.6617265 0.0097768253 3.7158564e-22)
(2.6554999 0.0037140601 2.8048276e-21)
(2.4694174 0.15482995 4.1734586e-20)
(2.3461753 0.55025559 4.3234634e-20)
(2.3287044 0.68248037 3.1642606e-21)
(2.2769323 0.65722617 -2.8411211e-20)
(2.2151958 0.43082793 -6.450836e-20)
(2.2299031 0.13768197 -2.4257494e-20)
(2.3512729 -0.029950885 -8.8475328e-22)
(2.4867329 -0.080272307 6.9773754e-21)
(2.5793656 -0.071981782 1.8583261e-20)
(2.6191366 -0.034625849 5.2059364e-21)
(2.6136788 -0.0050101111 -4.2071212e-21)
(2.5899326 -0.0026252165 -3.0976649e-23)
(2.5718686 -0.02417823 -4.8134977e-21)
(2.5709239 -0.056604037 -1.667451e-21)
(2.5875311 -0.086950299 -7.0666709e-21)
(2.6161734 -0.10695141 1.5113942e-22)
(2.6496801 -0.11328883 -2.8519824e-23)
(2.6813777 -0.10639058 4.2328614e-21)
(2.706224 -0.089300187 -1.1586958e-21)
(2.7215055 -0.066453252 -3.0141888e-21)
(2.7269178 -0.042423603 -3.6481217e-21)
(2.7240535 -0.020774273 -3.599863e-21)
(2.7153761 -0.0037219335 2.7766544e-21)
(2.7035882 0.0080893462 -1.873636e-21)
(2.6906846 0.014650086 4.5514556e-21)
(2.6784955 0.01697925 -6.9763657e-21)
(2.6675742 0.015351135 -4.2672042e-22)
(2.6594143 0.011184314 2.661752e-21)
(2.6529656 0.0040907925 -4.1799538e-21)
(2.400157 0.17913561 6.9764894e-20)
(2.2604543 0.57344664 1.4373987e-20)
(2.2657765 0.70352247 -4.6055129e-20)
(2.2291576 0.68281102 9.4178069e-20)
(2.1802219 0.44956754 5.3265896e-20)
(2.1928619 0.12720566 4.6788399e-20)
(2.3154873 -0.066476736 8.2157648e-22)
(2.4702104 -0.12018406 5.9365083e-21)
(2.5850786 -0.10315807 6.4430653e-21)
(2.6363089 -0.048657917 -3.9935275e-20)
(2.62825 -0.0010387834 -9.92306e-21)
(2.5932012 0.011142393 1.2698738e-21)
(2.5625543 -0.0097275282 -8.7686993e-21)
(2.5524687 -0.04825681 1.379092e-20)
(2.5650324 -0.087669043 5.2432007e-21)
(2.5943602 -0.11691027 -6.3528689e-21)
(2.6322858 -0.13090823 -2.0049229e-22)
(2.6709058 -0.12897231 0)
(2.7037077 -0.11356798 1.0182339e-21)
(2.7264493 -0.089270656 -2.8989311e-21)
(2.7376501 -0.061403981 6.256312e-21)
(2.7383124 -0.034716321 2.3827533e-21)
(2.7310332 -0.012363406 3.4930227e-22)
(2.7188277 0.0040829143 7.2214057e-23)
(2.7045095 0.014632605 2.6787896e-21)
(2.6899571 0.019705574 4.5226461e-21)
(2.6767772 0.020632891 2.2479248e-21)
(2.6653108 0.017722317 -3.2791555e-22)
(2.6568545 0.012534966 4.3069356e-22)
(2.6502539 0.0044490243 4.7250513e-21)
(2.3351903 0.20510848 -2.4638031e-19)
(2.1850929 0.59157521 -1.2254145e-22)
(2.2132574 0.71796924 5.7482261e-20)
(2.189995 0.70134063 -4.5450665e-20)
(2.1533953 0.46382182 8.080281e-20)
(2.1640625 0.11583724 -2.9392822e-20)
(2.2845167 -0.10513668 7.2303529e-21)
(2.4558695 -0.16584111 1.9198692e-20)
(2.593734 -0.14074206 -4.1605741e-20)
(2.6597905 -0.066559405 1.9676291e-20)
(2.6497514 0.0035688868 1.1949628e-21)
(2.6010984 0.028737324 -3.0310335e-21)
(2.554808 0.009843847 3.1354029e-21)
(2.5328937 -0.034944251 9.0116502e-21)
(2.5394774 -0.084609649 2.1293861e-21)
(2.5682571 -0.12465228 -6.0332123e-21)
(2.6099698 -0.14811052 -2.3266525e-22)
(2.6555791 -0.15304525 -2.8605382e-23)
(2.6971764 -0.14106054 3.01752e-21)
(2.7288503 -0.1164823 -6.484859e-21)
(2.747556 -0.085216497 -1.1052965e-20)
(2.7533302 -0.053146169 5.1099934e-21)
(2.7485525 -0.024812316 -5.6538639e-21)
(2.7366732 -0.0026583679 9.1639896e-22)
(2.7210855 0.012511511 5.9069386e-21)
(2.7044864 0.021396261 -6.2215209e-21)
(2.6885465 0.024769702 -2.1517659e-22)
(2.6745889 0.024207456 -3.1115514e-21)
(2.6627336 0.020002814 9.0775335e-24)
(2.6540813 0.0138152 8.9493885e-21)
(2.6473945 0.0047851548 -6.1654752e-21)
(2.2722927 0.23293733 -7.0127675e-20)
(2.1200394 0.60467885 -1.2422519e-20)
(2.1715233 0.72664007 -2.0060783e-20)
(2.1601343 0.71358521 -3.1831822e-20)
(2.1346404 0.47416128 -1.2037213e-19)
(2.1419076 0.104683 -1.2800307e-19)
(2.2577708 -0.14417198 5.1160878e-20)
(2.440492 -0.21449624 1.7436011e-20)
(2.6029381 -0.18272397 -3.2324899e-20)
(2.6855646 -0.088295225 3.1952185e-20)
(2.6780931 0.0086729231 4.9768585e-20)
(2.6146481 0.050580019 6.5728018e-21)
(2.5490942 0.035248252 -9.3179227e-21)
(2.512252 -0.01599579 -2.4517665e-20)
(2.510823 -0.077171443 1.9859837e-20)
(2.5377423 -0.12957317 -2.5554192e-21)
(2.5824199 -0.16424978 -1.2765488e-20)
(2.6347819 -0.17804399 6.3501874e-21)
(2.6857409 -0.17148385 1.1840206e-20)
(2.7277286 -0.14823486 4.8777231e-21)
(2.7558287 -0.11437521 4.1406969e-21)
(2.7686014 -0.076884465 2.7143388e-21)
(2.7678242 -0.041782703 3.673718e-22)
(2.7571811 -0.012975768 2.4769446e-21)
(2.7407803 0.0080459432 2.4880844e-21)
(2.722075 0.021345094 8.4359913e-22)
(2.7035323 0.028223376 -2.3768547e-21)
(2.6864939 0.029747494 -1.0174362e-20)
(2.6719759 0.027650929 -4.0475965e-21)
(2.6598832 0.022167275 5.3245591e-21)
(2.6511294 0.015014692 2.8651353e-21)
(2.6444167 0.005097156 1.0050286e-20)
(2.2189756 0.26143565 2.1754237e-19)
(2.0710288 0.61235474 -2.3773678e-20)
(2.1379888 0.73035646 -1.1184985e-20)
(2.1390805 0.72091934 4.8013807e-20)
(2.1227666 0.4808199 4.3572659e-22)
(2.1256178 0.093775335 1.7008504e-19)
(2.23459 -0.18151909 -9.7369724e-20)
(2.4229994 -0.26331714 -4.6866433e-20)
(2.6030063 -0.22647883 -7.0746356e-21)
(2.7061105 -0.11132306 -6.0790159e-20)
(2.7070797 0.015188052 3.6420144e-20)
(2.6325061 0.07710741 4.6129986e-20)
(2.5460222 0.067132474 -2.2951369e-21)
(2.4906028 0.0091698829 1.8802586e-21)
(2.4789765 -0.064851169 -1.4028912e-20)
(2.5027453 -0.13118696 3.1669123e-21)
(2.5494659 -0.17872532 -4.2013498e-21)
(2.6080499 -0.20331636 5.7892286e-22)
(2.6685679 -0.20437148 -4.4581957e-22)
(2.7220262 -0.18447187 -1.4377398e-21)
(2.761469 -0.14934127 6.9946191e-21)
(2.7834571 -0.10671357 7.8102147e-21)
(2.7885816 -0.064257499 3.0622934e-21)
(2.7804464 -0.027593816 -2.1189588e-21)
(2.7638312 0.00042813488 -6.1232575e-21)
(2.7432145 0.019426991 7.2876309e-21)
(2.7217941 0.030346564 -3.7601012e-21)
(2.7016914 0.034968707 3.5758549e-21)
(2.6838552 0.034556406 -3.6416041e-21)
(2.6689898 0.030920741 2.2574375e-21)
(2.6568016 0.024196167 -6.948775e-23)
(2.6480327 0.016126181 -7.1400914e-21)
(2.6413485 0.0053836798 2.1577415e-20)
(2.1787254 0.28896688 -4.4265926e-26)
(2.0371469 0.61629511 -1.9921298e-21)
(2.1124801 0.72983142 5.9399395e-21)
(2.1257454 0.72560334 -1.3509459e-19)
(2.1168767 0.48497626 -2.9448373e-19)
(2.1142277 0.084239478 1.403705e-19)
(2.2151874 -0.21764935 6.3206779e-20)
(2.4046693 -0.31064056 6.8745161e-21)
(2.5954155 -0.26989452 -1.8332806e-19)
(2.7120903 -0.13564349 2.8775281e-20)
(2.7273923 0.024379941 -4.320268e-20)
(2.6472248 0.10961612 -4.5949815e-20)
(2.5434921 0.10633218 5.7306654e-22)
(2.4680213 0.041204298 2.5283962e-20)
(2.4437591 -0.047315821 -2.1108403e-20)
(2.4632293 -0.12917486 1.7276807e-20)
(2.5110895 -0.19104299 -1.9401787e-20)
(2.5751224 -0.22818105 1.9468158e-20)
(2.6449622 -0.23907582 -5.7368287e-21)
(2.7106618 -0.22491285 -3.8129641e-20)
(2.7633053 -0.19039074 -2.0529923e-20)
(2.7969908 -0.1434468 0)
(2.8103969 -0.093254265 0)
(2.8064972 -0.047578662 -6.7446968e-21)
(2.7906019 -0.011022201 -1.1362724e-20)
(2.7682762 0.014944004 5.4078164e-21)
(2.7439091 0.031159376 6.365358e-22)
(2.720286 0.039296999 -2.5504052e-21)
(2.6990332 0.041504464 4.8877948e-21)
(2.6806975 0.039128337 1.536694e-22)
(2.665685 0.033984047 -5.8426211e-21)
(2.6535308 0.026075589 -5.4335615e-21)
(2.6448238 0.017145205 -2.6135098e-21)
(2.6382161 0.0056440012 -1.0565145e-20)
(2.1539189 0.31552176 -4.5609951e-20)
(2.017671 0.61577334 6.4567605e-20)
(2.0976875 0.72562424 -2.1868892e-20)
(2.1212998 0.72906282 3.8184621e-20)
(2.1162227 0.49310954 -2.925523e-20)
(2.1086359 0.073061114 -6.2318072e-20)
(2.1974241 -0.24911431 1.3455686e-19)
(2.3856091 -0.35605287 2.730804e-20)
(2.5839285 -0.31305604 8.0929407e-20)
(2.7105066 -0.16023003 1.1148558e-21)
(2.7372965 0.033152938 1.3570465e-20)
(2.6571886 0.14829308 -1.7413123e-19)
(2.532288 0.15305758 5.0761377e-21)
(2.4429926 0.080843906 -2.0913657e-20)
(2.4049498 -0.024290229 1.6054536e-20)
(2.419155 -0.12342314 1.7669116e-20)
(2.4674243 -0.20087846 -9.4817926e-21)
(2.5359852 -0.25199116 -5.3096685e-21)
(2.6144521 -0.27480121 3.9277641e-21)
(2.6926154 -0.26899847 5.4781128e-21)
(2.7600232 -0.2375665 2.4834304e-21)
(2.8080332 -0.18778256 0)
(2.8326015 -0.12993242 -6.6211196e-21)
(2.8352359 -0.074105442 -6.6822852e-21)
(2.8214211 -0.027351436 -5.2374692e-21)
(2.7978679 0.0073429629 -3.1173428e-21)
(2.7703858 0.030105093 3.6237706e-22)
(2.7429059 0.042913199 3.5700273e-21)
(2.7176358 0.048001128 4.0105658e-22)
(2.695646 0.047724358 -1.0647926e-21)
(2.6770937 0.043410431 6.0285422e-21)
(2.6621171 0.036817432 6.3885128e-21)
(2.6501114 0.027796834 -7.8498214e-21)
(2.6415335 0.018069766 -4.5446325e-21)
(2.6350436 0.0058779979 -2.735474e-20)
(2.1446186 0.34121721 0)
(2.009956 0.61164249 3.1757934e-20)
(2.0941946 0.71785664 1.7138416e-20)
(2.1259368 0.72718687 1.3238733e-19)
(2.1229641 0.50775402 2.6275184e-19)
(2.105785 0.073094748 6.8605466e-20)
(2.1849726 -0.28176105 -1.8324303e-19)
(2.3649421 -0.39712514 2.6174573e-20)
(2.5664991 -0.35278934 2.1088382e-19)
(2.7029943 -0.18416923 1.4616421e-19)
(2.7367447 0.039995939 5.6767843e-20)
(2.6713486 0.19242772 6.4011274e-20)
(2.5117512 0.20699639 -2.9680898e-20)
(2.4086813 0.12749781 1.1180504e-21)
(2.3619331 0.0043521792 -9.2550491e-21)
(2.3704637 -0.1140257 1.5404915e-20)
(2.4187416 -0.20813481 -1.5485638e-20)
(2.4909066 -0.27421278 1.3578674e-20)
(2.5768788 -0.31065711 1.9634631e-20)
(2.6670434 -0.31588124 1.4974094e-20)
(2.7502235 -0.29057034 5.2057884e-20)
(2.8151392 -0.24025058 1.6531374e-20)
(2.8542052 -0.17545907 9.6519062e-21)
(2.8663926 -0.10860976 5.5905462e-22)
(2.8565756 -0.049763618 -8.1441325e-21)
(2.8325951 -0.0043284099 -1.9868098e-20)
(2.801985 0.026807395 1.0016864e-21)
(2.7701432 0.045427585 1.2990164e-20)
(2.7403066 0.054391186 -1.2962554e-20)
(2.7139609 0.056294839 -2.8543676e-21)
(2.69163 0.053545478 5.3788972e-22)
(2.6731195 0.04736481 -4.7210589e-21)
(2.6583402 0.039406184 -8.7116533e-21)
(2.6465817 0.029355777 -1.1343442e-20)
(2.63819 0.018899957 -7.6005564e-21)
(2.6318528 0.0060860276 5.7317168e-21)
(2.1516868 0.36646742 0)
(2.0097616 0.60431858 -2.7846165e-20)
(2.1018272 0.70687044 -4.9572191e-22)
(2.1396245 0.72184434 -2.547516e-20)
(2.1378753 0.5170581 -4.007819e-22)
(2.112862 0.08466199 -5.632949e-20)
(2.1671421 -0.30254575 -6.9885409e-20)
(2.3448453 -0.43486706 4.4340592e-20)
(2.5411985 -0.39240922 5.6760788e-20)
(2.6845396 -0.20279149 -2.5985479e-19)
(2.7224743 0.049352576 1.7364249e-19)
(2.663358 0.23796529 1.4132486e-19)
(2.4946969 0.26962815 -5.8437194e-21)
(2.3636477 0.1791892 1.7667589e-20)
(2.3119262 0.037979431 2.4139662e-20)
(2.3170787 -0.10133944 2.6494055e-21)
(2.3654059 -0.21296172 2.3035679e-20)
(2.4404197 -0.29449287 -1.2383046e-20)
(2.532464 -0.34573617 1.1691275e-20)
(2.633411 -0.36443887 -1.2427808e-20)
(2.7325451 -0.34869335 -2.6929735e-20)
(2.8165905 -0.30106212 7.6029799e-23)
(2.8738465 -0.2309801 3.3879374e-20)
(2.8993713 -0.15269004 3.6778321e-20)
(2.8963381 -0.079828143 1.93456e-20)
(2.8731778 -0.021127008 3.4320217e-21)
(2.8395601 0.020538141 -3.7505752e-21)
(2.8028671 0.046688974 -1.5313423e-22)
(2.7676698 0.060463043 -4.0391994e-21)
(2.7362668 0.065342016 1.4480097e-20)
(2.7093995 0.064049493 -5.721491e-21)
(2.6870905 0.058908252 -3.9701274e-21)
(2.6688497 0.050967515 -7.9017013e-21)
(2.6544058 0.041743273 -3.5279761e-21)
(2.6429772 0.030752194 8.7362649e-21)
(2.6348187 0.019637592 7.699537e-21)
(2.6286634 0.0062688467 1.6842229e-20)
(2.1796755 0.39151685 1.3402636e-20)
(2.0208339 0.59418432 -2.6332488e-20)
(2.1206542 0.69280569 -3.7967195e-20)
(2.1608779 0.71343328 -6.8160759e-20)
(2.1595561 0.52585228 1.061779e-22)
(2.124386 0.093518665 -1.7765729e-21)
(2.1539009 -0.31355324 1.6067344e-19)
(2.315862 -0.46779141 -6.4977694e-20)
(2.5111807 -0.42426328 8.0996308e-20)
(2.6574786 -0.22271846 -3.0024712e-19)
(2.6940258 0.062042336 -1.4209364e-20)
(2.6274722 0.28088874 -3.0348877e-22)
(2.4792292 0.33587834 3.7489269e-20)
(2.3223299 0.23627857 -7.6561065e-21)
(2.2528245 0.073990906 -3.8143959e-21)
(2.2588541 -0.085884596 -1.0701702e-20)
(2.3078283 -0.21576631 1.1821939e-20)
(2.3852589 -0.31267545 -1.8193022e-20)
(2.4817759 -0.37915709 6.7036776e-21)
(2.5915342 -0.41328923 -2.3374089e-20)
(2.7057505 -0.41073855 -1.7828166e-20)
(2.8104418 -0.36998027 -1.5474322e-20)
(2.889708 -0.29747679 -9.2144457e-23)
(2.9332193 -0.20813285 -3.9869948e-20)
(2.9406914 -0.11941509 2.4049089e-20)
(2.920463 -0.044571427 5.1459473e-20)
(2.8842046 0.010535514 -1.8486121e-20)
(2.8421081 0.046258546 5.9802319e-21)
(2.800635 0.066310596 1.0873688e-20)
(2.7631729 0.074828044 -1.0914844e-20)
(2.7309789 0.075567454 -9.7638098e-21)
(2.7041002 0.071172495 5.6565105e-21)
(2.6821326 0.063774937 -5.0026809e-21)
(2.6643554 0.054206884 3.8912205e-21)
(2.6503615 0.043828171 1.6752219e-20)
(2.6393299 0.031989044 2.9572016e-21)
(2.6314426 0.020285844 9.4264435e-21)
(2.6254923 0.0064275143 -1.5287104e-20)
(2.2218088 0.4169609 -8.428994e-22)
(2.046868 0.58281597 6.1237158e-22)
(2.1492002 0.67596352 -1.205454e-20)
(2.187675 0.70263368 -3.1007722e-21)
(2.186707 0.53303397 -9.4730813e-20)
(2.1411375 0.10428971 8.7420996e-22)
(2.1482535 -0.32165193 4.7229431e-20)
(2.2835089 -0.49669739 2.8340444e-21)
(2.4721306 -0.458898 -1.0260332e-19)
(2.6211212 -0.23211066 2.2096563e-19)
(2.6566026 0.074988989 -2.9131036e-19)
(2.5863118 0.32156594 1.5770022e-19)
(2.4536413 0.39737397 5.7179187e-21)
(2.2924799 0.29815859 -3.3547838e-21)
(2.1916815 0.1118365 -4.127547e-21)
(2.1948315 -0.069514324 -4.1158581e-21)
(2.2466221 -0.21713559 4.5273899e-21)
(2.3263065 -0.32885027 1.491164e-20)
(2.4257081 -0.41014881 3.7312332e-20)
(2.5416339 -0.46080514 1.4972039e-21)