/*--------------------------------*- C++ -*----------------------------------*\
| =========                 |                                                 |
| \\      /  F ield         | OpenFOAM: The Open Source CFD Toolbox           |
|  \\    /   O peration     | Version:  v2012                                 |
|   \\  /    A nd           | Website:  www.openfoam.com                      |
|    \\/     M anipulation  |                                                 |
\*---------------------------------------------------------------------------*/
FoamFile
{
    version     2.0;
    format      ascii;
    class       volVectorField;
    location    "110.62696666682217";
    object      cellDisplacement;
}
// * * * * * * * * * * * * * * * * * * * * * * * * * * * * * * * * * * * * * //

dimensions      [0 1 0 0 0 0 0];


internalField   nonuniform List<vector> 
9200
(
(-0.039655377 0 0)
(-0.039773477 0 0)
(-0.11484035 0 0)
(-0.040075086 0 0)
(-0.11532982 0 0)
(-0.18492113 0 0)
(-0.040461516 0 0)
(-0.11613008 0 0)
(-0.185566 0 0)
(-0.24972581 0 0)
(-0.040900404 0 0)
(-0.11715654 0 0)
(-0.18673486 0 0)
(-0.25061936 0 0)
(-0.30980092 0 0)
(-0.041363321 0 0)
(-0.11834037 0 0)
(-0.18830566 0 0)
(-0.25215974 0 0)
(-0.31081124 0 0)
(-0.36510723 0 0)
(-0.041833116 0 0)
(-0.11960504 0 0)
(-0.19012068 0 0)
(-0.25418101 0 0)
(-0.31263359 0 0)
(-0.36633857 0 0)
(-0.41619564 0 0)
(-0.042296731 0 0)
(-0.12089387 0 0)
(-0.19206855 0 0)
(-0.25652863 0 0)
(-0.31503313 0 0)
(-0.36842986 0 0)
(-0.41751183 0 0)
(-0.46305299 0 0)
(-0.042746143 0 0)
(-0.12217538 0 0)
(-0.19407123 0 0)
(-0.2590714 0 0)
(-0.31784875 0 0)
(-0.37117152 0 0)
(-0.41982737 0 0)
(-0.46456435 0 0)
(-0.50620943 0 0)
(-0.043174756 0 0)
(-0.12341814 0 0)
(-0.19606105 0 0)
(-0.26169531 0 0)
(-0.32091222 0 0)
(-0.37438812 0 0)
(-0.42287613 0 0)
(-0.46711719 0 0)
(-0.50778816 0 0)
(-0.54567007 0 0)
(-0.043579597 0 0)
(-0.12461009 0 0)
(-0.19800497 0 0)
(-0.26431743 0 0)
(-0.32408276 0 0)
(-0.37788416 0 0)
(-0.42640501 0 0)
(-0.4704089 0 0)
(-0.51053068 0 0)
(-0.54741978 0 0)
(-0.5819222 0 0)
(-0.043957211 0 0)
(-0.12573544 0 0)
(-0.19986626 0 0)
(-0.26688181 0 0)
(-0.32726876 0 0)
(-0.38154323 0 0)
(-0.43032371 0 0)
(-0.47431275 0 0)
(-0.51413106 0 0)
(-0.55038208 0 0)
(-0.58372736 0 0)
(-0.61497935 0 0)
(-0.044307958 0 0)
(-0.12679141 0 0)
(-0.20163364 0 0)
(-0.26934827 0 0)
(-0.33038889 0 0)
(-0.38522435 0 0)
(-0.43439525 0 0)
(-0.47852707 0 0)
(-0.51825504 0 0)
(-0.55418139 0 0)
(-0.58684965 0 0)
(-0.61693483 0 0)
(-0.64528042 0 0)
(-0.044629576 0 0)
(-0.12777082 0 0)
(-0.20328941 0 0)
(-0.27169057 0 0)
(-0.33340043 0 0)
(-0.38884456 0 0)
(-0.43851648 0 0)
(-0.48297475 0 0)
(-0.52282209 0 0)
(-0.55863822 0 0)
(-0.59091308 0 0)
(-0.62023376 0 0)
(-0.64727281 0 0)
(-0.6728457 0 0)
(-0.044924304 0 0)
(-0.12867577 0 0)
(-0.20483216 0 0)
(-0.27389374 0 0)
(-0.33626386 0 0)
(-0.39234094 0 0)
(-0.44257661 0 0)
(-0.48747496 0 0)
(-0.52758389 0 0)
(-0.56344505 0 0)
(-0.5955615 0 0)
(-0.62446848 0 0)
(-0.65070451 0 0)
(-0.67496179 0 0)
(-0.69806022 0 0)
(-0.045190908 0 0)
(-0.12950451 0 0)
(-0.20625808 0 0)
(-0.27594836 0 0)
(-0.33896422 0 0)
(-0.39567318 0 0)
(-0.44650234 0 0)
(-0.49191796 0 0)
(-0.53240887 0 0)
(-0.56847262 0 0)
(-0.6006391 0 0)
(-0.62938998 0 0)
(-0.6551553 0 0)
(-0.67853717 0 0)
(-0.70020067 0 0)
(-0.72094577 0 0)
(-0.04543259 0 0)
(-0.13026203 0 0)
(-0.2075673 0 0)
(-0.27785111 0 0)
(-0.34148436 0 0)
(-0.39881722 0 0)
(-0.45025378 0 0)
(-0.4962268 0 0)
(-0.53718799 0 0)
(-0.57358901 0 0)
(-0.60592232 0 0)
(-0.63466314 0 0)
(-0.6602293 0 0)
(-0.68312052 0 0)
(-0.70387938 0 0)
(-0.72319041 0 0)
(-0.7418371 0 0)
(-0.045648744 0 0)
(-0.13094803 0 0)
(-0.20876504 0 0)
(-0.27960201 0 0)
(-0.34382477 0 0)
(-0.40175859 0 0)
(-0.45379404 0 0)
(-0.50034327 0 0)
(-0.54183249 0 0)
(-0.57866453 0 0)
(-0.61128352 0 0)
(-0.64016367 0 0)
(-0.66574444 0 0)
(-0.6884235 0 0)
(-0.70863203 0 0)
(-0.72697685 0 0)
(-0.74409361 0 0)
(-0.76075808 0 0)
(-0.045842427 0 0)
(-0.13157005 0 0)
(-0.20985174 0 0)
(-0.2812043 0 0)
(-0.34597976 0 0)
(-0.4044901 0 0)
(-0.45711538 0 0)
(-0.50424218 0 0)
(-0.54628033 0 0)
(-0.58360395 0 0)
(-0.61660925 0 0)
(-0.64572952 0 0)
(-0.6714276 0 0)
(-0.69408496 0 0)
(-0.7140535 0 0)
(-0.73183481 0 0)
(-0.74795987 0 0)
(-0.76309681 0 0)
(-0.77799251 0 0)
(-0.046014045 0 0)
(-0.13212787 0 0)
(-0.21083858 0 0)
(-0.28266442 0 0)
(-0.34795767 0 0)
(-0.40701295 0 0)
(-0.46020263 0 0)
(-0.5078957 0 0)
(-0.55049702 0 0)
(-0.58834935 0 0)
(-0.62180889 0 0)
(-0.65128004 0 0)
(-0.67719592 0 0)
(-0.69995779 0 0)
(-0.71991798 0 0)
(-0.7374365 0 0)
(-0.75294859 0 0)
(-0.76704602 0 0)
(-0.78033476 0 0)
(-0.79356373 0 0)
(-0.04616619 0 0)
(-0.1326305 0 0)
(-0.21172447 0 0)
(-0.28398679 0 0)
(-0.34975837 0 0)
(-0.40932674 0 0)
(-0.46306142 0 0)
(-0.51130472 0 0)
(-0.55445953 0 0)
(-0.59285188 0 0)
(-0.62681535 0 0)
(-0.65671276 0 0)
(-0.68293534 0 0)
(-0.70588992 0 0)
(-0.72594862 0 0)
(-0.74341618 0 0)
(-0.75863787 0 0)
(-0.77211049 0 0)
(-0.78434233 0 0)
(-0.79597285 0 0)
(-0.80771154 0 0)
(-0.046299856 0 0)
(-0.13307689 0 0)
(-0.21252338 0 0)
(-0.28518317 0 0)
(-0.35139575 0 0)
(-0.41144213 0 0)
(-0.46568965 0 0)
(-0.51445741 0 0)
(-0.55815663 0 0)
(-0.59709468 0 0)
(-0.63157402 0 0)
(-0.66194588 0 0)
(-0.68856076 0 0)
(-0.71178712 0 0)
(-0.73202943 0 0)
(-0.74959954 0 0)
(-0.76478318 0 0)
(-0.77793866 0 0)
(-0.78950297 0 0)
(-0.80003888 0 0)
(-0.81011778 0 0)
(-0.82046052 0 0)
(-0.046416832 0 0)
(-0.13347687 0 0)
(-0.2132338 0 0)
(-0.28625702 0 0)
(-0.35287228 0 0)
(-0.4133623 0 0)
(-0.46809806 0 0)
(-0.51736651 0 0)
(-0.5615873 0 0)
(-0.60105699 0 0)
(-0.63606497 0 0)
(-0.66693932 0 0)
(-0.69399934 0 0)
(-0.71759204 0 0)
(-0.73809898 0 0)
(-0.75583689 0 0)
(-0.77109411 0 0)
(-0.78416331 0 0)
(-0.79539167 0 0)
(-0.80525473 0 0)
(-0.81422595 0 0)
(-0.82291773 0 0)
(-0.83200831 0 0)
(-0.046518772 0 0)
(-0.1338285 0 0)
(-0.21386949 0 0)
(-0.28722049 0 0)
(-0.35420341 0 0)
(-0.41510185 0 0)
(-0.47029041 0 0)
(-0.52002895 0 0)
(-0.5647503 0 0)
(-0.60474227 0 0)
(-0.64026518 0 0)
(-0.67164732 0 0)
(-0.69919571 0 0)
(-0.72320929 0 0)
(-0.74402885 0 0)
(-0.7620037 0 0)
(-0.77744249 0 0)
(-0.79058965 0 0)
(-0.80174047 0 0)
(-0.81124326 0 0)
(-0.81951192 0 0)
(-0.82706908 0 0)
(-0.83445954 0 0)
(-0.84237958 0 0)
(-0.04660731 0 0)
(-0.13414169 0 0)
(-0.21442921 0 0)
(-0.28807777 0 0)
(-0.35539469 0 0)
(-0.41666609 0 0)
(-0.47228113 0 0)
(-0.52246221 0 0)
(-0.56765678 0 0)
(-0.60814531 0 0)
(-0.64417524 0 0)
(-0.67606603 0 0)
(-0.70410509 0 0)
(-0.72857463 0 0)
(-0.74978689 0 0)
(-0.76807654 0 0)
(-0.78375367 0 0)
(-0.79705585 0 0)
(-0.8082554 0 0)
(-0.81763945 0 0)
(-0.82553699 0 0)
(-0.83239121 0 0)
(-0.83864052 0 0)
(-0.84487148 0 0)
(-0.85173618 0 0)
(-0.046683889 0 0)
(-0.13441383 0 0)
(-0.21492519 0 0)
(-0.28884071 0 0)
(-0.3564598 0 0)
(-0.41807141 0 0)
(-0.47407681 0 0)
(-0.52466881 0 0)
(-0.57030995 0 0)
(-0.61127799 0 0)
(-0.6477909 0 0)
(-0.68017398 0 0)
(-0.7087141 0 0)
(-0.7336647 0 0)
(-0.75530389 0 0)
(-0.77394684 0 0)
(-0.7899067 0 0)
(-0.80344163 0 0)
(-0.814803 0 0)
(-0.82423278 0 0)
(-0.83202214 0 0)
(-0.83848596 0 0)
(-0.84401201 0 0)
(-0.84908251 0 0)
(-0.85422153 0 0)
(-0.86010513 0 0)
(-0.046750236 0 0)
(-0.13465419 0 0)
(-0.21535692 0 0)
(-0.28951285 0 0)
(-0.35740531 0 0)
(-0.41932466 0 0)
(-0.47569302 0 0)
(-0.52666708 0 0)
(-0.57272556 0 0)
(-0.61414227 0 0)
(-0.65112146 0 0)
(-0.68398563 0 0)
(-0.71300794 0 0)
(-0.73843281 0 0)
(-0.76052801 0 0)
(-0.77957432 0 0)
(-0.79585879 0 0)
(-0.80968177 0 0)
(-0.8212847 0 0)
(-0.83085523 0 0)
(-0.83866702 0 0)
(-0.84499083 0 0)
(-0.85012627 0 0)
(-0.8544795 0 0)
(-0.85845474 0 0)
(-0.86262134 0 0)
(-0.86761518 0 0)
(-0.046806918 0 0)
(-0.13486004 0 0)
(-0.2157352 0 0)
(-0.29010409 0 0)
(-0.35824219 0 0)
(-0.4204401 0 0)
(-0.47713621 0 0)
(-0.52846282 0 0)
(-0.57490949 0 0)
(-0.61675463 0 0)
(-0.65417222 0 0)
(-0.68749205 0 0)
(-0.7169905 0 0)
(-0.74289299 0 0)
(-0.7654442 0 0)
(-0.78491179 0 0)
(-0.80156988 0 0)
(-0.81570915 0 0)
(-0.82758146 0 0)
(-0.83737888 0 0)
(-0.84533363 0 0)
(-0.85167975 0 0)
(-0.8566889 0 0)
(-0.86063963 0 0)
(-0.86388853 0 0)
(-0.86687892 0 0)
(-0.870127 0 0)
(-0.87429519 0 0)
(-0.046856463 0 0)
(-0.13503971 0 0)
(-0.21605957 0 0)
(-0.29061818 0 0)
(-0.35897788 0 0)
(-0.42142596 0 0)
(-0.47842305 0 0)
(-0.53007364 0 0)
(-0.57687969 0 0)
(-0.61912067 0 0)
(-0.65695502 0 0)
(-0.69071489 0 0)
(-0.72066487 0 0)
(-0.74702114 0 0)
(-0.77002706 0 0)
(-0.7899398 0 0)
(-0.80700072 0 0)
(-0.82147748 0 0)
(-0.83364793 0 0)
(-0.84373636 0 0)
(-0.85191801 0 0)
(-0.85838402 0 0)
(-0.86340025 0 0)
(-0.86720223 0 0)
(-0.87005636 0 0)
(-0.87233113 0 0)
(-0.8744027 0 0)
(-0.87683257 0 0)
(-0.88024673 0 0)
(-0.046897375 0 0)
(-0.13518909 0 0)
(-0.21633998 0 0)
(-0.29106334 0 0)
(-0.35962025 0 0)
(-0.42229336 0 0)
(-0.47955826 0 0)
(-0.53150696 0 0)
(-0.57864445 0 0)
(-0.62125841 0 0)
(-0.65948108 0 0)
(-0.69365246 0 0)
(-0.7240397 0 0)
(-0.7508436 0 0)
(-0.77428954 0 0)
(-0.79463171 0 0)
(-0.81210693 0 0)
(-0.82696389 0 0)
(-0.83945306 0 0)
(-0.84983332 0 0)
(-0.85829279 0 0)
(-0.86497758 0 0)
(-0.87011947 0 0)
(-0.87393133 0 0)
(-0.87665478 0 0)
(-0.87852979 0 0)
(-0.87988424 0 0)
(-0.88112898 0 0)
(-0.88278333 0 0)
(-0.88550157 0 0)
(-0.046735456 0 0)
(-0.13531358 0 0)
(-0.21657394 0 0)
(-0.29144168 0 0)
(-0.3601764 0 0)
(-0.42305024 0 0)
(-0.48055838 0 0)
(-0.53277849 0 0)
(-0.58021985 0 0)
(-0.62317432 0 0)
(-0.66176287 0 0)
(-0.69632822 0 0)
(-0.7271276 0 0)
(-0.75435043 0 0)
(-0.77822063 0 0)
(-0.79899591 0 0)
(-0.81689114 0 0)
(-0.83213203 0 0)
(-0.8449714 0 0)
(-0.85565817 0 0)
(-0.86440435 0 0)
(-0.87137827 0 0)
(-0.87673412 0 0)
(-0.88065682 0 0)
(-0.88338329 0 0)
(-0.88511486 0 0)
(-0.88608567 0 0)
(-0.88662811 0 0)
(-0.88709747 0 0)
(-0.88805891 0 0)
(-0.89013763 0 0)
(-0.046531182 0 0)
(-0.13497993 0 0)
(-0.21676769 0 0)
(-0.29176199 0 0)
(-0.36065021 0 0)
(-0.42370525 0 0)
(-0.48142814 0 0)
(-0.53389652 0 0)
(-0.58161647 0 0)
(-0.62488783 0 0)
(-0.66381437 0 0)
(-0.69874499 0 0)
(-0.72993774 0 0)
(-0.75756862 0 0)
(-0.78184435 0 0)
(-0.80302733 0 0)
(-0.8213289 0 0)
(-0.83697284 0 0)
(-0.8501828 0 0)
(-0.86119027 0 0)
(-0.87023072 0 0)
(-0.87749674 0 0)
(-0.88312215 0 0)
(-0.88725042 0 0)
(-0.89009894 0 0)
(-0.89184168 0 0)
(-0.89269025 0 0)
(-0.89285159 0 0)
(-0.89262398 0 0)
(-0.89239438 0 0)
(-0.89269861 0 0)
(-0.89418814 0 0)
(-0.046345244 0 0)
(-0.13436618 0 0)
(-0.21628201 0 0)
(-0.29201806 0 0)
(-0.36105105 0 0)
(-0.42426683 0 0)
(-0.4821815 0 0)
(-0.53487406 0 0)
(-0.58284752 0 0)
(-0.62640439 0 0)
(-0.66564673 0 0)
(-0.70092501 0 0)
(-0.73248753 0 0)
(-0.76049812 0 0)
(-0.78515665 0 0)
(-0.80674059 0 0)
(-0.82544533 0 0)
(-0.84147123 0 0)
(-0.85505453 0 0)
(-0.86641141 0 0)
(-0.87574897 0 0)
(-0.8832964 0 0)
(-0.88921607 0 0)
(-0.89363064 0 0)
(-0.89668276 0 0)
(-0.89854123 0 0)
(-0.89940295 0 0)
(-0.89943679 0 0)
(-0.89884975 0 0)
(-0.8979402 0 0)
(-0.89705257 0 0)
(-0.89676789 0 0)
(-0.89771297 0 0)
(-0.046177965 0 0)
(-0.13380157 0 0)
(-0.21530255 0 0)
(-0.29140543 0 0)
(-0.36137059 0 0)
(-0.424737 0 0)
(-0.48282311 0 0)
(-0.53571924 0 0)
(-0.58392412 0 0)
(-0.62774398 0 0)
(-0.66727602 0 0)
(-0.70287462 0 0)
(-0.73478549 0 0)
(-0.76316189 0 0)
(-0.78818391 0 0)
(-0.81014216 0 0)
(-0.82922607 0 0)
(-0.84563804 0 0)
(-0.8595961 0 0)
(-0.8713003 0 0)
(-0.88096511 0 0)
(-0.88881136 0 0)
(-0.895007 0 0)
(-0.8996996 0 0)
(-0.90301599 0 0)
(-0.90508129 0 0)
(-0.90607726 0 0)
(-0.90613675 0 0)
(-0.90544626 0 0)
(-0.90418551 0 0)
(-0.90262643 0 0)
(-0.90114369 0 0)
(-0.90030027 0 0)
(-0.90074605 0 0)
(-0.046032943 0 0)
(-0.13329933 0 0)
(-0.21440189 0 0)
(-0.29010361 0 0)
(-0.3606551 0 0)
(-0.42511956 0 0)
(-0.48336046 0 0)
(-0.53644074 0 0)
(-0.58485638 0 0)
(-0.62891213 0 0)
(-0.66871282 0 0)
(-0.70461353 0 0)
(-0.73685076 0 0)
(-0.76556672 0 0)
(-0.7909268 0 0)
(-0.81324683 0 0)
(-0.83270411 0 0)
(-0.84947502 0 0)
(-0.86379151 0 0)
(-0.87585868 0 0)
(-0.88585834 0 0)
(-0.89399075 0 0)
(-0.90045659 0 0)
(-0.90543031 0 0)
(-0.90903034 0 0)
(-0.91137644 0 0)
(-0.91258316 0 0)
(-0.91278113 0 0)
(-0.91212487 0 0)
(-0.91076189 0 0)
(-0.90887808 0 0)
(-0.90674109 0 0)
(-0.9046961 0 0)
(-0.90335003 0 0)
(-0.90333266 0 0)
(-0.045909455 0 0)
(-0.13285878 0 0)
(-0.213599 0 0)
(-0.28891143 0 0)
(-0.3590867 0 0)
(-0.42431592 0 0)
(-0.48379348 0 0)
(-0.53704945 0 0)
(-0.58565673 0 0)
(-0.62992669 0 0)
(-0.66997267 0 0)
(-0.70614999 0 0)
(-0.73869144 0 0)
(-0.76773062 0 0)
(-0.79340968 0 0)
(-0.81606735 0 0)
(-0.83587139 0 0)
(-0.8529958 0 0)
(-0.86766647 0 0)
(-0.88007263 0 0)
(-0.8904028 0 0)
(-0.89884982 0 0)
(-0.90560829 0 0)
(-0.91085625 0 0)
(-0.91472023 0 0)
(-0.91733541 0 0)
(-0.91880837 0 0)
(-0.9192287 0 0)
(-0.91873591 0 0)
(-0.91742355 0 0)
(-0.91546224 0 0)
(-0.9130137 0 0)
(-0.91032345 0 0)
(-0.90776879 0 0)
(-0.90594725 0 0)
(-0.90550544 0 0)
(-0.045810584 0 0)
(-0.13248822 0 0)
(-0.2128949 0 0)
(-0.28784118 0 0)
(-0.35765001 0 0)
(-0.42252701 0 0)
(-0.48291603 0 0)
(-0.53753846 0 0)
(-0.58632725 0 0)
(-0.63079289 0 0)
(-0.67106438 0 0)
(-0.70750056 0 0)
(-0.74032604 0 0)
(-0.76966441 0 0)
(-0.7956361 0 0)
(-0.81861579 0 0)
(-0.83876011 0 0)
(-0.85621234 0 0)
(-0.87121305 0 0)
(-0.88396226 0 0)
(-0.89462597 0 0)
(-0.90338059 0 0)
(-0.91041943 0 0)
(-0.9159289 0 0)
(-0.92005358 0 0)
(-0.92293567 0 0)
(-0.92468514 0 0)
(-0.92539572 0 0)
(-0.92513551 0 0)
(-0.92399966 0 0)
(-0.92210315 0 0)
(-0.91958174 0 0)
(-0.91660852 0 0)
(-0.91342335 0 0)
(-0.91038614 0 0)
(-0.90813587 0 0)
(-0.90729876 0 0)
(-0.045735343 0 0)
(-0.13218698 0 0)
(-0.21230131 0 0)
(-0.28690644 0 0)
(-0.35635881 0 0)
(-0.42088078 0 0)
(-0.4809306 0 0)
(-0.53661961 0 0)
(-0.58687439 0 0)
(-0.63152046 0 0)
(-0.67200036 0 0)
(-0.70867512 0 0)
(-0.74176257 0 0)
(-0.77138203 0 0)
(-0.79762774 0 0)
(-0.8209077 0 0)
(-0.841367 0 0)
(-0.85913686 0 0)
(-0.87446248 0 0)
(-0.88752778 0 0)
(-0.89850411 0 0)
(-0.90757007 0 0)
(-0.91489959 0 0)
(-0.92066712 0 0)
(-0.9250574 0 0)
(-0.92820849 0 0)
(-0.93021146 0 0)
(-0.93119083 0 0)
(-0.93121662 0 0)
(-0.93033544 0 0)
(-0.92864559 0 0)
(-0.92620789 0 0)
(-0.92318669 0 0)
(-0.91973366 0 0)
(-0.91607175 0 0)
(-0.91259696 0 0)
(-0.9099421 0 0)
(-0.90874372 0 0)
(-0.045686087 0 0)
(-0.13196104 0 0)
(-0.21181837 0 0)
(-0.28611216 0 0)
(-0.35523088 0 0)
(-0.41940591 0 0)
(-0.47910393 0 0)
(-0.53448515 0 0)
(-0.58592077 0 0)
(-0.63211067 0 0)
(-0.67279136 0 0)
(-0.70968379 0 0)
(-0.74301647 0 0)
(-0.77289546 0 0)
(-0.79939132 0 0)
(-0.82295353 0 0)
(-0.84371989 0 0)
(-0.8617854 0 0)
(-0.87740981 0 0)
(-0.89078995 0 0)
(-0.90207821 0 0)
(-0.9114397 0 0)
(-0.9190481 0 0)
(-0.92507732 0 0)
(-0.92971155 0 0)
(-0.93310532 0 0)
(-0.93536343 0 0)
(-0.93660526 0 0)
(-0.93691246 0 0)
(-0.9363451 0 0)
(-0.93492732 0 0)
(-0.93271742 0 0)
(-0.92979708 0 0)
(-0.92630298 0 0)
(-0.92240091 0 0)
(-0.91831207 0 0)
(-0.91442288 0 0)
(-0.91140186 0 0)
(-0.90986585 0 0)
(-0.045661528 0 0)
(-0.13180938 0 0)
(-0.21145413 0 0)
(-0.28546773 0 0)
(-0.35427138 0 0)
(-0.4181118 0 0)
(-0.47746492 0 0)
(-0.53252579 0 0)
(-0.58367658 0 0)
(-0.63113569 0 0)
(-0.67343367 0 0)
(-0.71054115 0 0)
(-0.7440972 0 0)
(-0.77421513 0 0)
(-0.80094412 0 0)
(-0.82476945 0 0)
(-0.84582002 0 0)
(-0.86416673 0 0)
(-0.88008536 0 0)
(-0.89375693 0 0)
(-0.90533381 0 0)
(-0.91498433 0 0)
(-0.92287652 0 0)
(-0.9291678 0 0)
(-0.93403257 0 0)
(-0.93765282 0 0)
(-0.94016775 0 0)
(-0.94166699 0 0)
(-0.9422285 0 0)
(-0.94194551 0 0)
(-0.94084539 0 0)
(-0.93893666 0 0)
(-0.93627844 0 0)
(-0.93290554 0 0)
(-0.92898699 0 0)
(-0.924671 0 0)
(-0.92016858 0 0)
(-0.91590412 0 0)
(-0.91253895 0 0)
(-0.91069405 0 0)
(-0.13173473 0 0)
(-0.045657136 0 0)
(-0.21120817 0 0)
(-0.28497652 0 0)
(-0.35349227 0 0)
(-0.41701365 0 0)
(-0.47602695 0 0)
(-0.5307635 0 0)
(-0.58160879 0 0)
(-0.62880295 0 0)
(-0.67246555 0 0)
(-0.71123902 0 0)
(-0.74501037 0 0)
(-0.77535295 0 0)
(-0.80229517 0 0)
(-0.82636543 0 0)
(-0.84768923 0 0)
(-0.86629915 0 0)
(-0.88248688 0 0)
(-0.89644524 0 0)
(-0.90830962 0 0)
(-0.91823433 0 0)
(-0.92638876 0 0)
(-0.93293395 0 0)
(-0.93803761 0 0)
(-0.94186568 0 0)
(-0.94459324 0 0)
(-0.94633402 0 0)
(-0.94714799 0 0)
(-0.94713419 0 0)
(-0.94633721 0 0)
(-0.94477959 0 0)
(-0.94244546 0 0)
(-0.93936195 0 0)
(-0.93558382 0 0)
(-0.93125848 0 0)
(-0.9265525 0 0)
(-0.92167978 0 0)
(-0.9170597 0 0)
(-0.91338184 0 0)
(-0.91124724 0 0)
(-0.21108491 0 0)
(-0.13171777 0 0)
(-0.045671428 0 0)
(-0.28464388 0 0)
(-0.35289766 0 0)
(-0.41611882 0 0)
(-0.47480434 0 0)
(-0.52921947 0 0)
(-0.57975308 0 0)
(-0.62665313 0 0)
(-0.67008116 0 0)
(-0.71028896 0 0)
(-0.74576184 0 0)
(-0.77631036 0 0)
(-0.80345483 0 0)
(-0.82775548 0 0)
(-0.84933316 0 0)
(-0.86819082 0 0)
(-0.88464155 0 0)
(-0.89886711 0 0)
(-0.91099753 0 0)
(-0.92118712 0 0)
(-0.92960396 0 0)
(-0.93639781 0 0)
(-0.94172753 0 0)
(-0.94576645 0 0)
(-0.94868694 0 0)
(-0.95063246 0 0)
(-0.95169794 0 0)
(-0.95193972 0 0)
(-0.95141226 0 0)
(-0.95016856 0 0)
(-0.94819741 0 0)
(-0.94547401 0 0)
(-0.94202205 0 0)
(-0.93785841 0 0)
(-0.93316589 0 0)
(-0.92809786 0 0)
(-0.92286491 0 0)
(-0.91792276 0 0)
(-0.91395173 0 0)
(-0.91155262 0 0)
(-0.28447118 0 0)
(-0.2110533 0 0)
(-0.1317588 0 0)
(-0.045711876 0 0)
(-0.35249357 0 0)
(-0.41543594 0 0)
(-0.47380795 0 0)
(-0.5279047 0 0)
(-0.57812194 0 0)
(-0.62472162 0 0)
(-0.66788829 0 0)
(-0.70787889 0 0)
(-0.74483358 0 0)
(-0.77709536 0 0)
(-0.80443836 0 0)
(-0.82895129 0 0)
(-0.85076658 0 0)
(-0.86985777 0 0)
(-0.88654946 0 0)
(-0.90103515 0 0)
(-0.91342981 0 0)
(-0.9238726 0 0)
(-0.9325331 0 0)
(-0.9395609 0 0)
(-0.94511963 0 0)
(-0.94936713 0 0)
(-0.95246675 0 0)
(-0.95458577 0 0)
(-0.95585283 0 0)
(-0.95633245 0 0)
(-0.95606392 0 0)
(-0.95511235 0 0)
(-0.9534774 0 0)
(-0.95115228 0 0)
(-0.94808898 0 0)
(-0.94428353 0 0)
(-0.93977206 0 0)
(-0.93472363 0 0)
(-0.92931263 0 0)
(-0.92375759 0 0)
(-0.9185108 0 0)
(-0.91427129 0 0)
(-0.91162357 0 0)
(-0.35228256 0 0)
(-0.28441977 0 0)
(-0.211114 0 0)
(-0.13187649 0 0)
(-0.045776722 0 0)
(-0.41497055 0 0)
(-0.47304505 0 0)
(-0.52683281 0 0)
(-0.57673506 0 0)
(-0.62302382 0 0)
(-0.66591415 0 0)
(-0.70566474 0 0)
(-0.74243249 0 0)
(-0.7761923 0 0)
(-0.80523712 0 0)
(-0.82995862 0 0)
(-0.85199942 0 0)
(-0.87130816 0 0)
(-0.88823364 0 0)
(-0.90296327 0 0)
(-0.91560337 0 0)
(-0.92628864 0 0)
(-0.93519134 0 0)
(-0.94245012 0 0)
(-0.94821788 0 0)
(-0.95266564 0 0)
(-0.95594976 0 0)
(-0.95822234 0 0)
(-0.95964903 0 0)
(-0.96033231 0 0)
(-0.96031825 0 0)
(-0.95963477 0 0)
(-0.95830278 0 0)
(-0.9563319 0 0)
(-0.95368359 0 0)
(-0.95030707 0 0)
(-0.94619203 0 0)
(-0.94134538 0 0)
(-0.93597358 0 0)
(-0.93024252 0 0)
(-0.92437414 0 0)
(-0.91885031 0 0)
(-0.91436066 0 0)
(-0.91148533 0 0)
(-0.41472491 0 0)
(-0.35221725 0 0)
(-0.28449045 0 0)
(-0.21129601 0 0)
(-0.13206761 0 0)
(-0.045866452 0 0)
(-0.47252432 0 0)
(-0.52601271 0 0)
(-0.57560241 0 0)
(-0.62157909 0 0)
(-0.6641817 0 0)
(-0.7036685 0 0)
(-0.7402156 0 0)
(-0.77381288 0 0)
(-0.80437221 0 0)
(-0.83078724 0 0)
(-0.85303548 0 0)
(-0.87255239 0 0)
(-0.88969777 0 0)
(-0.90466162 0 0)
(-0.91754361 0 0)
(-0.92846228 0 0)
(-0.93759224 0 0)
(-0.94506752 0 0)
(-0.95104561 0 0)
(-0.95568795 0 0)
(-0.9591433 0 0)
(-0.96157418 0 0)
(-0.96314724 0 0)
(-0.96397951 0 0)
(-0.96415602 0 0)
(-0.96371782 0 0)
(-0.96266739 0 0)
(-0.96102772 0 0)
(-0.95875993 0 0)
(-0.95583558 0 0)
(-0.95218171 0 0)
(-0.94776639 0 0)
(-0.94261476 0 0)
(-0.93692699 0 0)
(-0.9308918 0 0)
(-0.92474297 0 0)
(-0.91895728 0 0)
(-0.91423661 0 0)
(-0.91114718 0 0)
(-0.47224602 0 0)
(-0.41464776 0 0)
(-0.35229969 0 0)
(-0.2847194 0 0)
(-0.21159618 0 0)
(-0.13233321 0 0)
(-0.04597892 0 0)
(-0.52544984 0 0)
(-0.57473532 0 0)
(-0.62039933 0 0)
(-0.66270549 0 0)
(-0.70191707 0 0)
(-0.7382203 0 0)
(-0.7716095 0 0)
(-0.80201971 0 0)
(-0.82995289 0 0)
(-0.85388578 0 0)
(-0.87360413 0 0)
(-0.89095508 0 0)
(-0.90614402 0 0)
(-0.91925203 0 0)
(-0.93039323 0 0)
(-0.93974691 0 0)
(-0.947438 0 0)
(-0.95361014 0 0)
(-0.95843498 0 0)
(-0.96206648 0 0)
(-0.96464895 0 0)
(-0.96634056 0 0)
(-0.96729219 0 0)
(-0.96762108 0 0)
(-0.96738307 0 0)
(-0.96660066 0 0)
(-0.96525846 0 0)
(-0.96334009 0 0)
(-0.96081854 0 0)
(-0.95763744 0 0)
(-0.95372679 0 0)
(-0.94904449 0 0)
(-0.94359571 0 0)
(-0.93761942 0 0)
(-0.93129932 0 0)
(-0.92487875 0 0)
(-0.91885265 0 0)
(-0.91391778 0 0)
(-0.91063269 0 0)
(-0.525151 0 0)
(-0.47215549 0 0)
(-0.41473515 0 0)
(-0.35257262 0 0)
(-0.28510709 0 0)
(-0.21201344 0 0)
(-0.13266652 0 0)
(-0.046114183 0 0)
(-0.57414125 0 0)
(-0.61949565 0 0)
(-0.66150138 0 0)
(-0.70042236 0 0)
(-0.73646191 0 0)
(-0.76962448 0 0)
(-0.79985166 0 0)
(-0.82765097 0 0)
(-0.85309424 0 0)
(-0.8744587 0 0)
(-0.89201863 0 0)
(-0.90741972 0 0)
(-0.92074687 0 0)
(-0.93210332 0 0)
(-0.94166968 0 0)
(-0.9495633 0 0)
(-0.95592984 0 0)
(-0.9609356 0 0)
(-0.96472411 0 0)
(-0.96744696 0 0)
(-0.9692638 0 0)
(-0.97033001 0 0)
(-0.97077518 0 0)
(-0.97067546 0 0)
(-0.9700877 0 0)
(-0.96901546 0 0)
(-0.96741796 0 0)
(-0.96527926 0 0)
(-0.96252864 0 0)
(-0.95912645 0 0)
(-0.95498421 0 0)
(-0.95004084 0 0)
(-0.94431891 0 0)
(-0.93805944 0 0)
(-0.93147035 0 0)
(-0.9248042 0 0)
(-0.91855209 0 0)
(-0.91341665 0 0)
(-0.90994871 0 0)
(-0.57382329 0 0)
(-0.52504766 0 0)
(-0.47224802 0 0)
(-0.41504536 0 0)
(-0.35303783 0 0)
(-0.28564473 0 0)
(-0.21253948 0 0)
(-0.13306935 0 0)
(-0.046269461 0 0)
(-0.61887662 0 0)
(-0.66057947 0 0)
(-0.69920227 0 0)
(-0.73496242 0 0)
(-0.7678699 0 0)
(-0.79788586 0 0)
(-0.82551724 0 0)
(-0.85085811 0 0)
(-0.87373139 0 0)
(-0.8928816 0 0)
(-0.90849402 0 0)
(-0.92203435 0 0)
(-0.93359527 0 0)
(-0.94336881 0 0)
(-0.95146473 0 0)
(-0.95801382 0 0)
(-0.96318938 0 0)
(-0.9671396 0 0)
(-0.97000307 0 0)
(-0.97193154 0 0)
(-0.97308677 0 0)
(-0.97361778 0 0)
(-0.97362468 0 0)
(-0.97318255 0 0)
(-0.97232036 0 0)
(-0.97102212 0 0)
(-0.9692264 0 0)
(-0.966884 0 0)
(-0.9639374 0 0)
(-0.96032507 0 0)
(-0.95596623 0 0)
(-0.95078635 0 0)
(-0.94479673 0 0)
(-0.93827723 0 0)
(-0.93143541 0 0)
(-0.92453245 0 0)
(-0.91807075 0 0)
(-0.91275219 0 0)
(-0.90911735 0 0)
(-0.61854537 0 0)
(-0.57371597 0 0)
(-0.52514575 0 0)
(-0.47258849 0 0)
(-0.41556839 0 0)
(-0.35368524 0 0)
(-0.28633244 0 0)
(-0.21317392 0 0)
(-0.13353115 0 0)
(-0.046444291 0 0)
(-0.65994831 0 0)
(-0.6982664 0 0)
(-0.73373375 0 0)
(-0.76637249 0 0)
(-0.79615545 0 0)
(-0.82358859 0 0)
(-0.84877773 0 0)
(-0.87158413 0 0)
(-0.89221937 0 0)
(-0.90937662 0 0)
(-0.9231196 0 0)
(-0.93488207 0 0)
(-0.94485689 0 0)
(-0.95314427 0 0)
(-0.95987581 0 0)
(-0.96522267 0 0)
(-0.9693205 0 0)
(-0.97231022 0 0)
(-0.97434962 0 0)
(-0.97559226 0 0)
(-0.97618603 0 0)
(-0.97627574 0 0)
(-0.97594614 0 0)
(-0.97522646 0 0)
(-0.97414422 0 0)
(-0.97265932 0 0)
(-0.97069 0 0)
(-0.9681878 0 0)
(-0.96505909 0 0)
(-0.96126352 0 0)
(-0.95670488 0 0)
(-0.95129271 0 0)
(-0.94505475 0 0)
(-0.93828075 0 0)
(-0.93120027 0 0)
(-0.92408133 0 0)
(-0.91742438 0 0)
(-0.91193268 0 0)
(-0.90814091 0 0)
(-0.65961267 0 0)
(-0.61843329 0 0)
(-0.57381453 0 0)
(-0.52550226 0 0)
(-0.47316642 0 0)
(-0.4163064 0 0)
(-0.35451429 0 0)
(-0.28715662 0 0)
(-0.21390458 0 0)
(-0.13405398 0 0)
(-0.046634663 0 0)
(-0.69762213 0 0)
(-0.73278981 0 0)
(-0.76514153 0 0)
(-0.79466964 0 0)
(-0.82188036 0 0)
(-0.84689552 0 0)
(-0.86959098 0 0)
(-0.89017795 0 0)
(-0.90877427 0 0)
(-0.92401459 0 0)
(-0.9359743 0 0)
(-0.94614175 0 0)
(-0.95461862 0 0)
(-0.96152471 0 0)
(-0.96703368 0 0)
(-0.97128425 0 0)
(-0.97440476 0 0)
(-0.97654471 0 0)
(-0.97786169 0 0)
(-0.97850986 0 0)
(-0.97864493 0 0)
(-0.97838284 0 0)
(-0.97777234 0 0)
(-0.97684796 0 0)
(-0.97560083 0 0)
(-0.97397661 0 0)
(-0.97187423 0 0)
(-0.96921919 0 0)
(-0.96593224 0 0)
(-0.96195771 0 0)
(-0.95721105 0 0)
(-0.95158442 0 0)
(-0.94510251 0 0)
(-0.93809382 0 0)
(-0.93078826 0 0)
(-0.92346401 0 0)
(-0.91662404 0 0)
(-0.91097517 0 0)
(-0.90704021 0 0)
(-0.69727703 0 0)
(-0.65949703 0 0)
(-0.61853715 0 0)
(-0.57419376 0 0)
(-0.52612177 0 0)
(-0.47398272 0 0)
(-0.41724174 0 0)
(-0.3555092 0 0)
(-0.28811569 0 0)
(-0.21472927 0 0)
(-0.13462282 0 0)
(-0.046784677 0 0)
(-0.73213794 0 0)
(-0.76419319 0 0)
(-0.79345286 0 0)
(-0.82041778 0 0)
(-0.84522223 0 0)
(-0.86777277 0 0)
(-0.88828191 0 0)
(-0.90685121 0 0)
(-0.92348008 0 0)
(-0.93686838 0 0)
(-0.94722854 0 0)
(-0.95589113 0 0)
(-0.9629699 0 0)
(-0.96864371 0 0)
(-0.97303905 0 0)
(-0.97627961 0 0)
(-0.97851931 0 0)
(-0.97991546 0 0)
(-0.98061319 0 0)
(-0.98076798 0 0)
(-0.98053326 0 0)
(-0.98000159 0 0)
(-0.97919453 0 0)
(-0.97811119 0 0)
(-0.97674028 0 0)
(-0.97500199 0 0)
(-0.97278235 0 0)
(-0.97000646 0 0)
(-0.96656698 0 0)
(-0.96243268 0 0)
(-0.95750865 0 0)
(-0.95167152 0 0)
(-0.9449614 0 0)
(-0.93772371 0 0)
(-0.93020755 0 0)
(-0.92269389 0 0)
(-0.9156848 0 0)
(-0.90988358 0 0)
(-0.90575733 0 0)
(-0.73178286 0 0)
(-0.69715069 0 0)
(-0.65960397 0 0)
(-0.6189328 0 0)
(-0.57484107 0 0)
(-0.52698798 0 0)
(-0.47502266 0 0)
(-0.41837582 0 0)
(-0.35666639 0 0)
(-0.28919167 0 0)
(-0.21562937 0 0)
(-0.13491243 0 0)
(-0.046730635 0 0)
(-0.76353458 0 0)
(-0.7925106 0 0)
(-0.81921186 0 0)
(-0.84378841 0 0)
(-0.86616079 0 0)
(-0.88654414 0 0)
(-0.90505128 0 0)
(-0.92167859 0 0)
(-0.93641671 0 0)
(-0.94812601 0 0)
(-0.95696811 0 0)
(-0.96421837 0 0)
(-0.97005233 0 0)
(-0.97459601 0 0)
(-0.97796412 0 0)
(-0.98029977 0 0)
(-0.98176271 0 0)
(-0.98250498 0 0)
(-0.98268202 0 0)
(-0.98244323 0 0)
(-0.98192732 0 0)
(-0.98119554 0 0)
(-0.98023645 0 0)
(-0.9790523 0 0)
(-0.97759512 0 0)
(-0.97577653 0 0)
(-0.97346624 0 0)
(-0.97056945 0 0)
(-0.96699406 0 0)
(-0.96270068 0 0)
(-0.95760806 0 0)
(-0.95157268 0 0)
(-0.94463966 0 0)
(-0.93718983 0 0)
(-0.92947454 0 0)
(-0.92178241 0 0)
(-0.91461236 0 0)
(-0.90859725 0 0)
(-0.90427535 0 0)
(-0.76317089 0 0)
(-0.73164957 0 0)
(-0.69724979 0 0)
(-0.66000355 0 0)
(-0.61960962 0 0)
(-0.57575928 0 0)
(-0.5281017 0 0)
(-0.47628121 0 0)
(-0.41968553 0 0)
(-0.35796964 0 0)
(-0.2903766 0 0)
(-0.21603647 0 0)
(-0.13474384 0 0)
(-0.046666999 0 0)
(-0.79185668 0 0)
(-0.81828008 0 0)
(-0.84260201 0 0)
(-0.86476903 0 0)
(-0.88500166 0 0)
(-0.9034064 0 0)
(-0.91998541 0 0)
(-0.93474347 0 0)
(-0.94774705 0 0)
(-0.95785833 0 0)
(-0.96527926 0 0)
(-0.97127196 0 0)
(-0.9759626 0 0)
(-0.97945195 0 0)
(-0.98188512 0 0)
(-0.98342211 0 0)
(-0.98420879 0 0)
(-0.98439656 0 0)
(-0.98414775 0 0)
(-0.98361248 0 0)
(-0.98289415 0 0)
(-0.98202424 0 0)
(-0.98097655 0 0)
(-0.97972074 0 0)
(-0.97820608 0 0)
(-0.97632082 0 0)
(-0.97392774 0 0)
(-0.97093125 0 0)
(-0.96722013 0 0)
(-0.96278125 0 0)
(-0.9575263 0 0)
(-0.95129738 0 0)
(-0.94415513 0 0)
(-0.9365008 0 0)
(-0.92859786 0 0)
(-0.92073861 0 0)
(-0.91330895 0 0)
(-0.90709027 0 0)
(-0.90262138 0 0)
(-0.79149363 0 0)
(-0.76302797 0 0)
(-0.73173487 0 0)
(-0.69764198 0 0)
(-0.66069587 0 0)
(-0.62056706 0 0)
(-0.576926 0 0)
(-0.52944053 0 0)
(-0.47773969 0 0)
(-0.42116584 0 0)
(-0.35940103 0 0)
(-0.29087557 0 0)
(-0.21576593 0 0)
(-0.13454824 0 0)
(-0.046594283 0 0)
(-0.81762773 0 0)
(-0.84168253 0 0)
(-0.86362143 0 0)
(-0.88366407 0 0)
(-0.90193583 0 0)
(-0.91843748 0 0)
(-0.93317648 0 0)
(-0.94622403 0 0)
(-0.95755686 0 0)
(-0.96615336 0 0)
(-0.97230908 0 0)
(-0.97714607 0 0)
(-0.98076354 0 0)
(-0.98329609 0 0)
(-0.98490191 0 0)
(-0.98572892 0 0)
(-0.98593529 0 0)
(-0.98567415 0 0)
(-0.98509712 0 0)
(-0.98434266 0 0)
(-0.98348885 0 0)
(-0.9825338 0 0)
(-0.98143104 0 0)
(-0.98014789 0 0)
(-0.97859738 0 0)
(-0.97666707 0 0)
(-0.97420627 0 0)
(-0.97110545 0 0)
(-0.96726929 0 0)
(-0.96268343 0 0)
(-0.95727274 0 0)
(-0.95085928 0 0)
(-0.94351533 0 0)
(-0.93566787 0 0)
(-0.92758778 0 0)
(-0.91941593 0 0)
(-0.91175908 0 0)
(-0.90542331 0 0)
(-0.90080855 0 0)
(-0.81726336 0 0)
(-0.79134514 0 0)
(-0.76310215 0 0)
(-0.73212077 0 0)
(-0.69833269 0 0)
(-0.66166681 0 0)
(-0.62178737 0 0)
(-0.5783426 0 0)
(-0.53099949 0 0)
(-0.47938394 0 0)
(-0.42278914 0 0)
(-0.35998923 0 0)
(-0.29051253 0 0)
(-0.21545186 0 0)
(-0.13431856 0 0)
(-0.046509695 0 0)
(-0.84103546 0 0)
(-0.8627259 0 0)
(-0.88255916 0 0)
(-0.9006648 0 0)
(-0.91704836 0 0)
(-0.93172957 0 0)
(-0.94478373 0 0)
(-0.95619028 0 0)
(-0.96593661 0 0)
(-0.9731636 0 0)
(-0.97814974 0 0)
(-0.98189566 0 0)
(-0.98453026 0 0)
(-0.98621369 0 0)
(-0.98708766 0 0)
(-0.98730295 0 0)
(-0.98702611 0 0)
(-0.98641108 0 0)
(-0.98559397 0 0)
(-0.98469514 0 0)
(-0.98376362 0 0)
(-0.98277415 0 0)
(-0.98166367 0 0)
(-0.98036856 0 0)
(-0.97880008 0 0)
(-0.97682871 0 0)
(-0.97430281 0 0)
(-0.97111062 0 0)
(-0.96714734 0 0)
(-0.96242258 0 0)
(-0.95685976 0 0)
(-0.95026813 0 0)
(-0.9427312 0 0)
(-0.9347018 0 0)
(-0.92625001 0 0)
(-0.91781071 0 0)
(-0.91005297 0 0)
(-0.90358444 0 0)
(-0.89882274 0 0)
(-0.84066897 0 0)
(-0.8171096 0 0)
(-0.79141397 0 0)
(-0.76347651 0 0)
(-0.73279534 0 0)
(-0.69930111 0 0)
(-0.66291205 0 0)
(-0.62326485 0 0)
(-0.57997948 0 0)
(-0.53275453 0 0)
(-0.48118805 0 0)
(-0.42343144 0 0)
(-0.35954325 0 0)
(-0.29008364 0 0)
(-0.21508594 0 0)
(-0.1340603 0 0)
(-0.046414779 0 0)
(-0.86209743 0 0)
(-0.88169298 0 0)
(-0.8996074 0 0)
(-0.91584724 0 0)
(-0.93043586 0 0)
(-0.94345319 0 0)
(-0.95488672 0 0)
(-0.96472775 0 0)
(-0.97302809 0 0)
(-0.97898032 0 0)
(-0.98285651 0 0)
(-0.98559974 0 0)
(-0.98736299 0 0)
(-0.98828427 0 0)
(-0.98852005 0 0)
(-0.98823069 0 0)
(-0.98756754 0 0)
(-0.98668353 0 0)
(-0.98571391 0 0)
(-0.98473534 0 0)
(-0.98377185 0 0)
(-0.98278437 0 0)
(-0.98168623 0 0)
(-0.98040829 0 0)
(-0.97883146 0 0)
(-0.97683096 0 0)
(-0.97424615 0 0)
(-0.97095618 0 0)
(-0.9668712 0 0)
(-0.96200747 0 0)
(-0.95629598 0 0)
(-0.94952983 0 0)
(-0.9418129 0 0)
(-0.93335979 0 0)
(-0.92458772 0 0)
(-0.91605364 0 0)
(-0.90817947 0 0)
(-0.9015863 0 0)
(-0.89667866 0 0)
(-0.86173779 0 0)
(-0.8405089 0 0)
(-0.81716659 0 0)
(-0.79177179 0 0)
(-0.76413754 0 0)
(-0.73375906 0 0)
(-0.70054961 0 0)
(-0.66440979 0 0)
(-0.6249746 0 0)
(-0.58182996 0 0)
(-0.53468399 0 0)
(-0.481887 0 0)
(-0.42290046 0 0)
(-0.35901727 0 0)
(-0.28959762 0 0)
(-0.21467569 0 0)
(-0.13376325 0 0)
(-0.046304211 0 0)
(-0.88108166 0 0)
(-0.89878191 0 0)
(-0.91484586 0 0)
(-0.92930873 0 0)
(-0.94225384 0 0)
(-0.95367805 0 0)
(-0.96357152 0 0)
(-0.97198347 0 0)
(-0.97891987 0 0)
(-0.98365051 0 0)