/*--------------------------------*- C++ -*----------------------------------*\
| =========                 |                                                 |
| \\      /  F ield         | OpenFOAM: The Open Source CFD Toolbox           |
|  \\    /   O peration     | Version:  v2012                                 |
|   \\  /    A nd           | Website:  www.openfoam.com                      |
|    \\/     M anipulation  |                                                 |
\*---------------------------------------------------------------------------*/
FoamFile
{
    version     2.0;
    format      ascii;
    class       surfaceVectorField;
    location    "110.62696666682217";
    object      Uf;
}
// * * * * * * * * * * * * * * * * * * * * * * * * * * * * * * * * * * * * * //

dimensions      [0 1 -1 0 0 0 0];


internalField   nonuniform List<vector> 
18180
(
(2.7339214 0.004371711 2.1623036e-21)
(2.7258139 0.0047701256 -6.4357942e-21)
(2.7428381 0.007351602 4.0576444e-21)
(2.7336651 0.012920024 1.2895031e-20)
(2.7250714 0.013395909 4.8796777e-21)
(2.7135854 0.0076723475 -4.0727639e-21)
(2.7566369 0.0085258193 2.8638044e-22)
(2.7458606 0.020565939 -1.0458163e-20)
(2.7356983 0.026188247 -2.2924477e-21)
(2.7211795 0.023585709 1.2700359e-20)
(2.7102082 0.018345755 4.3220695e-21)
(2.6974755 0.0095303108 2.3996149e-21)
(2.7756737 0.0067662107 4.2856111e-21)
(2.7652128 0.026617704 2.9193809e-21)
(2.752574 0.038421268 -7.2738647e-21)
(2.7330958 0.038881232 -1.1929513e-20)
(2.7195137 0.036768572 2.1534143e-21)
(2.7038814 0.030973727 3.9131251e-21)
(2.6914124 0.022943893 2.0848549e-21)
(2.6780955 0.010958568 6.9569832e-21)
(2.7997082 0.0010381076 7.3074416e-21)
(2.7906976 0.030732518 5.2225453e-21)
(2.7768551 0.050180094 3.9020534e-21)
(2.7520977 0.054789813 3.4222489e-21)
(2.7342691 0.055687537 -8.4451707e-22)
(2.7141019 0.051635988 5.4603275e-21)
(2.6987869 0.046455035 7.1742146e-21)
(2.6826458 0.03671967 -9.0557094e-21)
(2.6697356 0.025817928 -4.5864999e-21)
(2.6571192 0.011733237 1.0416151e-20)
(2.8289101 -0.010114986 -1.1242755e-21)
(2.8237579 0.032101474 3.0721147e-21)
(2.8091745 0.061155077 1.0365001e-21)
(2.7776183 0.071025555 -3.0432285e-21)
(2.7554757 0.076126687 -3.640138e-21)
(2.7301575 0.074708315 -5.1463931e-21)
(2.7103718 0.071408067 7.3474028e-22)
(2.6900011 0.061427675 1.4721727e-20)
(2.6743815 0.052364242 -5.5773875e-22)
(2.6595808 0.03986784 -6.9880509e-21)
(2.6473015 0.02706807 7.2064717e-21)
(2.6359656 0.011892985 4.3996196e-21)
(2.8631917 -0.028668239 1.1911791e-20)
(2.865093 0.029562424 -8.6077347e-21)
(2.8511523 0.070931088 -4.554412e-21)
(2.8113187 0.088225969 -9.4875413e-21)
(2.7837539 0.098684486 -1.3458311e-20)
(2.7517273 0.10007893 -3.3839542e-21)
(2.7267443 0.099492485 -4.8434942e-21)
(2.7011508 0.089770317 -8.3808562e-21)
(2.6814535 0.080785917 4.7391143e-21)
(2.6635908 0.066585266 7.242681e-21)
(2.649187 0.054753494 1.2699338e-21)
(2.6364408 0.040624326 2.6551354e-21)
(2.62544 0.026838502 -6.3947849e-23)
(2.6157907 0.01152065 -5.8563942e-21)
(2.9026708 -0.057103341 7.5997457e-21)
(2.9161356 0.021642698 1.4834116e-20)
(2.9046542 0.078769494 -4.4155208e-21)
(2.8544639 0.10624145 -4.2099335e-21)
(2.8205204 0.12420111 -8.8029253e-21)
(2.7800026 0.12960231 -3.029035e-21)
(2.7481648 0.13210125 6.6646128e-21)
(2.7157078 0.1216482 -1.15738e-21)
(2.6909112 0.11298206 -4.4997505e-21)
(2.6691527 0.097334252 -4.0174993e-21)
(2.6517458 0.084236691 -1.753275e-21)
(2.6372323 0.067518433 -6.6241805e-21)
(2.6248621 0.054021112 -5.4152469e-21)
(2.6145846 0.039380634 -2.6183891e-21)
(2.6052301 0.025469599 -8.143349e-21)
(2.597374 0.010752103 -5.173482e-21)
(2.9475384 -0.098775529 -1.6378796e-20)
(2.9791306 0.0060747062 1.8604337e-20)
(2.9728917 0.083514039 2.5614054e-20)
(2.9093321 0.12522613 1.696133e-20)
(2.8676482 0.15352292 1.7681024e-20)
(2.8159824 0.16423746 1.8307192e-21)
(2.7753419 0.17104488 7.2878017e-21)
(2.7339921 0.15963459 6.9396226e-21)
(2.7024189 0.15060828 -4.956466e-22)
(2.6757079 0.13177737 9.0328671e-21)
(2.6544369 0.11724374 9.6478745e-21)
(2.637586 0.098165436 1.1216811e-21)
(2.6234813 0.082570059 -3.4567224e-21)
(2.6126749 0.06500308 -4.7140406e-21)
(2.6027023 0.050949632 -2.0503071e-21)
(2.5948752 0.036680417 -3.8167656e-22)
(2.5872703 0.02332059 2.5421657e-21)
(2.5811527 0.0097261352 -7.2503877e-22)
(2.9960671 -0.15760322 1.2443447e-20)
(3.0563903 -0.020054365 -6.9964062e-21)
(3.0597199 0.082971054 2.6299994e-20)
(2.9801883 0.14469042 2.4324541e-20)
(2.9286215 0.18753692 1.6323361e-20)
(2.8615955 0.20576146 1.2990735e-20)
(2.8093062 0.21841487 -2.2509325e-21)
(2.7561152 0.20529389 -3.1970306e-22)
(2.7156352 0.19569877 -7.5372427e-22)
(2.6827118 0.17253097 -1.9016006e-21)
(2.6564825 0.15518935 7.0865832e-21)
(2.6368829 0.13182473 1.0212497e-20)
(2.6204759 0.11383553 2.1252682e-21)
(2.6088105 0.093694023 1.3725091e-21)
(2.5982976 0.077211994 2.4711202e-22)
(2.590938 0.060061819 3.853422e-22)
(2.5833467 0.04632784 2.0015422e-21)
(2.5777534 0.033048176 3.2769427e-21)
(2.5718343 0.020715515 1.8855488e-22)
(2.5672911 0.0085625735 -1.3652972e-21)
(3.0406476 -0.23534696 4.3880027e-20)
(3.1420051 -0.059500217 -5.8293542e-20)
(3.1629722 0.075009826 -7.7690187e-20)
(3.0700284 0.16428411 1.9633097e-20)
(3.0068397 0.22720869 1.7669662e-20)
(2.9206474 0.25589437 7.8460862e-21)
(2.8523698 0.27682311 4.571222e-21)
(2.7826256 0.26124743 -1.665717e-20)
(2.7301051 0.25061762 -1.5167682e-20)
(2.6892913 0.22096446 -2.0025169e-21)
(2.6567834 0.19963832 -3.1078684e-21)
(2.6340495 0.17068954 -8.9068926e-21)
(2.6149232 0.14875386 -6.1891127e-21)
(2.6024922 0.12430383 -4.2901352e-21)
(2.59112 0.10518275 -5.099086e-21)
(2.5840338 0.085671249 -3.7775151e-21)
(2.576863 0.069532074 -3.7020811e-21)
(2.5724565 0.053646128 -2.6823286e-21)
(2.5670247 0.040845303 -1.538658e-21)
(2.5633402 0.028928506 1.1863891e-21)
(2.5589423 0.017912433 -2.7439101e-22)
(2.55576 0.0073542631 -9.2886603e-22)
(3.0473343 -0.31347244 4.8953856e-20)
(3.1850991 -0.10716315 -1.0640265e-20)
(3.2335358 0.060291669 -1.0824972e-19)
(3.1688053 0.18501073 1.2707198e-20)
(3.0966158 0.2743927 1.0618867e-19)
(2.9942915 0.31727679 1.6995999e-20)
(2.9061234 0.3496331 7.6744751e-21)
(2.8153285 0.33053323 8.5818043e-21)
(2.7457522 0.31841084 -1.1359244e-20)
(2.6943627 0.27941207 -1.278396e-20)
(2.6538203 0.25220986 -2.7064408e-22)
(2.6277012 0.21541529 2.0234406e-21)
(2.6054728 0.18817499 -3.3999246e-21)
(2.5924965 0.15845787 -4.8099004e-21)
(2.5803531 0.13532093 -3.0011973e-21)
(2.5739157 0.1120566 -1.9464213e-21)
(2.5669882 0.093473853 -6.4990786e-22)
(2.5636198 0.075643049 -1.5656344e-21)
(2.5592977 0.060671772 -5.6411576e-22)
(2.5572596 0.046532735 -1.9166018e-21)
(2.553668 0.035035851 6.6059184e-22)
(2.551543 0.024661802 1.3521698e-21)
(2.5484561 0.015100777 7.5427577e-22)
(2.5464072 0.0061674129 2.7198777e-22)
(2.9930731 -0.39233014 5.3822502e-20)
(3.1697443 -0.15718748 3.6427459e-20)
(3.2468109 0.04109225 -2.02396e-20)
(3.2224711 0.20899432 -1.2704672e-19)
(3.1787612 0.33489348 -1.2249346e-20)
(3.0648994 0.39342013 9.5328682e-20)
(2.9596985 0.44066471 1.0972886e-20)
(2.8534126 0.41747153 1.3713131e-20)
(2.7616151 0.40332787 1.4902456e-20)
(2.6970263 0.35041986 1.8042991e-20)
(2.6456967 0.31474209 1.7093369e-20)
(2.6159597 0.2673032 4.5762191e-21)
(2.5903983 0.23270076 6.8345548e-21)
(2.5774635 0.19605849 7.8638338e-21)
(2.5647756 0.1678618 6.6779984e-21)
(2.5594633 0.14033375 6.381199e-21)
(2.5531468 0.11824253 7.5106945e-21)
(2.5513013 0.097431574 5.1460293e-21)
(2.5479599 0.080425115 4.3627378e-21)
(2.5474051 0.064808138 3.0401349e-21)
(2.5453621 0.051474709 1.8077644e-21)
(2.5451321 0.039293189 1.0144278e-22)
(2.5430404 0.029279673 7.4490153e-22)
(2.5421429 0.020488788 1.3862729e-21)
(2.5401462 0.012408778 9.3779488e-22)
(2.5390125 0.0050453094 7.0205019e-22)
(2.8783721 -0.46012854 -2.7162853e-21)
(3.075098 -0.1926906 8.3169215e-20)
(3.1966878 0.0302357 6.7078417e-20)
(3.1926873 0.24406905 -2.6928208e-19)
(3.1881026 0.40539147 -3.7304875e-19)
(3.0929833 0.49064427 -8.743473e-20)
(2.9769881 0.55321621 1.3841747e-20)
(2.8785431 0.52623063 4.3705951e-21)
(2.76832 0.50973244 6.878647e-21)
(2.6947879 0.43777612 9.8214879e-21)
(2.6299519 0.38959831 1.2729621e-20)
(2.596575 0.32723294 1.5915674e-20)
(2.5675174 0.2826463 4.0420505e-21)
(2.5556321 0.23741285 6.4846442e-22)
(2.5430028 0.20265403 1.5394182e-21)
(2.5396437 0.16987351 6.0348424e-21)
(2.5344186 0.14366457 5.7706889e-21)
(2.5346021 0.11974194 8.2793596e-21)
(2.5327146 0.099953447 6.0480141e-21)
(2.534128 0.082132336 7.5667495e-21)
(2.5334924 0.067229559 6.3571207e-21)
(2.5349523 0.054003294 3.0846699e-21)
(2.5346458 0.042512993 1.4803342e-21)
(2.5357345 0.032314155 -5.0643825e-22)
(2.5348221 0.023825762 8.0001954e-23)
(2.5348586 0.016565883 2.3733683e-21)
(2.5337415 0.009915402 2.1708165e-21)
(2.5333268 0.0040136235 5.4231746e-22)
(2.7049154 -0.50581334 9.9407448e-22)
(2.8873851 -0.20178045 6.436446e-20)
(3.0428578 0.0524484 1.4669305e-19)
(3.0270349 0.29946457 2.550169e-19)
(3.0410226 0.49769049 -6.0827743e-20)
(3.011236 0.61082324 -2.626174e-19)
(2.9113917 0.69064803 9.6196086e-21)
(2.849514 0.65947008 -2.3980904e-20)
(2.7401315 0.63682705 -3.3472614e-20)
(2.6758019 0.54442336 -3.2509024e-20)
(2.6012156 0.47866606 -2.9918623e-20)
(2.5668564 0.39651948 -2.5686975e-20)
(2.5344137 0.33802106 -2.3165119e-20)
(2.5249613 0.28199605 -2.0755932e-21)
(2.5134419 0.23909019 -5.3431077e-21)
(2.5132101 0.20038026 -4.0447337e-22)
(2.509912 0.16918341 3.8550793e-21)
(2.512904 0.14166974 2.3368848e-21)
(2.5129765 0.11886565 4.6679484e-21)
(2.5167762 0.098968144 -3.3687697e-21)
(2.5180193 0.082016255 -2.0764327e-21)
(2.5215986 0.067265252 4.9747412e-21)
(2.5228957 0.05464286 1.8527291e-21)
(2.5257177 0.043762297 9.699537e-22)
(2.526677 0.034140625 -9.2498384e-22)
(2.5286819 0.025833747 3.7560483e-22)
(2.528667 0.018821224 2.5520031e-21)
(2.5293895 0.012984158 -5.2114594e-22)
(2.528963 0.0076631403 -2.1031243e-21)
(2.5290982 0.0030851264 -2.9039107e-21)
(2.4892219 -0.528637 4.1390683e-20)
(2.636635 -0.19049059 -3.1631673e-20)
(2.7951262 0.097764271 2.7997074e-20)
(2.7816921 0.3784675 3.7800204e-19)
(2.7812634 0.61181683 4.8336219e-19)
(2.7868616 0.7362114 2.019001e-19)
(2.7414008 0.84032005 1.4185289e-20)
(2.7275461 0.80562596 -2.0458535e-20)
(2.6448321 0.77487801 -5.2717507e-20)
(2.6138485 0.66528195 -2.7398892e-20)
(2.5464344 0.57907427 -2.6319143e-20)
(2.5214146 0.47547697 -2.3041266e-20)
(2.488321 0.39827141 -1.8847546e-20)
(2.4834119 0.32908224 -6.0614457e-21)
(2.4744839 0.27600048 1.4272175e-20)
(2.478916 0.23069059 -2.5969223e-21)
(2.4787395 0.1938497 2.1229983e-21)
(2.485501 0.16267219 -4.1675871e-22)
(2.4883114 0.1364629 -1.9653351e-21)
(2.4951129 0.11433543 -1.6948937e-21)
(2.4986517 0.095363832 -9.4189381e-21)
(2.5046404 0.079361895 -6.8272584e-21)
(2.5079574 0.065330701 -2.0756197e-22)
(2.5128667 0.053477123 2.0374625e-21)
(2.51547 0.04309414 1.2029871e-21)
(2.5191492 0.034390104 -2.2818068e-22)
(2.5209889 0.026550986 1.0063693e-21)
(2.5235919 0.019980034 1.0350342e-21)
(2.5242372 0.014339203 -1.9003459e-21)
(2.5254428 0.0097872464 -4.5681837e-21)
(2.5255455 0.0056692702 -5.3622085e-21)
(2.5260875 0.0022628298 -1.9320729e-21)
(2.2550417 -0.53116209 2.3942585e-20)
(2.3551659 -0.16242934 -8.7986832e-21)
(2.4978185 0.15865335 -7.8700571e-20)
(2.4844083 0.46874588 -3.5041882e-20)
(2.4801442 0.73391699 2.9544549e-19)
(2.5067234 0.86081166 1.8024932e-19)
(2.4872473 0.9756787 -9.0654067e-20)
(2.5124218 0.9414801 -1.3872038e-20)
(2.4696789 0.90847835 -4.7091834e-20)
(2.4834366 0.78382787 -1.816526e-20)
(2.4459077 0.67989692 5.7792736e-21)
(2.4478432 0.55853857 2.6851872e-20)
(2.4242839 0.46068797 3.0751162e-20)
(2.4288053 0.37727668 6.6629011e-21)
(2.4247464 0.31169696 1.9351763e-20)
(2.435669 0.25935788 4.8881997e-21)
(2.440193 0.21627554 -1.1313551e-20)
(2.451881 0.18147835 2.8923671e-22)
(2.4583952 0.15177936 -2.1910174e-21)
(2.4688678 0.12766922 2.5113333e-21)
(2.4753122 0.10659122 2.7881668e-21)
(2.4841406 0.089364591 -5.7245205e-21)
(2.4897675 0.074109327 -3.2159701e-21)
(2.4969291 0.061617137 9.5207326e-22)
(2.5015184 0.050342556 3.0852986e-21)
(2.50715 0.04109309 -3.1535832e-22)
(2.5105768 0.032787371 -1.698196e-21)
(2.5147367 0.026031529 -1.9360321e-21)
(2.5171534 0.019826547 -1.9500413e-21)
(2.5201103 0.014804821 -2.3901979e-21)
(2.5212219 0.010402416 -4.9269293e-21)
(2.5227485 0.0069861166 -1.5479314e-21)
(2.5232454 0.0039326716 1.7586608e-21)
(2.5240774 0.0015457762 4.5937755e-21)
(2.0238024 -0.51706348 4.4966637e-20)
(2.0706108 -0.12191218 -7.7457316e-21)
(2.1833963 0.22958496 -3.921191e-20)
(2.165277 0.56192857 -1.2452843e-19)
(2.1534087 0.85543456 -8.3765634e-20)
(2.1916096 0.98043968 9.6022405e-20)
(2.1879295 1.0981108 -1.5872897e-20)
(2.2411448 1.0588942 -1.4483944e-19)
(2.2312393 1.0247769 -7.2793118e-20)
(2.2849396 0.88471701 -2.0135243e-20)
(2.2881381 0.76651307 7.3616249e-21)
(2.3306165 0.63239135 3.5019824e-21)
(2.3338463 0.51766417 2.3269639e-20)
(2.3571916 0.42283209 5.2184707e-21)
(2.3630466 0.34376233 -1.7827039e-20)
(2.3827697 0.28443659 6.276364e-21)
(2.3939061 0.23469266 -7.6901545e-21)
(2.4117899 0.19671652 -1.1581075e-20)
(2.4231761 0.16360405 -6.4717691e-22)
(2.4380417 0.13783641 6.8925066e-21)
(2.4480594 0.11487095 1.1437556e-20)
(2.4601327 0.096797768 1.8027329e-21)
(2.4684942 0.080393141 -6.2515072e-21)
(2.4781769 0.067373494 -1.3991729e-21)
(2.4849197 0.055465531 2.5672761e-21)
(2.4925646 0.046008727 9.7517925e-22)
(2.4978466 0.037209118 -2.2873932e-21)
(2.5037741 0.030228285 -7.2321243e-22)
(2.5076657 0.023780365 -9.3511595e-22)
(2.5120339 0.018725805 -2.2504657e-21)
(2.5147949 0.013977771 -2.6720825e-21)
(2.5179223 0.010310601 -7.847277e-22)
(2.5193452 0.0070016298 2.4779447e-21)
(2.5210654 0.0045716183 -1.1248103e-21)
(2.5218416 0.0024425519 1.5223022e-21)
(2.5228756 0.00093543241 2.7326931e-21)
(1.8125447 -0.48997149 -8.119437e-20)
(1.8040972 -0.073114025 1.1808447e-19)
(1.8774172 0.30567022 6.9111597e-20)
(1.852593 0.65217192 -2.1012537e-20)
(1.8298348 0.96862152 -1.0163209e-19)
(1.8735095 1.0850065 8.8000522e-20)
(1.8781597 1.2022596 2.6074268e-19)
(1.949899 1.1577797 5.2327288e-20)
(1.9630976 1.119282 -6.8992911e-20)
(2.0431949 0.96132935 -7.3265197e-20)
(2.0836275 0.82894709 -2.3357106e-20)
(2.1667068 0.68367501 -3.8273357e-21)
(2.2098962 0.55725713 -7.8041265e-21)
(2.2628355 0.45748656 -2.7715703e-21)
(2.2879902 0.36787529 -2.0239689e-20)
(2.3198929 0.30336509 -1.8823398e-20)
(2.3400837 0.24706792 4.0134502e-21)
(2.3653939 0.20666237 3.4501204e-21)
(2.382947 0.17055892 -4.9928734e-23)
(2.4029091 0.14379941 -3.0917965e-21)
(2.4172222 0.11928438 3.979433e-21)
(2.4329246 0.10075493 9.1108445e-21)
(2.4444242 0.08354413 -2.7855612e-23)
(2.4568318 0.070394934 -2.5805218e-21)
(2.4659935 0.057998277 2.0713019e-21)
(2.4757965 0.048476477 3.7564468e-23)
(2.4829995 0.039459877 -1.5153766e-21)
(2.4906772 0.032561917 -7.0076932e-22)
(2.4962468 0.025915293 8.0463098e-22)
(2.5021812 0.020868956 2.8067075e-21)
(2.5062785 0.016041764 1.6118612e-21)
(2.5106633 0.012446674 1.2041759e-21)
(2.5135938 0.008971137 3.048518e-21)
(2.5167567 0.0064697315 4.9519708e-21)
(2.5183693 0.0041104314 1.5695223e-21)
(2.520183 0.0025251108 5.9511941e-22)
(2.5211496 0.0011896165 1.729814e-21)
(2.522312 0.00043048974 -5.0177591e-21)
(1.6328627 -0.45320688 -8.8809246e-20)
(1.5710118 -0.019063448 -2.4694895e-19)
(1.5990946 0.38264764 -6.0306873e-20)
(1.5680563 0.73543625 4.8215172e-20)
(1.5342175 1.0679051 -3.7487491e-20)
(1.5788371 1.1741237 -1.5511827e-20)
(1.586106 1.2858632 1.6540044e-19)
(1.6659106 1.2323025 2.3191448e-19)
(1.6968961 1.1897152 3.3973336e-20)
(1.7918156 1.0131431 -6.6315596e-20)
(1.8582669 0.86380898 -6.9956153e-20)
(1.9719528 0.70618635 -1.3605417e-20)
(2.0549842 0.56968992 5.3744525e-21)
(2.1431302 0.47090611 8.6949441e-21)
(2.1981503 0.37715018 1.3359761e-20)
(2.2469253 0.31204826 -5.493818e-21)
(2.2796631 0.25107155 -3.9490711e-21)
(2.3134536 0.20956362 5.0019694e-21)
(2.3384505 0.17122426 4.4321333e-21)
(2.3641022 0.14434515 1.3710291e-22)
(2.3834191 0.11891468 -2.7848015e-21)
(2.4030453 0.10055698 7.8965007e-21)
(2.4180663 0.082933083 1.2815812e-20)
(2.4333583 0.070008567 4.3944295e-22)
(2.445143 0.057486111 -1.9743511e-21)
(2.4571691 0.048263063 1.9390218e-21)
(2.4664372 0.039193315 2.2560549e-23)
(2.4759204 0.032524457 -4.5358522e-21)
(2.4831577 0.025941569 -3.8056087e-21)
(2.4905864 0.021163811 1.4155576e-21)
(2.4961693 0.016350216 3.3226231e-21)
(2.5019221 0.012927842 -4.2481776e-22)
(2.506043 0.009489639 -8.4003888e-22)
(2.5103133 0.0071295225 1.9004534e-21)
(2.5132846 0.0047478895 3.6893774e-21)
(2.5163857 0.0032367152 2.0429425e-21)
(2.5180933 0.0016919681 1.1255709e-21)
(2.5199244 0.00081836239 6.5775005e-21)
(2.5210273 0.00015388102 2.4843931e-22)
(2.5222415 3.8817337e-05 1.1785856e-21)
(1.4906643 -0.40958632 2.7950303e-19)
(1.3801052 0.037037368 -8.6983764e-21)
(1.3616788 0.45692408 -1.5750659e-19)
(1.3273204 0.80934537 -1.2829884e-19)
(1.284461 1.1501889 -2.646468e-20)
(1.3254093 1.2461108 -1.1915822e-19)
(1.3323519 1.3494759 -1.0000999e-19)
(1.4098182 1.2854668 1.6831122e-19)
(1.453482 1.235745 2.313959e-19)
(1.5550488 1.0406653 -2.6490443e-20)
(1.6372259 0.87320719 -1.2202394e-19)
(1.770193 0.70089667 -6.5969877e-20)
(1.8829115 0.55257817 -1.1840561e-20)
(2.0037231 0.45676255 9.304312e-21)
(2.0939534 0.36443764 1.176379e-20)
(2.1642483 0.3050663 1.1511023e-20)
(2.2142246 0.24390368 -6.6268342e-21)
(2.2574295 0.20358639 -7.6721534e-21)
(2.2909889 0.16432646 8.2814359e-22)
(2.3226547 0.13844191 4.1825831e-21)
(2.3475776 0.11294571 1.0716173e-22)
(2.3712901 0.095468529 -1.1447347e-22)
(2.3901297 0.078023684 1.0014011e-20)
(2.4083663 0.065834577 1.2350942e-20)
(2.422934 0.05353884 6.0988095e-22)
(2.4372064 0.044899236 -2.9645181e-21)
(2.4486074 0.03610864 7.2891647e-22)
(2.4598728 0.029977895 1.5652534e-21)
(2.4688344 0.023617032 -2.7440428e-21)
(2.477751 0.019244996 -4.2072383e-21)
(2.4847564 0.014675754 7.3815984e-22)
(2.4917703 0.011632594 1.7264735e-21)
(2.4971881 0.0083554248 -1.8468156e-21)
(2.5026421 0.0062803351 -3.4287229e-21)
(2.5066621 0.0040165202 -8.6632126e-22)
(2.5107313 0.002688882 1.718026e-21)
(2.5136513 0.0012353981 1.2871432e-22)
(2.5166224 0.00055606328 -2.6641724e-21)
(2.5183503 -0.00030287564 2.4535578e-21)
(2.5201433 -0.00059091948 1.5101127e-21)
(2.5212971 -0.00067080143 2.4102554e-21)
(2.5225356 -0.00021861155 7.2509807e-21)
(1.3869702 -0.36145908 1.2836481e-19)
(1.2343591 0.093163402 6.4353199e-19)
(1.1720234 0.52575038 3.7529867e-19)
(1.1385286 0.87256012 -7.7103475e-20)
(1.0905227 1.2146222 -4.8433195e-20)
(1.124151 1.3010991 -9.8156548e-20)
(1.1290194 1.3951709 -1.880997e-19)
(1.195481 1.319639 -8.9895943e-20)
(1.2449367 1.26011 1.6393368e-19)
(1.3465605 1.0467977 1.9818105e-19)
(1.4366122 0.86134048 -4.6712656e-20)
(1.5807057 0.67234692 -1.0046196e-19)
(1.7114254 0.50966489 -4.6711131e-20)
(1.8574399 0.41536154 -1.9625294e-20)
(1.9800716 0.32605713 -5.9588621e-22)
(2.0740097 0.27782336 2.9066902e-21)
(2.1457501 0.22246224 2.3219713e-21)
(2.1993173 0.18686826 -7.4310663e-21)
(2.2424543 0.14891261 -8.251584e-21)
(2.2800447 0.12528749 2.2972357e-21)
(2.3109163 0.1007906 5.4976221e-21)
(2.338684 0.085031112 2.9627062e-22)
(2.3615086 0.068448992 5.5593614e-23)
(2.3826336 0.057484081 2.0938155e-21)
(2.4000472 0.045891981 4.1997824e-21)
(2.4165088 0.038223947 5.7491265e-21)
(2.4300687 0.029993967 2.3980168e-21)
(2.4430612 0.024618935 -4.6891728e-23)
(2.4537287 0.018762372 7.2742571e-22)
(2.4640542 0.015046312 1.239913e-21)
(2.4724798 0.01086313 -9.1785979e-23)
(2.480706 0.0083213563 4.9590701e-21)
(2.4873241 0.0053971031 5.9581421e-21)
(2.493835 0.0037590724 2.5217675e-21)
(2.4989778 0.0017539727 1.0810704e-21)
(2.5040658 0.00078701141 -2.6388196e-21)
(2.5079021 -0.00049783631 -2.1297328e-22)
(2.5117165 -0.00097025781 -9.0453513e-22)
(2.5145192 -0.0016444178 -3.5667393e-21)
(2.5173129 -0.0016324327 -1.1239756e-21)
(2.5190088 -0.0019277475 -2.0696416e-21)
(2.5207299 -0.0017410242 -7.6389385e-22)
(2.5219023 -0.0013038842 3.7820153e-21)
(2.523086 -0.00041539858 -1.6670467e-21)
(1.316863 -0.31086777 -2.3684498e-19)
(1.132629 0.14739853 -2.4453531e-19)
(1.0315363 0.58767977 2.384352e-19)
(1.0018322 0.92546907 5.1550733e-19)
(0.95337817 1.2625559 8.861996e-20)
(0.97695538 1.3412994 5.4825002e-20)
(0.97880559 1.4265471 8.5558838e-21)
(1.0286582 1.3393641 -2.4737677e-19)
(1.0761436 1.2682464 -1.5588701e-19)
(1.1721652 1.0361755 1.5104535e-19)
(1.26407 0.83296747 1.8333211e-19)
(1.4145432 0.62575664 6.4297079e-20)
(1.5547189 0.44674285 1.4857184e-20)
(1.7182318 0.35120762 -1.6794847e-20)
(1.8652489 0.26322731 8.817056e-21)
(1.9812668 0.22890753 -5.0206081e-21)
(2.07672 0.18434191 -1.7607659e-21)
(2.1413733 0.15771132 6.6594668e-22)
(2.1951356 0.12440688 -8.6027414e-21)
(2.2381262 0.10452621 -5.5227154e-21)
(2.2749015 0.082233176 4.5155613e-21)
(2.306443 0.069014233 5.0391917e-21)
(2.3332282 0.054082965 1.0153171e-22)
(2.3570404 0.044877132 3.170052e-22)
(2.3772483 0.034460119 2.2531038e-21)
(2.3957594 0.028073628 -5.5048641e-22)
(2.4114274 0.020764406 8.3547507e-22)
(2.4260361 0.01643143 4.78243e-22)
(2.4383621 0.01129291 -1.8668018e-21)
(2.4499964 0.0083969975 -1.083756e-21)
(2.4597729 0.0048239718 -6.1770429e-22)
(2.4690995 0.0029810524 -1.3084614e-21)
(2.476874 0.00052748993 3.464097e-21)
(2.4843682 -0.00056705795 5.1860399e-21)
(2.4905154 -0.0021651326 1.9130598e-21)
(2.4964899 -0.0026699065 1.919623e-21)
(2.5012911 -0.0036300176 -1.5962848e-21)
(2.505979 -0.0036937931 -1.1390823e-21)
(2.5095803 -0.0041666805 -1.806977e-21)
(2.5131072 -0.003942914 -3.5164155e-21)
(2.5157471 -0.0039703812 -1.1989382e-21)
(2.5183307 -0.0033912857 1.7245959e-21)
(2.5199654 -0.0032230362 3.0170998e-21)
(2.5215942 -0.0026559233 3.9831134e-21)
(2.5227231 -0.0018326966 -1.1823013e-21)
(2.5238309 -0.00061586153 -7.1041034e-21)
(1.2765932 -0.26074026 -2.7996172e-20)
(1.0713171 0.19808229 -7.7877334e-19)
(0.94080302 0.6422855 -7.9381792e-19)
(0.9133139 0.96863919 9.0511938e-20)
(0.86797498 1.2968346 3.5111764e-19)
(0.87834878 1.3699342 3.2199233e-19)
(0.87607787 1.4476127 2.9312194e-19)
(0.90830876 1.3491715 9.1297404e-20)
(0.94771059 1.2663592 -1.5041728e-19)
(1.0330313 1.014221 -1.4235169e-19)
(1.1224386 0.79237972 1.4874294e-19)
(1.2770055 0.56587389 2.4067444e-19)
(1.4215074 0.36897735 1.2862267e-19)
(1.5967454 0.2699028 1.8721678e-20)
(1.7593078 0.18045532 -1.1229153e-20)
(1.8931578 0.16040123 2.7366453e-20)
(2.0105233 0.12912071 1.4502495e-20)
(2.0861143 0.11530039 -1.0997566e-20)
(2.1513576 0.090616281 -8.8236621e-21)
(2.1988916 0.076233444 -6.6279349e-21)
(2.2411535 0.057533051 -3.6807984e-21)
(2.2758794 0.047602091 4.5582018e-21)
(2.3063674 0.035092818 5.0552155e-21)
(2.3325166 0.028119693 -1.8221382e-21)
(2.3553338 0.019368075 -1.668357e-21)
(2.3756589 0.014582321 2.9066816e-21)
(2.3933065 0.0084864366 2.4722571e-22)
(2.4093754 0.0053903002 2.2999548e-21)
(2.4232559 0.0012285468 1.9773396e-21)
(2.4360736 -0.00063371929 -1.7544224e-21)
(2.4471026 -0.0034437865 -1.0052757e-21)
(2.4574145 -0.0044599771 -5.7400514e-22)
(2.4662388 -0.00626554 -1.2284247e-21)
(2.4745844 -0.0066729503 -2.5945357e-21)
(2.4816679 -0.0077617173 -1.0482053e-21)
(2.4884367 -0.0077232161 -2.9697834e-21)
(2.4940816 -0.0082485868 -3.0333607e-21)
(2.4995146 -0.0078558602 -6.677297e-21)
(2.5039443 -0.0079637144 -6.3155975e-21)
(2.5082209 -0.0072972993 -6.4035131e-23)
(2.5115557 -0.0071067377 -1.6605337e-21)
(2.5147779 -0.0063179257 1.2255541e-21)
(2.5172238 -0.0058168534 4.0328904e-21)
(2.5195778 -0.0047814962 4.2735018e-21)
(2.5211266 -0.004236233 5.2068214e-21)
(2.5226374 -0.003363257 -2.1955271e-21)
(2.5236957 -0.0022546429 -7.8266405e-21)
(2.5247133 -0.00078990112 -4.6107796e-21)
(1.2624498 -0.21298349 1.7346737e-19)
(1.0479863 0.24466913 1.4248758e-19)
(0.89785024 0.6891399 -5.6710744e-19)
(0.87003907 1.0035687 -7.043665e-19)
(0.82705192 1.3205521 1.3488515e-19)
(0.82204058 1.3898798 9.1683671e-20)
(0.81290994 1.4620418 6.0744876e-20)
(0.82798265 1.3523974 2.921304e-19)
(0.85738403 1.2586317 1.0075505e-19)
(0.9312727 0.98463298 -8.7372064e-21)
(1.0147107 0.74281097 9.1314666e-22)
(1.170469 0.49637086 -8.4418485e-20)
(1.3167574 0.28021612 -5.274114e-22)
(1.4997352 0.17664531 5.5489051e-20)
(1.6703684 0.083223533 -4.9684111e-20)
(1.8168295 0.076712602 -1.184831e-20)
(1.9514419 0.058752479 2.4730808e-20)
(2.0364239 0.060482887 3.00393e-20)
(2.1131999 0.047871546 6.0783744e-21)
(2.1641915 0.04093688 -1.6634419e-21)
(2.2112971 0.02740643 6.3754016e-22)
(2.24829 0.021404326 -5.7882518e-21)
(2.2819585 0.011967472 1.9193399e-21)
(2.3099436 0.0076188212 5.6488468e-21)
(2.3350456 0.00095026712 -8.8576641e-22)
(2.3568928 -0.0020030584 -2.70281e-21)
(2.3762904 -0.0066201091 1.6109813e-21)
(2.3936308 -0.0082769289 3.3764533e-22)
(2.40891 -0.011280315 2.2813217e-21)
(2.422757 -0.011986934 3.8510719e-21)
(2.4349183 -0.013823528 3.3943228e-22)
(2.4460615 -0.013876288 1.1123559e-21)
(2.4558318 -0.01490922 1.5509896e-21)
(2.4648981 -0.014553893 1.6952433e-22)
(2.4727971 -0.014999443 -1.10629e-21)
(2.4802244 -0.014321711 -7.3172761e-21)
(2.4866273 -0.014338713 -9.2287791e-21)
(2.49271 -0.013419276 -1.8894367e-21)
(2.4978481 -0.013091492 -5.3290786e-21)
(2.5027561 -0.011981816 -6.0626995e-21)
(2.506802 -0.01140089 -1.30764e-22)
(2.5106677 -0.010147691 -2.1030865e-21)
(2.5137192 -0.0094193117 6.2790654e-22)
(2.516629 -0.0081770713 -1.5464921e-21)
(2.5188618 -0.0072515317 -1.3987019e-21)
(2.5209755 -0.0058562825 2.5321695e-21)
(2.5224147 -0.0050084257 -4.5271934e-21)
(2.5237888 -0.0038957794 -2.8501952e-21)
(2.5247632 -0.0025720889 2.7198578e-22)
(2.5256826 -0.00092234593 3.904178e-22)
(1.2664763 -0.16868115 3.7744489e-19)
(1.052068 0.28653133 6.5440498e-19)
(0.89310654 0.72903811 6.3158943e-19)
(0.86466805 1.0323895 1.5556592e-19)
(0.82218741 1.3371007 3.5239867e-20)
(0.80202014 1.4046925 1.0119883e-19)
(0.78340769 1.4723772 5.9964566e-20)
(0.78338583 1.3519143 -4.7073497e-19)
(0.80272653 1.2471226 -2.5862113e-19)
(0.86523157 0.94950158 6.275938e-19)
(0.94305347 0.68659112 5.3105539e-19)
(1.0983514 0.41959955 1.8166384e-19)
(1.2435541 0.18310366 1.0316012e-19)
(1.4313562 0.075222569 -1.1851114e-20)
(1.6037114 -0.023421465 4.1327639e-20)
(1.7581445 -0.017417377 -6.2716124e-20)
(1.9036561 -0.023224151 -2.6876695e-20)
(1.9956282 -0.0045280655 2.4973918e-20)
(2.0823802 -0.0027853397 3.0009574e-20)
(2.135627 -0.00039375568 1.5793186e-20)
(2.1866993 -0.0071229561 8.700503e-21)
(2.2248831 -0.0086527059 -4.5116013e-21)
(2.260877 -0.014519353 -1.0744217e-20)
(2.290113 -0.015972965 3.5418597e-21)
(2.3169977 -0.020241654 7.1232535e-21)
(2.3400097 -0.021232695 3.8896067e-21)
(2.3608604 -0.024155466 2.2330036e-21)
(2.3792546 -0.024300444 3.2108395e-21)
(2.3957536 -0.025973 2.0263958e-21)
(2.4104783 -0.025407856 2.1433926e-21)
(2.4236331 -0.026152243 3.6304892e-21)
(2.435472 -0.02515395 -4.7904123e-22)
(2.4460455 -0.025273636 2.4242164e-22)
(2.4556778 -0.024041793 3.2716679e-21)
(2.4642685 -0.023762611 1.9873455e-21)
(2.4722144 -0.022398088 -4.1242266e-21)
(2.4792463 -0.02181413 -1.0056708e-20)
(2.4858424 -0.020316349 -1.8658103e-21)
(2.4915995 -0.019500209 5.1980588e-21)
(2.4970473 -0.017894151 2.3476853e-22)
(2.5016938 -0.016888846 -3.8264552e-22)
(2.5061022 -0.015211197 6.5305252e-21)
(2.5097644 -0.014077523 4.7541383e-21)
(2.5132275 -0.012357487 5.7934669e-21)
(2.5159877 -0.01119723 3.8047805e-21)
(2.5185837 -0.0095957732 -7.9391354e-21)
(2.5205926 -0.0083349084 -4.3042808e-21)
(2.5224615 -0.0066614128 -3.9852138e-21)
(2.5237732 -0.0055765335 -2.3853923e-21)
(2.5249987 -0.0042821027 6.2764915e-21)
(2.5258815 -0.0027981776 6.4744049e-21)
(2.526698 -0.0010147616 1.6735254e-21)
(1.2833613 -0.12833101 2.1674747e-19)
(1.0733891 0.32346529 5.819373e-20)
(0.91372809 0.76291498 3.1652432e-19)
(0.88558944 1.0560452 6.4664373e-19)
(0.84386305 1.3492843 1.9578524e-19)
(0.81116957 1.416325 1.4123395e-19)
(0.78234037 1.4811217 2.0529062e-19)
(0.7669956 1.3499916 -1.3848923e-20)
(0.77794069 1.2334177 -5.1785108e-19)
(0.83113565 0.91146817 -8.8158931e-19)
(0.90377248 0.62517609 -5.0049983e-20)
(1.0607465 0.33758948 4.5092753e-19)
(1.203292 0.080625226 1.1866561e-19)
(1.3930143 -0.030947163 1.0543679e-19)
(1.5621917 -0.13479919 -2.7231408e-21)
(1.7201823 -0.11772602 1.3106714e-19)
(1.8704431 -0.11228009 3.3792938e-20)
(1.9661267 -0.076763972 -4.8978608e-20)
(2.0602676 -0.059253657 9.18564e-23)
(2.1141177 -0.04654514 1.8009651e-20)
(2.1682699 -0.044679841 4.6120082e-21)
(2.2063588 -0.041496494 -1.0636425e-21)
(2.243767 -0.043250583 -1.3657116e-20)
(2.2734889 -0.041840348 -4.0517443e-21)
(2.3016261 -0.04344241 9.6222256e-21)
(2.3253797 -0.042518114 8.7188523e-21)
(2.3473646 -0.043608016 5.6750935e-21)
(2.3665875 -0.042267427 1.8989937e-21)
(2.3841098 -0.042514772 2.8221379e-21)
(2.3995769 -0.040641101 -6.754328e-22)
(2.4135798 -0.040187774 -6.0210161e-22)
(2.4259868 -0.038039072 1.0656872e-21)
(2.4372315 -0.037159045 -2.8669221e-21)
(2.4472855 -0.034983856 -1.1210624e-21)
(2.4564218 -0.033878886 1.7337372e-21)
(2.4647245 -0.031754677 -9.4051952e-23)
(2.472254 -0.030520376 -5.9189549e-21)
(2.4792211 -0.028431705 -2.8699967e-21)
(2.4854689 -0.027072996 4.9973068e-21)
(2.491329 -0.024958571 9.1729711e-21)
(2.4964897 -0.023495546 4.5222149e-21)
(2.5013582 -0.02135503 -4.6822963e-22)
(2.5055369 -0.019813379 6.0866604e-21)
(2.509474 -0.017687515 5.7966652e-21)
(2.5127598 -0.016114025 6.7973317e-21)
(2.5158321 -0.014026847 6.3180063e-21)
(2.5182992 -0.012524028 -4.7850208e-21)
(2.5205839 -0.010643044 -2.0027946e-21)
(2.522364 -0.0091221421 -1.6664951e-21)
(2.5239875 -0.0072389718 -3.6548334e-21)
(2.5251602 -0.0059739278 4.5424798e-21)
(2.5262305 -0.0045468475 3.9655036e-21)
(2.5270169 -0.0029479822 -6.2449682e-22)
(2.5277282 -0.0010734019 -2.2141879e-21)
(1.3099257 -0.091880721 -1.2623825e-19)
(1.1067975 0.35567721 -4.151572e-19)
(0.94990329 0.79135994 -5.7410674e-19)
(0.92388642 1.0750603 -3.6473766e-19)
(0.88411773 1.3580567 -6.106107e-20)
(0.84445486 1.4243205 -8.8983467e-20)
(0.80655017 1.4893651 -1.4440889e-19)