/*--------------------------------*- C++ -*----------------------------------*\
| =========                 |                                                 |
| \\      /  F ield         | OpenFOAM: The Open Source CFD Toolbox           |
|  \\    /   O peration     | Version:  v2012                                 |
|   \\  /    A nd           | Website:  www.openfoam.com                      |
|    \\/     M anipulation  |                                                 |
\*---------------------------------------------------------------------------*/
FoamFile
{
    version     2.0;
    format      ascii;
    class       volVectorField;
    location    "47.212973535978783";
    object      cellDisplacement;
}
// * * * * * * * * * * * * * * * * * * * * * * * * * * * * * * * * * * * * * //

dimensions      [0 1 0 0 0 0 0];


internalField   nonuniform List<vector> 
9200
(
(0.043255467 0 0)
(0.043446402 0 0)
(0.12583772 0 0)
(0.043775191 0 0)
(0.12636709 0 0)
(0.2031596 0 0)
(0.044142419 0 0)
(0.12718105 0 0)
(0.20393493 0 0)
(0.27540604 0 0)
(0.044577583 0 0)
(0.12824189 0 0)
(0.20524263 0 0)
(0.27643641 0 0)
(0.34282975 0 0)
(0.045034509 0 0)
(0.12943066 0 0)
(0.20686857 0 0)
(0.2781279 0 0)
(0.34406622 0 0)
(0.40563968 0 0)
(0.045496483 0 0)
(0.13068404 0 0)
(0.20870446 0 0)
(0.28028412 0 0)
(0.34615487 0 0)
(0.40708901 0 0)
(0.46409415 0 0)
(0.045949279 0 0)
(0.13196228 0 0)
(0.21067059 0 0)
(0.28272531 0 0)
(0.34877597 0 0)
(0.40949819 0 0)
(0.46571727 0 0)
(0.51840172 0 0)
(0.046383493 0 0)
(0.13321993 0 0)
(0.21266968 0 0)
(0.28531813 0 0)
(0.35175103 0 0)
(0.41258082 0 0)
(0.46847555 0 0)
(0.52021027 0 0)
(0.5688222 0 0)
(0.046794112 0 0)
(0.13443173 0 0)
(0.21464429 0 0)
(0.2879612 0 0)
(0.35491056 0 0)
(0.41605231 0 0)
(0.4719538 0 0)
(0.52325235 0 0)
(0.57079085 0 0)
(0.61556052 0 0)
(0.047176104 0 0)
(0.13557915 0 0)
(0.21655089 0 0)
(0.29057993 0 0)
(0.35814627 0 0)
(0.41974668 0 0)
(0.4758919 0 0)
(0.52713763 0 0)
(0.57413972 0 0)
(0.61769375 0 0)
(0.65886105 0 0)
(0.047529803 0 0)
(0.13665239 0 0)
(0.21836077 0 0)
(0.29311449 0 0)
(0.3613548 0 0)
(0.42352513 0 0)
(0.4800854 0 0)
(0.53152751 0 0)
(0.57838147 0 0)
(0.62129651 0 0)
(0.66113657 0 0)
(0.6989119 0 0)
(0.047852426 0 0)
(0.1376452 0 0)
(0.2200576 0 0)
(0.2955247 0 0)
(0.36446407 0 0)
(0.42727413 0 0)
(0.48436105 0 0)
(0.53617732 0 0)
(0.58318394 0 0)
(0.62590872 0 0)
(0.66501776 0 0)
(0.70133494 0 0)
(0.73594437 0 0)
(0.048146933 0 0)
(0.13855701 0 0)
(0.22163094 0 0)
(0.29778807 0 0)
(0.36742758 0 0)
(0.43091742 0 0)
(0.48862135 0 0)
(0.54093907 0 0)
(0.58828841 0 0)
(0.63111859 0 0)
(0.6699494 0 0)
(0.70544915 0 0)
(0.7385008 0 0)
(0.77013094 0 0)
(0.048411873 0 0)
(0.1393871 0 0)
(0.22307887 0 0)
(0.29988979 0 0)
(0.37021199 0 0)
(0.43439544 0 0)
(0.49276492 0 0)
(0.5456732 0 0)
(0.59350092 0 0)
(0.63664753 0 0)
(0.6755394 0 0)
(0.71071792 0 0)
(0.74286537 0 0)
(0.77282117 0 0)
(0.80168238 0 0)
(0.048651195 0 0)
(0.14014011 0 0)
(0.22440127 0 0)
(0.30182635 0 0)
(0.37280325 0 0)
(0.4376686 0 0)
(0.49672426 0 0)
(0.55028378 0 0)
(0.59868344 0 0)
(0.64229389 0 0)
(0.68148532 0 0)
(0.71668495 0 0)
(0.7484272 0 0)
(0.77739861 0 0)
(0.8044935 0 0)
(0.83075066 0 0)
(0.048864863 0 0)
(0.1408184 0 0)
(0.22560267 0 0)
(0.30359686 0 0)
(0.37519076 0 0)
(0.44071826 0 0)
(0.50045899 0 0)
(0.55469772 0 0)
(0.60374039 0 0)
(0.64791304 0 0)
(0.68755228 0 0)
(0.72302176 0 0)
(0.75474287 0 0)
(0.78327278 0 0)
(0.80930025 0 0)
(0.83368307 0 0)
(0.85752892 0 0)
(0.049056167 0 0)
(0.14142792 0 0)
(0.22668825 0 0)
(0.30520715 0 0)
(0.3773783 0 0)
(0.44353331 0 0)
(0.50394052 0 0)
(0.55886728 0 0)
(0.60858985 0 0)
(0.6533948 0 0)
(0.69359018 0 0)
(0.72950054 0 0)
(0.76146781 0 0)
(0.78993288 0 0)
(0.81544133 0 0)
(0.83868724 0 0)
(0.86057443 0 0)
(0.88215131 0 0)
(0.049226071 0 0)
(0.14197251 0 0)
(0.22766512 0 0)
(0.30666309 0 0)
(0.37936661 0 0)
(0.44611388 0 0)
(0.50716148 0 0)
(0.56275898 0 0)
(0.61317186 0 0)
(0.65865503 0 0)
(0.6994737 0 0)
(0.73593389 0 0)
(0.76833589 0 0)
(0.79702171 0 0)
(0.82242441 0 0)
(0.84511475 0 0)
(0.86578631 0 0)
(0.88530779 0 0)
(0.90479084 0 0)
(0.049377038 0 0)
(0.14245821 0 0)
(0.22854083 0 0)
(0.30797443 0 0)
(0.38116821 0 0)
(0.44846479 0 0)
(0.51011602 0 0)
(0.56636301 0 0)
(0.6174587 0 0)
(0.6636357 0 0)
(0.70513238 0 0)
(0.74221781 0 0)
(0.77516892 0 0)
(0.80427577 0 0)
(0.82987397 0 0)
(0.85241842 0 0)
(0.87245996 0 0)
(0.89070096 0 0)
(0.90805056 0 0)
(0.92556287 0 0)
(0.049510915 0 0)
(0.14289029 0 0)
(0.22932261 0 0)
(0.30914993 0 0)
(0.382789 0 0)
(0.45059445 0 0)
(0.51281348 0 0)
(0.56967334 0 0)
(0.62142764 0 0)
(0.66830035 0 0)
(0.71049792 0 0)
(0.74825533 0 0)
(0.78183117 0 0)
(0.81148721 0 0)
(0.83749376 0 0)
(0.86020453 0 0)
(0.88006188 0 0)
(0.89764016 0 0)
(0.9136338 0 0)
(0.9289239 0 0)
(0.94462304 0 0)
(0.049628988 0 0)
(0.14327296 0 0)
(0.23001868 0 0)
(0.31020042 0 0)
(0.38424523 0 0)
(0.45251605 0 0)
(0.5152598 0 0)
(0.57269741 0 0)
(0.62508122 0 0)
(0.67262509 0 0)
(0.71552412 0 0)
(0.75398589 0 0)
(0.78823459 0 0)
(0.8185202 0 0)
(0.84508026 0 0)
(0.86818505 0 0)
(0.88818214 0 0)
(0.90553577 0 0)
(0.92079813 0 0)
(0.93467519 0 0)
(0.9480803 0 0)
(0.96207099 0 0)
(0.049733535 0 0)
(0.14361251 0 0)
(0.23063598 0 0)
(0.31113549 0 0)
(0.38554496 0 0)
(0.45424103 0 0)
(0.51747148 0 0)
(0.57544398 0 0)
(0.62841747 0 0)
(0.6766086 0 0)
(0.72019431 0 0)
(0.75936195 0 0)
(0.79431855 0 0)
(0.82528349 0 0)
(0.85247628 0 0)
(0.87612763 0 0)
(0.89650355 0 0)
(0.91396953 0 0)
(0.92897008 0 0)
(0.94208284 0 0)
(0.95400422 0 0)
(0.96562152 0 0)
(0.97804442 0 0)
(0.049825048 0 0)
(0.14391115 0 0)
(0.23118185 0 0)
(0.31196524 0 0)
(0.38670449 0 0)
(0.45578537 0 0)
(0.51945905 0 0)
(0.57792766 0 0)
(0.63145401 0 0)
(0.68025212 0 0)
(0.72449514 0 0)
(0.76436174 0 0)
(0.80003583 0 0)
(0.83170894 0 0)
(0.85958761 0 0)
(0.88388044 0 0)
(0.90479897 0 0)
(0.92262536 0 0)
(0.93771338 0 0)
(0.95052741 0 0)
(0.96161927 0 0)
(0.97169998 0 0)
(0.98168334 0 0)
(0.99262778 0 0)
(0.049905966 0 0)
(0.14417523 0 0)
(0.23166265 0 0)
(0.31269902 0 0)
(0.38773235 0 0)
(0.4571608 0 0)
(0.52124193 0 0)
(0.58016392 0 0)
(0.63419833 0 0)
(0.68356848 0 0)
(0.72843722 0 0)
(0.76897064 0 0)
(0.8053515 0 0)
(0.83775033 0 0)
(0.86634049 0 0)
(0.8913246 0 0)
(0.91289145 0 0)
(0.93125292 0 0)
(0.94668478 0 0)
(0.95955905 0 0)
(0.97031791 0 0)
(0.9795392 0 0)
(0.98791962 0 0)
(0.99635261 0 0)
(1.0059433 0 0)
(0.049976228 0 0)
(0.14440583 0 0)
(0.23208535 0 0)
(0.31334588 0 0)
(0.38864348 0 0)
(0.45838408 0 0)
(0.52283186 0 0)
(0.58216901 0 0)
(0.63667409 0 0)
(0.6865718 0 0)
(0.73202457 0 0)
(0.77319669 0 0)
(0.81026199 0 0)
(0.84337591 0 0)
(0.87269745 0 0)
(0.89840405 0 0)
(0.92067215 0 0)
(0.93968179 0 0)
(0.95564071 0 0)
(0.96884044 0 0)
(0.97963464 0 0)
(0.98848657 0 0)
(0.99594768 0 0)
(1.0027313 0 0)
(1.0097504 0 0)
(1.0180629 0 0)
(0.050038391 0 0)
(0.14460933 0 0)
(0.23245502 0 0)
(0.31391417 0 0)
(0.38944615 0 0)
(0.4594663 0 0)
(0.52424805 0 0)
(0.58396118 0 0)
(0.63889288 0 0)
(0.68928014 0 0)
(0.73528014 0 0)
(0.77704693 0 0)
(0.81476082 0 0)
(0.84857576 0 0)
(0.87862573 0 0)
(0.90506448 0 0)
(0.92806181 0 0)
(0.94778207 0 0)
(0.96438846 0 0)
(0.97810385 0 0)
(0.98920806 0 0)
(0.99807058 0 0)
(1.0051297 0 0)
(1.0109642 0 0)
(1.0162727 0 0)
(1.0219498 0 0)
(1.0290939 0 0)
(0.050091698 0 0)
(0.14478556 0 0)
(0.23277771 0 0)
(0.31441144 0 0)
(0.39015287 0 0)
(0.4604225 0 0)
(0.52550151 0 0)
(0.58555609 0 0)
(0.64087953 0 0)
(0.69171319 0 0)
(0.73821567 0 0)
(0.78054044 0 0)
(0.81886764 0 0)
(0.85334451 0 0)
(0.8841032 0 0)
(0.91127979 0 0)
(0.93501717 0 0)
(0.95547699 0 0)
(0.97280503 0 0)
(0.9871653 0 0)
(0.99877466 0 0)
(1.0079287 0 0)
(1.0149757 0 0)
(1.0203758 0 0)
(1.024679 0 0)
(1.0286031 0 0)
(1.0330569 0 0)
(1.0390968 0 0)
(0.050139149 0 0)
(0.14494062 0 0)
(0.23305739 0 0)
(0.31484486 0 0)
(0.39077132 0 0)
(0.46126305 0 0)
(0.52661037 0 0)
(0.58697169 0 0)
(0.64264653 0 0)
(0.6938894 0 0)
(0.74085843 0 0)
(0.78369539 0 0)
(0.82259041 0 0)
(0.85769802 0 0)
(0.88913664 0 0)
(0.91702909 0 0)
(0.94151058 0 0)
(0.96272164 0 0)
(0.98079845 0 0)
(0.99588155 0 0)
(1.0081322 0 0)
(1.0177803 0 0)
(1.0251032 0 0)
(1.0304669 0 0)
(1.0343056 0 0)
(1.0371969 0 0)
(1.0398419 0 0)
(1.0431339 0 0)
(1.0481658 0 0)
(0.050181234 0 0)
(0.14507282 0 0)
(0.23329956 0 0)
(0.31522088 0 0)
(0.3913115 0 0)
(0.46200043 0 0)
(0.52758384 0 0)
(0.58822172 0 0)
(0.64421728 0 0)
(0.69583028 0 0)
(0.74322252 0 0)
(0.78653359 0 0)
(0.82595864 0 0)
(0.86164957 0 0)
(0.89372779 0 0)
(0.92231438 0 0)
(0.94752649 0 0)
(0.9694853 0 0)
(0.98832291 0 0)
(1.0041678 0 0)
(1.0171444 0 0)
(1.0274269 0 0)
(1.0352343 0 0)
(1.0408573 0 0)
(1.0446382 0 0)
(1.0470336 0 0)
(1.0485939 0 0)
(1.0500401 0 0)
(1.0522742 0 0)
(1.0563526 0 0)
(0.050005884 0 0)
(0.14519324 0 0)
(0.23350599 0 0)
(0.31554473 0 0)
(0.39178033 0 0)
(0.46264357 0 0)
(0.52843818 0 0)
(0.5893229 0 0)
(0.64560404 0 0)
(0.69755257 0 0)
(0.74533552 0 0)
(0.78907789 0 0)
(0.82898599 0 0)
(0.86522308 0 0)
(0.89790297 0 0)
(0.9271392 0 0)
(0.95305364 0 0)
(0.97575383 0 0)
(0.99534637 0 0)
(1.01196 0 0)
(1.0257087 0 0)
(1.0367177 0 0)
(1.0451545 0 0)
(1.0512504 0 0)
(1.0552761 0 0)
(1.0575927 0 0)
(1.0586291 0 0)
(1.0589638 0 0)
(1.0593012 0 0)
(1.0605297 0 0)
(1.0637391 0 0)
(0.049782896 0 0)
(0.1448234 0 0)
(0.23368938 0 0)
(0.31582253 0 0)
(0.39218486 0 0)
(0.46320261 0 0)
(0.52918169 0 0)
(0.59028741 0 0)
(0.64682738 0 0)
(0.69907771 0 0)
(0.74721228 0 0)
(0.79134874 0 0)
(0.83170401 0 0)
(0.86844038 0 0)
(0.90167528 0 0)
(0.93152601 0 0)
(0.95810845 0 0)
(0.98151972 0 0)
(1.0018599 0 0)
(1.0192408 0 0)
(1.0337703 0 0)
(1.0455556 0 0)
(1.0547185 0 0)
(1.0614378 0 0)
(1.0659275 0 0)
(1.0684724 0 0)
(1.0694107 0 0)
(1.069193 0 0)
(1.0683708 0 0)
(1.067669 0 0)
(1.0679821 0 0)
(1.0703688 0 0)
(0.04958252 0 0)
(0.14414772 0 0)
(0.23313798 0 0)
(0.31606658 0 0)
(0.39253226 0 0)
(0.46368577 0 0)
(0.52982764 0 0)
(0.59112939 0 0)
(0.64789871 0 0)
(0.70042051 0 0)
(0.7488775 0 0)
(0.79337032 0 0)
(0.83412856 0 0)
(0.87132663 0 0)
(0.90507764 0 0)
(0.93549339 0 0)
(0.96269941 0 0)
(0.98679467 0 0)
(1.00786 0 0)
(1.0259914 0 0)
(1.0412955 0 0)
(1.0538723 0 0)
(1.0638155 0 0)
(1.0712577 0 0)
(1.0763662 0 0)
(1.0793658 0 0)
(1.0805194 0 0)
(1.0801839 0 0)
(1.0787839 0 0)
(1.0768971 0 0)
(1.0752331 0 0)
(1.0746747 0 0)
(1.0763132 0 0)
(0.04940319 0 0)
(0.14353635 0 0)
(0.23204458 0 0)
(0.31535847 0 0)
(0.39283738 0 0)
(0.46409889 0 0)
(0.5303834 0 0)
(0.59185916 0 0)
(0.64883507 0 0)
(0.70160006 0 0)
(0.75034604 0 0)
(0.79516099 0 0)
(0.8362893 0 0)
(0.87390652 0 0)
(0.90812804 0 0)
(0.93906891 0 0)
(0.96685805 0 0)
(0.99158919 0 0)
(1.0133454 0 0)
(1.0322114 0 0)
(1.0482742 0 0)
(1.0616357 0 0)
(1.0723825 0 0)
(1.0806081 0 0)
(1.0864381 0 0)
(1.09005 0 0)
(1.0916501 0 0)
(1.0915156 0 0)
(1.0899805 0 0)
(1.0874897 0 0)
(1.0845965 0 0)
(1.0820301 0 0)
(1.0806798 0 0)
(1.0816098 0 0)
(0.049248436 0 0)
(0.14299436 0 0)
(0.23105699 0 0)
(0.31389437 0 0)
(0.39199392 0 0)
(0.4644633 0 0)
(0.53085764 0 0)
(0.59248765 0 0)
(0.64964702 0 0)
(0.70262908 0 0)
(0.7516378 0 0)
(0.79674293 0 0)
(0.83820205 0 0)
(0.87620329 0 0)
(0.91085889 0 0)
(0.94227802 0 0)
(0.97060175 0 0)
(0.99593172 0 0)
(1.0183404 0 0)
(1.0379042 0 0)
(1.054707 0 0)
(1.0688363 0 0)
(1.0803769 0 0)
(1.0894105 0 0)
(1.0960258 0 0)
(1.1003574 0 0)
(1.1025659 0 0)
(1.1028694 0 0)
(1.1015235 0 0)
(1.0988804 0 0)
(1.0953605 0 0)
(1.0915412 0 0)
(1.0881385 0 0)
(1.0860337 0 0)
(1.0863208 0 0)
(0.049117735 0 0)
(0.14252266 0 0)
(0.23017938 0 0)
(0.31257418 0 0)
(0.39020391 0 0)
(0.46349913 0 0)
(0.53127287 0 0)
(0.59302475 0 0)
(0.65034684 0 0)
(0.70352365 0 0)
(0.75276767 0 0)
(0.79813179 0 0)
(0.8398927 0 0)
(0.87824101 0 0)
(0.91329003 0 0)
(0.94514793 0 0)
(0.97396628 0 0)
(0.99984487 0 0)
(1.0228598 0 0)
(1.0430885 0 0)
(1.0606021 0 0)
(1.0754747 0 0)
(1.0877909 0 0)
(1.0976304 0 0)
(1.1050601 0 0)
(1.1101766 0 0)
(1.1131039 0 0)
(1.1140108 0 0)
(1.1130961 0 0)
(1.1106294 0 0)
(1.1069418 0 0)
(1.1024723 0 0)
(1.0977763 0 0)
(1.0935895 0 0)
(1.0908 0 0)
(1.0904781 0 0)
(0.049013934 0 0)
(0.14212809 0 0)
(0.22941671 0 0)
(0.31139856 0 0)
(0.38859042 0 0)
(0.46142102 0 0)
(0.53020101 0 0)
(0.59349269 0 0)
(0.65094571 0 0)
(0.70429539 0 0)
(0.75374986 0 0)
(0.79934682 0 0)
(0.84137673 0 0)
(0.88004031 0 0)
(0.91544973 0 0)
(0.94770528 0 0)
(0.97697183 0 0)
(1.0033599 0 0)
(1.0269395 0 0)
(1.0477831 0 0)
(1.0659683 0 0)
(1.0815591 0 0)
(1.0946212 0 0)
(1.1052429 0 0)
(1.1134905 0 0)
(1.1194267 0 0)
(1.1231408 0 0)
(1.1247648 0 0)
(1.1244503 0 0)
(1.1224078 0 0)
(1.1188862 0 0)
(1.1142341 0 0)
(1.1088678 0 0)
(1.1033653 0 0)
(1.0984516 0 0)
(1.0950094 0 0)
(1.0941356 0 0)
(0.048936409 0 0)
(0.14181123 0 0)
(0.22877707 0 0)
(0.31037809 0 0)
(0.38715307 0 0)
(0.45954522 0 0)
(0.52786292 0 0)
(0.59233677 0 0)
(0.65146662 0 0)
(0.7049542 0 0)
(0.7545994 0 0)
(0.80040233 0 0)
(0.84267505 0 0)
(0.88162276 0 0)
(0.91735813 0 0)
(0.94997421 0 0)
(0.97965251 0 0)
(1.0065037 0 0)
(1.0306004 0 0)
(1.0520194 0 0)
(1.0708348 0 0)
(1.0871038 0 0)
(1.1008874 0 0)
(1.1122627 0 0)
(1.1213029 0 0)
(1.1280643 0 0)
(1.132602 0 0)
(1.1350133 0 0)
(1.1354158 0 0)
(1.1339695 0 0)
(1.1308665 0 0)
(1.126369 0 0)
(1.1208066 0 0)
(1.1146126 0 0)
(1.1083459 0 0)
(1.1027511 0 0)
(1.0987175 0 0)
(1.0973216 0 0)
(0.048887122 0 0)
(0.14157696 0 0)
(0.22826394 0 0)
(0.30952027 0 0)
(0.38590556 0 0)
(0.45787587 0 0)
(0.52575221 0 0)
(0.58977774 0 0)
(0.65024251 0 0)
(0.70553068 0 0)
(0.7553229 0 0)
(0.80131185 0 0)
(0.84380251 0 0)
(0.8830066 0 0)
(0.91903793 0 0)
(0.95198017 0 0)
(0.98202905 0 0)
(1.0093059 0 0)
(1.0338801 0 0)
(1.0558248 0 0)
(1.0752228 0 0)
(1.0921341 0 0)
(1.1066046 0 0)
(1.1186991 0 0)
(1.1284975 0 0)
(1.1360634 0 0)
(1.141434 0 0)
(1.1446715 0 0)
(1.1458631 0 0)
(1.1451331 0 0)
(1.1426241 0 0)
(1.1385397 0 0)
(1.1331227 0 0)
(1.1267195 0 0)
(1.1197425 0 0)
(1.1127738 0 0)
(1.1065476 0 0)
(1.1019512 0 0)
(1.100082 0 0)
(0.048865404 0 0)
(0.14142517 0 0)
(0.22788268 0 0)
(0.3088325 0 0)
(0.38485616 0 0)
(0.45642472 0 0)
(0.52387303 0 0)
(0.58746909 0 0)
(0.64749581 0 0)
(0.70424972 0 0)
(0.75595405 0 0)
(0.80208986 0 0)
(0.84477373 0 0)
(0.88420967 0 0)
(0.92050893 0 0)
(0.95374462 0 0)
(0.98413124 0 0)
(1.0117937 0 0)
(1.0368017 0 0)
(1.0592315 0 0)
(1.0791694 0 0)
(1.0966727 0 0)
(1.1117896 0 0)
(1.1245739 0 0)
(1.135093 0 0)
(1.1434269 0 0)
(1.1496167 0 0)
(1.153693 0 0)
(1.1557138 0 0)
(1.1557739 0 0)
(1.1539819 0 0)
(1.1504884 0 0)
(1.1454802 0 0)
(1.1392122 0 0)
(1.132014 0 0)
(1.124315 0 0)
(1.1166809 0 0)
(1.1098643 0 0)
(1.1047581 0 0)
(1.1024415 0 0)
(0.1413587 0 0)
(0.04886542 0 0)
(0.22763532 0 0)
(0.30831994 0 0)
(0.38401455 0 0)
(0.455205 0 0)
(0.52223902 0 0)
(0.58541098 0 0)
(0.64501855 0 0)
(0.70134647 0 0)
(0.75462971 0 0)
(0.8027627 0 0)
(0.84560523 0 0)
(0.88524875 0 0)
(0.92178781 0 0)
(0.95528901 0 0)
(0.98597901 0 0)
(1.0139931 0 0)
(1.0393991 0 0)
(1.0622695 0 0)
(1.0827002 0 0)
(1.1007552 0 0)
(1.1164757 0 0)
(1.1299091 0 0)
(1.141122 0 0)
(1.1501894 0 0)
(1.1571552 0 0)
(1.1620509 0 0)
(1.1649127 0 0)
(1.165804 0 0)
(1.1648045 0 0)
(1.1620286 0 0)
(1.1576098 0 0)
(1.1517463 0 0)
(1.1446755 0 0)
(1.136743 0 0)
(1.1283595 0 0)
(1.1201157 0 0)
(1.1127522 0 0)
(1.1071622 0 0)
(1.1044389 0 0)
(0.22752484 0 0)
(0.14135614 0 0)
(0.048886401 0 0)
(0.30798663 0 0)
(0.38338652 0 0)
(0.45422513 0 0)
(0.52086482 0 0)
(0.5836222 0 0)
(0.64280845 0 0)
(0.69872365 0 0)
(0.75159283 0 0)
(0.80141009 0 0)
(0.84632259 0 0)
(0.88613466 0 0)
(0.92289368 0 0)
(0.9566323 0 0)
(0.98759703 0 0)
(1.0159291 0 0)
(1.0416956 0 0)
(1.0649686 0 0)
(1.0858525 0 0)
(1.1044105 0 0)
(1.1206878 0 0)
(1.1347326 0 0)
(1.1466001 0 0)
(1.1563547 0 0)
(1.1640555 0 0)
(1.1697437 0 0)
(1.1734382 0 0)
(1.175175 0 0)
(1.1750099 0 0)
(1.1730282 0 0)
(1.1693287 0 0)
(1.1640525 0 0)
(1.1573832 0 0)
(1.1495687 0 0)
(1.1409396 0 0)
(1.1319265 0 0)
(1.1231053 0 0)
(1.1152323 0 0)
(1.1092033 0 0)
(1.1060967 0 0)
(0.30783575 0 0)
(0.22751819 0 0)
(0.14141815 0 0)
(0.048935674 0 0)
(0.38297735 0 0)
(0.45349384 0 0)
(0.51976021 0 0)
(0.58211568 0 0)
(0.6408874 0 0)
(0.69638661 0 0)
(0.74884658 0 0)
(0.79826395 0 0)
(0.84495219 0 0)
(0.88690442 0 0)
(0.92383551 0 0)
(0.95779069 0 0)
(0.98900438 0 0)
(1.0176243 0 0)
(1.0437194 0 0)
(1.0673573 0 0)
(1.0886513 0 0)
(1.1076735 0 0)
(1.1244652 0 0)
(1.139072 0 0)
(1.151552 0 0)
(1.1619649 0 0)
(1.1703681 0 0)
(1.1768045 0 0)
(1.181291 0 0)
(1.1838581 0 0)
(1.1845413 0 0)
(1.1833972 0 0)
(1.1804951 0 0)
(1.17594 0 0)
(1.1698571 0 0)
(1.1624411 0 0)
(1.1539236 0 0)
(1.1446516 0 0)
(1.1350406 0 0)
(1.125692 0 0)
(1.1173473 0 0)
(1.1109027 0 0)
(1.1074473 0 0)
(0.38279072 0 0)
(0.3078233 0 0)
(0.22761549 0 0)
(0.14156474 0 0)
(0.04901234 0 0)
(0.4530161 0 0)
(0.51893471 0 0)
(0.58090477 0 0)
(0.63926778 0 0)
(0.69435147 0 0)
(0.74639942 0 0)
(0.79542367 0 0)
(0.84172318 0 0)
(0.88552268 0 0)
(0.9246528 0 0)
(0.95878278 0 0)
(0.99021836 0 0)
(1.0191 0 0)
(1.0454924 0 0)
(1.0694611 0 0)
(1.0911306 0 0)
(1.1105738 0 0)
(1.1278351 0 0)
(1.1429631 0 0)
(1.1560142 0 0)
(1.1670424 0 0)
(1.1761022 0 0)
(1.1832406 0 0)
(1.1884827 0 0)
(1.1918538 0 0)
(1.1933761 0 0)
(1.1930842 0 0)
(1.191024 0 0)
(1.1872691 0 0)
(1.18191 0 0)
(1.175079 0 0)
(1.1669582 0 0)
(1.1577892 0 0)
(1.1479059 0 0)
(1.1377471 0 0)
(1.1278994 0 0)
(1.1191161 0 0)
(1.1122937 0 0)
(1.1085103 0 0)
(0.45279679 0 0)
(0.38277287 0 0)
(0.30794986 0 0)
(0.22784937 0 0)
(0.14179384 0 0)
(0.04911582 0 0)
(0.51839425 0 0)
(0.57999809 0 0)
(0.63796527 0 0)
(0.69263717 0 0)
(0.74426602 0 0)
(0.7928868 0 0)
(0.83880914 0 0)
(0.88223457 0 0)
(0.92327053 0 0)
(0.95963759 0 0)
(0.99125952 0 0)
(1.0203763 0 0)
(1.047037 0 0)
(1.0713055 0 0)
(1.0933137 0 0)
(1.1131425 0 0)
(1.1308349 0 0)
(1.1464376 0 0)
(1.1600125 0 0)
(1.1716161 0 0)
(1.1812942 0 0)
(1.18909 0 0)
(1.1950471 0 0)
(1.199187 0 0)
(1.2015137 0 0)
(1.2020605 0 0)
(1.2008563 0 0)
(1.1979477 0 0)
(1.1933928 0 0)
(1.1872884 0 0)
(1.1797526 0 0)
(1.1709781 0 0)
(1.161192 0 0)
(1.1507458 0 0)
(1.140066 0 0)
(1.1297637 0 0)
(1.1205741 0 0)
(1.1133956 0 0)
(1.109313 0 0)
(0.51814399 0 0)
(0.45277343 0 0)
(0.38292442 0 0)
(0.30825808 0 0)
(0.22821725 0 0)
(0.14210446 0 0)
(0.049245255 0 0)
(0.57940352 0 0)
(0.63698827 0 0)
(0.6912556 0 0)
(0.7424689 0 0)
(0.79067896 0 0)
(0.83620381 0 0)
(0.87926006 0 0)
(0.9199388 0 0)
(0.95826989 0 0)
(0.99215532 0 0)
(1.0214673 0 0)
(1.0483741 0 0)
(1.072913 0 0)
(1.0952294 0 0)
(1.1154074 0 0)
(1.1334909 0 0)
(1.1495296 0 0)
(1.1635879 0 0)
(1.1757207 0 0)
(1.1859736 0 0)
(1.1943882 0 0)
(1.2010095 0 0)
(1.2058659 0 0)
(1.208963 0 0)
(1.2103236 0 0)
(1.2099681 0 0)
(1.2079211 0 0)
(1.2042182 0 0)
(1.1989215 0 0)
(1.1921161 0 0)
(1.1839257 0 0)
(1.1745327 0 0)
(1.1641752 0 0)
(1.1531927 0 0)
(1.1420373 0 0)
(1.1313051 0 0)
(1.1217389 0 0)
(1.114236 0 0)
(1.1098735 0 0)
(0.57912589 0 0)
(0.51811394 0 0)
(0.4529456 0 0)
(0.38329745 0 0)
(0.30874576 0 0)
(0.22871628 0 0)
(0.14249255 0 0)
(0.049399128 0 0)
(0.63634543 0 0)
(0.69021915 0 0)
(0.74101863 0 0)
(0.78881476 0 0)
(0.8339372 0 0)
(0.8766059 0 0)
(0.91692207 0 0)
(0.95491314 0 0)
(0.99080749 0 0)
(1.0224119 0 0)
(1.049517 0 0)
(1.0743028 0 0)
(1.0968991 0 0)
(1.1173949 0 0)
(1.135836 0 0)
(1.1522702 0 0)
(1.1667676 0 0)
(1.1793884 0 0)
(1.1901762 0 0)
(1.1991682 0 0)
(1.2064064 0 0)
(1.21193 0 0)
(1.2157598 0 0)
(1.2178988 0 0)
(1.2183556 0 0)
(1.2171595 0 0)
(1.2143238 0 0)
(1.209885 0 0)
(1.2038916 0 0)
(1.1964354 0 0)
(1.1876275 0 0)
(1.1776606 0 0)
(1.1667611 0 0)
(1.1552859 0 0)
(1.1436784 0 0)
(1.132555 0 0)
(1.1226398 0 0)
(1.1148322 0 0)
(1.1102136 0 0)
(0.63604234 0 0)
(0.57908835 0 0)
(0.51830405 0 0)
(0.45337608 0 0)
(0.38388962 0 0)
(0.30940754 0 0)
(0.2293417 0 0)
(0.14295669 0 0)
(0.04957655 0 0)
(0.68953501 0 0)
(0.73992988 0 0)
(0.78731359 0 0)
(0.83202123 0 0)
(0.87429065 0 0)
(0.914231 0 0)
(0.95187947 0 0)
(0.98744385 0 0)
(1.0210863 0 0)
(1.0505065 0 0)
(1.0754959 0 0)
(1.0983438 0 0)
(1.1191293 0 0)
(1.1378943 0 0)
(1.1546896 0 0)
(1.1695898 0 0)
(1.1826557 0 0)
(1.1939329 0 0)
(1.2034591 0 0)
(1.2112747 0 0)
(1.2174158 0 0)
(1.2219179 0 0)
(1.2247923 0 0)
(1.2260322 0 0)
(1.2256596 0 0)
(1.2236848 0 0)
(1.2201197 0 0)
(1.2149909 0 0)
(1.2083507 0 0)
(1.2002816 0 0)
(1.1908992 0 0)
(1.1803884 0 0)
(1.1689878 0 0)
(1.1570432 0 0)
(1.1450241 0 0)
(1.1335311 0 0)
(1.1232925 0 0)
(1.1152061 0 0)
(1.1103499 0 0)
(0.68920971 0 0)
(0.63599559 0 0)
(0.57929117 0 0)
(0.51878452 0 0)
(0.45405913 0 0)
(0.38469397 0 0)
(0.31023898 0 0)
(0.23008887 0 0)
(0.14348986 0 0)
(0.049775105 0 0)
(0.73920921 0 0)
(0.78618413 0 0)
(0.83047829 0 0)
(0.87233777 0 0)
(0.91188123 0 0)
(0.94916637 0 0)
(0.9844059 0 0)
(1.017733 0 0)
(1.0492128 0 0)
(1.0765232 0 0)
(1.0995856 0 0)
(1.1206328 0 0)
(1.1396925 0 0)
(1.1568152 0 0)
(1.1720796 0 0)
(1.1855528 0 0)
(1.1972809 0 0)
(1.2072993 0 0)
(1.2156479 0 0)
(1.2223663 0 0)
(1.2274894 0 0)
(1.2310404 0 0)
(1.2330264 0 0)
(1.2334438 0 0)
(1.232295 0 0)
(1.2295959 0 0)
(1.2253473 0 0)
(1.2195785 0 0)
(1.2123297 0 0)
(1.2036907 0 0)
(1.1937659 0 0)
(1.1827503 0 0)
(1.1708747 0 0)
(1.1584997 0 0)
(1.1460898 0 0)
(1.1342597 0 0)
(1.1237206 0 0)
(1.1153742 0 0)
(1.110301 0 0)
(0.73886361 0 0)
(0.68915518 0 0)
(0.63620649 0 0)
(0.57981051 0 0)
(0.51954957 0 0)
(0.45499041 0 0)
(0.38570584 0 0)
(0.311232 0 0)
(0.23095141 0 0)
(0.14409063 0 0)
(0.049994929 0 0)
(0.78543815 0 0)
(0.82931563 0 0)
(0.8707604 0 0)
(0.90990011 0 0)
(0.94680243 0 0)
(0.98168627 0 0)
(1.0146975 0 0)
(1.0458816 0 0)
(1.0752751 0 0)
(1.1006531 0 0)
(1.1219225 0 0)
(1.1412525 0 0)
(1.1586726 0 0)
(1.17427 0 0)
(1.1881134 0 0)
(1.2002515 0 0)
(1.2107199 0 0)
(1.2195616 0 0)
(1.2268154 0 0)
(1.2325134 0 0)
(1.2366875 0 0)
(1.2393581 0 0)
(1.2405216 0 0)
(1.2401668 0 0)
(1.2383065 0 0)
(1.2349355 0 0)
(1.2300544 0 0)
(1.2236843 0 0)
(1.2158694 0 0)
(1.206693 0 0)
(1.1962629 0 0)
(1.1847694 0 0)
(1.172455 0 0)
(1.1596709 0 0)
(1.1469047 0 0)
(1.1347554 0 0)
(1.1239387 0 0)
(1.1153551 0 0)
(1.1100822 0 0)
(0.78508006 0 0)
(0.73880097 0 0)
(0.68937056 0 0)
(0.63675613 0 0)
(0.580642 0 0)
(0.52059344 0 0)
(0.45615941 0 0)
(0.38691393 0 0)
(0.31237874 0 0)
(0.2319212 0 0)
(0.14475428 0 0)
(0.05016735 0 0)
(0.82854736 0 0)
(0.86957503 0 0)
(0.90829847 0 0)
(0.94480428 0 0)
(0.97931797 0 0)
(1.0119858 0 0)
(1.0428632 0 0)
(1.0719797 0 0)
(1.0994545 0 0)
(1.1230364 0 0)
(1.1425912 0 0)
(1.1602838 0 0)
(1.1761839 0 0)
(1.1903643 0 0)
(1.2028779 0 0)
(1.2137582 0 0)
(1.2230486 0 0)
(1.2307948 0 0)
(1.2370286 0 0)
(1.2417758 0 0)
(1.2450708 0 0)
(1.2469258 0 0)
(1.2473313 0 0)
(1.2462732 0 0)
(1.2437449 0 0)
(1.2397485 0 0)
(1.2342734 0 0)
(1.2273446 0 0)
(1.2189961 0 0)
(1.2093192 0 0)
(1.198412 0 0)
(1.1864751 0 0)
(1.1737463 0 0)
(1.1605867 0 0)
(1.1474811 0 0)
(1.1350403 0 0)
(1.1239673 0 0)
(1.1151637 0 0)
(1.1096857 0 0)
(0.828177 0 0)
(0.78501463 0 0)
(0.7390199 0 0)
(0.68994591 0 0)
(0.6376413 0 0)
(0.5817771 0 0)
(0.52190701 0 0)
(0.45755938 0 0)
(0.3883105 0 0)
(0.31366947 0 0)
(0.23299739 0 0)
(0.14511101 0 0)
(0.050121259 0 0)
(0.86878862 0 0)
(0.90709514 0 0)
(0.94319343 0 0)
(0.97731381 0 0)
(1.0096187 0 0)
(1.0401683 0 0)
(1.0689987 0 0)
(1.0962095 0 0)
(1.121887 0 0)
(1.1437485 0 0)
(1.1616712 0 0)
(1.1778455 0 0)
(1.1923341 0 0)
(1.2051886 0 0)
(1.2164436 0 0)
(1.2261454 0 0)
(1.2343427 0 0)
(1.2410676 0 0)
(1.2463486 0 0)
(1.250219 0 0)
(1.2527024 0 0)
(1.2538038 0 0)
(1.2535074 0 0)
(1.2517902 0 0)
(1.248651 0 0)
(1.244072 0 0)
(1.2380455 0 0)
(1.2305905 0 0)
(1.2217446 0 0)
(1.2115954 0 0)
(1.2002434 0 0)
(1.1878878 0 0)
(1.1747758 0 0)
(1.1612587 0 0)
(1.147843 0 0)
(1.1351294 0 0)
(1.1238199 0 0)
(1.1147434 0 0)
(1.109097 0 0)
(0.86841112 0 0)
(0.82810746 0 0)
(0.78524133 0 0)
(0.7396161 0 0)
(0.69087266 0 0)
(0.63885085 0 0)
(0.58320783 0 0)
(0.52347926 0 0)
(0.45917542 0 0)
(0.38988182 0 0)
(0.31510158 0 0)
(0.23352886 0 0)
(0.14497815 0 0)
(0.050069309 0 0)
(0.90629613 0 0)
(0.94198021 0 0)
(0.97569923 0 0)
(1.0076206 0 0)
(1.0378136 0 0)
(1.0663306 0 0)
(1.0932754 0 0)
(1.1187051 0 0)
(1.1426551 0 0)
(1.1628665 0 0)
(1.1792783 0 0)
(1.1940462 0 0)
(1.2072118 0 0)
(1.2188089 0 0)
(1.2288835 0 0)
(1.237491 0 0)
(1.2446696 0 0)
(1.2504433 0 0)
(1.2548428 0 0)
(1.2579012 0 0)
(1.2596367 0 0)
(1.2600412 0 0)
(1.2590989 0 0)
(1.2567807 0 0)
(1.2530655 0 0)
(1.2479437 0 0)
(1.2413979 0 0)
(1.2334529 0 0)
(1.2241374 0 0)
(1.2135477 0 0)
(1.2017764 0 0)
(1.1890322 0 0)
(1.1755583 0 0)
(1.1617117 0 0)
(1.1480047 0 0)
(1.1350404 0 0)
(1.1233663 0 0)
(1.1141016 0 0)
(1.1083267 0 0)
(0.90591241 0 0)
(0.86833833 0 0)
(0.82833747 0 0)
(0.78585701 0 0)
(0.74058027 0 0)
(0.69214606 0 0)
(0.64037852 0 0)
(0.5849202 0 0)
(0.52529708 0 0)
(0.46099586 0 0)
(0.39162689 0 0)
(0.31577982 0 0)
(0.23332672 0 0)
(0.14483167 0 0)
(0.050010205 0 0)
(0.94117823 0 0)
(0.9744817 0 0)
(1.0060065 0 0)
(1.0358278 0 0)
(1.0640038 0 0)
(1.090646 0 0)
(1.1158219 0 0)
(1.1395434 0 0)
(1.1618392 0 0)
(1.1805109 0 0)
(1.1955198 0 0)
(1.2089704 0 0)
(1.2208801 0 0)
(1.2312952 0 0)
(1.240277 0 0)
(1.2478652 0 0)
(1.2540896 0 0)
(1.2589804 0 0)
(1.2625662 0 0)
(1.2648791 0 0)
(1.2659255 0 0)
(1.2656916 0 0)
(1.2641517 0 0)
(1.2612677 0 0)
(1.2570244 0 0)
(1.2513949 0 0)
(1.2443659 0 0)
(1.2359584 0 0)
(1.226204 0 0)
(1.2151986 0 0)
(1.2030358 0 0)
(1.189925 0 0)
(1.1761147 0 0)
(1.1619599 0 0)
(1.1479849 0 0)
(1.1345471 0 0)
(1.1226306 0 0)
(1.1132857 0 0)
(1.1073753 0 0)
(0.94079248 0 0)
(0.90583734 0 0)
(0.86857157 0 0)
(0.82896762 0 0)
(0.78685594 0 0)
(0.7419079 0 0)
(0.69375214 0 0)
(0.64220708 0 0)
(0.58690085 0 0)
(0.52734305 0 0)
(0.46301817 0 0)
(0.39242842 0 0)
(0.31550534 0 0)
(0.23309824 0 0)
(0.14466214 0 0)
(0.049941771 0 0)
(0.97367742 0 0)
(1.0047939 0 0)
(1.0342225 0 0)
(1.062037 0 0)
(1.0883544 0 0)
(1.1132424 0 0)
(1.1367211 0 0)
(1.1588067 0 0)
(1.179554 0 0)
(1.1967941 0 0)
(1.2104882 0 0)
(1.2226819 0 0)
(1.2334079 0 0)
(1.2427288 0 0)
(1.2506931 0 0)
(1.2573294 0 0)
(1.2626677 0 0)
(1.2667419 0 0)
(1.2695833 0 0)
(1.2712102 0 0)
(1.2716218 0 0)
(1.2707968 0 0)
(1.2687074 0 0)
(1.2653056 0 0)
(1.2605613 0 0)
(1.2544577 0 0)
(1.2469723 0 0)
(1.238133 0 0)
(1.2279642 0 0)
(1.2165702 0 0)
(1.2040372 0 0)
(1.1905848 0 0)
(1.1764629 0 0)
(1.1620223 0 0)
(1.1474516 0 0)
(1.1336909 0 0)
(1.1217345 0 0)
(1.112295 0 0)
(1.106239 0 0)
(0.9732898 0 0)
(0.94071857 0 0)
(0.9060726 0 0)
(0.86921342 0 0)
(0.82999175 0 0)
(0.78822809 0 0)
(0.7435836 0 0)
(0.695681 0 0)
(0.64432453 0 0)
(0.5891322 0 0)
(0.5296171 0 0)
(0.46392709 0 0)
(0.39208136 0 0)
(0.31519755 0 0)
(0.2328331 0 0)
(0.14446969 0 0)
(0.049864687 0 0)
(1.0039904 0 0)
(1.0330176 0 0)
(1.0604519 0 0)
(1.0864152 0 0)
(1.1109896 0 0)
(1.1341977 0 0)
(1.1560588 0 0)
(1.1766124 0 0)
(1.195905 0 0)
(1.2117958 0 0)
(1.224239 0 0)
(1.2352484 0 0)
(1.2448788 0 0)
(1.2531822 0 0)
(1.2601914 0 0)
(1.2659419 0 0)
(1.270465 0 0)
(1.27379 0 0)
(1.2759458 0 0)
(1.2769449 0 0)
(1.2767712 0 0)
(1.2754037 0 0)
(1.2728027 0 0)
(1.2689125 0 0)
(1.2637082 0 0)
(1.2571587 0 0)
(1.2492471 0 0)
(1.2399994 0 0)
(1.2294422 0 0)
(1.217679 0 0)
(1.2047995 0 0)
(1.1910316 0 0)
(1.1766178 0 0)
(1.161457 0 0)
(1.1464618 0 0)
(1.1326915 0 0)
(1.1206748 0 0)
(1.111125 0 0)
(1.1049195 0 0)
(1.0036068 0 0)
(0.97321523 0 0)
(0.94095588 0 0)
(0.90672308 0 0)
(0.87025635 0 0)
(0.83139916 0 0)
(0.78996359 0 0)
(0.74559748 0 0)
(0.69791303 0 0)
(0.64670967 0 0)
(0.59161149 0 0)
(0.53062419 0 0)
(0.4635131 0 0)
(0.3916927 0 0)
(0.31484126 0 0)
(0.23252764 0 0)
(0.14425039 0 0)
(0.049776962 0 0)
(1.0322196 0 0)
(1.0592599 0 0)
(1.0848534 0 0)
(1.1090874 0 0)
(1.1319921 0 0)
(1.1535979 0 0)
(1.1739489 0 0)
(1.193069 0 0)
(1.2109828 0 0)
(1.2255785 0 0)
(1.2368375 0 0)
(1.2467514 0 0)
(1.2553647 0 0)
(1.2627144 0 0)
(1.2688353 0 0)
(1.2737672 0 0)
(1.2775396 0 0)
(1.280176 0 0)
(1.2817058 0 0)
(1.2821281 0 0)
(1.2814191 0 0)
(1.2795477 0 0)
(1.2764742 0 0)
(1.2721343 0 0)
(1.2664917 0 0)
(1.259525 0 0)
(1.25121 0 0)
(1.2415798 0 0)
(1.2306528 0 0)
(1.2185434 0 0)
(1.2053429 0 0)
(1.1912791 0 0)
(1.1760325 0 0)
(1.1603352 0 0)
(1.1453483 0 0)
(1.1315441 0 0)
(1.119448 0 0)
(1.109777 0 0)
(1.1034118 0 0)
(1.0318398 0 0)
(1.0035328 0 0)
(0.9734518 0 0)
(0.94161145 0 0)
(0.9077807 0 0)
(0.87169238 0 0)
(0.83318023 0 0)
(0.79204569 0 0)
(0.74792842 0 0)
(0.70043033 0 0)
(0.64936183 0 0)
(0.592694 0 0)
(0.53015 0 0)
(0.46304781 0 0)
(0.39124442 0 0)
(0.314432 0 0)
(0.23217649 0 0)
(0.14400256 0 0)
(0.049678412 0 0)
(1.0584744 0 0)
(1.0836779 0 0)
(1.107552 0 0)
(1.1301311 0 0)
(1.1514496 0 0)
(1.171559 0 0)
(1.1904921 0 0)
(1.208251 0 0)
(1.2248437 0 0)
(1.2382098 0 0)
(1.2483689 0 0)
(1.2572648 0 0)
(1.2649238 0 0)
(1.2713838 0 0)
(1.2766878 0 0)
(1.2808657 0 0)
(1.2839453 0 0)
(1.2859577 0 0)
(1.2869164 0 0)
(1.2868092 0 0)
(1.2856038 0 0)
(1.2832694 0 0)
(1.2797529 0 0)
(1.2749867 0 0)
(1.2689395 0 0)
(1.2615788 0 0)
(1.2528857 0 0)
(1.2428899 0 0)
(1.2316147 0 0)
(1.2191835 0 0)
(1.2056815 0 0)
(1.1906764 0 0)
(1.1747876 0 0)
(1.1591102 0 0)
(1.1441055 0 0)
(1.1302463 0 0)
(1.118054 0 0)
(1.1082458 0 0)
(1.1017193 0 0)
(1.0581012 0 0)
(1.0317676 0 0)
(1.0037703 0 0)
(0.97410889 0 0)
(0.94267855 0 0)
(0.90923775 0 0)
(0.87350679 0 0)
(0.83531577 0 0)
(0.79445766 0 0)
(0.75055817 0 0)
(0.70323131 0 0)
(0.65050048 0 0)
(0.59215516 0 0)
(0.52961342 0 0)
(0.46251459 0 0)
(0.39073213 0 0)
(0.31396326 0 0)
(0.23177736 0 0)
(0.14372224 0 0)
(0.049567154 0 0)
(1.0829047 0 0)
(1.1064008 0 0)
(1.128629 0 0)
(1.149635 0 0)
(1.1694751 0 0)
(1.1881853 0 0)
(1.2057712 0 0)
(1.2222206 0 0)
(1.2375467 0 0)
(1.2497636 0 0)
(1.258908 0 0)
(1.2668497 0 0)
(1.2736166 0 0)
(1.2792563 0 0)
(1.2838069 0 0)
(1.2872918 0 0)
(1.2897412 0 0)
(1.2911834 0 0)
(1.2916212 0 0)
(1.2910251 0 0)
(1.2893635 0 0)
(1.2865955 0 0)
(1.2826691 0 0)
(1.277508 0 0)
(1.271074 0 0)
(1.2633431 0 0)
(1.254288 0 0)
(1.243948 0 0)
(1.2323489 0 0)
(1.2196142 0 0)
(1.2050678 0 0)
(1.1893148 0 0)
(1.1734605 0 0)
(1.1577753 0 0)
(1.142731 0 0)
(1.1287959 0 0)
(1.1164891 0 0)
(1.1065344 0 0)
(1.0998357 0 0)
(1.082538 0 0)
(1.0580332 0 0)