/*--------------------------------*- C++ -*----------------------------------*\
| =========                 |                                                 |
| \\      /  F ield         | OpenFOAM: The Open Source CFD Toolbox           |
|  \\    /   O peration     | Version:  v2012                                 |
|   \\  /    A nd           | Website:  www.openfoam.com                      |
|    \\/     M anipulation  |                                                 |
\*---------------------------------------------------------------------------*/
FoamFile
{
    version     2.0;
    format      ascii;
    class       volScalarField;
    location    "47.212973535978783";
    object      p;
}
// * * * * * * * * * * * * * * * * * * * * * * * * * * * * * * * * * * * * * //

dimensions      [0 2 -2 0 0 0 0];


internalField   nonuniform List<scalar> 
9200
(
0.00064046019
0.00074690195
0.00048863197
0.00089440987
0.00052767763
0.0012693747
0.0011589573
0.00056788132
0.0013563876
0.0017506409
0.0015774052
0.00067783152
0.0015200886
0.0018278891
0.0021936926
0.0021703926
0.00094450022
0.0018524568
0.0019914975
0.0022458067
0.0026409597
0.0030375706
0.0013688794
0.0024746847
0.0023391746
0.0023585609
0.0025321986
0.0031036904
0.0042382155
0.0020737995
0.0034079931
0.0030223716
0.0026135698
0.0025439402
0.0027905462
0.0036236925
0.0059123798
0.0030938644
0.0048137199
0.00405998
0.0032371037
0.0025822831
0.0026251762
0.0030788963
0.0042677951
0.0082048175
0.0045529337
0.0067435121
0.0056129655
0.0042131349
0.0029889605
0.0023405973
0.0026596393
0.0034640915
0.0050955214
0.011336432
0.0065438015
0.0093444752
0.0077120937
0.0057139319
0.0037129453
0.0023973945
0.001957323
0.0027242253
0.0040174049
0.006163071
0.015563188
0.0092158442
0.012716531
0.010455306
0.0077451029
0.004947231
0.0027184341
0.0015325521
0.0015162351
0.0028991905
0.0048084537
0.0075431178
0.021194663
0.012724658
0.017002028
0.0138772
0.010347642
0.0066733072
0.003530045
0.0013055454
0.00048426777
0.0011071784
0.0032690824
0.0059026719
0.0092940468
0.028555551
0.017260482
0.022328316
0.018030281
0.013493488
0.0089125809
0.0048145723
0.0015422366
-0.00043781305
-0.00065064613
0.00082953304
0.0039178222
0.0073668812
0.011381742
0.037943477
0.023041138
0.028817128
0.022929586
0.017149174
0.011595002
0.0066160132
0.0022625654
-0.00094293361
-0.0024218957
-0.0017603592
0.00078953205
0.0049240985
0.0092705461
0.013826451
0.049526687
0.030334629
0.036549733
0.028578248
0.021218267
0.014620885
0.0088541541
0.0035455741
-0.0009529097
-0.0038622844
-0.0045327658
-0.002716937
0.0010961673
0.0063629046
0.011641301
0.016878705
0.063035733
0.039494331
0.045515357
0.034950569
0.025585562
0.017818389
0.011419148
0.0053563603
-0.00033119103
-0.0048299451
-0.0071211464
-0.0066259722
-0.0033784432
0.0018519709
0.008296416
0.01442086
0.020354461
0.076335716
0.050943547
0.055541012
0.041970265
0.030104677
0.020980669
0.014133818
0.0076248669
0.00096777193
-0.005118795
-0.009326337
-0.010573186
-0.0085259099
-0.00359656
0.0031457092
0.01076179
0.017654679
0.024114799
0.085362513
0.064423631
0.066171959
0.049541327
0.034615916
0.023849453
0.016783922
0.010215921
0.0029556608
-0.0045857291
-0.010878537
-0.014320843
-0.014014419
-0.010032881
-0.0032294805
0.0050538887
0.013786195
0.021361391
0.028283024
0.087932872
0.079372228
0.077007682
0.057486892
0.038977389
0.026140896
0.019125458
0.01295068
0.0055855688
-0.0031126749
-0.011538674
-0.017557777
-0.01959774
-0.017188989
-0.010936576
-0.0021523141
0.0076321616
0.017329232
0.025493465
0.032798981
0.085655494
0.095587462
0.087755351
0.065527905
0.042948098
0.027498003
0.020922652
0.015618886
0.0087616011
-0.00062604915
-0.011081327
-0.019966079
-0.024958569
-0.024848531
-0.019804017
-0.011039087
-0.00026045697
0.010890209
0.02139514
0.030026215
0.037573793
0.082055754
0.10811863
0.096125552
0.073171996
0.04658717
0.027697736
0.021925469
0.017994375
0.012339273
0.0029036379
-0.00931031
-0.021229741
-0.029732592
-0.032735026
-0.02968577
-0.021558207
-0.010169226
0.0025085359
0.014822898
0.025933788
0.034889835
0.042569139
0.077869871
0.11271493
0.10084731
0.079622051
0.049470123
0.026971789
0.021811835
0.019856624
0.016114289
0.0074618062
-0.006074175
-0.021043482
-0.033542865
-0.040484746
-0.040406338
-0.033674154
-0.022171365
-0.0081848158
0.0061485328
0.019388249
0.030887257
0.04001854
0.047725873
0.072263896
0.10870155
0.1011016
0.084155173
0.051382797
0.024201064
0.019342186
0.020784026
0.019814911
0.012991195
-0.0012728081
-0.019149254
-0.035997476
-0.047705981
-0.051664364
-0.047384567
-0.036373715
-0.021396666
-0.0050143347
0.010656467
0.024522305
0.036184246
0.045346546
0.052986178
0.064396625
0.098742905
0.096408557
0.086195431
0.052227007
0.018893951
0.015346651
0.019755334
0.023270524
0.019398408
0.0051309899
-0.015353429
-0.036746579
-0.053953603
-0.063120063
-0.062524863
-0.053028252
-0.037373837
-0.019086446
-0.00067844882
0.015961135
0.030134422
0.041745136
0.050810353
0.058299803
0.05532533
0.085539897
0.087211464
0.085536916
0.051974508
0.010434992
0.0090039377
0.019076366
0.026883568
0.026559819
0.013100181
-0.0095598572
-0.035508155
-0.058803827
-0.074335303
-0.078903992
-0.072181249
-0.056705259
-0.036296476
-0.015289844
0.0048161088
0.021951208
0.036120991
0.047489148
0.056346323
0.06361968
0.045356502
0.069989989
0.074244017
0.081536353
0.050902053
-0.0020642034
-0.00016870964
0.014955273
0.029406439
0.034310575
0.022524947
-0.001790582
-0.032122578
-0.061882468
-0.084852718
-0.09619372
-0.09391233
-0.079694564
-0.057815925
-0.032866113
-0.0095676281
0.011302322
0.028488892
0.04237398
0.053338101
0.061897316
0.068904053
0.035344336
0.05287081
0.058158832
0.074224051
0.048926599
-0.019623907
-0.012815191
0.008788249
0.03024345
0.042224498
0.033170309
0.0077937666
-0.026587484
-0.062933463
-0.094209647
-0.11400214
-0.11814872
-0.1068293
-0.084121773
-0.055930155
-0.027587029
-0.0025025899
0.018598741
0.03542595
0.048787098
0.059220136
0.067413393
0.074117193
0.026179662
0.035443473
0.039988123
0.063978068
0.045733833
-0.041602624
-0.029526101
8.4824919e-05
0.028809679
0.049850684
0.044702967
0.018878773
-0.019094662
-0.061875696
-0.1020193
-0.1318517
-0.14474852
-0.13845722
-0.11622543
-0.084589869
-0.051032694
-0.020074083
0.0057509035
0.026499677
0.042613231
0.055261622
0.065071747
0.072852414
0.07922975
0.017498116
0.018512128
0.021064905
0.050734992
0.042206652
-0.065297159
-0.050379671
-0.011112137
0.024056587
0.056686476
0.056650564
0.031008094
-0.010036024
-0.058841323
-0.10804077
-0.14924854
-0.1734335
-0.17495133
-0.15510921
-0.12060785
-0.080592036
-0.04290531
-0.010684445
0.014924706
0.034791916
0.049909837
0.06171016
0.070839414
0.078179994
0.084218341
0.0085471883
0.0021551898
0.0019834688
0.034619509
0.036000334
-0.089608352
-0.075378119
-0.025772263
0.015061331
0.061995472
0.068808505
0.043573453
2.3199571e-06
-0.054190555
-0.11219928
-0.16571469
-0.2037853
-0.21654733
-0.20193944
-0.16577247
-0.11892054
-0.072334649
-0.032071324
0.0001562669
0.024713794
0.043269676
0.057190298
0.068059154
0.076479682
0.083369367
0.08906529
-1.4923689e-05
-0.015688378
-0.016551386
0.016477879
0.027408545
-0.11092986
-0.10554941
-0.047079567
0.00095797573
0.06495415
0.079864826
0.055827352
0.01026317
-0.04851965
-0.11465994
-0.18084269
-0.23523906
-0.26329426
-0.25792512
-0.22217119
-0.16831459
-0.11096758
-0.059922973
-0.019033976
0.011978608
0.034813103
0.051747706
0.06434887
0.074249587
0.081959152
0.088400559
0.093757861
-0.0083091461
-0.032770853
-0.036982096
-0.0022337697
0.017170011
-0.1304257
-0.1370209
-0.076026615
-0.018659452
0.064376451
0.089103259
0.06684412
0.019866189
-0.04261515
-0.11583164
-0.19446158
-0.26717728
-0.31513882
-0.3242375
-0.29270045
-0.2315622
-0.16196917
-0.096726831
-0.044078747
-0.004460402
0.024316087
0.044943988
0.060069688
0.07130148
0.080236793
0.087253459
0.093259792
0.098287715
-0.016243003
-0.048433453
-0.057649867
-0.021820145
0.0056137209
-0.14667362
-0.16736811
-0.11021888
-0.03924824
0.059627731
0.095309972
0.075546083
0.027870303
-0.037353165
-0.11629168
-0.20654644
-0.29895525
-0.37185988
-0.4019911
-0.38067415
-0.31394539
-0.22747385
-0.14559596
-0.077257212
-0.025807739
0.010947897
0.036741874
0.054870839
0.068112154
0.077985414
0.085989295
0.092346391
0.097938406
0.10265013
-0.023235214
-0.062615963
-0.076485605
-0.040768906
-0.0042577612
-0.16048951
-0.1965561
-0.14389746
-0.058266637
0.050890031
0.097840539
0.080745872
0.03331603
-0.033610015
-0.11671345
-0.21715059
-0.32988263
-0.43273727
-0.49263198
-0.48942994
-0.42141323
-0.31649712
-0.21076592
-0.12160253
-0.054013313
-0.0061914278
0.026538714
0.048896005
0.064408801
0.075784582
0.084357943
0.091487218
0.097228493
0.10243218
0.1068434
-0.028805127
-0.075303079
-0.092192891
-0.057950119
-0.013553317
-0.17121364
-0.22399793
-0.1762194
-0.078278918
0.038210369
0.096239382
0.082839477
0.035274571
-0.03219254
-0.11782249
-0.22638946
-0.35924953
-0.49686682
-0.59688965
-0.62498824
-0.56176314
-0.43597832
-0.2996354
-0.18159905
-0.091738266
-0.028633389
0.013763928
0.041761283
0.060498656
0.073424566
0.083027176
0.090393591
0.096720411
0.101896
0.10674025
0.11086817
-0.032683274
-0.085974965
-0.10427927
-0.072270328
-0.02454359
-0.18150833
-0.24621507
-0.20706065
-0.0988117
0.021781328
0.08994066
0.079134901
0.032926954
-0.033748244
-0.12026977
-0.2345125
-0.38615333
-0.56109777
-0.71501283
-0.78982385
-0.74769267
-0.59890165
-0.42172485
-0.26383861
-0.1429634
-0.05847402
-0.002665643
0.033212761
0.056191461
0.071351751
0.081832807
0.089806608
0.096081396
0.10168655
0.1063495
0.11086459
0.11472691
-0.034949194
-0.094670152
-0.11312421
-0.082229711
-0.03801616
-0.18772194
-0.26803349
-0.23421016
-0.1179899
0.0027891382
0.078635887
0.070296988
0.025736094
-0.038783639
-0.12447523
-0.24173707
-0.40970495
-0.62202324
-0.83685084
-0.97782384
-0.98130138
-0.8182191
-0.59438771
-0.37781754
-0.21304557
-0.098875628
-0.024227684
0.022592405
0.051512335
0.069534938
0.081332648
0.089589256
0.096111473
0.10142171
0.10638935
0.110593
0.11480909
0.11842351
-0.035857309
-0.10134742
-0.11899271
-0.088407705
-0.054140908
-0.18956932
-0.28379518
-0.26133292
-0.13783727
-0.017987649
0.064032611
0.056111036
0.013523036
-0.047584824
-0.13064032
-0.24828949
-0.42871132
-0.67650028
-0.95589456
-1.1764758
-1.241424
-1.0980959
-0.82637202
-0.54393233
-0.31085064
-0.15377426
-0.053191766
0.0090029918
0.046169795
0.068227378
0.081616123
0.090382691
0.096683176
0.10194728
0.10642353
0.11083696
0.11463287
0.11857924
0.12196278
-0.035779157
-0.10594187
-0.12176519
-0.091843909
-0.072209877
-0.18654228
-0.29361978
-0.28122204
-0.16278393
-0.047107195
0.047572415
0.036319576
-0.0034075721
-0.060244786
-0.13872162
-0.25442032
-0.44248835
-0.72150458
-1.063452
-1.3855224
-1.5305617
-1.4201961
-1.1135949
-0.772565
-0.45688756
-0.23101361
-0.092213657
-0.0090065158
0.039757984
0.067428779
0.083109353
0.092358757
0.098494451
0.10312921
0.10733206
0.11110196
0.11504064
0.11847727
0.12218138
0.12535029
-0.10839164
-0.035171087
-0.12150047
-0.092894736
-0.089284989
-0.17699539
-0.29626242
-0.2951576
-0.18691463
-0.081157353
0.020417803
0.01364619
-0.025838993
-0.076353373
-0.14864685
-0.26012539
-0.44917119
-0.75570049
-1.1499032
-1.5899408
-1.8599945
-1.8114983
-1.4523374
-1.034581
-0.65231963
-0.34781775
-0.14765937
-0.033058661
0.031491642
0.067116012
0.08602508
0.096063084
0.10176444
0.10569859
0.10896034
0.11229239
0.11547609
0.11901357
0.12213526
0.12562263
0.12859192
-0.11831408
-0.10867724
-0.034446802
-0.091743517
-0.10118227
-0.16153644
-0.29076866
-0.30218305
-0.20587144
-0.11697703
-0.0072099051
-0.018929311
-0.051117913
-0.096056138
-0.15991353
-0.26534882
-0.44947175
-0.76858782
-1.2051475
-1.7739675
-2.1974946
-2.2762223
-1.8900004
-1.3470639
-0.86815879
-0.49851749
-0.23225038
-0.067826176
0.020509507
0.066997154
0.090614618
0.10184897
0.1071104
0.10989126
0.1120524
0.11422146
0.1168601
0.11956733
0.12276995
0.12561652
0.12891024
0.13169382
-0.088573599
-0.11241007
-0.10664217
-0.034156197
-0.10603727
-0.14298814
-0.27664237
-0.30137277
-0.21694634
-0.14892399
-0.043133133
-0.053191002
-0.082748198
-0.11751653
-0.17273294
-0.26945264
-0.44516615
-0.76528633
-1.2320874
-1.9158609
-2.5184816
-2.7654755
-2.4269686
-1.777692
-1.1306177
-0.65879222
-0.33880033
-0.12202248
0.0036914999
0.066728336
0.096922458
0.11014519
0.1149639
0.11635557
0.1168354
0.11762969
0.11896446
0.12106976
0.12339798
0.12632421
0.12893078
0.13205174
0.1346621
-0.10458233
-0.083489339
-0.10390636
-0.10238534
-0.034064636
-0.12226984
-0.25433327
-0.29226866
-0.21975592
-0.17656201
-0.085701309
-0.097266497
-0.11523063
-0.14251058
-0.18502894
-0.27300617
-0.4363103
-0.75066386
-1.2463459
-1.9986979
-2.7794939
-3.2394982
-3.0685493
-2.3461038
-1.5133694
-0.8539346
-0.4478231
-0.18993191
-0.02472568
0.064413963
0.10492595
0.12120415
0.1258503
0.12555069
0.12395604
0.12271543
0.12251327
0.1232442
0.1249564
0.12699002
0.12969053
0.13208784
0.13505455
0.13750289
-0.099225296
-0.098220733
-0.076557046
-0.09312671
-0.095597517
-0.034252559
-0.22516507
-0.27494819
-0.21669786
-0.19763479
-0.13161737
-0.14793457
-0.15921119
-0.16520063
-0.19770347
-0.27333275
-0.42584472
-0.71955381
-1.2449173
-2.0050328
-2.9483403
-3.6299081
-3.6616055
-2.999801
-2.0334365
-1.1406884
-0.57715488
-0.25718167
-0.061428122
0.056298015
0.11358047
0.13518029
0.14013077
0.13803519
0.13386185
0.13009848
0.12766084
0.1267888
0.12711519
0.12855381
0.13036457
0.13288289
0.13509736
0.13792601
0.14022229
-0.19092847
-0.074194364
-0.088377327
-0.068053613
-0.080834085
-0.086129633
-0.03545943
-0.24998853
-0.20958671
-0.20674936
-0.1771417
-0.20535466
-0.21325036
-0.1980593
-0.20423558
-0.27158916
-0.41107746
-0.6840863
-1.2162816
-1.9592071
-3.0106222
-3.8879669
-4.1377291
-3.6031798
-2.5722257
-1.5197259
-0.7642334
-0.33311148
-0.096832444
0.043550485
0.12046349
0.15154327
0.15803844
0.15420529
0.1470976
0.14018578
0.1349816
0.13180291
0.13053986
0.13062894
0.13189374
0.13354212
0.13591517
0.13796859
0.14067278
0.14282633
-0.21871483
-0.15396671
-0.048340935
-0.076041354
-0.058340922
-0.067648068
-0.074314862
-0.038437837
-0.19759249
-0.20113834
-0.21791162
-0.26719573
-0.27543778
-0.2422145
-0.21768658
-0.25807202
-0.39049635
-0.64623073
-1.146877
-1.8825284
-2.9652416
-3.9934314
-4.4454891
-4.077947
-3.080866
-1.9343352
-1.0153289
-0.44027446
-0.1346607
0.031397863
0.12532069
0.16874541
0.17930423
0.1743088
0.16404221
0.15347527
0.14482166
0.13880294
0.13526767
0.13384413
0.13383314
0.1350068
0.13654294
0.13879991
0.14070925
0.14330084
0.14532033
-0.17908807
-0.18356866
-0.11687259
-0.022821729
-0.062075115
-0.047838824
-0.053849297
-0.060079829
-0.041668515
-0.18282228
-0.25126808
-0.32939334
-0.34219142
-0.29259501
-0.2387553
-0.24980742
-0.35243007
-0.58992351
-1.0546592
-1.7660929
-2.8354876
-3.9521988
-4.5674035
-4.3802148
-3.4808642
-2.3204029
-1.2995474
-0.58871794
-0.18696913
0.018627163
0.12994655
0.18579587
0.20291417
0.19817846
0.18491609
0.17029374
0.15761032
0.14806106
0.14174908
0.13817049
0.13677254
0.13677323
0.13792287
0.13938457
0.14154614
0.14332568
0.14581643
0.14770871
-0.15824309
-0.15551486
-0.1476253
-0.081278449
0.00079825197
-0.047098487
-0.036915669
-0.039747099
-0.045401499
-0.042931245
-0.27698581
-0.38608965
-0.41225888
-0.34730126
-0.26462919
-0.24751909
-0.32122633
-0.51183968
-0.92722732
-1.6298765
-2.6473905
-3.788174
-4.5211908
-4.4975193
-3.7370287
-2.628941
-1.5748302
-0.7660221
-0.263946
-0.0012115416
0.13339827
0.20229745
0.22763094
0.22507461
0.20956858
0.19080695
0.17360104
0.15992486
0.15017488
0.14398846
0.14061538
0.1393919
0.13949308
0.14066687
0.14207798
0.14416017
0.14582591
0.14822773
0.1499959
-0.29535223
-0.13375472
-0.12927334
-0.11198026
-0.047817145
0.021530903
-0.031286377
-0.025902156
-0.025751685
-0.032448126
-0.042503677
-0.43303851
-0.47945315
-0.40433795
-0.29356961
-0.24799141
-0.29752052
-0.44524083
-0.78122592
-1.4144394
-2.4300309
-3.5304022
-4.3203856
-4.438338
-3.8388489
-2.837386
-1.8109249
-0.95071384
-0.36561044
-0.035091334
0.13149503
0.21644948
0.25195766
0.25376612
0.23736964
0.2148395
0.19288874
0.17456303
0.16080433
0.15140435
0.14567097
0.14269905
0.14176585
0.14202818
0.14325223
0.14462965
0.14665405
0.14822269
0.15054269
0.15218869
-0.46674149
-0.30399962
-0.11267372
-0.10033784
-0.077511522
-0.017483672
0.038373374
-0.015625439
-0.014529721
-0.012564199
-0.020771874
-0.041215779
-0.53692005
-0.45870212
-0.32137203
-0.24935344
-0.27686332
-0.39022197
-0.65268843
-1.183619
-2.086965
-3.2202951
-4.0179028
-4.2362977
-3.7951794
-2.9344054
-1.9913841
-1.1239066
-0.48434739
-0.088648941
0.12024703
0.22473488
0.27318817
0.28237681
0.26715554
0.24179135
0.21525449
0.19199217
0.17371676
0.16058718
0.15196137
0.14693412
0.1445123
0.14394452
0.14439531
0.1456853
0.14705741
0.14905215
0.15052703
0.15276188
0.15439482
-0.57881071
-0.48570428
-0.30177641
-0.096607506
-0.071179429
-0.045390573
0.0081858294
0.051505691
-0.0016927541
-0.003052605
-0.00078088425
-0.010858705
-0.039277143
-0.5036922
-0.34591311
-0.25240466
-0.25762069
-0.34082975
-0.54098085
-0.97368125
-1.744158
-2.7866831
-3.6583879
-3.9570278
-3.6442148
-2.9253674
-2.1108332
-1.2770507
-0.61275956
-0.16221388
0.093572123
0.22421823
0.28770199
0.30785177
0.29703618
0.27055318
0.24009895
0.2119426
0.18884879
0.17152699
0.15956683
0.15203754
0.1479049
0.1461251
0.14594924
0.14660067
0.14799319
0.14940181
0.15137237
0.15273204
0.15495968
0.15665363
-0.53448094
-0.60214424
-0.48860206
-0.29126476
-0.084674058
-0.043959053
-0.016515114
0.029094315
0.061232613
0.010110108
0.0075705492
0.0080833918
-0.0019160865
-0.036986597
-0.36686216
-0.25715157
-0.24019569
-0.29379393
-0.44363491
-0.78228634
-1.4233503
-2.3594429
-3.2156872
-3.6299166
-3.4429076
-2.8502515
-2.1575014
-1.4063242
-0.74487682
-0.25451757
0.047414497
0.21083191
0.29239998
0.32620371
0.32410342
0.29934103
0.26635852
0.23380682
0.20587915
0.18408241
0.16839121
0.15800454
0.1518068
0.14867943
0.14756514
0.1477861
0.1486844
0.15024213
0.15169006
0.15358394
0.15488012
0.15719628
0.15890679
-0.38336555
-0.54917789
-0.60503544
-0.47779529
-0.27423403
-0.075082341
-0.020724319
0.0078223865
0.045552719
0.067711772
0.020068604
0.015868044
0.015318211
0.006423178
-0.034548453
-0.26231563
-0.22300322
-0.24849342
-0.357536
-0.6150941
-1.1252618
-1.9303437
-2.7809358
-3.2360231
-3.2027373
-2.7512575
-2.1469954
-1.5060776
-0.87693914
-0.36406172
-0.019645151
0.17950862
0.2848066
0.33383063
0.3443946
0.32557081
0.2923752
0.25657029
0.22419146
0.19788281
0.1782192
0.16465773
0.15613331
0.15139877
0.14929423
0.14883884
0.14951327
0.15074827
0.15247272
0.15385983
0.15566899
0.15707979
0.15943592
0.16115264
-0.26347495
-0.39193697
-0.54659109
-0.58929571
-0.45541486
-0.25210358
-0.065511902
-0.0022184731
0.026784865
0.057578148
0.071079685
0.027564369
0.022691852
0.021130269
0.014192174
-0.0323832
-0.2032968
-0.20597513
-0.28074119
-0.47176797
-0.86465389
-1.5271527
-2.2976836
-2.8635571
-2.9221786
-2.6227695
-2.1165273
-1.5803125
-1.005965
-0.49075932
-0.10886543
0.12774857
0.26086745
0.32845263
0.3537922
0.34578373
0.31586359
0.27871052
0.24282335
0.21230489
0.18863441
0.17171287
0.16063151
0.15412457
0.15086233
0.14975709
0.15002789
0.15128048
0.15285089
0.15456921
0.15582453
0.15782955
0.15929034
0.16167704
0.16339093
-0.17865894
-0.25586416
-0.3887649
-0.52793093
-0.55749411
-0.42427507
-0.22780478
-0.055383389
0.011773316
0.040103896
0.065044925
0.072495586
0.033054215
0.02836366
0.025545514
0.020699853
-0.030355667
-0.16507188
-0.21191653
-0.34901315
-0.64471229
-1.1676549
-1.8434506
-2.4322233
-2.6683952
-2.4828172
-2.0755119
-1.6412183
-1.1269195
-0.63287346
-0.22365457
0.053653192
0.21734216
0.30765263
0.34935579
0.35589097
0.33395743
0.298195
0.26039254
0.22643911
0.19900838
0.17871139
0.16495327
0.15653461
0.1520441
0.15020859
0.1501792
0.15134299
0.15316926
0.15480317
0.15634432
0.15792817
0.1600064
0.16151449
0.16391882
0.16562095
-0.12455265
-0.14995131
-0.23752101
-0.37139614
-0.49528612
-0.51336041
-0.38739496
-0.20487726
-0.046184809
0.021191007
0.048479686
0.070258082
0.071968008
0.037909924
0.03280711
0.029031275
0.025633099
-0.028332765
-0.14967736
-0.24432169
-0.4610145
-0.86156775
-1.4234971
-1.9928543
-2.3402121
-2.3493772
-2.0599158
-1.6934061
-1.2389365
-0.77966177
-0.36559809
-0.047970731
0.15224616
0.26833037
0.32935916
0.35219701
0.34319228
0.31259988
0.27510974
0.23903778
0.20848258
0.18501987
0.16860051
0.15822186
0.15245553
0.14990957
0.14958414
0.15084523
0.1528939
0.15488964
0.15629778
0.1583679
0.16004804
0.16221199
0.16374811
0.16615999
0.16784205
-0.092925897
-0.084093888
-0.11885755
-0.21049218
-0.34043258
-0.45143681
-0.46108821
-0.34806154
-0.18394208
-0.038193295
0.02727185
0.055315363
0.072135857
0.071053916
0.042356688
0.036180128
0.032085808
0.029289146
-0.026397405
-0.15517467
-0.30923758
-0.60795911
-1.0575392
-1.5686709
-1.9737353
-2.1350262
-2.0373873
-1.7704715
-1.3568458
-0.92281362
-0.52271462
-0.18248166
0.060628588
0.2080391
0.29177487
0.33239681
0.33982879
0.31914968
0.28488604
0.24854399
0.21593282
0.18982594
0.1709331
0.15865083
0.15163715
0.14842348
0.14790838
0.14935852
0.15189755
0.15426246
0.15598645
0.15822122
0.16040303
0.16221533
0.1644382
0.16598902
0.1683993
0.17005353
-0.078982461
-0.040611021
-0.044855051
-0.08563309
-0.17763153
-0.2994078
-0.39984331
-0.4045948
-0.30872923
-0.16381475
-0.030841864
0.033476958
0.058746378
0.072770578
0.069232169
0.046003847
0.038910137
0.034510332
0.031950858
-0.024556126
-0.18530246
-0.40229432
-0.75065551
-1.1877992
-1.5998466
-1.8651319
-1.9406559
-1.8114674
-1.5334182
-1.0863791
-0.68141132
-0.34081534
-0.064828499
0.12275605
0.23407438
0.29514491
0.32079033
0.31474002
0.28742664
0.25317471
0.22000918
0.19211404
0.17117668
0.15717203
0.14901984
0.14524721
0.14467079
0.1465016
0.14970977
0.15276205
0.15483342
0.15778032
0.16014077
0.16251261
0.1644145
0.16668292
0.16823459
0.17063561
0.17225446
-0.084537904
-0.013115369
0.0067707876
-0.0068874632
-0.051601098
-0.14045217
-0.25251563
-0.34399574
-0.34730968
-0.26988333
-0.14301869
-0.021604237
0.03804096
0.060883185
0.071639338
0.067197978
0.048413599
0.040874765
0.036355994
0.033803257
-0.022797924
-0.2385842
-0.50140539
-0.86065955
-1.2491696
-1.572971
-1.7703053
-1.8002672
-1.6533707
-1.3439807
-0.87364351
-0.5070175
-0.22022824
0.0057778
0.15300058
0.23855267
0.28426572
0.29636008
0.28030979
0.25101288
0.21921303
0.19071253
0.16840591
0.15303898
0.14394398
0.13978468
0.13933162
0.14174994
0.1459032
0.14988571
0.15266295
0.15648045
0.15954449
0.16216911
0.16466932
0.16664421
0.16894252
0.1704825
0.17286786
0.17444396
-0.1096808
-0.0018656783
0.043132386
0.04966774
0.029205065
-0.017903733
-0.10161371
-0.20373596
-0.28690591
-0.29202301
-0.23003373
-0.12410675
-0.0099320508
0.041581454
0.061384939
0.06962431
0.064840643
0.049981507
0.04222307
0.0376926
0.034987882
-0.021076677
-0.30413008
-0.59057556
-0.93677642
-1.2800619
-1.5603698
-1.7251356
-1.7328803
-1.5406633
-1.194973
-0.7158704
-0.39107845
-0.14374156
0.043493537
0.1604642
0.22839796
0.26155604
0.26104531
0.24009475
0.21197394
0.1843702
0.161599
0.14539696
0.13568335
0.13136898
0.13127225
0.13452481
0.13990732
0.14517079
0.14898086
0.15414508
0.15805653
0.16146397
0.16426149
0.16687359
0.16889953
0.1712145
0.17272997
0.17509462
0.17662155
-0.15064542
-0.0078281822
0.06527101
0.091475908
0.088036816
0.062624764
0.014656674
-0.063118411
-0.15683469
-0.23077107
-0.23672598
-0.1965264
-0.1023032
-0.00018120233
0.043946687
0.060949515
0.067078953
0.062486622
0.050773095
0.043264277
0.03859449
0.035612284
-0.019322732
-0.37461597
-0.67095481
-1.0051662
-1.3311084
-1.598582
-1.7504827
-1.720606
-1.4610959
-1.0806954
-0.60697829
-0.31731571
-0.096856067
0.056238651
0.15230023
0.20826445
0.22709741
0.21843439
0.19663469
0.17180213
0.14970117
0.13334376
0.12343794
0.11929077
0.11981892
0.12417772
0.13109696
0.1380146
0.14333954
0.15030025
0.15550106
0.15984597
0.16346875
0.16642195
0.16911859
0.17117768
0.17349608
0.1749731
0.17731337
0.17878755
-0.20591607
-0.031373201
0.071672125
0.12026393
0.13269481
0.12170146
0.092747696
0.045242982
-0.026841558
-0.11424686
-0.17563872
-0.1917259
-0.15975484
-0.081358827
0.0075511489
0.045479195
0.059892974
0.064370969
0.060097208
0.050739198
0.044322702
0.039094199
0.035780523
-0.017446657
-0.45346234
-0.76124727
-1.1012921
-1.4354362
-1.7108637
-1.8423157
-1.7457
-1.4137675
-0.98665613
-0.52972779
-0.2701631
-0.073992825
0.050612052
0.13676958
0.17825043
0.18453851
0.17168677
0.15164996
0.1316474
0.11597067
0.10639292
0.10279536
0.10427324
0.11001475
0.11878031
0.12776125
0.13517562
0.14451408
0.15142328
0.15714277
0.16174527
0.16556827
0.16864143
0.17140153
0.17347507
0.17578192
0.1772083
0.17952207
0.18094176
-0.28037156
-0.074616011
0.05945836
0.13386233
0.16486322
0.16731075
0.15064649
0.11943918
0.072797966
0.0065778164
-0.079061552
-0.13449903
-0.14920875
-0.125988
-0.059503161
0.013928644
0.046368989
0.058500961
0.061652512
0.057781028
0.049812839
0.045293965
0.039207411
0.035572065
-0.015373277
-0.55453421
-0.88621943
-1.2540342
-1.6209008
-1.9092487
-2.0017477
-1.8129566
-1.3765196
-0.89266861
-0.46587375
-0.2474411
-0.056965649
0.043947193
0.11103746
0.1368045
0.13583901
0.12273235
0.10641042
0.092460043
0.083717802
0.081143075
0.083913488
0.091327822
0.10222366
0.11369201
0.12388989
0.13625115
0.14541248
0.15291659
0.15892384
0.16377205
0.16775016
0.17091749
0.17371833
0.17578399
0.17806439
0.17943892
0.18171798
0.18308358
-0.38487571
-0.14338984
0.024400109
0.12850557
0.18214618
0.20047325
0.1959407
0.17512693
0.14221838
0.097512904
0.03548338
-0.052239213
-0.1002059
-0.11344942
-0.094285096
-0.039564943
0.019514517
0.046859809
0.056953285
0.059070628
0.055549026
0.048328069
0.045664564
0.03880343
0.034952552
-0.013050615
-0.69579512
-1.0709597
-1.4957399
-1.9178766
-2.2213406
-2.2394217
-1.8875637
-1.3117277
-0.79064212
-0.40319191
-0.21035017
-0.064497644
0.025039212
0.074049099
0.088064871
0.084041915
0.073008063
0.061870252
0.05497009
0.05364073
0.058051973
0.067401068
0.080682484
0.095049951
0.10884055
0.12494264
0.13696808
0.14677621
0.15458305
0.16087273
0.16590997
0.17001236
0.17324552
0.17605844
0.17809464
0.1803466
0.18166261
0.18389925
0.18521245
-0.53385043
-0.24681726
-0.039484411
0.09857462
0.17988503
0.21867748
0.22817033
0.21902043
0.19491099
0.1620361
0.11753473
0.056800017
-0.025866631
-0.070126742
-0.081292631
-0.065346657
-0.021372637
0.02442017
0.047135183
0.055395745
0.056689234
0.05343736
0.046707721
0.045085906
0.037981016
0.03398685
-0.01049886
-0.89988652
-1.3513722
-1.8747637
-2.3887094
-2.6820867
-2.5087926
-1.9003383
-1.1981764
-0.68662526
-0.37455956
-0.20074479
-0.076931477
-0.005124317
0.027456193
0.034858552
0.030667829
0.023552136
0.018989068
0.019733579
0.02607235
0.037560293
0.053412434
0.071068772
0.089364176
0.10998254
0.12556431
0.13825015
0.14835172
0.15646514
0.16296797
0.16815769
0.17234943
0.17561198
0.17840764
0.18041688
0.18262216
0.18387709
0.18606385
0.18732816
-0.74823515
-0.39770119
-0.14027579
0.038429919
0.15248431
0.21691975
0.24508039
0.24861598
0.23728824
0.21182072
0.17700217
0.13306072
0.068780731
-0.0007979166
-0.043500902
-0.05306615
-0.03991617
-0.00595366
0.028972716
0.047310313
0.053926049
0.054564772
0.05160251
0.045777417
0.043858872
0.036904121
0.032616466
-0.0077976275
-1.2035856
-1.7900899
-2.4954463
-3.1126112
-3.2387963
-2.6892006
-1.8001706
-1.0522754
-0.60659538
-0.34716064
-0.20050882
-0.099055135
-0.046817201
-0.025584891
-0.021046485
-0.023136586
-0.024493072
-0.021301053
-0.012588742
0.0012217275
0.019706502
0.040984891
0.064798237
0.090745914
0.11064759
0.12684796
0.13978726
0.15019823
0.15853559
0.16520895
0.17050895
0.1747441
0.17799942
0.18078067
0.18274241
0.18488868
0.1860781
0.18821004
0.18943066
-1.0627205
-0.61489013
-0.29051261
-0.059861278
0.094355597
0.18988661
0.24204708
0.2633733
0.26371918
0.25236955
0.22268558
0.18862497
0.13816878
0.080392477
0.019267872
-0.019758459
-0.028649064
-0.018375145
0.0068973959
0.033092722
0.047494993
0.05260809
0.052771773
0.049953267
0.045330529
0.042520859
0.035542339
0.030833224
-0.0051137756
-1.6787315
-2.5389416
-3.5042379
-4.0460607
-3.7091004
-2.660493
-1.6036929
-0.90921732
-0.5448266
-0.33272879
-0.21050429
-0.13391997
-0.097443837
-0.082877782
-0.078439722
-0.075984897
-0.069832734
-0.058461466
-0.042192885
-0.02100524
0.0040565143
0.034491712
0.066609
0.091652298
0.11205726
0.12843435
0.14165733
0.15228219
0.1607948
0.16758824
0.1729427
0.17717519
0.18043045
0.18316469
0.18506852
0.18714041
0.18826138
0.19033682
0.19151881
-1.5608206
-0.92976562
-0.50748118
-0.20888006
-0.0026608217
0.13198847
0.21402056
0.25858147
0.27603521
0.27289022
0.25190979
0.23040096
0.1902496
0.14330109
0.090074867
0.035714503
0.001421289
-0.007860226
-0.0008805176
0.017554664
0.036778295
0.047721147
0.051455853
0.051154582
0.048444795
0.044386618
0.041105881
0.033908277
0.028665149
-0.0025812234
-2.5291714
-3.8477828
-4.8797504
-4.9509731
-3.8524498
-2.4132599
-1.3704073
-0.78745049
-0.50212471
-0.33197987
-0.23502648
-0.18043086
-0.15439698
-0.14306431
-0.1356793
-0.12621266
-0.11190261
-0.093119986
-0.069392701
-0.04023455
-0.0021740672
0.036963153
0.068018259
0.093358094
0.11382174
0.13042073
0.14382099
0.15460506
0.16323392
0.17008077
0.17543545
0.17967339
0.18288656
0.18555779
0.18738612
0.18937051
0.19042705
0.19244373
0.1935893
-2.482899
-1.4367468
-0.82026537
-0.42439753
-0.1508042
0.034920838
0.15503092
0.22865769
0.26823059
0.28075741
0.27409053
0.25867166
0.22954406
0.19198742
0.14702883
0.097354447
0.049597307
0.01904601
0.0091866499
0.013258373
0.026287429
0.040010707
0.047973318
0.050470484
0.049689866
0.047113711
0.043219459
0.039480949
0.032044568
0.02609448
0.00024839658
-4.1397472
-5.6718249
-6.3423983
-5.4068294
-3.5780992
-2.0650211
-1.1528052
-0.69984741
-0.47609496
-0.34618869
-0.2745601
-0.23599872
-0.21606894
-0.20418388
-0.19063485
-0.17320649
-0.15190482
-0.12585641
-0.092702813
-0.045699254
0.0012344975
0.039203291
0.070238045
0.095474979
0.11605626