/*--------------------------------*- C++ -*----------------------------------*\
| =========                 |                                                 |
| \\      /  F ield         | OpenFOAM: The Open Source CFD Toolbox           |
|  \\    /   O peration     | Version:  v2012                                 |
|   \\  /    A nd           | Website:  www.openfoam.com                      |
|    \\/     M anipulation  |                                                 |
\*---------------------------------------------------------------------------*/
FoamFile
{
    version     2.0;
    format      ascii;
    class       surfaceScalarField;
    location    "47.212973535978783";
    object      phi;
}
// * * * * * * * * * * * * * * * * * * * * * * * * * * * * * * * * * * * * * //

dimensions      [0 3 -1 0 0 0 0];
oriented        oriented;


internalField   nonuniform List<scalar> 
18180
(
-0.0023201413
-3.5999878
-0.0048985149
-3.3674003
-0.0021644824
-3.6383144
-0.0078936864
-3.150092
-0.0046169855
-3.4019726
-0.0015711631
-3.674494
-0.011596843
-2.9468833
-0.0075321925
-3.1806359
-0.0034061269
-3.4344697
-0.00084251738
-3.7085081
-0.016224922
-2.7569814
-0.011219392
-2.9732861
-0.0056583349
-3.2092134
-0.0019254965
-3.4656546
-2.7319421e-05
-3.7415697
-0.022010699
-2.579836
-0.01589416
-2.7799133
-0.0085745472
-2.998405
-0.003351579
-3.2374701
-0.00025626384
-3.4963297
0.00074677667
-3.7733795
-0.029214286
-2.4145536
-0.021803818
-2.5996099
-0.012326722
-2.8018457
-0.0053040709
-3.0236311
-0.00072736225
-3.265912
0.0013800073
-3.5264051
0.0014131936
-3.8044338
-0.038111089
-2.2601863
-0.029185349
-2.4311685
-0.017098714
-2.618655
-0.0079190677
-2.8241891
-0.0015635241
-3.0496864
0.0018562964
-3.294341
0.0028495008
-3.5559073
0.0019602306
-3.8341564
-0.049025256
-2.1158828
-0.038289133
-2.2736445
-0.023040198
-2.4476508
-0.011313842
-2.6384024
-0.0028746538
-2.8478495
0.0021329141
-3.0764828
0.004197445
-3.32245
0.0040365159
-3.5842922
0.0023493229
-3.8627193
-0.06232094
-1.9808458
-0.049374822
-2.126036
-0.030280483
-2.2876238
-0.015568768
-2.4651113
-0.0047244779
-2.6598191
0.0021110929
-2.8728136
0.0055013097
-3.1032978
0.0061203162
-3.3496773
0.0048787205
-3.611568
0.0025567298
-3.8897065
-0.078420394
-1.8543351
-0.062719838
-1.9874932
-0.038912045
-2.1375064
-0.020711928
-2.3030144
-0.0071542214
-2.4843597
0.0017585169
-2.682804
0.0066898604
-2.898241
0.0083244109
-3.1295924
0.0075366191
-3.3759228
0.0053538978
-3.6375427
0.0025817813
-3.9153592
-0.097798062
-1.7356504
-0.078622385
-1.8572323
-0.048988431
-1.9964238
-0.026705842
-2.1509901
-0.010144846
-2.3203806
0.0010241345
-2.5055024
0.0077225953
-2.7067737
0.010596586
-2.9234951
0.010488222
-3.1551043
0.0084114263
-3.4011182
0.0054671637
-3.6622212
0.0024412218
-3.9392121
-0.12097611
-1.6241382
-0.097405885
-1.7345244
-0.06051629
-1.8636271
-0.033433087
-2.0081834
-0.013599083
-2.1667782
-6.3896016e-05
-2.3398096
0.0085358064
-2.5278182
0.012891719
-2.7308182
0.013703476
-2.9482866
0.011940256
-3.1798469
0.0087450224
-3.4251291
0.0052414344
-3.685276
0.0021571268
-3.9614635
-0.14850531
-1.5191942
-0.11941816
-1.6186838
-0.073449382
-1.7384463
-0.04068638
-1.8738906
-0.017333258
-2.0226425
-0.0014579047
-2.1846173
0.0090805116
-2.3604341
0.015114607
-2.550446
0.017144924
-2.7547278
0.015945496
-2.9725957
0.012668692
-3.2036025
0.0085599358
-3.4477539
0.0047105792
-3.7067478
0.0017476425
-3.9818359
-0.1809736
-1.4203724
-0.145041
-1.5090718
-0.087680998
-1.6202663
-0.048158569
-1.7475436
-0.021063121
-1.8873612
-0.0030167687
-2.0391868
0.0093379891
-2.2037102
0.017151753
-2.3815669
0.020697419
-2.5733212
0.020415053
-2.7786263
0.017293149
-2.9962655
0.012686565
-3.2262249
0.0078940357
-3.4689202
0.0039150462
-3.726542
0.0012326468
-4.0005543
-0.21893339
-1.3272241
-0.17476174
-1.4051362
-0.10304166
-1.5085174
-0.055438601
-1.6286402
-0.024395794
-1.7604519
-0.0045209626
-1.9029188
0.0093188131
-2.0569183
0.018875299
-2.2233827
0.024198685
-2.4033053
0.025238928
-2.5966628
0.022649796
-2.8022602
0.017735412
-3.0190876
0.012024618
-3.2475662
0.0067958252
-3.4885963
0.0029002556
-3.7446724
0.00060745825
-4.0173241
-0.26247981
-1.2380939
-0.2091174
-1.3063826
-0.11933338
-1.4026864
-0.062010598
-1.5167256
-0.026833364
-1.64152
-0.0056631063
-1.7753808
0.0090792377
-1.919455
0.020149335
-2.0751214
0.027434063
-2.243736
0.030240651
-2.425828
0.02866452
-2.620213
0.023797142
-2.8254529
0.017277306
-3.0409203
0.010729618
-3.267588
0.0053231402
-3.5066439
0.0017085255
-3.761032
-7.9835066e-05
-4.0323714
-0.31100032
-1.1501536
-0.24801274
-1.2117896
-0.13630724
-1.3023356
-0.06726525
-1.411386
-0.02777979
-1.5302133
-0.0060502819
-1.6562487
0.0087237971
-1.7908953
0.02083777
-1.9361553
0.030143882
-2.0939178
0.035163257
-2.2652298
0.035187193
-2.4491234
0.030860758
-2.6437314
0.023811794
-2.8479674
0.015944661
-3.0616101
0.0088655275
-3.2860662
0.0035445208
-3.5229893
0.00038901481
-3.7756936
-0.00074117982
-4.0456247
-0.36339979
-1.062455
-0.29036352
-1.1195199
-0.1531835
-1.2069774
-0.070533213
-1.3122475
-0.02655873
-1.4262059
-0.0052087084
-1.545248
0.0084044993
-1.6709325
0.020809194
-1.8060437
0.032029895
-1.9532083
0.03967704
-2.1140236
0.041971177
-2.2878798
0.038840423
-2.4727867
0.031699609
-2.6669535
0.022671724
-2.8695932
0.01379111
-3.0808846
0.0065154163
-3.302906
0.0015385245
-3.5375902
-0.0010041632
-3.7886242
-0.0014286735
-4.0572936
-0.41723729
-0.9772453
-0.33501016
-1.0287026
-0.16818133
-1.1157757
-0.070922168
-1.219046
-0.022464579
-1.3291541
-0.0026021463
-1.4421142
0.0083171188
-1.5593287
0.019940558
-1.6844538
0.032763477
-1.8210748
0.043386098
-1.9715268
0.048680914
-2.1356401
0.047549468
-2.3114289
0.04094895
-2.4966467
0.031074008
-2.6896492
0.020394995
-2.8900069
0.010903711
-3.0985775
0.0037799343
-3.3179879
-0.00061336861
-3.5505041
-0.0024299455
-3.7998853
-0.0020965769
-4.0672874
-0.46885701
-0.89600602
-0.3809588
-0.94142014
-0.17918951
-1.0281926
-0.067126589
-1.131353
-0.014781964
-1.2388029
0.00233483
-1.346535
0.00868993
-1.4558486
0.018115051
-1.5711446
0.031994863
-1.6971741
0.04583945
-1.8372507
0.0548963
-1.991754
0.056704516
-2.1587867
0.051472698
-2.3358386
0.041271897
-2.5205547
0.028930065
-2.7114805
0.017052626
-2.9089679
0.007403457
-3.114529
0.0007745915
-3.3313152
-0.0028308398
-3.5616883
-0.0038215832
-3.8095111
-0.0027292735
-4.0758443
-0.51465683
-0.81842011
-0.4261517
-0.86021885
-0.18561274
-0.94479469
-0.057515996
-1.0489502
-0.0026506583
-1.1548675
0.010000048
-1.2580917
0.0098338106
-1.360264
0.015221841
-1.4658825
0.029360629
-1.5812304
0.046546442
-1.7107881
0.060127284
-1.8556849
0.065925412
-2.0141818
0.06308717
-2.1835995
0.053306546
-2.3609969
0.039634465
-2.5440233
0.025291566
-2.7320528
0.012774051
-2.9262009
0.0034403854
-3.1286131
-0.0023754127
-3.3427903
-0.0050341295
-3.5712066
-0.0051450638
-3.8176057
-0.003312115
-4.08296
-0.55351485
-0.74632178
-0.46728552
-0.78602645
-0.18799087
-0.86699248
-0.041207982
-0.97165186
0.014675146
-1.077015
0.021256333
-1.1769727
0.012069329
-1.2721683
0.011186304
-1.3684745
0.024495258
-1.4730021
0.044993696
-1.5918199
0.063835188
-1.7269671
0.074750201
-1.8769882
0.075503744
-2.0390591
0.067132222
-2.2099183
0.052694241
-2.3863234
0.035968316
-2.5665676
0.020273941
-2.750974
0.0077434354
-2.9414704
-0.00080368673
-3.1407072
-0.0055555551
-3.3524628
-0.0071499836
-3.5791017
-0.0063667445
-3.8243015
-0.0038318483
-4.0888532
-0.58504786
-0.68042885
-0.50259963
-0.71913145
-0.18674362
-0.79583114
-0.018667846
-0.89951642
0.037797065
-1.0049126
0.036506687
-1.1023858
0.015449532
-1.1914835
0.0061076895
-1.2786866
0.01699485
-1.3722544
0.040662218
-1.4800864
0.065458097
-1.6052421
0.082657199
-1.7466855
0.088335922
-1.9015675
0.082595295
-2.0664062
0.068229977
-2.2372381
0.049414612
-2.411163
0.03033687
-2.5876164
0.014084587
-2.7678782
0.0021902512
-2.9545623
-0.0051718118
-3.1508074
-0.0086425748
-3.3603784
-0.0091167295
-3.5855495
-0.0074602323
-3.8296965
-0.0042799404
-4.0935433
-0.60947531
-0.62110793
-0.53098469
-0.65959693
-0.1821605
-0.73172385
0.0090053025
-0.83294896
0.066929569
-0.93822362
0.056203359
-1.0340472
0.020345952
-1.1177346
-0.00049565731
-1.1958549
0.0064619694
-1.2787598
0.033029285
-1.3753435
0.064438556
-1.4902332
0.089096858
-1.6228849
0.10111432
-1.7705563
0.099427131
-1.9296218
0.086263989
-2.0956409
0.065933496
-2.2646417
0.043423042
-2.434781
0.022945907
-2.60665
0.0070093671
-2.7824342
-0.0036257401
-2.9654383
-0.0094737415
-3.1589607
-0.011536507
-3.3666931
-0.01088663
-3.5906109
-0.0084080677
-3.8339185
-0.0046539632
-4.0972342
-0.62755631
-0.56844538
-0.55230331
-0.6068147
-0.17477099
-0.67448921
0.040547871
-0.7721957
0.10150619
-0.876568
0.080736358
-0.97155639
0.027010234
-1.0505149
-0.0086394533
-1.1199692
-0.0073429162
-1.1920118
0.021546153
-1.2773331
0.060254236
-1.3817243
0.093530515
-1.5053011
0.11331598
-1.6455532
0.11724318
-1.7989063
0.10669744
-1.9606152
0.085760011
-2.1258041
0.060013649
-2.2912737
0.034877538
-2.4564668
0.014135076
-2.6231666
-0.00058096368
-2.7944839
-0.00946423
-2.9740695
-0.013548899
-3.1652628
-0.014158066
-3.3714868
-0.012426953
-3.5944587
-0.0092010148
-3.8370738
-0.0049540722
-4.0999818
-0.64019896
-0.52209188
-0.56728137
-0.56000542
-0.16544431
-0.62317648
0.074378074
-0.71675537
0.1402805
-0.81950759
0.10991282
-0.91395231
0.03568907
-0.98942095
-0.01838788
-1.0505726
-0.024833941
-1.1118265
0.0058823419
-1.1857681
0.052435946
-1.2795066
0.095473063
-1.3937622
0.12440433
-1.526274
0.13555572
-1.6737677
0.12928409
-1.8314272
0.10902567
-1.9936473
0.080574695
-2.155924
0.050506
-2.3162536
0.024142519
-2.4755187
0.0043581819
-2.6368105
-0.0083658722
-2.8039063
-0.015065939
-2.9805244
-0.017269502
-3.1698323
-0.016450437
-3.3749424
-0.013719407
-3.5971901
-0.0098372432
-3.8393298
-0.0051820449
-4.1019559
-0.64849112
-0.48130535
-0.57699569
-0.51846488
-0.15511217
-0.57694084
0.10858442
-0.66534625
0.1811359
-0.76566786
0.14220279
-0.85945902
0.046168097
-0.93303041
-0.029945648
-0.98712121
-0.046354406
-1.0378214
-0.014435009
-1.100324
0.040603874
-1.1833807
0.094538669
-1.2881534
0.13388132
-1.4125689
0.15380249
-1.5538368
0.15361841
-1.7074547
0.13570762
-1.8673226
0.1055219
-2.0276881
0.070511009
-2.184884
0.037742268
-2.3385333
0.011772802
-2.4913323
-0.005844747
-2.6473958
-0.015947383
-2.8107272
-0.020225346
-2.9849303
-0.020540259
-3.1728577
-0.018379969
-3.377203
-0.014758702
-3.5990017
-0.010321019
-3.840771
-0.0053419683
-4.1032091
-0.65350883
-0.44544578
-0.58243139
-0.4815416
-0.14462365
-0.53515828
0.1419014
-0.61776832
0.22157661
-0.71338457
0.17578974
-0.80641437
0.057650951
-0.87898729
-0.043737536
-0.9279682
-0.072238324
-0.96946238
-0.039799126
-1.0207008
0.024454804
-1.0930965
0.090453899
-1.188382
0.14133544
-1.3044024
0.17138741
-1.438919
0.17913623
-1.5881738
0.16559129
-1.7460203
0.13515739
-1.9055315
0.095609428
-2.0613099
0.055762282
-2.2112429
0.022357054
-2.3572077
-0.0014778721
-2.5035061
-0.015995162
-2.6548225
-0.022998525
-2.8150724
-0.024786746
-2.9875057
-0.023301772
-3.1745386
-0.019934291
-3.3784544
-0.01555039
-3.5999695
-0.010661215
-3.841535
-0.0054395452
-4.103881
-0.65625733
-0.41387726
-0.58453921
-0.44863021
-0.13457194
-0.49742838
0.17359451
-0.57392879
0.26058475
-0.66393431
0.20965809
-0.75395083
0.070600953
-0.8268867
-0.059520185
-0.87142358
-0.10285036
-0.90507165
-0.07052603
-0.94643771
0.0037124829
-1.0083785
0.08308565
-1.0943365
0.14646667
-1.2017886
0.18770446
-1.3289576
0.20509988
-1.4732093
0.19821418
-1.6289826
0.1696141
-1.7885283
0.12649582
-1.9445083
0.07916974
-2.0927209
0.036965686
-2.2336165
0.0052789621
-2.3714962
-0.014932596
-2.5118252
-0.025540185
-2.6591954
-0.029270838
-2.8171848
-0.028648586
-2.9884777
-0.025528634
-3.1750553
-0.021119206
-3.3788184
-0.016108311
-3.6002554
-0.010869956
-3.8416995
-0.0054813932
-4.1040353
-0.65777305
-0.4572925
-0.58446734
-0.41889201
-0.12548419
-0.46320795
0.20274466
-0.53324091
0.29735993
-0.61743871
0.2428642
-0.70341202
0.084827486
-0.7752053
-0.075438825
-0.81869215
-0.13826208
-0.84324735
-0.10650835
-0.87628046
-0.021743143
-0.92892304
0.072446852
-1.0058849
0.14914149
-1.1047809
0.20220552
-1.224022
0.23061249
-1.3623315
0.23277477
-1.5154982
0.20871482
-1.6756473
0.16378287
-1.8334207
0.10903166
-1.9819487
0.056683342
-2.1198435
0.015239462
-2.2508092
-0.01236113
-2.381096
-0.027764107
-2.5163303
-0.034087625
-2.6607885
-0.03459459
-2.8173373
-0.031762756
-2.9880745
-0.027224827
-3.1745917
-0.021954309
-3.3784513
-0.016452174
-3.5999448
-0.010961413
-3.841407
-0.0054745436
-4.1037889
-0.65642292
-0.45905623
-0.58570427
-0.46145333
-0.11757041
-0.4319755
0.22861074
-0.49533657
0.33087823
-0.57308692
0.27453134
-0.65498091
0.097550333
-0.72269749
-0.090607631
-0.76728355
-0.1780012
-0.78573824
-0.14751159
-0.80895173
-0.051403627
-0.85410038
0.058699644
-0.92287435
0.14945496
-1.013475
0.21455553
-1.1243727
0.25483054
-1.2556588
0.26827552
-1.4051313
0.25192142
-1.5658011
0.20783099
-1.7267917
0.14645735
-1.8779431
0.08280553
-2.0150682
0.029397947
-2.1408959
-0.0077646022
-2.2621785
-0.029530881
-2.385875
-0.039338981
-2.517331
-0.041358061
-2.6599479
-0.038882807
-2.815831
-0.034127998
-2.9865361
-0.028416921
-3.1733125
-0.022469201
-3.3774796
-0.016605352
-3.5991828
-0.010950634
-3.8407277
-0.0054260926
-4.1031958
-0.65207151
-0.46264428
-0.58410247
-0.46604856
-0.11965423
-0.46501545
0.25107903
-0.46032132
0.36089622
-0.53129177
0.30381231
-0.60787547
0.10697725
-0.67053494
-0.1074799
-0.71261499
-0.2198219
-0.73182629
-0.19373465
-0.74576586
-0.084373047
-0.78302262
0.042429315
-0.84509906
0.14773939
-0.92795442
0.22471743
-1.0304037
0.27717994
-1.1537202
0.30386552
-1.2981407
0.29873168
-1.4586029
0.25901672
-1.6236193
0.19263957
-1.7795959
0.11682806
-1.9185145
0.048973129
-2.0411875
-0.00054088059
-2.1546511
-0.0306389
-2.2674373
-0.045135217
-2.386191
-0.049202295
-2.5152735
-0.047200272
-2.6570791
-0.042123114
-2.812989
-0.035779571
-2.9840875
-0.029147833
-3.1713985
-0.022699522
-3.3760284
-0.016592858
-3.5980466
-0.010852799
-3.8397703
-0.0053428851
-4.1023314
-0.6452116
-0.46758983
-0.58002858
-0.47210057
-0.1218294
-0.4695758
0.26170166
-0.48197731
0.38725981
-0.49224463
0.32998417
-0.56263279
0.11408061
-0.62070009
-0.12674691
-0.65762286
-0.2611529
-0.67725084
-0.24337856
-0.68799979
-0.12063048
-0.71612885
0.024738346
-0.77219135
0.14455151
-0.84824304
0.23290701
-0.94245118
0.29727703
-1.0570986
0.33869712
-1.1950596
0.34856713
-1.3542245
0.31791252
-1.5237053
0.2494746
-1.6866399
0.16101875
-1.8298888
0.07564508
-1.9513635
0.010234912
-2.0582479
-0.030774081
-2.1607098
-0.051601806
-2.2669585
-0.058454148
-2.3826244
-0.057099031
-2.5107055
-0.051581457
-2.6526152
-0.044361854
-2.8091183
-0.036779038
-2.9809507
-0.029470355
-3.1689736
-0.022683822
-3.3742014
-0.016439947
-3.596649
-0.010682524
-3.8385676
-0.0052313392
-4.1012398
-0.63662187
-0.4738785
-0.57427572
-0.47871909
-0.12492609
-0.4747633
0.26979359
-0.48405291
0.40518193
-0.50583819
0.3524723
-0.51958737
0.11882457
-0.57272007
-0.14731872
-0.60606936
-0.3007884
-0.6235797
-0.29179576
-0.63424097
-0.15992549
-0.65492682
0.0061089361
-0.70396903
0.14075206
-0.77427855
0.2395108
-0.86071112
0.31481502
-0.96620659
0.37151159
-1.0960563
0.39965661
-1.2520006
0.38342693
-1.42555
0.31793559
-1.597963
0.21849978
-1.7497967
0.11261234
-1.8725976
0.026172686
-1.9733077
-0.029631825
-2.0654743
-0.058907731
-2.1593111
-0.06952574
-2.261501
-0.069063926
-2.3759176
-0.062960705
-2.5042144
-0.054562778
-2.6469759
-0.045687404
-2.8045032
-0.037203878
-2.9772924
-0.029442037
-3.1661788
-0.022460966
-3.3721004
-0.016170939
-3.5950394
-0.010453487
-3.837209
-0.0050972892
-4.09996
-0.62715582
-0.48092742
-0.56751239
-0.4860141
-0.12901002
-0.48045103
0.27463607
-0.48603223
0.42062988
-0.50548264
0.37308543
-0.53162679
0.12150846
-0.52726518
-0.16840497
-0.55718021
-0.3392735
-0.5728223
-0.33729765
-0.5830948
-0.20055663
-0.59945169
-0.013980238
-0.64093689
0.13717453
-0.70585365
0.24504287
-0.7852488
0.32962436
-0.88137677
0.40082638
-1.0013214
0.44890533
-1.1507761
0.45128719
-1.3252974
0.39416224
-1.5072239
0.28781112
-1.6725669
0.16255292
-1.8050499
0.050582672
-1.902727
-0.025889279
-1.9830627
-0.067234062
-2.0630411
-0.08295793
-2.1514661
-0.083708585
-2.252081
-0.076836483
-2.3668733
-0.066869254
-2.4963743
-0.056272112
-2.6405383
-0.046213381
-2.7993721
-0.037139041
-2.9732887
-0.029120922
-3.1631161
-0.022068415
-3.3698122
-0.015808493
-3.5932999
-0.010178081
-3.8356976
-0.0049459616
-4.0985286
-0.61735088
-0.48820662
-0.56043378
-0.49337554
-0.13429831
-0.48659625
0.27604868
-0.48832743
0.43290757
-0.50432586
0.39212679
-0.52978354
0.13092774
-0.54630217
-0.18923263
-0.5116068
-0.37601805
-0.52533885
-0.38010465
-0.53466367
-0.24064563
-0.54848371
-0.035634979
-0.5835451
0.13395072
-0.64277178
0.25016026
-0.71600346
0.34175938
-0.80290041
0.42543164
-0.91145956
0.49323641
-1.0507592
0.51639068
-1.2209607
0.47080227
-1.4070624
0.36058477
-1.5849542
0.21881587
-1.7337532
0.083163906
-1.8429849
-0.017446507
-1.9170275
-0.0759639
-1.9802482
-0.099403384
-2.0522037
-0.101815
-2.1385849
-0.093929157
-2.2398053
-0.08188516
-2.3562787
-0.069012022
-2.4876918
-0.056876791
-2.6336139
-0.046064828
-2.7939494
-0.036670124
-2.9690709
-0.028562745
-3.1599049
-0.021540791
-3.367405
-0.015373085
-3.5914498
-0.0098673743
-3.8340997
-0.0047819065
-4.0969413
-0.60752278
-0.49532284
-0.55313354
-0.50087469
-0.14090825
-0.49268769
0.27355592
-0.49060097
0.44125498
-0.50271972
0.40851951
-0.52605392
0.14003236
-0.54420971
-0.19958398
-0.54132846
-0.41084875
-0.48135722
-0.4200793
-0.48967035
-0.27893427
-0.50150433
-0.057927592
-0.53160991
0.13074174
-0.58501661
0.25550067
-0.65276076
0.35152077
-0.73096028
0.44471858
-0.82736307
0.53039299
-0.95337438
0.57517585
-1.1142847
0.54394349
-1.2989259
0.43087669
-1.4820052
0.270341
-1.641037
0.11269387
-1.7682311
-0.0089151087
-1.857114
-0.084530375
-1.9143571
-0.11917211
-1.9661471
-0.12436301
-2.0349093
-0.11512105
-2.122224
-0.10035208
-2.2257563
-0.084488716
-2.3448203
-0.069637059
-2.4785869
-0.056561052
-2.6264841
-0.045367343
-2.788399
-0.035878829
-2.9647681
-0.027818705
-3.1566168
-0.02090928
-3.3649347
-0.014882847
-3.5895499
-0.0095309527
-3.832381
-0.0046090663
-4.0952311
-0.59782344
-0.50198629
-0.54545995
-0.50836327
-0.14866613
-0.49908647
0.26750238
-0.49316175
0.44526939
-0.50068371
0.42117109
-0.52077404
0.14819148
-0.539595
-0.20886677
-0.54035305
-0.43899124
-0.5179297
-0.45726641
-0.4481611
-0.31486249
-0.45853544
-0.079823738
-0.48471575
0.12742019
-0.53261852
0.26141881
-0.59522322
0.35946957
-0.66560167
0.45868906
-0.74982412
0.55911736
-0.86051201
0.62533902
-1.0079523
0.61192236
-1.1868076
0.50211357
-1.374531
0.32164829
-1.5375404
0.13306406
-1.6659782
-0.011689633
-1.77072
-0.099620313
-1.8477811
-0.14336322
-1.895847
-0.15262438
-1.9431613
-0.14153945
-2.0133368
-0.12314226
-2.103869
-0.1033992
-2.2108635
-0.085017751
-2.3330603
-0.069016455
-2.4694161
-0.055508843
-2.6193562
-0.044239853
-2.7828664
-0.034839614
-2.9604668
-0.026934502
-3.1533294
-0.020201186
-3.3624519
-0.014353439
-3.5875897
-0.0091770827
-3.8305989
-0.0044307535
-4.0933854
-0.50788959
-0.58817796
-0.53720436
-0.51560817
-0.15726049
-0.50578144
0.25784638
-0.49598475
0.4448463
-0.49882519
0.42931705
-0.51429018
0.15458549
-0.53260194
-0.21727432
-0.53664939
-0.46499056
-0.51915667
-0.49632685
-0.48296346
-0.34822657
-0.41927486
-0.10071421
-0.44245306
0.12415098
-0.48545489
0.26795305
-0.54310298
0.36630717
-0.60666642
0.46782787
-0.67937027
0.57906596
-0.77388227
0.6651772
-0.90445453
0.67266235
-1.0729749
0.57463627
-1.263438
0.38445888
-1.4412621
0.16061239
-1.5693082
-0.022905164
-1.6596651
-0.13038698
-1.7454339
-0.17700742
-1.8197007
-0.1884535
-1.8652659
-0.17503164
-1.9145026
-0.15134775
-1.9895745
-0.12653267
-2.0847723
-0.10362727
-2.1958763
-0.083875133
-2.3214508
-0.067419221
-2.4604409
-0.053892456
-2.6123974
-0.042789595
-2.7774425
-0.033618225
-2.9562494
-0.025949792
-3.1501098
-0.019439961
-3.3599965
-0.013798188
-3.5856165
-0.0088126575
-3.8287008
-0.0042497559
-4.0914396
-0.52245945
-0.52800041
-0.51304585
-0.57825179
-0.16637758
-0.51254094
0.24458857
-0.49910124
0.43987248
-0.49711051
0.43191782
-0.50693418
0.15847385
-0.52365578
-0.22479391
-0.53057299
-0.48847158
-0.5180154
-0.53229089
-0.48735021
-0.39567887
-0.44009434
-0.11981007
-0.40468709
0.12114297
-0.44316319
0.27500952
-0.49614886
0.37265425
-0.55378407
0.47291434
-0.61613498
0.59064729
-0.69476585
0.69359965
-0.80611439
0.72275731
-0.95858799
0.6444876
-1.1466939
0.45557117
-1.3381826
0.20846662
-1.4930118
-0.022377449
-1.5743892
-0.16849724
-1.6266965
-0.22507326
-1.7027042
-0.23355825
-1.7797548
-0.21752346
-1.8275826
-0.18693285
-1.8833537
-0.15481249
-1.9653444
-0.12613018
-2.0659123
-0.10163278
-2.1813667
-0.081453605
-2.3103172
-0.065093883
-2.4518541
-0.051865258
-2.6057091
-0.041110035
-2.7722197
-0.032270973
-2.9521993
-0.024898138
-3.147019
-0.018645242
-3.3575951
-0.013228178
-3.5835896
-0.0084434611
-3.826738
-0.0040683347
-4.0893771
-0.51921528
-0.17570292
-0.52900133
-0.5174104
-0.51691292
-0.56806132
0.22792274
-0.50247277
0.43021361
-0.49555011
0.42850654
-0.49924537
0.15923675
-0.51320933
-0.2314514
-0.52251206
-0.50878673
-0.5151409
-0.5646071
-0.48990949
-0.4414794
-0.44622143
-0.16170805
-0.40278478
0.11900919
-0.40600442
0.28241685
-0.45392393
0.3789465
-0.50651565
0.47485413
-0.55987404
0.59472052
-0.62374711
0.71002837
-0.7147261
0.75888072
-0.84604876
0.70401767
-1.0217665
0.52714762
-1.2216346
0.26488582
-1.3981957
-0.0042001907
-1.5154235
-0.19736805
-1.550328
-0.28144455
-1.575374
-0.28876474
-1.6524899
-0.26763393
-1.7343805
-0.23183878
-1.78707
-0.1899584
-1.8522409
-0.15322583
-1.9419067
-0.12280996
-2.0480027
-0.097987034
-2.167733
-0.07810967
-2.2998807
-0.062258172
-2.443769
-0.049558804
-2.5993838
-0.039279959
-2.7672624
-0.03084484
-2.9483665
-0.02380733
-3.1440842
-0.01783326
-3.3552528
-0.012652534
-3.5815459
-0.0080741426
-3.8246767
-0.0038883436
-4.08724
-0.50603507
0.20812832
-0.52572711
-0.18508394
-0.53453105
-0.50515698
-0.51976575
-0.55754847
0.41586118
-0.49423088
0.41910494
-0.49172208
0.15626973
-0.5018178
-0.23718323
-0.51300862
-0.52532465
-0.51088606
-0.59234315
-0.4916564
-0.48477809
-0.45136184
-0.20381056
-0.40880051
0.094026816
-0.38127178
0.2902799
-0.41696906
0.38539045
-0.46419004
0.47454912
-0.51013995
0.59238198
-0.56082032
0.71482148
-0.63181272
0.77940772
-0.73885279
0.74708919
-0.89256797
0.58725184
-1.0849867
0.3175879
-1.2776506
0.021264525
-1.4276035
-0.22133564
-1.4959567
-0.34044931
-1.496064
-0.35578179
-1.5131001
-0.32322335
-1.601498
-0.2828629
-1.6876829
-0.2339868
-1.7470297
-0.18617362
-1.8229425
-0.14788962
-1.9201129
-0.11739181
-2.0315173
-0.093198169
-2.155221
-0.074149687
-2.2902614
-0.059095396
-2.4362727
-0.047081994
-2.5934686
-0.037364023
-2.7626156
-0.029378072
-2.944786
-0.022699922
-3.1413251
-0.017017089
-3.3529755
-0.012078588
-3.5794655
-0.0077084861
-3.8225767
-0.0037112261
-4.0850209
-0.49326776
0.39698653
-0.50945307
0.18522614
-0.53189815
-0.19384361
-0.53908495
-0.49120088
-0.52183684
-0.5466789
0.40402793
-0.48474332
0.14926137
-0.4902722
-0.24186787
-0.50267528
-0.53738911
-0.50587823
-0.61466
-0.49285103
-0.52445705
-0.45678933
-0.24551367
-0.41441145
0.069051163
-0.38735469
0.27997398
-0.37407705
0.39200815
-0.42716975
0.47288158
-0.46623686
0.58486268
-0.5056738
0.70932238
-0.55835127
0.78493938
-0.64074612
0.77125375
-0.76628057
0.62958096
-0.93778288
0.35377338
-1.1242246
0.032198926
-1.292262
-0.24633686
-1.4068231
-0.40527447
-1.4355717
-0.43613961
-1.4201744
-0.39070502
-1.4500467
-0.33443919
-1.5541709
-0.28343363
-1.6421726
-0.22691718
-1.709907
-0.17762091
-1.7965019
-0.1399679
-1.9004806
-0.1105904
-2.0167216
-0.087692859
-2.1439478
-0.069825967
-2.281533
-0.055754117
-2.4293963
-0.04452236
-2.5879953
-0.03541376
-2.7583043
-0.027901093
-2.9414715
-0.021593816
-3.1387454
-0.016207156
-3.3507731
-0.011512159
-3.577388
-0.0073493987
-3.820403
-0.0035381262
-4.0827572
-0.47870692
0.38387388
-0.49222545
0.37365898
-0.51342286
0.16011118
-0.53737077
-0.20169748
-0.54265224
-0.47574613
-0.52315241
-0.53557698
0.1383779
-0.47942906
-0.24540151
-0.49228667
-0.54425922
-0.50075469
-0.63110413
-0.493736
-0.55887691
-0.46328617
-0.28581178
-0.4213027
0.044108785
-0.39304958
0.27198783
-0.38256654
0.38374818
-0.36941511
0.47033644
-0.42811973
0.57361622
-0.45783817
0.69528305
-0.49444153
0.77731397
-0.55393963
0.77666758
-0.64925117
0.65207902
-0.79145122
0.3715148
-0.95833547
0.029413045
-1.1248731
-0.28273371
-1.2598306
-0.47744708
-1.3388096
-0.52646484
-1.3494389
-0.47673356
-1.3383521
-0.39360688
-1.3949916
-0.32970794
-1.5117641
-0.27302134
-1.5996468
-0.21357472
-1.6772385
-0.1660409
-1.7734003
-0.13043525
-1.883265
-0.10299327
-2.0037147
-0.081813397
-2.133959
-0.065338111
-2.2737027
-0.05235087
-2.4231504
-0.041947967
-2.5829728
-0.033469193
-2.7543438
-0.026437497
-2.9384366
-0.020502905
-3.1363602
-0.01541148
-3.3486384
-0.01095771
-3.5752825
-0.0069991731
-3.818203
-0.0033698844
-4.0804358
-0.47023674
0.12433528
-0.47361829
0.35968104
-0.49246021
0.34660739
-0.51724451
0.13333655
-0.54195761
-0.20853663
-0.5450707
-0.45918519
-0.52376533
-0.52441291
-0.24771389
-0.4826676
-0.5454589
-0.49604611
-0.64149494
-0.49467754
-0.58707881
-0.47041427
-0.32397852
-0.42997633
0.018977457
-0.39980064
0.26539917
-0.38973928
0.37979123
-0.38232463
0.45163477
-0.35420072
0.55964988
-0.41681399
0.67512943
-0.44029094
0.75898724
-0.47914915
0.76611047
-0.54631589
0.6553212
-0.65497052
0.37234917
-0.79487397
0.015290512
-0.94742443
-0.32315164
-1.0881893
-0.54644735
-1.194725
-0.61971962
-1.2494705
-0.57407815
-1.2560457
-0.47185115
-1.264031
-0.37673053
-1.3517407
-0.31463147
-1.4736859
-0.25482684
-1.5616665
-0.1965714
-1.6497018
-0.15277678
-1.7537251
-0.12007238
-1.8685184
-0.095059044
-1.9924926
-0.075822848
-2.1252251
-0.060838253
-2.2667507
-0.04897363
-2.4175132
-0.039410176
-2.5784037
-0.031560436
-2.7507341
-0.025005076
-2.9356806
-0.019437644
-3.1341347
-0.014636172
-3.3465646
-0.010418628
-3.5731776
-0.0066594729
-3.8159575
-0.0032071341
-4.078093
-0.47470797
-0.24879381
-0.46390333
0.1090506
-0.47058315
0.33223779
-0.4930542
0.31634358
-0.52080016
0.10552513
-0.54552509
-0.21422421
-0.54623748
-0.4420668
-0.52374892
-0.51331054
-0.54099757
-0.49209245
-0.64575765
-0.49610005
-0.60810293
-0.47854051
-0.35925484
-0.44002639
-0.0062158788
-0.40845709
0.25914233
-0.3968915
0.37959338
-0.39336334
0.43798892
-0.37227269
0.52561508
-0.32279929
0.65056431
-0.39467746
0.7328543
-0.41701714
0.7431481
-0.45897144
0.64109139
-0.53438601
0.35974294
-0.64474924
-0.0073101869
-0.77527987
-0.36468321
-0.90941538
-0.61108785
-1.027196
-0.70451653
-1.1135773
-0.67057373
-1.1566771
-0.56305369
-1.1685605
-0.4393329
-1.2050676
-0.35024232
-1.3196204
-0.29261348
-1.4391788
-0.2317449
-1.5295068
-0.1779534
-1.6272326
-0.13881285
-1.737369
-0.10947848
-1.8561676
-0.087128122
-1.982967
-0.069915081
-2.1176797
-0.056437344
-2.2606166
-0.045686493
-2.4124656
-0.036946201
-2.5742711
-0.029709411
-2.7474655
-0.023616761
-2.9331649
-0.018405716
-3.1320646
-0.013885629
-3.3445327
-0.0098973647
-3.5710637
-0.0063315388
-3.8137138
-0.003050296
-4.0757152
-0.48911135
-0.53155627
-0.4702992
-0.24794958
-0.45961572
0.092522016
-0.46865005
0.30230024
-0.49392846
0.28341779
-0.52395439
0.07729834
-0.54793449
-0.21865953
-0.54607142
-0.42509213
-0.52319539
-0.50236657
-0.64377947
-0.49838217
-0.62128015
-0.48780061
-0.39016895
-0.45253201
-0.030778011
-0.41917924
0.25248237
-0.40520429
0.38237832
-0.40358549
0.42942863
-0.3884837
0.49585785
-0.34523092
0.6048669
-0.27950123
0.70062642
-0.3651377
0.71114544
-0.38765613
0.6129189
-0.43294047
0.33705102
-0.51389103
-0.035482289
-0.61939483
-0.40449504
-0.73879744
-0.66850486
-0.85541599
-0.77788088
-0.95722499
-0.75688791
-1.0307264
-0.65323972
-1.0700017
-0.51604382
-1.0953182
-0.39445196
-1.1642672
-0.32025196
-1.2952627
-0.26562104
-1.4083456
-0.20645375
-1.5037701
-0.1591123
-1.6093872
-0.12486002
-1.7241192
-0.099087191
-1.8460411
-0.079440654
-1.9750041
-0.064225726
-2.1112163
-0.052212629
-2.255248
-0.042533684
-2.4079652
-0.034581854
-2.5705515
-0.027931257
-2.744491
-0.022281592
-2.9308756
-0.017412402
-3.1300916
-0.01316301
-3.3425498
-0.0093956452
-3.5689693
-0.0060161521
-3.8114412
-0.0028995896
-4.0733348
-0.50157361
-0.63561609
-0.48940422
-0.51740874
-0.4666664
-0.24645186
-0.45646427
0.074790837
-0.46737275
0.2702557
-0.49482787
0.24825954
-0.52658111
0.049290174
-0.54903095
-0.22181545
-0.54452813
-0.40909952
-0.52202655
-0.49176499
-0.62600098
-0.49851543
-0.41455173
-0.46832605
-0.054716024
-0.43234457
0.24583897
-0.41599255
0.38678638
-0.41358937
0.42543253
-0.4033465
0.47093964
-0.36635323
0.56082286
-0.30368255
0.65311593
-0.2346376
0.672038
-0.32852327
0.57522103
-0.35196382
0.30657626
-0.40449565
-0.066433873
-0.48558587
-0.44052415
-0.58651489
-0.71564551
-0.69486104
-0.83741631
-0.79903094
-0.82696576
-0.89038249
-0.73305984
-0.95422462
-0.59308563
-0.99624995
-0.45271734
-1.040312
-0.34775582
-1.1399951
-0.28903915
-1.2749323
-0.23537799
-1.382258
-0.18116897
-1.4842516
-0.14088149
-1.5955874
-0.11142517
-1.7136944
-0.089190294
-1.8379148
-0.072155782
-1.9684345
-0.058843863
-2.1057351
-0.048214087
-2.2505692
-0.039543863
-2.4039706
-0.032333693
-2.5671883
-0.026235821
-2.7417915
-0.021005348
-2.9287413
-0.016461281
-3.1282255
-0.01247035
-3.3406024
-0.0089145491
-3.566871
-0.0057136557
-3.8091786
-0.0027548803
-4.0709335
-0.51029627
-0.62209618
-0.50831339
-0.62098734
-0.48903159
-0.49999356
-0.46431638
-0.24415263
-0.45416833
0.056064452
-0.46655713
0.2365534
-0.49581964
0.21149037
-0.52861403
0.02222086
-0.5486525
-0.22377879
-0.54189156
-0.39456527
-0.52008118
-0.481876
-0.43089673
-0.48706596
-0.076486811
-0.45033289
0.23900099
-0.42900386
0.39150254
-0.42473509
0.42530663
-0.41728598
0.45115029
-0.38641608
0.5194526
-0.32756901
0.60325029
-0.25656728
0.63263063
-0.19766593