/*--------------------------------*- C++ -*----------------------------------*\
| =========                 |                                                 |
| \\      /  F ield         | OpenFOAM: The Open Source CFD Toolbox           |
|  \\    /   O peration     | Version:  v2012                                 |
|   \\  /    A nd           | Website:  www.openfoam.com                      |
|    \\/     M anipulation  |                                                 |
\*---------------------------------------------------------------------------*/
FoamFile
{
    version     2.0;
    format      ascii;
    class       pointVectorField;
    location    "47.212973535978783";
    object      pointDisplacement;
}
// * * * * * * * * * * * * * * * * * * * * * * * * * * * * * * * * * * * * * //

dimensions      [0 1 0 0 0 0 0];


internalField   nonuniform List<vector> 
18840
(
(1.3564 0 0)
(1.3563762 0 0)
(1.3563051 0 0)
(1.3561875 0 0)
(1.3560239 0 0)
(1.3558139 0 0)
(1.355557 0 0)
(1.3552519 0 0)
(1.3548971 0 0)
(1.3544909 0 0)
(1.3540309 0 0)
(1.3535146 0 0)
(1.352939 0 0)
(1.3523009 0 0)
(1.3515967 0 0)
(1.3508226 0 0)
(1.3499746 0 0)
(1.3490484 0 0)
(1.3480391 0 0)
(1.3469418 0 0)
(1.345497 0 0)
(1.3564 0 0)
(1.3563756 0 0)
(1.3563028 0 0)
(1.3561826 0 0)
(1.3560152 0 0)
(1.3558005 0 0)
(1.3555379 0 0)
(1.3552263 0 0)
(1.3548642 0 0)
(1.3544499 0 0)
(1.3539812 0 0)
(1.3534555 0 0)
(1.3528699 0 0)
(1.3522213 0 0)
(1.3515061 0 0)
(1.3507207 0 0)
(1.3498609 0 0)
(1.3489226 0 0)
(1.3479012 0 0)
(1.3467916 0 0)
(1.345565 0 0)
(1.3564 0 0)
(1.356375 0 0)
(1.3563004 0 0)
(1.3561771 0 0)
(1.3560056 0 0)
(1.3557857 0 0)
(1.3555169 0 0)
(1.355198 0 0)
(1.3548276 0 0)
(1.3544041 0 0)
(1.3539252 0 0)
(1.3533885 0 0)
(1.3527909 0 0)
(1.3521293 0 0)
(1.3514001 0 0)
(1.3505996 0 0)
(1.3497236 0 0)
(1.348768 0 0)
(1.3477282 0 0)
(1.3465996 0 0)
(1.3453351 0 0)
(1.3564 0 0)
(1.3563744 0 0)
(1.3562979 0 0)
(1.3561716 0 0)
(1.3559958 0 0)
(1.3557706 0 0)
(1.3554952 0 0)
(1.3551687 0 0)
(1.3547897 0 0)
(1.3543565 0 0)
(1.3538667 0 0)
(1.353318 0 0)
(1.3527073 0 0)
(1.3520312 0 0)
(1.3512861 0 0)
(1.3504681 0 0)
(1.3495728 0 0)
(1.3485957 0 0)
(1.3475324 0 0)
(1.346378 0 0)
(1.3450696 0 0)
(1.3564 0 0)
(1.3563737 0 0)
(1.3562953 0 0)
(1.3561658 0 0)
(1.3559857 0 0)
(1.3557548 0 0)
(1.3554727 0 0)
(1.3551383 0 0)
(1.3547502 0 0)
(1.3543066 0 0)
(1.3538054 0 0)
(1.3532438 0 0)
(1.3526188 0 0)
(1.3519269 0 0)
(1.3511642 0 0)
(1.3503264 0 0)
(1.349409 0 0)
(1.3484072 0 0)
(1.3473161 0 0)
(1.3461306 0 0)
(1.3447742 0 0)
(1.3564 0 0)
(1.356373 0 0)
(1.3562926 0 0)
(1.3561599 0 0)
(1.3559751 0 0)
(1.3557384 0 0)
(1.3554492 0 0)
(1.3551065 0 0)
(1.3547088 0 0)
(1.3542544 0 0)
(1.3537409 0 0)
(1.3531656 0 0)
(1.3525253 0 0)
(1.3518162 0 0)
(1.3510343 0 0)
(1.350175 0 0)
(1.3492334 0 0)
(1.3482042 0 0)
(1.3470822 0 0)
(1.3458617 0 0)
(1.3444548 0 0)
(1.3564 0 0)
(1.3563723 0 0)
(1.3562899 0 0)
(1.3561536 0 0)
(1.3559641 0 0)
(1.3557213 0 0)
(1.3554246 0 0)
(1.3550731 0 0)
(1.3546654 0 0)
(1.3541994 0 0)
(1.3536729 0 0)
(1.353083 0 0)
(1.3524263 0 0)
(1.3516988 0 0)
(1.3508964 0 0)
(1.3500139 0 0)
(1.3490463 0 0)
(1.3479877 0 0)
(1.3468324 0 0)
(1.3455743 0 0)
(1.3441156 0 0)
(1.3564 0 0)
(1.3563716 0 0)
(1.3562869 0 0)
(1.356147 0 0)
(1.3559524 0 0)
(1.3557031 0 0)
(1.3553986 0 0)
(1.3550378 0 0)
(1.3546193 0 0)
(1.3541411 0 0)
(1.3536007 0 0)
(1.352995 0 0)
(1.3523207 0 0)
(1.3515736 0 0)
(1.350749 0 0)
(1.3498419 0 0)
(1.3488465 0 0)
(1.3477568 0 0)
(1.3465663 0 0)
(1.3452686 0 0)
(1.3437581 0 0)
(1.3564 0 0)
(1.3563708 0 0)
(1.3562838 0 0)
(1.35614 0 0)
(1.35594 0 0)
(1.3556838 0 0)
(1.3553708 0 0)
(1.3550001 0 0)
(1.35457 0 0)
(1.3540785 0 0)
(1.353523 0 0)
(1.3529005 0 0)
(1.3522071 0 0)
(1.3514387 0 0)
(1.3505903 0 0)
(1.3496566 0 0)
(1.3486316 0 0)
(1.3475088 0 0)
(1.3462815 0 0)
(1.3449424 0 0)
(1.3433808 0 0)
(1.3564 0 0)
(1.35637 0 0)
(1.3562805 0 0)
(1.3561325 0 0)
(1.3559267 0 0)
(1.3556631 0 0)
(1.355341 0 0)
(1.3549595 0 0)
(1.3545168 0 0)
(1.3540109 0 0)
(1.3534391 0 0)
(1.3527981 0 0)
(1.3520841 0 0)
(1.3512926 0 0)
(1.3504185 0 0)
(1.3494562 0 0)
(1.3483995 0 0)
(1.3472417 0 0)
(1.3459755 0 0)
(1.3445934 0 0)
(1.3429817 0 0)
(1.3564 0 0)
(1.356369 0 0)
(1.3562767 0 0)
(1.3561241 0 0)
(1.3559117 0 0)
(1.3556396 0 0)
(1.3553071 0 0)
(1.3549132 0 0)
(1.3544561 0 0)
(1.3539337 0 0)
(1.3533431 0 0)
(1.352681 0 0)
(1.3519434 0 0)
(1.3511256 0 0)
(1.3502224 0 0)
(1.3492279 0 0)
(1.3481357 0 0)
(1.3469386 0 0)
(1.3456294 0 0)
(1.3441998 0 0)
(1.3425372 0 0)
(1.3564 0 0)
(1.3563762 0 0)
(1.3563051 0 0)
(1.3561875 0 0)
(1.3560239 0 0)
(1.3558139 0 0)
(1.355557 0 0)
(1.3552519 0 0)
(1.3548971 0 0)
(1.3544909 0 0)
(1.3540309 0 0)
(1.3535146 0 0)
(1.352939 0 0)
(1.3523009 0 0)
(1.3515967 0 0)
(1.3508226 0 0)
(1.3499746 0 0)
(1.3490484 0 0)
(1.3480391 0 0)
(1.3469418 0 0)
(1.345497 0 0)
(1.3564 0 0)
(1.3563756 0 0)
(1.3563028 0 0)
(1.3561826 0 0)
(1.3560152 0 0)
(1.3558005 0 0)
(1.3555379 0 0)
(1.3552263 0 0)
(1.3548642 0 0)
(1.3544499 0 0)
(1.3539812 0 0)
(1.3534555 0 0)
(1.3528699 0 0)
(1.3522213 0 0)
(1.3515061 0 0)
(1.3507207 0 0)
(1.3498609 0 0)
(1.3489226 0 0)
(1.3479012 0 0)
(1.3467916 0 0)
(1.345565 0 0)
(1.3564 0 0)
(1.356375 0 0)
(1.3563004 0 0)
(1.3561771 0 0)
(1.3560056 0 0)
(1.3557857 0 0)
(1.3555169 0 0)
(1.355198 0 0)
(1.3548276 0 0)
(1.3544041 0 0)
(1.3539252 0 0)
(1.3533885 0 0)
(1.3527909 0 0)
(1.3521293 0 0)
(1.3514001 0 0)
(1.3505996 0 0)
(1.3497236 0 0)
(1.348768 0 0)
(1.3477282 0 0)
(1.3465996 0 0)
(1.3453351 0 0)
(1.3564 0 0)
(1.3563744 0 0)
(1.3562979 0 0)
(1.3561716 0 0)
(1.3559958 0 0)
(1.3557706 0 0)
(1.3554952 0 0)
(1.3551687 0 0)
(1.3547897 0 0)
(1.3543565 0 0)
(1.3538667 0 0)
(1.353318 0 0)
(1.3527073 0 0)
(1.3520312 0 0)
(1.3512861 0 0)
(1.3504681 0 0)
(1.3495728 0 0)
(1.3485957 0 0)
(1.3475324 0 0)
(1.346378 0 0)
(1.3450696 0 0)
(1.3564 0 0)
(1.3563737 0 0)
(1.3562953 0 0)
(1.3561658 0 0)
(1.3559857 0 0)
(1.3557548 0 0)
(1.3554727 0 0)
(1.3551383 0 0)
(1.3547502 0 0)
(1.3543066 0 0)
(1.3538054 0 0)
(1.3532438 0 0)
(1.3526188 0 0)
(1.3519269 0 0)
(1.3511642 0 0)
(1.3503264 0 0)
(1.349409 0 0)
(1.3484072 0 0)
(1.3473161 0 0)
(1.3461306 0 0)
(1.3447742 0 0)
(1.3564 0 0)
(1.356373 0 0)
(1.3562926 0 0)
(1.3561599 0 0)
(1.3559751 0 0)
(1.3557384 0 0)
(1.3554492 0 0)
(1.3551065 0 0)
(1.3547088 0 0)
(1.3542544 0 0)
(1.3537409 0 0)
(1.3531656 0 0)
(1.3525253 0 0)
(1.3518162 0 0)
(1.3510343 0 0)
(1.350175 0 0)
(1.3492334 0 0)
(1.3482042 0 0)
(1.3470822 0 0)
(1.3458617 0 0)
(1.3444548 0 0)
(1.3564 0 0)
(1.3563723 0 0)
(1.3562899 0 0)
(1.3561536 0 0)
(1.3559641 0 0)
(1.3557213 0 0)
(1.3554246 0 0)
(1.3550731 0 0)
(1.3546654 0 0)
(1.3541994 0 0)
(1.3536729 0 0)
(1.353083 0 0)
(1.3524263 0 0)
(1.3516988 0 0)
(1.3508964 0 0)
(1.3500139 0 0)
(1.3490463 0 0)
(1.3479877 0 0)
(1.3468324 0 0)
(1.3455743 0 0)
(1.3441156 0 0)
(1.3564 0 0)
(1.3563716 0 0)
(1.3562869 0 0)
(1.356147 0 0)
(1.3559524 0 0)
(1.3557031 0 0)
(1.3553986 0 0)
(1.3550378 0 0)
(1.3546193 0 0)
(1.3541411 0 0)
(1.3536007 0 0)
(1.352995 0 0)
(1.3523207 0 0)
(1.3515736 0 0)
(1.350749 0 0)
(1.3498419 0 0)
(1.3488465 0 0)
(1.3477568 0 0)
(1.3465663 0 0)
(1.3452686 0 0)
(1.3437581 0 0)
(1.3564 0 0)
(1.3563708 0 0)
(1.3562838 0 0)
(1.35614 0 0)
(1.35594 0 0)
(1.3556838 0 0)
(1.3553708 0 0)
(1.3550001 0 0)
(1.35457 0 0)
(1.3540785 0 0)
(1.353523 0 0)
(1.3529005 0 0)
(1.3522071 0 0)
(1.3514387 0 0)
(1.3505903 0 0)
(1.3496566 0 0)
(1.3486316 0 0)
(1.3475088 0 0)
(1.3462815 0 0)
(1.3449424 0 0)
(1.3433808 0 0)
(1.3564 0 0)
(1.35637 0 0)
(1.3562805 0 0)
(1.3561325 0 0)
(1.3559267 0 0)
(1.3556631 0 0)
(1.355341 0 0)
(1.3549595 0 0)
(1.3545168 0 0)
(1.3540109 0 0)
(1.3534391 0 0)
(1.3527981 0 0)
(1.3520841 0 0)
(1.3512926 0 0)
(1.3504185 0 0)
(1.3494562 0 0)
(1.3483995 0 0)
(1.3472417 0 0)
(1.3459755 0 0)
(1.3445934 0 0)
(1.3429817 0 0)
(1.3564 0 0)
(1.356369 0 0)
(1.3562767 0 0)
(1.3561241 0 0)
(1.3559117 0 0)
(1.3556396 0 0)
(1.3553071 0 0)
(1.3549132 0 0)
(1.3544561 0 0)
(1.3539337 0 0)
(1.3533431 0 0)
(1.352681 0 0)
(1.3519434 0 0)
(1.3511256 0 0)
(1.3502224 0 0)
(1.3492279 0 0)
(1.3481357 0 0)
(1.3469386 0 0)
(1.3456294 0 0)
(1.3441998 0 0)
(1.3425372 0 0)
(1.3564 0 0)
(1.3563807 0 0)
(1.3563229 0 0)
(1.3562271 0 0)
(1.356093 0 0)
(1.3559199 0 0)
(1.3557062 0 0)
(1.3554501 0 0)
(1.3551491 0 0)
(1.3548 0 0)
(1.3543993 0 0)
(1.3539429 0 0)
(1.3534263 0 0)
(1.3528444 0 0)
(1.3521918 0 0)
(1.3514624 0 0)
(1.3506501 0 0)
(1.3497481 0 0)
(1.3487495 0 0)
(1.347647 0 0)
(1.346327 0 0)
(1.3564 0 0)
(1.3563801 0 0)
(1.3563208 0 0)
(1.3562223 0 0)
(1.3560847 0 0)
(1.3559071 0 0)
(1.355688 0 0)
(1.3554256 0 0)
(1.3551174 0 0)
(1.3547605 0 0)
(1.3543512 0 0)
(1.3538857 0 0)
(1.3533595 0 0)
(1.3527675 0 0)
(1.3521045 0 0)
(1.3513645 0 0)
(1.3505414 0 0)
(1.3496288 0 0)
(1.3486195 0 0)
(1.3475066 0 0)
(1.3461791 0 0)
(1.3564 0 0)
(1.3563796 0 0)
(1.3563186 0 0)
(1.3562177 0 0)
(1.3560765 0 0)
(1.3558944 0 0)
(1.35567 0 0)
(1.3554015 0 0)
(1.3550865 0 0)
(1.354722 0 0)
(1.3543047 0 0)
(1.3538306 0 0)
(1.3532954 0 0)
(1.3526943 0 0)
(1.3520219 0 0)
(1.3512726 0 0)
(1.3504404 0 0)
(1.349519 0 0)
(1.3485014 0 0)
(1.3473809 0 0)
(1.3460512 0 0)
(1.3564 0 0)
(1.3563791 0 0)
(1.3563167 0 0)
(1.3562133 0 0)
(1.3560689 0 0)
(1.3558827 0 0)
(1.3556535 0 0)
(1.3553795 0 0)
(1.3550584 0 0)
(1.3546874 0 0)
(1.3542631 0 0)
(1.3537818 0 0)
(1.3532392 0 0)
(1.3526308 0 0)
(1.3519513 0 0)
(1.3511954 0 0)
(1.3503572 0 0)
(1.3494304 0 0)
(1.3484087 0 0)
(1.3472851 0 0)
(1.3459602 0 0)
(1.3564 0 0)
(1.3563786 0 0)
(1.3563149 0 0)
(1.3562093 0 0)
(1.3560618 0 0)
(1.3558719 0 0)
(1.3556383 0 0)
(1.3553594 0 0)
(1.3550328 0 0)
(1.354656 0 0)
(1.3542257 0 0)
(1.3537384 0 0)
(1.35319 0 0)
(1.3525759 0 0)
(1.3518914 0 0)
(1.3511312 0 0)
(1.3502896 0 0)
(1.3493608 0 0)
(1.3483384 0 0)
(1.347216 0 0)
(1.3459022 0 0)
(1.3564 0 0)
(1.3563782 0 0)
(1.3563131 0 0)
(1.3562055 0 0)
(1.3560552 0 0)
(1.3558617 0 0)
(1.3556241 0 0)
(1.3553406 0 0)
(1.3550091 0 0)
(1.3546271 0 0)
(1.3541917 0 0)
(1.3536992 0 0)
(1.353146 0 0)
(1.3525277 0 0)
(1.3518396 0 0)
(1.3510769 0 0)
(1.3502341 0 0)
(1.3493057 0 0)
(1.3482855 0 0)
(1.3471676 0 0)
(1.3458706 0 0)
(1.3564 0 0)
(1.3563778 0 0)
(1.3563115 0 0)
(1.3562018 0 0)
(1.3560488 0 0)
(1.355852 0 0)
(1.3556104 0 0)
(1.3553226 0 0)
(1.3549865 0 0)
(1.3545998 0 0)
(1.3541595 0 0)
(1.3536625 0 0)
(1.3531052 0 0)
(1.3524834 0 0)
(1.3517928 0 0)
(1.3510286 0 0)
(1.3501859 0 0)
(1.3492593 0 0)
(1.3482433 0 0)
(1.3471319 0 0)
(1.3458565 0 0)
(1.3564 0 0)
(1.3563774 0 0)
(1.3563099 0 0)
(1.3561982 0 0)
(1.3560426 0 0)
(1.3558426 0 0)
(1.3555972 0 0)
(1.3553053 0 0)
(1.3549647 0 0)
(1.3545734 0 0)
(1.3541287 0 0)
(1.3536274 0 0)
(1.3530662 0 0)
(1.3524413 0 0)
(1.3517485 0 0)
(1.3509834 0 0)
(1.3501413 0 0)
(1.3492172 0 0)
(1.348206 0 0)
(1.3471021 0 0)
(1.3458514 0 0)
(1.3564 0 0)
(1.356377 0 0)
(1.3563083 0 0)
(1.3561948 0 0)
(1.3560366 0 0)
(1.3558334 0 0)
(1.3555845 0 0)
(1.3552884 0 0)
(1.3549435 0 0)
(1.3545478 0 0)
(1.3540986 0 0)
(1.3535931 0 0)
(1.3530281 0 0)
(1.3524001 0 0)
(1.351705 0 0)
(1.3509389 0 0)
(1.3500971 0 0)
(1.3491752 0 0)
(1.3481681 0 0)
(1.3470709 0 0)
(1.3458464 0 0)
(1.3564 0 0)
(1.3563766 0 0)
(1.3563068 0 0)
(1.3561914 0 0)
(1.3560308 0 0)
(1.3558245 0 0)
(1.3555719 0 0)
(1.3552718 0 0)
(1.3549226 0 0)
(1.3545222 0 0)
(1.3540685 0 0)
(1.3535585 0 0)
(1.3529894 0 0)
(1.3523576 0 0)
(1.3516596 0 0)
(1.3508914 0 0)
(1.3500487 0 0)
(1.3491272 0 0)
(1.348122 0 0)
(1.3470285 0 0)
(1.3458297 0 0)
(1.3564 0 0)
(1.3563807 0 0)
(1.3563229 0 0)
(1.3562271 0 0)
(1.356093 0 0)
(1.3559199 0 0)
(1.3557062 0 0)
(1.3554501 0 0)
(1.3551491 0 0)
(1.3548 0 0)
(1.3543993 0 0)
(1.3539429 0 0)
(1.3534263 0 0)
(1.3528444 0 0)
(1.3521918 0 0)
(1.3514624 0 0)
(1.3506501 0 0)
(1.3497481 0 0)
(1.3487495 0 0)
(1.347647 0 0)
(1.346327 0 0)
(1.3564 0 0)
(1.3563801 0 0)
(1.3563208 0 0)
(1.3562223 0 0)
(1.3560847 0 0)
(1.3559071 0 0)
(1.355688 0 0)
(1.3554256 0 0)
(1.3551174 0 0)
(1.3547605 0 0)
(1.3543512 0 0)
(1.3538857 0 0)
(1.3533595 0 0)
(1.3527675 0 0)
(1.3521045 0 0)
(1.3513645 0 0)
(1.3505414 0 0)
(1.3496288 0 0)
(1.3486195 0 0)
(1.3475066 0 0)
(1.3461791 0 0)
(1.3564 0 0)
(1.3563796 0 0)
(1.3563186 0 0)
(1.3562177 0 0)
(1.3560765 0 0)
(1.3558944 0 0)
(1.35567 0 0)
(1.3554015 0 0)
(1.3550865 0 0)
(1.354722 0 0)
(1.3543047 0 0)
(1.3538306 0 0)
(1.3532954 0 0)
(1.3526943 0 0)
(1.3520219 0 0)
(1.3512726 0 0)
(1.3504404 0 0)
(1.349519 0 0)
(1.3485014 0 0)
(1.3473809 0 0)
(1.3460512 0 0)
(1.3564 0 0)
(1.3563791 0 0)
(1.3563167 0 0)
(1.3562133 0 0)
(1.3560689 0 0)
(1.3558827 0 0)
(1.3556535 0 0)
(1.3553795 0 0)
(1.3550584 0 0)
(1.3546874 0 0)
(1.3542631 0 0)
(1.3537818 0 0)
(1.3532392 0 0)
(1.3526308 0 0)
(1.3519513 0 0)
(1.3511954 0 0)
(1.3503572 0 0)
(1.3494304 0 0)
(1.3484087 0 0)
(1.3472851 0 0)
(1.3459602 0 0)
(1.3564 0 0)
(1.3563786 0 0)
(1.3563149 0 0)
(1.3562093 0 0)
(1.3560618 0 0)
(1.3558719 0 0)
(1.3556383 0 0)
(1.3553594 0 0)
(1.3550328 0 0)
(1.354656 0 0)
(1.3542257 0 0)
(1.3537384 0 0)
(1.35319 0 0)
(1.3525759 0 0)
(1.3518914 0 0)
(1.3511312 0 0)
(1.3502896 0 0)
(1.3493608 0 0)
(1.3483384 0 0)
(1.347216 0 0)
(1.3459022 0 0)
(1.3564 0 0)
(1.3563782 0 0)
(1.3563131 0 0)
(1.3562055 0 0)
(1.3560552 0 0)
(1.3558617 0 0)
(1.3556241 0 0)
(1.3553406 0 0)
(1.3550091 0 0)
(1.3546271 0 0)
(1.3541917 0 0)
(1.3536992 0 0)
(1.353146 0 0)
(1.3525277 0 0)
(1.3518396 0 0)
(1.3510769 0 0)
(1.3502341 0 0)
(1.3493057 0 0)
(1.3482855 0 0)
(1.3471676 0 0)
(1.3458706 0 0)
(1.3564 0 0)
(1.3563778 0 0)
(1.3563115 0 0)
(1.3562018 0 0)
(1.3560488 0 0)
(1.355852 0 0)
(1.3556104 0 0)
(1.3553226 0 0)
(1.3549865 0 0)
(1.3545998 0 0)
(1.3541595 0 0)
(1.3536625 0 0)
(1.3531052 0 0)
(1.3524834 0 0)
(1.3517928 0 0)
(1.3510286 0 0)
(1.3501859 0 0)
(1.3492593 0 0)
(1.3482433 0 0)
(1.3471319 0 0)
(1.3458565 0 0)
(1.3564 0 0)
(1.3563774 0 0)
(1.3563099 0 0)
(1.3561982 0 0)
(1.3560426 0 0)
(1.3558426 0 0)
(1.3555972 0 0)
(1.3553053 0 0)
(1.3549647 0 0)
(1.3545734 0 0)
(1.3541287 0 0)
(1.3536274 0 0)
(1.3530662 0 0)
(1.3524413 0 0)
(1.3517485 0 0)
(1.3509834 0 0)
(1.3501413 0 0)
(1.3492172 0 0)
(1.348206 0 0)
(1.3471021 0 0)
(1.3458514 0 0)
(1.3564 0 0)
(1.356377 0 0)
(1.3563083 0 0)
(1.3561948 0 0)
(1.3560366 0 0)
(1.3558334 0 0)
(1.3555845 0 0)
(1.3552884 0 0)
(1.3549435 0 0)
(1.3545478 0 0)
(1.3540986 0 0)
(1.3535931 0 0)
(1.3530281 0 0)
(1.3524001 0 0)
(1.351705 0 0)
(1.3509389 0 0)
(1.3500971 0 0)
(1.3491752 0 0)
(1.3481681 0 0)
(1.3470709 0 0)
(1.3458464 0 0)
(1.3564 0 0)
(1.3563766 0 0)
(1.3563068 0 0)
(1.3561914 0 0)
(1.3560308 0 0)
(1.3558245 0 0)
(1.3555719 0 0)
(1.3552718 0 0)
(1.3549226 0 0)
(1.3545222 0 0)
(1.3540685 0 0)
(1.3535585 0 0)
(1.3529894 0 0)
(1.3523576 0 0)
(1.3516596 0 0)
(1.3508914 0 0)
(1.3500487 0 0)
(1.3491272 0 0)
(1.348122 0 0)
(1.3470285 0 0)
(1.3458297 0 0)
(1.344633 0 0)
(1.342642 0 0)
(1.3404469 0 0)
(1.3380307 0 0)
(1.3353741 0 0)
(1.3324557 0 0)
(1.329249 0 0)
(1.3257186 0 0)
(1.3218214 0 0)
(1.317515 0 0)
(1.3127602 0 0)
(1.3075184 0 0)
(1.3017487 0 0)
(1.2954054 0 0)
(1.2884377 0 0)
(1.2807938 0 0)
(1.2724255 0 0)
(1.2632834 0 0)
(1.253312 0 0)
(1.2424523 0 0)
(1.2306487 0 0)
(1.2178397 0 0)
(1.2039523 0 0)
(1.1889113 0 0)
(1.172652 0 0)
(1.1551163 0 0)
(1.1362154 0 0)
(1.1158439 0 0)
(1.093905 0 0)
(1.070315 0 0)
(1.0449693 0 0)
(1.0177265 0 0)
(0.98845756 0 0)
(0.95705776 0 0)
(0.92337744 0 0)
(0.88719703 0 0)
(0.84834173 0 0)
(0.80669 0 0)
(0.76204889 0 0)
(0.71413256 0 0)
(0.66274319 0 0)
(0.60772465 0 0)
(0.54880127 0 0)
(0.48566421 0 0)
(0.41801705 0 0)
(0.34556836 0 0)
(0.26797047 0 0)
(0.18476972 0 0)
(0.095483874 0 0)
(0 0 0)
(1.3444838 0 0)
(1.3424949 0 0)
(1.3403027 0 0)
(1.3378902 0 0)
(1.3352385 0 0)
(1.3323268 0 0)
(1.3291296 0 0)
(1.3256119 0 0)
(1.32173 0 0)
(1.3174406 0 0)
(1.3127038 0 0)
(1.3074807 0 0)
(1.3017305 0 0)
(1.2954071 0 0)
(1.2884591 0 0)
(1.280834 0 0)
(1.2724833 0 0)
(1.2633583 0 0)
(1.253403 0 0)
(1.242558 0 0)
(1.2307678 0 0)
(1.2179718 0 0)
(1.2040967 0 0)
(1.1890673 0 0)
(1.1728194 0 0)
(1.1552935 0 0)
(1.1364013 0 0)
(1.1160378 0 0)
(1.0941059 0 0)
(1.0705212 0 0)
(1.0451797 0 0)
(1.0179404 0 0)
(0.98867336 0 0)
(0.9572735 0 0)
(0.92359178 0 0)
(0.88740852 0 0)
(0.84854812 0 0)
(0.80688945 0 0)
(0.76224029 0 0)
(0.71431305 0 0)
(0.66290932 0 0)
(0.60787509 0 0)
(0.548935 0 0)
(0.48578084 0 0)
(0.41811608 0 0)
(0.34564931 0 0)
(0.26803175 0 0)
(0.18481006 0 0)
(0.095503569 0 0)
(0 0 0)
(1.3443643 0 0)
(1.3423892 0 0)
(1.3402112 0 0)
(1.3378138 0 0)
(1.3351784 0 0)
(1.332285 0 0)
(1.329109 0 0)
(1.3256158 0 0)
(1.3217611 0 0)
(1.317501 0 0)
(1.312795 0 0)
(1.3076037 0 0)
(1.3018859 0 0)
(1.2955955 0 0)
(1.2886806 0 0)
(1.281088 0 0)
(1.2727688 0 0)
(1.2636741 0 0)
(1.2537482 0 0)
(1.2429315 0 0)
(1.2311679 0 0)
(1.2183971 0 0)
(1.2045463 0 0)
(1.1895401 0 0)
(1.1733145 0 0)
(1.1558085 0 0)
(1.1369346 0 0)
(1.1165878 0 0)
(1.0946698 0 0)
(1.0710963 0 0)
(1.0457644 0 0)
(1.0185322 0 0)
(0.98926873 0 0)
(0.95786906 0 0)
(0.92418512 0 0)
(0.88799598 0 0)
(0.8491246 0 0)
(0.80745105 0 0)
(0.76278389 0 0)
(0.71483311 0 0)
(0.66339939 0 0)
(0.60833097 0 0)
(0.54935223 0 0)
(0.48615443 0 0)
(0.41844106 0 0)
(0.34592126 0 0)
(0.26824437 0 0)
(0.18495639 0 0)
(0.09557841 0 0)
(0 0 0)
(1.3442923 0 0)
(1.3423435 0 0)
(1.3401924 0 0)
(1.3378224 0 0)
(1.3352159 0 0)
(1.3323535 0 0)
(1.3292114 0 0)
(1.3257554 0 0)
(1.3219413 0 0)
(1.3177239 0 0)
(1.3130622 0 0)
(1.3079166 0 0)
(1.3022455 0 0)
(1.2960024 0 0)
(1.2891349 0 0)
(1.2815892 0 0)
(1.2733161 0 0)
(1.2642665 0 0)
(1.2543844 0 0)
(1.2436098 0 0)
(1.2318865 0 0)
(1.2191542 0 0)
(1.20534 0 0)
(1.1903687 0 0)
(1.1741764 0 0)
(1.1567006 0 0)
(1.1378542 0 0)
(1.1175321 0 0)
(1.095635 0 0)
(1.0720785 0 0)
(1.0467602 0 0)
(1.0195377 0 0)
(0.99027906 0 0)
(0.95887922 0 0)
(0.92519051 0 0)
(0.88899063 0 0)
(0.85010154 0 0)
(0.80840401 0 0)
(0.76370662 0 0)
(0.71571732 0 0)
(0.66423641 0 0)
(0.60911336 0 0)
(0.55007136 0 0)
(0.48680079 0 0)
(0.41900553 0 0)
(0.34639523 0 0)
(0.26861658 0 0)
(0.18521406 0 0)
(0.09571104 0 0)
(0 0 0)
(1.3442636 0 0)
(1.3423533 0 0)
(1.3402412 0 0)
(1.3379111 0 0)
(1.3353458 0 0)
(1.3325269 0 0)
(1.3294314 0 0)
(1.3260256 0 0)
(1.3222648 0 0)
(1.3181032 0 0)
(1.3134993 0 0)
(1.3084127 0 0)
(1.302802 0 0)
(1.29662 0 0)
(1.2898141 0 0)
(1.2823299 0 0)
(1.2741174 0 0)
(1.2651271 0 0)
(1.2553028 0 0)
(1.2445843 0 0)
(1.2329149 0 0)
(1.220234 0 0)
(1.2064688 0 0)
(1.1915441 0 0)
(1.1753958 0 0)
(1.1579603 0 0)
(1.1391509 0 0)
(1.1188614 0 0)
(1.0969918 0 0)
(1.073458 0 0)
(1.048158 0 0)
(1.020948 0 0)
(0.99169496 0 0)
(0.9602946 0 0)
(0.92659923 0 0)
(0.89038417 0 0)
(0.85147039 0 0)
(0.80974005 0 0)
(0.76500122 0 0)
(0.71695903 0 0)
(0.66541352 0 0)
(0.61021564 0 0)
(0.55108667 0 0)
(0.48771485 0 0)
(0.41980489 0 0)
(0.34706734 0 0)
(0.26914541 0 0)
(0.18558112 0 0)
(0.095900507 0 0)
(0 0 0)
(1.344271 0 0)
(1.3424109 0 0)
(1.3403497 0 0)
(1.3380713 0 0)
(1.3355593 0 0)
(1.3327964 0 0)
(1.3297605 0 0)
(1.3264174 0 0)
(1.3227223 0 0)
(1.3186291 0 0)
(1.3140954 0 0)
(1.309081 0 0)
(1.303544 0 0)
(1.2974369 0 0)
(1.2907064 0 0)
(1.2832978 0 0)
(1.2751604 0 0)
(1.2662438 0 0)
(1.2564911 0 0)
(1.2458424 0 0)
(1.2342404 0 0)
(1.2216241 0 0)
(1.2079201 0 0)
(1.1930535 0 0)
(1.1769603 0 0)
(1.1595752 0 0)
(1.1408116 0 0)
(1.1205626 0 0)
(1.0987276 0 0)
(1.0752225 0 0)
(1.0499451 0 0)
(1.0227503 0 0)
(0.99350429 0 0)
(0.96210325 0 0)
(0.92839906 0 0)
(0.89216456 0 0)
(0.85322005 0 0)
(0.81144872 0 0)
(0.76665726 0 0)
(0.71854809 0 0)
(0.66692159 0 0)
(0.6116295 0 0)
(0.55239011 0 0)
(0.48888937 0 0)
(0.42083298 0 0)
(0.34793252 0 0)
(0.26982667 0 0)
(0.18605458 0 0)
(0.096145268 0 0)
(0 0 0)
(1.344305 0 0)
(1.3425065 0 0)
(1.3405076 0 0)
(1.3382926 0 0)
(1.3358459 0 0)
(1.3331516 0 0)
(1.3301877 0 0)
(1.326919 0 0)
(1.3233005 0 0)
(1.319287 0 0)
(1.314836 0 0)
(1.3099067 0 0)
(1.3044563 0 0)
(1.2984373 0 0)
(1.2917961 0 0)
(1.2844771 0 0)
(1.2764288 0 0)
(1.2676 0 0)
(1.2579331 0 0)
(1.2473679 0 0)
(1.2358467 0 0)
(1.2233078 0 0)
(1.2096774 0 0)
(1.1948804 0 0)
(1.1788529 0 0)
(1.1615287 0 0)
(1.1428202 0 0)
(1.1226193 0 0)
(1.1008254 0 0)
(1.0773551 0 0)
(1.0521053 0 0)
(1.0249285 0 0)
(0.99569062 0 0)
(0.96428906 0 0)
(0.93057469 0 0)
(0.89431692 0 0)
(0.85533562 0 0)
(0.8135156 0 0)
(0.76866151 0 0)
(0.72047206 0 0)
(0.66874857 0 0)
(0.61334339 0 0)
(0.55397144 0 0)
(0.4903152 0 0)
(0.42208164 0 0)
(0.34898375 0 0)
(0.27065504 0 0)
(0.18663084 0 0)
(0.096443358 0 0)
(0 0 0)
(1.3443565 0 0)
(1.3426304 0 0)
(1.3407052 0 0)
(1.3385649 0 0)
(1.3361954 0 0)
(1.3335813 0 0)
(1.3307001 0 0)
(1.3275154 0 0)
(1.3239834 0 0)
(1.3200604 0 0)
(1.3157044 0 0)
(1.3108725 0 0)
(1.3055209 0 0)
(1.2996027 0 0)
(1.293064 0 0)
(1.2858482 0 0)
(1.2779031 0 0)
(1.2691763 0 0)
(1.2596089 0 0)
(1.2491405 0 0)
(1.2377138 0 0)
(1.2252655 0 0)
(1.2117207 0 0)
(1.1970046 0 0)
(1.1810538 0 0)
(1.1638008 0 0)
(1.1451561 0 0)
(1.1250111 0 0)
(1.1032654 0 0)
(1.0798358 0 0)
(1.0546183 0 0)
(1.0274627 0 0)
(0.9982347 0 0)
(0.96683286 0 0)
(0.93310697 0 0)
(0.89682265 0 0)
(0.85779949 0 0)
(0.8159236 0 0)
(0.77099706 0 0)
(0.72271502 0 0)
(0.67087969 0 0)
(0.61534375 0 0)
(0.55581795 0 0)
(0.49198087 0 0)
(0.42354096 0 0)
(0.35021281 0 0)
(0.27162391 0 0)
(0.18730516 0 0)
(0.096792308 0 0)
(0 0 0)
(1.3444152 0 0)
(1.3427727 0 0)
(1.3409325 0 0)
(1.3388785 0 0)
(1.336597 0 0)
(1.3340728 0 0)
(1.3312831 0 0)
(1.3281917 0 0)
(1.3247553 0 0)
(1.3209323 0 0)
(1.3166806 0 0)
(1.3119569 0 0)
(1.3067166 0 0)
(1.3009122 0 0)
(1.294489 0 0)
(1.2873898 0 0)
(1.2795616 0 0)
(1.2709506 0 0)
(1.2614956 0 0)
(1.2511372 0 0)
(1.2398184 0 0)
(1.2274738 0 0)
(1.2140266 0 0)
(1.1994028 0 0)
(1.1835394 0 0)
(1.1663678 0 0)
(1.1477963 0 0)
(1.1277149 0 0)
(1.1060238 0 0)
(1.082641 0 0)
(1.0574612 0 0)
(1.0303303 0 0)
(1.0011136 0 0)
(0.96971199 0 0)
(0.935974 0 0)
(0.89966047 0 0)
(0.86059058 0 0)
(0.81865231 0 0)
(0.77364478 0 0)
(0.72525895 0 0)
(0.6732977 0 0)
(0.61761415 0 0)
(0.55791474 0 0)
(0.49387308 0 0)
(0.42519927 0 0)
(0.35160976 0 0)
(0.27272549 0 0)
(0.18807228 0 0)
(0.097189414 0 0)
(0 0 0)
(1.3444705 0 0)
(1.342925 0 0)
(1.3411824 0 0)
(1.3392262 0 0)
(1.3370435 0 0)
(1.3346178 0 0)
(1.3319263 0 0)
(1.3289348 0 0)
(1.3256026 0 0)
(1.321888 0 0)
(1.3177503 0 0)
(1.313146 0 0)
(1.3080296 0 0)
(1.302352 0 0)
(1.2960574 0 0)
(1.2890874 0 0)
(1.281388 0 0)
(1.2729052 0 0)
(1.2635768 0 0)
(1.2533423 0 0)
(1.2421456 0 0)
(1.2299182 0 0)
(1.21658 0 0)
(1.202059 0 0)
(1.1862941 0 0)
(1.1692142 0 0)
(1.150725 0 0)
(1.1307148 0 0)
(1.109085 0 0)
(1.085755 0 0)
(1.0606178 0 0)
(1.0335152 0 0)
(1.0043116 0 0)
(0.97291051 0 0)
(0.93915941 0 0)
(0.90281427 0 0)
(0.86369338 0 0)
(0.82168642 0 0)
(0.77658939 0 0)
(0.72808915 0 0)
(0.67598883 0 0)
(0.62014148 0 0)
(0.56024925 0 0)
(0.49598034 0 0)
(0.42704649 0 0)
(0.35316598 0 0)
(0.27395277 0 0)
(0.18892717 0 0)
(0.09763201 0 0)
(0 0 0)
(1.3441685 0 0)
(1.3427063 0 0)
(1.3410463 0 0)
(1.3391734 0 0)
(1.3370738 0 0)
(1.3347293 0 0)
(1.3321169 0 0)
(1.3292067 0 0)
(1.3259602 0 0)
(1.3223357 0 0)
(1.3182929 0 0)
(1.313789 0 0)
(1.3087781 0 0)
(1.3032093 0 0)
(1.2970256 0 0)
(1.2901683 0 0)
(1.2825836 0 0)
(1.2742181 0 0)
(1.2650076 0 0)
(1.2548906 0 0)
(1.24381 0 0)
(1.2316951 0 0)
(1.2184658 0 0)
(1.204051 0 0)
(1.1883891 0 0)
(1.1714082 0 0)
(1.1530114 0 0)
(1.1330854 0 0)
(1.1115314 0 0)
(1.0882704 0 0)
(1.0631944 0 0)
(1.0361418 0 0)
(1.0069747 0 0)
(0.97559862 0 0)
(0.94186092 0 0)
(0.90551435 0 0)
(0.8663739 0 0)
(0.82433033 0 0)
(0.77917731 0 0)
(0.73059927 0 0)
(0.67839625 0 0)
(0.62242158 0 0)
(0.56237367 0 0)
(0.49791465 0 0)
(0.42875657 0 0)
(0.35461989 0 0)
(0.27511138 0 0)
(0.18974524 0 0)
(0.098067103 0 0)
(0 0 0)
(1.344633 0 0)
(1.342642 0 0)
(1.3404469 0 0)
(1.3380307 0 0)
(1.3353741 0 0)
(1.3324557 0 0)
(1.329249 0 0)
(1.3257186 0 0)
(1.3218214 0 0)
(1.317515 0 0)
(1.3127602 0 0)
(1.3075184 0 0)
(1.3017487 0 0)
(1.2954054 0 0)
(1.2884377 0 0)
(1.2807938 0 0)
(1.2724255 0 0)
(1.2632834 0 0)
(1.253312 0 0)
(1.2424523 0 0)
(1.2306487 0 0)
(1.2178397 0 0)
(1.2039523 0 0)
(1.1889113 0 0)
(1.172652 0 0)
(1.1551163 0 0)
(1.1362154 0 0)
(1.1158439 0 0)
(1.093905 0 0)
(1.070315 0 0)
(1.0449693 0 0)
(1.0177265 0 0)
(0.98845756 0 0)
(0.95705776 0 0)
(0.92337744 0 0)
(0.88719703 0 0)
(0.84834173 0 0)
(0.80669 0 0)
(0.76204889 0 0)
(0.71413256 0 0)
(0.66274319 0 0)
(0.60772465 0 0)
(0.54880127 0 0)
(0.48566421 0 0)
(0.41801705 0 0)
(0.34556836 0 0)
(0.26797047 0 0)
(0.18476972 0 0)
(0.095483874 0 0)
(0 0 0)
(1.3444838 0 0)
(1.3424949 0 0)
(1.3403027 0 0)
(1.3378902 0 0)
(1.3352385 0 0)
(1.3323268 0 0)
(1.3291296 0 0)
(1.3256119 0 0)
(1.32173 0 0)
(1.3174406 0 0)
(1.3127038 0 0)
(1.3074807 0 0)
(1.3017305 0 0)
(1.2954071 0 0)
(1.2884591 0 0)
(1.280834 0 0)
(1.2724833 0 0)
(1.2633583 0 0)
(1.253403 0 0)
(1.242558 0 0)
(1.2307678 0 0)
(1.2179718 0 0)
(1.2040967 0 0)
(1.1890673 0 0)
(1.1728194 0 0)
(1.1552935 0 0)
(1.1364013 0 0)
(1.1160378 0 0)
(1.0941059 0 0)
(1.0705212 0 0)
(1.0451797 0 0)
(1.0179404 0 0)
(0.98867336 0 0)
(0.9572735 0 0)
(0.92359178 0 0)
(0.88740852 0 0)
(0.84854812 0 0)
(0.80688945 0 0)
(0.76224029 0 0)
(0.71431305 0 0)
(0.66290932 0 0)
(0.60787509 0 0)
(0.548935 0 0)
(0.48578084 0 0)
(0.41811608 0 0)
(0.34564931 0 0)
(0.26803175 0 0)
(0.18481006 0 0)
(0.095503569 0 0)
(0 0 0)
(1.3443643 0 0)
(1.3423892 0 0)
(1.3402112 0 0)
(1.3378138 0 0)
(1.3351784 0 0)
(1.332285 0 0)
(1.329109 0 0)
(1.3256158 0 0)
(1.3217611 0 0)
(1.317501 0 0)
(1.312795 0 0)
(1.3076037 0 0)
(1.3018859 0 0)
(1.2955955 0 0)
(1.2886806 0 0)
(1.281088 0 0)
(1.2727688 0 0)
(1.2636741 0 0)
(1.2537482 0 0)
(1.2429315 0 0)
(1.2311679 0 0)
(1.2183971 0 0)
(1.2045463 0 0)
(1.1895401 0 0)
(1.1733145 0 0)
(1.1558085 0 0)
(1.1369346 0 0)
(1.1165878 0 0)
(1.0946698 0 0)
(1.0710963 0 0)
(1.0457644 0 0)
(1.0185322 0 0)
(0.98926873 0 0)
(0.95786906 0 0)
(0.92418512 0 0)
(0.88799598 0 0)
(0.8491246 0 0)
(0.80745105 0 0)
(0.76278389 0 0)
(0.71483311 0 0)
(0.66339939 0 0)
(0.60833097 0 0)
(0.54935223 0 0)
(0.48615443 0 0)
(0.41844106 0 0)
(0.34592126 0 0)
(0.26824437 0 0)
(0.18495639 0 0)
(0.09557841 0 0)
(0 0 0)
(1.3442923 0 0)
(1.3423435 0 0)
(1.3401924 0 0)
(1.3378224 0 0)
(1.3352159 0 0)
(1.3323535 0 0)
(1.3292114 0 0)
(1.3257554 0 0)
(1.3219413 0 0)
(1.3177239 0 0)
(1.3130622 0 0)
(1.3079166 0 0)
(1.3022455 0 0)
(1.2960024 0 0)
(1.2891349 0 0)
(1.2815892 0 0)
(1.2733161 0 0)
(1.2642665 0 0)
(1.2543844 0 0)
(1.2436098 0 0)
(1.2318865 0 0)
(1.2191542 0 0)
(1.20534 0 0)
(1.1903687 0 0)
(1.1741764 0 0)
(1.1567006 0 0)
(1.1378542 0 0)
(1.1175321 0 0)
(1.095635 0 0)
(1.0720785 0 0)
(1.0467602 0 0)
(1.0195377 0 0)
(0.99027906 0 0)
(0.95887922 0 0)
(0.92519051 0 0)
(0.88899063 0 0)
(0.85010154 0 0)
(0.80840401 0 0)
(0.76370662 0 0)
(0.71571732 0 0)
(0.66423641 0 0)
(0.60911336 0 0)
(0.55007136 0 0)
(0.48680079 0 0)
(0.41900553 0 0)
(0.34639523 0 0)
(0.26861658 0 0)
(0.18521406 0 0)
(0.09571104 0 0)
(0 0 0)
(1.3442636 0 0)
(1.3423533 0 0)
(1.3402412 0 0)
(1.3379111 0 0)
(1.3353458 0 0)
(1.3325269 0 0)
(1.3294314 0 0)
(1.3260256 0 0)
(1.3222648 0 0)
(1.3181032 0 0)
(1.3134993 0 0)
(1.3084127 0 0)
(1.302802 0 0)
(1.29662 0 0)
(1.2898141 0 0)
(1.2823299 0 0)
(1.2741174 0 0)
(1.2651271 0 0)
(1.2553028 0 0)
(1.2445843 0 0)
(1.2329149 0 0)
(1.220234 0 0)
(1.2064688 0 0)
(1.1915441 0 0)
(1.1753958 0 0)
(1.1579603 0 0)
(1.1391509 0 0)
(1.1188614 0 0)
(1.0969918 0 0)
(1.073458 0 0)
(1.048158 0 0)
(1.020948 0 0)
(0.99169496 0 0)
(0.9602946 0 0)
(0.92659923 0 0)
(0.89038417 0 0)
(0.85147039 0 0)
(0.80974005 0 0)
(0.76500122 0 0)
(0.71695903 0 0)
(0.66541352 0 0)
(0.61021564 0 0)
(0.55108667 0 0)
(0.48771485 0 0)
(0.41980489 0 0)
(0.34706734 0 0)
(0.26914541 0 0)
(0.18558112 0 0)
(0.095900507 0 0)
(0 0 0)
(1.344271 0 0)
(1.3424109 0 0)
(1.3403497 0 0)
(1.3380713 0 0)
(1.3355593 0 0)
(1.3327964 0 0)
(1.3297605 0 0)
(1.3264174 0 0)
(1.3227223 0 0)
(1.3186291 0 0)
(1.3140954 0 0)
(1.309081 0 0)
(1.303544 0 0)
(1.2974369 0 0)
(1.2907064 0 0)
(1.2832978 0 0)
(1.2751604 0 0)
(1.2662438 0 0)
(1.2564911 0 0)
(1.2458424 0 0)
(1.2342404 0 0)
(1.2216241 0 0)
(1.2079201 0 0)
(1.1930535 0 0)
(1.1769603 0 0)
(1.1595752 0 0)
(1.1408116 0 0)
(1.1205626 0 0)
(1.0987276 0 0)
(1.0752225 0 0)
(1.0499451 0 0)
(1.0227503 0 0)
(0.99350429 0 0)
(0.96210325 0 0)
(0.92839906 0 0)
(0.89216456 0 0)
(0.85322005 0 0)
(0.81144872 0 0)
(0.76665726 0 0)
(0.71854809 0 0)
(0.66692159 0 0)
(0.6116295 0 0)
(0.55239011 0 0)
(0.48888937 0 0)
(0.42083298 0 0)
(0.34793252 0 0)
(0.26982667 0 0)
(0.18605458 0 0)
(0.096145268 0 0)
(0 0 0)
(1.344305 0 0)
(1.3425065 0 0)
(1.3405076 0 0)
(1.3382926 0 0)
(1.3358459 0 0)
(1.3331516 0 0)
(1.3301877 0 0)
(1.326919 0 0)
(1.3233005 0 0)
(1.319287 0 0)
(1.314836 0 0)
(1.3099067 0 0)
(1.3044563 0 0)
(1.2984373 0 0)
(1.2917961 0 0)
(1.2844771 0 0)
(1.2764288 0 0)
(1.2676 0 0)
(1.2579331 0 0)
(1.2473679 0 0)
(1.2358467 0 0)
(1.2233078 0 0)
(1.2096774 0 0)
(1.1948804 0 0)
(1.1788529 0 0)
(1.1615287 0 0)
(1.1428202 0 0)
(1.1226193 0 0)
(1.1008254 0 0)
(1.0773551 0 0)
(1.0521053 0 0)
(1.0249285 0 0)
(0.99569062 0 0)
(0.96428906 0 0)
(0.93057469 0 0)
(0.89431692 0 0)
(0.85533562 0 0)
(0.8135156 0 0)
(0.76866151 0 0)
(0.72047206 0 0)
(0.66874857 0 0)
(0.61334339 0 0)
(0.55397144 0 0)
(0.4903152 0 0)
(0.42208164 0 0)
(0.34898375 0 0)
(0.27065504 0 0)
(0.18663084 0 0)
(0.096443358 0 0)
(0 0 0)
(1.3443565 0 0)
(1.3426304 0 0)
(1.3407052 0 0)
(1.3385649 0 0)
(1.3361954 0 0)
(1.3335813 0 0)
(1.3307001 0 0)
(1.3275154 0 0)
(1.3239834 0 0)
(1.3200604 0 0)
(1.3157044 0 0)
(1.3108725 0 0)
(1.3055209 0 0)
(1.2996027 0 0)
(1.293064 0 0)
(1.2858482 0 0)
(1.2779031 0 0)
(1.2691763 0 0)
(1.2596089 0 0)
(1.2491405 0 0)
(1.2377138 0 0)
(1.2252655 0 0)
(1.2117207 0 0)
(1.1970046 0 0)
(1.1810538 0 0)
(1.1638008 0 0)
(1.1451561 0 0)
(1.1250111 0 0)
(1.1032654 0 0)
(1.0798358 0 0)
(1.0546183 0 0)
(1.0274627 0 0)
(0.9982347 0 0)
(0.96683286 0 0)
(0.93310697 0 0)
(0.89682265 0 0)
(0.85779949 0 0)
(0.8159236 0 0)
(0.77099706 0 0)
(0.72271502 0 0)
(0.67087969 0 0)
(0.61534375 0 0)
(0.55581795 0 0)
(0.49198087 0 0)
(0.42354096 0 0)
(0.35021281 0 0)
(0.27162391 0 0)