/*--------------------------------*- C++ -*----------------------------------*\
| =========                 |                                                 |
| \\      /  F ield         | OpenFOAM: The Open Source CFD Toolbox           |
|  \\    /   O peration     | Version:  v2012                                 |
|   \\  /    A nd           | Website:  www.openfoam.com                      |
|    \\/     M anipulation  |                                                 |
\*---------------------------------------------------------------------------*/
FoamFile
{
    version     2.0;
    format      ascii;
    class       volVectorField;
    location    "47.212973535978783";
    object      U;
}
// * * * * * * * * * * * * * * * * * * * * * * * * * * * * * * * * * * * * * //

dimensions      [0 1 -1 0 0 0 0];


internalField   nonuniform List<vector> 
9200
(
(2.6586903 0.0009731817 2.6675756e-22)
(2.6596428 0.0031306929 7.9520667e-24)
(2.6559727 0.00093665471 -5.471517e-23)
(2.6613111 0.0056484463 4.3756426e-22)
(2.6564018 0.0030275978 -5.6256742e-23)
(2.6548313 0.00071114122 -5.2834335e-23)
(2.663724 0.008532643 -1.656676e-22)
(2.6572614 0.0055398016 -2.1432869e-23)
(2.6549957 0.0022648494 2.708505e-23)
(2.653834 0.00040015822 -2.4047182e-23)
(2.6667944 0.012324406 -3.5304501e-22)
(2.6583411 0.0084757337 -1.0904903e-22)
(2.6554305 0.0042818638 -4.7407636e-22)
(2.6537141 0.0012490134 3.0905339e-23)
(2.6535276 3.4841151e-05 9.5934172e-23)
(2.6705798 0.016916403 9.1730491e-22)
(2.6595769 0.012410084 3.4939899e-22)
(2.6558161 0.0066277794 1.6960628e-22)
(2.6537228 0.0025861102 8.2646522e-23)
(2.653208 1.7226032e-05 -8.4537386e-24)
(2.6538019 -0.00027333907 1.4357861e-22)
(2.6750439 0.022780393 -5.4518738e-22)
(2.6609007 0.017244439 1.4679806e-22)
(2.6561131 0.0098969317 2.6169672e-22)
(2.6534159 0.0041140136 3.2875746e-23)
(2.6529273 0.0005154041 8.3862813e-23)
(2.6533628 -0.0012844238 2.8513379e-23)
(2.6546273 -0.00049249102 -2.8115535e-22)
(2.6802417 0.029983634 1.8784888e-21)
(2.6621442 0.023454826 -1.9094695e-22)
(2.6561871 0.013918662 -3.8637461e-22)
(2.6527795 0.0064646082 1.7004065e-22)
(2.6521652 0.0010125055 -7.582991e-23)
(2.6529336 -0.0016619794 -2.5913927e-23)
(2.654215 -0.0025406433 2.4033952e-23)
(2.655911 -0.00071537505 -3.5956077e-24)
(2.6861833 0.038909475 7.894435e-22)
(2.6631987 0.031099919 1.4172429e-22)
(2.6558501 0.019120262 -5.1273106e-22)
(2.6516371 0.0093784799 3.3392609e-23)
(2.6508972 0.0022108625 -7.4582768e-23)
(2.6519183 -0.0022675326 3.3372175e-23)
(2.6537403 -0.0037605968 6.0849775e-24)
(2.6556531 -0.0036316588 -2.1083522e-22)
(2.6575511 -0.00091237499 1.9573508e-22)
(2.6929074 0.049805775 5.7187722e-22)
(2.6638482 0.040527449 -7.0911364e-22)
(2.6549473 0.025464004 -1.1043593e-21)
(2.6498015 0.013244048 -7.3444059e-22)
(2.6489554 0.0037557039 1.6114387e-22)
(2.6502568 -0.0023037449 -2.7662493e-23)
(2.6526726 -0.005451228 -7.6515179e-23)
(2.6552406 -0.0056103835 5.1403646e-23)
(2.6575301 -0.0044751657 5.9966464e-23)
(2.6594169 -0.0010414787 -1.5649803e-22)
(2.7004367 0.063063746 1.8320822e-21)
(2.6638604 0.051929798 5.0446547e-22)
(2.6532338 0.033170469 0)
(2.6471211 0.017935074 1.2132439e-22)
(2.6461639 0.0060159156 5.5966908e-22)
(2.6478283 -0.0021989869 -2.9313437e-22)
(2.6508661 -0.0067240779 2.0474692e-22)
(2.6543135 -0.0083013415 1.1645083e-22)
(2.657305 -0.0070876868 -1.1724334e-22)
(2.6596943 -0.0050207699 2.6201526e-22)
(2.6613704 -0.0010849197 -9.7667278e-22)
(2.7087846 0.079075491 -2.5709181e-21)
(2.6629111 0.065608912 5.3918594e-22)
(2.6504427 0.04225348 2.7334894e-22)
(2.6433857 0.023565443 9.1504004e-22)
(2.6424236 0.0088136618 -1.0395443e-21)
(2.64444 -0.0015867309 -3.0163833e-23)
(2.6482345 -0.008056926 -4.4644816e-22)
(2.6526015 -0.010754945 1.8813478e-22)
(2.6567134 -0.010648437 -1.0574498e-23)
(2.6597872 -0.0081142905 6.0849058e-23)
(2.6619995 -0.0052431592 -3.1666004e-22)
(2.6632763 -0.0010438053 2.2447655e-22)
(2.71793 0.098301941 -3.807808e-21)
(2.6606021 0.081842463 -7.3245428e-22)
(2.6462239 0.052775494 4.1698711e-21)
(2.6383892 0.03000068 -1.0276132e-22)
(2.6376157 0.012211784 -5.2647902e-22)
(2.6400718 -0.00063260905 -2.282382e-23)
(2.6445519 -0.0090657373 -7.9417316e-22)
(2.6500223 -0.013480254 4.0531313e-23)
(2.6553317 -0.014190014 1.812727e-23)
(2.6597214 -0.01237598 2.1768233e-22)
(2.6625341 -0.0086422353 4.5686388e-23)
(2.6643055 -0.005137983 1.8834938e-22)
(2.6650123 -0.00092407434 1.5290059e-21)
(2.7278275 0.12123647 -7.8021154e-21)
(2.6564331 0.10095285 -1.145551e-21)
(2.6401559 0.064705774 1.7011082e-21)
(2.6318789 0.037111847 -9.6059845e-22)
(2.6316711 0.016006068 1.2062593e-21)
(2.6346709 0.00074231877 -2.1993109e-22)
(2.6398407 -0.0098682378 2.0945487e-23)
(2.646302 -0.016081406 -6.3402819e-22)
(2.6530701 -0.018244398 1.0433446e-21)
(2.6589117 -0.016879498 7.4394685e-22)
(2.6631745 -0.013406894 3.2391907e-22)
(2.6653911 -0.0086460755 5.7168292e-22)
(2.6664759 -0.0047123329 -3.0449477e-22)
(2.6664955 -0.00072971476 0)
(2.7386767 0.14839286 6.6708652e-21)
(2.6498116 0.12328008 4.2579771e-22)
(2.6317271 0.077976844 -4.0042818e-21)
(2.6235763 0.04463044 -6.5244249e-22)
(2.6245284 0.019987884 0)
(2.6283175 0.002365672 9.2993646e-22)
(2.6340782 -0.010321565 5.9761144e-22)
(2.6414388 -0.018603534 -1.1991786e-21)
(2.6495759 -0.022424469 5.9187353e-22)
(2.6572579 -0.022175892 -2.3256779e-22)
(2.6631839 -0.018709435 -2.2980356e-22)
(2.6669007 -0.013691098 7.1540943e-23)
(2.6682054 -0.0081197601 -1.0063858e-22)
(2.6683844 -0.0039790752 -1.2022499e-21)
(2.6676521 -0.00045619679 0)
(2.7505123 0.18028492 1.3283174e-20)
(2.6402028 0.14920034 1.8011462e-22)
(2.6203296 0.092448964 -9.4938329e-21)
(2.6131634 0.052199133 3.0190757e-22)
(2.6161644 0.023796616 2.3712213e-22)
(2.6211364 0.004082654 -1.2998652e-21)
(2.6274319 -0.010467319 7.9066121e-22)
(2.6353983 -0.020821647 1.0477728e-23)
(2.6447814 -0.026712897 8.3733832e-22)
(2.6543054 -0.027921587 -9.5474356e-24)
(2.6624537 -0.025121001 -1.1430043e-21)
(2.6679692 -0.019587666 -3.271842e-22)
(2.6707192 -0.01319977 6.9922268e-22)
(2.6708288 -0.0070704535 -1.3223275e-21)
(2.66993 -0.0029659068 -1.8296634e-21)
(2.6683425 1.4083449e-05 -7.5837682e-22)
(2.7597699 0.21734224 -2.2163583e-21)
(2.6269932 0.17923503 -3.4908477e-21)
(2.6052966 0.10792182 -6.8984869e-21)
(2.6002851 0.059345543 -8.096848e-21)
(2.606576 0.026967161 -1.3957223e-22)
(2.6133498 0.0056041088 -5.8654501e-22)
(2.6201413 -0.010318872 1.2736483e-21)
(2.6283374 -0.022618874 1.1547281e-21)
(2.6385716 -0.030816716 -2.0402363e-21)
(2.6498938 -0.034067912 -1.5525048e-22)
(2.6604232 -0.032382565 6.304486e-22)
(2.6684902 -0.026929156 -6.5837629e-23)
(2.6730628 -0.019440186 8.8539374e-22)
(2.6744452 -0.011924524 -3.0892733e-22)
(2.6731213 -0.0055167061 -2.2027362e-22)
(2.6710525 -0.0017064713 1.0687588e-22)
(2.6685126 0.00051327144 -9.9874331e-22)
(2.7585652 0.25930524 2.5227572e-20)
(2.6075496 0.21385379 -1.6322447e-20)
(2.5859462 0.12420295 -1.2330278e-20)
(2.5845601 0.065503401 -2.9053005e-22)
(2.5957857 0.028929346 -3.0253385e-21)
(2.6052514 0.0065489278 -2.1317643e-21)
(2.6125814 -0.0099680273 -1.0998386e-21)
(2.6205036 -0.023821034 9.0833572e-22)
(2.6310131 -0.034479394 -1.4708884e-21)
(2.6437789 -0.04029688 -6.4196024e-22)
(2.6568307 -0.040455512 -1.1660116e-21)
(2.6678101 -0.035580635 1.9473502e-21)
(2.6751492 -0.027455139 7.3547422e-22)
(2.6782351 -0.018215569 2.2183696e-22)
(2.6778966 -0.0098793226 -9.9380271e-22)
(2.6749596 -0.0034953217 -1.5198897e-21)
(2.6716978 -0.00021266167 2.6633269e-21)
(2.6682648 0.00099732254 -1.0914776e-22)
(2.7422412 0.30533717 -1.3892724e-20)
(2.576071 0.25247182 8.2000841e-21)
(2.5609913 0.14096175 7.6264102e-21)
(2.5656169 0.070002696 1.5270308e-20)
(2.5838475 0.029019284 -1.9942287e-23)
(2.5972135 0.0064593573 1.3189483e-21)
(2.605232 -0.0095596063 -3.8435602e-21)
(2.6122911 -0.024274032 1.751078e-21)
(2.6222559 -0.037356569 4.9064657e-22)
(2.6358782 -0.04626451 -1.0171856e-21)
(2.6512818 -0.049054999 1.4156e-21)
(2.665578 -0.04555572 -1.3824296e-21)
(2.676261 -0.037265168 -2.1724034e-21)
(2.6821585 -0.026573463 -9.9157134e-22)
(2.6832412 -0.015894708 2.6535011e-22)
(2.680899 -0.0071034465 -5.13081e-22)
(2.6762426 -0.0010694965 -9.3419664e-22)
(2.6717857 0.0014833801 3.6711684e-23)
(2.667427 0.0015396408 -1.7362478e-22)
(2.7114162 0.3550217 -2.9238509e-21)
(2.5290131 0.29366669 3.3634195e-20)
(2.527484 0.15703778 3.2292898e-20)
(2.5431869 0.072118269 3.3891477e-21)
(2.5708097 0.026450877 -3.9263067e-21)
(2.5896724 0.0047685276 -1.2742411e-21)
(2.5986859 -0.0092777433 3.5866214e-22)
(2.6042098 -0.023829541 1.5418594e-21)
(2.6125883 -0.039070776 -2.4270598e-21)
(2.6261684 -0.051516626 -1.2093633e-21)
(2.6435165 -0.057818769 2.1584305e-21)
(2.6612543 -0.056663427 1.1383576e-21)
(2.6759875 -0.048971916 1.4598627e-22)
(2.6854715 -0.037192548 -2.6497105e-22)
(2.6891997 -0.024198684 1.9781367e-22)
(2.6878327 -0.012500738 -8.4459838e-22)
(2.6832942 -0.0036644481 1.2503958e-21)
(2.6769009 0.0016856071 6.0604108e-22)
(2.6712761 0.0033045502 -1.6653307e-21)
(2.6661131 0.0020950446 -2.1590403e-22)
(2.6649981 0.40480909 -3.1270191e-21)
(2.4725534 0.33662931 -2.5329944e-20)
(2.4829347 0.17016437 -3.1009786e-20)
(2.5166391 0.070785645 8.0216438e-21)
(2.5570118 0.020566789 5.0552558e-21)
(2.5830451 0.00087316344 3.7646526e-22)
(2.5936133 -0.009389162 2.4018905e-21)
(2.5968853 -0.022344714 -5.9821823e-21)
(2.6024069 -0.039214056 4.2039847e-21)
(2.6147449 -0.055523512 -9.4199599e-22)
(2.6333015 -0.066263714 0)
(2.6544033 -0.068594311 3.2059448e-21)
(2.6736718 -0.062533218 2.7000367e-21)
(2.687749 -0.050286505 3.5301952e-21)
(2.6950458 -0.035163611 2.3256934e-21)
(2.6959275 -0.020305901 6.6973581e-23)
(2.6917719 -0.0081038312 -2.1294635e-21)
(2.6849538 0.00034130721 -1.807844e-21)
(2.6768922 0.0046976886 2.6690602e-22)
(2.6701794 0.0052000268 1.4510384e-22)
(2.6643069 0.0026487644 1.9917094e-21)
(2.5995334 0.44987288 9.7262766e-22)
(2.4139393 0.38040889 -1.2193622e-20)
(2.429795 0.17868904 -5.0025633e-21)
(2.4854906 0.064431935 -8.2249815e-21)
(2.5424072 0.010485935 1.5952126e-20)
(2.5778701 -0.005729444 -2.1184062e-21)
(2.5906577 -0.010115732 -1.4417422e-21)
(2.5910224 -0.019696157 2.5566618e-21)
(2.592211 -0.037355617 4.1727972e-21)
(2.6017948 -0.057699709 -4.2774604e-21)
(2.6204982 -0.073798834 0)
(2.6445774 -0.080917521 1.97717e-21)
(2.6687277 -0.077757265 3.4461091e-21)
(2.6882624 -0.066006403 -2.3773669e-21)
(2.7003939 -0.049123161 -2.3519178e-21)
(2.7045195 -0.031059834 -2.0462545e-22)
(2.7019928 -0.014945296 -2.7068382e-21)
(2.6948493 -0.002822252 1.7396681e-21)
(2.6857845 0.0047899501 1.987976e-21)
(2.6761886 0.0078805924 -1.0059162e-21)
(2.6685136 0.0071325986 3.8887045e-21)
(2.6620423 0.0031970498 4.6588928e-21)
(2.5260712 0.48871954 -8.2652796e-22)
(2.355902 0.42206101 2.0902994e-23)
(2.3745889 0.18283462 6.0881105e-21)
(2.4497146 0.051508548 -1.1499057e-20)
(2.5275119 -0.0046059786 -4.8771305e-22)
(2.5749027 -0.015756802 3.395716e-21)
(2.5899938 -0.011979948 2.9212987e-22)
(2.5875472 -0.015731306 1.1300699e-21)
(2.5825749 -0.033052362 -5.2551697e-21)
(2.5875946 -0.057414654 3.2516728e-21)
(2.6050452 -0.079761166 -3.4774999e-21)
(2.6313994 -0.093065561 1.7412437e-21)
(2.6605115 -0.094339465 -1.0441834e-21)
(2.6863205 -0.084333671 -6.9637895e-21)
(2.7045064 -0.066450975 1.7653272e-21)
(2.7133225 -0.045205156 4.5729687e-21)
(2.7133942 -0.024872647 3.091235e-21)
(2.7070655 -0.0082472034 -2.6534178e-21)
(2.6969052 0.0031779976 6.1948472e-22)
(2.6857279 0.0095442514 4.867395e-21)
(2.6747913 0.011143462 -3.7715821e-21)
(2.6663132 0.0090528387 1.8521932e-22)
(2.6593644 0.0037254293 -1.5626358e-22)
(2.4496316 0.52106595 -5.6598529e-21)
(2.3006836 0.4588781 -2.0047718e-20)
(2.3220774 0.18345692 5.2152662e-21)
(2.4109891 0.03172034 3.5269978e-21)
(2.5124856 -0.025486125 -2.8116908e-21)
(2.5744441 -0.029929565 4.2299807e-21)
(2.5944215 -0.015090842 6.6674874e-23)
(2.5872898 -0.010577834 1.4737915e-22)
(2.5741742 -0.025867108 2.358382e-22)
(2.5724848 -0.054023108 -3.8402935e-21)
(2.5869645 -0.083433207 -5.1257779e-22)
(2.6145596 -0.10438288 -2.3686861e-21)
(2.64842 -0.11180861 -1.2148329e-21)
(2.6811193 -0.10515887 -4.7206855e-21)
(2.7066518 -0.087345313 5.3647835e-22)
(2.7216643 -0.063346563 2.768092e-21)
(2.7258481 -0.0384056 3.7921562e-21)
(2.7211742 -0.016718888 -3.0065035e-22)
(2.7108641 -0.00042162955 -1.0653816e-21)
(2.6978253 0.009696426 -2.1729578e-21)
(2.6847691 0.014458683 -5.2543113e-21)
(2.6727316 0.014399589 6.4767088e-22)
(2.6636261 0.010916312 -2.2950236e-21)
(2.656324 0.0042199012 -2.739827e-21)
(2.3751683 0.5466457 2.5458424e-21)
(2.2512695 0.48941193 -3.1190518e-20)
(2.275288 0.18085114 -2.3247072e-20)
(2.372848 0.0061830844 -1.9988453e-21)
(2.4974603 -0.052775016 6.2716647e-22)
(2.5770788 -0.048661636 -1.112412e-20)
(2.6029812 -0.019652598 -6.1455612e-22)
(2.5902151 -0.0038739722 -6.8661452e-22)
(2.5678704 -0.015280446 1.3249234e-21)
(2.5568315 -0.046887877 -1.8295441e-21)
(2.5663428 -0.084089297 -2.1561536e-21)
(2.593839 -0.11414533 -1.3914884e-21)
(2.6319017 -0.12957945 5.6206771e-21)
(2.6718505 -0.12817852 2.6495157e-22)
(2.705923 -0.11195743 3.6174903e-21)
(2.7288587 -0.085924164 -5.157481e-21)
(2.7388265 -0.056361086 -7.058905e-21)
(2.737252 -0.028782127 2.0862089e-21)
(2.7274102 -0.0068410507 4.0372446e-22)
(2.7131928 0.0082532402 -1.7689463e-21)
(2.6975499 0.016521317 7.649642e-22)
(2.6829335 0.019389941 -5.7582547e-22)
(2.6700605 0.017569634 9.441699e-21)
(2.6605083 0.012687008 6.3951736e-21)
(2.6529761 0.0046789794 -4.6840379e-23)
(2.3076362 0.56600619 0)
(2.2094743 0.51299504 2.7949399e-20)
(2.2365214 0.17500629 -2.5617126e-20)
(2.3386077 -0.02379932 -6.4061709e-21)
(2.4832154 -0.08623377 -1.4165636e-21)
(2.5832439 -0.07245487 -1.8715074e-20)
(2.6167208 -0.026073803 -1.3993436e-20)
(2.5981758 0.0045916007 1.891725e-21)
(2.5634628 -0.00087199536 0)
(2.5410088 -0.035314297 7.8180224e-21)
(2.5433098 -0.08102169 -1.0074897e-20)
(2.5691132 -0.1216171 3.4293632e-21)
(2.6105051 -0.14695885 4.1482701e-21)
(2.6577181 -0.1529411 4.1577278e-21)
(2.701345 -0.14023233 -2.0622231e-21)
(2.7339829 -0.11340554 2.0772199e-21)
(2.7517919 -0.079417026 -1.6435993e-21)
(2.7549843 -0.045415059 -2.7796128e-22)
(2.7468403 -0.016588676 6.4152861e-21)
(2.7317601 0.0044007674 2.7103052e-21)
(2.7139301 0.017470299 -1.778965e-21)
(2.6960872 0.023430517 6.7404106e-22)
(2.6802781 0.024206635 -2.6811169e-21)
(2.6668447 0.020585941 -6.3627192e-24)
(2.6570227 0.014335914 -4.4920847e-22)
(2.6493762 0.0051007831 0)
(2.2496302 0.57998754 3.2297053e-20)
(2.1762023 0.53006398 -1.1139104e-20)
(2.2053468 0.16670318 3.3910582e-20)
(2.3095676 -0.057219269 3.3425767e-20)
(2.4709294 -0.12503853 4.048827e-21)
(2.5926151 -0.10157696 2.6921832e-21)
(2.6364103 -0.034640829 1.8998445e-21)
(2.6115872 0.01484834 -4.1706486e-22)
(2.5622137 0.017626083 -8.0847065e-22)
(2.5253311 -0.018720379 -9.3762289e-22)
(2.5179862 -0.073593632 4.373422e-21)
(2.5403497 -0.12610036 -4.9128591e-21)
(2.5839145 -0.16320465 -4.2024273e-21)
(2.6380123 -0.17882184 -9.5832186e-22)
(2.6918801 -0.17194228 -7.5206543e-21)
(2.7359732 -0.14607262 -7.8715641e-21)
(2.7639264 -0.10838496 5.796152e-21)
(2.7740899 -0.067488916 8.5285551e-21)
(2.7691069 -0.030720242 2.8873809e-21)
(2.7540145 -0.0022738448 -7.5457776e-21)
(2.7339829 0.016551912 -9.9128379e-22)
(2.7130377 0.026895543 4.4190273e-21)
(2.6934982 0.030215979 1.1097046e-22)
(2.6768856 0.028795359 -1.0380937e-20)
(2.6631616 0.023394826 -1.0490643e-20)
(2.6532358 0.015841928 -7.0618268e-22)
(2.6455794 0.0054801447 8.1979427e-21)
(2.2024377 0.58933822 -1.8344037e-20)
(2.1520236 0.54166525 -7.5387851e-20)
(2.1807239 0.15694705 2.5866987e-21)
(2.284622 -0.091959661 1.574248e-20)
(2.4598134 -0.16721879 -6.9707605e-21)
(2.6039372 -0.13529726 -5.4163331e-20)
(2.6600221 -0.045458484 2.0213735e-20)
(2.6310148 0.027030194 2.1977496e-21)
(2.5646671 0.040731296 9.2555921e-22)
(2.510067 0.0033013208 3.0174172e-21)
(2.4905139 -0.061239237 -6.4198051e-22)
(2.5075881 -0.12700253 8.2717091e-22)
(2.5519833 -0.17758546 -3.0382076e-22)
(2.6121744 -0.20506627 9.8912987e-22)
(2.6765122 -0.20661569 -4.9956993e-22)
(2.7335929 -0.18404883 1.3647805e-20)
(2.7742131 -0.14395782 8.7883306e-21)
(2.7940012 -0.096135542 2.8822538e-21)
(2.794277 -0.050208255 -1.2007513e-20)
(2.7802418 -0.012790871 8.2328785e-21)
(2.7583687 0.013542948 -2.0269345e-21)
(2.7339628 0.02914071 9.0761226e-21)
(2.7105749 0.036208018 -2.8890369e-21)
(2.6898865 0.03669628 9.3981079e-21)
(2.6728569 0.033065259 3.6352342e-21)
(2.6590934 0.02595696 5.1433293e-22)
(2.6492134 0.017191681 -4.2203368e-22)
(2.6416385 0.0058145271 -5.5976828e-22)
(2.1668551 0.59523311 -9.1176051e-20)
(2.135466 0.54874699 1.6201819e-19)
(2.1618679 0.14681529 -3.7300826e-20)
(2.2630518 -0.12639567 -5.7543158e-20)
(2.4454217 -0.21010994 -3.425986e-21)
(2.6109979 -0.17110397 -5.4120061e-20)
(2.6801473 -0.057827741 -4.1411894e-20)
(2.6537028 0.041449855 2.2108962e-20)
(2.5708727 0.068808815 5.1042794e-22)
(2.4955388 0.031274227 4.1988421e-21)
(2.4609011 -0.043498663 -6.703147e-21)
(2.4709201 -0.12387667 1.2447996e-20)
(2.5147529 -0.18945865 -5.0608345e-21)
(2.5798835 -0.23083617 2.7391452e-21)
(2.6543354 -0.24354587 3.601802e-21)
(2.7255084 -0.22717468 2.7689668e-21)
(2.7813426 -0.18675154 1.3649587e-20)
(2.8139383 -0.13248051 2.3770005e-21)
(2.8221704 -0.076411591 -7.6190762e-21)
(2.8108877 -0.028099651 1.2269197e-20)
(2.7876675 0.0075739016 -8.2885645e-21)
(2.7596692 0.030175842 1.206225e-21)
(2.7317445 0.041677933 -1.8717646e-21)
(2.7066727 0.045124729 -2.7500329e-21)
(2.6853873 0.042724639 6.1110388e-21)
(2.6683029 0.036949731 9.6776528e-21)
(2.6547232 0.0282469 8.1674669e-21)
(2.6450181 0.018378571 -6.2176054e-21)
(2.6376022 0.0061034784 -8.4289583e-21)
(2.1431604 0.5986767 6.5856104e-20)
(2.1257077 0.55193375 7.5431887e-20)
(2.1496579 0.13655384 8.6766455e-21)
(2.2447792 -0.15917663 2.6881867e-20)
(2.4292875 -0.2520756 1.6251336e-20)
(2.6066354 -0.20794536 9.1960869e-20)
(2.6921779 -0.070976758 6.5439387e-21)
(2.6744602 0.058665425 -2.7355431e-20)
(2.5771536 0.10251367 1.4197495e-20)
(2.4815251 0.065751541 -3.1033764e-21)
(2.4291531 -0.020083273 9.7780247e-21)
(2.430414 -0.11644427 2.8203075e-21)
(2.4724091 -0.19832567 1.5052342e-20)
(2.541082 -0.25527206 -1.2002272e-20)
(2.6246585 -0.28178924 -1.3263652e-21)
(2.7103656 -0.27497377 -1.1830456e-20)
(2.7837683 -0.23713485 -2.0815778e-20)
(2.8327458 -0.17772086 -1.4455757e-20)
(2.852468 -0.11081988 -2.3086358e-21)
(2.8462524 -0.049614335 -2.1170562e-20)
(2.8226663 -0.0021654153 3.5254618e-21)
(2.7909271 0.029356111 -4.4894431e-21)
(2.7578826 0.046898314 1.2288626e-20)
(2.7274901 0.053724172 -4.3787089e-21)
(2.7015156 0.053414022 -8.2029968e-21)
(2.6801544 0.048192972 -1.246175e-20)
(2.6633368 0.040405897 1.9808679e-22)
(2.6501308 0.030251866 2.6149411e-21)
(2.640708 0.019401763 5.3212633e-21)
(2.633515 0.0063477732 -7.8960703e-21)
(2.1286393 0.60063106 8.1318688e-20)
(2.1224176 0.55264239 -1.4316031e-19)
(2.144123 0.1271029 2.0589399e-19)
(2.2294529 -0.19052799 -1.0289538e-19)
(2.4133881 -0.29180673 -3.2342388e-20)
(2.5981806 -0.24424241 6.4772637e-20)
(2.6954427 -0.086612591 6.8492959e-20)
(2.6952684 0.077554924 -9.3828123e-20)
(2.5796779 0.14189911 -2.1999442e-20)
(2.4643114 0.10714071 -2.4363547e-21)
(2.3950603 0.009328462 -1.3439081e-21)
(2.3860672 -0.1046238 -8.2030606e-21)
(2.4252257 -0.20385377 9.5594879e-21)
(2.4959267 -0.277507 4.5027086e-21)
(2.5869837 -0.32012986 2.073186e-21)
(2.6867863 -0.32653348 4.1280016e-21)
(2.779658 -0.29517431 1.7440462e-21)
(2.8489188 -0.23295332 -2.4638822e-20)
(2.8844649 -0.1551734 -7.1704278e-21)
(2.8866817 -0.079003823 -6.0456572e-21)
(2.8642238 -0.016898785 -6.0724997e-21)
(2.828808 0.0261969 3.4654756e-21)
(2.7898703 0.051513469 3.3500159e-21)
(2.7532061 0.063032751 -1.3718099e-20)
(2.721452 0.064916903 1.0479083e-20)
(2.6953215 0.060904582 -1.1121086e-20)
(2.6743477 0.053031601 -6.0038007e-21)
(2.6580688 0.043412432 -2.5053665e-21)
(2.6453907 0.031969872 2.6361077e-21)
(2.6363356 0.020265087 5.1300003e-21)
(2.6294157 0.0065492274 -7.9232862e-21)
(2.1238511 0.60131796 -9.1365605e-20)
(2.1234056 0.55310662 -4.6406135e-21)
(2.1423189 0.1177221 2.3522272e-21)
(2.2158276 -0.21782547 -1.4695633e-19)
(2.3957192 -0.32906471 -3.6944949e-20)
(2.5854108 -0.28008282 -4.1276224e-21)
(2.6907301 -0.10236447 -8.2368059e-20)
(2.7056998 0.095728779 8.6698462e-20)
(2.5849304 0.18698271 -1.3074801e-20)
(2.4398679 0.15457384 3.3995231e-21)
(2.3566671 0.044805407 8.3677691e-21)
(2.3378371 -0.088506368 -2.0059659e-21)
(2.3735799 -0.20599017 1.5028719e-21)
(2.4449005 -0.29683404 -5.7878734e-22)
(2.5411854 -0.35714804 -1.6969472e-20)
(2.6534628 -0.38036326 0)
(2.7667286 -0.36028573 3.4415989e-20)
(2.8602688 -0.2991054 4.2430084e-20)
(2.9170545 -0.21136561 1.3590161e-20)
(2.9321908 -0.11834392 3.2227681e-20)
(2.9133537 -0.038198104 -2.6893186e-22)
(2.874632 0.019845621 6.9460679e-21)
(2.8289566 0.055444761 -6.9348783e-22)
(2.7847083 0.073003657 1.7871059e-21)
(2.7459873 0.078015464 -6.4211403e-21)
(2.7139423 0.074986544 4.1934566e-21)
(2.6883215 0.06748616 8.5862546e-21)
(2.6681241 0.057205973 1.5570143e-21)
(2.6526013 0.045966367 2.2412992e-22)
(2.6405698 0.033407661 -1.1587228e-20)
(2.6319468 0.020975935 1.8756493e-22)
(2.6253382 0.0067104163 1.1388169e-20)
(2.1271309 0.60008808 5.2691993e-22)
(2.1383495 0.55365389 1.9299918e-21)
(2.1451176 0.11370406 -1.5063743e-19)
(2.2050262 -0.24379319 1.244708e-19)
(2.3764433 -0.36186405 2.7636811e-20)
(2.5642443 -0.3121739 -3.2599404e-20)
(2.6794477 -0.11526661 1.1744089e-20)
(2.6929682 0.11422129 8.5000091e-20)
(2.5865229 0.23766179 4.6722474e-20)
(2.4136942 0.20858875 -6.5235315e-21)
(2.3106154 0.085036023 -1.7871745e-21)
(2.2854041 -0.068447248 -5.9117168e-21)
(2.3179396 -0.20503022 2.284289e-20)
(2.3889443 -0.31297687 -4.2021428e-21)
(2.488001 -0.39175187 -3.1793404e-20)
(2.6100288 -0.43489552 -2.9077816e-20)
(2.7430894 -0.43139363 2.778964e-20)
(2.8640809 -0.37645406 4.3867973e-20)
(2.9481868 -0.28127655 8.6476481e-21)
(2.9824684 -0.17011251 -4.9356566e-21)
(2.9709544 -0.068093223 9.9234616e-21)
(2.9298826 0.0091291301 -2.4960628e-20)
(2.87669 0.058295516 -3.8964138e-21)
(2.823266 0.083988771 -2.4324833e-21)
(2.7759203 0.092950984 -6.674897e-21)
(2.7366768 0.091425259 1.2106621e-20)
(2.7052987 0.083760292 2.1676426e-21)
(2.6807434 0.073104764 1.62125e-20)
(2.6616294 0.060711433 1.1725906e-22)
(2.6470264 0.048079479 -3.2225773e-21)
(2.6357268 0.034578618 -2.1188271e-21)
(2.6275811 0.021544238 -5.9307257e-21)
(2.6213109 0.0068344083 8.1896593e-21)
(2.1392269 0.59635925 -4.4031696e-23)
(2.1632194 0.55116772 2.9601425e-20)
(2.1569837 0.11428239 0)
(2.1930726 -0.26312365 9.6291714e-20)
(2.3569598 -0.39161517 7.3700752e-20)
(2.5381673 -0.34419259 4.6014845e-20)
(2.6583717 -0.12355056 8.9832753e-20)
(2.6601995 0.13505792 -1.4056857e-19)
(2.5591166 0.28815981 1.5233392e-20)
(2.388973 0.26971985 1.9363094e-20)
(2.2601237 0.12931704 -1.1994976e-20)
(2.2274805 -0.045577747 3.3418399e-21)
(2.258866 -0.20159292 -1.4274104e-21)
(2.3292854 -0.32607876 1.1206014e-20)
(2.4289463 -0.42330913 1.5251163e-21)
(2.5574933 -0.48907382 1.6278845e-20)
(2.708518 -0.50794291 -5.2506118e-20)
(2.8590231 -0.46593026 -1.5421241e-19)
(2.976302 -0.36703944 -6.726269e-20)
(3.0368331 -0.23703927 -1.3348549e-20)
(3.0378567 -0.10903797 -4.4116758e-21)
(2.9962855 -0.0074613199 -1.957733e-20)
(2.9348532 0.059591208 1.0790707e-20)
(2.8704528 0.096131532 -3.6837226e-21)
(2.812398 0.11047144 1.1849587e-20)
(2.7641595 0.11069917 -1.4129577e-20)
(2.7257725 0.10299385 1.0347286e-20)
(2.6958563 0.091155104 -3.5203397e-21)
(2.6727993 0.077754257 -6.4012764e-22)
(2.6549938 0.063567179 -4.1076137e-21)
(2.6414236 0.04977465 1.0412679e-20)
(2.6309114 0.035500844 8.66372e-21)
(2.6232718 0.021981578 -1.277269e-20)
(2.6173574 0.0069245466 -2.8955185e-21)
(2.1613354 0.59112235 -1.1528042e-20)
(2.1930894 0.54789954 -5.0974746e-20)
(2.1748345 0.1149844 -2.3026349e-22)
(2.1911344 -0.27692797 -1.7657188e-19)
(2.3319619 -0.41861308 4.0323031e-22)
(2.5079325 -0.3687862 2.1321223e-21)
(2.6280469 -0.13162533 -1.3832789e-19)
(2.6242092 0.15803823 7.4898302e-21)
(2.5154857 0.3364431 -2.4561425e-21)
(2.3583232 0.33176721 8.1971451e-21)
(2.2129667 0.1782115 7.0584502e-23)
(2.1642904 -0.02149131 0)
(2.1968395 -0.19656919 -9.6914811e-21)
(2.2671764 -0.33659794 1.4247372e-20)
(2.365764 -0.45130541 -2.2796707e-20)
(2.4971533 -0.54137766 1.454808e-20)
(2.6630287 -0.58869866 7.9261895e-20)
(2.8441388 -0.56849464 3.1427439e-20)
(3.001059 -0.47288428 -7.1209646e-20)
(3.0967434 -0.32440922 -8.7620342e-20)
(3.1165412 -0.16460964 -1.1808088e-20)
(3.0761522 -0.031629065 -1.1691761e-20)
(3.0055776 0.058730886 2.2014646e-20)
(2.9280985 0.10971249 -2.2619859e-20)
(2.856822 0.13123408 1.3087338e-20)
(2.797305 0.13387563 1.7437632e-21)
(2.7501641 0.12583407 1.3394764e-20)
(2.7137709 0.11259581 5.0663342e-21)
(2.6859262 0.097164031 -4.3696874e-21)
(2.6646771 0.081466316 5.2683416e-22)
(2.6483293 0.065810119 -6.7527184e-21)
(2.6358602 0.05108248 -1.1032996e-21)
(2.6261649 0.036195448 1.4976358e-23)
(2.6190459 0.022300428 -3.1967592e-21)
(2.6134964 0.0069842912 -3.5511817e-21)
(2.1910054 0.58486756 -1.7831294e-20)
(2.226793 0.54342475 -4.0743005e-20)
(2.195057 0.11788448 5.1646196e-20)
(2.1915814 -0.28696178 -6.2495907e-20)
(2.3043451 -0.44200624 1.9828685e-20)
(2.4705797 -0.39520845 -3.7208513e-20)
(2.5893535 -0.13259273 -3.7569043e-21)
(2.5798259 0.18236999 -9.1942459e-20)
(2.4688208 0.38311259 -5.2340398e-21)
(2.3179234 0.39009267 -4.5853033e-20)
(2.1692116 0.22996608 -7.3710695e-21)
(2.1005623 0.0039313823 -5.8556267e-21)
(2.131918 -0.19131621 -9.0258393e-22)
(2.203846 -0.34515377 -8.5279404e-21)
(2.3001717 -0.47533122 -1.6257682e-20)
(2.4301516 -0.58951993 -2.8274894e-20)
(2.6051895 -0.66937819 -1.2803199e-20)
(2.814154 -0.67969043 8.7319061e-20)
(3.0156437 -0.59799896 2.0570388e-19)
(3.158991 -0.43752763 2.9583454e-20)
(3.2113186 -0.24309936 7.4583013e-20)
(3.176134 -0.06767958 -6.8139637e-20)
(3.0930161 0.055006108 -8.5215856e-21)
(2.998327 0.12514512 3.5016539e-20)
(2.9107536 0.15621965 -1.3284158e-20)
(2.8371957 0.16202293 1.9810586e-21)
(2.7790883 0.15356709 -9.1097108e-21)
(2.7346737 0.13816962 1.0510195e-20)
(2.7011316 0.12022629 5.4297352e-21)
(2.6757821 0.10183956 -9.3614236e-21)
(2.6565365 0.084300226 3.9404065e-21)
(2.6417287 0.067489195 6.7327854e-21)
(2.6303907 0.052038344 -2.1024185e-20)
(2.6215206 0.036685134 1.4635437e-23)
(2.6149249 0.022513549 3.4029813e-21)
(2.6097428 0.0070170809 2.4933354e-22)
(2.2241794 0.57826707 2.0294845e-20)
(2.2613592 0.53893611 3.477987e-20)
(2.2198579 0.12264745 4.7799173e-22)
(2.1968427 -0.29285777 9.050317e-20)
(2.2777519 -0.46101203 5.3602355e-20)
(2.4272745 -0.42417932 2.0389196e-20)
(2.5451979 -0.14134921 1.5685551e-19)
(2.531635 0.20929411 7.5946161e-21)
(2.418435 0.42899679 -9.2025063e-20)
(2.2700382 0.44513814 -3.200404e-20)
(2.1230299 0.28247831 2.0649165e-21)
(2.0402329 0.03151791 0)
(2.0648972 -0.18665659 2.4814904e-21)
(2.1403242 -0.35257423 0)
(2.2338515 -0.4952589 3.2424475e-21)
(2.3580947 -0.63122222 -1.8440599e-20)
(2.5341015 -0.74456769 -9.220929e-21)
(2.7618914 -0.7903343 -8.6823022e-20)
(3.0040758 -0.72973908 -7.9192986e-20)
(3.2019559 -0.56619674 2.2863718e-19)
(3.3058792 -0.34439916 3.3647758e-20)
(3.2988368 -0.12362863 1.7232304e-19)
(3.2071929 0.044019223 -7.4564441e-20)
(3.0871013 0.14268397 4.1311851e-20)
(2.9760426 0.18672503 3.4322131e-21)
(2.8849307 0.19664739 8.3338116e-23)
(2.8132235 0.18752617 -1.7942084e-20)
(2.7588541 0.16927548 -7.3208435e-21)
(2.7183685 0.14771032 -1.1617586e-20)
(2.6882542 0.12597307 5.8112597e-21)
(2.6656532 0.1052766 1.0376458e-20)
(2.6485076 0.086333473 -4.1974366e-21)
(2.6352661 0.068660477 1.5725383e-20)
(2.6250583 0.05267994 -3.7508575e-21)
(2.6170043 0.036993045 5.9113163e-24)
(2.6109254 0.022633522 -2.0778112e-23)
(2.6061078 0.0070262485 7.612997e-21)
(2.2579415 0.57163449 1.368523e-20)
(2.29599 0.53450169 1.7377463e-20)
(2.2465151 0.12960125 -2.7069005e-20)
(2.2046789 -0.29389546 3.071924e-20)
(2.2531602 -0.47531382 -5.6442666e-20)
(2.3803648 -0.44833205 -2.1965907e-20)
(2.4934117 -0.15953891 1.5811552e-21)
(2.4824216 0.22715746 1.8177057e-19)
(2.3676518 0.47273178 2.3294625e-21)
(2.2193251 0.49640076 5.2295095e-20)
(2.0734703 0.33384802 4.2713013e-20)
(1.9831384 0.061329827 1.4507988e-21)
(1.9982601 -0.18250263 2.9750417e-20)
(2.0771432 -0.35980336 3.0609438e-21)
(2.168434 -0.51137701 1.1161174e-20)
(2.2833288 -0.66503672 3.4910139e-20)
(2.4512628 -0.80986039 2.3086214e-20)
(2.6853 -0.89291925 -4.89769e-20)
(2.9560439 -0.85745275 -2.031202e-19)
(3.2004252 -0.69113174 -1.8915829e-19)
(3.3602707 -0.444842 -1.6988191e-19)
(3.4031 -0.18844189 1.3971134e-19)
(3.3407058 0.022187905 7.7397123e-20)
(3.2056464 0.15896347 6.3068638e-20)
(3.0596343 0.22398887 4.4772838e-20)
(2.9418119 0.2396553 -3.6702293e-21)
(2.8531336 0.22953057 -5.6762781e-21)
(2.7865629 0.20736088 0)
(2.7376102 0.18103118 -8.4944899e-21)
(2.7018322 0.15460415 7.5080608e-21)
(2.675468 0.12998833 -1.7332682e-20)
(2.6557226 0.107597 1.3851079e-20)
(2.6406921 0.087653725 -8.4345389e-21)
(2.6289984 0.069383154 7.4308894e-21)
(2.6198956 0.053045365 1.9676505e-20)
(2.6126355 0.037141905 -2.742757e-25)
(2.6070596 0.022672407 3.8165895e-21)
(2.6025991 0.0070149451 -2.9068223e-22)
(2.2901734 0.565083 -2.1215399e-21)
(2.3299667 0.52994045 1.7371528e-20)
(2.2765811 0.1383068 -1.6166351e-20)
(2.2133378 -0.2896164 -8.2700183e-21)
(2.2296903 -0.48417329 -6.5355894e-20)
(2.3313742 -0.4674025 -6.8868811e-21)
(2.4342161 -0.17224669 -5.3027899e-20)
(2.4296128 0.23191091 -4.2643134e-20)
(2.3170671 0.51126257 9.9308329e-20)
(2.169541 0.54416075 -1.7403867e-20)
(2.0232881 0.38111449 -4.0489616e-21)
(1.9286039 0.09122569 -2.8626397e-21)
(1.9347284 -0.17776711 -3.5734301e-20)
(2.0148466 -0.36786191 -8.99907e-21)
(2.1054017 -0.52424637 9.1185772e-22)
(2.2085355 -0.6905161 8.3398911e-21)
(2.3604358 -0.86258043 5.1674468e-20)
(2.58736 -0.98304206 4.6720277e-20)
(2.8732625 -0.97746979 -9.4802144e-20)
(3.1570881 -0.81334931 -2.0190013e-20)