/*--------------------------------*- C++ -*----------------------------------*\
| =========                 |                                                 |
| \\      /  F ield         | OpenFOAM: The Open Source CFD Toolbox           |
|  \\    /   O peration     | Version:  v2012                                 |
|   \\  /    A nd           | Website:  www.openfoam.com                      |
|    \\/     M anipulation  |                                                 |
\*---------------------------------------------------------------------------*/
FoamFile
{
    version     2.0;
    format      ascii;
    class       surfaceVectorField;
    location    "47.212973535978783";
    object      Uf;
}
// * * * * * * * * * * * * * * * * * * * * * * * * * * * * * * * * * * * * * //

dimensions      [0 1 -1 0 0 0 0];


internalField   nonuniform List<vector> 
18180
(
(2.6591826 0.0020945609 1.3301014e-22)
(2.6571006 0.00095459785 1.0322556e-22)
(2.660505 0.0044241611 2.2998051e-22)
(2.6577525 0.0030781554 -2.994139e-23)
(2.6561944 0.0020233496 -5.5511839e-23)
(2.6554843 0.00082197468 -5.3758608e-23)
(2.6625581 0.0071335212 1.2580012e-22)
(2.6589566 0.005593015 1.9726249e-22)
(2.656846 0.0043175155 -3.825957e-23)
(2.6557934 0.0026397552 -1.3870976e-23)
(2.6549163 0.0015200126 -1.1532933e-23)
(2.6543111 0.00055298049 -3.8326379e-23)
(2.6653109 0.010487422 -2.6250979e-22)
(2.6606051 0.008503425 -1.368675e-22)
(2.6578194 0.0070473166 -6.6714371e-23)
(2.6564652 0.0049001948 -2.5163283e-22)
(2.6552204 0.0032963373 -2.3191635e-22)
(2.6543282 0.001748211 2.9707151e-23)
(2.6537721 0.00084352485 4.3515705e-24)
(2.653682 0.00021437122 3.6894706e-23)
(2.6687508 0.014683992 3.0351449e-22)
(2.6626221 0.012367572 4.2516786e-24)
(2.6589798 0.010503678 1.2788729e-22)
(2.6572339 0.007536179 3.2662662e-23)
(2.6556298 0.005478561 -1.4141305e-22)
(2.654542 0.0034194377 -1.9094792e-22)
(2.6537186 0.0019283987 5.7645186e-23)
(2.6534644 0.00062257969 1.1219593e-23)
(2.6533624 2.8305651e-05 4.1987951e-23)
(2.6536617 -0.00012189065 1.2027374e-22)
(2.672887 0.019936062 1.6143788e-22)
(2.664997 0.017082648 5.2540416e-22)
(2.660261 0.01489035 2.4468942e-22)
(2.6580498 0.0111324 3.0479869e-22)
(2.6559696 0.0083068343 2.172003e-22)
(2.6545708 0.0053493471 1.0007137e-22)
(2.6535642 0.0033581222 5.6924494e-23)
(2.6533264 0.0015330471 8.2514627e-23)
(2.6530629 0.00026559318 3.9255326e-23)
(2.6532832 -0.0006447491 1.0346347e-23)
(2.653575 -0.00080070155 8.411458e-23)
(2.6542195 -0.00038479312 -7.2426066e-23)
(2.6777303 0.026481644 7.0745081e-22)
(2.6676121 0.023122564 -3.65018e-22)
(2.6615434 0.020441332 -2.7758139e-23)
(2.6588141 0.015553717 -1.2433534e-22)
(2.6561513 0.011949347 -7.3240833e-23)
(2.6543848 0.0081513702 2.1508551e-22)
(2.653087 0.0053172637 1.0376463e-22)
(2.6527917 0.0025367566 -2.240696e-23)
(2.6525334 0.00075416291 1.3323443e-24)
(2.6529282 -0.00059192887 2.8034872e-23)
(2.653141 -0.0014800773 3.8548625e-25)
(2.6537911 -0.0019232991 2.6235308e-23)
(2.6544143 -0.0015680519 -1.2343813e-22)
(2.6552749 -0.00060584587 -1.3999723e-22)
(2.6833125 0.034572908 1.315636e-21)
(2.6704312 0.030550204 9.9518899e-22)
(2.6626892 0.027381191 -1.9013186e-23)
(2.6593516 0.021251385 -3.5457871e-22)
(2.6560129 0.016586094 -4.5167861e-22)
(2.6538288 0.011609719 -1.7290887e-22)
(2.6521891 0.0079433991 9.9418435e-23)
(2.6518369 0.0043014197 4.409083e-23)
(2.6515099 0.0016219555 -7.5185371e-23)
(2.6520358 -0.00065558313 -2.02947e-23)
(2.6524089 -0.0019917185 4.7255141e-24)
(2.6533405 -0.0027292624 -9.640539e-24)
(2.6539697 -0.0031626217 1.4757982e-23)
(2.6549406 -0.003095509 -9.5909528e-23)
(2.6557777 -0.0022508785 -1.1069384e-22)
(2.6567388 -0.00081556834 9.7778896e-23)
(2.6896585 0.044506589 6.7699905e-22)
(2.6733289 0.039730782 2.7318476e-23)
(2.6635344 0.035947395 -2.9801071e-22)
(2.6595349 0.028235067 -4.5745831e-22)
(2.6553835 0.022364205 -8.1849837e-22)
(2.6527129 0.016131915 -6.1804576e-22)
(2.6506884 0.011355511 -3.6343895e-22)
(2.6502915 0.0065191333 9.8359127e-23)
(2.6498937 0.002983731 4.7244488e-23)
(2.6505685 -8.505101e-05 -5.0721462e-23)
(2.6510596 -0.0022896321 1.8287828e-24)
(2.6522991 -0.0038866358 -2.2511931e-23)
(2.6531885 -0.0046605409 -3.6603244e-23)
(2.654498 -0.0047013496 2.913249e-23)
(2.6554399 -0.0046362671 -7.531122e-23)
(2.6566012 -0.0040606573 -7.3112681e-23)
(2.6575403 -0.0027917971 1.25572e-22)
(2.6584933 -0.00097803971 1.6320945e-23)
(2.6967987 0.056616039 1.2231818e-21)
(2.6761878 0.050883932 6.0969955e-22)
(2.6638545 0.04638629 -8.1907485e-23)
(2.6591388 0.036787851 -3.485374e-22)
(2.6540617 0.029411177 -5.3360235e-22)
(2.6508825 0.021635217 -4.8108357e-22)
(2.6484162 0.01563578 -2.9216407e-22)
(2.6479711 0.009568378 -7.6344914e-23)
(2.6475127 0.0049065881 3.6710867e-22)
(2.6483768 0.00072745642 -6.9877025e-23)
(2.6490017 -0.0022674205 -1.6486211e-22)
(2.6505639 -0.004551737 9.0530449e-23)
(2.651739 -0.0061111738 6.8843884e-23)
(2.6535021 -0.0069007083 2.1620211e-23)
(2.6547615 -0.007032414 8.5020343e-23)
(2.656284 -0.006361719 -3.4365482e-23)
(2.6574138 -0.005799112 -3.1614771e-23)
(2.6586233 -0.0047526663 1.6272465e-22)
(2.6595602 -0.0031443819 5.9782905e-23)
(2.6604025 -0.0010635786 -5.7395148e-22)
(2.7047511 0.071287705 -4.4347822e-22)
(2.6788271 0.064355456 1.1745874e-21)
(2.6633697 0.058961076 5.224097e-22)
(2.65792 0.047011342 3.8694786e-22)
(2.6517913 0.037818635 1.4127215e-22)
(2.6481072 0.028285952 4.6530087e-22)
(2.6451906 0.020813784 5.3153143e-22)
(2.6447526 0.013296687 -4.6900509e-22)
(2.6442309 0.0074343531 -2.6683239e-22)
(2.6452803 0.0021496485 2.5971622e-22)
(2.6460772 -0.0018897863 -1.5722714e-22)
(2.6480328 -0.0051780544 -3.711022e-22)
(2.6495061 -0.0074353463 -1.31799e-22)
(2.6517445 -0.0087740353 1.9629864e-22)
(2.6534287 -0.009569448 1.5349775e-22)
(2.6555278 -0.0094950291 5.0620024e-23)
(2.6569993 -0.0089618622 -6.2116437e-23)
(2.6585597 -0.0076098227 -2.8102998e-23)
(2.6597423 -0.0065861685 1.5805357e-22)
(2.6608586 -0.0051338941 -3.2993387e-23)
(2.6616955 -0.0032861996 -6.3558897e-22)
(2.6623305 -0.0010640167 -3.6576677e-22)
(2.7135111 0.088955764 -3.2101628e-21)
(2.6810241 0.080479258 -1.6359999e-21)
(2.6617178 0.073954559 -1.1801868e-22)
(2.6555488 0.059085731 2.385273e-21)
(2.6482624 0.047640217 2.2871365e-21)
(2.644148 0.036022532 8.209885e-23)
(2.6408034 0.026853039 3.8902302e-22)
(2.640467 0.01779197 1.7985675e-22)
(2.6399388 0.010548202 -7.743838e-22)
(2.6412098 0.0040098498 -5.2019704e-22)
(2.6421825 -0.0011012015 -2.63704e-23)
(2.6444927 -0.0053901728 -4.1869817e-22)
(2.6463313 -0.0085877816 -6.2615733e-22)
(2.6491403 -0.010815021 -1.9879067e-22)
(2.6512685 -0.012187667 1.1185153e-22)
(2.6539846 -0.012501938 1.0167428e-22)
(2.6559993 -0.012477371 4.2588235e-24)
(2.6582354 -0.011527061 1.0705369e-22)
(2.6597532 -0.010351317 1.4190107e-22)
(2.6611755 -0.0083828293 5.3137493e-23)
(2.6622758 -0.0069606142 -1.2940131e-22)
(2.6631637 -0.0051896886 -5.8307958e-23)
(2.6638082 -0.0032160663 2.0580662e-22)
(2.6641533 -0.00098291396 8.8797678e-22)
(2.7230451 0.11009806 -5.8721139e-21)
(2.6824852 0.099645821 -2.3595322e-21)
(2.6584475 0.091673339 -9.4594795e-22)
(2.6516231 0.073131896 5.0491329e-22)
(2.6430879 0.058883666 2.8939808e-21)
(2.6387003 0.044810091 1.561094e-21)
(2.6350246 0.033636274 -5.4610363e-22)
(2.6349784 0.022884289 5.6288973e-22)
(2.6345434 0.014147766 3.6902602e-22)
(2.6360908 0.0063791271 -3.7059089e-22)
(2.6372806 6.8742717e-05 -1.2469174e-22)
(2.6399519 -0.0053293306 -5.6526601e-25)
(2.6421171 -0.0094972865 -3.7290827e-22)
(2.6454404 -0.012633605 -7.1273049e-22)
(2.6480996 -0.014835282 -3.0808997e-22)
(2.6515688 -0.01590316 5.5052935e-22)
(2.6541629 -0.016310644 5.4797144e-22)
(2.6571452 -0.015557859 3.8726237e-22)
(2.6593029 -0.014700659 4.8966017e-22)
(2.6614683 -0.012900334 2.7171304e-22)
(2.6628651 -0.011138018 1.8947797e-22)
(2.6639777 -0.0086442252 3.1320811e-22)
(2.6648665 -0.0069068103 3.8645401e-22)
(2.6653998 -0.004921518 -6.0657584e-23)
(2.6657687 -0.0029414156 5.8148326e-22)
(2.665764 -0.00082522086 7.5131591e-22)
(2.7334345 0.13521868 -3.2236319e-22)
(2.6828681 0.12227055 -3.6181126e-21)
(2.6530111 0.11244702 -3.3346381e-22)
(2.6456436 0.089274021 -2.6793247e-21)
(2.6357998 0.071504891 -1.2474959e-21)
(2.6314111 0.054496998 5.0437467e-22)
(2.627588 0.040955295 -8.0133997e-22)
(2.6281293 0.028404178 -4.730647e-22)
(2.6279796 0.018042333 5.8284968e-22)
(2.6299207 0.0090694175 1.0657427e-21)
(2.6313874 0.0015693462 3.7433589e-22)
(2.634361 -0.0048841311 1.946475e-22)
(2.6368626 -0.010108826 3.1897406e-22)
(2.6406532 -0.014310596 -5.9955171e-22)
(2.6437887 -0.017402583 -9.2610532e-22)
(2.6479667 -0.01930727 -1.0576901e-23)
(2.6512642 -0.020417543 8.1001866e-22)
(2.6551947 -0.020243891 3.9444602e-22)
(2.658057 -0.019641683 2.3927306e-22)
(2.6610752 -0.01781023 2.4871008e-22)
(2.6631794 -0.016142624 3.7750807e-23)
(2.6650589 -0.013551493 1.9555987e-22)
(2.6661712 -0.011283848 3.1320804e-22)
(2.6668126 -0.0083784265 2.2973244e-22)
(2.6673697 -0.006424857 -1.9914308e-22)
(2.6674379 -0.0043394053 -7.626248e-22)
(2.6674716 -0.0024667027 -6.2130249e-22)
(2.6670688 -0.0005906087 0)
(2.7447934 0.16485571 1.0088134e-20)
(2.6819982 0.14879728 3.3702813e-21)
(2.6448457 0.13663718 2.9882734e-22)
(2.6370141 0.1076082 -4.7239518e-21)
(2.6258368 0.085400514 -6.8413193e-21)
(2.6218626 0.0648684 -1.8339579e-21)
(2.6181948 0.048500718 -1.5922659e-22)
(2.6197694 0.034036292 -1.9688684e-22)
(2.6202058 0.021935932 1.2254703e-22)
(2.6227314 0.011899457 -6.4959176e-22)
(2.6246062 0.0032490672 -2.2244964e-22)
(2.6278507 -0.0041604288 8.6154377e-22)
(2.6306433 -0.01040096 6.9738191e-22)
(2.6347518 -0.015661363 2.9902493e-22)
(2.638317 -0.019758523 -5.7401349e-22)
(2.6431434 -0.022727635 -1.6469196e-22)
(2.6470981 -0.024661106 7.1873281e-22)
(2.6519797 -0.025220179 2.8600537e-22)
(2.655732 -0.025160405 -1.1730808e-22)
(2.6598923 -0.023673784 -6.9560368e-22)
(2.6628065 -0.022046146 -7.0175592e-22)
(2.6656061 -0.019156169 -2.7933116e-22)
(2.6674529 -0.016731109 -1.3452329e-22)
(2.668831 -0.013441266 3.9311144e-22)
(2.6695045 -0.010770766 3.1273193e-22)
(2.6695296 -0.0075861028 -7.2013504e-22)
(2.6696476 -0.0055272392 -1.2643053e-21)
(2.6691666 -0.0034637529 -1.5206954e-21)
(2.6688293 -0.0018009726 -9.4553894e-22)
(2.6679889 -0.00021700413 -3.8516571e-22)
(2.7552966 0.19951493 5.2730071e-21)
(2.6796069 0.17974375 4.7535947e-21)
(2.633376 0.16470492 -1.717046e-21)
(2.6251288 0.1282175 -3.2804724e-21)
(2.6125605 0.10040554 -8.1525488e-21)
(2.6095714 0.075615433 -8.7835107e-21)
(2.6065078 0.055857807 -4.0386107e-21)
(2.6097408 0.039368504 8.4019267e-23)
(2.611209 0.025418769 4.2443907e-23)
(2.6146219 0.014544958 -1.9114718e-22)
(2.6171122 0.0048714971 -9.3121515e-22)
(2.6206012 -0.0032411196 8.8473742e-24)
(2.623664 -0.010384889 1.0402737e-21)
(2.6278966 -0.016646932 9.7580634e-22)
(2.6317491 -0.021755295 6.0183933e-22)
(2.6370242 -0.025904688 -1.032438e-21)
(2.6415721 -0.028847949 -6.4982574e-22)
(2.6473864 -0.030453444 3.3253224e-22)
(2.6520254 -0.031121925 -8.4848566e-23)
(2.6574118 -0.030190413 3.1594594e-22)
(2.6614043 -0.028890138 -2.2646171e-22)
(2.6655122 -0.0260407 -5.9515996e-22)
(2.6682385 -0.023401148 -1.9211741e-22)
(2.6705461 -0.019512742 2.89545e-22)
(2.6719303 -0.016413873 7.9543727e-22)
(2.6726022 -0.012551219 1.8645511e-22)
(2.6726978 -0.0095977678 -7.9859979e-22)
(2.6719853 -0.0062802059 -7.6001751e-22)
(2.6715793 -0.0042384903 -9.9794081e-22)
(2.6704952 -0.0023253135 -8.4464369e-22)
(2.669743 -0.00091878223 -3.1122903e-22)
(2.6684419 0.00026801611 -8.8064229e-22)
(2.7591473 0.23928518 1.1966587e-20)
(2.672682 0.21556002 -9.3892203e-21)
(2.6169448 0.19715821 -1.0122203e-20)
(2.6093189 0.15126034 -8.0735912e-21)
(2.5952963 0.11632672 -9.7056382e-21)
(2.594012 0.086351727 -3.5385859e-21)
(2.5921583 0.062505463 -4.0625283e-21)
(2.5978826 0.043878718 -5.5291165e-21)
(2.6009995 0.027970833 -1.6309473e-21)
(2.6057361 0.016583513 -1.1526294e-21)
(2.6091645 0.0061050267 -1.3851236e-21)
(2.6129108 -0.0023150088 -8.475696e-22)
(2.6162343 -0.010122799 4.7011688e-23)
(2.6203311 -0.017185295 1.0878705e-21)
(2.6242888 -0.023235333 1.0273903e-21)
(2.6297206 -0.028650528 -1.8055673e-22)
(2.6346653 -0.032721654 -1.7459912e-21)
(2.6412351 -0.035637978 -1.3291098e-21)
(2.6467336 -0.037308816 -4.067875e-22)
(2.6534229 -0.037316549 -6.693094e-22)
(2.6585665 -0.036581174 -2.9798384e-22)
(2.66417 -0.034009166 1.2977663e-21)
(2.6681387 -0.031415702 9.74603e-22)
(2.6718617 -0.027196782 3.4519695e-22)
(2.6741411 -0.023595533 8.079137e-22)
(2.6756782 -0.018817419 5.4789431e-22)
(2.6764039 -0.015160146 -3.4624488e-23)
(2.6761885 -0.010884335 -6.572789e-22)
(2.6755892 -0.00778213 -6.2003522e-22)
(2.6740471 -0.0044885759 -8.813217e-22)
(2.6730716 -0.0025847768 -7.33826e-22)
(2.6713703 -0.00094666061 1.4072461e-21)
(2.6701586 0.00012500855 8.9375145e-22)
(2.6683817 0.00075949086 -5.4622781e-22)
(2.750129 0.2836093 5.0104327e-21)
(2.6546032 0.25582131 1.6569273e-20)
(2.5912816 0.23390887 -3.6493097e-21)
(2.5875966 0.17679945 -4.2562397e-21)
(2.5730495 0.13292077 -2.0167149e-21)
(2.574662 0.096642036 1.7034679e-21)
(2.5747703 0.067827694 7.7512916e-21)
(2.5840408 0.046951052 -1.5293869e-22)
(2.589616 0.028969064 -1.4721469e-21)
(2.596269 0.017502098 -8.1621659e-22)
(2.6010974 0.0065252249 -3.4842494e-22)
(2.6051665 -0.0016430544 -3.0090544e-21)
(2.6087832 -0.0097309194 -2.5178085e-21)
(2.6124399 -0.017243211 3.4997496e-22)
(2.6162593 -0.024040637 1.343871e-21)
(2.6214307 -0.030704433 6.902193e-22)
(2.6264873 -0.035971502 -4.5714978e-22)
(2.6335176 -0.040472776 -1.2401477e-21)
(2.6396958 -0.043403844 -8.3588061e-22)
(2.647606 -0.044751053 4.0448525e-22)
(2.6539629 -0.044928426 1.6819371e-22)
(2.6612736 -0.043049513 -1.2760814e-21)
(2.6666565 -0.040762142 2.2647876e-22)
(2.6720923 -0.036437524 -1.4799826e-22)
(2.6757238 -0.032536593 -7.6735377e-22)
(2.6786956 -0.027006836 -1.4293854e-22)
(2.6802628 -0.022539682 -4.0526565e-22)
(2.6807654 -0.017035209 2.4736032e-22)
(2.6806587 -0.012966571 -3.4306358e-22)
(2.6794116 -0.0084674529 -7.516847e-22)
(2.6780291 -0.0053643027 -9.9956888e-22)
(2.6756047 -0.0022614343 -1.2233534e-21)
(2.6740465 -0.00060927979 8.0415064e-22)
(2.6717394 0.00065006198 1.3266959e-21)
(2.6700843 0.0012015498 -3.3770139e-23)
(2.6678276 0.0012731807 -1.4106003e-22)
(2.7263111 0.33148871 -8.224106e-21)
(2.6216862 0.29939337 1.0479437e-20)
(2.5517518 0.27393488 2.1344251e-20)
(2.5555412 0.20395726 2.04495e-20)
(2.5436749 0.14942621 2.0373913e-20)
(2.5507651 0.10595521 5.471957e-21)
(2.5540252 0.071147333 9.1301729e-21)
(2.5680731 0.047856514 5.4988439e-21)
(2.5771096 0.027705929 -2.0387436e-21)
(2.5864617 0.016686136 -6.2174889e-22)
(2.5933163 0.0056198213 -2.1213424e-23)
(2.597851 -0.0015438761 8.3061891e-22)
(2.601849 -0.0093787246 -1.6718407e-21)
(2.6047172 -0.016816431 -1.1048514e-21)
(2.6081147 -0.024018409 1.6429528e-21)
(2.6124953 -0.031798716 -3.7374943e-22)
(2.6172596 -0.038240168 -1.0172444e-21)
(2.6242971 -0.044557628 -3.7393061e-22)
(2.6308601 -0.048999481 -1.1165047e-21)
(2.6397898 -0.052140638 5.9788536e-22)
(2.6472686 -0.053617473 1.7995024e-21)
(2.6563559 -0.05292462 1.2745949e-21)
(2.6633435 -0.051328635 -7.9658697e-23)
(2.6708578 -0.047293349 -6.0885063e-22)
(2.6761197 -0.043337512 -9.7423032e-22)
(2.680924 -0.037228403 -1.2022416e-21)
(2.6838707 -0.032065897 -6.1605505e-22)
(2.6857191 -0.025365729 -3.8660945e-22)
(2.6863206 -0.020180528 2.3044655e-22)
(2.6855606 -0.014168489 -2.9922252e-22)
(2.6844824 -0.0098647728 -6.8441148e-22)
(2.682107 -0.0053542274 3.8188956e-22)
(2.6798869 -0.002410507 1.9480479e-22)
(2.6765734 0.00033193267 -1.4995682e-22)
(2.6744292 0.0016282684 3.3093719e-22)
(2.6715232 0.0024097773 -8.296696e-22)
(2.6694162 0.0023979868 -9.4451227e-22)
(2.6667601 0.0018221774 -1.951323e-22)
(2.6874278 0.38069547 -3.028846e-21)
(2.5780047 0.34566058 -1.4316957e-20)
(2.4998353 0.31614161 3.1621049e-21)
(2.5100189 0.23088197 6.9266383e-22)
(2.5044613 0.16410396 -4.2140692e-22)
(2.5205641 0.11317966 1.9907658e-20)
(2.5294672 0.071561736 5.7831898e-21)
(2.5500276 0.045904451 4.2363415e-21)
(2.563679 0.02344277 7.1532286e-22)
(2.5765378 0.013442461 -1.7109648e-21)
(2.5862474 0.0028085524 -4.2115969e-22)
(2.5915186 -0.0024317148 5.9515772e-22)
(2.5960644 -0.0092848423 1.4146027e-21)
(2.5977729 -0.015922807 -2.865911e-21)
(2.6004245 -0.023025407 -2.3465816e-21)
(2.6033664 -0.031653013 2.9090113e-21)
(2.6073265 -0.039133397 9.9989471e-22)
(2.6137651 -0.047437629 -1.6717987e-21)
(2.6202647 -0.053605168 -1.071186e-21)
(2.6298455 -0.059016401 -5.8648983e-22)
(2.6382373 -0.062219338 1.0429356e-21)
(2.6490688 -0.063299071 2.6911943e-21)
(2.6577136 -0.062869451 2.2069073e-21)
(2.6675599 -0.05964895 1.9326453e-21)
(2.6747907 -0.056011755 1.4659483e-21)
(2.681946 -0.049640742 1.8611439e-21)
(2.6866485 -0.043973087 1.6964198e-21)
(2.690315 -0.036160779 1.0527296e-21)
(2.6922211 -0.029859524 1.2975291e-21)
(2.6926002 -0.022218805 1.3616083e-22)
(2.6920162 -0.016516998 -3.7348828e-22)
(2.6898213 -0.010264319 -1.4981585e-21)
(2.6876755 -0.0059248317 -4.9633815e-22)
(2.6841305 -0.0016268785 -3.0525019e-22)
(2.6810627 0.00099493611 -6.4145867e-22)
(2.6768915 0.0032177911 4.3352706e-22)
(2.6741785 0.0040795599 -6.6676436e-22)
(2.6707167 0.0042687757 -7.4436046e-22)
(2.6682145 0.003643696 -2.9341525e-23)
(2.6651938 0.0023767292 9.0714077e-22)
(2.6311668 0.42789081 -1.008377e-21)
(2.5269169 0.39239473 -7.6362933e-21)
(2.4422624 0.35958947 -1.8541252e-20)
(2.4551198 0.2563355 -1.49951e-20)
(2.4554727 0.17489075 -1.7569533e-20)
(2.4826087 0.11640152 -1.947997e-20)
(2.5005419 0.067750672 -3.7445967e-22)
(2.529573 0.040123634 1.2054178e-20)
(2.5494643 0.015430286 1.0686679e-20)
(2.5669262 0.0071923433 1.4073768e-21)
(2.5803707 -0.0025208713 -9.1287255e-22)
(2.5866967 -0.0047159122 -5.4813357e-22)
(2.5920859 -0.009704519 4.1551111e-22)
(2.592296 -0.014630666 2.4805977e-21)
(2.5938554 -0.020925557 -1.5693109e-21)
(2.594605 -0.029978051 -8.1778737e-22)
(2.5971376 -0.038231232 4.1878669e-21)
(2.6022137 -0.048614545 -1.0943589e-22)
(2.6080522 -0.056661544 -2.6657794e-21)
(2.617751 -0.064817456 -4.7646574e-22)
(2.6266847 -0.070195972 0)
(2.6390713 -0.07371633 1.0055838e-21)
(2.6493252 -0.075010382 2.570904e-21)
(2.6616879 -0.073254705 3.3283745e-21)
(2.6711166 -0.070442059 3.0856145e-21)
(2.6810696 -0.064299962 1.1754791e-22)
(2.6880143 -0.058434897 4.7709797e-22)
(2.6941487 -0.049695066 5.383462e-22)
(2.6978098 -0.042377966 -9.175762e-23)
(2.6998354 -0.033076489 1.0386538e-21)
(2.7003679 -0.025844822 -7.3392266e-23)
(2.6989909 -0.017579358 -1.3488796e-21)
(2.6970542 -0.011610132 -2.4278568e-21)
(2.6933253 -0.0054173278 -1.6134005e-22)
(2.6900678 -0.001256994 2.5533485e-23)
(2.6853692 0.0026042275 1.2304253e-22)
(2.6814877 0.0047542604 1.1563574e-21)
(2.6765315 0.0063168181 -3.8006375e-22)
(2.6732849 0.0066431901 -4.4973495e-22)
(2.6693316 0.006183152 2.0495265e-21)
(2.6664809 0.0049115464 2.9720429e-21)
(2.663155 0.0029276919 3.3485766e-21)
(2.5615693 0.46978253 4.2852227e-23)
(2.4674155 0.43572568 4.0341772e-22)
(2.3839465 0.40233376 -5.8813309e-21)
(2.3976772 0.27996379 -2.898873e-21)
(2.4012652 0.18120183 7.2895278e-22)
(2.4380883 0.11402112 -8.3056653e-21)
(2.467002 0.058065087 -9.9169854e-21)
(2.5067931 0.029327062 -4.2928934e-21)
(2.5347095 0.0027676662 7.4561775e-21)
(2.5580444 -0.0028618953 9.5670627e-21)
(2.5763365 -0.010800127 7.3125209e-22)
(2.583738 -0.0089092339 -8.9259742e-22)
(2.5903146 -0.010985562 -5.4568584e-22)
(2.5890782 -0.01297145 -1.3413457e-22)
(2.5892264 -0.017589705 1.8194034e-21)
(2.5868461 -0.026487866 -1.4285091e-21)
(2.5872311 -0.035097068 -6.9957281e-22)
(2.5900311 -0.047555978 3.6718291e-21)
(2.5944561 -0.057559389 -3.8638803e-22)
(2.6035686 -0.068918925 -3.848754e-21)
(2.6125121 -0.076918868 -1.7971876e-21)
(2.6261045 -0.083597353 8.7508903e-22)
(2.6377669 -0.087248649 1.8552417e-21)
(2.6526957 -0.087743965 4.3602512e-22)
(2.6644815 -0.086378751 1.125489e-21)
(2.6776566 -0.081102357 -1.8486239e-21)
(2.6872588 -0.075512644 -4.7476779e-21)
(2.6964882 -0.066232858 -2.6014132e-22)
(2.7025193 -0.058089033 -2.24076e-22)
(2.7069318 -0.047130627 1.180294e-21)
(2.709069 -0.038352161 2.2644986e-21)
(2.7090034 -0.027912936 1.4718465e-21)
(2.7078852 -0.020042705 2.8967957e-22)
(2.7045531 -0.011538335 -2.6796647e-21)
(2.7011627 -0.0055857013 -5.3072422e-22)
(2.6958844 0.00022991017 1.1743565e-21)
(2.6915317 0.0039910976 1.280731e-21)
(2.6857517 0.0072084342 3.4543185e-21)
(2.6811185 0.0087540161 2.029418e-21)
(2.6754765 0.0095404517 -2.4128482e-21)
(2.6717579 0.0092611171 -7.0074767e-23)
(2.6673945 0.0081094764 2.0047028e-21)
(2.6642494 0.0061721661 2.3469782e-21)
(2.6606809 0.0034658584 2.209311e-21)
(2.4865685 0.50534125 -3.324306e-21)
(2.405331 0.47354206 -1.0566047e-20)
(2.327366 0.44125223 -1.035023e-20)
(2.3416252 0.30075485 2.6617952e-21)
(2.3474518 0.18356108 5.6370378e-21)
(2.3910542 0.1059979 4.8254758e-21)
(2.4297018 0.04161055 -3.7338003e-21)
(2.4818664 0.01235865 -7.0816752e-21)
(2.5197465 -0.015326682 -1.6887168e-21)
(2.550224 -0.017487181 1.8331721e-21)
(2.5746657 -0.02296328 3.826856e-21)
(2.5843976 -0.015419922 1.7301109e-21)
(2.592282 -0.013486944 1.7561642e-22)
(2.5886389 -0.011266824 2.1851887e-22)
(2.5874142 -0.012930599 6.2222064e-22)
(2.5808855 -0.020885167 6.7530104e-22)
(2.5782334 -0.0292915 -2.4174329e-21)
(2.5776759 -0.043716016 -4.5356032e-21)
(2.5797859 -0.055660787 -4.1345397e-22)
(2.5874475 -0.07064602 1.3036653e-21)
(2.5957011 -0.081696184 -1.945222e-21)
(2.6099814 -0.092282945 -2.9135604e-21)
(2.6226965 -0.098971456 -3.8278631e-22)
(2.6400922 -0.1025982 2.4381955e-22)
(2.6542626 -0.10342756 -1.1323762e-21)
(2.6709836 -0.099842567 -2.9141435e-21)
(2.6836325 -0.095144039 -5.804535e-21)
(2.6966235 -0.085865856 -3.1488781e-21)
(2.7056152 -0.077269275 1.130245e-21)
(2.7131858 -0.064872375 2.2753818e-21)
(2.7176336 -0.054571426 3.6401862e-21)
(2.7196522 -0.041746893 4.1650315e-21)
(2.7198305 -0.03182712 3.4534804e-21)
(2.7173223 -0.020725333 1.3729748e-21)
(2.714357 -0.01257849 -1.4374781e-21)
(2.7089849 -0.0042665581 -1.8456055e-21)
(2.7041193 0.0013509809 -2.5127131e-22)
(2.6973667 0.0064938622 -8.0102855e-22)
(2.6919799 0.0096648476 1.2288977e-21)
(2.6852384 0.012044273 -2.8164703e-22)
(2.6799478 0.012874377 -4.5378579e-21)
(2.6737437 0.012799938 -1.5233955e-21)
(2.6696302 0.011867249 4.2421074e-22)
(2.6649471 0.010000864 -1.0767395e-21)
(2.6615668 0.0073947485 -1.2615364e-21)
(2.6578188 0.0039769939 -1.4706532e-21)
(2.4111504 0.53421245 -1.4193059e-21)
(2.3443314 0.50496812 -1.8641496e-20)
(2.2751473 0.47467812 -2.5806115e-20)
(2.2898443 0.31752809 -2.1674311e-20)
(2.2978974 0.18237624 -9.4935826e-21)
(2.3456494 0.093319838 1.5473303e-21)
(2.3912784 0.018853902 6.7132958e-22)
(2.4556974 -0.011242243 2.023855e-21)
(2.5047207 -0.039483736 -1.0345377e-21)
(2.5438008 -0.037276049 -7.0941089e-21)
(2.5758057 -0.039448004 -3.7048377e-21)
(2.5883671 -0.024705839 1.7664367e-21)
(2.5988451 -0.017268853 -2.8537868e-22)
(2.5922758 -0.0093867006 -3.1639928e-22)
(2.5888016 -0.0070621492 -2.8362221e-22)
(2.5775586 -0.012968602 7.4622938e-22)
(2.5709164 -0.020329102 7.9867168e-22)
(2.5656704 -0.036555742 -8.145589e-22)
(2.5643952 -0.050320373 -2.8011437e-21)
(2.5696022 -0.069312587 -2.9837688e-21)
(2.5763072 -0.083805511 -1.3619774e-21)
(2.5906015 -0.099052229 -9.323467e-22)
(2.6038511 -0.10948596 -1.8636683e-21)
(2.6234448 -0.11719762 1.6948006e-21)
(2.6398833 -0.12105893 2.3177895e-21)
(2.6603444 -0.12013469 -4.6217785e-22)
(2.6763291 -0.11711349 -2.1440757e-21)
(2.6937004 -0.1086172 -4.7957814e-22)
(2.7062751 -0.10009932 2.1287712e-21)
(2.7178906 -0.086622997 -2.3597523e-21)
(2.7253825 -0.075011053 -1.3279321e-21)
(2.7303383 -0.059793878 -2.2305156e-21)
(2.7325555 -0.04764986 -1.8158087e-21)
(2.7316059 -0.033510836 2.9132465e-21)
(2.7294834 -0.022891269 9.3291017e-22)
(2.7243234 -0.011694398 5.7655117e-23)
(2.7194153 -0.0036836593 -3.0612941e-22)
(2.7120354 0.0039911384 -1.4232839e-21)
(2.7057674 0.0090015648 -1.9641606e-21)
(2.6976819 0.013168301 -6.7840187e-22)
(2.6913743 0.015568511 -2.1435148e-21)
(2.6838355 0.016967338 -2.87425e-21)
(2.678004 0.016998819 1.5367167e-23)
(2.671374 0.01601232 5.1220088e-21)
(2.6669513 0.014400161 3.7704227e-21)
(2.6620415 0.011817161 2.1261174e-21)
(2.6584864 0.0085537339 1.9809765e-21)
(2.6546221 0.0044534648 -1.3696244e-21)
(2.3402691 0.55659288 1.2302037e-21)
(2.287728 0.52953356 1.5442607e-20)
(2.2296706 0.50155962 -6.2817562e-22)
(2.2450608 0.32956607 -2.837221e-20)
(2.2552542 0.17792861 -2.4471871e-20)
(2.3050709 0.076795021 -1.468453e-20)
(2.3551532 -0.0090966314 -4.2764731e-21)
(2.4304816 -0.040805667 -1.7027653e-21)
(2.4900988 -0.069929794 -4.2900058e-22)
(2.5391051 -0.062788478 -9.1320365e-21)
(2.5802649 -0.060745041 -1.504702e-20)
(2.5964506 -0.03717823 -1.2640218e-20)
(2.6100816 -0.022747439 -7.5286024e-21)
(2.6005369 -0.0073235996 6.5997325e-22)
(2.5943291 0.00057326746 6.4584535e-22)
(2.5768156 -0.0023462155 -3.3743051e-22)
(2.5655926 -0.0077320449 6.4021324e-22)
(2.5546278 -0.025466632 4.6767145e-21)
(2.5486544 -0.040887866 3.1562698e-21)
(2.5502822 -0.064245542 -6.0229882e-21)
(2.5544394 -0.082529638 -6.2485383e-21)
(2.5679438 -0.10317439 6.8462306e-22)
(2.5810607 -0.11806132 1.0999263e-21)
(2.6024161 -0.13083388 1.4261023e-21)
(2.6208439 -0.13862863 4.8597339e-21)
(2.6450641 -0.14146149 4.8822945e-21)
(2.6645468 -0.14104219 2.2767564e-21)
(2.6868286 -0.13430977 -9.1873713e-22)
(2.7035571 -0.12661581 6.8217664e-22)
(2.7201335 -0.11269462 2.8143257e-21)
(2.731507 -0.10013616 -1.4185242e-21)
(2.740452 -0.08261496 -3.3701033e-21)
(2.7455272 -0.068239836 -4.2602128e-21)
(2.7469853 -0.050793766 -3.6096254e-21)
(2.7464162 -0.037313234 8.6437581e-22)
(2.7420894 -0.02257991 4.2883475e-21)
(2.7374519 -0.011794905 3.5105785e-21)
(2.7296022 -0.0011225741 1.5871674e-21)
(2.7227886 0.0063138456 5.4598537e-22)
(2.7135619 0.012942003 -1.7713525e-21)
(2.7060153 0.017073863 -5.49763e-22)
(2.6968055 0.020036191 7.1870942e-22)
(2.6897314 0.021519669 7.0112507e-23)
(2.6815844 0.021840388 -1.6468663e-21)
(2.6753409 0.021021039 3.1766233e-21)
(2.6684265 0.019104192 4.635e-21)
(2.6637829 0.016807893 3.0869111e-21)
(2.6587369 0.013525917 2.9126734e-21)
(2.6550673 0.0096330505 -2.5477693e-22)
(2.6511461 0.0048935842 -2.313654e-23)
(2.2776599 0.5731731 1.6690412e-20)
(2.2384616 0.54772949 -5.6638842e-21)
(2.19228 0.52176346 7.7492955e-21)
(2.2079929 0.33693765 3.0972307e-20)
(2.220411 0.17073454 5.1455858e-21)
(2.2711651 0.056930412 4.4614978e-21)
(2.3236003 -0.040965353 1.4178208e-20)
(2.4084492 -0.075271927 -1.0899922e-21)
(2.4768662 -0.10607457 1.4078528e-21)
(2.5363136 -0.094043268 7.7768951e-22)
(2.5880868 -0.087277714 -7.6521394e-21)
(2.609206 -0.053229516 -8.2319852e-21)
(2.6268961 -0.030204969 -5.7800083e-21)
(2.6141408 -0.0052634121 -7.0894032e-21)
(2.6051066 0.0099946236 6.9857064e-22)
(2.5800997 0.011221477 5.1851464e-22)
(2.5628173 0.0087885015 -4.1780963e-22)
(2.5446061 -0.0099461473 -4.7685119e-22)
(2.5329067 -0.026680585 3.2931695e-21)
(2.5297434 -0.054779615 6.0661586e-21)
(2.5302227 -0.077195842 -2.608079e-21)
(2.5420548 -0.10394674 -7.4772479e-21)
(2.5542483 -0.12398044 -8.8187367e-22)
(2.5767825 -0.14276795 -4.814962e-22)
(2.5967631 -0.1554175 -1.6736937e-22)
(2.6245597 -0.16316463 1.5509265e-21)
(2.6475341 -0.16638461 1.5137412e-21)
(2.6750919 -0.16260584 -1.7823367e-21)
(2.6964535 -0.15667682 -4.8831656e-21)
(2.7188984 -0.14320359 -5.0171491e-21)
(2.7350115 -0.13030859 -3.0643781e-21)
(2.7491263 -0.11085266 3.9966728e-21)
(2.7580631 -0.094359238 2.2013314e-21)
(2.7630514 -0.07335039 3.5307042e-21)
(2.7648583 -0.056745463 4.2733498e-21)
(2.762108 -0.037940668 1.3322021e-21)
(2.758348 -0.023798265 4.59202e-21)
(2.7504661 -0.0093070146 -6.866693e-22)
(2.7432615 0.001012221 -2.5901713e-21)
(2.7328801 0.010582069 8.2726807e-22)
(2.7242936 0.017065396 -1.3718819e-21)
(2.7134748 0.022265126 1.3734875e-21)
(2.7048474 0.025285431 2.6094852e-21)
(2.6947724 0.026882552 3.8758638e-22)
(2.6871103 0.027349202 -1.2381514e-21)
(2.6785551 0.026541168 -6.5995691e-21)
(2.6720338 0.024849986 -5.3679443e-21)
(2.6649734 0.02201501 -5.3394177e-21)
(2.6601953 0.019049134 -5.6385394e-21)
(2.6550981 0.015102143 -5.7995008e-22)
(2.6513708 0.010620523 -3.6494236e-22)
(2.6474461 0.0052937984 4.1709779e-21)
(2.2252422 0.58478074 6.1269169e-21)
(2.1981665 0.56050105 -2.2457125e-20)
(2.1637073 0.53597274 -4.4341412e-20)
(2.1785489 0.34036845 -4.1607981e-21)
(2.1926222 0.16164285 1.7723085e-20)
(2.2431522 0.03518617 2.4673286e-20)
(2.2966762 -0.075153974 2.4287409e-20)
(2.38972 -0.11314416 1.2884867e-20)
(2.4651849 -0.1466162 -1.6458831e-21)
(2.5353428 -0.13026397 -2.5410144e-20)
(2.5984661 -0.1188389 -2.6689748e-20)
(2.6254463 -0.073044495 1.1602234e-20)
(2.6486125 -0.039918181 1.1364176e-20)
(2.6338292 -0.0032784783 2.0639419e-21)
(2.6216271 0.021276766 9.3423423e-22)
(2.5879365 0.028012388 2.6574025e-22)
(2.5634816 0.029730163 8.7655109e-23)
(2.5363956 0.010344727 1.0897069e-21)
(2.5174428 -0.0072860898 1.1063042e-21)
(2.5082039 -0.040341088 -7.8726437e-22)
(2.5037887 -0.067199423 1.7814992e-21)
(2.5130124 -0.100755 2.5698115e-21)
(2.5234187 -0.12659673 -1.9464413e-21)
(2.5464505 -0.15228496 -2.5686389e-21)
(2.5674125 -0.17068675 -2.1876377e-21)
(2.5983906 -0.1844957 -1.5618648e-21)
(2.6246592 -0.19244777 4.8121401e-23)
(2.6576268 -0.19295855 -7.2498333e-22)
(2.6839379 -0.18992284 -3.892141e-21)
(2.7130517 -0.17810074 3.2466987e-21)
(2.734743 -0.16573287 3.249745e-21)
(2.7553251 -0.14499792 6.0271517e-22)
(2.7692426 -0.12674697 7.3425306e-21)
(2.7791158 -0.10215516 4.313926e-21)
(2.7843802 -0.082214227 5.6104931e-21)
(2.7842687 -0.058699475 -1.8911739e-21)
(2.7821151 -0.040668456 -4.8104782e-21)
(2.7747231 -0.02160016 5.5933047e-21)
(2.7675691 -0.0075973537 6.0883027e-22)
(2.7562011 0.0057719972 -4.7382878e-21)
(2.7465858 0.015092813 -1.5265213e-21)
(2.7339692 0.022956078 4.1302319e-21)
(2.723852 0.02813079 6.8258685e-21)
(2.7117877 0.031633163 7.0115268e-22)
(2.7023236 0.033375226 -1.4394608e-21)
(2.691665 0.033512861 4.833977e-21)