/*--------------------------------*- C++ -*----------------------------------*\
| =========                 |                                                 |
| \\      /  F ield         | OpenFOAM: The Open Source CFD Toolbox           |
|  \\    /   O peration     | Version:  v2012                                 |
|   \\  /    A nd           | Website:  www.openfoam.com                      |
|    \\/     M anipulation  |                                                 |
\*---------------------------------------------------------------------------*/
FoamFile
{
    version     2.0;
    format      ascii;
    class       volVectorField;
    location    "15.7997241758257";
    object      cellDisplacement;
}
// * * * * * * * * * * * * * * * * * * * * * * * * * * * * * * * * * * * * * //

dimensions      [0 1 0 0 0 0 0];


internalField   nonuniform List<vector> 
9200
(
(0.034431306 0 0)
(0.03459986 0 0)
(0.10008248 0 0)
(0.034846576 0 0)
(0.10050477 0 0)
(0.16141975 0 0)
(0.035145822 0 0)
(0.10117569 0 0)
(0.16205582 0 0)
(0.21868117 0 0)
(0.035455125 0 0)
(0.10199425 0 0)
(0.16310728 0 0)
(0.21951148 0 0)
(0.27206452 0 0)
(0.035767248 0 0)
(0.10284953 0 0)
(0.16436716 0 0)
(0.22087172 0 0)
(0.27305768 0 0)
(0.32180843 0 0)
(0.036066473 0 0)
(0.10370672 0 0)
(0.16572212 0 0)
(0.22255237 0 0)
(0.27472844 0 0)
(0.32297235 0 0)
(0.3681134 0 0)
(0.036356853 0 0)
(0.10455037 0 0)
(0.1670932 0 0)
(0.22438019 0 0)
(0.27680354 0 0)
(0.32492117 0 0)
(0.36943584 0 0)
(0.41121283 0 0)
(0.036627011 0 0)
(0.1053549 0 0)
(0.16843134 0 0)
(0.22622097 0 0)
(0.27906091 0 0)
(0.32736457 0 0)
(0.37167211 0 0)
(0.41270059 0 0)
(0.45127502 0 0)
(0.036876401 0 0)
(0.10610855 0 0)
(0.16970507 0 0)
(0.22801762 0 0)
(0.28135646 0 0)
(0.33004112 0 0)
(0.37446694 0 0)
(0.41519857 0 0)
(0.45291382 0 0)
(0.48850487 0 0)
(0.037101029 0 0)
(0.10679931 0 0)
(0.17089707 0 0)
(0.22973067 0 0)
(0.28359854 0 0)
(0.3327875 0 0)
(0.37757024 0 0)
(0.41835748 0 0)
(0.45570042 0 0)
(0.49030934 0 0)
(0.52305231 0 0)
(0.037301703 0 0)
(0.10742305 0 0)
(0.17198781 0 0)
(0.23132759 0 0)
(0.28573147 0 0)
(0.33546255 0 0)
(0.38074696 0 0)
(0.42186239 0 0)
(0.45921081 0 0)
(0.49336603 0 0)
(0.52501857 0 0)
(0.55511579 0 0)
(0.037478143 0 0)
(0.10797814 0 0)
(0.17297394 0 0)
(0.23279424 0 0)
(0.287717 0 0)
(0.33800357 0 0)
(0.38386413 0 0)
(0.42548786 0 0)
(0.4631369 0 0)
(0.49724696 0 0)
(0.5283699 0 0)
(0.55725167 0 0)
(0.58481968 0 0)
(0.037632586 0 0)
(0.10846638 0 0)
(0.17384995 0 0)
(0.23411573 0 0)
(0.28954167 0 0)
(0.34037992 0 0)
(0.3868385 0 0)
(0.42907622 0 0)
(0.46722784 0 0)
(0.50159194 0 0)
(0.53261738 0 0)
(0.56088445 0 0)
(0.58711864 0 0)
(0.6123386 0 0)
(0.03776622 0 0)
(0.10889196 0 0)
(0.17462141 0 0)
(0.23529437 0 0)
(0.29118569 0 0)
(0.34255328 0 0)
(0.38960509 0 0)
(0.43247176 0 0)
(0.47124496 0 0)
(0.50611907 0 0)
(0.53739685 0 0)
(0.56552056 0 0)
(0.59106006 0 0)
(0.61481309 0 0)
(0.63778019 0 0)
(0.037881878 0 0)
(0.10925925 0 0)
(0.17529148 0 0)
(0.23632874 0 0)
(0.2926522 0 0)
(0.34452232 0 0)
(0.39214306 0 0)
(0.43565095 0 0)
(0.47512506 0 0)
(0.51065259 0 0)
(0.54240828 0 0)
(0.57073746 0 0)
(0.59608191 0 0)
(0.61905151 0 0)
(0.64042957 0 0)
(0.66130894 0 0)
(0.037981029 0 0)
(0.10957502 0 0)
(0.17587006 0 0)
(0.23723074 0 0)
(0.29394012 0 0)
(0.34627105 0 0)
(0.39443891 0 0)
(0.43857061 0 0)
(0.47873493 0 0)
(0.51497757 0 0)
(0.5473904 0 0)
(0.57621317 0 0)
(0.60175909 0 0)
(0.62448049 0 0)
(0.64498595 0 0)
(0.664139 0 0)
(0.68301226 0 0)
(0.038066638 0 0)
(0.10984398 0 0)
(0.1763637 0 0)
(0.23800587 0 0)
(0.29506138 0 0)
(0.34781461 0 0)
(0.3964863 0 0)
(0.44120923 0 0)
(0.48205433 0 0)
(0.51904814 0 0)
(0.55223057 0 0)
(0.58172824 0 0)
(0.60774444 0 0)
(0.63062286 0 0)
(0.65082215 0 0)
(0.66900436 0 0)
(0.68601895 0 0)
(0.7030352 0 0)
(0.038139869 0 0)
(0.11007351 0 0)
(0.17678363 0 0)
(0.23867018 0 0)
(0.29602666 0 0)
(0.34915254 0 0)
(0.3982917 0 0)
(0.44357512 0 0)
(0.48506691 0 0)
(0.52279866 0 0)
(0.55679131 0 0)
(0.58706688 0 0)
(0.61374989 0 0)
(0.63710972 0 0)
(0.65745273 0 0)
(0.67526569 0 0)
(0.6912132 0 0)
(0.70622576 0 0)
(0.72145274 0 0)
(0.038203554 0 0)
(0.11026769 0 0)
(0.1771368 0 0)
(0.23923109 0 0)
(0.2968501 0 0)
(0.35030822 0 0)
(0.39986467 0 0)
(0.44565863 0 0)
(0.48776419 0 0)
(0.52620815 0 0)
(0.5609992 0 0)
(0.59212595 0 0)
(0.61963342 0 0)
(0.64367994 0 0)
(0.66447926 0 0)
(0.68238693 0 0)
(0.69789832 0 0)
(0.71173899 0 0)
(0.72482594 0 0)
(0.73840067 0 0)
(0.038258359 0 0)
(0.11043336 0 0)
(0.177434 0 0)
(0.23970489 0 0)
(0.29754742 0 0)
(0.35128945 0 0)
(0.40122074 0 0)
(0.44748589 0 0)
(0.49015821 0 0)
(0.52926588 0 0)
(0.56482649 0 0)
(0.59682065 0 0)
(0.62522586 0 0)
(0.65009343 0 0)
(0.67158127 0 0)
(0.68995215 0 0)
(0.70553139 0 0)
(0.7188616 0 0)
(0.73067089 0 0)
(0.74195813 0 0)
(0.75394112 0 0)
(0.038306802 0 0)
(0.11057366 0 0)
(0.17768133 0 0)
(0.24009917 0 0)
(0.29813267 0 0)
(0.35212308 0 0)
(0.40238034 0 0)
(0.44906017 0 0)
(0.49225325 0 0)
(0.53198674 0 0)
(0.56827685 0 0)
(0.60110514 0 0)
(0.63043636 0 0)
(0.65623671 0 0)
(0.67857957 0 0)
(0.69765115 0 0)
(0.71366443 0 0)
(0.72700634 0 0)
(0.738229 0 0)
(0.74812504 0 0)
(0.75767826 0 0)
(0.76819482 0 0)
(0.038349053 0 0)
(0.11069437 0 0)
(0.17788838 0 0)
(0.24042909 0 0)
(0.29862306 0 0)
(0.35281856 0 0)
(0.40336112 0 0)
(0.45041486 0 0)
(0.49407717 0 0)
(0.53437648 0 0)
(0.57134386 0 0)
(0.60496957 0 0)
(0.63520002 0 0)
(0.66197612 0 0)
(0.68528922 0 0)
(0.70521822 0 0)
(0.72193515 0 0)
(0.73570807 0 0)
(0.74690174 0 0)
(0.75612657 0 0)
(0.76417705 0 0)
(0.77211343 0 0)
(0.78121622 0 0)
(0.038387148 0 0)
(0.11079774 0 0)
(0.17806 0 0)
(0.24070064 0 0)
(0.29902904 0 0)
(0.35340209 0 0)
(0.40418783 0 0)
(0.45156072 0 0)
(0.49564244 0 0)
(0.53646076 0 0)
(0.57405471 0 0)
(0.60841671 0 0)
(0.6395033 0 0)
(0.66724956 0 0)
(0.69158769 0 0)
(0.71251043 0 0)
(0.73012236 0 0)
(0.74460506 0 0)
(0.75619176 0 0)
(0.7653231 0 0)
(0.77261651 0 0)
(0.77893223 0 0)
(0.78531277 0 0)
(0.79311744 0 0)
(0.038420887 0 0)
(0.11088818 0 0)
(0.17820416 0 0)
(0.24092681 0 0)
(0.29936724 0 0)
(0.35388258 0 0)
(0.40487684 0 0)
(0.45253254 0 0)
(0.49698423 0 0)
(0.53826009 0 0)
(0.57641674 0 0)
(0.61146769 0 0)
(0.64335793 0 0)
(0.67202432 0 0)
(0.69739697 0 0)
(0.71939268 0 0)
(0.73802411 0 0)
(0.75339903 0 0)
(0.76569411 0 0)
(0.77520176 0 0)
(0.7823474 0 0)
(0.78781204 0 0)
(0.79245506 0 0)
(0.79738934 0 0)
(0.80394492 0 0)
(0.038451715 0 0)
(0.11096712 0 0)
(0.17832456 0 0)
(0.24111248 0 0)
(0.29964542 0 0)
(0.35428448 0 0)
(0.40545298 0 0)
(0.45334249 0 0)
(0.49811748 0 0)
(0.53980329 0 0)
(0.57846979 0 0)
(0.61413946 0 0)
(0.64677107 0 0)
(0.67630949 0 0)
(0.70267236 0 0)
(0.72575525 0 0)
(0.74549692 0 0)
(0.76191927 0 0)
(0.77513949 0 0)
(0.78534955 0 0)
(0.79282466 0 0)
(0.79806877 0 0)
(0.80176751 0 0)
(0.80484265 0 0)
(0.80838615 0 0)
(0.81379816 0 0)
(0.038479303 0 0)
(0.11103772 0 0)
(0.17842762 0 0)
(0.2412685 0 0)
(0.2998775 0 0)
(0.35461316 0 0)
(0.40592897 0 0)
(0.45402321 0 0)
(0.49907845 0 0)
(0.5411175 0 0)
(0.58022814 0 0)
(0.61646322 0 0)
(0.64977743 0 0)
(0.68011419 0 0)
(0.70741036 0 0)
(0.7315588 0 0)
(0.75244244 0 0)
(0.77000843 0 0)
(0.78430321 0 0)
(0.79543249 0 0)
(0.80359965 0 0)
(0.80914241 0 0)
(0.81255428 0 0)
(0.81458463 0 0)
(0.81615109 0 0)
(0.81840624 0 0)
(0.82271909 0 0)
(0.038504692 0 0)
(0.11110071 0 0)
(0.17851611 0 0)
(0.24139831 0 0)
(0.30006915 0 0)
(0.35489042 0 0)
(0.40632697 0 0)
(0.45458523 0 0)
(0.49988047 0 0)
(0.54222956 0 0)
(0.58173587 0 0)
(0.61846754 0 0)
(0.65239361 0 0)
(0.68347335 0 0)
(0.71163967 0 0)
(0.73678868 0 0)
(0.75879991 0 0)
(0.77755449 0 0)
(0.79302051 0 0)
(0.80524689 0 0)
(0.81435566 0 0)
(0.82057032 0 0)
(0.82422503 0 0)
(0.82588869 0 0)
(0.82631146 0 0)
(0.82646853 0 0)
(0.8274884 0 0)
(0.83079876 0 0)
(0.038527333 0 0)
(0.11115876 0 0)
(0.17859492 0 0)
(0.24151074 0 0)
(0.30023282 0 0)
(0.35511885 0 0)
(0.40665652 0 0)
(0.45505747 0 0)
(0.5005573 0 0)
(0.54316865 0 0)
(0.58300887 0 0)
(0.62018468 0 0)
(0.65466471 0 0)
(0.68640865 0 0)
(0.71537332 0 0)
(0.74146444 0 0)
(0.76454607 0 0)
(0.78448152 0 0)
(0.80117932 0 0)
(0.81461441 0 0)
(0.82484215 0 0)
(0.83198346 0 0)
(0.83628907 0 0)
(0.83815122 0 0)
(0.83813146 0 0)
(0.8370397 0 0)
(0.83584405 0 0)
(0.83572379 0 0)
(0.83807396 0 0)
(0.038548813 0 0)
(0.11121152 0 0)
(0.1786658 0 0)
(0.24160825 0 0)
(0.30037168 0 0)
(0.35531588 0 0)
(0.40693481 0 0)
(0.45544702 0 0)
(0.50111886 0 0)
(0.54395608 0 0)
(0.58409005 0 0)
(0.62164822 0 0)
(0.65661157 0 0)
(0.68896011 0 0)
(0.71865578 0 0)
(0.74560754 0 0)
(0.76969188 0 0)
(0.79076912 0 0)
(0.80870187 0 0)
(0.82340327 0 0)
(0.83486838 0 0)
(0.84314593 0 0)
(0.84838571 0 0)
(0.85086507 0 0)
(0.85097987 0 0)
(0.84935974 0 0)
(0.84681323 0 0)
(0.8443585 0 0)
(0.84314769 0 0)
(0.84462469 0 0)
(0.038406454 0 0)
(0.11126387 0 0)
(0.1787336 0 0)
(0.24169719 0 0)
(0.30049562 0 0)
(0.35548329 0 0)
(0.40716944 0 0)
(0.45577873 0 0)
(0.50159446 0 0)
(0.54461984 0 0)
(0.58499367 0 0)
(0.62288695 0 0)
(0.6582822 0 0)
(0.69116 0 0)
(0.72150912 0 0)
(0.74925754 0 0)
(0.77427241 0 0)
(0.79641562 0 0)
(0.8155525 0 0)
(0.8315417 0 0)
(0.84430918 0 0)
(0.85385254 0 0)
(0.86023864 0 0)
(0.86362627 0 0)
(0.86432622 0 0)
(0.86278496 0 0)
(0.8596268 0 0)
(0.85571421 0 0)
(0.85205555 0 0)
(0.84984209 0 0)
(0.85048498 0 0)
(0.038231349 0 0)
(0.11095567 0 0)
(0.17880199 0 0)
(0.24178137 0 0)
(0.30060805 0 0)
(0.35563518 0 0)
(0.40737438 0 0)
(0.45605642 0 0)
(0.50199077 0 0)
(0.54517479 0 0)
(0.58575641 0 0)
(0.62393505 0 0)
(0.659698 0 0)
(0.69304782 0 0)
(0.72398481 0 0)
(0.75244563 0 0)
(0.7783119 0 0)
(0.80145404 0 0)
(0.82172684 0 0)
(0.83897584 0 0)
(0.85307465 0 0)
(0.86395689 0 0)
(0.87163127 0 0)
(0.8761694 0 0)
(0.87776941 0 0)
(0.87676718 0 0)
(0.87361701 0 0)
(0.86900273 0 0)
(0.86378302 0 0)
(0.85900789 0 0)
(0.85583941 0 0)
(0.85572661 0 0)
(0.038074553 0 0)
(0.11042361 0 0)
(0.17833774 0 0)
(0.24186756 0 0)
(0.30071459 0 0)
(0.35577371 0 0)
(0.40755488 0 0)
(0.456299 0 0)
(0.50233166 0 0)
(0.54564524 0 0)
(0.58639158 0 0)
(0.62481532 0 0)
(0.66090356 0 0)
(0.69465922 0 0)
(0.72610951 0 0)
(0.75521632 0 0)
(0.78185998 0 0)
(0.80591114 0 0)
(0.8272424 0 0)
(0.84570009 0 0)
(0.86111792 0 0)
(0.87337238 0 0)
(0.8824179 0 0)
(0.88826328 0 0)
(0.89100977 0 0)
(0.89087053 0 0)
(0.88821662 0 0)
(0.8835453 0 0)
(0.87753586 0 0)
(0.87109319 0 0)
(0.86525476 0 0)
(0.86121124 0 0)
(0.86038016 0 0)
(0.037936285 0 0)
(0.10994679 0 0)
(0.17747761 0 0)
(0.24126128 0 0)
(0.30082571 0 0)
(0.35590717 0 0)
(0.40772066 0 0)
(0.45650992 0 0)
(0.50262171 0 0)
(0.54604189 0 0)
(0.58692758 0 0)
(0.62555832 0 0)
(0.66191809 0 0)
(0.69602909 0 0)
(0.72793366 0 0)
(0.75760872 0 0)
(0.78494693 0 0)
(0.80983608 0 0)
(0.83214621 0 0)
(0.85172891 0 0)
(0.86841996 0 0)
(0.88204502 0 0)
(0.8924968 0 0)
(0.89974057 0 0)
(0.90380468 0 0)
(0.90480214 0 0)
(0.90298858 0 0)
(0.89875722 0 0)
(0.89261468 0 0)
(0.88529012 0 0)
(0.87768265 0 0)
(0.87086191 0 0)
(0.86598789 0 0)
(0.86450761 0 0)
(0.037818039 0 0)
(0.10952684 0 0)
(0.17670883 0 0)
(0.24010387 0 0)
(0.30009587 0 0)
(0.35604723 0 0)
(0.40787938 0 0)
(0.45670309 0 0)
(0.50287889 0 0)
(0.54638449 0 0)
(0.58737776 0 0)
(0.62618234 0 0)
(0.66278052 0 0)
(0.69719224 0 0)
(0.72948494 0 0)
(0.75966532 0 0)
(0.78762797 0 0)
(0.81326446 0 0)
(0.83646683 0 0)
(0.85709797 0 0)
(0.87498221 0 0)
(0.88993107 0 0)
(0.90180203 0 0)
(0.91049815 0 0)
(0.91598615 0 0)
(0.91830618 0 0)
(0.91761118 0 0)
(0.91417288 0 0)
(0.90841836 0 0)
(0.90088902 0 0)
(0.8923095 0 0)
(0.88361719 0 0)
(0.87586486 0 0)
(0.87023253 0 0)
(0.86813775 0 0)
(0.037719911 0 0)
(0.10916653 0 0)
(0.1760316 0 0)
(0.23907006 0 0)
(0.29867584 0 0)
(0.35521447 0 0)
(0.40804333 0 0)
(0.45688596 0 0)
(0.5031093 0 0)
(0.5466813 0 0)
(0.5877618 0 0)
(0.62671359 0 0)
(0.66350691 0 0)
(0.69817749 0 0)
(0.73080802 0 0)
(0.76142663 0 0)
(0.78993534 0 0)
(0.8162475 0 0)
(0.84026202 0 0)
(0.86184611 0 0)
(0.88084014 0 0)
(0.89705776 0 0)
(0.91031548 0 0)
(0.92046698 0 0)
(0.92743315 0 0)
(0.93119433 0 0)
(0.9318183 0 0)
(0.92947533 0 0)
(0.92447858 0 0)
(0.91727257 0 0)
(0.90840897 0 0)
(0.89865274 0 0)
(0.8889318 0 0)
(0.88032176 0 0)
(0.87397324 0 0)
(0.87132489 0 0)
(0.037643561 0 0)
(0.10886777 0 0)
(0.17545085 0 0)
(0.23815937 0 0)
(0.2974065 0 0)
(0.35356255 0 0)
(0.40711123 0 0)
(0.45707108 0 0)
(0.50332283 0 0)
(0.5469463 0 0)
(0.58809387 0 0)
(0.62716595 0 0)
(0.66412871 0 0)
(0.69901566 0 0)
(0.73192906 0 0)
(0.7629302 0 0)
(0.79192341 0 0)
(0.81882711 0 0)
(0.84356564 0 0)
(0.86602507 0 0)
(0.88604434 0 0)
(0.90343683 0 0)
(0.91800985 0 0)
(0.92959312 0 0)
(0.93806605 0 0)
(0.94334272 0 0)
(0.94541959 0 0)
(0.94438596 0 0)
(0.94045325 0 0)
(0.93394969 0 0)
(0.92534996 0 0)
(0.91523336 0 0)
(0.90435946 0 0)
(0.89368586 0 0)
(0.88426502 0 0)
(0.87726409 0 0)
(0.87409532 0 0)
(0.037588454 0 0)
(0.10863384 0 0)
(0.1749704 0 0)
(0.23737932 0 0)
(0.29629126 0 0)
(0.35208797 0 0)
(0.40523766 0 0)
(0.45604296 0 0)
(0.50353891 0 0)
(0.54719016 0 0)
(0.58838595 0 0)
(0.62755965 0 0)
(0.66465954 0 0)
(0.69972948 0 0)
(0.73288474 0 0)
(0.76421459 0 0)
(0.79362301 0 0)
(0.82105139 0 0)
(0.84643833 0 0)
(0.86967941 0 0)
(0.89062941 0 0)
(0.90911264 0 0)
(0.92493125 0 0)
(0.93789414 0 0)
(0.94784768 0 0)
(0.95466345 0 0)
(0.95827384 0 0)
(0.9586968 0 0)
(0.95605548 0 0)
(0.9505804 0 0)
(0.94263778 0 0)
(0.9327145 0 0)
(0.92139971 0 0)
(0.9094851 0 0)
(0.89791106 0 0)
(0.88774614 0 0)
(0.8801317 0 0)
(0.87649498 0 0)
(0.037556219 0 0)
(0.10846469 0 0)
(0.17459296 0 0)
(0.2367335 0 0)
(0.29533565 0 0)
(0.35079332 0 0)
(0.40356722 0 0)
(0.45395494 0 0)
(0.50242232 0 0)
(0.54742845 0 0)
(0.58865573 0 0)
(0.62790858 0 0)
(0.66512356 0 0)
(0.7003444 0 0)
(0.7336987 0 0)
(0.76531017 0 0)
(0.7950826 0 0)
(0.82296289 0 0)
(0.84891578 0 0)
(0.87286166 0 0)
(0.89466024 0 0)
(0.9141384 0 0)
(0.93110779 0 0)
(0.94537722 0 0)
(0.95675661 0 0)
(0.96509324 0 0)
(0.97028375 0 0)
(0.97226277 0 0)
(0.97107495 0 0)
(0.96686769 0 0)
(0.95991068 0 0)
(0.95058322 0 0)
(0.93939684 0 0)
(0.92696201 0 0)
(0.91406346 0 0)
(0.9016603 0 0)
(0.89079426 0 0)
(0.88262263 0 0)
(0.87854879 0 0)
(0.037545744 0 0)
(0.10836381 0 0)
(0.17432212 0 0)
(0.23622725 0 0)
(0.29454684 0 0)
(0.34968614 0 0)
(0.40210037 0 0)
(0.45209491 0 0)
(0.50014707 0 0)
(0.54623674 0 0)
(0.58891912 0 0)
(0.62822515 0 0)
(0.66553463 0 0)
(0.70087859 0 0)
(0.73439926 0 0)
(0.7662499 0 0)
(0.79632939 0 0)
(0.82460346 0 0)
(0.85105538 0 0)
(0.8756203 0 0)
(0.89817424 0 0)
(0.9185598 0 0)
(0.9365919 0 0)
(0.95207797 0 0)
(0.96481958 0 0)
(0.97463727 0 0)
(0.98139387 0 0)
(0.98497667 0 0)
(0.98535037 0 0)
(0.98258609 0 0)
(0.97686576 0 0)
(0.96847808 0 0)
(0.95783474 0 0)
(0.94545372 0 0)
(0.93195475 0 0)
(0.91814601 0 0)
(0.90496128 0 0)
(0.89345368 0 0)
(0.8847616 0 0)
(0.88029591 0 0)
(0.10832942 0 0)
(0.037553419 0 0)
(0.17415843 0 0)
(0.23586374 0 0)
(0.29392934 0 0)
(0.34877302 0 0)
(0.4008462 0 0)
(0.45045679 0 0)
(0.49811368 0 0)
(0.54378291 0 0)
(0.58766152 0 0)
(0.62853665 0 0)
(0.66590615 0 0)
(0.70135084 0 0)
(0.73500742 0 0)
(0.76705873 0 0)
(0.79740388 0 0)
(0.82601212 0 0)
(0.85289125 0 0)
(0.87800406 0 0)
(0.90123605 0 0)
(0.92243667 0 0)
(0.941431 0 0)
(0.9580377 0 0)
(0.97206196 0 0)
(0.98329999 0 0)
(0.9915758 0 0)
(0.99676068 0 0)
(0.99876665 0 0)
(0.99756999 0 0)
(0.99327522 0 0)
(0.98608802 0 0)
(0.97633218 0 0)
(0.96442948 0 0)
(0.95091574 0 0)
(0.93642748 0 0)
(0.92176137 0 0)
(0.90786102 0 0)
(0.89575117 0 0)
(0.88658757 0 0)
(0.8817593 0 0)
(0.17410539 0 0)
(0.10834938 0 0)
(0.037577594 0 0)
(0.23564552 0 0)
(0.29348779 0 0)
(0.34806039 0 0)
(0.39981272 0 0)
(0.44905767 0 0)
(0.49632918 0 0)
(0.54159498 0 0)
(0.58504954 0 0)
(0.62722027 0 0)
(0.6662686 0 0)
(0.70177909 0 0)
(0.73554373 0 0)
(0.7677635 0 0)
(0.79832926 0 0)
(0.82722346 0 0)
(0.85447321 0 0)
(0.88006046 0 0)
(0.90388493 0 0)
(0.92581544 0 0)
(0.94568515 0 0)
(0.96331779 0 0)
(0.97852529 0 0)
(0.9911072 0 0)
(1.0008552 0 0)
(1.007605 0 0)
(1.0112465 0 0)
(1.0116933 0 0)
(1.0089584 0 0)
(1.003173 0 0)
(0.99457505 0 0)
(0.98350593 0 0)
(0.97041325 0 0)
(0.95583393 0 0)
(0.94041118 0 0)
(0.92495765 0 0)
(0.91038403 0 0)
(0.89772483 0 0)
(0.888124 0 0)
(0.88297105 0 0)
(0.23557508 0 0)
(0.17413617 0 0)
(0.10842019 0 0)
(0.037624911 0 0)
(0.2932252 0 0)
(0.34755208 0 0)
(0.39900598 0 0)
(0.44790155 0 0)
(0.49479973 0 0)
(0.53967061 0 0)
(0.58272308 0 0)
(0.62446321 0 0)
(0.66490322 0 0)
(0.7021871 0 0)
(0.73602952 0 0)
(0.76838566 0 0)
(0.7991365 0 0)
(0.82827057 0 0)
(0.85583243 0 0)
(0.88183175 0 0)
(0.90618011 0 0)
(0.92875648 0 0)
(0.94940527 0 0)
(0.96796576 0 0)
(0.98426232 0 0)
(0.99809247 0 0)
(1.009241 0 0)
(1.0175122 0 0)
(1.0227532 0 0)
(1.0248619 0 0)
(1.0237829 0 0)
(1.0195477 0 0)
(1.0123214 0 0)
(1.0023636 0 0)
(0.99004512 0 0)
(0.97582061 0 0)
(0.96023757 0 0)
(0.94395167 0 0)
(0.92775833 0 0)
(0.91257086 0 0)
(0.89939905 0 0)
(0.88940359 0 0)
(0.88395307 0 0)
(0.2931439 0 0)
(0.23561888 0 0)
(0.17425379 0 0)
(0.10856098 0 0)
(0.037693417 0 0)
(0.34725301 0 0)
(0.3984318 0 0)
(0.44699967 0 0)
(0.49353882 0 0)
(0.53802508 0 0)
(0.58067658 0 0)
(0.62200255 0 0)
(0.6620076 0 0)
(0.7007845 0 0)
(0.73649022 0 0)
(0.76894264 0 0)
(0.79984799 0 0)
(0.82918153 0 0)
(0.85700907 0 0)
(0.88336053 0 0)
(0.90815907 0 0)
(0.93130385 0 0)
(0.95264949 0 0)
(0.97204691 0 0)
(0.9893297 0 0)
(1.0043088 0 0)
(1.01677 0 0)
(1.0264963 0 0)
(1.0333004 0 0)
(1.0370469 0 0)
(1.0376512 0 0)
(1.0350695 0 0)
(1.0293726 0 0)
(1.020751 0 0)
(1.0094922 0 0)
(0.99598224 0 0)
(0.98069484 0 0)
(0.96417382 0 0)
(0.94707613 0 0)
(0.93020709 0 0)
(0.91444374 0 0)
(0.9008059 0 0)
(0.89044817 0 0)
(0.88473177 0 0)
(0.34716423 0 0)
(0.29320472 0 0)
(0.23577876 0 0)
(0.17447939 0 0)
(0.10876677 0 0)
(0.037784436 0 0)
(0.39809365 0 0)
(0.44635779 0 0)
(0.49255197 0 0)
(0.53666617 0 0)
(0.57892829 0 0)
(0.61984369 0 0)
(0.65942349 0 0)
(0.69775962 0 0)
(0.73505651 0 0)
(0.76947126 0 0)
(0.80048213 0 0)
(0.82998181 0 0)
(0.85803115 0 0)
(0.88468231 0 0)
(0.9098722 0 0)
(0.93351303 0 0)
(0.95546956 0 0)
(0.97560964 0 0)
(0.99378671 0 0)
(1.009816 0 0)
(1.023488 0 0)
(1.0345861 0 0)
(1.0428965 0 0)
(1.0482456 0 0)
(1.0505118 0 0)
(1.0496271 0 0)
(1.0455807 0 0)
(1.0384648 0 0)
(1.0285014 0 0)
(1.0159965 0 0)
(1.0013593 0 0)
(0.98506769 0 0)
(0.96766874 0 0)
(0.9498261 0 0)
(0.93232359 0 0)
(0.91603689 0 0)
(0.90196812 0 0)
(0.89128406 0 0)
(0.88532738 0 0)
(0.39799618 0 0)
(0.34723993 0 0)
(0.29340629 0 0)
(0.23608525 0 0)
(0.17481539 0 0)
(0.10904058 0 0)
(0.037895636 0 0)
(0.44597927 0 0)
(0.4918477 0 0)
(0.53560452 0 0)
(0.57748419 0 0)
(0.61799494 0 0)
(0.65715906 0 0)
(0.69506828 0 0)
(0.73191725 0 0)
(0.76800393 0 0)
(0.80107996 0 0)
(0.83069685 0 0)
(0.85892818 0 0)
(0.88583231 0 0)
(0.9113537 0 0)
(0.93542364 0 0)
(0.95791741 0 0)
(0.97871734 0 0)
(0.997691 0 0)
(1.0146711 0 0)
(1.0294553 0 0)
(1.0418252 0 0)
(1.0515612 0 0)
(1.0584625 0 0)
(1.0623681 0 0)
(1.0631718 0 0)
(1.0608287 0 0)
(1.0553474 0 0)
(1.0468574 0 0)
(1.0356033 0 0)
(1.0219128 0 0)
(1.0062083 0 0)
(0.98897984 0 0)
(0.9707657 0 0)
(0.95222476 0 0)
(0.93414586 0 0)
(0.91737159 0 0)
(0.90291267 0 0)
(0.89193229 0 0)
(0.88576026 0 0)
(0.44587132 0 0)
(0.39808386 0 0)
(0.34747834 0 0)
(0.29379126 0 0)
(0.2365397 0 0)
(0.17525598 0 0)
(0.10937662 0 0)
(0.038027871 0 0)
(0.49143127 0 0)
(0.53484616 0 0)
(0.576357 0 0)
(0.61647122 0 0)
(0.65521897 0 0)
(0.69270451 0 0)
(0.72912749 0 0)
(0.76475364 0 0)
(0.7995862 0 0)
(0.83136047 0 0)
(0.85972861 0 0)
(0.8868421 0 0)
(0.91264406 0 0)
(0.9370831 0 0)
(0.96004086 0 0)
(0.98141631 0 0)
(1.0010999 0 0)
(1.0189362 0 0)
(1.0347295 0 0)
(1.0482691 0 0)
(1.059337 0 0)
(1.0677167 0 0)
(1.0732162 0 0)
(1.0756912 0 0)
(1.0750499 0 0)
(1.0712718 0 0)
(1.0643988 0 0)
(1.0545824 0 0)
(1.0420941 0 0)
(1.0272762 0 0)
(1.0105676 0 0)
(0.99245996 0 0)
(0.97348733 0 0)
(0.95430937 0 0)
(0.9356921 0 0)
(0.91847663 0 0)
(0.90366062 0 0)
(0.89241354 0 0)
(0.88604953 0 0)
(0.49130509 0 0)
(0.44596804 0 0)
(0.39835873 0 0)
(0.34792877 0 0)
(0.29435472 0 0)
(0.23713611 0 0)
(0.17580309 0 0)
(0.10977716 0 0)
(0.038178851 0 0)
(0.53439689 0 0)
(0.57555213 0 0)
(0.61527782 0 0)
(0.65362205 0 0)
(0.69068581 0 0)
(0.72667668 0 0)
(0.76186122 0 0)
(0.79622766 0 0)
(0.82985158 0 0)
(0.86046748 0 0)
(0.8877365 0 0)
(0.91377542 0 0)
(0.93852606 0 0)
(0.96188477 0 0)
(0.98376373 0 0)
(1.0040698 0 0)
(1.022668 0 0)
(1.0393747 0 0)
(1.0539827 0 0)
(1.0662791 0 0)
(1.0760479 0 0)
(1.0830737 0 0)
(1.0871784 0 0)
(1.0882337 0 0)
(1.0861689 0 0)
(1.0809911 0 0)
(1.0727643 0 0)
(1.0616721 0 0)
(1.048005 0 0)
(1.0321206 0 0)
(1.0144683 0 0)
(0.99554595 0 0)
(0.97587306 0 0)
(0.95610033 0 0)
(0.93699557 0 0)
(0.91937239 0 0)
(0.90423334 0 0)
(0.89274741 0 0)
(0.88621182 0 0)
(0.53426115 0 0)
(0.49140681 0 0)
(0.44627607 0 0)
(0.39887133 0 0)
(0.34858634 0 0)
(0.29509816 0 0)
(0.23787574 0 0)
(0.17644939 0 0)
(0.1102362 0 0)
(0.038349013 0 0)
(0.57507594 0 0)
(0.61442631 0 0)
(0.65237112 0 0)
(0.68901964 0 0)
(0.7245862 0 0)
(0.75932806 0 0)
(0.79323928 0 0)
(0.82638832 0 0)
(0.85894649 0 0)
(0.88856521 0 0)
(0.91477543 0 0)
(0.93979007 0 0)
(0.96349068 0 0)
(0.98580186 0 0)
(1.0066531 0 0)
(1.0259263 0 0)
(1.0434491 0 0)
(1.0590242 0 0)
(1.0724469 0 0)
(1.0835022 0 0)
(1.0919696 0 0)
(1.0976453 0 0)
(1.100365 0 0)
(1.100017 0 0)
(1.096552 0 0)
(1.0900067 0 0)
(1.0804743 0 0)
(1.0681588 0 0)
(1.0533716 0 0)
(1.0364804 0 0)
(1.0179453 0 0)
(0.99826347 0 0)
(0.97794281 0 0)
(0.95763013 0 0)
(0.93807307 0 0)
(0.92008135 0 0)
(0.90465032 0 0)
(0.89295035 0 0)
(0.88626514 0 0)
(0.57493381 0 0)
(0.53436711 0 0)
(0.49173156 0 0)
(0.44684593 0 0)
(0.39962361 0 0)
(0.34944856 0 0)
(0.29601215 0 0)
(0.23874945 0 0)
(0.17719528 0 0)
(0.1107541 0 0)
(0.038536905 0 0)
(0.6139196 0 0)
(0.65148008 0 0)
(0.68771947 0 0)
(0.72286023 0 0)
(0.75716253 0 0)
(0.7906264 0 0)
(0.82331639 0 0)
(0.85538513 0 0)
(0.88702858 0 0)
(0.91569896 0 0)
(0.9409086 0 0)
(0.96489679 0 0)
(0.98757843 0 0)
(1.008901 0 0)
(1.0287653 0 0)
(1.0470143 0 0)
(1.0634597 0 0)
(1.0779047 0 0)
(1.0901427 0 0)
(1.0999544 0 0)
(1.1071213 0 0)
(1.1114498 0 0)
(1.1127937 0 0)
(1.1110587 0 0)
(1.1062226 0 0)
(1.0983508 0 0)
(1.0875581 0 0)
(1.0740738 0 0)
(1.0582249 0 0)
(1.0403871 0 0)
(1.0210286 0 0)
(1.0006467 0 0)
(0.97973134 0 0)
(0.95891752 0 0)
(0.93895116 0 0)
(0.92062303 0 0)
(0.90493044 0 0)
(0.89304186 0 0)
(0.88622132 0 0)
(0.61376498 0 0)
(0.57504765 0 0)
(0.53471688 0 0)
(0.49234954 0 0)
(0.44768035 0 0)
(0.40060461 0 0)
(0.35050978 0 0)
(0.29709685 0 0)
(0.23975763 0 0)
(0.17803371 0 0)
(0.11132779 0 0)
(0.038691424 0 0)
(0.65094979 0 0)
(0.68678945 0 0)
(0.72151523 0 0)
(0.75538056 0 0)
(0.78839194 0 0)
(0.82062475 0 0)
(0.85223177 0 0)
(0.88337288 0 0)
(0.91415659 0 0)
(0.9419272 0 0)
(0.96613495 0 0)
(0.98913264 0 0)
(1.0108593 0 0)
(1.0312388 0 0)
(1.0501268 0 0)
(1.067347 0 0)
(1.0827154 0 0)
(1.0960326 0 0)
(1.1070843 0 0)
(1.1156499 0 0)
(1.1215154 0 0)
(1.1245019 0 0)
(1.1244806 0 0)
(1.1213804 0 0)
(1.1152045 0 0)
(1.1060471 0 0)
(1.0940466 0 0)
(1.0794499 0 0)
(1.0625984 0 0)
(1.0438739 0 0)
(1.0237494 0 0)
(1.0027194 0 0)
(0.98125714 0 0)
(0.95998718 0 0)
(0.93964588 0 0)
(0.92101764 0 0)
(0.9050922 0 0)
(0.89303358 0 0)
(0.88608007 0 0)
(0.65078902 0 0)
(0.61388044 0 0)
(0.5754207 0 0)
(0.53537766 0 0)
(0.4932502 0 0)
(0.44876677 0 0)
(0.40181526 0 0)
(0.35176379 0 0)
(0.29834117 0 0)
(0.24089086 0 0)
(0.17896566 0 0)
(0.11167557 0 0)
(0.038681108 0 0)
(0.68623916 0 0)
(0.72055358 0 0)
(0.75398731 0 0)
(0.78655707 0 0)
(0.81833082 0 0)
(0.84946745 0 0)
(0.88013222 0 0)
(0.91040965 0 0)
(0.94039167 0 0)
(0.96726246 0 0)
(0.99049906 0 0)
(1.0125715 0 0)
(1.0333953 0 0)
(1.0528425 0 0)
(1.0707489 0 0)
(1.0869429 0 0)
(1.1012373 0 0)
(1.1134246 0 0)
(1.1232833 0 0)
(1.1305928 0 0)
(1.1351579 0 0)
(1.1368124 0 0)
(1.1354424 0 0)
(1.1310014 0 0)
(1.1235226 0 0)
(1.1131262 0 0)
(1.0999695 0 0)
(1.0843174 0 0)
(1.0665232 0 0)
(1.0469699 0 0)
(1.0261365 0 0)
(1.0045121 0 0)
(0.98254563 0 0)
(0.96085801 0 0)
(0.94018235 0 0)
(0.92128424 0 0)
(0.90514967 0 0)
(0.8928571 0 0)
(0.88582397 0 0)
(0.68607017 0 0)
(0.65090926 0 0)
(0.61426658 0 0)
(0.57612366 0 0)
(0.53634926 0 0)
(0.49443488 0 0)
(0.45010559 0 0)
(0.40324116 0 0)
(0.35320542 0 0)
(0.29974072 0 0)
(0.24214948 0 0)
(0.17949938 0 0)
(0.11166178 0 0)
(0.038670408 0 0)
(0.71998609 0 0)
(0.75299514 0 0)
(0.78512205 0 0)
(0.81644165 0 0)
(0.84711575 0 0)
(0.87730122 0 0)
(0.9070887 0 0)
(0.9365536 0 0)
(0.96573099 0 0)
(0.99174031 0 0)
(1.0140779 0 0)
(1.0352802 0 0)
(1.0552123 0 0)
(1.0737203 0 0)
(1.0906474 0 0)
(1.1058198 0 0)
(1.1190392 0 0)
(1.1300886 0 0)
(1.1387458 0 0)
(1.1448026 0 0)
(1.1480705 0 0)
(1.1483981 0 0)
(1.1456958 0 0)
(1.1399444 0 0)
(1.1312022 0 0)
(1.119615 0 0)
(1.1053578 0 0)
(1.0887089 0 0)
(1.0700304 0 0)
(1.0497068 0 0)
(1.0282175 0 0)
(1.0060435 0 0)
(0.98361668 0 0)
(0.96155269 0 0)
(0.94057673 0 0)
(0.9214375 0 0)
(0.90492318 0 0)
(0.89252155 0 0)
(0.88546189 0 0)
(0.71981354 0 0)
(0.68619495 0 0)
(0.6513122 0 0)
(0.61500394 0 0)
(0.57715658 0 0)
(0.53762098 0 0)
(0.49588954 0 0)
(0.45168244 0 0)
(0.40488011 0 0)
(0.35482443 0 0)
(0.30129207 0 0)
(0.24285393 0 0)
(0.17949614 0 0)
(0.11164876 0 0)
(0.038658067 0 0)
(0.75240624 0 0)
(0.78410334 0 0)
(0.81497091 0 0)
(0.84517762 0 0)
(0.87488735 0 0)
(0.90419281 0 0)
(0.93316471 0 0)
(0.96181632 0 0)
(0.99022181 0 0)
(1.0154386 0 0)
(1.0369373 0 0)
(1.0572849 0 0)
(1.0763165 0 0)
(1.0938896 0 0)
(1.1098445 0 0)
(1.1239948 0 0)
(1.1361311 0 0)
(1.1460317 0 0)
(1.1534792 0 0)
(1.1582777 0 0)
(1.1602542 0 0)
(1.1592701 0 0)
(1.1552597 0 0)
(1.148231 0 0)
(1.1382697 0 0)
(1.1255432 0 0)
(1.1102413 0 0)
(1.0926537 0 0)
(1.0731504 0 0)
(1.0521114 0 0)
(1.0300157 0 0)
(1.0073388 0 0)
(0.98449429 0 0)
(0.96209262 0 0)
(0.94084735 0 0)
(0.92115487 0 0)
(0.90444805 0 0)
(0.8920922 0 0)
(0.88498506 0 0)
(0.75222917 0 0)
(0.71994439 0 0)
(0.68661196 0 0)
(0.6520827 0 0)
(0.61608685 0 0)
(0.57850836 0 0)
(0.53919014 0 0)
(0.497612 0 0)
(0.45349477 0 0)
(0.40672033 0 0)
(0.35662339 0 0)
(0.30214256 0 0)
(0.2428588 0 0)
(0.17949642 0 0)
(0.11163322 0 0)
(0.038644151 0 0)
(0.78349956 0 0)
(0.81392199 0 0)
(0.84367164 0 0)
(0.87290537 0 0)
(0.9017218 0 0)
(0.93020052 0 0)
(0.95835652 0 0)
(0.98623324 0 0)
(1.0139437 0 0)
(1.0384286 0 0)
(1.0591028 0 0)
(1.0785882 0 0)
(1.0967247 0 0)
(1.1133708 0 0)
(1.1283544 0 0)
(1.1414754 0 0)
(1.1525167 0 0)
(1.1612581 0 0)
(1.1674925 0 0)
(1.1710369 0 0)
(1.1717269 0 0)
(1.1694451 0 0)
(1.164153 0 0)
(1.1558857 0 0)
(1.1447519 0 0)
(1.1309396 0 0)
(1.1146506 0 0)
(1.0961836 0 0)
(1.0759118 0 0)
(1.0542081 0 0)
(1.031555 0 0)
(1.0084239 0 0)
(0.98520122 0 0)
(0.96249235 0 0)
(0.9405002 0 0)
(0.92049534 0 0)
(0.90389664 0 0)
(0.89155794 0 0)
(0.8843985 0 0)
(0.78332184 0 0)
(0.75236262 0 0)
(0.72037613 0 0)
(0.68741183 0 0)
(0.65321528 0 0)
(0.61751086 0 0)
(0.58017636 0 0)
(0.54104258 0 0)
(0.49958842 0 0)
(0.45553115 0 0)
(0.40875958 0 0)
(0.35759148 0 0)
(0.30214553 0 0)
(0.24286959 0 0)
(0.17949426 0 0)
(0.11161345 0 0)
(0.038628448 0 0)
(0.81330513 0 0)
(0.84259726 0 0)
(0.87135944 0 0)
(0.89969729 0 0)
(0.927682 0 0)
(0.95533738 0 0)
(0.98270931 0 0)
(1.0098821 0 0)
(1.0369629 0 0)
(1.060737 0 0)
(1.0805792 0 0)
(1.0992066 0 0)
(1.1164596 0 0)
(1.1321819 0 0)
(1.1461866 0 0)
(1.1582655 0 0)
(1.1681997 0 0)
(1.1757748 0 0)
(1.1807924 0 0)
(1.1830814 0 0)
(1.182496 0 0)
(1.1789381 0 0)
(1.1723968 0 0)
(1.1629325 0 0)
(1.1506767 0 0)
(1.1358337 0 0)
(1.1186158 0 0)
(1.0993268 0 0)
(1.078338 0 0)
(1.0560215 0 0)
(1.0328659 0 0)
(1.0093189 0 0)
(0.98575283 0 0)
(0.9620751 0 0)
(0.93962036 0 0)
(0.91978342 0 0)
(0.90325954 0 0)
(0.89092421 0 0)
(0.88369249 0 0)
(0.81312111 0 0)
(0.78346146 0 0)
(0.75280788 0 0)
(0.72120447 0 0)
(0.68859022 0 0)
(0.65470572 0 0)
(0.61926553 0 0)
(0.58214593 0 0)
(0.54317193 0 0)
(0.50181082 0 0)
(0.45779033 0 0)
(0.40985096 0 0)
(0.35758315 0 0)
(0.30214885 0 0)
(0.24287462 0 0)
(0.17948638 0 0)
(0.11158886 0 0)
(0.038610509 0 0)
(0.84196715 0 0)
(0.87026122 0 0)
(0.89811654 0 0)
(0.92560949 0 0)
(0.95276705 0 0)
(0.9796379 0 0)
(1.006302 0 0)
(1.0328354 0 0)
(1.0593055 0 0)
(1.0823664 0 0)
(1.1013837 0 0)
(1.1191631 0 0)
(1.1355371 0 0)
(1.1503302 0 0)
(1.1633441 0 0)
(1.1743671 0 0)
(1.1831832 0 0)
(1.189584 0 0)
(1.1933836 0 0)
(1.1944259 0 0)
(1.192578 0 0)
(1.187768 0 0)
(1.180013 0 0)
(1.1693975 0 0)
(1.156072 0 0)
(1.1402553 0 0)
(1.122166 0 0)
(1.1021063 0 0)
(1.0804544 0 0)
(1.0575839 0 0)
(1.0339683 0 0)
(1.0100479 0 0)
(0.98527204 0 0)
(0.96094359 0 0)
(0.93871427 0 0)
(0.91900825 0 0)
(0.90253884 0 0)
(0.89017897 0 0)
(0.8828735 0 0)
(0.84178017 0 0)
(0.81326533 0 0)
(0.78392183 0 0)
(0.75366325 0 0)
(0.72242453 0 0)
(0.69013966 0 0)
(0.65654274 0 0)
(0.62134291 0 0)
(0.58441004 0 0)
(0.54556558 0 0)
(0.50427875 0 0)
(0.45899046 0 0)
(0.40983033 0 0)
(0.35758009 0 0)
(0.30214827 0 0)
(0.24287301 0 0)
(0.17946955 0 0)
(0.11155636 0 0)
(0.038589559 0 0)
(0.86961258 0 0)
(0.89699697 0 0)
(0.9240005 0 0)
(0.95065789 0 0)
(0.97702222 0 0)
(1.0031791 0 0)
(1.029203 0 0)
(1.0551218 0 0)
(1.080982 0 0)
(1.1033331 0 0)
(1.1215355 0 0)
(1.1384778 0 0)
(1.153966 0 0)
(1.1678165 0 0)
(1.1798267 0 0)
(1.1897819 0 0)
(1.1974698 0 0)
(1.202692 0 0)
(1.2052745 0 0)
(1.205076 0 0)
(1.2019846 0 0)
(1.1959529 0 0)
(1.1870252 0 0)
(1.1753072 0 0)
(1.1609667 0 0)
(1.1442328 0 0)
(1.1253226 0 0)
(1.104549 0 0)
(1.082296 0 0)
(1.0589173 0 0)
(1.0348896 0 0)
(1.0095122 0 0)
(0.98388408 0 0)
(0.959819 0 0)
(0.93777244 0 0)
(0.91817253 0 0)
(0.90172555 0 0)
(0.88933031 0 0)
(0.88193059 0 0)
(0.86942167 0 0)
(0.84192843 0 0)
(0.81373515 0 0)
(0.7848034 0 0)
(0.75492335 0 0)
(0.72402924 0 0)
(0.69205403 0 0)
(0.65872071 0 0)
(0.623731 0 0)
(0.58695549 0 0)
(0.54821984 0 0)
(0.50557475 0 0)
(0.4589658 0 0)
(0.40981843 0 0)
(0.35757494 0 0)
(0.30213222 0 0)
(0.24285546 0 0)
(0.17944017 0 0)
(0.11151502 0 0)
(0.038564635 0 0)
(0.89633467 0 0)
(0.92285181 0 0)
(0.94901411 0 0)
(0.97487836 0 0)
(1.0005245 0 0)
(1.0260329 0 0)
(1.0514396 0 0)
(1.0767465 0 0)