/*--------------------------------*- C++ -*----------------------------------*\
| =========                 |                                                 |
| \\      /  F ield         | OpenFOAM: The Open Source CFD Toolbox           |
|  \\    /   O peration     | Version:  v2012                                 |
|   \\  /    A nd           | Website:  www.openfoam.com                      |
|    \\/     M anipulation  |                                                 |
\*---------------------------------------------------------------------------*/
FoamFile
{
    version     2.0;
    format      ascii;
    class       surfaceScalarField;
    location    "15.7997241758257";
    object      meshPhi;
}
// * * * * * * * * * * * * * * * * * * * * * * * * * * * * * * * * * * * * * //

dimensions      [0 3 -1 0 0 0 0];
oriented        oriented;


internalField   nonuniform List<scalar> 
18180
(
0
-0.05565152
0
-0.050855326
0
-0.11073579
0
-0.04629464
0
-0.10172142
0
-0.16542782
0
-0.043541908
0
-0.094122147
0
-0.15315317
0
-0.21813602
-7.6479834e-14
-0.042732022
-3.6958856e-14
-0.089535561
0
-0.1428629
0
-0.2030484
6.6677978e-14
-0.26814235
3.8207139e-14
-0.042847838
0
-0.087623723
0
-0.13607028
6.8996853e-14
-0.19004131
0
-0.25007345
0
-0.31435783
-2.9336634e-17
-0.042963141
-3.6925805e-14
-0.086959537
2.6010858e-17
-0.13211087
3.4459925e-14
-0.18029303
-6.6594926e-14
-0.23414615
0
-0.29396093
-6.2153644e-14
-0.35790632
0
-0.042312287
0
-0.085865386
0
-0.12901717
-3.4467748e-14
-0.17296064
3.3283777e-14
-0.22077834
-6.4318697e-14
-0.27513875
0
-0.33511149
0
-0.39820699
0
-0.040693757
0
-0.083147862
-3.5627237e-14
-0.12483847
0
-0.16588373
0
-0.20903184
0
-0.2581217
0
-0.31390963
0
-0.37344675
0
-0.43555892
7.6305112e-14
-0.038511737
3.6878659e-14
-0.079100808
3.5637881e-14
-0.11924394
3.4435837e-14
-0.15823219
3.3273607e-14
-0.19832142
-3.2131373e-14
-0.24309338
3.1084477e-14
-0.29429213
0
-0.35042468
0
-0.40886816
0
-0.46946224
0
-0.036186927
3.6865181e-14
-0.074593658
0
-0.11297906
-3.4399901e-14
-0.15032599
-3.3239246e-14
-0.18824919
3.2116457e-14
-0.22977197
1.9472174e-17
-0.2767805
-2.9981296e-14
-0.32893153
5.7965715e-14
-0.38435592
0
-0.44127727
2.7841418e-17
-0.50083882
0
-0.033896041
0
-0.070074239
0
-0.1066095
0
-0.14240327
0
-0.17854832
0
-0.21770452
3.1015759e-14
-0.2614891
1.8958753e-17
-0.30947451
0
-0.36122711
0
-0.41544729
0
-0.47104116
-5.2199228e-14
-0.5294858
-1.9065625e-14
-0.03169188
0
-0.065719327
0
-0.10039472
3.4398022e-14
-0.13464934
0
-0.16926358
0
-0.20648964
-3.1000745e-14
-0.24774142
0
-0.29214383
1.7530831e-17
-0.33980286
0
-0.39091377
-5.4018834e-14
-0.44395086
0
-0.49822766
0
-0.55587543
0
-0.029591374
1.8401759e-14
-0.061572252
0
-0.094430095
0
-0.12713734
0
-0.16030947
0
-0.19572427
0
-0.23467766
0
-0.27628659
2.892169e-14
-0.32014135
-2.7942262e-14
-0.36757638
-2.6995576e-14
-0.41813223
5.218687e-14
-0.46995793
0
-0.52309358
0
-0.57981578
-1.9041213e-14
-0.02759699
-1.839768e-14
-0.05763996
1.7778135e-14
-0.088745516
0
-0.1198888
0
-0.15160304
0
-0.18525122
0
-0.22190989
0
-0.26104909
-2.8905767e-14
-0.30175988
-1.5500274e-17
-0.34554992
1.4906503e-17
-0.39329381
2.6079549e-14
-0.44308211
0
-0.49368855
0
-0.54579827
0
-0.60203269
1.9053253e-14
-0.025710267
1.8409096e-14
-0.053916158
0
-0.083343099
-1.7185493e-14
-0.11292733
0
-0.14315915
0
-0.17511503
0
-0.20951422
0
-0.2462162
0
-0.28437926
0
-0.32486204
2.6963688e-14
-0.36939985
1.3854385e-17
-0.41708564
2.517978e-14
-0.46586977
0
-0.51530938
0
-0.5666742
0
-0.62240942
0
-0.023931364
0
-0.050396137
1.7784989e-14
-0.07821982
1.7182094e-14
-0.10626977
0
-0.13499789
0
-0.16534527
0
-0.1976605
0
-0.23198251
0
-0.26782489
0
-0.30551074
0
-0.3467949
2.603299e-14
-0.39194752
2.516372e-14
-0.4390431
2.4310265e-14
-0.48661737
0
-0.5350792
0
-0.58581981
-4.380641e-14
-0.6412709
-1.5354149e-17
-0.022259764
1.4988293e-17
-0.047075608
1.7782417e-14
-0.073370405
1.2349251e-17
-0.099926332
1.6594599e-14
-0.12714673
-1.6028306e-14
-0.15595474
0
-0.18639284
0
-0.21850171
-2.8862059e-14
-0.25216938
0
-0.28764823
0
-0.32605644
-2.6015421e-14
-0.36814861
2.5133245e-14
-0.41310688
1.1802762e-17
-0.45910055
0
-0.50551111
-4.5329423e-14
-0.55313175
4.3789172e-14
-0.60339329
-4.2294041e-14
-0.65848073
0
-0.020693003
1.8401651e-14
-0.043949382
0
-0.068788531
0
-0.093902029
-4.9752802e-14
-0.11962549
1.052584e-17
-0.14694745
0
-0.17567944
0
-0.20580737
0
-0.23750229
0
-0.27108729
0
-0.30721832
0
-0.34637306
2.5128778e-14
-0.38849297
0
-0.43258544
-2.3442238e-14
-0.47738283
0
-0.52271021
-4.3763445e-14
-0.56962785
0
-0.61951865
4.0846912e-14
-0.67448827
0
-0.019229055
1.8384901e-14
-0.041011493
0
-0.064466541
1.7174727e-14
-0.088198581
-1.6589293e-14
-0.1124544
1.0638661e-17
-0.13833516
0
-0.16548303
1.4931415e-14
-0.19382022
0
-0.22370672
0
-0.2555309
1.5390719e-17
-0.28984991
0
-0.32673759
0
-0.36587827
1.2622239e-17
-0.40732697
-2.34347e-14
-0.4503906
0
-0.49398577
0
-0.53835866
0
-0.5846924
0
-0.63437489
-3.9421194e-14
-0.6892178
0
-0.017864677
0
-0.038255484
-1.7777145e-14
-0.060395959
1.7160299e-14
-0.082818728
1.6587254e-14
-0.10564959
1.0745257e-17
-0.13013123
0
-0.1557832
8.9881876e-18
-0.18246267
-8.3691412e-18
-0.21068045
0
-0.24087714
0
-0.27356224
-2.5964015e-14
-0.30865989
0
-0.34541005
0
-0.38394537
0
-0.42461151
2.2611657e-14
-0.46658412
8.9076993e-18
-0.50907907
0
-0.5525798
0
-0.59847779
0
-0.64804216
3.8069531e-14
-0.70285506
0
-0.016596073
1.8382305e-14
-0.035674622
1.7776035e-14
-0.056567415
1.7158805e-14
-0.077756586
-1.658556e-14
-0.099217786
0
-0.12234388
0
-0.14656703
1.4923498e-14
-0.17168536
-1.4417935e-14
-0.19833439
0
-0.22699963
0
-0.25809732
0
-0.29153523
0
-0.32649169
0
-0.36255721
0
-0.40045797
0
-0.44038733
-9.3394133e-18
-0.4813376
0
-0.52275147
0
-0.56550681
3.9390273e-14
-0.61108391
0
-0.66058988
1.1028041e-17
-0.7153253
9.512021e-15
-0.015418272
0
-0.033262367
0
-0.052968884
-1.7157574e-14
-0.072997996
0
-0.093154066
1.6004483e-14
-0.11497179
0
-0.13782535
0
-0.1614592
8.4653073e-18
-0.18661205
0
-0.21378615
-1.343749e-14
-0.24333353
0
-0.27507543
0
-0.3083553
0
-0.34258152
0
-0.37817187
0
-0.41570325
9.746929e-18
-0.45481783
-2.1078512e-14
-0.49469692
-2.03592e-14
-0.53514607
0
-0.5772578
-3.8014126e-14
-0.6225935
0
-0.67212366
1.0168904e-17
-0.72689499
-9.5188828e-15
-0.014326374
0
-0.031011326
0
-0.049590108
0
-0.068527798
1.6583006e-14
-0.08744696
0
-0.10800668
-1.5461335e-14
-0.12954873
0
-0.15176717
1.4401882e-14
-0.17548783
1.3912603e-14
-0.20120481
-1.3424054e-14
-0.22924584
-1.296901e-14
-0.25928629
2.5045034e-14
-0.29084552
2.4171924e-14
-0.32358115
2.3358251e-14
-0.3574845
0
-0.39281125
0
-0.42972661
0
-0.46794234
-2.0346203e-14
-0.5067906
1.9659747e-14
-0.54634105
-1.8996307e-14
-0.58790883
0
-0.63310229
0
-0.68272507
3.4247628e-14
-0.73753472
9.5110278e-15
-0.013316305
-9.1899613e-15
-0.028913035
8.872033e-15
-0.046419807
0
-0.064328515
0
-0.0820862
0
-0.10143791
1.5459584e-14
-0.12172425
0
-0.14259573
1.4407284e-14
-0.16494711
0
-0.18924169
1.342764e-14
-0.21582273
0
-0.24424749
1.250844e-14
-0.27410921
0
-0.30534519
4.6668576e-14
-0.33787538
0
-0.37153388
0
-0.40636584
0
-0.44253467
2.0324964e-14
-0.47978953
0
-0.51767702
5.9255836e-18
-0.55644043
5.1953223e-18
-0.59755281
0
-0.64268794
0
-0.6924741
0
-0.74733229
0
-0.0123839
9.1972408e-15
-0.026960264
8.8868217e-15
-0.04344687
-6.7978055e-18
-0.060382108
0
-0.077052481
-1.6011675e-14
-0.095248797
1.022936e-17
-0.11433664
0
-0.13392891
0
-0.15497738
0
-0.17788911
0
-0.20305819
8.0211835e-18
-0.22995167
0
-0.25817199
-1.2077682e-14
-0.28784035
0
-0.31904268
0
-0.35142385
2.1755583e-14
-0.38456108
0
-0.41869777
0
-0.4540687
0
-0.49045294
0
-0.52745469
1.8318313e-14
-0.56550712
-4.6676929e-18
-0.60626375
0
-0.65143807
0
-0.70138401
7.8868018e-18
-0.75626636
-9.5102303e-15
-0.01152515
9.1894604e-15
-0.025145983
0
-0.040660714
-8.5772501e-15
-0.05667168
-8.2903151e-15
-0.072327295
0
-0.089420757
0
-0.1073637
0
-0.12574833
0
-0.14556564
0
-0.16713884
0
-0.19094296
0
-0.21637786
7.4121871e-18
-0.24302804
0
-0.27114597
-1.1654452e-14
-0.30093735
0
-0.33208914
0
-0.36388579
-2.0985232e-14
-0.39632136
-2.0273113e-14
-0.42981416
1.9595339e-14
-0.46443664
0
-0.49996271
-5.4978289e-18
-0.53617756
0
-0.57363646
-3.4168763e-14
-0.61414371
-3.3010056e-14
-0.65938628
0
-0.70955301
3.0802653e-14
-0.76448327
0
-0.010734692
0
-0.02346121
-8.8865733e-15
-0.038052473
0
-0.053183057
0
-0.067889016
-5.6203962e-18
-0.08393181
0
-0.1007856
-1.490947e-14
-0.11803394
1.4400247e-14
-0.13669238
0
-0.15697998
-8.5725255e-18
-0.17946864
-1.294163e-14
-0.20350602
0
-0.22864368
6.9367972e-18
-0.25525565
6.6095359e-18
-0.28357785
-6.1931049e-18
-0.31337679
0
-0.34396692
0
-0.37498665
-2.0251679e-14
-0.40682842
0
-0.43975039
-1.8911943e-14
-0.47364854
0
-0.50843091
0
-0.5439405
4.2153328e-18
-0.58091513
-1.6489308e-14
-0.62123146
0
-0.66661797
0
-0.7170032
0
-0.77199483
0
-0.010008538
9.1890626e-15
-0.02189802
8.8864805e-15
-0.035610404
-7.049396e-18
-0.049901134
0
-0.0637172
5.6242828e-18
-0.078757364
-7.7274434e-15
-0.094579235
0
-0.11076387
0
-0.12833404
1.3898004e-14
-0.14739654
0
-0.16861859
-1.2946302e-14
-0.19131568
0
-0.21498648
0
-0.24012494
1.1641162e-14
-0.26698257
0
-0.2953102
0
-0.32456604
0
-0.35432776
2.0239313e-14
-0.38480347
1.954348e-14
-0.41625553
0
-0.44859783
0
-0.4818208
1.7638841e-14
-0.51590498
-4.3257012e-18
-0.55084625
-3.2945279e-14
-0.58741561
0
-0.62761302
0
-0.67316262
0
-0.72381759
0
-0.77883016
0
-0.0093384806
0
-0.020449152
0
-0.033324485
8.5837509e-15
-0.046812348
8.283737e-15
-0.059792295
-5.6204244e-18
-0.073880229
5.1579195e-18
-0.088723935
-4.5207455e-18
-0.10391774
0
-0.12046446
-1.3887707e-14
-0.13835896
1.3411827e-14
-0.15837283
0
-0.1797862
-1.2491039e-14
-0.20203379
0
-0.22573293
-1.1635459e-14
-0.25116353
-1.1224997e-14
-0.27798976
1.0842376e-14
-0.30578002
0
-0.33430118
0
-0.36358531
0
-0.39371358
-3.7719807e-14
-0.42467711
0
-0.45642483
5.1524899e-18
-0.48901162
0
-0.5225342
0
-0.55697489
1.5901762e-14
-0.59321175
-1.5363599e-14
-0.63332488
0
-0.67910511
0
-0.72998092
-2.7692046e-14
-0.7850122
-4.2792428e-05
-0.010226623
1.8385655e-14
-0.019100935
0
-0.031184371
0
-0.043903281
5.8920167e-18
-0.056102418
-5.6126427e-18
-0.069285923
0
-0.083201648
7.4575711e-15
-0.097473812
-4.4356953e-18
-0.11305455
0
-0.12983695
0
-0.1487012
1.2940605e-14
-0.16889297
1.2480249e-14
-0.18976664
1.2044161e-14
-0.21206361
0
-0.2361135
-1.122509e-14
-0.26149549
1.0840709e-14
-0.28780251
0
-0.31496918
0
-0.34306518
0
-0.37202648
0
-0.40173242
1.8206329e-14
-0.43215918
0
-0.46332159
0
-0.49536031
3.9021983e-18
-0.52837302
-1.5881434e-14
-0.56240896
-1.5345839e-14
-0.5983623
-1.4832185e-14
-0.63846149
0
-0.68444915
0
-0.7355872
2.6732098e-14
-0.79061235
-7.1949781e-05
-0.01019425
-0.00012577332
-0.020769414
8.8865273e-15
-0.029172921
0
-0.041160393
0
-0.052631157
5.5993708e-18
-0.06496328
0
-0.077995638
7.4480864e-15
-0.091406247
0
-0.10607496
-4.2190892e-18
-0.12179501
0
-0.13956786
-1.2938311e-14
-0.15860886
0
-0.17816161
0
-0.19909692
0
-0.22182029
-1.1213273e-14
-0.24582728
0
-0.27069029
4.8837446e-18
-0.29642714
0
-0.32325612
9.7407881e-15
-0.35113247
0
-0.37969811
0
-0.40887468
1.7568999e-14
-0.4387567
0
-0.4693834
-1.6404639e-14
-0.50093322
-3.4474659e-18
-0.53354054
0
-0.56720546
-2.962447e-14
-0.60294778
2.8629793e-14
-0.64303555
-2.7657943e-14
-0.68927511
0
-0.74063105
0
-0.79567621
-8.9054971e-05
-0.010168557
-0.00021156719
-0.020774658
-0.00020615457
-0.031509679
-8.5837606e-15
-0.038560371
-8.28904e-15
-0.049362474
0
-0.060896421
5.1337812e-18
-0.073090496
-7.4568473e-15
-0.085690744
7.1924793e-15
-0.099497106
1.3892228e-14
-0.1142042
-4.431368e-18
-0.13093768
0
-0.14889983
0
-0.16719421
0
-0.1868139
6.7981301e-18
-0.2082654
0
-0.23096609
-1.0817104e-14
-0.25444867
0
-0.2787743
1.0083487e-14
-0.30424834
9.7356439e-15
-0.33095245
0
-0.35844921
0
-0.38651038
0
-0.41519822
4.7534593e-18
-0.44455865
0
-0.47469686
0
-0.50583792
3.0155568e-18
-0.53806928
0
-0.57145501
1.4299296e-14
-0.60700716
-1.3815554e-14
-0.64712231
0
-0.69359119
0
-0.74519676
-2.489479e-14
-0.80020018
-9.5696691e-05
-0.010153333
-0.00026194404
-0.020781068
-0.00034702938
-0.031627439
-0.00027931127
-0.041375779
-8.2832311e-15
-0.046267154
0
-0.057072766
0
-0.06847438
4.5736836e-18
-0.08030829
7.1920845e-15
-0.093295551
0
-0.10703596
-6.7027831e-15
-0.12278414
6.463043e-15
-0.13973498
-1.2479637e-14
-0.15683986
0
-0.17519451
1.1618293e-14
-0.19543009
0
-0.21689051
1.0811797e-14
-0.23905388
1.0439445e-14
-0.26202198
0
-0.28610428
-9.7230389e-15
-0.31149769
-9.388425e-15
-0.33788622
0
-0.36491512
0
-0.39254205
0
-0.42076209
0
-0.44963436
0
-0.47934436
1.5284463e-14
-0.51012589
-1.4771516e-14
-0.54207303
1.4278015e-14
-0.57519643
2.0418596e-18
-0.61059953
-2.6668889e-14
-0.65074676
0
-0.69748155
0
-0.74926221
0
-0.80423642
-9.3374262e-05
-0.010148524
-0.00028144562
-0.020794369
-0.00042986733
-0.031729949
-0.00047057874
-0.041668262
-0.00033765202
-0.049305139
0
-0.053461009
0
-0.064135823
0
-0.075244105
4.525268e-18
-0.087448446
-4.1029686e-18
-0.10027021
0
-0.11508355
-6.4622731e-15
-0.13108638
-6.238806e-15
-0.14707227
0
-0.16421816
0
-0.1832913
-1.1199977e-14
-0.20357458
0
-0.22447614
0
-0.24614125
1.0069392e-14
-0.26885578
-9.7152258e-15
-0.29286213
3.6904263e-18
-0.31801933
-9.0573721e-15
-0.34396179
0
-0.3706263
0
-0.39790268
0
-0.42564815
-1.5785167e-14
-0.45406446
0
-0.48340139
0
-0.51389255
-1.4257313e-14
-0.54557677
0
-0.57849535
1.7990509e-18
-0.61376968
0
-0.65399409
0
-0.7009483
0
-0.75291491
2.31882e-14
-0.80780794
-8.3624471e-05
-0.010154153
-0.00027454022
-0.020814688
-0.0004618972
-0.031823632
-0.00058320255
-0.041920503
-0.00056917355
-0.049801508
-0.00038270051
-0.056526506
-1.5446653e-14
-0.060031432
0
-0.070481691
0
-0.081935066
4.0427999e-18
-0.093886052
0
-0.10781472
0
-0.12292836
0
-0.13786315
-6.0182642e-15
-0.15385955
0
-0.17182764
0
-0.19099268
1.0808502e-14
-0.21068694
0
-0.23110546
0
-0.25250988
9.7121468e-15
-0.27512432
-9.3712257e-15
-0.29895795
0
-0.32373561
-8.7379956e-15
-0.34936179
0
-0.37576747
0
-0.40263125
0
-0.42991406
1.5236878e-14
-0.45792058
0
-0.48693095
0
-0.5171806
1.3762973e-14
-0.54866347
1.3301243e-14
-0.58138049
1.5859229e-18
-0.61658052
-1.2420949e-14
-0.65689874
0
-0.70406942
0
-0.75613922
0
-0.81097689
-6.7915348e-05
-0.010170436
-0.00024571508
-0.02084188
-0.00045049136
-0.031908661
-0.00062686268
-0.042144476
-0.00070579554
-0.050233415
-0.0006450639
-0.057192658
-0.00041941813
-0.062979223
0
-0.065976002
0
-0.076737052
0
-0.087869393
4.4775464e-18
-0.10095602
-6.465419e-15
-0.11523555
0
-0.12918546
3.1937397e-18
-0.14409514
5.8016293e-15
-0.16101522
0
-0.17911949
0
-0.19765861
0
-0.21688569
0
-0.23704633
-4.001783e-18
-0.25831955
0
-0.28080569
-9.0426563e-15
-0.30435269
2.8936932e-18
-0.3288297
0
-0.35425751
-8.145886e-15
-0.38036836
0
-0.40679237
0
-0.43362673
0
-0.46125433
0
-0.48999564
0
-0.52005388
0
-0.55134123
1.2837931e-14
-0.58392089
1.2408227e-14
-0.61909681
0
-0.65952786
2.3161234e-14
-0.70684837
2.2366449e-14
-0.75901228
0
-0.81372351
-4.7749418e-05
-0.010197104
-0.00019938915
-0.020875804
-0.00040294052
-0.031985047
-0.00061142251
-0.042339711
-0.00075897542
-0.050618849
-0.00079983374
-0.057775085
-0.0007064077
-0.063807356
-0.00044872692
-0.06874967
0
-0.071812529
0
-0.082210803
0
-0.094496408
4.4773357e-18
-0.10798434
-3.3999547e-18
-0.12101612
0
-0.13490094
5.8040944e-15
-0.15082689
5.5954002e-15
-0.16792824
0
-0.18536122
-1.0415397e-14
-0.20344887
-1.0048683e-14
-0.22243379
0
-0.24243706
9.3568189e-15
-0.26359981
3.2855085e-18
-0.28587649
0
-0.30918033
-2.5262321e-14
-0.33350912
0
-0.35872754
0
-0.38445509
-1.518567e-14
-0.41041835
0
-0.43682895
1.4190925e-14
-0.46412471
0
-0.49263878
0
-0.52254153
0
-0.55368856
0
-0.58615725
0
-0.62136392
0
-0.66190903
0
-0.70935333
0
-0.76150714
0
-0.81610932
-2.4604742e-05
-0.010233924
-0.00014001604
-0.020916343
-0.00032668457
-0.032052423
-0.00054683416
-0.042505698
-0.00074053765
-0.050955903
-0.00086010748
-0.058293778
-0.00087516952
-0.064515769
-0.00075540086
-0.069810389
-0.00047307595
-0.074331815
0
-0.076874328
0
-0.088426516
0
-0.10115423
0
-0.11333035
-3.0685847e-18
-0.12625489
0
-0.14123542
0
-0.15738684
-2.8217846e-18
-0.17376377
0
-0.19076418
0
-0.20863699
0
-0.22744246
0
-0.24733735
-9.0274451e-15
-0.2683453
0
-0.29043662
-8.4131899e-15
-0.31362063
8.1273416e-15
-0.33780311
7.8483257e-15
-0.36273161
-7.5829796e-15
-0.38803795
0
-0.41355487
0
-0.43957541
1.3695546e-14
-0.46657646
0
-0.49491176
0
-0.52469937
0
-0.55572317
0
-0.58814193
-1.1556049e-14
-0.62343024
0
-0.66409621
0
-0.7115669
0
-0.76369529
0
-0.81813167
-0.010280317
0
-7.2051803e-05
-0.02096346
-0.00022912004
-0.032110569
-0.00044319845
-0.042641914
-0.00066250816
-0.051243145
-0.00083920815
-0.058746168
-0.00094041423
-0.065134756
-0.00093543533
-0.07072308
-0.00079651796
-0.075655098
-0.00049211055
-0.079040223
0
-0.082714104
0
-0.094723785
0
-0.10610055
6.0151093e-15
-0.11812966
-5.8024699e-15
-0.13221591
0
-0.14746432
5.3981086e-15
-0.16283583
-2.4304037e-18
-0.17879886
0
-0.19562166
0
-0.21329751
0
-0.23198772
0
-0.25175819
-2.9302385e-18
-0.27259782
0
-0.29460198
8.1127099e-15
-0.31772803
-7.8378289e-15
-0.34170982
0
-0.36627635
0
-0.39114484
-1.4143057e-14
-0.41623569
0
-0.44190744
-1.3215991e-14
-0.46865935
0
-0.49684521
0
-0.52655871
0
-0.55750369
0
-0.58990757
-1.115236e-14
-0.62533
0
-0.66609529
0
-0.71354423
0
-0.76555144
0
-0.81985247
-0.021016726
0
-0.010335309
2.4868624e-05
-0.00011772726
-0.032159462
-0.00031066742
-0.042747455
-0.00053702825
-0.051477824
-0.00075080968
-0.059131039
-0.0009169399
-0.065664723
-0.0010045686
-0.071516498
-0.0009864622
-0.076805414
-0.00082871918
-0.080624237
-0.00050923965
-0.084535518
0
-0.088640006
0
-0.099302105
0
-0.1105024
-5.7982498e-15
-0.12373907
-5.5958173e-15
-0.13812935
-5.397015e-15
-0.15254563
5.2031315e-15
-0.16752149
-2.205441e-18
-0.18335188
0
-0.1999636
0
-0.21751331
9.0148764e-15
-0.23609793
-8.6992754e-15
-0.25569911
-2.6655591e-18
-0.2764722
0
-0.29849765
-7.8278759e-15
-0.32152163
1.5122172e-14
-0.34521374
7.3052072e-15
-0.36936398
1.4118111e-14
-0.39379993
0
-0.41850818
0
-0.44387227
-1.2755253e-14
-0.47039953
0
-0.49848588
0
-0.52815743
0
-0.55904627
-1.1139456e-14
-0.59149908
-1.0762465e-14
-0.62710177
0
-0.66794245
2.0082651e-14
-0.71526039
0
-0.7671383
1.8714676e-14
-0.82124282
-0.032198874
0
-0.021076088
7.2579568e-05
-0.010397816
4.8767603e-05
-0.00015950618
-0.042821654
-0.0003764589
-0.051657341
-0.00060861105
-0.059444504
-0.00081980145
-0.066106889
-0.00097892286
-0.072191255
-0.0010594794
-0.077810759
-0.0010265721
-0.082012442
-0.00085771302
-0.086413671
-0.00052726706
-0.090058488
0
-0.09287994
0
-0.10335131
0
-0.11578045
3.5757176e-18
-0.12934973
-2.7919514e-18
-0.14286066
-5.2019916e-15
-0.15689816
1.0036634e-14
-0.17179186
-1.9578851e-18
-0.1874023
0
-0.2038755
0
-0.22133489
0
-0.23974446
0
-0.25926957
0
-0.28011624
-7.8161475e-15
-0.30215908
7.5487498e-15
-0.32498411
-7.2924985e-15
-0.34828264
7.0482269e-15
-0.372005
0
-0.39604789
0
-0.42041175
0
-0.44549662
0
-0.47184379
0
-0.4998555
1.1507188e-14
-0.52952171
1.112387e-14
-0.56040077
-1.0750285e-14
-0.59296016
9.2087098e-19
-0.62877054
0
-0.66962112
1.9377628e-14
-0.71676344
0
-0.76842724
0
-0.8223632
-0.042864626
0
-0.032232347
0.00011813875
-0.021141004
0.00014205843
-0.010467206
7.0065915e-05
-0.0001932617
-0.051779912
-0.00042665064
-0.059682773
-0.00066421532
-0.066462807
-0.00087475689
-0.072749066
-0.0010325249
-0.078670164
-0.0011027554
-0.083228304
-0.0010626569
-0.088072299
-0.00088812884
-0.092243024
-0.00053851228
-0.093796301
0
-0.096629214
0
-0.1083146
0
-0.12109308
2.7740189e-18
-0.13374852
0
-0.14689854
0
-0.16090661
-4.8375118e-15
-0.17557423
4.6657987e-15
-0.19103342
0
-0.20743222
0
-0.22470666
0
-0.24301791
0
-0.2626413
0
-0.28360342
-7.5390484e-15
-0.30555997
-1.9315068e-18
-0.32805772
-7.0355962e-15
-0.35092116
1.2128331e-18
-0.37423385
0
-0.39792866
0
-0.42198117
0
-0.44682724
1.188273e-14
-0.47301666
0
-0.5009937
0
-0.53068578
0
-0.5616079
1.0373681e-14
-0.59432623
1.0023073e-14
-0.63034186
0
-0.67116126
-1.8695392e-14
-0.71801719
0
-0.76948063
0
-0.82320559
-0.051843849
0
-0.042884077
0.00015973135
-0.0322603
0.00023072329
-0.021209944
0.00020371072
-0.010542151
8.7089607e-05
-0.00021902944
-0.059845448
-0.00046546866
-0.066733571
-0.00070844096
-0.073193629
-0.00092268664
-0.079384498
-0.0010749064
-0.084270086
-0.0011417096
-0.089523369
-0.0011003067
-0.09415786
-0.00090697812
-0.096263095
-0.00054201955
-0.097032391
0
-0.10129545
0
-0.11332719
0
-0.12517623
2.353394e-18
-0.13748887
5.0148582e-15
-0.15066237
-4.8361108e-15
-0.16444229
-9.3281111e-15
-0.17894602
4.4986561e-15
-0.19434835
0
-0.21055053
0
-0.22770125
8.0831394e-15
-0.24610913
-7.8018574e-15
-0.2659088
0
-0.28690517
-7.2719846e-15
-0.30864447
0
-0.33071856
1.2982239e-18
-0.35314097
-1.3121729e-14
-0.3761061
0
-0.39948155
0
-0.42325629
0
-0.44789213
0
-0.47395877
0
-0.50191695
0
-0.53168589
6.8205274e-19
-0.56270475
0
-0.59561399
-9.6701019e-15
-0.63183179
9.3403865e-15
-0.67251334
0
-0.71906452
0
-0.77027471
-1.6804283e-14
-0.82382492
-0.059930641
0
-0.051858728
0.00019340189
-0.04288039
0.00031155226
-0.032279737
0.00033010565
-0.021281423
0.00025269955
-0.010621715
9.8104137e-05
-0.0002389304
-0.066921475
-0.00049630691
-0.073529126
-0.00074725283
-0.079953304
-0.00096074404
-0.085136152
-0.0011129583
-0.090761308
-0.0011820225
-0.095828082
-0.0011235872
-0.098427611
-0.0009131072
-0.099801826
-0.00054582858
-0.10116888
0
-0.10599518
0
-0.11711343
-1.0401135e-14
-0.12864041
5.0161452e-15
-0.14102338
-1.9570368e-18
-0.15396993
0
-0.16757475
-4.4967865e-15
-0.18204102
8.6749851e-15
-0.19723489
0
-0.21328518
8.0767966e-15
-0.2305205
-7.7921438e-15
-0.24913106
0
-0.2690421
-2.115337e-18
-0.28992237
-7.0146686e-15
-0.31131498
-6.7785533e-15
-0.33296109
1.0930553e-18
-0.35500897
6.3318631e-15
-0.37765532
-6.4952325e-19
-0.40074574
0
-0.42427286
0
-0.44873155
0
-0.47468344
0
-0.50266269
0
-0.53254833
6.1407765e-19
-0.56371156
0
-0.59684259
7.8308153e-19
-0.63319863
0
-0.67369953
0
-0.7198827
0
-0.7708638
0
-0.82419111
-0.067027227
0
-0.059952603
0.00021917381
-0.051823766
0.00037700267
-0.042847056
0.00044512071
-0.032290445
0.00040852706
-0.021353602
0.00028408802
-0.010704242
0.00010132894
-0.00025472605
-0.073758273
-0.00052347424
-0.080377172
-0.00077814815
-0.085824774
-0.00099468332
-0.091780094
-0.0011520585
-0.097245575
-0.0012069792
-0.10031565
-0.0011314106
-0.10224427
-0.00091969573
-0.10424214
-0.0005510832
-0.10529361
0
-0.10950655
0
-0.12032589
0
-0.13196242
4.835789e-15
-0.14412382
-4.6629038e-15
-0.15688318
-1.6018947e-18
-0.17046943
0
-0.18471586
4.1819862e-15
-0.19972822
0
-0.21584746
0
-0.23329258
2.2873314e-18
-0.25204247
0
-0.27191324
7.0050728e-15
-0.29256733
6.7682881e-15
-0.31360353
6.5384478e-15
-0.33485416
9.0829392e-19
-0.35656011
-6.1094825e-15
-0.37892793
-5.9073758e-15
-0.4017549
0
-0.42506617
0
-0.44936199
0
-0.47522881
0
-0.50324571
0
-0.5332972
0
-0.56464956
-6.4069223e-19
-0.59799377
9.0048459e-15
-0.63445358
-8.6958587e-15
-0.67469279
0
-0.72051967
0
-0.77122536
0
-0.8243518
-0.073882066
0
-0.067071373
0.00023917914
-0.059910058
0.00042719835
-0.051728286
0.00053819363
-0.042786713
0.00055007017
-0.032291916
0.00045821157
-0.021425709
0.00029286796
-0.010789506
9.4972434e-05
-0.00026863522
-0.080655768
-0.00054512491
-0.086333478
-0.00080555804
-0.092574992
-0.0010294307
-0.098402738
-0.0011762702
-0.1019188
-0.0012154776
-0.10437474
-0.0011396868
-0.10695914
-0.00092857799
-0.10867601
-0.00055241835
-0.1082152
0
-0.11249446
0
-0.12345168
-4.8329e-15
-0.13487319
1.7122517e-18
-0.1468359
-4.4953087e-15
-0.15959548
-4.3351567e-15
-0.17295214
-8.3597961e-15
-0.18698748
-4.0329911e-15
-0.20205216
-7.7795361e-15
-0.21838267
0
-0.23597067
-7.2460674e-15
-0.25472533
0
-0.27447776
0
-0.2948911
-6.5278888e-15
-0.31557007
0
-0.33643929
7.4838997e-19
-0.35783752
0
-0.37994625
1.1403096e-14
-0.40254423
0
-0.42565901
0
-0.44982081
0
-0.47560925
0
-0.50369703
9.6349378e-15
-0.53395
0
-0.56552257
8.9948579e-15
-0.59907967
6.6432373e-19
-0.63556572
0
-0.67553426
0
-0.72095337
0
-0.7714058
0
-0.82430345
-0.080787616
0
-0.07392745
0.00025504983
-0.067052786
0.00046642209
-0.059789072
0.00060976697
-0.051573383
0.00066445535
-0.042701506
0.00061605801
-0.032284759
0.00047127735
-0.021495958
0.00027395264
-0.010874705
7.7160995e-05
-0.0002797104
-0.086660882
-0.00056418471
-0.093144629
-0.00083340729
-0.099293957
-0.0010508679
-0.10323171
-0.0011846301
-0.1061854
-0.0012244894
-0.10932723
-0.0011505357
-0.11165716
-0.00093066194
-0.11190314
-0.00054864498
-0.110616
0
-0.11543198
0
-0.12619085
0
-0.13740155
1.6114907e-18
-0.14937976
-4.3336342e-15
-0.16190298
4.178061e-15
-0.17502248
4.0307207e-15
-0.18909248
3.8870869e-15
-0.20436929
0
-0.22083985
0
-0.23844699
6.9898252e-15
-0.2571591
0
-0.27679953
0
-0.2969519
0
-0.31723254
0
-0.33773574
5.8852412e-15
-0.35886511
5.6905749e-15
-0.38075292
-5.5029717e-15
-0.40313703
1.0643049e-14
-0.42608469
0
-0.45012567
9.9517242e-15
-0.47585701
0
-0.50402542
0
-0.53452416
8.9848996e-15
-0.56633905
0
-0.6000659
1.6764976e-14
-0.63656257
-1.6187145e-14
-0.67618968
0
-0.72122078
0
-0.77138875
-1.4551045e-14
-0.82409461
-0.08680435
0
-0.08080916
0.00026886789
-0.073892122
0.00049754702
-0.066944457
0.00066618622
-0.059589988
0.00075264608
-0.051359656
0.00074329629
-0.042590917
0.00063270207
-0.032266559
0.00043983116
-0.021562437
0.00022219329
-0.010958036
4.6104755e-05
-0.0002894117
-0.093489677
-0.00058343883
-0.099917494
-0.00085060323
-0.1042477
-0.0010585067
-0.10767104
-0.0011935222
-0.11133584
-0.0012360483
-0.11425291
-0.0011531431
-0.11515332
-0.00092452183
-0.11459392
-0.00054305594
-0.11295441
0
-0.1180073
0
-0.12855218
0
-0.13978634
1.3596521e-18
-0.15153017
-1.1028893e-18
-0.16379084
0
-0.17692744
1.0844063e-18
-0.19121189
3.7475596e-15
-0.20662581
0
-0.22311605
0
-0.24072628
-6.739182e-15
-0.25942692
0
-0.27893168
6.287613e-15
-0.29873534
0
-0.3185934
0
-0.33877901
0
-0.35968207
5.4920447e-15
-0.38136461
0
-0.403567
0
-0.42636582
-9.9339578e-15
-0.45030733
0
-0.47597941
9.2846969e-15
-0.50425818
8.9729528e-15
-0.53501843
-8.6694854e-15
-0.56707461
0
-0.60097318
5.1386517e-19
-0.63739226
-7.8081443e-15
-0.67668871
0
-0.72130942
0
-0.77122851
1.4035013e-14
-0.82369941
-0.093609761
0
-0.086805021
0.00027978467
-0.080719411
0.00052436064
-0.073740107
0.00071093224
-0.066742678
0.00082290576
-0.059311494
0.00084167062
-0.051084784
0.00076233227
-0.042453985
0.00058963149
-0.032236934
0.00035600118
-0.021622968
0.00013253893
-0.011034853
0
-0.00029913687
-0.1002737
-0.0005953641
-0.1049616
-0.00085687309
-0.10882599
-0.0010664328
-0.11297749
-0.0012045915
-0.11645138
-0.0012386967
-0.11798051
-0.0011455514
-0.11810083
-0.00091510813
-0.11719197
-0.00053629188
-0.11493329
4.6594788e-15
-0.12021761
0
-0.13077998
0
-0.14179073
1.0797202e-18
-0.15325509
-1.0043964e-18
-0.16551571
0
-0.17886868
7.4911169e-15
-0.19328927
-3.614139e-15
-0.20871599
0
-0.225231
0
-0.24289581
-6.4996343e-15
-0.26157366
-6.279473e-15
-0.28082891
6.0658859e-15
-0.30019501
-5.8627311e-15
-0.31966814
0
-0.33960361
-5.4807193e-15
-0.36031107
5.3006388e-15
-0.38181857
0
-0.403856
0
-0.42652992
0
-0.45037579
0
-0.47600457
8.9603404e-15
-0.50439634
8.6590257e-15
-0.53543696
-8.3653159e-15
-0.56774368
-4.2226796e-19
-0.60173008
7.8027006e-15
-0.63807668
0
-0.67701141
0
-0.72127615
0
-0.77090162
0
-0.82314076
-0.10036326
0
-0.093552261
0.00028922971
-0.086662152
0.00054540376
-0.080481638
0.00074905203
-0.073463807
0.00087857124
-0.066443181
0.00092103256
-0.058953089
0.000862849
-0.050752719
0.0007094184
-0.042287801
0.00047655718
-0.032192764
0.00021193435
-0.0216696
0
-0.010102257
0
-0.0003051562
-0.10537089
-0.00059980026
-0.10964352
-0.00086327868
-0.11424604
-0.0010760999
-0.11824249
-0.0012070624
-0.12037391
-0.0012306043
-0.12114671
-0.0011338494
-0.1209258
-0.00090351097
-0.11942817
-0.00052760076
-0.11656609
4.4900161e-15
-0.12229394
0
-0.13264413
0
-0.14337104
-4.0244325e-15
-0.15481767
3.8807048e-15
-0.1672974
3.7427686e-15
-0.18078577
-3.6104699e-15
-0.19520773
-3.4845529e-15
-0.21066723
0
-0.22727434
0
-0.24498471
6.2705681e-15
-0.26350499
0
-0.28237638
-5.8531896e-15
-0.30132599
5.6577078e-15
-0.32050515
-5.4698201e-15
-0.34024364
2.7926512e-19
-0.36078218
-5.1158973e-15
-0.382132
0
-0.40403231
0
-0.42659073
0
-0.4503576
8.9464102e-15
-0.47594387
0
-0.5044614
-8.3554978e-15
-0.53577978
8.071924e-15
-0.56828985
-7.7959159e-15
-0.60235657
0
-0.63856882
0
-0.67721357
-1.4026019e-14
-0.72110027
0
-0.77041363
-0.0075051266
-0.81488247
-0.10547414
0
-0.10024484
0.00029859484
-0.093316231
0.00056346283
-0.086330514
0.00077869902
-0.08009336
0.00092540981
-0.073056882
0.00098373606
-0.066043506
0.00094507048
-0.058515557
0.00080250837
-0.050361653
0.00057236758
-0.042089338
0.00028327432
-0.032124088
0
-0.019963525
0
-0.010842141
-9.5150438e-15
-0.00030744754
-0.11011974
-0.00060425353
-0.11513683
-0.00087090684
-0.11961757
-0.0010782136
-0.12232565
-0.0011991571
-0.12372324
-0.0012179909
-0.12417109
-0.0011193917
-0.12339104
-0.0008890388
-0.12133789
-0.00051799892
-0.11807049
0
-0.12402802
0
-0.13409703
0
-0.14478951
1.0254774e-18
-0.15645372
-1.0427662e-18
-0.1690694
-3.6090553e-15
-0.1825456
0
-0.1969992
0
-0.21257049
0
-0.2292572
-6.2606205e-15
-0.24687276
6.048224e-15
-0.2650834
0
-0.28355946
5.6467334e-15
-0.30218507
4.3187467e-19
-0.32115015
-5.2789461e-15
-0.34072528
-5.1054593e-15
-0.3611162
0
-0.3823354
0
-0.40410947
0
-0.42657165
0
-0.4502666
0
-0.47581848
0
-0.50445164
7.3186774e-20
-0.5360437
-7.7880284e-15
-0.56871828
-2.0652601e-19
-0.60277307
7.2616183e-15
-0.63891872
-7.0093049e-15
-0.677262
0
-0.72077004
-0.014525718
-0.76269383
-0.0068284333
-0.80715125
-0.11025024
0
-0.1053402
0.00030440853
-0.099920488
0.00058132657
-0.092850917
0.00080392937
-0.085809547
0.00096151272
-0.079549389
0.0010358952
-0.072513628
0.0010098478
-0.0655409
0.0008797417
-0.057998552
0.0006471092
-0.049917431
0.00033971492
-0.041842016
0
-0.029781036
0
-0.021394583
0