/*--------------------------------*- C++ -*----------------------------------*\
| =========                 |                                                 |
| \\      /  F ield         | OpenFOAM: The Open Source CFD Toolbox           |
|  \\    /   O peration     | Version:  v2012                                 |
|   \\  /    A nd           | Website:  www.openfoam.com                      |
|    \\/     M anipulation  |                                                 |
\*---------------------------------------------------------------------------*/
FoamFile
{
    version     2.0;
    format      ascii;
    class       volScalarField;
    location    "15.7997241758257";
    object      p;
}
// * * * * * * * * * * * * * * * * * * * * * * * * * * * * * * * * * * * * * //

dimensions      [0 2 -2 0 0 0 0];


internalField   nonuniform List<scalar> 
9200
(
0.0040663973
0.003999841
0.013761184
0.0039341404
0.013592552
0.021702117
0.0038054289
0.013405258
0.021425286
0.029760096
0.0036872423
0.013079393
0.021092843
0.029379814
0.037594051
0.0035200407
0.01275359
0.020549387
0.028904224
0.037107716
0.045370091
0.0033570274
0.012343135
0.019979931
0.028152065
0.036485467
0.044774549
0.053091078
0.0031576731
0.011938273
0.019288603
0.027348733
0.035520155
0.044001831
0.052380885
0.060795238
0.0029455228
0.011489243
0.018586825
0.026397777
0.03447972
0.042816953
0.051451313
0.059965022
0.06850611
0.0027029191
0.011034436
0.017822524
0.025430283
0.033269498
0.041532822
0.050035377
0.058870542
0.067550816
0.076245864
0.0024351834
0.01055222
0.017037636
0.024400342
0.032043445
0.040056866
0.048491063
0.057208582
0.066283047
0.075162661
0.084033005
0.0021365979
0.010051612
0.016203754
0.023355354
0.030764934
0.038569004
0.046728716
0.055381505
0.064359486
0.073714885
0.08282136
0.091881012
0.0018077299
0.0095207869
0.015327612
0.022272329
0.029493487
0.037047095
0.044954747
0.053301164
0.062224124
0.07151704
0.0811899
0.090543654
0.099799908
0.0014485676
0.0089584807
0.014375928
0.021159002
0.028220666
0.035571409
0.043163381
0.051198639
0.059788174
0.069050398
0.078710301
0.08872897
0.098342183
0.10779482
0.0010627672
0.0083515265
0.013339599
0.019962056
0.026945604
0.034152848
0.041459244
0.049085079
0.05730279
0.066222296
0.075896193
0.085967232
0.096349179
0.10622473
0.11586741
0.00065471073
0.0076949821
0.01218317
0.018697084
0.025635799
0.032801312
0.039872215
0.04708855
0.054792845
0.063297695
0.072647494
0.082798939
0.093312415
0.10406267
0.11419454
0.1240145
0.00023274294
0.006982826
0.010897643
0.017305016
0.024347702
0.031558828
0.038444014
0.045262072
0.052404953
0.060308286
0.069235605
0.079114475
0.089794637
0.10076525
0.11187626
0.12225001
0.13222926
-0.00019509781
0.0062123277
0.0094483617
0.01573746
0.022999557
0.030304492
0.037218738
0.043683615
0.050213968
0.057411212
0.065691763
0.075185131
0.085675585
0.096913746
0.10833852
0.11979102
0.13038543
0.1405015
-0.0006212059
0.0053862716
0.0077984017
0.013982156
0.02143182
0.029088851
0.036164501
0.042406536
0.048324145
0.054694816
0.062172602
0.071034048
0.08122196
0.092378323
0.10417851
0.11603755
0.12780295
0.13859153
0.14882016
-0.0010404248
0.0045077501
0.0059290765
0.011972528
0.019716386
0.027915792
0.03529254
0.041477737
0.04681683
0.052278185
0.05876728
0.06680731
0.076444134
0.087419477
0.099259594
0.11160059
0.12386063
0.13590367
0.14685655
0.15717104
-0.0014525027
0.0035854717
0.0038142692
0.0096734117
0.017791883
0.026653526
0.034648039
0.040926957
0.045771958
0.050264609
0.055595928
0.062580756
0.071468895
0.082033683
0.093837703
0.10634086
0.11918129
0.13180007
0.14408138
0.15516646
0.16553363
-0.0018638199
0.002631722
0.0014324973
0.0070459095
0.015592327
0.025279014
0.034121375
0.040768348
0.045257039
0.048759947
0.05276747
0.058458379
0.066346817
0.076324637
0.08789872
0.10051382
0.11362742
0.12691283
0.13984374
0.15232161
0.16350517
0.17388954
-0.0022874388
0.0016626244
-0.0012322417
0.0040521715
0.013069777
0.023710338
0.033676006
0.040995488
0.045321039
0.047859624
0.050396298
0.054533944
0.061149182
0.070310429
0.081526678
0.094102737
0.10745914
0.1211101
0.13478108
0.14797656
0.16060869
0.17185582
0.18223695
-0.0027459969
0.0006998493
-0.0041921626
0.00065643629
0.010176761
0.021874834
0.033239431
0.041575201
0.045992207
0.047644251
0.048592009
0.050907319
0.055932542
0.064017731
0.074708997
0.087181651
0.10066738
0.11466126
0.12876967
0.14276812
0.15618199
0.16892668
0.180202
0.19056304
-0.0032871954
-0.00024094176
-0.0074544235
-0.0031785249
0.0068658056
0.019684818
0.032722629
0.042456786
0.047268093
0.048173143
0.047454823
0.047678115
0.050756023
0.057444805
0.067423816
0.079719206
0.093330997
0.10757508
0.12209067
0.13658145
0.1508549
0.16444328
0.17725864
0.18852723
0.19879738
-0.0039407809
-0.0011346243
-0.011021595
-0.0074896196
0.0030926794
0.017050042
0.032013493
0.043561754
0.049120129
0.049473141
0.047067359
0.044941933
0.045678257
0.05057981
0.05960094
0.071658829
0.08542128
0.099951019
0.11477835
0.12970913
0.14451991
0.15902288
0.17274394
0.18558663
0.19681532
0.20689115
-0.0047696425
-0.0019096962
-0.014853339
-0.012305266
-0.001174814
0.013909974
0.030991681
0.044785622
0.051485022
0.05153395
0.047482866
0.042782937
0.040758088
0.043401505
0.051135223
0.062873561
0.076874681
0.091787612
0.10696555
0.12221419
0.13747763
0.15256188
0.16725507
0.1810678
0.19389453
0.20504846
0.2149639
-0.0058286969
-0.0025888276
-0.019039435
-0.017657017
-0.0059553375
0.010184992
0.029521947
0.046048308
0.054265783
0.05430008
0.048713563
0.041264036
0.036048963
0.03588476
0.041883472
0.053170669
0.067543312
0.083049311
0.098699014
0.11426944
0.1298184
0.14536271
0.16068835
0.17553647
0.18939884
0.20216817
0.21319836
0.22304824
-0.0071322134
-0.0031330025
-0.023609504
-0.023650873
-0.011311622
0.0057854364
0.02746328
0.047121921
0.057330317
0.057668576
0.050719284
0.040413886
0.031591045
0.027999487
0.031666553
0.042277299
0.05718909
0.073616016
0.090003391
0.10598249
0.12175433
0.1375371
0.15333966
0.16888491
0.18385399
0.19772129
0.21039209
0.2212413
0.23100534
-0.0086271032
-0.0034822421
-0.028402094
-0.029545126
-0.017191225
0.00069100729
0.024650212
0.047889063
0.060505007
0.061486942
0.053398117
0.040216647
0.027399023
0.019713248
0.020269132
0.029826142
0.045457801
0.06326622
0.08083309
0.097458823
0.11345586
0.12932932
0.14533304
0.16139358
0.17714133
0.19219541
0.20602057
0.21855726
0.22917054
0.23877226
-0.010137666
-0.0043889398
-0.033050261
-0.034675628
-0.024020652
-0.0051244554
0.020955701
0.048192256
0.063599046
0.065558746
0.056581662
0.040598045
0.02345122
0.010982431
0.0074509612
0.015345784
0.031858992
0.051647396
0.071049719
0.088759833
0.10511438
0.12096481
0.13693278
0.15318752
0.16951801
0.1854504
0.20054821
0.21428305
0.22665452
0.23703206
0.2463448
-0.011722571
-0.0067675903
-0.036908685
-0.040130376
-0.032412398
-0.012519436
0.015929834
0.047841248
0.066394726
0.069645717
0.060037813
0.041417065
0.019677847
0.0017421219
-0.0070625437
-0.0017618435
0.015737229
0.038257404
0.060394206
0.079884647
0.096908005
0.11271214
0.12840447
0.14453592
0.16109842
0.17771308
0.19380575
0.20890078
0.22248982
0.23460245
0.24474762
0.25372818
-0.013091714
-0.011702518
-0.039471272
-0.045343416
-0.0402952
-0.020881937
0.010006061
0.04659555
0.068643774
0.073483826
0.063478038
0.042460138
0.015957408
-0.008102769
-0.02356576
-0.022249734
-0.0038269099
0.022402606
0.048410142
0.070748962
0.088986683
0.10485412
0.12007506
0.13572569
0.15214016
0.16907644
0.18598255
0.20220026
0.21724461
0.23061704
0.24243949
0.2523144
0.26096884
-0.013754734
-0.018217503
-0.039780146
-0.049881431
-0.047416209
-0.027088976
0.0053329854
0.044425351
0.070179116
0.076785281
0.066575172
0.043443276
0.012128554
-0.018701901
-0.042356331
-0.047090168
-0.028055978
0.0030695084
0.034275655
0.061124104
0.081453966
0.097673088
0.11230696
0.12711743
0.1429308
0.15977056
0.17714037
0.19433064
0.21062712
0.22556784
0.23867913
0.25015029
0.25972028
0.26806102
-0.013912252
-0.024281793
-0.038594878
-0.054310645
-0.053444668
-0.031772885
0.0011801753
0.041188507
0.070606115
0.079353757
0.068973941
0.044021377
0.0079711155
-0.030257324
-0.06375566
-0.077401161
-0.05881492
-0.020588422
0.016535698
0.050768519
0.074345518
0.091436965
0.10548396
0.11912287
0.1338382
0.15006309
0.16746769
0.18531237
0.20275891
0.21908046
0.233823
0.24663844
0.25772198
0.26695618
0.27496871
-0.013937938
-0.02875099
-0.03774522
-0.057643386
-0.06004423
-0.036309951
-0.0031631537
0.036699923
0.06891345
0.080713503
0.070340223
0.043793341
0.003251597
-0.043094114
-0.088137602
-0.11446964
-0.098264728
-0.052115646
0.00075984052
0.038995374
0.067600169
0.086375523
0.099996538
0.11219069
0.12529252
0.14030371
0.15719381
0.17527974
0.19361275
0.21126797
0.22754497
0.24202142
0.25448201
0.26514129
0.274013
0.28168286
-0.013383315
-0.030362152
-0.037660745
-0.059906164
-0.065409253
-0.042990104
-0.0094898353
0.030781592
0.064191571
0.07992477
0.070253225
0.042408361
-0.0023260384
-0.057474241
-0.1160075
-0.15986377
-0.1491552
-0.093590231
-0.027248253
0.025755165
0.060963279
0.082631073
0.096204708
0.10678551
0.11776904
0.13091141
0.14662668
0.16440895
0.18325553
0.20205616
0.21985878
0.23600199
0.2501475
0.26219575
0.27239624
0.28088296
0.2881995
-0.011828825
-0.03029065
-0.038786938
-0.060881779
-0.068989593
-0.05126106
-0.016536233
0.021513704
0.056677169
0.075465758
0.06838436
0.039464272
-0.0089321769
-0.073516706
-0.14764481
-0.21498621
-0.21533181
-0.14864242
-0.063322424
0.0076162147
0.05393494
0.080166074
0.094381541
0.10334302
0.11176101
0.12235282
0.13614689
0.15294582
0.17179791
0.19143772
0.2106518
0.22851901
0.24443635
0.25818331
0.26976613
0.2794764
0.28755963
0.29451385
-0.0094275375
-0.03012764
-0.040090599
-0.060583606
-0.070469462
-0.058512978
-0.0212928
0.01077516
0.04448536
0.067933137
0.063529406
0.034892026
-0.016945833
-0.091369487
-0.18283845
-0.27997195
-0.29993285
-0.2222827
-0.11226099
-0.016833919
0.045231098
0.078722485
0.094638903
0.10223492
0.10772818
0.11511428
0.12618241
0.1412083
0.15940817
0.17944446
0.1998579
0.21940689
0.23722441
0.25283256
0.26611075
0.27718023
0.28637277
0.29403806
0.30062343
-0.0064862403
-0.029693921
-0.040304726
-0.059058589
-0.070162437
-0.062600412
-0.025643743
-0.00010900678
0.030811795
0.055255178
0.056143948
0.027925922
-0.026278509
-0.1109475
-0.2225586
-0.35454446
-0.40471718
-0.31655814
-0.1788731
-0.051570561
0.03329119
0.077669179
0.096914721
0.10349724
0.10604225
0.1096475
0.11718334
0.1295599
0.14632113
0.1661551
0.18741933
0.20853751
0.22831552
0.24596523
0.26117021
0.27391262
0.28442613
0.29307778
0.30031439
0.30652702
-0.028813749
-0.0034156692
-0.039130701
-0.056328786
-0.068383352
-0.064526173
-0.031034287
-0.011001814
0.015451101
0.040627913
0.043765319
0.019809131
-0.037875123
-0.13179429
-0.26460788
-0.43700273
-0.53246017
-0.43475526
-0.26379828
-0.09972319
0.015336185
0.075844757
0.10079554
0.10737496
0.10688839
0.10630977
0.10956601
0.11838903
0.13281272
0.15170646
0.1733122
0.19577344
0.21748999
0.23734531
0.25471817
0.26942745
0.2815724
0.29149306
0.29958533
0.30638598
0.31222435
-0.036818049
-0.02720506
0.00022548485
-0.053032767
-0.065618114
-0.065243327
-0.036136643
-0.019982017
-0.00045676166
0.023085312
0.029521517
0.0072642541
-0.049080248
-0.15445545
-0.30784681
-0.52170742
-0.67336669
-0.58292339
-0.37357852
-0.16267325
-0.010749871
0.071523279
0.10542887
0.11337932
0.11029169
0.10529182
0.10365496
0.10805458
0.11918683
0.13626627
0.15756548
0.1809813
0.20453684
0.22670971
0.24648955
0.26345693
0.27758257
0.2890746
0.2983717
0.30589086
0.31225143
0.31771605
-0.049572206
-0.033844533
-0.025528667
0.0040039354
-0.06268668
-0.065136524
-0.041937863
-0.028279652
-0.018207949
0.0047482559
0.010968238
-0.0041004293
-0.063342154
-0.17442744
-0.35004849
-0.60760739
-0.81530293
-0.75712627
-0.51691006
-0.24949887
-0.048146256
0.062708484
0.10952916
0.12079891
0.11589169
0.10655511
0.099614309
0.098834066
0.10572491
0.12003207
0.14022329
0.16406933
0.18923327
0.2137263
0.23615393
0.25571043
0.27215315
0.28561417
0.2964052
0.30505444
0.31199118
0.31791024
0.32300358
-0.059411919
-0.04590092
-0.030911248
-0.023962779
0.0066083624
-0.064113113
-0.047339898
-0.036744509
-0.037005712
-0.01507769
-0.011014646
-0.022407725
-0.071089331
-0.19087934
-0.39011296
-0.68931109
-0.95757573
-0.94849614
-0.69145812
-0.37017263
-0.10297814
0.045573743
0.11125205
0.12847123
0.12299196
0.10973831
0.097374153
0.09085959
0.092643114
0.10318692
0.12135523
0.1449488
0.17135239
0.19810697
0.22333982
0.24580675
0.26497582
0.28077836
0.29350207
0.30355215
0.31153522
0.31788398
0.32336274
0.32808931
-0.06223719
-0.056037417
-0.042260497
-0.028176731
-0.021977491
0.007809526
-0.051185001
-0.045304549
-0.054895394
-0.036188671
-0.035862497
-0.047642948
-0.08535884
-0.19615208
-0.41800603
-0.76767701
-1.0967603
-1.1400602
-0.88386518
-0.51614582
-0.17950495
0.016667811
0.1073709
0.13474658
0.13042721
0.11412218
0.096566105
0.084048298
0.080037687
0.085867769
0.10102254
0.12354323
0.15066134
0.17950457
0.20762158
0.23333565
0.25562785
0.27424895
0.2893045
0.30122816
0.31050516
0.31780871
0.32356762
0.32861043
0.33297675
-0.05519667
-0.060163319
-0.052533478
-0.039042308
-0.025443143
-0.020122937
0.0076975208
-0.054500303
-0.071955161
-0.059157
-0.063679228
-0.077254461
-0.10843402
-0.20805565
-0.42846906
-0.80459868
-1.2345838
-1.3264181
-1.0796478
-0.66791774
-0.27578134
-0.024690564
0.095139757
0.13703713
0.13671454
0.11860075
0.096490063
0.078053144
0.067825723
0.068123283
0.079258438
0.099766093
0.12692697
0.15752687
0.18856723
0.21777451
0.24366626
0.26557347
0.28349199
0.2977054
0.30877621
0.3172545
0.32387007
0.32904216
0.33365684
0.33767012
-0.063142703
-0.059191627
-0.058648676
-0.049378583
-0.036345569
-0.02342035
-0.018849553
0.00719842
-0.086594678
-0.084975289
-0.094840405
-0.11144836
-0.13886042
-0.226422
-0.43787121
-0.81452612
-1.3167227
-1.5096835
-1.2783099
-0.82624068
-0.38596526
-0.07967901
0.074598929
0.13272425
0.13970088
0.12173061
0.096120775
0.072239138
0.055707982
0.049869059
0.056039737
0.07351521
0.099890766
0.1317731
0.16564976
0.19855144
0.22850586
0.25427748
0.27559248
0.29266818
0.3059567
0.31613022
0.32379062
0.32971697
0.33431125
0.33850669
0.34217311
-0.099528649
-0.07149401
-0.063158909
-0.057629835
-0.047042827
-0.034348618
-0.021854904
-0.018005233
0.0065592552
-0.11504599
-0.13009356
-0.15074134
-0.17562263
-0.25069645
-0.45004464
-0.81521417
-1.3874165
-1.6512528
-1.4740407
-0.99313045
-0.50578185
-0.14915031
0.045028991
0.12109135
0.13694247
0.12173147
0.094139104
0.065702481
0.043153606
0.030864761
0.03126127
0.044657727
0.069278146
0.10179685
0.13827767
0.17506875
0.20944986
0.23973097
0.26511089
0.28563408
0.30174211
0.31403364
0.32327391
0.33010761
0.33535313
0.33938055
0.34316225
0.34648786
-0.1478335
-0.11377525
-0.079586685
-0.0670802
-0.057186043
-0.045450916
-0.033004722
-0.020908333
-0.017436105
0.0058910996
-0.16965342
-0.19609387
-0.21874711
-0.28008453
-0.46644217
-0.81148728
-1.4255431
-1.7949917
-1.6490566
-1.1568855
-0.63286722
-0.2289521
0.0028823526
0.10212279
0.12661772
0.11673395
0.089022581
0.057320984
0.029425598
0.010703864
0.0047279898
0.013027613
0.034797033
0.067116008
0.1058036
0.14655308
0.18578112
0.22118206
0.25137803
0.27610033
0.29564818
0.31067695
0.32191052
0.33019614
0.33620895
0.34078542
0.34424974
0.34762067
0.35061808
-0.21251893
-0.18032766
-0.13005605
-0.088749087
-0.070741552
-0.057188264
-0.044448473
-0.032138379
-0.020357834
-0.016997407
0.0052239083
-0.24779064
-0.26786122
-0.31507618
-0.48221711
-0.80724427
-1.4228404
-1.8975753
-1.8543689
-1.3231458
-0.76105701
-0.31117469
-0.049883551
0.073386791
0.1082669
0.10463366
0.079236146
0.045836161
0.013636639
-0.011153457
-0.023847451
-0.021566223
-0.0038399304
0.027220875
0.067513082
0.11213593
0.15662826
0.19775582
0.23362376
0.26337653
0.28717612
0.30558144
0.31943387
0.32956868
0.33689961
0.34210282
0.34600906
0.34890713
0.35188274
0.35457523
-0.30499582
-0.25788501
-0.21196601
-0.14478965
-0.098090909
-0.074092445
-0.05751275
-0.04387324
-0.03158355
-0.020042843
-0.016667978
0.0046057857
-0.32263512
-0.35607473
-0.49718325
-0.80713116
-1.3967441
-1.9617075
-2.0260303
-1.5474471
-0.8961462
-0.39635502
-0.10295276
0.034868723
0.081384621
0.083674928
0.063190119
0.029984433
-0.0051727887
-0.03532823
-0.054803359
-0.059330971
-0.046890373
-0.018372011
0.022621163
0.070854699
0.12090543
0.16847884
0.21087506
0.24666691
0.27563185
0.29826271
0.31537699
0.32798351
0.33700905
0.34339377
0.34777818
0.35099801
0.35334841
0.3559707
0.35855443
-0.38318666
-0.36758113
-0.30331362
-0.24369597
-0.15725939
-0.10548842
-0.077248548
-0.058042917
-0.043592743
-0.031283862
-0.019940416
-0.016338887
0.0039910025
-0.40240858
-0.514546
-0.81362002
-1.3533225
-1.9813924
-2.1600955
-1.7521994
-1.0634459
-0.52527673
-0.16362749
-0.0055250787
0.045907027
0.052724701
0.039455646
0.0085632826
-0.027907279
-0.062453092
-0.088484654
-0.10043159
-0.094556183
-0.070085406
-0.029633556
0.021595158
0.077401281
0.13211785
0.18202594
0.22497491
0.26021127
0.28803659
0.30927834
0.32499038
0.33632357
0.34424207
0.34965862
0.35318954
0.35574065
0.35761517
0.36006242
0.36261522
-0.45291169
-0.44955875
-0.43556878
-0.34915793
-0.27363725
-0.1701227
-0.1117624
-0.080134448
-0.058703641
-0.043626422
-0.031249699
-0.019832423
-0.015995149
0.0033536785
-0.53482155
-0.81595385
-1.2934484
-1.9525296
-2.2378778
-1.9212078
-1.2364138
-0.67461694
-0.28346008
-0.053036255
0.0013046869
0.012764388
0.0062740799
-0.019286828
-0.055374661
-0.093052917
-0.12517909
-0.14495955
-0.14690134
-0.12822974
-0.08995762
-0.036752097
0.024610872
0.087268765
0.14571271
0.19707463
0.23990353
0.27411222
0.30047526
0.32015727
0.33441386
0.3444648
0.35123538
0.35562221
0.35831518
0.36031087
0.36187608
0.36418952
0.3666474
-0.55615748
-0.50636798
-0.52130955
-0.50830129
-0.3964072
-0.30003521
-0.18211821
-0.11766194
-0.082770838
-0.059648982
-0.043985195
-0.031066872
-0.019806039
-0.015620885
0.0027018934
-0.80364482
-1.2209599
-1.8745611
-2.248567
-2.0397315
-1.3986606
-0.83276977
-0.40488214
-0.16103678
-0.045053657
-0.040776247
-0.036753567
-0.054446419
-0.088060117
-0.12752267
-0.16501701
-0.19286136
-0.20383145
-0.19289111
-0.15891936
-0.10530201
-0.038964089
0.031962218
0.10045912
0.16147717
0.21342867
0.2554885
0.28820598
0.31285246
0.3308829
0.34365727
0.35235777
0.35788205
0.36124939
0.36327162
0.36488198
0.36609372
0.36830578
0.37064502
-0.77615602
-0.57505742
-0.55961949
-0.59506697
-0.58204487
-0.44499825
-0.32308683
-0.19209399
-0.12324991
-0.085527919
-0.060898202
-0.043951317
-0.030961962
-0.019785987
-0.015267881
0.0020633124
-1.1384056
-1.7515586
-2.1864919
-2.0934081
-1.5321533
-0.98494945
-0.54651601
-0.25999367
-0.13656603
-0.096752509
-0.091452329
-0.097185781
-0.12631825
-0.16591451
-0.20798755
-0.24386581
-0.26498585
-0.26391472
-0.23681195
-0.18505755
-0.11496
-0.035683121
0.043758618
0.11693409
0.17894916
0.23090211
0.27150456
0.3023564
0.32513785
0.34146195
0.35264775
0.35984924
0.36412898
0.36671473
0.36824999
0.36929862
0.37032397
0.37239836
0.37460458
-1.0459631
-0.74188308
-0.58819295
-0.60922573
-0.66879783
-0.65325835
-0.49239061
-0.34282643
-0.20032257
-0.12902815
-0.088396827
-0.061187149
-0.043975138
-0.030857384
-0.01983057
-0.014919649
0.001444538
-1.5929651
-2.0539612
-2.0693097
-1.6195984
-1.1119058
-0.68852012
-0.38733291
-0.2212013
-0.17997515
-0.15282109
-0.14893741
-0.16960704
-0.20825568
-0.2537067
-0.29753148
-0.32971344
-0.34072026
-0.32361038
-0.27675982
-0.20498973
-0.1179191
-0.026548493
0.059969875
0.13654914
0.19876332
0.24915355
0.28775585
0.31651199
0.33733165
0.35178941
0.36117086
0.36686241
0.37022568
0.37224607
0.3729264
0.37375209
0.37454077
0.37646357
0.37852184
-1.411513
-0.94443952
-0.70706056
-0.59785681
-0.65034052
-0.73848021
-0.71896492
-0.53672781
-0.35926742
-0.20725205
-0.13483076
-0.089248563
-0.061445761
-0.043934228
-0.030832959
-0.019908366
-0.01458479
0.0008599503
-1.8623123
-1.9643673
-1.6434287
-1.1871535
-0.82270436
-0.52502088
-0.34267619
-0.246189
-0.23071091
-0.20663448
-0.21859377
-0.25361438
-0.301866
-0.35300769
-0.39710628
-0.42236585
-0.41870142
-0.38079258
-0.31051057
-0.21710417
-0.11340982
-0.011413752
0.080315902
0.1578763
0.2196623
0.26790197
0.30415916
0.33066104
0.34928503
0.3615702
0.36911852
0.37374457
0.37646334
0.37728364
0.3776705
0.37819672
0.37874231
0.38049504
0.38239284
-1.6299783
-1.216946
-0.84072732
-0.66908785
-0.60434258
-0.68353204
-0.79920002
-0.77620848
-0.5762763
-0.37246131
-0.21343999
-0.13715853
-0.089919391
-0.061440559
-0.043950407
-0.030847686
-0.020016431
-0.014256158
0.00031485737
-1.7892444
-1.5927961
-1.2128048
-0.93241381
-0.66766406
-0.48643049
-0.36691122
-0.30163993
-0.27313472
-0.2696392
-0.30251103
-0.3511065
-0.40965
-0.46579182
-0.50743857
-0.52103875
-0.4968494
-0.43269356
-0.33566396
-0.22000357
-0.10093527
0.0096382188
0.10402754
0.18140174
0.24138864
0.28701613
0.32068244
0.34459496
0.36059743
0.37065513
0.37696462
0.38088631
0.38196241
0.38242499
0.38240772
0.3826351
0.38291942
0.38448704
0.38621353
-1.5635214
-1.3757136
-1.0238604
-0.73736301
-0.62626195
-0.60613093
-0.70956668
-0.84679776
-0.82241505
-0.60793082
-0.38094311
-0.2141735
-0.13864621
-0.089937668
-0.06143992
-0.04395242
-0.030894797
-0.020140492
-0.013931178
-0.00024216714
-1.4733032
-1.1984188
-1.0021333
-0.80353698
-0.64843415
-0.5217341
-0.40642212
-0.3355622
-0.32183623
-0.35054047
-0.40209088
-0.46554786
-0.53468479
-0.59402317
-0.62871227
-0.62404568
-0.57200216
-0.47592992
-0.34991902
-0.2125983
-0.080351984
0.036136413
0.13117788
0.20648814
0.26377917
0.30643298
0.33703548
0.35777488
0.37106594
0.37968111
0.3852502
0.38697665
0.38760992
0.38755532
0.38714768
0.38705537
0.38706481
0.3884335
0.38997991
-1.3004275
-1.3102326
-1.1221579
-0.84067447
-0.63710808
-0.57973432
-0.60092935
-0.72657307
-0.87867727
-0.85543324
-0.63099687
-0.37816459
-0.21089264
-0.13867256
-0.089804711
-0.061331148
-0.043940429
-0.030948617
-0.020269106
-0.01363399
-0.00075161479
-1.1418551
-1.0240329
-0.91992438
-0.81737591
-0.70677204
-0.55828687
-0.42504745
-0.36477757
-0.39438362
-0.44965112
-0.52162435
-0.60117966
-0.68036511
-0.73946397
-0.76027837
-0.72826416
-0.63965253
-0.50692152
-0.35120143
-0.1942424
-0.05219614
0.066529542
0.16050421
0.23278423
0.28673292
0.32575192
0.35249834
0.36992769
0.38153613
0.38940868
0.39208472
0.39326957
0.39323495
0.39269491
0.39187496
0.39144936
0.3911703
0.39232895
0.39368811
-1.0423555
-1.0978054
-1.0555266
-0.8845166
-0.6736984
-0.54160694
-0.52793426
-0.58648869
-0.73279346
-0.8947343
-0.87141077
-0.64678639
-0.3612033
-0.20503012
-0.1375257
-0.0893187
-0.061140658
-0.043882205
-0.030987205
-0.020355815
-0.013331122
-0.0012102375
-1.0065397
-1.0042273
-0.97968953
-0.91707451
-0.75053355
-0.55408761
-0.42887427
-0.42000571
-0.48809602
-0.57132449
-0.6665795
-0.76314445
-0.85059284
-0.90354073
-0.90019242
-0.82857026
-0.69476101
-0.52230005
-0.33781206
-0.16516924
-0.01772689
0.10059156
0.19167085
0.260061
0.30970177
0.34401639
0.36670597
0.38216589
0.39308065
0.39717516
0.39918872
0.39951726
0.39887328
0.39782421
0.39658067
0.39580717
0.39522821
0.3961691
0.39733461
-0.95502741
-0.90998035
-0.89022324
-0.81669581
-0.67143765
-0.52378259
-0.45056433
-0.47023241
-0.56049332
-0.72739173
-0.89183556
-0.88161053
-0.63918287
-0.33882068
-0.19645844
-0.13491631
-0.088495068
-0.060832045
-0.043755179
-0.030984931
-0.020413584
-0.013015057
-0.0016221232
-1.0485484
-1.1191985
-1.1388939
-0.98016058
-0.72283148
-0.52192129
-0.46141508
-0.49903682
-0.606703
-0.72216911
-0.84369408
-0.95830014
-1.0498064
-1.0864702
-1.0431673
-0.91811671
-0.73252064
-0.51876838
-0.30916732
-0.12677342
0.022213163
0.13763731
0.22435842
0.28754157
0.33141887
0.3607407
0.38111101
0.39599727
0.40201383
0.40529388
0.40620873
0.40577768
0.40450002
0.4029342
0.401253
0.40011979
0.39923239
0.39994896
0.40091655
-1.0513298
-0.87303454
-0.76346841
-0.69120531
-0.60304819
-0.48622501
-0.39161671
-0.36405896
-0.40985187
-0.52404469
-0.71045266
-0.88827474
-0.86713527
-0.62548079
-0.3128236
-0.18673035
-0.13119202
-0.087270755
-0.060377788
-0.043531283
-0.030918621
-0.020423476
-0.012684308
-0.0019895576
-1.2220304
-1.3485121
-1.2287121
-0.9259807
-0.64582907
-0.52485909
-0.52268342
-0.60260905
-0.7578873
-0.91067648
-1.062302
-1.1952681
-1.281219
-1.2831331
-1.1788563
-0.98911357
-0.74686733
-0.4939371
-0.26641297
-0.079836556
0.066644694
0.17707187
0.25750097
0.31354034
0.35123761
0.37780937
0.39782035
0.40638574
0.41139989
0.41326716
0.41323437
0.41201926
0.41010667
0.40801138
0.40588152
0.40438096
0.40317544
0.40366066
0.40443077
-1.2831898
-1.0112327
-0.76988329
-0.61468731
-0.51175658
-0.42035208
-0.33046669
-0.27767409
-0.2832841
-0.34822895
-0.48075105
-0.699399
-0.86906443
-0.83991957
-0.60245877
-0.28798143
-0.17764004
-0.1265998
-0.085622305
-0.059739905
-0.043185942
-0.030765534
-0.020367933
-0.012334477
-0.0023115043
-1.5220069
-1.4754106
-1.1534256
-0.80125911
-0.60805587
-0.56423919
-0.60926351
-0.73813193
-0.9507939
-1.1501214
-1.3350793
-1.4817025
-1.5422146
-1.4817937
-1.2982442
-1.0328771
-0.73166798
-0.44855308
-0.21228669
-0.026317511
0.11468901
0.21735837
0.28887634
0.33719147
0.37158779
0.39814452
0.41002113
0.41735002
0.42054622
0.42122918
0.42022539
0.41823495
0.41567805
0.41304424
0.41045994
0.40858109
0.40704752
0.40730218
0.40787426
-1.6401927
-1.3015562
-0.93617428
-0.65570132
-0.47489652
-0.35844369
-0.27116234
-0.20291977
-0.18121319
-0.20808361
-0.29047177
-0.44182825
-0.6815107
-0.83997673
-0.79637431
-0.56687438
-0.2677022
-0.1689701
-0.12137753
-0.083540899
-0.058868579
-0.042699288
-0.030505042
-0.020231539
-0.011962066
-0.0025866719
-1.6871778
-1.3860263
-0.97620942
-0.7075488
-0.61876227
-0.63227991
-0.72713042
-0.91511306
-1.1980731
-1.4605206
-1.6737463
-1.8179864
-1.8198191
-1.6746235
-1.3963512
-1.040226
-0.68695768
-0.38580748
-0.1478662
0.032729567
0.16417055
0.255541
0.3173377
0.36160595
0.39649077
0.41260211
0.4229475
0.4279345
0.42964984
0.42912858
0.42717772
0.4244082
0.42120192
0.41802716
0.41497623
0.41270506
0.41084763
0.41086878
0.41124463
-1.8330313
-1.692983
-1.2738461
-0.84687866
-0.54256594
-0.35093413
-0.23282393
-0.15334517
-0.099654158
-0.099321885
-0.14316397
-0.23655673
-0.41579456
-0.65235239
-0.79916267
-0.73652701
-0.51651782
-0.25108747
-0.16005907
-0.11557643
-0.081030447
-0.057736807
-0.042051038
-0.030120288
-0.020002906
-0.01156505
-0.0028143276
-1.5888722
-1.1527666
-0.81700763
-0.68156107
-0.66457044
-0.73201453
-0.88560426
-1.147539
-1.5162763
-1.8602069
-2.0770366
-2.1774084
-2.0898695
-1.8428836
-1.4460798
-1.0049743
-0.61679783
-0.30803528
-0.074841428
0.094260058
0.2110711
0.29009608
0.34683682
0.39227002
0.41375513
0.42796579
0.43528988
0.43842436
0.43864514
0.43696629
0.43407381
0.43052657
0.42667388
0.42294515
0.41940992
0.4167557
0.41456939
0.41435665
0.41453961
-1.7239427
-1.8951122
-1.671066
-1.2134879
-0.75396024
-0.43873035
-0.24590088
-0.13310358
-0.063567926
-0.01691437
-0.037019582
-0.081631309
-0.20490871
-0.38919924
-0.6166196
-0.74091618
-0.66213306
-0.45509585
-0.23310028
-0.15095365
-0.10942367
-0.078099994
-0.056323538
-0.041225703
-0.029600054
-0.019675295
-0.011143906
-0.0029952133
-1.3037318
-0.92276473
-0.74838788
-0.70035781
-0.74398977
-0.87146998
-1.0992033
-1.4551732
-1.918967
-2.3398063
-2.5118062
-2.5179446
-2.3072879
-1.9153175
-1.4116442
-0.93027238
-0.52288319
-0.21759865
0.00277857
0.15254274
0.25332295
0.32598607
0.38478058
0.41302324
0.43214308
0.4424517
0.4474571
0.44873565
0.44754137
0.44472443
0.44090185
0.43658745
0.43207569
0.42777114
0.42376908
0.42072513
0.41820843
0.41776217
0.41775657
-1.3981485
-1.7720027
-1.8622462
-1.5895888
-1.127337
-0.66508043
-0.34876074
-0.16110987
-0.057628515
-0.0011079435
0.0069575891
0.018161568
-0.04790982
-0.17295896
-0.36254986
-0.57207977
-0.66651459
-0.57685879
-0.39161516
-0.2141776
-0.14131857
-0.10298724
-0.074789808
-0.054628165
-0.040213275
-0.028939674
-0.019247938
-0.010701081
-0.0031302341
-1.004999
-0.81166178
-0.73595993
-0.75633324
-0.8628987
-1.0637856
-1.3893563
-1.8598925
-2.3939417
-2.8454053
-2.9027916
-2.7786967
-2.4261493
-1.8948809
-1.3285746
-0.81524074
-0.41163315
-0.11859804
0.076772865
0.20454953
0.29722268
0.37310442
0.40988062
0.43516213
0.44923526
0.45664227
0.45934166
0.45889061
0.45632149
0.452393
0.44766202
0.44256872
0.43737314
0.43252046
0.42804451
0.42460867
0.42176077
0.42108091
0.42089268
-1.0609851
-1.4253315
-1.7239005
-1.7498312
-1.461633
-1.0194308
-0.58268856
-0.27592784
-0.097024987
-0.0042378708
0.042348409
0.061315356
0.049285259
-0.017716076
-0.13701611
-0.33104615
-0.51632304
-0.58030868
-0.48451647
-0.32934784
-0.19390493
-0.131083
-0.096431381
-0.071164102
-0.052664109
-0.03901472
-0.028142155
-0.018725943
-0.010240048
-0.0032213467
-0.86231147
-0.76565629
-0.76591823
-0.85235617
-1.0325021
-1.3286238
-1.7824901
-2.3647911
-2.8863949
-3.2656259
-3.1701511
-2.8974649
-2.4240831
-1.8307884
-1.21064
-0.67957693
-0.28658311
-0.021680956
0.14191802
0.25863288
0.355948
0.40367336
0.43666598
0.45541637
0.46585822
0.47039977
0.47098576
0.46887485
0.46497911
0.45997595
0.45432757
0.44842827
0.44259086
0.43718285
0.43223145
0.42840195
0.42522081
0.42430717
0.42394672
-0.88120048
-1.0914102
-1.3791924
-1.5989849
-1.5793067
-1.3041288
-0.90339792
-0.5109289
-0.22132613
-0.051397958
0.034179827
0.085317196
0.091669738
0.078423866
0.01206342
-0.1020317
-0.29065228
-0.45320978
-0.48410327
-0.39285269
-0.27310676
-0.17363779
-0.12065019
-0.089808656
-0.067315647
-0.050464808
-0.03764271
-0.027218972
-0.018120499
-0.0097674012
-0.0032732027
-0.78165094
-0.76858593
-0.83706196
-0.99726825
-1.2701539
-1.6901593
-2.2956317
-2.9153426
-3.3116698
-3.5038705
-3.2565538
-2.8461679
-2.2931924
-1.6655724
-1.0390151
-0.52806787
-0.15663711
0.062940191
0.20918115
0.33262811
0.39339527
0.43621774
0.46074477
0.47495464
0.48183514
0.48379665
0.48238038
0.47868825
0.47352334
0.467441
0.46084821
0.45420265
0.44771775
0.44175397
0.43632526
0.43209733