/*--------------------------------*- C++ -*----------------------------------*\
| =========                 |                                                 |
| \\      /  F ield         | OpenFOAM: The Open Source CFD Toolbox           |
|  \\    /   O peration     | Version:  v2012                                 |
|   \\  /    A nd           | Website:  www.openfoam.com                      |
|    \\/     M anipulation  |                                                 |
\*---------------------------------------------------------------------------*/
FoamFile
{
    version     2.0;
    format      ascii;
    class       pointVectorField;
    location    "15.7997241758257";
    object      pointDisplacement;
}
// * * * * * * * * * * * * * * * * * * * * * * * * * * * * * * * * * * * * * //

dimensions      [0 1 0 0 0 0 0];


internalField   nonuniform List<vector> 
18840
(
(1.4713878 0 0)
(1.4712013 0 0)
(1.4706477 0 0)
(1.4697375 0 0)
(1.4684789 0 0)
(1.4668779 0 0)
(1.4649393 0 0)
(1.4626662 0 0)
(1.4600613 0 0)
(1.4571258 0 0)
(1.4538604 0 0)
(1.4502649 0 0)
(1.4463387 0 0)
(1.4420808 0 0)
(1.4374895 0 0)
(1.4325627 0 0)
(1.4272985 0 0)
(1.4216946 0 0)
(1.4157491 0 0)
(1.4094671 0 0)
(1.4015417 0 0)
(1.4713878 0 0)
(1.4712013 0 0)
(1.4706476 0 0)
(1.4697368 0 0)
(1.4684771 0 0)
(1.4668745 0 0)
(1.4649335 0 0)
(1.4626574 0 0)
(1.4600487 0 0)
(1.4571087 0 0)
(1.4538381 0 0)
(1.4502371 0 0)
(1.4463047 0 0)
(1.4420403 0 0)
(1.4374422 0 0)
(1.4325086 0 0)
(1.4272373 0 0)
(1.4216263 0 0)
(1.4156729 0 0)
(1.4093784 0 0)
(1.402737 0 0)
(1.4713878 0 0)
(1.4712011 0 0)
(1.4706464 0 0)
(1.4697338 0 0)
(1.4684713 0 0)
(1.4668648 0 0)
(1.4649187 0 0)
(1.4626364 0 0)
(1.4600202 0 0)
(1.4570718 0 0)
(1.4537917 0 0)
(1.4501801 0 0)
(1.4462364 0 0)
(1.4419599 0 0)
(1.437349 0 0)
(1.4324021 0 0)
(1.4271168 0 0)
(1.421491 0 0)
(1.4155215 0 0)
(1.4092055 0 0)
(1.4024452 0 0)
(1.4713878 0 0)
(1.4712009 0 0)
(1.4706455 0 0)
(1.4697315 0 0)
(1.4684668 0 0)
(1.466857 0 0)
(1.4649064 0 0)
(1.4626185 0 0)
(1.4599955 0 0)
(1.4570391 0 0)
(1.45375 0 0)
(1.4501284 0 0)
(1.4461739 0 0)
(1.4418857 0 0)
(1.4372625 0 0)
(1.4323028 0 0)
(1.4270044 0 0)
(1.4213653 0 0)
(1.4153826 0 0)
(1.4090546 0 0)
(1.402204 0 0)
(1.4713878 0 0)
(1.4712008 0 0)
(1.4706451 0 0)
(1.4697301 0 0)
(1.4684635 0 0)
(1.4668508 0 0)
(1.4648962 0 0)
(1.4626032 0 0)
(1.4599738 0 0)
(1.4570099 0 0)
(1.453712 0 0)
(1.4500807 0 0)
(1.4461155 0 0)
(1.4418159 0 0)
(1.4371805 0 0)
(1.4322083 0 0)
(1.4268973 0 0)
(1.4212457 0 0)
(1.4152512 0 0)
(1.4089129 0 0)
(1.4019828 0 0)
(1.4713878 0 0)
(1.4712008 0 0)
(1.470645 0 0)
(1.4697292 0 0)
(1.4684612 0 0)
(1.4668461 0 0)
(1.464888 0 0)
(1.4625901 0 0)
(1.4599547 0 0)
(1.4569834 0 0)
(1.453677 0 0)
(1.450036 0 0)
(1.44606 0 0)
(1.4417488 0 0)
(1.4371012 0 0)
(1.4321161 0 0)
(1.426792 0 0)
(1.4211275 0 0)
(1.4151208 0 0)
(1.4087715 0 0)
(1.4017701 0 0)
(1.4713878 0 0)
(1.471201 0 0)
(1.4706452 0 0)
(1.4697291 0 0)
(1.4684598 0 0)
(1.4668427 0 0)
(1.4648814 0 0)
(1.4625791 0 0)
(1.4599379 0 0)
(1.4569595 0 0)
(1.4536445 0 0)
(1.4499937 0 0)
(1.4460066 0 0)
(1.4416833 0 0)
(1.4370226 0 0)
(1.4320239 0 0)
(1.4266856 0 0)
(1.4210069 0 0)
(1.4149861 0 0)
(1.4086234 0 0)
(1.4015579 0 0)
(1.4713878 0 0)
(1.4712011 0 0)
(1.4706456 0 0)
(1.4697296 0 0)
(1.4684594 0 0)
(1.4668405 0 0)
(1.4648762 0 0)
(1.4625699 0 0)
(1.4599231 0 0)
(1.4569377 0 0)
(1.4536143 0 0)
(1.4499535 0 0)
(1.445955 0 0)
(1.4416189 0 0)
(1.4369444 0 0)
(1.4319307 0 0)
(1.4265766 0 0)
(1.4208814 0 0)
(1.414844 0 0)
(1.4084644 0 0)
(1.4013413 0 0)
(1.4713878 0 0)
(1.4712013 0 0)
(1.4706462 0 0)
(1.4697302 0 0)
(1.4684595 0 0)
(1.4668389 0 0)
(1.4648722 0 0)
(1.462562 0 0)
(1.4599101 0 0)
(1.4569179 0 0)
(1.4535862 0 0)
(1.4499153 0 0)
(1.4459052 0 0)
(1.4415557 0 0)
(1.4368664 0 0)
(1.4318363 0 0)
(1.4264647 0 0)
(1.4207505 0 0)
(1.4146933 0 0)
(1.4082927 0 0)
(1.4011187 0 0)
(1.4713878 0 0)
(1.4712016 0 0)
(1.470647 0 0)
(1.4697311 0 0)
(1.4684598 0 0)
(1.4668378 0 0)
(1.4648688 0 0)
(1.4625551 0 0)
(1.4598984 0 0)
(1.4568997 0 0)
(1.4535598 0 0)
(1.4498789 0 0)
(1.4458569 0 0)
(1.4414935 0 0)
(1.4367883 0 0)
(1.4317405 0 0)
(1.4263494 0 0)
(1.4206139 0 0)
(1.4145336 0 0)
(1.4081079 0 0)
(1.4008892 0 0)
(1.4713878 0 0)
(1.4712015 0 0)
(1.4706463 0 0)
(1.469729 0 0)
(1.4684551 0 0)
(1.466829 0 0)
(1.4648544 0 0)
(1.4625333 0 0)
(1.4598675 0 0)
(1.4568577 0 0)
(1.4535045 0 0)
(1.4498078 0 0)
(1.4457676 0 0)
(1.4413834 0 0)
(1.4366548 0 0)
(1.4315808 0 0)
(1.4261608 0 0)
(1.420394 0 0)
(1.4142796 0 0)
(1.4078168 0 0)
(1.4005543 0 0)
(1.4713878 0 0)
(1.4712013 0 0)
(1.4706477 0 0)
(1.4697375 0 0)
(1.4684789 0 0)
(1.4668779 0 0)
(1.4649393 0 0)
(1.4626662 0 0)
(1.4600613 0 0)
(1.4571258 0 0)
(1.4538604 0 0)
(1.4502649 0 0)
(1.4463387 0 0)
(1.4420808 0 0)
(1.4374895 0 0)
(1.4325627 0 0)
(1.4272985 0 0)
(1.4216946 0 0)
(1.4157491 0 0)
(1.4094671 0 0)
(1.4015417 0 0)
(1.4713878 0 0)
(1.4712013 0 0)
(1.4706476 0 0)
(1.4697368 0 0)
(1.4684771 0 0)
(1.4668745 0 0)
(1.4649335 0 0)
(1.4626574 0 0)
(1.4600487 0 0)
(1.4571087 0 0)
(1.4538381 0 0)
(1.4502371 0 0)
(1.4463047 0 0)
(1.4420403 0 0)
(1.4374422 0 0)
(1.4325086 0 0)
(1.4272373 0 0)
(1.4216263 0 0)
(1.4156729 0 0)
(1.4093784 0 0)
(1.402737 0 0)
(1.4713878 0 0)
(1.4712011 0 0)
(1.4706464 0 0)
(1.4697338 0 0)
(1.4684713 0 0)
(1.4668648 0 0)
(1.4649187 0 0)
(1.4626364 0 0)
(1.4600202 0 0)
(1.4570718 0 0)
(1.4537917 0 0)
(1.4501801 0 0)
(1.4462364 0 0)
(1.4419599 0 0)
(1.437349 0 0)
(1.4324021 0 0)
(1.4271168 0 0)
(1.421491 0 0)
(1.4155215 0 0)
(1.4092055 0 0)
(1.4024452 0 0)
(1.4713878 0 0)
(1.4712009 0 0)
(1.4706455 0 0)
(1.4697315 0 0)
(1.4684668 0 0)
(1.466857 0 0)
(1.4649064 0 0)
(1.4626185 0 0)
(1.4599955 0 0)
(1.4570391 0 0)
(1.45375 0 0)
(1.4501284 0 0)
(1.4461739 0 0)
(1.4418857 0 0)
(1.4372625 0 0)
(1.4323028 0 0)
(1.4270044 0 0)
(1.4213653 0 0)
(1.4153826 0 0)
(1.4090546 0 0)
(1.402204 0 0)
(1.4713878 0 0)
(1.4712008 0 0)
(1.4706451 0 0)
(1.4697301 0 0)
(1.4684635 0 0)
(1.4668508 0 0)
(1.4648962 0 0)
(1.4626032 0 0)
(1.4599738 0 0)
(1.4570099 0 0)
(1.453712 0 0)
(1.4500807 0 0)
(1.4461155 0 0)
(1.4418159 0 0)
(1.4371805 0 0)
(1.4322083 0 0)
(1.4268973 0 0)
(1.4212457 0 0)
(1.4152512 0 0)
(1.4089129 0 0)
(1.4019828 0 0)
(1.4713878 0 0)
(1.4712008 0 0)
(1.470645 0 0)
(1.4697292 0 0)
(1.4684612 0 0)
(1.4668461 0 0)
(1.464888 0 0)
(1.4625901 0 0)
(1.4599547 0 0)
(1.4569834 0 0)
(1.453677 0 0)
(1.450036 0 0)
(1.44606 0 0)
(1.4417488 0 0)
(1.4371012 0 0)
(1.4321161 0 0)
(1.426792 0 0)
(1.4211275 0 0)
(1.4151208 0 0)
(1.4087715 0 0)
(1.4017701 0 0)
(1.4713878 0 0)
(1.471201 0 0)
(1.4706452 0 0)
(1.4697291 0 0)
(1.4684598 0 0)
(1.4668427 0 0)
(1.4648814 0 0)
(1.4625791 0 0)
(1.4599379 0 0)
(1.4569595 0 0)
(1.4536445 0 0)
(1.4499937 0 0)
(1.4460066 0 0)
(1.4416833 0 0)
(1.4370226 0 0)
(1.4320239 0 0)
(1.4266856 0 0)
(1.4210069 0 0)
(1.4149861 0 0)
(1.4086234 0 0)
(1.4015579 0 0)
(1.4713878 0 0)
(1.4712011 0 0)
(1.4706456 0 0)
(1.4697296 0 0)
(1.4684594 0 0)
(1.4668405 0 0)
(1.4648762 0 0)
(1.4625699 0 0)
(1.4599231 0 0)
(1.4569377 0 0)
(1.4536143 0 0)
(1.4499535 0 0)
(1.445955 0 0)
(1.4416189 0 0)
(1.4369444 0 0)
(1.4319307 0 0)
(1.4265766 0 0)
(1.4208814 0 0)
(1.414844 0 0)
(1.4084644 0 0)
(1.4013413 0 0)
(1.4713878 0 0)
(1.4712013 0 0)
(1.4706462 0 0)
(1.4697302 0 0)
(1.4684595 0 0)
(1.4668389 0 0)
(1.4648722 0 0)
(1.462562 0 0)
(1.4599101 0 0)
(1.4569179 0 0)
(1.4535862 0 0)
(1.4499153 0 0)
(1.4459052 0 0)
(1.4415557 0 0)
(1.4368664 0 0)
(1.4318363 0 0)
(1.4264647 0 0)
(1.4207505 0 0)
(1.4146933 0 0)
(1.4082927 0 0)
(1.4011187 0 0)
(1.4713878 0 0)
(1.4712016 0 0)
(1.470647 0 0)
(1.4697311 0 0)
(1.4684598 0 0)
(1.4668378 0 0)
(1.4648688 0 0)
(1.4625551 0 0)
(1.4598984 0 0)
(1.4568997 0 0)
(1.4535598 0 0)
(1.4498789 0 0)
(1.4458569 0 0)
(1.4414935 0 0)
(1.4367883 0 0)
(1.4317405 0 0)
(1.4263494 0 0)
(1.4206139 0 0)
(1.4145336 0 0)
(1.4081079 0 0)
(1.4008892 0 0)
(1.4713878 0 0)
(1.4712015 0 0)
(1.4706463 0 0)
(1.469729 0 0)
(1.4684551 0 0)
(1.466829 0 0)
(1.4648544 0 0)
(1.4625333 0 0)
(1.4598675 0 0)
(1.4568577 0 0)
(1.4535045 0 0)
(1.4498078 0 0)
(1.4457676 0 0)
(1.4413834 0 0)
(1.4366548 0 0)
(1.4315808 0 0)
(1.4261608 0 0)
(1.420394 0 0)
(1.4142796 0 0)
(1.4078168 0 0)
(1.4005543 0 0)
(1.4713878 0 0)
(1.4711981 0 0)
(1.4706354 0 0)
(1.469711 0 0)
(1.4684339 0 0)
(1.4668111 0 0)
(1.4648478 0 0)
(1.4625478 0 0)
(1.4599136 0 0)
(1.4569466 0 0)
(1.4536476 0 0)
(1.4500164 0 0)
(1.4460523 0 0)
(1.4417538 0 0)
(1.4371192 0 0)
(1.4321459 0 0)
(1.4268314 0 0)
(1.4211721 0 0)
(1.4151646 0 0)
(1.4088122 0 0)
(1.401533 0 0)
(1.4713878 0 0)
(1.4711981 0 0)
(1.4706355 0 0)
(1.4697114 0 0)
(1.4684346 0 0)
(1.4668122 0 0)
(1.4648495 0 0)
(1.4625502 0 0)
(1.459917 0 0)
(1.4569511 0 0)
(1.4536534 0 0)
(1.4500236 0 0)
(1.446061 0 0)
(1.441764 0 0)
(1.4371308 0 0)
(1.4321589 0 0)
(1.4268453 0 0)
(1.4211868 0 0)
(1.4151798 0 0)
(1.408827 0 0)
(1.401553 0 0)
(1.4713878 0 0)
(1.4711979 0 0)
(1.4706348 0 0)
(1.46971 0 0)
(1.4684322 0 0)
(1.4668086 0 0)
(1.4648445 0 0)
(1.4625437 0 0)
(1.4599088 0 0)
(1.4569412 0 0)
(1.4536417 0 0)
(1.4500099 0 0)
(1.4460452 0 0)
(1.4417459 0 0)
(1.4371102 0 0)
(1.4321355 0 0)
(1.4268188 0 0)
(1.4211566 0 0)
(1.4151451 0 0)
(1.408787 0 0)
(1.4015272 0 0)
(1.4713878 0 0)
(1.4711979 0 0)
(1.4706348 0 0)
(1.46971 0 0)
(1.4684321 0 0)
(1.4668085 0 0)
(1.4648445 0 0)
(1.4625437 0 0)
(1.4599088 0 0)
(1.4569414 0 0)
(1.453642 0 0)
(1.4500103 0 0)
(1.4460457 0 0)
(1.4417465 0 0)
(1.4371109 0 0)
(1.4321359 0 0)
(1.4268188 0 0)
(1.4211557 0 0)
(1.4151429 0 0)
(1.4087821 0 0)
(1.4015516 0 0)
(1.4713878 0 0)
(1.4711981 0 0)
(1.4706354 0 0)
(1.4697112 0 0)
(1.4684343 0 0)
(1.4668118 0 0)
(1.464849 0 0)
(1.4625497 0 0)
(1.4599164 0 0)
(1.4569506 0 0)
(1.4536531 0 0)
(1.4500235 0 0)
(1.446061 0 0)
(1.441764 0 0)
(1.4371305 0 0)
(1.4321578 0 0)
(1.4268427 0 0)
(1.4211814 0 0)
(1.41517 0 0)
(1.4088092 0 0)
(1.4016229 0 0)
(1.4713878 0 0)
(1.4711984 0 0)
(1.4706365 0 0)
(1.4697136 0 0)
(1.4684385 0 0)
(1.4668181 0 0)
(1.4648578 0 0)
(1.4625612 0 0)
(1.4599309 0 0)
(1.4569684 0 0)
(1.4536744 0 0)
(1.4500485 0 0)
(1.4460899 0 0)
(1.441797 0 0)
(1.4371679 0 0)
(1.4321996 0 0)
(1.4268889 0 0)
(1.421232 0 0)
(1.4152249 0 0)
(1.4088672 0 0)
(1.4017401 0 0)
(1.4713878 0 0)
(1.4711988 0 0)
(1.4706381 0 0)
(1.4697171 0 0)
(1.4684444 0 0)
(1.4668273 0 0)
(1.4648705 0 0)
(1.4625778 0 0)
(1.4599517 0 0)
(1.4569939 0 0)
(1.4537047 0 0)
(1.4500841 0 0)
(1.446131 0 0)
(1.4418442 0 0)
(1.4372213 0 0)
(1.4322596 0 0)
(1.4269557 0 0)
(1.4213061 0 0)
(1.4153062 0 0)
(1.4089549 0 0)
(1.4019019 0 0)
(1.4713878 0 0)
(1.4711993 0 0)
(1.4706402 0 0)
(1.4697215 0 0)
(1.4684521 0 0)
(1.4668389 0 0)
(1.4648864 0 0)
(1.4625986 0 0)
(1.4599777 0 0)
(1.4570255 0 0)
(1.4537422 0 0)
(1.4501281 0 0)
(1.4461817 0 0)
(1.4419022 0 0)
(1.437287 0 0)
(1.4323338 0 0)
(1.4270389 0 0)
(1.4213992 0 0)
(1.4154097 0 0)
(1.4090686 0 0)
(1.4021054 0 0)
(1.4713878 0 0)
(1.4712 0 0)
(1.4706427 0 0)
(1.4697268 0 0)
(1.4684613 0 0)
(1.4668523 0 0)
(1.4649049 0 0)
(1.4626224 0 0)
(1.4600074 0 0)
(1.4570615 0 0)
(1.4537849 0 0)
(1.4501777 0 0)
(1.446239 0 0)
(1.4419676 0 0)
(1.4373613 0 0)
(1.4324178 0 0)
(1.4271338 0 0)
(1.4215064 0 0)
(1.4155311 0 0)
(1.4092051 0 0)
(1.4023481 0 0)
(1.4713878 0 0)
(1.4712008 0 0)
(1.4706456 0 0)
(1.4697331 0 0)
(1.4684717 0 0)
(1.4668677 0 0)
(1.4649257 0 0)
(1.4626493 0 0)
(1.4600408 0 0)
(1.4571017 0 0)
(1.4538324 0 0)
(1.4502329 0 0)
(1.4463026 0 0)
(1.4420401 0 0)
(1.4374436 0 0)
(1.4325109 0 0)
(1.4272395 0 0)
(1.4216268 0 0)
(1.4156697 0 0)
(1.4093688 0 0)
(1.4026502 0 0)
(1.4713878 0 0)
(1.4711981 0 0)
(1.4706354 0 0)
(1.469711 0 0)
(1.4684339 0 0)
(1.4668111 0 0)
(1.4648478 0 0)
(1.4625478 0 0)
(1.4599136 0 0)
(1.4569466 0 0)
(1.4536476 0 0)
(1.4500164 0 0)
(1.4460523 0 0)
(1.4417538 0 0)
(1.4371192 0 0)
(1.4321459 0 0)
(1.4268314 0 0)
(1.4211721 0 0)
(1.4151646 0 0)
(1.4088122 0 0)
(1.401533 0 0)
(1.4713878 0 0)
(1.4711981 0 0)
(1.4706355 0 0)
(1.4697114 0 0)
(1.4684346 0 0)
(1.4668122 0 0)
(1.4648495 0 0)
(1.4625502 0 0)
(1.459917 0 0)
(1.4569511 0 0)
(1.4536534 0 0)
(1.4500236 0 0)
(1.446061 0 0)
(1.441764 0 0)
(1.4371308 0 0)
(1.4321589 0 0)
(1.4268453 0 0)
(1.4211868 0 0)
(1.4151798 0 0)
(1.408827 0 0)
(1.401553 0 0)
(1.4713878 0 0)
(1.4711979 0 0)
(1.4706348 0 0)
(1.46971 0 0)
(1.4684322 0 0)
(1.4668086 0 0)
(1.4648445 0 0)
(1.4625437 0 0)
(1.4599088 0 0)
(1.4569412 0 0)
(1.4536417 0 0)
(1.4500099 0 0)
(1.4460452 0 0)
(1.4417459 0 0)
(1.4371102 0 0)
(1.4321355 0 0)
(1.4268188 0 0)
(1.4211566 0 0)
(1.4151451 0 0)
(1.408787 0 0)
(1.4015272 0 0)
(1.4713878 0 0)
(1.4711979 0 0)
(1.4706348 0 0)
(1.46971 0 0)
(1.4684321 0 0)
(1.4668085 0 0)
(1.4648445 0 0)
(1.4625437 0 0)
(1.4599088 0 0)
(1.4569414 0 0)
(1.453642 0 0)
(1.4500103 0 0)
(1.4460457 0 0)
(1.4417465 0 0)
(1.4371109 0 0)
(1.4321359 0 0)
(1.4268188 0 0)
(1.4211557 0 0)
(1.4151429 0 0)
(1.4087821 0 0)
(1.4015516 0 0)
(1.4713878 0 0)
(1.4711981 0 0)
(1.4706354 0 0)
(1.4697112 0 0)
(1.4684343 0 0)
(1.4668118 0 0)
(1.464849 0 0)
(1.4625497 0 0)
(1.4599164 0 0)
(1.4569506 0 0)
(1.4536531 0 0)
(1.4500235 0 0)
(1.446061 0 0)
(1.441764 0 0)
(1.4371305 0 0)
(1.4321578 0 0)
(1.4268427 0 0)
(1.4211814 0 0)
(1.41517 0 0)
(1.4088092 0 0)
(1.4016229 0 0)
(1.4713878 0 0)
(1.4711984 0 0)
(1.4706365 0 0)
(1.4697136 0 0)
(1.4684385 0 0)
(1.4668181 0 0)
(1.4648578 0 0)
(1.4625612 0 0)
(1.4599309 0 0)
(1.4569684 0 0)
(1.4536744 0 0)
(1.4500485 0 0)
(1.4460899 0 0)
(1.441797 0 0)
(1.4371679 0 0)
(1.4321996 0 0)
(1.4268889 0 0)
(1.421232 0 0)
(1.4152249 0 0)
(1.4088672 0 0)
(1.4017401 0 0)
(1.4713878 0 0)
(1.4711988 0 0)
(1.4706381 0 0)
(1.4697171 0 0)
(1.4684444 0 0)
(1.4668273 0 0)
(1.4648705 0 0)
(1.4625778 0 0)
(1.4599517 0 0)
(1.4569939 0 0)
(1.4537047 0 0)
(1.4500841 0 0)
(1.446131 0 0)
(1.4418442 0 0)
(1.4372213 0 0)
(1.4322596 0 0)
(1.4269557 0 0)
(1.4213061 0 0)
(1.4153062 0 0)
(1.4089549 0 0)
(1.4019019 0 0)
(1.4713878 0 0)
(1.4711993 0 0)
(1.4706402 0 0)
(1.4697215 0 0)
(1.4684521 0 0)
(1.4668389 0 0)
(1.4648864 0 0)
(1.4625986 0 0)
(1.4599777 0 0)
(1.4570255 0 0)
(1.4537422 0 0)
(1.4501281 0 0)
(1.4461817 0 0)
(1.4419022 0 0)
(1.437287 0 0)
(1.4323338 0 0)
(1.4270389 0 0)
(1.4213992 0 0)
(1.4154097 0 0)
(1.4090686 0 0)
(1.4021054 0 0)
(1.4713878 0 0)
(1.4712 0 0)
(1.4706427 0 0)
(1.4697268 0 0)
(1.4684613 0 0)
(1.4668523 0 0)
(1.4649049 0 0)
(1.4626224 0 0)
(1.4600074 0 0)
(1.4570615 0 0)
(1.4537849 0 0)
(1.4501777 0 0)
(1.446239 0 0)
(1.4419676 0 0)
(1.4373613 0 0)
(1.4324178 0 0)
(1.4271338 0 0)
(1.4215064 0 0)
(1.4155311 0 0)
(1.4092051 0 0)
(1.4023481 0 0)
(1.4713878 0 0)
(1.4712008 0 0)
(1.4706456 0 0)
(1.4697331 0 0)
(1.4684717 0 0)
(1.4668677 0 0)
(1.4649257 0 0)
(1.4626493 0 0)
(1.4600408 0 0)
(1.4571017 0 0)
(1.4538324 0 0)
(1.4502329 0 0)
(1.4463026 0 0)
(1.4420401 0 0)
(1.4374436 0 0)
(1.4325109 0 0)
(1.4272395 0 0)
(1.4216268 0 0)
(1.4156697 0 0)
(1.4093688 0 0)
(1.4026502 0 0)
(1.3925818 0 0)
(1.3825038 0 0)
(1.3718822 0 0)
(1.3607143 0 0)
(1.3490073 0 0)
(1.3367684 0 0)
(1.3240067 0 0)
(1.310732 0 0)
(1.2969517 0 0)
(1.2826654 0 0)
(1.2678687 0 0)
(1.2525598 0 0)
(1.2367413 0 0)
(1.2204152 0 0)
(1.2035824 0 0)
(1.1862432 0 0)
(1.1683986 0 0)
(1.1500433 0 0)
(1.1311605 0 0)
(1.1117401 0 0)
(1.0917697 0 0)
(1.0712297 0 0)
(1.0500957 0 0)
(1.0283452 0 0)
(1.0059554 0 0)
(0.98289781 0 0)
(0.95912172 0 0)
(0.93456049 0 0)
(0.90916247 0 0)
(0.88288981 0 0)
(0.85571329 0 0)
(0.82756702 0 0)
(0.79834121 0 0)
(0.76789902 0 0)
(0.73614963 0 0)
(0.70307523 0 0)
(0.66856881 0 0)
(0.63242393 0 0)
(0.59450512 0 0)
(0.5547615 0 0)
(0.51295736 0 0)
(0.4687751 0 0)
(0.42213276 0 0)
(0.37279173 0 0)
(0.32037873 0 0)
(0.26459871 0 0)
(0.20509589 0 0)
(0.14149281 0 0)
(0.073239708 0 0)
(0 0 0)
(1.3926193 0 0)
(1.3825643 0 0)
(1.3719627 0 0)
(1.3608122 0 0)
(1.3491198 0 0)
(1.3368929 0 0)
(1.3241409 0 0)
(1.3108738 0 0)
(1.2970986 0 0)
(1.282814 0 0)
(1.2680159 0 0)
(1.2527034 0 0)
(1.2368792 0 0)
(1.2205458 0 0)
(1.2037043 0 0)
(1.1863561 0 0)
(1.1685018 0 0)
(1.1501354 0 0)
(1.1312423 0 0)
(1.111813 0 0)
(1.0918345 0 0)
(1.071286 0 0)
(1.0501432 0 0)
(1.0283841 0 0)
(1.0059866 0 0)
(0.98292252 0 0)
(0.95914167 0 0)
(0.93457694 0 0)
(0.9091741 0 0)
(0.88289838 0 0)
(0.8557203 0 0)
(0.82757295 0 0)
(0.79834676 0 0)
(0.76790533 0 0)
(0.73615671 0 0)
(0.70308242 0 0)
(0.66857574 0 0)
(0.63242966 0 0)
(0.59450798 0 0)
(0.55476233 0 0)
(0.51295759 0 0)
(0.46877125 0 0)
(0.42212599 0 0)
(0.37278632 0 0)
(0.3203771 0 0)
(0.26460186 0 0)
(0.2051012 0 0)
(0.14149712 0 0)
(0.073241639 0 0)
(0 0 0)
(1.392648 0 0)
(1.382664 0 0)
(1.3721281 0 0)
(1.3610377 0 0)
(1.3493994 0 0)
(1.3372209 0 0)
(1.3245122 0 0)
(1.3112835 0 0)
(1.2975407 0 0)
(1.2832825 0 0)
(1.2685051 0 0)
(1.2532086 0 0)
(1.2373958 0 0)
(1.2210697 0 0)
(1.2042324 0 0)
(1.1868861 0 0)
(1.169031 0 0)
(1.1506606 0 0)
(1.1317626 0 0)
(1.1123279 0 0)
(1.0923431 0 0)
(1.0717872 0 0)
(1.0506357 0 0)
(1.0288664 0 0)
(1.0064583 0 0)
(0.98338459 0 0)
(0.95959509 0 0)
(0.9350213 0 0)
(0.90960764 0 0)
(0.88332253 0 0)
(0.85613498 0 0)
(0.827978 0 0)
(0.79874297 0 0)
(0.76829282 0 0)
(0.73653387 0 0)
(0.70344796 0 0)
(0.66892908 0 0)
(0.63276856 0 0)
(0.59482876 0 0)
(0.55506407 0 0)
(0.51324046 0 0)
(0.46902959 0 0)
(0.42235769 0 0)
(0.37299346 0 0)
(0.32056137 0 0)
(0.26476144 0 0)
(0.20522913 0 0)
(0.14158685 0 0)
(0.073288051 0 0)
(0 0 0)
(1.3927661 0 0)
(1.3829023 0 0)
(1.3724781 0 0)
(1.3614904 0 0)
(1.3499456 0 0)
(1.3378518 0 0)
(1.3252191 0 0)
(1.3120577 0 0)
(1.2983733 0 0)
(1.284164 0 0)
(1.2694276 0 0)
(1.2541648 0 0)
(1.2383785 0 0)
(1.2220724 0 0)
(1.20525 0 0)
(1.1879141 0 0)
(1.1700644 0 0)
(1.1516948 0 0)
(1.1327948 0 0)
(1.1133556 0 0)
(1.0933637 0 0)
(1.0727986 0 0)
(1.0516356 0 0)
(1.0298519 0 0)
(1.0074279 0 0)
(0.98433833 0 0)
(0.96053317 0 0)
(0.93594257 0 0)
(0.91050938 0 0)
(0.8842054 0 0)
(0.85699856 0 0)
(0.82882133 0 0)
(0.79956585 0 0)
(0.76909463 0 0)
(0.7373124 0 0)
(0.70420134 0 0)
(0.66965561 0 0)
(0.63346469 0 0)
(0.59548991 0 0)
(0.55568767 0 0)
(0.51382411 0 0)
(0.46956662 0 0)
(0.42284279 0 0)
(0.37342548 0 0)
(0.32094152 0 0)
(0.26508538 0 0)
(0.20548597 0 0)
(0.14176607 0 0)
(0.073380806 0 0)
(0 0 0)
(1.3929701 0 0)
(1.3832755 0 0)
(1.3730089 0 0)
(1.3621666 0 0)
(1.3507549 0 0)
(1.3387817 0 0)
(1.3262575 0 0)
(1.3131924 0 0)
(1.2995918 0 0)
(1.2854544 0 0)
(1.2707791 0 0)
(1.255568 0 0)
(1.239824 0 0)
(1.2235512 0 0)
(1.2067542 0 0)
(1.1894369 0 0)
(1.171599 0 0)
(1.153235 0 0)
(1.1343357 0 0)
(1.1148927 0 0)
(1.0948931 0 0)
(1.0743169 0 0)
(1.0531392 0 0)
(1.0313365 0 0)
(1.0088913 0 0)
(0.98577971 0 0)
(0.96195162 0 0)
(0.93733586 0 0)
(0.91187485 0 0)
(0.88554249 0 0)
(0.85830571 0 0)
(0.83009746 0 0)
(0.80081042 0 0)
(0.7703057 0 0)
(0.73848679 0 0)
(0.70533704 0 0)
(0.67075028 0 0)
(0.63451317 0 0)
(0.59648606 0 0)
(0.55662775 0 0)
(0.51470415 0 0)
(0.47037783 0 0)
(0.42357675 0 0)
(0.37407896 0 0)
(0.32151478 0 0)
(0.26557116 0 0)
(0.20586948 0 0)
(0.14203332 0 0)
(0.073519385 0 0)
(0 0 0)
(1.3932584 0 0)
(1.3837814 0 0)
(1.3737179 0 0)
(1.3630636 0 0)
(1.3518244 0 0)
(1.3400079 0 0)
(1.3276247 0 0)
(1.3146849 0 0)
(1.3011933 0 0)
(1.2871499 0 0)
(1.2725567 0 0)
(1.2574161 0 0)
(1.2417306 0 0)
(1.2255045 0 0)
(1.2087437 0 0)
(1.1914529 0 0)
(1.1736326 0 0)
(1.1552784 0 0)
(1.1363827 0 0)
(1.1169363 0 0)
(1.0969277 0 0)
(1.0763381 0 0)
(1.055142 0 0)
(1.0333159 0 0)
(1.0108436 0 0)
(0.98770325 0 0)
(0.96384479 0 0)
(0.93919563 0 0)
(0.91369768 0 0)
(0.88732709 0 0)
(0.86005013 0 0)
(0.83179991 0 0)
(0.80246941 0 0)
(0.77191868 0 0)
(0.74005019 0 0)
(0.70684832 0 0)
(0.67220593 0 0)
(0.63590675 0 0)
(0.59781069 0 0)
(0.55787844 0 0)
(0.51587419 0 0)
(0.47145757 0 0)
(0.42455491 0 0)
(0.37494941 0 0)
(0.32227707 0 0)
(0.26621547 0 0)
(0.20637718 0 0)
(0.14238675 0 0)
(0.073702634 0 0)
(0 0 0)
(1.3936292 0 0)
(1.384418 0 0)
(1.3746026 0 0)
(1.3641787 0 0)
(1.353151 0 0)
(1.3415273 0 0)
(1.3293177 0 0)
(1.3165321 0 0)
(1.3031743 0 0)
(1.2892479 0 0)
(1.2747575 0 0)
(1.2597071 0 0)
(1.2440972 0 0)
(1.227931 0 0)
(1.2112162 0 0)
(1.1939596 0 0)
(1.1761627 0 0)
(1.1578225 0 0)
(1.138932 0 0)
(1.1194827 0 0)
(1.0994639 0 0)
(1.0788578 0 0)
(1.0576391 0 0)
(1.0357843 0 0)
(1.013279 0 0)
(0.99010284 0 0)
(0.96620584 0 0)
(0.94151462 0 0)
(0.91597087 0 0)
(0.88955149 0 0)
(0.86222321 0 0)
(0.83391997 0 0)
(0.8045345 0 0)
(0.77392497 0 0)
(0.74199341 0 0)
(0.70872608 0 0)
(0.67401406 0 0)
(0.63763698 0 0)
(0.59945503 0 0)
(0.55943101 0 0)
(0.51732661 0 0)
(0.47279802 0 0)
(0.42577014 0 0)
(0.37603128 0 0)
(0.32322353 0 0)
(0.26701385 0 0)
(0.20700539 0 0)
(0.14282394 0 0)
(0.073929437 0 0)
(0 0 0)
(1.3940788 0 0)
(1.385181 0 0)
(1.3756586 0 0)
(1.3655069 0 0)
(1.354729 0 0)
(1.3433338 0 0)
(1.3313315 0 0)
(1.3187305 0 0)
(1.3055328 0 0)
(1.2917459 0 0)
(1.2773812 0 0)
(1.2624417 0 0)
(1.246924 0 0)
(1.2308293 0 0)
(1.2141696 0 0)
(1.1969548 0 0)
(1.1791863 0 0)
(1.1608635 0 0)
(1.1419804 0 0)
(1.1225274 0 0)
(1.1024964 0 0)
(1.0818707 0 0)
(1.0606243 0 0)
(1.0387351 0 0)
(1.01619 0 0)
(0.99297044 0 0)
(0.96902656 0 0)
(0.94428437 0 0)
(0.91868498 0 0)
(0.89220636 0 0)
(0.86481551 0 0)
(0.83644751 0 0)
(0.80699501 0 0)
(0.77631403 0 0)
(0.74430618 0 0)
(0.71095993 0 0)
(0.67616395 0 0)
(0.63969348 0 0)
(0.60140939 0 0)
(0.56127623 0 0)
(0.51905198 0 0)
(0.4743907 0 0)
(0.42721507 0 0)
(0.37731784 0 0)
(0.32434799 0 0)
(0.26796117 0 0)
(0.20775025 0 0)
(0.14334197 0 0)
(0.074198027 0 0)
(0 0 0)
(1.3946053 0 0)
(1.3860663 0 0)
(1.376881 0 0)
(1.3670418 0 0)
(1.3565513 0 0)
(1.3454208 0 0)
(1.3336633 0 0)
(1.3212809 0 0)
(1.3082746 0 0)
(1.2946538 0 0)
(1.2804328 0 0)
(1.2656175 0 0)
(1.2502048 0 0)
(1.2341955 0 0)
(1.2176031 0 0)
(1.2004379 0 0)
(1.1827022 0 0)
(1.1643992 0 0)
(1.1455238 0 0)
(1.1260652 0 0)
(1.1060189 0 0)
(1.0853698 0 0)
(1.0640903 0 0)
(1.04216 0 0)
(1.0195681 0 0)
(0.99629682 0 0)
(0.97229696 0 0)
(0.94749429 0 0)
(0.92182963 0 0)
(0.89528069 0 0)
(0.86781518 0 0)
(0.83937041 0 0)
(0.80983903 0 0)
(0.77907368 0 0)
(0.74697587 0 0)
(0.71353731 0 0)
(0.67864364 0 0)
(0.64206456 0 0)
(0.6036619 0 0)
(0.56340231 0 0)
(0.52103976 0 0)
(0.47622538 0 0)
(0.42888023 0 0)
(0.37880128 0 0)
(0.3256438 0 0)
(0.26905151 0 0)
(0.20860678 0 0)
(0.14393745 0 0)
(0.074506829 0 0)
(0 0 0)
(1.3952395 0 0)
(1.3871055 0 0)
(1.3783001 0 0)
(1.368814 0 0)
(1.3586524 0 0)
(1.3478297 0 0)
(1.3363524 0 0)
(1.3242197 0 0)
(1.3114343 0 0)
(1.2980043 0 0)
(1.2839434 0 0)
(1.2692655 0 0)
(1.2539707 0 0)
(1.2380601 0 0)
(1.2215463 0 0)
(1.2044366 0 0)
(1.186734 0 0)
(1.1684475 0 0)
(1.1495759 0 0)
(1.1301091 0 0)
(1.1100453 0 0)
(1.0893671 0 0)
(1.0680459 0 0)
(1.0460656 0 0)
(1.0234176 0 0)
(1.0000846 0 0)
(0.97601809 0 0)
(0.95114421 0 0)
(0.9254029 0 0)
(0.89877161 0 0)
(0.87121803 0 0)
(0.84268309 0 0)
(0.81305997 0 0)
(0.78219687 0 0)
(0.74999492 0 0)
(0.71644999 0 0)
(0.68144434 0 0)
(0.64474113 0 0)
(0.60620365 0 0)
(0.56580053 0 0)
(0.52328111 0 0)
(0.47829404 0 0)
(0.43075848 0 0)
(0.38047493 0 0)
(0.3271046 0 0)
(0.27027951 0 0)
(0.20957089 0 0)
(0.14460732 0 0)
(0.074853934 0 0)
(0 0 0)
(1.3941166 0 0)
(1.3863724 0 0)
(1.3779435 0 0)
(1.368819 0 0)
(1.3590086 0 0)
(1.3485198 0 0)
(1.3373485 0 0)
(1.3254968 0 0)
(1.312973 0 0)
(1.2997799 0 0)
(1.2859294 0 0)
(1.2714396 0 0)
(1.2563132 0 0)
(1.2405515 0 0)
(1.2241661 0 0)
(1.2071641 0 0)
(1.1895501 0 0)
(1.1713349 0 0)
(1.1525206 0 0)
(1.1331015 0 0)
(1.1130727 0 0)
(1.0924144 0 0)
(1.0711027 0 0)
(1.0491242 0 0)
(1.0264696 0 0)
(1.0031228 0 0)
(0.97903652 0 0)
(0.95413708 0 0)
(0.92836405 0 0)
(0.90169363 0 0)
(0.87409395 0 0)
(0.84550876 0 0)
(0.81583294 0 0)
(0.78491066 0 0)
(0.75264163 0 0)
(0.71902411 0 0)
(0.68394055 0 0)
(0.64714755 0 0)
(0.60850812 0 0)
(0.56799017 0 0)
(0.5253432 0 0)
(0.48021194 0 0)
(0.43251289 0 0)
(0.38205087 0 0)
(0.32849067 0 0)
(0.27145441 0 0)
(0.21050156 0 0)
(0.14526115 0 0)
(0.075201008 0 0)
(0 0 0)
(1.3925818 0 0)
(1.3825038 0 0)
(1.3718822 0 0)
(1.3607143 0 0)
(1.3490073 0 0)
(1.3367684 0 0)
(1.3240067 0 0)
(1.310732 0 0)
(1.2969517 0 0)
(1.2826654 0 0)
(1.2678687 0 0)
(1.2525598 0 0)
(1.2367413 0 0)
(1.2204152 0 0)
(1.2035824 0 0)
(1.1862432 0 0)
(1.1683986 0 0)
(1.1500433 0 0)
(1.1311605 0 0)
(1.1117401 0 0)
(1.0917697 0 0)
(1.0712297 0 0)
(1.0500957 0 0)
(1.0283452 0 0)
(1.0059554 0 0)
(0.98289781 0 0)
(0.95912172 0 0)
(0.93456049 0 0)
(0.90916247 0 0)
(0.88288981 0 0)
(0.85571329 0 0)
(0.82756702 0 0)
(0.79834121 0 0)
(0.76789902 0 0)
(0.73614963 0 0)
(0.70307523 0 0)
(0.66856881 0 0)
(0.63242393 0 0)
(0.59450512 0 0)
(0.5547615 0 0)
(0.51295736 0 0)
(0.4687751 0 0)
(0.42213276 0 0)
(0.37279173 0 0)
(0.32037873 0 0)
(0.26459871 0 0)
(0.20509589 0 0)
(0.14149281 0 0)
(0.073239708 0 0)
(0 0 0)
(1.3926193 0 0)
(1.3825643 0 0)
(1.3719627 0 0)
(1.3608122 0 0)
(1.3491198 0 0)
(1.3368929 0 0)
(1.3241409 0 0)
(1.3108738 0 0)
(1.2970986 0 0)
(1.282814 0 0)
(1.2680159 0 0)
(1.2527034 0 0)
(1.2368792 0 0)
(1.2205458 0 0)
(1.2037043 0 0)
(1.1863561 0 0)
(1.1685018 0 0)
(1.1501354 0 0)
(1.1312423 0 0)
(1.111813 0 0)
(1.0918345 0 0)
(1.071286 0 0)
(1.0501432 0 0)
(1.0283841 0 0)
(1.0059866 0 0)
(0.98292252 0 0)
(0.95914167 0 0)
(0.93457694 0 0)
(0.9091741 0 0)
(0.88289838 0 0)
(0.8557203 0 0)
(0.82757295 0 0)
(0.79834676 0 0)
(0.76790533 0 0)
(0.73615671 0 0)
(0.70308242 0 0)
(0.66857574 0 0)
(0.63242966 0 0)
(0.59450798 0 0)
(0.55476233 0 0)
(0.51295759 0 0)
(0.46877125 0 0)
(0.42212599 0 0)
(0.37278632 0 0)
(0.3203771 0 0)
(0.26460186 0 0)
(0.2051012 0 0)
(0.14149712 0 0)
(0.073241639 0 0)
(0 0 0)
(1.392648 0 0)
(1.382664 0 0)
(1.3721281 0 0)
(1.3610377 0 0)
(1.3493994 0 0)
(1.3372209 0 0)
(1.3245122 0 0)
(1.3112835 0 0)
(1.2975407 0 0)
(1.2832825 0 0)
(1.2685051 0 0)
(1.2532086 0 0)
(1.2373958 0 0)
(1.2210697 0 0)
(1.2042324 0 0)
(1.1868861 0 0)
(1.169031 0 0)
(1.1506606 0 0)
(1.1317626 0 0)
(1.1123279 0 0)
(1.0923431 0 0)
(1.0717872 0 0)
(1.0506357 0 0)
(1.0288664 0 0)
(1.0064583 0 0)
(0.98338459 0 0)
(0.95959509 0 0)
(0.9350213 0 0)
(0.90960764 0 0)
(0.88332253 0 0)
(0.85613498 0 0)
(0.827978 0 0)
(0.79874297 0 0)
(0.76829282 0 0)
(0.73653387 0 0)
(0.70344796 0 0)
(0.66892908 0 0)
(0.63276856 0 0)
(0.59482876 0 0)
(0.55506407 0 0)
(0.51324046 0 0)
(0.46902959 0 0)
(0.42235769 0 0)
(0.37299346 0 0)
(0.32056137 0 0)
(0.26476144 0 0)
(0.20522913 0 0)
(0.14158685 0 0)
(0.073288051 0 0)
(0 0 0)
(1.3927661 0 0)
(1.3829023 0 0)
(1.3724781 0 0)
(1.3614904 0 0)
(1.3499456 0 0)
(1.3378518 0 0)
(1.3252191 0 0)
(1.3120577 0 0)
(1.2983733 0 0)
(1.284164 0 0)
(1.2694276 0 0)
(1.2541648 0 0)
(1.2383785 0 0)
(1.2220724 0 0)
(1.20525 0 0)
(1.1879141 0 0)
(1.1700644 0 0)
(1.1516948 0 0)
(1.1327948 0 0)
(1.1133556 0 0)
(1.0933637 0 0)
(1.0727986 0 0)
(1.0516356 0 0)
(1.0298519 0 0)
(1.0074279 0 0)
(0.98433833 0 0)
(0.96053317 0 0)
(0.93594257 0 0)
(0.91050938 0 0)
(0.8842054 0 0)
(0.85699856 0 0)
(0.82882133 0 0)
(0.79956585 0 0)
(0.76909463 0 0)
(0.7373124 0 0)
(0.70420134 0 0)
(0.66965561 0 0)
(0.63346469 0 0)
(0.59548991 0 0)
(0.55568767 0 0)
(0.51382411 0 0)
(0.46956662 0 0)
(0.42284279 0 0)
(0.37342548 0 0)
(0.32094152 0 0)
(0.26508538 0 0)
(0.20548597 0 0)
(0.14176607 0 0)
(0.073380806 0 0)
(0 0 0)
(1.3929701 0 0)
(1.3832755 0 0)
(1.3730089 0 0)
(1.3621666 0 0)
(1.3507549 0 0)
(1.3387817 0 0)
(1.3262575 0 0)
(1.3131924 0 0)
(1.2995918 0 0)
(1.2854544 0 0)
(1.2707791 0 0)
(1.255568 0 0)
(1.239824 0 0)
(1.2235512 0 0)
(1.2067542 0 0)
(1.1894369 0 0)
(1.171599 0 0)
(1.153235 0 0)
(1.1343357 0 0)
(1.1148927 0 0)
(1.0948931 0 0)
(1.0743169 0 0)
(1.0531392 0 0)
(1.0313365 0 0)
(1.0088913 0 0)
(0.98577971 0 0)
(0.96195162 0 0)
(0.93733586 0 0)
(0.91187485 0 0)
(0.88554249 0 0)
(0.85830571 0 0)
(0.83009746 0 0)
(0.80081042 0 0)
(0.7703057 0 0)
(0.73848679 0 0)
(0.70533704 0 0)
(0.67075028 0 0)
(0.63451317 0 0)
(0.59648606 0 0)
(0.55662775 0 0)
(0.51470415 0 0)
(0.47037783 0 0)
(0.42357675 0 0)
(0.37407896 0 0)
(0.32151478 0 0)
(0.26557116 0 0)
(0.20586948 0 0)
(0.14203332 0 0)
(0.073519385 0 0)
(0 0 0)
(1.3932584 0 0)
(1.3837814 0 0)
(1.3737179 0 0)
(1.3630636 0 0)
(1.3518244 0 0)
(1.3400079 0 0)
(1.3276247 0 0)
(1.3146849 0 0)
(1.3011933 0 0)
(1.2871499 0 0)
(1.2725567 0 0)
(1.2574161 0 0)
(1.2417306 0 0)
(1.2255045 0 0)
(1.2087437 0 0)
(1.1914529 0 0)
(1.1736326 0 0)
(1.1552784 0 0)
(1.1363827 0 0)
(1.1169363 0 0)
(1.0969277 0 0)
(1.0763381 0 0)
(1.055142 0 0)
(1.0333159 0 0)
(1.0108436 0 0)
(0.98770325 0 0)
(0.96384479 0 0)
(0.93919563 0 0)
(0.91369768 0 0)
(0.88732709 0 0)
(0.86005013 0 0)
(0.83179991 0 0)
(0.80246941 0 0)
(0.77191868 0 0)
(0.74005019 0 0)
(0.70684832 0 0)
(0.67220593 0 0)
(0.63590675 0 0)
(0.59781069 0 0)
(0.55787844 0 0)
(0.51587419 0 0)
(0.47145757 0 0)
(0.42455491 0 0)
(0.37494941 0 0)
(0.32227707 0 0)
(0.26621547 0 0)
(0.20637718 0 0)
(0.14238675 0 0)
(0.073702634 0 0)
(0 0 0)
(1.3936292 0 0)
(1.384418 0 0)
(1.3746026 0 0)
(1.3641787 0 0)
(1.353151 0 0)
(1.3415273 0 0)
(1.3293177 0 0)
(1.3165321 0 0)
(1.3031743 0 0)
(1.2892479 0 0)
(1.2747575 0 0)
(1.2597071 0 0)
(1.2440972 0 0)
(1.227931 0 0)
(1.2112162 0 0)
(1.1939596 0 0)
(1.1761627 0 0)
(1.1578225 0 0)
(1.138932 0 0)
(1.1194827 0 0)
(1.0994639 0 0)
(1.0788578 0 0)
(1.0576391 0 0)
(1.0357843 0 0)
(1.013279 0 0)
(0.99010284 0 0)
(0.96620584 0 0)
(0.94151462 0 0)
(0.91597087 0 0)
(0.88955149 0 0)
(0.86222321 0 0)
(0.83391997 0 0)
(0.8045345 0 0)
(0.77392497 0 0)
(0.74199341 0 0)
(0.70872608 0 0)
(0.67401406 0 0)
(0.63763698 0 0)
(0.59945503 0 0)
(0.55943101 0 0)
(0.51732661 0 0)
(0.47279802 0 0)
(0.42577014 0 0)
(0.37603128 0 0)
(0.32322353 0 0)
(0.26701385 0 0)
(0.20700539 0 0)
(0.14282394 0 0)
(0.073929437 0 0)
(0 0 0)
(1.3940788 0 0)
(1.385181 0 0)
(1.3756586 0 0)
(1.3655069 0 0)
(1.354729 0 0)
(1.3433338 0 0)
(1.3313315 0 0)
(1.3187305 0 0)
(1.3055328 0 0)
(1.2917459 0 0)
(1.2773812 0 0)
(1.2624417 0 0)
(1.246924 0 0)
(1.2308293 0 0)
(1.2141696 0 0)
(1.1969548 0 0)
(1.1791863 0 0)
(1.1608635 0 0)
(1.1419804 0 0)
(1.1225274 0 0)
(1.1024964 0 0)
(1.0818707 0 0)
(1.0606243 0 0)
(1.0387351 0 0)
(1.01619 0 0)
(0.99297044 0 0)
(0.96902656 0 0)
(0.94428437 0 0)
(0.91868498 0 0)