/*--------------------------------*- C++ -*----------------------------------*\
| =========                 |                                                 |
| \\      /  F ield         | OpenFOAM: The Open Source CFD Toolbox           |
|  \\    /   O peration     | Version:  v2012                                 |
|   \\  /    A nd           | Website:  www.openfoam.com                      |
|    \\/     M anipulation  |                                                 |
\*---------------------------------------------------------------------------*/
FoamFile
{
    version     2.0;
    format      ascii;
    class       volVectorField;
    location    "15.7997241758257";
    object      U;
}
// * * * * * * * * * * * * * * * * * * * * * * * * * * * * * * * * * * * * * //

dimensions      [0 1 -1 0 0 0 0];


internalField   nonuniform List<vector> 
9200
(
(2.5398009 -0.0016493503 -9.7937595e-22)
(2.5395007 -0.0053854125 4.5179344e-24)
(2.544607 -0.0017549939 -9.8827825e-22)
(2.5391077 -0.0084608689 4.7155068e-22)
(2.5443581 -0.00585911 -1.1313408e-21)
(2.5471876 -0.001800377 7.3658004e-24)
(2.5384818 -0.011737477 -1.9004824e-21)
(2.5440007 -0.0091765477 -1.2544321e-21)
(2.5469677 -0.0060614813 -2.2850693e-21)
(2.5504845 -0.0018462256 -1.9425532e-21)
(2.5377602 -0.014580666 4.9691912e-25)
(2.5434674 -0.012746933 3.530871e-22)
(2.5466323 -0.0094756283 -2.8879851e-21)
(2.5502965 -0.0062752535 -2.6689114e-21)
(2.5535756 -0.0018842642 2.9873417e-21)
(2.5369144 -0.017501938 -1.3044161e-21)
(2.5428353 -0.015828669 0)
(2.5461395 -0.013168061 -1.3751415e-21)
(2.5499924 -0.009794497 1.2893197e-21)
(2.5534173 -0.0064567492 5.5413517e-21)
(2.5566968 -0.0019212105 -3.6143198e-21)
(2.5360023 -0.020190173 9.2070144e-22)
(2.5421373 -0.01898784 7.5444327e-22)
(2.5455466 -0.016338972 -5.0590733e-23)
(2.5495478 -0.013625873 -3.5715084e-21)
(2.5531509 -0.010069214 2.9814433e-21)
(2.5565706 -0.0066429546 4.0446564e-21)
(2.559781 -0.0019593938 -8.6824659e-21)
(2.5350282 -0.022882915 -4.8347063e-23)
(2.5413976 -0.021875618 8.9470763e-22)
(2.5448935 -0.019574381 -1.0209229e-22)
(2.5489944 -0.016904342 4.5721997e-22)
(2.5527532 -0.014032491 -8.1741806e-22)
(2.5563562 -0.010358902 1.0394086e-21)
(2.559695 -0.0068496797 1.986616e-22)
(2.5628558 -0.0019989868 6.1266575e-21)
(2.5340238 -0.025488221 3.908131e-22)
(2.540668 -0.024739665 -1.5687314e-21)
(2.5442035 -0.022499918 1.0965261e-21)
(2.5483784 -0.020236624 -3.2889264e-21)
(2.5522299 -0.017423817 2.0433211e-21)
(2.5560178 -0.01447335 -2.4775646e-21)
(2.5595508 -0.010688357 -2.965357e-21)
(2.5628243 -0.0070812658 -3.2480533e-22)
(2.5659203 -0.0020366608 3.2668034e-21)
(2.5329974 -0.028102236 -1.9149892e-21)
(2.5399806 -0.027480551 8.1383765e-22)
(2.5435358 -0.025355306 -5.6443702e-22)
(2.5477114 -0.023217383 -1.005416e-21)
(2.5516226 -0.020866712 -2.7632326e-21)
(2.5555336 -0.018011953 -3.7979264e-22)
(2.559295 -0.014981837 7.4912438e-22)
(2.562771 -0.011062906 -3.9350926e-21)
(2.5659621 -0.0073213638 -3.4827037e-21)
(2.5689701 -0.0020664711 1.901648e-22)
(2.5319641 -0.030729441 3.6562464e-22)
(2.5393788 -0.030195566 -3.6384419e-22)
(2.5429344 -0.028025549 1.6465923e-22)
(2.5470583 -0.026072126 1.23058e-21)
(2.5509235 -0.023927275 -1.9968371e-21)
(2.554933 -0.021616883 4.143811e-21)
(2.558876 -0.018712443 -3.1101906e-21)
(2.5626313 -0.015561844 8.2727915e-21)
(2.5660202 -0.011454433 -2.7027403e-21)
(2.5691054 -0.0075380931 3.8415287e-21)
(2.5719855 -0.0020814427 8.6472919e-21)
(2.5309223 -0.033418526 1.358945e-22)
(2.5388997 -0.032902407 -1.5025278e-22)
(2.5424628 -0.030592317 1.4842103e-21)
(2.5464667 -0.028658736 -6.1479492e-22)
(2.550189 -0.026811711 2.1975642e-22)
(2.5541792 -0.024832569 -9.0766675e-22)
(2.5583072 -0.022545604 3.576049e-21)
(2.5623216 -0.019526254 1.4535672e-21)
(2.5660363 -0.016169027 -1.8770506e-22)
(2.569293 -0.011809997 3.3209306e-21)
(2.5722315 -0.0076944931 -2.8061009e-21)
(2.5749361 -0.00207538 -2.788153e-22)
(2.5298751 -0.036198113 2.6678139e-23)
(2.5385669 -0.035655028 1.8465866e-22)
(2.5421791 -0.033069377 -6.4251199e-22)
(2.5460161 -0.031034205 4.0277442e-22)
(2.5494585 -0.029345152 -1.0075206e-21)
(2.5533071 -0.027847303 -3.6771992e-22)
(2.5575157 -0.026016228 -3.4144049e-22)
(2.5618405 -0.023650506 -1.5395323e-21)
(2.5658921 -0.020388837 6.7312682e-22)
(2.5695048 -0.01672407 -4.2763241e-21)
(2.5725635 -0.012068762 7.0888819e-21)
(2.5753045 -0.0077600734 -3.6738015e-21)
(2.5777861 -0.0020442303 -4.0402227e-21)
(2.5288057 -0.039107135 -7.1966336e-22)
(2.5384194 -0.038517995 -2.4808323e-22)
(2.542142 -0.035487066 -3.3130953e-22)
(2.5457787 -0.033186486 -1.1696431e-22)
(2.5488071 -0.031554395 3.0214211e-22)
(2.5523301 -0.030458748 1.2150445e-21)
(2.5565048 -0.02930397 -2.2759315e-22)
(2.5610776 -0.027475067 1.157507e-21)
(2.5655784 -0.024841098 2.1809624e-21)
(2.5695862 -0.021188763 -2.4595075e-21)
(2.5730054 -0.017137173 4.6538234e-21)
(2.5757915 -0.012180623 -2.4381441e-21)
(2.5782818 -0.0077181334 1.3307413e-21)
(2.5805001 -0.0019867018 -1.9510269e-21)
(2.5276952 -0.042166632 9.3332322e-22)
(2.5384507 -0.04154351 -7.1109844e-22)
(2.5424284 -0.037938042 -6.667151e-22)
(2.5458598 -0.035099957 -9.4391379e-22)
(2.5483108 -0.033368856 3.8400694e-22)
(2.551296 -0.03265855 0)
(2.5552451 -0.032193965 7.2624982e-22)
(2.560001 -0.031186116 3.2966253e-22)
(2.5649523 -0.029086572 8.1652708e-22)
(2.569531 -0.025964149 3.2226177e-21)
(2.5733668 -0.021800887 5.5961034e-22)
(2.5764878 -0.017334754 -2.9155235e-21)
(2.5789292 -0.012118145 3.9632913e-21)
(2.5811217 -0.0075671753 1.8156857e-21)
(2.5830483 -0.0019040978 4.4711193e-21)
(2.5265236 -0.045401013 -3.2608908e-22)
(2.5386604 -0.044805051 -6.0436137e-22)
(2.5430666 -0.040430674 7.3090512e-22)
(2.5463498 -0.036891523 -1.9791506e-21)
(2.5481032 -0.034735298 1.4178566e-21)
(2.5502683 -0.034305924 8.764201e-22)
(2.5537379 -0.034644915 5.3033765e-22)
(2.5585309 -0.034576914 -8.925274e-22)
(2.563952 -0.033333616 -3.1020919e-21)
(2.569174 -0.030642179 7.7110594e-22)
(2.5736563 -0.026847472 -1.6548557e-21)
(2.5771695 -0.022122321 6.232983e-22)
(2.5798919 -0.017276646 -4.3775765e-21)
(2.5819304 -0.011879014 -7.8556522e-22)
(2.58379 -0.0073176839 -2.8244686e-22)
(2.5854087 -0.0017995813 1.6752287e-21)
(2.5252594 -0.048823754 8.3338305e-22)
(2.5390403 -0.048356525 1.1975302e-21)
(2.5441081 -0.043106221 4.7735034e-22)
(2.5473329 -0.038463019 -2.9772403e-22)
(2.5482377 -0.035739774 -5.3492509e-22)
(2.5493485 -0.035360719 5.3806909e-22)
(2.5520019 -0.036482758 -2.9814532e-22)
(2.5566123 -0.037597356 1.537014e-21)
(2.5624517 -0.037405444 -7.2060111e-22)
(2.5684373 -0.035464969 -1.7867226e-21)
(2.5737004 -0.031904451 1.9422171e-21)
(2.5778701 -0.027347682 -2.9776395e-21)
(2.5809143 -0.022096135 1.5420811e-21)
(2.5831583 -0.016959893 1.6457285e-21)
(2.5847566 -0.011480944 -7.0715956e-21)
(2.5862628 -0.0069868501 6.1277134e-22)
(2.5875683 -0.0016772272 -6.7662641e-21)
(2.523872 -0.052440242 -2.0520182e-22)
(2.5395544 -0.052262018 -9.1677092e-22)
(2.5455763 -0.046007186 -1.0131263e-21)
(2.5489535 -0.040032493 3.7978965e-21)
(2.5488587 -0.036172951 -3.0857e-21)
(2.5485767 -0.03569757 1.5716456e-21)
(2.5500567 -0.037648222 1.0229523e-22)
(2.5541907 -0.040083865 6.5550204e-22)
(2.5603417 -0.041275489 -4.7992854e-22)
(2.5671651 -0.040305197 -2.3893263e-21)
(2.5734246 -0.037251761 2.8724834e-21)
(2.5784221 -0.032670782 9.8640944e-22)
(2.5820617 -0.027382844 0)
(2.5845207 -0.021717402 -1.7612847e-21)
(2.586238 -0.016411656 -2.2865885e-21)
(2.5873808 -0.010953089 -2.8894135e-21)
(2.5885265 -0.0065935147 2.4933752e-21)
(2.5895213 -0.0015412163 0)
(2.5223279 -0.056250256 -5.1282473e-22)
(2.5401628 -0.056564784 -1.1818368e-22)
(2.5474834 -0.049248548 1.6535613e-21)
(2.5512438 -0.041579083 4.6770966e-22)
(2.5502487 -0.036245497 -2.8235354e-21)
(2.5481947 -0.035250191 0)
(2.5479835 -0.037771496 6.7288682e-22)
(2.551207 -0.041898926 -5.3722345e-22)
(2.5574919 -0.044811797 1.1241829e-21)
(2.5652078 -0.045187959 -4.7537723e-22)
(2.5726672 -0.042822551 -7.2860796e-22)
(2.5787753 -0.038403879 2.1096522e-21)
(2.5831835 -0.032819264 -1.2472863e-21)
(2.5861155 -0.026942649 2.3025483e-21)
(2.5879206 -0.021024484 -3.6825802e-21)
(2.5890967 -0.015676823 2.3159868e-21)
(2.5897883 -0.010327628 5.7392315e-23)
(2.5905765 -0.006154578 -5.4778758e-21)
(2.5912673 -0.0013952704 2.9256242e-23)
(2.5205944 -0.060244382 7.543819e-22)
(2.5408135 -0.061306481 -3.3661533e-22)
(2.5498223 -0.052908381 -2.3722066e-21)
(2.554308 -0.043244782 1.0626187e-22)
(2.5523921 -0.035877729 2.8395603e-21)
(2.5482386 -0.033914629 -2.9737466e-21)
(2.5458723 -0.037100964 1.5022224e-21)
(2.5476896 -0.042810003 6.6020164e-22)
(2.5537731 -0.047875813 -1.6309132e-21)
(2.5623793 -0.050041038 7.5486261e-22)
(2.5712678 -0.048710342 -8.5048924e-22)
(2.5787899 -0.044538759 1.2252216e-21)
(2.5842712 -0.038734896 -2.8494116e-23)
(2.5878138 -0.032326329 -7.1456418e-22)
(2.5899304 -0.026078897 1.5616504e-21)
(2.5910666 -0.020082503 1.0754096e-21)
(2.5917169 -0.014805455 1.5239947e-21)
(2.5919747 -0.009633558 1.9674566e-21)
(2.5924147 -0.0056830007 4.4065356e-22)
(2.5928096 -0.0012423146 3.7102016e-21)
(2.5186416 -0.06440969 -1.0916233e-21)
(2.5414473 -0.066510152 2.0123928e-22)
(2.5525711 -0.057078202 -4.1950766e-21)
(2.5582031 -0.045123598 4.4528217e-23)
(2.5554829 -0.035154623 5.2682471e-21)
(2.5489788 -0.031702285 -3.0161475e-21)
(2.5437886 -0.035092469 1.1288553e-21)
(2.5436035 -0.042666075 -1.2708493e-22)
(2.549072 -0.050294828 5.6610602e-22)
(2.5584819 -0.054788873 -1.2925271e-21)
(2.5690181 -0.054929004 8.6822374e-22)
(2.5783311 -0.051239336 -2.1298362e-21)
(2.5852326 -0.045164706 4.4675296e-21)
(2.5896589 -0.038192709 -4.7042806e-21)
(2.5921576 -0.031258273 -5.092135e-22)
(2.5934346 -0.024884423 8.0361594e-22)
(2.5939355 -0.018965666 -6.2052889e-23)
(2.5940962 -0.013843104 2.87696e-21)
(2.5939439 -0.0088932432 -4.2232095e-21)
(2.594047 -0.0051871149 3.6394755e-21)
(2.5941556 -0.0010845601 -2.4352507e-22)
(2.5164414 -0.06872561 9.7492922e-23)
(2.5420002 -0.072188137 8.0685344e-22)
(2.5556885 -0.06183698 4.761323e-21)
(2.5629752 -0.047330235 -3.174403e-21)
(2.5596521 -0.034150483 1.2606444e-21)
(2.5505452 -0.028536628 -1.336063e-21)
(2.5419295 -0.031793195 -8.757565e-22)
(2.5389354 -0.041197836 1.3584953e-21)
(2.5432663 -0.051837916 -2.8180527e-22)
(2.5532962 -0.059316834 -8.0376013e-22)
(2.5656805 -0.061501742 6.0287181e-22)
(2.5772121 -0.058615588 0)
(2.5859942 -0.052327943 -1.7140737e-22)
(2.5916226 -0.044593002 5.3980442e-23)
(2.594696 -0.036855763 -3.5424914e-21)
(2.5960999 -0.029745568 2.9943348e-21)
(2.5965926 -0.023468723 -2.0633028e-21)
(2.5965265 -0.017742787 1.3339355e-21)
(2.596243 -0.012825065 -9.9812458e-22)
(2.5957047 -0.0081213384 6.8066688e-21)
(2.5954812 -0.0046713869 8.808397e-23)
(2.5953133 -0.00092396586 -3.9629534e-21)
(2.5139674 -0.07317121 5.1841892e-22)
(2.5424046 -0.078334639 8.5925864e-23)
(2.5591159 -0.067253089 4.9922013e-21)
(2.5686456 -0.049986255 1.1722407e-20)
(2.5650196 -0.032947441 -1.5325705e-21)
(2.5531156 -0.024431777 7.3929046e-22)
(2.5404284 -0.0270143 -1.2856197e-21)
(2.5337845 -0.038212931 -5.4056602e-22)
(2.536252 -0.052290293 -8.3077694e-22)
(2.5465995 -0.063466419 6.7497888e-22)
(2.5609785 -0.068417846 -1.1885072e-21)
(2.5752056 -0.066806071 8.0186523e-22)
(2.5864371 -0.060418632 -1.9541484e-21)
(2.5937206 -0.05177009 2.1348232e-21)
(2.5975851 -0.042905045 -1.2880748e-22)
(2.5991946 -0.034903973 -2.6478295e-21)
(2.5995812 -0.027949754 3.5513813e-21)
(2.599405 -0.021936294 -2.2550576e-21)
(2.5988564 -0.016467899 6.5103044e-22)
(2.5981732 -0.011774304 -6.8081706e-21)
(2.5972682 -0.0073254603 7.2713854e-21)
(2.5967259 -0.0041382011 1.1209765e-20)
(2.5962845 -0.0007620278 -7.0784905e-23)
(2.5111912 -0.077725341 1.7217607e-22)
(2.5425905 -0.084937866 3.061517e-21)
(2.5627781 -0.073378574 -6.6395657e-21)
(2.575213 -0.053208228 7.9763779e-21)
(2.5716808 -0.031645826 3.1933394e-21)
(2.5568597 -0.019411367 1.3883761e-21)
(2.5394628 -0.020658775 -9.526405e-22)
(2.5282279 -0.033482462 -1.1428084e-21)
(2.5279677 -0.051392059 -4.6266628e-22)
(2.5381752 -0.067053439 3.4478405e-22)
(2.55461 -0.075636067 -7.6965527e-22)
(2.572032 -0.075936862 -8.653473e-23)
(2.5864035 -0.069684998 -4.7288484e-22)
(2.5959418 -0.059967694 2.8441918e-21)
(2.6009406 -0.049628419 0)
(2.6028123 -0.040342082 -4.6457898e-21)
(2.6030495 -0.032574812 5.4818349e-21)
(2.6026005 -0.026030896 -2.7414788e-21)
(2.6019017 -0.020371137 -4.0346426e-21)
(2.6009534 -0.015176116 -6.0897202e-21)
(2.599905 -0.010702148 -7.5332523e-21)
(2.5986453 -0.006507864 4.2546087e-22)
(2.5977885 -0.0035883788 -7.7710188e-22)
(2.5970736 -0.0005987986 0)
(2.5080871 -0.082349022 0)
(2.5424906 -0.091954087 -2.9976024e-22)
(2.5665854 -0.080252132 5.4837815e-22)
(2.5826483 -0.057107123 -2.6643215e-20)
(2.5797116 -0.030346751 1.9941139e-21)
(2.5619307 -0.013506677 1.0690986e-20)
(2.5392119 -0.012662302 -1.1731119e-21)
(2.5223751 -0.026797087 -3.2442237e-23)
(2.5183789 -0.048881448 4.5657859e-22)
(2.5278182 -0.069852932 2.3221477e-22)
(2.5462562 -0.083070843 3.8346882e-22)
(2.5673623 -0.086115884 -6.2607788e-22)
(2.585677 -0.080394854 -1.1112254e-21)
(2.5982547 -0.069510588 2.4164566e-21)
(2.604882 -0.057265284 -3.6893083e-21)
(2.6071574 -0.046213277 1.3357584e-21)
(2.6071173 -0.037249634 -3.168241e-21)
(2.6062503 -0.030114627 1.0409141e-21)
(2.6052069 -0.024121699 5.2155725e-22)
(2.6041318 -0.018828609 7.1897562e-21)
(2.6028494 -0.013883802 5.7157232e-21)
(2.6014562 -0.0096105658 -4.5646744e-23)
(2.599846 -0.0056673027 5.1660846e-21)
(2.5986753 -0.0030202155 -1.4659728e-20)
(2.5977056 -0.00043408712 -1.4609959e-20)
(2.5046383 -0.08704892 2.7795043e-22)
(2.5420417 -0.099326482 9.1435862e-22)
(2.5704509 -0.087867988 -1.4477999e-21)
(2.5908994 -0.061780762 -2.0357384e-20)
(2.5891411 -0.02915876 -2.8160545e-21)
(2.5684661 -0.0067844318 -5.6526434e-21)
(2.5398574 -0.0029510907 -4.2775152e-23)
(2.5163564 -0.017983803 1.893847e-21)
(2.5074818 -0.04449095 -6.601776e-22)
(2.5153572 -0.071616674 -7.7175928e-22)
(2.5355952 -0.09059136 -2.6739941e-22)
(2.560823 -0.097415627 8.1864218e-22)
(2.5839754 -0.092824901 3.8836469e-21)
(2.6005796 -0.080781164 -5.2325269e-21)
(2.6095448 -0.066154512 1.3753843e-21)
(2.6124745 -0.052687468 0)
(2.6120434 -0.042018311 -2.9334437e-22)
(2.6104631 -0.034005836 -6.9288671e-22)
(2.6088717 -0.027735342 3.1768297e-21)
(2.6074832 -0.022311824 4.4600242e-21)
(2.6061519 -0.017334085 3.6336297e-21)
(2.6045751 -0.012591641 1.1880322e-22)
(2.6028418 -0.0084951227 1.901509e-20)
(2.6008789 -0.0048006711 -6.5245986e-21)
(2.5993916 -0.0024324962 -6.067706e-21)
(2.5981979 -0.00026862856 1.0261091e-21)
(2.5010945 -0.091764819 3.4083075e-22)
(2.5413003 -0.10710187 3.6768149e-21)
(2.5742856 -0.096289416 -7.0133794e-21)
(2.5999263 -0.067318766 1.2941474e-20)
(2.5999786 -0.028178965 3.5574422e-21)
(2.576534 0.00067672534 -2.1782516e-20)
(2.5415616 0.0084556551 1.598386e-21)
(2.510322 -0.0068757381 -1.9113487e-22)
(2.4953074 -0.037972841 4.5478063e-21)
(2.500658 -0.07207762 1.8301672e-22)
(2.5223219 -0.098020959 -1.5909292e-22)
(2.5520088 -0.10985794 -3.2697456e-22)
(2.5809453 -0.1072434 4.776083e-23)
(2.6027717 -0.094212507 -2.974678e-21)
(2.615051 -0.076727294 3.9483898e-21)
(2.6190722 -0.060032474 3.3735621e-21)
(2.6181574 -0.046921615 -3.7353575e-21)
(2.6155018 -0.037618357 4.0666678e-21)
(2.6129559 -0.030949569 -6.3870783e-22)
(2.6110488 -0.025584883 4.7537037e-21)
(2.6095271 -0.02064309 2.1538321e-21)
(2.6080162 -0.015886738 -4.4284343e-22)
(2.6061559 -0.01128916 -1.2592567e-20)
(2.6040729 -0.0073481126 -3.225156e-23)
(2.6017501 -0.0039044496 -4.7505014e-21)
(2.599944 -0.0018307383 -3.9700944e-21)
(2.5984902 -7.3141547e-05 1.5487981e-20)
(2.4976492 -0.096631014 0)
(2.5407136 -0.11509635 -3.8506016e-21)
(2.5783548 -0.105507 -6.9841077e-22)
(2.6097256 -0.073897372 1.0890893e-20)
(2.6123361 -0.027527425 -2.8630044e-22)
(2.5862055 0.0087797215 -1.1829878e-21)
(2.5444414 0.021519407 -1.276267e-21)
(2.50441 0.0066173608 -3.6274057e-21)
(2.4819209 -0.02909714 -5.1552505e-21)
(2.4836343 -0.070967599 1.5430858e-21)
(2.5061674 -0.10513977 -1.1120208e-21)
(2.5405006 -0.12340134 1.1524606e-21)
(2.5761621 -0.12388296 -3.4368047e-21)
(2.6046016 -0.11027656 1.4630225e-21)
(2.6214873 -0.08951042 2.7019705e-21)
(2.6273001 -0.068622794 1.5318265e-21)
(2.625899 -0.052070564 -2.7073031e-21)
(2.6217151 -0.040828714 5.6734424e-21)
(2.6176729 -0.033551917 -3.9514779e-21)
(2.6148088 -0.028325912 5.5853596e-21)
(2.6129453 -0.023735138 -6.7872047e-21)
(2.6114332 -0.019113737 1.573463e-21)
(2.6097692 -0.014466309 8.75163e-22)
(2.6076093 -0.0099595799 5.8356233e-21)
(2.6051565 -0.0061612529 -2.3198407e-20)
(2.6024629 -0.0029757726 1.6600173e-20)
(2.6003427 -0.0012208292 1.8131592e-20)
(2.5986321 0.00015567694 7.6441431e-21)
(2.4945903 -0.10154043 -3.3253849e-21)
(2.5404604 -0.12325012 -3.6388966e-23)
(2.5818424 -0.1152161 -6.0620941e-22)
(2.6200175 -0.08123675 8.9497084e-21)
(2.6265535 -0.027348426 -1.2230418e-20)
(2.5978485 0.017419945 3.2693527e-20)
(2.5486138 0.036228576 -9.9149701e-21)
(2.4987574 0.022554508 -1.0240613e-21)
(2.4674018 -0.017679131 -4.4928677e-21)
(2.464252 -0.068031004 -1.384427e-23)
(2.4869179 -0.11169629 4.8275374e-21)
(2.5258889 -0.13793014 -2.5688965e-21)
(2.5691406 -0.14291629 -7.8563569e-22)
(2.6057353 -0.12945368 9.7664577e-21)
(2.628878 -0.10513197 3.5661448e-21)
(2.637536 -0.078952138 -7.1685194e-21)
(2.6358048 -0.057662144 -7.4873303e-23)
(2.6295888 -0.043535084 -1.7970944e-21)
(2.6233158 -0.035255187 1.3059344e-21)
(2.6188821 -0.030222677 -4.9535591e-21)
(2.6162885 -0.02625982 7.1816309e-21)
(2.6147225 -0.022185992 -6.6163719e-21)
(2.6132803 -0.017688495 -7.9318118e-21)
(2.6114421 -0.013040869 -1.3898834e-21)
(2.6089448 -0.0085841952 8.2284184e-21)
(2.6060963 -0.0049273478 1.0926204e-20)
(2.6030195 -0.0020135126 -1.5969355e-20)
(2.6005984 -0.00059298078 -9.2860222e-21)
(2.5986519 0.00034161888 -4.7599508e-22)
(2.4925113 -0.10669467 9.9479606e-21)
(2.5415802 -0.13141209 1.0991168e-21)
(2.5848928 -0.12482366 0)
(2.6263987 -0.089268141 -1.1825848e-21)
(2.6397472 -0.027885806 -3.6680544e-20)
(2.6124667 0.026391619 1.3541439e-20)
(2.5548173 0.052501582 -1.0234289e-20)
(2.493496 0.040995212 9.946804e-22)
(2.4518513 -0.003588798 1.1779058e-20)
(2.442528 -0.063038897 -2.3624106e-21)
(2.4644319 -0.1174202 -8.325658e-21)
(2.5078017 -0.15325237 -2.6844748e-21)
(2.5593482 -0.16442875 -4.1334747e-21)
(2.6057293 -0.15220756 1.7676498e-21)
(2.637147 -0.12429925 5.1747664e-21)
(2.6501648 -0.09166428 -3.3344782e-21)
(2.648517 -0.063991173 5.2822974e-21)
(2.6397407 -0.045667184 -3.0947055e-21)
(2.630315 -0.035737904 5.90025e-21)
(2.6234436 -0.030858317 -1.3028259e-21)
(2.6195539 -0.02784603 -1.2797604e-21)
(2.6176629 -0.024758285 -2.1614473e-21)
(2.6165163 -0.020880384 5.1720867e-21)
(2.6151236 -0.016311016 -4.1101804e-21)
(2.6130509 -0.011574039 1.5456936e-20)
(2.6101646 -0.0071458437 9.9668215e-22)
(2.6068924 -0.0036412333 -1.0170145e-20)
(2.6034213 -0.0010198361 -2.1283288e-20)
(2.6007123 6.3462161e-05 -1.1343805e-21)
(2.5985355 0.00052207711 -7.8691869e-21)
(2.4909445 -0.11232447 4.4089955e-21)
(2.5439622 -0.13963593 -1.5156191e-20)
(2.5895138 -0.13402352 -1.2289741e-20)
(2.6290444 -0.09634517 -8.9257885e-21)
(2.6432155 -0.029683308 7.1711314e-20)
(2.6296999 0.035134649 -3.040826e-20)
(2.5642899 0.070023139 2.2322744e-20)
(2.4894035 0.061903126 -6.6037951e-22)
(2.4353673 0.013269542 5.0688169e-21)
(2.4185272 -0.055812827 -1.5757551e-20)
(2.4386576 -0.12204115 -1.1217618e-20)
(2.4859365 -0.16910115 7.0643644e-21)
(2.5462343 -0.18839444 9.5805855e-21)
(2.6040157 -0.1789435 -9.4124224e-21)
(2.6460922 -0.14779436 -2.0290154e-20)
(2.6655369 -0.10755021 8.4416985e-21)
(2.6647712 -0.07150113 -6.8230579e-21)
(2.6529482 -0.047192445 -1.6487819e-21)
(2.6392326 -0.034642469 -3.4792855e-21)
(2.6287796 -0.029733704 1.4356474e-21)
(2.6227592 -0.028002802 -3.4801063e-21)
(2.6201214 -0.026446113 1.1869692e-20)
(2.61916 -0.023733161 -8.6810388e-21)
(2.6184238 -0.019724316 1.5824063e-21)
(2.6169927 -0.014915933 8.7151053e-21)
(2.6145983 -0.010030858 -1.3766039e-20)
(2.6112655 -0.005631203 -2.5232204e-21)
(2.6075429 -0.0023005568 1.5144485e-20)
(2.6036696 8.9691024e-07 1.5468226e-20)
(2.6006774 0.00074126905 2.0973508e-20)
(2.5982876 0.00075005483 1.9951098e-20)
(2.4900951 -0.11860801 -1.9306745e-20)
(2.5455208 -0.14788039 -4.3194007e-20)
(2.5910627 -0.14185917 5.367072e-21)
(2.6266637 -0.1018921 -4.2237791e-20)
(2.6413856 -0.02914063 4.6075026e-20)
(2.6352373 0.044979476 2.7246659e-20)
(2.5707111 0.088968304 1.9832743e-20)
(2.4875432 0.085261536 -2.6726756e-21)
(2.4183504 0.032916403 4.6502547e-21)
(2.3923369 -0.046226905 4.9761145e-21)
(2.4096262 -0.12531511 1.063182e-20)
(2.4600891 -0.18514872 -3.1624948e-21)
(2.5292614 -0.21465827 4.4517313e-21)
(2.5999263 -0.20997194 -2.107409e-21)
(2.6553393 -0.17642187 -1.2448003e-20)
(2.6839438 -0.12758007 -7.3723097e-21)
(2.6853818 -0.080784918 -6.6044349e-21)
(2.6701345 -0.048163751 -1.5399022e-21)
(2.6507945 -0.031580514 5.6315523e-21)
(2.6352769 -0.026259933 -2.6202148e-21)
(2.625994 -0.026127107 -3.8253078e-21)
(2.6219479 -0.026746049 -4.1581735e-21)
(2.6209565 -0.025890872 -5.324987e-22)
(2.6209445 -0.023033678 -6.1177382e-21)
(2.6204985 -0.018606787 2.0262073e-21)
(2.6188932 -0.013438855 -1.1288302e-21)
(2.6160756 -0.0083820422 -1.891674e-20)
(2.61224 -0.0040318701 7.7492967e-21)
(2.6080459 -0.00090588072 2.1373799e-20)
(2.603777 0.0010450955 1.2947015e-20)
(2.6005036 0.0014298887 -9.7616423e-21)
(2.5979162 0.00095122372 -6.6963743e-21)
(2.4895221 -0.12486591 7.5538339e-21)
(2.5452314 -0.15538875 2.4318334e-20)
(2.5869516 -0.1485552 1.2487875e-20)
(2.6179994 -0.10212395 2.3285682e-20)
(2.618423 -0.021570856 -6.159497e-20)
(2.5932519 0.0606395 1.3992433e-20)
(2.5476032 0.11198896 -7.3349598e-21)
(2.4791344 0.11154054 6.6514945e-22)
(2.4015687 0.055609416 -4.8943052e-21)
(2.3640762 -0.034237076 2.6546502e-20)
(2.377428 -0.12700766 5.4110435e-21)
(2.4301467 -0.20101022 -4.52219e-21)
(2.5079185 -0.24291368 -2.3619087e-21)
(2.5926786 -0.24547165 -5.1185243e-21)
(2.6643365 -0.21099474 1.9102337e-20)
(2.7055589 -0.15286421 -1.1904479e-20)
(2.7112426 -0.092643487 1.6532927e-20)
(2.692413 -0.048688661 -6.4477632e-21)
(2.665876 -0.026137621 8.1298709e-21)
(2.6434419 -0.019757434 -7.2203462e-21)
(2.6293992 -0.021500826 1.1799438e-21)
(2.6230224 -0.025032454 3.9767193e-21)
(2.6215997 -0.02689245 3.6758972e-21)
(2.6223291 -0.025945064 -4.9522373e-21)
(2.6231103 -0.022479206 -2.6837806e-21)
(2.6227535 -0.017416589 -2.0378079e-21)
(2.6208103 -0.011823624 -8.90452e-23)
(2.6174664 -0.0066065765 -5.1928994e-21)
(2.6130771 -0.0023446838 -8.5093163e-21)
(2.6084013 0.00053904783 -2.0792357e-20)
(2.6037509 0.0021103716 -5.4926371e-21)
(2.6002054 0.0021183915 4.938657e-22)
(2.5974222 0.0011395103 -2.6045215e-20)
(2.4893341 -0.13066718 -1.0841065e-21)
(2.5418807 -0.16153144 5.5276966e-20)
(2.5756604 -0.1535505 2.2179613e-21)
(2.5964188 -0.098832619 3.825634e-20)
(2.5750399 -0.0056241224 -1.5550422e-21)
(2.5170109 0.085543034 -1.0362127e-20)
(2.4646079 0.14000436 1.578139e-21)
(2.434283 0.14002201 1.1170483e-20)
(2.3805002 0.081326259 -4.4715513e-21)
(2.3340613 -0.019634302 -1.2125501e-21)
(2.3422023 -0.12698196 -9.8445657e-22)
(2.3961275 -0.21627534 -1.8208974e-21)
(2.4817592 -0.27269583 -1.0059906e-20)
(2.5813799 -0.28541752 -1.49107e-20)
(2.6722557 -0.25225406 -6.5088576e-21)
(2.7303791 -0.18470431 -2.9635725e-21)
(2.7432928 -0.10808944 -7.2971508e-23)
(2.7210662 -0.048984759 0)
(2.6855941 -0.017836958 4.7889774e-21)
(2.6538957 -0.0093995595 -2.8672979e-21)
(2.6331707 -0.013278501 -9.0916087e-22)
(2.6232285 -0.020567234 -2.5215564e-21)
(2.6207804 -0.026160207 -4.5859386e-21)
(2.6221435 -0.028081158 4.7802795e-21)
(2.624396 -0.026323845 2.337457e-21)
(2.6256843 -0.021886768 8.674793e-21)
(2.6251673 -0.016054523 -4.3939321e-21)
(2.6227148 -0.0100269 4.3467056e-21)
(2.6187492 -0.0046924999 6.4806713e-21)
(2.6137661 -0.00057210153 -2.537737e-21)
(2.6086057 0.0020245953 -6.529987e-22)
(2.6035894 0.0031888737 1.2282642e-20)
(2.5997874 0.0027988481 -1.3138641e-20)
(2.5968286 0.0013263295 2.5057951e-20)
(2.4867708 -0.13554971 2.8899499e-21)
(2.5332927 -0.16575993 4.2973802e-20)
(2.5566328 -0.15457384 4.5824755e-21)
(2.5626469 -0.092472119 -9.8897311e-21)
(2.5268901 0.012808745 2.3340923e-22)
(2.4459209 0.11673498 -1.1713917e-20)
(2.3574801 0.17269557 1.7792901e-21)
(2.3344075 0.16742588 -9.0456241e-21)
(2.3359163 0.10792448 -8.7690382e-22)
(2.3020413 -0.0025536127 -6.3473043e-21)
(2.3041186 -0.1250957 9.1835409e-21)
(2.3582609 -0.23063996 2.1819637e-21)
(2.4506696 -0.30348309 -1.2590064e-21)
(2.5652905 -0.32965419 -1.5202613e-20)
(2.6781258 -0.3008274 -9.9351349e-21)
(2.7581395 -0.22443728 8.0906935e-21)
(2.7823938 -0.12841332 3.6417578e-20)
(2.7576478 -0.049471955 -4.8472748e-20)
(2.711194 -0.0060663373 -1.2044604e-20)
(2.6674055 0.005753024 -8.36661e-22)
(2.6375502 -0.00044963881 4.5126556e-21)
(2.6224421 -0.012487311 -3.3398824e-23)
(2.6181552 -0.023026803 3.509702e-21)
(2.6199268 -0.028964122 4.4723774e-21)
(2.6238286 -0.029874173 -2.4680677e-21)
(2.6272071 -0.026737337 -1.6652293e-21)
(2.6286376 -0.021091025 5.4219125e-21)
(2.627693 -0.014441041 3.9219183e-21)
(2.6245683 -0.0080202884 -6.0555338e-21)
(2.619899 -0.0026364117 7.5422856e-21)
(2.6143017 0.0012778949 9.7837471e-21)
(2.6086575 0.0035429331 -1.1598473e-20)
(2.6032964 0.0042737543 -1.5371558e-21)
(2.5992574 0.0034706723 2.2701075e-20)
(2.5961482 0.0015105077 4.6880492e-21)
(2.4827993 -0.13873586 -1.7268403e-21)
(2.5212996 -0.16724197 2.0010634e-20)
(2.5292103 -0.15087402 -3.6536457e-22)
(2.5179718 -0.080754809 -6.9912578e-21)
(2.4732123 0.031318866 -3.9202658e-20)
(2.3898405 0.14666696 -1.3832601e-20)
(2.2797403 0.20754393 1.7215613e-21)
(2.2152234 0.19315678 -1.3081121e-20)
(2.2490772 0.12937998 1.3294006e-21)
(2.2624881 0.015738336 7.5071829e-22)
(2.2637357 -0.1215052 -1.0888598e-21)
(2.317025 -0.24384411 -6.5139951e-21)
(2.4149191 -0.33486935 -1.3519993e-20)
(2.5442509 -0.37796623 5.7796639e-21)
(2.6813701 -0.35743458 2.558345e-20)
(2.7887407 -0.2737096 1.0061824e-20)
(2.8296123 -0.15505794 -6.6513228e-20)
(2.8036439 -0.050665079 1.4672963e-20)
(2.7440966 0.0094576188 -2.6466427e-20)
(2.6847904 0.026720011 2.6786521e-20)
(2.6427664 0.018120304 -2.310031e-20)
(2.6205182 0.00019440397 1.0825122e-20)
(2.6133311 -0.01672575 -4.6395258e-21)
(2.6151604 -0.028055916 -1.9670311e-21)
(2.6208398 -0.032783514 1.7907937e-21)
(2.6267385 -0.03182687 1.2726121e-21)
(2.6307244 -0.026922325 0)
(2.6318992 -0.019956668 -7.0347261e-21)
(2.6302671 -0.012520013 -3.7828051e-21)
(2.6263276 -0.0057901581 -9.3970369e-21)
(2.6208933 -0.0004433954 2.7537839e-21)
(2.614675 0.003195086 -1.7987107e-20)
(2.6085601 0.0050834128 -1.2210395e-20)
(2.6028773 0.0053581389 -1.1704772e-20)
(2.598624 0.004134932 4.0695786e-21)
(2.5953805 0.0016917589 -4.3229412e-21)
(2.4771032 -0.1401539 3.0698772e-21)
(2.5027789 -0.16608832 -1.1670158e-20)
(2.4940793 -0.14194284 -1.5053109e-21)
(2.4646159 -0.06479033 -3.4482304e-21)
(2.4132279 0.052322586 -3.0147271e-22)
(2.3432814 0.17172736 -4.8222792e-20)
(2.2402847 0.2397196 -3.1172148e-20)
(2.1354112 0.2188189 2.0774465e-20)
(2.1368043 0.14228384 -6.2684469e-22)
(2.2031339 0.029929345 1.6455275e-21)
(2.2217948 -0.11623452 2.2161457e-21)
(2.2731857 -0.25602139 -1.3896138e-21)
(2.375249 -0.36629222 -1.3804623e-20)
(2.5182123 -0.42991536 4.497786e-20)
(2.6811396 -0.42234356 1.3905159e-19)
(2.8218297 -0.33421023 -2.6526113e-20)
(2.8863626 -0.19044536 -6.0276538e-20)
(2.8616654 -0.053350304 5.4543041e-20)
(2.786208 0.02934743 3.5067381e-20)
(2.7068792 0.054739044 -2.7555199e-20)
(2.6490589 0.043710635 -2.8905871e-21)
(2.617215 0.018586704 9.3655815e-21)
(2.6058617 -0.0064178283 1.1639473e-22)
(2.6072625 -0.024749643 -3.947653e-21)
(2.6147941 -0.034671727 1.584596e-21)
(2.6236461 -0.036952737 2.1641338e-21)
(2.630822 -0.033535985 1.7766785e-22)
(2.6348441 -0.026661286 -1.3305076e-21)
(2.6353708 -0.018384372 2.8594913e-22)
(2.6328185 -0.010259443 -2.6209021e-21)
(2.6279477 -0.0033360782 1.1840636e-20)
(2.6217162 0.0018723214 5.2876567e-21)
(2.6148778 0.0051671818 2.9884521e-22)
(2.6083169 0.0066353955 7.1495164e-21)
(2.6023396 0.0064352157 6.766169e-21)
(2.5978959 0.0047887311 -3.506522e-20)
(2.5945374 0.0018685494 -1.058489e-21)
(2.4695169 -0.13925669 1.2908912e-20)
(2.4775897 -0.1610142 -2.9024522e-23)
(2.4525814 -0.12770175 -4.6616859e-21)
(2.4062942 -0.0450313 -2.6902563e-21)
(2.3495537 0.073385319 1.1161323e-20)
(2.295966 0.19308267 1.3848753e-20)
(2.2255174 0.2658364 -1.5027522e-20)
(2.1090515 0.24712176 5.0933974e-20)
(2.0456895 0.15168935 -2.874308e-20)
(2.1193462 0.036246102 4.187807e-20)
(2.176669 -0.11190924 1.4304672e-20)
(2.2275806 -0.26680193 5.9192839e-21)
(2.3325254 -0.39747337 -1.4463364e-20)
(2.4871057 -0.48426798 4.7606389e-20)
(2.6755014 -0.49426853 7.6813467e-20)
(2.8530094 -0.40543934 -8.6175287e-20)
(2.9499512 -0.23555292 1.2062082e-19)
(2.9329347 -0.059266177 1.0478215e-19)
(2.8407085 0.053915878 5.635972e-20)
(2.7353293 0.091285488 -2.0052623e-20)
(2.656593 0.077878438 5.4059625e-21)
(2.6122393 0.043879634 -1.6848995e-20)
(2.5951809 0.008799668 4.5063869e-21)
(2.5955899 -0.018419997 -1.5267346e-21)
(2.6049977 -0.035117808 -1.3521707e-21)
(2.6172313 -0.041900968 -4.8281805e-21)
(2.6282734 -0.040873642 1.0379416e-20)
(2.6359296 -0.034667275 -3.2488268e-21)
(2.6394194 -0.025791184 -6.1065333e-21)
(2.6389392 -0.016312017 6.5395111e-21)
(2.6352739 -0.0076495024 1.5072514e-20)
(2.6293888 -0.00067014862 1.1613283e-20)
(2.6223487 0.0042934923 6.9275428e-22)
(2.6149089 0.0071777559 6.5028646e-21)
(2.6079328 0.0081879947 1.3327313e-20)
(2.6016916 0.0074984945 -3.6203212e-23)
(2.5970824 0.0054280826 1.605543e-20)
(2.5936276 0.0020389316 1.9890315e-21)
(2.4590285 -0.135558 1.2402852e-20)
(2.445888 -0.15159833 -2.921852e-21)
(2.4061357 -0.10939626 1.0337015e-21)
(2.3471116 -0.022662275 9.1194349e-21)
(2.2875725 0.094320557 4.8767923e-21)
(2.247779 0.20932006 5.059911e-20)
(2.2115778 0.28593326 -2.8645853e-21)
(2.1217915 0.27716892 4.7641496e-20)