/*--------------------------------*- C++ -*----------------------------------*\
| =========                 |                                                 |
| \\      /  F ield         | OpenFOAM: The Open Source CFD Toolbox           |
|  \\    /   O peration     | Version:  v2012                                 |
|   \\  /    A nd           | Website:  www.openfoam.com                      |
|    \\/     M anipulation  |                                                 |
\*---------------------------------------------------------------------------*/
FoamFile
{
    version     2.0;
    format      ascii;
    class       surfaceVectorField;
    location    "15.7997241758257";
    object      Uf;
}
// * * * * * * * * * * * * * * * * * * * * * * * * * * * * * * * * * * * * * //

dimensions      [0 1 -1 0 0 0 0];


internalField   nonuniform List<vector> 
18180
(
(2.5396458 -0.0035844838 -4.7091561e-22)
(2.5425969 -0.0017030938 -9.8390514e-22)
(2.5392976 -0.006969974 2.458815e-22)
(2.5423248 -0.0056263074 -5.6955745e-22)
(2.5444784 -0.0038862587 -1.062211e-21)
(2.5457492 -0.0017780982 -4.8181069e-22)
(2.5387842 -0.010159086 -7.5433957e-22)
(2.5419524 -0.0088248192 -4.0655855e-22)
(2.5441734 -0.0075639203 -1.1949541e-21)
(2.5455145 -0.0059621482 -1.7182172e-21)
(2.5470739 -0.0040177503 -1.1773283e-21)
(2.548897 -0.0018236932 -9.8485298e-22)
(2.5381088 -0.013200682 -9.1803342e-22)
(2.5413808 -0.01225084 -7.4501543e-22)
(2.5437251 -0.011030391 -4.2365777e-22)
(2.5451665 -0.0093288226 -2.0933706e-21)
(2.5467944 -0.0078127098 -2.5966531e-21)
(2.5486937 -0.0061701973 -2.478905e-21)
(2.5503873 -0.0041547069 -2.3179227e-21)
(2.5520409 -0.0018655797 5.6506222e-22)
(2.5373231 -0.016095117 -6.7389852e-22)
(2.5407103 -0.015215352 2.441203e-25)
(2.5431407 -0.014330116 1.7060891e-22)
(2.5446515 -0.012961318 -5.2599723e-22)
(2.5463776 -0.01139471 -2.1061434e-21)
(2.5483746 -0.0096377908 -7.6309331e-22)
(2.5501393 -0.0080779651 -6.2332377e-22)
(2.5518682 -0.0063675935 1.5075407e-21)
(2.5534938 -0.0042710514 4.3072095e-21)
(2.5551625 -0.0019030589 -3.7088666e-22)
(2.536443 -0.018886116 -1.5444899e-22)
(2.5399524 -0.018257614 -2.570299e-22)
(2.5424746 -0.017468594 3.8990305e-22)
(2.5440356 -0.016088433 -2.5733316e-23)
(2.5458331 -0.014795075 -6.9060563e-22)
(2.5479073 -0.013400889 -2.4923711e-21)
(2.5497626 -0.011787192 -1.2227635e-21)
(2.5515834 -0.0099342641 2.1500775e-21)
(2.5532796 -0.0083049673 4.2184094e-21)
(2.5550208 -0.0065514717 4.7799906e-21)
(2.5566316 -0.004389275 3.4370641e-22)
(2.5582608 -0.0019406365 -6.1925028e-21)
(2.5354989 -0.021583868 4.1988747e-22)
(2.5391409 -0.021047327 9.0747809e-22)
(2.541755 -0.020473337 8.2693307e-22)
(2.5433555 -0.019286398 3.2916528e-22)
(2.5452091 -0.018018919 -7.7207113e-23)
(2.5473352 -0.016626503 2.0771634e-22)
(2.5492618 -0.015307337 -1.489442e-21)
(2.5511629 -0.01383274 -2.1720754e-21)
(2.5529454 -0.012132034 1.0181894e-21)
(2.5547811 -0.010216577 1.9935413e-21)
(2.5564598 -0.0085420074 2.4915665e-21)
(2.5581553 -0.0067481228 2.0881841e-21)
(2.5597366 -0.00451873 -4.0928517e-21)
(2.5613413 -0.001979537 -1.1489057e-21)
(2.5345091 -0.024226376 1.7861406e-22)
(2.5383113 -0.023827179 -8.2176768e-22)
(2.5410206 -0.023358658 -3.7841373e-22)
(2.542634 -0.022193394 9.9736184e-22)
(2.5445369 -0.021077838 5.1736158e-22)
(2.5467023 -0.01991118 -1.7231226e-21)
(2.5486761 -0.018634977 -1.4788118e-21)
(2.5506252 -0.017168619 1.2656308e-21)
(2.5524828 -0.015771478 6.6102411e-22)
(2.5544142 -0.014256753 -1.6619246e-21)
(2.5561813 -0.01250191 -7.7816499e-22)
(2.5579769 -0.010526507 -9.9742794e-22)
(2.5596205 -0.0088094164 -1.4364811e-21)
(2.5612832 -0.0069674959 -6.7951371e-23)
(2.5628395 -0.0046617372 2.7926502e-21)
(2.5644105 -0.0020181545 4.6717984e-21)
(2.5334933 -0.026839023 -8.0083571e-22)
(2.5374918 -0.026501421 6.0600169e-22)
(2.5403128 -0.026152175 -3.3741071e-22)
(2.5419263 -0.025053048 -1.0514188e-21)
(2.5438584 -0.023977488 2.3813252e-22)
(2.5460252 -0.022864801 2.7347164e-23)
(2.5480337 -0.021768317 -2.1087951e-21)
(2.550014 -0.020557169 -3.0215161e-21)
(2.551916 -0.019212731 -4.4073623e-22)
(2.5539117 -0.017722996 8.1069426e-22)
(2.5557675 -0.016287978 -1.3934261e-21)
(2.5576811 -0.01473203 -8.361257e-22)
(2.5594186 -0.012925921 -1.0457087e-21)
(2.5611855 -0.010878903 -3.4586753e-21)
(2.5627967 -0.009111965 -2.1905795e-21)
(2.5644164 -0.0072034155 -1.9312905e-21)
(2.5659419 -0.0048081688 -2.2123215e-22)
(2.5674676 -0.0020518286 1.7016405e-21)
(2.5324634 -0.029458304 -7.3636627e-22)
(2.5367123 -0.029166782 -1.1259512e-21)
(2.5396696 -0.028883218 2.0521021e-22)
(2.5412697 -0.027758012 4.8364232e-22)
(2.543225 -0.026729139 -1.8763856e-22)
(2.5453663 -0.025719856 3.4610909e-22)
(2.5473739 -0.024694331 1.501556e-22)
(2.5493311 -0.023578523 -1.5097336e-21)
(2.5512613 -0.022440039 -2.3671548e-21)
(2.553309 -0.021248316 7.5036421e-22)
(2.5552232 -0.01988613 1.9580377e-21)
(2.557231 -0.018368307 -1.7687717e-21)
(2.5590784 -0.016895346 -1.2453911e-21)
(2.5609893 -0.015276905 4.5765452e-21)
(2.5626988 -0.013408485 2.3739695e-21)
(2.5644199 -0.011262095 -3.3077924e-21)
(2.5659921 -0.0094272111 -3.0796225e-21)
(2.567557 -0.0074316278 2.4333531e-22)
(2.56904 -0.0049385532 2.0771335e-21)
(2.5704999 -0.0020740905 4.4927592e-21)
(2.5314257 -0.032118383 2.4690069e-22)
(2.5359977 -0.031834467 1.1322188e-22)
(2.5391312 -0.031591561 -2.5346061e-22)
(2.540717 -0.030397635 5.7613359e-22)
(2.5426906 -0.029349411 8.4660278e-22)
(2.5447712 -0.028347556 -2.3458758e-22)
(2.5467526 -0.027402171 2.7688783e-22)
(2.5486367 -0.026448371 7.1730747e-22)
(2.5505439 -0.025420205 -8.5129238e-22)
(2.5525838 -0.024387788 -1.442775e-21)
(2.5545434 -0.023271527 1.5331712e-21)
(2.556648 -0.022089341 3.8549825e-21)
(2.558582 -0.020706221 3.4531572e-22)
(2.5606268 -0.019126453 -7.8850522e-22)
(2.5624713 -0.017595745 4.7485675e-21)
(2.5643598 -0.015870747 3.9686978e-21)
(2.5660285 -0.013912933 -1.4029603e-21)
(2.567681 -0.011635332 3.6169295e-22)
(2.5692023 -0.0097124581 3.5724854e-21)
(2.5706914 -0.0076176682 4.5964058e-22)
(2.5721126 -0.0050302711 2.7283457e-21)
(2.5734825 -0.0020783614 4.1062115e-21)
(2.5303811 -0.034854124 7.9452133e-23)
(2.5353604 -0.034555844 1.6069909e-22)
(2.5387277 -0.034323103 2.2827709e-23)
(2.5403153 -0.032987615 -4.00629e-22)
(2.5423162 -0.031865621 3.8512781e-22)
(2.5443112 -0.030817017 9.3261399e-22)
(2.5462339 -0.029883093 -8.891613e-23)
(2.5479741 -0.029007936 -8.1556979e-22)
(2.5498115 -0.028115371 -4.1450225e-22)
(2.5517816 -0.027338505 -7.8684436e-23)
(2.5537285 -0.026394693 -6.2861916e-22)
(2.5558772 -0.025434719 -6.1961547e-22)
(2.5578981 -0.02433358 1.5514532e-21)
(2.5601039 -0.023107701 9.7360768e-22)
(2.5620729 -0.021671865 -9.3298484e-23)
(2.5641348 -0.01996509 1.0568695e-21)
(2.5659618 -0.018334193 2.5718051e-22)
(2.5677966 -0.016451413 -2.2685772e-21)
(2.5694024 -0.014372573 -6.0537457e-22)
(2.5709524 -0.011941655 5.2378408e-21)
(2.5724031 -0.0099185366 2.3076067e-21)
(2.5737906 -0.0077278662 -3.2475382e-21)
(2.5751265 -0.0050644369 -2.0332974e-21)
(2.5763821 -0.0020595358 -2.192588e-21)
(2.5293225 -0.037701199 -3.5902428e-22)
(2.534821 -0.03737782 -1.1308121e-22)
(2.5384907 -0.03713154 -3.8978745e-23)
(2.5401059 -0.035569895 -7.7774674e-23)
(2.54216 -0.034313098 -4.8168456e-22)
(2.5440523 -0.033128877 -3.7519011e-22)
(2.5458934 -0.032136294 1.3417562e-22)
(2.5474206 -0.031298849 3.5158443e-22)
(2.5491218 -0.03048359 -3.3068798e-22)
(2.5509283 -0.029911625 1.2312034e-22)
(2.5528022 -0.029193828 4.5025743e-22)
(2.5549375 -0.028588339 -2.964335e-22)
(2.5569933 -0.027722177 -2.8260328e-22)
(2.5593292 -0.026758385 4.2112626e-22)
(2.5614462 -0.025622949 -1.4567095e-22)
(2.5637399 -0.024256216 3.5322955e-22)
(2.56573 -0.022704755 1.4523952e-21)
(2.5677674 -0.020795812 -9.2144915e-22)
(2.5695468 -0.019014658 -3.3373731e-21)
(2.5712809 -0.016934254 2.678068e-22)
(2.5727919 -0.014711547 5.8304243e-21)
(2.5742011 -0.012125686 2.242017e-21)
(2.5755562 -0.010004981 -3.0352141e-21)
(2.576815 -0.0077387464 -1.1277315e-21)
(2.5780423 -0.0050303681 -1.2645773e-21)
(2.5791631 -0.0020149657 -2.9773325e-21)
(2.5282318 -0.040688155 1.3458018e-22)
(2.5343673 -0.040346076 -7.153068e-22)
(2.5384356 -0.040079066 -4.8736423e-22)
(2.5401454 -0.03822333 -4.5392067e-22)
(2.54229 -0.036744885 -5.0464397e-22)
(2.5440748 -0.035290099 -6.4291211e-22)
(2.5458206 -0.034168779 -5.4432604e-22)
(2.5470501 -0.033279289 1.3787183e-22)
(2.5485506 -0.032481854 3.4444953e-22)
(2.5500853 -0.032116062 1.4843825e-22)
(2.5517956 -0.031593179 5.8710892e-22)
(2.5538208 -0.031341489 9.6637767e-22)
(2.5558538 -0.030797949 2.6535787e-22)
(2.5582881 -0.030261483 5.5907116e-23)
(2.5605212 -0.029402472 7.2966795e-22)
(2.5630483 -0.028294919 9.8409793e-22)
(2.5652549 -0.027032085 1.4758025e-21)
(2.5675856 -0.025412468 2.7117474e-21)
(2.5695577 -0.023671605 4.771004e-22)
(2.5715045 -0.021500207 -9.2351599e-22)
(2.5731922 -0.019529072 2.5378779e-21)
(2.574772 -0.017237715 8.0387668e-22)
(2.5761513 -0.014867646 -2.6848587e-21)
(2.5773833 -0.012148853 8.1947857e-22)
(2.5786164 -0.009949692 2.6912474e-21)
(2.5797226 -0.0076413424 1.5774612e-21)
(2.5808213 -0.004926621 -4.4337782e-24)
(2.581793 -0.0019446793 1.3163242e-21)
(2.5270897 -0.043838592 2.8247755e-22)
(2.5339881 -0.043508325 1.6045006e-22)
(2.5385591 -0.043226448 -6.5593822e-22)
(2.5404457 -0.040977827 2.2329192e-23)
(2.5427583 -0.039218257 5.5557855e-23)
(2.5444607 -0.037405676 -1.3342867e-21)
(2.546113 -0.036011719 -1.478914e-21)
(2.54698 -0.034914501 2.5748307e-22)
(2.5482035 -0.034074121 9.1829348e-22)
(2.5493197 -0.033845526 6.3554093e-22)
(2.5507649 -0.033506276 4.5293155e-22)
(2.5525517 -0.033669056 2.6881279e-22)
(2.5544662 -0.033463024 6.2500186e-22)
(2.5569259 -0.033406266 -9.7308685e-23)
(2.5592413 -0.032942385 -3.019756e-22)
(2.5620133 -0.032278663 -1.4162675e-21)
(2.5644354 -0.031292853 -1.2086704e-21)
(2.5670972 -0.029878016 7.9341863e-22)
(2.5693465 -0.02837871 1.9556343e-21)
(2.5716244 -0.026413578 7.4113647e-22)
(2.5735164 -0.024422859 -5.848654e-22)
(2.5752957 -0.02196445 5.9201255e-22)
(2.5768401 -0.019788821 -1.0866015e-21)
(2.5782145 -0.017305215 -3.6593653e-21)
(2.5794267 -0.014806959 -3.4737774e-22)
(2.5804517 -0.011996501 1.5464279e-21)
(2.5815396 -0.0097508651 4.7134995e-22)
(2.5824755 -0.0074402528 7.4822692e-22)
(2.5834316 -0.004759243 2.014527e-21)
(2.5842459 -0.0018509262 3.0485228e-21)
(2.5258703 -0.047170437 2.7310634e-22)
(2.5336683 -0.046903978 4.4349667e-22)
(2.5388567 -0.04663835 3.2682625e-22)
(2.5410329 -0.043941339 -4.9030123e-23)
(2.5436049 -0.04180315 5.9987178e-22)
(2.5452667 -0.039429787 2.0769304e-22)
(2.5468578 -0.037691118 -1.1102106e-21)
(2.5472899 -0.036305682 -1.244494e-21)
(2.5481727 -0.035237111 4.086778e-22)
(2.5487515 -0.035053428 9.7091675e-22)
(2.549793 -0.034849656 7.0156215e-22)
(2.5511722 -0.03541332 2.8060009e-22)
(2.5528407 -0.035599912 1.0217804e-22)
(2.5552153 -0.036146954 1.0413827e-21)
(2.5575394 -0.036145988 3.6307391e-22)
(2.560532 -0.036015953 -8.0418334e-22)
(2.5631766 -0.035444779 -1.8713089e-21)
(2.5662327 -0.034417991 -2.4328714e-21)
(2.5687933 -0.033146435 -5.5082463e-22)
(2.5714713 -0.031284419 1.3669362e-21)
(2.5736791 -0.029456693 2.0418507e-22)
(2.5757935 -0.027102003 -2.3263289e-21)
(2.5775316 -0.024834802 -1.2377431e-21)
(2.5790686 -0.022109032 1.0907522e-21)
(2.5804203 -0.019745268 -1.3181795e-21)
(2.5815487 -0.017115516 -1.3130808e-21)
(2.582565 -0.014526982 4.7096567e-22)
(2.5833642 -0.011676504 -3.9837217e-21)
(2.5842896 -0.0094227873 -3.7911166e-21)
(2.5850447 -0.0071493747 1.7301593e-22)
(2.5858501 -0.0045386676 1.1261611e-21)
(2.5865045 -0.0017373336 -2.6195994e-21)
(2.5245424 -0.050693319 2.9666231e-22)
(2.5333736 -0.05057225 -5.6804828e-23)
(2.539306 -0.050373351 1.0489911e-22)
(2.5419138 -0.047161971 7.3162793e-23)
(2.5448668 -0.044593878 -2.9290215e-22)
(2.5465974 -0.041542743 2.165704e-21)
(2.5481704 -0.039259033 1.8188305e-21)
(2.5480893 -0.037298126 -1.7149729e-21)
(2.5485586 -0.035938198 -1.8531337e-21)
(2.5484304 -0.035718259 5.3765572e-22)
(2.5489496 -0.035523195 1.0722128e-21)
(2.5497461 -0.036524394 3.132053e-22)
(2.5509966 -0.037073102 -9.1198957e-23)
(2.5531386 -0.03831482 1.8887336e-22)
(2.5553609 -0.038891482 1.0814464e-21)
(2.5585222 -0.039468663 5.1267285e-22)
(2.5613612 -0.039418383 -5.962192e-22)
(2.5648511 -0.038880781 -1.5696195e-21)
(2.5677798 -0.037974624 -2.0981579e-21)
(2.5709691 -0.036374092 5.8454707e-22)
(2.5735579 -0.034678427 2.4229986e-21)
(2.5760947 -0.032294396 1.4578563e-21)
(2.5781554 -0.030092128 -9.2892323e-22)
(2.5799953 -0.027365617 -1.4609563e-21)
(2.5815073 -0.024837853 7.4509491e-22)
(2.5827431 -0.021903478 -1.386165e-22)
(2.5838624 -0.019394674 -1.1509547e-22)
(2.5847205 -0.016680987 -3.5588478e-22)
(2.5855222 -0.014050453 -4.5986152e-21)
(2.586088 -0.0112124 -4.9430992e-21)
(2.5868406 -0.0089888565 -1.197184e-21)
(2.5874114 -0.006786739 1.569583e-21)
(2.5880635 -0.0042766105 -1.9809631e-21)
(2.5885593 -0.0016080304 -3.323713e-21)
(2.5230741 -0.054409413 -3.6417491e-22)
(2.533068 -0.054537787 -1.537382e-22)
(2.5398688 -0.054484492 -5.0407769e-22)
(2.5430779 -0.050729693 3.9052693e-22)
(2.5465618 -0.047671726 3.6496598e-22)
(2.5484754 -0.043754822 -2.6035473e-22)
(2.5501371 -0.040809427 2.0769146e-21)
(2.5495803 -0.038106149 4.2966326e-22)
(2.549577 -0.036202818 -2.9502173e-21)
(2.5485471 -0.035703463 -1.5146466e-21)
(2.5483793 -0.035444259 7.5943682e-22)
(2.5483091 -0.036752614 1.1159391e-21)
(2.5489853 -0.037716912 3.9717342e-22)
(2.5506707 -0.039810804 -2.2551042e-22)
(2.5526488 -0.041025828 3.9101943e-23)
(2.5558915 -0.042489307 8.9564141e-22)
(2.5588689 -0.043117071 3.4908624e-22)
(2.5628232 -0.043266109 -4.7761285e-22)
(2.5661535 -0.042843884 -1.4001708e-21)
(2.5699593 -0.041586047 -1.5443571e-21)
(2.5730332 -0.040138004 1.0113663e-21)
(2.5761374 -0.037838013 2.4843564e-21)
(2.5786046 -0.03564102 1.5669297e-21)
(2.5808351 -0.03274639 -1.5239992e-22)
(2.5826415 -0.030182775 -6.4463249e-22)
(2.5841167 -0.027158925 1.1715253e-21)
(2.585345 -0.02442469 3.3902197e-22)
(2.5862449 -0.021364888 -2.7388227e-21)
(2.5871076 -0.018770205 -3.0080746e-21)
(2.5876882 -0.016037807 5.5977043e-23)
(2.5882676 -0.013414761 -1.9915134e-22)
(2.5886024 -0.010634881 -1.3895035e-21)
(2.5891786 -0.0084747973 1.2344362e-21)
(2.5895668 -0.0063701997 -1.5622761e-21)
(2.5900666 -0.0039838244 -2.8309243e-21)
(2.5904072 -0.0014669637 1.4885242e-23)
(2.5214321 -0.058313715 1.4203924e-22)
(2.5327088 -0.058821662 -4.2320038e-22)
(2.5404991 -0.059014792 -2.3106423e-22)
(2.5445026 -0.05470547 -1.2600617e-21)
(2.5486921 -0.051128214 -4.2686906e-22)
(2.550957 -0.046194745 8.6653136e-22)
(2.5528273 -0.042418929 2.8092055e-22)
(2.5517852 -0.03867894 1.6742388e-21)
(2.5513564 -0.036029507 1.0305326e-22)
(2.5492526 -0.035059659 -2.8999527e-21)
(2.5482174 -0.034548352 -1.5367911e-21)
(2.5470425 -0.036191734 7.6285988e-22)
(2.5468924 -0.037430506 1.1014799e-21)
(2.5478848 -0.040334878 6.6643274e-22)
(2.5493892 -0.042380553 8.1601786e-23)
(2.5525463 -0.044939843 -1.090847e-21)
(2.55557 -0.046410879 -2.9965908e-22)
(2.559991 -0.047472418 9.3822677e-22)
(2.563746 -0.047713643 1.6042325e-22)
(2.5682874 -0.046980204 -6.667954e-22)
(2.571944 -0.045879811 -7.9159843e-22)
(2.575771 -0.043695844 2.6552157e-22)
(2.5787828 -0.04157813 1.6525568e-21)
(2.5815593 -0.038572385 1.0217412e-21)
(2.5837457 -0.03587935 -6.1737874e-22)
(2.5855295 -0.032568524 -9.7623293e-22)
(2.5869933 -0.029712011 7.4320694e-22)
(2.5880496 -0.026503219 1.9255768e-21)
(2.5889593 -0.023641024 -9.7218806e-22)
(2.5895164 -0.02054524 -1.2617248e-21)
(2.5901148 -0.017927359 1.6748188e-21)
(2.5904261 -0.0152335 1.9130266e-21)
(2.5907851 -0.012661375 8.1536783e-22)
(2.5908977 -0.0099745077 1.0292147e-21)
(2.5912991 -0.0079037226 -1.6300437e-21)
(2.5915093 -0.0059146524 -2.4665799e-21)
(2.5918603 -0.003668866 2.4186359e-22)
(2.5920502 -0.0013174497 1.9020995e-21)
(2.5195852 -0.062394918 -1.9958995e-22)
(2.532251 -0.063430967 4.7304297e-22)
(2.5411411 -0.063995648 -5.8665011e-23)
(2.5461518 -0.059156316 -2.299055e-21)
(2.5512428 -0.055052234 -3.3142236e-21)
(2.5540673 -0.04894869 -1.1432247e-21)
(2.5563209 -0.044190532 7.4359251e-23)
(2.5548519 -0.039129492 2.7336885e-21)
(2.5539894 -0.035476525 4.0946581e-21)
(2.5506772 -0.033753495 -1.4004433e-22)
(2.5486212 -0.032751957 -2.9956587e-21)
(2.5460232 -0.034513775 -8.864482e-22)
(2.5447955 -0.036039586 1.3092707e-21)
(2.5447953 -0.039932258 6.7323544e-22)
(2.5455779 -0.042746547 2.5333696e-22)
(2.5484423 -0.046618184 6.0785737e-22)
(2.5513436 -0.049145402 -4.9549403e-22)
(2.5561917 -0.051393211 -1.458736e-21)
(2.5603651 -0.052516873 -3.0324236e-22)
(2.5657565 -0.052528157 8.1254348e-22)
(2.5701051 -0.051941773 3.7766903e-23)
(2.5748483 -0.049997236 -1.5014532e-21)
(2.5785528 -0.048011768 -5.0874965e-22)
(2.5820517 -0.044857363 2.8749856e-21)
(2.5847681 -0.042055925 2.2951817e-21)
(2.5869991 -0.038459116 -2.4041363e-21)
(2.5887674 -0.03535584 -2.7765843e-21)
(2.5900148 -0.031782954 -6.100783e-22)
(2.5910815 -0.028739748 4.9135178e-22)
(2.5917074 -0.025471182 1.1759545e-21)
(2.5922905 -0.022566632 9.349365e-22)
(2.5925222 -0.019514283 4.9666418e-22)
(2.5928636 -0.016928729 7.042713e-22)
(2.5929243 -0.014315834 2.2123813e-21)
(2.5930711 -0.011827841 2.4375124e-21)
(2.592974 -0.009256903 -1.1818485e-21)
(2.593205 -0.007293388 -1.9696919e-21)
(2.5932431 -0.0054307038 2.0682027e-21)
(2.5934491 -0.0033375102 3.6736508e-21)
(2.5934932 -0.0011620509 1.698547e-21)
(2.5175046 -0.066636266 -4.7711741e-22)
(2.5316493 -0.068365618 -1.3148764e-22)
(2.5417331 -0.069444804 5.1420536e-22)
(2.5479775 -0.06413372 2.5269756e-21)
(2.5541821 -0.05952758 4.3337e-22)
(2.557817 -0.052119966 -3.6766956e-21)
(2.5606692 -0.04623555 -1.6189408e-21)
(2.5588751 -0.039541791 6.6315077e-22)
(2.5576374 -0.034604859 3.1972045e-21)
(2.5529868 -0.031787766 1.9083766e-21)
(2.5497883 -0.030036492 -2.147911e-21)
(2.5454555 -0.03174841 -1.9254078e-21)
(2.5428279 -0.033376689 9.2900646e-23)
(2.5414117 -0.03819867 1.2456973e-21)
(2.5411911 -0.041906366 6.4064944e-22)
(2.5435019 -0.047332653 -2.0580958e-22)
(2.5460716 -0.051112885 1.2790832e-22)
(2.5512576 -0.054885342 -1.3420438e-22)
(2.5558019 -0.05715543 -1.0399307e-21)
(2.5621494 -0.058204607 -3.2807815e-22)
(2.5672932 -0.058349155 7.3108692e-22)
(2.5731724 -0.056804968 4.288327e-22)
(2.5777528 -0.055064439 -1.0290954e-21)
(2.5822089 -0.051793399 -1.1333136e-21)
(2.5856262 -0.048869405 2.0699986e-21)
(2.5884652 -0.044873939 2.2217635e-21)
(2.5906738 -0.041491648 -2.2450522e-21)
(2.5922092 -0.03751253 -4.1098341e-21)
(2.5934696 -0.034144022 -2.0769274e-21)
(2.594156 -0.030488633 1.2716432e-21)
(2.5948121 -0.027378826 1.9358702e-21)
(2.5950367 -0.02416413 -6.561835e-22)
(2.5953088 -0.021294133 -1.096382e-21)
(2.5952504 -0.018343482 6.4823827e-22)
(2.5953522 -0.015831841 2.0794671e-21)
(2.5951857 -0.013325142 9.0530101e-22)
(2.5951322 -0.010943143 -2.5563909e-21)
(2.5948375 -0.0085005108 1.3896642e-21)
(2.5949037 -0.0066553479 5.2763275e-21)
(2.5947749 -0.0049247188 1.832521e-21)
(2.5948407 -0.0029929276 -7.2151268e-23)
(2.5947423 -0.0010028523 -2.1361791e-21)
(2.5151629 -0.071016901 3.1501668e-22)
(2.5308584 -0.073612551 9.160981e-23)
(2.5422092 -0.075365369 4.3429708e-22)
(2.5499212 -0.069678518 2.9317397e-21)
(2.5574597 -0.06462766 4.8806349e-21)
(2.5621933 -0.055809205 8.3012812e-21)
(2.5659055 -0.048670936 4.5239016e-21)
(2.5639405 -0.04001397 -2.3404891e-21)
(2.5624259 -0.033493619 -1.8282432e-22)
(2.5563337 -0.029206158 9.9540967e-22)
(2.5518736 -0.026382113 -2.6356303e-22)
(2.5454715 -0.027761954 -1.3103982e-21)
(2.5411538 -0.029301308 -1.087567e-21)
(2.537902 -0.035059361 -7.0520733e-22)
(2.5362735 -0.039656031 3.7708284e-22)
(2.5376668 -0.04684169 2.4453356e-22)
(2.5396414 -0.052090034 -5.6551038e-22)
(2.5450171 -0.057754742 2.0504345e-22)
(2.5498353 -0.061491087 -3.9548101e-23)
(2.5572183 -0.063947814 -9.995382e-22)
(2.5632504 -0.065104571 -3.2292585e-22)
(2.5705115 -0.06420095 7.0413017e-22)
(2.5761751 -0.062866872 4.1441643e-22)
(2.5818786 -0.059533244 -9.8999061e-22)
(2.5862231 -0.056513207 -1.0927711e-21)
(2.5898995 -0.052044269 1.0060103e-21)
(2.5927069 -0.048295323 1.1294274e-21)
(2.5946383 -0.043734239 -3.9030161e-23)
(2.5961892 -0.039966615 -1.7781693e-21)
(2.5969748 -0.035862703 -3.0872523e-21)
(2.5976993 -0.032400879 7.8220907e-23)
(2.5978658 -0.028831851 3.2777772e-21)
(2.5981372 -0.025765971 8.3862488e-22)
(2.5980201 -0.022689022 -2.1608717e-21)
(2.5980142 -0.019910766 -5.2102021e-22)
(2.5977091 -0.01709413 9.8646374e-22)
(2.5975937 -0.014681546 -1.4577393e-22)
(2.5972226 -0.012290448 -3.9553106e-21)
(2.5969805 -0.010026124 -2.2991249e-22)
(2.5964981 -0.0077164038 7.0431195e-21)
(2.5964048 -0.0059957381 3.8005301e-21)
(2.5961129 -0.0044001049 5.7471601e-21)
(2.5960433 -0.0026371047 3.8782379e-21)
(2.5958048 -0.00084157394 -1.982572e-21)
(2.5125327 -0.075513102 3.3948971e-22)
(2.5298338 -0.079155479 1.808227e-21)
(2.5425007 -0.081745946 1.62363e-21)
(2.5519157 -0.075814332 -3.3390749e-21)
(2.5610084 -0.070411781 -1.0187824e-21)
(2.5671625 -0.060109296 6.510095e-21)
(2.5720395 -0.05161467 9.7865554e-21)
(2.5701101 -0.040656787 7.3837802e-21)
(2.5684619 -0.032234919 9.0966343e-22)
(2.5608624 -0.026061039 -4.6553726e-23)
(2.5550505 -0.021796806 1.0747235e-21)
(2.5462496 -0.022511973 -1.2154992e-22)
(2.5399294 -0.023700954 -1.1135423e-21)
(2.5343673 -0.030305115 -1.2129545e-21)
(2.5309129 -0.03576228 -8.5179635e-22)
(2.5309541 -0.044918578 -5.0092788e-22)
(2.5319708 -0.05184332 -6.4054073e-22)
(2.5373105 -0.0598022 -2.3259609e-22)
(2.5422459 -0.065351554 5.0433533e-22)
(2.5507016 -0.069658953 -6.0137355e-23)
(2.5576872 -0.072181664 -9.7204306e-22)
(2.5665882 -0.072244091 -6.2775136e-22)
(2.5735654 -0.071548514 3.4272991e-22)
(2.5808692 -0.06827127 1.531879e-22)
(2.5864197 -0.065214981 -1.1886013e-21)
(2.5912372 -0.060189421 4.8755523e-22)
(2.5948686 -0.055998044 2.5014458e-21)
(2.5973678 -0.050680491 1.0405702e-21)
(2.5993193 -0.04636297 -6.2234946e-23)
(2.6002303 -0.041600998 -2.4272923e-21)
(2.6010643 -0.037693951 -3.6804614e-21)
(2.6011493 -0.033718852 1.4889149e-21)
(2.6013738 -0.030327865 4.5491326e-21)
(2.6011141 -0.026973404 3.4851443e-22)
(2.6010566 -0.02403442 -2.5064648e-21)
(2.6006728 -0.021139926 -3.1605571e-21)
(2.6004304 -0.018485866 -1.7707585e-21)
(2.5999209 -0.01581064 -2.7798416e-21)
(2.5996101 -0.013506916 -6.4368439e-21)
(2.599052 -0.011228796 -7.1771013e-21)
(2.598631 -0.0090862462 -3.8015307e-22)
(2.597967 -0.0069094706 3.7881026e-21)
(2.5977179 -0.005316878 5.636249e-21)
(2.5972651 -0.0038584506 5.1106869e-21)
(2.5970618 -0.0022719224 -4.3580664e-22)
(2.5966884 -0.00067897017 -3.4768275e-23)
(2.5095871 -0.080099966 8.3200086e-23)
(2.5285312 -0.08496176 -6.7850277e-23)
(2.5425389 -0.08856101 1.3245029e-21)
(2.553885 -0.082555048 1.7833349e-21)
(2.5647456 -0.076921396 -2.9250371e-21)
(2.5726663 -0.065102254 -1.6815516e-20)
(2.5790554 -0.055182725 -9.9141025e-21)
(2.5774262 -0.041578947 4.9325491e-21)
(2.5758309 -0.030929964 2.5736104e-21)
(2.5666968 -0.022417605 7.0081769e-21)
(2.5594803 -0.016311595 6.1957442e-21)
(2.5479626 -0.015977345 8.3709795e-23)
(2.5393331 -0.016486912 -1.0665756e-21)
(2.5309504 -0.02378176 -4.7864568e-22)
(2.5252033 -0.030013999 -5.6898945e-22)
(2.5233858 -0.041317696 -3.3900812e-22)
(2.5230123 -0.050108363 1.2388675e-23)
(2.5280026 -0.060785605 -1.0907283e-22)
(2.5328228 -0.068531612 2.86609e-22)
(2.5423319 -0.075204038 3.6446956e-22)
(2.5502928 -0.07951549 -1.7372081e-22)
(2.561088 -0.080969065 -6.9549318e-22)
(2.5696186 -0.081226242 -3.6537465e-22)
(2.578934 -0.078205684 -6.0797911e-22)
(2.586028 -0.075230874 -8.0278944e-22)
(2.5923846 -0.069596579 9.9744245e-22)
(2.5971372 -0.064890739 2.6231273e-21)
(2.6004518 -0.058592809 -4.8054499e-22)
(2.6029776 -0.053552562 -1.9067621e-21)
(2.604082 -0.047890751 6.7972567e-22)
(2.605058 -0.043351602 -1.5542724e-21)
(2.6049938 -0.038768543 -3.8939234e-21)
(2.6051519 -0.034968196 1.01106e-21)
(2.604675 -0.031322978 3.2220692e-21)
(2.6044869 -0.028129807 -7.8653714e-22)
(2.6039248 -0.02505944 -1.0811164e-21)
(2.60361 -0.022293074 -1.6797461e-21)
(2.6030344 -0.019586275 1.6776098e-21)
(2.6025962 -0.017064722 7.7382403e-22)
(2.6019158 -0.014518582 -8.2859136e-23)
(2.6014268 -0.012321696 -6.8556211e-22)
(2.6006921 -0.010146751 -3.7242797e-21)
(2.6000981 -0.0081256301 1.8197561e-22)
(2.5992547 -0.0060801833 2.8369886e-21)
(2.5988519 -0.0046182051 2.2944465e-21)
(2.5982385 -0.0032992923 -7.8408464e-21)
(2.5979013 -0.001897124 -7.5760931e-21)
(2.5974005 -0.00051498063 -7.4338918e-21)
(2.5063048 -0.08475356 1.4363716e-22)
(2.5269123 -0.090983337 4.6503732e-22)
(2.5422586 -0.095774118 3.2766185e-22)
(2.5557531 -0.089876239 -8.8365102e-22)
(2.568583 -0.084179572 -4.8318967e-22)
(2.5786278 -0.070856851 -1.0087116e-20)
(2.5869123 -0.059481971 -2.3394872e-20)
(2.585894 -0.04289018 -1.4522636e-20)
(2.5845845 -0.029684568 -4.9165301e-22)
(2.5739409 -0.018359472 -1.896173e-21)
(2.5653081 -0.0099805447 2.2450056e-21)
(2.5507755 -0.0081358824 5.2296339e-21)
(2.5395455 -0.0075999817 -5.8897898e-22)
(2.527806 -0.015369672 3.8745843e-22)
(2.5192647 -0.022218471 9.6302853e-22)
(2.5150149 -0.035800101 -3.4495577e-22)
(2.5127475 -0.046619785 -1.2054511e-22)
(2.5169902 -0.060450086 -1.6847478e-22)
(2.5213785 -0.070793831 -2.8662939e-22)
(2.5318453 -0.080406033 -2.2028521e-23)
(2.5407466 -0.086996109 4.7102454e-23)
(2.5536654 -0.09037076 6.0530161e-22)
(2.5639827 -0.091988804 1.205588e-22)
(2.5757691 -0.089530309 1.6688867e-21)
(2.5847976 -0.08683349 1.4701828e-21)
(2.5931955 -0.080591864 -3.220366e-21)
(2.5994562 -0.075326186 -1.5366978e-21)
(2.6039424 -0.06780314 1.8866638e-21)
(2.6072919 -0.061831014 -1.0717189e-21)
(2.6087116 -0.054935995 -1.8118771e-21)
(2.6099055 -0.049524357 6.4538533e-22)
(2.6096304 -0.044078686 5.0674732e-22)
(2.6096633 -0.039685427 -1.6823581e-21)
(2.6088168 -0.035599005 -1.9086168e-21)
(2.6084277 -0.032104297 1.4479356e-22)
(2.6075838 -0.028903921 2.1278962e-21)
(2.6071011 -0.025980007 1.8939564e-21)
(2.6063642 -0.023200769 2.5256159e-21)
(2.605864 -0.020614546 5.7788673e-21)
(2.6051578 -0.018068169 5.379395e-21)
(2.6045563 -0.015668048 4.6395785e-21)
(2.6037252 -0.013226342 2.867874e-21)
(2.6030682 -0.011127036 3.9349105e-23)
(2.6021592 -0.0090430225 9.6520673e-21)
(2.6013943 -0.0071413509 1.2323768e-20)
(2.6003701 -0.0052263521 -7.829098e-22)
(2.5998141 -0.0038971344 -1.0455337e-20)
(2.5990388 -0.0027211744 -1.0287897e-20)
(2.5985769 -0.0015092972 -1.0195352e-20)
(2.5979474 -0.00034991155 -6.6538452e-21)
(2.502807 -0.089467325 3.1044524e-22)
(2.525017 -0.097247293 2.0065762e-21)
(2.5416585 -0.10333915 2.3419159e-21)
(2.5574433 -0.097782164 -3.1176598e-21)
(2.5724325 -0.092197504 -4.3239298e-21)
(2.5849831 -0.077415832 5.8713056e-21)
(2.5955643 -0.064607907 -3.1494729e-21)
(2.5954961 -0.044687945 -8.1921989e-21)
(2.5947416 -0.028601235 4.7759355e-22)
(2.5826484 -0.013979965 -1.246528e-20)
(2.5726354 -0.0028778757 -1.3988143e-20)
(2.5548408 0.00096988017 -1.9620442e-21)
(2.5407381 0.0029850802 8.0533824e-22)
(2.5251004 -0.0049476864 -1.1826636e-22)
(2.5132379 -0.012211573 8.163706e-22)
(2.5059227 -0.028154768 3.2537169e-21)
(2.5011903 -0.041120404 2.0312231e-21)
(2.5042031 -0.058528371 -2.2497079e-22)
(2.5077608 -0.071878718 -2.7834291e-22)
(2.5190034 -0.085053149 -4.5998089e-22)
(2.5287356 -0.094468316 -2.1142735e-22)
(2.5439575 -0.10039608 -2.9667864e-22)
(2.5562678 -0.10388149 2.2658751e-22)
(2.5710127 -0.10241728 4.2633752e-22)
(2.5824094 -0.10029435 1.9012318e-21)
(2.5934589 -0.093531563 3.9338873e-22)
(2.6017125 -0.087713461 -4.0656339e-21)
(2.6078614 -0.078718708 -5.6028715e-22)
(2.6123906 -0.071583305 2.7051813e-21)
(2.6143401 -0.063039436 2.3832525e-21)
(2.6158844 -0.05643673 1.7435801e-21)
(2.6153454 -0.049753469 -1.8942145e-21)
(2.6152034 -0.044510811 -2.072332e-21)
(2.6138002 -0.039779287 1.9253864e-21)
(2.6130674 -0.03584536 1.7671013e-21)
(2.6117336 -0.032450569 -6.6587767e-22)
(2.6109826 -0.029379404 1.2047366e-21)
(2.6099807 -0.026641052 3.9798383e-21)
(2.6093261 -0.023997515 4.6118163e-21)
(2.6085224 -0.021462709 3.2869518e-21)
(2.6078965 -0.019032177 2.8687757e-21)
(2.6070984 -0.01659765 1.5593816e-21)
(2.6063537 -0.014295481 -1.7148961e-22)
(2.6053771 -0.011928927 -6.3490997e-21)
(2.6045547 -0.0099153064 2.6786237e-21)
(2.6034663 -0.0079115122 9.3233172e-21)
(2.6025297 -0.0061277754 -3.1691024e-21)
(2.6013207 -0.0043446608 -5.621891e-21)
(2.6006105 -0.0031525526 -5.3869484e-21)
(2.5996727 -0.0021263027 -5.0003751e-21)
(2.5991003 -0.0011090302 -1.5559129e-21)
(2.5983352 -0.00016917793 8.3839145e-21)
(2.4993141 -0.094260945 1.6469902e-22)
(2.5232147 -0.1036305 -1.7944343e-21)
(2.5409971 -0.11123747 -2.1313479e-22)
(2.5591047 -0.10629105 1.4515988e-21)
(2.5763884 -0.10098273 -3.7499905e-21)
(2.5916936 -0.084899926 2.0956109e-21)
(2.6049903 -0.07065784 1.1881793e-20)
(2.6062764 -0.047077339 6.2126546e-21)
(2.6063646 -0.027782572 1.5711034e-21)
(2.5928669 -0.0093761705 1.1457301e-21)
(2.581532 0.0049145572 -1.1137233e-20)
(2.5602406 0.011281703 -1.1348755e-20)
(2.5430498 0.015268309 1.1283655e-22)
(2.5229789 0.0075206896 -1.0607286e-21)
(2.5072668 0.00013611284 -1.9669248e-21)
(2.4962182 -0.018182707 -2.7171796e-21)
(2.4883895 -0.033373638 -4.6655499e-22)
(2.4896129 -0.054762328 3.0187914e-21)
(2.4918604 -0.071518631 8.858801e-22)
(2.5036035 -0.088902363 -4.7602186e-22)
(2.5139734 -0.10173187 -6.5155661e-22)
(2.5316025 -0.11093716 5.0663477e-22)
(2.5460614 -0.11689219 4.375924e-22)
(2.5642513 -0.11699572 -1.904128e-21)
(2.5784733 -0.11586234 -1.753075e-21)
(2.5928873 -0.10878759 7.6801747e-22)
(2.6037174 -0.10250501 -6.8122158e-22)
(2.6121813 -0.091820284 -8.5699137e-23)
(2.6183774 -0.083290534 3.3042136e-21)
(2.6212025 -0.072603414 2.7185566e-21)
(2.6233246 -0.06440956 2.4216943e-21)
(2.6225119 -0.055980906 2.789612e-22)
(2.6221586 -0.049524389 -3.2040159e-21)
(2.6199636 -0.043820999 1.0527537e-21)
(2.6187132 -0.039236904 4.8971296e-21)
(2.6166124 -0.035548937 -1.3658717e-23)
(2.6153939 -0.032273121 -2.3509391e-21)
(2.6139038 -0.029614402 2.5285508e-21)