/*--------------------------------*- C++ -*----------------------------------*\
| =========                 |                                                 |
| \\      /  F ield         | OpenFOAM: The Open Source CFD Toolbox           |
|  \\    /   O peration     | Version:  v2012                                 |
|   \\  /    A nd           | Website:  www.openfoam.com                      |
|    \\/     M anipulation  |                                                 |
\*---------------------------------------------------------------------------*/
FoamFile
{
    version     2.0;
    format      ascii;
    class       surfaceScalarField;
    location    "59.2651423941488815";
    object      meshPhi;
}
// * * * * * * * * * * * * * * * * * * * * * * * * * * * * * * * * * * * * * //

dimensions      [0 3 -1 0 0 0 0];
oriented        oriented;


internalField   nonuniform List<scalar> 
18180
(
0
-0.0091224122
0
-0.0084958849
8.7233315e-14
-0.018007996
0
-0.0077549181
0
-0.016543857
-8.4333393e-14
-0.026246366
0
-0.0069863374
-8.7121561e-14
-0.014912502
0
-0.023984814
-8.1540359e-14
-0.033780199
4.4993709e-14
-0.006292323
0
-0.013311244
0
-0.021535144
0
-0.030976503
0
-0.040907616
-4.4948591e-14
-0.0057543421
3.3049575e-18
-0.012032783
0
-0.019284566
-8.1458071e-14
-0.027980158
0
-0.037670705
5.9019526e-18
-0.047525872
0
-0.0053599506
-3.2857117e-18
-0.011083147
-4.2054503e-14
-0.01748019
4.0703154e-14
-0.025205595
0
-0.034316777
0
-0.044017534
0
-0.053812553
-4.4857973e-14
-0.0050476233
0
-0.010354151
4.2018849e-14
-0.016129775
3.1338641e-18
-0.022934621
0
-0.031176375
0
-0.040449584
0
-0.050038771
5.22105e-18
-0.059668444
0
-0.0047925834
-4.3370129e-14
-0.009774679
0
-0.015112063
0
-0.021192103
-3.9329317e-14
-0.02852966
7.6112326e-14
-0.037098211
7.3644508e-14
-0.04630236
0
-0.055664932
0
-0.06518888
3.7382905e-18
-0.0045721068
0
-0.009280916
4.1949213e-14
-0.014292883
0
-0.019862085
-3.929862e-14
-0.026432244
-3.8026513e-14
-0.034189832
0
-0.042789668
0
-0.051791108
0
-0.060942061
0
-0.070291594
4.4745279e-14
-0.004373844
3.4769698e-18
-0.0088375679
-4.1916704e-14
-0.013583456
0
-0.018786118
-3.926472e-14
-0.02475758
3.7997327e-14
-0.031779546
3.6771198e-14
-0.039699665
0
-0.048165061
5.315147e-18
-0.05692908
0
-0.065856899
-6.4393198e-14
-0.075099469
0
-0.0041893811
0
-0.0084250276
-4.1886298e-14
-0.012933232
0
-0.01785267
0
-0.023386048
0
-0.029806306
3.6739842e-14
-0.037068786
3.5555231e-14
-0.044921461
0
-0.053183091
0
-0.0617217
0
-0.070454019
6.225168e-14
-0.079546899
-2.0099034e-18
-0.0040145682
0
-0.0080327909
0
-0.012316415
4.0516024e-14
-0.016998668
0
-0.022201129
0
-0.02813458
0
-0.034812482
-3.552489e-14
-0.042073689
3.4371516e-14
-0.049785245
-6.6503817e-14
-0.057853321
0
-0.066170613
0
-0.074707937
0
-0.083709365
2.2331564e-14
-0.0038463248
2.1608348e-14
-0.0076543288
0
-0.011722134
0
-0.016187275
0
-0.021114163
0
-0.026657011
-3.668731e-14
-0.032837134
0
-0.039550502
3.4341849e-14
-0.0467249
-9.9676458e-14
-0.054294523
0
-0.062163853
0
-0.070282101
0
-0.078652238
0
-0.087530956
4.4640069e-14
-0.0036833001
-2.1596868e-14
-0.0072863912
2.0904578e-14
-0.011144442
0
-0.015405555
0
-0.020089207
-3.7886734e-14
-0.025311621
0
-0.031079139
3.546713e-14
-0.037298583
0
-0.043961103
-2.701618e-18
-0.051044648
-3.2118462e-14
-0.058451622
6.2144549e-14
-0.066133625
3.8749356e-18
-0.074061885
0
-0.082285203
0
-0.091096542
-2.2307609e-14
-0.003524841
-4.3173182e-14
-0.0069272518
1.7497461e-18
-0.010580658
-2.0222161e-14
-0.014647801
0
-0.019106056
0
-0.024052337
0
-0.029483654
0
-0.035283668
0
-0.041464995
0
-0.048062054
0
-0.055012956
3.1048714e-14
-0.062257944
3.0033105e-14
-0.069760076
-5.8099852e-14
-0.07753041
5.6189017e-14
-0.085636794
2.9028162e-18
-0.094373393
0
-0.0033699084
-4.3156721e-14
-0.0065771517
-2.0884645e-14
-0.01002979
1.7762481e-18
-0.013911447
-1.7482455e-18
-0.018157441
0
-0.022850995
0
-0.027999068
0
-0.033451586
0
-0.039191931
0
-0.045321626
-3.2065515e-14
-0.051826581
0
-0.058639999
2.0230605e-18
-0.065723055
0
-0.073063399
0
-0.080690762
0
-0.088712283
0
-0.097426707
0
-0.0032176176
2.157117e-14
-0.0062357461
-2.087625e-14
-0.0094926108
2.0203585e-14
-0.01319635
1.7728165e-18
-0.017240136
0
-0.021695566
0
-0.026591382
0
-0.031753543
0
-0.037118534
0
-0.042813871
0
-0.048877481
3.0995986e-14
-0.055257792
0
-0.06193085
1.8270004e-18
-0.068859932
0
-0.076047283
0
-0.083576511
0
-0.091544586
0
-0.10023048
2.2283219e-14
-0.0030677218
2.1562136e-14
-0.0059036455
-2.0868801e-14
-0.0089707012
-2.0193916e-14
-0.012503302
1.9539952e-14
-0.016354389
0
-0.020581147
-1.8286054e-14
-0.02524087
0
-0.030152807
0
-0.035205167
-3.3095699e-14
-0.04050207
0
-0.046137742
0
-0.052100118
2.0605591e-18
-0.058363421
-1.8486147e-18
-0.064902724
2.8032514e-14
-0.071682156
0
-0.078752452
-5.2446358e-14
-0.086206658
0
-0.094151907
4.9031494e-14
-0.10284689
0
-0.0029204505
0
-0.0055814657
0
-0.008465569
-2.0186929e-14
-0.011833645
1.9530677e-14
-0.01550032
1.789786e-18
-0.019505771
0
-0.023940194
0
-0.028622603
0
-0.033404127
0
-0.038353948
0
-0.04358726
0
-0.049146445
-5.9860521e-14
-0.055013434
1.8566558e-18
-0.061164844
-1.6563269e-18
-0.067569402
2.7090679e-14
-0.074221044
0
-0.081196965
0
-0.088613719
0
-0.096556818
4.7377232e-14
-0.10526157
0
-0.002775625
1.8583447e-18
-0.0052703156
-2.0856412e-14
-0.0079784773
-2.0182646e-14
-0.01118778
-1.9524032e-14
-0.014678303
1.8888114e-14
-0.018468987
1.8088175e-18
-0.022685668
1.7122799e-18
-0.027152128
-1.5252456e-18
-0.031691202
0
-0.036342936
0
-0.041214091
0
-0.046379954
0
-0.05186199
0
-0.057639372
-5.5956298e-14
-0.063677376
0
-0.069959172
-5.2356917e-14
-0.076500494
2.5319662e-14
-0.083410652
0
-0.090806344
0
-0.09877435
-4.5774341e-14
-0.10751835
0
-0.0026332733
0
-0.0049706341
0
-0.0075107117
0
-0.010566475
1.951815e-14
-0.013888534
1.8120436e-18
-0.017471512
-1.8262274e-14
-0.021476439
-1.7660017e-14
-0.025736515
0
-0.030049862
-1.6517547e-14
-0.034440231
0
-0.038995728
-3.0895802e-14
-0.043791084
0
-0.04888932
0
-0.054302263
-1.656391e-18
-0.059988888
2.7037999e-14
-0.065922405
-1.3214826e-18
-0.07209362
-2.5295762e-14
-0.078543283
0
-0.085406591
4.7322104e-14
-0.092816857
0
-0.10082329
4.4227168e-14
-0.10960383
-1.1133637e-14
-0.0024933996
0
-0.004682854
0
-0.0070637682
2.0172459e-14
-0.0099702759
0
-0.013131706
-1.8215714e-18
-0.016515008
-1.8254135e-14
-0.020313005
0
-0.024373262
1.5551548e-18
-0.028472629
0
-0.032625528
-1.5963736e-14
-0.036905066
0
-0.041369106
0
-0.046092909
0
-0.051137049
0
-0.056484697
0
-0.062087333
1.3221101e-18
-0.067921132
-2.5271207e-14
-0.073993274
1.0484064e-18
-0.080371126
0
-0.08721963
4.5722292e-14
-0.094656761
0
-0.10272168
-4.2726413e-14
-0.11155563
-1.1129377e-14
-0.0023562721
0
-0.0044071569
0
-0.0066382959
0
-0.0094000161
0
-0.012407859
1.8869216e-14
-0.015599705
0
-0.019196609
0
-0.023061997
1.7065204e-14
-0.026954922
1.6500727e-14
-0.030887437
1.5954777e-14
-0.034922534
-1.5427103e-14
-0.039097051
0
-0.04347893
0
-0.04815497
-2.7899745e-14
-0.053149717
0
-0.058427561
0
-0.063947926
-2.5243324e-14
-0.069691713
-2.4417629e-14
-0.075679862
-2.3616211e-14
-0.08201154
2.284012e-14
-0.088863519
0
-0.096350674
0
-0.10447872
4.1277766e-14
-0.11336731
0
-0.0022226072
1.0768004e-14
-0.0041438401
-8.8384902e-19
-0.0062345156
0
-0.0088555677
0
-0.011716327
0
-0.014725412
0
-0.018127267
1.7641044e-14
-0.021802726
0
-0.025495371
0
-0.02921931
-1.5945446e-14
-0.033031966
1.5417976e-14
-0.036952328
1.4906334e-14
-0.041033292
0
-0.045360131
0
-0.049995855
0
-0.054935601
0
-0.060145901
0
-0.065592947
0
-0.07125522
-2.3591811e-14
-0.077179591
-2.2817088e-14
-0.083484561
0
-0.090358255
1.5164979e-18
-0.097900861
0
-0.10610868
0
-0.11506189
-1.2420846e-18
-0.0020930102
0
-0.0038930205
0
-0.0058524363
-1.0080722e-14
-0.0083366398
0
-0.011056427
0
-0.013891329
-1.8239271e-14
-0.017104305
-1.7637934e-14
-0.020595518
0
-0.024093218
1.3732579e-18
-0.027616893
0
-0.031224318
1.0621691e-18
-0.034916139
0
-0.038732813
0
-0.042751188
0
-0.047046068
2.6934541e-14
-0.051633988
-2.6045813e-14
-0.05650881
0
-0.061659631
-2.4363999e-14
-0.067037749
-2.3564431e-14
-0.072634311
0
-0.078512423
2.2044738e-14
-0.084804931
-4.2637258e-14
-0.091712536
-4.1226293e-14
-0.099330907
0
-0.10761765
0
-0.11663425
1.2478772e-18
-0.0019678185
1.0764434e-14
-0.0036546558
0
-0.0054917621
-2.0157633e-14
-0.0078427858
-1.018818e-18
-0.01042684
0
-0.013097404
0
-0.016127151
0
-0.019439289
0
-0.022747953
0
-0.026078497
0
-0.029493688
0
-0.032976283
9.2296707e-19
-0.036558249
0
-0.040308759
-2.7832524e-14
-0.044292459
2.6910065e-14
-0.048540998
0
-0.053065017
-2.5163578e-14
-0.057884283
0
-0.062982113
0
-0.06830453
0
-0.073848822
-2.2020032e-14
-0.07969339
6.6379723e-19
-0.085989654
0
-0.092948824
1.2758247e-18
-0.10064428
0
-0.10902162
-3.7202821e-14
-0.11810355
0
-0.0018472332
9.2397942e-19
-0.0034282749
-1.0416735e-14
-0.0051518017
-1.007708e-14
-0.0073738606
0
-0.0098264577
-9.4282414e-15
-0.012342125
-1.8234038e-14
-0.015195716
0
-0.018333435
-1.7042254e-14
-0.021459004
0
-0.024602822
1.5925735e-14
-0.027837144
1.0544866e-18
-0.031126014
0
-0.034492987
1.4385709e-14
-0.03800565
0
-0.041714892
1.3444269e-14
-0.045652357
0
-0.049839811
0
-0.054306697
-2.4309984e-14
-0.059080902
0
-0.064136104
-2.2739008e-14
-0.069411233
0
-0.074914415
-6.3102507e-19
-0.080740303
-2.0572651e-14
-0.087055078
1.9894097e-14
-0.094075082
0
-0.10185879
0
-0.11032057
0
-0.1194693
0
-0.0017312895
0
-0.0032139907
8.895547e-19
-0.0048318647
0
-0.0069294987
9.7464095e-15
-0.0092546023
-9.426027e-15
-0.011624322
0
-0.014309388
0
-0.017277218
0
-0.0202259
1.6471851e-14
-0.023189239
0
-0.026252066
1.5389488e-14
-0.029360245
-1.4873993e-14
-0.032528406
1.4377029e-14
-0.035825817
1.389798e-14
-0.039293182
1.3434967e-14
-0.04295285
1.2987857e-14
-0.046829234
0
-0.050963297
0
-0.055385313
0
-0.060117995
-2.2712936e-14
-0.065137676
-2.1967404e-14
-0.070375356
0
-0.075848873
-5.5726638e-19
-0.081669671
5.3039958e-19
-0.088015284
1.9216737e-14
-0.095103071
3.7158717e-14
-0.10297235
0
-0.11152771
-3.4704519e-14
-0.12074068
0
-0.0016187775
0
-0.0030120844
0
-0.0045312327
1.0659059e-18
-0.006509297
-9.7464585e-15
-0.0087108645
-9.4249074e-15
-0.010942338
0
-0.013466769
1.7621628e-14
-0.016269889
0
-0.019047969
0
-0.021836445
-1.591596e-14
-0.024736515
0
-0.027675306
1.4867824e-14
-0.030658156
0
-0.033758034
0
-0.037009126
-1.3424568e-14
-0.040424022
-1.2977695e-14
-0.044019324
0
-0.047848905
0
-0.051939282
2.345892e-14
-0.056311147
2.2685821e-14
-0.061013631
0
-0.066005458
2.1220418e-14
-0.071211778
0
-0.076667819
1.9850152e-14
-0.082495563
4.71943e-19
-0.088877365
1.8561663e-14
-0.096038131
0
-0.10400222
0
-0.1126417
0
-0.12191899
-7.4087673e-06
-0.0017718303
0
-0.0028198413
0
-0.004249549
1.0075376e-14
-0.0061121891
0
-0.0081940953
9.4239332e-15
-0.010294744
0
-0.012665713
1.7620028e-14
-0.015310004
1.7032815e-14
-0.017924356
-1.6464443e-14
-0.020543977
0
-0.023288967
-1.5378373e-14
-0.026068183
-1.4862327e-14
-0.028877049
-1.4364367e-14
-0.031795101
1.3882586e-14
-0.034849332
0
-0.038046862
-1.2968353e-14
-0.041392187
0
-0.044938089
0
-0.048733238
0
-0.052775656
0
-0.057105792
0
-0.061782548
0
-0.066751561
2.0498118e-14
-0.071936286
4.577945e-19
-0.077385218
0
-0.083226195
3.7084255e-14
-0.089653754
-4.3185101e-19
-0.096894052
0
-0.10494754
0
-0.11367742
0
-0.12301217
-1.2420251e-05
-0.0017623714
-1.9633097e-05
-0.0030688683
0
-0.0039842411
0
-0.0057372145
0
-0.0077030721
9.4066977e-19
-0.009679411
-9.1122363e-15
-0.01190506
-8.8084229e-15
-0.014396294
-1.7029422e-14
-0.016854534
-6.6750016e-19
-0.019311173
0
-0.021908251
0
-0.024536946
8.762189e-19
-0.027181213
-1.4357916e-14
-0.029930011
0
-0.032803915
1.3410008e-14
-0.035806096
-1.295983e-14
-0.038929191
0
-0.042217443
1.2108867e-14
-0.045738506
0
-0.04949654
0
-0.05348398
0
-0.057778322
2.1167484e-14
-0.062438887
0
-0.067390482
-1.9799305e-14
-0.072561382
0
-0.078010146
-1.8520004e-14
-0.083874271
0
-0.090352806
0
-0.097675957
0
-0.10582202
0
-0.11463017
3.1257853e-14
-0.12402421
-1.5317374e-05
-0.001752166
-3.2972664e-05
-0.0030689534
-2.9112398e-05
-0.0043111166
-1.0073743e-14
-0.0053823408
0
-0.0072369245
0
-0.0090952497
9.5051345e-19
-0.011183103
-9.6125733e-19
-0.013528135
8.5135807e-15
-0.015837585
-8.2287186e-15
-0.018137805
7.9526232e-15
-0.020593184
0
-0.023079534
0
-0.025567936
0
-0.02815809
0
-0.030864735
1.3402642e-14
-0.033689035
0
-0.036613982
0
-0.039672748
-2.4197359e-14
-0.042935149
-1.1695065e-14
-0.046430336
-1.1306546e-14
-0.050135981
0
-0.054073286
0
-0.058342728
0
-0.062990874
0
-0.067933538
0
-0.073097441
3.6992713e-14
-0.078555392
-1.7887722e-14
-0.084448815
0
-0.090985324
3.5635473e-19
-0.098390694
3.2330312e-14
-0.10662166
0
-0.11551243
-3.0182904e-14
-0.12495643
-1.6384899e-05
-0.0017423991
-4.0745816e-05
-0.0030672776
-4.9023785e-05
-0.0043331309
-3.871033e-05
-0.005783087
0
-0.0067930782
-9.4226467e-15
-0.0085414172
0
-0.010498732
9.6353749e-19
-0.01270427
0
-0.014872277
0
-0.017022919
-7.9512615e-15
-0.019342606
7.6831128e-15
-0.021694048
0
-0.024034945
0
-0.02647596
0
-0.029025723
0
-0.03168627
-5.0923149e-19
-0.034431364
0
-0.037285152
1.2090092e-14
-0.040312412
-3.4270427e-19
-0.043555753
-1.1295313e-14
-0.047011156
1.0919895e-14
-0.050659697
0
-0.054554107
2.041984e-14
-0.058807141
1.9747681e-14
-0.06345364
0
-0.068391526
0
-0.073556127
0
-0.079029705
1.7276086e-14
-0.08495972
-1.670505e-14
-0.091553922
0
-0.099041777
0
-0.1073596
0
-0.11631952
0
-0.12581442
-1.5907663e-05
-0.0017332777
-4.3675413e-05
-0.0030660774
-6.0752945e-05
-0.004352853
-6.5307636e-05
-0.0058317252
-4.8553981e-05
-0.0072482092
-9.4218466e-15
-0.008013905
0
-0.0098504704
0
-0.011923088
7.9116906e-19
-0.013956991
-6.4261246e-19
-0.015965816
-7.9507011e-15
-0.018155374
-7.6822339e-15
-0.02037832
-7.4234257e-15
-0.022579352
0
-0.024880655
0
-0.027282706
-1.3391221e-14
-0.029790489
1.29389e-14
-0.032370442
1.2502458e-14
-0.035039242
0
-0.037856595
0
-0.040865032
-1.1285148e-14
-0.044079291
0
-0.047483468
1.0546395e-14
-0.051076222
0
-0.054939161
0
-0.059186481
0
-0.06383422
0
-0.068775446
1.7840643e-14
-0.073946395
1.7254057e-14
-0.079442548
-1.6685322e-14
-0.085411058
2.7028504e-19
-0.092067761
0
-0.099637613
3.014876e-14
-0.10803327
0
-0.11706543
6.7701387e-19
-0.12659962
-1.4165083e-05
-0.0017249562
-4.2495174e-05
-0.0030654819
-6.5311724e-05
-0.0043723804
-8.1064841e-05
-0.0058763153
-8.1959566e-05
-0.007329762
-5.6938654e-05
-0.0084865174
0
-0.0092351163
8.8061985e-15
-0.011182681
0
-0.013090083
6.324392e-19
-0.014964665
-7.9496689e-15
-0.017029993
0
-0.019130332
0
-0.021198481
0
-0.023368584
0
-0.025631439
0
-0.02799671
-1.2933332e-14
-0.030423301
0
-0.032922339
1.2074156e-14
-0.035552074
1.1667836e-14
-0.038347967
1.1275767e-14
-0.041330454
1.0898726e-14
-0.044505258
0
-0.047852235
-1.0185542e-14
-0.051395645
0
-0.055239633
0
-0.059488132
-1.8420883e-14
-0.064145284
0
-0.069093789
0
-0.0742773
1.6663724e-14
-0.079798422
0
-0.085811472
0
-0.092531011
3.0121637e-14
-0.10018234
-2.9111377e-14
-0.10865391
-2.8128015e-14
-0.1177433
0
-0.12731867
-1.1435499e-05
-0.0017176209
-3.792187e-05
-0.0030654968
-6.3734784e-05
-0.0043915845
-8.7296397e-05
-0.0059186734
-0.0001017883
-0.0074032642
-9.6098363e-05
-0.0085988941
-6.3905171e-05
-0.0097059904
0
-0.010479603
0
-0.012269868
0
-0.014018515
6.3354036e-19
-0.015964026
7.6799214e-15
-0.01794793
0
-0.01988993
0
-0.021936264
-3.3792255e-19
-0.024068088
0
-0.02629988
0
-0.028583602
0
-0.030925479
-1.2067839e-14
-0.033385126
0
-0.035990782
1.1267428e-14
-0.038757987
0
-0.041706527
-1.0524715e-14
-0.04483289
-1.0174097e-14
-0.048123835
0
-0.051630822
0
-0.055466091
0
-0.059721779
-1.7790821e-14
-0.064392269
0
-0.06935573
0
-0.07455399
-1.6092877e-14
-0.080106328
-1.5561472e-14
-0.086166478
2.1840568e-19
-0.092952643
1.4543203e-14
-0.10068054
2.8109637e-14
-0.10921694
0
-0.11836479
0
-0.1279689
-7.988538e-06
-0.0017114752
-3.0680418e-05
-0.0030662277
-5.7040309e-05
-0.0044103223
-8.5320591e-05
-0.0059587833
-0.00010964822
-0.0074708829
-0.0001193035
-0.008697052
-0.00010782112
-0.0098529462
-7.0376007e-05
-0.010935218
0
-0.011490906
0
-0.013126497
7.947354e-15
-0.014956003
5.4938162e-19
-0.016828723
-7.4195554e-15
-0.018651824
0
-0.020580886
0
-0.022588468
-3.0411278e-19
-0.024695246
0
-0.026845616
0
-0.029040745
0
-0.031344876
0
-0.033780023
0
-0.036352006
0
-0.0390831
0
-0.041992717
-1.016335e-14
-0.045069113
9.8252285e-15
-0.0483099
9.4993599e-15
-0.051791387
0
-0.055625053
0
-0.059893988
-1.7181922e-14
-0.064586509
0
-0.069566874
0
-0.0747854
0
-0.08037111
0
-0.086482965
0
-0.093334688
0
-0.10113507
0
-0.10973291
0
-0.11892387
5.0997562e-19
-0.12855798
-4.0899059e-06
-0.0017066277
-2.1475441e-05
-0.0030677744
-4.6273997e-05
-0.0044282888
-7.6479886e-05
-0.0059962658
-0.00010718786
-0.0075323733
-0.00012844599
-0.0087840855
-0.0001337853
-0.0099825457
-0.0001187121
-0.011123299
-7.5555055e-05
-0.011902843
0
-0.012282553
0
-0.014004067
0
-0.015770321
7.4185815e-15
-0.017481621
7.1665146e-15
-0.019299755
0
-0.021189372
0
-0.023178127
6.4600752e-15
-0.025203827
0
-0.027261446
0
-0.029422047
0
-0.031702872
0
-0.034099796
0
-0.036630309
-1.050599e-14
-0.039324206
0
-0.042194086
-9.8144103e-15
-0.045220093
4.7935763e-20
-0.048418696
9.1736318e-15
-0.051884348
0
-0.055724728
0
-0.060014357
-1.6593513e-14
-0.064732594
0
-0.069736205
1.5520081e-14
-0.074976027
1.5008214e-14
-0.08059932
0
-0.086765061
2.8056729e-14
-0.093684028
0
-0.10155306
0
-0.11019893
0
-0.11943326
0
-0.12908414
-0.0017030674
0
-1.1016241e-05
-0.0030701912
-3.247397e-05
-0.004445245
-6.212842e-05
-0.0060306206
-9.6090447e-05
-0.0075874359
-0.00012547829
-0.008860263
-0.00014394613
-0.01009628
-0.0001472788
-0.011289719
-0.00012737655
-0.012123865
-7.8754038e-05
-0.012634699
-7.9473047e-15
-0.013103149
-7.6774529e-15
-0.014770045
0
-0.016376742
3.8554601e-19
-0.018089822
-3.3539809e-19
-0.019867513
0
-0.021744734
-6.4586245e-15
-0.02365339
6.2382953e-15
-0.025581622
0
-0.027608663
0
-0.029748747
0
-0.031987773
-1.0864989e-14
-0.034337405
0
-0.036826804
0
-0.039486824
0
-0.042316988
-9.4771223e-15
-0.04529287
-9.1621859e-15
-0.048456339
8.8589322e-15
-0.051917596
0
-0.055772238
0
-0.060089388
-1.6024917e-14
-0.064840489
0
-0.06986849
0
-0.075132692
0
-0.080794082
0
-0.087018106
-1.3545088e-14
-0.094007426
0
-0.10193839
0
-0.11062444
0
-0.11988574
0
-0.12955492
-0.0030733505
0
-0.0017008457
4.079245e-06
-1.6696235e-05
-0.0044610256
-4.3654452e-05
-0.0060613014
-7.8054931e-05
-0.0076353482
-0.0001123962
-0.0089257565
-0.00014051943
-0.01019423
-0.00015842585
-0.011436298
-0.00015794223
-0.012316698
-0.00013268221
-0.01289169
-8.1043059e-05
-0.013393915
0
-0.013820846
0
-0.015334849
0
-0.016947856
3.3577038e-19
-0.018620247
-6.6852713e-15
-0.020391357
0
-0.022189786
-6.2367088e-15
-0.023996257
6.0236832e-15
-0.025898371
0
-0.027908674
0
-0.030004102
0
-0.03219128
1.0490291e-14
-0.034494301
-1.0136167e-14
-0.036948274
5.0481854e-20
-0.039578914
9.4669972e-15
-0.042363809
9.1513122e-15
-0.045289434
-2.8088662e-20
-0.048431042
2.5965706e-20
-0.05189799
0
-0.055775668
0
-0.060127024
3.6619985e-20
-0.064914534
0
-0.069970598
1.4473232e-14
-0.075257923
2.7989266e-14
-0.080961516
1.3529823e-14
-0.087250572
1.3078293e-14
-0.094311991
1.2639112e-14
-0.10229468
-2.4423428e-14
-0.111005
0
-0.12029171
2.2783015e-14
-0.12996698
-0.0044754087
0
-0.0030772049
1.1023711e-05
-0.0017001113
7.9483836e-06
-2.2466776e-05
-0.006087962
-5.4835323e-05
-0.0076754578
-9.1227031e-05
-0.0089806617
-0.00012575897
-0.010276553
-0.00015460983
-0.011562514
-0.00016981794
-0.012485445
-0.0001644172
-0.013115361
-0.00013651083
-0.01369281
-8.2868901e-05
-0.014043348
0
-0.014348942
0
-0.015870765
0
-0.017443763
-1.3368065e-14
-0.019114632
6.4555918e-15
-0.020808856
-1.2470149e-14
-0.022500608
6.0219989e-15
-0.024285477
5.8162179e-15
-0.026175704
0
-0.028139204
0
-0.030179182
-1.0483532e-14
-0.03231509
0
-0.034576017
0
-0.037002833
9.4575321e-15
-0.039600009
0
-0.042332874
8.8365377e-15
-0.04521836
8.5434731e-15
-0.04835118
8.2612635e-15
-0.051834281
0
-0.055741493
0
-0.060133663
1.49446e-14
-0.064962513
0
-0.07004543
0
-0.075358101
1.3513206e-14
-0.081106904
1.3063663e-14
-0.087466871
0
-0.094599763
-1.2202034e-14
-0.1026231
0
-0.11134854
0
-0.12064538
0
-0.13032885
-0.0061102034
0
-0.0044884062
1.6770797e-05
-0.0030815757
2.1504317e-05
-0.0017009758
1.1352723e-05
-2.8212514e-05
-0.0077075261
-6.4037415e-05
-0.009025079
-0.00010199309
-0.010343684
-0.00013832849
-0.011667946
-0.00016565832
-0.012629939
-0.0001766624
-0.01330999
-0.00016911338
-0.013953679
-0.00013959126
-0.014387238
-8.3609249e-05
-0.014496698
1.4327868e-14
-0.014851225
0
-0.016334542
-6.6829322e-15
-0.017910125
2.4791792e-19
-0.019506229
-6.2338033e-15
-0.02109024
6.0203871e-15
-0.022764943
5.8143075e-15
-0.024543338
0
-0.02638497
0
-0.028290609
1.0477457e-14
-0.030276591
1.0121432e-14
-0.032362267
0
-0.034591089
0
-0.036993391
0
-0.039548217
8.8262122e-15
-0.04223155
8.5325361e-15
-0.04508959
0
-0.04822629
7.9776131e-15
-0.051732819
0
-0.055677657
0
-0.060115923
1.4431601e-14
-0.064987462
0
-0.070099076
0
-0.075436564
1.3047875e-14
-0.081234735
0
-0.087671466
0
-0.094873592
0
-0.10292651
-2.2760602e-14
-0.11165206
0
-0.12095872
-2.1227165e-14
-0.13063772
-0.0077312239
0
-0.0061286191
2.2600304e-05
-0.00449957
3.27593e-05
-0.0030862763
3.0741232e-05
-0.0017034129
1.4033345e-05
-3.2922266e-05
-0.009059036
-7.1537343e-05
-0.010395643
-0.00011214154
-0.011752249
-0.00014815121
-0.012749876
-0.00017222906
-0.013475353
-0.00018165577
-0.014179239
-0.00017291542
-0.014686479
-0.00014085349
-0.014884184
-8.3578666e-05
-0.01492179
0
-0.015286014
0
-0.016773872
-6.4537227e-15
-0.018277773
6.2326199e-15
-0.019760844
-1.4120483e-19
-0.021331811
-1.1625124e-14
-0.023005671
-5.6134355e-15
-0.024734248
5.4212299e-15
-0.026516266
0
-0.028367268
0
-0.030296019
0
-0.032341125
0
-0.034547144
-9.1225694e-15
-0.036918556
0
-0.039428183
-8.5221655e-15
-0.042069956
-8.2390709e-15
-0.044913156
0
-0.048063238
8.2784621e-20
-0.051602138
-1.4900156e-14
-0.055589845
0
-0.060078887
0
-0.064995457
0
-0.070134276
-1.3030817e-14
-0.075497769
0
-0.081349138
1.2177666e-14
-0.08786609
1.1769148e-14
-0.095134463
0
-0.10320657
0
-0.11192182
0
-0.12122409
0
-0.13090072
-0.0090820365
0
-0.007747878
2.8355702e-05
-0.0061429118
4.4169075e-05
-0.0045082213
4.6870479e-05
-0.0030913524
3.8018887e-05
-0.0017076692
1.5736831e-05
-3.6750584e-05
-0.010431999
-7.86136e-05
-0.011814807
-0.00012004922
-0.012844614
-0.00015394508
-0.013611415
-0.00017702593
-0.01436928
-0.00018571064
-0.014945572
-0.00017451203
-0.015223787
-0.00014084957
-0.015354227
-8.3196358e-05
-0.015277709
0
-0.015699569
-6.452613e-15
-0.017119526
0
-0.018508747
1.385318e-19
-0.01998192
5.8110239e-15
-0.021557218
0
-0.023180474
1.0838448e-14
-0.024848172
-2.6860622e-20
-0.02657682
0
-0.028365255
9.7650636e-15
-0.030243958
-9.4334628e-15
-0.03226281
0
-0.034445894
8.8076262e-15
-0.036783423
0
-0.039248343
0
-0.041856891
-1.4004086e-19
-0.044696916
0
-0.04787087
0
-0.051447739
0
-0.055484592
0
-0.060027104
-2.4473368e-20
-0.064988895
0
-0.070155085
-1.2581962e-14
-0.075544869
-1.2163477e-14
-0.081453474
1.1756836e-14
-0.088053827
1.3739337e-19
-0.095385548
1.0977398e-14
-0.10346096
2.1208018e-14
-0.11215327
0
-0.12145053
0
-0.13111441
-0.010452251
0
-0.0090961092
3.3042741e-05
-0.0077572821
5.5389956e-05
-0.0061519119
6.3212669e-05
-0.0045143053
5.7995924e-05
-0.0030966693
4.2632025e-05
-0.0017140807
1.6197948e-05
-4.0359334e-05
-0.011855017
-8.4118041e-05
-0.012913771
-0.00012467883
-0.013717961
-0.0001581587
-0.01452375
-0.00018094054
-0.015163856
-0.00018746863
-0.015519269
-0.00017456996
-0.015734658
-0.00014025766
-0.015755479
-8.2490908e-05
-0.015610793
0
-0.016023523
0
-0.017330464
6.0165367e-15
-0.01871099
0
-0.020193429
-5.610149e-15
-0.021717927
0
-0.023279317
0
-0.024896133
1.2316773e-20
-0.026558798
0
-0.02828828
0
-0.030135916
-9.1069744e-15
-0.032135481
-8.7991891e-15
-0.034293782
8.5034481e-15
-0.036592935
0
-0.03901449
0
-0.041599976
7.6817032e-15
-0.0444504
7.4280167e-15
-0.047655163
0
-0.051276881
0
-0.055365933
0
-0.059964517
0
-0.064971912
-1.2564901e-14
-0.070163291
1.2148207e-14
-0.075581581
1.1743456e-14
-0.081550657
-1.1350239e-14
-0.088236155
-1.0967886e-14
-0.095621431
1.0596351e-14
-0.10368974
2.0141334e-19
-0.11235189
0
-0.12163277
0
-0.13128667
-0.01187261
0
-0.010459348
3.6830335e-05
-0.0091005643
6.4500744e-05
-0.0077580995
7.9235221e-05
-0.0061555795
7.8230788e-05
-0.0045175323
6.5025688e-05
-0.0031022316
4.3853992e-05
-0.001722604
1.5144102e-05
-4.3164091e-05
-0.012957073
-8.73249e-05
-0.013794634
-0.00012803616
-0.014642547
-0.00016162626
-0.0153409
-0.00018268934
-0.015769632
-0.00018757718
-0.01606632
-0.00017388707
-0.016177394
-0.00013913832
-0.016132572
-8.1456654e-05
-0.015852357
-6.2302083e-15
-0.016218237
0
-0.017515199
0
-0.018909224
9.2823466e-20
-0.020341424
-4.890998e-20
-0.021803739
-5.2295621e-15
-0.023317558
-5.0500378e-15
-0.024866681
4.877047e-15
-0.026462617
0
-0.02815599
0
-0.029985242
-1.4610475e-19
-0.031965321
0
-0.034093109
0
-0.036349433
0
-0.038733042
0
-0.041310072
-1.7238358e-19
-0.044180122
-7.172789e-15
-0.047423525
0
-0.051093752
0
-0.055238828
1.2975069e-14
-0.0598942
0
-0.064945751
1.2131995e-14
-0.07016245
-1.1729024e-14
-0.075610456
1.1337594e-14
-0.081642521
-1.0957234e-14
-0.088408909
1.251687e-19
-0.095842985
1.0228168e-14
-0.10389067
0
-0.11251551
0
-0.12178081
0
-0.13141442
-0.012974162
0
-0.011872119
4.0383273e-05
-0.01045324
7.1843225e-05
-0.0090921249
9.2202951e-05
-0.0077507701
9.8018844e-05
-0.0061540986
8.7713317e-05
-0.0045174301
6.683665e-05
-0.0031075719
4.0947487e-05
-0.0017333244
1.2293578e-05
-4.4792906e-05
-0.013841307
-8.9636035e-05
-0.014725859
-0.00013080213
-0.015476258
-0.00016320073
-0.015974199
-0.00018284156
-0.01634798
-0.00018690127
-0.01654583
-0.00017254621
-0.016594613
-0.00013740154
-0.01641343
-7.9825022e-05
-0.015965624
6.0152127e-15
-0.016388477
0
-0.017699895
5.6075432e-15
-0.019045788
5.4144016e-15
-0.020415931
-1.6815331e-20
-0.021834472
0
-0.023280531
-4.8747439e-15
-0.024756518
-4.7076784e-15
-0.026311652
0
-0.027986667
0
-0.029798972
0
-0.031754207
0
-0.033844543
7.9262084e-15
-0.036055752
-2.2153769e-19
-0.038412962
0
-0.040994667
7.1621795e-15
-0.043894366
6.9260438e-15
-0.047180802
0
-0.05090394
0
-0.055105849
0
-0.059818751
-1.211507e-14
-0.064913407
-1.1713697e-14
-0.070153981
0
-0.075633405
-1.094533e-14
-0.081725516
-1.0577466e-14
-0.08857245
1.0219949e-14
-0.096040949
-9.872475e-15
-0.10406541
0
-0.11264775
0
-0.12188822
0
-0.1315045
-0.013857488
0
-0.012970817
4.3150783e-05
-0.011854077
7.8710463e-05
-0.010429885
0.00010262153
-0.0090705396
0.00011397205
-0.007735236
0.000109861
-0.006147235
9.0149864e-05
-0.0045137503
6.2322038e-05
-0.0031131965
3.3181137e-05
-0.0017459808
7.3464655e-06
-4.5960517e-05
-0.014773922
-9.1542426e-05
-0.01557015
-0.00013208485
-0.01613209
-0.0001633874
-0.016578735
-0.00018223585
-0.016859155
-0.0001855211
-0.016998264
-0.00017044053
-0.016910418
-0.00013468418
-0.016562047
-7.7840057e-05
-0.016056208
0
-0.016560246
0
-0.017826092
0
-0.019110701
1.0452916e-14
-0.020440811
5.0463421e-15
-0.021792772
7.0578192e-20
-0.0231608
0
-0.024592046
4.5442487e-15
-0.026128528
0
-0.027788248
0
-0.029578932
0
-0.031499412
0
-0.033542215
0
-0.035716041
-7.3975548e-15
-0.038063133
0
-0.040662813
-6.9159604e-15
-0.043598148
-6.6880558e-15
-0.046932721
6.4679296e-15
-0.05070996
0
-0.054970448
0
-0.05973969
0
-0.064875692
1.1309469e-14
-0.070139901
0
-0.075648507
-1.056629e-14
-0.081800971
0
-0.088716853
-9.8648124e-15
-0.096218181
-1.9057725e-14
-0.10420927
0
-0.1127462
0
-0.12196417
0
-0.13155206
-0.014786925
0
-0.013849844
4.4756249e-05
-0.012947217
8.407087e-05
-0.01181446
0.00011234619
-0.01038851
0.00012673817
-0.009035097
0.00012762758
-0.0077113897
0.00011288706
-0.0061350121
8.405065e-05
-0.0045063499
5.0394037e-05
-0.0031191869
1.9785233e-05
-0.0017591914
1.2441429e-18
-4.6920844e-05
-0.015622937
-9.2442573e-05
-0.016242767
-0.00013226702
-0.016757526
-0.00016287842
-0.017116282
-0.00018092675
-0.017341872
-0.0001832814
-0.017345425
-0.0001670965
-0.017091872
-0.00013137794
-0.016688291
-7.5859216e-05
-0.016149799
0
-0.016677184
0
-0.017883246
0
-0.019130836
5.0447949e-15
-0.020396526
4.8709054e-15
-0.021667117
-4.7031544e-15
-0.022987313
4.5416741e-15
-0.024399827
0
-0.02592191
0
-0.027561013
0
-0.029316925
0
-0.031189121
7.6435473e-15
-0.033189387
7.3882874e-15
-0.035341828
-2.5665011e-19
-0.037694548
0
-0.040320697
-6.6782426e-15
-0.043297823
6.4579402e-15
-0.046682152
6.2455219e-15
-0.050515835
0
-0.054833867
0
-0.059658705
-4.6791111e-20
-0.064834175
1.0918887e-14
-0.070119367
0
-0.075657453
0
-0.081861933
0
-0.08884394
1.9043389e-14
-0.096366446
0
-0.1043243
0
-0.1128161
0
-0.1220033
-1.6555908e-14
-0.13156144
-0.015635172
0
-0.014772893
4.589102e-05
-0.013818516
8.7183748e-05
-0.012898004
0.0001199603
-0.01175353
0.000138654
-0.010328333
0.0001417841
-0.0089854601
0.00013101338
-0.0076787375
0.00010523052
-0.0061165354
6.792994e-05
-0.0044956137
2.9973437e-05
-0.0031238717
0
-0.0016115024
0
-4.7378115e-05
-0.016306239
-9.2584795e-05
-0.016883527
-0.00013187879
-0.017316148
-0.0001617392
-0.017624221
-0.00017877265
-0.017716352
-0.00017972581
-0.01755673
-0.00016304074
-0.017251596
-0.00012806938
-0.016817084
-7.3781249e-05
-0.016191758
0
-0.016729163
0
-0.017899479
0
-0.019085455
-8.4582544e-20
-0.020267959
4.7013846e-15
-0.021488539
0
-0.022790017
0
-0.024188609
4.2338971e-15
-0.025690509
0
-0.027293862
0
-0.02900111
-7.6357625e-15
-0.030827161
0
-0.032797722
0
-0.034946044
0
-0.037314871
0
-0.039974876
-6.4483471e-15
-0.042996246
-6.2360087e-15
-0.046433364
-6.0305899e-15
-0.050323014
0
-0.054698223
0
-0.059576212
-1.090455e-14
-0.064788751
-1.0541479e-14
-0.070094375
0
-0.075656803
0
-0.081909862
-9.5135691e-15
-0.088945044
9.1902373e-15
-0.096489446
-8.8761337e-15
-0.10440932
-1.7142153e-14
-0.1128566
0
-0.12200983
-0.0011958334
-0.13033503
-0.016322561
0
-0.015616544
4.682018e-05
-0.014731984
8.9366307e-05
-0.013757087
0.00012438293
-0.012823915