/*--------------------------------*- C++ -*----------------------------------*\
| =========                 |                                                 |
| \\      /  F ield         | OpenFOAM: The Open Source CFD Toolbox           |
|  \\    /   O peration     | Version:  v2012                                 |
|   \\  /    A nd           | Website:  www.openfoam.com                      |
|    \\/     M anipulation  |                                                 |
\*---------------------------------------------------------------------------*/
FoamFile
{
    version     2.0;
    format      ascii;
    class       volScalarField;
    location    "59.2651423941488815";
    object      p;
}
// * * * * * * * * * * * * * * * * * * * * * * * * * * * * * * * * * * * * * //

dimensions      [0 2 -2 0 0 0 0];


internalField   nonuniform List<scalar> 
9200
(
0.017673828
0.019688749
0.024391721
0.021226358
0.026397409
0.047200954
0.024970905
0.027607407
0.050066722
0.063058288
0.029785904
0.031309657
0.052837371
0.066058506
0.077947932
0.036330355
0.036013259
0.058669333
0.069164386
0.080949436
0.090466616
0.044089223
0.042783293
0.0658081
0.075105548
0.084221086
0.093270013
0.10147038
0.050270036
0.051796066
0.075174588
0.082291554
0.090150772
0.0964319
0.10400626
0.11110798
0.052695532
0.064141831
0.086422268
0.091358259
0.097215524
0.10192282
0.10694141
0.11334112
0.11966976
0.053853923
0.080171763
0.099331691
0.10194147
0.10582605
0.10835941
0.11187665
0.11596964
0.12159706
0.12736018
0.053662704
0.09935237
0.11324484
0.11394878
0.11553001
0.11598664
0.11758206
0.12027876
0.12388941
0.1289785
0.1343344
0.050422252
0.12091658
0.12774625
0.12702719
0.12603297
0.12435401
0.1241759
0.12519656
0.12757215
0.13092403
0.1356991
0.14064422
0.046395194
0.14179589
0.14221498
0.1405576
0.13685635
0.1331624
0.13123193
0.13074746
0.13173554
0.13401018
0.13723002
0.14196372
0.14644881
0.04172601
0.15702869
0.15534273
0.15366576
0.14749482
0.14202451
0.13844072
0.13655362
0.13631952
0.13747638
0.13979973
0.14287424
0.14741539
0.15186965
0.034678275
0.16821382
0.16624908
0.16543499
0.15739441
0.15050344
0.1454513
0.14230251
0.14100905
0.14118568
0.14264192
0.14509004
0.14837764
0.15254891
0.15693062
0.025945175
0.17826147
0.17514099
0.1751761
0.16599776
0.15813438
0.15194702
0.14767597
0.14551828
0.14490145
0.14559422
0.14739426
0.15003782
0.15343272
0.15739352
0.16169687
0.015850232
0.18521313
0.18159313
0.18264265
0.17296093
0.16459403
0.15759702
0.15273646
0.1496417
0.14835625
0.14847032
0.14969098
0.15185155
0.15467648
0.15816019
0.16197638
0.16621005
0.0036867781
0.18837643
0.18494101
0.18770202
0.17805207
0.16962433
0.16216742
0.15675927
0.15323628
0.15140962
0.15104113
0.15185875
0.15357763
0.15607645
0.15906037
0.16262265
0.16632804
0.17050295
-0.0098240045
0.18806644
0.18557049
0.19030057
0.18121237
0.17312925
0.16556245
0.15989438
0.15606552
0.15390496
0.15319422
0.15368221
0.15514907
0.15731939
0.16011469
0.16323315
0.16686276
0.17047585
0.17460185
-0.022275737
0.18443373
0.18374717
0.19045035
0.18238138
0.17503299
0.16770166
0.16203473
0.15808073
0.15573433
0.15480206
0.15508402
0.15635029
0.15839536
0.16095751
0.16399941
0.16722545
0.17091048
0.17444326
0.17852823
-0.031381348
0.17796804
0.17952452
0.18830717
0.18163055
0.17535243
0.16858109
0.16316315
0.15926383
0.15686234
0.15581377
0.15596168
0.15713107
0.15908756
0.16163002
0.16451533
0.16775197
0.17105847
0.1747878
0.17824951
0.18230017
-0.036096254
0.1692734
0.17302832
0.18405547
0.17910573
0.17416437
0.1682388
0.16331637
0.15964624
0.1573064
0.15621955
0.1562908
0.15740248
0.15936256
0.16191591
0.16486738
0.16800327
0.17138458
0.17474664
0.17851149
0.1819106
0.185933
-0.03640548
0.15892696
0.16453769
0.17792745
0.17500272
0.1715747
0.1667501
0.16254466
0.15928034
0.15712025
0.15605965
0.15607794
0.15715153
0.15913683
0.16179268
0.16484133
0.16810798
0.17142222
0.17490276
0.17830004
0.18209478
0.18544018
0.18944001
-0.032778305
0.14738856
0.154443
0.17022101
0.16955042
0.16770298
0.16419356
0.16096372
0.15825787
0.15637849
0.15540506
0.15537497
0.15638914
0.15839797
0.16117605
0.16442322
0.16785559
0.17134121
0.17476615
0.17830782
0.18172597
0.18554867
0.18885017
0.19283282
-0.024480384
0.13499186
0.14318253
0.16128343
0.16300211
0.16267134
0.16062579
0.15862959
0.15669009
0.15521278
0.15436018
0.15426376
0.15516526
0.15714976
0.16004635
0.163525
0.16724139
0.17093723
0.17454809
0.17802476
0.18159881
0.1850304
0.18888278
0.19215118
0.19612181
-0.014201587
0.12247001
0.13115773
0.1514737
0.15562336
0.15660306
0.15608384
0.15558365
0.15457832
0.15366687
0.15304397
0.15286224
0.15355806
0.15542938
0.15839154
0.16211602
0.16617428
0.17021784
0.17405355
0.17770422
0.18118591
0.18477425
0.18821885
0.192106
0.19535286
0.19931626
-0.0047526349
0.11188787
0.11854937
0.14113946
0.14768486
0.14962007
0.15056409
0.15190739
0.15199037
0.1518633
0.15151245
0.1512842
0.15166931
0.15329767
0.15622599
0.16016347
0.16461341
0.1690928
0.1733068
0.17716375
0.18078293
0.18423774
0.18783338
0.19129708
0.19522677
0.19846406
0.20242451
0.0034163194
0.10517805
0.10631823
0.13058132
0.13944228
0.14184884
0.14403118
0.14759799
0.14901619
0.15001918
0.15004334
0.14969275
0.14960481
0.15083274
0.15358094
0.15765217
0.16250575
0.16751611
0.17222462
0.17644919
0.18022297
0.1837583
0.18717045
0.19077698
0.19427141
0.19825333
0.2014929
0.20545405
0.012189601
0.10086911
0.094508924
0.11984161
0.13112907
0.13341948
0.13639944
0.14264038
0.14563548
0.14797573
0.14876756
0.14819036
0.14750684
0.14812925
0.1505024
0.15457502
0.15980618
0.16542059
0.17076379
0.17549135
0.1795779
0.18318665
0.18660771
0.18997746
0.19360785
0.19714888
0.20119373
0.20444687
0.20841155
0.023001854
0.095953205
0.083145214
0.10921328
0.12292611
0.12448946
0.12752451
0.13699787
0.14178944
0.14563937
0.14753862
0.14667613
0.14545826
0.14529108
0.14705166
0.15093338
0.15646758
0.16273819
0.16885303
0.17425897
0.17879915
0.18262409
0.18601446
0.18931375
0.19265614
0.1963309
0.19993718
0.2040558
0.20733274
0.2113029
0.0364304
0.089032173
0.073211617
0.098945262
0.11498988
0.1152163
0.11722179
0.1306008
0.1373917
0.14303314
0.14642861
0.14552205
0.14357764
0.14240929
0.143295
0.14673597
0.15244075
0.15938938
0.1664136
0.17268827
0.17787614
0.18204794
0.1855233
0.18867342
0.19186538
0.19520795
0.19895307
0.20264451
0.20684703
0.21015661
0.21413319
0.053044187
0.079610854
0.065488153
0.089101044
0.10744064
0.1058527
0.10521426
0.12335461
0.13236223
0.13998036
0.14553286
0.144907
0.14198626
0.13957907
0.13930443
0.14199553
0.14767226
0.15528219
0.16334821
0.17070413
0.17676363
0.18147546
0.18514089
0.1882205
0.19113987
0.19425835
0.19763827
0.2014829
0.20527927
0.20957447
0.21292383
0.21690681
0.073000014
0.067316844
0.05939855
0.079703592
0.10031866
0.096445788
0.091254747
0.11511898
0.1265872
0.13625879
0.14478645
0.14464003
0.14071296
0.13687488
0.1351508
0.13672984
0.14210133
0.15030939
0.15953971
0.1682086
0.17540332
0.1808888
0.18491724
0.1879924
0.19067352
0.19340049
0.196495
0.19995586
0.20393019
0.20784988
0.21224461
0.21563902
0.2196274
0.095337099
0.054666831
0.054019296
0.069855435
0.093539569
0.087575809
0.075262999
0.10584852
0.11999766
0.13145152
0.1440927
0.14470484
0.13975887
0.13433144
0.13088822
0.13095833
0.13565785
0.14434286
0.15484829
0.16508002
0.17371229
0.18025687
0.18486805
0.18807438
0.19053383
0.19285499
0.19545223
0.19858364
0.20217219
0.20630541
0.21036443
0.21486328
0.21830606
0.2222979
0.11787813
0.043397637
0.047777347
0.059046411
0.086528776
0.079239477
0.058519997
0.09522379
0.11268819
0.12511876
0.14321387
0.14502593
0.13905399
0.13193381
0.12655189
0.12469744
0.12825726
0.13722911
0.14910412
0.16117029
0.17158243
0.17952317
0.18499631
0.18851904
0.19084138
0.19271687
0.19475271
0.1973016
0.20053751
0.20430063
0.2086193
0.21283051
0.21743556
0.22092813
0.22492071
0.13884218
0.033483484
0.038621093
0.048231794
0.078794697
0.0718101
0.040693081
0.082592659
0.10460318
0.11683731
0.14206417
0.14541847
0.13846508
0.12961191
0.12212741
0.11796228
0.11979719
0.12877913
0.14210537
0.15629714
0.16887807
0.17860518
0.18527894
0.18936732
0.19168653
0.19313995
0.19451482
0.19636902
0.19896335
0.20237365
0.20635569
0.2108824
0.21525502
0.21996583
0.22350772
0.22749773
0.1576439
0.024440398
0.027582695
0.037841873
0.070153598
0.063241253
0.023222848
0.06705113
0.09514694
0.1066148
0.14014375
0.14570548
0.13776175
0.12723144
0.11756388
0.11074767
0.11015458
0.11875381
0.13360252
0.15024459
0.16542955
0.17739185
0.1856649
0.19063313
0.19314945
0.19425085
0.19492151
0.1959221
0.19771917
0.20045884
0.20411168
0.20835221
0.21310465
0.21764402
0.22245765
0.22604674
0.23003016
0.17290362
0.016431627
0.015700819
0.027584857
0.060720674
0.053563379
0.0042477756
0.049690464
0.082755291
0.095557786
0.13750121
0.1453483
0.13666427
0.12457872
0.11273472
0.10305095
0.0991811
0.10684652
0.12328648
0.14273659
0.16103372
0.17573833
0.18607138
0.19229916
0.19528237
0.19616805
0.19613202
0.19616711
0.19695239
0.19882908
0.20181423
0.20577251
0.21030472
0.21529512
0.22000267
0.22491386
0.22854648
0.23251844
0.18336993
0.0078821861
0.00225421
0.017130567
0.050816972
0.043024935
-0.012294675
0.025935549
0.06648394
0.084198727
0.13323711
0.14406682
0.13463655
0.12140658
0.10747867
0.094797868
0.086733662
0.092661414
0.1107853
0.13344639
0.15542733
0.17346615
0.1863781
0.19431038
0.19810235
0.19898169
0.1983002
0.19729041
0.19688551
0.19763584
0.19973287
0.20305861
0.20737728
0.21222685
0.21746178
0.22233517
0.22733653
0.2310077
0.23496367
0.18822701
-0.0023707146
-0.011612448
0.0061761482
0.040874048
0.031281583
-0.027674997
0.00079504473
0.042911856
0.072623273
0.12815734
0.13991655
0.1311286
0.11728425
0.10158743
0.08595012
0.072636773
0.075689062
0.09562864
0.12197511
0.1483188
0.17034346
0.18642686
0.19656647
0.20158149
0.20274318
0.20155207
0.19947625
0.19772474
0.19710964
0.1980156
0.20047008
0.20422228
0.20894639
0.21413097
0.21961137
0.2246447
0.22972705
0.23343079
0.23736755
-0.0144177
0.18489201
-0.026043216
-0.0056925953
0.031137739
0.018358721
-0.04287933
-0.025413025
0.01786781
0.059106448
0.11855384
0.13467637
0.12457047
0.11188293
0.094756937
0.076256225
0.056885213
0.055252661
0.077213898
0.10779782
0.13925829
0.16610462
0.18600332
0.19891852
0.20563633
0.20745197
0.20597251
0.20288263
0.19967788
0.19746803
0.19689224
0.19814412
0.20108319
0.20533521
0.2104988
0.2160278
0.22174921
0.22693345
0.23208628
0.23581598
0.23972757
-0.043737481
-0.029557818
0.17287771
-0.019190424
0.021594099
0.0044447547
-0.05725083
-0.051132195
-0.0083848013
0.042545788
0.10487874
0.12403683
0.11606667
0.10419548
0.086978071
0.065653026
0.039313136
0.030514319
0.054802529
0.090254979
0.12767527
0.16033213
0.18485314
0.20115015
0.21012005
0.21304147
0.21158908
0.20762578
0.20292908
0.19893374
0.19658218
0.19630093
0.19807954
0.2016153
0.20642592
0.21205141
0.21792614
0.22387919
0.22920284
0.23441468
0.238163
0.24203852
-0.035207993
-0.065015751
-0.047837424
0.15317066
0.01242264
-0.010086081
-0.069983638
-0.075477616
-0.033753272
0.023504612
0.086742348
0.11092457
0.10201024
0.095057848
0.077707367
0.053903279
0.020497927
0.00012324356
0.027419471
0.068574261
0.11297533
0.15271783
0.18262535
0.20300221
0.21480632
0.21936703
0.21835439
0.21376141
0.2076218
0.20170921
0.19731311
0.1951518
0.19541325
0.19788232
0.20210829
0.2075204
0.21361846
0.21983271
0.22600411
0.2314539
0.2367123
0.24047089
0.24430979
0.0038984041
-0.054833505
-0.089600437
-0.069083789
0.12769361
-0.024885703
-0.080511435
-0.097641052
-0.057460177
0.0016831094
0.064561305
0.092218398
0.086974356
0.081317456
0.067871305
0.039962458
-0.0010795286
-0.03685871
-0.0061178706
0.041862104
0.09433915
0.14249376
0.17895293
0.20409069
0.21940656
0.22619217
0.2261315
0.22126435
0.21383826
0.20595869
0.19929599
0.19491844
0.19327762
0.19431202
0.19761251
0.20260114
0.20864116
0.21521136
0.22175265
0.2281262
0.23368707
0.23897846
0.2427387
0.24655745
-0.039582288
-0.0035154417
-0.077626086
-0.11488549
-0.093551735
0.098776501
-0.088483646
-0.11691873
-0.078904581
-0.021620482
0.038074479
0.068848288
0.064398558
0.067509958
0.055241226
0.024487331
-0.02635093
-0.081028043
-0.046264689
0.0094365999
0.070341003
0.12917225
0.17333099
0.2040211
0.22349551
0.23319313
0.23468006
0.23001232
0.22157727
0.2117868
0.20270705
0.195809
0.19187699
0.19107022
0.19308117
0.19732706
0.20312838
0.20980673
0.21683915
0.22369025
0.23024683
0.23590121
0.24121144
0.24496627
0.24874337
-0.093830289
-0.053457132
-0.0090656305
-0.10073813
-0.14002068
-0.11946368
0.068302642
-0.13249107
-0.097437825
-0.044878792
0.0083913967
0.040723778
0.034478717
0.046383303
0.044590339
0.0098199195
-0.054796188
-0.12209784
-0.09222159
-0.027720293
0.039755341
0.11149532
0.16521312
0.20229383
0.22663765
0.23991976
0.2436555
0.23977062
0.23073656
0.21921529
0.20766619
0.1980006
0.19140434
0.18833267
0.18864414
0.19180192
0.19707744
0.20371912
0.21103229
0.21850956
0.22564843
0.23236474
0.23809317
0.24340964
0.24715381
0.25080348
-0.14366109
-0.096298713
-0.0659742
-0.015144034
-0.12152148
-0.16533068
-0.14400463
0.038841087
-0.1124326
-0.066474311
-0.022793043
0.0081763049
-0.0022692137
0.016602795
0.028925109
-0.0014434561
-0.076026748
-0.1663655
-0.14189593
-0.068459344
0.0034154562
0.088651055
0.15362304
0.19835901
0.2282289
0.24590099
0.25259187
0.25019078
0.24109607
0.22816417
0.21421349
0.20161831
0.1920247
0.18626434
0.18443804
0.18611235
0.19054897
0.19690802
0.20439782
0.21233101
0.22022824
0.22762612
0.2344754
0.24026099
0.24557484
0.24930146
0.252813
-0.12324782
-0.14964511
-0.096586828
-0.074945856
-0.02320847
-0.14091763
-0.19015717
-0.16558437
0.011975268
-0.084894378
-0.053838094
-0.029189053
-0.045857108
-0.020986885
0.0063153405
-0.015368769
-0.094702699
-0.20042166
-0.20265511
-0.11378738
-0.037377893
0.062037685
0.13818314
0.19143188
0.22773737
0.25042791
0.26097574
0.26080417
0.25231728
0.23843386
0.22228942
0.20671197
0.19385529
0.18500392
0.18058719
0.18034657
0.18358069
0.18938802
0.19685674
0.20518583
0.21371291
0.22199494
0.22961716
0.23657611
0.24240931
0.24771145
0.25140678
0.25482875
-0.098891375
-0.12924272
-0.15072754
-0.094989923
-0.077045571
-0.033091097
-0.15997967
-0.21326675
-0.18308302
-0.01184517
-0.081618973
-0.070998738
-0.095227735
-0.065581901
-0.02274629
-0.033695657
-0.11242102
-0.23800532
-0.25897197
-0.18984252
-0.084203828
0.031721698
0.11931545
0.18114227
0.22444851
0.25299523
0.26808833
0.27106435
0.26393902
0.24970476
0.23171634
0.2132363
0.1969435
0.18464548
0.17718923
0.17457664
0.17620485
0.18114406
0.1883762
0.19695713
0.20609996
0.21517955
0.22380187
0.23161809
0.23867498
0.2445461
0.24981478
0.25345981
0.25680634
-0.10442098
-0.10747296
-0.13055515
-0.14658702
-0.092066386
-0.073579128
-0.044048905
-0.17704747
-0.23279152
-0.19598649
-0.032163338
-0.11671207
-0.14844394
-0.11499639
-0.057874173
-0.05669189
-0.13087167
-0.27131248
-0.33206529
-0.24697359
-0.13735201
-0.004961529
0.096438994
0.16704153
0.21789779
0.25278882
0.2734041
0.28028894
0.27541076
0.26153117
0.24219706
0.22103207
0.20124743
0.18521834
0.17429839
0.16884488
0.1684313
0.17214676
0.17888633
0.1875645
0.19723616
0.2071451
0.21672169
0.22564495
0.23364178
0.24078533
0.24666087
0.25186218
0.25545402
0.25874859
-0.16307871
-0.1214317
-0.11038608
-0.127077
-0.13752187
-0.08562467
-0.067053525
-0.05602887
-0.19023761
-0.24724621
-0.20352882
-0.048322923
-0.20480961
-0.16761033
-0.099260434
-0.083785608
-0.15078618
-0.30468108
-0.39630096
-0.34402702
-0.19283287
-0.046459596
0.070244716
0.14857137
0.20740754
0.24943952
0.27603158
0.2879137
0.28607601
0.27337708
0.25330694
0.22982308
0.20661766
0.18666866
0.17190739
0.16314847
0.16023412
0.16233617
0.1682927
0.1768831
0.18699473
0.19770432
0.20831104
0.21833494
0.22754341
0.23570884
0.24289046
0.24870945
0.2538394
0.25741365
0.26076381
-0.26154
-0.20727184
-0.13158669
-0.10606205
-0.11876072
-0.12406866
-0.073292348
-0.056218362
-0.068477258
-0.19770295
-0.25525821
-0.20585312
-0.061063221
-0.22215827
-0.1453797
-0.11457798
-0.17137574
-0.34129907
-0.46075834
-0.42891018
-0.27243351
-0.092142508
0.043195142
0.12797734
0.19234214
0.24215467
0.27580798
0.29303167
0.29532437
0.28460469
0.26453202
0.23920715
0.21279266
0.18884293
0.16993103
0.15742332
0.15153705
0.15160743
0.15646056
0.16475242
0.17519746
0.1866863
0.19835121
0.20959363
0.22004704
0.22952752
0.237794
0.24491909
0.25066531
0.25579587
0.25947212
0.26286803
-0.27726107
-0.31478403
-0.24570569
-0.13483527
-0.094738142
-0.10491877
-0.10636964
-0.055694365
-0.040804976
-0.079913146
-0.19892542
-0.25783185
-0.20280241
-0.071484348
-0.19266248
-0.14843264
-0.19253762
-0.37670379
-0.52448137
-0.52055001
-0.35953569
-0.15223742
0.0037528583
0.10701487
0.17480571
0.23035188
0.27142379
0.2954871
0.30233439
0.29459293
0.2752503
0.24869317
0.21938951
0.1914824
0.16819213
0.15152976
0.14219828
0.1397962
0.14319839
0.15096076
0.16161894
0.17386215
0.18662995
0.19917384
0.21103207
0.22190094
0.23156131
0.23978891
0.24682861
0.2526269
0.25791437
0.26159382
0.26500519
-0.23804742
-0.32920114
-0.35946069
-0.27726299
-0.13516993
-0.079827498
-0.087168938
-0.08533388
-0.034981832
-0.02213371
-0.088156848
-0.19734974
-0.25391584
-0.19483941
-0.079154356
-0.1818768
-0.21415911
-0.40547764
-0.58283928
-0.612411
-0.4520229
-0.22353658
-0.046402268
0.071864118
0.15682276
0.21518905
0.26313973
0.29378355
0.30679665
0.30258127
0.2848541
0.25767615
0.2259377
0.19421461
0.16641619
0.14524178
0.13199814
0.12666316
0.12824219
0.13522587
0.14597131
0.15894474
0.17287115
0.18682528
0.20022663
0.21268587
0.22384697
0.23348928
0.24162976
0.24877839
0.25488173
0.26004579
0.26375962
0.26717507
-0.20933514
-0.27839439
-0.37160286
-0.39276715
-0.2992344
-0.13422645
-0.063043631
-0.066731749
-0.061033391
-0.011664218
-0.0022274721
-0.092597099
-0.19187908
-0.24377399
-0.18157818
-0.084125516
-0.23633226
-0.42428955
-0.62992672
-0.69864052
-0.54744716
-0.30456305
-0.10502539
0.031345274
0.12372833
0.19968689
0.25027146
0.28931746
0.30742734
0.30816594
0.29260193
0.26556768
0.23185079
0.19658437
0.16422556
0.13824274
0.12063164
0.11188223
0.11123802
0.11717679
0.12788163
0.14157332
0.15673013
0.17222868
0.187347
0.20159079
0.21448819
0.22566876
0.23522019
0.24356095
0.25119347
0.25709045
0.26224131
0.26596065
0.26937755
-0.25997668
-0.22919675
-0.30808644
-0.40083758
-0.41237817
-0.30944371
-0.12912458
-0.043572422
-0.044046499
-0.034735159
0.011173442
0.020539377
-0.094180746
-0.18160812
-0.22690293
-0.16339517
-0.086407472
-0.42998686
-0.66011681
-0.77121973
-0.63993544
-0.38995016
-0.16989846
-0.01653842
0.08728212
0.1681641
0.23737689
0.27808698
0.30539762
0.31026464
0.29807115
0.27162787
0.23656065
0.19802313
0.16116859
0.13012566
0.1077058
0.09503583
0.091728804
0.096332727
0.10686988
0.12128782
0.13777824
0.15498692
0.1720365
0.18830468
0.20317782
0.21614505
0.22723996
0.23710611
0.24620957
0.25347815
0.25938761
0.26447525
0.26819877
0.27161768
-0.42087269
-0.28050823
-0.24360222
-0.32413152
-0.41481662
-0.41789725
-0.30798953
-0.12237361
-0.022898766
-0.022405636
-0.0092939879
0.037984108
0.040006391
-0.091202706
-0.16611488
-0.20297646
-0.14120413
-0.086709953
-0.66827895
-0.82097601
-0.72057321
-0.47195831
-0.23959454
-0.068871583
0.043976071
0.13365822
0.20815942
0.26819849
0.29685012
0.30963312
0.30022059
0.27545101
0.23933034
0.19798641
0.15668987
0.12042015
0.092748946
0.075612832
0.069149576
0.072085587
0.08232273
0.097502392
0.11547432
0.13461003
0.15385286
0.17244135
0.18958246
0.20459458
0.21748522
0.22905254
0.24004123
0.24862447
0.25588633
0.26172254
0.26675307
0.2704678
0.27389265
-0.65169511
-0.3971211
-0.28640256
-0.25117776
-0.32447818
-0.41312558
-0.4101762
-0.29591572
-0.11445127
-0.0022350891
-0.0024867823
0.018146088
0.059423738
0.059869818
-0.082148474
-0.14520183
-0.172753
-0.11681778
-0.084819457
-0.83945868
-0.77982836
-0.54278812
-0.31010338
-0.12549744
-0.0030141791
0.091634496
0.17558294
0.24266769
0.28888807
0.30309625
0.29973182
0.27595611
0.23978395
0.1957487
0.15027097
0.1085703
0.075234898
0.053029643
0.042824708
0.043691211
0.053468894
0.069472548
0.089133874
0.11048393
0.1322543
0.15352332
0.17329287
0.19066055
0.20561283
0.21917909
0.23236164
0.2426102
0.25120594
0.25833055
0.26410801
0.26907006
0.272764
0.27618734
-0.8216855
-0.60781122
-0.36191809
-0.27368543
-0.24993284
-0.31069321
-0.39781176
-0.39100695
-0.27685119
-0.10321795
0.01743722
0.019665573
0.041415146
0.082179507
0.080049632
-0.065486877
-0.12011039
-0.1377003
-0.091095842
-0.077801728
-0.80908068
-0.59757066
-0.37872369
-0.18388044
-0.054216077
0.045728015
0.13396295
0.21336326
0.2664579
0.29744527
0.29332896
0.27391413
0.23679039
0.19097988
0.14120776
0.094076767
0.054579814
0.026647662
0.011998965
0.010263022
0.019361192
0.036261038
0.057888647
0.08183598
0.10656591
0.13096995
0.15380431
0.17390917
0.19123821
0.20713186
0.22295766
0.23513954
0.24540349
0.25381575
0.26083471
0.26653698
0.27142335
0.27508854
0.27849582
-0.80154195
-0.76597663
-0.54292753
-0.31541152
-0.24491969
-0.23816335
-0.28838634
-0.37188888
-0.36266678
-0.25322375
-0.088713487
0.035730319
0.040993056
0.066092467
0.10514685
0.098870212
-0.039399644
-0.092467924
-0.099828641
-0.065048202
-0.06656307
-0.63193344
-0.43570747
-0.24099943
-0.10822924
-0.0048105092
0.087530872
0.17276079
0.24432504
0.27705767
0.28837842
0.26572347
0.23126413
0.18251089
0.12923977
0.076262718
0.030276332
-0.0041935669
-0.024156609
-0.029193398
-0.021137876
-0.003294106
0.020641785
0.047687482
0.075943048
0.1040623
0.13050741
0.15380639
0.17389717
0.1925084
0.21151019
0.22599713
0.23821461
0.24821322
0.25649378
0.26338815
0.26900682
0.2738084
0.27743738
0.28081746
-0.63854063
-0.75530411
-0.68149003
-0.46291873
-0.26260759
-0.20416199
-0.21078183
-0.25964299
-0.33794391
-0.32862937
-0.22397983
-0.072501245
0.05144271
0.064048947
0.089657876
0.12614382
0.11440767
-0.0074179265
-0.062824444
-0.062754085
-0.041758369
-0.052179938
-0.46738885
-0.29258908
-0.16329546
-0.059013729
0.035159253
0.12624583
0.20635535
0.26134303
0.26860157
0.25958724
0.21923046
0.17144226
0.11317897
0.054959511
0.0016690663
-0.040068876
-0.06645479
-0.075791641
-0.069329911
-0.05060849
-0.023981694
0.006797425
0.039318626
0.071906346
0.10265306
0.12971125
0.15301896
0.17482678
0.19765241
0.21488551
0.22942864
0.24128538
0.251101
0.25922501
0.26598824
0.27151144
0.27622117
0.2798088
0.28315051
-0.47197526
-0.61530987
-0.67963045
-0.57895004
-0.37568634
-0.2079032
-0.15797625
-0.17069385
-0.2237283
-0.299104
-0.28565885
-0.19752757
-0.049157327
0.064896091
0.085896278
0.11124379
0.14371213
0.12590194
0.022577133
-0.031276823
-0.031875454
-0.021224252
-0.036853561
-0.33407184
-0.2167187
-0.11600366
-0.021957153
0.07149168
0.16081534
0.22935996
0.26198393
0.23899195
0.20987219
0.15341209
0.094374102
0.028981961
-0.031315145
-0.08163645
-0.11564838
-0.13060104
-0.12671023
-0.10734882
-0.077685379
-0.042405467
-0.0046637351
0.033378379
0.069317259
0.10084211
0.12792151
0.1534964
0.18095525
0.20145527
0.21877469
0.23282531
0.24444341
0.25404579
0.26200755
0.26862676
0.27404559
0.27866042
0.28220344
0.28549129
-0.36430408
-0.46002236
-0.56918531
-0.58694639
-0.47256785
-0.29051938
-0.15291947
-0.10997236
-0.12706246
-0.18162282
-0.25328258
-0.2482196
-0.16121512
-0.02625204
0.077788443
0.10485247
0.12953884
0.15687023
0.13396844
0.0469598
-0.0017302751
-0.0091669282
-0.0039399153
-0.024719586
-0.266017
-0.17404545
-0.083527515
0.0099889988
0.10492464
0.18604677
0.237268
0.24077522
0.18705652
0.13870954
0.068067777
6.5894753e-06
-0.069839145
-0.12891172
-0.17245134
-0.19472623
-0.19473556
-0.17547938
-0.1425374
-0.10189988
-0.057733849
-0.012949722
0.029346849
0.066242769
0.097778723
0.1278148
0.16089822
0.18530484
0.2059298
0.2225834
0.23631907
0.24766002
0.25704691
0.26483093
0.27129697
0.27660961
0.28112704
0.28461689
0.28783751
-0.30980346
-0.38697973
-0.44159796
-0.50885492
-0.49230554
-0.37336715
-0.21299639
-0.098501847
-0.063834994
-0.084527432
-0.13968491
-0.21343054
-0.20251689
-0.125964
-0.0036981458
0.089865528
0.12039198
0.14383182
0.164651
0.1392753
0.066183359
0.021437455
0.0079208334
0.0080539856
-0.015405432
-0.231399
-0.14849445
-0.058011735
0.03906955
0.13133092
0.1969558
0.22474553
0.19579632
0.11223626
0.045807587
-0.037134923
-0.11182279
-0.18301844
-0.23693901
-0.26903174
-0.275087
-0.25700159
-0.22103658
-0.17415599
-0.12210042
-0.068905475
-0.018717253
0.024729828
0.061587428
0.096937663
0.13687285
0.16594921
0.19052998
0.2102578
0.2264984
0.239871
0.25093678
0.26009105
0.26768694
0.27400111
0.2792099
0.2836075
0.28704731
0.29018657
-0.28669717
-0.34721639
-0.39784371
-0.41852768
-0.44427416
-0.40283394
-0.2837889
-0.1460713
-0.049670574
-0.019825453
-0.045633981
-0.10971849
-0.16743554
-0.15743602
-0.091149926
0.016935168
0.10002465
0.13227862
0.153675
0.16732332
0.14075471
0.079402329
0.038449017
0.020941636
0.015986119
-0.0085214913
-0.21567584
-0.13197477
-0.036320863
0.062933289
0.14443719
0.18866252
0.18788039
0.12666896
0.014114249
-0.069410611
-0.16286332
-0.24144738
-0.31017081
-0.35391596
-0.36890796
-0.35441393
-0.31590733
-0.26223531
-0.20058549
-0.13684662
-0.07673977
-0.025180278
0.018117627
0.059849287
0.10816297
0.14282682
0.17213909
0.1955137
0.21470021
0.23046745
0.24348591
0.25425743
0.26316837
0.27058103
0.27675097
0.28182527
0.28610084
0.28949047
0.2925399
-0.28404906
-0.33918499
-0.37755755
-0.39831234
-0.39263931
-0.38210647
-0.32339322
-0.21041834
-0.090064022
-0.0071319959
0.016402559
-0.0099159494
-0.082192921
-0.12121509
-0.11038838
-0.058571978
0.035873875
0.10749312
0.14031036
0.15801566
0.16525108
0.13829468
0.0866553
0.0501534
0.02984923
0.020962783
-0.0036469359
-0.21124898
-0.12106926
-0.01939049
0.075559762
0.1381578
0.15678427
0.1253588
0.033316086
-0.10811993
-0.20815834
-0.31022243
-0.38930697
-0.45033677
-0.47739865
-0.4693052
-0.43067922
-0.36972941
-0.29677701
-0.21984211
-0.14713961
-0.085370415
-0.034152981
0.015319424
0.073927111
0.1152838
0.15025998
0.17795224
0.20061783
0.21918707
0.23450042
0.24714404
0.25761061
0.26628822
0.27353367
0.27951309
0.28445656
0.2886022
0.29194392
0.29490065
-0.2953213
-0.35278092
-0.38790238
-0.40340387
-0.39712888
-0.36775656
-0.32884174
-0.25747784
-0.15204252
-0.045152652
0.023878511
0.053431678
0.014977869
-0.053634264
-0.078713429
-0.064917264
-0.026216873
0.052350268
0.11227207
0.13974792
0.15760219
0.15905104
0.13272233
0.089684667
0.056910686
0.035408329
0.022650704
-0.00019185286
-0.21512968
-0.11591098
-0.01202117
0.069818167
0.10841103
0.098780381
0.037257338
-0.084833093
-0.25613594
-0.37249307
-0.48070262
-0.55549432
-0.60137264
-0.60438229
-0.56768956
-0.50131992
-0.4151438
-0.32188956
-0.23310945
-0.15828071
-0.097133544
-0.038149877
0.033174613
0.082560674
0.12432274
0.15712402
0.18388771
0.20574863
0.22373585
0.23857361
0.25083257
0.26101095
0.26948181
0.27649693
0.28229076
0.28709608
0.29111094
0.29440533
0.29726101
-0.31874441
-0.38364262
-0.4207787
-0.43332521
-0.42413659
-0.39570936
-0.34618678
-0.28651912
-0.2075236
-0.11056069
-0.014746612
0.05841037
0.072657085
0.038990221
-0.024091709
-0.039081097
-0.027148614
0.0037651292
0.065717944
0.11462825
0.13994405
0.15303842
0.14992574
0.12536605
0.089334898
0.05995669
0.038300037
0.023947487
0.0021580091
-0.22717554
-0.12004347
-0.021487063
0.040469926
0.052598522
0.013987881
-0.076467183
-0.22938168
-0.43277811
-0.56533899
-0.67568247
-0.73897761
-0.76019787
-0.73202441
-0.66065375
-0.56147118
-0.44816819
-0.33889403
-0.24714772
-0.1732743
-0.10240458
-0.015258195
0.043775626
0.093676838
0.13251995
0.16410499
0.18982034
0.21093466
0.22831868
0.24267281
0.25457296
0.26450356
0.27268296
0.27947729
0.28507389
0.28974424
0.2936268
0.2968691
0.29960843
-0.35446462
-0.4321528
-0.47512074
-0.48818711
-0.47651625
-0.44372962
-0.39494903
-0.32875346
-0.25572121
-0.17531782
-0.084840455
0.028250024
0.075668749
0.090164028
0.060728932
0.0047472338
-0.006248636
0.0019722211
0.02799112
0.075698935
0.11529494
0.13699534
0.14564464
0.13950301
0.11713115
0.086606624
0.060401933
0.039344467
0.02407579
0.003670228
-0.25005525
-0.13962879
-0.053706699
-0.014897705
-0.030462325
-0.097415047
-0.21697158
-0.40343109
-0.64221001
-0.79009298
-0.89545401
-0.93754905
-0.92367712
-0.85600613
-0.74137943
-0.6053862
-0.47014732
-0.35632205
-0.26578771
-0.17976585
-0.072748498
-0.0020877219
0.057585245
0.10356502
0.14081684
0.17103577
0.19579461
0.21614362
0.23292046
0.24682808
0.25842788
0.26800002
0.27590237
0.28246114
0.28786574
0.29240353
0.29614084
0.29932503
0.30195924
-0.40464984
-0.49968728
-0.55478129
-0.57066668
-0.55636551
-0.51976244
-0.46496578
-0.39635641
-0.31777534
-0.23880003
-0.15692639
-0.053642248
0.02499781
0.092612126
0.10515963
0.077729362
0.029706803
0.017956444
0.024930079
0.046580049
0.083147411
0.11457254
0.1319887
0.13688191
0.12890562
0.10857526
0.08247473
0.059063432
0.03902995
0.023436767
0.0045741489
-0.28832861
-0.18026786
-0.11134948
-0.097156814
-0.14095801
-0.23595588
-0.3871083
-0.61203283
-0.88964891
-1.0499467
-1.1388687
-1.1486858
-1.0866575
-0.96647841
-0.80145736
-0.63438633
-0.49176759
-0.37897876
-0.27318797
-0.14094588
-0.056209759
0.015223359
0.069619577
0.11351714
0.14899015
0.17798403
0.20177358
0.22136039
0.23758185
0.2511241
0.26228208
0.27151617
0.27912266
0.28545499
0.29067387
0.29506153
0.29863018
0.30176942
0.30435165
-0.47216453
-0.58835609
-0.66347392
-0.68948678
-0.67231963
-0.62735035
-0.5637785
-0.48609146
-0.40212217
-0.31733671
-0.2324493
-0.1300051
-0.029993338
0.050324433
0.10541229
0.11504767
0.089709624
0.049527381
0.037035531
0.041905272
0.060075761
0.088319714
0.11272077
0.12587312
0.1277313
0.11862493
0.10015784
0.077568574
0.05658324
0.037788366
0.022343363
0.0050545376
-0.34581981
-0.24430057
-0.1947334
-0.20679244
-0.27900684
-0.4038988
-0.59204883
-0.86242092
-1.1806522
-1.347994
-1.4041922
-1.3675205
-1.2363488
-1.0502634
-0.84160452
-0.66178832
-0.51888704
-0.38656544
-0.22180392
-0.11997186
-0.034334108
0.029980331
0.081653353
0.12323538
0.15714175
0.18490886
0.20774346
0.22663889
0.24241453
0.25541361