/*--------------------------------*- C++ -*----------------------------------*\
| =========                 |                                                 |
| \\      /  F ield         | OpenFOAM: The Open Source CFD Toolbox           |
|  \\    /   O peration     | Version:  v2012                                 |
|   \\  /    A nd           | Website:  www.openfoam.com                      |
|    \\/     M anipulation  |                                                 |
\*---------------------------------------------------------------------------*/
FoamFile
{
    version     2.0;
    format      ascii;
    class       surfaceScalarField;
    location    "59.2651423941488815";
    object      phi;
}
// * * * * * * * * * * * * * * * * * * * * * * * * * * * * * * * * * * * * * //

dimensions      [0 3 -1 0 0 0 0];
oriented        oriented;


internalField   nonuniform List<scalar> 
18180
(
-0.047850483
-3.5048559
-0.096028141
-3.2696863
-0.038029885
-3.4579404
-0.14472191
-3.0455782
-0.074746018
-3.2249222
-0.031651169
-3.4180509
-0.19658749
-2.829625
-0.11006147
-3.0031052
-0.061641567
-3.1874908
-0.025120428
-3.3853966
-0.25192651
-2.6216432
-0.14434872
-2.7890128
-0.090060346
-2.9680638
-0.048405543
-3.157214
-0.019510825
-3.3587584
-0.31107212
-2.4202548
-0.17661376
-2.5836377
-0.11652367
-2.7565762
-0.069614459
-2.9404098
-0.037224916
-3.1328057
-0.014735215
-3.3374049
-0.37304155
-2.2249702
-0.20550541
-2.3860344
-0.14037918
-2.5543348
-0.08821916
-2.7320505
-0.05279975
-2.9184984
-0.027808558
-3.1133856
-0.010805214
-3.320313
-0.43317624
-2.0358245
-0.2292073
-2.1962742
-0.16048509
-2.3608818
-0.10351525
-2.5335843
-0.065677147
-2.7132023
-0.038835648
-2.9013385
-0.020130062
-3.0980395
-0.0076273419
-3.3068298
-0.48106436
-1.8535284
-0.24596355
-2.0143412
-0.17519995
-2.1768014
-0.1146101
-2.3447247
-0.075255585
-2.5184108
-0.047276162
-2.6988399
-0.02761488
-2.8880009
-0.013967087
-3.0860736
-0.0050918277
-3.2962175
-0.50728714
-1.6777905
-0.25410155
-1.8409021
-0.18251391
-2.0025091
-0.12055595
-2.1661055
-0.080852377
-2.3338877
-0.052664143
-2.5073626
-0.032768369
-2.687995
-0.018720486
-2.8777587
-0.0090887431
-3.0767995
-0.0030789404
-3.2880358
-0.50671228
-1.509231
-0.25034908
-1.6772775
-0.18051397
-1.8385995
-0.12039497
-1.9981768
-0.081793374
-2.160269
-0.054544388
-2.3266602
-0.035250242
-2.4993709
-0.021449725
-2.6798903
-0.011760284
-2.8699492
-0.0052604235
-3.0697032
-0.0014833879
-3.2817446
-0.47709988
-1.3521126
-0.23029724
-1.5252316
-0.16784833
-1.6858475
-0.11318451
-1.8415407
-0.077522324
-1.9978479
-0.052562088
-2.1572026
-0.03476634
-2.3218548
-0.021920663
-2.4936782
-0.012722908
-2.6739097
-0.0063521512
-2.8640649
-0.0022685485
-3.0643209
-0.00022094669
-3.2770762
-0.42109113
-1.2102589
-0.19204534
-1.3865211
-0.14395139
-1.5452372
-0.09832853
-1.696638
-0.067747042
-1.8469675
-0.046506285
-1.9991552
-0.031150276
-2.1558125
-0.019960258
-2.3188103
-0.011823723
-2.4897136
-0.0060339589
-2.6695577
-0.0021647533
-2.8597198
5.4478129e-05
-3.0603424
0.00075856929
-3.2736723
-0.34531986
-1.0852999
-0.13667045
-1.2619941
-0.10924252
-1.4175407
-0.075925467
-1.5637694
-0.052490599
-1.707779
-0.036357013
-1.8526609
-0.024379175
-2.0012237
-0.015536244
-2.1554985
-0.0089731249
-2.3170097
-0.0042079318
-2.4870303
-0.00091675106
-2.6664951
0.0010834277
-2.8566372
0.0019043737
-3.0575439
0.0015103012
-3.271361
-0.25580949
-0.97958073
-0.066356755
-1.1521736
-0.064815829
-1.3029306
-0.046779179
-1.4430035
-0.032116903
-1.5802411
-0.022327555
-1.717611
-0.014602467
-1.8580155
-0.0087404974
-2.003558
-0.0042157757
-2.1558452
-0.00083730397
-2.3160606
0.0015408339
-2.4853308
0.0030074668
-2.6644494
0.0036039942
-2.8545571
0.0033508822
-3.0557516
0.002127626
-3.2699231
-0.15917437
-0.89451554
0.014057427
-1.056751
-0.012716044
-1.2009791
-0.012134782
-1.3340717
-0.0073808978
-1.464039
-0.0048641037
-1.5937415
-0.0021347538
-1.7259067
0.00021349032
-1.862765
0.0023099619
-2.0059174
0.003990334
-2.1565719
0.0051976212
-2.3157491
0.0058845216
-2.4844016
0.0060344988
-2.6632535
0.0055809855
-2.8533186
0.0044917815
-3.0547641
0.002624631
-3.2692708
-0.058991475
-0.82529375
0.097581166
-0.97498697
0.044482141
-1.1108466
0.026529443
-1.2363125
0.020676072
-1.358619
0.015409074
-1.4805673
0.012562587
-1.6044921
0.010973981
-1.7326992
0.010329075
-1.8668758
0.010099775
-2.0081702
0.0099565956
-2.1575664
0.0096969929
-2.3159345
0.0092018491
-2.4841038
0.0083879345
-2.6627571
0.0071411993
-2.8528077
0.0053944753
-3.0544585
0.0030133583
-3.2692309
0.04245709
-0.76905502
0.1807715
-0.90561825
0.10380877
-1.0313981
0.067548258
-1.1486989
0.050872702
-1.2631805
0.03772603
-1.3773978
0.028924629
-1.4931889
0.023111322
-1.6128749
0.019518422
-1.7382216
0.017250681
-1.8704048
0.015656618
-2.0103144
0.014339449
-2.1587776
0.013088225
-2.31653
0.011759758
-2.4843388
0.010232474
-2.6628645
0.0083752379
-2.8529027
0.006106549
-3.0547194
0.0033138133
-3.2697409
0.14204401
-0.72328941
0.26090407
-0.84650157
0.16230056
-0.96137508
0.10931237
-1.0701516
0.082167049
-1.1768352
0.061339843
-1.2834533
0.046400737
-1.3913286
0.036162175
-1.5026784
0.029490851
-1.6193957
0.025136457
-1.7427239
0.022072924
-1.8734972
0.019668257
-2.0124205
0.017596634
-2.1601804
0.015675096
-2.3174735
0.013751973
-2.485036
0.011686319
-2.6634704
0.0093478885
-2.8535139
0.0066612759
-3.0554595
0.0035411465
-3.2706657
0.23552804
-0.68603445
0.3355595
-0.7954311
0.21753694
-0.89917602
0.15025393
-0.9994537
0.11359579
-1.0985833
0.085530162
-1.1978741
0.064457568
-1.298151
0.049653413
-1.4014382
0.039833999
-1.5097702
0.033412881
-1.6245234
0.028945452
-1.7465112
0.025497729
-1.876318
0.022605993
-2.0145166
0.020049681
-2.1617535
0.017672729
-2.3187276
0.015316033
-2.4861269
0.012832454
-2.6645104
0.010106075
-2.8545516
0.0070826642
-3.0565961
0.0037051149
-3.2719561
0.31924025
-0.6552656
0.40236529
-0.75049038
0.26786144
-0.84335859
0.18922343
-0.93542331
0.14438169
-1.0273949
0.10969322
-1.1197777
0.082629428
-1.2128661
0.063149155
-1.3084349
0.050135484
-1.408671
0.041720485
-1.515139
0.035988758
-1.6287066
0.031621376
-1.7498422
0.027971133
-1.8789676
0.024783758
-2.0166247
0.021921002
-2.1634893
0.019232056
-2.3202538
0.016548312
-2.4875633
0.013728706
-2.6659194
0.010683341
-2.8559597
0.0073884696
-3.0580619
0.0038136591
-3.273513
0.39127568
-0.62829355
0.45936763
-0.71007294
0.31229695
-0.79268549
0.22544164
-0.8769888
0.17396252
-0.96230338
0.13340399
-1.0483125
0.10056121
-1.134702
0.076283924
-1.22295
0.060011981
-1.3154136
0.049701014
-1.4139025
0.042909526
-1.519407
0.037823853
-1.632332
0.033542763
-1.7529044
0.029769339
-1.8815129
0.026413822
-2.018768
0.02336634
-2.1653785
0.020458527
-2.3220296
0.017515359
-2.4893071
0.014415209
-2.6676553
0.011103953
-2.8576647
0.0075923114
-3.0597916
0.0038734015
-3.2753009
0.4507441
-0.60356228
0.50600612
-0.67288245
0.35046604
-0.74614889
0.25844817
-0.82323246
0.2019864
-0.90244745
0.15640555
-0.98267846
0.11801986
-1.0629297
0.08878398
-1.1443052
0.069129127
-1.229331
0.057012304
-1.3201492
0.049415754
-1.4179439
0.043891124
-1.5231009
0.039177293
-1.6356647
0.034907354
-1.7557947
0.031070459
-1.8839871
0.027645284
-2.0209485
0.024495775
-2.1674171
0.021424885
-2.3240395
0.018262389
-2.4913265
0.014920112
-2.6696584
0.011386015
-2.8596185
0.0077053408
-3.0617252
0.0038899821
-3.2772391
0.49883371
-0.57968602
0.54233241
-0.63797482
0.38248918
-0.70295016
0.28802934
-0.77339381
0.2282835
-0.84709198
0.17859397
-0.92216787
0.13490158
-0.99687858
0.10045866
-1.0718553
0.077206399
-1.1498009
0.063337921
-1.2332418
0.055224486
-1.323661
0.049615703
-1.4214765
0.044744655
-1.5265584
0.040117474
-1.6388128
0.035828474
-1.7585401
0.032002878
-1.8864018
0.02858804
-2.0231802
0.025387056
-2.1696087
0.022180199
-2.3262707
0.018819927
-2.4935859
0.015263513
-2.671892
0.011543891
-2.8617631
0.0077372588
-3.0638154
0.0038686087
-3.279296
0.53731949
-0.55619495
0.56951695
-0.605083
0.40881267
-0.66247095
0.31416366
-0.7268672
0.2528267
-0.79562071
0.19999155
-0.866172
0.15121822
-0.93595695
0.11122696
-1.0050408
0.084018129
-1.0762337
0.068378632
-1.1525772
0.060061705
-1.2359345
0.05479871
-1.3268142
0.050131717
-1.4249273
0.045345264
-1.529905
0.040653801
-1.6417972
0.036396194
-1.7611475
0.032671565
-1.888767
0.029325079
-2.0254732
0.026093742
-2.1719587
0.022756594
-2.3287076
0.019208365
-2.4960577
0.015460638
-2.674314
0.011589818
-2.8640655
0.007697087
-3.066014
0.0038142132
-3.2814156
0.56650691
-0.53319426
0.58893634
-0.57394393
0.42959362
-0.62415535
0.33697431
-0.68317948
0.27569133
-0.74753097
0.2207057
-0.81415985
0.1670737
-0.8796486
0.12108594
-0.94334768
0.0894185
-1.0081506
0.071880968
-1.0776145
0.063666383
-1.1541768
0.059245547
-1.2384972
0.055241528
-1.3301435
0.050564869
-1.4284291
0.045548084
-1.5331133
0.040815712
-1.6445786
0.036705702
-1.7636084
0.033167363
-1.8910956
0.029917701
-2.0278523
0.026650741
-2.1744737
0.02317381
-2.3313403
0.019441795
-2.4987185
0.015523942
-2.6768939
0.011535097
-2.8664734
0.0075935014
-3.0682843
0.0037315285
-3.2835748
0.58674148
-0.51055886
0.60111869
-0.54381496
0.44484636
-0.58759794
0.35679695
-0.64198764
0.29702386
-0.70242181
0.24089649
-0.76568079
0.18264549
-0.82749582
0.13008372
-0.8863114
0.093306265
-0.94508301
0.073606679
-1.0078911
0.065809827
-1.0778812
0.062774915
-1.1559543
0.059992198
-1.2416057
0.055778031
-1.3337807
0.050551668
-1.4318914
0.045293286
-1.536096
0.040683146
-1.647125
0.036861173
-1.7659268
0.033566329
-1.8934217
0.030407729
-2.0303425
0.027077873
-2.1771633
0.023443327
-2.3341608
0.019530637
-2.5015405
0.015464786
-2.6795873
0.011390647
-2.8689572
0.0074349698
-3.0705837
0.0036251104
-3.2857306
0.59883651
-0.48770756
0.60624871
-0.51422843
0.45524601
-0.55271745
0.3741194
-0.60303829
0.31699352
-0.65997363
0.26074684
-0.72035687
0.19816158
-0.77909857
0.13832782
-0.83353364
0.09560677
-0.88659219
0.073352132
-0.9429736
0.066202708
-1.0065253
0.065187727
-1.0786616
0.064315289
-1.1587606
0.061012768
-1.2453931
0.0557431
-1.337566
0.049906032
-1.4351442
0.044638378
-1.5387524
0.040382292
-1.6494045
0.036965489
-1.7681293
0.033925667
-1.8957857
0.030818477
-2.0329764
0.027383711
-2.1800381
0.023571433
-2.3371547
0.019483858
-2.5044941
0.015294223
-2.6823646
0.011167262
-2.871475
0.007229807
-3.0728895
0.0034992132
-3.2878641
0.60382974
-0.46443977
0.60502635
-0.48511844
0.4618271
-0.51940593
0.38931488
-0.56613523
0.33577406
-0.61993809
0.28044061
-0.67786953
0.21387864
-0.73410667
0.1459705
-0.78465975
0.096284835
-0.83231924
0.070938839
-0.88244866
0.064533696
-0.93965534
0.066299073
-1.0061136
0.06813485
-1.0810788
0.066312881
-1.1627279
0.061235374
-1.2495978
0.054776878
-1.3411989
0.048652676
-1.4379816
0.043743379
-1.54099
0.04006121
-1.6514216
0.03710556
-1.7702721
0.034279458
-1.8982451
0.031157251
-2.0357859
0.027568899
-2.1831011
0.023562076
-2.3403035
0.019310153
-2.5075498
0.015023477
-2.6851928
0.010875746
-2.8740074
0.0069859076
-3.075169
0.0033577963
-3.2899505
0.60303981
-0.44123091
0.59868077
-0.45681339
0.46561479
-0.4875889
0.40270817
-0.53112179
0.35354547
-0.58212528
0.30013995
-0.63794969
0.23006476
-0.6922132
0.15318795
-0.73936363
0.095342841
-0.781947
0.066211247
-0.8259811
0.060605929
-0.87697361
0.065990685
-0.93792371
0.071423348
-1.0081041
0.071741087
-1.0852774
0.067167365
-1.1674766
0.060070823
-1.2537609
0.052856056
-1.3443358
0.046999408
-1.440218
0.042827122
-1.5427799
0.039858386
-1.6532486
0.037338867
-1.7724359
0.034638265
-1.9008583
0.031418626
-2.0387992
0.027629792
-2.1863499
0.023418651
-2.3435862
0.01901875
-2.510683
0.014664173
-2.6880462
0.010526555
-2.8765181
0.0067107384
-3.077408
0.0032044627
-3.2919766
0.58830838
-0.48866091
0.58861257
-0.42996163
0.46729359
-0.45725472
0.41458266
-0.49788243
0.37050579
-0.54639731
0.3199717
-0.60037315
0.24698009
-0.65314165
0.16016603
-0.69734804
0.092805637
-0.73517195
0.059043442
-0.77328319
0.054251991
-0.81817464
0.064081297
-0.87373256
0.074129986
-0.93942861
0.077368904
-1.012595
0.073703016
-1.0907217
0.06598946
-1.1723575
0.057425818
-1.2573625
0.050250619
-1.3466683
0.045269513
-1.4417761
0.042111255
-1.5441964
0.039874544
-1.6549896
0.037687714
-1.7747164
0.034991741
-1.9036853
0.031588998
-2.0420339
0.027561131
-2.189775
0.02314535
-2.3469821
0.018619878
-2.5138623
0.014227939
-2.6908917
0.010129792
-2.8789919
0.0064111763
-3.079579
0.0030424483
-3.2939259
0.56813126
-0.49646845
0.56663574
-0.46536742
0.46712639
-0.42863004
0.42513492
-0.46631931
0.38689603
-0.51268179
0.33997155
-0.56491186
0.2648427
-0.61662544
0.16708251
-0.65832755
0.088709804
-0.69170768
0.049340054
-0.72408175
0.04526338
-0.7629303
0.060348445
-0.81319381
0.076181965
-0.87467151
0.083257561
-0.94426431
0.081003668
-1.0188869
0.072761124
-1.0965366
0.062583031
-1.1766324
0.053643088
-1.2599297
0.047430318
-1.3480287
0.043811485
-1.442713
0.041768993
-1.5453825
0.040157525
-1.6567869
0.038140245
-1.7772086
0.035314452
-1.9067718
0.03165071
-2.0454984
0.027358349
-2.193363
0.0227481
-2.3504623
0.018124401
-2.5170597
0.013726389
-2.6937064
0.0096949579
-2.8814012
0.0060934664
-3.0816773
0.0028746173
-3.2957885
0.54197508
-0.50279438
0.54270212
-0.47121491
0.45904263
-0.45601229
0.4344772
-0.43657422
0.40283497
-0.48075854
0.36005939
-0.53137744
0.28359003
-0.5821555
0.17401278
-0.62193264
0.083087211
-0.65126366
0.037029612
-0.67811397
0.033447768
-0.71098412
0.054627988
-0.75603856
0.077538334
-0.81351919
0.089474503
-0.87991157
0.089232363
-0.95155828
0.080627857
-1.0258685
0.068584791
-1.1017305
0.057367164
-1.1796129
0.04938821
-1.2611699
0.044928957
-1.3484543
0.042912551
-1.4432171
0.041894544
-1.5465303
0.040700336
-1.6587826
0.038657953
-1.7800001
0.035572126
-1.9101502
0.031585845
-2.0491898
0.027019304
-2.197089
0.022234374
-2.3539977
0.017543866
-2.5202447
0.013170816
-2.6964675
0.0092308559
-2.8837389
0.0057631918
-3.0836836
0.0027034812
-3.2975597
0.50985605
-0.50825931
0.51680641
-0.47557578
0.4502343
-0.4611225
0.43719939
-0.4572238
0.4184862
-0.45081472
0.3799947
-0.49938936
0.30244036
-0.54882429
0.18061396
-0.58723551
0.075806175
-0.61330747
0.02206112
-0.63510984
0.018644461
-0.66210586
0.046776271
-0.70203154
0.078166832
-0.75571165
0.096088838
-0.8192255
0.09855034
-0.88836192
0.089835209
-0.9599441
0.075717889
-1.0322592
0.061654443
-1.1053466
0.051257851
-1.1808429
0.045456707
-1.2610771
0.043205202
-1.3481661
0.042743321
-1.4435422
0.042495856
-1.547845
0.041450916
-1.6611111
0.039185221
-1.7831504
0.035727917
-1.9138343
0.03137936
-2.0530912
0.026544571
-2.2009249
0.021613442
-2.3575564
0.016890141
-2.5233954
0.012572004
-2.6991575
0.0087455275
-2.8859833
0.0054253088
-3.0855983
0.0025312044
-3.299233
0.47206349
-0.51244206
0.48837251
-0.47849881
0.44132423
-0.4653684
0.43971247
-0.46211038
0.42963177
-0.46685569
0.3996028
-0.46920199
0.32080846
-0.51644841
0.18640752
-0.5531935
0.06612681
-0.57630343
0.0042561688
-0.59440898
0.00073876072
-0.61607168
0.036668452
-0.65096233
0.07805257
-0.70103198
0.10316004
-0.76193714
0.10909196
-0.82896038
0.1006181
-0.89838004
0.084286727
-0.96782876
0.066774008
-1.0367709
0.05318851
-1.1067058
0.045409962
-1.1802435
0.042556784
-1.2599051
0.042548071
-1.3474986
0.043341348
-1.4439711
0.043507656
-1.5495166
0.042326872
-1.6638734
0.039659423
-1.7867013
0.035747694
-1.9178187
0.031020264
-2.0571766
0.025938079
-2.2048367
0.020895993
-2.3611109
0.016175152
-2.5264847
0.01194013
-2.7017563
0.0082462628
-2.8881306
0.0050841445
-3.0874053
0.0023596443
-3.3008074
0.42910346
-0.51445683
0.45736056
-0.48009909
0.43247502
-0.46833874
0.44257327
-0.46668998
0.44219788
-0.47314505
0.41606629
-0.48202393
0.33827769
-0.48545
0.19107616
-0.51978484
0.053418403
-0.53931809
-0.017179904
-0.55385968
-0.020343759
-0.57226228
0.024218355
-0.60264663
0.077203591
-0.64929319
0.1107432
-0.70782591
0.1209623
-0.77305669
0.11318421
-0.84081249
0.094601455
-0.90806196
0.07302705
-0.97352991
0.055361274
-1.0384309
0.044824365
-1.1056289
0.040885852
-1.1781072
0.041153511
-1.2580846
0.043044895
-1.3468333
0.044628908
-1.444773
0.044814113
-1.5517034
0.043231335
-1.6671437
0.04001957
-1.7906622
0.035602837
-1.9220829
0.030502987
-2.0614106
0.025206856
-2.2087916
0.020093834
-2.3646292
0.015410702
-2.5294921
0.01128469
-2.70425
0.0077395665
-2.8901654
0.0047434638
-3.0891113
0.002190372
-3.3022787
0.38121956
-0.51325996
0.42425751
-0.48001782
0.42383006
-0.47012961
0.44651769
-0.47073063
0.45558261
-0.47852793
0.43427179
-0.49004226
0.35576588
-0.49822874
0.19458025
-0.48770961
0.038017648
-0.5032969
-0.043106493
-0.51246307
-0.04444608
-0.528758
0.009596558
-0.55672255
0.075665645
-0.60034909
0.11889032
-0.65670253
0.13422898
-0.72039308
0.12770236
-0.78690641
0.1069653
-0.85258944
0.080743186
-0.91527592
0.057986292
-0.97569214
0.043752344
-1.0369201
0.038117259
-1.1024503
0.038404611
-1.1749822
0.041410693
-1.2561228
0.04460597
-1.3465388
0.046448073
-1.4461717
0.046273568
-1.5545192
0.044066765
-1.6709572
0.04021163
-1.795024
0.035272727
-1.9265907
0.029827421
-2.0657545
0.024360717
-2.2127506
0.019219585
-2.368083
0.014608295
-2.532394
0.01061442
-2.7066267
0.0072312092
-2.8920901
0.0044064922
-3.0907059
0.0020246961
-3.3036532
0.3283645
-0.50792547
0.3894027
-0.47706378
0.41552515
-0.47037478
0.45179309
-0.47383979
0.46969886
-0.48328681
0.45371723
-0.49665638
0.37460269
-0.50758111
0.20189952
-0.50424841
0.020887462
-0.46956812
-0.072731828
-0.47281494
-0.071207239
-0.48476443
-0.0060862588
-0.51221048
0.073678502
-0.55403151
0.1276576
-0.60842541
0.14891691
-0.67073826
0.14428703
-0.73635059
0.12165977
-0.80105514
0.090272316
-0.86166143
0.061301164
-0.91817139
0.042261126
-0.97380603
0.034178277
-1.0326199
0.03414503
-1.0978656
0.038241137
-1.1715265
0.043225424
-1.254506
0.047019156
-1.3469238
0.048598926
-1.4483365
0.047739857
-1.5580333
0.044743944
-1.6753174
0.040192772
-1.7997498
0.034745426
-1.9312976
0.028998711
-2.070161
0.023411866
-2.2166781
0.018286385
-2.3714446
0.013778944
-2.5351765
0.0099372798
-2.7088782
0.0067262385
-2.8938939
0.0040759629
-3.0921981
0.0018636748
-3.3049278
0.27056
-0.4986998
0.35288915
-0.47006483
0.408187
-0.46837433
0.4585764
-0.47558098
0.48463404
-0.48720384
0.4738842
-0.50213144
0.39452458
-0.51526682
0.20940295
-0.51376585
0.0069693318
-0.4892871
-0.10467677
-0.43683153
-0.10017984
-0.44296477
-0.021571059
-0.46846531
0.07219966
-0.51007875
0.13713845
-0.56286442
0.16500394
-0.62390395
0.16299082
-0.68885239
0.13892632
-0.75310856
0.10198078
-0.81234778
0.065563486
-0.86554245
0.040427353
-0.91597963
0.028996238
-0.96830422
0.028214796
-1.0264114
0.033338191
-1.0927215
0.040274253
-1.1683739
0.046313504
-1.2536494
0.050008688
-1.3482248
0.050871748
-1.4513755
0.049076604
-1.5622663
0.045188827
-1.680193
0.039933036
-1.8047913
0.034017668
-1.9361472
0.028026756
-2.0745853
0.022374402
-2.2205379
0.017307506
-2.3746911
0.012933052
-2.5378229
0.009260424
-2.7109944
0.0062290117
-2.8955809
0.0037541341
-3.0935792
0.0017081517
-3.3061098
-0.48781505
0.20897264
0.31477072
-0.45922826
0.40267503
-0.4631892
0.46732403
-0.47553398
0.50056808
-0.48993494
0.49433901
-0.50633373
0.41498802
-0.52127252
0.21634931
-0.52087744
-0.0075800407
-0.49816409
-0.13853741
-0.45461585
-0.13074322
-0.40544755
-0.036943635
-0.42682621
0.072469258
-0.46812849
0.14765439
-0.51998649
0.18243647
-0.5797292
0.18380138
-0.64415915
0.15895635
-0.70840715
0.11624247
-0.76699246
0.071055117
-0.81749219
0.038330737
-0.86311914
0.022489038
-0.90918753
0.020447054
-0.96029887
0.02650438
-1.0193811
0.035545055
-1.0878297
0.044120589
-1.1660581
0.050299907
-1.2538678
0.053282886
-1.3505983
0.053068588
-1.4553342
0.050167534
-1.5671975
0.045345573
-1.6855305
0.039415739
-1.8100815
0.033094331
-1.9410825
0.026925501
-2.0789797
0.021263692
-2.2242993
0.016296067
-2.3778011
0.012080269
-2.5403194
0.0085901795
-2.7129703
0.0057432118
-2.8971445
0.0034428395
-3.0948614
0.0015587558
-3.3071978
-0.44714773
0.27546267
-0.47909143
0.14515669
0.39954707
-0.45472524
0.47902818
-0.47329576
0.51781922
-0.49119844
0.51481076
-0.50908145
0.43524291
-0.52525808
0.22193147
-0.52550351
-0.023326382
-0.50407355
-0.17316871
-0.46271103
-0.16927562
-0.41524319
-0.05245416
-0.38921933
0.074626104
-0.42841825
0.15984614
-0.47974912
0.20119513
-0.53821473
0.2067111
-0.60211507
0.18190299
-0.66666074
0.13345724
-0.72527905
0.078076121
-0.77369672
0.036052208
-0.81491365
0.014568426
-0.85494317
0.01066299
-0.89919996
0.017542468
-0.95118006
0.028841531
-1.0125561
0.040241533
-1.0838586
0.049274172
-1.1649855
0.05478836
-1.2553767
0.056565256
-1.3541203
0.055017951
-1.4602042
0.050921362
-1.5727699
0.04517764
-1.6912548
0.03863696
-1.8155501
0.031987456
-1.9460423
0.025711969
-2.0833028
0.020095821
-2.2279317
0.015264718
-2.3807531
0.011229389
-2.542654
0.0079320306
-2.7148028
0.0052719036
-2.898593
0.003143496
-3.0960402
0.0014158965
-3.3082016
-0.44462099
0.39840568
-0.43760356
0.23534013
-0.47550526
0.081363603
0.49465017
-0.46874148
0.5369361
-0.4908217
0.53519365
-0.51025719
0.45456241
-0.52706491
0.22573539
-0.52769754
-0.040411349
-0.50735752
-0.20789692
-0.46851495
-0.20941271
-0.42171735
-0.082375241
-0.38458981
0.078240181
-0.39230531
0.17398627
-0.44202247
0.22133339
-0.49939147
0.23167942
-0.56268868
0.20784532
-0.6276399
0.1540409
-0.68693359
0.087017911
-0.73393162
0.033679854
-0.77104703
0.0051447952
-0.80525949
-0.001320297
-0.84278481
0.006257002
-0.88779068
0.019984069
-0.94224088
0.034498275
-1.0067583
0.046747476
-1.0813108
0.055206569
-1.1654347
0.059404367
-1.2582869
0.059614323
-1.3587965
0.056581919
-1.4659285
0.051273731
-1.5789001
0.044667307
-1.6972785
0.037604279
-1.8211189
0.030714872
-1.9509704
0.024405351
-2.0875121
0.01888701
-2.2314086
0.01422536
-2.3835327
0.010388237
-2.5448225
0.007290647
-2.7164931
0.0048175625
-2.8999235
0.0028571701
-3.0971278
0.0012798352
-3.3091196
-0.46251789
0.51415939
-0.4352449
0.39744146
-0.43449737
0.19570322
-0.47638346
0.018989016
0.55850719
-0.48871964
0.55550054
-0.50980616
0.47233908
-0.5266946
0.22760889
-0.52756329
-0.058598098
-0.50844752
-0.2420714
-0.47234625
-0.24982315
-0.42723359
-0.11555482
-0.38778662
0.066797023
-0.37260969
0.19018346
-0.40800022
0.24278535
-0.46301065
0.25838138
-0.52562707
0.2364638
-0.59091556
0.17792957
-0.65124719
0.098133037
-0.69778438
0.031434769
-0.73142868
-0.0058592828
-0.75983369
-0.015742596
-0.79068579
-0.0075515316
-0.82887886
0.008814321
-0.87657376
0.026742588
-0.93447012
0.042560898
-1.0025811
0.054369093
-1.0805251
0.061423671
-1.1675553
0.063820416
-1.2626218
0.062233057
-1.3645725
0.057658992
-1.4724152
0.051186845
-1.5854835
0.043814153
-1.7035061
0.036334891
-1.826714
0.029298797
-1.9558102
0.023026037
-2.0915727
0.017653074
-2.2347085
0.013188906
-2.3861288
0.0095636596
-2.5468216
0.0066699069
-2.718042
0.0043821404
-2.901145
0.0025846503
-3.0981192
0.001150849
-3.3099616
-0.48508663
0.58266875
-0.45486833
0.53540043
-0.42952891
0.393875
-0.43563729
0.15633311
-0.48060103
-0.040441341
0.57588028
-0.50777899
0.48809031
-0.52421728
0.2274716
-0.52517493
-0.077574046
-0.50752292
-0.27525517
-0.47442277
-0.28951229
-0.43177531
-0.15135496
-0.39066734
0.053795916
-0.37423132
0.19435133
-0.3762689
0.26546782
-0.4302479
0.28607128
-0.49026122
0.26657474
-0.55537035
0.20367924
-0.61641061
0.11043472
-0.6633073
0.028971283
-0.69508017
-0.018494732
-0.71860232
-0.032807485
-0.74263751
-0.024079601
-0.77408106
-0.0047997789
-0.81524534
0.016864069
-0.86671638
0.036590491
-0.92854366
0.052130988
-1.0004179
0.062469619
-1.0816911
0.067495318
-1.1713918
0.067767185
-1.2683323
0.064272424
-1.371349
0.058183776
-1.4795428
0.050647611
-1.5924048
0.042632527
-1.7098408
0.034853598
-1.8322608
0.027764349
-1.9605133
0.021594702
-2.0954531
0.01640896
-2.2378141
0.012165153
-2.3885357
0.0087614884
-2.5486524
0.0060729525
-2.7194528
0.0039671025
-2.9022577
0.0023264623
-3.0990295
0.0010291187
-3.3107277
-0.50427916
0.5963907
-0.47914725
0.60853857
-0.44788584
0.55537914
-0.42846846
0.388114
-0.43919925
0.116312
-0.48739647
-0.095452853
0.50145933
-0.51980984
0.22531068
-0.52067073
-0.096977553
-0.50470716
-0.30700242
-0.47493242
-0.32762814
-0.43541762
-0.18858834
-0.3937628
0.038486489
-0.37478694
0.20073871
-0.38009139
0.27766211
-0.38802408
0.31391313
-0.45767619
0.29691842
-0.52025925
0.22913935
-0.58059949
0.12187564
-0.62763046
0.024248711
-0.65835932
-0.033486994
-0.6799131
-0.052730307
-0.69856557
-0.043539511
-0.72311704
-0.020943414
-0.75793944
0.0048058438
-0.80323917
0.02875845
-0.85896265
0.048380271
-0.92489419
0.062406359
-1.0004897
0.070500357
-1.0848759
0.073066915
-1.1769046
0.071037226
-1.2753134
0.065630926
-1.3789885
0.058124713
-1.4871743
0.049664404
-1.5995419
0.041148834
-1.7161878
0.03319063
-1.8376936
0.0261381
-1.9650359
0.020131503
-2.0991286
0.015168442
-2.2407131
0.01116267
-2.3907491
0.0079865846
-2.5503149
0.0055022265
-2.7207335
0.0035734639
-2.9032732
0.002082802
-3.0998567
0.00091441755
-3.3114284
-0.5136824
0.51219603
-0.49851674
0.61707538
-0.47347421
0.63571428
-0.44398627
0.57252159
-0.42964679
0.37997337
-0.44543987
0.075739781
-0.49606423
-0.14488136
0.22113827
-0.51425267
-0.11641451
-0.50017073
-0.33689324
-0.47397226
-0.3631268
-0.43854029
-0.22574038
-0.39747577
0.020841767
-0.37553142
0.20790368
-0.38140732
0.29330369
-0.39527465
0.33283079
-0.40652617
0.32644306
-0.48687688
0.25335243
-0.54426139
0.13211512
-0.59063672
0.015718463
-0.6188887
-0.052750456
-0.63893515
-0.07605155
-0.65649302
-0.066224936
-0.67583219
-0.039722497
-0.70435598
-0.0094420046
-0.74376857
0.019040023
-0.79362879
0.043047974
-0.85375768
0.061124369
-0.92376431
0.072706435
-1.0028863
0.078009838
-1.0900527
0.077862046
-1.1839863
0.073483903
-1.2834129
0.066251734
-1.3873312
0.057480029
-1.4951608
0.048263495
-1.6067752
0.039398469
-1.7224583
0.03137952
-1.842952
0.024446807
-1.969343
0.018655498
-2.1025789
0.013943867
-2.2433971
0.010188782
-2.392769
0.0072428491
-2.5518196
0.0049595008
-2.7218908
0.0032018256
-2.9041936
0.0018537702
-3.1006138
0.00080662987
-3.3120628
-0.50621032
0.21504619
-0.50551808
0.52052378
-0.49308825
0.63800124
-0.46776819
0.66107854
-0.44229368
0.58679474
-0.43285684
0.36880418
-0.45466308
0.035725555
-0.50601793
-0.18767415
-0.13546637
-0.4941397
-0.36440568
-0.47181479
-0.3953151
-0.44088949
-0.26164911
-0.40183373
0.0014567849
-0.37748979
0.21462774
-0.38169543
0.31192286
-0.39955013
0.35389895
-0.41590907
0.35322586
-0.43298594
0.27578227
-0.509112
0.14164075
-0.55360228
0.0053468214
-0.58006685
-0.076705089
-0.59478607
-0.10316181
-0.61173908
-0.091963469
-0.63071624
-0.06126079
-0.65432335
-0.025828119
-0.68806605
0.0074684652
-0.7323293
0.036110383
-0.78684187
0.058548172
-0.85135165
0.074001459
-0.92526001
0.082473919
-1.0075939
0.084643305
-1.0971154
0.081679992
-1.1924723
0.075017613
-1.292449
0.066117711
-1.3962006
0.05627321
-1.5033537
0.046484978
-1.6139888
0.037422869
-1.7285719
0.029455176
-1.8479865
0.022716419
-1.9734048
0.017184167
-2.1057904
0.012746033
-2.2458625
0.0092495371
-2.3946029
0.0065332439
-2.5531718
0.0044459521
-2.722934
0.0028524784
-2.9050287
0.0016397592
-3.1012989
0.00070678899
-3.3126418
-0.48690881
-0.1537095
-0.49713771
0.20803821
-0.4974831
0.5262363
-0.48689729
0.65843666
-0.46292573
0.68328699
-0.44234114
0.59790611
-0.43872619
0.35428068
-0.46640747
-0.0024970252
-0.51671932
-0.22383847
-0.3889771
-0.46872658
-0.42364575
-0.44259132
-0.29553314
-0.40620257
-0.019111828
-0.3806513
0.21975901
-0.38204746
0.33265772
-0.40193776
0.3769947
-0.42219526
0.38140392
-0.44375032
0.30737273
-0.46438332
0.15001269
-0.5173137
-0.0050427977
-0.54302797
-0.10315261
-0.55348276
-0.13310867
-0.5647647
-0.11942553
-0.58424628
-0.084931017
-0.60708304
-0.044320701
-0.63594093
-0.0058539419
-0.67489461
0.02760453
-0.72399277
0.054638881
-0.78311885
0.074296472
-0.85185778
0.086343672
-0.92937833
0.091268775
-1.014513
0.090138059
-1.1058936
0.0843907
-1.2021608
0.075599734
-1.3022168
0.065245846
-1.4054159
0.054547806
-1.5116063
0.044378808
-1.6210777
0.035266716
-1.7344589
0.027452342
-1.8527548
0.020971266
-1.9772003
0.015733125
-2.1087545
0.01158408
-2.248114
0.0083497012
-2.3962559
0.0058598783
-2.5543878
0.0039622961
-2.7238691
0.0025254843
-2.9057822
0.0014410088
-3.1019257
0.00061537606
-3.3131671
-0.46500662
-0.41004075
-0.4801124
-0.16967927
-0.48756095
0.19947856
-0.48872086
0.52936685
-0.48030516
0.67711409
-0.45938523
0.70190038
-0.44425813
0.60506542
-0.44733371
0.33661761
-0.47973197
-0.038096729
-0.52765835
-0.25371066
-0.44750265
-0.44398074
-0.32670164
-0.4106178
-0.039301288
-0.38538839
0.2226142
-0.38292141
0.35432796
-0.40321118
0.40187602
-0.42635367
0.41040309
-0.45084558
0.34068363
-0.47685775
0.17978122
-0.49398343
-0.014962003
-0.50722273
-0.12926369
-0.51679069
-0.16399277
-0.52253376
-0.14727138
-0.53689398
-0.10872029
-0.56049872
-0.064382315
-0.58714116
-0.020803981
-0.62115536
0.017621046
-0.66509425
0.049402697
-0.71895501
0.073529552
-0.78257197
0.089515481
-0.85528438
0.097621836
-0.93603372
0.098759754
-1.0234744
0.094316219
-1.1161689
0.085927339
-1.2128203
0.075235947
-1.3125031
0.063680877
-1.4147971
0.052362318
-1.5197838
0.042000974
-1.6279474
0.032975691
-1.7400613
0.025404292
-1.8572256
0.019233501
-1.9807148
0.014315865
-2.1114712
0.010465422
-2.2501543
0.0074928483
-2.3977444
0.0052241868
-2.5554724
0.0035088681
-2.7247086
0.0022206582
-2.9064634
0.0012568805
-3.1024913
0.00053144688
-3.313651
-0.44514751
-0.46647829
-0.46299173
-0.42632714
-0.47210884
-0.18407916
-0.47739263
0.18950127
-0.47959986
0.5299554
-0.47370531
0.69272038
-0.45722447
0.71642786
-0.44823909
0.60759817
-0.45826462
0.31655533
-0.4938599
-0.070508576
-0.53844743
-0.27785783
-0.35417978
-0.4156982
-0.058062218
-0.39122389
0.22348823
-0.38566811
0.37583656
-0.40391182
0.42789754
-0.42875458
0.43960423
-0.45519481
0.37562201
-0.4855701
0.21059076
-0.50748751
0.00054702118
-0.509323
-0.15432874
-0.48204075
-0.19392067
-0.48680564
-0.17514075
-0.49464425
-0.13156235
-0.5140962
-0.084297899
-0.54070879
-0.037113991
-0.57100464
0.0062552927
-0.60998183
0.042880127
-0.6587783