/*--------------------------------*- C++ -*----------------------------------*\
| =========                 |                                                 |
| \\      /  F ield         | OpenFOAM: The Open Source CFD Toolbox           |
|  \\    /   O peration     | Version:  v2012                                 |
|   \\  /    A nd           | Website:  www.openfoam.com                      |
|    \\/     M anipulation  |                                                 |
\*---------------------------------------------------------------------------*/
FoamFile
{
    version     2.0;
    format      ascii;
    class       volVectorField;
    location    "59.2651423941488815";
    object      U;
}
// * * * * * * * * * * * * * * * * * * * * * * * * * * * * * * * * * * * * * //

dimensions      [0 1 -1 0 0 0 0];


internalField   nonuniform List<vector> 
9200
(
(2.6560606 0.019329611 -4.3984495e-23)
(2.6521353 0.066933389 -1.8520279e-21)
(2.6027238 0.016010447 -1.8939067e-21)
(2.6443544 0.10921987 -5.5055369e-21)
(2.5953456 0.054809265 5.5128793e-21)
(2.5842097 0.01370626 3.4748914e-22)
(2.6322137 0.15645878 -1.2970436e-21)
(2.583815 0.087328135 3.8188789e-23)
(2.5769395 0.047108779 3.3936687e-21)
(2.5610727 0.011233772 -7.1078554e-21)
(2.6135876 0.20559308 1.550015e-20)
(2.5643804 0.12172916 -1.3340668e-21)
(2.5654592 0.074356258 -1.084945e-21)
(2.5535509 0.038633696 3.2867867e-22)
(2.545166 0.0090022822 9.3672225e-22)
(2.5867938 0.25885598 2.8269228e-24)
(2.5380376 0.15360739 4.8950555e-21)
(2.5475014 0.10252096 6.048594e-21)
(2.5420372 0.060061124 -2.0572715e-21)
(2.5380457 0.03100521 1.2413938e-21)
(2.5323368 0.0070241172 1.0659213e-20)
(2.5495511 0.31499342 -2.0267569e-22)
(2.5032455 0.18368164 -3.26416e-21)
(2.5239264 0.12743097 -3.3711345e-21)
(2.5242253 0.081356897 6.22079e-21)
(2.5273495 0.047541747 -1.8664987e-21)
(2.525714 0.024187327 -4.1484488e-21)
(2.5229766 0.0053359824 -2.723928e-22)
(2.4973939 0.37335553 1.2291229e-21)
(2.4593502 0.20969583 2.7904313e-21)
(2.4940958 0.14983233 -9.2159415e-22)
(2.5014803 0.098749132 -9.5817401e-22)
(2.5111305 0.063389737 1.2310721e-21)
(2.5159669 0.036537828 6.2447355e-21)
(2.5169737 0.018303739 1.4539983e-21)
(2.5161901 0.0039221768 -2.5973637e-21)
(2.4233478 0.42856025 0)
(2.4069359 0.22990595 4.2652049e-21)
(2.4582312 0.16767786 4.772547e-21)
(2.4735621 0.11276292 -2.2596791e-21)
(2.4909994 0.075317372 1.3199501e-21)
(2.5013809 0.047841809 3.0300683e-21)
(2.50831 0.027194377 6.1980592e-22)
(2.5108272 0.013310042 3.6011069e-21)
(2.5115382 0.0027453127 8.3005602e-23)
(2.3242888 0.4645421 0)
(2.3493417 0.24217217 1.9416744e-21)
(2.416092 0.1793504 3.1372503e-21)
(2.4411725 0.12186505 9.9612366e-22)
(2.4670349 0.083735158 1.1596179e-22)
(2.4836587 0.055450514 -2.039372e-21)
(2.4954809 0.034855146 -6.1357508e-22)
(2.5032149 0.019373652 -7.0303377e-21)
(2.5068098 0.0091276739 -2.3852569e-21)
(2.5085561 0.0017532319 0)
(2.2025991 0.47738981 4.5720468e-21)
(2.2887133 0.24543884 1.8043223e-21)
(2.3673776 0.18271327 -2.5222009e-21)
(2.4051971 0.12526037 1.0372216e-21)
(2.4401697 0.087460791 4.4505727e-21)
(2.4630327 0.059693036 2.5224635e-21)
(2.4801933 0.039219207 -2.0482899e-21)
(2.492036 0.024128102 1.8870226e-22)
(2.5001726 0.012904264 2.8007644e-21)
(2.5044316 0.0056482859 -3.307849e-21)
(2.5069051 0.00089833349 0)
(2.0674715 0.46509647 -5.202575e-21)
(2.2258053 0.2352692 6.8090829e-21)
(2.3136408 0.17585774 1.0503333e-21)
(2.3672738 0.12180622 -8.025032e-22)
(2.4112129 0.085948191 6.0304172e-22)
(2.4405214 0.059795531 1.4417218e-21)
(2.4627557 0.040519768 2.3299545e-21)
(2.4789246 0.026050793 1.3277361e-21)
(2.4905008 0.015359392 -3.5608419e-21)
(2.4986605 0.0075771922 7.4695255e-21)
(2.5033189 0.0027600248 1.2204335e-21)
(2.5063341 0.00016255416 -6.9899673e-21)
(1.9331251 0.42488873 1.6176598e-21)
(2.1625634 0.20736079 -1.0437524e-20)
(2.2587093 0.15779352 -1.6030775e-22)
(2.3290077 0.11067727 -3.395154e-21)
(2.3812622 0.078644109 -2.8595998e-21)
(2.4169925 0.055523049 2.6635319e-21)
(2.4441666 0.038294939 2.4115897e-22)
(2.4642101 0.025270869 -4.1957308e-22)
(2.4793016 0.015457429 -8.7857051e-22)
(2.4903187 0.0082145843 -1.5777792e-21)
(2.4983171 0.0031865271 -2.9625085e-21)
(2.5031608 0.00035195444 2.8168442e-21)
(2.506564 -0.00043054978 1.5863044e-21)
(1.8116334 0.36123813 3.4694153e-21)
(2.1015119 0.16249713 5.0161817e-21)
(2.2063041 0.1287551 -5.2144668e-23)
(2.2918808 0.091563194 -1.4590581e-22)
(2.351616 0.065421877 -2.8362955e-22)
(2.3935639 0.046686849 -4.334892e-21)
(2.4252002 0.032457363 -2.6955055e-23)
(2.4488168 0.021583873 2.1081966e-22)
(2.466901 0.01321803 -1.1590677e-21)
(2.4807531 0.0069420801 -1.9022744e-21)
(2.4911237 0.002382319 1.1485695e-21)
(2.498867 -0.00045267333 -4.0181136e-21)
(2.5037644 -0.0016780407 1.1944312e-21)
(2.5074391 -0.00087440888 6.4069408e-21)
(1.7121925 0.28380888 9.8000042e-21)
(2.0462229 0.10233 -1.5137145e-20)
(2.1594417 0.089264615 -1.1071539e-20)
(2.2578132 0.064927843 2.2637609e-21)
(2.3238077 0.046433046 3.9004524e-21)
(2.3713188 0.033394597 -1.836888e-22)
(2.4067766 0.023060968 5.1769328e-22)
(2.4334242 0.015000663 -4.8002373e-22)
(2.4541202 0.0086362009 3.7639007e-22)
(2.4702725 0.0036751191 2.2429409e-21)
(2.482944 6.7118749e-05 5.482119e-22)
(2.4926422 -0.0024167575 6.5170028e-23)
(2.5000826 -0.0034920663 3.5618774e-21)
(2.5049961 -0.0034123019 -1.7487651e-21)
(2.5088169 -0.0013075401 -9.6263912e-22)
(1.6464631 0.19589094 2.522528e-20)
(2.0014961 0.027508427 5.3740087e-21)
(2.120586 0.040769851 -7.9857339e-22)
(2.2286527 0.031913063 -4.552567e-21)
(2.2992014 0.022317402 2.3826027e-21)
(2.3512729 0.016021521 4.3679913e-22)
(2.3897322 0.010381533 -2.5582197e-21)
(2.4188126 0.005732289 -1.8265955e-21)
(2.4415354 0.001768437 -9.6187027e-22)
(2.459585 -0.0014450203 -7.5659989e-22)
(2.4740412 -0.0039373454 1.7949655e-21)
(2.4856265 -0.0055440702 2.4643225e-21)
(2.4946897 -0.0064246278 -1.8187112e-21)
(2.5017983 -0.0060683087 -3.2220759e-22)
(2.5067061 -0.0049030398 -1.9900917e-21)
(2.5106101 -0.0016989213 0)
(1.6056297 0.10353712 -8.2716702e-21)
(1.9703803 -0.052188734 5.0330234e-21)
(2.090992 -0.014073418 4.8927001e-21)
(2.2055335 -0.0060140084 3.1202524e-21)
(2.2788511 -0.0059333593 -4.4633133e-21)
(2.3342592 -0.0048162347 -1.7411023e-21)
(2.3748396 -0.0051358208 -1.4760489e-21)
(2.4056129 -0.0059146497 -1.6995909e-23)
(2.4297574 -0.0071101651 9.0675342e-23)
(2.4491645 -0.008365742 0)
(2.4650271 -0.0093928786 -3.1885788e-22)
(2.4780201 -0.01009951 -5.2937011e-22)
(2.4886418 -0.01019353 1.6678317e-21)
(2.4971317 -0.0098186766 -1.7394136e-21)
(2.5039149 -0.0082890503 -4.0991516e-21)
(2.5087774 -0.0061988484 1.2502769e-21)
(2.5127307 -0.0020231298 1.4130955e-24)
(1.5864419 0.0093271235 -1.9270395e-21)
(1.9547193 -0.13346588 3.5384571e-22)
(2.071305 -0.072857177 -1.6558615e-21)
(2.1888772 -0.047446737 4.1554019e-21)
(2.2634094 -0.037198617 -2.0121986e-21)
(2.32085 -0.028421648 3.0631631e-21)
(2.3626918 -0.022930836 1.523385e-21)
(2.394381 -0.019493729 5.2093547e-22)
(2.4192636 -0.017674538 5.6485182e-22)
(2.439485 -0.016766154 -2.6933156e-22)
(2.4562853 -0.016257997 -5.7308593e-22)
(2.4703494 -0.015769157 4.7032796e-22)
(2.482108 -0.015179504 -1.2916329e-21)
(2.4918906 -0.014120251 -8.3343411e-22)
(2.4998679 -0.012737544 7.6301848e-22)
(2.506349 -0.010225278 1.3578571e-21)
(2.5111368 -0.0073338098 -1.3429159e-21)
(2.5151059 -0.002298361 1.2744261e-21)
(1.5893763 -0.084909946 2.7650518e-21)
(1.9544352 -0.21303119 -6.5262107e-21)
(2.061621 -0.13228581 2.3699419e-22)
(2.1787805 -0.09053691 -1.3607468e-21)
(2.2531362 -0.070238663 3.0032548e-21)
(2.3113844 -0.053921944 1.5094066e-21)
(2.3537117 -0.042351837 -2.242656e-21)
(2.3855293 -0.034453467 1.4967188e-21)
(2.4104677 -0.029454643 0)
(2.4309115 -0.026324799 0)
(2.4481868 -0.024201646 4.0319143e-22)
(2.4629312 -0.022545769 -6.3931954e-22)
(2.4755256 -0.021002647 -3.9947228e-22)
(2.4862425 -0.019459608 -7.1236242e-22)
(2.4953059 -0.017501793 3.3379261e-22)
(2.5028292 -0.015284363 1.9496296e-21)
(2.5090327 -0.011926357 1.9294555e-21)
(2.5137257 -0.0083294366 -3.4770026e-21)
(2.5176766 -0.0025372298 -2.7733734e-21)
(1.6167608 -0.17588918 -1.3860889e-20)
(1.9670041 -0.28835629 1.1330874e-20)
(2.0607905 -0.18956127 -2.6082381e-21)
(2.1749048 -0.13350398 -4.0373513e-22)
(2.2479126 -0.10388587 9.4987138e-22)
(2.3059876 -0.080436564 -1.3658154e-21)
(2.3481264 -0.062728552 2.7279935e-21)
(2.3793545 -0.050220487 -1.9761476e-21)
(2.4036482 -0.041952937 2.3392071e-22)
(2.4237112 -0.036612349 0)
(2.440983 -0.032945138 4.5623781e-22)
(2.4560456 -0.030112511 4.199647e-22)
(2.4691645 -0.027696066 4.3351576e-22)
(2.4805483 -0.025409336 0)
(2.4903903 -0.02314851 1.710062e-21)
(2.4988431 -0.020465249 9.5229664e-22)
(2.5059673 -0.017531182 4.2459522e-21)
(2.5119121 -0.013426777 -1.1576974e-21)
(2.5164918 -0.009200667 -1.4949111e-21)
(2.5203923 -0.002741948 -3.9586325e-21)
(1.6674356 -0.25976078 0)
(1.9892392 -0.35711085 6.4137618e-21)
(2.0675168 -0.24264538 -8.1182647e-21)
(2.1764667 -0.17498468 6.855412e-22)
(2.2471873 -0.13722723 1.2314222e-21)
(2.3044927 -0.10722829 1.2020281e-21)
(2.3459535 -0.083498899 3.4210578e-22)
(2.3759989 -0.06625053 -5.0017924e-22)
(2.3989739 -0.054663733 3.7825471e-22)
(2.418037 -0.047185215 0)
(2.4348301 -0.042113474 0)
(2.4498652 -0.038246515 -4.4249098e-22)
(2.4632429 -0.034970219 -5.2650805e-22)
(2.4750444 -0.032037304 9.8922662e-22)
(2.4854238 -0.029216775 -1.495538e-21)
(2.4945357 -0.026395617 -2.6521428e-22)
(2.5024736 -0.023098808 -3.0369544e-21)
(2.5092458 -0.019526076 -4.3759146e-21)
(2.5149433 -0.01474872 1.9799595e-21)
(2.519391 -0.0099572635 8.155132e-23)
(2.5232088 -0.0029148591 2.8434251e-21)
(1.7334837 -0.33338418 5.807903e-22)
(2.0180218 -0.41737093 -2.2023804e-20)
(2.080325 -0.29021836 6.6235829e-22)
(2.1824241 -0.21398524 1.3009402e-21)
(2.2502356 -0.16956131 6.3861317e-22)
(2.3065607 -0.13372911 -5.9875761e-22)
(2.3470794 -0.10417762 1.6679081e-22)
(2.3754983 -0.082069697 1.2586193e-22)
(2.3965208 -0.067100786 -1.5979214e-21)
(2.4139553 -0.05758591 4.9594202e-22)
(2.4297823 -0.051330629 -1.0659672e-22)
(2.4444697 -0.046642734 6.2648695e-24)
(2.4578858 -0.04266279 -9.7999583e-23)
(2.4699126 -0.039084126 -4.7466699e-23)
(2.4806184 -0.035799743 6.8407668e-22)
(2.490164 -0.032587405 1.3575739e-21)
(2.498674 -0.029304927 -1.531287e-22)
(2.5061791 -0.025461043 -3.836156e-21)
(2.5126359 -0.021299368 -5.4271552e-21)
(2.5180889 -0.015905702 -1.3352177e-22)
(2.522384 -0.010605276 2.8102418e-21)
(2.5260872 -0.003057937 2.8655615e-21)
(1.8101238 -0.39515378 4.206861e-21)
(2.0505043 -0.46786856 1.2498463e-20)
(2.097604 -0.33163394 6.3531476e-21)
(2.1916322 -0.24986909 1.3247615e-21)
(2.2562502 -0.20039677 -3.2924872e-22)
(2.3117026 -0.15956821 0)
(2.3513048 -0.12443985 6.9968968e-22)
(2.3778247 -0.097273635 1.9815103e-21)
(2.3963013 -0.078810807 6.2877146e-22)
(2.4114552 -0.067370701 -3.6275582e-22)
(2.4258069 -0.060212293 -2.5912421e-22)
(2.4398397 -0.055014277 -4.9593011e-23)
(2.4531303 -0.050547815 -1.4201632e-22)
(2.4652584 -0.046443721 -1.0973076e-22)
(2.4761387 -0.042662006 -5.2141813e-22)
(2.4859218 -0.039148324 -4.0971734e-22)
(2.4947856 -0.035636264 2.8982084e-21)
(2.5028079 -0.031945904 9.87034e-22)
(2.5099479 -0.027588219 2.350702e-21)
(2.5161133 -0.02286864 2.8691238e-21)
(2.5213157 -0.01690566 -4.2199852e-21)
(2.5254353 -0.011148714 2.9488923e-21)
(2.5289934 -0.0031724954 1.6745128e-21)
(1.8874571 -0.44537389 -2.2146968e-20)
(2.084241 -0.50815759 1.1119658e-20)
(2.1177046 -0.36675938 -4.4400354e-23)
(2.2029523 -0.2822888 4.8472059e-21)
(2.2644148 -0.22945826 -1.1294366e-21)
(2.3193705 -0.18454207 5.0094215e-21)
(2.3583373 -0.14407478 -7.600078e-22)
(2.3828841 -0.11164125 1.0007232e-21)
(2.3983007 -0.089415165 -1.0962658e-21)
(2.4104818 -0.076104503 -3.1166081e-22)
(2.4227986 -0.068376969 -4.5566217e-22)
(2.4358679 -0.063074174 1.387151e-22)
(2.4489212 -0.058437546 -3.8678292e-22)
(2.4611108 -0.053963996 8.1591052e-22)
(2.472093 -0.049739908 -3.710225e-22)
(2.4819679 -0.045854619 1.0998645e-21)
(2.490986 -0.042204456 -7.2149649e-22)
(2.4993106 -0.03844287 -3.5083512e-22)
(2.5069454 -0.034361715 -3.9542082e-21)
(2.5137713 -0.029500277 3.97242e-21)
(2.5196563 -0.0242429 -1.7382681e-21)
(2.5245939 -0.017753206 1.8459743e-22)
(2.5285132 -0.011590673 -1.0342916e-22)
(2.5318972 -0.0032598918 2.690188e-21)
(1.961402 -0.48610195 -4.8988737e-20)
(2.1207542 -0.53894325 -1.8711526e-20)
(2.139217 -0.39592669 6.5562502e-23)
(2.2153592 -0.31112851 -7.3909097e-21)
(2.2739534 -0.25664063 1.2435539e-20)
(2.3290139 -0.2086115 -6.8723085e-22)
(2.3678871 -0.16304458 2.9187454e-21)
(2.3905727 -0.12492235 -9.7673912e-22)
(2.4024422 -0.098657443 -1.4413493e-21)
(2.4109402 -0.083445537 -5.5495016e-22)
(2.4206043 -0.07545958 -1.8985486e-22)
(2.4323726 -0.07054192 5.8712336e-23)
(2.4451184 -0.066158478 3.1791457e-23)
(2.4574196 -0.061550528 -4.9231886e-22)
(2.4685307 -0.056937699 -3.6364128e-22)
(2.4784269 -0.052665219 2.5927318e-22)
(2.4874313 -0.048783146 -1.5335138e-22)
(2.4958459 -0.045058596 5.9753629e-22)
(2.5037664 -0.041059022 -3.6786007e-21)
(2.511097 -0.036575587 -9.1084959e-22)
(2.5176419 -0.03120571 -1.5150508e-23)
(2.5232442 -0.025425944 2.3562565e-21)
(2.5278961 -0.018451482 -1.1178627e-21)
(2.5315887 -0.011934255 -1.4927672e-21)
(2.5347719 -0.0033215515 -5.8368545e-21)
(2.0374764 -0.51837401 1.7335924e-20)
(2.1606357 -0.56111222 -1.7529557e-20)
(2.160152 -0.4195549 -1.7451062e-22)
(2.2279453 -0.33644811 1.9989217e-20)
(2.2841596 -0.28197337 9.6402791e-21)
(2.3400832 -0.23185426 -8.4681538e-21)
(2.379692 -0.18140691 5.2089116e-21)
(2.4008101 -0.13715598 -3.0455014e-21)
(2.4087795 -0.10615371 9.9787985e-22)
(2.4127251 -0.088978385 2.38893e-21)
(2.4190173 -0.081141174 6.8184137e-22)
(2.4291076 -0.077164498 2.5354179e-22)
(2.4415048 -0.073562082 2.5184443e-22)
(2.4540589 -0.069141311 -7.5212343e-22)
(2.4654406 -0.064233515 9.151163e-22)
(2.4753858 -0.059514951 3.1337688e-22)
(2.4842658 -0.055331921 -1.0901466e-21)
(2.4925634 -0.051551337 -1.8094983e-22)
(2.5005451 -0.047775924 -4.9261688e-22)
(2.5081849 -0.04351397 -1.6429923e-21)
(2.5152738 -0.038595889 -3.0956745e-22)
(2.5215515 -0.032705593 -7.6956841e-24)
(2.5268566 -0.026419022 1.0134253e-21)
(2.5311968 -0.019003545 2.6771282e-22)
(2.534636 -0.012183155 2.0852047e-21)
(2.5375947 -0.0033590047 -2.5681387e-21)
(2.1156398 -0.5408226 -7.1076976e-21)
(2.1982375 -0.57575352 4.5143972e-20)
(2.1788894 -0.43759885 -2.9830948e-22)
(2.24008 -0.35844362 3.0575023e-20)
(2.2944295 -0.30558169 -3.8383687e-20)
(2.3520683 -0.25441854 1.1158723e-20)
(2.3934693 -0.19933151 -1.247156e-20)
(2.4135298 -0.14832061 -1.1341538e-21)
(2.4173129 -0.11194137 -1.6370619e-22)
(2.4158678 -0.092383914 -2.2813086e-22)
(2.4178796 -0.084948121 6.5440984e-22)
(2.4257827 -0.082662184 -1.7988357e-22)
(2.4377917 -0.080529167 6.7149624e-22)
(2.4508303 -0.076718923 7.6925371e-22)
(2.4627523 -0.071654514 -2.3360598e-22)
(2.4728948 -0.066422746 -8.1987172e-22)
(2.4816189 -0.061787028 1.2645252e-21)
(2.4896211 -0.057861393 3.8416698e-22)
(2.4974154 -0.054246505 8.3236668e-22)
(2.5051369 -0.050398233 -1.2209138e-21)
(2.5125992 -0.045818392 4.2396736e-21)
(2.5194846 -0.040420461 -3.3897494e-21)
(2.5254904 -0.033996938 1.0594496e-22)
(2.5304733 -0.027222897 4.6481018e-21)
(2.5344722 -0.019413252 3.2778239e-21)
(2.5376322 -0.012341906 -1.6806191e-22)
(2.5403462 -0.0033738562 6.3607463e-21)
(2.1911534 -0.55557443 4.4724887e-20)
(2.2305088 -0.58585537 1.1477597e-21)
(2.1958165 -0.45044568 2.3269228e-23)
(2.2512361 -0.37758991 -4.9523581e-20)
(2.3042568 -0.32764644 -7.670492e-21)
(2.3645071 -0.27650727 -2.1619374e-21)
(2.4089547 -0.21704984 -4.1817468e-21)
(2.4286869 -0.15851433 -2.8334279e-22)
(2.4279746 -0.11582331 1.0931641e-21)
(2.420278 -0.093495076 -1.5368471e-21)
(2.416923 -0.086850028 1.6076804e-21)
(2.4221126 -0.086779387 9.4639823e-22)
(2.4336498 -0.086927661 1.2728326e-21)
(2.4474709 -0.084302848 6.8179764e-23)
(2.4603366 -0.079288776 4.2193301e-22)
(2.470967 -0.073467926 1.0912409e-21)
(2.4796088 -0.068171176 1.4583571e-21)
(2.4871829 -0.063899323 -1.8269155e-21)
(2.4945358 -0.060377322 1.5444637e-21)
(2.5020598 -0.05693491 -6.6403859e-22)
(2.509681 -0.052944795 -1.2694606e-21)
(2.5170409 -0.047968119 2.6364701e-21)
(2.5237347 -0.042040464 2.0025807e-21)
(2.5294464 -0.035075401 -9.5957112e-22)
(2.5340742 -0.02783926 2.8777914e-21)
(2.5377009 -0.019685716 2.4588962e-23)
(2.5405576 -0.012415852 2.9704873e-22)
(2.5430102 -0.0033677661 -1.6598671e-22)
(2.2604406 -0.5638087 2.5430488e-20)
(2.2558856 -0.58692733 -2.7964563e-20)
(2.2105238 -0.45873633 -8.4339962e-20)
(2.2608826 -0.3943953 -3.6286391e-20)
(2.3132629 -0.34835357 5.6117824e-20)
(2.376989 -0.29831116 -1.562323e-20)
(2.4259108 -0.23484844 1.2332933e-20)
(2.4462525 -0.16790509 -7.7776216e-21)
(2.440827 -0.11770998 6.1422477e-21)
(2.4258536 -0.091937367 0)
(2.415936 -0.086250904 1.224259e-23)
(2.4176515 -0.089393504 2.1395044e-21)
(2.4286816 -0.09272275 -5.5110281e-22)
(2.4436679 -0.091944605 -1.3184903e-22)
(2.4580118 -0.087278487 -9.8925873e-23)
(2.4695786 -0.080803505 -1.0850105e-21)
(2.4783435 -0.074571108 -1.076139e-21)
(2.4854266 -0.069655994 1.6873901e-21)
(2.4920874 -0.066032916 -6.9597279e-22)
(2.4990955 -0.062989814 -6.7058386e-22)
(2.5065866 -0.059656224 4.9707426e-22)
(2.5142383 -0.055413908 6.7859227e-22)
(2.5215363 -0.049948009 -4.2613849e-21)
(2.5280242 -0.043443773 4.355235e-21)
(2.5334049 -0.035937301 -6.7712274e-22)
(2.5376394 -0.028271531 -5.1718727e-21)
(2.5408632 -0.019827362 4.4335279e-21)
(2.5433952 -0.01241095 -1.9561842e-22)
(2.5455738 -0.0033424256 2.9696658e-21)
(2.3225731 -0.56590059 8.1441607e-20)
(2.2753101 -0.58334291 1.0720483e-20)
(2.2228642 -0.46380261 2.8940888e-20)
(2.2685904 -0.40912005 6.8419811e-20)
(2.3211933 -0.36787693 -1.4170344e-20)
(2.3891574 -0.3200544 -1.6800432e-22)
(2.4441256 -0.25301356 -8.0049473e-21)
(2.4662091 -0.17667894 -1.092548e-20)
(2.4559742 -0.1176244 -9.3841434e-21)
(2.4326118 -0.087560548 3.3500607e-21)
(2.4148096 -0.08262158 -2.5485799e-21)
(2.4120516 -0.089859421 -1.1866868e-21)
(2.4224745 -0.097733226 -2.9821466e-21)
(2.4390416 -0.09973867 -3.9217307e-22)
(2.4555446 -0.09581833 -7.7600855e-22)
(2.4686693 -0.088652804 -9.1971237e-23)
(2.4779203 -0.081153359 1.3545123e-22)
(2.4845459 -0.075180719 3.5345008e-22)
(2.4902853 -0.07114458 1.0131359e-22)
(2.4964193 -0.068370894 8.257893e-22)
(2.5034241 -0.065778533 -7.6281062e-22)
(2.511095 -0.062420415 4.8159466e-22)
(2.5188647 -0.057785937 1.9392028e-21)
(2.5261039 -0.051735954 -1.1391226e-21)
(2.5323478 -0.044617794 5.6888867e-22)
(2.5373494 -0.036580916 9.5413252e-22)
(2.5411494 -0.028525117 6.3752316e-21)
(2.5439418 -0.019845754 -3.9452549e-22)
(2.5461312 -0.012333527 3.4725241e-22)
(2.5480267 -0.0032995545 -3.2057597e-21)
(2.3826082 -0.56215197 3.8137187e-20)
(2.2921543 -0.57500893 4.5080959e-20)
(2.233178 -0.46635682 1.0878162e-19)
(2.2740315 -0.42217906 -7.655517e-21)
(2.3278709 -0.38635737 -1.0448523e-20)
(2.4007206 -0.34182847 1.0572393e-20)
(2.4633912 -0.27189758 1.2999054e-21)
(2.4885542 -0.18505404 -1.0369251e-22)
(2.4734888 -0.11555301 -1.4650814e-20)
(2.4406235 -0.080177244 1.0111183e-21)
(2.4134344 -0.076077384 1.9271511e-21)
(2.4051081 -0.088630139 -5.6614087e-22)
(2.4146593 -0.10199909 -1.7021192e-21)
(2.4332397 -0.10774152 2.1889997e-21)
(2.4526597 -0.10513118 0)
(2.4681403 -0.097302308 7.0852928e-22)
(2.4784235 -0.088163553 -4.087614e-22)
(2.4847513 -0.080598542 -1.8685159e-21)
(2.4893821 -0.075687948 2.2598323e-22)
(2.4942534 -0.072934569 1.4981816e-21)
(2.5003391 -0.071062878 -1.772212e-21)
(2.5076703 -0.068780954 2.0139923e-22)
(2.5156822 -0.065208486 -2.9833212e-23)
(2.5236059 -0.060027713 5.8117265e-22)
(2.5307528 -0.053306694 3.631964e-21)
(2.5366944 -0.045551521 -8.9824005e-22)
(2.5412614 -0.037007098 -1.2115527e-21)
(2.544586 -0.028607282 3.2696734e-21)
(2.5469216 -0.019749277 -4.5706561e-21)
(2.5487543 -0.012190064 -1.4517783e-22)
(2.5503614 -0.0032408757 -5.4006125e-22)
(2.4414579 -0.55286468 -1.2002021e-19)
(2.3064965 -0.56293954 4.1113393e-20)
(2.2429013 -0.46705423 -2.5274671e-20)
(2.2771168 -0.43359892 -4.6625343e-20)
(2.3331776 -0.40422234 -1.9188684e-20)
(2.4115432 -0.36393913 -1.9464214e-21)
(2.4835307 -0.29168301 -1.8355391e-20)
(2.513256 -0.19327393 -3.612827e-21)
(2.493433 -0.11157146 1.0973148e-20)
(2.4499257 -0.069619934 -1.0212172e-20)
(2.411629 -0.066223088 1.0141842e-21)
(2.3964702 -0.084928444 -4.8992588e-22)
(2.4047791 -0.10541896 1.0393831e-21)
(2.4258525 -0.11611609 -1.8923845e-21)
(2.4490563 -0.11547681 -2.0175003e-21)
(2.4678591 -0.10708805 -2.9957322e-21)
(2.4799218 -0.095921859 9.7433578e-22)
(2.4862686 -0.086111602 -3.9431373e-21)
(2.489671 -0.079700001 2.026015e-22)
(2.4928719 -0.076561967 1.9551333e-22)
(2.4975296 -0.075289135 3.660524e-22)
(2.5040593 -0.074198597 -6.4070246e-22)
(2.5119887 -0.071988568 -5.5644406e-24)
(2.5204338 -0.067976924 -1.2731205e-24)
(2.5284936 -0.062097654 -7.380854e-22)
(2.5354819 -0.054635041 -1.5955886e-21)
(2.5410484 -0.046236822 2.8641897e-21)
(2.5451217 -0.037219379 -2.9901746e-21)
(2.547932 -0.028526826 -2.7729968e-21)
(2.5497899 -0.019546835 -4.1640595e-23)
(2.5512557 -0.011987024 -2.8654153e-21)
(2.5525723 -0.0031680941 2.5891243e-21)
(2.4952412 -0.53653391 -1.1548542e-21)
(2.3157655 -0.54610808 -4.2136392e-20)
(2.2546807 -0.46642692 -3.6472864e-20)
(2.2777972 -0.44417995 -3.564449e-20)
(2.3368802 -0.42150019 -3.489343e-20)
(2.4219546 -0.38611838 -3.1368668e-20)
(2.5039828 -0.31281619 5.0498209e-21)
(2.540101 -0.20142861 1.946723e-20)
(2.5157876 -0.10568294 8.9798321e-21)
(2.460523 -0.055864538 -2.3095683e-21)
(2.4092665 -0.052761733 -1.5288776e-21)
(2.3857692 -0.078656754 -5.018631e-22)
(2.3923892 -0.10787429 -2.1583026e-23)
(2.4164283 -0.12489855 -3.2017039e-21)
(2.4443957 -0.12709063 -2.073489e-21)
(2.4676496 -0.11838259 -2.7252421e-21)
(2.482462 -0.1048152 -8.6791992e-23)
(2.4893351 -0.091998861 1.8759156e-21)
(2.4914844 -0.083281038 1.6036105e-21)
(2.4926037 -0.079174469 -6.267924e-22)
(2.4952507 -0.078240851 -2.2093006e-22)
(2.5004086 -0.078386744 -3.3909299e-21)
(2.5078135 -0.077796068 1.6068412e-21)
(2.5165222 -0.07535077 7.5040294e-22)
(2.5254158 -0.07066452 -7.7184516e-22)
(2.5335433 -0.063950716 1.578671e-22)
(2.5402807 -0.055698271 -2.2442463e-21)
(2.5453897 -0.046669054 -2.0606911e-21)
(2.5489106 -0.037223763 3.624269e-21)
(2.5511721 -0.028293706 1.2925498e-22)
(2.552536 -0.019247581 -1.6525279e-21)
(2.5536291 -0.01173073 5.9830018e-23)
(2.5546563 -0.0030828576 -4.8657074e-21)
(2.54465 -0.51253112 -1.1403655e-19)
(2.3190512 -0.5272379 -1.9459641e-20)
(2.2665816 -0.46434536 9.8730961e-21)
(2.2750966 -0.45380974 -9.973439e-20)
(2.3396202 -0.43841433 2.698246e-20)
(2.4311838 -0.4085436 3.3622755e-21)
(2.5237892 -0.33397855 4.3597493e-20)
(2.5669358 -0.20972433 1.7717387e-20)
(2.5398314 -0.097912602 8.3759472e-21)
(2.4723002 -0.038683169 -2.9078441e-21)
(2.4062064 -0.035557708 -9.380193e-22)
(2.3726943 -0.069591843 -7.9188397e-22)
(2.3771186 -0.10933527 -1.8456692e-22)
(2.4045899 -0.13422049 3.1527778e-21)
(2.4383292 -0.1402277 8.9597618e-21)
(2.4673027 -0.13156946 5.9101103e-21)
(2.4860633 -0.11528311 -1.7035885e-21)
(2.4941925 -0.098610947 2.7662779e-21)
(2.4951916 -0.086595994 1.3640158e-21)
(2.4938317 -0.080735096 -1.2040202e-21)
(2.4938169 -0.079719338 -5.2325242e-23)
(2.4969195 -0.081043569 3.8565045e-21)
(2.5032317 -0.082295935 -7.8172295e-22)
(2.5118259 -0.081804124 -3.0068791e-23)
(2.5213878 -0.078784072 -1.5368921e-21)
(2.5306702 -0.073199941 7.999148e-22)
(2.5387544 -0.065542603 6.1663995e-22)
(2.5451302 -0.056477699 1.9038641e-21)
(2.5496957 -0.04684723 -1.7575088e-21)
(2.5526088 -0.037028417 -5.431668e-22)
(2.5542925 -0.027918711 -3.9574348e-21)
(2.5551515 -0.01886073 1.0612506e-22)
(2.5558701 -0.011427293 0)
(2.5566117 -0.0029867355 -4.0203172e-21)
(2.5866112 -0.48134509 5.3856523e-21)
(2.3194981 -0.50493271 -1.8234432e-20)
(2.2718465 -0.4596936 1.2753851e-20)
(2.2723431 -0.46240682 3.5984056e-20)
(2.3378499 -0.45604051 1.6965412e-20)
(2.4396408 -0.43004105 1.8359865e-20)
(2.5406389 -0.35612417 8.0053102e-23)
(2.5874737 -0.21679722 2.2205379e-20)
(2.5615902 -0.088017614 -9.8927653e-22)
(2.4837241 -0.018186783 -1.6469569e-20)
(2.4022036 -0.014129678 3.0981977e-21)
(2.3569332 -0.057598963 4.3570682e-22)
(2.3586136 -0.10975943 -4.5253908e-22)
(2.3899878 -0.14417043 3.5002551e-21)
(2.430522 -0.15511975 1.0141047e-20)
(2.4665805 -0.14702871 2.9639971e-22)
(2.4907072 -0.12780929 1.1939356e-20)
(2.5010824 -0.10636735 1.3164197e-21)
(2.5011939 -0.089869737 -7.200435e-21)
(2.4969903 -0.081249155 -2.9141773e-21)
(2.4936 -0.079544648 -3.1121717e-22)
(2.4938492 -0.08186576 7.2242094e-22)
(2.498366 -0.085123114 4.2305491e-22)
(2.5063368 -0.086975413 2.6968956e-21)
(2.5162876 -0.086115111 1.6106925e-21)
(2.5266685 -0.082183564 -3.6908387e-21)
(2.5362141 -0.075508738 1.4106244e-21)
(2.5441117 -0.06683295 -1.6880006e-21)
(2.5500045 -0.05695959 7.4702657e-22)
(2.553942 -0.046773945 3.9821085e-21)
(2.5561979 -0.036643343 -9.1815961e-22)
(2.5572814 -0.027413203 -4.1230455e-21)
(2.5576302 -0.018395427 1.6064911e-21)
(2.5579763 -0.01108257 2.0769748e-21)
(2.5584383 -0.0028811989 -1.9604337e-21)
(2.6159956 -0.4435025 1.4006539e-19)
(2.3158382 -0.47727995 -8.2051023e-20)
(2.2692899 -0.4528171 -3.372869e-20)
(2.2713218 -0.46912268 1.1327805e-19)
(2.3334855 -0.47479518 -1.3924541e-22)
(2.441912 -0.45337322 0)
(2.5548305 -0.37538923 -1.9787841e-22)
(2.6019656 -0.22408355 -2.6664095e-20)
(2.5782343 -0.074208251 -1.273297e-20)
(2.4871183 0.0062846318 5.3543262e-20)
(2.395021 0.011233451 -1.8422007e-21)
(2.3381392 -0.04233755 1.1238551e-22)
(2.3365318 -0.10916997 2.0973015e-21)
(2.3723285 -0.15482893 4.8746487e-21)
(2.4206574 -0.17193968 -7.1130179e-21)
(2.4652078 -0.16512086 -7.6041984e-21)
(2.4963336 -0.14289083 3.6524025e-23)
(2.5102299 -0.11574519 -6.3454958e-22)
(2.5099199 -0.093390631 -4.7274612e-22)
(2.5025612 -0.080758152 2.1296137e-21)
(2.4950245 -0.07755526 -7.7697742e-22)
(2.4915072 -0.080550448 4.9107515e-21)
(2.4933875 -0.08589719 -2.5585783e-23)
(2.5000852 -0.090462673 -1.9453452e-21)
(2.5100198 -0.092292131 7.2885121e-22)
(2.5213419 -0.090582273 -7.4168536e-22)
(2.5324096 -0.08543425 1.2102955e-21)
(2.5420402 -0.077519155 -5.9645317e-22)
(2.5495869 -0.067787583 9.5006789e-22)
(2.554873 -0.057135649 -3.700849e-21)
(2.5581036 -0.046455199 2.0262198e-23)
(2.559661 -0.036080108 3.7436586e-21)
(2.560129 -0.02678893 0)
(2.5599677 -0.017860664 1.8760264e-21)
(2.5599467 -0.010702163 -1.9838065e-22)
(2.5601373 -0.0027676176 9.1182203e-21)
(2.6292291 -0.3998437 -3.5727803e-20)
(2.3052989 -0.44600303 2.8579207e-20)
(2.2618992 -0.445907 -1.8555997e-20)
(2.2681027 -0.47584237 1.7783427e-20)
(2.3289142 -0.493435 1.5685062e-20)
(2.4407687 -0.47892118 1.6437904e-20)
(2.5615972 -0.39865481 5.1550021e-22)
(2.6122399 -0.22635604 4.2274232e-20)
(2.5880608 -0.057994835 5.6856803e-22)
(2.4757877 0.036287695 -1.3548539e-20)
(2.3748153 0.040947292 -1.1483821e-20)
(2.3146768 -0.024151136 -7.3792216e-23)
(2.3105833 -0.10749325 1.803616e-21)
(2.3513586 -0.1662888 9.9286762e-22)
(2.4084698 -0.19084125 -8.7105341e-21)
(2.462894 -0.18612581 1.749847e-20)
(2.5028257 -0.16103607 1.1539975e-21)
(2.5218422 -0.12727301 -3.7784043e-21)
(2.5218122 -0.097494321 1.7467176e-20)
(2.5110673 -0.079346831 5.1519803e-21)
(2.4985607 -0.073602003 -7.4492686e-21)
(2.4902465 -0.076796042 -2.4544815e-22)
(2.4885104 -0.084227115 -2.3463381e-21)
(2.4931412 -0.091839772 -1.044955e-21)
(2.5025178 -0.096902504 -1.1316528e-22)
(2.5145103 -0.098047745 -1.4840135e-21)
(2.5270778 -0.095037514 1.4674938e-22)
(2.5386197 -0.088420801 2.062423e-21)
(2.5481203 -0.079166548 -6.6328301e-22)
(2.5551421 -0.068380035 1.3259625e-21)
(2.5597019 -0.057003204 1.320931e-21)
(2.5621559 -0.045900175 -3.5640511e-21)
(2.562983 -0.035351598 7.9858384e-23)
(2.5628278 -0.026057879 3.7732204e-21)
(2.5621613 -0.017265214 -1.7954006e-22)
(2.5617819 -0.010291402 5.2055759e-21)
(2.561711 -0.0026472501 1.9324112e-21)
(2.6234073 -0.3500866 -4.0274619e-20)
(2.2816183 -0.41300248 5.6551797e-20)
(2.2487442 -0.43887604 4.1918825e-20)
(2.2610568 -0.48301238 -1.8444883e-20)
(2.324992 -0.51178563 3.3200042e-20)
(2.4369063 -0.5048647 1.5688752e-20)
(2.5627822 -0.42634206 -6.2073655e-20)
(2.6169295 -0.23545635 7.2305601e-20)
(2.594547 -0.035058297 7.4868771e-20)
(2.4573012 0.071304365 -5.9238178e-20)
(2.3361235 0.073986651 1.8859521e-20)
(2.2802237 -0.0027679462 1.3086174e-21)
(2.2801908 -0.10511376 -1.2529649e-21)
(2.3269414 -0.1785713 1.3217151e-21)
(2.3937201 -0.21187223 -6.6998016e-22)
(2.4593368 -0.21031517 3.5184687e-21)
(2.510011 -0.18270525 -3.0901234e-21)
(2.5360854 -0.14152532 6.409421e-22)
(2.5373357 -0.10257046 -4.912872e-21)
(2.5230628 -0.077111957 8.5428229e-21)
(2.5047148 -0.067554546 -1.1386501e-21)
(2.4904536 -0.07029904 0)
(2.4839817 -0.079715882 -3.4114959e-21)
(2.4856099 -0.090664918 -4.6680132e-21)
(2.4937469 -0.099504037 -2.6959412e-22)
(2.5060125 -0.10418052 0)
(2.5199607 -0.10400591 1.4533196e-21)
(2.5335299 -0.099306997 -5.5607873e-22)
(2.5452739 -0.091035319 1.0784973e-22)
(2.5544088 -0.080396609 9.0034785e-22)
(2.5607324 -0.068592456 -1.2102964e-21)
(2.5644563 -0.056565197 6.5455898e-22)
(2.5660761 -0.045120975 -9.0539852e-22)
(2.566151 -0.034471785 0)
(2.565372 -0.025232131 -2.0326714e-22)
(2.5642102 -0.01661757 -6.5465893e-21)
(2.5634837 -0.0098553082 -2.9427192e-21)
(2.5631626 -0.0025212517 -4.9617725e-21)
(2.5995091 -0.29467496 4.5513817e-20)
(2.2392239 -0.37584689 1.5382777e-20)
(2.2253844 -0.42941834 4.4523579e-20)
(2.2485438 -0.49035451 -1.8348152e-20)
(2.3200979 -0.52992701 -1.643299e-20)
(2.4306567 -0.53071147 -1.9079709e-22)
(2.5589646 -0.45376431 5.4650416e-20)
(2.6165525 -0.25110679 4.1487909e-20)
(2.6008345 -0.017275019 8.959595e-21)
(2.4412712 0.1119521 5.7246403e-20)
(2.2917975 0.11096304 1.5334255e-20)
(2.2302158 0.017680975 -5.8058013e-21)
(2.2435477 -0.10196884 -7.1914932e-21)
(2.2989748 -0.19193367 -1.3919502e-20)
(2.3762837 -0.23504663 -1.4672351e-20)
(2.4542059 -0.23774383 -2.4933627e-20)
(2.5176361 -0.20837529 -3.8989906e-20)