/*--------------------------------*- C++ -*----------------------------------*\
| =========                 |                                                 |
| \\      /  F ield         | OpenFOAM: The Open Source CFD Toolbox           |
|  \\    /   O peration     | Version:  v2012                                 |
|   \\  /    A nd           | Website:  www.openfoam.com                      |
|    \\/     M anipulation  |                                                 |
\*---------------------------------------------------------------------------*/
FoamFile
{
    version     2.0;
    format      ascii;
    class       surfaceVectorField;
    location    "59.2651423941488815";
    object      Uf;
}
// * * * * * * * * * * * * * * * * * * * * * * * * * * * * * * * * * * * * * //

dimensions      [0 1 -1 0 0 0 0];


internalField   nonuniform List<vector> 
18180
(
(2.654032 0.044119384 -9.7837181e-22)
(2.6239379 0.017641419 -9.7848823e-22)
(2.648114 0.088592533 -3.7402578e-21)
(2.6177233 0.060764424 1.8936539e-21)
(2.5989108 0.036291388 1.9339053e-21)
(2.5955381 0.014839351 -7.5430926e-22)
(2.6380796 0.13362268 -3.3304155e-21)
(2.6073474 0.098081992 -2.6862159e-21)
(2.5893864 0.071364411 2.6834592e-21)
(2.588388 0.050896379 4.5393363e-21)
(2.5804525 0.031240106 1.9217392e-21)
(2.5719024 0.012449016 -3.4319548e-21)
(2.6225868 0.18167827 7.3845519e-21)
(2.5903433 0.1387908 -9.507741e-22)
(2.5737706 0.1051555 -6.710374e-22)
(2.5771519 0.080736757 -5.328225e-22)
(2.5710063 0.060868095 1.0790599e-21)
(2.5644315 0.042799126 1.8353812e-21)
(2.5571855 0.025643466 -3.2647065e-21)
(2.5531442 0.01009932 -3.0178655e-21)
(2.5997392 0.23304989 7.4903359e-21)
(2.5662721 0.17914856 1.010735e-20)
(2.5507654 0.13802785 1.8853907e-21)
(2.5589678 0.11196922 2.4192292e-21)
(2.5561781 0.088986953 2.6018622e-21)
(2.5528651 0.06708721 -1.5157499e-21)
(2.5476005 0.049433838 -9.0440577e-22)
(2.5458366 0.034755551 8.0732239e-22)
(2.5414863 0.020598925 1.094174e-21)
(2.5385752 0.0079965135 5.8770249e-21)
(2.5675448 0.28805244 -1.0338747e-22)
(2.5334388 0.22061855 -2.2739111e-21)
(2.5200555 0.16902998 6.7801809e-22)
(2.5346752 0.14030731 2.8914761e-22)
(2.535317 0.11522222 1.1801547e-21)
(2.5347708 0.091759092 6.1361377e-21)
(2.5328316 0.071135707 2.2210267e-21)
(2.5347525 0.053696633 -1.9602814e-21)
(2.5325178 0.039316388 -3.6479216e-22)
(2.5316946 0.027538751 -1.5059317e-21)
(2.5289142 0.016089592 3.0067441e-21)
(2.5275726 0.0061658321 5.1015821e-21)
(2.5225937 0.34577747 5.3734885e-22)
(2.4906757 0.26143794 1.3192102e-21)
(2.4805584 0.1968598 -1.3487977e-22)
(2.5031611 0.16648363 -2.0732887e-21)
(2.5085088 0.13892568 -2.1051182e-21)
(2.5113394 0.11284633 -2.144423e-21)
(2.51247 0.090211322 2.5104812e-21)
(2.5177813 0.072223049 3.6628881e-21)
(2.5189672 0.05579806 -2.6560788e-22)
(2.5214613 0.041946952 2.2573354e-21)
(2.5206766 0.03037617 1.2228279e-21)
(2.5212612 0.021195979 -1.3000585e-21)
(2.5198744 0.012202525 6.1979028e-22)
(2.5195047 0.004617149 -1.4544705e-21)
(2.4591235 0.40189935 5.9385601e-22)
(2.437216 0.30040233 3.2320249e-21)
(2.4322603 0.2197621 3.5526569e-21)
(2.4640935 0.188348 3.7980345e-21)
(2.4755596 0.15895818 2.0213618e-21)
(2.4821209 0.13098258 -1.4279018e-21)
(2.4870512 0.10593544 -1.6308371e-21)
(2.4964083 0.086837498 2.0000735e-22)
(2.5007262 0.069454302 1.2770068e-21)
(2.5060393 0.055484585 2.1190743e-21)
(2.5084286 0.042444935 4.583331e-21)
(2.51206 0.031787409 3.3823309e-21)
(2.5124963 0.022741812 1.0228818e-21)
(2.5138226 0.015764747 2.5456454e-21)
(2.5134186 0.0089090138 6.0594839e-22)
(2.51381 0.0033238035 -1.2345672e-21)
(2.37215 0.44673177 0)
(2.3731757 0.33378087 1.4215306e-21)
(2.377169 0.23603281 3.0643135e-21)
(2.4170996 0.20421957 3.3351128e-21)
(2.4364521 0.17367933 3.9273636e-21)
(2.4476202 0.1443821 2.8527497e-21)
(2.456822 0.11738441 -5.7696308e-22)
(2.4705524 0.098006805 -1.051937e-21)
(2.4786138 0.079643521 6.9768975e-22)
(2.4870844 0.065216248 -3.879368e-22)
(2.4922216 0.051704471 4.1004461e-22)
(2.4983599 0.041239098 1.1775833e-21)
(2.5016797 0.031214816 -1.7629406e-23)
(2.505687 0.023217993 -3.2637127e-21)
(2.5068931 0.016320197 -1.8932984e-21)
(2.5087684 0.01118353 5.6022562e-22)
(2.5090946 0.0061515786 -1.1925699e-21)
(2.5100086 0.0022408798 4.1345782e-23)
(2.2613952 0.47147899 2.3629979e-21)
(2.2975428 0.35313846 1.2379196e-21)
(2.3180068 0.24404316 1.870686e-21)
(2.3626999 0.21195774 -6.1754148e-22)
(2.3909147 0.1810775 2.1224862e-22)
(2.4083355 0.15184619 1.7824665e-21)
(2.4225792 0.12357349 1.0173645e-21)
(2.4410156 0.10437606 2.7095671e-21)
(2.45315 0.085633485 2.3562357e-21)
(2.4647538 0.071511041 1.339424e-21)
(2.4729985 0.057639584 3.1832762e-22)
(2.4818671 0.047198145 -2.043906e-21)
(2.4875798 0.037064646 -1.3550737e-21)
(2.4936874 0.029401034 -2.0567602e-22)
(2.4974374 0.021886396 -3.299397e-21)
(2.5016479 0.01608429 -2.0318382e-21)
(2.5033796 0.010984518 2.9491684e-22)
(2.5055852 0.0073585434 -2.8543463e-21)
(2.5064246 0.0038475894 -1.709467e-21)
(2.5077102 0.0013185451 0)
(2.132761 0.47130987 -4.7977643e-22)
(2.2105243 0.35429411 5.709327e-21)
(2.2562005 0.24062435 4.3909342e-21)
(2.3026153 0.21007298 1.4210626e-21)
(2.3396047 0.1792322 -6.7580292e-22)
(2.3652436 0.15174447 -1.359782e-21)
(2.3855971 0.12350484 8.639289e-23)
(2.4085853 0.10527646 7.73776e-22)
(2.4252039 0.086697773 2.4620417e-21)
(2.4400302 0.073394335 2.9208858e-21)
(2.4513981 0.05974332 1.9639006e-21)
(2.462853 0.049944888 2.4157872e-21)
(2.471181 0.039901105 2.1452269e-22)
(2.479494 0.032523733 -3.2033895e-22)
(2.4852597 0.025093816 7.7738532e-22)
(2.4912308 0.019669621 -1.7226001e-21)
(2.495174 0.014221142 -4.8704076e-22)
(2.4993868 0.010195644 5.1777256e-21)
(2.501449 0.0065761962 2.2619832e-21)
(2.5038516 0.0041796778 -1.0029459e-21)
(2.5050518 0.0019175075 6.3070962e-22)
(2.5066034 0.00052419832 -3.554192e-21)
(1.9980379 0.44408089 -1.6777069e-21)
(2.1182823 0.33407388 -7.8638748e-21)
(2.1931203 0.22150882 -2.1044024e-21)
(2.2397958 0.19588211 3.0500139e-21)
(2.2852507 0.16677747 4.2464157e-22)
(2.31993 0.14271893 -1.2094795e-21)
(2.3474968 0.11619446 -2.1424601e-21)
(2.3745338 0.099864567 -1.8688689e-21)
(2.3957335 0.082233089 -1.1865567e-21)
(2.4137723 0.070478336 1.6996453e-21)
(2.4283609 0.057616444 2.0731927e-21)
(2.4423257 0.048864082 8.4321055e-22)
(2.4531482 0.039383473 1.2503965e-21)
(2.463427 0.032766393 9.3201848e-22)
(2.4713197 0.025663591 4.2467204e-22)
(2.4790865 0.020664515 2.1227111e-22)
(2.4847128 0.015395497 -2.1745709e-21)
(2.4903874 0.011726485 -2.5525511e-21)
(2.4943493 0.00794544 2.7936906e-21)
(2.4984744 0.0053446527 2.1652403e-21)
(2.5007339 0.0029335935 -9.4134697e-22)
(2.5032327 0.0015355693 2.0321632e-21)
(2.5046941 0.00029545162 -1.9218865e-21)
(2.5064392 -0.00013904411 -2.6290739e-21)
(1.8703358 0.3922003 2.5746833e-21)
(2.0281253 0.29151075 3.345325e-21)
(2.1310107 0.18483678 -2.4507333e-21)
(2.1780572 0.16739121 -5.158744e-21)
(2.2316251 0.143129 -1.0440666e-22)
(2.2747451 0.12412383 -2.1841908e-22)
(2.3098196 0.10101378 -1.7158628e-21)
(2.3403241 0.087670264 -1.7871682e-21)
(2.3659402 0.071915893 -1.5282676e-21)
(2.3871247 0.062395305 -3.6638535e-21)
(2.4048839 0.051016609 -9.5346186e-22)
(2.4211043 0.043795804 1.2956544e-21)
(2.4343641 0.035314331 1.02589e-22)
(2.4464499 0.029798025 2.2573358e-22)
(2.4562543 0.023386429 -9.3765146e-23)
(2.4655437 0.019142455 -7.8774386e-22)
(2.4728926 0.014318053 -1.0235405e-21)
(2.4800162 0.011127605 -1.3990773e-21)
(2.4853749 0.0075525725 -1.7454875e-21)
(2.4907126 0.0052489887 -1.8847522e-22)
(2.4945994 0.0028009669 -8.3781371e-22)
(2.4985821 0.0013360101 -3.4992566e-21)
(2.5009417 -7.2877609e-05 -7.1552687e-22)
(2.5034605 -0.0006802943 1.9931259e-21)
(2.5051172 -0.001049382 1.3837873e-21)
(2.5070063 -0.00065625419 4.0375816e-21)
(1.7602409 0.32181389 6.7411555e-21)
(1.9454531 0.22963957 -5.9891423e-21)
(2.0729377 0.13161803 -5.3993683e-21)
(2.1206934 0.12525209 -2.6961947e-21)
(2.1820848 0.10868519 -5.7471618e-21)
(2.2323426 0.09630959 1.1250899e-21)
(2.274274 0.07804928 1.0994589e-21)
(2.307589 0.068618588 1.9111054e-21)
(2.337244 0.055758583 1.8788015e-21)
(2.3612841 0.049137744 -2.3282069e-22)
(2.382067 0.039911674 -2.1894382e-21)
(2.4002013 0.03467466 -1.8677733e-21)
(2.4156783 0.027658901 2.5453553e-22)
(2.4292916 0.02358123 -2.5730938e-22)
(2.4408614 0.018217177 -1.4623098e-22)
(2.451475 0.015000404 2.950033e-22)
(2.4602954 0.010874577 -3.6549046e-22)
(2.4685878 0.0083656551 5.7693404e-22)
(2.4753364 0.0052709595 2.4011124e-22)
(2.4818489 0.0034462463 -6.5627929e-22)
(2.4868962 0.0011870056 8.3828687e-22)
(2.4918854 -5.7976229e-05 5.9768454e-22)
(2.4956499 -0.001450191 -1.9077784e-21)
(2.4994791 -0.0019982014 -1.6378043e-22)
(2.5018616 -0.0026355264 2.4179521e-21)
(2.504383 -0.0025599396 -3.021786e-22)
(2.5061766 -0.0021615439 2.19213e-21)
(2.5081347 -0.0010946675 2.6598411e-21)
(1.6782229 0.23852018 1.7771935e-20)
(1.8783013 0.15354288 7.55012e-21)
(2.0231076 0.063937652 -4.5367601e-21)
(2.0711713 0.071013679 -7.8492277e-21)
(2.1393606 0.064521137 -5.7623378e-21)
(2.1949943 0.060112797 -7.7578117e-21)
(2.2427426 0.048116177 -1.2590254e-21)
(2.2780034 0.043262998 2.324175e-21)
(2.3110907 0.034138007 3.1159985e-21)
(2.3374806 0.030970698 2.13957e-21)
(2.3609587 0.024527107 1.3699358e-22)
(2.3805698 0.021693767 -1.407315e-21)
(2.3979676 0.016578889 -1.0720225e-21)
(2.4127991 0.014249821 -6.7422284e-22)
(2.4258725 0.010256577 -1.1759736e-21)
(2.437504 0.0082724095 -7.2501853e-22)
(2.4476159 0.0051131609 -3.1526863e-22)
(2.4568682 0.0035100356 -1.9969289e-22)
(2.4647488 0.0010496636 6.9267098e-22)
(2.4721716 -0.00019575454 2.0151574e-21)
(2.4783427 -0.0019966108 1.1925778e-21)
(2.4842961 -0.0027861685 1.5225213e-21)
(2.4890163 -0.0040284255 1.3051269e-21)
(2.4936743 -0.0044547927 -8.9276844e-22)
(2.4972954 -0.0049906682 7.8105764e-22)
(2.5009481 -0.0048021302 1.5842453e-21)
(2.5033434 -0.0047977828 -1.0115039e-21)
(2.50586 -0.0041703827 -1.8714825e-21)
(2.5077261 -0.0031505127 -1.4936198e-21)
(2.5097242 -0.0015065737 -4.73114e-22)
(1.6253601 0.14848495 7.9138829e-21)
(1.83465 0.069809941 1.4635293e-20)
(1.9854153 -0.013551398 5.1977853e-21)
(2.0320781 0.0063438423 5.1293755e-21)
(2.1052916 0.012664599 2.1427254e-21)
(2.164343 0.016990598 1.2213557e-21)
(2.2167044 0.012488327 -5.8716662e-22)
(2.2530048 0.012668992 -4.5071945e-21)
(2.2886841 0.0078499255 -1.1554688e-21)
(2.316779 0.0085217704 2.8616071e-22)
(2.3424799 0.0053466364 -6.8878165e-22)
(2.3631158 0.005263981 -5.3572247e-22)
(2.3820354 0.0024253386 -1.9989286e-21)
(2.3977151 0.0020953311 -1.2661677e-21)
(2.4119906 -0.00025070473 -8.9134325e-22)
(2.4243385 -0.00079780446 -8.5175143e-22)
(2.4354481 -0.0028038499 -4.1788076e-22)
(2.4453876 -0.0033846852 -4.6580783e-22)
(2.4541993 -0.0050064234 -3.6556194e-22)
(2.4623351 -0.0054864855 -5.3401735e-22)
(2.4693824 -0.0067405774 7.0246211e-22)
(2.4760508 -0.0070708545 6.0690736e-22)
(2.4816952 -0.0078884374 9.1707178e-22)
(2.4871508 -0.0079083841 2.0593091e-21)
(2.491564 -0.0083624455 -1.6750774e-23)
(2.4959245 -0.0081505742 -1.7783879e-21)
(2.4993865 -0.0079957312 -1.0546563e-21)
(2.5028695 -0.0071976206 -2.2428385e-21)
(2.5052636 -0.0066541028 -3.0800801e-21)
(2.5077549 -0.005562011 -3.4228162e-22)
(2.5096629 -0.0040212763 6.4613546e-22)
(2.5116847 -0.0018637995 7.1861221e-25)
(1.5957134 0.055052476 -4.9927589e-21)
(1.8104964 -0.016908679 -4.293132e-21)
(1.9622867 -0.094108427 2.6148142e-21)
(2.0054819 -0.062724659 1.633324e-21)
(2.0808177 -0.04432216 1.5083756e-21)
(2.1414534 -0.031035451 4.5179226e-21)
(2.1969254 -0.027315645 3.6552251e-21)
(2.2335497 -0.021872185 5.1115732e-22)
(2.2708707 -0.022001569 -3.1965513e-21)
(2.3000085 -0.017367057 -6.3694755e-22)
(2.3273291 -0.016947476 7.4181283e-22)
(2.3485711 -0.014026836 -8.1381657e-23)
(2.3685614 -0.014281659 7.4116838e-23)
(2.3846991 -0.012436468 -4.6070202e-22)
(2.399808 -0.01289583 2.6102015e-22)
(2.4125176 -0.01189434 2.68156e-22)
(2.4243339 -0.012546921 3.3574387e-22)
(2.4346756 -0.012020211 -9.2378502e-23)
(2.4441618 -0.012681695 -1.3919974e-22)
(2.4527678 -0.012378993 -2.9593445e-22)
(2.460509 -0.012923048 -4.5025257e-22)
(2.4677209 -0.012635302 8.2439197e-23)
(2.4740556 -0.013010155 -1.268641e-23)
(2.4800898 -0.01268279 -9.128962e-22)
(2.4852649 -0.012762116 1.3826509e-22)
(2.4902872 -0.012190371 3.959103e-22)
(2.494423 -0.012026201 -1.2711718e-21)
(2.4985176 -0.011303021 -4.668794e-22)
(2.5018233 -0.010585573 -1.586249e-21)
(2.5051486 -0.0092737054 -1.3225766e-21)
(2.5075224 -0.0082686355 1.3058758e-21)
(2.5099736 -0.0067760373 -6.8462826e-23)
(2.511907 -0.0047772697 -6.9332853e-22)
(2.5139355 -0.0021631042 6.4880528e-22)
(1.5879584 -0.039636523 4.978204e-22)
(1.8044717 -0.10367097 -4.2648298e-21)
(1.9545725 -0.1744038 -3.2017557e-21)
(1.9924771 -0.13289617 7.8525638e-22)
(2.0663003 -0.10347701 -6.7763288e-22)
(2.1267918 -0.081841594 -1.5058522e-21)
(2.1836592 -0.069580392 1.3046391e-21)
(2.2199455 -0.059038906 3.5697072e-21)
(2.2581001 -0.054159866 5.7982039e-22)
(2.2876227 -0.045701359 -2.38961e-22)
(2.3159581 -0.041514335 2.2601655e-21)
(2.337405 -0.03550487 3.6558637e-22)
(2.3580508 -0.032901885 -4.2296245e-22)
(2.3742386 -0.028789867 1.5098267e-21)
(2.3898062 -0.027176312 1.0252403e-21)
(2.4025296 -0.02455872 2.5605893e-22)
(2.4147176 -0.02372626 2.7292174e-22)
(2.4251645 -0.022073198 2.8409045e-22)
(2.4350539 -0.021677434 -1.3013246e-22)
(2.4438967 -0.02054716 7.2640824e-23)
(2.4520997 -0.020338116 -6.8510307e-23)
(2.4596541 -0.019455446 -6.0676585e-22)
(2.4665154 -0.019255342 -1.0318255e-22)
(2.4729732 -0.018430526 2.3978274e-23)
(2.4787059 -0.018167939 -8.3052672e-22)
(2.4842039 -0.017356079 -9.9706355e-22)
(2.4889714 -0.016874779 -7.7085927e-22)
(2.4936222 -0.015839898 -2.3987043e-22)
(2.4975101 -0.015179553 5.4117876e-22)
(2.5013696 -0.014032722 1.3647738e-21)
(2.5045299 -0.012845786 1.6637022e-21)
(2.5077102 -0.011090373 1.6485388e-21)
(2.5100494 -0.0096854019 3.4829286e-22)
(2.5124503 -0.0078401533 -2.428211e-21)
(2.5143926 -0.0054364303 -1.1810875e-21)
(2.5164106 -0.0024198462 -7.8414524e-22)
(1.6035284 -0.13265003 -5.8271317e-21)
(1.8150428 -0.18829276 6.5481614e-21)
(1.9609307 -0.25179749 2.7022388e-21)
(1.9919482 -0.20113095 -4.0110915e-21)
(2.0611918 -0.16183962 -1.2334126e-21)
(2.120375 -0.13290197 -8.8692098e-23)
(2.1767775 -0.11264479 -8.6616371e-22)
(2.2122345 -0.097328763 -1.8614684e-22)
(2.2504366 -0.087513798 1.9420611e-21)
(2.2798497 -0.075423832 7.9817901e-22)
(2.3085953 -0.067531481 2.3473405e-23)
(2.3299117 -0.05840023 2.1141359e-21)
(2.3508252 -0.052809145 3.2623034e-22)
(2.3666963 -0.046352968 -2.0974785e-21)
(2.382338 -0.042548025 -2.9811538e-22)
(2.3947181 -0.038266885 8.5462646e-22)
(2.4069432 -0.035872422 1.2089539e-22)
(2.4171872 -0.033094351 0)
(2.4271902 -0.031610024 0)
(2.4360235 -0.029691319 2.3475615e-22)
(2.4444637 -0.028695944 4.3060761e-22)
(2.4521745 -0.027207464 4.117208e-22)
(2.4593724 -0.02643358 -9.1840257e-23)
(2.4660934 -0.02516487 -9.3762957e-23)
(2.4722379 -0.024447859 3.1051648e-23)
(2.4780735 -0.023243628 -1.9935394e-22)
(2.4832994 -0.022513332 -3.4418171e-22)
(2.4883469 -0.021335584 5.173184e-22)
(2.4927653 -0.020418354 1.0451085e-21)
(2.4971007 -0.019008866 6.4832587e-22)
(2.500769 -0.017938462 1.4341693e-21)
(2.5044218 -0.016427004 3.1161251e-21)
(2.5074484 -0.014836126 3.1266911e-21)
(2.510494 -0.012689426 3.5946755e-22)
(2.5127884 -0.01093301 -2.2783501e-21)
(2.5151298 -0.0087725288 -2.4689768e-21)
(2.5170643 -0.0060118959 -2.1126702e-21)
(2.5190554 -0.0026413495 -3.3761709e-21)
(1.6429491 -0.2200135 -6.6977085e-21)
(1.8411157 -0.26797473 -3.5554187e-21)
(1.978495 -0.32394216 8.789751e-21)
(2.0018447 -0.26515011 1.9959897e-21)
(2.0642666 -0.2169876 -5.4557841e-21)
(2.1211075 -0.18214822 -9.3400002e-22)
(2.175712 -0.15488805 1.5919842e-22)
(2.2099307 -0.13540241 3.2571169e-22)
(2.2475378 -0.12103397 1.0953766e-21)
(2.2765507 -0.10558565 1.0780645e-21)
(2.305215 -0.094203833 -3.8747586e-23)
(2.3261538 -0.081994318 -4.9747098e-22)
(2.3470034 -0.073395209 1.4949501e-21)
(2.3622513 -0.064519591 1.0866291e-21)
(2.3776202 -0.058453569 -1.2133493e-21)
(2.3893134 -0.052479877 -7.8206679e-22)
(2.4012324 -0.048483566 3.085151e-22)
(2.4109572 -0.044613565 1.1497413e-22)
(2.4207786 -0.0420469 0)
(2.4293608 -0.039409745 0)
(2.437803 -0.037659339 2.2044026e-22)
(2.4454942 -0.035641039 -2.450888e-24)
(2.4528514 -0.034296778 -2.5784136e-23)
(2.4596995 -0.032582851 -6.1342078e-23)
(2.466104 -0.0314355 -6.2664541e-23)
(2.472149 -0.029903795 7.1319967e-22)
(2.4777036 -0.028822878 5.1127744e-22)
(2.4830231 -0.027345622 -7.6054027e-22)
(2.4878234 -0.026264081 5.3256369e-23)
(2.4924949 -0.024799852 7.055437e-22)
(2.4966168 -0.023531106 3.2303118e-22)
(2.5006864 -0.021804583 -1.0764447e-21)
(2.5041616 -0.020383059 4.8185039e-22)
(2.507632 -0.018545729 -1.3877905e-22)
(2.5105341 -0.016598009 -2.820974e-21)
(2.5134512 -0.014099096 4.3707754e-22)
(2.5156916 -0.012029955 3.0095835e-22)
(2.517964 -0.0095854687 -6.9394513e-22)
(2.5198748 -0.0065098922 -1.8706835e-21)
(2.5218226 -0.0028298933 -4.9933206e-22)
(1.7015684 -0.29828516 3.0014551e-22)
(1.8805857 -0.33984567 -1.0856048e-20)
(2.0041137 -0.38853522 -8.2824582e-21)
(2.0198969 -0.32313693 3.7737584e-21)
(2.0741359 -0.26725936 -3.5805218e-21)
(2.1276848 -0.22807333 -3.3304744e-21)
(2.1795454 -0.1951192 1.003575e-21)
(2.212253 -0.17223313 6.6168553e-22)
(2.2487627 -0.15388806 9.250612e-22)
(2.277287 -0.13544918 3.0098375e-22)
(2.3055614 -0.12086344 2.7138407e-22)
(2.3259918 -0.10567802 6.926333e-22)
(2.3465354 -0.094127614 2.5150248e-22)
(2.3609343 -0.082772461 2.321559e-22)
(2.3757402 -0.074378034 -1.7663612e-22)
(2.3864243 -0.066682931 -1.058356e-21)
(2.3977061 -0.06105636 -6.4305999e-22)
(2.406592 -0.056149649 4.3806837e-22)
(2.4159275 -0.052534779 2.5631268e-22)
(2.4240118 -0.049293193 -5.4205838e-23)
(2.4322213 -0.046856635 -5.5092009e-23)
(2.4397306 -0.044416735 3.1858491e-24)
(2.4470767 -0.042567553 -2.1055911e-22)
(2.4539398 -0.040492392 -2.673049e-22)
(2.4604741 -0.038929901 -3.0503788e-22)
(2.4666298 -0.037062372 -2.8153743e-22)
(2.4723921 -0.035661304 4.5341732e-22)
(2.4778748 -0.033950736 8.3404316e-22)
(2.4829401 -0.03260872 -3.6900743e-22)
(2.4878312 -0.030930961 -4.4577136e-23)
(2.4922762 -0.029575889 5.7352375e-22)
(2.4966378 -0.027875202 -2.0821217e-22)
(2.5005098 -0.026309518 -1.5464544e-21)
(2.5043558 -0.024300183 -3.4434002e-21)
(2.5076608 -0.02256649 -4.0969445e-21)
(2.5109678 -0.020427946 -4.9105473e-21)
(2.5137508 -0.018158129 -1.8482813e-21)
(2.5165409 -0.015337158 9.0508079e-22)
(2.518718 -0.012987615 -2.9602102e-23)
(2.5209112 -0.010286849 1.4693447e-21)
(2.5227825 -0.0069349301 2.8262761e-21)
(2.5246708 -0.0029876331 2.85484e-21)
(1.7730902 -0.3656712 2.4546913e-21)
(1.9282575 -0.40171649 6.9866027e-21)
(2.0348083 -0.44367854 -4.183164e-21)
(2.0437435 -0.37381689 -7.3163646e-21)
(2.0892546 -0.31167118 3.6032895e-21)
(2.1387248 -0.2697049 9.3306082e-22)
(2.1871827 -0.23252872 1.3132508e-21)
(2.218267 -0.20708262 5.2934261e-22)
(2.2533439 -0.18547243 1.3842949e-22)
(2.2814514 -0.16448108 3.1395104e-22)
(2.309218 -0.14703864 -2.8932242e-22)
(2.3291517 -0.12900696 6.1405464e-23)
(2.3492631 -0.11459917 4.4219261e-22)
(2.3626722 -0.10066747 1.0939061e-21)
(2.3767006 -0.089888522 1.0848685e-21)
(2.3860718 -0.080412642 3.8158206e-22)
(2.3964073 -0.073121742 -4.4714541e-22)
(2.4041227 -0.06723798 -9.6983676e-22)
(2.4126632 -0.062620683 5.2153697e-23)
(2.4199915 -0.058921396 1.1197565e-22)
(2.4277277 -0.055904627 -1.8542631e-22)
(2.4349003 -0.053203856 -7.760839e-23)
(2.4420768 -0.050955337 -2.2604113e-23)
(2.4488721 -0.048628662 -6.9142696e-23)
(2.455428 -0.046723284 -1.2074902e-22)
(2.4616308 -0.044585638 -1.0523231e-22)
(2.4675071 -0.042873737 -7.9647427e-23)
(2.4730748 -0.040903735 -2.884982e-22)
(2.4783031 -0.039329672 6.101957e-23)
(2.4833125 -0.037502746 1.2781386e-22)
(2.4879714 -0.035969329 4.4414685e-22)
(2.4925123 -0.034137981 2.1410897e-21)
(2.4966643 -0.032558375 1.423963e-21)
(2.5007747 -0.030648074 4.2672561e-22)
(2.5044367 -0.028817984 -1.3432883e-21)
(2.5080942 -0.026542899 -6.9037261e-22)
(2.5112466 -0.024521879 -1.4072154e-21)
(2.5144027 -0.022097496 -1.2077874e-21)
(2.5170678 -0.019532338 1.4183478e-21)
(2.5197281 -0.016414292 -2.2118774e-21)
(2.5218318 -0.01381273 -8.2310353e-22)
(2.5239341 -0.010881682 2.8807603e-21)
(2.5257503 -0.0072902712 2.9086265e-21)
(2.5275636 -0.0031162071 2.2597713e-21)
(1.8500883 -0.42132768 -9.4123639e-21)
(1.9808031 -0.45257048 7.7204872e-21)
(2.0679389 -0.48882081 1.1785919e-20)
(2.0710455 -0.4164992 6.1237062e-21)
(2.1079917 -0.34983877 3.0469873e-21)
(2.1529026 -0.30654836 5.5876812e-21)
(2.1974823 -0.26663624 3.1451164e-21)
(2.2270006 -0.23949792 7.7185231e-23)
(2.2604696 -0.21540775 -7.4277751e-22)
(2.2883638 -0.19233638 2.3832266e-21)
(2.3156653 -0.17244294 2.5888308e-21)
(2.3352414 -0.1516917 -3.8640807e-22)
(2.3549392 -0.13454147 -5.4675992e-23)
(2.3673217 -0.11793249 8.5275297e-22)
(2.3804394 -0.10465977 1.4746392e-21)
(2.3882332 -0.093277738 4.1614626e-22)
(2.3973346 -0.084269617 -2.6273709e-22)
(2.403526 -0.077434529 1.505544e-22)
(2.4109522 -0.071870973 -3.3634935e-22)
(2.4172404 -0.067882274 -4.1000119e-22)
(2.4242521 -0.064420827 -3.606985e-22)
(2.4309328 -0.06166759 -5.8511579e-23)
(2.437787 -0.059170406 4.7729292e-23)
(2.4444587 -0.056755186 -2.2107209e-22)
(2.4509549 -0.054614865 -2.6851958e-22)
(2.457185 -0.052285197 3.4514799e-22)
(2.4631147 -0.05031723 3.6867696e-22)
(2.4687297 -0.048120109 -2.4261511e-22)
(2.4740477 -0.046306839 -4.4368676e-22)
(2.4791 -0.044285724 3.0312112e-22)
(2.4838783 -0.042598527 3.7051118e-22)
(2.4884955 -0.040702624 -5.6828071e-22)
(2.4928218 -0.039023304 1.0273478e-21)
(2.4970858 -0.037063661 1.2452672e-21)
(2.5010003 -0.03528621 2.9554925e-22)
(2.5049111 -0.033174563 -1.5260062e-21)
(2.508396 -0.031096437 -9.0800691e-22)
(2.5118912 -0.028560689 3.1749425e-21)
(2.5149029 -0.026267853 3.4393577e-21)
(2.5179137 -0.023567603 5.2520558e-22)
(2.520458 -0.02072924 -2.9373466e-21)
(2.5229813 -0.017336743 -1.9797796e-21)
(2.5250005 -0.014509435 1.5202544e-21)
(2.5269992 -0.011373513 1.3958554e-21)
(2.5287453 -0.0075783296 7.5567899e-22)
(2.5304688 -0.0032169514 2.1911177e-21)
(1.9256704 -0.46635568 -3.6018303e-20)
(2.0343418 -0.4929154 -2.040082e-20)
(2.1031104 -0.5240039 -4.2965686e-21)
(2.099775 -0.45113332 5.5015761e-21)
(2.1288218 -0.3818762 1.2426618e-23)
(2.1689915 -0.33847928 -3.7786027e-21)
(2.209364 -0.29721657 -1.4772698e-21)
(2.2375092 -0.26925475 8.7046809e-21)
(2.2693442 -0.24350919 5.8807678e-21)
(2.2973377 -0.21885979 -9.0166927e-22)
(2.3243541 -0.19695874 2.0654512e-21)
(2.3438411 -0.17361297 3.9331471e-21)
(2.3632726 -0.15383358 1.1411454e-21)
(2.3746919 -0.13433668 -8.7020746e-22)
(2.3868576 -0.11846435 -2.1223068e-23)
(2.3928292 -0.10503912 -2.410498e-22)
(2.400441 -0.094155145 -1.2746055e-21)
(2.4047518 -0.086379366 -8.183704e-22)
(2.4107187 -0.079883864 -4.3739446e-22)
(2.4156541 -0.075776339 -2.4461495e-22)
(2.4216645 -0.072033798 -3.182894e-22)
(2.4276843 -0.069477799 -1.9081727e-22)
(2.4340615 -0.066931021 9.7368051e-23)
(2.4405758 -0.0646427 8.3724627e-23)
(2.4469558 -0.062421906 -1.7045207e-22)
(2.4532395 -0.060020761 -4.4045541e-22)
(2.4592031 -0.057875123 1.3977128e-22)
(2.4648788 -0.055476422 2.1778478e-22)
(2.4702519 -0.053446639 -3.6720757e-22)
(2.4753101 -0.051227725 -5.0465367e-23)
(2.4801378 -0.049361444 6.654055e-22)
(2.4847445 -0.047344055 4.6249682e-22)
(2.4891487 -0.045589565 -4.278484e-22)
(2.493457 -0.043656048 -5.0651619e-23)
(2.4975198 -0.041856039 1.3933771e-22)
(2.5015765 -0.039773429 -2.0433114e-21)
(2.5053023 -0.037807045 -3.8117583e-21)
(2.5090563 -0.03548769 -2.4066257e-21)
(2.5123891 -0.033166529 1.4484799e-21)
(2.5157388 -0.030367678 1.9443313e-21)
(2.5186152 -0.027813039 -8.476797e-22)
(2.5214797 -0.024844625 3.4479631e-22)
(2.5238963 -0.021753076 1.3069891e-21)
(2.5262719 -0.018108378 -4.7844356e-22)
(2.5281943 -0.015080719 -6.2770731e-22)
(2.530076 -0.011765439 -8.1009151e-22)
(2.5317377 -0.0078014909 5.2845172e-22)
(2.5333579 -0.0032912579 -1.6470478e-21)
(2.0007157 -0.5024078 -1.4713487e-20)
(2.0872172 -0.52421345 -3.2998933e-20)
(2.1413642 -0.55035267 -1.8100707e-20)
(2.1295942 -0.47827911 -9.2903983e-21)
(2.1500358 -0.40822436 -5.8502865e-23)
(2.1858861 -0.36569123 1.0157913e-20)
(2.2218635 -0.32424366 6.758673e-21)
(2.248932 -0.29631115 1.2667616e-21)
(2.2792278 -0.26974473 1.0990991e-20)
(2.3077088 -0.24403916 1.8031357e-21)
(2.3347344 -0.2206081 -4.7083111e-21)
(2.3545412 -0.19478084 2.3278415e-21)
(2.3739877 -0.17248672 4.1022802e-21)
(2.3845992 -0.14988127 -1.1576105e-22)
(2.3958633 -0.13120431 -2.0458624e-21)
(2.3998278 -0.11537865 2.73404e-23)
(2.4057173 -0.10250034 -1.8076055e-22)
(2.4077059 -0.093735242 5.0641411e-22)
(2.4118626 -0.086278953 9.6645651e-22)
(2.4150792 -0.082273434 7.4006739e-23)
(2.4197841 -0.07838326 2.6064563e-22)
(2.4249566 -0.076326381 2.9859582e-23)
(2.4306852 -0.073966558 1.5940328e-22)
(2.4370238 -0.072077818 1.5693367e-22)
(2.4432508 -0.069984853 1.4551991e-22)
(2.4496614 -0.067675533 -3.6834852e-22)
(2.4556827 -0.065467607 -6.265939e-22)
(2.4614915 -0.062915153 2.2348441e-22)
(2.4669336 -0.060697283 2.9727022e-22)
(2.472011 -0.058248552 -1.7362382e-23)
(2.4768551 -0.056191041 2.8723646e-22)
(2.4813935 -0.054021535 -4.2703628e-22)
(2.4857952 -0.052154751 -6.3753649e-22)
(2.4900409 -0.050191051 -1.6738791e-22)
(2.4941493 -0.048400485 1.9517005e-22)
(2.4982364 -0.046440625 4.3083118e-23)
(2.5021015 -0.044526372 -2.0318919e-21)
(2.506014 -0.042307613 -2.6432829e-21)
(2.5095918 -0.040147197 -1.2892651e-21)
(2.5132211 -0.037603133 -6.0503258e-22)
(2.5164179 -0.035036644 -1.6732179e-22)
(2.5196295 -0.031968584 -1.0970252e-23)
(2.5223693 -0.029159742 1.1344516e-21)
(2.5250802 -0.025931062 1.6732614e-21)
(2.5273589 -0.022606031 -1.6334702e-23)
(2.5295735 -0.018732293 -4.1366065e-22)
(2.5313861 -0.015529569 -5.8291776e-22)
(2.5331373 -0.012060865 3.2715017e-22)
(2.5347016 -0.0079624516 -1.7427623e-21)
(2.5362063 -0.0033406054 -4.1741957e-21)
(2.0778696 -0.5297649 4.7039829e-21)
(2.1396038 -0.54752732 3.1608119e-20)
(2.1800675 -0.56919335 1.4858803e-20)
(2.1600296 -0.49834953 -8.7720958e-21)
(2.1698351 -0.42903669 -2.384874e-22)
(2.2023065 -0.38848987 1.5491464e-20)
(2.2342163 -0.34784164 2.5459763e-20)
(2.2605099 -0.32076024 -9.6841545e-21)
(2.2894669 -0.29419226 -1.5177678e-20)
(2.3188699 -0.26796434 1.0412234e-20)
(2.3462769 -0.24350743 1.6747173e-21)
(2.366922 -0.21531984 -1.0503606e-20)
(2.3868119 -0.19061758 -3.9281337e-21)
(2.3968801 -0.16458369 1.9824167e-21)
(2.4073835 -0.14287412 -2.0577347e-21)
(2.4091846 -0.12433454 -1.5789613e-21)
(2.4131895 -0.10912476 3.9757827e-22)
(2.4124157 -0.099151273 3.7041799e-22)
(2.4143492 -0.090733492 1.0364345e-21)
(2.415371 -0.086928634 1.506849e-21)
(2.4184293 -0.083125661 6.6766462e-22)
(2.4224997 -0.081914351 2.4359913e-22)
(2.4273892 -0.080011826 2.9542653e-23)
(2.4335346 -0.078875597 4.661046e-22)
(2.4395858 -0.077166429 4.6872826e-22)
(2.4462432 -0.075167667 5.1585762e-22)
(2.4523903 -0.073055929 3.4164075e-23)
(2.4584698 -0.070419644 -4.8840694e-22)
(2.4640512 -0.068060044 3.2141723e-22)
(2.4692223 -0.065347089 3.592643e-23)
(2.4740984 -0.063071437 -2.723339e-22)
(2.4785509 -0.060670616 7.9875992e-22)
(2.4828977 -0.058652691 1.2686432e-22)
(2.4869885 -0.056618448 -3.3969689e-22)
(2.4910426 -0.054800179 1.1113425e-22)
(2.4950323 -0.052922112 3.3443398e-22)
(2.4989275 -0.051108135 1.9221483e-22)
(2.502882 -0.04910964 -8.6303751e-22)
(2.5066095 -0.04707005 -1.4248354e-21)
(2.5104308 -0.044686022 1.3490199e-21)
(2.5138914 -0.042316156 2.041765e-21)
(2.5174153 -0.039523904 -1.8761359e-21)
(2.5204832 -0.036706114 -1.7557375e-21)
(2.523554 -0.033362418 5.0104959e-23)
(2.5261505 -0.030306953 5.4439458e-22)
(2.5286949 -0.026827916 2.8621493e-21)
(2.5308229 -0.023289989 2.5316613e-21)
(2.5328614 -0.019211954 1.799316e-21)
(2.5345513 -0.015859691 2.7015731e-21)
(2.5361587 -0.012263913 9.3906235e-22)
(2.5376141 -0.0080643752 -1.3277875e-21)
(2.538993 -0.0033665621 1.9739231e-21)
(2.1546635 -0.54874658 1.9678194e-20)
(2.1907888 -0.56370293 -2.8510353e-21)
(2.2149146 -0.58103375 2.2407706e-20)
(2.1885146 -0.51207689 2.2212287e-20)
(2.187637 -0.44432495 -1.3212455e-22)
(2.217123 -0.40709447 -2.5319171e-20)
(2.2458452 -0.36835473 -1.0818309e-20)
(2.2716651 -0.34279036 1.1108665e-20)
(2.2995081 -0.31700616 -2.251169e-20)
(2.3302931 -0.29080002 -1.9969081e-20)
(2.3584965 -0.2658318 4.2748362e-21)
(2.3805889 -0.23542053 3.3591522e-21)
(2.4014719 -0.20842721 -8.1875081e-21)
(2.4113753 -0.17857723 -6.2742252e-21)
(2.4213628 -0.1535289 -6.9446476e-22)
(2.4208486 -0.1317959 -3.4772231e-24)
(2.4228228 -0.11390267 4.8583396e-22)
(2.418843 -0.10256083 -8.6348813e-22)
(2.418147 -0.092944057 -9.0447022e-22)
(2.4164446 -0.089569377 7.0038451e-22)
(2.4173852 -0.085959576 1.1470612e-21)
(2.4201054 -0.085878861 8.0290649e-22)
(2.4238859 -0.084819442 4.0218696e-22)
(2.4297973 -0.084831424 5.589483e-22)
(2.4356511 -0.0838503 9.8227522e-22)
(2.4427089 -0.082448513 3.6465049e-22)
(2.4490941 -0.080641158 4.0692366e-22)
(2.4556508 -0.078026136 5.9260399e-22)
(2.4615038 -0.075593934 1.0519586e-22)
(2.4669157 -0.072577027 4.3492203e-22)
(2.4718984 -0.070050526 1.678635e-22)
(2.4763007 -0.067312152 3.3887489e-22)
(2.48058 -0.065070137 1.3647064e-21)
(2.4844463 -0.06286142 -3.0784174e-22)
(2.4883609 -0.060966193 -7.586378e-22)
(2.4921222 -0.059141026 9.7348852e-22)
(2.4959271 -0.057404222 1.2004208e-21)
(2.4997803 -0.055613843 7.271622e-23)
(2.5035465 -0.053767022 -9.3308519e-22)
(2.5074503 -0.051693438 -1.2466963e-21)
(2.5110909 -0.04950211 1.3921901e-21)
(2.5148593 -0.046911783 3.4246915e-21)
(2.5182216 -0.044310615 -2.7500953e-22)
(2.5216462 -0.041244447 -6.470436e-22)
(2.5245829 -0.038168846 1.0862392e-21)
(2.5275016 -0.034545499 -4.3641135e-22)
(2.5299425 -0.031252742 1.7497741e-21)
(2.5323037 -0.027536424 3.747141e-21)
(2.5342665 -0.023807706 3.071072e-21)
(2.5361131 -0.019551857 1.6225338e-21)
(2.5376677 -0.016075857 -6.849623e-23)
(2.5391191 -0.012379528 6.8949126e-23)