/*--------------------------------*- C++ -*----------------------------------*\
| =========                 |                                                 |
| \\      /  F ield         | OpenFOAM: The Open Source CFD Toolbox           |
|  \\    /   O peration     | Version:  v2012                                 |
|   \\  /    A nd           | Website:  www.openfoam.com                      |
|    \\/     M anipulation  |                                                 |
\*---------------------------------------------------------------------------*/
FoamFile
{
    version     2.0;
    format      ascii;
    class       volVectorField;
    location    "83.4506707643468246";
    object      cellDisplacement;
}
// * * * * * * * * * * * * * * * * * * * * * * * * * * * * * * * * * * * * * //

dimensions      [0 1 0 0 0 0 0];


internalField   nonuniform List<vector> 
9200
(
(-0.017415585 0 0)
(-0.017444106 0 0)
(-0.050466983 0 0)
(-0.017601689 0 0)
(-0.050736555 0 0)
(-0.081502392 0 0)
(-0.017785915 0 0)
(-0.051088985 0 0)
(-0.081748921 0 0)
(-0.11017096 0 0)
(-0.018007007 0 0)
(-0.051595882 0 0)
(-0.082320393 0 0)
(-0.11062908 0 0)
(-0.13691006 0 0)
(-0.018241212 0 0)
(-0.052186444 0 0)
(-0.083078048 0 0)
(-0.11133424 0 0)
(-0.13734041 0 0)
(-0.16144951 0 0)
(-0.018478336 0 0)
(-0.05282209 0 0)
(-0.083962009 0 0)
(-0.11227216 0 0)
(-0.13817876 0 0)
(-0.16204806 0 0)
(-0.18420703 0 0)
(-0.018715695 0 0)
(-0.053477816 0 0)
(-0.084934869 0 0)
(-0.11341257 0 0)
(-0.13930327 0 0)
(-0.16298522 0 0)
(-0.18476895 0 0)
(-0.20498302 0 0)
(-0.018943626 0 0)
(-0.054129717 0 0)
(-0.085946366 0 0)
(-0.114667 0 0)
(-0.14063744 0 0)
(-0.16423984 0 0)
(-0.18582731 0 0)
(-0.20569471 0 0)
(-0.22416672 0 0)
(-0.019165656 0 0)
(-0.054771197 0 0)
(-0.086963235 0 0)
(-0.11597995 0 0)
(-0.14211776 0 0)
(-0.16572967 0 0)
(-0.18719966 0 0)
(-0.20682058 0 0)
(-0.22484486 0 0)
(-0.24161841 0 0)
(-0.019373664 0 0)
(-0.055385842 0 0)
(-0.087965978 0 0)
(-0.11731393 0 0)
(-0.14368433 0 0)
(-0.16740375 0 0)
(-0.18883354 0 0)
(-0.20829836 0 0)
(-0.2260718 0 0)
(-0.24241927 0 0)
(-0.25767317 0 0)
(-0.019572689 0 0)
(-0.055976221 0 0)
(-0.088936954 0 0)
(-0.11863133 0 0)
(-0.14528547 0 0)
(-0.16918767 0 0)
(-0.19066528 0 0)
(-0.21005594 0 0)
(-0.22765844 0 0)
(-0.24369901 0 0)
(-0.2584361 0 0)
(-0.27222563 0 0)
(-0.019756345 0 0)
(-0.056529697 0 0)
(-0.089867189 0 0)
(-0.11991971 0 0)
(-0.14687708 0 0)
(-0.17101326 0 0)
(-0.19261572 0 0)
(-0.21199373 0 0)
(-0.22949444 0 0)
(-0.24535794 0 0)
(-0.25979721 0 0)
(-0.27308833 0 0)
(-0.28557108 0 0)
(-0.019929718 0 0)
(-0.057053295 0 0)
(-0.090750131 0 0)
(-0.12115539 0 0)
(-0.14843682 0 0)
(-0.17284485 0 0)
(-0.1946385 0 0)
(-0.21410924 0 0)
(-0.23158538 0 0)
(-0.24732047 0 0)
(-0.26154057 0 0)
(-0.27447467 0 0)
(-0.28639304 0 0)
(-0.2976379 0 0)
(-0.020088278 0 0)
(-0.057537808 0 0)
(-0.091580408 0 0)
(-0.12233754 0 0)
(-0.1499413 0 0)
(-0.17463744 0 0)
(-0.19667218 0 0)
(-0.21629149 0 0)
(-0.23378732 0 0)
(-0.24945483 0 0)
(-0.26355158 0 0)
(-0.27626425 0 0)
(-0.28783379 0 0)
(-0.29853357 0 0)
(-0.30867487 0 0)
(-0.020236244 0 0)
(-0.057991032 0 0)
(-0.092357654 0 0)
(-0.1234499 0 0)
(-0.1513804 0 0)
(-0.17637949 0 0)
(-0.1986737 0 0)
(-0.21849262 0 0)
(-0.23609956 0 0)
(-0.25178346 0 0)
(-0.26581133 0 0)
(-0.27836637 0 0)
(-0.28967519 0 0)
(-0.2999758 0 0)
(-0.3095232 0 0)
(-0.31862929 0 0)
(-0.020370239 0 0)
(-0.05840649 0 0)
(-0.093078123 0 0)
(-0.12449852 0 0)
(-0.15274347 0 0)
(-0.17804218 0 0)
(-0.20061929 0 0)
(-0.22067425 0 0)
(-0.23844113 0 0)
(-0.25419029 0 0)
(-0.26818564 0 0)
(-0.2806453 0 0)
(-0.29179397 0 0)
(-0.30183089 0 0)
(-0.31099664 0 0)
(-0.31952991 0 0)
(-0.32771348 0 0)
(-0.020493888 0 0)
(-0.058791629 0 0)
(-0.093746403 0 0)
(-0.12547214 0 0)
(-0.1540252 0 0)
(-0.17962696 0 0)
(-0.20248568 0 0)
(-0.22279003 0 0)
(-0.24075862 0 0)
(-0.2566305 0 0)
(-0.2706524 0 0)
(-0.28308921 0 0)
(-0.29415292 0 0)
(-0.30399694 0 0)
(-0.31286666 0 0)
(-0.32098167 0 0)
(-0.32856496 0 0)
(-0.33589314 0 0)
(-0.020604533 0 0)
(-0.059142551 0 0)
(-0.09435949 0 0)
(-0.12637946 0 0)
(-0.15522363 0 0)
(-0.1811138 0 0)
(-0.20426279 0 0)
(-0.22483407 0 0)
(-0.24302366 0 0)
(-0.25905693 0 0)
(-0.27316582 0 0)
(-0.28560669 0 0)
(-0.29660673 0 0)
(-0.30633866 0 0)
(-0.31501722 0 0)
(-0.32283811 0 0)
(-0.33002458 0 0)
(-0.33677725 0 0)
(-0.34334242 0 0)
(-0.020705388 0 0)
(-0.059464879 0 0)
(-0.09492363 0 0)
(-0.1272124 0 0)
(-0.15633611 0 0)
(-0.1825118 0 0)
(-0.20594054 0 0)
(-0.2267754 0 0)
(-0.24520225 0 0)
(-0.26143351 0 0)
(-0.27567463 0 0)
(-0.28816268 0 0)
(-0.2991471 0 0)
(-0.30883653 0 0)
(-0.31739835 0 0)
(-0.32499676 0 0)
(-0.33186956 0 0)
(-0.3381992 0 0)
(-0.34417484 0 0)
(-0.350037 0 0)
(-0.020793957 0 0)
(-0.059756391 0 0)
(-0.095437197 0 0)
(-0.12798138 0 0)
(-0.1573655 0 0)
(-0.18380576 0 0)
(-0.20751336 0 0)
(-0.2286199 0 0)
(-0.24728888 0 0)
(-0.26372792 0 0)
(-0.27813228 0 0)
(-0.29071842 0 0)
(-0.30171853 0 0)
(-0.31137602 0 0)
(-0.31986642 0 0)
(-0.32732988 0 0)
(-0.33398537 0 0)
(-0.34000853 0 0)
(-0.34558891 0 0)
(-0.35088718 0 0)
(-0.35612088 0 0)
(-0.020873563 0 0)
(-0.060021355 0 0)
(-0.095906517 0 0)
(-0.12868042 0 0)
(-0.15831003 0 0)
(-0.18500851 0 0)
(-0.20898032 0 0)
(-0.230347 0 0)
(-0.24926053 0 0)
(-0.26592548 0 0)
(-0.28051763 0 0)
(-0.2932326 0 0)
(-0.30430089 0 0)
(-0.31395793 0 0)
(-0.32240471 0 0)
(-0.32980645 0 0)
(-0.3363171 0 0)
(-0.34209983 0 0)
(-0.34736365 0 0)
(-0.35225157 0 0)
(-0.35692091 0 0)
(-0.36157972 0 0)
(-0.020941749 0 0)
(-0.060258483 0 0)
(-0.096329587 0 0)
(-0.12931988 0 0)
(-0.15917575 0 0)
(-0.18610919 0 0)
(-0.21033769 0 0)
(-0.23196656 0 0)
(-0.25112255 0 0)
(-0.26801142 0 0)
(-0.28280106 0 0)
(-0.29567929 0 0)
(-0.30685413 0 0)
(-0.3165449 0 0)
(-0.32497005 0 0)
(-0.33231949 0 0)
(-0.33873425 0 0)
(-0.34435932 0 0)
(-0.34939377 0 0)
(-0.35397551 0 0)
(-0.35826337 0 0)
(-0.36238531 0 0)
(-0.36652869 0 0)
(-0.021002093 0 0)
(-0.060471306 0 0)
(-0.096713121 0 0)
(-0.12989651 0 0)
(-0.1599627 0 0)
(-0.18712154 0 0)
(-0.21158951 0 0)
(-0.23346368 0 0)
(-0.25285784 0 0)
(-0.2699783 0 0)
(-0.28497906 0 0)
(-0.29802739 0 0)
(-0.30933468 0 0)
(-0.31910556 0 0)
(-0.32753801 0 0)
(-0.33485037 0 0)
(-0.34120856 0 0)
(-0.34674895 0 0)
(-0.35161755 0 0)
(-0.35595776 0 0)
(-0.35993896 0 0)
(-0.36367135 0 0)
(-0.36728535 0 0)
(-0.37095876 0 0)
(-0.021052342 0 0)
(-0.06065899 0 0)
(-0.097055328 0 0)
(-0.13041889 0 0)
(-0.16067712 0 0)
(-0.18803805 0 0)
(-0.21273314 0 0)
(-0.23485136 0 0)
(-0.25447703 0 0)
(-0.27182247 0 0)
(-0.2870331 0 0)
(-0.30026982 0 0)
(-0.31173034 0 0)
(-0.32160582 0 0)
(-0.33008962 0 0)
(-0.33738989 0 0)
(-0.34369649 0 0)
(-0.34916494 0 0)
(-0.35391884 0 0)
(-0.35808998 0 0)
(-0.36184459 0 0)
(-0.36528515 0 0)
(-0.36854114 0 0)
(-0.37171241 0 0)
(-0.37496269 0 0)
(-0.021096094 0 0)
(-0.060824896 0 0)
(-0.09736224 0 0)
(-0.13088509 0 0)
(-0.16131973 0 0)
(-0.18887196 0 0)
(-0.21377688 0 0)
(-0.23611878 0 0)
(-0.25596728 0 0)
(-0.27353839 0 0)
(-0.28896694 0 0)
(-0.30239098 0 0)
(-0.31401289 0 0)
(-0.32402304 0 0)
(-0.33259125 0 0)
(-0.33990823 0 0)
(-0.34618119 0 0)
(-0.35159152 0 0)
(-0.35626544 0 0)
(-0.36033236 0 0)
(-0.36391401 0 0)
(-0.36712477 0 0)
(-0.37009523 0 0)
(-0.37290816 0 0)
(-0.37567129 0 0)
(-0.37853713 0 0)
(-0.021131605 0 0)
(-0.060968457 0 0)
(-0.097632506 0 0)
(-0.13130215 0 0)
(-0.16189655 0 0)
(-0.18961931 0 0)
(-0.21471886 0 0)
(-0.23728036 0 0)
(-0.25734191 0 0)
(-0.27512893 0 0)
(-0.29076788 0 0)
(-0.30438916 0 0)
(-0.31618473 0 0)
(-0.32633438 0 0)
(-0.335008 0 0)
(-0.34237943 0 0)
(-0.34863891 0 0)
(-0.35399998 0 0)
(-0.35861198 0 0)
(-0.36258859 0 0)
(-0.36604432 0 0)
(-0.36908824 0 0)
(-0.37184905 0 0)
(-0.37439433 0 0)
(-0.37683013 0 0)
(-0.3792365 0 0)
(-0.3817545 0 0)
(-0.021161815 0 0)
(-0.061092947 0 0)
(-0.097871161 0 0)
(-0.13166976 0 0)
(-0.16240948 0 0)
(-0.19029088 0 0)
(-0.21556866 0 0)
(-0.23832729 0 0)
(-0.25859176 0 0)
(-0.27659024 0 0)
(-0.29244365 0 0)
(-0.30625768 0 0)
(-0.31822709 0 0)
(-0.32853318 0 0)
(-0.33733036 0 0)
(-0.34477848 0 0)
(-0.35106756 0 0)
(-0.35640503 0 0)
(-0.36095143 0 0)
(-0.36484483 0 0)
(-0.36820087 0 0)
(-0.37113329 0 0)
(-0.37372885 0 0)
(-0.37607114 0 0)
(-0.37825203 0 0)
(-0.38033522 0 0)
(-0.38241246 0 0)
(-0.38461433 0 0)
(-0.021186066 0 0)
(-0.061197925 0 0)
(-0.09807782 0 0)
(-0.13199298 0 0)
(-0.16286301 0 0)
(-0.19088506 0 0)
(-0.21632598 0 0)
(-0.23927557 0 0)
(-0.25973097 0 0)
(-0.27792973 0 0)
(-0.29398606 0 0)
(-0.30799604 0 0)
(-0.32014736 0 0)
(-0.33060963 0 0)
(-0.33953687 0 0)
(-0.34708701 0 0)
(-0.35342897 0 0)
(-0.35875251 0 0)
(-0.36324744 0 0)
(-0.36707588 0 0)
(-0.37034723 0 0)
(-0.3731726 0 0)
(-0.3756442 0 0)
(-0.37783529 0 0)
(-0.37983745 0 0)
(-0.38168694 0 0)
(-0.38347197 0 0)
(-0.38525946 0 0)
(-0.38717348 0 0)
(-0.02120638 0 0)
(-0.061285654 0 0)
(-0.09825502 0 0)
(-0.13227212 0 0)
(-0.16325938 0 0)
(-0.19141055 0 0)
(-0.21700012 0 0)
(-0.24011785 0 0)
(-0.26075336 0 0)
(-0.27914481 0 0)
(-0.29540439 0 0)
(-0.30960377 0 0)
(-0.32193277 0 0)
(-0.33256079 0 0)
(-0.3416288 0 0)
(-0.34928459 0 0)
(-0.35569673 0 0)
(-0.36104699 0 0)
(-0.36552266 0 0)
(-0.36929233 0 0)
(-0.37247551 0 0)
(-0.37519814 0 0)
(-0.37755973 0 0)
(-0.37964566 0 0)
(-0.38150441 0 0)
(-0.38318956 0 0)
(-0.38475748 0 0)
(-0.38626111 0 0)
(-0.38778254 0 0)
(-0.38943495 0 0)
(-0.021131889 0 0)
(-0.061356411 0 0)
(-0.098404894 0 0)
(-0.13251004 0 0)
(-0.16360191 0 0)
(-0.19186779 0 0)
(-0.2175911 0 0)
(-0.24087009 0 0)
(-0.26167285 0 0)
(-0.28024481 0 0)
(-0.29669411 0 0)
(-0.31108138 0 0)
(-0.32359279 0 0)
(-0.33438454 0 0)
(-0.3435938 0 0)
(-0.35136889 0 0)
(-0.35786958 0 0)
(-0.36326284 0 0)
(-0.36773092 0 0)
(-0.37144994 0 0)
(-0.37455809 0 0)
(-0.37718885 0 0)
(-0.37944732 0 0)
(-0.38142299 0 0)
(-0.38317339 0 0)
(-0.38473682 0 0)
(-0.38616897 0 0)
(-0.38747816 0 0)
(-0.38874399 0 0)
(-0.39002922 0 0)
(-0.39144182 0 0)
(-0.021037204 0 0)
(-0.061214044 0 0)
(-0.098526261 0 0)
(-0.13270935 0 0)
(-0.16389407 0 0)
(-0.19226278 0 0)
(-0.21810763 0 0)
(-0.24152752 0 0)
(-0.26248639 0 0)
(-0.28122941 0 0)
(-0.29786511 0 0)
(-0.31243197 0 0)
(-0.32511862 0 0)
(-0.33607856 0 0)
(-0.345436 0 0)
(-0.3533299 0 0)
(-0.35992187 0 0)
(-0.36537847 0 0)
(-0.36986582 0 0)
(-0.3735494 0 0)
(-0.37660118 0 0)
(-0.37915407 0 0)
(-0.38130232 0 0)
(-0.38316493 0 0)
(-0.38480955 0 0)
(-0.38628746 0 0)
(-0.3876119 0 0)
(-0.38880698 0 0)
(-0.38989772 0 0)
(-0.39093713 0 0)
(-0.39200487 0 0)
(-0.39319872 0 0)
(-0.020949138 0 0)
(-0.060937384 0 0)
(-0.098332041 0 0)
(-0.13286829 0 0)
(-0.16413518 0 0)
(-0.19259815 0 0)
(-0.21855042 0 0)
(-0.24210333 0 0)
(-0.26320588 0 0)
(-0.28210781 0 0)
(-0.29891555 0 0)
(-0.31365647 0 0)
(-0.32652023 0 0)
(-0.33764539 0 0)
(-0.34714865 0 0)
(-0.3551684 0 0)
(-0.36186391 0 0)
(-0.36739077 0 0)
(-0.37190973 0 0)
(-0.37558304 0 0)
(-0.37858243 0 0)
(-0.38105456 0 0)
(-0.3831065 0 0)
(-0.38485788 0 0)
(-0.38639413 0 0)
(-0.38777255 0 0)
(-0.38901634 0 0)
(-0.39013122 0 0)
(-0.39113919 0 0)
(-0.39202659 0 0)
(-0.39287434 0 0)
(-0.39374668 0 0)
(-0.39473849 0 0)
(-0.020869493 0 0)
(-0.060681567 0 0)
(-0.097901832 0 0)
(-0.13261854 0 0)
(-0.1643303 0 0)
(-0.19287466 0 0)
(-0.21892511 0 0)
(-0.24259445 0 0)
(-0.26383007 0 0)
(-0.28288076 0 0)
(-0.29985511 0 0)
(-0.31476047 0 0)
(-0.32779186 0 0)
(-0.33908271 0 0)
(-0.34873596 0 0)
(-0.35688064 0 0)
(-0.36367846 0 0)
(-0.36928563 0 0)
(-0.3738583 0 0)
(-0.37754169 0 0)
(-0.38049742 0 0)
(-0.3828937 0 0)
(-0.38486609 0 0)
(-0.38651386 0 0)
(-0.38792565 0 0)
(-0.38919525 0 0)
(-0.39035056 0 0)
(-0.39141095 0 0)
(-0.39235838 0 0)
(-0.39318926 0 0)
(-0.39390471 0 0)
(-0.39456791 0 0)
(-0.39526089 0 0)
(-0.39606785 0 0)
(-0.02079843 0 0)
(-0.060449879 0 0)
(-0.097506498 0 0)
(-0.13204382 0 0)
(-0.16403267 0 0)
(-0.19309807 0 0)
(-0.21923543 0 0)
(-0.24301009 0 0)
(-0.26436877 0 0)
(-0.28355741 0 0)
(-0.30068656 0 0)
(-0.31574642 0 0)
(-0.32894374 0 0)
(-0.34039594 0 0)
(-0.35019501 0 0)
(-0.35846699 0 0)
(-0.36537636 0 0)
(-0.37106818 0 0)
(-0.37569616 0 0)
(-0.37940371 0 0)
(-0.38234357 0 0)
(-0.38467158 0 0)
(-0.38655232 0 0)
(-0.38810191 0 0)
(-0.389397 0 0)
(-0.39054578 0 0)
(-0.39160339 0 0)
(-0.39258828 0 0)
(-0.39349298 0 0)
(-0.39429565 0 0)
(-0.39498746 0 0)
(-0.39554005 0 0)
(-0.39604581 0 0)
(-0.39657576 0 0)
(-0.39721079 0 0)
(-0.020737223 0 0)
(-0.060244578 0 0)
(-0.097148029 0 0)
(-0.13151505 0 0)
(-0.16333807 0 0)
(-0.1927637 0 0)
(-0.2194812 0 0)
(-0.24335183 0 0)
(-0.26482374 0 0)
(-0.28414044 0 0)
(-0.3014159 0 0)
(-0.31662049 0 0)
(-0.32997226 0 0)
(-0.34158285 0 0)
(-0.35152958 0 0)
(-0.35992753 0 0)
(-0.36694616 0 0)
(-0.37272811 0 0)
(-0.37742707 0 0)
(-0.38117325 0 0)
(-0.38410767 0 0)
(-0.38638913 0 0)
(-0.38818018 0 0)
(-0.38962219 0 0)
(-0.39081797 0 0)
(-0.39184377 0 0)
(-0.39277484 0 0)
(-0.39367036 0 0)
(-0.3945168 0 0)
(-0.39530527 0 0)
(-0.39599308 0 0)
(-0.39655073 0 0)
(-0.39696512 0 0)
(-0.3973185 0 0)
(-0.39769814 0 0)
(-0.3981749 0 0)
(-0.020686034 0 0)
(-0.060067578 0 0)
(-0.096832743 0 0)
(-0.13103543 0 0)
(-0.16269353 0 0)
(-0.19196939 0 0)
(-0.21911982 0 0)
(-0.24362117 0 0)
(-0.265199 0 0)
(-0.28463464 0 0)
(-0.30204894 0 0)
(-0.31738575 0 0)
(-0.33088725 0 0)
(-0.3426506 0 0)
(-0.3527393 0 0)
(-0.36126218 0 0)
(-0.36839707 0 0)
(-0.37427256 0 0)
(-0.37904304 0 0)
(-0.38283398 0 0)
(-0.38578515 0 0)
(-0.38803989 0 0)
(-0.38975152 0 0)
(-0.39108265 0 0)
(-0.39216318 0 0)
(-0.39307081 0 0)
(-0.3938716 0 0)
(-0.39465099 0 0)
(-0.39542489 0 0)
(-0.39617375 0 0)
(-0.39686418 0 0)
(-0.39745285 0 0)
(-0.39790454 0 0)
(-0.39818571 0 0)
(-0.39840809 0 0)
(-0.39864926 0 0)
(-0.39897774 0 0)
(-0.020645674 0 0)
(-0.059920669 0 0)
(-0.096561 0 0)
(-0.13061292 0 0)
(-0.16211212 0 0)
(-0.19123108 0 0)
(-0.21823954 0 0)
(-0.24323698 0 0)
(-0.26549991 0 0)
(-0.2850475 0 0)
(-0.30258639 0 0)
(-0.31804805 0 0)
(-0.33168751 0 0)
(-0.34359752 0 0)
(-0.35382801 0 0)
(-0.36247381 0 0)
(-0.36972209 0 0)
(-0.37569347 0 0)
(-0.38054698 0 0)
(-0.38439571 0 0)
(-0.3873663 0 0)
(-0.38960834 0 0)
(-0.39126599 0 0)
(-0.3924893 0 0)
(-0.39344032 0 0)
(-0.39422426 0 0)
(-0.39490842 0 0)
(-0.39555567 0 0)
(-0.3962171 0 0)
(-0.39691 0 0)
(-0.39758344 0 0)
(-0.39820483 0 0)
(-0.3987143 0 0)
(-0.39906058 0 0)
(-0.39922822 0 0)
(-0.39932309 0 0)
(-0.3994368 0 0)
(-0.39962798 0 0)
(-0.020616186 0 0)
(-0.059804714 0 0)
(-0.096337219 0 0)
(-0.13024875 0 0)
(-0.16159538 0 0)
(-0.19056406 0 0)
(-0.217425 0 0)
(-0.24228993 0 0)
(-0.2651096 0 0)
(-0.28537607 0 0)
(-0.30303842 0 0)
(-0.31861213 0 0)
(-0.33238107 0 0)
(-0.34443119 0 0)
(-0.35479662 0 0)
(-0.36356236 0 0)
(-0.37092896 0 0)
(-0.37699836 0 0)
(-0.38193537 0 0)
(-0.38584507 0 0)
(-0.38885217 0 0)
(-0.39109683 0 0)
(-0.39271266 0 0)
(-0.39385367 0 0)
(-0.39468491 0 0)
(-0.39532611 0 0)
(-0.39586857 0 0)
(-0.39638083 0 0)
(-0.39690989 0 0)
(-0.39750717 0 0)
(-0.39814816 0 0)
(-0.39877643 0 0)
(-0.39933885 0 0)
(-0.39977802 0 0)
(-0.40004083 0 0)
(-0.40009753 0 0)
(-0.40008127 0 0)
(-0.40007611 0 0)
(-0.40013786 0 0)
(-0.020597956 0 0)
(-0.059721145 0 0)
(-0.096161534 0 0)
(-0.12994836 0 0)
(-0.16115176 0 0)
(-0.18996982 0 0)
(-0.21668337 0 0)
(-0.2414118 0 0)
(-0.26412713 0 0)
(-0.28499795 0 0)
(-0.30339685 0 0)
(-0.31907969 0 0)
(-0.33297003 0 0)
(-0.34515127 0 0)
(-0.35564956 0 0)
(-0.36453252 0 0)
(-0.37201402 0 0)
(-0.3781817 0 0)
(-0.38320995 0 0)
(-0.38719242 0 0)
(-0.39023831 0 0)
(-0.39249315 0 0)
(-0.39409091 0 0)
(-0.39516667 0 0)
(-0.39587759 0 0)
(-0.39637099 0 0)
(-0.39676243 0 0)
(-0.39712804 0 0)
(-0.39752858 0 0)
(-0.397998 0 0)
(-0.39855491 0 0)
(-0.39917484 0 0)
(-0.39977158 0 0)
(-0.40029504 0 0)
(-0.40067644 0 0)
(-0.40085295 0 0)
(-0.40081495 0 0)
(-0.40069084 0 0)
(-0.40057539 0 0)
(-0.40051633 0 0)
(-0.059669698 0 0)
(-0.020588229 0 0)
(-0.096036714 0 0)
(-0.12971262 0 0)
(-0.16078253 0 0)
(-0.18945904 0 0)
(-0.21602524 0 0)
(-0.24061121 0 0)
(-0.26321175 0 0)
(-0.28399721 0 0)
(-0.30303496 0 0)
(-0.31945749 0 0)
(-0.3334573 0 0)
(-0.34576249 0 0)
(-0.35638785 0 0)
(-0.36538491 0 0)
(-0.37298393 0 0)
(-0.37925059 0 0)
(-0.38437048 0 0)
(-0.38842739 0 0)
(-0.39152446 0 0)
(-0.39380363 0 0)
(-0.39538778 0 0)
(-0.39641174 0 0)
(-0.39703029 0 0)
(-0.39739592 0 0)
(-0.39763156 0 0)
(-0.39782419 0 0)
(-0.39806097 0 0)
(-0.39839214 0 0)
(-0.3988307 0 0)
(-0.39939019 0 0)
(-0.40000775 0 0)
(-0.40059354 0 0)
(-0.40108116 0 0)
(-0.40140882 0 0)
(-0.40151658 0 0)
(-0.40138474 0 0)
(-0.40116512 0 0)
(-0.40094544 0 0)
(-0.40077195 0 0)
(-0.095962489 0 0)
(-0.059642921 0 0)
(-0.020586885 0 0)
(-0.12954443 0 0)
(-0.1604933 0 0)
(-0.18903245 0 0)
(-0.21545497 0 0)
(-0.23989907 0 0)
(-0.26238047 0 0)
(-0.28307093 0 0)
(-0.30203229 0 0)
(-0.31909902 0 0)
(-0.33384948 0 0)
(-0.34626922 0 0)
(-0.35701466 0 0)
(-0.36612445 0 0)
(-0.37383699 0 0)
(-0.38020159 0 0)
(-0.38541776 0 0)
(-0.38955885 0 0)
(-0.39271003 0 0)
(-0.39501822 0 0)
(-0.39660782 0 0)
(-0.39759886 0 0)
(-0.39813676 0 0)
(-0.3983777 0 0)
(-0.39845719 0 0)
(-0.3984759 0 0)
(-0.39853191 0 0)
(-0.39869663 0 0)
(-0.39900822 0 0)
(-0.39946117 0 0)
(-0.40003794 0 0)
(-0.40067496 0 0)
(-0.40125654 0 0)
(-0.40172113 0 0)
(-0.40200248 0 0)
(-0.40203664 0 0)
(-0.40182404 0 0)
(-0.40151166 0 0)
(-0.40119508 0 0)
(-0.40091418 0 0)
(-0.12944424 0 0)
(-0.095925733 0 0)
(-0.059639488 0 0)
(-0.020596901 0 0)
(-0.16028455 0 0)
(-0.18869664 0 0)
(-0.21497965 0 0)
(-0.23928115 0 0)
(-0.26163721 0 0)
(-0.28222289 0 0)
(-0.30110326 0 0)
(-0.31809958 0 0)
(-0.33350541 0 0)
(-0.34667031 0 0)
(-0.35753403 0 0)
(-0.36675363 0 0)
(-0.3745789 0 0)
(-0.38104129 0 0)
(-0.38635363 0 0)
(-0.3905798 0 0)
(-0.39379382 0 0)
(-0.39614388 0 0)
(-0.39774326 0 0)
(-0.39870898 0 0)
(-0.39918499 0 0)
(-0.39932146 0 0)
(-0.39925326 0 0)
(-0.39910664 0 0)
(-0.39898084 0 0)
(-0.39894823 0 0)
(-0.39908528 0 0)
(-0.39941029 0 0)
(-0.39989752 0 0)
(-0.4005229 0 0)
(-0.40119007 0 0)
(-0.40177981 0 0)
(-0.40221983 0 0)
(-0.40245539 0 0)
(-0.40243036 0 0)
(-0.40213734 0 0)
(-0.40174048 0 0)
(-0.40133136 0 0)
(-0.40094839 0 0)
(-0.16015843 0 0)
(-0.12939427 0 0)
(-0.095926341 0 0)
(-0.059669366 0 0)
(-0.020617818 0 0)
(-0.18845239 0 0)
(-0.2146024 0 0)
(-0.23876434 0 0)
(-0.26099369 0 0)
(-0.28146848 0 0)
(-0.30024834 0 0)
(-0.31716344 0 0)
(-0.33251907 0 0)
(-0.34635407 0 0)
(-0.35794319 0 0)
(-0.36727318 0 0)
(-0.37521005 0 0)
(-0.38176897 0 0)
(-0.38717892 0 0)
(-0.39149664 0 0)
(-0.39477673 0 0)
(-0.39717161 0 0)
(-0.39879678 0 0)
(-0.39975485 0 0)
(-0.40017961 0 0)
(-0.40022176 0 0)
(-0.40002085 0 0)
(-0.39970726 0 0)
(-0.399392 0 0)
(-0.39915815 0 0)
(-0.39909443 0 0)
(-0.3992503 0 0)
(-0.39962867 0 0)
(-0.40018295 0 0)
(-0.40086386 0 0)
(-0.40157463 0 0)
(-0.40217424 0 0)
(-0.40259712 0 0)
(-0.40279095 0 0)
(-0.40270151 0 0)
(-0.40233772 0 0)
(-0.40185948 0 0)
(-0.40136342 0 0)
(-0.40088399 0 0)
(-0.18830252 0 0)
(-0.16009344 0 0)
(-0.12939491 0 0)
(-0.095977007 0 0)
(-0.059730064 0 0)
(-0.02064965 0 0)
(-0.21432696 0 0)
(-0.23835322 0 0)
(-0.26045318 0 0)
(-0.28081001 0 0)
(-0.2994864 0 0)
(-0.3163069 0 0)
(-0.33159193 0 0)
(-0.34540037 0 0)
(-0.35765723 0 0)
(-0.36768926 0 0)
(-0.37572992 0 0)
(-0.38238711 0 0)
(-0.38789626 0 0)
(-0.39230551 0 0)
(-0.3956568 0 0)
(-0.39810783 0 0)
(-0.39976378 0 0)
(-0.40072061 0 0)
(-0.40110927 0 0)
(-0.40107887 0 0)
(-0.40076171 0 0)
(-0.40028519 0 0)
(-0.39978 0 0)
(-0.39935356 0 0)
(-0.39908089 0 0)
(-0.39902485 0 0)
(-0.39923489 0 0)
(-0.39968858 0 0)
(-0.40032307 0 0)
(-0.40108078 0 0)
(-0.40183936 0 0)
(-0.4024546 0 0)
(-0.40285611 0 0)
(-0.40300694 0 0)
(-0.4028644 0 0)
(-0.40242962 0 0)
(-0.40187519 0 0)
(-0.40129539 0 0)
(-0.40072435 0 0)
(-0.21415512 0 0)
(-0.18822235 0 0)
(-0.16008861 0 0)
(-0.12946267 0 0)
(-0.096077713 0 0)
(-0.059822772 0 0)
(-0.020691546 0 0)
(-0.23805042 0 0)
(-0.26002259 0 0)
(-0.28025817 0 0)
(-0.29881786 0 0)
(-0.31553571 0 0)
(-0.33074051 0 0)
(-0.3445031 0 0)
(-0.35675146 0 0)
(-0.36743291 0 0)
(-0.3761451 0 0)
(-0.38290096 0 0)
(-0.38850784 0 0)
(-0.39301041 0 0)
(-0.39643624 0 0)
(-0.39894553 0 0)
(-0.40064477 0 0)
(-0.40161676 0 0)
(-0.40198079 0 0)
(-0.4018856 0 0)
(-0.40146637 0 0)
(-0.40084766 0 0)
(-0.400153 0 0)
(-0.39951524 0 0)
(-0.39903049 0 0)
(-0.39875535 0 0)
(-0.39876005 0 0)
(-0.39905799 0 0)
(-0.3996159 0 0)
(-0.40035173 0 0)
(-0.40118694 0 0)
(-0.40199981 0 0)
(-0.40262925 0 0)
(-0.40301281 0 0)
(-0.40312258 0 0)
(-0.40292244 0 0)
(-0.40242278 0 0)
(-0.40179541 0 0)
(-0.40113684 0 0)
(-0.40047915 0 0)
(-0.2378597 0 0)
(-0.21405873 0 0)
(-0.18821069 0 0)
(-0.16016701 0 0)
(-0.12959775 0 0)
(-0.096224774 0 0)
(-0.059943585 0 0)
(-0.020743309 0 0)
(-0.25970468 0 0)
(-0.27981468 0 0)
(-0.29825383 0 0)
(-0.31486194 0 0)
(-0.32997117 0 0)
(-0.34367086 0 0)
(-0.35589577 0 0)
(-0.36658547 0 0)
(-0.37591867 0 0)
(-0.38330499 0 0)
(-0.38901169 0 0)
(-0.39361138 0 0)
(-0.39711433 0 0)
(-0.39968988 0 0)
(-0.40143761 0 0)
(-0.40243079 0 0)
(-0.40278282 0 0)
(-0.40264257 0 0)
(-0.40213869 0 0)
(-0.40138777 0 0)
(-0.40051958 0 0)
(-0.39967056 0 0)
(-0.39895871 0 0)
(-0.39846827 0 0)
(-0.39825057 0 0)
(-0.39834273 0 0)
(-0.39875521 0 0)
(-0.39942977 0 0)
(-0.40027285 0 0)
(-0.40119751 0 0)
(-0.40206456 0 0)
(-0.40270883 0 0)
(-0.40306924 0 0)
(-0.40313708 0 0)
(-0.40288652 0 0)
(-0.40232259 0 0)
(-0.40162442 0 0)
(-0.40088987 0 0)
(-0.40015015 0 0)
(-0.25950121 0 0)
(-0.23775022 0 0)
(-0.21403962 0 0)
(-0.18829424 0 0)
(-0.16032432 0 0)
(-0.12979645 0 0)
(-0.096418567 0 0)
(-0.060093678 0 0)
(-0.020803775 0 0)
(-0.27948502 0 0)
(-0.29779759 0 0)
(-0.31428989 0 0)
(-0.32929606 0 0)
(-0.34291787 0 0)
(-0.35509717 0 0)
(-0.36577832 0 0)
(-0.3751337 0 0)
(-0.38312099 0 0)
(-0.38941482 0 0)
(-0.39410512 0 0)
(-0.39769026 0 0)
(-0.40033652 0 0)
(-0.40214146 0 0)
(-0.40316965 0 0)
(-0.40352173 0 0)
(-0.40334523 0 0)
(-0.40276916 0 0)
(-0.40190959 0 0)
(-0.40088458 0 0)
(-0.39982914 0 0)
(-0.39888103 0 0)
(-0.39815079 0 0)
(-0.39770216 0 0)
(-0.39756946 0 0)
(-0.39779134 0 0)
(-0.39833987 0 0)
(-0.39915042 0 0)
(-0.40011182 0 0)
(-0.40112194 0 0)
(-0.40204397 0 0)
(-0.40269997 0 0)
(-0.40303793 0 0)
(-0.4030643 0 0)
(-0.40275996 0 0)
(-0.402135 0 0)
(-0.4013707 0 0)
(-0.40056374 0 0)
(-0.39974635 0 0)
(-0.27927122 0 0)
(-0.25938332 0 0)
(-0.23772472 0 0)
(-0.2141218 0 0)
(-0.18846745 0 0)
(-0.16056186 0 0)
(-0.13005769 0 0)
(-0.096653567 0 0)
(-0.060268172 0 0)
(-0.020872654 0 0)
(-0.29745292 0 0)
(-0.31382782 0 0)
(-0.32872101 0 0)
(-0.34225201 0 0)
(-0.35437168 0 0)
(-0.36502547 0 0)
(-0.37437957 0 0)
(-0.38240368 0 0)
(-0.38926339 0 0)
(-0.39449948 0 0)
(-0.39816724 0 0)
(-0.40088607 0 0)
(-0.40275567 0 0)
(-0.40382462 0 0)
(-0.40418738 0 0)
(-0.40399211 0 0)
(-0.40336267 0 0)
(-0.40240345 0 0)
(-0.40123626 0 0)
(-0.39999516 0 0)
(-0.39881322 0 0)
(-0.39782662 0 0)
(-0.39712937 0 0)
(-0.39677073 0 0)
(-0.39677247 0 0)
(-0.39713898 0 0)
(-0.39784069 0 0)
(-0.39879052 0 0)
(-0.39987105 0 0)
(-0.40097123 0 0)
(-0.40194527 0 0)
(-0.40260991 0 0)
(-0.40292104 0 0)
(-0.40290459 0 0)
(-0.40255062 0 0)
(-0.4018662 0 0)
(-0.4010361 0 0)
(-0.40015895 0 0)
(-0.39926798 0 0)
(-0.29722527 0 0)
(-0.27914021 0 0)
(-0.25934821 0 0)
(-0.23780904 0 0)
(-0.21430704 0 0)
(-0.18873239 0 0)
(-0.16087156 0 0)
(-0.13037608 0 0)
(-0.096929208 0 0)
(-0.060466852 0 0)
(-0.020947829 0 0)
(-0.313478 0 0)
(-0.32825225 0 0)
(-0.34168341 0 0)
(-0.35372668 0 0)
(-0.36433655 0 0)
(-0.37367499 0 0)
(-0.38171833 0 0)
(-0.38862417 0 0)
(-0.39438553 0 0)
(-0.39854106 0 0)
(-0.40134126 0 0)
(-0.40327923 0 0)
(-0.40439866 0 0)
(-0.4047838 0 0)
(-0.40457975 0 0)
(-0.40390853 0 0)
(-0.40287297 0 0)
(-0.40158242 0 0)
(-0.40016682 0 0)
(-0.39876716 0 0)
(-0.39752285 0 0)
(-0.39655264 0 0)
(-0.39593556 0 0)
(-0.39570321 0 0)
(-0.39585824 0 0)
(-0.39640164 0 0)
(-0.39726666 0 0)
(-0.39836605 0 0)
(-0.39956855 0 0)
(-0.40075167 0 0)
(-0.40177433 0 0)
(-0.40244414 0 0)
(-0.40272708 0 0)
(-0.40266735 0 0)
(-0.40226254 0 0)
(-0.40151938 0 0)
(-0.40062878 0 0)
(-0.39968483 0 0)
(-0.39872447 0 0)
(-0.31324403 0 0)
(-0.2970777 0 0)
(-0.27909514 0 0)
(-0.25943083 0 0)
(-0.23800496 0 0)
(-0.21458668 0 0)
(-0.18907883 0 0)
(-0.16125475 0 0)
(-0.13074828 0 0)
(-0.097238263 0 0)
(-0.060684737 0 0)
(-0.021004524 0 0)
(-0.3278954 0 0)
(-0.34121731 0 0)
(-0.35317289 0 0)
(-0.36372323 0 0)
(-0.37302487 0 0)
(-0.3810659 0 0)
(-0.38800127 0 0)
(-0.39382926 0 0)
(-0.39847645 0 0)
(-0.40169469 0 0)
(-0.40370806 0 0)
(-0.40488745 0 0)
(-0.40530326 0 0)
(-0.40510459 0 0)
(-0.40441033 0 0)
(-0.40330964 0 0)
(-0.40191017 0 0)
(-0.40034424 0 0)
(-0.39874489 0 0)
(-0.39724979 0 0)
(-0.39599826 0 0)
(-0.39509816 0 0)
(-0.39460258 0 0)
(-0.39453432 0 0)
(-0.39487856 0 0)
(-0.39560273 0 0)
(-0.39663998 0 0)
(-0.39788537 0 0)
(-0.39920609 0 0)
(-0.40047065 0 0)
(-0.40153748 0 0)
(-0.40220697 0 0)
(-0.40245838 0 0)
(-0.40235515 0 0)
(-0.40190079 0 0)
(-0.40110173 0 0)
(-0.40014892 0 0)
(-0.39913988 0 0)
(-0.39808792 0 0)
(-0.32765124 0 0)
(-0.31309371 0 0)
(-0.29701811 0 0)
(-0.27916444 0 0)
(-0.25962407 0 0)
(-0.2383064 0 0)
(-0.2149631 0 0)
(-0.1895093 0 0)
(-0.16170063 0 0)
(-0.13117025 0 0)
(-0.09757903 0 0)
(-0.060771825 0 0)
(-0.020967713 0 0)
(-0.34085904 0 0)
(-0.35271625 0 0)
(-0.36319352 0 0)
(-0.37244539 0 0)
(-0.38046705 0 0)
(-0.3874096 0 0)
(-0.39327691 0 0)
(-0.3980126 0 0)
(-0.40167803 0 0)
(-0.40404588 0 0)
(-0.40528678 0 0)
(-0.40574578 0 0)
(-0.40556408 0 0)
(-0.40485765 0 0)
(-0.40371315 0 0)
(-0.40222599 0 0)
(-0.40052109 0 0)
(-0.39873899 0 0)
(-0.39701506 0 0)
(-0.39548362 0 0)
(-0.3942823 0 0)
(-0.39349743 0 0)
(-0.39316508 0 0)
(-0.39328703 0 0)
(-0.39382955 0 0)
(-0.39475523 0 0)
(-0.39596528 0 0)
(-0.3973598 0 0)
(-0.3987952 0 0)
(-0.40013234 0 0)
(-0.40123696 0 0)
(-0.40190318 0 0)
(-0.40212084 0 0)
(-0.40197321 0 0)
(-0.40146911 0 0)
(-0.40061301 0 0)
(-0.39960526 0 0)
(-0.39850715 0 0)
(-0.39735213 0 0)
(-0.34061155 0 0)
(-0.32749089 0 0)
(-0.31302576 0 0)
(-0.29707096 0 0)
(-0.27935152 0 0)
(-0.25993019 0 0)
(-0.23871118 0 0)
(-0.21542395 0 0)
(-0.19000976 0 0)
(-0.16220733 0 0)
(-0.13163332 0 0)
(-0.09768659 0 0)
(-0.060649088 0 0)
(-0.020926161 0 0)
(-0.3523616 0 0)
(-0.36275516 0 0)
(-0.37194069 0 0)
(-0.37992467 0 0)
(-0.38685702 0 0)
(-0.39274874 0 0)
(-0.39754853 0 0)
(-0.40131507 0 0)
(-0.40407013 0 0)
(-0.40560074 0 0)
(-0.4061097 0 0)
(-0.40595517 0 0)
(-0.40525198 0 0)
(-0.40407631 0 0)
(-0.40251599 0 0)
(-0.40069628 0 0)
(-0.39875202 0 0)
(-0.39681418 0 0)
(-0.39502568 0 0)
(-0.39352936 0 0)
(-0.39242809 0 0)
(-0.39179306 0 0)
(-0.39165051 0 0)
(-0.39198897 0 0)
(-0.39275217 0 0)
(-0.39387448 0 0)
(-0.39525886 0 0)
(-0.39679334 0 0)
(-0.39833697 0 0)
(-0.39974106 0 0)
(-0.40087867 0 0)
(-0.40153537 0 0)
(-0.40171824 0 0)
(-0.40152473 0 0)
(-0.40096973 0 0)
(-0.40006201 0 0)
(-0.3989677 0 0)
(-0.39776981 0 0)
(-0.39652996 0 0)
(-0.3521136 0 0)
(-0.34044259 0 0)
(-0.32741075 0 0)
(-0.31307619 0 0)
(-0.29724489 0 0)
(-0.27964592 0 0)
(-0.26033787 0 0)
(-0.23921145 0 0)
(-0.21596919 0 0)
(-0.19057969 0 0)
(-0.16276376 0 0)
(-0.13177935 0 0)
(-0.097480617 0 0)
(-0.060508964 0 0)
(-0.020878007 0 0)
(-0.36241302 0 0)
(-0.37152102 0 0)
(-0.379455 0 0)
(-0.38635782 0 0)
(-0.39224766 0 0)
(-0.39708979 0 0)
(-0.40094283 0 0)
(-0.40381421 0 0)
(-0.40566808 0 0)
(-0.40638849 0 0)
(-0.40627281 0 0)
(-0.40558552 0 0)
(-0.40439571 0 0)
(-0.40278326 0 0)
(-0.40086318 0 0)
(-0.3987737 0 0)
(-0.39664849 0 0)
(-0.39462028 0 0)
(-0.39283041 0 0)
(-0.39140638 0 0)
(-0.39044845 0 0)
(-0.39000636 0 0)
(-0.39008719 0 0)
(-0.39065599 0 0)
(-0.39164082 0 0)
(-0.3929705 0 0)
(-0.39452257 0 0)
(-0.39619399 0 0)
(-0.39783788 0 0)
(-0.39929998 0 0)
(-0.40046249 0 0)
(-0.40110802 0 0)
(-0.40125106 0 0)
(-0.40101052 0 0)
(-0.40040813 0 0)
(-0.39941893 0 0)
(-0.39823268 0 0)
(-0.39695218 0 0)
(-0.39562956 0 0)
(-0.36217011 0 0)
(-0.35193967 0 0)
(-0.34035425 0 0)
(-0.32744894 0 0)
(-0.31323948 0 0)
(-0.29752763 0 0)
(-0.28005152 0 0)
(-0.26084748 0 0)
(-0.23979946 0 0)
(-0.21658681 0 0)
(-0.19120541 0 0)
(-0.16292695 0 0)
(-0.13151713 0 0)
(-0.097243852 0 0)
(-0.060349676 0 0)
(-0.020823276 0 0)
(-0.37118986 0 0)
(-0.37905877 0 0)
(-0.38591772 0 0)
(-0.39179276 0 0)
(-0.39665334 0 0)
(-0.40056065 0 0)
(-0.40353001 0 0)
(-0.40551917 0 0)
(-0.40650603 0 0)
(-0.40651714 0 0)
(-0.40585354 0 0)
(-0.404664 0 0)
(-0.40301494 0 0)
(-0.40101742 0 0)
(-0.39880564 0 0)
(-0.39650652 0 0)
(-0.39425643 0 0)
(-0.39219917 0 0)
(-0.39047005 0 0)
(-0.38917993 0 0)
(-0.3883998 0 0)
(-0.38817538 0 0)
(-0.3884949 0 0)
(-0.38930948 0 0)
(-0.3905262 0 0)
(-0.39205179 0 0)
(-0.39376708 0 0)
(-0.39556379 0 0)
(-0.39729955 0 0)
(-0.39881147 0 0)
(-0.39999426 0 0)
(-0.40061972 0 0)
(-0.40072535 0 0)
(-0.40043772 0 0)
(-0.39976225 0 0)
(-0.39868163 0 0)
(-0.39740987 0 0)
(-0.39604657 0 0)
(-0.39464304 0 0)
(-0.37095088 0 0)
(-0.36199863 0 0)
(-0.35184394 0 0)
(-0.34037615 0 0)
(-0.32759677 0 0)
(-0.31351684 0 0)
(-0.29792428 0 0)
(-0.28055301 0 0)
(-0.26144544 0 0)
(-0.24046769 0 0)
(-0.21726985 0 0)
(-0.19137635 0 0)
(-0.16260636 0 0)
(-0.13121328 0 0)
(-0.096977531 0 0)
(-0.060171112 0 0)
(-0.02076046 0 0)
(-0.3787456 0 0)
(-0.38554736 0 0)
(-0.39138613 0 0)
(-0.39624668 0 0)
(-0.40019173 0 0)
(-0.40323092 0 0)
(-0.40532746 0 0)
(-0.40646413 0 0)
(-0.40667657 0 0)
(-0.40605605 0 0)
(-0.40487735 0 0)
(-0.4032085 0 0)
(-0.40115136 0 0)
(-0.39883511 0 0)
(-0.3963893 0 0)
(-0.39394201 0 0)
(-0.3916331 0 0)
(-0.38960481 0 0)
(-0.38798192 0 0)
(-0.38685458 0 0)
(-0.386293 0 0)
(-0.38631715 0 0)
(-0.38689623 0 0)
(-0.38795938 0 0)
(-0.38940198 0 0)
(-0.39112505 0 0)
(-0.39299226 0 0)
(-0.39490716 0 0)
(-0.39672491 0 0)
(-0.39827871 0 0)
(-0.39946918 0 0)
(-0.40007617 0 0)
(-0.40013806 0 0)
(-0.39979176 0 0)
(-0.39902664 0 0)
(-0.39785567 0 0)
(-0.39650635 0 0)
(-0.39506199 0 0)
(-0.39357939 0 0)
(-0.37851583 0 0)
(-0.37077841 0 0)
(-0.36189672 0 0)
(-0.35185318 0 0)
(-0.34050964 0 0)
(-0.32785785 0 0)
(-0.31389805 0 0)
(-0.29841841 0 0)
(-0.2811509 0 0)
(-0.26212604 0 0)
(-0.24120115 0 0)
(-0.21744638 0 0)
(-0.19099991 0 0)
(-0.16223397 0 0)
(-0.13086544 0 0)
(-0.096679685 0 0)
(-0.059971215 0 0)
(-0.020689426 0 0)
(-0.38524864 0 0)
(-0.39104064 0 0)
(-0.3958837 0 0)