/*--------------------------------*- C++ -*----------------------------------*\
| =========                 |                                                 |
| \\      /  F ield         | OpenFOAM: The Open Source CFD Toolbox           |
|  \\    /   O peration     | Version:  v2012                                 |
|   \\  /    A nd           | Website:  www.openfoam.com                      |
|    \\/     M anipulation  |                                                 |
\*---------------------------------------------------------------------------*/
FoamFile
{
    version     2.0;
    format      ascii;
    class       surfaceScalarField;
    location    "83.4506707643468246";
    object      meshPhi;
}
// * * * * * * * * * * * * * * * * * * * * * * * * * * * * * * * * * * * * * //

dimensions      [0 3 -1 0 0 0 0];
oriented        oriented;


internalField   nonuniform List<scalar> 
18180
(
0
-0.063993628
0
-0.058538711
8.7703952e-14
-0.12504958
0
-0.053439133
0
-0.11528008
8.4478481e-14
-0.18486785
0
-0.049496035
8.7733218e-14
-0.10614417
0
-0.17131615
8.1365525e-14
-0.24252874
0
-0.046498803
4.3877858e-14
-0.098388701
0
-0.15860495
0
-0.22592622
0
-0.2973637
0
-0.044106559
4.3891078e-14
-0.092279446
0
-0.14777723
0
-0.21054192
0
-0.27790199
0
-0.34860328
-4.5571136e-14
-0.042084432
0
-0.087353149
4.2271719e-14
-0.13869091
4.0674773e-14
-0.19676422
5.0358069e-17
-0.2599689
0
-0.32659038
0
-0.39646167
4.5587676e-14
-0.040225851
0
-0.083027841
0
-0.13089573
4.0736834e-14
-0.18462902
3.9171997e-14
-0.24341066
-7.5438457e-14
-0.30621793
0
-0.37193053
6.999531e-14
-0.44090627
0
-0.03846092
0
-0.079057645
0
-0.12403609
0
-0.17404589
-3.9179108e-14
-0.22841793
0
-0.28725385
0
-0.34962984
0
-0.41408166
6.7409752e-14
-0.48178095
4.5679174e-14
-0.036753642
0
-0.07528664
0
-0.11773639
-4.0703989e-14
-0.16468626
0
-0.21516657
-7.5460622e-14
-0.26973857
-7.2683123e-14
-0.32863205
4.1189866e-17
-0.38989901
0
-0.4528043
3.3341325e-17
-0.51931581
0
-0.035093132
0
-0.07165886
0
-0.11177137
0
-0.1561156
0
-0.20332388
-3.7760866e-14
-0.253702
2.273716e-17
-0.30884346
2.1316519e-17
-0.36738592
-6.7384207e-14
-0.42704884
0
-0.48835106
6.2524726e-14
-0.55383223
0
-0.033474531
0
-0.068145784
-4.2306309e-14
-0.10603488
0
-0.14803866
3.9231417e-14
-0.1925196
3.7768398e-14
-0.2393169
-3.6363581e-14
-0.29056375
2.1638343e-17
-0.34598448
-6.741092e-14
-0.40312021
6.4931416e-14
-0.46101352
0
-0.52099423
0
-0.58561811
-2.2846024e-14
-0.031891658
0
-0.064740112
0
-0.10048113
-4.0736486e-14
-0.14029078
-3.9241115e-14
-0.18243069
-2.3829618e-17
-0.22622569
0
-0.27361874
3.5018523e-14
-0.32552336
-6.7398758e-14
-0.38019764
-3.2469254e-14
-0.43575121
0
-0.49220051
0
-0.55098399
5.7999571e-14
-0.61466275
2.2852256e-14
-0.030341412
2.1985911e-14
-0.0614371
0
-0.095100993
0
-0.1328098
0
-0.17280447
0
-0.21398158
0
-0.25797351
3.5023493e-14
-0.30626048
-3.372328e-14
-0.3579571
0
-0.41134541
1.6344543e-17
-0.46562503
0
-0.52077461
0
-0.57842706
0
-0.64124594
1.6426372e-17
-0.02882455
2.2006134e-14
-0.058242888
0
-0.089900679
0
-0.12558498
0
-0.16355569
0
-0.20239361
0
-0.24348545
3.500744e-14
-0.28831156
3.372719e-14
-0.33658075
-1.8222434e-17
-0.38735541
-3.1255939e-14
-0.43983677
0
-0.49300616
0
-0.54697255
0
-0.60353806
0
-0.66555555
0
-0.027345445
-4.3992624e-14
-0.0551616
1.4098177e-17
-0.084891251
0
-0.11862615
0
-0.15466103
0
-0.19130949
-3.6367867e-14
-0.229834
0
-0.2716024
0
-0.31648724
1.8209179e-17
-0.36412539
0
-0.41428767
0
-0.46600068
-5.7993924e-14
-0.51817974
-5.58426e-14
-0.57094855
0
-0.62653671
5.1831443e-14
-0.68783296
0
-0.025904973
0
-0.052197379
2.1193815e-14
-0.080088086
0
-0.11194183
0
-0.14612744
0
-0.18069116
0
-0.21687058
-3.5019079e-14
-0.25599551
0
-0.29787125
0
-0.34227653
1.6951652e-17
-0.38957058
0
-0.43934235
1.4267041e-17
-0.49028551
0
-0.54131071
-5.3787937e-14
-0.59296046
0
-0.64755925
0
-0.70805376
2.2872659e-14
-0.024505824
2.2020424e-14
-0.049351071
2.1198155e-14
-0.075500216
-2.0392117e-14
-0.10554147
0
-0.13796062
0
-0.17052488
0
-0.20450617
0
-0.2412979
3.374055e-14
-0.28059186
0
-0.32208909
0
-0.36640159
0
-0.41357015
2.8992287e-14
-0.46270567
1.317212e-17
-0.51267373
1.1726051e-17
-0.56258813
-5.1810753e-14
-0.61306476
4.9927956e-14
-0.6667052
1.6313819e-17
-0.72643836
2.28767e-14
-0.023151556
-1.5360866e-17
-0.046618782
2.1202156e-14
-0.071130328
0
-0.099431325
1.4004323e-17
-0.13015796
1.8911748e-14
-0.16081195
-1.8205081e-14
-0.19270235
0
-0.22736044
0
-0.26440096
0
-0.30336661
0
-0.34485292
0
-0.38928291
-2.8992981e-14
-0.4360628
-2.7936322e-14
-0.484391
1.2175921e-17
-0.53334063
0
-0.58203663
0
-0.63140712
0
-0.68408593
-4.6319811e-14
-0.74309818
0
-0.021846589
2.2012666e-14
-0.043998737
0
-0.066972773
-2.0399784e-14
-0.093611884
0
-0.12271815
1.2104177e-17
-0.15155066
-1.8197314e-14
-0.18144037
0
-0.21410623
0
-0.24911239
0
-0.28583887
0
-0.32481898
0
-0.36665795
0
-0.41093875
2.7936819e-14
-0.4570002
-2.6906054e-14
-0.50441629
0
-0.55225036
0
-0.59978746
0
-0.64804209
0
-0.69987243
0
-0.75822784
2.2866144e-14
-0.020595075
0
-0.041492422
-2.120918e-14
-0.063025811
0
-0.088078779
0
-0.11563277
-1.8918296e-14
-0.1427381
1.8221943e-14
-0.17071456
0
-0.20149049
0
-0.234607
0
-0.26930385
0
-0.3060718
0
-0.34544958
0
-0.38727324
0
-0.43102246
0
-0.47633939
2.5903093e-14
-0.5228264
1.0191935e-17
-0.56952858
0
-0.61587719
0
-0.6631491
0
-0.71415046
-4.299354e-14
-0.77182028
0
-0.019399599
0
-0.039102581
1.4073734e-17
-0.05928411
0
-0.08282296
-1.4473794e-17
-0.10889296
1.2118865e-17
-0.1343648
1.8203209e-14
-0.16052302
-3.5057417e-14
-0.18949182
0
-0.22082748
0
-0.25361033
0
-0.28834354
0
-0.32546265
0
-0.36487996
0
-0.40638447
2.6892287e-14
-0.44960035
-2.5902019e-14
-0.49416214
0
-0.53960847
2.4044686e-14
-0.58515671
0
-0.63043609
-4.4619768e-14
-0.67678251
0
-0.72703041
-4.1423139e-14
-0.78404754
0
-0.018261909
2.2021551e-14
-0.036825707
0
-0.055742229
-2.040909e-14
-0.077832429
0
-0.10248036
0
-0.12642173
1.8216527e-14
-0.1508631
1.7536482e-14
-0.17810267
1.0368069e-17
-0.20773971
0
-0.23868625
0
-0.27150781
0
-0.30657908
0
-0.34371239
0
-0.38291582
0
-0.42409939
0
-0.46676119
-2.4948529e-14
-0.51042657
0
-0.55481168
2.3162004e-14
-0.59924607
2.2314986e-14
-0.64353932
0
-0.68908331
0
-0.73859024
0
-0.79499666
1.1445723e-14
-0.017181672
-1.1019937e-14
-0.034660293
0
-0.05239213
0
-0.073096453
0
-0.096381013
0
-0.11889517
0
-0.14172547
1.7538802e-14
-0.16731347
0
-0.19532487
9.4879111e-18
-0.22449512
1.5648087e-14
-0.25547649
-1.5065857e-14
-0.2886614
0
-0.32369824
0
-0.36061014
1.355475e-17
-0.39964484
0
-0.44050654
0
-0.48246271
2.4041053e-14
-0.52518012
0
-0.56846137
7.4291445e-18
-0.6118784
-2.1491522e-14
-0.65532367
-4.1416841e-14
-0.70011715
0
-0.7489793
0
-0.80481746
0
-0.016158517
0
-0.032602368
-1.0609872e-14
-0.049224912
0
-0.068607185
0
-0.090580707
0
-0.11176785
0
-0.13309862
0
-0.15711149
-1.6875689e-14
-0.18356718
-3.250206e-14
-0.21101768
0
-0.24020939
8.5606662e-18
-0.27161451
0
-0.30471903
0
-0.3394649
0
-0.37625521
0
-0.41514974
0
-0.45555991
0
-0.49675218
-2.3148317e-14
-0.53844882
0
-0.58071113
4.2990537e-14
-0.62320073
2.0705882e-14
-0.66588275
0
-0.71003165
0
-0.75826224
0
-0.81351498
-1.1447583e-14
-0.015190445
-1.1014022e-14
-0.030649653
-1.0603822e-14
-0.046229777
0
-0.064356898
0
-0.085068006
0
-0.10502246
0
-0.12496575
0
-0.14747904
0
-0.17244764
0
-0.19824219
1.5650897e-14
-0.22568727
-1.5059418e-14
-0.25538544
0
-0.28668871
-1.3968991e-14
-0.31942761
0
-0.35403563
0
-0.39077208
0
-0.42942805
0
-0.46932254
0
-0.50966234
0
-0.55035749
0
-0.59163145
-2.0702712e-14
-0.63330949
-1.9954746e-14
-0.67532521
-3.8448765e-14
-0.71889497
0
-0.7665371
0
-0.82121286
9.0540525e-18
-0.014275928
0
-0.02879715
0
-0.043399213
1.0216166e-14
-0.060337443
-7.5063409e-18
-0.079836235
0
-0.09863886
1.8214756e-14
-0.11730753
1.7544831e-14
-0.13839662
0
-0.16194123
-1.625908e-14
-0.18614875
1.5652238e-14
-0.21190103
0
-0.23994888
0
-0.26954061
-1.3962067e-14
-0.30040877
-6.6871359e-18
-0.33298474
0
-0.3675473
0
-0.40413129
0
-0.44249677
0
-0.48180748
0
-0.5212679
7.1659801e-18
-0.56096826
0
-0.60137814
3.9902965e-14
-0.64230169
1.9226173e-14
-0.68375827
0
-0.7268113
0
-0.77385691
-3.4405206e-14
-0.82799163
0
-0.013412665
8.088703e-18
-0.027041811
1.0605478e-14
-0.04072517
0
-0.056542065
-9.8277776e-15
-0.074878449
-6.1931997e-18
-0.092599779
0
-0.11009693
0
-0.12984084
1.6891659e-14
-0.15201981
0
-0.17471643
-1.5653531e-14
-0.19883954
0
-0.22529086
0
-0.25324167
7.2294877e-18
-0.28233801
0
-0.31302764
6.2116749e-18
-0.34556043
0
-0.37998375
0
-0.41642968
2.3148438e-14
-0.45448258
0
-0.49310251
-2.1477238e-14
-0.53162759
-2.0694727e-14
-0.57042787
0
-0.61000648
1.922272e-14
-0.65029985
1.8520728e-14
-0.69126617
3.5704773e-14
-0.73384107
0
-0.78034064
0
-0.83395778
-1.1449461e-14
-0.012597258
1.1016238e-14
-0.025380988
1.0613208e-14
-0.038202985
1.0210348e-14
-0.05296388
9.8360132e-15
-0.070188391
0
-0.086890644
9.108999e-15
-0.10331036
0
-0.12178823
0
-0.14265655
-1.6252645e-14
-0.16391829
0
-0.18648619
0
-0.21140154
8.0875187e-18
-0.23777168
0
-0.26517197
-1.3444614e-14
-0.29409603
1.2952703e-14
-0.32478114
-5.7626493e-18
-0.35719154
0
-0.39154934
0
-0.42783393
2.2296403e-14
-0.46538332
0
-0.50323408
0
-0.5408881
0
-0.57882089
-4.8280178e-18
-0.6176847
-3.7034195e-14
-0.65738693
0
-0.69794234
-3.4398079e-14
-0.74008046
0
-0.78603542
0
-0.83912825
0
-0.011822523
0
-0.023810008
-1.0613777e-14
-0.035824745
1.0218121e-14
-0.049597659
-7.5778779e-18
-0.065758144
-9.4622518e-15
-0.081498913
-1.8224536e-14
-0.096922517
-8.7747005e-15
-0.11421373
-1.6894593e-14
-0.13382389
0
-0.1537291
0
-0.17482061
0
-0.19826568
0
-0.22311616
1.3970527e-14
-0.24888327
2.6896002e-14
-0.27612989
6.2473458e-18
-0.30511827
0
-0.33570945
1.2007345e-14
-0.3680461
-2.3141615e-14
-0.40235351
0
-0.43833022
-2.146831e-14
-0.47527069
0
-0.51235081
1.9938531e-14
-0.54913893
0
-0.58628099
1.8512675e-14
-0.62445654
1.7845849e-14
-0.66366373
-3.4395535e-14
-0.70384034
0
-0.74559342
0
-0.79101876
3.0790986e-14
-0.84358424
-5.4569501e-05
-0.013010546
0
-0.022316068
0
-0.033583109
0
-0.046432851
7.5836462e-18
-0.061579822
9.4627618e-15
-0.076409906
-9.1102503e-15
-0.090910115
-8.7700533e-15
-0.10708996
-8.4479235e-15
-0.1254931
0
-0.14411867
0
-0.16381982
1.5073382e-14
-0.18586477
1.4511646e-14
-0.20925914
-1.3970986e-14
-0.2334518
0
-0.25909277
0
-0.28649128
5.8600507e-18
-0.31542346
1.2011572e-14
-0.34593342
0
-0.37832949
0
-0.41247019
0
-0.44793247
0
-0.48422817
1.992715e-14
-0.5205163
1.9203513e-14
-0.55647541
4.4638346e-18
-0.59287388
-1.784144e-14
-0.63045231
3.1811066e-18
-0.669169
-1.6570492e-14
-0.70905992
3.1946325e-14
-0.75044516
-3.0788619e-14
-0.79532706
0
-0.84739821
-9.2112364e-05
-0.013025355
-0.00015166185
-0.024319855
1.0607332e-14
-0.0314589
0
-0.043460088
9.8299275e-15
-0.057642689
-9.4631846e-15
-0.071610213
-5.242396e-18
-0.085250186
0
-0.10039187
0
-0.11764033
-8.1328699e-15
-0.13505955
1.5658104e-14
-0.15345928
0
-0.1741749
-1.4504314e-14
-0.19617989
0
-0.21885798
-6.5582167e-18
-0.24295678
-1.294561e-14
-0.26884436
0
-0.29624296
5.5070639e-18
-0.32510233
0
-0.35568654
0
-0.38800849
0
-0.4217652
0
-0.45668813
-1.9921522e-14
-0.49230328
-1.9203372e-14
-0.52779237
0
-0.56296669
-1.7832415e-14
-0.5987052
-3.437911e-14
-0.63568945
-1.656404e-14
-0.67401185
3.1938342e-14
-0.7136448
0
-0.75469233
0
-0.79904915
0
-0.85064041
-0.00011436551
-0.013038304
-0.00025563651
-0.024360115
-0.00023005531
-0.034001591
0
-0.040660572
0
-0.053935517
0
-0.067086355
9.1164358e-15
-0.079926086
-8.7762995e-15
-0.094096512
-1.6892492e-14
-0.11024323
0
-0.12652179
7.8253722e-15
-0.14371065
0
-0.1631705
0
-0.18385526
0
-0.20508052
0
-0.22769781
1.2945411e-14
-0.25214139
-1.2465285e-14
-0.27808448
-1.200967e-14
-0.305412
5.2401925e-18
-0.33431281
0
-0.36487484
0
-0.39695451
0
-0.43028098
0
-0.46462658
0
-0.49953263
0
-0.53425403
-1.7830731e-14
-0.56871761
1.7186021e-14
-0.60382915
-1.6565158e-14
-0.64029595
2.4231404e-18
-0.67823665
1.5389761e-14
-0.71768231
0
-0.75839218
-2.8591771e-14
-0.8022227
0
-0.85333642
-0.00012313749
-0.013051888
-0.00031694837
-0.024386601
-0.00038736687
-0.034131472
-0.00029713665
-0.043568042
0
-0.050432929
0
-0.062824121
0
-0.074916132
8.7766934e-15
-0.088180208
-5.4231363e-18
-0.1032803
8.1293099e-15
-0.11847724
0
-0.13454075
1.5067432e-14
-0.15282134
-1.4514157e-14
-0.17225737
0
-0.19209548
1.3451795e-14
-0.21329295
0
-0.23635303
0
-0.26090048
0
-0.2867846
0
-0.3141326
4.9460023e-18
-0.34300902
-1.0724703e-14
-0.37340786
-1.0336209e-14
-0.40522907
0
-0.43810889
0
-0.47179892
0
-0.50599639
0
-0.53999865
0
-0.57379302
-1.6556874e-14
-0.60833319
0
-0.64429646
2.115595e-18
-0.68193371
1.4830506e-14
-0.72120159
0
-0.76160682
0
-0.80490524
2.6554765e-14
-0.85553405
-0.00012028251
-0.013065832
-0.00034076525
-0.024407459
-0.00047977502
-0.034228354
-0.00050009164
-0.043804178
-0.00036147296
-0.053611663
-9.4638631e-15
-0.058790054
0
-0.070200726
0
-0.082620073
8.4497547e-15
-0.096725738
-4.4827369e-18
-0.11090153
7.8303942e-15
-0.12591792
0
-0.14309677
7.2574801e-15
-0.16135704
0
-0.17987659
0
-0.19971641
-1.2945139e-14
-0.22145236
0
-0.24465604
1.2002444e-14
-0.26915521
0
-0.29505285
0
-0.32236001
4.589814e-18
-0.3510864
1.0333709e-14
-0.38139499
9.9520045e-15
-0.41294228
0
-0.44521706
0
-0.47825337
1.7818164e-14
-0.51177434
0
-0.54508424
0
-0.57825455
1.5957156e-14
-0.61226875
-2.2081305e-18
-0.64779236
1.4827133e-14
-0.6851348
-1.4290151e-14
-0.72429185
0
-0.76437445
0
-0.80712432
2.5590729e-14
-0.85730351
-0.00010771086
-0.013079598
-0.00033239153
-0.024422376
-0.00051528773
-0.034307613
-0.00061902025
-0.043994986
-0.00060803271
-0.054010896
-0.00041806057
-0.062098406
9.11719e-15
-0.065743466
0
-0.077395243
0
-0.090559627
4.4320431e-18
-0.10377109
-4.0782026e-18
-0.11781436
0
-0.13396368
-7.2536986e-15
-0.15112138
6.9799133e-15
-0.16839456
0
-0.18694182
-1.2945055e-14
-0.20741207
0
-0.22931875
-1.2007586e-14
-0.25248118
-1.1563044e-14
-0.27699857
0
-0.30285023
-1.0725312e-14
-0.32997063
4.2862353e-18
-0.35865592
-9.9490925e-15
-0.38893404
0
-0.42006523
0
-0.45168176
0
-0.48405462
0
-0.51691003
0
-0.54955426
-1.5948405e-14
-0.58216191
1.5376786e-14
-0.61570662
1.4821026e-14
-0.65080533
1.5840184e-18
-0.68792859
1.3771422e-14
-0.72698703
0
-0.76674836
1.8540356e-18
-0.80894441
2.4661848e-14
-0.85868601
-8.7384179e-05
-0.013092874
-0.00029726565
-0.024432188
-0.00050211157
-0.03436835
-0.00066450438
-0.044153438
-0.00075232137
-0.054340045
-0.00070343915
-0.062765882
-0.00046018588
-0.06902352
-8.7721659e-15
-0.072469271
0
-0.084760573
0
-0.097065275
0
-0.11020174
-4.5012796e-18
-0.1253916
0
-0.14151625
-6.9835588e-15
-0.15761694
-3.1494415e-18
-0.17493813
0
-0.19420196
0
-0.21485857
-1.2001162e-14
-0.23672693
1.156222e-14
-0.25991674
-1.1134582e-14
-0.28440026
0
-0.31001399
-1.0329074e-14
-0.33706782
4.1663357e-18
-0.36593764
9.5870436e-15
-0.39602528
0
-0.42652622
0
-0.45748976
-1.7155497e-14
-0.48923703
1.6540652e-14
-0.52144211
0
-0.55348471
0
-0.58557795
0
-0.61869211
0
-0.65343063
0
-0.69037604
1.3272936e-14
-0.72936318
0
-0.76875747
0
-0.81039622
-2.3765877e-14
-0.85971764
-6.130008e-05
-0.013105556
-0.00024088054
-0.024437943
-0.00044859059
-0.034411671
-0.00064718195
-0.044280322
-0.00080723153
-0.054615591
-0.00087065232
-0.063336214
-0.00077515558
-0.070002699
-0.00049279691
-0.075572786
0
-0.079286569
0
-0.090762756
0
-0.10305326
-7.5350358e-15
-0.11734487
-4.2244202e-18
-0.1325058
0
-0.14750985
0
-0.16367298
0
-0.18178897
0
-0.20124313
0
-0.22186006
1.1561503e-14
-0.24376759
5.2378071e-18
-0.26694444
-1.0722088e-14
-0.29115151
-1.0322764e-14
-0.31663956
0
-0.34392218
-9.5801985e-15
-0.37280658
0
-0.40243856
-2.9599761e-18
-0.43232772
-1.7148008e-14
-0.46270115
0
-0.49383966
0
-0.52545446
0
-0.55692933
0
-0.58855406
-1.4277949e-14
-0.62128379
0
-0.65572257
-1.3268858e-14
-0.69254854
0
-0.73143572
0
-0.77045383
0
-0.81151927
0
-0.86042154
-3.1490478e-05
-0.013118017
-0.00016879929
-0.024440047
-0.00036315112
-0.034439075
-0.00057796176
-0.044376575
-0.00078590846
-0.054839527
-0.00093453055
-0.063830284
-0.0009603721
-0.070858004
-0.0008306244
-0.076828593
-0.00052127372
-0.082052434
8.1310365e-15
-0.084817446
0
-0.096344972
0
-0.10979261
7.2588215e-15
-0.12405095
-6.9872816e-15
-0.13803827
0
-0.15311049
6.4758358e-15
-0.17013701
0
-0.18843858
0
-0.20784745
0
-0.22851322
1.1132569e-14
-0.25043861
-1.0720711e-14
-0.27330635
0
-0.29730606
0
-0.32299529
0
-0.3504589
3.6008253e-18
-0.37907469
-8.8925019e-15
-0.40816527
0
-0.4375321
0
-0.46736043
0
-0.49795076
3.0177072e-18
-0.52900001
0
-0.55994279
0
-0.59112416
-1.3759837e-14
-0.62353847
0
-0.65775657
-1.2786434e-14
-0.69448066
0
-0.73326672
1.6289218e-18
-0.77184948
0
-0.81233446
-2.2072801e-14
-0.86085849
-0.013130018
0
-8.6632284e-05
-0.024439024
-0.0002542655
-0.034451801
-0.00046768698
-0.044443175
-0.00070162837
-0.055013208
-0.00091018045
-0.064247717
-0.0010319244
-0.071611641
-0.0010297507
-0.077931698
-0.00087819913
-0.083504988
-0.00054271737
-0.087136662
0
-0.090039314
0
-0.1027047
0
-0.1161197
3.2222532e-18
-0.12916784
-6.7263048e-15
-0.14321716
1.2948349e-14
-0.159209
6.2347392e-15
-0.17640836
5.9998988e-15
-0.1946551
0
-0.2141201
0
-0.23484503
1.0719489e-14
-0.25643237
4.2124979e-18
-0.27902128
9.9394038e-15
-0.30319428
0
-0.32913201
0
-0.3564465
-1.7778123e-14
-0.38462864
0
-0.41329138
0
-0.44220976
0
-0.47155913
0
-0.50162078
1.4798559e-14
-0.53212579
0
-0.56254064
0
-0.59333901
-1.3260775e-14
-0.62550834
-1.1380049e-18
-0.65956441
9.9872154e-19
-0.6962227
0
-0.73486011
0
-0.77298394
0
-0.81288293
-2.1272082e-14
-0.86104864
-0.024435491
0
-0.013141418
3.1545184e-05
-0.00013038524
-0.034449774
-0.00032733914
-0.044480845
-0.00056761972
-0.055137951
-0.00081282815
-0.06458763
-0.0010060206
-0.072259624
-0.0011070288
-0.078897097
-0.0010881318
-0.084763425
-0.0009134178
-0.088796646
-0.0005573372
-0.091955318
-7.5401216e-15
-0.096039168
0
-0.10867678
6.9875804e-15
-0.12086491
6.726357e-15
-0.13395786
-3.4157377e-18
-0.148968
0
-0.16511609
-5.9997321e-15
-0.1822484
1.1554206e-14
-0.20055405
0
-0.22012818
0
-0.24049457
0
-0.2617313
0
-0.28446544
1.9148578e-14
-0.30891721
0
-0.33478662
1.7777917e-14
-0.36176648
2.8405491e-18
-0.38958735
0
-0.41789009
0
-0.44644238
1.5341642e-14
-0.47533876
0
-0.50488717
0
-0.53484864
0
-0.56478445
0
-0.59523522
0
-0.62723374
1.2320632e-14
-0.66119803
9.1006673e-19
-0.69779536
0
-0.73626166
0
-0.77386053
0
-0.81319083
-2.0500409e-14
-0.86102084
-0.034432744
0
-0.024431169
8.666512e-05
-0.013152823
6.1518911e-05
-0.00016780144
-0.044490582
-0.00039718971
-0.055214417
-0.00065780606
-0.064850042
-0.00089920647
-0.072799373
-0.0010796982
-0.079722358
-0.001169075
-0.085848726
-0.0011307014
-0.090225579
-0.00093801153
-0.093951198
-0.000572287
-0.097563357
0
-0.10166262
6.9876912e-15
-0.11309636
0
-0.12529822
6.475947e-15
-0.13937611
-3.2961129e-18
-0.15452483
0
-0.17059202
0
-0.18778198
5.5624705e-15
-0.20625204
0
-0.22545607
0
-0.24540044
9.9397531e-15
-0.26676473
9.5701142e-15
-0.28981197
-9.2192116e-15
-0.31425152
-8.8824852e-15
-0.33984617
-8.5622228e-15
-0.3665313
0
-0.39406647
-1.5906432e-14
-0.42208222
7.6647409e-15
-0.45028477
0
-0.47874038
0
-0.50777391
0
-0.53722842
0
-0.56669392
0
-0.59685584
-1.2316844e-14
-0.6287446
0
-0.6626797
-1.1446296e-14
-0.69923434
0
-0.73744728
9.2231314e-19
-0.77451751
-2.0499663e-14
-0.81328042
1.9756501e-14
-0.86078321
-0.044472182
0
-0.034404357
0.00013024058
-0.024426833
0.00016893963
-0.013164907
8.7863721e-05
-0.00020358285
-0.055244381
-0.00046043147
-0.065035279
-0.00072828745
-0.073228432
-0.00096549609
-0.08040581
-0.001139579
-0.086762591
-0.0012136826
-0.091457571
-0.0011611302
-0.095702933
-0.00096402197
-0.099966654
-0.00058662126
-0.10269302
0
-0.1057853
0
-0.11720599
0
-0.13039539
-6.2312965e-15
-0.14459727
0
-0.15965007
-5.7767618e-15
-0.17576983
-5.5621916e-15
-0.19318343
5.3558721e-15
-0.21128174
0
-0.22999368
0
-0.25005149
-9.5681156e-15
-0.27177378
0
-0.29485088
0
-0.31903744
0
-0.34440971
-8.2478266e-15
-0.37087696
-7.9468807e-15
-0.39815346
1.5325082e-14
-0.42591352
-7.3871697e-15
-0.45378521
-1.4241862e-14
-0.48179046
0
-0.51033863
0
-0.53928763
0
-0.56831844
-1.2313249e-14
-0.59821371
8.3746936e-19
-0.63007522
0
-0.66403982
1.1032895e-14
-0.70051347
1.0633194e-14
-0.73845396
2.0498422e-14
-0.77495375
0
-0.81317028
0
-0.86039316
-0.055228191
0
-0.044432431
0.0001675118
-0.034365254
0.00025371363
-0.024422163
0.0002412145
-0.013177782
0.00010851678
-0.00023606681
-0.065143719
-0.00051014476
-0.073546324
-0.0007822568
-0.080947385
-0.0010184388
-0.087508199
-0.0011820615
-0.092494429
-0.0012465159
-0.097228041
-0.0011943088
-0.10209772
-0.00098853925
-0.10543332
-0.00059350187
-0.10624507
0
-0.10961195
0
-0.12198849
0
-0.13529608
-5.9993648e-15
-0.14938688
-5.7794962e-15
-0.16448605
0
-0.18088895
2.4718135e-18
-0.19793605
0
-0.21547581
0
-0.23428943
0
-0.25475536
-9.2144291e-15
-0.27654888
1.7756809e-14
-0.29937253
0
-0.32335344
0
-0.34859983
2.4847085e-18
-0.37487526
2.1947184e-18
-0.40193464
-7.3809298e-15
-0.42945308
-7.1181603e-15
-0.45697042
0
-0.48454638
0
-0.51260531
0
-0.5410644
0
-0.5696556
0
-0.59934801
7.025689e-19
-0.6312391
1.1029057e-14
-0.6652649
6.9949333e-19
-0.7016609
0
-0.73925942
1.975488e-14
-0.77520212
0
-0.8128879
0
-0.85985813
-0.065175585
0
-0.055179309
0.00020322108
-0.044372073
0.00032622092
-0.034312389
0.00036200187
-0.024418136
0.0002978876
-0.013191979
0.00012144944
-0.00026171212
-0.073751874
-0.00054812579
-0.081346472
-0.00082476496
-0.088088551
-0.0010556881
-0.093341804
-0.0012141301
-0.098526135
-0.0012830686
-0.10396343
-0.0012253121
-0.10786357
-0.0010000848
-0.10928101
-0.00059408462
-0.10947653
-3.4586096e-18
-0.11408506
0
-0.1265834
0
-0.13976556
2.8417051e-18
-0.15389203
5.561758e-15
-0.16933364
-5.355159e-15
-0.1853836
1.0317457e-14
-0.20180916
-1.9022469e-18
-0.21943781
0
-0.23871376
0
-0.25929717
0
-0.28082948
0
-0.30343344
-8.2406937e-15
-0.32737929
2.6180798e-18
-0.35254425
0
-0.37861686
7.3785247e-15
-0.40546
1.791564e-18
-0.43271006
-6.8592752e-15
-0.4598818
1.3226289e-14
-0.48702361
0
-0.51459875
0
-0.54256174
0
-0.57075559
0
-0.60026757
1.1026888e-14
-0.63225304
-1.063013e-14
-0.66637651
6.0216449e-19
-0.70263591
-9.8765804e-15
-0.73989882
1.9038263e-14
-0.77525526
0
-0.81245525
0
-0.85918879
-0.073842944
0
-0.065150506
0.00023577669
-0.055099476
0.000395798
-0.044286397
0.00046532935
-0.034245907
0.00044676832
-0.024415672
0.00033339733
-0.013208095
0.00012462426
-0.00028127071
-0.081602528
-0.00057765742
-0.088506747
-0.00085441341
-0.094004231
-0.0010844681
-0.099599656
-0.0012506565
-0.1055619
-0.0013170463
-0.1100021
-0.0012397268
-0.11197147
-0.001001045
-0.11280908
-0.00059471244
-0.11333108
0
-0.11838164
-5.9992168e-15
-0.13075125
5.779288e-15
-0.14395697
-5.561584e-15
-0.1584756
-2.5285056e-18
-0.17358451
0
-0.18895701
-1.875047e-18
-0.20546004
-4.7856892e-15
-0.22360497
-9.2104887e-15
-0.24304299
-8.8718769e-15
-0.26336152
-8.5467541e-15
-0.28465625
-2.82851e-18
-0.30724993
0
-0.33122058
-7.6476895e-15
-0.35626497
0
-0.38212847
1.9266088e-18
-0.40874691
-6.8531512e-15
-0.43572186
-6.6101053e-15
-0.46253373
-1.2748953e-14
-0.48924329
1.2292993e-14
-0.5163274
-1.1855069e-14
-0.54382105
0
-0.57162053
0
-0.60100557
-1.0627034e-14
-0.63311925
0
-0.66733966
5.2538981e-19
-0.70346941
9.5180724e-15
-0.74033701
0
-0.77514472
0
-0.81187377
0
-0.8583862
-0.081712342
0
-0.073843246
0.00026161865
-0.065070323
0.00045932664
-0.054979792
0.00056472363
-0.044176028
0.00057413146
-0.034166525
0.00049968906
-0.024414924
0.00034218527
-0.013226068
0.00011603698
-0.00029634043
-0.088764845
-0.0005981866
-0.094486391
-0.00087783376
-0.10044935
-0.0011178713
-0.10689103
-0.0012844577
-0.11184272
-0.0013326381
-0.11435139
-0.0012408907
-0.11577418
-0.001002223
-0.11698171
-0.00059583089
-0.11697661
-5.9992765e-15
-0.12226209
-5.779201e-15
-0.13465041
0
-0.14828399
-5.3546199e-15
-0.16250028
5.1560379e-15
-0.17688173
0
-0.1923176
-4.781019e-15
-0.20938689
-2.021725e-18
-0.22773901
0
-0.24690609
0
-0.26696721
0
-0.28824207
0
-0.3109252
7.6435885e-15
-0.33490797
0
-0.35979623
7.1027319e-15
-0.38543268
6.8502498e-15
-0.41181367
0
-0.43849468
-1.2715169e-18
-0.46494284
0
-0.49121374
0
-0.51782735
1.1427135e-14
-0.54485473
0
-0.57229391
0
-0.60155746
0
-0.63384581
9.8732313e-15
-0.66816893
4.1898034e-19
-0.704116
0
-0.74060921
-1.7681985e-14
-0.77485868
0
-0.81116268
1.6422263e-14
-0.8575178
-0.088863287
0
-0.081705794
0.00028124817
-0.073753629
0.00050979972
-0.064918677
0.00065553992
-0.054822347
0.00069699754
-0.044040784
0.00064192884
-0.034073994
0.00051248456
-0.024415583
0.00031870963
-0.013246366
9.3705799e-05
-0.00030678389
-0.094791499
-0.00061468724
-0.10107504
-0.00090539704
-0.10794852
-0.0011484509
-0.11337852
-0.001299819
-0.11640859
-0.0013340205
-0.11839724
-0.0012422421
-0.12022455
-0.0010037386
-0.12092398
-0.00059445915
-0.12018584
0
-0.1258939
0
-0.13872395
-1.0711413e-14
-0.15209332
1.915962e-18
-0.16554578
-1.8158419e-18
-0.17997419
4.7825301e-15
-0.1960185
4.6036708e-15
-0.21333658
-4.4375455e-15
-0.23140921
0
-0.25030628
0
-0.27034068
-7.9280475e-15
-0.29172448
0
-0.31452249
-2.5645149e-18
-0.33847636
7.1003871e-15
-0.36316601
0
-0.38855137
0
-0.41467925
-6.3643843e-15
-0.44104477
0
-0.46711849
-1.1840337e-14
-0.49296893
0
-0.5191129
7.9320381e-19
-0.54569339
0
-0.57276626
1.0239504e-14
-0.60195588
0
-0.63442661
9.5155316e-15
-0.66883791
-9.1719311e-15
-0.70461437
-1.7680764e-14
-0.74069007
0
-0.77442712
0
-0.81035925
1.582604e-14
-0.85658918
-0.094920194
0
-0.088841483
0.00029624202
-0.081583535
0.00054804834
-0.073551594
0.00072760786
-0.064698586
0.00080929781
-0.054628127
0.00077969656
-0.043880438
0.00065816853
-0.033969578
0.00047699073
-0.024418688
0.00025749052
-0.013270076
5.5675901e-05
-0.00031529751
-0.10147752
-0.00063423756
-0.10873051
-0.00093049957
-0.11460383
-0.0011624274
-0.11813058
-0.0013013329
-0.12066536
-0.0013354572
-0.12308424
-0.0012439377
-0.12441932
-0.0010012364
-0.12442602
-0.00059093704
-0.1231609
5.5643087e-15
-0.12971726
0
-0.14232456
0
-0.15491158
-4.9642382e-15
-0.16838681
0
-0.18346004
0
-0.19979295
0
-0.2168222
-1.5541761e-18
-0.23461198
0
-0.25348539
0
-0.27362546
-7.636034e-15
-0.29516242
0
-0.31808157
0
-0.34193679
-6.8389004e-15
-0.36636068
6.594456e-15
-0.39149855
-6.3595995e-15
-0.41734276
-6.13367e-15
-0.44336928
5.916012e-15
-0.46907938
0
-0.4945166
1.1007741e-14
-0.52020189
0
-0.54633865
2.0471834e-14
-0.57308048
-9.8689879e-15
-0.60220007
0
-0.63487295
-3.2295357e-19
-0.66937321
1.7679361e-14
-0.70492312
-8.5197263e-15
-0.74061314
0
-0.7738619
0
-0.80947802
1.5251322e-14
-0.85559085
-0.10165566
0
-0.094920401
0.00030671167
-0.088699244
0.00057727615
-0.081314984
0.00078210308
-0.073237633
0.00089819018
-0.064413052
0.0009056133
-0.054398092
0.00079991027
-0.043698002
0.00061240342
-0.033849777
0.0003850279
-0.024426233
0.00015307724
-0.013294359
0
-0.00032542054
-0.10923414
-0.0006519852
-0.11551442
-0.00094195168
-0.11950704
-0.0011639117
-0.12256697
-0.0013026154
-0.12554961
-0.0013368551
-0.12749304
-0.0012404147
-0.12816967
-0.00099526885
-0.12772934
-0.00058698387
-0.12631446
0
-0.13310105
0
-0.14494417
0
-0.15752338
2.0851859e-18
-0.17167028
-4.604605e-15
-0.18706438
0
-0.20309913
0
-0.21983419
4.1119291e-15
-0.23761155
0
-0.25658674
0
-0.27686628
2.7338258e-18
-0.29859754
0
-0.3215843
-6.8365753e-15
-0.34525413
-6.589562e-15
-0.36940408
-6.3546915e-15
-0.39426646
0
-0.41980046
1.1857699e-18
-0.44547668
-9.3454286e-19
-0.47083349
0
-0.49586819
0
-0.52110115
4.964077e-19
-0.54682091
0
-0.57323929
-1.902368e-14
-0.60232019
0
-0.63518474
0
-0.66974264
-8.5189564e-15
-0.7050803
0
-0.74037365
1.5825721e-14
-0.77318149
-1.5251271e-14
-0.8085083
0
-0.85451057
-0.10945567
0
-0.10166552
0.00031532973
-0.094789264
0.00059788469
-0.088396973
0.00082393866
-0.08089974
0.00096520521
-0.072812608
0.0010047926
-0.064062785
0.00092938907
-0.054133845
0.00074486965
-0.043489668
0.00049413647
-0.033716195
0.00022868877
-0.024428629
0
-0.012116076
0
-0.00033458293
-0.11610621
-0.00066009568
-0.12053112
-0.00094324346
-0.12409024
-0.0011649927
-0.12761039
-0.0013036314
-0.13013239
-0.0013326921
-0.13145373
-0.0012328648
-0.13176225
-0.00098861299
-0.13121595
-0.00058177966
-0.12901505
0
-0.13554447
0
-0.14735035
0
-0.16060967
4.6041603e-15
-0.17511108
-4.433644e-15
-0.19019721
4.26978e-15
-0.20592543
4.1123748e-15
-0.2226632
3.9583534e-15
-0.24054886
0
-0.25962776
0
-0.28010224
-7.0849162e-15
-0.30204833
0
-0.32497909
-2.2583384e-18
-0.34838327
6.3516817e-15
-0.37226657
0
-0.39684435
5.9069083e-15
-0.42203795
-5.6977651e-15
-0.44737153
0
-0.47238638
0
-0.49703205
0
-0.52183699
-9.8613349e-15
-0.54715583
-9.5088885e-15
-0.57328111
9.1675975e-15
-0.602309
-8.8373111e-15
-0.63536361
0
-0.66996468
8.210036e-15
-0.70507868
7.9127289e-15
-0.74000291
0
-0.77236033
0
-0.80749571
-0.0077998732
-0.84553256
-0.11637277
0
-0.10945641
0.00032545324
-0.10150626
0.00061479014
-0.094478386
0.00085374364
-0.087935118
0.0010170378
-0.080336138
0.001079229
-0.072274945
0.0010306192
-0.063647713
0.00086567937
-0.05383518
0.00060156579
-0.043253667
0.00029331103
-0.033555565
0
-0.022461937
0
-0.012948524
0
-0.00033878793
-0.12119856
-0.00066106835
-0.12522564
-0.00094407407
-0.12925568
-0.001165564
-0.13232556
-0.0012991317
-0.13426486
-0.001324394
-0.13529069
-0.0012246302
-0.1355444
-0.00097991476
-0.13421622
-0.00057342059
-0.13080958
0
-0.13778033
0
-0.15023866
0
-0.16388434
1.882365e-18
-0.17807298
4.2675157e-15
-0.19284358
-4.1099972e-15
-0.20859127
-3.9586299e-15
-0.22544919
0
-0.24340796
0
-0.26264344
0
-0.28336517
6.8278548e-15
-0.30538066
0
-0.32815031
0
-0.35131735
-6.1190301e-15
-0.37494207
5.9020469e-15
-0.39920994
1.226262e-18
-0.42406771
9.510651e-19
-0.44905639
-5.298254e-15
-0.47375144
-1.0219415e-14
-0.49803307
0
-0.52242614
0
-0.54736917
0
-0.57319404
-8.8357476e-15
-0.60218264
1.7034207e-14
-0.63540516
0
-0.67005883
7.9122017e-15
-0.70496697
7.6253363e-15
-0.73945892
1.4696372e-14
-0.77150401
-0.015345207
-0.79896573
-0.0070933589
-0.83715453
-0.12150336
0
-0.11638039