/*--------------------------------*- C++ -*----------------------------------*\
| =========                 |                                                 |
| \\      /  F ield         | OpenFOAM: The Open Source CFD Toolbox           |
|  \\    /   O peration     | Version:  v2012                                 |
|   \\  /    A nd           | Website:  www.openfoam.com                      |
|    \\/     M anipulation  |                                                 |
\*---------------------------------------------------------------------------*/
FoamFile
{
    version     2.0;
    format      ascii;
    class       volScalarField;
    location    "83.4506707643468246";
    object      p;
}
// * * * * * * * * * * * * * * * * * * * * * * * * * * * * * * * * * * * * * //

dimensions      [0 2 -2 0 0 0 0];


internalField   nonuniform List<scalar> 
9200
(
0.029825185
0.031101829
0.081099885
0.033062309
0.085098599
0.13451007
0.035726945
0.090979665
0.14089827
0.17977158
0.038463448
0.099673513
0.15045983
0.1879198
0.21750665
0.040558776
0.10996538
0.16468115
0.20026674
0.22665621
0.24749131
0.040582024
0.12101275
0.18198832
0.2187558
0.24061841
0.25701229
0.27040407
0.03636586
0.13072739
0.20165769
0.2418051
0.26145527
0.27158685
0.27979603
0.28713735
0.024258233
0.1358684
0.22159617
0.26919469
0.2875402
0.2931842
0.2941743
0.29606058
0.29867694
-0.00057453721
0.13040734
0.23858777
0.2997454
0.31880028
0.32011097
0.31528047
0.30970056
0.30692533
0.30597075
-0.03879488
0.10456225
0.2471092
0.33201754
0.35441227
0.35222981
0.34135433
0.32951032
0.3195018
0.31344257
0.30986766
-0.12658661
0.04317056
0.23682941
0.36353636
0.39364455
0.38873427
0.37208056
0.35370713
0.33756849
0.32480265
0.31653409
0.31109483
-0.24628115
-0.089399723
0.18943337
0.38943018
0.43523833
0.42897245
0.40653358
0.38179654
0.35937388
0.34094593
0.32664131
0.31697285
0.31025529
-0.34617465
-0.26002954
0.11638068
0.40335926
0.47702795
0.47190885
0.44390436
0.4127313
0.38428234
0.36020367
0.34085501
0.32586511
0.31538764
0.30783248
-0.4263673
-0.42633285
0.035638969
0.40499771
0.51659001
0.51607964
0.4830466
0.4455577
0.4111907
0.38185539
0.35762856
0.33824648
0.32314297
0.31227978
0.3042185
-0.47820239
-0.56897368
-0.058393274
0.39598698
0.55195065
0.55977917
0.52255382
0.47905455
0.43908625
0.4048083
0.37620634
0.35271836
0.33384141
0.31899461
0.30804483
0.29974427
-0.49765613
-0.67351615
-0.13850842
0.3721274
0.57873764
0.60077073
0.56074546
0.51183646
0.46676996
0.42806697
0.39555745
0.36852837
0.346245
0.32817799
0.31382045
0.30299221
0.29464986
-0.48345334
-0.72982459
-0.19389277
0.32629562
0.58896631
0.63468073
0.59547672
0.54230088
0.49298161
0.45053346
0.41475675
0.38474072
0.35963255
0.33875689
0.32165439
0.30792601
0.29736793
0.2890568
-0.43520235
-0.74214764
-0.24223266
0.25637906
0.57415889
0.65484689
0.62367566
0.5686417
0.51636097
0.47112673
0.43284794
0.4005278
0.3731802
0.35005794
0.3306383
0.31456233
0.30154175
0.2913684
0.28323412
-0.358567
-0.72275396
-0.29471512
0.16491681
0.52796907
0.65408931
0.64139691
0.58886671
0.53552504
0.48877378
0.44894385
0.41508594
0.38616347
0.3613722
0.34015097
0.32215261
0.30711452
0.2948468
0.28512369
0.27732867
-0.26638643
-0.68426954
-0.35107991
0.053954409
0.44678736
0.62682554
0.64464958
0.60097089
0.54916961
0.50250422
0.46222849
0.42769923
0.39791578
0.37206705
0.34959588
0.33013098
0.31348291
0.2994722
0.28799433
0.27873975
0.27133024
-0.17421644
-0.63881689
-0.4122872
-0.079922767
0.33008389
0.57027498
0.63050697
0.60324989
0.55624001
0.51149407
0.47202764
0.43774237
0.40786632
0.38160892
0.35842668
0.33802122
0.32014761
0.30476219
0.29174315
0.28107519
0.27234183
0.26535574
-0.087701731
-0.59685202
-0.48091812
-0.23773706
0.18048319
0.48450002
0.59754209
0.59458273
0.55605288
0.51514608
0.47784973
0.44475433
0.41556987
0.38956861
0.36628386
0.3453653
0.32672292
0.3102777
0.29607572
0.28402674
0.27417298
0.26600369
0.25946864
-0.0078405491
-0.56211238
-0.55761143
-0.41651825
0.0028317036
0.37243721
0.54650064
0.57484352
0.54846599
0.51326324
0.47944639
0.44863121
0.42076245
0.39560155
0.37272611
0.3518486
0.33284379
0.31573291
0.30057365
0.2874862
0.27638993
0.26735434
0.25978194
0.25372034
0.063762151
-0.53411887
-0.63709776
-0.60987666
-0.1974386
0.23945281
0.48008857
0.54514143
0.53418829
0.50611976
0.47681
0.44902986
0.42329762
0.39955427
0.37758136
0.357182
0.33824955
0.32082538
0.30504881
0.2910648
0.27904007
0.26888465
0.26067233
0.25372025
0.24815198
0.12327491
-0.51202923
-0.71319257
-0.81020774
-0.41052932
0.092195679
0.4025838
0.50767325
0.51408229
0.49432396
0.47031182
0.44623615
0.42317334
0.40134816
0.38072359
0.36120638
0.34273643
0.32536191
0.30925698
0.29465999
0.28176984
0.2707727
0.26155205
0.25416878
0.24785398
0.24279433
0.16774698
-0.49282227
-0.78566109
-1.0065803
-0.62934096
-0.062369206
0.31862877
0.4649623
0.48973413
0.47869053
0.46041709
0.44049743
0.42053582
0.40102557
0.38212403
0.36384949
0.34618635
0.32919712
0.31306753
0.29808241
0.28455212
0.27270142
0.26271176
0.25442526
0.24787677
0.24221127
0.23767061
0.19789033
-0.47252426
-0.85641789
-1.1890067
-0.8438734
-0.21653833
0.23281927
0.41968977
0.46282332
0.46024548
0.44774343
0.43220921
0.4156285
0.39873106
0.38184294
0.36510856
0.34855776
0.33225214
0.31638131
0.30125638
0.28724858
0.27471137
0.26386961
0.25488008
0.24753118
0.24182236
0.23681383
0.23279769
0.21550081
-0.44843768
-0.92133731
-1.3520367
-1.0407929
-0.36165289
0.14916329
0.37429362
0.43500994
0.44010142
0.43302856
0.42185191
0.40877329
0.39467295
0.38000386
0.36504232
0.34986064
0.33450796
0.31915423
0.30412351
0.28983302
0.27671144
0.26512733
0.25528417
0.24729702
0.24089172
0.23602582
0.23167777
0.22818713
0.2240394
-0.41983159
-0.97897657
-1.4916135
-1.2100788
-0.49027932
0.070855177
0.33088464
0.40774946
0.41930478
0.41700975
0.40993894
0.40032726
0.38909735
0.37676782
0.36374664
0.35014798
0.33598489
0.32138799
0.30667099
0.29228385
0.27872035
0.26643728
0.25579437
0.24695506
0.23997955
0.23452465
0.2305025
0.22681439
0.22384601
0.22623918
-0.38751648
-1.0279933
-1.6042265
-1.3494678
-0.59877009
0.00037072146
0.29110029
0.38222982
0.39875027
0.40035982
0.39697515
0.39065172
0.38226661
0.37231198
0.36133553
0.34949366
0.33673392
0.32311422
0.30891962
0.29461582
0.28075001
0.26785944
0.25640322
0.24671161
0.23889315
0.2329425
0.22844414
0.22526348
0.22223081
0.21977761
0.22216384
-0.3483807
-1.0708173
-1.6885501
-1.4588275
-0.68639277
-0.060615616
0.25600629
0.35939763
0.37912689
0.38364511
0.38342203
0.3800901
0.37443854
0.36681326
0.35792125
0.34797452
0.33681658
0.32438653
0.31091191
0.29686678
0.28284007
0.26943689
0.25720901
0.24659629
0.23788276
0.23110974
0.22619892
0.22266114
0.22031618
0.21793055
0.21598207
0.21367798
-0.30691941
-1.1054968
-1.746877
-1.5359687
-0.75376651
-0.11134485
0.22623735
0.3397896
0.36094425
0.36730537
0.36968471
0.36895344
0.36585413
0.36043622
0.35359953
0.3456565
0.33629081
0.32526469
0.31270723
0.29908876
0.28504288
0.27123211
0.25828446
0.24674329
0.23701226
0.22931517
0.22361664
0.21975996
0.21718369
0.21566472
0.21391403
0.21245679
0.20191007
-0.26815075
-1.1220344
-1.7866855
-1.5845601
-0.80229407
-0.15254003
0.20200509
0.32306562
0.34449397
0.35157936
0.3560976
0.35751054
0.35673206
0.35332751
0.34843907
0.34257597
0.33520143
0.32580748
0.31437074
0.30134537
0.28741676
0.27330997
0.2597139
0.24725422
0.23644959
0.22765391
0.22101916
0.21642543
0.21363496
0.21201709
0.21131035
0.21017903
0.20919685
0.18837616
-0.23387785
-1.1260483
-1.7976801
-1.6204083
-0.83593745
-0.18523189
0.18311504
0.30864127
0.32939072
0.33671026
0.34290365
0.34596997
0.3472571
0.34561474
0.34247623
0.33873098
0.3335558
0.32605746
0.31597027
0.30370572
0.29002509
0.27573176
0.26157374
0.24823546
0.23632521
0.22632573
0.21852982
0.21300707
0.20954739
0.20783128
0.20716413
0.20725173
0.206721
0.20619554
0.17452449
-0.20702936
-1.116036
-1.7843561
-1.6370161
-0.87362224
-0.20896425
0.16923869
0.29664153
0.31553828
0.32394414
0.33025467
0.33449311
0.33758329
0.33740446
0.33571118
0.33407512
0.33132523
0.3260273
0.31755847
0.30624147
0.29293253
0.2785552
0.26392682
0.24977598
0.23676889
0.22549021
0.21637805
0.20965292
0.20529252
0.20299279
0.20235433
0.20262518
0.20348528
0.20353353
0.20344464
0.16167441
-0.19084847
-1.0914323
-1.7463416
-1.6295935
-0.90791332
-0.23322637
0.15861502
0.28713938
0.30461123
0.31407053
0.31837831
0.32320937
0.32783648
0.32879742
0.32811171
0.32850398
0.32843475
0.32569889
0.31918416
0.30902084
0.2962041
0.28183147
0.26682144
0.25194042
0.23788486
0.2253028
0.21475292
0.20661963
0.20103936
0.19788964
0.1967708
0.19720738
0.19839843
0.20000542
0.20060861
0.20093464
0.14798697
-0.17890482
-1.050198
-1.685836
-1.59874
-0.92645246
-0.26122243
0.14848617
0.27876075
0.29668405
0.30543645
0.30689748
0.31217574
0.3181126
0.31987555
0.31962261
0.32186104
0.3247421
0.325008
0.32086199
0.31211419
0.29990843
0.28560697
0.27028869
0.25476748
0.23974316
0.22588744
0.2138382
0.20412562
0.19706866
0.19270748
0.19081242
0.19088895
0.19239165
0.19448001
0.19680493
0.1979369
0.19865519
0.13153034
-0.16306368
-0.9938485
-1.6055588
-1.5446458
-0.92877573
-0.28076218
0.13147072
0.27112067
0.29054565
0.29646477
0.29509487
0.30135249
0.30845516
0.3107269
0.31015936
0.31392002
0.3200604
0.32382138
0.32256967
0.31557466
0.30410864
0.28992616
0.27434602
0.25826606
0.24237573
0.22732535
0.21378303
0.2023855
0.19362727
0.18774732
0.18467683
0.18407404
0.18535293
0.18790623
0.1908642
0.19387507
0.19550808
0.19659524
0.11334569
-0.14373967
-0.92866969
-1.508815
-1.4696066
-0.91438748
-0.29249907
0.11768016
0.25970304
0.28577669
0.28788695
0.28346727
0.29068265
0.29889217
0.30140101
0.29966225
0.30438175
0.31412125
0.32195271
0.32424415
0.31943297
0.30886798
0.29482587
0.27899836
0.26241866
0.24577137
0.22964868
0.21468786
0.20157946
0.19096238
0.18328247
0.17868072
0.17696741
0.1776864
0.18016641
0.18374817
0.18754356
0.19120595
0.19331107
0.19474371
-0.12200531
0.094516937
-0.85842355
-1.3991505
-1.3759462
-0.8854791
-0.29649689
0.10826023
0.24858871
0.28092543
0.2794292
0.27324787
0.2801129
0.28945845
0.29199442
0.28801985
0.29288408
0.30661204
0.31910976
0.32575656
0.32370069
0.31423602
0.30033986
0.28423875
0.26718421
0.2498784
0.23283293
0.21659513
0.20183647
0.1892906
0.17959305
0.17312051
0.169896
0.16959874
0.17165959
0.17533086
0.17991253
0.18450922
0.18878673
0.19133433
0.19309012
-0.78455455
-0.098406341
0.075609031
-1.2802426
-1.2653918
-0.84673928
-0.29285008
0.10227153
0.24095572
0.27698159
0.27174148
0.26261555
0.27010476
0.28002826
0.2824887
0.27532102
0.27891087
0.29715545
0.31496227
0.32686546
0.32834067
0.32024293
0.30648682
0.2900483
0.27250025
0.25460816
0.23679825
0.21947868
0.20322207
0.18877895
0.17693614
0.16830789
0.16317471
0.16142126
0.16258926
0.16600153
0.17084543
0.1763925
0.18175106
0.18660594
0.18956597
0.19162201
-1.1565493
-0.70899169
-0.074631611
0.057904122
-1.1449139
-0.8044715
-0.28259317
0.098471606
0.23669198
0.27217675
0.26372833
0.25223862
0.25871292
0.27097591
0.27297816
0.26138268
0.26204745
0.2853034
0.30903777
0.3272779
0.33323262
0.32688503
0.31326196
0.29638746
0.27828601
0.25983961
0.24141269
0.22324205
0.2057238
0.18953017
0.17552534
0.16454227
0.15714336
0.15348135
0.15328473
0.1559555
0.16071758
0.16670698
0.17317969
0.17925812
0.18465153
0.18799372
0.19032528
-1.0246755
-1.0331049
-0.63372455
-0.052764302
0.042471222
-0.75901257
-0.26688156
0.095695663
0.23206543
0.26478744
0.25482968
0.24013651
0.24729019
0.26059862
0.26349134
0.24684484
0.24115589
0.27066668
0.30075956
0.32646416
0.33822883
0.33410378
0.32062176
0.30319162
0.2844361
0.26542616
0.24649857
0.2277202
0.20924598
0.19156417
0.1755145
0.16209001
0.15214285
0.14614156
0.14407893
0.14551363
0.14971149
0.15581031
0.16291029
0.17026452
0.17701861
0.18291085
0.18660492
0.18918483
-0.70665973
-0.91170122
-0.91396506
-0.56181528
-0.033464158
0.029015893
-0.24646847
0.092655937
0.2252712
0.25494685
0.24379504
0.2250237
0.23379697
0.25042529
0.25397851
0.23067815
0.21640346
0.25232412
0.28947648
0.32394576
0.3430559
0.34180445
0.32846982
0.31035262
0.2908214
0.27119432
0.25184283
0.23268618
0.21360744
0.19480801
0.17697569
0.16116813
0.14849519
0.13978035
0.1353498
0.13500675
0.13813327
0.14386821
0.1512798
0.15944851
0.16763612
0.17501962
0.18137078
0.18538708
0.18817278
-0.2221168
-0.64756476
-0.80586484
-0.80317623
-0.49444193
-0.01677879
0.017376828
0.088175023
0.21508073
0.24065375
0.22886462
0.20495123
0.21664144
0.23886283
0.24468049
0.21737339
0.18583209
0.23100989
0.27452378
0.31864574
0.34716025
0.34968735
0.33663621
0.31770691
0.29727302
0.27695167
0.25720166
0.23786299
0.21854559
0.19908824
0.17988433
0.16191973
0.14648892
0.13477427
0.12750656
0.12481936
0.1263036
0.13116596
0.13843367
0.14712388
0.15631293
0.16528184
0.17324716
0.18001871
0.18432873
0.18729402
0.08105586
-0.19456238
-0.5848386
-0.70390837
-0.70055336
-0.43045724
-0.0028728191
0.0075113893
0.20045117
0.22086841
0.20883538
0.17763289
0.19387562
0.22471699
0.23433389
0.20279029
0.15671406
0.20211755
0.25588702
0.30962013
0.35008903
0.35752452
0.34479842
0.32501374
0.30357693
0.28247534
0.26231541
0.24293359
0.22372848
0.2041303
0.1841053
0.16439501
0.14635349
0.13148671
0.12097482
0.11538195
0.1146038
0.11800627
0.12463102
0.13341311
0.14333781
0.15349199
0.16318706
0.17168779
0.17884371
0.18341957
0.18655737
0.18108981
0.070488018
-0.16870336
-0.52097192
-0.61083464
-0.5998744
-0.36825883
0.0077774612
-0.0005491976
0.19531311
0.18270488
0.14167891
0.16300552
0.20677451
0.22218406
0.18768077
0.1227201
0.16980686
0.22889747
0.29494525
0.35072282
0.36458364
0.35264882
0.33192881
0.3094605
0.28751937
0.26690318
0.24756162
0.22876609
0.20956615
0.18938539
0.1685314
0.1482377
0.13024305
0.11619037
0.10715966
0.1034741
0.10475702
0.11014907
0.1185446
0.12880836
0.13991265
0.15097109
0.16133786
0.17033102
0.17783566
0.18264741
0.18594535
0.16626699
0.15745022
0.055879835
-0.1537013
-0.46139066
-0.53800706
-0.50160951
-0.30877579
0.016265964
-0.0066000551
0.14904618
0.095912249
0.12225278
0.18322401
0.20744112
0.172496
0.093110743
0.12130983
0.20242543
0.27687346
0.34855548
0.37033369
0.35932858
0.33806118
0.31457431
0.29180229
0.27068458
0.2513925
0.2332339
0.21494305
0.19535391
0.17413863
0.15218506
0.13130835
0.11357674
0.10065232
0.093406109
0.091855399
0.095332263
0.10276342
0.11291857
0.12461538
0.13683501
0.14873635
0.15972472
0.16916765
0.17698036
0.18199643
0.18544731
0.10677307
0.13587669
0.13046071
0.038175553
-0.15026289
-0.4126808
-0.48752704
-0.41862084
-0.25671449
0.022608673
-0.010728189
0.043318227
0.072168256
0.15246117
0.18930816
0.15545192
0.063397549
0.071554491
0.15441572
0.25512853
0.34445468
0.37364373
0.36548549
0.34271114
0.3185218
0.29500592
0.27336108
0.25408753
0.23668059
0.21974529
0.20152445
0.18089097
0.15811293
0.13486027
0.11352431
0.096375951
0.084950031
0.07980382
0.08060146
0.086381148
0.095875799
0.10775705
0.12082379
0.13409209
0.14678023
0.15833987
0.16818033
0.17625692
0.18145444
0.18505299
-0.015121887
0.057398775
0.1044421
0.10151858
0.018703854
-0.15088562
-0.37320438
-0.44447075
-0.3574735
-0.21424499
0.026932012
-0.012446855
0.015757248
0.11423589
0.16679996
0.13527628
0.03146004
0.018348697
0.10285625
0.22064084
0.32789335
0.37515914
0.36744673
0.34561537
0.32074537
0.29680054
0.27464816
0.25529867
0.23866813
0.22340434
0.20731019
0.18831954
0.16579603
0.14096378
0.11636297
0.094845137
0.078701058
0.06918491
0.066452739
0.069789392
0.07795044
0.089502914
0.1030555
0.11742368
0.13167973
0.14509745
0.15716229
0.16733783
0.17564944
0.18102545
0.18474628
-0.044584913
-0.07829036
0.0050750992
0.072223152
0.071945597
-0.0016918697
-0.15292268
-0.34051686
-0.40040766
-0.30957755
-0.18007564
0.028251442
-0.012971456
0.067705832
0.13949009
0.11042805
-0.00065296948
-0.035763375
0.04291039
0.17770302
0.30064054
0.36104807
0.36904249
0.34474789
0.32088031
0.29677048
0.2742587
0.2547426
0.23874876
0.22533512
0.21202822
0.19581776
0.1748494
0.1495483
0.12233485
0.096547712
0.075286721
0.060653201
0.053480217
0.053460389
0.059492916
0.070075347
0.083650172
0.098809553
0.11441636
0.12959651
0.14366251
0.15614842
0.16661802
0.17516928
0.18075124
0.18451639
0.016573912
-0.10832919
-0.14223719
-0.046781905
0.041005663
0.04418451
-0.021786956
-0.15500002
-0.31082063
-0.35985871
-0.26977677
-0.14958645
0.028127824
-0.013485906
0.10833642
0.080194642
-0.029474277
-0.087443984
-0.019539641
0.12675102
0.26207627
0.34039759
0.35718213
0.34239657
0.31773049
0.29471317
0.27191114
0.25210814
0.23657394
0.22492702
0.21492259
0.20263454
0.18472497
0.16038276
0.13156694
0.10191762
0.075345395
0.054928582
0.042372983
0.037977428
0.040934859
0.049773176
0.062776874
0.07832275
0.095029075
0.11180638
0.12781209
0.14241575
0.15526873
0.16605302
0.17493308
0.18057475
0.18437363
0.076234896
-0.03569173
-0.17208491
-0.20544934
-0.095267101
0.013310767
0.021021484
-0.039662616
-0.15564477
-0.28498062
-0.32564997
-0.24205071
-0.12019236
0.026918192
-0.012951135
0.047137065
-0.053208664
-0.134046
-0.080056885
0.071109255
0.21460314
0.30730565
0.34148762
0.33173708
0.31302204
0.28980841
0.26747484
0.24722601
0.23171968
0.22165585
0.21517313
0.20788011
0.19468969
0.17306309
0.14403999
0.11130462
0.079501122
0.052780269
0.033915316
0.024036338
0.022826471
0.028972209
0.040674423
0.056075477
0.073543508
0.091727491
0.10955835
0.12624758
0.14131836
0.15457938
0.16589161
0.17482588
0.18048547
0.18432126
0.014663932
0.047573691
-0.084875654
-0.23120281
-0.26022252
-0.13846823
-0.0091851945
0.0031698781
-0.053912725
-0.1552065
-0.26511616
-0.29844459
-0.22340151
-0.098319235
0.023107185
-0.011789067
-0.072990301
-0.17312479
-0.13525385
0.016295065
0.15850197
0.2624473
0.31081784
0.31964176
0.30288908
0.28349605
0.26044821
0.23989138
0.22408751
0.21487258
0.21195529
0.21054661
0.20382049
0.18697833
0.15956932
0.12493874
0.088332125
0.055005251
0.028977161
0.012452522
0.005841462
0.0081687466
0.017649781
0.032240326
0.050013337
0.069339079
0.088864836
0.10757032
0.1248529
0.14045961
0.15449483
0.16591944
0.17480652
0.18047938
0.18436004
-0.088915204
-0.014028944
0.025361825
-0.12731654
-0.28055281
-0.30408803
-0.17464822
-0.0261021
-0.0089751813
-0.065324078
-0.15460958
-0.24901332
-0.2756785
-0.20516448
-0.08495797
0.016634109
-0.010268709
-0.20187155
-0.18097836
-0.035984768
0.09678116
0.20781823
0.26697778
0.29007618
0.29571904
0.27386319
0.25196822
0.22996392
0.21319511
0.20441904
0.20428289
0.20947155
0.21102382
0.20130343
0.17776047
0.14290407
0.10233154
0.062397141
0.028497663
0.0041587237
-0.0092095648
-0.01201372
-0.005873146
0.0070451538
0.024541151
0.044636491
0.06566618
0.08631243
0.105779
0.12375802
0.14047549
0.15467776
0.1660373
0.17486728
0.18055832
0.18448799
-0.21807691
-0.097370422
-0.036131928
0.0064742457
-0.16016254
-0.31584457
-0.33448239
-0.20280258
-0.039207431
-0.015668309
-0.074334015
-0.15402896
-0.23605666
-0.25400491
-0.18536381
-0.075230311
0.010672878
-0.0085776144
-0.21274864
-0.084384175
0.038422402
0.14747668
0.21251952
0.24470206
0.27412188
0.26938878
0.2419385
0.21803196
0.19943563
0.18928758
0.19165007
0.20333488
0.214903
0.21499917
0.19800494
0.16508624
0.12187278
0.075704144
0.033456352
0.00019475226
-0.021374037
-0.030805746
-0.029346814
-0.019173812
-0.0027312085
0.017651086
0.039900936
0.062365974
0.083991767
0.10436557
0.12387695
0.14086562
0.15495642
0.1662285
0.17501267
0.18072379
0.18470062
-0.22729649
-0.21860076
-0.09902354
-0.043658089
-0.01274442
-0.17879998
-0.33435866
-0.34992112
-0.22184351
-0.051008554
-0.017814808
-0.080314393
-0.15424497
-0.2217643
-0.23252046
-0.16747355
-0.069204206
0.0056427619
-0.0073012513
-0.12090612
-0.0048813533
0.083821638
0.14709556
0.18259136
0.23240279
0.2565837
0.23764081
0.20616335
0.18224974
0.17057748
0.17228085
0.19100352
0.21398099
0.22662346
0.21944949
0.19117022
0.1471478
0.095585109
0.04483001
0.0016830005
-0.029560736
-0.047279904
-0.052077469
-0.045967151
-0.031566382
-0.011564692
0.01152992
0.035614399
0.05934303
0.082146341
0.10459366
0.12450726
0.14135867
0.15530091
0.16650129
0.17524292
0.18097711
0.18499529
-0.13922084
-0.22274652
-0.20506236
-0.092123134
-0.03567276
-0.030949633
-0.18090175
-0.33590534
-0.35015104
-0.22894065
-0.059435781
-0.015884896
-0.084421065
-0.1508616
-0.20698699
-0.21115941
-0.15043581
-0.066179619
-0.00058198711
-0.0067094988
-0.034863149
0.020866548
0.075976048
0.10278452
0.17014512
0.22918547
0.22833766
0.19992325
0.16673771
0.14558352
0.14771128
0.16992234
0.20646348
0.23479129
0.24081041
0.22057865
0.17815872
0.12253762
0.063540193
0.0097868041
-0.032557762
-0.060347048
-0.073207221
-0.072747706
-0.061630398
-0.042878898
-0.019484317
0.0059492931
0.031663067
0.056916588
0.082473093
0.10550931
0.12525208
0.14190712
0.15572442
0.16685566
0.17555872
0.18131819
0.18537515
-0.053408903
-0.13917496
-0.20150108
-0.17742086
-0.073746309
-0.017768285
-0.04366092
-0.16994678
-0.32227259
-0.33761315
-0.22221028
-0.061960166
-0.013943165
-0.082778806
-0.14459408
-0.19116
-0.19019127
-0.13390529
-0.062195577
-0.0066119875
-0.0059580459
-0.033212302
0.0026867139
0.01163375
0.089713406
0.18398764
0.21003709
0.19065527
0.15554216
0.12377471
0.11202984
0.1412724
0.18948616
0.23718979
0.26095704
0.25235507
0.21462488
0.15687503
0.090372327
0.025652336
-0.02907
-0.068766462
-0.091703757
-0.098768203
-0.092467996
-0.076084544
-0.05311808
-0.026756045
0.00077614563
0.028458495
0.057318148
0.083713774
0.1065552
0.1260407
0.14253086
0.15622619
0.16729293
0.17595967
0.18174237
0.18583715
-0.070823608
-0.056915777
-0.12305954
-0.16512375
-0.13813659
-0.043460769
0.0095401331
-0.043412531
-0.15018449
-0.29619065
-0.3076001
-0.20971846
-0.056292933
-0.01274981
-0.077151374
-0.13462358
-0.17408864
-0.16791983
-0.11652575
-0.056735178
-0.010205251
-0.005223398
-0.07111317
-0.088766758
-0.0092498857
0.11966922
0.18075021
0.17521833
0.14343072
0.10268604
0.07928967
0.095861851
0.16337313
0.23128857
0.27702768
0.28573115
0.25592109
0.19859779
0.12593312
0.05032223
-0.017778493
-0.071176324
-0.10636203
-0.12310589
-0.12347766
-0.11087646
-0.089297596
-0.062587343
-0.033531946
-0.0034654971
0.028888724
0.058924313
0.085106515
0.10763119
0.12690156
0.14322831
0.1568081
0.1678126
0.17644526
0.1822513
0.18637994
-0.14055176
-0.088777774
-0.048828309
-0.090903144
-0.11821151
-0.090780236
-0.0032708864
0.047112703
-0.022182942
-0.12106815
-0.255849
-0.28011309
-0.18566477
-0.04752986
-0.010355965
-0.068788836
-0.12153269
-0.15511281
-0.14543038
-0.098521765
-0.050881439
-0.011965779
-0.0054230597
-0.19668824
-0.12360941
0.033804552
0.1387631
0.15223266
0.12751167
0.083961103
0.037892748
0.047790421
0.11723941
0.21649794
0.28725769
0.31798603
0.30147924
0.24735978
0.17048483
0.084673716
0.0025728871
-0.06614927
-0.11582605
-0.1446564
-0.15389339
-0.14682565
-0.12787904
-0.1016075
-0.071456176
-0.039149883
-0.003082667
0.030895799
0.060712227
0.086514742
0.10877671
0.12783178
0.1440023
0.15746933
0.16841409
0.17701589
0.18284714
0.18700096
-0.30256683
-0.19930405
-0.089053182
-0.029858089
-0.047911268
-0.063847326
-0.037523553
0.042718074
0.093118476
0.014696574
-0.084442226
-0.22028291
-0.23943426
-0.1596419
-0.036287055
-0.0064320575
-0.058013921
-0.10664592
-0.13358489
-0.12283957
-0.08331741
-0.044683243
-0.012866189
-0.0052871885
-0.24511608
-0.067293845
0.083800509
0.12126647
0.10565191
0.06419604
0.0034534659
-0.029141137
0.056824955
0.18141343
0.29370335
0.34905467
0.3487759
0.30269421
0.22391552
0.12922251
0.033100401
-0.052273782
-0.11863591
-0.16214621
-0.18277224
-0.18336073
-0.16862426
-0.14384102
-0.11319703
-0.07889128
-0.038930811
-0.00064586245
0.03312541
0.062501044
0.08799154
0.10998734
0.12883532
0.14485173
0.15820914
0.16909888
0.17767606
0.18352806
0.18769929
-0.36600455
-0.39619296
-0.23961307
-0.076974832
0.0001120034
0.0010150249
-0.0077452926
0.018037007
0.088973608
0.14306623
0.057295833
-0.056844134
-0.17583293
-0.1948123
-0.1305698
-0.0242733
-0.0019824858
-0.046219836
-0.089134379
-0.11173147
-0.10094139
-0.06968715
-0.037985559
-0.012586457
-0.0046525279
-0.17510715
0.016812221
0.082234223
0.078240428
0.039157504
-0.02893677
-0.10224606
-0.058317489
0.12154396
0.27916431
0.37422769
0.39819244
0.36220155
0.28581111
0.1841044
0.074565538
-0.028240826
-0.11329856
-0.17416765
-0.20899866
-0.21975162
-0.21118414
-0.1892532
-0.158951
-0.12302064
-0.079007144
-0.036046817
0.0020690525
0.035343329
0.064360528
0.089530553
0.11126856
0.12991063
0.14577581
0.15903022
0.16987801
0.17841947
0.18429039
0.1884735
-0.27992548
-0.47419535
-0.46529225
-0.26345148
-0.05573249
0.034353441
0.051339907
0.047702435
0.074033805
0.13430271
0.18455611
0.10099711
-0.026464625
-0.12805993
-0.14561782
-0.10109396
-0.011369951
0.0028622175
-0.035546061
-0.071467177
-0.090123869
-0.081877749
-0.057139737
-0.031406363
-0.011313708
-0.003744122
-0.057752831
0.036578953
0.046189701
0.0095355123
-0.06410164
-0.17493941
-0.18517212
-0.01144462
0.23479055
0.3904309
0.44429625
0.42704111
0.35405649
0.24905462
0.12737689
0.006939837
-0.098377709
-0.17923618
-0.2313064
-0.25510788
-0.25508053
-0.23773759
-0.20889515
-0.1718995
-0.12371705
-0.075676481
-0.032808391
0.0047643488
0.037639365
0.066281871
0.091139178
0.11261837
0.13105683
0.146779
0.15995117
0.170742
0.1792418
0.18513139
0.18932231
-0.12782307
-0.37276601
-0.55414942
-0.50600474
-0.2708685
-0.031124011
0.069899934
0.099843619
0.10091703
0.12742064
0.17171667
0.22916291
0.13276262
0.0089489194
-0.079507974
-0.092629395
-0.07052735
0.00084771853
0.0075351404
-0.025381631
-0.056196402
-0.071125346
-0.064882662
-0.045469424
-0.024989016
-0.0093363231
-0.0027753521
-0.012412249
0.011102604
-0.021707932
-0.10341989
-0.24750746
-0.32474682
-0.16558708
0.10764003
0.37625028
0.48971514
0.49000985
0.43079456
0.32239388
0.19145963
0.053957353
-0.072693052
-0.175875
-0.24832175
-0.28838959
-0.29970314
-0.28909935
-0.26318086
-0.2259111
-0.17352127
-0.11996463
-0.071886517
-0.029588454
0.0075536602
0.040001591
0.068274842
0.092814926
0.11403585
0.13228043
0.14789013
0.16095757
0.17168349
0.1801403
0.18604887
0.19024346
-0.058522944
-0.19234894
-0.44049716
-0.59710757
-0.51482096
-0.26012287
-0.005542319
0.10310374
0.1415421
0.14639379
0.15287107
0.21903852
0.25062395
0.16417905
0.04470904
-0.029144762
-0.041584492
-0.036364947
0.012351645
0.012963482
-0.01555699
-0.041875806
-0.054199768
-0.049554421
-0.03460464
-0.018722148
-0.0067251325
-0.0017230251
-0.023835206
-0.052090404
-0.14313487
-0.32229208
-0.48155798
-0.37052016
-0.059382786
0.28134954
0.50518587
0.55759521
0.5051967
0.40516542
0.2654045
0.11293499
-0.035296496
-0.16278281
-0.2586355
-0.31843853
-0.34431234
-0.34305456
-0.32192205
-0.28546188
-0.22893066
-0.16940624
-0.1156099
-0.06809864
-0.026245801
0.010420979
0.042442535
0.070336368
0.094556857
0.11553014
0.13362303
0.14908871
0.16203862
0.17269847
0.18111365
0.18704045
0.19123333
-0.052400894
-0.094814892
-0.2420684
-0.4717796
-0.59746657
-0.49303035
-0.23337325
0.019092228
0.13105729
0.17357625
0.18369917
0.19829056
0.24898193
0.27007313
0.19411077
0.07876476
0.019121033
0.0021005328
-0.00084511197
0.023531
0.019098719
-0.0060049396
-0.028531315
-0.038871813
-0.035690384
-0.024523603
-0.012616062
-0.0038161206
-0.00065289135
-0.080753658
-0.17428097
-0.39746746
-0.62476056
-0.59164327
-0.27479154
0.13075423
0.46077588
0.59614281
0.58949923
0.48541752
0.34971494
0.18279826
0.014134417
-0.13881506
-0.2609274
-0.34403215
-0.38805927
-0.39922785
-0.38520151
-0.35097866
-0.29051395
-0.22455841
-0.16449533
-0.11121688
-0.064140445
-0.022801884
0.013381947
0.044958363
0.072465516
0.096377284
0.11715861
0.13505664
0.1503592
0.16318945
0.1737861
0.18216058
0.18810189
0.19229244
-0.097606227
-0.069464275
-0.11380352
-0.26096219
-0.4606413
-0.55744826
-0.44534266
-0.19614026
0.040601725
0.15353108
0.1993287
0.21967578
0.23043246
0.2785373
0.29066919
0.21910109
0.11010885
0.059181378
0.036263197
0.027606595
0.034690707
0.025690451
0.0033304642
-0.016027357
-0.024946601
-0.023140347
-0.015186451
-0.0067233118
-0.00075969024
0.00036558561
-0.19749968
-0.46062089
-0.73986029
-0.79486336
-0.49530237
-0.038926727
0.36713168
0.59783317
0.64885645
0.58458737
0.43515086
0.26414181
0.075003201
-0.10346856
-0.25396751
-0.36396571
-0.43002192
-0.45716199
-0.45306492
-0.42292463
-0.35890208
-0.28604936
-0.2191296
-0.15946924
-0.10657903
-0.060040869
-0.019237841
0.016431605
0.047548124
0.074678352
0.098352944
0.11888407
0.13655983
0.15169536
0.16441038
0.17494629
0.18327545
0.18922661
0.19342668
-0.21385902
-0.098752314
-0.070464497
-0.10981411
-0.24491865
-0.41105577
-0.48601303
-0.37872127
-0.15363451
0.061709122
0.17258244
0.22431578
0.24852935
0.27430675
0.30399425
0.30662318
0.23737063
0.13809823
0.089706357
0.06418918
0.049404333
0.045226772
0.032653045
0.012440476
-0.0043344596
-0.012282163
-0.011767998
-0.0065749172
-0.001121132
0.0023116583
0.0013564743
-0.47960955
-0.81669255
-0.95832253
-0.70047761
-0.2193182
0.24310776
0.55524707
0.68985117
0.66316491
0.53713466
0.34858316
0.14804705
-0.056773075
-0.2371191
-0.3770833
-0.46926599
-0.51634622
-0.52552344
-0.50179047
-0.43481451
-0.35458406
-0.28018005
-0.21345555
-0.15408601
-0.10173573
-0.055778088
-0.015560406
0.019568869
0.050232341
0.077075117
0.10043553
0.12067789
0.13812472
0.15309881
0.16570357
0.1761719
0.18444553
0.1904113
0.19463937
-0.45366353
-0.20611533
-0.081942212
-0.051134232
-0.087866857
-0.19834399
-0.33351446
-0.3928082
-0.2996367
-0.10457912
0.085759545
0.19501625
0.24506786
0.27385942
0.2996184
0.32278167
0.31533971
0.24856564
0.16277796
0.11442951
0.085397854
0.066227315
0.054822868
0.039793196
0.021294088
0.0065686147
-0.00076937517
-0.0014741368
0.0013188484
0.0041263396
0.0051353566
0.002263192
-0.83602804
-1.059136
-0.86541609
-0.39939122
0.093695185
0.47246217
0.69050232
0.73961465
0.63353645
0.44991986
0.22536315
0.0020217731
-0.20985926
-0.38270202
-0.50490514
-0.57628351
-0.60260054
-0.58810409
-0.51904425
-0.43097445
-0.34840053
-0.27386073
-0.2072603
-0.14839961
-0.096662936
-0.051361688
-0.011771147
0.022819445
0.053139688
0.07959413