/*--------------------------------*- C++ -*----------------------------------*\
| =========                 |                                                 |
| \\      /  F ield         | OpenFOAM: The Open Source CFD Toolbox           |
|  \\    /   O peration     | Version:  v2012                                 |
|   \\  /    A nd           | Website:  www.openfoam.com                      |
|    \\/     M anipulation  |                                                 |
\*---------------------------------------------------------------------------*/
FoamFile
{
    version     2.0;
    format      ascii;
    class       pointVectorField;
    location    "83.4506707643468246";
    object      pointDisplacement;
}
// * * * * * * * * * * * * * * * * * * * * * * * * * * * * * * * * * * * * * //

dimensions      [0 1 0 0 0 0 0];


internalField   nonuniform List<vector> 
18840
(
(-0.29157711 -0 -0)
(-0.29165776 0 0)
(-0.29189778 0 0)
(-0.29229356 0 0)
(-0.29284224 0 0)
(-0.29354099 0 0)
(-0.29438755 0 0)
(-0.29537969 0 0)
(-0.29651553 0 0)
(-0.29779319 0 0)
(-0.299211 0 0)
(-0.30076726 0 0)
(-0.30246033 0 0)
(-0.30428859 0 0)
(-0.30625037 0 0)
(-0.30834409 0 0)
(-0.31056792 0 0)
(-0.31292003 0 0)
(-0.31539786 0 0)
(-0.31799715 0 0)
(-0.32123688 0 0)
(-0.29157711 -0 -0)
(-0.29165677 0 0)
(-0.29189386 0 0)
(-0.29228494 0 0)
(-0.29282706 0 0)
(-0.29351764 0 0)
(-0.29435419 0 0)
(-0.29533465 0 0)
(-0.29645702 0 0)
(-0.29771958 0 0)
(-0.29912052 0 0)
(-0.30065827 0 0)
(-0.3023311 0 0)
(-0.30413746 0 0)
(-0.30607569 0 0)
(-0.3081442 0 0)
(-0.3103413 0 0)
(-0.31266518 0 0)
(-0.31511374 0 0)
(-0.3176839 0 0)
(-0.32032089 0 0)
(-0.29157711 -0 -0)
(-0.29165583 0 0)
(-0.29189013 0 0)
(-0.29227663 0 0)
(-0.29281248 0 0)
(-0.29349502 0 0)
(-0.29432183 0 0)
(-0.29529073 0 0)
(-0.29639981 0 0)
(-0.29764722 0 0)
(-0.29903124 0 0)
(-0.30055012 0 0)
(-0.30220221 0 0)
(-0.30398582 0 0)
(-0.30589932 0 0)
(-0.30794101 0 0)
(-0.31010927 0 0)
(-0.31240235 0 0)
(-0.31481857 0 0)
(-0.31735622 0 0)
(-0.31999593 0 0)
(-0.29157711 -0 -0)
(-0.29165478 0 0)
(-0.29188597 0 0)
(-0.29226737 0 0)
(-0.29279617 0 0)
(-0.29346973 0 0)
(-0.2942856 0 0)
(-0.29524159 0 0)
(-0.29633576 0 0)
(-0.29756621 0 0)
(-0.29893116 0 0)
(-0.30042879 0 0)
(-0.30205737 0 0)
(-0.30381507 0 0)
(-0.30570018 0 0)
(-0.30771085 0 0)
(-0.30984529 0 0)
(-0.31210159 0 0)
(-0.31447787 0 0)
(-0.31697204 0 0)
(-0.31959609 0 0)
(-0.29157711 -0 -0)
(-0.29165363 0 0)
(-0.29188141 0 0)
(-0.29225723 0 0)
(-0.2927783 0 0)
(-0.29344202 0 0)
(-0.29424592 0 0)
(-0.2951878 0 0)
(-0.29626567 0 0)
(-0.29747755 0 0)
(-0.2988216 0 0)
(-0.30029588 0 0)
(-0.30189855 0 0)
(-0.30362762 0 0)
(-0.30548118 0 0)
(-0.30745717 0 0)
(-0.30955355 0 0)
(-0.3117681 0 0)
(-0.31409855 0 0)
(-0.31654234 0 0)
(-0.31914026 0 0)
(-0.29157711 -0 -0)
(-0.29165239 0 0)
(-0.2918765 0 0)
(-0.2922463 0 0)
(-0.29275903 0 0)
(-0.29341216 0 0)
(-0.29420319 0 0)
(-0.29512991 0 0)
(-0.29619026 0 0)
(-0.29738222 0 0)
(-0.29870381 0 0)
(-0.300153 0 0)
(-0.30172776 0 0)
(-0.30342595 0 0)
(-0.30524543 0 0)
(-0.30718389 0 0)
(-0.30923899 0 0)
(-0.31140814 0 0)
(-0.31368873 0 0)
(-0.31607766 0 0)
(-0.31864158 0 0)
(-0.29157711 -0 -0)
(-0.29165107 0 0)
(-0.29187127 0 0)
(-0.29223464 0 0)
(-0.29273852 0 0)
(-0.29338035 0 0)
(-0.29415775 0 0)
(-0.29506839 0 0)
(-0.29611022 0 0)
(-0.29728109 0 0)
(-0.29857896 0 0)
(-0.30000162 0 0)
(-0.30154694 0 0)
(-0.30321253 0 0)
(-0.30499607 0 0)
(-0.30689496 0 0)
(-0.30890655 0 0)
(-0.31102796 0 0)
(-0.31325613 0 0)
(-0.31558766 0 0)
(-0.31811131 0 0)
(-0.29157711 -0 -0)
(-0.29164968 0 0)
(-0.29186576 0 0)
(-0.29222236 0 0)
(-0.29271689 0 0)
(-0.29334684 0 0)
(-0.29410987 0 0)
(-0.29500364 0 0)
(-0.29602605 0 0)
(-0.29717488 0 0)
(-0.29844798 0 0)
(-0.29984302 0 0)
(-0.30135768 0 0)
(-0.30298944 0 0)
(-0.30473571 0 0)
(-0.30659369 0 0)
(-0.30856041 0 0)
(-0.31063272 0 0)
(-0.31280719 0 0)
(-0.31508012 0 0)
(-0.31755872 0 0)
(-0.29157711 -0 -0)
(-0.29164822 0 0)
(-0.29185999 0 0)
(-0.29220952 0 0)
(-0.29269427 0 0)
(-0.29331183 0 0)
(-0.29405984 0 0)
(-0.29493606 0 0)
(-0.29593826 0 0)
(-0.29706424 0 0)
(-0.29831168 0 0)
(-0.29967821 0 0)
(-0.3011613 0 0)
(-0.30275833 0 0)
(-0.30446644 0 0)
(-0.30628268 0 0)
(-0.30820379 0 0)
(-0.31022638 0 0)
(-0.31234676 0 0)
(-0.3145609 0 0)
(-0.31699082 0 0)
(-0.29157711 -0 -0)
(-0.29164671 0 0)
(-0.291854 0 0)
(-0.29219619 0 0)
(-0.29267082 0 0)
(-0.29327555 0 0)
(-0.29400805 0 0)
(-0.29486612 0 0)
(-0.29584748 0 0)
(-0.2969499 0 0)
(-0.29817101 0 0)
(-0.29950833 0 0)
(-0.30095921 0 0)
(-0.30252088 0 0)
(-0.30419034 0 0)
(-0.30596442 0 0)
(-0.30783969 0 0)
(-0.30981252 0 0)
(-0.31187903 0 0)
(-0.31403497 0 0)
(-0.31641322 0 0)
(-0.29157711 -0 -0)
(-0.29164528 0 0)
(-0.29184837 0 0)
(-0.29218366 0 0)
(-0.29264876 0 0)
(-0.29324135 0 0)
(-0.2939592 0 0)
(-0.29480004 0 0)
(-0.29576162 0 0)
(-0.29684165 0 0)
(-0.29803771 0 0)
(-0.29934723 0 0)
(-0.30076747 0 0)
(-0.30229553 0 0)
(-0.30392824 0 0)
(-0.30566229 0 0)
(-0.30749404 0 0)
(-0.30941971 0 0)
(-0.31143518 0 0)
(-0.31353613 0 0)
(-0.31586162 0 0)
(-0.29157711 -0 -0)
(-0.29165776 0 0)
(-0.29189778 0 0)
(-0.29229356 0 0)
(-0.29284224 0 0)
(-0.29354099 0 0)
(-0.29438755 0 0)
(-0.29537969 0 0)
(-0.29651553 0 0)
(-0.29779319 0 0)
(-0.299211 0 0)
(-0.30076726 0 0)
(-0.30246033 0 0)
(-0.30428859 0 0)
(-0.30625037 0 0)
(-0.30834409 0 0)
(-0.31056792 0 0)
(-0.31292003 0 0)
(-0.31539786 0 0)
(-0.31799715 0 0)
(-0.32123688 0 0)
(-0.29157711 -0 -0)
(-0.29165677 0 0)
(-0.29189386 0 0)
(-0.29228494 0 0)
(-0.29282706 0 0)
(-0.29351764 0 0)
(-0.29435419 0 0)
(-0.29533465 0 0)
(-0.29645702 0 0)
(-0.29771958 0 0)
(-0.29912052 0 0)
(-0.30065827 0 0)
(-0.3023311 0 0)
(-0.30413746 0 0)
(-0.30607569 0 0)
(-0.3081442 0 0)
(-0.3103413 0 0)
(-0.31266518 0 0)
(-0.31511374 0 0)
(-0.3176839 0 0)
(-0.32032089 0 0)
(-0.29157711 -0 -0)
(-0.29165583 0 0)
(-0.29189013 0 0)
(-0.29227663 0 0)
(-0.29281248 0 0)
(-0.29349502 0 0)
(-0.29432183 0 0)
(-0.29529073 0 0)
(-0.29639981 0 0)
(-0.29764722 0 0)
(-0.29903124 0 0)
(-0.30055012 0 0)
(-0.30220221 0 0)
(-0.30398582 0 0)
(-0.30589932 0 0)
(-0.30794101 0 0)
(-0.31010927 0 0)
(-0.31240235 0 0)
(-0.31481857 0 0)
(-0.31735622 0 0)
(-0.31999593 0 0)
(-0.29157711 -0 -0)
(-0.29165478 0 0)
(-0.29188597 0 0)
(-0.29226737 0 0)
(-0.29279617 0 0)
(-0.29346973 0 0)
(-0.2942856 0 0)
(-0.29524159 0 0)
(-0.29633576 0 0)
(-0.29756621 0 0)
(-0.29893116 0 0)
(-0.30042879 0 0)
(-0.30205737 0 0)
(-0.30381507 0 0)
(-0.30570018 0 0)
(-0.30771085 0 0)
(-0.30984529 0 0)
(-0.31210159 0 0)
(-0.31447787 0 0)
(-0.31697204 0 0)
(-0.31959609 0 0)
(-0.29157711 -0 -0)
(-0.29165363 0 0)
(-0.29188141 0 0)
(-0.29225723 0 0)
(-0.2927783 0 0)
(-0.29344202 0 0)
(-0.29424592 0 0)
(-0.2951878 0 0)
(-0.29626567 0 0)
(-0.29747755 0 0)
(-0.2988216 0 0)
(-0.30029588 0 0)
(-0.30189855 0 0)
(-0.30362762 0 0)
(-0.30548118 0 0)
(-0.30745717 0 0)
(-0.30955355 0 0)
(-0.3117681 0 0)
(-0.31409855 0 0)
(-0.31654234 0 0)
(-0.31914026 0 0)
(-0.29157711 -0 -0)
(-0.29165239 0 0)
(-0.2918765 0 0)
(-0.2922463 0 0)
(-0.29275903 0 0)
(-0.29341216 0 0)
(-0.29420319 0 0)
(-0.29512991 0 0)
(-0.29619026 0 0)
(-0.29738222 0 0)
(-0.29870381 0 0)
(-0.300153 0 0)
(-0.30172776 0 0)
(-0.30342595 0 0)
(-0.30524543 0 0)
(-0.30718389 0 0)
(-0.30923899 0 0)
(-0.31140814 0 0)
(-0.31368873 0 0)
(-0.31607766 0 0)
(-0.31864158 0 0)
(-0.29157711 -0 -0)
(-0.29165107 0 0)
(-0.29187127 0 0)
(-0.29223464 0 0)
(-0.29273852 0 0)
(-0.29338035 0 0)
(-0.29415775 0 0)
(-0.29506839 0 0)
(-0.29611022 0 0)
(-0.29728109 0 0)
(-0.29857896 0 0)
(-0.30000162 0 0)
(-0.30154694 0 0)
(-0.30321253 0 0)
(-0.30499607 0 0)
(-0.30689496 0 0)
(-0.30890655 0 0)
(-0.31102796 0 0)
(-0.31325613 0 0)
(-0.31558766 0 0)
(-0.31811131 0 0)
(-0.29157711 -0 -0)
(-0.29164968 0 0)
(-0.29186576 0 0)
(-0.29222236 0 0)
(-0.29271689 0 0)
(-0.29334684 0 0)
(-0.29410987 0 0)
(-0.29500364 0 0)
(-0.29602605 0 0)
(-0.29717488 0 0)
(-0.29844798 0 0)
(-0.29984302 0 0)
(-0.30135768 0 0)
(-0.30298944 0 0)
(-0.30473571 0 0)
(-0.30659369 0 0)
(-0.30856041 0 0)
(-0.31063272 0 0)
(-0.31280719 0 0)
(-0.31508012 0 0)
(-0.31755872 0 0)
(-0.29157711 -0 -0)
(-0.29164822 0 0)
(-0.29185999 0 0)
(-0.29220952 0 0)
(-0.29269427 0 0)
(-0.29331183 0 0)
(-0.29405984 0 0)
(-0.29493606 0 0)
(-0.29593826 0 0)
(-0.29706424 0 0)
(-0.29831168 0 0)
(-0.29967821 0 0)
(-0.3011613 0 0)
(-0.30275833 0 0)
(-0.30446644 0 0)
(-0.30628268 0 0)
(-0.30820379 0 0)
(-0.31022638 0 0)
(-0.31234676 0 0)
(-0.3145609 0 0)
(-0.31699082 0 0)
(-0.29157711 -0 -0)
(-0.29164671 0 0)
(-0.291854 0 0)
(-0.29219619 0 0)
(-0.29267082 0 0)
(-0.29327555 0 0)
(-0.29400805 0 0)
(-0.29486612 0 0)
(-0.29584748 0 0)
(-0.2969499 0 0)
(-0.29817101 0 0)
(-0.29950833 0 0)
(-0.30095921 0 0)
(-0.30252088 0 0)
(-0.30419034 0 0)
(-0.30596442 0 0)
(-0.30783969 0 0)
(-0.30981252 0 0)
(-0.31187903 0 0)
(-0.31403497 0 0)
(-0.31641322 0 0)
(-0.29157711 -0 -0)
(-0.29164528 0 0)
(-0.29184837 0 0)
(-0.29218366 0 0)
(-0.29264876 0 0)
(-0.29324135 0 0)
(-0.2939592 0 0)
(-0.29480004 0 0)
(-0.29576162 0 0)
(-0.29684165 0 0)
(-0.29803771 0 0)
(-0.29934723 0 0)
(-0.30076747 0 0)
(-0.30229553 0 0)
(-0.30392824 0 0)
(-0.30566229 0 0)
(-0.30749404 0 0)
(-0.30941971 0 0)
(-0.31143518 0 0)
(-0.31353613 0 0)
(-0.31586162 0 0)
(-0.29157711 -0 -0)
(-0.29166475 0 0)
(-0.29192529 0 0)
(-0.29235428 0 0)
(-0.29294791 0 0)
(-0.29370276 0 0)
(-0.29461571 0 0)
(-0.29568383 0 0)
(-0.29690433 0 0)
(-0.29827451 0 0)
(-0.29979171 0 0)
(-0.30145326 0 0)
(-0.30325648 0 0)
(-0.3051986 0 0)
(-0.30727674 0 0)
(-0.30948789 0 0)
(-0.31182886 0 0)
(-0.31429626 0 0)
(-0.3168864 0 0)
(-0.3195941 0 0)
(-0.32265452 0 0)
(-0.29157711 -0 -0)
(-0.29166438 0 0)
(-0.2919238 0 0)
(-0.29235094 0 0)
(-0.29294198 0 0)
(-0.29369356 0 0)
(-0.29460261 0 0)
(-0.29566624 0 0)
(-0.29688173 0 0)
(-0.29824643 0 0)
(-0.29975776 0 0)
(-0.30141313 0 0)
(-0.30320991 0 0)
(-0.30514539 0 0)
(-0.30721678 0 0)
(-0.30942114 0 0)
(-0.31175535 0 0)
(-0.31421615 0 0)
(-0.31679995 0 0)
(-0.31950171 0 0)
(-0.32255504 0 0)
(-0.29157711 -0 -0)
(-0.29166409 0 0)
(-0.29192265 0 0)
(-0.29234834 0 0)
(-0.29293739 0 0)
(-0.29368645 0 0)
(-0.29459249 0 0)
(-0.2956527 0 0)
(-0.29686441 0 0)
(-0.29822502 0 0)
(-0.29973204 0 0)
(-0.30138293 0 0)
(-0.30317515 0 0)
(-0.30510607 0 0)
(-0.30717298 0 0)
(-0.30937305 0 0)
(-0.31170329 0 0)
(-0.31416054 0 0)
(-0.3167414 0 0)
(-0.31944107 0 0)
(-0.32248539 0 0)
(-0.29157711 -0 -0)
(-0.29166371 0 0)
(-0.29192112 0 0)
(-0.29234496 0 0)
(-0.29293146 0 0)
(-0.29367735 0 0)
(-0.29457967 0 0)
(-0.29563567 0 0)
(-0.29684275 0 0)
(-0.29819841 0 0)
(-0.29970023 0 0)
(-0.30134577 0 0)
(-0.30313259 0 0)
(-0.30505816 0 0)
(-0.3071199 0 0)
(-0.30931512 0 0)
(-0.31164096 0 0)
(-0.31409449 0 0)
(-0.31667247 0 0)
(-0.31937048 0 0)
(-0.32240169 0 0)
(-0.29157711 -0 -0)
(-0.29166322 0 0)
(-0.29191921 0 0)
(-0.29234072 0 0)
(-0.29292407 0 0)
(-0.29366605 0 0)
(-0.29456381 0 0)
(-0.29561468 0 0)
(-0.29681614 0 0)
(-0.2981658 0 0)
(-0.29966132 0 0)
(-0.30130039 0 0)
(-0.30308067 0 0)
(-0.30499978 0 0)
(-0.30705528 0 0)
(-0.30924464 0 0)
(-0.3115652 0 0)
(-0.31401424 0 0)
(-0.31658879 0 0)
(-0.3192848 0 0)
(-0.32229827 0 0)
(-0.29157711 -0 -0)
(-0.29166262 0 0)
(-0.29191686 0 0)
(-0.29233554 0 0)
(-0.29291504 0 0)
(-0.29365226 0 0)
(-0.29454445 0 0)
(-0.29558906 0 0)
(-0.29678366 0 0)
(-0.29812596 0 0)
(-0.29961374 0 0)
(-0.3012448 0 0)
(-0.30301695 0 0)
(-0.30492794 0 0)
(-0.30697551 0 0)
(-0.30915731 0 0)
(-0.31147091 0 0)
(-0.31391382 0 0)
(-0.31648338 0 0)
(-0.319176 0 0)
(-0.32216627 0 0)
(-0.29157711 -0 -0)
(-0.29166191 0 0)
(-0.29191403 0 0)
(-0.2923293 0 0)
(-0.29290416 0 0)
(-0.29363565 0 0)
(-0.29452109 0 0)
(-0.29555808 0 0)
(-0.29674427 0 0)
(-0.2980775 0 0)
(-0.29955564 0 0)
(-0.30117664 0 0)
(-0.30293844 0 0)
(-0.30483894 0 0)
(-0.30687608 0 0)
(-0.30904765 0 0)
(-0.31135154 0 0)
(-0.3137854 0 0)
(-0.31634709 0 0)
(-0.31903336 0 0)
(-0.32199412 0 0)
(-0.29157711 -0 -0)
(-0.29166105 0 0)
(-0.29191068 0 0)
(-0.2923219 0 0)
(-0.29289129 0 0)
(-0.293616 0 0)
(-0.29449347 0 0)
(-0.29552139 0 0)
(-0.29669748 0 0)
(-0.29801974 0 0)
(-0.29948611 0 0)
(-0.30109472 0 0)
(-0.30284359 0 0)
(-0.30473082 0 0)
(-0.30675448 0 0)
(-0.30891256 0 0)
(-0.31120316 0 0)
(-0.31362418 0 0)
(-0.3161738 0 0)
(-0.31884939 0 0)
(-0.3217726 0 0)
(-0.29157711 -0 -0)
(-0.29166006 0 0)
(-0.29190677 0 0)
(-0.29231329 0 0)
(-0.29287641 0 0)
(-0.2935933 0 0)
(-0.29446155 0 0)
(-0.29547886 0 0)
(-0.29664311 0 0)
(-0.29795236 0 0)
(-0.29940471 0 0)
(-0.30099836 0 0)
(-0.30273148 0 0)
(-0.30460232 0 0)
(-0.30660903 0 0)
(-0.30874984 0 0)
(-0.31102286 0 0)
(-0.31342631 0 0)
(-0.31595835 0 0)
(-0.31861694 0 0)
(-0.32149258 0 0)
(-0.29157711 -0 -0)
(-0.29165892 0 0)
(-0.29190231 0 0)
(-0.2923035 0 0)
(-0.29285954 0 0)
(-0.29356748 0 0)
(-0.29442517 0 0)
(-0.29543018 0 0)
(-0.29658068 0 0)
(-0.29787465 0 0)
(-0.29931043 0 0)
(-0.3008862 0 0)
(-0.30260032 0 0)
(-0.30445105 0 0)
(-0.30643671 0 0)
(-0.30855562 0 0)
(-0.31080595 0 0)
(-0.31318592 0 0)
(-0.31569334 0 0)
(-0.31832531 0 0)
(-0.3211372 0 0)
(-0.29157711 -0 -0)
(-0.29166475 0 0)
(-0.29192529 0 0)
(-0.29235428 0 0)
(-0.29294791 0 0)
(-0.29370276 0 0)
(-0.29461571 0 0)
(-0.29568383 0 0)
(-0.29690433 0 0)
(-0.29827451 0 0)
(-0.29979171 0 0)
(-0.30145326 0 0)
(-0.30325648 0 0)
(-0.3051986 0 0)
(-0.30727674 0 0)
(-0.30948789 0 0)
(-0.31182886 0 0)
(-0.31429626 0 0)
(-0.3168864 0 0)
(-0.3195941 0 0)
(-0.32265452 0 0)
(-0.29157711 -0 -0)
(-0.29166438 0 0)
(-0.2919238 0 0)
(-0.29235094 0 0)
(-0.29294198 0 0)
(-0.29369356 0 0)
(-0.29460261 0 0)
(-0.29566624 0 0)
(-0.29688173 0 0)
(-0.29824643 0 0)
(-0.29975776 0 0)
(-0.30141313 0 0)
(-0.30320991 0 0)
(-0.30514539 0 0)
(-0.30721678 0 0)
(-0.30942114 0 0)
(-0.31175535 0 0)
(-0.31421615 0 0)
(-0.31679995 0 0)
(-0.31950171 0 0)
(-0.32255504 0 0)
(-0.29157711 -0 -0)
(-0.29166409 0 0)
(-0.29192265 0 0)
(-0.29234834 0 0)
(-0.29293739 0 0)
(-0.29368645 0 0)
(-0.29459249 0 0)
(-0.2956527 0 0)
(-0.29686441 0 0)
(-0.29822502 0 0)
(-0.29973204 0 0)
(-0.30138293 0 0)
(-0.30317515 0 0)
(-0.30510607 0 0)
(-0.30717298 0 0)
(-0.30937305 0 0)
(-0.31170329 0 0)
(-0.31416054 0 0)
(-0.3167414 0 0)
(-0.31944107 0 0)
(-0.32248539 0 0)
(-0.29157711 -0 -0)
(-0.29166371 0 0)
(-0.29192112 0 0)
(-0.29234496 0 0)
(-0.29293146 0 0)
(-0.29367735 0 0)
(-0.29457967 0 0)
(-0.29563567 0 0)
(-0.29684275 0 0)
(-0.29819841 0 0)
(-0.29970023 0 0)
(-0.30134577 0 0)
(-0.30313259 0 0)
(-0.30505816 0 0)
(-0.3071199 0 0)
(-0.30931512 0 0)
(-0.31164096 0 0)
(-0.31409449 0 0)
(-0.31667247 0 0)
(-0.31937048 0 0)
(-0.32240169 0 0)
(-0.29157711 -0 -0)
(-0.29166322 0 0)
(-0.29191921 0 0)
(-0.29234072 0 0)
(-0.29292407 0 0)
(-0.29366605 0 0)
(-0.29456381 0 0)
(-0.29561468 0 0)
(-0.29681614 0 0)
(-0.2981658 0 0)
(-0.29966132 0 0)
(-0.30130039 0 0)
(-0.30308067 0 0)
(-0.30499978 0 0)
(-0.30705528 0 0)
(-0.30924464 0 0)
(-0.3115652 0 0)
(-0.31401424 0 0)
(-0.31658879 0 0)
(-0.3192848 0 0)
(-0.32229827 0 0)
(-0.29157711 -0 -0)
(-0.29166262 0 0)
(-0.29191686 0 0)
(-0.29233554 0 0)
(-0.29291504 0 0)
(-0.29365226 0 0)
(-0.29454445 0 0)
(-0.29558906 0 0)
(-0.29678366 0 0)
(-0.29812596 0 0)
(-0.29961374 0 0)
(-0.3012448 0 0)
(-0.30301695 0 0)
(-0.30492794 0 0)
(-0.30697551 0 0)
(-0.30915731 0 0)
(-0.31147091 0 0)
(-0.31391382 0 0)
(-0.31648338 0 0)
(-0.319176 0 0)
(-0.32216627 0 0)
(-0.29157711 -0 -0)
(-0.29166191 0 0)
(-0.29191403 0 0)
(-0.2923293 0 0)
(-0.29290416 0 0)
(-0.29363565 0 0)
(-0.29452109 0 0)
(-0.29555808 0 0)
(-0.29674427 0 0)
(-0.2980775 0 0)
(-0.29955564 0 0)
(-0.30117664 0 0)
(-0.30293844 0 0)
(-0.30483894 0 0)
(-0.30687608 0 0)
(-0.30904765 0 0)
(-0.31135154 0 0)
(-0.3137854 0 0)
(-0.31634709 0 0)
(-0.31903336 0 0)
(-0.32199412 0 0)
(-0.29157711 -0 -0)
(-0.29166105 0 0)
(-0.29191068 0 0)
(-0.2923219 0 0)
(-0.29289129 0 0)
(-0.293616 0 0)
(-0.29449347 0 0)
(-0.29552139 0 0)
(-0.29669748 0 0)
(-0.29801974 0 0)
(-0.29948611 0 0)
(-0.30109472 0 0)
(-0.30284359 0 0)
(-0.30473082 0 0)
(-0.30675448 0 0)
(-0.30891256 0 0)
(-0.31120316 0 0)
(-0.31362418 0 0)
(-0.3161738 0 0)
(-0.31884939 0 0)
(-0.3217726 0 0)
(-0.29157711 -0 -0)
(-0.29166006 0 0)
(-0.29190677 0 0)
(-0.29231329 0 0)
(-0.29287641 0 0)
(-0.2935933 0 0)
(-0.29446155 0 0)
(-0.29547886 0 0)
(-0.29664311 0 0)
(-0.29795236 0 0)
(-0.29940471 0 0)
(-0.30099836 0 0)
(-0.30273148 0 0)
(-0.30460232 0 0)
(-0.30660903 0 0)
(-0.30874984 0 0)
(-0.31102286 0 0)
(-0.31342631 0 0)
(-0.31595835 0 0)
(-0.31861694 0 0)
(-0.32149258 0 0)
(-0.29157711 -0 -0)
(-0.29165892 0 0)
(-0.29190231 0 0)
(-0.2923035 0 0)
(-0.29285954 0 0)
(-0.29356748 0 0)
(-0.29442517 0 0)
(-0.29543018 0 0)
(-0.29658068 0 0)
(-0.29787465 0 0)
(-0.29931043 0 0)
(-0.3008862 0 0)
(-0.30260032 0 0)
(-0.30445105 0 0)
(-0.30643671 0 0)
(-0.30855562 0 0)
(-0.31080595 0 0)
(-0.31318592 0 0)
(-0.31569334 0 0)
(-0.31832531 0 0)
(-0.3211372 0 0)
(-0.32636035 0 0)
(-0.33046966 0 0)
(-0.33472857 0 0)
(-0.33911977 0 0)
(-0.34362269 0 0)
(-0.34821399 0 0)
(-0.35286521 0 0)
(-0.35754175 0 0)
(-0.36220647 0 0)
(-0.3668233 0 0)
(-0.37135691 0 0)
(-0.37577143 0 0)
(-0.38003253 0 0)
(-0.38410474 0 0)
(-0.38794872 0 0)
(-0.39152142 0 0)
(-0.39478382 0 0)
(-0.39770643 0 0)
(-0.40025128 0 0)
(-0.40238229 0 0)
(-0.40406508 0 0)
(-0.40525885 0 0)
(-0.4059233 0 0)
(-0.40603556 0 0)
(-0.40557218 0 0)
(-0.40448127 0 0)
(-0.40270373 0 0)
(-0.40017873 0 0)
(-0.39687483 0 0)
(-0.39274742 0 0)
(-0.38771008 0 0)
(-0.38169828 0 0)
(-0.37466197 0 0)
(-0.36649262 0 0)
(-0.35707789 0 0)
(-0.34630452 0 0)
(-0.33408261 0 0)
(-0.3204098 0 0)
(-0.30520755 0 0)
(-0.28823528 0 0)
(-0.26939039 0 0)
(-0.24870073 0 0)
(-0.22604547 0 0)
(-0.2012879 0 0)
(-0.1743128 0 0)
(-0.1449087 0 0)
(-0.1128375 0 0)
(-0.077976873 0 0)
(-0.040322282 0 0)
(0 0 0)
(-0.32625124 0 0)
(-0.33035078 0 0)
(-0.33460237 0 0)
(-0.33898887 0 0)
(-0.34349001 0 0)
(-0.34808283 0 0)
(-0.35273956 0 0)
(-0.3574254 0 0)
(-0.36210206 0 0)
(-0.36673231 0 0)
(-0.37128014 0 0)
(-0.37571007 0 0)
(-0.37998779 0 0)
(-0.3840776 0 0)
(-0.38793932 0 0)
(-0.39152998 0 0)
(-0.3948117 0 0)
(-0.39775277 0 0)
(-0.40031366 0 0)
(-0.40245905 0 0)
(-0.40415594 0 0)
(-0.40536325 0 0)
(-0.40603987 0 0)
(-0.40616286 0 0)
(-0.40571069 0 0)
(-0.40463283 0 0)
(-0.40286635 0 0)
(-0.40035048 0 0)
(-0.39705378 0 0)
(-0.39293243 0 0)
(-0.38790021 0 0)
(-0.38189246 0 0)
(-0.37486117 0 0)
(-0.36669486 0 0)
(-0.35728229 0 0)
(-0.34650899 0 0)
(-0.33428232 0 0)
(-0.32060117 0 0)
(-0.30539133 0 0)
(-0.28840894 0 0)
(-0.26955048 0 0)
(-0.2488497 0 0)
(-0.22618132 0 0)
(-0.20140655 0 0)
(-0.17441265 0 0)
(-0.14498924 0 0)
(-0.11289888 0 0)
(-0.078021432 0 0)
(-0.040347586 0 0)
(0 0 0)
(-0.32615867 0 0)
(-0.33023067 0 0)
(-0.33445843 0 0)
(-0.33882508 0 0)
(-0.34331065 0 0)
(-0.34789278 0 0)
(-0.35254435 0 0)
(-0.35723112 0 0)
(-0.36191358 0 0)
(-0.36655297 0 0)
(-0.37111284 0 0)
(-0.37555785 0 0)
(-0.37985369 0 0)
(-0.38396372 0 0)
(-0.38784707 0 0)
(-0.39146136 0 0)
(-0.39476891 0 0)
(-0.39773586 0 0)
(-0.40032175 0 0)
(-0.40249115 0 0)
(-0.40421152 0 0)
(-0.40544205 0 0)
(-0.40614145 0 0)
(-0.40628581 0 0)
(-0.40585469 0 0)
(-0.40480034 0 0)
(-0.40305572 0 0)
(-0.40055859 0 0)
(-0.39727842 0 0)
(-0.39317282 0 0)
(-0.38815462 0 0)
(-0.38215824 0 0)
(-0.37513958 0 0)
(-0.36698381 0 0)
(-0.35757939 0 0)
(-0.3468113 0 0)
(-0.33458426 0 0)
(-0.32089765 0 0)
(-0.30568067 0 0)
(-0.28868828 0 0)
(-0.26981712 0 0)
(-0.24910392 0 0)
(-0.2264171 0 0)
(-0.20161757 0 0)
(-0.17459567 0 0)
(-0.14514091 0 0)
(-0.11301669 0 0)
(-0.078106019 0 0)
(-0.040394521 0 0)
(0 0 0)
(-0.32603876 0 0)
(-0.33006613 0 0)
(-0.33425444 0 0)
(-0.3385872 0 0)
(-0.34304485 0 0)
(-0.34760564 0 0)
(-0.35224334 0 0)
(-0.35692413 0 0)
(-0.3616079 0 0)
(-0.36625418 0 0)
(-0.37082591 0 0)
(-0.37528787 0 0)
(-0.37960533 0 0)
(-0.38374063 0 0)
(-0.387652 0 0)
(-0.3912975 0 0)
(-0.3946396 0 0)
(-0.39764208 0 0)
(-0.40026363 0 0)
(-0.4024687 0 0)
(-0.40422444 0 0)
(-0.40549002 0 0)
(-0.40622411 0 0)
(-0.40640203 0 0)
(-0.40600426 0 0)
(-0.40498484 0 0)
(-0.40327343 0 0)
(-0.40080664 0 0)
(-0.39755393 0 0)
(-0.39347412 0 0)
(-0.38847921 0 0)
(-0.38250308 0 0)
(-0.37550488 0 0)
(-0.36736694 0 0)
(-0.35797768 0 0)
(-0.34722062 0 0)
(-0.33499722 0 0)
(-0.32130755 0 0)
(-0.30608447 0 0)
(-0.28908251 0 0)
(-0.27019833 0 0)
(-0.24947043 0 0)
(-0.22675979 0 0)
(-0.20192695 0 0)
(-0.17486654 0 0)
(-0.1453679 0 0)
(-0.1131945 0 0)
(-0.078232936 0 0)
(-0.040464021 0 0)
(0 0 0)
(-0.32588583 0 0)
(-0.32985168 0 0)
(-0.3339851 0 0)
(-0.33827018 0 0)
(-0.34268792 0 0)
(-0.34721722 0 0)
(-0.3518327 0 0)
(-0.35650093 0 0)
(-0.36118105 0 0)
(-0.36583172 0 0)
(-0.37041492 0 0)
(-0.37489528 0 0)
(-0.37923761 0 0)
(-0.38340307 0 0)
(-0.387349 0 0)
(-0.39103343 0 0)
(-0.39441841 0 0)
(-0.39746592 0 0)
(-0.40013409 0 0)
(-0.40238631 0 0)
(-0.40418915 0 0)
(-0.40550185 0 0)
(-0.40628298 0 0)
(-0.40650686 0 0)
(-0.40615435 0 0)
(-0.40518167 0 0)
(-0.40351499 0 0)
(-0.40108938 0 0)
(-0.39787522 0 0)
(-0.39383211 0 0)
(-0.38887013 0 0)
(-0.38292247 0 0)
(-0.37595282 0 0)
(-0.36784046 0 0)
(-0.35847278 0 0)
(-0.34773247 0 0)
(-0.3355175 0 0)
(-0.32182779 0 0)
(-0.30659892 0 0)
(-0.28958742 0 0)
(-0.27069108 0 0)
(-0.24994647 0 0)
(-0.22720642 0 0)
(-0.20233239 0 0)
(-0.17522368 0 0)
(-0.14566872 0 0)
(-0.11343083 0 0)
(-0.078401213 0 0)
(-0.040555687 0 0)
(0 0 0)
(-0.32569095 0 0)
(-0.32957855 0 0)
(-0.33364172 0 0)
(-0.33786545 0 0)
(-0.34223154 0 0)
(-0.34671962 0 0)
(-0.351305 0 0)
(-0.35595426 0 0)
(-0.36062605 0 0)
(-0.36527803 0 0)
(-0.36987181 0 0)
(-0.3743719 0 0)
(-0.37874216 0 0)
(-0.38294254 0 0)
(-0.38692955 0 0)
(-0.39066079 0 0)
(-0.39409726 0 0)
(-0.39719929 0 0)
(-0.39992478 0 0)
(-0.40223598 0 0)
(-0.40409818 0 0)
(-0.40547022 0 0)
(-0.4063105 0 0)
(-0.40659302 0 0)
(-0.40629849 0 0)
(-0.40538377 0 0)
(-0.40377319 0 0)
(-0.40140045 0 0)
(-0.39823618 0 0)
(-0.39424017 0 0)
(-0.38932069 0 0)
(-0.38341073 0 0)
(-0.37647731 0 0)
(-0.36839781 0 0)
(-0.35905886 0 0)
(-0.34834153 0 0)
(-0.33613952 0 0)
(-0.32245277 0 0)
(-0.30721964 0 0)
(-0.29019947 0 0)
(-0.27129113 0 0)
(-0.25052786 0 0)
(-0.22775345 0 0)
(-0.20283034 0 0)
(-0.17566375 0 0)
(-0.14604089 0 0)
(-0.11372399 0 0)
(-0.078609573 0 0)
(-0.040668721 0 0)
(0 0 0)
(-0.3254426 0 0)
(-0.32923556 0 0)
(-0.33321332 0 0)
(-0.33736221 0 0)
(-0.3416651 0 0)
(-0.3461026 0 0)
(-0.35065032 0 0)
(-0.3552742 0 0)
(-0.35993267 0 0)
(-0.36458284 0 0)
(-0.369186 0 0)
(-0.37370639 0 0)
(-0.37810735 0 0)
(-0.38234763 0 0)
(-0.38638231 0 0)
(-0.39016797 0 0)
(-0.39366456 0 0)
(-0.39683133 0 0)
(-0.39962513 0 0)
(-0.40200693 0 0)
(-0.40394103 0 0)
(-0.40538529 0 0)
(-0.40629733 0 0)
(-0.40665088 0 0)
(-0.40642702 0 0)
(-0.40558254 0 0)
(-0.40403932 0 0)
(-0.40173052 0 0)
(-0.39862788 0 0)
(-0.39469035 0 0)
(-0.38982304 0 0)
(-0.38395944 0 0)
(-0.37707062 0 0)
(-0.36903142 0 0)
(-0.3597278 0 0)
(-0.34903978 0 0)
(-0.33685642 0 0)
(-0.32317634 0 0)
(-0.30793987 0 0)
(-0.29091193 0 0)
(-0.2719929 0 0)
(-0.25120914 0 0)
(-0.22839547 0 0)
(-0.20341642 0 0)
(-0.17618317 0 0)
(-0.14648111 0 0)
(-0.11407129 0 0)
(-0.078856203 0 0)
(-0.040802196 0 0)
(0 0 0)
(-0.32513108 0 0)
(-0.32881292 0 0)
(-0.33269033 0 0)
(-0.33675103 0 0)
(-0.3409794 0 0)
(-0.34535661 0 0)
(-0.34985756 0 0)
(-0.35444875 0 0)
(-0.35908858 0 0)
(-0.36373294 0 0)
(-0.3683433 0 0)
(-0.37288452 0 0)
(-0.37731944 0 0)
(-0.38160454 0 0)
(-0.38569317 0 0)
(-0.38954106 0 0)
(-0.39310688 0 0)
(-0.39634846 0 0)
(-0.39922178 0 0)
(-0.40168659 0 0)
(-0.40370554 0 0)
(-0.40523495 0 0)
(-0.40623152 0 0)
(-0.40666901 0 0)
(-0.40652876 0 0)
(-0.40576652 0 0)
(-0.4043024 0 0)
(-0.40206927 0 0)
(-0.39903979 0 0)
(-0.39517183 0 0)
(-0.39036693 0 0)
(-0.38455894 0 0)
(-0.37772273 0 0)
(-0.36973133 0 0)
(-0.36047019 0 0)
(-0.34981819 0 0)
(-0.33765918 0 0)
(-0.32398991 0 0)
(-0.30875271 0 0)
(-0.29171868 0 0)
(-0.2727893 0 0)
(-0.25198345 0 0)
(-0.22912646 0 0)
(-0.2040849 0 0)
(-0.17677667 0 0)
(-0.14698529 0 0)
(-0.11446985 0 0)
(-0.079138973 0 0)
(-0.040954804 0 0)
(0 0 0)
(-0.32474648 0 0)
(-0.32830184 0 0)
(-0.33206473 0 0)
(-0.33602446 0 0)
(-0.34016657 0 0)
(-0.34447166 0 0)
(-0.34891374 0 0)
(-0.35346174 0 0)
(-0.35807535 0 0)
(-0.36271113 0 0)
(-0.36732882 0 0)
(-0.37189207 0 0)
(-0.37636306 0 0)
(-0.38069696 0 0)
(-0.38484573 0 0)
(-0.38876372 0 0)
(-0.39240799 0 0)
(-0.39573508 0 0)
(-0.39869978 0 0)
(-0.40126026 0 0)
(-0.40337737 0 0)
(-0.40500554 0 0)
(-0.40609995 0 0)
(-0.40663443 0 0)
(-0.40659074 0 0)
(-0.40592349 0 0)
(-0.40455016 0 0)
(-0.40240397 0 0)
(-0.39945953 0 0)
(-0.39567321 0 0)
(-0.39094124 0 0)
(-0.38519762 0 0)
(-0.37842267 0 0)
(-0.37048688 0 0)
(-0.36127477 0 0)
(-0.35066541 0 0)
(-0.33853769 0 0)
(-0.3248844 0 0)
(-0.30964875 0 0)
(-0.2926105 0 0)
(-0.27367211 0 0)
(-0.25284266 0 0)
(-0.22993851 0 0)
(-0.20482904 0 0)
(-0.17743872 0 0)
(-0.14754862 0 0)
(-0.11491569 0 0)
(-0.079455144 0 0)
(-0.041125131 0 0)
(0 0 0)
(-0.32426926 0 0)
(-0.32768474 0 0)
(-0.33132066 0 0)
(-0.33516676 0 0)
(-0.33920882 0 0)
(-0.34342666 0 0)
(-0.34779726 0 0)
(-0.3522915 0 0)
(-0.35687252 0 0)
(-0.3614973 0 0)
(-0.36612232 0 0)
(-0.37070889 0 0)
(-0.3752182 0 0)
(-0.37960525 0 0)
(-0.38382087 0 0)
(-0.38781769 0 0)
(-0.39155132 0 0)
(-0.39497563 0 0)
(-0.39804385 0 0)
(-0.40071325 0 0)
(-0.40294268 0 0)
(-0.40468375 0 0)
(-0.40588991 0 0)
(-0.40653515 0 0)
(-0.4066013 0 0)
(-0.40604125 0 0)
(-0.40477067 0 0)
(-0.40272326 0 0)
(-0.39987576 0 0)
(-0.39618286 0 0)
(-0.39153466 0 0)
(-0.38586473 0 0)
(-0.37915905 0 0)
(-0.37128654 0 0)
(-0.36213024 0 0)
(-0.35157022 0 0)
(-0.33948078 0 0)
(-0.32584896 0 0)
(-0.31061824 0 0)
(-0.29357817 0 0)
(-0.27463165 0 0)
(-0.25377722 0 0)
(-0.23082279 0 0)
(-0.20564061 0 0)
(-0.17816191 0 0)
(-0.14816505 0 0)
(-0.11540426 0 0)
(-0.079801475 0 0)
(-0.041311377 0 0)
(0 0 0)
(-0.32446621 0 0)
(-0.32773701 0 0)
(-0.33123493 0 0)
(-0.33495061 0 0)
(-0.33886869 0 0)
(-0.34297246 0 0)
(-0.34724237 0 0)
(-0.35164962 0 0)
(-0.35616025 0 0)
(-0.36073314 0 0)
(-0.36532358 0 0)
(-0.36989153 0 0)
(-0.37439708 0 0)
(-0.37879514 0 0)
(-0.38303572 0 0)
(-0.38707031 0 0)
(-0.39085315 0 0)
(-0.39433618 0 0)
(-0.39747118 0 0)
(-0.40021475 0 0)
(-0.40252427 0 0)
(-0.40434882 0 0)
(-0.4056399 0 0)
(-0.40637105 0 0)
(-0.40652417 0 0)
(-0.4060516 0 0)
(-0.40486695 0 0)
(-0.40290342 0 0)
(-0.4001395 0 0)
(-0.39652927 0 0)
(-0.39195785 0 0)
(-0.38635612 0 0)
(-0.37971575 0 0)
(-0.37190545 0 0)
(-0.36280462 0 0)
(-0.35229754 0 0)
(-0.34025261 0 0)
(-0.32665072 0 0)
(-0.31143494 0 0)
(-0.29440633 0 0)
(-0.27546413 0 0)
(-0.25459768 0 0)
(-0.23160829 0 0)
(-0.20636885 0 0)
(-0.17881722 0 0)
(-0.14872994 0 0)
(-0.11585765 0 0)
(-0.080127717 0 0)
(-0.041492086 0 0)
(0 0 0)
(-0.32636035 0 0)
(-0.33046966 0 0)
(-0.33472857 0 0)
(-0.33911977 0 0)
(-0.34362269 0 0)
(-0.34821399 0 0)
(-0.35286521 0 0)
(-0.35754175 0 0)
(-0.36220647 0 0)
(-0.3668233 0 0)
(-0.37135691 0 0)
(-0.37577143 0 0)
(-0.38003253 0 0)
(-0.38410474 0 0)
(-0.38794872 0 0)
(-0.39152142 0 0)
(-0.39478382 0 0)
(-0.39770643 0 0)
(-0.40025128 0 0)
(-0.40238229 0 0)
(-0.40406508 0 0)
(-0.40525885 0 0)
(-0.4059233 0 0)
(-0.40603556 0 0)
(-0.40557218 0 0)
(-0.40448127 0 0)
(-0.40270373 0 0)
(-0.40017873 0 0)
(-0.39687483 0 0)
(-0.39274742 0 0)
(-0.38771008 0 0)
(-0.38169828 0 0)
(-0.37466197 0 0)
(-0.36649262 0 0)
(-0.35707789 0 0)
(-0.34630452 0 0)
(-0.33408261 0 0)
(-0.3204098 0 0)
(-0.30520755 0 0)
(-0.28823528 0 0)
(-0.26939039 0 0)
(-0.24870073 0 0)
(-0.22604547 0 0)
(-0.2012879 0 0)
(-0.1743128 0 0)
(-0.1449087 0 0)
(-0.1128375 0 0)
(-0.077976873 0 0)
(-0.040322282 0 0)
(0 0 0)
(-0.32625124 0 0)
(-0.33035078 0 0)
(-0.33460237 0 0)
(-0.33898887 0 0)
(-0.34349001 0 0)
(-0.34808283 0 0)
(-0.35273956 0 0)
(-0.3574254 0 0)
(-0.36210206 0 0)
(-0.36673231 0 0)
(-0.37128014 0 0)
(-0.37571007 0 0)
(-0.37998779 0 0)
(-0.3840776 0 0)
(-0.38793932 0 0)
(-0.39152998 0 0)
(-0.3948117 0 0)
(-0.39775277 0 0)
(-0.40031366 0 0)
(-0.40245905 0 0)
(-0.40415594 0 0)
(-0.40536325 0 0)
(-0.40603987 0 0)
(-0.40616286 0 0)
(-0.40571069 0 0)
(-0.40463283 0 0)
(-0.40286635 0 0)
(-0.40035048 0 0)
(-0.39705378 0 0)
(-0.39293243 0 0)
(-0.38790021 0 0)
(-0.38189246 0 0)
(-0.37486117 0 0)
(-0.36669486 0 0)
(-0.35728229 0 0)
(-0.34650899 0 0)
(-0.33428232 0 0)
(-0.32060117 0 0)
(-0.30539133 0 0)
(-0.28840894 0 0)
(-0.26955048 0 0)
(-0.2488497 0 0)
(-0.22618132 0 0)
(-0.20140655 0 0)
(-0.17441265 0 0)
(-0.14498924 0 0)
(-0.11289888 0 0)
(-0.078021432 0 0)
(-0.040347586 0 0)
(0 0 0)
(-0.32615867 0 0)
(-0.33023067 0 0)
(-0.33445843 0 0)
(-0.33882508 0 0)
(-0.34331065 0 0)
(-0.34789278 0 0)
(-0.35254435 0 0)
(-0.35723112 0 0)
(-0.36191358 0 0)
(-0.36655297 0 0)
(-0.37111284 0 0)
(-0.37555785 0 0)
(-0.37985369 0 0)
(-0.38396372 0 0)
(-0.38784707 0 0)
(-0.39146136 0 0)
(-0.39476891 0 0)
(-0.39773586 0 0)
(-0.40032175 0 0)
(-0.40249115 0 0)
(-0.40421152 0 0)
(-0.40544205 0 0)
(-0.40614145 0 0)
(-0.40628581 0 0)
(-0.40585469 0 0)
(-0.40480034 0 0)
(-0.40305572 0 0)
(-0.40055859 0 0)
(-0.39727842 0 0)
(-0.39317282 0 0)
(-0.38815462 0 0)
(-0.38215824 0 0)
(-0.37513958 0 0)
(-0.36698381 0 0)
(-0.35757939 0 0)
(-0.3468113 0 0)
(-0.33458426 0 0)
(-0.32089765 0 0)
(-0.30568067 0 0)
(-0.28868828 0 0)
(-0.26981712 0 0)
(-0.24910392 0 0)
(-0.2264171 0 0)
(-0.20161757 0 0)
(-0.17459567 0 0)
(-0.14514091 0 0)
(-0.11301669 0 0)
(-0.078106019 0 0)
(-0.040394521 0 0)
(0 0 0)
(-0.32603876 0 0)
(-0.33006613 0 0)
(-0.33425444 0 0)
(-0.3385872 0 0)
(-0.34304485 0 0)
(-0.34760564 0 0)
(-0.35224334 0 0)
(-0.35692413 0 0)
(-0.3616079 0 0)
(-0.36625418 0 0)
(-0.37082591 0 0)
(-0.37528787 0 0)
(-0.37960533 0 0)
(-0.38374063 0 0)
(-0.387652 0 0)
(-0.3912975 0 0)
(-0.3946396 0 0)
(-0.39764208 0 0)
(-0.40026363 0 0)
(-0.4024687 0 0)
(-0.40422444 0 0)
(-0.40549002 0 0)
(-0.40622411 0 0)
(-0.40640203 0 0)
(-0.40600426 0 0)
(-0.40498484 0 0)
(-0.40327343 0 0)
(-0.40080664 0 0)
(-0.39755393 0 0)
(-0.39347412 0 0)
(-0.38847921 0 0)
(-0.38250308 0 0)
(-0.37550488 0 0)
(-0.36736694 0 0)
(-0.35797768 0 0)
(-0.34722062 0 0)
(-0.33499722 0 0)
(-0.32130755 0 0)
(-0.30608447 0 0)
(-0.28908251 0 0)
(-0.27019833 0 0)
(-0.24947043 0 0)
(-0.22675979 0 0)
(-0.20192695 0 0)
(-0.17486654 0 0)
(-0.1453679 0 0)