/*--------------------------------*- C++ -*----------------------------------*\
| =========                 |                                                 |
| \\      /  F ield         | OpenFOAM: The Open Source CFD Toolbox           |
|  \\    /   O peration     | Version:  v2012                                 |
|   \\  /    A nd           | Website:  www.openfoam.com                      |
|    \\/     M anipulation  |                                                 |
\*---------------------------------------------------------------------------*/
FoamFile
{
    version     2.0;
    format      ascii;
    class       surfaceVectorField;
    location    "83.4506707643468246";
    object      Uf;
}
// * * * * * * * * * * * * * * * * * * * * * * * * * * * * * * * * * * * * * //

dimensions      [0 1 -1 0 0 0 0];


internalField   nonuniform List<vector> 
18180
(
(2.7521909 0.014340392 7.2329643e-21)
(2.7348247 0.0090856969 6.6353782e-21)
(2.763673 0.028052023 1.3784046e-20)
(2.7432453 0.029071099 -2.7949846e-21)
(2.7275892 0.02444462 -3.5085301e-21)
(2.7132515 0.011785594 -5.8630304e-22)
(2.7816405 0.041302191 1.0864787e-20)
(2.7565797 0.048083402 1.1849705e-20)
(2.7377064 0.049334065 -3.9087584e-21)
(2.7197551 0.039702367 -1.5919143e-21)
(2.7048713 0.028237097 1.2081838e-21)
(2.6892483 0.013043133 -7.2953675e-21)
(2.8068849 0.054083967 -3.178743e-23)
(2.777502 0.068494074 -4.0754465e-21)
(2.7536831 0.075447859 -3.358496e-21)
(2.7302222 0.066241815 -3.5914925e-21)
(2.7119768 0.057214627 -1.3888445e-21)
(2.6934124 0.044769556 4.8409121e-21)
(2.6782169 0.031058161 -3.1762409e-21)
(2.6638198 0.013690555 -1.9937581e-21)
(2.8395307 0.066095048 5.0346176e-21)
(2.8053742 0.089892866 -2.7596494e-22)
(2.776487 0.10430465 -4.1160951e-21)
(2.7463521 0.096385915 -2.9565175e-21)
(2.7230022 0.088112941 -3.1718206e-21)
(2.7001819 0.074741719 -6.2124826e-21)
(2.6820976 0.062917699 -3.705554e-22)
(2.6655164 0.047377724 -7.2008126e-21)
(2.6514676 0.031695466 -6.1367241e-21)
(2.6388266 0.013586576 5.6497702e-21)
(2.8803432 0.076743829 5.0759017e-22)
(2.8416235 0.11317479 1.0093471e-20)
(2.8066912 0.13688806 5.128331e-21)
(2.7677559 0.12985101 -2.5837977e-21)
(2.7382793 0.12292309 -1.4615538e-21)
(2.7101564 0.10923178 5.5650523e-21)
(2.6878471 0.096983926 2.8106813e-21)
(2.668281 0.078853984 3.2653155e-22)
(2.6521348 0.063949955 -6.1429405e-21)
(2.6383155 0.047096243 -6.5883094e-21)
(2.6260294 0.030744684 4.5857158e-21)
(2.6154782 0.012910775 1.4557806e-21)
(2.9302555 0.085000832 -1.2922347e-20)
(2.8872553 0.13819243 8.0944642e-22)
(2.845693 0.1743953 9.9082672e-21)
(2.7953078 0.16895364 8.7587731e-21)
(2.757831 0.16327956 1.4948366e-21)
(2.7228743 0.14791938 4.4844249e-21)
(2.6951862 0.13538217 1.123597e-20)
(2.6716986 0.11497542 4.3143885e-21)
(2.6526674 0.098098219 1.9795434e-21)
(2.6374801 0.077913647 1.6448053e-21)
(2.6240443 0.061670751 1.3347744e-21)
(2.6131964 0.044695055 2.2303429e-21)
(2.6029743 0.028593865 -7.7334184e-22)
(2.5945648 0.011830685 1.8818474e-21)
(2.991326 0.089040737 -2.032747e-20)
(2.9449036 0.16494687 -1.8926352e-20)
(2.8959265 0.21785526 -6.0720872e-21)
(2.8298538 0.21481556 -4.4585117e-21)
(2.7820695 0.21117745 -5.7556139e-21)
(2.7383313 0.1937001 -1.2900972e-20)
(2.7035666 0.17995258 -1.0272009e-20)
(2.6751281 0.15511717 -8.4819336e-21)
(2.6522824 0.13595459 -1.532391e-20)
(2.6351763 0.11278045 -4.4857996e-21)
(2.6203838 0.09385649 -4.9002971e-21)
(2.6095179 0.073365947 -1.73964e-21)
(2.5990019 0.056961317 -9.3493562e-22)
(2.5910051 0.040826337 2.0274381e-22)
(2.5828747 0.0256988 2.7356238e-21)
(2.5764628 0.010514344 2.7364077e-21)
(3.0640336 0.086194498 6.9617791e-22)
(3.0188705 0.1925096 -2.1408737e-20)
(2.9619822 0.26805162 -2.0176207e-20)
(2.8739901 0.26932007 -1.272416e-20)
(2.8121856 0.26887 -1.128917e-20)
(2.7564463 0.24823245 -1.8927768e-20)
(2.7123564 0.23287547 -2.5982407e-20)
(2.6776889 0.20209298 -2.6418023e-20)
(2.6499943 0.17896342 -2.4933464e-20)
(2.6307443 0.1505956 -1.8167007e-20)
(2.6140468 0.12862579 -7.9253466e-21)
(2.6028644 0.10513838 5.2008587e-22)
(2.5923098 0.085855885 3.5965665e-21)
(2.5853389 0.066423532 2.8300709e-21)
(2.5775917 0.050808776 3.9636626e-21)
(2.5720863 0.036120218 9.0257377e-23)
(2.565897 0.022427754 5.4207646e-23)
(2.561248 0.0090963203 -1.1713762e-21)
(3.1248216 0.075247452 3.3364328e-20)
(3.1061515 0.21991646 -1.2610975e-20)
(3.0447237 0.32542566 -3.3773372e-20)
(2.9321771 0.33421708 4.115518e-21)
(2.8508292 0.33928826 1.1474082e-20)
(2.7781478 0.31434938 9.8597676e-21)
(2.7210501 0.29669847 2.8360394e-21)
(2.6782167 0.25727266 1.3589357e-20)
(2.6443769 0.22865257 1.3738608e-20)
(2.6228355 0.1935859 2.1634839e-21)
(2.6039917 0.16682441 8.9829098e-21)
(2.5927686 0.13846757 -3.5210023e-21)
(2.581899 0.11609954 4.5559668e-21)
(2.5757897 0.094092764 3.590369e-21)
(2.5690033 0.075776108 2.8631762e-21)
(2.5652146 0.058211897 4.2282117e-21)
(2.5598801 0.043985939 5.606095e-22)
(2.5564422 0.031070347 4.2963088e-22)
(2.5519555 0.0190616 -7.2757486e-22)
(2.5487939 0.0076756057 -8.415796e-22)
(3.1365239 0.052067969 -1.2140541e-20)
(3.1687224 0.24715036 3.8504966e-20)
(3.1265208 0.39215601 -5.3213427e-21)
(2.9983041 0.41218779 -1.5822145e-20)
(2.8950469 0.42638472 2.0321647e-20)
(2.8053748 0.39558954 9.8051738e-21)
(2.7296119 0.37496916 8.1140538e-21)
(2.6755193 0.32307215 6.0719597e-21)
(2.6335702 0.28657412 1.6277413e-20)
(2.6098126 0.24224645 2.381202e-20)
(2.5886655 0.20912699 1.2982471e-20)
(2.5778418 0.17490202 1.2042461e-20)
(2.5669331 0.14799873 2.2230897e-22)
(2.5622152 0.12199721 -2.8052217e-21)
(2.556249 0.10099939 -3.8273922e-21)
(2.5540371 0.081434386 -4.3539362e-21)
(2.5503245 0.064870714 -3.1644546e-21)
(2.5489996 0.049578775 3.2736274e-22)
(2.5456567 0.03706451 1.9973997e-22)
(2.5438591 0.026035502 -3.3494431e-22)
(2.5408041 0.015793349 -4.3741122e-22)
(2.5388556 0.0063182958 -1.9659416e-22)
(3.0668605 0.02795951 2.2906308e-20)
(3.1469205 0.2788046 -2.4591926e-21)
(3.1477974 0.46866747 4.5285885e-20)
(3.0364689 0.50859466 -1.5198186e-20)
(2.9193026 0.53439601 -2.543303e-20)
(2.8300955 0.49702416 3.7452311e-21)
(2.7341656 0.47251641 -6.5953037e-21)
(2.6685492 0.40244851 -1.9865111e-21)
(2.6153854 0.35466778 -4.0930982e-21)
(2.5894855 0.29766844 -2.9142175e-21)
(2.5661198 0.25586579 3.9573314e-21)
(2.5566233 0.21409515 4.7773425e-21)
(2.5461315 0.18156378 3.7534996e-21)
(2.5434411 0.15112767 7.2442938e-21)
(2.5388174 0.12640549 4.4665974e-21)
(2.5387688 0.10384011 -1.3253318e-21)
(2.5365646 0.085161879 -1.79151e-21)
(2.5371783 0.068440125 -3.6735521e-21)
(2.5358332 0.054021625 -3.6844216e-22)
(2.5363175 0.041113647 4.7909133e-23)
(2.5345507 0.030423876 -4.6151271e-22)
(2.5340095 0.021252208 -9.2681004e-22)
(2.5321194 0.012743966 -7.0544522e-22)
(2.5311317 0.0050640402 -1.310057e-22)
(2.889771 0.022695746 2.4956002e-20)
(2.9829441 0.32335479 2.3195414e-22)
(3.0219975 0.55976225 -2.4318866e-20)
(2.9784992 0.62649738 9.1322565e-21)
(2.8747547 0.66586009 -4.8859577e-20)
(2.8174732 0.62305707 -2.9065301e-20)
(2.7157762 0.59148098 -1.4396639e-21)
(2.6515886 0.49964758 3.4906197e-21)
(2.5867432 0.43538924 8.0068897e-21)
(2.5594334 0.36063889 1.2607706e-20)
(2.5340019 0.30700585 1.3965602e-20)
(2.5272111 0.25600699 5.1478886e-21)
(2.518092 0.21634084 5.9337668e-21)
(2.5184781 0.18060851 2.6546677e-21)
(2.5158399 0.151613 5.9438506e-21)
(2.5185421 0.12602967 9.7028803e-21)
(2.5184222 0.10456455 4.2688344e-21)
(2.5215139 0.085754306 1.4015841e-21)
(2.5220193 0.069793348 -3.3768039e-22)
(2.524553 0.055946607 -8.5460561e-22)
(2.5249427 0.043781352 -4.6666558e-22)
(2.5266938 0.033185126 1.0573832e-22)
(2.526132 0.024292138 -3.2576916e-22)
(2.5265208 0.016860757 -5.1865674e-22)
(2.525552 0.0099796288 2.9004056e-23)
(2.5253058 0.0039325348 -1.1807581e-21)
(2.6257022 0.026960345 -7.8374359e-21)
(2.7214864 0.37836223 7.3525706e-20)
(2.7682325 0.66566255 5.0769671e-20)
(2.7734995 0.74972554 -3.5540279e-20)
(2.7247624 0.81141748 -3.9473131e-21)
(2.719132 0.7649788 -5.1678173e-20)
(2.6403068 0.72448992 -3.2942198e-20)
(2.6039642 0.61402458 -8.3737424e-21)
(2.5393435 0.52874965 -3.7962149e-21)
(2.5165603 0.4324296 5.8847641e-21)
(2.4899459 0.36216246 1.0239123e-20)
(2.4875552 0.29970286 1.0984979e-20)
(2.481255 0.25132626 2.5411508e-21)
(2.4861352 0.20983238 -9.6077901e-22)
(2.4865423 0.17582517 -4.1705266e-21)
(2.492873 0.14690821 3.6757823e-21)
(2.4954281 0.12252677 7.1947197e-21)
(2.5014379 0.10187023 2.1717107e-21)
(2.5043204 0.08398381 -5.7850278e-22)
(2.5093507 0.068797402 6.429826e-22)
(2.511693 0.055587713 1.6677277e-22)
(2.5154459 0.044439788 4.3356556e-22)
(2.5170487 0.034458137 9.9117764e-22)
(2.5196374 0.02599614 -8.7874665e-22)
(2.5199673 0.018786257 -1.0711441e-21)
(2.5210195 0.012931268 5.2232557e-22)
(2.5207617 0.00752841 -6.1761759e-22)
(2.5210726 0.0029292741 -1.1225012e-21)
(2.3194849 0.037358546 7.7497575e-20)
(2.407011 0.43740766 6.6649687e-20)
(2.4558855 0.7732598 1.4490432e-19)
(2.4938714 0.86732416 1.6738745e-19)
(2.479304 0.94460867 8.7186433e-20)
(2.5196429 0.89862245 -1.9150059e-20)
(2.4842825 0.85523772 -6.4642669e-20)
(2.4945851 0.73088082 -4.3333068e-20)
(2.4547456 0.62656635 -2.0177356e-20)
(2.4525734 0.510903 -1.5020107e-20)
(2.4307989 0.42002786 -5.978709e-21)
(2.4358469 0.34412051 -3.7383683e-23)
(2.4342016 0.28492104 4.2146266e-22)
(2.4453211 0.23728727 -8.7840531e-21)
(2.4502194 0.19782399 -1.2268694e-20)
(2.4612156 0.16571803 -5.8946896e-21)
(2.467324 0.13819333 1.5052261e-21)
(2.4768893 0.11568927 3.6471277e-21)
(2.4825901 0.096013151 -1.1689624e-21)
(2.4903899 0.079855303 -1.3234874e-21)
(2.4951195 0.065424811 -1.8597586e-22)
(2.5012212 0.053513974 4.4745288e-22)
(2.5047279 0.042885859 7.1051006e-22)
(2.5091802 0.034158399 2.66854e-22)
(2.511586 0.026189932 -1.518868e-21)
(2.5146858 0.019634004 3.1673319e-22)
(2.5156527 0.01394782 1.8494583e-21)
(2.5171564 0.0094859551 3.6521887e-23)
(2.5174346 0.005392496 -4.3215805e-22)
(2.5181519 0.0020519873 4.7191872e-21)
(2.0044782 0.05252001 9.2347817e-20)
(2.070797 0.49394586 3.6175047e-20)
(2.1135915 0.8760293 2.5539465e-20)
(2.1744846 0.9763599 1.2352224e-19)
(2.1802446 1.0630855 1.4412865e-19)
(2.2523277 1.0131565 5.8596357e-20)
(2.2563812 0.96840896 -4.350612e-20)
(2.3116733 0.83082346 -1.2824562e-20)
(2.3142042 0.71311376 8.2588518e-21)
(2.3511977 0.58480705 -4.6255828e-22)
(2.3500971 0.47551444 4.7116009e-21)
(2.369701 0.38704874 -4.9679036e-21)
(2.3759468 0.31507141 7.3765008e-22)
(2.3952362 0.26120447 -1.0793271e-21)
(2.4064342 0.21594857 -9.8330876e-21)
(2.4233064 0.18100075 -9.9419711e-21)
(2.4340127 0.15046063 -3.8793373e-21)
(2.4477872 0.12652266 -3.7474124e-21)
(2.4569387 0.10511786 -1.7912991e-21)
(2.4679153 0.088139662 -2.093983e-21)
(2.4753073 0.072761313 -2.2637011e-21)
(2.4838843 0.060490338 1.564394e-21)
(2.489631 0.049179981 2.196083e-21)
(2.4962026 0.04011427 8.0096506e-22)
(2.5003782 0.031798743 3.8583508e-22)
(2.5051595 0.025177961 1.18691e-21)
(2.5080572 0.019004538 2.967531e-21)
(2.5114263 0.01411112 6.1217284e-22)
(2.5128281 0.0097703419 -1.1258824e-21)
(2.5146181 0.0065162161 7.0813422e-22)
(2.5152873 0.0035582132 5.6115743e-21)
(2.5162953 0.0012991792 4.9915608e-21)
(1.7099025 0.071918867 1.4794831e-20)
(1.7452738 0.54517933 -9.7044482e-22)
(1.7737358 0.96785713 -5.5262103e-20)
(1.8485875 1.068319 -2.3617216e-20)
(1.8662296 1.1623636 6.8234119e-20)
(1.9579774 1.1071369 7.0021677e-20)
(1.9889235 1.0583031 -1.2470809e-20)
(2.0755303 0.90486481 -4.8482427e-21)
(2.119751 0.77506143 2.4784443e-20)
(2.2017139 0.63812383 2.2464998e-20)
(2.2392379 0.51722645 1.4395689e-20)
(2.2843985 0.42229891 1.0756675e-20)
(2.3057722 0.33863593 1.7719503e-21)
(2.3356401 0.27934358 3.5309482e-21)
(2.3551999 0.22821971 1.8474605e-21)
(2.3792036 0.19121747 -5.3960759e-21)
(2.3957328 0.15802311 -5.4355661e-21)
(2.4143825 0.13317844 -5.9183413e-21)
(2.4276378 0.11042498 -5.8225214e-21)
(2.4421416 0.093117686 -3.3374034e-22)
(2.4525987 0.076984094 -5.8078175e-22)
(2.4638756 0.064560508 -1.5239456e-21)
(2.4719935 0.05289022 2.1081633e-21)
(2.4806975 0.04386795 5.7976645e-22)
(2.4868904 0.035262457 -7.6290178e-22)
(2.4935328 0.02860442 8.5113824e-22)
(2.4980256 0.022298487 1.6210774e-21)
(2.5028802 0.017473294 1.3515653e-21)
(2.5060401 0.012862851 -9.0518215e-22)
(2.5095042 0.0093943158 -1.3460486e-21)
(2.5111832 0.0062194215 3.9139513e-22)
(2.5131311 0.0039962288 2.0925123e-21)
(2.5140766 0.0020092361 1.4525866e-21)
(2.5152854 0.00067902313 -3.9754303e-21)
(1.4563872 0.095790245 2.9234003e-20)
(1.4535619 0.59073042 -9.6929842e-21)
(1.4620042 1.0453583 -2.4837056e-20)
(1.5447172 1.1444084 -4.123755e-20)
(1.5667679 1.2408596 -1.1019893e-20)
(1.6654671 1.1755508 3.9003319e-20)
(1.7162695 1.1228924 4.0722662e-20)
(1.821966 0.95204955 -6.4388238e-23)
(1.8962272 0.80714107 7.2088662e-21)
(2.0143184 0.6609902 5.5025485e-21)
(2.0958921 0.53244987 3.0266779e-21)
(2.1752919 0.43909024 1.8865094e-20)
(2.2227088 0.34985871 1.5477248e-20)
(2.2668228 0.28857404 -9.5401019e-21)
(2.2973251 0.23250403 -8.0336387e-21)
(2.3294739 0.19455668 5.7767696e-21)
(2.3531111 0.15947117 -1.0378515e-21)
(2.3772291 0.13460213 -3.5733603e-21)
(2.395256 0.11102774 -4.0045749e-21)
(2.4135869 0.093903615 -7.5432728e-21)
(2.4274585 0.077466966 -2.3558858e-21)
(2.4415731 0.065357005 1.1590137e-22)
(2.4522846 0.053559767 -7.9051575e-22)
(2.463214 0.044796467 -1.4666403e-22)
(2.4714445 0.036219049 -1.6291436e-21)
(2.4798813 0.029854594 -4.0207877e-22)
(2.4861429 0.023533183 1.1373203e-21)
(2.4926034 0.018875775 -2.1008404e-22)
(2.497171 0.014279807 -4.9042207e-22)
(2.5019297 0.010961423 -3.4089263e-21)
(2.5051857 0.007688233 -3.8629238e-21)
(2.5086222 0.0054241507 -1.318638e-21)
(2.510457 0.0032450462 2.6981155e-22)
(2.512465 0.0018884731 1.1826812e-21)
(2.5136088 0.00073199394 -3.9710615e-21)
(2.5149308 0.00019587994 -7.0315777e-21)
(1.2563748 0.12525166 7.4485529e-20)
(1.2086702 0.6308158 3.3435486e-20)
(1.1937063 1.1077568 -3.3749435e-21)
(1.2808966 1.2031545 3.3465913e-20)
(1.3054911 1.2992153 1.8744052e-20)
(1.3990814 1.2216477 -1.3997211e-19)
(1.4630197 1.1607196 -9.436589e-20)
(1.5800675 0.97274508 5.4686326e-21)
(1.672965 0.81078636 -3.3721072e-20)
(1.813931 0.65283395 1.0255795e-20)
(1.9306771 0.51556801 8.6808189e-21)
(2.0444676 0.42818758 4.6884997e-23)
(2.1263764 0.3410032 1.5027657e-20)
(2.1893666 0.28404001 1.5760697e-20)
(2.2345741 0.22645219 -7.9653572e-21)
(2.2754475 0.18931825 -9.4888749e-21)
(2.3072641 0.15345265 3.5901721e-21)
(2.3372603 0.1296437 3.1521785e-21)
(2.3606574 0.10609161 8.4081327e-22)
(2.3829872 0.089879088 6.5043057e-22)
(2.4005721 0.073644107 -2.6508594e-21)
(2.4176029 0.062270834 -6.8103153e-21)
(2.4310468 0.0507754 -4.5562595e-21)
(2.4442047 0.042671137 8.0154479e-22)
(2.4545656 0.034350758 1.4428695e-21)
(2.4648 0.02848197 -2.2692316e-21)
(2.4727725 0.02242971 -1.1144375e-21)
(2.4807198 0.018207153 1.835962e-21)
(2.4868115 0.013780011 5.6786095e-22)
(2.4929395 0.010763073 -4.1111232e-22)
(2.4974216 0.0075996223 -3.1787198e-21)
(2.5019763 0.0055298608 -1.8926763e-21)
(2.5052126 0.0033853524 5.5094776e-22)
(2.508537 0.0021277996 2.5442865e-21)
(2.5104339 0.00078478532 3.4435412e-21)
(2.512436 0.00014194511 -4.1963355e-21)
(2.5136927 -0.00031126028 -7.1036299e-21)
(2.5150759 -0.00013869168 -1.5700611e-21)
(1.1142218 0.16004037 -8.8092084e-20)
(1.0227279 0.66664258 3.760898e-20)
(0.98139162 1.1556361 -1.7941339e-21)
(1.0670168 1.2447794 -7.4446991e-20)
(1.0960034 1.338416 -4.0519447e-20)
(1.1762259 1.2469476 9.4284044e-21)
(1.2445803 1.1740948 -1.4124912e-19)
(1.3664589 0.96883928 -1.8257865e-19)
(1.470249 0.79011201 -8.9144618e-20)
(1.6240252 0.61818197 -3.4696437e-20)
(1.7625403 0.46926505 7.0026442e-21)
(1.9034432 0.38759778 1.3247513e-20)
(2.0197769 0.3063394 5.1232841e-21)
(2.1047636 0.26039736 8.5592897e-21)
(2.1692599 0.20729694 9.020543e-21)
(2.2192555 0.17387729 -3.3472017e-21)
(2.2599306 0.13895103 -4.6145125e-21)
(2.2958152 0.11744352 5.1998247e-21)
(2.3249976 0.094959268 4.7966808e-21)
(2.3513343 0.080440807 -5.1325359e-21)
(2.3728044 0.065095231 -5.398932e-21)
(2.3927158 0.055009247 1.749555e-21)
(2.4089696 0.044228767 -2.1382747e-21)
(2.4243104 0.037106578 -3.5919702e-21)
(2.4368084 0.029412154 1.5114642e-21)
(2.4487611 0.024363169 1.7939838e-21)
(2.4584504 0.018785434 -1.7223381e-21)
(2.4678278 0.015178791 -3.3308142e-21)
(2.4753361 0.011157779 -5.6403747e-22)
(2.4826819 0.0086425726 4.5041036e-21)
(2.4884636 0.0057654193 3.6325305e-21)
(2.4941762 0.0040796901 -7.1361366e-22)
(2.4984726 0.0020999883 5.4466947e-22)
(2.5027581 0.0010544975 8.6162505e-22)
(2.5058949 -0.00015199903 2.7581733e-21)
(2.5090518 -0.00057247954 7.4982211e-21)
(2.5109425 -0.0012270653 3.0910692e-22)
(2.5128915 -0.00129363 -6.4337987e-21)
(2.5142048 -0.0010975566 -1.1739359e-21)
(2.515569 -0.00038972627 7.9413273e-21)
(1.0266091 0.19611287 -1.5791881e-19)
(0.90918189 0.69961326 -1.6218245e-19)
(0.84367069 1.1912244 -4.4021585e-20)
(0.91016659 1.2722423 1.6740874e-20)
(0.94149316 1.3607089 -5.190789e-20)
(1.003311 1.2550096 1.5691897e-19)
(1.0686327 1.1686842 2.071142e-19)
(1.18959 0.94536727 7.2085903e-20)
(1.2984078 0.74966805 3.5927249e-20)
(1.4591818 0.56270647 -1.1425303e-19)
(1.6089595 0.39989749 -6.2966809e-20)
(1.7677892 0.32143394 -5.1750958e-22)
(1.9108737 0.24546848 5.0305164e-21)
(2.0171013 0.21477636 5.7634432e-22)
(2.1038832 0.1723575 3.638219e-21)
(2.1633879 0.14670805 2.8668744e-21)
(2.213458 0.11547387 -8.8480968e-21)
(2.2546775 0.097531866 -1.372537e-21)
(2.2896746 0.077291208 7.8923413e-21)
(2.3198063 0.065332985 2.3389941e-22)
(2.3451712 0.051624058 -9.2500203e-21)
(2.3677974 0.043323535 8.694635e-22)
(2.3868271 0.03377138 7.7568762e-21)
(2.404221 0.028030886 -5.0308618e-21)
(2.4188168 0.021272486 -6.4557089e-21)
(2.4323747 0.017286021 -1.4794972e-21)
(2.4437113 0.0124846 -1.2591002e-21)
(2.4543835 0.0097449435 1.2648277e-21)
(2.4632629 0.0063004599 -2.2077094e-22)
(2.4717324 0.004447184 -4.0200665e-21)
(2.4786755 0.0020373904 7.3775274e-22)
(2.4853823 0.00087358821 4.0530606e-21)
(2.490776 -0.00075695092 -6.1882327e-23)
(2.496042 -0.0013643791 -1.9402361e-21)
(2.5000867 -0.0023769376 -1.674958e-21)
(2.5040689 -0.0025901023 -6.0466816e-22)
(2.5070515 -0.0030147446 3.8432876e-21)
(2.5100023 -0.0027558099 1.5738049e-21)
(2.5118534 -0.0028509223 -4.8051272e-21)
(2.5137329 -0.0024521179 -1.3572902e-21)
(2.5150323 -0.0017592496 7.288432e-21)
(2.5163305 -0.00064372192 5.0305028e-21)
(0.98652499 0.23354384 -2.3283479e-19)
(0.84951358 0.72955626 -7.3830734e-20)
(0.77479763 1.2175649 -7.6742336e-20)
(0.82012329 1.2905776 3.7068291e-20)
(0.83893183 1.3708967 9.5864783e-20)
(0.87897154 1.2504189 -2.7207926e-19)
(0.93623362 1.1503689 -7.7150168e-20)
(1.0530656 0.90753394 3.5308546e-19)
(1.1625379 0.69379903 2.2709512e-19)
(1.3269225 0.49160846 -6.3247254e-20)
(1.4814339 0.31362903 -2.0711104e-19)
(1.6505953 0.23606959 -2.9359965e-20)
(1.8102908 0.1626878 3.0104392e-20)
(1.9333397 0.14842513 1.5390608e-21)
(2.0415221 0.12050113 -2.7356952e-21)
(2.1103908 0.10676233 -3.8121527e-21)
(2.1704211 0.082994859 -4.6504138e-21)
(2.2159192 0.070055365 -3.3749415e-21)
(2.256264 0.053228105 3.7461235e-21)
(2.2897006 0.044587585 4.2080013e-21)
(2.3187626 0.03331729 -3.1092366e-21)
(2.3437859 0.027315743 -6.0761225e-21)
(2.3654419 0.0194603 3.5860148e-21)
(2.3846718 0.015411582 9.5614568e-21)
(2.4012509 0.0099455433 -2.5512967e-21)
(2.4162467 0.0073132405 -3.5521799e-21)
(2.429128 0.0035033089 1.2060589e-21)
(2.4409623 0.0018175554 -2.0999559e-21)
(2.4510802 -0.00083043669 2.7768041e-22)
(2.4605254 -0.0018203792 -2.6231769e-21)
(2.4685354 -0.003623587 -6.2625438e-21)
(2.4761252 -0.004129249 8.9569428e-22)
(2.4824619 -0.0052686257 4.0439621e-21)
(2.4885375 -0.0053739492 -1.520999e-21)
(2.4935117 -0.0059914908 -3.3248468e-21)
(2.4983209 -0.0057493522 -1.3072148e-21)
(2.5020852 -0.0059710242 -2.8643185e-22)
(2.5057498 -0.0055213094 1.1570216e-21)
(2.5085417 -0.0053115422 -1.0354892e-21)
(2.5112643 -0.0045016246 -8.5086793e-21)
(2.5130524 -0.0041371318 -5.2916828e-21)
(2.514833 -0.0033670096 3.7585353e-21)
(2.5160739 -0.0023157144 1.5646683e-21)
(2.5172963 -0.0008776399 -6.8534179e-21)
(0.98472926 0.27505208 -1.017561e-19)
(0.82631099 0.75798255 -1.7481031e-19)
(0.74505541 1.2373242 -2.2989026e-20)
(0.77809845 1.3042474 -1.2220283e-19)
(0.78256261 1.3761565 -1.4900698e-20)
(0.80283121 1.2386407 3.5572669e-20)
(0.84829492 1.1234085 -3.1416278e-19)
(0.95760158 0.85905856 -4.9572943e-19)
(1.0658787 0.62609938 -9.3628695e-20)
(1.2312694 0.40893056 2.7843352e-19)
(1.3864381 0.21526327 3.7759896e-21)
(1.5604875 0.13767732 -1.6485165e-19)
(1.7275833 0.064256842 4.3520593e-21)
(1.8612873 0.065962065 7.1386125e-20)
(1.9862348 0.053205589 4.4881429e-20)
(2.0630034 0.054477207 3.6081917e-21)
(2.133095 0.041914783 2.535306e-21)
(2.1815635 0.035608431 8.0872709e-22)
(2.2264127 0.0234659 2.0967034e-21)
(2.2623133 0.018754321 -2.526486e-21)
(2.2946275 0.010570462 -2.1516243e-21)
(2.3216117 0.0072736995 2.1690363e-22)
(2.3455953 0.0015478338 -2.5314557e-21)
(2.366405 -0.0005040294 -4.3709822e-22)
(2.3847429 -0.0044116495 5.1663735e-21)
(2.4009945 -0.0054783973 -1.010967e-21)
(2.4152469 -0.0080429909 -1.9381073e-21)
(2.4280677 -0.0084677388 3.3450926e-21)
(2.4392892 -0.01013068 2.3834095e-22)
(2.4495382 -0.010153334 2.0917977e-21)
(2.4584806 -0.011154822 -6.3383707e-22)
(2.4667815 -0.010893087 -4.2160285e-21)
(2.4739614 -0.011421504 2.6044748e-21)
(2.4807305 -0.010921145 5.1671224e-21)
(2.4864755 -0.011057752 -9.6510633e-23)
(2.491955 -0.010345752 -1.2606623e-21)
(2.4965027 -0.010157338 6.8331983e-22)
(2.5008667 -0.0092391156 2.6939968e-21)
(2.5043349 -0.0088271243 4.107055e-21)
(2.5076774 -0.007845802 1.4044034e-21)
(2.5102582 -0.0071274077 -5.6502051e-21)
(2.5127428 -0.005881105 -5.4217151e-21)
(2.5144383 -0.0051459389 3.1631777e-21)
(2.5160947 -0.0040793245 3.1703418e-21)
(2.5172649 -0.0027516824 -4.7934242e-21)
(2.5184021 -0.0010585001 -5.2870734e-21)
(1.0138026 0.31981153 5.0304955e-19)
(0.8290181 0.78681608 -6.0671064e-21)
(0.73683491 1.2533267 -7.4036548e-20)
(0.76446656 1.3146589 -1.8224853e-19)
(0.76222469 1.3792457 -2.7863615e-19)
(0.76716759 1.224075 2.8532028e-19)
(0.80201591 1.0910962 3.3759187e-19)
(0.90376435 0.80363763 1.7674392e-19)
(1.0084967 0.54919333 1.1547262e-20)
(1.1742831 0.31762971 -5.2531348e-21)
(1.3270626 0.10848084 3.4890829e-19)
(1.5025566 0.031011154 9.7928487e-20)
(1.6689882 -0.043659824 -6.0670552e-20)
(1.8076573 -0.02737491 -1.7185874e-20)
(1.9423001 -0.025880742 4.6088105e-20)
(2.0244089 -0.0079419613 4.3653125e-20)
(2.1032163 -0.0067594571 4.534634e-21)
(2.1533028 -0.0047957687 5.2293429e-21)
(2.2015727 -0.010887172 3.6302116e-21)
(2.238895 -0.01129913 4.268049e-22)
(2.2736461 -0.015914669 -3.9573925e-21)
(2.3020919 -0.01620415 -2.3458263e-21)
(2.32795 -0.01945738 -9.3251796e-23)
(2.3500074 -0.019366134 -1.3755015e-21)
(2.3698395 -0.021426247 6.2557949e-22)
(2.3871122 -0.020796785 2.4242844e-21)
(2.4025666 -0.021905379 -3.4750254e-21)
(2.4161857 -0.020968611 -4.9431362e-21)
(2.4283559 -0.021444377 2.5463963e-23)
(2.4392334 -0.020368113 -2.2526893e-21)
(2.4489534 -0.020449489 -5.3021309e-22)
(2.4578009 -0.019333291 -1.1809339e-21)
(2.4656625 -0.019127858 -4.587082e-21)
(2.4729534 -0.017946058 -2.0655489e-21)
(2.4793592 -0.017512069 2.9763179e-22)
(2.4853883 -0.016246541 -3.4701123e-22)
(2.4905729 -0.015605636 -1.4553597e-21)
(2.4954986 -0.014257136 -1.8033625e-21)
(2.4996295 -0.013432744 6.7907772e-23)
(2.503567 -0.01198115 4.5451549e-21)
(2.5067348 -0.011063956 1.9873967e-21)
(2.5097582 -0.0096617754 -1.3598516e-22)
(2.5121175 -0.0085406072 1.6127018e-22)
(2.5143605 -0.0069532439 2.4459555e-21)
(2.5159404 -0.0059239228 2.4422142e-21)
(2.5174575 -0.0046254365 2.3866707e-21)
(2.5185488 -0.0030801678 2.0238137e-21)
(2.5195947 -0.0011906135 1.551101e-21)
(1.0677305 0.36625074 3.7787297e-19)
(0.85950124 0.81487352 4.233617e-19)
(0.75010897 1.2657008 -6.1019724e-20)
(0.77789076 1.3208393 5.4158006e-20)
(0.77424029 1.3801856 -4.6826633e-20)
(0.76079209 1.2065163 1.5725e-19)
(0.78863734 1.0551798 6.9853154e-19)
(0.88725291 0.74446081 4.4422148e-20)
(0.98856512 0.46613503 -1.1229077e-19)
(1.1541767 0.22093663 3.1794622e-19)
(1.3034898 -0.0030856351 3.0638721e-19)
(1.477522 -0.079550385 2.0038415e-19)
(1.6375745 -0.15523218 -3.9554391e-20)
(1.7759517 -0.12638432 -6.8374657e-20)
(1.9132232 -0.11169641 -2.7193003e-20)
(1.9970812 -0.077514819 5.6375924e-22)
(2.0819974 -0.060995976 -2.2277286e-21)
(2.1321221 -0.049835969 -1.6955541e-21)
(2.182755 -0.048331652 -1.1257229e-21)
(2.2201926 -0.044392868 -2.7610183e-21)
(2.2564856 -0.045034711 -5.890947e-21)
(2.2857077 -0.042372287 -9.4156653e-22)
(2.3129915 -0.042841186 6.2259601e-22)
(2.3359257 -0.040612477 4.6295728e-21)
(2.3569658 -0.040653738 3.4812632e-21)
(2.3750522 -0.038295016 2.4732046e-23)
(2.3914967 -0.037796503 1.7222189e-21)
(2.4057496 -0.035381119 -9.8741056e-23)
(2.4186938 -0.034550675 -1.4423009e-21)
(2.4300278 -0.03227551 1.0565967e-21)
(2.4403545 -0.031304792 -1.0886162e-21)
(2.4495591 -0.029233644 -2.1039682e-21)
(2.4579453 -0.028216072 -2.744134e-21)
(2.4655882 -0.026307773 -2.9210469e-21)
(2.4724929 -0.025229468 -5.0418474e-22)
(2.4789111 -0.023381503 -8.1122008e-21)
(2.4846192 -0.022225566 -8.84631e-21)
(2.4899935 -0.020380791 7.1034901e-22)
(2.4946581 -0.019139136 4.1161368e-22)
(2.4990764 -0.017296951 -2.9482147e-21)
(2.5028081 -0.015973102 1.2554023e-21)
(2.5063414 -0.014105067 1.7714929e-21)
(2.5092111 -0.01278861 -2.4679117e-22)
(2.5119224 -0.011057199 4.5146499e-21)
(2.5140562 -0.0096205152 6.7462904e-21)
(2.5160582 -0.0077700359 -1.3923447e-21)
(2.5175082 -0.0065111469 -1.5016217e-21)
(2.5188779 -0.005035043 2.4709444e-21)
(2.5198839 -0.0033220222 2.029185e-21)
(2.5208342 -0.0012839066 3.2036017e-21)
(1.1354216 0.41081221 -2.8239615e-19)
(0.92375433 0.84151626 3.557031e-20)
(0.7985342 1.2747532 7.3688376e-20)
(0.81952009 1.3210509 1.3491318e-19)
(0.81852691 1.3748591 2.4689075e-19)
(0.79899636 1.1829541 2.7366143e-19)
(0.81681268 1.0139084 4.7194323e-19)
(0.90851472 0.68144885 1.4578456e-19)
(1.0103716 0.37901646 -4.8247564e-19)
(1.1682748 0.12197996 -4.6727223e-19)
(1.313164 -0.11637036 -6.4267379e-20)
(1.4835728 -0.19018542 -1.3268244e-20)
(1.6339083 -0.26583921 -1.1815714e-19)
(1.7674656 -0.22577763 -4.5830159e-20)
(1.9011481 -0.19954157 -7.3211222e-20)
(1.9834351 -0.15017767 -2.9475739e-20)
(2.0704532 -0.11828871 -2.9588806e-21)
(2.1188671 -0.097589452 -1.9931839e-21)
(2.1705114 -0.0874079 -1.4850719e-21)
(2.2068337 -0.07915162 -2.7045672e-21)
(2.2435827 -0.075680694 -4.2782578e-21)
(2.2729166 -0.070242192 -3.4501127e-21)
(2.3010176 -0.067880826 1.2765852e-21)
(2.3244796 -0.063584815 1.3672233e-21)
(2.3463871 -0.061582502 5.1773904e-21)
(2.3650987 -0.05749568 4.2900264e-21)
(2.3823268 -0.05533371 1.025997e-21)
(2.3970624 -0.051388634 3.7286728e-21)
(2.4106226 -0.049156093 2.0302528e-21)
(2.4222556 -0.045583386 -9.7560364e-22)
(2.4330262 -0.043471392 1.4042557e-21)
(2.4424103 -0.040379651 2.6989765e-21)
(2.4511442 -0.038460086 1.792041e-21)
(2.4589497 -0.035771611 9.2834333e-22)
(2.4661931 -0.03400611 8.1339794e-22)
(2.472836 -0.031569878 2.4560016e-21)
(2.4789156 -0.029864884 -4.7191573e-21)
(2.4845952 -0.027536897 -2.8103226e-21)
(2.4896866 -0.025838575 6.3443946e-21)
(2.4944856 -0.023555753 5.0923191e-21)
(2.498674 -0.021850367 1.9734515e-21)
(2.5026282 -0.019626573 6.3191281e-21)
(2.5059815 -0.017913143 6.8828102e-21)
(2.5091328 -0.015722439 -6.3127513e-21)
(2.5117107 -0.014093805 -1.8840548e-21)
(2.5141188 -0.012108198 8.1679213e-21)
(2.5160273 -0.010427524 4.6640171e-22)
(2.5177915 -0.0083772737 -3.1957356e-21)
(2.5191036 -0.0069421224 5.4861701e-22)
(2.520322 -0.0053329826 -7.7566476e-21)
(2.5212383 -0.0034939636 -6.7863837e-21)
(2.5220903 -0.0013466452 -2.383556e-21)
(1.207501 0.45227451 -3.2586804e-19)
(0.99936758 0.8651857 -2.2167672e-19)
(0.87511104 1.280788 8.0811579e-20)
(0.89527804 1.3161427 2.0183824e-19)
(0.88998901 1.3599781 2.6183041e-19)
(0.88293195 1.152055 -1.2578274e-19)
(0.90225698 0.96640454 -1.0571146e-19)
(0.98100511 0.61369398 6.7075655e-19)
(1.0796787 0.28870043 3.6424299e-19)
(1.220216 0.023211956 -4.4370283e-19)
(1.3534928 -0.22849782 -4.2872887e-19)
(1.5170415 -0.29793685 -5.0431863e-20)
(1.6563752 -0.37171656 -1.8613428e-21)
(1.7804745 -0.32157542 -1.3345205e-19)
(1.906417 -0.28511931 -6.5070146e-20)
(1.9837321 -0.22191908 -5.3189384e-20)
(2.0690396 -0.17568415 -1.1213314e-20)
(2.1140063 -0.14571111 -3.4463468e-23)
(2.1648962 -0.12655864 1.0873185e-21)
(2.1989782 -0.11414496 9.7882078e-21)
(2.235074 -0.10661355 8.7462314e-21)
(2.2637817 -0.098717193 -3.3467891e-21)
(2.2920812 -0.093727571 -2.5371442e-21)
(2.3157425 -0.087574697 -1.2585441e-21)
(2.3381776 -0.083623773 -1.2101618e-21)
(2.3573552 -0.077908014 -8.2644155e-22)
(2.3751892 -0.074112697 -1.7515954e-21)
(2.3903179 -0.068632278 -3.147355e-21)
(2.4043535 -0.06495412 -6.4374864e-22)
(2.4161662 -0.06001567 -8.3297368e-24)
(2.427235 -0.056676217 -2.887396e-21)
(2.4366348 -0.052484522 -1.9975145e-22)
(2.4455497 -0.049597274 1.0064914e-21)
(2.4533325 -0.046097598 3.0238255e-22)
(2.4607361 -0.043596058 -5.4109562e-22)
(2.467421 -0.040563315 -1.6211893e-21)
(2.4737163 -0.038303378 -1.0007938e-22)
(2.4795515 -0.035519646 2.2481621e-21)
(2.4849336 -0.033365815 4.1610497e-21)
(2.4899929 -0.030687409 7.8941276e-21)
(2.4945431 -0.028580363 6.7294699e-21)
(2.4988347 -0.025963203 7.0824984e-21)
(2.5025879 -0.023900168 1.1280448e-20)
(2.5061153 -0.021381333 6.2353524e-21)
(2.509111 -0.019366043 -6.2935704e-21)
(2.5119006 -0.016927326 -6.6754298e-21)
(2.5141948 -0.015057532 2.7912626e-21)
(2.5163097 -0.012878549 -1.3586852e-21)
(2.5179956 -0.011012114 -4.8604468e-21)
(2.5195274 -0.0088133817 2.0642856e-21)
(2.5206977 -0.0072453223 -5.7938049e-21)
(2.5217641 -0.0055394742 -6.9655325e-21)
(2.5225879 -0.003609141 -2.7902798e-21)
(2.5233406 -0.001385203 -1.4626455e-21)
(1.2805826 0.48959557 -1.9176374e-20)
(1.0822454 0.88490956 -7.6336905e-20)
(0.96296747 1.2830633 2.6086739e-20)
(0.98796249 1.3071865 2.734978e-19)
(0.98433437 1.3405698 3.9105226e-19)