/*--------------------------------*- C++ -*----------------------------------*\
| =========                 |                                                 |
| \\      /  F ield         | OpenFOAM: The Open Source CFD Toolbox           |
|  \\    /   O peration     | Version:  v2012                                 |
|   \\  /    A nd           | Website:  www.openfoam.com                      |
|    \\/     M anipulation  |                                                 |
\*---------------------------------------------------------------------------*/
FoamFile
{
    version     2.0;
    format      ascii;
    class       volVectorField;
    location    "27.8675464545396459";
    object      cellDisplacement;
}
// * * * * * * * * * * * * * * * * * * * * * * * * * * * * * * * * * * * * * //

dimensions      [0 1 0 0 0 0 0];


internalField   nonuniform List<vector> 
9200
(
(-0.010623301 0 0)
(-0.010686584 0 0)
(-0.030885959 0 0)
(-0.010780052 0 0)
(-0.031029443 0 0)
(-0.049790366 0 0)
(-0.010901682 0 0)
(-0.031270229 0 0)
(-0.049996557 0 0)
(-0.067348074 0 0)
(-0.01105126 0 0)
(-0.031616846 0 0)
(-0.050376469 0 0)
(-0.067618571 0 0)
(-0.083618761 0 0)
(-0.011214579 0 0)
(-0.032029238 0 0)
(-0.050902717 0 0)
(-0.068115988 0 0)
(-0.083951733 0 0)
(-0.09862932 0 0)
(-0.01138228 0 0)
(-0.032478053 0 0)
(-0.051521741 0 0)
(-0.068761255 0 0)
(-0.084509139 0 0)
(-0.098996421 0 0)
(-0.11244403 0 0)
(-0.011552881 0 0)
(-0.032950155 0 0)
(-0.052218899 0 0)
(-0.069566943 0 0)
(-0.085281727 0 0)
(-0.099639172 0 0)
(-0.11285414 0 0)
(-0.12510485 0 0)
(-0.011719037 0 0)
(-0.033424249 0 0)
(-0.052953367 0 0)
(-0.070467352 0 0)
(-0.086214057 0 0)
(-0.10048864 0 0)
(-0.11354523 0 0)
(-0.12554066 0 0)
(-0.13669447 0 0)
(-0.011882335 0 0)
(-0.033897794 0 0)
(-0.053702158 0 0)
(-0.071425199 0 0)
(-0.087263779 0 0)
(-0.10149791 0 0)
(-0.11444901 0 0)
(-0.12629085 0 0)
(-0.1371625 0 0)
(-0.14725996 0 0)
(-0.012037463 0 0)
(-0.034355316 0 0)
(-0.054448988 0 0)
(-0.072412392 0 0)
(-0.088405669 0 0)
(-0.10269294 0 0)
(-0.11558456 0 0)
(-0.12728448 0 0)
(-0.13795077 0 0)
(-0.14774121 0 0)
(-0.15688825 0 0)
(-0.012186405 0 0)
(-0.034800119 0 0)
(-0.055180407 0 0)
(-0.07339937 0 0)
(-0.089589316 0 0)
(-0.10397508 0 0)
(-0.11683506 0 0)
(-0.12843145 0 0)
(-0.1389701 0 0)
(-0.14856415 0 0)
(-0.15738389 0 0)
(-0.16562306 0 0)
(-0.012325679 0 0)
(-0.035219717 0 0)
(-0.055888209 0 0)
(-0.074375729 0 0)
(-0.090782048 0 0)
(-0.1053163 0 0)
(-0.11823122 0 0)
(-0.12978935 0 0)
(-0.14021795 0 0)
(-0.14963954 0 0)
(-0.15821644 0 0)
(-0.16611677 0 0)
(-0.17355595 0 0)
(-0.012457103 0 0)
(-0.03562068 0 0)
(-0.056566697 0 0)
(-0.075322459 0 0)
(-0.091964256 0 0)
(-0.10668058 0 0)
(-0.11969818 0 0)
(-0.13125886 0 0)
(-0.14159225 0 0)
(-0.15087887 0 0)
(-0.1592924 0 0)
(-0.16695757 0 0)
(-0.17404922 0 0)
(-0.18072785 0 0)
(-0.012578973 0 0)
(-0.035993666 0 0)
(-0.057210858 0 0)
(-0.076237524 0 0)
(-0.093117053 0 0)
(-0.10803015 0 0)
(-0.12119249 0 0)
(-0.13280942 0 0)
(-0.143096 0 0)
(-0.15229431 0 0)
(-0.16058086 0 0)
(-0.16804723 0 0)
(-0.17487234 0 0)
(-0.18120596 0 0)
(-0.18722605 0 0)
(-0.012692184 0 0)
(-0.036345123 0 0)
(-0.057818682 0 0)
(-0.077107084 0 0)
(-0.094231519 0 0)
(-0.10935871 0 0)
(-0.1226869 0 0)
(-0.13440323 0 0)
(-0.14470315 0 0)
(-0.15382505 0 0)
(-0.16197751 0 0)
(-0.16929378 0 0)
(-0.17592996 0 0)
(-0.18201023 0 0)
(-0.1876888 0 0)
(-0.19308332 0 0)
(-0.012796256 0 0)
(-0.036668349 0 0)
(-0.058387088 0 0)
(-0.077934577 0 0)
(-0.095298066 0 0)
(-0.11063823 0 0)
(-0.12415177 0 0)
(-0.13600596 0 0)
(-0.1463655 0 0)
(-0.15544964 0 0)
(-0.16350018 0 0)
(-0.17070445 0 0)
(-0.17718446 0 0)
(-0.18304198 0 0)
(-0.18845108 0 0)
(-0.19351926 0 0)
(-0.19838259 0 0)
(-0.012891611 0 0)
(-0.036969327 0 0)
(-0.058917242 0 0)
(-0.078709535 0 0)
(-0.096310479 0 0)
(-0.11187298 0 0)
(-0.12557941 0 0)
(-0.13758647 0 0)
(-0.14804151 0 0)
(-0.15713983 0 0)
(-0.16511102 0 0)
(-0.17219264 0 0)
(-0.17853307 0 0)
(-0.18422368 0 0)
(-0.18942437 0 0)
(-0.19424116 0 0)
(-0.19879255 0 0)
(-0.20315009 0 0)
(-0.012978486 0 0)
(-0.037244128 0 0)
(-0.059407952 0 0)
(-0.07943744 0 0)
(-0.097266252 0 0)
(-0.11304134 0 0)
(-0.12694849 0 0)
(-0.13913072 0 0)
(-0.14970985 0 0)
(-0.15885763 0 0)
(-0.16680258 0 0)
(-0.17378275 0 0)
(-0.17998715 0 0)
(-0.18554764 0 0)
(-0.19056914 0 0)
(-0.19515477 0 0)
(-0.19945276 0 0)
(-0.20352457 0 0)
(-0.20746014 0 0)
(-0.013056764 0 0)
(-0.037496772 0 0)
(-0.059860357 0 0)
(-0.080109826 0 0)
(-0.098159934 0 0)
(-0.11415253 0 0)
(-0.12826043 0 0)
(-0.14062194 0 0)
(-0.15134159 0 0)
(-0.16057829 0 0)
(-0.16853799 0 0)
(-0.17544572 0 0)
(-0.18152077 0 0)
(-0.18693711 0 0)
(-0.19179782 0 0)
(-0.19619648 0 0)
(-0.20028194 0 0)
(-0.20412517 0 0)
(-0.20779947 0 0)
(-0.21133061 0 0)
(-0.013127221 0 0)
(-0.037725524 0 0)
(-0.060276022 0 0)
(-0.080734504 0 0)
(-0.098994059 0 0)
(-0.11518937 0 0)
(-0.1294984 0 0)
(-0.14205134 0 0)
(-0.15293047 0 0)
(-0.1622686 0 0)
(-0.17027467 0 0)
(-0.17715964 0 0)
(-0.18312668 0 0)
(-0.18839508 0 0)
(-0.19310841 0 0)
(-0.19736011 0 0)
(-0.20124877 0 0)
(-0.20486678 0 0)
(-0.20832345 0 0)
(-0.21162856 0 0)
(-0.21482833 0 0)
(-0.013189673 0 0)
(-0.037932923 0 0)
(-0.060655142 0 0)
(-0.08130434 0 0)
(-0.099762789 0 0)
(-0.11616284 0 0)
(-0.13066882 0 0)
(-0.14341129 0 0)
(-0.15445535 0 0)
(-0.16392102 0 0)
(-0.17200103 0 0)
(-0.17889122 0 0)
(-0.18479292 0 0)
(-0.18992364 0 0)
(-0.19447188 0 0)
(-0.19856483 0 0)
(-0.20227926 0 0)
(-0.20570339 0 0)
(-0.20896098 0 0)
(-0.21207988 0 0)
(-0.21508642 0 0)
(-0.21796516 0 0)
(-0.013245037 0 0)
(-0.038118534 0 0)
(-0.06099994 0 0)
(-0.081827699 0 0)
(-0.10047226 0 0)
(-0.11705935 0 0)
(-0.13175807 0 0)
(-0.1446947 0 0)
(-0.15591731 0 0)
(-0.16551475 0 0)
(-0.17368353 0 0)
(-0.18061877 0 0)
(-0.18649437 0 0)
(-0.19151281 0 0)
(-0.195898 0 0)
(-0.19982178 0 0)
(-0.20336973 0 0)
(-0.20663131 0 0)
(-0.20968971 0 0)
(-0.21260926 0 0)
(-0.21545154 0 0)
(-0.21817929 0 0)
(-0.22079888 0 0)
(-0.013293173 0 0)
(-0.038284111 0 0)
(-0.061310621 0 0)
(-0.082299799 0 0)
(-0.1011176 0 0)
(-0.11789111 0 0)
(-0.13277535 0 0)
(-0.14590068 0 0)
(-0.15730024 0 0)
(-0.1670456 0 0)
(-0.1753234 0 0)
(-0.18231481 0 0)
(-0.18819403 0 0)
(-0.1931442 0 0)
(-0.19737435 0 0)
(-0.20111442 0 0)
(-0.20449247 0 0)
(-0.20758129 0 0)
(-0.21045581 0 0)
(-0.21318786 0 0)
(-0.21586256 0 0)
(-0.21846321 0 0)
(-0.22097055 0 0)
(-0.22333505 0 0)
(-0.013335118 0 0)
(-0.038430342 0 0)
(-0.061590336 0 0)
(-0.082728266 0 0)
(-0.10170649 0 0)
(-0.11864766 0 0)
(-0.1337103 0 0)
(-0.14702306 0 0)
(-0.15860836 0 0)
(-0.16850197 0 0)
(-0.17689444 0 0)
(-0.1839694 0 0)
(-0.18988042 0 0)
(-0.19479275 0 0)
(-0.19891835 0 0)
(-0.20249207 0 0)
(-0.20567304 0 0)
(-0.20856863 0 0)
(-0.2112571 0 0)
(-0.21382112 0 0)
(-0.21630955 0 0)
(-0.21875277 0 0)
(-0.22116397 0 0)
(-0.223463 0 0)
(-0.22562412 0 0)
(-0.013371081 0 0)
(-0.038558375 0 0)
(-0.06183877 0 0)
(-0.083109691 0 0)
(-0.1022342 0 0)
(-0.11934074 0 0)
(-0.13457295 0 0)
(-0.1480645 0 0)
(-0.15982816 0 0)
(-0.16987998 0 0)
(-0.17840276 0 0)
(-0.18556687 0 0)
(-0.19152504 0 0)
(-0.19643912 0 0)
(-0.20049294 0 0)
(-0.20390408 0 0)
(-0.20688135 0 0)
(-0.20957971 0 0)
(-0.21207704 0 0)
(-0.21445102 0 0)
(-0.21675904 0 0)
(-0.21903733 0 0)
(-0.22132797 0 0)
(-0.2235723 0 0)
(-0.22571059 0 0)
(-0.22766759 0 0)
(-0.013401771 0 0)
(-0.038669846 0 0)
(-0.062059322 0 0)
(-0.083450663 0 0)
(-0.10270921 0 0)
(-0.11996258 0 0)
(-0.13535578 0 0)
(-0.14902002 0 0)
(-0.16096698 0 0)
(-0.17117402 0 0)
(-0.17982744 0 0)
(-0.18709929 0 0)
(-0.19312555 0 0)
(-0.1980523 0 0)
(-0.20206328 0 0)
(-0.20536706 0 0)
(-0.20817578 0 0)
(-0.21066677 0 0)
(-0.21294175 0 0)
(-0.21510058 0 0)
(-0.21721184 0 0)
(-0.21933107 0 0)
(-0.22146538 0 0)
(-0.22360892 0 0)
(-0.22572968 0 0)
(-0.22771294 0 0)
(-0.22950825 0 0)
(-0.013427805 0 0)
(-0.038765168 0 0)
(-0.062251456 0 0)
(-0.083749205 0 0)
(-0.10312798 0 0)
(-0.12052423 0 0)
(-0.13606889 0 0)
(-0.1498958 0 0)
(-0.16201406 0 0)
(-0.17237987 0 0)
(-0.18117548 0 0)
(-0.18855901 0 0)
(-0.1946614 0 0)
(-0.19962772 0 0)
(-0.20362711 0 0)
(-0.20685011 0 0)
(-0.20950508 0 0)
(-0.21178526 0 0)
(-0.21383176 0 0)
(-0.2157661 0 0)
(-0.21766471 0 0)
(-0.21958968 0 0)
(-0.22156232 0 0)
(-0.2235786 0 0)
(-0.22563893 0 0)
(-0.22764885 0 0)
(-0.22951451 0 0)
(-0.23114378 0 0)
(-0.01344934 0 0)
(-0.038847144 0 0)
(-0.062418834 0 0)
(-0.084010642 0 0)
(-0.10349834 0 0)
(-0.1210196 0 0)
(-0.13670703 0 0)
(-0.15068834 0 0)
(-0.16297819 0 0)
(-0.17349726 0 0)
(-0.18243163 0 0)
(-0.18993835 0 0)
(-0.19613311 0 0)
(-0.20114528 0 0)
(-0.20514482 0 0)
(-0.20832068 0 0)
(-0.21086319 0 0)
(-0.21295549 0 0)
(-0.21478684 0 0)
(-0.21649311 0 0)
(-0.21814599 0 0)
(-0.21984307 0 0)
(-0.22162365 0 0)
(-0.22350566 0 0)
(-0.22545446 0 0)
(-0.22743101 0 0)
(-0.22936446 0 0)
(-0.2311129 0 0)
(-0.23261098 0 0)
(-0.01346751 0 0)
(-0.038914064 0 0)
(-0.062559654 0 0)
(-0.084233644 0 0)
(-0.10381733 0 0)
(-0.12145909 0 0)
(-0.13727949 0 0)
(-0.15140444 0 0)
(-0.16385066 0 0)
(-0.17452267 0 0)
(-0.18360272 0 0)
(-0.19123459 0 0)
(-0.19752571 0 0)
(-0.20260256 0 0)
(-0.20662661 0 0)
(-0.20977236 0 0)
(-0.21222419 0 0)
(-0.21416416 0 0)
(-0.21578309 0 0)
(-0.21724122 0 0)
(-0.21864303 0 0)
(-0.22009501 0 0)
(-0.221657 0 0)
(-0.22335768 0 0)
(-0.22517922 0 0)
(-0.2270803 0 0)
(-0.22902306 0 0)
(-0.23088449 0 0)
(-0.23254511 0 0)
(-0.23390541 0 0)
(-0.013423849 0 0)
(-0.038970887 0 0)
(-0.062678674 0 0)
(-0.084421748 0 0)
(-0.10409187 0 0)
(-0.12183811 0 0)
(-0.13778286 0 0)
(-0.15204287 0 0)
(-0.16464195 0 0)
(-0.17545902 0 0)
(-0.18467864 0 0)
(-0.19244098 0 0)
(-0.19884044 0 0)
(-0.20398703 0 0)
(-0.20804182 0 0)
(-0.21117882 0 0)
(-0.21357686 0 0)
(-0.2153974 0 0)
(-0.21682047 0 0)
(-0.2180382 0 0)
(-0.21919857 0 0)
(-0.22039377 0 0)
(-0.22169261 0 0)
(-0.22317077 0 0)
(-0.22482244 0 0)
(-0.22662865 0 0)
(-0.22851849 0 0)
(-0.23042207 0 0)
(-0.23223787 0 0)
(-0.23380657 0 0)
(-0.23505823 0 0)
(-0.013366743 0 0)
(-0.038887117 0 0)
(-0.062772235 0 0)
(-0.08457584 0 0)
(-0.10432084 0 0)
(-0.12216583 0 0)
(-0.13822539 0 0)
(-0.15260993 0 0)
(-0.16534466 0 0)
(-0.17630325 0 0)
(-0.1856657 0 0)
(-0.19355857 0 0)
(-0.20006721 0 0)
(-0.20529573 0 0)
(-0.20940113 0 0)
(-0.21254371 0 0)
(-0.21489837 0 0)
(-0.21662549 0 0)
(-0.21789478 0 0)
(-0.21888239 0 0)
(-0.21977672 0 0)
(-0.22070413 0 0)
(-0.22173242 0 0)
(-0.22295616 0 0)
(-0.22440192 0 0)
(-0.22605675 0 0)
(-0.22786687 0 0)
(-0.22975852 0 0)
(-0.23166004 0 0)
(-0.23342804 0 0)
(-0.2349281 0 0)
(-0.23606315 0 0)
(-0.013313149 0 0)
(-0.038717786 0 0)
(-0.062658525 0 0)
(-0.084696047 0 0)
(-0.10450721 0 0)
(-0.12243938 0 0)
(-0.13860471 0 0)
(-0.15310532 0 0)
(-0.16597022 0 0)
(-0.17706117 0 0)
(-0.18655874 0 0)
(-0.19458217 0 0)
(-0.20120747 0 0)
(-0.20652196 0 0)
(-0.21068231 0 0)
(-0.21384418 0 0)
(-0.21618414 0 0)
(-0.21784544 0 0)
(-0.21898133 0 0)
(-0.2197746 0 0)
(-0.2204131 0 0)
(-0.22105707 0 0)
(-0.22181818 0 0)
(-0.22276506 0 0)
(-0.22394856 0 0)
(-0.22540497 0 0)
(-0.22708344 0 0)
(-0.22893175 0 0)
(-0.23084952 0 0)
(-0.2327399 0 0)
(-0.23447985 0 0)
(-0.23590301 0 0)
(-0.23694718 0 0)
(-0.013264537 0 0)
(-0.038558073 0 0)
(-0.062387102 0 0)
(-0.084544355 0 0)
(-0.10465301 0 0)
(-0.12266335 0 0)
(-0.13892653 0 0)
(-0.15353464 0 0)
(-0.16651367 0 0)
(-0.17773121 0 0)
(-0.18736331 0 0)
(-0.19551573 0 0)
(-0.2022564 0 0)
(-0.20766242 0 0)
(-0.211893 0 0)
(-0.21508734 0 0)
(-0.21742036 0 0)
(-0.21903186 0 0)
(-0.22007413 0 0)
(-0.22070667 0 0)
(-0.22110598 0 0)
(-0.22146054 0 0)
(-0.22192319 0 0)
(-0.22257823 0 0)
(-0.22347808 0 0)
(-0.22468879 0 0)
(-0.22619292 0 0)
(-0.22793513 0 0)
(-0.22983127 0 0)
(-0.23178278 0 0)
(-0.23368832 0 0)
(-0.23539172 0 0)
(-0.23675854 0 0)
(-0.23770374 0 0)
(-0.013220703 0 0)
(-0.038414917 0 0)
(-0.062136314 0 0)
(-0.084176841 0 0)
(-0.10447354 0 0)
(-0.12283915 0 0)
(-0.13919208 0 0)
(-0.15389931 0 0)
(-0.16698494 0 0)
(-0.17831975 0 0)
(-0.18807806 0 0)
(-0.19635659 0 0)
(-0.20321488 0 0)
(-0.20871473 0 0)
(-0.21301873 0 0)
(-0.21625377 0 0)
(-0.21860204 0 0)
(-0.22018906 0 0)
(-0.2211481 0 0)
(-0.22164648 0 0)
(-0.22185007 0 0)
(-0.22192886 0 0)
(-0.22207685 0 0)
(-0.22242443 0 0)
(-0.22303873 0 0)
(-0.22396501 0 0)
(-0.22522566 0 0)
(-0.2268114 0 0)
(-0.22862834 0 0)
(-0.23059682 0 0)
(-0.23259626 0 0)
(-0.23450473 0 0)
(-0.23618704 0 0)
(-0.23748715 0 0)
(-0.2383562 0 0)
(-0.013182875 0 0)
(-0.038285019 0 0)
(-0.061905404 0 0)
(-0.083834654 0 0)
(-0.10403038 0 0)
(-0.1226486 0 0)
(-0.13940188 0 0)
(-0.15419997 0 0)
(-0.16738099 0 0)
(-0.17882577 0 0)
(-0.18870706 0 0)
(-0.19710908 0 0)
(-0.20408255 0 0)
(-0.20967635 0 0)
(-0.21406381 0 0)
(-0.21735109 0 0)
(-0.21972225 0 0)
(-0.2212954 0 0)
(-0.22220284 0 0)
(-0.22259584 0 0)
(-0.22262521 0 0)
(-0.22246304 0 0)
(-0.22230272 0 0)
(-0.22231497 0 0)
(-0.22260859 0 0)
(-0.22323145 0 0)
(-0.22421164 0 0)
(-0.22557844 0 0)
(-0.22726971 0 0)
(-0.22919034 0 0)
(-0.23123287 0 0)
(-0.2332823 0 0)
(-0.23521155 0 0)
(-0.23686123 0 0)
(-0.23811317 0 0)
(-0.23889794 0 0)
(-0.013150722 0 0)
(-0.038174175 0 0)
(-0.061700648 0 0)
(-0.083520798 0 0)
(-0.10361488 0 0)
(-0.1221538 0 0)
(-0.13921399 0 0)
(-0.15444128 0 0)
(-0.16770628 0 0)
(-0.17925401 0 0)
(-0.18925177 0 0)
(-0.19777236 0 0)
(-0.20485915 0 0)
(-0.21054737 0 0)
(-0.21502068 0 0)
(-0.21836339 0 0)
(-0.22077356 0 0)
(-0.22235622 0 0)
(-0.22322142 0 0)
(-0.22352659 0 0)
(-0.22342214 0 0)
(-0.22305336 0 0)
(-0.2226031 0 0)
(-0.22227635 0 0)
(-0.22222562 0 0)
(-0.2225199 0 0)
(-0.22320576 0 0)
(-0.22429817 0 0)
(-0.22578299 0 0)
(-0.22760489 0 0)
(-0.22963228 0 0)
(-0.2317645 0 0)
(-0.23387024 0 0)
(-0.2358059 0 0)
(-0.23743625 0 0)
(-0.23862859 0 0)
(-0.23934903 0 0)
(-0.013125192 0 0)
(-0.038079259 0 0)
(-0.061521012 0 0)
(-0.083240228 0 0)
(-0.10323421 0 0)
(-0.12168923 0 0)
(-0.13868582 0 0)
(-0.15425278 0 0)
(-0.16796304 0 0)
(-0.179607 0 0)
(-0.18971288 0 0)
(-0.1983499 0 0)
(-0.20554786 0 0)
(-0.2113269 0 0)
(-0.21589069 0 0)
(-0.21929812 0 0)
(-0.22175403 0 0)
(-0.22335328 0 0)
(-0.224202 0 0)
(-0.22444664 0 0)
(-0.22422148 0 0)
(-0.2236751 0 0)
(-0.22297734 0 0)
(-0.22231978 0 0)
(-0.22190442 0 0)
(-0.22184697 0 0)
(-0.22219798 0 0)
(-0.2229865 0 0)
(-0.2242105 0 0)
(-0.22585718 0 0)
(-0.22782288 0 0)
(-0.22997578 0 0)
(-0.23219299 0 0)
(-0.23435187 0 0)
(-0.23630719 0 0)
(-0.23790497 0 0)
(-0.2390551 0 0)
(-0.23970403 0 0)
(-0.013105885 0 0)
(-0.038004938 0 0)
(-0.061370615 0 0)
(-0.082995032 0 0)
(-0.10289202 0 0)
(-0.12126237 0 0)
(-0.13819194 0 0)
(-0.15370172 0 0)
(-0.16777206 0 0)
(-0.17988493 0 0)
(-0.19009679 0 0)
(-0.19884316 0 0)
(-0.20614618 0 0)
(-0.2120155 0 0)
(-0.21667199 0 0)
(-0.22014412 0 0)
(-0.22265569 0 0)
(-0.2242912 0 0)
(-0.22513272 0 0)
(-0.22532996 0 0)
(-0.22501827 0 0)
(-0.2243246 0 0)
(-0.2234042 0 0)
(-0.2224567 0 0)
(-0.22169235 0 0)
(-0.22125526 0 0)
(-0.22123524 0 0)
(-0.22168053 0 0)
(-0.22261587 0 0)
(-0.22401525 0 0)
(-0.22582704 0 0)
(-0.22795287 0 0)
(-0.23022796 0 0)
(-0.23253842 0 0)
(-0.23475148 0 0)
(-0.23671123 0 0)
(-0.2382885 0 0)
(-0.23938584 0 0)
(-0.23997943 0 0)
(-0.013093528 0 0)
(-0.037948406 0 0)
(-0.061249013 0 0)
(-0.082788109 0 0)
(-0.10259256 0 0)
(-0.12087845 0 0)
(-0.13773696 0 0)
(-0.15318289 0 0)
(-0.16720038 0 0)
(-0.17971235 0 0)
(-0.19039878 0 0)
(-0.19924948 0 0)
(-0.20665994 0 0)
(-0.21261462 0 0)
(-0.2173629 0 0)
(-0.22090691 0 0)
(-0.22348007 0 0)
(-0.22515612 0 0)
(-0.22600909 0 0)
(-0.22618441 0 0)
(-0.22579885 0 0)
(-0.22497898 0 0)
(-0.22387935 0 0)
(-0.22267603 0 0)
(-0.22156795 0 0)
(-0.22074261 0 0)
(-0.22033521 0 0)
(-0.22040898 0 0)
(-0.22100078 0 0)
(-0.22211164 0 0)
(-0.22369917 0 0)
(-0.22570825 0 0)
(-0.22799837 0 0)
(-0.23040563 0 0)
(-0.23279969 0 0)
(-0.23506064 0 0)
(-0.23703519 0 0)
(-0.23857945 0 0)
(-0.23963903 0 0)
(-0.24017043 0 0)
(-0.037913008 0 0)
(-0.013085805 0 0)
(-0.061158567 0 0)
(-0.082621405 0 0)
(-0.1023391 0 0)
(-0.1205415 0 0)
(-0.13732823 0 0)
(-0.15270631 0 0)
(-0.16666019 0 0)
(-0.17914604 0 0)
(-0.19025128 0 0)
(-0.1995759 0 0)
(-0.20707931 0 0)
(-0.21312152 0 0)
(-0.21796566 0 0)
(-0.22158014 0 0)
(-0.22422015 0 0)
(-0.22595133 0 0)
(-0.22682414 0 0)
(-0.22698744 0 0)
(-0.22655662 0 0)
(-0.22563927 0 0)
(-0.22437543 0 0)
(-0.22294513 0 0)
(-0.22154336 0 0)
(-0.22036079 0 0)
(-0.21955447 0 0)
(-0.2192178 0 0)
(-0.21942155 0 0)
(-0.22018895 0 0)
(-0.22151012 0 0)
(-0.22331612 0 0)
(-0.2255185 0 0)
(-0.2279812 0 0)
(-0.23051259 0 0)
(-0.23299304 0 0)
(-0.2353 0 0)
(-0.2372746 0 0)
(-0.23879667 0 0)
(-0.23980939 0 0)
(-0.24029048 0 0)
(-0.061099214 0 0)
(-0.037890857 0 0)
(-0.013083223 0 0)
(-0.082495907 0 0)
(-0.10213376 0 0)
(-0.12025649 0 0)
(-0.13697007 0 0)
(-0.15227624 0 0)
(-0.16616201 0 0)
(-0.17861102 0 0)
(-0.18970483 0 0)
(-0.19945389 0 0)
(-0.20741581 0 0)
(-0.21354321 0 0)
(-0.21847501 0 0)
(-0.22216658 0 0)
(-0.22487843 0 0)
(-0.22666777 0 0)
(-0.22757333 0 0)
(-0.22774572 0 0)
(-0.22728261 0 0)
(-0.22628478 0 0)
(-0.22489237 0 0)
(-0.22327241 0 0)
(-0.22160443 0 0)
(-0.22007966 0 0)
(-0.21887576 0 0)
(-0.21811993 0 0)
(-0.21790835 0 0)
(-0.21828977 0 0)
(-0.21927431 0 0)
(-0.22082373 0 0)
(-0.22285403 0 0)
(-0.22527035 0 0)
(-0.22790306 0 0)
(-0.2305613 0 0)
(-0.23311579 0 0)
(-0.23546072 0 0)
(-0.23744425 0 0)
(-0.23893397 0 0)
(-0.23991102 0 0)
(-0.24033638 0 0)
(-0.082413395 0 0)
(-0.061061918 0 0)
(-0.037883911 0 0)
(-0.013087189 0 0)
(-0.10197911 0 0)
(-0.12002424 0 0)
(-0.13666619 0 0)
(-0.15189925 0 0)
(-0.16571101 0 0)
(-0.17811252 0 0)
(-0.18918795 0 0)
(-0.19894824 0 0)
(-0.20732 0 0)
(-0.21387214 0 0)
(-0.21889896 0 0)
(-0.22266627 0 0)
(-0.22545077 0 0)
(-0.22730681 0 0)
(-0.22825215 0 0)
(-0.22844093 0 0)
(-0.22796805 0 0)
(-0.22691643 0 0)
(-0.22541004 0 0)
(-0.22361945 0 0)
(-0.2217248 0 0)
(-0.21990093 0 0)
(-0.21831975 0 0)
(-0.21715167 0 0)
(-0.21651474 0 0)
(-0.21646586 0 0)
(-0.21705814 0 0)
(-0.21827994 0 0)
(-0.2200822 0 0)
(-0.22235465 0 0)
(-0.22497541 0 0)
(-0.22777929 0 0)
(-0.23055304 0 0)
(-0.23318106 0 0)
(-0.23556081 0 0)
(-0.23754048 0 0)
(-0.23900632 0 0)
(-0.23993994 0 0)
(-0.24031812 0 0)
(-0.10187516 0 0)
(-0.082361326 0 0)
(-0.061047731 0 0)
(-0.037896305 0 0)
(-0.013097937 0 0)
(-0.11984975 0 0)
(-0.13642105 0 0)
(-0.15157942 0 0)
(-0.16531412 0 0)
(-0.17766043 0 0)
(-0.18870174 0 0)
(-0.1984596 0 0)
(-0.20686171 0 0)
(-0.21380958 0 0)
(-0.21922695 0 0)
(-0.22307485 0 0)
(-0.22593621 0 0)
(-0.22786333 0 0)
(-0.22885636 0 0)
(-0.2290778 0 0)
(-0.22860733 0 0)
(-0.22751615 0 0)
(-0.22592606 0 0)
(-0.22399937 0 0)
(-0.22190254 0 0)
(-0.21980623 0 0)
(-0.21788282 0 0)
(-0.21630896 0 0)
(-0.21523032 0 0)
(-0.2147354 0 0)
(-0.21489759 0 0)
(-0.2157389 0 0)
(-0.21722969 0 0)
(-0.21929267 0 0)
(-0.22180733 0 0)
(-0.22464306 0 0)
(-0.22761019 0 0)
(-0.23049717 0 0)
(-0.23318554 0 0)
(-0.23559205 0 0)
(-0.23757496 0 0)
(-0.23900827 0 0)
(-0.23990663 0 0)
(-0.24023346 0 0)
(-0.11973099 0 0)
(-0.10180986 0 0)
(-0.082341289 0 0)
(-0.061063472 0 0)
(-0.037928271 0 0)
(-0.013114967 0 0)
(-0.13623446 0 0)
(-0.15131955 0 0)
(-0.16497598 0 0)
(-0.17725911 0 0)
(-0.18825872 0 0)
(-0.1980004 0 0)
(-0.20641001 0 0)
(-0.21339584 0 0)
(-0.2191901 0 0)
(-0.22340251 0 0)
(-0.2263378 0 0)
(-0.22833513 0 0)
(-0.22938377 0 0)
(-0.22964387 0 0)
(-0.22919175 0 0)
(-0.22808359 0 0)
(-0.2264249 0 0)
(-0.22437835 0 0)
(-0.22211158 0 0)
(-0.21978542 0 0)
(-0.21755694 0 0)
(-0.2155967 0 0)
(-0.21408154 0 0)
(-0.21314402 0 0)
(-0.21285422 0 0)
(-0.21325512 0 0)
(-0.21437034 0 0)
(-0.21614023 0 0)
(-0.21847908 0 0)
(-0.22124292 0 0)
(-0.22427999 0 0)
(-0.22740597 0 0)
(-0.23039282 0 0)
(-0.23313965 0 0)
(-0.23556952 0 0)
(-0.23754535 0 0)
(-0.23895165 0 0)
(-0.23980902 0 0)
(-0.24009001 0 0)
(-0.13611127 0 0)
(-0.11965646 0 0)
(-0.10178105 0 0)
(-0.082362879 0 0)
(-0.061111084 0 0)
(-0.037979232 0 0)
(-0.013138305 0 0)
(-0.15112343 0 0)
(-0.16469943 0 0)
(-0.17691524 0 0)
(-0.18786146 0 0)
(-0.19757454 0 0)
(-0.20598352 0 0)
(-0.2129933 0 0)
(-0.21882384 0 0)
(-0.22338924 0 0)
(-0.22664963 0 0)
(-0.22872416 0 0)
(-0.22983247 0 0)
(-0.23014041 0 0)
(-0.22971754 0 0)
(-0.22860419 0 0)
(-0.22690071 0 0)
(-0.22476619 0 0)
(-0.22235403 0 0)
(-0.21981957 0 0)
(-0.21731855 0 0)
(-0.21501498 0 0)
(-0.21307575 0 0)
(-0.21167363 0 0)
(-0.21092104 0 0)
(-0.21086242 0 0)
(-0.21154783 0 0)
(-0.21296181 0 0)
(-0.21503106 0 0)
(-0.21764462 0 0)
(-0.22065239 0 0)
(-0.22389251 0 0)
(-0.22716504 0 0)
(-0.23024711 0 0)
(-0.23303989 0 0)
(-0.23548703 0 0)
(-0.23745983 0 0)
(-0.23883279 0 0)
(-0.23965415 0 0)
(-0.23988723 0 0)
(-0.15099072 0 0)
(-0.13603012 0 0)
(-0.11962187 0 0)
(-0.10180544 0 0)
(-0.08242753 0 0)
(-0.061185487 0 0)
(-0.038047503 0 0)
(-0.01316727 0 0)
(-0.16448891 0 0)
(-0.17663181 0 0)
(-0.18751751 0 0)
(-0.19719114 0 0)
(-0.20558153 0 0)
(-0.21260194 0 0)
(-0.21846557 0 0)
(-0.22308866 0 0)
(-0.22667543 0 0)
(-0.22902171 0 0)
(-0.23019747 0 0)
(-0.23056232 0 0)
(-0.23017804 0 0)
(-0.22907645 0 0)
(-0.22734277 0 0)
(-0.22513483 0 0)
(-0.2226048 0 0)
(-0.21989965 0 0)
(-0.21716142 0 0)
(-0.21454344 0 0)
(-0.21221751 0 0)
(-0.21036142 0 0)
(-0.20912556 0 0)
(-0.20860174 0 0)
(-0.20882677 0 0)
(-0.20981363 0 0)
(-0.21154327 0 0)
(-0.21391296 0 0)
(-0.21680728 0 0)
(-0.22005692 0 0)
(-0.22348371 0 0)
(-0.2268948 0 0)
(-0.23005786 0 0)
(-0.23289459 0 0)
(-0.23535549 0 0)
(-0.23731718 0 0)
(-0.23866003 0 0)
(-0.23944136 0 0)
(-0.23963032 0 0)
(-0.16434378 0 0)
(-0.15090567 0 0)
(-0.13599608 0 0)
(-0.11964812 0 0)
(-0.10187911 0 0)
(-0.082532057 0 0)
(-0.061290078 0 0)
(-0.038133465 0 0)
(-0.013201801 0 0)
(-0.1764123 0 0)
(-0.18723008 0 0)
(-0.19685421 0 0)
(-0.20521844 0 0)
(-0.21223696 0 0)
(-0.21811115 0 0)
(-0.22277821 0 0)
(-0.22644211 0 0)
(-0.22908318 0 0)
(-0.23048271 0 0)
(-0.23090349 0 0)
(-0.23056758 0 0)
(-0.22948991 0 0)
(-0.22774432 0 0)
(-0.22548969 0 0)
(-0.22286564 0 0)
(-0.2200111 0 0)
(-0.21706293 0 0)
(-0.21417335 0 0)
(-0.21149835 0 0)
(-0.20920982 0 0)
(-0.20748702 0 0)
(-0.20646749 0 0)
(-0.20621238 0 0)
(-0.20673791 0 0)
(-0.20806078 0 0)
(-0.21011974 0 0)
(-0.21280033 0 0)
(-0.21596673 0 0)
(-0.21944913 0 0)
(-0.2230575 0 0)
(-0.22659259 0 0)
(-0.22983131 0 0)
(-0.2327011 0 0)
(-0.23517023 0 0)
(-0.23712243 0 0)
(-0.23843082 0 0)
(-0.23917529 0 0)
(-0.23931956 0 0)
(-0.17625837 0 0)
(-0.16424836 0 0)
(-0.15086445 0 0)
(-0.1360205 0 0)
(-0.11972796 0 0)
(-0.10200396 0 0)
(-0.082676311 0 0)
(-0.061417699 0 0)
(-0.038233745 0 0)
(-0.013240583 0 0)
(-0.18700117 0 0)
(-0.19656867 0 0)
(-0.20489451 0 0)
(-0.2118999 0 0)
(-0.21777955 0 0)
(-0.222476 0 0)
(-0.22619859 0 0)
(-0.2289272 0 0)
(-0.2305769 0 0)
(-0.23117028 0 0)
(-0.23088498 0 0)
(-0.22983927 0 0)
(-0.2280972 0 0)
(-0.2258092 0 0)
(-0.22311384 0 0)
(-0.22014256 0 0)
(-0.21701902 0 0)
(-0.21388218 0 0)
(-0.21089244 0 0)
(-0.20821493 0 0)
(-0.20602074 0 0)
(-0.20448859 0 0)
(-0.20373087 0 0)
(-0.20378621 0 0)
(-0.20465512 0 0)
(-0.20631898 0 0)
(-0.20871473 0 0)
(-0.21169896 0 0)
(-0.21513591 0 0)
(-0.21884216 0 0)
(-0.22261446 0 0)
(-0.22626395 0 0)
(-0.22956515 0 0)
(-0.23246538 0 0)
(-0.23493883 0 0)
(-0.2368761 0 0)
(-0.23815139 0 0)
(-0.23885692 0 0)
(-0.23895823 0 0)
(-0.18683512 0 0)
(-0.17615011 0 0)
(-0.16419921 0 0)
(-0.15088991 0 0)
(-0.13610856 0 0)
(-0.119866 0 0)
(-0.10217365 0 0)
(-0.082856137 0 0)
(-0.061571572 0 0)
(-0.038348305 0 0)
(-0.013283682 0 0)
(-0.19633781 0 0)
(-0.20461788 0 0)
(-0.21160224 0 0)
(-0.21746902 0 0)
(-0.22217986 0 0)
(-0.22594516 0 0)
(-0.22875253 0 0)
(-0.23050834 0 0)
(-0.23130159 0 0)
(-0.23112171 0 0)
(-0.23012118 0 0)
(-0.228395 0 0)
(-0.22609422 0 0)
(-0.22334955 0 0)
(-0.22028246 0 0)
(-0.21700772 0 0)
(-0.2136626 0 0)
(-0.21039439 0 0)
(-0.20735908 0 0)
(-0.20473516 0 0)
(-0.20270885 0 0)
(-0.20141717 0 0)
(-0.20095116 0 0)
(-0.20134219 0 0)
(-0.20256541 0 0)
(-0.20459566 0 0)
(-0.20733012 0 0)
(-0.21061905 0 0)
(-0.21431235 0 0)
(-0.21823043 0 0)
(-0.22215685 0 0)
(-0.2259069 0 0)
(-0.22926427 0 0)
(-0.23218531 0 0)
(-0.23465884 0 0)
(-0.23658043 0 0)
(-0.23782071 0 0)
(-0.23848805 0 0)
(-0.23854816 0 0)
(-0.19616228 0 0)
(-0.1867092 0 0)
(-0.17608901 0 0)
(-0.1642198 0 0)
(-0.15097496 0 0)
(-0.13625073 0 0)
(-0.12005276 0 0)
(-0.10238957 0 0)
(-0.083069136 0 0)
(-0.061742471 0 0)
(-0.038473295 0 0)
(-0.013313483 0 0)
(-0.20439016 0 0)
(-0.211344 0 0)
(-0.21719304 0 0)
(-0.22190619 0 0)
(-0.22569654 0 0)
(-0.22855529 0 0)
(-0.23040347 0 0)
(-0.23132457 0 0)
(-0.23129909 0 0)
(-0.23032446 0 0)
(-0.22862896 0 0)
(-0.22633149 0 0)
(-0.2235552 0 0)
(-0.22041856 0 0)
(-0.21702473 0 0)
(-0.21349549 0 0)
(-0.20997883 0 0)
(-0.20663051 0 0)
(-0.20361361 0 0)
(-0.20110715 0 0)
(-0.19928351 0 0)
(-0.1982773 0 0)
(-0.19815055 0 0)
(-0.19891168 0 0)
(-0.20051838 0 0)
(-0.20290972 0 0)
(-0.20598235 0 0)
(-0.20956225 0 0)
(-0.21350421 0 0)
(-0.2176205 0 0)
(-0.22168396 0 0)
(-0.22552435 0 0)
(-0.22892766 0 0)
(-0.23186542 0 0)
(-0.2343348 0 0)
(-0.23623676 0 0)
(-0.23744186 0 0)
(-0.23807114 0 0)
(-0.23807243 0 0)
(-0.20421261 0 0)
(-0.19602599 0 0)
(-0.18662875 0 0)
(-0.17609225 0 0)
(-0.16430256 0 0)
(-0.15112301 0 0)
(-0.13645158 0 0)
(-0.12029173 0 0)
(-0.10264449 0 0)
(-0.083313518 0 0)
(-0.061934019 0 0)
(-0.038513513 0 0)
(-0.013283795 0 0)
(-0.21113195 0 0)
(-0.21695052 0 0)
(-0.2216533 0 0)
(-0.22545534 0 0)
(-0.22835543 0 0)
(-0.23027413 0 0)
(-0.23129755 0 0)
(-0.23141812 0 0)
(-0.23054302 0 0)
(-0.22879727 0 0)
(-0.22651356 0 0)
(-0.22372611 0 0)
(-0.2205411 0 0)
(-0.21704956 0 0)
(-0.21337102 0 0)
(-0.20964185 0 0)
(-0.20600636 0 0)
(-0.20262972 0 0)
(-0.19969125 0 0)
(-0.19736955 0 0)
(-0.19581633 0 0)
(-0.19512712 0 0)
(-0.19536262 0 0)
(-0.19651066 0 0)
(-0.1985004 0 0)
(-0.20126624 0 0)
(-0.20467012 0 0)
(-0.20853469 0 0)
(-0.21270716 0 0)
(-0.2170083 0 0)
(-0.2211965 0 0)
(-0.22511592 0 0)
(-0.22855779 0 0)
(-0.23150507 0 0)
(-0.23396499 0 0)
(-0.23584455 0 0)
(-0.23701548 0 0)
(-0.23759605 0 0)
(-0.23752418 0 0)
(-0.21096558 0 0)
(-0.20407103 0 0)
(-0.19592562 0 0)
(-0.18660752 0 0)
(-0.17616106 0 0)
(-0.16445148 0 0)
(-0.15132308 0 0)
(-0.13669851 0 0)
(-0.12057137 0 0)
(-0.10293533 0 0)
(-0.083581705 0 0)
(-0.061971275 0 0)
(-0.038417086 0 0)
(-0.013249499 0 0)
(-0.21674846 0 0)
(-0.22143274 0 0)
(-0.22523272 0 0)
(-0.22815128 0 0)
(-0.23012515 0 0)
(-0.23123855 0 0)
(-0.23148225 0 0)
(-0.23076601 0 0)
(-0.22905061 0 0)
(-0.22663956 0 0)
(-0.22385396 0 0)
(-0.22063933 0 0)
(-0.21707712 0 0)
(-0.21327299 0 0)
(-0.2093588 0 0)
(-0.20547755 0 0)
(-0.20178314 0 0)
(-0.19844501 0 0)
(-0.19564597 0 0)
(-0.19355601 0 0)
(-0.19229884 0 0)
(-0.19197067 0 0)
(-0.1926044 0 0)
(-0.19416272 0 0)
(-0.19655152 0 0)
(-0.19967694 0 0)
(-0.20340407 0 0)
(-0.20753471 0 0)
(-0.21192574 0 0)
(-0.21639552 0 0)
(-0.22069369 0 0)
(-0.22468155 0 0)
(-0.22815562 0 0)
(-0.23110448 0 0)
(-0.23355066 0 0)
(-0.23540735 0 0)
(-0.23654596 0 0)
(-0.23705588 0 0)
(-0.23691604 0 0)
(-0.21658724 0 0)
(-0.21082903 0 0)
(-0.20396089 0 0)
(-0.19588555 0 0)
(-0.18665108 0 0)
(-0.17628909 0 0)
(-0.16465681 0 0)
(-0.15157928 0 0)
(-0.13699405 0 0)
(-0.12089077 0 0)
(-0.10325701 0 0)
(-0.083644076 0 0)
(-0.06180623 0 0)
(-0.03830806 0 0)
(-0.013210824 0 0)
(-0.2212426 0 0)
(-0.2250297 0 0)
(-0.22795832 0 0)
(-0.2299687 0 0)
(-0.23114611 0 0)
(-0.23149369 0 0)
(-0.23092307 0 0)
(-0.22938333 0 0)
(-0.22692815 0 0)
(-0.2239266 0 0)
(-0.22070095 0 0)
(-0.21709063 0 0)
(-0.21318972 0 0)
(-0.20912439 0 0)
(-0.20502413 0 0)
(-0.20104061 0 0)
(-0.19734533 0 0)
(-0.19411304 0 0)
(-0.1915107 0 0)
(-0.18970088 0 0)
(-0.18879882 0 0)
(-0.18885713 0 0)
(-0.18990323 0 0)
(-0.19187562 0 0)
(-0.1946557 0 0)
(-0.19814478 0 0)
(-0.20218068 0 0)
(-0.20656532 0 0)
(-0.21115552 0 0)
(-0.21578011 0 0)
(-0.22017493 0 0)
(-0.22422375 0 0)
(-0.22771803 0 0)
(-0.23066503 0 0)
(-0.2330934 0 0)
(-0.23494561 0 0)
(-0.23602261 0 0)
(-0.23645269 0 0)
(-0.23625185 0 0)
(-0.22108824 0 0)
(-0.21645148 0 0)
(-0.21072366 0 0)
(-0.20390769 0 0)
(-0.19589821 0 0)
(-0.18674846 0 0)
(-0.17647672 0 0)
(-0.16491996 0 0)
(-0.15187803 0 0)
(-0.1373261 0 0)
(-0.12124165 0 0)
(-0.10332016 0 0)
(-0.083437205 0 0)
(-0.061616653 0 0)
(-0.038183399 0 0)
(-0.013166499 0 0)
(-0.22485284 0 0)
(-0.22777419 0 0)
(-0.22980772 0 0)
(-0.23103811 0 0)
(-0.23146711 0 0)
(-0.23101195 0 0)
(-0.22963129 0 0)
(-0.22736956 0 0)
(-0.22425723 0 0)
(-0.22072004 0 0)
(-0.21707809 0 0)
(-0.21310588 0 0)
(-0.20891638 0 0)
(-0.20463436 0 0)
(-0.20040321 0 0)
(-0.19638341 0 0)
(-0.1927493 0 0)
(-0.18967381 0 0)
(-0.18732582 0 0)
(-0.18584378 0 0)
(-0.18531179 0 0)
(-0.18579189 0 0)
(-0.18727231 0 0)
(-0.1896686 0 0)
(-0.19284317 0 0)
(-0.19667401 0 0)
(-0.20100523 0 0)
(-0.20562285 0 0)
(-0.21039736 0 0)
(-0.21516 0 0)
(-0.21964024 0 0)
(-0.22373524 0 0)
(-0.22724882 0 0)
(-0.23018393 0 0)
(-0.2326423 0 0)
(-0.23444954 0 0)
(-0.23543447 0 0)
(-0.23579176 0 0)
(-0.23552814 0 0)
(-0.22470205 0 0)
(-0.22095484 0 0)
(-0.21634407 0 0)
(-0.21066337 0 0)
(-0.20390151 0 0)
(-0.19596907 0 0)
(-0.18690503 0 0)
(-0.17671399 0 0)
(-0.16522865 0 0)
(-0.15221901 0 0)
(-0.13769219 0 0)
(-0.12129381 0 0)
(-0.10306948 0 0)
(-0.083199396 0 0)
(-0.061406328 0 0)
(-0.038044736 0 0)
(-0.01311654 0 0)
(-0.22760876 0 0)
(-0.22965222 0 0)
(-0.23091335 0 0)
(-0.23140722 0 0)
(-0.23105277 0 0)
(-0.22980504 0 0)
(-0.22771131 0 0)
(-0.22480599 0 0)
(-0.22108206 0 0)
(-0.21703294 0 0)
(-0.21301059 0 0)
(-0.20872442 0 0)
(-0.20429009 0 0)
(-0.19983925 0 0)
(-0.19553406 0 0)
(-0.19154663 0 0)
(-0.18803939 0 0)
(-0.18517661 0 0)
(-0.18312527 0 0)
(-0.18201114 0 0)
(-0.18189941 0 0)
(-0.18281232 0 0)
(-0.18473178 0 0)
(-0.18754516 0 0)
(-0.19109783 0 0)
(-0.19526534 0 0)
(-0.1998727 0 0)
(-0.20470778 0 0)
(-0.2096487 0 0)
(-0.21453521 0 0)
(-0.21908344 0 0)
(-0.22322216 0 0)
(-0.22674063 0 0)
(-0.22975228 0 0)
(-0.23218302 0 0)
(-0.23388308 0 0)
(-0.2347846 0 0)
(-0.23506814 0 0)
(-0.23474986 0 0)
(-0.22745983 0 0)
(-0.22456663 0 0)
(-0.22084161 0 0)
(-0.21627589 0 0)
(-0.21065124 0 0)
(-0.20395079 0 0)
(-0.19608707 0 0)
(-0.18710677 0 0)
(-0.1769981 0 0)
(-0.16557744 0 0)
(-0.15259236 0 0)
(-0.13772562 0 0)
(-0.12098952 0 0)
(-0.102776 0 0)
(-0.082925498 0 0)
(-0.06117157 0 0)
(-0.037889185 0 0)