/*--------------------------------*- C++ -*----------------------------------*\
| =========                 |                                                 |
| \\      /  F ield         | OpenFOAM: The Open Source CFD Toolbox           |
|  \\    /   O peration     | Version:  v2012                                 |
|   \\  /    A nd           | Website:  www.openfoam.com                      |
|    \\/     M anipulation  |                                                 |
\*---------------------------------------------------------------------------*/
FoamFile
{
    version     2.0;
    format      ascii;
    class       surfaceScalarField;
    location    "27.8675464545396459";
    object      meshPhi;
}
// * * * * * * * * * * * * * * * * * * * * * * * * * * * * * * * * * * * * * //

dimensions      [0 3 -1 0 0 0 0];
oriented        oriented;


internalField   nonuniform List<scalar> 
18180
(
0
-0.06185022
0
-0.056269639
0
-0.1229131
5.1169931e-17
-0.051136424
0
-0.1125571
-7.3398291e-14
-0.18337671
0
-0.047330709
0
-0.10277677
0
-0.16873903
7.0770713e-14
-0.24088225
2.5940525e-17
-0.044566496
3.8129535e-14
-0.094670517
0
-0.1545005
0
-0.22274016
6.8184353e-14
-0.29464259
0
-0.042400533
3.8137738e-14
-0.088486401
-3.6738144e-14
-0.14245814
-7.0731662e-14
-0.20517551
0
-0.27339249
-6.5646557e-14
-0.34357902
0
-0.040532534
-3.8146827e-14
-0.083625299
3.6744696e-14
-0.13272382
0
-0.18957064
-6.8146318e-14
-0.25292808
0
-0.31992167
-6.3246549e-14
-0.38867972
0
-0.038762112
0
-0.079381799
3.6726889e-14
-0.12466587
-3.5375786e-14
-0.176385
-6.8177194e-14
-0.23440264
0
-0.29722471
0
-0.36269748
3.6342417e-17
-0.42950148
0
-0.037039622
0
-0.075459479
3.6760356e-14
-0.11770346
-2.5132252e-17
-0.16533427
0
-0.21835282
0
-0.27633754
6.3295286e-14
-0.33808624
0
-0.40162595
0
-0.46680094
0
-0.035351479
-3.8175677e-14
-0.071708656
0
-0.11135253
3.5413951e-14
-0.15571711
-3.4109771e-14
-0.2045465
2.2794507e-17
-0.25775701
3.1650161e-14
-0.31518695
-6.093998e-14
-0.37539354
0
-0.43702574
2.991498e-17
-0.50037463
0
-0.033702608
0
-0.068088034
7.352896e-14
-0.10536168
3.5421196e-14
-0.1469719
2.4299695e-17
-0.19240737
0
-0.24138692
3.1652626e-14
-0.29431187
0
-0.35077449
-5.8710467e-14
-0.40937181
0
-0.46910583
5.4520203e-14
-0.53115422
0
-0.032097549
-3.8167232e-14
-0.064583784
0
-0.099630189
0
-0.13880255
3.4096993e-14
-0.18140069
0
-0.22682329
3.1634319e-14
-0.27551343
0
-0.32791276
1.7762483e-17
-0.38331661
0
-0.44022099
0
-0.4983193
2.4718647e-17
-0.55892616
1.9816255e-14
-0.030532965
0
-0.061194615
0
-0.094115997
0
-0.13104357
-3.4103089e-14
-0.17116334
-6.5737467e-14
-0.21359453
3.1658504e-14
-0.25859439
0
-0.30691424
2.9375749e-14
-0.35874791
-2.8298388e-14
-0.41295922
0
-0.46829478
0
-0.52476897
5.0607964e-14
-0.58429135
0
-0.029007634
0
-0.057917311
3.6801513e-14
-0.088809264
0
-0.12363573
-3.4109224e-14
-0.16150723
-3.2850932e-14
-0.20134569
0
-0.24325164
3.0497029e-14
-0.28790903
-2.9376926e-14
-0.33603264
1.6681107e-17
-0.38721296
-1.4863471e-17
-0.44003589
0
-0.49367468
0
-0.54874377
0
-0.60712514
1.9839705e-14
-0.027522256
0
-0.054756574
0
-0.083712387
0
-0.11655575
0
-0.15234215
0
-0.18984836
0
-0.22913173
-3.0480134e-14
-0.27075847
0
-0.31544484
2.828298e-14
-0.36322823
0
-0.41324953
-2.6263843e-14
-0.46450701
0
-0.51665901
0
-0.57045403
1.8534016e-17
-0.62806599
0
-0.026079747
1.371328e-17
-0.051715469
-1.8395311e-14
-0.078828724
0
-0.10980302
0
-0.14362643
0
-0.17896883
0
-0.21593238
0
-0.25501874
0
-0.29673821
1.7250285e-17
-0.3413058
-2.7262413e-14
-0.38823599
2.6263544e-14
-0.43683546
2.5290542e-14
-0.48663551
0
-0.53743471
0
-0.59020611
0
-0.64698309
0
-0.024678431
1.9102341e-14
-0.04879495
1.841136e-14
-0.074167737
0
-0.10337431
1.7063476e-14
-0.13534677
0
-0.16864254
0
-0.20347004
0
-0.24033274
0
-0.27959525
0
-0.32139096
0
-0.36525856
-2.6262861e-14
-0.41081651
0
-0.45808072
2.4366413e-14
-0.50662794
-4.6957498e-14
-0.55630933
0
-0.60812113
0
-0.66428651
-1.6209686e-17
-0.023319363
1.9119176e-14
-0.045994439
-3.6816314e-14
-0.069732691
1.3113506e-17
-0.097271578
1.2819333e-17
-0.12749298
0
-0.15883681
0
-0.19164301
0
-0.22648734
1.898524e-17
-0.26365075
0
-0.30301447
0
-0.34411648
0
-0.38672623
-2.5300443e-14
-0.43110839
1.1251569e-17
-0.47730659
0
-0.52477794
0
-0.57340861
-4.3616828e-14
-0.62439003
1.3863658e-17
-0.67989482
0
-0.022004966
3.8230154e-14
-0.043309345
0
-0.06552262
0
-0.091492959
1.7081796e-14
-0.12005004
-1.643785e-14
-0.14953158
1.5830878e-14
-0.18040462
0
-0.21333252
0
-0.24858582
0
-0.28581785
0
-0.32444856
0
-0.36438084
0
-0.40595756
-2.4373853e-14
-0.44947696
1.0244227e-17
-0.49477002
0
-0.54125899
0
-0.58896073
-4.2014705e-14
-0.6391672
0
-0.69421123
0
-0.020738388
0
-0.040737335
-1.8420067e-14
-0.06152771
1.7740833e-14
-0.086028548
1.7084402e-14
-0.11300413
1.6451815e-14
-0.14070768
-1.5843639e-14
-0.16973298
0
-0.20081398
0
-0.23426691
0
-0.26961186
2.7261821e-14
-0.30604248
0
-0.34349891
0
-0.38260775
2.4371648e-14
-0.42356481
-2.3481921e-14
-0.46628484
9.3565503e-18
-0.51070189
0
-0.55628718
0
-0.60309214
0
-0.65260905
1.1470206e-17
-0.70715042
0
-0.019521988
1.912694e-14
-0.038280523
0
-0.057743241
-1.3436278e-17
-0.080866237
0
-0.1063389
0
-0.13234883
1.0694921e-17
-0.15961285
0
-0.18890919
0
-0.2206173
0
-0.25422873
2.7262413e-14
-0.28873567
0
-0.32394697
0
-0.3607596
0
-0.39950136
2.3479109e-14
-0.43976001
2.2613493e-14
-0.48168577
8.6095524e-18
-0.52529516
0
-0.57000149
0
-0.61594946
0
-0.66480077
-3.7603342e-14
-0.71896056
0
-0.018357525
0
-0.035941382
0
-0.054164442
1.7732272e-14
-0.075991348
-1.7075825e-14
-0.10003877
0
-0.12443759
1.5847601e-14
-0.15002843
0
-0.177605
9.9373192e-18
-0.20761155
0
-0.23956931
0
-0.27235016
0
-0.30555827
0
-0.34013181
0
-0.37692554
0
-0.41529328
2.2619879e-14
-0.45475484
0
-0.49588364
0
-0.53869656
-2.0236661e-14
-0.58249735
0
-0.62759488
0
-0.67582771
0
-0.72959627
-8.3601755e-18
-0.017246352
0
-0.033718191
0
-0.050785778
1.7748037e-14
-0.071388268
3.4182547e-14
-0.094079019
0
-0.11695605
1.5849459e-14
-0.14096423
0
-0.16688925
0
-0.19523397
9.572419e-18
-0.22558729
1.3623633e-14
-0.25676113
0
-0.2881792
0
-0.32070708
-2.4351129e-14
-0.35557173
0
-0.39232721
0
-0.42993275
2.1792677e-14
-0.46858155
2.0992564e-14
-0.5089723
7.2686458e-18
-0.55095106
1.9506923e-14
-0.59386119
3.7603432e-14
-0.638135
0
-0.68580939
0
-0.73931935
0
-0.016189262
9.5594157e-15
-0.031609113
0
-0.047599397
0
-0.067040334
0
-0.088440091
0
-0.10988335
-1.5861907e-14
-0.13240312
1.0216658e-17
-0.15675063
-1.4710534e-14
-0.18347424
9.6859175e-18
-0.21225858
1.3632827e-14
-0.24188903
-7.4067796e-18
-0.27167883
0
-0.30236392
2.4348826e-14
-0.33521109
4.6927047e-14
-0.37031719
0
-0.40658621
0
-0.44341986
0
-0.48136055
2.0227151e-14
-0.5209945
6.6315985e-18
-0.56213842
0
-0.60415738
9.788706e-18
-0.64765527
0
-0.69482506
0
-0.74809288
0
-0.015185424
0
-0.029612588
0
-0.044595559
0
-0.062935019
0
-0.083103966
0
-0.10319928
0
-0.12432457
-1.5267068e-14
-0.14717633
0
-0.17232405
-2.8314942e-14
-0.19956626
1.3633512e-14
-0.22769665
-1.3121876e-14
-0.25593702
-6.5485344e-18
-0.28492514
0
-0.31586517
0
-0.34918369
1.1250232e-17
-0.38407431
-2.1784212e-14
-0.41965072
0
-0.45585437
-2.0221793e-14
-0.49311018
0
-0.5319904
6.0463052e-18
-0.5723012
0
-0.61348037
-3.4914115e-14
-0.65622668
0
-0.70296114
0
-0.75606806
-8.4295698e-18
-0.014233644
-9.5678017e-15
-0.027725757
-9.2096624e-15
-0.041766164
-8.876719e-15
-0.059060164
0
-0.078056358
0
-0.09688621
1.5854441e-14
-0.11670514
0
-0.13814381
0
-0.16177185
0
-0.18750219
1.3625366e-14
-0.21416506
7.4866964e-18
-0.24090359
1.2644539e-14
-0.26831311
-1.2172627e-14
-0.2975233
0
-0.32899646
0
-0.36224066
0
-0.39658674
0
-0.43166355
0
-0.46729327
-1.9484495e-14
-0.50388308
-6.3509717e-18
-0.54201407
5.4853227e-18
-0.58153014
0
-0.62186075
3.3656498e-14
-0.66392228
0
-0.71026147
0
-0.76323641
0
-0.013332168
-9.5683878e-15
-0.025945375
0
-0.039104308
0
-0.055405389
-6.9006312e-18
-0.07328524
0
-0.090927365
0
-0.10952184
-1.5259913e-14
-0.12962889
0
-0.15179988
0
-0.17605454
1.3634998e-14
-0.20128422
0
-0.22655959
-1.2637843e-14
-0.25245234
-1.2171958e-14
-0.28006793
6.0840392e-18
-0.309809
0
-0.34129541
2.1775025e-14
-0.37414043
0
-0.40808454
0
-0.4427131
0
-0.47780579
-1.8774735e-14
-0.51371946
1.809809e-14
-0.55112766
-3.4893748e-14
-0.58984681
-1.6819595e-14
-0.62940252
-3.2429686e-14
-0.67080866
0
-0.71683951
3.0140781e-14
-0.76977751
0
-0.012479584
6.913345e-18
-0.024267699
-6.3109969e-18
-0.036603391
0
-0.051961295
-1.7092386e-14
-0.068780036
-8.2269855e-15
-0.085306563
-1.5846514e-14
-0.10275282
0
-0.12160641
0
-0.14238592
0
-0.16520884
0
-0.18904454
0
-0.21289327
0
-0.23731912
0
-0.26343966
-2.3440588e-14
-0.29160496
1.1293119e-14
-0.3214134
0
-0.35258943
0
-0.38514384
-2.0204537e-14
-0.41876972
0
-0.45294649
0
-0.48743157
1.809755e-14
-0.5226794
-5.2274438e-18
-0.55936812
-1.681394e-14
-0.59734165
3.7464492e-18
-0.63613957
-3.1255503e-14
-0.67697588
0
-0.72274847
-2.9044994e-14
-0.77568792
0
-0.011673284
0
-0.022690172
0
-0.034258073
8.8713813e-15
-0.048719642
8.5432503e-15
-0.064530038
0
-0.08000859
-5.3574108e-18
-0.09637566
0
-0.11405273
0
-0.13350798
-1.4151618e-14
-0.1549451
0
-0.17743053
0
-0.19989804
1.2644228e-14
-0.22289877
0
-0.24759475
-1.171621e-14
-0.27431804
5.8548868e-18
-0.30259532
-1.0883285e-14
-0.33214075
0
-0.3631573
0
-0.39549769
1.9473766e-14
-0.42868943
0
-0.46234281
1.8090815e-14
-0.49622486
0
-0.53078798
-1.6812229e-14
-0.56679925
1.6208471e-14
-0.60405023
-1.5629828e-14
-0.64217372
0
-0.68247341
0
-0.72807293
-2.7994646e-14
-0.78106846
0
-0.010904419
0
-0.021209125
9.2180954e-15
-0.032060665
-1.7743557e-14
-0.045672814
8.5437024e-15
-0.060525198
-8.22809e-15
-0.075019198
-7.9244121e-15
-0.09036936
7.6318613e-15
-0.10694188
0
-0.12514505
0
-0.14524389
0
-0.16642706
0
-0.1875632
-6.3983301e-18
-0.20918452
1.21768e-14
-0.2325114
-1.1721566e-14
-0.25788409
1.1296258e-14
-0.28476487
0
-0.31279165
1.0478221e-14
-0.34222
0
-0.37315496
0
-0.40516058
-1.8761835e-14
-0.43787164
0
-0.4709779
0
-0.50420123
0
-0.53811485
-4.2416538e-18
-0.57347284
3.5886894e-18
-0.61006313
-3.012133e-14
-0.64752143
2.9039801e-14
-0.68737659
0
-0.73285509
0
-0.78593128
-4.9913088e-05
-0.011935405
0
-0.019808451
0
-0.030004354
-8.87939e-15
-0.042808439
0
-0.056754025
-5.794739e-18
-0.070324602
-7.9249081e-15
-0.084714415
7.6323746e-15
-0.10024867
-7.354523e-15
-0.11727452
0
-0.13608704
-9.1251924e-18
-0.1560163
-1.3124144e-14
-0.17587926
0
-0.1961702
0
-0.21817197
1.1727202e-14
-0.24226422
-1.1295206e-14
-0.26784778
5.5371986e-18
-0.29446673
0
-0.3223702
0
-0.35185578
0
-0.38259907
0
-0.4141351
1.8076536e-14
-0.44632839
0
-0.47884049
0
-0.51142612
-1.6190684e-14
-0.54470334
-3.8162532e-18
-0.57946002
3.205663e-18
-0.61540454
1.4515632e-14
-0.65228576
0
-0.69175159
0
-0.73719335
-2.6007098e-14
-0.79041297
-8.3720657e-05
-0.011876332
-0.0001355804
-0.021511504
0
-0.028073207
0
-0.040114955
0
-0.053203965
-8.2289564e-15
-0.065910614
-7.9307164e-15
-0.079393181
1.5270765e-14
-0.093950551
-7.3499868e-15
-0.10987062
-4.91051e-18
-0.12745548
0
-0.14617958
0
-0.16482834
0
-0.18384728
0
-0.2045671
-6.4526703e-18
-0.22743023
6.226745e-18
-0.25178545
0
-0.27709148
5.1881947e-18
-0.30357297
0
-0.33155516
-9.7275098e-15
-0.36096103
0
-0.39134666
0
-0.42241446
0
-0.45409054
0
-0.4860017
-1.6187552e-14
-0.5179371
1.5607588e-14
-0.55062081
0
-0.58480086
2.9017837e-14
-0.62015751
0
-0.65649756
-2.6973324e-14
-0.695676
0
-0.74116178
-2.5067057e-14
-0.79452843
-0.00010326084
-0.011811416
-0.00022748249
-0.021469922
-0.00020425186
-0.030317316
8.8723915e-15
-0.037576056
0
-0.049861631
0
-0.061762871
-7.9203806e-15
-0.074388752
-5.1064308e-18
-0.088026711
-7.3503853e-15
-0.10290916
4.8727912e-18
-0.1193265
-4.566135e-18
-0.13689668
0
-0.15439134
0
-0.1722009
0
-0.19168383
0
-0.21336072
1.1287179e-14
-0.23654436
5.7491286e-18
-0.26059306
0
-0.28573073
4.9314677e-18
-0.31224794
0
-0.34020478
-4.243572e-18
-0.36942337
0
-0.3994519
0
-0.43005404
1.6782061e-14
-0.46118509
0
-0.4924817
1.5599834e-14
-0.52378953
1.5041855e-14
-0.5559025
-3.0386114e-18
-0.58955666
2.522086e-18
-0.6243545
1.3482622e-14
-0.66024532
3.5569344e-18
-0.69923205
0
-0.74483078
0
-0.79833465
-0.00011042546
-0.011744547
-0.00028072976
-0.021415186
-0.00034332396
-0.030415543
-0.00027064195
-0.040315541
0
-0.046699428
0
-0.057866913
0
-0.069684587
7.6386616e-15
-0.082457863
-7.3556571e-15
-0.096369924
-7.0826981e-15
-0.11168126
-6.8155194e-15
-0.12814752
-6.5665397e-15
-0.14454639
0
-0.16121044
0
-0.17950712
0
-0.20003724
-1.1292945e-14
-0.22209563
-2.1746753e-14
-0.24492856
0
-0.26878779
0
-0.29392605
4.6261532e-18
-0.32040274
4.3150315e-18
-0.34829578
0
-0.377362
0
-0.40702271
0
-0.43709379
0
-0.4676629
0
-0.49833242
0
-0.52902096
1.4497053e-14
-0.5606112
-2.6862572e-18
-0.5937678
2.2239649e-18
-0.6280697
-2.599274e-14
-0.66356884
0
-0.70248037
0
-0.74822875
0
-0.80183876
-0.00010711921
-0.011676482
-0.00030042561
-0.02135766
-0.00042454044
-0.030493006
-0.00045584692
-0.040594219
-0.0003351961
-0.049727517
0
-0.054188634
0
-0.065265356
0
-0.077225201
7.3559259e-15
-0.090232174
-4.7898508e-18
-0.10450263
6.8203893e-15
-0.11991563
-6.5631007e-15
-0.13527172
-3.0349551e-18
-0.1508542
0
-0.16801553
0
-0.18743934
1.129245e-14
-0.20841705
0
-0.23006837
1.0469157e-14
-0.25269196
-1.0084435e-14
-0.27653742
-9.7149053e-15
-0.30159662
0
-0.32806114
4.1667066e-18
-0.35603608
-8.6966954e-15
-0.38490688
0
-0.41403874
0
-0.44356166
-1.5577922e-14
-0.47353746
0
-0.5035799
0
-0.53368442
0
-0.5647821
-1.3473848e-14
-0.59749499
-1.2990594e-14
-0.6313385
1.2527611e-14
-0.66655156
2.4156642e-14
-0.70547959
0
-0.75140985
-2.244644e-14
-0.80509132
-9.5259425e-05
-0.011607907
-0.00029169616
-0.021297928
-0.00045530971
-0.030560241
-0.00056474906
-0.040838675
-0.0005648261
-0.050189713
-0.00038687961
-0.057284605
0
-0.061096071
0
-0.072311267
0
-0.084473984
4.7545144e-18
-0.097775092
-4.5364803e-18
-0.11218246
-6.5670059e-15
-0.12654651
-6.3195257e-15
-0.14110799
6.0849391e-15
-0.15718826
0
-0.17554608
0
-0.1954863
-1.0868625e-14
-0.21598677
0
-0.23740919
-1.008786e-14
-0.26002739
0
-0.28375729
0
-0.30879183
1.8040505e-14
-0.3354721
0
-0.36352645
-8.3786627e-15
-0.39200317
0
-0.42053314
0
-0.44946659
1.5016718e-14
-0.47885223
0
-0.50827547
0
-0.53782136
-1.3464552e-14
-0.56846741
-1.2986867e-14
-0.60077307
-1.2521403e-14
-0.6342221
1.4384455e-18
-0.66924372
-2.3281125e-14
-0.70827316
0
-0.75438725
-2.1635312e-14
-0.8081028
-7.6760061e-05
-0.011540191
-0.00025969956
-0.021237108
-0.00044308367
-0.03061572
-0.00060685076
-0.04105666
-0.00070017697
-0.050594256
-0.00065187882
-0.057953128
-0.000426121
-0.064119633
0
-0.067679405
0
-0.07907267
0
-0.091472591
4.5212468e-18
-0.10493342
-6.5672144e-15
-0.11834786
-6.3196313e-15
-0.13194887
-6.084953e-15
-0.1470014
-3.4802158e-18
-0.1643327
0
-0.18328041
-1.0867914e-14
-0.20266185
0
-0.222911
0
-0.24435282
-9.7107952e-15
-0.26683235
9.359153e-15
-0.29049738
0
-0.31580408
4.2609367e-18
-0.34284482
0
-0.37070303
0
-0.39853933
0
-0.42646525
0
-0.45483816
0
-0.48362326
0
-0.51245881
0
-0.54146541
0
-0.57169864
-1.2517717e-14
-0.60365079
1.2070807e-14
-0.63678165
-2.327642e-14
-0.67170587
0
-0.71089159
-2.1633011e-14
-0.75719586
2.0856017e-14
-0.81085128
-5.3492703e-05
-0.011474286
-0.00020953386
-0.021176854
-0.00039539237
-0.030659382
-0.00059164765
-0.041246937
-0.00075275748
-0.050956584
-0.00080806579
-0.058540153
-0.00071797074
-0.065003241
-0.0004588395
-0.070543726
0
-0.073987357
0
-0.085568094
0
-0.098143108
-6.5637935e-15
-0.11065549
-2.9440706e-18
-0.12334948
0
-0.13743053
5.8626809e-15
-0.15377504
-3.6492967e-18
-0.17177222
0
-0.19006931
0
-0.20917536
1.00852e-14
-0.22948289
0
-0.25076961
9.3525629e-15
-0.27314891
-9.0100723e-15
-0.29709632
-8.6814665e-15
-0.32287759
-8.366568e-15
-0.34993897
0
-0.37727522
7.7748798e-15
-0.40449113
0
-0.43187004
0
-0.45968787
1.3947071e-14
-0.48791302
0
-0.51615857
0
-0.54466122
0
-0.57452316
0
-0.60616974
1.343762e-18
-0.63906966
0
-0.67396394
2.3770789e-18
-0.71336388
0
-0.75979269
2.0102284e-14
-0.81334814
-2.7306396e-05
-0.011411147
-0.00014623135
-0.021118131
-0.00031974945
-0.030691785
-0.00052893881
-0.041408389
-0.00073432565
-0.051275488
-0.00086878586
-0.059065784
-0.00088988277
-0.065778962
-0.00077305315
-0.07167996
-0.00048660244
-0.076598493
0
-0.08001998
0
-0.091783895
0
-0.1034481
-6.3197964e-15
-0.11528387
-6.0879886e-15
-0.12844891
5.8590869e-15
-0.1438463
-5.6419564e-15
-0.16093216
5.4334175e-15
-0.17818404
0
-0.19617949
-1.0084126e-14
-0.2153906
9.7123682e-15
-0.23553465
-4.3802721e-18
-0.25668757
-4.2712e-18
-0.2793232
0
-0.30376873
-1.6729639e-14
-0.32977043
3.796425e-18
-0.35648314
0
-0.38321146
7.4916201e-15
-0.40990412
0
-0.43677824
-1.39336e-14
-0.46407653
0
-0.49172849
0
-0.51941853
1.2504154e-14
-0.54743893
-1.2057999e-14
-0.57696855
0
-0.60838692
1.2023641e-18
-0.641127
0
-0.67606165
-2.084824e-14
-0.71567093
0
-0.76220759
1.9375761e-14
-0.81558152
-0.011351126
0
-7.4760627e-05
-0.02106166
-0.00022367459
-0.030713312
-0.00042847721
-0.041540683
-0.00065687564
-0.051549948
-0.00084759453
-0.059528233
-0.00095669224
-0.066468232
-0.0009581406
-0.072680455
-0.00081987312
-0.077997
-0.00050981974
-0.082280008
0
-0.085806605
0
-0.096704693
0
-0.10772811
3.0014892e-18
-0.12003351
-3.6149966e-18
-0.13452186
0
-0.1507301
-1.0866439e-14
-0.16697663
-2.7620288e-18
-0.18389765
0
-0.20205358
0
-0.22109714
0
-0.2410727
0
-0.26246497
0
-0.28560199
0
-0.3103516
8.0561679e-15
-0.33614125
3.3894572e-18
-0.36233644
0
-0.38858341
-2.5062914e-18
-0.41481993
0
-0.4412314
0
-0.46801502
1.2955594e-14
-0.4951268
0
-0.52226434
1.2050931e-14
-0.54984199
1.1624387e-14
-0.57908064
0
-0.6103301
2.1618904e-14
-0.64298157
0
-0.67799816
0
-0.71783435
0
-0.76437899
1.8675447e-14
-0.81757625
-0.021008156
0
-0.011294835
2.703628e-05
-0.00011460817
-0.030723598
-0.00030021712
-0.04164358
-0.00053243685
-0.051778579
-0.00075828393
-0.05992544
-0.00093330969
-0.067069973
-0.0010299336
-0.073566234
-0.0010161731
-0.079232118
-0.00085889087
-0.083937383
-0.0005289331
-0.087645686
6.5642341e-15
-0.090357364
0
-0.10065906
0
-0.1121541
5.8626366e-15
-0.12577391
-5.6456429e-15
-0.1411361
-5.4362115e-15
-0.15641829
-5.2319778e-15
-0.17230485
0
-0.18944635
0
-0.20743224
0
-0.22627439
4.273521e-18
-0.24647662
0
-0.26836177
-8.3602879e-15
-0.29182072
0
-0.31645963
-7.7647469e-15
-0.34185681
-7.4820308e-15
-0.36761609
2.633626e-18
-0.39344251
0
-0.41928782
0
-0.4452566
0
-0.47154478
-1.248726e-14
-0.4981157
0
-0.52474318
0
-0.55188719
0
-0.58088487
1.080478e-14
-0.61204
1.0419776e-14
-0.64466386
1.0045562e-14
-0.67980201
1.9371205e-14
-0.71978922
0
-0.76633889
0
-0.81929199
-0.030722264
0
-0.020959439
7.4275868e-05
-0.011243285
5.2449545e-05
-0.00015405395
-0.041716298
-0.00037326961
-0.051960281
-0.00061474632
-0.060255499
-0.00083488069
-0.067582592
-0.0010046112
-0.074335176
-0.0010922888
-0.080321692
-0.0010644198
-0.085403438
-0.00089078479
-0.089551578
-0.00054134416
-0.091686672
0
-0.094012991
0
-0.10478208
0
-0.11757339
-5.6415669e-15
-0.13211367
-3.1665711e-18
-0.1464797
0
-0.16137561
5.0408664e-15
-0.17754495
0
-0.19451535
0
-0.21226504
0
-0.23132709
-8.6704385e-15
-0.25202474
0
-0.27422978
1.6101582e-14
-0.29762884
7.7606516e-15
-0.32198134
7.4805742e-15
-0.34703919
2.8093382e-18
-0.37242774
-6.9514582e-15
-0.39788921
0
-0.42334716
0
-0.44887961
0
-0.47468405
0
-0.50075477
0
-0.52686472
0
-0.55362135
-1.0799817e-14
-0.58242787
1.0415036e-14
-0.6135359
1.0042795e-14
-0.6461952
9.6828432e-15
-0.68143102
1.8671362e-14
-0.72156175
0
-0.76804118
1.7349634e-14
-0.82076774
-0.041757144
0
-0.030712014
0.00011434657
-0.020916739
0.00014436217
-0.011197852
7.456065e-05
-0.00019165377
-0.052093898
-0.0004310612
-0.060517258
-0.00067680529
-0.068003743
-0.00089856942
-0.074985562
-0.0010653787
-0.081262215
-0.0011439793
-0.086695567
-0.0011035688
-0.091235048
-0.00091115529
-0.093809669
-0.00054585528
-0.094801829
0
-0.097862585
0
-0.10989264
0
-0.12363264
3.1804488e-18
-0.13712972
-5.2342552e-15
-0.15108464
0
-0.1663223
4.854129e-15
-0.18232205
4.6723785e-15
-0.1990209
-8.9997337e-15
-0.21698649
0
-0.23655371
0
-0.257567
-8.0496399e-15
-0.27972438
-7.7568632e-15
-0.30289906
-7.472903e-15
-0.32704676
0
-0.35181556
0
-0.3768322
2.2171697e-18
-0.4019497
0
-0.42703478
-1.2464677e-14
-0.45213505
0
-0.47748245
1.9900126e-18
-0.50304297
0
-0.52867692
0
-0.55506825
8.2713349e-19
-0.58372803
1.0039364e-14
-0.61485947
9.6818767e-15
-0.64757478
0
-0.68291398
1.7996741e-14
-0.72311166
0
-0.76953813
-1.6721183e-14
-0.82200013
-0.052177744
0
-0.041771697
0.00015407203
-0.030693627
0.00022267214
-0.02088055
0.00020560148
-0.011158965
9.169801e-05
-0.00022138885
-0.060710519
-0.00047455945
-0.068332628
-0.00072832921
-0.075514503
-0.00095279363
-0.082050486
-0.0011156162
-0.087809174
-0.0011858115
-0.092718296
-0.0011281767
-0.095667555
-0.0009181713
-0.097146524
-0.00054762129
-0.098144366
5.8589383e-15
-0.10268626
0
-0.11566005
0
-0.12833778
5.2340672e-15
-0.14140324
-2.7749394e-18
-0.15575282
0
-0.17082454
2.1636856e-18
-0.1865163
4.4991541e-15
-0.2034288
0
-0.22191707
0
-0.24179741
0
-0.26275632
0
-0.28470595
0
-0.30775741
7.2025729e-15
-0.33175611
0
-0.35621636
6.6958768e-15
-0.38089263
-6.4556037e-15
-0.40567474
0
-0.43036601
0
-0.45505328
0
-0.4799517
0
-0.50503233
0
-0.53019411
-1.040574e-14
-0.55626998
1.003585e-14
-0.58483431
-9.6778909e-15
-0.61601706
6.8424714e-19
-0.64881777
8.9961624e-15
-0.68420466
0
-0.72448002
0
-0.77079052
1.6117603e-14
-0.82303125
-0.060832563
0
-0.052221756
0.00019189262
-0.041760389
0.00030029772
-0.030664851
0.00031764865
-0.020852168
0.00025336449
-0.011127484
0.00010226031
-0.00024372902
-0.06856843
-0.00051060429
-0.07592007
-0.00077215987
-0.08268347
-0.00099759029
-0.088740878
-0.0011561317
-0.093997537
-0.0012116087
-0.097301155
-0.001136309
-0.099197629
-0.00092120495
-0.10080104
-0.00055213363
-0.10246684
0
-0.10813598
0
-0.12007277
5.2312246e-15
-0.13230086
2.7922584e-18
-0.145803
-2.5187482e-18
-0.1599947
0
-0.17472539
0
-0.19062828
-4.334644e-15
-0.20808245
0
-0.22688511
0
-0.24669899
7.7502083e-15
-0.26743895
0
-0.28929749
0
-0.31235575
-6.9362623e-15
-0.33618923
0
-0.36030623
-1.2902565e-14
-0.38463822
6.2234411e-15
-0.40906197
0
-0.4333719
0
-0.45765862
0
-0.48212343
-1.077885e-14
-0.50672606
0
-0.53146142
0
-0.5572543
0
-0.58576499
9.3281336e-15
-0.61704031
5.9721206e-19
-0.64989911
1.7343077e-14
-0.68533517
1.0760796e-18
-0.72561797
0
-0.7718448
-1.5533881e-14
-0.82383099
-0.068708127
0
-0.060898048
0.00022181793
-0.052225746
0.0003742035
-0.0417171
0.00042865645
-0.030625231
0.00039201937
-0.020832895
0.00028309791
-0.011104484
0.00010461846
-0.00026219126
-0.076200087
-0.00054120582
-0.083158023
-0.00080830213
-0.089486321
-0.0010336169
-0.095068781
-0.0011807869
-0.098706124
-0.0012197723
-0.10099297
-0.0011400762
-0.10313265
-0.00092928758
-0.10548527
-0.00055985049
-0.10736502
0
-0.11226739
0
-0.12374984
-5.0399492e-15
-0.13644214
4.8532787e-15
-0.14979729
-2.1367719e-18
-0.16361964
8.9980934e-15
-0.17855728
4.3339265e-15
-0.19502288
4.1720203e-15
-0.21279492
0
-0.23151441
0
-0.25109041
-7.4614542e-15
-0.27174641
0
-0.29368986
0
-0.31674242
0
-0.34033398
0
-0.36410051
-6.2160451e-15
-0.3880842
5.9980475e-15
-0.41215006
-1.4041216e-18
-0.43607446
-1.1162893e-14
-0.45996706
0
-0.48401484
0
-0.50817249
-1.0024658e-14
-0.53249129
0
-0.55806113
-9.3246548e-15
-0.58656263
8.9915912e-15
-0.61792259
8.6699433e-15
-0.65083606
0
-0.68626413
0
-0.72656998
-1.5532969e-14
-0.77267946
0
-0.8244423
-0.076351718
0
-0.068771721
0.00024421501
-0.060905372
0.00043272218
-0.0521788
0.00053442476
-0.041640518
0.00052920167
-0.030574727
0.00043851107
-0.020822961
0.00029020663
-0.011090299
9.7188933e-05
-0.00027782887
-0.083471699
-0.00056643383
-0.090042036
-0.00083737388
-0.095927232
-0.0010553437
-0.099877689
-0.0011882479
-0.1025277
-0.0012236457
-0.10516916
-0.0011504545
-0.10814986
-0.0009426877
-0.11074298
-0.00056455374
-0.11090273
-5.233759e-15
-0.1156933
0
-0.12763995
-4.8530806e-15
-0.14020372
4.6729059e-15
-0.15316884
4.4975164e-15
-0.16718904
-4.3332994e-15
-0.18270808
-4.168857e-15
-0.1994949
-4.0199248e-15
-0.21716884
7.7410322e-15
-0.2356253
0
-0.25510885
0
-0.27586916
0
-0.29792699
6.6779724e-15
-0.32091818
0
-0.34422213
0
-0.36761926
-5.9907449e-15
-0.39124969
5.7811114e-15
-0.41495464
-1.1153842e-14
-0.43849572
0
-0.46200902
0
-0.48566029
1.0917613e-18
-0.50937204
0
-0.53332577
0
-0.55871924
3.9942158e-19
-0.58723811
0
-0.6186789
-8.3564102e-15
-0.65161027
0
-0.68703615
6.9214345e-19
-0.72731988
0
-0.77334577
0
-0.82486624
-0.083622074
0
-0.076401539
0.0002626015
-0.068757843
0.00047643486
-0.060837836
0.00061826921
-0.052081763
0.00066009351
-0.041529964
0.00059195699
-0.030512984
0.00044987492
-0.02082237
0.00027011145
-0.011085664
7.8356867e-05
-0.0002907053
-0.0904047
-0.00058674942
-0.096568713
-0.00085474197
-0.10081038
-0.0010614276
-0.10379585
-0.0011917765
-0.10690354
-0.0012351537
-0.11047291
-0.0011672797
-0.11371745
-0.00095049325
-0.11460827
-0.000563026
-0.11372692
0
-0.11933814
0
-0.13118257
-4.6705081e-15
-0.14334422
-4.4971104e-15
-0.156495
-2.3335613e-18
-0.17111093
4.1728238e-15
-0.18695495
0
-0.20362911
-3.8693624e-15
-0.22101219
7.4554395e-15
-0.23936838
0
-0.25896083
-6.922946e-15
-0.27989532
6.673193e-15
-0.3020419
0
-0.32488314
-6.2049416e-15
-0.34784951
0
-0.37087666
5.7756543e-15
-0.39416425
-5.5708732e-15
-0.41749739
0
-0.44065204
0
-0.46380388
0
-0.48707345
0
-0.51036645
0
-0.53398234
0
-0.55925651
8.6646459e-15
-0.58779568
8.3543704e-15
-0.61930504
8.0549792e-15
-0.65224711
-1.5530271e-14
-0.68762437
0
-0.7279138
0
-0.77381821
1.390853e-14
-0.82514262
-0.090570305
0
-0.083643749
0.00027807743
-0.076348912
0.00051219207
-0.068643646
0.00068076639
-0.060695843
0.00076400146
-0.051933853
0.00073871121
-0.041385778
0.00060714254
-0.030441068
0.00041891151
-0.020832453
0.00021818431
-0.011091386
4.6513848e-05
-0.00030110987
-0.096988522
-0.00059876992
-0.10149844
-0.00085927929
-0.10479096
-0.001064405
-0.10833076
-0.0012032239
-0.11244912
-0.001253444
-0.11630719
-0.0011771173
-0.11786681
-0.00094819728
-0.11775682
-0.00055973948
-0.11675551
0
-0.12266453
0
-0.13411599
4.4988471e-15
-0.14644432
4.3322809e-15
-0.16019679
-4.1722227e-15
-0.17514366
0
-0.19086416
3.8701945e-15
-0.20721995
-1.6793842e-18
-0.22449422
0
-0.24296399
0
-0.26274827
-6.6687896e-15
-0.28384453
0
-0.30599389
-6.2021801e-15
-0.32862065
5.9817133e-15
-0.35123803
0
-0.37391347
5.5668586e-15
-0.39683832
0
-0.41978508
0
-0.44256564
0
-0.46537605
0
-0.48827562
0
-0.5111624
8.9800949e-15
-0.5344937
-2.6097093e-19
-0.55966425
8.3520903e-15
-0.58824603
8.0528301e-15
-0.61980409
0
-0.65272957
0
-0.6880694
0
-0.72831854
0
-0.77414756
1.2605242e-19
-0.82524246
-0.097180377
0
-0.090579613
0.00029080879
-0.083536518
0.00054217092
-0.076165588
0.00073168549
-0.068429729
0.00084127334
-0.060478648
0.00085545201
-0.051735035
0.00075799727
-0.041210053
0.00056501979
-0.030355539
0.00033836234
-0.020854794
0.00012975129
-0.011104922
0
-0.00030723016
-0.1019388
-0.000601666
-0.10550846
-0.00086144004
-0.10944428
-0.0010747407
-0.1140743
-0.0012211492
-0.11850669
-0.0012639701
-0.12070933
-0.0011744229
-0.12131301
-0.00094294793
-0.12111419
-0.00055581482
-0.11945276
0
-0.1254116
0
-0.13700789
-8.6613718e-15
-0.14993568
4.171703e-15
-0.16402672
-2.1970944e-18
-0.17883921
3.8674383e-15
-0.19421656
-3.726962e-15
-0.21045657
3.5871924e-15
-0.22785254
6.9189856e-15
-0.24651858
0
-0.26649072
6.4273925e-15
-0.28769234
0
-0.30978083
5.9738e-15
-0.3321568
2.1958753e-18
-0.35443445
0
-0.37673904
-5.364428e-15
-0.39928359
0
-0.42184107
0
-0.4442565
0
-0.46673363
0
-0.48928563
-8.9739427e-15
-0.51179644
-8.6566759e-15
-0.53485402
0
-0.55996514
1.5941733e-19
-0.58856927
0
-0.62017695
1.9034338e-19
-0.65307948
0
-0.68834353
0
-0.72859013
0
-0.77431055
0
-0.8251913
-0.10212706
0
-0.097192006
0.00030117702
-0.090431208
0.00056682761
-0.0832659
0.00077421561
-0.075853662
0.00090401107
-0.068115343
0.00094206086
-0.06018622
0.00087825496
-0.051486297
0.00070570137
-0.040998679
0.00045592251
-0.03025617
0.00020111894
-0.020880065
0
-0.010120201
0
-0.00030858353
-0.10594733
-0.00060299979
-0.11024098
-0.00086983299
-0.11534389
-0.0010907685
-0.12031122
-0.0012314393
-0.12312609
-0.0012613288
-0.12441629
-0.0011681471
-0.124964
-0.00093632394
-0.1241085
-0.00054926078
-0.12157791
0
-0.12812047
0
-0.14029493
0
-0.15356929
-4.0147484e-15
-0.1675238
-1.8509669e-18
-0.18196946
3.7259359e-15
-0.19722356
1.6241736e-18
-0.21359574
-1.6221095e-18
-0.23119508
0
-0.2500591
0
-0.27018772
-6.1891973e-15
-0.29144638
5.9711337e-15
-0.31340746
-5.759136e-15
-0.33550968
2.0651413e-18
-0.35743524
0
-0.37935579
1.3445593e-18
-0.40150354
-4.9903432e-15
-0.42368125
0
-0.44573832
0
-0.46790587
0
-0.49013003
0
-0.51226813
-8.3448642e-15
-0.5350918
0
-0.56013831
8.9864175e-20
-0.58878333
-7.4819284e-15
-0.62041385
0
-0.65329101
-6.9528791e-15
-0.68850767
-1.3403563e-14
-0.72871234
0
-0.77433174
-0.007527717
-0.81745237
-0.10610802
0
-0.10212075
0.00030724664
-0.097021922
0.00058699365
-0.090081991
0.0008091209
-0.082833545
0.00095615253
-0.075412577
0.0010120541
-0.067700377
0.00096719317
-0.059819434
0.00081810962
-0.051188423
0.00056969337
-0.040749072
0.00027056914
-0.030134287
0
-0.019227297
-9.5670671e-15
-0.010820488
0
-0.00030916061
-0.11071837
-0.00060887529
-0.11625285
-0.00088282819
-0.12171506
-0.0010999226
-0.12510826
-0.0012290041
-0.12705612
-0.0012548113
-0.12831956
-0.0011599893
-0.12821905
-0.00092537564
-0.12651943
-0.00054135697
-0.123676
0
-0.13121122
0
-0.14373457
0
-0.15687792
3.8678093e-15
-0.17044524
-1.6483925e-18
-0.18476363
0
-0.20015988
-3.454916e-15
-0.21674191
-1.6327696e-18
-0.23454738
6.4158729e-15
-0.25359126
0
-0.27383134
2.9590995e-18
-0.29507781
0
-0.31687654
0
-0.33868562
5.3547885e-15
-0.36024904
-5.1670229e-15
-0.38176323
-4.9850292e-15
-0.40352367
0
-0.42531868
-6.929006e-19
-0.44703172
0
-0.46891018
0
-0.49082395
0
-0.51260658
0
-0.53519972
0
-0.56020913
7.480077e-15
-0.58884534
0
-0.62053243
5.4618858e-20
-0.65339949
-6.7012385e-15