/*--------------------------------*- C++ -*----------------------------------*\
| =========                 |                                                 |
| \\      /  F ield         | OpenFOAM: The Open Source CFD Toolbox           |
|  \\    /   O peration     | Version:  v2012                                 |
|   \\  /    A nd           | Website:  www.openfoam.com                      |
|    \\/     M anipulation  |                                                 |
\*---------------------------------------------------------------------------*/
FoamFile
{
    version     2.0;
    format      ascii;
    class       volScalarField;
    location    "27.8675464545396459";
    object      p;
}
// * * * * * * * * * * * * * * * * * * * * * * * * * * * * * * * * * * * * * //

dimensions      [0 2 -2 0 0 0 0];


internalField   nonuniform List<scalar> 
9200
(
0.028825002
0.03023015
0.078069284
0.032274895
0.082418313
0.12930243
0.03514781
0.088730196
0.13617741
0.17235553
0.038066661
0.098266457
0.14644617
0.18103713
0.207886
0.040306616
0.10970791
0.16196976
0.19423151
0.21753567
0.23569981
0.040277348
0.12230468
0.18115792
0.21423769
0.2323261
0.2456269
0.25653206
0.035528172
0.13386576
0.20348945
0.23953631
0.25460897
0.26088508
0.26620675
0.27132246
0.021912111
0.14085407
0.22695794
0.27018077
0.28282203
0.2836496
0.28106182
0.28039717
0.28108506
-0.0061980291
0.13681132
0.2483454
0.30523878
0.31712582
0.31225207
0.30295987
0.29428803
0.28936387
0.28678714
-0.04958897
0.10996704
0.26219215
0.34358021
0.35690907
0.34668641
0.33012397
0.31450389
0.30198223
0.29418618
0.28927904
-0.14449304
0.038950452
0.25664961
0.38309824
0.40170521
0.38624006
0.3622764
0.3392135
0.32011044
0.30541231
0.29579207
0.28928412
-0.27487648
-0.10952415
0.20949175
0.41811423
0.45044845
0.4303314
0.39847007
0.36789311
0.34193531
0.32133949
0.30563016
0.29494878
0.28739054
-0.36204212
-0.28649596
0.13915284
0.4410789
0.50065356
0.47787387
0.43781639
0.39941341
0.36676053
0.34023687
0.31942181
0.30347533
0.29226997
0.28406627
-0.44613784
-0.44989967
0.058447983
0.45311643
0.54958407
0.52708777
0.47896547
0.43267409
0.3933839
0.36131743
0.33556781
0.31529383
0.29959707
0.28823868
0.27969003
-0.47903535
-0.58390393
-0.031940714
0.45253088
0.59413442
0.57586924
0.52011957
0.46621902
0.42064466
0.38340126
0.35325432
0.3289669
0.30964625
0.29449107
0.2832308
0.27458209
-0.47518274
-0.67991778
-0.10753861
0.4240759
0.62451478
0.62078737
0.55906363
0.49831924
0.44714985
0.40537436
0.37138661
0.34369871
0.32115674
0.30298173
0.28853266
0.27753923
0.26895515
-0.43846789
-0.72991274
-0.17385494
0.35117497
0.62343218
0.65372476
0.59275759
0.52691954
0.47139937
0.42600691
0.38895807
0.358516
0.33337827
0.31263174
0.29566156
0.28200225
0.27139402
0.26290957
-0.36830972
-0.73183548
-0.24861516
0.23671407
0.5746861
0.66211629
0.61647955
0.54962901
0.49177319
0.44408355
0.40494069
0.37254282
0.34547425
0.32274931
0.30372079
0.2879422
0.27510649
0.26496865
0.25671978
-0.27394822
-0.69863734
-0.32613171
0.088894159
0.4710549
0.63442069
0.62406408
0.56384867
0.50663223
0.45842401
0.41839493
0.38494028
0.35669427
0.3326284
0.31207827
0.29463829
0.28000537
0.26800615
0.25836028
0.25051011
-0.17528861
-0.64462764
-0.40236156
-0.090771849
0.3155349
0.5652675
0.60966591
0.56714606
0.51448081
0.46798621
0.42848728
0.3949862
0.36634348
0.34164301
0.32015224
0.3015193
0.28553558
0.27199089
0.26083011
0.25168857
0.24426336
-0.081980473
-0.58325006
-0.48100258
-0.29706232
0.11806776
0.457589
0.57009118
0.55773935
0.51423455
0.47193926
0.43454145
0.40216583
0.37384316
0.34925804
0.32744716
0.30814418
0.29117516
0.2765026
0.26399033
0.25365809
0.24506328
0.23808755
0.004227798
-0.51757472
-0.55200609
-0.51376773
-0.1090116
0.31990176
0.51762928
0.5356764
0.50563772
0.46991195
0.43619089
0.40603051
0.3792812
0.35510165
0.33353236
0.31406781
0.29659503
0.28108239
0.26760623
0.25607475
0.24656145
0.23854503
0.23203642
0.079389809
-0.45095623
-0.61680361
-0.72141123
-0.34380716
0.16512089
0.43921758
0.50279543
0.48930007
0.4620676
0.43338518
0.40639561
0.3816805
0.35899319
0.33814877
0.3190017
0.30143451
0.28549129
0.27125799
0.25888478
0.24829728
0.23959586
0.23218017
0.22615573
0.13442027
-0.38588961
-0.67058609
-0.90797768
-0.57062602
0.0057706957
0.35208799
0.46099923
0.46678424
0.44917582
0.42650954
0.40345482
0.38144153
0.36067413
0.34112183
0.32273039
0.30547825
0.28944326
0.27479642
0.26170668
0.25036708
0.24069792
0.23280472
0.22600538
0.22048016
0.17284583
-0.32061025
-0.71625563
-1.0618043
-0.76481379
-0.14601361
0.26299508
0.41451659
0.43990392
0.43226641
0.41610285
0.39750012
0.3786709
0.3602282
0.34236871
0.32513561
0.30857039
0.29278777
0.2779991
0.26447286
0.25242786
0.24207419
0.23330755
0.22622178
0.22005008
0.21503545
0.1998191
-0.25927133
-0.75208269
-1.1787998
-0.91675057
-0.27765113
0.17783634
0.36710761
0.41090873
0.41265003
0.40291936
0.3889908
0.37363262
0.35781451
0.34194626
0.32619395
0.31063856
0.29541801
0.28077164
0.26701595
0.25448477
0.24341887
0.23402231
0.22615079
0.21987341
0.21433736
0.20984062
0.21670928
-0.20331757
-0.77927593
-1.2603195
-1.0287424
-0.38230838
0.10093424
0.32190222
0.38188592
0.39172806
0.38784166
0.37849878
0.36670006
0.35366686
0.33999265
0.32596059
0.3116839
0.29729626
0.28304797
0.26929159
0.25641978
0.24480242
0.23467779
0.22622496
0.2192474
0.2137801
0.20888464
0.20490902
0.22479287
-0.15385179
-0.80284593
-1.3087744
-1.1019378
-0.45873069
0.034891209
0.28121676
0.3544757
0.37075511
0.37173284
0.36662633
0.35829049
0.34806919
0.33669056
0.32454607
0.31176085
0.2984409
0.28481922
0.27126884
0.25823315
0.24615143
0.23540328
0.22620465
0.21869392
0.21261344
0.2079575
0.20370452
0.20024937
0.22541863
-0.1130757
-0.82095359
-1.3290461
-1.1411972
-0.50974033
-0.019618285
0.24642219
0.32996825
0.3507796
0.3553349
0.35394597
0.34882153
0.3413216
0.33224373
0.32208538
0.31095992
0.29890771
0.28611814
0.27296355
0.25992521
0.2475065
0.23616618
0.22627225
0.21800166
0.2114399
0.20626183
0.20241722
0.19880538
0.19586642
0.22172311
-0.080748277
-0.82565995
-1.3259564
-1.1535877
-0.54222086
-0.06222082
0.21818432
0.3090678
0.33254691
0.33924608
0.34097711
0.33868489
0.33371357
0.32685208
0.31871542
0.3093815
0.298777
0.2870046
0.27442088
0.26153269
0.24889602
0.23704409
0.22643276
0.21740081
0.21007322
0.20447265
0.20020284
0.19716734
0.19419204
0.19176162
0.21729729
-0.053319355
-0.81674127
-1.3038899
-1.1450007
-0.56219662
-0.090627141
0.19654785
0.29154046
0.31575228
0.32373279
0.32814855
0.32823087
0.32551229
0.3206952
0.31455484
0.30711726
0.29813208
0.28755653
0.27570425
0.26311088
0.2503751
0.23809157
0.2267984
0.21693135
0.20878635
0.20242543
0.19780109
0.19444428
0.19221285
0.18986615
0.18793357
0.21124857
-0.034448425
-0.79478731
-1.2677872
-1.1204754
-0.5719951
-0.10632209
0.18091093
0.27682343
0.29981596
0.30977461
0.31576712
0.31773158
0.31694608
0.31392222
0.3096903
0.30423308
0.29704425
0.28785681
0.27688993
0.26472572
0.25200658
0.23938033
0.22744885
0.21673829
0.20765188
0.20043095
0.19506574
0.19143309
0.18899173
0.187556
0.18582669
0.18437852
0.20248611
-0.021590936
-0.75491319
-1.2215582
-1.0835378
-0.57269897
-0.11367623
0.17010646
0.264885
0.28650903
0.29851951
0.3040569
0.30740298
0.30819939
0.30664451
0.30416391
0.30075838
0.29554436
0.28798389
0.27805472
0.26645156
0.25385526
0.24097904
0.22847219
0.21692658
0.20684629
0.19859208
0.19234049
0.18800233
0.18537539
0.18384856
0.18319658
0.18207031
0.18109072
0.18962425
-0.0075325614
-0.70633381
-1.1583522
-1.0427179
-0.56711312
-0.11537334
0.16279315
0.25495435
0.27692488
0.28939249
0.29329621
0.29743212
0.29942972
0.29894466
0.29797088
0.29667164
0.29365558
0.28792554
0.27926162
0.26836465
0.25598763
0.2429484
0.22994271
0.21760164
0.20650057
0.19711561
0.18975601
0.18452362
0.18124367
0.17963338
0.17901614
0.17913219
0.17859166
0.17806283
0.17340788
0.0074515365
-0.6537466
-1.0854772
-0.99047528
-0.56624582
-0.11403509
0.1583085
0.24581037
0.26988441
0.28054237
0.28289748
0.28790351
0.29075166
0.29087708
0.29105676
0.29189662
0.29134657
0.28775976
0.28066784
0.27055049
0.25846882
0.24534166
0.23191613
0.21884535
0.20673997
0.19615984
0.18754804
0.18115258
0.17699093
0.17479795
0.17421097
0.1744938
0.17535848
0.17538372
0.17528612
0.15512568
0.022278054
-0.59921063
-1.0049009
-0.92758948
-0.56517505
-0.11468074
0.15486733
0.23800718
0.26503143
0.27194288
0.27255719
0.2783651
0.28220087
0.28247127
0.28331754
0.28629286
0.28850666
0.28751051
0.28225395
0.27308262
0.26136613
0.24820299
0.23442957
0.2207098
0.20765774
0.1958732
0.18590348
0.17815216
0.17279446
0.16975412
0.16867272
0.16911045
0.17027906
0.17186942
0.17243809
0.17275075
0.13573216
0.036716239
-0.54353457
-0.91938487
-0.85826287
-0.55619793
-0.12030461
0.15124438
0.23222274
0.26104006
0.26398599
0.26308032
0.26921306
0.27384117
0.27373357
0.27460406
0.27966184
0.28496588
0.28705231
0.28399811
0.27602997
0.26474061
0.25156848
0.23749978
0.2232167
0.20930707
0.19636599
0.18499786
0.17573874
0.16894198
0.16469703
0.16282531
0.16287442
0.16433239
0.16636768
0.16865747
0.16974518
0.17044621
0.11596904
0.050062918
-0.48777753
-0.83192997
-0.78502225
-0.5397031
-0.12128032
0.14166537
0.2275956
0.25637831
0.25648125
0.25455055
0.26040099
0.26566777
0.26469213
0.26471574
0.27173114
0.28048636
0.28625296
0.28597509
0.27945596
0.26865012
0.25547016
0.24112669
0.22635466
0.21169848
0.19769967
0.18496524
0.17411854
0.16567933
0.1599359
0.15687748
0.15621639
0.15740814
0.15987565
0.16275379
0.1657138
0.16729453
0.16836138
0.096628165
0.061340623
-0.43281833
-0.7456001
-0.71071518
-0.51664819
-0.11733675
0.13418076
0.22070464
0.25030183
0.24949389
0.2460184
0.25199468
0.25768133
0.25530842
0.25344987
0.2621682
0.27473901
0.28490539
0.2881259
0.2834027
0.27314995
0.25992803
0.24529464
0.23008311
0.21479598
0.19988181
0.1858847
0.17345653
0.16324631
0.15574483
0.15115572
0.14935395
0.14993843
0.15227733
0.15573729
0.15943003
0.16302853
0.16507501
0.16648509
0.06951071
0.078769091
-0.38003588
-0.66259145
-0.63817904
-0.48859349
-0.10883481
0.12877397
0.21456652
0.2433758
0.24174193
0.2378057
0.24358626
0.24971926
0.24565602
0.24049447
0.25058318
0.26733014
0.28269422
0.29034755
0.28789664
0.27827635
0.26495247
0.2499735
0.2343361
0.21852078
0.20285992
0.18777235
0.1738601
0.16184537
0.15239854
0.14595978
0.14262584
0.14214476
0.14400126
0.14748359
0.15191262
0.1563877
0.16059092
0.16307511
0.16480736
-0.33099297
0.074468587
0.062522524
-0.58308545
-0.56600296
-0.45246789
-0.095547704
0.1234793
0.20841308
0.23578202
0.23370709
0.22759836
0.23566007
0.24173124
0.23561043
0.22575099
0.23645604
0.25773917
0.27918051
0.29243617
0.29291928
0.28404592
0.27053606
0.25511824
0.23902461
0.22275591
0.20652404
0.190572
0.17536795
0.16162296
0.15014212
0.14159884
0.13635336
0.13437232
0.13526775
0.13841296
0.14302651
0.14839524
0.15361699
0.15838969
0.16128304
0.16331613
-0.50408073
-0.28547439
0.076690329
0.04765028
-0.4940208
-0.40994499
-0.08041628
0.11710847
0.20008731
0.22619041
0.22272746
0.21642524
0.2256058
0.23410078
0.22535064
0.20849846
0.21939165
0.24533525
0.27373317
0.29410726
0.2983692
0.29043162
0.27663938
0.26065864
0.24404025
0.22735189
0.21071137
0.1941549
0.1779366
0.16265572
0.14917086
0.13836344
0.13087739
0.12695845
0.12642213
0.12873944
0.13317942
0.13890358
0.14517734
0.15110736
0.156413
0.15968657
0.16199205
-0.42979957
-0.42357684
-0.2420541
0.076732883
0.034234573
-0.36664406
-0.070140944
0.10893188
0.18829687
0.21350727
0.20725073
0.20019923
0.21503385
0.22529237
0.21453268
0.18925848
0.19828654
0.22940793
0.26568424
0.29489334
0.30411628
0.29733808
0.28317046
0.26649407
0.24924947
0.23213454
0.21521386
0.19832301
0.18143694
0.16493276
0.14961435
0.13650493
0.12653394
0.1202709
0.11781114
0.11880199
0.12257434
0.1283041
0.13511045
0.14224998
0.14884742
0.15464846
0.15827301
0.16081657
-0.3281669
-0.38190238
-0.34758978
-0.20152822
0.074709378
0.022572737
-0.06917886
0.098292552
0.17219503
0.19670358
0.18482543
0.17644942
0.20007541
0.21718567
0.20420621
0.16618199
0.17390957
0.20882461
0.25482359
0.29425612
0.30979598
0.30462101
0.28996536
0.27247425
0.25449431
0.23690464
0.21979023
0.20281715
0.18565328
0.16834751
0.15151518
0.13621901
0.12363432
0.11468788
0.10982239
0.10894923
0.11153735
0.11678437
0.12378817
0.13164125
0.13960303
0.14682474
0.15308324
0.15702999
0.15977964
-0.074695066
-0.29849163
-0.35008613
-0.28761871
-0.16521789
0.071871934
0.012937268
0.084297619
0.15106623
0.17326912
0.1539959
0.14356332
0.17772641
0.20695866
0.19505543
0.14576391
0.14368032
0.18433091
0.2389042
0.2915348
0.31506456
0.31193907
0.29677067
0.27838812
0.25957781
0.24144687
0.2241715
0.20733012
0.19028888
0.1726915
0.15481612
0.13762167
0.12244959
0.11058034
0.10286998
0.099580044
0.100411
0.10465134
0.11137886
0.1196308
0.12848832
0.13722456
0.14502577
0.15170504
0.15594654
0.15888292
0.065949642
-0.08218391
-0.27390157
-0.32405601
-0.24299177
-0.13533763
0.068051493
0.005105184
0.12542432
0.14327014
0.1168475
0.10054486
0.14611666
0.19234025
0.18508736
0.123702
0.11443728
0.15424276
0.21828372
0.28546861
0.31917503
0.31900706
0.30315253
0.28394694
0.26426189
0.24551949
0.22807668
0.21151765
0.194979
0.1776549
0.1593475
0.14073225
0.12318527
0.10829894
0.097379917
0.09113529
0.089595606
0.092233568
0.098164649
0.10636471
0.11582869
0.12564118
0.13510068
0.14343756
0.15050329
0.15501256
0.1581253
0.097845196
0.044002332
-0.090967632
-0.24867106
-0.29463612
-0.20644177
-0.10871372
0.063754508
-0.001521844
0.10896103
0.073617377
0.048203784
0.10392219
0.17175224
0.17237034
0.10400658
0.072557613
0.12228085
0.19337769
0.2755254
0.32099444
0.3249929
0.30862694
0.28875756
0.2682558
0.24886477
0.23120819
0.21501918
0.19930247
0.18283466
0.16482067
0.14545497
0.12596189
0.1081491
0.093780673
0.084087045
0.079547443
0.079922395
0.084452469
0.092095327
0.10174559
0.11237439
0.12308631
0.13321817
0.14205016
0.14946812
0.15421584
0.15749426
0.072218045
0.070484967
0.020499213
-0.099997614
-0.22639904
-0.26443413
-0.1785499
-0.080986268
0.059928664
-0.0062749755
0.023638294
-0.011057154
0.051172507
0.14422175
0.1551563
0.085132273
0.031547704
0.073386868
0.1661326
0.26291683
0.32009887
0.32953519
0.31216223
0.29238439
0.27120518
0.25119626
0.23327589
0.2174596
0.20280401
0.18774297
0.17082941
0.15156504
0.1307916
0.11037083
0.092480711
0.078934148
0.070772243
0.068176618
0.07061423
0.077101031
0.086457477
0.097519429
0.10925599
0.1208109
0.13156837
0.14085492
0.14858553
0.1535405
0.15697706
-0.031507706
0.034525829
0.043884567
-0.0023434084
-0.10853618
-0.21173547
-0.24014162
-0.16428032
-0.059345768
0.054507514
-0.0092215498
-0.075816761
-0.0090778878
0.10894787
0.13350281
0.063513309
-0.0093406245
0.020439311
0.12492595
0.24088914
0.31604297
0.33040295
0.31348143
0.29416852
0.27272838
0.25220751
0.23397575
0.21848423
0.2050028
0.19182654
0.17685093
0.15870191
0.13755805
0.11511217
0.093849204
0.076183396
0.063826226
0.057520442
0.057097751
0.06172438
0.070208266
0.081257698
0.093677871
0.10646224
0.11880866
0.13014438
0.13983477
0.14783457
0.15297438
0.1565638
-0.14479917
-0.088713349
-0.0015671322
0.018726001
-0.022820755
-0.11554317
-0.20080712
-0.22101042
-0.15599529
-0.049522348
0.047791046
-0.010462385
-0.073600065
0.064938029
0.10784603
0.037685367
-0.049354901
-0.037877111
0.073571332
0.20398911
0.29564634
0.32877514
0.30850271
0.29382185
0.27231887
0.25159031
0.23303489
0.21773033
0.20543034
0.19447656
0.18225729
0.16636122
0.1460018
0.12240455
0.098188136
0.076332945
0.059302313
0.048550142
0.044428886
0.046388808
0.053302162
0.063793876
0.076494122
0.090213115
0.10399069
0.11707556
0.12892563
0.13895831
0.14719936
0.15252197
0.15623751
-0.14074428
-0.2164681
-0.14471185
-0.033811548
-0.0038515179
-0.039351602
-0.11957043
-0.19012283
-0.20460681
-0.14611813
-0.044715497
0.040552154
-0.010626716
0.014549295
0.079037878
0.0083675629
-0.087642645
-0.096513308
0.011879894
0.16028199
0.26815776
0.30972835
0.32604281
0.28996455
0.26967345
0.24898035
0.23017428
0.21491693
0.20360676
0.19505749
0.18631926
0.1738968
0.15570391
0.13214201
0.10570509
0.079844903
0.057817765
0.041926087
0.033223419
0.031604367
0.036125667
0.04538616
0.057866601
0.072165201
0.087128814
0.10184168
0.11558683
0.12786832
0.13820342
0.1466919
0.15222491
0.15598749
-0.038856644
-0.20981228
-0.28615145
-0.19818974
-0.06143186
-0.020966683
-0.051142793
-0.12092836
-0.17879695
-0.1873123
-0.13621895
-0.040911
0.034871485
-0.009728625
0.049252193
-0.022786196
-0.12434062
-0.15210395
-0.04984512
0.11442521
0.2297673
0.28811332
0.29450767
0.28486986
0.2637658
0.2442244
0.22516026
0.20971663
0.1991634
0.19290242
0.18821628
0.18051286
0.16607995
0.14405794
0.11648763
0.087117219
0.059988709
0.038365841
0.024185469
0.017984176
0.019156114
0.026372901
0.038001384
0.052435248
0.06828388
0.084431848
0.099985993
0.11428258
0.12694288
0.13760365
0.14642877
0.15202465
0.15582561
0.019642785
-0.092977036
-0.27701217
-0.35069939
-0.24627133
-0.084282845
-0.030843139
-0.058755532
-0.12022342
-0.1672433
-0.17173788
-0.12579184
-0.0394761
0.029185468
-0.0081359084
-0.055623349
-0.1585774
-0.20186604
-0.10615441
0.060728489
0.18242618
0.25417158
0.27632002
0.27040704
0.25616694
0.23662801
0.21787643
0.20200807
0.19162479
0.18742337
0.18705613
0.18525388
0.1763573
0.15771214
0.1304741
0.098453789
0.066402727
0.038622062
0.018106891
0.0062490817
0.0029813985
0.0071831292
0.01717929
0.031172811
0.047526588
0.064866706
0.082088543
0.09834464
0.11312401
0.12620762
0.13740838
0.14629262
0.15191091
0.15575437
-0.085487582
-0.009866472
-0.14379567
-0.33703139
-0.40513999
-0.28655773
-0.10333219
-0.034668039
-0.063631149
-0.11775267
-0.15664277
-0.1592788
-0.11657323
-0.040682866
0.02114981
-0.0062899832
-0.18711608
-0.24293164
-0.15642463
0.0034599215
0.12709587
0.21070377
0.2414925
0.25414939
0.24351512
0.22754635
0.20793994
0.19154014
0.18093449
0.17786752
0.18190508
0.18704574
0.18555569
0.17245723
0.14743536
0.11402999
0.0775857
0.043457427
0.015849639
-0.0027660992
-0.01168939
-0.011641989
-0.0042325945
0.008593884
0.024947441
0.043171281
0.061876254
0.079997314
0.096867712
0.11220343
0.1260777
0.13739887
0.14624418
0.15188047
0.15577433
-0.20668491
-0.10502913
-0.03863976
-0.18537455
-0.38473164
-0.44420673
-0.31710225
-0.12009477
-0.034427949
-0.06679811
-0.1140251
-0.14666842
-0.14773035
-0.10678953
-0.04094489
0.013218482
-0.003983228
-0.27195646
-0.19765258
-0.048318874
0.068661334
0.15702125
0.19411297
0.22140143
0.23361489
0.21557634
0.19638938
0.17833342
0.16646311
0.16406032
0.1716273
0.18459617
0.19253076
0.18742197
0.16693277
0.13386702
0.093961555
0.053609477
0.018324718
-0.0081249077
-0.024012804
-0.029433358
-0.025759335
-0.015007552
0.00069278622
0.019376392
0.039329697
0.059185119
0.078095335
0.095688911
0.11215691
0.12620946
0.13747943
0.1462756
0.15193508
0.15588067
-0.28649901
-0.21366283
-0.11270517
-0.06485921
-0.21249317
-0.41490466
-0.46617575
-0.33601237
-0.13295142
-0.032077468
-0.066438819
-0.10759918
-0.13774157
-0.13469328
-0.09526668
-0.039383955
0.0059371356
-0.0017266202
-0.22688842
-0.089949975
0.011784696
0.094749305
0.13437939
0.17100903
0.21067721
0.20854793
0.18357075
0.16276217
0.14888057
0.14470528
0.15558847
0.17645201
0.19574262
0.20153466
0.18831118
0.15778147
0.11581684
0.069744923
0.026457071
-0.0088048323
-0.033017965
-0.045374279
-0.046798278
-0.039239377
-0.025024601
-0.0064435148
0.014420824
0.035845602
0.056715785
0.076567807
0.095720218
0.11247619
0.12643718
0.13763293
0.14639163
0.15207776
0.15607058
-0.24154957
-0.28441147
-0.2089685
-0.10871127
-0.086105732
-0.22442125
-0.42545556
-0.47065486
-0.34318882
-0.13977064
-0.029527862
-0.060479775
-0.10064799
-0.12689397
-0.12095931
-0.08380801
-0.036300713
8.758894e-05
-0.00023543279
-0.12082481
-0.042748598
0.029337752
0.064637791
0.10490654
0.168708
0.19440086
0.17618103
0.14747484
0.12708598
0.12127638
0.13157497
0.16131677
0.19363832
0.21322079
0.21069931
0.18538114
0.14323845
0.0924131
0.04113575
-0.003729874
-0.037615327
-0.058502197
-0.066593817
-0.06358883
-0.051908384
-0.034161649
-0.012847977
0.0098931308
0.032625286
0.054715588
0.076672239
0.096251204
0.11289901
0.12673013
0.13786797
0.14659267
0.15230897
0.15634501
-0.14142833
-0.23901416
-0.26772108
-0.19172266
-0.094672465
-0.10034967
-0.22423705
-0.41830519
-0.45847456
-0.33883631
-0.14198396
-0.026759089
-0.05325684
-0.09164761
-0.11518038
-0.10704876
-0.072852603
-0.03255633
-0.0035295071
0.00081260287
-0.085983429
-0.035781539
-0.016306757
0.021511837
0.10726885
0.16787102
0.16437397
0.13732872
0.1072531
0.089954018
0.10134107
0.13620245
0.18423089
0.22105971
0.23273238
0.21603128
0.17610001
0.1219709
0.06315743
0.0081782332
-0.036623975
-0.067710008
-0.084234898
-0.087392954
-0.079554809
-0.063586022
-0.042437927
-0.018741398
0.0056822937
0.029991223
0.054868505
0.077449546
0.096897936
0.11337667
0.12710205
0.13818465
0.14687956
0.15262639
0.15670378
-0.10585064
-0.14764379
-0.22073122
-0.23736661
-0.16281325
-0.069568146
-0.10115665
-0.21130276
-0.39515062
-0.43868872
-0.3204903
-0.14006182
-0.023066373
-0.044819361
-0.081275989
-0.10162606
-0.092829524
-0.061375232
-0.028056261
-0.0055930275
0.0014337011
-0.096579882
-0.10338598
-0.076073012
0.026114868
0.12686126
0.14471845
0.12470439
0.090790969
0.06212376
0.057341365
0.10229001
0.16436787
0.22226273
0.25334996
0.2486369
0.21398881
0.15855027
0.093139741
0.027936304
-0.02882116
-0.071765792
-0.098648737
-0.10983331
-0.10742041
-0.094435762
-0.074266043
-0.050107853
-0.02425247
0.0022013382
0.030150814
0.055917425
0.078358951
0.097588239
0.11392973
0.12755225
0.13858445
0.147252
0.15302898
0.15714584
-0.14688742
-0.10591948
-0.13702135
-0.18804116
-0.19618429
-0.12370824
-0.033718453
-0.082536494
-0.18511586
-0.35754247
-0.39539121
-0.29773822
-0.12745671
-0.018831963
-0.035577764
-0.068829111
-0.086288111
-0.077940357
-0.050840151
-0.023403825
-0.0064739942
0.0018246043
-0.18822834
-0.18242727
-0.068211
0.071365502
0.11576347
0.10674778
0.074320586
0.03297072
0.015454406
0.048835639
0.13474078
0.21376786
0.26972584
0.28246583
0.25605329
0.2019476
0.13146739
0.056405108
-0.013008765
-0.069357074
-0.10861145
-0.12992312
-0.13481618
-0.12630766
-0.10818287
-0.08423444
-0.057317143
-0.028858291
0.0022982222
0.031493643
0.05712136
0.07929896
0.098351299
0.11455665
0.12808283
0.13906698
0.14770961
0.15351686
0.15766989
-0.26476867
-0.18170868
-0.095712142
-0.11218771
-0.1448756
-0.14701634
-0.077852499
0.0093847762
-0.047774344
-0.14885943
-0.30471398
-0.35756462
-0.26271296
-0.11025927
-0.013601107
-0.026441416
-0.054989741
-0.070744044
-0.062501869
-0.040965254
-0.01896341
-0.0064272403
0.0021564422
-0.29361741
-0.17185711
-0.0016488289
0.07673789
0.082201866
0.054888772
0.007882152
-0.040300263
-0.011362653
0.08330044
0.19378699
0.28062556
0.31495333
0.3017531
0.25153224
0.17815299
0.094215559
0.011889646
-0.059155334
-0.11278436
-0.14650814
-0.16088931
-0.15867167
-0.14393968
-0.12110848
-0.093651585
-0.063409212
-0.02892945
0.0039476572
0.033022514
0.05834279
0.080309724
0.099184246
0.11526048
0.12869304
0.13963181
0.148253
0.15409253
0.15827339
-0.40165845
-0.32985497
-0.20002631
-0.080152013
-0.076422448
-0.095454928
-0.093007078
-0.029485503
0.054176895
-0.0028030579
-0.11007112
-0.25824269
-0.30538604
-0.22508495
-0.089323006
-0.007218916
-0.018064931
-0.041403155
-0.054887402
-0.048540881
-0.031896771
-0.014730064
-0.0056629643
0.0024797464
-0.28350165
-0.089519152
0.02760195
0.051196267
0.029981595
-0.016580802
-0.089911216
-0.11239092
0.013654817
0.14716467
0.28178896
0.34537606
0.34855703
0.30675967
0.23276657
0.14160153
0.046738261
-0.039909338
-0.1097714
-0.15829305
-0.18461524
-0.19084981
-0.18118737
-0.16064551
-0.13338254
-0.10169816
-0.063802964
-0.026974241
0.0058255136
0.034556808
0.059635279
0.081386799
0.10009122
0.11604017
0.1293823
0.14028066
0.1488869
0.15475414
0.15895554
-0.39340163
-0.49619715
-0.37578875
-0.20041666
-0.059403272
-0.033266372
-0.042430232
-0.035104744
0.018614395
0.097747919
0.041946899
-0.083343302
-0.20551477
-0.25244508
-0.18273225
-0.068202976
0.00012732483
-0.0096227506
-0.029627524
-0.040430231
-0.036142771
-0.023673191
-0.01058182
-0.0043531852
0.0028199583
-0.18430166
-0.030044621
0.014300068
0.00048916285
-0.046073042
-0.13495724
-0.21229105
-0.12412969
0.10414344
0.2664477
0.36876313
0.39577067
0.36479847
0.29467076
0.19832539
0.091999901
-0.010547621
-0.098203204
-0.16388851
-0.2048142
-0.22200076
-0.21945437
-0.2026932
-0.1765964
-0.14398689
-0.10263601
-0.061562041
-0.024732465
0.0077000515
0.036166254
0.060992378
0.082535799
0.10107066
0.11689506
0.13015356
0.14102487
0.14960499
0.15549822
0.15971502
-0.2754175
-0.49012418
-0.56303879
-0.40215346
-0.18290075
-0.031243789
0.012062827
0.012245638
0.020095945
0.066085818
0.13298024
0.086634452
-0.054607062
-0.15217792
-0.19375287
-0.13806594
-0.046988981
0.0077417669
-0.001285276
-0.018488406
-0.027675769
-0.025102446
-0.016128794
-0.0065022619
-0.0026322931
0.0031704944
-0.09107549
-0.026690914
-0.032236059
-0.078402958
-0.18166113
-0.30990924
-0.26558788
-0.054148949
0.22165336
0.38385778
0.43854849
0.42594137
0.36088424
0.26378792
0.14767375
0.029623952
-0.076844967
-0.16188156
-0.2201859
-0.25112806
-0.25812655
-0.24701154
-0.22334964
-0.19053061
-0.14577866
-0.10015611
-0.058955311
-0.022495874
0.0096601612
0.037841907
0.062421506
0.083754626
0.10212174
0.11782994
0.13102591
0.14185483
0.15040314
0.15632212
0.16055068
-0.14727796
-0.35234643
-0.55726776
-0.59727132
-0.40748225
-0.15618868
0.0014118172
0.055133078
0.063991806
0.068625453
0.10735992
0.17741332
0.11663756
-0.016392309
-0.10153757
-0.1331659
-0.094436518
-0.02516911
0.015192754
0.0069657621
-0.0081663776
-0.016292755
-0.015211776
-0.0091721795
-0.0025193718
-0.00063817189
0.0035448328
-0.068264437
-0.065945145
-0.11058751
-0.22669161
-0.41063407
-0.44162557
-0.22872538
0.089365566
0.36681491
0.48000883
0.4844271
0.43342111
0.3356563
0.21335207
0.08087809
-0.044787703
-0.15093967
-0.22936465
-0.27710403
-0.29644964
-0.2932499
-0.27365387
-0.24159602
-0.19360195
-0.14314442
-0.097203126
-0.056343718
-0.020153395
0.011693729
0.039593364
0.063919936
0.085042311
0.10325138
0.1188743
0.13198464
0.14276333
0.15127865
0.1572238
0.16146053
-0.10476978
-0.19038022
-0.4005539
-0.58700227
-0.59610473
-0.39216538
-0.12508851
0.033746696
0.092610022
0.10761706
0.11008605
0.15519635
0.20144425
0.14665846
0.025110614
-0.052280255
-0.074366168
-0.05266768
-0.0037317792
0.022821202
0.014880134
0.0014196796
-0.00607086
-0.0063122619
-0.0027507322
0.0013446566
0.0015052128
0.0039686832
-0.096036066
-0.14373296
-0.26273943
-0.5122756
-0.62234725
-0.44059041
-0.086302271
0.27647233
0.48733798
0.5458144
0.50308325
0.41602722
0.28714745
0.14302101
-0.0014791568
-0.12998188
-0.23101113
-0.2987095
-0.33354472
-0.34094748
-0.32745427
-0.29745303
-0.24652206
-0.19094795
-0.13989171
-0.094215943
-0.053591216
-0.017721336
0.013812825
0.041417117
0.065486545
0.086408445
0.10450203
0.1200071
0.13301915
0.14374644
0.1522304
0.15820099
0.1624409
-0.11698891
-0.12998624
-0.21814566
-0.41487682
-0.57561672
-0.56233622
-0.35947442
-0.09358972
0.0622318
0.1236852
0.14384192
0.15349427
0.18720795
0.22456045
0.17693851
0.066699717
-0.0037786198
-0.023630559
-0.014287532
0.015082414
0.030611921
0.022442054
0.010298759
0.0031524658
0.00172293
0.0031778848
0.0050607516
0.0037134589
0.0044723655
-0.17026685
-0.29570394
-0.6018479
-0.78927542
-0.66160307
-0.27493795
0.14563201
0.44259403
0.57299412
0.57943957
0.49058817
0.3696118
0.21442194
0.053103976
-0.098204444
-0.22394892
-0.31470631
-0.36843277
-0.38954354
-0.38463191
-0.35835825
-0.30499747
-0.24404789
-0.18748023
-0.13654561
-0.091031471
-0.050719599
-0.015185047
0.016012883
0.043311846
0.067134112
0.087911471
0.10584487
0.12121305
0.13412458
0.14480353
0.15325725
0.15924947
0.16349192
-0.18511357
-0.12544294
-0.13840471
-0.22593079
-0.3945504
-0.52714499
-0.50249738
-0.31429239
-0.065924877
0.086315594
0.14919922
0.17739938
0.18815081
0.22065008
0.24858318
0.20276648
0.10208752
0.038498252
0.01721158
0.017613972
0.03149454
0.038276436
0.029664161
0.018510866
0.011502106
0.0089933719
0.0086444628
0.0085893692
0.0059243984
0.0049844641
-0.3278123
-0.64820577
-0.92589076
-0.86512732
-0.4763895
-0.0066088294
0.3579227
0.56696372
0.62570497
0.57978793
0.44990494
0.29546805
0.11773749
-0.055364602
-0.20719527
-0.32393759
-0.40008556
-0.43838436
-0.44501009
-0.42456541
-0.36951843
-0.30298732
-0.24049983
-0.18381568
-0.13291551
-0.087678825
-0.04771178
-0.012550667
0.018292266
0.045294081
0.068940693
0.089513084
0.10725871
0.12248584
0.13530159
0.14593478
0.15435357
0.16036264
0.16461978
-0.34702013
-0.18206301
-0.11693949
-0.12624244
-0.20797672
-0.341961
-0.45082145
-0.4240201
-0.26116791
-0.039726272
0.10751746
0.17370133
0.20465095
0.22116559
0.24948794
0.26776187
0.22172255
0.13044304
0.072667181
0.050051177
0.042578435
0.045622444
0.045716219
0.036542203
0.026094629
0.019074197
0.01557919
0.013664287
0.011876044
0.0080444649
0.0054269226
-0.64656121
-1.0076202
-1.0299965
-0.67002481
-0.17704922
0.24200635
0.51924683
0.65319519
0.64546997
0.5446736
0.37699893
0.19299495
-0.002158239
-0.18030673
-0.32537332
-0.42750639
-0.48675719
-0.50834624
-0.49632862
-0.44063022
-0.36836066
-0.29955851
-0.23658784
-0.1797383
-0.12904058
-0.084139104
-0.044576284
-0.0098204214
0.020671926
0.047465693
0.070856552
0.091184802
0.10873548
0.1238275
0.13655276
0.14713297
0.15550629
0.16153723
0.16582766
-0.60869285
-0.3231724
-0.15089567
-0.088742189
-0.093925307
-0.16415018
-0.26476346
-0.35681347
-0.33332882
-0.19697852
-0.0082766096
0.13082298
0.19485012
0.22735661
0.24781303
0.27173258
0.27960686
0.23322154
0.15246203
0.10008328
0.075029077
0.061796934
0.057538115
0.052802277
0.043069637
0.033086094
0.02594452
0.02154042
0.018252432
0.014920804
0.0099934173
0.0057832651
-1.0163185
-1.1326558
-0.83290819
-0.35542841
0.096951083
0.43030836
0.63886441
0.70454402
0.62814902
0.47288632
0.2702774
0.062112012
-0.14340293
-0.31843673
-0.44979882
-0.53397897
-0.57437136
-0.57389227