/*--------------------------------*- C++ -*----------------------------------*\
| =========                 |                                                 |
| \\      /  F ield         | OpenFOAM: The Open Source CFD Toolbox           |
|  \\    /   O peration     | Version:  v2012                                 |
|   \\  /    A nd           | Website:  www.openfoam.com                      |
|    \\/     M anipulation  |                                                 |
\*---------------------------------------------------------------------------*/
FoamFile
{
    version     2.0;
    format      ascii;
    class       surfaceScalarField;
    location    "27.8675464545396459";
    object      phi;
}
// * * * * * * * * * * * * * * * * * * * * * * * * * * * * * * * * * * * * * //

dimensions      [0 3 -1 0 0 0 0];
oriented        oriented;


internalField   nonuniform List<scalar> 
18180
(
-0.017418435
-3.5819823
-0.034105782
-3.3611297
-0.027788518
-3.4931309
-0.05016523
-3.1595017
-0.056150764
-3.27648
-0.030763066
-3.4019042
-0.06556237
-2.976986
-0.085944174
-3.078068
-0.062422672
-3.1886385
-0.032380586
-3.3120181
-0.079750438
-2.8111814
-0.11892528
-2.8966651
-0.096346164
-2.9924207
-0.065700929
-3.101317
-0.03162527
-3.2266325
-0.091828553
-2.6619778
-0.15622335
-2.7299634
-0.13480377
-2.8104199
-0.10153856
-2.9059081
-0.063896141
-3.0183938
-0.029337533
-3.1483585
-0.10023103
-2.5286865
-0.19919252
-2.5777838
-0.17975127
-2.6407785
-0.14224644
-2.7225995
-0.098240153
-2.8238115
-0.058899637
-2.9423025
-0.026078346
-3.0771794
-0.10230791
-2.4117529
-0.24901263
-2.4400171
-0.23360583
-2.4828887
-0.18997112
-2.5493926
-0.13656842
-2.6394392
-0.089770826
-2.7486437
-0.051959962
-2.8736451
-0.022388828
-3.0139689
-0.093569163
-2.3137422
-0.30636498
-2.3177032
-0.29915753
-2.3361438
-0.24731768
-2.3848738
-0.18047751
-2.4635157
-0.12325019
-2.564025
-0.07835094
-2.6813912
-0.044238598
-2.8128668
-0.01865441
-2.958015
-0.071446146
-2.2317286
-0.37091726
-2.2145209
-0.38000031
-2.2009673
-0.31739717
-2.2280506
-0.23169954
-2.2944395
-0.1601833
-2.3871784
-0.10597552
-2.497551
-0.065929647
-2.6223928
-0.036533797
-2.7595877
-0.015127535
-2.9093138
-0.034089982
-2.1321314
-0.44544436
-2.1244649
-0.48138268
-2.0794855
-0.40467299
-2.0780721
-0.29203492
-2.131025
-0.20123173
-2.2165507
-0.13506551
-2.3215335
-0.087745521
-2.4401476
-0.05377678
-2.5711716
-0.029347708
-2.7132874
-0.011949419
-2.8665847
-0.0043230823
-1.968948
-0.53524386
-2.0114508
-0.60999361
-1.9643118
-0.51600534
-1.9347123
-0.36385016
-1.9718281
-0.24668629
-2.0511545
-0.16552617
-2.1519635
-0.10953488
-2.2661433
-0.070369848
-2.3910124
-0.042638841
-2.5270313
-0.022944737
-2.6730786
-0.0091818118
-2.829631
-0.0055415032
-1.7246799
-0.65452495
-1.8205698
-0.77088368
-1.8210285
-0.65525138
-1.7936524
-0.45067628
-1.8155254
-0.29639442
-1.8899261
-0.19675727
-1.9881523
-0.13081613
-2.0992814
-0.085973028
-2.219705
-0.054809026
-2.3491996
-0.032868484
-2.4890337
-0.017426308
-2.6383845
-0.0068342591
-2.7974315
-0.024691271
-1.4533281
-0.803068
-1.5487525
-0.95254833
-1.6112905
-0.81167914
-1.635081
-0.55312393
-1.6607411
-0.34988659
-1.7318508
-0.22750381
-1.8295225
-0.15067871
-1.9389751
-0.099985749
-2.0561503
-0.0654611
-2.1805878
-0.041436891
-2.3135545
-0.024565868
-2.4565143
-0.012791029
-2.6084529
-0.0048852827
-2.7697125
-0.054794611
-1.1881239
-0.96106038
-1.2695868
-1.128581
-1.3469248
-0.96210898
-1.4331142
-0.65845895
-1.5010396
-0.40580031
-1.5764863
-0.25575245
-1.6758162
-0.16775147
-1.7849429
-0.1115181
-1.8999069
-0.074023101
-2.0203927
-0.048268459
-2.1477197
-0.030281268
-2.283368
-0.017681158
-2.4286398
-0.0089791013
-2.5826488
-0.0032961567
-2.7454755
-0.092057026
-0.94640755
-1.1147762
-1.0102149
-1.29412
-1.0799756
-1.0905519
-1.1923912
-0.74140994
-1.3230925
-0.45697949
-1.4232337
-0.27904359
-1.5271111
-0.1801455
-1.6375351
-0.11943394
-1.7510473
-0.079766225
-1.8683028
-0.052881728
-1.9907717
-0.034239419
-2.1201756
-0.021184008
-2.2577367
-0.01208634
-2.4047569
-0.0059018621
-2.560291
-0.0020215078
-2.7245369
-0.13450297
-0.74149658
-1.2537569
-0.78471172
-1.4391786
-0.84270399
-1.1958814
-0.95010056
-0.78468853
-1.1235689
-0.48564736
-1.2694086
-0.29376862
-1.3840075
-0.1855823
-1.4972739
-0.12240798
-1.6099846
-0.081871834
-1.724289
-0.054740725
-1.8424911
-0.036065529
-1.9663651
-0.023025306
-2.0970891
-0.013903349
-2.2359272
-0.0076194564
-2.3841647
-0.0034608669
-2.5409366
-0.0010199532
-2.7062135
-0.18146637
-0.5781703
-1.3713063
-0.60263109
-1.5569205
-0.64603211
-1.2742474
-0.74123412
-0.78885424
-0.92181619
-0.47284193
-1.1128843
-0.29255822
-1.2476185
-0.18171844
-1.364854
-0.1190189
-1.477345
-0.079516402
-1.5889208
-0.053315695
-1.7029885
-0.035395286
-1.8216936
-0.022928837
-1.9461697
-0.014214111
-2.0775524
-0.008172669
-2.217224
-0.0041120313
-2.3664142
-0.0015579384
-2.5241298
-0.00025518772
-2.69035
-0.23282431
-0.45562376
-1.4643843
-0.46510239
-1.6447133
-0.49531006
-1.3202667
-0.57825254
-0.76238374
-0.74492616
-0.41407549
-0.95854403
-0.26478202
-1.1190926
-0.1662656
-1.2413818
-0.10791114
-1.3538633
-0.071985317
-1.462709
-0.048155691
-1.5726467
-0.031918912
-1.6862005
-0.020666212
-1.8047249
-0.012825132
-1.9291901
-0.00739895
-2.0608627
-0.0037338902
-2.2011211
-0.0014038366
-2.3510162
-9.9514381e-05
-2.5095083
0.00031394318
-2.6763475
-0.2834925
-0.37376336
-1.5326009
-0.36867478
-1.7025422
-0.38905521
-1.3346882
-0.46038265
-0.71116878
-0.60795632
-0.31970633
-0.81863768
-0.20331103
-0.99981363
-0.13662869
-1.1283202
-0.088201679
-1.2401569
-0.058783535
-1.3460391
-0.038974794
-1.4516653
-0.025435971
-1.5600793
-0.016082582
-1.6725572
-0.0096093365
-1.7903335
-0.0051707188
-1.9146104
-0.0022085493
-2.0464562
-0.00035154652
-2.1871452
0.00065290184
-2.3376372
0.00099989508
-2.4967524
0.0007149938
-2.6641233
-0.33263312
-0.32200789
-1.5787805
-0.31004157
-1.732576
-0.32163501
-1.3215964
-0.38280852
-0.63895127
-0.51228981
-0.20353762
-0.70478033
-0.11045695
-0.89258659
-0.090338292
-1.0269278
-0.059882861
-1.1368357
-0.039767111
-1.2392115
-0.025735503
-1.3401545
-0.015905952
-1.4432908
-0.0091300649
-1.5497711
-0.0045127577
-1.6607602
-0.0014279099
-1.7778811
0.00055016788
-1.9019682
0.0016786887
-2.0338932
0.0021776168
-2.1749556
0.0021758255
-2.3259558
0.0018059922
-2.4856516
0.0010298275
-2.653343
-0.38380977
-0.28928413
-1.6080181
-0.27635086
-1.7439782
-0.2827555
-1.286238
-0.33874526
-0.54916508
-0.45342218
-0.075736605
-0.62199214
0.0037905625
-0.80134823
-0.027115969
-0.93781677
-0.023727142
-1.0443812
-0.015327103
-1.1423237
-0.0086931905
-1.2381324
-0.003468711
-1.3357692
0.00012515675
-1.4363612
0.0024364379
-1.5405544
0.0038136789
-1.6502099
0.0045254119
-1.7668615
0.0047254757
-1.8908171
0.0045271283
-2.0228413
0.0040245211
-2.1643084
0.0032832523
-2.3157877
0.0023809233
-2.4759758
0.001263837
-2.6439711
-0.43764034
-0.26878782
-1.6232277
-0.25871388
-1.7374548
-0.26802983
-1.2311673
-0.32060242
-0.44661534
-0.42320733
0.055971473
-0.56821298
0.12709033
-0.72876527
0.049585486
-0.86118887
0.019006734
-0.96292167
0.013509162
-1.0552417
0.011611366
-1.1454364
0.011513486
-1.2372855
0.011436754
-1.331932
0.011060942
-1.4295457
0.01044163
-1.5317807
0.0096691463
-1.6407141
0.0087632509
-1.7570726
0.0077251253
-1.8809265
0.006571086
-2.0131333
0.0053407424
-2.1550021
0.0040630545
-2.3069297
0.0027784554
-2.4675087
0.0014214675
-2.6356695
-0.48754799
-0.26279303
-1.619651
-0.25800175
-1.7064224
-0.27586509
-1.1558509
-0.32709166
-0.33479837
-0.41536758
0.18592857
-0.53736009
0.24929063
-0.6749662
0.13328809
-0.79668147
0.066265467
-0.89186261
0.045045882
-0.97743379
0.034235912
-1.0615645
0.028435147
-1.1474404
0.024461702
-1.2361258
0.021168565
-1.3275356
0.018323643
-1.4226823
0.015868348
-1.5237209
0.013705615
-1.6321694
0.01171609
-1.7482845
0.0098202744
-1.8721534
0.0079915453
-2.0045968
0.0062448372
-2.1468877
0.0045894801
-2.2992204
0.0030396716
-2.4601113
0.0015193732
-2.6284154
-0.5310351
-0.26360321
-1.6032008
-0.26581994
-1.6538988
-0.29753891
-1.0641666
-0.35221374
-0.22073869
-0.4250877
0.30781975
-0.52249957
0.36305152
-0.63667976
0.21685193
-0.74375683
0.11549856
-0.83034114
0.077562369
-0.90828708
0.058166406
-0.98592621
0.046676523
-1.0657579
0.038795586
-1.148528
0.032471272
-1.2339272
0.027242154
-1.3224815
0.02295328
-1.4160101
0.019416066
-1.5163668
0.016398374
-1.6244172
0.013704633
-1.7404193
0.011228837
-1.8643948
0.0089360339
-1.9971252
0.006834408
-2.1398096
0.0049228683
-2.2925322
0.0031971553
-2.453653
0.0015730317
-2.6220132
-0.5666296
-0.26713101
-1.5764312
-0.27783245
-1.5886612
-0.31890397
-0.96803383
-0.37920707
-0.11370629
-0.4441248
0.41479294
-0.51827865
0.46385382
-0.60979601
0.29455474
-0.70056333
0.1634287
-0.77709145
0.10927292
-0.84687355
0.082188037
-0.91770991
0.06548832
-0.99153107
0.053940899
-1.0685271
0.044648356
-1.1481069
0.036961751
-1.2305155
0.030724659
-1.3171959
0.02572404
-1.4098057
0.021627113
-1.5095827
0.018116554
-1.6173902
0.014980163
-1.7333977
0.012122877
-1.857558
0.0095217879
-1.9905836
0.0071868035
-2.1336932
0.0051108486
-2.2867503
0.0032762955
-2.4480559
0.0015936112
-2.6164385
-0.59370673
-0.27134756
-1.5409571
-0.29089338
-1.5140659
-0.34104918
-0.86878874
-0.40450983
-0.014364485
-0.4643238
0.5035508
-0.52001166
0.5487466
-0.5905358
0.36265716
-0.66497469
0.20718539
-0.73066396
0.1385649
-0.79210074
0.105109
-0.85601249
0.084133584
-0.92396064
0.069417222
-0.99545865
0.057383466
-1.0695074
0.047245487
-1.1461049
0.03897819
-1.2264701
0.032435912
-1.312008
0.027229561
-1.4039103
0.022909633
-1.5033262
0.01913838
-1.6110359
0.015733877
-1.7271723
0.012635332
-1.851558
0.0098399936
-1.9849202
0.0073619372
-2.1284025
0.0051898073
-2.2817774
0.003296258
-2.4431805
0.0015892597
-2.6114866
-0.61223428
-0.27516829
-1.4985971
-0.30277202
-1.433335
-0.36096633
-0.76951799
-0.42746295
0.0765011
-0.48200077
0.57461706
-0.52336874
0.6163544
-0.57579399
0.4191768
-0.63497087
0.2446001
-0.68963237
0.16414258
-0.74283267
0.12592527
-0.79992702
0.10195004
-0.86221989
0.084792684
-0.92857658
0.070393806
-0.99748166
0.057888605
-1.0686135
0.047525421
-1.1430478
0.039360237
-1.2221004
0.033015562
-1.3067906
0.027913952
-1.3982295
0.023562643
-1.4975171
0.019667805
-1.605344
0.016108583
-1.7216856
0.01286697
-1.8463445
0.0099601595
-1.9800235
0.0074052039
-2.1238809
0.0051869631
-2.2775009
0.0032713422
-2.4389536
0.0015659049
-2.6071421
-0.62264231
-0.2779955
-1.4511036
-0.3124512
-1.3492427
-0.3768739
-0.67311784
-0.44525022
0.15696489
-0.495358
0.62928055
-0.5254357
0.6672548
-0.56320004
0.46343657
-0.60875386
0.27428708
-0.65275628
0.18508943
-0.69802004
0.14390612
-0.74859184
0.11838919
-0.80551266
0.099722004
-0.86714371
0.083464277
-0.93137142
0.068739091
-0.99745377
0.056216977
-1.0663147
0.046323505
-1.1392837
0.038794725
-1.2173117
0.03294384
-1.3014666
0.028091928
-1.392839
0.023794951
-1.4922479
0.019850055
-1.6002922
0.016208847
-1.7169189
0.012892953
-1.8418461
0.0099342649
-1.975844
0.0073502616
-2.12001
0.005122463
-2.2738545
0.0032120968
-2.4352754
0.0015279386
-2.6032895
-0.62653538
-0.27875541
-1.4001231
-0.31944022
-1.2641981
-0.38812535
-0.58151232
-0.45706468
0.22664324
-0.50312301
0.6691022
-0.52469048
0.70325979
-0.55107993
0.49564117
-0.58483842
0.29560909
-0.61898356
0.2008382
-0.65676914
0.15859949
-0.70123145
0.13305079
-0.75312077
0.11396045
-0.81046463
0.096458329
-0.87052514
0.079714542
-0.93205753
0.064958668
-0.99574863
0.053185538
-1.0629804
0.044388097
-1.1347978
0.037809012
-1.2121792
0.032550714
-1.2962625
0.027969189
-1.3878311
0.023745245
-1.487508
0.019786135
-1.5958931
0.016110182
-1.7128093
0.012768337
-1.8380066
0.0098003563
-1.9722812
0.0072218458
-2.1167617
0.0050110573
-2.2707503
0.0031263846
-2.4320916
0.0014786728
-2.5999054
-0.62355291
-0.33241703
-1.3470841
-0.32289037
-1.1802663
-0.39457671
-0.49602233
-0.46286756
0.28584446
-0.50518469
0.69639205
-0.52061346
0.72663083
-0.5383663
0.51652032
-0.56207976
0.3085969
-0.58749359
0.21113165
-0.61833502
0.16979161
-0.65718886
0.14568331
-0.70441176
0.12735688
-0.75791021
0.10931976
-0.81433861
0.090807478
-0.87186525
0.073721989
-0.93085716
0.059851576
-0.99271281
0.04963777
-1.0586515
0.04232213
-1.1296751
0.036756549
-1.2069409
0.032033159
-1.291352
0.027667728
-1.3832968
0.02350156
-1.4833609
0.019545043
-1.5921031
0.015866292
-1.7093187
0.012532829
-1.8347519
0.0095860759
-1.969304
0.007037816
-2.1140241
0.0048636451
-2.2681126
0.0030201437
-2.4292949
0.0014206836
-2.5968444
-0.61402764
-0.35518703
-1.2776904
-0.39209904
-1.0983052
-0.39658676
-0.41739025
-0.46309819
0.33532917
-0.50195675
0.71358721
-0.51322326
0.73949574
-0.52440979
0.52714586
-0.53975571
0.31392232
-0.55778323
0.21607928
-0.58226026
0.17749836
-0.61594922
0.15617
-0.6588635
0.13984608
-0.70893294
0.12206309
-0.76225663
0.10208066
-0.81635353
0.0825476
-0.87116964
0.066279248
-0.92804113
0.054413878
-0.98838268
0.046303507
-1.0534479
0.040524055
-1.1243374
0.035822861
-1.2019831
0.031484316
-1.2868892
0.027250703
-1.3792838
0.023117772
-1.4797724
0.019173594
-1.5888994
0.015515061
-1.7063835
0.012214867
-1.8320399
0.0093111657
-1.9668244
0.0068112912
-2.1117599
0.0046884002
-2.2658564
0.0028979946
-2.4268037
0.0013560272
-2.594085
-0.5976075
-0.37895351
-1.203451
-0.41974091
-1.0107162
-0.47067802
-0.34592367
-0.45855049
0.37618327
-0.49420561
0.72292828
-0.50273891
0.74370738
-0.50895676
0.52893151
-0.5175619
0.31241122
-0.52928601
0.21627682
-0.54852489
0.18177869
-0.57709938
0.16450532
-0.61607279
0.15143695
-0.66308181
0.13476251
-0.71379582
0.11365795
-0.7650403
0.091542471
-0.81623428
0.072481113
-0.86856389
0.058617996
-0.92360601
0.04958223
-0.98298643
0.04366556
-1.0479398
0.039169905
-1.1192221
0.035058645
-1.1974521
0.03092759
-1.2829265
0.026745786
-1.3758172
0.022626566
-1.4767454
0.018703562
-1.5862355
0.015083277
-1.7039702
0.011834625
-1.8298075
0.0089900105
-1.9648061
0.0065519924
-2.1098758
0.0044916525
-2.263894
0.0027636617
-2.4245424
0.0012864115
-2.5915651
-0.57495338
-0.40283681
-1.1246742
-0.44807336
-0.92020993
-0.50116245
-0.2895251
-0.51680773
0.40930295
-0.48254679
0.72635681
-0.48962886
0.74096655
-0.49207637
0.52341223
-0.49536837
0.30511611
-0.50192357
0.21202328
-0.51626037
0.18232458
-0.54024977
0.1707406
-0.57568495
0.16217421
-0.61999095
0.14752742
-0.66854049
0.12570934
-0.71749379
0.10087396
-0.76563688
0.078525115
-0.81389407
0.062184331
-0.8639355
0.05199653
-0.91782498
0.045990011
-0.97715608
0.041901007
-1.0425799
0.038253133
-1.114478
0.034428374
-1.1933821
0.030349684
-1.2794907
0.026162239
-1.3728751
0.022048468
-1.4742396
0.018157256
-1.584078
0.01458987
-1.7020168
0.011406681
-1.8280131
0.0086332169
-1.9631722
0.006267463
-2.1083281
0.0042785083
-2.2621605
0.0026202619
-2.4224783
0.0012132905
-2.5892743
-0.54669764
-0.42655576
-1.0419423
-0.47593588
-0.82840644
-0.53071781
-0.23293255
-0.54739111
0.41891821
-0.51667581
0.72541004
-0.47411081
0.73281346
-0.47407733
0.51204241
-0.47316594
0.29303296
-0.47551092
0.20370657
-0.48547415
0.17964684
-0.50534826
0.174783
-0.53716797
0.17214374
-0.57934667
0.16047824
-0.62613669
0.13842801
-0.67332694
0.11075593
-0.71899596
0.084530632
-0.76366966
0.065080497
-0.80902685
0.053397724
-0.85758706
0.047301683
-0.91146609
0.04383636
-0.97143304
0.040928752
-1.0375152
0.037653681
-1.1101584
0.033857899
-1.1898743
0.029724509
-1.2765851
0.025502826
-1.3704549
0.0213979
-1.4722327
0.017550537
-1.5823752
0.014048602
-1.7004878
0.010941836
-1.8265945
0.0082489867
-1.9618849
0.0059637454
-2.1070306
0.0040532509
-2.2605943
0.0024704751
-2.4205543
0.0011379326
-2.5871597
-0.51351751
-0.44978236
-0.95596169
-0.50292364
-0.73610982
-0.55899916
-0.17639895
-0.57679684
0.42701683
-0.54566462
0.70746488
-0.49078669
0.72044461
-0.45483452
0.49603293
-0.45102193
0.27712692
-0.45001111
0.19170478
-0.45596622
0.17381414
-0.47196162
0.1770393
-0.50097369
0.1817018
-0.54088976
0.17375522
-0.58628959
0.15201932
-0.63219746
0.12143853
-0.67596259
0.090662269
-0.71755788
0.067305246
-0.75855358
0.0536404
-0.8019341
0.047390238
-0.85045574
0.044785606
-0.90522012
0.042942829
-0.96603615
0.040509546
-1.0328807
0.037209146
-1.1064133
0.033269298
-1.1869247
0.029028494
-1.2742058
0.024770141
-1.3685124
0.020686059
-1.4706727
0.016895522
-1.5810852
0.013469845
-1.6993305
0.010448422
-1.8255158
0.0078439188
-1.9608815
0.0056459668
-2.1059311
0.0038195734
-2.2591498
0.002316652
-2.4187557
0.0010614288
-2.5852096
-0.47604043
-0.4720724
-0.86753913
-0.5286077
-0.64404598
-0.58568191
-0.12037783
-0.60448175
0.43402604
-0.57391512
0.68856066
-0.51873199
0.70010232
-0.46318325
0.47633581
-0.42855407
0.25810818
-0.42524179
0.17643661
-0.42774433
0.16521785
-0.4402116
0.17780683
-0.46656374
0.19065656
-0.5045261
0.18753443
-0.54877556
0.1666821
-0.59380791
0.13319629
-0.63622088
0.09712727
-0.67525205
0.068886977
-0.71221538
0.052583639
-0.75055319
0.046037998
-0.79377689
0.044540592
-0.84347064
0.044145685
-0.89941072
0.042907471
-0.96106136
0.040355556
-1.0288506
0.036768488
-1.1033764
0.032602071
-1.1845662
0.02824803
-1.2723121
0.023969179
-1.3670245
0.019922837
-1.4695167
0.016201831
-1.5801732
0.012861754
-1.6985126
0.0099332627
-1.8247275
0.0074236477
-1.9600996
0.0053185617
-2.104968
0.0035807265
-2.2577955
0.0021608539
-2.4170465
0.00098471605
-2.5834459
-0.43497719
-0.49304087
-0.77745834
-0.55256669
-0.55286695
-0.61041215
-0.065312004
-0.63013173
0.4400359
-0.6005391
0.66876746
-0.54601983
0.67616068
-0.48744839
0.45562606
-0.43559057
0.23621648
-0.40035442
0.15820817
-0.40051793
0.15420328
-0.41005925
0.1772731
-0.43395579
0.19923619
-0.47014176
0.20188008
-0.51339009
0.18257319
-0.557893
0.14630432
-0.59947643
0.10416525
-0.63646996
0.069882899
-0.66973445
0.050096872
-0.70315672
0.043016796
-0.7411152
0.042880191
-0.78579993
0.044390876
-0.83711689
0.044764948
-0.89419469
0.043262945
-0.95687459
0.040212577
-1.0257225
0.036219111
-1.1010416
0.031820702
-1.182734
0.027380473
-1.2708737
0.023107718
-1.3659196
0.019117429
-1.4687325
0.015477531
-1.5795931
0.012231198
-1.697986
0.0094022312
-1.8241871
0.0069931173
-1.9594861
0.0049854987
-2.1041147
0.0033395942
-2.2565019
0.0020048869
-2.4154698
0.00090859029
-2.5818576
-0.39125747
-0.51237148
-0.68669389
-0.57422478
-0.46331713
-0.63267722
-0.011681568
-0.65335629
0.44485888
-0.62494459
0.64811377
-0.57171549
0.64811035
-0.51055879
0.42813861
-0.45297001
0.2123883
-0.40522102
0.13713751
-0.37325113
0.14109754
-0.3811964
0.17553779
-0.40301895
0.20749952
-0.43759075
0.21678877
-0.47995101
0.19980777
-0.5242089
0.16102673
-0.5654583
0.11204155
-0.60094091
0.070373708
-0.63085058
0.046056497
-0.65947884
0.038080356
-0.69216852
0.039566656
-0.73188371
0.043515166
-0.77874993
0.045998997
-0.83167853
0.045911106
-0.88995001
0.043613163
-0.95373101
0.039897996
-1.0234651
0.035497342
-1.0993053
0.030914228
-1.1813596
0.026432761
-1.2698101
0.022195741
-1.3651824
0.018278356
-1.4682734
0.01472964
-1.5793139
0.011584188
-1.6977226
0.0088606009
-1.8238374
0.0065568122
-1.9590001
0.0046503266
-2.1033277
0.003098738
-2.2552887
0.0018503097
-2.4139966
0.00083374155
-2.580458
-0.52989894
-0.34590973
-0.59675888
-0.59272745
-0.37645031
-0.65159249
0.039795684
-0.67340604
0.44806212
-0.64649542
0.62637315
-0.59497242
0.61536172
-0.5314976
0.39251993
-0.46785352
0.17989925
-0.41383065
0.10934066
-0.37123283
0.12652011
-0.35288708
0.1728006
-0.37353841
0.21554001
-0.40677943
0.2322663
-0.44831863
0.21846715
-0.49253745
0.17760291
-0.53390128
0.12104009
-0.56841237
0.070464068
-0.59531766
0.040346776
-0.61926678
0.030969537
-0.64666148
0.034339472
-0.68140328
0.041341382
-0.72393252
0.046535299
-0.77300744
0.04829433
-0.82747888
0.04700299
-0.88696902
0.043682103
-0.95166182
0.039311361
-1.0219072
0.034583504
-1.0980587
0.029891216
-1.1803649
0.025418137
-1.269094
0.021243892
-1.3647497
0.017413572
-1.4681115
0.01396447
-1.5792911
0.010926225
-1.6976761
0.0083132105
-1.8236506
0.0061188251
-1.958614
0.0043162512
-2.1026087
0.0028603997
-2.2541354
0.0016984749
-2.41269
0.00076074104
-2.579224
-0.60738043
-0.50969512
-0.54593105
-0.29946024
-0.29352425
-0.66610064
0.088326487
-0.68932128
0.44937106
-0.66460152
0.60300558
-0.61484167
0.57718205
-0.54927439
0.34836919
-0.48017706
0.13743243
-0.41863874
0.073572528
-0.37177307
0.10384821
-0.34266632
0.16999216
-0.34552787
0.22347485
-0.37751887
0.24828867
-0.41837582
0.2385916
-0.46270269
0.19625164
-0.50457195
0.13145893
-0.53863193
0.070269986
-0.56289007
0.03286308
-0.58228527
0.021414989
-0.60433357
0.026918388
-0.63406315
0.037693742
-0.67235172
0.046307876
-0.71780829
0.050421313
-0.76891569
0.050435649
-0.82480352
0.047640337
-0.8852117
0.043322533
-0.95039334
0.038424094
-1.0208887
0.033491615
-1.0971912
0.028772592
-1.1796942
0.024352665
-1.268673
0.020262741
-1.3646099
0.016530247
-1.4681984
0.013187782
-1.5795074
0.010262384
-1.697821
0.0077645734
-1.8235865
0.0056829027
-1.9582984
0.0039861118
-2.1019306
0.0026265429
-2.2531086
0.0015505033
-2.4115198
0.000690076
-2.5781983
-0.67515596
-0.21614922
-0.61967298
-0.42636286
-0.56016618
-0.25254944
0.13337548
-0.7003031
0.44889402
-0.67868671
0.57721598
-0.63047853
0.53274537
-0.56284627
0.29575764
-0.48942297
0.085944896
-0.42185796
0.029070982
-0.36776034
0.07783334
-0.33978215
0.15930294
-0.32739477
0.23193515
-0.35033255
0.26490911
-0.3900163
0.26019809
-0.43456301
0.21714313
-0.47725442
0.14362682
-0.51139624
0.069927375
-0.533332
0.023509347
-0.54829623
0.0091440615
-0.56494534
0.017007033
-0.58958941
0.032390949
-0.62370765
0.045257612
-0.66575334
0.052316873
-0.71383584
0.053984039
-0.76665597
0.051866104
-0.82350757
0.047618307
-0.88432509
0.042497656
-0.94965526
0.037261747
-1.0202121
0.032257173
-1.0966165
0.027584957
-1.1793034
0.023252473
-1.2685235
0.01926172
-1.3647023
0.015634886
-1.468524
0.012404905
-1.5799158
0.0095974755
-1.6981109
0.007218861
-1.8236265
0.0052524276
-1.9580334
0.0036624236
-2.1013374
0.0023988154
-2.2521844
0.0014073333
-2.4105348
0.00062210319
-2.5773447
-0.70580596
0.17490631
-0.68112161
-0.14506236
-0.62973975
-0.34718592
-0.57262176
-0.20563315
0.44632681
-0.68753991
0.54797605
-0.6410735
0.4811904
-0.57133338
0.23517503
-0.49496673
0.027036831
-0.42361477
-0.022540983
-0.36379256
0.04708296
-0.33096557
0.15116762
-0.32701893
0.23248564
-0.32428425
0.28237396
-0.36394781
0.28324282
-0.40795046
0.24036162
-0.45172225
0.15788729
-0.48649883
0.069632858
-0.50649678
0.012225514
-0.51710147
-0.0061126452
-0.52826243
0.004297047
-0.5477298
0.025252458
-0.57772948
0.043341243
-0.61656467
0.054023025
-0.66191723
0.057738528
-0.71209573
0.056474366
-0.76599401
0.0523127
-0.82313654
0.046893354
-0.88394442
0.041252318
-0.94924137
0.035883844
-1.0197783
0.030925157
-1.0962691
0.026355074
-1.1791506
0.022131835
-1.2685952
0.018248971
-1.3650282
0.014733204
-1.4690401
0.011620857
-1.5804923
0.0089359895
-1.6985279
0.0066799152
-1.8237304
0.0048304147
-1.9578218
0.0033473202
-2.100803
0.0021785987
-2.2514057
0.0012697009
-2.4096855
0.00055701903
-2.5766693
-0.69176548
0.44251528
-0.70723539
0.21192571
-0.68520498
-0.079928576
-0.63803565
-0.27215056
-0.58289005
-0.15935193
0.51443515
-0.64559206
0.42208223
-0.5743522
0.16791046
-0.49672829
-0.037162429
-0.42381513
-0.078730738
-0.36090642
0.010897605
-0.32150224
0.14502773
-0.32017615
0.23792585
-0.32874996
0.29258299
-0.33060312
0.30762579
-0.3835071
0.26549515
-0.42731658
0.17417395
-0.46330378
0.069597424
-0.48218988
-0.00093994356
-0.48866314
-0.024627181
-0.4940847
-0.011534309
-0.50823682
0.016101563
-0.53417101
0.04053717
-0.56999482
0.055602083
-0.61290002
0.061804589
-0.66079397
0.061595475
-0.71223528
0.057541898
-0.76636485
0.051727196
-0.82326104
0.045538601
-0.88382991
0.039681887
-0.94897898
0.034364801
-1.0194929
0.029540727
-1.0961235
0.025106126
-1.1792067
0.021002094
-1.2688791
0.017231035
-1.3655367
0.013830438
-1.4697325
0.010840345
-1.5811949
0.0082821445
-1.6990239
0.0061512097
-1.8238937
0.0044194779
-1.957651
0.003042609
-2.1003763
0.0019669804
-2.2507346
0.0011382007
-2.4090142
0.00049503677
-2.5761332
-0.6445456
0.47564869
-0.68982951
0.43536757
-0.70611708
0.24375834
-0.68702237
-0.021252537
-0.64340855
-0.20198662
-0.59024488
-0.1148003
0.35624008
-0.57212283
0.096187342
-0.49525937
-0.10366558
-0.4232368
-0.13666099
-0.35931251
-0.029356378
-0.31449376
0.13828831
-0.31009652
0.2500346
-0.32853669
0.30640048
-0.33853936
0.32811885
-0.34622158
0.29139868
-0.40396091
0.19135133
-0.44008124
0.069188441
-0.45893172
-0.016065644
-0.46266442
-0.046597328
-0.46245112
-0.03081099
-0.47090717
0.0047722577
-0.49279554
0.036851152
-0.52583133
0.057139838
-0.56656453
0.066299864
-0.61249371
0.067369476
-0.66188534
0.063457556
-0.71355939
0.057139071
-0.76717839
0.050222274
-0.82351159
0.043700766
-0.88375891
0.037905347
-0.94877394
0.032779109
-1.019344
0.02814221
-1.0961537
0.023855514
-1.1794547
0.019871489
-1.2693478
0.016213294
-1.3662258
0.012931261
-1.4705561
0.01006782
-1.5819963
0.0076398369
-1.6995818
0.0056358376
-1.8240868
0.0040218439
-1.9575488
0.0027497189
-2.1000286
0.001764812
-2.2502233
0.0010133191
-2.4084782
0.00043653351
-2.57577
-0.56509279
0.28441911
-0.63658956
0.43086321
-0.68329621
0.42282975
-0.70033519
0.26799505
-0.68564726
0.030684868
-0.64492884
-0.13762699
-0.59459732
-0.072934628
0.022742473
-0.49129472
-0.16934076
-0.4225772
-0.19348557
-0.35979865
-0.071126388
-0.31133711
0.12923491
-0.30076259
0.26779274
-0.32407939
0.32596452
-0.34394683
0.35114851
-0.35650763
0.32017119
-0.36953606
0.20745712
-0.41593528
0.066268349
-0.43348408
-0.034888426
-0.43596766
-0.072287329
-0.43298013
-0.053931787
-0.43570537
-0.0088810003
-0.45342202
0.032329168
-0.48387895
0.05875011
-0.52272914
0.071351832
-0.5669872
0.073937807
-0.61467063
0.070218071
-0.6643384
0.063287092
-0.71531504
0.055430451
-0.76799989
0.048012916
-0.82367899
0.041561448
-0.88362073
0.036041575
-0.94859042
0.03118996
-1.0193037
0.026757711
-1.0963533
0.022614538
-1.1798894
0.018745485
-1.2699886
0.015200057
-1.3670482
0.012040094
-1.4714985
0.0093074594
-1.5828571
0.0070126038
-1.7001609
0.0051364682
-1.8243191
0.0036393266
-1.9575015
0.0024697798
-2.0998046
0.0015727032
-2.2498307
0.00089537744
-2.4081024
0.00038171389
-2.5755404
-0.48552953
-0.049439386
-0.55434575
0.20980476
-0.6235807
0.37961642
-0.67094582
0.40374186
-0.69006632
0.28332885
-0.68010735
0.075558719
-0.64291036
-0.079602572
-0.59626698
-0.034454408
-0.23138215
-0.42224508
-0.24712748
-0.36229315
-0.11227652
-0.31240386
0.11741261
-0.29483135
0.28841935
-0.31759915
0.3525013
-0.34635641
0.3772073
-0.36476724
0.35070689
-0.38140277
0.2364146
-0.39439129
0.05908112
-0.40532214
-0.060763867
-0.40371853
-0.10288078
-0.40161262
-0.081161331
-0.40237904
-0.025104732
-0.41591225
0.027059617
-0.44400167
0.060581182
-0.48123801
0.077095341
-0.52409873
0.08143533
-0.57037383
0.077977699
-0.61841182
0.070337894
-0.66726645
0.061311715
-0.71695918
0.052715417
-0.76852664
0.045364406
-0.82359379
0.039303762
-0.88336417
0.034192427
-0.9484274
0.029643192
-1.0193846
0.02540402
-1.0967215
0.021388994
-1.1804909
0.017627532
-1.2707706
0.014195114
-1.3680037
0.011161016
-1.4725176
0.0085631234
-1.5837495
0.0064035685
-1.7007526
0.0046553481
-1.8245788
0.0032733614
-1.9575309
0.0022036079
-2.0996634
0.001391093
-2.2495765
0.00078452095
-2.4078389
0.00033059965
-2.5754471
-0.42228236
-0.28763681
-0.47935911
-0.11705881
-0.54140742
0.13525173
-0.6058406
0.3229847
-0.65324377
0.37723488
-0.67527352
0.28938751
-0.66996204
0.11228906
-0.63727495
-0.028842437
-0.59496048
-0.0004327216
-0.29624427
-0.36647102
-0.15241547
-0.31587815
0.10266817
-0.29297686
0.30872864
-0.31134931
0.38536772
-0.3461216
0.40716123
-0.37092189
0.38276587
-0.39103403
0.2663862
-0.40712315
0.06991056
-0.40183352
-0.093712153
-0.36872901
-0.13969271
-0.36336397
-0.11131821
-0.36831525
-0.043950067
-0.38020754
0.021122847
-0.40605358
0.062810363
-0.44198398
0.08367012
-0.48367857
0.089980998
-0.52880105
0.086875223
-0.57552828
0.078456859
-0.62267881
0.068030521
-0.66995909
0.057930378
-0.71805923
0.049366773
-0.76856404
0.042549416
-0.82321207
0.037087117
-0.88300145
0.032431886
-0.94830153
0.028165198
-1.019603
0.024087828
-1.0972641
0.020180578
-1.1812491
0.016519779
-1.2716821
0.013201862
-1.3690501
0.010297947
-1.4735958
0.0078383086
-1.5846469
0.005815421
-1.7013551
0.0041942658
-1.8248736
0.0029250269
-1.9576155
0.0019518114
-2.0996359
0.0012202645
-2.2494183
0.00068081194
-2.4077167
0.00028311055
-2.5754538
-0.37191856
-0.33995054
-0.42391233
-0.33611946
-0.47241016
-0.1787146
-0.52651695
0.06352956
-0.58470998
0.26291926
-0.63105047
0.3433371
-0.65587472
0.2861578
-0.65529569
0.13995946
-0.62846525
0.014461046
-0.5912591
0.028542696
-0.19151671
-0.3210716
0.086937912
-0.29547414
0.32620715
-0.30667694
0.42262696
-0.34420101
0.44139406
-0.37484079
0.41620955
-0.39844513
0.2972999
-0.41757175
0.081989918
-0.41566879
-0.11222549
-0.37973185
-0.18185932
-0.32323601
-0.14205259
-0.32969617
-0.063548978
-0.34561623
0.014657636
-0.37004054
0.065659816
-0.40487031
0.091215942
-0.4456206
0.099669478
-0.48977621
0.097020276
-0.53546407
0.087795929
-0.58127174
0.075759617
-0.62662046
0.063803636
-0.67188315
0.053644972
-0.71838544
0.045774788
-0.7680519
0.039809181
-0.82254561
0.035029136
-0.8825619
0.030802607
-0.94826487
0.026764566
-1.0199921
0.022807857
-1.0979777
0.018988333
-1.1821455
0.015423866
-1.2727019
0.012223622
-1.3701798
0.0094544943
-1.4747006
0.0071361187
-1.5855599
0.0052503646
-1.7019608
0.0037546332
-1.8252041
0.0025951303
-1.9577763
0.0017147973
-2.0996854
0.001060371
-2.2493931
0.00058413702
-2.4076884
0.00023903194
-2.575593
-0.32803314
-0.22909317
-0.37961057
-0.37760724
-0.42502963
-0.37657647
-0.46519833
-0.23273077
-0.51046351
-0.0031435258
-0.56132708
0.20164921
-0.6055869
0.30337924
-0.63325849
0.2749317
-0.63764488
0.15874272
-0.61697247
0.050026261
-0.58562203
0.052048532
0.071008705
-0.30048365
0.34084661
-0.3063612
0.46219643
-0.34179605
0.47951128
-0.37670317
0.45085571
-0.40346168
0.32816403
-0.42482026
0.095339161
-0.42724857
-0.12711323
-0.39704047