/*--------------------------------*- C++ -*----------------------------------*\
| =========                 |                                                 |
| \\      /  F ield         | OpenFOAM: The Open Source CFD Toolbox           |
|  \\    /   O peration     | Version:  v2012                                 |
|   \\  /    A nd           | Website:  www.openfoam.com                      |
|    \\/     M anipulation  |                                                 |
\*---------------------------------------------------------------------------*/
FoamFile
{
    version     2.0;
    format      ascii;
    class       pointVectorField;
    location    "27.8675464545396459";
    object      pointDisplacement;
}
// * * * * * * * * * * * * * * * * * * * * * * * * * * * * * * * * * * * * * //

dimensions      [0 1 0 0 0 0 0];


internalField   nonuniform List<vector> 
18840
(
(-0.051943578 -0 -0)
(-0.052041744 0 0)
(-0.052333792 0 0)
(-0.052815177 0 0)
(-0.053482404 0 0)
(-0.054332271 0 0)
(-0.055362508 0 0)
(-0.056570943 0 0)
(-0.057955967 0 0)
(-0.05951615 0 0)
(-0.0612504 0 0)
(-0.063157765 0 0)
(-0.065237457 0 0)
(-0.067488874 0 0)
(-0.069911456 0 0)
(-0.072504876 0 0)
(-0.075268656 0 0)
(-0.078202494 0 0)
(-0.081305489 0 0)
(-0.084574739 0 0)
(-0.088674499 0 0)
(-0.051943578 -0 -0)
(-0.052041352 0 0)
(-0.052332283 0 0)
(-0.052812021 0 0)
(-0.053477009 0 0)
(-0.054324308 0 0)
(-0.055351325 0 0)
(-0.056556074 0 0)
(-0.05793678 0 0)
(-0.059492113 0 0)
(-0.06122083 0 0)
(-0.063122001 0 0)
(-0.065194725 0 0)
(-0.067438341 0 0)
(-0.069852209 0 0)
(-0.07243587 0 0)
(-0.075188845 0 0)
(-0.078110686 0 0)
(-0.081200747 0 0)
(-0.08445723 0 0)
(-0.087853067 0 0)
(-0.051943578 -0 -0)
(-0.052041062 0 0)
(-0.052331167 0 0)
(-0.052809629 0 0)
(-0.053472966 0 0)
(-0.054318174 0 0)
(-0.05534268 0 0)
(-0.05654435 0 0)
(-0.057921464 0 0)
(-0.059472523 0 0)
(-0.06119629 0 0)
(-0.063091634 0 0)
(-0.065157627 0 0)
(-0.067393383 0 0)
(-0.069798195 0 0)
(-0.072371374 0 0)
(-0.075112392 0 0)
(-0.078020706 0 0)
(-0.081095947 0 0)
(-0.084337828 0 0)
(-0.087762963 0 0)
(-0.051943578 -0 -0)
(-0.052040669 0 0)
(-0.052329642 0 0)
(-0.05280632 0 0)
(-0.053467263 0 0)
(-0.054309465 0 0)
(-0.055330296 0 0)
(-0.056527574 0 0)
(-0.057899512 0 0)
(-0.059444514 0 0)
(-0.061161229 0 0)
(-0.063048382 0 0)
(-0.065104882 0 0)
(-0.067329649 0 0)
(-0.069721763 0 0)
(-0.072280279 0 0)
(-0.075004396 0 0)
(-0.077893269 0 0)
(-0.080946182 0 0)
(-0.084162254 0 0)
(-0.08759648 0 0)
(-0.051943578 -0 -0)
(-0.052040172 0 0)
(-0.052327712 0 0)
(-0.052802099 0 0)
(-0.053459958 0 0)
(-0.054298272 0 0)
(-0.055314377 0 0)
(-0.056506032 0 0)
(-0.057871369 0 0)
(-0.059408681 0 0)
(-0.061116479 0 0)
(-0.062993315 0 0)
(-0.065037898 0 0)
(-0.06724892 0 0)
(-0.069625181 0 0)
(-0.072165428 0 0)
(-0.074868486 0 0)
(-0.077733098 0 0)
(-0.080758042 0 0)
(-0.083941783 0 0)
(-0.087374284 0 0)
(-0.051943578 -0 -0)
(-0.052039581 0 0)
(-0.052325393 0 0)
(-0.05279703 0 0)
(-0.053451119 0 0)
(-0.054284742 0 0)
(-0.055295133 0 0)
(-0.056480043 0 0)
(-0.057837483 0 0)
(-0.059365654 0 0)
(-0.061062899 0 0)
(-0.062927596 0 0)
(-0.064958232 0 0)
(-0.067153236 0 0)
(-0.069511132 0 0)
(-0.072030299 0 0)
(-0.074709208 0 0)
(-0.077546121 0 0)
(-0.080539381 0 0)
(-0.083686795 0 0)
(-0.087109323 0 0)
(-0.051943578 -0 -0)
(-0.052038907 0 0)
(-0.052322735 0 0)
(-0.052791165 0 0)
(-0.053440913 0 0)
(-0.05426902 0 0)
(-0.055272827 0 0)
(-0.056449918 0 0)
(-0.057798327 0 0)
(-0.059316051 0 0)
(-0.061001363 0 0)
(-0.062852389 0 0)
(-0.064867451 0 0)
(-0.067044683 0 0)
(-0.069382333 0 0)
(-0.071878456 0 0)
(-0.074531111 0 0)
(-0.077338213 0 0)
(-0.080297547 0 0)
(-0.083406574 0 0)
(-0.086812376 0 0)
(-0.051943578 -0 -0)
(-0.052038149 0 0)
(-0.052319767 0 0)
(-0.052784585 0 0)
(-0.053429436 0 0)
(-0.054251331 0 0)
(-0.055247694 0 0)
(-0.056416042 0 0)
(-0.057754353 0 0)
(-0.059260533 0 0)
(-0.060932708 0 0)
(-0.062768852 0 0)
(-0.064767046 0 0)
(-0.066925231 0 0)
(-0.069241325 0 0)
(-0.071713133 0 0)
(-0.07433831 0 0)
(-0.07711447 0 0)
(-0.080038927 0 0)
(-0.083108822 0 0)
(-0.086492557 0 0)
(-0.051943578 -0 -0)
(-0.052037306 0 0)
(-0.052316466 0 0)
(-0.052777324 0 0)
(-0.053416731 0 0)
(-0.054231831 0 0)
(-0.055219963 0 0)
(-0.05637877 0 0)
(-0.057706051 0 0)
(-0.059199757 0 0)
(-0.060857798 0 0)
(-0.062678109 0 0)
(-0.064658493 0 0)
(-0.066796745 0 0)
(-0.069090488 0 0)
(-0.071537276 0 0)
(-0.074134471 0 0)
(-0.076879323 0 0)
(-0.079768915 0 0)
(-0.082799949 0 0)
(-0.086157299 0 0)
(-0.051943578 -0 -0)
(-0.052036376 0 0)
(-0.052312826 0 0)
(-0.052769344 0 0)
(-0.053402846 0 0)
(-0.054210542 0 0)
(-0.055189819 0 0)
(-0.05633833 0 0)
(-0.057653841 0 0)
(-0.059134259 0 0)
(-0.060777412 0 0)
(-0.062581132 0 0)
(-0.064543076 0 0)
(-0.066660851 0 0)
(-0.068931863 0 0)
(-0.07135343 0 0)
(-0.073922661 0 0)
(-0.076636532 0 0)
(-0.07949187 0 0)
(-0.082485175 0 0)
(-0.085812299 0 0)
(-0.051943578 -0 -0)
(-0.052035553 0 0)
(-0.052309615 0 0)
(-0.052762246 0 0)
(-0.053390533 0 0)
(-0.054191657 0 0)
(-0.055163134 0 0)
(-0.056302559 0 0)
(-0.057607727 0 0)
(-0.059076467 0 0)
(-0.060706564 0 0)
(-0.062495744 0 0)
(-0.064441544 0 0)
(-0.066541427 0 0)
(-0.068792571 0 0)
(-0.071192121 0 0)
(-0.073736894 0 0)
(-0.076423719 0 0)
(-0.079249078 0 0)
(-0.082209457 0 0)
(-0.085505086 0 0)
(-0.051943578 -0 -0)
(-0.052041744 0 0)
(-0.052333792 0 0)
(-0.052815177 0 0)
(-0.053482404 0 0)
(-0.054332271 0 0)
(-0.055362508 0 0)
(-0.056570943 0 0)
(-0.057955967 0 0)
(-0.05951615 0 0)
(-0.0612504 0 0)
(-0.063157765 0 0)
(-0.065237457 0 0)
(-0.067488874 0 0)
(-0.069911456 0 0)
(-0.072504876 0 0)
(-0.075268656 0 0)
(-0.078202494 0 0)
(-0.081305489 0 0)
(-0.084574739 0 0)
(-0.088674499 0 0)
(-0.051943578 -0 -0)
(-0.052041352 0 0)
(-0.052332283 0 0)
(-0.052812021 0 0)
(-0.053477009 0 0)
(-0.054324308 0 0)
(-0.055351325 0 0)
(-0.056556074 0 0)
(-0.05793678 0 0)
(-0.059492113 0 0)
(-0.06122083 0 0)
(-0.063122001 0 0)
(-0.065194725 0 0)
(-0.067438341 0 0)
(-0.069852209 0 0)
(-0.07243587 0 0)
(-0.075188845 0 0)
(-0.078110686 0 0)
(-0.081200747 0 0)
(-0.08445723 0 0)
(-0.087853067 0 0)
(-0.051943578 -0 -0)
(-0.052041062 0 0)
(-0.052331167 0 0)
(-0.052809629 0 0)
(-0.053472966 0 0)
(-0.054318174 0 0)
(-0.05534268 0 0)
(-0.05654435 0 0)
(-0.057921464 0 0)
(-0.059472523 0 0)
(-0.06119629 0 0)
(-0.063091634 0 0)
(-0.065157627 0 0)
(-0.067393383 0 0)
(-0.069798195 0 0)
(-0.072371374 0 0)
(-0.075112392 0 0)
(-0.078020706 0 0)
(-0.081095947 0 0)
(-0.084337828 0 0)
(-0.087762963 0 0)
(-0.051943578 -0 -0)
(-0.052040669 0 0)
(-0.052329642 0 0)
(-0.05280632 0 0)
(-0.053467263 0 0)
(-0.054309465 0 0)
(-0.055330296 0 0)
(-0.056527574 0 0)
(-0.057899512 0 0)
(-0.059444514 0 0)
(-0.061161229 0 0)
(-0.063048382 0 0)
(-0.065104882 0 0)
(-0.067329649 0 0)
(-0.069721763 0 0)
(-0.072280279 0 0)
(-0.075004396 0 0)
(-0.077893269 0 0)
(-0.080946182 0 0)
(-0.084162254 0 0)
(-0.08759648 0 0)
(-0.051943578 -0 -0)
(-0.052040172 0 0)
(-0.052327712 0 0)
(-0.052802099 0 0)
(-0.053459958 0 0)
(-0.054298272 0 0)
(-0.055314377 0 0)
(-0.056506032 0 0)
(-0.057871369 0 0)
(-0.059408681 0 0)
(-0.061116479 0 0)
(-0.062993315 0 0)
(-0.065037898 0 0)
(-0.06724892 0 0)
(-0.069625181 0 0)
(-0.072165428 0 0)
(-0.074868486 0 0)
(-0.077733098 0 0)
(-0.080758042 0 0)
(-0.083941783 0 0)
(-0.087374284 0 0)
(-0.051943578 -0 -0)
(-0.052039581 0 0)
(-0.052325393 0 0)
(-0.05279703 0 0)
(-0.053451119 0 0)
(-0.054284742 0 0)
(-0.055295133 0 0)
(-0.056480043 0 0)
(-0.057837483 0 0)
(-0.059365654 0 0)
(-0.061062899 0 0)
(-0.062927596 0 0)
(-0.064958232 0 0)
(-0.067153236 0 0)
(-0.069511132 0 0)
(-0.072030299 0 0)
(-0.074709208 0 0)
(-0.077546121 0 0)
(-0.080539381 0 0)
(-0.083686795 0 0)
(-0.087109323 0 0)
(-0.051943578 -0 -0)
(-0.052038907 0 0)
(-0.052322735 0 0)
(-0.052791165 0 0)
(-0.053440913 0 0)
(-0.05426902 0 0)
(-0.055272827 0 0)
(-0.056449918 0 0)
(-0.057798327 0 0)
(-0.059316051 0 0)
(-0.061001363 0 0)
(-0.062852389 0 0)
(-0.064867451 0 0)
(-0.067044683 0 0)
(-0.069382333 0 0)
(-0.071878456 0 0)
(-0.074531111 0 0)
(-0.077338213 0 0)
(-0.080297547 0 0)
(-0.083406574 0 0)
(-0.086812376 0 0)
(-0.051943578 -0 -0)
(-0.052038149 0 0)
(-0.052319767 0 0)
(-0.052784585 0 0)
(-0.053429436 0 0)
(-0.054251331 0 0)
(-0.055247694 0 0)
(-0.056416042 0 0)
(-0.057754353 0 0)
(-0.059260533 0 0)
(-0.060932708 0 0)
(-0.062768852 0 0)
(-0.064767046 0 0)
(-0.066925231 0 0)
(-0.069241325 0 0)
(-0.071713133 0 0)
(-0.07433831 0 0)
(-0.07711447 0 0)
(-0.080038927 0 0)
(-0.083108822 0 0)
(-0.086492557 0 0)
(-0.051943578 -0 -0)
(-0.052037306 0 0)
(-0.052316466 0 0)
(-0.052777324 0 0)
(-0.053416731 0 0)
(-0.054231831 0 0)
(-0.055219963 0 0)
(-0.05637877 0 0)
(-0.057706051 0 0)
(-0.059199757 0 0)
(-0.060857798 0 0)
(-0.062678109 0 0)
(-0.064658493 0 0)
(-0.066796745 0 0)
(-0.069090488 0 0)
(-0.071537276 0 0)
(-0.074134471 0 0)
(-0.076879323 0 0)
(-0.079768915 0 0)
(-0.082799949 0 0)
(-0.086157299 0 0)
(-0.051943578 -0 -0)
(-0.052036376 0 0)
(-0.052312826 0 0)
(-0.052769344 0 0)
(-0.053402846 0 0)
(-0.054210542 0 0)
(-0.055189819 0 0)
(-0.05633833 0 0)
(-0.057653841 0 0)
(-0.059134259 0 0)
(-0.060777412 0 0)
(-0.062581132 0 0)
(-0.064543076 0 0)
(-0.066660851 0 0)
(-0.068931863 0 0)
(-0.07135343 0 0)
(-0.073922661 0 0)
(-0.076636532 0 0)
(-0.07949187 0 0)
(-0.082485175 0 0)
(-0.085812299 0 0)
(-0.051943578 -0 -0)
(-0.052035553 0 0)
(-0.052309615 0 0)
(-0.052762246 0 0)
(-0.053390533 0 0)
(-0.054191657 0 0)
(-0.055163134 0 0)
(-0.056302559 0 0)
(-0.057607727 0 0)
(-0.059076467 0 0)
(-0.060706564 0 0)
(-0.062495744 0 0)
(-0.064441544 0 0)
(-0.066541427 0 0)
(-0.068792571 0 0)
(-0.071192121 0 0)
(-0.073736894 0 0)
(-0.076423719 0 0)
(-0.079249078 0 0)
(-0.082209457 0 0)
(-0.085505086 0 0)
(-0.051943578 -0 -0)
(-0.05204689 0 0)
(-0.052353889 0 0)
(-0.052859168 0 0)
(-0.053558206 0 0)
(-0.054447123 0 0)
(-0.055522552 0 0)
(-0.056781539 0 0)
(-0.058221488 0 0)
(-0.059840095 0 0)
(-0.061635304 0 0)
(-0.063605241 0 0)
(-0.065748167 0 0)
(-0.068062462 0 0)
(-0.07054655 0 0)
(-0.073198932 0 0)
(-0.076018075 0 0)
(-0.079002509 0 0)
(-0.082150643 0 0)
(-0.085459067 0 0)
(-0.089221765 0 0)
(-0.051943578 -0 -0)
(-0.052046359 0 0)
(-0.052351766 0 0)
(-0.052854401 0 0)
(-0.053549774 0 0)
(-0.054434065 0 0)
(-0.055503983 0 0)
(-0.056756669 0 0)
(-0.058189635 0 0)
(-0.059800694 0 0)
(-0.061587906 0 0)
(-0.063549515 0 0)
(-0.0656839 0 0)
(-0.067989552 0 0)
(-0.070465011 0 0)
(-0.073108905 0 0)
(-0.075919834 0 0)
(-0.078896475 0 0)
(-0.08203739 0 0)
(-0.085339359 0 0)
(-0.089094578 0 0)
(-0.051943578 -0 -0)
(-0.052045999 0 0)
(-0.052350322 0 0)
(-0.052851153 0 0)
(-0.053544026 0 0)
(-0.054425181 0 0)
(-0.055491403 0 0)
(-0.056739924 0 0)
(-0.05816836 0 0)
(-0.059774631 0 0)
(-0.061556911 0 0)
(-0.063513555 0 0)
(-0.065643055 0 0)
(-0.06794402 0 0)
(-0.070415115 0 0)
(-0.073055105 0 0)
(-0.075862735 0 0)
(-0.07883685 0 0)
(-0.08197619 0 0)
(-0.08527781 0 0)
(-0.08902376 0 0)
(-0.051943578 -0 -0)
(-0.052045607 0 0)
(-0.052348772 0 0)
(-0.052847716 0 0)
(-0.053538023 0 0)
(-0.05441601 0 0)
(-0.055478557 0 0)
(-0.056722998 0 0)
(-0.058147063 0 0)
(-0.059748783 0 0)
(-0.061526456 0 0)
(-0.063478554 0 0)
(-0.065603697 0 0)
(-0.067900626 0 0)
(-0.070368148 0 0)
(-0.073005183 0 0)
(-0.075810648 0 0)
(-0.078783578 0 0)
(-0.081922922 0 0)
(-0.085226094 0 0)
(-0.088958128 0 0)
(-0.051943578 -0 -0)
(-0.052045189 0 0)
(-0.052347133 0 0)
(-0.052844114 0 0)
(-0.053531792 0 0)
(-0.054406576 0 0)
(-0.055465454 0 0)
(-0.056705869 0 0)
(-0.058125666 0 0)
(-0.059722994 0 0)
(-0.061496273 0 0)
(-0.0634441 0 0)
(-0.065565229 0 0)
(-0.067858541 0 0)
(-0.070323 0 0)
(-0.072957691 0 0)
(-0.075761722 0 0)
(-0.078734333 0 0)
(-0.081874704 0 0)
(-0.085180674 0 0)
(-0.088893679 0 0)
(-0.051943578 -0 -0)
(-0.052044741 0 0)
(-0.052345388 0 0)
(-0.052840308 0 0)
(-0.053525249 0 0)
(-0.054396728 0 0)
(-0.055451852 0 0)
(-0.056688169 0 0)
(-0.058103643 0 0)
(-0.059696534 0 0)
(-0.061465386 0 0)
(-0.063408917 0 0)
(-0.06552602 0 0)
(-0.067815713 0 0)
(-0.070277126 0 0)
(-0.072909511 0 0)
(-0.075712176 0 0)
(-0.078684572 0 0)
(-0.081826123 0 0)
(-0.085135148 0 0)
(-0.08882331 0 0)
(-0.051943578 -0 -0)
(-0.052044256 0 0)
(-0.052343501 0 0)
(-0.052836205 0 0)
(-0.053518218 0 0)
(-0.054386169 0 0)
(-0.05543729 0 0)
(-0.056669237 0 0)
(-0.058080081 0 0)
(-0.059668187 0 0)
(-0.061432214 0 0)
(-0.063370993 0 0)
(-0.065483549 0 0)
(-0.067769031 0 0)
(-0.070226724 0 0)
(-0.072856043 0 0)
(-0.07565649 0 0)
(-0.078627726 0 0)
(-0.081769426 0 0)
(-0.085080432 0 0)
(-0.088736982 0 0)
(-0.051943578 -0 -0)
(-0.052043718 0 0)
(-0.052341412 0 0)
(-0.052831673 0 0)
(-0.05351045 0 0)
(-0.054374479 0 0)
(-0.05542113 0 0)
(-0.05664816 0 0)
(-0.058053736 0 0)
(-0.059636309 0 0)
(-0.06139464 0 0)
(-0.063327656 0 0)
(-0.065434496 0 0)
(-0.067714415 0 0)
(-0.070166833 0 0)
(-0.072791297 0 0)
(-0.07558749 0 0)
(-0.078555246 0 0)
(-0.08169449 0 0)
(-0.08500465 0 0)
(-0.088621599 0 0)
(-0.051943578 -0 -0)
(-0.052043108 0 0)
(-0.052339049 0 0)
(-0.052826542 0 0)
(-0.053501633 0 0)
(-0.054361209 0 0)
(-0.055402688 0 0)
(-0.056623985 0 0)
(-0.058023291 0 0)
(-0.059599175 0 0)
(-0.061350429 0 0)
(-0.063276087 0 0)
(-0.065375345 0 0)
(-0.067647535 0 0)
(-0.070092181 0 0)
(-0.072708882 0 0)
(-0.075497476 0 0)
(-0.078457789 0 0)
(-0.081590048 0 0)
(-0.08489412 0 0)
(-0.088461848 0 0)
(-0.051943578 -0 -0)
(-0.0520424 0 0)
(-0.052336321 0 0)
(-0.052820595 0 0)
(-0.053491577 0 0)
(-0.054346001 0 0)
(-0.055381614 0 0)
(-0.05659619 0 0)
(-0.057988134 0 0)
(-0.05955594 0 0)
(-0.061298559 0 0)
(-0.063214984 0 0)
(-0.065304499 0 0)
(-0.067566447 0 0)
(-0.070000382 0 0)
(-0.072605946 0 0)
(-0.075382881 0 0)
(-0.078330985 0 0)
(-0.081450078 0 0)
(-0.084739078 0 0)
(-0.088239807 0 0)
(-0.051943578 -0 -0)
(-0.05204689 0 0)
(-0.052353889 0 0)
(-0.052859168 0 0)
(-0.053558206 0 0)
(-0.054447123 0 0)
(-0.055522552 0 0)
(-0.056781539 0 0)
(-0.058221488 0 0)
(-0.059840095 0 0)
(-0.061635304 0 0)
(-0.063605241 0 0)
(-0.065748167 0 0)
(-0.068062462 0 0)
(-0.07054655 0 0)
(-0.073198932 0 0)
(-0.076018075 0 0)
(-0.079002509 0 0)
(-0.082150643 0 0)
(-0.085459067 0 0)
(-0.089221765 0 0)
(-0.051943578 -0 -0)
(-0.052046359 0 0)
(-0.052351766 0 0)
(-0.052854401 0 0)
(-0.053549774 0 0)
(-0.054434065 0 0)
(-0.055503983 0 0)
(-0.056756669 0 0)
(-0.058189635 0 0)
(-0.059800694 0 0)
(-0.061587906 0 0)
(-0.063549515 0 0)
(-0.0656839 0 0)
(-0.067989552 0 0)
(-0.070465011 0 0)
(-0.073108905 0 0)
(-0.075919834 0 0)
(-0.078896475 0 0)
(-0.08203739 0 0)
(-0.085339359 0 0)
(-0.089094578 0 0)
(-0.051943578 -0 -0)
(-0.052045999 0 0)
(-0.052350322 0 0)
(-0.052851153 0 0)
(-0.053544026 0 0)
(-0.054425181 0 0)
(-0.055491403 0 0)
(-0.056739924 0 0)
(-0.05816836 0 0)
(-0.059774631 0 0)
(-0.061556911 0 0)
(-0.063513555 0 0)
(-0.065643055 0 0)
(-0.06794402 0 0)
(-0.070415115 0 0)
(-0.073055105 0 0)
(-0.075862735 0 0)
(-0.07883685 0 0)
(-0.08197619 0 0)
(-0.08527781 0 0)
(-0.08902376 0 0)
(-0.051943578 -0 -0)
(-0.052045607 0 0)
(-0.052348772 0 0)
(-0.052847716 0 0)
(-0.053538023 0 0)
(-0.05441601 0 0)
(-0.055478557 0 0)
(-0.056722998 0 0)
(-0.058147063 0 0)
(-0.059748783 0 0)
(-0.061526456 0 0)
(-0.063478554 0 0)
(-0.065603697 0 0)
(-0.067900626 0 0)
(-0.070368148 0 0)
(-0.073005183 0 0)
(-0.075810648 0 0)
(-0.078783578 0 0)
(-0.081922922 0 0)
(-0.085226094 0 0)
(-0.088958128 0 0)
(-0.051943578 -0 -0)
(-0.052045189 0 0)
(-0.052347133 0 0)
(-0.052844114 0 0)
(-0.053531792 0 0)
(-0.054406576 0 0)
(-0.055465454 0 0)
(-0.056705869 0 0)
(-0.058125666 0 0)
(-0.059722994 0 0)
(-0.061496273 0 0)
(-0.0634441 0 0)
(-0.065565229 0 0)
(-0.067858541 0 0)
(-0.070323 0 0)
(-0.072957691 0 0)
(-0.075761722 0 0)
(-0.078734333 0 0)
(-0.081874704 0 0)
(-0.085180674 0 0)
(-0.088893679 0 0)
(-0.051943578 -0 -0)
(-0.052044741 0 0)
(-0.052345388 0 0)
(-0.052840308 0 0)
(-0.053525249 0 0)
(-0.054396728 0 0)
(-0.055451852 0 0)
(-0.056688169 0 0)
(-0.058103643 0 0)
(-0.059696534 0 0)
(-0.061465386 0 0)
(-0.063408917 0 0)
(-0.06552602 0 0)
(-0.067815713 0 0)
(-0.070277126 0 0)
(-0.072909511 0 0)
(-0.075712176 0 0)
(-0.078684572 0 0)
(-0.081826123 0 0)
(-0.085135148 0 0)
(-0.08882331 0 0)
(-0.051943578 -0 -0)
(-0.052044256 0 0)
(-0.052343501 0 0)
(-0.052836205 0 0)
(-0.053518218 0 0)
(-0.054386169 0 0)
(-0.05543729 0 0)
(-0.056669237 0 0)
(-0.058080081 0 0)
(-0.059668187 0 0)
(-0.061432214 0 0)
(-0.063370993 0 0)
(-0.065483549 0 0)
(-0.067769031 0 0)
(-0.070226724 0 0)
(-0.072856043 0 0)
(-0.07565649 0 0)
(-0.078627726 0 0)
(-0.081769426 0 0)
(-0.085080432 0 0)
(-0.088736982 0 0)
(-0.051943578 -0 -0)
(-0.052043718 0 0)
(-0.052341412 0 0)
(-0.052831673 0 0)
(-0.05351045 0 0)
(-0.054374479 0 0)
(-0.05542113 0 0)
(-0.05664816 0 0)
(-0.058053736 0 0)
(-0.059636309 0 0)
(-0.06139464 0 0)
(-0.063327656 0 0)
(-0.065434496 0 0)
(-0.067714415 0 0)
(-0.070166833 0 0)
(-0.072791297 0 0)
(-0.07558749 0 0)
(-0.078555246 0 0)
(-0.08169449 0 0)
(-0.08500465 0 0)
(-0.088621599 0 0)
(-0.051943578 -0 -0)
(-0.052043108 0 0)
(-0.052339049 0 0)
(-0.052826542 0 0)
(-0.053501633 0 0)
(-0.054361209 0 0)
(-0.055402688 0 0)
(-0.056623985 0 0)
(-0.058023291 0 0)
(-0.059599175 0 0)
(-0.061350429 0 0)
(-0.063276087 0 0)
(-0.065375345 0 0)
(-0.067647535 0 0)
(-0.070092181 0 0)
(-0.072708882 0 0)
(-0.075497476 0 0)
(-0.078457789 0 0)
(-0.081590048 0 0)
(-0.08489412 0 0)
(-0.088461848 0 0)
(-0.051943578 -0 -0)
(-0.0520424 0 0)
(-0.052336321 0 0)
(-0.052820595 0 0)
(-0.053491577 0 0)
(-0.054346001 0 0)
(-0.055381614 0 0)
(-0.05659619 0 0)
(-0.057988134 0 0)
(-0.05955594 0 0)
(-0.061298559 0 0)
(-0.063214984 0 0)
(-0.065304499 0 0)
(-0.067566447 0 0)
(-0.070000382 0 0)
(-0.072605946 0 0)
(-0.075382881 0 0)
(-0.078330985 0 0)
(-0.081450078 0 0)
(-0.084739078 0 0)
(-0.088239807 0 0)
(-0.093808358 0 0)
(-0.098928921 0 0)
(-0.1042781 0 0)
(-0.10984587 0 0)
(-0.1156188 0 0)
(-0.1215813 0 0)
(-0.12771272 0 0)
(-0.13398368 0 0)
(-0.14035474 0 0)
(-0.14678419 0 0)
(-0.15323444 0 0)
(-0.15966591 0 0)
(-0.16603766 0 0)
(-0.17231155 0 0)
(-0.17845075 0 0)
(-0.18442003 0 0)
(-0.19019302 0 0)
(-0.19574075 0 0)
(-0.20101841 0 0)
(-0.20598162 0 0)
(-0.21058329 0 0)
(-0.2147855 0 0)
(-0.21855865 0 0)
(-0.22187939 0 0)
(-0.22472535 0 0)
(-0.2270733 0 0)
(-0.22891055 0 0)
(-0.23017794 0 0)
(-0.23078642 0 0)
(-0.23068101 0 0)
(-0.22987024 0 0)
(-0.22834491 0 0)
(-0.22601765 0 0)
(-0.22283527 0 0)
(-0.21878029 0 0)
(-0.21372156 0 0)
(-0.2075367 0 0)
(-0.20014001 0 0)
(-0.19146039 0 0)
(-0.18152094 0 0)
(-0.17028943 0 0)
(-0.1576689 0 0)
(-0.14356453 0 0)
(-0.12794614 0 0)
(-0.11084169 0 0)
(-0.092199276 0 0)
(-0.071830588 0 0)
(-0.049601063 0 0)
(-0.025618483 0 0)
(0 0 0)
(-0.093670883 0 0)
(-0.098780956 0 0)
(-0.10412252 0 0)
(-0.10968587 0 0)
(-0.11545781 0 0)
(-0.12142291 0 0)
(-0.12756087 0 0)
(-0.13384194 0 0)
(-0.1402264 0 0)
(-0.14667247 0 0)
(-0.15314068 0 0)
(-0.15959016 0 0)
(-0.16597994 0 0)
(-0.1722717 0 0)
(-0.1784275 0 0)
(-0.18441144 0 0)
(-0.19019752 0 0)
(-0.19575804 0 0)
(-0.20104853 0 0)
(-0.20602295 0 0)
(-0.21063514 0 0)
(-0.21484744 0 0)
(-0.21863023 0 0)
(-0.22196023 0 0)
(-0.22481636 0 0)
(-0.22717626 0 0)
(-0.22902356 0 0)
(-0.23029981 0 0)
(-0.23091543 0 0)
(-0.23081493 0 0)
(-0.23000757 0 0)
(-0.22848522 0 0)
(-0.22615967 0 0)
(-0.22297704 0 0)
(-0.21892439 0 0)
(-0.21386904 0 0)
(-0.20768934 0 0)
(-0.20029451 0 0)
(-0.19160782 0 0)
(-0.18165577 0 0)
(-0.17041126 0 0)
(-0.15777955 0 0)
(-0.14366613 0 0)
(-0.12804179 0 0)
(-0.1109289 0 0)
(-0.092272247 0 0)
(-0.071885956 0 0)
(-0.049637914 0 0)
(-0.025637125 0 0)
(0 0 0)
(-0.093572349 0 0)
(-0.098648196 0 0)
(-0.1039599 0 0)
(-0.10949807 0 0)
(-0.11524977 0 0)
(-0.12119993 0 0)
(-0.12732852 0 0)
(-0.13360609 0 0)
(-0.13999289 0 0)
(-0.14644628 0 0)
(-0.15292566 0 0)
(-0.15938893 0 0)
(-0.16579437 0 0)
(-0.17210317 0 0)
(-0.17827652 0 0)
(-0.18427813 0 0)
(-0.19008159 0 0)
(-0.19565966 0 0)
(-0.20096952 0 0)
(-0.20596295 0 0)
(-0.21059321 0 0)
(-0.21482414 0 0)
(-0.21862646 0 0)
(-0.22197575 0 0)
(-0.22485123 0 0)
(-0.22723318 0 0)
(-0.22910131 0 0)
(-0.23039609 0 0)
(-0.23102818 0 0)
(-0.23094231 0 0)
(-0.23014772 0 0)
(-0.22863649 0 0)
(-0.22632024 0 0)
(-0.22314515 0 0)
(-0.21910141 0 0)
(-0.21405456 0 0)
(-0.20788538 0 0)
(-0.20049759 0 0)
(-0.19180836 0 0)
(-0.18184811 0 0)
(-0.1705938 0 0)
(-0.15795098 0 0)
(-0.14382613 0 0)
(-0.12819295 0 0)
(-0.11106734 0 0)
(-0.092389469 0 0)
(-0.071976043 0 0)
(-0.049699066 0 0)
(-0.025668828 0 0)
(0 0 0)
(-0.093461016 0 0)
(-0.098479071 0 0)
(-0.10373904 0 0)
(-0.10923189 0 0)
(-0.11494501 0 0)
(-0.12086378 0 0)
(-0.12696873 0 0)
(-0.13323072 0 0)
(-0.13961018 0 0)
(-0.14606393 0 0)
(-0.15254962 0 0)
(-0.15902401 0 0)
(-0.1654451 0 0)
(-0.17177282 0 0)
(-0.17796712 0 0)
(-0.18399147 0 0)
(-0.18981904 0 0)
(-0.19542272 0 0)
(-0.20076023 0 0)
(-0.20578221 0 0)
(-0.21044148 0 0)
(-0.21470196 0 0)
(-0.21853498 0 0)
(-0.22191535 0 0)
(-0.22482227 0 0)
(-0.22723756 0 0)
(-0.22913812 0 0)
(-0.2304635 0 0)
(-0.23112321 0 0)
(-0.23106226 0 0)
(-0.23029056 0 0)
(-0.22880055 0 0)
(-0.2265027 0 0)
(-0.22334291 0 0)
(-0.21931539 0 0)
(-0.21428347 0 0)
(-0.20812926 0 0)
(-0.20075307 0 0)
(-0.19206689 0 0)
(-0.18210335 0 0)
(-0.17084178 0 0)
(-0.1581873 0 0)
(-0.14404868 0 0)
(-0.12840328 0 0)
(-0.11125988 0 0)
(-0.092553489 0 0)
(-0.07210321 0 0)
(-0.049786038 0 0)
(-0.025714121 0 0)
(0 0 0)
(-0.09333294 0 0)
(-0.098269823 0 0)
(-0.10345626 0 0)
(-0.10888372 0 0)
(-0.11454007 0 0)
(-0.12041125 0 0)
(-0.12647839 0 0)
(-0.13271311 0 0)
(-0.13907565 0 0)
(-0.14552208 0 0)
(-0.15200891 0 0)
(-0.15849182 0 0)
(-0.16492794 0 0)
(-0.17127601 0 0)
(-0.17749487 0 0)
(-0.18354745 0 0)
(-0.18940573 0 0)
(-0.19504246 0 0)
(-0.20041666 0 0)
(-0.20547695 0 0)
(-0.2101754 0 0)
(-0.21447659 0 0)
(-0.21835225 0 0)
(-0.22177565 0 0)
(-0.22472542 0 0)
(-0.22718584 0 0)
(-0.22913076 0 0)
(-0.23049786 0 0)
(-0.23119644 0 0)
(-0.23117167 0 0)
(-0.23043339 0 0)
(-0.22897404 0 0)
(-0.22670354 0 0)
(-0.22356788 0 0)
(-0.21956357 0 0)
(-0.21455234 0 0)
(-0.20841871 0 0)
(-0.20105924 0 0)
(-0.19238085 0 0)
(-0.1824186 0 0)
(-0.17115297 0 0)
(-0.1584867 0 0)
(-0.14433176 0 0)
(-0.12867086 0 0)
(-0.11150509 0 0)
(-0.092762977 0 0)
(-0.072266181 0 0)
(-0.049898091 0 0)
(-0.025772785 0 0)
(0 0 0)
(-0.093181067 0 0)
(-0.098013607 0 0)
(-0.10310477 0 0)
(-0.10844679 0 0)
(-0.1140282 0 0)
(-0.1198356 0 0)
(-0.1258511 0 0)
(-0.13204658 0 0)
(-0.1383825 0 0)
(-0.14481408 0 0)
(-0.15129633 0 0)
(-0.15778465 0 0)
(-0.16423526 0 0)
(-0.17060524 0 0)
(-0.17685217 0 0)
(-0.18293816 0 0)
(-0.18883411 0 0)
(-0.19451208 0 0)
(-0.19993155 0 0)
(-0.20504029 0 0)
(-0.20978906 0 0)
(-0.21414221 0 0)
(-0.21807189 0 0)
(-0.22155058 0 0)
(-0.22455576 0 0)
(-0.22707245 0 0)
(-0.22907337 0 0)
(-0.23049431 0 0)
(-0.23124322 0 0)
(-0.23126529 0 0)
(-0.23057105 0 0)
(-0.22915284 0 0)
(-0.22691895 0 0)
(-0.22381568 0 0)
(-0.21984215 0 0)
(-0.21485799 0 0)
(-0.20874955 0 0)
(-0.20141162 0 0)
(-0.19274688 0 0)
(-0.18279097 0 0)
(-0.17152391 0 0)
(-0.15884571 0 0)
(-0.14467264 0 0)
(-0.12899321 0 0)
(-0.11180037 0 0)
(-0.093016027 0 0)
(-0.072463737 0 0)
(-0.05003429 0 0)
(-0.025844215 0 0)
(0 0 0)
(-0.092995378 0 0)
(-0.09770068 0 0)
(-0.10267498 0 0)
(-0.10791164 0 0)
(-0.11340006 0 0)
(-0.11912761 0 0)
(-0.12507718 0 0)
(-0.13122178 0 0)
(-0.13752139 0 0)
(-0.14392981 0 0)
(-0.15040168 0 0)
(-0.15689191 0 0)
(-0.16335596 0 0)
(-0.16974947 0 0)
(-0.17602826 0 0)
(-0.18215312 0 0)
(-0.18809362 0 0)
(-0.19382131 0 0)
(-0.19929569 0 0)
(-0.204463 0 0)
(-0.20927301 0 0)
(-0.2136901 0 0)
(-0.21768616 0 0)
(-0.22123234 0 0)
(-0.2243053 0 0)
(-0.22689056 0 0)
(-0.22895904 0 0)
(-0.23044522 0 0)
(-0.23125642 0 0)
(-0.23133715 0 0)
(-0.23069764 0 0)
(-0.22933033 0 0)
(-0.22714265 0 0)
(-0.22408091 0 0)
(-0.22014543 0 0)
(-0.21519447 0 0)
(-0.20911688 0 0)
(-0.20180586 0 0)
(-0.19316005 0 0)
(-0.18321533 0 0)
(-0.17195034 0 0)
(-0.15926073 0 0)
(-0.14506758 0 0)
(-0.12936679 0 0)
(-0.11214292 0 0)
(-0.093310075 0 0)
(-0.072693749 0 0)
(-0.050193331 0 0)
(-0.025927854 0 0)
(0 0 0)
(-0.092762825 0 0)
(-0.097318528 0 0)
(-0.10215489 0 0)
(-0.10726682 0 0)
(-0.11264466 0 0)
(-0.11827642 0 0)
(-0.12414588 0 0)
(-0.13022701 0 0)
(-0.13647962 0 0)
(-0.1428561 0 0)
(-0.14931061 0 0)
(-0.15579897 0 0)
(-0.16227637 0 0)
(-0.16869552 0 0)
(-0.17500983 0 0)
(-0.18117907 0 0)
(-0.18717159 0 0)
(-0.19295789 0 0)
(-0.19849683 0 0)
(-0.2037336 0 0)
(-0.20861662 0 0)
(-0.21310971 0 0)
(-0.21718446 0 0)
(-0.22081113 0 0)
(-0.22396504 0 0)
(-0.22663087 0 0)
(-0.22877887 0 0)
(-0.23034238 0 0)
(-0.23122782 0 0)
(-0.23137885 0 0)
(-0.23080524 0 0)
(-0.22949943 0 0)
(-0.22736768 0 0)
(-0.22435629 0 0)
(-0.22046699 0 0)
(-0.21555556 0 0)
(-0.20951367 0 0)
(-0.20223504 0 0)
(-0.19361458 0 0)
(-0.18368638 0 0)
(-0.17242657 0 0)
(-0.15972622 0 0)
(-0.1455119 0 0)
(-0.12978737 0 0)
(-0.1125286 0 0)
(-0.09364199 0 0)
(-0.072954205 0 0)
(-0.050373759 0 0)
(-0.0260228 0 0)
(0 0 0)
(-0.092468386 0 0)
(-0.09685374 0 0)
(-0.10153268 0 0)
(-0.10650157 0 0)
(-0.11175193 0 0)
(-0.11727172 0 0)
(-0.1230439 0 0)
(-0.12904493 0 0)
(-0.13523753 0 0)
(-0.14157422 0 0)
(-0.1480077 0 0)
(-0.15449201 0 0)
(-0.16098128 0 0)
(-0.16742673 0 0)
(-0.1737804 0 0)
(-0.18000022 0 0)
(-0.18605255 0 0)
(-0.19190677 0 0)
(-0.19752125 0 0)
(-0.20283897 0 0)
(-0.20780679 0 0)
(-0.21238854 0 0)
(-0.21655534 0 0)
(-0.22027594 0 0)
(-0.22352409 0 0)
(-0.22628363 0 0)
(-0.22852301 0 0)
(-0.23017542 0 0)
(-0.23114752 0 0)
(-0.23138164 0 0)
(-0.23088542 0 0)
(-0.2296511 0 0)
(-0.22758521 0 0)
(-0.22463413 0 0)
(-0.22079869 0 0)
(-0.21593281 0 0)
(-0.20993246 0 0)
(-0.20269243 0 0)
(-0.19410336 0 0)
(-0.18419682 0 0)
(-0.17294606 0 0)
(-0.16023645 0 0)
(-0.14599997 0 0)
(-0.13024972 0 0)
(-0.11295313 0 0)
(-0.094008037 0 0)
(-0.073242017 0 0)
(-0.050573635 0 0)
(-0.026128158 0 0)
(0 0 0)
(-0.092090665 0 0)
(-0.096287303 0 0)
(-0.10079133 0 0)
(-0.10559928 0 0)
(-0.11070348 0 0)
(-0.11609051 0 0)
(-0.12174639 0 0)
(-0.12765064 0 0)
(-0.13377008 0 0)
(-0.14005974 0 0)
(-0.14646831 0 0)
(-0.15294619 0 0)
(-0.15944619 0 0)
(-0.16591978 0 0)
(-0.17231765 0 0)
(-0.17859562 0 0)
(-0.18471841 0 0)
(-0.19065218 0 0)
(-0.19635313 0 0)
(-0.20176373 0 0)
(-0.20682956 0 0)
(-0.21151355 0 0)
(-0.21578635 0 0)
(-0.21961552 0 0)
(-0.22297265 0 0)
(-0.22583912 0 0)
(-0.22818203 0 0)
(-0.22993528 0 0)
(-0.23100674 0 0)
(-0.23133688 0 0)
(-0.23092997 0 0)
(-0.22977741 0 0)
(-0.2277874 0 0)
(-0.22490646 0 0)
(-0.22113323 0 0)
(-0.21631872 0 0)
(-0.21036484 0 0)
(-0.20316966 0 0)
(-0.19461916 0 0)
(-0.18473957 0 0)
(-0.17350123 0 0)
(-0.16078411 0 0)
(-0.14652544 0 0)
(-0.13074785 0 0)
(-0.1134108 0 0)
(-0.094403681 0 0)
(-0.073553951 0 0)
(-0.050790748 0 0)
(-0.026242739 0 0)
(0 0 0)
(-0.092581789 0 0)
(-0.096591227 0 0)
(-0.10091389 0 0)
(-0.10554779 0 0)
(-0.11048363 0 0)
(-0.11571197 0 0)
(-0.12122259 0 0)
(-0.12699483 0 0)
(-0.13300009 0 0)
(-0.13919794 0 0)
(-0.14553543 0 0)
(-0.15196059 0 0)
(-0.15842468 0 0)
(-0.16487942 0 0)
(-0.17127475 0 0)
(-0.17756509 0 0)
(-0.18371301 0 0)
(-0.18968187 0 0)
(-0.19542661 0 0)
(-0.20088939 0 0)
(-0.2060152 0 0)
(-0.21076621 0 0)
(-0.21511201 0 0)
(-0.21901868 0 0)
(-0.22245603 0 0)
(-0.22540357 0 0)
(-0.22782646 0 0)
(-0.22965945 0 0)
(-0.23081219 0 0)
(-0.23122309 0 0)
(-0.23089225 0 0)
(-0.22981041 0 0)
(-0.22788839 0 0)
(-0.225071 0 0)
(-0.22135494 0 0)
(-0.21659123 0 0)
(-0.21068321 0 0)
(-0.20353502 0 0)
(-0.19502662 0 0)
(-0.18518018 0 0)
(-0.17396271 0 0)
(-0.16124837 0 0)
(-0.14697731 0 0)
(-0.13118272 0 0)
(-0.11381633 0 0)
(-0.094758929 0 0)
(-0.073837887 0 0)
(-0.050991909 0 0)
(-0.026352409 0 0)
(0 0 0)
(-0.093808358 0 0)
(-0.098928921 0 0)
(-0.1042781 0 0)
(-0.10984587 0 0)
(-0.1156188 0 0)
(-0.1215813 0 0)
(-0.12771272 0 0)
(-0.13398368 0 0)
(-0.14035474 0 0)
(-0.14678419 0 0)
(-0.15323444 0 0)
(-0.15966591 0 0)
(-0.16603766 0 0)
(-0.17231155 0 0)
(-0.17845075 0 0)
(-0.18442003 0 0)
(-0.19019302 0 0)
(-0.19574075 0 0)
(-0.20101841 0 0)
(-0.20598162 0 0)
(-0.21058329 0 0)
(-0.2147855 0 0)
(-0.21855865 0 0)
(-0.22187939 0 0)
(-0.22472535 0 0)
(-0.2270733 0 0)
(-0.22891055 0 0)
(-0.23017794 0 0)
(-0.23078642 0 0)
(-0.23068101 0 0)
(-0.22987024 0 0)
(-0.22834491 0 0)
(-0.22601765 0 0)
(-0.22283527 0 0)
(-0.21878029 0 0)
(-0.21372156 0 0)
(-0.2075367 0 0)
(-0.20014001 0 0)
(-0.19146039 0 0)
(-0.18152094 0 0)
(-0.17028943 0 0)
(-0.1576689 0 0)
(-0.14356453 0 0)
(-0.12794614 0 0)
(-0.11084169 0 0)
(-0.092199276 0 0)
(-0.071830588 0 0)
(-0.049601063 0 0)
(-0.025618483 0 0)
(0 0 0)
(-0.093670883 0 0)
(-0.098780956 0 0)
(-0.10412252 0 0)
(-0.10968587 0 0)
(-0.11545781 0 0)
(-0.12142291 0 0)
(-0.12756087 0 0)
(-0.13384194 0 0)
(-0.1402264 0 0)
(-0.14667247 0 0)
(-0.15314068 0 0)
(-0.15959016 0 0)
(-0.16597994 0 0)
(-0.1722717 0 0)
(-0.1784275 0 0)
(-0.18441144 0 0)
(-0.19019752 0 0)
(-0.19575804 0 0)
(-0.20104853 0 0)
(-0.20602295 0 0)
(-0.21063514 0 0)
(-0.21484744 0 0)
(-0.21863023 0 0)
(-0.22196023 0 0)
(-0.22481636 0 0)
(-0.22717626 0 0)
(-0.22902356 0 0)
(-0.23029981 0 0)
(-0.23091543 0 0)
(-0.23081493 0 0)
(-0.23000757 0 0)
(-0.22848522 0 0)
(-0.22615967 0 0)
(-0.22297704 0 0)
(-0.21892439 0 0)
(-0.21386904 0 0)
(-0.20768934 0 0)
(-0.20029451 0 0)
(-0.19160782 0 0)
(-0.18165577 0 0)
(-0.17041126 0 0)
(-0.15777955 0 0)
(-0.14366613 0 0)
(-0.12804179 0 0)
(-0.1109289 0 0)
(-0.092272247 0 0)
(-0.071885956 0 0)
(-0.049637914 0 0)
(-0.025637125 0 0)
(0 0 0)
(-0.093572349 0 0)
(-0.098648196 0 0)
(-0.1039599 0 0)
(-0.10949807 0 0)
(-0.11524977 0 0)
(-0.12119993 0 0)
(-0.12732852 0 0)
(-0.13360609 0 0)
(-0.13999289 0 0)
(-0.14644628 0 0)
(-0.15292566 0 0)
(-0.15938893 0 0)
(-0.16579437 0 0)
(-0.17210317 0 0)
(-0.17827652 0 0)
(-0.18427813 0 0)
(-0.19008159 0 0)
(-0.19565966 0 0)
(-0.20096952 0 0)
(-0.20596295 0 0)
(-0.21059321 0 0)
(-0.21482414 0 0)
(-0.21862646 0 0)
(-0.22197575 0 0)
(-0.22485123 0 0)
(-0.22723318 0 0)
(-0.22910131 0 0)
(-0.23039609 0 0)
(-0.23102818 0 0)
(-0.23094231 0 0)
(-0.23014772 0 0)
(-0.22863649 0 0)
(-0.22632024 0 0)
(-0.22314515 0 0)
(-0.21910141 0 0)
(-0.21405456 0 0)
(-0.20788538 0 0)
(-0.20049759 0 0)
(-0.19180836 0 0)
(-0.18184811 0 0)
(-0.1705938 0 0)
(-0.15795098 0 0)
(-0.14382613 0 0)