/*--------------------------------*- C++ -*----------------------------------*\
| =========                 |                                                 |
| \\      /  F ield         | OpenFOAM: The Open Source CFD Toolbox           |
|  \\    /   O peration     | Version:  v2012                                 |
|   \\  /    A nd           | Website:  www.openfoam.com                      |
|    \\/     M anipulation  |                                                 |
\*---------------------------------------------------------------------------*/
FoamFile
{
    version     2.0;
    format      ascii;
    class       surfaceVectorField;
    location    "27.8675464545396459";
    object      Uf;
}
// * * * * * * * * * * * * * * * * * * * * * * * * * * * * * * * * * * * * * //

dimensions      [0 1 -1 0 0 0 0];


internalField   nonuniform List<vector> 
18180
(
(2.7378821 0.01435361 -1.9536801e-21)
(2.7209024 0.0087529502 3.1369616e-21)
(2.7488901 0.028101536 -8.6249986e-21)
(2.7289276 0.028685582 -1.0245753e-20)
(2.713752 0.023762251 -5.5398968e-21)
(2.7001527 0.011222448 -4.9046983e-22)
(2.7661363 0.041326772 -6.5698657e-21)
(2.7417602 0.047224523 -1.2798968e-20)
(2.723441 0.048010694 -1.440088e-20)
(2.7062837 0.038611469 -2.0244517e-20)
(2.6920495 0.0273013 -1.5676027e-20)
(2.6771818 0.012368596 -2.4808708e-23)
(2.7904157 0.05399948 -1.3781615e-21)
(2.7619038 0.067353268 -2.446811e-21)
(2.7388368 0.073474164 -8.2970284e-21)
(2.7163303 0.0642727 -1.1822418e-20)
(2.6987714 0.055393535 -1.7342531e-20)
(2.6810065 0.043252184 -1.1752972e-20)
(2.6665426 0.029825186 3.1564739e-21)
(2.6530032 0.012914823 4.6705231e-21)
(2.8219338 0.06566916 -6.6437414e-21)
(2.7889672 0.088267582 -4.8929584e-21)
(2.7609664 0.10165095 -5.9692136e-21)
(2.7318096 0.093760963 -5.6284622e-21)
(2.709272 0.085486553 -8.9408265e-21)
(2.6873721 0.072131377 -3.8243169e-21)
(2.6700559 0.060511736 1.6785819e-21)
(2.6544023 0.045455464 8.129257e-22)
(2.6411651 0.030233803 2.2151396e-21)
(2.6293884 0.012742312 -2.3530833e-21)
(2.8614926 0.075594929 -9.3500005e-21)
(2.8244498 0.11092605 -2.1174754e-20)
(2.7906116 0.13350277 -1.9710381e-20)
(2.7525838 0.12653608 -5.5645471e-22)
(2.7239103 0.1195911 -1.5397482e-22)
(2.696711 0.10577264 1.2900416e-22)
(2.6752699 0.093509727 5.116474e-21)
(2.6567767 0.075609068 2.1147265e-21)
(2.6415042 0.061081278 1.2997654e-21)
(2.6286348 0.044859079 -4.1513492e-21)
(2.6171837 0.02911061 -8.5802454e-21)
(2.6074817 0.012029171 -3.9955339e-21)
(2.9099862 0.082489908 -1.0177677e-20)
(2.8695306 0.13499548 -1.078158e-20)
(2.8293448 0.1701827 -2.199852e-20)
(2.7796387 0.16505814 -3.7420369e-20)
(2.7428591 0.15943643 -1.9505233e-20)
(2.7087265 0.14371506 1.0113018e-21)
(2.6818814 0.13098192 1.2968932e-21)
(2.6595525 0.11061161 4.5880132e-21)
(2.6415246 0.093904476 1.7356006e-21)
(2.6274531 0.074158042 -1.4819882e-21)
(2.6149361 0.058441001 -6.6945108e-21)
(2.6050291 0.04223677 -3.6443131e-21)
(2.5956283 0.026858569 7.78046e-22)
(2.5880087 0.010943828 2.4250222e-21)
(2.9697802 0.084176653 -9.1328154e-21)
(2.926917 0.16038391 -1.1141933e-20)
(2.8798436 0.21269524 -1.17291e-20)
(2.8139827 0.2104845 4.4595522e-21)
(2.7666346 0.20716157 -9.7869053e-21)
(2.7234548 0.18905827 -9.4282456e-21)
(2.6893808 0.17490054 1.0184991e-20)
(2.6621471 0.14975125 -6.6455693e-22)
(2.640375 0.13052853 2.4325741e-21)
(2.6245579 0.10762533 7.1824926e-22)
(2.6108462 0.089065984 -2.3483169e-21)
(2.6010913 0.069243744 5.0594e-21)
(2.5914877 0.0535121 8.1256462e-21)
(2.5843613 0.038254272 4.3939842e-21)
(2.5769977 0.023933777 6.009672e-21)
(2.5712906 0.0096507081 2.2474982e-21)
(3.0431838 0.076966404 2.6971595e-21)
(3.0026734 0.18558619 -1.1836099e-20)
(2.9482051 0.26161838 -1.378203e-20)
(2.8585484 0.26485166 -2.6173923e-21)
(2.7966851 0.26523417 1.2875581e-20)
(2.7408605 0.2436706 2.7950477e-20)
(2.6971 0.227658 2.884119e-20)
(2.6636077 0.19601016 1.9009682e-20)
(2.637013 0.17247519 8.8445098e-21)
(2.6192775 0.14407681 2.8849042e-22)
(2.6038361 0.12227234 -1.3693965e-21)
(2.5939845 0.099377634 -1.2945387e-21)
(2.5845117 0.080686202 5.750689e-21)
(2.5785531 0.062115325 6.3730121e-21)
(2.5716541 0.047289343 2.8052318e-21)
(2.5669122 0.033539475 2.7397041e-21)
(2.5614075 0.020698477 -8.7794317e-22)
(2.5573609 0.0082791784 -2.4089861e-21)
(3.1071901 0.05875393 1.9418836e-20)
(3.0967464 0.20842629 2.7082644e-20)
(3.0380735 0.31666485 1.3766616e-20)
(2.9204017 0.32965416 -8.4749735e-21)
(2.8371732 0.3368332 2.1688175e-21)
(2.7621198 0.31071311 -2.6375987e-21)
(2.7045451 0.29211027 1.1353802e-20)
(2.6626568 0.25096651 6.6842278e-21)
(2.6298619 0.22139337 -2.9665637e-21)
(2.6101313 0.18579806 7.1632535e-21)
(2.5927789 0.15889657 -9.7916654e-22)
(2.5832079 0.13100318 -1.850215e-21)
(2.5736447 0.10912626 -1.7817688e-21)
(2.5687524 0.088001327 -5.2537465e-21)
(2.5629578 0.070472244 -4.8256948e-21)
(2.5600264 0.053900239 -3.1059088e-21)
(2.5554365 0.040535682 -3.2523545e-21)
(2.5526331 0.028573796 -5.1863446e-22)
(2.5487321 0.017422037 -1.9671412e-21)
(2.5460648 0.0069222934 -1.891675e-21)
(3.1196528 0.028027175 2.9491741e-20)
(3.1637807 0.23027897 3.4382251e-21)
(3.1270317 0.38020041 1.0429656e-20)
(2.9951878 0.40755298 2.1021907e-20)
(2.8867136 0.42660137 0)
(2.7910878 0.3939889 -1.4975527e-22)
(2.7123477 0.37235757 -4.6718361e-21)
(2.6579691 0.31730013 -9.5736553e-21)
(2.616804 0.27899989 -1.4308799e-20)
(2.5952931 0.23335546 -8.2741015e-21)
(2.5759594 0.1995928 1.2621341e-21)
(2.5672559 0.16561807 5.9102219e-21)
(2.5579869 0.1390704 5.1874698e-21)
(2.5547877 0.11399234 1.78368e-21)
(2.5500231 0.093785556 -1.4584036e-21)
(2.5488213 0.075303779 -3.307153e-21)
(2.5459497 0.0596649 -1.6476229e-21)
(2.5452966 0.045425347 -1.8707004e-21)
(2.5425731 0.033798391 7.4020519e-22)
(2.5412756 0.023697142 5.6328557e-22)
(2.5387016 0.014283893 6.7116719e-22)
(2.5371418 0.0056404662 -4.1299727e-22)
(3.0397073 0.0035534148 2.4384239e-20)
(3.1259485 0.26217105 -4.8213528e-20)
(3.1351238 0.45674173 -7.4216326e-20)
(3.0329285 0.50743952 -7.8804983e-21)
(2.9116155 0.54045439 1.9026389e-21)
(2.8197637 0.50031899 -6.5563395e-21)
(2.7169392 0.47470168 -6.9115776e-21)
(2.6490043 0.39838101 7.108232e-21)
(2.595406 0.34754909 2.6516634e-21)
(2.5722186 0.28787168 1.3424463e-25)
(2.5511579 0.24464464 5.9366845e-21)
(2.5445144 0.2028135 1.9466804e-21)
(2.5361555 0.17041893 6.381206e-21)
(2.5354231 0.14096236 6.0045724e-21)
(2.5323122 0.11706744 2.7962555e-21)
(2.5334917 0.095744262 8.2729928e-21)
(2.5322851 0.078071025 6.6701949e-21)
(2.5336577 0.062529964 1.2706203e-21)
(2.5329728 0.049103756 1.0995239e-21)
(2.5339409 0.037245325 6.1866274e-22)
(2.5326628 0.027427044 4.5038057e-22)
(2.5324931 0.019125384 4.0124524e-22)
(2.5309817 0.011391728 -6.3165231e-22)
(2.5302854 0.0044685083 -6.3328399e-22)
(2.848412 0.0045539228 -6.2385745e-21)
(2.9322476 0.31541898 -3.3040809e-20)
(2.9757553 0.55840528 -1.0276345e-19)
(2.9400386 0.6345489 -9.2614336e-20)
(2.8431759 0.6828524 -2.9943774e-20)
(2.7982514 0.63688934 -1.2831252e-20)
(2.6919403 0.60267787 -2.1313913e-20)
(2.6297171 0.50040365 -2.1906086e-20)
(2.5624488 0.43040831 -8.8357873e-21)
(2.5381202 0.35019149 4.4890343e-21)
(2.5155791 0.29389886 1.9825897e-21)
(2.5128211 0.24238739 -3.2778594e-21)
(2.5066137 0.20255258 -7.1562759e-21)
(2.5095983 0.16791863 3.7848384e-22)
(2.5089285 0.1398036 -4.2102592e-23)
(2.513168 0.11568332 2.0341257e-21)
(2.5142691 0.095377875 7.2336343e-21)
(2.5182341 0.077964145 5.8472183e-21)
(2.5194899 0.063117437 7.1722184e-22)
(2.522532 0.050457745 1.5246054e-21)
(2.5233988 0.039289047 1.0765432e-21)
(2.5254604 0.029690679 -5.4308312e-22)
(2.5252626 0.021620626 -6.0426072e-22)
(2.5259073 0.014979611 -1.2646302e-21)
(2.5252229 0.0088004527 -1.2756982e-21)
(2.525182 0.0034222876 6.2517207e-22)
(2.5771513 0.020286787 -1.3840542e-20)
(2.6482938 0.38795616 -3.8778566e-20)
(2.6877438 0.68499102 -6.4684855e-20)
(2.6846231 0.77345875 -4.7127642e-20)
(2.6400597 0.843592 -3.6688503e-20)
(2.6566886 0.79046285 -3.6747768e-20)
(2.586281 0.74640388 -2.0611229e-20)
(2.5699381 0.62341397 -2.3465926e-20)
(2.5067729 0.52815364 -2.4091303e-20)
(2.4897764 0.42238887 -3.1316602e-20)
(2.4665442 0.34688799 -1.9042753e-20)
(2.4697421 0.28311704 -2.024419e-21)
(2.4676084 0.23417837 -7.0476371e-21)
(2.4760413 0.19402535 -5.4514764e-21)
(2.4790823 0.16102019 1.7367827e-21)
(2.4873677 0.13392147 -3.4571099e-21)
(2.4914601 0.11091986 -1.5285689e-21)
(2.4985007 0.091943125 1.8506701e-21)
(2.5022518 0.075382895 4.6134024e-22)
(2.507811 0.061609691 1.6023834e-21)
(2.510658 0.049530912 2.377305e-21)
(2.5146956 0.039509009 1.15429e-21)
(2.5166071 0.03047887 -3.8359109e-22)
(2.5193578 0.022929563 -1.4890386e-21)
(2.5199397 0.016471246 -2.1285808e-21)
(2.5211485 0.011313718 2.2591437e-22)
(2.5210921 0.0065289742 2.051073e-21)
(2.5215339 0.0025044687 1.5218485e-22)
(2.2715235 0.045011715 2.7230932e-21)
(2.322622 0.46821033 1.9843532e-20)
(2.3520056 0.81959232 -3.3261617e-21)
(2.366659 0.91690143 3.5438148e-20)
(2.3397795 0.99928538 5.3553354e-20)
(2.391054 0.93388651 -1.9293866e-20)
(2.3719475 0.88456194 -1.9491355e-20)
(2.4218957 0.74479734 1.7234919e-20)
(2.4003759 0.62862168 1.5075429e-20)
(2.4160262 0.50211685 1.3556189e-20)
(2.4006878 0.40226043 7.2248023e-21)
(2.4133022 0.32370231 -1.3365655e-20)
(2.4175153 0.26322316 2.8629334e-21)
(2.4335745 0.21744386 9.7944463e-21)
(2.4420943 0.17924998 1.1554009e-20)
(2.4555824 0.1494991 -1.5956996e-21)
(2.4636535 0.12370874 -6.5719577e-21)
(2.474439 0.10330819 -5.5072583e-21)
(2.4811688 0.085241636 -2.3699297e-21)
(2.4895272 0.07077443 2.7449125e-21)
(2.4947857 0.057696891 3.8515045e-21)
(2.5011204 0.047119919 2.1204784e-21)
(2.5049133 0.037570583 9.5110572e-22)
(2.5094654 0.029864954 -1.9097653e-21)
(2.5120359 0.022769052 -2.9827697e-21)
(2.5151767 0.017020713 -1.1702978e-21)
(2.5162995 0.01200056 1.0784513e-21)
(2.5178776 0.0081366336 5.0686356e-22)
(2.5182858 0.0045718645 -1.3179691e-21)
(2.5190725 0.0017111997 -2.6408146e-21)
(1.9657848 0.075608171 -5.5074223e-21)
(1.9870551 0.54578129 -1.3689933e-20)
(2.0012243 0.95050645 2.2161772e-21)
(2.0296495 1.0545372 6.8426927e-20)
(2.007922 1.1456372 1.0624994e-19)
(2.0714734 1.0639095 8.081639e-20)
(2.0802218 1.0024621 1.1731318e-20)
(2.1766592 0.83838911 -1.6610968e-21)
(2.2165082 0.70769086 3.3558366e-20)
(2.2922122 0.57190423 3.1795353e-20)
(2.3095623 0.45292315 3.0596827e-20)
(2.3410994 0.36158601 1.655282e-20)
(2.3554331 0.28715744 -2.9278568e-21)
(2.3813597 0.23592451 5.1282468e-22)
(2.3976092 0.19247565 6.9845398e-21)
(2.4176497 0.16074439 1.094566e-20)
(2.4308625 0.13248368 -1.5706348e-21)
(2.4460601 0.11123054 -4.0719379e-21)
(2.4564308 0.091854591 -3.035343e-21)
(2.467979 0.076960297 -2.3732579e-21)
(2.4759318 0.063212196 2.4667519e-21)
(2.4846805 0.052510982 4.7514938e-21)
(2.4906664 0.042482632 3.1194511e-21)
(2.4972378 0.034614231 1.6484059e-22)
(2.50152 0.027280961 -2.5604976e-21)
(2.5062571 0.021554306 -5.442e-21)
(2.5092025 0.01615417 -3.757324e-21)
(2.5125189 0.011953945 2.1731466e-22)
(2.513997 0.0081864094 -3.3894759e-22)
(2.5157954 0.0054292482 -1.5400133e-21)
(2.516534 0.0029099104 -2.7989279e-21)
(2.5175629 0.0010404973 6.6632158e-22)
(1.6889248 0.11045204 -1.2165787e-20)
(1.6742182 0.61735653 -6.1854701e-21)
(1.6675173 1.0688245 -1.4051054e-20)
(1.7038693 1.1751441 -1.0730142e-19)
(1.6850565 1.2738191 -4.6076944e-20)
(1.7530928 1.1766182 1.3004449e-19)
(1.7717733 1.0990838 1.0676394e-19)
(1.8834232 0.901309 2.3530708e-20)
(1.9674915 0.74887526 1.1004094e-20)
(2.1041754 0.60741966 3.6303229e-21)
(2.1806093 0.48126331 1.5237115e-21)
(2.2471856 0.38808292 8.0726086e-21)
(2.281307 0.30227055 -5.5199244e-21)
(2.3194058 0.24674852 -9.5296956e-21)
(2.3457939 0.19826425 -6.4271522e-21)
(2.373808 0.16582364 3.4125318e-21)
(2.3935206 0.13577475 7.1343166e-21)
(2.413762 0.11442386 3.142665e-22)
(2.4284354 0.094278428 -2.0313124e-21)
(2.4434837 0.079553486 -3.0902259e-21)
(2.4545149 0.065435868 -2.4698391e-21)
(2.4658628 0.054902932 2.5199921e-21)
(2.4741619 0.044750015 4.6835312e-21)
(2.4827488 0.037106513 8.9172365e-22)
(2.4889539 0.029653657 -1.9394031e-21)
(2.4954251 0.024028567 -5.2860073e-22)
(2.4998848 0.018583928 -3.2343235e-21)
(2.5045898 0.014515665 -8.3591157e-22)
(2.5077065 0.010569604 2.9773523e-21)
(2.5110485 0.0076782238 -3.6341277e-22)
(2.51274 0.0049821117 -1.5036898e-21)
(2.5146448 0.0031573757 -2.3549264e-22)
(2.5156108 0.0015236676 3.0902624e-21)
(2.5168011 0.00050132963 4.1191862e-21)
(1.4598455 0.1489958 -1.1213894e-21)
(1.4056368 0.68068495 -1.067542e-20)
(1.3758814 1.1688501 -4.9794371e-21)
(1.4181933 1.2755149 -8.0463964e-20)
(1.3992707 1.3777963 -1.7030949e-19)
(1.4638941 1.2633342 -1.4828113e-19)
(1.4913249 1.170905 1.7797247e-20)
(1.6034183 0.93831454 1.1076788e-19)
(1.7035948 0.75272947 3.1767113e-20)
(1.8756786 0.59877339 3.8477688e-22)
(2.0118607 0.46850376 -6.5538571e-21)
(2.1252512 0.38711511 -5.4385284e-21)
(2.1949729 0.30098486 7.9942645e-22)
(2.2488318 0.24621252 -1.4870046e-21)
(2.287924 0.19411528 -5.2325828e-21)
(2.3248889 0.1625994 -6.2321865e-21)
(2.3525359 0.13200629 3.1482848e-21)
(2.3783263 0.1117307 8.4532311e-21)
(2.3979285 0.091563745 2.0021267e-21)
(2.4166935 0.077663484 -2.7330803e-21)
(2.4311083 0.063733606 -3.7361519e-21)
(2.445134 0.053888516 -4.5575382e-21)
(2.4559279 0.043920375 1.4148688e-22)
(2.4665784 0.036774715 4.1856948e-21)
(2.4747084 0.029531184 5.83371e-22)
(2.4828294 0.02432735 -3.3980286e-21)
(2.4889368 0.01900077 -2.0822992e-21)
(2.4951097 0.015203745 -9.3198188e-23)
(2.499542 0.01133803 2.2285599e-21)
(2.5040783 0.0086396641 3.0827731e-21)
(2.5072238 0.0059200258 -8.4764609e-23)
(2.5104897 0.0041206006 -3.8564865e-21)
(2.5122868 0.0023275022 -2.6880672e-21)
(2.5142143 0.0012763431 1.8582556e-21)
(2.5153467 0.00039560619 2.8162556e-21)
(2.5166105 9.274885e-05 -4.5464541e-22)
(1.2869473 0.19113838 -7.6909466e-21)
(1.1937069 0.73452288 5.1537477e-21)
(1.1407351 1.248004 -3.7764113e-21)
(1.1889871 1.3517557 6.0966496e-20)
(1.172547 1.4552566 -9.6223592e-21)
(1.226941 1.3221059 -2.0008237e-19)
(1.261047 1.2129955 -1.7961542e-19)
(1.3698269 0.94860286 -7.1685085e-20)
(1.472749 0.72735944 1.5219431e-20)
(1.6535404 0.55300974 2.0808028e-20)
(1.8243641 0.4102175 -8.9256889e-21)
(1.9802719 0.34621707 2.9329861e-22)
(2.0967172 0.27237245 1.1976892e-21)
(2.1713632 0.22820647 1.2159939e-21)
(2.2269461 0.17758819 -9.4710833e-22)
(2.2727742 0.14917445 -4.9601742e-21)
(2.3093715 0.11967698 -5.8196038e-21)
(2.3409825 0.10195106 2.9838959e-21)
(2.3660107 0.082888618 8.0142694e-21)
(2.3885211 0.070669034 5.7631386e-22)
(2.4065285 0.057565884 -3.9257532e-21)
(2.423221 0.048909781 -4.4410641e-22)
(2.4365857 0.039608715 -1.175374e-21)
(2.4492443 0.033375357 6.1774775e-22)
(2.4593465 0.026619025 4.4584665e-21)
(2.4690791 0.022074226 -1.4162563e-21)
(2.4767583 0.017145561 -5.2246562e-21)
(2.484264 0.013864859 -1.0049476e-21)
(2.4900886 0.010265713 8.9807217e-22)
(2.4958561 0.0079405891 -5.8071989e-22)
(2.5001331 0.0053762465 1.891322e-22)
(2.5044188 0.0037964221 -6.3932585e-21)
(2.5074977 0.0020975102 -1.0065126e-20)
(2.5106192 0.0011992413 -1.2057973e-21)
(2.5124419 0.00015428517 3.1298829e-21)
(2.514338 -0.00026933352 2.2976266e-21)
(2.5155416 -0.00050505255 -8.1374133e-22)
(2.5168449 -0.00018607343 -7.8419241e-22)
(1.1708787 0.23270645 -6.5479088e-21)
(1.0544235 0.77875775 9.1772938e-21)
(0.98078719 1.3059658 2.159032e-20)
(1.0240858 1.4043763 -5.6200793e-20)
(1.0146607 1.506202 4.421035e-21)
(1.0544007 1.353193 7.2591885e-20)
(1.0913191 1.2260597 -1.0696375e-19)
(1.1952894 0.93224436 -1.1113236e-19)
(1.2981621 0.6783988 -7.7519778e-21)
(1.4738617 0.48114564 -1.4326287e-20)
(1.652391 0.31668384 -9.4523883e-21)
(1.83335 0.26650875 3.9886728e-21)
(1.9915546 0.20911193 1.2685296e-20)
(2.0897828 0.18581414 5.2031075e-21)
(2.1668774 0.14591621 5.2785212e-21)
(2.2206506 0.12408151 -2.2709239e-22)
(2.2662469 0.097810245 -3.9443935e-21)
(2.3034137 0.08422483 -9.3794058e-21)
(2.3341168 0.067684062 -1.0792361e-21)
(2.3601625 0.058059357 7.1034236e-21)
(2.3817844 0.046590843 3.3755911e-23)
(2.4009885 0.039716363 1.4650184e-21)
(2.4169103 0.031565447 4.8466186e-21)
(2.4314517 0.026604092 -5.6353841e-23)
(2.4434738 0.020716882 1.658274e-21)
(2.4546866 0.017146075 7.5108504e-22)
(2.4639041 0.012847803 -4.8783984e-21)
(2.4726506 0.010284186 -2.2261348e-21)
(2.4797455 0.0071750016 1.8223768e-21)
(2.486579 0.0053954685 2.2954496e-21)
(2.4920265 0.0031804136 9.129009e-22)
(2.497339 0.002032261 -3.3430022e-21)
(2.5013841 0.00052532929 -9.6405075e-21)
(2.5053764 -0.00014928492 -5.3257577e-21)
(2.5083242 -0.0010123754 3.1502497e-21)
(2.5112604 -0.0011692077 5.1817242e-21)
(2.5130538 -0.0016087169 4.4221552e-21)
(2.5148854 -0.0015286916 -1.7922817e-21)
(2.5161216 -0.0011935964 -1.778691e-21)
(2.5173788 -0.00041483982 2.4993877e-21)
(1.1074312 0.273014 1.8016157e-19)
(0.97621912 0.81545508 8.6765336e-21)
(0.89656139 1.3451519 2.3660158e-20)
(0.93184183 1.4362683 4.559582e-20)
(0.92218831 1.5325652 -2.8288817e-20)
(0.9495275 1.3608557 -5.0538884e-20)
(0.9862562 1.2138636 1.3341191e-20)
(1.0847501 0.89263048 6.02893e-20)
(1.1873622 0.60942588 5.875245e-20)
(1.3523344 0.39089401 3.3037771e-20)
(1.5235113 0.20158689 2.7391234e-20)
(1.7106256 0.15945081 -3.3606088e-20)
(1.8920951 0.11359408 -2.098224e-20)
(2.0104426 0.11650739 8.1638904e-21)
(2.1116708 0.09646793 1.2238086e-21)
(2.1722575 0.086216847 4.2229243e-21)
(2.2262633 0.066400443 -1.0988284e-21)
(2.2677997 0.058325859 -3.5424001e-21)
(2.303913 0.045785858 -8.6926212e-21)
(2.3330081 0.039737294 -1.2957963e-21)
(2.3580371 0.030764031 6.4496544e-21)
(2.3794219 0.026191614 4.5865969e-21)
(2.3977522 0.019739558 6.010707e-21)
(2.4139502 0.016444039 3.5079329e-21)
(2.4277799 0.011761936 -1.1630859e-21)
(2.4402947 0.0094227207 9.9645702e-23)
(2.4509331 0.0060343203 -7.8384433e-22)
(2.4607501 0.0044217659 -9.816282e-22)
(2.4690317 0.0019816643 1.5918745e-21)
(2.4768163 0.00091901511 5.0665134e-21)
(2.4832759 -0.00079238682 5.562937e-21)
(2.4894516 -0.0013939485 -1.0577695e-21)
(2.4944671 -0.0025089418 -5.1247574e-21)
(2.4993171 -0.0027231546 -2.9919578e-21)
(2.5030866 -0.0033771288 1.1998832e-21)
(2.5067667 -0.0033283003 7.8679756e-21)
(2.5095423 -0.0035011649 9.8650424e-21)
(2.5122638 -0.0030675625 1.7150949e-21)
(2.5140052 -0.0030151913 -4.2216896e-21)
(2.5157564 -0.0025353766 -2.4642858e-21)
(2.516957 -0.0017839296 1.5850805e-21)
(2.5181478 -0.00065433797 -2.3982176e-22)
(1.0866179 0.3149874 2.235997e-19)
(0.94039176 0.84590946 1.219544e-19)
(0.86011995 1.3699105 -4.1558642e-20)
(0.89345831 1.4535251 -1.7820327e-20)
(0.88156108 1.5424605 2.3870312e-21)
(0.90181051 1.3490102 -7.8337926e-20)
(0.94062517 1.1812358 -1.0011865e-19)
(1.0375444 0.83549286 -3.1183552e-21)
(1.1396487 0.52372208 4.1181432e-20)
(1.2936733 0.28720106 1.4753194e-19)
(1.4501544 0.0750014 1.2434685e-19)
(1.6308941 0.036894539 -2.3734536e-20)
(1.8141782 -0.0038977406 -8.2135014e-20)
(1.9437493 0.025178849 -3.0222611e-20)
(2.0652846 0.028952476 -2.7446422e-21)
(2.1310362 0.035281207 -6.6662983e-21)
(2.1928662 0.02630714 -3.8858999e-21)
(2.2366938 0.025014633 -1.0864787e-20)
(2.2771757 0.017645803 -1.3349459e-20)
(2.3085161 0.016017224 -7.8684297e-21)
(2.3364953 0.010391528 -8.5245885e-22)
(2.359548 0.008607474 9.7097585e-21)
(2.3799704 0.0043048132 7.9896547e-21)
(2.3975305 0.0029780459 2.6772503e-21)
(2.4129403 -0.00016124666 2.5519187e-22)
(2.4265517 -0.00099756393 -7.0790371e-21)
(2.4384258 -0.0032583329 -5.9671126e-21)
(2.4491444 -0.0037247343 -2.3096603e-21)
(2.4584394 -0.0052934564 -2.520406e-21)
(2.4669942 -0.0054782328 4.1432938e-21)
(2.4743534 -0.0065188692 7.4773021e-21)
(2.4812464 -0.0064598231 5.3499148e-22)
(2.4870821 -0.0070639171 -5.8204916e-21)
(2.4926282 -0.0067864824 -5.3720202e-21)
(2.4972108 -0.0070222075 -3.3520387e-21)
(2.501609 -0.0065115119 4.8896997e-21)
(2.5050892 -0.0064771657 1.1271208e-20)
(2.5084539 -0.0058598317 3.4860321e-21)
(2.5110307 -0.0054824328 -4.3414588e-21)
(2.513525 -0.0045756524 1.0355496e-21)
(2.5151915 -0.0041248309 2.7807982e-21)
(2.5168352 -0.0033272196 3.0555131e-21)
(2.5179744 -0.0022717037 1.3455324e-21)
(2.5190915 -0.00086048735 -2.9522692e-21)
(1.0996909 0.35913445 -1.2653058e-19)
(0.93501767 0.869607 7.3274067e-20)
(0.8500243 1.3827289 -2.5235284e-20)
(0.89466076 1.4556213 -8.9543783e-20)
(0.88624375 1.5365187 -6.7516508e-20)
(0.91247579 1.3197351 -9.2944511e-21)
(0.95722065 1.1305285 -8.604685e-20)
(1.0485471 0.76434812 -3.3255785e-19)
(1.1531553 0.42587332 -2.437803e-19)
(1.2928197 0.17599026 6.4005211e-20)
(1.4328044 -0.055421645 1.6515638e-19)
(1.6006672 -0.09150136 5.1094799e-20)
(1.7697274 -0.13066843 -9.0449347e-20)
(1.9000078 -0.079933298 -5.490307e-20)
(2.0319364 -0.052937721 -5.4921585e-21)
(2.1003194 -0.027157093 4.6699418e-21)
(2.1687625 -0.021071451 1.3565233e-21)
(2.2125441 -0.014325552 -2.4223073e-21)
(2.2555968 -0.015551843 -9.0452948e-21)
(2.2881054 -0.0122698 -1.1278326e-20)
(2.3182217 -0.01387938 -6.0447401e-21)
(2.3423563 -0.012524172 -2.0387765e-21)
(2.3643388 -0.014288814 7.9656687e-21)
(2.3828931 -0.013419991 7.8530285e-21)
(2.3995776 -0.014735483 2.8097809e-21)
(2.4140121 -0.013938289 -7.9737617e-22)
(2.4269229 -0.0147939 -7.7705016e-21)
(2.4383045 -0.01399315 -6.2487437e-21)
(2.4484601 -0.014495425 -2.783014e-21)
(2.4575929 -0.013713221 -1.9810453e-21)
(2.4656906 -0.013930874 4.3487211e-21)
(2.4731275 -0.013122835 2.2261937e-21)
(2.479649 -0.013102388 -4.4375581e-21)
(2.4857503 -0.012226579 -7.1698262e-21)
(2.4909949 -0.011985322 -6.7640869e-21)
(2.4959653 -0.01102799 -1.1987359e-21)
(2.5001252 -0.010578026 6.6530647e-21)
(2.5040949 -0.0094976976 8.5120394e-21)
(2.5072804 -0.0089199614 1.0841891e-21)
(2.5103326 -0.0078523716 -5.0750124e-21)
(2.5126984 -0.0070402847 1.6040249e-23)
(2.5149616 -0.0057629706 2.2728831e-21)
(2.5165276 -0.0049947614 2.5259941e-21)
(2.5180448 -0.003945995 2.6544654e-21)
(2.5191155 -0.0026511578 -1.4045016e-21)
(2.5201529 -0.0010159988 -1.6188842e-21)
(1.1388637 0.40005919 -2.071289e-19)
(0.97523282 0.88605699 -2.1079331e-19)
(0.87950325 1.3795574 -2.2449936e-20)
(0.9473996 1.4381562 1.0086662e-19)
(0.95576606 1.5089223 4.1882377e-20)
(0.98980134 1.2719306 4.7970747e-20)
(1.0509943 1.0612565 1.0487858e-19)
(1.127199 0.67939334 1.7002172e-19)
(1.2299637 0.31921491 -6.0021956e-20)
(1.3462956 0.062677204 -4.9030185e-19)
(1.4655683 -0.18408198 -2.0188326e-19)
(1.6167462 -0.21781099 1.1660977e-19)
(1.7634244 -0.25628052 7.6980785e-21)
(1.8859248 -0.18882727 -3.0104785e-20)
(2.0159459 -0.14228308 4.5350766e-21)
(2.0828182 -0.097381455 -9.4597487e-21)
(2.1553938 -0.073456934 2.9192446e-22)
(2.1967786 -0.057949718 2.0112594e-21)
(2.2405741 -0.051853652 -1.4975434e-21)
(2.2727059 -0.043833892 5.9252456e-21)
(2.3039928 -0.040921561 4.0336644e-21)
(2.3284526 -0.036425849 3.8940472e-21)
(2.3514639 -0.035289357 7.8407033e-21)
(2.3705691 -0.03224394 8.674288e-21)
(2.3882008 -0.031518558 8.5723269e-21)
(2.4031994 -0.029009807 9.5212243e-22)
(2.4169018 -0.028315423 -2.4944071e-21)
(2.4287494 -0.026154268 -6.9516193e-22)
(2.4395463 -0.025441311 8.5181871e-22)
(2.4490538 -0.023575973 3.3194513e-21)
(2.4577076 -0.02286664 4.1704979e-21)
(2.4655011 -0.021234269 2.6774884e-21)
(2.4725411 -0.020496196 6.3919983e-22)
(2.4790252 -0.018980136 -3.6395498e-21)
(2.4847977 -0.018181372 -6.2203212e-21)
(2.4902053 -0.016696338 2.8337214e-21)
(2.4949082 -0.015812429 8.2555356e-21)
(2.499358 -0.014333546 5.1559387e-21)
(2.5031165 -0.013350597 6.8976077e-21)
(2.5066839 -0.011828014 4.4217511e-21)
(2.5095776 -0.01082329 -1.3731797e-21)
(2.5123256 -0.0094043684 3.1061306e-22)
(2.5144758 -0.0082519536 2.4564943e-21)
(2.5165084 -0.0066875761 -4.8385298e-21)
(2.5179565 -0.0056699397 -4.8258869e-21)
(2.5193371 -0.0044254539 -1.8827329e-22)
(2.5203338 -0.0029403016 -3.7366569e-22)
(2.5212875 -0.0011299569 -4.115013e-21)
(1.1934569 0.43571398 -9.5730327e-20)
(1.0421569 0.8957446 -2.2366878e-20)
(0.95161271 1.3654356 -2.3250392e-20)
(1.0333538 1.4065898 -2.618175e-20)
(1.0702191 1.4623452 9.0844175e-20)
(1.1192854 1.2081512 3.043111e-19)
(1.19637 0.97698327 3.1388948e-19)
(1.2694155 0.58531523 4.0422087e-19)
(1.3607111 0.21044348 4.7034102e-19)
(1.4520539 -0.049059413 -1.5997878e-19)
(1.5416144 -0.30473162 -5.6961132e-19)
(1.6711837 -0.33564926 -1.2878363e-19)
(1.7930451 -0.37319201 1.7389155e-19)
(1.9007559 -0.29313252 4.2210467e-20)
(2.0198278 -0.23146118 6.8742125e-21)
(2.0811735 -0.16967054 2.4247659e-20)
(2.1533126 -0.12802089 1.1256277e-20)
(2.1903479 -0.10353353 7.523193e-21)
(2.2329725 -0.089278152 9.4236256e-21)
(2.2631477 -0.076901759 6.9277344e-22)
(2.2943017 -0.069522295 7.7719857e-21)
(2.3183666 -0.062054758 4.3352999e-21)
(2.3417396 -0.057927161 4.2068005e-21)
(2.360992 -0.052790951 4.0805359e-21)
(2.3791559 -0.049989043 4.8170169e-21)
(2.3944781 -0.045764495 5.3440568e-21)
(2.4087192 -0.04343762 -1.9294855e-21)
(2.4208308 -0.039841363 1.8693834e-22)
(2.4320743 -0.037829464 1.9329236e-21)
(2.4417618 -0.034817403 -7.7997864e-22)
(2.4507756 -0.033082354 1.5383582e-21)
(2.4587228 -0.030559925 3.1551857e-21)
(2.4661047 -0.02904216 1.7244844e-21)
(2.4727907 -0.026858772 -2.2261703e-21)
(2.4789287 -0.025453586 -6.3279183e-21)
(2.4846163 -0.023443069 -5.0132964e-21)
(2.4897349 -0.0220728 3.595091e-21)
(2.4945439 -0.020136634 5.9500699e-21)
(2.498758 -0.018764 2.9751598e-21)
(2.50274 -0.016887069 3.3947851e-21)
(2.5061218 -0.015491814 9.9377788e-22)
(2.5093133 -0.013628528 3.4404722e-21)
(2.5119226 -0.012291447 5.1095393e-21)
(2.5143766 -0.010601101 2.4310538e-21)
(2.5163115 -0.0091845279 -4.4915989e-21)
(2.5181171 -0.0073997093 -4.3392768e-21)
(2.5194378 -0.0061879392 6.8701281e-23)
(2.5206771 -0.0047926336 2.007709e-23)
(2.5215954 -0.0031585274 -3.5244159e-21)
(2.5224621 -0.0012120733 1.6301112e-21)
(1.2558327 0.46489286 -4.7025896e-20)
(1.1247413 0.89843457 -1.2774726e-19)
(1.0468859 1.3425405 -5.8710936e-20)
(1.142768 1.3655052 -3.4117631e-20)
(1.1993954 1.4045502 -3.691244e-20)
(1.2615223 1.1360712 1.3294544e-19)
(1.3588232 0.88865184 3.3606617e-19)
(1.4328456 0.49144084 -2.88042e-21)
(1.5222046 0.10839341 7.8047991e-20)
(1.5954161 -0.15217332 4.6629792e-19)
(1.6537627 -0.41059314 -1.3171489e-19)
(1.756925 -0.44084289 -3.0419767e-19)
(1.8520486 -0.47676315 1.1668738e-19)
(1.9403229 -0.38767494 1.0261859e-19)
(2.0430926 -0.31436628 -2.3390494e-20)
(2.0949763 -0.2386036 -2.6036047e-21)
(2.1622215 -0.18113078 1.3740534e-20)
(2.1931873 -0.14834097 1.7781358e-20)
(2.2328102 -0.12576974 1.4430646e-20)
(2.2595977 -0.10964951 1.2581429e-20)
(2.2892633 -0.098229084 4.3447432e-21)
(2.3121842 -0.088196291 -5.2312428e-21)
(2.3352572 -0.081271825 -8.6811008e-21)
(2.3542671 -0.074278964 -6.8165066e-21)
(2.3725802 -0.069505575 -7.092971e-21)
(2.3880186 -0.06367141 -3.1487797e-21)
(2.4025735 -0.059731144 -2.7643832e-21)
(2.4148 -0.054697132 -3.6302353e-21)
(2.4263038 -0.051332678 -1.6491089e-21)
(2.436002 -0.047112256 8.7633642e-23)
(2.445196 -0.044291069 -2.5130209e-21)
(2.4531078 -0.040842093 -2.0843693e-21)
(2.4606414 -0.038485906 -6.0289045e-22)
(2.467337 -0.035612232 3.5246104e-21)
(2.4736692 -0.033577909 -1.971872e-22)
(2.4794695 -0.031053332 -4.0355971e-21)
(2.4848548 -0.029186708 -2.7544312e-21)
(2.4898875 -0.026830577 -4.944633e-23)
(2.4944427 -0.025040157 2.1309221e-21)
(2.4987361 -0.022767289 -3.2359738e-21)
(2.5025112 -0.021023112 -2.929625e-21)
(2.5060707 -0.018842044 2.6818409e-21)
(2.5091005 -0.01712971 5.0283935e-21)
(2.5119397 -0.015005378 -1.0507691e-21)
(2.5142741 -0.013411878 -3.6836889e-21)
(2.5164454 -0.011513629 -6.618399e-23)
(2.518168 -0.0098938601 1.440604e-22)
(2.519752 -0.0079412174 5.6494268e-21)
(2.5209405 -0.0065794019 5.6861591e-21)
(2.5220375 -0.0050691201 4.7774649e-21)
(2.5228742 -0.0033200414 9.7921049e-21)
(2.5236521 -0.0012693838 8.7683439e-21)
(1.3222195 0.4870847 9.3468829e-21)
(1.2169311 0.89411476 1.8535561e-20)
(1.1563455 1.3122477 -5.7093714e-20)
(1.267017 1.3169042 -9.4890733e-20)
(1.34428 1.3385051 -7.2022104e-20)
(1.4216735 1.0583003 -1.8701715e-19)
(1.5352583 0.79748667 -2.7707919e-20)
(1.6077471 0.40058884 -3.7468655e-20)
(1.6974632 0.01369222 -3.6466771e-19)
(1.7564443 -0.24181941 3.5424519e-20)
(1.7907891 -0.4984094 4.0359595e-19)
(1.8658688 -0.52940255 2.488353e-19)
(1.9326928 -0.56396741 9.0095254e-20)
(1.9993281 -0.46906987 -5.0298443e-20)
(2.0831571 -0.38701149 -6.6101494e-20)
(2.1224234 -0.30037474 -1.9752003e-20)
(2.1809653 -0.22960636 1.9272006e-23)
(2.204396 -0.1898359 -6.1357815e-21)
(2.2393097 -0.15947267 -2.6835967e-21)
(2.2616288 -0.1404777 3.5223942e-21)
(2.2885685 -0.1256174 1.6550539e-21)
(2.3096535 -0.11369684 3.4711346e-21)
(2.3317808 -0.10440843 -5.6211215e-21)
(2.3502499 -0.095944073 -7.2990325e-21)
(2.3683767 -0.089448681 -5.5134569e-21)
(2.3838114 -0.082216854 -6.9967938e-21)
(2.3984944 -0.076772554 -3.2538248e-21)
(2.4107553 -0.070339999 -1.6840201e-21)
(2.4223839 -0.065621763 -2.4939378e-21)
(2.4319723 -0.06015839 -3.0486144e-21)
(2.4411895 -0.056198199 -1.4214251e-21)
(2.448893 -0.051771905 -3.8956298e-21)
(2.4564004 -0.04853823 -3.5078879e-21)
(2.4629133 -0.044971196 -1.9282751e-21)
(2.4692578 -0.042286979 1.969153e-21)
(2.4749925 -0.039268571 5.3532057e-22)
(2.4804855 -0.0369191 -3.0948834e-21)
(2.4855955 -0.034187269 4.2931969e-21)
(2.4903629 -0.032000879 6.9631804e-21)
(2.4948583 -0.029396411 8.6432251e-22)
(2.4989288 -0.027294278 -4.2465175e-21)
(2.5027732 -0.024765798 -1.5945627e-21)
(2.5061522 -0.022738592 3.7495478e-21)
(2.5093259 -0.020324151 6.2421914e-21)
(2.5120259 -0.018369057 4.9185951e-22)
(2.5145333 -0.016045538 -1.0019636e-20)
(2.5166031 -0.014255624 -6.6810805e-21)
(2.5185028 -0.012199117 -2.3563218e-21)
(2.5200179 -0.01042433 2.8306685e-21)
(2.5213868 -0.0083451227 -2.3197152e-21)
(2.5224418 -0.0068681393 -3.3009544e-21)
(2.5233974 -0.0052714193 6.5820686e-21)
(2.5241506 -0.003435278 5.5628743e-21)
(2.5248388 -0.0013069192 4.3405153e-22)
(1.3906172 0.50226445 -7.7071636e-21)
(1.3149138 0.88372148 5.9149075e-20)
(1.2747058 1.2761065 6.8653855e-20)
(1.3984081 1.2631979 3.1546501e-20)
(1.4974608 1.2670575 -3.0211327e-21)
(1.5897417 0.97794295 -8.5125445e-20)