/*--------------------------------*- C++ -*----------------------------------*\
| =========                 |                                                 |
| \\      /  F ield         | OpenFOAM: The Open Source CFD Toolbox           |
|  \\    /   O peration     | Version:  v2012                                 |
|   \\  /    A nd           | Website:  www.openfoam.com                      |
|    \\/     M anipulation  |                                                 |
\*---------------------------------------------------------------------------*/
FoamFile
{
    version     2.0;
    format      ascii;
    class       volVectorField;
    location    "104.868788511957604";
    object      cellDisplacement;
}
// * * * * * * * * * * * * * * * * * * * * * * * * * * * * * * * * * * * * * //

dimensions      [0 1 0 0 0 0 0];


internalField   nonuniform List<vector> 
9200
(
(0.002695155 0 0)
(0.0027262243 0 0)
(0.0078733109 0 0)
(0.0027283431 0 0)
(0.0078783245 0 0)
(0.012690895 0 0)
(0.0027728871 0 0)
(0.007960451 0 0)
(0.012759426 0 0)
(0.017184649 0 0)
(0.0028300002 0 0)
(0.0080773319 0 0)
(0.012857077 0 0)
(0.017242386 0 0)
(0.02132468 0 0)
(0.0028963255 0 0)
(0.0082237563 0 0)
(0.013011543 0 0)
(0.017386473 0 0)
(0.021429599 0 0)
(0.025128613 0 0)
(0.0029673093 0 0)
(0.0084027974 0 0)
(0.013240472 0 0)
(0.01760038 0 0)
(0.021581678 0 0)
(0.025218813 0 0)
(0.028589325 0 0)
(0.0030400292 0 0)
(0.0085986387 0 0)
(0.013511317 0 0)
(0.017880392 0 0)
(0.02182014 0 0)
(0.025417953 0 0)
(0.028719111 0 0)
(0.031721037 0 0)
(0.003114156 0 0)
(0.0088028516 0 0)
(0.01381029 0 0)
(0.018216413 0 0)
(0.022129769 0 0)
(0.025675408 0 0)
(0.028906635 0 0)
(0.031831143 0 0)
(0.034538991 0 0)
(0.0031864458 0 0)
(0.0090119611 0 0)
(0.014128235 0 0)
(0.018596164 0 0)
(0.022518492 0 0)
(0.026014272 0 0)
(0.029173532 0 0)
(0.032048498 0 0)
(0.034671112 0 0)
(0.037049632 0 0)
(0.0032585388 0 0)
(0.0092202529 0 0)
(0.014452673 0 0)
(0.019004996 0 0)
(0.022963749 0 0)
(0.026434062 0 0)
(0.029525971 0 0)
(0.032327216 0 0)
(0.034864051 0 0)
(0.037155353 0 0)
(0.039285488 0 0)
(0.0033270489 0 0)
(0.009426535 0 0)
(0.014782811 0 0)
(0.019425333 0 0)
(0.023439996 0 0)
(0.026914331 0 0)
(0.02994538 0 0)
(0.032661768 0 0)
(0.035124512 0 0)
(0.037358766 0 0)
(0.039398229 0 0)
(0.041249478 0 0)
(0.0033942256 0 0)
(0.0096281603 0 0)
(0.015108975 0 0)
(0.019854825 0 0)
(0.023942307 0 0)
(0.027444139 0 0)
(0.030450816 0 0)
(0.033087315 0 0)
(0.03545454 0 0)
(0.037607645 0 0)
(0.039558373 0 0)
(0.041329386 0 0)
(0.042985565 0 0)
(0.003457946 0 0)
(0.0098242042 0 0)
(0.015432865 0 0)
(0.020281251 0 0)
(0.024448693 0 0)
(0.028005367 0 0)
(0.031014836 0 0)
(0.033588978 0 0)
(0.035854931 0 0)
(0.037905786 0 0)
(0.039770294 0 0)
(0.041480214 0 0)
(0.043057297 0 0)
(0.044490228 0 0)
(0.0035190047 0 0)
(0.010012514 0 0)
(0.015745943 0 0)
(0.020704686 0 0)
(0.024963632 0 0)
(0.028580465 0 0)
(0.031613628 0 0)
(0.034157347 0 0)
(0.036331338 0 0)
(0.038269748 0 0)
(0.040035801 0 0)
(0.041657609 0 0)
(0.043149383 0 0)
(0.044522831 0 0)
(0.045811921 0 0)
(0.0035767317 0 0)
(0.01019258 0 0)
(0.016051472 0 0)
(0.021116759 0 0)
(0.025466618 0 0)
(0.029163553 0 0)
(0.032241227 0 0)
(0.034775656 0 0)
(0.036888869 0 0)
(0.038714148 0 0)
(0.040353551 0 0)
(0.041866407 0 0)
(0.043267772 0 0)
(0.044587624 0 0)
(0.04582407 0 0)
(0.046943824 0 0)
(0.0036308341 0 0)
(0.010363187 0 0)
(0.01634218 0 0)
(0.021516693 0 0)
(0.025966603 0 0)
(0.02974291 0 0)
(0.032874373 0 0)
(0.035429293 0 0)
(0.037510252 0 0)
(0.039241233 0 0)
(0.040749279 0 0)
(0.042131231 0 0)
(0.043420593 0 0)
(0.044648167 0 0)
(0.04581546 0 0)
(0.046911402 0 0)
(0.047935206 0 0)
(0.0036824745 0 0)
(0.010525251 0 0)
(0.016621274 0 0)
(0.021900084 0 0)
(0.026443957 0 0)
(0.030313937 0 0)
(0.033516637 0 0)
(0.036098653 0 0)
(0.038167834 0 0)
(0.039835364 0 0)
(0.041217453 0 0)
(0.04245101 0 0)
(0.043608239 0 0)
(0.044719709 0 0)
(0.045797363 0 0)
(0.046858501 0 0)
(0.047871215 0 0)
(0.048775257 0 0)
(0.0037295891 0 0)
(0.010676171 0 0)
(0.016882443 0 0)
(0.022265243 0 0)
(0.026910702 0 0)
(0.030870929 0 0)
(0.034146964 0 0)
(0.036778008 0 0)
(0.038857482 0 0)
(0.040485007 0 0)
(0.041773499 0 0)
(0.042859253 0 0)
(0.043856839 0 0)
(0.044828733 0 0)
(0.045788334 0 0)
(0.046762569 0 0)
(0.047733168 0 0)
(0.048661716 0 0)
(0.049510386 0 0)
(0.0037744918 0 0)
(0.010819233 0 0)
(0.017130018 0 0)
(0.022611239 0 0)
(0.027348819 0 0)
(0.031407931 0 0)
(0.034772488 0 0)
(0.037454945 0 0)
(0.03955502 0 0)
(0.04117181 0 0)
(0.042396012 0 0)
(0.043351735 0 0)
(0.044177956 0 0)
(0.044981304 0 0)
(0.045796846 0 0)
(0.046649839 0 0)
(0.047541049 0 0)
(0.048465016 0 0)
(0.049356902 0 0)
(0.050128168 0 0)
(0.0038143507 0 0)
(0.01095024 0 0)
(0.017358045 0 0)
(0.022934802 0 0)
(0.027770832 0 0)
(0.03192361 0 0)
(0.035373204 0 0)
(0.038124042 0 0)
(0.040262854 0 0)
(0.041878979 0 0)
(0.043061795 0 0)
(0.043917094 0 0)
(0.04457942 0 0)
(0.04520086 0 0)
(0.045851428 0 0)
(0.046554853 0 0)
(0.047324813 0 0)
(0.048176803 0 0)
(0.049065154 0 0)
(0.04992165 0 0)
(0.050670732 0 0)
(0.0038518996 0 0)
(0.011073037 0 0)
(0.017571144 0 0)
(0.023238138 0 0)
(0.028161332 0 0)
(0.032411377 0 0)
(0.035958783 0 0)
(0.03877826 0 0)
(0.040960262 0 0)
(0.042597853 0 0)
(0.043762651 0 0)
(0.044546747 0 0)
(0.045083423 0 0)
(0.04552664 0 0)
(0.045976078 0 0)
(0.046492959 0 0)
(0.047105604 0 0)
(0.047837027 0 0)
(0.048666188 0 0)
(0.049559132 0 0)
(0.050417927 0 0)
(0.051124127 0 0)
(0.0038843364 0 0)
(0.011183456 0 0)
(0.01776507 0 0)
(0.023517624 0 0)
(0.028532784 0 0)
(0.03287408 0 0)
(0.036511515 0 0)
(0.039410581 0 0)
(0.04165144 0 0)
(0.043316391 0 0)
(0.044476886 0 0)
(0.045217301 0 0)
(0.045651049 0 0)
(0.045922313 0 0)
(0.046168125 0 0)
(0.04648817 0 0)
(0.046918833 0 0)
(0.047489395 0 0)
(0.048203126 0 0)
(0.049050141 0 0)
(0.049954008 0 0)
(0.050816096 0 0)
(0.051524854 0 0)
(0.0039142652 0 0)
(0.011286138 0 0)
(0.017943747 0 0)
(0.023777046 0 0)
(0.028872691 0 0)
(0.033304991 0 0)
(0.037041553 0 0)
(0.040018978 0 0)
(0.042318788 0 0)
(0.044027875 0 0)
(0.045201959 0 0)
(0.045913155 0 0)
(0.046270347 0 0)
(0.046408305 0 0)
(0.046471547 0 0)
(0.046579181 0 0)
(0.046789309 0 0)
(0.047157862 0 0)
(0.047708461 0 0)
(0.048446835 0 0)
(0.049323454 0 0)
(0.050273011 0 0)
(0.051166863 0 0)
(0.05185887 0 0)
(0.0039394747 0 0)
(0.011376661 0 0)
(0.018104045 0 0)
(0.024012039 0 0)
(0.029191661 0 0)
(0.033708719 0 0)
(0.037533771 0 0)
(0.0405961 0 0)
(0.042967557 0 0)
(0.044724445 0 0)
(0.045920621 0 0)
(0.046622856 0 0)
(0.046927512 0 0)
(0.046956592 0 0)
(0.046852307 0 0)
(0.046745745 0 0)
(0.046728424 0 0)
(0.04687664 0 0)
(0.047226726 0 0)
(0.047801933 0 0)
(0.048581029 0 0)
(0.049522294 0 0)
(0.050518914 0 0)
(0.051445272 0 0)
(0.052156935 0 0)
(0.003962346 0 0)
(0.011459497 0 0)
(0.018249057 0 0)
(0.02422739 0 0)
(0.029480294 0 0)
(0.034080052 0 0)
(0.037998644 0 0)
(0.041142916 0 0)
(0.043582808 0 0)
(0.04539956 0 0)
(0.046632488 0 0)
(0.047334693 0 0)
(0.047600705 0 0)
(0.047547614 0 0)
(0.047303171 0 0)
(0.046997374 0 0)
(0.04676007 0 0)
(0.046678292 0 0)
(0.046789628 0 0)
(0.047151292 0 0)
(0.047770884 0 0)
(0.048627968 0 0)
(0.049640423 0 0)
(0.050712907 0 0)
(0.051691893 0 0)
(0.052404969 0 0)
(0.0039812565 0 0)
(0.011530774 0 0)
(0.018376997 0 0)
(0.024419152 0 0)
(0.029747082 0 0)
(0.0344237 0 0)
(0.038423937 0 0)
(0.04165217 0 0)
(0.044170045 0 0)
(0.046048676 0 0)
(0.047323571 0 0)
(0.048041097 0 0)
(0.048288305 0 0)
(0.048170548 0 0)
(0.047810213 0 0)
(0.047334571 0 0)
(0.046879185 0 0)
(0.046551354 0 0)
(0.046413752 0 0)
(0.046535203 0 0)
(0.04694662 0 0)
(0.047650975 0 0)
(0.048596891 0 0)
(0.049709524 0 0)
(0.050854757 0 0)
(0.051885441 0 0)
(0.052628173 0 0)
(0.0039981902 0 0)
(0.011594728 0 0)
(0.018489979 0 0)
(0.024591759 0 0)
(0.029984899 0 0)
(0.034735235 0 0)
(0.038819174 0 0)
(0.042127035 0 0)
(0.044717226 0 0)
(0.046665401 0 0)
(0.047994249 0 0)
(0.048734142 0 0)
(0.048970849 0 0)
(0.048807752 0 0)
(0.048359798 0 0)
(0.047740423 0 0)
(0.047080737 0 0)
(0.046511842 0 0)
(0.046130055 0 0)
(0.045994443 0 0)
(0.046147419 0 0)
(0.046637867 0 0)
(0.047441795 0 0)
(0.048507846 0 0)
(0.049722145 0 0)
(0.050962534 0 0)
(0.05205793 0 0)
(0.052812681 0 0)
(0.0040118457 0 0)
(0.011647616 0 0)
(0.018587029 0 0)
(0.024741816 0 0)
(0.030200461 0 0)
(0.035019168 0 0)
(0.039176026 0 0)
(0.042562109 0 0)
(0.045230276 0 0)
(0.047247719 0 0)
(0.048632708 0 0)
(0.049406466 0 0)
(0.049650097 0 0)
(0.049455322 0 0)
(0.048934042 0 0)
(0.048194911 0 0)
(0.047361457 0 0)
(0.046561486 0 0)
(0.045921854 0 0)
(0.045521826 0 0)
(0.045405026 0 0)
(0.045639836 0 0)
(0.046238789 0 0)
(0.04717546 0 0)
(0.04836675 0 0)
(0.049704696 0 0)
(0.051033159 0 0)
(0.052190749 0 0)
(0.052979386 0 0)
(0.0040242869 0 0)
(0.011693479 0 0)
(0.018669142 0 0)
(0.024873091 0 0)
(0.030388863 0 0)
(0.035272263 0 0)
(0.039501624 0 0)
(0.042960792 0 0)
(0.045699522 0 0)
(0.047789669 0 0)
(0.049240379 0 0)
(0.050053481 0 0)
(0.050309493 0 0)
(0.050097444 0 0)
(0.049526562 0 0)
(0.048691807 0 0)
(0.047705577 0 0)
(0.046700767 0 0)
(0.045808221 0 0)
(0.045132562 0 0)
(0.044747402 0 0)
(0.044703441 0 0)
(0.04503643 0 0)
(0.045771017 0 0)
(0.046849813 0 0)
(0.048190705 0 0)
(0.049649188 0 0)
(0.051082177 0 0)
(0.052309302 0 0)
(0.053114097 0 0)
(0.0040164619 0 0)
(0.011728837 0 0)
(0.018736924 0 0)
(0.024983847 0 0)
(0.030554991 0 0)
(0.035497991 0 0)
(0.039790251 0 0)
(0.043318931 0 0)
(0.046131265 0 0)
(0.048292112 0 0)
(0.049807557 0 0)
(0.050667426 0 0)
(0.050950935 0 0)
(0.050733201 0 0)
(0.050123767 0 0)
(0.049210867 0 0)
(0.048102703 0 0)
(0.046919625 0 0)
(0.045789214 0 0)
(0.044839013 0 0)
(0.04416841 0 0)
(0.043833701 0 0)
(0.04387688 0 0)
(0.04435309 0 0)
(0.045244952 0 0)
(0.046492513 0 0)
(0.047982814 0 0)
(0.049577406 0 0)
(0.051104647 0 0)
(0.052395869 0 0)
(0.053234855 0 0)
(0.0040043038 0 0)
(0.011719179 0 0)
(0.018789872 0 0)
(0.025075526 0 0)
(0.030696237 0 0)
(0.035694696 0 0)
(0.040047033 0 0)
(0.043640095 0 0)
(0.04651814 0 0)
(0.048749489 0 0)
(0.050336829 0 0)
(0.05124716 0 0)
(0.051561354 0 0)
(0.051348286 0 0)
(0.050719666 0 0)
(0.049751012 0 0)
(0.04853543 0 0)
(0.047197899 0 0)
(0.045860686 0 0)
(0.044643858 0 0)
(0.043675929 0 0)
(0.043043091 0 0)
(0.042797445 0 0)
(0.042978655 0 0)
(0.043608318 0 0)
(0.044679925 0 0)
(0.04609979 0 0)
(0.047757099 0 0)
(0.049480824 0 0)
(0.051113461 0 0)
(0.05247217 0 0)
(0.053328189 0 0)
(0.0039919238 0 0)
(0.011677947 0 0)
(0.018772923 0 0)
(0.02514899 0 0)
(0.030814108 0 0)
(0.035863462 0 0)
(0.040269046 0 0)
(0.043921841 0 0)
(0.046866347 0 0)
(0.049165221 0 0)
(0.050821286 0 0)
(0.051784968 0 0)
(0.052142127 0 0)
(0.051943032 0 0)
(0.051304337 0 0)
(0.050292978 0 0)
(0.048997223 0 0)
(0.047530914 0 0)
(0.046007021 0 0)
(0.044550721 0 0)
(0.04329429 0 0)
(0.042348017 0 0)
(0.041789466 0 0)
(0.041662064 0 0)
(0.04199477 0 0)
(0.042818983 0 0)
(0.044083619 0 0)
(0.045694911 0 0)
(0.047514258 0 0)
(0.049376642 0 0)
(0.051101844 0 0)
(0.052521806 0 0)
(0.053410139 0 0)
(0.0039806177 0 0)
(0.0116394 0 0)
(0.018702944 0 0)
(0.025131866 0 0)
(0.030910167 0 0)
(0.036005516 0 0)
(0.0404582 0 0)
(0.044166783 0 0)
(0.047170363 0 0)
(0.049534912 0 0)
(0.051263734 0 0)
(0.052282671 0 0)
(0.052683608 0 0)
(0.052505382 0 0)
(0.051871565 0 0)
(0.05083767 0 0)
(0.049474181 0 0)
(0.047897634 0 0)
(0.04622077 0 0)
(0.044551959 0 0)
(0.043020272 0 0)
(0.041759524 0 0)
(0.04087279 0 0)
(0.040419862 0 0)
(0.040447088 0 0)
(0.040974512 0 0)
(0.041996893 0 0)
(0.043471802 0 0)
(0.045272723 0 0)
(0.047265276 0 0)
(0.049256138 0 0)
(0.05108126 0 0)
(0.052563523 0 0)
(0.05346785 0 0)
(0.0039697699 0 0)
(0.011601757 0 0)
(0.018636449 0 0)
(0.025044455 0 0)
(0.030899522 0 0)
(0.03611928 0 0)
(0.040615159 0 0)
(0.044374191 0 0)
(0.047435691 0 0)
(0.049862679 0 0)
(0.051659862 0 0)
(0.05273332 0 0)
(0.053187015 0 0)
(0.053036286 0 0)
(0.052414813 0 0)
(0.051368228 0 0)
(0.049958827 0 0)
(0.048296821 0 0)
(0.046482061 0 0)
(0.044625737 0 0)
(0.042852363 0 0)
(0.041288538 0 0)
(0.04006567 0 0)
(0.039273209 0 0)
(0.038965707 0 0)
(0.039174075 0 0)
(0.039904855 0 0)
(0.041158391 0 0)
(0.042849263 0 0)
(0.044852039 0 0)
(0.047008735 0 0)
(0.049133054 0 0)
(0.051044224 0 0)
(0.052581693 0 0)
(0.053515263 0 0)
(0.0039601393 0 0)
(0.011567875 0 0)
(0.018573325 0 0)
(0.024960063 0 0)
(0.03080475 0 0)
(0.036116594 0 0)
(0.040738415 0 0)
(0.044543584 0 0)
(0.047659201 0 0)
(0.050145371 0 0)
(0.052011857 0 0)
(0.053140533 0 0)
(0.053645469 0 0)
(0.053525827 0 0)
(0.052927521 0 0)
(0.051885438 0 0)
(0.05044141 0 0)
(0.048708116 0 0)
(0.046786221 0 0)
(0.044769648 0 0)
(0.042774419 0 0)
(0.040934565 0 0)
(0.039383911 0 0)
(0.038235929 0 0)
(0.037572397 0 0)
(0.037437153 0 0)
(0.037859617 0 0)
(0.038828447 0 0)
(0.040310487 0 0)
(0.042228521 0 0)
(0.044426606 0 0)
(0.046753161 0 0)
(0.048998188 0 0)
(0.051000476 0 0)
(0.052592864 0 0)
(0.053541415 0 0)
(0.0039515427 0 0)
(0.011536635 0 0)
(0.018515967 0 0)
(0.024881148 0 0)
(0.030712257 0 0)
(0.036014977 0 0)
(0.040735208 0 0)
(0.044678012 0 0)
(0.047841951 0 0)
(0.050385354 0 0)
(0.052318048 0 0)
(0.053498754 0 0)
(0.054060568 0 0)
(0.053975993 0 0)
(0.053406072 0 0)
(0.052375809 0 0)
(0.050913761 0 0)
(0.049131875 0 0)
(0.047116972 0 0)
(0.044960746 0 0)
(0.042778587 0 0)
(0.040691503 0 0)
(0.038829076 0 0)
(0.037327153 0 0)
(0.036294702 0 0)
(0.035792944 0 0)
(0.035865547 0 0)
(0.036520446 0 0)
(0.03773203 0 0)
(0.03946799 0 0)
(0.041611961 0 0)
(0.044011115 0 0)
(0.046494957 0 0)
(0.048862677 0 0)
(0.050941921 0 0)
(0.052583118 0 0)
(0.053557555 0 0)
(0.0039441308 0 0)
(0.011509348 0 0)
(0.018464389 0 0)
(0.024808646 0 0)
(0.030626426 0 0)
(0.035917987 0 0)
(0.040623922 0 0)
(0.044677825 0 0)
(0.047986433 0 0)
(0.050582735 0 0)
(0.052577722 0 0)
(0.053811561 0 0)
(0.054427151 0 0)
(0.054379553 0 0)
(0.053844694 0 0)
(0.052839507 0 0)
(0.051369348 0 0)
(0.049549136 0 0)
(0.047467566 0 0)
(0.045199036 0 0)
(0.042846255 0 0)
(0.040537808 0 0)
(0.038398215 0 0)
(0.036553118 0 0)
(0.035141831 0 0)
(0.034258828 0 0)
(0.033956129 0 0)
(0.034259514 0 0)
(0.035173338 0 0)
(0.03665189 0 0)
(0.038633329 0 0)
(0.041008665 0 0)
(0.043598426 0 0)
(0.046241124 0 0)
(0.048716822 0 0)
(0.050877228 0 0)
(0.052566311 0 0)
(0.053554762 0 0)
(0.003938199 0 0)
(0.011485997 0 0)
(0.018419825 0 0)
(0.024744164 0 0)
(0.030546635 0 0)
(0.035824505 0 0)
(0.040516339 0 0)
(0.044568236 0 0)
(0.04799728 0 0)
(0.050736991 0 0)
(0.052792832 0 0)
(0.054075875 0 0)
(0.054747191 0 0)
(0.054738633 0 0)
(0.054242038 0 0)
(0.053266839 0 0)
(0.051799472 0 0)
(0.04996052 0 0)
(0.04782529 0 0)
(0.045461699 0 0)
(0.04297073 0 0)
(0.040470087 0 0)
(0.038075501 0 0)
(0.035917038 0 0)
(0.034136885 0 0)
(0.032858221 0 0)
(0.032161452 0 0)
(0.032083504 0 0)
(0.032647341 0 0)
(0.033830597 0 0)
(0.035575533 0 0)
(0.03781898 0 0)
(0.040418806 0 0)
(0.043199697 0 0)
(0.045985059 0 0)
(0.048570233 0 0)
(0.05079867 0 0)
(0.052531017 0 0)
(0.053541006 0 0)
(0.0039333338 0 0)
(0.011466699 0 0)
(0.018382665 0 0)
(0.024688518 0 0)
(0.030476407 0 0)
(0.035739128 0 0)
(0.040411519 0 0)
(0.044456853 0 0)
(0.047898485 0 0)
(0.050765576 0 0)
(0.05295891 0 0)
(0.054291328 0 0)
(0.055016888 0 0)
(0.055048456 0 0)
(0.054593773 0 0)
(0.053657243 0 0)
(0.052200947 0 0)
(0.050350241 0 0)
(0.048182335 0 0)
(0.04574907 0 0)
(0.043136034 0 0)
(0.040465198 0 0)
(0.03785307 0 0)
(0.035412213 0 0)
(0.033279735 0 0)
(0.031603957 0 0)
(0.030497802 0 0)
(0.030016932 0 0)
(0.030195492 0 0)
(0.031034313 0 0)
(0.032505814 0 0)
(0.034531438 0 0)
(0.037024014 0 0)
(0.039848539 0 0)
(0.042806763 0 0)
(0.045734168 0 0)
(0.04841327 0 0)
(0.050713533 0 0)
(0.052487464 0 0)
(0.053509082 0 0)
(0.011452328 0 0)
(0.0039296862 0 0)
(0.018353075 0 0)
(0.024642395 0 0)
(0.030415018 0 0)
(0.035661089 0 0)
(0.040314589 0 0)
(0.044349063 0 0)
(0.047794514 0 0)
(0.050684254 0 0)
(0.053005176 0 0)
(0.054459707 0 0)
(0.055233978 0 0)
(0.055308911 0 0)
(0.054899374 0 0)
(0.05400468 0 0)
(0.052566483 0 0)
(0.050718936 0 0)
(0.048529581 0 0)
(0.046040717 0 0)
(0.043332806 0 0)
(0.040521221 0 0)
(0.037710189 0 0)
(0.035015509 0 0)
(0.032567733 0 0)
(0.030508788 0 0)
(0.028985147 0 0)
(0.028086333 0 0)
(0.027854953 0 0)
(0.028308983 0 0)
(0.029444491 0 0)
(0.031206486 0 0)
(0.033507961 0 0)
(0.036258343 0 0)
(0.039296077 0 0)
(0.042428357 0 0)
(0.045480061 0 0)
(0.048254711 0 0)
(0.050614605 0 0)
(0.052426177 0 0)
(0.0534643 0 0)
(0.018331957 0 0)
(0.011439459 0 0)
(0.0039262371 0 0)
(0.024606515 0 0)
(0.030364524 0 0)
(0.035593793 0 0)
(0.04022511 0 0)
(0.044245216 0 0)
(0.047691093 0 0)
(0.050596966 0 0)
(0.052946217 0 0)
(0.054519581 0 0)
(0.055400598 0 0)
(0.055520598 0 0)
(0.055157066 0 0)
(0.054307611 0 0)
(0.052894104 0 0)
(0.051054404 0 0)
(0.048859223 0 0)
(0.046336271 0 0)
(0.043549058 0 0)
(0.040615297 0 0)
(0.037640223 0 0)
(0.034723479 0 0)
(0.031986251 0 0)
(0.029577729 0 0)
(0.027651047 0 0)
(0.026316399 0 0)
(0.025649028 0 0)
(0.025686736 0 0)
(0.026440837 0 0)
(0.027879414 0 0)
(0.029943448 0 0)
(0.032526303 0 0)
(0.03551841 0 0)
(0.038765416 0 0)
(0.042055654 0 0)
(0.045230528 0 0)
(0.048085289 0 0)
(0.050507823 0 0)
(0.052354552 0 0)
(0.053401382 0 0)
(0.024580662 0 0)
(0.018315504 0 0)
(0.01143035 0 0)
(0.0039248084 0 0)
(0.030324522 0 0)
(0.035536342 0 0)
(0.040146297 0 0)
(0.044149548 0 0)
(0.047588838 0 0)
(0.050504511 0 0)
(0.052877758 0 0)
(0.054491007 0 0)
(0.055475115 0 0)
(0.055678888 0 0)
(0.055363366 0 0)
(0.054563263 0 0)
(0.053178233 0 0)
(0.051357039 0 0)
(0.049164975 0 0)
(0.046619384 0 0)
(0.043774478 0 0)
(0.040745754 0 0)
(0.037625191 0 0)
(0.034510998 0 0)
(0.031523019 0 0)
(0.028796501 0 0)
(0.026480211 0 0)
(0.024713159 0 0)
(0.023601411 0 0)
(0.023200734 0 0)
(0.023537765 0 0)
(0.024603078 0 0)
(0.026358937 0 0)
(0.028720283 0 0)
(0.031575785 0 0)
(0.03481146 0 0)
(0.038252369 0 0)
(0.041695972 0 0)
(0.044975614 0 0)
(0.04791268 0 0)
(0.050387125 0 0)
(0.052265499 0 0)
(0.05332327 0 0)
(0.030295742 0 0)
(0.024561875 0 0)
(0.018305115 0 0)
(0.011423721 0 0)
(0.0039237653 0 0)
(0.035490474 0 0)
(0.040077991 0 0)
(0.044062114 0 0)
(0.047491618 0 0)
(0.05041095 0 0)
(0.052799522 0 0)
(0.054445831 0 0)
(0.055480157 0 0)
(0.055777142 0 0)
(0.055521927 0 0)
(0.054766318 0 0)
(0.053415956 0 0)
(0.051619035 0 0)
(0.049440335 0 0)
(0.046888335 0 0)
(0.043999921 0 0)
(0.040891362 0 0)
(0.037655892 0 0)
(0.034375945 0 0)
(0.031159157 0 0)
(0.028143973 0 0)
(0.025477765 0 0)
(0.023304431 0 0)
(0.021745487 0 0)
(0.020879452 0 0)
(0.020765007 0 0)
(0.021415087 0 0)
(0.022809038 0 0)
(0.024881228 0 0)
(0.02754472 0 0)
(0.030671253 0 0)
(0.034132325 0 0)
(0.037760492 0 0)
(0.041340353 0 0)
(0.044723847 0 0)
(0.047729081 0 0)
(0.050256842 0 0)
(0.052163622 0 0)
(0.053226192 0 0)
(0.035455638 0 0)
(0.030273757 0 0)
(0.024548935 0 0)
(0.018301564 0 0)
(0.011422995 0 0)
(0.0039248306 0 0)
(0.040021434 0 0)
(0.04398536 0 0)
(0.047400607 0 0)
(0.05031831 0 0)
(0.052716641 0 0)
(0.054388608 0 0)
(0.055461814 0 0)
(0.055819518 0 0)
(0.055637897 0 0)
(0.054920407 0 0)
(0.053606565 0 0)
(0.051837375 0 0)
(0.049680681 0 0)
(0.047131313 0 0)
(0.044215114 0 0)
(0.041050269 0 0)
(0.037717516 0 0)
(0.03429351 0 0)
(0.030883613 0 0)
(0.027615507 0 0)
(0.024627978 0 0)
(0.022068028 0 0)
(0.020072035 0 0)
(0.018741464 0 0)
(0.018156004 0 0)
(0.018355596 0 0)
(0.019340405 0 0)
(0.021066292 0 0)
(0.023461714 0 0)
(0.026416847 0 0)
(0.029803089 0 0)
(0.033486058 0 0)
(0.037284239 0 0)
(0.04099528 0 0)
(0.044465261 0 0)
(0.047540492 0 0)
(0.05011183 0 0)
(0.05204358 0 0)
(0.053111424 0 0)
(0.039976964 0 0)
(0.035427353 0 0)
(0.030257986 0 0)
(0.024546631 0 0)
(0.018306823 0 0)
(0.011422981 0 0)
(0.0039256658 0 0)
(0.043919312 0 0)
(0.047317064 0 0)
(0.050228348 0 0)
(0.052630896 0 0)
(0.054321365 0 0)
(0.055427502 0 0)
(0.055838884 0 0)
(0.055724851 0 0)
(0.055055951 0 0)
(0.053744595 0 0)
(0.052011692 0 0)
(0.049882081 0 0)
(0.047345289 0 0)
(0.044413809 0 0)
(0.041205061 0 0)
(0.037799828 0 0)
(0.034261142 0 0)
(0.030679845 0 0)
(0.027184205 0 0)
(0.02391189 0 0)
(0.021000404 0 0)
(0.018587421 0 0)
(0.016804096 0 0)
(0.015744246 0 0)
(0.01545979 0 0)
(0.015990384 0 0)
(0.017316989 0 0)
(0.019384717 0 0)
(0.02209603 0 0)
(0.02534202 0 0)
(0.028980824 0 0)
(0.032866679 0 0)
(0.036826866 0 0)
(0.040652513 0 0)
(0.044208044 0 0)
(0.047340821 0 0)
(0.049955041 0 0)
(0.051908087 0 0)
(0.052976824 0 0)
(0.043864844 0 0)
(0.039939055 0 0)
(0.035405451 0 0)
(0.030253306 0 0)
(0.024553017 0 0)
(0.018318101 0 0)
(0.011428864 0 0)
(0.0039285547 0 0)
(0.047242886 0 0)
(0.050143401 0 0)
(0.052544094 0 0)
(0.054247741 0 0)
(0.055377546 0 0)
(0.055832341 0 0)
(0.055778357 0 0)
(0.055188169 0 0)
(0.053908967 0 0)
(0.052134005 0 0)
(0.050037828 0 0)
(0.047523725 0 0)
(0.044588047 0 0)
(0.041353242 0 0)
(0.037891457 0 0)
(0.034256495 0 0)
(0.030534621 0 0)
(0.026846042 0 0)
(0.023317941 0 0)
(0.020085096 0 0)
(0.017286897 0 0)
(0.015063247 0 0)
(0.013527279 0 0)
(0.012751544 0 0)
(0.012797226 0 0)
(0.013679121 0 0)
(0.015362072 0 0)
(0.017768058 0 0)
(0.020795865 0 0)
(0.02431793 0 0)
(0.028196003 0 0)
(0.032277526 0 0)
(0.036382214 0 0)
(0.040317442 0 0)
(0.043943816 0 0)
(0.047133861 0 0)
(0.049782746 0 0)
(0.051753694 0 0)
(0.052822341 0 0)
(0.047176947 0 0)
(0.043816815 0 0)
(0.039908507 0 0)
(0.035393471 0 0)
(0.030257385 0 0)
(0.024568834 0 0)
(0.018337113 0 0)
(0.01143401 0 0)
(0.0039306148 0 0)
(0.050063128 0 0)
(0.052459255 0 0)
(0.054169647 0 0)
(0.055317711 0 0)
(0.055809071 0 0)
(0.055805063 0 0)
(0.055279681 0 0)
(0.054095665 0 0)
(0.052326776 0 0)
(0.050149482 0 0)
(0.047658694 0 0)
(0.044730628 0 0)
(0.041482196 0 0)
(0.037982562 0 0)
(0.034276246 0 0)
(0.030434642 0 0)
(0.02657609 0 0)
(0.022825979 0 0)
(0.019309949 0 0)
(0.016160342 0 0)
(0.013517659 0 0)
(0.011515481 0 0)
(0.010256325 0 0)
(0.0098030849 0 0)
(0.010192725 0 0)
(0.011436622 0 0)
(0.013475632 0 0)
(0.016222986 0 0)
(0.01955484 0 0)
(0.023347576 0 0)
(0.02745389 0 0)
(0.031712556 0 0)
(0.035953183 0 0)
(0.039983161 0 0)
(0.043678513 0 0)
(0.046914948 0 0)
(0.049596336 0 0)
(0.051581562 0 0)
(0.052647367 0 0)
(0.049990074 0 0)
(0.047116882 0 0)
(0.043774472 0 0)
(0.039889084 0 0)
(0.035391999 0 0)
(0.030271348 0 0)
(0.02459145 0 0)
(0.018360362 0 0)
(0.011444371 0 0)
(0.0039342576 0 0)
(0.052374281 0 0)
(0.05408905 0 0)
(0.055248726 0 0)
(0.055768033 0 0)
(0.055805694 0 0)
(0.055339989 0 0)
(0.054239397 0 0)
(0.052575571 0 0)
(0.050364835 0 0)
(0.047752145 0 0)
(0.0448383 0 0)
(0.041586387 0 0)
(0.038064345 0 0)
(0.034302411 0 0)
(0.030366564 0 0)
(0.026369059 0 0)
(0.02242503 0 0)
(0.018654505 0 0)
(0.015186459 0 0)
(0.012160193 0 0)
(0.0097100361 0 0)
(0.0079637517 0 0)
(0.0070100568 0 0)
(0.0068935039 0 0)
(0.0076534585 0 0)
(0.009269813 0 0)
(0.011671041 0 0)
(0.014750034 0 0)
(0.018381038 0 0)
(0.02242663 0 0)
(0.026747209 0 0)
(0.031173448 0 0)
(0.035533566 0 0)
(0.039653173 0 0)
(0.043404794 0 0)
(0.046685926 0 0)
(0.049393119 0 0)
(0.051389707 0 0)
(0.052450335 0 0)
(0.05229434 0 0)
(0.049917049 0 0)
(0.04705941 0 0)
(0.043743986 0 0)
(0.039881352 0 0)
(0.03539797 0 0)
(0.030291436 0 0)
(0.024621123 0 0)
(0.018388889 0 0)
(0.01145149 0 0)
(0.0039361486 0 0)
(0.054007205 0 0)
(0.055173139 0 0)
(0.055715466 0 0)
(0.055786344 0 0)
(0.055367075 0 0)
(0.054339147 0 0)
(0.052775341 0 0)
(0.050680492 0 0)
(0.047992113 0 0)
(0.044902915 0 0)
(0.04166129 0 0)
(0.038128786 0 0)
(0.034329988 0 0)
(0.030319055 0 0)
(0.026203184 0 0)
(0.022095327 0 0)
(0.018106043 0 0)
(0.01435456 0 0)
(0.010975796 0 0)
(0.0081098404 0 0)
(0.00589039 0 0)
(0.0044302795 0 0)
(0.0038074152 0 0)
(0.0040596356 0 0)
(0.005195443 0 0)
(0.0071887787 0 0)
(0.0099453395 0 0)
(0.013352909 0 0)
(0.017266779 0 0)
(0.02155642 0 0)
(0.026077872 0 0)
(0.030654623 0 0)
(0.035125573 0 0)
(0.039322611 0 0)
(0.043126887 0 0)
(0.046443996 0 0)
(0.049173703 0 0)
(0.051177774 0 0)
(0.052231742 0 0)
(0.053923954 0 0)
(0.052209919 0 0)
(0.049847481 0 0)
(0.047013488 0 0)
(0.043722536 0 0)
(0.039882365 0 0)
(0.035412453 0 0)
(0.030318977 0 0)
(0.024655345 0 0)
(0.018420666 0 0)
(0.01146299 0 0)
(0.0039348034 0 0)
(0.055092517 0 0)
(0.055650603 0 0)
(0.055747533 0 0)
(0.055369604 0 0)
(0.054403276 0 0)
(0.052920359 0 0)
(0.050932712 0 0)
(0.048375339 0 0)
(0.04517615 0 0)
(0.04169647 0 0)
(0.038166078 0 0)
(0.034346482 0 0)
(0.030279928 0 0)
(0.026072049 0 0)
(0.021826261 0 0)
(0.017645804 0 0)
(0.013642337 0 0)
(0.0099491823 0 0)
(0.0067018036 0 0)
(0.0040340387 0 0)
(0.0020765019 0 0)
(0.00093493155 0 0)
(0.0006677515 0 0)
(0.0012950226 0 0)
(0.0028243125 0 0)
(0.0051965805 0 0)
(0.0083079538 0 0)
(0.012029532 0 0)
(0.016217136 0 0)
(0.020731655 0 0)
(0.02543983 0 0)
(0.030156206 0 0)
(0.034725437 0 0)
(0.038992651 0 0)
(0.042839812 0 0)
(0.046189216 0 0)
(0.048936608 0 0)
(0.05094517 0 0)
(0.051981718 0 0)
(0.055006569 0 0)
(0.05383764 0 0)
(0.052128008 0 0)
(0.049781974 0 0)
(0.046973599 0 0)
(0.043711703 0 0)
(0.039892527 0 0)
(0.035430262 0 0)
(0.030348847 0 0)
(0.024691944 0 0)
(0.018454141 0 0)
(0.011441115 0 0)
(0.0039123797 0 0)
(0.055576289 0 0)
(0.055693342 0 0)
(0.055346324 0 0)
(0.054432246 0 0)
(0.053024007 0 0)
(0.051128857 0 0)
(0.048684899 0 0)
(0.04563229 0 0)
(0.042000586 0 0)
(0.038173894 0 0)
(0.034341836 0 0)
(0.030238292 0 0)
(0.025958528 0 0)
(0.021600292 0 0)
(0.017260197 0 0)
(0.013038682 0 0)
(0.0090611282 0 0)
(0.0054660434 0 0)
(0.0023860819 0 0)
(-5.0037184e-05 0 0)
(-0.0017116452 0 0)
(-0.0025079397 0 0)
(-0.0023954577 0 0)
(-0.0013682526 0 0)
(0.00055107438 0 0)
(0.0033000712 0 0)
(0.0067534918 0 0)
(0.010781009 0 0)
(0.015223698 0 0)
(0.019951992 0 0)
(0.02483236 0 0)
(0.029673651 0 0)
(0.034332319 0 0)
(0.038661255 0 0)
(0.042545159 0 0)
(0.045919994 0 0)
(0.048680513 0 0)
(0.050696626 0 0)
(0.051699973 0 0)
(0.055492888 0 0)
(0.054915312 0 0)
(0.053745749 0 0)
(0.052046202 0 0)
(0.049724846 0 0)
(0.046944167 0 0)
(0.043707123 0 0)
(0.039909218 0 0)
(0.035452648 0 0)
(0.030380738 0 0)
(0.02473078 0 0)
(0.018436625 0 0)
(0.011378053 0 0)
(0.00388877 0 0)
(0.055623619 0 0)
(0.055302324 0 0)
(0.054432435 0 0)
(0.053082551 0 0)
(0.051270058 0 0)
(0.048932683 0 0)
(0.046011359 0 0)
(0.042535368 0 0)
(0.038501795 0 0)
(0.034314003 0 0)
(0.030185926 0 0)
(0.025852834 0 0)
(0.021406873 0 0)
(0.016932677 0 0)
(0.012522219 0 0)
(0.0082965253 0 0)
(0.0043890871 0 0)
(0.00092849863 0 0)
(-0.001951824 0 0)
(-0.0041156281 0 0)
(-0.0054484425 0 0)
(-0.0058747304 0 0)
(-0.0053673452 0 0)
(-0.0039396722 0 0)
(-0.0016196877 0 0)
(0.0014993475 0 0)
(0.0052878897 0 0)
(0.0096032685 0 0)
(0.014288851 0 0)
(0.019211317 0 0)
(0.024250303 0 0)
(0.0292052 0 0)
(0.033945115 0 0)
(0.038325702 0 0)
(0.042239466 0 0)
(0.0456343 0 0)
(0.048433016 0 0)
(0.050425844 0 0)
(0.05139119 0 0)
(0.055540361 0 0)
(0.055398371 0 0)
(0.054816017 0 0)
(0.053655471 0 0)
(0.05197181 0 0)
(0.049670252 0 0)
(0.046917396 0 0)
(0.043710003 0 0)
(0.039929822 0 0)
(0.035474608 0 0)
(0.030412173 0 0)
(0.024697453 0 0)
(0.018348327 0 0)
(0.011302986 0 0)
(0.0038600879 0 0)
(0.055237422 0 0)
(0.054403435 0 0)
(0.053106609 0 0)
(0.051364101 0 0)
(0.049115342 0 0)
(0.046312839 0 0)
(0.042985401 0 0)
(0.039119227 0 0)
(0.034666828 0 0)
(0.030112362 0 0)
(0.025745714 0 0)
(0.021232055 0 0)
(0.016649947 0 0)
(0.012081148 0 0)
(0.007637112 0 0)
(0.0034500027 0 0)
(-0.00035157468 0 0)
(-0.0036413309 0 0)
(-0.0062827123 0 0)
(-0.008141875 0 0)
(-0.0091163862 0 0)
(-0.0091533215 0 0)
(-0.0082353841 0 0)
(-0.0063928164 0 0)
(-0.0036837705 0 0)
(-0.0002024959 0 0)
(0.0039038595 0 0)
(0.008495245 0 0)
(0.013404135 0 0)
(0.018508329 0 0)
(0.023691164 0 0)
(0.028748443 0 0)
(0.033559162 0 0)
(0.037986561 0 0)
(0.041921532 0 0)
(0.045388266 0 0)
(0.048180693 0 0)
(0.050126243 0 0)
(0.051059985 0 0)
(0.05515349 0 0)
(0.055443275 0 0)
(0.055295138 0 0)
(0.054715138 0 0)
(0.053562069 0 0)
(0.051896129 0 0)
(0.049622219 0 0)
(0.046897943 0 0)
(0.043714781 0 0)
(0.039953099 0 0)
(0.035495851 0 0)
(0.030356733 0 0)
(0.024576475 0 0)
(0.018244243 0 0)
(0.011222693 0 0)
(0.0038299619 0 0)
(0.05434922 0 0)
(0.05309256 0 0)
(0.051411319 0 0)
(0.049244979 0 0)
(0.04654592 0 0)
(0.04334532 0 0)
(0.039636642 0 0)
(0.03536811 0 0)
(0.030495686 0 0)
(0.025623375 0 0)
(0.021061697 0 0)
(0.016396464 0 0)
(0.011697026 0 0)
(0.0070672762 0 0)
(0.0026355404 0 0)
(-0.0014765048 0 0)
(-0.0051410866 0 0)
(-0.0082221165 0 0)
(-0.0105865 0 0)
(-0.01210617 0 0)
(-0.012697732 0 0)
(-0.012323975 0 0)
(-0.010987915 0 0)
(-0.0087388309 0 0)
(-0.0056387237 0 0)
(-0.0018084133 0 0)
(0.0026042254 0 0)
(0.0074514847 0 0)
(0.012569499 0 0)
(0.017837335 0 0)
(0.023151578 0 0)
(0.028298717 0 0)
(0.033175281 0 0)
(0.03763662 0 0)
(0.041681944 0 0)
(0.045163374 0 0)
(0.047898691 0 0)
(0.049801385 0 0)
(0.050702366 0 0)
(0.054268924 0 0)
(0.055052422 0 0)
(0.055331904 0 0)
(0.055180954 0 0)
(0.054606946 0 0)
(0.053469834 0 0)
(0.051825902 0 0)
(0.049573439 0 0)
(0.046876912 0 0)
(0.043719664 0 0)
(0.039973437 0 0)
(0.03542134 0 0)
(0.030197109 0 0)
(0.024432972 0 0)
(0.018123048 0 0)
(0.011130697 0 0)
(0.0037948709 0 0)
(0.053047186 0 0)
(0.051417832 0 0)
(0.049318615 0 0)
(0.046712183 0 0)
(0.043629938 0 0)
(0.040060521 0 0)
(0.035957067 0 0)
(0.031282944 0 0)
(0.026034347 0 0)
(0.020892224 0 0)
(0.016161053 0 0)
(0.011355303 0 0)
(0.0065696463 0 0)
(0.0019245886 0 0)
(-0.0024592562 0 0)
(-0.0064620961 0 0)
(-0.0099511558 0 0)
(-0.01278609 0 0)
(-0.014833173 0 0)
(-0.015984703 0 0)
(-0.016173412 0 0)
(-0.015379255 0 0)
(-0.013617264 0 0)
(-0.010957243 0 0)
(-0.007484725 0 0)
(-0.0033180796 0 0)
(0.0013806529 0 0)
(0.0064693773 0 0)
(0.011777477 0 0)
(0.017196655 0 0)
(0.022626963 0 0)
(0.027855132 0 0)
(0.032784704 0 0)
(0.037415341 0 0)
(0.041497911 0 0)
(0.044904919 0 0)
(0.04758524 0 0)
(0.049448594 0 0)
(0.050323885 0 0)
(0.052967989 0 0)
(0.054166554 0 0)
(0.054933203 0 0)
(0.055207676 0 0)
(0.055059918 0 0)
(0.054496678 0 0)
(0.053372024 0 0)
(0.051751576 0 0)
(0.049525603 0 0)
(0.046854821 0 0)
(0.043722545 0 0)
(0.039891182 0 0)
(0.035229798 0 0)
(0.030009753 0 0)
(0.024269649 0 0)
(0.017984143 0 0)
(0.011032232 0 0)
(0.0037580699 0 0)
(0.051382455 0 0)