/*--------------------------------*- C++ -*----------------------------------*\
| =========                 |                                                 |
| \\      /  F ield         | OpenFOAM: The Open Source CFD Toolbox           |
|  \\    /   O peration     | Version:  v2012                                 |
|   \\  /    A nd           | Website:  www.openfoam.com                      |
|    \\/     M anipulation  |                                                 |
\*---------------------------------------------------------------------------*/
FoamFile
{
    version     2.0;
    format      ascii;
    class       surfaceScalarField;
    location    "104.868788511957604";
    object      meshPhi;
}
// * * * * * * * * * * * * * * * * * * * * * * * * * * * * * * * * * * * * * //

dimensions      [0 3 -1 0 0 0 0];
oriented        oriented;


internalField   nonuniform List<scalar> 
18180
(
-1.0939105e-13
0.066469809
0
0.061104357
1.054199e-13
0.12725326
0
0.055996415
0
0.11673033
0
0.18315048
-5.4686939e-14
0.051205714
-1.054658e-13
0.10608378
0
0.1677058
0
0.23655211
0
0.047232061
0
0.097173734
0
0.15276379
0
0.21731591
0
0.28797077
0
0.044105804
-2.4746974e-17
0.090090994
5.0821762e-14
0.14007241
0
0.19854995
0
0.26595965
9.114062e-14
0.3378125
5.4641852e-14
0.041504305
0
0.084324986
1.0165975e-13
0.12994127
-4.9028281e-14
0.18233573
9.4511419e-14
0.24430784
0
0.3133184
0
0.38495738
1.0929788e-13
0.039290048
-2.5321677e-17
0.079547808
5.08375e-14
0.12189552
-9.8051992e-14
0.16919591
4.7277659e-14
0.22515018
0
0.28964362
0
0.35848095
0
0.42924863
0
0.037315358
-5.2709213e-14
0.07537203
5.0809255e-14
0.11519979
4.9022958e-14
0.15869748
4.7252929e-14
0.20919884
9.1157088e-14
0.26821034
0
0.33316014
0
0.40084026
8.1729566e-14
0.4702101
5.4620935e-14
0.03549814
-5.270337e-14
0.071569885
0
0.10930479
0
0.14994938
4.7273902e-14
0.19592904
4.5566016e-14
0.24959878
4.396386e-14
0.30995779
8.4749524e-14
0.37409851
0
0.44010194
7.881466e-14
0.50831719
0
0.033773646
5.2671011e-14
0.067998147
0
0.10388258
0
0.14227233
0
0.18478401
0
0.2337906
-4.3963845e-14
0.28931422
4.2374604e-14
0.34934607
-8.1767549e-14
0.41203576
0
0.47649624
0
0.54326732
0
0.032102997
0
0.064572656
-5.0818208e-14
0.098741847
4.9011522e-14
0.13525517
4.7268347e-14
0.17507976
0
0.22014627
0
0.27103956
-4.2396631e-14
0.32677138
-4.0884541e-14
0.38590518
0
0.4471598
0
0.50987245
7.329277e-14
0.57537215
2.7315678e-14
0.030462373
0
0.061243579
0
0.093792064
-4.9007325e-14
0.12862735
4.7265054e-14
0.16620822
0
0.20803658
4.3962849e-14
0.25479851
0
0.3061946
-4.0885677e-14
0.36157855
0
0.41972639
0
0.47934514
0
0.54044883
-7.0703783e-14
0.60450311
0
0.028848264
0
0.057995478
0
0.088990276
0
0.1222716
0
0.15789389
0
0.19704964
0
0.24031186
-4.2397601e-14
0.28758643
4.0887047e-14
0.33906309
-3.9428835e-14
0.39403461
-3.800457e-14
0.45084584
7.3297309e-14
0.50878984
0
0.56825127
0
0.63122509
0
0.027263113
2.6323617e-14
0.054826017
0
0.084327574
0
0.11613741
0
0.14996829
4.5555809e-14
0.18683137
0
0.22721302
0
0.27090132
-4.0888183e-14
0.31847161
3.9430717e-14
0.36995415
-1.7525643e-17
0.42398136
3.6666158e-14
0.47929202
-7.0711551e-14
0.53556787
0
0.59366988
0
0.65539205
0
0.025704762
-2.6334818e-14
0.051744373
0
0.079804839
0
0.11021193
0
0.14236524
0
0.1771597
4.3935406e-14
0.21509757
0
0.25575632
0
0.29963827
-3.943268e-14
0.34753362
1.7959294e-17
0.39864506
-1.6176642e-17
0.45149147
-1.4274922e-17
0.50521766
6.8163264e-14
0.55998514
0
0.6166691
-1.9556847e-17
0.67742349
0
0.024174969
0
0.048756659
-2.5396917e-14
0.075431789
0
0.10449557
0
0.13504965
0
0.16791585
-4.3933156e-14
0.20369707
-2.158606e-17
0.24177617
0
0.2824381
0
0.3268624
0
0.37484614
3.6672153e-14
0.42510857
7.0709407e-14
0.47659799
0
0.52879783
6.5731705e-14
0.58206317
0
0.63757579
0
0.6972282
2.7302801e-14
0.022676857
0
0.0458713
2.5394741e-14
0.071221188
7.345346e-14
0.098985189
-1.2512892e-17
0.12800856
0
0.15903856
0
0.19283596
0
0.22867686
0
0.26657337
0
0.30770513
0
0.35243997
0
0.40001318
3.5365806e-14
0.44930935
3.4088095e-14
0.49943108
0
0.5501043
6.338592e-14
0.6020719
0
0.65643495
5.8926655e-14
0.71530971
0
0.021217599
1.4167176e-17
0.043094258
0
0.067183074
0
0.093685163
-2.362183e-14
0.1212339
-4.5554855e-14
0.15050212
2.1975647e-14
0.1824292
0
0.2162365
0
0.25168368
0
0.28982962
0
0.33135658
0
0.37606865
0
0.42309785
-3.4092022e-14
0.47133407
-1.2124766e-17
0.52004234
0
0.56935152
-6.114147e-14
0.62014097
0
0.67359608
0
0.73152709
0
0.019807453
0
0.040432185
0
0.06332506
0
0.088598951
0
0.11472771
-2.2781764e-14
0.14230235
0
0.1724406
-2.1184803e-14
0.20434709
0
0.23758063
0
0.27308524
3.8018101e-14
0.31159899
0
0.35325469
0
0.39776039
-1.4042032e-17
0.44415276
3.2890404e-14
0.49123921
-3.1723549e-14
0.53864455
0
0.58673576
0
0.63652581
0
0.68902381
-5.4800217e-14
0.74626391
0
0.018455978
-2.6324007e-14
0.037890902
0
0.059649382
2.4488224e-14
0.083730111
-2.3618532e-14
0.10848878
4.5548411e-14
0.13443477
0
0.16286106
-2.1194719e-14
0.19295895
2.0443375e-14
0.22413316
0
0.25727193
0
0.29307145
-3.6684656e-14
0.3317014
0
0.37332732
0
0.4175941
0
0.46322016
-3.1706727e-14
0.50920862
-9.8653601e-18
0.55542694
0
0.60243884
-5.6848934e-14
0.65127598
0
0.70299848
-1.1708369e-17
0.7593997
-2.7295266e-14
0.017168316
0
0.035472422
-2.5387364e-14
0.056152714
2.448667e-14
0.079071329
0
0.10251296
-2.277861e-14
0.1269025
-4.3943246e-14
0.15368583
-2.119373e-14
0.18205685
-9.6449744e-18
0.21128468
8.8929411e-18
0.24225663
0
0.2756353
0
0.31149911
0
0.35012112
0
0.39181163
0
0.435766
-3.1723716e-14
0.48055547
0
0.52543904
-2.9489581e-14
0.57056134
0
0.61657673
0
0.6645967
0
0.71552553
0
0.7713472
7.6881954e-18
0.015949518
0
0.033177243
0
0.052829892
-2.4485221e-14
0.074618562
0
0.096794858
-4.5530472e-14
0.11970196
-1.1650378e-17
0.14491179
0
0.17163568
-9.5299065e-18
0.19900767
0
0.22796866
-1.9010537e-14
0.25917421
0
0.29259635
-3.5384544e-14
0.3284379
3.4110382e-14
0.36727453
0
0.40898539
0
0.45238527
0
0.49621985
0
0.54006953
-8.0030294e-18
0.58417664
-2.7406829e-14
0.62930784
5.2842376e-14
0.67658035
0
0.7268712
-4.9121109e-14
0.78196165
-1.3646228e-14
0.014803896
0
0.031004976
-2.5369447e-14
0.049676992
0
0.070366534
0
0.091325202
2.2775699e-14
0.11282998
1.1639864e-17
0.13653677
2.1180821e-14
0.16168654
2.0431903e-14
0.18729159
-8.6167147e-18
0.21436469
0
0.24359439
1.8344792e-14
0.27486106
0
0.30824731
0
0.34429018
3.2898407e-14
0.38335839
0
0.42482481
0
0.46745282
0
0.51037142
2.8443609e-14
0.55324699
0
0.59644078
-6.2810579e-18
0.64078089
0
0.68739081
0
0.73699577
0
0.79156413
-1.3638075e-14
0.013732896
0
0.028955851
7.6475389e-18
0.046687525
0
0.066310894
0
0.086095748
-2.2774368e-14
0.1062743
0
0.12855426
0
0.15220532
0
0.17612959
8.477888e-18
0.20142269
-3.8029526e-14
0.22883925
0
0.25816937
7.1808116e-18
0.2894015
0
0.32298091
0
0.3593988
0
0.39841397
0
0.43925341
2.9510256e-14
0.48110181
0
0.52313831
0
0.56513738
-6.5005825e-18
0.60749246
0
0.65109341
4.9128237e-14
0.69707277
0
0.74611351
4.5655904e-14
0.80003799
7.5033279e-18
0.012736029
-1.3151131e-14
0.02702795
0
0.043855961
7.6695577e-18
0.062445795
0
0.081100265
0
0.10002894
0
0.12095678
0
0.14318541
0
0.16551922
-1.9716233e-14
0.18912895
0
0.21486477
1.8337935e-14
0.24243214
-1.7695615e-14
0.27175187
-1.7060723e-14
0.30319217
0
0.33715597
0
0.37359014
-1.115819e-17
0.41212625
0
0.45232934
2.8450058e-14
0.49345278
2.7428532e-14
0.53471126
0
0.57587066
0
0.61742352
0
0.66034241
0
0.70575979
0
0.7542252
0
0.80772144
-7.4424378e-18
0.011811649
0
0.025219496
0
0.041176409
0
0.058767087
0
0.076336002
0
0.094084419
-2.1953772e-14
0.1137336
-2.1188634e-14
0.13462031
0
0.15545609
-1.9707417e-14
0.17747665
1.9010366e-14
0.20164244
0
0.22758277
-7.2083615e-18
0.25515751
1.7062049e-14
0.28469182
1.6462593e-14
0.31648089
3.1753097e-14
0.35048275
0
0.38653576
-2.9524912e-14
0.42454957
0
0.46420216
0
0.50469022
0
0.5451693
2.5503563e-14
0.58553191
-5.2504838e-18
0.62633422
4.7382109e-14
0.66861369
0
0.71352843
0
0.76152771
-4.2447816e-14
0.81451632
1.3636921e-14
0.010958812
1.315018e-14
0.023528727
1.2690179e-14
0.038644564
1.2239751e-14
0.05526998
1.1798084e-14
0.071797796
-1.1379652e-14
0.088432971
0
0.1068714
0
0.12649353
0
0.14593346
-1.9714978e-14
0.16645787
1.9018141e-14
0.18914842
0
0.2135696
0
0.23952867
-6.9129205e-18
0.2673358
0
0.29721047
0
0.32904135
3.061506e-14
0.36268454
0
0.39833442
-9.3531235e-18
0.43594526
2.7453258e-14
0.47504427
5.2924981e-14
0.514866
0
0.5546218
2.4591759e-14
0.59422634
0
0.63431645
-2.2842787e-14
0.67602422
0
0.7204818
0
0.76801843
4.0920176e-14
0.82068309
0
0.010175044
1.3157264e-14
0.021951905
1.2681717e-14
0.036253214
-1.2231427e-14
0.05194986
1.1797623e-14
0.067481407
-5.8175939e-18
0.083067009
5.7591095e-18
0.10035736
0
0.11879043
0
0.1369383
0
0.15606025
0
0.17736128
-1.8338276e-14
0.20034987
0
0.22479426
0
0.25100364
1.6459195e-14
0.27915907
1.5874909e-14
0.30909472
-1.5310356e-14
0.34056713
0
0.3738979
0
0.40925249
-8.5240286e-18
0.44635727
0
0.48490531
0
0.52411193
2.4595316e-14
0.5631562
2.3712134e-14
0.60204894
-2.2854649e-14
0.64147038
2.2024547e-14
0.68262258
4.2458159e-14
0.72667553
0
0.77385067
0
0.82618755
0
0.0094507546
0
0.020485504
0
0.033996326
0
0.048798041
1.1803978e-14
0.063380992
0
0.077979339
0
0.094182106
-1.0587646e-14
0.1114964
0
0.12845357
0
0.14626578
1.9009322e-14
0.16625722
0
0.18788627
0
0.2108966
1.7064888e-14
0.23561215
0
0.26218184
-6.4314086e-18
0.29043822
0
0.32000947
-1.4767747e-14
0.35114239
0
0.38428947
0
0.41928294
0
0.45588291
0
0.49389482
2.4610978e-14
0.53250541
-2.3721762e-14
0.57088729
-2.2859092e-14
0.60908227
4.4064364e-14
0.64783906
2.1235419e-14
0.68849472
0
0.73219706
0
0.77908823
-4.5090565e-18
0.83128998
4.2978774e-05
0.010298174
-7.4900583e-18
0.019118678
0
0.031868321
1.2230634e-14
0.045808346
1.1796858e-14
0.059490494
0
0.073161168
-5.719792e-18
0.088337543
-1.0592685e-14
0.10459792
1.0217953e-14
0.12046089
0
0.13704915
0
0.15580774
-1.8345918e-14
0.17614479
0
0.19778856
7.0800004e-18
0.221093
1.6461503e-14
0.24617843
0
0.27290577
0
0.30080017
0
0.32997782
1.4249042e-14
0.3610221
0
0.39395885
0
0.42847861
2.5534298e-14
0.46458743
0
0.50212489
0
0.54016387
-4.758656e-18
0.57786646
0
0.61536883
2.1242981e-14
0.6535064
0
0.69369192
-4.9949366e-18
0.73713888
0
0.78387146
-4.11858e-18
0.83592933
7.1856367e-05
0.010209907
0.00012584455
0.020760758
0
0.02985807
0
0.042974296
0
0.055803264
-5.7610663e-18
0.068607024
-1.0974932e-14
0.082814431
0
0.098082028
1.0213342e-14
0.11293669
3.8065007e-18
0.12838502
0
0.14598039
0
0.16509115
-1.7698426e-14
0.18543058
0
0.20739504
-1.6462382e-14
0.23107495
-6.64895e-18
0.25637454
0
0.2827608
-5.3574179e-18
0.31022527
1.4247494e-14
0.33930443
0
0.37023322
0
0.40282301
0
0.43692532
-6.6379815e-18
0.47262405
0
0.50968254
2.2878786e-14
0.54712843
2.2050518e-14
0.58415239
3.592702e-18
0.62098942
-2.9805894e-18
0.65852462
0
0.6983158
0
0.74158078
0
0.78822234
-3.5362633e-14
0.84026585
8.8435421e-05
0.010126647
0.00021102103
0.020728062
0.00020917886
0.032286576
0
0.04027992
0
0.052311356
0
0.064306948
-1.0980384e-14
0.077606373
1.0592118e-14
0.091935426
1.0213078e-14
0.10585684
9.8521467e-15
0.12024188
4.0453902e-18
0.13674362
0
0.15469172
0
0.17378762
1.7066472e-14
0.19447501
0
0.21681056
0
0.24076687
0
0.26574989
1.478112e-14
0.29166908
1.4250545e-14
0.31898748
1.3742758e-14
0.34799517
-1.3251642e-14
0.37871527
0
0.41100003
0
0.44475668
0
0.48005082
0
0.51663146
2.2060871e-14
0.55345591
2.1261322e-14
0.58980142
3.2071934e-18
0.62599248
1.9747533e-14
0.66297713
0
0.7024111
0
0.74558291
0
0.79222558
0
0.84423647
9.44702e-05
0.010052992
0.00026038714
0.020691161
0.00035200681
0.032432344
0.000289535
0.043241241
0
0.048994687
0
0.060248518
0
0.072699687
-1.0591895e-14
0.086144118
1.0217135e-14
0.099198203
0
0.11259346
-9.5078445e-15
0.12806633
-9.1687379e-15
0.14491419
0
0.16282637
0
0.18229633
-1.6470726e-14
0.20333916
0
0.22602013
-1.5320293e-14
0.2496835
-1.4783269e-14
0.27417711
-1.4258293e-14
0.29992794
-1.3746211e-14
0.32717229
-1.3260091e-14
0.35603927
0
0.38660655
0
0.41866539
-2.3757896e-14
0.45206149
0
0.48694616
0
0.5229954
0
0.55919175
0
0.59486814
0
0.63044266
1.9039451e-14
0.66689735
-3.6701564e-14
0.70605281
0
0.74920222
0
0.7959053
-3.2871382e-14
0.84799053
9.1637557e-05
0.009989136
0.0002787969
0.020657161
0.00043576486
0.032555455
0.000488048
0.043563342
0.00035522764
0.052170746
0
0.056407592
0
0.068079175
0
0.080692631
-1.0221234e-14
0.09293933
9.8553666e-15
0.1054117
0
0.11991918
-7.9366929e-18
0.13572718
-8.8456794e-15
0.15251498
0
0.1708266
0
0.19062162
0
0.21208669
0
0.23450244
-1.4779615e-14
0.25764743
0
0.28197426
0
0.30765047
-4.3107508e-18
0.33476511
0
0.36361749
3.7835264e-18
0.39410705
0
0.42586033
0
0.45889786
0
0.49333035
0
0.52883637
0
0.56438037
1.9765472e-14
0.59939266
1.905021e-14
0.634364
-2.0559058e-18
0.67035785
3.5384887e-14
0.70929717
0
0.75250598
0
0.79933928
0
0.85141985
8.159283e-05
0.0099363785
0.00027094457
0.020625687
0.00046787632
0.03266185
0.00060501892
0.04383849
0.00059863004
0.052652623
0.00040414648
0.059620099
0
0.063717461
0
0.075564188
0
0.087060271
-9.8551448e-15
0.09867611
-9.5034131e-15
0.11227312
-9.1685219e-15
0.12710018
8.8493663e-15
0.14282161
0
0.160033
0
0.17862497
0
0.19892448
-1.5329088e-14
0.22015499
0
0.24201476
-1.4257851e-14
0.26501079
0
0.28928361
0
0.31480632
-2.5588317e-14
0.34193372
1.2332269e-14
0.3708852
1.1893062e-14
0.40123171
0
0.43266517
0
0.46530278
0
0.49925191
0
0.53416214
0
0.56905429
0
0.60340197
0
0.63782749
1.7698067e-14
0.67341932
-1.7056909e-14
0.71222512
0
0.7555453
3.1693978e-14
0.80249761
-2.8198491e-18
0.85461459
6.5900723e-05
0.0098960307
0.0002416139
0.020598149
0.00045583473
0.032751794
0.00065037624
0.044076584
0.0007419981
0.053062792
0.00068085417
0.060308042
0.00044390067
0.066857622
0
0.07071744
0
0.081540273
0
0.092361707
0
0.10510531
3.9890332e-18
0.11900557
0
0.13371725
0
0.14988383
3.5181659e-18
0.16731636
0
0.1864997
0
0.20660094
1.4782605e-14
0.22722772
0
0.24896107
-1.375457e-14
0.27194803
0
0.29603821
4.0800751e-18
0.32153463
0
0.3489137
1.1898364e-14
0.37793015
3.4564114e-18
0.40801047
0
0.43907387
0
0.47128032
0
0.50469537
0
0.53901492
0
0.5732262
0
0.60694779
0
0.64087596
1.7063083e-14
0.67614916
0
0.71490042
0
0.75835325
0
0.8054266
0
0.85744882
4.6090143e-05
0.0098686574
0.0001953383
0.020575995
0.00040724642
0.032825208
0.0006343054
0.044278638
0.00079746234
0.053417549
0.00084365268
0.060900888
0.00074783242
0.067770189
0.00047884342
0.073692906
0
0.076323213
0
0.086445549
-9.5071991e-15
0.09838537
-9.1723484e-15
0.11141686
3.6425773e-18
0.12517354
0
0.14034765
-8.236045e-15
0.15666725
3.6357749e-18
0.17478209
0
0.19380562
-1.4789443e-14
0.21324687
-5.1950747e-18
0.23377254
0
0.25554976
0
0.27833975
0
0.30234696
-1.2341156e-14
0.32812402
1.1899495e-14
0.35574753
-3.6565604e-18
0.38465451
-1.1058707e-14
0.41440622
0
0.4450746
0
0.47680722
0
0.50968579
0
0.54337711
-1.8383679e-14
0.57694395
0
0.61006656
0
0.64356901
-1.6452265e-14
0.67862313
0
0.71737594
-2.5374502e-18
0.76095253
0
0.80806796
2.8401083e-14
0.86002077
2.3634792e-05
0.0098543512
0.00013669257
0.02055984
0.00032971517
0.032882011
0.00056715982
0.04444448
0.00077761106
0.05371786
0.00090652645
0.061417512
0.00092659294
0.068567661
0.00080658889
0.074856953
0.00050498655
0.07902225
0
0.080876394
0
0.092084347
0
0.10430771
-3.6272702e-18
0.11716223
0
0.13139441
0
0.14664922
7.9422193e-15
0.16373977
3.3961414e-18
0.18173815
0
0.20003571
0
0.21939843
1.3758665e-14
0.24003073
0
0.26160606
-1.2800742e-14
0.28424572
0
0.30848799
0
0.33462118
2.2954765e-14
0.36234309
-1.1067834e-14
0.39101418
1.0667971e-14
0.4203863
0
0.45062976
0
0.48188625
0
0.51420777
0
0.54730225
0
0.58022625
-1.7080793e-14
0.61280439
-1.6457821e-14
0.64595564
1.586048e-14
0.68089111
0
0.71968964
0
0.76335637
0
0.81046907
0
0.86224571
0.0098542512
0
7.0098034e-05
0.020550264
0.00023091563
0.03292279
0.0004594874
0.044574126
0.0006951832
0.053963191
0.00088377413
0.061857338
0.00099571412
0.069265939
0.00099939304
0.075875553
0.00085060161
0.080454544
0.00052054432
0.083188813
0
0.086159482
0
0.097650162
0
0.10965813
8.53397e-15
0.12299233
3.440314e-18
0.13723645
0
0.15334306
0
0.17036391
-7.3928754e-15
0.18756076
0
0.20580281
0
0.22534412
0
0.24577236
0
0.26714412
1.2352597e-14
0.28996417
-1.1912409e-14
0.31458379
-1.1486282e-14
0.34095644
1.1069904e-14
0.36858257
1.0670775e-14
0.39693177
1.0287605e-14
0.4259139
0
0.45574163
0
0.48651354
0
0.51829352
0
0.55078647
0
0.58312047
0
0.6151926
0
0.64809529
-1.2212529e-18
0.68301361
1.4737749e-14
0.72187763
-2.8412998e-14
0.76556788
0
0.81258932
0
0.86421007
0.020548758
0
0.0098690772
-2.3705936e-05
0.00011846055
0.032948604
0.00032192317
0.044668233
0.00056311784
0.054153277
0.00078996656
0.062219853
0.00097077341
0.06986367
0.0010739139
0.076772957
0.0010540028
0.081712784
0.00087693026
0.084887178
0.00053327026
0.088080704
0
0.091376347
0
0.10263497
0
0.11510735
8.2328046e-15
0.12839735
3.7636171e-18
0.14356516
-1.532947e-14
0.15965088
7.3932658e-15
0.17579235
7.1351358e-15
0.19295198
0
0.21145118
0
0.23079233
1.2806186e-14
0.25096566
-1.2351861e-14
0.27247122
1.1912405e-14
0.29564053
0
0.32053753
-1.1078887e-14
0.34694768
0
0.37436788
1.0290858e-14
0.4023765
9.9204592e-15
0.43099648
0
0.46040684
0
0.49069804
0
0.52194872
0
0.55388855
0
0.58563925
-1.5876221e-14
0.61728384
-1.5297551e-14
0.65004528
1.474258e-14
0.6850193
1.4209064e-14
0.72394598
0
0.7675938
0
0.81447081
0
0.86584009
0.032960034
0
0.020557197
-7.0205486e-05
0.0098990459
-4.6369405e-05
0.00016518807
0.044727787
0.000394473
0.054288912
0.00063979092
0.062502837
0.00086778463
0.070360122
0.0010470385
0.077546625
0.0011327582
0.082830698
0.0010868997
0.086392245
0.0008985935
0.090074388
0.00054646838
0.092850877
0
0.096021813
0
0.10770829
8.2362422e-15
0.12010564
-3.8003787e-18
0.13437518
0
0.14956723
0
0.16469998
0
0.18081722
2.6150165e-18
0.1983168
0
0.21662257
0
0.23565767
0
0.25593334
0
0.27774993
0
0.30117283
-3.6418445e-18
0.32617491
1.0685554e-14
0.35251713
-3.0885294e-18
0.37970319
-9.9268289e-15
0.40739715
0
0.43564619
0
0.46463113
0
0.49445932
-2.7882349e-18
0.52521773
0
0.55660569
0
0.5878387
1.5304803e-14
0.61913298
-1.4748427e-14
0.65184411
1.421357e-14
0.68693714
0
0.72591045
0
0.76941723
0
0.81607785
2.4542945e-14
0.86723545
0.044752839
0
0.032960764
-0.00011850124
0.020576291
-0.00013711967
0.009944522
-6.6514341e-05
0.00020238725
0.054371171
0.00044812734
0.062705544
0.00070285823
0.070752727
0.00093607948
0.078194346
0.0011046905
0.083803802
0.0011684339
0.087736118
0.0011139694
0.091853242
0.00092082946
0.095126342
0.00055594004
0.096964589
-8.5377294e-15
0.10072759
0
0.1123352
0
0.12574851
-3.639971e-18
0.14008111
7.3966674e-15
0.15425319
0
0.16936953
0
0.18591109
6.6419455e-15
0.203229
0
0.22117676
0
0.24029217
0
0.26085226
0
0.28287826
1.1088598e-14
0.30641246
-1.0690923e-14
0.33145066
2.0605258e-14
0.357677
1.9860508e-14
0.38461147
9.5725721e-15
0.41198577
-9.2218675e-15
0.43986404
0
0.46843297
0
0.4978286
0
0.52811526
0
0.55899848
0
0.58974629
-1.4756338e-14
0.62077877
-1.4219021e-14
0.65351876
-1.3704627e-14
0.68877804
0
0.72773571
0
0.77104547
0
0.81745829
0
0.86835351
0.054399628
0
0.044751133
-0.00016518395
0.032951887
-0.00023108982
0.020606195
-0.00019629856
0.010006906
-8.2660744e-05
0.00022987788
0.062828044
0.00049234215
0.071038802
0.00075829545
0.078713675
0.00098785659
0.084627812
0.001139856
0.08891118
0.0011978642
0.093435067
0.0011414305
0.097138289
0.00093628917
0.099475686
0.00056245705
0.10111371
8.2329118e-15
0.10502595
0
0.11765702
0
0.13116029
-2.7317969e-18
0.14442167
2.5512601e-18
0.15858369
2.6969216e-18
0.17420684
0
0.19057969
-6.4061222e-15
0.20748776
0
0.2255024
0
0.24488427
1.1498908e-14
0.26560709
0
0.28771664
0
0.31132315
-1.0311451e-14
0.33635863
0
0.362433
-9.5764103e-15
0.38909993
-9.2306247e-15
0.41616318
0
0.44367142
0
0.47184562
0
0.50083744
0
0.53068264
0
0.56107365
0
0.59140948
0
0.62224651
1.3709548e-14
0.65509225
-1.3213928e-14
0.69052308
0
0.72943727
0
0.7724605
0
0.81859639
-8.3658131e-19
0.8692691
0.062869268
0
0.054386213
-0.00020232562
0.044723213
-0.00032192063
0.03293083
-0.00033013816
0.020647405
-0.00024331839
0.010087248
-9.3219796e-05
0.00025256657
0.071217305
0.00053128087
0.079102419
0.00080052568
0.085299948
0.0010197179
0.089912084
0.0011687586
0.094812166
0.0012271939
0.098922126
0.0011601309
0.10169074
0.00094698352
0.10392131
0.0005670751
0.10485769
0
0.11003869
0
0.12277008
0
0.13517304
0
0.14842868
0
0.16317491
0
0.17864577
-2.0546198e-18
0.19455647
1.9483542e-18
0.21152238
0
0.22979755
0
0.24929832
0
0.27006301
0
0.29225415
0
0.31596042
0
0.34094598
2.6895128e-18
0.36679881
-2.3789354e-18
0.39320867
0
0.41995713
8.5752462e-15
0.44710368
-1.6519592e-14
0.47490036
0
0.50351119
0
0.53294293
0
0.5628855
1.4232643e-14
0.59283816
0
0.6235636
0
0.65655764
0
0.69217728
0
0.73095132
0
0.77367514
0
0.81953018
0
0.86994107
0.071286737
0
0.062845364
-0.00022973167
0.054331513
-0.00039424151
0.044662731
-0.00045952134
0.032897204
-0.00040804485
0.020700145
-0.00027352145
0.010184775
-9.6537833e-05
0.00027260953
0.079358928
0.0005610764
0.085816757
0.00082666567
0.090733336
0.0010457303
0.095978117
0.0011971832
0.10046881
0.0012468219
0.10364857
0.0011729997
0.10639105
0.00095488869
0.10799894
0.00057146981
0.10928675
0
0.11483288
0
0.12647644
0
0.13887786
6.8831456e-15
0.15278098
0
0.1673942
0
0.1823519
0
0.198318
-5.9633869e-15
0.21554938
0
0.23390039
0
0.25340185
-1.0704753e-14
0.27424725
0
0.29658069
3.0259871e-18
0.32032088
0
0.34516655
0
0.37081468
0
0.3969763
-8.5819745e-15
0.42341213
-8.2661755e-15
0.45019109
-1.5926683e-14
0.4776208
0
0.50588701
-1.4782939e-14
0.53493381
0
0.56443446
0
0.59407297
1.32221e-14
0.62473681
0
0.657925
-8.4528144e-19
0.69366992
1.183857e-14
0.73229583
0
0.77467643
-2.2001519e-14
0.82024852
0
0.87044162
0.079480958
0
0.071269904
-0.00025241315
0.06275492
-0.00044755039
0.054224757
-0.00056265661
0.044571053
-0.00056729574
0.03285015
-0.00045710836
0.020763075
-0.00028220931
0.010298506
-9.0817454e-05
0.00028803448
0.086175519
0.00057966227
0.09137109
0.00084785004
0.096926123
0.001071027
0.10177085
0.0012159177
0.10533923
0.001260072
0.10855851
0.0011827349
0.11076668
0.00096250089
0.11274651
0.00057611764
0.11344686
-7.39462e-15
0.11825988
0
0.12990565
-6.8862251e-15
0.14300008
-2.560544e-18
0.15679243
2.036473e-18
0.17084447
-6.1823767e-15
0.18585592
1.1928722e-14
0.20210077
0
0.21936998
0
0.23767495
0
0.25724663
0
0.27824336
0
0.30066923
0
0.32437705
9.2475074e-15
0.3490815
-8.9139346e-15
0.3745362
8.5867429e-15
0.40044902
-8.2744712e-15
0.42654114
7.9710447e-15
0.45295213
0
0.48004306
0
0.50799188
0
0.53667416
1.37301e-14
0.56576554
0
0.59511743
0
0.62578441
0
0.65914739
-7.6671215e-19
0.69501706
2.2828423e-14
0.7334312
0
0.77549015
0
0.82078979
-2.0452656e-14
0.87074252
0.086372744
0
0.079498808
-0.00027261298
0.07116549
-0.00049172319
0.062580367
-0.00063854501
0.054067779
-0.00069450671
0.044447927
-0.00063461969
0.032789592
-0.00046963995
0.020837271
-0.00026441261
0.010429694
-7.4219468e-05
0.00029770359
0.091821819
0.00059457711
0.097651264
0.00086817758
0.10282045
0.0010872743
0.10675433
0.0012282823
0.11041677
0.0012704069
0.11318652
0.0011921764
0.1157989
0.00096996404
0.11721994
0.00057565947
0.11624036
0
0.12144926
0
0.13380421
0
0.14680959
0
0.16000369
1.9263785e-18
0.17410668
-1.1932389e-14
0.18941384
1.1509756e-14
0.20566424
5.5530643e-15
0.22283797
0
0.24120351
0
0.26093712
0
0.28205576
0
0.30452767
9.2563062e-15
0.32820567
8.918042e-15
0.35278114
-8.5933982e-15
0.37801775
-8.2813189e-15
0.40362839
-1.5630956e-18
0.42936452
7.6847462e-15
0.45542079
0
0.48219603
0
0.50985806
-1.3738865e-14
0.53819075
-9.3786545e-19
0.56688144
2.550632e-14
0.59600421
0
0.62668852
1.1844974e-14
0.6602465
-1.1416914e-14
0.69617216
0
0.73439913
0
0.7761128
0
0.8211524
0
0.87091089
0.092080206
0
0.086444363
-0.00028834499
0.079413224
-0.00053129037
0.070949708
-0.00070148923
0.062323141
-0.00078791501
0.053860541
-0.00077680126
0.0442934
-0.00065094137
0.03271471
-0.00043792748
0.020920313
-0.00021503846
0.010579784
-4.4677777e-05
0.00030537918
0.098149328
0.00060866378
0.10361016
0.00088102146
0.10788618
0.0010979142
0.11196035
0.0012381875
0.11525303
0.0012805549
0.11846478
0.0012013022
0.12053588
0.00096922505
0.12032888
0.00057078342
0.11880909
0
0.12512521
-6.6449372e-15
0.13741301
0
0.14979758
-6.1854977e-15
0.1630361
1.9888407e-18
0.17745632
5.7577066e-15
0.19274416
5.551036e-15
0.20885053
1.5482367e-18
0.22607213
0
0.24461608
0
0.26448735
-9.6082904e-15
0.28568274
0
0.30824115
0
0.33189244
8.5999727e-15
0.35627737
0
0.38125686
-1.7319958e-18
0.40654129
-7.6912974e-15
0.43190911
-7.4073849e-15
0.45762673
0
0.48411039
0
0.51149939
-1.3243513e-14
0.53950471
-1.2759793e-14
0.56781983
-2.4590118e-14
0.59672383
0
0.6274762
0
0.66116301
0
0.69716827
2.1221222e-14
0.73515925
2.0457335e-14
0.77657317
-1.9722477e-14
0.82136654
0
0.87090391
0.098414216
0
0.092187332
-0.00029830005
0.086390074
-0.00056229235
0.079194172
-0.000758306
0.07062393
-0.00086545635
0.061984705
-0.00088093212
0.053604259
-0.00079668448
0.044105255
-0.00060577817
0.03262356
-0.00035418441
0.021011043
-0.00012875081
0.010742797
0
0.00031251902
0.1041351
0.00061742829
0.10872839
0.00088927225
0.11318251
0.0011065047
0.11696206
0.0012479518
0.1207349
0.0012900411
0.12343077
0.0012002184
0.12392292
0.000961258
0.12321877
0.00056621108
0.12183988
0
0.12852202
0
0.14019659
1.2370053e-14
0.15261774
-5.9685827e-15
0.16619155
1.8446474e-18
0.18057322
0
0.1956732
-1.5166848e-18
0.21181288
5.1687942e-15
0.22923159
0
0.24793444
0
0.26788275
0
0.28920719
-8.9303796e-15
0.31187359
0
0.33543794
-8.2950943e-15
0.35959233
0
0.38427191
-1.5944244e-18
0.40920207
-1.2876634e-18
0.4342084
-7.1410381e-15
0.45959799
0
0.48579951
0
0.51294784
1.2767236e-14
0.54063761
0
0.5685769
-1.1853857e-14
0.59731228
0
0.62809317
1.1010408e-14
0.66192088
-1.0613038e-14
0.69793746
0
0.73575763
0
0.77686152
0
0.82142253
1.833555e-14
0.87080375
0.10438893
0
0.098495229
-0.00030598281
0.092139397
-0.00058196604
0.086172531
-0.0008031317
0.078842726
-0.00093606585
0.070190882
-0.00096745573
0.061564311
-0.00090306389
0.053300515
-0.00074137547
0.043885883
-0.00048891018
0.03251379
-0.00021074615
0.021100968
0
0.0099301121
1.3638551e-14
0.00031690044
0.10927697
0.00062295864
0.1140774
0.00089601031
0.11830901
0.0011150348
0.12260242
0.0012569433
0.12589209
0.0012888067
0.12705698
0.0011904928
0.12710128
0.0009535716
0.1265555
0.00056146619
0.12457936
0
0.13112138
0
0.14282538
0
0.15559233
5.7574687e-15
0.16911534
1.5801213e-18
0.18326659
-5.3586007e-15
0.19838461
1.0339083e-14
0.21473981
-4.9836214e-15
0.23234742
0
0.25112265
0
0.27119884
8.9361567e-15
0.29274489
0
0.31547132
8.3019016e-15
0.33885293
-2.1329015e-18
0.3627216
-7.7050311e-15
0.38707593
0
0.41163683
-7.1482867e-15
0.43627516
-6.8841194e-15
0.46134634
0
0.48729357
0
0.51421613
0
0.54160468
0
0.5691848
0
0.59774709
0
0.62856633
0
0.66244263
0
0.69853495
-9.8646635e-15
0.73616129
1.9019361e-14
0.77701113
0
0.82135706
0.0079594011
0.8626011
0.10952738
0
0.10442984
-0.00031289509
0.098390142
-0.00059689829
0.091890253
-0.00083154228
0.085790967
-0.00099210488
0.07836042
-0.0010470057
0.069650585
-0.00099146613
0.06106654
-0.00083999748
0.052950396
-0.00059832608
0.043633448
-0.00029017743
0.03237927
0
0.019489907
0
0.010770436
-1.3646823e-14
0.0003196245
0.11464165
0.0006275018
0.11928779
0.0009027575
0.12406189
0.001122788
0.12790957
0.00125558
0.12972017
0.0012784811
0.13048015
0.0011810271
0.13070935
0.00094560603
0.12959589
0.00055424976
0.12655318
0
0.13358205
0
0.14562883
0
0.15833647
-5.5571818e-15
0.17159362
1.453518e-18
0.18574864
-1.0343252e-14
0.20109806
-1.4961878e-14
0.21767313
-4.8093195e-15
0.23535787
0
0.25424537
0
0.27458091
0
0.29631677
0
0.31897817
2.3819325e-18
0.34211638
7.7100108e-15
0.36567902
0
0.38967258
-1.339657e-18
0.41384648
0
0.4381255
6.6371323e-15
0.46290015
0
0.48860941
0
0.51533031
-1.1866265e-14
0.54241632
0
0.56964887
0
0.59806153
0
0.6288319
1.0234939e-14
0.6627895
0
0.69891513
0
0.73643336
0
0.77699943
0.015576437
0.81359614
0.0072465585
0.85500773
0.11487123
0
0.10954352
-0.00031706961
0.10425858
-0.00061012478
0.098047522
-0.000852754
0.091436718
-0.0010275373
0.085242851
-0.0011105339
0.077749505
-0.001073798
0.069007002
-0.00092189916
0.060490012
-0.00067754768
0.052553996
-0.00035519406
0.043336538
-1.2239272e-14
0.029955557
0
0.020953706
0
0.011685494
7.9650886e-18
0.00032185585
0.11989407
0.00063206094
0.12510882
0.00090874604
0.12947414
0.0011214477
0.13190379
0.0012455858
0.13334785
0.0012682884
0.13432561
0.0011712179
0.13401567
0.00093339407
0.1318788
0.00054484485
0.12839813
0
0.13621802
0
0.14820308
0
0.16061995
-1.4220977e-18
0.17386622
-5.171312e-15
0.18826493
4.9882566e-15
0.2038646
-4.8126079e-15
0.22052511
1.4318087e-18
0.23830187
0
0.2574419
0
0.27804632
8.3120277e-15
0.29986257
-8.0095402e-15
0.32236492
-7.7167601e-15
0.34522176
7.4335932e-15
0.36844789
0
0.392064
0
0.41584713
0
0.43978054
-6.3973402e-15
0.46427805
0
0.48977069
0
0.51628757
1.1438866e-14
0.5430947
0
0.56999682
0
0.59822366
1.0237654e-14
0.62895433
9.8680902e-15
0.66291509
-9.5128352e-15
0.69915533
5.2612331e-20
0.73649426
0.022886261
0.76961951
0.014180724
0.80639498
0.006484382
0.8480135
0.12012214
0
0.11484135
-0.00031958556
0.10932501
-0.00061809173
0.10381914
-0.00087131733
0.097468004
-0.001053562
0.090778765
-0.0011504655
0.084528371
-0.0011397864
0.077010886
-0.00099921711
0.068257563
-0.00074329526
0.059839955
-0.00040204843
0.052091939
0
0.040395132
0
0.031990523
-1.2690646e-14
0.022535048
1.3159492e-14
0.012684643
-1.3648095e-14
0.00032410751
0.12574027
0.00063604945
0.13058249
0.00090751061
0.13359811
0.0011125111
0.13569851
0.0012355985
0.13739355
0.0012576524
0.13787275
0.0011561796
0.13657904
0.00091789228
0.134026
0.00053551555
0.13039433
0
0.13862482
0
0.15031097
0
0.1627037
-1.4757452e-18
0.17620405
-4.9895584e-15
0.19087591
-4.8142425e-15
0.20657132
-4.6429543e-15
0.22330992
8.9541347e-15
0.24132444
0
0.2607633
0
0.28155604
-8.0187637e-15