/*--------------------------------*- C++ -*----------------------------------*\
| =========                 |                                                 |
| \\      /  F ield         | OpenFOAM: The Open Source CFD Toolbox           |
|  \\    /   O peration     | Version:  v2012                                 |
|   \\  /    A nd           | Website:  www.openfoam.com                      |
|    \\/     M anipulation  |                                                 |
\*---------------------------------------------------------------------------*/
FoamFile
{
    version     2.0;
    format      ascii;
    class       volScalarField;
    location    "104.868788511957604";
    object      p;
}
// * * * * * * * * * * * * * * * * * * * * * * * * * * * * * * * * * * * * * //

dimensions      [0 2 -2 0 0 0 0];


internalField   nonuniform List<scalar> 
9200
(
-0.0019460271
-0.001992768
-0.0064298843
-0.0020467403
-0.0068582339
-0.01041265
-0.0021265295
-0.0073556492
-0.01117588
-0.014035127
-0.0021364222
-0.0081353473
-0.011985593
-0.01518107
-0.016979436
-0.0021112106
-0.0088971276
-0.013255206
-0.016430269
-0.018514397
-0.019181732
-0.0020059463
-0.0096902314
-0.014486521
-0.018372382
-0.02027327
-0.021127646
-0.020491548
-0.0018628476
-0.010373641
-0.015722825
-0.020339963
-0.022987135
-0.023481103
-0.022862665
-0.020844188
-0.0017107901
-0.010946583
-0.016729409
-0.022350394
-0.025855838
-0.027103174
-0.025861569
-0.023576374
-0.020194254
-0.0016418902
-0.011364374
-0.017468898
-0.02407645
-0.028862229
-0.031105154
-0.030480964
-0.027249846
-0.023127633
-0.018399549
-0.001782762
-0.011649036
-0.01785719
-0.02539912
-0.031599385
-0.03544672
-0.035807815
-0.032897268
-0.027472385
-0.021543319
-0.01541697
-0.0023529243
-0.011821898
-0.017908649
-0.026151196
-0.033851434
-0.039669026
-0.041799512
-0.039668102
-0.034102799
-0.026401114
-0.018846602
-0.01145792
-0.0037195256
-0.011922063
-0.017671029
-0.026253947
-0.035349131
-0.043469152
-0.047992742
-0.04755855
-0.042314201
-0.033863264
-0.023938394
-0.014934574
-0.0065982035
-0.0063008895
-0.011942713
-0.017250157
-0.025671288
-0.035889086
-0.046481513
-0.054035226
-0.056162691
-0.052206258
-0.043365573
-0.031985611
-0.020104395
-0.0099670923
-0.00097124857
-0.0097127653
-0.011797433
-0.016798086
-0.024431008
-0.035311977
-0.048371239
-0.059497934
-0.065146051
-0.06350001
-0.055167036
-0.042458688
-0.028408985
-0.014975499
-0.0040689409
0.0052514926
-0.013123058
-0.012572584
-0.016525972
-0.022623821
-0.033519689
-0.048841264
-0.063935447
-0.074083741
-0.075971105
-0.069178442
-0.055839757
-0.039361444
-0.023130371
-0.0087341206
0.0025439863
0.011886045
-0.018096375
-0.016560888
-0.016701363
-0.020396674
-0.030479984
-0.047645664
-0.066922847
-0.082477957
-0.089303694
-0.085398909
-0.072279906
-0.053741336
-0.034091306
-0.016339203
-0.0015888556
0.0096501372
0.018742301
-0.027097142
-0.022413288
-0.017447625
-0.017997953
-0.026228202
-0.044617312
-0.068065029
-0.089818674
-0.10305925
-0.10374665
-0.092089876
-0.0719076
-0.048700852
-0.026705595
-0.0082899544
0.0062031032
0.017034858
0.025655941
-0.038377571
-0.027866591
-0.018504665
-0.015605516
-0.02085119
-0.03967697
-0.067056961
-0.095572967
-0.11675164
-0.12400815
-0.11558957
-0.094574043
-0.067485249
-0.040637022
-0.017520598
0.00067184316
0.014367729
0.024490467
0.032480935
-0.049852967
-0.032740222
-0.020321423
-0.0135877
-0.014466605
-0.032835923
-0.06370819
-0.099270024
-0.12980224
-0.14590293
-0.14299855
-0.12261913
-0.091679645
-0.058965869
-0.029987512
-0.0069930254
0.010171647
0.022644324
0.031839586
0.039098885
-0.060600382
-0.039430692
-0.022854285
-0.011503944
-0.0073296616
-0.024225989
-0.057980695
-0.10053722
-0.1416285
-0.16898731
-0.1745313
-0.15691399
-0.12269592
-0.083025042
-0.046624875
-0.017335505
0.0043503621
0.019847432
0.030804296
0.038940578
0.045419418
-0.069338371
-0.048312099
-0.02683732
-0.010528333
0.00041531592
-0.014056032
-0.050018454
-0.099172006
-0.15166688
-0.19273918
-0.21020187
-0.19851183
-0.1620943
-0.11465875
-0.068711104
-0.031231741
-0.0034300108
0.015987821
0.029380105
0.03866333
0.045687195
0.051381242
-0.075009956
-0.05976109
-0.032645275
-0.01099346
0.0082484346
-0.0027139566
-0.040157801
-0.095211464
-0.15947491
-0.21655446
-0.24986573
-0.24857319
-0.21198437
-0.15587988
-0.098143919
-0.049770901
-0.013886444
0.010959886
0.02745627
0.038512927
0.046084367
0.052008482
0.05694678
-0.077538233
-0.074400327
-0.040809854
-0.013594483
0.015795177
0.0093648664
-0.028926917
-0.088951216
-0.16479174
-0.23987562
-0.29319142
-0.30813934
-0.27534929
-0.20973062
-0.13733716
-0.074697697
-0.027811235
0.004250798
0.025147445
0.038384596
0.04705788
0.05297651
0.05786317
0.062100751
-0.078440534
-0.092662048
-0.051319051
-0.01897978
0.022519933
0.021623554
-0.016932186
-0.080915455
-0.16758755
-0.26219431
-0.3397549
-0.37817294
-0.3556064
-0.28103956
-0.18998694
-0.10832396
-0.046598929
-0.0045867545
0.022146288
0.038586819
0.048505109
0.054893165
0.059289327
0.06323615
0.066843631
-0.078523975
-0.11226319
-0.064792818
-0.027802012
0.027912518
0.033488098
-0.0048974945
-0.071800277
-0.16808224
-0.28332419
-0.38923026
-0.45960196
-0.45705623
-0.37555875
-0.26125118
-0.15415197
-0.072067033
-0.016503733
0.018338284
0.038990599
0.050892601
0.057649691
0.061955232
0.065006295
0.068131685
0.071189478
-0.077099179
-0.130993
-0.083545524
-0.040203843
0.031173149
0.044893329
0.0063815963
-0.062484874
-0.16661079
-0.30256804
-0.4408649
-0.55348837
-0.5848907
-0.50209112
-0.3583983
-0.21705904
-0.10699509
-0.032677097
0.013198928
0.039761791
0.05422734
0.061832002
0.065736539
0.068227911
0.070136758
0.072569358
0.075160273
-0.074662098
-0.14697854
-0.1046699
-0.052475246
0.031682835
0.053799965
0.016054879
-0.053956487
-0.16379618
-0.31934013
-0.4910442
-0.65583636
-0.74306088
-0.67138839
-0.4931758
-0.30392754
-0.15516621
-0.054980784
0.0061452585
0.040721651
0.058886586
0.067537264
0.071301544
0.072752435
0.073731084
0.074709041
0.076578419
0.078784454
-0.0719797
-0.16041036
-0.12509814
-0.064271679
0.029402785
0.059916849
0.023129721
-0.04713584
-0.16034062
-0.3333817
-0.53811233
-0.76026398
-0.92512894
-0.88924164
-0.6796674
-0.42743354
-0.2220875
-0.085814965
-0.0038822173
0.041746283
0.064935806
0.075284484
0.078795248
0.079297887
0.078734952
0.078509832
0.078764003
0.080194801
0.082092919
-0.069397717
-0.17086446
-0.14434569
-0.077631635
0.023991442
0.062289059
0.026733514
-0.042860186
-0.15713624
-0.34411783
-0.57974892
-0.8649066
-1.1314912
-1.1570972
-0.91853639
-0.60177843
-0.31951499
-0.12902718
-0.01816241
0.042379029
0.07256071
0.085286861
0.088817736
0.08802193
0.085889208
0.083756021
0.082625683
0.082350026
0.083457313
0.085118158
-0.065968342
-0.17875203
-0.16195272
-0.090985873
0.015719843
0.060371689
0.026228731
-0.041756813
-0.15489672
-0.35144733
-0.61351606
-0.95748336
-1.3556235
-1.489223
-1.2122008
-0.82381826
-0.45720048
-0.19321604
-0.03911221
0.042069142
0.081681479
0.097908797
0.10165186
0.099557402
0.09533701
0.091190171
0.087908821
0.086148989
0.08551883
0.086405718
0.087891739
-0.061630953
-0.18473743
-0.17760533
-0.10334008
0.0050097524
0.053837608
0.02127296
-0.044217791
-0.15414905
-0.35344965
-0.64175959
-1.0256896
-1.5848394
-1.8440533
-1.5843579
-1.1015254
-0.62992068
-0.28272988
-0.072055746
0.039421694
0.092148477
0.11326777
0.1177407
0.11419908
0.10770885
0.10092152
0.095342061
0.091296811
0.08915352
0.088322435
0.089078632
0.090444199
-0.056906888
-0.18830888
-0.19102867
-0.11403809
-0.0074393805
0.042626878
0.011498534
-0.050345148
-0.15502943
-0.34970635
-0.66143929
-1.0776598
-1.8066568
-2.2182087
-2.0641943
-1.4694826
-0.85486339
-0.39286662
-0.118877
0.031366797
0.10319323
0.13139079
0.13727264
0.13240045
0.1232729
0.11355428
0.10498779
0.098497218
0.094026161
0.091712126
0.090811025
0.091512706
0.092803627
-0.051993159
-0.18731749
-0.20228303
-0.12406317
-0.021157471
0.027373704
-0.0030954129
-0.060074533
-0.15723545
-0.34266143
-0.66378852
-1.1269002
-1.9683732
-2.5672685
-2.5673029
-1.9503482
-1.173887
-0.53626865
-0.17714603
0.016633676
0.11304101
0.1518218
0.16032113
0.15434307
0.14245091
0.1293067
0.11740941
0.10775808
0.10080847
0.096200001
0.093894194
0.093031536
0.093741611
0.094995885
-0.046509551
-0.18109168
-0.20879685
-0.13442332
-0.039013142
0.0093917572
-0.022589652
-0.073144301
-0.16057796
-0.33454525
-0.65398855
-1.1706001
-2.0426696
-2.8473455
-3.006815
-2.4320925
-1.5294278
-0.73059651
-0.25291681
-0.0042839098
0.12041615
0.17343877
0.18653951
0.18007571
0.16537536
0.14854707
0.13276342
0.11959414
0.10944999
0.10242168
0.09791511
0.095763715
0.095026794
0.095795829
0.097043839
-0.039394863
-0.16962358
-0.21033317
-0.14325143
-0.059008253
-0.015046287
-0.044383224
-0.089562356
-0.16468677
-0.32615916
-0.63840954
-1.1932054
-2.0506412
-3.0233293
-3.3494007
-2.8480484
-1.8769872
-0.95807313
-0.35468038
-0.034410246
0.12435485
0.19490741
0.2150853
0.20925985
0.19203922
0.17134139
0.15135614
0.13409606
0.12041386
0.11026735
0.10347157
0.099259558
0.097378391
0.096835048
0.097702286
0.098967896
-0.030229373
-0.15420434
-0.20642934
-0.14932759
-0.080136118
-0.042573123
-0.072716782
-0.10804389
-0.16958287
-0.31689204
-0.61473195
-1.1722328
-2.0040366
-3.0815772
-3.6019896
-3.1602637
-2.1826816
-1.1889483
-0.48026434
-0.078779264
0.12243226
0.21447552
0.24465983
0.24114175
0.22207173
0.19761868
0.17318509
0.15150846
0.13372574
0.12014861
0.11039515
0.10407901
0.10031174
0.098789126
0.098489868
0.099484621
0.1007856
-0.019299943
-0.13573428
-0.19711654
-0.15182598
-0.10038045
-0.074312682
-0.10349598
-0.13033245
-0.1738474
-0.30546467
-0.58291725
-1.1151608
-1.911228
-3.0307614
-3.6644147
-3.3475089
-2.4157117
-1.3971531
-0.61694368
-0.14138973
0.11096118
0.22936085
0.27331609
0.27448051
0.25473673
0.2269694
0.1981221
0.17176711
0.14957335
0.13202969
0.11904794
0.109997
0.10435024
0.10114003
0.10004006
0.10002027
0.1011631
0.10251225
-0.0070452041
-0.11450226
-0.18280812
-0.15009011
-0.11929922
-0.10846629
-0.14124102
-0.15354709
-0.17842298
-0.29052056
-0.54806749
-1.0411701
-1.7841879
-2.8890203
-3.5970818
-3.4070261
-2.5671749
-1.5683267
-0.75231125
-0.22235621
0.084857257
0.23616677
0.29808925
0.3074412
0.28884578
0.25866487
0.22572815
0.19469999
0.16784131
0.14604843
0.12933758
0.11732909
0.10921477
0.10437677
0.10180295
0.10116882
0.10145096
0.10275509
0.10416067
0.0060763992
-0.091094429
-0.1643886
-0.1438686
-0.13557731
-0.14371487
-0.18372464
-0.18225518
-0.18011107
-0.27254917
-0.51358698
-0.95670582
-1.6356222
-2.6836825
-3.4229778
-3.3556411
-2.6251851
-1.6885619
-0.8854679
-0.31865574
0.039116758
0.23073678
0.31539657
0.33734943
0.3227297
0.29157855
0.25529141
0.21985491
0.18832921
0.16204964
0.14135923
0.12593138
0.11517776
0.10816917
0.10423608
0.10234986
0.10220704
0.10280267
0.10427506
0.10574179
-0.066627108
0.019109105
-0.14312673
-0.13284009
-0.14727631
-0.17850948
-0.22856128
-0.21519263
-0.18556997
-0.250166
-0.46384616
-0.8676517
-1.4780674
-2.4420199
-3.172154
-3.209345
-2.5933356
-1.7642495
-1.0122781
-0.42801295
-0.028318967
0.20784242
0.32166925
0.36072115
0.35416567
0.32419534
0.28576607
0.24655283
0.21058888
0.17981888
0.15492822
0.13586308
0.12204866
0.11275
0.10696124
0.10399265
0.10282159
0.10318082
0.10409255
0.10573505
0.10726457
-0.12008734
-0.042694649
0.03094659
-0.11813861
-0.15243586
-0.21175973
-0.27450293
-0.2498948
-0.19519479
-0.2311435
-0.40371276
-0.75376347
-1.3252573
-2.1855393
-2.8770548
-2.9922641
-2.4977851
-1.8015069
-1.1262752
-0.54849503
-0.11756279
0.16296522
0.31305912
0.37400645
0.38027242
0.35463955
0.3158046
0.27384292
0.23399115
0.19892734
0.16982812
0.14691827
0.12985605
0.11788636
0.11017491
0.10567409
0.10369924
0.10325143
0.10411134
0.10533445
0.10714488
0.10873654
-0.10149505
-0.09560848
-0.020151721
0.041045393
-0.15204752
-0.24226191
-0.3190866
-0.28551723
-0.20734054
-0.21546161
-0.35002023
-0.63758909
-1.1393487
-1.9330163
-2.5738488
-2.740483
-2.3635091
-1.8014986
-1.2283999
-0.67876495
-0.22861018
0.093560987
0.28523536
0.37408376
0.39774965
0.38067664
0.3437853
0.30054947
0.25768971
0.21880905
0.18566102
0.15888726
0.13837882
0.12358031
0.11360565
0.10755758
0.1043749
0.10339816
0.10366581
0.10501526
0.10653948
0.1085126
0.11016372
-0.14765099
-0.083002492
-0.070854674
0.00073943131
0.049108669
-0.26781903
-0.35915529
-0.32111538
-0.21878777
-0.20143774
-0.30098868
-0.53003432
-0.95922941
-1.6509276
-2.2806687
-2.490183
-2.2166587
-1.7831667
-1.3210923
-0.81834295
-0.36182455
-0.0023027471
0.23417346
0.35777084
0.4035359
0.39970112
0.36789109
0.32529358
0.28067306
0.23872808
0.20193221
0.17141034
0.14741928
0.12959926
0.1172317
0.10933633
0.10498205
0.10311687
0.10312246
0.10408509
0.10590561
0.10771652
0.10984473
0.11155104
-0.28627715
-0.14017341
-0.063547753
-0.0468877
0.019296921
0.054765246
-0.39145129
-0.35254963
-0.22791495
-0.18953399
-0.25500371
-0.42980731
-0.7870146
-1.3833936
-1.9698412
-2.2442139
-2.0810685
-1.7561813
-1.4036161
-0.96632456
-0.51829287
-0.12702444
0.15608173
0.3213726
0.39505559
0.40902089
0.38619533
0.34658422
0.30180582
0.25783808
0.21801993
0.18406792
0.15665898
0.13575957
0.1208108
0.11096649
0.10518124
0.10251404
0.10194088
0.102897
0.10452467
0.10679257
0.10887272
0.11114629
0.11290234
-0.41364033
-0.29682901
-0.13030261
-0.044712029
-0.024364283
0.034634449
0.057640211
-0.376153
-0.23628979
-0.17934523
-0.21184127
-0.33835268
-0.62332308
-1.1244578
-1.6750467
-1.9777955
-1.9477979
-1.726285
-1.474733
-1.1201721
-0.70027434
-0.28443924
0.046548837
0.26069643
0.36970273
0.40621865
0.39665608
0.362889
0.31989038
0.27522278
0.23324263
0.19635417
0.16575343
0.14178337
0.12417261
0.11219631
0.10490748
0.10122003
0.1002034
0.10087709
0.10274002
0.10499628
0.10768417
0.11001315
0.11242056
0.11422066
-0.39046832
-0.42487826
-0.29961877
-0.1185406
-0.027432646
-0.0042007895
0.046156058
0.058219821
-0.24409726
-0.16729783
-0.17088652
-0.25531724
-0.47444382
-0.88625942
-1.3786473
-1.7271036
-1.7942017
-1.6918324
-1.5395107
-1.276282
-0.90895444
-0.48167436
-0.10074706
0.17067384
0.32418516
0.38900994
0.39709815
0.37254884
0.33360282
0.2898887
0.24686351
0.20773787
0.17431026
0.14739792
0.1270763
0.11286585
0.10389862
0.099149057
0.097512448
0.098086244
0.099946961
0.10266495
0.10550879
0.10858545
0.11114038
0.11366955
0.11550829
-0.24857241
-0.39509998
-0.42485648
-0.29577506
-0.10579573
-0.011918609
0.01302668
0.054044707
0.056992371
-0.15342206
-0.13176627
-0.17991234
-0.34256936
-0.67254058
-1.10135
-1.4622122
-1.6298334
-1.6456603
-1.6030853
-1.4358337
-1.1399104
-0.72666334
-0.29594031
0.044118459
0.25459286
0.35498108
0.38555111
0.37402706
0.34166657
0.30081733
0.25809402
0.21764297
0.18193391
0.15231509
0.12931343
0.11276544
0.10200074
0.096027044
0.093761573
0.094101297
0.096187637
0.099165602
0.10268136
0.10606701
0.10949734
0.11225534
0.11489593
0.11676724
-0.13765694
-0.24805688
-0.38994902
-0.41463957
-0.28626623
-0.092890379
0.001535275
0.026974389
0.058680467
0.054497001
-0.09404488
-0.11254802
-0.227035
-0.48484812
-0.84979519
-1.2042383
-1.4402519
-1.5764623
-1.6513441
-1.6074029
-1.3888611
-1.0177595
-0.55112047
-0.12922229
0.15578994
0.30313873
0.36087586
0.36603256
0.34305942
0.30708849
0.26622775
0.22553851
0.18821824
0.15626411
0.13068818
0.11173964
0.099027716
0.091701027
0.08866306
0.088795198
0.091015582
0.094524263
0.098542894
0.1027934
0.10667011
0.11041865
0.11336086
0.1161046
0.11799918
-0.057492201
-0.11907649
-0.24146285
-0.3758476
-0.3955641
-0.27231572
-0.080448741
0.01256505
0.037580367
0.060660748
0.051304777
-0.052909884
-0.12742658
-0.32333861
-0.62747025
-0.96138653
-1.2434949
-1.4734282
-1.6596456
-1.7846146
-1.6727675
-1.3449275
-0.87087249
-0.36220719
0.024931126
0.22887497
0.32102257
0.34738857
0.33686048
0.30796334
0.27061417
0.23090779
0.19283709
0.15900908
0.13104193
0.10967282
0.094863855
0.086000128
0.082059704
0.081865103
0.084283452
0.088273501
0.093105823
0.098081911
0.10299787
0.10731448
0.11135322
0.11446402
0.11729913
0.11920526
-0.00015919525
-0.023190172
-0.09895053
-0.22847208
-0.35402234
-0.3693459
-0.25508728
-0.068985845
0.021001637
0.044807228
0.06041639
0.047754084
-0.04302705
-0.18761087
-0.43615033
-0.74103728
-1.0453034
-1.3442799
-1.6372504
-1.8987146
-2.0155299
-1.7294874
-1.2516441
-0.66522629
-0.14975648
0.13122383
0.26505682
0.3169779
0.32218466
0.3026526
0.27064482
0.2332942
0.19545939
0.16038632
0.13029865
0.10650398
0.089458731
0.078834117
0.07378717
0.073144792
0.075672323
0.080246112
0.085884007
0.091933767
0.097776912
0.10328819
0.10800394
0.11231389
0.11556914
0.11847298
0.12044301
0.027423333
0.046329934
0.008563139
-0.077102106
-0.20967646
-0.32588245
-0.33787874
-0.2359245
-0.058976566
0.026774347
0.048888849
0.058955632
0.043608991
-0.076637593
-0.27584636
-0.54706065
-0.85492035
-1.1981792
-1.5802563
-1.9898692
-2.2834795
-2.2498019
-1.6973175
-1.0548807
-0.36790752
0.0077538826
0.19205012
0.27402874
0.29823825
0.29055288
0.26573795
0.23229277
0.19580375
0.16024479
0.12842791
0.10228602
0.082830588
0.070197591
0.063764149
0.062467484
0.065002609
0.070106693
0.076691043
0.083846497
0.090999925
0.097618261
0.1036678
0.10875484
0.1133064
0.1166632
0.1196684
0.12174164
0.013031305
0.085763041
0.086446297
0.038291599
-0.053909218
-0.18614914
-0.29300904
-0.30308812
-0.21611492
-0.050532422
0.030324243
0.050810202
0.056916137
0.039459805
-0.14488672
-0.38117434
-0.67875322
-1.0436542
-1.4918347
-2.0343134
-2.5497643
-2.7113402
-2.3181932
-1.3347861
-0.63532202
-0.14202738
0.10155258
0.218165
0.26456529
0.27113322
0.25550101
0.22748762
0.19365502
0.15849153
0.1254601
0.097119523
0.0751318
0.060171502
0.052019983
0.049755666
0.05209609
0.057658576
0.065174925
0.073615529
0.082151035
0.090291834
0.097607273
0.10415636
0.10957359
0.11429918
0.11778793
0.12093237
0.12306598
-0.040112467
0.084612615
0.13314723
0.12095515
0.06577066
-0.029973343
-0.1593364
-0.25693018
-0.26669456
-0.19584343
-0.043241237
0.033027786
0.050819658
0.054036667
0.035563079
-0.2430838
-0.52112569
-0.88887487
-1.3777507
-2.0343437
-2.783955
-3.2065997
-3.0005942
-1.9504015
-0.93823308
-0.3186609
-0.0064353601
0.14957333
0.22093448
0.24415452
0.23948434
0.21862992
0.18874829
0.15507929
0.12148452
0.091196609
0.066580239
0.04897834
0.038662669
0.035025485
0.036866566
0.042705865
0.051119165
0.060872844
0.07100919
0.080783019
0.089806629
0.097762632
0.10475966
0.1104156
0.11532935
0.11902527
0.12223036
0.12441648
-0.13038747
0.043170105
0.14055854
0.17142947
0.15020098
0.090713609
-0.0060360216
-0.13090911
-0.21891174
-0.22997666
-0.17483293
-0.035950823
0.034925439
0.049708506
0.050163957
0.03179366
-0.38423818
-0.74063977
-1.2497844
-1.9991964
-2.9804092
-3.7033715
-3.7872286
-2.6946667
-1.3737556
-0.51925905
-0.13029727
0.068409879
0.16773506
0.20935213
0.21757062
0.20529675
0.18094983
0.14991055
0.11662881
0.084782378
0.057507699
0.03692674
0.023968372
0.018434206
0.019317503
0.025144706
0.034306066
0.045380421
0.05719274
0.068857257
0.079731994
0.089556672
0.098087507
0.10541665
0.11134315
0.11653293
0.12030166
0.12356424
0.12579328
-0.2678283
-0.03876301
0.10766446
0.18391438
0.20175586
0.17448659
0.11289088
0.017211425
-0.10279387
-0.1800065
-0.19314838
-0.15556286
-0.027803947
0.035862741
0.047648941
0.046038478
0.027939786
-0.60457068
-1.1193301
-1.9257314
-3.1139724
-4.1846449
-4.6269203
-3.6665687
-1.9940534
-0.78982998
-0.27119882
-0.023117191
0.10500129
0.16717989
0.18935811
0.18742686
0.169871
0.14297083
0.11098745
0.078187867
0.048337859
0.024460329
0.008299975
0.00025461648
-0.00039384993
0.0049524524
0.014606667
0.026896403
0.040441586
0.054122551
0.067139461
0.07899529
0.089539792
0.098513388
0.10623716
0.1125378
0.11778378
0.12162465
0.12493336
0.12719648
-0.48382454
-0.16920078
0.033412371
0.15708517
0.21673477
0.22523138
0.19418589
0.13221937
0.038970795
-0.076694568
-0.14036782
-0.16142391
-0.1353601
-0.020340867
0.035949146
0.045038306
0.041751402
0.023957507
-0.99396006
-1.8293675
-3.1665564
-4.5986606
-5.4917742
-4.7142192
-2.7826551
-1.173695
-0.45035416
-0.12680169
0.03493414
0.11728707
0.15534384
0.16441425
0.15547491
0.1339548
0.10469637
0.071720438
0.039563254
0.01213324
-0.0078222447
-0.019122006
-0.022007795
-0.01773443
-0.0080424939
0.0052590167
0.020489419
0.036298266
0.051626814
0.065825642
0.078561943
0.08968935
0.099249911
0.10744372
0.11378419
0.11909695
0.12299023
0.12633733
0.12862609
-0.87373643
-0.37744197
-0.089127786
0.089599301
0.19401845
0.24089959
0.24276731
0.20965358
0.14842527
0.058996986
-0.054520826
-0.10621531
-0.1310121
-0.11427005
-0.01353147
0.035375684
0.042251169
0.037755755
0.020118643
-1.7224333
-3.095137
-4.8944574
-6.2964599
-5.8287784
-3.7572858
-1.6991236
-0.70724281
-0.25075123
-0.044502385
0.061931537
0.1145821
0.13677421
0.13696581
0.12285839
0.097615366
0.065711742
0.03171121
0.00059849387
-0.023753127
-0.039140575
-0.045137051
-0.042689303
-0.03353554
-0.019640183
-0.0028637475
0.015094729
0.032895975
0.049634072
0.06488649
0.07838491
0.090375259
0.10052088
0.10870929
0.11510723
0.12046526
0.12439799
0.12777533
0.13008185
-1.5925327
-0.75616758
-0.28883723
-0.02526484
0.13204315
0.22065427
0.25775468
0.25508453
0.22116545
0.16203736
0.076348141
-0.038469756
-0.076626911
-0.10343978
-0.092171788
-0.0074109585
0.034355203
0.039465893
0.034217702
0.016403201
-2.9418002
-5.0489408
-6.9534909
-6.9077488
-4.8580356
-2.3686277
-1.0345377
-0.43095456
-0.13395053
-0.0020005898
0.069716982
0.1028246
0.11481786
0.10881106
0.089828422
0.060270039
0.025342698
-0.0094173062
-0.038721337
-0.059111128
-0.06923481
-0.069557767
-0.061698099
-0.047738145
-0.029768509
-0.0097246232
0.010633901
0.030103178
0.048094154
0.064324079
0.079084376
0.091767001
0.10185625
0.11006845
0.11649574
0.12188805
0.12584647
0.12924663
0.13156312
-2.7860307
-1.4383494
-0.65083795
-0.2165403
0.023686411
0.16282377
0.23882607
0.26882452
0.26336193
0.22971931
0.17218626
0.088543889
-0.023728572
-0.053295565
-0.079157629
-0.071833675
-0.0016904498
0.033007823
0.036717012
0.031458238
0.012643687
-5.0693654
-7.383383
-7.8392323
-5.9479584
-3.1518172
-1.4508775
-0.65251956
-0.26607422
-0.069151359
0.015668131
0.06578489
0.086648122
0.092178642
0.080577427
0.055658342
0.020869936
-0.017121986
-0.051848579
-0.078200727
-0.093614853
-0.097838911
-0.092232581
-0.078927619
-0.060217726
-0.038350703
-0.015427695
0.0068954071
0.027839073
0.047088291
0.065134197
0.080687294
0.09323447
0.10329831
0.11150623
0.11794968
0.12336247
0.12733399
0.13075063
0.13306925
-4.9727346
-2.6089761
-1.2908595
-0.56060947
-0.16012024
0.059576395
0.18408275
0.25075396
0.27569511
0.268019
0.23442763
0.1784349
0.094537125
-0.0053820441
-0.03553425
-0.056990639
-0.053107289
0.0033806664
0.031478768
0.034102121
0.029636722
0.0091687273
-7.5326851
-8.4940299
-6.9338239
-4.0398068
-1.9506586
-0.92145709
-0.4271268
-0.17091032
-0.036007572
0.017980355
0.05612803
0.070178266
0.070106814
0.051420377
0.018835859
-0.02179273
-0.062153737
-0.095447235
-0.11744406
-0.12689431
-0.12471486
-0.11298392
-0.094177107
-0.07085187
-0.045507515
-0.020289602
0.0037599519
0.026309932
0.048114435
0.067064002
0.082385938
0.094824955
0.10483099
0.11302296
0.11946554
0.12488646
0.12885801
0.13228612
0.13459999
-7.3921535
-4.7503404
-2.4113015
-1.1610266
-0.48669157
-0.11779379
0.084634942
0.19809661
0.25746866
0.27755716
0.26825006
0.2365761
0.17784672
0.10017151
0.013358493
-0.019542241
-0.037871614
-0.036036484
0.0074853228
0.029994431
0.031698268
0.028363659
0.0068561882
-8.7755674
-7.6747479
-4.8928449
-2.5053173
-1.2397964
-0.6171914
-0.29398224
-0.11922327
-0.022680391
0.012919817
0.046480566
0.055764452
0.04775268
0.019218816
-0.022546273
-0.068657265
-0.10976013
-0.13975287
-0.15594843
-0.15858935
-0.14958139
-0.13150785
-0.10724307
-0.079794599
-0.05168175
-0.024488464
0.0016093858
0.027696576
0.050481626
0.069077435
0.084198815
0.096527473
0.10645657
0.1146142
0.12104057
0.12645778
0.1304157
0.13385128
0.13615538
-8.6455152
-6.9947653
-4.4051049
-2.2127111
-1.0478129
-0.42775972
-0.087312247
0.10101165
0.20529085
0.25752334
0.274676
0.26827285
0.23272007
0.17676993
0.10450837
0.027882218
-0.0049397026
-0.021719201
-0.020486491
0.010987036
0.028694933
0.029514087
0.026518638
0.0055429279
-8.0367564
-5.5643578
-3.0478743
-1.5946398
-0.83683567
-0.43801426
-0.21777702
-0.096054262
-0.019854221
0.0089679558
0.040635039
0.042679072
0.022347672
-0.018938951
-0.070159989
-0.12000303
-0.159437
-0.18409583
-0.19318409
-0.18827271
-0.17199123
-0.14749165
-0.11830072
-0.087616079
-0.057111876
-0.027388263
0.0035175584
0.030658585
0.052996576
0.071186191
0.086107261
0.098318019
0.1081676
0.11627671
0.12267124
0.12807309
0.13200669
0.13544371
0.13773456
-7.9531836
-8.1477537
-6.3843267
-3.9822345
-2.0154509
-0.94841218
-0.38182375
-0.066863786
0.1089062
0.20421024
0.25260609
0.27473317
0.26289216
0.22880684
0.17412726
0.10734208
0.039836158
0.0076538514
-0.0082478523
-0.0073585256
0.014404484
0.027628826
0.027474463
0.024074447
0.0045443216
-5.9297786
-3.4871289
-1.953397
-1.0774151
-0.60409387
-0.33227173
-0.18005162
-0.090199558
-0.017114364
0.012700193
0.038194881
0.027297657
-0.010275624
-0.065842317
-0.12476864
-0.17531915
-0.21031035
-0.22771667
-0.22851982
-0.21530426
-0.19148374
-0.16111566
-0.12809849
-0.094598248
-0.060904468
-0.024772912
0.0072513784
0.033823846
0.0556111
0.073492363
0.088157359
0.10019722
0.10996046
0.11800654
0.12435309
0.12973061
0.13363245
0.13706075
0.13933647
-5.9493048
-7.4867032
-7.3583765
-5.6578538
-3.5273312
-1.8216535
-0.86269911
-0.34810017
-0.056217522
0.107438
0.1979003
0.25387387
0.26920154
0.25696753
0.22070307
0.17018848
0.10871046
0.049560452
0.018201148
0.0031742555
0.0031288445
0.017570617
0.026800964
0.02557128
0.021879495
0.0035461215
-3.7624079
-2.2797587
-1.3193203
-0.78550919
-0.46581227
-0.27680266
-0.16848853
-0.088124179
-0.004868658
0.024509565
0.034801101
0.0036421582
-0.054498319
-0.12303468
-0.18594007
-0.23348288
-0.26131214
-0.26970221
-0.26105717
-0.23902454
-0.2082292
-0.1733211
-0.13699936
-0.099455934
-0.057438715
-0.020066737
0.011265855
0.0370618
0.058357463
0.075932251
0.090341994
0.10218338
0.11183198
0.11979854
0.12608701
0.13142775
0.13528852
0.13870059
0.14096
-3.9005482
-5.6640231
-6.7339715
-6.4058377
-4.8951015
-3.0967198
-1.6373582
-0.79350512
-0.32604012
-0.054515911
0.10094137
0.20145741
0.24958136
0.2631002
0.24863195
0.21334983
0.16490574
0.10875028
0.057019862
0.02700484
0.012620334
0.011396377
0.020348301
0.02615325
0.023873465
0.02013937
0.0027123618
-2.4997317
-1.5344475
-0.96872631
-0.61271348
-0.39181336
-0.25893158
-0.16877301
-0.073133864
0.019301105
0.038946626
0.022591655
-0.03512162
-0.11313186
-0.19027289
-0.2522622
-0.29301947
-0.31114126
-0.30880676
-0.28987274
-0.25956716
-0.22338187
-0.18456597
-0.14324524
-0.094905404
-0.05157054
-0.014978379
0.015305175
0.040434741
0.061230893
0.078436873
0.092609476
0.10425965
0.11377692
0.12165527
0.12787301
0.13315726
0.13697184
0.1403612
0.14260407
-2.5623898
-3.8704145
-5.1229016
-5.8188785
-5.4031445
-4.1584694
-2.6954288
-1.4738303
-0.74022247
-0.31066558
-0.05662238
0.10865705
0.20019354
0.24484875
0.25444117
0.2388191
0.20433415
0.15848312
0.10746785
0.062062838
0.034057964
0.020280983
0.017831593
0.022654347
0.02561775
0.022413856
0.01864795
0.002091067
-1.6947522
-1.1357291
-0.76214859
-0.51952229
-0.36855508
-0.26571551
-0.15705177
-0.036365819
0.050859663
0.04548145
-0.0083065382
-0.093781312
-0.18633418
-0.26576617
-0.32173247
-0.35210834
-0.35808306
-0.34375622
-0.31502535
-0.27831889
-0.23750378
-0.19253829
-0.13746024
-0.087622852
-0.045176429
-0.0099320775
0.01948211
0.043935812
0.06423052
0.081067181
0.094967935
0.10642129
0.11580294
0.12357409
0.12970027
0.13491596
0.13867886
0.14204056
0.14426739
-1.7792956
-2.5133368
-3.5738565
-4.4387368
-4.8559292
-4.4386983
-3.4705992
-2.3195745
-1.3348286
-0.68969357
-0.2969214
-0.040618272
0.11379563
0.19880755
0.23730563
0.24408219
0.22737363
0.19404125
0.15101699
0.10504707
0.06514723
0.039436711
0.026322051
0.022732745
0.024451317
0.02513588
0.021137548
0.017318222
0.0016763007
-1.2666908
-0.90153348
-0.65020173
-0.49385276
-0.38877428
-0.2685021
-0.11526257
0.019693664
0.078989124
0.029344077
-0.065361133
-0.1731569
-0.27189372
-0.3467938
-0.39183538
-0.40840682
-0.4003979
-0.37448204
-0.33814928
-0.2959613
-0.2476296
-0.18537531
-0.12852363
-0.079643029
-0.03890469
-0.0047457467
0.023785003
0.047573916
0.067363867
0.08381215
0.097410527
0.10868298
0.11790607
0.12554044
0.13156423
0.13669974
0.14040609
0.14373642
0.14594799
-1.3452675
-1.7782017
-2.3622083
-3.1064626
-3.714414
-3.9407375
-3.572105
-2.8522556
-1.9873383
-1.199149
-0.63625108
-0.26479796
-0.021576473
0.11905679
0.19443081
0.22803657
0.2319784
0.21465268
0.18268599
0.1428199
0.10163791
0.066600219
0.043332418
0.030886893
0.026334773
0.02572392
0.02463224
0.020006642
0.016061501
0.0014453607
-1.0152081
-0.77385028
-0.62535839
-0.54159986
-0.42765435
-0.23147685
-0.045247654
0.086233893
0.08361552
-0.021644251
-0.15047918
-0.27042001
-0.36620094
-0.42991598
-0.45937191
-0.45955113
-0.43782554
-0.4028766
-0.36006369
-0.3087668
-0.23895806
-0.17454496
-0.11866924
-0.07189262
-0.03248592
0.00055989678
0.028232281
0.051348401
0.070620358
0.086668688
0.099982931
0.11103664
0.12006667
0.12754946
0.13345913
0.13850432
0.14215095
0.14544621
0.14764347
-1.0874959
-1.3636466
-1.7058028
-2.1163103
-2.6176747
-3.0260839
-3.1406573
-2.8563242
-2.3360806
-1.7014556
-1.057626
-0.5726229
-0.21858062
-0.0032783588
0.12123244
0.18836172
0.21694105
0.21851948
0.20089239
0.17060962
0.13405593
0.097435064
0.066722953
0.045893734
0.034116585
0.028804125
0.026492732
0.024044179
0.018957746
0.014840582
0.0013520981
-0.87529357
-0.75405027
-0.71348738
-0.62237355
-0.4010319
-0.15333448
0.0533335
0.13799453
0.046193297
-0.11144566
-0.26009799
-0.38069112
-0.46468278
-0.51081218
-0.52110825
-0.50500106
-0.47252965
-0.42991931
-0.37616503
-0.29848651
-0.22597911
-0.16251953
-0.10916884
-0.063987908
-0.025955071
0.0060155872
0.032823727
0.05525879
0.074004543
0.089676555
0.10267881
0.11345778
0.12227852