/*--------------------------------*- C++ -*----------------------------------*\
| =========                 |                                                 |
| \\      /  F ield         | OpenFOAM: The Open Source CFD Toolbox           |
|  \\    /   O peration     | Version:  v2012                                 |
|   \\  /    A nd           | Website:  www.openfoam.com                      |
|    \\/     M anipulation  |                                                 |
\*---------------------------------------------------------------------------*/
FoamFile
{
    version     2.0;
    format      ascii;
    class       surfaceScalarField;
    location    "104.868788511957604";
    object      phi;
}
// * * * * * * * * * * * * * * * * * * * * * * * * * * * * * * * * * * * * * //

dimensions      [0 3 -1 0 0 0 0];
oriented        oriented;


internalField   nonuniform List<scalar> 
18180
(
-0.00040192282
-3.6256151
-0.0010593068
-3.3882925
0.0018900634
-3.6882886
-0.0020460561
-3.1661751
0.0036419771
-3.4456704
0.0029125559
-3.7470984
-0.0035371172
-2.9576115
0.005224835
-3.2178453
0.0058777224
-3.499611
0.0038167825
-3.8043168
-0.0056939422
-2.7624854
0.0066297314
-3.0049844
0.008758278
-3.2674059
0.00783382
-3.5532381
0.0043375586
-3.860073
-0.0086152879
-2.5799417
0.0077291914
-2.8064438
0.011671849
-3.0507967
0.0119371
-3.3172953
0.0089884281
-3.6065328
0.0044974618
-3.9144122
-0.012396068
-2.4088993
0.0084712633
-2.6209029
0.014503045
-2.8491253
0.016342345
-3.0974652
0.0139502
-3.368015
0.0094100294
-3.6588041
0.0042957047
-3.9658528
-0.017043191
-2.2485993
0.0087672762
-2.4472388
0.017181244
-2.6611517
0.020971516
-2.8930091
0.019511076
-3.1458406
0.014879839
-3.4188206
0.0090937414
-3.7087647
0.0037541153
-4.0138982
-0.022499085
-2.0983033
0.0085980098
-2.284512
0.019561352
-2.4852709
0.02575156
-2.7027337
0.025658651
-2.9391596
0.021267333
-3.1952882
0.014686453
-3.4679298
0.0080774222
-3.7554473
0.0029049172
-4.0577645
-0.028598529
-1.9574266
0.0079738715
-2.1319337
0.021502577
-2.320386
0.030499736
-2.5247687
0.032352331
-2.7466589
0.028657116
-2.9869493
0.021505216
-3.2438544
0.013391555
-3.5141823
0.0064236213
-3.7982277
0.0017792642
-4.0976509
-0.035058942
-1.8254553
0.0069894985
-1.9889422
0.022862314
-2.1656061
0.034982338
-2.3578362
0.03941253
-2.5666635
0.037086506
-2.7929499
0.0297517
-3.0349112
0.020189742
-3.2900409
0.011051166
-3.5567471
0.004219988
-3.8370627
0.00041743187
-4.1330185
-0.041436769
-1.7019588
0.0058086886
-1.8550735
0.023513255
-2.0203369
0.038909659
-2.200906
0.04656939
-2.3978005
0.046441688
-2.6113809
0.03957954
-2.8400266
0.028793385
-3.080972
0.017335859
-3.3328847
0.0077798182
-3.595431
0.0015871008
-3.8716086
-0.00099147865
-4.1641318
-0.047073003
-1.5865797
0.0046519545
-1.7299426
0.023359688
-1.8841393
0.041951274
-2.053264
0.053450848
-2.2387405
0.056499391
-2.440815
0.051001573
-2.6574552
0.039496345
-2.8858847
0.025694381
-3.1241377
0.013054376
-3.3719805
0.0037672394
-3.6297964
-0.0012899876
-3.9018864
-0.0024105575
-4.1908522
-0.051097468
-1.4790188
0.0037539606
-1.6132148
0.022351191
-1.7566808
0.043750693
-1.9144183
0.059599685
-2.0886794
0.066904507
-2.2799871
0.063920638
-2.4860093
0.052480788
-2.7032276
0.036560851
-2.9296196
0.020507619
-3.164047
0.0075690234
-3.4069017
-0.00073362653
-3.6597975
-0.0043022193
-3.9277972
-0.0037978255
-4.2137764
-0.0528818
-1.3787491
0.0033086928
-1.5045513
0.020499171
-1.6376949
0.043939179
-1.7840164
0.064488358
-1.9470036
0.077184658
-2.127897
0.078096727
-2.3243265
0.067840554
-2.5319585
0.050302893
-2.7478548
0.030687201
-2.9706902
0.01346534
-3.1998901
0.0012185777
-3.4373001
-0.0054600244
-3.6854177
-0.0072169327
-3.9497967
-0.0050745725
-4.2328687
-0.052275704
-1.2850204
0.0038465808
-1.4037682
0.017912982
-1.526944
0.042149959
-1.66179
0.067541845
-1.8132977
0.086760555
-1.9837709
0.093152843
-2.1712193
0.085538042
-2.3705673
0.067246287
-2.5776389
0.044129752
-2.7903594
0.022056132
-3.0079719
0.0049894866
-3.2311711
-0.0055835552
-3.4631022
-0.010124537
-3.7069274
-0.0099008235
-3.9679697
-0.0061856354
-4.2487146
-0.049126284
-1.197028
0.0066445846
-1.3108703
0.01464663
-1.4241893
0.038016667
-1.5475014
0.06816159
-1.6872475
0.0949718
-1.8470596
0.10857413
-2.0257296
0.10539385
-2.2177537
0.08762323
-2.417626
0.061393918
-2.6221272
0.03399401
-2.8296097
0.011145155
-3.0405911
-0.0043234104
-3.2575377
-0.012419634
-3.4843873
-0.014462938
-3.7244433
-0.012242041
-3.98282
-0.0070951667
-4.2614241
-0.041762479
-1.1164279
0.01305874
-1.2251385
0.010543142
-1.3292314
0.031189323
-1.4409154
0.065757412
-1.5686102
0.10110844
-1.717373
0.12372798
-1.8871336
0.12706687
-2.0723824
0.11154862
-2.2664763
0.08301371
-2.4645129
0.050016846
-2.6637276
0.020373075
-2.8640047
-0.0012370362
-3.0678783
-0.013881116
-3.2789094
-0.018837139
-3.5013195
-0.018267055
-3.738427
-0.014165557
-3.9946087
-0.0077919703
-4.2717136
-0.028746911
-1.0420502
0.022714588
-1.1465011
0.0062554909
-1.2421626
0.021288274
-1.3417943
0.059777634
-1.4571843
0.1044587
-1.594454
0.13789527
-1.754931
0.15005383
-1.9335211
0.1389797
-2.1228203
0.10947051
-2.3161894
0.070936479
-2.5090839
0.033472022
-2.7004552
0.0042163787
-2.8925428
-0.014263947
-3.0895202
-0.02297929
-3.2953785
-0.024497551
-3.5143362
-0.021398657
-3.749263
-0.01563709
-4.0039247
-0.0082784739
-4.2796526
-0.0096955701
-0.97333797
0.035775534
-1.0743257
0.00076065852
-1.1612371
0.0080506824
-1.2503409
0.049693098
-1.3527523
0.10432826
-1.4781223
0.15031064
-1.6288079
0.17369833
-1.8004934
0.1696827
-1.9855682
0.14114164
-2.175893
0.097613307
-2.3646356
0.051427646
-2.5489377
0.012827555
-2.7307581
-0.013162261
-2.9146994
-0.026863696
-3.1055409
-0.031063962
-3.3074143
-0.029165841
-3.5239533
-0.023791146
-3.7574938
-0.016657532
-4.0109734
-0.0085667636
-4.2858226
0.014864734
-0.90971416
0.052442211
-1.0080881
-0.0056559303
-1.0871263
-0.0086159298
-1.1649756
0.034582987
-1.2551206
0.10006149
-1.3681926
0.16016192
-1.5085323
0.19717886
-1.6728068
0.20319105
-1.8537878
0.17823596
-2.0423538
0.1309072
-2.2291731
0.075394045
-2.4087044
0.025542483
-2.5817252
-0.010099834
-2.7536543
-0.030381858
-2.9302486
-0.038159606
-3.1164147
-0.037743985
-3.3156185
-0.03272246
-3.5307251
-0.025441178
-3.7634603
-0.017255347
-4.0162595
-0.0086777874
-4.2902806
0.043601741
-0.8503283
0.072717735
-0.94700613
-0.012695694
-1.0193101
-0.029100913
-1.0860633
0.014667753
-1.1638432
0.091026894
-1.2644997
0.16669494
-1.3939767
0.21953571
-1.5500849
0.23872423
-1.7266657
0.22069068
-1.914366
0.17160539
-2.1014154
0.10665747
-2.2788642
0.043588672
-2.4451703
-0.0043753186
-2.6059341
-0.033372947
-2.7688351
-0.045960862
-2.9397827
-0.047508049
-3.122881
-0.042812182
-3.3206632
-0.035153797
-3.5351503
-0.026394929
-3.7676414
-0.017477349
-4.019987
-0.0086377282
-4.2935904
0.074493821
-0.793979
0.096001411
-0.8896209
-0.020025301
-0.95703399
-0.053600208
-1.0132767
-0.010349869
-1.0787692
0.077052
-1.1670573
0.16948124
-1.2852953
0.24000764
-1.4323984
0.27542772
-1.6037392
0.2681591
-1.7908181
0.22032214
-1.9800003
0.14660453
-2.1583235
0.068402644
-2.3206169
0.0048674093
-2.4715664
-0.035572458
-2.6209083
-0.054679161
-2.776736
-0.058871189
-2.9440839
-0.0545587
-3.125765
-0.046234683
-3.3231976
-0.03652959
-3.5377468
-0.026731659
-3.7703708
-0.017380776
-4.0225896
-0.0084742941
-4.2957305
0.10612804
-0.73957401
0.12151573
-0.83454878
-0.027334916
-0.89881104
-0.082219854
-0.94595099
-0.040712481
-0.99962073
0.05803904
-1.0757914
0.16839537
-1.1828062
0.25821442
-1.3202768
0.31278758
-1.4854142
0.32052912
-1.6714663
0.27781358
-1.8639353
0.19683705
-2.0459196
0.10177975
-2.2073516
0.018906609
-2.3505084
-0.036556924
-2.4866658
-0.064537783
-2.6268891
-0.072354986
-2.7783198
-0.068531541
-2.9442626
-0.059242348
-3.1259348
-0.048114392
-3.3238769
-0.036974787
-3.5389767
-0.026548709
-3.7720133
-0.017025976
-4.0241625
-0.0082147039
-4.2971183
0.13738554
-0.68795129
0.14837749
-0.78058772
-0.033362402
-0.84420384
-0.11470559
-0.8829592
-0.076556412
-0.92583627
0.03400399
-0.99053477
0.16351567
-1.0866359
0.27380903
-1.2140694
0.34997836
-1.3719107
0.37737245
-1.5563886
0.34499656
-1.7531238
0.25971653
-1.9413897
0.1464043
-2.1050846
0.039437795
-2.2426163
-0.035834568
-2.3663394
-0.07580723
-2.4904519
-0.088599408
-2.6250733
-0.085447703
-2.7750526
-0.074814093
-2.9414578
-0.061711526
-3.1242281
-0.048643601
-3.3232598
-0.036643692
-3.5391942
-0.02594889
-3.7727723
-0.016471804
-4.0250231
-0.0078839439
-4.2977082
0.16694261
-0.63929405
0.17540373
-0.72827259
-0.038009779
-0.79084046
-0.15039856
-0.82426914
-0.1178155
-0.85648948
0.0051775801
-0.91094305
0.15501513
-0.99671672
0.28632363
-1.1137817
0.38528014
-1.262685
0.43609026
-1.4436278
0.42006137
-1.6448955
0.3360991
-1.8430993
0.20567695
-2.0142449
0.069561278
-2.1489988
-0.032359637
-2.2602663
-0.088823896
-2.3675141
-0.10841895
-2.4843447
-0.10619636
-2.6174006
-0.09373665
-2.768481
-0.077949274
-2.936793
-0.062261032
-3.1213439
-0.048060413
-3.3217741
-0.035698588
-3.5386936
-0.025031656
-3.7728995
-0.015771971
-4.0252468
-0.007504027
-4.2978876
0.19381354
-0.59273201
0.20040783
-0.67678162
-0.045402476
-0.73502835
-0.18819547
-0.76795467
-0.16486564
-0.79110921
-0.027900133
-0.83639592
0.1432599
-0.91289249
0.2954121
-1.0194687
0.41682658
-1.1575988
0.4927273
-1.3312795
0.49750802
-1.533588
0.42093412
-1.7424486
0.27828693
-1.9284346
0.11167104
-2.0692946
-0.023937877
-2.1707093
-0.10357632
-2.2588407
-0.13283011
-2.3560485
-0.13189381
-2.4710706
-0.11696777
-2.6060423
-0.09757905
-2.7600887
-0.078390683
-2.9311214
-0.061254699
-3.1178109
-0.046613378
-3.3197701
-0.03429505
-3.5377014
-0.023887186
-3.7725529
-0.014973423
-4.0250799
-0.0070935692
-4.297589
0.2176922
-0.54848954
0.2225783
-0.62661956
-0.056991965
-0.67861719
-0.22813523
-0.70918216
-0.2164916
-0.72935942
-0.064739755
-0.76636656
0.12903577
-0.83495877
0.30112566
-0.93136597
0.44334738
-1.0573027
0.54421424
-1.2200875
0.57279922
-1.4182425
0.50792877
-1.6325098
0.35701894
-1.8331265
0.16114009
-1.990082
-0.011316957
-2.0944341
-0.11986131
-2.1669847
-0.16297651
-2.2408961
-0.16392119
-2.3358198
-0.14567034
-2.4537637
-0.12148404
-2.5929794
-0.097679002
-2.7509762
-0.076693006
-2.9251356
-0.059067782
-3.1140509
-0.044537747
-3.3175096
-0.032572452
-3.5364267
-0.022593269
-3.7718865
-0.014115594
-4.0245486
-0.0066677636
-4.297088
0.23845634
-0.50685828
0.2416985
-0.57860283
-0.071374235
-0.62496177
-0.2691811
-0.65087662
-0.26768247
-0.67020272
-0.10438931
-0.70097908
0.11338325
-0.76263842
0.30398347
-0.84973561
0.46443855
-0.96290191
0.58874948
-1.1119647
0.64304524
-1.3012369
0.59621284
-1.517728
0.44089648
-1.727612
0.21326635
-1.8967277
-0.0012992073
-2.011923
-0.14064279
-2.0855369
-0.20060609
-2.1408809
-0.20419043
-2.2118402
-0.18123874
-2.3111695
-0.15068878
-2.4349709
-0.12084739
-2.579672
-0.094880991
-2.7420341
-0.073417979
-2.9193198
-0.056049482
-3.1103618
-0.042040916
-3.3151951
-0.030649295
-3.534969
-0.021214582
-3.7709812
-0.013230345
-4.0238183
-0.0062386175
-4.2963538
0.25611561
-0.46797172
0.25758172
-0.53305195
-0.087821345
-0.57420014
-0.3104821
-0.5962056
-0.31631016
-0.61368005
-0.14448962
-0.64060034
0.097112676
-0.6958236
0.30491672
-0.77471072
0.48032174
-0.87528194
0.62533806
-1.008818
0.70606676
-1.1851832
0.68277247
-1.3983216
0.53314737
-1.6205256
0.27690842
-1.8020719
0.0074002182
-1.9166053
-0.17079249
-1.9930524
-0.24867557
-2.0483822
-0.25541174
-2.1002349
-0.22567704
-2.1777935
-0.18634789
-2.2855408
-0.14868395
-2.41666
-0.11634235
-2.5672002
-0.090020435
-2.7338251
-0.069077426
-2.9140229
-0.052501569
-3.1069344
-0.039296013
-3.312917
-0.028622403
-3.5334334
-0.019802496
-3.7699306
-0.012342617
-4.0229519
-0.005815322
-4.2956409
0.26754338
-0.50556303
0.27027872
-0.49033664
-0.10559524
-0.52666087
-0.35127222
-0.54522205
-0.36281085
-0.56039737
-0.18323873
-0.58471112
0.080778204
-0.63462407
0.30488598
-0.70620868
0.49160424
-0.79495771
0.65343613
-0.91197559
0.75941022
-1.0717034
0.76214476
-1.2744431
0.62837913
-1.5034556
0.35076703
-1.7045806
0.025854038
-1.831092
-0.20734421
-1.8907775
-0.30932346
-1.9427665
-0.31927947
-1.9944828
-0.28169275
-2.0540989
-0.2300352
-2.1437755
-0.18199636
-2.2614241
-0.1416
-2.4001069
-0.10920241
-2.5562483
-0.083838228
-2.7267228
-0.064102705
-2.909401
-0.048670258
-3.1038468
-0.036441394
-3.3107654
-0.02656719
-3.5318659
-0.018396636
-3.7688184
-0.01147122
-4.0220792
-0.0054046091
-4.2948757
0.27705084
-0.49867974
0.27808451
-0.52395724
-0.12386351
-0.48280777
-0.39062502
-0.49841405
-0.40693307
-0.51109474
-0.21980477
-0.53294786
0.065258672
-0.57884485
0.30452837
-0.64401094
0.4990961
-0.72203931
0.67299721
-0.82244291
0.80067912
-0.96217573
0.82688447
-1.1457265
0.71666009
-1.3720098
0.42492733
-1.5872224
0.05391772
-1.7426263
-0.24684176
-1.8017906
-0.38282588
-1.8271301
-0.39585996
-1.8756111
-0.34978523
-1.9357169
-0.28394605
-2.0093992
-0.22173861
-2.1128975
-0.17111621
-2.2403546
-0.13123781
-2.3861081
-0.1004859
-2.5471583
-0.076941023
-2.720849
-0.05883649
-2.9055207
-0.044747099
-3.1011616
-0.033582161
-3.3087686
-0.024540432
-3.530346
-0.017026183
-3.7677053
-0.010629714
-4.021205
-0.0050112204
-4.294201
0.28383824
-0.49120001
0.28411995
-0.51531852
-0.14259166
-0.51696409
-0.42782644
-0.45602819
-0.44829371
-0.46639046
-0.25380375
-0.48559944
0.051420936
-0.52810947
0.30440831
-0.58784579
0.50364374
-0.65633339
0.68452904
-0.74087633
0.82808175
-0.85820414
0.87174545
-1.015748
0.78719301
-1.2249559
0.48374062
-1.4398675
0.069582523
-1.6123027
-0.29345617
-1.7057038
-0.47219297
-1.7217989
-0.48884118
-1.7430572
-0.42745221
-1.8067063
-0.34808922
-1.8802645
-0.2693546
-1.9702652
-0.20528688
-2.0869038
-0.15629498
-2.2231288
-0.11908715
-2.3749336
-0.091030325
-2.5400179
-0.069795009
-2.716218
-0.053536652
-2.9023801
-0.040873122
-3.0988737
-0.030794993
-3.3069666
-0.022582711
-3.5288847
-0.015711665
-3.7666255
-0.0098273961
-4.020392
-0.0046382598
-4.2935333
0.28748624
-0.48343607
0.28764021
-0.50533415
-0.16038939
-0.5093679
-0.46462693
-0.4914078
-0.48663691
-0.42639976
-0.28520402
-0.44292736
0.039612135
-0.48218338
0.30508072
-0.53731963
0.50604032
-0.59750515
0.68891655
-0.66745751
0.84116036
-0.7617794
0.89616762
-0.89079688
0.83439888
-1.0710886
0.51820908
-1.2679331
0.055627836
-1.434777
-0.35929139
-1.5556771
-0.58229589
-1.6045175
-0.60224973
-1.6168175
-0.51735815
-1.6614101
-0.41765068
-1.7453297
-0.32497705
-1.8326862
-0.24473984
-1.9387036
-0.18437538
-2.0664888
-0.13958152
-2.2099392
-0.10628073
-2.3665786
-0.081454628
-2.5347222
-0.062737975
-2.7127525
-0.048386022
-2.899934
-0.037147168
-3.0969717
-0.028132545
-3.305337
-0.020721452
-3.5275166
-0.014466558
-3.7656056
-0.0090701461
-4.0196399
-0.0042875581
-4.2929998
0.28783137
-0.47570077
0.28808452
-0.49450296
-0.17695777
-0.50071382
-0.49860812
-0.48671621
-0.52866347
-0.45866598
-0.31403119
-0.4049855
0.029705957
-0.44085184
0.30689257
-0.49198817
0.50702545
-0.54509997
0.68724792
-0.60205002
0.84122173
-0.6748446
0.90258848
-0.7758611
0.85600051
-0.9199993
0.52833305
-1.0892128
0.022454638
-1.2430852
-0.44136255
-1.3614534
-0.70185663
-1.4445986
-0.7287281
-1.486003
-0.62402067
-1.5179522
-0.49135598
-1.5954273
-0.38353859
-1.694361
-0.28973278
-1.7952715
-0.21544414
-1.9151353
-0.16172682
-2.0515384
-0.12246968
-2.2005866
-0.093617965
-2.3607994
-0.07218731
-2.5311138
-0.055997963
-2.7103292
-0.043506169
-2.8980995
-0.033633511
-3.0953921
-0.025628386
-3.3038905
-0.018973591
-3.526254
-0.013298888
-3.7646807
-0.0083611784
-4.0190002
-0.0039599432
-4.2924692
0.28465609
-0.46842246
0.28509234
-0.48333729
-0.19199066
-0.49150687
-0.5288696
-0.48185235
-0.56748088
-0.45723148
-0.35496485
-0.42558581
0.021501759
-0.40409117
0.30988934
-0.45133362
0.50725252
-0.49858288
0.68082185
-0.54441068
0.83087135
-0.59856106
0.89402526
-0.67346239
0.85261108
-0.7795661
0.51663252
-0.91581679
-0.023591147
-1.0509653
-0.52741485
-1.1653358
-0.81462654
-1.2567518
-0.85207141
-1.3287677
-0.73774841
-1.3796387
-0.57487201
-1.4417455
-0.43979551
-1.5463263
-0.33679769
-1.6544647
-0.24950813
-1.7684752
-0.1851044
-1.8988824
-0.1392126
-2.0416003
-0.10596173
-2.1946478
-0.081621275
-2.357287
-0.063500191
-2.5289374
-0.049716751
-2.7087925
-0.03897044
-2.8967719
-0.030369719
-3.0941143
-0.023301272
-3.3026243
-0.017348098
-3.5251327
-0.012212431
-3.7638687
-0.0077016851
-4.0184168
-0.0036555325
-4.2920084
0.27771395
-0.46195853
0.27845194
-0.47241449
-0.20524844
-0.48219358
-0.5545025
-0.47733406
-0.60191911
-0.45678178
-0.39415667
-0.42597179
-0.0032702405
-0.40849524
0.31398335
-0.41518516
0.5072658
-0.45732298
0.67099807
-0.49406054
0.81295118
-0.53291972
0.87320033
-0.58446858
0.82794939
-0.65541777
0.48703425
-0.75703006
-0.076742172
-0.86994912
-0.61140338
-0.97485155
-0.91916203
-1.0684767
-0.96083621
-1.1550597
-0.84269324
-1.2307691
-0.66432279
-1.2971251
-0.49719272
-1.3911029
-0.37920556
-1.5106467
-0.28492002
-1.6260327
-0.20929003
-1.7513345
-0.15593905
-1.8889347
-0.11802662
-2.0359441
-0.090666613
-2.19158
-0.070596493
-2.3556342
-0.055546983
-2.5279599
-0.043970324
-2.7079646
-0.034815877
-2.8958715
-0.027373267
-3.0930907
-0.021159029
-3.3015432
-0.015847948
-3.5241725
-0.01120788
-3.7631705
-0.0070913981
-4.0179099
-0.0033738816
-4.2914688
0.26689945
-0.45653076
0.26817198
-0.46231226
-0.21653014
-0.47331126
-0.5747873
-0.47341955
-0.63073122
-0.45791838
-0.43094957
-0.42798977
-0.027072706
-0.4099354
0.30225791
-0.40408392
0.50720155
-0.42072669
0.65907158
-0.45030176
0.7897867
-0.47691972
0.84296058
-0.50899152
0.78758804
-0.5502752
0.44324852
-0.61826244
-0.13314296
-0.70741269
-0.68836711
-0.80045112
-1.0098941
-0.89142538
-1.0514455
-0.98451336
-0.93131598
-1.0729818
-0.74551946
-1.1561612
-0.55856989
-1.2421397
-0.41557114
-1.3610461
-0.31647076
-1.4856854
-0.23351098
-1.6086456
-0.17195473
-1.7420432
-0.12921122
-1.8841458
-0.098841173
-2.0337703
-0.076900793
-2.1908026
-0.060692283
-2.3554793
-0.048394655
-2.5278978
-0.038787428
-2.7077108
-0.031053443
-2.8953101
-0.024647354
-3.0922955
-0.019201524
-3.3006636
-0.014471826
-3.5233841
-0.010283681
-3.7625775
-0.0065289833
-4.0173962
-0.0031141977
-4.2909265
0.25237431
-0.45233917
0.25447096
-0.45346228
-0.22563829
-0.4654326
-0.58917037
-0.47048032
-0.65326181
-0.46030832
-0.46473734
-0.43219345
-0.050126379
-0.41278163
0.29289104
-0.40798305
0.49207743
-0.39479413
0.64563967
-0.41184796
0.76342076
-0.42957462
0.80627503
-0.44615651
0.73691997
-0.46406881
0.38941353
-0.50266107
-0.18945545
-0.56825151
-0.75415847
-0.64869386
-1.0825481
-0.73475322
-1.1205003
-0.82860067
-1.0013762
-0.92060471
-0.8105755
-1.0141839
-0.61626861
-1.1045188
-0.45076736
-1.2128494
-0.33936335
-1.3442945
-0.25509726
-1.4705962
-0.18655452
-1.6006414
-0.13878122
-1.7388329
-0.10556412
-1.883403
-0.08194615
-2.0342801
-0.064779288
-2.1917946
-0.05194767
-2.3564483
-0.042050911
-2.5285594
-0.034164047
-2.7078825
-0.027676226
-2.8950191
-0.02218518
-3.0916984
-0.017423176
-3.2999802
-0.013215494
-3.522766
-0.009436785
-3.7620735
-0.006012406
-4.0168991
-0.0028754133
-4.290276
-0.4494701
0.23455609
0.23795636
-0.44645388
-0.23223529
-0.45912943
-0.59732221
-0.46886521
-0.66916738
-0.46401104
-0.49483701
-0.43832538
-0.072843313
-0.41739406
0.2849133
-0.41230459
0.4810586
-0.40290742
0.61615352
-0.36999508
0.73506523
-0.38877551
0.76594551
-0.39481091
0.68052683
-0.39511379
0.3301554
-0.41064078
-0.24323462
-0.45472395
-0.80618755
-0.52291627
-1.1345365
-0.60332954
-1.1683275
-0.69274868
-1.0528201
-0.78292389
-0.85941352
-0.87771237
-0.66216639
-0.97402776
-0.48536076
-1.0754634
-0.35507984
-1.2028514
-0.26946193
-1.3360256
-0.19861409
-1.4648719
-0.14595219
-1.5997099
-0.11017145
-1.7401431
-0.085201366
-1.8856754
-0.06737997
-2.0367913
-0.054284458
-2.1940851
-0.044330321
-2.3582546
-0.036484543
-2.5297232
-0.030075305
-2.7083776
-0.024665636
-2.8949268
-0.019973579
-3.0912877
-0.015814885
-3.2995034
-0.01207279
-3.5223179
-0.0086631185
-3.7616343
-0.0055391636
-4.0163556
-0.0026563264
-4.2895841
-0.44183944
0.21970129
-0.44815178
0.21427204
-0.23624071
-0.45473435
-0.5991287
-0.46893081
-0.67840849
-0.46907117
-0.52036578
-0.44664513
-0.094801073
-0.42434901
0.27729641
-0.41735871
0.47360731
-0.41089394
0.58974296
-0.38128589
0.69336974
-0.33372476
0.72355299
-0.35159985
0.62198309
-0.34125199
0.26950883
-0.33991645
-0.29276744
-0.36651298
-0.84378667
-0.42345353
-1.1658837
-0.49787698
-1.1974718
-0.57961367
-1.0873876
-0.66357242
-0.89440982
-0.75357595
-0.69534526
-0.84998172
-0.51436155
-0.95022027
-0.3680444
-1.067826
-0.27415546
-1.2038342
-0.20566257
-1.3349309
-0.14999491
-1.4668205
-0.11194462
-1.6037221
-0.086097607
-1.7446916
-0.068031251
-1.8901067
-0.055028443
-2.0407125
-0.045318103
-2.1972818
-0.03776501
-2.3606293
-0.031641595
-2.5312589
-0.026483539
-2.7090785
-0.021996202
-2.8949955
-0.017995542
-3.091057
-0.014365433
-3.2992164
-0.011036412
-3.522013
-0.007958061
-3.7612413
-0.0051064965
-4.0157869
-0.0024556315
-4.2887584
-0.45227681
-0.23809615
-0.43933127
0.20026286
-0.4485053
0.19207052
-0.59486926
-0.47061623
-0.68114297
-0.47564836
-0.54017675
-0.45745959
-0.11617886
-0.43330463
0.26951817
-0.42422684
0.46898022
-0.41886812
0.56685438
-0.39289478
0.6527362
-0.34620488
0.67766178
-0.2931502
0.56370943
-0.29797166
0.21014338
-0.28695985
-0.33673375
-0.30094842
-0.86795927
-0.34831821
-1.1787788
-0.41656048
-1.2113765
-0.48902129
-1.1085674
-0.56345866
-0.91926748
-0.64407959
-0.71887197
-0.73522063
-0.53496579
-0.83424282
-0.3788448
-0.94438755
-0.27147993
-1.0757802
-0.20456406
-1.210465
-0.14994321
-1.34062
-0.11020501
-1.4741295
-0.084054849
-1.6111001
-0.066262557
-1.7514809
-0.053791953
-1.8959929
-0.044693804
-2.0455611
-0.037738688
-2.2010694
-0.032154064
-2.3633859
-0.027455916
-2.5330037
-0.023344834
-2.7099293
-0.019638931
-2.8952012
-0.016232117
-3.0909892
-0.013062534
-3.2991081
-0.010098494
-3.521837
-0.0073166665
-3.7608546
-0.0047115207
-4.0151381
-0.0022720152
-4.2878818
-0.47346894
-0.58530475
-0.451914
-0.23779848
-0.43833343
0.17948066
-0.4502171
0.16816379
-0.67754205
-0.48366845
-0.55322327
-0.47082681
-0.13608695
-0.44563646
0.26143422
-0.43294394
0.46599214
-0.42746788
0.54786524
-0.40486594
0.61372579
-0.35956074
0.63075483
-0.30472424
0.52320999
-0.25732041
0.15545497
-0.24798902
-0.37386468
-0.25445583
-0.88041937
-0.29413119
-1.1768505
-0.35595237
-1.2139337
-0.41868929
-1.1206839
-0.48157437
-0.93861469
-0.54920532
-0.73687193
-0.63099183
-0.54842807
-0.72631255
-0.38534541
-0.83237671
-0.26488381
-0.95590258
-0.19423288
-1.0912397
-0.14410533
-1.2215425
-0.10440858
-1.3516921
-0.078516513
-1.4848277
-0.061625911
-1.6206451
-0.050201547
-1.75966
-0.042144278
-1.9027602
-0.03614086
-2.0509608
-0.031386845
-2.2052059
-0.027391044
-2.3663483
-0.023857217
-2.5348841
-0.020612919
-2.7108629
-0.017563662
-2.8955155
-0.014663723
-3.0910626
-0.011893579
-3.2991539
-0.0092509832
-3.521728
-0.0067339648
-3.7604604
-0.0043513459
-4.0144392
-0.0021041548
-4.2868957
-0.49294465
-0.66751074
-0.47844028
-0.57040365
-0.45272765
-0.23566727
-0.43872565
0.15738672
-0.4531182
0.14280866
-0.55888461
-0.48624574
-0.15358819
-0.46144832
0.252498
-0.4444834
0.46395851
-0.43722694
0.53266086
-0.4173423
0.57708048
-0.37400347
0.58347351
-0.31778507
0.47873158
-0.26497553
0.14731662
-0.25389363
-0.4020483
-0.22410376
-0.88315921
-0.25703781
-1.1643601
-0.31203346
-1.2089558
-0.36527086
-1.1280883
-0.4156154
-0.95704352
-0.46798284
-0.753922
-0.53682385
-0.55758295
-0.62609571
-0.38653466
-0.72944895
-0.25523312
-0.84661951
-0.17648319
-0.97840711
-0.13063504
-1.1095484
-0.093976833
-1.2368849
-0.069025984
-1.3660907
-0.05372269
-1.4974869
-0.043924395
-1.6314107
-0.037386456
-1.7685952
-0.03272756
-1.9099809
-0.029127202
-2.0566331
-0.026101552
-2.2095043
-0.023369749
-2.3694031
-0.020775687
-2.5367965
-0.018242221
-2.7118475
-0.015740639
-2.8959063
-0.013271075
-3.0912586
-0.010846121
-3.2993038
-0.0084859789
-3.5216775
-0.0062050256
-3.7600217
-0.0040231302
-4.0136583
-0.0019507786
-4.2858605
-0.50279007
-0.55727895
-0.50418643
-0.65119735
-0.48385929
-0.55088661
-0.45498565
-0.23163285
-0.44071709
0.13439212
-0.45721213
0.11643938
-0.16794485
-0.48003857
0.2422579
-0.45904482
0.46152613
-0.44844996
0.52024008
-0.42997029
0.54341602
-0.38954972
0.53668363
-0.33278641
0.43222562
-0.2760554
0.13059826
-0.25308731
-0.36858305
-0.29166994
-0.87925158
-0.23302414
-1.145919
-0.28059192
-1.2000371
-0.32496492
-1.1346499
-0.36271625
-0.97838594
-0.3988642
-0.77435382
-0.45198995
-0.56559911
-0.53278447
-0.38287326
-0.63379174
-0.24155766
-0.74741954
-0.15359358
-0.87392317
-0.10897604
-1.004522
-0.078028037
-1.1300347
-0.055298501
-1.2552497
-0.042228852
-1.3821718
-0.0346927
-1.5110844
-0.030188033
-1.6427178
-0.027295094
-1.7778216
-0.025192458
-1.9173479
-0.023421201
-2.0623681
-0.021730022
-2.2138177
-0.019989621
-2.3724495
-0.018145283
-2.5387053
-0.016189327
-2.7128275
-0.014141537
-2.8963529
-0.012035721
-3.0915344
-0.0099082546
-3.2995358
-0.0077958397
-3.5216008
-0.0057251371
-3.7595344
-0.0037241462
-4.0128187
-0.0018106555
-4.2847218
-0.50020827
-0.17869155
-0.5204622
-0.5492326
-0.51477099
-0.62970204
-0.49003377
-0.52743279
-0.45861233
-0.2259095
-0.44425815
0.11085545
-0.46237445
0.089435484
0.23050843
-0.47617204
0.45725622
-0.4612498
0.50935389
-0.44280411
0.51336936
-0.40586664
0.49095912
-0.34945185
0.38501663
-0.29039056
0.10876961
-0.25915308
-0.34309136
-0.28304446
-0.82185682
-0.35406523
-1.1254162
-0.25832117
-1.1899691
-0.29436619
-1.1431731
-0.32014651
-1.0052186
-0.34023588
-0.80133328
-0.37610404
-0.57562584
-0.44566935
-0.37526828
-0.54415098
-0.22277521
-0.65660119
-0.12631539
-0.77880057
-0.080128109
-0.90687462
-0.055642775
-1.0310915
-0.037138646
-1.1525211
-0.026939109
-1.2748999
-0.022322418
-1.3987627
-0.020386764
-1.5249016
-0.01969665
-1.6540839
-0.019446191
-1.7870229
-0.019219555
-1.924637
-0.018811892
-2.0680067
-0.018132987
-2.2180502
-0.017158635
-2.375427
-0.015905172
-2.5405384
-0.014414211
-2.7137897
-0.012739996
-2.8968218
-0.010940432
-3.0918696
-0.0090687437
-3.2997555
-0.0071733994
-3.521497
-0.0052897975
-3.75897
-0.0034518129
-4.0118959
-0.0016826351
-4.2835397
-0.49501901
0.21739755
-0.52093935
-0.18638653
-0.53694586
-0.53526331
-0.52501047
-0.60411895
-0.49643537
-0.50117583
-0.46327141
-0.21899719
-0.44919279
0.087104171
-0.46846974
0.062184272
0.4500763
-0.47553567
0.4988255
-0.45602874
0.48676457
-0.42219421
0.4469954
-0.3675695
0.3384669
-0.30774162
0.08356566
-0.27018362
-0.32516784
-0.28168008
-0.76761786
-0.34242201
-1.0723049
-0.41191272
-1.1801927
-0.27152458
-1.1553981
-0.2855704
-1.0386349
-0.29085249
-0.83639274
-0.30918786
-0.59024223
-0.36493791
-0.36473615
-0.4597055
-0.1980175
-0.57269146
-0.09406797
-0.69266921
-0.045417251
-0.81728599
-0.026525679
-0.9398365
-0.014276953
-1.0579493
-0.0077981646
-1.1757506
-0.0067137368
-1.2945647
-0.007901631
-1.4151628
-0.0098547454
-1.538465
-0.011811686
-1.6651911
-0.01341539
-1.7959561
-0.014527935
-1.931682
-0.015113249
-2.0734487
-0.015186915
-2.2221268
-0.014794584
-2.3782779
-0.014000676
-2.542283
-0.012880467
-2.7146936
-0.011511951
-2.8972979
-0.0099693206
-3.0921914
-0.0083172325
-3.2999588
-0.0066119307
-3.5213102
-0.0048948299
-3.7583407
-0.0032037175
-4.0109161
-0.0015656385
-4.282275
-0.49107593
0.43952947
-0.51397949
0.2024814
-0.54127555
-0.1902281
-0.55209977
-0.51633863
-0.53441235
-0.57550684
-0.50269709
-0.47328059
-0.46876791
-0.21143605
-0.45532319
0.063401067
-0.47531521
0.035090461
0.48779286
-0.46986738
0.4629037
-0.43819478
0.40591288
-0.38680317
0.29332355
-0.32728099
0.056880428
-0.28610214
-0.31155309
-0.28851405
-0.71668856
-0.33787128
-1.0160172
-0.40357698
-1.1537011
-0.44177347
-1.1723403
-0.25777185
-1.0783848
-0.24971901
-0.87944548
-0.25160927
-0.6108739
-0.29176746
-0.35242009
-0.38051618
-0.16651238
-0.49476854
-0.055741131
-0.61458176
-0.0054198137
-0.73613464
0.008868627
-0.85620885
0.013599261
-0.97140321
0.015148663
-1.0847086
0.012138693
-1.1984614
0.0072702991
-1.3135653
0.002237495
-1.4309547
-0.002278142
-1.5514801
-0.005986437
-1.6757995
-0.0088407297
-1.8044666
-0.010877312
-1.9383866
-0.012164989
-2.0786236
-0.012784365
-2.2260032
-0.012825254
-2.3809699
-0.012383239
-2.5438962
-0.011555617
-2.7155368
-0.010435674
-2.8977357
-0.0091079749
-3.0924998
-0.0076441735
-3.3000817
-0.0061052739
-3.5210677
-0.0045363361
-3.7576308
-0.0029776114
-4.0098667
-0.0014586453
-4.2809847
-0.48419223
0.4754994
-0.50623845
0.42513122
-0.53396358
0.18718037
-0.56000267
-0.19048478
-0.56535226
-0.49350471
-0.54254507
-0.54498918
-0.50854711
-0.44498888
-0.47475852
-0.20390988
-0.46234727
0.039893138
-0.48261449
0.0085297715
0.44096549
-0.45396747
0.36851575
-0.40649704
0.25046922
-0.34880831
0.030259052
-0.30573526
-0.30163742
-0.30082186
-0.66953651
-0.34103274
-0.95882868
-0.40002814
-1.1216932
-0.43908743
-1.182635
-0.43461821
-1.1239169
-0.21591568
-0.92890627
-0.20386703
-0.63759246
-0.2278787
-0.33961372
-0.30760624
-0.12767837
-0.42269983
-0.010059124
-0.54378087
0.039975539
-0.66316341
0.049704383
-0.78020455
0.046440637
-0.8924628
0.041708022
-1.0015128
0.034058218
-1.1102551
0.025029592
-1.2199342
0.016499499
-1.3315141
0.0090968806
-1.4458259
0.0030286459
-1.5637343
-0.0017686443
-1.6857844
-0.0054208127
-1.8124677
-0.0080662489
-1.9446912
-0.0098312526
-2.0834911
-0.010833174
-2.2296366
-0.011188006
-2.3834791
-0.011010351
-2.5453798
-0.010410848
-2.7162812
-0.0094917867
-2.8981395
-0.0083433527
-3.0927171
-0.0070409501
-3.3001421
-0.0056477493
-3.5207164
-0.0042107738
-3.756858
-0.0027713432
-4.0087682
-0.001360591
-4.2796172
-0.46936593
0.42011056
-0.49736858
0.46118486
-0.52332135
0.40778609
-0.55280938
0.17196964
-0.5763864
-0.18758746
-0.57620851
-0.46787242
-0.54905043
-0.51377684
-0.51365807
-0.41752504
-0.48081161
-0.19723253
-0.46982125
0.016582351
-0.48987303
-0.017187952
0.33480085
-0.4259422
0.21096488
-0.37184734
0.0049927117
-0.32862966
-0.29392437
-0.31831834
-0.62693042
-0.3488772
-0.904553
-0.40036314
-1.0875533
-0.43778611
-1.1875399