/*--------------------------------*- C++ -*----------------------------------*\
| =========                 |                                                 |
| \\      /  F ield         | OpenFOAM: The Open Source CFD Toolbox           |
|  \\    /   O peration     | Version:  v2012                                 |
|   \\  /    A nd           | Website:  www.openfoam.com                      |
|    \\/     M anipulation  |                                                 |
\*---------------------------------------------------------------------------*/
FoamFile
{
    version     2.0;
    format      ascii;
    class       pointVectorField;
    location    "104.868788511957604";
    object      pointDisplacement;
}
// * * * * * * * * * * * * * * * * * * * * * * * * * * * * * * * * * * * * * //

dimensions      [0 1 0 0 0 0 0];


internalField   nonuniform List<vector> 
18840
(
(-0.13402953 -0 -0)
(-0.13394696 0 0)
(-0.13370057 0 0)
(-0.1332928 0 0)
(-0.13272568 0 0)
(-0.13200071 0 0)
(-0.13111924 0 0)
(-0.13008226 0 0)
(-0.12889064 0 0)
(-0.12754498 0 0)
(-0.12604574 0 0)
(-0.12439322 0 0)
(-0.12258761 0 0)
(-0.12062899 0 0)
(-0.11851732 0 0)
(-0.11625254 0 0)
(-0.11383449 0 0)
(-0.11126321 0 0)
(-0.10853883 0 0)
(-0.10566102 0 0)
(-0.10203763 0 0)
(-0.13402953 -0 -0)
(-0.13394716 0 0)
(-0.13370141 0 0)
(-0.13329482 0 0)
(-0.13272946 0 0)
(-0.13200695 0 0)
(-0.13112863 0 0)
(-0.13009562 0 0)
(-0.1289088 0 0)
(-0.12756887 0 0)
(-0.12607634 0 0)
(-0.1244316 0 0)
(-0.12263487 0 0)
(-0.12068634 0 0)
(-0.11858602 0 0)
(-0.11633392 0 0)
(-0.11392992 0 0)
(-0.111374 0 0)
(-0.1086661 0 0)
(-0.1058058 0 0)
(-0.1028225 0 0)
(-0.13402953 -0 -0)
(-0.13394725 0 0)
(-0.13370185 0 0)
(-0.13329596 0 0)
(-0.13273174 0 0)
(-0.1320109 0 0)
(-0.13113486 0 0)
(-0.13010484 0 0)
(-0.12892179 0 0)
(-0.12758652 0 0)
(-0.12609963 0 0)
(-0.12446162 0 0)
(-0.12267282 0 0)
(-0.12073354 0 0)
(-0.11864391 0 0)
(-0.11640404 0 0)
(-0.11401393 0 0)
(-0.11147355 0 0)
(-0.10878274 0 0)
(-0.1059412 0 0)
(-0.10293764 0 0)
(-0.13402953 -0 -0)
(-0.13394742 0 0)
(-0.13370254 0 0)
(-0.13329764 0 0)
(-0.13273495 0 0)
(-0.13201627 0 0)
(-0.13114312 0 0)
(-0.13011679 0 0)
(-0.12893835 0 0)
(-0.1276087 0 0)
(-0.12612857 0 0)
(-0.12449858 0 0)
(-0.12271922 0 0)
(-0.12079091 0 0)
(-0.11871398 0 0)
(-0.1164887 0 0)
(-0.11411528 0 0)
(-0.11159389 0 0)
(-0.10892464 0 0)
(-0.10610746 0 0)
(-0.1030952 0 0)
(-0.13402953 -0 -0)
(-0.13394764 0 0)
(-0.13370347 0 0)
(-0.13329981 0 0)
(-0.13273901 0 0)
(-0.13202293 0 0)
(-0.1311532 0 0)
(-0.13013118 0 0)
(-0.12895807 0 0)
(-0.12763488 0 0)
(-0.12616245 0 0)
(-0.12454156 0 0)
(-0.12277284 0 0)
(-0.12085691 0 0)
(-0.11879426 0 0)
(-0.11658542 0 0)
(-0.11423083 0 0)
(-0.11173096 0 0)
(-0.10908624 0 0)
(-0.10629702 0 0)
(-0.10328368 0 0)
(-0.13402953 -0 -0)
(-0.13394792 0 0)
(-0.13370461 0 0)
(-0.13330246 0 0)
(-0.13274385 0 0)
(-0.13203078 0 0)
(-0.13116489 0 0)
(-0.13014772 0 0)
(-0.12898049 0 0)
(-0.12766439 0 0)
(-0.12620036 0 0)
(-0.12458935 0 0)
(-0.12283213 0 0)
(-0.12092951 0 0)
(-0.1188822 0 0)
(-0.11669094 0 0)
(-0.11435647 0 0)
(-0.11187951 0 0)
(-0.1092609 0 0)
(-0.10650122 0 0)
(-0.10349269 0 0)
(-0.13402953 -0 -0)
(-0.13394825 0 0)
(-0.13370596 0 0)
(-0.13330556 0 0)
(-0.13274947 0 0)
(-0.13203975 0 0)
(-0.13117814 0 0)
(-0.13016623 0 0)
(-0.12900536 0 0)
(-0.12769681 0 0)
(-0.12624167 0 0)
(-0.12464101 0 0)
(-0.12289579 0 0)
(-0.12100698 0 0)
(-0.11897551 0 0)
(-0.11680232 0 0)
(-0.11448845 0 0)
(-0.11203484 0 0)
(-0.10944268 0 0)
(-0.1067129 0 0)
(-0.10371384 0 0)
(-0.13402953 -0 -0)
(-0.13394863 0 0)
(-0.13370752 0 0)
(-0.13330912 0 0)
(-0.1327559 0 0)
(-0.13204992 0 0)
(-0.13119302 0 0)
(-0.1301868 0 0)
(-0.12903275 0 0)
(-0.12773217 0 0)
(-0.12628631 0 0)
(-0.12469633 0 0)
(-0.1229634 0 0)
(-0.12108861 0 0)
(-0.1190731 0 0)
(-0.11691802 0 0)
(-0.1146246 0 0)
(-0.11219413 0 0)
(-0.10962796 0 0)
(-0.10692748 0 0)
(-0.10394168 0 0)
(-0.13402953 -0 -0)
(-0.13394908 0 0)
(-0.1337093 0 0)
(-0.13331317 0 0)
(-0.13276315 0 0)
(-0.13206135 0 0)
(-0.13120963 0 0)
(-0.13020963 0 0)
(-0.12906288 0 0)
(-0.12777074 0 0)
(-0.12633457 0 0)
(-0.12475564 0 0)
(-0.12303522 0 0)
(-0.12117458 0 0)
(-0.11917501 0 0)
(-0.11703785 0 0)
(-0.11476451 0 0)
(-0.11235652 0 0)
(-0.10981548 0 0)
(-0.10714306 0 0)
(-0.1041738 0 0)
(-0.13402953 -0 -0)
(-0.13394957 0 0)
(-0.13371131 0 0)
(-0.1333177 0 0)
(-0.13277124 0 0)
(-0.13207405 0 0)
(-0.13122799 0 0)
(-0.13023474 0 0)
(-0.12909583 0 0)
(-0.12781267 0 0)
(-0.12638666 0 0)
(-0.12481915 0 0)
(-0.12311153 0 0)
(-0.12126515 0 0)
(-0.11928147 0 0)
(-0.11716196 0 0)
(-0.11490821 0 0)
(-0.1125219 0 0)
(-0.11000486 0 0)
(-0.10735902 0 0)
(-0.10440917 0 0)
(-0.13402953 -0 -0)
(-0.13394997 0 0)
(-0.13371289 0 0)
(-0.13332131 0 0)
(-0.13277774 0 0)
(-0.13208433 0 0)
(-0.13124296 0 0)
(-0.13025532 0 0)
(-0.12912294 0 0)
(-0.12784727 0 0)
(-0.12642974 0 0)
(-0.12487176 0 0)
(-0.12317477 0 0)
(-0.12134023 0 0)
(-0.1193697 0 0)
(-0.11726479 0 0)
(-0.1150272 0 0)
(-0.11265881 0 0)
(-0.11016157 0 0)
(-0.10753767 0 0)
(-0.10460788 0 0)
(-0.13402953 -0 -0)
(-0.13394696 0 0)
(-0.13370057 0 0)
(-0.1332928 0 0)
(-0.13272568 0 0)
(-0.13200071 0 0)
(-0.13111924 0 0)
(-0.13008226 0 0)
(-0.12889064 0 0)
(-0.12754498 0 0)
(-0.12604574 0 0)
(-0.12439322 0 0)
(-0.12258761 0 0)
(-0.12062899 0 0)
(-0.11851732 0 0)
(-0.11625254 0 0)
(-0.11383449 0 0)
(-0.11126321 0 0)
(-0.10853883 0 0)
(-0.10566102 0 0)
(-0.10203763 0 0)
(-0.13402953 -0 -0)
(-0.13394716 0 0)
(-0.13370141 0 0)
(-0.13329482 0 0)
(-0.13272946 0 0)
(-0.13200695 0 0)
(-0.13112863 0 0)
(-0.13009562 0 0)
(-0.1289088 0 0)
(-0.12756887 0 0)
(-0.12607634 0 0)
(-0.1244316 0 0)
(-0.12263487 0 0)
(-0.12068634 0 0)
(-0.11858602 0 0)
(-0.11633392 0 0)
(-0.11392992 0 0)
(-0.111374 0 0)
(-0.1086661 0 0)
(-0.1058058 0 0)
(-0.1028225 0 0)
(-0.13402953 -0 -0)
(-0.13394725 0 0)
(-0.13370185 0 0)
(-0.13329596 0 0)
(-0.13273174 0 0)
(-0.1320109 0 0)
(-0.13113486 0 0)
(-0.13010484 0 0)
(-0.12892179 0 0)
(-0.12758652 0 0)
(-0.12609963 0 0)
(-0.12446162 0 0)
(-0.12267282 0 0)
(-0.12073354 0 0)
(-0.11864391 0 0)
(-0.11640404 0 0)
(-0.11401393 0 0)
(-0.11147355 0 0)
(-0.10878274 0 0)
(-0.1059412 0 0)
(-0.10293764 0 0)
(-0.13402953 -0 -0)
(-0.13394742 0 0)
(-0.13370254 0 0)
(-0.13329764 0 0)
(-0.13273495 0 0)
(-0.13201627 0 0)
(-0.13114312 0 0)
(-0.13011679 0 0)
(-0.12893835 0 0)
(-0.1276087 0 0)
(-0.12612857 0 0)
(-0.12449858 0 0)
(-0.12271922 0 0)
(-0.12079091 0 0)
(-0.11871398 0 0)
(-0.1164887 0 0)
(-0.11411528 0 0)
(-0.11159389 0 0)
(-0.10892464 0 0)
(-0.10610746 0 0)
(-0.1030952 0 0)
(-0.13402953 -0 -0)
(-0.13394764 0 0)
(-0.13370347 0 0)
(-0.13329981 0 0)
(-0.13273901 0 0)
(-0.13202293 0 0)
(-0.1311532 0 0)
(-0.13013118 0 0)
(-0.12895807 0 0)
(-0.12763488 0 0)
(-0.12616245 0 0)
(-0.12454156 0 0)
(-0.12277284 0 0)
(-0.12085691 0 0)
(-0.11879426 0 0)
(-0.11658542 0 0)
(-0.11423083 0 0)
(-0.11173096 0 0)
(-0.10908624 0 0)
(-0.10629702 0 0)
(-0.10328368 0 0)
(-0.13402953 -0 -0)
(-0.13394792 0 0)
(-0.13370461 0 0)
(-0.13330246 0 0)
(-0.13274385 0 0)
(-0.13203078 0 0)
(-0.13116489 0 0)
(-0.13014772 0 0)
(-0.12898049 0 0)
(-0.12766439 0 0)
(-0.12620036 0 0)
(-0.12458935 0 0)
(-0.12283213 0 0)
(-0.12092951 0 0)
(-0.1188822 0 0)
(-0.11669094 0 0)
(-0.11435647 0 0)
(-0.11187951 0 0)
(-0.1092609 0 0)
(-0.10650122 0 0)
(-0.10349269 0 0)
(-0.13402953 -0 -0)
(-0.13394825 0 0)
(-0.13370596 0 0)
(-0.13330556 0 0)
(-0.13274947 0 0)
(-0.13203975 0 0)
(-0.13117814 0 0)
(-0.13016623 0 0)
(-0.12900536 0 0)
(-0.12769681 0 0)
(-0.12624167 0 0)
(-0.12464101 0 0)
(-0.12289579 0 0)
(-0.12100698 0 0)
(-0.11897551 0 0)
(-0.11680232 0 0)
(-0.11448845 0 0)
(-0.11203484 0 0)
(-0.10944268 0 0)
(-0.1067129 0 0)
(-0.10371384 0 0)
(-0.13402953 -0 -0)
(-0.13394863 0 0)
(-0.13370752 0 0)
(-0.13330912 0 0)
(-0.1327559 0 0)
(-0.13204992 0 0)
(-0.13119302 0 0)
(-0.1301868 0 0)
(-0.12903275 0 0)
(-0.12773217 0 0)
(-0.12628631 0 0)
(-0.12469633 0 0)
(-0.1229634 0 0)
(-0.12108861 0 0)
(-0.1190731 0 0)
(-0.11691802 0 0)
(-0.1146246 0 0)
(-0.11219413 0 0)
(-0.10962796 0 0)
(-0.10692748 0 0)
(-0.10394168 0 0)
(-0.13402953 -0 -0)
(-0.13394908 0 0)
(-0.1337093 0 0)
(-0.13331317 0 0)
(-0.13276315 0 0)
(-0.13206135 0 0)
(-0.13120963 0 0)
(-0.13020963 0 0)
(-0.12906288 0 0)
(-0.12777074 0 0)
(-0.12633457 0 0)
(-0.12475564 0 0)
(-0.12303522 0 0)
(-0.12117458 0 0)
(-0.11917501 0 0)
(-0.11703785 0 0)
(-0.11476451 0 0)
(-0.11235652 0 0)
(-0.10981548 0 0)
(-0.10714306 0 0)
(-0.1041738 0 0)
(-0.13402953 -0 -0)
(-0.13394957 0 0)
(-0.13371131 0 0)
(-0.1333177 0 0)
(-0.13277124 0 0)
(-0.13207405 0 0)
(-0.13122799 0 0)
(-0.13023474 0 0)
(-0.12909583 0 0)
(-0.12781267 0 0)
(-0.12638666 0 0)
(-0.12481915 0 0)
(-0.12311153 0 0)
(-0.12126515 0 0)
(-0.11928147 0 0)
(-0.11716196 0 0)
(-0.11490821 0 0)
(-0.1125219 0 0)
(-0.11000486 0 0)
(-0.10735902 0 0)
(-0.10440917 0 0)
(-0.13402953 -0 -0)
(-0.13394997 0 0)
(-0.13371289 0 0)
(-0.13332131 0 0)
(-0.13277774 0 0)
(-0.13208433 0 0)
(-0.13124296 0 0)
(-0.13025532 0 0)
(-0.12912294 0 0)
(-0.12784727 0 0)
(-0.12642974 0 0)
(-0.12487176 0 0)
(-0.12317477 0 0)
(-0.12134023 0 0)
(-0.1193697 0 0)
(-0.11726479 0 0)
(-0.1150272 0 0)
(-0.11265881 0 0)
(-0.11016157 0 0)
(-0.10753767 0 0)
(-0.10460788 0 0)
(-0.13402953 -0 -0)
(-0.13394301 0 0)
(-0.13368468 0 0)
(-0.13325685 0 0)
(-0.1326614 0 0)
(-0.13189984 0 0)
(-0.13097354 0 0)
(-0.12988375 0 0)
(-0.12863164 0 0)
(-0.12721826 0 0)
(-0.12564459 0 0)
(-0.12391153 0 0)
(-0.12201999 0 0)
(-0.11997086 0 0)
(-0.11776506 0 0)
(-0.1154036 0 0)
(-0.11288756 0 0)
(-0.11021813 0 0)
(-0.1073966 0 0)
(-0.10442297 0 0)
(-0.10103543 0 0)
(-0.13402953 -0 -0)
(-0.13394335 0 0)
(-0.13368608 0 0)
(-0.13326004 0 0)
(-0.13266712 0 0)
(-0.13190886 0 0)
(-0.13098666 0 0)
(-0.12990176 0 0)
(-0.12865528 0 0)
(-0.1272482 0 0)
(-0.12568145 0 0)
(-0.12395586 0 0)
(-0.12207227 0 0)
(-0.12003148 0 0)
(-0.11783433 0 0)
(-0.11548175 0 0)
(-0.11297468 0 0)
(-0.11031419 0 0)
(-0.10750144 0 0)
(-0.10453629 0 0)
(-0.10115893 0 0)
(-0.13402953 -0 -0)
(-0.13394359 0 0)
(-0.13368707 0 0)
(-0.13326232 0 0)
(-0.13267128 0 0)
(-0.13191551 0 0)
(-0.13099642 0 0)
(-0.12991523 0 0)
(-0.128673 0 0)
(-0.12727067 0 0)
(-0.12570908 0 0)
(-0.123989 0 0)
(-0.12211116 0 0)
(-0.12007633 0 0)
(-0.11788523 0 0)
(-0.11553865 0 0)
(-0.11303744 0 0)
(-0.11038253 0 0)
(-0.10757489 0 0)
(-0.10461427 0 0)
(-0.10124963 0 0)
(-0.13402953 -0 -0)
(-0.13394389 0 0)
(-0.13368829 0 0)
(-0.13326511 0 0)
(-0.13267629 0 0)
(-0.13192342 0 0)
(-0.13100789 0 0)
(-0.12993089 0 0)
(-0.12869342 0 0)
(-0.12729633 0 0)
(-0.1257404 0 0)
(-0.12402632 0 0)
(-0.12215473 0 0)
(-0.12012628 0 0)
(-0.11794158 0 0)
(-0.11560131 0 0)
(-0.11310615 0 0)
(-0.11045684 0 0)
(-0.10765416 0 0)
(-0.10469777 0 0)
(-0.10135093 0 0)
(-0.13402953 -0 -0)
(-0.13394424 0 0)
(-0.13368969 0 0)
(-0.13326828 0 0)
(-0.13268194 0 0)
(-0.13193227 0 0)
(-0.13102063 0 0)
(-0.12994816 0 0)
(-0.12871582 0 0)
(-0.12732439 0 0)
(-0.12577455 0 0)
(-0.12406692 0 0)
(-0.12220204 0 0)
(-0.12018043 0 0)
(-0.1180026 0 0)
(-0.11566905 0 0)
(-0.11318028 0 0)
(-0.11053687 0 0)
(-0.10773936 0 0)
(-0.10478727 0 0)
(-0.10146358 0 0)
(-0.13402953 -0 -0)
(-0.13394462 0 0)
(-0.13369122 0 0)
(-0.13327173 0 0)
(-0.13268808 0 0)
(-0.13194184 0 0)
(-0.13103436 0 0)
(-0.12996674 0 0)
(-0.12873987 0 0)
(-0.12735449 0 0)
(-0.12581121 0 0)
(-0.12411053 0 0)
(-0.12225293 0 0)
(-0.12023879 0 0)
(-0.11806848 0 0)
(-0.11574233 0 0)
(-0.11326067 0 0)
(-0.11062385 0 0)
(-0.10783217 0 0)
(-0.10488503 0 0)
(-0.10159032 0 0)
(-0.13402953 -0 -0)
(-0.13394504 0 0)
(-0.13369288 0 0)
(-0.13327546 0 0)
(-0.13269468 0 0)
(-0.13195213 0 0)
(-0.13104912 0 0)
(-0.12998671 0 0)
(-0.12876577 0 0)
(-0.12738696 0 0)
(-0.12585085 0 0)
(-0.12415786 0 0)
(-0.12230834 0 0)
(-0.12030258 0 0)
(-0.11814079 0 0)
(-0.11582317 0 0)
(-0.11334983 0 0)
(-0.11072087 0 0)
(-0.10793636 0 0)
(-0.10499558 0 0)
(-0.10173608 0 0)
(-0.13402953 -0 -0)
(-0.13394549 0 0)
(-0.13369467 0 0)
(-0.13327948 0 0)
(-0.13270184 0 0)
(-0.1319633 0 0)
(-0.13106518 0 0)
(-0.13000849 0 0)
(-0.12879409 0 0)
(-0.12742258 0 0)
(-0.12589449 0 0)
(-0.12421015 0 0)
(-0.12236985 0 0)
(-0.12037375 0 0)
(-0.11822196 0 0)
(-0.1159145 0 0)
(-0.11345132 0 0)
(-0.11083232 0 0)
(-0.10805729 0 0)
(-0.10512535 0 0)
(-0.10190798 0 0)
(-0.13402953 -0 -0)
(-0.13394597 0 0)
(-0.13369662 0 0)
(-0.13328388 0 0)
(-0.13270967 0 0)
(-0.13197558 0 0)
(-0.13108284 0 0)
(-0.13003252 0 0)
(-0.12882539 0 0)
(-0.1274621 0 0)
(-0.12594306 0 0)
(-0.12426862 0 0)
(-0.12243896 0 0)
(-0.12045419 0 0)
(-0.11831431 0 0)
(-0.11601924 0 0)
(-0.11356885 0 0)
(-0.11096284 0 0)
(-0.10820096 0 0)
(-0.10528211 0 0)
(-0.10211519 0 0)
(-0.13402953 -0 -0)
(-0.13394651 0 0)
(-0.13369876 0 0)
(-0.13328869 0 0)
(-0.13271826 0 0)
(-0.13198903 0 0)
(-0.13110223 0 0)
(-0.13005892 0 0)
(-0.12885987 0 0)
(-0.12750572 0 0)
(-0.12599686 0 0)
(-0.12433362 0 0)
(-0.12251613 0 0)
(-0.12054448 0 0)
(-0.11841863 0 0)
(-0.11613846 0 0)
(-0.1137038 0 0)
(-0.11111449 0 0)
(-0.1083705 0 0)
(-0.10547117 0 0)
(-0.10236661 0 0)
(-0.13402953 -0 -0)
(-0.13394301 0 0)
(-0.13368468 0 0)
(-0.13325685 0 0)
(-0.1326614 0 0)
(-0.13189984 0 0)
(-0.13097354 0 0)
(-0.12988375 0 0)
(-0.12863164 0 0)
(-0.12721826 0 0)
(-0.12564459 0 0)
(-0.12391153 0 0)
(-0.12201999 0 0)
(-0.11997086 0 0)
(-0.11776506 0 0)
(-0.1154036 0 0)
(-0.11288756 0 0)
(-0.11021813 0 0)
(-0.1073966 0 0)
(-0.10442297 0 0)
(-0.10103543 0 0)
(-0.13402953 -0 -0)
(-0.13394335 0 0)
(-0.13368608 0 0)
(-0.13326004 0 0)
(-0.13266712 0 0)
(-0.13190886 0 0)
(-0.13098666 0 0)
(-0.12990176 0 0)
(-0.12865528 0 0)
(-0.1272482 0 0)
(-0.12568145 0 0)
(-0.12395586 0 0)
(-0.12207227 0 0)
(-0.12003148 0 0)
(-0.11783433 0 0)
(-0.11548175 0 0)
(-0.11297468 0 0)
(-0.11031419 0 0)
(-0.10750144 0 0)
(-0.10453629 0 0)
(-0.10115893 0 0)
(-0.13402953 -0 -0)
(-0.13394359 0 0)
(-0.13368707 0 0)
(-0.13326232 0 0)
(-0.13267128 0 0)
(-0.13191551 0 0)
(-0.13099642 0 0)
(-0.12991523 0 0)
(-0.128673 0 0)
(-0.12727067 0 0)
(-0.12570908 0 0)
(-0.123989 0 0)
(-0.12211116 0 0)
(-0.12007633 0 0)
(-0.11788523 0 0)
(-0.11553865 0 0)
(-0.11303744 0 0)
(-0.11038253 0 0)
(-0.10757489 0 0)
(-0.10461427 0 0)
(-0.10124963 0 0)
(-0.13402953 -0 -0)
(-0.13394389 0 0)
(-0.13368829 0 0)
(-0.13326511 0 0)
(-0.13267629 0 0)
(-0.13192342 0 0)
(-0.13100789 0 0)
(-0.12993089 0 0)
(-0.12869342 0 0)
(-0.12729633 0 0)
(-0.1257404 0 0)
(-0.12402632 0 0)
(-0.12215473 0 0)
(-0.12012628 0 0)
(-0.11794158 0 0)
(-0.11560131 0 0)
(-0.11310615 0 0)
(-0.11045684 0 0)
(-0.10765416 0 0)
(-0.10469777 0 0)
(-0.10135093 0 0)
(-0.13402953 -0 -0)
(-0.13394424 0 0)
(-0.13368969 0 0)
(-0.13326828 0 0)
(-0.13268194 0 0)
(-0.13193227 0 0)
(-0.13102063 0 0)
(-0.12994816 0 0)
(-0.12871582 0 0)
(-0.12732439 0 0)
(-0.12577455 0 0)
(-0.12406692 0 0)
(-0.12220204 0 0)
(-0.12018043 0 0)
(-0.1180026 0 0)
(-0.11566905 0 0)
(-0.11318028 0 0)
(-0.11053687 0 0)
(-0.10773936 0 0)
(-0.10478727 0 0)
(-0.10146358 0 0)
(-0.13402953 -0 -0)
(-0.13394462 0 0)
(-0.13369122 0 0)
(-0.13327173 0 0)
(-0.13268808 0 0)
(-0.13194184 0 0)
(-0.13103436 0 0)
(-0.12996674 0 0)
(-0.12873987 0 0)
(-0.12735449 0 0)
(-0.12581121 0 0)
(-0.12411053 0 0)
(-0.12225293 0 0)
(-0.12023879 0 0)
(-0.11806848 0 0)
(-0.11574233 0 0)
(-0.11326067 0 0)
(-0.11062385 0 0)
(-0.10783217 0 0)
(-0.10488503 0 0)
(-0.10159032 0 0)
(-0.13402953 -0 -0)
(-0.13394504 0 0)
(-0.13369288 0 0)
(-0.13327546 0 0)
(-0.13269468 0 0)
(-0.13195213 0 0)
(-0.13104912 0 0)
(-0.12998671 0 0)
(-0.12876577 0 0)
(-0.12738696 0 0)
(-0.12585085 0 0)
(-0.12415786 0 0)
(-0.12230834 0 0)
(-0.12030258 0 0)
(-0.11814079 0 0)
(-0.11582317 0 0)
(-0.11334983 0 0)
(-0.11072087 0 0)
(-0.10793636 0 0)
(-0.10499558 0 0)
(-0.10173608 0 0)
(-0.13402953 -0 -0)
(-0.13394549 0 0)
(-0.13369467 0 0)
(-0.13327948 0 0)
(-0.13270184 0 0)
(-0.1319633 0 0)
(-0.13106518 0 0)
(-0.13000849 0 0)
(-0.12879409 0 0)
(-0.12742258 0 0)
(-0.12589449 0 0)
(-0.12421015 0 0)
(-0.12236985 0 0)
(-0.12037375 0 0)
(-0.11822196 0 0)
(-0.1159145 0 0)
(-0.11345132 0 0)
(-0.11083232 0 0)
(-0.10805729 0 0)
(-0.10512535 0 0)
(-0.10190798 0 0)
(-0.13402953 -0 -0)
(-0.13394597 0 0)
(-0.13369662 0 0)
(-0.13328388 0 0)
(-0.13270967 0 0)
(-0.13197558 0 0)
(-0.13108284 0 0)
(-0.13003252 0 0)
(-0.12882539 0 0)
(-0.1274621 0 0)
(-0.12594306 0 0)
(-0.12426862 0 0)
(-0.12243896 0 0)
(-0.12045419 0 0)
(-0.11831431 0 0)
(-0.11601924 0 0)
(-0.11356885 0 0)
(-0.11096284 0 0)
(-0.10820096 0 0)
(-0.10528211 0 0)
(-0.10211519 0 0)
(-0.13402953 -0 -0)
(-0.13394651 0 0)
(-0.13369876 0 0)
(-0.13328869 0 0)
(-0.13271826 0 0)
(-0.13198903 0 0)
(-0.13110223 0 0)
(-0.13005892 0 0)
(-0.12885987 0 0)
(-0.12750572 0 0)
(-0.12599686 0 0)
(-0.12433362 0 0)
(-0.12251613 0 0)
(-0.12054448 0 0)
(-0.11841863 0 0)
(-0.11613846 0 0)
(-0.1137038 0 0)
(-0.11111449 0 0)
(-0.1083705 0 0)
(-0.10547117 0 0)
(-0.10236661 0 0)
(-0.096904133 0 0)
(-0.092282268 0 0)
(-0.087441021 0 0)
(-0.082392457 0 0)
(-0.077147364 0 0)
(-0.071719373 0 0)
(-0.066129334 0 0)
(-0.060406251 0 0)
(-0.05458049 0 0)
(-0.048678689 0 0)
(-0.042728667 0 0)
(-0.036760023 0 0)
(-0.030800692 0 0)
(-0.024876675 0 0)
(-0.019012719 0 0)
(-0.013228854 0 0)
(-0.0075463775 0 0)
(-0.0019913243 0 0)
(0.0034108897 0 0)
(0.0086455393 0 0)
(0.013697981 0 0)
(0.018545225 0 0)
(0.023162643 0 0)
(0.027538096 0 0)
(0.031674751 0 0)
(0.03554923 0 0)
(0.039127802 0 0)
(0.042391991 0 0)
(0.045343842 0 0)
(0.047970386 0 0)
(0.05022496 0 0)
(0.052083281 0 0)
(0.053564353 0 0)
(0.054658699 0 0)
(0.055296601 0 0)
(0.055468825 0 0)
(0.05520442 0 0)
(0.054423569 0 0)
(0.053070823 0 0)
(0.051109441 0 0)
(0.048558814 0 0)
(0.045504595 0 0)
(0.041912777 0 0)
(0.037716181 0 0)
(0.032882911 0 0)
(0.027451105 0 0)
(0.021474093 0 0)
(0.014915597 0 0)
(0.0077239526 0 0)
(0 0 0)
(-0.097041633 0 0)
(-0.092435075 0 0)
(-0.087607085 0 0)
(-0.082568881 0 0)
(-0.077330264 0 0)
(-0.071903922 0 0)
(-0.066310212 0 0)
(-0.060578421 0 0)
(-0.05473959 0 0)
(-0.048822086 0 0)
(-0.042855741 0 0)
(-0.036870987 0 0)
(-0.030895669 0 0)
(-0.024956187 0 0)
(-0.01907774 0 0)
(-0.013280183 0 0)
(-0.0075840392 0 0)
(-0.00201545 0 0)
(0.003399422 0 0)
(0.0086456634 0 0)
(0.013709554 0 0)
(0.018568155 0 0)
(0.023196674 0 0)
(0.027583825 0 0)
(0.031730239 0 0)
(0.035612855 0 0)
(0.039198941 0 0)
(0.042469659 0 0)
(0.045426318 0 0)
(0.048056642 0 0)
(0.050314441 0 0)
(0.052174927 0 0)
(0.053656731 0 0)
(0.054751036 0 0)
(0.055388116 0 0)
(0.05555837 0 0)
(0.055292997 0 0)
(0.054509834 0 0)
(0.053153695 0 0)
(0.051186264 0 0)
(0.048625953 0 0)
(0.045560782 0 0)
(0.04195801 0 0)
(0.03775156 0 0)
(0.032910415 0 0)
(0.027474085 0 0)
(0.021493932 0 0)
(0.014931296 0 0)
(0.0077326729 0 0)
(0 0 0)
(-0.09716147 0 0)
(-0.092590439 0 0)
(-0.08779467 0 0)
(-0.082784573 0 0)
(-0.077569165 0 0)
(-0.072160073 0 0)
(-0.066577157 0 0)
(-0.060849497 0 0)
(-0.055008391 0 0)
(-0.049083809 0 0)
(-0.043107522 0 0)
(-0.037111163 0 0)
(-0.031122915 0 0)
(-0.025169427 0 0)
(-0.019276091 0 0)
(-0.013463186 0 0)
(-0.0077509931 0 0)
(-0.0021654613 0 0)
(0.0032669118 0 0)
(0.0085302859 0 0)
(0.013611197 0 0)
(0.01848723 0 0)
(0.023133972 0 0)
(0.027539842 0 0)
(0.03170302 0 0)
(0.035601625 0 0)
(0.039202923 0 0)
(0.042487015 0 0)
(0.045455268 0 0)
(0.048096683 0 0)
(0.050364623 0 0)
(0.052233195 0 0)
(0.05372149 0 0)
(0.054821864 0 0)
(0.055463569 0 0)
(0.055636048 0 0)
(0.055374076 0 0)
(0.054592775 0 0)
(0.053236236 0 0)
(0.051265883 0 0)
(0.048699385 0 0)
(0.045626034 0 0)
(0.042013507 0 0)
(0.037797127 0 0)
(0.032947928 0 0)
(0.027506864 0 0)
(0.021522214 0 0)
(0.014952593 0 0)
(0.0077440323 0 0)
(0 0 0)
(-0.097307492 0 0)
(-0.092791899 0 0)
(-0.088046756 0 0)
(-0.083081777 0 0)
(-0.077905235 0 0)
(-0.072528128 0 0)
(-0.066969577 0 0)
(-0.06125784 0 0)
(-0.055424316 0 0)
(-0.04950031 0 0)
(-0.043519499 0 0)
(-0.037514703 0 0)
(-0.03151482 0 0)
(-0.025546949 0 0)
(-0.019636756 0 0)
(-0.013805002 0 0)
(-0.0080720875 0 0)
(-0.0024642194 0 0)
(0.0029918646 0 0)
(0.0082796006 0 0)
(0.013385382 0 0)
(0.018286836 0 0)
(0.022959915 0 0)
(0.027393247 0 0)
(0.031582211 0 0)
(0.035505566 0 0)
(0.039130795 0 0)
(0.042436984 0 0)
(0.045425243 0 0)
(0.04808558 0 0)
(0.050371159 0 0)
(0.052255249 0 0)
(0.053757126 0 0)
(0.054869872 0 0)
(0.055521769 0 0)
(0.05570183 0 0)
(0.055447939 0 0)
(0.054672478 0 0)
(0.053319353 0 0)
(0.051349738 0 0)
(0.048780241 0 0)
(0.045701311 0 0)
(0.0420806 0 0)
(0.037854387 0 0)
(0.032996619 0 0)
(0.027550246 0 0)
(0.0215597 0 0)
(0.014980297 0 0)
(0.0077584363 0 0)
(0 0 0)
(-0.097480664 0 0)
(-0.093040565 0 0)
(-0.088364468 0 0)
(-0.083461351 0 0)
(-0.078339223 0 0)
(-0.073008556 0 0)
(-0.067487606 0 0)
(-0.061803733 0 0)
(-0.05598777 0 0)
(-0.050072551 0 0)
(-0.044093428 0 0)
(-0.03808391 0 0)
(-0.032073935 0 0)
(-0.026091416 0 0)
(-0.020162349 0 0)
(-0.014308319 0 0)
(-0.0085502477 0 0)
(-0.0029146019 0 0)
(0.0025716654 0 0)
(0.0078909056 0 0)
(0.013029112 0 0)
(0.017964193 0 0)
(0.022672235 0 0)
(0.027141312 0 0)
(0.031365072 0 0)
(0.035322615 0 0)
(0.038980522 0 0)
(0.042317111 0 0)
(0.045333933 0 0)
(0.048021759 0 0)
(0.050332722 0 0)
(0.052239253 0 0)
(0.053761801 0 0)
(0.054893879 0 0)
(0.055561833 0 0)
(0.05575444 0 0)
(0.055513467 0 0)
(0.054748351 0 0)
(0.053402022 0 0)
(0.051436502 0 0)
(0.048867765 0 0)
(0.045786198 0 0)
(0.04215867 0 0)
(0.03792265 0 0)
(0.03305611 0 0)
(0.027604024 0 0)
(0.021605999 0 0)
(0.015013885 0 0)
(0.007775666 0 0)
(0 0 0)
(-0.097683785 0 0)
(-0.09333924 0 0)
(-0.088750823 0 0)
(-0.08392668 0 0)
(-0.078874514 0 0)
(-0.073604592 0 0)
(-0.068134416 0 0)
(-0.062489757 0 0)
(-0.056701665 0 0)
(-0.050804233 0 0)
(-0.044833235 0 0)
(-0.038823062 0 0)
(-0.032804755 0 0)
(-0.026807311 0 0)
(-0.020857446 0 0)
(-0.014977646 0 0)
(-0.0091898554 0 0)
(-0.0035209958 0 0)
(0.0020017122 0 0)
(0.0073598287 0 0)
(0.012538596 0 0)
(0.017515569 0 0)
(0.022266925 0 0)
(0.026780682 0 0)
(0.031048513 0 0)
(0.035049168 0 0)
(0.038748675 0 0)
(0.042124744 0 0)
(0.045178957 0 0)
(0.047902442 0 0)
(0.050246528 0 0)
(0.052183256 0 0)
(0.053733807 0 0)
(0.054891727 0 0)
(0.055581554 0 0)
(0.055792403 0 0)
(0.055569093 0 0)
(0.05481856 0 0)
(0.053483193 0 0)
(0.051525454 0 0)
(0.048960677 0 0)
(0.045879284 0 0)
(0.042246834 0 0)
(0.038001441 0 0)
(0.033125772 0 0)
(0.027667436 0 0)
(0.021660616 0 0)
(0.015053198 0 0)
(0.007795584 0 0)
(0 0 0)
(-0.097921615 0 0)
(-0.093692639 0 0)
(-0.089210758 0 0)
(-0.08448284 0 0)
(-0.079516479 0 0)
(-0.074321777 0 0)
(-0.06891514 0 0)
(-0.063321407 0 0)
(-0.057571409 0 0)
(-0.05170067 0 0)
(-0.045745279 0 0)
(-0.039738697 0 0)
(-0.033713585 0 0)
(-0.027700945 0 0)
(-0.021728481 0 0)
(-0.015819663 0 0)
(-0.0099974401 0 0)
(-0.0042895725 0 0)
(0.0012761572 0 0)
(0.0066804589 0 0)
(0.011907916 0 0)
(0.016935568 0 0)
(0.021739085 0 0)
(0.026306115 0 0)
(0.030627673 0 0)
(0.034681139 0 0)
(0.038431212 0 0)
(0.041855494 0 0)
(0.044956331 0 0)
(0.047724468 0 0)
(0.050109541 0 0)
(0.052083787 0 0)
(0.05366994 0 0)
(0.054861027 0 0)
(0.055578808 0 0)
(0.055813152 0 0)
(0.055612668 0 0)
(0.054881307 0 0)
(0.053560695 0 0)
(0.051614358 0 0)
(0.049057346 0 0)
(0.04597934 0 0)
(0.042343689 0 0)
(0.038089362 0 0)
(0.033204657 0 0)
(0.027739767 0 0)
(0.02172277 0 0)
(0.015097504 0 0)
(0.0078178693 0 0)
(0 0 0)
(-0.098201029 0 0)
(-0.094107196 0 0)
(-0.089750512 0 0)
(-0.085136222 0 0)
(-0.080271551 0 0)
(-0.075166553 0 0)
(-0.069836924 0 0)
(-0.064305585 0 0)
(-0.058604322 0 0)
(-0.052770479 0 0)
(-0.046837993 0 0)
(-0.040838913 0 0)
(-0.03480853 0 0)
(-0.028780505 0 0)
(-0.02278355 0 0)
(-0.016842158 0 0)
(-0.010980695 0 0)
(-0.0052281067 0 0)
(0.00038738801 0 0)
(0.0058457447 0 0)
(0.011130454 0 0)
(0.016217566 0 0)
(0.021082102 0 0)
(0.025711875 0 0)
(0.030096803 0 0)
(0.034212731 0 0)
(0.038022895 0 0)
(0.041504805 0 0)
(0.044661404 0 0)
(0.047483048 0 0)
(0.049917495 0 0)
(0.051937229 0 0)
(0.053566711 0 0)
(0.054798119 0 0)
(0.05555011 0 0)
(0.055813801 0 0)
(0.0556412 0 0)
(0.054933596 0 0)
(0.053632248 0 0)
(0.051701369 0 0)
(0.04915555 0 0)
(0.046084027 0 0)
(0.042447494 0 0)
(0.038185064 0 0)
(0.033291385 0 0)
(0.027819717 0 0)
(0.021791546 0 0)
(0.015146441 0 0)
(0.0078423251 0 0)
(0 0 0)
(-0.098530944 0 0)
(-0.094590909 0 0)
(-0.090377332 0 0)
(-0.085893414 0 0)
(-0.081146402 0 0)
(-0.076147073 0 0)
(-0.07090948 0 0)
(-0.065454696 0 0)
(-0.05981373 0 0)
(-0.054023917 0 0)
(-0.04811966 0 0)
(-0.042132868 0 0)
(-0.036099852 0 0)
(-0.030056447 0 0)
(-0.024033087 0 0)
(-0.018055174 0 0)
(-0.01214926 0 0)
(-0.0063457441 0 0)
(-0.00067300779 0 0)
(0.004847475 0 0)
(0.010198091 0 0)
(0.015353964 0 0)
(0.020288918 0 0)
(0.024990645 0 0)
(0.029449123 0 0)
(0.033637977 0 0)
(0.037518055 0 0)
(0.04106676 0 0)
(0.044288637 0 0)
(0.047173474 0 0)
(0.049665902 0 0)
(0.051738763 0 0)
(0.053419565 0 0)
(0.05469926 0 0)
(0.055492054 0 0)
(0.055790508 0 0)
(0.055651227 0 0)
(0.054972463 0 0)
(0.053694679 0 0)
(0.051783243 0 0)
(0.049252671 0 0)
(0.046191078 0 0)
(0.042555892 0 0)
(0.038286418 0 0)
(0.033384302 0 0)
(0.027905916 0 0)
(0.021865695 0 0)
(0.015198964 0 0)
(0.0078684798 0 0)
(0 0 0)
(-0.098922063 0 0)
(-0.095152736 0 0)
(-0.091098574 0 0)
(-0.086762111 0 0)
(-0.082151284 0 0)
(-0.077274261 0 0)
(-0.072142847 0 0)
(-0.066778347 0 0)
(-0.061209368 0 0)
(-0.055470866 0 0)
(-0.049600453 0 0)
(-0.043631654 0 0)
(-0.037598852 0 0)
(-0.031539876 0 0)
(-0.025487516 0 0)
(-0.019468106 0 0)
(-0.013511132 0 0)
(-0.0076495854 0 0)
(-0.0019126229 0 0)
(0.003677803 0 0)
(0.0091035919 0 0)
(0.014337963 0 0)
(0.019352808 0 0)
(0.024136417 0 0)
(0.028678601 0 0)
(0.032951114 0 0)
(0.036911513 0 0)
(0.040536628 0 0)
(0.043833364 0 0)
(0.046791195 0 0)
(0.049350558 0 0)
(0.051484545 0 0)
(0.053224661 0 0)
(0.05456057 0 0)
(0.055400965 0 0)
(0.055739984 0 0)
(0.055639102 0 0)
(0.054994352 0 0)
(0.053745169 0 0)
(0.051857526 0 0)
(0.049345851 0 0)
(0.046297461 0 0)
(0.042666431 0 0)
(0.038391484 0 0)
(0.033481542 0 0)
(0.027996566 0 0)
(0.021943793 0 0)
(0.015254228 0 0)
(0.0078958784 0 0)
(0 0 0)
(-0.098535054 0 0)
(-0.094935441 0 0)
(-0.091045062 0 0)
(-0.08686816 0 0)
(-0.082409636 0 0)
(-0.077672769 0 0)
(-0.072670441 0 0)
(-0.0674247 0 0)
(-0.061959559 0 0)
(-0.056308153 0 0)
(-0.050509091 0 0)
(-0.044595456 0 0)
(-0.038601296 0 0)
(-0.032565637 0 0)
(-0.026522823 0 0)
(-0.020500626 0 0)
(-0.01453019 0 0)
(-0.0086466623 0 0)
(-0.0028806532 0 0)
(0.0027466896 0 0)
(0.008217036 0 0)
(0.01350077 0 0)
(0.018568044 0 0)
(0.023407399 0 0)
(0.028009108 0 0)
(0.032343362 0 0)
(0.036364456 0 0)
(0.040047806 0 0)
(0.043402872 0 0)
(0.046419429 0 0)
(0.049034114 0 0)
(0.051218708 0 0)
(0.053008566 0 0)
(0.054393136 0 0)
(0.055276874 0 0)
(0.055652276 0 0)
(0.055586496 0 0)
(0.054974773 0 0)
(0.053752828 0 0)
(0.051890993 0 0)
(0.049400546 0 0)
(0.046368202 0 0)
(0.04274514 0 0)
(0.03846937 0 0)
(0.033556055 0 0)
(0.028068787 0 0)
(0.022008099 0 0)
(0.015300795 0 0)
(0.0079198425 0 0)
(0 0 0)
(-0.096904133 0 0)
(-0.092282268 0 0)
(-0.087441021 0 0)
(-0.082392457 0 0)
(-0.077147364 0 0)
(-0.071719373 0 0)
(-0.066129334 0 0)
(-0.060406251 0 0)
(-0.05458049 0 0)
(-0.048678689 0 0)
(-0.042728667 0 0)
(-0.036760023 0 0)
(-0.030800692 0 0)
(-0.024876675 0 0)
(-0.019012719 0 0)
(-0.013228854 0 0)
(-0.0075463775 0 0)
(-0.0019913243 0 0)
(0.0034108897 0 0)
(0.0086455393 0 0)
(0.013697981 0 0)
(0.018545225 0 0)
(0.023162643 0 0)
(0.027538096 0 0)
(0.031674751 0 0)
(0.03554923 0 0)
(0.039127802 0 0)
(0.042391991 0 0)
(0.045343842 0 0)
(0.047970386 0 0)
(0.05022496 0 0)
(0.052083281 0 0)
(0.053564353 0 0)
(0.054658699 0 0)
(0.055296601 0 0)
(0.055468825 0 0)
(0.05520442 0 0)
(0.054423569 0 0)
(0.053070823 0 0)
(0.051109441 0 0)
(0.048558814 0 0)
(0.045504595 0 0)
(0.041912777 0 0)
(0.037716181 0 0)
(0.032882911 0 0)
(0.027451105 0 0)
(0.021474093 0 0)
(0.014915597 0 0)
(0.0077239526 0 0)
(0 0 0)
(-0.097041633 0 0)
(-0.092435075 0 0)
(-0.087607085 0 0)
(-0.082568881 0 0)
(-0.077330264 0 0)
(-0.071903922 0 0)
(-0.066310212 0 0)
(-0.060578421 0 0)
(-0.05473959 0 0)
(-0.048822086 0 0)
(-0.042855741 0 0)
(-0.036870987 0 0)
(-0.030895669 0 0)
(-0.024956187 0 0)
(-0.01907774 0 0)
(-0.013280183 0 0)
(-0.0075840392 0 0)
(-0.00201545 0 0)
(0.003399422 0 0)
(0.0086456634 0 0)
(0.013709554 0 0)
(0.018568155 0 0)
(0.023196674 0 0)
(0.027583825 0 0)
(0.031730239 0 0)
(0.035612855 0 0)
(0.039198941 0 0)
(0.042469659 0 0)
(0.045426318 0 0)
(0.048056642 0 0)
(0.050314441 0 0)
(0.052174927 0 0)
(0.053656731 0 0)
(0.054751036 0 0)
(0.055388116 0 0)
(0.05555837 0 0)
(0.055292997 0 0)
(0.054509834 0 0)
(0.053153695 0 0)
(0.051186264 0 0)
(0.048625953 0 0)
(0.045560782 0 0)
(0.04195801 0 0)
(0.03775156 0 0)
(0.032910415 0 0)
(0.027474085 0 0)
(0.021493932 0 0)
(0.014931296 0 0)
(0.0077326729 0 0)
(0 0 0)
(-0.09716147 0 0)
(-0.092590439 0 0)
(-0.08779467 0 0)
(-0.082784573 0 0)
(-0.077569165 0 0)
(-0.072160073 0 0)
(-0.066577157 0 0)
(-0.060849497 0 0)
(-0.055008391 0 0)
(-0.049083809 0 0)
(-0.043107522 0 0)
(-0.037111163 0 0)
(-0.031122915 0 0)
(-0.025169427 0 0)
(-0.019276091 0 0)
(-0.013463186 0 0)
(-0.0077509931 0 0)
(-0.0021654613 0 0)
(0.0032669118 0 0)
(0.0085302859 0 0)
(0.013611197 0 0)
(0.01848723 0 0)
(0.023133972 0 0)
(0.027539842 0 0)
(0.03170302 0 0)
(0.035601625 0 0)
(0.039202923 0 0)
(0.042487015 0 0)
(0.045455268 0 0)
(0.048096683 0 0)
(0.050364623 0 0)
(0.052233195 0 0)
(0.05372149 0 0)
(0.054821864 0 0)
(0.055463569 0 0)
(0.055636048 0 0)
(0.055374076 0 0)
(0.054592775 0 0)
(0.053236236 0 0)
(0.051265883 0 0)
(0.048699385 0 0)
(0.045626034 0 0)
(0.042013507 0 0)
(0.037797127 0 0)
(0.032947928 0 0)
(0.027506864 0 0)
(0.021522214 0 0)
(0.014952593 0 0)
(0.0077440323 0 0)
(0 0 0)
(-0.097307492 0 0)
(-0.092791899 0 0)
(-0.088046756 0 0)
(-0.083081777 0 0)
(-0.077905235 0 0)
(-0.072528128 0 0)
(-0.066969577 0 0)
(-0.06125784 0 0)
(-0.055424316 0 0)
(-0.04950031 0 0)
(-0.043519499 0 0)
(-0.037514703 0 0)
(-0.03151482 0 0)
(-0.025546949 0 0)
(-0.019636756 0 0)
(-0.013805002 0 0)
(-0.0080720875 0 0)
(-0.0024642194 0 0)
(0.0029918646 0 0)
(0.0082796006 0 0)
(0.013385382 0 0)
(0.018286836 0 0)
(0.022959915 0 0)
(0.027393247 0 0)
(0.031582211 0 0)
(0.035505566 0 0)
(0.039130795 0 0)
(0.042436984 0 0)