/*--------------------------------*- C++ -*----------------------------------*\
| =========                 |                                                 |
| \\      /  F ield         | OpenFOAM: The Open Source CFD Toolbox           |
|  \\    /   O peration     | Version:  v2012                                 |
|   \\  /    A nd           | Website:  www.openfoam.com                      |
|    \\/     M anipulation  |                                                 |
\*---------------------------------------------------------------------------*/
FoamFile
{
    version     2.0;
    format      ascii;
    class       volVectorField;
    location    "104.868788511957604";
    object      U;
}
// * * * * * * * * * * * * * * * * * * * * * * * * * * * * * * * * * * * * * //

dimensions      [0 1 -1 0 0 0 0];


internalField   nonuniform List<vector> 
9200
(
(2.6577955 0.0001785631 6.2929547e-22)
(2.6572056 0.00049065735 9.9831194e-22)
(2.6579939 -0.0006262404 6.6465939e-22)
(2.6565487 0.001271364 6.7857559e-22)
(2.6571151 -0.0025774202 6.0329635e-22)
(2.6600107 -0.00090380351 -7.0094356e-22)
(2.6552277 0.0021597486 6.7362767e-24)
(2.6560644 -0.0037679248 -1.8044033e-22)
(2.6592788 -0.0041925133 -1.1817408e-21)
(2.6625151 -0.0012182845 -9.8805593e-22)
(2.6533846 0.0037493474 -4.4668089e-24)
(2.6540992 -0.0052811757 9.6414157e-22)
(2.6583273 -0.0064280863 2.6277314e-22)
(2.6620567 -0.0056977463 2.4359812e-22)
(2.6656472 -0.0014497298 -3.8969921e-22)
(2.6508436 0.005792747 -2.1966486e-21)
(2.6512969 -0.006274844 -9.638943e-22)
(2.6565523 -0.0092929496 -9.5686646e-23)
(2.6612596 -0.0089836784 9.3566332e-22)
(2.6656171 -0.0066937008 5.4225284e-22)
(2.6690099 -0.0015640718 2.797037e-22)
(2.6475233 0.0086345879 1.5815775e-21)
(2.6475348 -0.007177559 -1.3901665e-21)
(2.6538648 -0.011777319 -6.8979646e-23)
(2.6598003 -0.013234173 1.3817798e-22)
(2.6652359 -0.010778829 -1.4199379e-22)
(2.6695033 -0.0071826329 -1.1218113e-22)
(2.6723591 -0.0015321879 1.548287e-22)
(2.6433458 0.012151042 -5.0177357e-22)
(2.6426876 -0.0076074748 6.0099977e-23)
(2.6501869 -0.014378243 7.0839783e-22)
(2.6573474 -0.017341992 8.0279313e-22)
(2.6644663 -0.016144327 3.5829866e-22)
(2.6697589 -0.011792723 6.9391258e-22)
(2.6734608 -0.0071149455 -1.6055251e-22)
(2.6754259 -0.0013485243 -1.6334404e-22)
(2.6382357 0.016432249 0)
(2.6367954 -0.0076993045 -7.7158586e-22)
(2.6453186 -0.016665566 -1.0594747e-21)
(2.6538293 -0.021863083 2.1861278e-23)
(2.6627298 -0.021696069 -1.0471218e-21)
(2.6699908 -0.017985164 -2.5217252e-21)
(2.6745722 -0.01191322 -7.972155e-22)
(2.6771772 -0.0064671759 5.5397057e-23)
(2.6779831 -0.0010154383 -7.7091227e-23)
(2.6321326 0.021325881 1.4723794e-23)
(2.62988 -0.0073346404 7.8718332e-23)
(2.6393106 -0.018688205 8.3834567e-22)
(2.6489265 -0.026352996 2.2469673e-21)
(2.6599365 -0.028032011 9.9410379e-22)
(2.6694002 -0.024774706 -2.3904974e-23)
(2.6761242 -0.018563648 -4.9537854e-22)
(2.6793195 -0.011076266 4.9898784e-22)
(2.6803655 -0.0052394673 -6.0549892e-22)
(2.6797856 -0.0004657573 7.9786838e-22)
(2.6249721 0.026678392 -4.4204811e-22)
(2.6221129 -0.0066188347 -3.5660115e-22)
(2.6321782 -0.020219784 1.6616849e-23)
(2.6426175 -0.030774395 7.8358893e-22)
(2.655616 -0.034749855 -3.6605429e-22)
(2.667871 -0.032805945 -7.7279103e-22)
(2.6771511 -0.026264134 2.4792899e-21)
(2.6824533 -0.017741706 1.7530222e-21)
(2.683655 -0.0092432144 0)
(2.682793 -0.0034694064 4.5948223e-22)
(2.6806197 0.00034829834 -8.6166723e-22)
(2.6166876 0.03216683 1.2124041e-22)
(2.6137216 -0.0056259797 -5.4416506e-22)
(2.6241248 -0.021178878 7.6501252e-22)
(2.6348282 -0.03480773 -3.5772104e-22)
(2.6496179 -0.041762653 -1.8243435e-21)
(2.6647746 -0.0417902 -3.5581928e-21)
(2.6775256 -0.035714574 -1.1396102e-21)
(2.6855177 -0.025895474 -1.0213881e-21)
(2.6885482 -0.015419582 -1.168098e-21)
(2.687234 -0.006424957 4.1666286e-22)
(2.6842936 -0.0012120858 -5.3855019e-22)
(2.6804292 0.0011372147 5.4565095e-22)
(2.6071881 0.037408979 6.0321681e-22)
(2.6050484 -0.0045368238 3.1782641e-22)
(2.615424 -0.021442157 5.6770478e-22)
(2.6256745 -0.038187573 2.7370157e-22)
(2.6416986 -0.04870827 5.8767934e-23)
(2.6598107 -0.051657942 -4.9769803e-22)
(2.6764886 -0.046808099 5.0658288e-22)
(2.6884124 -0.036296818 -1.187984e-21)
(2.6939639 -0.023437764 -7.8813766e-22)
(2.693945 -0.011578234 1.1405429e-22)
(2.6897469 -0.0027174297 9.0876197e-22)
(2.6846815 0.0014440936 -1.5531059e-21)
(2.6791608 0.0019796772 1.9941019e-21)
(2.5963979 0.041886667 -4.3922776e-21)
(2.5965256 -0.0035643652 2.3113608e-22)
(2.6064733 -0.020947857 -1.0800376e-21)
(2.6153522 -0.040579281 -2.1700068e-22)
(2.6317888 -0.055195214 -5.1979226e-22)
(2.6525259 -0.062092882 1.5969045e-21)
(2.6736094 -0.059565175 2.5633251e-21)
(2.6903055 -0.049071757 -1.6713737e-22)
(2.6998911 -0.034110499 3.940764e-22)
(2.7018577 -0.018775818 1.7390023e-23)
(2.6981914 -0.0063081957 1.7261893e-21)
(2.6909562 0.0016985506 -8.1332909e-22)
(2.68381 0.0043589451 -6.8215272e-22)
(2.6768354 0.0028579296 1.5299675e-22)
(2.5843028 0.044419794 -2.8997447e-21)
(2.5886571 -0.003093624 -2.1653609e-23)
(2.5977544 -0.019677411 -3.3352625e-23)
(2.6041922 -0.041640475 2.0212049e-22)
(2.619883 -0.060739776 -5.2127308e-22)
(2.6426133 -0.07267779 1.1212073e-22)
(2.6682315 -0.073813253 -4.3134259e-22)
(2.6906925 -0.064394493 -1.9989843e-22)
(2.7055048 -0.04781934 5.868879e-22)
(2.7111263 -0.028858028 -9.228518e-22)
(2.7085361 -0.01196207 4.4636397e-22)
(2.7008986 0.00017592639 -2.6541427e-22)
(2.6907252 0.0066154613 -3.7419587e-22)
(2.6816775 0.0073940774 2.9772638e-21)
(2.6735021 0.0037158695 -1.0953966e-21)
(2.5706943 0.044614085 1.4986056e-20)
(2.5819572 -0.0029108726 1.1343251e-21)
(2.5898214 -0.017657267 3.9073786e-22)
(2.5926326 -0.041017737 -2.950545e-21)
(2.606101 -0.064795171 1.5788318e-21)
(2.6297974 -0.082885746 1.8046366e-21)
(2.6598067 -0.089219468 -2.3843271e-21)
(2.6887639 -0.082330917 2.8422285e-22)
(2.7103178 -0.06493264 3.8623736e-21)
(2.721023 -0.042449438 5.2079652e-22)
(2.7211739 -0.020480736 -2.9028267e-21)
(2.7133829 -0.0032509723 1.3317197e-21)
(2.7017807 0.0075438781 -2.1613656e-21)
(2.6889891 0.011792324 5.316106e-21)
(2.6783633 0.010410609 -3.2389012e-21)
(2.6692684 0.0045177154 -2.354486e-21)
(2.5547145 0.042974396 -2.2699806e-21)
(2.5770063 -0.0037904338 -5.7325521e-21)
(2.5834175 -0.015046069 3.3987562e-22)
(2.5812059 -0.038384802 -3.8626152e-21)
(2.590663 -0.06678677 1.1433694e-21)
(2.6139134 -0.092077486 -6.9978535e-22)
(2.6477698 -0.10533209 -5.1122454e-21)
(2.6837684 -0.10274264 -5.366246e-21)
(2.7134634 -0.085833293 -3.1614382e-21)
(2.7311945 -0.060113951 3.1499561e-21)
(2.7355611 -0.032677968 3.7390842e-21)
(2.7290817 -0.0092246978 -3.437548e-22)
(2.7159245 0.0069027521 -6.8168903e-22)
(2.7006819 0.015392826 4.1628616e-21)
(2.6857754 0.016962508 3.8354998e-21)
(2.6739854 0.013277339 -2.3576782e-21)
(2.6642761 0.0052301083 -2.8733183e-21)
(2.5379639 0.039555678 -3.1369693e-20)
(2.5727479 -0.0073534673 9.4140422e-22)
(2.5796221 -0.011608161 -2.5606649e-22)
(2.5705054 -0.033332135 1.4425394e-21)
(2.5738777 -0.066126611 -3.1670652e-21)
(2.5948939 -0.099558769 1.6512429e-21)
(2.6316422 -0.1215373 -3.5680793e-21)
(2.6748669 -0.12537737 -9.5376652e-22)
(2.7140757 -0.11068179 5.3857789e-22)
(2.740855 -0.082591559 -1.2064139e-21)
(2.7515983 -0.049261812 1.3288588e-21)
(2.7477101 -0.0186607 1.9819055e-21)
(2.734056 0.0043351103 -1.5848213e-21)
(2.7158569 0.017918439 -2.5968119e-21)
(2.6976097 0.02329218 -3.0472966e-21)
(2.6812149 0.021884913 -2.130867e-21)
(2.6687046 0.015886753 7.0330405e-21)
(2.6586827 0.0058470017 3.2188508e-21)
(2.5191907 0.031370924 -1.3139905e-21)
(2.5743198 -0.014994121 -8.0709927e-23)
(2.579141 -0.0078375935 -1.0453702e-22)
(2.561246 -0.025659421 5.2983484e-21)
(2.5561537 -0.062227734 -1.6038688e-21)
(2.5727902 -0.10458987 3.6517053e-21)
(2.6110373 -0.1371252 -3.5248044e-21)
(2.661257 -0.14976907 1.7116262e-21)
(2.7111101 -0.13956601 3.3868488e-21)
(2.7491752 -0.11041735 -1.510161e-21)
(2.7687506 -0.071302228 6.4897181e-22)
(2.7695077 -0.032297794 6.2509836e-21)
(2.7561629 -0.0010681329 -2.6237297e-21)
(2.7355369 0.019346196 3.7692937e-21)
(2.713094 0.02913363 1.850618e-21)
(2.692716 0.030837386 2.1302084e-22)
(2.6755042 0.026360859 -6.4013405e-21)
(2.6627069 0.018161844 -7.0797782e-21)
(2.6526479 0.0063642343 2.9743515e-21)
(2.4997464 0.017860616 4.3022144e-21)
(2.5795911 -0.024927453 -2.248373e-21)
(2.580899 -0.0036372901 1.2351784e-21)
(2.5559634 -0.014880608 2.0452922e-21)
(2.5379139 -0.054685626 1.2222158e-21)
(2.5477715 -0.10647101 1.1306791e-20)
(2.5857238 -0.1513046 2.6467146e-21)
(2.6421952 -0.17529323 7.3516783e-21)
(2.7034695 -0.17233221 1.0979874e-20)
(2.7550554 -0.14415796 8.7795311e-21)
(2.7864335 -0.099718674 1.188947e-20)
(2.7943685 -0.051415856 -8.8193143e-22)
(2.7828937 -0.0099084072 6.821734e-21)
(2.7599646 0.018944339 -6.1842867e-23)
(2.7332862 0.034843206 5.1975383e-23)
(2.7077955 0.039903222 -1.7418484e-21)
(2.6862568 0.037693064 9.599017e-21)
(2.6688807 0.030247887 -7.1483784e-21)
(2.6561878 0.020056978 1.0555988e-21)
(2.6463261 0.0067747913 -1.1120211e-20)
(2.4810828 -0.00062533012 1.4186648e-21)
(2.5884158 -0.037753771 1.7211666e-20)
(2.5874425 0.0018947104 3.455806e-21)
(2.5506204 -0.00090005916 -2.7578057e-22)
(2.5198781 -0.042622308 -3.0413591e-21)
(2.5200065 -0.10450594 4.6647944e-21)
(2.5555768 -0.16326732 -1.5806438e-21)
(2.6170692 -0.20116405 -2.2061535e-21)
(2.690015 -0.2086092 -7.9091831e-21)
(2.7572231 -0.18416242 1.7941454e-21)
(2.8037372 -0.1356387 -3.1439739e-21)
(2.8221864 -0.077223844 -1.1667349e-20)
(2.8146459 -0.0234503 1.635949e-21)
(2.7901218 0.016411288 -1.076036e-20)
(2.7586051 0.039951857 4.5450558e-21)
(2.7274563 0.049815397 -1.0194818e-21)
(2.7003039 0.04968474 1.4609776e-22)
(2.678558 0.043616871 5.4160313e-23)
(2.6615963 0.033461721 -2.2966503e-21)
(2.6493354 0.021555414 8.9663495e-21)
(2.6398589 0.0070789476 6.9602156e-22)
(2.4640811 -0.023402843 0)
(2.5998827 -0.053919492 5.5387696e-21)
(2.5985525 0.0080024799 1.6900049e-22)
(2.5482541 0.016394165 -3.0874105e-23)
(2.5014311 -0.02557281 -2.3955343e-21)
(2.4895365 -0.098004317 -1.4546116e-20)
(2.5205013 -0.1721165 6.6139253e-21)
(2.5852695 -0.22639272 -1.1137636e-20)
(2.66954 -0.24774368 -2.1423191e-20)
(2.754172 -0.23056638 1.4065993e-22)
(2.8194578 -0.1800512 -1.7672878e-20)
(2.8525455 -0.1113511 -1.9644525e-20)
(2.8519902 -0.042978018 9.0886545e-21)
(2.8268745 0.010761372 1.6192162e-22)
(2.7901934 0.044581908 7.3380074e-21)
(2.7521497 0.060408544 7.5468494e-21)
(2.7185105 0.063403468 -1.6029827e-21)
(2.691081 0.058084922 2.1549148e-22)
(2.6699728 0.048467044 -7.4109682e-21)
(2.6538959 0.035971475 -2.2817154e-21)
(2.6423199 0.022664004 -6.2290214e-21)
(2.6333694 0.007282934 9.0242692e-21)
(2.4483467 -0.048941243 -2.0615109e-21)
(2.6112428 -0.073110302 -2.3186856e-20)
(2.6133894 0.01458159 -8.9599468e-21)
(2.5497951 0.037349472 3.9947253e-21)
(2.4834403 -0.0038796799 2.1634107e-21)
(2.4568165 -0.086526716 -2.0380673e-20)
(2.4806533 -0.17717213 2.252371e-20)
(2.5464892 -0.24988933 -6.0582981e-21)
(2.6408171 -0.28864904 4.8584163e-21)
(2.744015 -0.28312324 2.8924589e-20)
(2.8319064 -0.23386224 2.6240247e-20)
(2.8847159 -0.15542248 -2.4330073e-21)
(2.8952561 -0.070305661 -2.0683092e-20)
(2.8714193 0.00097342308 2.2257277e-20)
(2.8292324 0.048222307 -1.1053021e-20)
(2.7830122 0.072277118 7.9509036e-21)
(2.741235 0.07896092 -2.1169131e-21)
(2.7071174 0.074982859 2.1725344e-21)
(2.6806389 0.064875953 -3.6591493e-23)
(2.6608456 0.052194554 4.5818586e-21)
(2.6460014 0.037790599 2.5352563e-21)
(2.635288 0.02340713 -3.6567588e-21)
(2.6269602 0.0073961061 0)
(2.4293014 -0.075745177 0)
(2.6176977 -0.094387402 2.7633163e-21)
(2.6282484 0.021394665 -9.8423776e-21)
(2.555152 0.06226044 4.002009e-21)
(2.4661533 0.022869739 -7.5143497e-22)
(2.422056 -0.069949227 8.4921651e-21)
(2.4367214 -0.17818197 -1.7147154e-21)
(2.5014314 -0.27106487 -2.9424953e-21)
(2.6037861 -0.33048401 -2.2160495e-21)
(2.7254352 -0.3412767 1.3621534e-20)
(2.8390538 -0.29768774 -1.2444583e-20)
(2.9174018 -0.21128623 2.5955911e-20)
(2.9446743 -0.10741342 -4.8739917e-20)
(2.9249991 -0.014426544 -8.9828611e-21)
(2.8773156 0.050542783 2.4307786e-21)
(2.8212725 0.085500771 8.2745387e-21)
(2.769429 0.09737818 -1.0759887e-20)
(2.7268421 0.094626415 -1.1179127e-20)
(2.6940355 0.084197755 -2.3657861e-23)
(2.669479 0.069983476 -2.9697461e-21)
(2.6514868 0.054826126 4.2621773e-21)
(2.6381024 0.038965349 4.2705969e-21)
(2.6283606 0.023820841 1.894802e-21)
(2.6207131 0.0074296501 2.2707566e-21)
(2.4096012 -0.10250207 6.143317e-21)
(2.6168631 -0.11730952 7.8849046e-20)
(2.6400765 0.027586077 -4.1667991e-20)
(2.5621363 0.091007517 -4.1206408e-21)
(2.4488886 0.055021923 6.1944999e-21)
(2.3855719 -0.048293516 1.9679982e-20)
(2.3895084 -0.17513641 -3.473195e-20)
(2.4513783 -0.28966063 1.3096409e-20)
(2.5595456 -0.37290977 5.2650735e-21)
(2.698953 -0.40531976 1.9347623e-20)
(2.8405513 -0.37272839 -1.4039907e-20)
(2.9499375 -0.28111585 -1.5141367e-21)
(3.0005483 -0.15699776 3.959265e-20)
(2.9890135 -0.037119634 -1.7190352e-20)
(2.9362981 0.050854622 3.664662e-21)
(2.868586 0.10055957 3.9524074e-21)
(2.8041028 0.11927321 1.5659919e-20)
(2.7508979 0.11834453 -1.162668e-20)
(2.710108 0.10685632 5.4072851e-22)
(2.6800079 0.09094226 2.3308192e-21)
(2.6580494 0.073457069 4.999883e-21)
(2.642158 0.056443496 -1.5243992e-21)
(2.6303526 0.039563382 -7.3792637e-21)
(2.6216323 0.02394765 -1.5119319e-22)
(2.6146902 0.0073955369 -1.6923181e-22)
(2.3919699 -0.12848269 -4.9903944e-22)
(2.6110076 -0.14168362 4.4122135e-20)
(2.6430794 0.032302449 1.0019859e-19)
(2.5727552 0.12296905 3.6232793e-20)
(2.4296333 0.092482449 7.0277255e-21)
(2.3471062 -0.02159928 -8.0046782e-21)
(2.3395622 -0.16819073 1.2140036e-21)
(2.3972542 -0.3051985 1.2726814e-21)
(2.5085461 -0.4144266 -4.4743958e-21)
(2.6636272 -0.47393306 1.6567777e-20)
(2.8352848 -0.46000776 2.5082535e-20)
(2.9825197 -0.36862501 -3.1980156e-20)
(3.0651628 -0.22329695 8.234847e-20)
(3.0666935 -0.070046803 5.3310295e-20)
(3.0087426 0.048409256 1.0375395e-21)
(2.9268123 0.1177858 -4.680306e-21)
(2.8465804 0.14584687 -6.7696579e-22)
(2.7798931 0.1471259 5.9431538e-21)
(2.729136 0.13434108 -4.5086434e-21)
(2.6921444 0.11550782 4.1814534e-21)
(2.6656903 0.09530919 -2.7260851e-22)
(2.6467205 0.075434149 5.524878e-21)
(2.6330659 0.057163071 1.1583357e-21)
(2.6228694 0.03966379 3.1802122e-21)
(2.6151736 0.023832391 4.7517332e-21)
(2.608936 0.0073056639 -2.0139371e-21)
(2.3729759 -0.15235374 8.0155442e-21)
(2.5993364 -0.16445936 -1.4343331e-19)
(2.6376357 0.037001123 5.3493306e-20)
(2.5778109 0.15811756 -2.7577042e-20)
(2.40796 0.13536611 -4.5588356e-21)
(2.3050803 0.0096980311 -7.1876634e-21)
(2.2871201 -0.15758616 4.8301501e-21)
(2.3396917 -0.31713246 6.0432054e-26)
(2.4505569 -0.45271991 5.4054906e-21)
(2.6160147 -0.54252197 -2.8082105e-20)
(2.815095 -0.55398977 -8.9717786e-20)
(3.0058325 -0.47200741 1.7910455e-20)
(3.1349134 -0.31074253 1.2323582e-19)
(3.1624354 -0.11861329 -1.336685e-20)
(3.1009502 0.041009606 -1.8675708e-21)
(2.9993671 0.13773192 -5.4323208e-20)
(2.8982823 0.17837014 1.8335388e-20)
(2.8145833 0.18264205 2.0188439e-20)
(2.7512564 0.16779857 -7.1972907e-21)
(2.705815 0.14519008 9.7252784e-21)
(2.6739166 0.1207535 7.2008676e-21)
(2.6516131 0.097527675 -4.7677077e-21)
(2.6357775 0.076105121 -4.6378737e-21)
(2.6243637 0.057118524 -3.1608394e-21)
(2.615737 0.039349251 1.0020478e-20)
(2.6090332 0.023519149 -2.4736856e-22)
(2.6034796 0.0071712394 0)
(2.3514399 -0.17415845 -5.227067e-21)
(2.5786643 -0.18543351 -7.5222614e-20)
(2.6166422 0.045485552 -1.7129276e-19)
(2.5484897 0.19524623 -2.4624714e-20)
(2.3813963 0.18460341 5.4114231e-21)
(2.2582398 0.044973864 1.3637031e-20)
(2.2319882 -0.14381979 1.2103006e-20)
(2.2794407 -0.32523013 1.2246739e-20)
(2.3861611 -0.48584008 -2.0463644e-21)
(2.5546256 -0.60651867 -2.0892661e-20)
(2.7720486 -0.64762135 -4.9808949e-20)
(3.0018024 -0.58069033 3.836167e-20)
(3.186179 -0.4107259 -7.6605563e-20)
(3.261944 -0.1834297 -2.0079201e-19)
(3.2149999 0.024994556 1.2187604e-20)
(3.0939939 0.15958993 1.528648e-21)
(2.9625459 0.21853683 -1.5918724e-21)
(2.8556489 0.22673356 9.9008419e-21)
(2.7765942 0.20906532 1.3022415e-20)
(2.7207112 0.18110019 -2.8521066e-21)
(2.6823542 0.15121043 7.2065702e-21)
(2.6561836 0.12297317 -5.6921361e-22)
(2.6381709 0.097904286 -2.088358e-21)
(2.6254231 0.075684234 -4.344518e-21)
(2.6161561 0.05644735 -1.348133e-21)
(2.609011 0.038700304 -3.815354e-21)
(2.6032419 0.023049204 -4.1666377e-21)
(2.5983377 0.0070024392 -3.5723752e-21)
(2.3286747 -0.19274369 -8.5581532e-21)
(2.5515956 -0.20304223 6.5990589e-20)
(2.5847223 0.057655552 1.1018201e-21)
(2.4988789 0.23339305 -2.2847908e-20)
(2.3414325 0.23588307 4.217101e-21)
(2.2078738 0.084010982 -1.1724122e-21)
(2.1736069 -0.12792269 4.3835419e-21)
(2.2175599 -0.32981704 -7.8783652e-21)
(2.3173054 -0.51283425 -7.9451449e-21)
(2.4812245 -0.66310729 -5.6747261e-21)
(2.7065209 -0.73644332 8.1096343e-20)
(2.9663088 -0.69079509 4.4449919e-20)
(3.2010593 -0.51524339 -2.2280691e-19)
(3.3316607 -0.25088076 -6.8473575e-20)
(3.3225745 0.0062961213 8.9016147e-20)
(3.2064933 0.18393387 2.3790539e-20)
(3.0462241 0.26761972 -7.0880536e-20)
(2.905319 0.28175333 3.235049e-20)
(2.8050107 0.26010902 1.7689972e-20)
(2.7363984 0.22497601 -2.3704713e-20)
(2.6903371 0.18761533 -8.3914e-21)
(2.6598321 0.15302906 -1.1021238e-20)
(2.6394873 0.12265512 -1.2091679e-20)
(2.6256304 0.096775286 -7.2957792e-22)
(2.6157872 0.074387732 1.1092308e-22)
(2.6085063 0.055281436 -2.64896e-22)
(2.6027228 0.037791603 -5.7740409e-22)
(2.5978151 0.022459761 1.4108711e-21)
(2.5935169 0.0068082043 5.0705851e-21)
(2.3056574 -0.20917431 5.0579273e-21)
(2.5194588 -0.21934079 2.747784e-20)
(2.54519 0.071916696 1.0406675e-19)
(2.4476301 0.27229392 -3.0464404e-20)
(2.2902109 0.28465259 1.7415287e-21)
(2.155918 0.12504688 -2.3163412e-22)
(2.1128609 -0.11108925 3.9819554e-21)
(2.1551292 -0.33165664 -8.6808569e-21)
(2.2465209 -0.53368341 1.2011316e-20)
(2.3998054 -0.71098306 8.3205521e-21)
(2.6228304 -0.81792623 7.7563632e-20)
(2.9022285 -0.80127026 5.0594293e-21)
(3.191473 -0.62885635 -5.976635e-20)
(3.3762734 -0.32530877 -1.7881537e-21)
(3.3969771 -0.0041219302 -1.307757e-19)
(3.2994334 0.22063397 -2.2097012e-20)
(3.1400232 0.33039743 4.8312615e-20)
(2.9683664 0.35081462 1.090784e-20)
(2.8371559 0.32334315 8.1301422e-22)
(2.7520533 0.27856501 -4.3484769e-21)
(2.6970091 0.23143181 -7.1067197e-21)
(2.6616472 0.18837401 -3.1994844e-21)
(2.6389805 0.15141659 -2.3060408e-21)
(2.6241717 0.12031921 4.1007066e-21)
(2.6141487 0.094472274 -6.914204e-21)
(2.6069398 0.072419142 -4.0857096e-21)
(2.6014448 0.053741095 2.0990879e-21)
(2.5968848 0.036689707 4.4645533e-21)
(2.5927568 0.021783349 -4.7382562e-21)
(2.5890157 0.0065962093 2.815009e-21)
(2.2807112 -0.2240604 -1.5106577e-20)
(2.4835565 -0.23096381 -2.3847217e-20)
(2.4996725 0.087269041 2.2118541e-20)
(2.39279 0.31104133 5.0532918e-20)
(2.2329263 0.3311371 -1.7309097e-20)
(2.1001703 0.1652843 -2.0822475e-22)
(2.0522912 -0.093838562 -3.9891647e-21)
(2.0930287 -0.33196472 0)
(2.1764593 -0.54888864 5.5630655e-22)
(2.3142889 -0.74878107 7.8856059e-21)
(2.5256064 -0.88971964 1.6663434e-20)
(2.811583 -0.9076811 1.0965682e-20)
(3.1481702 -0.75328252 -1.5860775e-20)
(3.4124844 -0.41761086 7.024298e-20)
(3.4744749 -0.020611061 -7.1300462e-20)
(3.3649655 0.27045013 1.2063321e-20)
(3.2052792 0.41315487 2.2984343e-20)
(3.0345121 0.44037432 -1.2757541e-20)
(2.8757055 0.40246318 2.4375823e-21)
(2.7669374 0.34386945 5.9487312e-22)
(2.7011011 0.28398762 8.2667187e-21)
(2.6605082 0.23011147 8.4139924e-21)
(2.6356043 0.18458069 -2.4025721e-21)
(2.6202267 0.14716599 3.0667008e-21)
(2.6104167 0.11646443 2.2189834e-21)
(2.603796 0.091300294 1.7921e-21)
(2.5989042 0.069960544 6.3807276e-21)
(2.5949764 0.051931873 1.3687506e-21)
(2.591495 0.035452109 -2.4872881e-23)
(2.5880619 0.021047664 3.8858481e-22)
(2.5848269 0.0063728835 -4.3063055e-21)
(2.2565319 -0.23725134 1.8377002e-20)
(2.4416722 -0.24255787 -2.8711729e-21)
(2.4510369 0.10468732 -5.1664884e-20)
(2.3367032 0.34908924 7.9581464e-20)
(2.1734605 0.37548986 1.0903734e-20)
(2.0403061 0.20363878 5.2684754e-23)
(1.9925861 -0.0769208 2.1104603e-20)
(2.032334 -0.33159575 4.8892102e-21)
(2.1091497 -0.55929128 3.8737815e-21)
(2.2280814 -0.77721695 4.6516834e-20)
(2.4186527 -0.94682992 -9.8355563e-21)
(2.6931882 -1.0020512 -2.35166e-19)
(3.0602545 -0.87644132 -2.353494e-19)
(3.3965969 -0.52370582 3.7230555e-19)
(3.5274037 -0.055355859 -1.53113e-19)
(3.4525636 0.3225217 1.1342615e-19)
(3.2443438 0.51040739 4.7278237e-20)
(3.0666003 0.55066903 1.1170032e-20)
(2.9126201 0.50350929 5.8465183e-21)
(2.7818715 0.42393629 -9.0454092e-21)
(2.7010212 0.34666323 1.2943706e-20)
(2.6549294 0.27907385 -1.506142e-21)
(2.6281195 0.22287564 -3.6262417e-21)
(2.6127096 0.17742782 1.1210232e-22)
(2.6037568 0.14101515 2.138741e-21)
(2.5982771 0.11153771 7.4062375e-22)
(2.5945767 0.087525929 4.2215872e-21)
(2.5916695 0.067168423 3.7831081e-21)
(2.5890874 0.049943375 -4.1745672e-21)
(2.5865409 0.034127102 -4.1760183e-21)
(2.5837189 0.020275747 4.1003554e-21)
(2.5809391 0.0061435216 0)
(2.2334517 -0.24741743 1.8756136e-20)
(2.3919233 -0.25385936 3.6877047e-21)
(2.398351 0.12046021 1.9036486e-20)
(2.2826042 0.38565197 -2.7632666e-21)
(2.1162303 0.41711768 -1.8248036e-20)
(1.9801475 0.2397892 -4.4054031e-20)
(1.9335179 -0.061191642 5.3431713e-20)
(1.9743883 -0.33126635 -2.627828e-20)
(2.0459046 -0.56585575 4.1641693e-21)
(2.1440675 -0.7950763 6.5833666e-21)
(2.3053055 -0.99040148 -3.1881644e-20)
(2.5497786 -1.0726141 -4.9849429e-20)
(2.917061 -0.98054161 1.9659246e-19)
(3.303067 -0.61617854 2.8566938e-19)
(3.5135605 -0.090503594 5.5791189e-20)
(3.5366926 0.38401189 -3.2202851e-19)
(3.2990095 0.62790906 9.3649024e-20)
(3.0624982 0.67636703 -6.6958044e-20)
(2.9138834 0.62279228 2.4189498e-20)
(2.7922082 0.52370997 -2.0491074e-20)
(2.6960459 0.42127609 -3.6059978e-21)
(2.6430124 0.3360183 -2.0510476e-20)
(2.6149992 0.26664982 4.9258559e-21)
(2.600381 0.21148881 7.1845163e-21)
(2.5931162 0.16798678 -2.511746e-22)
(2.5895802 0.13360518 -3.7273718e-22)
(2.5877178 0.10591913 1.6167553e-21)
(2.5864501 0.083372738 4.3507094e-22)
(2.585201 0.064172763 -4.0195921e-21)
(2.5837512 0.047849512 -2.9744786e-21)
(2.5820027 0.032754257 -1.9955183e-21)
(2.5797118 0.019486354 -4.9440378e-21)
(2.577338 0.0059123857 -1.3694463e-23)
(2.2112055 -0.25385524 -2.6259829e-20)
(2.3360856 -0.26133309 1.1581237e-20)
(2.3409727 0.13351723 -1.3036093e-20)
(2.2290112 0.42034512 -9.1530618e-20)
(2.0644139 0.45616878 6.8367953e-22)
(1.9237986 0.27275746 3.9448871e-20)
(1.8764212 -0.047700061 -4.5459308e-21)
(1.9200734 -0.33127436 3.7599616e-20)
(1.9876374 -0.56963083 -1.1369357e-20)
(2.0645401 -0.80447156 3.1229339e-20)
(2.1898543 -1.0145141 7.2479042e-21)
(2.39012 -1.1153294 -1.8829341e-20)
(2.722723 -1.0602412 1.772157e-19)
(3.1164834 -0.67813301 1.6854203e-19)
(3.3786983 -0.092680573 1.3942116e-19)
(3.4657338 0.47078432 -2.8902438e-19)
(3.3109361 0.78484556 -1.0139568e-19)
(3.0578072 0.83568566 -7.5595358e-20)
(2.8666804 0.75258195 1.2498464e-20)
(2.7713904 0.63868586 1.9103228e-22)
(2.6840877 0.51133762 1.4610663e-21)
(2.6230573 0.40156607 -2.3577578e-20)
(2.5944039 0.31612252 -1.4853539e-20)
(2.5817973 0.24927847 4.4127217e-22)
(2.5773403 0.19747455 1.862047e-21)
(2.5767366 0.15715704 -2.0276468e-21)
(2.5775877 0.12546443 -1.6040047e-21)
(2.5786453 0.099918329 1.4207245e-21)
(2.5793456 0.079021578 1.0146467e-21)
(2.5794488 0.061078249 -3.6636363e-21)
(2.5789333 0.045709638 1.6743923e-21)
(2.5778559 0.031365229 5.5201436e-21)
(2.5760218 0.018694441 2.8610708e-21)
(2.5740074 0.00568285 2.727243e-21)
(2.1900962 -0.25648504 -3.0969503e-20)
(2.2771664 -0.26539605 2.6990644e-20)
(2.2795253 0.14858023 -1.3123866e-20)
(2.1771466 0.45296075 -1.9342382e-21)
(2.0176983 0.49559669 3.2657079e-20)
(1.8745543 0.30189433 7.7031805e-20)
(1.823453 -0.035149372 -2.3470015e-19)
(1.869935 -0.33281501 -6.3814973e-21)
(1.9349182 -0.57126267 -3.5918322e-21)
(1.9914521 -0.80573505 -2.1382941e-20)
(2.0770943 -1.0230106 6.6598947e-20)
(2.2249342 -1.1323557 -3.0640803e-20)
(2.4952138 -1.1068631 -3.6791297e-20)
(2.858185 -0.70997462 -1.7200568e-19)
(3.1237633 -0.055185354 -1.1118272e-19)
(3.2160631 0.5796049 4.5573336e-19)
(3.1783244 0.96725091 -1.0652995e-19)
(3.0099557 1.0336717 -8.5152152e-20)
(2.80676 0.91024161 1.4392588e-21)
(2.6973269 0.75572243 6.277045e-22)
(2.6489495 0.61402345 1.6657019e-22)
(2.5938197 0.47747208 1.2106735e-20)
(2.5643622 0.37107323 1.1502794e-20)
(2.5553459 0.29058136 -4.8408195e-22)
(2.5551522 0.22907995 -5.7146004e-21)
(2.5587291 0.18206315 1.3639121e-21)
(2.5633329 0.14565384 5.0165066e-23)
(2.5675981 0.11700912 -8.3512898e-22)
(2.5709312 0.093777975 -2.3870182e-22)
(2.5731759 0.074613894 -1.2631797e-21)
(2.5743545 0.057966716 2.8821824e-22)
(2.5745947 0.043570174 2.5817001e-21)
(2.5740736 0.029984741 -1.3559436e-21)
(2.5726285 0.017911663 4.5287748e-21)
(2.5709303 0.0054575156 -1.4360454e-22)
(2.1722458 -0.25571891 -1.0715613e-21)
(2.217793 -0.26563159 -8.223028e-20)
(2.2164485 0.16303912 -3.5693769e-21)
(2.1252283 0.48455421 9.2056188e-21)
(1.9811505 0.53612734 3.3264459e-20)
(1.8306842 0.33658964 -9.1085601e-20)
(1.7786349 -0.029498923 -1.0332744e-20)
(1.8242155 -0.33415429 -7.9264971e-20)
(1.8882063 -0.57207433 -1.8834416e-20)
(1.9263364 -0.80052578 -2.6976374e-20)
(1.9717843 -1.015496 4.2732724e-20)
(2.0639205 -1.1298709 -2.1713745e-20)
(2.2550857 -1.1204176 -5.9668615e-20)
(2.555034 -0.70910221 4.7226088e-21)
(2.8000843 0.0006218662 6.5846266e-19)
(2.9090926 0.70470181 2.1204986e-19)
(2.91575 1.1430568 1.0250149e-19)
(2.8537593 1.2350282 2.57856e-19)
(2.7251227 1.0978899 -1.1168711e-19)
(2.5951986 0.88382208 7.3114612e-20)
(2.5663791 0.71416814 6.3666624e-20)
(2.5480765 0.56299776 1.6378082e-20)
(2.5234481 0.43162216 3.295055e-21)
(2.5192889 0.33468922 -4.732706e-21)
(2.5252228 0.26226208 -7.1059656e-21)
(2.5344944 0.20769104 -1.6325921e-21)
(2.544101 0.16619403 -1.9595983e-21)
(2.5525865 0.13401897 -1.6890546e-21)
(2.5593937 0.10855338 -1.737885e-21)
(2.5644308 0.087681115 7.4992475e-22)
(2.5678463 0.070256576 4.1445196e-22)
(2.5698563 0.054900187 2.1975706e-21)
(2.5706943 0.041466431 -1.0561531e-21)
(2.5706276 0.028631605 -4.0233375e-21)
(2.5695109 0.017146891 -2.417534e-21)
(2.5680892 0.0052383447 3.9530774e-22)
(2.15928 -0.25121532 1.2144111e-19)
(2.1604226 -0.26121332 -3.0966462e-20)
(2.1539246 0.17675885 2.0266949e-20)
(2.0763077 0.51284598 1.8099637e-20)
(1.9515058 0.57353617 -3.1473554e-20)
(1.8008809 0.37922426 -1.4644133e-19)
(1.7344393 -0.013705073 4.8978794e-20)
(1.7864528 -0.34136102 1.1545883e-19)
(1.8473968 -0.57109749 1.7561248e-20)
(1.8700613 -0.79093221 -1.191124e-20)
(1.8779072 -0.99772154 -6.9125717e-20)
(1.914121 -1.1136183 2.1631111e-19)
(2.0205108 -1.0985792 -4.8187662e-19)
(2.2346414 -0.68109688 1.5779883e-19)
(2.4389734 0.069612379 2.6539098e-20)
(2.550603 0.82978877 -1.0498597e-19)
(2.5960413 1.3075777 -7.4011196e-20)
(2.6055529 1.4173338 2.0291237e-19)
(2.5691899 1.2805883 -8.4262244e-20)
(2.48478 1.0346157 3.4931413e-20)
(2.4428082 0.80858456 -8.6541662e-21)
(2.4678408 0.64643931 1.4070448e-20)
(2.4692649 0.49768033 -1.572953e-20)
(2.4720911 0.38069172 -1.3546147e-20)
(2.4862275 0.29604027 4.3514539e-22)
(2.5030019 0.23328655 0)
(2.5190576 0.18630278 3.6237826e-22)
(2.5329299 0.15054685 -2.2344948e-22)
(2.5441465 0.12264305 -1.9402229e-21)
(2.5527451 0.10032377 -1.8456076e-21)
(2.5589957 0.081760168 2.2878245e-22)
(2.5632609 0.066027366 9.177439e-22)
(2.5658921 0.051924052 -5.1071866e-22)
(2.5671913 0.039424416 -3.3317188e-21)
(2.5674899 0.02731971 9.4026866e-22)
(2.5666478 0.01640667 1.7064034e-21)
(2.5654669 0.0050267606 -1.8437607e-21)
(2.1515494 -0.24253811 5.5508083e-20)
(2.1072852 -0.25304779 9.1576489e-20)
(2.0945863 0.18934778 1.9221977e-20)
(2.0323028 0.53702331 -7.8853259e-23)
(1.9306593 0.60697305 -4.7293337e-22)
(1.7848089 0.41801353 -1.0708009e-19)
(1.7035391 0.012992525 -3.1042678e-21)
(1.7474382 -0.33888562 4.9497792e-20)
(1.8141586 -0.57393938 2.6643734e-20)
(1.8227599 -0.777097 7.9870738e-21)
(1.7972712 -0.97260281 1.000822e-20)
(1.7805907 -1.0813685 -1.391468e-19)
(1.8049926 -1.0558204 2.6905049e-19)
(1.920972 -0.63252439 -6.7477504e-22)
(2.0680888 0.14729669 -8.0411601e-21)
(2.1712747 0.9467948 -6.7421356e-20)
(2.2428975 1.455744 1.4090959e-19)
(2.3086851 1.5748763 -3.5611795e-20)
(2.3426019 1.438036 1.5937379e-19)
(2.3379935 1.1842301 3.1579744e-21)
(2.3086198 0.91237078 -3.8765284e-20)
(2.3445492 0.71539599 -3.8759754e-20)
(2.393221 0.56325135 -2.7948911e-20)
(2.4127267 0.42785032 8.4735828e-21)
(2.4369429 0.32910245 1.1482879e-20)
(2.4633306 0.25771934 8.2483227e-22)
(2.4874643 0.2051134 3.8347806e-21)
(2.5080176 0.16573049 -2.3709512e-22)
(2.5246761 0.13558466 3.7385578e-21)
(2.5376636 0.11179206 -2.8223284e-21)
(2.5474279 0.092475022 -6.1740691e-22)
(2.5544821 0.076106157 6.0542928e-22)
(2.5593275 0.061980194 1.3924282e-22)
(2.5624023 0.049070108 -8.4014275e-22)
(2.5640462 0.037462536 1.797006e-21)
(2.5646332 0.026058916 1.8196187e-23)
(2.5640188 0.015695654 4.2033047e-21)
(2.5630467 0.0048237556 -2.7305724e-21)
(2.1487901 -0.22997046 -9.5091826e-20)
(2.0601064 -0.24121545 -3.1498041e-20)
(2.0413622 0.20061351 -7.5239997e-20)
(1.9954649 0.55615758 1.6399981e-20)
(1.9187025 0.63498454 5.2191093e-22)
(1.784999 0.45578204 1.6088974e-19)
(1.6866537 0.0357213 2.7065863e-19)
(1.7110056 -0.33011103 4.6651804e-20)
(1.7835798 -0.56720469 -6.1202961e-21)
(1.7835438 -0.76532587 3.6040849e-20)
(1.7307607 -0.94186121 -6.2584125e-20)
(1.6658344 -1.0382097 -1.9880857e-19)
(1.6165049 -0.99661758 1.3401768e-19)
(1.6344384 -0.56608569 -1.8516948e-19)
(1.712085 0.22536428 5.8266957e-20)
(1.7977668 1.0506755 -4.8731206e-22)
(1.8889678 1.5800197 3.7350291e-20)
(1.9988267 1.7005441 1.3150987e-20)
(2.0857806 1.5662716 -5.0898614e-20)
(2.1423398 1.3076854 2.8651184e-20)
(2.165711 1.0211422 4.8942313e-20)
(2.1980636 0.77677268 8.7297568e-23)
(2.2836909 0.61521862 -1.9447562e-20)
(2.3389238 0.47390644 8.8345567e-21)