/*--------------------------------*- C++ -*----------------------------------*\
| =========                 |                                                 |
| \\      /  F ield         | OpenFOAM: The Open Source CFD Toolbox           |
|  \\    /   O peration     | Version:  v2012                                 |
|   \\  /    A nd           | Website:  www.openfoam.com                      |
|    \\/     M anipulation  |                                                 |
\*---------------------------------------------------------------------------*/
FoamFile
{
    version     2.0;
    format      ascii;
    class       surfaceVectorField;
    location    "104.868788511957604";
    object      Uf;
}
// * * * * * * * * * * * * * * * * * * * * * * * * * * * * * * * * * * * * * //

dimensions      [0 1 -1 0 0 0 0];


internalField   nonuniform List<vector> 
18180
(
(2.6574907 0.00033850643 8.1999202e-22)
(2.6576652 -0.00023117384 6.4729976e-22)
(2.6568661 0.00089219016 8.3308117e-22)
(2.6568874 -0.0010713582 7.97203e-22)
(2.6575398 -0.0016509681 6.3294879e-22)
(2.6590766 -0.00076754856 -3.0556966e-23)
(2.655866 0.0017233605 3.313861e-22)
(2.6559638 -0.0012942357 2.4025811e-22)
(2.6565721 -0.0031813553 1.9828341e-22)
(2.6582865 -0.0033996671 -3.0547341e-22)
(2.6596325 -0.0026384843 -9.494053e-22)
(2.6612514 -0.0010639063 -8.4709075e-22)
(2.6542752 0.0029794895 9.4679404e-25)
(2.6542084 -0.0016285584 4.9416352e-22)
(2.6550488 -0.004564224 4.1104935e-22)
(2.6573159 -0.0051222104 4.4625143e-23)
(2.6587871 -0.0053247663 -4.3525757e-22)
(2.6606545 -0.0049588286 -4.5599805e-22)
(2.6622782 -0.0035858052 -3.5157403e-22)
(2.6641015 -0.0013361122 -6.8343582e-22)
(2.6520715 0.0047967488 -1.1373365e-21)
(2.6517338 -0.001354124 -4.9486533e-22)
(2.6526511 -0.0057918462 -3.2218179e-23)
(2.6554923 -0.00732355 4.245826e-22)
(2.65741 -0.0079346154 7.753086e-23)
(2.6597763 -0.0077291384 6.0534006e-22)
(2.6616448 -0.0073599038 6.0123725e-22)
(2.6638624 -0.0062047818 3.9567854e-22)
(2.6656316 -0.0042260531 9.1905649e-23)
(2.6673404 -0.0015079408 -4.8912483e-23)
(2.6491277 0.007258569 -2.441434e-22)
(2.6483899 -0.00081061129 -1.7806209e-21)
(2.6493527 -0.0067529077 -1.1841816e-21)
(2.6528093 -0.0090760967 -5.0965295e-22)
(2.6551635 -0.010574735 -8.1885179e-23)
(2.6581542 -0.01129942 2.3372818e-23)
(2.6605054 -0.011215315 5.2354514e-22)
(2.6632809 -0.0098975778 3.8701797e-22)
(2.6654201 -0.0087575494 1.8865436e-22)
(2.6675765 -0.0069426132 2.0908728e-22)
(2.6692648 -0.0045441273 7.7189498e-23)
(2.6706988 -0.0015478407 2.1613151e-22)
(2.6453644 0.010445166 5.0494613e-22)
(2.6440705 0.00036556679 7.9949012e-22)
(2.6450299 -0.0074019458 -6.4070189e-22)
(2.6491675 -0.010843307 -3.2380173e-22)
(2.6519641 -0.013140672 3.3274935e-22)
(2.6555764 -0.014610264 3.7483251e-22)
(2.6585327 -0.015354785 4.8163251e-22)
(2.6621785 -0.014715705 2.5023934e-22)
(2.6648382 -0.013592197 1.1654294e-22)
(2.6675185 -0.011294993 2.8355602e-22)
(2.6696354 -0.0095078119 3.0438385e-22)
(2.6714995 -0.0071481765 -1.3680632e-22)
(2.6729284 -0.0045009481 -8.1506607e-24)
(2.6739064 -0.0014386881 -7.1130298e-24)
(2.640705 0.014362631 -2.4246774e-22)
(2.6387623 0.0020450344 -6.340816e-22)
(2.6396427 -0.0076613842 -3.6969671e-22)
(2.6444046 -0.012218741 -5.098631e-22)
(2.6476711 -0.015568488 -2.0519593e-22)
(2.651968 -0.018188704 3.57855e-22)
(2.6555293 -0.019705135 3.9922843e-22)
(2.6600996 -0.019558594 -1.3897518e-22)
(2.6635689 -0.019010839 -3.6798185e-22)
(2.6672578 -0.017081477 -1.1076216e-21)
(2.6698788 -0.0150347 -9.6783437e-22)
(2.6721898 -0.01185407 -6.5197555e-23)
(2.6740351 -0.0095283232 -4.8956051e-22)
(2.6753309 -0.0067851796 -5.0616187e-23)
(2.6763309 -0.004079059 -5.0305444e-23)
(2.6767097 -0.0011789566 -1.1947981e-22)
(2.6350817 0.01896269 7.608946e-24)
(2.6324501 0.0043323241 4.0075249e-23)
(2.6332217 -0.007514281 -3.3216758e-22)
(2.6385646 -0.013293437 4.4050427e-23)
(2.6422138 -0.01772674 -7.8725809e-23)
(2.6470679 -0.021597309 6.2377979e-22)
(2.6512956 -0.024198033 1.1717393e-21)
(2.6569642 -0.025003573 5.1718014e-22)
(2.6612863 -0.025001666 7.7265412e-24)
(2.6661053 -0.023263358 -5.2648803e-22)
(2.6696856 -0.021489057 -1.2309266e-21)
(2.6730916 -0.018279666 -1.4901485e-21)
(2.6753742 -0.015388464 -6.4123529e-22)
(2.6769657 -0.011487147 -1.3734301e-22)
(2.6782843 -0.008776595 2.8463089e-22)
(2.6787831 -0.0058421738 -2.8096034e-22)
(2.6792142 -0.0032731542 -3.5015568e-22)
(2.6788788 -0.00073560596 3.6828046e-22)
(2.6284322 0.02410629 -2.2132609e-22)
(2.6252063 0.0070990203 -1.8276312e-22)
(2.6258661 -0.0069695844 -1.462453e-22)
(2.6316585 -0.013894024 4.7103594e-23)
(2.6356248 -0.019487735 4.1369543e-22)
(2.6408899 -0.024841081 8.1047014e-22)
(2.6456662 -0.02866181 1.4907297e-21)
(2.6523771 -0.030627642 9.1673188e-22)
(2.6577038 -0.031525367 2.9121077e-22)
(2.6639587 -0.030462325 9.4615905e-23)
(2.66861 -0.028956415 -4.1090716e-22)
(2.6733235 -0.025532949 1.2504167e-21)
(2.6766549 -0.02253326 1.041837e-21)
(2.6793187 -0.018145223 6.4957308e-22)
(2.6809389 -0.014550706 1.1470337e-21)
(2.6815035 -0.010143102 2.4469594e-22)
(2.6820654 -0.007237863 -2.9259652e-22)
(2.6815927 -0.0043383637 -6.3337057e-23)
(2.6813397 -0.0020789915 6.2300128e-22)
(2.6802074 -5.1335342e-05 -4.6973355e-23)
(2.6206908 0.029555349 -1.5095278e-22)
(2.6171465 0.010232031 -4.9403516e-22)
(2.6177765 -0.0061098728 -4.5353004e-22)
(2.6238683 -0.014030775 2.1438851e-22)
(2.6280164 -0.020722088 4.0337067e-22)
(2.6334038 -0.027646211 -1.7608705e-22)
(2.6385922 -0.032876881 1.9378805e-22)
(2.6462526 -0.036368207 -5.4288988e-22)
(2.6525164 -0.038407167 -1.1196599e-21)
(2.6602685 -0.038333914 -1.9910875e-21)
(2.6662709 -0.037474701 -2.2122071e-21)
(2.6727647 -0.034286662 -9.5952905e-22)
(2.6773446 -0.031173972 6.0915436e-22)
(2.6813773 -0.026076471 6.9718177e-22)
(2.6840369 -0.021937158 3.1929658e-22)
(2.6855265 -0.016559575 2.6594786e-22)
(2.6861837 -0.012451829 -6.0363552e-22)
(2.6854547 -0.0078085045 2.1211409e-22)
(2.685088 -0.0049307935 4.3735459e-22)
(2.6835415 -0.0023202472 -4.8597979e-23)
(2.6825182 -0.00050579938 -6.9469086e-22)
(2.680519 0.00074992388 -1.4522701e-22)
(2.6117785 0.034935936 3.7031525e-22)
(2.6084792 0.013480811 2.2132078e-22)
(2.6092395 -0.0050782321 -9.8706837e-23)
(2.6154291 -0.013677288 2.1861021e-23)
(2.6196284 -0.02131422 6.6304842e-22)
(2.6247677 -0.029837604 5.1219702e-22)
(2.6300978 -0.036570868 -3.141699e-23)
(2.6384316 -0.041884039 -1.4386463e-22)
(2.6455254 -0.045384355 -8.5120011e-22)
(2.6548099 -0.046800039 -1.148989e-21)
(2.6622094 -0.046929557 -1.9766136e-21)
(2.6707221 -0.044344667 -1.4889409e-21)
(2.6769897 -0.041471922 -2.8890719e-22)
(2.6830299 -0.036010996 -1.1642359e-21)
(2.6870136 -0.03128509 -1.1074795e-21)
(2.6897789 -0.024644334 -9.0264652e-22)
(2.6913469 -0.0195327 -9.7174721e-22)
(2.6912647 -0.013464055 -5.1538604e-22)
(2.6907021 -0.0090900159 2.602848e-22)
(2.6884939 -0.0045375358 6.6729226e-22)
(2.6871117 -0.0019230333 2.0937162e-22)
(2.6844752 0.00014012901 -1.0549577e-21)
(2.6826266 0.0012458314 -5.3891689e-22)
(2.6797787 0.0015661016 1.283039e-21)
(2.601612 0.039692272 -1.9783432e-21)
(2.5995129 0.016549322 4.2651216e-22)
(2.600644 -0.004067405 2.7302677e-22)
(2.6066803 -0.012890873 -3.84193e-22)
(2.6107985 -0.021177132 -2.8381074e-22)
(2.6152166 -0.031184358 1.6823593e-22)
(2.6203402 -0.039433033 2.0118511e-23)
(2.6289369 -0.046845532 -1.274678e-22)
(2.6365775 -0.052094332 -2.4021747e-22)
(2.6472343 -0.055521896 8.4177992e-22)
(2.6560461 -0.057095566 5.847357e-22)
(2.6668312 -0.05568323 1.0606208e-21)
(2.6750007 -0.053440901 1.5694467e-21)
(2.6834819 -0.047960473 1.6361517e-22)
(2.6893907 -0.04291369 -6.6044316e-22)
(2.694207 -0.035183854 -3.8260652e-22)
(2.6970269 -0.028949629 -1.7720941e-22)
(2.69794 -0.021064514 -3.7806646e-22)
(2.698034 -0.015252356 6.4101546e-23)
(2.6960802 -0.0088953934 9.3475258e-22)
(2.6941107 -0.0045644575 1.3311803e-21)
(2.6903549 -0.00046934247 3.2079419e-23)
(2.6879241 0.0016208636 -1.1708151e-21)
(2.6842366 0.0029280032 -1.109716e-21)
(2.6815633 0.0031410935 6.1110372e-22)
(2.6779787 0.0024267865 1.056812e-21)
(2.5901474 0.043090243 -3.6209704e-21)
(2.5906566 0.018987223 -2.1672339e-21)
(2.5924594 -0.0032825997 1.0050007e-22)
(2.5980213 -0.011766678 9.6492647e-23)
(2.6019675 -0.020264869 -5.3913492e-22)
(2.6051178 -0.03148186 -4.2733558e-22)
(2.609585 -0.041127985 -4.0892705e-25)
(2.6178626 -0.050842159 -3.7189534e-22)
(2.6256362 -0.058091389 -5.2055751e-22)
(2.6373534 -0.064094886 -1.9911405e-22)
(2.6474034 -0.067614187 8.2960721e-22)
(2.6605378 -0.068059226 5.6440782e-22)
(2.6708303 -0.066979535 1.0157672e-21)
(2.6822676 -0.062023613 1.1554441e-21)
(2.6905055 -0.057021034 -1.8406726e-22)
(2.6979836 -0.048434232 2.167097e-22)
(2.7027921 -0.041191402 4.937149e-22)
(2.7055531 -0.03143666 -2.7632938e-22)
(2.7066473 -0.023959477 -4.68494e-22)
(2.7052164 -0.015307144 2.3576852e-22)
(2.7035372 -0.0091703221 1.0648215e-21)
(2.6995506 -0.0030072847 7.1242796e-22)
(2.6960941 0.00092175147 -5.3018625e-22)
(2.6908295 0.0042016642 -5.8977393e-22)
(2.6873835 0.0056057917 -5.2301169e-22)
(2.682726 0.005904094 1.1808159e-21)
(2.6793377 0.0051320345 1.6124809e-21)
(2.6751428 0.0032947005 -4.8255105e-22)
(2.5772702 0.044599411 6.3432231e-21)
(2.581925 0.020323947 -8.4603914e-22)
(2.5851948 -0.0028935392 5.7572988e-22)
(2.5898699 -0.010507245 1.8828182e-22)
(2.5936548 -0.01858752 1.8580745e-22)
(2.5949408 -0.030541083 -1.5183843e-21)
(2.5982185 -0.04130872 -1.427101e-21)
(2.6054325 -0.053427488 9.0295369e-22)
(2.6127608 -0.062861124 5.6400895e-22)
(2.6250263 -0.0720133 6.6084696e-22)
(2.6359904 -0.07800809 9.8676874e-22)
(2.6514146 -0.081098358 -1.1596119e-21)
(2.6638778 -0.081836914 -1.4405908e-21)
(2.6786556 -0.078149231 -6.7080785e-23)
(2.6896959 -0.073709933 5.0280633e-23)
(2.7006152 -0.064668489 1.868037e-21)
(2.707992 -0.056672344 2.2795507e-21)
(2.7133285 -0.045085763 5.520917e-22)
(2.7162406 -0.035850782 -1.7682506e-22)
(2.7161804 -0.024593446 -1.9299327e-21)
(2.7150668 -0.016313127 -1.2843757e-21)
(2.7109721 -0.0075275006 8.9665875e-22)
(2.70735 -0.00153096 5.5992486e-22)
(2.7013322 0.0039267909 -1.2306026e-21)
(2.6964383 0.0071139407 -1.297739e-21)
(2.6898406 0.0092509226 2.5226497e-21)
(2.6854559 0.0097517731 4.1858909e-21)
(2.6799958 0.0089297668 -1.8732991e-22)
(2.6760142 0.0071113264 -2.203085e-21)
(2.6713536 0.0041240862 -1.7363964e-21)
(2.5624363 0.044092408 6.0685423e-21)
(2.5728113 0.019971579 4.4384207e-21)
(2.5793987 -0.0033642678 -2.4143174e-21)
(2.5829612 -0.0090883746 7.2989782e-22)
(2.586512 -0.016244031 3.6445345e-22)
(2.5852627 -0.028208909 -1.7744691e-21)
(2.5867276 -0.039629948 -3.4218807e-21)
(2.5919741 -0.054135496 -8.6649182e-22)
(2.598123 -0.065842607 1.3537956e-21)
(2.6102302 -0.078683278 4.1888731e-22)
(2.621589 -0.087691841 5.1041559e-22)
(2.6390406 -0.09431197 -1.7164011e-21)
(2.6535864 -0.097618296 -3.7940402e-21)
(2.6719979 -0.096103438 -3.9022711e-21)
(2.6861824 -0.092939876 -2.6357729e-21)
(2.7012664 -0.08411387 -1.4698019e-21)
(2.7119433 -0.075759742 2.3269575e-22)
(2.7208494 -0.062479718 3.4997124e-21)
(2.7262793 -0.051552677 1.8794541e-21)
(2.728336 -0.0374752 2.160433e-21)
(2.7286087 -0.026718973 5.2946734e-22)
(2.7251477 -0.014750672 -1.6000867e-21)
(2.7214955 -0.0062680627 4.6589824e-22)
(2.7146524 0.0019180199 3.0674566e-22)
(2.7090897 0.0072742878 -1.3967263e-21)
(2.7012189 0.011539625 1.0581688e-21)
(2.6950315 0.013679531 4.7201536e-21)
(2.687358 0.014424401 4.562351e-21)
(2.6821936 0.013873772 4.1688007e-22)
(2.6761422 0.011870044 -2.7902756e-21)
(2.671706 0.0089895469 -2.3561356e-21)
(2.6667348 0.0048803942 -2.6186133e-21)
(2.5460582 0.041439689 -1.7308012e-20)
(2.5624676 0.017352669 -6.3509757e-22)
(2.5748057 -0.005811981 -2.283609e-21)
(2.5785357 -0.0077700693 -2.9446701e-21)
(2.5814561 -0.013283201 3.1906997e-23)
(2.5767324 -0.024354769 9.0119311e-22)
(2.5756762 -0.035746691 -1.1210413e-21)
(2.5779019 -0.052506706 -3.5085388e-21)
(2.5819888 -0.066451871 -1.0841559e-21)
(2.5930423 -0.083469303 1.4019046e-21)
(2.6040846 -0.095997752 5.1516623e-22)
(2.6230921 -0.10707374 -2.159879e-21)
(2.6394355 -0.11378437 -4.3142619e-21)
(2.6615936 -0.115536 -2.9953941e-21)
(2.6791683 -0.11451655 -3.086005e-21)
(2.699132 -0.10678411 -2.3580283e-21)
(2.7137798 -0.098715638 -1.2493853e-21)
(2.7272926 -0.084183177 -2.1622678e-21)
(2.7361867 -0.071717553 8.9873427e-22)
(2.7414614 -0.054589679 2.2209769e-21)
(2.7438485 -0.041177577 2.4935688e-21)
(2.7416612 -0.025542338 2.8445702e-21)
(2.7387082 -0.013999926 8.5805681e-22)
(2.7315722 -0.0023218264 -9.7613465e-22)
(2.7252942 0.0056320259 -1.148392e-21)
(2.7158819 0.012510572 -1.656632e-21)
(2.7085237 0.016778805 6.6973599e-22)
(2.6991236 0.019414257 4.9228466e-22)
(2.6918909 0.020264597 2.7874468e-22)
(2.6834632 0.01946846 7.9807572e-22)
(2.6777213 0.01778995 -2.240471e-21)
(2.6713066 0.014605785 2.4231176e-21)
(2.6665646 0.010693621 2.2459305e-21)
(2.6614368 0.0055441701 2.2822107e-22)
(2.5282623 0.035231011 -1.5837642e-20)
(2.5554933 0.011784724 -1.5440802e-20)
(2.5735602 -0.011423413 4.1320031e-22)
(2.5764888 -0.0075996985 4.0535438e-22)
(2.5793735 -0.0095625186 -1.7775973e-22)
(2.5701607 -0.018761067 2.5729069e-21)
(2.5657204 -0.029329314 3.4351257e-21)
(2.5637118 -0.048041273 -1.0825984e-22)
(2.5647184 -0.064112846 -2.3592443e-21)
(2.5736445 -0.085706158 3.0405059e-22)
(2.5834713 -0.10220787 2.6850311e-21)
(2.6033384 -0.11868146 -9.8872161e-22)
(2.6209942 -0.1296724 -3.545716e-21)
(2.6468022 -0.13590832 -8.804975e-22)
(2.6678337 -0.1380697 4.2363266e-22)
(2.6932736 -0.13260004 1.2566398e-21)
(2.7125432 -0.12567026 2.010477e-21)
(2.7318162 -0.11054729 -4.9963051e-22)
(2.7451546 -0.096969955 -1.3633804e-21)
(2.7548987 -0.076844844 -2.6192955e-22)
(2.760462 -0.060582292 9.7751803e-22)
(2.7605872 -0.040626237 3.8324285e-21)
(2.7589743 -0.025589163 4.1879991e-21)
(2.7519597 -0.0097049747 -3.6346662e-22)
(2.74548 0.0016112943 -2.1216873e-21)
(2.7347928 0.011976814 1.1408028e-21)
(2.7260268 0.018751091 6.929285e-22)
(2.7144552 0.023627852 -3.3272066e-22)
(2.7056113 0.02639031 -5.1626066e-22)
(2.6951309 0.027133345 -1.3875117e-21)
(2.6871582 0.026542477 -9.1964234e-22)
(2.6783198 0.024163592 -4.3049422e-21)
(2.6722184 0.021348083 9.069237e-23)
(2.6656616 0.017045002 -1.5180653e-22)
(2.6607622 0.012179323 -2.1031027e-21)
(2.6556185 0.006110328 3.0943953e-21)
(2.5091424 0.024252907 1.5883239e-21)
(2.5506595 0.002710198 -1.7896745e-21)
(2.5770439 -0.019871708 -1.2009049e-21)
(2.5780606 -0.0092126317 5.8915667e-22)
(2.5800495 -0.0056741223 5.8779477e-22)
(2.567125 -0.011422985 9.8661593e-22)
(2.5585161 -0.020020228 3.6172505e-21)
(2.5499531 -0.04043495 3.2233638e-21)
(2.5467278 -0.058286935 -1.4341945e-22)
(2.5523291 -0.084749452 4.96833e-21)
(2.5598612 -0.10560208 7.6076605e-21)
(2.5796846 -0.12836919 3.1401253e-21)
(2.5979559 -0.14452858 -3.3552619e-22)
(2.627057 -0.15655392 2.0117147e-21)
(2.6514064 -0.163053 4.6262472e-21)
(2.6827445 -0.16125459 6.4295263e-21)
(2.7071617 -0.15657599 7.3106976e-21)
(2.7333544 -0.14190363 6.131945e-21)
(2.7522139 -0.12787245 3.8072195e-21)
(2.7679469 -0.10497143 5.3144332e-21)
(2.7778885 -0.085916099 6.457666e-21)
(2.7816031 -0.061179211 -1.3033394e-22)
(2.7823548 -0.042037829 2.5649705e-21)
(2.7762192 -0.020900334 6.541529e-21)
(2.7699763 -0.0054913827 2.2573012e-21)
(2.7580446 0.0091195284 -1.3195594e-21)
(2.7481601 0.019265804 1.7895225e-21)
(2.7343928 0.027235312 1.8769118e-21)
(2.7235285 0.032188969 9.211569e-22)
(2.7104127 0.034616232 2.1758899e-23)
(2.7005084 0.035590605 -7.9716988e-22)
(2.6894444 0.034327542 4.9913394e-21)
(2.6810607 0.032244576 1.866961e-21)
(2.6721455 0.028339733 -6.7816558e-21)
(2.6658973 0.024439388 -7.115228e-21)
(2.6593981 0.019126666 -2.9380678e-21)
(2.6544772 0.013419857 1.9828115e-21)
(2.649437 0.0065732524 -4.2013281e-21)
(2.4901016 0.0081804508 2.8120692e-21)
(2.5478529 -0.010451366 1.0874271e-20)
(2.5841515 -0.031300378 7.8080863e-21)
(2.5832993 -0.011273527 6.5538899e-22)
(2.5842805 -0.00069001696 2.3827429e-21)
(2.5652195 -0.0022440787 4.6813438e-22)
(2.5532023 -0.0075716798 8.458209e-22)
(2.5382194 -0.029002189 -5.3484034e-22)
(2.5285935 -0.04845733 -9.8109162e-22)
(2.5293939 -0.080046171 2.974666e-21)
(2.5334232 -0.1054777 7.8743758e-21)
(2.5521454 -0.135382 4.7466114e-21)
(2.5701446 -0.15755062 4.6212622e-22)
(2.6019322 -0.17668436 1.7645068e-22)
(2.6292108 -0.18875345 2.4124559e-21)
(2.6666063 -0.19225215 -4.1663669e-22)
(2.6965166 -0.19117006 1.2185628e-21)
(2.7307289 -0.17835433 6.3040025e-21)
(2.7561756 -0.16486649 5.1697026e-21)
(2.7796139 -0.13982156 2.7056176e-21)
(2.7953755 -0.11822119 4.1207016e-21)
(2.8043662 -0.088268068 -1.0196032e-22)
(2.8087437 -0.064582933 -6.4554318e-21)
(2.804517 -0.037180014 3.9980317e-22)
(2.7993019 -0.016704589 4.1419316e-21)
(2.7864928 0.0034899099 -2.1273325e-21)
(2.7755486 0.017775453 -5.5903838e-21)
(2.7592728 0.029638597 2.283385e-21)
(2.7463699 0.03762466 2.3738036e-21)
(2.7303394 0.04246519 -4.934778e-22)
(2.7179553 0.045123306 -1.3685618e-21)
(2.7040052 0.044882842 -7.8072348e-22)
(2.6935157 0.043941613 4.7141793e-21)
(2.682356 0.040708831 4.7395621e-21)
(2.6738815 0.037178207 -3.4264241e-21)
(2.6651853 0.031884054 -4.6785047e-21)
(2.6589827 0.026999922 -6.7670179e-22)
(2.6527084 0.020819842 5.082926e-21)
(2.6478812 0.014402588 -7.4023557e-22)
(2.6430403 0.0069296408 -5.1043737e-21)
(2.4722968 -0.012542662 6.855356e-22)
(2.5467441 -0.027755608 3.5161622e-21)
(2.5943416 -0.045885454 1.1179411e-20)
(2.5923906 -0.014461748 8.5359746e-21)
(2.5931838 0.0051310286 1.7572691e-21)
(2.5672558 0.0092754566 1.6789088e-21)
(2.5493975 0.0081038408 -1.4921922e-22)
(2.5262883 -0.013459289 -1.3548533e-21)
(2.5103452 -0.033725285 -2.7076135e-21)
(2.5052513 -0.070813812 -8.8857532e-21)
(2.5042604 -0.10117102 -5.2629163e-21)
(2.5207525 -0.13892152 5.6569696e-21)
(2.5374507 -0.16788667 2.6540956e-21)
(2.5710517 -0.19539948 -6.4360876e-21)
(2.600636 -0.21427856 -6.8216988e-21)
(2.6439502 -0.22487434 -1.1988232e-20)
(2.6794341 -0.22892753 -1.4892831e-20)
(2.7226224 -0.21978618 -3.8115517e-21)
(2.7556464 -0.20819666 9.396748e-22)
(2.7886788 -0.18206993 -8.1151958e-21)
(2.8118611 -0.1585395 -1.065203e-20)
(2.8282261 -0.12327578 -1.1543352e-20)
(2.8378749 -0.09467354 -1.5789663e-20)
(2.8370739 -0.059791371 -1.0963362e-21)
(2.833944 -0.033258866 5.4872103e-21)
(2.8207373 -0.0060347343 8.8558748e-22)
(2.809114 0.013637818 -5.1161925e-21)
(2.7901439 0.030751889 -1.547161e-21)
(2.7749285 0.042545577 5.9883298e-21)
(2.7553465 0.05036574 6.0731783e-21)
(2.7402167 0.055420951 3.4072072e-21)
(2.7229361 0.056732791 -1.3165297e-21)
(2.7097122 0.056855273 -7.5774485e-22)
(2.6956355 0.053961166 1.8142528e-22)
(2.6850293 0.051126021 1.3752862e-22)
(2.6742057 0.046086078 -3.7463212e-21)
(2.6659249 0.04123072 -4.9394968e-21)
(2.6576881 0.034739446 -2.2889075e-21)
(2.6516921 0.029006656 3.1538357e-21)
(2.6457717 0.022119808 1.2302894e-21)
(2.6411306 0.015130934 -2.8825757e-21)
(2.6365606 0.0071827998 4.9360657e-21)
(2.45595 -0.036792774 -1.0653342e-21)
(2.5459641 -0.048706795 -1.180415e-20)
(2.6057533 -0.063630069 -9.3058852e-21)
(2.6046828 -0.019049521 -1.8519332e-21)
(2.6062198 0.011518207 -4.548602e-21)
(2.5735593 0.022941314 2.1164672e-21)
(2.5490505 0.027373034 2.0494506e-21)
(2.5160729 0.0060743178 1.0861379e-21)
(2.4921339 -0.014304903 -3.9589795e-23)
(2.4798012 -0.056600443 -1.1568015e-20)
(2.4726277 -0.092042529 -1.7561266e-20)
(2.4855978 -0.13830268 4.3236401e-21)
(2.4999089 -0.17474563 1.4835688e-20)
(2.5342049 -0.21170419 1.5029715e-22)
(2.5652289 -0.23858538 -8.5127726e-21)
(2.6138583 -0.25808255 -2.9951935e-21)
(2.6546969 -0.26896945 -7.8416052e-21)
(2.7074907 -0.26575284 4.2052765e-21)
(2.7489232 -0.25779038 1.5015326e-20)
(2.7935617 -0.23224428 1.3422001e-20)
(2.8258908 -0.20782463 5.0200044e-21)
(2.8522333 -0.16751494 -9.9153341e-21)
(2.86917 -0.13392397 -1.0750221e-20)
(2.8738554 -0.090457816 -2.0164655e-20)
(2.8743483 -0.056751019 -6.2962177e-21)
(2.8616911 -0.020604744 1.5792118e-20)
(2.8498934 0.0059071804 1.1579869e-20)
(2.8280344 0.029831088 -5.5471175e-21)
(2.810367 0.046726673 -2.1656517e-21)
(2.7865722 0.058680536 7.6501501e-21)
(2.768098 0.066739069 7.7556459e-21)
(2.7466426 0.06985304 2.6272957e-21)
(2.7302535 0.071549199 -1.8685574e-21)
(2.7127499 0.069298316 3.1850656e-22)
(2.6993678 0.066876692 1.2267953e-21)
(2.6857917 0.061542176 8.7157887e-23)
(2.6754845 0.056960089 -3.6002525e-21)
(2.6653429 0.050364717 -1.305404e-21)
(2.6574872 0.044362968 1.265058e-21)
(2.6498872 0.036897603 1.7064906e-22)
(2.6442223 0.030470433 -1.7000299e-21)
(2.6387465 0.023042338 -4.9195885e-21)
(2.6343608 0.015620445 2.4712051e-21)
(2.6301108 0.0073405516 4.4298353e-21)
(2.4385046 -0.06286408 -9.9617753e-22)
(2.5425054 -0.072075648 3.9474902e-22)
(2.6145785 -0.084008879 -9.7764979e-21)
(2.6171139 -0.025003303 -1.6379369e-20)
(2.6210681 0.01816909 -9.4159637e-21)
(2.5837063 0.038852198 -2.3621063e-21)
(2.5525634 0.050420655 3.9984893e-21)
(2.5080873 0.029979194 1.5707904e-21)
(2.4745069 0.010094454 6.5709502e-22)
(2.4536048 -0.037511132 5.4089861e-21)
(2.4388532 -0.077916832 -5.4599376e-21)
(2.4472439 -0.13318137 -1.0879118e-20)
(2.4579504 -0.17767742 9.9979259e-21)
(2.4918105 -0.2249648 9.5780678e-21)
(2.5232046 -0.26084628 -4.4481357e-21)
(2.5761523 -0.29091341 -4.1024966e-21)
(2.6216805 -0.31033369 1.2025324e-21)
(2.6840687 -0.31543762 9.3190655e-21)
(2.7344135 -0.3132436 2.1016424e-20)
(2.7923291 -0.29053698 7.8667569e-21)
(2.8355999 -0.26682099 6.2491555e-21)
(2.8749289 -0.22237112 2.6095513e-20)
(2.9016068 -0.1840753 1.2237408e-20)
(2.9145879 -0.13098509 -2.6004623e-20)
(2.9207936 -0.089050286 -3.5181797e-20)
(2.9100535 -0.04186121 -1.4720412e-20)
(2.8991071 -0.0065707003 6.1136783e-21)
(2.8742882 0.026206613 1.2164607e-20)
(2.8540796 0.049798206 -4.0851937e-21)
(2.8252204 0.067199186 -1.214188e-21)
(2.8027834 0.079384167 8.118143e-21)
(2.7761689 0.0850552 -1.5741861e-21)
(2.7558043 0.088644361 -6.5831827e-21)
(2.7339665 0.086935817 -6.7302597e-21)
(2.7173102 0.085206887 -4.7269347e-21)
(2.7004969 0.07967402 1.0544827e-21)
(2.6875616 0.074897549 -2.9908053e-23)
(2.6749817 0.06747616 -1.5304905e-21)
(2.6653069 0.06138349 6.7957318e-22)
(2.6560954 0.053534293 4.4191072e-21)
(2.648836 0.046596028 3.4276459e-21)
(2.6419885 0.038388674 3.418542e-21)
(2.6367424 0.03142722 4.3974203e-22)
(2.6317664 0.023617756 -8.30356e-22)
(2.6276838 0.015894299 9.7915953e-22)
(2.6237831 0.0074131836 1.1560915e-21)
(2.4191209 -0.089564021 3.1746984e-21)
(2.5328426 -0.096903439 4.0117206e-20)
(2.6172664 -0.10634158 4.2082367e-20)
(2.6258806 -0.032297713 -1.9854587e-20)
(2.6343609 0.024802486 -2.6288995e-20)
(2.5947324 0.056830692 -6.9297668e-21)
(2.5587613 0.077346859 -1.9555897e-22)
(2.5019046 0.058576309 5.1181059e-21)
(2.4572314 0.039710059 2.8380398e-21)
(2.4269946 -0.013354269 9.6492172e-21)
(2.403202 -0.058694114 1.4273736e-20)
(2.406201 -0.12349186 -1.3498142e-20)
(2.4123229 -0.17654967 -1.8777155e-20)
(2.4448522 -0.23492579 5.824416e-21)
(2.4755653 -0.28064765 5.3459749e-21)
(2.5317423 -0.32290525 1.2353423e-21)
(2.5809238 -0.35244128 1.6499853e-21)
(2.6526055 -0.36857656 8.7603401e-21)
(2.71175 -0.37442622 1.6580609e-20)
(2.7841859 -0.35728596 -4.6263335e-22)
(2.8398277 -0.33644507 -1.3268997e-20)
(2.895032 -0.28925295 -6.8807971e-21)
(2.9342151 -0.24713831 1.1760318e-20)
(2.9587887 -0.18365323 3.2918528e-20)
(2.973548 -0.13249262 -3.0929027e-21)
(2.9666587 -0.071632182 -3.2692576e-20)
(2.9580791 -0.025519687 -1.3224159e-20)
(2.9305141 0.018804093 -2.5447517e-21)
(2.9077951 0.051168065 3.0683945e-21)
(2.8729289 0.076003835 3.2058921e-21)
(2.8457219 0.093679241 6.0410644e-21)
(2.8126369 0.10269292 1.2034128e-20)
(2.7873467 0.10892418 2.8925647e-21)
(2.7600831 0.10805145 -1.1201143e-20)
(2.7392729 0.10700376 -1.1410399e-20)
(2.7183812 0.10085238 -5.2127901e-21)
(2.7023409 0.095945275 2.679874e-22)
(2.6869294 0.087631294 1.1749829e-21)
(2.6749198 0.080830121 -2.3069576e-22)
(2.6636806 0.071751869 1.0875946e-21)
(2.654878 0.064435879 4.6433849e-21)
(2.646749 0.055649535 1.3161803e-21)
(2.6401981 0.047994915 1.2760287e-21)
(2.6341635 0.039269814 -1.6606893e-21)
(2.6293899 0.03192931 -2.8976105e-21)
(2.624939 0.023885401 8.5305768e-22)
(2.6211881 0.015980008 1.0191886e-21)
(2.6176492 0.0074122818 1.0285247e-21)
(2.4004898 -0.11594796 2.7107327e-21)
(2.5197105 -0.12244745 2.5477844e-20)
(2.6138372 -0.12985519 6.090313e-20)
(2.6267118 -0.041150592 8.973778e-20)
(2.6416283 0.030273025 3.1644776e-20)
(2.6061261 0.076140255 -2.0114107e-21)
(2.5676238 0.10791272 1.6732916e-20)
(2.4954269 0.091758908 1.5544796e-21)
(2.438938 0.074675454 6.6250885e-21)
(2.3995129 0.016020047 -1.0336209e-21)
(2.3656939 -0.034389795 5.373283e-21)
(2.3628815 -0.10932387 1.0267048e-20)
(2.3636975 -0.17144361 -1.6156035e-20)
(2.3941738 -0.24133912 -1.641727e-20)
(2.4234085 -0.29761164 6.9862277e-21)
(2.4814737 -0.35316767 4.1840469e-21)
(2.5331905 -0.3943623 2.3198801e-22)
(2.6131652 -0.42433169 1.0999418e-20)
(2.6806977 -0.44083891 1.7911079e-20)
(2.7688458 -0.43315598 2.226677e-20)
(2.8378297 -0.41780802 6.1773673e-21)
(2.9125547 -0.37064008 -2.3178438e-20)
(2.9667749 -0.326078 -1.7257969e-20)
(3.0073058 -0.25168669 4.1173278e-20)
(3.0339388 -0.19057111 6.1687317e-20)
(3.0332446 -0.11273866 4.6575262e-20)
(3.0291555 -0.053226469 1.9241597e-20)
(2.9986576 0.0064170465 -7.9117581e-21)
(2.9737342 0.050149183 2.3070792e-21)
(2.9315381 0.084925451 -5.8327858e-22)
(2.8986746 0.11001602 -5.0857237e-22)
(2.8575403 0.12361316 1.5965418e-21)
(2.8260531 0.13334951 7.2178224e-21)
(2.7919109 0.1334519 1.071407e-20)
(2.7658811 0.13338391 -2.5474985e-21)
(2.7399059 0.12648789 -8.0030884e-21)
(2.7199407 0.12113225 -2.0685167e-21)
(2.7010144 0.11126062 2.3941589e-21)
(2.6862794 0.10364408 3.2871254e-21)
(2.672748 0.093165417 1.0046032e-21)
(2.6619978 0.084748079 2.2753502e-21)
(2.652298 0.074463595 5.2667324e-21)
(2.6445157 0.066228234 2.1182867e-21)
(2.637538 0.056809834 -1.5858433e-22)
(2.6317547 0.048652613 -2.9674628e-21)
(2.6265476 0.039614498 -2.0032353e-21)
(2.6222716 0.032037852 1.5703226e-21)
(2.6183468 0.023888968 2.3449403e-21)
(2.61494 0.015906721 2.3737272e-21)
(2.6117623 0.0073497799 -1.10842e-21)
(2.3821543 -0.14089827 3.9010575e-21)
(2.5041078 -0.14679677 -7.3276126e-20)
(2.6049763 -0.15351415 -5.2801267e-20)
(2.6207083 -0.050725377 4.8880339e-20)
(2.6402663 0.034491545 7.6062596e-20)
(2.610401 0.096347958 3.5155396e-20)
(2.5753678 0.14149858 3.2576239e-21)
(2.4894345 0.12928024 1.5467661e-20)
(2.4184331 0.11492656 1.040107e-21)
(2.3693722 0.050343782 -2.0864715e-22)
(2.3253884 -0.0052366059 -7.5824669e-21)
(2.3172573 -0.090819691 -1.484666e-21)
(2.3124615 -0.16253982 3.0827313e-21)
(2.3403518 -0.24400313 5.9609049e-22)
(2.3675075 -0.31122912 6.1502564e-22)
(2.4256597 -0.38028782 3.3763559e-21)
(2.4785789 -0.43415834 6.3125425e-22)
(2.5641661 -0.47962801 -1.6491123e-20)
(2.6390224 -0.50944639 -6.5059977e-21)
(2.7416082 -0.51468138 -3.7532558e-20)
(2.8248513 -0.50871946 -3.4242792e-20)
(2.9222584 -0.46611542 2.1431902e-20)
(2.994567 -0.42196942 -6.1983133e-21)
(3.0584261 -0.33916448 4.706935e-20)
(3.1012074 -0.26771087 1.0347761e-19)
(3.1130798 -0.17001306 3.3627749e-20)
(3.1161692 -0.093873384 1.8854108e-20)
(3.0834594 -0.013516956 2.5223384e-20)
(3.0563916 0.045279867 -4.6369919e-22)
(3.0040287 0.093877592 -2.7142977e-20)
(2.9643052 0.12888271 -3.0333471e-20)
(2.912519 0.14862597 7.0356949e-21)
(2.8732974 0.16314371 9.1476766e-21)
(2.8304932 0.16457758 9.9446383e-21)
(2.7978192 0.16573182 1.3304381e-20)
(2.7654435 0.15764957 -7.4617168e-22)
(2.7405666 0.15172837 -5.8979902e-21)
(2.7173385 0.13986399 2.7362815e-21)
(2.6992086 0.13087655 7.046191e-21)
(2.6829064 0.1181783 5.7198578e-21)
(2.6699412 0.10843989 3.5892569e-21)
(2.6585462 0.096438596 -2.5616957e-21)
(2.6492487 0.086836964 2.0625659e-22)
(2.6411614 0.075775735 3.5093223e-22)
(2.6344671 0.066915126 -1.8368245e-21)
(2.6286419 0.057140385 -1.0406265e-21)
(2.6236416 0.048676349 -9.6518042e-23)
(2.6192416 0.039503649 6.6628978e-21)
(2.6154647 0.031816899 7.4743731e-21)
(2.6120493 0.02367291 2.2065211e-21)
(2.6089862 0.015703163 -1.1010451e-21)
(2.6061591 0.0072372244 -9.885971e-22)
(2.3618467 -0.16358244 1.1721447e-21)
(2.4828481 -0.16919336 -3.4359889e-20)
(2.5886536 -0.1754043 -1.0818395e-19)
(2.6040321 -0.057588287 -1.5761517e-19)
(2.6267868 0.041201538 -6.2669765e-20)
(2.5929996 0.11755494 1.3732645e-20)
(2.5626585 0.17706633 -2.6051361e-20)
(2.4782447 0.17160058 -1.0784145e-20)
(2.3942326 0.16083037 5.9351964e-22)
(2.3356973 0.08935532 4.7038048e-21)
(2.2808744 0.028219604 3.5739694e-21)
(2.2684142 -0.068446185 2.6318184e-21)
(2.2586294 -0.15022164 8.5885648e-21)
(2.2838679 -0.24291801 8.6179933e-21)
(2.3085556 -0.32112296 6.328808e-21)
(2.3648812 -0.40300528 -1.041603e-21)
(2.4172789 -0.46972578 1.5545799e-21)
(2.5047355 -0.53100403 -7.9806637e-21)
(2.5842906 -0.5756284 -2.4366805e-20)
(2.6967006 -0.59601622 -3.9141185e-20)
(2.7928499 -0.60251943 -6.9094098e-20)
(2.9109053 -0.56757923 -2.4548188e-20)
(3.0037499 -0.52847217 2.8478988e-20)
(3.0955332 -0.44081784 -3.0140513e-20)
(3.1614057 -0.36220488 1.9964694e-20)
(3.1970032 -0.24594223 -4.1697712e-20)
(3.2138577 -0.15068872 -1.1022117e-19)
(3.1881564 -0.04551548 -3.5918431e-22)
(3.1598864 0.033491408 5.395569e-21)
(3.0974341 0.10137008 -1.3937015e-22)
(3.048266 0.15026243 -2.5461476e-20)
(2.9809608 0.17886465 -2.7481087e-20)
(2.9314906 0.19983296 8.0379543e-21)
(2.8768859 0.20298935 1.4041064e-20)
(2.8358039 0.2057841 1.4872346e-20)
(2.7954356 0.19609293 1.6540532e-20)
(2.7643496 0.18927912 3.2511551e-21)
(2.7358146 0.17456993 -4.985301e-21)
(2.7135125 0.1637848 3.226003e-21)
(2.6939302 0.14825487 8.441156e-21)
(2.6782766 0.13648864 7.2038144e-21)
(2.66492 0.12188349 3.2451816e-21)
(2.6539749 0.11064062 -2.5981752e-21)
(2.6447859 0.09771939 -3.4036413e-21)
(2.6370143 0.087347186 -3.3204338e-21)
(2.6305143 0.075890833 -4.4885226e-21)
(2.6249112 0.0666715 -3.7724975e-21)
(2.6201893 0.056776812 -2.2377457e-21)
(2.6159536 0.04817694 4.1457723e-21)
(2.6123148 0.039018854 2.9763154e-21)