/*--------------------------------*- C++ -*----------------------------------*\
| =========                 |                                                 |
| \\      /  F ield         | OpenFOAM: The Open Source CFD Toolbox           |
|  \\    /   O peration     | Version:  v2012                                 |
|   \\  /    A nd           | Website:  www.openfoam.com                      |
|    \\/     M anipulation  |                                                 |
\*---------------------------------------------------------------------------*/
FoamFile
{
    version     2.0;
    format      ascii;
    class       volVectorField;
    location    "78.9810715796743068";
    object      cellDisplacement;
}
// * * * * * * * * * * * * * * * * * * * * * * * * * * * * * * * * * * * * * //

dimensions      [0 1 0 0 0 0 0];


internalField   nonuniform List<vector> 
9200
(
(-0.044139171 0 0)
(-0.044313579 0 0)
(-0.12798098 0 0)
(-0.044581257 0 0)
(-0.12842137 0 0)
(-0.20583478 0 0)
(-0.044890564 0 0)
(-0.12909789 0 0)
(-0.20645975 0 0)
(-0.27799052 0 0)
(-0.045223237 0 0)
(-0.12993194 0 0)
(-0.20752642 0 0)
(-0.27883944 0 0)
(-0.34485226 0 0)
(-0.045563572 0 0)
(-0.13083634 0 0)
(-0.20881179 0 0)
(-0.28020848 0 0)
(-0.34584599 0 0)
(-0.40674232 0 0)
(-0.045896925 0 0)
(-0.13176185 0 0)
(-0.21021452 0 0)
(-0.28190163 0 0)
(-0.34753046 0 0)
(-0.40792242 0 0)
(-0.4640217 0 0)
(-0.04621843 0 0)
(-0.13267945 0 0)
(-0.21166143 0 0)
(-0.28377218 0 0)
(-0.34963111 0 0)
(-0.40989154 0 0)
(-0.46534261 0 0)
(-0.51699089 0 0)
(-0.046518949 0 0)
(-0.13355752 0 0)
(-0.21309004 0 0)
(-0.28569389 0 0)
(-0.35192901 0 0)
(-0.41235123 0 0)
(-0.46760411 0 0)
(-0.51849162 0 0)
(-0.56596126 0 0)
(-0.046798403 0 0)
(-0.13438799 0 0)
(-0.21446801 0 0)
(-0.28759824 0 0)
(-0.35430644 0 0)
(-0.4150806 0 0)
(-0.47044141 0 0)
(-0.52101827 0 0)
(-0.56760401 0 0)
(-0.61120354 0 0)
(-0.047052295 0 0)
(-0.1351536 0 0)
(-0.21576292 0 0)
(-0.28943171 0 0)
(-0.35666423 0 0)
(-0.41790645 0 0)
(-0.47359717 0 0)
(-0.52422326 0 0)
(-0.57042653 0 0)
(-0.61302397 0 0)
(-0.65297358 0 0)
(-0.047282724 0 0)
(-0.13585578 0 0)
(-0.21696584 0 0)
(-0.29115838 0 0)
(-0.35893298 0 0)
(-0.42071106 0 0)
(-0.47686841 0 0)
(-0.52780134 0 0)
(-0.57400424 0 0)
(-0.61611622 0 0)
(-0.65494469 0 0)
(-0.69151558 0 0)
(-0.047488055 0 0)
(-0.1364879 0 0)
(-0.21806193 0 0)
(-0.29275864 0 0)
(-0.36107405 0 0)
(-0.4234123 0 0)
(-0.48011684 0 0)
(-0.53152091 0 0)
(-0.57800472 0 0)
(-0.62005835 0 0)
(-0.65833931 0 0)
(-0.69366977 0 0)
(-0.72704631 0 0)
(-0.047671527 0 0)
(-0.13705506 0 0)
(-0.21905507 0 0)
(-0.29422006 0 0)
(-0.36305314 0 0)
(-0.42596113 0 0)
(-0.48325626 0 0)
(-0.535233 0 0)
(-0.58220016 0 0)
(-0.62450923 0 0)
(-0.66267044 0 0)
(-0.69734733 0 0)
(-0.72936327 0 0)
(-0.75978313 0 0)
(-0.047832911 0 0)
(-0.1375577 0 0)
(-0.21994096 0 0)
(-0.29553956 0 0)
(-0.36486365 0 0)
(-0.4283207 0 0)
(-0.48621411 0 0)
(-0.53881213 0 0)
(-0.58636586 0 0)
(-0.62914716 0 0)
(-0.66754347 0 0)
(-0.70206149 0 0)
(-0.73336075 0 0)
(-0.76228944 0 0)
(-0.78990343 0 0)
(-0.047975845 0 0)
(-0.13800127 0 0)
(-0.22072876 0 0)
(-0.29671923 0 0)
(-0.36649316 0 0)
(-0.43047699 0 0)
(-0.48896167 0 0)
(-0.54219444 0 0)
(-0.59040548 0 0)
(-0.63381438 0 0)
(-0.67269041 0 0)
(-0.70740491 0 0)
(-0.73848331 0 0)
(-0.76658751 0 0)
(-0.79258311 0 0)
(-0.81760054 0 0)
(-0.048100591 0 0)
(-0.13839067 0 0)
(-0.22142103 0 0)
(-0.29776478 0 0)
(-0.36795268 0 0)
(-0.43242208 0 0)
(-0.49146826 0 0)
(-0.54533455 0 0)
(-0.59422669 0 0)
(-0.6383281 0 0)
(-0.67783725 0 0)
(-0.71302128 0 0)
(-0.74427994 0 0)
(-0.77211796 0 0)
(-0.79721696 0 0)
(-0.82047618 0 0)
(-0.84302501 0 0)
(-0.048210774 0 0)
(-0.13873019 0 0)
(-0.22202784 0 0)
(-0.29868559 0 0)
(-0.36924081 0 0)
(-0.43415975 0 0)
(-0.49373681 0 0)
(-0.54820755 0 0)
(-0.59777695 0 0)
(-0.64260813 0 0)
(-0.68285243 0 0)
(-0.71869954 0 0)
(-0.75042787 0 0)
(-0.77841152 0 0)
(-0.80317896 0 0)
(-0.82542599 0 0)
(-0.8460837 0 0)
(-0.86634974 0 0)
(-0.048306617 0 0)
(-0.13902682 0 0)
(-0.22255539 0 0)
(-0.29949008 0 0)
(-0.37037665 0 0)
(-0.43569895 0 0)
(-0.4957602 0 0)
(-0.55080561 0 0)
(-0.6010345 0 0)
(-0.64659489 0 0)
(-0.68761642 0 0)
(-0.72423967 0 0)
(-0.75663383 0 0)
(-0.78506959 0 0)
(-0.80995979 0 0)
(-0.83182086 0 0)
(-0.8513823 0 0)
(-0.86960781 0 0)
(-0.88770005 0 0)
(-0.04839154 0 0)
(-0.13928357 0 0)
(-0.22301218 0 0)
(-0.30019034 0 0)
(-0.37136446 0 0)
(-0.43705073 0 0)
(-0.49755781 0 0)
(-0.55313008 0 0)
(-0.60397979 0 0)
(-0.65025432 0 0)
(-0.69206297 0 0)
(-0.72951198 0 0)
(-0.76271291 0 0)
(-0.79183987 0 0)
(-0.81718133 0 0)
(-0.83912417 0 0)
(-0.85822652 0 0)
(-0.87523404 0 0)
(-0.89114606 0 0)
(-0.90722987 0 0)
(-0.048465505 0 0)
(-0.13950774 0 0)
(-0.22340659 0 0)
(-0.30079586 0 0)
(-0.37222603 0 0)
(-0.43823213 0 0)
(-0.49913392 0 0)
(-0.55519131 0 0)
(-0.60662288 0 0)
(-0.65357558 0 0)
(-0.69615039 0 0)
(-0.73443918 0 0)
(-0.76851956 0 0)
(-0.79848656 0 0)
(-0.82451297 0 0)
(-0.84689057 0 0)
(-0.86604423 0 0)
(-0.88252665 0 0)
(-0.89712801 0 0)
(-0.91087638 0 0)
(-0.92504709 0 0)
(-0.048531468 0 0)
(-0.13970138 0 0)
(-0.223745 0 0)
(-0.30131806 0 0)
(-0.37296692 0 0)
(-0.43925634 0 0)
(-0.50051543 0 0)
(-0.55700573 0 0)
(-0.60896544 0 0)
(-0.65655414 0 0)
(-0.69986671 0 0)
(-0.73898254 0 0)
(-0.77395928 0 0)
(-0.80485306 0 0)
(-0.83174515 0 0)
(-0.85482269 0 0)
(-0.87440031 0 0)
(-0.89088552 0 0)
(-0.90488092 0 0)
(-0.91719135 0 0)
(-0.92888421 0 0)
(-0.94128998 0 0)
(-0.048589156 0 0)
(-0.1398709 0 0)
(-0.22403631 0 0)
(-0.30176627 0 0)
(-0.37360827 0 0)
(-0.4401434 0 0)
(-0.50171137 0 0)
(-0.55859082 0 0)
(-0.61103258 0 0)
(-0.65920615 0 0)
(-0.70320666 0 0)
(-0.74311553 0 0)
(-0.77898172 0 0)
(-0.81082878 0 0)
(-0.83868987 0 0)
(-0.86265765 0 0)
(-0.88292683 0 0)
(-0.89981488 0 0)
(-0.91377285 0 0)
(-0.92540241 0 0)
(-0.93555602 0 0)
(-0.94532497 0 0)
(-0.95605027 0 0)
(-0.048640886 0 0)
(-0.14001787 0 0)
(-0.22428505 0 0)
(-0.30215105 0 0)
(-0.37415566 0 0)
(-0.44090541 0 0)
(-0.50274975 0 0)
(-0.55996971 0 0)
(-0.61283725 0 0)
(-0.6615432 0 0)
(-0.70618383 0 0)
(-0.74684237 0 0)
(-0.78356139 0 0)
(-0.81635504 0 0)
(-0.8452284 0 0)
(-0.87020372 0 0)
(-0.89137734 0 0)
(-0.90896871 0 0)
(-0.92331052 0 0)
(-0.93484509 0 0)
(-0.94423059 0 0)
(-0.95233012 0 0)
(-0.96027358 0 0)
(-0.9694505 0 0)
(-0.048686398 0 0)
(-0.14014716 0 0)
(-0.22449956 0 0)
(-0.30248029 0 0)
(-0.37462708 0 0)
(-0.44156133 0 0)
(-0.50364046 0 0)
(-0.5611615 0 0)
(-0.61441089 0 0)
(-0.6635947 0 0)
(-0.70881471 0 0)
(-0.75016518 0 0)
(-0.7876963 0 0)
(-0.82140705 0 0)
(-0.8512873 0 0)
(-0.87733057 0 0)
(-0.89954836 0 0)
(-0.91805631 0 0)
(-0.93308512 0 0)
(-0.94497563 0 0)
(-0.95421507 0 0)
(-0.96146282 0 0)
(-0.96763055 0 0)
(-0.9738665 0 0)
(-0.98157114 0 0)
(-0.048727167 0 0)
(-0.14026016 0 0)
(-0.22468307 0 0)
(-0.3027629 0 0)
(-0.37502807 0 0)
(-0.44212175 0 0)
(-0.50440946 0 0)
(-0.56219056 0 0)
(-0.61576928 0 0)
(-0.66537879 0 0)
(-0.71112436 0 0)
(-0.7531109 0 0)
(-0.79139401 0 0)
(-0.82597467 0 0)
(-0.85683595 0 0)
(-0.88394431 0 0)
(-0.90726896 0 0)
(-0.92685025 0 0)
(-0.94281493 0 0)
(-0.95539913 0 0)
(-0.96496387 0 0)
(-0.97199974 0 0)
(-0.97722246 0 0)
(-0.98155104 0 0)
(-0.98617103 0 0)
(-0.99252157 0 0)
(-0.048763131 0 0)
(-0.14036023 0 0)
(-0.22484263 0 0)
(-0.30300546 0 0)
(-0.37537348 0 0)
(-0.4426036 0 0)
(-0.50506572 0 0)
(-0.56307349 0 0)
(-0.61694426 0 0)
(-0.66692921 0 0)
(-0.71314014 0 0)
(-0.75569721 0 0)
(-0.7946749 0 0)
(-0.83007082 0 0)
(-0.86186111 0 0)
(-0.89001035 0 0)
(-0.91446912 0 0)
(-0.9352089 0 0)
(-0.95226747 0 0)
(-0.9657917 0 0)
(-0.97602687 0 0)
(-0.98335126 0 0)
(-0.98830106 0 0)
(-0.99159476 0 0)
(-0.99419688 0 0)
(-0.99730571 0 0)
(-1.0023718 0 0)
(-0.048795108 0 0)
(-0.1404486 0 0)
(-0.22498059 0 0)
(-0.30321504 0 0)
(-0.3756683 0 0)
(-0.44301537 0 0)
(-0.50563118 0 0)
(-0.56383305 0 0)
(-0.61795066 0 0)
(-0.66826459 0 0)
(-0.71489006 0 0)
(-0.75796133 0 0)
(-0.79756573 0 0)
(-0.83371087 0 0)
(-0.86637826 0 0)
(-0.89552453 0 0)
(-0.92108628 0 0)
(-0.94300167 0 0)
(-0.96125015 0 0)
(-0.97589796 0 0)
(-0.98708608 0 0)
(-0.99507567 0 0)
(-1.0002713 0 0)
(-1.0032181 0 0)
(-1.0046882 0 0)
(-1.0056489 0 0)
(-1.0073314 0 0)
(-1.0112174 0 0)
(-0.048823343 0 0)
(-0.14052782 0 0)
(-0.22510259 0 0)
(-0.30339704 0 0)
(-0.37592392 0 0)
(-0.44337074 0 0)
(-0.50611373 0 0)
(-0.56448291 0 0)
(-0.61881832 0 0)
(-0.66941776 0 0)
(-0.71640428 0 0)
(-0.75992635 0 0)
(-0.80009649 0 0)
(-0.83692679 0 0)
(-0.87040129 0 0)
(-0.90048326 0 0)
(-0.9271069 0 0)
(-0.95019189 0 0)
(-0.96967458 0 0)
(-0.98555043 0 0)
(-0.99787788 0 0)
(-1.0068167 0 0)
(-1.0126442 0 0)
(-1.0157906 0 0)
(-1.0168433 0 0)
(-1.0165773 0 0)
(-1.0160003 0 0)
(-1.0163509 0 0)
(-1.0191208 0 0)
(-0.048846838 0 0)
(-0.14059842 0 0)
(-0.22521025 0 0)
(-0.30355661 0 0)
(-0.37614505 0 0)
(-0.44367683 0 0)
(-0.50653124 0 0)
(-0.56504234 0 0)
(-0.61955871 0 0)
(-0.67040508 0 0)
(-0.71770845 0 0)
(-0.76163095 0 0)
(-0.80230229 0 0)
(-0.83974703 0 0)
(-0.87396326 0 0)
(-0.90491805 0 0)
(-0.93254286 0 0)
(-0.95675247 0 0)
(-0.97746429 0 0)
(-0.99461041 0 0)
(-1.0081891 0 0)
(-1.0182889 0 0)
(-1.0250673 0 0)
(-1.0288269 0 0)
(-1.0300252 0 0)
(-1.0292615 0 0)
(-1.0273583 0 0)
(-1.0253222 0 0)
(-1.0244202 0 0)
(-1.0261661 0 0)
(-0.048663936 0 0)
(-0.14065937 0 0)
(-0.22530895 0 0)
(-0.30369908 0 0)
(-0.37634031 0 0)
(-0.44394457 0 0)
(-0.50689017 0 0)
(-0.56552216 0 0)
(-0.62019818 0 0)
(-0.67125597 0 0)
(-0.71883155 0 0)
(-0.7630986 0 0)
(-0.80421416 0 0)
(-0.84221046 0 0)
(-0.87709416 0 0)
(-0.90884722 0 0)
(-0.93740741 0 0)
(-0.96268682 0 0)
(-0.98458841 0 0)
(-1.0030161 0 0)
(-1.0179142 0 0)
(-1.0292983 0 0)
(-1.0372442 0 0)
(-1.0419399 0 0)
(-1.0437081 0 0)
(-1.0430347 0 0)
(-1.0405563 0 0)
(-1.0370974 0 0)
(-1.0336978 0 0)
(-1.031627 0 0)
(-1.0324085 0 0)
(-0.048441535 0 0)
(-0.14026922 0 0)
(-0.22539374 0 0)
(-0.30382674 0 0)
(-0.37651457 0 0)
(-0.4441797 0 0)
(-0.50720437 0 0)
(-0.56593842 0 0)
(-0.62074494 0 0)
(-0.67198356 0 0)
(-0.7197951 0 0)
(-0.76436464 0 0)
(-0.80586809 0 0)
(-0.84434948 0 0)
(-0.87983356 0 0)
(-0.91231429 0 0)
(-0.94173593 0 0)
(-0.96801109 0 0)
(-0.9910447 0 0)
(-1.0107283 0 0)
(-1.0269593 0 0)
(-1.0396874 0 0)
(-1.0489381 0 0)
(-1.054814 0 0)
(-1.0575066 0 0)
(-1.0573716 0 0)
(-1.05492 0 0)
(-1.0508009 0 0)
(-1.0458791 0 0)
(-1.0411892 0 0)
(-1.038023 0 0)
(-1.0379202 0 0)
(-0.048240484 0 0)
(-0.13960132 0 0)
(-0.22481386 0 0)
(-0.30393891 0 0)
(-0.37667264 0 0)
(-0.44438981 0 0)
(-0.5074794 0 0)
(-0.56629933 0 0)
(-0.62122048 0 0)
(-0.67261215 0 0)
(-0.72062425 0 0)
(-0.76545018 0 0)
(-0.80729222 0 0)
(-0.84620274 0 0)
(-0.88221757 0 0)
(-0.91535058 0 0)
(-0.94555785 0 0)
(-0.97275768 0 0)
(-0.99685376 0 0)
(-1.0177323 0 0)
(-1.0352781 0 0)
(-1.0493875 0 0)
(-1.0600223 0 0)
(-1.0672249 0 0)
(-1.071093 0 0)
(-1.0718564 0 0)
(-1.0698906 0 0)
(-1.0657355 0 0)
(-1.0600708 0 0)
(-1.0537623 0 0)
(-1.0478694 0 0)
(-1.0436832 0 0)
(-1.0427508 0 0)
(-0.048062394 0 0)
(-0.13899699 0 0)
(-0.22374346 0 0)
(-0.30318933 0 0)
(-0.37681267 0 0)
(-0.44458144 0 0)
(-0.50772521 0 0)
(-0.56661766 0 0)
(-0.62163142 0 0)
(-0.67315265 0 0)
(-0.72133643 0 0)
(-0.76638521 0 0)
(-0.80851991 0 0)
(-0.84780163 0 0)
(-0.88428546 0 0)
(-0.9180015 0 0)
(-0.94891923 0 0)
(-0.97696081 0 0)
(-1.0020407 0 0)
(-1.0240489 0 0)
(-1.0428546 0 0)
(-1.0583311 0 0)
(-1.0703884 0 0)
(-1.0789975 0 0)
(-1.084206 0 0)
(-1.0861444 0 0)
(-1.0850523 0 0)
(-1.0813404 0 0)
(-1.075569 0 0)
(-1.0684303 0 0)
(-1.0608214 0 0)
(-1.0537937 0 0)
(-1.048655 0 0)
(-1.0469631 0 0)
(-0.04790937 0 0)
(-0.1384632 0 0)
(-0.22277674 0 0)
(-0.30176351 0 0)
(-0.37591957 0 0)
(-0.44474892 0 0)
(-0.50794849 0 0)
(-0.56690082 0 0)
(-0.62199507 0 0)
(-0.67362455 0 0)
(-0.72195276 0 0)
(-0.76718763 0 0)
(-0.80957436 0 0)
(-0.84918081 0 0)
(-0.88607299 0 0)
(-0.92030338 0 0)
(-0.95185643 0 0)
(-0.98066365 0 0)
(-1.0066478 0 0)
(-1.0297006 0 0)
(-1.0496956 0 0)
(-1.0664971 0 0)
(-1.0799756 0 0)
(-1.0900448 0 0)
(-1.0966926 0 0)
(-1.0999816 0 0)
(-1.1000477 0 0)
(-1.0971729 0 0)
(-1.091785 0 0)
(-1.0844709 0 0)
(-1.075947 0 0)
(-1.0671095 0 0)
(-1.0590263 0 0)
(-1.0530021 0 0)
(-1.050601 0 0)
(-0.04778176 0 0)
(-0.1380038 0 0)
(-0.22192224 0 0)
(-0.30047273 0 0)
(-0.37418188 0 0)
(-0.4437291 0 0)
(-0.50814359 0 0)
(-0.56715694 0 0)
(-0.62231774 0 0)
(-0.67403685 0 0)
(-0.72248649 0 0)
(-0.76787982 0 0)
(-0.81048376 0 0)
(-0.85036759 0 0)
(-0.88761564 0 0)
(-0.92229794 0 0)
(-0.95441724 0 0)
(-0.98390912 0 0)
(-1.0107122 0 0)
(-1.0347322 0 0)
(-1.0558382 0 0)
(-1.0738908 0 0)
(-1.0887524 0 0)
(-1.1002908 0 0)
(-1.1084312 0 0)
(-1.1131727 0 0)
(-1.1145925 0 0)
(-1.1128618 0 0)
(-1.1082747 0 0)
(-1.1012924 0 0)
(-1.0925177 0 0)
(-1.0826776 0 0)
(-1.0726915 0 0)
(-1.0636163 0 0)
(-1.0567679 0 0)
(-1.0537182 0 0)
(-0.04768156 0 0)
(-0.13762178 0 0)
(-0.22118774 0 0)
(-0.29933445 0 0)
(-0.37260968 0 0)
(-0.44170995 0 0)
(-0.50700914 0 0)
(-0.56738261 0 0)
(-0.6226104 0 0)
(-0.67440332 0 0)
(-0.72295387 0 0)
(-0.7684785 0 0)
(-0.81126679 0 0)
(-0.85139174 0 0)
(-0.8889455 0 0)
(-0.92402107 0 0)
(-0.95663844 0 0)
(-0.98674192 0 0)
(-1.0142848 0 0)
(-1.0391815 0 0)
(-1.0613115 0 0)
(-1.08054 0 0)
(-1.0967174 0 0)
(-1.1096935 0 0)
(-1.1193471 0 0)
(-1.1256134 0 0)
(-1.1285069 0 0)
(-1.1281261 0 0)
(-1.1246548 0 0)
(-1.1184274 0 0)
(-1.1099194 0 0)
(-1.0997563 0 0)
(-1.0886829 0 0)
(-1.0776152 0 0)
(-1.0676192 0 0)
(-1.0600066 0 0)
(-1.0563543 0 0)
(-0.047608531 0 0)
(-0.13732066 0 0)
(-0.22057698 0 0)
(-0.2983539 0 0)
(-0.37122339 0 0)
(-0.43988596 0 0)
(-0.50473744 0 0)
(-0.56614722 0 0)
(-0.62286884 0 0)
(-0.67473443 0 0)
(-0.72336735 0 0)
(-0.76899945 0 0)
(-0.81194675 0 0)
(-0.85227527 0 0)
(-0.89009256 0 0)
(-0.92550841 0 0)
(-0.95856461 0 0)
(-0.98920697 0 0)
(-1.0174073 0 0)
(-1.0431003 0 0)
(-1.0661694 0 0)
(-1.0864812 0 0)
(-1.1038941 0 0)
(-1.1182504 0 0)
(-1.1293942 0 0)
(-1.1372102 0 0)
(-1.1416536 0 0)
(-1.1427502 0 0)
(-1.1406198 0 0)
(-1.1354816 0 0)
(-1.1276822 0 0)
(-1.1177276 0 0)
(-1.1062535 0 0)
(-1.0940132 0 0)
(-1.0819373 0 0)
(-1.0710789 0 0)
(-1.0627579 0 0)
(-1.0585552 0 0)
(-0.047564373 0 0)
(-0.13710175 0 0)
(-0.22009528 0 0)
(-0.29754021 0 0)
(-0.37003022 0 0)
(-0.43827568 0 0)
(-0.50268572 0 0)
(-0.56365242 0 0)
(-0.62154927 0 0)
(-0.67502308 0 0)
(-0.72373626 0 0)
(-0.76945943 0 0)
(-0.81253853 0 0)
(-0.85304276 0 0)
(-0.89108399 0 0)
(-0.92679226 0 0)
(-0.96022904 0 0)
(-0.9913454 0 0)
(-1.0201309 0 0)
(-1.0465338 0 0)
(-1.0704506 0 0)
(-1.0917617 0 0)
(-1.1103236 0 0)
(-1.1259776 0 0)
(-1.1385613 0 0)
(-1.1479173 0 0)
(-1.1539438 0 0)
(-1.1566103 0 0)
(-1.1559645 0 0)
(-1.1521497 0 0)
(-1.1454012 0 0)
(-1.1361016 0 0)
(-1.1247679 0 0)
(-1.1120532 0 0)
(-1.098723 0 0)
(-1.085701 0 0)
(-1.0740441 0 0)
(-1.0650672 0 0)
(-1.0603564 0 0)
(-0.047548211 0 0)
(-0.13696788 0 0)
(-0.21974549 0 0)
(-0.29689711 0 0)
(-0.36904019 0 0)
(-0.4368922 0 0)
(-0.50087494 0 0)
(-0.56139696 0 0)
(-0.61885634 0 0)
(-0.67362715 0 0)
(-0.72405981 0 0)
(-0.76986695 0 0)
(-0.81305964 0 0)
(-0.85371168 0 0)
(-0.89194399 0 0)
(-0.92790172 0 0)
(-0.96167014 0 0)
(-0.99319912 0 0)
(-1.0224962 0 0)
(-1.0495334 0 0)
(-1.0742153 0 0)
(-1.0964298 0 0)
(-1.1160479 0 0)
(-1.1329159 0 0)
(-1.1468591 0 0)
(-1.1577037 0 0)
(-1.1653131 0 0)
(-1.1695968 0 0)
(-1.1705364 0 0)
(-1.1681978 0 0)
(-1.1627515 0 0)
(-1.154465 0 0)
(-1.1437325 0 0)
(-1.131096 0 0)
(-1.117214 0 0)
(-1.1028566 0 0)
(-1.0889553 0 0)
(-1.0765536 0 0)
(-1.0669711 0 0)
(-1.0617966 0 0)
(-0.13691863 0 0)
(-0.047554982 0 0)
(-0.21953046 0 0)
(-0.29643094 0 0)
(-0.3682589 0 0)
(-0.43574307 0 0)
(-0.49931976 0 0)
(-0.5594092 0 0)
(-0.61642227 0 0)
(-0.67074849 0 0)
(-0.72259049 0 0)
(-0.77022535 0 0)
(-0.81352548 0 0)
(-0.85430117 0 0)
(-0.89269472 0 0)
(-0.92886434 0 0)
(-0.96291656 0 0)
(-0.99480321 0 0)
(-1.02455 0 0)
(-1.0521452 0 0)
(-1.0775054 0 0)
(-1.1005383 0 0)
(-1.1211219 0 0)
(-1.1391059 0 0)
(-1.1543222 0 0)
(-1.1665922 0 0)
(-1.1757469 0 0)
(-1.1816496 0 0)
(-1.1842279 0 0)
(-1.1834823 0 0)
(-1.1795054 0 0)
(-1.1724919 0 0)
(-1.1627254 0 0)
(-1.1506311 0 0)
(-1.136758 0 0)
(-1.1217763 0 0)
(-1.1064634 0 0)
(-1.0917392 0 0)
(-1.078649 0 0)
(-1.0685076 0 0)
(-1.0629078 0 0)
(-0.21945204 0 0)
(-0.13693692 0 0)
(-0.047583434 0 0)
(-0.29614372 0 0)
(-0.36769303 0 0)
(-0.43483792 0 0)
(-0.49802856 0 0)
(-0.55770041 0 0)
(-0.61427753 0 0)
(-0.66814971 0 0)
(-0.71954539 0 0)
(-0.76869538 0 0)
(-0.81392976 0 0)
(-0.8548284 0 0)
(-0.89335657 0 0)
(-0.92970342 0 0)
(-0.96399964 0 0)
(-0.99619411 0 0)
(-1.0263287 0 0)
(-1.0544154 0 0)
(-1.0803796 0 0)
(-1.1041404 0 0)
(-1.1255948 0 0)
(-1.1446055 0 0)
(-1.1610041 0 0)
(-1.1746081 0 0)
(-1.1852358 0 0)
(-1.1927256 0 0)
(-1.1969612 0 0)
(-1.1978772 0 0)
(-1.1954955 0 0)
(-1.1899308 0 0)
(-1.1814054 0 0)
(-1.1702304 0 0)
(-1.1568407 0 0)
(-1.1418046 0 0)
(-1.1257929 0 0)
(-1.109582 0 0)
(-1.0940951 0 0)
(-1.0803653 0 0)
(-1.0697099 0 0)
(-1.0637226 0 0)
(-0.29603844 0 0)
(-0.2194798 0 0)
(-0.13702096 0 0)
(-0.047641031 0 0)
(-0.36734608 0 0)
(-0.43418181 0 0)
(-0.49701217 0 0)
(-0.55628404 0 0)
(-0.6124344 0 0)
(-0.6658564 0 0)
(-0.71679058 0 0)
(-0.76550053 0 0)
(-0.81235901 0 0)
(-0.85528688 0 0)
(-0.89394499 0 0)
(-0.93044236 0 0)
(-0.96494344 0 0)
(-0.99740087 0 0)
(-1.027872 0 0)
(-1.0563861 0 0)
(-1.0828778 0 0)
(-1.1072874 0 0)
(-1.1295257 0 0)
(-1.149464 0 0)
(-1.1669459 0 0)
(-1.1817943 0 0)
(-1.1938198 0 0)
(-1.2028401 0 0)
(-1.208707 0 0)
(-1.2113069 0 0)
(-1.2105961 0 0)
(-1.2066208 0 0)
(-1.1995246 0 0)
(-1.189551 0 0)
(-1.1770271 0 0)
(-1.162412 0 0)
(-1.146277 0 0)
(-1.1292993 0 0)
(-1.1122565 0 0)
(-1.0960581 0 0)
(-1.0817381 0 0)
(-1.0706096 0 0)
(-1.0642696 0 0)
(-0.36722064 0 0)
(-0.29607525 0 0)
(-0.21961501 0 0)
(-0.13719115 0 0)
(-0.047726154 0 0)
(-0.43378068 0 0)
(-0.49627647 0 0)
(-0.55516833 0 0)
(-0.61090695 0 0)
(-0.66388833 0 0)
(-0.71436418 0 0)
(-0.76260964 0 0)
(-0.80902843 0 0)
(-0.85367965 0 0)
(-0.89446063 0 0)
(-0.93109743 0 0)
(-0.9657715 0 0)
(-0.99845312 0 0)
(-1.0292113 0 0)
(-1.0580969 0 0)
(-1.0850529 0 0)
(-1.1100317 0 0)
(-1.132965 0 0)
(-1.1537425 0 0)
(-1.1722144 0 0)
(-1.1882078 0 0)
(-1.2015371 0 0)
(-1.2120128 0 0)
(-1.2194532 0 0)
(-1.2237164 0 0)
(-1.2247157 0 0)
(-1.22242 0 0)
(-1.2169017 0 0)
(-1.2083264 0 0)
(-1.1969629 0 0)
(-1.1831604 0 0)
(-1.167385 0 0)
(-1.150222 0 0)
(-1.1323431 0 0)
(-1.1145203 0 0)
(-1.0976639 0 0)
(-1.0827986 0 0)
(-1.0712368 0 0)
(-1.0645754 0 0)
(-0.43363652 0 0)
(-0.36726849 0 0)
(-0.29625419 0 0)
(-0.21988554 0 0)
(-0.13744449 0 0)
(-0.047839358 0 0)
(-0.49582787 0 0)
(-0.55436258 0 0)
(-0.60970459 0 0)
(-0.66225474 0 0)
(-0.71227704 0 0)
(-0.76006474 0 0)
(-0.80602227 0 0)
(-0.85022616 0 0)
(-0.8928216 0 0)
(-0.9316716 0 0)
(-0.9665063 0 0)
(-0.99937625 0 0)
(-1.0303789 0 0)
(-1.0595844 0 0)
(-1.0869402 0 0)
(-1.1124192 0 0)
(-1.1359698 0 0)
(-1.1574938 0 0)
(-1.176857 0 0)
(-1.1938991 0 0)
(-1.2084377 0 0)
(-1.220279 0 0)
(-1.2292272 0 0)
(-1.235112 0 0)
(-1.2378098 0 0)
(-1.2372376 0 0)
(-1.2333945 0 0)
(-1.2263788 0 0)
(-1.2163829 0 0)
(-1.2036933 0 0)
(-1.1886731 0 0)
(-1.1718063 0 0)
(-1.1536756 0 0)
(-1.1349548 0 0)
(-1.1164124 0 0)
(-1.0989443 0 0)
(-1.0835765 0 0)
(-1.0716176 0 0)
(-1.0646661 0 0)
(-0.49566857 0 0)
(-0.43369348 0 0)
(-0.36748918 0 0)
(-0.29661521 0 0)
(-0.22029228 0 0)
(-0.13778154 0 0)
(-0.047978667 0 0)
(-0.55387154 0 0)
(-0.60883668 0 0)
(-0.6609705 0 0)
(-0.71054842 0 0)
(-0.75787572 0 0)
(-0.8033716 0 0)
(-0.8471111 0 0)
(-0.88926108 0 0)
(-0.93001137 0 0)
(-0.96714207 0 0)
(-1.0001908 0 0)
(-1.0314023 0 0)
(-1.0608808 0 0)
(-1.088584 0 0)
(-1.1144967 0 0)
(-1.1385868 0 0)
(-1.1607758 0 0)
(-1.1809411 0 0)
(-1.1989327 0 0)
(-1.2145771 0 0)
(-1.2276866 0 0)
(-1.238061 0 0)
(-1.2455046 0 0)
(-1.2498559 0 0)
(-1.2510058 0 0)
(-1.2488992 0 0)
(-1.2435525 0 0)
(-1.2350928 0 0)
(-1.2237315 0 0)
(-1.2097763 0 0)
(-1.1936072 0 0)
(-1.1757116 0 0)
(-1.1566803 0 0)
(-1.1371772 0 0)
(-1.1179618 0 0)
(-1.0999293 0 0)
(-1.0841 0 0)
(-1.0717791 0 0)
(-1.0645636 0 0)
(-0.55369941 0 0)
(-0.49573553 0 0)
(-0.43395168 0 0)
(-0.36793169 0 0)
(-0.29715551 0 0)
(-0.22082979 0 0)
(-0.13819759 0 0)
(-0.048144127 0 0)
(-0.60830933 0 0)
(-0.66004177 0 0)
(-0.70918566 0 0)
(-0.75606354 0 0)
(-0.80109761 0 0)
(-0.84436647 0 0)
(-0.8860471 0 0)
(-0.92635584 0 0)
(-0.96546872 0 0)
(-1.0008998 0 0)
(-1.0323046 0 0)
(-1.0620156 0 0)
(-1.0900155 0 0)
(-1.1163038 0 0)
(-1.1408669 0 0)
(-1.1636398 0 0)
(-1.184516 0 0)
(-1.2033625 0 0)
(-1.2200163 0 0)
(-1.2342939 0 0)
(-1.2459957 0 0)
(-1.2549211 0 0)
(-1.2608777 0 0)
(-1.263718 0 0)
(-1.263355 0 0)
(-1.2597442 0 0)
(-1.2529359 0 0)
(-1.2430816 0 0)
(-1.2304157 0 0)
(-1.2152584 0 0)
(-1.1980013 0 0)
(-1.1791432 0 0)
(-1.1592675 0 0)
(-1.1390364 0 0)
(-1.1192023 0 0)
(-1.1006479 0 0)
(-1.0843942 0 0)
(-1.0717426 0 0)
(-1.064291 0 0)
(-0.60812592 0 0)
(-0.55377591 0 0)
(-0.49602877 0 0)
(-0.43446665 0 0)
(-0.36859258 0 0)
(-0.29787339 0 0)
(-0.22149797 0 0)
(-0.13869228 0 0)
(-0.048333545 0 0)
(-0.6594778 0 0)
(-0.70820277 0 0)
(-0.75463551 0 0)
(-0.79921169 0 0)
(-0.84201307 0 0)
(-0.88321932 0 0)
(-0.92305572 0 0)
(-0.96172137 0 0)
(-0.99921409 0 0)
(-1.0330906 0 0)
(-1.0630167 0 0)
(-1.0912687 0 0)
(-1.1178798 0 0)
(-1.1428514 0 0)
(-1.166137 0 0)
(-1.1876437 0 0)
(-1.2072531 0 0)
(-1.2248152 0 0)
(-1.2401586 0 0)
(-1.2530894 0 0)
(-1.2634015 0 0)
(-1.2708907 0 0)
(-1.2753768 0 0)
(-1.2767279 0 0)
(-1.2748728 0 0)
(-1.269799 0 0)
(-1.2615764 0 0)
(-1.250384 0 0)
(-1.2364709 0 0)
(-1.220173 0 0)
(-1.2018945 0 0)
(-1.1821332 0 0)
(-1.1614751 0 0)
(-1.1405703 0 0)
(-1.1201595 0 0)
(-1.1011247 0 0)
(-1.084484 0 0)
(-1.0715326 0 0)
(-1.0638661 0 0)
(-0.65928087 0 0)
(-0.60821071 0 0)
(-0.55410085 0 0)
(-0.49661101 0 0)
(-0.43523653 0 0)
(-0.36946852 0 0)
(-0.29876207 0 0)
(-0.22228872 0 0)
(-0.13925988 0 0)
(-0.048546377 0 0)
(-0.70760347 0 0)
(-0.75360614 0 0)
(-0.79773008 0 0)
(-0.84006327 0 0)
(-0.88079342 0 0)
(-0.92015351 0 0)
(-0.95834329 0 0)
(-0.99538541 0 0)
(-1.0314021 0 0)
(-1.0638831 0 0)
(-1.092373 0 0)
(-1.1192593 0 0)
(-1.1445828 0 0)
(-1.1683134 0 0)
(-1.1903716 0 0)
(-1.2106574 0 0)
(-1.2290352 0 0)
(-1.2453453 0 0)
(-1.2593992 0 0)
(-1.2709967 0 0)
(-1.2799308 0 0)
(-1.2859984 0 0)
(-1.28903 0 0)
(-1.2889154 0 0)
(-1.285605 0 0)
(-1.2791023 0 0)
(-1.2695129 0 0)
(-1.2570358 0 0)
(-1.2419377 0 0)
(-1.224562 0 0)
(-1.2053217 0 0)
(-1.1847193 0 0)
(-1.1633305 0 0)
(-1.1418016 0 0)
(-1.1208622 0 0)
(-1.1013862 0 0)
(-1.0843901 0 0)
(-1.0711667 0 0)
(-1.0633102 0 0)
(-0.70739478 0 0)
(-0.65937035 0 0)
(-0.60856292 0 0)
(-0.55474488 0 0)
(-0.49748057 0 0)
(-0.43625506 0 0)
(-0.37055295 0 0)
(-0.29981831 0 0)
(-0.22320091 0 0)
(-0.13989895 0 0)
(-0.048779735 0 0)
(-0.75297964 0 0)
(-0.79665938 0 0)
(-0.83853174 0 0)
(-0.87878589 0 0)
(-0.91766354 0 0)
(-0.95536884 0 0)
(-0.99193159 0 0)
(-1.0274983 0 0)
(-1.0622003 0 0)
(-1.0933272 0 0)
(-1.1204718 0 0)
(-1.1460981 0 0)
(-1.1702125 0 0)
(-1.192753 0 0)
(-1.2136345 0 0)
(-1.2327359 0 0)
(-1.2499138 0 0)
(-1.2649918 0 0)
(-1.2777716 0 0)
(-1.2880485 0 0)
(-1.2956155 0 0)
(-1.3002716 0 0)
(-1.3018652 0 0)
(-1.3003064 0 0)
(-1.2955665 0 0)
(-1.2876819 0 0)
(-1.2767769 0 0)
(-1.263074 0 0)
(-1.2468499 0 0)
(-1.2284577 0 0)
(-1.2083189 0 0)
(-1.1869304 0 0)
(-1.1648668 0 0)
(-1.1427622 0 0)
(-1.1213335 0 0)
(-1.1014526 0 0)
(-1.0841355 0 0)
(-1.070667 0 0)
(-1.0626362 0 0)
(-0.7527626 0 0)
(-0.70748836 0 0)
(-0.65974633 0 0)
(-0.60925948 0 0)
(-0.55570345 0 0)
(-0.4986301 0 0)
(-0.43751753 0 0)
(-0.37183982 0 0)
(-0.30103305 0 0)
(-0.22422521 0 0)
(-0.14060085 0 0)
(-0.048973049 0 0)
(-0.79601121 0 0)
(-0.8374282 0 0)
(-0.87720855 0 0)
(-0.91560389 0 0)
(-0.95282044 0 0)
(-0.9888955 0 0)
(-1.0239775 0 0)
(-1.0582264 0 0)
(-1.0916548 0 0)
(-1.1215242 0 0)
(-1.1474288 0 0)
(-1.1718731 0 0)
(-1.1948308 0 0)
(-1.2162329 0 0)
(-1.2359745 0 0)
(-1.253928 0 0)
(-1.2699275 0 0)
(-1.2837853 0 0)
(-1.2953031 0 0)
(-1.3042697 0 0)
(-1.3104729 0 0)
(-1.3137287 0 0)
(-1.3139037 0 0)
(-1.3109285 0 0)
(-1.3047998 0 0)
(-1.2955736 0 0)
(-1.2834054 0 0)
(-1.2685332 0 0)
(-1.2512456 0 0)
(-1.2318976 0 0)
(-1.2109174 0 0)
(-1.1887995 0 0)
(-1.1661092 0 0)
(-1.1434739 0 0)
(-1.1215981 0 0)
(-1.1013484 0 0)
(-1.0837364 0 0)
(-1.0700463 0 0)
(-1.0618154 0 0)
(-0.79578644 0 0)
(-0.7528631 0 0)
(-0.70788551 0 0)
(-0.66048907 0 0)
(-0.61029523 0 0)
(-0.55697275 0 0)
(-0.50005473 0 0)
(-0.43901365 0 0)
(-0.3733208 0 0)
(-0.30240128 0 0)
(-0.22535407 0 0)
(-0.14102295 0 0)
(-0.048958725 0 0)
(-0.83676023 0 0)
(-0.87607256 0 0)
(-0.91398616 0 0)
(-0.9507104 0 0)
(-0.9862924 0 0)
(-1.0208854 0 0)
(-1.0546473 0 0)
(-1.0876176 0 0)
(-1.1198633 0 0)
(-1.148585 0 0)
(-1.1733332 0 0)
(-1.1966482 0 0)
(-1.2185031 0 0)
(-1.2388057 0 0)
(-1.2574455 0 0)
(-1.2742723 0 0)
(-1.2891071 0 0)
(-1.301758 0 0)
(-1.3120208 0 0)
(-1.3196799 0 0)
(-1.324527 0 0)
(-1.3263931 0 0)
(-1.3251699 0 0)
(-1.3208058 0 0)
(-1.3133224 0 0)
(-1.3028065 0 0)
(-1.2894297 0 0)
(-1.2734487 0 0)
(-1.2551566 0 0)
(-1.2349126 0 0)
(-1.2131499 0 0)
(-1.1903538 0 0)
(-1.1670855 0 0)
(-1.1439635 0 0)
(-1.1216772 0 0)
(-1.1010891 0 0)
(-1.0832135 0 0)
(-1.0692062 0 0)
(-1.0608162 0 0)
(-0.83653292 0 0)
(-0.79589254 0 0)
(-0.75328074 0 0)
(-0.70867238 0 0)
(-0.66159661 0 0)
(-0.61166462 0 0)
(-0.55854185 0 0)
(-0.50174248 0 0)
(-0.44073583 0 0)
(-0.37498501 0 0)
(-0.30390567 0 0)
(-0.22598911 0 0)
(-0.14099116 0 0)
(-0.048940225 0 0)
(-0.87538568 0 0)
(-0.9128215 0 0)
(-0.94905455 0 0)
(-0.98413999 0 0)
(-1.0182344 0 0)
(-1.0515015 0 0)
(-1.0839847 0 0)
(-1.1157684 0 0)
(-1.1469434 0 0)
(-1.1745966 0 0)
(-1.1982453 0 0)
(-1.2204895 0 0)
(-1.2412802 0 0)
(-1.2605248 0 0)
(-1.2780859 0 0)
(-1.2937974 0 0)
(-1.3074803 0 0)
(-1.3189339 0 0)
(-1.3279435 0 0)
(-1.3342965 0 0)
(-1.3377935 0 0)
(-1.3382861 0 0)
(-1.335686 0 0)
(-1.329966 0 0)
(-1.3211735 0 0)
(-1.3094143 0 0)
(-1.2948851 0 0)
(-1.2778534 0 0)
(-1.2586182 0 0)
(-1.2375362 0 0)
(-1.2150449 0 0)
(-1.1916209 0 0)
(-1.1678201 0 0)
(-1.1442521 0 0)
(-1.1215904 0 0)
(-1.1006972 0 0)
(-1.082347 0 0)
(-1.0681445 0 0)
(-1.0596682 0 0)
(-0.87515168 0 0)
(-0.8366442 0 0)
(-0.79632715 0 0)
(-0.75410793 0 0)
(-0.70984411 0 0)
(-0.66305935 0 0)
(-0.61335793 0 0)
(-0.56040374 0 0)
(-0.50368593 0 0)
(-0.44267265 0 0)
(-0.3768168 0 0)
(-0.30472879 0 0)
(-0.22595553 0 0)
(-0.14095057 0 0)
(-0.048918085 0 0)
(-0.91211852 0 0)
(-0.94786171 0 0)
(-0.98244955 0 0)
(-1.0160444 0 0)
(-1.0488084 0 0)
(-1.0807914 0 0)
(-1.1120821 0 0)
(-1.1427948 0 0)
(-1.1729848 0 0)
(-1.1996255 0 0)
(-1.2222308 0 0)
(-1.243445 0 0)
(-1.263218 0 0)
(-1.2814287 0 0)
(-1.2979235 0 0)
(-1.3125349 0 0)
(-1.3250741 0 0)
(-1.3353311 0 0)
(-1.343088 0 0)
(-1.348134 0 0)
(-1.3502891 0 0)
(-1.3494251 0 0)
(-1.3454756 0 0)
(-1.3384339 0 0)
(-1.3283739 0 0)
(-1.3154274 0 0)
(-1.299803 0 0)
(-1.2817811 0 0)
(-1.2616607 0 0)
(-1.239798 0 0)
(-1.2166317 0 0)
(-1.1926276 0 0)
(-1.1683353 0 0)
(-1.14436 0 0)
(-1.1213579 0 0)
(-1.0998045 0 0)
(-1.0811697 0 0)
(-1.0669441 0 0)
(-1.0583632 0 0)
(-0.91187961 0 0)
(-0.87526711 0 0)
(-0.83709614 0 0)
(-0.79718758 0 0)
(-0.75533759 0 0)
(-0.71139518 0 0)
(-0.66487129 0 0)
(-0.61536518 0 0)
(-0.56254429 0 0)
(-0.50587125 0 0)
(-0.44480233 0 0)
(-0.37779485 0 0)
(-0.30468694 0 0)
(-0.22590826 0 0)
(-0.14090147 0 0)
(-0.048892349 0 0)
(-0.94714089 0 0)
(-0.98123318 0 0)
(-1.0143247 0 0)
(-1.0465816 0 0)
(-1.0780604 0 0)
(-1.108848 0 0)
(-1.1390609 0 0)
(-1.1687868 0 0)
(-1.1980492 0 0)
(-1.2237407 0 0)
(-1.245345 0 0)
(-1.2655753 0 0)
(-1.2843554 0 0)
(-1.3015432 0 0)
(-1.3169873 0 0)
(-1.33051 0 0)
(-1.3419058 0 0)
(-1.3509614 0 0)
(-1.3574632 0 0)
(-1.3612079 0 0)
(-1.3620316 0 0)
(-1.3598316 0 0)
(-1.3545604 0 0)
(-1.3462375 0 0)
(-1.3349608 0 0)
(-1.3208784 0 0)
(-1.3042167 0 0)
(-1.2852629 0 0)
(-1.2643164 0 0)
(-1.2417273 0 0)
(-1.2179367 0 0)
(-1.1933954 0 0)
(-1.1686559 0 0)
(-1.1443094 0 0)
(-1.1204418 0 0)
(-1.0984694 0 0)
(-1.0798658 0 0)
(-1.0655949 0 0)
(-1.0569057 0 0)
(-0.94689632 0 0)
(-0.91199908 0 0)
(-0.87572999 0 0)
(-0.83798565 0 0)
(-0.79846817 0 0)
(-0.75696512 0 0)
(-0.71331291 0 0)
(-0.66701719 0 0)
(-0.6176743 0 0)
(-0.56495115 0 0)
(-0.50827457 0 0)
(-0.44592928 0 0)
(-0.37773789 0 0)
(-0.30462884 0 0)
(-0.22585222 0 0)
(-0.14084419 0 0)
(-0.048862055 0 0)
(-0.98049794 0 0)
(-1.0130887 0 0)
(-1.0448355 0 0)
(-1.0758019 0 0)
(-1.1060803 0 0)
(-1.1357893 0 0)
(-1.1650147 0 0)
(-1.1938092 0 0)
(-1.2222006 0 0)
(-1.2469888 0 0)
(-1.2676444 0 0)
(-1.2869196 0 0)
(-1.3047171 0 0)
(-1.3209004 0 0)
(-1.335306 0 0)
(-1.3477392 0 0)
(-1.3579879 0 0)
(-1.3658392 0 0)
(-1.3710856 0 0)
(-1.3735333 0 0)
(-1.3730394 0 0)
(-1.3695243 0 0)
(-1.3629656 0 0)
(-1.3534028 0 0)
(-1.3409579 0 0)
(-1.325798 0 0)
(-1.3081573 0 0)
(-1.2883306 0 0)
(-1.2666142 0 0)
(-1.2433528 0 0)
(-1.2189839 0 0)
(-1.1939516 0 0)
(-1.168799 0 0)
(-1.1433683 0 0)
(-1.1189209 0 0)
(-1.0970308 0 0)
(-1.0784358 0 0)
(-1.0641013 0 0)
(-1.0552862 0 0)
(-0.98024841 0 0)
(-0.94701478 0 0)
(-0.91247267 0 0)
(-0.8766469 0 0)
(-0.83931224 0 0)
(-0.80016082 0 0)
(-0.75897586 0 0)
(-0.71558787 0 0)
(-0.66948692 0 0)
(-0.62026995 0 0)
(-0.56759787 0 0)
(-0.50953654 0 0)
(-0.44586019 0 0)
(-0.37766027 0 0)
(-0.30455712 0 0)
(-0.22578125 0 0)
(-0.14077523 0 0)
(-0.048827521 0 0)
(-1.0123423 0 0)
(-1.0435786 0 0)
(-1.0740326 0 0)
(-1.1037956 0 0)
(-1.1329896 0 0)
(-1.1617076 0 0)
(-1.1900037 0 0)
(-1.2179272 0 0)
(-1.2454987 0 0)
(-1.2694339 0 0)
(-1.2891682 0 0)
(-1.3074991 0 0)
(-1.3243346 0 0)
(-1.3395286 0 0)
(-1.3528954 0 0)
(-1.3642313 0 0)
(-1.3733284 0 0)
(-1.3799731 0 0)
(-1.3839584 0 0)
(-1.3851166 0 0)
(-1.3833259 0 0)
(-1.3785253 0 0)
(-1.3707146 0 0)
(-1.3599592 0 0)
(-1.3464004 0 0)
(-1.3302178 0 0)
(-1.3116561 0 0)
(-1.291014 0 0)
(-1.2685823 0 0)
(-1.2446975 0 0)
(-1.2197986 0 0)
(-1.1943136 0 0)
(-1.1678364 0 0)
(-1.1416413 0 0)
(-1.1173266 0 0)
(-1.0954897 0 0)
(-1.0768713 0 0)
(-1.0624535 0 0)
(-1.0535112 0 0)
(-1.0120905 0 0)
(-0.98036921 0 0)
(-0.94749832 0 0)
(-0.91341299 0 0)
(-0.87801013 0 0)
(-0.84106271 0 0)
(-0.80225526 0 0)
(-0.76136164 0 0)
(-0.71820316 0 0)
(-0.67226399 0 0)