/*--------------------------------*- C++ -*----------------------------------*\
| =========                 |                                                 |
| \\      /  F ield         | OpenFOAM: The Open Source CFD Toolbox           |
|  \\    /   O peration     | Version:  v2012                                 |
|   \\  /    A nd           | Website:  www.openfoam.com                      |
|    \\/     M anipulation  |                                                 |
\*---------------------------------------------------------------------------*/
FoamFile
{
    version     2.0;
    format      ascii;
    class       volScalarField;
    location    "78.9810715796743068";
    object      p;
}
// * * * * * * * * * * * * * * * * * * * * * * * * * * * * * * * * * * * * * //

dimensions      [0 2 -2 0 0 0 0];


internalField   nonuniform List<scalar> 
9200
(
-0.0029210373
-0.0035133521
-0.0047917322
-0.0040118184
-0.0061803412
-0.0088987416
-0.0049816497
-0.0076526589
-0.011272946
-0.011028261
-0.0059201997
-0.010231242
-0.014200895
-0.014114656
-0.011479153
-0.0069257667
-0.013149741
-0.018954513
-0.018445685
-0.014969729
-0.0095657376
-0.0077544901
-0.016530006
-0.0246363
-0.025259824
-0.020564324
-0.013526557
-0.00545403
-0.0082985313
-0.020034852
-0.031300797
-0.03376313
-0.029250639
-0.019815148
-0.0096959707
0.00074017348
-0.0083608799
-0.023453902
-0.03851205
-0.044030521
-0.040474291
-0.029881007
-0.015937666
-0.0032351588
0.0085453526
-0.0077732389
-0.026481244
-0.045914147
-0.055680523
-0.054478919
-0.043293213
-0.02670055
-0.0093763874
0.0051654737
0.017471894
-0.0064001766
-0.02880087
-0.053029466
-0.068376827
-0.071089494
-0.060652612
-0.041261217
-0.019672133
-0.0002163053
0.014953961
0.026971833
-0.0041260793
-0.030113214
-0.059320544
-0.081636075
-0.090192004
-0.082222291
-0.060771497
-0.03401786
-0.0091456985
0.010800989
0.025473235
0.036541087
-0.00085183121
-0.030149481
-0.064232995
-0.094878737
-0.11146294
-0.10837084
-0.086051331
-0.053721482
-0.021808242
0.004020257
0.022828875
0.036078548
0.045742825
0.003514791
-0.02871912
-0.067212427
-0.10749212
-0.13440947
-0.13947462
-0.11811734
-0.080041339
-0.039406586
-0.0057383321
0.018640948
0.035035073
0.046237949
0.05424361
0.0090260774
-0.025717853
-0.067812835
-0.11884642
-0.15841921
-0.17572252
-0.15867935
-0.1145409
-0.063390153
-0.019375957
0.012510871
0.033538538
0.046722423
0.055561024
0.061825013
0.015637189
-0.021122461
-0.065687513
-0.1283356
-0.18280804
-0.21702998
-0.20964696
-0.16033501
-0.095949953
-0.038245852
0.0039466367
0.031213345
0.047738734
0.057383129
0.063799222
0.068372102
0.023203806
-0.015006218
-0.060827086
-0.13542989
-0.20687381
-0.26295445
-0.27319376
-0.22090795
-0.14033248
-0.064280922
-0.0080388595
0.027974179
0.048951485
0.060551738
0.066703979
0.070829569
0.073854548
0.031487129
-0.0074458147
-0.053385459
-0.1398682
-0.23046894
-0.31295664
-0.35159727
-0.30126679
-0.20106018
-0.10040011
-0.024698643
0.023279499
0.050599356
0.064754222
0.071573016
0.074540753
0.076628855
0.078304327
0.040254326
0.001421583
-0.043825138
-0.14117001
-0.25247883
-0.36655911
-0.44754901
-0.40789021
-0.28482735
-0.15071748
-0.048068077
0.016594146
0.052500302
0.070442526
0.078089655
0.080638401
0.080878419
0.081245893
0.081796033
0.049099908
0.011336755
-0.032779967
-0.13943643
-0.27262716
-0.42069317
-0.56237908
-0.54877164
-0.40123138
-0.22097346
-0.080977826
0.0068890944
0.054657934
0.077653386
0.086814515
0.088781359
0.087760177
0.085792158
0.084776588
0.084429316
0.056751155
0.021980933
-0.021057619
-0.13492998
-0.28975119
-0.47748202
-0.69787526
-0.73645904
-0.54859327
-0.32011005
-0.12764903
-0.0071827859
0.056768226
0.086695424
0.097873353
0.099556042
0.096898717
0.093067257
0.089412523
0.087343358
0.086315999
0.063069174
0.03271352
-0.0095920188
-0.12811768
-0.30343538
-0.53016427
-0.84998839
-0.98394722
-0.7593814
-0.46048324
-0.1960231
-0.027889877
0.058467552
0.097642026
0.11168722
0.1130842
0.10885017
0.10266218
0.096754439
0.091898972
0.089079733
0.08757018
0.067170108
0.043564793
0.0011111056
-0.11956675
-0.31067325
-0.57274702
-1.0043625
-1.2587048
-1.0318777
-0.65352144
-0.29645779
-0.059692881
0.058833803
0.11058185
0.12844117
0.12977401
0.12367973
0.11506984
0.10636771
0.09904599
0.093420356
0.090119722
0.088302153
0.068636605
0.054216579
0.0098917979
-0.11035009
-0.31178415
-0.5999667
-1.1538089
-1.5465033
-1.3814318
-0.90581223
-0.43875338
-0.10758139
0.055930681
0.12522392
0.14832909
0.14976379
0.14171347
0.13027701
0.11866791
0.10833663
0.10017043
0.094142611
0.090590885
0.088614246
0.069415353
0.063018656
0.015885416
-0.10137393
-0.31087608
-0.62216173
-1.2858377
-1.8362334
-1.8015153
-1.2503443
-0.64300852
-0.17722907
0.047476161
0.14076507
0.17121403
0.17316718
0.16297379
0.14850493
0.13356231
0.12010674
0.1088828
0.10034567
0.094220788
0.0906103
0.088598706
0.069944598
0.067156294
0.018296408
-0.093392271
-0.30449756
-0.64649838
-1.3712587
-2.0877168
-2.1854776
-1.6399469
-0.89636378
-0.2758868
0.030497948
0.15603832
0.19660935
0.19977333
0.18743422
0.16964731
0.15117053
0.13419554
0.11981901
0.10829574
0.099770391
0.093795042
0.09028232
0.088336718
0.068875385
0.065251981
0.016443813
-0.087723311
-0.28814546
-0.66478716
-1.3974322
-2.2669868
-2.5020566
-1.9934206
-1.1458855
-0.39891363
0.0022708176
0.16918955
0.22357635
0.22906475
0.21474217
0.19353951
0.17127589
0.15063861
0.13276641
0.11818872
0.10683199
0.098620402
0.092988709
0.089698031
0.087898137
0.065991388
0.058204158
0.010237404
-0.085219691
-0.27036604
-0.67212855
-1.381732
-2.3498944
-2.8035274
-2.2845504
-1.3973421
-0.53618184
-0.037550104
0.1780075
0.25050437
0.26007016
0.24427186
0.21970545
0.1936095
0.16913908
0.14769886
0.12977764
0.11554594
0.10471319
0.09704773
0.091908241
0.088935493
0.087342177
0.061154492
0.046917548
-9.1009619e-05
-0.08558526
-0.25773117
-0.65831685
-1.3344922
-2.3396706
-2.9026795
-2.4966926
-1.6078548
-0.67483564
-0.089442108
0.18014208
0.27506124
0.29125459
0.27500091
0.24744152
0.21761785
0.189366
0.16427198
0.14299655
0.12564635
0.11216782
0.10212709
0.095181539
0.090643855
0.088060356
0.086718865
0.05415003
0.032218778
-0.014238193
-0.08820888
-0.24607447
-0.62081074
-1.2587234
-2.2481956
-2.8888495
-2.6037856
-1.7523581
-0.80593196
-0.15550241
0.17125502
0.29409029
0.32034015
0.3054995
0.27572237
0.24257402
0.21073723
0.18213078
0.15748178
0.13704631
0.12071212
0.10828379
0.099230429
0.093129868
0.089270815
0.087125988
0.086068959
0.044235784
0.014915861
-0.031635412
-0.09273579
-0.23274524
-0.57691283
-1.1597518
-2.0966008
-2.7745102
-2.6096992
-1.8305274
-0.92431412
-0.23968382
0.14471435
0.30301851
0.34429998
0.33383782
0.30325378
0.26751223
0.23255236
0.20070574
0.17288516
0.14938497
0.13025274
0.11524862
0.10408151
0.096152361
0.090981714
0.087850803
0.086176183
0.085424692
0.031499498
-0.0063183816
-0.051091494
-0.098899224
-0.21803512
-0.53311777
-1.046148
-1.9076669
-2.5848027
-2.5299646
-1.8499466
-1.0332936
-0.34522446
0.093017772
0.29549606
0.359453
0.35756648
0.3284845
0.29131125
0.25394596
0.21935908
0.1886797
0.16234344
0.14044725
0.12293197
0.10947472
0.099713111
0.092997995
0.088809329
0.086433551
0.085246291
0.084811442
0.016731636
-0.031524877
-0.073586874
-0.10508508
-0.20230412
-0.48682463
-0.92740369
-1.7014828
-2.349394
-2.388649
-1.8230415
-1.1365384
-0.47369062
0.0089664978
0.26395029
0.36129202
0.37391698
0.3496298
0.31273192
0.27398776
0.2373448
0.20431186
0.17545526
0.15101975
0.13101938
0.11533049
0.10356471
0.095300802
0.089851757
0.086670381
0.085058378
0.084363694
0.084248513
0.0008669332
-0.059385121
-0.098905328
-0.11070932
-0.18701828
-0.43966631
-0.81207916
-1.4935998
-2.0955201
-2.210528
-1.7677422
-1.2329787
-0.62433508
-0.11337827
0.2004865
0.34443793
0.38004141
0.36475579
0.33050944
0.29171812
0.25391558
0.21916183
0.18826225
0.16157403
0.13928477
0.12136666
0.1076407
0.097656634
0.090941742
0.086780399
0.084610018
0.0837556
0.083549057
0.083750103
-0.014876883
-0.088707342
-0.12646622
-0.11521124
-0.17119601
-0.3931164
-0.70388964
-1.2936905
-1.8425587
-2.0149881
-1.7000396
-1.3217066
-0.79428516
-0.27803707
0.097323179
0.30301962
0.37302295
0.37206071
0.34343141
0.30625141
0.26836092
0.23265243
0.20027071
0.17175004
0.14740491
0.12740875
0.11169196
0.10001309
0.091859315
0.086712048
0.083835715
0.082662658
0.082547862
0.082817375
0.083326101
-0.029764732
-0.11817924
-0.15546045
-0.12115404
-0.15559643
-0.34068368
-0.6056049
-1.1091434
-1.602203
-1.8155311
-1.6276186
-1.4010949
-0.97980457
-0.48742116
-0.05308046
0.23070773
0.34973012
0.36991133
0.35041938
0.3168288
0.28007661
0.24427098
0.21105361
0.18117213
0.15511349
0.13320343
0.11559285
0.10215195
0.09256602
0.086257384
0.082670367
0.081056845
0.080853634
0.08145133
0.0821789
0.082982825
-0.043221574
-0.14636903
-0.18471921
-0.1295161
-0.14210203
-0.28843654
-0.50339201
-0.94422955
-1.3853493
-1.6240165
-1.5523214
-1.4730405
-1.1776347
-0.74305081
-0.25807454
0.12024411
0.30634243
0.3566997
0.35042652
0.32283911
0.28857748
0.25361403
0.22025392
0.18954413
0.16214252
0.13856973
0.11915329
0.10399005
0.092867738
0.085391597
0.08091551
0.078860889
0.07847227
0.079200624
0.080476694
0.081639997
0.082723652
-0.054789635
-0.17221548
-0.21309293
-0.13944881
-0.13003115
-0.23978653
-0.40707979
-0.7796503
-1.1906931
-1.4496102
-1.4791045
-1.5358325
-1.3870171
-1.0446739
-0.52436479
-0.035132398
0.2392171
0.33119106
0.34286193
0.32392297
0.29361885
0.26044091
0.22763998
0.19664813
0.16831479
0.14333924
0.12227017
0.10539469
0.092720616
0.08393405
0.078558599
0.075881122
0.075315981
0.076101475
0.077714999
0.079630308
0.081203843
0.082549575
-0.064681872
-0.19459615
-0.23839056
-0.1502232
-0.11943715
-0.19272558
-0.31648479
-0.62702652
-0.99670974
-1.2892645
-1.408505
-1.5888339
-1.6026819
-1.3873976
-0.85507246
-0.2395917
0.14497884
0.29186845
0.32720081
0.31972771
0.2950678
0.26465994
0.23311455
0.20237269
0.17351668
0.14742538
0.12485251
0.10632478
0.092037866
0.081880518
0.075427629
0.07212174
0.071185895
0.072059216
0.073956333
0.076402974
0.078915172
0.080870962
0.082459725
-0.073319094
-0.21263333
-0.25862808
-0.16133032
-0.10996721
-0.14623036
-0.231463
-0.48230665
-0.81525386
-1.117872
-1.3396693
-1.6385748
-1.8160116
-1.760942
-1.2464798
-0.49712877
0.022449833
0.23855598
0.30348856
0.31038732
0.29303555
0.26634945
0.23672681
0.20673564
0.17774604
0.15081121
0.12689675
0.10675619
0.090828834
0.079175576
0.071546813
0.067405695
0.06612399
0.066877826
0.069101798
0.072042335
0.075266391
0.078330002
0.080639674
0.082451764
-0.22556938
-0.080853085
-0.27310845
-0.17132668
-0.099841803
-0.10011883
-0.15346812
-0.35176997
-0.64367979
-0.95417249
-1.2496196
-1.6758647
-2.0186452
-2.1507443
-1.6868876
-0.80420181
-0.12810051
0.17104934
0.27168541
0.29597719
0.28763711
0.26568182
0.23862324
0.20985388
0.18109185
0.15357015
0.12845693
0.10674836
0.089120709
0.075867414
0.066885814
0.061781164
0.059910138
0.060566458
0.062946501
0.066449169
0.070359593
0.074303505
0.077870948
0.080506814
0.08252216
-0.28144849
-0.23318403
-0.086864076
-0.17857608
-0.088151424
-0.056162782
-0.082960675
-0.23517019
-0.48781315
-0.79222291
-1.1490146
-1.6629768
-2.2139523
-2.5382854
-2.1547029
-1.1512982
-0.30447126
0.089896699
0.23200878
0.27663754
0.27909047
0.2628523
0.23901823
0.21193275
0.18373043
0.15585031
0.12966435
0.10641026
0.087021308
0.072022152
0.06151956
0.055234577
0.052630943
0.052967973
0.055491615
0.059401393
0.064101777
0.068905579
0.073510493
0.077543283
0.080468464
0.082666577
-0.1823234
-0.28373127
-0.23573251
-0.091077615
-0.075334048
-0.016688052
-0.019891286
-0.13275525
-0.34770476
-0.63923516
-1.0345388
-1.5976488
-2.3893484
-2.9211033
-2.6337122
-1.5260584
-0.50173641
-0.0038424602
0.18495559
0.25260446
0.26761676
0.25817104
0.23818749
0.21323012
0.18590823
0.15786746
0.13070845
0.10591484
0.084679006
0.06778179
0.055542013
0.047858522
0.044276899
0.044131054
0.0466008
0.050903391
0.056243995
0.062055783
0.067674939
0.072882786
0.077342149
0.080520118
0.082880192
-0.061402793
-0.18217055
-0.28027063
-0.23379553
-0.093722523
0.018327436
0.035850421
-0.04420791
-0.22431525
-0.49697386
-0.9106291
-1.518381
-2.468566
-3.3189125
-3.1070524
-1.9201873
-0.71353734
-0.10809642
0.13110795
0.22421603
0.25333994
0.25177447
0.23643641
0.21407712
0.18792378
0.15989351
0.1318258
0.10547602
0.082293528
0.063321234
0.04911731
0.039764108
0.034949891
0.034056477
0.036305991
0.040818756
0.046798873
0.053468737
0.060303969
0.066647973
0.072411113
0.077247355
0.080655868
0.083157893
0.049468134
-0.046728484
-0.17790323
-0.27167576
-0.22801699
-0.095046951
0.084496542
0.031232667
-0.11753644
-0.36806415
-0.78272173
-1.4266415
-2.50813
-3.6035021
-3.6292602
-2.3167728
-0.93164371
-0.22087378
0.071489297
0.19166411
0.23639741
0.24374375
0.23365362
0.2145536
0.19006759
0.16222706
0.13329213
0.10533808
0.080090896
0.058854754
0.042435979
0.031128086
0.024769572
0.022849802
0.024606117
0.029169965
0.035622638
0.043170014
0.051064977
0.058837311
0.065816282
0.072082262
0.0772525
0.080869006
0.08349438
0.12633975
0.077087068
-0.03171231
-0.16961107
-0.25849416
-0.21916597
-0.095325072
0.094639593
-0.026781696
-0.25389212
-0.65836693
-1.3227279
-2.5007597
-3.8449281
-4.1278851
-2.7858185
-1.1516719
-0.33748084
0.0066144376
0.15549321
0.2166589
0.23409488
0.23004636
0.21512252
0.19253179
0.16512555
0.1353758
0.10576425
0.078311672
0.054610044
0.035718043
0.022148729
0.013917936
0.010632397
0.011603816
0.015947781
0.022727673
0.031005492
0.040004664
0.049018603
0.057640051
0.065191903
0.071894468
0.077348758
0.081149013
0.083884243
0.14712973
0.16177607
0.10131635
-0.016555226
-0.15763644
-0.24208536
-0.20800144
-0.095032567
0.048938858
-0.15511458
-0.54343382
-1.2119769
-2.4516047
-4.0140964
-4.5864835
-3.2937978
-1.4277613
-0.45977318
-0.060746033
0.11545508
0.1943393
0.22252602
0.22564866
0.21575683
0.19572549
0.16895607
0.13834297
0.10699223
0.077197459
0.050816105
0.029185812
0.013045568
0.0025952267
-0.0024141009
-0.0025835544
0.0012459434
0.0080927952
0.016974967
0.026954551
0.037286902
0.047312986
0.056685675
0.064741232
0.071838755
0.077531725
0.08149203
0.084321805
0.11097402
0.18994861
0.19097787
0.1226526
-0.0015445381
-0.14241996
-0.22266652
-0.19527779
-0.09408112
-0.071643073
-0.4395365
-1.1017758
-2.3712402
-4.1065116
-4.9619018
-3.7839563
-1.7720507
-0.60875705
-0.13376528
0.073516603
0.16855792
0.20901985
0.22006326
0.21599228
0.19975297
0.17373809
0.14245437
0.10926559
0.076954855
0.04768756
0.023051108
0.0040318775
-0.0089822702
-0.016091091
-0.017779333
-0.014827155
-0.0082018515
0.0010423886
0.011900605
0.02345289
0.034997436
0.045928527
0.055976712
0.06450406
0.071901304
0.077801202
0.081892648
0.084801358
-0.0025152186
0.16112968
0.22381916
0.21454658
0.14133203
0.013092909
-0.12502522
-0.20060039
-0.18140481
-0.092243459
-0.34736406
-0.9917692
-2.253237
-4.1172386
-5.2213192
-4.2273349
-2.1286954
-0.82730068
-0.21716735
0.025650065
0.14091272
0.19244853
0.21278972
0.2160872
0.20421603
0.1797601
0.14780592
0.11272479
0.07777756
0.045395335
0.017498701
-0.0046987845
-0.020610069
-0.030186155
-0.033788994
-0.03210372
-0.026061175
-0.016729303
-0.0052106439
0.0074882138
0.020479498
0.033112617
0.044842579
0.05544139
0.064421395
0.072074931
0.078147031
0.082344124
0.085318127
-0.26682707
0.05421921
0.20021037
0.24988346
0.23292223
0.15748328
0.027203952
-0.10654175
-0.17707534
-0.16643421
-0.089259792
-0.88128366
-2.0994738
-4.046722
-5.3437922
-4.5720109
-2.5040003
-1.0618747
-0.35283649
-0.025589057
0.10620143
0.17407287
0.20280374
0.21504257
0.2095111
0.18698886
0.15451499
0.11749075
0.079743548
0.044082973
0.0126621
-0.01299135
-0.032109973
-0.044500025
-0.050402978
-0.050395372
-0.045329947
-0.036262239
-0.024336197
-0.010679675
0.0037162061
0.018007108
0.031604495
0.044031642
0.055115634
0.064476275
0.072348446
0.078553503
0.082841551
0.085869
-0.77439421
-0.19638278
0.098874507
0.22984077
0.26903312
0.24662399
0.17117434
0.040715631
-0.087516012
-0.15329731
-0.15043416
-0.085479397
-1.9335331
-3.9014152
-5.3208801
-4.7903862
-2.8601116
-1.3006351
-0.5043413
-0.1152495
0.07193006
0.14855706
0.19057102
0.21259672
0.21453706
0.19551618
0.16249942
0.12354323
0.08292071
0.043778861
0.0086360196
-0.020748828
-0.043350697
-0.058862411
-0.067422207
-0.069494649
-0.065828371
-0.057417398
-0.045418808
-0.031029734
-0.015384775
0.00055442292
0.016002106
0.030447069
0.043483675
0.054988328
0.06465393
0.072699432
0.079011451
0.083381363
0.086482133
-1.7660284
-0.67087754
-0.13894354
0.13333106
0.25122638
0.28219941
0.2561561
0.18238373
0.053605374
-0.068569767
-0.13008824
-0.13500653
-0.080990089
-3.6925809
-5.1588416
-4.8641013
-3.1435513
-1.5310001
-0.66202165
-0.21699392
0.00424325
0.1247108
0.17139544
0.20802432
0.22012463
0.20434872
0.17178529
0.13070013
0.087204965
0.044515259
0.0054024499
-0.02792549
-0.054265704
-0.073153779
-0.084673413
-0.089197374
-0.087351356
-0.080026757
-0.068339425
-0.053528178
-0.03682566
-0.019357585
-0.0020362258
0.014433643
0.029626056
0.043190373
0.055034747
0.064928311
0.073110701
0.079525601
0.084017697
0.087167327
-3.4350188
-1.6038888
-0.5771513
-0.091517659
0.15891221
0.26557267
0.29021927
0.26200422
0.19089373
0.065958435
-0.050150665
-0.10948213
-0.11992919
-0.07604009
-4.8781088
-4.7855362
-3.3201175
-1.7321649
-0.82249099
-0.3255905
-0.074820724
0.072561381
0.15012464
0.19836893
0.22367784
0.21474687
0.1814428
0.13886583
0.092408754
0.046119824
0.0029566054
-0.03458641
-0.064853224
-0.087322717
-0.10203154
-0.10931653
-0.10968667
-0.1038898
-0.092945782
-0.078079491
-0.060598311
-0.041755037
-0.022642068
-0.0040909235
0.013287661
0.029131939
0.043121182
0.055207445
0.065277938
0.07360075
0.080194853
0.084740215
0.087907982
-4.5082655
-3.1398421
-1.4494321
-0.4964969
-0.05145939
0.17696963
0.27409639
0.29405503
0.26479808
0.19683044
0.077443365
-0.034454126
-0.090234583
-0.10473995
-0.070614853
-4.5678906
-3.379309
-1.8757372
-0.97788763
-0.44171549
-0.16587098
0.01312218
0.10443053
0.18353126
0.22608206
0.22262936
0.19240793
0.1471576
0.098294384
0.048444858
0.0010726049
-0.040785998
-0.07522314
-0.10139465
-0.11943732
-0.12970324
-0.13262564
-0.12878656
-0.11904605
-0.10455171
-0.086633958
-0.066657019
-0.045865461
-0.025276878
-0.0056214453
0.012556502
0.028921543
0.043205675
0.055477655
0.065736518
0.074348335
0.080977379
0.085523367
0.088703781
-4.2434156
-4.0844644
-2.819412
-1.3021483
-0.4259431
-0.019646799
0.188956
0.27812895
0.29463089
0.26500467
0.19966981
0.085921553
-0.020743671
-0.071530836
-0.089487441
-0.064979569
-3.3233053
-1.9599342
-1.1164367
-0.56022337
-0.26616783
-0.0549292
0.05244087
0.1463942
0.22265978
0.23275339
0.20072825
0.1560499
0.10409857
0.05115843
-0.00034564069
-0.046807048
-0.085493269
-0.11550947
-0.1369121
-0.15026269
-0.15598074
-0.1544842
-0.14641665
-0.13276753
-0.11482558
-0.094024149
-0.071753678
-0.049197543
-0.027268902
-0.0066312203
0.012183436
0.028895655
0.043389565
0.055901395
0.066600852
0.075252566
0.081825229
0.086365578
0.08955453
-3.1681936
-3.8539453
-3.6325847
-2.5051757
-1.1608683
-0.36548438
0.0051575333
0.19612401
0.27835059
0.29195201
0.26232618
0.19926953
0.091050861
-0.0072488538
-0.054702511
-0.074805436
-0.059222058
-1.9991095
-1.2274102
-0.67268255
-0.36449704
-0.13944333
-0.0072101016
0.10035821
0.20722534
0.23671174
0.21247378
0.16223108
0.11001491
0.053723708
-0.0017246359
-0.052727218
-0.096012469
-0.12984282
-0.15459019
-0.17097289
-0.17959828
-0.18074969
-0.17480414
-0.16250691
-0.14501701
-0.1237787
-0.10029876
-0.075928587
-0.051749878
-0.028614408
-0.0071935669
0.012030032
0.028996716
0.04377329
0.056940506
0.067676198
0.076228916
0.082734406
0.087266723
0.090459747
-1.9866561
-2.9422952
-3.4302361
-3.1819833
-2.2124125
-1.030412
-0.31457145
0.023772086
0.19893429
0.27461322
0.28657039
0.25835911
0.19536735
0.095209965
0.0051332604
-0.039449232
-0.06056323
-0.053396307
-1.2982943
-0.77141055
-0.45537472
-0.24059664
-0.083800076
0.055157973
0.1805473
0.23888761
0.2178844
0.17111184
0.1132829
0.05612033
-0.0033087011
-0.059095923
-0.10690246
-0.1448044
-0.17266633
-0.1919114
-0.20337606
-0.20735746
-0.20393278
-0.19350479
-0.17700101
-0.15579241
-0.13145606
-0.10549462
-0.07916746
-0.053507889
-0.029406386
-0.0074969157
0.012014215
0.029384441
0.045070004
0.058257491
0.068831465
0.077267948
0.083705498
0.088225934
0.091418734
-1.3159263
-1.9297452
-2.6572439
-2.9980551
-2.7509885
-1.9405711
-0.91185041
-0.27284445
0.036657281
0.19757031
0.26829567
0.28153992
0.25110625
0.19072464
0.09850876
0.01576778
-0.025637985
-0.046926573
-0.047684349
-0.84439881
-0.54121788
-0.34790399
-0.18284254
-0.010700954
0.14686151
0.22592124
0.23032648
0.17429805
0.11846664
0.056310322
-0.0054263456
-0.065881407
-0.11886228
-0.16061016
-0.19156915
-0.2132238
-0.22728276
-0.23410244
-0.233506
-0.22545399
-0.21051341
-0.1898806
-0.16513134
-0.1378869
-0.10957871
-0.081439907
-0.054587319
-0.02989543
-0.0076506513
0.012369697
0.031016649
0.046718868
0.059666021
0.070047768
0.078371974
0.084737281
0.089242173
0.092430539
-0.88556045
-1.2811422
-1.8236953
-2.3427337
-2.5734444
-2.3477379
-1.6860418
-0.80520996
-0.23981807
0.045111438
0.19386165
0.2644422
0.27353603
0.24318172
0.18476829
0.10036035
0.024749088
-0.013536871
-0.03385167
-0.041682369
-0.61764277
-0.44781314
-0.29319143
-0.091230212
0.093966859
0.19414893
0.22596183
0.1891108
0.11957912
0.057914546
-0.0091634688
-0.073887449
-0.13170092
-0.1781044
-0.21159207
-0.23527535
-0.25134053
-0.26080994
-0.26321389
-0.25800129
-0.24523269
-0.22579403
-0.20117192
-0.17305036
-0.1430121
-0.11249841
-0.082887308
-0.055314472
-0.030223714
-0.0073212938
0.014459178
0.033084952
0.048471661
0.061131309
0.071330715
0.079539205
0.085828489
0.090314018
0.093494047
-0.68224536
-0.90247297
-1.212958
-1.6637133
-2.0336981
-2.1745001
-1.9776854
-1.446789
-0.71043397
-0.21009713
0.051024741
0.19461295
0.25795434
0.26470188
0.23380777
0.17784764
0.10082516
0.032424938
-0.0032190156
-0.022096347
-0.035139703
-0.54022723
-0.39552856
-0.18382145
0.017975834
0.13505071
0.19511463
0.18740114
0.13557906
0.058826255
-0.012291998
-0.083052681
-0.14682614
-0.19712546
-0.23365842
-0.25833645
-0.27575274
-0.28732553
-0.29273297
-0.29074917
-0.28077192
-0.26321629
-0.2393571
-0.21087227
-0.17945494
-0.1467486
-0.11442328
-0.083926787
-0.055870694
-0.029929616
-0.0046621807
0.017073474
0.035276471
0.050269566
0.062664529
0.072677761
0.080768293
0.086977192
0.091439874
0.094608113
-0.62266787
-0.72895729
-0.90135871
-1.1242058
-1.4715734
-1.7418478
-1.8129161
-1.647289
-1.2235436
-0.62228613
-0.18156755
0.061869011
0.19424787
0.25065803
0.25426412
0.22337066
0.17007348
0.10017625
0.038684473
0.0053650482
-0.012371442
-0.028660203
-0.48230633
-0.27642242
-0.066443267
0.050863126
0.12529829
0.16282433
0.13685925
0.076558234
-0.011365821
-0.093246732
-0.16300181
-0.21966877
-0.25777488
-0.28327621
-0.30062698
-0.31361283
-0.32171901
-0.32324893
-0.31667671
-0.30175328
-0.2793946
-0.25117239
-0.21884027
-0.18422113
-0.14929583
-0.11587779
-0.084786046
-0.05563404
-0.026564585
-0.0013802593
0.019833092
0.037497716
0.05213308
0.064261897
0.074087713
0.082056811
0.088181311
0.092618352
0.095771419
-0.54915301
-0.67844472
-0.76010701
-0.87882325
-1.0230985
-1.2697536
-1.4673863
-1.4958171
-1.3559024
-1.0239954
-0.53467781
-0.15106495
0.075102491
0.19295588
0.24159293
0.24260676
0.21193228
0.16159244
0.098468763
0.043507447
0.01236791
-0.004518569
-0.022654795
-0.35683423
-0.15696281
-0.046123585
0.028656764
0.090348273
0.11516797
0.082821603
0.0075546652
-0.093908109
-0.18289303
-0.24362617
-0.28628587
-0.31022805
-0.32662154
-0.33950303
-0.34986966
-0.35499572
-0.35241639
-0.34092996
-0.32090878
-0.29369916
-0.26103729
-0.22489775
-0.18757859
-0.15130336
-0.11714376
-0.084645454
-0.051417352
-0.022470502
0.002079154
0.022595532
0.039782044
0.054057192
0.065922661
0.075557577
0.083402292
0.089439378
0.093849091
0.096981899
-0.42363864
-0.59227459
-0.70966743
-0.76970431
-0.83663286
-0.91758731
-1.0753991
-1.2096755
-1.2272193
-1.1106296
-0.84167154
-0.45382921
-0.11273017
0.086336149
0.18978005
0.23124319
0.22979957
0.19972468
0.15248653
0.095838774
0.046936455
0.018044917
0.0017008968
-0.017360984
-0.24753423
-0.15265015
-0.089780744
-0.022922258
0.053442235
0.069802907
0.019368121
-0.076700005
-0.18799614
-0.27473265
-0.31681628
-0.3414643
-0.35378177
-0.36532052
-0.37670123
-0.38545588
-0.3873808
-0.38018312
-0.36343843
-0.3381172
-0.30584773
-0.26870232
-0.22930297
-0.1903204
-0.15311531
-0.11716076
-0.07942006
-0.046353725
-0.018157635
0.0055068275
0.02541359
0.042122104
0.056042515
0.06764327
0.077084442
0.084803609
0.090752762
0.095129107
0.098237883
-0.32108705
-0.47176326
-0.61736462
-0.71714811
-0.75823013
-0.78214101
-0.81167553
-0.89724697
-0.97687175
-0.99605966
-0.89398544
-0.69275499
-0.36520966
-0.079037959
0.095342592
0.18510669
0.21966996
0.21610988
0.18694467
0.14306732
0.092395547
0.049019685
0.022456936
0.0065056571
-0.012837765
-0.25986686
-0.2130709
-0.16731157
-0.064795659
0.029578068
0.015951574
-0.061915375
-0.1778852
-0.28758407
-0.3575412
-0.37491398
-0.38389893
-0.39076581
-0.40215266
-0.41388398
-0.4208823
-0.41886008
-0.40643359
-0.38400744
-0.35299296
-0.31549754
-0.27444993
-0.23301128
-0.19286149
-0.15338147
-0.11076323
-0.073214512
-0.041017497
-0.013922491
0.0089809942
0.028277577
0.044520172
0.058085282
0.069420538
0.078667868
0.086265423
0.092116254
0.096455367
0.099537517
-0.35124226
-0.38182184
-0.50402152
-0.62435039
-0.70308459
-0.72737583
-0.72105797
-0.71045027
-0.7414264
-0.77977382
-0.78458927
-0.72521132
-0.55058382
-0.28866202
-0.04840063
0.10204851
0.17889274
0.20714696
0.2017719
0.1738278
0.13342725
0.088335552
0.049991572
0.025574563
0.010121431
-0.0089753216
-0.33653689
-0.32554051
-0.22663131
-0.058533077
-0.0059814823
-0.057705394
-0.16568093
-0.29219746
-0.37970105
-0.41954551
-0.41540833
-0.41695172
-0.42541212
-0.43988054
-0.45203002
-0.45620796
-0.44925601
-0.43086874
-0.40211613
-0.36507153
-0.32294671
-0.2794164
-0.23651738
-0.19350686
-0.14564597
-0.10323117
-0.066667226
-0.035817246
-0.00965294
0.012488238
0.031192982
0.046972091
0.060182444
0.07125516
0.080317541
0.087779319
0.093525619
0.097825049
0.10087901
-0.45802554
-0.40274812
-0.42107702
-0.50974577
-0.6117635
-0.6747189
-0.68355263
-0.65623219
-0.61969256
-0.60937449
-0.63844809
-0.62822951
-0.56911606
-0.43142105
-0.22031393
-0.022194519
0.10658136
0.17133316
0.19389099
0.18705452
0.16058497
0.12371608
0.083782253
0.050133964
0.027553348
0.012811048
-0.0057718931
-0.49396343
-0.42744586
-0.20516484
-0.055673596
-0.068373894
-0.15891296
-0.2920671
-0.40577386
-0.44818752
-0.45606977
-0.44264026
-0.44695013
-0.46213415
-0.48021311
-0.49131414
-0.4911665
-0.47812038
-0.45278735
-0.41714134
-0.37465241
-0.3295305
-0.28418574
-0.23771997
-0.18427193
-0.13659141
-0.095269019
-0.060327819
-0.03059719
-0.0053671319
0.016038209
0.034155904
0.049475045
0.062336663
0.073163191
0.082021338
0.089339058
0.094977397
0.099235688
0.10226029
-0.64853992
-0.56149111
-0.41831266
-0.42871049
-0.49824136
-0.58496969
-0.63579629
-0.6284916
-0.58919514
-0.5383792
-0.50853846
-0.52802134
-0.49136006
-0.43867351
-0.32885463
-0.16305934
0.00066031341
0.10881595
0.16265014
0.18015745
0.17220836
0.14741391
0.11405659
0.078861148
0.049489016
0.028702694
0.014764952
-0.0032115256
-0.6418574
-0.40234969
-0.14786089
-0.096595343
-0.16397993
-0.29376489
-0.42950616
-0.49532246
-0.48396036
-0.47303534
-0.46543374
-0.48068605
-0.50381485
-0.52349058
-0.53132629
-0.52509744
-0.50450806
-0.47135867
-0.42936182
-0.38328597
-0.33593243
-0.28618215
-0.22683678
-0.17349068
-0.12699515
-0.087601252
-0.053985361
-0.025381693
-0.0010496745
0.019627408
0.037164487
0.05203421
0.064572895
0.075126874
0.083771085
0.090940181
0.096469131
0.10068465
0.1036785
-0.85876884
-0.78358433
-0.61826328
-0.42657647
-0.41890231
-0.46979865
-0.54018298
-0.58678367
-0.57235475
-0.52110398
-0.47521029
-0.41658265
-0.41363189
-0.37333779
-0.33136934
-0.24501027
-0.11500266
0.019754889
0.10895735
0.15306903
0.16619351
0.15746955
0.13448444
0.10455568
0.073670633
0.047968163
0.02925061
0.015923357
-0.0012465273
-0.62509171
-0.28588607
-0.14932734
-0.18264811
-0.30487953
-0.45637584
-0.54917006
-0.54077572
-0.49217704
-0.48324217
-0.49368987
-0.52277563
-0.55106756
-0.56905806
-0.57109539
-0.55672185
-0.52731458
-0.48681001
-0.44055466
-0.39176679
-0.33902751
-0.27352411
-0.2141215
-0.16202795
-0.11779517
-0.079948376
-0.047672134
-0.020147844
0.0032968137
0.023255393
0.040227572
0.054685461
0.066866754
0.077135638
0.085561366
0.092580362
0.097998419
0.102168
0.10513027
-0.85810175
-1.0675074
-0.88905136
-0.62914613
-0.42207542
-0.395851
-0.42798283
-0.48964282
-0.52994344
-0.5153145
-0.46555642
-0.39304004
-0.35052987
-0.31644565
-0.27974248
-0.24400799
-0.17958728
-0.07458142
0.034825472
0.10722329
0.14285509
0.15222837
0.14304282
0.12194472
0.09529978
0.068276904
0.045525632
0.028769328
0.016376131
0.00018610585
-0.47302675
-0.23204568
-0.21760785
-0.3272609
-0.49534199
-0.61623778
-0.61572166
-0.54153683
-0.48827718
-0.50141379
-0.5346075
-0.57421191
-0.60282316
-0.61549689
-0.60887967
-0.5845636
-0.54667673
-0.50115161
-0.45163862
-0.39634158
-0.32450079
-0.25866973
-0.20055114
-0.1510789
-0.10862802
-0.07235273
-0.041355592
-0.014896854
0.0076741101
0.026935602
0.043394822
0.05739599
0.06920508
0.07918311
0.087390371
0.094257736
0.099560224
0.10368017
0.10661402
-0.66941645
-1.076533
-1.225715
-0.9602425
-0.60782002
-0.40704525
-0.37134956
-0.38173163
-0.43136265
-0.47240459
-0.4644053
-0.39602928
-0.34121964
-0.28746346
-0.23864921
-0.20580168
-0.1791137
-0.12719473
-0.041516754
0.046088414
0.10395403
0.13223425
0.1384702
0.12910025
0.10990882
0.086339051
0.062680391
0.042641539
0.027451128
0.016316989
0.0011605358
-0.34230126
-0.27063781
-0.36163763
-0.54939777
-0.71141455
-0.72179708
-0.61703531
-0.51494512
-0.49176867
-0.5388136
-0.59003783
-0.63312718
-0.65702555
-0.66045498
-0.64268714
-0.60861153
-0.56484433
-0.51544011
-0.45815285
-0.37989679
-0.30731237
-0.24274658