/*--------------------------------*- C++ -*----------------------------------*\
| =========                 |                                                 |
| \\      /  F ield         | OpenFOAM: The Open Source CFD Toolbox           |
|  \\    /   O peration     | Version:  v2012                                 |
|   \\  /    A nd           | Website:  www.openfoam.com                      |
|    \\/     M anipulation  |                                                 |
\*---------------------------------------------------------------------------*/
FoamFile
{
    version     2.0;
    format      ascii;
    class       surfaceScalarField;
    location    "78.9810715796743068";
    object      phi;
}
// * * * * * * * * * * * * * * * * * * * * * * * * * * * * * * * * * * * * * //

dimensions      [0 3 -1 0 0 0 0];
oriented        oriented;


internalField   nonuniform List<scalar> 
18180
(
0.0074682833
-3.6115148
0.01525442
-3.3766852
0.0088564842
-3.661568
0.023244867
-3.1563888
0.018370057
-3.4242469
0.0084661222
-3.7078064
0.031857889
-2.9499373
0.028695597
-3.201734
0.017671958
-3.4689773
0.0074076495
-3.7502058
0.040925338
-2.7562807
0.040452593
-2.9939889
0.028151153
-3.2452863
0.015699975
-3.510193
0.0054887142
-3.7880369
0.050326174
-2.5744838
0.053728116
-2.7993862
0.040584853
-3.036808
0.025630474
-3.2863077
0.011921022
-3.5472968
0.0028340077
-3.8208381
0.059697019
-2.4032
0.06853006
-2.6171979
0.055317532
-2.8421063
0.038029707
-3.0785426
0.020166932
-3.3239632
0.0066856055
-3.5795882
-0.00032970051
-3.8481317
0.068591128
-2.2415867
0.084609552
-2.4457449
0.072571964
-2.6603384
0.053488069
-2.884872
0.03116641
-3.1176665
0.012250892
-3.3568567
0.00045332699
-3.6065773
-0.0034617417
-3.8702052
0.076441902
-2.0888713
0.10153335
-2.2837343
0.092360046
-2.4896321
0.072531779
-2.7046162
0.045691087
-2.9259014
0.020509707
-3.1521327
0.0025206093
-3.3840403
-0.0062397413
-3.6279939
-0.0065221439
-3.8873243
0.082623956
-1.9445496
0.11867285
-2.130096
0.11450258
-2.3285235
0.095532825
-2.5360001
0.064569049
-2.7481523
0.032297979
-2.9626464
0.0068041932
-3.1807534
-0.0080816345
-3.405478
-0.012728969
-3.6441496
-0.0092212961
-3.8998293
0.086485387
-1.8082435
0.13522871
-1.9840881
0.13860155
-2.1755546
0.12272048
-2.3774326
0.08857583
-2.5828592
0.048654766
-2.7879172
0.014060134
-2.9932333
-0.0085365033
-3.2028202
-0.018528989
-3.4210303
-0.018427122
-3.6553994
-0.011363655
-3.9083395
0.087384928
-1.6796702
0.15026621
-1.8451833
0.16404062
-2.0297105
0.1541276
-2.2272677
0.11844614
-2.4285471
0.070700564
-2.6265554
0.025302553
-2.82109
-0.0071014147
-3.0164925
-0.024009082
-3.2180378
-0.027797214
-3.4311318
-0.022955415
-3.6624884
-0.012876564
-3.9136868
0.084701532
-1.5586073
0.1627501
-1.712996
0.18998999
-1.8902115
0.18955941
-2.0841815
0.15481524
-2.2835134
0.099671644
-2.4776229
0.041798614
-2.6634934
-0.0030684931
-2.8460951
-0.028997015
-3.0317005
-0.037833015
-3.2267001
-0.03517344
-3.436563
-0.02613184
-3.6663373
-0.013764696
-3.9167277
0.07785963
-1.4448425
0.17156083
-1.5872207
0.21539267
-1.7564342
0.22853216
-1.9470572
0.19815827
-2.1462121
0.13688599
-2.3395477
0.065014019
-2.5197394
0.0043989254
-2.6906355
-0.033345508
-2.8613145
-0.048803977
-3.0388576
-0.048830719
-3.229846
-0.040311162
-3.4385037
-0.027956883
-3.6678613
-0.014082668
-3.9180824
0.066420942
-1.3382209
0.17563504
-1.4677064
0.23905893
-1.6279381
0.27022669
-1.814916
0.24868384
-2.015191
0.18367139
-2.2107056
0.096782308
-2.388806
0.016700934
-2.5502489
-0.036662342
-2.7060768
-0.061130869
-2.8667007
-0.064558998
-3.0392724
-0.056406574
-3.2290019
-0.043202101
-3.4379827
-0.028565758
-3.6677639
-0.013923349
-3.9183397
0.050043219
-1.2387628
0.17417727
-1.3545691
0.25997334
-1.5047463
0.31372602
-1.6872158
0.30640618
-1.889245
0.24131144
-2.0895493
0.13924544
-2.2694661
0.035451637
-2.4243193
-0.038509155
-2.5660512
-0.07520001
-2.7091964
-0.083217227
-2.8635934
-0.075252705
-3.034838
-0.060537564
-3.2255099
-0.044082764
-3.4359145
-0.028170321
-3.6666986
-0.013395394
-3.9179739
0.028672865
-1.1463952
0.16655464
-1.2479907
0.27734909
-1.3872026
0.35811407
-1.5639745
0.37134427
-1.7678258
0.31129505
-1.9750226
0.19506419
-2.1605903
0.06280978
-2.3122351
-0.038151544
-2.4410016
-0.091527578
-2.5660617
-0.10579238
-2.701543
-0.097923897
-2.854559
-0.080839503
-3.0275715
-0.061615653
-3.2206203
-0.043324716
-3.4330371
-0.027009187
-3.6651981
-0.012605156
-3.9174181
0.0026793486
-1.0606184
0.15236061
-1.1481244
0.29048056
-1.275566
0.4018613
-1.4449208
0.44259018
-1.6500182
0.39466729
-1.8661175
0.26755733
-2.0617498
0.10203577
-2.2140398
-0.034475461
-2.3309087
-0.11069555
-2.4371331
-0.13355804
-2.5526614
-0.12567659
-2.6868628
-0.10517762
-2.8425343
-0.08196077
-3.0191756
-0.060250504
-3.2152451
-0.041341535
-3.4299804
-0.02531285
-3.6636464
-0.01164696
-3.9168663
-0.02753972
-0.98133245
0.13165285
-1.0549328
0.29868749
-1.1700131
0.44312492
-1.329998
0.51735072
-1.5336586
0.48970407
-1.7591458
0.35826569
-1.9701212
0.15700557
-2.1298674
-0.02556043
-2.2367371
-0.1332424
-2.3225874
-0.16809246
-2.4163258
-0.160085
-2.5308509
-0.13475908
-2.6690086
-0.10603196
-2.829766
-0.079595343
-3.0107678
-0.057107476
-3.2100755
-0.038525741
-3.4270923
-0.02328338
-3.6622542
-0.010598771
-3.9164855
-0.061602865
-0.9082227
0.10448527
-0.96831395
0.30158518
-1.0707938
0.47978572
-1.2191016
0.59160951
-1.4174631
0.59303848
-1.6502962
0.46422095
-1.8774999
0.22864118
-2.0539192
-0.010314708
-2.1578232
-0.15961407
-2.2235452
-0.21135623
-2.2922843
-0.2030862
-2.3855039
-0.17101672
-2.5059541
-0.13478813
-2.650969
-0.10204714
-2.8176648
-0.074782755
-3.0031543
-0.052802946
-3.2054734
-0.035214178
-3.424612
-0.021085291
-3.6611641
-0.0095215293
-3.9163466
-0.099011955
-0.84061992
0.070968524
-0.88801276
0.29910938
-0.97812155
0.51017859
-1.1129293
0.6610212
-1.3009932
0.69661007
-1.5335893
0.5813576
-1.7789791
0.31517782
-1.9752825
0.0094331345
-2.0854303
-0.1913815
-2.1382968
-0.26598567
-2.1811331
-0.25720813
-2.2499479
-0.21561836
-2.3520124
-0.16927148
-2.4817488
-0.12824385
-2.6345672
-0.094820661
-2.807184
-0.068456159
-2.9966878
-0.047851882
-3.2016581
-0.031675004
-3.4226414
-0.018845022
-3.6604719
-0.008460156
-3.9165486
-0.13890732
-0.77758017
0.03156339
-0.81371386
0.2916221
-0.8921607
0.53337734
-1.0124266
0.7216266
-1.1853312
0.79412726
-1.4103536
0.69767915
-1.6606506
0.40907621
-1.8832688
0.032230127
-2.0089971
-0.23172925
-2.056492
-0.33530513
-2.0804861
-0.32590443
-2.1237321
-0.27064372
-2.2057033
-0.21056417
-2.3206568
-0.15878154
-2.4604449
-0.11755443
-2.6208041
-0.085732494
-2.7986911
-0.061368144
-2.9915624
-0.042651644
-3.1986985
-0.028108882
-3.42127
-0.016653928
-3.6602036
-0.0074460299
-3.9170661
-0.1801989
-0.71736859
-0.012776344
-0.74496698
0.27980853
-0.81291544
0.54912803
-0.91842155
0.77049045
-1.0724392
0.87816009
-1.2805329
0.80668497
-1.5293424
0.50268879
-1.7638591
0.057803739
-1.9189957
-0.28386527
-1.9675293
-0.42223035
-1.9803957
-0.41265401
-2.0044619
-0.33880592
-2.0658678
-0.25982292
-2.1659378
-0.19414268
-2.2939639
-0.14319301
-2.4432065
-0.10472066
-2.6101943
-0.075848482
-2.7922499
-0.054077131
-2.9877281
-0.037489366
-3.1966132
-0.024656631
-3.4204594
-0.014574315
-3.6603402
-0.0064994369
-3.9178729
-0.22116268
-0.65776663
-0.060141242
-0.68099517
0.26464682
-0.74022455
0.55779099
-0.8315252
0.80582261
-0.96428377
0.94226624
-1.147073
0.89695593
-1.3800817
0.58672835
-1.6222432
0.081556437
-1.7970711
-0.34861411
-1.8642446
-0.52977268
-1.8701667
-0.51953709
-1.8836503
-0.42236186
-1.9306315
-0.31840535
-2.0162684
-0.23463584
-2.1336746
-0.17174838
-2.2733154
-0.12534618
-2.4304791
-0.091209327
-2.6025428
-0.06592183
-2.7877223
-0.046968189
-2.9851403
-0.032558042
-3.1953149
-0.021410587
-3.4201762
-0.012645154
-3.6608272
-0.0056321682
-3.9189202
-0.26044277
-0.59959771
-0.10695335
-0.62124886
0.24763513
-0.67382984
0.56032023
-0.75216678
0.82723953
-0.86287764
0.98340281
-1.0153396
0.9612975
-1.2200442
0.64374538
-1.4452844
0.068737567
-1.6182479
-0.43116982
-1.7238973
-0.66288011
-1.740697
-0.64718364
-1.7520799
-0.5210097
-1.7941552
-0.38706152
-1.8704484
-0.2804408
-1.97827
-0.20296182
-2.1098667
-0.14731652
-2.258763
-0.10720078
-2.4218985
-0.077996098
-2.5975639
-0.056441243
-2.7848629
-0.040285443
-2.9836125
-0.027977285
-3.1947168
-0.018425492
-3.4203425
-0.010887893
-3.6616387
-0.0048494862
-3.9201754
-0.29752274
-0.54469244
-0.15046273
-0.56572378
0.23074029
-0.61364804
0.55816237
-0.68057586
0.83567853
-0.76996957
1.0022925
-0.8911085
0.99709736
-1.0591764
0.66941608
-1.2532824
0.028476195
-1.4132608
-0.53897465
-1.519254
-0.81794015
-1.5778048
-0.79209193
-1.6047906
-0.63200818
-1.6496796
-0.46374727
-1.7254098
-0.33131097
-1.8269306
-0.23628437
-1.9519545
-0.17007286
-2.0941507
-0.12337094
-2.2496929
-0.089963198
-2.4168122
-0.065665626
-2.5947719
-0.047692178
-2.7834284
-0.034167605
-2.9830024
-0.023811754
-3.1947174
-0.015728444
-3.4209134
-0.0093108911
-3.6626959
-0.0041519763
-3.921588
-0.33211966
-0.4939847
-0.18980137
-0.51436722
0.2155321
-0.55927664
0.55269117
-0.61659291
0.83292512
-0.6866368
1.0017079
-0.7781749
1.0043708
-0.90588005
0.66415409
-1.0609201
-0.031456137
-1.2010447
-0.65771683
-1.3027976
-0.96616679
-1.3794292
-0.94194157
-1.4364209
-0.74953762
-1.4953264
-0.54411261
-1.5767314
-0.38506521
-1.6785895
-0.2708827
-1.7990305
-0.19275432
-1.9359771
-0.13905104
-2.0852408
-0.1013215
-2.2450068
-0.074281031
-2.4144988
-0.054519376
-2.5937677
-0.039815475
-2.7831137
-0.02867843
-2.983135
-0.020087419
-3.1952163
-0.013326749
-3.4217939
-0.007913389
-3.6639533
-0.0035369867
-3.923049
-0.36410704
-0.44836175
-0.2248612
-0.46735211
0.20302237
-0.51010496
0.54526246
-0.55979572
0.82144174
-0.61339754
0.98542157
-0.67861632
0.98645211
-0.76726394
0.63256445
-0.88078957
-0.10348128
-0.99608632
-0.77845878
-1.0880824
-1.1059916
-1.1708306
-1.0796213
-1.2497008
-0.86288966
-1.3306218
-0.62340641
-1.4229364
-0.43721603
-1.531097
-0.30505668
-1.650791
-0.21424706
-1.7839367
-0.15334445
-1.9281651
-0.11141297
-2.0815539
-0.081807089
-2.2436
-0.06042361
-2.4142969
-0.044670113
-2.5941127
-0.032855424
-2.7837237
-0.023831384
-2.9838725
-0.016803669
-3.1961068
-0.011214224
-3.4229132
-0.0066884446
-3.6652956
-0.0029998942
-3.9245169
-0.39337253
-0.40815394
-0.256036
-0.42506261
0.19365104
-0.46573449
0.53730179
-0.50964323
0.80399221
-0.5501319
0.95754758
-0.59329271
0.94883494
-0.64755871
0.57974583
-0.7204898
-0.18224767
-0.80874615
-0.89341504
-0.88843657
-1.2305365
-0.97087249
-1.1990487
-1.0588623
-0.96230208
-1.1573498
-0.69457387
-1.2658545
-0.48322429
-1.383028
-0.33540668
-1.5068113
-0.23316803
-1.6380119
-0.1651516
-1.7783556
-0.11943852
-1.9262436
-0.087665279
-2.081579
-0.064984105
-2.2446317
-0.04842659
-2.4156721
-0.036113375
-2.5955229
-0.026795685
-2.785016
-0.019607629
-2.9850667
-0.013942756
-3.1972848
-0.0093760542
-3.4241863
-0.0056251113
-3.6666962
-0.0025352342
-3.9259196
-0.41985834
-0.37312929
-0.28384198
-0.38770407
0.18717337
-0.42586533
0.52994783
-0.46545081
0.78298237
-0.49594147
0.92171177
-0.52159473
0.89712116
-0.54772728
0.51155216
-0.58500031
-0.26247237
-0.64655331
-0.99500817
-0.71400906
-1.3342464
-0.79155849
-1.2964749
-0.88043493
-1.0433812
-0.98437716
-0.75013785
-1.1076928
-0.51894232
-1.2358223
-0.35776565
-1.3664361
-0.24747057
-1.4983897
-0.17326515
-1.6358545
-0.12448996
-1.7791343
-0.091207435
-1.9282942
-0.067732306
-2.0842073
-0.050739367
-2.2473733
-0.038194725
-2.4182056
-0.028778433
-2.5977009
-0.021584552
-2.7868454
-0.015968944
-2.9865953
-0.011476604
-3.198681
-0.0077920168
-3.4255575
-0.0047101727
-3.6680636
-0.0021368657
-3.9272455
-0.44914637
-0.40451154
-0.30870249
-0.35513387
0.18282685
-0.39018476
0.52389232
-0.42646953
0.7602539
-0.44957766
0.88111119
-0.46219318
0.8367576
-0.46700043
0.43460496
-0.47604386
-0.33985939
-0.51349685
-1.07814
-0.56984628
-1.4144992
-0.64010429
-1.3708048
-0.72376856
-1.1067276
-0.82323952
-0.78794108
-0.95199947
-0.53978313
-1.0921258
-0.36905366
-1.2300062
-0.25427879
-1.3652384
-0.17642018
-1.5008936
-0.1256092
-1.6402661
-0.091759509
-1.78384
-0.068184179
-1.9329409
-0.051254246
-2.0886378
-0.038829783
-2.2513342
-0.029569544
-2.421552
-0.022561102
-2.6004379
-0.017151644
-2.7890129
-0.012866813
-2.9883628
-0.0093712961
-3.2002055
-0.0064391885
-3.4269585
-0.0039293456
-3.669385
-0.0017975372
-3.9284247
-0.47528521
-0.39945901
-0.33914079
-0.38155656
0.17977629
-0.35847662
0.5194058
-0.39196439
0.73718962
-0.40983165
0.83850646
-0.41340112
0.77244534
-0.4032987
0.35492114
-0.39224112
-0.41109211
-0.41031659
-1.1405773
-0.45707075
-1.4713623
-0.51886578
-1.4243064
-0.59271607
-1.1549728
-0.68125843
-0.81156191
-0.80458063
-0.54299705
-0.95365299
-0.36702123
-1.0993437
-0.25092865
-1.238712
-0.17312035
-1.3738955
-0.12190506
-1.5098238
-0.088667146
-1.6483539
-0.065882687
-1.7910194
-0.049639536
-1.9393421
-0.037767946
-2.0942342
-0.028967622
-2.2560748
-0.022370269
-2.4254308
-0.0173444
-2.6035174
-0.013419012
-2.7914382
-0.01024791
-2.9902718
-0.0075905649
-3.2018046
-0.0052935627
-3.4283399
-0.0032680741
-3.6705885
-0.0015103781
-3.929455
-0.49809729
-0.39691706
-0.36679747
-0.37926305
0.16687251
-0.37558505
0.51629138
-0.36125097
0.71488948
-0.37568485
0.79597898
-0.37333083
0.70758795
-0.35363414
0.2771589
-0.33015034
-0.47375441
-0.33472982
-1.1830445
-0.37346641
-1.5075019
-0.42637053
-1.4614592
-0.48742536
-1.1925585
-0.5604789
-0.82676216
-0.67057995
-0.53006966
-0.82198062
-0.34940387
-0.97618009
-0.23594279
-1.1194506
-0.16167738
-1.2552383
-0.1126258
-1.3881392
-0.081354786
-1.521924
-0.060440074
-1.6584686
-0.045622698
-1.7996361
-0.034805446
-1.946739
-0.026807944
-2.1005226
-0.020867327
-2.2612865
-0.016416522
-2.4296226
-0.013010452
-2.6068207
-0.010307183
-2.793981
-0.0080582251
-2.9922564
-0.0060978644
-3.2034051
-0.004331297
-3.4296634
-0.0027122169
-3.6716783
-0.001268997
-3.930327
-0.51702621
-0.39734477
-0.39164925
-0.37950088
0.1553626
-0.3746953
0.50318793
-0.36884494
0.69380338
-0.34580356
0.75493789
-0.3402907
0.64445679
-0.31498513
0.2042403
-0.28504675
-0.5261825
-0.28254183
-1.2085074
-0.31451025
-1.5273366
-0.35864886
-1.4878871
-0.40527996
-1.2250642
-0.45991201
-0.83898548
-0.55236451
-0.50551017
-0.69923218
-0.31487607
-0.86115417
-0.20846787
-1.0085632
-0.14083193
-1.1451323
-0.097083754
-1.2755031
-0.069410831
-1.4046547
-0.051573978
-1.5352532
-0.039021989
-1.6694927
-0.029814475
-1.8089231
-0.022985582
-1.9546127
-0.017953944
-2.1071402
-0.014267861
-2.2667234
-0.011539852
-2.4339726
-0.0094465012
-2.6102221
-0.0077393787
-2.7965952
-0.0062452115
-2.9942433
-0.004857821
-3.2049884
-0.0035295121
-3.4309015
-0.0022484279
-3.6726211
-0.0010674751
-3.9310508
-0.5314745
-0.40033675
-0.41378199
-0.38262269
0.14461868
-0.37570084
0.49297307
-0.37090178
0.66258176
-0.34365307
0.71599088
-0.31213997
0.58461843
-0.28495363
0.13798235
-0.25279871
-0.5680738
-0.24766182
-1.2210755
-0.27486162
-1.5358503
-0.3106135
-1.5090366
-0.34248686
-1.2576341
-0.37737719
-0.85261815
-0.45000415
-0.47423855
-0.58736718
-0.26402881
-0.75447453
-0.16750325
-0.90683243
-0.11016867
-1.0438349
-0.074659052
-1.1720541
-0.052638248
-1.2966435
-0.039137916
-1.4213547
-0.029772865
-1.5487325
-0.022764562
-1.6806587
-0.01747682
-1.8183623
-0.013595768
-1.9626365
-0.010848028
-2.1138715
-0.0089404424
-2.2722322
-0.0075877504
-2.4383675
-0.0065482336
-2.6136407
-0.0056434093
-2.7991736
-0.0047592629
-2.9962038
-0.0038371082
-3.2065004
-0.0028669148
-3.4320346
-0.0018643783
-3.6734249
-0.00090039797
-3.9316333
-0.54127982
-0.40544194
-0.43290176
-0.38860344
0.13392902
-0.37887212
0.4846849
-0.37388207
0.63475997
-0.34916455
0.67172484
-0.30499157
0.52914344
-0.26089699
0.079153086
-0.22995655
-0.60091747
-0.22416645
-1.2244367
-0.24884676
-1.5376527
-0.27729837
-1.5290867
-0.29522595
-1.2937896
-0.310707
-0.87065714
-0.36270986
-0.4399694
-0.48766383
-0.19894464
-0.65660947
-0.11214552
-0.81436796
-0.069742572
-0.95165368
-0.045053551
-1.077724
-0.031004047
-1.1978663
-0.023155258
-1.3166814
-0.017940346
-1.4371901
-0.013737807
-1.5616741
-0.010352945
-1.6915451
-0.0078367645
-1.8276843
-0.0061683739
-1.9706011
-0.00519399
-2.1205473
-0.0046881296
-2.2776929
-0.0044248062
-2.442702
-0.0042209806
-2.6169919
-0.0039529428
-2.8017044
-0.0035545012
-2.9980855
-0.0030050359
-3.2079335
-0.0023241304
-3.4330423
-0.0015488343
-3.6740905
-0.00076289456
-3.9320834
-0.54662311
-0.41300873
-0.44836553
-0.39734157
0.12257347
-0.38417581
0.47755557
-0.37825256
0.61035026
-0.35560753
0.62997391
-0.31308004
0.48167853
-0.2620049
0.028505053
-0.21385756
-0.62711537
-0.20769318
-1.2210363
-0.23178631
-1.5356198
-0.25477004
-1.5505429
-0.26020605
-1.3348862
-0.25824556
-0.89435398
-0.29006116
-0.4048406
-0.40090972
-0.12211582
-0.56842726
-0.042166124
-0.73096014
-0.019578041
-0.86872367
-0.0084444378
-0.99233927
-0.0045801034
-1.1081416
-0.0038264105
-1.2210373
-0.0037137445
-1.3346599
-0.0029318447
-1.4516676
-0.0017865124
-1.5737839
-0.0008071368
-1.7020035
-0.00031078607
-1.8367823
-0.00033771069
-1.978385
-0.00074894688
-2.127078
-0.0013425719
-2.2830124
-0.0019317016
-2.4469141
-0.0023798574
-2.6202333
-0.0026081229
-2.8041199
-0.0025894297
-2.9998776
-0.0023338831
-3.2092543
-0.0018838563
-3.4339334
-0.0012916994
-3.6746313
-0.00065061089
-3.9324127
-0.54767661
-0.42262169
-0.45988926
-0.40882665
0.11032473
-0.39200411
0.47053306
-0.38369517
0.58892353
-0.36300624
0.59116915
-0.32252223
0.4353174
-0.27127527
0.0061174173
-0.24341238
-0.64528392
-0.19936188
-1.2125515
-0.22008493
-1.5320292
-0.23894559
-1.5741293
-0.23527393
-1.380064
-0.21891307
-0.92275616
-0.23260557
-0.3696625
-0.32801192
-0.03556138
-0.49118605
0.041854624
-0.65666567
0.040339867
-0.79487138
0.034630755
-0.91567192
0.026403816
-1.0271397
0.018515487
-1.1341219
0.012599343
-1.2408446
0.0093489074
-1.350354
0.0079519285
-1.464745
0.007275557
-1.5851497
0.0065685673
-1.7120473
0.0055304673
-1.8455643
0.004180975
-1.9859164
0.0026869012
-2.1333737
0.0012406751
-2.288129
-3.9148071e-06
-2.4509447
-0.00094952992
-2.6233291
-0.0015556658
-2.8064238
-0.001827339
-3.0015556
-0.0017991718
-3.2104785
-0.0015307146
-3.4347007
-0.0010840716
-3.6750448
-0.00055969571
-3.9326244
-0.54474101
-0.43380936
-0.46711705
-0.42271517
0.097246216
-0.40263797
0.4623109
-0.39034755
0.57012382
-0.37111596
0.55556234
-0.33316689
0.39090598
-0.28273616
-0.016779075
-0.25224994
-0.62201676
-0.2704807
-1.2007648
-0.21475468
-1.5269152
-0.22847329
-1.5991722
-0.21774313
-1.4268698
-0.19214291
-0.95311899
-0.19105362
-0.334231
-0.27053378
0.058382745
-0.42547482
0.13764453
-0.59104842
0.10933778
-0.72946254
0.083366037
-0.84727955
0.061406871
-0.95432112
0.043426811
-1.0554965
0.030567666
-1.1553421
0.022706481
-1.2573716
0.018501855
-1.364029
0.01611227
-1.4766623
0.014241597
-1.5958684
0.012252074
-1.7216698
0.010002557
-1.8540005
0.0076121159
-1.9931314
0.0052796466
-2.139395
0.0031849797
-2.2929957
0.0014516515
-2.4547765
0.0001371648
-2.6262535
-0.00074901984
-2.8085765
-0.0012363365
-3.003129
-0.0013797059
-3.2115866
-0.001251
-3.4353493
-0.00091828988
-3.675335
-0.00048677863
-3.9327203
-0.44611233
-0.5381283
-0.46991442
-0.43831473
0.083439282
-0.41577283
0.45196441
-0.39887275
0.55329188
-0.37977071
0.52339767
-0.34476149
0.34878232
-0.29573198
-0.038805227
-0.26464887
-0.6002071
-0.2779061
-1.1496754
-0.32524038
-1.5217451
-0.22293529
-1.6243816
-0.2068758
-1.4726955
-0.17540175
-0.98266315
-0.16487232
-0.29875457
-0.22877557
0.15635496
-0.37182948
0.2428033
-0.53456552
0.18680762
-0.67212586
0.13712879
-0.78670044
0.099833973
-0.88918814
0.070464963
-0.98462283
0.049717229
-1.0776709
0.03669519
-1.1722599
0.029439345
-1.2712072
0.025337923
-1.3761312
0.02241976
-1.4877422
0.019614761
-1.6060803
0.016570608
-1.7308693
0.013342244
-1.8620517
0.010137143
-1.9999982
0.0071694888
-2.1450915
0.0045978175
-2.2975869
0.0025103899
-2.4583636
0.00093539009
-2.6289909
-0.00014734774
-2.8105974
-0.00078879221
-3.0045957
-0.0010571327
-3.2125934
-0.0010323368
-3.435869
-0.00078778405
-3.6755061
-0.0004289423
-3.9327058
-0.45488351
-0.46842965
-0.45927765
-0.52800383
0.069102155
-0.43081386
0.43903676
-0.40943453
0.53727393
-0.38913851
0.49472417
-0.35694443
0.30942101
-0.31014555
-0.059526803
-0.27901061
-0.57955163
-0.28918784
-1.0991668
-0.3321016
-1.4869511
-0.36307868
-1.6483248
-0.20239641
-1.5155129
-0.16736711
-1.0110749
-0.14906153
-0.26365404
-0.2019951
0.2554314
-0.33098824
0.35423591
-0.48705452
0.27105125
-0.62222705
0.1950225
-0.73329831
0.14090529
-0.83109506
0.09909912
-0.92091367
0.069551329
-1.0072673
0.050817836
-1.094496
0.040294307
-1.1858075
0.03454004
-1.2831027
0.030767212
-1.387196
0.027363353
-1.4982157
0.023702047
-1.6158321
0.019752723
-1.7396397
0.015734152
-1.8696938
0.011906143
-2.0064823
0.0084758818
-2.1504527
0.0055711409
-2.3018736
0.0032458795
-2.4617117
0.0014978358
-2.6315362
0.00028571154
-2.8124899
-0.00046051754
-3.0059682
-0.00081498386
-3.2134853
-0.00086368494
-3.436276
-0.00068682944
-3.6755652
-0.00038362
-3.9325807
-0.4470934
0.054506108
-0.47193826
-0.46304165
-0.47253936
-0.51492543
0.42333253
-0.42169905
0.52114117
-0.39960731
0.46910356
-0.36939573
0.27349493
-0.32581248
-0.078320033
-0.29540593
-0.55973552
-0.3027374
-1.0504245
-0.34161728
-1.4484884
-0.37364093
-1.655728
-0.3591623
-1.5540218
-0.16701453
-1.0392717
-0.14106693
-0.22849646
-0.18604276
0.35249942
-0.30201648
0.46784696
-0.44824939
0.35988828
-0.57912167
0.25599826
-0.68628776
0.18378884
-0.77935337
0.12877747
-0.86370171
0.089573629
-0.94354327
0.064579525
-1.023517
0.050575744
-1.1072783
0.043270896
-1.1970514
0.038913511
-1.2937813
0.035213157
-1.3976235
0.031188155
-1.5082547
0.026696023
-1.6251507
0.021969788
-1.747972
0.017329691
-1.8769109
0.013046956
-2.0125735
0.0093016801
-2.1554448
0.006184758
-2.3058512
0.0037165175
-2.4648044
0.0018682999
-2.6339118
0.00057874542
-2.814277
-0.0002297153
-3.007251
-0.00063803324
-3.2142818
-0.00073818194
-3.4365628
-0.00061036576
-3.6755075
-0.00034857627
-3.9323505
-0.43533823
0.40499665
-0.46385039
0.039643388
-0.48864786
-0.45419456
-0.48556617
-0.49941135
0.5042112
-0.41108953
0.44570631
-0.38211181
0.24165837
-0.34239348
-0.094716423
-0.31351474
-0.5404851
-0.31858478
-1.0037402
-0.35309755
-1.4083923
-0.384814
-1.6557329
-0.37721699
-1.6019418
-0.3144414
-1.06258
-0.14545027
-0.19474017
-0.1764741
0.44663466
-0.28295406
0.57971096
-0.41738084
0.45072867
-0.54213419
0.31887905
-0.64489756
0.22771817
-0.73324324
0.15895131
-0.81230161
0.10933903
-0.8858812
0.077505869
-0.958754
0.059796491
-1.0350592
0.051073381
-1.11743
0.046470886
-1.2069846
0.042861934
-1.3038644
0.038806214
-1.4076874
0.034012368
-1.5179306
0.028731362
-1.6340623
0.023361608
-1.7558579
0.018258495
-1.8836889
0.013670043
-2.018249
0.0097356041
-2.1600713
0.0065068787
-2.3095125
0.0039731113
-2.467664
0.0020829287
-2.6361279
0.00076108257
-2.8159639
-7.698496e-05
-3.0084555
-0.00051503824
-3.2149641
-0.00065246481
-3.4367295
-0.00055390269
-3.6753366
-0.00032190563
-3.9320104
-0.4234701
0.48601525
-0.44948936
0.38407151
-0.48092113
0.025172728
-0.50457094
-0.44244296
-0.49795246
-0.48205099
0.42387941
-0.39518132
0.21403314
-0.35935227
-0.10842222
-0.33282188
-0.52189522
-0.33604232
-0.95959406
-0.36638635
-1.3669462
-0.39766366
-1.6485733
-0.39565053
-1.6375414
-0.34493067
-1.1473667
-0.23139991
-0.1623428
-0.17936075
0.53782435
-0.27026826
0.68703901
-0.39362527
0.54098403
-0.51050056
0.38236772
-0.60833395
0.2719535
-0.69201806
0.18912864
-0.76604961
0.12846982
-0.83366386
0.089170839
-0.89963698
0.067485112
-0.9685963
0.057494795
-1.0436855
0.053048249
-1.1262384
0.050003844
-1.21642
0.046330973
-1.3137302
0.04154073
-1.4175288
0.035903863
-1.5272711
0.029919474
-1.6425374
0.024051151
-1.7632841
0.018634755
-1.8900143
0.013871663
-2.0235036
0.0098541391
-2.1643198
0.00659593
-2.3128686
0.0040590836
-2.4702919
0.0021739936
-2.6382046
0.00085544228
-2.8175669
1.4384166e-05
-3.009575
-0.00043892273
-3.2155444
-0.00059258417
-3.4367699
-0.00051336059
-3.6750582
-0.00030200301
-3.9315722
-0.40859521
0.4030759
-0.43599928
0.4661967
-0.46478486
0.36139533
-0.49743925
0.011327505
-0.51928224
-0.42836185
-0.50930758
-0.46355443
0.19023908
-0.37627495
-0.11938616
-0.3525478
-0.50427905
-0.35437792
-0.91839447
-0.38086954
-1.3245765
-0.41189146
-1.6327765
-0.41722882
-1.6603773
-0.37622886
-1.2213937
-0.27270012
-0.22596639
-0.16928098
0.62183806
-0.26582042
0.78837156
-0.37477608
0.62826965
-0.48360025
0.44516494
-0.57583159
0.31584
-0.65496828
0.21889543
-0.72427638
0.14667292
-0.78631148
0.099239788
-0.84563977
0.073218822
-0.9073662
0.062106875
-0.97527949
0.058262628
-1.0509946
0.056340872
-1.1347314
0.053546726
-1.2258667
0.049129282
-1.3235634
0.043380232
-1.4271742
0.036925126
-1.5362602
0.030366249
-1.6505684
0.024151329
-1.7702305
0.018560149
-1.8958716
0.013735763
-2.0283328
0.0097230824
-2.1682064
0.0065017129
-2.315924
0.0040110629
-2.4727138
0.0021680362
-2.6401432
0.00088051177
-2.8190847
5.7914211e-05
-3.0106188
-0.00039419939
-3.2160041
-0.00055110876
-3.4367049
-0.00048477623
-3.6746828
-0.00028751616
-3.9310303
-0.39289625
0.16963967
-0.4218421
0.38298515
-0.4497911
0.44488055
-0.48000101
0.33745007
-0.51293468
-0.0017040549
-0.53238109
-0.41253647
-0.51930226
-0.44471137
-0.12793859
-0.3718968
-0.48798851
-0.37277296
-0.88038196
-0.39598432
-1.2813956
-0.427198
-1.6075599
-0.44096153
-1.6686568
-0.41246302
-1.2806439
-0.31882574
-0.29052776
-0.2096921
0.62744426
-0.17733031
0.88138801
-0.36182791
0.71086128
-0.45988869
0.50598904
-0.54678767
0.35880522
-0.62140736
0.24795865
-0.68639131
0.16372499
-0.74322621
0.10745359
-0.79625882
0.076667603
-0.85093366
0.064532095
-0.9117377
0.061756365
-0.98074211
0.061593551
-1.0582632
0.060256999
-1.1435447
0.056645417
-1.2355509
0.051070312
-1.3334201
0.044313675
-1.4365993
0.037153068
-1.5448457
0.03017826
-1.6581182
0.023767162
-1.7766815
0.018125177
-1.9012609
0.01333511
-2.0327467
0.00939857
-2.1717301
0.0062663391
-2.3186976
0.0038599615
-2.4749325
0.0020869427
-2.6419627
0.00085159522
-2.8205177
6.1788746e-05
-3.0115634
-0.00037250641
-3.2163628
-0.00052402858
-3.4365334
-0.00046424325
-3.6742091
-0.00027732432
-3.9303963
-0.39023722
-0.13477537
-0.4090354
0.15192732
-0.43571173
0.36297222
-0.46357585
0.42214684
-0.49461514
0.31266628
-0.5270157
-0.013724751
-0.54352491
-0.39556532
-0.52774376
-0.42632589
-0.47330309
-0.3905048
-0.84550176
-0.4112098
-1.237352
-0.44318292
-1.5726835
-0.46600593
-1.6611621
-0.45206565
-1.3214966
-0.37351129
-0.34845326
-0.26250583
0.62336201
-0.20813306
0.94715122
-0.24606312
0.78684557
-0.44016972
0.56406336
-0.5201645
0.40030747
-0.59076328
0.27611067
-0.65179231
0.17953333
-0.70394776
0.11362748
-0.75097181
0.077515217
-0.79881004
0.06431326
-0.85254367
0.063171784
-0.91500401
0.0655031
-0.9865331
0.06629298
-1.0662689
0.063983103
-1.1529476
0.058908454
-1.2455027
0.052041054
-1.3431988
0.044376307
-1.4456964
0.036683252
-1.5529801
0.029462555
-1.6651618
0.022995507
-1.782624
0.017409608
-1.9061836
0.012732223
-2.0367508
0.0089281432
-2.1749129
0.0059251743
-2.3212048
0.0036317267
-2.476972
0.0019492834
-2.6436472
0.0007813222
-2.821847
3.8927821e-05
-3.0124176
-0.00036941076
-3.2165956
-0.00050821637
-3.4362633
-0.00045166157
-3.6736423
-0.00027047162
-3.9296631
-0.4070206
-0.46042364
-0.4080788
-0.13990311
-0.42431774
0.13562987
-0.44906387
0.34253257
-0.47686413
0.39810894
-0.50815343
0.28739239
-0.53932873
-0.024548453
-0.55247514
-0.37809253
-0.53460672
-0.40877562
-0.81344994
-0.42607404
-1.1923087
-0.45941082
-1.5282948
-0.49157149
-1.6371283
-0.49373927
-1.3411939
-0.4343254
-0.39688619
-0.32673242
0.61129241
-0.25303613
1.0047796
-0.2688256
0.8679004
-0.32944638
0.6180853
-0.49624813
0.44015169
-0.56234314
0.30326922
-0.6200338
0.19405554
-0.66792821
0.11768121
-0.70942519
0.075514486
-0.7505419
0.061085053
-0.79729965
0.062214081
-0.8533265
0.067826586
-0.91908165
0.07151222
-0.99358985
0.071067755
-1.0752908
0.066858747
-1.1629167
0.06008931
-1.2555883
0.052021874
-1.3527777
0.043648869
-1.4543871
0.035624888
-1.5606042
0.028323556
-1.6716689
0.021924155
-1.7880564
0.016482862
-1.9106494
0.011980226
-2.0403592
0.0083516759
-2.1777671
0.0055077251
-2.3234639
0.0033479117
-2.4788188
0.0017707055
-2.6452008
0.00068054079
-2.8230672
-1.1971538e-05
-3.0131325
-0.00038178892
-3.2167128
-0.00050661607
-3.4358861
-0.00044591363
-3.672988
-0.00026616909
-3.9288473
-0.4401915
-0.7837579
-0.42410489
-0.44827808
-0.42341391
-0.14496143
-0.43812798
0.11980179
-0.46140656
0.32115723
-0.48913767
0.37283578
-0.52017102
0.26188532
-0.54954973
-0.03407472
-0.55932751
-0.36064135
-0.5398253
-0.39235304
-1.1461438
-0.4753939
-1.4750385
-0.51672294
-1.5969052
-0.53557736
-1.3381668
-0.4987792
-0.43232717
-0.40058176
0.59266905
-0.31077165
1.0504656
-0.30186372
0.94749595
-0.3508403
0.68670008
-0.40008831
0.47764509
-0.53593387
0.32950974
-0.5905798
0.20743023
-0.63490215
0.11960488
-0.67114191
0.070482332
-0.70584155
0.054656235
-0.74572666
0.058601982
-0.79532427
0.068416733
-0.85555091
0.075820759
-0.92510235
0.077857753
-1.0021887
0.074916807
-1.0852596
0.068469512
-1.1732875
0.060100053
-1.2656281
0.051076374
-1.3620172
0.04224505
-1.4625841
0.034093016
-1.5676794
0.026859306
-1.6776286
0.020630795
-1.7929815
0.015404381
-1.9146651
0.011123795
-2.0435889
0.0077023322
-2.1803167
0.0050383806
-2.3254787
0.0030263216
-2.4804901
0.0015640408
-2.6465945
0.00055842553
-2.8241477
-7.5937106e-05
-3.0137198
-0.00040932916
-3.2167007
-0.00051491472
-3.4354204
-0.00044530984
-3.6722585
-0.00026374423
-3.9279414
-0.49061766
-1.0988643
-0.45676977
-0.7545379
-0.43759123
-0.43795354
-0.43665482
-0.15056061
-0.45006696
0.10358873
-0.47225494
0.2983699
-0.49988702
0.34633109
-0.53025844
0.23631464
-0.55742254
-0.042554917
-0.56406386
-0.34368812
-0.54345597
-0.37729718
-1.4141189
-0.54040986
-1.5416655
-0.57582133
-1.3121572
-0.56365527
-0.45225258
-0.48058952
0.56994331
-0.38056882
1.083038
-0.34654852
1.021223
-0.3780859
0.75724162
-0.42350347
0.53048623
-0.4550779