/*--------------------------------*- C++ -*----------------------------------*\
| =========                 |                                                 |
| \\      /  F ield         | OpenFOAM: The Open Source CFD Toolbox           |
|  \\    /   O peration     | Version:  v2012                                 |
|   \\  /    A nd           | Website:  www.openfoam.com                      |
|    \\/     M anipulation  |                                                 |
\*---------------------------------------------------------------------------*/
FoamFile
{
    version     2.0;
    format      ascii;
    class       pointVectorField;
    location    "78.9810715796743068";
    object      pointDisplacement;
}
// * * * * * * * * * * * * * * * * * * * * * * * * * * * * * * * * * * * * * //

dimensions      [0 1 0 0 0 0 0];


internalField   nonuniform List<vector> 
18840
(
(-1.6653967 -0 -0)
(-1.665222 0 0)
(-1.6646999 0 0)
(-1.663834 0 0)
(-1.6626273 0 0)
(-1.6610814 0 0)
(-1.6591977 0 0)
(-1.6569767 0 0)
(-1.6544185 0 0)
(-1.6515226 0 0)
(-1.6482881 0 0)
(-1.6447135 0 0)
(-1.6407973 0 0)
(-1.6365372 0 0)
(-1.6319311 0 0)
(-1.6269761 0 0)
(-1.6216696 0 0)
(-1.6160087 0 0)
(-1.6099907 0 0)
(-1.6036079 0 0)
(-1.5955176 0 0)
(-1.6653967 -0 -0)
(-1.665221 0 0)
(-1.6646963 0 0)
(-1.6638263 0 0)
(-1.6626143 0 0)
(-1.6610624 0 0)
(-1.6591718 0 0)
(-1.6569435 0 0)
(-1.6543776 0 0)
(-1.6514738 0 0)
(-1.6482314 0 0)
(-1.6446492 0 0)
(-1.6407255 0 0)
(-1.6364586 0 0)
(-1.6318462 0 0)
(-1.6268859 0 0)
(-1.621575 0 0)
(-1.6159107 0 0)
(-1.60989 0 0)
(-1.6035071 0 0)
(-1.5967572 0 0)
(-1.6653967 -0 -0)
(-1.6652198 0 0)
(-1.6646914 0 0)
(-1.663816 0 0)
(-1.6625968 0 0)
(-1.6610363 0 0)
(-1.6591361 0 0)
(-1.6568972 0 0)
(-1.6543201 0 0)
(-1.6514045 0 0)
(-1.64815 0 0)
(-1.6445556 0 0)
(-1.6406198 0 0)
(-1.6363409 0 0)
(-1.631717 0 0)
(-1.6267457 0 0)
(-1.6214246 0 0)
(-1.6157509 0 0)
(-1.6097217 0 0)
(-1.603333 0 0)
(-1.5964903 0 0)
(-1.6653967 -0 -0)
(-1.6652186 0 0)
(-1.6646867 0 0)
(-1.6638059 0 0)
(-1.6625798 0 0)
(-1.661011 0 0)
(-1.6591015 0 0)
(-1.6568524 0 0)
(-1.6542644 0 0)
(-1.6513375 0 0)
(-1.6480714 0 0)
(-1.6444652 0 0)
(-1.6405177 0 0)
(-1.6362275 0 0)
(-1.6315926 0 0)
(-1.626611 0 0)
(-1.6212806 0 0)
(-1.6155987 0 0)
(-1.6095628 0 0)
(-1.6031694 0 0)
(-1.5962433 0 0)
(-1.6653967 -0 -0)
(-1.6652174 0 0)
(-1.6646821 0 0)
(-1.6637961 0 0)
(-1.6625631 0 0)
(-1.6609863 0 0)
(-1.6590676 0 0)
(-1.6568085 0 0)
(-1.6542099 0 0)
(-1.651272 0 0)
(-1.6479944 0 0)
(-1.6443766 0 0)
(-1.6404176 0 0)
(-1.6361159 0 0)
(-1.63147 0 0)
(-1.626478 0 0)
(-1.621138 0 0)
(-1.6154477 0 0)
(-1.6094051 0 0)
(-1.6030067 0 0)
(-1.5960054 0 0)
(-1.6653967 -0 -0)
(-1.6652162 0 0)
(-1.6646776 0 0)
(-1.6637863 0 0)
(-1.6625467 0 0)
(-1.6609619 0 0)
(-1.6590342 0 0)
(-1.6567653 0 0)
(-1.6541561 0 0)
(-1.651207 0 0)
(-1.6479179 0 0)
(-1.6442883 0 0)
(-1.6403173 0 0)
(-1.6360038 0 0)
(-1.6313461 0 0)
(-1.6263428 0 0)
(-1.6209919 0 0)
(-1.6152917 0 0)
(-1.6092401 0 0)
(-1.6028343 0 0)
(-1.5957638 0 0)
(-1.6653967 -0 -0)
(-1.665215 0 0)
(-1.6646731 0 0)
(-1.6637768 0 0)
(-1.6625305 0 0)
(-1.6609378 0 0)
(-1.6590011 0 0)
(-1.6567222 0 0)
(-1.6541023 0 0)
(-1.6511419 0 0)
(-1.647841 0 0)
(-1.6441991 0 0)
(-1.6402155 0 0)
(-1.635889 0 0)
(-1.6312184 0 0)
(-1.626202 0 0)
(-1.6208383 0 0)
(-1.6151253 0 0)
(-1.6090615 0 0)
(-1.6026441 0 0)
(-1.5955101 0 0)
(-1.6653967 -0 -0)
(-1.6652139 0 0)
(-1.6646687 0 0)
(-1.6637672 0 0)
(-1.6625144 0 0)
(-1.6609137 0 0)
(-1.658968 0 0)
(-1.6566791 0 0)
(-1.6540483 0 0)
(-1.6510762 0 0)
(-1.6477628 0 0)
(-1.6441079 0 0)
(-1.6401107 0 0)
(-1.6357701 0 0)
(-1.6310848 0 0)
(-1.6260533 0 0)
(-1.6206739 0 0)
(-1.6149451 0 0)
(-1.6088649 0 0)
(-1.6024311 0 0)
(-1.5952388 0 0)
(-1.6653967 -0 -0)
(-1.6652127 0 0)
(-1.6646643 0 0)
(-1.6637578 0 0)
(-1.6624983 0 0)
(-1.6608897 0 0)
(-1.6589348 0 0)
(-1.6566357 0 0)
(-1.6539937 0 0)
(-1.6510095 0 0)
(-1.6476831 0 0)
(-1.6440142 0 0)
(-1.6400022 0 0)
(-1.6356458 0 0)
(-1.6309439 0 0)
(-1.6258949 0 0)
(-1.620497 0 0)
(-1.6147485 0 0)
(-1.6086477 0 0)
(-1.6021923 0 0)
(-1.5949471 0 0)
(-1.6653967 -0 -0)
(-1.6652116 0 0)
(-1.66466 0 0)
(-1.6637486 0 0)
(-1.6624825 0 0)
(-1.6608659 0 0)
(-1.6589018 0 0)
(-1.6565923 0 0)
(-1.6539388 0 0)
(-1.6509419 0 0)
(-1.6476018 0 0)
(-1.6439181 0 0)
(-1.63989 0 0)
(-1.6355164 0 0)
(-1.6307959 0 0)
(-1.6257267 0 0)
(-1.6203073 0 0)
(-1.6145355 0 0)
(-1.6084096 0 0)
(-1.6019275 0 0)
(-1.5946352 0 0)
(-1.6653967 -0 -0)
(-1.6652102 0 0)
(-1.6646544 0 0)
(-1.6637363 0 0)
(-1.6624615 0 0)
(-1.6608342 0 0)
(-1.6588575 0 0)
(-1.6565337 0 0)
(-1.6538642 0 0)
(-1.6508496 0 0)
(-1.6474901 0 0)
(-1.6437852 0 0)
(-1.6397341 0 0)
(-1.6353354 0 0)
(-1.6305878 0 0)
(-1.6254893 0 0)
(-1.6200382 0 0)
(-1.6142322 0 0)
(-1.6080693 0 0)
(-1.6015476 0 0)
(-1.5942089 0 0)
(-1.6653967 -0 -0)
(-1.665222 0 0)
(-1.6646999 0 0)
(-1.663834 0 0)
(-1.6626273 0 0)
(-1.6610814 0 0)
(-1.6591977 0 0)
(-1.6569767 0 0)
(-1.6544185 0 0)
(-1.6515226 0 0)
(-1.6482881 0 0)
(-1.6447135 0 0)
(-1.6407973 0 0)
(-1.6365372 0 0)
(-1.6319311 0 0)
(-1.6269761 0 0)
(-1.6216696 0 0)
(-1.6160087 0 0)
(-1.6099907 0 0)
(-1.6036079 0 0)
(-1.5955176 0 0)
(-1.6653967 -0 -0)
(-1.665221 0 0)
(-1.6646963 0 0)
(-1.6638263 0 0)
(-1.6626143 0 0)
(-1.6610624 0 0)
(-1.6591718 0 0)
(-1.6569435 0 0)
(-1.6543776 0 0)
(-1.6514738 0 0)
(-1.6482314 0 0)
(-1.6446492 0 0)
(-1.6407255 0 0)
(-1.6364586 0 0)
(-1.6318462 0 0)
(-1.6268859 0 0)
(-1.621575 0 0)
(-1.6159107 0 0)
(-1.60989 0 0)
(-1.6035071 0 0)
(-1.5967572 0 0)
(-1.6653967 -0 -0)
(-1.6652198 0 0)
(-1.6646914 0 0)
(-1.663816 0 0)
(-1.6625968 0 0)
(-1.6610363 0 0)
(-1.6591361 0 0)
(-1.6568972 0 0)
(-1.6543201 0 0)
(-1.6514045 0 0)
(-1.64815 0 0)
(-1.6445556 0 0)
(-1.6406198 0 0)
(-1.6363409 0 0)
(-1.631717 0 0)
(-1.6267457 0 0)
(-1.6214246 0 0)
(-1.6157509 0 0)
(-1.6097217 0 0)
(-1.603333 0 0)
(-1.5964903 0 0)
(-1.6653967 -0 -0)
(-1.6652186 0 0)
(-1.6646867 0 0)
(-1.6638059 0 0)
(-1.6625798 0 0)
(-1.661011 0 0)
(-1.6591015 0 0)
(-1.6568524 0 0)
(-1.6542644 0 0)
(-1.6513375 0 0)
(-1.6480714 0 0)
(-1.6444652 0 0)
(-1.6405177 0 0)
(-1.6362275 0 0)
(-1.6315926 0 0)
(-1.626611 0 0)
(-1.6212806 0 0)
(-1.6155987 0 0)
(-1.6095628 0 0)
(-1.6031694 0 0)
(-1.5962433 0 0)
(-1.6653967 -0 -0)
(-1.6652174 0 0)
(-1.6646821 0 0)
(-1.6637961 0 0)
(-1.6625631 0 0)
(-1.6609863 0 0)
(-1.6590676 0 0)
(-1.6568085 0 0)
(-1.6542099 0 0)
(-1.651272 0 0)
(-1.6479944 0 0)
(-1.6443766 0 0)
(-1.6404176 0 0)
(-1.6361159 0 0)
(-1.63147 0 0)
(-1.626478 0 0)
(-1.621138 0 0)
(-1.6154477 0 0)
(-1.6094051 0 0)
(-1.6030067 0 0)
(-1.5960054 0 0)
(-1.6653967 -0 -0)
(-1.6652162 0 0)
(-1.6646776 0 0)
(-1.6637863 0 0)
(-1.6625467 0 0)
(-1.6609619 0 0)
(-1.6590342 0 0)
(-1.6567653 0 0)
(-1.6541561 0 0)
(-1.651207 0 0)
(-1.6479179 0 0)
(-1.6442883 0 0)
(-1.6403173 0 0)
(-1.6360038 0 0)
(-1.6313461 0 0)
(-1.6263428 0 0)
(-1.6209919 0 0)
(-1.6152917 0 0)
(-1.6092401 0 0)
(-1.6028343 0 0)
(-1.5957638 0 0)
(-1.6653967 -0 -0)
(-1.665215 0 0)
(-1.6646731 0 0)
(-1.6637768 0 0)
(-1.6625305 0 0)
(-1.6609378 0 0)
(-1.6590011 0 0)
(-1.6567222 0 0)
(-1.6541023 0 0)
(-1.6511419 0 0)
(-1.647841 0 0)
(-1.6441991 0 0)
(-1.6402155 0 0)
(-1.635889 0 0)
(-1.6312184 0 0)
(-1.626202 0 0)
(-1.6208383 0 0)
(-1.6151253 0 0)
(-1.6090615 0 0)
(-1.6026441 0 0)
(-1.5955101 0 0)
(-1.6653967 -0 -0)
(-1.6652139 0 0)
(-1.6646687 0 0)
(-1.6637672 0 0)
(-1.6625144 0 0)
(-1.6609137 0 0)
(-1.658968 0 0)
(-1.6566791 0 0)
(-1.6540483 0 0)
(-1.6510762 0 0)
(-1.6477628 0 0)
(-1.6441079 0 0)
(-1.6401107 0 0)
(-1.6357701 0 0)
(-1.6310848 0 0)
(-1.6260533 0 0)
(-1.6206739 0 0)
(-1.6149451 0 0)
(-1.6088649 0 0)
(-1.6024311 0 0)
(-1.5952388 0 0)
(-1.6653967 -0 -0)
(-1.6652127 0 0)
(-1.6646643 0 0)
(-1.6637578 0 0)
(-1.6624983 0 0)
(-1.6608897 0 0)
(-1.6589348 0 0)
(-1.6566357 0 0)
(-1.6539937 0 0)
(-1.6510095 0 0)
(-1.6476831 0 0)
(-1.6440142 0 0)
(-1.6400022 0 0)
(-1.6356458 0 0)
(-1.6309439 0 0)
(-1.6258949 0 0)
(-1.620497 0 0)
(-1.6147485 0 0)
(-1.6086477 0 0)
(-1.6021923 0 0)
(-1.5949471 0 0)
(-1.6653967 -0 -0)
(-1.6652116 0 0)
(-1.66466 0 0)
(-1.6637486 0 0)
(-1.6624825 0 0)
(-1.6608659 0 0)
(-1.6589018 0 0)
(-1.6565923 0 0)
(-1.6539388 0 0)
(-1.6509419 0 0)
(-1.6476018 0 0)
(-1.6439181 0 0)
(-1.63989 0 0)
(-1.6355164 0 0)
(-1.6307959 0 0)
(-1.6257267 0 0)
(-1.6203073 0 0)
(-1.6145355 0 0)
(-1.6084096 0 0)
(-1.6019275 0 0)
(-1.5946352 0 0)
(-1.6653967 -0 -0)
(-1.6652102 0 0)
(-1.6646544 0 0)
(-1.6637363 0 0)
(-1.6624615 0 0)
(-1.6608342 0 0)
(-1.6588575 0 0)
(-1.6565337 0 0)
(-1.6538642 0 0)
(-1.6508496 0 0)
(-1.6474901 0 0)
(-1.6437852 0 0)
(-1.6397341 0 0)
(-1.6353354 0 0)
(-1.6305878 0 0)
(-1.6254893 0 0)
(-1.6200382 0 0)
(-1.6142322 0 0)
(-1.6080693 0 0)
(-1.6015476 0 0)
(-1.5942089 0 0)
(-1.6653967 -0 -0)
(-1.6652246 0 0)
(-1.6647099 0 0)
(-1.6638548 0 0)
(-1.6626611 0 0)
(-1.6611296 0 0)
(-1.6592608 0 0)
(-1.6570545 0 0)
(-1.65451 0 0)
(-1.6516264 0 0)
(-1.6484021 0 0)
(-1.6448352 0 0)
(-1.6409236 0 0)
(-1.6366647 0 0)
(-1.6320556 0 0)
(-1.6270933 0 0)
(-1.6217741 0 0)
(-1.6160944 0 0)
(-1.6100502 0 0)
(-1.6036306 0 0)
(-1.5962605 0 0)
(-1.6653967 -0 -0)
(-1.6652244 0 0)
(-1.664709 0 0)
(-1.663853 0 0)
(-1.6626579 0 0)
(-1.6611249 0 0)
(-1.6592543 0 0)
(-1.6570459 0 0)
(-1.6544992 0 0)
(-1.6516131 0 0)
(-1.6483861 0 0)
(-1.6448163 0 0)
(-1.6409016 0 0)
(-1.6366394 0 0)
(-1.6320268 0 0)
(-1.6270606 0 0)
(-1.6217373 0 0)
(-1.6160531 0 0)
(-1.610004 0 0)
(-1.6035791 0 0)
(-1.5962099 0 0)
(-1.6653967 -0 -0)
(-1.6652239 0 0)
(-1.6647071 0 0)
(-1.6638487 0 0)
(-1.6626507 0 0)
(-1.661114 0 0)
(-1.6592392 0 0)
(-1.657026 0 0)
(-1.654474 0 0)
(-1.6515821 0 0)
(-1.648349 0 0)
(-1.6447727 0 0)
(-1.640851 0 0)
(-1.6365814 0 0)
(-1.631961 0 0)
(-1.6269866 0 0)
(-1.6216547 0 0)
(-1.6159614 0 0)
(-1.6099027 0 0)
(-1.6034681 0 0)
(-1.5961104 0 0)
(-1.6653967 -0 -0)
(-1.6652235 0 0)
(-1.6647054 0 0)
(-1.6638452 0 0)
(-1.6626446 0 0)
(-1.661105 0 0)
(-1.6592267 0 0)
(-1.6570097 0 0)
(-1.6544535 0 0)
(-1.6515573 0 0)
(-1.6483194 0 0)
(-1.6447382 0 0)
(-1.6408114 0 0)
(-1.6365365 0 0)
(-1.6319105 0 0)
(-1.6269304 0 0)
(-1.6215925 0 0)
(-1.6158931 0 0)
(-1.609828 0 0)
(-1.6033872 0 0)
(-1.596057 0 0)
(-1.6653967 -0 -0)
(-1.6652231 0 0)
(-1.664704 0 0)
(-1.6638422 0 0)
(-1.6626397 0 0)
(-1.6610977 0 0)
(-1.6592168 0 0)
(-1.656997 0 0)
(-1.6544379 0 0)
(-1.6515385 0 0)
(-1.6482975 0 0)
(-1.644713 0 0)
(-1.640783 0 0)
(-1.6365049 0 0)
(-1.6318757 0 0)
(-1.6268924 0 0)
(-1.6215514 0 0)
(-1.6158488 0 0)
(-1.6097805 0 0)
(-1.6033371 0 0)
(-1.5960501 0 0)
(-1.6653967 -0 -0)
(-1.6652228 0 0)
(-1.6647029 0 0)
(-1.6638399 0 0)
(-1.6626359 0 0)
(-1.6610922 0 0)
(-1.6592094 0 0)
(-1.6569878 0 0)
(-1.6544268 0 0)
(-1.6515257 0 0)
(-1.648283 0 0)
(-1.644697 0 0)
(-1.6407657 0 0)
(-1.6364864 0 0)
(-1.6318564 0 0)
(-1.6268724 0 0)
(-1.6215309 0 0)
(-1.6158282 0 0)
(-1.60976 0 0)
(-1.6033175 0 0)
(-1.5960893 0 0)
(-1.6653967 -0 -0)
(-1.6652226 0 0)
(-1.6647021 0 0)
(-1.6638381 0 0)
(-1.6626331 0 0)
(-1.6610883 0 0)
(-1.6592045 0 0)
(-1.656982 0 0)
(-1.6544203 0 0)
(-1.6515186 0 0)
(-1.6482757 0 0)
(-1.6446899 0 0)
(-1.640759 0 0)
(-1.6364807 0 0)
(-1.6318521 0 0)
(-1.62687 0 0)
(-1.621531 0 0)
(-1.6158312 0 0)
(-1.6097665 0 0)
(-1.6033287 0 0)
(-1.5961744 0 0)
(-1.6653967 -0 -0)
(-1.6652224 0 0)
(-1.6647015 0 0)
(-1.663837 0 0)
(-1.6626314 0 0)
(-1.6610861 0 0)
(-1.659202 0 0)
(-1.6569794 0 0)
(-1.654418 0 0)
(-1.6515171 0 0)
(-1.6482754 0 0)
(-1.6446913 0 0)
(-1.6407628 0 0)
(-1.6364875 0 0)
(-1.6318626 0 0)
(-1.626885 0 0)
(-1.6215513 0 0)
(-1.6158578 0 0)
(-1.6098002 0 0)
(-1.6033713 0 0)
(-1.5963061 0 0)
(-1.6653967 -0 -0)
(-1.6652223 0 0)
(-1.6647011 0 0)
(-1.6638364 0 0)
(-1.6626306 0 0)
(-1.6610855 0 0)
(-1.6592018 0 0)
(-1.6569801 0 0)
(-1.65442 0 0)
(-1.651521 0 0)
(-1.6482819 0 0)
(-1.6447011 0 0)
(-1.6407767 0 0)
(-1.6365064 0 0)
(-1.6318874 0 0)
(-1.626917 0 0)
(-1.6215916 0 0)
(-1.6159079 0 0)
(-1.6098618 0 0)
(-1.6034471 0 0)
(-1.596487 0 0)
(-1.6653967 -0 -0)
(-1.6652223 0 0)
(-1.664701 0 0)
(-1.6638363 0 0)
(-1.6626309 0 0)
(-1.6610863 0 0)
(-1.6592038 0 0)
(-1.6569837 0 0)
(-1.6544259 0 0)
(-1.65153 0 0)
(-1.6482947 0 0)
(-1.6447187 0 0)
(-1.6408001 0 0)
(-1.6365366 0 0)
(-1.6319258 0 0)
(-1.6269649 0 0)
(-1.6216508 0 0)
(-1.6159804 0 0)
(-1.6099504 0 0)
(-1.6035545 0 0)
(-1.5967152 0 0)
(-1.6653967 -0 -0)
(-1.6652246 0 0)
(-1.6647099 0 0)
(-1.6638548 0 0)
(-1.6626611 0 0)
(-1.6611296 0 0)
(-1.6592608 0 0)
(-1.6570545 0 0)
(-1.65451 0 0)
(-1.6516264 0 0)
(-1.6484021 0 0)
(-1.6448352 0 0)
(-1.6409236 0 0)
(-1.6366647 0 0)
(-1.6320556 0 0)
(-1.6270933 0 0)
(-1.6217741 0 0)
(-1.6160944 0 0)
(-1.6100502 0 0)
(-1.6036306 0 0)
(-1.5962605 0 0)
(-1.6653967 -0 -0)
(-1.6652244 0 0)
(-1.664709 0 0)
(-1.663853 0 0)
(-1.6626579 0 0)
(-1.6611249 0 0)
(-1.6592543 0 0)
(-1.6570459 0 0)
(-1.6544992 0 0)
(-1.6516131 0 0)
(-1.6483861 0 0)
(-1.6448163 0 0)
(-1.6409016 0 0)
(-1.6366394 0 0)
(-1.6320268 0 0)
(-1.6270606 0 0)
(-1.6217373 0 0)
(-1.6160531 0 0)
(-1.610004 0 0)
(-1.6035791 0 0)
(-1.5962099 0 0)
(-1.6653967 -0 -0)
(-1.6652239 0 0)
(-1.6647071 0 0)
(-1.6638487 0 0)
(-1.6626507 0 0)
(-1.661114 0 0)
(-1.6592392 0 0)
(-1.657026 0 0)
(-1.654474 0 0)
(-1.6515821 0 0)
(-1.648349 0 0)
(-1.6447727 0 0)
(-1.640851 0 0)
(-1.6365814 0 0)
(-1.631961 0 0)
(-1.6269866 0 0)
(-1.6216547 0 0)
(-1.6159614 0 0)
(-1.6099027 0 0)
(-1.6034681 0 0)
(-1.5961104 0 0)
(-1.6653967 -0 -0)
(-1.6652235 0 0)
(-1.6647054 0 0)
(-1.6638452 0 0)
(-1.6626446 0 0)
(-1.661105 0 0)
(-1.6592267 0 0)
(-1.6570097 0 0)
(-1.6544535 0 0)
(-1.6515573 0 0)
(-1.6483194 0 0)
(-1.6447382 0 0)
(-1.6408114 0 0)
(-1.6365365 0 0)
(-1.6319105 0 0)
(-1.6269304 0 0)
(-1.6215925 0 0)
(-1.6158931 0 0)
(-1.609828 0 0)
(-1.6033872 0 0)
(-1.596057 0 0)
(-1.6653967 -0 -0)
(-1.6652231 0 0)
(-1.664704 0 0)
(-1.6638422 0 0)
(-1.6626397 0 0)
(-1.6610977 0 0)
(-1.6592168 0 0)
(-1.656997 0 0)
(-1.6544379 0 0)
(-1.6515385 0 0)
(-1.6482975 0 0)
(-1.644713 0 0)
(-1.640783 0 0)
(-1.6365049 0 0)
(-1.6318757 0 0)
(-1.6268924 0 0)
(-1.6215514 0 0)
(-1.6158488 0 0)
(-1.6097805 0 0)
(-1.6033371 0 0)
(-1.5960501 0 0)
(-1.6653967 -0 -0)
(-1.6652228 0 0)
(-1.6647029 0 0)
(-1.6638399 0 0)
(-1.6626359 0 0)
(-1.6610922 0 0)
(-1.6592094 0 0)
(-1.6569878 0 0)
(-1.6544268 0 0)
(-1.6515257 0 0)
(-1.648283 0 0)
(-1.644697 0 0)
(-1.6407657 0 0)
(-1.6364864 0 0)
(-1.6318564 0 0)
(-1.6268724 0 0)
(-1.6215309 0 0)
(-1.6158282 0 0)
(-1.60976 0 0)
(-1.6033175 0 0)
(-1.5960893 0 0)
(-1.6653967 -0 -0)
(-1.6652226 0 0)
(-1.6647021 0 0)
(-1.6638381 0 0)
(-1.6626331 0 0)
(-1.6610883 0 0)
(-1.6592045 0 0)
(-1.656982 0 0)
(-1.6544203 0 0)
(-1.6515186 0 0)
(-1.6482757 0 0)
(-1.6446899 0 0)
(-1.640759 0 0)
(-1.6364807 0 0)
(-1.6318521 0 0)
(-1.62687 0 0)
(-1.621531 0 0)
(-1.6158312 0 0)
(-1.6097665 0 0)
(-1.6033287 0 0)
(-1.5961744 0 0)
(-1.6653967 -0 -0)
(-1.6652224 0 0)
(-1.6647015 0 0)
(-1.663837 0 0)
(-1.6626314 0 0)
(-1.6610861 0 0)
(-1.659202 0 0)
(-1.6569794 0 0)
(-1.654418 0 0)
(-1.6515171 0 0)
(-1.6482754 0 0)
(-1.6446913 0 0)
(-1.6407628 0 0)
(-1.6364875 0 0)
(-1.6318626 0 0)
(-1.626885 0 0)
(-1.6215513 0 0)
(-1.6158578 0 0)
(-1.6098002 0 0)
(-1.6033713 0 0)
(-1.5963061 0 0)
(-1.6653967 -0 -0)
(-1.6652223 0 0)
(-1.6647011 0 0)
(-1.6638364 0 0)
(-1.6626306 0 0)
(-1.6610855 0 0)
(-1.6592018 0 0)
(-1.6569801 0 0)
(-1.65442 0 0)
(-1.651521 0 0)
(-1.6482819 0 0)
(-1.6447011 0 0)
(-1.6407767 0 0)
(-1.6365064 0 0)
(-1.6318874 0 0)
(-1.626917 0 0)
(-1.6215916 0 0)
(-1.6159079 0 0)
(-1.6098618 0 0)
(-1.6034471 0 0)
(-1.596487 0 0)
(-1.6653967 -0 -0)
(-1.6652223 0 0)
(-1.664701 0 0)
(-1.6638363 0 0)
(-1.6626309 0 0)
(-1.6610863 0 0)
(-1.6592038 0 0)
(-1.6569837 0 0)
(-1.6544259 0 0)
(-1.65153 0 0)
(-1.6482947 0 0)
(-1.6447187 0 0)
(-1.6408001 0 0)
(-1.6365366 0 0)
(-1.6319258 0 0)
(-1.6269649 0 0)
(-1.6216508 0 0)
(-1.6159804 0 0)
(-1.6099504 0 0)
(-1.6035545 0 0)
(-1.5967152 0 0)
(-1.5872075 0 0)
(-1.5769986 0 0)
(-1.566207 0 0)
(-1.5548449 0 0)
(-1.5429185 0 0)
(-1.5304358 0 0)
(-1.5174064 0 0)
(-1.5038386 0 0)
(-1.4897386 0 0)
(-1.4751116 0 0)
(-1.459964 0 0)
(-1.4443005 0 0)
(-1.4281225 0 0)
(-1.4114278 0 0)
(-1.3942068 0 0)
(-1.3764487 0 0)
(-1.3581421 0 0)
(-1.3392738 0 0)
(-1.3198272 0 0)
(-1.2997813 0 0)
(-1.2791059 0 0)
(-1.2577651 0 0)
(-1.2357201 0 0)
(-1.21293 0 0)
(-1.1893466 0 0)
(-1.1649033 0 0)
(-1.1395421 0 0)
(-1.1132024 0 0)
(-1.0858081 0 0)
(-1.0572548 0 0)
(-1.0274385 0 0)
(-0.99628716 0 0)
(-0.96369687 0 0)
(-0.92952142 0 0)
(-0.89365842 0 0)
(-0.85599413 0 0)
(-0.81632176 0 0)
(-0.77444865 0 0)
(-0.73026625 0 0)
(-0.68354135 0 0)
(-0.63392591 0 0)
(-0.58115571 0 0)
(-0.52494959 0 0)
(-0.46494396 0 0)
(-0.40075014 0 0)
(-0.33198573 0 0)
(-0.25814227 0 0)
(-0.17863015 0 0)
(-0.092731079 0 0)
(0 0 0)
(-1.5871724 0 0)
(-1.5769857 0 0)
(-1.5662142 0 0)
(-1.5548695 0 0)
(-1.5429574 0 0)
(-1.530486 0 0)
(-1.5174653 0 0)
(-1.5039043 0 0)
(-1.4898092 0 0)
(-1.4751855 0 0)
(-1.46004 0 0)
(-1.444377 0 0)
(-1.4281983 0 0)
(-1.4115022 0 0)
(-1.3942801 0 0)
(-1.3765211 0 0)
(-1.3582134 0 0)
(-1.3393438 0 0)
(-1.3198956 0 0)
(-1.2998476 0 0)
(-1.27917 0 0)
(-1.2578268 0 0)
(-1.2357798 0 0)
(-1.2129877 0 0)
(-1.1894018 0 0)
(-1.1649573 0 0)
(-1.1395952 0 0)
(-1.1132548 0 0)
(-1.0858601 0 0)
(-1.0573059 0 0)
(-1.0274879 0 0)
(-0.99633483 0 0)
(-0.96374355 0 0)
(-0.92956544 0 0)
(-0.89370031 0 0)
(-0.856035 0 0)
(-0.81636252 0 0)
(-0.77448951 0 0)
(-0.73030639 0 0)
(-0.68357942 0 0)
(-0.63396024 0 0)
(-0.58118768 0 0)
(-0.52498078 0 0)
(-0.46497415 0 0)
(-0.40077805 0 0)
(-0.33201076 0 0)
(-0.2581628 0 0)
(-0.17864406 0 0)
(-0.092738035 0 0)
(0 0 0)
(-1.5871265 0 0)
(-1.5770116 0 0)
(-1.5663074 0 0)
(-1.5550243 0 0)
(-1.5431678 0 0)
(-1.5307459 0 0)
(-1.5177691 0 0)
(-1.5042469 0 0)
(-1.4901859 0 0)
(-1.475592 0 0)
(-1.4604719 0 0)
(-1.4448302 0 0)
(-1.4286692 0 0)
(-1.4119875 0 0)
(-1.3947778 0 0)
(-1.3770296 0 0)
(-1.3587305 0 0)
(-1.3398672 0 0)
(-1.3204235 0 0)
(-1.3003787 0 0)
(-1.2797028 0 0)
(-1.2583596 0 0)
(-1.2363119 0 0)
(-1.2135189 0 0)
(-1.1899301 0 0)
(-1.1654829 0 0)
(-1.140118 0 0)
(-1.1137744 0 0)
(-1.0863755 0 0)
(-1.057816 0 0)
(-1.0279914 0 0)
(-0.99683095 0 0)
(-0.96423153 0 0)
(-0.93004274 0 0)
(-0.89416654 0 0)
(-0.85648965 0 0)
(-0.81680522 0 0)
(-0.77491935 0 0)
(-0.73072009 0 0)
(-0.68397257 0 0)
(-0.63432918 0 0)
(-0.58153232 0 0)
(-0.52529987 0 0)
(-0.46526393 0 0)
(-0.40103412 0 0)
(-0.33222886 0 0)
(-0.25833641 0 0)
(-0.17876561 0 0)
(-0.092801646 0 0)
(0 0 0)
(-1.5871664 0 0)
(-1.5771734 0 0)
(-1.5665837 0 0)
(-1.5554064 0 0)
(-1.5436464 0 0)
(-1.5313118 0 0)
(-1.5184134 0 0)
(-1.504961 0 0)
(-1.490962 0 0)
(-1.4764228 0 0)
(-1.4613499 0 0)
(-1.4457484 0 0)
(-1.4296212 0 0)
(-1.4129678 0 0)
(-1.3957818 0 0)
(-1.3780534 0 0)
(-1.3597702 0 0)
(-1.3409186 0 0)
(-1.3214831 0 0)
(-1.301444 0 0)
(-1.2807711 0 0)
(-1.2594281 0 0)
(-1.2373786 0 0)
(-1.2145825 0 0)
(-1.1909885 0 0)
(-1.166535 0 0)
(-1.1411626 0 0)
(-1.1148106 0 0)
(-1.0874018 0 0)
(-1.0588304 0 0)
(-1.0289916 0 0)
(-0.99781541 0 0)
(-0.96519889 0 0)
(-0.93098921 0 0)
(-0.8950904 0 0)
(-0.85738958 0 0)
(-0.81767928 0 0)
(-0.77576463 0 0)
(-0.73153134 0 0)
(-0.68474321 0 0)
(-0.63505329 0 0)
(-0.58220767 0 0)
(-0.52592271 0 0)
(-0.46582716 0 0)
(-0.40152982 0 0)
(-0.33264892 0 0)
(-0.25866992 0 0)
(-0.17899946 0 0)
(-0.092924081 0 0)
(0 0 0)
(-1.587292 0 0)
(-1.5774703 0 0)
(-1.567042 0 0)
(-1.5560143 0 0)
(-1.5443916 0 0)
(-1.5321818 0 0)
(-1.5193959 0 0)
(-1.5060444 0 0)
(-1.4921355 0 0)
(-1.477676 0 0)
(-1.4626722 0 0)
(-1.4471299 0 0)
(-1.4310529 0 0)
(-1.4144414 0 0)
(-1.3972903 0 0)
(-1.3795906 0 0)
(-1.3613303 0 0)
(-1.3424953 0 0)
(-1.3230716 0 0)
(-1.3030404 0 0)
(-1.2823715 0 0)
(-1.2610281 0 0)
(-1.2389754 0 0)
(-1.2161742 0 0)
(-1.192572 0 0)
(-1.1681082 0 0)
(-1.142724 0 0)
(-1.1163581 0 0)
(-1.088933 0 0)
(-1.0603428 0 0)
(-1.0304826 0 0)
(-0.99928242 0 0)
(-0.96663925 0 0)
(-0.9323986 0 0)
(-0.89646609 0 0)
(-0.85872859 0 0)
(-0.8189782 0 0)
(-0.77701936 0 0)
(-0.7327346 0 0)
(-0.6858856 0 0)
(-0.63612714 0 0)
(-0.58320894 0 0)
(-0.52684483 0 0)
(-0.46665959 0 0)
(-0.40226149 0 0)
(-0.3332681 0 0)
(-0.2591608 0 0)
(-0.17934368 0 0)
(-0.093104522 0 0)
(0 0 0)
(-1.5875021 0 0)
(-1.5779004 0 0)
(-1.5676797 0 0)
(-1.556845 0 0)
(-1.5454002 0 0)
(-1.5333526 0 0)
(-1.5207132 0 0)
(-1.5074934 0 0)
(-1.4937029 0 0)
(-1.4793485 0 0)
(-1.464436 0 0)
(-1.4489715 0 0)
(-1.4329607 0 0)
(-1.4164046 0 0)
(-1.3992994 0 0)
(-1.3816373 0 0)
(-1.3634063 0 0)
(-1.3445928 0 0)
(-1.3251839 0 0)
(-1.3051621 0 0)
(-1.2844976 0 0)
(-1.2631534 0 0)
(-1.2410954 0 0)
(-1.2182863 0 0)
(-1.1946729 0 0)
(-1.1701948 0 0)
(-1.1447935 0 0)
(-1.118408 0 0)
(-1.0909605 0 0)
(-1.0623445 0 0)
(-1.0324549 0 0)
(-1.0012224 0 0)
(-0.96854341 0 0)
(-0.93426154 0 0)
(-0.89828397 0 0)
(-0.86049768 0 0)
(-0.82069316 0 0)
(-0.7786743 0 0)
(-0.73432078 0 0)
(-0.68739154 0 0)
(-0.63754302 0 0)
(-0.58452882 0 0)
(-0.5280596 0 0)
(-0.46775545 0 0)
(-0.40322387 0 0)
(-0.33408179 0 0)
(-0.25980553 0 0)
(-0.17979586 0 0)
(-0.09334154 0 0)
(0 0 0)
(-1.5877955 0 0)
(-1.5784615 0 0)
(-1.5684941 0 0)
(-1.5578955 0 0)
(-1.5466688 0 0)
(-1.5348208 0 0)
(-1.5223618 0 0)
(-1.5093042 0 0)
(-1.4956601 0 0)
(-1.4814366 0 0)
(-1.466638 0 0)
(-1.4512702 0 0)
(-1.4353407 0 0)
(-1.4188533 0 0)
(-1.4018048 0 0)
(-1.3841886 0 0)
(-1.3659933 0 0)
(-1.3472054 0 0)
(-1.3278137 0 0)
(-1.3078027 0 0)
(-1.2871423 0 0)
(-1.2657957 0 0)
(-1.2437303 0 0)
(-1.2209099 0 0)
(-1.1972812 0 0)
(-1.1727845 0 0)
(-1.1473611 0 0)
(-1.1209497 0 0)
(-1.0934727 0 0)
(-1.0648238 0 0)
(-1.0348972 0 0)
(-1.0036237 0 0)
(-0.97089931 0 0)
(-0.93656622 0 0)
(-0.90053258 0 0)
(-0.86268494 0 0)
(-0.82281234 0 0)
(-0.78071833 0 0)
(-0.73627911 0 0)
(-0.68925035 0 0)
(-0.63929106 0 0)
(-0.58615821 0 0)
(-0.52955851 0 0)
(-0.46910684 0 0)
(-0.4044102 0 0)
(-0.33508437 0 0)
(-0.26059955 0 0)
(-0.18035272 0 0)
(-0.093633439 0 0)
(0 0 0)
(-1.5881721 0 0)
(-1.5791521 0 0)
(-1.5694824 0 0)
(-1.559162 0 0)
(-1.5481933 0 0)
(-1.5365828 0 0)
(-1.5243385 0 0)
(-1.5114739 0 0)
(-1.4980053 0 0)
(-1.4839394 0 0)
(-1.469277 0 0)
(-1.4540227 0 0)
(-1.4381888 0 0)
(-1.4217826 0 0)
(-1.4048011 0 0)
(-1.3872389 0 0)
(-1.3690853 0 0)
(-1.3503266 0 0)
(-1.3309538 0 0)
(-1.3109537 0 0)
(-1.2902969 0 0)
(-1.268946 0 0)
(-1.2468698 0 0)
(-1.2240339 0 0)
(-1.2003856 0 0)
(-1.1758652 0 0)
(-1.1504138 0 0)
(-1.12397 0 0)
(-1.0964564 0 0)
(-1.0677669 0 0)
(-1.0377952 0 0)
(-1.006472 0 0)
(-0.97369275 0 0)
(-0.93929812 0 0)
(-0.90319749 0 0)
(-0.86527662 0 0)
(-0.8253221 0 0)
(-0.7831374 0 0)
(-0.73859586 0 0)
(-0.69144948 0 0)
(-0.64135927 0 0)
(-0.58808584 0 0)
(-0.53133137 0 0)
(-0.47070474 0 0)
(-0.40581229 0 0)
(-0.33626871 0 0)
(-0.26153741 0 0)
(-0.18101038 0 0)
(-0.093977957 0 0)
(0 0 0)
(-1.5886331 0 0)
(-1.5799716 0 0)
(-1.5706426 0 0)
(-1.5606407 0 0)
(-1.5499702 0 0)
(-1.5386385 0 0)
(-1.5266484 0 0)
(-1.5140108 0 0)
(-1.5007428 0 0)
(-1.486854 0 0)
(-1.4723464 0 0)
(-1.4572246 0 0)
(-1.4415029 0 0)
(-1.4251903 0 0)
(-1.4082855 0 0)
(-1.3907846 0 0)
(-1.3726772 0 0)
(-1.3539492 0 0)
(-1.3345955 0 0)
(-1.3146062 0 0)
(-1.2939514 0 0)
(-1.2725932 0 0)
(-1.2505021 0 0)
(-1.227646 0 0)
(-1.2039724 0 0)
(-1.1794226 0 0)
(-1.1539372 0 0)
(-1.1274538 0 0)
(-1.0998956 0 0)
(-1.0711574 0 0)
(-1.0411326 0 0)
(-1.0097508 0 0)
(-0.97690673 0 0)
(-0.94244059 0 0)
(-0.90626255 0 0)
(-0.86825636 0 0)
(-0.82820603 0 0)
(-0.78591586 0 0)
(-0.74125586 0 0)
(-0.69397409 0 0)
(-0.64373396 0 0)
(-0.59029897 0 0)
(-0.53336622 0 0)
(-0.47253819 0 0)
(-0.40742074 0 0)
(-0.33762695 0 0)
(-0.26261258 0 0)
(-0.18176415 0 0)
(-0.094372746 0 0)
(0 0 0)
(-1.5891768 0 0)
(-1.5809158 0 0)
(-1.5719677 0 0)
(-1.5623264 0 0)
(-1.5519975 0 0)
(-1.5409827 0 0)
(-1.5292818 0 0)
(-1.5169023 0 0)
(-1.503859 0 0)
(-1.4901677 0 0)
(-1.4758345 0 0)
(-1.460865 0 0)
(-1.4452717 0 0)
(-1.4290645 0 0)
(-1.4122439 0 0)
(-1.3948066 0 0)
(-1.3767465 0 0)
(-1.3580522 0 0)
(-1.3387196 0 0)
(-1.3187403 0 0)
(-1.2980851 0 0)
(-1.2767153 0 0)
(-1.2546039 0 0)
(-1.2317218 0 0)
(-1.2080172 0 0)
(-1.1834318 0 0)
(-1.1579059 0 0)
(-1.1313755 0 0)
(-1.1037644 0 0)
(-1.0749695 0 0)
(-1.0448835 0 0)
(-1.0134345 0 0)
(-0.98051596 0 0)
(-0.9459684 0 0)
(-0.90970304 0 0)
(-0.87160051 0 0)
(-0.83144112 0 0)
(-0.78903068 0 0)
(-0.74423703 0 0)
(-0.69680379 0 0)
(-0.64639598 0 0)
(-0.59277985 0 0)
(-0.53564692 0 0)
(-0.47459286 0 0)
(-0.40922284 0 0)
(-0.33914832 0 0)
(-0.26381679 0 0)
(-0.18260831 0 0)
(-0.094814603 0 0)
(0 0 0)
(-1.5879515 0 0)
(-1.5800828 0 0)
(-1.5715151 0 0)
(-1.5622468 0 0)
(-1.5522763 0 0)
(-1.5415969 0 0)
(-1.5302126 0 0)
(-1.5181274 0 0)
(-1.5053521 0 0)
(-1.491903 0 0)
(-1.4777898 0 0)
(-1.4630204 0 0)
(-1.4476048 0 0)
(-1.4315531 0 0)
(-1.4148669 0 0)
(-1.3975452 0 0)
(-1.3795862 0 0)
(-1.3609809 0 0)
(-1.3417224 0 0)
(-1.3218016 0 0)
(-1.3011935 0 0)
(-1.2798621 0 0)
(-1.2577805 0 0)
(-1.2349205 0 0)
(-1.2112312 0 0)
(-1.1866555 0 0)
(-1.1611337 0 0)
(-1.1346002 0 0)
(-1.1069791 0 0)
(-1.0781697 0 0)
(-1.0480643 0 0)
(-1.0165882 0 0)
(-0.98363503 0 0)
(-0.94904546 0 0)
(-0.91272982 0 0)
(-0.87456782 0 0)
(-0.83433688 0 0)
(-0.79184288 0 0)
(-0.74694934 0 0)
(-0.69939883 0 0)
(-0.64885698 0 0)
(-0.59509114 0 0)
(-0.5377885 0 0)
(-0.47653758 0 0)
(-0.41094235 0 0)
(-0.34061207 0 0)
(-0.26498647 0 0)
(-0.18343799 0 0)
(-0.095259372 0 0)
(0 0 0)
(-1.5872075 0 0)
(-1.5769986 0 0)
(-1.566207 0 0)
(-1.5548449 0 0)
(-1.5429185 0 0)
(-1.5304358 0 0)
(-1.5174064 0 0)
(-1.5038386 0 0)
(-1.4897386 0 0)
(-1.4751116 0 0)
(-1.459964 0 0)
(-1.4443005 0 0)
(-1.4281225 0 0)
(-1.4114278 0 0)
(-1.3942068 0 0)
(-1.3764487 0 0)
(-1.3581421 0 0)
(-1.3392738 0 0)
(-1.3198272 0 0)
(-1.2997813 0 0)
(-1.2791059 0 0)
(-1.2577651 0 0)
(-1.2357201 0 0)
(-1.21293 0 0)
(-1.1893466 0 0)
(-1.1649033 0 0)
(-1.1395421 0 0)
(-1.1132024 0 0)
(-1.0858081 0 0)
(-1.0572548 0 0)
(-1.0274385 0 0)
(-0.99628716 0 0)
(-0.96369687 0 0)
(-0.92952142 0 0)
(-0.89365842 0 0)
(-0.85599413 0 0)
(-0.81632176 0 0)
(-0.77444865 0 0)
(-0.73026625 0 0)
(-0.68354135 0 0)
(-0.63392591 0 0)
(-0.58115571 0 0)
(-0.52494959 0 0)
(-0.46494396 0 0)
(-0.40075014 0 0)
(-0.33198573 0 0)
(-0.25814227 0 0)
(-0.17863015 0 0)
(-0.092731079 0 0)
(0 0 0)
(-1.5871724 0 0)
(-1.5769857 0 0)
(-1.5662142 0 0)
(-1.5548695 0 0)
(-1.5429574 0 0)
(-1.530486 0 0)
(-1.5174653 0 0)
(-1.5039043 0 0)
(-1.4898092 0 0)
(-1.4751855 0 0)
(-1.46004 0 0)
(-1.444377 0 0)
(-1.4281983 0 0)
(-1.4115022 0 0)
(-1.3942801 0 0)
(-1.3765211 0 0)
(-1.3582134 0 0)
(-1.3393438 0 0)
(-1.3198956 0 0)
(-1.2998476 0 0)
(-1.27917 0 0)
(-1.2578268 0 0)
(-1.2357798 0 0)
(-1.2129877 0 0)
(-1.1894018 0 0)
(-1.1649573 0 0)
(-1.1395952 0 0)
(-1.1132548 0 0)
(-1.0858601 0 0)
(-1.0573059 0 0)
(-1.0274879 0 0)
(-0.99633483 0 0)
(-0.96374355 0 0)
(-0.92956544 0 0)
(-0.89370031 0 0)
(-0.856035 0 0)
(-0.81636252 0 0)
(-0.77448951 0 0)
(-0.73030639 0 0)
(-0.68357942 0 0)
(-0.63396024 0 0)
(-0.58118768 0 0)
(-0.52498078 0 0)
(-0.46497415 0 0)
(-0.40077805 0 0)
(-0.33201076 0 0)
(-0.2581628 0 0)
(-0.17864406 0 0)
(-0.092738035 0 0)
(0 0 0)
(-1.5871265 0 0)
(-1.5770116 0 0)
(-1.5663074 0 0)
(-1.5550243 0 0)
(-1.5431678 0 0)
(-1.5307459 0 0)
(-1.5177691 0 0)
(-1.5042469 0 0)
(-1.4901859 0 0)
(-1.475592 0 0)
(-1.4604719 0 0)
(-1.4448302 0 0)
(-1.4286692 0 0)
(-1.4119875 0 0)
(-1.3947778 0 0)
(-1.3770296 0 0)
(-1.3587305 0 0)
(-1.3398672 0 0)
(-1.3204235 0 0)
(-1.3003787 0 0)
(-1.2797028 0 0)
(-1.2583596 0 0)
(-1.2363119 0 0)
(-1.2135189 0 0)
(-1.1899301 0 0)
(-1.1654829 0 0)
(-1.140118 0 0)
(-1.1137744 0 0)
(-1.0863755 0 0)
(-1.057816 0 0)
(-1.0279914 0 0)
(-0.99683095 0 0)
(-0.96423153 0 0)
(-0.93004274 0 0)
(-0.89416654 0 0)
(-0.85648965 0 0)
(-0.81680522 0 0)
(-0.77491935 0 0)
(-0.73072009 0 0)
(-0.68397257 0 0)
(-0.63432918 0 0)
(-0.58153232 0 0)
(-0.52529987 0 0)
(-0.46526393 0 0)
(-0.40103412 0 0)
(-0.33222886 0 0)
(-0.25833641 0 0)
(-0.17876561 0 0)
(-0.092801646 0 0)
(0 0 0)
(-1.5871664 0 0)
(-1.5771734 0 0)
(-1.5665837 0 0)
(-1.5554064 0 0)
(-1.5436464 0 0)
(-1.5313118 0 0)
(-1.5184134 0 0)
(-1.504961 0 0)
(-1.490962 0 0)
(-1.4764228 0 0)
(-1.4613499 0 0)
(-1.4457484 0 0)
(-1.4296212 0 0)
(-1.4129678 0 0)
(-1.3957818 0 0)
(-1.3780534 0 0)
(-1.3597702 0 0)
(-1.3409186 0 0)
(-1.3214831 0 0)
(-1.301444 0 0)
(-1.2807711 0 0)
(-1.2594281 0 0)
(-1.2373786 0 0)
(-1.2145825 0 0)
(-1.1909885 0 0)
(-1.166535 0 0)
(-1.1411626 0 0)
(-1.1148106 0 0)
(-1.0874018 0 0)
(-1.0588304 0 0)
(-1.0289916 0 0)
(-0.99781541 0 0)
(-0.96519889 0 0)
(-0.93098921 0 0)
(-0.8950904 0 0)
(-0.85738958 0 0)
(-0.81767928 0 0)
(-0.77576463 0 0)
(-0.73153134 0 0)
(-0.68474321 0 0)
(-0.63505329 0 0)
(-0.58220767 0 0)
(-0.52592271 0 0)
(-0.46582716 0 0)
(-0.40152982 0 0)
(-0.33264892 0 0)
(-0.25866992 0 0)
(-0.17899946 0 0)
(-0.092924081 0 0)
(0 0 0)
(-1.587292 0 0)
(-1.5774703 0 0)
(-1.567042 0 0)
(-1.5560143 0 0)
(-1.5443916 0 0)
(-1.5321818 0 0)
(-1.5193959 0 0)
(-1.5060444 0 0)
(-1.4921355 0 0)
(-1.477676 0 0)
(-1.4626722 0 0)
(-1.4471299 0 0)
(-1.4310529 0 0)
(-1.4144414 0 0)
(-1.3972903 0 0)
(-1.3795906 0 0)
(-1.3613303 0 0)
(-1.3424953 0 0)
(-1.3230716 0 0)
(-1.3030404 0 0)
(-1.2823715 0 0)
(-1.2610281 0 0)
(-1.2389754 0 0)
(-1.2161742 0 0)
(-1.192572 0 0)
(-1.1681082 0 0)
(-1.142724 0 0)
(-1.1163581 0 0)
(-1.088933 0 0)
(-1.0603428 0 0)
(-1.0304826 0 0)
(-0.99928242 0 0)
(-0.96663925 0 0)
(-0.9323986 0 0)
(-0.89646609 0 0)
(-0.85872859 0 0)
(-0.8189782 0 0)
(-0.77701936 0 0)
(-0.7327346 0 0)
(-0.6858856 0 0)
(-0.63612714 0 0)
(-0.58320894 0 0)
(-0.52684483 0 0)
(-0.46665959 0 0)
(-0.40226149 0 0)
(-0.3332681 0 0)
(-0.2591608 0 0)
(-0.17934368 0 0)
(-0.093104522 0 0)
(0 0 0)
(-1.5875021 0 0)
(-1.5779004 0 0)
(-1.5676797 0 0)
(-1.556845 0 0)
(-1.5454002 0 0)
(-1.5333526 0 0)
(-1.5207132 0 0)
(-1.5074934 0 0)
(-1.4937029 0 0)
(-1.4793485 0 0)
(-1.464436 0 0)
(-1.4489715 0 0)
(-1.4329607 0 0)
(-1.4164046 0 0)
(-1.3992994 0 0)
(-1.3816373 0 0)
(-1.3634063 0 0)
(-1.3445928 0 0)
(-1.3251839 0 0)
(-1.3051621 0 0)
(-1.2844976 0 0)
(-1.2631534 0 0)
(-1.2410954 0 0)
(-1.2182863 0 0)
(-1.1946729 0 0)
(-1.1701948 0 0)
(-1.1447935 0 0)
(-1.118408 0 0)
(-1.0909605 0 0)