/*--------------------------------*- C++ -*----------------------------------*\
| =========                 |                                                 |
| \\      /  F ield         | OpenFOAM: The Open Source CFD Toolbox           |
|  \\    /   O peration     | Version:  v2012                                 |
|   \\  /    A nd           | Website:  www.openfoam.com                      |
|    \\/     M anipulation  |                                                 |
\*---------------------------------------------------------------------------*/
FoamFile
{
    version     2.0;
    format      ascii;
    class       surfaceVectorField;
    location    "78.9810715796743068";
    object      Uf;
}
// * * * * * * * * * * * * * * * * * * * * * * * * * * * * * * * * * * * * * //

dimensions      [0 1 -1 0 0 0 0];


internalField   nonuniform List<vector> 
18180
(
(2.6593253 -0.0058384083 -1.0102437e-22)
(2.6649617 -0.0024176694 6.5704465e-22)
(2.6582389 -0.011921487 -8.5717347e-22)
(2.6647575 -0.010239415 -1.4466739e-21)
(2.6691149 -0.0071959723 -7.5888117e-22)
(2.6715747 -0.0026042925 -6.8309322e-22)
(2.6563987 -0.018158438 1.5952704e-22)
(2.6640385 -0.016576519 3.106535e-23)
(2.6691826 -0.01492205 -5.1340767e-22)
(2.6723513 -0.011243244 -8.6655386e-22)
(2.6753434 -0.0071527502 -7.8908665e-22)
(2.6778962 -0.002431301 -6.016969e-22)
(2.6534773 -0.024874853 -4.1122664e-22)
(2.6627566 -0.02462662 1.2368098e-21)
(2.6689025 -0.023301138 1.1426546e-21)
(2.6728481 -0.018548039 1.3868272e-21)
(2.676563 -0.014926999 1.068306e-21)
(2.6797005 -0.01069544 6.9060486e-22)
(2.6821937 -0.0065075731 8.8906663e-22)
(2.6834276 -0.0019695694 -1.0877803e-22)
(2.6493081 -0.031938749 -1.0835688e-21)
(2.6602903 -0.032988383 -6.7185537e-22)
(2.6679351 -0.032834352 8.8714515e-22)
(2.6734784 -0.028112387 3.6474216e-22)
(2.6779957 -0.023770713 5.7027629e-22)
(2.6817915 -0.017975574 4.5659892e-22)
(2.6848636 -0.013789351 9.0629481e-23)
(2.6863218 -0.0090554405 7.2197944e-22)
(2.6876726 -0.0050134482 -2.2368364e-22)
(2.6875262 -0.0010911722 -2.9478312e-22)
(2.6436838 -0.039255525 -2.9542643e-21)
(2.6565096 -0.042400928 -4.1131525e-22)
(2.6657596 -0.043590566 -3.0129755e-23)
(2.6732312 -0.038695526 -7.4230641e-22)
(2.6793235 -0.034256514 -1.2597564e-21)
(2.6848218 -0.027862139 -2.706153e-21)
(2.6885485 -0.022504283 -2.8577432e-21)
(2.6902698 -0.015571663 -8.1304493e-22)
(2.6918646 -0.010886475 -2.2448216e-22)
(2.6914599 -0.0061995995 -1.6627728e-21)
(2.6914399 -0.0026913321 -1.7500227e-21)
(2.6896428 0.000188632 2.5448158e-21)
(2.63644 -0.046542184 -1.1494724e-21)
(2.6508841 -0.052380075 -4.6164589e-21)
(2.6619347 -0.055574909 -2.2274302e-21)
(2.6719333 -0.05115416 -3.8929005e-21)
(2.6798925 -0.046672683 -4.6206196e-21)
(2.6875995 -0.039432085 -4.1490691e-21)
(2.6929736 -0.033378665 -5.5572778e-21)
(2.6961397 -0.024917057 -3.4536437e-21)
(2.6980535 -0.018411048 -1.5233627e-21)
(2.6973149 -0.011009761 -2.4598796e-22)
(2.6970923 -0.0063476646 -1.6098736e-21)
(2.6945397 -0.0022918888 -1.3259422e-21)
(2.6929337 0.00032550612 2.7473769e-21)
(2.6893972 0.0016192182 -1.0182388e-22)
(2.6275055 -0.053451493 2.2748091e-21)
(2.6431809 -0.062763795 4.8022607e-21)
(2.6559175 -0.068584863 1.6139285e-21)
(2.6687948 -0.065216653 -5.8891939e-23)
(2.6791397 -0.061205129 -1.6082175e-21)
(2.6899228 -0.053660822 -1.0985837e-21)
(2.6974291 -0.046927725 -6.0199722e-22)
(2.7026848 -0.036523451 -1.9286404e-21)
(2.7060396 -0.028442308 1.1547395e-22)
(2.7061892 -0.018668869 2.3265806e-21)
(2.7057367 -0.011628022 3.5825165e-21)
(2.7020777 -0.0045196723 -1.7163434e-21)
(2.6998121 -0.00044746298 -1.4562691e-21)
(2.6951718 0.0024151372 1.9630342e-21)
(2.6918633 0.003552884 -7.4893256e-22)
(2.6868132 0.0030689748 -6.7780454e-21)
(2.6168725 -0.05954354 6.5654694e-22)
(2.6330728 -0.073099423 -1.5702564e-21)
(2.6472524 -0.082269297 7.7325314e-22)
(2.6633323 -0.080798668 5.2292066e-21)
(2.6763245 -0.077862055 3.6926423e-21)
(2.6908503 -0.070595215 7.8578344e-21)
(2.7013044 -0.063609845 8.4702784e-21)
(2.7097906 -0.051502955 4.1038753e-21)
(2.7152098 -0.041680736 2.9106764e-21)
(2.7168732 -0.028882106 3.7996287e-22)
(2.717362 -0.019459588 2.4723445e-21)
(2.7137486 -0.0093280672 4.6461194e-22)
(2.7104909 -0.0024872058 -4.5992212e-21)
(2.7038603 0.0034305867 -4.8514875e-22)
(2.699539 0.0064025749 2.7720883e-21)
(2.6929626 0.0075392124 2.4879429e-21)
(2.6881683 0.0069581989 -3.18468e-21)
(2.681944 0.0044863584 -3.845666e-22)
(2.6046439 -0.064333267 8.2541745e-22)
(2.620389 -0.082864422 1.4829701e-22)
(2.6354934 -0.096119681 -1.969748e-21)
(2.6548877 -0.097560269 -3.3461292e-21)
(2.6707335 -0.096491293 8.1493609e-22)
(2.6897165 -0.090378625 2.6102428e-21)
(2.7037391 -0.083748284 6.5440536e-21)
(2.7165044 -0.070283524 6.7043639e-21)
(2.7250673 -0.058877601 2.5405594e-21)
(2.7295058 -0.042862851 4.6365755e-22)
(2.7315677 -0.030631594 -1.9693712e-21)
(2.7284095 -0.016582035 7.2343952e-22)
(2.7253045 -0.0067113898 -1.1982325e-21)
(2.7176917 0.0025198373 -3.8511234e-21)
(2.7115713 0.0082897704 6.1704574e-23)
(2.7023111 0.012180079 2.0885807e-21)
(2.6960956 0.013576791 1.808811e-21)
(2.6880172 0.012651472 3.6569146e-22)
(2.6820651 0.010225727 3.0677128e-21)
(2.6750595 0.0057521977 5.195371e-21)
(2.5910215 -0.067315433 -1.1537445e-21)
(2.6050383 -0.0914579 2.732967e-21)
(2.6203021 -0.10949019 2.1171331e-21)
(2.6429114 -0.11499084 -2.132611e-22)
(2.6615892 -0.11675705 -1.5005238e-21)
(2.6855861 -0.11298027 -2.2287353e-21)
(2.7038339 -0.10754137 -5.6836836e-22)
(2.7221351 -0.093342308 7.2836043e-21)
(2.7348201 -0.080735855 7.44574e-21)
(2.7433075 -0.061406834 2.3416205e-21)
(2.7481718 -0.046125004 3.6977281e-22)
(2.7466177 -0.027448829 1.207554e-21)
(2.7441062 -0.013862423 3.7848043e-21)
(2.7355433 -0.00031172643 -1.9298212e-22)
(2.7285888 0.008752803 -2.6944736e-21)
(2.7173211 0.015846103 -1.2572494e-22)
(2.7086034 0.019756273 1.7935228e-21)
(2.6973868 0.020974491 -3.0850178e-22)
(2.6896892 0.020429197 -1.7141385e-21)
(2.680678 0.017357114 -2.1747567e-21)
(2.673952 0.013097606 -2.2925871e-22)
(2.6665752 0.0067928381 -1.1867773e-21)
(2.5763264 -0.067993378 -1.2092759e-21)
(2.5870633 -0.09821849 -1.4147573e-21)
(2.6014498 -0.12162618 2.2661589e-21)
(2.6268986 -0.13244703 2.4280589e-21)
(2.6481612 -0.13814056 2.233013e-22)
(2.6775542 -0.13813326 -2.2726425e-21)
(2.7005286 -0.13501596 -2.9728441e-21)
(2.7256239 -0.12112046 -7.6551701e-22)
(2.7435802 -0.10792086 6.6758543e-21)
(2.7577879 -0.085366035 4.380604e-21)
(2.7666903 -0.066996654 -5.0088522e-22)
(2.767961 -0.04298571 1.1968212e-22)
(2.7672112 -0.024935709 8.9208822e-22)
(2.758425 -0.0058895288 2.6181674e-21)
(2.7507141 0.0072780582 -1.169613e-21)
(2.7370159 0.018478567 -2.8978098e-21)
(2.7264432 0.025588379 -4.6494739e-22)
(2.7123718 0.029379903 3.8008533e-21)
(2.7017189 0.030806021 1.8302235e-21)
(2.6894166 0.029071881 -8.9345422e-22)
(2.680789 0.026451109 -1.3187892e-21)
(2.6714337 0.021349537 -6.4085752e-21)
(2.6643352 0.015424913 -7.4027523e-21)
(2.6569612 0.0075938066 -9.6552065e-22)
(2.5609561 -0.065886253 7.6476256e-22)
(2.566616 -0.10246732 1.2577315e-21)
(2.5788233 -0.13169238 1.0808666e-21)
(2.6064472 -0.14913598 1.1196756e-21)
(2.6297638 -0.15994428 1.2310756e-21)
(2.6646746 -0.16542333 4.1128186e-21)
(2.6927073 -0.16600025 1.7985744e-21)
(2.7258444 -0.15380358 -3.8432163e-21)
(2.7501917 -0.14100751 -1.7678551e-21)
(2.7720318 -0.11575946 7.9648402e-22)
(2.7865573 -0.094412339 -1.4606886e-21)
(2.7924191 -0.064308558 5.8113878e-21)
(2.7946793 -0.041174537 6.542872e-21)
(2.7864694 -0.015331829 -6.232053e-21)
(2.7787244 0.0031433403 -4.6940415e-21)
(2.7627403 0.019833408 1.5098398e-21)
(2.7499456 0.030889702 -9.1715506e-23)
(2.7322346 0.037855394 -1.6360683e-21)
(2.7188832 0.041909258 2.3926416e-21)
(2.703268 0.041873377 -2.1904792e-21)
(2.6915189 0.040513885 -4.8291723e-21)
(2.679015 0.035904254 1.0041073e-21)
(2.6700328 0.031294582 -3.7898675e-21)
(2.6608605 0.024442642 -5.0128402e-21)
(2.6537547 0.017136287 1.1246077e-21)
(2.646684 0.0081470974 6.9699594e-21)
(2.545323 -0.060548561 -1.6218908e-21)
(2.5439045 -0.10349675 6.6179465e-22)
(2.5523915 -0.13878582 1.1129546e-21)
(2.5812082 -0.16412721 -7.9637019e-22)
(2.605761 -0.18128027 -8.0983135e-22)
(2.6459757 -0.19417596 -8.3832791e-22)
(2.6791461 -0.20007034 1.8634209e-21)
(2.7214621 -0.19147228 5.9128102e-21)
(2.7532823 -0.18042527 6.1565449e-22)
(2.7849727 -0.15341218 1.6021243e-21)
(2.806881 -0.12961449 4.0799166e-21)
(2.8195839 -0.092945356 -7.7391994e-22)
(2.8266399 -0.064016407 6.0944916e-21)
(2.8202497 -0.02968294 8.0489367e-21)
(2.8133553 -0.0045041331 -4.08974e-21)
(2.7949509 0.019093964 -5.0017151e-21)
(2.7801558 0.035504352 8.767446e-22)
(2.7583332 0.046828964 5.5059461e-21)
(2.7415434 0.054035014 4.1192965e-21)
(2.7216211 0.055821656 2.6445323e-21)
(2.7067039 0.056217857 -1.6979412e-21)
(2.6908579 0.052357306 -8.0975447e-21)
(2.6788755 0.048255101 -2.6115332e-21)
(2.6669367 0.041134205 -8.8535017e-22)
(2.6581148 0.034794221 -2.0045319e-21)
(2.6495378 0.026571605 2.9871994e-21)
(2.6427181 0.018219752 8.556208e-21)
(2.6361691 0.0084549629 4.3548665e-21)
(2.5300899 -0.05164137 1.439231e-21)
(2.5192961 -0.10071141 -2.4008397e-21)
(2.5223128 -0.14204921 -2.1052474e-22)
(2.5510505 -0.17646021 2.4301641e-21)
(2.5757261 -0.2011497 6.3825326e-22)
(2.6205667 -0.22346206 4.0207499e-21)
(2.6586267 -0.23650972 4.0519941e-21)
(2.7109282 -0.23385226 1.5882433e-20)
(2.7511855 -0.22636153 1.9914152e-20)
(2.7951525 -0.19918434 1.4448819e-20)
(2.8263947 -0.1738545 1.5575126e-20)
(2.8488784 -0.13041063 -6.6391679e-21)
(2.863017 -0.095259471 -1.1472552e-20)
(2.8602788 -0.050566238 8.2840661e-21)
(2.8556278 -0.017092665 1.012443e-20)
(2.8351287 0.015718385 -7.3531889e-21)
(2.8182857 0.039016337 -8.2633918e-21)
(2.7914363 0.056072523 4.0954344e-21)
(2.7707506 0.067647037 8.5299484e-21)
(2.7456117 0.071996676 8.2579011e-21)
(2.7265625 0.074285572 6.9169996e-21)
(2.706363 0.070795057 3.4028014e-21)
(2.6911657 0.067487755 -2.6162075e-21)
(2.6762175 0.060262024 4.4440728e-21)
(2.6647507 0.053743891 6.1668369e-21)
(2.6539448 0.044650012 1.5234303e-21)
(2.6456846 0.036945591 6.2991375e-21)
(2.6379812 0.027769381 5.6007135e-21)
(2.6316602 0.01871931 1.575217e-21)
(2.6257731 0.0085401059 -5.2583073e-21)
(2.5159459 -0.038900159 9.601132e-21)
(2.4935916 -0.093696074 2.7628599e-21)
(2.4890799 -0.14084199 -8.2523856e-22)
(2.5163761 -0.18537593 -9.6856953e-22)
(2.5398193 -0.21870079 1.5241184e-21)
(2.588215 -0.25245698 2.7825491e-21)
(2.630448 -0.27451723 6.0110565e-21)
(2.6930139 -0.28054194 4.5819725e-21)
(2.742372 -0.27882772 1.580499e-20)
(2.8009359 -0.25366533 1.8864172e-20)
(2.8435141 -0.22834185 1.3671614e-20)
(2.8793189 -0.17853439 3.3933135e-20)
(2.903478 -0.1370041 1.3124722e-20)
(2.9070083 -0.079817125 6.5759054e-21)
(2.9065893 -0.036267751 2.5560429e-20)
(2.8844646 0.0085767874 9.5991679e-21)
(2.8659903 0.040961802 -6.9814591e-21)
(2.8331811 0.065864882 -7.8547875e-21)
(2.8077393 0.083170931 3.8706633e-21)
(2.7759409 0.090760196 8.1566986e-21)
(2.7518563 0.095700208 7.8935116e-21)
(2.7262799 0.092790518 -3.8589293e-22)
(2.7068764 0.089984511 -3.8403838e-21)
(2.6880529 0.081861194 -5.927159e-21)
(2.6736815 0.075268078 6.9066734e-22)
(2.6604374 0.065417479 1.2032609e-20)
(2.6500399 0.05698734 7.6937916e-21)
(2.6407162 0.046521902 3.0537847e-21)
(2.6332882 0.037860686 2.3460089e-21)
(2.6266113 0.028134614 4.2412033e-21)
(2.6209249 0.018714257 -2.2047339e-21)
(2.6157711 0.0084369057 -4.6471295e-21)
(2.5027218 -0.022284428 -5.5413985e-21)
(2.4675901 -0.082097053 7.7002846e-21)
(2.4535087 -0.13465474 1.1600398e-21)
(2.4778839 -0.19030627 -1.4900993e-20)
(2.4987149 -0.2332744 -1.5227633e-20)
(2.5493545 -0.28026382 -2.4776978e-22)
(2.5946444 -0.31329328 9.2093899e-22)
(2.6672509 -0.33115952 -1.4112141e-20)
(2.725921 -0.3378404 -1.5709487e-20)
(2.801277 -0.31775924 -2.8703852e-20)
(2.8569102 -0.29448053 -2.6415592e-20)
(2.9101832 -0.2393581 -6.8894272e-21)
(2.9478143 -0.1918599 1.203665e-20)
(2.9609853 -0.11991944 1.8669039e-20)
(2.9676962 -0.064230225 1.240715e-20)
(2.9446694 -0.003596285 1.9929782e-20)
(2.9252339 0.040562636 4.8137669e-21)
(2.8852634 0.076040773 7.3181187e-21)
(2.8541925 0.10117559 6.6717101e-21)
(2.8139804 0.11324931 7.2085493e-21)
(2.783437 0.12159062 1.1319805e-20)
(2.7509484 0.1191156 -6.7299408e-21)
(2.7263142 0.11702194 -1.4786099e-20)
(2.7027449 0.10777193 -3.5912535e-23)
(2.6846166 0.10044793 -1.9798415e-21)
(2.6683078 0.088779528 -9.50944e-21)
(2.6555501 0.079605827 1.0791143e-21)
(2.6444674 0.06796838 1.0415819e-21)
(2.6354796 0.058198405 -3.4519434e-21)
(2.627792 0.046941267 -1.5195363e-21)
(2.6213448 0.037719838 2.2464891e-22)
(2.6157449 0.02780166 8.5029564e-22)
(2.6107624 0.018298652 -1.4208883e-21)
(2.606359 0.0081834077 1.7266607e-21)
(2.4904846 -0.0020820616 -3.5047017e-20)
(2.4412436 -0.065888344 -7.8453967e-21)
(2.4162973 -0.1231607 4.6038707e-21)
(2.4364478 -0.1907342 1.131279e-20)
(2.4532598 -0.2442794 -3.823306e-21)
(2.5044796 -0.30586002 -1.4352351e-20)
(2.5514544 -0.35150203 -1.40578e-22)
(2.6326282 -0.38442642 5.7620665e-22)
(2.7004298 -0.40257387 -1.3648274e-20)
(2.7942485 -0.3913534 -3.7179446e-20)
(2.8643971 -0.37325493 -4.9796909e-20)
(2.9404163 -0.31545484 -1.1440248e-19)
(2.9953556 -0.26308219 -9.6949419e-20)
(3.0235434 -0.17440883 -5.6369192e-20)
(3.0412665 -0.10430532 -5.1154042e-20)
(3.0186356 -0.02284354 -1.8007583e-20)
(2.9992005 0.036638359 -1.1206898e-20)
(2.9501346 0.086652755 1.6017677e-20)
(2.9123198 0.12230203 1.8553133e-20)
(2.8611845 0.14038227 -3.5864783e-22)
(2.8224375 0.15341377 5.1961551e-23)
(2.781121 0.15149958 1.419825e-20)
(2.7497211 0.15009218 -2.8793343e-21)
(2.7201527 0.13890475 -1.3987143e-20)
(2.6973944 0.13060305 1.298062e-23)
(2.6774461 0.11662987 3.1098445e-21)
(2.6617092 0.10582092 -3.9744687e-21)
(2.6485032 0.091828564 -2.3678575e-21)
(2.6378055 0.08088405 -2.4516136e-21)
(2.6290412 0.068258416 -5.0755648e-21)
(2.6216136 0.057704569 -3.2566673e-21)
(2.6155643 0.046161886 -1.1103319e-21)
(2.6101475 0.036731993 -5.3375016e-22)
(2.6056002 0.026916677 -2.0103419e-21)
(2.601338 0.017567935 9.663272e-22)
(2.5976622 0.0078169533 3.3830581e-21)
(2.4799534 0.021397659 -6.5022115e-22)
(2.415421 -0.045396246 -2.0529547e-20)
(2.3780337 -0.10640778 5.4131351e-21)
(2.392736 -0.18629945 1.4448926e-20)
(2.4043904 -0.25114579 2.0893859e-20)
(2.4541357 -0.32799588 -2.7761884e-21)
(2.5010879 -0.38753432 -1.2771301e-20)
(2.5884435 -0.43789579 4.8534168e-21)
(2.6639639 -0.47048884 5.6325051e-21)
(2.7751085 -0.47271609 5.0003072e-21)
(2.8605915 -0.46303187 -1.7051707e-20)
(2.963819 -0.4065438 -1.2954569e-20)
(3.0404594 -0.35217759 -7.354904e-20)
(3.0920365 -0.24665551 -7.8001393e-20)
(3.1268436 -0.16044475 -3.9256504e-20)
(3.1098242 -0.052653537 -9.9428331e-21)
(3.0918449 0.027153152 2.2066713e-20)
(3.0322236 0.097099579 -1.7695054e-20)
(2.9859373 0.1471429 8.0653387e-21)
(2.9198692 0.17361439 2.8594237e-20)
(2.8704319 0.19297541 1.089453e-20)
(2.8174786 0.19159139 -9.6336161e-21)
(2.7773739 0.19106524 3.5737881e-21)
(2.7402934 0.17717435 1.735465e-21)
(2.7116513 0.1672215 -8.6610803e-21)
(2.6872772 0.14976813 2.740881e-21)
(2.6679813 0.13680264 5.7163713e-21)
(2.6523973 0.11989286 -4.2211733e-21)
(2.639626 0.10677793 -2.6856118e-21)
(2.6296567 0.0915962 2.714211e-21)
(2.6211728 0.079657355 3.0287453e-22)
(2.6146632 0.06672413 -1.6038975e-21)
(2.6087998 0.055873552 4.5487759e-22)
(2.6042874 0.04445402 -8.145284e-22)
(2.599878 0.035105747 -2.2188668e-21)
(2.5963091 0.025621116 -1.1953727e-21)
(2.5927454 0.016610661 1.0661209e-21)
(2.589748 0.0073715455 8.7197165e-22)
(2.4709228 0.047858317 3.5210661e-20)
(2.3905744 -0.020733679 1.6623639e-20)
(2.3390866 -0.084440349 -1.9839457e-21)
(2.347423 -0.1770032 -1.5236309e-20)
(2.352961 -0.25355176 -6.9518867e-21)
(2.3992583 -0.34550991 1.7623151e-20)
(2.444168 -0.41953948 -4.8655728e-21)
(2.5338659 -0.48862932 -1.2730449e-20)
(2.6147675 -0.53793579 4.007672e-21)
(2.7397522 -0.55694419 3.6803554e-20)
(2.8388677 -0.56062783 3.6636492e-20)
(2.9722376 -0.50959733 8.6295774e-20)
(3.073384 -0.45622216 9.1635155e-20)
(3.153154 -0.33587678 9.8298967e-20)
(3.2143536 -0.23358016 9.6477812e-20)
(3.212181 -0.094680381 3.1386977e-20)
(3.2008394 0.01095344 5.9977245e-20)
(3.1343501 0.1063011 -6.0670576e-21)
(3.0785093 0.17618805 -4.4157301e-20)
(2.9943911 0.21414861 -2.1033437e-20)
(2.9303325 0.24251681 -1.8842638e-21)
(2.8613013 0.24174427 1.5784037e-20)
(2.8096403 0.24224127 -3.5641797e-21)
(2.7629031 0.22437587 1.5939761e-21)
(2.7268486 0.21206875 -1.0821349e-22)
(2.697199 0.18993578 -8.8135951e-21)
(2.6735563 0.17377633 2.0478899e-21)
(2.6552783 0.15268983 1.1017378e-20)
(2.6401693 0.1367932 1.6597499e-21)
(2.6290093 0.11855121 -2.0768419e-21)
(2.6193351 0.10423316 3.0442958e-21)
(2.6124221 0.088795306 8.6341801e-22)
(2.6060926 0.076525466 -9.296504e-22)
(2.6016345 0.063815955 -5.3792051e-22)
(2.5972391 0.053062644 -1.7589523e-21)
(2.5941006 0.0420739 1.6041095e-24)
(2.590628 0.033031403 1.0023129e-21)
(2.5879346 0.02404197 -6.0258242e-22)
(2.5850221 0.015504041 -8.1015098e-22)
(2.582638 0.0068764419 -9.9346697e-22)
(2.4614572 0.076913095 1.4530628e-20)
(2.3661763 0.0079784151 9.341486e-21)
(2.2994395 -0.05734818 -8.6268683e-21)
(2.3009095 -0.16289021 1.4744732e-21)
(2.2997405 -0.25144452 -1.1080289e-20)
(2.340989 -0.35768019 -2.0353319e-20)
(2.3820075 -0.44606436 2.7515562e-21)
(2.4698852 -0.53379077 2.3378642e-21)
(2.5524604 -0.60096765 -5.0189985e-21)
(2.6850675 -0.63863731 1.1879595e-21)
(2.794352 -0.65842603 3.2420076e-20)
(2.9509962 -0.61772023 9.1894881e-20)
(3.0782193 -0.57121916 1.3976585e-19)
(3.1960322 -0.43640848 5.7122932e-20)
(3.2907988 -0.3219011 6.2958562e-20)
(3.3082944 -0.14654407 -8.8568002e-20)
(3.3128761 -0.010013971 -1.5307695e-19)
(3.2460579 0.11637257 8.0482565e-20)
(3.1844821 0.21116876 1.8137566e-20)
(3.0856122 0.26434639 -2.9059082e-20)
(3.0037861 0.30505223 -6.9154381e-21)
(2.9152698 0.30461885 -3.328789e-20)
(2.8475522 0.30662191 -1.6859542e-20)
(2.7878143 0.28294831 -7.2010326e-21)
(2.7421813 0.26719965 -2.3600487e-21)
(2.7061948 0.23857879 9.4499981e-21)
(2.6773478 0.21807337 1.37388e-21)
(2.6561558 0.19158166 1.7951098e-21)
(2.6383863 0.1717745 1.0251611e-20)
(2.6260916 0.14931746 4.1733436e-21)
(2.6152273 0.13205515 6.5612026e-22)
(2.6081131 0.1137429 1.261359e-21)
(2.6013637 0.099131484 -8.2508319e-22)
(2.597145 0.084134412 -2.11137e-21)
(2.5927764 0.072051999 -1.7593641e-21)
(2.5900938 0.059948826 -6.551019e-22)
(2.5870113 0.049589586 1.0281376e-21)
(2.5850548 0.039246764 2.0662588e-21)
(2.5824209 0.030672065 5.590973e-22)
(2.5804874 0.02228722 3.6464712e-22)
(2.5781638 0.014312285 2.0737681e-22)
(2.5763204 0.0063557325 -5.9375714e-23)
(2.4470674 0.10789452 -9.461263e-23)
(2.3405961 0.039964979 1.5700044e-21)
(2.2588115 -0.025503667 -3.5241977e-21)
(2.25348 -0.14427209 9.3552915e-21)
(2.2454375 -0.24512909 1.9134633e-20)
(2.2806596 -0.36436618 -3.09455e-21)
(2.3164172 -0.46630142 -1.1799454e-20)
(2.3985624 -0.57106605 -9.1231466e-21)
(2.4787736 -0.65598958 -9.6790422e-21)
(2.6110065 -0.71266476 -5.912955e-20)
(2.7245618 -0.75048613 -5.3596358e-20)
(2.8977139 -0.72275592 -1.2178107e-19)
(3.0440709 -0.68538473 -6.7538162e-20)
(3.1886156 -0.54368065 7.9443584e-20)
(3.3272837 -0.4177052 1.0641247e-21)
(3.3760388 -0.20370229 -4.8925913e-21)
(3.4011278 -0.034204577 -1.4954085e-19)
(3.3501103 0.13011086 -5.0458306e-20)
(3.2889084 0.2555944 1.7239125e-19)
(3.1797811 0.32862607 8.3936111e-20)
(3.083067 0.3843813 4.0101392e-20)
(2.9781917 0.38489178 -3.0006458e-21)
(2.89071 0.38830808 -2.7958605e-20)
(2.8154654 0.35584389 -3.7272288e-21)
(2.7569024 0.33517783 5.4797037e-21)
(2.7129595 0.29756799 -6.4014476e-21)
(2.677844 0.27107594 4.7434334e-21)
(2.6536133 0.23742586 2.6669472e-21)
(2.6329521 0.21250952 3.0933469e-21)
(2.6197577 0.18482095 1.5774509e-21)
(2.6077461 0.16357882 -4.3098877e-21)
(2.6007293 0.14143586 -2.4392454e-21)
(2.5937448 0.12404239 -1.9086664e-21)
(2.5900751 0.10655011 -1.6123212e-22)
(2.585904 0.092325477 -1.3719567e-21)
(2.5839399 0.078243302 -1.1134816e-21)
(2.581269 0.066722039 -5.7891499e-23)
(2.580062 0.055477329 -1.4530081e-21)
(2.5781099 0.045719853 -5.0325836e-22)
(2.5771376 0.036159939 -3.0268969e-24)
(2.5752323 0.028161019 -1.9610729e-22)
(2.5739412 0.020444853 7.2573823e-22)
(2.572137 0.01308677 4.8019669e-22)
(2.57076 0.0058285224 7.269588e-24)
(2.41924 0.1399564 -5.1123743e-21)
(2.3090757 0.074712675 6.0079095e-21)
(2.2153913 0.010322765 7.6683408e-21)
(2.2050159 -0.12187829 -4.7767619e-22)
(2.1904996 -0.23518168 1.177069e-20)
(2.2194867 -0.36577741 1.9518349e-20)
(2.2492947 -0.48003069 -1.5636976e-21)
(2.3223587 -0.59937148 -4.1368131e-21)
(2.3963758 -0.70033792 -1.4939336e-21)
(2.5201628 -0.77397578 1.9279379e-20)
(2.6303342 -0.82979402 -2.69843e-20)
(2.8069002 -0.81654752 -1.3809061e-19)
(2.9661704 -0.7923416 -2.0403698e-19)
(3.1358115 -0.64698701 -4.0254174e-19)
(3.3051486 -0.51318771 -2.6708161e-19)
(3.380546 -0.26663476 3.4864738e-19)
(3.4374955 -0.061328787 3.478904e-19)
(3.4261951 0.14950746 2.6908328e-20)
(3.3799121 0.31299651 1.2318898e-19)
(3.2583577 0.40793971 1.4592814e-19)
(3.1508686 0.48383268 6.1660717e-20)
(3.0356482 0.48659944 4.215735e-20)
(2.9304883 0.49142594 7.319389e-22)
(2.8433362 0.4477623 -1.508408e-20)
(2.7691812 0.4193465 7.950726e-21)
(2.7162431 0.36898659 1.9144584e-20)
(2.6732671 0.33426124 8.1331809e-21)
(2.6458407 0.29127408 -1.5145832e-20)
(2.6221539 0.25963382 -1.7363707e-20)
(2.6085149 0.22531289 -1.8529246e-20)
(2.5955738 0.19908618 -2.0271897e-20)
(2.5891515 0.17240511 -1.045525e-20)
(2.5822122 0.15138015 -8.7673861e-21)
(2.5795137 0.13065887 -2.9475481e-21)
(2.5758306 0.11400636 -1.3046447e-21)
(2.5749351 0.097894621 2.2551545e-21)
(2.5729219 0.084519979 2.5494428e-21)
(2.5727641 0.071641008 1.4866383e-21)
(2.5715051 0.060927547 1.850698e-22)
(2.5714813 0.050688025 -1.8041322e-21)
(2.5704714 0.041664786 -1.3486348e-21)
(2.5702946 0.03296254 -1.1079104e-21)
(2.5690058 0.025602982 -2.4642025e-22)
(2.568245 0.018583971 -1.4607373e-22)
(2.5668891 0.011867182 -6.0329001e-22)
(2.5659064 0.005309407 -3.9881706e-22)
(2.3735133 0.17176032 -5.4589424e-21)
(2.2637937 0.11048445 -3.816904e-21)
(2.1655206 0.048588857 6.7525252e-21)
(2.1542155 -0.096553514 6.326726e-21)
(2.1351215 -0.22242438 -1.435778e-21)
(2.158458 -0.36256042 3.9692304e-21)
(2.1824218 -0.48756832 1.11915e-20)
(2.2438671 -0.61744635 2.176242e-21)
(2.3083618 -0.73238952 -2.1155571e-22)
(2.4162845 -0.81885002 -8.6041689e-21)
(2.5158209 -0.89027061 1.0814776e-20)
(2.6798868 -0.89055571 1.1509114e-19)
(2.8412563 -0.88088405 1.1730482e-20)
(3.0177441 -0.73330675 3.8497057e-20)
(3.2142313 -0.59887603 -1.4633579e-19)
(3.3201724 -0.31640413 -1.9624288e-19)
(3.4092195 -0.086510028 3.8867597e-19)
(3.4306001 0.17916065 4.0528287e-19)
(3.4225872 0.38427707 1.0159811e-19)
(3.3041746 0.5086195 2.3074318e-20)
(3.1847198 0.60684305 4.3352484e-20)
(3.0675428 0.60980638 4.0572342e-20)
(2.9491897 0.6184334 2.1715407e-20)
(2.85787 0.56120628 2.6324472e-20)
(2.7711157 0.52248116 1.1350057e-20)
(2.7131792 0.45592265 -1.4724033e-20)
(2.6613041 0.40936364 -4.3666819e-21)
(2.6308184 0.35393804 5.0096117e-21)
(2.603957 0.31355239 -1.7115938e-20)
(2.590571 0.27109307 -8.4464613e-21)
(2.5771374 0.23858824 -9.4215285e-21)
(2.5720304 0.2064017 -1.1289183e-20)
(2.5656114 0.1810322 -1.8473548e-21)
(2.5644834 0.15668442 -6.3647738e-21)
(2.5616902 0.136965 -8.1039538e-22)
(2.5623195 0.11829463 -2.432882e-22)
(2.5612954 0.10293338 3.1522269e-21)
(2.56253 0.088503496 2.1722668e-21)
(2.5622468 0.076261132 1.1588162e-21)
(2.5634792 0.064731304 2.0699324e-21)
(2.5633537 0.054969764 2.0685082e-22)
(2.564246 0.045802264 -5.8529371e-22)
(2.5639987 0.037585897 -3.4621865e-22)
(2.5644454 0.029768778 -3.5017992e-22)
(2.5636661 0.023077292 -2.5646534e-22)
(2.5633326 0.016756973 -1.9824093e-22)
(2.5623562 0.010683072 1.4279305e-24)
(2.5617003 0.0048090004 -6.0594995e-23)
(2.3150765 0.20225403 -6.3452779e-22)
(2.2062121 0.14455385 -1.1268377e-21)
(2.1080895 0.086404687 4.8594023e-22)
(2.1001312 -0.069856355 4.62635e-22)
(2.0803864 -0.20811595 -2.3669464e-23)
(2.0984066 -0.3557505 -4.1075851e-21)
(2.1175335 -0.48974896 9.7930251e-22)
(2.1658326 -0.62676659 8.5721538e-21)
(2.2181887 -0.75179886 -1.0657571e-23)
(2.3046077 -0.84517849 7.2916132e-21)
(2.3880264 -0.92904823 -7.2777358e-22)
(2.5257645 -0.94069216 2.2839787e-20)
(2.6759393 -0.94395845 1.2198883e-19)
(2.8405959 -0.79268459 3.490342e-19)
(3.0457162 -0.65697243 3.7915104e-19)
(3.1518066 -0.33688521 3.5815659e-19)
(3.2792607 -0.072897819 3.1794241e-19)
(3.2939085 0.23040215 -2.0571694e-19)
(3.319183 0.47515433 -1.9837528e-19)
(3.2639464 0.63999773 7.328294e-20)
(3.1467089 0.75906651 -1.4751012e-21)
(3.051426 0.76179873 -4.1558842e-20)
(2.9260794 0.77006441 -4.415749e-20)
(2.8403852 0.69496887 2.1405616e-20)
(2.7479681 0.64419195 2.5215318e-20)
(2.6934407 0.55910569 2.0390956e-20)
(2.6364142 0.49733588 -4.2133242e-21)
(2.6060306 0.42659068 6.5488783e-21)
(2.5761532 0.37450065 1.5598204e-20)
(2.5638974 0.32192568 2.0616492e-20)
(2.5506555 0.28172207 2.9366942e-20)
(2.5478774 0.24317435 1.8493037e-20)
(2.5426761 0.21257293 1.7118838e-20)
(2.5438954 0.18402879 8.2328868e-21)
(2.5425677 0.16082422 4.0898759e-21)
(2.5453125 0.13945778 3.7497692e-22)
(2.5457137 0.12166453 9.3489461e-22)
(2.548773 0.10532217 -1.4550409e-21)
(2.549792 0.091549473 -2.4494477e-21)
(2.5525881 0.07891627 1.0837793e-21)
(2.5536383 0.067950024 1.9395409e-21)
(2.5558972 0.05781345 3.7758624e-22)
(2.5566509 0.049070277 -3.7462472e-22)
(2.5582258 0.040984187 -5.0146695e-22)
(2.5585774 0.033601934 -5.0741368e-22)
(2.5594963 0.026662904 3.3635199e-22)
(2.5591285 0.020641826 3.9995084e-22)
(2.5591306 0.015002085 -7.8911859e-23)
(2.558469 0.0095554463 -1.394778e-22)
(2.5580786 0.0043344452 4.8172958e-23)
(2.2506921 0.23103719 8.9719344e-22)
(2.1425282 0.17622917 1.1987967e-22)
(2.0457596 0.12154959 -3.4919063e-22)
(2.0435455 -0.044663635 -2.8085441e-21)
(2.0272038 -0.19390879 -2.8266698e-21)
(2.0408823 -0.34673735 -1.2279699e-20)
(2.0559632 -0.48783718 -1.6318349e-20)
(2.0910237 -0.62810479 1.2149355e-20)
(2.1295255 -0.75941978 1.954515e-20)
(2.1911971 -0.85594866 1.2167035e-20)
(2.2551855 -0.94681593 1.9260048e-20)
(2.3581765 -0.96673285 9.9988431e-21)
(2.4838948 -0.97901036 3.2538625e-20)
(2.621398 -0.82254761 -1.9124718e-20)
(2.8147109 -0.68307985 1.9419384e-19)
(2.905663 -0.33075886 2.2005269e-19)
(3.0425437 -0.030194365 1.9789464e-19)
(3.0596565 0.30932287 -5.0081242e-20)
(3.0809482 0.59382037 -5.5193788e-19)
(3.060626 0.78319683 -1.126223e-19)
(2.9963759 0.93635469 1.4665318e-19)
(2.9488954 0.94047718 -6.5401966e-20)
(2.837391 0.94214185 -1.0235415e-19)
(2.7755253 0.84941999 -6.5664977e-20)
(2.6862366 0.78107988 -4.0097077e-21)
(2.6424133 0.67468398 -3.6508021e-21)
(2.5882059 0.59554286 -8.6380822e-21)
(2.5653514 0.5087058 -4.9245571e-22)
(2.5355307 0.44214362 9.7690053e-21)
(2.5264678 0.37750048 2.5974874e-20)
(2.5143018 0.3277246 3.08714e-20)
(2.5150941 0.28184823 2.8247766e-20)
(2.5121002 0.2451966 1.7949028e-20)
(2.5166644 0.21210804 1.0541989e-20)
(2.5175548 0.18490674 1.9991916e-21)
(2.5231246 0.16058401 6.6920429e-21)
(2.5255194 0.14018883 3.2047626e-21)
(2.5309212 0.1219895 -6.6687028e-22)
(2.5336564 0.10639887 -2.9565434e-21)
(2.5383929 0.092426335 3.7910085e-23)
(2.540912 0.080357669 3.4117637e-21)
(2.5447944 0.069512101 1.1990124e-21)
(2.5468312 0.059866908 -2.9606256e-22)
(2.5498107 0.051099264 -1.8278387e-22)
(2.5512214 0.043385143 -2.9705358e-22)
(2.5532808 0.036350559 -5.726392e-22)
(2.5540874 0.029796601 2.2451798e-22)
(2.5553487 0.023704444 -3.8360261e-22)
(2.5553048 0.018336896 -8.4785417e-22)
(2.5555625 0.013345876 4.2511525e-22)
(2.5551572 0.0084982734 6.1133789e-22)
(2.5549778 0.0038900238 1.0278054e-23)
(2.1857947 0.25789075 -6.3418119e-21)
(2.0770765 0.20530252 -3.317153e-22)
(1.9818735 0.15332323 -1.0850442e-21)
(1.9852502 -0.022200862 -9.7903462e-21)
(1.9747283 -0.18112143 -1.2225161e-20)
(1.9865119 -0.33688679 -4.0023359e-21)
(1.9986297 -0.48303352 -1.29789e-20)
(2.0214562 -0.62276205 -4.5927436e-21)
(2.0460335 -0.75687614 2.2597749e-20)
(2.081642 -0.85296966 9.3160583e-21)
(2.1245455 -0.94619644 2.178145e-21)
(2.1890501 -0.96584302 7.3600157e-20)
(2.2815073 -0.98606314 6.5618956e-20)
(2.3789738 -0.82520996 -2.1615915e-21)
(2.544674 -0.67763301 -5.1277242e-20)
(2.6083211 -0.30052387 -3.6338469e-19)
(2.7412118 0.033349017 -3.4674157e-19)
(2.7579451 0.40431523 2.7429952e-20)
(2.7819016 0.72450005 -2.1016938e-19)
(2.7845836 0.92938243 -3.3074374e-19)
(2.7445715 1.1057576 8.9447425e-20)
(2.7386151 1.1161268 2.3159864e-19)
(2.6673299 1.1200136 3.2099764e-20)
(2.6436582 1.0135733 -3.6962619e-20)
(2.5743611 0.92595266 -1.7344451e-21)
(2.5512094 0.79806655 -1.7896348e-20)
(2.5069336 0.69839806 -1.7753713e-20)
(2.4987375 0.59534322 -3.066815e-20)
(2.4761561 0.51357054 -2.3255133e-20)
(2.4753357 0.43664715 -2.9299198e-20)
(2.4662946 0.37544384 -1.448225e-20)
(2.4721939 0.32127346 -2.3579272e-21)
(2.472635 0.27766659 -5.3211279e-21)
(2.481757 0.23975382 2.3707919e-21)
(2.4858382 0.20821413 -4.8956442e-21)
(2.4950694 0.18094355 -2.1843683e-21)
(2.5001458 0.15772842 2.229174e-21)
(2.5084704 0.13762241 6.3318128e-21)
(2.513421 0.12022868 2.6915651e-21)
(2.5205147 0.10509998 -4.4396071e-21)
(2.5248642 0.091758648 -1.6143773e-21)
(2.5306788 0.080055429 2.5263536e-21)
(2.5342445 0.069685612 4.0689705e-22)
(2.5388307 0.060542938 -7.9584849e-22)
(2.5415629 0.052197392 -6.9230442e-22)
(2.5450132 0.04473132 -2.4730663e-23)
(2.5468924 0.038018819 -2.8444044e-22)
(2.5492722 0.031980361 1.4896109e-21)
(2.5504103 0.026225772 9.3212385e-22)
(2.5519047 0.020933128 -1.117211e-21)
(2.5521085 0.016188792 8.6433062e-23)
(2.5525533 0.01180554 1.1377006e-21)
(2.5523521 0.0075199532 5.7507417e-22)
(2.5523361 0.0034781714 -9.4085091e-23)
(2.1252346 0.28271701 -6.3144807e-21)
(2.0152206 0.23163328 -6.4045249e-21)
(1.9204523 0.18163901 -7.0929292e-22)
(1.9271782 -0.002643654 1.8372387e-20)
(1.9226341 -0.17060347 1.0372762e-20)
(1.9350654 -0.3274651 -1.1603847e-20)