/*--------------------------------*- C++ -*----------------------------------*\
| =========                 |                                                 |
| \\      /  F ield         | OpenFOAM: The Open Source CFD Toolbox           |
|  \\    /   O peration     | Version:  v2012                                 |
|   \\  /    A nd           | Website:  www.openfoam.com                      |
|    \\/     M anipulation  |                                                 |
\*---------------------------------------------------------------------------*/
FoamFile
{
    version     2.0;
    format      ascii;
    class       volVectorField;
    location    "37.4809418257685962";
    object      cellDisplacement;
}
// * * * * * * * * * * * * * * * * * * * * * * * * * * * * * * * * * * * * * //

dimensions      [0 1 0 0 0 0 0];


internalField   nonuniform List<vector> 
9200
(
(-0.050016694 0 0)
(-0.050214145 0 0)
(-0.1449975 0 0)
(-0.05052337 0 0)
(-0.14550251 0 0)
(-0.23317157 0 0)
(-0.050883891 0 0)
(-0.14629172 0 0)
(-0.23389818 0 0)
(-0.31486117 0 0)
(-0.05127296 0 0)
(-0.1472633 0 0)
(-0.23513566 0 0)
(-0.31584253 0 0)
(-0.39051234 0 0)
(-0.051670721 0 0)
(-0.14831793 0 0)
(-0.23663045 0 0)
(-0.3174328 0 0)
(-0.39166467 0 0)
(-0.46049101 0 0)
(-0.052062397 0 0)
(-0.14940148 0 0)
(-0.23826738 0 0)
(-0.319406 0 0)
(-0.39362135 0 0)
(-0.46185487 0 0)
(-0.52520671 0 0)
(-0.052439053 0 0)
(-0.15047426 0 0)
(-0.23995489 0 0)
(-0.32157913 0 0)
(-0.39605427 0 0)
(-0.46413458 0 0)
(-0.52673292 0 0)
(-0.58500398 0 0)
(-0.0527932 0 0)
(-0.15150608 0 0)
(-0.24162798 0 0)
(-0.3238222 0 0)
(-0.39872703 0 0)
(-0.46698576 0 0)
(-0.52934402 0 0)
(-0.58672927 0 0)
(-0.64023932 0 0)
(-0.053121803 0 0)
(-0.15247992 0 0)
(-0.24324134 0 0)
(-0.32604694 0 0)
(-0.40149303 0 0)
(-0.47014859 0 0)
(-0.53262127 0 0)
(-0.58964131 0 0)
(-0.64212633 0 0)
(-0.69122346 0 0)
(-0.053422196 0 0)
(-0.1533825 0 0)
(-0.24476391 0 0)
(-0.32819688 0 0)
(-0.40424517 0 0)
(-0.4734275 0 0)
(-0.53626618 0 0)
(-0.59333302 0 0)
(-0.64536647 0 0)
(-0.69330505 0 0)
(-0.73825292 0 0)
(-0.053694615 0 0)
(-0.1542093 0 0)
(-0.24617729 0 0)
(-0.33022544 0 0)
(-0.40690136 0 0)
(-0.47669092 0 0)
(-0.54005039 0 0)
(-0.59745324 0 0)
(-0.64947373 0 0)
(-0.69684782 0 0)
(-0.74050387 0 0)
(-0.78160595 0 0)
(-0.053939149 0 0)
(-0.15495778 0 0)
(-0.24747155 0 0)
(-0.33211233 0 0)
(-0.40941692 0 0)
(-0.47984394 0 0)
(-0.54381665 0 0)
(-0.60174378 0 0)
(-0.65407065 0 0)
(-0.70136356 0 0)
(-0.74437789 0 0)
(-0.78405533 0 0)
(-0.82153531 0 0)
(-0.054157575 0 0)
(-0.15562989 0 0)
(-0.24864341 0 0)
(-0.33383886 0 0)
(-0.41175173 0 0)
(-0.48283096 0 0)
(-0.54746683 0 0)
(-0.60602764 0 0)
(-0.65888676 0 0)
(-0.70645775 0 0)
(-0.74932269 0 0)
(-0.78824389 0 0)
(-0.82416519 0 0)
(-0.85828698 0 0)
(-0.054351351 0 0)
(-0.15622886 0 0)
(-0.24969522 0 0)
(-0.33540467 0 0)
(-0.41389611 0 0)
(-0.48560816 0 0)
(-0.55091953 0 0)
(-0.61017421 0 0)
(-0.66368465 0 0)
(-0.71177583 0 0)
(-0.75489016 0 0)
(-0.79361164 0 0)
(-0.82869978 0 0)
(-0.8611205 0 0)
(-0.89207096 0 0)
(-0.054522709 0 0)
(-0.15675944 0 0)
(-0.250631 0 0)
(-0.33680806 0 0)
(-0.41583615 0 0)
(-0.4881583 0 0)
(-0.55414048 0 0)
(-0.61410376 0 0)
(-0.66834126 0 0)
(-0.71712419 0 0)
(-0.76076608 0 0)
(-0.79969442 0 0)
(-0.83451303 0 0)
(-0.86598569 0 0)
(-0.89509475 0 0)
(-0.92310388 0 0)
(-0.054673765 0 0)
(-0.1572274 0 0)
(-0.25145945 0 0)
(-0.3380587 0 0)
(-0.41758118 0 0)
(-0.49047033 0 0)
(-0.5570932 0 0)
(-0.61776884 0 0)
(-0.67276399 0 0)
(-0.72231144 0 0)
(-0.76665077 0 0)
(-0.80609232 0 0)
(-0.8410935 0 0)
(-0.87224264 0 0)
(-0.90031928 0 0)
(-0.92633699 0 0)
(-0.95156552 0 0)
(-0.05480646 0 0)
(-0.15763824 0 0)
(-0.2521871 0 0)
(-0.33916295 0 0)
(-0.4191319 0 0)
(-0.49254781 0 0)
(-0.5597793 0 0)
(-0.62113645 0 0)
(-0.67688538 0 0)
(-0.72723999 0 0)
(-0.77238998 0 0)
(-0.81255975 0 0)
(-0.84807117 0 0)
(-0.87936223 0 0)
(-0.90704244 0 0)
(-0.93190617 0 0)
(-0.95499746 0 0)
(-0.97764728 0 0)
(-0.054923169 0 0)
(-0.15799825 0 0)
(-0.25282519 0 0)
(-0.34013446 0 0)
(-0.4205057 0 0)
(-0.49439879 0 0)
(-0.56218886 0 0)
(-0.62419788 0 0)
(-0.6806852 0 0)
(-0.73184842 0 0)
(-0.7778549 0 0)
(-0.81887518 0 0)
(-0.85511554 0 0)
(-0.88689598 0 0)
(-0.91468972 0 0)
(-0.93909562 0 0)
(-0.96093747 0 0)
(-0.98129139 0 0)
(-1.0015012 0 0)
(-0.055025339 0 0)
(-0.15831286 0 0)
(-0.25338053 0 0)
(-0.34098288 0 0)
(-0.42171091 0 0)
(-0.49603598 0 0)
(-0.56434225 0 0)
(-0.62695159 0 0)
(-0.6841352 0 0)
(-0.73609216 0 0)
(-0.78296942 0 0)
(-0.82489905 0 0)
(-0.86202232 0 0)
(-0.8945535 0 0)
(-0.92282924 0 0)
(-0.94730258 0 0)
(-0.96860844 0 0)
(-0.98758663 0 0)
(-1.0053484 0 0)
(-1.0232957 0 0)
(-0.055115295 0 0)
(-0.15858754 0 0)
(-0.25386449 0 0)
(-0.34172241 0 0)
(-0.42276658 0 0)
(-0.49747609 0 0)
(-0.56624358 0 0)
(-0.62940857 0 0)
(-0.68724865 0 0)
(-0.73996174 0 0)
(-0.78768784 0 0)
(-0.83054366 0 0)
(-0.86863029 0 0)
(-0.90207484 0 0)
(-0.93109426 0 0)
(-0.95603069 0 0)
(-0.9773681 0 0)
(-0.99573787 0 0)
(-1.01202 0 0)
(-1.0273556 0 0)
(-1.0431627 0 0)
(-0.055193901 0 0)
(-0.15882739 0 0)
(-0.25428313 0 0)
(-0.34236303 0 0)
(-0.42368425 0 0)
(-0.49873501 0 0)
(-0.56792047 0 0)
(-0.63158477 0 0)
(-0.69002295 0 0)
(-0.74344712 0 0)
(-0.7919932 0 0)
(-0.83576371 0 0)
(-0.8748353 0 0)
(-0.90928981 0 0)
(-0.93924805 0 0)
(-0.9649408 0 0)
(-0.98672693 0 0)
(-1.005076 0 0)
(-1.0206633 0 0)
(-1.0343871 0 0)
(-1.0474272 0 0)
(-1.0612512 0 0)
(-0.055263394 0 0)
(-0.15903662 0 0)
(-0.25464672 0 0)
(-0.34291781 0 0)
(-0.42448144 0 0)
(-0.49983247 0 0)
(-0.56938424 0 0)
(-0.63349984 0 0)
(-0.69248741 0 0)
(-0.74656769 0 0)
(-0.79588036 0 0)
(-0.84052932 0 0)
(-0.88058123 0 0)
(-0.91607911 0 0)
(-0.94708772 0 0)
(-0.97374081 0 0)
(-0.99627448 0 0)
(-1.01505 0 0)
(-1.0305724 0 0)
(-1.0435197 0 0)
(-1.0548355 0 0)
(-1.0657255 0 0)
(-1.077675 0 0)
(-0.055324107 0 0)
(-0.15921987 0 0)
(-0.25496051 0 0)
(-0.34339588 0 0)
(-0.42517027 0 0)
(-0.50078405 0 0)
(-0.57066274 0 0)
(-0.63517731 0 0)
(-0.69465315 0 0)
(-0.74933268 0 0)
(-0.79936111 0 0)
(-0.84484327 0 0)
(-0.88583677 0 0)
(-0.92237391 0 0)
(-0.95448411 0 0)
(-0.98222695 0 0)
(-1.0057392 0 0)
(-1.0252712 0 0)
(-1.0411956 0 0)
(-1.0540161 0 0)
(-1.0644624 0 0)
(-1.0734929 0 0)
(-1.0823509 0 0)
(-1.0925647 0 0)
(-0.055378048 0 0)
(-0.15938001 0 0)
(-0.25523299 0 0)
(-0.34380846 0 0)
(-0.42576537 0 0)
(-0.50160831 0 0)
(-0.5717698 0 0)
(-0.63663856 0 0)
(-0.69655492 0 0)
(-0.75177524 0 0)
(-0.80245417 0 0)
(-0.84870737 0 0)
(-0.89060002 0 0)
(-0.92814691 0 0)
(-0.96135694 0 0)
(-0.99025429 0 0)
(-1.0148921 0 0)
(-1.0354157 0 0)
(-1.0520823 0 0)
(-1.0652748 0 0)
(-1.075538 0 0)
(-1.0836083 0 0)
(-1.0904892 0 0)
(-1.0974448 0 0)
(-1.1060203 0 0)
(-0.055425196 0 0)
(-0.1595212 0 0)
(-0.25546872 0 0)
(-0.34416335 0 0)
(-0.4262782 0 0)
(-0.50231956 0 0)
(-0.57273 0 0)
(-0.63790822 0 0)
(-0.69820935 0 0)
(-0.75391314 0 0)
(-0.80518437 0 0)
(-0.85214957 0 0)
(-0.89487633 0 0)
(-0.93338309 0 0)
(-0.96766982 0 0)
(-0.99772929 0 0)
(-1.023568 0 0)
(-1.0452473 0 0)
(-1.0629197 0 0)
(-1.0768558 0 0)
(-1.0874567 0 0)
(-1.0952732 0 0)
(-1.1010941 0 0)
(-1.1059353 0 0)
(-1.1110965 0 0)
(-1.1181572 0 0)
(-0.055467302 0 0)
(-0.15964525 0 0)
(-0.25567421 0 0)
(-0.34446988 0 0)
(-0.42672063 0 0)
(-0.50293407 0 0)
(-0.57355769 0 0)
(-0.63900676 0 0)
(-0.69965051 0 0)
(-0.75578333 0 0)
(-0.8075824 0 0)
(-0.85518861 0 0)
(-0.89868879 0 0)
(-0.93809708 0 0)
(-0.97340636 0 0)
(-1.0046045 0 0)
(-1.0316696 0 0)
(-1.0545969 0 0)
(-1.0734501 0 0)
(-1.0883993 0 0)
(-1.0997207 0 0)
(-1.107836 0 0)
(-1.1133374 0 0)
(-1.1170213 0 0)
(-1.1199468 0 0)
(-1.1234289 0 0)
(-1.1290626 0 0)
(-0.055504286 0 0)
(-0.1597555 0 0)
(-0.25585357 0 0)
(-0.34473464 0 0)
(-0.42710259 0 0)
(-0.50346396 0 0)
(-0.57427264 0 0)
(-0.63995615 0 0)
(-0.70089554 0 0)
(-0.75740606 0 0)
(-0.80967693 0 0)
(-0.85786416 0 0)
(-0.90206364 0 0)
(-0.94230202 0 0)
(-0.97857878 0 0)
(-1.0108696 0 0)
(-1.0391372 0 0)
(-1.0633472 0 0)
(-1.0834885 0 0)
(-1.0996395 0 0)
(-1.1119809 0 0)
(-1.1208069 0 0)
(-1.12656 0 0)
(-1.1298453 0 0)
(-1.1315098 0 0)
(-1.1326198 0 0)
(-1.1345215 0 0)
(-1.1388374 0 0)
(-0.05553744 0 0)
(-0.15985356 0 0)
(-0.25601138 0 0)
(-0.34496489 0 0)
(-0.42743314 0 0)
(-0.50392216 0 0)
(-0.5748886 0 0)
(-0.6407747 0 0)
(-0.70197494 0 0)
(-0.75881627 0 0)
(-0.81150171 0 0)
(-0.86020087 0 0)
(-0.9050348 0 0)
(-0.94603451 0 0)
(-0.98320234 0 0)
(-1.0165228 0 0)
(-1.0459538 0 0)
(-1.0714314 0 0)
(-1.0929018 0 0)
(-1.1103763 0 0)
(-1.1239432 0 0)
(-1.1337902 0 0)
(-1.1402228 0 0)
(-1.143711 0 0)
(-1.1449014 0 0)
(-1.1446484 0 0)
(-1.1440563 0 0)
(-1.1444812 0 0)
(-1.1475586 0 0)
(-0.055565078 0 0)
(-0.1599414 0 0)
(-0.25615121 0 0)
(-0.34516617 0 0)
(-0.4277209 0 0)
(-0.50431912 0 0)
(-0.57542086 0 0)
(-0.64148082 0 0)
(-0.70290421 0 0)
(-0.76003327 0 0)
(-0.81308367 0 0)
(-0.8622406 0 0)
(-0.90763801 0 0)
(-0.94932177 0 0)
(-0.98731082 0 0)
(-1.0215914 0 0)
(-1.0521169 0 0)
(-1.0788204 0 0)
(-1.1016262 0 0)
(-1.1204819 0 0)
(-1.1353994 0 0)
(-1.1464843 0 0)
(-1.1539346 0 0)
(-1.1580812 0 0)
(-1.1594176 0 0)
(-1.1586045 0 0)
(-1.1565429 0 0)
(-1.1543403 0 0)
(-1.1533791 0 0)
(-1.1553149 0 0)
(-0.055358398 0 0)
(-0.16001652 0 0)
(-0.25627708 0 0)
(-0.34534452 0 0)
(-0.42797257 0 0)
(-0.50466473 0 0)
(-0.5758816 0 0)
(-0.64209011 0 0)
(-0.70370826 0 0)
(-0.76108707 0 0)
(-0.81445497 0 0)
(-0.86400845 0 0)
(-0.90990847 0 0)
(-0.95220882 0 0)
(-0.99093726 0 0)
(-1.0260978 0 0)
(-1.0576524 0 0)
(-1.0855245 0 0)
(-1.1096211 0 0)
(-1.1298588 0 0)
(-1.1461962 0 0)
(-1.1586654 0 0)
(-1.1673694 0 0)
(-1.1725235 0 0)
(-1.1744759 0 0)
(-1.1737516 0 0)
(-1.1710478 0 0)
(-1.1672717 0 0)
(-1.1635625 0 0)
(-1.1613077 0 0)
(-1.1621738 0 0)
(-0.055107047 0 0)
(-0.15957781 0 0)
(-0.25638486 0 0)
(-0.3455037 0 0)
(-0.42819604 0 0)
(-0.50496789 0 0)
(-0.57628198 0 0)
(-0.64261724 0 0)
(-0.70440094 0 0)
(-0.76199494 0 0)
(-0.81563904 0 0)
(-0.86554325 0 0)
(-0.91188339 0 0)
(-0.95472708 0 0)
(-0.99412331 0 0)
(-1.0300871 0 0)
(-1.0625854 0 0)
(-1.0915478 0 0)
(-1.1168809 0 0)
(-1.1384788 0 0)
(-1.1562552 0 0)
(-1.1701818 0 0)
(-1.1802908 0 0)
(-1.1867031 0 0)
(-1.1896492 0 0)
(-1.1895077 0 0)
(-1.1868257 0 0)
(-1.1823166 0 0)
(-1.1769277 0 0)
(-1.1717964 0 0)
(-1.1683308 0 0)
(-1.1682125 0 0)
(-0.05487971 0 0)
(-0.15882246 0 0)
(-0.25573316 0 0)
(-0.34564123 0 0)
(-0.42839471 0 0)
(-0.50523495 0 0)
(-0.57663287 0 0)
(-0.64307533 0 0)
(-0.70500218 0 0)
(-0.76278096 0 0)
(-0.81666347 0 0)
(-0.86686754 0 0)
(-0.91359491 0 0)
(-0.95692204 0 0)
(-0.99690907 0 0)
(-1.0335932 0 0)
(-1.0669587 0 0)
(-1.0969364 0 0)
(-1.123428 0 0)
(-1.1463242 0 0)
(-1.1655201 0 0)
(-1.1809297 0 0)
(-1.1925283 0 0)
(-1.2003691 0 0)
(-1.2045764 0 0)
(-1.2054071 0 0)
(-1.2032571 0 0)
(-1.1987043 0 0)
(-1.1924949 0 0)
(-1.1855801 0 0)
(-1.1791215 0 0)
(-1.1745285 0 0)
(-1.1734908 0 0)
(-0.054678545 0 0)
(-0.1581387 0 0)
(-0.25452307 0 0)
(-0.34479856 0 0)
(-0.42856677 0 0)
(-0.50547532 0 0)
(-0.57694142 0 0)
(-0.64347547 0 0)
(-0.70552396 0 0)
(-0.76346037 0 0)
(-0.81754797 0 0)
(-0.86801482 0 0)
(-0.91507798 0 0)
(-0.95882412 0 0)
(-0.99933594 0 0)
(-1.0366668 0 0)
(-1.0708123 0 0)
(-1.1017145 0 0)
(-1.129286 0 0)
(-1.1534137 0 0)
(-1.1739757 0 0)
(-1.1908571 0 0)
(-1.2039845 0 0)
(-1.2133481 0 0)
(-1.2189963 0 0)
(-1.2210806 0 0)
(-1.2198768 0 0)
(-1.215813 0 0)
(-1.209486 0 0)
(-1.2016573 0 0)
(-1.193311 0 0)
(-1.1856028 0 0)
(-1.1799578 0 0)
(-1.1780759 0 0)
(-0.054505518 0 0)
(-0.15753462 0 0)
(-0.25342789 0 0)
(-0.34318449 0 0)
(-0.42756074 0 0)
(-0.50567945 0 0)
(-0.57721921 0 0)
(-0.64382965 0 0)
(-0.70598101 0 0)
(-0.764052 0 0)
(-0.8183153 0 0)
(-0.86900417 0 0)
(-0.91635943 0 0)
(-0.96047478 0 0)
(-1.0014443 0 0)
(-1.0393448 0 0)
(-1.0741937 0 0)
(-1.1059408 0 0)
(-1.1345027 0 0)
(-1.1597707 0 0)
(-1.1816263 0 0)
(-1.1999409 0 0)
(-1.2145946 0 0)
(-1.2255194 0 0)
(-1.2327158 0 0)
(-1.2362537 0 0)
(-1.2362937 0 0)
(-1.2331433 0 0)
(-1.2272461 0 0)
(-1.2192286 0 0)
(-1.2098788 0 0)
(-1.2001819 0 0)
(-1.1913104 0 0)
(-1.1846877 0 0)
(-1.1820204 0 0)
(-0.054361524 0 0)
(-0.15701456 0 0)
(-0.25246012 0 0)
(-0.34172212 0 0)
(-0.42559296 0 0)
(-0.50453315 0 0)
(-0.57745516 0 0)
(-0.64414424 0 0)
(-0.70638501 0 0)
(-0.76456867 0 0)
(-0.81898116 0 0)
(-0.86986141 0 0)
(-0.91746907 0 0)
(-0.96190049 0 0)
(-1.0032712 0 0)
(-1.0416762 0 0)
(-1.0771487 0 0)
(-1.1096502 0 0)
(-1.1391154 0 0)
(-1.165442 0 0)
(-1.1885088 0 0)
(-1.2081797 0 0)
(-1.2243235 0 0)
(-1.2368231 0 0)
(-1.2456198 0 0)
(-1.2507285 0 0)
(-1.2522222 0 0)
(-1.2502964 0 0)
(-1.2452766 0 0)
(-1.2376369 0 0)
(-1.2280189 0 0)
(-1.2172247 0 0)
(-1.2062646 0 0)
(-1.1963013 0 0)
(-1.1887693 0 0)
(-1.185382 0 0)
(-0.054248094 0 0)
(-0.15658207 0 0)
(-0.2516268 0 0)
(-0.34043033 0 0)
(-0.42380878 0 0)
(-0.50224946 0 0)
(-0.57618261 0 0)
(-0.64441699 0 0)
(-0.70674447 0 0)
(-0.76502377 0 0)
(-0.81956292 0 0)
(-0.870604 0 0)
(-0.9184288 0 0)
(-0.96313694 0 0)
(-1.0048536 0 0)
(-1.0436959 0 0)
(-1.0797222 0 0)
(-1.1129029 0 0)
(-1.1431823 0 0)
(-1.1704688 0 0)
(-1.1946536 0 0)
(-1.2156049 0 0)
(-1.2331724 0 0)
(-1.2472158 0 0)
(-1.2576303 0 0)
(-1.2643668 0 0)
(-1.2674477 0 0)
(-1.2669743 0 0)
(-1.2631563 0 0)
(-1.2563521 0 0)
(-1.2470474 0 0)
(-1.2359095 0 0)
(-1.2237624 0 0)
(-1.2116139 0 0)
(-1.2006367 0 0)
(-1.1922618 0 0)
(-1.1882076 0 0)
(-0.054165761 0 0)
(-0.15624076 0 0)
(-0.25093386 0 0)
(-0.33931722 0 0)
(-0.42223344 0 0)
(-0.50018281 0 0)
(-0.57361722 0 0)
(-0.6430322 0 0)
(-0.70705644 0 0)
(-0.7654305 0 0)
(-0.82007527 0 0)
(-0.87125084 0 0)
(-0.9192633 0 0)
(-0.96420598 0 0)
(-1.0062223 0 0)
(-1.0454478 0 0)
(-1.0819594 0 0)
(-1.1157368 0 0)
(-1.1467459 0 0)
(-1.1749064 0 0)
(-1.2001187 0 0)
(-1.2222509 0 0)
(-1.241159 0 0)
(-1.2566909 0 0)
(-1.2687024 0 0)
(-1.2770939 0 0)
(-1.2818327 0 0)
(-1.2829569 0 0)
(-1.2805786 0 0)
(-1.2749458 0 0)
(-1.2664315 0 0)
(-1.2555493 0 0)
(-1.2429765 0 0)
(-1.2295494 0 0)
(-1.2162929 0 0)
(-1.204367 0 0)
(-1.195211 0 0)
(-1.1905467 0 0)
(-0.054115515 0 0)
(-0.1559926 0 0)
(-0.25038599 0 0)
(-0.3383913 0 0)
(-0.4208749 0 0)
(-0.49835445 0 0)
(-0.57129677 0 0)
(-0.64022082 0 0)
(-0.70557995 0 0)
(-0.76577868 0 0)
(-0.82052838 0 0)
(-0.87181933 0 0)
(-0.91999018 0 0)
(-0.96513664 0 0)
(-1.0074093 0 0)
(-1.0469621 0 0)
(-1.0838991 0 0)
(-1.1182071 0 0)
(-1.149865 0 0)
(-1.1788049 0 0)
(-1.2049454 0 0)
(-1.2281708 0 0)
(-1.2483295 0 0)
(-1.2652635 0 0)
(-1.2788204 0 0)
(-1.2888584 0 0)
(-1.2952875 0 0)
(-1.2980862 0 0)
(-1.2973094 0 0)
(-1.2931014 0 0)
(-1.2857247 0 0)
(-1.2755834 0 0)
(-1.2631981 0 0)
(-1.2492683 0 0)
(-1.2346462 0 0)
(-1.2203504 0 0)
(-1.2075457 0 0)
(-1.1976672 0 0)
(-1.1924407 0 0)
(-0.05409737 0 0)
(-0.15584022 0 0)
(-0.24998785 0 0)
(-0.33765864 0 0)
(-0.41974536 0 0)
(-0.49678112 0 0)
(-0.56924383 0 0)
(-0.63767313 0 0)
(-0.7025503 0 0)
(-0.76422378 0 0)
(-0.82091974 0 0)
(-0.87232043 0 0)
(-0.92062815 0 0)
(-0.96594688 0 0)
(-1.008439 0 0)
(-1.048276 0 0)
(-1.0855822 0 0)
(-1.1203499 0 0)
(-1.152581 0 0)
(-1.1822193 0 0)
(-1.2091997 0 0)
(-1.2334136 0 0)
(-1.2547232 0 0)
(-1.2729746 0 0)
(-1.2879992 0 0)
(-1.2996352 0 0)
(-1.3077525 0 0)
(-1.3122724 0 0)
(-1.313189 0 0)
(-1.3105789 0 0)
(-1.3046021 0 0)
(-1.2955587 0 0)
(-1.2838629 0 0)
(-1.2700588 0 0)
(-1.2548516 0 0)
(-1.2391032 0 0)
(-1.2238411 0 0)
(-1.2102172 0 0)
(-1.1996715 0 0)
(-1.1939315 0 0)
(-0.15578376 0 0)
(-0.054104459 0 0)
(-0.24974154 0 0)
(-0.33712494 0 0)
(-0.41885089 0 0)
(-0.49547039 0 0)
(-0.56747838 0 0)
(-0.63542473 0 0)
(-0.69980508 0 0)
(-0.76099468 0 0)
(-0.81928944 0 0)
(-0.87275424 0 0)
(-0.92119373 0 0)
(-0.96665875 0 0)
(-1.009338 0 0)
(-1.0494148 0 0)
(-1.0870405 0 0)
(-1.1222126 0 0)
(-1.1549476 0 0)
(-1.1852002 0 0)
(-1.2129261 0 0)
(-1.238039 0 0)
(-1.2604038 0 0)
(-1.2798671 0 0)
(-1.2962681 0 0)
(-1.3094348 0 0)
(-1.3192031 0 0)
(-1.3254496 0 0)
(-1.3281124 0 0)
(-1.3272003 0 0)
(-1.3228128 0 0)
(-1.3151417 0 0)
(-1.3045006 0 0)
(-1.2913317 0 0)
(-1.276181 0 0)
(-1.2597706 0 0)
(-1.2429745 0 0)
(-1.2268086 0 0)
(-1.2124273 0 0)
(-1.2012664 0 0)
(-1.1950559 0 0)
(-0.2496499 0 0)
(-0.15580302 0 0)
(-0.054136561 0 0)
(-0.33679418 0 0)
(-0.41819969 0 0)
(-0.4944348 0 0)
(-0.56600748 0 0)
(-0.63348746 0 0)
(-0.69738294 0 0)
(-0.75807362 0 0)
(-0.81588266 0 0)
(-0.87106064 0 0)
(-0.92167854 0 0)
(-0.96728888 0 0)
(-1.010126 0 0)
(-1.0504085 0 0)
(-1.0883088 0 0)
(-1.123827 0 0)
(-1.1570019 0 0)
(-1.1877973 0 0)
(-1.2161888 0 0)
(-1.2421027 0 0)
(-1.2654194 0 0)
(-1.2860011 0 0)
(-1.303682 0 0)
(-1.3182852 0 0)
(-1.3296387 0 0)
(-1.3375834 0 0)
(-1.3420063 0 0)
(-1.3428598 0 0)
(-1.3401753 0 0)
(-1.3340767 0 0)
(-1.3247728 0 0)
(-1.3126111 0 0)
(-1.2980394 0 0)
(-1.2816227 0 0)
(-1.264085 0 0)
(-1.2463042 0 0)
(-1.2293002 0 0)
(-1.2142156 0 0)
(-1.2024887 0 0)
(-1.1958493 0 0)
(-0.33666836 0 0)
(-0.24967776 0 0)
(-0.1558968 0 0)
(-0.054200894 0 0)
(-0.41779547 0 0)
(-0.49367906 0 0)
(-0.56484633 0 0)
(-0.63187803 0 0)
(-0.6952962 0 0)
(-0.75549188 0 0)
(-0.81279529 0 0)
(-0.8674913 0 0)
(-0.91994307 0 0)
(-0.96783015 0 0)
(-1.0108225 0 0)
(-1.0512789 0 0)
(-1.0894129 0 0)
(-1.1252323 0 0)
(-1.1587896 0 0)
(-1.1900572 0 0)
(-1.2190307 0 0)
(-1.2456619 0 0)
(-1.269839 0 0)
(-1.2914306 0 0)
(-1.310287 0 0)
(-1.326235 0 0)
(-1.3390872 0 0)
(-1.3486666 0 0)
(-1.3548301 0 0)
(-1.3574754 0 0)
(-1.3565701 0 0)
(-1.3521663 0 0)
(-1.3444144 0 0)
(-1.3335517 0 0)
(-1.3199375 0 0)
(-1.3040423 0 0)
(-1.2864285 0 0)
(-1.2678336 0 0)
(-1.2491406 0 0)
(-1.2313549 0 0)
(-1.2156214 0 0)
(-1.2033741 0 0)
(-1.1963442 0 0)
(-0.41764162 0 0)
(-0.33670316 0 0)
(-0.24982671 0 0)
(-0.15608735 0 0)
(-0.054296974 0 0)
(-0.49321128 0 0)
(-0.56399944 0 0)
(-0.63060483 0 0)
(-0.693563 0 0)
(-0.75327194 0 0)
(-0.81007167 0 0)
(-0.86425697 0 0)
(-0.91623243 0 0)
(-0.96605939 0 0)
(-1.0114226 0 0)
(-1.0520475 0 0)
(-1.0903805 0 0)
(-1.1264552 0 0)
(-1.1603428 0 0)
(-1.1920222 0 0)
(-1.2215092 0 0)
(-1.2487715 0 0)
(-1.2737119 0 0)
(-1.29622 0 0)
(-1.3161517 0 0)
(-1.3333353 0 0)
(-1.347589 0 0)
(-1.3587269 0 0)
(-1.3665772 0 0)
(-1.3709995 0 0)
(-1.3719075 0 0)
(-1.3692892 0 0)
(-1.3632237 0 0)
(-1.3538848 0 0)
(-1.3415258 0 0)
(-1.3265354 0 0)
(-1.309385 0 0)
(-1.2906512 0 0)
(-1.2710695 0 0)
(-1.2515216 0 0)
(-1.2330127 0 0)
(-1.2166795 0 0)
(-1.2039554 0 0)
(-1.19657 0 0)
(-0.49303272 0 0)
(-0.4176833 0 0)
(-0.33689793 0 0)
(-0.25012844 0 0)
(-0.15637228 0 0)
(-0.054424048 0 0)
(-0.56347647 0 0)
(-0.62967961 0 0)
(-0.6921925 0 0)
(-0.751425 0 0)
(-0.80772557 0 0)
(-0.86140554 0 0)
(-0.9128763 0 0)
(-0.9622271 0 0)
(-1.009622 0 0)
(-1.0527116 0 0)
(-1.091234 0 0)
(-1.1275265 0 0)
(-1.161698 0 0)
(-1.1937324 0 0)
(-1.223663 0 0)
(-1.2514827 0 0)
(-1.2771047 0 0)
(-1.300428 0 0)
(-1.321329 0 0)
(-1.33965 0 0)
(-1.3552055 0 0)
(-1.3678037 0 0)
(-1.3772602 0 0)
(-1.383412 0 0)
(-1.3861329 0 0)
(-1.3853475 0 0)
(-1.3810674 0 0)
(-1.373395 0 0)
(-1.3625292 0 0)
(-1.3487474 0 0)
(-1.3324476 0 0)
(-1.3141183 0 0)
(-1.2943301 0 0)
(-1.2738268 0 0)
(-1.2534896 0 0)
(-1.2343085 0 0)
(-1.2174232 0 0)
(-1.2042623 0 0)
(-1.1965554 0 0)
(-0.56327806 0 0)
(-0.4930812 0 0)
(-0.4179202 0 0)
(-0.33729842 0 0)
(-0.25058358 0 0)
(-0.15675107 0 0)
(-0.054581336 0 0)
(-0.62910731 0 0)
(-0.69119711 0 0)
(-0.74996776 0 0)
(-0.80577777 0 0)
(-0.85894993 0 0)
(-0.90991377 0 0)
(-0.95876138 0 0)
(-1.0056797 0 0)
(-1.0508898 0 0)
(-1.091969 0 0)
(-1.1284705 0 0)
(-1.1628831 0 0)
(-1.1952226 0 0)
(-1.22554 0 0)
(-1.2538455 0 0)
(-1.2800636 0 0)
(-1.3041158 0 0)
(-1.3258911 0 0)
(-1.3452389 0 0)
(-1.3619867 0 0)
(-1.3759471 0 0)
(-1.3869244 0 0)
(-1.3947347 0 0)
(-1.3992252 0 0)
(-1.4002785 0 0)
(-1.3978404 0 0)
(-1.3919467 0 0)
(-1.382727 0 0)
(-1.370401 0 0)
(-1.3552597 0 0)
(-1.3377251 0 0)
(-1.3182826 0 0)
(-1.2975119 0 0)
(-1.2761525 0 0)
(-1.2550777 0 0)
(-1.2352765 0 0)
(-1.2178836 0 0)
(-1.2043242 0 0)
(-1.1963251 0 0)
(-0.62889322 0 0)
(-0.56333469 0 0)
(-0.49335593 0 0)
(-0.41840787 0 0)
(-0.33790133 0 0)
(-0.25118648 0 0)
(-0.15721956 0 0)
(-0.054767409 0 0)
(-0.69058246 0 0)
(-0.7489078 0 0)
(-0.80423819 0 0)
(-0.85691256 0 0)
(-0.90736719 0 0)
(-0.9557038 0 0)
(-1.0021146 0 0)
(-1.0468467 0 0)
(-1.0901337 0 0)
(-1.1292835 0 0)
(-1.1639243 0 0)
(-1.1965253 0 0)
(-1.2271743 0 0)
(-1.2559031 0 0)
(-1.2826474 0 0)
(-1.3073399 0 0)
(-1.3298907 0 0)
(-1.3501688 0 0)
(-1.3680068 0 0)
(-1.3832201 0 0)
(-1.3956156 0 0)
(-1.4050001 0 0)
(-1.411193 0 0)
(-1.4140501 0 0)
(-1.4134736 0 0)
(-1.4094271 0 0)
(-1.4019732 0 0)
(-1.3912634 0 0)
(-1.3775394 0 0)
(-1.3611109 0 0)
(-1.3424071 0 0)
(-1.3219237 0 0)
(-1.3002321 0 0)
(-1.2780762 0 0)
(-1.2563228 0 0)
(-1.2359478 0 0)
(-1.2180886 0 0)
(-1.2041655 0 0)
(-1.1959043 0 0)
(-0.69035375 0 0)
(-0.6289574 0 0)
(-0.56364493 0 0)
(-0.49392072 0 0)
(-0.41914241 0 0)
(-0.33870417 0 0)
(-0.2519358 0 0)
(-0.15777598 0 0)
(-0.054981315 0 0)
(-0.74825531 0 0)
(-0.80312146 0 0)
(-0.85530415 0 0)
(-0.90525186 0 0)
(-0.95307592 0 0)
(-0.99897145 0 0)
(-1.0431914 0 0)
(-1.085995 0 0)
(-1.1274439 0 0)
(-1.1648219 0 0)
(-1.1976698 0 0)
(-1.2286033 0 0)
(-1.2576977 0 0)
(-1.2848974 0 0)
(-1.3101545 0 0)
(-1.3333962 0 0)
(-1.3545024 0 0)
(-1.3733213 0 0)
(-1.3896823 0 0)
(-1.4033941 0 0)
(-1.4142559 0 0)
(-1.422072 0 0)
(-1.4266734 0 0)
(-1.4279318 0 0)
(-1.4257601 0 0)
(-1.4201489 0 0)
(-1.4111861 0 0)
(-1.3990481 0 0)
(-1.3839929 0 0)
(-1.3663411 0 0)
(-1.3465397 0 0)
(-1.3250781 0 0)
(-1.302532 0 0)
(-1.2796392 0 0)
(-1.2572539 0 0)
(-1.2363507 0 0)
(-1.2180657 0 0)
(-1.2038124 0 0)
(-1.1953134 0 0)
(-0.74801308 0 0)
(-0.69042487 0 0)
(-0.62930036 0 0)
(-0.56428101 0 0)
(-0.49477282 0 0)
(-0.42012066 0 0)
(-0.33969995 0 0)
(-0.25282363 0 0)
(-0.15841514 0 0)
(-0.05522091 0 0)
(-0.80243334 0 0)
(-0.85413861 0 0)
(-0.90358404 0 0)
(-0.95089479 0 0)
(-0.99627083 0 0)
(-1.0399709 0 0)
(-1.0822565 0 0)
(-1.1232227 0 0)
(-1.1629817 0 0)
(-1.1986535 0 0)
(-1.2298581 0 0)
(-1.2592665 0 0)
(-1.2868621 0 0)
(-1.3126102 0 0)
(-1.3364566 0 0)
(-1.3583021 0 0)
(-1.3780055 0 0)
(-1.3954049 0 0)
(-1.41032 0 0)
(-1.422554 0 0)
(-1.431904 0 0)
(-1.4381768 0 0)
(-1.4412131 0 0)
(-1.4408996 0 0)
(-1.4371727 0 0)
(-1.430044 0 0)
(-1.4196287 0 0)
(-1.4061221 0 0)
(-1.3897994 0 0)
(-1.3709944 0 0)
(-1.3501589 0 0)
(-1.3277864 0 0)
(-1.3044434 0 0)
(-1.2808677 0 0)
(-1.2579023 0 0)
(-1.2365136 0 0)
(-1.2178382 0 0)
(-1.2032857 0 0)
(-1.1945752 0 0)
(-0.80218012 0 0)
(-0.74809041 0 0)
(-0.69079567 0 0)
(-0.63000116 0 0)
(-0.56523986 0 0)
(-0.4959057 0 0)
(-0.42133419 0 0)
(-0.34088383 0 0)
(-0.25384701 0 0)
(-0.15913392 0 0)
(-0.055484444 0 0)
(-0.85342348 0 0)
(-0.90237413 0 0)
(-0.94917508 0 0)
(-0.99403019 0 0)
(-1.0372045 0 0)
(-1.0789628 0 0)
(-1.1194117 0 0)
(-1.1586903 0 0)
(-1.1968247 0 0)
(-1.2309373 0 0)
(-1.2606417 0 0)
(-1.2885784 0 0)
(-1.3147529 0 0)
(-1.3391314 0 0)
(-1.3616272 0 0)
(-1.3821147 0 0)
(-1.4004501 0 0)
(-1.4164638 0 0)
(-1.4299625 0 0)
(-1.4407405 0 0)
(-1.4485976 0 0)
(-1.4533479 0 0)
(-1.4548446 0 0)
(-1.4529939 0 0)
(-1.4477489 0 0)
(-1.439151 0 0)
(-1.4273384 0 0)
(-1.412527 0 0)
(-1.395003 0 0)
(-1.3751081 0 0)
(-1.3533063 0 0)
(-1.3300821 0 0)
(-1.3060019 0 0)
(-1.2817964 0 0)
(-1.2582943 0 0)
(-1.23646 0 0)
(-1.2174313 0 0)
(-1.2026085 0 0)
(-1.1937049 0 0)
(-0.85316286 0 0)
(-0.80226394 0 0)
(-0.74848729 0 0)
(-0.69155195 0 0)
(-0.63105535 0 0)
(-0.56651412 0 0)
(-0.49731339 0 0)
(-0.42277706 0 0)
(-0.34224658 0 0)
(-0.25499682 0 0)
(-0.15992357 0 0)
(-0.055701794 0 0)
(-0.90163197 0 0)
(-0.94792997 0 0)
(-0.99226485 0 0)
(-1.0349104 0 0)
(-1.0761354 0 0)
(-1.1160545 0 0)
(-1.1548129 0 0)
(-1.1924692 0 0)
(-1.2291255 0 0)
(-1.2618271 0 0)
(-1.2900827 0 0)
(-1.3166255 0 0)
(-1.3414646 0 0)
(-1.3645329 0 0)
(-1.3857185 0 0)
(-1.4048891 0 0)
(-1.421891 0 0)
(-1.4365433 0 0)
(-1.4486447 0 0)
(-1.4579859 0 0)
(-1.4643673 0 0)
(-1.4676157 0 0)
(-1.4675993 0 0)
(-1.4642416 0 0)
(-1.4575227 0 0)
(-1.4475067 0 0)
(-1.434356 0 0)
(-1.4183011 0 0)
(-1.3996401 0 0)
(-1.3787224 0 0)
(-1.3560152 0 0)
(-1.3320011 0 0)
(-1.3072365 0 0)
(-1.28245 0 0)
(-1.2584565 0 0)
(-1.2362164 0 0)
(-1.2168636 0 0)
(-1.2017963 0 0)
(-1.1926641 0 0)
(-0.9013617 0 0)
(-0.85325587 0 0)
(-0.8026847 0 0)
(-0.74929431 0 0)
(-0.69268882 0 0)
(-0.63245749 0 0)
(-0.56809721 0 0)
(-0.4989844 0 0)
(-0.42443815 0 0)
(-0.34378055 0 0)
(-0.25626171 0 0)
(-0.16039348 0 0)
(-0.055683833 0 0)
(-0.94716644 0 0)
(-0.99098643 0 0)
(-1.0331042 0 0)
(-1.0737916 0 0)
(-1.1131746 0 0)
(-1.1514018 0 0)
(-1.1885383 0 0)
(-1.2247131 0 0)
(-1.2600339 0 0)
(-1.2913792 0 0)
(-1.3182666 0 0)
(-1.343505 0 0)
(-1.3670717 0 0)
(-1.3888681 0 0)
(-1.408781 0 0)
(-1.4266717 0 0)
(-1.442371 0 0)
(-1.4556818 0 0)
(-1.4663995 0 0)
(-1.4743181 0 0)
(-1.4792421 0 0)
(-1.481009 0 0)
(-1.4795064 0 0)
(-1.4746797 0 0)
(-1.4665294 0 0)
(-1.455148 0 0)
(-1.4407177 0 0)
(-1.4234839 0 0)
(-1.4037506 0 0)
(-1.3818722 0 0)
(-1.3583224 0 0)
(-1.3335736 0 0)
(-1.3081782 0 0)
(-1.2828579 0 0)
(-1.2584132 0 0)
(-1.2358007 0 0)
(-1.2161569 0 0)
(-1.2007354 0 0)
(-1.1914171 0 0)
(-0.94689178 0 0)
(-0.90145603 0 0)
(-0.85369938 0 0)
(-0.80353974 0 0)
(-0.75050855 0 0)
(-0.69420035 0 0)
(-0.63419645 0 0)
(-0.56997624 0 0)
(-0.50090981 0 0)
(-0.42630759 0 0)
(-0.34546694 0 0)
(-0.25696467 0 0)
(-0.16034679 0 0)
(-0.055659796 0 0)
(-0.99020492 0 0)
(-1.0317969 0 0)
(-1.0719465 0 0)
(-1.1107873 0 0)
(-1.1484731 0 0)
(-1.1850781 0 0)
(-1.220734 0 0)
(-1.2555691 0 0)
(-1.2896135 0 0)
(-1.3196794 0 0)
(-1.3452921 0 0)
(-1.3692912 0 0)
(-1.3916236 0 0)
(-1.4121909 0 0)
(-1.4308703 0 0)
(-1.4475094 0 0)
(-1.4619237 0 0)
(-1.4739087 0 0)
(-1.4832564 0 0)
(-1.4897651 0 0)
(-1.4932474 0 0)
(-1.4935554 0 0)
(-1.4905951 0 0)
(-1.484335 0 0)
(-1.4748025 0 0)
(-1.4621109 0 0)
(-1.4464621 0 0)
(-1.4281118 0 0)
(-1.4073696 0 0)
(-1.3845934 0 0)
(-1.3602589 0 0)
(-1.3348308 0 0)
(-1.3088534 0 0)
(-1.2830435 0 0)
(-1.2581857 0 0)
(-1.2352368 0 0)
(-1.2150687 0 0)
(-1.1994225 0 0)
(-1.1899989 0 0)
(-0.9899239 0 0)
(-0.94699099 0 0)
(-0.90191574 0 0)
(-0.85459881 0 0)
(-0.80482296 0 0)
(-0.75212029 0 0)
(-0.69607505 0 0)
(-0.63626352 0 0)
(-0.57214208 0 0)
(-0.50307605 0 0)
(-0.42836293 0 0)
(-0.34637776 0 0)
(-0.25690428 0 0)
(-0.16028684 0 0)
(-0.055631969 0 0)
(-1.0309996 0 0)
(-1.0706123 0 0)
(-1.1089099 0 0)
(-1.1460488 0 0)
(-1.1821113 0 0)
(-1.2172318 0 0)
(-1.2515421 0 0)
(-1.2851024 0 0)
(-1.3179517 0 0)
(-1.3468309 0 0)
(-1.3712341 0 0)
(-1.3940317 0 0)
(-1.4151719 0 0)
(-1.4345511 0 0)
(-1.4520316 0 0)
(-1.4674389 0 0)
(-1.4805794 0 0)
(-1.49125 0 0)
(-1.4992405 0 0)
(-1.5043507 0 0)
(-1.5064075 0 0)
(-1.5052794 0 0)
(-1.5008935 0 0)
(-1.4932428 0 0)
(-1.4823761 0 0)
(-1.4684311 0 0)
(-1.4516245 0 0)
(-1.4322217 0 0)
(-1.410533 0 0)
(-1.3869192 0 0)
(-1.3618569 0 0)
(-1.3358007 0 0)
(-1.3092876 0 0)
(-1.2830294 0 0)
(-1.2577961 0 0)
(-1.2341201 0 0)
(-1.2136305 0 0)
(-1.1979487 0 0)
(-1.1884026 0 0)
(-1.0307145 0 0)
(-0.99002914 0 0)
(-0.94746755 0 0)
(-0.902846 0 0)
(-0.8559446 0 0)
(-0.80652837 0 0)
(-0.75412162 0 0)
(-0.69830193 0 0)
(-0.63864286 0 0)
(-0.57457859 0 0)
(-0.50545773 0 0)
(-0.42945003 0 0)
(-0.34630521 0 0)
(-0.25682546 0 0)
(-0.16021642 0 0)
(-0.055598546 0 0)
(-1.0697978 0 0)
(-1.1075529 0 0)
(-1.1441398 0 0)
(-1.1796534 0 0)
(-1.2142315 0 0)
(-1.2480036 0 0)
(-1.2810351 0 0)
(-1.3134018 0 0)
(-1.3451475 0 0)
(-1.3729088 0 0)
(-1.3961398 0 0)
(-1.4177802 0 0)
(-1.4377731 0 0)
(-1.4559983 0 0)
(-1.4722982 0 0)
(-1.486487 0 0)
(-1.4983659 0 0)
(-1.5077295 0 0)
(-1.5143709 0 0)
(-1.5180964 0 0)
(-1.5187456 0 0)
(-1.5162072 0 0)
(-1.5104297 0 0)
(-1.5014309 0 0)
(-1.4892838 0 0)
(-1.4741436 0 0)
(-1.4562414 0 0)
(-1.435848 0 0)
(-1.4132743 0 0)
(-1.388881 0 0)
(-1.3631456 0 0)
(-1.3365095 0 0)
(-1.3095062 0 0)
(-1.2828389 0 0)
(-1.2566539 0 0)
(-1.2325103 0 0)
(-1.212046 0 0)
(-1.1963052 0 0)
(-1.1866311 0 0)
(-1.0695084 0 0)
(-1.0308246 0 0)
(-0.99051834 0 0)
(-0.94842852 0 0)
(-0.90424356 0 0)
(-0.85773134 0 0)
(-0.80864123 0 0)
(-0.75649654 0 0)
(-0.7008664 0 0)
(-0.64132076 0 0)
(-0.5772579 0 0)
(-0.50670037 0 0)
(-0.42935722 0 0)
(-0.34621098 0 0)
(-0.25673258 0 0)
(-0.16013341 0 0)
(-0.055559929 0 0)
(-1.1067262 0 0)
(-1.1427621 0 0)
(-1.1777216 0 0)
(-1.2117461 0 0)
(-1.2449706 0 0)
(-1.2774642 0 0)
(-1.3093036 0 0)
(-1.3405661 0 0)
(-1.371274 0 0)
(-1.3979572 0 0)
(-1.4200629 0 0)
(-1.4405927 0 0)
(-1.4594759 0 0)
(-1.4765683 0 0)
(-1.4916979 0 0)
(-1.5046784 0 0)
(-1.5153055 0 0)
(-1.5233697 0 0)
(-1.5286702 0 0)
(-1.5310231 0 0)
(-1.5302841 0 0)
(-1.5263628 0 0)
(-1.5192317 0 0)
(-1.5089333 0 0)
(-1.4955592 0 0)
(-1.4792832 0 0)
(-1.4603468 0 0)
(-1.4390248 0 0)
(-1.4156255 0 0)
(-1.3905104 0 0)
(-1.3641508 0 0)
(-1.3369827 0 0)
(-1.3095295 0 0)
(-1.2816725 0 0)
(-1.2548422 0 0)
(-1.2307791 0 0)
(-1.2103144 0 0)
(-1.1944949 0 0)
(-1.1846766 0 0)
(-1.1064343 0 0)
(-1.0696188 0 0)
(-1.0313258 0 0)
(-0.99150976 0 0)
(-0.9498739 0 0)
(-0.90609695 0 0)
(-0.85994321 0 0)
(-0.81115107 0 0)
(-0.75923196 0 0)
(-0.70375084 0 0)
(-0.64426447 0 0)
(-0.57864327 0 0)
(-0.5065851 0 0)
(-0.42923678 0 0)
(-0.34609836 0 0)
(-0.25662096 0 0)
(-0.16003638 0 0)
(-0.055514722 0 0)
(-1.1419219 0 0)
(-1.1763255 0 0)
(-1.2097943 0 0)
(-1.2424622 0 0)
(-1.2744042 0 0)
(-1.3057046 0 0)
(-1.3364425 0 0)
(-1.366668 0 0)
(-1.3963799 0 0)
(-1.4220299 0 0)
(-1.4430607 0 0)
(-1.4625196 0 0)
(-1.480314 0 0)
(-1.4962857 0 0)
(-1.5102572 0 0)
(-1.5220356 0 0)
(-1.5314151 0 0)
(-1.5381871 0 0)
(-1.5421549 0 0)
(-1.5431492 0 0)
(-1.5410443 0 0)
(-1.5357721 0 0)
(-1.5273284 0 0)
(-1.5157795 0 0)
(-1.5012356 0 0)
(-1.483884 0 0)
(-1.4639747 0 0)
(-1.4417846 0 0)
(-1.4176185 0 0)
(-1.3918325 0 0)
(-1.3649001 0 0)
(-1.3372422 0 0)
(-1.3083437 0 0)
(-1.2796399 0 0)
(-1.2529412 0 0)
(-1.2289266 0 0)
(-1.2084284 0 0)
(-1.1925095 0 0)
(-1.1825436 0 0)
(-1.1416257 0 0)
(-1.1065482 0 0)
(-1.0701306 0 0)
(-1.0323421 0 0)
(-0.99299538 0 0)
(-0.95178919 0 0)
(-0.90839647 0 0)
(-0.86256935 0 0)
(-0.81403857 0 0)
(-0.76230956 0 0)
(-0.70692383 0 0)
(-0.64577294 0 0)
(-0.57851149 0 0)
(-0.50643895 0 0)
(-0.42909466 0 0)
(-0.34596254 0 0)
(-0.25648813 0 0)
(-0.15992246 0 0)
(-0.055462332 0 0)
(-1.1754764 0 0)
(-1.2083844 0 0)
(-1.24049 0 0)