/*--------------------------------*- C++ -*----------------------------------*\
| =========                 |                                                 |
| \\      /  F ield         | OpenFOAM: The Open Source CFD Toolbox           |
|  \\    /   O peration     | Version:  v2012                                 |
|   \\  /    A nd           | Website:  www.openfoam.com                      |
|    \\/     M anipulation  |                                                 |
\*---------------------------------------------------------------------------*/
FoamFile
{
    version     2.0;
    format      ascii;
    class       surfaceScalarField;
    location    "37.4809418257685962";
    object      meshPhi;
}
// * * * * * * * * * * * * * * * * * * * * * * * * * * * * * * * * * * * * * //

dimensions      [0 3 -1 0 0 0 0];
oriented        oriented;


internalField   nonuniform List<scalar> 
18180
(
0
0.035559621
0
0.033256898
7.5253039e-14
0.068432362
0
0.031246886
0
0.063810861
7.234808e-14
0.098836342
0
0.029491405
0
0.059657626
0
0.092089991
6.9555602e-14
0.12755607
3.9193612e-14
0.027966083
0
0.056142579
-7.2421415e-14
0.08601502
0
0.1189702
0
0.15474669
1.6562363e-17
0.026571743
3.7690221e-14
0.053114198
0
0.080708318
6.9598049e-14
0.1111116
0
0.14452671
0
0.18018862
0
0.025228976
-3.7709431e-14
0.050378246
-1.3413896e-17
0.076181278
3.4813828e-14
0.10428784
-6.6938508e-14
0.13519234
0
0.16843051
0
0.20369437
0
0.023912092
3.7728244e-14
0.047808415
-3.6247827e-14
0.072199165
-3.4842612e-14
0.098363668
0
0.12684223
-2.2711218e-17
0.15763013
0
0.19053583
-5.9479819e-14
0.22532034
3.9279104e-14
0.022616977
0
0.04531146
3.6264785e-14
0.068478737
0
0.093090137
-6.6997363e-14
0.11945106
-1.1262e-17
0.14775584
0
0.17830557
0
0.21083815
5.7184895e-14
0.24504449
-1.7336348e-17
0.021347427
0
0.042865476
3.6294965e-14
0.064907604
0
0.088274125
0
0.1129233
0
0.13889851
0
0.16703743
5.9497423e-14
0.19745298
0
0.2293989
0
0.26290823
0
0.020109732
3.777863e-14
0.040470065
0
0.061426484
-1.3431271e-17
0.083729861
0
0.10706165
0
0.13110689
-1.0311981e-17
0.15682745
0
0.18499418
5.7221581e-14
0.21495527
0
0.24619136
-1.4300515e-17
0.27904152
0
0.018911803
0
0.038135334
-7.2649203e-14
0.058023308
-3.4904793e-14
0.079354444
6.7063649e-14
0.1016265
0
0.12415487
-3.0978477e-14
0.14766371
-9.653389e-18
0.17354712
2.8624207e-14
0.20160596
-1.6236956e-17
0.23087276
0
0.26135403
0
0.29361945
1.9679944e-14
0.017759019
0
0.035871112
0
0.054699494
3.4890295e-14
0.075103278
0
0.096462467
-3.22434e-14
0.11779282
0
0.13952655
0
0.16324126
2.8639308e-14
0.18927799
8.2429312e-18
0.21673471
0
0.24519962
0
0.27503689
0
0.30677483
0
0.016654583
0
0.033685897
0
0.051467247
0
0.070962882
3.3558127e-14
0.091484523
0
0.1118288
3.100836e-14
0.13215328
0
0.15389446
2.8664249e-14
0.17790052
5.5094522e-14
0.20363042
2.6490991e-14
0.23035457
0
0.25812283
0
0.287366
-4.7102376e-14
0.31862905
-1.9691255e-14
0.015600482
1.8913632e-14
0.031587827
-1.8172601e-14
0.048339369
0
0.066937462
0
0.08666102
-3.2281508e-14
0.10612127
0
0.1252617
-2.98329e-14
0.14535584
2.8671242e-14
0.16746244
8.3410089e-18
0.1914008
-7.4758363e-18
0.2165183
2.5476871e-14
0.2425945
4.8990901e-14
0.26973078
0
0.29847068
-4.5314911e-14
0.32932062
1.9695936e-14
0.01460069
1.8918124e-14
0.029582766
0
0.045326812
0
0.063039348
0
0.08198412
3.2281071e-14
0.10061499
0
0.11872224
0
0.13746071
0
0.15786302
0
0.17999042
0
0.20348908
0
0.22809069
0
0.25357694
4.7132504e-14
0.28017753
0
0.30847371
4.3588881e-14
0.33896893
0
0.01365621
-3.7852041e-14
0.027674227
-3.6377117e-14
0.042439401
1.747262e-14
0.059277815
-1.6794662e-14
0.077459197
0
0.095291942
0
0.11244079
0
0.13000762
0
0.14896071
0
0.16942171
2.6532871e-14
0.19125051
-2.5509944e-14
0.21435274
-2.4532391e-14
0.23847735
2.3586527e-14
0.26345759
0
0.28956842
-4.3614489e-14
0.3174997
4.1939266e-14
0.34767362
0
0.012768921
0
0.025864903
1.8192114e-14
0.039686338
-1.7483915e-14
0.055663557
0
0.073092719
6.3380973e-18
0.090150485
0
0.10639007
0
0.12290159
-2.8724055e-14
0.140628
0
0.1596532
0
0.17988352
0
0.20144338
0
0.22421382
-5.4710809e-18
0.24786424
2.2688734e-14
0.27232761
0
0.29803538
0
0.32563149
-4.0360864e-14
0.3555136
-1.9706806e-14
0.011938072
-1.8928522e-14
0.024155919
0
0.037074783
1.7487297e-14
0.05220563
-7.566271e-18
0.068888573
0
0.085194217
0
0.10055842
0
0.11608911
0
0.13274824
0
0.15056381
0
0.16939881
0
0.18947622
0
0.21080931
5.5403483e-18
0.23311698
-2.2710836e-14
0.25625975
0
0.28030055
-4.1989872e-14
0.30564467
0
0.33296581
0
0.36258376
1.9700734e-14
0.011163235
0
0.022546515
-1.8190647e-14
0.034607268
1.7482548e-14
0.04891025
1.6813269e-14
0.06485056
-6.5820384e-18
0.080420346
0
0.094944966
1.4946784e-14
0.10954967
0
0.12524244
0
0.14201819
2.6581121e-14
0.15965683
0
0.17836267
0
0.19831179
-5.6598931e-18
0.21927741
0
0.24108872
-4.3782209e-18
0.26379241
0
0.2874532
0
0.31250955
0
0.33957336
-5.6288418e-18
0.36895106
0
0.010442608
-1.8941192e-14
0.021037344
1.8200153e-14
0.032285264
0
0.045781573
-7.8866378e-18
0.06098218
0
0.075831116
-1.5546946e-14
0.089549579
1.4946879e-14
0.10327436
1.43795e-14
0.1180737
0
0.13392236
0
0.15051485
0
0.16800693
0
0.18667256
0
0.20638629
0
0.22686911
0
0.2482048
2.1024883e-14
0.27053677
0
0.29390092
-3.887986e-14
0.31868818
-3.7382834e-14
0.34553455
0
0.37468505
0
0.0097738152
0
0.019628429
0
0.030107628
0
0.042822021
1.6818699e-14
0.057287738
-6.8119229e-18
0.071427811
0
0.084375866
1.4950898e-14
0.097264629
-1.4384238e-14
0.11122413
0
0.1262222
0
0.14188017
0
0.15831215
0
0.17578215
0
0.19430212
0
0.21359783
-2.189171e-14
0.23359983
0
0.25458014
2.0232921e-14
0.27662015
0
0.29970224
3.7408956e-14
0.32426746
0
0.35090017
0
0.37983195
-9.8535396e-15
0.0091535705
0
0.018316548
0
0.028072563
-1.7496895e-14
0.040031616
0
0.053767804
1.6173566e-14
0.06721315
-5.1750829e-18
0.079425404
1.4958748e-14
0.091522459
0
0.10468761
1.3836555e-14
0.11889278
0
0.13368459
0
0.14916012
0
0.16554756
0
0.18290045
0
0.20111464
0
0.21999593
2.1064265e-14
0.23962807
0
0.26031916
-1.9474659e-14
0.28209044
0
0.30493194
-3.6005891e-14
0.32928926
0
0.35573465
0
0.38446233
9.8543418e-15
0.008577819
0
0.017096858
0
0.026175087
0
0.03740817
0
0.050422375
-1.6175762e-14
0.063185494
-1.5555863e-14
0.074697386
1.4957558e-14
0.086050019
-1.4392199e-14
0.098461355
1.3836922e-14
0.11192001
0
0.12589617
0
0.1404856
0
0.15589947
0
0.17218102
0
0.18932472
0
0.20718975
-2.1088638e-14
0.22570198
2.0273091e-14
0.24505629
1.9494687e-14
0.26550422
-2.8690657e-18
0.28702366
0
0.30964245
-3.4651498e-14
0.33382522
0
0.36008138
0
0.38861285
-9.8550452e-15
0.0080429026
0
0.015963713
0
0.024409109
-1.7499915e-14
0.034948502
0
0.047251219
0
0.059344147
0
0.070191314
0
0.08084513
-4.2010532e-18
0.092541575
4.1543304e-14
0.10529571
0
0.11849653
-3.3570655e-18
0.1322486
-1.232915e-14
0.14677841
0
0.16209989
0
0.17820614
-2.1950191e-14
0.19505411
0
0.21259798
-2.0297528e-14
0.23084286
-1.9515579e-14
0.24997329
0
0.27018212
-1.8037994e-14
0.29147239
0
0.31389917
0
0.33790834
0
0.36399234
0
0.39233598
-9.855663e-15
0.0075444696
0
0.014912305
1.8200387e-14
0.022767089
8.750555e-15
0.032646859
0
0.044253548
0
0.055688889
1.5554848e-14
0.065904468
0
0.07590621
-1.4394162e-14
0.086924778
0
0.099011161
1.3320787e-14
0.11147417
0
0.12442596
-3.1085717e-18
0.13812893
1.1870409e-14
0.15257332
0
0.16773394
0
0.18359716
0
0.20017713
0
0.21747513
0
0.23552259
0
0.25444094
-1.8055741e-14
0.27442961
-1.7360751e-14
0.29549912
1.6688659e-14
0.31773802
0
0.34159173
0
0.36750059
0
0.39565704
-9.8606958e-15
0.0070788932
0
0.01393627
0
0.021241974
0
0.030495646
8.4135474e-15
0.041426539
0
0.052218126
0
0.061833812
1.4964679e-14
0.071228327
0
0.081604173
0
0.093056542
0
0.10481953
0
0.11700203
-1.2343878e-14
0.12992106
-1.1874e-14
0.14355359
2.6168707e-18
0.15785668
0
0.17280956
0
0.18844594
0
0.20481922
0
0.2219463
0
0.23980339
0
0.25851613
2.4151543e-18
0.27827954
-2.1244812e-18
0.29913443
1.8762931e-18
0.32119762
-3.3689538e-18
0.34490415
0
0.37064707
2.8578753e-14
0.39862467
-9.8566942e-15
0.0066425597
-3.7571309e-18
0.01302941
9.1045083e-15
0.019826195
0
0.028487097
-4.2918175e-18
0.038765378
8.0909766e-15
0.048930848
0
0.05797457
0
0.066804535
1.4398846e-14
0.07657112
-1.3854209e-14
0.087419178
0
0.09851904
1.2829343e-14
0.10996668
0
0.12213374
-2.8728287e-18
0.13499892
-2.633318e-18
0.14851694
2.3795763e-18
0.16264455
0
0.17739524
0
0.19286176
-1.9578768e-14
0.2090846
0
0.22603869
-1.8098924e-14
0.24372819
-1.7402814e-14
0.26223616
0
0.2817772
-1.6082951e-14
0.30241175
1.5462125e-14
0.32431643
0
0.34788648
0
0.37345775
2.7509149e-14
0.40125826
9.8571239e-15
0.0062322549
0
0.012186109
-3.4612591e-18
0.018512132
8.7518907e-15
0.026613086
0
0.036264193
0
0.045823924
0
0.054322628
0
0.062624887
0
0.07181496
0
0.082084833
-1.3334541e-14
0.092558846
0
0.10330778
-1.2353217e-14
0.11475348
1.1887976e-14
0.12688531
-2.647431e-18
0.13966717
-2.4076442e-18
0.15304261
2.1622628e-18
0.16698565
0
0.18158675
0
0.19693577
1.8844881e-14
0.21301179
0
0.22981186
-1.7422384e-14
0.24731927
0
0.2656273
0
0.28493498
-1.548042e-14
0.30537103
0
0.32712663
2.8618376e-14
0.35056108
0
0.37596579
0
0.40359385
0
0.005843499
0
0.011400984
0
0.017292908
1.7496407e-14
0.024866668
4.3281207e-18
0.033916144
-8.0882919e-15
0.042893142
-7.7827265e-15
0.050872812
-7.4846323e-15
0.058680076
0
0.067324629
0
0.077039666
-1.3340912e-14
0.086922565
0
0.097011662
1.2357112e-14
0.10776901
-1.1892663e-14
0.11919345
0
0.13127459
-2.4428431e-18
0.14395505
-1.0598309e-14
0.15716654
-1.0194824e-14
0.17096927
0
0.18548938
0
0.20071399
1.8142362e-14
0.21661684
0
0.23325577
0
0.25061274
0
0.26871511
0
0.28780683
1.4899251e-14
0.30804017
-2.8649955e-14
0.32965712
0
0.35295719
0
0.37819138
-2.5493212e-14
0.40564563
2.6932928e-05
0.0064246619
0
0.010665003
0
0.016162159
8.7484986e-15
0.02323876
8.4109863e-15
0.031714807
8.0923656e-15
0.040132763
-7.7831852e-15
0.04761983
1.4970387e-14
0.054961889
7.2040344e-15
0.063088572
1.3860286e-14
0.072270189
0
0.081595781
0
0.091062925
0
0.10116659
0
0.11191089
0
0.12331717
0
0.1353416
-2.2451256e-18
0.1478846
-1.0204794e-14
0.16096325
-9.8160883e-15
0.1746921
0
0.18911959
0
0.20417885
-1.7466517e-14
0.21990944
0
0.23642705
0
0.25362693
0
0.27153574
-1.4919127e-14
0.29040482
1.4340497e-14
0.31044722
1.3787311e-14
0.33192285
0
0.35509674
0
0.38016034
2.4540069e-14
0.40744758
4.5425411e-05
0.0064260927
7.3236975e-05
0.011609931
0
0.015109334
0
0.021721214
8.4113058e-15
0.029650574
-8.0927138e-15
0.037536213
-7.7809626e-15
0.044556979
1.4973485e-14
0.051461769
-7.2046571e-15
0.059097147
2.2726147e-18
0.06776341
0
0.076562199
0
0.08544735
0
0.094932538
0
0.10502397
-1.1452096e-14
0.11577899
0
0.12717653
0
0.13909444
-1.0212127e-14
0.15151095
-9.8263018e-15
0.16451073
0
0.17818714
0
0.1924664
0
0.20731971
1.6816183e-14
0.22292151
-1.616777e-14
0.23932834
0
0.25639565
-1.4942137e-14
0.27411172
0
0.29276455
0
0.31260228
0
0.33395571
0
0.35700004
0
0.38188911
2.3625176e-14
0.4090119
5.636271e-05
0.006427766
0.00012339366
0.011624166
0.00011010101
0.016312213
0
0.020303957
0
0.027714067
-2.4275389e-14
0.035095367
-2.6210921e-18
0.041677021
2.1434708e-18
0.048169993
0
0.055341388
6.931559e-15
0.063508633
-6.6714074e-15
0.071807909
0
0.080150403
0
0.089051883
0
0.098520122
0
0.10864639
0
0.11944015
0
0.13076216
-1.0218823e-14
0.14256831
-1.939332e-18
0.15490272
0
0.16785048
0
0.18139865
0
0.19547067
0
0.21016686
0
0.22567286
0
0.24199672
-2.9925101e-14
0.25892757
1.4382458e-14
0.27646299
1.3826285e-14
0.29488569
0
0.31453925
1.2778521e-14
0.33576815
-1.7460241e-18
0.35868593
0
0.38339996
0
0.41036449
6.0658778e-05
0.0064309256
0.00015296838
0.011636196
0.00018535459
0.016366335
0.00014575806
0.021746326
0
0.025894793
0
0.032801415
0
0.038972338
-2.1606782e-18
0.045078593
-7.2035126e-15
0.051811127
0
0.059496289
-1.334621e-14
0.067317848
0
0.07515698
0
0.083511562
0
0.092385524
0
0.10190603
0
0.11211758
-1.0620046e-14
0.12286471
1.022271e-14
0.13409293
-9.8390674e-15
0.145814
0
0.15807246
0
0.17090505
-8.7642125e-15
0.18427057
0
0.1981635
0
0.21275035
1.5587947e-14
0.22819043
0
0.24443276
0
0.26125382
-1.384704e-14
0.27860384
1.3308701e-14
0.29680945
-1.0161277e-18
0.31626862
-1.2300741e-14
0.33738695
-2.3660021e-14
0.36016774
0
0.38470664
0
0.41151563
5.9239711e-05
0.0064356733
0.00016449502
0.011649956
0.0002296171
0.016413646
0.0002453138
0.021862241
0.00018318661
0.027511104
-8.0894732e-15
0.030637088
0
0.03643424
0
0.042177123
-7.2060828e-15
0.048495253
0
0.055716816
6.6727281e-15
0.063078595
-1.9272e-14
0.070450074
1.5177559e-18
0.078295755
0
0.08660717
0
0.095545521
0
0.10519552
0
0.11538489
-1.0228126e-14
0.12605665
0
0.1372083
0
0.14883013
9.1187637e-15
0.1609574
-8.7750044e-15
0.17362588
8.4410109e-15
0.18683062
0
0.20059894
0
0.21510449
0
0.23048735
0
0.2466728
1.3868807e-14
0.26338331
-1.333028e-14
0.28055969
0
0.29853884
-9.1316116e-19
0.31781707
-2.3684966e-14
0.33881311
2.2777162e-14
0.3614652
0
0.38582665
0
0.41248583
5.3048962e-05
0.0064418162
0.00016053346
0.011665215
0.00024674171
0.016457947
0.00030372426
0.021961186
0.00030810436
0.027703925
0.00021598976
0.032304261
0
0.034040566
0
0.039455426
0
0.045383762
6.933068e-15
0.052158585
0
0.059078476
0
0.066013571
6.1845737e-15
0.07338866
5.9555312e-15
0.08117047
0
0.089551222
0
0.098661031
0
0.10830863
0
0.11843923
0
0.12904947
0
0.140087
9.1281373e-15
0.15155245
-1.4436289e-18
0.16351103
-1.2956175e-18
0.17605993
0
0.18914712
0
0.2027975
0
0.21724452
1.4451528e-14
0.23258494
0
0.24871681
0
0.26534099
1.2831772e-14
0.28234484
0
0.30010219
-2.3715332e-14
0.31918415
2.2803202e-14
0.34007462
2.1929428e-14
0.36258662
0
0.38677072
0
0.41328455
4.304841e-05
0.0064492001
0.00014367586
0.011681579
0.00024064383
0.016498661
0.00032617291
0.022046517
0.00038118157
0.027864049
0.00036306343
0.032597199
0.00023826439
0.035655201
0
0.036890267
0
0.042466805
0
0.048813002
6.6737144e-15
0.055306876
-6.4247252e-15
0.061833436
0
0.068772613
-1.3784563e-18
0.076060124
-5.7337308e-15
0.083909309
0
0.092500492
0
0.10162241
0
0.11122344
0
0.12131297
9.4905436e-15
0.13180447
-1.6783699e-18
0.14266384
0
0.15393603
-1.2767969e-18
0.16578507
0
0.17825845
0
0.19123216
0
0.20479234
0
0.21918574
0
0.23448862
0
0.25058901
0
0.26713217
0
0.28397292
9.1712381e-19
0.30149499
1.1415494e-14
0.32039824
-1.0977123e-14
0.34117736
0
0.36355092
0
0.38755455
1.9548728e-14
0.41392756
3.0212863e-05
0.0064577771
0.00011653691
0.011698848
0.00021522111
0.016535135
0.00031785901
0.022117748
0.00040898102
0.027995437
0.00044886411
0.032837397
0.00040051033
0.036074175
0.0002521421
0.038405743
0
0.039719698
0
0.04567001
0
0.051754246
-1.6423316e-18
0.057895953
1.5457334e-18
0.064432988
0
0.071259297
-5.7360418e-15
0.078604494
1.3577834e-18
0.086699517
-1.06379e-14
0.095312406
1.0243514e-14
0.10439559
9.860898e-15
0.11397957
9.4940607e-15
0.12395227
-9.1399315e-15
0.1342544
-1.438055e-18
0.14488842
0
0.1560284
-8.1477568e-15
0.1678475
0
0.18024998
0
0.19310554
0
0.20658726
0
0.22093823
-1.3760523e-18
0.2362113
0
0.25229408
0
0.26877853
-1.1893999e-14
0.28545251
-1.1431944e-14
0.30274853
1.0990493e-14
0.32147041
0
0.34214694
-8.7086962e-19
0.36436259
1.9559755e-14
0.38818746
-4.413604e-19
0.41442357
1.5530978e-05
0.0064676046
8.1760243e-05
0.011716841
0.0001744538
0.01656693
0.0002840498
0.022174593
0.00039814136
0.028098801
0.00048124916
0.033034458
0.0004951562
0.036425581
0.00042406011
0.038971828
0.00026279004
0.041098044
0
0.042704172
0
0.048410111
0
0.054188888
-6.1880997e-15
0.060352248
-5.956576e-15
0.06675223
0
0.073622223
0
0.08124264
1.2965573e-18
0.089364067
0
0.097941228
0
0.10703359
0
0.1165088
9.1474451e-15
0.1262876
8.8059394e-15
0.1363371
0
0.14680669
-8.1564315e-15
0.15791893
-1.569488e-14
0.16971364
7.5474623e-15
0.18202476
8.3301241e-19
0.19478335
0
0.20820071
0
0.22250798
-1.2897932e-14
0.23776911
0
0.25385499
0
0.27028613
0
0.28679879
0
0.30386888
-1.058219e-14
0.32242439
0
0.34298245
0
0.36504039
-1.8834557e-14
0.38868194
-1.8127563e-14
0.41478705
0.00647839
0
4.2017716e-05
0.011735358
0.00012231637
0.016593946
0.00023002825
0.022216931
0.00035541739
0.028174835
0.00046814115
0.0331897
0.00053091116
0.036723454
0.00052461062
0.039456994
0.00044225662
0.041815533
0.00027260653
0.043887766
6.6744058e-15
0.045247264
0
0.050700409
0
0.056515986
5.9571851e-15
0.062520314
1.2924535e-18
0.068945946
0
0.076113457
0
0.083761624
1.2056024e-18
0.09184657
0
0.10045976
0
0.10945349
-9.1526575e-15
0.1187388
-8.8106054e-15
0.12824404
-8.4816251e-15
0.13809436
0
0.14851175
-7.8553878e-15
0.15962387
-9.3861464e-19
0.17138018
0
0.18360709
7.402912e-19
0.1962804
0
0.2096371
0
0.22391561
0
0.23917354
0
0.2552777
0
0.27166825
-1.1024483e-14
0.2880238
1.0597428e-14
0.30487774
0
0.32327019
0
0.34370919
0
0.36558733
0
0.38904692
1.7456742e-14
0.41502633
0.011753879
0
0.0064896531
-1.5585025e-05
6.2821836e-05
0.016616025
0.00016112638
0.022245049
0.00028749451
0.028224294
0.00041756872
0.033303928
0.00051650067
0.036968021
0.00056283917
0.039876644
0.00054744522
0.042436307
0.00045877294
0.044727496
0.00028029309
0.046192279
0
0.047405059
-6.187453e-15
0.052909758
0
0.058548814
-5.7382883e-15
0.064561206
0
0.071295813
0
0.07848887
0
0.086096312
4.9370585e-15
0.094243341
0
0.10277026
0
0.11158603
0
0.12058045
0
0.12986092
8.1718197e-15
0.13963384
7.8637532e-15
0.1500415
0
0.16114578
-8.3277091e-19
0.1728596
0
0.18501413
0
0.19761251
0
0.21091843
0
0.22516806
1.1955054e-14
0.2404403
0
0.2565741
0
0.27292967
-1.0614164e-14
0.28913392
-1.0202713e-14
0.30578693
-4.6741609e-19
0.32403121
0
0.34433109
-1.815132e-14
0.3660205
0
0.38929367
0
0.41515355
0.016632661
0
0.011772534
-4.2155726e-05
0.0065010533
-3.0420292e-05
8.266724e-05
0.022258756
0.00020114879
0.028247649
0.00033750733
0.033378017
0.00046070408
0.037158567
0.00054789099
0.040229053
0.00058767258
0.042973243
0.00056787229
0.04545069
0.00047148839
0.047154994
0.00028471678
0.048129745
0
0.049504075
0
0.054821885
0
0.060449682
-5.5271753e-15
0.066775116
-5.322267e-15
0.07353014
0
0.080676557
0
0.088370772
0
0.096443022
0
0.10481063
0
0.11332389
0
0.12207162
8.1775179e-15
0.13125735
9.2209531e-19
0.14099869
0
0.15139393
0
0.16249457
0
0.17417759
0
0.18626367
0
0.19879663
-1.246244e-14
0.21205198
0
0.22628309
-1.1511188e-14
0.24157426
0
0.25775255
-1.0631212e-14
0.27408021
0
0.29014254
0
0.30661992
9.4457581e-15
0.3247203
9.0845857e-15
0.34486768
-3.888468e-19
0.36633908
0
0.38943115
0
0.41517641
0.022257615
0
0.016645053
-6.2959428e-05
0.01179091
-8.2291397e-05
0.0065126193
-4.3484076e-05
0.00010307729
0.028245398
0.00023594859
0.033412515
0.00037238772
0.037294629
0.00048902853
0.040512569
0.0005723664
0.043424877
0.00060949104
0.04607103
0.00058332015
0.04798052
0.00047907063
0.049268359
0.00028745607
0.050014567
0
0.051307187
0
0.056593584
0
0.062531256
5.3230817e-15
0.068869574
1.2061564e-18
0.075572662
-4.9385201e-15
0.082827716
-4.7577975e-15
0.090458503
4.5835e-15
0.098395641
0
0.10645229
0
0.11469945
-8.1846234e-15
0.12334592
-7.8785093e-15
0.13248038
-7.5831844e-15
0.14218635
-7.4433912e-19
0.15258684
0
0.16370255
-6.7071299e-19
0.17535662
6.4925923e-15
0.18737991
6.2422252e-15
0.19984562
0
0.21305102
0
0.22726507
0
0.24259429
0
0.25882002
0
0.27512503
-6.4803815e-19
0.29105804
9.4593468e-15
0.3073871
9.095079e-15
0.32535155
1.7496643e-14
0.34530874
-1.6832965e-14
0.3665584
0
0.38946847
0
0.41510447
0.02821768
0
0.022244729
-8.2665364e-05
0.01665308
-0.0001228482
0.011808191
-0.00011765482
0.0065242463
-5.3746713e-05
0.00012081909
0.033408645
0.00026033471
0.03737684
0.0003955063
0.04072564
0.00051110986
0.043789963
0.00059352458
0.046588461
0.00062581561
0.048689395
0.00059285381
0.05026317
0.00048417555
0.05135918
0.00028861469
0.05156539
0
0.052964077
0
0.058544877
0
0.06449046
-1.1979409e-18
0.070769533
-4.9395962e-15
0.07760049
4.7591039e-15
0.084802651
4.5841529e-15
0.092326611
0
0.099948933
0
0.1077214
0
0.11586783
0
0.12445261
0
0.13352493
0
0.14322297
0
0.15366892
0
0.16480066
6.5029914e-15
0.1764121
-6.2530168e-15
0.18836952
4.5636986e-19
0.20076645
0
0.21392243
0
0.22813376
0
0.24349945
0
0.25978559
0
0.27606749
9.4732598e-15
0.29189302
0
0.30809829
0
0.32591838
0
0.34567161
-1.6211012e-14
0.36667861
0
0.38941375
0
0.41494431
0.033366893
0
0.028170833
-0.00010283371
0.022220298
-0.00016111967
0.016655154
-0.00017557665
0.011824509
-0.00014547568
0.0065357964
-6.0189015e-05
0.00013331036
0.037406129
0.00027665366
0.040868398
0.0004135453
0.044068136
0.00052991844
0.047003707
0.0006091525
0.049282008
0.0006362392
0.051129454
0.00059987044
0.052550725
0.00048658299
0.053081636
0.00028793558
0.05294263
0
0.054789851
0
0.060375942
0
0.066253085
-1.2067205e-18
0.072674362
0
0.079463184
-1.000397e-18
0.086590334
4.4163627e-15
0.093797978
5.6220506e-19
0.10111914
0
0.10879803
0
0.11687816
0
0.12537663
0
0.13442179
7.038483e-15
0.14417001
-6.7718289e-15
0.15466964
6.0508992e-19
0.16579586
6.2629538e-15
0.17735466
0
0.18924302
5.7878582e-15
0.20156929
0
0.21468331
0
0.22889085
0
0.24430739
0
0.26064785
0
0.27691417
0
0.29264614
4.3540614e-19
0.30875189
0
0.32643381
8.1133354e-15
0.3459482
0
0.36671348
0
0.38927458
-1.4466259e-14
0.41470365
0.037382541
0
0.033297481
-0.0001203635
0.028105511
-0.00020020518
0.022181185
-0.00023000898
0.016651188
-0.00021703409
0.011840005
-0.00016299392
0.0065470453
-6.1786123e-05
0.00014173437
0.040941019
0.00028938184
0.044259008
0.00042870859
0.047317527
0.00054366624
0.04976009
0.00061951335
0.051866373
0.0006445376
0.053601197
0.00060346336
0.054433518
0.00048563698
0.054610213
0.00028684603
0.054471702
0
0.056495696
0
0.062009038
0
0.068034408
-4.7612366e-15
0.074425557
0
0.081172278
0
0.087985535
0
0.094875461
-4.0992136e-15
0.10211341
0
0.10972847
0
0.11770203
0
0.12615241
0
0.13524293
6.7805442e-15
0.14507541
-6.5230177e-15
0.15560528
0
0.16669277
-4.7938415e-19
0.17819181
5.7981441e-15
0.19000693
5.5730525e-15
0.20226453
0
0.21533917
0
0.22955145
-9.8913242e-15
0.24501271
0
0.26141885
0
0.27766625
-4.632235e-19
0.29332556
0
0.30935882
0
0.32688795
7.8135195e-15
0.34615398
1.5036835e-14
0.3666604
-1.4472967e-14
0.38905876
0
0.41438809
0.040942652
0
0.037318905
-0.0001328094
0.033201364
-0.00023418281
0.028016796
-0.0002854904
0.022127135
-0.00028399598
0.016641025
-0.00024312621
0.011854439
-0.00016743702
0.0065577502
-5.7538186e-05
0.00014830432
0.044362529
0.00029995858
0.04753115
0.00043971103
0.050125226
0.00055319158
0.052474189
0.0006283632
0.054508166
0.000648983
0.055632312
0.00060250874
0.056100157
0.00048390135
0.056282203
0.00028561312
0.05587154
-5.1310359e-15
0.058011772
0
0.063666416
0
0.069677325
4.5868374e-15
0.076056972
4.4199817e-15
0.082495735
4.257411e-15
0.088974982
4.1011551e-15
0.095795641
-3.9502566e-15
0.10297828
0
0.11046771
0
0.11837605
0
0.12686727
0
0.13605158
6.5319395e-15
0.14594441
-6.2831809e-15
0.15646029
0
0.16749541
-4.250113e-19
0.17892998
0
0.19067064
-5.3658085e-15
0.20286096
0
0.21589964
0
0.23011509
1.9046384e-14
0.24563456
0
0.26209424
0
0.27833205
-4.0013838e-19
0.29393031
0
0.30991406
-2.9901751e-19
0.32729265
7.5253623e-15
0.3462696
0
0.36653196
-1.3940304e-14
0.38877223
0
0.4140072
0.044377574
0
0.040888805
-0.00014130944
0.037216238
-0.00025839352
0.033070954
-0.00033376981
0.027905288
-0.00035213857
0.022058376
-0.00031775278
0.016624618
-0.00024971894
0.011867405
-0.00015605734
0.0065679304
-4.6459059e-05
0.00015371523
0.04764555
0.00030760749
0.050379432
0.00044761569
0.052952475
0.00056168956
0.0552693
0.00063328715
0.056673356
0.00064823189
0.057421733
0.00060034334
0.057899558
0.00048166632
0.057820834
0.00028326874
0.057077029
4.9423429e-15
0.059548897
0
0.06520641
0
0.071232488
4.4203498e-15
0.077313636
5.3215565e-19
0.083403701
-4.1033369e-15
0.089827461
0
0.096605683
0
0.10364689
0
0.11105389
0
0.11899875
-5.5117625e-19
0.12758269
0
0.13684687
0
0.1467621
-6.0519637e-15
0.1572357
-1.1638025e-14
0.16820815
-3.7426338e-19
0.17957695
0
0.19123976
0
0.20336294
0
0.21637018
0
0.23059764
-9.1692695e-15
0.2461638
0
0.26268854
0
0.27890624
-8.1442124e-15
0.29446992
7.8322368e-15
0.3104224
7.5333253e-15
0.32761403
7.2478626e-15
0.34631013
1.510074e-19
0.36632898
0
0.3884232
0
0.41356574
0.047660941
0
0.044323131
-0.0001479281
0.040779647
-0.00027500273
0.037063312
-0.00036827333
0.032907771
-0.00041149721
0.027771477
-0.00039360158
0.021974904
-0.0003259976
0.01660186
-0.00023274863
0.011879065
-0.00012613434
0.0065777652
-2.7591394e-05
0.00015762919
0.050524308
0.00031329283
0.053300529
0.00045499193
0.055882049
0.00056661644
0.057551324
0.00063281246
0.058568671
0.00064593597
0.059329278
0.0005974957
0.059554035
0.00047767719
0.059162752
0.00028033399
0.058299753
-4.763166e-15
0.060991396
-4.5885603e-15
0.06668605
0
0.072425219
-4.2606017e-15
0.078147399
4.1048396e-15
0.084194295
-3.9545512e-15
0.090590655
0
0.097214316
3.6689061e-15
0.10415584
0
0.11159868
0
0.11963591
0
0.12830322
0
0.13761765
0
0.1475211
0
0.15793312
0
0.16883871
-5.3868379e-15
0.18013683
5.1766768e-15
0.19171888
4.9746738e-15
0.20378045
0
0.21676279
0
0.23099736
-8.8283978e-15
0.24661923
8.4849491e-15
0.26319273
0
0.27940146
-2.9184028e-19
0.29493985
7.542778e-15
0.31085548
-2.1282178e-19
0.3278653
0
0.34626881
1.3437017e-14
0.36606574
0
0.3880171
0
0.41307144
0.050560017
0
0.047600668
-0.00015333234
0.044199392
-0.00028791478
0.040600561
-0.00039198967
0.036861803
-0.00045402186
0.032712657
-0.00045980493
0.027615644
-0.00040345018
0.021877908
-0.00030349503
0.016572633
-0.00018813401
0.011889869
-7.4996867e-05
0.0065857864
0
0.00016062
0.053518036
0.00031876642
0.056342863
0.0004593751
0.058261816
0.00056637435
0.059535038
0.00063052491
0.060565661
0.00064267767
0.061081264
0.00059239781
0.061015457
0.00047274068
0.060532653
0.00027716558
0.059435425
4.5889199e-15
0.062390943
0
0.067815591
4.2611665e-15
0.073191754
-4.1061515e-15
0.078880137
-3.9557238e-15
0.084916273
3.8112582e-15
0.091148953
3.6709703e-15
0.097656409
-3.5354901e-15
0.10463338
0
0.11217195
0
0.12028821
-6.3087613e-15
0.12901197
0
0.13835388
0
0.1482156
5.6136733e-15
0.15854974
0
0.16939222
5.18682e-15
0.18061482
-4.9846285e-15
0.19211534
0
0.20412078
0
0.2170827
0
0.23132636
-8.5000588e-15
0.24699128
8.1703653e-15
0.26362472
-7.8547429e-15
0.27981439
7.5526468e-15
0.29534001
-7.2640224e-15
0.31122115
-6.988203e-15
0.32803269
0
0.34616718
0
0.36573617
0
0.38756152
-1.1996837e-14
0.41251124
0.053603776
0
0.050514241
-0.00015728893
0.047465321
-0.00029846767
0.043987766
-0.0004104051
0.040353197
-0.0004832827
0.036612866
-0.00050732619
0.032486385
-0.00047118985
0.027439779
-0.00037530151
0.021766046
-0.00024502999
0.01653734
-0.00011188177
0.011895445
0
0.005996228
0
0.00016356704
0.056648864
0.00032207565
0.058800985
0.0004592975
0.060314701
0.00056429691
0.061603527
0.00062717462
0.0623964
0.00063703305
0.062641619
0.00058620844
0.06251372
0.00046739077
0.061814283
0.00027348789
0.060525958
-4.423464e-15
0.063453403
0
0.068522596
4.1073012e-15
0.073871751
-3.9575614e-15
0.079565309
3.0294568e-19
0.085431636
0
0.091533371
0
0.098076162
0
0.10515477
0
0.11276761
0
0.1209312
0
0.12969874
0
0.13903803
5.6235289e-15
0.14883541
-5.406801e-15
0.15909792
0
0.16987274
-4.9945928e-15
0.1810153
4.7991667e-15
0.19243678
4.6114907e-15
0.20439396
0
0.2173356
0
0.23158248
-8.184559e-15
0.24730003
0
0.26397311
0
0.28015899
7.2737182e-15
0.29566414
0
0.31151011
6.7307492e-15
0.3281407
-6.4769375e-15
0.34598371
0
0.36535359
0
0.38704445
0.0037593585
0.40811045
0.056797059
0
0.053589155
-0.00016043366
0.050386235
-0.00030627688
0.047232471
-0.00042551714
0.043690238
-0.00050594668
0.040039322
-0.00053995461
0.036317999
-0.0005198626
0.032230451
-0.00043824831
0.027243072
-0.00030275919
0.021639977
-0.00014552822
0.01649173
0
0.010941901
0
0.0063996399
-9.8633731e-15
0.00016538286
0.059165767
0.00032210016
0.060903964
0.00045756751
0.062437551
0.00056113672
0.063493982
0.00062146231
0.064034581
0.00063026193
0.064244939
0.00057953977
0.063924
0.00046122281
0.063040484
0.00026898816
0.061288456
-4.2630809e-15
0.064110895
0
0.069155541
0
0.074523602
3.8138458e-15
0.080045249
3.6750123e-15
0.085766382
0
0.091902618
6.8195656e-15
0.098553879
3.2837055e-15
0.10570598
0
0.1133517
0
0.12155359
-5.8555924e-15
0.13035326
0
0.13966486
0
0.14938754
0
0.15957931
0
0.17028548
4.8088635e-15
0.18134418
0
0.19269135
9.874648e-20
0.20460247
0
0.21752667
0
0.23177971
0
0.247532
0
0.26425876
7.284012e-15
0.28042191
-1.44325e-19
0.2959204
1.3476775e-14
0.31173516
6.4831675e-15
0.32815737
-8.9477254e-20
0.3457392
0
0.36489977
0.007314026
0.38290489
0.0034182197
0.40397651
0.059353435
0
0.05682154
-0.00016359609
0.053474136
-0.00031255977
0.050149222
-0.00043686285
0.046903281
-0.00052467847
0.043308355
-0.00056518443
0.039659288
-0.00055320795
0.035978736
-0.00048347891
0.031946061
-0.00035355928
0.027025317
-0.00017969995
0.021496082
-8.7536941e-15
0.01528092
0
0.011709059
0
0.0068237754
9.8630132e-15
0.00016542386
0.061299721
0.0003208509
0.063063047
0.00045486027
0.064368619
0.00055580914
0.065188436
0.00061469326
0.06572024
0.00062300605
0.065764929
0.00057192055
0.065270691
0.00045354991
0.063936252
0.00026290445
0.061668554
0
0.064703472
0
0.069776031
0
0.074973662
-3.6765865e-15
0.080337446
1.8727964e-19
0.086091765
0
0.092343276
-3.2860817e-15
0.099068972
0
0.1062414
0
0.11391235
0
0.1221549
5.6404904e-15
0.13096299
5.4249121e-15
0.14022582
0
0.14987667
5.0138726e-15
0.16000077
4.8187379e-15
0.17063158
-1.609731e-19
0.18160864
0
0.19288406
4.2746407e-15
0.20475626
0
0.21766501
0
0.23191554
-9.3886133e-20
0.24770754
0
0.26446368
7.0145878e-15
0.28061833
0
0.2961012
6.4902416e-15
0.31187629
0
0.32810743
-6.0061965e-15
0.34540051
0.010736343
0.36098613
0.0066501988
0.37901762
0.0030546364
0.40014411
0.061499511
0
0.059401645
-0.00016558982
0.056722428
-0.00031888051
0.053227487
-0.00044604329
0.04980098
-0.00053894776
0.046478192
-0.00058622866
0.04284312
-0.00057887008
0.039216851
-0.00051435342
0.03559653
-0.00039006462
0.031632719
-0.0002098719
0.026781772
0
0.020042787
-8.7539947e-15
0.016346241
0
0.012525383
-9.4732905e-15
0.0072735878
0
0.0001647551
0.063476712
0.00031884574
0.06501524
0.00045035642