/*--------------------------------*- C++ -*----------------------------------*\
| =========                 |                                                 |
| \\      /  F ield         | OpenFOAM: The Open Source CFD Toolbox           |
|  \\    /   O peration     | Version:  v2012                                 |
|   \\  /    A nd           | Website:  www.openfoam.com                      |
|    \\/     M anipulation  |                                                 |
\*---------------------------------------------------------------------------*/
FoamFile
{
    version     2.0;
    format      ascii;
    class       volScalarField;
    location    "37.4809418257685962";
    object      p;
}
// * * * * * * * * * * * * * * * * * * * * * * * * * * * * * * * * * * * * * //

dimensions      [0 2 -2 0 0 0 0];


internalField   nonuniform List<scalar> 
9200
(
0.0011441565
0.0012585104
0.0052247837
0.0013784507
0.0057579429
0.007133837
0.0015820725
0.006501184
0.0078697517
0.0087114563
0.0018465458
0.0076025708
0.0089453773
0.0096465937
0.0095196317
0.0021264304
0.0089874451
0.01052613
0.01105843
0.010590443
0.0096499944
0.0024405513
0.010565042
0.012543439
0.013124345
0.012240842
0.010805261
0.0091035885
0.0027053662
0.012358326
0.01489053
0.015775987
0.014651665
0.012617862
0.01028607
0.0079416595
0.0028729833
0.014257083
0.017604741
0.018901588
0.017764345
0.015257537
0.012173256
0.0090985699
0.006241547
0.0028895469
0.016226698
0.020584723
0.02254606
0.021467251
0.018682077
0.014908271
0.010978966
0.0073255967
0.0040948025
0.00282244
0.018203376
0.02384423
0.026608675
0.025820226
0.022779018
0.018471401
0.01368431
0.0091259833
0.005066615
0.0015974543
0.0027205196
0.020201352
0.027307814
0.031088331
0.030735574
0.027622226
0.022746073
0.017221878
0.011688821
0.0067258553
0.0024262539
-0.0011555382
0.0027386496
0.022269802
0.03086811
0.035896045
0.036232565
0.033135791
0.02781672
0.021465715
0.015052627
0.0090527058
0.0038964651
-0.00049200434
-0.0040735349
0.002386168
0.024412466
0.034382999
0.040974551
0.042263956
0.039356422
0.033615817
0.02650583
0.019077279
0.012121074
0.0059149435
0.00075402842
-0.0035904111
-0.0070761783
0.001356687
0.026322456
0.037535266
0.046162707
0.04881887
0.04625611
0.040192012
0.032276224
0.023852877
0.015772613
0.0085953171
0.0024127661
-0.0025928598
-0.0067811586
-0.010098002
-0.00037191697
0.027829514
0.040644161
0.051378895
0.05585361
0.053835709
0.047529518
0.038827022
0.029307678
0.020094722
0.011759331
0.0046410974
-0.0013265037
-0.0060472141
-0.0099899138
-0.013076594
-0.0028840473
0.028910201
0.043521822
0.057099962
0.063494979
0.062089367
0.055649084
0.046145445
0.035482972
0.025004604
0.015491463
0.0072414287
0.0004109299
-0.0051903521
-0.0095252944
-0.013154075
-0.015945632
-0.0062889376
0.029500018
0.045814446
0.062882881
0.070932097
0.070999465
0.064561872
0.054257632
0.042357089
0.030527479
0.019696317
0.010297684
0.0024045956
-0.0039619246
-0.009082904
-0.012956761
-0.01621805
-0.01867857
-0.010700909
0.029479852
0.047548093
0.068105095
0.078606265
0.08049739
0.074260374
0.063171737
0.04994303
0.036623673
0.024381733
0.013703924
0.0047416873
-0.0025912444
-0.0083656291
-0.012924922
-0.016285249
-0.019134004
-0.021299866
-0.016224878
0.028733979
0.048570574
0.073001907
0.087114001
0.090619595
0.084765912
0.072900147
0.058234703
0.043280616
0.029487919
0.017454639
0.0073095364
-0.00098382462
-0.0076142357
-0.01270977
-0.016653711
-0.019467386
-0.021872812
-0.023752091
-0.022906333
0.027119904
0.048747793
0.077569389
0.095850319
0.10140591
0.096080118
0.083449899
0.067230255
0.050462954
0.034973874
0.021475148
0.010095534
0.00074481052
-0.0067232727
-0.01255967
-0.016924039
-0.020222152
-0.022469888
-0.024431522
-0.0258875
-0.030750008
0.024451453
0.047978977
0.081608218
0.10470115
0.11278677
0.10818005
0.09482124
0.076920361
0.058132972
0.040770217
0.025703972
0.013018668
0.0025807382
-0.0058078348
-0.012355152
-0.017348082
-0.020956513
-0.023595322
-0.025266165
-0.026799784
-0.027736084
-0.039781383
0.020501626
0.046150324
0.08494535
0.11362523
0.12467306
0.12104222
0.10699899
0.087285266
0.066239098
0.046795078
0.030048882
0.016010289
0.0044439002
-0.0048791744
-0.012208359
-0.017789154
-0.021922493
-0.024771469
-0.026748855
-0.027827772
-0.028964411
-0.029440941
-0.049946955
0.01503805
0.043196631
0.087405465
0.12255426
0.13699083
0.1345941
0.11994497
0.09829116
0.074716286
0.052941461
0.034397599
0.018974125
0.0062695217
-0.0040121133
-0.012125075
-0.018353986
-0.022962877
-0.026245398
-0.028345664
-0.029672495
-0.030136568
-0.030856885
-0.030997903
-0.060865701
0.0079080653
0.039134793
0.088730672
0.13140935
0.1496385
0.1487463
0.13359435
0.10988639
0.083484169
0.05907664
0.038605501
0.021792267
0.0079698978
-0.0032639284
-0.012174281
-0.019040393
-0.024175641
-0.027838221
-0.030295712
-0.031663741
-0.032363824
-0.032256606
-0.03250766
-0.032326356
-0.072154884
-0.00084611309
0.033969166
0.088715736
0.14011295
0.16249348
0.1633791
0.14785341
0.12199497
0.09244464
0.065037916
0.042491078
0.02432024
0.0094399368
-0.0027113657
-0.012408193
-0.019912225
-0.025548322
-0.029634355
-0.032397246
-0.034065207
-0.034718272
-0.03479057
-0.034139045
-0.033934354
-0.033396093
-0.083127391
-0.011320604
0.027497252
0.087113295
0.14857032
0.17541273
0.17834187
0.16259864
0.13451343
0.10147784
0.070624969
0.045820607
0.026374411
0.010560225
-0.0024328897
-0.012887211
-0.021017008
-0.027138402
-0.031608633
-0.034716733
-0.036637607
-0.037554293
-0.037519167
-0.036970111
-0.035783889
-0.035138776
-0.034240274
-0.092887804
-0.023370536
0.019726479
0.083734695
0.15672049
0.1882255
0.19345636
0.17767784
0.14730786
0.11044196
0.075603165
0.048294195
0.027713578
0.011177961
-0.0025134724
-0.013680343
-0.022408252
-0.028987975
-0.033807022
-0.037212999
-0.039429582
-0.040568244
-0.040767282
-0.040065676
-0.038904536
-0.037193667
-0.036119637
-0.034878764
-0.1007332
-0.037257186
0.010275053
0.078558536
0.16449444
0.20075051
0.20851437
0.19290866
0.16021733
0.11917366
0.079703537
0.049560176
0.028015729
0.01116496
-0.0030634544
-0.014847285
-0.024144743
-0.031147276
-0.036266654
-0.039915949
-0.042378977
-0.043794201
-0.0442055
-0.043713396
-0.042361971
-0.040598688
-0.038374133
-0.036883792
-0.035316461
-0.10700125
-0.052825355
-0.0015843794
0.071588982
0.17186727
0.21276793
0.22329817
0.20808668
0.17304416
0.12748076
0.082620882
0.049185683
0.026917305
0.01015331
-0.0042086161
-0.016466342
-0.026284399
-0.033674124
-0.039034209
-0.042853059
-0.045495125
-0.047144102
-0.047840738
-0.047568909
-0.046403993
-0.044412916
-0.04205767
-0.03933184
-0.037439452
-0.035563394
-0.11236205
-0.06919179
-0.015486417
0.0640171
0.1784713
0.22428802
0.23756663
0.22299512
0.18559204
0.13513931
0.084014866
0.046617134
0.02392024
0.0078986223
-0.0061271725
-0.018626609
-0.028891367
-0.036629784
-0.042166704
-0.04606405
-0.048790036
-0.050601393
-0.051557645
-0.051602179
-0.050676605
-0.048849374
-0.046224416
-0.043287287
-0.040074251
-0.037795867
-0.035629331
-0.11774486
-0.086824647
-0.030607319
0.05739285
0.18342305
0.23475564
0.25110615
0.23739833
0.19761527
0.1419277
0.083528315
0.041257739
0.018351223
0.0039624737
-0.0090500467
-0.021452912
-0.032042373
-0.040081784
-0.045729241
-0.04960516
-0.052294278
-0.054159392
-0.055308233
-0.055672948
-0.055111478
-0.053545357
-0.051057962
-0.047802299
-0.044293871
-0.040609673
-0.037962983
-0.035524887
-0.12296089
-0.10654138
-0.047790504
0.051276334
0.18574706
0.24412553
0.26366853
0.25110267
0.20891005
0.14748961
0.080708178
0.032409196
0.0094998268
-0.0021928679
-0.013295738
-0.025119328
-0.035843421
-0.044113057
-0.049799534
-0.053543248
-0.056060688
-0.057831788
-0.059061907
-0.059696197
-0.059542137
-0.058397358
-0.056188638
-0.053036253
-0.049152054
-0.045084229
-0.040947058
-0.037951285
-0.035261155
-0.12743669
-0.12704743
-0.067597983
0.042776792
0.18653948
0.25196901
0.27527028
0.26385498
0.21926489
0.15171173
0.075228093
0.019217764
-0.0035780298
-0.011202377
-0.019252879
-0.029872003
-0.040441921
-0.048830342
-0.054470753
-0.057961968
-0.060153179
-0.061664159
-0.062809966
-0.063610436
-0.063845574
-0.063212603
-0.061482127
-0.058615688
-0.054788884
-0.050278895
-0.04566565
-0.041095945
-0.037771701
-0.034849516
-0.13073979
-0.14776345
-0.087843332
0.031716266
0.18466295
0.25897074
0.28568189
0.27557068
0.22845481
0.15425387
0.067124671
0.0012238141
-0.02198287
-0.024044407
-0.027450798
-0.036052954
-0.046051047
-0.054388325
-0.059846772
-0.062957143
-0.064655697
-0.065717225
-0.066582847
-0.067378118
-0.067919906
-0.067828
-0.066720716
-0.064380569
-0.060831365
-0.056318907
-0.05118793
-0.046045947
-0.041066369
-0.037435464
-0.034301497
-0.13242802
-0.16794446
-0.10794743
0.020066223
0.18049634
0.26315571
0.29537732
0.28589519
0.23642418
0.15520821
0.056254581
-0.021674978
-0.045903255
-0.041761498
-0.038850291
-0.044172061
-0.052979848
-0.060998817
-0.066094853
-0.068626616
-0.069658306
-0.070076592
-0.070435429
-0.071004795
-0.071691325
-0.072100325
-0.071702599
-0.070092126
-0.067099549
-0.06283669
-0.05762825
-0.051884428
-0.046233472
-0.040868778
-0.036953995
-0.033628627
-0.13215305
-0.18671175
-0.12711309
0.0080954042
0.17449003
0.26557254
0.30267386
0.29545514
0.24290152
0.15435009
0.043068992
-0.049017323
-0.074921135
-0.063636799
-0.054297195
-0.055061277
-0.061684334
-0.068967557
-0.073425209
-0.075130778
-0.075261999
-0.074839134
-0.074458571
-0.07453161
-0.07513088
-0.075901108
-0.076243615
-0.075511849
-0.07333937
-0.069638626
-0.064629651
-0.058718287
-0.052374065
-0.046237132
-0.040513945
-0.036338784
-0.03284232
-0.12964432
-0.2031572
-0.14457698
-0.0038293823
0.16684206
0.26588118
0.3096459
0.30301197
0.24836483
0.15183057
0.02666423
-0.082175854
-0.11060095
-0.088937408
-0.073166505
-0.069452977
-0.072762606
-0.078715937
-0.082164123
-0.082575846
-0.081597346
-0.080121349
-0.078769505
-0.078050797
-0.078248863
-0.079167615
-0.080152286
-0.08041442
-0.079281627
-0.076462768
-0.071991278
-0.066206259
-0.059590423
-0.052663105
-0.046066348
-0.040012876
-0.035601295
-0.031953764
-0.12468979
-0.21641305
-0.15962886
-0.015392546
0.15718767
0.26418332
0.31447043
0.31202644
0.2529816
0.14750081
0.007984191
-0.12277189
-0.15752565
-0.12243215
-0.096101435
-0.088147583
-0.08695961
-0.090738125
-0.092741769
-0.091316402
-0.088790929
-0.086051757
-0.08351212
-0.081699436
-0.081122305
-0.081852853
-0.083320319
-0.084561204
-0.08466334
-0.08301908
-0.079451403
-0.074146487
-0.067561661
-0.060246564
-0.052758526
-0.045731052
-0.039376734
-0.034752853
-0.030973821
-0.11717604
-0.22566411
-0.17165162
-0.026289246
0.1454761
0.26000109
0.31691389
0.31913319
0.26035213
0.14508075
-0.014371454
-0.16928854
-0.21652957
-0.17044582
-0.12734266
-0.11281839
-0.10588108
-0.10574461
-0.10567783
-0.10170074
-0.097054276
-0.092753776
-0.088850299
-0.085662414
-0.083892199
-0.083990517
-0.085624692
-0.087785262
-0.089181929
-0.089020425
-0.086708921
-0.082285595
-0.076090651
-0.068691121
-0.060689503
-0.052668138
-0.045241628
-0.038616735
-0.033804525
-0.029912949
-0.23020813
-0.10706133
-0.18017671
-0.036232092
0.13158234
0.25291835
0.31677529
0.32344665
0.26661807
0.14545627
-0.031861107
-0.22460617
-0.28667897
-0.23124496
-0.16629595
-0.14409918
-0.13103489
-0.12514023
-0.12170504
-0.11410612
-0.1065831
-0.10039447
-0.094952302
-0.090169183
-0.086773686
-0.085692493
-0.087028425
-0.089842813
-0.092720993
-0.09414254
-0.093462587
-0.090321278
-0.084940013
-0.077809316
-0.069590821
-0.06092327
-0.052400637
-0.044608834
-0.037743981
-0.032767005
-0.028781177
-0.1848974
-0.22950655
-0.094447681
-0.044949689
0.11542518
0.24259582
0.31327892
0.32497828
0.26990419
0.14385321
-0.048917009
-0.27546372
-0.37192656
-0.30651738
-0.2174484
-0.1812629
-0.1615772
-0.15035778
-0.14192071
-0.12909202
-0.1176268
-0.10909696
-0.10201367
-0.095483252
-0.090059966
-0.08716308
-0.087569821
-0.090638077
-0.094748767
-0.098105042
-0.099360338
-0.097949417
-0.093815867
-0.087386597
-0.079288697
-0.07025861
-0.06095338
-0.051965553
-0.04384357
-0.036769295
-0.031650614
-0.027588109
-0.052227191
-0.18570741
-0.22333361
-0.079536185
0.096996404
0.22868427
0.30573862
0.32306556
0.26936608
0.13853848
-0.066343202
-0.33446896
-0.46141877
-0.39825066
-0.28604487
-0.22774352
-0.2004009
-0.18146088
-0.1679935
-0.14729685
-0.1304737
-0.11904517
-0.11018611
-0.10191166
-0.094123334
-0.088714162
-0.087380638
-0.090093465
-0.095196749
-0.10047895
-0.10405408
-0.10480433
-0.10242334
-0.097146252
-0.089597109
-0.080517043
-0.070694569
-0.060786851
-0.051372963
-0.042956635
-0.035703256
-0.03046543
-0.02634285
0.076364635
-0.058020099
-0.18274572
-0.2117376
-0.062619584
0.21085664
0.2935097
0.31663385
0.26521989
0.12910123
-0.08851922
-0.39551345
-0.57187868
-0.49672665
-0.36649567
-0.28358551
-0.24594491
-0.21887756
-0.20096556
-0.16966642
-0.14539693
-0.13036281
-0.11967612
-0.10975356
-0.099428524
-0.09077343
-0.086717369
-0.088205666
-0.093837397
-0.10098718
-0.10711566
-0.11050683
-0.11039913
-0.10681412
-0.10026393
-0.091545486
-0.081485747
-0.070901204
-0.060431861
-0.050633153
-0.041958839
-0.034556542
-0.029221249
-0.025053776
0.18887145
0.053541302
-0.062288415
-0.1763418
-0.19524671
-0.044052345
0.27588127
0.30472581
0.25639893
0.11534908
-0.11687152
-0.45928804
-0.69453475
-0.62612889
-0.4515159
-0.34660974
-0.29223792
-0.25905143
-0.23799631
-0.19696578
-0.16267751
-0.14320607
-0.13056968
-0.11936695
-0.10650614
-0.093916973
-0.085961707
-0.085084206
-0.09050437
-0.09926979
-0.10814124
-0.11461298
-0.11735996
-0.11604457
-0.11104557
-0.10312221
-0.093209804
-0.082189832
-0.070883053
-0.059897291
-0.049756829
-0.04086165
-0.03333994
-0.027926976
-0.023728391
0.25221836
0.16237203
0.028878688
-0.065050718
-0.16723012
-0.17472277
-0.024301087
0.28632833
0.2417171
0.095852879
-0.15062774
-0.53391644
-0.84111335
-0.77846204
-0.56475621
-0.42330565
-0.33665391
-0.29788898
-0.27797651
-0.23018327
-0.18244954
-0.15763306
-0.14305122
-0.13099628
-0.11600262
-0.098857965
-0.085678304
-0.080979693
-0.085095842
-0.09504385
-0.10669143
-0.11666536
-0.12285983
-0.12447132
-0.12162717
-0.11504197
-0.10567951
-0.094573349
-0.08262761
-0.070646143
-0.059193097
-0.048756172
-0.039677251
-0.032063102
-0.026589875
-0.022373793
0.26043015
0.22167672
0.13138242
0.0027312678
-0.066476519
-0.15638684
-0.15118739
-0.004436213
0.21997257
0.069398241
-0.19248966
-0.62573804
-1.0151219
-0.96192811
-0.71329798
-0.51850801
-0.39814255
-0.33579829
-0.32172133
-0.26884262
-0.20501836
-0.17364399
-0.15708136
-0.14501241
-0.12856655
-0.10650448
-0.086606095
-0.076290543
-0.077660945
-0.08799328
-0.10233689
-0.11616716
-0.12642653
-0.13166767
-0.13167656
-0.12703094
-0.11873356
-0.10790145
-0.095624426
-0.082800022
-0.070198535
-0.058331856
-0.047644961
-0.038416313
-0.030732767
-0.025216438
-0.020997681
0.19000947
0.22565016
0.18373901
0.095833022
-0.024491252
-0.066910652
-0.1441911
-0.12612821
0.014164096
0.034684625
-0.24363974
-0.73027841
-1.2121322
-1.1779872
-0.89613163
-0.62552271
-0.45617267
-0.39409579
-0.3590534
-0.31171564
-0.2301785
-0.19116669
-0.17279354
-0.16141331
-0.14503282
-0.11791839
-0.089735259
-0.071601168
-0.068312208
-0.077903252
-0.094632919
-0.11259102
-0.12754084
-0.13717593
-0.14080533
-0.13880404
-0.1321463
-0.12206012
-0.10976105
-0.096355676
-0.082711473
-0.069552503
-0.057328964
-0.046435008
-0.03708468
-0.02935435
-0.023815834
-0.019608154
-0.0094687937
0.15023242
0.1812146
0.13760978
0.055706806
-0.052332289
-0.067709111
-0.13020208
-0.10093761
0.030729614
-0.30515071
-0.8483912
-1.4287181
-1.4281647
-1.0974976
-0.74771784
-0.53326649
-0.44133861
-0.40924268
-0.35005556
-0.25760206
-0.20991098
-0.18992343
-0.18063573
-0.16596068
-0.13443433
-0.096288107
-0.067783409
-0.057315247
-0.064614772
-0.083124752
-0.10538923
-0.12564515
-0.14049301
-0.14859604
-0.15002628
-0.14568862
-0.13687622
-0.12497212
-0.11123815
-0.096765225
-0.082372769
-0.068724826
-0.056197381
-0.045130844
-0.035686202
-0.027939428
-0.022401424
-0.018210392
-0.37760763
-0.064521042
0.10007174
0.12565832
0.082680088
0.010925739
-0.080354422
-0.071074435
-0.11476786
-0.076842692
0.045017624
-0.98261298
-1.6648971
-1.7123959
-1.3256047
-0.91126001
-0.62635427
-0.49607163
-0.45155368
-0.39514506
-0.28876324
-0.23011311
-0.20841613
-0.2020951
-0.19256734
-0.15748801
-0.10777805
-0.065955487
-0.045146347
-0.048019829
-0.067425188
-0.093998704
-0.12015328
-0.14108332
-0.15459412
-0.16034017
-0.15908921
-0.15218162
-0.14113869
-0.12743033
-0.11232091
-0.096860611
-0.081801515
-0.067729425
-0.054939792
-0.043734168
-0.034236403
-0.026509896
-0.020981803
-0.016803454
-1.134142
-0.46000458
-0.12713536
0.037463626
0.057713984
0.017777942
-0.038599498
-0.10935059
-0.077095586
-0.098640331
-0.055070454
0.05664714
-1.92172
-2.0319788
-1.588901
-1.1055421
-0.74010924
-0.55054243
-0.50089881
-0.43881193
-0.32854216
-0.25036503
-0.22805713
-0.22651249
-0.2244751
-0.18923666
-0.12613777
-0.067108622
-0.032506448
-0.028157443
-0.047135193
-0.077866868
-0.11044828
-0.13837515
-0.15831142
-0.16936124
-0.17206316
-0.16777421
-0.1581554
-0.14486696
-0.12940789
-0.11301093
-0.096659277
-0.081012151
-0.066566403
-0.0535551
-0.042265675
-0.032770329
-0.025079609
-0.019545664
-0.015314863
-2.2015897
-1.2980046
-0.54952602
-0.19930779
-0.039240625
-0.023798175
-0.057873623
-0.093227165
-0.13965701
-0.085183387
-0.082948771
-0.036739578
0.065620211
-2.3830031
-1.8840264
-1.3167307
-0.86378047
-0.61203524
-0.55428225
-0.48447878
-0.37362282
-0.27546373
-0.24766147
-0.2523785
-0.26415627
-0.23077523
-0.15373981
-0.073921788
-0.020444042
-0.0052128515
-0.021976949
-0.056433144
-0.095931313
-0.13177846
-0.1592317
-0.17668459
-0.18430859
-0.18344755
-0.17589075
-0.16350454
-0.14801243
-0.13089683
-0.11332396
-0.096175462
-0.080001199
-0.065231014
-0.052070531
-0.040777702
-0.031309138
-0.023620493
-0.017985601
-0.013729267
-2.7596444
-2.4988055
-1.4712179
-0.65072605
-0.28642493
-0.13091763
-0.1198645
-0.14485358
-0.15413093
-0.17079704
-0.094978601
-0.069034841
-0.021399785
0.072863187
-2.2048844
-1.5388123
-0.99216873
-0.68495746
-0.60654344
-0.52977025
-0.42144138
-0.30256431
-0.26876832
-0.2806379
-0.30819883
-0.28727904
-0.19318028
-0.088682313
-0.010494852
0.02036573
0.0082850142
-0.029268521
-0.076008668
-0.12072452
-0.1569537
-0.18190623
-0.19552034
-0.19898778
-0.19421718
-0.18328042
-0.16814982
-0.15055266
-0.13190889
-0.11327289
-0.095400763
-0.078759206
-0.063758439
-0.050560227
-0.039301006
-0.029797613
-0.021964503
-0.016331814
-0.012084533
-2.5460618
-3.1551636
-2.8092671
-1.6525226
-0.76241805
-0.38848782
-0.23786965
-0.23108847
-0.24322759
-0.2215324
-0.20288193
-0.10393724
-0.057676147
-0.0080024151
0.078379197
-1.7704938
-1.1256315
-0.76377536
-0.65538487
-0.57128726
-0.46813745
-0.33725598
-0.28706148
-0.30527388
-0.36262077
-0.35565914
-0.24872427
-0.1151916
-0.0051349288
0.047792297
0.043632761
0.0040713207
-0.050208826
-0.10468728
-0.15082825
-0.18465596
-0.20540463
-0.21419128
-0.21300722
-0.20414247
-0.18982219
-0.1720482
-0.15249241
-0.13245398
-0.11284264
-0.094319655
-0.077330892
-0.062249692
-0.049066858
-0.037744726
-0.027966297
-0.020218432
-0.014610261
-0.010383073
-2.0038849
-2.8965745
-3.5583318
-3.117496
-1.8389464
-0.87706396
-0.50395738
-0.35990677
-0.35719137
-0.3527245
-0.29582831
-0.23391485
-0.11180331
-0.048086581
0.0025236613
0.081962988
-1.2510053
-0.84225594
-0.69591304
-0.60929483
-0.51260677
-0.37952704
-0.30696825
-0.32322365
-0.41011652
-0.45175612
-0.31798809
-0.15468439
-0.0070857073
0.075514727
0.083738663
0.043686599
-0.018081402
-0.083242647
-0.14055332
-0.18456582
-0.2137194
-0.22888632
-0.23215558
-0.22604386
-0.21304682
-0.19544483
-0.17519377
-0.15383648
-0.13250806
-0.11200988
-0.092988129
-0.07584989
-0.060762253
-0.047454374
-0.035703397
-0.026040838
-0.018394479
-0.012828211
-0.0086256066
-1.3548928
-2.2204455
-3.2380083
-3.9440889
-3.4057527
-2.0197568
-0.99593071
-0.6307399
-0.495595
-0.49862801
-0.47116712
-0.37653127
-0.26117509
-0.11982258
-0.040978863
0.0094807593
0.083365228
-0.91747607
-0.72824149
-0.64235886
-0.54608103
-0.42222945
-0.33073696
-0.33657035
-0.45365629
-0.54997411
-0.42211299
-0.21242359
-0.017709052
0.10288525
0.1280553
0.089514398
0.020396185
-0.056026127
-0.12581964
-0.18138777
-0.22026117
-0.24294844
-0.25160208
-0.24896666
-0.23785004
-0.22082194
-0.20012751
-0.17758359
-0.1545489
-0.13203774
-0.11084389
-0.091579154
-0.074391702
-0.059104458
-0.045137708
-0.033560092
-0.024024868
-0.016509137
-0.010985294
-0.0068136465
-0.98275723
-1.440286
-2.4112087
-3.5442042
-4.2861716
-3.6565762
-2.1787643
-1.1212299
-0.76460668
-0.64443652
-0.65124745
-0.59825369
-0.45668749
-0.28933791
-0.12826627
-0.036886098
0.013122436
0.08222922
-0.74823595
-0.66179861
-0.57157002
-0.45718691
-0.35597952
-0.34972083
-0.47801391
-0.65944743
-0.54573437
-0.3090942
-0.050250351
0.12656563
0.17619991
0.14133091
0.065290754
-0.023169483
-0.10638392
-0.17499274
-0.2249369
-0.2563254
-0.27132592
-0.27293895
-0.26428666
-0.24826855
-0.22742734
-0.20385663
-0.17916623
-0.15458346
-0.13112801
-0.10956493
-0.090190104
-0.072697097
-0.056461741
-0.042702961
-0.031310014
-0.021949236
-0.014559152
-0.0090838501
-0.0049488075
-0.75207313
-1.0287093
-1.5119626
-2.5577402
-3.7920679
-4.5564562
-3.8528797
-2.3111786
-1.2520915
-0.90097998
-0.80009824
-0.81701279
-0.72838349
-0.54406827
-0.32153924
-0.13796713
-0.036280976
0.013240449
0.078057821
-0.66543807
-0.58408294
-0.48026798
-0.38398129
-0.36448942
-0.49197597
-0.74848045
-0.73251866
-0.42967981
-0.11485837
0.13819652
0.22380177
0.19812546
0.11617523
0.015440026
-0.082486708
-0.16530223
-0.22777722
-0.26908175
-0.29140102
-0.29803616
-0.29243721
-0.27789578
-0.25723446
-0.23283607
-0.20656123
-0.17987927
-0.15404391
-0.13005622
-0.10829675
-0.088480348
-0.069662877
-0.053674724
-0.040141795
-0.029004022
-0.019806019
-0.01254803
-0.0071258618
-0.0030329804
-0.64869508
-0.73891703
-1.040338
-1.5507233
-2.6318281
-3.9548967
-4.7277665
-3.9797462
-2.4163277
-1.3841315
-1.0290676
-0.96710596
-0.98695591
-0.87540132
-0.63488941
-0.35859896
-0.15127588
-0.038850056
0.010146591
0.070839848
-0.58590352
-0.49279067
-0.40611111
-0.37996285
-0.50668031
-0.83301609
-0.89384417
-0.63053935
-0.20773045
0.14177106
0.2697115
0.25694024
0.17165048
0.058990505
-0.054049659
-0.15264433
-0.22890719
-0.28140666
-0.31202185
-0.32441151
-0.32247954
-0.3098324
-0.28970604
-0.26470662
-0.23695342
-0.20815875
-0.17984903
-0.15327691
-0.12897807
-0.10660081
-0.084985593
-0.066444421
-0.050737
-0.03753123
-0.026627778
-0.017600163
-0.010478082
-0.0051139348
-0.0010680165
-0.57346221
-0.61412976
-0.70536531
-1.0135768
-1.5346246
-2.6133168
-4.0121749
-4.7801177
-4.0280781
-2.4870367
-1.5114993
-1.1491985
-1.1266246
-1.1821705
-1.0360763
-0.72665007
-0.39470146
-0.16895493
-0.043726041
0.0046786219
0.061427649
-0.48702232
-0.41681468
-0.3942206
-0.52606025
-0.90330893
-1.043618
-0.81374147
-0.35869826
0.10228771
0.3226198
0.31783649
0.23102791
0.10635735
-0.022182301
-0.13706401
-0.22876895
-0.29361413
-0.33351076
-0.35234645
-0.35458696
-0.34429652
-0.32501337
-0.29966264
-0.27056294
-0.23967256
-0.20880313
-0.17950683
-0.15247701
-0.12733638
-0.10256485
-0.081248415
-0.063045844
-0.047759206
-0.034848067
-0.024188173
-0.015333895
-0.0083529517
-0.0030507572
0.00094446133
-0.46777557
-0.54246304
-0.5592316
-0.65694543
-0.95508338
-1.4755109
-2.5023902
-3.9560248
-4.7036461
-3.9878936
-2.5234121
-1.5994588
-1.2492462
-1.3063071
-1.40136
-1.2062245
-0.81753436
-0.42537835
-0.18675529
-0.050230221
-0.0021946268
0.051238282
-0.40830853
-0.39798677
-0.54746345
-0.936611
-1.1715658
-0.99475881
-0.51030634
0.0011129628
0.32380071
0.39063389
0.29025754
0.15779241
0.012773897
-0.11975696
-0.22757627
-0.30628769
-0.35633369
-0.38224587
-0.38907713
-0.3814847
-0.36335216
-0.33790026
-0.307612
-0.27466832
-0.24118171
-0.20902945
-0.17909469
-0.15094245
-0.12266357
-0.098205844
-0.077295886
-0.059619951
-0.044706853
-0.032101551
-0.021687173
-0.013011618
-0.0061762204
-0.00093858506
0.0030025322
-0.37653578
-0.43208137
-0.49018781
-0.4907393
-0.59692074
-0.87206892
-1.3840608
-2.3088132
-3.7829931
-4.5047239
-3.8771452
-2.4436194
-1.637278
-1.3581812
-1.5134019
-1.6405423
-1.37947
-0.90583067
-0.45315959
-0.20041402
-0.057994086
-0.0095276696
0.041069345
-0.3899826
-0.56025436
-0.92693372
-1.2583179
-1.1598554
-0.67114256
-0.12689792
0.28749887
0.41993741
0.36084613
0.20600821
0.049874002
-0.10061788
-0.2265745
-0.31983968
-0.38119921
-0.4146642
-0.42637306
-0.4216902
-0.40495984
-0.37959801
-0.34830949
-0.31338831
-0.27725418
-0.24214349
-0.20913788
-0.17773353
-0.14551951
-0.11756097
-0.093589183
-0.073333279
-0.056117791
-0.041591983
-0.029293388
-0.019130319
-0.010637361
-0.0039500598
0.0012214428
0.0051027346
-0.36585939
-0.32341937
-0.37695446
-0.41989716
-0.41181414
-0.51971943
-0.76819547
-1.2499165
-2.0682752
-3.5165157
-4.2092001
-3.6063379
-2.3176921
-1.6535028
-1.4808675
-1.7414127
-1.8941977
-1.5466499
-0.98322433
-0.47704623
-0.21129346
-0.06680833
-0.016795677
0.031278868
-0.55254133
-0.88108694
-1.2896553
-1.2838802
-0.82994237
-0.28035152
0.19226236
0.44266665
0.4071511
0.26498708
0.084531449
-0.08156679
-0.22552908
-0.33562484
-0.40871479
-0.45036645
-0.46703339
-0.4652887
-0.45005942
-0.42497587
-0.39283924
-0.35604818
-0.31727826
-0.27913982
-0.24292935
-0.2080313
-0.17142379
-0.13953206
-0.11215014
-0.08898515
-0.069293223
-0.052554771
-0.038415272
-0.026430102
-0.016522787
-0.0082125692
-0.0016733389
0.0034244919
0.0072430331
-0.51019914
-0.32262046
-0.2588728
-0.30891167
-0.33222653
-0.32545938
-0.4284584
-0.65236167
-1.0876052
-1.8235641
-3.1691053
-3.8335895
-3.2972785
-2.1697878
-1.6514594
-1.6070187
-1.9779854
-2.1494202
-1.6992129
-1.0357318
-0.48787751
-0.22099789
-0.076180229
-0.023728297
0.022162077
-0.80368775
-1.2575497
-1.3459862
-0.96629105
-0.44988173
0.050753387
0.39475289
0.47168533
0.31602964
0.1247184
-0.064516613
-0.22688712
-0.35345072
-0.44035883
-0.49008756
-0.51177616
-0.51275743
-0.49893179
-0.47420628
-0.44133597
-0.40282176
-0.36147466
-0.3202933
-0.28078409
-0.24217401
-0.20067227
-0.16438616
-0.13317466
-0.10678215
-0.084303142
-0.065195013
-0.048930181
-0.035184382
-0.023516751
-0.01386545
-0.0057326146
0.0006454327
0.0056668478
0.009420967
-0.69888769
-0.42362992
-0.25039816
-0.18732707
-0.23316873
-0.24055571
-0.24176616
-0.33288928
-0.52987427
-0.90797195
-1.5691096
-2.8051865
-3.4567494
-2.9406442
-1.9892704
-1.6304493
-1.7294151
-2.2132867
-2.382593
-1.8250388
-1.0541966
-0.48553367
-0.22744133
-0.085262172
-0.030032135
0.013930313
-1.1588976
-1.3296262
-1.0535856
-0.58712328
-0.1213978
0.27113725
0.47712004
0.40508592
0.1737448
-0.044679357
-0.23038937
-0.37631909
-0.47615206
-0.53535514
-0.5613372
-0.56466084
-0.5519085
-0.52744624
-0.49396114
-0.45382848
-0.41000871
-0.36583486
-0.32299962
-0.28049348
-0.23357358
-0.19239459
-0.15690303
-0.12689992
-0.10133678
-0.079567072
-0.061035861
-0.045252646
-0.031905239
-0.020552382
-0.011148074
-0.0032117155
0.0030022732
0.0079445977
0.011634306
-1.0059946
-0.57641859
-0.3160508
-0.15725909
-0.10720668
-0.1522023
-0.15464595
-0.16480312
-0.24114768
-0.4029136
-0.72176272
-1.3603974
-2.4853425
-3.0146647
-2.5354909
-1.781959
-1.5929396
-1.8481533
-2.4298222
-2.5767419
-1.9047424
-1.0412241
-0.47351925
-0.22899612
-0.093102804
-0.035403658
0.0067403855
-1.2277525
-1.0664441
-0.66466804
-0.29105812
0.094383129
0.3978552
0.45329779
0.27084518
-0.0053564513
-0.23529406
-0.40232552
-0.51955769
-0.58643018
-0.61713284
-0.62159666
-0.60932312
-0.5848517
-0.55074372
-0.50910052
-0.46297333
-0.41592984
-0.36982666
-0.32330451
-0.27042949
-0.22384043
-0.18357787
-0.14955517
-0.12054968
-0.095843308
-0.074771218
-0.056825222
-0.041528292
-0.028574841
-0.017520777
-0.0083893252
-0.00065504665
0.0053921703
0.010254697
0.013880475
-1.0581343
-0.81575054
-0.44695399
-0.20692482
-0.063973539
-0.026859429
-0.071535512
-0.079303771
-0.093273068
-0.15156628
-0.2825355
-0.59532976
-1.1904834
-2.1280729
-2.5303261
-2.1054009
-1.5637211
-1.542654
-1.9593895
-2.6021181
-2.6838621
-1.9189781
-0.99502804
-0.44986106
-0.22584874
-0.098924737
-0.039585234
0.00072923188
-0.99573093
-0.68560852
-0.41873727
-0.098774712
0.22464113
0.42948532
0.34731788
0.092525638
-0.21088604
-0.43518303
-0.56781028
-0.64697358
-0.67949864
-0.6846704
-0.67153174
-0.64650283
-0.61166197
-0.56864524
-0.52036243
-0.47065819
-0.42144433
-0.37087578
-0.31152553
-0.25900145
-0.21345145
-0.17496539
-0.14213557
-0.11415976
-0.090291889
-0.069925695
-0.052569192
-0.037751842
-0.025167674
-0.014449143
-0.0055952885
0.0019310268
0.0078121383
0.012593918
0.016155702
-0.8520595
-0.85001868
-0.62078098
-0.30789944
-0.099190731
0.023669939
0.043470959
-0.0022493336
-0.012546909
-0.025267418
-0.069625847
-0.21143768
-0.48789892
-1.0022041
-1.7467973
-2.0338652
-1.6860706
-1.3480623
-1.4815869
-2.0467341
-2.7012424
-2.6870415
-1.8556929
-0.91284089
-0.41885475
-0.21808284
-0.10206745
-0.042332517
-0.0040325521
-0.65548201
-0.47307162
-0.27628464
0.0048620252
0.29980819
0.37505792
0.18052676
-0.12254224
-0.43174455
-0.62871225
-0.71408676
-0.75191726
-0.75403238
-0.73916708
-0.71246973
-0.67657575
-0.63226008
-0.58207225
-0.52998605
-0.47793728
-0.42340482
-0.35710648
-0.29814281
-0.24677121
-0.20335654
-0.16628716
-0.13468799
-0.10771466
-0.084692941
-0.065036199
-0.048259444
-0.033887667
-0.021719017
-0.011344392
-0.0027738548
0.0045440212
0.010259339
0.014956838
0.018455481
-0.57647063
-0.67429019
-0.63632479
-0.43109124
-0.16936459
0.0052751091
0.097109547
0.095160296
0.052061652
0.046116711
0.037612539
-0.024696905
-0.14667923
-0.37991975
-0.80024297
-1.3630286
-1.5533814
-1.2942178
-1.1347533
-1.4101312
-2.0891056
-2.7049977
-2.5717812
-1.7199522
-0.80931175
-0.38581
-0.20670501
-0.10225
-0.043511477
-0.0075359215
-0.47305821
-0.41412563
-0.22475227
0.06926894
0.31316362
0.24075782
-0.0336948
-0.36705251
-0.65091952
-0.79837402
-0.83170517
-0.83263817
-0.81199606
-0.78285568
-0.74528041
-0.69963778
-0.64781675
-0.59375221
-0.5392651
-0.48099463