/*--------------------------------*- C++ -*----------------------------------*\
| =========                 |                                                 |
| \\      /  F ield         | OpenFOAM: The Open Source CFD Toolbox           |
|  \\    /   O peration     | Version:  v2012                                 |
|   \\  /    A nd           | Website:  www.openfoam.com                      |
|    \\/     M anipulation  |                                                 |
\*---------------------------------------------------------------------------*/
FoamFile
{
    version     2.0;
    format      ascii;
    class       surfaceScalarField;
    location    "37.4809418257685962";
    object      phi;
}
// * * * * * * * * * * * * * * * * * * * * * * * * * * * * * * * * * * * * * //

dimensions      [0 3 -1 0 0 0 0];
oriented        oriented;


internalField   nonuniform List<scalar> 
18180
(
0.0041424142
-3.4342172
0.0084697858
-3.2108989
0.0050860671
-3.4721761
0.013122841
-3.002583
0.010206366
-3.2465731
0.0050103395
-3.5075904
0.018289074
-2.8076611
0.015345384
-3.0361328
0.0099744556
-3.2798164
0.004942238
-3.5412523
0.023980526
-2.6257578
0.020684033
-2.8396509
0.014907173
-3.0674229
0.0097896869
-3.311544
0.0047169865
-3.5731599
0.03021692
-2.4558072
0.026183945
-2.6564058
0.019936839
-2.8692463
0.014549583
-3.0972794
0.0093191742
-3.3417027
0.0044372702
-3.6030391
0.036942631
-2.2970902
0.031843592
-2.4852734
0.025026184
-2.6845622
0.019331186
-2.8976074
0.013822516
-3.1258635
0.0087579994
-3.3699273
0.0041109764
-3.6306559
0.044127737
-2.1488518
0.037591981
-2.325418
0.030144293
-2.5122124
0.024092098
-2.7115055
0.018332805
-2.9246721
0.01298962
-3.1525329
0.0081187418
-3.3960403
0.0037536203
-3.6560355
0.051731621
-2.0104449
0.043363571
-2.1760228
0.035200417
-2.3511445
0.028800037
-2.5378113
0.022817865
-2.737078
0.017244011
-2.9498401
0.012058511
-3.1771481
0.007426138
-3.4200152
0.0033770365
-3.6791366
0.059676205
-1.8812229
0.049081161
-2.036411
0.040083582
-2.2005021
0.033360195
-2.3755
0.027262537
-2.5620892
0.021510073
-2.7607915
0.016047139
-2.9731103
0.011051855
-3.1999212
0.0066944399
-3.4418933
0.0029963378
-3.6999967
0.067933379
-1.7606046
0.054652776
-1.9059172
0.044658211
-2.0595467
0.037660299
-2.2236244
0.03159174
-2.3986167
0.025803459
-2.5845661
0.020100425
-2.7827737
0.014743585
-2.9947588
0.0099786382
-3.2207077
0.0059441008
-3.4616336
0.0026256176
-3.7187556
0.076497174
-1.6480442
0.060021915
-1.7839994
0.048811809
-1.927624
0.041560562
-2.0813749
0.035716676
-2.245646
0.030089378
-2.4199959
0.024267538
-2.6052901
0.018542917
-2.8032927
0.013327696
-3.0147196
0.0088600813
-3.2395412
0.0051981688
-3.4793688
0.0022741082
-3.7356077
0.085507252
-1.5430368
0.065135354
-1.670117
0.052412074
-1.8041638
0.044905853
-1.9480493
0.039517519
-2.1022837
0.034330179
-2.2660531
0.028561519
-2.4396615
0.022524383
-2.6248491
0.016800366
-2.8224963
0.011821283
-3.0328096
0.0077281662
-3.256398
0.0044777397
-3.4952553
0.0019455654
-3.7507086
0.095146717
-1.4451402
0.070021861
-1.5638502
0.055327326
-1.6886284
0.047516651
-1.823038
0.042851709
-1.9677647
0.038463657
-2.1217836
0.033005219
-2.2848573
0.026742433
-2.4582475
0.020481574
-2.6431896
0.014889796
-2.8399172
0.010271581
-3.0489729
0.0066205059
-3.271464
0.0037987459
-3.5094376
0.0016405434
-3.7642034
0.10554254
-1.3538911
0.074697057
-1.4647486
0.057405819
-1.5805822
0.049216558
-1.7057985
0.045554056
-1.8414385
0.042413188
-1.986351
0.037609021
-2.1398203
0.031272097
-2.3025895
0.024450442
-2.4757844
0.018143736
-2.6599438
0.012878367
-2.8554119
0.0087404471
-3.0633327
0.0055723945
-3.2848456
0.0031717505
-3.5220734
0.0013585842
-3.7762535
0.11682536
-1.2688399
0.079170425
-1.3723468
0.058463471
-1.4795452
0.049788874
-1.5958544
0.04744551
-1.7227366
0.046088024
-1.8590673
0.042383511
-2.0037265
0.036189073
-2.1569362
0.028812308
-2.3194586
0.021664043
-2.4918326
0.015605134
-2.6747588
0.010863885
-2.8691077
0.007289106
-3.0760319
0.0046105372
-3.2967311
0.0026024414
-3.5333203
0.0011005683
-3.7870024
0.1291423
-1.1895826
0.083481439
-1.2862244
0.058353647
-1.3850936
0.048940306
-1.4926477
0.048288049
-1.6111168
0.04937043
-1.7393269
0.047332988
-1.8758425
0.041582652
-2.0204054
0.033684848
-2.1733088
0.025558078
-2.3349113
0.018512922
-2.5060005
0.013017243
-2.6877758
0.0089476543
-2.8811529
0.0059652435
-3.0872672
0.0037497546
-3.3072693
0.0020924202
-3.5433382
0.00086758625
-3.7965747
0.14263407
-1.1157311
0.087683727
-1.2059936
0.05695987
-1.2968428
0.046455041
-1.3958325
0.047971085
-1.5061456
0.052139254
-1.626577
0.052451517
-1.7555435
0.047546239
-1.8922669
0.039210221
-2.0365512
0.029951282
-2.1883945
0.021682963
-2.3485431
0.015226369
-2.5184025
0.01054286
-2.6992321
0.0072107492
-2.8917853
0.0047958184
-3.0971833
0.002993054
-3.3166369
0.0016392709
-3.5522416
0.00065768293
-3.8050724
0.15741709
-1.0469066
0.091859609
-1.131294
0.054160933
-1.2144046
0.04220167
-1.3051087
0.046291735
-1.4073782
0.054294397
-1.5204023
0.057749017
-1.6422824
0.054180718
-1.771877
0.045547941
-1.9084513
0.034999651
-2.0515354
0.025212712
-2.2016698
0.017526367
-2.3604358
0.012060307
-2.5292859
0.0083153783
-2.7092399
0.0057003373
-2.9010853
0.0037866747
-3.1059499
0.00233397
-3.3249409
0.0012376834
-3.560156
0.00046718501
-3.8126097
0.17357168
-0.98274814
0.096114005
-1.0617695
0.049844694
-1.1374291
0.036012878
-1.2200512
0.042964369
-1.3144262
0.05571121
-1.4203267
0.063161118
-1.5355651
0.061583576
-1.6586765
0.05287594
-1.7883584
0.040885646
-1.9236072
0.029227946
-2.0646436
0.019959463
-2.2130668
0.013482268
-2.3706934
0.0092296901
-2.5386683
0.006414358
-2.7179257
0.0044279136
-2.9092592
0.0029269386
-3.1136955
0.0017600285
-3.3323281
0.00088222495
-3.5671786
0.00028934746
-3.8192663
0.19112445
-0.92289861
0.10056356
-0.9970718
0.04390914
-1.0655727
0.02772949
-1.1403201
0.037806119
-1.2269649
0.056223128
-1.3259187
0.068647004
-1.4349419
0.069839534
-1.5521505
0.061378747
-1.6757033
0.047820293
-1.8039729
0.033881245
-1.9367572
0.022584379
-2.0756186
0.014784551
-2.222679
0.0098899627
-2.3794281
0.0068657178
-2.5467114
0.0048609976
-2.7254748
0.0033764715
-2.9164531
0.0021957244
-3.1205789
0.0012565571
-3.3388811
0.00056703117
-3.5734174
0.00013175421
-3.8251321
0.20997388
-0.86698884
0.105331
-0.93685187
0.036267744
-0.99850068
0.017228282
-1.0656082
0.030649917
-1.14467
0.055681922
-1.2368693
0.07419756
-1.340014
0.079024884
-1.4518423
0.071250312
-1.5699718
0.05603841
-1.6920699
0.039357554
-1.817407
0.025476393
-1.9474465
0.015941919
-2.0845512
0.010213144
-2.2306317
0.0069614866
-2.3867354
0.0050060882
-2.5535872
0.0036293908
-2.7321031
0.0025117774
-2.9228526
0.0015686089
-3.1266923
0.00081010657
-3.3447035
0.00028330282
-3.5789346
-1.0604709e-05
-3.8302684
0.22972466
-0.81450147
0.11052648
-0.88072705
0.026866982
-0.93589524
0.0044233143
-0.99561971
0.021353056
-1.0672571
0.053963018
-1.1528765
0.079755532
-1.2504249
0.089202768
-1.3573385
0.082676216
-1.4706911
0.065794281
-1.5873963
0.04587375
-1.7060485
0.028733863
-1.8279445
0.016927322
-1.9556673
0.010098217
-2.0915546
0.0065815486
-2.2370643
0.0047615054
-2.392889
0.0036117432
-2.5595978
0.0026648422
-2.7379952
0.0017932279
-2.9285475
0.0010221835
-3.132134
0.00041023941
-3.3498522
2.8574196e-05
-3.5838083
-0.00012279068
-3.834776
0.24997056
-0.76477764
0.11619376
-0.82811204
0.01572562
-0.87744422
-0.010728473
-0.93007907
0.0098071907
-0.9944646
0.050954338
-1.0736662
0.08525867
-1.1658639
0.10040953
-1.2682563
0.09582226
-1.3774234
0.077352557
-1.4894818
0.053678787
-1.6022047
0.032481148
-1.7165968
0.017716366
-1.8354729
0.0094230818
-1.9616257
0.0055769599
-2.0969743
0.0039973881
-2.2423753
0.0032314046
-2.3982147
0.0025963826
-2.5649575
0.0019020389
-2.7432891
0.0011820055
-2.9336405
0.00053616232
-3.1369705
4.5953385e-05
-3.3544055
-0.00021546811
-3.5880623
-0.00023211026
-3.8386944
0.27050237
-0.71750515
0.12241876
-0.77838854
0.003025167
-0.82272384
-0.028248859
-0.86869725
-0.0040590219
-0.9260559
0.046565679
-0.99899771
0.090640835
-1.0860541
0.11264972
-1.1842518
0.11083115
-1.2897567
0.0909789
-1.3978841
0.06305001
-1.5054296
0.03687257
-1.6129486
0.018290302
-1.7234636
0.0080457154
-1.8402959
0.0037658262
-1.9658396
0.0025531923
-2.1012595
0.0023733138
-2.2469254
0.0022364006
-2.4029956
0.001856272
-2.5698288
0.0012786949
-2.7480636
0.00064606117
-2.9381991
9.6060246e-05
-3.1412773
-0.00028383074
-3.3584203
-0.00043675306
-3.5917686
-0.00033826042
-3.8420792
0.29105739
-0.67281431
0.12927657
-0.73123237
-0.010938438
-0.77122831
-0.048113893
-0.81109656
-0.020266407
-0.86179492
0.04073174
-0.92865963
0.09583543
-1.0107526
0.12589811
-1.1050174
0.12780929
-1.2073096
0.10692777
-1.3121752
0.074289325
-1.4153019
0.042094689
-1.5165811
0.018638903
-1.6191775
0.0058038577
-1.7270166
0.00093161309
-1.8430957
0.00023482883
-1.9689123
0.00089843786
-2.1049076
0.0015010807
-2.2510672
0.0016139055
-2.4074329
0.001292921
-2.5743106
0.00074347842
-2.7524086
0.0001618302
-2.9422916
-0.00030948267
-3.1450905
-0.000587165
-3.3619533
-0.00063551562
-3.5949796
-0.00043483343
-3.8449655
0.3112763
-0.63012689
0.13678452
-0.68671406
-0.025803757
-0.72269672
-0.070185084
-0.75688568
-0.038727231
-0.80141541
0.033429546
-0.8624573
0.10077856
-0.93974769
0.14009866
-1.030277
0.14681833
-1.1297244
0.12543098
-1.2319446
0.08771408
-1.3314083
0.048369184
-1.4271043
0.018766139
-1.5222034
0.0025175979
-1.6213159
-0.0031799776
-1.7281884
-0.0031894477
-1.8447471
-0.0013574259
-1.9715052
0.00029414438
-2.1083428
0.0011292564
-2.2550538
0.0012105266
-2.4116313
0.00082643321
-2.5784688
0.00025922956
-2.7563559
-0.00028653035
-2.9459499
-0.00068580385
-3.1484515
-0.00086724042
-3.365034
-0.00081512778
-3.5977458
-0.00051726391
-3.8474158
0.3310276
-0.58892461
0.1458276
-0.64512049
-0.041055404
-0.67735234
-0.094068259
-0.70605867
-0.059228538
-0.7446541
0.02472671
-0.80021688
0.1054144
-0.87284959
0.15516435
-0.9597841
0.16786958
-1.0566711
0.14668405
-1.1567925
0.10364784
-1.2533408
0.055950999
-1.3441373
0.018695871
-1.4321657
-0.0020069357
-1.5227568
-0.0088626778
-1.6205966
-0.0079910873
-1.7281746
-0.004587196
-1.846103
-0.0014929861
-1.9741339
0.00035638069
-2.1118353
0.001022281
-2.2589579
0.00090381055
-2.4156335
0.00040057389
-2.5823301
-0.00019692065
-2.7599432
-0.00070679589
-2.9492062
-0.0010332621
-3.1514043
-0.0011234507
-3.367708
-0.00097701028
-3.6000967
-0.00059072912
-3.8494587
0.35000305
-0.54956576
0.15605678
-0.60469734
-0.056000866
-0.63565775
-0.11941836
-0.65878913
-0.081607555
-0.69145675
0.014778088
-0.74176403
0.1096979
-0.80989216
0.17097541
-0.89331096
0.19091429
-0.98783923
0.17083475
-1.0863355
0.12240484
-1.1806892
0.065125885
-1.2673045
0.018473877
-1.3487021
-0.0079804025
-1.4309438
-0.016445339
-1.5198424
-0.014479232
-1.6186341
-0.0090096759
-1.7280932
-0.0039793873
-1.8478081
-0.00074983062
-1.9771017
0.00072863583
-2.1154688
0.0009954865
-2.2628227
0.00061004402
-2.4194341
-1.8412256e-05
-2.5858998
-0.00063701761
-2.7631707
-0.0011036124
-2.9520952
-0.0013539452
-3.153984
-0.0013559178
-3.3700037
-0.0011215484
-3.602074
-0.00065575103
-3.8511385
0.36799954
-0.51202303
0.16528668
-0.56396439
-0.070700539
-0.59510446
-0.14675734
-0.61467331
-0.10592184
-0.64177791
0.0036513091
-0.68695891
0.11361186
-0.75072688
0.18738803
-0.83066223
0.21584414
-0.92294056
0.19796696
-1.0201961
0.1442771
-1.1130455
0.076201187
-1.1962173
0.018174324
-1.2714661
-0.015612364
-1.3455101
-0.026289173
-1.4254892
-0.023002885
-1.5156066
-0.014868131
-1.6168996
-0.0072911587
-1.7287651
-0.002224624
-1.8502359
0.00034414984
-1.9804954
0.001137424
-2.1192158
0.00092726224
-2.2665839
0.00028229725
-2.4230282
-0.00044496311
-2.5891797
-0.00106361
-2.7660826
-0.0014765386
-2.9546417
-0.0016480866
-3.1562223
-0.0015649219
-3.3719564
-0.0012491538
-3.6037062
-0.00071225584
-3.8524781
0.3822063
-0.55801842
0.17274181
-0.52429967
-0.086139315
-0.55328679
-0.17526942
-0.57253824
-0.13212234
-0.59532094
-0.0086563036
-0.63568691
0.11715832
-0.69523206
0.20428691
-0.77171483
0.24254303
-0.86176961
0.22812623
-0.95804538
0.16953578
-1.0500109
0.089501126
-1.1304858
0.017886326
-1.2000842
-0.025127811
-1.2660926
-0.038792363
-1.3371306
-0.033951037
-1.4186081
-0.022431041
-1.5119732
-0.01156009
-1.6164274
-0.0040957836
-1.7306168
-9.7607423e-05
-1.8534244
0.0013891359
-1.984212
0.0014103689
-2.1229915
0.00075400566
-2.2702269
-9.6726494e-05
-2.4263907
-0.00088131849
-2.5921826
-0.0014755603
-2.7686815
-0.0018242342
-2.9568726
-0.0019154524
-3.1581375
-0.0017508716
-3.3735942
-0.0013605235
-3.6050268
-0.00076078701
-3.8535192
0.39808438
-0.55439755
0.17615485
-0.56668996
-0.10237045
-0.51251286
-0.2027248
-0.53139046
-0.15920118
-0.55187121
-0.021904968
-0.58789368
0.1203502
-0.64330301
0.22160039
-0.71638748
0.27091837
-0.80422543
0.26136966
-0.89968788
0.19846906
-0.99127067
0.10543778
-1.0697992
0.017766323
-1.1342354
-0.036732557
-1.1923369
-0.054365922
-1.2543871
-0.047735971
-1.327205
-0.031981929
-1.41281
-0.016917311
-1.5102423
-0.0063756263
-1.617695
-0.00053841858
-1.733671
0.0018336668
-1.8572157
0.0021427598
-1.9880853
0.0014632051
-2.1267128
0.0004579008
-2.2736828
-0.00052428839
-2.4295164
-0.0013214175
-2.5949127
-0.0018689892
-2.7709965
-0.0021450754
-2.958798
-0.002155962
-3.1597652
-0.0019144453
-3.3749436
-0.0014564601
-3.6060599
-0.0008017633
-3.8542818
0.41496004
-0.54893227
0.17973202
-0.56322295
-0.12272847
-0.55114433
-0.22845344
-0.49197884
-0.18525656
-0.51132794
-0.035686746
-0.54353423
0.12316369
-0.59484798
0.23923583
-0.66455147
0.3007825
-0.75013123
0.29751156
-0.84477882
0.23114632
-0.93640965
0.12442175
-1.0138428
0.018151986
-1.0737894
-0.050591946
-1.1239636
-0.073453824
-1.1768714
-0.064799956
-1.2409843
-0.043820522
-1.3189521
-0.023486731
-1.4097145
-0.0090568829
-1.5109529
-0.00089488472
-1.6206783
0.0025860699
-1.7376349
0.0032358231
-1.8613131
0.0025001581
-1.9919694
0.0012821911
-2.1302884
5.1529622e-05
-2.276927
-0.00098603596
-2.4323837
-0.001756156
-2.5973768
-0.0022395193
-2.7730232
-0.0024377711
-2.9604532
-0.0023698989
-3.1611222
-0.0020565719
-3.3760294
-0.001537882
-3.6068347
-0.00083571378
-3.8547987
0.43213565
-0.54151643
0.18314777
-0.55758602
-0.14347967
-0.54728917
-0.25781726
-0.52736039
-0.20957801
-0.47324822
-0.049625135
-0.5024769
0.1255152
-0.54976271
0.25698262
-0.61599634
0.33169751
-0.69910762
0.33601714
-0.79279171
0.26674641
-0.88418812
0.14593913
-0.9612761
0.019066551
-1.0181186
-0.066706361
-1.0610086
-0.096462694
-1.1043406
-0.085595
-1.1595475
-0.058247633
-1.2299817
-0.03138158
-1.314388
-0.012107896
-1.4099092
-0.0010539299
-1.5139636
0.0037923111
-1.6249391
0.0048311027
-1.7421021
0.0039805382
-1.8654863
0.0024586463
-1.9957293
0.00089918383
-2.1336536
-0.00043465148
-2.2799144
-0.001463547
-2.4350026
-0.0021761805
-2.599581
-0.0025834691
-2.7748013
-0.0027016537
-2.9618508
-0.0025579535
-3.1622397
-0.0021783781
-3.3768707
-0.0016057837
-3.6073713
-0.00086318195
-3.8550866
0.44900194
-0.53220712
0.18605887
-0.54965809
-0.16469543
-0.54119197
-0.28584088
-0.52486101
-0.24033903
-0.50254733
-0.063173122
-0.46444253
0.12723572
-0.50783023
0.27453555
-0.57052043
0.3630589
-0.65077438
0.37594271
-0.74293887
0.30431171
-0.83393931
0.16833405
-0.90971526
0.019037545
-0.96438587
-0.085697067
-1.0022235
-0.1237697
-1.0368616
-0.11060214
-1.082623
-0.07554845
-1.145514
-0.040691424
-1.2238638
-0.015468288
-1.314143
-0.00086984
-1.4131094
0.0056301533
-1.5186863
0.007102035
-1.6299309
0.0060476441
-1.7467293
0.0040889378
-1.869552
0.0020822761
-1.9992665
0.00036940906
-2.1367546
-0.00096717196
-2.2826508
-0.0019388222
-2.4373694
-0.0025736746
-2.6015466
-0.0028983251
-2.776334
-0.0029367504
-2.9630205
-0.002721163
-3.163123
-0.0022811355
-3.3774928
-0.0016611928
-3.6076933
-0.00088470689
-3.8551721
0.46497296
-0.52117708
0.18816535
-0.53953918
-0.18630197
-0.53287666
-0.31271335
-0.51992546
-0.26943318
-0.50173345
-0.08713429
-0.48359531
0.12855124
-0.46916153
0.29154034
-0.52785621
0.39434942
-0.60501758
0.41653547
-0.69503047
0.34318961
-0.78517843
0.19112232
-0.85966257
0.016430433
-0.91004673
-0.10979364
-0.94316401
-0.15617845
-0.97275877
-0.14039737
-1.0101819
-0.09605146
-1.0652331
-0.051468064
-1.1377917
-0.019041456
-1.2232835
-0.00016973319
-1.3177218
0.0082995159
-1.4185011
0.010249807
-1.5243877
0.0088726533
-1.6351899
0.0062966166
-1.7512534
0.0036760576
-1.8733444
0.0014672252
-2.0025044
-0.0002467558
-2.1395726
-0.0015133497
-2.2851203
-0.002397201
-2.4395036
-0.0029430803
-2.603287
-0.0031828317
-2.7776513
-0.0031436808
-2.963965
-0.0028608245
-3.1638049
-0.0023661757
-3.3779092
-0.0017051281
-3.6078169
-0.00090082056
-3.85507
0.47950415
-0.50863174
0.18923528
-0.52746992
-0.20818296
-0.52248553
-0.33849199
-0.51270904
-0.29662275
-0.49871183
-0.11004587
-0.48386222
0.11701294
-0.47564622
0.30786286
-0.48833375
0.42521426
-0.56173243
0.45743639
-0.64934774
0.38376921
-0.73875836
0.21629381
-0.81310487
0.012874864
-0.85886604
-0.13949616
-0.88301568
-0.19500501
-0.90707629
-0.17519959
-0.94090582
-0.12019258
-0.98900212
-0.063758342
-1.0558576
-0.022688868
-1.137018
0.001252177
-1.2274604
0.012031948
-1.3240311
0.0145021
-1.425137
0.012651515
-1.5304406
0.009226567
-1.6403184
0.0057689483
-1.7554314
0.002900687
-1.8767727
0.00071558349
-2.0054079
-0.00089446805
-2.1420952
-0.0020477577
-2.2873419
-0.002828381
-2.4414095
-0.0032811386
-2.6048168
-0.0034368065
-2.7787509
-0.0033235299
-2.9647164
-0.0029783787
-3.1642954
-0.0024348523
-3.3781438
-0.0017385838
-3.607763
-0.00091202513
-3.854801
0.49208658
-0.49484058
0.1891068
-0.51372577
-0.23014192
-0.5103391
-0.36316929
-0.50341901
-0.32180192
-0.49350658
-0.13148531
-0.48233154
0.10599755
-0.47648604
0.31058958
-0.48137562
0.4553761
-0.52132502
0.49843019
-0.60592944
0.42642998
-0.69494975
0.24629837
-0.771352
0.014441803
-0.81727136
-0.16995012
-0.83089877
-0.23984989
-0.84071517
-0.21420188
-0.87086421
-0.14770247
-0.91620784
-0.077677305
-0.97785633
-0.026226503
-1.0550761
0.0036254131
-1.1420306
0.017068278
-1.2349467
0.020096273
-1.3318498
0.01760121
-1.432179
0.013044521
-1.536321
0.008461985
-1.6450029
0.0047147198
-1.7591188
0.0019258654
-1.8797779
-8.9056559e-05
-2.0079658
-0.0015311625
-2.1443345
-0.0025531169
-2.2893223
-0.0032262572
-2.4431107
-0.0035865301
-2.6061467
-0.003660896
-2.7796671
-0.0034776606
-2.9652893
-0.0030753374
-3.1646245
-0.0024884864
-3.3782056
-0.0017625033
-3.6075454
-0.00091879991
-3.8543782
0.50225307
-0.48015844
0.18764952
-0.49860759
-0.25190387
-0.49679113
-0.38674291
-0.49237112
-0.34499329
-0.48619785
-0.1511924
-0.47887091
0.09571003
-0.47572685
0.31416986
-0.48313589
0.47334653
-0.50230114
0.53937456
-0.56525386
0.47098155
-0.65322112
0.28147796
-0.73256398
0.023912532
-0.78327902
-0.19500849
-0.79453224
-0.28705467
-0.7860569
-0.25707443
-0.80048076
-0.17659635
-0.84463488
-0.092933882
-0.90358009
-0.029475456
-0.97724538
0.0072151816
-1.0611951
0.023651807
-1.1509494
0.027274067
-1.2442072
0.02394932
-1.3401162
0.017933415
-1.4389584
0.011869452
-1.5415946
0.0069558746
-1.6490189
0.0033868182
-1.7622575
0.00089206111
-1.8823724
-0.00086730004
-2.0101995
-0.0021300386
-2.1463153
-0.0030195845
-2.2910899
-0.0035881719
-2.4446167
-0.0038593739
-2.6072945
-0.0038562684
-2.7804088
-0.0036076059
-2.965711
-0.0031532131
-3.1647953
-0.0025283568
-3.3781175
-0.0017777808
-3.6071809
-0.00092158962
-3.8538201
-0.46498866
0.50957305
0.1847176
-0.48245453
-0.27312278
-0.48221364
-0.40918638
-0.47994364
-0.36633932
-0.47698261
-0.16907648
-0.47339155
0.086308094
-0.47319372
0.3185706
-0.48325956
0.49307036
-0.5058829
0.57362326
-0.53961217
0.51702465
-0.61384005
0.3207537
-0.69478715
0.040116276
-0.75109482
-0.21346456
-0.76699102
-0.33412885
-0.74965178
-0.30566737
-0.7399552
-0.20628577
-0.77331032
-0.10779261
-0.83225866
-0.032191663
-0.90338242
0.012300904
-0.984751
0.032022479
-1.0717958
0.036263088
-1.1618949
0.031923242
-1.2539383
0.024090048
-1.3479779
0.016118974
-1.4449129
0.0096733297
-1.5459786
0.0050881976
-1.6523026
0.0020010678
-1.7648636
-0.00010094178
-1.8845752
-0.0015886846
-2.0121484
-0.0026766299
-2.1480627
-0.0034433164
-2.2926574
-0.0039139362
-2.4459442
-0.004100709
-2.6082751
-0.004024406
-2.7810009
-0.0037149513
-2.9659951
-0.0032134893
-3.1648369
-0.0025556711
-3.3778866
-0.0017852545
-3.6066822
-0.00092081508
-3.8531386
-0.4656647
0.18016016
-0.44971346
0.51359211
-0.29338785
-0.46701063
-0.43041437
-0.46656785
-0.38606579
-0.46615662
-0.18526117
-0.46587644
0.077946495
-0.46879386
0.32372874
-0.48154328
0.51441569
-0.50768939
0.61099482
-0.54635259
0.56681091
-0.59198323
0.36282373
-0.65806788
0.061189292
-0.71806951
-0.22685715
-0.73973506
-0.37976597
-0.72339479
-0.36141184
-0.69625718
-0.24130801
-0.70730837
-0.12072574
-0.76271188
-0.033485214
-0.83336188
0.019138969
-0.91253098
0.042398975
-0.99726003
0.047263245
-1.0846376
0.041739517
-1.1733281
0.031718034
-1.2631058
0.021352474
-1.3547411
0.012920754
-1.4496822
0.0070099855
-1.5493798
0.0031829682
-1.6548915
0.00071325695
-1.7670099
-0.00098185054
-1.8864633
-0.0022297778
-2.0138477
-0.0031666205
-2.1496062
-0.0038245953
-2.2940432
-0.0042048837
-2.4471015
-0.0043120865
-2.6090975
-0.0041669223
-2.7814581
-0.0038012812
-2.9661683
-0.0032575873
-3.1647568
-0.0025715832
-3.3775334
-0.001785713
-3.6060641
-0.00091686459
-3.8523489
-0.4516384
-0.31223011
-0.44881501
0.17402098
-0.43503161
0.51411916
-0.45028023
-0.45270904
-0.40444887
-0.45410102
-0.20010011
-0.45639134
0.07069325
-0.46242204
0.32964298
-0.47795419
0.53719426
-0.50745867
0.65123124
-0.55104929
0.62108488
-0.60324524
0.42248065
-0.65386233
0.085545913
-0.68452351
-0.23632382
-0.71051497
-0.42287464
-0.69852725
-0.42159721
-0.66542333
-0.28594129
-0.65385823
-0.13441818
-0.69580361
-0.03175326
-0.76671829
0.028041895
-0.84446448
0.054971359
-0.92714373
0.060425744
-1.0121604
0.053583321
-1.0979726
0.041021976
-1.1840284
0.027726109
-1.2708443
0.016760049
-1.3599329
0.0091232917
-1.4531443
0.0043563017
-1.5518712
0.0014722682
-1.6569001
-0.00038987466
-1.768786
-0.0017334365
-1.8880932
-0.002787833
-2.0153416
-0.0036024645
-2.1509623
-0.0041660984
-2.2952604
-0.0044631122
-2.448101
-0.0044952701
-2.6097778
-0.0042854592
-2.7818069
-0.0038681326
-2.9662468
-0.0032868743
-3.1645781
-0.0025771732
-3.3770606
-0.0017798928
-3.6053385
-0.00091010654
-3.8514617
-0.43884412
-0.46861679
-0.43704171
-0.32881297
-0.43235312
0.16609277
-0.42132719
0.51090007
-0.42179532
-0.44125117
-0.21417045
-0.44509398
0.064475158
-0.45400155
0.336372
-0.4724462
0.5612596
-0.50520004
0.69417904
-0.55354588
0.67977225
-0.61237832
0.48789007
-0.67096239
0.13940165
-0.70989034
-0.24244211
-0.68020833
-0.46255205
-0.67260926
-0.4823515
-0.63985454
-0.34010078
-0.61335829
-0.15433201
-0.63598692
-0.02674011
-0.70296792
0.039703435
-0.78046756
0.069836407
-0.86128215
0.07585123
-0.94421087
0.067596738
-1.0275494
0.052195219
-1.1104201
0.035412301
-1.1929376
0.021266144
-1.276538
0.011394348
-1.3633968
0.0054160013
-1.455412
0.0020538372
-1.5536318
8.3365529e-05
-1.6584896
-0.0012686448
-1.7702998
-0.0023560701
-1.889524
-0.0032708512
-2.0166552
-0.0039902813
-2.1521581
-0.0044715417
-2.2963194
-0.0046909527
-2.4489501
-0.0046520396
-2.6103267
-0.004381616
-2.7820606
-0.0039169969
-2.966248
-0.0033026463
-3.1642937
-0.0025734717
-3.3764863
-0.0017684909
-3.6045175
-0.0009008831
-3.8504889
-0.42805106
-0.43844538
-0.42609914
-0.48507637
-0.42297182
-0.34299655
-0.41688339
0.15638876
-0.40915162
0.50375341
-0.22822681
-0.43224292
0.059045697
-0.4435168
0.34403221
-0.46499925
0.58655733
-0.50096007
0.73973437
-0.553903
0.74319306
-0.61962754
0.5596652
-0.68654988
0.20081901
-0.73466729
-0.21642461
-0.73774729
-0.49849205
-0.64592522
-0.54074453
-0.61616753
-0.40017387
-0.58174066
-0.18339134
-0.58619891
-0.021867308
-0.64288755
0.055128504
-0.72036792
0.087031669
-0.79953093
0.093549962
-0.88053417
0.083865666
-0.96174891
0.065414373
-1.0419369
0.044597246
-1.1207117
0.026534957
-1.199251
0.013789165
-1.2799695
0.0062355733
-1.3652985
0.0022985655
-1.4567548
0.00028664724
-1.5548905
-0.00094660454
-1.6598012
-0.0019430402
-1.7716336
-0.0028683985
-1.8907979
-0.0036920796
-2.017822
-0.0043374174
-2.1531974
-0.0047447418
-2.2972312
-0.004890639
-2.449654
-0.0047840963
-2.6107592
-0.0044569407
-2.7822319
-0.0039493016
-2.9661681
-0.0033061502
-3.1639239
-0.0025614475
-3.3758135
-0.0017521675
-3.6036115
-0.00088952278
-3.8494392
-0.41818668
-0.24311958
-0.41556715
-0.45480063
-0.41368404
-0.49985292
-0.41016378
-0.35451039
-0.4030718
0.1450365
-0.39904604
0.4926081
0.053956999
-0.43102468
0.35277098
-0.45562827
0.61312245
-0.49480929
0.78790987
-0.55228571
0.81149156
-0.62487839
0.63808756
-0.70053335
0.27040672
-0.75854084
-0.18212019
-0.77089213
-0.51107585
-0.72682866
-0.59546493
-0.59303059
-0.46227588
-0.55589658
-0.22034758
-0.54654705
-0.020945163
-0.58902589
0.074151995
-0.66377374
0.10673941
-0.74186335
0.11341599
-0.82086833
0.10239654
-0.90023526
0.080823758
-0.97823492
0.055484972
-1.053835
0.032688831
-1.1277896
0.016283635
-1.2026423
0.0066688532
-1.2813498
0.0020122968
-1.3660129
3.2719155e-05
-1.4574961
-0.00090915945
-1.5558705
-0.0016454867
-1.6609723
-0.0024508325
-1.772854
-0.003296836
-1.891954
-0.0040659472
-2.0188506
-0.0046508643
-2.1540992
-0.0049890716
-2.297995
-0.0050641626
-2.4502206
-0.0048930271
-2.6110762
-0.0045129163
-2.7823219
-0.003966427
-2.9660233
-0.0032985705
-3.1634634
-0.0025420382
-3.3750585
-0.0017315534
-3.6026303
-0.00087632591
-3.8483222
-0.41667504
0.048563022
-0.40360496
-0.26008805
-0.40301939
-0.47125312
-0.40230346
-0.51317038
-0.39903799
-0.36332943
-0.39149856
0.13220233
-0.39149173
0.4777527
0.36271718
-0.44437085
0.64106834
-0.48684062
0.83861216
-0.54865976
0.88422334
-0.62770838
0.72326828
-0.71262675
0.3470144
-0.77965744
-0.14139026
-0.80127045
-0.51621195
-0.76748231
-0.64367152
-0.68043799
-0.5239964
-0.53301592
-0.26345337
-0.51442388
-0.026226391
-0.54304714
0.094384107
-0.61100919
0.1292804
-0.68802382
0.13521312
-0.76505568
0.12313223
-0.8426815
0.098522785
-0.91892855
0.068288163
-0.99196856
0.039888694
-1.0618587
0.01887125
-1.131153
0.0065574012
-1.203352
0.00095731985
-1.2812002
-0.00090628143
-1.3660096
-0.0013324833
-1.4579697
-0.0015853534
-1.5567678
-0.0020915393
-1.6620955
-0.0028408538
-1.7740053
-0.0036683964
-1.8930074
-0.004405415
-2.0197567
-0.0049363609
-2.1548572
-0.0052072345
-2.298623
-0.0052132221
-2.4506525
-0.0049803119
-2.6112882
-0.0045509701
-2.7823443
-0.0039696976
-2.9658063
-0.0032810647
-3.1629301
-0.0025161351
-3.3742209
-0.001707231
-3.6015835
-0.00086156338
-3.8471451
-0.43129951
0.37392327
-0.4003318
0.041401241
-0.38851167
-0.27957781
-0.39096685
-0.48834006
-0.39222482
-0.52540551
-0.38983951
-0.3697634
-0.38276418
0.11817183
-0.38700313
0.45991756
0.67055014
-0.47713308
0.8915613
-0.54293315
0.96078564
-0.6279258
0.81333669
-0.72042457
0.42856623
-0.79680419
-0.095435701
-0.82768864
-0.51679616
-0.80246974
-0.68514639
-0.72787648
-0.60197673
-0.60414311
-0.31147515
-0.48651021
-0.03900583
-0.50330181
0.1125291
-0.56283505
0.15448086
-0.63784106
0.15871769
-0.71285186
0.14588991
-0.7888028
0.11858099
-0.86365988
0.083231441
-0.9347367
0.048333121
-1.0011522
0.021576484
-1.0652379
0.0057357343
-1.1310462
-0.0011262684
-1.2020771
-0.0027832398
-1.2801923
-0.00243662
-1.3657604
-0.0019147197
-1.458443
-0.0018821899
-1.5577153
-0.0023706431
-1.6632294
-0.0031611664
-1.7751089
-0.0040063927
-1.8939669
-0.0047205893
-2.0205361
-0.0051980867
-2.1554882
-0.0054012357
-2.2991103
-0.0053392601
-2.4509593
-0.0050473273
-2.6113966
-0.0045724823
-2.7822967
-0.0039604231
-2.9655317
-0.0032547439
-3.1623072
-0.0024845808
-3.3733151
-0.0016797215
-3.6004789
-0.00084547475
-3.8459187
-0.4658
0.70176402
-0.41514817
0.38531105
-0.38328543
0.032285714
-0.37322152
-0.3022777
-0.37951004
-0.50676635
-0.38361568
-0.53701293
-0.38269089
-0.37460027
-0.37732019
0.10316785
-0.38525681
0.43954644
0.94637907
-0.53508762
1.0403632
-0.62522691
0.90691563
-0.72422642
0.51385092
-0.80843769
-0.045947838
-0.84844155
-0.51376633
-0.83255361
-0.72204493
-0.76748704
-0.67533467
-0.65625322
-0.39827734
-0.51882968
-0.057292242
-0.46976093
0.12650218
-0.51881489
0.18113864
-0.59104799
0.18378645
-0.66416648
0.17040615
-0.73827606
0.14098878
-0.81206308
0.10055096
-0.88178944
0.058278446
-0.94535063
0.024458621
-1.0046205
0.0040405823
-1.0641655
-0.0045386468
-1.1283493
-0.0059315425
-1.1997241
-0.0044870175
-1.2789596
-0.0028118515
-1.3656387
-0.0019317441
-1.4591062
-0.0019419625
-1.558791
-0.0025640338
-1.6643956
-0.0034519621
-1.7761653
-0.0043283438
-1.8948297
-0.0050183365
-2.0211984
-0.005438702
-2.15598
-0.0055724822
-2.2994714
-0.0054435003
-2.4511373
-0.0050953981
-2.6114133
-0.0045788178
-2.7821867
-0.0039398725
-2.9651679
-0.0032206726
-3.1616116
-0.0024481199
-3.3723437
-0.0016495046
-3.5993258
-0.00082828357
-3.844649
-0.52522936
1.0026788
-0.45034318
0.73367262
-0.39905005
0.39764595
-0.36520309
0.020384804
-0.35785513
-0.32885736
-0.36863461
-0.52741906
-0.37612447
-0.5489214
-0.37771761
-0.37895429
-0.37446456
0.087034544
-0.38604986
0.4165721
1.1219752
-0.61942838
1.0034051
-0.72450311
0.60203034
-0.81522872
0.0062067743
-0.86280766
-0.50817631
-0.85591146
-0.75523277
-0.80131891
-0.74231295
-0.70227907
-0.48989619
-0.56617069
-0.12163098
-0.455994
0.13694773
-0.48164898
0.20817007
-0.54732595
0.21017731
-0.61863159
0.19634694
-0.69094104
0.16573109
-0.76380896
0.12047317
-0.83274848
0.070033858
-0.89415348
0.027633158
-0.94903411
0.0013184585
-1.0024432
-0.0096115267
-1.0597298
-0.010708742
-1.1242926
-0.0077743514
-1.1972075
-0.0044859531
-1.2780445
-0.0023628045
-1.3659051
-0.0016163628
-1.4600623
-0.0018977114
-1.5600172
-0.0027380003
-1.6655887
-0.0037425259
-1.7771687
-0.0046455484
-1.8955951
-0.0053024966
-2.0217343
-0.0056596083
-2.1563483
-0.0057219106
-2.2996972
-0.0055270504
-2.4512009
-0.0051258214
-2.6113363
-0.0045713367
-2.7819883
-0.0039092845
-2.9647306
-0.0031797924
-3.1608386
-0.0024074449
-3.3713225
-0.0016170458
-3.5981309
-0.00081016926