/*--------------------------------*- C++ -*----------------------------------*\
| =========                 |                                                 |
| \\      /  F ield         | OpenFOAM: The Open Source CFD Toolbox           |
|  \\    /   O peration     | Version:  v2012                                 |
|   \\  /    A nd           | Website:  www.openfoam.com                      |
|    \\/     M anipulation  |                                                 |
\*---------------------------------------------------------------------------*/
FoamFile
{
    version     2.0;
    format      ascii;
    class       pointVectorField;
    location    "37.4809418257685962";
    object      pointDisplacement;
}
// * * * * * * * * * * * * * * * * * * * * * * * * * * * * * * * * * * * * * //

dimensions      [0 1 0 0 0 0 0];


internalField   nonuniform List<vector> 
18840
(
(-1.8323745 -0 -0)
(-1.8321972 0 0)
(-1.8316671 0 0)
(-1.830788 0 0)
(-1.8295625 0 0)
(-1.8279924 0 0)
(-1.826079 0 0)
(-1.8238226 0 0)
(-1.821223 0 0)
(-1.8182794 0 0)
(-1.8149908 0 0)
(-1.8113553 0 0)
(-1.8073708 0 0)
(-1.8030349 0 0)
(-1.7983447 0 0)
(-1.7932971 0 0)
(-1.7878889 0 0)
(-1.7821165 0 0)
(-1.7759766 0 0)
(-1.7694603 0 0)
(-1.7611902 0 0)
(-1.8323745 -0 -0)
(-1.832196 0 0)
(-1.8316625 0 0)
(-1.8307781 0 0)
(-1.8295457 0 0)
(-1.8279674 0 0)
(-1.8260446 0 0)
(-1.8237778 0 0)
(-1.821167 0 0)
(-1.8182116 0 0)
(-1.8149107 0 0)
(-1.8112626 0 0)
(-1.8072654 0 0)
(-1.8029169 0 0)
(-1.7982142 0 0)
(-1.7931547 0 0)
(-1.787735 0 0)
(-1.7819518 0 0)
(-1.7758015 0 0)
(-1.7692774 0 0)
(-1.7623607 0 0)
(-1.8323745 -0 -0)
(-1.8321945 0 0)
(-1.8316567 0 0)
(-1.8307654 0 0)
(-1.8295241 0 0)
(-1.827935 0 0)
(-1.8259997 0 0)
(-1.823719 0 0)
(-1.8210931 0 0)
(-1.8181217 0 0)
(-1.8148039 0 0)
(-1.8111382 0 0)
(-1.8071229 0 0)
(-1.802756 0 0)
(-1.7980349 0 0)
(-1.792957 0 0)
(-1.7875191 0 0)
(-1.7817181 0 0)
(-1.7755505 0 0)
(-1.7690118 0 0)
(-1.7619916 0 0)
(-1.8323745 -0 -0)
(-1.832193 0 0)
(-1.8316509 0 0)
(-1.8307529 0 0)
(-1.8295028 0 0)
(-1.827903 0 0)
(-1.8259555 0 0)
(-1.8236612 0 0)
(-1.8210205 0 0)
(-1.8180332 0 0)
(-1.8146987 0 0)
(-1.8110156 0 0)
(-1.8069825 0 0)
(-1.8025973 0 0)
(-1.7978578 0 0)
(-1.7927615 0 0)
(-1.7873057 0 0)
(-1.7814872 0 0)
(-1.7753031 0 0)
(-1.768749 0 0)
(-1.7616327 0 0)
(-1.8323745 -0 -0)
(-1.8321915 0 0)
(-1.8316452 0 0)
(-1.8307406 0 0)
(-1.8294818 0 0)
(-1.8278715 0 0)
(-1.8259119 0 0)
(-1.8236041 0 0)
(-1.8209488 0 0)
(-1.8179458 0 0)
(-1.8145946 0 0)
(-1.8108941 0 0)
(-1.8068429 0 0)
(-1.8024393 0 0)
(-1.797681 0 0)
(-1.7925659 0 0)
(-1.7870913 0 0)
(-1.7812545 0 0)
(-1.7750529 0 0)
(-1.7684824 0 0)
(-1.7612773 0 0)
(-1.8323745 -0 -0)
(-1.83219 0 0)
(-1.8316395 0 0)
(-1.8307285 0 0)
(-1.8294611 0 0)
(-1.8278405 0 0)
(-1.8258689 0 0)
(-1.8235477 0 0)
(-1.8208777 0 0)
(-1.817859 0 0)
(-1.814491 0 0)
(-1.8107729 0 0)
(-1.8067033 0 0)
(-1.8022805 0 0)
(-1.7975026 0 0)
(-1.7923675 0 0)
(-1.7868726 0 0)
(-1.7810157 0 0)
(-1.774794 0 0)
(-1.768204 0 0)
(-1.7609164 0 0)
(-1.8323745 -0 -0)
(-1.8321886 0 0)
(-1.831634 0 0)
(-1.8307165 0 0)
(-1.8294407 0 0)
(-1.8278098 0 0)
(-1.8258264 0 0)
(-1.8234919 0 0)
(-1.8208073 0 0)
(-1.8177727 0 0)
(-1.8143877 0 0)
(-1.8106514 0 0)
(-1.8065627 0 0)
(-1.80212 0 0)
(-1.7973212 0 0)
(-1.7921644 0 0)
(-1.7866473 0 0)
(-1.7807674 0 0)
(-1.7745224 0 0)
(-1.7679087 0 0)
(-1.7605443 0 0)
(-1.8323745 -0 -0)
(-1.8321872 0 0)
(-1.8316286 0 0)
(-1.8307048 0 0)
(-1.8294206 0 0)
(-1.8277796 0 0)
(-1.8257844 0 0)
(-1.8234367 0 0)
(-1.8207374 0 0)
(-1.8176867 0 0)
(-1.8142844 0 0)
(-1.8105296 0 0)
(-1.806421 0 0)
(-1.8019571 0 0)
(-1.797136 0 0)
(-1.7919556 0 0)
(-1.7864136 0 0)
(-1.7805077 0 0)
(-1.7742355 0 0)
(-1.7675936 0 0)
(-1.7601581 0 0)
(-1.8323745 -0 -0)
(-1.8321858 0 0)
(-1.8316233 0 0)
(-1.8306933 0 0)
(-1.8294009 0 0)
(-1.82775 0 0)
(-1.8257432 0 0)
(-1.8233823 0 0)
(-1.8206683 0 0)
(-1.8176014 0 0)
(-1.8141814 0 0)
(-1.8104074 0 0)
(-1.8062781 0 0)
(-1.8017919 0 0)
(-1.7969468 0 0)
(-1.7917408 0 0)
(-1.7861714 0 0)
(-1.7802362 0 0)
(-1.7739327 0 0)
(-1.7672579 0 0)
(-1.7597574 0 0)
(-1.8323745 -0 -0)
(-1.8321845 0 0)
(-1.8316181 0 0)
(-1.8306822 0 0)
(-1.8293819 0 0)
(-1.8277212 0 0)
(-1.825703 0 0)
(-1.8233291 0 0)
(-1.8206004 0 0)
(-1.8175173 0 0)
(-1.8140794 0 0)
(-1.8102857 0 0)
(-1.8061349 0 0)
(-1.8016253 0 0)
(-1.7967548 0 0)
(-1.7915211 0 0)
(-1.7859218 0 0)
(-1.7799541 0 0)
(-1.7736155 0 0)
(-1.7669031 0 0)
(-1.7593442 0 0)
(-1.8323745 -0 -0)
(-1.8321829 0 0)
(-1.8316117 0 0)
(-1.8306682 0 0)
(-1.829358 0 0)
(-1.827685 0 0)
(-1.8256522 0 0)
(-1.8232616 0 0)
(-1.820514 0 0)
(-1.8174099 0 0)
(-1.8139486 0 0)
(-1.8101293 0 0)
(-1.8059503 0 0)
(-1.8014099 0 0)
(-1.7965059 0 0)
(-1.7912356 0 0)
(-1.7855965 0 0)
(-1.7795857 0 0)
(-1.7732003 0 0)
(-1.7664378 0 0)
(-1.7588213 0 0)
(-1.8323745 -0 -0)
(-1.8321972 0 0)
(-1.8316671 0 0)
(-1.830788 0 0)
(-1.8295625 0 0)
(-1.8279924 0 0)
(-1.826079 0 0)
(-1.8238226 0 0)
(-1.821223 0 0)
(-1.8182794 0 0)
(-1.8149908 0 0)
(-1.8113553 0 0)
(-1.8073708 0 0)
(-1.8030349 0 0)
(-1.7983447 0 0)
(-1.7932971 0 0)
(-1.7878889 0 0)
(-1.7821165 0 0)
(-1.7759766 0 0)
(-1.7694603 0 0)
(-1.7611902 0 0)
(-1.8323745 -0 -0)
(-1.832196 0 0)
(-1.8316625 0 0)
(-1.8307781 0 0)
(-1.8295457 0 0)
(-1.8279674 0 0)
(-1.8260446 0 0)
(-1.8237778 0 0)
(-1.821167 0 0)
(-1.8182116 0 0)
(-1.8149107 0 0)
(-1.8112626 0 0)
(-1.8072654 0 0)
(-1.8029169 0 0)
(-1.7982142 0 0)
(-1.7931547 0 0)
(-1.787735 0 0)
(-1.7819518 0 0)
(-1.7758015 0 0)
(-1.7692774 0 0)
(-1.7623607 0 0)
(-1.8323745 -0 -0)
(-1.8321945 0 0)
(-1.8316567 0 0)
(-1.8307654 0 0)
(-1.8295241 0 0)
(-1.827935 0 0)
(-1.8259997 0 0)
(-1.823719 0 0)
(-1.8210931 0 0)
(-1.8181217 0 0)
(-1.8148039 0 0)
(-1.8111382 0 0)
(-1.8071229 0 0)
(-1.802756 0 0)
(-1.7980349 0 0)
(-1.792957 0 0)
(-1.7875191 0 0)
(-1.7817181 0 0)
(-1.7755505 0 0)
(-1.7690118 0 0)
(-1.7619916 0 0)
(-1.8323745 -0 -0)
(-1.832193 0 0)
(-1.8316509 0 0)
(-1.8307529 0 0)
(-1.8295028 0 0)
(-1.827903 0 0)
(-1.8259555 0 0)
(-1.8236612 0 0)
(-1.8210205 0 0)
(-1.8180332 0 0)
(-1.8146987 0 0)
(-1.8110156 0 0)
(-1.8069825 0 0)
(-1.8025973 0 0)
(-1.7978578 0 0)
(-1.7927615 0 0)
(-1.7873057 0 0)
(-1.7814872 0 0)
(-1.7753031 0 0)
(-1.768749 0 0)
(-1.7616327 0 0)
(-1.8323745 -0 -0)
(-1.8321915 0 0)
(-1.8316452 0 0)
(-1.8307406 0 0)
(-1.8294818 0 0)
(-1.8278715 0 0)
(-1.8259119 0 0)
(-1.8236041 0 0)
(-1.8209488 0 0)
(-1.8179458 0 0)
(-1.8145946 0 0)
(-1.8108941 0 0)
(-1.8068429 0 0)
(-1.8024393 0 0)
(-1.797681 0 0)
(-1.7925659 0 0)
(-1.7870913 0 0)
(-1.7812545 0 0)
(-1.7750529 0 0)
(-1.7684824 0 0)
(-1.7612773 0 0)
(-1.8323745 -0 -0)
(-1.83219 0 0)
(-1.8316395 0 0)
(-1.8307285 0 0)
(-1.8294611 0 0)
(-1.8278405 0 0)
(-1.8258689 0 0)
(-1.8235477 0 0)
(-1.8208777 0 0)
(-1.817859 0 0)
(-1.814491 0 0)
(-1.8107729 0 0)
(-1.8067033 0 0)
(-1.8022805 0 0)
(-1.7975026 0 0)
(-1.7923675 0 0)
(-1.7868726 0 0)
(-1.7810157 0 0)
(-1.774794 0 0)
(-1.768204 0 0)
(-1.7609164 0 0)
(-1.8323745 -0 -0)
(-1.8321886 0 0)
(-1.831634 0 0)
(-1.8307165 0 0)
(-1.8294407 0 0)
(-1.8278098 0 0)
(-1.8258264 0 0)
(-1.8234919 0 0)
(-1.8208073 0 0)
(-1.8177727 0 0)
(-1.8143877 0 0)
(-1.8106514 0 0)
(-1.8065627 0 0)
(-1.80212 0 0)
(-1.7973212 0 0)
(-1.7921644 0 0)
(-1.7866473 0 0)
(-1.7807674 0 0)
(-1.7745224 0 0)
(-1.7679087 0 0)
(-1.7605443 0 0)
(-1.8323745 -0 -0)
(-1.8321872 0 0)
(-1.8316286 0 0)
(-1.8307048 0 0)
(-1.8294206 0 0)
(-1.8277796 0 0)
(-1.8257844 0 0)
(-1.8234367 0 0)
(-1.8207374 0 0)
(-1.8176867 0 0)
(-1.8142844 0 0)
(-1.8105296 0 0)
(-1.806421 0 0)
(-1.8019571 0 0)
(-1.797136 0 0)
(-1.7919556 0 0)
(-1.7864136 0 0)
(-1.7805077 0 0)
(-1.7742355 0 0)
(-1.7675936 0 0)
(-1.7601581 0 0)
(-1.8323745 -0 -0)
(-1.8321858 0 0)
(-1.8316233 0 0)
(-1.8306933 0 0)
(-1.8294009 0 0)
(-1.82775 0 0)
(-1.8257432 0 0)
(-1.8233823 0 0)
(-1.8206683 0 0)
(-1.8176014 0 0)
(-1.8141814 0 0)
(-1.8104074 0 0)
(-1.8062781 0 0)
(-1.8017919 0 0)
(-1.7969468 0 0)
(-1.7917408 0 0)
(-1.7861714 0 0)
(-1.7802362 0 0)
(-1.7739327 0 0)
(-1.7672579 0 0)
(-1.7597574 0 0)
(-1.8323745 -0 -0)
(-1.8321845 0 0)
(-1.8316181 0 0)
(-1.8306822 0 0)
(-1.8293819 0 0)
(-1.8277212 0 0)
(-1.825703 0 0)
(-1.8233291 0 0)
(-1.8206004 0 0)
(-1.8175173 0 0)
(-1.8140794 0 0)
(-1.8102857 0 0)
(-1.8061349 0 0)
(-1.8016253 0 0)
(-1.7967548 0 0)
(-1.7915211 0 0)
(-1.7859218 0 0)
(-1.7799541 0 0)
(-1.7736155 0 0)
(-1.7669031 0 0)
(-1.7593442 0 0)
(-1.8323745 -0 -0)
(-1.8321829 0 0)
(-1.8316117 0 0)
(-1.8306682 0 0)
(-1.829358 0 0)
(-1.827685 0 0)
(-1.8256522 0 0)
(-1.8232616 0 0)
(-1.820514 0 0)
(-1.8174099 0 0)
(-1.8139486 0 0)
(-1.8101293 0 0)
(-1.8059503 0 0)
(-1.8014099 0 0)
(-1.7965059 0 0)
(-1.7912356 0 0)
(-1.7855965 0 0)
(-1.7795857 0 0)
(-1.7732003 0 0)
(-1.7664378 0 0)
(-1.7588213 0 0)
(-1.8323745 -0 -0)
(-1.832201 0 0)
(-1.8316816 0 0)
(-1.8308187 0 0)
(-1.8296139 0 0)
(-1.8280681 0 0)
(-1.8261813 0 0)
(-1.8239532 0 0)
(-1.8213827 0 0)
(-1.8184685 0 0)
(-1.8152085 0 0)
(-1.8116003 0 0)
(-1.807641 0 0)
(-1.8033273 0 0)
(-1.7986556 0 0)
(-1.7936219 0 0)
(-1.7882216 0 0)
(-1.7824502 0 0)
(-1.7763024 0 0)
(-1.7697662 0 0)
(-1.762254 0 0)
(-1.8323745 -0 -0)
(-1.8322007 0 0)
(-1.8316806 0 0)
(-1.8308167 0 0)
(-1.8296104 0 0)
(-1.8280628 0 0)
(-1.8261739 0 0)
(-1.8239434 0 0)
(-1.8213705 0 0)
(-1.8184534 0 0)
(-1.8151905 0 0)
(-1.8115791 0 0)
(-1.8076164 0 0)
(-1.8032992 0 0)
(-1.7986237 0 0)
(-1.793586 0 0)
(-1.7881817 0 0)
(-1.7824059 0 0)
(-1.7762537 0 0)
(-1.7697128 0 0)
(-1.7622028 0 0)
(-1.8323745 -0 -0)
(-1.8322002 0 0)
(-1.8316785 0 0)
(-1.830812 0 0)
(-1.8296025 0 0)
(-1.8280508 0 0)
(-1.8261572 0 0)
(-1.8239214 0 0)
(-1.8213426 0 0)
(-1.8184192 0 0)
(-1.8151494 0 0)
(-1.8115307 0 0)
(-1.8075604 0 0)
(-1.8032352 0 0)
(-1.7985514 0 0)
(-1.7935051 0 0)
(-1.7880919 0 0)
(-1.7823071 0 0)
(-1.7761455 0 0)
(-1.7695954 0 0)
(-1.7620984 0 0)
(-1.8323745 -0 -0)
(-1.8321997 0 0)
(-1.8316766 0 0)
(-1.8308079 0 0)
(-1.8295954 0 0)
(-1.8280401 0 0)
(-1.8261425 0 0)
(-1.8239021 0 0)
(-1.8213183 0 0)
(-1.8183896 0 0)
(-1.8151141 0 0)
(-1.8114896 0 0)
(-1.8075132 0 0)
(-1.8031817 0 0)
(-1.7984916 0 0)
(-1.793439 0 0)
(-1.7880193 0 0)
(-1.7822281 0 0)
(-1.7760602 0 0)
(-1.7695045 0 0)
(-1.762037 0 0)
(-1.8323745 -0 -0)
(-1.8321992 0 0)
(-1.8316749 0 0)
(-1.8308042 0 0)
(-1.8295891 0 0)
(-1.8280308 0 0)
(-1.8261297 0 0)
(-1.8238855 0 0)
(-1.8212976 0 0)
(-1.8183646 0 0)
(-1.8150848 0 0)
(-1.8114557 0 0)
(-1.8074748 0 0)
(-1.8031389 0 0)
(-1.7984445 0 0)
(-1.7933876 0 0)
(-1.787964 0 0)
(-1.7821691 0 0)
(-1.775998 0 0)
(-1.76944 0 0)
(-1.762018 0 0)
(-1.8323745 -0 -0)
(-1.8321988 0 0)
(-1.8316733 0 0)
(-1.8308009 0 0)
(-1.8295837 0 0)
(-1.8280228 0 0)
(-1.8261188 0 0)
(-1.8238716 0 0)
(-1.8212805 0 0)
(-1.8183442 0 0)
(-1.8150611 0 0)
(-1.8114289 0 0)
(-1.807445 0 0)
(-1.8031064 0 0)
(-1.7984095 0 0)
(-1.7933505 0 0)
(-1.7879253 0 0)
(-1.7821293 0 0)
(-1.7759576 0 0)
(-1.7694006 0 0)
(-1.7620395 0 0)
(-1.8323745 -0 -0)
(-1.8321985 0 0)
(-1.831672 0 0)
(-1.8307981 0 0)
(-1.829579 0 0)
(-1.828016 0 0)
(-1.8261097 0 0)
(-1.8238601 0 0)
(-1.8212666 0 0)
(-1.8183281 0 0)
(-1.8150428 0 0)
(-1.8114088 0 0)
(-1.8074233 0 0)
(-1.8030835 0 0)
(-1.798386 0 0)
(-1.793327 0 0)
(-1.7879023 0 0)
(-1.7821077 0 0)
(-1.7759382 0 0)
(-1.7693851 0 0)
(-1.7620998 0 0)
(-1.8323745 -0 -0)
(-1.8321982 0 0)
(-1.8316708 0 0)
(-1.8307957 0 0)
(-1.8295751 0 0)
(-1.8280104 0 0)
(-1.8261023 0 0)
(-1.823851 0 0)
(-1.8212559 0 0)
(-1.818316 0 0)
(-1.8150297 0 0)
(-1.8113949 0 0)
(-1.8074093 0 0)
(-1.8030699 0 0)
(-1.7983734 0 0)
(-1.7933162 0 0)
(-1.7878944 0 0)
(-1.7821035 0 0)
(-1.775939 0 0)
(-1.7693927 0 0)
(-1.7621978 0 0)
(-1.8323745 -0 -0)
(-1.8321979 0 0)
(-1.8316699 0 0)
(-1.8307937 0 0)
(-1.8295719 0 0)
(-1.8280059 0 0)
(-1.8260966 0 0)
(-1.8238442 0 0)
(-1.8212482 0 0)
(-1.8183078 0 0)
(-1.8150214 0 0)
(-1.811387 0 0)
(-1.8074024 0 0)
(-1.8030648 0 0)
(-1.798371 0 0)
(-1.7933175 0 0)
(-1.7879006 0 0)
(-1.7821161 0 0)
(-1.7759595 0 0)
(-1.769424 0 0)
(-1.7623339 0 0)
(-1.8323745 -0 -0)
(-1.8321977 0 0)
(-1.8316691 0 0)
(-1.8307921 0 0)
(-1.8295693 0 0)
(-1.8280024 0 0)
(-1.8260923 0 0)
(-1.8238394 0 0)
(-1.8212432 0 0)
(-1.818303 0 0)
(-1.8150174 0 0)
(-1.8113845 0 0)
(-1.807402 0 0)
(-1.8030675 0 0)
(-1.7983778 0 0)
(-1.7933297 0 0)
(-1.7879196 0 0)
(-1.7821437 0 0)
(-1.7759982 0 0)
(-1.7694759 0 0)
(-1.762504 0 0)
(-1.8323745 -0 -0)
(-1.832201 0 0)
(-1.8316816 0 0)
(-1.8308187 0 0)
(-1.8296139 0 0)
(-1.8280681 0 0)
(-1.8261813 0 0)
(-1.8239532 0 0)
(-1.8213827 0 0)
(-1.8184685 0 0)
(-1.8152085 0 0)
(-1.8116003 0 0)
(-1.807641 0 0)
(-1.8033273 0 0)
(-1.7986556 0 0)
(-1.7936219 0 0)
(-1.7882216 0 0)
(-1.7824502 0 0)
(-1.7763024 0 0)
(-1.7697662 0 0)
(-1.762254 0 0)
(-1.8323745 -0 -0)
(-1.8322007 0 0)
(-1.8316806 0 0)
(-1.8308167 0 0)
(-1.8296104 0 0)
(-1.8280628 0 0)
(-1.8261739 0 0)
(-1.8239434 0 0)
(-1.8213705 0 0)
(-1.8184534 0 0)
(-1.8151905 0 0)
(-1.8115791 0 0)
(-1.8076164 0 0)
(-1.8032992 0 0)
(-1.7986237 0 0)
(-1.793586 0 0)
(-1.7881817 0 0)
(-1.7824059 0 0)
(-1.7762537 0 0)
(-1.7697128 0 0)
(-1.7622028 0 0)
(-1.8323745 -0 -0)
(-1.8322002 0 0)
(-1.8316785 0 0)
(-1.830812 0 0)
(-1.8296025 0 0)
(-1.8280508 0 0)
(-1.8261572 0 0)
(-1.8239214 0 0)
(-1.8213426 0 0)
(-1.8184192 0 0)
(-1.8151494 0 0)
(-1.8115307 0 0)
(-1.8075604 0 0)
(-1.8032352 0 0)
(-1.7985514 0 0)
(-1.7935051 0 0)
(-1.7880919 0 0)
(-1.7823071 0 0)
(-1.7761455 0 0)
(-1.7695954 0 0)
(-1.7620984 0 0)
(-1.8323745 -0 -0)
(-1.8321997 0 0)
(-1.8316766 0 0)
(-1.8308079 0 0)
(-1.8295954 0 0)
(-1.8280401 0 0)
(-1.8261425 0 0)
(-1.8239021 0 0)
(-1.8213183 0 0)
(-1.8183896 0 0)
(-1.8151141 0 0)
(-1.8114896 0 0)
(-1.8075132 0 0)
(-1.8031817 0 0)
(-1.7984916 0 0)
(-1.793439 0 0)
(-1.7880193 0 0)
(-1.7822281 0 0)
(-1.7760602 0 0)
(-1.7695045 0 0)
(-1.762037 0 0)
(-1.8323745 -0 -0)
(-1.8321992 0 0)
(-1.8316749 0 0)
(-1.8308042 0 0)
(-1.8295891 0 0)
(-1.8280308 0 0)
(-1.8261297 0 0)
(-1.8238855 0 0)
(-1.8212976 0 0)
(-1.8183646 0 0)
(-1.8150848 0 0)
(-1.8114557 0 0)
(-1.8074748 0 0)
(-1.8031389 0 0)
(-1.7984445 0 0)
(-1.7933876 0 0)
(-1.787964 0 0)
(-1.7821691 0 0)
(-1.775998 0 0)
(-1.76944 0 0)
(-1.762018 0 0)
(-1.8323745 -0 -0)
(-1.8321988 0 0)
(-1.8316733 0 0)
(-1.8308009 0 0)
(-1.8295837 0 0)
(-1.8280228 0 0)
(-1.8261188 0 0)
(-1.8238716 0 0)
(-1.8212805 0 0)
(-1.8183442 0 0)
(-1.8150611 0 0)
(-1.8114289 0 0)
(-1.807445 0 0)
(-1.8031064 0 0)
(-1.7984095 0 0)
(-1.7933505 0 0)
(-1.7879253 0 0)
(-1.7821293 0 0)
(-1.7759576 0 0)
(-1.7694006 0 0)
(-1.7620395 0 0)
(-1.8323745 -0 -0)
(-1.8321985 0 0)
(-1.831672 0 0)
(-1.8307981 0 0)
(-1.829579 0 0)
(-1.828016 0 0)
(-1.8261097 0 0)
(-1.8238601 0 0)
(-1.8212666 0 0)
(-1.8183281 0 0)
(-1.8150428 0 0)
(-1.8114088 0 0)
(-1.8074233 0 0)
(-1.8030835 0 0)
(-1.798386 0 0)
(-1.793327 0 0)
(-1.7879023 0 0)
(-1.7821077 0 0)
(-1.7759382 0 0)
(-1.7693851 0 0)
(-1.7620998 0 0)
(-1.8323745 -0 -0)
(-1.8321982 0 0)
(-1.8316708 0 0)
(-1.8307957 0 0)
(-1.8295751 0 0)
(-1.8280104 0 0)
(-1.8261023 0 0)
(-1.823851 0 0)
(-1.8212559 0 0)
(-1.818316 0 0)
(-1.8150297 0 0)
(-1.8113949 0 0)
(-1.8074093 0 0)
(-1.8030699 0 0)
(-1.7983734 0 0)
(-1.7933162 0 0)
(-1.7878944 0 0)
(-1.7821035 0 0)
(-1.775939 0 0)
(-1.7693927 0 0)
(-1.7621978 0 0)
(-1.8323745 -0 -0)
(-1.8321979 0 0)
(-1.8316699 0 0)
(-1.8307937 0 0)
(-1.8295719 0 0)
(-1.8280059 0 0)
(-1.8260966 0 0)
(-1.8238442 0 0)
(-1.8212482 0 0)
(-1.8183078 0 0)
(-1.8150214 0 0)
(-1.811387 0 0)
(-1.8074024 0 0)
(-1.8030648 0 0)
(-1.798371 0 0)
(-1.7933175 0 0)
(-1.7879006 0 0)
(-1.7821161 0 0)
(-1.7759595 0 0)
(-1.769424 0 0)
(-1.7623339 0 0)
(-1.8323745 -0 -0)
(-1.8321977 0 0)
(-1.8316691 0 0)
(-1.8307921 0 0)
(-1.8295693 0 0)
(-1.8280024 0 0)
(-1.8260923 0 0)
(-1.8238394 0 0)
(-1.8212432 0 0)
(-1.818303 0 0)
(-1.8150174 0 0)
(-1.8113845 0 0)
(-1.807402 0 0)
(-1.8030675 0 0)
(-1.7983778 0 0)
(-1.7933297 0 0)
(-1.7879196 0 0)
(-1.7821437 0 0)
(-1.7759982 0 0)
(-1.7694759 0 0)
(-1.762504 0 0)
(-1.7530166 0 0)
(-1.7425882 0 0)
(-1.7315509 0 0)
(-1.7199144 0 0)
(-1.7076828 0 0)
(-1.6948642 0 0)
(-1.6814701 0 0)
(-1.6675104 0 0)
(-1.6529896 0 0)
(-1.6379077 0 0)
(-1.6222634 0 0)
(-1.6060526 0 0)
(-1.5892654 0 0)
(-1.5718915 0 0)
(-1.5539179 0 0)
(-1.5353265 0 0)
(-1.5160964 0 0)
(-1.4962046 0 0)
(-1.4756216 0 0)
(-1.4543161 0 0)
(-1.4322571 0 0)
(-1.4094109 0 0)
(-1.3857311 0 0)
(-1.3611526 0 0)
(-1.335619 0 0)
(-1.3090765 0 0)
(-1.2814608 0 0)
(-1.2526871 0 0)
(-1.2226643 0 0)
(-1.1913088 0 0)
(-1.1585145 0 0)
(-1.124151 0 0)
(-1.0881001 0 0)
(-1.0502493 0 0)
(-1.0104675 0 0)
(-0.96856678 0 0)
(-0.92429799 0 0)
(-0.87744885 0 0)
(-0.82787425 0 0)
(-0.77531732 0 0)
(-0.71942573 0 0)
(-0.65989024 0 0)
(-0.59638029 0 0)
(-0.52848212 0 0)
(-0.45570148 0 0)
(-0.37756236 0 0)
(-0.29361586 0 0)
(-0.20323117 0 0)
(-0.10551534 0 0)
(0 0 0)
(-1.7529829 0 0)
(-1.7425791 0 0)
(-1.7315647 0 0)
(-1.7199487 0 0)
(-1.7077347 0 0)
(-1.6949308 0 0)
(-1.6815489 0 0)
(-1.667599 0 0)
(-1.6530858 0 0)
(-1.6380094 0 0)
(-1.6223685 0 0)
(-1.6061588 0 0)
(-1.5893714 0 0)
(-1.571997 0 0)
(-1.5540226 0 0)
(-1.5354298 0 0)
(-1.5161978 0 0)
(-1.4963039 0 0)
(-1.4757191 0 0)
(-1.4544118 0 0)
(-1.4323505 0 0)
(-1.4095015 0 0)
(-1.3858182 0 0)
(-1.3612372 0 0)
(-1.3357017 0 0)
(-1.309157 0 0)
(-1.2815391 0 0)
(-1.2527638 0 0)
(-1.2227398 0 0)
(-1.1913831 0 0)
(-1.1585878 0 0)
(-1.1242222 0 0)
(-1.0881704 0 0)
(-1.0503185 0 0)
(-1.0105356 0 0)
(-0.96863467 0 0)
(-0.92436573 0 0)
(-0.87751454 0 0)
(-0.8279384 0 0)
(-0.77538103 0 0)
(-0.71948689 0 0)
(-0.65994829 0 0)
(-0.59643525 0 0)
(-0.52853336 0 0)
(-0.4557469 0 0)
(-0.37760007 0 0)
(-0.29364404 0 0)
(-0.20324898 0 0)
(-0.10552377 0 0)
(0 0 0)
(-1.7529353 0 0)
(-1.7426074 0 0)
(-1.7316646 0 0)
(-1.720115 0 0)
(-1.7079618 0 0)
(-1.6952127 0 0)
(-1.6818798 0 0)
(-1.6679735 0 0)
(-1.6534988 0 0)
(-1.638456 0 0)
(-1.6228436 0 0)
(-1.6066573 0 0)
(-1.5898895 0 0)
(-1.5725319 0 0)
(-1.5545719 0 0)
(-1.535991 0 0)
(-1.5167685 0 0)
(-1.4968821 0 0)
(-1.4763036 0 0)
(-1.4550013 0 0)
(-1.4329435 0 0)
(-1.4100959 0 0)
(-1.3864124 0 0)
(-1.3618313 0 0)
(-1.3362949 0 0)
(-1.309748 0 0)
(-1.2821273 0 0)
(-1.2533491 0 0)
(-1.2233212 0 0)
(-1.1919599 0 0)
(-1.1591595 0 0)
(-1.1247864 0 0)
(-1.0887264 0 0)
(-1.0508656 0 0)
(-1.0110724 0 0)
(-0.96916052 0 0)
(-0.92487912 0 0)
(-0.87801238 0 0)
(-0.82841857 0 0)
(-0.77584107 0 0)
(-0.71992257 0 0)
(-0.66035703 0 0)
(-0.59681368 0 0)
(-0.52887696 0 0)
(-0.4560499 0 0)
(-0.37785592 0 0)
(-0.29384512 0 0)
(-0.20338842 0 0)
(-0.10559618 0 0)
(0 0 0)
(-1.7529715 0 0)
(-1.7427712 0 0)
(-1.7319491 0 0)
(-1.7205118 0 0)
(-1.708462 0 0)
(-1.6958073 0 0)
(-1.6825597 0 0)
(-1.6687301 0 0)
(-1.6543236 0 0)
(-1.6393412 0 0)
(-1.623781 0 0)
(-1.6076389 0 0)
(-1.5909088 0 0)
(-1.5735836 0 0)
(-1.5556509 0 0)
(-1.5370929 0 0)
(-1.5178892 0 0)
(-1.4980178 0 0)
(-1.4774513 0 0)
(-1.4561584 0 0)
(-1.4341072 0 0)
(-1.4112633 0 0)
(-1.3875803 0 0)
(-1.3629988 0 0)
(-1.3374601 0 0)
(-1.3109088 0 0)
(-1.2832821 0 0)
(-1.254497 0 0)
(-1.2244604 0 0)
(-1.1930886 0 0)
(-1.1602762 0 0)
(-1.1258879 0 0)
(-1.0898107 0 0)
(-1.0519302 0 0)
(-1.0121149 0 0)
(-0.97017916 0 0)
(-0.92587096 0 0)
(-0.87897237 0 0)
(-0.82934188 0 0)
(-0.77672257 0 0)
(-0.7207556 0 0)
(-0.6611366 0 0)
(-0.59753344 0 0)
(-0.52952854 0 0)
(-0.45662329 0 0)
(-0.37833996 0 0)
(-0.29422692 0 0)
(-0.20365476 0 0)
(-0.10573508 0 0)
(0 0 0)
(-1.7530905 0 0)
(-1.7430687 0 0)
(-1.7324157 0 0)
(-1.721136 0 0)
(-1.7092321 0 0)
(-1.6967112 0 0)
(-1.6835851 0 0)
(-1.669865 0 0)
(-1.6555568 0 0)
(-1.6406616 0 0)
(-1.6251775 0 0)
(-1.6091006 0 0)
(-1.5924264 0 0)
(-1.5751489 0 0)
(-1.5572567 0 0)
(-1.5387327 0 0)
(-1.5195568 0 0)
(-1.4997074 0 0)
(-1.4791584 0 0)
(-1.4578791 0 0)
(-1.4358374 0 0)
(-1.4129986 0 0)
(-1.389317 0 0)
(-1.3647345 0 0)
(-1.3391918 0 0)
(-1.3126336 0 0)
(-1.2849979 0 0)
(-1.2562013 0 0)
(-1.2261506 0 0)
(-1.1947623 0 0)
(-1.1619313 0 0)
(-1.1275197 0 0)
(-1.0914158 0 0)
(-1.0535052 0 0)
(-1.0136562 0 0)
(-0.97168346 0 0)
(-0.92733396 0 0)
(-0.88038788 0 0)
(-0.83070226 0 0)
(-0.77801905 0 0)
(-0.72197984 0 0)
(-0.66228148 0 0)
(-0.5985893 0 0)
(-0.53048305 0 0)
(-0.45746278 0 0)
(-0.37904885 0 0)
(-0.29478659 0 0)
(-0.20404589 0 0)
(-0.10593951 0 0)
(0 0 0)
(-1.7532893 0 0)
(-1.7434962 0 0)
(-1.7330599 0 0)
(-1.7219829 0 0)
(-1.710267 0 0)
(-1.6979188 0 0)
(-1.68495 0 0)
(-1.6713722 0 0)
(-1.6571925 0 0)
(-1.6424119 0 0)
(-1.6270279 0 0)
(-1.6110372 0 0)
(-1.594437 0 0)
(-1.5772226 0 0)
(-1.5593839 0 0)
(-1.5409046 0 0)
(-1.5217653 0 0)
(-1.5019447 0 0)
(-1.4814182 0 0)
(-1.4601561 0 0)
(-1.4381263 0 0)
(-1.415294 0 0)
(-1.3916141 0 0)
(-1.3670296 0 0)
(-1.3414811 0 0)
(-1.3149133 0 0)
(-1.2872646 0 0)
(-1.2584519 0 0)
(-1.2283817 0 0)
(-1.1969708 0 0)
(-1.1641139 0 0)
(-1.1296712 0 0)
(-1.0935314 0 0)
(-1.0555799 0 0)
(-1.0156853 0 0)
(-0.97366301 0 0)
(-0.92925807 0 0)
(-0.88224852 0 0)
(-0.83248924 0 0)
(-0.77972107 0 0)
(-0.72358632 0 0)
(-0.6637831 0 0)
(-0.59997351 0 0)
(-0.5317338 0 0)
(-0.45856223 0 0)
(-0.3799772 0 0)
(-0.29551998 0 0)
(-0.20455904 0 0)
(-0.10620791 0 0)
(0 0 0)
(-1.7535651 0 0)
(-1.7440496 0 0)
(-1.7338769 0 0)
(-1.7230469 0 0)
(-1.7115607 0 0)
(-1.6994243 0 0)
(-1.6866484 0 0)
(-1.6732452 0 0)
(-1.6592238 0 0)
(-1.6445855 0 0)
(-1.6293265 0 0)
(-1.6134429 0 0)
(-1.596934 0 0)
(-1.5797981 0 0)
(-1.5620257 0 0)
(-1.5436018 0 0)
(-1.5245074 0 0)
(-1.504722 0 0)
(-1.4842225 0 0)
(-1.4629806 0 0)
(-1.4409645 0 0)
(-1.4181395 0 0)
(-1.3944611 0 0)
(-1.3698731 0 0)
(-1.3443163 0 0)
(-1.3177359 0 0)
(-1.2900703 0 0)
(-1.2612363 0 0)
(-1.2311404 0 0)
(-1.1997005 0 0)
(-1.1668107 0 0)
(-1.1323288 0 0)
(-1.0961437 0 0)
(-1.0581408 0 0)
(-1.018189 0 0)
(-0.97610408 0 0)
(-0.93162965 0 0)
(-0.88454147 0 0)
(-0.83469058 0 0)
(-0.78181632 0 0)
(-0.72556369 0 0)
(-0.66563097 0 0)
(-0.60167613 0 0)
(-0.53327149 0 0)
(-0.45991374 0 0)
(-0.38111845 0 0)
(-0.29642183 0 0)
(-0.20519044 0 0)
(-0.10653831 0 0)
(0 0 0)
(-1.7539155 0 0)
(-1.7447249 0 0)
(-1.7348614 0 0)
(-1.7243218 0 0)
(-1.7131064 0 0)
(-1.7012211 0 0)
(-1.688674 0 0)
(-1.6754777 0 0)
(-1.6616457 0 0)
(-1.6471787 0 0)
(-1.632069 0 0)
(-1.6163114 0 0)
(-1.5999103 0 0)
(-1.5828676 0 0)
(-1.5651741 0 0)
(-1.5468158 0 0)
(-1.5277747 0 0)
(-1.5080302 0 0)
(-1.4875613 0 0)
(-1.4663421 0 0)
(-1.4443409 0 0)
(-1.4215233 0 0)
(-1.3978453 0 0)
(-1.3732518 0 0)
(-1.3476838 0 0)
(-1.321087 0 0)
(-1.2933999 0 0)
(-1.2645391 0 0)
(-1.2344113 0 0)
(-1.2029355 0 0)
(-1.1700051 0 0)
(-1.135476 0 0)
(-1.0992365 0 0)
(-1.0611713 0 0)
(-1.0211505 0 0)
(-0.97899057 0 0)
(-0.93443292 0 0)
(-0.88725053 0 0)
(-0.83729027 0 0)
(-0.78429029 0 0)
(-0.72789803 0 0)
(-0.66781203 0 0)
(-0.60368537 0 0)
(-0.53508559 0 0)
(-0.4615077 0 0)
(-0.38246441 0 0)
(-0.29748587 0 0)
(-0.20593563 0 0)
(-0.10692827 0 0)
(0 0 0)
(-1.7543393 0 0)
(-1.7455191 0 0)
(-1.736009 0 0)
(-1.7258011 0 0)
(-1.714898 0 0)
(-1.7033063 0 0)
(-1.6910288 0 0)
(-1.6780751 0 0)
(-1.6644591 0 0)
(-1.6501845 0 0)
(-1.6352447 0 0)
(-1.6196346 0 0)
(-1.6033605 0 0)
(-1.5864258 0 0)
(-1.5688233 0 0)
(-1.5505403 0 0)
(-1.5315591 0 0)
(-1.5118591 0 0)
(-1.4914231 0 0)
(-1.4702281 0 0)
(-1.4482425 0 0)
(-1.4254314 0 0)
(-1.401752 0 0)
(-1.3771501 0 0)
(-1.3515671 0 0)
(-1.3249496 0 0)
(-1.2972362 0 0)
(-1.2683426 0 0)
(-1.2381757 0 0)
(-1.2066566 0 0)
(-1.1736783 0 0)
(-1.1390937 0 0)
(-1.1027904 0 0)
(-1.0646525 0 0)
(-1.024551 0 0)
(-0.98230341 0 0)
(-0.93764884 0 0)
(-0.89035763 0 0)
(-0.84027095 0 0)
(-0.78712586 0 0)
(-0.73057349 0 0)
(-0.67031157 0 0)
(-0.60598732 0 0)
(-0.53716327 0 0)
(-0.4633331 0 0)
(-0.38400592 0 0)
(-0.29870465 0 0)
(-0.20678932 0 0)
(-0.10737506 0 0)
(0 0 0)
(-1.7548317 0 0)
(-1.7464254 0 0)
(-1.7373103 0 0)
(-1.7274774 0 0)
(-1.716931 0 0)
(-1.7056719 0 0)
(-1.6936999 0 0)
(-1.6810208 0 0)
(-1.667646 0 0)
(-1.6535857 0 0)
(-1.6388376 0 0)
(-1.6233972 0 0)
(-1.6072688 0 0)
(-1.5904567 0 0)
(-1.5729551 0 0)
(-1.5547517 0 0)
(-1.5358336 0 0)
(-1.5161833 0 0)
(-1.4957843 0 0)
(-1.4746147 0 0)
(-1.4526438 0 0)
(-1.4298367 0 0)
(-1.4061528 0 0)
(-1.3815393 0 0)
(-1.355937 0 0)
(-1.329294 0 0)
(-1.3015492 0 0)
(-1.2726168 0 0)
(-1.2424036 0 0)
(-1.2108333 0 0)
(-1.1777997 0 0)
(-1.143152 0 0)
(-1.1067762 0 0)
(-1.0685552 0 0)
(-1.0283617 0 0)
(-0.98601454 0 0)
(-0.94125033 0 0)
(-0.89383605 0 0)
(-0.84360684 0 0)
(-0.79029909 0 0)
(-0.73356753 0 0)
(-0.6731086 0 0)
(-0.60856291 0 0)
(-0.53948751 0 0)
(-0.46537484 0 0)
(-0.38573024 0 0)
(-0.30006839 0 0)
(-0.20774485 0 0)
(-0.10787512 0 0)
(0 0 0)
(-1.7535082 0 0)
(-1.7455062 0 0)
(-1.736784 0 0)
(-1.7273369 0 0)
(-1.7171617 0 0)
(-1.7062514 0 0)
(-1.6946096 0 0)
(-1.6822387 0 0)
(-1.669146 0 0)
(-1.6553422 0 0)
(-1.6408287 0 0)
(-1.6256033 0 0)
(-1.6096674 0 0)
(-1.5930259 0 0)
(-1.5756737 0 0)
(-1.5576004 0 0)
(-1.5387979 0 0)
(-1.5192517 0 0)
(-1.4989422 0 0)
(-1.4778458 0 0)
(-1.4559367 0 0)
(-1.4331835 0 0)
(-1.4095456 0 0)
(-1.3849695 0 0)
(-1.3593962 0 0)
(-1.332775 0 0)
(-1.3050459 0 0)
(-1.2761214 0 0)
(-1.2459074 0 0)
(-1.2143304 0 0)
(-1.1812853 0 0)
(-1.1466181 0 0)
(-1.1102128 0 0)
(-1.0719518 0 0)
(-1.0317073 0 0)
(-0.98930072 0 0)
(-0.94446693 0 0)
(-0.89696964 0 0)
(-0.84663601 0 0)
(-0.79320386 0 0)
(-0.7363305 0 0)
(-0.67571035 0 0)
(-0.61097756 0 0)
(-0.54168394 0 0)
(-0.46732044 0 0)
(-0.38738783 0 0)
(-0.30139168 0 0)
(-0.20868327 0 0)
(-0.10837842 0 0)
(0 0 0)
(-1.7530166 0 0)
(-1.7425882 0 0)
(-1.7315509 0 0)
(-1.7199144 0 0)
(-1.7076828 0 0)
(-1.6948642 0 0)
(-1.6814701 0 0)
(-1.6675104 0 0)
(-1.6529896 0 0)
(-1.6379077 0 0)
(-1.6222634 0 0)
(-1.6060526 0 0)
(-1.5892654 0 0)
(-1.5718915 0 0)
(-1.5539179 0 0)
(-1.5353265 0 0)
(-1.5160964 0 0)
(-1.4962046 0 0)
(-1.4756216 0 0)
(-1.4543161 0 0)
(-1.4322571 0 0)
(-1.4094109 0 0)
(-1.3857311 0 0)
(-1.3611526 0 0)
(-1.335619 0 0)
(-1.3090765 0 0)
(-1.2814608 0 0)
(-1.2526871 0 0)
(-1.2226643 0 0)
(-1.1913088 0 0)
(-1.1585145 0 0)
(-1.124151 0 0)
(-1.0881001 0 0)
(-1.0502493 0 0)
(-1.0104675 0 0)
(-0.96856678 0 0)
(-0.92429799 0 0)
(-0.87744885 0 0)
(-0.82787425 0 0)
(-0.77531732 0 0)
(-0.71942573 0 0)
(-0.65989024 0 0)
(-0.59638029 0 0)
(-0.52848212 0 0)
(-0.45570148 0 0)
(-0.37756236 0 0)
(-0.29361586 0 0)
(-0.20323117 0 0)
(-0.10551534 0 0)
(0 0 0)
(-1.7529829 0 0)
(-1.7425791 0 0)
(-1.7315647 0 0)
(-1.7199487 0 0)
(-1.7077347 0 0)
(-1.6949308 0 0)
(-1.6815489 0 0)
(-1.667599 0 0)
(-1.6530858 0 0)
(-1.6380094 0 0)
(-1.6223685 0 0)
(-1.6061588 0 0)
(-1.5893714 0 0)
(-1.571997 0 0)
(-1.5540226 0 0)
(-1.5354298 0 0)
(-1.5161978 0 0)
(-1.4963039 0 0)
(-1.4757191 0 0)
(-1.4544118 0 0)
(-1.4323505 0 0)
(-1.4095015 0 0)
(-1.3858182 0 0)
(-1.3612372 0 0)
(-1.3357017 0 0)
(-1.309157 0 0)
(-1.2815391 0 0)
(-1.2527638 0 0)
(-1.2227398 0 0)
(-1.1913831 0 0)
(-1.1585878 0 0)
(-1.1242222 0 0)
(-1.0881704 0 0)
(-1.0503185 0 0)
(-1.0105356 0 0)
(-0.96863467 0 0)
(-0.92436573 0 0)
(-0.87751454 0 0)
(-0.8279384 0 0)
(-0.77538103 0 0)
(-0.71948689 0 0)
(-0.65994829 0 0)
(-0.59643525 0 0)
(-0.52853336 0 0)
(-0.4557469 0 0)
(-0.37760007 0 0)
(-0.29364404 0 0)
(-0.20324898 0 0)
(-0.10552377 0 0)
(0 0 0)
(-1.7529353 0 0)
(-1.7426074 0 0)
(-1.7316646 0 0)
(-1.720115 0 0)
(-1.7079618 0 0)
(-1.6952127 0 0)
(-1.6818798 0 0)
(-1.6679735 0 0)
(-1.6534988 0 0)
(-1.638456 0 0)
(-1.6228436 0 0)
(-1.6066573 0 0)
(-1.5898895 0 0)
(-1.5725319 0 0)
(-1.5545719 0 0)
(-1.535991 0 0)
(-1.5167685 0 0)
(-1.4968821 0 0)
(-1.4763036 0 0)
(-1.4550013 0 0)
(-1.4329435 0 0)
(-1.4100959 0 0)
(-1.3864124 0 0)
(-1.3618313 0 0)
(-1.3362949 0 0)
(-1.309748 0 0)
(-1.2821273 0 0)
(-1.2533491 0 0)
(-1.2233212 0 0)
(-1.1919599 0 0)
(-1.1591595 0 0)
(-1.1247864 0 0)
(-1.0887264 0 0)
(-1.0508656 0 0)
(-1.0110724 0 0)
(-0.96916052 0 0)
(-0.92487912 0 0)
(-0.87801238 0 0)
(-0.82841857 0 0)
(-0.77584107 0 0)
(-0.71992257 0 0)
(-0.66035703 0 0)
(-0.59681368 0 0)
(-0.52887696 0 0)
(-0.4560499 0 0)
(-0.37785592 0 0)
(-0.29384512 0 0)
(-0.20338842 0 0)
(-0.10559618 0 0)
(0 0 0)
(-1.7529715 0 0)
(-1.7427712 0 0)
(-1.7319491 0 0)
(-1.7205118 0 0)
(-1.708462 0 0)
(-1.6958073 0 0)
(-1.6825597 0 0)
(-1.6687301 0 0)
(-1.6543236 0 0)
(-1.6393412 0 0)
(-1.623781 0 0)
(-1.6076389 0 0)
(-1.5909088 0 0)
(-1.5735836 0 0)
(-1.5556509 0 0)
(-1.5370929 0 0)
(-1.5178892 0 0)
(-1.4980178 0 0)
(-1.4774513 0 0)
(-1.4561584 0 0)
(-1.4341072 0 0)
(-1.4112633 0 0)
(-1.3875803 0 0)
(-1.3629988 0 0)
(-1.3374601 0 0)
(-1.3109088 0 0)
(-1.2832821 0 0)
(-1.254497 0 0)
(-1.2244604 0 0)
(-1.1930886 0 0)
(-1.1602762 0 0)
(-1.1258879 0 0)
(-1.0898107 0 0)
(-1.0519302 0 0)
(-1.0121149 0 0)
(-0.97017916 0 0)
(-0.92587096 0 0)
(-0.87897237 0 0)
(-0.82934188 0 0)
(-0.77672257 0 0)
(-0.7207556 0 0)
(-0.6611366 0 0)
(-0.59753344 0 0)
(-0.52952854 0 0)
(-0.45662329 0 0)
(-0.37833996 0 0)
(-0.29422692 0 0)
(-0.20365476 0 0)
(-0.10573508 0 0)
(0 0 0)
(-1.7530905 0 0)
(-1.7430687 0 0)
(-1.7324157 0 0)
(-1.721136 0 0)
(-1.7092321 0 0)
(-1.6967112 0 0)
(-1.6835851 0 0)
(-1.669865 0 0)
(-1.6555568 0 0)
(-1.6406616 0 0)
(-1.6251775 0 0)
(-1.6091006 0 0)
(-1.5924264 0 0)
(-1.5751489 0 0)
(-1.5572567 0 0)
(-1.5387327 0 0)
(-1.5195568 0 0)
(-1.4997074 0 0)
(-1.4791584 0 0)
(-1.4578791 0 0)
(-1.4358374 0 0)
(-1.4129986 0 0)
(-1.389317 0 0)
(-1.3647345 0 0)
(-1.3391918 0 0)
(-1.3126336 0 0)
(-1.2849979 0 0)
(-1.2562013 0 0)
(-1.2261506 0 0)
(-1.1947623 0 0)
(-1.1619313 0 0)
(-1.1275197 0 0)
(-1.0914158 0 0)
(-1.0535052 0 0)
(-1.0136562 0 0)
(-0.97168346 0 0)
(-0.92733396 0 0)
(-0.88038788 0 0)
(-0.83070226 0 0)
(-0.77801905 0 0)
(-0.72197984 0 0)
(-0.66228148 0 0)
(-0.5985893 0 0)
(-0.53048305 0 0)
(-0.45746278 0 0)
(-0.37904885 0 0)
(-0.29478659 0 0)
(-0.20404589 0 0)
(-0.10593951 0 0)
(0 0 0)
(-1.7532893 0 0)
(-1.7434962 0 0)
(-1.7330599 0 0)
(-1.7219829 0 0)
(-1.710267 0 0)
(-1.6979188 0 0)
(-1.68495 0 0)
(-1.6713722 0 0)
(-1.6571925 0 0)
(-1.6424119 0 0)
(-1.6270279 0 0)
(-1.6110372 0 0)
(-1.594437 0 0)
(-1.5772226 0 0)
(-1.5593839 0 0)
(-1.5409046 0 0)
(-1.5217653 0 0)
(-1.5019447 0 0)
(-1.4814182 0 0)
(-1.4601561 0 0)
(-1.4381263 0 0)
(-1.415294 0 0)
(-1.3916141 0 0)
(-1.3670296 0 0)
(-1.3414811 0 0)
(-1.3149133 0 0)
(-1.2872646 0 0)
(-1.2584519 0 0)
(-1.2283817 0 0)
(-1.1969708 0 0)
(-1.1641139 0 0)
(-1.1296712 0 0)