/*--------------------------------*- C++ -*----------------------------------*\
| =========                 |                                                 |
| \\      /  F ield         | OpenFOAM: The Open Source CFD Toolbox           |
|  \\    /   O peration     | Version:  v2012                                 |
|   \\  /    A nd           | Website:  www.openfoam.com                      |
|    \\/     M anipulation  |                                                 |
\*---------------------------------------------------------------------------*/
FoamFile
{
    version     2.0;
    format      ascii;
    class       volVectorField;
    location    "37.4809418257685962";
    object      U;
}
// * * * * * * * * * * * * * * * * * * * * * * * * * * * * * * * * * * * * * //

dimensions      [0 1 -1 0 0 0 0];


internalField   nonuniform List<vector> 
9200
(
(2.5348911 -0.001471878 -1.0066593e-21)
(2.5341999 -0.0048559095 -3.0801011e-22)
(2.5400399 -0.0019170034 -7.0679792e-22)
(2.5336763 -0.0081363098 -1.6105214e-23)
(2.5399035 -0.0061899782 -2.3107143e-22)
(2.5433732 -0.0020061359 3.6689514e-22)
(2.5327142 -0.012054071 -4.5993383e-22)
(2.5400804 -0.010080248 -1.2859151e-22)
(2.543407 -0.0063119922 -2.2629101e-22)
(2.5472133 -0.0020747833 -6.5865985e-23)
(2.5318933 -0.016116729 7.5083883e-22)
(2.540178 -0.014474881 5.9780723e-23)
(2.5437396 -0.010224046 0)
(2.5474637 -0.0064667213 -2.4247349e-22)
(2.5508177 -0.0020691444 -2.1503383e-23)
(2.5310927 -0.020806803 -1.9591025e-21)
(2.5405218 -0.018673739 3.6869739e-22)
(2.5440932 -0.014583459 9.3915538e-22)
(2.548042 -0.010411984 6.3183072e-22)
(2.5512244 -0.0064143015 2.6008058e-22)
(2.5542535 -0.0020251099 -6.8411258e-23)
(2.5305354 -0.025748924 4.510789e-22)
(2.5410386 -0.02326646 -5.0644279e-22)
(2.5446716 -0.018657181 -3.8151661e-24)
(2.5487681 -0.014767919 -6.5693111e-22)
(2.551967 -0.010294336 -3.2623544e-22)
(2.5548034 -0.0062760353 -2.2083737e-22)
(2.5574566 -0.0019440771 -1.0910175e-22)
(2.5302345 -0.031146628 -6.3587641e-22)
(2.5418399 -0.027785645 1.5191439e-22)
(2.5454108 -0.023041338 6.9233539e-23)
(2.5497105 -0.018756577 -1.8846409e-21)
(2.5529541 -0.014580072 -4.0079234e-23)
(2.5557118 -0.010053493 1.246602e-22)
(2.5581373 -0.0060524118 -5.0282404e-22)
(2.5604026 -0.0018324312 8.6660204e-22)
(2.5302884 -0.036824835 -7.6847984e-22)
(2.5429645 -0.032454704 8.0958101e-23)
(2.546367 -0.027237931 -8.15493e-23)
(2.5508037 -0.022995757 1.0278621e-21)
(2.5541343 -0.018482631 2.3700071e-21)
(2.5569693 -0.014250788 -8.5086904e-23)
(2.5592066 -0.0096906384 -5.3647194e-22)
(2.5612128 -0.0057561055 3.99431e-22)
(2.5630719 -0.0016965017 1.4377109e-21)
(2.5308055 -0.042818181 7.7895424e-22)
(2.5444804 -0.03705079 -7.2187527e-22)
(2.5475475 -0.031445592 1.1171633e-23)
(2.5520244 -0.026970601 1.5461448e-21)
(2.5554482 -0.022638336 8.983531e-22)
(2.5584161 -0.018086528 -1.0898996e-21)
(2.5607368 -0.013766147 4.6755915e-24)
(2.5624468 -0.0092210312 -1.1686186e-21)
(2.5640118 -0.0053963143 1.5712377e-21)
(2.5654549 -0.0015443377 -3.224491e-23)
(2.5317791 -0.049037337 -4.8967218e-22)
(2.5463324 -0.041592689 -1.4630296e-22)
(2.5489903 -0.035397639 -3.2802615e-21)
(2.5533336 -0.030881606 -2.4376513e-21)
(2.5567984 -0.026545752 1.3504519e-21)
(2.5600124 -0.022217921 3.7373825e-22)
(2.5624789 -0.017523165 0)
(2.5642573 -0.013128881 -5.1768013e-22)
(2.5654077 -0.0086477648 5.7721092e-22)
(2.5665198 -0.0049908506 2.0872613e-22)
(2.5675546 -0.0013835974 -1.2768399e-21)
(2.5332421 -0.055490798 -9.3233214e-22)
(2.5486459 -0.045962703 -1.9269087e-21)
(2.5507376 -0.039072205 3.620848e-22)
(2.5546998 -0.034452876 8.2662457e-22)
(2.558104 -0.030421544 -4.0445963e-21)
(2.5615974 -0.026180782 7.5507061e-23)
(2.5644277 -0.021633848 1.591665e-21)
(2.566332 -0.016761687 4.465453e-22)
(2.5674874 -0.012330123 -1.5282246e-22)
(2.5680648 -0.0079822943 -7.4335859e-22)
(2.5687281 -0.0045601935 -5.9596273e-22)
(2.5693832 -0.0012198049 1.8192364e-21)
(2.5350113 -0.062227506 5.6232879e-22)
(2.5515172 -0.050184013 1.0182957e-21)
(2.5528467 -0.042328302 1.6609676e-21)
(2.5560892 -0.03763868 5.2155711e-21)
(2.5592655 -0.034004118 -2.918796e-21)
(2.563066 -0.030226392 -1.4082154e-21)
(2.5663823 -0.025686033 -1.0173851e-21)
(2.5687105 -0.020793288 -4.2755084e-22)
(2.5699063 -0.015765026 3.8120885e-22)
(2.570383 -0.011380041 3.048707e-22)
(2.5703973 -0.0072452115 -1.2340234e-21)
(2.5706364 -0.0041203065 -2.5348572e-22)
(2.5709569 -0.0010559375 -1.1911733e-22)
(2.537115 -0.069356683 1.1693444e-21)
(2.5552928 -0.054167151 4.2513541e-21)
(2.5553532 -0.045118892 2.1159753e-21)
(2.5574807 -0.040276175 -7.1067066e-22)
(2.5601807 -0.037264481 3.5081565e-21)
(2.5642641 -0.034143909 9.2822288e-23)
(2.5682416 -0.029972589 -4.5216376e-21)
(2.571177 -0.024865984 1.2570252e-22)
(2.5727491 -0.019610212 -1.5016117e-21)
(2.5731237 -0.014532436 1.0762426e-21)
(2.5729066 -0.010309748 8.852172e-22)
(2.5723955 -0.0064642301 1.450048e-21)
(2.5722548 -0.0036796644 1.1691503e-21)
(2.5722934 -0.00089344811 -2.0520831e-21)
(2.5396946 -0.077024146 -7.6344115e-22)
(2.5602212 -0.058002779 4.1303874e-22)
(2.5583842 -0.047165413 -5.7168136e-23)
(2.5588663 -0.042177724 -3.5626781e-23)
(2.5607402 -0.040034424 -9.5368426e-22)
(2.5650331 -0.037958698 -3.967765e-21)
(2.569827 -0.03435217 1.4005996e-21)
(2.5736613 -0.02930693 4.1284401e-21)
(2.5758076 -0.023553447 -1.400674e-21)
(2.5764087 -0.018064074 1.2440823e-21)
(2.5759123 -0.013104226 5.5250864e-22)
(2.5750404 -0.0091665313 -5.799389e-22)
(2.5740666 -0.0056691762 1.5445193e-21)
(2.5736026 -0.0032419553 2.4944927e-21)
(2.5734115 -0.00073379618 -6.8305498e-22)
(2.5427436 -0.085316048 0)
(2.566264 -0.06164375 -3.0801696e-21)
(2.561997 -0.04858446 -4.1724161e-21)
(2.5603126 -0.04314509 4.0294262e-23)
(2.5608589 -0.042108686 0)
(2.5651992 -0.041544184 1.5133708e-21)
(2.5709657 -0.038919583 9.4183153e-21)
(2.5759951 -0.034042596 1.5446019e-21)
(2.5790623 -0.027936262 2.4673342e-21)
(2.5800517 -0.021690535 -1.4387269e-21)
(2.5795609 -0.016208196 5.9934544e-22)
(2.5782307 -0.011553664 -6.0851072e-22)
(2.5767913 -0.0080033034 -2.9470415e-21)
(2.5754342 -0.0048868246 -1.2917701e-21)
(2.5747062 -0.0028103824 1.3150498e-21)
(2.5743286 -0.00057931375 5.7299175e-23)
(2.5462508 -0.094333227 -2.8829528e-21)
(2.5734729 -0.065173101 3.6098601e-21)
(2.5663286 -0.048959348 3.9365451e-21)
(2.5616513 -0.043324254 -5.65419e-21)
(2.5604 -0.043504333 -5.8674154e-21)
(2.5645859 -0.044818607 1.2322341e-20)
(2.5714599 -0.043637509 2.8818442e-22)
(2.5780331 -0.039235447 -1.0608078e-20)
(2.5823843 -0.032735403 1.3597817e-21)
(2.5840908 -0.025740035 5.1695229e-22)
(2.5836899 -0.019343949 -5.7392213e-22)
(2.5821245 -0.014155442 2.5361994e-22)
(2.5800774 -0.0099683633 -3.7285682e-21)
(2.578189 -0.0068677792 -3.8160815e-22)
(2.5765331 -0.0041369959 1.0031683e-21)
(2.575595 -0.0023895466 2.1456851e-22)
(2.5750578 -0.00043215101 6.9359244e-22)
(2.5502014 -0.10421339 6.2533769e-22)
(2.5820258 -0.068557156 1.6554505e-22)
(2.5715071 -0.04841993 8.1388432e-22)
(2.5629947 -0.041757133 1.7009278e-22)
(2.5592315 -0.043605879 1.1696429e-21)
(2.5629576 -0.04775358 -1.1072885e-21)
(2.5710903 -0.048540602 -8.9799665e-21)
(2.5795969 -0.044941196 -2.9578906e-21)
(2.5856907 -0.038161015 -2.0422317e-21)
(2.588453 -0.03021019 9.6822306e-22)
(2.5883884 -0.022797934 -1.7708521e-21)
(2.5865738 -0.016682555 1.0182528e-22)
(2.5840829 -0.012046601 -4.7881111e-23)
(2.5814888 -0.0084299515 8.4289461e-22)
(2.5792787 -0.0057946326 2.4644173e-21)
(2.5774023 -0.0034309359 1.4006526e-21)
(2.5762961 -0.0019832651 -1.6351705e-21)
(2.5756194 -0.00029265444 1.6915158e-21)
(2.5545827 -0.11503738 1.0046235e-20)
(2.5920841 -0.071906207 -2.1266099e-22)
(2.5776342 -0.046705848 -3.875321e-21)
(2.5645182 -0.038925033 -1.3598158e-21)
(2.5572745 -0.042942391 -1.7548262e-21)
(2.5602476 -0.049939565 -7.0648002e-21)
(2.5696274 -0.053588343 5.6963101e-21)
(2.5804923 -0.051277431 4.6103692e-21)
(2.5888652 -0.044337286 7.9523943e-21)
(2.593139 -0.035321485 -3.3355989e-21)
(2.593638 -0.026554605 1.6686196e-21)
(2.5916996 -0.01935807 -1.6970616e-21)
(2.5886578 -0.013926745 -1.0112207e-21)
(2.5854827 -0.010015207 -2.9893127e-22)
(2.5825288 -0.0069986022 4.4713176e-21)
(2.5801122 -0.0048021915 4.6142199e-21)
(2.5780794 -0.0027714993 -7.8559353e-22)
(2.5768318 -0.0015922014 -3.2398975e-21)
(2.5760458 -0.00015952805 -1.9428251e-21)
(2.559389 -0.1268842 -7.0255736e-21)
(2.6037729 -0.075250939 -7.5356675e-22)
(2.5848636 -0.043789093 -8.2798001e-22)
(2.5661455 -0.034491724 1.8554709e-21)
(2.5545234 -0.040677984 2.430719e-21)
(2.5562068 -0.051763346 -2.094273e-21)
(2.5668763 -0.058824808 -2.0838408e-20)
(2.5805189 -0.058335311 -9.3021809e-21)
(2.591788 -0.051457427 -3.4727746e-21)
(2.5981241 -0.041226373 -2.9738899e-21)
(2.5995224 -0.030799641 2.2005607e-21)
(2.597519 -0.022124279 -1.8554938e-21)
(2.5939287 -0.015759407 -7.3742696e-22)
(2.5900001 -0.011290061 -4.0432735e-22)
(2.5864165 -0.0081603263 1.1567145e-21)
(2.5832735 -0.0057060961 8.1929959e-22)
(2.5807401 -0.0038935198 -1.2135257e-21)
(2.5785967 -0.0021543597 0)
(2.5772244 -0.0012181105 2.842074e-23)
(2.5763419 -5.0326104e-06 -1.4044604e-21)
(2.5646097 -0.13980511 -3.055868e-20)
(2.6171684 -0.07872046 2.0823144e-21)
(2.5933133 -0.039559527 1.3064115e-21)
(2.5679012 -0.028287738 2.6855172e-21)
(2.5508876 -0.036936962 2.8671285e-20)
(2.5505634 -0.05268029 1.8169158e-21)
(2.5625807 -0.064108658 -3.0285715e-21)
(2.5794352 -0.066220846 1.9916421e-21)
(2.5943201 -0.059710644 -9.9302008e-21)
(2.603398 -0.048154339 7.7474497e-21)
(2.6061129 -0.035661817 -2.1559663e-21)
(2.6041739 -0.025091748 1.4133912e-21)
(2.599917 -0.017429673 -3.3036301e-21)
(2.5951475 -0.012337871 3.7813628e-22)
(2.5907366 -0.0089327133 4.5505338e-22)
(2.5869988 -0.006534001 2.9796206e-23)
(2.5837981 -0.0045571952 -1.173507e-21)
(2.5812069 -0.0030605192 -5.9502678e-21)
(2.5789795 -0.0015706694 -6.5474636e-23)
(2.5774987 -0.00086611018 9.1619126e-22)
(2.5764703 0.00015154341 1.5054505e-21)
(2.5703503 -0.15377469 1.5918126e-20)
(2.632249 -0.082388646 1.4325069e-20)
(2.6030743 -0.033970088 -1.767233e-22)
(2.5698267 -0.020210643 -6.9435878e-21)
(2.5462805 -0.031459298 -2.249671e-21)
(2.5432434 -0.05270282 0)
(2.5564774 -0.069493912 2.4856414e-20)
(2.5770145 -0.075005561 1.5762278e-20)
(2.5963045 -0.06929431 6.011756e-21)
(2.6089382 -0.056344705 -1.3442976e-21)
(2.6135206 -0.041344317 6.1406616e-21)
(2.6118059 -0.028314944 1.0915516e-21)
(2.60678 -0.01895055 -3.7077629e-21)
(2.6009168 -0.012989524 7.1426916e-22)
(2.5955565 -0.0093485257 -3.1611269e-21)
(2.5910416 -0.0069390127 2.519136e-21)
(2.5873433 -0.0051431655 3.2915537e-21)
(2.5841672 -0.0035365864 -1.0530869e-21)
(2.5815476 -0.0022888025 9.5502658e-23)
(2.5792451 -0.0010115662 1.1365584e-21)
(2.5776733 -0.00053174725 1.1328325e-21)
(2.5765099 0.00026430083 1.930748e-23)
(2.5767388 -0.16862674 3.9146341e-20)
(2.648656 -0.086335058 -1.4420769e-20)
(2.6142181 -0.02690006 2.7420571e-21)
(2.5719435 -0.010190595 9.8984916e-21)
(2.5406688 -0.024106488 4.4745639e-21)
(2.5341074 -0.051690817 -1.5209512e-21)
(2.5483776 -0.074906331 -5.0006186e-21)
(2.5730348 -0.084770652 5.4512441e-21)
(2.5975664 -0.080420368 -6.6008878e-21)
(2.6147145 -0.066068541 8.8320695e-21)
(2.6218638 -0.048070657 3.9513657e-21)
(2.6206215 -0.031905434 -3.3399035e-21)
(2.6146783 -0.020271784 7.5266158e-22)
(2.6074336 -0.013163539 -2.1587898e-21)
(2.6008123 -0.0092032669 -4.5780239e-22)
(2.595421 -0.0069257875 3.4029644e-21)
(2.5910891 -0.0053192532 -1.3303114e-21)
(2.5875467 -0.003960962 3.8422696e-21)
(2.5844304 -0.0026176826 6.7366247e-22)
(2.581788 -0.0015615875 6.3193462e-21)
(2.5794037 -0.00047134436 1.3191601e-21)
(2.5777539 -0.00019683529 -2.4088716e-23)
(2.57647 0.00036468149 0)
(2.58238 -0.18401429 2.1325128e-20)
(2.6648356 -0.090653531 -4.0204916e-20)
(2.6267936 -0.018390184 -6.1914083e-21)
(2.5742727 0.0019046648 5.0725897e-21)
(2.534017 -0.014783845 -3.4146067e-24)
(2.5230471 -0.049516469 1.3603344e-20)
(2.5381098 -0.080304736 3.6536219e-20)
(2.5672566 -0.095567042 1.4074637e-21)
(2.5979146 -0.093268892 -1.28079e-20)
(2.6206754 -0.077611276 4.0669682e-21)
(2.6312732 -0.056106796 -1.9531809e-20)
(2.6308569 -0.035989978 8.2192922e-21)
(2.6238512 -0.021369087 -5.7375021e-22)
(2.6148176 -0.012707204 2.2616624e-21)
(2.6065614 -0.0083474832 2.1124129e-21)
(2.6000059 -0.0062821344 2.0928154e-21)
(2.5950077 -0.0050843342 2.7379841e-21)
(2.5910251 -0.0040278889 -3.2645106e-21)
(2.5876807 -0.0029413056 -5.3097979e-21)
(2.5846212 -0.0017703324 3.7453594e-21)
(2.5819463 -0.00086257504 2.3011979e-21)
(2.5794647 5.4616577e-05 -9.7200139e-22)
(2.5777311 0.00014452615 -9.0438238e-22)
(2.5763445 0.00046193453 -1.7402873e-21)
(2.5859476 -0.19974644 7.1592434e-20)
(2.6792046 -0.095353376 6.0793249e-20)
(2.6404705 -0.0084794252 -1.751349e-20)
(2.5767655 0.015994424 -5.2904865e-21)
(2.5263234 -0.0033665713 -4.5273232e-20)
(2.5099852 -0.046097244 9.0027083e-21)
(2.5255277 -0.085623177 -5.9602999e-21)
(2.5594702 -0.10741483 -2.6686499e-20)
(2.5971429 -0.1080102 6.2430955e-21)
(2.626744 -0.091266002 -6.5855017e-21)
(2.6418744 -0.065752404 -4.468922e-21)
(2.6427901 -0.040733381 5.5848244e-21)
(2.6345818 -0.022212636 -5.8224082e-21)
(2.6232636 -0.011457037 -1.9708764e-22)
(2.612835 -0.0065586196 -3.3055986e-21)
(2.6047684 -0.0048298476 -6.6002431e-25)
(2.5989039 -0.004246598 5.6597979e-21)
(2.5945378 -0.0037480326 -2.4493886e-21)
(2.5909546 -0.0029875899 -1.3993613e-21)
(2.5877906 -0.0020321508 -4.3677868e-21)
(2.5847586 -0.00096650535 -8.0136646e-22)
(2.5820337 -0.00017798767 -4.2221268e-21)
(2.5794463 0.00057073169 -9.6226495e-22)
(2.57761 0.00048267004 0)
(2.5761269 0.00058414242 1.5649562e-22)
(2.5885364 -0.21550515 -4.4608908e-20)
(2.6917123 -0.10063492 -1.0727474e-20)
(2.6541457 0.0027014837 2.4732457e-20)
(2.5788938 0.032152786 -7.4992136e-21)
(2.5175091 0.010120899 -1.0938599e-20)
(2.4948853 -0.041338262 -1.2804729e-20)
(2.5105274 -0.090793434 -1.5366022e-20)
(2.5494923 -0.12030843 -5.0403484e-21)
(2.5950376 -0.12477521 1.5088224e-20)
(2.6328133 -0.10732163 -1.0853373e-20)
(2.653781 -0.07733771 6.161628e-21)
(2.6567207 -0.046337064 -2.8555793e-21)
(2.6472137 -0.022787377 3.3699611e-22)
(2.6330059 -0.0092196406 2.2934625e-22)
(2.6197216 -0.003573471 1.7992094e-22)
(2.6096314 -0.0023257161 4.0533455e-21)
(2.6026696 -0.0026375711 -1.5110577e-21)
(2.5978399 -0.0029714394 1.5799941e-21)
(2.5941643 -0.0027893665 -7.9049849e-22)
(2.5909387 -0.0021114469 1.4194972e-21)
(2.5878996 -0.0011851296 7.2020412e-22)
(2.5848516 -0.00018415841 -2.8616359e-21)
(2.5820514 0.00050152962 -2.2019007e-21)
(2.5793584 0.0010820266 -2.1955706e-21)
(2.5774109 0.00081127258 -4.5904052e-23)
(2.5758301 0.00070890173 -2.2104734e-22)
(2.5887432 -0.23118058 -7.6306103e-20)
(2.702985 -0.10613805 -7.8553914e-20)
(2.6665572 0.014844517 1.0415487e-20)
(2.5798468 0.050386421 -3.8919303e-21)
(2.5072262 0.025731425 4.0203114e-20)
(2.4777277 -0.035221946 -1.2842456e-20)
(2.4930593 -0.095751466 -4.5902322e-21)
(2.537174 -0.13420319 2.2530922e-20)
(2.5913843 -0.14365895 -7.7320939e-22)
(2.6387448 -0.1260452 -7.8794398e-21)
(2.6670784 -0.091216868 4.6875013e-21)
(2.6729705 -0.053040185 -6.6350294e-21)
(2.6621357 -0.023088115 3.9910477e-21)
(2.6443336 -0.0057821612 2.8809859e-21)
(2.6273228 0.00091408235 1.8812756e-21)
(2.6145473 0.0015253137 -3.7820034e-24)
(2.606128 -4.5273515e-05 2.2382669e-21)
(2.600764 -0.0015683908 -3.5695714e-21)
(2.5970364 -0.0022501405 -2.643144e-21)
(2.5939696 -0.0020662416 3.9262058e-21)
(2.5910016 -0.0013194724 3.8179519e-21)
(2.5880128 -0.00036120255 -1.7166411e-21)
(2.5849051 0.00059166648 1.253793e-21)
(2.582001 0.0011782438 1.5602064e-21)
(2.5791996 0.001588655 3.477869e-22)
(2.5771422 0.0011326254 -3.9798334e-23)
(2.575477 0.00080911128 1.3686637e-22)
(2.5834778 -0.24657412 0)
(2.7105084 -0.11281326 6.2597127e-20)
(2.678458 0.027400188 -7.6530849e-20)
(2.5800992 0.070324354 4.6498017e-20)
(2.4950379 0.043311244 6.7177202e-21)
(2.4585108 -0.027726391 -1.2444684e-21)
(2.4731245 -0.10044428 -7.8126459e-20)
(2.5224147 -0.14903079 8.107416e-22)
(2.5859754 -0.16469698 -1.3017021e-21)
(2.6443647 -0.14767792 1.8620014e-20)
(2.6818169 -0.10775489 -2.6962396e-21)
(2.6918593 -0.061122953 -1.0912643e-21)
(2.6797908 -0.023129598 1.8448115e-21)
(2.6575856 -0.0008981696 3.9781466e-22)
(2.6357699 0.0072606612 1.0639895e-23)
(2.6194478 0.0070567739 -9.769655e-22)
(2.6091029 0.0037890251 -3.8479303e-21)
(2.6030611 0.00060252331 -6.2989026e-21)
(2.5993724 -0.0012951095 -9.4558285e-22)
(2.596602 -0.001855239 -3.8282136e-21)
(2.5939762 -0.0014492066 9.0611365e-22)
(2.5911406 -0.00054826587 1.4544496e-21)
(2.5881244 0.00046656045 -7.7568597e-22)
(2.5849184 0.0013708125 -3.2117958e-22)
(2.5818883 0.0018527867 2.7550599e-21)
(2.5789732 0.0020885188 2.0597628e-21)
(2.5768076 0.0014495445 1.5594576e-22)
(2.5750623 0.00090381757 8.7390157e-22)
(2.575138 -0.26170388 -3.8339663e-21)
(2.7129377 -0.1203362 -1.0772341e-19)
(2.6957967 0.039894156 -5.7214203e-21)
(2.5817685 0.091456999 -4.2448252e-21)
(2.4816972 0.062606711 -1.4760272e-20)
(2.437198 -0.019000878 -1.071278e-21)
(2.4508036 -0.10480755 5.8783973e-21)
(2.5051522 -0.16468571 -2.3114598e-20)
(2.5786139 -0.18788094 0)
(2.6494662 -0.1724071 8.5721679e-21)
(2.6979913 -0.12732221 -6.3344159e-21)
(2.7136983 -0.07091055 -9.8745163e-22)
(2.7006459 -0.02295294 1.3692713e-22)
(2.6731519 0.0056856417 -1.5519987e-21)
(2.645224 0.015881483 9.2410809e-22)
(2.6242655 0.014668646 -1.5677464e-22)
(2.6113765 0.0091476789 4.3862012e-21)
(2.6044686 0.0037186081 -2.0450616e-22)
(2.6008873 0.00013053132 -1.0945113e-21)
(2.5986346 -0.0014616261 2.1903551e-22)
(2.596551 -0.0015828231 -4.4686468e-21)
(2.5941645 -0.00083718093 -1.7517919e-23)
(2.5913369 0.000245464 1.2295251e-22)
(2.5882232 0.0013124244 -6.9615369e-22)
(2.5848865 0.0021564202 -1.9649552e-21)
(2.581716 0.0025237622 -1.3268492e-21)
(2.5786843 0.0025794824 6.505736e-24)
(2.576413 0.0017604797 2.5670486e-23)
(2.5745958 0.00099547019 3.5098954e-22)
(2.5635093 -0.27575886 -2.8018666e-20)
(2.7108025 -0.12888214 1.5201857e-20)
(2.7061526 0.052449962 1.7674281e-19)
(2.584901 0.11446797 -2.8155846e-20)
(2.468082 0.0834423 -1.0443661e-20)
(2.4139862 -0.0091110768 0)
(2.4262071 -0.10883306 4.8476053e-20)
(2.4853638 -0.1810248 2.8376333e-21)
(2.5690933 -0.21311244 -1.9092151e-20)
(2.6537855 -0.2003725 -7.5948341e-21)
(2.7155316 -0.1502626 2.4014531e-21)
(2.7387456 -0.082754274 -7.6893912e-22)
(2.7251927 -0.022651218 -1.3579419e-21)
(2.6914578 0.014232987 6.4455694e-22)
(2.6558597 0.027226651 1.5754071e-21)
(2.628921 0.024813736 -2.4520016e-21)
(2.6127038 0.016365511 0)
(2.6046721 0.0079535777 -2.0899661e-21)
(2.6012888 0.0021018812 1.4718098e-21)
(2.5997845 -0.0009126547 -2.7411199e-21)
(2.598544 -0.0017519479 1.1051798e-21)
(2.5968332 -0.0012769838 -6.5131977e-22)
(2.5944912 -0.00016300754 2.3363122e-21)
(2.5915642 0.0010857964 8.6677112e-22)
(2.5882978 0.0021813709 5.7016974e-23)
(2.5848056 0.0029471673 6.9993875e-22)
(2.5814865 0.0031883673 1.1609373e-21)
(2.5783378 0.0030596974 4.8015504e-22)
(2.5759652 0.0020631599 0)
(2.5740841 0.0010820449 -4.0353307e-23)
(2.5448579 -0.29084464 -9.0774709e-21)
(2.7041137 -0.13503876 2.2608716e-19)
(2.6939914 0.064959282 5.1600479e-20)
(2.581667 0.13934835 3.1024775e-22)
(2.4528754 0.10636667 2.4228289e-20)
(2.3892119 0.0017447985 -1.6175745e-21)
(2.3994547 -0.11244316 -3.822087e-20)
(2.4631325 -0.1979142 2.4673418e-20)
(2.5572808 -0.24026994 2.5180665e-20)
(2.6570244 -0.23160666 -1.0744928e-20)
(2.7342609 -0.1768927 5.3362787e-22)
(2.7672132 -0.097013061 -1.3056529e-22)
(2.7538924 -0.022301423 5.3341093e-21)
(2.7129517 0.025000777 1.9575805e-21)
(2.6678756 0.041784127 9.5422315e-22)
(2.6333094 0.037987685 5.8187002e-22)
(2.6127924 0.025801472 -2.8309765e-21)
(2.6033136 0.013504037 -2.940267e-21)
(2.6002257 0.0046608708 -4.4269546e-21)
(2.5997746 -0.00023271401 1.5542902e-22)
(2.5997066 -0.002052093 5.5742107e-21)
(2.5989985 -0.0019308026 4.1815841e-21)
(2.5973645 -0.00083735366 1.2513161e-21)
(2.5949036 0.00060820095 -2.8389414e-21)
(2.5917952 0.001980663 2.3478981e-21)
(2.5883377 0.0030717835 1.9269896e-21)
(2.5846738 0.0037392721 1.2942159e-21)
(2.5812025 0.0038432368 -2.1059541e-21)
(2.577939 0.0035271559 -4.1178592e-22)
(2.5754705 0.0023564098 -8.9976839e-23)
(2.5735331 0.0011642145 5.4309126e-23)
(2.5194252 -0.30711026 7.4405425e-20)
(2.6910876 -0.1416237 9.9717405e-21)
(2.6695755 0.078633757 -2.5691924e-19)
(2.5623985 0.16353332 -6.7660947e-22)
(2.4351259 0.13073564 -2.0755031e-20)
(2.3634745 0.013849373 -6.1092788e-23)
(2.3707957 -0.11579842 -1.6032105e-20)
(2.4387547 -0.2152149 3.6689066e-20)
(2.5433754 -0.26921938 1.7027818e-20)
(2.6591658 -0.26621246 4.6435318e-21)
(2.7540761 -0.2075099 4.9198152e-21)
(2.7992929 -0.11410617 0)
(2.7872298 -0.02201641 5.124699e-21)
(2.738074 0.038310049 3.5008401e-21)
(2.681462 0.060106402 -3.0825908e-22)
(2.6373176 0.054737355 -3.2846941e-21)
(2.6113013 0.037850483 -1.6030074e-21)
(2.5999786 0.020558284 -5.0247856e-21)
(2.5973118 0.0078449634 -1.5292272e-21)
(2.5982789 0.00049649061 2.6607267e-21)
(2.5998069 -0.0025832824 1.732916e-21)
(2.6004638 -0.0029409208 4.0624011e-21)
(2.5998483 -0.0018537767 8.6125916e-22)
(2.5980506 -0.00021561015 4.4366416e-22)
(2.5953515 0.001485433 -3.0753209e-21)
(2.5920062 0.0029264888 -1.2198874e-21)
(2.5883341 0.0039778693 1.5334418e-22)
(2.5844902 0.0045278232 -2.1741951e-21)
(2.5808671 0.0044850779 -1.8269939e-21)
(2.5774931 0.0039801748 -7.8684753e-22)
(2.5749351 0.0026392274 -2.9852999e-22)
(2.5729488 0.0012417264 -5.7112998e-22)
(2.4883293 -0.32331325 -2.9746552e-20)
(2.6699568 -0.14877204 -1.0087742e-19)
(2.6376444 0.09239093 8.4425405e-20)
(2.535064 0.18666038 -3.9137799e-20)
(2.4149997 0.15529383 5.8332232e-21)
(2.3374573 0.026424519 1.896658e-20)
(2.34085 -0.11860989 1.6906113e-20)
(2.4126175 -0.23298788 3.7513586e-20)
(2.5277441 -0.2998911 -7.899437e-21)
(2.6605265 -0.30412288 1.9111899e-20)
(2.7752428 -0.24248643 8.5535174e-21)
(2.8354114 -0.1345952 -3.4850233e-21)
(2.8260196 -0.022122729 -1.115054e-20)
(2.7673845 0.054433601 -9.5399456e-22)
(2.6967625 0.082759085 1.2631516e-21)
(2.6407809 0.075659747 3.4311329e-21)
(2.6078481 0.052923182 -1.5357811e-21)
(2.5941999 0.029310985 3.4479045e-21)
(2.5921122 0.011652762 7.4765439e-21)
(2.5949519 0.0011727121 4.8583336e-21)
(2.5985903 -0.0035218143 2.9193455e-21)
(2.6010651 -0.0044528801 -3.1661499e-21)
(2.6018043 -0.0033759173 -3.4080294e-21)
(2.6009343 -0.0014583222 4.2748185e-22)
(2.5988046 0.00059542619 -3.8222075e-21)
(2.5957929 0.0024599305 1.1135029e-21)
(2.5921794 0.0039131643 -5.2415548e-23)
(2.5882813 0.004892035 -1.3008166e-21)
(2.5842554 0.0053078473 -1.3173462e-21)
(2.5804839 0.0051110439 3.2618945e-21)
(2.5770052 0.004417455 8.1611889e-22)
(2.5743646 0.0029109265 4.7771488e-22)
(2.5723366 0.0013146757 -5.4240198e-22)
(2.4512055 -0.33904352 3.3081492e-20)
(2.638631 -0.15435353 7.8481847e-22)
(2.5984143 0.10656761 1.5097506e-19)
(2.5015442 0.20962792 -2.5220513e-20)
(2.3905516 0.17733454 -5.6898218e-21)
(2.3116842 0.040201176 -6.6224381e-20)
(2.3104429 -0.12149096 2.3823275e-20)
(2.3850095 -0.25082898 -6.6812723e-20)
(2.5104391 -0.33202342 5.1127417e-22)
(2.6608069 -0.34514229 0)
(2.7966911 -0.28147368 -2.6304898e-20)
(2.8748844 -0.15872298 -1.0653629e-20)
(2.8707996 -0.023099555 -2.4518127e-20)
(2.8022804 0.073347728 -2.648638e-20)
(2.714209 0.11030825 3.2436061e-21)
(2.6434461 0.10136092 -3.3643799e-21)
(2.6019775 0.07145167 -3.6397015e-22)
(2.5854584 0.039929205 2.1603639e-21)
(2.5841561 0.016061591 -1.0713073e-21)
(2.5894206 0.001634545 -2.7448565e-21)
(2.5957976 -0.0050711729 -4.4330948e-21)
(2.6006381 -0.0066974396 5.5107704e-22)
(2.6031437 -0.0055640683 8.5057106e-22)
(2.6034715 -0.0032815548 -1.3985048e-21)
(2.6021151 -0.00074593491 0)
(2.599557 0.0015752626 2.3421603e-21)
(2.5961966 0.0035130151 5.4537089e-21)
(2.5923027 0.0049278225 2.126821e-21)
(2.5881765 0.0058065141 9.5265537e-23)
(2.583971 0.0060749215 6.9425331e-22)
(2.5800569 0.005718874 3.9547235e-22)
(2.5764804 0.0048380838 1.5529229e-22)
(2.5737645 0.0031711004 -1.0600473e-21)
(2.5717014 0.0013831486 1.5285167e-21)
(2.4078943 -0.35389266 -2.491242e-21)
(2.5966571 -0.15849828 -9.9550683e-20)
(2.5517975 0.12306644 -5.1557141e-20)
(2.4618099 0.23276838 1.6843661e-19)
(2.3593043 0.20109247 8.9568948e-21)
(2.285409 0.051431922 -2.7217376e-20)
(2.2800692 -0.12246886 2.29623e-20)
(2.3560713 -0.26907736 -3.7975528e-20)
(2.4910133 -0.36480083 -2.719245e-20)
(2.6583873 -0.3881587 -3.5043522e-22)
(2.8162641 -0.32334944 -4.4096637e-20)
(2.9122747 -0.18513833 3.6938079e-20)
(2.9166273 -0.024349168 2.8880894e-20)
(2.8418113 0.095093748 -5.6762327e-20)
(2.7352307 0.14318315 -2.0422544e-20)
(2.6453704 0.13245296 -3.4430784e-20)
(2.5931524 0.093853592 -6.9000749e-22)
(2.5731789 0.052575397 3.1355873e-21)
(2.572933 0.020989123 -2.318881e-21)
(2.5812991 0.0016798262 -1.9579829e-21)
(2.5911672 -0.0075022927 -1.1365651e-21)
(2.5990358 -0.0099331147 3.4507174e-22)
(2.6037972 -0.0086629765 -8.6082354e-22)
(2.6056426 -0.005831719 7.3146352e-22)
(2.6052436 -0.0026796171 -1.2430826e-21)
(2.6032811 0.00023991055 -1.6620529e-21)
(2.600259 0.0026883847 1.7429845e-21)
(2.5965426 0.0046221784 -4.1335323e-21)
(2.5923693 0.0059576249 -1.159334e-22)
(2.5880188 0.0067143766 9.5934028e-22)
(2.5836395 0.0068254509 4.7404064e-22)
(2.5795901 0.0063069082 1.8731142e-22)
(2.5759234 0.0052414955 9.0148119e-22)
(2.5731397 0.0034195503 -1.2425394e-21)
(2.5710481 0.0014472686 -1.2642336e-21)
(2.3590972 -0.36746756 -1.561929e-20)
(2.5448599 -0.16118137 -4.5721287e-22)
(2.4973459 0.14092314 5.5215677e-20)
(2.414197 0.2562863 -4.3410621e-20)
(2.3232279 0.22740375 1.5663688e-20)
(2.2540736 0.067835237 3.5941765e-20)
(2.2509949 -0.12626769 -4.0836944e-20)
(2.3253461 -0.28574814 1.0977599e-19)
(2.4691134 -0.39812881 2.2553872e-20)
(2.6516518 -0.4323012 2.7550736e-21)
(2.8303235 -0.36649198 2.0616145e-20)
(2.9454089 -0.21159225 -8.2472123e-21)
(2.9541984 -0.023024068 4.4624391e-20)
(2.8755075 0.12163833 8.2379767e-20)
(2.7562551 0.18209528 2.3824666e-20)
(2.6473723 0.16958889 -1.8876176e-20)
(2.5809389 0.12051144 4.238712e-21)
(2.5567356 0.067344809 -4.3200082e-21)
(2.5579164 0.026336337 -7.4418807e-21)
(2.5701874 0.0010412407 8.5766418e-21)
(2.5844392 -0.011131915 1.0088283e-20)
(2.5961265 -0.014490348 3.8542848e-21)
(2.6037342 -0.012941029 -9.7882765e-22)
(2.6074657 -0.0093312977 -2.2562511e-21)
(2.6082245 -0.0053153962 3.5506175e-21)
(2.6069548 -0.001654651 1.5075e-21)
(2.6043591 0.0014347246 -1.8622404e-21)
(2.600881 0.003895147 -3.4035352e-21)
(2.5968202 0.0057658032 -4.8832765e-21)
(2.5923764 0.0069913651 -4.4666455e-22)
(2.5878091 0.0076099831 -1.1380845e-21)
(2.5832639 0.0075567014 -8.1570973e-22)
(2.5790876 0.0068740046 3.4879178e-22)
(2.5753389 0.0056273928 -7.7001461e-22)
(2.5724948 0.0036562081 5.0580039e-22)
(2.5703807 0.0015071832 -7.2620227e-22)
(2.3055894 -0.37944369 1.6148147e-20)
(2.4842114 -0.16234202 2.4670503e-19)
(2.4354079 0.16004984 1.2283024e-19)
(2.3594192 0.27985232 -1.3991879e-19)
(2.2804524 0.25220712 6.1941526e-21)
(2.2194093 0.089155586 -1.7276775e-21)
(2.2170002 -0.12293145 -6.7373268e-21)
(2.2968129 -0.30510893 -7.6926305e-20)
(2.444264 -0.43014139 7.465443e-21)
(2.640591 -0.47687784 -1.3308419e-20)
(2.8386479 -0.41182477 1.06336e-20)
(2.9737618 -0.2388543 -1.6033214e-19)
(2.9880192 -0.018043239 1.1888437e-19)
(2.8946438 0.15623844 -2.4486855e-20)
(2.7609996 0.22894715 1.9905289e-20)
(2.6451669 0.21382384 4.3226414e-20)
(2.5654225 0.15194719 -3.5950964e-21)
(2.5354559 0.084290655 -7.8166343e-21)
(2.5385749 0.03189543 3.7122692e-21)
(2.5557083 -0.00055290308 2.8814329e-21)
(2.5753745 -0.016329693 -9.1214328e-21)
(2.5917986 -0.02073238 -2.0548203e-21)
(2.6029555 -0.018732529 1.7393839e-21)
(2.609015 -0.014016676 -8.8062041e-22)
(2.6111443 -0.0088247376 -2.7787944e-22)
(2.6106436 -0.0041663417 -3.5039913e-21)
(2.6085005 -0.0003207255 -1.5374851e-23)
(2.6053101 0.0027696745 3.2174506e-21)
(2.60141 0.0051588284 -3.7100948e-21)
(2.5970256 0.0069257026 -1.4058688e-21)
(2.5923239 0.008020166 -1.6029946e-21)
(2.5875495 0.0084890443 6.2278536e-22)
(2.5828474 0.0082666957 -8.5146601e-22)
(2.5785533 0.0074194283 1.1317907e-22)
(2.5747312 0.0059956673 3.9271582e-22)
(2.5718341 0.0038811134 -1.1505753e-22)
(2.5697032 0.0015630532 1.9032572e-21)
(2.2484809 -0.38951081 -1.9656809e-20)
(2.4158473 -0.16189218 7.1663797e-20)
(2.3674879 0.18004074 -3.8909171e-20)
(2.2987373 0.30330419 9.072333e-20)
(2.2313179 0.27672332 -3.5548954e-20)
(2.1806267 0.10850192 4.9880704e-21)
(2.1791876 -0.11377336 2.8094755e-20)
(2.2601942 -0.31677294 -7.5168414e-20)
(2.420254 -0.46442363 -7.312907e-21)
(2.6254764 -0.5215062 -2.6674328e-20)
(2.8434236 -0.45817055 -4.6096849e-20)
(3.0036307 -0.27137608 -5.3353534e-20)
(3.0331121 -0.015353091 -2.0490842e-20)
(2.9185671 0.19606858 6.5500692e-20)
(2.7485542 0.28442675 -5.131639e-20)
(2.6232384 0.26496848 4.2757343e-20)
(2.5440892 0.18893918 1.7082086e-20)
(2.5089364 0.10349362 7.2995566e-21)
(2.5143434 0.03744938 -2.2639482e-21)
(2.5375094 -0.0034970139 -2.9297623e-21)
(2.5637629 -0.023456706 -7.8481917e-21)
(2.5859695 -0.029067226 -2.4071539e-21)
(2.6014995 -0.026401349 -3.1578433e-21)
(2.6104137 -0.020180309 1.7833507e-21)
(2.6141585 -0.013377325 2.0743862e-23)
(2.6144778 -0.0073972558 -1.7872749e-21)
(2.6127553 -0.0025774344 -5.2775523e-21)
(2.6098296 0.0012062986 -4.0434016e-21)
(2.6061221 0.0041819141 -1.6552542e-21)
(2.6018444 0.0064500321 3.2662219e-22)
(2.5971596 0.0080881112 5.1580602e-21)
(2.5922135 0.0090375042 1.8173855e-21)
(2.5872426 0.0093484548 3.8738263e-22)
(2.5823935 0.0089540453 3.6338763e-22)
(2.5779913 0.007942731 4.5239239e-22)
(2.5741042 0.0063463374 1.340667e-21)
(2.5711613 0.0040943535 1.8741349e-21)
(2.5690191 0.0016150462 1.0679121e-21)
(2.1892678 -0.39740341 9.3794815e-21)
(2.3411154 -0.15992766 7.4845241e-22)
(2.2951313 0.20054044 -2.1558148e-20)
(2.2338082 0.32641386 -1.1831137e-20)
(2.1769683 0.30001064 -9.3664325e-22)
(2.1367106 0.1280258 -8.8448136e-21)
(2.1386788 -0.10565907 -2.5700535e-20)
(2.2181057 -0.32376613 8.137974e-20)