/*--------------------------------*- C++ -*----------------------------------*\
| =========                 |                                                 |
| \\      /  F ield         | OpenFOAM: The Open Source CFD Toolbox           |
|  \\    /   O peration     | Version:  v2012                                 |
|   \\  /    A nd           | Website:  www.openfoam.com                      |
|    \\/     M anipulation  |                                                 |
\*---------------------------------------------------------------------------*/
FoamFile
{
    version     2.0;
    format      ascii;
    class       surfaceScalarField;
    location    "74.7654651827956371";
    object      meshPhi;
}
// * * * * * * * * * * * * * * * * * * * * * * * * * * * * * * * * * * * * * //

dimensions      [0 3 -1 0 0 0 0];
oriented        oriented;


internalField   nonuniform List<scalar> 
18180
(
0
0.031621595
0
0.029847374
0
0.062273811
7.3512846e-14
0.027954512
0
0.057929201
0
0.090690438
-1.3950352e-17
0.02594442
-7.1047905e-14
0.053451461
0
0.083806247
0
0.11678324
3.6695286e-14
0.023964685
3.5486334e-14
0.049046094
0
0.076768273
0
0.10801095
6.4199211e-14
0.14140584
0
0.022258792
-1.0640107e-13
0.045333234
0
0.07033189
0
0.099078615
0
0.13105593
6.2055138e-14
0.16435647
3.6629653e-14
0.020857374
-3.5430139e-14
0.042297692
-1.1252092e-17
0.064931086
3.3160503e-14
0.090812661
-6.4168186e-14
0.12069266
0
0.15284551
0
0.18602897
0
0.01963974
-7.0815316e-14
0.039715204
0
0.060553681
-1.0833334e-17
0.083785491
-3.2054632e-14
0.11097124
-6.202657e-14
0.1414589
0
0.17343527
5.7977523e-14
0.2061432
0
0.018567619
3.5386015e-14
0.037473418
0
0.05694612
-3.3115467e-14
0.078048257
-3.2045156e-14
0.10252822
0
0.13073961
0
0.16120003
0
0.19259696
-1.6712966e-17
0.22498041
0
0.017592132
0
0.035436659
3.4214659e-14
0.053803588
-1.0882307e-17
0.07334234
3.2023889e-14
0.095496692
-6.1943045e-14
0.12118233
2.9961307e-14
0.14965043
-5.7951844e-14
0.17964719
0
0.21048035
0
0.24238508
0
0.016687007
0
0.033534503
0
0.050921796
0
0.06926855
0
0.089557945
-3.0946348e-14
0.1129175
-2.9943377e-14
0.13920838
-2.89506e-14
0.16744253
0
0.19683823
0
0.22707795
0
0.25865275
0
0.01583285
0
0.031727734
0
0.048189603
0
0.065547472
3.1981246e-14
0.084426184
3.0926342e-14
0.10584329
0
0.12997585
0
0.15624443
0
0.18402544
-5.4137567e-14
0.21284298
0
0.24252784
0
0.27360798
7.4818004e-18
0.015020362
0
0.029997267
0
0.04555878
-1.1256338e-17
0.062029582
0
0.079796858
0
0.099623061
2.98953e-14
0.12178359
-2.8915409e-14
0.14609283
-9.3198124e-18
0.17217466
0
0.19950581
0
0.22768369
0
0.25675901
-1.2328155e-17
0.2875244
-7.5844579e-18
0.014243115
6.5966083e-18
0.028331906
0
0.043014088
0
0.058635464
0
0.075424774
0
0.093955045
0
0.11443577
-2.8907392e-14
0.13685761
-2.794878e-14
0.1612125
8.7305697e-18
0.187083
0
0.21385328
0
0.24138264
0
0.26992282
4.7242552e-14
0.30030254
-7.685028e-18
0.01349841
0
0.026728137
0
0.040552523
0
0.055349418
0
0.071227508
0
0.088667022
0
0.10777201
0
0.12847989
0
0.1511048
0
0.17552236
-8.1862194e-18
0.20098835
-2.5262029e-14
0.22712796
4.8851986e-14
0.25401048
0
0.28205954
0
0.3121839
-1.8204991e-14
0.012784787
-1.761064e-14
0.025184227
-1.7046004e-14
0.038175247
0
0.052173484
0
0.067172746
0
0.083630391
0
0.10161578
0
0.12090963
0
0.14187775
0
0.16474022
2.6115803e-14
0.18893968
-2.5254445e-14
0.21388005
-2.4412786e-14
0.23936537
-4.7219282e-14
0.26567258
0
0.29327122
-9.6538645e-18
0.32306181
0
0.012098916
0
0.023701734
-6.0490425e-18
0.035885801
-1.6483727e-14
0.049115371
1.5945202e-14
0.063261372
0
0.078785513
0
0.095805537
-2.885561e-14
0.11395173
0
0.13343352
0
0.15474759
-2.6099489e-14
0.17763701
-2.5230848e-14
0.20146158
2.4398029e-14
0.22581276
0
0.25067524
4.5615544e-14
0.27639101
0
0.30356592
0
0.33316762
1.8198934e-14
0.01143786
-6.5743397e-18
0.022280484
-1.702566e-14
0.03368819
-5.8430354e-18
0.046182809
0
0.059503035
1.5415756e-14
0.074120204
0
0.09024987
0
0.10742934
0
0.12568196
0
0.14557127
0
0.16707835
-2.522281e-14
0.18972419
-2.4382456e-14
0.21308767
0
0.23684946
0
0.26105511
0
0.28624548
4.2603036e-14
0.31305543
4.1172141e-14
0.34244011
-1.8185114e-14
0.01080058
0
0.020921705
0
0.031587908
0
0.043382191
-5.5042353e-18
0.055908622
-5.3533278e-18
0.069638869
0
0.084913724
0
0.10123452
0
0.1184635
0
0.13707596
0
0.1572126
0
0.17862297
-7.5581713e-18
0.20097837
-2.3561304e-14
0.2238727
0
0.24699937
0
0.27060159
-4.2593307e-14
0.29529226
0
0.32180126
-3.9782516e-14
0.3510565
0
0.010187395
3.5177262e-14
0.019626831
0
0.029589031
-1.646497e-14
0.040717712
1.5925661e-14
0.052485698
-5.3281649e-18
0.06535119
0
0.079794903
0
0.095305224
0
0.11162034
0
0.12912489
-2.6052633e-14
0.14799184
0
0.16813015
0
0.18940054
-2.3552868e-14
0.21145757
0
0.23382314
-5.535408e-18
0.25633963
0
0.27936331
0
0.30364118
0
0.32986727
3.8423087e-14
0.35895038
0
0.0095971608
0
0.018397571
0
0.027694065
-1.6459951e-14
0.038192004
-5.5159558e-18
0.049239472
-1.5391769e-14
0.06126483
-1.489031e-14
0.074899804
0
0.089631307
0
0.10509522
0
0.12163033
0
0.13937718
2.5168752e-14
0.15827125
0
0.17839403
0
0.19954557
2.2758e-14
0.22119839
0
0.24301594
2.1267174e-14
0.26493668
2.0563777e-14
0.28744656
0
0.31131092
0
0.33729122
0
0.36627848
-1.8171305e-14
0.0090292721
0
0.017233795
0
0.025904399
0
0.035805344
0
0.046171831
0
0.057386051
1.4879456e-14
0.070235528
1.4388451e-14
0.084214649
-4.9010471e-18
0.098861151
0
0.114512
0
0.1312935
0
0.14907471
-7.9432756e-18
0.16802806
0
0.18815608
0
0.20902273
-2.1988725e-14
0.23023247
2.1258507e-14
0.25150184
-2.0551246e-14
0.27286092
1.9861587e-14
0.29486929
0
0.31838457
0
0.34412167
3.5849816e-14
0.37299742
-1.8167773e-14
0.0084824286
0
0.01613454
-1.7001064e-14
0.024220358
-1.6451495e-14
0.033554503
0
0.043281106
1.5387351e-14
0.053718943
0
0.065806077
0
0.079060425
0
0.09291421
0
0.10772494
0
0.1236471
0
0.14046089
2.4315691e-14
0.15828165
-7.5941139e-18
0.17733619
0
0.19734224
0
0.2178664
0
0.23860481
0
0.25933576
1.9849189e-14
0.28014775
0
0.3017179
0
0.32487674
0
0.35041396
0
0.37921779
-1.8168811e-14
0.0079563858
-8.7848114e-15
0.015097776
0
0.022639998
0
0.031435543
-5.5506704e-18
0.040562087
0
0.050263756
1.487557e-14
0.061614106
1.4378393e-14
0.074171192
0
0.087255793
-1.3446203e-14
0.10125395
-1.3000192e-14
0.11637642
1.2568718e-14
0.1323343
0
0.14914626
0
0.16714023
-2.2714878e-14
0.1861949
0
0.205934
0
0.22608466
-5.265994e-18
0.24635571
0
0.26654679
1.91745e-14
0.28686545
1.8536862e-14
0.30801492
-3.5829088e-14
0.33086247
0
0.35618021
-5.0043422e-18
0.38490012
-9.0810042e-15
0.0074524082
-8.7865807e-15
0.01412166
0
0.021160258
0
0.029443473
0
0.038008622
-5.0756049e-18
0.047016627
0
0.057659086
0
0.069545266
0
0.081887208
0
0.095095169
-4.6642067e-18
0.10944908
-1.2562992e-14
0.12462704
-1.2141191e-14
0.14055035
0
0.15751848
-2.2694381e-14
0.17556145
-6.7505804e-18
0.19444936
0
0.21393523
-2.0504559e-14
0.23372356
0
0.2535081
-1.9161587e-14
0.27320286
-1.8525422e-14
0.29305652
0
0.31381178
0
0.33632151
0
0.36146269
0
0.39014112
4.1243366e-18
0.0069717673
0
0.013204096
-8.4989376e-15
0.019777608
-8.2179357e-15
0.027572882
1.5895719e-14
0.035613793
0
0.043971604
1.4862567e-14
0.053936247
1.4370201e-14
0.065177768
0
0.076805119
-1.3436646e-14
0.08924528
0
0.10285617
-4.4704543e-18
0.11729005
1.2139633e-14
0.13239553
0
0.14842339
0
0.16545139
0
0.18339946
2.1196426e-14
0.20214676
0
0.22140356
1.9813433e-14
0.24079999
0
0.26012367
-1.8509223e-14
0.27933908
-1.7893676e-14
0.2987443
0
0.31910502
0
0.34132165
0
0.36627533
-4.1950312e-18
0.39492551
9.0788407e-15
0.0065143922
3.1761917e-18
0.012342704
-8.4948603e-15
0.018486569
-8.2198403e-15
0.025816882
2.81017e-18
0.033368409
1.5368382e-14
0.041122962
0
0.050438573
1.4366726e-14
0.061061126
0
0.072003098
0
0.083700505
0
0.096591416
-1.2552939e-14
0.11030739
1.2130262e-14
0.12464068
-3.9428074e-18
0.13981798
1.1338742e-14
0.15589146
0
0.17283449
-2.1190033e-14
0.19075046
-2.0483243e-14
0.20942322
0
0.22838219
0
0.24736936
-1.8500388e-14
0.26622947
-1.7878164e-14
0.28497974
-3.0960283e-18
0.30395181
1.670186e-14
0.32394809
0
0.34586052
0
0.37068062
0
0.39932637
-9.0779815e-15
0.0060796636
8.780155e-15
0.011533525
8.4967766e-15
0.017281167
8.2124743e-15
0.024169254
-7.9482138e-15
0.031263123
7.6853831e-15
0.03846173
0
0.047159322
0
0.057186819
0
0.067473081
0
0.078453633
0
0.09064972
0
0.10367124
0
0.11725726
1.1720731e-14
0.13164662
-1.1333272e-14
0.14686574
3.4447763e-18
0.16283666
-2.1171563e-14
0.1798096
0
0.19778861
3.95685e-14
0.21627271
0
0.23489058
1.8483071e-14
0.25344966
-1.7869388e-14
0.2718486
0
0.29014678
-1.6691504e-14
0.30870961
1.6127452e-14
0.32835596
-4.2460059e-18
0.35000511
0
0.37468095
0
0.40333361
0
0.0056670144
0
0.010774142
-8.4988371e-15
0.016156132
8.217854e-15
0.02262356
0
0.02928773
7.6818254e-15
0.03597862
7.4297736e-15
0.044090881
0
0.053544029
0
0.063205201
1.3420707e-14
0.073497119
0
0.08502321
-1.2539981e-14
0.097373586
1.2121129e-14
0.11023303
0
0.12387004
-3.7971636e-18
0.1383166
0
0.15340014
0
0.16937027
0
0.1865594
0
0.2045413
-5.3826284e-18
0.22272823
0
0.24094153
0
0.25905875
0
0.27700222
3.0214263e-18
0.29487644
-2.5848786e-18
0.31305302
0
0.33236468
3.0096322e-14
0.35374526
0
0.3783272
0
0.4070106
0
0.0052729326
0
0.010062929
0
0.015106273
-8.2202319e-15
0.021174991
2.8523997e-18
0.027433305
7.6832675e-15
0.033661925
7.4259643e-15
0.041222907
2.9310273e-18
0.050121958
0
0.059187929
1.3422465e-14
0.068819834
1.296966e-14
0.07970342
0
0.091407519
4.2928291e-18
0.10355872
1.1711692e-14
0.1164673
0
0.1301932
1.0940979e-14
0.14448119
0
0.15951127
0
0.17581326
0
0.19318324
0
0.21093105
1.8457279e-14
0.2287449
-1.7844429e-14
0.24654181
-5.1736817e-14
0.26421025
0
0.28172794
0
0.29919667
-2.3436239e-18
0.31699234
3.00818e-14
0.33598534
0
0.35714295
0
0.38163283
2.7114631e-14
0.41036408
2.3981621e-05
0.0057470026
0
0.0093912862
0
0.014127029
0
0.019817049
7.9427178e-15
0.025692095
7.6824113e-15
0.031499984
7.4277049e-15
0.038544523
0
0.046909509
-6.9391565e-15
0.055408873
0
0.064411001
0
0.074680288
-1.2538008e-14
0.085763585
0
0.097227205
-2.3419663e-14
0.10942783
-1.1319368e-14
0.12246208
0
0.13602789
-3.2349743e-18
0.15020513
-1.0218756e-14
0.16554101
-9.8730138e-15
0.18215828
0
0.19946112
0
0.21688933
-1.783227e-14
0.23432083
0
0.25169375
1.6656928e-14
0.26894151
1.6091943e-14
0.28604837
1.5556661e-14
0.30312077
-2.1244919e-18
0.32056006
1.4524773e-14
0.33926383
0
0.36021331
0
0.3846597
0
0.41344928
4.0040688e-05
0.0056931667
6.4557295e-05
0.01019341
2.9609417e-18
0.013208616
0
0.018543518
0
0.024057129
0
0.029479236
2.6839689e-18
0.036046015
2.1537484e-14
0.04389613
-2.5604263e-18
0.051857715
6.7086907e-15
0.060258441
0
0.069941269
0
0.080432448
0
0.091229394
0
0.10274091
1.131555e-14
0.1151089
-1.0935746e-14
0.12798863
1.0565373e-14
0.14137917
1.0210744e-14
0.15579418
-3.1869696e-18
0.17154006
0
0.18823866
0
0.2052893
0
0.22239816
0
0.23945498
0
0.25643086
-1.6086437e-14
0.27327111
0
0.2899792
0
0.30667917
-1.4515804e-14
0.32378219
1.4024833e-14
0.34222964
0
0.3630165
0
0.38743102
2.5275179e-14
0.416276
4.9158351e-05
0.0056360172
0.0001080975
0.010169043
9.6331423e-05
0.014256217
0
0.017343138
0
0.022521442
0
0.027591086
7.4234577e-15
0.033713908
2.9790852e-18
0.041072796
0
0.048523718
-2.0120562e-14
0.056351637
6.483408e-15
0.065474519
-1.2532757e-14
0.075401318
-1.2112079e-14
0.085555221
0
0.0963981
-1.1308099e-14
0.10812294
0
0.12034352
0
0.13300035
2.0415678e-14
0.1465782
-3.1722679e-18
0.16141582
9.5316381e-15
0.1773149
0
0.19385532
0
0.21067268
0
0.22747558
0
0.24418031
0
0.26077007
0
0.27721769
-2.4473156e-18
0.29355074
0
0.30989935
-2.8032383e-14
0.32670023
1.354007e-14
0.34492446
0
0.36558126
0
0.38999489
0
0.41888402
5.2331551e-05
0.0055785225
0.00013312312
0.01013671
0.00016182324
0.014294532
0.00012573762
0.018577871
0
0.021068679
0
0.025827966
0
0.031538234
0
0.038429328
6.9389212e-15
0.045395949
6.7043958e-15
0.052680285
6.4798436e-15
0.061268701
6.2652991e-15
0.070658864
0
0.080194851
-1.1698334e-14
0.090389131
0
0.10149449
0
0.11308236
3.2446234e-18
0.12503438
-3.1209419e-18
0.13783547
-9.8619031e-15
0.15182339
9.5238744e-15
0.16685282
9.2064565e-15
0.18266901
0
0.19904755
0
0.21564295
0
0.23216452
-3.623086e-18
0.24851928
0
0.26473273
0
0.28080855
0
0.29679058
1.4006846e-14
0.3128147
0
0.32933686
1.3074421e-14
0.3473805
0
0.36796088
0
0.39236346
0
0.42128429
5.0538762e-05
0.0055213152
0.00014215168
0.0101016
0.00019997558
0.014322152
0.00021151653
0.018676176
0.00015244611
0.022404692
0
0.024168158
0
0.029510231
0
0.035955693
6.9356564e-15
0.042463468
6.7058527e-15
0.049234703
-6.4815115e-15
0.057314016
0
0.066191997
2.1646423e-18
0.07513731
-1.1695838e-14
0.084704962
0
0.095213045
0
0.10619413
1.0554077e-14
0.11746842
1.0201551e-14
0.1295354
0
0.14274706
9.5226143e-15
0.15694892
-9.2047639e-15
0.17192581
-8.8946566e-15
0.18764501
8.5951459e-15
0.20389599
0
0.22026547
0
0.2364743
1.5509605e-14
0.25248579
0
0.26834337
0
0.28407392
-2.0145772e-18
0.29972594
0
0.3154419
-1.4171393e-18
0.33172782
1.2621692e-14
0.34965444
-2.2721456e-18
0.37017886
0
0.39457676
0
0.42349639
4.4749914e-05
0.0054648605
0.00013771856
0.010064059
0.00021429854
0.014344168
0.00026173347
0.018757039
0.00025645148
0.02257876
0.00017322524
0.025533107
0
0.027611963
0
0.033641771
0
0.039716348
-6.705128e-15
0.046002829
-6.4781492e-15
0.053598657
0
0.061988811
-6.0527545e-15
0.070370444
-5.8468143e-15
0.079334758
0
0.089268629
0
0.099669376
-1.0554276e-14
0.11029095
0
0.12165656
9.854158e-15
0.13415073
-3.156995e-18
0.14759579
0
0.16175186
-1.7780364e-14
0.17668321
0
0.19234789
8.3008962e-15
0.20841315
0
0.22451473
0
0.2404242
0
0.25610577
0
0.27163478
1.3985002e-14
0.2870369
0
0.30236988
1.5169622e-18
0.31781423
1.261392e-14
0.33392174
2.4372072e-14
0.35177929
-2.3542392e-14
0.3722693
0
0.39663168
0
0.42553052
3.5907765e-05
0.0054098566
0.0001223221
0.010024003
0.00020838207
0.014360407
0.0002809126
0.018827364
0.00031740044
0.022724564
0.00029155039
0.025815577
0.00019129822
0.028974969
-7.1774278e-15
0.03146897
0
0.037145767
0
0.042976746
-2.6050021e-18
0.050108579
-6.2601879e-15
0.058035456
0
0.065881925
0
0.074268595
5.6507979e-15
0.083651406
1.0920422e-14
0.093497098
0
0.1034923
1.0192047e-14
0.11418632
0
0.12600469
-9.5149033e-15
0.1387539
-9.1966062e-15
0.15214441
8.8860188e-15
0.16624902
0
0.18119339
-2.3884519e-18
0.19675883
8.016434e-15
0.21259702
0
0.22843361
0
0.24404274
1.4462556e-14
0.25941629
0
0.27462841
0
0.28971192
0
0.30475528
-1.2605482e-14
0.31996748
-1.2179181e-14
0.33595589
0
0.35378235
0
0.37423433
0
0.39855604
0
0.42738441
2.4924894e-05
0.0053570436
9.8456329e-05
0.0099819299
0.00018576705
0.01437065
0.00027358334
0.018887212
0.00034072183
0.022852468
0.00036103261
0.026060636
0.00032225525
0.029376823
0.00021041347
0.032785086
0
0.03472705
0
0.040150825
0
0.046834083
-2.6829944e-18
0.054318108
-6.0490477e-15
0.061659815
0
0.069495294
0
0.078349104
-5.4571903e-15
0.087667
0
0.097061209
0
0.10710983
-9.8478006e-15
0.11828911
0
0.13038963
0
0.14306565
0
0.15637793
0
0.17055046
0
0.18548568
8.0096472e-15
0.20086707
0
0.21646646
0
0.23204337
0
0.2473732
0
0.26243954
0
0.27734021
0
0.29212816
0
0.30690488
1.2171126e-14
0.32193285
0
0.33785388
0
0.35567377
0
0.37609651
0
0.40032413
2.0454679e-14
0.42906934
1.2677208e-05
0.0053073939
6.8537907e-05
0.0099383685
0.00015006497
0.014374202
0.00024433586
0.018936773
0.00033192282
0.022962566
0.00038776554
0.026279071
0.00039939366
0.029736779
0.00035450811
0.033301316
0.00022709627
0.035914448
0
0.0375014
0
0.043765668
0
0.050823388
-6.0505519e-15
0.057691676
1.9686075e-18
0.065004456
0
0.073349885
-1.9899142e-18
0.08216504
1.6023685e-18
0.090986306
0
0.10041579
0
0.11098578
0
0.1224756
0
0.13448389
0
0.14705566
0
0.16043919
-8.2854635e-15
0.17466094
-2.3105208e-18
0.18949202
7.7348803e-15
0.2046785
-7.4737458e-15
0.22005981
0
0.23538967
-1.3955349e-14
0.25042407
1.3484049e-14
0.2651881
0
0.2797962
0
0.29430532
0
0.30884606
0
0.3237335
-1.135067e-14
0.33963259
0
0.3574705
-2.1177886e-14
0.37783914
0
0.40196159
0
0.43057805
0.0052616342
0
3.4955386e-05
0.0098942776
0.00010483455
0.014370805
0.00019773454
0.018975628
0.00029655342
0.023055442
0.00037796316
0.026470004
0.00042933534
0.030059508
0.0004394737
0.033763361
0.00038235096
0.036526266
0.00023867785
0.038512467
6.4763921e-15
0.040886705
0
0.047537423
0
0.053964897
-1.1689124e-14
0.060782716
5.6482267e-15
0.06864275
-5.4553677e-15
0.076978469
5.2709396e-15
0.085255957
-5.0923784e-15
0.094092032
0
0.10407921
0
0.11499188
0
0.12636505
-2.7825382e-18
0.1382357
0
0.15086535
0
0.16433158
0
0.17853456
0
0.19324533
0
0.20825014
0
0.22341186
0
0.23847182
0
0.25321306
0
0.26768594
0
0.28201637
0
0.2962663
-1.1743193e-14
0.31059451
1.1343206e-14
0.32538987
-1.0957277e-14
0.34131242
0
0.35917792
0
0.37947237
0
0.4034306
-1.9057952e-14
0.43192602
0.0098501793
0
0.0052207258
-1.2480906e-05
5.3643858e-05
0.014360674
0.0001384072
0.019003302
0.00024011436
0.023130957
0.00033784942
0.026632888
0.00041882562
0.030342525
0.00047254265
0.034179599
0.00047368265
0.037065383
0.00040154506
0.039233125
0.00024966215
0.041734444
0
0.044434876
0
0.050468245
0
0.056821114
-5.6475783e-15
0.064213768
2.0577678e-18
0.072093191
-5.2701055e-15
0.079857158
0
0.088127455
0
0.097555943
0
0.10791994
0
0.11868758
-2.7931624e-18
0.12988917
0
0.14181199
0
0.15454006
-8.0002301e-15
0.16803503
-1.545591e-14
0.18221273
7.4651706e-15
0.19681374
0
0.21161538
1.6071424e-18
0.22653425
0
0.24131659
0
0.25576226
0
0.26995565
0
0.2840202
0
0.29802198
1.1334386e-14
0.31217729
1.0950107e-14
0.3269336
-2.1153501e-14
0.3429123
1.021515e-14
0.36078296
0
0.38095748
0
0.40475647
-1.8394302e-14
0.43310777
0.014343957
0
0.0098070655
-3.4567595e-05
0.0051856436
-2.4169048e-05
7.0958006e-05
0.019019849
0.00016817599
0.023188824
0.00027370029
0.026767143
0.00037462425
0.030584761
0.0004611129
0.034548797
0.0005090841
0.037548584
0.00049708772
0.03986234
0.00041997202
0.042606584
0.00026205081
0.045093035
0
0.047168932
0
0.053111477
0
0.060052889
5.4539606e-15
0.067495917
-5.2693729e-15
0.074775154
0
0.082508782
-1.703271e-18
0.091402138
4.7523318e-15
0.10124493
0
0.11143425
0
0.12199199
8.5658774e-15
0.13324725
0
0.14528348
0
0.15805498
-7.7256249e-15
0.17159951
-7.4635915e-15
0.18575834
0
0.20019327
0
0.21477878
-6.7286403e-15
0.22944121
0
0.243938
0
0.25809811
0
0.27201436
0
0.2858168
0
0.29959859
1.0941687e-14
0.31362437
-1.0569449e-14
0.3283843
0
0.34442226
0
0.36227411
-1.9045497e-14
0.38230746
0
0.40591768
0
0.43414593
0.019025151
0
0.01432173
-5.3354204e-05
0.0097651541
-6.703721e-05
0.0051572644
-3.4321038e-05
8.6285566e-05
0.023229682
0.00019180281
0.026873587
0.00030369207
0.030785368
0.00041260658
0.034867349
0.00049660953
0.037975581
0.00053378074
0.040415456
0.00051972635
0.043370054
0.00044085248
0.046129388
0.00027126115
0.047580708
0
0.049622174
-5.6443318e-15
0.056149217
0
0.063172736
5.2687267e-15
0.069995971
-5.0898289e-15
0.077223514
4.916721e-15
0.085604744
-1.425231e-14
0.094950602
4.5897849e-15
0.10458879
0
0.11452798
0
0.12514445
0
0.13653464
0
0.14861486
7.7224149e-15
0.16144893
-7.4602315e-15
0.17506432
-7.2069874e-15
0.18915577
-1.3924873e-14
0.20340539
-1.6473658e-18
0.21775381
-6.4966982e-15
0.23215431
0
0.24636145
0
0.26022645
0
0.27386931
0
0.28742966
0
0.30101707
-1.056317e-14
0.31495785
1.0203437e-14
0.32975064
-1.9710613e-14
0.34584674
9.5180791e-15
0.36363351
0
0.38350612
0
0.40695003
0
0.43504093
0.023253626
0
0.01902213
-7.0850471e-05
0.014293466
-0.00010370261
0.0097245665
-9.5288754e-05
0.0051359128
-4.2198451e-05
9.8469407e-05
0.026953147
0.00021293503
0.030943175
0.00033458878
0.03513174
0.0004442528
0.038342793
0.00052026401
0.040891723
0.00055781789
0.044030833
0.00054549599
0.047029172
0.00045623423
0.048758804
0.00027629746
0.049768848
0
0.052473852
0
0.059109945
0
0.065507974
-1.4190845e-18
0.072255697
0
0.080149527
4.7486422e-15
0.089020509
4.5871743e-15
0.098134501
-4.4311811e-15
0.1074796
0
0.11748354
0
0.12826487
0
0.1396985
0
0.15182797
-7.4547991e-15
0.16479966
-7.2037456e-15
0.17845412
0
0.19241444
-1.8085188e-18
0.20646044
0
0.22056927
0
0.2346854
0
0.24858667
0
0.26215823
0
0.2755415
0
0.28887277
0
0.30229847
-1.0196562e-14
0.31618994
0
0.33103922
-9.5126456e-15
0.34715845
-9.1868174e-15
0.36486622
-1.7742076e-14
0.38457606
0
0.40783524
0
0.43581385
0.027003697
0
0.02326484
-8.6318896e-05
0.019010199
-0.0001379786
0.014257757
-0.00014764778
0.0096861836
-0.00011720378
0.0051228106
-4.7097002e-05
0.0001093641
0.031056143
0.00023464454
0.035337623
0.00036017313
0.038645044
0.000465054
0.041290636
0.00054330575
0.044588908
0.00058530698
0.047805161
0.00056443942
0.049781186
0.00046468754
0.051102398
0.00028100589
0.052347901
0
0.055267544
0
0.061301327
0
0.067598472
-1.7615639e-18
0.075022921
-4.7478555e-15
0.08343635
-4.5863025e-15
0.092052068
-4.4316133e-15
0.10083006
1.3379507e-18
0.11024599
-8.2700011e-15
0.12044764
0
0.13127882
0
0.14274626
0
0.15502306
0
0.16810678
0
0.18171987
0
0.19553252
6.4909181e-15
0.20937868
-6.270287e-15
0.22322452
-6.0559028e-15
0.23704064
0
0.25062756
-1.1304576e-14
0.26391096
-1.0920154e-14
0.27704462
0
0.29016495
0
0.30345271
9.8416843e-15
0.31733512
0
0.33224205
-9.1816666e-15
0.34837265
-6.1759984e-19
0.3659651
0
0.38550202
0
0.40860329
0
0.43646455
0.031122808
0
0.027030271
-9.8617429e-05
0.023262281
-0.00016829308
0.018985989
-0.00019680005
0.014215287
-0.00018182106
0.0096505755
-0.00013075998
0.0051193824
-4.8279211e-05
0.0001205204
0.035481681
0.00025254369
0.038878938
0.00037675522
0.04161033
0.00048523308
0.045044002
0.0005698446
0.048456405
0.00060557529
0.050666944
0.00057490998
0.05226436
0.00047267015
0.053853664
0.00028591455
0.054847593
0
0.057325527
0
0.063244942
4.9164481e-15
0.07021355
-2.0278168e-18
0.078183523
1.7232066e-18
0.086322783
0
0.094561058
0
0.10341337
0
0.11306227
0
0.12332195
7.7118241e-15
0.13416701
0
0.14576748
0
0.15819451
0
0.1713267
0
0.18486598
0
0.19852853
-1.6559921e-18
0.21215643
0
0.22572545
5.847715e-15
0.23921968
0
0.25249595
0
0.26550096
0
0.27839507
0
0.29131331
0
0.30449863
-9.5003444e-15
0.31839717
0
0.33336967
8.8606744e-15
0.34946697
-8.5578183e-15
0.36693693
1.6525343e-14
0.38630659
0
0.40924898
0
0.43701542
0.03556184
0
0.031152324
-0.00010957526
0.027031544
-0.00019236242
0.023241099
-0.00024034378
0.018949787
-0.00024278065
0.014165994
-0.00020293065
0.0096184929
-0.00013387847
0.0051260494
-4.4992713e-05
0.00012969678
0.039041732
0.00026400779
0.041848804
0.00039276424
0.045395293
0.00050870514
0.048982223
0.00058949417
0.051413086
0.00061677775
0.053271853
0.00058481973
0.055169849
0.00048095743
0.056519767
0.00028813767
0.056600847
0
0.059144344
0
0.065711119
4.7465466e-15
0.073243891
4.5848478e-15
0.080927206
4.4299916e-15
0.088655651
-4.27753e-15
0.096969557
8.2632501e-15
0.10608856
1.3398657e-18
0.11580402
0
0.12605978
0
0.1370249
-2.4073608e-18
0.1487865
6.9480214e-15
0.16131777
0
0.17446535
0
0.18791941
0
0.20140875
6.0489474e-15
0.21480245
0
0.22806676
1.0752013e-18
0.24124177
0
0.25420607
0
0.26693696
1.0174753e-14
0.27959837
0
0.29233845
0
0.30544282
0
0.3193865
6.3029712e-19
0.33440324
8.5526148e-15
0.35045741
-1.6518718e-14
0.36777987
0
0.38699248
0
0.40980465
-1.4863016e-14
0.43746572
0.039128588
0
0.035589831
-0.00012072838
0.031144539
-0.00021374849
0.026999094
-0.00027484446
0.023202225
-0.00029690815
0.018902338
-0.0002713948
0.014109201
-0.00020767937
0.0095894523
-0.00012449818
0.0051433707
-3.6435079e-05
0.00013550951
0.042004074
0.00027497687
0.045643465
0.00041150818
0.049381739
0.00052612768
0.052018477
0.00060038713
0.054121972
0.00062743686
0.056308838
0.00059501676
0.057976461
0.00048453474
0.058426881
0.00028742613
0.058122194
1.8137244e-18
0.061474167
0
0.068601103
0
0.075848777
4.4279539e-15
0.083095933
0
0.090898182
-4.1321863e-15
0.09951055
0
0.1087046
-3.8537647e-15
0.11839615
0
0.12876371
7.1931777e-15
0.13989177
0
0.15177414
0
0.16439545
6.4821061e-15
0.17753553
-6.2610326e-15
0.19086023
0
0.20417253
-1.5136338e-18
0.21731376
-5.6422176e-15
0.23026681
0
0.24310952
0
0.25576419
0
0.26822696
-9.8224808e-15
0.28067424
0
0.29324834
-9.1631602e-15
0.30629922
0
0.32029155
5.8492438e-19
0.33535502
8.2544778e-15
0.35132261
1.5941929e-14
0.36851301
0
0.38758431
0
0.41025968
-1.4343143e-14
0.43783538
0.042072929
0
0.039152602
-0.00012987749
0.035565443
-0.00023545411
0.031088852
-0.00030538069
0.026932374
-0.00033963805
0.023145042
-0.00033239624
0.018843114
-0.00027816975
0.014044949
-0.00019288398
0.009565624
-0.00010052834
0.0051703601
-2.1737171e-05
0.00014102095
0.045789006
0.0002879071
0.049655955
0.00042550567
0.052481342
0.0005358918
0.054813176
0.00061080129
0.057267618
0.00063837811
0.059240917
0.00059946321
0.060020031
0.00048348072
0.060125423
0.00028713364
0.060146246
0
0.064210811
0
0.071070043
0
0.077866923
0
0.085186574
1.4377496e-18
0.093310907
-3.9890231e-15
0.10200549
0
0.11115594
1.2435722e-18
0.12095368
0
0.13148724
0
0.14273018
0
0.15472386
0
0.16742154
0
0.18050971
0
0.1936979
-5.8368658e-15
0.20681644
-1.4415889e-18
0.21969492
5.4456465e-15
0.23232204
-5.2600122e-15
0.24483452
0
0.25717803
0
0.26938764
-9.4812112e-15
0.28163266
0
0.29405897
0
0.30706197
0
0.32112408
8.2501418e-15
0.33619146
-4.6392882e-19
0.35208781
-7.6925452e-15
0.36914037
1.4854081e-14
0.38807776
0
0.41064079
0
0.43812045
0.045831796
0
0.04207266
-0.00013558891
0.039112197
-0.00025323739
0.035475707
-0.00033629963
0.030984016
-0.00037727804
0.026829415
-0.0003803137
0.023068784
-0.00034124687
0.018772491
-0.00025870504
0.013973609
-0.00015540314
0.0095478009
-5.9771788e-05
0.0052034655
0
0.00014754711
0.049805983
0.0002976332
0.052800567
0.00043342435
0.05534436
0.00054516186
0.058045058
0.00062141621
0.060309453
0.00064317905
0.061414822
0.00059833182
0.061885533
0.00048328267
0.062355016
0.00028863834
0.06254375
0
0.066534945
0
0.072952791
0
0.079817471
-1.4593545e-18
0.087476158
1.420201e-18
0.0956891
3.8520417e-15
0.10431927
3.7216796e-15
0.11357118
2.5288997e-18
0.12354472
6.9412226e-15
0.13418243
0
0.14552822
0
0.15766708
0
0.17040342
0
0.18338918
-1.8403534e-18
0.19642277
0
0.2093417
-1.3639249e-18
0.22194056
-5.2580437e-15
0.23424234
5.0784425e-15
0.24641366
0
0.25846208
0
0.27043123
-1.8302462e-14
0.28248904
-8.8384644e-15
0.29476744
8.5365023e-15
0.30774565
0
0.32185042
7.9624685e-15
0.33693151
-7.689417e-15
0.35273648
0
0.36967921
1.4334824e-14
0.38849064
0
0.41094081
-1.3357598e-14
0.4383357
0.049833669
0
0.045795093
-0.00014090254
0.04200167
-0.00026429729
0.038990337
-0.00036160576
0.035323449
-0.00041538399
0.030829238
-0.00042231433
0.026690024
-0.00039047161
0.022972019
-0.0003178979
0.018688511
-0.00020863785
0.013897173
-9.2140841e-05
0.0095327568
0
0.0047664767
0
0.00015248106
0.052976075
0.00030317835
0.055713747
0.00044091694
0.058640205
0.00055460528
0.061178921
0.00062619728
0.062604928
0.00064225122
0.063434406
0.00059842843
0.06430779
0.00048598147
0.064955431
0.00028950911
0.064520579
-4.42651e-15
0.06829686
0
0.074775816
0
0.081987401
-1.4407198e-18
0.089737145
-3.8513189e-15
0.097868915
-3.7196271e-15
0.10659599
3.5924549e-15
0.11603536
1.2510196e-18
0.1261079
0
0.13683147
0
0.14834042
-6.2540958e-15
0.16059373
0
0.17329363
0
0.1861553
0
0.19903566
0
0.21173987
-1.0509406e-14
0.22405932
-5.0756648e-15
0.23602443
4.9021602e-15
0.24786816
0
0.2596263
0
0.27136941
-6.5903613e-19
0.28324237
0
0.29539087
0
0.30833506
0
0.3224851
-7.6843232e-15
0.33754174
-3.3797542e-19
0.35329993
0
0.37012179
0
0.3888234
0
0.41118339
0.0039948644
0.4344855
0.053007831
0
0.049769011
-0.00014723476
0.04567846
-0.00027450134
0.041839842
-0.00037729979
0.038790501
-0.00044654695
0.035111101
-0.00046488814
0.030625235
-0.0004333569
0.026512597
-0.00036370263
0.02285346
-0.00025679963
0.018590976
-0.00012377645
0.013814522
0
0.0087576744
0
0.0051206567
-1.8166829e-14
0.00015532622
0.055920466
0.00030840343
0.059052379
0.00044852678
0.061846264
0.0005590176
0.063585258
0.00062559218
0.064764115
0.00064270042
0.066026498
0.00060195019
0.06708803
0.00048754486
0.067117949
0.00028795405
0.065948408
4.274618e-15
0.070010261
0
0.076827954
0
0.084131805
-3.8519825e-15
0.091786287
3.7201842e-15
0.10000965
0
0.10893767
3.4688356e-15
0.11847412
3.3514141e-15
0.12860947
0
0.13948559
0
0.1511568
0
0.16345773
-5.8314406e-15
0.17607732
0
0.18880907
-5.4389952e-15
0.20152613
0
0.21401805
-5.0730739e-15
0.22605127
-4.899487e-15
0.23768449
0
0.24919855
9.1390593e-15
0.2606825
0
0.27220362
0
0.28390836
0
0.29592769
0
0.30884683
0
0.32299469
3.0224795e-19
0.33805938
7.1610028e-15
0.35374838
-2.1372713e-19
0.37048737
0
0.38908955
0.007783172
0.40757425
0.0036394899
0.43093326
0.055962686
0
0.052930327
-0.00015205987
0.049613461
-0.00028669222
0.045458633
-0.00039170588
0.041589082
-0.00046582341
0.038515699
-0.00049969819
0.034840915
-0.00047704526
0.03037248
-0.00040340102
0.026300737
-0.00029380593
0.022713437
-0.00015260897
0.018474625
0
0.012763062
0
0.009365852
0
0.0054975328
-1.8161274e-14
0.00015799761
0.059281447
0.00031370542
0.062310826
0.00045219685
0.064349755
0.00055877195
0.065868071
0.00062635593
0.067502183
0.00064664853
0.06896353
0.00060396912
0.069412369
0.00048491195
0.068724494
0.00028483327
0.067328065
0
0.071945129
0
0.078854923
0
0.086055506
-3.7195613e-15
0.093798658
1.3234389e-18
0.1022318
0
0.11125699
0
0.12083669
-3.2347361e-15
0.13110856
0
0.14216504
0
0.15395032
-2.2726307e-18
0.16624165
0
0.17875853
5.4368003e-15
0.19134732
-5.2505221e-15
0.2039012
1.3864231e-18
0.21617261
-1.1510568e-18
0.22792243
4.7284065e-15
0.23922225
-4.5667429e-15
0.25041938
0
0.2616297
0
0.2729467
-8.2289852e-15
0.2844889
0
0.29639732
0
0.30926128
-7.4121301e-15
0.32341508
7.1574124e-15
0.33844291
-2.1180306e-19
0.35411632
-1.4708244e-19
0.37075316
0.011492224
0.38563841
0.0070908464
0.40424979
0.0032589144
0.42770025
0.059328142
0
0.055877747
-0.00015486354
0.05274613
-0.00029600966
0.049340654
-0.00040892765
0.045137206
-0.00048342811
0.041250437
-0.00052113919
0.038168141
-0.00051272205
0.034514796
-0.00044415404
0.030074181
-0.00032569322
0.026057871
-0.00017458521
0.02254222
0
0.017228716
0
0.013618419
0
0.010017562
0