/*--------------------------------*- C++ -*----------------------------------*\
| =========                 |                                                 |
| \\      /  F ield         | OpenFOAM: The Open Source CFD Toolbox           |
|  \\    /   O peration     | Version:  v2012                                 |
|   \\  /    A nd           | Website:  www.openfoam.com                      |
|    \\/     M anipulation  |                                                 |
\*---------------------------------------------------------------------------*/
FoamFile
{
    version     2.0;
    format      ascii;
    class       surfaceScalarField;
    location    "74.7654651827956371";
    object      phi;
}
// * * * * * * * * * * * * * * * * * * * * * * * * * * * * * * * * * * * * * //

dimensions      [0 3 -1 0 0 0 0];
oriented        oriented;


internalField   nonuniform List<scalar> 
18180
(
-0.0027450499
-3.5996897
-0.0056955448
-3.3674873
-0.0029518423
-3.6273901
-0.0089807094
-3.150854
-0.0061459352
-3.392375
-0.0025506694
-3.6532561
-0.012866571
-2.9486678
-0.0097568984
-3.17274
-0.0053105795
-3.4154921
-0.0019800606
-3.6773688
-0.017537496
-2.7599272
-0.014102798
-2.9674235
-0.0084693447
-3.1928981
-0.0041488374
-3.4375281
-0.0012396796
-3.7007517
-0.023186717
-2.583982
-0.019405653
-2.7759928
-0.012300284
-2.9848784
-0.0066638435
-3.2126934
-0.0026435563
-3.4591692
-0.00045311821
-3.7232492
-0.030026136
-2.4199073
-0.02592174
-2.5975048
-0.016995792
-2.7908952
-0.0097500912
-3.0022729
-0.0043139783
-3.232637
-0.0010402463
-3.4803716
0.00029244986
-3.7452142
-0.038270918
-2.2668187
-0.03390776
-2.4307791
-0.022771609
-2.609985
-0.013559436
-2.8059403
-0.0064130472
-3.0203324
-0.0017995273
-3.252644
0.00050741903
-3.5011764
0.00091826334
-3.7662467
-0.048170278
-2.1239006
-0.043647831
-2.2749123
-0.029822837
-2.4409588
-0.018253363
-2.6227856
-0.0090545794
-2.8220415
-0.0028343797
-3.039066
0.00063696102
-3.2725147
0.0018791863
-3.521299
0.0014176722
-3.7865016
-0.059993526
-1.9904122
-0.055454259
-2.1289632
-0.038349404
-2.2827159
-0.023954961
-2.4516534
-0.012341512
-2.6369471
-0.0042331144
-2.8392968
0.00065124339
-3.0579911
0.0028199354
-3.2919026
0.0029819807
-3.5407467
0.0017756674
-3.8056819
-0.074042113
-1.8656724
-0.069679444
-1.9921293
-0.048545012
-2.1342527
-0.03076242
-2.2913734
-0.016334763
-2.4638758
-0.006058523
-2.6525425
0.00045730864
-2.8571289
0.0037882807
-3.0767515
0.0046017916
-3.3107134
0.0037614516
-3.55933
0.0019701406
-3.8239197
-0.09064106
-1.7490477
-0.08672169
-1.8636709
-0.060604571
-1.9947249
-0.038732115
-2.1409087
-0.021046978
-2.3018188
-0.0083396222
-2.47788
4.4400181e-05
-2.669188
0.004719952
-2.8750967
0.0063953922
-3.095128
0.0059054233
-3.3288621
0.004200988
-3.5770108
0.001999959
-3.8408749
-0.11013617
-1.6399486
-0.10703104
-1.7429028
-0.074723445
-1.863383
-0.047874295
-1.9994227
-0.02642686
-2.1497782
-0.011053819
-2.3143015
-0.00064672266
-2.4931292
0.0055825784
-2.6861676
0.0083201029
-2.8929516
0.008375781
-3.1130787
0.0067058669
-3.3462077
0.0043103602
-3.5935524
0.0018815637
-3.8566729
-0.13288
-1.537817
-0.13110873
-1.6291825
-0.091101024
-1.739542
-0.058145227
-1.8661888
-0.032344816
-2.0068999
-0.014115556
-2.1608747
-0.0016026604
-2.3281583
0.0063168462
-2.5089375
0.010338324
-2.7033055
0.01115073
-2.9106349
0.0096900716
-3.1304104
0.0070105734
-3.3626069
0.0041151697
-3.6089498
0.0016353882
-3.8710864
-0.15921832
-1.4422354
-0.15950046
-1.5219102
-0.10994138
-1.6225627
-0.069441691
-1.7405809
-0.03858313
-1.8725425
-0.017353952
-2.0169038
-0.0027726778
-2.1735216
0.0068796524
-2.3427652
0.0123677
-2.5252141
0.014203386
-2.720668
0.013164328
-2.9280145
0.010338017
-3.1470125
0.0068483331
-3.3779679
0.0036509401
-3.623102
0.0012793608
-3.8842471
-0.18952395
-1.3529391
-0.19281763
-1.4206041
-0.13145659
-1.5118421
-0.081595347
-1.62203
-0.04482801
-1.7461594
-0.020506134
-1.8817932
-0.0040397172
-2.0285855
0.007239421
-2.187019
0.014305306
-2.3581007
0.017434644
-2.5420807
0.017125842
-2.7380468
0.014347987
-2.9449162
0.010344775
-3.1627464
0.0062621042
-3.3922412
0.002959521
-3.6359939
0.0008252257
-3.8959503
-0.22423157
-1.2685254
-0.23176329
-1.3249104
-0.15592244
-1.4068398
-0.094366853
-1.5100108
-0.050667055
-1.6272789
-0.023209454
-1.7550688
-0.0052150826
-1.892793
0.0073967087
-2.0410787
0.016027891
-2.2012655
0.020700244
-2.3742361
0.021481661
-2.5593333
0.019075864
-2.7552966
0.014711044
-2.9612152
0.0097527111
-3.1775469
0.0053035895
-3.4053037
0.0020833447
-3.6475467
0.00028745112
-3.9063435
-0.26382652
-1.1855389
-0.27678004
-1.2336902
-0.18370955
-1.3071097
-0.10746655
-1.4040371
-0.055589217
-1.5154763
-0.02500268
-1.6363445
-0.0060313486
-1.7657169
0.0073860555
-1.9044061
0.017401404
-2.0541825
0.023803919
-2.2165069
0.026077442
-2.3911627
0.024461138
-2.5768058
0.020033435
-2.7722451
0.014280317
-2.9767795
0.0086170239
-3.1912402
0.004030688
-3.4171055
0.0010588136
-3.6578076
-0.0002782901
-3.9153377
-0.30854068
-1.1019297
-0.3276397
-1.1441631
-0.21476132
-1.2119458
-0.12058258
-1.3036877
-0.058993997
-1.4103582
-0.025333566
-1.5252812
-0.006141285
-1.6470281
0.0072840443
-1.7765995
0.018287278
-1.9163262
0.026503529
-2.0682761
0.030682674
-2.2327535
0.030374375
-2.4086205
0.026306396
-2.5943329
0.019990152
-2.7887399
0.013099828
-2.9914122
0.0070044207
-3.2037604
0.0025074547
-3.4276009
-4.8449512e-05
-3.6667832
-0.00085185624
-3.9231023
-0.35731701
-1.019042
-0.38373685
-1.0546588
-0.24776446
-1.1198273
-0.13309404
-1.2085642
-0.060221825
-1.3115634
-0.023572725
-1.4215616
-0.0051244268
-1.5364541
0.0072092038
-1.6573447
0.018546562
-1.7872446
0.028516585
-1.9290006
0.034996957
-2.0835062
0.036597252
-2.2498939
0.033457643
-2.4265493
0.02694723
-2.6117692
0.018957453
-2.804548
0.011233139
-3.0049811
0.0049929528
-3.2150076
0.00080166412
-3.4367999
-0.0012567747
-3.6744443
-0.0014385373
-3.9295576
-0.40721772
-0.93745987
-0.44350317
-0.96748581
-0.28092007
-1.0295704
-0.14346158
-1.1180627
-0.058494529
-1.2188132
-0.019048651
-1.3248666
-0.0024996975
-1.4337349
0.0073162216
-1.5463975
0.018042797
-1.666631
0.029526515
-1.7982646
0.038653644
-1.9429096
0.042827661
-2.1000161
0.041323233
-2.2680234
0.035160621
-2.4449078
0.026332439
-2.628885
0.016976055
-2.8194837
0.0087653585
-3.0173506
0.0026696681
-3.2249589
-0.0010251937
-3.4447013
-0.0024620346
-3.6808448
-0.0020067705
-3.9348789
-0.45436268
-0.85690999
-0.50302466
-0.88557502
-0.31348782
-0.94242488
-0.14948551
-1.0316578
-0.05280797
-1.1317291
-0.011107848
-1.2349006
0.0022660304
-1.338603
0.0077959588
-1.4435295
0.01664291
-1.5542275
0.029189562
-1.6757108
0.04122916
-1.8105032
0.048681789
-1.9584613
0.04965053
-2.1181002
0.044554196
-2.287179
0.035329463
-2.463382
0.024451317
-2.6453944
0.01412307
-2.8333273
0.0058023899
-3.0284076
0.00013072587
-3.2335375
-0.0029035083
-3.4513334
-0.0036438233
-3.6860382
-0.0025480772
-3.9390498
-0.49697932
-0.78012163
-0.5574504
-0.80958951
-0.34492975
-0.86111965
-0.15017391
-0.94938659
-0.041816665
-1.0501248
0.001037735
-1.1514218
0.0095216624
-1.2505763
0.0088759936
-1.348508
0.014217797
-1.4498039
0.027145621
-1.5610473
0.042255744
-1.6858725
0.053706349
-1.8246952
0.05809697
-1.9761146
0.054965931
-2.13782
0.045983443
-2.3070191
0.033862621
-2.4816369
0.021349094
-2.6609927
0.010514492
-2.8458734
0.0024675156
-3.0380312
-0.0025282544
-3.2407614
-0.0047713844
-3.456698
-0.0047731849
-3.6901054
-0.0030497045
-3.9422205
-0.53424981
-0.70856593
-0.60471367
-0.73947371
-0.37401034
-0.78701438
-0.14636895
-0.87213979
-0.02447416
-0.97373668
0.018002993
-1.0740727
0.020085864
-1.1698811
0.010908206
-1.2609736
0.010638189
-1.3531237
0.023022001
-1.4540201
0.041236548
-1.5686796
0.057395738
-1.698249
0.066241339
-1.8415249
0.066139433
-1.9961467
0.058253287
-2.1589486
0.045367499
-2.3271158
0.030738064
-2.4992442
0.017134873
-2.675364
0.0063019508
-2.8569188
-0.0010963786
-3.0461808
-0.0052130322
-3.2466167
-0.0065724067
-3.4608845
-0.0058229098
-3.6930984
-0.0035012051
-3.9444016
-0.56547803
-0.64304543
-0.64389436
-0.67555051
-0.39932355
-0.72022298
-0.13917455
-0.80101225
-0.00076452512
-0.9024225
0.040369119
-1.0025573
0.034349145
-1.0957313
0.013892649
-1.1807967
0.0060032429
-1.2640547
0.016434274
-1.3543754
0.037659059
-1.4586377
0.059214235
-1.5787487
0.07360254
-1.7138263
0.077729068
-1.8614868
0.072004497
-2.0183191
0.059066755
-2.1809023
0.042569546
-2.3469485
0.026029748
-2.5157779
0.01198081
-2.6881953
0.0016656528
-2.8663369
-0.0047679342
-3.0528169
-0.0078304038
-3.2511556
-0.0082586165
-3.4639079
-0.0067720753
-3.69511
-0.0038957213
-3.9457469
-0.59022175
-0.58450226
-0.67460282
-0.61808866
-0.41971141
-0.6608186
-0.12909509
-0.73671506
0.028389878
-0.83633697
0.068483
-0.93649937
0.052729947
-1.0278578
0.018172611
-1.10753
-0.00017835019
-1.181875
0.0069251692
-1.2619036
0.031010562
-1.3554879
0.058620382
-1.4658848
0.079666871
-1.5925815
0.08931404
-1.7332843
0.087003528
-1.8844187
0.074978918
-2.0420693
0.057095984
-2.2031261
0.037586207
-2.3659733
0.019912669
-2.5307862
0.0061124998
-2.6992577
-0.003194299
-2.8740468
-0.0083973157
-3.0579378
-0.010303551
-3.2544039
-0.0097922358
-3.4658879
-0.0076061177
-3.6962123
-0.004230598
-3.9463007
-0.60903417
-0.53285239
-0.69717651
-0.5672995
-0.43484092
-0.60824162
-0.11674282
-0.67921015
0.061635616
-0.77575633
0.10211287
-0.87547601
0.075669485
-0.96590587
0.02399695
-1.040807
-0.0079190646
-1.1066146
-0.0057414926
-1.1761037
0.020721142
-1.2589603
0.05509487
-1.3594136
0.083922401
-1.477491
0.10042225
-1.6111122
0.10291768
-1.7566665
0.09301993
-1.9098428
0.074513235
-2.0668376
0.0522019
-2.2250183
0.030561815
-2.383601
0.012655169
-2.5438983
-0.00019596802
-2.7083618
-0.0080943693
-2.8799904
-0.011865125
-3.0615837
-0.01256947
-3.2564698
-0.01114626
-3.4668866
-0.0083165905
-3.6965316
-0.0045055746
-3.946196
-0.6228159
-0.48758189
-0.71250725
-0.52254077
-0.44546506
-0.56161383
-0.10308479
-0.62758233
0.097413662
-0.72043444
0.14022402
-0.8189608
0.10324318
-0.90908607
0.031595464
-0.98025263
-0.017350665
-1.0377873
-0.022022825
-1.0967838
0.0064313543
-1.1687631
0.048157726
-1.259103
0.085894934
-1.368336
0.11056547
-1.4946401
0.11932634
-1.6345686
0.11298458
-1.7835764
0.094927824
-1.9372325
0.070261004
-2.0919348
0.04444462
-2.2457506
0.021788352
-2.3992426
0.0046011138
-2.5547756
-0.0066796376
-2.7153957
-0.012835123
-2.8841874
-0.015069826
-3.0638412
-0.01458161
-3.2574423
-0.012304315
-3.4670435
-0.0089006863
-3.6961368
-0.0047213905
-3.9454818
-0.63228539
-0.44834667
-0.72173459
-0.48304903
-0.45242373
-0.52020472
-0.089089742
-0.58095127
0.1335976
-0.66888474
0.18082483
-0.76575075
0.13407562
-0.85542239
0.040812172
-0.92468748
-0.028636166
-0.97498551
-0.042264113
-1.0235701
-0.012357241
-1.0845648
0.037400306
-1.1647296
0.085189312
-1.2649592
0.11928176
-1.3836651
0.13574496
-1.5177287
0.13453656
-1.662655
0.11832212
-1.8135043
0.092096784
-1.9658181
0.062120859
-2.1163637
0.034100408
-2.2645182
0.011688317
-2.4123808
-0.0038448433
-2.5632195
-0.013054345
-2.7203301
-0.017258825
-2.8867281
-0.017933884
-3.0648323
-0.016310224
-3.2574451
-0.013259773
-3.4664245
-0.009360247
-3.6951442
-0.0048806572
-3.9442781
-0.63836573
-0.41436129
-0.72617605
-0.44830113
-0.45648111
-0.48332377
-0.075617805
-0.53869552
0.16883361
-0.62099702
0.22121062
-0.71364473
0.1662185
-0.80313792
0.050896417
-0.87153771
-0.042292936
-0.91667461
-0.066826097
-0.95603816
-0.036072755
-1.0060609
0.022487213
-1.076036
0.081512458
-1.1672379
0.12618644
-1.2780981
0.15166378
-1.405907
0.15721006
-1.5465668
0.14451591
-1.6949599
0.11794852
-1.845799
0.084159499
-1.9944806
0.050278632
-2.1389317
0.02165383
-2.2805003
0.00079602508
-2.4226219
-0.012312219
-2.5691131
-0.01906725
-2.7232474
-0.02123995
-2.8877422
-0.020405767
-3.0646761
-0.017741541
-3.256584
-0.014014244
-3.4651682
-0.0097008375
-3.6936296
-0.004987343
-3.9426443
-0.64217696
-0.4563508
-0.72726226
-0.41739343
-0.45866634
-0.45018
-0.063281018
-0.50037134
0.20235439
-0.5767334
0.26029105
-0.66414413
0.19881131
-0.75112015
0.061976618
-0.81990472
-0.058346257
-0.8607713
-0.09611356
-0.89261021
-0.065093349
-0.93287802
0.0031229619
-0.99275678
0.074707757
-1.075051
0.13101026
-1.1779308
0.16659464
-1.2990238
0.18042717
-1.4349588
0.17314144
-1.5809163
0.14790157
-1.7309427
0.11110608
-1.8790906
0.071096686
-2.0215765
0.035229091
-2.1584653
0.0077756007
-2.2930558
-0.010315073
-2.429771
-0.020398784
-2.5725129
-0.024519458
-2.7242883
-0.024691648
-2.8873805
-0.022459022
-3.0635263
-0.018875362
-3.2550013
-0.014576001
-3.4633634
-0.0099307957
-3.691713
-0.0050462165
-3.9406833
-0.64311688
-0.45534014
-0.7259536
-0.46217043
-0.45972384
-0.42015326
-0.052511358
-0.46536615
0.23329895
-0.53555598
0.29733535
-0.61756484
0.2310152
-0.70089405
0.074589732
-0.76908486
-0.075099091
-0.80810009
-0.13039816
-0.83133627
-0.099392129
-0.8638417
-0.020920052
-0.91458716
0.064742263
-0.9882571
0.13362408
-1.0831785
0.18009851
-1.1971157
0.20350525
-1.3276284
0.20360696
-1.4707756
0.18183479
-1.6204386
0.14342339
-1.7692591
0.097398498
-1.9114728
0.053307408
-2.045483
0.017782855
-2.1739814
-0.0066709926
-2.3018341
-0.021107283
-2.4337996
-0.027790927
-2.573571
-0.029267469
-2.7236433
-0.027565855
-2.885832
-0.024088996
-3.0615348
-0.019722657
-3.2528205
-0.01495827
-3.4611391
-0.010060251
-3.6894703
-0.0050625316
-3.9384475
-0.64110774
-0.45653626
-0.72102241
-0.46479074
-0.46670434
-0.45934907
-0.043263661
-0.43353548
0.26109333
-0.49713845
0.33130033
-0.57305492
0.26197837
-0.65276268
0.086066965
-0.71739806
-0.091031827
-0.75777972
-0.16924936
-0.77374281
-0.13863772
-0.79730676
-0.049236795
-0.84098501
0.051718222
-0.90668589
0.13406499
-0.99386671
0.19184023
-1.1003023
0.22568853
-1.2245336
0.23504532
-1.3640785
0.21928914
-1.513429
0.18140348
-1.6640403
0.13006338
-1.8076988
0.076942639
-1.9407247
0.031677793
-2.0647613
-0.00091934504
-2.1848104
-0.020997238
-2.3066695
-0.031058848
-2.4348709
-0.034256057
-2.572529
-0.033227633
-2.7215531
-0.029849083
-2.8832921
-0.02530909
-3.0588664
-0.020302597
-3.250171
-0.01517752
-3.4585866
-0.010100378
-3.6869964
-0.0050417131
-3.9360138
-0.63602774
-0.45963106
-0.71260855
-0.46947584
-0.47097532
-0.46471075
-0.046525375
-0.46053475
0.28553077
-0.46169846
0.36185046
-0.53099511
0.29078755
-0.60581125
0.094382317
-0.66579345
-0.10802161
-0.70473143
-0.21054441
-0.72064123
-0.18293543
-0.73436216
-0.080780842
-0.77094705
0.036080526
-0.83014085
0.13256481
-0.91001962
0.20168977
-1.0088126
0.24631803
-1.1258912
0.26646539
-1.2606446
0.25946587
-1.4090904
0.22500329
-1.562274
0.16989937
-1.7093133
0.10735204
-1.8434623
0.050535256
-1.9647744
0.007641339
-2.0782923
-0.01975551
-2.1907411
-0.034316894
-2.3077504
-0.03979916
-2.4332905
-0.039652792
-2.5696947
-0.036370501
-2.7182715
-0.031556646
-2.8799599
-0.026146064
-3.0556596
-0.02063989
-3.2471647
-0.015252111
-3.4558145
-0.010062723
-3.6843439
-0.0049891303
-3.9334249
-0.62833489
-0.46429568
-0.70121528
-0.47555643
-0.47364921
-0.47102554
-0.050298146
-0.4654054
0.29730608
-0.47628933
0.38869481
-0.49164228
0.31664315
-0.56053297
0.10042031
-0.61626671
-0.12711692
-0.65073229
-0.25122293
-0.66789166
-0.23103419
-0.6771762
-0.11535946
-0.70470684
0.018930231
-0.75827521
0.12956475
-0.8316509
0.20977271
-0.92292648
0.26499121
-1.0321855
0.29704277
-1.1608546
0.30158975
-1.3072695
0.2741258
-1.4631244
0.21770322
-1.6152034
0.14588567
-1.7529199
0.075690409
-1.8735935
0.019904586
-1.9818861
-0.017011302
-2.085659
-0.037529209
-2.1918385
-0.046069781
-2.3054463
-0.047094507
-2.4294594
-0.043924204
-2.5654064
-0.038712267
-2.7140512
-0.032725333
-2.8760078
-0.026635723
-3.0520547
-0.020762402
-3.2439283
-0.015201101
-3.4528941
-0.0099587035
-3.6815876
-0.0049099098
-3.9307271
-0.619557
-0.47065887
-0.68759837
-0.4824509
-0.47543677
-0.47802576
-0.055283942
-0.47052485
0.30637992
-0.47848583
0.40735336
-0.49824952
0.33890935
-0.51735228
0.10425403
-0.56849823
-0.14738281
-0.59976148
-0.28986249
-0.61563209
-0.27852793
-0.62476188
-0.15318956
-0.64402089
0.00087179577
-0.69082685
0.12582964
-0.75873755
0.21642696
-0.84286881
0.28154054
-0.94393214
0.3260446
-1.0652841
0.34492825
-1.2083813
0.32873652
-1.3664955
0.27479409
-1.525064
0.19458146
-1.6687021
0.10901079
-1.7909977
0.036978255
-1.89537
-0.01228592
-1.9911286
-0.040639665
-2.0867978
-0.053273735
-2.1885845
-0.05587064
-2.3002901
-0.052842419
-2.4238326
-0.047085512
-2.5599961
-0.040303349
-2.7091171
-0.033406455
-2.8716094
-0.026819034
-3.048192
-0.020699227
-3.240555
-0.015043347
-3.4498999
-0.0097992143
-3.6787533
-0.0048088435
-3.9279524
-0.6106299
-0.47741626
-0.67318785
-0.48961313
-0.47685878
-0.48531932
-0.061538528
-0.47627355
0.3123125
-0.48048591
0.42389057
-0.49837817
0.36101134
-0.52398467
0.10621195
-0.5231672
-0.16805782
-0.55132722
-0.32711694
-0.56576742
-0.32319197
-0.57507381
-0.19298448
-0.58940376
-0.018711035
-0.62833117
0.12223258
-0.69112794
0.22212663
-0.76875386
0.29595397
-0.86151071
0.35264203
-0.97435249
0.38796668
-1.1122179
0.3876337
-1.2716266
0.341424
-1.4377286
0.25588563
-1.5909168
0.15374992
-1.7179384
0.061027906
-1.8195575
-0.0049245966
-1.9071423
-0.043643338
-1.9923088
-0.061673449
-2.082317
-0.066378503
-2.1816952
-0.063542906
-2.2929001
-0.057054451
-2.4168573
-0.049206249
-2.5537682
-0.041217203
-2.7036918
-0.033659553
-2.8669222
-0.026739003
-3.0441864
-0.020479147
-3.2371223
-0.014796838
-3.4468673
-0.0095944139
-3.675892
-0.0046902839
-3.925116
-0.60223928
-0.4841709
-0.65853668
-0.49661564
-0.47795825
-0.49283768
-0.068784614
-0.48259271
0.31461018
-0.48261965
0.43746364
-0.49746454
0.38179439
-0.52285343
0.11713404
-0.53892729
-0.18842109
-0.50606201
-0.36259276
-0.51885646
-0.36507249
-0.52774424
-0.23270963
-0.53955818
-0.040331859
-0.57140729
0.11892306
-0.62863503
0.22748749
-0.70056931
0.30834026
-0.78515574
0.37599347
-0.88842626
0.42843729
-1.0184406
0.44731546
-1.1760025
0.41379277
-1.3483803
0.32765401
-1.5138087
0.21152316
-1.6529236
0.095518992
-1.756731
0.0070116739
-1.8357861
-0.046300395
-1.9085935
-0.071665399
-1.9861863
-0.079128675
-2.0731766
-0.076549747
-2.1720188
-0.069090389
-2.2838874
-0.059827867
-2.4089475
-0.050392122
-2.5470095
-0.041540204
-2.6979607
-0.033547428
-2.8620791
-0.026438169
-3.0401254
-0.020129592
-3.2336809
-0.014478288
-3.4438456
-0.0093535126
-3.6729969
-0.0045581421
-3.9222428
-0.5945534
-0.49041854
-0.64399161
-0.50326737
-0.47837214
-0.50055832
-0.077177295
-0.48898188
0.31293267
-0.48498175
0.44734931
-0.49595866
0.40020051
-0.51962394
0.12787399
-0.53766196
-0.19655797
-0.53414687
-0.39626833
-0.47516079
-0.40410645
-0.48343735
-0.27081141
-0.49363177
-0.063199519
-0.52006409
0.11545292
-0.5712818
0.23313606
-0.63813818
0.3189492
-0.71499418
0.3954811
-0.80796268
0.46411196
-0.92745552
0.50365794
-1.0786591
0.48579771
-1.2521939
0.40195281
-1.4267734
0.27409717
-1.5803727
0.13866253
-1.7001284
0.025781726
-1.7796115
-0.046991438
-1.8391014
-0.083486388
-1.9005839
-0.094803175
-1.9741052
-0.092522758
-2.0605499
-0.083778354
-2.1603817
-0.072651868
-2.273812
-0.061316194
-2.4004794
-0.050768777
-2.5399581
-0.041363656
-2.6920857
-0.033132083
-2.8571858
-0.025956933
-3.0360767
-0.019675907
-3.2302801
-0.014102818
-3.440839
-0.0090847597
-3.6701077
-0.0044158456
-3.9193356
-0.49550513
-0.58743834
-0.62958357
-0.50937989
-0.47755815
-0.50846856
-0.086731399
-0.49555904
0.3074489
-0.48758141
0.45283094
-0.49396101
0.41505494
-0.51462347
0.13782055
-0.53368205
-0.20365928
-0.53394086
-0.4222852
-0.51096669
-0.44042443
-0.44222811
-0.30656224
-0.45145827
-0.086106081
-0.47386671
0.11150821
-0.51921041
0.23940202
-0.58118605
0.32820366
-0.65102124
0.41088999
-0.73349399
0.4933984
-0.84035484
0.55340477
-0.98086576
0.55338443
-1.1502519
0.47350966
-1.3276402
0.33274088
-1.4891689
0.17696029
-1.6224802
0.044044743
-1.7222838
-0.045906167
-1.7845704
-0.096512814
-1.8298282
-0.11411804
-1.8848407
-0.11228942
-1.9576905
-0.10183575
-2.0455746
-0.088268033
-2.1475545
-0.074452936
-2.2631731
-0.06170305
-2.3917653
-0.050468929
-2.5328138
-0.040777406
-2.6861888
-0.032472128
-2.852327
-0.025332421
-3.0321
-0.019140937
-3.2269494
-0.013683859
-3.4378731
-0.0087953493
-3.6671972
-0.0042663829
-3.9164172
-0.51469972
-0.61494257
-0.49946392
-0.58044318
-0.4752224
-0.51613084
-0.097218266
-0.50255487
0.29824691
-0.49045593
0.45375814
-0.49204595
0.42546619
-0.50823427
0.14611473
-0.52707081
-0.20999112
-0.53074356
-0.44626177
-0.51283402
-0.47825171
-0.47661106
-0.33969472
-0.4126438
-0.10823484
-0.43226034
0.10715054
-0.47236527
0.24622109
-0.52946052
0.33666392
-0.59309675
0.4223962
-0.66540613
0.51554437
-0.75851145
0.59447629
-0.88489028
0.61396489
-1.045287
0.54318123
-1.2236191
0.39031602
-1.3887394
0.2079861
-1.523771
0.051679407
-1.6337895
-0.053350799
-1.7185426
-0.11262664
-1.7721347
-0.1377327
-1.809782
-0.13693872
-1.8635566
-0.12411278
-1.9385359
-0.10738013
-2.0293073
-0.09035437
-2.1342023
-0.074763461
-2.2523824
-0.061181576
-2.3830565
-0.049622466
-2.5257244
-0.039865827
-2.6803779
-0.031621022
-2.8475821
-0.024597831
-3.028243
-0.018544765
-3.2236935
-0.013233111
-3.4349204
-0.00849154
-3.664298
-0.0041122926
-3.9134867
-0.52339166
-0.47097059
-0.51948129
-0.59947698
-0.50205682
-0.57351306
-0.10839742
-0.50954342
0.28516134
-0.49358288
0.45008514
-0.49035498
0.43027726
-0.50076469
0.1519315
-0.51824588
-0.21560276
-0.52486355
-0.46795304
-0.5119448
-0.51305412
-0.48157538
-0.3868211
-0.43310531
-0.12858899
-0.3950237
0.10268488
-0.43043791
0.25339496
-0.48277092
0.34483635
-0.5409151
0.43051204
-0.60389455
0.53056446
-0.68307785
0.62567633
-0.79298617
0.66560321
-0.94021758
0.60984335
-1.1154634
0.45468019
-1.2912877
0.24556535
-1.4296768
0.05133889
-1.526902
-0.077134058
-1.6135212
-0.14047741
-1.6942563
-0.16781338
-1.7455996
-0.16806398
-1.7820363
-0.1518454
-1.8389874
-0.13077461
-1.9180484
-0.10966164
-2.0126214
-0.09043618
-2.1208654
-0.07386486
-2.2417578
-0.059939203
-2.3745363
-0.048350244
-2.5188166
-0.038705127
-2.6747409
-0.030626098
-2.8430046
-0.02378212
-3.0245156
-0.01790483
-3.2205129
-0.012760627
-3.4320013
-0.0081786122
-3.6613928
-0.0039557338
-3.9105691
-0.51642147
-0.11997785
-0.53039643
-0.46451677
-0.52296411
-0.58311672
-0.50367171
-0.56633494
0.26840919
-0.49691921
0.44166519
-0.48876579
0.42874816
-0.49277316
0.1546114
-0.50767868
-0.22059482
-0.51666813
-0.48679809
-0.50892206
-0.54444323
-0.48416315
-0.43207614
-0.44002195
-0.17233921
-0.39211403
0.098926627
-0.39371869
0.26066574
-0.44074643
0.35305976
-0.49411418
0.43596203
-0.54886514
0.53903165
-0.6148101
0.6465542
-0.70705168
0.70640075
-0.83733217
0.67003706
-1.0037551
0.5235916
-1.1874685
0.29877265
-1.3476475
0.06636194
-1.4479872
-0.10459985
-1.5027676
-0.18590666
-1.5714859
-0.20885236
-1.6566822
-0.20694826
-1.7101128
-0.18708288
-1.7500109
-0.15960494
-1.8131321
-0.13305005
-1.8973731
-0.10926941
-1.9962117
-0.08892364
-2.107935
-0.072026942
-2.231525
-0.058148287
-2.3663511
-0.046760134
-2.5121801
-0.037362042
-2.6693384
-0.029528227
-2.8386248
-0.022910121
-3.0209348
-0.017235874
-3.2173971
-0.012274887
-3.4291037
-0.0078610374
-3.6585199
-0.0037984863
-3.9076656
-0.50048405
0.24832959
-0.52307245
-0.13193138
-0.53628644
-0.4556724
-0.52551341
-0.56581407
-0.5045942
-0.55866694
0.42849468
-0.48737884
0.4208709
-0.48486736
0.15349475
-0.49592487
-0.22498948
-0.5067071
-0.50224021
-0.50412863
-0.57157839
-0.48544038
-0.47472611
-0.44527695
-0.21625637
-0.39891918
0.070924799
-0.36657664
0.26824014
-0.40414477
0.36143066
-0.45207806
0.43949807
-0.49998545
0.54185084
-0.55394405
0.65735886
-0.62854077
0.73478006
-0.73884675
0.71853759
-0.88901661
0.59035933
-1.0734137
0.35936807
-1.2510195
0.098940094
-1.3833461
-0.1176335
-1.4381174
-0.23372443
-1.4581629
-0.26257849
-1.5211105
-0.25328876
-1.6137315
-0.23030778
-1.6701466
-0.19602531
-1.7166456
-0.1614365
-1.7875611
-0.13181069
-1.8773629
-0.10679805
-1.9805625
-0.08620407
-2.0956896
-0.069494173
-2.2218513
-0.055960558
-2.3585938
-0.044945406
-2.5058781
-0.035893431
-2.6642053
-0.028361974
-2.8344615
-0.022002634
-3.0174798
-0.016550319
-3.2143543
-0.011782959
-3.4262517
-0.0075424681
-3.6556611
-0.0036420262
-3.9047965
-0.48632894
0.41068796
-0.50381077
0.22491152
-0.52943495
-0.14343248
-0.54100431
-0.44467075
-0.5272329
-0.54770373
-0.50488611
-0.55036113
0.40697378
-0.47748115
0.14811504
-0.48378215
-0.22871053
-0.49563305
-0.51358387
-0.49825607
-0.5936501
-0.48573959
-0.5138074
-0.45017322
-0.25978
-0.40461353
0.042466879
-0.37299324
0.2560975
-0.35729405
0.36995758
-0.41546538
0.44183008
-0.45660145
0.53999468
-0.50021979
0.65901321
-0.55836562
0.74995035
-0.64699788
0.7514846
-0.77482531
0.64679092
-0.94814376
0.41666786
-1.1334799
0.13624805
-1.2912916
-0.12073825
-1.3832553
-0.27762067
-1.3972689
-0.32553928
-1.3983972
-0.30826425
-1.4694422
-0.27737909
-1.5699259
-0.24039009
-1.6288999
-0.19677704
-1.6842233
-0.15869169
-1.7633354
-0.12790786
-1.8586083
-0.10279883
-1.9660086
-0.082621739
-2.0843148
-0.066478264
-2.2128368
-0.053505128
-2.3513263
-0.042984244
-2.4999416
-0.03434667
-2.6593658
-0.027155937
-2.830511
-0.021076911
-3.0141674
-0.015858305
-3.2113779
-0.011290618
-3.4234295
-0.0072259266
-3.6528453
-0.003487538
-3.9019597
-0.47101285
0.38764794
-0.48508445
0.38829483
-0.50785056
0.19915702
-0.53500216
-0.15410405
-0.54442479
-0.43197378
-0.5281711
-0.52893295
-0.50462877
-0.54142477
0.13849887
-0.47217639
-0.23164514
-0.48428123
-0.52008945
-0.49200445
-0.61017277
-0.48542869
-0.54775409
-0.45564494
-0.30202519
-0.41083095
0.013847072
-0.37858712
0.2456376
-0.36547628
0.36286374
-0.35298582
0.443392
-0.41908528
0.53460872
-0.4531591
0.65277049
-0.49659215
0.75207548
-0.56365136
0.76804581
-0.66644552
0.68742477
-0.81796815
0.45978914
-0.99384836
0.16364853
-1.1636966
-0.12290374
-1.2920004
-0.32288372
-1.3408804
-0.39588924
-1.3299402
-0.37740868
-1.3324242
-0.32780412
-1.422237
-0.28611052
-1.5273516
-0.23984777
-1.5888252
-0.19142348
-1.6542693
-0.15263357
-1.7411106
-0.12210842
-1.8414778
-0.097752714
-1.952746
-0.078469056
-2.073914
-0.063156043
-2.2045363
-0.050888305
-2.3445706
-0.040940687
-2.4943935
-0.032760271
-2.6548235
-0.025933371
-2.8267822
-0.020146851
-3.0109732
-0.015168095
-3.2084722
-0.010802537
-3.4206575
-0.0069138234
-3.6500647
-0.0033359608
-3.8991746
-0.46209423
0.12526174
-0.46548362
0.36403463
-0.48526116
0.36202991
-0.51165615
0.17162796
-0.53956351
-0.16365385
-0.54654692
-0.41809228
-0.5282586
-0.5097991
-0.50398949
-0.53208803
-0.23369197
-0.47356677
-0.5212538
-0.485974
-0.62090872
-0.48496099
-0.57556068
-0.46149918
-0.34199541
-0.41861532
-0.014734978
-0.38489568
0.23620576
-0.37217292
0.35966871
-0.36514239
0.42877255
-0.34040777
0.52652737
-0.41282275
0.64033347
-0.44318826
0.742641
-0.49018801
0.77004005
-0.56838929
0.7095539
-0.69090752
0.48575551
-0.84634303
0.17734823
-1.0102232
-0.13821547
-1.1511267
-0.37199151
-1.2456304
-0.47277321
-1.2668543
-0.46125634
-1.2491116
-0.39231939
-1.2710322
-0.3291502
-1.382336
-0.28352141
-1.4867314
-0.23131227
-1.5518166
-0.18192284
-1.627626
-0.14433075
-1.7212296
-0.11506911
-1.8261834
-0.092059331
-1.9408659
-0.073984893
-2.0645212
-0.059670171
-2.1969577
-0.048195368
-2.338341
-0.038865691
-2.4892322
-0.031164932
-2.6505813
-0.024712713
-2.8232499
-0.019223577
-3.0079081
-0.014486191
-3.2056315
-0.010322448
-3.4179348
-0.0066080641
-3.6473482
-0.0031880013
-3.8964369
-0.46442083
-0.23480242
-0.45496062
0.11042196
-0.4621872
0.33695186
-0.48570477
0.33240301
-0.51509441
0.14296297
-0.54297072
-0.17193778
-0.54727529
-0.40356155
-0.52734631
-0.49091506
-0.50290489
-0.52258055
-0.51706045
-0.48059395
-0.62570543
-0.48485417
-0.59636208
-0.46804884
-0.37868179
-0.42778568
-0.043275521
-0.39276727
0.22713257
-0.37890209
0.35983453
-0.37525941
0.41906081
-0.35753416
0.49769427
-0.31338344
0.62294737
-0.39776648
0.72455549
-0.42799273
0.75994559
-0.48269843
0.71298676
-0.57399087
0.49554746
-0.70294199
0.17809546
-0.84963125
-0.15925261
-0.99180214
-0.42164943
-1.1040609
-0.55245859
-1.168649
-0.55196651
-1.179011
-0.47503377
-1.1693848
-0.38181244
-1.2214476
-0.31968575
-1.3492418
-0.27254913
-1.4484353
-0.21727748
-1.5192257
-0.16989437
-1.6045737
-0.13464395
-1.7038548
-0.10732662
-1.8127839
-0.086037141
-1.9303717
-0.069357739
-2.0561236
-0.056132384
-2.1900966
-0.045492569
-2.3326241
-0.036798945
-2.4844546
-0.029584439
-2.6466146
-0.023508356
-2.8199169
-0.018315664
-3.0049438
-0.013817787
-3.2028693
-0.0098532252
-3.4152814
-0.0063100519
-3.6446812
-0.0030441586
-3.8937624
-0.47617426
-0.50811585
-0.45905509
-0.23414085
-0.45018551
0.094114089
-0.45999102
0.30723999
-0.4863582
0.30000145
-0.51800906
0.11379409
-0.54509346
-0.17884676
-0.54638255
-0.38899561
-0.52545932
-0.47280685
-0.50122851
-0.51312354
-0.6243324
-0.48561796
-0.60956642
-0.47553872
-0.41072805
-0.43900157
-0.070697939
-0.40309347
0.21752739
-0.3862911
0.36250678
-0.38454978
0.41410902
-0.37246612
0.47335147
-0.33508596
0.58105901
-0.27380627
0.69979003
-0.37573766
0.74008416
-0.41060025
0.69999301
-0.47172283
0.49151408
-0.57204814
0.1681301
-0.69538936
-0.18422959
-0.82714921
-0.4689954
-0.94690752
-0.62207249
-1.0370045
-0.6403564
-1.0829826
-0.56558591
-1.0912973
-0.45346755
-1.1006794
-0.35808083
-1.1860787
-0.30416561
-1.3205995
-0.25526776
-1.4132827
-0.20001893
-1.4917451
-0.15654396
-1.5850549
-0.12425179
-1.6889848
-0.099300802
-1.8012453
-0.079930131
-1.9212132
-0.064731108
-2.0486855
-0.052627083
-2.1839205
-0.042830016
-2.3274036
-0.034770294
-2.4800315
-0.028036806
-2.6429187
-0.022331091
-2.8167379
-0.017429823
-3.002097
-0.013166743
-3.2001832
-0.0093969842
-3.4126879
-0.0060207453
-3.6420857
-0.0029045553
-3.8911429
-0.4873833
-0.6167412
-0.47536378
-0.49459163
-0.45466917
-0.23308059
-0.4466287
0.076465758
-0.45844554
0.27534759
-0.48692078
0.26526947
-0.52025365
0.084737474
-0.54579863
-0.18417768
-0.54387251
-0.37502789
-0.52266441
-0.45578914
-0.49893123
-0.50398472
-0.61468993
-0.48437106
-0.43607082
-0.45321268
-0.097035904
-0.41542415
0.20780758
-0.39653989
0.36672281
-0.393532
0.41329176