/*--------------------------------*- C++ -*----------------------------------*\
| =========                 |                                                 |
| \\      /  F ield         | OpenFOAM: The Open Source CFD Toolbox           |
|  \\    /   O peration     | Version:  v2012                                 |
|   \\  /    A nd           | Website:  www.openfoam.com                      |
|    \\/     M anipulation  |                                                 |
\*---------------------------------------------------------------------------*/
FoamFile
{
    version     2.0;
    format      ascii;
    class       pointVectorField;
    location    "74.7654651827956371";
    object      pointDisplacement;
}
// * * * * * * * * * * * * * * * * * * * * * * * * * * * * * * * * * * * * * //

dimensions      [0 1 0 0 0 0 0];


internalField   nonuniform List<vector> 
18840
(
(1.582756 0 0)
(1.5827081 0 0)
(1.5825654 0 0)
(1.5823297 0 0)
(1.5820022 0 0)
(1.5815834 0 0)
(1.581073 0 0)
(1.5804703 0 0)
(1.5797739 0 0)
(1.5789821 0 0)
(1.5780925 0 0)
(1.5771026 0 0)
(1.5760091 0 0)
(1.5748089 0 0)
(1.573498 0 0)
(1.5720724 0 0)
(1.5705279 0 0)
(1.56886 0 0)
(1.5670638 0 0)
(1.5651347 0 0)
(1.56264 0 0)
(1.582756 0 0)
(1.5827075 0 0)
(1.5825629 0 0)
(1.5823241 0 0)
(1.5819924 0 0)
(1.5815682 0 0)
(1.5810513 0 0)
(1.5804411 0 0)
(1.5797361 0 0)
(1.5789347 0 0)
(1.5780346 0 0)
(1.5770333 0 0)
(1.5759276 0 0)
(1.5747142 0 0)
(1.5733894 0 0)
(1.5719492 0 0)
(1.5703893 0 0)
(1.5687053 0 0)
(1.5668924 0 0)
(1.5649459 0 0)
(1.5628317 0 0)
(1.582756 0 0)
(1.5827067 0 0)
(1.5825599 0 0)
(1.5823175 0 0)
(1.5819808 0 0)
(1.5815502 0 0)
(1.5810256 0 0)
(1.5804063 0 0)
(1.579691 0 0)
(1.578878 0 0)
(1.5779651 0 0)
(1.5769497 0 0)
(1.5758287 0 0)
(1.5745987 0 0)
(1.5732559 0 0)
(1.5717963 0 0)
(1.5702157 0 0)
(1.5685095 0 0)
(1.566673 0 0)
(1.5647017 0 0)
(1.5625314 0 0)
(1.582756 0 0)
(1.582706 0 0)
(1.5825569 0 0)
(1.5823107 0 0)
(1.5819687 0 0)
(1.5815315 0 0)
(1.5809987 0 0)
(1.5803699 0 0)
(1.5796437 0 0)
(1.5788183 0 0)
(1.5778917 0 0)
(1.576861 0 0)
(1.5757233 0 0)
(1.574475 0 0)
(1.5731122 0 0)
(1.5716308 0 0)
(1.5700264 0 0)
(1.5682945 0 0)
(1.5664301 0 0)
(1.5644287 0 0)
(1.5622008 0 0)
(1.582756 0 0)
(1.5827052 0 0)
(1.5825537 0 0)
(1.5823036 0 0)
(1.5819562 0 0)
(1.5815119 0 0)
(1.5809706 0 0)
(1.5803317 0 0)
(1.579594 0 0)
(1.5787555 0 0)
(1.5778142 0 0)
(1.5767672 0 0)
(1.5756114 0 0)
(1.5743432 0 0)
(1.5729585 0 0)
(1.5714531 0 0)
(1.5698223 0 0)
(1.5680613 0 0)
(1.5661652 0 0)
(1.5641291 0 0)
(1.5618411 0 0)
(1.582756 0 0)
(1.5827043 0 0)
(1.5825504 0 0)
(1.5822962 0 0)
(1.581943 0 0)
(1.5814914 0 0)
(1.5809412 0 0)
(1.5802918 0 0)
(1.5795418 0 0)
(1.5786894 0 0)
(1.5777324 0 0)
(1.576668 0 0)
(1.5754929 0 0)
(1.5742033 0 0)
(1.572795 0 0)
(1.5712635 0 0)
(1.5696039 0 0)
(1.5678112 0 0)
(1.5658801 0 0)
(1.5638054 0 0)
(1.5614559 0 0)
(1.582756 0 0)
(1.5827035 0 0)
(1.5825469 0 0)
(1.5822885 0 0)
(1.5819293 0 0)
(1.58147 0 0)
(1.5809105 0 0)
(1.5802499 0 0)
(1.579487 0 0)
(1.5786199 0 0)
(1.5776463 0 0)
(1.5765633 0 0)
(1.5753676 0 0)
(1.574055 0 0)
(1.5726215 0 0)
(1.571062 0 0)
(1.5693716 0 0)
(1.5675447 0 0)
(1.5655758 0 0)
(1.5634595 0 0)
(1.5610482 0 0)
(1.582756 0 0)
(1.5827026 0 0)
(1.5825434 0 0)
(1.5822804 0 0)
(1.581915 0 0)
(1.5814477 0 0)
(1.5808783 0 0)
(1.5802059 0 0)
(1.5794294 0 0)
(1.5785468 0 0)
(1.5775556 0 0)
(1.5764528 0 0)
(1.5752349 0 0)
(1.573898 0 0)
(1.5724373 0 0)
(1.570848 0 0)
(1.5691246 0 0)
(1.5672615 0 0)
(1.5652525 0 0)
(1.563092 0 0)
(1.5606195 0 0)
(1.582756 0 0)
(1.5827017 0 0)
(1.5825397 0 0)
(1.5822721 0 0)
(1.5819002 0 0)
(1.5814244 0 0)
(1.5808446 0 0)
(1.5801599 0 0)
(1.579369 0 0)
(1.5784698 0 0)
(1.5774598 0 0)
(1.576336 0 0)
(1.5750946 0 0)
(1.5737315 0 0)
(1.572242 0 0)
(1.5706209 0 0)
(1.5688625 0 0)
(1.5669608 0 0)
(1.5649097 0 0)
(1.5627026 0 0)
(1.5601708 0 0)
(1.582756 0 0)
(1.5827007 0 0)
(1.5825359 0 0)
(1.5822635 0 0)
(1.5818848 0 0)
(1.5814002 0 0)
(1.5808095 0 0)
(1.5801118 0 0)
(1.5793057 0 0)
(1.578389 0 0)
(1.5773592 0 0)
(1.576213 0 0)
(1.5749467 0 0)
(1.5735559 0 0)
(1.5720357 0 0)
(1.5703808 0 0)
(1.5685853 0 0)
(1.5666431 0 0)
(1.5645476 0 0)
(1.5622919 0 0)
(1.5597025 0 0)
(1.582756 0 0)
(1.5826996 0 0)
(1.5825315 0 0)
(1.5822537 0 0)
(1.5818672 0 0)
(1.5813726 0 0)
(1.5807695 0 0)
(1.5800571 0 0)
(1.5792336 0 0)
(1.5782971 0 0)
(1.5772447 0 0)
(1.5760731 0 0)
(1.5747784 0 0)
(1.5733561 0 0)
(1.5718012 0 0)
(1.5701081 0 0)
(1.5682709 0 0)
(1.566283 0 0)
(1.5641376 0 0)
(1.5618277 0 0)
(1.5591801 0 0)
(1.582756 0 0)
(1.5827081 0 0)
(1.5825654 0 0)
(1.5823297 0 0)
(1.5820022 0 0)
(1.5815834 0 0)
(1.581073 0 0)
(1.5804703 0 0)
(1.5797739 0 0)
(1.5789821 0 0)
(1.5780925 0 0)
(1.5771026 0 0)
(1.5760091 0 0)
(1.5748089 0 0)
(1.573498 0 0)
(1.5720724 0 0)
(1.5705279 0 0)
(1.56886 0 0)
(1.5670638 0 0)
(1.5651347 0 0)
(1.56264 0 0)
(1.582756 0 0)
(1.5827075 0 0)
(1.5825629 0 0)
(1.5823241 0 0)
(1.5819924 0 0)
(1.5815682 0 0)
(1.5810513 0 0)
(1.5804411 0 0)
(1.5797361 0 0)
(1.5789347 0 0)
(1.5780346 0 0)
(1.5770333 0 0)
(1.5759276 0 0)
(1.5747142 0 0)
(1.5733894 0 0)
(1.5719492 0 0)
(1.5703893 0 0)
(1.5687053 0 0)
(1.5668924 0 0)
(1.5649459 0 0)
(1.5628317 0 0)
(1.582756 0 0)
(1.5827067 0 0)
(1.5825599 0 0)
(1.5823175 0 0)
(1.5819808 0 0)
(1.5815502 0 0)
(1.5810256 0 0)
(1.5804063 0 0)
(1.579691 0 0)
(1.578878 0 0)
(1.5779651 0 0)
(1.5769497 0 0)
(1.5758287 0 0)
(1.5745987 0 0)
(1.5732559 0 0)
(1.5717963 0 0)
(1.5702157 0 0)
(1.5685095 0 0)
(1.566673 0 0)
(1.5647017 0 0)
(1.5625314 0 0)
(1.582756 0 0)
(1.582706 0 0)
(1.5825569 0 0)
(1.5823107 0 0)
(1.5819687 0 0)
(1.5815315 0 0)
(1.5809987 0 0)
(1.5803699 0 0)
(1.5796437 0 0)
(1.5788183 0 0)
(1.5778917 0 0)
(1.576861 0 0)
(1.5757233 0 0)
(1.574475 0 0)
(1.5731122 0 0)
(1.5716308 0 0)
(1.5700264 0 0)
(1.5682945 0 0)
(1.5664301 0 0)
(1.5644287 0 0)
(1.5622008 0 0)
(1.582756 0 0)
(1.5827052 0 0)
(1.5825537 0 0)
(1.5823036 0 0)
(1.5819562 0 0)
(1.5815119 0 0)
(1.5809706 0 0)
(1.5803317 0 0)
(1.579594 0 0)
(1.5787555 0 0)
(1.5778142 0 0)
(1.5767672 0 0)
(1.5756114 0 0)
(1.5743432 0 0)
(1.5729585 0 0)
(1.5714531 0 0)
(1.5698223 0 0)
(1.5680613 0 0)
(1.5661652 0 0)
(1.5641291 0 0)
(1.5618411 0 0)
(1.582756 0 0)
(1.5827043 0 0)
(1.5825504 0 0)
(1.5822962 0 0)
(1.581943 0 0)
(1.5814914 0 0)
(1.5809412 0 0)
(1.5802918 0 0)
(1.5795418 0 0)
(1.5786894 0 0)
(1.5777324 0 0)
(1.576668 0 0)
(1.5754929 0 0)
(1.5742033 0 0)
(1.572795 0 0)
(1.5712635 0 0)
(1.5696039 0 0)
(1.5678112 0 0)
(1.5658801 0 0)
(1.5638054 0 0)
(1.5614559 0 0)
(1.582756 0 0)
(1.5827035 0 0)
(1.5825469 0 0)
(1.5822885 0 0)
(1.5819293 0 0)
(1.58147 0 0)
(1.5809105 0 0)
(1.5802499 0 0)
(1.579487 0 0)
(1.5786199 0 0)
(1.5776463 0 0)
(1.5765633 0 0)
(1.5753676 0 0)
(1.574055 0 0)
(1.5726215 0 0)
(1.571062 0 0)
(1.5693716 0 0)
(1.5675447 0 0)
(1.5655758 0 0)
(1.5634595 0 0)
(1.5610482 0 0)
(1.582756 0 0)
(1.5827026 0 0)
(1.5825434 0 0)
(1.5822804 0 0)
(1.581915 0 0)
(1.5814477 0 0)
(1.5808783 0 0)
(1.5802059 0 0)
(1.5794294 0 0)
(1.5785468 0 0)
(1.5775556 0 0)
(1.5764528 0 0)
(1.5752349 0 0)
(1.573898 0 0)
(1.5724373 0 0)
(1.570848 0 0)
(1.5691246 0 0)
(1.5672615 0 0)
(1.5652525 0 0)
(1.563092 0 0)
(1.5606195 0 0)
(1.582756 0 0)
(1.5827017 0 0)
(1.5825397 0 0)
(1.5822721 0 0)
(1.5819002 0 0)
(1.5814244 0 0)
(1.5808446 0 0)
(1.5801599 0 0)
(1.579369 0 0)
(1.5784698 0 0)
(1.5774598 0 0)
(1.576336 0 0)
(1.5750946 0 0)
(1.5737315 0 0)
(1.572242 0 0)
(1.5706209 0 0)
(1.5688625 0 0)
(1.5669608 0 0)
(1.5649097 0 0)
(1.5627026 0 0)
(1.5601708 0 0)
(1.582756 0 0)
(1.5827007 0 0)
(1.5825359 0 0)
(1.5822635 0 0)
(1.5818848 0 0)
(1.5814002 0 0)
(1.5808095 0 0)
(1.5801118 0 0)
(1.5793057 0 0)
(1.578389 0 0)
(1.5773592 0 0)
(1.576213 0 0)
(1.5749467 0 0)
(1.5735559 0 0)
(1.5720357 0 0)
(1.5703808 0 0)
(1.5685853 0 0)
(1.5666431 0 0)
(1.5645476 0 0)
(1.5622919 0 0)
(1.5597025 0 0)
(1.582756 0 0)
(1.5826996 0 0)
(1.5825315 0 0)
(1.5822537 0 0)
(1.5818672 0 0)
(1.5813726 0 0)
(1.5807695 0 0)
(1.5800571 0 0)
(1.5792336 0 0)
(1.5782971 0 0)
(1.5772447 0 0)
(1.5760731 0 0)
(1.5747784 0 0)
(1.5733561 0 0)
(1.5718012 0 0)
(1.5701081 0 0)
(1.5682709 0 0)
(1.566283 0 0)
(1.5641376 0 0)
(1.5618277 0 0)
(1.5591801 0 0)
(1.582756 0 0)
(1.5827124 0 0)
(1.5825825 0 0)
(1.5823679 0 0)
(1.5820693 0 0)
(1.5816862 0 0)
(1.5812176 0 0)
(1.5806618 0 0)
(1.5800164 0 0)
(1.5792785 0 0)
(1.5784446 0 0)
(1.5775109 0 0)
(1.5764728 0 0)
(1.5753257 0 0)
(1.5740641 0 0)
(1.5726823 0 0)
(1.5711739 0 0)
(1.5695321 0 0)
(1.5677495 0 0)
(1.5658188 0 0)
(1.563551 0 0)
(1.582756 0 0)
(1.5827119 0 0)
(1.5825803 0 0)
(1.582363 0 0)
(1.5820605 0 0)
(1.5816727 0 0)
(1.5811984 0 0)
(1.580636 0 0)
(1.5799833 0 0)
(1.5792373 0 0)
(1.5783948 0 0)
(1.5774519 0 0)
(1.5764044 0 0)
(1.5752474 0 0)
(1.5739758 0 0)
(1.5725837 0 0)
(1.5710649 0 0)
(1.5694128 0 0)
(1.5676199 0 0)
(1.5656791 0 0)
(1.5634047 0 0)
(1.582756 0 0)
(1.5827113 0 0)
(1.582578 0 0)
(1.5823577 0 0)
(1.5820513 0 0)
(1.5816584 0 0)
(1.5811782 0 0)
(1.5806091 0 0)
(1.5799489 0 0)
(1.5791948 0 0)
(1.5783438 0 0)
(1.5773919 0 0)
(1.5763352 0 0)
(1.5751688 0 0)
(1.5738877 0 0)
(1.5724862 0 0)
(1.5709582 0 0)
(1.569297 0 0)
(1.5674955 0 0)
(1.5655468 0 0)
(1.5632724 0 0)
(1.582756 0 0)
(1.5827107 0 0)
(1.5825758 0 0)
(1.5823529 0 0)
(1.5820429 0 0)
(1.5816456 0 0)
(1.5811601 0 0)
(1.5805851 0 0)
(1.5799185 0 0)
(1.5791576 0 0)
(1.5782995 0 0)
(1.5773404 0 0)
(1.5762764 0 0)
(1.5751028 0 0)
(1.5738148 0 0)
(1.5724068 0 0)
(1.5708728 0 0)
(1.5692065 0 0)
(1.5674008 0 0)
(1.5654489 0 0)
(1.5631834 0 0)
(1.582756 0 0)
(1.5827102 0 0)
(1.5825739 0 0)
(1.5823486 0 0)
(1.5820354 0 0)
(1.5816342 0 0)
(1.5811442 0 0)
(1.5805642 0 0)
(1.5798922 0 0)
(1.5791256 0 0)
(1.5782617 0 0)
(1.5772969 0 0)
(1.5762274 0 0)
(1.5750487 0 0)
(1.573756 0 0)
(1.5723441 0 0)
(1.5708071 0 0)
(1.5691389 0 0)
(1.5673327 0 0)
(1.5653821 0 0)
(1.5631337 0 0)
(1.582756 0 0)
(1.5827098 0 0)
(1.5825722 0 0)
(1.5823449 0 0)
(1.5820288 0 0)
(1.5816242 0 0)
(1.5811303 0 0)
(1.580546 0 0)
(1.5798694 0 0)
(1.5790982 0 0)
(1.5782296 0 0)
(1.5772604 0 0)
(1.5761867 0 0)
(1.5750044 0 0)
(1.5737089 0 0)
(1.572295 0 0)
(1.5707573 0 0)
(1.5690898 0 0)
(1.5672861 0 0)
(1.5653401 0 0)
(1.5631162 0 0)
(1.582756 0 0)
(1.5827094 0 0)
(1.5825706 0 0)
(1.5823415 0 0)
(1.582023 0 0)
(1.5816154 0 0)
(1.5811181 0 0)
(1.58053 0 0)
(1.5798495 0 0)
(1.5790743 0 0)
(1.5782018 0 0)
(1.5772289 0 0)
(1.576152 0 0)
(1.574967 0 0)
(1.5736697 0 0)
(1.572255 0 0)
(1.5707179 0 0)
(1.5690526 0 0)
(1.5672533 0 0)
(1.5653138 0 0)
(1.5631207 0 0)
(1.582756 0 0)
(1.5827091 0 0)
(1.5825693 0 0)
(1.5823385 0 0)
(1.5820178 0 0)
(1.5816075 0 0)
(1.5811071 0 0)
(1.5805156 0 0)
(1.5798316 0 0)
(1.5790528 0 0)
(1.5781768 0 0)
(1.5772006 0 0)
(1.5761208 0 0)
(1.5749335 0 0)
(1.5736347 0 0)
(1.5722196 0 0)
(1.5706835 0 0)
(1.5690208 0 0)
(1.5672263 0 0)
(1.5652939 0 0)
(1.563136 0 0)
(1.582756 0 0)
(1.5827088 0 0)
(1.5825681 0 0)
(1.5823358 0 0)
(1.5820131 0 0)
(1.5816002 0 0)
(1.5810969 0 0)
(1.5805023 0 0)
(1.5798148 0 0)
(1.5790325 0 0)
(1.5781531 0 0)
(1.5771736 0 0)
(1.5760907 0 0)
(1.574901 0 0)
(1.5736003 0 0)
(1.5721844 0 0)
(1.5706484 0 0)
(1.5689876 0 0)
(1.5671967 0 0)
(1.5652704 0 0)
(1.5631505 0 0)
(1.582756 0 0)
(1.5827085 0 0)
(1.5825669 0 0)
(1.5823332 0 0)
(1.5820085 0 0)
(1.5815932 0 0)
(1.5810871 0 0)
(1.5804892 0 0)
(1.5797981 0 0)
(1.5790122 0 0)
(1.5781289 0 0)
(1.5771456 0 0)
(1.5760591 0 0)
(1.574866 0 0)
(1.5735624 0 0)
(1.572144 0 0)
(1.5706066 0 0)
(1.5689454 0 0)
(1.5671555 0 0)
(1.565232 0 0)
(1.5631523 0 0)
(1.582756 0 0)
(1.5827124 0 0)
(1.5825825 0 0)
(1.5823679 0 0)
(1.5820693 0 0)
(1.5816862 0 0)
(1.5812176 0 0)
(1.5806618 0 0)
(1.5800164 0 0)
(1.5792785 0 0)
(1.5784446 0 0)
(1.5775109 0 0)
(1.5764728 0 0)
(1.5753257 0 0)
(1.5740641 0 0)
(1.5726823 0 0)
(1.5711739 0 0)
(1.5695321 0 0)
(1.5677495 0 0)
(1.5658188 0 0)
(1.563551 0 0)
(1.582756 0 0)
(1.5827119 0 0)
(1.5825803 0 0)
(1.582363 0 0)
(1.5820605 0 0)
(1.5816727 0 0)
(1.5811984 0 0)
(1.580636 0 0)
(1.5799833 0 0)
(1.5792373 0 0)
(1.5783948 0 0)
(1.5774519 0 0)
(1.5764044 0 0)
(1.5752474 0 0)
(1.5739758 0 0)
(1.5725837 0 0)
(1.5710649 0 0)
(1.5694128 0 0)
(1.5676199 0 0)
(1.5656791 0 0)
(1.5634047 0 0)
(1.582756 0 0)
(1.5827113 0 0)
(1.582578 0 0)
(1.5823577 0 0)
(1.5820513 0 0)
(1.5816584 0 0)
(1.5811782 0 0)
(1.5806091 0 0)
(1.5799489 0 0)
(1.5791948 0 0)
(1.5783438 0 0)
(1.5773919 0 0)
(1.5763352 0 0)
(1.5751688 0 0)
(1.5738877 0 0)
(1.5724862 0 0)
(1.5709582 0 0)
(1.569297 0 0)
(1.5674955 0 0)
(1.5655468 0 0)
(1.5632724 0 0)
(1.582756 0 0)
(1.5827107 0 0)
(1.5825758 0 0)
(1.5823529 0 0)
(1.5820429 0 0)
(1.5816456 0 0)
(1.5811601 0 0)
(1.5805851 0 0)
(1.5799185 0 0)
(1.5791576 0 0)
(1.5782995 0 0)
(1.5773404 0 0)
(1.5762764 0 0)
(1.5751028 0 0)
(1.5738148 0 0)
(1.5724068 0 0)
(1.5708728 0 0)
(1.5692065 0 0)
(1.5674008 0 0)
(1.5654489 0 0)
(1.5631834 0 0)
(1.582756 0 0)
(1.5827102 0 0)
(1.5825739 0 0)
(1.5823486 0 0)
(1.5820354 0 0)
(1.5816342 0 0)
(1.5811442 0 0)
(1.5805642 0 0)
(1.5798922 0 0)
(1.5791256 0 0)
(1.5782617 0 0)
(1.5772969 0 0)
(1.5762274 0 0)
(1.5750487 0 0)
(1.573756 0 0)
(1.5723441 0 0)
(1.5708071 0 0)
(1.5691389 0 0)
(1.5673327 0 0)
(1.5653821 0 0)
(1.5631337 0 0)
(1.582756 0 0)
(1.5827098 0 0)
(1.5825722 0 0)
(1.5823449 0 0)
(1.5820288 0 0)
(1.5816242 0 0)
(1.5811303 0 0)
(1.580546 0 0)
(1.5798694 0 0)
(1.5790982 0 0)
(1.5782296 0 0)
(1.5772604 0 0)
(1.5761867 0 0)
(1.5750044 0 0)
(1.5737089 0 0)
(1.572295 0 0)
(1.5707573 0 0)
(1.5690898 0 0)
(1.5672861 0 0)
(1.5653401 0 0)
(1.5631162 0 0)
(1.582756 0 0)
(1.5827094 0 0)
(1.5825706 0 0)
(1.5823415 0 0)
(1.582023 0 0)
(1.5816154 0 0)
(1.5811181 0 0)
(1.58053 0 0)
(1.5798495 0 0)
(1.5790743 0 0)
(1.5782018 0 0)
(1.5772289 0 0)
(1.576152 0 0)
(1.574967 0 0)
(1.5736697 0 0)
(1.572255 0 0)
(1.5707179 0 0)
(1.5690526 0 0)
(1.5672533 0 0)
(1.5653138 0 0)
(1.5631207 0 0)
(1.582756 0 0)
(1.5827091 0 0)
(1.5825693 0 0)
(1.5823385 0 0)
(1.5820178 0 0)
(1.5816075 0 0)
(1.5811071 0 0)
(1.5805156 0 0)
(1.5798316 0 0)
(1.5790528 0 0)
(1.5781768 0 0)
(1.5772006 0 0)
(1.5761208 0 0)
(1.5749335 0 0)
(1.5736347 0 0)
(1.5722196 0 0)
(1.5706835 0 0)
(1.5690208 0 0)
(1.5672263 0 0)
(1.5652939 0 0)
(1.563136 0 0)
(1.582756 0 0)
(1.5827088 0 0)
(1.5825681 0 0)
(1.5823358 0 0)
(1.5820131 0 0)
(1.5816002 0 0)
(1.5810969 0 0)
(1.5805023 0 0)
(1.5798148 0 0)
(1.5790325 0 0)
(1.5781531 0 0)
(1.5771736 0 0)
(1.5760907 0 0)
(1.574901 0 0)
(1.5736003 0 0)
(1.5721844 0 0)
(1.5706484 0 0)
(1.5689876 0 0)
(1.5671967 0 0)
(1.5652704 0 0)
(1.5631505 0 0)
(1.582756 0 0)
(1.5827085 0 0)
(1.5825669 0 0)
(1.5823332 0 0)
(1.5820085 0 0)
(1.5815932 0 0)
(1.5810871 0 0)
(1.5804892 0 0)
(1.5797981 0 0)
(1.5790122 0 0)
(1.5781289 0 0)
(1.5771456 0 0)
(1.5760591 0 0)
(1.574866 0 0)
(1.5735624 0 0)
(1.572144 0 0)
(1.5706066 0 0)
(1.5689454 0 0)
(1.5671555 0 0)
(1.565232 0 0)
(1.5631523 0 0)
(1.560693 0 0)
(1.5573912 0 0)
(1.5538131 0 0)
(1.5499411 0 0)
(1.5457554 0 0)
(1.5412341 0 0)
(1.536351 0 0)
(1.5310719 0 0)
(1.5253534 0 0)
(1.5191508 0 0)
(1.5124222 0 0)
(1.505123 0 0)
(1.4972037 0 0)
(1.4886127 0 0)
(1.4792971 0 0)
(1.4692032 0 0)
(1.4582818 0 0)
(1.4464834 0 0)
(1.4337523 0 0)
(1.420029 0 0)
(1.405256 0 0)
(1.3893703 0 0)
(1.3722975 0 0)
(1.3539608 0 0)
(1.3342889 0 0)
(1.3132007 0 0)
(1.290596 0 0)
(1.2663759 0 0)
(1.2404579 0 0)
(1.2127503 0 0)
(1.1831221 0 0)
(1.1514182 0 0)
(1.1174932 0 0)
(1.0812278 0 0)
(1.0424627 0 0)
(1.0009785 0 0)
(0.95659224 0 0)
(0.9091566 0 0)
(0.858448 0 0)
(0.80414509 0 0)
(0.74599288 0 0)
(0.68379693 0 0)
(0.61727698 0 0)
(0.54609668 0 0)
(0.46992177 0 0)
(0.38839902 0 0)
(0.3010949 0 0)
(0.20751557 0 0)
(0.10719177 0 0)
(0 0 0)
(1.5605479 0 0)
(1.5572518 0 0)
(1.5536801 0 0)
(1.5498153 0 0)
(1.5456378 0 0)
(1.5411264 0 0)
(1.5362553 0 0)
(1.5309903 0 0)
(1.5252877 0 0)
(1.5191025 0 0)
(1.5123921 0 0)
(1.5051108 0 0)
(1.4972091 0 0)
(1.4886358 0 0)
(1.4793374 0 0)
(1.4692601 0 0)
(1.4583546 0 0)
(1.4465719 0 0)
(1.433856 0 0)
(1.4201468 0 0)
(1.4053868 0 0)
(1.3895136 0 0)
(1.3724528 0 0)
(1.3541265 0 0)
(1.3344638 0 0)
(1.3133843 0 0)
(1.2907877 0 0)
(1.2665741 0 0)
(1.240661 0 0)
(1.2129576 0 0)
(1.1833339 0 0)
(1.1516326 0 0)
(1.1177083 0 0)
(1.0814416 0 0)
(1.0426739 0 0)
(1.001186 0 0)
(0.95679446 0 0)
(0.90935206 0 0)
(0.85863555 0 0)
(0.80432281 0 0)
(0.74615865 0 0)
(0.68394995 0 0)
(0.61741626 0 0)
(0.54622162 0 0)
(0.47003181 0 0)
(0.38849332 0 0)
(0.30117083 0 0)
(0.20756915 0 0)
(0.10721938 0 0)
(0 0 0)
(1.5604315 0 0)
(1.5571591 0 0)
(1.5536114 0 0)
(1.5497709 0 0)
(1.5456184 0 0)
(1.5411334 0 0)
(1.5362905 0 0)
(1.5310555 0 0)
(1.5253844 0 0)
(1.5192325 0 0)
(1.5125563 0 0)
(1.5053093 0 0)
(1.4974413 0 0)
(1.4889014 0 0)
(1.4796361 0 0)
(1.4695913 0 0)
(1.4587174 0 0)
(1.4469653 0 0)
(1.4342793 0 0)
(1.4205988 0 0)
(1.4058658 0 0)
(1.3900182 0 0)
(1.3729815 0 0)
(1.3546777 0 0)
(1.3350352 0 0)
(1.3139741 0 0)
(1.2913943 0 0)
(1.2671954 0 0)
(1.241294 0 0)
(1.2135998 0 0)
(1.1839845 0 0)
(1.1522883 0 0)
(1.1183652 0 0)
(1.082096 0 0)
(1.0433231 0 0)
(1.0018264 0 0)
(0.95742167 0 0)
(0.90996231 0 0)
(0.85922539 0 0)
(0.80488709 0 0)
(0.74669197 0 0)
(0.68444877 0 0)
(0.61787601 0 0)
(0.54663657 0 0)
(0.47039646 0 0)
(0.38880256 0 0)
(0.30141695 0 0)
(0.20774204 0 0)
(0.10730918 0 0)
(0 0 0)
(1.5603742 0 0)
(1.5571447 0 0)
(1.5536397 0 0)
(1.5498419 0 0)
(1.5457324 0 0)
(1.5412911 0 0)
(1.5364935 0 0)
(1.5313051 0 0)
(1.5256824 0 0)
(1.5195807 0 0)
(1.5129558 0 0)
(1.5057599 0 0)
(1.4979427 0 0)
(1.489453 0 0)
(1.4802374 0 0)
(1.4702416 0 0)
(1.4594157 0 0)
(1.4477104 0 0)
(1.4350696 0 0)
(1.4214325 0 0)
(1.4067408 0 0)
(1.3909322 0 0)
(1.3739322 0 0)
(1.3556623 0 0)
(1.3360508 0 0)
(1.315018 0 0)
(1.2924634 0 0)
(1.2682861 0 0)
(1.2424023 0 0)
(1.2147221 0 0)
(1.1851179 0 0)
(1.1534278 0 0)
(1.1195054 0 0)
(1.0832315 0 0)
(1.0444487 0 0)
(1.0029361 0 0)
(0.95850883 0 0)
(0.91102067 0 0)
(0.86024826 0 0)
(0.80586609 0 0)
(0.74761887 0 0)
(0.68531708 0 0)
(0.61867702 0 0)
(0.54735939 0 0)
(0.47103096 0 0)
(0.38933911 0 0)
(0.30184246 0 0)
(0.20804025 0 0)
(0.10746415 0 0)
(0 0 0)
(1.5603716 0 0)
(1.5572038 0 0)
(1.5537601 0 0)
(1.5500229 0 0)
(1.5459739 0 0)
(1.5415937 0 0)
(1.5368581 0 0)
(1.531733 0 0)
(1.5261754 0 0)
(1.5201404 0 0)
(1.5135832 0 0)
(1.5064549 0 0)
(1.4987049 0 0)
(1.4902821 0 0)
(1.4811327 0 0)
(1.4712024 0 0)
(1.4604406 0 0)
(1.4487978 0 0)
(1.4362174 0 0)
(1.4226384 0 0)
(1.4080021 0 0)
(1.3922457 0 0)
(1.3752947 0 0)
(1.3570705 0 0)
(1.3375007 0 0)
(1.3165056 0 0)
(1.2939847 0 0)
(1.2698363 0 0)
(1.2439761 0 0)
(1.2163142 0 0)
(1.186724 0 0)
(1.1550413 0 0)
(1.1211186 0 0)
(1.0848379 0 0)
(1.0460412 0 0)
(1.0045059 0 0)
(0.96004664 0 0)
(0.91251797 0 0)
(0.86169584 0 0)
(0.80725209 0 0)
(0.7489318 0 0)
(0.68654759 0 0)
(0.61981279 0 0)
(0.54838443 0 0)
(0.47193023 0 0)
(0.39009853 0 0)
(0.3024439 0 0)
(0.20846137 0 0)
(0.10768306 0 0)
(0 0 0)
(1.560416 0 0)
(1.5573281 0 0)
(1.5539635 0 0)
(1.5503044 0 0)
(1.5463331 0 0)
(1.5420309 0 0)
(1.5373743 0 0)
(1.5323291 0 0)
(1.5268526 0 0)
(1.5209005 0 0)
(1.5144268 0 0)
(1.5073823 0 0)
(1.4997159 0 0)
(1.4913762 0 0)
(1.4823093 0 0)
(1.4724607 0 0)
(1.4617792 0 0)
(1.4502145 0 0)
(1.4377095 0 0)
(1.4242031 0 0)
(1.4096363 0 0)
(1.3939456 0 0)
(1.3770558 0 0)
(1.3588884 0 0)
(1.339371 0 0)
(1.3184235 0 0)
(1.2959444 0 0)
(1.2718318 0 0)
(1.2460013 0 0)
(1.2183627 0 0)
(1.188789 0 0)
(1.1571146 0 0)
(1.1231917 0 0)
(1.0869021 0 0)
(1.0480875 0 0)
(1.0065229 0 0)
(0.9620229 0 0)
(0.91444264 0 0)
(0.86355662 0 0)
(0.809034 0 0)
(0.75062058 0 0)
(0.68813094 0 0)
(0.62127433 0 0)
(0.54970357 0 0)
(0.47308731 0 0)
(0.39107506 0 0)
(0.30321655 0 0)
(0.20900206 0 0)
(0.10796418 0 0)
(0 0 0)
(1.5604964 0 0)
(1.557506 0 0)
(1.5542377 0 0)
(1.5506736 0 0)
(1.5467969 0 0)
(1.5425897 0 0)
(1.5380288 0 0)
(1.5330793 0 0)
(1.527699 0 0)
(1.5218446 0 0)
(1.5154706 0 0)
(1.5085262 0 0)
(1.5009592 0 0)
(1.4927185 0 0)
(1.4837504 0 0)
(1.4739995 0 0)
(1.4634141 0 0)
(1.451943 0 0)
(1.4395284 0 0)
(1.4261091 0 0)
(1.4116256 0 0)
(1.3960137 0 0)
(1.3791974 0 0)
(1.3610983 0 0)
(1.3416437 0 0)
(1.3207531 0 0)
(1.2983243 0 0)
(1.2742548 0 0)
(1.24846 0 0)
(1.2208495 0 0)
(1.1912955 0 0)
(1.1596305 0 0)
(1.1257067 0 0)
(1.0894067 0 0)
(1.0505707 0 0)
(1.0089709 0 0)
(0.96442139 0 0)
(0.91677889 0 0)
(0.86581591 0 0)
(0.81119795 0 0)
(0.75267201 0 0)
(0.69005453 0 0)
(0.62305033 0 0)
(0.55130663 0 0)
(0.47449304 0 0)
(0.39226081 0 0)
(0.30415437 0 0)
(0.20965823 0 0)
(0.1083053 0 0)
(0 0 0)
(1.5606008 0 0)
(1.5577248 0 0)
(1.5545697 0 0)
(1.5511171 0 0)
(1.5473515 0 0)
(1.5432556 0 0)
(1.5388058 0 0)
(1.5339661 0 0)
(1.5286958 0 0)
(1.5229547 0 0)
(1.5166964 0 0)
(1.5098679 0 0)
(1.5024154 0 0)
(1.4942889 0 0)
(1.4854352 0 0)
(1.4757977 0 0)
(1.4653243 0 0)
(1.4539626 0 0)
(1.4416531 0 0)
(1.4283348 0 0)
(1.4139487 0 0)
(1.3984289 0 0)
(1.3816981 0 0)
(1.3636781 0 0)
(1.3442969 0 0)
(1.323473 0 0)
(1.3011028 0 0)
(1.2770833 0 0)
(1.2513304 0 0)
(1.2237529 0 0)
(1.1942215 0 0)
(1.1625671 0 0)
(1.1286425 0 0)
(1.0923308 0 0)
(1.0534702 0 0)
(1.0118295 0 0)
(0.96722283 0 0)
(0.91950795 0 0)
(0.86845523 0 0)
(0.8137265 0 0)
(0.75506982 0 0)
(0.69230338 0 0)
(0.62512673 0 0)
(0.55318084 0 0)
(0.4761364 0 0)
(0.39364661 0 0)
(0.30524998 0 0)
(0.21042459 0 0)
(0.10870365 0 0)
(0 0 0)
(1.5607159 0 0)
(1.5579711 0 0)
(1.5549458 0 0)
(1.5516214 0 0)
(1.5479823 0 0)
(1.5440125 0 0)
(1.5396883 0 0)
(1.5349734 0 0)
(1.5298276 0 0)
(1.5242126 0 0)
(1.5180825 0 0)
(1.5113834 0 0)
(1.5040612 0 0)
(1.4960651 0 0)
(1.4873415 0 0)
(1.4778332 0 0)
(1.4674873 0 0)
(1.4562497 0 0)
(1.4440589 0 0)
(1.4308552 0 0)
(1.4165804 0 0)
(1.4011659 0 0)
(1.3845324 0 0)
(1.3666025 0 0)
(1.3473051 0 0)
(1.3265574 0 0)
(1.3042541 0 0)
(1.2802918 0 0)
(1.2545868 0 0)
(1.2270474 0 0)
(1.1975419 0 0)
(1.1658996 0 0)
(1.131974 0 0)
(1.0956495 0 0)
(1.0567619 0 0)
(1.0150755 0 0)
(0.97040419 0 0)
(0.92260747 0 0)
(0.87145349 0 0)
(0.81659978 0 0)
(0.75779514 0 0)
(0.69485952 0 0)
(0.62748709 0 0)
(0.55531153 0 0)
(0.47800446 0 0)
(0.39522135 0 0)
(0.30649461 0 0)
(0.21129509 0 0)
(0.10915609 0 0)
(0 0 0)
(1.5608317 0 0)
(1.558237 0 0)
(1.5553598 0 0)
(1.5521799 0 0)
(1.5486832 0 0)
(1.5448544 0 0)
(1.5406686 0 0)
(1.5360907 0 0)
(1.531083 0 0)
(1.5256061 0 0)
(1.5196162 0 0)
(1.5130608 0 0)
(1.505885 0 0)
(1.4980361 0 0)
(1.4894585 0 0)
(1.480094 0 0)
(1.4698885 0 0)
(1.4587884 0 0)
(1.4467311 0 0)
(1.4336566 0 0)
(1.4195075 0 0)
(1.4042117 0 0)
(1.3876864 0 0)
(1.3698568 0 0)
(1.3506534 0 0)
(1.3299918 0 0)
(1.3077635 0 0)
(1.283865 0 0)
(1.2582141 0 0)
(1.2307177 0 0)
(1.2012411 0 0)
(1.1696119 0 0)
(1.1356854 0 0)
(1.099347 0 0)
(1.0604297 0 0)
(1.0186929 0 0)
(0.97394983 0 0)
(0.92606197 0 0)
(0.87479515 0 0)
(0.81980265 0 0)
(0.7608338 0 0)
(0.69770953 0 0)
(0.63011835 0 0)
(0.5576866 0 0)
(0.48008653 0 0)
(0.39697587 0 0)
(0.30788078 0 0)
(0.21226439 0 0)
(0.10965974 0 0)
(0 0 0)
(1.5603531 0 0)
(1.5578931 0 0)
(1.5551479 0 0)
(1.5520985 0 0)
(1.5487321 0 0)
(1.545031 0 0)
(1.5409679 0 0)
(1.5365123 0 0)
(1.5316283 0 0)
(1.5262761 0 0)
(1.5204118 0 0)
(1.513985 0 0)
(1.5069421 0 0)
(1.4992275 0 0)
(1.4907842 0 0)
(1.4815531 0 0)
(1.4714805 0 0)
(1.4605136 0 0)
(1.4485884 0 0)
(1.4356434 0 0)
(1.4216206 0 0)
(1.406445 0 0)
(1.3900342 0 0)
(1.3723146 0 0)
(1.3532166 0 0)
(1.3326545 0 0)
(1.3105176 0 0)
(1.2867018 0 0)
(1.2611254 0 0)
(1.2336944 0 0)
(1.2042721 0 0)
(1.1726844 0 0)
(1.1387865 0 0)
(1.1024647 0 0)
(1.0635504 0 0)
(1.021799 0 0)
(0.97702088 0 0)
(0.92907894 0 0)
(0.87773763 0 0)
(0.82264766 0 0)
(0.76355567 0 0)
(0.70028348 0 0)
(0.63251489 0 0)
(0.55986837 0 0)
(0.48201496 0 0)
(0.39861518 0 0)
(0.30918908 0 0)
(0.21319154 0 0)
(0.11015451 0 0)
(0 0 0)
(1.560693 0 0)
(1.5573912 0 0)
(1.5538131 0 0)
(1.5499411 0 0)
(1.5457554 0 0)
(1.5412341 0 0)
(1.536351 0 0)
(1.5310719 0 0)
(1.5253534 0 0)
(1.5191508 0 0)
(1.5124222 0 0)
(1.505123 0 0)
(1.4972037 0 0)
(1.4886127 0 0)
(1.4792971 0 0)
(1.4692032 0 0)
(1.4582818 0 0)
(1.4464834 0 0)
(1.4337523 0 0)
(1.420029 0 0)
(1.405256 0 0)
(1.3893703 0 0)
(1.3722975 0 0)
(1.3539608 0 0)
(1.3342889 0 0)
(1.3132007 0 0)
(1.290596 0 0)
(1.2663759 0 0)
(1.2404579 0 0)
(1.2127503 0 0)
(1.1831221 0 0)
(1.1514182 0 0)
(1.1174932 0 0)
(1.0812278 0 0)
(1.0424627 0 0)
(1.0009785 0 0)
(0.95659224 0 0)
(0.9091566 0 0)
(0.858448 0 0)
(0.80414509 0 0)
(0.74599288 0 0)
(0.68379693 0 0)
(0.61727698 0 0)
(0.54609668 0 0)
(0.46992177 0 0)
(0.38839902 0 0)
(0.3010949 0 0)
(0.20751557 0 0)
(0.10719177 0 0)
(0 0 0)
(1.5605479 0 0)
(1.5572518 0 0)
(1.5536801 0 0)
(1.5498153 0 0)
(1.5456378 0 0)
(1.5411264 0 0)
(1.5362553 0 0)
(1.5309903 0 0)
(1.5252877 0 0)
(1.5191025 0 0)
(1.5123921 0 0)
(1.5051108 0 0)
(1.4972091 0 0)
(1.4886358 0 0)
(1.4793374 0 0)
(1.4692601 0 0)
(1.4583546 0 0)
(1.4465719 0 0)
(1.433856 0 0)
(1.4201468 0 0)
(1.4053868 0 0)
(1.3895136 0 0)
(1.3724528 0 0)
(1.3541265 0 0)
(1.3344638 0 0)
(1.3133843 0 0)
(1.2907877 0 0)
(1.2665741 0 0)
(1.240661 0 0)
(1.2129576 0 0)
(1.1833339 0 0)
(1.1516326 0 0)
(1.1177083 0 0)
(1.0814416 0 0)
(1.0426739 0 0)
(1.001186 0 0)
(0.95679446 0 0)
(0.90935206 0 0)
(0.85863555 0 0)
(0.80432281 0 0)
(0.74615865 0 0)
(0.68394995 0 0)
(0.61741626 0 0)
(0.54622162 0 0)
(0.47003181 0 0)
(0.38849332 0 0)
(0.30117083 0 0)
(0.20756915 0 0)
(0.10721938 0 0)
(0 0 0)
(1.5604315 0 0)
(1.5571591 0 0)
(1.5536114 0 0)
(1.5497709 0 0)
(1.5456184 0 0)
(1.5411334 0 0)
(1.5362905 0 0)
(1.5310555 0 0)
(1.5253844 0 0)
(1.5192325 0 0)
(1.5125563 0 0)
(1.5053093 0 0)
(1.4974413 0 0)
(1.4889014 0 0)
(1.4796361 0 0)
(1.4695913 0 0)
(1.4587174 0 0)
(1.4469653 0 0)
(1.4342793 0 0)
(1.4205988 0 0)
(1.4058658 0 0)
(1.3900182 0 0)
(1.3729815 0 0)
(1.3546777 0 0)
(1.3350352 0 0)
(1.3139741 0 0)
(1.2913943 0 0)
(1.2671954 0 0)
(1.241294 0 0)
(1.2135998 0 0)
(1.1839845 0 0)
(1.1522883 0 0)
(1.1183652 0 0)
(1.082096 0 0)
(1.0433231 0 0)
(1.0018264 0 0)
(0.95742167 0 0)
(0.90996231 0 0)
(0.85922539 0 0)
(0.80488709 0 0)
(0.74669197 0 0)
(0.68444877 0 0)
(0.61787601 0 0)
(0.54663657 0 0)
(0.47039646 0 0)
(0.38880256 0 0)
(0.30141695 0 0)
(0.20774204 0 0)
(0.10730918 0 0)
(0 0 0)
(1.5603742 0 0)
(1.5571447 0 0)
(1.5536397 0 0)
(1.5498419 0 0)
(1.5457324 0 0)
(1.5412911 0 0)
(1.5364935 0 0)
(1.5313051 0 0)
(1.5256824 0 0)
(1.5195807 0 0)
(1.5129558 0 0)
(1.5057599 0 0)
(1.4979427 0 0)
(1.489453 0 0)
(1.4802374 0 0)
(1.4702416 0 0)
(1.4594157 0 0)
(1.4477104 0 0)
(1.4350696 0 0)
(1.4214325 0 0)
(1.4067408 0 0)
(1.3909322 0 0)
(1.3739322 0 0)
(1.3556623 0 0)
(1.3360508 0 0)
(1.315018 0 0)
(1.2924634 0 0)
(1.2682861 0 0)
(1.2424023 0 0)
(1.2147221 0 0)
(1.1851179 0 0)
(1.1534278 0 0)
(1.1195054 0 0)
(1.0832315 0 0)
(1.0444487 0 0)
(1.0029361 0 0)
(0.95850883 0 0)
(0.91102067 0 0)
(0.86024826 0 0)
(0.80586609 0 0)
(0.74761887 0 0)
(0.68531708 0 0)
(0.61867702 0 0)
(0.54735939 0 0)
(0.47103096 0 0)
(0.38933911 0 0)
(0.30184246 0 0)
(0.20804025 0 0)
(0.10746415 0 0)
(0 0 0)
(1.5603716 0 0)
(1.5572038 0 0)
(1.5537601 0 0)
(1.5500229 0 0)
(1.5459739 0 0)
(1.5415937 0 0)
(1.5368581 0 0)
(1.531733 0 0)
(1.5261754 0 0)
(1.5201404 0 0)
(1.5135832 0 0)
(1.5064549 0 0)
(1.4987049 0 0)
(1.4902821 0 0)
(1.4811327 0 0)
(1.4712024 0 0)
(1.4604406 0 0)
(1.4487978 0 0)
(1.4362174 0 0)
(1.4226384 0 0)
(1.4080021 0 0)
(1.3922457 0 0)
(1.3752947 0 0)
(1.3570705 0 0)
(1.3375007 0 0)
(1.3165056 0 0)
(1.2939847 0 0)
(1.2698363 0 0)
(1.2439761 0 0)
(1.2163142 0 0)
(1.186724 0 0)
(1.1550413 0 0)
(1.1211186 0 0)
(1.0848379 0 0)
(1.0460412 0 0)
(1.0045059 0 0)
(0.96004664 0 0)
(0.91251797 0 0)
(0.86169584 0 0)
(0.80725209 0 0)
(0.7489318 0 0)
(0.68654759 0 0)
(0.61981279 0 0)
(0.54838443 0 0)
(0.47193023 0 0)
(0.39009853 0 0)
(0.3024439 0 0)
(0.20846137 0 0)
(0.10768306 0 0)
(0 0 0)
(1.560416 0 0)
(1.5573281 0 0)
(1.5539635 0 0)
(1.5503044 0 0)
(1.5463331 0 0)
(1.5420309 0 0)
(1.5373743 0 0)
(1.5323291 0 0)
(1.5268526 0 0)
(1.5209005 0 0)
(1.5144268 0 0)
(1.5073823 0 0)
(1.4997159 0 0)
(1.4913762 0 0)
(1.4823093 0 0)
(1.4724607 0 0)
(1.4617792 0 0)
(1.4502145 0 0)
(1.4377095 0 0)
(1.4242031 0 0)
(1.4096363 0 0)
(1.3939456 0 0)
(1.3770558 0 0)
(1.3588884 0 0)
(1.339371 0 0)
(1.3184235 0 0)
(1.2959444 0 0)
(1.2718318 0 0)
(1.2460013 0 0)
(1.2183627 0 0)
(1.188789 0 0)
(1.1571146 0 0)
(1.1231917 0 0)
(1.0869021 0 0)
(1.0480875 0 0)
(1.0065229 0 0)
(0.9620229 0 0)
(0.91444264 0 0)
(0.86355662 0 0)
(0.809034 0 0)
(0.75062058 0 0)
(0.68813094 0 0)
(0.62127433 0 0)
(0.54970357 0 0)
(0.47308731 0 0)
(0.39107506 0 0)
(0.30321655 0 0)
(0.20900206 0 0)
(0.10796418 0 0)
(0 0 0)
(1.5604964 0 0)
(1.557506 0 0)
(1.5542377 0 0)
(1.5506736 0 0)
(1.5467969 0 0)
(1.5425897 0 0)
(1.5380288 0 0)
(1.5330793 0 0)
(1.527699 0 0)
(1.5218446 0 0)
(1.5154706 0 0)
(1.5085262 0 0)
(1.5009592 0 0)
(1.4927185 0 0)
(1.4837504 0 0)
(1.4739995 0 0)
(1.4634141 0 0)
(1.451943 0 0)
(1.4395284 0 0)
(1.4261091 0 0)
(1.4116256 0 0)
(1.3960137 0 0)
(1.3791974 0 0)
(1.3610983 0 0)
(1.3416437 0 0)
(1.3207531 0 0)
(1.2983243 0 0)
(1.2742548 0 0)
(1.24846 0 0)
(1.2208495 0 0)
(1.1912955 0 0)
(1.1596305 0 0)
(1.1257067 0 0)
(1.0894067 0 0)
(1.0505707 0 0)
(1.0089709 0 0)
(0.96442139 0 0)
(0.91677889 0 0)
(0.86581591 0 0)
(0.81119795 0 0)
(0.75267201 0 0)
(0.69005453 0 0)
(0.62305033 0 0)
(0.55130663 0 0)
(0.47449304 0 0)
(0.39226081 0 0)
(0.30415437 0 0)
(0.20965823 0 0)
(0.1083053 0 0)
(0 0 0)
(1.5606008 0 0)
(1.5577248 0 0)
(1.5545697 0 0)
(1.5511171 0 0)
(1.5473515 0 0)
(1.5432556 0 0)
(1.5388058 0 0)
(1.5339661 0 0)
(1.5286958 0 0)
(1.5229547 0 0)
(1.5166964 0 0)
(1.5098679 0 0)
(1.5024154 0 0)
(1.4942889 0 0)
(1.4854352 0 0)
(1.4757977 0 0)
(1.4653243 0 0)
(1.4539626 0 0)
(1.4416531 0 0)
(1.4283348 0 0)
(1.4139487 0 0)
(1.3984289 0 0)
(1.3816981 0 0)
(1.3636781 0 0)
(1.3442969 0 0)
(1.323473 0 0)
(1.3011028 0 0)
(1.2770833 0 0)
(1.2513304 0 0)
(1.2237529 0 0)
(1.1942215 0 0)
(1.1625671 0 0)
(1.1286425 0 0)
(1.0923308 0 0)
(1.0534702 0 0)
(1.0118295 0 0)
(0.96722283 0 0)
(0.91950795 0 0)
(0.86845523 0 0)
(0.8137265 0 0)
(0.75506982 0 0)
(0.69230338 0 0)
(0.62512673 0 0)
(0.55318084 0 0)
(0.4761364 0 0)