/*--------------------------------*- C++ -*----------------------------------*\
| =========                 |                                                 |
| \\      /  F ield         | OpenFOAM: The Open Source CFD Toolbox           |
|  \\    /   O peration     | Version:  v2012                                 |
|   \\  /    A nd           | Website:  www.openfoam.com                      |
|    \\/     M anipulation  |                                                 |
\*---------------------------------------------------------------------------*/
FoamFile
{
    version     2.0;
    format      ascii;
    class       surfaceVectorField;
    location    "74.7654651827956371";
    object      Uf;
}
// * * * * * * * * * * * * * * * * * * * * * * * * * * * * * * * * * * * * * //

dimensions      [0 1 -1 0 0 0 0];


internalField   nonuniform List<vector> 
18180
(
(2.6668457 0.0025021995 1.1528818e-22)
(2.664328 0.0012205129 5.0243085e-23)
(2.668461 0.00519427 1.3561964e-23)
(2.6652317 0.0039593927 1.7790464e-22)
(2.663269 0.0027855631 1.1737644e-22)
(2.6621237 0.0012134646 1.3143488e-22)
(2.670973 0.0081959068 1.6983804e-22)
(2.6668223 0.0069690201 -1.6407562e-22)
(2.6642533 0.0058021857 -1.0811111e-23)
(2.6626797 0.0039399797 -5.7749931e-23)
(2.6613601 0.0024903653 -4.1993318e-23)
(2.660219 0.0010436838 7.0181754e-23)
(2.6743728 0.011751626 -1.5012468e-22)
(2.6691015 0.010358039 1.9357501e-22)
(2.6657624 0.009216728 -1.2325359e-22)
(2.6637349 0.0069683245 -2.2926395e-22)
(2.6619722 0.0051870172 -2.7252536e-22)
(2.6604753 0.003336085 2.6157621e-23)
(2.6594056 0.0020001297 1.3412783e-22)
(2.6587404 0.00077702857 3.88779e-24)
(2.6786466 0.016031741 -4.5388146e-22)
(2.6719448 0.014619966 -6.5762565e-22)
(2.6676886 0.013331516 -3.393246e-22)
(2.6651255 0.010415931 -1.3128109e-22)
(2.6628704 0.0082768245 -2.2313581e-22)
(2.6610358 0.0059710413 5.2779247e-23)
(2.6596301 0.0041923814 3.4191934e-22)
(2.6587437 0.0024309944 1.983128e-22)
(2.6580844 0.0012955341 7.5595451e-23)
(2.6578148 0.00043601296 7.8268397e-24)
(2.6838359 0.021214918 4.4135266e-22)
(2.675406 0.019668581 5.6256762e-22)
(2.669981 0.018358588 3.8552879e-22)
(2.666754 0.014795939 2.2098739e-22)
(2.6639017 0.012028518 4.3631503e-22)
(2.6616238 0.0089496151 8.2654122e-23)
(2.6598962 0.0067372198 3.498494e-22)
(2.6588887 0.0044627131 2.0963361e-22)
(2.6580158 0.0027635926 7.1969305e-23)
(2.6576239 0.0012924388 -2.1290367e-23)
(2.6573628 0.00048989986 -8.730287e-23)
(2.6574766 8.7022662e-05 -1.0505508e-22)
(2.6899863 0.027497237 5.1961589e-22)
(2.6793967 0.025953237 2.3393295e-22)
(2.6725698 0.024542883 3.4569475e-22)
(2.6685825 0.02003534 1.2750657e-22)
(2.6649816 0.016632176 -3.3118431e-23)
(2.6621626 0.012803425 1.7645502e-22)
(2.6600136 0.0098634798 -1.6388399e-22)
(2.6588063 0.0067120908 -7.9386371e-23)
(2.6578081 0.0045120558 -2.1875962e-22)
(2.6574652 0.0025518991 -4.2321454e-23)
(2.6570867 0.0011250508 -1.3281052e-22)
(2.6571571 5.6686633e-05 -4.8683833e-23)
(2.6572666 -0.00032711936 -6.4881105e-23)
(2.6576952 -0.00018929835 8.9300675e-24)
(2.697186 0.035077989 7.8105502e-22)
(2.6839557 0.033534456 -2.8987965e-22)
(2.6753735 0.032130039 -6.0378395e-22)
(2.6704514 0.026586806 -1.5558879e-21)
(2.6659763 0.022301009 -1.7946069e-21)
(2.6625415 0.017407226 -1.2155778e-21)
(2.6598775 0.013726295 -1.0394446e-21)
(2.6584436 0.0097361871 -2.2019833e-22)
(2.6572425 0.006711396 -1.4082468e-22)
(2.656895 0.0038603892 -1.7399369e-22)
(2.6565571 0.001947139 -5.6949254e-24)
(2.6568218 0.00047305236 -4.8841136e-23)
(2.6568858 -0.00056775061 3.2678994e-23)
(2.6573314 -0.001170654 2.188573e-23)
(2.6577484 -0.0010626492 9.344025e-23)
(2.658381 -0.000390544 4.3331033e-22)
(2.7055303 0.044187933 1.6550793e-21)
(2.6890426 0.042764975 9.9875725e-22)
(2.6783118 0.041392083 -3.5108197e-24)
(2.6722869 0.034516071 -2.6169951e-24)
(2.6667335 0.029228359 -8.9746195e-22)
(2.6625633 0.023172394 -1.5879342e-21)
(2.659313 0.018490839 -1.0425205e-21)
(2.6576407 0.013337818 -5.0722053e-22)
(2.6562084 0.0094818298 2.8002402e-22)
(2.6558725 0.0058173912 1.6771291e-22)
(2.6555236 0.0030685924 1.4116348e-22)
(2.6559595 0.00074035711 -8.2561569e-24)
(2.6562046 -0.0007130187 -4.9141855e-23)
(2.6569389 -0.0015864712 -2.5219755e-24)
(2.6573728 -0.0021753325 -1.33529e-23)
(2.6581015 -0.0022853663 -1.9268644e-23)
(2.6587193 -0.0016973784 3.0168371e-22)
(2.6594398 -0.00056858898 2.6452771e-22)
(2.7151404 0.055076481 1.5626699e-21)
(2.6946594 0.053862899 1.1328681e-21)
(2.6812679 0.052628064 5.3719697e-22)
(2.673916 0.044159818 8.8850398e-23)
(2.6670791 0.03761254 5.0011931e-23)
(2.6620854 0.030093991 1.2453271e-21)
(2.6581361 0.024283699 6.1993615e-22)
(2.6561968 0.017884876 -5.5667694e-22)
(2.6545203 0.012932443 -4.2326566e-23)
(2.6542203 0.0081451715 2.2953424e-22)
(2.6538743 0.0045857259 1.2198101e-22)
(2.6545215 0.0015214544 1.2877537e-22)
(2.6549218 -0.00072940517 -1.3411796e-23)
(2.6559849 -0.0023739828 1.270126e-23)
(2.6566876 -0.0032657893 5.8012322e-23)
(2.6577494 -0.0034631517 -4.7213454e-24)
(2.6584595 -0.0035714034 -9.1881069e-24)
(2.6593535 -0.0031956654 9.877537e-23)
(2.6600601 -0.0021996836 6.1473381e-23)
(2.6607659 -0.00071520103 -2.8993321e-22)
(2.7261473 0.068022751 -5.3054816e-23)
(2.7007763 0.067168377 1.0906322e-21)
(2.6841051 0.066175409 6.7447538e-22)
(2.6751696 0.055715584 -7.8261765e-22)
(2.6667834 0.047645818 -1.2691154e-21)
(2.6608706 0.038407443 6.9124103e-25)
(2.6561399 0.031206165 1.1358127e-21)
(2.6539562 0.023292789 1.2940382e-21)
(2.6520087 0.017128387 1.8485195e-22)
(2.6517534 0.011184318 -3.7264003e-22)
(2.6514335 0.006567388 -1.2066409e-22)
(2.6523355 0.0024678702 1.4227039e-22)
(2.6529314 -0.00051250121 1.4905974e-22)
(2.6543518 -0.0027889706 7.8286932e-24)
(2.6553623 -0.0043895945 3.2989385e-23)
(2.6568831 -0.0052444737 9.2697399e-23)
(2.6579057 -0.0055138124 3.4601109e-23)
(2.6591398 -0.0050286882 2.6219902e-24)
(2.6600126 -0.0046610512 1.0522484e-22)
(2.6609415 -0.0038393038 1.3417698e-22)
(2.6616393 -0.0025252751 -1.9832036e-22)
(2.6622372 -0.00079678811 -3.7740783e-22)
(2.7386875 0.083327683 -1.3252141e-22)
(2.7073614 0.083014008 1.9381248e-21)
(2.686644 0.082415406 3.01338e-21)
(2.6758086 0.069482895 -1.3791651e-21)
(2.6655671 0.059521696 -2.725349e-21)
(2.6586689 0.048172583 -1.8450709e-21)
(2.6530684 0.039317039 -6.5442227e-22)
(2.6506931 0.029693515 8.9337034e-22)
(2.6484984 0.022084148 1.0397411e-21)
(2.6483495 0.014789386 -9.7004684e-23)
(2.6480687 0.0090459194 -6.3419216e-22)
(2.649235 0.0039160291 1.0643221e-23)
(2.6500681 -4.9789857e-05 2.6264975e-22)
(2.651933 -0.00323752 1.4669831e-22)
(2.6532744 -0.0054723795 1.3103389e-23)
(2.6552842 -0.0068116946 -1.0812059e-22)
(2.656738 -0.0076669567 -5.3691983e-23)
(2.6585352 -0.0076885158 -6.647441e-23)
(2.6597305 -0.0073209689 -9.962691e-23)
(2.6609769 -0.0061915307 5.2913934e-23)
(2.6618892 -0.0053863215 8.094231e-23)
(2.6627247 -0.004184731 -6.0752168e-23)
(2.6633254 -0.0026525669 -2.289937e-22)
(2.6637306 -0.0008007138 -3.4573911e-22)
(2.7528856 0.10131144 4.1724925e-21)
(2.7143536 0.10178706 -8.1331098e-22)
(2.6886633 0.1017788 1.0446408e-21)
(2.6755465 0.085746041 1.8631677e-21)
(2.6630754 0.07343411 -2.2627515e-21)
(2.6551513 0.059502817 1.5293063e-22)
(2.6486218 0.048628042 1.0309881e-21)
(2.6461846 0.037006454 -1.3885516e-21)
(2.6437981 0.027746909 7.0238498e-23)
(2.6438485 0.019028428 1.1028898e-21)
(2.6436704 0.011997677 2.1919275e-23)
(2.6451453 0.0056989893 -4.7354068e-22)
(2.646223 0.00072568625 1.4185133e-22)
(2.648502 -0.0033745256 5.2909001e-24)
(2.650256 -0.0064765194 -1.073135e-22)
(2.6528671 -0.0086137016 8.7251726e-23)
(2.654779 -0.0099802139 -2.5771476e-23)
(2.6571873 -0.010324013 -1.6394386e-22)
(2.6589141 -0.010388974 -1.7788934e-22)
(2.6608042 -0.0095774698 -9.7173252e-23)
(2.6620205 -0.0086017051 4.908799e-23)
(2.6631209 -0.0068972738 3.0045981e-23)
(2.6639499 -0.0057185756 -1.054156e-22)
(2.6645705 -0.0042234066 -2.4257574e-22)
(2.6649914 -0.0025823768 -3.5372464e-22)
(2.6651356 -0.00072904707 3.1637292e-22)
(2.7689491 0.12230048 -2.9485737e-21)
(2.7216593 0.12390225 -3.4885039e-21)
(2.689888 0.12474526 -8.406277e-21)
(2.6740243 0.10483224 -6.6184522e-21)
(2.6588728 0.08958087 -6.0304834e-21)
(2.649925 0.072445472 -8.2616054e-22)
(2.6424334 0.059095705 1.4934382e-21)
(2.6401543 0.045159893 1.1436082e-21)
(2.6377082 0.033981174 -1.1539194e-21)
(2.6381349 0.023735167 -1.0938247e-22)
(2.6381574 0.015330379 8.6898657e-22)
(2.6399845 0.0078831798 4.9844131e-22)
(2.6413559 0.0017994682 3.2690508e-23)
(2.6440536 -0.0033368508 -9.0483623e-23)
(2.6461954 -0.007332932 -2.2109608e-22)
(2.6493676 -0.010296327 -4.0518217e-22)
(2.651841 -0.012408743 -2.2428911e-22)
(2.6550101 -0.013410201 -9.0456411e-23)
(2.6573122 -0.013839024 -2.2383581e-22)
(2.6599197 -0.013163502 -9.0999722e-23)
(2.6617461 -0.012436151 -1.2889449e-23)
(2.6635401 -0.010828326 -1.2803522e-22)
(2.6646267 -0.0093049951 -1.4728769e-22)
(2.6654298 -0.0071191326 -1.6418195e-22)
(2.6660596 -0.0056495995 -2.9545816e-22)
(2.666354 -0.0039614063 2.4496096e-22)
(2.6665241 -0.0023227338 8.9133667e-22)
(2.6663566 -0.00058640283 4.7692796e-22)
(2.7873569 0.14661499 -1.2014676e-20)
(2.7293577 0.14979488 -7.6288824e-21)
(2.6901015 0.15183701 -8.2190601e-21)
(2.6708128 0.12709078 -4.5649512e-21)
(2.6524281 0.10816433 -2.8603874e-21)
(2.6425099 0.087032564 -5.589559e-21)
(2.6340674 0.070615643 -6.3599414e-22)
(2.6322898 0.053966788 2.7994056e-22)
(2.6300051 0.040558295 -7.253256e-23)
(2.6310839 0.028730446 -1.1425707e-21)
(2.6314894 0.018858674 -1.4975535e-22)
(2.6337677 0.010303818 5.4310351e-22)
(2.6354845 0.0031150583 1.88095e-22)
(2.6385514 -0.0030138963 5.0168909e-23)
(2.6410861 -0.0079911812 -6.486262e-23)
(2.6447846 -0.01193226 -9.443939e-22)
(2.6477797 -0.014853723 -1.1311469e-21)
(2.6516832 -0.016596295 3.1102946e-22)
(2.654698 -0.017638467 4.4597192e-22)
(2.6582329 -0.017442666 -2.9674639e-22)
(2.660738 -0.016904906 -1.704098e-22)
(2.6633322 -0.015215793 -8.5860452e-23)
(2.6650794 -0.013728705 -1.9299435e-22)
(2.6665862 -0.011392931 -2.1742561e-22)
(2.6673987 -0.0094059705 -2.3653526e-22)
(2.6677644 -0.0068510398 -2.7029711e-22)
(2.6680887 -0.0051869555 2.4357808e-22)
(2.6679623 -0.0034145704 8.5535751e-22)
(2.6678374 -0.0018804947 4.6140459e-22)
(2.6673117 -0.00035359175 -2.0420399e-22)
(2.8075418 0.17460004 -8.0634314e-21)
(2.7377923 0.17992519 -5.1012924e-21)
(2.6892636 0.183639 -8.1912224e-22)
(2.6655611 0.15288911 1.0795237e-20)
(2.6431557 0.12939458 1.4476958e-20)
(2.6323345 0.10325669 6.6454393e-21)
(2.6230081 0.083016733 4.2089651e-21)
(2.6222261 0.063169511 -3.6829962e-22)
(2.6204443 0.047147946 5.0036695e-22)
(2.6225871 0.03369576 -4.5795672e-22)
(2.6236568 0.02229664 -1.4811805e-21)
(2.6265455 0.012787337 -1.6466341e-21)
(2.6287169 0.0045412018 -1.0080988e-21)
(2.6321091 -0.0024869526 4.4873492e-22)
(2.6349953 -0.0084141339 3.245064e-22)
(2.639083 -0.013344551 -7.204212e-22)
(2.6425649 -0.01719135 -1.5670924e-21)
(2.6471634 -0.019892507 -6.9240577e-22)
(2.6508615 -0.021664681 6.8508618e-22)
(2.6553422 -0.022093277 4.5700731e-22)
(2.6587195 -0.022005682 -2.4664371e-22)
(2.6624022 -0.020567733 -1.693609e-22)
(2.6649102 -0.019065114 -8.9076943e-23)
(2.6672633 -0.016400338 4.5737217e-23)
(2.66875 -0.014215755 2.2385571e-23)
(2.6697823 -0.011249528 -3.4722559e-22)
(2.6701872 -0.0089005568 -3.8109762e-22)
(2.6699921 -0.0061026223 3.1033171e-22)
(2.6699178 -0.0043514124 8.9435396e-22)
(2.6693016 -0.0026097021 1.6986094e-22)
(2.6688496 -0.0012553854 -4.678896e-22)
(2.6679275 1.0779599e-05 -1.0329318e-21)
(2.8249929 0.20665764 -5.638773e-21)
(2.7448598 0.21485236 -3.9577914e-21)
(2.6861674 0.22082366 -1.0748759e-21)
(2.6580576 0.18269002 -8.6032681e-21)
(2.6305 0.15354437 2.2061739e-21)
(2.6187797 0.12107663 1.3068315e-20)
(2.608664 0.096055078 5.5840151e-21)
(2.6095501 0.072415268 3.6477353e-21)
(2.6087575 0.053315308 -7.2800313e-22)
(2.6125377 0.038218882 2.8929754e-22)
(2.6146865 0.025249164 -6.248973e-22)
(2.6184407 0.015027681 -8.1669426e-22)
(2.6212396 0.005865702 -9.4820753e-22)
(2.6249103 -0.001825071 -1.0988251e-21)
(2.6281151 -0.0086019026 2.8643847e-22)
(2.6324082 -0.014482072 2.918546e-22)
(2.636246 -0.019272984 -7.0227133e-22)
(2.6413638 -0.023055245 -1.4702752e-21)
(2.6457018 -0.025738375 -6.3758331e-22)
(2.6511315 -0.027084405 1.2283628e-21)
(2.6553928 -0.027619902 1.0218693e-21)
(2.6602551 -0.026625643 -1.5725979e-21)
(2.663792 -0.025363129 -1.5211359e-21)
(2.6673665 -0.022663976 -1.2894651e-22)
(2.6696626 -0.02022784 -1.1743033e-24)
(2.6715363 -0.016661749 2.2053508e-22)
(2.6725841 -0.013869263 -1.2741607e-22)
(2.6729681 -0.01039752 -5.0059768e-22)
(2.6728469 -0.0078013298 1.5596255e-22)
(2.6719887 -0.0048949246 2.9240758e-22)
(2.6714489 -0.0031702641 -4.0624493e-22)
(2.6703028 -0.001574877 -1.7962011e-22)
(2.6694571 -0.00045260289 -7.118169e-22)
(2.6681415 0.00043714276 -1.676446e-21)
(2.8329596 0.24323651 -4.5676359e-21)
(2.7429984 0.2548647 -5.3225256e-21)
(2.6756175 0.26381537 -3.719675e-21)
(2.6463159 0.21706794 -5.6468266e-21)
(2.6133253 0.18097985 -1.2878848e-20)
(2.6012517 0.14049764 -1.4492791e-20)
(2.5904081 0.10943501 -4.4616651e-21)
(2.5938022 0.081270008 1.72289e-21)
(2.5946551 0.058520999 -1.9086069e-22)
(2.6008393 0.041776295 1.1166197e-21)
(2.6046394 0.027213099 2.1137575e-21)
(2.6096292 0.016633352 -9.2995358e-22)
(2.6133285 0.0067872904 -1.1033923e-21)
(2.6172547 -0.0011934631 -4.1123137e-22)
(2.6207467 -0.0085942025 -5.4555879e-22)
(2.6249886 -0.015252401 3.4523464e-22)
(2.6290082 -0.020936611 3.5000896e-22)
(2.6343798 -0.025897744 -5.5603833e-22)
(2.6391847 -0.029615092 -1.2833954e-21)
(2.6454151 -0.032133832 -3.4711545e-23)
(2.6505549 -0.033549558 1.7487642e-21)
(2.6566885 -0.033350343 1.1409819e-21)
(2.6613347 -0.032543889 -1.3209363e-21)
(2.6663127 -0.030023664 9.6012479e-22)
(2.6697693 -0.027563462 2.3254396e-21)
(2.6729439 -0.023624805 9.1123911e-22)
(2.6748022 -0.020320036 1.1366902e-21)
(2.6759593 -0.015967223 4.9740268e-22)
(2.6764019 -0.01268201 1.5297444e-22)
(2.6759866 -0.0088547101 -3.4663912e-22)
(2.6752409 -0.0061362608 -2.2513049e-22)
(2.6736435 -0.0032625704 -4.2984504e-22)
(2.6726045 -0.0016676437 -2.1812783e-22)
(2.6709141 -0.00032333821 -4.7050139e-22)
(2.6696898 0.0004535487 -1.383074e-21)
(2.6679331 0.00086279159 -3.3758595e-22)
(2.8275153 0.28455159 8.2413111e-22)
(2.7260449 0.29980507 -8.6140996e-22)
(2.6507824 0.31239855 -1.6314545e-21)
(2.623954 0.25582867 6.6685987e-21)
(2.5881518 0.21164622 5.0096283e-21)
(2.5784459 0.16152865 -6.0887115e-21)
(2.5674897 0.12283779 -7.510208e-21)
(2.5745272 0.089229235 -3.6878505e-22)
(2.5778379 0.062130699 5.5766065e-21)
(2.5874007 0.043756112 2.8333907e-22)
(2.5936087 0.027585442 1.5337018e-21)
(2.6003466 0.017110683 2.0062074e-21)
(2.6053407 0.0069142965 -9.0723335e-22)
(2.6095394 -0.00081300933 -1.8653171e-22)
(2.6133154 -0.0084798339 4.8622485e-22)
(2.6171948 -0.0156038 -1.0667903e-21)
(2.6211552 -0.022014474 -2.2967549e-22)
(2.6263903 -0.028161179 -1.5356226e-22)
(2.6314025 -0.032992778 -1.0226972e-21)
(2.638174 -0.036953457 -4.9454141e-22)
(2.644041 -0.0394981 7.047615e-22)
(2.6513884 -0.040467799 -1.7110706e-23)
(2.6572214 -0.040436317 -6.233207e-22)
(2.6638156 -0.038468941 2.3142458e-22)
(2.6686003 -0.036217433 2.423899e-21)
(2.6733531 -0.032106775 3.124964e-21)
(2.6764542 -0.028462789 1.794344e-21)
(2.6789158 -0.023361677 2.013893e-21)
(2.6801102 -0.01929108 1.4207467e-21)
(2.6803298 -0.014308636 1.4964641e-21)
(2.6800225 -0.010669159 1.0435335e-21)
(2.6786889 -0.006656872 -6.8555143e-23)
(2.6772454 -0.0039510087 -2.676283e-22)
(2.6748693 -0.0012559495 4.8147495e-23)
(2.6733127 7.8985267e-05 -1.8815383e-22)
(2.6710919 0.0011172587 5.9117329e-23)
(2.6694571 0.001437111 1.0754759e-21)
(2.6672963 0.0013299627 4.8341507e-22)
(2.8049809 0.32962849 -2.8550272e-21)
(2.6953916 0.34984804 1.7230315e-22)
(2.6109149 0.36599685 -1.5468375e-21)
(2.5856461 0.29766686 -1.2175673e-20)
(2.5499971 0.24424931 -4.2840383e-21)
(2.5468296 0.18343826 1.0600253e-20)
(2.5385058 0.13562943 1.7459326e-22)
(2.5512128 0.095743608 -1.3089371e-21)
(2.5580626 0.063447238 5.5664445e-21)
(2.5721473 0.043423909 7.0912873e-21)
(2.5817087 0.025678454 2.050076e-21)
(2.5908748 0.015876931 2.6111577e-22)
(2.5977066 0.0057719702 6.7129535e-22)
(2.6022582 -0.00098123416 -9.2583872e-22)
(2.6063565 -0.0083966801 -2.3191606e-22)
(2.6095139 -0.01550281 1.5394052e-21)
(2.6131238 -0.022338043 8.2280493e-23)
(2.617715 -0.029570731 2.1609384e-22)
(2.6225555 -0.035518205 2.9568846e-22)
(2.6294556 -0.041157881 -2.0424771e-21)
(2.63579 -0.04507803 -1.5502395e-21)
(2.6441836 -0.047645451 1.6818896e-21)
(2.6511366 -0.048750172 1.0119151e-21)
(2.6594277 -0.047787515 -5.6340787e-22)
(2.6657334 -0.046092098 2.4965747e-22)
(2.672413 -0.042159719 -1.2747794e-21)
(2.6770166 -0.038393403 -6.6874274e-22)
(2.6811452 -0.032697657 -9.0083433e-22)
(2.6835934 -0.027934952 -7.359279e-22)
(2.6850297 -0.021813727 1.2797807e-21)
(2.6853483 -0.017120673 1.3494353e-21)
(2.6844425 -0.011706741 2.0130648e-21)
(2.6832703 -0.007871663 9.6836617e-22)
(2.6809393 -0.0038586188 2.4761542e-23)
(2.678752 -0.0013074966 3.2868986e-22)
(2.6755811 0.0010649654 2.131063e-22)
(2.6735169 0.0021208615 4.5445651e-22)
(2.6707618 0.0026913914 1.9633041e-21)
(2.6687389 0.0025122692 1.4150547e-21)
(2.6662213 0.0018258206 7.9428084e-22)
(2.7590852 0.37575596 -1.669613e-21)
(2.6510234 0.40277897 -6.1044727e-21)
(2.5605235 0.42311398 -3.2807573e-21)
(2.5354439 0.34182826 -3.9174053e-21)
(2.4985994 0.27701424 -1.3894437e-20)
(2.502809 0.20417611 -7.9210368e-21)
(2.5013469 0.14623905 6.2433437e-21)
(2.5227455 0.099897428 -1.263436e-20)
(2.5350538 0.061647924 -1.4268999e-20)
(2.5551452 0.040096905 1.8483842e-21)
(2.5691616 0.020757863 3.2031049e-21)
(2.5815125 0.012265413 1.6653143e-21)
(2.5909056 0.0028166961 -4.1092823e-23)
(2.5959815 -0.0020700106 4.2996121e-22)
(2.6005069 -0.0085250367 -1.0829539e-21)
(2.602542 -0.014948921 -3.2279783e-22)
(2.6054659 -0.021741633 1.3588415e-21)
(2.6087885 -0.029834268 1.4498154e-22)
(2.6129663 -0.036795092 2.7315463e-22)
(2.6194319 -0.044298885 -8.3313135e-22)
(2.6258252 -0.049815526 -3.0665885e-21)
(2.63494 -0.054438915 -1.6844472e-21)
(2.6428382 -0.05708276 1.3976823e-21)
(2.6528164 -0.057666745 1.4293473e-21)
(2.6607079 -0.056962889 -6.0581335e-23)
(2.6695591 -0.053684154 1.2449662e-21)
(2.6759886 -0.050127729 -1.8721724e-22)
(2.6822652 -0.044114842 -1.6646548e-21)
(2.6863102 -0.038827843 -1.9012954e-21)
(2.6893878 -0.031645031 -2.6327903e-21)
(2.6908845 -0.025890212 -7.4850902e-22)
(2.6910094 -0.018959919 3.2774051e-22)
(2.6902712 -0.013827445 9.33464e-22)
(2.6880994 -0.0082141392 -4.2065348e-23)
(2.6859835 -0.0043565293 -9.5476515e-22)
(2.6826198 -0.00053257467 -6.4782856e-22)
(2.6796856 0.0017308234 -7.7332918e-22)
(2.6757621 0.0036399358 -4.3903406e-22)
(2.6731886 0.0043010054 9.7849236e-22)
(2.669937 0.0043541982 4.5277968e-22)
(2.6675661 0.0036281696 -1.5264583e-22)
(2.664722 0.0023233015 -3.5075276e-22)
(2.6924416 0.41935042 1.8635933e-20)
(2.5906077 0.45331859 3.4146356e-22)
(2.5029719 0.48001349 -3.8405323e-21)
(2.480679 0.3868404 9.6054513e-22)
(2.4410226 0.30920847 5.857245e-22)
(2.4484563 0.22196682 -5.8278448e-21)
(2.4550659 0.15242105 1.0514883e-22)
(2.4879394 0.099991293 2.4973755e-21)
(2.5085582 0.055671405 -1.5489299e-20)
(2.5362246 0.032901762 -1.2395175e-20)
(2.5561295 0.01210856 2.9531292e-21)
(2.5726294 0.0057123089 1.3538751e-21)
(2.5854147 -0.0025543255 -1.3787058e-22)
(2.5913336 -0.0044356504 -9.204228e-22)
(2.5964875 -0.0090876532 -4.65653e-22)
(2.5969755 -0.013971336 -3.5025751e-22)
(2.5988407 -0.020063566 3.8278955e-22)
(2.6001499 -0.028646667 1.6457966e-21)
(2.6030631 -0.036392684 4.97065e-22)
(2.6083738 -0.045881013 -1.4134198e-21)
(2.614271 -0.053162438 -2.4729314e-21)
(2.6236237 -0.060305794 -1.8212819e-21)
(2.6321388 -0.064921623 -4.7532146e-22)
(2.6436495 -0.067679196 1.0159009e-21)
(2.653102 -0.068482306 1.030444e-21)
(2.6643121 -0.066448462 -2.9224909e-21)
(2.6727901 -0.063559694 -1.7285265e-21)
(2.6816286 -0.057669286 1.3613769e-21)
(2.687722 -0.052128237 -1.1593613e-23)
(2.6930336 -0.0440422 -2.8061034e-22)
(2.6961136 -0.037315432 -9.4932633e-22)
(2.6977226 -0.028848327 -2.2677374e-21)
(2.6979928 -0.022293724 -1.2658333e-21)
(2.6965711 -0.014829508 9.0443434e-22)
(2.6946397 -0.0094744718 -1.4523955e-23)
(2.6911213 -0.0039164596 -1.3612702e-21)
(2.6880262 -0.00022082298 -1.0762318e-21)
(2.6836444 0.0032275931 -2.5564516e-23)
(2.6799909 0.0050744737 3.0007503e-22)
(2.6753659 0.0064035566 -2.6811154e-22)
(2.6723166 0.0065898908 -7.866867e-22)
(2.6686215 0.0060733176 -7.0408361e-22)
(2.665939 0.004769469 -9.0096256e-22)
(2.6628184 0.0028221146 -1.016648e-21)
(2.6143077 0.45877145 1.5364275e-20)
(2.5212677 0.49876609 1.4057321e-20)
(2.4406129 0.53206147 -3.4067077e-21)
(2.4240224 0.42954395 -1.829524e-21)
(2.3841768 0.34029864 2.9172211e-21)
(2.3909019 0.23665025 4.0070184e-21)
(2.402134 0.15316001 -2.0785279e-21)
(2.4468464 0.094259637 5.2852752e-21)
(2.4783711 0.044095857 7.6604198e-21)
(2.5156309 0.020793142 -4.6623639e-21)
(2.5428989 -0.0011315634 -1.5438768e-21)
(2.5647497 -0.004554537 1.5921214e-21)
(2.5819058 -0.010736591 9.8820602e-23)
(2.5885543 -0.0085820101 7.2557434e-22)
(2.594664 -0.01035038 1.6175415e-23)
(2.5935931 -0.012548287 -1.1663975e-21)
(2.5939999 -0.017146899 -1.0681797e-21)
(2.5924337 -0.02569183 -2.7033203e-22)
(2.593368 -0.033859399 9.1913872e-22)
(2.5966482 -0.045363717 -7.4408987e-22)
(2.6013397 -0.054512632 -2.5617087e-21)
(2.6102801 -0.064635983 -1.7858197e-21)
(2.6189293 -0.071660059 -1.1555002e-21)
(2.6316692 -0.077272584 2.2824587e-21)
(2.6425168 -0.080177614 3.7443639e-21)
(2.6561527 -0.08011366 1.8029675e-21)
(2.666843 -0.078459789 -1.9400849e-21)
(2.6786437 -0.073262784 -3.0171557e-21)
(2.6871712 -0.067891158 -1.0229592e-22)
(2.6952855 -0.05924729 2.645245e-22)
(2.7005096 -0.051712337 1.3419742e-23)
(2.7042714 -0.0417089 -1.7479377e-21)
(2.7059858 -0.033722753 -3.0105345e-21)
(2.7057567 -0.024279497 -1.0946438e-21)
(2.7045733 -0.017179861 9.775191e-22)
(2.7014423 -0.0095075647 -5.5909845e-22)
(2.6982357 -0.0041706974 -1.8396775e-21)
(2.6933561 0.0010670089 1.5505778e-21)
(2.6892952 0.0044210501 2.5927187e-21)
(2.6839511 0.0073145825 1.2942314e-21)
(2.6796279 0.0086329169 7.7143935e-22)
(2.6743819 0.0092841203 -1.123951e-21)
(2.6709076 0.0089370991 -1.0515169e-21)
(2.6668359 0.0078109792 2.6811714e-21)
(2.6638867 0.0059102566 2.6283545e-21)
(2.6605402 0.0033127496 1.2887712e-21)
(2.5300919 0.49325974 -2.6066909e-20)
(2.4480466 0.53827509 4.7993314e-21)
(2.3761675 0.577279 3.3827101e-21)
(2.3665429 0.46765607 -5.8238224e-21)
(2.330031 0.36906309 -4.3647849e-21)
(2.3352566 0.24867883 -2.3684956e-21)
(2.3476818 0.14931141 -1.5299234e-21)
(2.4020559 0.082321949 -4.0886793e-21)
(2.4447586 0.025814229 2.8770833e-21)
(2.4934494 0.0027864107 8.7014326e-21)
(2.5298784 -0.019636029 -3.0181938e-21)
(2.5581799 -0.019310545 -5.0781647e-21)
(2.5809392 -0.022655476 -2.0409668e-21)
(2.5894883 -0.014913762 -2.625069e-22)
(2.5965389 -0.012724324 3.2718588e-22)
(2.5930139 -0.010974753 2.2192538e-22)
(2.5919421 -0.012834529 -9.0108472e-22)
(2.5863428 -0.020651116 -4.7079923e-22)
(2.5844732 -0.028727623 2.9704649e-22)
(2.5846981 -0.042182989 1.9327252e-21)
(2.5873199 -0.053221706 3.6885098e-22)
(2.5950373 -0.066757781 -3.3066146e-21)
(2.6031741 -0.076620493 -2.5815097e-21)
(2.6166797 -0.085812965 -4.6578747e-23)
(2.6286118 -0.091466176 3.2463104e-21)
(2.6446075 -0.094192348 2.4931885e-21)
(2.657556 -0.09446297 6.2845927e-22)
(2.6726334 -0.09070834 5.8008654e-21)
(2.6839635 -0.086058998 4.8981362e-21)
(2.6954898 -0.077336427 2.6411043e-21)
(2.7033941 -0.06932647 3.033923e-21)
(2.709998 -0.057984188 -4.3694605e-22)
(2.7137938 -0.048586004 -2.1251194e-21)
(2.7154518 -0.036979632 -3.0617845e-21)
(2.7154442 -0.028015921 -1.2425758e-21)
(2.7130902 -0.017997502 -6.8187668e-23)
(2.710293 -0.010658815 -1.5376871e-21)
(2.7053809 -0.0031360316 -2.3412158e-21)
(2.7008811 0.0019183702 8.8029279e-22)
(2.6946982 0.0065891925 2.7911322e-21)
(2.6897182 0.0094371414 1.558362e-21)
(2.6835077 0.011616165 -1.5251226e-21)
(2.6785906 0.012311329 -3.3638632e-21)
(2.6728229 0.012210873 -3.3833947e-21)
(2.6689867 0.01128807 1.2515913e-22)
(2.6646123 0.0095286972 1.1188737e-21)
(2.6614448 0.0070255256 -1.7759751e-22)
(2.6579249 0.003783439 6.8519964e-21)
(2.4446357 0.5221688 -3.4106232e-20)
(2.3749965 0.57100966 -3.0378166e-20)
(2.3131299 0.6147818 -1.0519439e-21)
(2.3108515 0.49980764 -1.0101954e-20)
(2.2800391 0.39411136 -1.8950978e-20)
(2.2839475 0.25778891 3.9882814e-21)
(2.2967738 0.14199931 5.9165781e-21)
(2.3575752 0.065271812 -1.4211908e-21)
(2.4093237 0.00080655577 -3.856827e-21)
(2.4701036 -0.021808799 -7.520079e-21)
(2.5172074 -0.044041528 -2.1791772e-21)
(2.5533814 -0.039037594 -5.5744266e-21)
(2.5829861 -0.038753826 -7.4102607e-21)
(2.5938518 -0.023841693 2.1563583e-21)
(2.6030382 -0.016210427 3.9490941e-21)
(2.5964371 -0.0091400675 4.4046956e-23)
(2.5930704 -0.0072450624 -6.3055563e-23)
(2.582909 -0.013275337 -1.1424284e-21)
(2.5771597 -0.020514875 -7.3749369e-22)
(2.5730087 -0.035787812 2.750299e-21)
(2.5725482 -0.048624513 4.3443584e-21)
(2.578086 -0.065979123 2.4674817e-22)
(2.5849051 -0.079084122 -3.2022232e-21)
(2.5985617 -0.092595163 -2.4091032e-21)
(2.6111129 -0.10168144 2.1393779e-24)
(2.629249 -0.10809996 1.7032029e-21)
(2.6443728 -0.11107602 9.6269823e-22)
(2.6629314 -0.10964894 -8.9846973e-22)
(2.6773472 -0.10643576 3.9908621e-21)
(2.6928574 -0.098330808 7.3793476e-21)
(2.7040122 -0.090316498 5.2752192e-21)
(2.7142521 -0.077950714 1.728345e-21)
(2.720785 -0.067331686 -1.6039443e-21)
(2.7250881 -0.053567611 -9.8597014e-22)
(2.7269225 -0.042588123 -1.8448167e-21)
(2.726008 -0.029845852 -1.1667452e-21)
(2.7239996 -0.020277535 -4.9927815e-23)
(2.7193477 -0.010152929 -5.7547024e-22)
(2.7148579 -0.0029163733 -1.3185035e-21)
(2.7081847 0.004090153 -5.7005847e-23)
(2.7024467 0.0086367115 1.7463475e-21)
(2.695069 0.012486784 -1.1987589e-21)
(2.6892617 0.01467581 -4.17277e-21)
(2.6823156 0.016017506 5.277517e-22)
(2.6768979 0.016016922 5.7101357e-22)
(2.6707194 0.01511683 -3.740662e-21)
(2.6665915 0.013592956 -2.8582204e-21)
(2.6619912 0.011193761 -6.7139925e-21)
(2.6586554 0.0080943773 -1.4048603e-22)
(2.655015 0.0042275168 8.7247532e-21)
(2.3639989 0.54508715 -1.8689156e-21)
(2.3078094 0.59667868 -8.3035373e-21)
(2.2566087 0.64419291 -4.2785994e-21)
(2.2599695 0.52523605 -4.8166729e-21)
(2.2365217 0.41429759 -1.3494396e-20)
(2.2397492 0.26326168 1.9490092e-21)
(2.2528207 0.1317373 2.4000096e-20)
(2.3172686 0.044176244 9.3491923e-21)
(2.3749484 -0.029956207 2.4192239e-21)
(2.4469988 -0.052736897 4.8616958e-21)
(2.505044 -0.074728907 1.5405581e-21)
(2.5506148 -0.064294176 1.0972059e-20)
(2.5886355 -0.059505874 8.0535225e-21)
(2.6025023 -0.035813308 -9.8890189e-21)
(2.614297 -0.021210044 -8.0648552e-22)
(2.604467 -0.0069188561 1.3123123e-21)
(2.5982477 0.00021530783 -2.441427e-21)
(2.5819618 -0.0031533672 -2.0883986e-22)
(2.5717833 -0.0086476041 -1.2629693e-21)
(2.5622288 -0.025530092 -1.1269554e-21)
(2.5573781 -0.040055214 2.2273393e-21)
(2.5596537 -0.061607763 2.0278703e-21)
(2.5642037 -0.078323775 -1.8607488e-21)
(2.577265 -0.096894976 -1.1515219e-21)
(2.5898248 -0.11011044 -4.0083792e-22)
(2.6097281 -0.12116065 1.0831327e-21)
(2.6267967 -0.12769617 2.6997738e-21)
(2.6488917 -0.12960967 1.3767601e-21)
(2.6665685 -0.12867783 -3.8910345e-22)
(2.686564 -0.12206743 -3.2541666e-21)
(2.7014991 -0.11471472 -1.5200522e-22)
(2.7161978 -0.10188514 -2.0828289e-21)
(2.7262183 -0.09036502 -5.5674675e-21)
(2.7340948 -0.074526114 2.438917e-22)
(2.7384981 -0.061537085 8.7248421e-22)
(2.7397805 -0.045856582 7.8341669e-22)
(2.7391997 -0.033725314 1.4698428e-21)
(2.7353782 -0.020440698 1.839061e-21)
(2.7311934 -0.010709636 1.370204e-21)
(2.7242058 -0.00098498457 -1.4449954e-21)
(2.7180442 0.0057900449 -2.4347912e-22)
(2.7097344 0.01194001 8.5542752e-22)
(2.7028528 0.015748064 -1.9563386e-21)
(2.6944455 0.018587678 -2.4107551e-21)
(2.6879329 0.019993824 2.0826056e-21)
(2.6804029 0.020408599 5.9443222e-21)
(2.6745894 0.01966373 1.9348062e-21)
(2.6681164 0.017941802 1.6403632e-21)
(2.6637696 0.01580846 -1.9505237e-21)
(2.6590192 0.012778656 -2.9819154e-21)
(2.6555655 0.0091023429 5.3937499e-21)
(2.651855 0.0046430451 -1.1874245e-21)
(2.2927147 0.56252337 1.1268386e-20)
(2.2492224 0.61569529 1.7037598e-20)
(2.2093224 0.66583072 1.126063e-20)
(2.2173417 0.54416346 3.8046691e-20)
(2.2007797 0.42929033 3.8117185e-20)
(2.2035899 0.26512106 -1.656589e-20)
(2.2169887 0.11914973 -2.0098388e-21)
(2.2833403 0.0197542 1.9589749e-20)
(2.3443462 -0.065046824 5.5851277e-21)
(2.4262812 -0.089151349 2.6595303e-22)
(2.4940272 -0.11144706 2.568065e-21)
(2.5499484 -0.095395985 1.6929554e-20)
(2.5980816 -0.085411431 2.6144989e-20)
(2.6161406 -0.051194995 4.3710484e-21)
(2.6313096 -0.02801451 -1.2670121e-20)
(2.6179222 -0.0045876775 -7.8882824e-21)
(2.6086458 0.0095626234 -5.9889531e-21)
(2.5850279 0.010037973 -2.2450326e-22)
(2.5689042 0.0071717202 1.9085317e-21)
(2.5524213 -0.010844673 4.969496e-21)
(2.5421495 -0.026773914 5.3082399e-21)
(2.5399748 -0.052947098 2.1184597e-22)
(2.5411684 -0.073641397 3.7888313e-23)
(2.5527997 -0.097999645 3.5052791e-21)
(2.5646309 -0.11604175 4.1810412e-21)
(2.5857904 -0.13266358 -3.7813593e-21)
(2.6044278 -0.14364616 -2.4419933e-21)
(2.6299408 -0.14998429 -1.8672819e-21)
(2.6509095 -0.1522935 -3.2020428e-21)
(2.6757585 -0.14824629 4.27883e-22)
(2.6949311 -0.14239589 -2.2807978e-21)
(2.7149069 -0.12988378 -3.2540591e-21)
(2.7291876 -0.11800164 -5.1228615e-21)
(2.7416778 -0.10041785 2.9486068e-22)
(2.7495359 -0.085521214 5.9326404e-21)
(2.7539989 -0.066697165 6.1654807e-21)
(2.7555778 -0.05179636 6.1464384e-21)
(2.7532636 -0.034915894 2.9248068e-21)
(2.7499384 -0.022188298 3.2989165e-21)
(2.7430539 -0.0090398229 1.46038e-21)
(2.7366438 0.00035545992 -1.2123029e-21)
(2.7274253 0.0091911404 1.1221527e-22)
(2.7196994 0.015190042 1.1617332e-21)
(2.7099468 0.020162412 -2.1726176e-21)
(2.7020787 0.023038301 -2.6070933e-21)
(2.6928467 0.024720887 -3.9404271e-21)