/*--------------------------------*- C++ -*----------------------------------*\
| =========                 |                                                 |
| \\      /  F ield         | OpenFOAM: The Open Source CFD Toolbox           |
|  \\    /   O peration     | Version:  v2012                                 |
|   \\  /    A nd           | Website:  www.openfoam.com                      |
|    \\/     M anipulation  |                                                 |
\*---------------------------------------------------------------------------*/
FoamFile
{
    version     2.0;
    format      ascii;
    class       surfaceScalarField;
    location    "33.235017676257776";
    object      meshPhi;
}
// * * * * * * * * * * * * * * * * * * * * * * * * * * * * * * * * * * * * * //

dimensions      [0 3 -1 0 0 0 0];
oriented        oriented;


internalField   nonuniform List<scalar> 
18180
(
0
0.046493021
0
0.043530851
-3.9166942e-17
0.091274912
0
0.04022925
0
0.084384043
-7.8323244e-14
0.13239693
4.189342e-14
0.036758939
-8.0985776e-14
0.077110993
0
0.12182874
7.5650216e-14
0.16974848
0
0.033413177
0
0.069946468
7.8225849e-14
0.11087946
0
0.15658577
7.3103044e-14
0.20465823
-8.3617737e-14
0.030551536
-1.7544573e-17
0.063838344
-7.8198364e-14
0.10079925
0
0.14305872
0
0.18935067
-7.0671148e-14
0.23687903
0
0.028211789
-4.0393477e-14
0.058788456
-3.9082839e-14
0.092216959
3.7792797e-14
0.13045293
0
0.17387417
0
0.21990828
0
0.26692748
0
0.026217083
-4.038171e-14
0.054484209
0
0.085118055
-1.5726613e-17
0.11957238
-3.6506576e-14
0.15927543
0
0.20299694
0
0.2483905
-6.5990389e-14
0.29453923
0
0.024505017
-4.0335799e-14
0.05077721
0
0.079177077
-3.7731847e-14
0.11049255
3.6486339e-14
0.14640233
0
0.18698235
0
0.23021676
0
0.27464302
6.3742928e-14
0.32025446
0
0.022998184
-1.7385389e-17
0.04748138
0
0.073997818
0
0.10290772
0
0.13546439
-3.5274799e-14
0.17251071
0
0.21295805
6.5921073e-14
0.25535284
0
0.29897281
-6.1614181e-14
0.3438861
0
0.021649763
0
0.044496887
3.8980868e-14
0.0693245
-3.7700732e-14
0.096319306
3.6443632e-14
0.12612689
3.5255069e-14
0.15984205
3.4088353e-14
0.19721839
3.295793e-14
0.23706151
0
0.27857472
0
0.32138722
0
0.36583528
0
0.020421546
0
0.041758077
0
0.065010938
0
0.090367561
3.6437616e-14
0.11805162
3.5220023e-14
0.14894928
-3.4055382e-14
0.18321918
-3.2954426e-14
0.22021751
-3.1847439e-14
0.25929684
6.1552915e-14
0.30000793
0
0.34212534
0
0.3859242
-2.0803796e-14
0.019290422
0
0.039220703
0
0.060985882
0
0.084859488
0
0.11082784
0
0.13941909
0
0.17083591
0
0.20495314
-3.1831229e-14
0.24145958
0
0.27984353
0
0.31975853
0
0.36118012
5.5555993e-14
0.40458777
-9.7003796e-18
0.018237873
2.0116443e-14
0.03685072
0
0.057210317
3.7636801e-14
0.079685054
0
0.10412658
0
0.13083463
0
0.15985081
0
0.19120533
1.2500888e-17
0.22508769
3.0734827e-14
0.26113651
0
0.29876131
0
0.3379606
-5.554178e-14
0.37879104
-5.3688342e-14
0.42169105
-9.8099093e-18
0.017247331
0
0.034624824
-1.9439925e-14
0.053655844
0
0.074808555
3.6378423e-14
0.097827968
3.516221e-14
0.12293513
0
0.15001177
0
0.17892134
-3.179761e-14
0.21022519
0
0.24397066
-1.073869e-17
0.27938835
-2.8729228e-14
0.31625893
-1.7197632e-17
0.3547575
0
0.39499985
0
0.43754765
-2.0785276e-14
0.016304876
0
0.032521623
-1.9439661e-14
0.050301674
-1.8792255e-14
0.07020792
0
0.091874837
0
0.11553093
0
0.14102572
0
0.16796172
0
0.19688493
-3.0725465e-14
0.22826622
2.9703902e-14
0.26157477
-2.8714929e-14
0.29629331
2.7756753e-14
0.33241984
0
0.37026502
0
0.40995115
0
0.45203438
-2.0777746e-14
0.015402749
0
0.030527855
-1.9431871e-14
0.047132726
-8.2585861e-18
0.06586944
1.8172463e-14
0.08624832
0
0.10852553
0
0.13264529
-1.3807348e-17
0.15799371
0
0.18484599
0
0.21397283
-1.1377468e-17
0.2452108
-2.8689599e-14
0.27794912
-2.7742998e-14
0.31193766
5.3623611e-14
0.34735531
-5.1834081e-14
0.38451646
0
0.42367788
-4.8395946e-14
0.46547072
0
0.014537126
-8.5341579e-18
0.028634271
0
0.044138404
-1.8785427e-14
0.061780778
3.6322162e-14
0.080937145
-1.7556418e-14
0.10188642
0
0.12472885
0
0.14873352
-1.2936268e-17
0.17389562
0
0.20102365
0
0.23021324
0
0.26100733
-2.7718955e-14
0.29311753
-8.5238565e-18
0.32640292
0
0.361072
-5.0071907e-14
0.39764394
0
0.43632326
-4.6745559e-14
0.47776563
-2.0765045e-14
0.013702373
-2.0069385e-14
0.026836672
1.9410291e-14
0.041309542
3.7557894e-14
0.057932441
0
0.075935405
-7.7606828e-18
0.095599347
7.6213297e-18
0.11721358
0
0.14001323
0
0.1637655
3.0666426e-14
0.18913691
0
0.2163941
0
0.24531251
-9.8291971e-18
0.27565617
0
0.30717431
-2.589295e-14
0.33972574
-6.9688835e-18
0.37373699
0
0.40971907
4.6734353e-14
0.4479502
-1.0043761e-17
0.48914458
-2.0759734e-14
0.012894826
0
0.025129291
8.1477468e-18
0.038640346
0
0.054313801
1.8152215e-14
0.071233396
-1.7550701e-14
0.089658564
-7.6964986e-18
0.11008029
7.2368474e-18
0.13173398
0
0.15422004
3.0651892e-14
0.17807071
2.9631579e-14
0.2035804
0
0.23069021
0
0.25932509
2.6765263e-14
0.28925621
8.1763894e-18
0.32014377
-2.5012784e-14
0.35202481
0
0.38540006
0
0.42085051
0
0.45863459
0
0.4995303
0
0.012113042
2.0059096e-14
0.023507918
0
0.03612559
1.8767881e-14
0.050911596
-1.8146689e-14
0.066819262
0
0.084056539
-7.7582703e-18
0.10332077
1.6391565e-14
0.12386888
0
0.14516733
0
0.16768038
0
0.19165387
0
0.21705411
0
0.244032
0
0.27245245
0
0.30187193
2.4999762e-14
0.33213277
-6.6941141e-18
0.36336419
0
0.39615416
-1.0450649e-17
0.43104268
0
0.46843444
0
0.50914023
0
0.011357886
0
0.021970755
0
0.033760106
0
0.047714145
1.8141719e-14
0.062677852
-1.7539484e-14
0.078786924
-3.3906108e-14
0.096931381
3.2771261e-14
0.11640669
1.5840336e-14
0.13656005
0
0.15784663
0
0.18048813
0
0.20436798
0
0.22973956
0
0.25664946
0
0.28467503
2.497851e-14
0.31355855
-2.4141755e-14
0.34320207
0
0.37381524
-2.2546189e-14
0.40601137
0
0.44042517
0
0.47742517
-4.0666871e-14
0.51792386
5.1439824e-18
0.010632255
0
0.020516925
0
0.031540077
1.8750337e-14
0.0447107
0
0.058797347
1.7534661e-14
0.07384329
1.6944006e-14
0.090908659
0
0.10934428
-6.80306e-18
0.12838276
-1.5312953e-14
0.1485007
1.4801917e-14
0.16994981
0
0.19249951
0
0.21633913
2.6723601e-14
0.24177237
0
0.26847435
0
0.29605412
0
0.3243806
2.3325536e-14
0.35341814
-5.6788974e-18
0.38342492
0
0.41511218
0
0.44902996
0
0.48568308
-3.9270039e-14
0.52603407
1.0366847e-14
0.0099382296
-1.0023861e-14
0.019145511
0
0.029460999
0
0.041892133
1.8124998e-14
0.055163168
0
0.069214353
0
0.085248018
-1.6382919e-14
0.10267634
0
0.12062893
1.5301087e-14
0.13961587
1.4790077e-14
0.15995163
5.6579003e-18
0.18131579
0
0.20378079
2.672095e-14
0.22779316
0
0.25317988
2.4951634e-14
0.27950213
2.4115352e-14
0.30660945
0
0.33438825
2.2529155e-14
0.36281549
-5.2387129e-18
0.39229531
0
0.42349265
0
0.45695614
0
0.49323732
3.7912928e-14
0.53342973
0
0.0092768628
0
0.017854469
4.0515939e-18
0.027515247
0
0.039246269
0
0.051757383
0
0.064884523
0
0.07993587
-1.6370779e-14
0.096393244
0
0.1132937
0
0.13118096
-1.4797015e-14
0.15044624
-1.4296043e-14
0.17072436
5.2881283e-18
0.19196483
0
0.214601
9.4547141e-18
0.23866081
-8.6867009e-18
0.26378642
0
0.28974441
2.3293576e-14
0.31640298
-2.2517203e-14
0.34361005
0
0.37149314
-4.8402074e-18
0.40048513
0
0.43122453
0
0.46418993
0
0.50015413
3.6607655e-14
0.54024549
5.1071749e-18
0.0086484438
0
0.01664147
-9.6949114e-15
0.025695261
9.3746036e-15
0.036762006
0
0.048562679
0
0.06083416
-1.6939375e-14
0.074954149
0
0.090480265
-1.5820367e-14
0.10636662
-1.5297793e-14
0.12318794
0
0.14141704
1.4285099e-14
0.16065778
0
0.18076646
0
0.20212545
0
0.22486234
0
0.24877842
-2.4098268e-14
0.27364613
-2.3288427e-14
0.29927531
2.2505194e-14
0.32546017
-5.784981e-18
0.35213753
2.1013928e-14
0.3795053
-4.4650568e-18
0.40804174
1.9615814e-14
0.43831436
-6.8792452e-18
0.47083617
0
0.50645913
0
0.54646219
1.0363161e-14
0.0080539235
-1.0020039e-14
0.015503985
9.6937323e-15
0.023995153
9.3687982e-15
0.034429366
-9.057671e-15
0.045562172
0
0.057047626
0
0.070284813
-7.9208657e-18
0.084917657
-1.5816484e-14
0.099834594
-1.5287181e-14
0.11562841
0
0.13285409
0
0.15109159
1.380162e-14
0.1701304
-1.3343658e-14
0.19032335
4.8019379e-18
0.21179625
0
0.23445429
0
0.25823372
0
0.28290097
0
0.30815038
6.1004055e-18
0.3338631
2.0997519e-14
0.360016
4.6815275e-18
0.38690066
3.9209091e-14
0.41500482
1.8937698e-14
0.4448538
-3.6593231e-14
0.47689755
0
0.51223235
0
0.55217712
-2.0724495e-14
0.0074933789
-1.0023119e-14
0.014438756
4.0944555e-18
0.022408958
0
0.032240626
-9.0607373e-15
0.042741201
3.8461318e-18
0.053505604
-1.6925049e-14
0.065911414
-1.6359868e-14
0.079687159
0
0.093681378
1.5289774e-14
0.10849192
0
0.12474961
0
0.14201254
0
0.16001683
-1.3338811e-14
0.17912793
0
0.19944919
0
0.22087312
-4.8143773e-14
0.24349895
0
0.26718705
2.2481945e-14
0.29154979
0
0.31641374
0
0.3416453
0
0.36728743
0
0.39371081
0
0.42142817
0
0.450861
3.5325801e-14
0.48245746
0
0.51747993
-3.2951277e-14
0.55737775
0
0.0069658383
0
0.013444552
-9.6918389e-15
0.020930441
4.6216026e-18
0.030188051
-9.0596754e-15
0.040087844
-8.7574295e-15
0.050190701
4.0253903e-18
0.061816459
0
0.07476817
0
0.087889798
0
0.10176587
-1.4773773e-14
0.11709271
6.0225938e-18
0.13340989
1.379279e-14
0.15040615
0
0.168487
-4.9108854e-18
0.18775782
0
0.20803092
-1.2028732e-14
0.22943645
0
0.2520869
0
0.27560467
2.1706704e-14
0.29965056
0
0.32410087
0
0.34883979
-1.9586483e-14
0.37397826
-1.8919008e-14
0.39998667
1.8280706e-14
0.42734843
3.531426e-14
0.45637679
0
0.48750088
0
0.52226933
3.1807099e-14
0.56215093
-1.0361508e-14
0.00646461
0
0.012520546
0
0.019553073
9.3611185e-15
0.028265121
-9.0543505e-15
0.037592317
-8.7564017e-15
0.047084582
-8.4640835e-15
0.057979608
0
0.070142414
0
0.082439879
0
0.095430217
0
0.1098699
-1.4274475e-14
0.1252729
0
0.14128476
-1.3330284e-14
0.15837067
1.2876651e-14
0.17666244
-4.6247766e-18
0.19588068
1.202394e-14
0.2161035
1.1622679e-14
0.23763621
0
0.26025003
0
0.28350147
2.096386e-14
0.30721063
0
0.33123375
0
0.35546612
-1.8913156e-14
0.38013786
-1.8267921e-14
0.40575867
1.7647313e-14
0.43277728
1.7046378e-14
0.46140981
0
0.49211017
0
0.52661643
-3.0709539e-14
0.56650197
2.9271723e-05
0.0070255189
-1.001754e-14
0.011654671
0
0.018271758
0
0.026463236
9.0535143e-15
0.035244257
8.7555141e-15
0.044171176
0
0.054379653
8.1760899e-15
0.0657887
-7.9023074e-15
0.077309612
0
0.089465206
0
0.10306248
-6.1311951e-18
0.11758785
0
0.13264195
0
0.14876209
-1.2877704e-14
0.16611853
0
0.184366
1.2019492e-14
0.20349307
1.1613969e-14
0.22384389
-1.1221913e-14
0.24542433
0
0.26787609
0
0.29088415
0
0.31425833
0
0.33782236
-3.7802122e-14
0.36157117
-3.8387086e-18
0.38579234
1.7641729e-14
0.41104232
-2.9360126e-18
0.43775073
0
0.46602047
3.1789483e-14
0.49629833
0
0.5305986
0
0.57050433
4.87211e-05
0.0069382714
7.9437303e-05
0.012616875
9.6862818e-15
0.017074533
0
0.024774193
0
0.033033958
-3.9270963e-18
0.041433294
8.4622126e-15
0.050999811
8.1751054e-15
0.061689356
0
0.072479814
0
0.083847076
1.4764768e-14
0.096648021
0
0.11033922
1.3782434e-14
0.12446501
0
0.13964584
0
0.1561039
0
0.17343109
0
0.19153577
-1.1617868e-14
0.2107375
1.1217451e-14
0.23117281
1.0841947e-14
0.25269809
0
0.27501118
0
0.29779234
0
0.32079644
0
0.34390897
0
0.36717502
0
0.39095789
-1.7029877e-14
0.41586987
-1.6452519e-14
0.44229749
-1.5888276e-14
0.47023663
-3.069282e-14
0.50013204
0
0.53424206
-2.8616294e-14
0.57416757
5.9655543e-05
0.0068487424
0.00013263907
0.012552427
0.0001222059
0.018419653
-9.3691253e-15
0.023185596
0
0.030953331
0
0.038859497
-1.6922939e-14
0.047823152
8.178287e-15
0.05783035
0
0.067933299
-7.6378522e-15
0.078556377
-7.3779082e-15
0.090604565
1.4259692e-14
0.10350618
-2.7564747e-14
0.11673954
0
0.13100914
0
0.14660111
0
0.16304686
1.2011644e-14
0.18018996
0
0.19832308
-1.1221054e-14
0.21759474
0
0.23802277
0
0.25953898
0
0.28175804
0
0.30425183
-1.8884055e-14
0.32686278
0
0.34950718
0
0.37229567
1.7021011e-14
0.39566635
1.6444385e-14
0.42026762
0
0.44645875
-1.5338186e-14
0.47408785
-3.6687491e-18
0.50363769
0
0.5376093
2.7619507e-14
0.57754429
6.33593e-05
0.0067619614
0.00016295897
0.012481864
0.0002050363
0.01846117
0.00016575854
0.02485682
0
0.028986726
0
0.036440607
8.4567905e-15
0.044837633
-4.0292873e-18
0.05419836
-7.8994041e-15
0.063654248
0
0.073573452
7.3801253e-15
0.084911872
7.1318433e-15
0.097069728
0
0.10945039
0
0.12283844
0
0.13759523
0
0.15319455
1.2012661e-14
0.16941531
1.1602037e-14
0.18655507
1.1209447e-14
0.20473399
1.0826431e-14
0.22399357
1.0463176e-14
0.2445131
3.2746311e-18
0.26607566
0
0.28809912
0
0.31027243
0
0.33246513
0
0.3546337
0
0.37696217
0
0.39994504
-1.5873053e-14
0.42427147
-2.2173878e-18
0.45024136
0
0.47760527
0
0.506878
0
0.54071017
0
0.5806449
6.1091133e-05
0.0066795149
0.00017366169
0.012413168
0.00025315071
0.018493536
0.00027899066
0.025013439
0.00020740015
0.030864346
0
0.034155855
0
0.04203188
0
0.050780445
-3.428822e-18
0.059627343
3.0791012e-18
0.06888235
-7.3758757e-15
0.079550857
7.127695e-15
0.09100861
2.6538325e-18
0.10258103
1.3309868e-14
0.11512054
0
0.12907119
1.2425502e-14
0.14385508
0
0.15918667
4.1369956e-18
0.17538694
-3.8905538e-18
0.19256075
-1.0829919e-14
0.21068274
-3.39137e-18
0.2300342
0
0.25076805
0
0.2723107
0
0.29406257
0
0.31586239
1.7601546e-14
0.33761511
0
0.35931276
0
0.38120482
1.5864889e-14
0.40382498
0
0.42788893
-1.4801835e-14
0.45368538
0
0.48083339
0
0.50987189
0
0.54359658
2.5732242e-14
0.58349453
5.4041372e-05
0.0066027403
0.00016801706
0.01234772
0.00027112449
0.018523486
0.00034547422
0.025152315
0.00034940828
0.031152027
0.00024235009
0.036147013
-8.4562908e-15
0.039384964
0
0.047564285
0
0.055838902
0
0.06446472
3.3324947e-18
0.074501805
0
0.085303839
-6.8892056e-15
0.096112589
6.6563879e-15
0.10783946
0
0.12101452
0
0.13501314
0
0.14948351
0
0.16478472
1.1206565e-14
0.18102526
0
0.19809356
0
0.21625784
-3.346492e-18
0.23594673
9.7575558e-15
0.25683344
-9.4260833e-15
0.27817667
-1.8211778e-14
0.29961244
0
0.32102657
-1.6998501e-14
0.34232891
0
0.36357723
0
0.38504921
0
0.40731442
0
0.43115882
-1.8173158e-18
0.45681159
1.6500009e-18
0.48380553
0
0.51265591
-2.5726565e-14
0.54626158
0
0.5861046
4.3351561e-05
0.0065322282
0.00014911657
0.012286473
0.00026359291
0.018550878
0.00037112402
0.025280357
0.00043311089
0.03140711
0.0004086373
0.036613274
0.00027228148
0.041379543
0
0.044526652
7.9008895e-15
0.052276707
0
0.060309086
0
0.069743516
-7.1260469e-15
0.079933874
6.8883479e-15
0.090026515
0
0.10097973
2.7088447e-18
0.11341044
0
0.12665268
0
0.14028938
-1.1597138e-14
0.15472564
0
0.17008341
1.082334e-14
0.18618671
0
0.20322703
0
0.22170616
9.7507048e-15
0.24167421
0
0.26253263
0
0.28364764
0
0.30476256
-1.698621e-14
0.32577241
-1.6411388e-14
0.34664031
0
0.36744879
0
0.38850743
0
0.41045326
-1.4279397e-14
0.43409957
-1.6484057e-18
0.45966357
0
0.48653312
0
0.51523306
0
0.54874514
-2.3973284e-14
0.58847401
3.0099597e-05
0.0064683984
0.00012000343
0.012229765
0.00023503614
0.018575528
0.00036182895
0.025397473
0.00046568036
0.031639176
0.0005069076
0.037028516
0.00045932989
0.041999051
0.00029923669
0.046415546
0
0.048910998
0
0.056407851
-7.3737212e-15
0.065262524
7.1253856e-15
0.074878725
2.5730573e-18
0.084304569
0
0.094524393
0
0.10624076
2.6055821e-18
0.11875835
0
0.13158743
0
0.14518824
-3.9524691e-18
0.1597074
0
0.17490574
-1.0449478e-14
0.19090069
0
0.20818324
9.7506298e-15
0.22701897
-3.0856115e-18
0.24711137
-2.8527496e-18
0.26785019
0
0.28874237
0
0.30952279
0
0.3301342
-1.5843909e-14
0.35056875
0
0.37094181
0
0.39161684
0
0.4132602
0
0.43675053
-1.4854245e-18
0.46224658
-2.5709348e-14
0.48903932
-2.4825458e-14
0.51763853
0
0.55101427
-2.3137367e-14
0.59061661
1.5323759e-05
0.006412316
8.3564682e-05
0.012177678
0.00018997932
0.018596499
0.00032354262
0.025503007
0.00045439255
0.031847187
0.00054535726
0.037401281
0.00056996007
0.042549962
0.00050444741
0.047164246
0.00032085525
0.050618031
0
0.052732139
0
0.061047581
0
0.070119876
6.8844027e-15
0.078928385
6.6537673e-15
0.088457521
0
0.09948774
0
0.11131042
1.200028e-14
0.12336106
0
0.13615578
0
0.14987527
1.0814351e-14
0.16421825
-1.0449922e-14
0.17924348
-1.0091264e-14
0.19541915
-3.1083959e-18
0.21305446
0
0.23207916
-2.8762423e-18
0.25217587
0
0.27282823
2.4122028e-18
0.2934817
0
0.31392132
0
0.33412736
-1.529546e-14
0.35413002
0
0.37409013
0
0.39439747
1.3776663e-14
0.41577125
1.4538233e-18
0.43912702
-1.3447151e-18
0.46459749
1.249766e-18
0.49134302
0
0.51985688
0
0.55310565
2.2328303e-14
0.59252391
0.006364682
0
4.2658436e-05
0.012131044
0.0001328421
0.018613077
0.00026219214
0.025595771
0.00040662921
0.032030231
0.00053238953
0.03772888
0.0006133045
0.043037661
0.00062552309
0.047820747
0.00054038856
0.051509249
0.00033624009
0.054194944
0
0.057076718
0
0.065638911
0
0.073879191
-6.6530925e-15
0.082758465
2.7768308e-18
0.093134658
0
0.10429078
-2.2100042e-18
0.1155944
-5.7932116e-15
0.12761148
0
0.14056756
0
0.15410166
0
0.16821162
1.0091625e-14
0.18336467
0
0.19986442
0
0.21770957
0
0.23683342
-8.7841806e-15
0.25696199
8.4819239e-15
0.27749055
8.194797e-15
0.29789405
0
0.31797496
0
0.33776871
0
0.35735312
0
0.37691621
0
0.39688024
0
0.41800086
-1.284191e-14
0.44126611
1.2400949e-14
0.46673171
0
0.49346598
0
0.52191095
0
0.55497168
0
0.59421569
0.012090331
0
0.006325167
-1.5134143e-05
6.806128e-05
0.018624994
0.00018379669
0.02567465
0.00032975947
0.032186693
0.00047656071
0.0380098
0.00059875856
0.04345937
0.00067258688
0.048396752
0.00066946778
0.052283795
0.00056599199
0.055247064
0.00035012461
0.058301823
-7.1276418e-15
0.061400119
0
0.069140181
0
0.077411931
6.4246742e-15
0.087159774
2.7038488e-18
0.097680266
0
0.10827087
0
0.11954058
-5.5952695e-15
0.13176587
0
0.14453401
0
0.15777937
0
0.17197956
0
0.18744063
2.9521857e-18
0.204157
-9.091659e-15
0.2221421
0
0.24139447
8.4760787e-15
0.26152735
0
0.28189299
7.9115945e-15
0.3019944
0
0.321697
0
0.34108199
1.4250783e-14
0.36026335
-1.3762793e-14
0.37944637
0
0.39907714
0
0.41998997
0
0.44320392
0
0.4686905
0
0.49540788
2.2316353e-14
0.5237606
0
0.5566482
0
0.59568407
0.018632054
0
0.012055554
-4.231548e-05
0.0062934227
-2.9357435e-05
9.4377015e-05
0.025739258
0.0002313155
0.032315277
0.00038654772
0.038242484
0.00053588599
0.043813702
0.00065614723
0.04889064
0.00071924401
0.052960501
0.00070083493
0.056161933
0.00058934053
0.059561693
0.0003643031
0.062358217
0
0.064666794
0
0.072403346
0
0.081545733
6.2063806e-15
0.091458397
2.1749144e-18
0.1013724
0
0.1119274
0
0.12345445
1.8110282e-18
0.13549637
0
0.14792308
0
0.16122827
9.7398905e-15
0.17573558
0
0.19141582
-9.0862362e-15
0.20827856
0
0.2264628
-8.4758586e-15
0.24582799
-1.6377376e-14
0.26587923
-7.9085933e-15
0.28602292
0
0.30580135
0
0.32510981
1.4244161e-14
0.34409539
1.3753911e-14
0.36288359
0
0.38169126
0
0.4010269
-1.1867207e-18
0.42177797
1.0766328e-18
0.44497701
1.1551784e-14
0.47047775
0
0.49717387
0
0.52543573
0
0.55810765
0
0.59695851
0.02578856
0
0.018635426
-6.7921788e-05
0.012026041
-8.2218851e-05
0.0062705773
-4.1771437e-05
0.00011884687
0.032414773
0.0002711538
0.038424725
0.0004345799
0.044099495
0.00058685783
0.049300737
0.00070114125
0.053538293
0.00075253859
0.056957476
0.00072966678
0.060664732
0.00061332332
0.063845516
0.0003737995
0.065288109
0
0.067692328
-6.4264624e-15
0.076274189
0
0.08560415
-2.1554443e-18
0.094880682
-5.7908958e-15
0.10475707
-5.5956749e-15
0.1156174
-1.080824e-14
0.12696992
5.2206228e-15
0.13862162
0
0.1510829
0
0.16470231
0
0.17943453
0
0.19525213
8.7761667e-15
0.21232188
0
0.23070931
0
0.250107
7.9034228e-15
0.27002102
7.6329325e-15
0.28991088
7.3733746e-15
0.30932284
0
0.32823761
0
0.34682742
-2.0041725e-18
0.3652251
0
0.38368568
-1.2382502e-14
0.402757
-1.1958301e-14
0.42339973
0
0.44660754
-1.1149809e-14
0.47212038
-1.0764501e-14
0.49877155
2.0785059e-14
0.52692181
0
0.55939806
0
0.59803866
0.032483321
0
0.025825593
-9.4548527e-05
0.018634204
-0.00013228472
0.012001716
-0.00011712491
0.0062576485
-5.1471309e-05
0.00013929938
0.038554343
0.00030473678
0.044314468
0.00047559185
0.049625301
0.00062666938
0.054015895
0.00073324191
0.057632774
0.00078339834
0.061619721
0.00075942478
0.065144235
0.00062928388
0.0669732
0.00037835489
0.067952416
0
0.07131165
0
0.080095914
0
0.088777012
0
0.098009278
5.5950019e-15
0.10823695
5.4024637e-15
0.11893608
-5.2198049e-15
0.12985307
-5.0387817e-15
0.1415158
0
0.15430439
0
0.16815894
0
0.183016
0
0.19902535
0
0.21635838
0
0.23488983
7.9007941e-15
0.25423322
7.6301841e-15
0.27396225
0
0.29354513
-7.1177498e-15
0.31258304
0
0.33109627
0
0.34928963
-1.2818309e-14
0.36731794
0
0.38544769
1.1951227e-14
0.40429877
-9.607311e-19
0.4248759
1.1144437e-14
0.44811753
1.075975e-14
0.47361693
0
0.50021807
0
0.52825031
0
0.56049244
0
0.59895241
0.038629198
0
0.03252712
-0.00011917682
0.025849288
-0.00018444933
0.018625567
-0.00018875478
0.011983441
-0.00014441349
0.0062545238
-5.7556735e-05
0.00015648451
0.044456532
0.0003332896
0.049863669
0.00050754264
0.054391556
0.00065508896
0.058187448
0.00076314227
0.062425794
0.00081535718
0.066271964
0.000779263
0.068449454
0.00063703266
0.069850028
0.00038308658
0.071191544
6.2080067e-15
0.074890962
-5.9941104e-15
0.083044576
0
0.09166889
5.5923298e-15
0.10128955
1.8645441e-18
0.11137268
5.2190757e-15
0.12159645
5.0393819e-15
0.13250435
1.4438628e-18
0.1445094
0
0.15754201
0
0.17151155
0
0.186544
0
0.2028138
8.1815531e-15
0.22035779
0
0.23894467
-7.6301593e-15
0.25819072
7.3661156e-15
0.27769818
0
0.29695354
1.5754722e-18
0.31558832
0
0.33369566
0
0.35150708
-1.6048266e-18
0.36917853
0
0.38700479
-1.1534682e-14
0.40566712
0
0.42623231
0
0.44951634
-1.0384808e-14
0.47499648
0
0.50151207
0
0.52939857
0
0.56143055
0
0.59969967
0.04452466
0
0.038658695
-0.00013958682
0.032545594
-0.00023258969
0.025854841
-0.00026353957
0.018609112
-0.00023298151
0.01197107
-0.0001615124
0.0062605558
-5.9080908e-05
0.00017105282
0.050015525
0.00035550846
0.054665406
0.00053035874
0.058621378
0.0006815912
0.063082048
0.00079425445
0.067225757
0.00083681892
0.06974045
0.00078899896
0.071520019
0.00064509578
0.073313497
0.00038836947
0.074355178
0
0.077633314
0
0.085722367
5.5917971e-15
0.09475885
5.4012178e-15
0.10425769
1.4451389e-18
0.11382996
0
0.12402535
9.7325634e-15
0.13529047
-4.6997854e-15
0.14754858
9.0780092e-15
0.16068233
0
0.17481026
-8.4697918e-15
0.19007354
-8.1795959e-15
0.20657189
7.8991368e-15
0.22427671
-7.6280821e-15
0.24287599
0
0.26198807
-2.1057432e-18
0.28124268
-6.8684025e-15
0.30013234
1.326265e-14
0.31835297
0
0.33605651
1.2364879e-14
0.35349643
0
0.37083021
0
0.38836678
-1.1132398e-14
0.40689061
-7.939083e-19
0.42748194
1.0379885e-14
0.45082373
0
0.47624387
0
0.50266072
0
0.53039928
0
0.56220413
-5.5282449e-19
0.60031061
0.050080746
0
0.044532705
-0.000156626
0.038641859
-0.00027226373
0.032531263
-0.00033244897
0.025841267
-0.00032565513
0.018585271
-0.00026067139
0.011964304
-0.00016574335
0.0062767776
-5.5126673e-05
0.0001823892
0.054838028
0.00037137531
0.058934181
0.00055165969
0.06358742
0.00070937135
0.068002957
0.00081530858
0.070839758
0.00084736378
0.072980118
0.00079900409
0.07518318
0.00065395614
0.076686327
0.00039056832
0.076664678
0
0.080120353
-5.5934476e-15
0.088627106
5.4026122e-15
0.097569464
5.2164188e-15
0.10653142
1.3060788e-18
0.11605732
-4.865583e-15
0.12662273
-4.700509e-15
0.13814771
-4.5382066e-15
0.15048942
0
0.16377023
0
0.17810583
0
0.19358364
0
0.21029808
7.6262466e-15
0.22813514
-7.3642219e-15
0.24670469
0
0.26563517
6.8643075e-15
0.28459877
-6.6298531e-15
0.30309227
6.4014325e-15
0.32088161
0
0.33819308
0
0.35527669
0
0.37228085
0
0.38956385
0
0.40798259
0
0.42864231
0
0.45202528
9.6708336e-15
0.47737896
9.3371059e-15
0.50367145
0
0.53125371
0
0.5628561
-1.6794253e-14
0.60078215
0.054908818
0
0.050078658
-0.00017107443
0.044480403
-0.00030528001
0.038568168
-0.00038889544
0.032483708
-0.00041094828
0.025808332
-0.00036463523
0.018553813
-0.00026745248
0.011962059
-0.0001544845
0.0063050665
-4.4687106e-05
0.00019048355
0.059127453
0.00038615806
0.063943306
0.00057405771
0.068601017
0.00072825528
0.071743474
0.00082568691
0.074223973
0.00085809484
0.076808952
0.00080975841
0.078729677
0.00065732653
0.079187389
0.00038937285
0.07872329
0
0.082844696
0
0.091286666
0
0.099679272
-1.27716e-18
0.10857295
4.8663889e-15
0.11848089
0
0.12931235
0
0.14090038
0
0.15337847
0
0.16685449
0
0.18137847
7.8929345e-15
0.19707717
-7.6245888e-15
0.21401414
0
0.23193232
0
0.25040246
0
0.26913078
-6.6278975e-15
0.28775771
0
0.30582193
6.1786282e-15
0.32319006
0
0.34012018
1.1518301e-14
0.35685465
0
0.37355857
-1.0738598e-14
0.3906085
0
0.40896311
0
0.42970289
9.6663211e-15
0.45313759
-9.3325817e-15
0.4783835
9.0097965e-15
0.50456459
-1.7395777e-14
0.53198969
0
0.56336742
0
0.60114221
0.059201129
0
0.054902303
-0.00018235934
0.050010018
-0.00033337743
0.044354182
-0.00043573113
0.038439229
-0.00048035071
0.032403654
-0.00046028713
0.025755796
-0.0003743456
0.01851337
-0.00024903863
0.011966543
-0.00012501586
0.0063465386
-2.6703579e-05
0.000198007
0.064152277
0.00040175814
0.06902027
0.00058940768
0.072446911
0.00073769373
0.075247456
0.00083612373
0.078185534
0.00086944184
0.080503617
0.00081375177
0.081396342
0.00065531753
0.081457122
0.00038779443
0.081011003
0
0.085347803
0
0.093255358
0
0.10155537
-4.8658331e-15
0.11083879
1.5034337e-18
0.12101383
-4.5368477e-15
0.13188699
-4.3827847e-15
0.14360182
-4.2311444e-15
0.15627019
0
0.16991168
0
0.18463459
7.6203203e-15
0.20057777
0
0.21769516
-7.1049906e-15
0.23562893
-2.4107074e-18
0.25398143
0
0.27246061
6.3957213e-15
0.29071152
-6.1766334e-15
0.30833523
0
0.32528482
0
0.34184439
0
0.35825521
-1.0734463e-14
0.37467636
0
0.39152344
0
0.40982944
0
0.43068054
0
0.45412143
-5.43208e-19
0.47928483
-8.6943592e-15
0.50533784
1.6785672e-14
0.53259378
1.6202415e-14
0.56377487
0
0.60138192
0.064216777
0
0.059184058
-0.00019040488
0.054819414
-0.00035540325
0.049856871
-0.00047579966
0.044155672
-0.00053776088
0.038255343
-0.00053756718
0.03229233
-0.00047271082
0.025684683
-0.0003486965
0.01846239
-0.00020114677
0.011978886
-7.4514585e-05
0.006398125
0
0.0002059467
0.069261575
0.00041254412
0.072946776
0.00059715785
0.076046955
0.00074691357
0.079310057
0.0008469131
0.082003089
0.00087348566
0.08331927
0.00081117777
0.083855718
0.0006527236
0.083964264
0.00038592058
0.083063462
0
0.087188183
0
0.094987428
0
0.10367373
4.697183e-15
0.11322821
0
0.12342189
8.7615741e-15
0.13441127
4.2305085e-15
0.14631588
0
0.15913419
0
0.17294904
-7.6217331e-15
0.18790786
0
0.20409587
0
0.2213349
0
0.23922942
0
0.2574219
0
0.2756123
-1.2349779e-14
0.29344936
0
0.31063283
0
0.32717716
0
0.34338732
0
0.35949105
-2.0719128e-14
0.37565585
1.0002228e-14
0.39230908
-9.6568125e-15
0.41060112
0
0.43153724
9.0024302e-15
0.45499881
-4.6290555e-19
0.4800587
0
0.50600357
0
0.53309066
1.5633888e-14
0.56406707
0
0.60152076
0.069327629
0
0.064171925
-0.00019780851
0.059076996
-0.00037107891
0.054637748
-0.00050735852
0.049620582
-0.00058724667
0.04388401
-0.00060128833
0.038017493
-0.00055155635
0.032149484
-0.00044049047
0.025591893
-0.00028161804
0.018401066
-0.00011954533
0.011994614
0
0.0058707709
0
0.00021146787
0.073241479
0.00041803322
0.076618189
0.00060455229
0.080179955
0.00075629249
0.083223825
0.00085068362
0.084949408
0.00087072435
0.085943257
0.00080799851
0.086556637
0.00064945005
0.086214022
0.00038158301
0.08446562
0
0.088797074
0
0.096963851
-4.698227e-15
0.10592542
-1.4220053e-18
0.11547815
-4.3802505e-15
0.12577965
-4.2299402e-15
0.13695949
-4.0847222e-15
0.14900102
-3.9430668e-15
0.16197368
0
0.17600891
0
0.19121874
0
0.20759486
0
0.22488405
6.623274e-15
0.24270178
-2.2240442e-18
0.26070365
0
0.27855873
1.1918071e-14
0.29597613
0
0.31272035
-5.5537602e-15
0.3288784
0
0.34476092
0
0.36058236
-9.997577e-15
0.37649907
9.6525914e-15
0.3929893
9.3191573e-15
0.41126762
8.9975922e-15
0.43229053
0
0.45572872
8.3860508e-15
0.48073558
-1.619218e-14
0.50655608
0
0.53347971
-1.5087642e-14
0.56428125
0.0054809547
0.59606737
0.073330021
0
0.069260929
-0.0002056029
0.064018513
-0.00038539202
0.058851324
-0.00052975094
0.054359622
-0.0006264554
0.0493019
-0.00065672039
0.04354096
-0.00061630674
0.037723735
-0.00051337142
0.031974152
-0.00035589165
0.025476288
-0.00016727801
0.018326576
0
0.011048676
0
0.0063173664
-1.0363286e-14
0.00021431173
0.076958367
0.00042314485
0.080793051
0.00061193
0.084161378
0.00075955092
0.086281646
0.00084798041
0.087713496
0.00086731866
0.08880934
0.00080386252
0.088976194
0.00064211663
0.08779969
0.00037531484
0.085652891
4.863115e-15
0.090644124
0
0.099079235
0
0.10802825
-4.3811678e-15
0.11767839
4.230847e-15
0.12817105
-4.0841883e-15
0.13947754
0
0.15165748
0
0.16483438
0
0.17909972
0
0.19452201
0
0.21103845
0
0.22832994
2.3835229e-18
0.24603225
0
0.26380175
0
0.28129976
-1.4063439e-18
0.29827744
-5.5528637e-15
0.31460403
-5.3599181e-15
0.33040406
0
0.34598367
0
0.36153083
0
0.3772284
0
0.39356939
-8.9935503e-15
0.41184763
-8.6827418e-15
0.43290309
-8.3827294e-15
0.4563522
-3.2027733e-19
0.48128512
-7.8124432e-15
0.50701736
0
0.53378598
0.010681354
0.5592049
0.0049919631
0.59101188
0.077063938
0
0.07325995
-0.00021106261
0.069063885
-0.00040043353
0.063723098
-0.00055003483
0.058508713
-0.00065416448
0.05398448
-0.00070097029
0.048902339
-0.00067335821
0.043126666
-0.00057299866
0.037377862
-0.0004143647
0.031765378
-0.00021150005
0.025331663
0
0.016957796
0
0.011846883
0
0.006797745
1.0368906e-14
0.00021690209
0.081148086
0.00042815267
0.084814718
0.00061445094
0.087309607
0.0007571646
0.089162211
0.0008446711
0.090716366
0.00086278864
0.091381135
0.00079478648
0.090726487
0.00063151794
0.089185147
0.00036897121
0.087069183
0
0.092624844
0
0.10104614
0
0.11008205
-1.4251253e-18
0.1199246
4.0851078e-15
0.13053175
1.3749346e-18
0.14196248
7.6156671e-15
0.15433729
0
0.16772468
0
0.18219984
0
0.19782272
-6.6211904e-15
0.21442779
0
0.23166235
1.2339519e-14
0.24920112
0
0.26670301
0
0.28381277
-5.551292e-15
0.3003677
-5.3589671e-15
0.31629961
0
0.33176931
0
0.34705774
0
0.3623572
-9.3106886e-15
0.37785158
0
0.39407272
0
0.41232532
0
0.43341515
8.0894287e-15
0.45682778
7.8090938e-15
0.48174868
-2.2623752e-14
0.50736066
0.015759371
0.5290107
0.0097295317
0.55451188
0.004468579
0.58638096
0.081245291
0
0.076986127
-0.00021389052
0.073034624
-0.00041099301
0.068699609