/*--------------------------------*- C++ -*----------------------------------*\
| =========                 |                                                 |
| \\      /  F ield         | OpenFOAM: The Open Source CFD Toolbox           |
|  \\    /   O peration     | Version:  v2012                                 |
|   \\  /    A nd           | Website:  www.openfoam.com                      |
|    \\/     M anipulation  |                                                 |
\*---------------------------------------------------------------------------*/
FoamFile
{
    version     2.0;
    format      ascii;
    class       volScalarField;
    location    "33.235017676257776";
    object      p;
}
// * * * * * * * * * * * * * * * * * * * * * * * * * * * * * * * * * * * * * //

dimensions      [0 2 -2 0 0 0 0];


internalField   nonuniform List<scalar> 
9200
(
0.0057163603
0.0059396623
0.0040561205
0.0059162317
0.0047513407
0.0099091514
0.0061994506
0.0053905324
0.010919389
0.013541369
0.0060793321
0.0068007342
0.011688909
0.014429836
0.017246908
0.005834074
0.0084205428
0.01318073
0.015350511
0.018156529
0.020256069
0.0053656804
0.010611413
0.014779565
0.016924737
0.019165747
0.021276228
0.022785646
0.0045802538
0.013011523
0.016674502
0.018675119
0.020737269
0.022297061
0.024189754
0.025339426
0.0035388938
0.015447769
0.018620052
0.020713576
0.022502211
0.02383989
0.025075647
0.026344421
0.027439684
0.0019909489
0.017558948
0.020531519
0.022863596
0.024487433
0.025604551
0.026569521
0.027395798
0.028266624
0.029171528
-0.00064534034
0.019104211
0.022287504
0.025031778
0.026563319
0.027560659
0.028331842
0.028878573
0.029381983
0.029904094
0.03058493
-0.0033938801
0.021387641
0.024007763
0.027153602
0.028636285
0.029615005
0.030248922
0.030654717
0.030848189
0.031054114
0.031259508
0.031712746
-0.0059546854
0.024397613
0.025948248
0.029218487
0.030667083
0.031658479
0.032266843
0.032547934
0.032648088
0.032502991
0.032430956
0.032343641
0.032581932
-0.0085619684
0.026717209
0.027929295
0.031283225
0.032623299
0.033662407
0.034252977
0.03454942
0.0345369
0.034334585
0.033866569
0.033527449
0.033172592
0.033217327
-0.01101747
0.028627406
0.029748709
0.033291319
0.034499927
0.035572824
0.036186415
0.036501654
0.036546657
0.036242393
0.035736902
0.034950983
0.034358555
0.033764907
0.033643143
-0.013168487
0.030099701
0.031350734
0.03514288
0.036256022
0.037377177
0.038002615
0.03838657
0.03849428
0.038294341
0.03768729
0.036863144
0.035765515
0.034939036
0.034140576
0.033884595
-0.014943783
0.031108629
0.032660148
0.036761884
0.037852267
0.039051353
0.039689908
0.040126659
0.040360702
0.040284865
0.039818778
0.038874187
0.037715044
0.036317503
0.035284978
0.034321452
0.033967163
-0.016344071
0.031698235
0.033642041
0.038126455
0.039261524
0.040599552
0.041235798
0.041703688
0.042051176
0.042191377
0.041909115
0.041119343
0.039794581
0.038289895
0.036615298
0.03541433
0.034331021
0.033917474
-0.017517168
0.031915685
0.034305628
0.039294724
0.040459564
0.042027521
0.042653814
0.043099693
0.043532133
0.043899522
0.043934663
0.043367554
0.042175962
0.04043137
0.038584779
0.036669578
0.035347768
0.034194536
0.033762119
-0.018478741
0.031618943
0.034545544
0.040324241
0.041456083
0.04338066
0.043971306
0.044323578
0.044766634
0.045353335
0.045763573
0.045600188
0.04462836
0.042953301
0.040765269
0.038599451
0.036495122
0.0351086
0.033938404
0.033527927
-0.01930743
0.030879175
0.034415825
0.04102559
0.042117387
0.04469819
0.045248967
0.045403967
0.045743104
0.046485005
0.04731822
0.047676002
0.047147074
0.045633839
0.043409579
0.040779532
0.038339204
0.036111074
0.034722714
0.033589733
0.033240781
-0.020039663
0.029604518
0.033766716
0.041127354
0.042633352
0.046027914
0.046524698
0.046387167
0.04646857
0.047246243
0.048499012
0.049504395
0.049592556
0.048491497
0.046312504
0.043504399
0.040464674
0.037816183
0.035541195
0.034217723
0.033175627
0.032925652
-0.020654649
0.027670349
0.032646482
0.040448322
0.043536918
0.047546931
0.047909353
0.047325694
0.046964571
0.047598333
0.049216707
0.050963587
0.051874775
0.051400259
0.049523249
0.046590891
0.043206123
0.039821202
0.037050012
0.034813039
0.033622565
0.032722562
0.032605574
-0.021191182
0.024941092
0.031017529
0.039272108
0.044723197
0.049156831
0.0494976
0.048310417
0.047275908
0.047513361
0.049380542
0.051934667
0.05386553
0.054284552
0.052939327
0.050124164
0.046405769
0.042497103
0.038861129
0.03606729
0.033957434
0.032966357
0.032255755
0.032301808
-0.021837817
0.021184421
0.028842195
0.037952172
0.045682659
0.050983455
0.051249592
0.049380897
0.047456083
0.04697882
0.048899721
0.052288308
0.055435382
0.057027163
0.05651196
0.054032234
0.050186636
0.045712436
0.041376525
0.037607771
0.034900748
0.033007057
0.03227779
0.031798601
0.032033246
-0.022649519
0.016014285
0.026090318
0.036517711
0.046070932
0.053064843
0.053254142
0.050620408
0.047556735
0.045986468
0.047682637
0.0518857
0.056438009
0.05950806
0.060148926
0.058301004
0.05451091
0.049627207
0.044490061
0.039860893
0.036094833
0.033587591
0.0319954
0.031584068
0.031372341
0.031815818
-0.023477085
0.0090570125
0.022827141
0.034698353
0.045612912
0.055243372
0.055586614
0.052054772
0.047639056
0.044540751
0.045630571
0.050578374
0.056713789
0.061587129
0.063755183
0.062872293
0.059403228
0.05423816
0.048395152
0.042743159
0.037983112
0.034364238
0.032167782
0.030955385
0.030910508
0.030995558
0.03166241
-0.024013511
0.00034069542
0.019052563
0.03236405
0.044348469
0.057476719
0.058186327
0.053662175
0.047749075
0.042653216
0.042637414
0.048200647
0.056088455
0.063111698
0.067216365
0.067685488
0.064843379
0.05960902
0.05312082
0.04647576
0.040500866
0.035789743
0.032463722
0.030682204
0.029918518
0.030279764
0.030684064
0.031585556
-0.023871718
-0.009534914
0.014697371
0.029568602
0.042161276
0.059722232
0.060988461
0.055424627
0.04791048
0.04033613
0.038582857
0.04456891
0.054365479
0.063910536
0.070405829
0.072661246
0.070809071
0.065757966
0.058766904
0.05111514
0.043889831
0.037813608
0.033337697
0.03044414
0.029171061
0.028913821
0.029711741
0.030451065
0.031595437
-0.022909296
-0.019905827
0.0090845236
0.026384411
0.038770519
0.061839651
0.063909259
0.057271666
0.048108544
0.037604833
0.033326691
0.039470256
0.051331972
0.063788943
0.073179707
0.077706084
0.077257483
0.072700836
0.065387304
0.056792023
0.048227465
0.040690034
0.034748702
0.030690402
0.028357036
0.027672413
0.027967278
0.029223126
0.03030714
0.031691468
-0.020572814
-0.030815965
0.0021232434
0.022348525
0.034004764
0.063801915
0.066776182
0.059082974
0.048292758
0.034462505
0.026702347
0.032652808
0.046736241
0.062536652
0.075374605
0.082710171
0.084127594
0.080429885
0.073033674
0.063590928
0.053667682
0.044509825
0.036955108
0.031385012
0.027914219
0.026252399
0.026221021
0.027101311
0.028827252
0.030259194
0.031872108
-0.017866395
-0.042842534
-0.0061816184
0.017242902
0.028476965
0.065235552
0.069399152
0.060685543
0.048331253
0.03089359
0.018520066
0.02381323
0.040298891
0.059892389
0.076812478
0.087545344
0.091337688
0.088914076
0.081730681
0.071594341
0.060318391
0.049440984
0.040053021
0.032782661
0.027807804
0.025075018
0.024176829
0.024847626
0.02633459
0.028534311
0.030311305
0.032163232
-0.016549257
-0.054908438
-0.016083119
0.010848001
0.022340909
0.066140896
0.07128197
0.061862198
0.048089283
0.026844791
0.0085614714
0.012594164
0.031698681
0.05558635
0.077270259
0.092067064
0.098780802
0.098093407
0.091474952
0.080855994
0.068286138
0.055605475
0.044214499
0.034976991
0.028281896
0.024103623
0.022235352
0.022172292
0.023578447
0.025681965
0.028352176
0.030467492
0.032579114
-0.016776257
-0.064271206
-0.028457737
0.0028563813
0.015429944
0.065953614
0.072004776
0.062234659
0.047376359
0.022305139
-0.0033777303
-0.0014463927
0.020561081
0.049269689
0.076526014
0.096097135
0.10632492
0.10787212
0.10222551
0.091397906
0.07764809
0.063124899
0.049565122
0.038134213
0.029420862
0.023566183
0.020356033
0.019452399
0.02027524
0.022435062
0.025154721
0.028285658
0.030730259
0.03302819
-0.018580188
-0.071723963
-0.041652033
-0.0075865228
0.0068892587
0.065220035
0.070715165
0.061367939
0.04593856
0.017010226
-0.017596532
-0.018858434
0.0064245965
0.040523248
0.074247172
0.099458844
0.11380182
0.11811696
0.1138955
0.10319856
0.088448686
0.072091724
0.056229854
0.042372179
0.031375975
0.023532462
0.018746692
0.016642292
0.016776484
0.018516234
0.02143435
0.024760732
0.028335519
0.031095624
0.033450407
-0.021594733
-0.077614902
-0.055176321
-0.019072615
-0.0038600267
0.062191168
0.068230835
0.058523784
0.043553817
0.011085536
-0.034364664
-0.040305876
-0.011321105
0.028884492
0.07022471
0.10189451
0.12102837
0.12864753
0.12634751
0.11618313
0.10068634
0.08256655
0.064305544
0.047807191
0.034246984
0.024131491
0.017459063
0.013927243
0.01303101
0.014250303
0.016919761
0.020588746
0.02450453
0.028500942
0.031557379
0.034003985
-0.024794161
-0.082011579
-0.068280212
-0.03111287
-0.016439396
0.057278003
0.062145709
0.054175329
0.039805003
0.0037819355
-0.052853265
-0.065784047
-0.033055833
0.013827234
0.063817537
0.10315389
0.1277457
0.1392469
0.13938392
0.13021612
0.11430251
0.094565711
0.073859761
0.054526344
0.038128361
0.02543608
0.01659505
0.011339534
0.0092006246
0.009580744
0.011908546
0.015504489
0.019906533
0.024387782
0.028782383
0.032113838
0.03473502
-0.027363195
-0.085688226
-0.08063919
-0.043061192
-0.030298135
0.050017909
0.05405976
0.046085585
0.034852256
-0.0046681674
-0.073274693
-0.095443623
-0.058554688
-0.004754278
0.054655119
0.10293249
0.13375038
0.1496305
0.15275342
0.14509298
0.12917354
0.10804933
0.084917939
0.062589738
0.043083107
0.027507615
0.016194609
0.0089519113
0.0052986654
0.0046462612
0.006339402
0.0097781715
0.014283588
0.019392349
0.024409957
0.029178835
0.032764849
0.03556511
-0.028702379
-0.088607493
-0.091875274
-0.054644578
-0.044512842
0.040289714
0.041252345
0.036243336
0.027711908
-0.014638243
-0.094126781
-0.12828443
-0.087784371
-0.026935547
0.042332583
0.10089544
0.13861967
0.15951702
0.1661371
0.16054515
0.14510205
0.1229118
0.0974557
0.072019416
0.04914688
0.030370511
0.0162777
0.0067691842
0.0013694961
-0.00055672903
0.0003291854
0.0033445046
0.0078788203
0.013265344
0.019047581
0.024568542
0.02968553
0.033510343
0.036503116
-0.029227669
-0.090000557
-0.10165978
-0.065565186
-0.057905615
0.027120883
0.024464094
0.021300351
0.020254441
-0.023462235
-0.11638232
-0.16282341
-0.12068131
-0.051430159
0.026911462
0.096700683
0.14216548
0.16850262
0.17919865
0.17623306
0.16182031
0.1389755
0.11138641
0.082794293
0.056318422
0.034017877
0.016818718
0.0047658743
-0.0026157144
-0.0060089957
-0.0061395333
-0.0036997355
0.00062379988
0.006223639
0.012453744
0.018870792
0.024859161
0.030295027
0.034339012
0.037539412
-0.089926339
-0.028706734
-0.1099175
-0.075531546
-0.070245141
0.010295447
0.0031665289
0.00076036559
0.0089392231
-0.030888516
-0.134263
-0.19907764
-0.15754384
-0.078749332
0.00865097
0.090394711
0.14398685
0.1763251
0.19149163
0.19177921
0.17898603
0.15599032
0.12655756
0.094837846
0.064561187
0.038403073
0.017751391
0.0028596743
-0.0067266864
-0.011768002
-0.013067684
-0.011382292
-0.0074029038
-0.0018036434
0.0048200669
0.011849022
0.018857944
0.025276245
0.030999604
0.035228902
0.038622295
-0.11577278
-0.088255937
-0.026894868
-0.0842835
-0.080992643
-0.00926232
-0.02305612
-0.02438242
-0.0074654571
-0.03906349
-0.15311724
-0.23093684
-0.20174596
-0.10994024
-0.013800169
0.081998268
0.14387135
0.18251239
0.20266306
0.20673772
0.19621018
0.1736313
0.14274741
0.10801928
0.073789157
0.043448195
0.018962159
0.00091417761
-0.011102386
-0.017941453
-0.020533623
-0.019718395
-0.016235871
-0.0107544
-0.0039263325
0.0036705161
0.011448047
0.019002624
0.025813142
0.031794521
0.036182762
0.039729646
-0.091720269
-0.1186878
-0.084835853
-0.023671973
-0.089279546
-0.030718017
-0.05292444
-0.053125437
-0.028799589
-0.048707835
-0.17160429
-0.26890382
-0.24795327
-0.14923676
-0.041099105
0.071157747
0.14171194
0.18685786
0.21216909
0.22071714
0.21304272
0.19152242
0.15966343
0.12214538
0.083877745
0.049028202
0.020302758
-0.0012692596
-0.015953119
-0.024717788
-0.02867234
-0.02879794
-0.025898757
-0.020667104
-0.013738285
-0.0057391931
0.0027728851
0.011245149
0.019297282
0.026461136
0.032672242
0.037192841
0.040856852
-0.09391721
-0.096655985
-0.11845527
-0.079462334
-0.019102901
-0.052952716
-0.085155419
-0.085064593
-0.053785516
-0.059477806
-0.1907601
-0.30592427
-0.30355472
-0.19442423
-0.065575304
0.058237051
0.13731706
0.18886011
0.22055142
0.23320192
0.22906124
0.20922304
0.17696098
0.13696251
0.094647318
0.054995548
0.021572342
-0.0039364348
-0.021570597
-0.032374448
-0.037707922
-0.038769753
-0.036483343
-0.031568775
-0.024656144
-0.016346998
-0.0072428266
0.0021215497
0.011233279
0.01973507
0.027211353
0.033622447
0.038257626
0.042003104
-0.074808018
-0.094759413
-0.097528185
-0.11477797
-0.071894284
-0.013692986
-0.11927321
-0.11929222
-0.080722059
-0.07055405
-0.2116221
-0.343246
-0.3585219
-0.25053588
-0.091166836
0.045041078
0.13155832
0.18870712
0.22577512
0.24401809
0.24375194
0.22631022
0.19422775
0.15216763
0.10587747
0.061150459
0.022560079
-0.0073981772
-0.028316178
-0.041292537
-0.047968614
-0.049874828
-0.04813785
-0.043544189
-0.036706678
-0.028194095
-0.018580264
-0.0084427016
0.0017088943
0.01140352
0.020307722
0.028055749
0.034633011
0.039368738
0.043167798
-0.15429129
-0.095642856
-0.092406807
-0.094022133
-0.10750467
-0.062115049
-0.0078347548
-0.15499959
-0.10817422
-0.082066765
-0.23333842
-0.38051107
-0.415162
-0.30717675
-0.12992598
0.022590394
0.12580682
0.186625
0.22916594
0.25233347
0.25684378
0.24227175
0.21106432
0.1673937
0.11730305
0.067283166
0.022995014
-0.011978952
-0.036638996
-0.051952501
-0.059907004
-0.06246748
-0.061099182
-0.056727574
-0.049960308
-0.041304755
-0.031281135
-0.020443442
-0.0093471076
0.0015268833
0.011745408
0.021003323
0.028983732
0.035697052
0.040520196
0.044351823
-0.19086474
-0.18882482
-0.11455037
-0.085957542
-0.08666831
-0.09681339
-0.05005027
-0.0017566683
-0.13555507
-0.096277804
-0.2553519
-0.41523071
-0.47064104
-0.364541
-0.1756271
-0.0080574381
0.10938551
0.18462331
0.2293047
0.25877655
0.26766338
0.25681172
0.22696674
0.18228213
0.12861133
0.073139426
0.022633487
-0.018081923
-0.047025247
-0.064952372
-0.074106201
-0.077041464
-0.075718577
-0.071331343
-0.064526465
-0.055730498
-0.045366183
-0.033923645
-0.021944825
-0.0099647022
0.0015650103
0.012246896
0.021806601
0.029985932
0.036812072
0.041707921
0.045555323
-0.16265622
-0.22498229
-0.21974321
-0.1315115
-0.074839947
-0.076450425
-0.082765806
-0.035375041
0.004334326
-0.11460779
-0.27382339
-0.44432057
-0.52152001
-0.42065724
-0.22541357
-0.043496465
0.088185652
0.17212553
0.22967601
0.2613097
0.27659263
0.26924521
0.24164881
0.19636171
0.13949444
0.078453629
0.021171999
-0.026049256
-0.060067204
-0.080972869
-0.091299812
-0.094245521
-0.092491853
-0.087673917
-0.080576055
-0.071548481
-0.060867008
-0.048902116
-0.036130848
-0.023093301
-0.010306158
0.0018107902
0.012890444
0.022707146
0.031061116
0.037976875
0.0429228
0.046767332
-0.13566882
-0.18787899
-0.25435879
-0.2452168
-0.14635077
-0.06019069
-0.06457606
-0.065690276
-0.018364147
0.0095589857
-0.28448992
-0.46483725
-0.5636871
-0.47235547
-0.27604782
-0.081878363
0.062308398
0.15625611
0.22106112
0.26428732
0.28186556
0.27994558
0.25438091
0.20937845
0.14954253
0.082958467
0.018360266
-0.036326259
-0.076291266
-0.10083638
-0.11236465
-0.11491092
-0.11208236
-0.1062117
-0.098368427
-0.088876069
-0.077824522
-0.065390077
-0.051926882
-0.037913114
-0.023900601
-0.010384152
0.0022375535
0.013662996
0.023707184
0.032211187
0.039178943
0.04414724
0.047962892
-0.28654121
-0.15773243
-0.20749213
-0.27662635
-0.26371072
-0.15765421
-0.04359959
-0.05222935
-0.045762709
0.00077690209
0.014768586
-0.4739934
-0.59316085
-0.51520676
-0.3234596
-0.12236495
0.033739327
0.13559463
0.20907305
0.25832568
0.28731577
0.28695324
0.26559119
0.22059032
0.15854938
0.086327309
0.01391803
-0.049208217
-0.096391274
-0.12534905
-0.13836339
-0.14006793
-0.13535711
-0.12756573
-0.11828245
-0.10789358
-0.096296272
-0.083393426
-0.069321513
-0.05445215
-0.039284241
-0.024391754
-0.010232253
0.0028311961
0.014570321
0.024813081
0.033416276
0.040386943
0.045370108
0.049135563
-0.46977152
-0.27839371
-0.17814053
-0.21746532
-0.29055757
-0.27419843
-0.16323284
-0.025591313
-0.037550873
-0.023731846
0.020889353
0.020180245
-0.60644715
-0.54617693
-0.36444068
-0.16304697
0.0024729533
0.11201207
0.19153648
0.25089482
0.28338304
0.29444591
0.27307417
0.23049215
0.16581687
0.088402528
0.0076016929
-0.065106344
-0.12080378
-0.15554661
-0.17044702
-0.17098318
-0.16341866
-0.15256385
-0.14084339
-0.12887328
-0.11637226
-0.10290943
-0.088292662
-0.072679015
-0.0564907
-0.040275614
-0.024595663
-0.0098675176
0.0036028528
0.015624327
0.025996508
0.034620945
0.041582022
0.046615735
0.050379855
-0.60099445
-0.44987526
-0.26208783
-0.1944098
-0.22010415
-0.29578178
-0.27645633
-0.16293404
-0.0086970059
-0.020385639
-0.0018185875
0.040408523
0.025728249
-0.56314084
-0.39411577
-0.20193615
-0.030245044
0.084702169
0.17100587
0.23626409
0.2805921
0.29211395
0.28153644
0.23666394
0.1719092
0.088606557
-0.00074124525
-0.08421166
-0.15025297
-0.19216303
-0.21004146
-0.20913784
-0.19765591
-0.18228224
-0.1667659
-0.15220129
-0.13820012
-0.12393604
-0.10878251
-0.092551349
-0.075480171
-0.058073911
-0.04091702
-0.024531538
-0.0092722785
0.004571432
0.016785195
0.027172798
0.035794369
0.042817441
0.048005264
0.051741558
-0.56356595
-0.5750401
-0.41583476
-0.23932577
-0.20025361
-0.21893314
-0.29270089
-0.27115223
-0.15851765
0.0052332152
-0.0026247574
0.018752311
0.057531801
0.032190701
-0.40981422
-0.23608776
-0.06371367
0.054197528
0.14593836
0.21814327
0.27006626
0.29547822
0.28044451
0.24432018
0.17430643
0.087534397
-0.011487479
-0.10680965
-0.18493393
-0.23645508
-0.25838498
-0.25632042
-0.23976011
-0.2181101
-0.19700144
-0.17841756
-0.16199703
-0.14648799
-0.13070281
-0.1139664
-0.096194615
-0.077759306
-0.059243873
-0.041229162
-0.02417397
-0.0084190321
0.0056836383
0.017930118
0.028295994
0.037043407
0.044290802
0.04946749
0.053197684
-0.41193228
-0.54592462
-0.53084382
-0.36942612
-0.20953732
-0.19168427
-0.21422449
-0.28202227
-0.25931846
-0.15061767
0.016808479
0.0147593
0.036448001
0.074240244
0.039845733
-0.26021475
-0.097775185
0.020688571
0.11663672
0.19486415
0.25436652
0.29002849
0.29011516
0.24375747
0.17859782
0.082789926
-0.024114032
-0.13301232
-0.22554262
-0.28875395
-0.31743938
-0.3144139
-0.29177561
-0.2617634
-0.2328031
-0.208267
-0.18808772
-0.17060111
-0.1539376
-0.13675982
-0.11849904
-0.099262085
-0.079563845
-0.060022176
-0.041176706
-0.023485265
-0.0073773049
0.0067711767
0.018994721
0.029536391
0.038704963
0.045799905
0.050995647
0.054715021
-0.27155459
-0.40170389
-0.51137247
-0.47158746
-0.31401726
-0.17321393
-0.17028448
-0.20418738
-0.26452684
-0.24209489
-0.13947802
0.028311767
0.030490273
0.053820286
0.089662485
0.048557153
-0.13108903
-0.015149094
0.08289376
0.16608952
0.23336067
0.27703431
0.29081413
0.25956105
0.17735526
0.080025359
-0.040575301
-0.1625977
-0.27183931
-0.3506151
-0.38798339
-0.38605743
-0.3561494
-0.31537918
-0.27572922
-0.24274323
-0.21696074
-0.19636806
-0.17834855
-0.16070176
-0.14216879
-0.12242858
-0.10180704
-0.080914192
-0.060359546
-0.040709244
-0.022553827
-0.0063697004
0.0077473956
0.020234502
0.031407721
0.040363742
0.047394043
0.052579079
0.05628329
-0.16132111
-0.27246538
-0.38266529
-0.46209245
-0.40322041
-0.25351967
-0.13173256
-0.14342144
-0.18728979
-0.24184256
-0.21952372
-0.12794095
0.040418653
0.045394026
0.069880787
0.10278905
0.057724359
-0.052356533
0.044844871
0.13151907
0.20532565
0.25849007
0.28138259
0.26674746
0.19862868
0.076107792
-0.055714973
-0.19672815
-0.32443796
-0.42136876
-0.4730065
-0.47293617
-0.43591718
-0.38163971
-0.32780489
-0.28310903
-0.24925762
-0.22399401
-0.20379959
-0.1854989
-0.16689024
-0.14699683
-0.12581512
-0.10384668
-0.081744603
-0.060189188
-0.039936211
-0.021665453
-0.0055086521
0.0089683863
0.022402621
0.033221836
0.042127149
0.0490441
0.054219879
0.057904315
-0.09017707
-0.18801311
-0.26654646
-0.35775594
-0.40374245
-0.33252782
-0.19301265
-0.086808266
-0.1153504
-0.16544129
-0.2144154
-0.19781725
-0.11371245
0.049948537
0.059317268
0.083657122
0.11253159
0.066541587
0.0027842238
0.090707304
0.16971084
0.23185164
0.26523021
0.2618089
0.21193223
0.10134629
-0.065635891
-0.23142984
-0.38312386
-0.50349199
-0.57161304
-0.57977525
-0.53398436
-0.46362793
-0.39153294
-0.33107945
-0.28587617
-0.25374488
-0.23018273
-0.21080164
-0.19223557
-0.17259312
-0.15131165
-0.12867077
-0.10529374
-0.08196833
-0.059642796
-0.039215468
-0.020962253
-0.0043163442
0.011486125
0.024452026
0.03517243
0.043939297
0.050758148
0.055915942
0.059575985
-0.043101267
-0.12853351
-0.20980668
-0.25954791
-0.32885159
-0.34361874
-0.26517923
-0.13638957
-0.041885039
-0.083967285
-0.14026569
-0.18925845
-0.17194667
-0.097618683
0.055386482
0.07192704
0.094488838
0.11757602
0.074493841
0.043332613
0.12556328
0.19539571
0.24039553
0.2483177
0.21193665
0.11963834
-0.039564929
-0.25268269
-0.44606005
-0.59404926
-0.68954849
-0.70603161
-0.65620823
-0.56529187
-0.4698087
-0.38869384
-0.32799235
-0.28617744
-0.25738771
-0.23620317
-0.21767337
-0.19869246
-0.17788909
-0.15511512
-0.13088052
-0.10603583
-0.081739939
-0.05915816
-0.038722164
-0.019824592
-0.0013684431
0.01381502
0.02667418
0.037164552
0.045817352
0.05253195
0.05766587
0.061297043
-0.011158892
-0.093090979
-0.16614812
-0.22576839
-0.25364275
-0.29655649
-0.2871702
-0.20304799
-0.086353637
-0.0021354641
-0.051280811
-0.11765165
-0.16087935
-0.14508468
-0.077935654
0.058009733
0.081813316
0.10208781
0.1164452
0.081928258
0.071718991
0.14777177
0.20374601
0.22527822
0.20172567
0.12417322
-0.018646385
-0.2318856
-0.48622342
-0.69585369
-0.81965832
-0.86180005
-0.80312703
-0.69215529
-0.56699287
-0.45847142
-0.37724095
-0.32138719
-0.28545258
-0.26126713
-0.2425479
-0.22462329
-0.20496626
-0.18276809
-0.15825717
-0.13229857
-0.10624867
-0.081583909
-0.058946147
-0.037672411
-0.016374615
0.0013153051
0.016363838
0.028923197
0.039227979
0.047754888
0.054363864
0.059467358
0.063066195
0.0066863122
-0.074193982
-0.14653433
-0.20324005
-0.23906276
-0.24881036
-0.26325691
-0.23560591
-0.14899047
-0.042767077
0.027546125
-0.021081267
-0.095119234
-0.13108933
-0.11685172
-0.057617266
0.060325359
0.087956348
0.10615762
0.10805601
0.085995663
0.086558945
0.15304106
0.18890251
0.18069557
0.1172917
-0.010904777
-0.21303697
-0.48104645
-0.76532784
-0.97468992
-1.0360646
-0.98889968
-0.84656963
-0.68717521
-0.54428001
-0.43550349
-0.36124987
-0.31435477
-0.28556981
-0.26612985
-0.24954573
-0.23178179
-0.21103204
-0.18703592
-0.16054905
-0.13311678
-0.10654753
-0.081748345
-0.05803654
-0.033643331
-0.013264804
0.0042746717
0.018920777
0.031246054
0.041352387
0.049750954
0.056250258
0.061318154
0.06488236
0.0091834225
-0.072483065
-0.14615722
-0.20432247
-0.24112018
-0.25329445
-0.24498127
-0.23462824
-0.19039354
-0.10492575
-0.009237964
0.053572514
0.00096630901
-0.072009063
-0.10039434
-0.087532643
-0.037928409
0.06253041
0.090495456
0.10627809
0.094987518
0.082630885
0.085022973
0.13604419
0.14486313
0.098503385
-0.015450524
-0.20485221
-0.47255206
-0.79264727
-1.0902004
-1.2565773
-1.2003661
-1.0446138
-0.83471753
-0.64912736
-0.5052525
-0.40658133
-0.34467
-0.30868797
-0.28759963
-0.27247903
-0.25737379
-0.23910917
-0.21664085
-0.19044734
-0.16218945
-0.1340411
-0.10721765
-0.081054489
-0.053360183
-0.03002543
-0.0098120573
0.0072158914
0.021554858
0.033628114
0.043537241
0.051800902
0.058187952
0.063217211
0.066743999
-0.0041721295
-0.08898851
-0.16779064
-0.22924586
-0.26743632
-0.28111141
-0.26916146
-0.2414146
-0.211483
-0.15656203
-0.072606017
0.022335882
0.068593966
0.021015026
-0.049579258
-0.069321772
-0.060493342
-0.019247197
0.062885851
0.090115609
0.10230503
0.081073721
0.073039883
0.062942134
0.090512348
0.063657485
-0.032733505
-0.20907133
-0.46985556
-0.80898512
-1.1839603
-1.4426463
-1.479091
-1.2722207
-1.023165
-0.77907004
-0.58933068
-0.45870304
-0.37692053
-0.33047511
-0.30611418
-0.29228941
-0.28058143
-0.26597951
-0.24628993
-0.22147323
-0.19319272
-0.16396859
-0.1353913
-0.10685096
-0.075677264
-0.049149334
-0.025985714
-0.0064105201
0.010235925
0.024245748
0.036070209
0.045776187
0.053900964
0.060176093
0.065165155
0.068647511
-0.034943961
-0.12082686
-0.21230915
-0.2836977
-0.32580376
-0.33677304
-0.32257296
-0.28568918
-0.24042213
-0.19626108
-0.13306891
-0.041421082
0.043996079
0.082100133
0.038224979
-0.028810256
-0.041562366
-0.038422159
-0.0020592198
0.061807568
0.086890772
0.095135339
0.067611588
0.061381675
0.013819271
0.0085263641
-0.066719144
-0.22650586
-0.47908475
-0.8249824
-1.2592228
-1.6652953
-1.7537864
-1.5780764
-1.2404316
-0.93940885
-0.69257448
-0.52004969
-0.41167834
-0.35081935
-0.32095548
-0.30775819
-0.3000399
-0.29038487
-0.27497015
-0.25290758
-0.22568777
-0.19613178
-0.16623465
-0.1355116
-0.10074905
-0.070787439
-0.044425295
-0.022038195
-0.0029288984
0.013307736
0.026996111
0.03856448
0.048064493
0.056052028
0.062216964
0.067156664
0.070591249
-0.089461372
-0.16502093
-0.27071748
-0.36797542
-0.42442318
-0.43823855
-0.41388987
-0.36606865
-0.3047673
-0.24563347
-0.18788248
-0.10766432
-0.016733116
0.062742555
0.092553419
0.051410545
-0.0092621423
-0.020661101
-0.019520088
0.01136191
0.060036326
0.081335535
0.085734373
0.055353091
0.04977647
-0.070693524
-0.12199053
-0.26077474
-0.50148835
-0.85508825
-1.3296196
-1.8763509
-2.1634699
-1.9288317
-1.5390737
-1.1226759
-0.8132534
-0.59258073
-0.4506826
-0.36983162
-0.33142041
-0.31768662
-0.31423524
-0.31082325
-0.30140996
-0.28380486
-0.25905436
-0.23018874
-0.19963019
-0.16706974
-0.1287078
-0.095100388
-0.065280032
-0.039841949
-0.018009977
0.00059751685
0.016436817
0.029796354
0.041105541
0.050404635
0.058262278
0.064298202
0.069189559
0.072573233
-0.17726234
-0.22681314
-0.33259063
-0.46322583
-0.56238958
-0.59369166
-0.56900711
-0.50043472
-0.41437783
-0.33125656
-0.25643737
-0.17396958
-0.08610378
0.0050996606
0.075850474
0.098238401
0.060436202
0.0080170082
-0.0059628517
-0.0042207881
0.020721921
0.057397428
0.074088135
0.074720543
0.044659738
0.039217062
-0.2025632
-0.31671185
-0.54012718
-0.90036828
-1.4252526
-2.0960442
-2.6094864
-2.5021367
-1.915488
-1.3848389
-0.959512
-0.67561958
-0.49389447
-0.38838353
-0.33714638
-0.32085608
-0.3215799
-0.32558838
-0.32407176
-0.3129599
-0.29246293
-0.26564009
-0.23534209
-0.20149796
-0.1596581
-0.12223529
-0.088716252
-0.059968181
-0.035177056
-0.01394609
0.004177947
0.01961198
0.032640511
0.043698531
0.05281084
0.060512538
0.066417419
0.071260013
0.074591845
-0.3108537
-0.31727958
-0.40170756
-0.54784813
-0.70559145
-0.80185721
-0.79557257
-0.72148222
-0.59955122
-0.47320837
-0.36479255
-0.25644283
-0.1607316
-0.066449598
0.02131253
0.083626709
0.099423292
0.065272123
0.020220957
0.0051802767
0.0071150067
0.026785495
0.053962091
0.065923748
0.063393131
0.035520401
0.030267364
-0.39876526
-0.60018441
-0.96194903
-1.5450073
-2.37199
-3.1474316
-3.1967327
-2.5551592
-1.7234329
-1.1544846
-0.77935212
-0.54297958
-0.40568478
-0.33825645
-0.31640478
-0.32041525
-0.33281425
-0.34117432
-0.33889852
-0.32484114
-0.30180342
-0.27300584
-0.23868139
-0.19367197
-0.15232371
-0.11489541
-0.082585663
-0.054572649
-0.030486938
-0.0098324085
0.0077997466
0.022826997
0.035536692
0.046366417
0.055254317
0.062801342
0.068570021
0.073365524
0.07664492
-0.5085796
-0.45100782
-0.49141372
-0.62296919
-0.81833769
-1.0071419
-1.0916861
-1.0353363
-0.89610375
-0.71502329
-0.54257894
-0.38201238
-0.25463626
-0.14734144
-0.05051833
0.032796916
0.086401322
0.096587586
0.065760686
0.027962107
0.013389187
0.015101503
0.030270633
0.049860247
0.057520744
0.052686276
0.027874412
0.022976015
-0.68679992
-1.0447499
-1.6823535
-2.6888293
-3.7875337
-4.1288861
-3.3816403
-2.3451512
-1.4152166
-0.90300863
-0.60497207
-0.42456054
-0.33363032
-0.30380303
-0.30939121
-0.33050533
-0.35070858
-0.35988358
-0.3548641
-0.33778547
-0.3121079
-0.27841002
-0.23077337
-0.18547973
-0.14397564
-0.10786443
-0.076365828
-0.049162579
-0.025751311
-0.0056828081
0.011456861
0.026093551
0.038518181
0.049069748
0.057733772
0.065121788
0.070754668
0.075503269
0.078728488
-0.80090069
-0.64844739
-0.62027424
-0.70583213
-0.89538697
-1.1480319
-1.3702484
-1.4346591
-1.3107211
-1.0894779
-0.84726508
-0.59088982
-0.39463275
-0.25004349
-0.13574617
-0.038152322
0.039306835
0.084587727
0.090113103
0.062843193
0.031925991
0.018896867
0.02037416
0.031654229
0.045293618
0.049324012
0.043029692
0.021576181
0.017193718
-1.1513335
-1.8378371
-3.0166115
-4.4821091
-5.2539452
-4.5202476
-3.1867621
-1.937061
-1.0875965
-0.66870327
-0.44906401
-0.32631129
-0.28158613
-0.28733603
-0.31686793
-0.3504862
-0.37391229
-0.38094629
-0.37247532
-0.3519665
-0.32036581
-0.27093172
-0.22179102
-0.17611277
-0.13597984
-0.10073154
-0.070140037
-0.043710226
-0.02098503
-0.0015026502
0.015165261
0.029457283
0.041533116
0.05180814
0.060240667
0.067473274
0.07297003
0.07766729
0.080837626
-1.2764317
-0.94378549
-0.81097552
-0.8218867
-0.96145812
-1.2181344
-1.5344629
-1.7920293
-1.8234559
-1.6075191
-1.3050502
-0.9608318
-0.62636018
-0.40245749
-0.24515527
-0.12574775
-0.029752304
0.041070382
0.078622951
0.080773815
0.057714257
0.032962166
0.022062529
0.023503766
0.031347995
0.040621401
0.041633046
0.034571207
0.016464655
0.012717591
-2.00261
-3.3194686
-5.1951016
-6.4500914
-6.0207266
-4.4138489
-2.7149202
-1.4808105
-0.79077741
-0.46529038
-0.318777
-0.25260377
-0.25237654
-0.29009766
-0.33837454
-0.37877793
-0.40123285
-0.40452826
-0.39172879
-0.36411256
-0.31405753
-0.26131391
-0.21145586
-0.16711569
-0.12785679
-0.093595403
-0.063871782
-0.038231112
-0.0161921
0.0027289293
0.018985189
0.032852802
0.044581304
0.054570838
0.062776321
0.069855999
0.075207884
0.079847828
0.082972034
-2.1650591
-1.4184787
-1.0999452
-0.99725784
-1.0526184
-1.2527181
-1.5836646
-1.967615
-2.2628371
-2.2399222