/*--------------------------------*- C++ -*----------------------------------*\
| =========                 |                                                 |
| \\      /  F ield         | OpenFOAM: The Open Source CFD Toolbox           |
|  \\    /   O peration     | Version:  v2012                                 |
|   \\  /    A nd           | Website:  www.openfoam.com                      |
|    \\/     M anipulation  |                                                 |
\*---------------------------------------------------------------------------*/
FoamFile
{
    version     2.0;
    format      ascii;
    class       surfaceScalarField;
    location    "33.235017676257776";
    object      phi;
}
// * * * * * * * * * * * * * * * * * * * * * * * * * * * * * * * * * * * * * //

dimensions      [0 3 -1 0 0 0 0];
oriented        oriented;


internalField   nonuniform List<scalar> 
18180
(
-0.022005227
-3.4557858
-0.042815895
-3.2238288
-0.013409609
-3.4871581
-0.061200216
-3.0036964
-0.025155682
-3.2529359
-0.0098974672
-3.5183827
-0.07718309
-2.7932333
-0.034686859
-3.031047
-0.018179559
-3.2820985
-0.0062377701
-3.5494964
-0.08984811
-2.5942118
-0.041597138
-2.8195106
-0.024702167
-3.0582928
-0.0112009
-3.3118924
-0.0036119701
-3.5807942
-0.098332254
-2.40675
-0.045411727
-2.6208224
-0.02894425
-2.8461213
-0.014646199
-3.0870268
-0.0062193399
-3.34205
-0.0015360771
-3.6114789
-0.10167115
-2.2311763
-0.045866557
-2.4345321
-0.030578447
-2.6475668
-0.016138356
-2.8742828
-0.0075870974
-3.1164745
-0.0023313895
-3.3718123
7.6709533e-05
-3.6416041
-0.099041185
-2.0673576
-0.042668235
-2.260647
-0.029280797
-2.4621593
-0.01547897
-2.6755816
-0.0073741664
-2.9033182
-0.0021334297
-3.1457952
0.00061918449
-3.400837
0.00125746
-3.6704733
-0.089802115
-1.9154167
-0.035574758
-2.0990112
-0.024877724
-2.2897429
-0.012539906
-2.4904729
-0.0054540367
-2.7043317
-0.00067975556
-2.9324788
0.0019731676
-3.174369
0.0029058948
-3.4287379
0.00217356
-3.6983621
-0.073895195
-1.7751924
-0.024521361
-1.9494465
-0.017433967
-2.1296756
-0.0073605187
-2.318653
-0.0017804295
-2.5191183
0.0021100892
-2.7332299
0.0042987376
-2.9607801
0.0051137582
-3.2017129
0.0046672449
-3.4555614
0.0029068884
-3.7249006
-0.051228404
-1.6469911
-0.0094548856
-1.8117576
-0.0072732309
-1.9814503
-0.00011026644
-2.1592473
0.0035590163
-2.3472116
0.0062353428
-2.5476212
0.0076505492
-2.7612894
0.0080782402
-2.987848
0.0075273215
-3.2277949
0.0060242556
-3.4810932
0.0034751162
-3.7503249
-0.022470954
-1.5296956
0.0084860719
-1.6850403
0.0049133386
-1.8444582
0.0089084492
-2.0115121
0.010374414
-2.187795
0.011585209
-2.3753838
0.012014193
-2.575362
0.011814029
-2.7880243
0.010959948
-3.013516
0.0093856734
-3.2525895
0.0070587155
-3.5054149
0.0038946024
-3.7743084
0.011057873
-1.4225386
0.028137269
-1.5681459
0.018656322
-1.7180111
0.019307011
-1.8747053
0.018372418
-2.0399704
0.017977456
-2.2155548
0.017285237
-2.4025415
0.016309152
-2.6015911
0.014960427
-2.8132669
0.013162258
-3.0378393
0.010798578
-3.27608
0.0078275801
-3.5284026
0.0041899636
-3.797162
0.047536871
-1.3250787
0.049081047
-1.4610427
0.033997697
-1.6014769
0.030702382
-1.7481057
0.027197955
-1.902798
0.025162579
-2.0671623
0.023313606
-2.2420148
0.021475268
-2.428077
0.019519043
-2.6262842
0.017346695
-2.8371282
0.014828578
-3.060787
0.011845752
-3.2983002
0.008373395
-3.550197
0.0043829013
-3.8186482
0.085127539
-1.2364652
0.070767386
-1.363152
0.050366062
-1.4942162
0.042627356
-1.6310001
0.036460861
-1.7755115
0.032857828
-1.9293018
0.029909357
-2.0929352
0.027200536
-2.2668106
0.024564668
-2.4521425
0.021924302
-2.6497448
0.019139083
-2.8596906
0.016060146
-3.0824991
0.012587629
-3.3193114
0.0087304025
-3.5707533
0.0044896579
-3.8389944
0.12235279
-1.1557262
0.092597179
-1.2735693
0.067012505
-1.3954753
0.054558948
-1.5226998
0.045775223
-1.6573807
0.040762063
-1.8011187
0.036864778
-1.9543478
0.033354223
-2.1170388
0.030016609
-2.2902262
0.026835142
-2.4750944
0.023707673
-2.6719175
0.020456094
-2.8809915
0.016931924
-3.1030043
0.013072392
-3.3391609
0.0089273009
-3.5901422
0.0045236971
-3.8580048
0.15814493
-1.0819267
0.11408144
-1.1914334
0.083355937
-1.3045238
0.066033929
-1.422518
0.054747383
-1.5477124
0.048560583
-1.68183
0.043968348
-1.8253366
0.039808235
-1.9777698
0.035792254
-2.1396987
0.03201616
-2.3124951
0.028476131
-2.4968074
0.025002423
-2.6928382
0.021385814
-2.9010897
0.017502611
-3.12237
0.013339504
-3.3578245
0.0089886558
-3.6083339
0.0044968782
-3.8759381
0.19189656
-1.0141231
0.13485033
-1.1159271
0.098977826
-1.2206658
0.076652617
-1.3297906
0.062993673
-1.445832
0.055936734
-1.5707266
0.051012662
-1.7050776
0.046446592
-1.8480632
0.041824908
-1.9997043
0.037411797
-2.161272
0.033383566
-2.3336429
0.02963447
-2.517236
0.025910159
-2.712531
0.021996535
-2.9200489
0.017819186
-3.1405663
0.013421975
-3.3753853
0.0089356861
-3.6254181
0.0044194451
-3.8926524
0.22326821
-0.95151074
0.15481288
-1.0463852
0.11360013
-1.1432246
0.086069253
-1.2438765
0.070156021
-1.3511075
0.062588564
-1.467146
0.057800922
-1.5928421
0.053172727
-1.7270881
0.048074297
-1.8693446
0.042989879
-2.0205237
0.038378498
-2.1816374
0.034281451
-2.3533892
0.030430078
-2.5364048
0.026509884
-2.7311011
0.022341029
-2.9378936
0.017919507
-3.1577288
0.013347518
-3.3918723
0.0087866694
-3.6414123
0.0043001422
-3.9083315
0.25216831
-0.89346782
0.17390463
-0.98202941
0.12703135
-1.0716201
0.094021382
-1.164181
0.07590945
-1.2629309
0.068225672
-1.3704678
0.064147598
-1.4879736
0.059914762
-1.6141045
0.054534208
-1.7477548
0.048752894
-1.8894128
0.043433251
-2.040022
0.038877786
-2.2005299
0.03485899
-2.3718307
0.030958564
-2.5544535
0.02686019
-2.7485897
0.022459178
-2.9547323
0.017834033
-3.1738784
0.013139511
-3.4073566
0.008557215
-3.6563537
0.0041464695
-3.9228637
0.27866698
-0.8394608
0.19224669
-0.92242297
0.13931789
-1.0053122
0.10030229
-1.0901722
0.080002345
-1.1807794
0.072589127
-1.2801175
0.069873847
-1.3898563
0.066623361
-1.5084708
0.061235473
-1.6342391
0.054745299
-1.7672076
0.048554528
-1.9081172
0.043375031
-2.0579929
0.039107053
-2.2181197
0.035240492
-2.38924
0.031287924
-2.571497
0.027000989
-2.7651205
0.022380265
-2.9706179
0.017587272
-3.1890803
0.012817558
-3.4218091
0.0082607724
-3.6702679
0.0039648484
-3.9364385
0.30294539
-0.78903743
0.20999139
-0.86706322
0.15047557
-0.94383284
0.10488428
-1.0214828
0.082192634
-1.1041288
0.075446971
-1.1956049
0.07482103
-1.2979395
0.073274168
-1.409593
0.068244291
-1.5281708
0.06105691
-1.65323
0.053791015
-1.7852518
0.047751228
-1.9252075
0.043091031
-2.0746623
0.039241142
-2.2347378
0.035512344
-2.405687
0.03145804
-2.5876406
0.026956279
-2.7807658
0.022125289
-2.985607
0.017199015
-3.203319
0.012398503
-3.4353293
0.007908879
-3.6832027
0.0037608755
-3.948983
0.3252468
-0.74168821
0.22734354
-0.81554861
0.16056467
-0.88672164
0.10769213
-0.95759129
0.082197525
-1.0325709
0.076544516
-1.1163918
0.078800031
-1.2117056
0.079859713
-1.316938
0.075662539
-1.4289873
0.06782313
-1.5468777
0.059237682
-1.6707799
0.05201828
-1.8015303
0.046742084
-1.9408298
0.042841638
-2.0902956
0.039401571
-2.250452
0.035717545
-2.4213256
0.031483959
-2.6029904
0.026737928
-2.7955945
0.021709258
-2.9997269
0.016685896
-3.2167072
0.011896817
-3.447922
0.0075117451
-3.6952114
0.0035394477
-3.9606326
0.34575406
-0.69705094
0.24463623
-0.76749415
0.16969415
-0.83362216
0.10871142
-0.89809299
0.0798502
-0.96569643
0.075589687
-1.0420331
0.081691394
-1.1306879
0.086377291
-1.2299909
0.083611217
-1.3361713
0.075220918
-1.4476182
0.065036939
-1.5641279
0.056225471
-1.686353
0.050011013
-1.8160805
0.045924072
-1.9553662
0.042809739
-2.1051113
0.039641205
-2.2654034
0.035858928
-2.4362559
0.031361903
-2.617622
0.026349815
-2.8096324
0.021143905
-3.0130553
0.016062367
-3.2292532
0.011325623
-3.4596621
0.0070785077
-3.7063047
0.0033049013
-3.9713332
0.36460291
-0.65493558
0.26219504
-0.72252599
0.17805276
-0.7842225
0.10796473
-0.84266074
0.075072658
-0.9031807
0.072379504
-0.9722076
0.083458766
-1.054522
0.092866404
-1.1483222
0.092241757
-1.2492388
0.083459925
-1.3549623
0.071376235
-1.4647879
0.060460963
-1.5791361
0.052870871
-1.6998619
0.048375189
-1.8293518
0.04558106
-1.9690052
0.043070735
-2.1191474
0.039948656
-2.2797354
0.035909488
-2.450597
0.031076632
-2.6315706
0.025792457
-2.8229586
0.020439488
-3.0256222
0.015342074
-3.2410015
0.010697083
-3.4705144
0.0066176248
-3.7165343
0.0030610136
-3.98121
0.38199114
-0.61515443
0.28023872
-0.68034387
0.18590316
-0.73821719
0.10547112
-0.79097565
0.06778927
-0.84469376
0.066792851
-0.90667082
0.084001929
-0.98282039
0.099334534
-1.0715345
0.10170272
-1.1677565
0.09278134
-1.2684544
0.078485006
-1.3723072
0.064851553
-1.47939
0.055318382
-1.5916257
0.050088916
-1.7117363
0.047553094
-1.8415852
0.04583113
-1.9818832
0.043598139
-2.1326566
0.040264735
-2.2936216
0.035824723
-2.4644023
0.030609133
-2.6449148
0.02506621
-2.8355975
0.019606873
-3.0374437
0.014538574
-3.2519328
0.010023021
-3.4805661
0.0061368587
-3.7259151
0.0028110818
-3.9902378
0.39811859
-0.57761479
0.29881602
-0.64058727
0.19345199
-0.69524639
0.10125401
-0.74273418
0.057962792
-0.78994934
0.058699818
-0.84508567
0.083108977
-0.91522853
0.10577929
-0.99922866
0.11212328
-1.0913094
0.10342732
-1.1876643
0.086625466
-1.286261
0.069560002
-1.3866902
0.057372797
-1.490917
0.050967021
-1.6020607
0.048558832
-1.7224128
0.047733549
-1.8530795
0.046632208
-1.9943726
0.044289216
-2.1459359
0.040502724
-2.3071746
0.035555255
-2.4777513
0.029942235
-2.6576693
0.024174499
-2.8475605
0.018658574
-3.0485267
0.01366597
-3.2621152
0.0093148656
-3.4898055
0.0056434115
-3.7345207
0.0025580956
-3.9985108
0.41303375
-0.54195618
0.31740706
-0.60259066
0.20063995
-0.6546802
0.09530241
-0.69754026
0.045580079
-0.7386633
0.047980586
-0.78717354
0.080642694
-0.85148318
0.11221835
-0.93106992
0.12364474
-1.0195138
0.11564339
-1.1121828
0.096085471
-1.2062455
0.074779675
-1.3006392
0.0590737
-1.3973163
0.050917438
-1.499865
0.048427964
-1.6110557
0.048578341
-1.7323345
0.048859029
-1.864351
0.04782402
-2.0068607
0.044998789
-2.1590808
0.040568908
-2.3204516
0.035056248
-2.4906475
0.029065594
-2.6698318
0.023125389
-2.8588375
0.017609534
-3.0588937
0.012738853
-3.2715464
0.0085837701
-3.4983057
0.0051439623
-3.7423541
0.0023049681
-4.0060164
0.42673945
-0.50799615
0.33555034
-0.56605064
0.20714745
-0.61558984
0.087429528
-0.65458641
0.030594253
-0.69040165
0.034542636
-0.73267485
0.076502848
-0.79134455
0.11865902
-0.86678061
0.13640433
-0.95203216
0.12967486
-1.0416298
0.10717035
-1.1318684
0.08073256
-1.2208587
0.060477879
-1.310437
0.04985424
-1.4047233
0.046987044
-1.507054
0.048158177
-1.6192172
0.050074488
-1.7421133
0.050693684
-1.8758086
0.049182387
-2.0194619
0.045571223
-2.1721839
0.040377693
-2.3334602
0.034295069
-2.5030715
0.027978125
-2.6813753
0.021932561
-2.8694364
0.016476872
-3.0685519
0.011772144
-3.2802506
0.007840465
-3.5060457
0.0046447007
-3.7494832
0.0020547154
-4.0128443
0.43915361
-0.47560747
0.35308432
-0.53108484
0.21275953
-0.57777123
0.07733458
-0.61282957
0.012767289
-0.64416371
0.018352462
-0.68120822
0.070623158
-0.73458407
0.12510807
-0.80611956
0.15051116
-0.88855914
0.14574152
-0.97563925
0.12019038
-1.0627539
0.087662085
-1.1469781
0.061654542
-1.2299102
0.047695283
-1.3162425
0.044061076
-1.4099728
0.046261352
-1.51328
0.050066849
-1.6272822
0.052710683
-1.75233
0.052907379
-1.8876967
0.050467018
-2.0322545
0.045863247
-2.1852295
0.039862949
-2.346161
0.033255016
-2.5149747
0.026689224
-2.6922916
0.020614725
-2.8793462
0.015279391
-3.077488
0.010780821
-3.2882239
0.0070949812
-3.5131052
0.0041513938
-3.755927
0.001810399
-4.0190057
0.44528834
-0.52044443
0.36985522
-0.49756843
0.21745043
-0.54152695
0.064997716
-0.57234453
-0.0084139967
-0.59862742
-0.00050541645
-0.6318847
0.063078786
-0.68095891
0.13158235
-0.74886744
0.16603974
-0.82881535
0.16402848
-0.91387142
0.13544597
-0.9985271
0.095827359
-1.0786371
0.062681281
-1.1553739
0.044358805
-1.2340511
0.039473364
-1.3194027
0.042674592
-1.4140896
0.048622864
-1.5194484
0.053681278
-1.6359932
0.056016414
-1.7632272
0.05514759
-1.9000034
0.051456492
-2.0452304
0.045761094
-2.1981753
0.038983799
-2.3584784
0.031936968
-2.5263275
0.025217776
-2.7025491
0.019194633
-2.8885451
0.014036916
-3.0857176
0.009779208
-3.2955188
0.0063564821
-3.5194985
0.0036694424
-3.7617682
0.0015751236
-4.0245832
0.45205288
-0.52150374
0.38287494
-0.53913494
0.22151027
-0.50704813
0.050811625
-0.53384329
-0.032869208
-0.55446004
-0.021672654
-0.58364922
0.054382127
-0.63001667
0.13819163
-0.6948779
0.18304982
-0.77256864
0.18468031
-0.85600464
0.15321649
-0.93882476
0.10549544
-1.0154719
0.063639066
-1.086472
0.039762695
-1.1577817
0.03304597
-1.2349655
0.037186654
-1.3212273
0.045533456
-1.4181699
0.053413479
-1.526425
0.058347078
-1.6456528
0.059494015
-1.7748474
0.057090116
-1.9127721
0.051971998
-2.0583495
0.045188675
-2.2109183
0.037726801
-2.3703548
0.030357833
-2.5370714
0.023590446
-2.7121105
0.017697817
-2.8970336
0.012769083
-3.0932542
0.0087807303
-3.3021592
0.0056331112
-3.5252958
0.0032038143
-3.7670404
0.001351904
-4.0295983
0.45944866
-0.52206242
0.39723501
-0.54153117
0.22206042
-0.54561007
0.035257817
-0.49760539
-0.059843512
-0.51304813
-0.044793042
-0.53716519
0.045568283
-0.58122524
0.14536843
-0.64402401
0.20161494
-0.71968696
0.20781779
-0.80178268
0.17376235
-0.88330799
0.11694582
-0.9571333
0.06460389
-1.0228371
0.033819189
-1.0870726
0.024601324
-1.1562923
0.029592699
-1.2343145
0.040601027
-1.3230537
0.0517243
-1.4232681
0.059738704
-1.5346739
0.063381415
-1.6563901
0.062687152
-1.7872853
0.058469966
-1.9260169
0.051888386
-2.0715087
0.044110544
-2.2233684
0.036103773
-2.381699
0.028547893
-2.5471495
0.021839515
-2.7209607
0.016150644
-2.9048129
0.011494765
-3.1001295
0.0077974644
-3.3081748
0.0049318531
-3.5305295
0.002758648
-3.7718144
0.0011425367
-4.0341176
0.46752582
-0.52210529
0.41245444
-0.54294528
0.22266617
-0.54812849
0.014757619
-0.5317128
-0.08873234
-0.47451769
-0.069523086
-0.49380536
0.037148175
-0.53472322
0.15388521
-0.59611723
0.22180727
-0.67004024
0.23341912
-0.75092845
0.19725679
-0.83163261
0.13048317
-0.9033105
0.065660649
-0.96413427
0.026434148
-1.0215509
0.013960906
-1.0830183
0.019697795
-1.1529909
0.033646473
-1.2337284
0.048449154
-1.3261437
0.060040173
-1.4299804
0.06668405
-1.5443754
0.06816313
-1.6683564
0.065220817
-1.8005728
0.059096595
-1.9395662
0.051138399
-2.0845572
0.042529
-2.235396
0.034147863
-2.3924254
0.026547355
-2.5565239
0.019999875
-2.7290886
0.014579176
-2.9119011
0.010231262
-3.1063459
0.0068399271
-3.3136003
0.0042584659
-3.5352697
0.0023367635
-3.7761095
0.0009468166
-4.038165
0.4762559
-0.52149018
0.42805128
-0.54336404
0.22298078
-0.54931967
-0.0072691507
-0.53276722
-0.12412479
-0.50253527
-0.09515294
-0.45405696
0.029011847
-0.4912603
0.16420761
-0.55098843
0.24372937
-0.62346831
0.26104139
-0.70289061
0.22334607
-0.78299513
0.14620289
-0.85344907
0.066899057
-0.91006021
0.017520234
-0.96089051
0.00096004572
-1.0147828
0.0073205531
-1.0769009
0.024516229
-1.1498527
0.043450275
-1.2347011
0.059118442
-1.3312277
0.069282277
-1.4385274
0.073429501
-1.5556824
0.072182234
-1.6815728
0.06682079
-1.8145321
0.058859166
-1.9532504
0.049708899
-2.097327
0.040478611
-2.2468767
0.031908431
-2.4024656
0.02440192
-2.5651685
0.018107051
-2.7364964
0.013007828
-2.9182952
0.0089938852
-3.1119439
0.0059169101
-3.3184869
0.0036174052
-3.5395442
0.0019403333
-3.7799894
0.00076506904
-4.0417797
0.48558885
-0.52002539
0.44352193
-0.54262339
0.22249542
-0.54900697
-0.030604751
-0.53270934
-0.16044945
-0.50272315
-0.12963195
-0.47358128
0.021334537
-0.45160876
0.1760594
-0.50864449
0.26727367
-0.57959118
0.29023318
-0.65749747
0.2508542
-0.73601819
0.16334075
-0.80588597
0.068012977
-0.85966697
0.0069831978
-0.90478161
-0.014556326
-0.95126812
-0.0076985751
-1.0057056
0.013088347
-1.0711015
0.036625984
-1.1486265
0.056866799
-1.2380878
0.071068132
-1.3385463
0.078396955
-1.44907
0.079303588
-1.5687162
0.075059536
-1.6958769
0.067317626
-1.8288565
0.057720986
-1.9668124
0.047633349
-2.109646
0.03801895
-2.257701
0.029444692
-2.4117728
0.022159534
-2.5730654
0.016195056
-2.7431731
0.011458578
-2.9240297
0.0077956457
-3.1169488
0.0050354927
-3.3228771
0.0030119724
-3.5433999
0.0015716729
-3.783461
0.0006001295
-4.0449899
0.49556632
-0.51744285
0.45850332
-0.54067161
0.2210079
-0.5473315
-0.054829355
-0.53156488
-0.19702174
-0.50247555
-0.16489501
-0.47308763
0.0024159316
-0.46016748
0.18910475
-0.46979581
0.29200898
-0.53809223
0.32026354
-0.61409173
0.2790501
-0.69097217
0.18072214
-0.75883166
0.068029298
-0.81062497
-0.00566254
-0.85188838
-0.032759453
-0.89214946
-0.025527526
-0.93907732
-0.00072109422
-0.99717243
0.027918863
-1.0676365
0.053212628
-1.150271
0.071951923
-1.244133
0.08297903
-1.3482619
0.086526753
-1.4617414
0.083801462
-1.5831857
0.076552137
-1.7108106
0.066642328
-1.8432488
0.055710798
-1.9800399
0.044982194
-2.1213551
0.035225829
-2.2677936
0.026820744
-2.4203056
0.019867125
-2.5801957
0.014295009
-2.7491483
0.0099503941
-2.9291252
0.0066472077
-3.1214125
0.0042010683
-3.3267938
0.0024445109
-3.5468498
0.0012314621
-3.7865759
0.00045122967
-4.0478106
0.50636231
-0.51340273
0.47288938
-0.53749734
0.21847126
-0.54439548
-0.079353063
-0.5296451
-0.23303218
-0.50194583
-0.2005001
-0.47259014
-0.017041273
-0.45920325
0.19128031
-0.46767828
0.3174457
-0.49961687
0.35039326
-0.57235308
0.30724885
-0.64724392
0.19783136
-0.7132166
0.067001466
-0.76217452
-0.021187516
-0.79959787
-0.053826614
-0.83608225
-0.046296384
-0.87672851
-0.01696528
-0.92776789
0.01732195
-0.99147437
0.048124733
-1.0675303
0.071867454
-1.1550089
0.087095982
-1.252964
0.093788397
-1.3604797
0.093023266
-1.4762761
0.086590296
-1.598661
0.076546113
-1.726032
0.064812796
-1.8574455
0.052909608
-1.9927276
0.041851045
-2.1323421
0.032183995
-2.2770853
0.024100685
-2.4280322
0.01756829
-2.5865784
0.012434134
-2.754439
0.0084990351
-2.933628
0.005556855
-3.1253513
0.0034174758
-3.330273
0.0019164188
-3.5499403
0.00091800085
-3.7893118
0.00031459813
-4.0502678
0.51826328
-0.50794816
0.4868966
-0.53308279
0.21498536
-0.54033311
-0.10360489
-0.52703284
-0.26777269
-0.50134301
-0.23579919
-0.47244731
-0.037344651
-0.45791883
0.1950179
-0.46831125
0.33388768
-0.4886436
0.38004294
-0.53308769
0.3349835
-0.60472746
0.21487676
-0.66914666
0.065045578
-0.71531037
-0.039038722
-0.74847627
-0.077619784
-0.78076805
-0.069747506
-0.81770078
-0.035662405
-0.8626341
0.0048742603
-0.91988854
0.041614898
-0.98965157
0.070777318
-1.0709511
0.090677824
-1.1629285
0.101019
-1.264713
0.10268731
-1.375015
0.097445009
-1.492191
0.087496928
-1.6146763
0.075041039
-1.7412383
0.061918968
-1.8711942
0.049435768
-2.0047108
0.038350515
-2.1425017
0.02898009
-2.2855259
0.021344981
-2.4349572
0.01530165
-2.5922265
0.010635309
-2.7590863
0.0071169342
-2.9375646
0.0045306757
-3.1288154
0.0026871028
-3.3333473
0.0014281618
-3.5526688
0.00062968978
-3.7917183
0.00018763063
-4.0523627
-0.50115874
0.5314182
0.50089028
-0.52761965
0.21083113
-0.53530682
-0.12703052
-0.5238454
-0.30062585
-0.50065913
-0.27023583
-0.4727751
-0.058404552
-0.45706713
0.19930373
-0.46759652
0.35336195
-0.49235005
0.40376419
-0.516278
0.36187227
-0.56432104
0.23161515
-0.62605718
0.064655411
-0.67251581
-0.057571403
-0.70060777
-0.10360749
-0.7271657
-0.094881171
-0.76043742
-0.056365087
-0.80128208
-0.0093473773
-0.85266288
0.033746588
-0.91643201
0.068673713
-0.99177435
0.093667522
-1.0779341
0.10814595
-1.1741766
0.11274098
-1.279212
0.10911103
-1.3913361
0.099545801
-1.5089941
0.08649273
-1.6309141
0.072132138
-1.7561137
0.058104219
-1.884275
0.04543146
-2.0158454
0.03459632
-2.1517593
0.025697109
-2.2931012
0.01860782
-2.4410894
0.01309997
-2.597174
0.0089168091
-2.7631158
0.0058134022
-2.9409864
0.0035727323
-3.1318353
0.002011116
-3.3360533
0.00097946625
-3.5550726
0.00036551485
-3.7937622
6.4765935e-05
-4.0541192
-0.52121557
0.51526412
-0.4932542
0.54552737
0.20627063
-0.52948832
-0.14909427
-0.52022625
-0.33118883
-0.49979647
-0.30322273
-0.47359597
-0.079913457
-0.45698213
0.20324108
-0.46641063
0.37511899
-0.49394569
0.43014541
-0.52269884
0.38951596
-0.54837869
0.24785809
-0.58488737
0.065694128
-0.63059717
-0.075610678
-0.65800928
-0.13021895
-0.67839762
-0.12106154
-0.70553094
-0.077916448
-0.74286615
-0.024989732
-0.78958591
0.024632284
-0.84770296
0.065585382
-0.91731014
0.096022053
-0.99780659
0.11509403
-1.0886501
0.12311677
-1.1886283
0.12156049
-1.295954
0.1127236
-1.4089464
0.09925476
-1.5263172
0.083671315
-1.6470186
0.067988183
-1.7704001
0.05354779
-1.8964917
0.041049099
-2.0260202
0.030701144
-2.1600766
0.022410313
-2.2998139
0.015935558
-2.4464552
0.010989675
-2.6014437
0.007292521
-2.766584
0.004594865
-2.9439464
0.0026853232
-3.1344683
0.0013896708
-3.3384054
0.00056954619
-3.5571263
0.0001243604
-3.7954983
-4.6058793e-05
-4.0555416
-0.52306521
0.20164661
-0.51387079
0.53019264
-0.48505822
0.56027994
-0.16932896
-0.51627848
-0.359027
-0.49893025
-0.33419112
-0.47479387
-0.10141089
-0.45783957
0.20624651
-0.4654024
0.39823189
-0.49413706
0.45867358
-0.52648683
0.41957907
-0.5573158
0.27331488
-0.57825619
0.066297955
-0.58875788
-0.092858213
-0.6166128
-0.15812176
-0.63424027
-0.14842439
-0.65533339
-0.099811481
-0.68732805
-0.041230715
-0.73028171
0.014432672
-0.78330016
0.061565967
-0.84741404
0.097715992
-0.92239314
0.12178809
-1.0079496
0.13373088
-1.1030203
0.13474196
-1.205785
0.12703539
-1.3143874
0.11339582
-1.4274082
0.096653627
-1.543733
0.079224472
-1.6626068
0.062830199
-1.7838125
0.048447325
-1.9076969
0.036439859
-2.0351718
0.026768446
-2.1674482
0.019184595
-2.3056832
0.013365869
-2.4510763
0.0089910371
-2.605092
0.0057722387
-2.7695494
0.0034651988
-2.9464993
0.0018692106
-3.1367351
0.00082210386
-3.3404239
0.0001973988
-3.5588745
-9.2515865e-05
-3.7969113
-0.0001413943
-4.0566746
-0.51209259
-0.18736371
-0.51634566
0.19760953
-0.50625083
0.54569254
-0.47667848
0.57504729
-0.3836246
-0.49824392
-0.36278047
-0.47633496
-0.12215109
-0.45980938
0.20795759
-0.46496839
0.42159043
-0.49339049
0.48862779
-0.52813995
0.4515722
-0.56312308
0.30104557
-0.58957933
0.07976196
-0.59502388
-0.11001117
-0.57463045
-0.18642824
-0.59217717
-0.17670338
-0.6100197
-0.12267093
-0.63589624
-0.057534351
-0.67440908
0.0035419742
-0.72308101
0.056683714
-0.78193337
0.098735617
-0.85155892
0.1281554
-0.93192026
0.1444881
-1.0221808
0.14857682
-1.1205541
0.14245804
-1.225044
0.1289615
-1.3339964
0.1111845
-1.4461856
0.091951971
-1.5607395
0.073418539
-1.6773369
0.05690989
-1.796163
0.043002828
-1.9177813
0.031744459
-2.0432756
0.022888208
-2.1738838
0.016073039
-2.3107318
0.010927833
-2.4550075
0.0071185406
-2.6081684
0.0043621211
-2.7720681
0.0024260768
-2.9486867
0.0011238916
-3.1386795
0.00030705149
-3.3421312
-0.00013828196
-3.5603148
-0.00029305499
-3.7980501
-0.00022989227
-4.0575249
-0.49778305
-0.40451006
-0.50833999
-0.20246499
-0.50952655
0.19434144
-0.49824218
0.56156001
-0.4687667
0.5888828
-0.38842308
-0.47860904
-0.14152796
-0.46271798
0.2082383
-0.46550462
0.44409618
-0.49211483
0.51899711
-0.527835
0.48454657
-0.56583029
0.33066758
-0.5973707
0.093886776
-0.60708731
-0.11558728
-0.59249043
-0.21392862
-0.55074939
-0.20481069
-0.56789158
-0.14644839
-0.5894151
-0.074328413
-0.62223077
-0.0075866517
-0.66676034
0.051048392
-0.72076436
0.099087494
-0.78516841
0.13412506
-0.86042276
0.15528122
-0.94593488
0.16296544
-1.0400261
0.15893388
-1.1406114
0.14596663
-1.2458223
0.12735187
-1.3542002
0.10630542
-1.4647196
0.085459986
-1.5769072
0.066566604
-1.6909349
0.050487934
-1.8072824
0.037403778
-1.9267009
0.027086585
-2.0503326
0.0191345
-2.1794075
0.013116785
-2.3150136
0.0086423986
-2.4582933
0.0053815363
-2.6107296
0.0030651842
-2.7741834
0.0014773212
-2.9505501
0.00044785525
-3.1403168
-0.00015624788
-3.3435598
-0.0004394691
-3.5614969
-0.00047095667
-3.7989034
-0.00030979907
-4.0581288
-0.48182421
-0.41038849
-0.49847479
-0.42095761
-0.50436958
-0.21474714
-0.50260144
0.19213332
-0.49005458
0.57714939
-0.46216999
0.60062698
-0.15952068
-0.46637026
0.20754149
-0.46742807
0.46465043
-0.49070601
0.5486342
-0.52584532
0.51722768
-0.56528887
0.36092092
-0.60079181
0.10852073
-0.61545984
-0.12011825
-0.60569185
-0.23556319
-0.57447808
-0.23179187
-0.52734752
-0.17026832
-0.54702031
-0.092083548
-0.57455184
-0.018935034
-0.61416266
0.044883705
-0.66373138
0.098760312
-0.72309755
0.13963726
-0.79333188
0.16599774
-0.87413288
0.17778151
-0.96398856
0.17637558
-1.0608204
0.16439053
-1.1625633
0.14521508
-1.267474
0.12241067
-1.3743049
0.099106534
-1.4824209
0.077558283
-1.5918564
0.059003085
-1.703186
0.043816407
-1.8171034
0.031818681
-1.9344382
0.022568759
-2.0563663
0.015564893
-2.184073
0.010345575
-2.3185774
0.0065232577
-2.4609922
0.0037848919
-2.6128177
0.0018818163
-2.7759443
0.0006172419
-2.9521184
-0.00016089432
-3.1416917
-0.00057367348
-3.3447196
-0.00070795861
-3.5624081
-0.00062877036
-3.7995225
-0.00038085851
-4.0584952
-0.47120922
-0.17587465
-0.48695715
-0.42789813
-0.4989921
-0.43291799
-0.50051739
-0.22398137
-0.49564872
0.19114601
-0.48223837
0.59151832
-0.45698608
0.60965528
0.20633169
-0.47055722
0.4824254
-0.48985274
0.57632157
-0.52249847
0.54826967
-0.56170036
0.39027295
-0.59941976
0.12292118
-0.61871831
-0.12465345
-0.61414718
-0.25595674
-0.58902378
-0.26056257
-0.54925938
-0.19316111
-0.50719708
-0.110432
-0.53134964
-0.031019141
-0.56555769
0.038387495
-0.61063459
0.09778244
-0.66521078
0.14462941
-0.7305186
0.17652392
-0.80664418
0.19288787
-0.89227842
0.19465686
-0.98541015
0.18417533
-1.0839039
0.16480466
-1.1856824
0.14037473
-1.2891961
0.114512
-1.3936293
0.090038003
-1.498832
0.06866762
-1.6053182
0.051058834
-1.7139729
0.037123062
-1.8255866
0.026388587
-1.9410227
0.018270924
-2.0614332
0.01222104
-2.1879378
0.0077788975
-2.3214847
0.0045777601
-2.463147
0.0023297462
-2.6144891
0.000810242
-2.7773869
-0.00015548622
-2.9534312
-0.00070653875
-3.1428063
-0.00094461174
-3.3456316
-0.00094575776
-3.5630918
-0.00076778565
-3.7999092
-0.00044319495
-4.058663
-0.47500145
0.20473889
-0.47836037
-0.1901888
-0.4927217
-0.44013211
-0.49979593
-0.44021601
-0.49680104
-0.22999909
-0.48918556
0.19150668
-0.47474686
0.60357959
-0.45340701
0.61575149
0.49730407
-0.49008527
0.60058513
-0.51822609
0.57633287
-0.55539779
0.41705779
-0.59332122
0.1360778
-0.61616887
-0.12960677
-0.61706302
-0.27588829
-0.59803269
-0.2883069
-0.56491786
-0.22373724
-0.52138333
-0.1282742
-0.49184192
-0.044051303
-0.52122222
0.031356874
-0.56133768
0.096239112
-0.61136499
0.14905116
-0.6718599
0.18674792
-0.74333998
0.2081308
-0.82474435
0.21363355
-0.91419595
0.20521759
-1.0095403
0.18610812
-1.1085029
0.16028545
-1.2091032
0.1318241
-1.3102344
0.104169
-1.4116187
0.07961622
-1.5136093
0.05921609
-1.6171226
0.043039269
-1.7232452
0.030600813
-1.8327587
0.021223821
-1.9465042
0.014250842
-2.0655995
0.0091301449
-2.1910694
0.0054273361
-2.3237849
0.0028079815
-2.4648223
0.0010142005
-2.615785
-0.00015246972
-2.7785503
-0.00084914141
-2.9544901
-0.0011918348
-3.1436941
-0.0012726197
-3.3463155
-0.0011549218
-3.5635592
-0.00088918553
-3.8001152
-0.00049713063
-4.0586374
-0.49153208
0.50918901
-0.48053289
0.20153653
-0.48808943
-0.20051096
-0.49915931
-0.44668901
-0.50077207
-0.44280892
-0.49321686
-0.23315186
-0.48232961
0.1925067
-0.4683591
0.61283514
-0.45145701
0.61879204
0.62001031
-0.51361898
0.60007395
-0.5468108
0.43955951
-0.58277778
0.14672523
-0.60762212
-0.13540121
-0.61373697
-0.29550571
-0.60133352
-0.31507978
-0.57496211
-0.25332295
-0.53809997
-0.15751529
-0.49459023
-0.057170569
-0.481447
0.023422262
-0.51594716
0.094173662
-0.56138204
0.15285124
-0.6172066
0.19656982
-0.68410537
0.22335573
-0.76125453
0.23312666
-0.84699013
0.22738551
-0.93925291
0.20907059
-1.035587
0.18218918
-1.1336793
0.15118377
-1.2319564
0.12012304
-1.3299045
0.091999009
-1.4277987
0.068386336
-1.5264773
0.049609304
-1.6271883
0.035206843
-1.7310102
0.024401569
-1.8386661
0.016404072
-1.9509659
0.010545937
-2.0689424
0.0063068406
-2.1935268
0.0032941
-2.3255488
0.0012117586
-2.4660645
-0.00016523458
-2.6167528
-0.0010124457
-2.7794476
-0.0014641317
-2.9553301
-0.0016204308
-3.1443509
-0.0015607145
-3.3468028
-0.0013374648
-3.5638468
-0.00099419815
-3.8001294
-0.00054317845
-4.0584543
-0.50926825
0.63364465
-0.49239401
0.51640884
-0.48953203
0.19761182
-0.49902256
-0.20630327
-0.50593644
-0.44738871
-0.50168131
-0.44089046
-0.49015867
-0.23251507
-0.47610487
0.19368274
-0.46298394
0.61867112
-0.45212949
0.61856095
0.61810182
-0.53648353
0.45611911
-0.56827506
0.15360988
-0.59336948
-0.14244401
-0.6039953
-0.31470028
-0.59848199
-0.34044756
-0.57972009
-0.28171097
-0.54939718
-0.18586379
-0.51228714
-0.084458266
-0.46997804
0.014692305
-0.47522015
0.091302586
-0.51504478
0.15605963
-0.56646653
0.20588313
-0.62878575
0.23841173
-0.70169431
0.25295409
-0.78365659
0.25049507
-0.87280114
0.23359266
-0.9666667
0.20610289
-1.062558
0.17270425
-1.1584559
0.13807906
-1.2534131
0.10598671
-1.3475732
0.078684087
-1.441793
0.056882215
-1.5373292
0.040203127
-1.6355144
0.027770405
-1.7373328
0.018634832
-1.8434102
0.011980291
-1.954495
0.007175893
-2.0715357
0.0037553723
-2.1953887
0.0013764301
-2.3268313
-0.00021559996
-2.4669291
-0.0012168811
-2.6174147
-0.0017753394
-2.780114
-0.0020064534
-2.9559279
-0.001996362
-3.1448165
-0.0018118057
-3.3471017
-0.001495385
-3.5639498
-0.0010841641
-3.7999959
-0.00058210199
-4.0581119
-0.52505492
0.62907085
-0.50344425
0.64060355
-0.49650969
0.51875014
-0.49984109
0.19307008
-0.51031863
-0.20753549
-0.5127626
-0.44210189
-0.50333785
-0.4342354
-0.48714831
-0.22866858
-0.47040104
0.1945561
-0.45954876
0.62040755
-0.45493989
0.6150289
0.46526744
-0.55054535
0.1556509
-0.57406572
-0.15101167
-0.58826134
-0.33311671
-0.58955227
-0.3637624
-0.57896218
-0.30854961
-0.55575683
-0.21283369
-0.52504252
-0.11158757
-0.48792991
-0.010083962
-0.44764015
0.087717437
-0.47347538
0.15851481
-0.51923204
0.21463548
-0.57733724
0.25314786
-0.64591129
0.27291919
-0.72406748
0.27435568
-0.81004148
0.25951666
-0.90143919
0.23198171