/*--------------------------------*- C++ -*----------------------------------*\
| =========                 |                                                 |
| \\      /  F ield         | OpenFOAM: The Open Source CFD Toolbox           |
|  \\    /   O peration     | Version:  v2012                                 |
|   \\  /    A nd           | Website:  www.openfoam.com                      |
|    \\/     M anipulation  |                                                 |
\*---------------------------------------------------------------------------*/
FoamFile
{
    version     2.0;
    format      ascii;
    class       pointVectorField;
    location    "33.235017676257776";
    object      pointDisplacement;
}
// * * * * * * * * * * * * * * * * * * * * * * * * * * * * * * * * * * * * * //

dimensions      [0 1 0 0 0 0 0];


internalField   nonuniform List<vector> 
18840
(
(1.3665014 0 0)
(1.3664761 0 0)
(1.3664006 0 0)
(1.3662758 0 0)
(1.3661022 0 0)
(1.3658795 0 0)
(1.3656071 0 0)
(1.3652839 0 0)
(1.3649085 0 0)
(1.364479 0 0)
(1.3639932 0 0)
(1.3634485 0 0)
(1.3628421 0 0)
(1.3621706 0 0)
(1.3614307 0 0)
(1.3606184 0 0)
(1.3597297 0 0)
(1.3587604 0 0)
(1.3577056 0 0)
(1.3565603 0 0)
(1.3550545 0 0)
(1.3665014 0 0)
(1.3664755 0 0)
(1.3663983 0 0)
(1.3662709 0 0)
(1.3660935 0 0)
(1.3658662 0 0)
(1.3655882 0 0)
(1.3652586 0 0)
(1.3648759 0 0)
(1.3644385 0 0)
(1.3639441 0 0)
(1.3633902 0 0)
(1.362774 0 0)
(1.3620923 0 0)
(1.3613416 0 0)
(1.3605183 0 0)
(1.3596182 0 0)
(1.3586372 0 0)
(1.3575705 0 0)
(1.3564132 0 0)
(1.3551366 0 0)
(1.3665014 0 0)
(1.3664749 0 0)
(1.3663959 0 0)
(1.3662654 0 0)
(1.3660839 0 0)
(1.3658514 0 0)
(1.3655672 0 0)
(1.3652303 0 0)
(1.3648394 0 0)
(1.3643928 0 0)
(1.3638883 0 0)
(1.3633235 0 0)
(1.3626954 0 0)
(1.3620009 0 0)
(1.3612364 0 0)
(1.3603982 0 0)
(1.3594822 0 0)
(1.3584841 0 0)
(1.3573995 0 0)
(1.3562236 0 0)
(1.3549091 0 0)
(1.3665014 0 0)
(1.3664742 0 0)
(1.3663933 0 0)
(1.3662597 0 0)
(1.366074 0 0)
(1.3658361 0 0)
(1.3655454 0 0)
(1.3652009 0 0)
(1.3648014 0 0)
(1.3643451 0 0)
(1.3638299 0 0)
(1.3632531 0 0)
(1.362612 0 0)
(1.3619031 0 0)
(1.3611229 0 0)
(1.3602674 0 0)
(1.3593323 0 0)
(1.3583131 0 0)
(1.3572054 0 0)
(1.3560042 0 0)
(1.354646 0 0)
(1.3665014 0 0)
(1.3664736 0 0)
(1.3663907 0 0)
(1.3662539 0 0)
(1.3660638 0 0)
(1.3658202 0 0)
(1.3655227 0 0)
(1.3651703 0 0)
(1.3647617 0 0)
(1.3642951 0 0)
(1.3637683 0 0)
(1.3631788 0 0)
(1.3625234 0 0)
(1.3617988 0 0)
(1.3610011 0 0)
(1.360126 0 0)
(1.3591691 0 0)
(1.3581255 0 0)
(1.3569903 0 0)
(1.3557586 0 0)
(1.3543525 0 0)
(1.3665014 0 0)
(1.3664729 0 0)
(1.366388 0 0)
(1.3662479 0 0)
(1.366053 0 0)
(1.3658036 0 0)
(1.3654989 0 0)
(1.3651382 0 0)
(1.3647199 0 0)
(1.3642424 0 0)
(1.3637033 0 0)
(1.3631001 0 0)
(1.3624295 0 0)
(1.3616878 0 0)
(1.360871 0 0)
(1.3599745 0 0)
(1.3589935 0 0)
(1.3579228 0 0)
(1.356757 0 0)
(1.3554907 0 0)
(1.3540342 0 0)
(1.3665014 0 0)
(1.3664722 0 0)
(1.3663852 0 0)
(1.3662415 0 0)
(1.3660418 0 0)
(1.3657862 0 0)
(1.365474 0 0)
(1.3651043 0 0)
(1.3646758 0 0)
(1.3641867 0 0)
(1.3636345 0 0)
(1.3630166 0 0)
(1.3623295 0 0)
(1.3615695 0 0)
(1.3607321 0 0)
(1.3598126 0 0)
(1.3588057 0 0)
(1.3577058 0 0)
(1.356507 0 0)
(1.3552035 0 0)
(1.3536953 0 0)
(1.3665014 0 0)
(1.3664715 0 0)
(1.3663822 0 0)
(1.3662349 0 0)
(1.3660301 0 0)
(1.3657678 0 0)
(1.3654476 0 0)
(1.3650685 0 0)
(1.3646291 0 0)
(1.3641274 0 0)
(1.3635612 0 0)
(1.3629274 0 0)
(1.3622226 0 0)
(1.3614428 0 0)
(1.3605833 0 0)
(1.3596391 0 0)
(1.3586046 0 0)
(1.3574736 0 0)
(1.35624 0 0)
(1.3548972 0 0)
(1.3533372 0 0)
(1.3665014 0 0)
(1.3664707 0 0)
(1.3663791 0 0)
(1.3662279 0 0)
(1.3660177 0 0)
(1.3657484 0 0)
(1.3654197 0 0)
(1.3650304 0 0)
(1.3645792 0 0)
(1.3640641 0 0)
(1.3634826 0 0)
(1.3628316 0 0)
(1.3621076 0 0)
(1.3613064 0 0)
(1.360423 0 0)
(1.3594522 0 0)
(1.3583881 0 0)
(1.3572242 0 0)
(1.3559539 0 0)
(1.3545701 0 0)
(1.3529591 0 0)
(1.3665014 0 0)
(1.3664699 0 0)
(1.3663759 0 0)
(1.3662205 0 0)
(1.3660045 0 0)
(1.3657278 0 0)
(1.3653899 0 0)
(1.3649897 0 0)
(1.3645258 0 0)
(1.3639961 0 0)
(1.3633981 0 0)
(1.3627285 0 0)
(1.3619837 0 0)
(1.3611592 0 0)
(1.3602501 0 0)
(1.3592507 0 0)
(1.358155 0 0)
(1.3569562 0 0)
(1.3556472 0 0)
(1.3542206 0 0)
(1.3525598 0 0)
(1.3665014 0 0)
(1.3664689 0 0)
(1.3663721 0 0)
(1.3662121 0 0)
(1.3659896 0 0)
(1.3657044 0 0)
(1.3653561 0 0)
(1.3649436 0 0)
(1.3644652 0 0)
(1.363919 0 0)
(1.3633021 0 0)
(1.3626113 0 0)
(1.3618428 0 0)
(1.3609919 0 0)
(1.3600536 0 0)
(1.3590221 0 0)
(1.3578909 0 0)
(1.3566531 0 0)
(1.3553012 0 0)
(1.3538274 0 0)
(1.3521159 0 0)
(1.3665014 0 0)
(1.3664761 0 0)
(1.3664006 0 0)
(1.3662758 0 0)
(1.3661022 0 0)
(1.3658795 0 0)
(1.3656071 0 0)
(1.3652839 0 0)
(1.3649085 0 0)
(1.364479 0 0)
(1.3639932 0 0)
(1.3634485 0 0)
(1.3628421 0 0)
(1.3621706 0 0)
(1.3614307 0 0)
(1.3606184 0 0)
(1.3597297 0 0)
(1.3587604 0 0)
(1.3577056 0 0)
(1.3565603 0 0)
(1.3550545 0 0)
(1.3665014 0 0)
(1.3664755 0 0)
(1.3663983 0 0)
(1.3662709 0 0)
(1.3660935 0 0)
(1.3658662 0 0)
(1.3655882 0 0)
(1.3652586 0 0)
(1.3648759 0 0)
(1.3644385 0 0)
(1.3639441 0 0)
(1.3633902 0 0)
(1.362774 0 0)
(1.3620923 0 0)
(1.3613416 0 0)
(1.3605183 0 0)
(1.3596182 0 0)
(1.3586372 0 0)
(1.3575705 0 0)
(1.3564132 0 0)
(1.3551366 0 0)
(1.3665014 0 0)
(1.3664749 0 0)
(1.3663959 0 0)
(1.3662654 0 0)
(1.3660839 0 0)
(1.3658514 0 0)
(1.3655672 0 0)
(1.3652303 0 0)
(1.3648394 0 0)
(1.3643928 0 0)
(1.3638883 0 0)
(1.3633235 0 0)
(1.3626954 0 0)
(1.3620009 0 0)
(1.3612364 0 0)
(1.3603982 0 0)
(1.3594822 0 0)
(1.3584841 0 0)
(1.3573995 0 0)
(1.3562236 0 0)
(1.3549091 0 0)
(1.3665014 0 0)
(1.3664742 0 0)
(1.3663933 0 0)
(1.3662597 0 0)
(1.366074 0 0)
(1.3658361 0 0)
(1.3655454 0 0)
(1.3652009 0 0)
(1.3648014 0 0)
(1.3643451 0 0)
(1.3638299 0 0)
(1.3632531 0 0)
(1.362612 0 0)
(1.3619031 0 0)
(1.3611229 0 0)
(1.3602674 0 0)
(1.3593323 0 0)
(1.3583131 0 0)
(1.3572054 0 0)
(1.3560042 0 0)
(1.354646 0 0)
(1.3665014 0 0)
(1.3664736 0 0)
(1.3663907 0 0)
(1.3662539 0 0)
(1.3660638 0 0)
(1.3658202 0 0)
(1.3655227 0 0)
(1.3651703 0 0)
(1.3647617 0 0)
(1.3642951 0 0)
(1.3637683 0 0)
(1.3631788 0 0)
(1.3625234 0 0)
(1.3617988 0 0)
(1.3610011 0 0)
(1.360126 0 0)
(1.3591691 0 0)
(1.3581255 0 0)
(1.3569903 0 0)
(1.3557586 0 0)
(1.3543525 0 0)
(1.3665014 0 0)
(1.3664729 0 0)
(1.366388 0 0)
(1.3662479 0 0)
(1.366053 0 0)
(1.3658036 0 0)
(1.3654989 0 0)
(1.3651382 0 0)
(1.3647199 0 0)
(1.3642424 0 0)
(1.3637033 0 0)
(1.3631001 0 0)
(1.3624295 0 0)
(1.3616878 0 0)
(1.360871 0 0)
(1.3599745 0 0)
(1.3589935 0 0)
(1.3579228 0 0)
(1.356757 0 0)
(1.3554907 0 0)
(1.3540342 0 0)
(1.3665014 0 0)
(1.3664722 0 0)
(1.3663852 0 0)
(1.3662415 0 0)
(1.3660418 0 0)
(1.3657862 0 0)
(1.365474 0 0)
(1.3651043 0 0)
(1.3646758 0 0)
(1.3641867 0 0)
(1.3636345 0 0)
(1.3630166 0 0)
(1.3623295 0 0)
(1.3615695 0 0)
(1.3607321 0 0)
(1.3598126 0 0)
(1.3588057 0 0)
(1.3577058 0 0)
(1.356507 0 0)
(1.3552035 0 0)
(1.3536953 0 0)
(1.3665014 0 0)
(1.3664715 0 0)
(1.3663822 0 0)
(1.3662349 0 0)
(1.3660301 0 0)
(1.3657678 0 0)
(1.3654476 0 0)
(1.3650685 0 0)
(1.3646291 0 0)
(1.3641274 0 0)
(1.3635612 0 0)
(1.3629274 0 0)
(1.3622226 0 0)
(1.3614428 0 0)
(1.3605833 0 0)
(1.3596391 0 0)
(1.3586046 0 0)
(1.3574736 0 0)
(1.35624 0 0)
(1.3548972 0 0)
(1.3533372 0 0)
(1.3665014 0 0)
(1.3664707 0 0)
(1.3663791 0 0)
(1.3662279 0 0)
(1.3660177 0 0)
(1.3657484 0 0)
(1.3654197 0 0)
(1.3650304 0 0)
(1.3645792 0 0)
(1.3640641 0 0)
(1.3634826 0 0)
(1.3628316 0 0)
(1.3621076 0 0)
(1.3613064 0 0)
(1.360423 0 0)
(1.3594522 0 0)
(1.3583881 0 0)
(1.3572242 0 0)
(1.3559539 0 0)
(1.3545701 0 0)
(1.3529591 0 0)
(1.3665014 0 0)
(1.3664699 0 0)
(1.3663759 0 0)
(1.3662205 0 0)
(1.3660045 0 0)
(1.3657278 0 0)
(1.3653899 0 0)
(1.3649897 0 0)
(1.3645258 0 0)
(1.3639961 0 0)
(1.3633981 0 0)
(1.3627285 0 0)
(1.3619837 0 0)
(1.3611592 0 0)
(1.3602501 0 0)
(1.3592507 0 0)
(1.358155 0 0)
(1.3569562 0 0)
(1.3556472 0 0)
(1.3542206 0 0)
(1.3525598 0 0)
(1.3665014 0 0)
(1.3664689 0 0)
(1.3663721 0 0)
(1.3662121 0 0)
(1.3659896 0 0)
(1.3657044 0 0)
(1.3653561 0 0)
(1.3649436 0 0)
(1.3644652 0 0)
(1.363919 0 0)
(1.3633021 0 0)
(1.3626113 0 0)
(1.3618428 0 0)
(1.3609919 0 0)
(1.3600536 0 0)
(1.3590221 0 0)
(1.3578909 0 0)
(1.3566531 0 0)
(1.3553012 0 0)
(1.3538274 0 0)
(1.3521159 0 0)
(1.3665014 0 0)
(1.3664805 0 0)
(1.3664183 0 0)
(1.3663151 0 0)
(1.3661708 0 0)
(1.3659847 0 0)
(1.3657552 0 0)
(1.3654806 0 0)
(1.3651583 0 0)
(1.3647852 0 0)
(1.3643579 0 0)
(1.3638722 0 0)
(1.3633236 0 0)
(1.3627071 0 0)
(1.3620171 0 0)
(1.3612478 0 0)
(1.3603929 0 0)
(1.3594458 0 0)
(1.3583994 0 0)
(1.3572469 0 0)
(1.3558702 0 0)
(1.3665014 0 0)
(1.36648 0 0)
(1.3664161 0 0)
(1.3663103 0 0)
(1.3661623 0 0)
(1.3659715 0 0)
(1.3657365 0 0)
(1.3654554 0 0)
(1.3651257 0 0)
(1.3647446 0 0)
(1.3643085 0 0)
(1.3638134 0 0)
(1.3632548 0 0)
(1.3626279 0 0)
(1.3619273 0 0)
(1.3611471 0 0)
(1.3602812 0 0)
(1.3593232 0 0)
(1.3582661 0 0)
(1.3571031 0 0)
(1.3557188 0 0)
(1.3665014 0 0)
(1.3664795 0 0)
(1.366414 0 0)
(1.3663055 0 0)
(1.3661539 0 0)
(1.3659585 0 0)
(1.365718 0 0)
(1.3654306 0 0)
(1.365094 0 0)
(1.3647051 0 0)
(1.3642607 0 0)
(1.3637568 0 0)
(1.3631891 0 0)
(1.3625528 0 0)
(1.3618426 0 0)
(1.3610529 0 0)
(1.3601777 0 0)
(1.3592108 0 0)
(1.3581453 0 0)
(1.3569745 0 0)
(1.3555881 0 0)
(1.3665014 0 0)
(1.3664789 0 0)
(1.366412 0 0)
(1.3663011 0 0)
(1.3661462 0 0)
(1.3659466 0 0)
(1.3657012 0 0)
(1.3654083 0 0)
(1.3650654 0 0)
(1.3646698 0 0)
(1.3642183 0 0)
(1.3637071 0 0)
(1.3631319 0 0)
(1.3624882 0 0)
(1.3617708 0 0)
(1.3609744 0 0)
(1.3600931 0 0)
(1.3591208 0 0)
(1.3580511 0 0)
(1.3568773 0 0)
(1.355496 0 0)
(1.3665014 0 0)
(1.3664785 0 0)
(1.3664102 0 0)
(1.366297 0 0)
(1.3661391 0 0)
(1.3659357 0 0)
(1.365686 0 0)
(1.365388 0 0)
(1.3650397 0 0)
(1.3646383 0 0)
(1.3641808 0 0)
(1.3636635 0 0)
(1.3630825 0 0)
(1.3624332 0 0)
(1.3617108 0 0)
(1.3609101 0 0)
(1.3600255 0 0)
(1.3590513 0 0)
(1.3579811 0 0)
(1.3568085 0 0)
(1.3554388 0 0)
(1.3665014 0 0)
(1.3664781 0 0)
(1.3664085 0 0)
(1.3662933 0 0)
(1.3661325 0 0)
(1.3659257 0 0)
(1.3656719 0 0)
(1.3653694 0 0)
(1.3650162 0 0)
(1.3646098 0 0)
(1.3641472 0 0)
(1.3636249 0 0)
(1.3630392 0 0)
(1.3623858 0 0)
(1.36166 0 0)
(1.3608571 0 0)
(1.3599715 0 0)
(1.3589979 0 0)
(1.3579302 0 0)
(1.3567623 0 0)
(1.35541 0 0)
(1.3665014 0 0)
(1.3664777 0 0)
(1.3664069 0 0)
(1.3662897 0 0)
(1.3661263 0 0)
(1.3659162 0 0)
(1.3656586 0 0)
(1.3653519 0 0)
(1.3649943 0 0)
(1.3645833 0 0)
(1.3641161 0 0)
(1.3635895 0 0)
(1.3629999 0 0)
(1.3623432 0 0)
(1.3616153 0 0)
(1.3608112 0 0)
(1.3599261 0 0)
(1.3589547 0 0)
(1.3578914 0 0)
(1.3567305 0 0)
(1.3554004 0 0)
(1.3665014 0 0)
(1.3664773 0 0)
(1.3664053 0 0)
(1.3662863 0 0)
(1.3661203 0 0)
(1.3659071 0 0)
(1.3656459 0 0)
(1.3653353 0 0)
(1.3649734 0 0)
(1.364558 0 0)
(1.3640866 0 0)
(1.363556 0 0)
(1.3629629 0 0)
(1.3623036 0 0)
(1.3615738 0 0)
(1.3607692 0 0)
(1.3598852 0 0)
(1.3589167 0 0)
(1.3578587 0 0)
(1.3567056 0 0)
(1.3554012 0 0)
(1.3665014 0 0)
(1.3664769 0 0)
(1.3664038 0 0)
(1.3662829 0 0)
(1.3661145 0 0)
(1.3658984 0 0)
(1.3656337 0 0)
(1.3653192 0 0)
(1.3649532 0 0)
(1.3645336 0 0)
(1.3640581 0 0)
(1.3635236 0 0)
(1.3629271 0 0)
(1.362265 0 0)
(1.3615334 0 0)
(1.3607282 0 0)
(1.359845 0 0)
(1.3588791 0 0)
(1.3578257 0 0)
(1.3566798 0 0)
(1.3554025 0 0)
(1.3665014 0 0)
(1.3664765 0 0)
(1.3664023 0 0)
(1.3662796 0 0)
(1.3661089 0 0)
(1.3658897 0 0)
(1.3656216 0 0)
(1.3653033 0 0)
(1.3649332 0 0)
(1.3645093 0 0)
(1.3640295 0 0)
(1.3634909 0 0)
(1.3628906 0 0)
(1.3622252 0 0)
(1.3614911 0 0)
(1.3606842 0 0)
(1.3598005 0 0)
(1.3588355 0 0)
(1.3577845 0 0)
(1.3566426 0 0)
(1.3553921 0 0)
(1.3665014 0 0)
(1.3664805 0 0)
(1.3664183 0 0)
(1.3663151 0 0)
(1.3661708 0 0)
(1.3659847 0 0)
(1.3657552 0 0)
(1.3654806 0 0)
(1.3651583 0 0)
(1.3647852 0 0)
(1.3643579 0 0)
(1.3638722 0 0)
(1.3633236 0 0)
(1.3627071 0 0)
(1.3620171 0 0)
(1.3612478 0 0)
(1.3603929 0 0)
(1.3594458 0 0)
(1.3583994 0 0)
(1.3572469 0 0)
(1.3558702 0 0)
(1.3665014 0 0)
(1.36648 0 0)
(1.3664161 0 0)
(1.3663103 0 0)
(1.3661623 0 0)
(1.3659715 0 0)
(1.3657365 0 0)
(1.3654554 0 0)
(1.3651257 0 0)
(1.3647446 0 0)
(1.3643085 0 0)
(1.3638134 0 0)
(1.3632548 0 0)
(1.3626279 0 0)
(1.3619273 0 0)
(1.3611471 0 0)
(1.3602812 0 0)
(1.3593232 0 0)
(1.3582661 0 0)
(1.3571031 0 0)
(1.3557188 0 0)
(1.3665014 0 0)
(1.3664795 0 0)
(1.366414 0 0)
(1.3663055 0 0)
(1.3661539 0 0)
(1.3659585 0 0)
(1.365718 0 0)
(1.3654306 0 0)
(1.365094 0 0)
(1.3647051 0 0)
(1.3642607 0 0)
(1.3637568 0 0)
(1.3631891 0 0)
(1.3625528 0 0)
(1.3618426 0 0)
(1.3610529 0 0)
(1.3601777 0 0)
(1.3592108 0 0)
(1.3581453 0 0)
(1.3569745 0 0)
(1.3555881 0 0)
(1.3665014 0 0)
(1.3664789 0 0)
(1.366412 0 0)
(1.3663011 0 0)
(1.3661462 0 0)
(1.3659466 0 0)
(1.3657012 0 0)
(1.3654083 0 0)
(1.3650654 0 0)
(1.3646698 0 0)
(1.3642183 0 0)
(1.3637071 0 0)
(1.3631319 0 0)
(1.3624882 0 0)
(1.3617708 0 0)
(1.3609744 0 0)
(1.3600931 0 0)
(1.3591208 0 0)
(1.3580511 0 0)
(1.3568773 0 0)
(1.355496 0 0)
(1.3665014 0 0)
(1.3664785 0 0)
(1.3664102 0 0)
(1.366297 0 0)
(1.3661391 0 0)
(1.3659357 0 0)
(1.365686 0 0)
(1.365388 0 0)
(1.3650397 0 0)
(1.3646383 0 0)
(1.3641808 0 0)
(1.3636635 0 0)
(1.3630825 0 0)
(1.3624332 0 0)
(1.3617108 0 0)
(1.3609101 0 0)
(1.3600255 0 0)
(1.3590513 0 0)
(1.3579811 0 0)
(1.3568085 0 0)
(1.3554388 0 0)
(1.3665014 0 0)
(1.3664781 0 0)
(1.3664085 0 0)
(1.3662933 0 0)
(1.3661325 0 0)
(1.3659257 0 0)
(1.3656719 0 0)
(1.3653694 0 0)
(1.3650162 0 0)
(1.3646098 0 0)
(1.3641472 0 0)
(1.3636249 0 0)
(1.3630392 0 0)
(1.3623858 0 0)
(1.36166 0 0)
(1.3608571 0 0)
(1.3599715 0 0)
(1.3589979 0 0)
(1.3579302 0 0)
(1.3567623 0 0)
(1.35541 0 0)
(1.3665014 0 0)
(1.3664777 0 0)
(1.3664069 0 0)
(1.3662897 0 0)
(1.3661263 0 0)
(1.3659162 0 0)
(1.3656586 0 0)
(1.3653519 0 0)
(1.3649943 0 0)
(1.3645833 0 0)
(1.3641161 0 0)
(1.3635895 0 0)
(1.3629999 0 0)
(1.3623432 0 0)
(1.3616153 0 0)
(1.3608112 0 0)
(1.3599261 0 0)
(1.3589547 0 0)
(1.3578914 0 0)
(1.3567305 0 0)
(1.3554004 0 0)
(1.3665014 0 0)
(1.3664773 0 0)
(1.3664053 0 0)
(1.3662863 0 0)
(1.3661203 0 0)
(1.3659071 0 0)
(1.3656459 0 0)
(1.3653353 0 0)
(1.3649734 0 0)
(1.364558 0 0)
(1.3640866 0 0)
(1.363556 0 0)
(1.3629629 0 0)
(1.3623036 0 0)
(1.3615738 0 0)
(1.3607692 0 0)
(1.3598852 0 0)
(1.3589167 0 0)
(1.3578587 0 0)
(1.3567056 0 0)
(1.3554012 0 0)
(1.3665014 0 0)
(1.3664769 0 0)
(1.3664038 0 0)
(1.3662829 0 0)
(1.3661145 0 0)
(1.3658984 0 0)
(1.3656337 0 0)
(1.3653192 0 0)
(1.3649532 0 0)
(1.3645336 0 0)
(1.3640581 0 0)
(1.3635236 0 0)
(1.3629271 0 0)
(1.362265 0 0)
(1.3615334 0 0)
(1.3607282 0 0)
(1.359845 0 0)
(1.3588791 0 0)
(1.3578257 0 0)
(1.3566798 0 0)
(1.3554025 0 0)
(1.3665014 0 0)
(1.3664765 0 0)
(1.3664023 0 0)
(1.3662796 0 0)
(1.3661089 0 0)
(1.3658897 0 0)
(1.3656216 0 0)
(1.3653033 0 0)
(1.3649332 0 0)
(1.3645093 0 0)
(1.3640295 0 0)
(1.3634909 0 0)
(1.3628906 0 0)
(1.3622252 0 0)
(1.3614911 0 0)
(1.3606842 0 0)
(1.3598005 0 0)
(1.3588355 0 0)
(1.3577845 0 0)
(1.3566426 0 0)
(1.3553921 0 0)
(1.3541071 0 0)
(1.352039 0 0)
(1.3497636 0 0)
(1.3472641 0 0)
(1.3445215 0 0)
(1.3415148 0 0)
(1.3382179 0 0)
(1.3345957 0 0)
(1.3306059 0 0)
(1.3262065 0 0)
(1.3213585 0 0)
(1.3160232 0 0)
(1.3101607 0 0)
(1.3037278 0 0)
(1.2966758 0 0)
(1.2889486 0 0)
(1.2804874 0 0)
(1.2712353 0 0)
(1.2611398 0 0)
(1.2501465 0 0)
(1.2381968 0 0)
(1.2252298 0 0)
(1.211186 0 0)
(1.1959991 0 0)
(1.1795931 0 0)
(1.1618872 0 0)
(1.1427977 0 0)
(1.1222425 0 0)
(1.1001279 0 0)
(1.0763639 0 0)
(1.0508398 0 0)
(1.0234106 0 0)
(0.99394417 0 0)
(0.96233354 0 0)
(0.92842971 0 0)
(0.89201746 0 0)
(0.85292566 0 0)
(0.81103241 0 0)
(0.76614155 0 0)
(0.71795591 0 0)
(0.6662643 0 0)
(0.61091406 0 0)
(0.55164751 0 0)
(0.48816831 0 0)
(0.42017372 0 0)
(0.34735741 0 0)
(0.26936404 0 0)
(0.1857348 0 0)
(0.095983192 0 0)
(0 0 0)
(1.3539546 0 0)
(1.3518889 0 0)
(1.3496166 0 0)
(1.347121 0 0)
(1.3443837 0 0)
(1.3413841 0 0)
(1.3380972 0 0)
(1.3344882 0 0)
(1.3305141 0 0)
(1.3261318 0 0)
(1.3213015 0 0)
(1.3159843 0 0)
(1.3101401 0 0)
(1.3037259 0 0)
(1.2966927 0 0)
(1.288984 0 0)
(1.2805408 0 0)
(1.271306 0 0)
(1.2612267 0 0)
(1.2502485 0 0)
(1.2383131 0 0)
(1.2253596 0 0)
(1.2113281 0 0)
(1.1961526 0 0)
(1.179757 0 0)
(1.162061 0 0)
(1.1429815 0 0)
(1.1224349 0 0)
(1.1003277 0 0)
(1.0765696 0 0)
(1.0510505 0 0)
(1.0236257 0 0)
(0.99416246 0 0)
(0.96255329 0 0)
(0.92864957 0 0)
(0.89223542 0 0)
(0.85313853 0 0)
(0.81123735 0 0)
(0.76633681 0 0)
(0.7181388 0 0)
(0.666432 0 0)
(0.6110658 0 0)
(0.55178315 0 0)
(0.48828809 0 0)
(0.42027624 0 0)
(0.34744077 0 0)
(0.26942634 0 0)
(0.18577534 0 0)
(0.096002869 0 0)
(0 0 0)
(1.3538328 0 0)
(1.3517815 0 0)
(1.3495241 0 0)
(1.3470442 0 0)
(1.3443237 0 0)
(1.3413431 0 0)
(1.3380779 0 0)
(1.334494 0 0)
(1.3305475 0 0)
(1.3261946 0 0)
(1.3213949 0 0)
(1.3161088 0 0)
(1.3102961 0 0)
(1.3039136 0 0)
(1.2969124 0 0)
(1.2892359 0 0)
(1.2808245 0 0)
(1.2716203 0 0)
(1.2615705 0 0)
(1.2506212 0 0)
(1.2387133 0 0)
(1.2257855 0 0)
(1.2117782 0 0)
(1.1966259 0 0)
(1.1802519 0 0)
(1.1625753 0 0)
(1.1435152 0 0)
(1.1229859 0 0)
(1.1008931 0 0)
(1.0771469 0 0)
(1.0516382 0 0)
(1.0242215 0 0)
(0.99476309 0 0)
(0.96315574 0 0)
(0.92925136 0 0)
(0.89283231 0 0)
(0.85372444 0 0)
(0.81180716 0 0)
(0.76688664 0 0)
(0.7186634 0 0)
(0.66692569 0 0)
(0.61152498 0 0)
(0.55220417 0 0)
(0.48866647 0 0)
(0.4206061 0 0)
(0.34771621 0 0)
(0.26964079 0 0)
(0.18592242 0 0)
(0.096077953 0 0)
(0 0 0)
(1.3537605 0 0)
(1.3517365 0 0)
(1.3495068 0 0)
(1.3470553 0 0)
(1.3443645 0 0)
(1.3414156 0 0)
(1.338185 0 0)
(1.3346388 0 0)
(1.3307332 0 0)
(1.3264233 0 0)
(1.3216677 0 0)
(1.3164267 0 0)
(1.3106596 0 0)
(1.3043231 0 0)
(1.2973682 0 0)
(1.2897384 0 0)
(1.2813734 0 0)
(1.2722145 0 0)
(1.2622085 0 0)
(1.2513019 0 0)
(1.2394353 0 0)
(1.2265465 0 0)
(1.2125758 0 0)
(1.1974583 0 0)
(1.1811167 0 0)
(1.16347 0 0)
(1.144438 0 0)
(1.1239339 0 0)
(1.1018628 0 0)
(1.0781343 0 0)
(1.05264 0 0)
(1.025234 0 0)
(0.99578166 0 0)
(0.96417579 0 0)
(0.93026833 0 0)
(0.89383959 0 0)
(0.85471382 0 0)
(0.81277111 0 0)
(0.76781807 0 0)
(0.7195544 0 0)
(0.66776846 0 0)
(0.61231277 0 0)
(0.55292911 0 0)
(0.4893194 0 0)
(0.42117686 0 0)
(0.34819478 0 0)
(0.27001568 0 0)
(0.1861814 0 0)
(0.096211103 0 0)
(0 0 0)
(1.3537336 0 0)
(1.3517494 0 0)
(1.34956 0 0)
(1.3471494 0 0)
(1.3445008 0 0)
(1.3415961 0 0)
(1.3384128 0 0)
(1.3349174 0 0)
(1.3310654 0 0)
(1.3268115 0 0)
(1.3221135 0 0)
(1.316931 0 0)
(1.3112233 0 0)
(1.3049467 0 0)
(1.2980523 0 0)
(1.2904837 0 0)
(1.2821795 0 0)
(1.2730799 0 0)
(1.2631319 0 0)
(1.2522822 0 0)
(1.2404703 0 0)
(1.2276333 0 0)
(1.2137116 0 0)
(1.1986409 0 0)
(1.1823428 0 0)
(1.1647357 0 0)
(1.1457408 0 0)
(1.1252699 0 0)
(1.103227 0 0)
(1.079522 0 0)
(1.0540468 0 0)
(1.0266543 0 0)
(0.99720872 0 0)
(0.96560398 0 0)
(0.93169158 0 0)
(0.89524871 0 0)
(0.85609799 0 0)
(0.81412073 0 0)
(0.76912373 0 0)
(0.72080508 0 0)
(0.66895345 0 0)
(0.61342257 0 0)
(0.55395221 0 0)
(0.49024173 0 0)
(0.42198386 0 0)
(0.34887252 0 0)
(0.27054798 0 0)
(0.18655033 0 0)
(0.09640137 0 0)
(0 0 0)
(1.3537451 0 0)
(1.3518126 0 0)
(1.3496756 0 0)
(1.347318 0 0)
(1.3447238 0 0)
(1.341876 0 0)
(1.3387528 0 0)
(1.3353206 0 0)
(1.3315348 0 0)
(1.3273494 0 0)
(1.3227215 0 0)
(1.3176107 0 0)
(1.3119758 0 0)
(1.3057729 0 0)
(1.2989531 0 0)
(1.2914598 0 0)
(1.2832305 0 0)
(1.2742046 0 0)
(1.2643285 0 0)
(1.2535493 0 0)
(1.2418058 0 0)
(1.2290336 0 0)
(1.2151732 0 0)
(1.2001607 0 0)
(1.1839172 0 0)
(1.1663599 0 0)
(1.1474107 0 0)
(1.1269808 0 0)
(1.1049733 0 0)
(1.0812977 0 0)
(1.0558458 0 0)
(1.0284693 0 0)
(0.99903198 0 0)
(0.96742822 0 0)
(0.93350881 0 0)
(0.89704757 0 0)
(0.85786561 0 0)
(0.81584535 0 0)
(0.770793 0 0)
(0.72240517 0 0)
(0.67047142 0 0)
(0.61484592 0 0)
(0.55526536 0 0)
(0.49142617 0 0)
(0.42302086 0 0)
(0.34974432 0 0)
(0.2712335 0 0)
(0.1870262 0 0)
(0.0966472 0 0)
(0 0 0)
(1.3537852 0 0)
(1.3519162 0 0)
(1.349843 0 0)
(1.3475502 0 0)
(1.3450226 0 0)
(1.3422442 0 0)
(1.3391938 0 0)
(1.3358366 0 0)
(1.3321279 0 0)
(1.3280224 0 0)
(1.3234772 0 0)
(1.3184509 0 0)
(1.3129018 0 0)
(1.3067862 0 0)
(1.3000549 0 0)
(1.2926509 0 0)
(1.2845105 0 0)
(1.2755722 0 0)
(1.265782 0 0)
(1.2550871 0 0)
(1.2434253 0 0)
(1.2307308 0 0)
(1.216944 0 0)
(1.2020014 0 0)
(1.1858232 0 0)
(1.1683257 0 0)
(1.1494314 0 0)
(1.1290501 0 0)
(1.1070845 0 0)
(1.0834443 0 0)
(1.0580207 0 0)
(1.030663 0 0)
(1.0012349 0 0)
(0.96963227 0 0)
(0.93570446 0 0)
(0.89922099 0 0)
(0.86000158 0 0)
(0.81793032 0 0)
(0.77281242 0 0)
(0.72434209 0 0)
(0.67231023 0 0)
(0.61657128 0 0)
(0.55685821 0 0)
(0.49286341 0 0)
(0.42427957 0 0)
(0.35080306 0 0)
(0.27206685 0 0)
(0.1876054 0 0)
(0.09694662 0 0)
(0 0 0)
(1.3538443 0 0)
(1.3520498 0 0)
(1.3500521 0 0)
(1.3478356 0 0)
(1.3453864 0 0)
(1.3426895 0 0)
(1.3397226 0 0)
(1.3364501 0 0)
(1.3328285 0 0)
(1.328814 0 0)
(1.3243638 0 0)
(1.3194345 0 0)
(1.3139835 0 0)
(1.3079676 0 0)
(1.3013384 0 0)
(1.2940373 0 0)
(1.2859998 0 0)
(1.2771633 0 0)
(1.2674728 0 0)
(1.2568755 0 0)
(1.2453089 0 0)
(1.2327052 0 0)
(1.2190041 0 0)
(1.2041426 0 0)
(1.1880405 0 0)
(1.1706132 0 0)
(1.1517824 0 0)
(1.1314575 0 0)
(1.1095407 0 0)
(1.085942 0 0)
(1.0605513 0 0)
(1.0332154 0 0)
(1.0037982 0 0)
(0.97219674 0 0)
(0.93825922 0 0)
(0.90175018 0 0)
(0.86248799 0 0)
(0.82035831 0 0)
(0.77516494 0 0)
(0.72659978 0 0)
(0.67445498 0 0)
(0.61858488 0 0)
(0.55871796 0 0)
(0.49454192 0 0)
(0.42575 0 0)
(0.35204049 0 0)
(0.2730414 0 0)
(0.18828314 0 0)
(0.097297151 0 0)
(0 0 0)
(1.3539113 0 0)
(1.3522028 0 0)
(1.3502923 0 0)
(1.3481638 0 0)
(1.3458042 0 0)
(1.3431985 0 0)
(1.3403244 0 0)
(1.3371463 0 0)
(1.3336212 0 0)
(1.3297072 0 0)
(1.3253614 0 0)
(1.3205401 0 0)
(1.3151996 0 0)
(1.3092969 0 0)
(1.3027827 0 0)
(1.295598 0 0)
(1.2876772 0 0)
(1.2789559 0 0)
(1.269378 0 0)
(1.2588915 0 0)
(1.2474335 0 0)
(1.2349335 0 0)
(1.2213302 0 0)
(1.2065612 0 0)
(1.1905459 0 0)
(1.1731987 0 0)
(1.1544406 0 0)
(1.1341797 0 0)
(1.1123182 0 0)
(1.0887669 0 0)
(1.0634143 0 0)
(1.0361037 0 0)
(1.0066986 0 0)
(0.9750988 0 0)
(0.94115085 0 0)
(0.9046135 0 0)
(0.86530347 0 0)
(0.82310864 0 0)
(0.77783122 0 0)
(0.72916004 0 0)
(0.67688829 0 0)
(0.62087024 0 0)
(0.56082958 0 0)
(0.49644825 0 0)
(0.42742037 0 0)
(0.35344652 0 0)
(0.2741493 0 0)
(0.18905417 0 0)
(0.097696082 0 0)
(0 0 0)
(1.3539751 0 0)
(1.3523664 0 0)
(1.3505562 0 0)
(1.3485276 0 0)
(1.3462685 0 0)
(1.3437632 0 0)
(1.3409889 0 0)
(1.3379122 0 0)
(1.3344925 0 0)
(1.3306876 0 0)
(1.3264561 0 0)
(1.321754 0 0)
(1.3165369 0 0)
(1.3107605 0 0)
(1.3043746 0 0)
(1.297319 0 0)
(1.2895265 0 0)
(1.2809328 0 0)
(1.2714814 0 0)
(1.2611198 0 0)
(1.2497844 0 0)
(1.2374014 0 0)
(1.2239071 0 0)
(1.2092411 0 0)
(1.1933235 0 0)
(1.1760666 0 0)
(1.1573901 0 0)
(1.1372009 0 0)
(1.1154013 0 0)
(1.0919032 0 0)
(1.0665937 0 0)
(1.0393117 0 0)
(1.0099205 0 0)
(0.97832238 0 0)
(0.94436288 0 0)
(0.90779462 0 0)
(0.86843228 0 0)
(0.82616589 0 0)
(0.78079589 0 0)
(0.73200809 0 0)
(0.67959627 0 0)
(0.62341415 0 0)
(0.56318046 0 0)
(0.49857085 0 0)
(0.4292805 0 0)
(0.35501258 0 0)
(0.27538353 0 0)
(0.18991343 0 0)
(0.098140742 0 0)
(0 0 0)
(1.3536674 0 0)
(1.3521456 0 0)
(1.3504208 0 0)
(1.3484773 0 0)
(1.3463035 0 0)
(1.3438819 0 0)
(1.341189 0 0)
(1.3381955 0 0)
(1.334863 0 0)
(1.3311493 0 0)
(1.3270135 0 0)
(1.3224121 0 0)
(1.3173003 0 0)
(1.3116323 0 0)
(1.3053577 0 0)
(1.2984154 0 0)
(1.2907377 0 0)
(1.2822608 0 0)
(1.2729278 0 0)
(1.2626852 0 0)
(1.251467 0 0)
(1.2391967 0 0)
(1.2258115 0 0)
(1.2112522 0 0)
(1.1954373 0 0)
(1.1782783 0 0)
(1.1596937 0 0)
(1.139589 0 0)
(1.1178659 0 0)
(1.0944374 0 0)
(1.0691896 0 0)
(1.0419581 0 0)
(1.0126041 0 0)
(0.98103222 0 0)
(0.94708769 0 0)
(0.91051886 0 0)
(0.87113593 0 0)
(0.82883034 0 0)
(0.78340158 0 0)
(0.7345341 0 0)
(0.68201896 0 0)
(0.62570959 0 0)
(0.56532008 0 0)
(0.50051924 0 0)
(0.43100234 0 0)
(0.35647544 0 0)
(0.27654856 0 0)
(0.19073561 0 0)
(0.098577833 0 0)
(0 0 0)
(1.3541071 0 0)
(1.352039 0 0)
(1.3497636 0 0)
(1.3472641 0 0)
(1.3445215 0 0)
(1.3415148 0 0)
(1.3382179 0 0)
(1.3345957 0 0)
(1.3306059 0 0)
(1.3262065 0 0)
(1.3213585 0 0)
(1.3160232 0 0)
(1.3101607 0 0)
(1.3037278 0 0)
(1.2966758 0 0)
(1.2889486 0 0)
(1.2804874 0 0)
(1.2712353 0 0)
(1.2611398 0 0)
(1.2501465 0 0)
(1.2381968 0 0)
(1.2252298 0 0)
(1.211186 0 0)
(1.1959991 0 0)
(1.1795931 0 0)
(1.1618872 0 0)
(1.1427977 0 0)
(1.1222425 0 0)
(1.1001279 0 0)
(1.0763639 0 0)
(1.0508398 0 0)
(1.0234106 0 0)
(0.99394417 0 0)
(0.96233354 0 0)
(0.92842971 0 0)
(0.89201746 0 0)
(0.85292566 0 0)
(0.81103241 0 0)
(0.76614155 0 0)
(0.71795591 0 0)
(0.6662643 0 0)
(0.61091406 0 0)
(0.55164751 0 0)
(0.48816831 0 0)
(0.42017372 0 0)
(0.34735741 0 0)
(0.26936404 0 0)
(0.1857348 0 0)
(0.095983192 0 0)
(0 0 0)
(1.3539546 0 0)
(1.3518889 0 0)
(1.3496166 0 0)
(1.347121 0 0)
(1.3443837 0 0)
(1.3413841 0 0)
(1.3380972 0 0)
(1.3344882 0 0)
(1.3305141 0 0)
(1.3261318 0 0)
(1.3213015 0 0)
(1.3159843 0 0)
(1.3101401 0 0)
(1.3037259 0 0)
(1.2966927 0 0)
(1.288984 0 0)
(1.2805408 0 0)
(1.271306 0 0)
(1.2612267 0 0)
(1.2502485 0 0)
(1.2383131 0 0)
(1.2253596 0 0)
(1.2113281 0 0)
(1.1961526 0 0)
(1.179757 0 0)
(1.162061 0 0)
(1.1429815 0 0)
(1.1224349 0 0)
(1.1003277 0 0)
(1.0765696 0 0)
(1.0510505 0 0)
(1.0236257 0 0)
(0.99416246 0 0)
(0.96255329 0 0)
(0.92864957 0 0)
(0.89223542 0 0)
(0.85313853 0 0)
(0.81123735 0 0)
(0.76633681 0 0)
(0.7181388 0 0)
(0.666432 0 0)
(0.6110658 0 0)
(0.55178315 0 0)
(0.48828809 0 0)
(0.42027624 0 0)
(0.34744077 0 0)
(0.26942634 0 0)
(0.18577534 0 0)
(0.096002869 0 0)
(0 0 0)
(1.3538328 0 0)
(1.3517815 0 0)
(1.3495241 0 0)
(1.3470442 0 0)
(1.3443237 0 0)
(1.3413431 0 0)
(1.3380779 0 0)
(1.334494 0 0)
(1.3305475 0 0)
(1.3261946 0 0)
(1.3213949 0 0)
(1.3161088 0 0)
(1.3102961 0 0)
(1.3039136 0 0)
(1.2969124 0 0)
(1.2892359 0 0)
(1.2808245 0 0)
(1.2716203 0 0)
(1.2615705 0 0)
(1.2506212 0 0)
(1.2387133 0 0)
(1.2257855 0 0)
(1.2117782 0 0)
(1.1966259 0 0)
(1.1802519 0 0)
(1.1625753 0 0)
(1.1435152 0 0)
(1.1229859 0 0)
(1.1008931 0 0)
(1.0771469 0 0)
(1.0516382 0 0)
(1.0242215 0 0)
(0.99476309 0 0)
(0.96315574 0 0)
(0.92925136 0 0)
(0.89283231 0 0)
(0.85372444 0 0)
(0.81180716 0 0)
(0.76688664 0 0)
(0.7186634 0 0)
(0.66692569 0 0)
(0.61152498 0 0)
(0.55220417 0 0)
(0.48866647 0 0)
(0.4206061 0 0)
(0.34771621 0 0)
(0.26964079 0 0)
(0.18592242 0 0)
(0.096077953 0 0)
(0 0 0)
(1.3537605 0 0)
(1.3517365 0 0)
(1.3495068 0 0)
(1.3470553 0 0)
(1.3443645 0 0)
(1.3414156 0 0)
(1.338185 0 0)
(1.3346388 0 0)
(1.3307332 0 0)
(1.3264233 0 0)
(1.3216677 0 0)
(1.3164267 0 0)
(1.3106596 0 0)
(1.3043231 0 0)
(1.2973682 0 0)
(1.2897384 0 0)
(1.2813734 0 0)
(1.2722145 0 0)
(1.2622085 0 0)
(1.2513019 0 0)
(1.2394353 0 0)
(1.2265465 0 0)
(1.2125758 0 0)
(1.1974583 0 0)
(1.1811167 0 0)
(1.16347 0 0)
(1.144438 0 0)
(1.1239339 0 0)
(1.1018628 0 0)
(1.0781343 0 0)
(1.05264 0 0)
(1.025234 0 0)
(0.99578166 0 0)
(0.96417579 0 0)
(0.93026833 0 0)
(0.89383959 0 0)
(0.85471382 0 0)
(0.81277111 0 0)
(0.76781807 0 0)
(0.7195544 0 0)
(0.66776846 0 0)
(0.61231277 0 0)
(0.55292911 0 0)
(0.4893194 0 0)
(0.42117686 0 0)
(0.34819478 0 0)
(0.27001568 0 0)
(0.1861814 0 0)
(0.096211103 0 0)
(0 0 0)
(1.3537336 0 0)
(1.3517494 0 0)
(1.34956 0 0)
(1.3471494 0 0)
(1.3445008 0 0)
(1.3415961 0 0)
(1.3384128 0 0)
(1.3349174 0 0)
(1.3310654 0 0)
(1.3268115 0 0)
(1.3221135 0 0)
(1.316931 0 0)
(1.3112233 0 0)
(1.3049467 0 0)
(1.2980523 0 0)
(1.2904837 0 0)
(1.2821795 0 0)
(1.2730799 0 0)
(1.2631319 0 0)
(1.2522822 0 0)
(1.2404703 0 0)
(1.2276333 0 0)
(1.2137116 0 0)
(1.1986409 0 0)
(1.1823428 0 0)
(1.1647357 0 0)
(1.1457408 0 0)
(1.1252699 0 0)
(1.103227 0 0)
(1.079522 0 0)
(1.0540468 0 0)
(1.0266543 0 0)
(0.99720872 0 0)
(0.96560398 0 0)
(0.93169158 0 0)
(0.89524871 0 0)
(0.85609799 0 0)
(0.81412073 0 0)
(0.76912373 0 0)
(0.72080508 0 0)
(0.66895345 0 0)
(0.61342257 0 0)
(0.55395221 0 0)
(0.49024173 0 0)
(0.42198386 0 0)
(0.34887252 0 0)
(0.27054798 0 0)
(0.18655033 0 0)
(0.09640137 0 0)
(0 0 0)
(1.3537451 0 0)
(1.3518126 0 0)
(1.3496756 0 0)
(1.347318 0 0)
(1.3447238 0 0)
(1.341876 0 0)
(1.3387528 0 0)
(1.3353206 0 0)
(1.3315348 0 0)
(1.3273494 0 0)
(1.3227215 0 0)
(1.3176107 0 0)
(1.3119758 0 0)
(1.3057729 0 0)
(1.2989531 0 0)
(1.2914598 0 0)
(1.2832305 0 0)
(1.2742046 0 0)
(1.2643285 0 0)
(1.2535493 0 0)
(1.2418058 0 0)
(1.2290336 0 0)
(1.2151732 0 0)
(1.2001607 0 0)
(1.1839172 0 0)
(1.1663599 0 0)
(1.1474107 0 0)
(1.1269808 0 0)
(1.1049733 0 0)
(1.0812977 0 0)
(1.0558458 0 0)
(1.0284693 0 0)
(0.99903198 0 0)
(0.96742822 0 0)
(0.93350881 0 0)
(0.89704757 0 0)
(0.85786561 0 0)
(0.81584535 0 0)
(0.770793 0 0)
(0.72240517 0 0)
(0.67047142 0 0)
(0.61484592 0 0)
(0.55526536 0 0)
(0.49142617 0 0)
(0.42302086 0 0)
(0.34974432 0 0)
(0.2712335 0 0)
(0.1870262 0 0)
(0.0966472 0 0)
(0 0 0)
(1.3537852 0 0)
(1.3519162 0 0)
(1.349843 0 0)
(1.3475502 0 0)
(1.3450226 0 0)
(1.3422442 0 0)
(1.3391938 0 0)
(1.3358366 0 0)
(1.3321279 0 0)
(1.3280224 0 0)
(1.3234772 0 0)
(1.3184509 0 0)
(1.3129018 0 0)
(1.3067862 0 0)
(1.3000549 0 0)
(1.2926509 0 0)
(1.2845105 0 0)
(1.2755722 0 0)
(1.265782 0 0)
(1.2550871 0 0)
(1.2434253 0 0)
(1.2307308 0 0)
(1.216944 0 0)
(1.2020014 0 0)
(1.1858232 0 0)
(1.1683257 0 0)
(1.1494314 0 0)
(1.1290501 0 0)
(1.1070845 0 0)
(1.0834443 0 0)
(1.0580207 0 0)
(1.030663 0 0)
(1.0012349 0 0)
(0.96963227 0 0)
(0.93570446 0 0)
(0.89922099 0 0)
(0.86000158 0 0)
(0.81793032 0 0)
(0.77281242 0 0)
(0.72434209 0 0)
(0.67231023 0 0)
(0.61657128 0 0)
(0.55685821 0 0)
(0.49286341 0 0)
(0.42427957 0 0)
(0.35080306 0 0)
(0.27206685 0 0)
(0.1876054 0 0)
(0.09694662 0 0)
(0 0 0)
(1.3538443 0 0)
(1.3520498 0 0)
(1.3500521 0 0)
(1.3478356 0 0)
(1.3453864 0 0)
(1.3426895 0 0)
(1.3397226 0 0)
(1.3364501 0 0)
(1.3328285 0 0)
(1.328814 0 0)
(1.3243638 0 0)
(1.3194345 0 0)
(1.3139835 0 0)
(1.3079676 0 0)
(1.3013384 0 0)
(1.2940373 0 0)
(1.2859998 0 0)
(1.2771633 0 0)
(1.2674728 0 0)
(1.2568755 0 0)
(1.2453089 0 0)
(1.2327052 0 0)
(1.2190041 0 0)
(1.2041426 0 0)
(1.1880405 0 0)
(1.1706132 0 0)
(1.1517824 0 0)
(1.1314575 0 0)
(1.1095407 0 0)
(1.085942 0 0)
(1.0605513 0 0)
(1.0332154 0 0)
(1.0037982 0 0)
(0.97219674 0 0)
(0.93825922 0 0)
(0.90175018 0 0)
(0.86248799 0 0)