/*--------------------------------*- C++ -*----------------------------------*\
| =========                 |                                                 |
| \\      /  F ield         | OpenFOAM: The Open Source CFD Toolbox           |
|  \\    /   O peration     | Version:  v2012                                 |
|   \\  /    A nd           | Website:  www.openfoam.com                      |
|    \\/     M anipulation  |                                                 |
\*---------------------------------------------------------------------------*/
FoamFile
{
    version     2.0;
    format      ascii;
    class       volVectorField;
    location    "33.235017676257776";
    object      U;
}
// * * * * * * * * * * * * * * * * * * * * * * * * * * * * * * * * * * * * * //

dimensions      [0 1 -1 0 0 0 0];


internalField   nonuniform List<vector> 
9200
(
(2.5600783 0.0089164092 7.3919684e-22)
(2.5541202 0.030087173 1.6647039e-21)
(2.537578 0.0057643795 2.3635452e-22)
(2.5443393 0.046826561 2.918353e-23)
(2.5311449 0.01878806 5.8011391e-22)
(2.5319714 0.0043828928 -6.7010013e-22)
(2.5298126 0.063140506 -4.4994459e-22)
(2.5229143 0.028126757 0)
(2.5270639 0.014220669 -1.3617605e-21)
(2.5253003 0.0028963231 1.412596e-23)
(2.5112944 0.076096333 -3.6015584e-21)
(2.5105195 0.036435951 -8.7100185e-22)
(2.5199106 0.020945747 0)
(2.5208244 0.0092403613 -1.5825091e-21)
(2.5220077 0.0017499505 -6.9216869e-22)
(2.4888151 0.08620157 2.167985e-21)
(2.4957156 0.041444987 5.7514833e-22)
(2.5091962 0.026620939 -7.7288165e-22)
(2.5147007 0.013204614 -8.1521548e-22)
(2.5182748 0.0054958908 1.0549845e-21)
(2.520087 0.00077131184 6.4101626e-22)
(2.4628897 0.091775412 0)
(2.4786693 0.043596115 9.8436858e-22)
(2.4965263 0.029462792 2.2520881e-21)
(2.5056466 0.015989536 -5.0641446e-22)
(2.5131428 0.0074343545 1.4668814e-21)
(2.5169048 0.0023821138 1.8382766e-21)
(2.5196442 -2.8841101e-05 -1.9946618e-22)
(2.4341404 0.092525063 -1.2979061e-22)
(2.4603985 0.042468789 -4.4969929e-22)
(2.4820364 0.029799546 -9.3288432e-22)
(2.4951875 0.016420788 4.678001e-22)
(2.5055806 0.0082231907 1.1381007e-21)
(2.5126268 0.0026815639 7.2191329e-22)
(2.5168929 -0.00015048068 -1.1388265e-21)
(2.5201871 -0.00062863977 -4.1073454e-22)
(2.4036442 0.087391181 -3.8796996e-22)
(2.441801 0.037724657 -1.1990881e-21)
(2.4666327 0.027109202 -7.1755776e-22)
(2.483511 0.014684901 -1.5338405e-21)
(2.4969627 0.0071506313 -5.141991e-22)
(2.5063221 0.0018866379 -1.5515526e-22)
(2.5133995 -0.0011533837 -9.9737336e-22)
(2.517806 -0.0022630397 2.10247e-22)
(2.521504 -0.0010866272 1.5729965e-21)
(2.3728373 0.07581515 -1.5190593e-21)
(2.4240089 0.029217002 -2.4476846e-21)
(2.4509826 0.021365758 -5.6211081e-22)
(2.4714503 0.010629288 -5.8013201e-22)
(2.487441 0.0042579925 9.0283179e-22)
(2.4992392 -0.0003351399 -1.0862227e-21)
(2.5081582 -0.0031861949 -2.0802028e-21)
(2.5149633 -0.0043063344 1.3224765e-22)
(2.5195102 -0.0040358364 8.4281592e-22)
(2.5234277 -0.0015304242 -9.4262808e-22)
(2.3437831 0.059037844 -1.1162146e-21)
(2.4080722 0.017457788 -3.533025e-21)
(2.4358831 0.012789606 -1.4688644e-21)
(2.4595454 0.0043569273 -1.6405595e-21)
(2.4777053 -0.00041077345 2.9670905e-22)
(2.491481 -0.0040806506 1.2667682e-21)
(2.5023498 -0.006258738 1.6180003e-23)
(2.5106182 -0.0073604313 1.7583817e-21)
(2.5171708 -0.0069387815 1.0914277e-21)
(2.5217862 -0.0055291869 3.0029963e-23)
(2.5258375 -0.0019259538 -4.3627124e-22)
(2.3175109 0.035281397 -2.031157e-21)
(2.3944273 0.0011323508 -4.1040233e-22)
(2.4220823 0.0017818124 5.7697477e-22)
(2.4484164 -0.0038691121 8.4057282e-22)
(2.4681601 -0.0067839088 4.332776e-22)
(2.4836323 -0.0091652224 -1.180071e-21)
(2.4960177 -0.010610529 -1.0761039e-21)
(2.505852 -0.011098701 1.3942378e-21)
(2.5135883 -0.010838634 1.2434425e-21)
(2.519861 -0.0091663884 -5.613352e-22)
(2.5244883 -0.0067884214 -1.1222462e-21)
(2.5286123 -0.0022472354 5.4743575e-22)
(2.2949366 0.0066293944 1.2119708e-21)
(2.3820009 -0.016686004 -1.2676592e-21)
(2.4099329 -0.010899342 1.5505318e-21)
(2.438511 -0.013714205 1.9224923e-21)
(2.4592419 -0.014547621 1.4561621e-21)
(2.4759973 -0.01554891 -1.2935884e-22)
(2.4896487 -0.015955349 -3.1885741e-22)
(2.5006799 -0.015921497 -5.4563183e-22)
(2.5096779 -0.01512035 -1.3644588e-21)
(2.5169163 -0.013772471 -2.0767923e-21)
(2.5229236 -0.011054629 -8.109318e-22)
(2.5275118 -0.0078456096 2.2359617e-22)
(2.5316501 -0.0025042445 7.1980496e-24)
(2.2779272 -0.025615171 1.6374188e-21)
(2.3725089 -0.03573506 -3.4552758e-21)
(2.4000833 -0.025046619 9.5534173e-22)
(2.4301582 -0.024781122 9.3160292e-23)
(2.451254 -0.023400705 -9.1739737e-22)
(2.4688878 -0.022912042 -2.4424963e-22)
(2.4834668 -0.022313798 9.6981223e-22)
(2.4955047 -0.021460437 1.2568399e-21)
(2.5054556 -0.020322648 -2.0851705e-22)
(2.5137114 -0.018515052 -3.6508422e-22)
(2.520513 -0.016259153 -2.0245485e-23)
(2.5262622 -0.012646832 6.1814443e-22)
(2.530773 -0.008722472 8.4737023e-22)
(2.5348676 -0.0027103629 1.187465e-22)
(2.2670497 -0.059757452 6.0422637e-23)
(2.3665041 -0.05602203 -6.5527953e-22)
(2.3929247 -0.04070195 2.5545908e-22)
(2.4235098 -0.036693485 0)
(2.4444161 -0.032934797 1.1046047e-22)
(2.4624937 -0.031015475 6.7183697e-22)
(2.4776898 -0.029389517 4.2720666e-22)
(2.4905042 -0.027799974 1.3666703e-22)
(2.5012533 -0.026014572 7.4748754e-22)
(2.5102638 -0.024035801 9.9021504e-22)
(2.5178933 -0.021401723 5.5458452e-22)
(2.5243054 -0.018363838 2.0918586e-22)
(2.5298003 -0.013975024 -4.06009e-22)
(2.5341975 -0.0094357943 -2.1289728e-22)
(2.5381948 -0.0028716709 6.7203389e-23)
(2.2620283 -0.094150342 6.4388373e-23)
(2.3639732 -0.07670761 -3.2077919e-22)
(2.3886706 -0.056966864 -1.8261061e-22)
(2.4188189 -0.048853716 0)
(2.4388822 -0.042735987 8.6174916e-22)
(2.4569159 -0.039515827 1.127413e-21)
(2.4724292 -0.037014749 2.2558372e-22)
(2.4858425 -0.034676734 -4.3399703e-22)
(2.4972241 -0.032334968 -7.8135984e-22)
(2.5068519 -0.029853226 5.5654387e-22)
(2.5150749 -0.02719987 6.1030076e-22)
(2.5221742 -0.023860585 -3.3981042e-22)
(2.5282386 -0.020132089 -9.2030857e-23)
(2.5334741 -0.01506448 -1.0974157e-22)
(2.5377213 -0.0099998362 -1.8683106e-22)
(2.5415727 -0.0029918008 1.1379514e-22)
(2.2623185 -0.12769543 -2.0125218e-21)
(2.3647326 -0.097270896 -6.0659474e-22)
(2.3873206 -0.073202344 -7.0016541e-23)
(2.4161673 -0.060787103 -6.2059947e-22)
(2.4347112 -0.052395826 -1.4045203e-21)
(2.452168 -0.048087288 -6.0028905e-22)
(2.4677182 -0.044924646 3.5328528e-22)
(2.4815932 -0.042000575 8.1244271e-22)
(2.4935078 -0.039050684 -3.3628951e-22)
(2.5036173 -0.036142205 -9.0404131e-23)
(2.5122943 -0.033126333 2.1288987e-22)
(2.5198649 -0.029911659 -3.7714631e-22)
(2.526522 -0.025948282 2.8901554e-22)
(2.5322678 -0.021598275 3.5626631e-22)
(2.5372303 -0.015935986 2.8692842e-23)
(2.5412902 -0.010427259 -1.9095285e-23)
(2.5449516 -0.0030744028 -2.8295861e-23)
(2.2667732 -0.15961096 3.6403639e-22)
(2.3684773 -0.11730608 -1.0871239e-21)
(2.3888187 -0.088906554 -8.0228625e-22)
(2.415583 -0.072048055 -1.9230366e-21)
(2.4318873 -0.06151151 1.7278299e-22)
(2.4481948 -0.056388099 -3.3223085e-22)
(2.463506 -0.052893865 2.641191e-23)
(2.4777579 -0.049598087 6.1938009e-22)
(2.4901754 -0.046134559 4.8675635e-22)
(2.5006968 -0.042685281 -3.6710687e-23)
(2.5096838 -0.039372776 -1.3161227e-22)
(2.5175745 -0.035946213 1.2109312e-22)
(2.5246279 -0.032242364 3.5549933e-22)
(2.530915 -0.02770743 1.0543484e-22)
(2.5363568 -0.022789519 1.4051019e-22)
(2.5410236 -0.016607313 2.3255673e-22)
(2.5448578 -0.010729507 -1.3558379e-22)
(2.54829 -0.0031228347 1.1548239e-22)
(2.2745042 -0.1894724 1.7354419e-21)
(2.3749182 -0.13659658 -1.3624259e-21)
(2.3929834 -0.10377775 1.0188159e-21)
(2.417023 -0.082285666 1.7746715e-21)
(2.4303538 -0.069663838 8.4052932e-22)
(2.4448821 -0.064065735 9.2475135e-22)
(2.4596614 -0.060692913 1.3725995e-21)
(2.4742609 -0.057356568 7.9957193e-23)
(2.4872433 -0.053489374 -8.4791562e-22)
(2.4981825 -0.049492375 5.6018741e-24)
(2.5073848 -0.045717126 -1.2617133e-21)
(2.5154216 -0.042156647 -1.18704e-21)
(2.5227102 -0.038403493 3.5703515e-22)
(2.5293706 -0.034246433 -2.920444e-22)
(2.5353394 -0.029170272 1.9905221e-22)
(2.5404749 -0.023727556 -8.1207686e-23)
(2.544815 -0.017093847 -3.2490919e-23)
(2.5483848 -0.010916889 9.0914949e-23)
(2.5515538 -0.0031399983 -3.2687364e-22)
(2.2846963 -0.2170867 0)
(2.3835625 -0.15508497 5.3475209e-22)
(2.3998394 -0.11754323 -2.6698301e-22)
(2.4203735 -0.091196728 1.966033e-21)
(2.4299756 -0.076571877 4.3511579e-22)
(2.442066 -0.070819256 -1.525537e-21)
(2.4559932 -0.068098827 -2.1177361e-22)
(2.4709579 -0.065171701 -8.4726266e-22)
(2.4846669 -0.061096822 -8.8871204e-22)
(2.4961331 -0.056510991 4.7276445e-22)
(2.5055167 -0.052174574 8.365508e-22)
(2.5135463 -0.048297663 -1.3206512e-22)
(2.5208635 -0.044615181 -2.8361591e-22)
(2.5277388 -0.040571525 -1.0844533e-21)
(2.5341089 -0.035963532 -2.6038088e-22)
(2.5397849 -0.030360245 -1.2861363e-22)
(2.5445948 -0.024429623 2.7235203e-23)
(2.5485706 -0.017408811 1.0381308e-22)
(2.5518379 -0.010998536 9.6357884e-23)
(2.5547144 -0.0031284485 2.2318164e-22)
(2.2966171 -0.24244947 0)
(2.3941702 -0.17279091 -6.3296353e-22)
(2.4086798 -0.13012384 -1.7265724e-22)
(2.4254769 -0.098449182 -8.8588223e-22)
(2.4306615 -0.081769191 5.0642873e-22)
(2.4395305 -0.076354165 1.898766e-21)
(2.4522451 -0.074936853 -1.1523958e-21)
(2.4676436 -0.072974378 -1.044739e-21)
(2.4823484 -0.068964788 -4.6569132e-22)
(2.494571 -0.063778863 4.6277478e-22)
(2.5041903 -0.058696722 6.4927665e-22)
(2.5120862 -0.054361466 1.3582505e-21)
(2.5192122 -0.050597681 2.5115421e-22)
(2.5260793 -0.046855002 -8.3288417e-22)
(2.5327139 -0.04250327 -5.4696175e-22)
(2.5388617 -0.037418805 -3.682291e-23)
(2.5442417 -0.031292899 2.9820641e-22)
(2.5486907 -0.024909066 -2.8986817e-22)
(2.55226 -0.01756342 1.1434997e-22)
(2.5551886 -0.010982454 -2.6216399e-23)
(2.5577489 -0.0030904939 4.4982916e-22)
(2.3095797 -0.26567185 1.8970498e-22)
(2.4064761 -0.1898505 5.7558478e-21)
(2.4197999 -0.14163599 -7.1903525e-22)
(2.4328243 -0.10396253 -5.7143449e-22)
(2.4323435 -0.085186663 -1.5346872e-21)
(2.4371439 -0.080281272 1.6050666e-21)
(2.4481422 -0.08095511 1.6834197e-22)
(2.4640487 -0.080729917 -4.6526786e-22)
(2.4801372 -0.077155394 -2.5522007e-22)
(2.4934876 -0.071372802 -3.8850281e-23)
(2.5035069 -0.065327726 -3.5328709e-22)
(2.5111916 -0.060266269 3.9070799e-22)
(2.5178913 -0.056302422 1.5578948e-21)
(2.5244829 -0.052781412 1.3342055e-21)
(2.5311697 -0.048954745 5.1997401e-22)
(2.5376944 -0.044228098 -4.353915e-22)
(2.5436448 -0.038623524 5.8782997e-22)
(2.5486972 -0.031976964 -6.177218e-22)
(2.5527373 -0.025175936 4.7234886e-22)
(2.5558562 -0.017567142 -1.4496646e-22)
(2.5584132 -0.010875732 -1.6365874e-22)
(2.5606385 -0.0030282332 -1.3226328e-22)
(2.3225565 -0.2869827 4.1050318e-22)
(2.4202222 -0.20642194 -4.9112179e-23)
(2.4328865 -0.1520278 -1.3824759e-21)
(2.4419076 -0.10780202 -9.5072437e-22)
(2.4348679 -0.08655547 -2.8491109e-22)
(2.4344861 -0.082567639 -2.182628e-21)
(2.4433901 -0.086055484 3.4517362e-22)
(2.459888 -0.088385528 1.0297986e-22)
(2.4778387 -0.085763842 2.0469429e-22)
(2.4928433 -0.079433916 2.471415e-22)
(2.5035635 -0.072152878 -3.5433651e-22)
(2.5110272 -0.066014486 -8.0015024e-22)
(2.517063 -0.061589946 1.2743941e-21)
(2.5230573 -0.058257341 1.4139205e-21)
(2.5295181 -0.054974708 -5.040036e-22)
(2.5362485 -0.050954916 -6.7617931e-22)
(2.5427333 -0.045751385 -1.5580013e-22)
(2.5484659 -0.039576898 8.2535787e-22)
(2.5531346 -0.03241572 -9.6782587e-22)
(2.5567094 -0.025237766 5.830275e-22)
(2.5593347 -0.017428172 -3.3628689e-22)
(2.5614915 -0.010684853 4.0121378e-24)
(2.5633684 -0.0029435718 -3.2035115e-22)
(2.3351031 -0.30649895 7.6116359e-22)
(2.434717 -0.22274201 -1.2701981e-20)
(2.4478226 -0.16142312 4.6761492e-21)
(2.4526067 -0.10979206 -3.5573195e-22)
(2.4382267 -0.085327792 1.6928306e-21)
(2.431426 -0.082940575 -4.848647e-23)
(2.4375819 -0.090054616 2.724112e-21)
(2.4547847 -0.096027644 2.0934964e-22)
(2.4752246 -0.094929915 4.4926425e-22)
(2.492572 -0.088152263 -2.3130603e-22)
(2.5044533 -0.079324682 1.3139421e-21)
(2.5117783 -0.071639775 -6.5222895e-22)
(2.5169194 -0.066388849 -1.1504283e-21)
(2.5219432 -0.063079407 -1.7283573e-21)
(2.5278177 -0.060433219 2.8086512e-22)
(2.5345069 -0.057242411 1.7311212e-22)
(2.5414229 -0.052855276 0)
(2.5478691 -0.047057379 5.6567804e-23)
(2.5533217 -0.040268876 -3.2051227e-22)
(2.5575321 -0.032608775 0)
(2.5605813 -0.025100627 -8.3491603e-22)
(2.5626734 -0.01715407 5.440304e-23)
(2.564407 -0.010415968 -4.5091491e-24)
(2.5659273 -0.002838185 -3.7540397e-22)
(2.3471604 -0.32454974 -2.6197549e-22)
(2.4491272 -0.23917511 8.2640394e-21)
(2.4647047 -0.16997166 2.3636148e-21)
(2.4649839 -0.10997928 -2.5856866e-21)
(2.4423304 -0.081752537 -1.3515462e-21)
(2.4277056 -0.08066975 3.2938425e-21)
(2.4303812 -0.092481831 -4.9433395e-22)
(2.4484297 -0.10353339 -5.8311824e-22)
(2.4720112 -0.10482811 -1.5954476e-22)
(2.4925762 -0.09777724 -5.3488583e-22)
(2.5062662 -0.087052481 -1.8020443e-23)
(2.513651 -0.077233657 2.4724342e-22)
(2.5176886 -0.070640876 6.6492163e-22)
(2.5213165 -0.067093984 -2.3413987e-21)
(2.5261581 -0.065073305 -2.4068944e-22)
(2.5324646 -0.062940733 -1.4965265e-22)
(2.5396336 -0.05958173 -9.7966724e-22)
(2.5467771 -0.054619354 -1.8425765e-21)
(2.5531197 -0.048114412 9.0304472e-22)
(2.5581965 -0.040683689 0)
(2.5618632 -0.032554168 -7.0433666e-22)
(2.5643277 -0.024770348 -7.7309092e-22)
(2.5658529 -0.016752447 1.0353679e-21)
(2.5671464 -0.010075055 3.0026996e-22)
(2.568307 -0.0027135011 4.8070179e-22)
(2.3581856 -0.34118114 2.4176811e-21)
(2.4631621 -0.25598158 -1.5590077e-21)
(2.4835372 -0.17787184 -3.6410003e-21)
(2.4789966 -0.10840085 -1.9737198e-21)
(2.4471294 -0.075528931 5.6712556e-23)
(2.4234477 -0.076013935 1.3461933e-21)
(2.4215844 -0.094051704 -1.4749179e-21)
(2.4405657 -0.11105443 1.0738395e-21)
(2.4679601 -0.11561051 5.4034753e-23)
(2.4927405 -0.10857943 1.4484037e-21)
(2.509085 -0.095607603 -4.5109026e-22)
(2.5168745 -0.082935604 1.599617e-21)
(2.5196355 -0.074324765 -1.5348758e-21)
(2.5213931 -0.070139893 -8.4026621e-22)
(2.5246611 -0.068672139 -1.8114607e-21)
(2.5301409 -0.0677606 -8.7588866e-22)
(2.5372919 -0.065781103 -1.2698469e-21)
(2.5450498 -0.061929493 3.5579802e-22)
(2.5523619 -0.056183663 -1.3933651e-21)
(2.5584805 -0.048881447 6.1086456e-22)
(2.5630636 -0.040803797 6.8062133e-22)
(2.566098 -0.032250602 1.2531943e-21)
(2.5679239 -0.024253717 9.6326144e-22)
(2.5688562 -0.016231535 -3.0236938e-23)
(2.5696997 -0.0096679025 4.5950725e-24)
(2.5705016 -0.0025707791 2.7245309e-22)
(2.3681839 -0.35640963 -3.9407515e-22)
(2.4768995 -0.27330944 -2.6561846e-20)
(2.5039787 -0.1854284 -3.1845369e-22)
(2.49456 -0.10504899 7.7321869e-21)
(2.4525932 -0.06665926 -4.1705438e-21)
(2.4184001 -0.06874641 -7.0513179e-21)
(2.4108989 -0.093916791 -4.4910498e-22)
(2.430751 -0.11856359 7.0998449e-22)
(2.4627765 -0.12749664 -1.5075467e-22)
(2.4929251 -0.1208773 9.0190892e-22)
(2.5129896 -0.1053034 -1.2547375e-21)
(2.5216959 -0.088941685 0)
(2.5230642 -0.077449671 -1.3787582e-23)
(2.5224301 -0.07207003 1.7600943e-21)
(2.5234838 -0.070981411 2.6904673e-21)
(2.5275788 -0.071436261 2.0871799e-21)
(2.5343387 -0.071157266 2.1825884e-21)
(2.542548 -0.068857964 -1.0510588e-21)
(2.5508561 -0.064177851 -1.8590579e-21)
(2.5581913 -0.05746911 1.7774339e-21)
(2.5639257 -0.049315048 -1.2962658e-21)
(2.5678866 -0.040613782 -1.3900531e-21)
(2.5702046 -0.031699452 9.6104198e-22)
(2.5713473 -0.023559395 -2.1274731e-23)
(2.5716697 -0.015600531 -4.1920954e-22)
(2.5720601 -0.0092000922 -6.5319825e-22)
(2.5725081 -0.0024114101 -1.8931209e-22)
(2.376608 -0.37062959 -1.2647746e-21)
(2.4904056 -0.29103487 -2.7600912e-20)
(2.5245829 -0.19262674 5.5054181e-21)
(2.5112713 -0.099981536 2.4009915e-21)
(2.4586292 -0.055128132 3.8506798e-21)
(2.4123891 -0.058664252 6.6532822e-21)
(2.3980338 -0.092134569 -7.0295078e-21)
(2.4185821 -0.12605781 1.9353402e-21)
(2.4561163 -0.14060112 4.0835984e-22)
(2.492955 -0.13496315 -8.4947845e-22)
(2.5180394 -0.11649914 2.2980076e-22)
(2.5283776 -0.095485167 7.9465884e-22)
(2.5283095 -0.080058544 -1.5634096e-21)
(2.5247229 -0.072750366 -1.504899e-21)
(2.5228185 -0.071751205 1.9326102e-21)
(2.5248483 -0.073665118 1.5442012e-22)
(2.5307293 -0.075432207 -5.3901213e-22)
(2.5391365 -0.0751262 8.3519706e-22)
(2.5484062 -0.072003497 1.2080015e-21)
(2.5570954 -0.066193339 -1.6833987e-21)
(2.5642432 -0.05839274 -3.8475793e-22)
(2.5694115 -0.049375935 1.9954083e-21)
(2.5726232 -0.040103658 -2.3714685e-21)
(2.5741512 -0.030906215 -1.5720949e-21)
(2.5745774 -0.022698433 0)
(2.574283 -0.014869719 0)
(2.5742238 -0.0086772388 -1.2547571e-24)
(2.5743249 -0.0022373519 -9.9025572e-24)
(2.3830699 -0.38379968 -1.7672512e-21)
(2.5018474 -0.30841915 -4.0522965e-22)
(2.5408781 -0.19954483 1.5196882e-20)
(2.5272619 -0.0930273 -1.9249618e-20)
(2.4645504 -0.040926983 -9.0534525e-21)
(2.4051881 -0.045725115 1.6709404e-21)
(2.3827276 -0.088507129 4.7279924e-22)
(2.4037852 -0.13354167 1.9560307e-21)
(2.4476872 -0.15512509 -1.8247226e-21)
(2.4926473 -0.15115529 -7.1591614e-21)
(2.5242774 -0.12957589 -6.7964593e-21)
(2.5371936 -0.10284701 4.4577987e-22)
(2.535735 -0.082213533 -1.9190334e-21)
(2.5285989 -0.072051634 -8.390988e-22)
(2.5228849 -0.070729671 -3.7253547e-21)
(2.5220433 -0.074136152 -2.8965111e-21)
(2.5264366 -0.078286353 3.9908236e-22)
(2.5346862 -0.080472415 5.9384182e-21)
(2.5448109 -0.079419982 2.9746593e-22)
(2.5549535 -0.075009169 -5.8099383e-22)
(2.5637543 -0.067835831 -1.0452281e-21)
(2.5704651 -0.058878366 -1.9029618e-21)
(2.5748814 -0.049034335 9.7181679e-22)
(2.577228 -0.03927116 1.7251062e-21)
(2.5779076 -0.029881237 -1.4932017e-21)
(2.5775974 -0.021684364 -1.1888171e-21)
(2.5766889 -0.014050385 -2.3258196e-23)
(2.5761899 -0.0081055414 2.2026096e-22)
(2.5759525 -0.0020514117 7.4188711e-23)
(2.3876009 -0.39601868 -8.7248416e-21)
(2.5104198 -0.32552565 1.1696661e-19)
(2.552171 -0.20534316 -4.9419817e-20)
(2.5400581 -0.084304947 -1.0825683e-20)
(2.4674353 -0.023873994 3.9989916e-21)
(2.3958368 -0.029705439 -5.2700505e-21)
(2.364692 -0.0830332 9.3129185e-21)
(2.3861093 -0.14104682 -3.4874837e-21)
(2.4372271 -0.17120375 2.4609278e-21)
(2.4918024 -0.16974697 6.2342101e-21)
(2.5317332 -0.14493622 1.0737447e-20)
(2.5484161 -0.1113368 -7.4586548e-22)
(2.5457281 -0.084010884 7.4460552e-21)
(2.5344109 -0.069853682 -2.5044365e-21)
(2.5239275 -0.067654705 2.2328441e-21)
(2.5192752 -0.072527048 1.6314534e-21)
(2.5214483 -0.079390209 7.0184184e-21)
(2.5290775 -0.084592586 2.767702e-21)
(2.5398679 -0.086204812 -1.1680587e-21)
(2.5515128 -0.083729084 -5.1052982e-22)
(2.5621924 -0.077655194 2.1575418e-22)
(2.5707712 -0.068975159 5.5729472e-22)
(2.5767819 -0.058865002 1.0580926e-21)
(2.5802715 -0.04827356 -2.1770667e-21)
(2.5816562 -0.038122809 1.8099725e-21)
(2.5814472 -0.028639723 3.356747e-21)
(2.5803939 -0.020532946 4.0325821e-22)
(2.5788839 -0.013154591 2.0294664e-22)
(2.5779597 -0.0074923026 1.9157716e-22)
(2.5773952 -0.0018572885 -1.8908978e-22)
(2.3905381 -0.40785116 -1.9233328e-21)
(2.5149445 -0.34106327 2.4773038e-20)
(2.5601869 -0.21072872 -2.1892222e-20)
(2.5482276 -0.072623132 2.5389619e-20)
(2.4615289 -0.0036519399 1.6578532e-20)
(2.3804858 -0.010829587 2.9962393e-22)
(2.3432878 -0.075437783 -3.5463487e-21)
(2.3652985 -0.1485804 -1.1819489e-21)
(2.4244948 -0.18897478 9.4930401e-22)
(2.4902117 -0.19098966 1.0173219e-20)
(2.5403934 -0.162976 3.0223824e-20)
(2.5623188 -0.12129362 -8.5775156e-22)
(2.5586843 -0.085542392 4.7228216e-21)
(2.5425267 -0.066048976 -2.4418363e-21)
(2.5262019 -0.062268074 6.1204501e-22)
(2.5166679 -0.068510916 3.6967836e-21)
(2.5157641 -0.078403326 2.284098e-21)
(2.5222009 -0.087173527 -2.93044e-21)
(2.5333786 -0.092094251 2.8423108e-21)
(2.5465139 -0.092186696 1.6303469e-22)
(2.5592703 -0.087726111 -1.4889267e-21)
(2.5700521 -0.079735575 1.7062717e-21)
(2.5780473 -0.069503997 4.9907331e-22)
(2.5831043 -0.058312394 0)
(2.5855157 -0.047091615 -1.8294544e-21)
(2.5858659 -0.036673834 1.5787128e-21)
(2.5847475 -0.027201154 8.5696796e-22)
(2.5829576 -0.019261649 5.044975e-22)
(2.5808677 -0.012194824 -6.7574428e-23)
(2.579537 -0.0068463736 5.6742426e-23)
(2.578661 -0.0016594267 -3.6489561e-22)
(2.3923365 -0.41898133 9.4123148e-21)
(2.5152035 -0.35854386 -1.3115307e-19)
(2.5645974 -0.21416822 7.7983093e-20)
(2.552405 -0.059764977 1.9590555e-20)
(2.4476811 0.020418165 -1.9300594e-20)
(2.3534111 0.01110291 -3.7722543e-21)
(2.3161934 -0.066457548 -1.0055225e-20)
(2.3411739 -0.1561314 -1.9770871e-22)
(2.4092915 -0.20846528 2.8150043e-21)
(2.4876412 -0.21511066 7.0331801e-21)
(2.5502109 -0.18407002 -2.6470933e-20)
(2.5791455 -0.13306684 -9.0819104e-21)
(2.5750117 -0.086931285 -6.1583689e-21)
(2.5533166 -0.060500449 -2.5887403e-21)
(2.5299619 -0.054314785 0)
(2.514344 -0.061760172 0)
(2.5093892 -0.074989656 -3.3468292e-21)
(2.5139575 -0.087894945 -4.7211023e-21)
(2.5251518 -0.096816217 1.2821437e-21)
(2.5396962 -0.10017608 -2.7827022e-22)
(2.55469 -0.097949149 -1.6715751e-21)
(2.5680047 -0.091102128 5.6507488e-23)
(2.5784049 -0.081077103 4.074687e-22)
(2.5854595 -0.069346238 -8.7037915e-24)
(2.5893369 -0.057203508 0)
(2.590551 -0.045501002 2.2585184e-21)
(2.5898209 -0.03494715 -3.5909299e-22)
(2.5877912 -0.025588316 -4.7936815e-21)
(2.5852833 -0.017889024 -2.6228561e-22)
(2.5826426 -0.011183612 -1.5387112e-22)
(2.580927 -0.0061784599 8.761069e-23)
(2.5797522 -0.0014619567 1.054495e-21)
(2.3921353 -0.42989731 -2.5351475e-21)
(2.5120994 -0.37799414 -2.1480123e-20)
(2.565743 -0.21943769 -8.7302197e-20)
(2.5548964 -0.043475242 -1.5697323e-20)
(2.4310037 0.047222281 -1.1537808e-21)
(2.3175026 0.034733689 -6.2449646e-22)
(2.280005 -0.055804764 6.1170853e-21)
(2.3133264 -0.16410117 -1.9768725e-21)
(2.3917254 -0.22978976 1.144003e-21)
(2.4839635 -0.2422013 -1.645675e-21)
(2.5611019 -0.20855925 -2.2649941e-20)
(2.5991229 -0.14702361 1.9561077e-21)
(2.5950793 -0.088278069 -4.8430467e-21)
(2.5671464 -0.053123305 8.8168584e-22)
(2.5354508 -0.04350696 -5.4132295e-21)
(2.5124134 -0.051961636 -3.3654783e-21)
(2.502326 -0.068820877 7.4314126e-22)
(2.5042567 -0.086446145 -8.0931737e-22)
(2.5150091 -0.10009273 -3.0399332e-21)
(2.5308052 -0.10748275 4.9930244e-21)
(2.5481483 -0.10818772 2.728114e-21)
(2.5643118 -0.10304773 -2.8745893e-21)
(2.5775531 -0.093593639 2.2183012e-21)
(2.587084 -0.081551678 -5.9344616e-21)
(2.5928729 -0.068460827 1.3363649e-22)
(2.5953864 -0.055544274 7.4796031e-23)
(2.5953206 -0.043527097 1.6108324e-21)
(2.5934914 -0.032971748 -1.4418296e-21)
(2.5905666 -0.023826162 8.4581936e-22)
(2.5873695 -0.016434065 2.8703192e-22)
(2.5842129 -0.01013321 -8.8125782e-24)
(2.5821359 -0.0054997448 1.4091375e-22)
(2.5806724 -0.0012667346 1.548181e-21)
(2.3894331 -0.44024768 -1.1710372e-21)
(2.5060741 -0.39634451 4.7251098e-20)
(2.5639957 -0.22543902 -2.8570728e-20)
(2.5471084 -0.027474842 2.0310839e-20)
(2.4128277 0.077192819 -6.7488595e-20)
(2.2799315 0.061236987 -2.5831489e-21)
(2.2359037 -0.047094465 -7.7147042e-23)
(2.2809592 -0.17281051 -8.8354696e-22)
(2.3722131 -0.25308194 -2.8352783e-21)
(2.4793386 -0.27255276 -1.2819263e-20)
(2.5730779 -0.23677214 7.6290671e-21)
(2.6225173 -0.16353815 4.9687555e-20)
(2.6192917 -0.089703395 -3.6675601e-22)
(2.5843213 -0.04375061 8.9366454e-21)
(2.5428805 -0.029640628 -3.3279493e-21)
(2.5109623 -0.038786188 1.0652846e-21)
(2.4945656 -0.059600845 -6.014544e-22)
(2.4930153 -0.082535255 0)
(2.5027881 -0.10165586 0)
(2.5196008 -0.11388413 2.477764e-22)
(2.5393454 -0.11829591 -6.1116614e-21)
(2.5586477 -0.1155116 -2.3775694e-21)
(2.5751757 -0.10709919 1.444751e-21)
(2.5876942 -0.095000036 2.1159224e-21)
(2.5959023 -0.081082096 1.1101195e-22)
(2.6001524 -0.066841556 -3.5241954e-21)
(2.6011667 -0.053361179 -4.1295195e-22)
(2.5997767 -0.041205618 -9.2200421e-22)
(2.5968552 -0.030780831 4.9826251e-22)
(2.5930671 -0.021940688 2.7188693e-21)
(2.589218 -0.014915579 3.926526e-22)
(2.585584 -0.0090552773 7.913554e-24)
(2.5831705 -0.0048186936 9.3470545e-22)
(2.5814515 -0.0010740199 -1.1152255e-21)
(2.3838288 -0.45006946 -1.2979143e-20)
(2.4979803 -0.41418879 1.167248e-20)
(2.5587804 -0.22947514 7.7029137e-20)
(2.5307208 -0.010315888 -3.8335197e-22)
(2.3860361 0.10937402 -4.7753835e-21)
(2.2429954 0.087832815 -9.9162387e-21)
(2.1894132 -0.036166362 1.6803975e-21)
(2.2439371 -0.18411898 -3.5427881e-21)
(2.351063 -0.27822676 2.5760565e-21)
(2.4736943 -0.30573099 1.1721284e-20)
(2.5855829 -0.26892244 -1.7614924e-20)
(2.6493144 -0.18307103 -5.8044071e-21)
(2.6481597 -0.091322148 8.8886044e-21)
(2.6052363 -0.032279586 6.2483375e-21)
(2.5524108 -0.012353693 -1.8395463e-21)
(2.5100317 -0.021997366 1.210728e-21)
(2.4860786 -0.047046347 -1.9283593e-21)
(2.4801527 -0.075914147 4.3074739e-21)
(2.488348 -0.10125825 8.557908e-21)
(2.5058657 -0.11916229 -1.3274325e-20)
(2.5279956 -0.12811537 -3.4523674e-21)
(2.5506859 -0.12842342 -9.7596045e-22)
(2.5709443 -0.12161064 -3.7614642e-22)
(2.5869934 -0.10980521 5.1458513e-21)
(2.5981734 -0.095192116 -5.9140477e-22)
(2.6046683 -0.079642173 3.7392739e-21)
(2.6071714 -0.064513743 2.8538915e-22)
(2.6066038 -0.050697495 0)
(2.603882 -0.038579699 -1.4116309e-21)
(2.5998981 -0.028409965 7.4804125e-22)
(2.595291 -0.019957944 4.0722821e-23)
(2.590834 -0.013351579 1.9413968e-22)
(2.5867635 -0.0079604394 2.1888597e-22)
(2.5840395 -0.0041415984 -2.3589762e-22)
(2.582113 -0.00088687412 -1.8521322e-21)
(2.3744675 -0.45946386 -5.6725098e-21)
(2.4872961 -0.43110241 -9.6667852e-21)
(2.5487721 -0.2316188 1.6410089e-21)
(2.5092335 0.010961073 -2.3576496e-20)
(2.3571117 0.14436738 9.383876e-20)
(2.2035216 0.11924037 -3.0301945e-21)
(2.1458574 -0.03011493 2.494719e-22)
(2.2040206 -0.19585182 -3.2923421e-20)
(2.32791 -0.30586928 2.2748412e-20)
(2.4669047 -0.34116802 5.9391332e-21)
(2.5959796 -0.30353903 1.6214648e-21)
(2.6764914 -0.20519331 -5.4777163e-20)
(2.6807579 -0.09320714 3.7506117e-20)
(2.6303292 -0.018562028 -1.1815435e-20)
(2.5642868 0.0085057094 -5.714187e-21)
(2.5096264 -0.0012068255 4.354817e-21)
(2.4767986 -0.030977224 9.9069797e-22)
(2.4655915 -0.066370308 5.1275764e-21)
(2.4715714 -0.098694978 -4.810994e-21)
(2.4894166 -0.12311264 1.0994266e-21)
(2.5138389 -0.1374834 7.6132153e-21)
(2.5401109 -0.14169614 -6.4163054e-22)
(2.5645254 -0.13713666 -1.3502631e-21)
(2.5846703 -0.12605893 2.2564472e-22)
(2.5994256 -0.11096439 1.1053096e-21)
(2.6087257 -0.094112911 2.8489366e-21)
(2.6132002 -0.077252402 -2.4570145e-21)
(2.6138188 -0.06152882 2.3261814e-22)
(2.6116381 -0.047608851 1.1853791e-21)
(2.60761 -0.035696985 -8.1422514e-22)
(2.6026126 -0.025895434 1.4860518e-21)
(2.5972413 -0.017903206 -1.3012485e-22)
(2.5922248 -0.011758872 -4.2108509e-22)
(2.58776 -0.006858156 -6.3575376e-23)
(2.5847542 -0.0034781407 -8.0661835e-22)
(2.582602 -0.00070969079 1.1069394e-21)
(2.3596297 -0.46847375 -1.7221711e-21)
(2.4733433 -0.44667199 2.1700428e-20)
(2.5329421 -0.23173107 1.5739964e-21)
(2.4825813 0.034567389 2.2815314e-20)
(2.3286807 0.1820042 8.2947899e-22)
(2.1679955 0.15563371 -1.2009041e-20)
(2.099078 -0.016872733 1.9831124e-20)
(2.1665004 -0.21312228 2.7082233e-20)
(2.3022131 -0.33417612 -3.3937898e-21)
(2.4573872 -0.37823788 -5.2680895e-20)
(2.6039999 -0.3399796 4.796489e-20)
(2.697136 -0.22823649 -6.8555913e-20)
(2.710312 -0.094314756 2.0459987e-20)
(2.6569613 -0.0023344373 -1.8202339e-20)
(2.5787192 0.033177947 -6.5328993e-21)
(2.5097633 0.023664358 -3.5137621e-21)
(2.4666386 -0.011131557 -1.6619636e-21)
(2.4492453 -0.053796427 -6.119089e-21)
(2.4523731 -0.093801336 4.4856607e-22)
(2.4701111 -0.12555994 1.4297399e-20)
(2.4966549 -0.14623773 -3.442888e-22)
(2.5266301 -0.15522861 2.6884013e-21)
(2.5555903 -0.15366704 3.1988838e-21)
(2.5804043 -0.14384838 7.4319046e-24)
(2.5993832 -0.1285581 3.8074874e-21)
(2.6121131 -0.11047447 -1.6385175e-21)
(2.6190949 -0.09177246 9.1680842e-21)
(2.6213355 -0.073972611 5.1453788e-21)
(2.6200034 -0.057957922 -2.760478e-21)
(2.6162256 -0.044158805 -3.9836282e-22)
(2.6109451 -0.032607018 9.7085345e-22)
(2.6049984 -0.023272874 -6.4021669e-23)
(2.5989246 -0.015800332 9.0876111e-22)
(2.5934002 -0.010152853 4.0227607e-22)
(2.5885818 -0.0057570231 -8.8637434e-22)
(2.5853246 -0.0028376538 -1.1450873e-21)
(2.5829904 -0.00054044885 -8.1087609e-22)
(2.3370857 -0.47734228 4.3841833e-21)
(2.4554803 -0.46076826 1.3837805e-21)
(2.5115447 -0.2297865 4.1221047e-20)
(2.4535203 0.060003952 -2.2612993e-20)
(2.3016946 0.22074708 7.7647768e-20)
(2.1367419 0.19325273 -6.1532424e-22)
(2.0547318 0.0034053502 -2.3186403e-20)
(2.1212788 -0.22400688 3.8634037e-20)
(2.2775215 -0.36643522 -1.2563219e-20)
(2.4438214 -0.41561305 -8.5552172e-21)
(2.6063641 -0.37559766 5.5470483e-20)
(2.7130298 -0.25183746 5.9487045e-20)
(2.7299118 -0.093510402 1.5906802e-20)
(2.676583 0.017437523 -1.8801384e-20)
(2.5918268 0.06198963 -2.3858741e-20)
(2.5104331 0.052909512 1.3812039e-21)
(2.4554629 0.012450008 -3.3014162e-21)
(2.4310426 -0.038062163 -1.8624411e-20)
(2.4306941 -0.086501088 8.4253252e-23)
(2.4478605 -0.12635851 2.4860319e-22)
(2.4762735 -0.15422652 3.5796361e-21)
(2.5099895 -0.168906 1.1102016e-21)
(2.5438263 -0.17116956 -2.3950453e-21)
(2.5738728 -0.16324303 5.10018e-21)
(2.5977588 -0.14813376 -4.8979364e-22)
(2.6146067 -0.12894154 7.7731211e-21)
(2.6247034 -0.10832648 -5.7272387e-21)
(2.6290497 -0.088238288 -7.3460441e-21)
(2.628939 -0.069892978 2.5539467e-21)
(2.6256561 -0.05388531 6.9047895e-22)
(2.6203381 -0.040414779 -2.0561244e-21)
(2.6138814 -0.029359039 -5.181632e-22)
(2.6070608 -0.020576183 -1.8014197e-21)
(2.6003508 -0.013671323 3.8700098e-23)
(2.5943716 -0.0085472549 -1.3809078e-22)
(2.5892378 -0.0046647995 -4.4559935e-22)
(2.5857591 -0.002216511 -2.1354429e-21)
(2.5832793 -0.00037369997 8.1991074e-23)
(2.3064916 -0.48649092 1.6092998e-21)
(2.4328187 -0.47360778 -1.1722736e-20)
(2.4851971 -0.22593253 -2.6263663e-22)
(2.4231159 0.086395093 -2.1545162e-20)
(2.2768743 0.25957776 -2.2050712e-20)
(2.110564 0.23267847 4.2382905e-20)
(2.0169529 0.023584557 3.7583937e-22)
(2.0720742 -0.23078962 -5.2851369e-20)
(2.241614 -0.39413562 -3.2902167e-21)
(2.4290859 -0.45336205 2.7117566e-20)
(2.601351 -0.41284148 -4.5558468e-20)
(2.7217659 -0.2727312 2.2216865e-20)