/*--------------------------------*- C++ -*----------------------------------*\
| =========                 |                                                 |
| \\      /  F ield         | OpenFOAM: The Open Source CFD Toolbox           |
|  \\    /   O peration     | Version:  v2012                                 |
|   \\  /    A nd           | Website:  www.openfoam.com                      |
|    \\/     M anipulation  |                                                 |
\*---------------------------------------------------------------------------*/
FoamFile
{
    version     2.0;
    format      ascii;
    class       surfaceVectorField;
    location    "33.235017676257776";
    object      Uf;
}
// * * * * * * * * * * * * * * * * * * * * * * * * * * * * * * * * * * * * * //

dimensions      [0 1 -1 0 0 0 0];


internalField   nonuniform List<vector> 
18180
(
(2.5569992 0.019873125 1.2174875e-21)
(2.5457681 0.0073129471 4.8159167e-22)
(2.5490653 0.038684389 8.1944758e-22)
(2.5395805 0.024338164 1.0512365e-21)
(2.5342535 0.012539875 4.1400614e-22)
(2.5357544 0.0050619208 -2.2465276e-22)
(2.5368316 0.05532793 -2.1844122e-22)
(2.530657 0.03731265 1.4338271e-23)
(2.5268913 0.023532805 2.8030759e-22)
(2.5301986 0.016465987 -4.0747755e-22)
(2.5294353 0.009578746 -1.0275422e-21)
(2.5283636 0.0036268121 -3.1994542e-22)
(2.5202418 0.069826715 -2.0787938e-21)
(2.5172513 0.049554823 -6.6412236e-22)
(2.5165084 0.032466201 -4.5014868e-22)
(2.5225133 0.02447592 5.2151164e-23)
(2.5233671 0.017600043 -6.5799926e-22)
(2.5235852 0.011687544 -1.4872513e-21)
(2.5229872 0.0062474849 -8.1099432e-22)
(2.5237059 0.0023133442 -3.4507146e-22)
(2.4996763 0.081347479 -6.1966125e-22)
(2.5008435 0.058468987 -1.4770968e-21)
(2.5028685 0.038958454 -1.2359811e-22)
(2.5109345 0.03144594 -8.2110252e-22)
(2.5143733 0.023926177 -3.9943512e-22)
(2.5169439 0.017008444 -4.1458658e-22)
(2.5176597 0.011221828 -1.1859717e-21)
(2.5196244 0.0073361807 -2.411775e-22)
(2.5200786 0.0037436944 2.1073566e-22)
(2.521009 0.0012522414 -1.4602508e-23)
(2.4754159 0.089100087 1.0474936e-21)
(2.4816073 0.06452953 1.5080129e-21)
(2.4869056 0.042560194 7.8664445e-22)
(2.4971122 0.035353095 1.4279379e-21)
(2.5026482 0.028050977 7.9047848e-22)
(2.5070627 0.021213704 -6.3736918e-22)
(2.5100215 0.014680093 -6.5562405e-22)
(2.5140077 0.010270283 3.5455953e-22)
(2.5156226 0.0064480495 1.2678522e-21)
(2.5175456 0.003912296 1.4533368e-21)
(2.5184424 0.0016475786 1.259743e-21)
(2.5198624 0.00036438317 2.1357717e-22)
(2.448031 0.092199121 -6.7080264e-23)
(2.4603575 0.066696617 -2.2871889e-22)
(2.4692264 0.04301732 2.4320097e-22)
(2.4811288 0.036581501 5.1706114e-23)
(2.4890376 0.029653406 6.0602317e-22)
(2.4955211 0.022829672 1.344702e-21)
(2.5002412 0.016184359 -2.9255867e-24)
(2.5057112 0.01204017 3.2990824e-22)
(2.5092346 0.0078694534 1.2969649e-21)
(2.5128477 0.0050172115 1.0880217e-21)
(2.5146939 0.0025013313 1.2613429e-21)
(2.5169144 0.0010941575 3.2559245e-22)
(2.5182223 -8.5145187e-05 -6.8491347e-22)
(2.51992 -0.00033387924 -3.0691036e-22)
(2.418379 0.089884005 -2.6322592e-22)
(2.4378385 0.06465416 -6.6721151e-22)
(2.4507868 0.040046561 -8.3700468e-22)
(2.4639314 0.034658945 -5.6394899e-22)
(2.4740754 0.028413719 -8.2159838e-22)
(2.4824933 0.022112565 -1.2053132e-21)
(2.4891529 0.015532199 -5.6668508e-22)
(2.4961827 0.011706746 -3.1591139e-23)
(2.5011268 0.0076524809 2.841711e-22)
(2.50592 0.0050006056 4.8041017e-22)
(2.5093685 0.0022898784 2.6863849e-22)
(2.5130259 0.00073127758 -1.5244759e-22)
(2.5150875 -0.0006874651 -1.065724e-21)
(2.5173517 -0.0012248671 -4.5273334e-22)
(2.5189566 -0.0014444042 -8.9820853e-23)
(2.5208594 -0.00086155806 5.9813715e-22)
(2.3877223 0.081559681 -9.7254963e-22)
(2.4151562 0.057806806 -1.4354769e-21)
(2.4326056 0.033412547 -1.8443956e-21)
(2.4463204 0.029405916 -8.6551473e-22)
(2.4585444 0.024157099 -6.3721906e-22)
(2.4688641 0.01872826 -6.2121309e-22)
(2.4772778 0.012590741 -1.0409445e-21)
(2.4855877 0.009382662 -2.9470007e-22)
(2.4920417 0.0056630279 2.1814536e-22)
(2.4980792 0.0033436095 -8.0510151e-22)
(2.5026616 0.00072996092 -6.3634142e-22)
(2.5072637 -0.00069316562 -1.1349314e-21)
(2.5106908 -0.0021916347 -1.5569859e-21)
(2.5141918 -0.0027568703 -4.2288844e-22)
(2.5163369 -0.0033388089 1.6993724e-22)
(2.5186722 -0.0031646352 5.31993e-22)
(2.5204736 -0.0025838036 1.1956507e-21)
(2.5224828 -0.0013123333 2.9359948e-22)
(2.3578213 0.067159663 -1.3108592e-21)
(2.3933152 0.046139971 -2.638016e-21)
(2.4157724 0.023046606 -3.0086145e-21)
(2.4292938 0.020862437 -1.9499692e-21)
(2.4431788 0.016940073 -1.0307413e-21)
(2.455233 0.012716311 -1.1105129e-21)
(2.4652976 0.0073949691 -1.1281827e-21)
(2.474681 0.0050152465 -1.4026803e-22)
(2.4824094 0.0018497324 5.8957674e-22)
(2.4894531 1.7266241e-05 1.0879096e-21)
(2.4952296 -0.0022671566 1.2983697e-22)
(2.5008273 -0.003347589 -5.2559084e-22)
(2.5051564 -0.0047769805 -9.9677079e-22)
(2.5094044 -0.0053090699 -1.280449e-22)
(2.5127177 -0.0058778923 9.7264183e-22)
(2.5160871 -0.0056451159 6.2025737e-22)
(2.5183012 -0.0055496238 9.7129741e-22)
(2.5206677 -0.0047953239 4.2944959e-22)
(2.5225794 -0.0035762093 -4.3997394e-22)
(2.5246538 -0.0017315858 -6.851006e-22)
(2.3302051 0.046589213 -1.5890759e-21)
(2.3741408 0.029595357 -5.7503167e-22)
(2.4010202 0.0088919588 -1.9191901e-21)
(2.4139245 0.0094844399 -1.3490515e-21)
(2.4287505 0.0070716561 -4.1153322e-22)
(2.4423008 0.0043187619 -2.9143044e-22)
(2.4537937 0.0001108508 -3.5826294e-22)
(2.4639318 -0.001308419 -5.8596668e-22)
(2.4727722 -0.0036997393 3.6729012e-22)
(2.4806802 -0.0048628995 -4.5904038e-22)
(2.4874247 -0.0067032284 2.2031709e-24)
(2.4937926 -0.007401403 7.4795173e-23)
(2.4990773 -0.0085061268 -5.4832653e-22)
(2.5041249 -0.0087201726 7.1700444e-22)
(2.508155 -0.0092897088 1.5701888e-21)
(2.5121289 -0.0091293359 1.4964997e-21)
(2.5153194 -0.0089538618 1.1699896e-21)
(2.5185393 -0.0080716929 2.5086854e-22)
(2.5207913 -0.0074132907 -2.7558471e-22)
(2.5231612 -0.0061696169 -5.5593959e-22)
(2.5251402 -0.0044247156 -7.90772e-22)
(2.5272491 -0.0020893571 6.4041532e-23)
(2.3058442 0.020448251 -3.5505491e-22)
(2.3576281 0.0088620058 -1.6428963e-21)
(2.3880051 -0.0079856138 -8.5344713e-22)
(2.4003883 -0.0049891341 5.8666271e-22)
(2.4158033 -0.0047800368 1.0801257e-21)
(2.4306065 -0.0060973068 1.2611597e-21)
(2.4432971 -0.0089610015 1.3997277e-21)
(2.4538653 -0.009299496 1.1536094e-21)
(2.4635511 -0.01079093 9.6192136e-22)
(2.4721139 -0.011241325 1.4715887e-22)
(2.4796864 -0.012461577 -6.3704627e-22)
(2.4866933 -0.012618309 -7.4193977e-22)
(2.4927261 -0.013365008 -6.8474801e-22)
(2.4983815 -0.013311496 -8.0632833e-22)
(2.503179 -0.013592714 3.9168924e-22)
(2.5077977 -0.013143981 -8.745326e-24)
(2.5115674 -0.013043052 -1.0434421e-22)
(2.5152808 -0.012330716 -4.4515188e-22)
(2.5183392 -0.011554131 -1.3445294e-21)
(2.5214194 -0.010126721 -6.8827688e-22)
(2.5236796 -0.0089898675 -9.6136052e-22)
(2.5260268 -0.0073261042 -4.3775242e-22)
(2.5280436 -0.0051323818 3.8008077e-22)
(2.5301577 -0.0023779526 2.726651e-22)
(2.286146 -0.01006802 1.4318476e-21)
(2.3441613 -0.014903893 -9.400464e-22)
(2.3770953 -0.026492602 -2.3982482e-21)
(2.3883752 -0.020942503 -1.3736172e-22)
(2.4048425 -0.018160386 1.2429292e-21)
(2.4205038 -0.017957199 8.0948147e-22)
(2.4341942 -0.01943193 9.7706702e-22)
(2.4448599 -0.018640348 4.8808319e-22)
(2.4551137 -0.019120924 2.2947024e-22)
(2.4641279 -0.018801235 5.9411303e-22)
(2.472323 -0.019348272 -1.8873611e-22)
(2.4797926 -0.018989155 4.2961581e-22)
(2.4864538 -0.019239282 3.4714574e-22)
(2.4926185 -0.018755031 4.8046121e-22)
(2.4980053 -0.018774649 3.8591001e-22)
(2.5031078 -0.018159777 -3.7418673e-22)
(2.5074958 -0.01781295 -7.6705438e-22)
(2.5117289 -0.016846814 -8.5620132e-22)
(2.51526 -0.016210673 -1.192167e-21)
(2.5187465 -0.015037159 -1.0308608e-21)
(2.5216778 -0.013758051 -4.0230227e-22)
(2.5246225 -0.011864417 -8.3944557e-23)
(2.526866 -0.010317952 4.2749657e-22)
(2.5291712 -0.0082915889 5.4085397e-22)
(2.5311968 -0.0057151202 4.413851e-22)
(2.5332867 -0.0026090808 6.3928181e-23)
(2.2723056 -0.043303117 8.2241419e-22)
(2.3346491 -0.04106596 4.7155909e-22)
(2.3694055 -0.046235749 -2.0082116e-21)
(2.3792063 -0.038267498 -1.7353235e-21)
(2.3963836 -0.033111249 5.9363495e-22)
(2.4123855 -0.030967695 4.3651841e-22)
(2.4267223 -0.030917519 4.5013967e-23)
(2.4372026 -0.028928033 1.0195749e-22)
(2.4477201 -0.028321415 -3.8618744e-22)
(2.4569655 -0.027273001 -1.0923664e-22)
(2.4655832 -0.027096133 2.2919648e-22)
(2.4733539 -0.026206131 9.7211125e-23)
(2.4804812 -0.025963296 6.8938638e-22)
(2.4870366 -0.02510385 5.4494071e-22)
(2.4929203 -0.024735028 6.7791962e-22)
(2.4984262 -0.023776517 9.9780163e-22)
(2.5032838 -0.023253019 2.8555847e-22)
(2.5079 -0.022211068 4.0112747e-22)
(2.5119296 -0.021375 3.3535003e-22)
(2.5158394 -0.019983164 1.0264562e-22)
(2.5191591 -0.018901071 2.7683134e-22)
(2.5224431 -0.017329582 9.6442515e-23)
(2.5252509 -0.015620292 4.0679333e-22)
(2.5280627 -0.013322359 9.7250346e-23)
(2.5302703 -0.011424202 1.9963095e-22)
(2.5325153 -0.009085282 3.0818022e-22)
(2.5345213 -0.0061880948 -5.264145e-23)
(2.5365598 -0.0027924098 9.2529892e-23)
(2.2644546 -0.077580737 6.2472146e-23)
(2.3293041 -0.068364424 -1.3341942e-22)
(2.3651961 -0.066695925 -4.8240783e-22)
(2.3734556 -0.056510447 -2.0582729e-22)
(2.3907261 -0.049076457 2.9061538e-23)
(2.4065994 -0.044845495 1.2556559e-22)
(2.4210855 -0.042947351 0)
(2.4310686 -0.039767007 4.1634286e-22)
(2.4415561 -0.037986414 4.9873403e-22)
(2.4507856 -0.036281312 6.2552211e-22)
(2.4596111 -0.035401324 9.0728383e-22)
(2.4675286 -0.034066395 4.4490218e-22)
(2.4749711 -0.033326388 3.2300543e-22)
(2.4818268 -0.032078372 -1.0757136e-23)
(2.488095 -0.031345971 -1.5825923e-22)
(2.4939181 -0.030106323 -3.3114463e-22)
(2.499171 -0.029279367 -4.2640369e-23)
(2.5040989 -0.027966822 6.5079417e-22)
(2.5085005 -0.027029791 7.6608824e-22)
(2.5127116 -0.025644992 7.9699644e-22)
(2.5164367 -0.024407594 5.8337931e-22)
(2.5200723 -0.02265228 9.9698944e-23)
(2.523204 -0.021187064 -7.4539749e-23)
(2.5263075 -0.019263177 5.598446e-23)
(2.5289932 -0.017180164 -2.4374418e-22)
(2.5316698 -0.014529141 -2.5532111e-22)
(2.5338237 -0.012329271 -1.5958702e-22)
(2.5359901 -0.0097226845 -1.9963911e-22)
(2.5379501 -0.006561596 -6.4077325e-23)
(2.5399126 -0.002932775 9.0902178e-23)
(2.2621782 -0.11155097 -1.0089604e-21)
(2.3279552 -0.095724711 -2.7680396e-22)
(2.3643657 -0.08730665 -4.684893e-22)
(2.3710789 -0.074933978 -1.932825e-22)
(2.3879729 -0.065325452 -1.2442156e-22)
(2.4032457 -0.058907739 -3.7655093e-22)
(2.4174486 -0.054993668 -3.2072905e-22)
(2.4265856 -0.050655959 -6.8571557e-22)
(2.4367266 -0.047713324 -3.094751e-22)
(2.4456714 -0.04545706 1.1547313e-22)
(2.4544622 -0.043939288 2.3452114e-22)
(2.4623858 -0.042266492 7.3374562e-22)
(2.4699945 -0.041097465 2.9158119e-22)
(2.4770813 -0.039550316 5.2280661e-22)
(2.4836464 -0.038457524 2.101774e-22)
(2.4897347 -0.03690119 -3.8430682e-22)
(2.4953035 -0.035796504 -5.5134221e-22)
(2.5004724 -0.034271248 -4.2914048e-22)
(2.5051802 -0.03310173 2.2219298e-22)
(2.5096204 -0.031517874 3.8176675e-22)
(2.5136379 -0.030249673 4.0491376e-22)
(2.5175132 -0.028579059 1.0808965e-22)
(2.5209807 -0.026999779 -3.5910603e-22)
(2.5243879 -0.024922389 -1.9984602e-23)
(2.5273514 -0.023119738 1.0489684e-22)
(2.5302896 -0.020877812 1.3598223e-22)
(2.5328507 -0.018467819 1.3109254e-22)
(2.5353854 -0.015507754 -3.9192437e-23)
(2.5374676 -0.013050388 -7.5449625e-23)
(2.5395366 -0.010217244 -1.0151271e-22)
(2.5414267 -0.0068440581 4.5119632e-23)
(2.5432908 -0.0030338179 4.1519054e-23)
(2.2646206 -0.14423548 -7.8432292e-22)
(2.330268 -0.12240041 -1.5419654e-21)
(2.3666679 -0.10760444 -8.5493173e-22)
(2.3719225 -0.093026969 -5.6609294e-22)
(2.3880948 -0.081290012 -4.4845393e-22)
(2.4023548 -0.072613719 -1.012203e-21)
(2.4158653 -0.066587967 -1.2937018e-21)
(2.4237966 -0.061156699 -2.1717148e-22)
(2.4332518 -0.05709063 -5.8936347e-22)
(2.4416255 -0.054425702 -8.5401869e-22)
(2.4501146 -0.052370099 -4.6175489e-22)
(2.4579093 -0.050531685 -2.8159441e-22)
(2.4655413 -0.04904045 1.8435451e-22)
(2.4728174 -0.047301331 4.8860609e-22)
(2.4796111 -0.045922052 7.1266613e-22)
(2.4859487 -0.044103007 6.4681193e-22)
(2.4917856 -0.042706215 8.9069614e-23)
(2.4971586 -0.040899173 -1.839321e-22)
(2.502108 -0.039513206 -6.2654746e-23)
(2.5067021 -0.037785225 -1.1149393e-22)
(2.5109452 -0.036353118 3.4846885e-23)
(2.5149821 -0.034560495 1.6620245e-22)
(2.5186812 -0.033017704 -1.1964984e-22)
(2.5222906 -0.03109705 -3.7839172e-24)
(2.5255431 -0.029215791 3.233751e-22)
(2.5287591 -0.026843002 1.9564276e-22)
(2.5315687 -0.024737488 2.2663473e-22)
(2.5343492 -0.022204171 2.4621137e-22)
(2.5367789 -0.019507406 8.6480322e-23)
(2.5391602 -0.016277452 1.323031e-22)
(2.5411524 -0.013602566 1.1095688e-22)
(2.5431045 -0.010581002 -7.8348346e-23)
(2.5449031 -0.0070433196 -8.3740419e-23)
(2.5466489 -0.0030990399 4.4840319e-23)
(2.2707685 -0.17507514 1.0727709e-21)
(2.3356065 -0.14789699 -5.1384631e-22)
(2.3718059 -0.12723782 -1.2293988e-21)
(2.3757217 -0.11043659 -1.7082897e-22)
(2.390971 -0.096559749 1.3885485e-22)
(2.4038905 -0.085538306 5.0798144e-22)
(2.4163272 -0.077325222 -1.2064804e-23)
(2.4226877 -0.070837051 -5.3882098e-22)
(2.4310948 -0.06571659 5.178751e-22)
(2.4385776 -0.062810021 5.5516642e-22)
(2.4464828 -0.060351049 3.1738188e-22)
(2.4540043 -0.05857731 5.3471803e-22)
(2.4615191 -0.05692333 7.22129e-22)
(2.4689714 -0.055163357 5.2977109e-23)
(2.4759507 -0.053605519 3.4060237e-22)
(2.4825694 -0.051577109 -1.287887e-22)
(2.4886601 -0.049928923 -2.0301414e-22)
(2.4942391 -0.047842304 2.4205518e-22)
(2.4993974 -0.046195718 -1.4843107e-23)
(2.5040956 -0.044227246 -6.5972701e-22)
(2.5084956 -0.042640133 -7.1566127e-22)
(2.512604 -0.040788627 -6.6891864e-22)
(2.5164619 -0.039155388 -5.549666e-22)
(2.5201906 -0.037195974 2.410951e-22)
(2.5236368 -0.035415139 3.5629306e-22)
(2.5270441 -0.033261643 2.7044244e-23)
(2.5301168 -0.031104356 -9.998681e-23)
(2.5331682 -0.02845146 1.5305165e-22)
(2.535831 -0.026069843 1.7076513e-22)
(2.5384528 -0.023266639 2.7474015e-23)
(2.54074 -0.020318776 7.0402593e-23)
(2.5429522 -0.016854793 9.7737694e-23)
(2.5448357 -0.013999078 -8.2306067e-23)
(2.5466512 -0.010824826 -2.025521e-23)
(2.548339 -0.0071664264 1.0278636e-22)
(2.5499491 -0.003131567 -1.0944535e-22)
(2.2797714 -0.20375547 8.3858044e-22)
(2.3433508 -0.17197642 8.9816339e-22)
(2.3793855 -0.14611836 -3.8197758e-22)
(2.3823272 -0.12691779 -8.0547801e-22)
(2.3965265 -0.11086105 3.5432198e-22)
(2.4077183 -0.097378981 1.5004294e-21)
(2.4187546 -0.086854446 1.8735663e-21)
(2.423169 -0.079381689 1.1179016e-21)
(2.4301583 -0.073215699 6.3101232e-22)
(2.4364167 -0.070250951 -3.7373818e-22)
(2.4434267 -0.067554834 -3.4155951e-22)
(2.4505181 -0.066116723 3.4817892e-22)
(2.4577657 -0.064525518 5.537911e-22)
(2.4654056 -0.062970558 2.4371091e-22)
(2.4725539 -0.061395915 -3.9923457e-22)
(2.4795372 -0.059258799 -4.1266648e-22)
(2.4859118 -0.05741638 -8.689995e-22)
(2.4917514 -0.055026167 -1.7625683e-22)
(2.4971233 -0.053109671 2.4703562e-22)
(2.5019065 -0.050856541 4.2820862e-22)
(2.5064193 -0.049044915 -1.7730844e-22)
(2.5105195 -0.047029571 -6.8717808e-22)
(2.5144524 -0.045319013 -6.4181688e-22)
(2.5181942 -0.04340704 -7.2879506e-22)
(2.5217558 -0.041615313 2.5938427e-23)
(2.5252733 -0.039506153 -3.7613414e-22)
(2.5285272 -0.037506083 -7.0157152e-22)
(2.531785 -0.035119771 -2.7593932e-22)
(2.5347035 -0.032701441 -3.8387817e-23)
(2.5376031 -0.029775528 3.2386532e-23)
(2.5401183 -0.027139186 -1.0570741e-22)
(2.5425714 -0.024084663 -2.6227827e-23)
(2.5447012 -0.020918272 -1.6243431e-24)
(2.5467251 -0.017254062 3.6790419e-23)
(2.5484808 -0.01425159 9.7580615e-23)
(2.5501404 -0.010958425 9.3516016e-23)
(2.5517006 -0.0072195463 -1.0815496e-22)
(2.5531602 -0.0031341246 -4.6950008e-23)
(2.2908569 -0.23018869 0)
(2.3530524 -0.19455369 -3.21849e-22)
(2.3890444 -0.16418293 -6.8712079e-23)
(2.3911337 -0.14240213 1.7509155e-22)
(2.404408 -0.12400479 -2.1823621e-22)
(2.413754 -0.1078329 -5.5381717e-22)
(2.4230109 -0.094908608 4.921823e-22)
(2.4251241 -0.086404447 1.1953842e-21)
(2.43033 -0.079246753 4.7197e-22)
(2.4349646 -0.076460667 1.1793935e-21)
(2.4407556 -0.073666261 2.441359e-22)
(2.447244 -0.072913133 -1.3357867e-21)
(2.4540562 -0.071638682 -6.9788733e-22)
(2.4619217 -0.070578211 -6.3536855e-22)
(2.469245 -0.069209553 -9.493189e-22)
(2.4767316 -0.067100817 -6.4977277e-22)
(2.4834687 -0.065160717 -6.7009292e-22)
(2.4896845 -0.062460958 -2.0138624e-22)
(2.4953258 -0.060257708 4.6760172e-22)
(2.5002193 -0.0576227 5.607105e-22)
(2.5048312 -0.055531735 7.3976591e-22)
(2.5088566 -0.053286829 1.1018852e-21)
(2.5127917 -0.051421258 6.3814533e-22)
(2.5164332 -0.049467431 6.284367e-23)
(2.5200101 -0.047697173 -7.2405255e-24)
(2.5235235 -0.045754339 -5.64836e-22)
(2.5268811 -0.043823444 -9.5443906e-22)
(2.5302756 -0.041554019 -8.1106792e-22)
(2.533388 -0.039336846 -4.0848957e-22)
(2.5365306 -0.036703715 -1.4666926e-22)
(2.5393078 -0.034031186 -8.1175196e-23)
(2.542054 -0.030834632 8.8491902e-23)
(2.5444123 -0.027961676 1.6727497e-22)
(2.5466787 -0.024673499 -1.3406627e-22)
(2.5486326 -0.021319185 -9.9642063e-23)
(2.5504467 -0.017487462 1.0917305e-22)
(2.552056 -0.014370205 1.0565607e-22)
(2.5535412 -0.010990359 3.4004464e-23)
(2.5549595 -0.0072080765 9.4297115e-23)
(2.5562565 -0.0031091425 3.3835491e-22)
(2.303316 -0.25443537 9.8036989e-23)
(2.3642693 -0.21569575 3.0408729e-21)
(2.4005297 -0.1815439 2.6686973e-21)
(2.4021429 -0.15695852 -5.8514506e-22)
(2.4144266 -0.13603423 -4.550196e-22)
(2.4218725 -0.11682028 -3.7541304e-22)
(2.4292739 -0.10127701 -7.2337854e-22)
(2.4284512 -0.091706936 -1.2157885e-21)
(2.4315307 -0.083545023 -5.4840534e-22)
(2.4341014 -0.081012041 1.0650944e-21)
(2.4382971 -0.078403943 1.7469835e-21)
(2.4439377 -0.078693711 1.0157108e-21)
(2.4501247 -0.078061807 -4.6984179e-22)
(2.4582548 -0.077882803 -8.0222798e-22)
(2.4657858 -0.076988653 -7.4526849e-22)
(2.4739756 -0.075100791 -6.4322396e-22)
(2.4812056 -0.073198309 -3.5691931e-22)
(2.487986 -0.070189616 -2.5359312e-22)
(2.4940111 -0.067694418 2.0353255e-22)
(2.499096 -0.064566732 4.7740303e-23)
(2.5038371 -0.062108685 1.3114483e-22)
(2.5077457 -0.059495029 5.1862358e-22)
(2.5116238 -0.057397418 8.5821634e-22)
(2.5150434 -0.055348615 1.4597914e-21)
(2.5185295 -0.053536904 9.2649138e-22)
(2.5219019 -0.051708297 8.0201726e-22)
(2.5252542 -0.049911075 2.8709369e-22)
(2.5286772 -0.047922922 -1.4477642e-22)
(2.5319158 -0.045845767 4.4448441e-24)
(2.5352537 -0.043380538 -4.9021212e-22)
(2.5382584 -0.040934459 -2.4280828e-22)
(2.5412984 -0.038031563 2.8176542e-22)
(2.5439332 -0.035106734 4.4788694e-22)
(2.5465096 -0.031640851 -1.6769966e-22)
(2.5486941 -0.028548097 -4.593051e-22)
(2.550749 -0.025044819 9.790247e-23)
(2.5525067 -0.021532139 2.9936431e-22)
(2.5540884 -0.017565319 -1.7563855e-23)
(2.5555337 -0.014363623 -8.7585575e-23)
(2.5568276 -0.010928169 -9.6134967e-23)
(2.5580922 -0.0071368023 1.3278945e-22)
(2.5592172 -0.0030588226 1.5370446e-22)
(2.3162859 -0.27665809 3.0381005e-22)
(2.3765755 -0.2355376 1.7943701e-22)
(2.4135798 -0.19834358 2.7559272e-21)
(2.4150537 -0.17062753 2.0327194e-21)
(2.4265629 -0.14696318 -1.0618928e-21)
(2.431989 -0.12443145 -8.3683544e-22)
(2.4375184 -0.10592991 -7.6744709e-22)
(2.4333323 -0.095112843 -4.0775611e-22)
(2.4336481 -0.085855818 -8.8881487e-22)
(2.4335971 -0.083854287 -1.86417e-21)
(2.4357704 -0.081515511 -3.5238697e-22)
(2.4404047 -0.083217202 9.6438737e-22)
(2.4456864 -0.08361629 2.5972769e-22)
(2.4541231 -0.084733703 1.35103e-22)
(2.4618985 -0.084704304 -1.715991e-22)
(2.4710381 -0.083290091 -1.2700093e-22)
(2.4789493 -0.081607924 -1.7536442e-23)
(2.4865611 -0.078314433 2.6620079e-25)
(2.4931546 -0.075530498 1.0895094e-22)
(2.4985807 -0.071769762 -1.9362375e-22)
(2.5035362 -0.068837587 -3.5382944e-22)
(2.5073197 -0.065677104 -5.7853193e-22)
(2.5111066 -0.063217991 -2.2473567e-22)
(2.5141811 -0.060939477 8.4015933e-22)
(2.5174632 -0.059019773 1.4113792e-21)
(2.5205295 -0.057296644 1.4846663e-21)
(2.5237461 -0.055605704 1.3754031e-21)
(2.5270556 -0.05389689 4.0247e-22)
(2.5303161 -0.052063474 -9.2301475e-24)
(2.5337624 -0.049972035 -8.8443373e-23)
(2.5369471 -0.04771702 -5.5983386e-22)
(2.5402635 -0.045002873 -2.9464882e-22)
(2.5431737 -0.042306833 2.0351245e-22)
(2.5461002 -0.039108451 7.0865337e-22)
(2.5485777 -0.035931723 1.2807681e-22)
(2.5509552 -0.032200146 -7.961349e-22)
(2.5529427 -0.028904868 -2.7194257e-22)
(2.5547573 -0.025207393 5.286508e-22)
(2.5562972 -0.021565637 2.3126167e-22)
(2.5576244 -0.017496454 -2.4229334e-22)
(2.5588894 -0.014239469 -2.5287169e-22)
(2.5599776 -0.010778634 -7.8360517e-23)
(2.5610793 -0.0070100878 -6.1838569e-23)
(2.5620255 -0.0029851652 -2.2795057e-22)
(2.3290404 -0.29707688 5.9171839e-22)
(2.3891483 -0.25431206 -6.2568258e-21)
(2.4277129 -0.2147742 -6.5879077e-21)
(2.4296783 -0.18354992 2.258505e-21)
(2.4406053 -0.15684914 1.7485306e-21)
(2.4439071 -0.13055158 -8.4119128e-22)
(2.4474368 -0.10878988 -6.4324047e-22)
(2.4394899 -0.096375758 3.9347316e-22)
(2.4366037 -0.085881982 7.3716225e-22)
(2.433365 -0.084716428 -1.4793389e-22)
(2.4329046 -0.082724085 -1.0797238e-21)
(2.4362217 -0.086374232 3.1253699e-22)
(2.4403885 -0.088089474 1.5745913e-21)
(2.4491857 -0.091126666 2.7610244e-22)
(2.4572506 -0.092347126 1.5795119e-22)
(2.4676657 -0.091713845 2.7908521e-22)
(2.4764877 -0.090511049 3.3108735e-22)
(2.4852812 -0.086978847 -1.7042853e-23)
(2.4927031 -0.08393327 -1.2015743e-25)
(2.4987002 -0.079378702 7.8969695e-22)
(2.5040234 -0.075839483 5.0783371e-22)
(2.5077195 -0.071892088 -5.0584326e-22)
(2.5114154 -0.068897779 -7.2370382e-22)
(2.5140242 -0.066204889 -9.7830507e-22)
(2.5169888 -0.064050454 2.122933e-23)
(2.5195573 -0.062347411 -2.4904994e-22)
(2.5224815 -0.060737482 -2.1003536e-22)
(2.5254938 -0.059363925 8.3312101e-22)
(2.5286393 -0.057795104 -9.8374904e-23)
(2.5320687 -0.05612804 -1.55952e-22)
(2.5353484 -0.05420695 -2.3725493e-22)
(2.5388897 -0.05192146 -3.3223568e-22)
(2.5420561 -0.049439242 -7.5280539e-23)
(2.5453509 -0.046415655 -4.9032831e-23)
(2.5481575 -0.043445157 4.2803747e-22)
(2.550938 -0.039928877 2.4247209e-22)
(2.5532313 -0.036502416 -6.3328758e-22)
(2.5553716 -0.032513927 -4.7549598e-22)
(2.5571346 -0.029035337 2.8171533e-22)
(2.558678 -0.02516801 -1.3829521e-22)
(2.559979 -0.021426827 -5.9397886e-22)
(2.5610315 -0.017288739 -1.3692321e-22)
(2.5621023 -0.014004774 3.005377e-23)
(2.562973 -0.010548068 -3.2295562e-25)
(2.5639051 -0.0068320247 -1.5712965e-22)
(2.5646685 -0.0028899589 -3.4821287e-22)
(2.3413341 -0.31585713 2.3242472e-22)
(2.4013854 -0.27226187 4.526984e-21)
(2.4421639 -0.2311496 -1.8671207e-21)
(2.4457352 -0.1959182 -4.9956797e-21)
(2.456547 -0.16579754 3.4810708e-21)
(2.4575908 -0.13526529 9.8397079e-22)
(2.4590031 -0.10984117 -1.5081374e-21)
(2.446804 -0.095535968 -8.8444313e-22)
(2.4403474 -0.083447694 1.1953918e-22)
(2.4332285 -0.082958003 2.5069591e-21)
(2.4295033 -0.081712383 1.67879e-21)
(2.4310399 -0.087791893 -2.6537266e-22)
(2.4338607 -0.091346516 1.0608503e-21)
(2.443076 -0.096909126 1.0436933e-21)
(2.4515005 -0.099913358 -2.0019158e-22)
(2.4635276 -0.10050328 2.3848648e-23)
(2.4735639 -0.10005229 1.3463492e-22)
(2.4839852 -0.096378382 -5.1246745e-23)
(2.4925742 -0.093121682 -3.8819529e-22)
(2.4994667 -0.087593421 -1.2283285e-22)
(2.5053902 -0.083296364 6.2558393e-22)
(2.5090947 -0.078261476 7.7849067e-22)
(2.5127461 -0.074501284 -1.8737955e-22)
(2.5147792 -0.071131768 1.6762004e-23)
(2.5173169 -0.068560337 -2.1224681e-22)
(2.519169 -0.066747379 -1.753961e-21)
(2.5216193 -0.065137901 -2.0451813e-21)
(2.5241062 -0.064093392 -9.7167821e-22)
(2.52696 -0.06282517 1.1321197e-23)
(2.5301991 -0.061708484 6.1883618e-23)
(2.5334514 -0.060192962 6.3036442e-24)
(2.5371279 -0.058432193 -4.1325844e-22)
(2.5404982 -0.056339356 -5.0630444e-22)
(2.5441546 -0.053752527 -9.3726302e-22)
(2.5473047 -0.050985576 -9.2493528e-22)
(2.5505439 -0.047595035 4.8523732e-22)
(2.5532173 -0.044327978 3.1183722e-22)
(2.5558025 -0.04047988 -1.5746892e-22)
(2.5578755 -0.036810405 0)
(2.5597347 -0.032581002 -3.5830282e-22)
(2.5612438 -0.028941375 -7.6743185e-22)
(2.5624856 -0.024932618 -8.034642e-22)
(2.5635283 -0.021122443 -3.7324633e-22)
(2.5642891 -0.016949761 5.5276894e-22)
(2.5651542 -0.013666455 5.3289118e-22)
(2.5657988 -0.010242536 1.5022584e-22)
(2.5665573 -0.0066065048 -2.6227822e-23)
(2.5671362 -0.0027747534 6.0293895e-23)
(2.352858 -0.33312164 1.1228157e-21)
(2.4131159 -0.28968116 -9.2147432e-22)
(2.4563801 -0.24777685 3.1876818e-21)
(2.4628224 -0.20801239 2.2564108e-21)
(2.474437 -0.17399204 -7.3945793e-22)
(2.4730546 -0.13866506 1.5836559e-22)
(2.4722255 -0.10910573 -2.269433e-21)
(2.4552782 -0.092463467 -1.2680478e-21)
(2.4448104 -0.078470169 -6.237805e-22)
(2.4331521 -0.078833109 3.86915e-24)
(2.4255052 -0.078259519 2.2873242e-21)
(2.4247133 -0.087474244 8.6884778e-22)
(2.4258351 -0.093345673 -1.0010881e-21)
(2.4355677 -0.10192656 3.0313296e-22)
(2.4443657 -0.10744812 2.7318093e-22)
(2.4583569 -0.10967533 -2.5908897e-22)
(2.4699176 -0.11041275 -4.916849e-23)
(2.4824758 -0.10673639 6.5821402e-22)
(2.4926611 -0.10335546 4.900685e-22)
(2.5008722 -0.096674479 -5.0335517e-22)
(2.507723 -0.091448287 -2.4182982e-22)
(2.5116047 -0.084959082 8.0470269e-22)
(2.5153169 -0.080144638 9.4615e-22)
(2.5166816 -0.075754272 -6.5916091e-22)
(2.5186948 -0.072511326 -4.7193914e-22)
(2.5195864 -0.070385945 -1.0065069e-22)
(2.5213561 -0.068645159 -1.5656061e-21)
(2.5230415 -0.067896464 -2.0718538e-21)
(2.5253844 -0.066923621 -1.0524749e-21)
(2.5282074 -0.066439959 -5.5633323e-22)
(2.5312637 -0.065433058 -5.2497794e-22)
(2.5349385 -0.064385325 -7.1944961e-22)
(2.5384234 -0.062797765 -1.1296355e-21)
(2.5424008 -0.06077584 -3.0035616e-22)
(2.5458844 -0.058409877 -7.0642857e-22)
(2.5496246 -0.055415022 -1.6140703e-21)
(2.5527281 -0.052307596 -2.8377018e-22)
(2.5558493 -0.048504573 7.5441396e-22)
(2.5583433 -0.044926319 3.157023e-22)
(2.5606724 -0.040744789 3.4623814e-22)
(2.5624836 -0.036845668 1.1423193e-23)
(2.5640162 -0.032399749 2.920724e-22)
(2.5652426 -0.02862512 2.7410454e-22)
(2.5661553 -0.024507534 1.1099542e-22)
(2.5669232 -0.020659749 9.9810327e-22)
(2.5673788 -0.016487446 4.9250613e-22)
(2.56803 -0.013231677 1.2946665e-22)
(2.5684435 -0.0098679196 1.4984241e-22)
(2.5690267 -0.0063372068 2.3465841e-22)
(2.5694218 -0.0026408907 3.7475077e-22)
(2.3633525 -0.34905025 9.6462666e-22)
(2.4241027 -0.30666782 -1.231741e-20)
(2.4702613 -0.26486232 -1.4479942e-20)
(2.4806216 -0.22011545 -9.2830289e-22)
(2.4941009 -0.18168882 -1.9239755e-21)
(2.4902508 -0.14084449 2.1415009e-21)
(2.4870395 -0.10660214 3.0421066e-21)
(2.4648592 -0.08717771 -3.0907595e-21)
(2.449953 -0.070869366 -2.1278583e-21)
(2.4330095 -0.072078538 -3.5375328e-21)
(2.4208392 -0.072233268 -2.9935087e-21)
(2.417252 -0.08511717 4.4044146e-22)
(2.4160623 -0.093973875 -9.4479196e-22)
(2.4262925 -0.10651657 -3.6382641e-22)
(2.4354936 -0.1149596 8.8580365e-22)
(2.4518701 -0.11941621 4.5106145e-22)
(2.4652813 -0.12177037 -5.1798418e-23)
(2.4805696 -0.11828956 4.8524141e-22)
(2.4928359 -0.11493363 1.1659791e-21)
(2.5028994 -0.10691421 7.3634986e-23)
(2.5111029 -0.10058932 -8.6641124e-22)
(2.515414 -0.092217966 -2.2166781e-22)
(2.5193662 -0.08599549 7.7293906e-22)
(2.519998 -0.080145596 7.7391609e-22)
(2.5214074 -0.075897696 -7.4877724e-22)
(2.5210701 -0.07317784 1.4358684e-22)
(2.521929 -0.071106857 5.0360683e-22)
(2.5224857 -0.070567645 9.5028941e-22)
(2.5240526 -0.06985016 5.1515751e-22)
(2.5261757 -0.070077801 1.7157385e-22)
(2.5288168 -0.06965945 6.5544562e-22)
(2.5323011 -0.069488089 6.7983533e-22)
(2.5357657 -0.06856893 5.1440339e-22)
(2.5399829 -0.067346027 -1.1585558e-21)
(2.5437568 -0.065528457 -3.712822e-22)
(2.5480136 -0.063073084 -7.7369498e-22)
(2.5515837 -0.060331668 -1.6340411e-21)
(2.555332 -0.056837512 2.2082528e-22)
(2.558331 -0.053344383 1.2137628e-21)
(2.5612516 -0.049102012 -3.5983025e-22)
(2.5635091 -0.045209186 -3.4105779e-22)
(2.5655162 -0.040707142 -3.727744e-22)
(2.5670223 -0.03659965 -1.1286118e-22)
(2.5681853 -0.03197023 1.1045663e-21)
(2.5691026 -0.028090582 9.6211441e-22)
(2.5696634 -0.0239005 4.6154035e-22)
(2.5701436 -0.020047282 -2.5605269e-23)
(2.5702856 -0.015910518 -2.2813044e-22)
(2.5707178 -0.01270802 -2.1442368e-22)
(2.5708987 -0.0094299018 -3.3007134e-22)
(2.571307 -0.0060276134 -2.0590678e-22)
(2.5715207 -0.0024896977 3.765499e-23)
(2.3725373 -0.36382495 -8.4403239e-22)
(2.4344283 -0.32316695 -1.422776e-20)
(2.4838792 -0.2824518 -2.7098812e-20)
(2.4984188 -0.23229273 -1.0258717e-20)
(2.5146265 -0.18908952 2.691196e-21)
(2.5088158 -0.14198278 1.0498987e-21)
(2.503196 -0.10235362 4.977135e-21)
(2.4754503 -0.079667046 5.7585219e-21)
(2.4557125 -0.060605624 -2.5330203e-23)
(2.4327222 -0.062592153 1.3334877e-21)
(2.4152937 -0.063492141 3.0978288e-23)
(2.4083435 -0.08063866 -7.0402271e-21)
(2.4042505 -0.092993223 -3.8497538e-21)
(2.4148459 -0.11026132 7.6345849e-22)
(2.4244623 -0.12244465 1.3432311e-21)
(2.4436778 -0.12977085 5.5659042e-22)
(2.4593346 -0.13427986 1.3818905e-22)
(2.4780337 -0.13129442 -5.061082e-22)
(2.4929405 -0.12815665 -3.1916601e-24)
(2.505507 -0.11865185 5.6008688e-22)
(2.5155993 -0.11105596 -4.8753888e-22)
(2.5206932 -0.10031076 -1.9790047e-22)
(2.525149 -0.092269453 4.1067577e-22)
(2.5250195 -0.084423931 -7.9071876e-22)
(2.525775 -0.07874481 -8.1462853e-22)
(2.5239198 -0.075059393 -7.7220162e-22)
(2.523615 -0.072381842 7.2744794e-23)
(2.5226633 -0.071907537 1.8547494e-21)
(2.5231399 -0.071357436 2.2988048e-21)
(2.524217 -0.072346087 1.400513e-21)
(2.5261677 -0.072583185 1.0883204e-21)
(2.5292146 -0.073468497 7.5134026e-22)
(2.5324734 -0.073375456 7.7604592e-22)
(2.5368033 -0.073175892 1.5048276e-21)
(2.5407849 -0.072114429 -7.622371e-23)
(2.545543 -0.070457879 1.0254119e-22)
(2.54959 -0.068245629 -2.7396484e-22)
(2.5540377 -0.065203033 -1.769701e-21)
(2.5576249 -0.061997239 -1.1168037e-23)
(2.5612726 -0.057938938 6.7751011e-22)
(2.5640898 -0.054031973 -8.251868e-22)
(2.5667161 -0.049346026 3.7827614e-22)
(2.5686747 -0.04514883 3.5959352e-22)
(2.5702945 -0.040354283 -1.8885218e-21)