/*--------------------------------*- C++ -*----------------------------------*\
| =========                 |                                                 |
| \\      /  F ield         | OpenFOAM: The Open Source CFD Toolbox           |
|  \\    /   O peration     | Version:  v2012                                 |
|   \\  /    A nd           | Website:  www.openfoam.com                      |
|    \\/     M anipulation  |                                                 |
\*---------------------------------------------------------------------------*/
FoamFile
{
    version     2.0;
    format      ascii;
    class       volVectorField;
    location    "19.12352607545994";
    object      cellDisplacement;
}
// * * * * * * * * * * * * * * * * * * * * * * * * * * * * * * * * * * * * * //

dimensions      [0 1 0 0 0 0 0];


internalField   nonuniform List<vector> 
9200
(
(0.045806239 0 0)
(0.046012222 0 0)
(0.13326743 0 0)
(0.046366369 0 0)
(0.13383795 0 0)
(0.21517322 0 0)
(0.046762564 0 0)
(0.13471981 0 0)
(0.21601327 0 0)
(0.29172459 0 0)
(0.047225988 0 0)
(0.13585696 0 0)
(0.21742101 0 0)
(0.29283582 0 0)
(0.36318402 0 0)
(0.047710031 0 0)
(0.13712421 0 0)
(0.21916457 0 0)
(0.29465318 0 0)
(0.36451047 0 0)
(0.42977069 0 0)
(0.048197331 0 0)
(0.13845258 0 0)
(0.22112162 0 0)
(0.29696273 0 0)
(0.36675001 0 0)
(0.43132121 0 0)
(0.49175839 0 0)
(0.048674028 0 0)
(0.13980124 0 0)
(0.22320391 0 0)
(0.29955998 0 0)
(0.36955026 0 0)
(0.43389905 0 0)
(0.49349357 0 0)
(0.54937121 0 0)
(0.04913058 0 0)
(0.14112565 0 0)
(0.22531466 0 0)
(0.30230799 0 0)
(0.37271529 0 0)
(0.43718437 0 0)
(0.49643516 0 0)
(0.55130035 0 0)
(0.60287902 0 0)
(0.049562182 0 0)
(0.1423998 0 0)
(0.22739446 0 0)
(0.30510005 0 0)
(0.37606484 0 0)
(0.44087646 0 0)
(0.50013968 0 0)
(0.55453949 0 0)
(0.60497406 0 0)
(0.65249903 0 0)
(0.049963697 0 0)
(0.14360595 0 0)
(0.22940037 0 0)
(0.30786024 0 0)
(0.37948461 0 0)
(0.44479253 0 0)
(0.50432459 0 0)
(0.55867289 0 0)
(0.60853624 0 0)
(0.6547668 0 0)
(0.69848658 0 0)
(0.050335416 0 0)
(0.14473349 0 0)
(0.23130263 0 0)
(0.31052812 0 0)
(0.38286921 0 0)
(0.44878839 0 0)
(0.50876952 0 0)
(0.5633331 0 0)
(0.61304498 0 0)
(0.65859859 0 0)
(0.700907 0 0)
(0.74104406 0 0)
(0.050674435 0 0)
(0.14577647 0 0)
(0.23308541 0 0)
(0.3130625 0 0)
(0.38614402 0 0)
(0.45274583 0 0)
(0.51329446 0 0)
(0.56826532 0 0)
(0.61814501 0 0)
(0.66349652 0 0)
(0.70503078 0 0)
(0.74362112 0 0)
(0.78040952 0 0)
(0.050983825 0 0)
(0.14673391 0 0)
(0.23473742 0 0)
(0.31544097 0 0)
(0.3892626 0 0)
(0.45658678 0 0)
(0.51779568 0 0)
(0.57330804 0 0)
(0.62356174 0 0)
(0.66903164 0 0)
(0.71027219 0 0)
(0.74799464 0 0)
(0.78312884 0 0)
(0.81676755 0 0)
(0.051262021 0 0)
(0.14760536 0 0)
(0.23625742 0 0)
(0.31764837 0 0)
(0.39219017 0 0)
(0.46024927 0 0)
(0.52216766 0 0)
(0.57831518 0 0)
(0.6290876 0 0)
(0.67490264 0 0)
(0.71621395 0 0)
(0.75359561 0 0)
(0.78776991 0 0)
(0.81963036 0 0)
(0.85033557 0 0)
(0.051513252 0 0)
(0.14839545 0 0)
(0.23764466 0 0)
(0.31968123 0 0)
(0.39491318 0 0)
(0.46369357 0 0)
(0.52634091 0 0)
(0.58318462 0 0)
(0.63457495 0 0)
(0.68089482 0 0)
(0.72253186 0 0)
(0.75993968 0 0)
(0.79368781 0 0)
(0.8245043 0 0)
(0.85333115 0 0)
(0.8812783 0 0)
(0.051737329 0 0)
(0.14910678 0 0)
(0.2389047 0 0)
(0.32153902 0 0)
(0.3974206 0 0)
(0.46690003 0 0)
(0.5302734 0 0)
(0.58784128 0 0)
(0.63992207 0 0)
(0.68685159 0 0)
(0.72897736 0 0)
(0.7666808 0 0)
(0.80040996 0 0)
(0.83075591 0 0)
(0.85845115 0 0)
(0.88440606 0 0)
(0.90979324 0 0)
(0.05193793 0 0)
(0.14974561 0 0)
(0.24004215 0 0)
(0.32322767 0 0)
(0.39971691 0 0)
(0.46985815 0 0)
(0.53393652 0 0)
(0.59223478 0 0)
(0.64504222 0 0)
(0.69265475 0 0)
(0.73538608 0 0)
(0.77357066 0 0)
(0.80757056 0 0)
(0.83785267 0 0)
(0.86499752 0 0)
(0.88974362 0 0)
(0.91304501 0 0)
(0.936026 0 0)
(0.052115841 0 0)
(0.15031597 0 0)
(0.24106551 0 0)
(0.32475388 0 0)
(0.40180311 0 0)
(0.47256814 0 0)
(0.53732238 0 0)
(0.59633184 0 0)
(0.64987448 0 0)
(0.69821456 0 0)
(0.74162316 0 0)
(0.78040915 0 0)
(0.8148835 0 0)
(0.84540901 0 0)
(0.87244701 0 0)
(0.89660083 0 0)
(0.9186091 0 0)
(0.93939969 0 0)
(0.96015359 0 0)
(0.052273949 0 0)
(0.1508244 0 0)
(0.2419818 0 0)
(0.3261275 0 0)
(0.40369252 0 0)
(0.47503573 0 0)
(0.54042628 0 0)
(0.60012204 0 0)
(0.65438946 0 0)
(0.70347151 0 0)
(0.74761159 0 0)
(0.78707944 0 0)
(0.82215526 0 0)
(0.85314153 0 0)
(0.88039588 0 0)
(0.90439917 0 0)
(0.92573966 0 0)
(0.94516634 0 0)
(0.96364257 0 0)
(0.9823028 0 0)
(0.052413907 0 0)
(0.15127623 0 0)
(0.24279978 0 0)
(0.32735838 0 0)
(0.40539149 0 0)
(0.47726994 0 0)
(0.54325776 0 0)
(0.6036004 0 0)
(0.65856543 0 0)
(0.70838741 0 0)
(0.75327971 0 0)
(0.79347794 0 0)
(0.82923824 0 0)
(0.86082652 0 0)
(0.88852862 0 0)
(0.91271903 0 0)
(0.93386721 0 0)
(0.95258498 0 0)
(0.96961745 0 0)
(0.98590441 0 0)
(1.002632 0 0)
(0.052537403 0 0)
(0.15167626 0 0)
(0.24352703 0 0)
(0.32845742 0 0)
(0.40691729 0 0)
(0.47928487 0 0)
(0.54582419 0 0)
(0.60677506 0 0)
(0.66240473 0 0)
(0.71293941 0 0)
(0.7585814 0 0)
(0.79953938 0 0)
(0.83603495 0 0)
(0.86831496 0 0)
(0.89662339 0 0)
(0.92124684 0 0)
(0.94255473 0 0)
(0.96103762 0 0)
(0.97728906 0 0)
(0.99206718 0 0)
(1.0063409 0 0)
(1.0212511 0 0)
(0.05264653 0 0)
(0.15203078 0 0)
(0.24417207 0 0)
(0.32943538 0 0)
(0.40827824 0 0)
(0.48109268 0 0)
(0.54814273 0 0)
(0.60965603 0 0)
(0.66590729 0 0)
(0.71712631 0 0)
(0.76349934 0 0)
(0.8052161 0 0)
(0.84247993 0 0)
(0.87550488 0 0)
(0.90450976 0 0)
(0.92973359 0 0)
(0.95145936 0 0)
(0.97007283 0 0)
(0.98604864 0 0)
(1.0000057 0 0)
(1.0126947 0 0)
(1.0250642 0 0)
(1.0383003 0 0)
(0.052742132 0 0)
(0.1523426 0 0)
(0.24474167 0 0)
(0.33030237 0 0)
(0.40949191 0 0)
(0.48271019 0 0)
(0.55022476 0 0)
(0.61225893 0 0)
(0.66909145 0 0)
(0.72095106 0 0)
(0.76802193 0 0)
(0.81048586 0 0)
(0.84852424 0 0)
(0.88232306 0 0)
(0.91208266 0 0)
(0.93801242 0 0)
(0.96033513 0 0)
(0.97934846 0 0)
(0.99542781 0 0)
(1.0090674 0 0)
(1.0208673 0 0)
(1.0315927 0 0)
(1.0422132 0 0)
(1.0538738 0 0)
(0.052826463 0 0)
(0.15261796 0 0)
(0.24524358 0 0)
(0.3310689 0 0)
(0.41056676 0 0)
(0.48414982 0 0)
(0.55209119 0 0)
(0.61460076 0 0)
(0.67196678 0 0)
(0.72442793 0 0)
(0.77216041 0 0)
(0.81533581 0 0)
(0.85413405 0 0)
(0.88872008 0 0)
(0.91926114 0 0)
(0.94595391 0 0)
(0.96899036 0 0)
(0.98859408 0 0)
(1.0050572 0 0)
(1.018772 0 0)
(1.0302143 0 0)
(1.0400114 0 0)
(1.0489175 0 0)
(1.0578837 0 0)
(1.0680958 0 0)
(0.052899773 0 0)
(0.1528585 0 0)
(0.24568419 0 0)
(0.33174394 0 0)
(0.41151931 0 0)
(0.48542939 0 0)
(0.55375382 0 0)
(0.61669859 0 0)
(0.67455809 0 0)
(0.72757297 0 0)
(0.77592139 0 0)
(0.81977504 0 0)
(0.85930629 0 0)
(0.89466555 0 0)
(0.92600464 0 0)
(0.953493 0 0)
(0.97730407 0 0)
(0.99762291 0 0)
(1.0146693 0 0)
(1.0287494 0 0)
(1.0402403 0 0)
(1.0496389 0 0)
(1.0575525 0 0)
(1.0647502 0 0)
(1.0721989 0 0)
(1.081047 0 0)
(0.052964432 0 0)
(0.15307041 0 0)
(0.24606982 0 0)
(0.33233699 0 0)
(0.41235745 0 0)
(0.48656021 0 0)
(0.55523413 0 0)
(0.61857236 0 0)
(0.67687864 0 0)
(0.7304061 0 0)
(0.77932918 0 0)
(0.82381282 0 0)
(0.86403683 0 0)
(0.90014985 0 0)
(0.93227985 0 0)
(0.96057243 0 0)
(0.98518908 0 0)
(1.0062931 0 0)
(1.0240553 0 0)
(1.0387087 0 0)
(1.0505494 0 0)
(1.0599689 0 0)
(1.0674457 0 0)
(1.073613 0 0)
(1.0792274 0 0)
(1.0852404 0 0)
(1.0928362 0 0)
(0.05301998 0 0)
(0.15325407 0 0)
(0.24640597 0 0)
(0.33285541 0 0)
(0.41309543 0 0)
(0.48755869 0 0)
(0.55654193 0 0)
(0.62023801 0 0)
(0.67895478 0 0)
(0.7329491 0 0)
(0.78239882 0 0)
(0.82747041 0 0)
(0.86834678 0 0)
(0.90517047 0 0)
(0.93806702 0 0)
(0.96716421 0 0)
(0.99259656 0 0)
(1.0145191 0 0)
(1.0330789 0 0)
(1.0484472 0 0)
(1.0608518 0 0)
(1.0706029 0 0)
(1.0780747 0 0)
(1.0837662 0 0)
(1.0882906 0 0)
(1.0924199 0 0)
(1.0971165 0 0)
(1.1035322 0 0)
(0.053069201 0 0)
(0.15341531 0 0)
(0.24669768 0 0)
(0.33330743 0 0)
(0.41374021 0 0)
(0.4884352 0 0)
(0.55769871 0 0)
(0.62171562 0 0)
(0.68080021 0 0)
(0.73522222 0 0)
(0.78515851 0 0)
(0.83076826 0 0)
(0.87224694 0 0)
(0.90974463 0 0)
(0.94337401 0 0)
(0.97325004 0 0)
(0.99949805 0 0)
(1.0222502 0 0)
(1.0416395 0 0)
(1.0578085 0 0)
(1.0709258 0 0)
(1.0812307 0 0)
(1.0890185 0 0)
(1.0946786 0 0)
(1.0986906 0 0)
(1.1016933 0 0)
(1.1044456 0 0)
(1.1078965 0 0)
(1.1132304 0 0)
(0.053113093 0 0)
(0.15355299 0 0)
(0.24694986 0 0)
(0.33369916 0 0)
(0.41430369 0 0)
(0.48920389 0 0)
(0.55871183 0 0)
(0.62301855 0 0)
(0.68243977 0 0)
(0.73724856 0 0)
(0.78762629 0 0)
(0.833731 0 0)
(0.8757689 0 0)
(0.91388869 0 0)
(0.9482058 0 0)
(0.97883308 0 0)
(1.0058785 0 0)
(1.0294545 0 0)
(1.0496856 0 0)
(1.0666984 0 0)
(1.0806213 0 0)
(1.0916338 0 0)
(1.0999659 0 0)
(1.1059247 0 0)
(1.1098813 0 0)
(1.1123348 0 0)
(1.1139048 0 0)
(1.115366 0 0)
(1.1176758 0 0)
(1.1219896 0 0)
(0.052926614 0 0)
(0.15367844 0 0)
(0.24716533 0 0)
(0.33403694 0 0)
(0.41479174 0 0)
(0.48987301 0 0)
(0.55960129 0 0)
(0.62416609 0 0)
(0.68388652 0 0)
(0.73904665 0 0)
(0.78982955 0 0)
(0.83638317 0 0)
(0.87892917 0 0)
(0.91762871 0 0)
(0.95259048 0 0)
(0.98392027 0 0)
(1.0117298 0 0)
(1.0361173 0 0)
(1.0571823 0 0)
(1.0750476 0 0)
(1.0898263 0 0)
(1.1016467 0 0)
(1.1106826 0 0)
(1.1171748 0 0)
(1.1214151 0 0)
(1.1237887 0 0)
(1.1247756 0 0)
(1.12502 0 0)
(1.1252834 0 0)
(1.1265124 0 0)
(1.1298932 0 0)
(0.052689792 0 0)
(0.15328525 0 0)
(0.24735698 0 0)
(0.33432633 0 0)
(0.41521342 0 0)
(0.49045475 0 0)
(0.56037316 0 0)
(0.62516957 0 0)
(0.68516245 0 0)
(0.74063854 0 0)
(0.79178684 0 0)
(0.83874806 0 0)
(0.88176151 0 0)
(0.92098948 0 0)
(0.95654446 0 0)
(0.98853611 0 0)
(1.0170701 0 0)
(1.0422347 0 0)
(1.0641217 0 0)
(1.0828355 0 0)
(1.0984803 0 0)
(1.1111627 0 0)
(1.1210075 0 0)
(1.1281983 0 0)
(1.1329621 0 0)
(1.135603 0 0)
(1.1364878 0 0)
(1.1361144 0 0)
(1.1351093 0 0)
(1.1342504 0 0)
(1.1344905 0 0)
(1.1369908 0 0)
(0.052476828 0 0)
(0.15256776 0 0)
(0.24677136 0 0)
(0.33458188 0 0)
(0.41557449 0 0)
(0.49095616 0 0)
(0.56104444 0 0)
(0.62604584 0 0)
(0.68627929 0 0)
(0.7420404 0 0)
(0.79352206 0 0)
(0.8408508 0 0)
(0.88428418 0 0)
(0.92399854 0 0)
(0.96010314 0 0)
(0.99270259 0 0)
(1.0219117 0 0)
(1.0478201 0 0)
(1.0705014 0 0)
(1.0900441 0 0)
(1.1065474 0 0)
(1.1201082 0 0)
(1.1308207 0 0)
(1.1388188 0 0)
(1.1442768 0 0)
(1.147431 0 0)
(1.148569 0 0)
(1.1480713 0 0)
(1.146417 0 0)
(1.1442566 0 0)
(1.1423562 0 0)
(1.1416584 0 0)
(1.1433555 0 0)
(0.052286378 0 0)
(0.15191907 0 0)
(0.24561122 0 0)
(0.3338289 0 0)
(0.41589335 0 0)
(0.49138547 0 0)
(0.56162015 0 0)
(0.62680401 0 0)
(0.68725556 0 0)
(0.74327178 0 0)
(0.79505321 0 0)
(0.84271223 0 0)
(0.88652897 0 0)
(0.92668327 0 0)
(0.96328733 0 0)
(0.99644988 0 0)
(1.0262885 0 0)
(1.052888 0 0)
(1.0763239 0 0)
(1.0966733 0 0)
(1.1140165 0 0)
(1.1284487 0 0)
(1.1400532 0 0)
(1.1489235 0 0)
(1.1551879 0 0)
(1.1590302 0 0)
(1.1606718 0 0)
(1.1604124 0 0)
(1.1586139 0 0)
(1.1557721 0 0)
(1.152522 0 0)
(1.1496445 0 0)
(1.1480908 0 0)
(1.1490301 0 0)
(0.052121794 0 0)
(0.15134359 0 0)
(0.24456423 0 0)
(0.33227573 0 0)
(0.41499469 0 0)
(0.4917639 0 0)
(0.5621126 0 0)
(0.62745776 0 0)
(0.6881019 0 0)
(0.74434674 0 0)
(0.79639935 0 0)
(0.84435517 0 0)
(0.88851349 0 0)
(0.929069 0 0)
(0.96613237 0 0)
(0.99980664 0 0)
(1.0302214 0 0)
(1.0574692 0 0)
(1.0816158 0 0)
(1.1027309 0 0)
(1.1208905 0 0)
(1.1361745 0 0)
(1.1486614 0 0)
(1.15843 0 0)
(1.1655694 0 0)
(1.1702161 0 0)
(1.1725411 0 0)
(1.1727754 0 0)
(1.1712026 0 0)
(1.1681965 0 0)
(1.164236 0 0)
(1.159979 0 0)
(1.1561947 0 0)
(1.1538284 0 0)
(1.1540785 0 0)
(0.051982892 0 0)
(0.15084294 0 0)
(0.24363328 0 0)
(0.33087522 0 0)
(0.41309439 0 0)
(0.4907362 0 0)
(0.56254378 0 0)
(0.62801564 0 0)
(0.68883209 0 0)
(0.74528137 0 0)
(0.79757712 0 0)
(0.84579727 0 0)
(0.89026566 0 0)
(0.93118225 0 0)
(0.96865994 0 0)
(1.0028027 0 0)
(1.033749 0 0)
(1.06159 0 0)
(1.0863959 0 0)
(1.1082372 0 0)
(1.1271787 0 0)
(1.1432871 0 0)
(1.1566369 0 0)
(1.1673011 0 0)
(1.1753459 0 0)
(1.1808682 0 0)
(1.1839959 0 0)
(1.1849079 0 0)
(1.1838194 0 0)
(1.181026 0 0)
(1.1768834 0 0)
(1.1718859 0 0)
(1.1666779 0 0)
(1.1620435 0 0)
(1.1589375 0 0)
(1.1585371 0 0)
(0.051872322 0 0)
(0.15042373 0 0)
(0.24282461 0 0)
(0.32962842 0 0)
(0.4113808 0 0)
(0.48852698 0 0)
(0.56140143 0 0)
(0.62850441 0 0)
(0.68945709 0 0)
(0.74608867 0 0)
(0.79860098 0 0)
(0.84705827 0 0)
(0.89180206 0 0)
(0.93304526 0 0)
(0.97090174 0 0)
(1.0054676 0 0)
(1.0368946 0 0)
(1.0652847 0 0)
(1.0907026 0 0)
(1.1132156 0 0)
(1.1328938 0 0)
(1.1497944 0 0)
(1.1639747 0 0)
(1.1755119 0 0)
(1.1844664 0 0)
(1.1909001 0 0)
(1.1949048 0 0)
(1.1966171 0 0)
(1.1962019 0 0)
(1.1938836 0 0)
(1.1899427 0 0)
(1.1847452 0 0)
(1.1787702 0 0)
(1.1726841 0 0)
(1.1672612 0 0)
(1.1634523 0 0)
(1.1624615 0 0)
(0.051789769 0 0)
(0.15008714 0 0)
(0.24214574 0 0)
(0.32854551 0 0)
(0.40985512 0 0)
(0.48653451 0 0)
(0.55891602 0 0)
(0.62727202 0 0)
(0.69000347 0 0)
(0.74677858 0 0)
(0.79948633 0 0)
(0.84815377 0 0)
(0.89314568 0 0)
(0.93468195 0 0)
(0.97287868 0 0)
(1.0078278 0 0)
(1.0396953 0 0)
(1.0685834 0 0)
(1.0945609 0 0)
(1.1176996 0 0)
(1.1380676 0 0)
(1.1557169 0 0)
(1.1707028 0 0)
(1.1830884 0 0)
(1.1929243 0 0)
(1.2002681 0 0)
(1.2051866 0 0)
(1.2077763 0 0)
(1.2081594 0 0)
(1.2065094 0 0)
(1.2030348 0 0)
(1.1980277 0 0)
(1.191837 0 0)
(1.1849561 0 0)
(1.1780406 0 0)
(1.1718781 0 0)
(1.1674312 0 0)
(1.1658836 0 0)
(0.051736988 0 0)
(0.1498378 0 0)
(0.24160135 0 0)
(0.32763538 0 0)
(0.40852943 0 0)
(0.48475992 0 0)
(0.55667462 0 0)
(0.62455381 0 0)
(0.6887003 0 0)
(0.74738443 0 0)
(0.80024148 0 0)
(0.84909839 0 0)
(0.89431186 0 0)
(0.93611153 0 0)
(0.97461724 0 0)
(1.0099114 0 0)
(1.0421742 0 0)
(1.0715188 0 0)
(1.0980111 0 0)
(1.1217211 0 0)
(1.1427256 0 0)
(1.16108 0 0)
(1.1768273 0 0)
(1.1900179 0 0)
(1.2007054 0 0)
(1.2089464 0 0)
(1.2147876 0 0)
(1.2182943 0 0)
(1.2195558 0 0)
(1.2187019 0 0)
(1.2158918 0 0)
(1.2113425 0 0)
(1.2053328 0 0)
(1.19822 0 0)
(1.1904852 0 0)
(1.1828046 0 0)
(1.1759564 0 0)
(1.1709037 0 0)
(1.1688512 0 0)
(0.051713585 0 0)
(0.1496761 0 0)
(0.24119615 0 0)
(0.32690488 0 0)
(0.40741489 0 0)
(0.48321802 0 0)
(0.55467791 0 0)
(0.62210221 0 0)
(0.68578404 0 0)
(0.74602154 0 0)
(0.800902 0 0)
(0.84990722 0 0)
(0.89531756 0 0)
(0.93735418 0 0)
(0.976137 0 0)
(1.0117415 0 0)
(1.044364 0 0)
(1.0741207 0 0)
(1.1010796 0 0)
(1.1253148 0 0)
(1.1469075 0 0)
(1.1659118 0 0)
(1.1823729 0 0)
(1.1963358 0 0)
(1.2078477 0 0)
(1.2169559 0 0)
(1.2236961 0 0)
(1.2281242 0 0)
(1.2303044 0 0)
(1.230329 0 0)
(1.228313 0 0)
(1.2244244 0 0)
(1.2188642 0 0)
(1.2119227 0 0)
(1.2039412 0 0)
(1.1954153 0 0)
(1.1870123 0 0)
(1.1795223 0 0)
(1.1739206 0 0)
(1.1713919 0 0)
(0.14960459 0 0)
(0.051713083 0 0)
(0.24093319 0 0)
(0.3263604 0 0)
(0.40651944 0 0)
(0.48192053 0 0)
(0.55294288 0 0)
(0.61991792 0 0)
(0.68315513 0 0)
(0.74293849 0 0)
(0.79949035 0 0)
(0.85061043 0 0)
(0.89617894 0 0)
(0.93842704 0 0)
(0.97745863 0 0)
(1.0133423 0 0)
(1.0462863 0 0)
(1.0764178 0 0)
(1.1038034 0 0)
(1.1285148 0 0)
(1.1506431 0 0)
(1.1702499 0 0)
(1.1873764 0 0)
(1.202063 0 0)
(1.2143529 0 0)
(1.2242868 0 0)
(1.2318982 0 0)
(1.2372366 0 0)
(1.2403485 0 0)
(1.2412951 0 0)
(1.2401588 0 0)
(1.2370625 0 0)
(1.23216 0 0)
(1.2256603 0 0)
(1.2178418 0 0)
(1.209054 0 0)
(1.1997827 0 0)
(1.1907139 0 0)
(1.1826296 0 0)
(1.1765075 0 0)
(1.1735466 0 0)
(0.24081482 0 0)
(0.14960103 0 0)
(0.051734944 0 0)
(0.32600538 0 0)
(0.4058515 0 0)
(0.48087861 0 0)
(0.55148261 0 0)
(0.61801922 0 0)
(0.68081104 0 0)
(0.74015552 0 0)
(0.79626208 0 0)
(0.84916475 0 0)
(0.89692686 0 0)
(0.93934365 0 0)
(0.97860032 0 0)
(1.0147335 0 0)
(1.0479685 0 0)
(1.0784376 0 0)
(1.1062081 0 0)
(1.1313531 0 0)
(1.1539724 0 0)
(1.1741279 0 0)
(1.1918655 0 0)
(1.2072273 0 0)
(1.2202498 0 0)
(1.2309679 0 0)
(1.2394236 0 0)
(1.2456493 0 0)
(1.2496717 0 0)
(1.2515487 0 0)
(1.2513365 0 0)
(1.2491206 0 0)
(1.2450089 0 0)
(1.2391641 0 0)
(1.23178 0 0)
(1.2231463 0 0)
(1.213598 0 0)
(1.2036373 0 0)
(1.1939409 0 0)
(1.1853016 0 0)
(1.1787075 0 0)
(1.1753397 0 0)
(0.32584407 0 0)
(0.2408068 0 0)
(0.14966572 0 0)
(0.051786688 0 0)
(0.40541451 0 0)
(0.48009948 0 0)
(0.55030967 0 0)
(0.61642113 0 0)
(0.67877378 0 0)
(0.73767644 0 0)
(0.79334604 0 0)
(0.84581684 0 0)
(0.89545666 0 0)
(0.94014315 0 0)
(0.9795751 0 0)
(1.015934 0 0)
(1.0494306 0 0)
(1.0802045 0 0)
(1.108325 0 0)
(1.1338617 0 0)
(1.1569243 0 0)
(1.1775836 0 0)
(1.1958842 0 0)
(1.2118683 0 0)
(1.2255731 0 0)
(1.2370309 0 0)
(1.2462795 0 0)
(1.25335 0 0)
(1.2582627 0 0)
(1.2610611 0 0)
(1.2617875 0 0)
(1.2604982 0 0)
(1.2572686 0 0)
(1.2522133 0 0)
(1.2454824 0 0)
(1.2372758 0 0)
(1.2278733 0 0)
(1.2176203 0 0)
(1.2070104 0 0)
(1.1967365 0 0)
(1.1875836 0 0)
(1.180543 0 0)
(1.1768056 0 0)
(0.4052145 0 0)
(0.32582906 0 0)
(0.24090856 0 0)
(0.14982024 0 0)
(0.051867587 0 0)
(0.47959034 0 0)
(0.5494322 0 0)
(0.61513658 0 0)
(0.6770574 0 0)
(0.73551877 0 0)
(0.79074808 0 0)
(0.84279672 0 0)
(0.89201381 0 0)
(0.9386563 0 0)
(0.98042374 0 0)
(1.0169625 0 0)
(1.0506927 0 0)
(1.0817423 0 0)
(1.1101775 0 0)
(1.1360684 0 0)
(1.1595352 0 0)
(1.1806506 0 0)
(1.1994629 0 0)
(1.2160188 0 0)
(1.2303572 0 0)
(1.2425067 0 0)
(1.2525002 0 0)
(1.2603715 0 0)
(1.2661462 0 0)
(1.2698444 0 0)
(1.2714915 0 0)
(1.2711411 0 0)
(1.2688403 0 0)
(1.2646687 0 0)
(1.2587259 0 0)
(1.2511711 0 0)
(1.2421895 0 0)
(1.2320724 0 0)
(1.221154 0 0)
(1.2099451 0 0)
(1.1991276 0 0)
(1.1894961 0 0)
(1.1820504 0 0)
(1.1779656 0 0)
(0.47935463 0 0)
(0.40519265 0 0)
(0.32596171 0 0)
(0.24115535 0 0)
(0.15006209 0 0)
(0.051976831 0 0)
(0.54885821 0 0)
(0.61417568 0 0)
(0.67567752 0 0)
(0.73370198 0 0)
(0.78848521 0 0)
(0.84010138 0 0)
(0.88890905 0 0)
(0.93514122 0 0)
(0.97893187 0 0)
(1.0178532 0 0)
(1.0517752 0 0)
(1.0830721 0 0)
(1.1117912 0 0)
(1.1380013 0 0)
(1.1618315 0 0)
(1.1833627 0 0)
(1.2026433 0 0)
(1.2197212 0 0)
(1.2346397 0 0)
(1.2474295 0 0)
(1.2581205 0 0)
(1.2667419 0 0)
(1.2733258 0 0)
(1.2778878 0 0)
(1.2804371 0 0)
(1.2810171 0 0)
(1.2796636 0 0)
(1.2764241 0 0)
(1.2713673 0 0)
(1.2645998 0 0)
(1.2562698 0 0)
(1.246567 0 0)
(1.2357751 0 0)
(1.2242414 0 0)
(1.2124688 0 0)
(1.2011515 0 0)
(1.1910773 0 0)
(1.1832495 0 0)
(1.1788491 0 0)
(0.54859162 0 0)
(0.47932779 0 0)
(0.40535138 0 0)
(0.32628667 0 0)
(0.24154387 0 0)
(0.15039051 0 0)
(0.052113695 0 0)
(0.61354586 0 0)
(0.67464385 0 0)
(0.73223915 0 0)
(0.78657953 0 0)
(0.83775649 0 0)
(0.88613653 0 0)
(0.93196639 0 0)
(0.975362 0 0)
(1.0163714 0 0)
(1.052711 0 0)
(1.0842099 0 0)
(1.1131874 0 0)
(1.1396847 0 0)
(1.1638444 0 0)
(1.185751 0 0)
(1.2054549 0 0)
(1.223008 0 0)
(1.2384591 0 0)
(1.2518392 0 0)
(1.2631769 0 0)
(1.272502 0 0)
(1.2798431 0 0)
(1.2852213 0 0)
(1.2886492 0 0)
(1.2901379 0 0)
(1.2897133 0 0)
(1.2874227 0 0)
(1.2833009 0 0)
(1.277422 0 0)
(1.269878 0 0)
(1.2608269 0 0)
(1.2504441 0 0)
(1.2390254 0 0)
(1.2269104 0 0)
(1.2146186 0 0)
(1.2028319 0 0)
(1.192346 0 0)
(1.1841711 0 0)
(1.179475 0 0)
(0.613253 0 0)
(0.54855958 0 0)
(0.47950802 0 0)
(0.40574443 0 0)
(0.32680216 0 0)
(0.24207164 0 0)
(0.15080099 0 0)
(0.052276428 0 0)
(0.67396475 0 0)
(0.731143 0 0)
(0.78504378 0 0)
(0.83577856 0 0)
(0.88372524 0 0)
(0.92913548 0 0)
(0.97213582 0 0)
(1.0127676 0 0)
(1.0512464 0 0)
(1.0851979 0 0)
(1.1143819 0 0)
(1.1411402 0 0)
(1.1655976 0 0)
(1.1878443 0 0)
(1.2079337 0 0)
(1.2259186 0 0)
(1.2418532 0 0)
(1.2557724 0 0)
(1.267708 0 0)
(1.2776875 0 0)
(1.2857358 0 0)
(1.2918764 0 0)
(1.2961271 0 0)
(1.2984933 0 0)
(1.2989816 0 0)
(1.2976305 0 0)
(1.2944654 0 0)
(1.2895249 0 0)
(1.2828726 0 0)
(1.2746067 0 0)
(1.2648767 0 0)
(1.2538607 0 0)
(1.2418496 0 0)
(1.2291983 0 0)
(1.2164185 0 0)
(1.2042003 0 0)
(1.1933338 0 0)
(1.1848326 0 0)
(1.1798674 0 0)
(0.67364691 0 0)
(0.6132149 0 0)
(0.54876087 0 0)
(0.47996313 0 0)
(0.40637065 0 0)
(0.32750208 0 0)
(0.24273321 0 0)
(0.15129223 0 0)
(0.052464226 0 0)
(0.73042156 0 0)
(0.78389207 0 0)
(0.83418675 0 0)
(0.88168981 0 0)
(0.92666904 0 0)
(0.96925948 0 0)
(1.0095146 0 0)
(1.0476271 0 0)
(1.083754 0 0)
(1.1154191 0 0)
(1.1423899 0 0)
(1.1671141 0 0)
(1.1896695 0 0)
(1.2101066 0 0)
(1.2284825 0 0)
(1.244858 0 0)
(1.2592698 0 0)
(1.271751 0 0)
(1.2823335 0 0)
(1.2910401 0 0)
(1.2978905 0 0)
(1.3029105 0 0)
(1.306109 0 0)
(1.307488 0 0)
(1.3070558 0 0)
(1.3048311 0 0)
(1.3008506 0 0)
(1.2951397 0 0)
(1.2877689 0 0)
(1.2788225 0 0)
(1.2684607 0 0)
(1.2568474 0 0)
(1.2442868 0 0)
(1.2311292 0 0)
(1.2178998 0 0)
(1.2052771 0 0)
(1.1940575 0 0)
(1.1852592 0 0)
(1.1800431 0 0)
(0.73008137 0 0)
(0.67360107 0 0)
(0.61343234 0 0)
(0.54927089 0 0)
(0.48068604 0 0)
(0.40722168 0 0)
(0.32838219 0 0)
(0.2435241 0 0)
(0.15185673 0 0)
(0.052674428 0 0)
(0.78313273 0 0)
(0.83299157 0 0)
(0.88005169 0 0)
(0.92459046 0 0)
(0.96675202 0 0)
(1.0066091 0 0)
(1.0443616 0 0)
(1.0801366 0 0)
(1.1140058 0 0)
(1.1434695 0 0)
(1.1684178 0 0)
(1.1912509 0 0)
(1.212003 0 0)
(1.2307333 0 0)
(1.2475078 0 0)
(1.2623664 0 0)
(1.275347 0 0)
(1.2864831 0 0)
(1.2957968 0 0)
(1.3033087 0 0)
(1.309043 0 0)
(1.3130163 0 0)
(1.3152337 0 0)
(1.3156909 0 0)
(1.3143897 0 0)
(1.3113607 0 0)
(1.3066182 0 0)
(1.3001926 0 0)
(1.292145 0 0)
(1.2825655 0 0)
(1.2716087 0 0)
(1.2594392 0 0)
(1.2463595 0 0)
(1.2327352 0 0)
(1.219084 0 0)
(1.2060894 0 0)
(1.194543 0 0)
(1.1854668 0 0)
(1.1800235 0 0)
(0.78277258 0 0)
(0.73002948 0 0)
(0.67382925 0 0)
(0.6139857 0 0)
(0.55008274 0 0)
(0.48167298 0 0)
(0.4082935 0 0)
(0.32943368 0 0)
(0.24443726 0 0)
(0.15249308 0 0)
(0.052907375 0 0)
(0.83220421 0 0)
(0.87882037 0 0)
(0.9229143 0 0)
(0.96463928 0 0)
(1.0040796 0 0)
(1.0414424 0 0)
(1.076867 0 0)
(1.1104038 0 0)
(1.142101 0 0)
(1.1695421 0 0)
(1.192608 0 0)
(1.2136477 0 0)
(1.2326978 0 0)
(1.2498338 0 0)
(1.2650989 0 0)
(1.2785317 0 0)
(1.2901719 0 0)
(1.3000449 0 0)
(1.3081682 0 0)
(1.3145647 0 0)
(1.3192569 0 0)
(1.3222565 0 0)
(1.3235588 0 0)
(1.3231615 0 0)
(1.321062 0 0)
(1.3172725 0 0)
(1.3118199 0 0)
(1.3047207 0 0)
(1.296044 0 0)
(1.2858669 0 0)
(1.2743561 0 0)
(1.2616623 0 0)
(1.2481014 0 0)
(1.2340383 0 0)
(1.2199977 0 0)
(1.2066543 0 0)
(1.1948057 0 0)
(1.1854774 0 0)
(1.1798233 0 0)
(0.83183088 0 0)
(0.78271437 0 0)
(0.73026455 0 0)
(0.67441688 0 0)
(0.6148706 0 0)
(0.55119095 0 0)
(0.48291241 0 0)
(0.40957357 0 0)
(0.3306486 0 0)
(0.2454645 0 0)
(0.15319649 0 0)
(0.053090072 0 0)
(0.87800897 0 0)
(0.92165694 0 0)
(0.96293482 0 0)
(1.0019446 0 0)
(1.0389017 0 0)
(1.0739485 0 0)
(1.1071454 0 0)
(1.1385303 0 0)
(1.1682232 0 0)
(1.1937831 0 0)
(1.2150595 0 0)
(1.2344015 0 0)
(1.2518657 0 0)
(1.2674979 0 0)
(1.2813425 0 0)
(1.2934426 0 0)
(1.303824 0 0)
(1.3125085 0 0)
(1.3195183 0 0)
(1.3248732 0 0)
(1.3285962 0 0)
(1.330689 0 0)
(1.3311428 0 0)
(1.3299477 0 0)
(1.3270955 0 0)
(1.3226078 0 0)
(1.31649 0 0)
(1.3087651 0 0)
(1.2994949 0 0)
(1.2887615 0 0)
(1.276729 0 0)
(1.2635467 0 0)
(1.249534 0 0)
(1.2350652 0 0)
(1.2206585 0 0)
(1.2069945 0 0)
(1.1948682 0 0)
(1.1853052 0 0)
(1.1794375 0 0)
(0.87762286 0 0)
(0.83176913 0 0)
(0.78295636 0 0)
(0.73088259 0 0)
(0.67536113 0 0)
(0.61607777 0 0)
(0.5525854 0 0)
(0.48439749 0 0)
(0.41105423 0 0)
(0.3320164 0 0)
(0.24660504 0 0)
(0.15357504 0 0)
(0.053041571 0 0)
(0.92082629 0 0)
(0.961656 0 0)
(1.0002252 0 0)
(1.0367553 0 0)
(1.0714038 0 0)
(1.1042378 0 0)
(1.1353037 0 0)
(1.1646991 0 0)
(1.192514 0 0)
(1.2162835 0 0)
(1.2358698 0 0)
(1.2536301 0 0)
(1.269595 0 0)
(1.2838115 0 0)
(1.2963277 0 0)
(1.307174 0 0)
(1.3163716 0 0)
(1.3239435 0 0)
(1.3299133 0 0)
(1.3343031 0 0)
(1.3371253 0 0)
(1.3383761 0 0)
(1.3380385 0 0)
(1.3361045 0 0)
(1.3325606 0 0)
(1.3274107 0 0)
(1.3206729 0 0)
(1.312357 0 0)
(1.3025348 0 0)
(1.2912757 0 0)
(1.2787572 0 0)
(1.2651156 0 0)
(1.2506842 0 0)
(1.2358342 0 0)
(1.2210885 0 0)
(1.2071273 0 0)
(1.1947446 0 0)
(1.1848919 0 0)
(1.1788494 0 0)
(0.92043221 0 0)
(0.87755723 0 0)
(0.83201963 0 0)
(0.7836002 0 0)
(0.73187413 0 0)
(0.67664962 0 0)
(0.61759901 0 0)
(0.55425486 0 0)
(0.48611247 0 0)
(0.41272072 0 0)
(0.33353529 0 0)
(0.24716912 0 0)
(0.15343538 0 0)
(0.052987072 0 0)
(0.96081098 0 0)
(0.99893309 0 0)
(1.035027 0 0)
(1.0692574 0 0)
(1.1017006 0 0)
(1.1324186 0 0)
(1.1615153 0 0)
(1.1890486 0 0)
(1.2150706 0 0)
(1.2371365 0 0)
(1.2551484 0 0)
(1.2714167 0 0)
(1.2859702 0 0)
(1.2988648 0 0)
(1.3101318 0 0)
(1.3197954 0 0)
(1.327884 0 0)
(1.3344198 0 0)
(1.3394225 0 0)
(1.3429133 0 0)
(1.3449002 0 0)
(1.3453668 0 0)
(1.344298 0 0)
(1.341674 0 0)
(1.3374763 0 0)
(1.3317181 0 0)
(1.3243977 0 0)
(1.3155324 0 0)
(1.3051887 0 0)
(1.2934394 0 0)
(1.2804636 0 0)
(1.2663945 0 0)
(1.2515704 0 0)
(1.2363667 0 0)
(1.2213065 0 0)
(1.2070709 0 0)
(1.1942948 0 0)
(1.1842443 0 0)
(1.1780712 0 0)
(0.96040939 0 0)
(0.92036407 0 0)
(0.87781202 0 0)
(0.83268421 0 0)
(0.78463535 0 0)
(0.73323429 0 0)
(0.67827633 0 0)
(0.6194194 0 0)
(0.55618534 0 0)
(0.48804504 0 0)
(0.414573 0 0)
(0.33425592 0 0)
(0.24695656 0 0)
(0.15328195 0 0)
(0.05292513 0 0)
(0.99808143 0 0)
(1.033727 0 0)
(1.0675259 0 0)
(1.0995615 0 0)
(1.1299041 0 0)
(1.1586652 0 0)
(1.1859129 0 0)
(1.2116718 0 0)
(1.2359918 0 0)
(1.2564624 0 0)
(1.2729845 0 0)
(1.2878452 0 0)
(1.3010829 0 0)
(1.3127325 0 0)
(1.3228203 0 0)
(1.3313761 0 0)
(1.3384292 0 0)
(1.3439985 0 0)
(1.3481009 0 0)
(1.3507612 0 0)
(1.3519744 0 0)
(1.351717 0 0)
(1.3499654 0 0)
(1.3467031 0 0)
(1.3419038 0 0)
(1.3355665 0 0)
(1.327703 0 0)
(1.3183175 0 0)
(1.3074876 0 0)
(1.2952755 0 0)
(1.2818735 0 0)
(1.2674015 0 0)
(1.252213 0 0)
(1.236683 0 0)
(1.2213299 0 0)
(1.2065799 0 0)
(1.1935451 0 0)
(1.1834153 0 0)
(1.1771013 0 0)
(0.99767631 0 0)
(0.96033892 0 0)
(0.92062275 0 0)
(0.87849299 0 0)
(0.83375752 0 0)
(0.78605726 0 0)
(0.73494738 0 0)
(0.68022229 0 0)
(0.62152504 0 0)
(0.55835868 0 0)
(0.49019357 0 0)
(0.41542623 0 0)
(0.33396806 0 0)
(0.24671732 0 0)
(0.15310445 0 0)
(0.052853427 0 0)
(1.0328698 0 0)
(1.0662263 0 0)
(1.097835 0 0)
(1.1277806 0 0)
(1.1561821 0 0)
(1.1831093 0 0)
(1.2085936 0 0)
(1.2326661 0 0)
(1.2553833 0 0)
(1.2743418 0 0)
(1.2894628 0 0)
(1.3030109 0 0)
(1.3150081 0 0)
(1.3254796 0 0)
(1.3344621 0 0)
(1.3419871 0 0)
(1.3480733 0 0)
(1.3527407 0 0)
(1.3560151 0 0)
(1.3579073 0 0)
(1.3584032 0 0)
(1.3574707 0 0)
(1.3550881 0 0)
(1.3512267 0 0)
(1.3458584 0 0)
(1.338989 0 0)
(1.3306133 0 0)
(1.320743 0 0)
(1.3094538 0 0)
(1.2968098 0 0)
(1.2830044 0 0)
(1.2681576 0 0)
(1.2526339 0 0)
(1.2367986 0 0)
(1.2207977 0 0)
(1.2057 0 0)
(1.1926285 0 0)
(1.1824018 0 0)
(1.1759381 0 0)
(1.0324611 0 0)
(0.99760516 0 0)
(0.96059969 0 0)
(0.92131781 0 0)
(0.87959455 0 0)
(0.83522783 0 0)
(0.78784855 0 0)
(0.73700368 0 0)
(0.68247574 0 0)
(0.6238973 0 0)
(0.56077588 0 0)
(0.49116295 0 0)
(0.4150634 0 0)
(0.33364634 0 0)
(0.24643984 0 0)
(0.15290302 0 0)
(0.052772691 0 0)
(1.0653676 0 0)
(1.0965394 0 0)
(1.1260698 0 0)
(1.1540829 0 0)
(1.1806626 0 0)
(1.2058435 0 0)
(1.2296601 0 0)
(1.2521474 0 0)
(1.2733333 0 0)
(1.2908595 0 0)
(1.3046763 0 0)
(1.3169882 0 0)
(1.3278081 0 0)
(1.3371752 0 0)
(1.3451274 0 0)
(1.3516885 0 0)
(1.3568742 0 0)
(1.3607091 0 0)
(1.3632186 0 0)
(1.3644032 0 0)
(1.3642324 0 0)
(1.3626768 0 0)
(1.3597035 0 0)
(1.3552873 0 0)
(1.3493933 0 0)
(1.3420154 0 0)
(1.3331612 0 0)
(1.3228315 0 0)
(1.3111133 0 0)
(1.2980591 0 0)
(1.2838773 0 0)
(1.2686838 0 0)
(1.2528469 0 0)
(1.2362323 0 0)
(1.2197718 0 0)
(1.2046717 0 0)
(1.1915407 0 0)
(1.1812014 0 0)
(1.1745807 0 0)
(1.06496 0 0)
(1.0323875 0 0)
(0.99786782 0 0)
(0.96130487 0 0)
(0.92244089 0 0)
(0.88110431 0 0)
(0.83708528 0 0)
(0.78999954 0 0)
(0.73938122 0 0)
(0.68501329 0 0)
(0.62653465 0 0)
(0.56185099 0 0)
(0.49073166 0 0)
(0.41465858 0 0)
(0.33327425 0 0)
(0.24612042 0 0)
(0.15267354 0 0)
(0.052680829 0 0)
(1.0956837 0 0)
(1.1247845 0 0)
(1.152392 0 0)
(1.1785972 0 0)
(1.2034415 0 0)
(1.2269679 0 0)
(1.2492171 0 0)
(1.2701952 0 0)
(1.2899286 0 0)
(1.3061126 0 0)
(1.3186973 0 0)
(1.3298343 0 0)
(1.3395511 0 0)
(1.3478922 0 0)
(1.3548813 0 0)
(1.3605397 0 0)
(1.3648924 0 0)
(1.3679616 0 0)
(1.3697679 0 0)
(1.3702963 0 0)
(1.3695102 0 0)
(1.3673723 0 0)
(1.3638527 0 0)
(1.3589138 0 0)
(1.3525216 0 0)
(1.3446746 0 0)
(1.335368 0 0)
(1.3246093 0 0)
(1.3124823 0 0)
(1.2990449 0 0)
(1.284513 0 0)
(1.2689965 0 0)
(1.2522511 0 0)
(1.2350593 0 0)
(1.2186194 0 0)
(1.2034894 0 0)
(1.1902789 0 0)
(1.179813 0 0)
(1.1730267 0 0)
(1.0952774 0 0)
(1.0648859 0 0)
(1.0326489 0 0)
(0.99857808 0 0)
(0.96244464 0 0)
(0.92398367 0 0)
(0.88301282 0 0)
(0.83931121 0 0)
(0.79248587 0 0)
(0.74206252 0 0)
(0.68783677 0 0)
(0.62769146 0 0)
(0.56135736 0 0)
(0.49024837 0 0)
(0.41419178 0 0)
(0.33284697 0 0)
(0.24575335 0 0)
(0.15241421 0 0)
(0.052577619 0 0)
(1.1239377 0 0)
(1.1511206 0 0)
(1.1769309 0 0)
(1.2014152 0 0)
(1.2246211 0 0)
(1.2465947 0 0)
(1.2673493 0 0)
(1.286892 0 0)
(1.3052629 0 0)
(1.3201754 0 0)
(1.3315835 0 0)
(1.3416177 0 0)
(1.3503113 0 0)
(1.357691 0 0)
(1.3637793 0 0)
(1.3686017 0 0)
(1.3721869 0 0)
(1.374558 0 0)
(1.3757162 0 0)
(1.375637 0 0)
(1.3742768 0 0)
(1.3716007 0 0)
(1.3675666 0 0)
(1.3621423 0 0)
(1.3552872 0 0)
(1.3469912 0 0)
(1.3372611 0 0)
(1.3260923 0 0)
(1.3135821 0 0)
(1.2997888 0 0)
(1.2849285 0 0)
(1.268375 0 0)
(1.2509341 0 0)
(1.2337837 0 0)
(1.2173329 0 0)
(1.202151 0 0)
(1.1888417 0 0)
(1.1782338 0 0)
(1.1712766 0 0)
(1.1235364 0 0)
(1.0952036 0 0)
(1.0651464 0 0)
(1.0333603 0 0)
(0.9997291 0 0)
(0.96401181 0 0)
(0.92593048 0 0)
(0.88529912 0 0)
(0.84188862 0 0)
(0.79529073 0 0)
(0.74504556 0 0)
(0.68905428 0 0)
(0.62713012 0 0)
(0.56080049 0 0)
(0.48969487 0 0)
(0.4136586 0 0)
(0.33235774 0 0)
(0.24533619 0 0)
(0.15212087 0 0)
(0.052461098 0 0)
(1.1502834 0 0)
(1.1756808 0 0)
(1.19978 0 0)
(1.2226377 0 0)
(1.2443054 0 0)
(1.2648033 0 0)
(1.2841402 0 0)
(1.3023329 0 0)
(1.3193995 0 0)
(1.333093 0 0)
(1.3434037 0 0)
(1.3524177 0 0)
(1.3601511 0 0)
(1.3666278 0 0)
(1.3718816 0 0)
(1.3759391 0 0)
(1.3788227 0 0)
(1.3805483 0 0)
(1.3811082 0 0)
(1.3804637 0 0)
(1.3785734 0 0)
(1.3753921 0 0)
(1.3708803 0 0)
(1.3649964 0 0)
(1.3577025 0 0)
(1.3489907 0 0)
(1.3388552 0 0)
(1.3273023 0 0)
(1.3144344 0 0)
(1.300308 0 0)
(1.2842929 0 0)
(1.2669223 0 0)
(1.2495366 0 0)
(1.2323942 0 0)
(1.2159111 0 0)
(1.2006537 0 0)
(1.1872264 0 0)
(1.1764641 0 0)
(1.1693268 0 0)
(1.1498867 0 0)
(1.1234641 0 0)
(1.0954619 0 0)
(1.0658582 0 0)
(1.0345155 0 0)
(1.0013093 0 0)