/*--------------------------------*- C++ -*----------------------------------*\
| =========                 |                                                 |
| \\      /  F ield         | OpenFOAM: The Open Source CFD Toolbox           |
|  \\    /   O peration     | Version:  v2012                                 |
|   \\  /    A nd           | Website:  www.openfoam.com                      |
|    \\/     M anipulation  |                                                 |
\*---------------------------------------------------------------------------*/
FoamFile
{
    version     2.0;
    format      ascii;
    class       volScalarField;
    location    "19.12352607545994";
    object      p;
}
// * * * * * * * * * * * * * * * * * * * * * * * * * * * * * * * * * * * * * //

dimensions      [0 2 -2 0 0 0 0];


internalField   nonuniform List<scalar> 
9200
(
-0.0018794752
-0.0020107729
-0.0026364615
-0.0020439734
-0.0029430049
-0.0057884658
-0.0022380824
-0.003092503
-0.0062810681
-0.0082595243
-0.002349532
-0.0035739335
-0.0066276782
-0.0089175254
-0.010632224
-0.0025157131
-0.0039782008
-0.0074484467
-0.0094649354
-0.01144808
-0.012657596
-0.0026131966
-0.0045263286
-0.0082283827
-0.010609542
-0.012194697
-0.013622778
-0.014357174
-0.0026671024
-0.0050412016
-0.0092206949
-0.011774013
-0.013655429
-0.014559292
-0.015464501
-0.015692831
-0.0026053574
-0.0055661206
-0.010212724
-0.013235006
-0.015196457
-0.016315813
-0.016580811
-0.016937834
-0.016654904
-0.0023962044
-0.006014192
-0.011243283
-0.014773698
-0.017118951
-0.018204782
-0.018608994
-0.018227675
-0.018035996
-0.017232353
-0.0019700155
-0.0063519763
-0.012204112
-0.016443999
-0.019205439
-0.020545856
-0.020805742
-0.020508033
-0.019500341
-0.018751038
-0.017416625
-0.0012547871
-0.0065012551
-0.013038906
-0.018153194
-0.021538737
-0.02312391
-0.023495011
-0.022976423
-0.022025748
-0.020399569
-0.019077781
-0.017201361
-0.00018515199
-0.0063891433
-0.013642292
-0.019864602
-0.024063684
-0.026051913
-0.02645075
-0.025941883
-0.024749872
-0.023179632
-0.020927787
-0.019009185
-0.016592045
0.0013109826
-0.0059317109
-0.013906451
-0.021493784
-0.026796278
-0.029322519
-0.029798014
-0.029147431
-0.027948405
-0.02617367
-0.023987121
-0.021083192
-0.018539263
-0.01558058
0.0033114509
-0.005054059
-0.013705583
-0.022949791
-0.029716649
-0.033027222
-0.033558748
-0.032695932
-0.031313314
-0.029611821
-0.0272957
-0.024455433
-0.020857364
-0.017662667
-0.014135579
0.005873401
-0.0036835321
-0.012909297
-0.024117277
-0.032803751
-0.037250425
-0.037881552
-0.036594874
-0.034888011
-0.033123796
-0.031034214
-0.028144562
-0.024577114
-0.020235716
-0.016370756
-0.012306972
0.0090377249
-0.0017555628
-0.011391929
-0.024869929
-0.036011907
-0.042107793
-0.042943106
-0.040991931
-0.038614376
-0.036666957
-0.034773432
-0.032287459
-0.028719918
-0.024329722
-0.019203499
-0.014648572
-0.010200611
0.01282178
0.00076494614
-0.0090396255
-0.025076314
-0.039273046
-0.04772361
-0.048999737
-0.046085685
-0.042566175
-0.040079867
-0.038377488
-0.0364127
-0.033392228
-0.02899107
-0.02367994
-0.017748305
-0.012499828
-0.0076385696
0.017200824
0.0038918992
-0.0057660445
-0.024616429
-0.042488759
-0.054224887
-0.056370723
-0.05218777
-0.046868268
-0.043304028
-0.041569535
-0.040303681
-0.038107967
-0.034313245
-0.028902399
-0.022592715
-0.015858082
-0.0099914955
-0.0045095527
0.022095897
0.007603633
-0.0015249702
-0.023398166
-0.045544184
-0.061728985
-0.065447055
-0.059707424
-0.051758706
-0.046309641
-0.044137339
-0.043585046
-0.042597304
-0.039829333
-0.034966743
-0.028383996
-0.021038066
-0.013527844
-0.007132983
-0.0012482839
0.027384432
0.011846297
0.0036740722
-0.021379785
-0.048312908
-0.070349336
-0.07670817
-0.069193572
-0.057580133
-0.049148201
-0.045862745
-0.045907197
-0.046423372
-0.045252923
-0.041460291
-0.035236399
-0.027365195
-0.018991808
-0.010760945
-0.0039015134
0.002200099
0.032889876
0.01652168
0.009753776
-0.018577863
-0.050685741
-0.080155244
-0.090722585
-0.081348165
-0.06485152
-0.051958776
-0.046564352
-0.04688375
-0.049141216
-0.0501337
-0.048120426
-0.042821029
-0.034993989
-0.025785428
-0.016442903
-0.0075926144
-0.00036369543
0.0060037655
0.038388962
0.021509412
0.016549351
-0.015090026
-0.052584773
-0.091183383
-0.10813062
-0.097006247
-0.074225024
-0.055029758
-0.046114875
-0.046130522
-0.050249687
-0.053986129
-0.054536343
-0.050939755
-0.043699367
-0.034119898
-0.023599163
-0.013406283
-0.0040503928
0.0034674606
0.0099948318
0.043489917
0.026683829
0.023858131
-0.011063227
-0.054019294
-0.10341275
-0.12972974
-0.11724168
-0.086570568
-0.058743177
-0.044469184
-0.043289755
-0.049229783
-0.056259849
-0.06024209
-0.059273372
-0.053383832
-0.043884438
-0.032514232
-0.02078846
-0.0098885663
-0.00018353173
0.0075362867
0.014146314
0.047597596
0.031929837
0.031324721
-0.0067444035
-0.055049815
-0.11674547
-0.15645891
-0.14337847
-0.10317842
-0.063813714
-0.041666633
-0.038048626
-0.045580263
-0.056372721
-0.064705327
-0.067437393
-0.06386789
-0.055109731
-0.043190009
-0.030117513
-0.017390937
-0.0059485192
0.0039629131
0.011793217
0.018421196
0.050388529
0.037116171
0.03857903
-0.0025313063
-0.056027467
-0.1309592
-0.18932365
-0.17695925
-0.12545137
-0.071189563
-0.038006547
-0.030189578
-0.038852509
-0.053761921
-0.067348146
-0.074988728
-0.074909845
-0.067791827
-0.05579873
-0.041467825
-0.026933201
-0.013422154
-0.0016393697
0.0083390685
0.016192684
0.022777842
0.051802223
0.042074409
0.045168864
0.0013291824
-0.057114158
-0.14575651
-0.22936169
-0.21993872
-0.15509508
-0.082110826
-0.033896937
-0.019650072
-0.028724991
-0.047938678
-0.067609381
-0.081423167
-0.086230862
-0.081890052
-0.070534334
-0.055177891
-0.038644133
-0.022939885
-0.0089492506
0.0029741334
0.012891583
0.020691828
0.027182728
0.052100386
0.044793081
0.050583109
0.0044627853
-0.05891563
-0.16055719
-0.27767512
-0.27471968
-0.19390471
-0.098313893
-0.030067943
-0.006500984
-0.015050858
-0.038577595
-0.065007558
-0.086240972
-0.097484866
-0.097365379
-0.087598001
-0.071643967
-0.053079138
-0.034786352
-0.018250696
-0.0040534071
0.0078233998
0.01756813
0.02524861
0.031604394
0.051415776
0.045326926
0.054168024
0.0066710533
-0.062228084
-0.17755049
-0.33798333
-0.34498844
-0.24484018
-0.1215613
-0.027654544
0.0088859997
0.002080987
-0.025589631
-0.059241972
-0.088997198
-0.10831881
-0.11412721
-0.1072585
-0.091311651
-0.070773266
-0.049493424
-0.029914323
-0.0129612
0.0011741108
0.012839928
0.02231933
0.029826045
0.036014873
0.049909844
0.043882659
0.055317782
0.0076459783
-0.067259845
-0.19450932
-0.41283733
-0.43868238
-0.3145492
-0.15442863
-0.028071901
0.025828678
0.022228041
-0.0092152911
-0.050283463
-0.089402427
-0.11838773
-0.13209411
-0.12978024
-0.1148019
-0.092410692
-0.067779663
-0.044444555
-0.024155963
-0.0071933316
0.0066394605
0.017958457
0.027100504
0.034391936
0.040390083
0.046994037
0.041422438
0.053736138
0.0071439299
-0.074838642
-0.21246256
-0.49175376
-0.55259276
-0.41230362
-0.20369619
-0.033381183
0.043239477
0.044597334
0.00989951
-0.038475476
-0.087420643
-0.12743637
-0.15114593
-0.1555251
-0.14280127
-0.11896456
-0.090552813
-0.062680504
-0.038093413
-0.017684748
-0.0010788498
0.012252006
0.023119705
0.031872444
0.038918942
0.044709818
0.041926651
0.037646999
0.050253997
0.0047764498
-0.084722076
-0.23465553
-0.57040383
-0.68124165
-0.53622212
-0.27872162
-0.047797279
0.059552936
0.067952045
0.030660342
-0.024595661
-0.083381362
-0.13538755
-0.17120492
-0.18478007
-0.17639049
-0.15150227
-0.11914844
-0.085750276
-0.055625064
-0.030676029
-0.010694837
0.00525191
0.017928746
0.028271886
0.036601974
0.043384398
0.048957457
0.035642546
0.032269907
0.04445918
0.001083235
-0.097134083
-0.25970112
-0.64165719
-0.81145462
-0.67933455
-0.38110515
-0.079286999
0.072348936
0.090438976
0.051502736
-0.0098650167
-0.078000123
-0.14240306
-0.19227186
-0.21785012
-0.21652011
-0.19214316
-0.15432503
-0.11570558
-0.077812018
-0.046962729
-0.022477913
-0.0033799379
0.011678484
0.023597361
0.033371555
0.041261853
0.047770058
0.053119759
0.028944834
0.025728032
0.037411608
-0.0049131526
-0.11085169
-0.28658849
-0.70650067
-0.93558378
-0.82516877
-0.49456042
-0.1311496
0.077757332
0.1100186
0.070347135
0.0040852567
-0.072388579
-0.1489142
-0.21436593
-0.25503978
-0.26418698
-0.24272455
-0.20021299
-0.15012432
-0.1061894
-0.067493572
-0.037120406
-0.013789576
0.0040801095
0.01809594
0.029197665
0.038383699
0.045830514
0.05206163
0.057186444
0.021877357
0.018581389
0.028263517
-0.011576468
-0.12361798
-0.31400494
-0.75966392
-1.0506314
-0.96723126
-0.60939276
-0.19888007
0.071878639
0.12426902
0.084764036
0.015296112
-0.067999867
-0.15573898
-0.23774478
-0.29672904
-0.32048614
-0.30556032
-0.25895575
-0.19923137
-0.1417353
-0.09369243
-0.055415822
-0.026538021
-0.004882296
0.011528984
0.024417744
0.034682037
0.043281304
0.050291478
0.056248388
0.061149849
0.014344829
0.010703447
0.01696477
-0.020929293
-0.13214751
-0.33330651
-0.80259489
-1.1498652
-1.0961217
-0.72080994
-0.27864486
0.052103436
0.13009486
0.092537411
0.021609513
-0.066448998
-0.16393739
-0.26262878
-0.3435345
-0.38677944
-0.38364791
-0.3345762
-0.26255467
-0.18976158
-0.12728938
-0.078623039
-0.042223532
-0.015625718
0.0040083279
0.018838952
0.030576599
0.040014701
0.04804457
0.054632797
0.060322589
0.065004546
0.0061153929
0.00198166
0.0035754982
-0.033382093
-0.1404304
-0.34597751
-0.82586604
-1.2328519
-1.2089735
-0.8222672
-0.36462981
0.019403572
0.12426613
0.091741685
0.020910453
-0.069312938
-0.17456458
-0.28934947
-0.39500234
-0.46389229
-0.48030767
-0.43241975
-0.34565687
-0.25358435
-0.17198451
-0.10844798
-0.061863761
-0.028533133
-0.0047397804
0.012691433
0.025912363
0.036523443
0.045170658
0.052659954
0.05884633
0.064279093
0.068746954
-0.0023455584
-0.0076143862
-0.012317557
-0.048792115
-0.15020931
-0.36030191
-0.83839603
-1.2871447
-1.3039998
-0.91212486
-0.44808915
-0.02812467
0.10377524
0.08016907
0.011571187
-0.078027463
-0.18849553
-0.31824523
-0.45168526
-0.55307931
-0.59890323
-0.56006246
-0.45442543
-0.33949703
-0.2316335
-0.1477286
-0.086857573
-0.044342716
-0.014884183
0.0058330115
0.021023371
0.03268005
0.042225664
0.050134054
0.057119197
0.062927143
0.068114782
0.07237507
-0.0098172602
-0.018895442
-0.031155339
-0.067366974
-0.1631752
-0.37593415
-0.84071907
-1.3288513
-1.3793064
-0.98816396
-0.52520398
-0.090734617
0.066243606
0.056602233
-0.0075722363
-0.093702498
-0.20632907
-0.34946057
-0.51249448
-0.65783729
-0.74626783
-0.73161608
-0.60252424
-0.4475841
-0.31155622
-0.19998352
-0.1193538
-0.064058955
-0.026882856
-0.00170877
0.015880112
0.028905287
0.039098376
0.047664535
0.054896697
0.061418276
0.066872795
0.071828324
0.075888121
-0.015498553
-0.033588942
-0.053274122
-0.089519031
-0.17955288
-0.39063811
-0.83185736
-1.3472776
-1.4502457
-1.0590709
-0.59531937
-0.15930305
0.013733191
0.016911197
-0.037273813
-0.11685489
-0.22828659
-0.3826379
-0.57515288
-0.77454057
-0.91835983
-0.95497422
-0.80721447
-0.60344155
-0.41829481
-0.27002054
-0.16222602
-0.089205871
-0.041346187
-0.010137394
0.010678153
0.025259329
0.036278037
0.04514503
0.052832678
0.059456343
0.0655565
0.070682924
0.075419656
0.079286389
-0.052496659
-0.019185178
-0.078912036
-0.11556598
-0.1980604
-0.40268293
-0.81313257
-1.3417914
-1.4930782
-1.1441471
-0.66806894
-0.22854516
-0.046196382
-0.036800469
-0.078058189
-0.14725127
-0.25420208
-0.4168082
-0.63727373
-0.89346304
-1.1102323
-1.203004
-1.0620065
-0.8153166
-0.57074573
-0.36453135
-0.21921009
-0.12192133
-0.059245617
-0.019713183
0.005427886
0.022072376
0.033890245
0.043115335
0.050814827
0.057731427
0.063815352
0.06953568
0.074358648
0.078889864
0.082570898
-0.10811047
-0.075257282
-0.021500708
-0.1456544
-0.21790069
-0.4112732
-0.78506911
-1.3125201
-1.5065757
-1.2115534
-0.73649583
-0.32049233
-0.11197703
-0.10340574
-0.12895919
-0.18427389
-0.28343823
-0.45065864
-0.6962416
-1.0075405
-1.3105308
-1.4659711
-1.3704051
-1.0870436
-0.78605344
-0.50251845
-0.29587381
-0.16477879
-0.082005439
-0.030945088
0.00015532363
0.019521809
0.032365381
0.041742893
0.049416789
0.056115445
0.062368552
0.067979339
0.073359483
0.07790231
0.082240713
0.085743281
-0.17975562
-0.14073111
-0.1003337
-0.024478331
-0.23939588
-0.41627967
-0.75002883
-1.2599315
-1.4865459
-1.2502578
-0.78404871
-0.40596935
-0.20865521
-0.17428896
-0.19034828
-0.2264809
-0.31508144
-0.48195669
-0.74958199
-1.1088471
-1.5103936
-1.7596736
-1.7107419
-1.3986863
-1.051459
-0.69965757
-0.40933206
-0.22222854
-0.11121676
-0.044649387
-0.0052842179
0.017851653
0.032000949
0.041525573
0.04882631
0.055201045
0.061063783
0.066756273
0.071956198
0.077032786
0.081316947
0.085474586
0.088805553
-0.26363015
-0.21776968
-0.1762993
-0.12504753
-0.029114598
-0.41805798
-0.70996673
-1.1856529
-1.4325348
-1.2530292
-0.81443602
-0.48756707
-0.29849906
-0.26657912
-0.25685843
-0.2732755
-0.34736941
-0.50881366
-0.79294546
-1.1889391
-1.6977927
-2.0669289
-2.1100155
-1.7681262
-1.3257187
-0.91074117
-0.56408002
-0.30781827
-0.1501555
-0.061696577
-0.011235644
0.017186382
0.033194266
0.042837793
0.049579345
0.05517748
0.060500015
0.065682822
0.070909556
0.075755048
0.080561176
0.084606144
0.088594217
0.091760192
-0.41646071
-0.29087666
-0.25916059
-0.21419783
-0.14792527
-0.034762086
-0.66536443
-1.0933387
-1.3461524
-1.2204812
-0.8261769
-0.55652671
-0.39717494
-0.35844937
-0.33479077
-0.32115536
-0.379944
-0.53086729
-0.8190703
-1.241511
-1.8580864
-2.3700596
-2.5382661
-2.2163338
-1.6749871
-1.1374876
-0.72411693
-0.42125121
-0.20846999
-0.084287242
-0.018085903
0.017519341
0.036253655
0.046173396
0.052089723
0.056593649
0.060852315
0.065353894
0.069998908
0.074844577
0.079385623
0.083950664
0.087773826
0.091602831
0.094610088
-0.61682626
-0.41207449
-0.32039442
-0.30335341
-0.2535244
-0.16891735
-0.040922904
-0.98774595
-1.2319759
-1.1540085
-0.81327692
-0.6084157
-0.49244623
-0.46317543
-0.40839772
-0.37289903
-0.40845009
-0.54943185
-0.8331368
-1.2750795
-1.9787312
-2.6401917
-2.97242
-2.7581584
-2.1324362
-1.4436793
-0.89306436
-0.53379387
-0.28482522
-0.11885831
-0.027170623
0.018768029
0.041397272
0.051952854
0.056900377
0.059871547
0.06266175
0.065917782
0.069806912
0.074039374
0.078577812
0.082857954
0.087207683
0.090824355
0.09450384
0.097358369
-0.87426124
-0.56494036
-0.40639227
-0.35159276
-0.34935372
-0.29322656
-0.18783915
-0.047259476
-1.0971094
-1.058083
-0.77780661
-0.64062004
-0.5796464
-0.57340661
-0.4970216
-0.41736671
-0.43422398
-0.55923272
-0.83850382
-1.3002356
-2.0446966
-2.8509621
-3.3654036
-3.3004412
-2.6857499
-1.8633616
-1.1222256
-0.64761279
-0.35836045
-0.16478128
-0.042589814
0.020208846
0.048724612
0.06052869
0.064486435
0.065565173
0.066333556
0.067891301
0.070445463
0.073903687
0.077831301
0.082125915
0.0861825
0.090338747
0.093762087
0.097300569
0.10000759
-0.95029588
-0.75752853
-0.5115316
-0.40030371
-0.38351773
-0.39582429
-0.33210631
-0.20445317
-0.053374779
-0.93953531
-0.72603662
-0.65610599
-0.65188708
-0.68381398
-0.59934528
-0.47476705
-0.44574827
-0.56155842
-0.82668702
-1.3096432
-2.0487583
-2.9809557
-3.6757968
-3.7820864
-3.2424933
-2.3320436
-1.4327869
-0.79791376
-0.42831007
-0.20853648
-0.064751683
0.019331052
0.057886358
0.072101853
0.075265859
0.074160029
0.072403288
0.071643776
0.072394605
0.074506054
0.077687578
0.081401683
0.085505869
0.089369171
0.093349507
0.096590987
0.09999586
0.10255943
-0.80567681
-0.79939499
-0.64277092
-0.45872065
-0.39394779
-0.41507619
-0.44118747
-0.36892079
-0.218488
-0.058451563
-0.65842504
-0.64457644
-0.70616265
-0.78657882
-0.70588703
-0.54649853
-0.4642731
-0.54057312
-0.79046202
-1.2978359
-2.0105751
-3.0280378
-3.8749042
-4.1562591
-3.7352895
-2.8131949
-1.7961654
-1.0036232
-0.51569304
-0.24694172
-0.0862898
0.01502716
0.067392809
0.086522708
0.089487757
0.086088795
0.081333856
0.077670299
0.075973758
0.076280744
0.078167215
0.08120129
0.084777601
0.088732896
0.092425478
0.096244412
0.099314545
0.10259274
0.1050164
-0.5752959
-0.66463072
-0.65199403
-0.5322104
-0.4079295
-0.38785785
-0.44507656
-0.48371751
-0.40237556
-0.22957101
-0.061841743
-0.60611882
-0.74060598
-0.8724481
-0.8096967
-0.62506898
-0.4916438
-0.52651198
-0.7217997
-1.2156192
-1.9514803
-2.9918009
-3.9575051
-4.3916328
-4.1157748
-3.246129
-2.1713061
-1.2524569
-0.63661282
-0.29158382
-0.10354256
0.010207638
0.075886749
0.10289485
0.10709677
0.10161016
0.093536958
0.086387528
0.081621781
0.079487616
0.079652701
0.081494806
0.084487048
0.087982332
0.091816901
0.095356595
0.099028992
0.10193691
0.10509558
0.10738501
-0.55438233
-0.48310025
-0.52491328
-0.51191217
-0.42850027
-0.3584399
-0.38152757
-0.47227862
-0.52163596
-0.43106765
-0.23749222
-0.063529807
-0.75274927
-0.9347456
-0.90086201
-0.70162881
-0.52122912
-0.51969931
-0.66423473
-1.0716445
-1.7790733
-2.9025064
-3.9213489
-4.477741
-4.3511655
-3.5819398
-2.5136804
-1.5182663
-0.79036134
-0.35419005
-0.12289166
0.0071266236
0.083587134
0.11992583
0.12749584
0.1207069
0.10925244
0.098161794
0.089692771
0.084498719
0.082338374
0.08260957
0.084553024
0.087579996
0.091029133
0.094763733
0.098171418
0.10171287
0.10446359
0.10750949
0.10978211
-0.74309486
-0.49320385
-0.38883262
-0.39301605
-0.37778435
-0.3319617
-0.31045019
-0.37436371
-0.49541378
-0.55354676
-0.45378799
-0.2419653
-0.063672575
-0.9691265
-0.96989941
-0.76742136
-0.54899961
-0.51341622
-0.61734314
-0.93603923
-1.5604804
-2.6224099
-3.8027784
-4.4245373
-4.4355613
-3.7896105
-2.7850147
-1.7722205
-0.96444022
-0.4413019
-0.15149334
0.0022634255
0.090573342
0.13652788
0.14956739
0.14291741
0.12846951
0.1131939
0.10049169
0.091595035
0.086523068
0.084671491
0.085246557
0.087393983
0.090498061
0.09392474
0.097588435
0.10088824
0.10430541
0.10689919
0.1099306
0.11224669
-0.97428091
-0.71523705
-0.42668988
-0.29719775
-0.2727268
-0.26082398
-0.24380294
-0.26438915
-0.36610399
-0.51344591
-0.57748958
-0.46984507
-0.24206036
-0.062724591
-1.0105511
-0.81523131
-0.57368395
-0.50428968
-0.57260918
-0.82151935
-1.3517274
-2.3018519
-3.4709546
-4.3509201
-4.4112474
-3.8760095
-2.9634511
-1.9888317
-1.1433806
-0.54942526
-0.1977179
-0.009087641
0.094530406
0.15113359
0.17178876
0.1672727
0.15078796
0.13145991
0.11416697
0.10101011
0.092408579
0.08790315
0.086624695
0.087639483
0.090042342
0.093249247
0.096693752
0.10032537
0.10352206
0.10680115
0.10932459
0.11240162
0.1147154
-1.0194775
-0.95274354
-0.67117445
-0.36009114
-0.21210695
-0.16727686
-0.15819989
-0.16512822
-0.22064416
-0.35676825
-0.52522799
-0.59378969
-0.4769636
-0.23908709
-0.061945864
-0.84080081
-0.59244995
-0.49416155
-0.52653499
-0.71828307
-1.1531558
-1.9753486
-3.1079365
-3.9835203
-4.2964869
-3.8848314
-3.0604849
-2.1563906
-1.3138203
-0.67266751
-0.26401959
-0.03336171
0.091599527
0.16116284
0.19189556
0.19223459
0.17533921
0.15258976
0.1306684
0.11283146
0.10015141
0.092424519
0.088833282
0.088306089
0.089822826
0.092508191
0.095872533
0.099395248
0.10299857
0.10605211
0.10925042
0.11179773
0.11488619
0.11718575
-0.84113572
-0.99818544
-0.90602756
-0.61644678
-0.29762562
-0.13584035
-0.078346728
-0.070666191
-0.096320029
-0.17894033
-0.34626232
-0.53321734
-0.60060824
-0.47725149
-0.23219529
-0.06298576
-0.60020076
-0.47927046
-0.47912942
-0.62003864
-0.96760181
-1.6462041
-2.6903751
-3.6663167
-4.0505257
-3.8203379
-3.1093117
-2.2856298
-1.4683675
-0.80789453
-0.34972795
-0.075946199
0.077777788
0.16318602
0.20666154
0.2154966
0.2006982
0.17579277
0.14964112
0.12697397
0.10977303
0.098312467
0.091910332
0.089464392
0.089764419
0.091810397
0.094850807
0.098463444
0.10206645
0.10555564
0.1084936
0.111751
0.11429434
0.1173801
0.11965702
-0.59249085
-0.81699654
-0.94808986
-0.84094571
-0.55286681
-0.24006983
-0.068895931
-0.006255841
0.0022710992
-0.036549731
-0.13989007
-0.33810888
-0.53556085
-0.59871243
-0.46872169
-0.21918202
-0.064263205
-0.45488513
-0.42926401
-0.52502983
-0.79480571
-1.3378898
-2.2486749
-3.2222768
-3.7939772
-3.6747292
-3.1066548
-2.375883
-1.6053529
-0.95222054
-0.45775693
-0.1387238
0.047695096
0.1541942
0.21252617
0.23376446
0.22477207
0.19977955
0.17036355
0.14308887
0.12114739
0.10551954
0.095852555
0.091072215
0.089865609
0.091019998
0.093689071
0.0972158
0.10107735
0.10460625
0.10795251
0.11101735
0.11428273
0.11681005
0.11988254
0.12212788
-0.42162405
-0.56920544
-0.7684013
-0.87575561
-0.76289919
-0.48559656
-0.18680388
-0.011991279
0.050929241
0.061400788
0.013165
-0.10483954
-0.33364642
-0.53075421
-0.58602177
-0.45046839
-0.20017475
-0.063039662
-0.37579976
-0.43402759
-0.63492764
-1.0600326
-1.8208019
-2.74036
-3.4182115
-3.5514397
-3.0850864
-2.408815
-1.7210371
-1.0940212
-0.58951829
-0.22694605
-0.0020664981
0.13057247
0.20651552
0.24309715
0.24469339
0.22269848
0.19168853
0.16051572
0.13392457
0.11387417
0.10054197
0.093047198
0.090007866
0.09006821
0.092195588
0.095669979
0.099682638
0.10353976
0.10689314
0.1104969
0.11357671
0.11684392
0.11934241
0.1223914
0.1245971
-0.3183031
-0.37935423
-0.53148979
-0.69988181
-0.78744246
-0.67804947
-0.421641
-0.13982103
0.032907887
0.094677202
0.10673428
0.054307059
-0.080465291
-0.32753343
-0.51727496
-0.56103327
-0.42210676
-0.17840456
-0.059468987
-0.34688567
-0.48973233
-0.8142556
-1.4267466
-2.2449396
-2.9716661
-3.2900802
-3.0860284
-2.4631699
-1.8207169
-1.222278
-0.73195023
-0.34555947
-0.0767949
0.088430315
0.18638664
0.24003799
0.25673659
0.24216694
0.21199379
0.17824493
0.14749625
0.12301778
0.10575713
0.095200413
0.090033165
0.088766184
0.090239899
0.093583606
0.097862784
0.1019761
0.10562237
0.1094495
0.11307748
0.1161783
0.11943054
0.12188811
0.1249048
0.12706336
-0.2629675
-0.25749097
-0.32976101
-0.48087194
-0.61909043
-0.68986698
-0.59164735
-0.3635743
-0.10099207
0.065329833
0.12787812
0.14211667
0.079899827
-0.059191795
-0.31773572
-0.49284787
-0.52330331
-0.38420402
-0.15468904
-0.054149248
-0.35899017
-0.59912853
-1.0745355
-1.7668665
-2.4792098
-2.9316252
-2.9546352
-2.5351648
-1.9890524
-1.3595505
-0.86891437
-0.48337744
-0.18321556
0.022919373
0.14915839
0.22248131
0.25698399
0.25517246
0.22925712
0.19488136
0.16097535
0.13238333
0.11112245
0.097256796
0.089683783
0.086886395
0.08756924
0.090768925
0.095329834
0.099860658
0.10373835
0.10817031
0.11203423
0.11571878
0.11881425
0.12203882
0.12444401
0.1274208
0.12952517
-0.24167255
-0.18209638
-0.19561229
-0.27382758
-0.41858438
-0.53297362
-0.58918663
-0.50728874
-0.31156367
-0.068878449
0.088322404
0.15573097
0.1644852
0.1009691
-0.04100518
-0.30233635
-0.4565847
-0.4733898
-0.33906238
-0.1297365
-0.047584629
-0.41236328
-0.76876744
-1.3295162
-1.9823962
-2.5071693
-2.7146911
-2.5350349
-2.1249753
-1.6018956
-1.0274549
-0.62241064
-0.31411189
-0.072907514
0.090502448
0.18870974
0.24252092
0.25809981
0.24110337
0.20869656
0.17317458
0.14118724
0.11609845
0.098815212
0.088630114
0.084107984
0.083892601
0.086912286
0.091841825
0.096866199
0.10115662
0.10625998
0.11073002
0.11470418
0.11840588
0.12148073
0.12466491
0.12700693
0.12993759
0.13198112
-0.25228129
-0.13609455
-0.10618664
-0.13348786
-0.21368821
-0.34752575
-0.44759761
-0.4907112
-0.42675868
-0.26339152
-0.041229762
0.10854704
0.17492921
0.18246782
0.11744498
-0.026750087
-0.27898713
-0.40990539
-0.41323619
-0.29073633
-0.10556558
-0.040520471
-0.51065008
-0.94683753
-1.5100027
-2.0527565
-2.3952124
-2.4373054
-2.1974846
-1.7984437
-1.3132544
-0.79171919
-0.45204504
-0.19623512
0.0041886357
0.13560611
0.21182901
0.24738656
0.24471804
0.21771377
0.18264148
0.14841673
0.11998224
0.099348578
0.086439847
0.080050102
0.078831091
0.081659304
0.087025016
0.092704135
0.097534956
0.10362583
0.10876256
0.11341022
0.11743274
0.12113569
0.12417288
0.12730526
0.12957337
0.13245327
0.13443013
-0.29686724
-0.11524283
-0.042984885
-0.035465276
-0.072637535
-0.1519717
-0.27142144
-0.3654711
-0.39809494
-0.35163829
-0.21537546
-0.015781657
0.12695521
0.18955852
0.19383321
0.12826048
-0.016567672
-0.24843561
-0.35493362
-0.34714738
-0.24271819
-0.082979976
-0.033977028
-0.62459215
-1.0880933
-1.5995824
-2.0225685
-2.2420376
-2.1946754
-1.9657234
-1.5547719
-1.10006
-0.62411183
-0.33192954
-0.11065562
0.058206728
0.16352567
0.22068124
0.23685748
0.21977753
0.18771733
0.15286649
0.12190143
0.098209605
0.082585583
0.0742486
0.071955069
0.074569605
0.080458151
0.086951738
0.092571557
0.099930219
0.10603098
0.11143237
0.1161657
0.12021895
0.12390202
0.12688672
0.12995626
0.13213929
0.13496511
0.1368716
-0.36052001
-0.1209682
-0.00033719296
0.038983952
0.029453422
-0.014711783
-0.091520739
-0.1975665
-0.28786795
-0.31428523
-0.27834838
-0.17272751
0.014026306
0.14126344
0.19842021
0.19915039
0.13349215
-0.0087248511
-0.21390076
-0.29440645
-0.27926455
-0.19671103
-0.062495981
-0.028683672
-0.72884209
-1.18333
-1.6323309
-1.9741583
-2.1219197
-2.0669234
-1.7978503
-1.3755095
-0.93969021
-0.50109148
-0.24353818
-0.045831324
0.093736925
0.17741131
0.21456496
0.21241224
0.18663997
0.15317454
0.12085744
0.094634481
0.076453535
0.066168758
0.06276653
0.065155986
0.071631208
0.079133963
0.085847695
0.094871731
0.10220018
0.10866574
0.11419754
0.11899913
0.123055
0.12670074
0.12961783
0.13261283
0.13470119
0.13746995
0.1393047
-0.43287414
-0.14712928
0.02050148
0.096148225
0.11050963
0.087940414
0.03885535
-0.034641848
-0.13138791
-0.21720878
-0.23846064
-0.21933786
-0.12333186
0.03806081
0.15166548
0.2021307
0.19870405
0.13404801
-0.00058651275
-0.17699356
-0.23190198
-0.21022144
-0.15072349
-0.04577863
-0.023835324
-0.8200252
-1.2581667
-1.6701593
-1.9723775
-2.0943839
-1.99639
-1.6833426
-1.2407409
-0.81144045
-0.40443853
-0.17512495
0.0025509783
0.11381848
0.17660011
0.19287701
0.17740285
0.14783765
0.11573007
0.08777634
0.067357355
0.055216371
0.050715503
0.05287133
0.059984694
0.068686888
0.076904537
0.08804018
0.09697169
0.10477879
0.11142134
0.11706696
0.12190013
0.1259369
0.12952699
0.13235934
0.13526855
0.13725948
0.13996492
0.14172825
-0.51472983
-0.19392193
0.017855605
0.13446458
0.17655409
0.17207638
0.13963859
0.087343474
0.016697839
-0.071863444
-0.1542235
-0.18079794
-0.16238824
-0.078441349
0.058880367
0.15812627
0.20101508
0.19337064
0.13087932
0.0084102169
-0.13984176
-0.17115124
-0.15233396
-0.10704455
-0.032266237
-0.019532819
-0.91833663
-1.358166
-1.7650748
-2.0498001
-2.1433518
-1.9794177
-1.6048708
-1.1311981
-0.69652382
-0.32317594
-0.12082527
0.035148873
0.11888672
0.15958432
0.1580405
0.13520849
0.10524881
0.07668855
0.054543146
0.040743249
0.035215252
0.037128028
0.04490067
0.054995124
0.065214315
0.078986005
0.089948494
0.099477465
0.10750973
0.11431547
0.12002696
0.1248649
0.12885941
0.1323718
0.13510344
0.13792263
0.13981152
0.1424474
0.14414117
-0.62315577
-0.26377699
-0.0073867391
0.14940779
0.22519087
0.24268204
0.22434361
0.18480748
0.12997169
0.062728622
-0.020088411
-0.1064217
-0.12794735
-0.11250083
-0.037369276
0.075967134
0.16104228
0.19564283
0.18424786
0.12496521
0.017608458
-0.10434704
-0.1196247
-0.10850796
-0.074190823
-0.020925936
-0.015600778
-1.0585953
-1.5265485
-1.9502505
-2.2289492
-2.2553928
-1.9989777
-1.5425255
-1.0244347
-0.58614567
-0.24967086
-0.081525858
0.045444866
0.10884467
0.12706801
0.11388763
0.088134005
0.060464498
0.03737935
0.021972425
0.015653081
0.017316854
0.025725142
0.037386016
0.050212971
0.067195641
0.080700016
0.09237676
0.10217472
0.11042285
0.11732992
0.12307428
0.12788757
0.13181127
0.13522408
0.13785375
0.14056958
0.14235408
0.14491488
0.14654269
-0.78514646
-0.37232927
-0.066066111
0.13678472
0.25024288
0.29633874
0.29620318
0.26797324
0.22304163
0.16766679
0.10135067
0.018012813
-0.06324447
-0.083271099
-0.066885538
-0.0033221784
0.089825595
0.16050645
0.18702929
0.17248602
0.11740736
0.026659346
-0.065679279
-0.081882531
-0.073668336
-0.049285554
-0.011918553
-0.01203624
-1.2777249
-1.7997351
-2.2519008
-2.4954982
-2.419479
-2.031362
-1.4677411
-0.90427228
-0.48679444
-0.20142746
-0.053909716
0.043212644
0.081742754
0.082573988
0.063343248
0.037854787
0.014783156
-0.001028742
-0.00859934
-0.0071829829
0.001788382
0.015153641
0.031295894
0.052120455
0.068741102
0.083062328
0.09504467
0.10510873
0.11349411
0.12046195
0.12620242
0.13095389
0.13477898
0.13809056
0.14060353
0.14320582
0.14488281
0.14736502
0.14893196
-1.0338688
-0.54086089
-0.1694318
0.087313588
0.24526278
0.32581267
0.3506171
0.33809932
0.30298423
0.25610408
0.19804946
0.13074967
0.04430347
-0.023830654
-0.044409733
-0.027632556
0.024661518
0.10024641
0.15710915
0.1759793
0.15911276
0.10922819
0.034627321
-0.032122432
-0.051674802
-0.047179934
-0.030540955
-0.0049572284
-0.0089012395
-1.6171922
-2.2171812
-2.6903063
-2.8532398
-2.6065713
-2.0346846
-1.3551411
-0.77015704
-0.38944098
-0.16067907
-0.043963464
0.023289275
0.039475656
0.029565349
0.0082400369
-0.013956646
-0.030170755
-0.037920858
-0.036977903
-0.027589125
-0.012424432
0.0078387811
0.033174934
0.053558282
0.071071624
0.085723247
0.098015924
0.10824832
0.11672148
0.12370407
0.12939392
0.13404726
0.1377751
0.14096138
0.14334875
0.14582577
0.14739334
0.1497958
0.15130715
-1.416169
-0.8002148
-0.33470425
-0.0084668833
0.20247697
0.32421159
0.38016214
0.39039231
0.37019308
0.33233217
0.2812091
0.22186835
0.14509977
0.069023574
0.0092917694
-0.0093630588
0.0049968766
0.047693187
0.10781515
0.15134864
0.16341498
0.14498484
0.10065357
0.040998223
-0.0096735325
-0.028492577
-0.027133368
-0.016556727
0.000232642
-0.0062362758
-2.1335556
-2.8338421
-3.2862926
-3.2659769
-2.7530362
-1.9632692
-1.1992568
-0.6412684
-0.31826412
-0.13936413
-0.053600434
-0.014855106
-0.014086535
-0.029659093
-0.049459022
-0.065408289
-0.073341921
-0.072583934
-0.06304456
-0.046084559
-0.020793882
0.0097569297
0.034609037
0.055918142
0.073772454
0.088767026
0.10125123
0.11159206
0.12009607
0.12703517
0.1326299
0.13718677
0.14078557
0.14383296
0.14608115
0.14842292
0.14988427
0.15220522
0.15366515
-2.0089486
-1.2016005
-0.59184673
-0.16585519
0.11410456
0.28565844
0.37929188
0.41836728
0.41965539
0.39483456
0.35236233
0.30006697
0.22913089
0.15851903
0.090018601
0.037541496
0.020270172
0.033105735
0.066478973
0.11259505
0.14415705
0.15010342
0.13093753
0.092240001
0.044627313
0.0055763839
-0.011239735
-0.01210388
-0.0062779443