/*--------------------------------*- C++ -*----------------------------------*\
| =========                 |                                                 |
| \\      /  F ield         | OpenFOAM: The Open Source CFD Toolbox           |
|  \\    /   O peration     | Version:  v2012                                 |
|   \\  /    A nd           | Website:  www.openfoam.com                      |
|    \\/     M anipulation  |                                                 |
\*---------------------------------------------------------------------------*/
FoamFile
{
    version     2.0;
    format      ascii;
    class       surfaceScalarField;
    location    "19.12352607545994";
    object      phi;
}
// * * * * * * * * * * * * * * * * * * * * * * * * * * * * * * * * * * * * * //

dimensions      [0 3 -1 0 0 0 0];
oriented        oriented;


internalField   nonuniform List<scalar> 
18180
(
0.0064822353
-3.4921128
0.012660243
-3.2648128
0.0070307147
-3.5385206
0.018484355
-3.0516222
0.013770573
-3.307243
0.0071397543
-3.5820716
0.024079724
-2.8515977
0.020206008
-3.0898836
0.013993261
-3.3470372
0.0071786004
-3.6226075
0.029376092
-2.6644029
0.026458593
-2.8860771
0.020589249
-3.1258328
0.014089782
-3.3848335
0.007078402
-3.6611738
0.034391083
-2.4895257
0.032532968
-2.6960849
0.027045955
-2.9189754
0.020776151
-3.1608617
0.013904667
-3.42115
0.0068727375
-3.6974119
0.039048986
-2.3261547
0.038463897
-2.5191329
0.033410275
-2.7264881
0.027372278
-2.9514383
0.020535275
-3.1951618
0.013510038
-3.4557106
0.0065839095
-3.7316953
0.043289882
-2.1733409
0.044245498
-2.3540085
0.039740708
-2.5476387
0.033941916
-2.7567236
0.027106402
-2.9838066
0.01997483
-3.2283198
0.012953916
-3.4884656
0.006234776
-3.7636008
0.047006281
-2.0302977
0.049868447
-2.1997215
0.04608344
-2.3811599
0.04057037
-2.5761117
0.033683634
-2.7872478
0.026393905
-3.0157025
0.019172
-3.2599507
0.012285677
-3.5190746
0.0058408163
-3.7934656
0.050073839
-1.8962881
0.055299912
-2.0552987
0.052487412
-2.2257903
0.047340022
-2.4083417
0.040356463
-2.6050358
0.032816787
-2.8177443
0.025349139
-3.0463313
0.01820927
-3.2896455
0.011538165
-3.5476729
0.0054101754
-3.8210311
0.052339696
-1.77067
0.060488128
-1.9199332
0.059001042
-2.0804406
0.05435507
-2.2520454
0.047217877
-2.4358675
0.039312233
-2.6340329
0.031505685
-2.8472889
0.024101771
-3.0752684
0.017143854
-3.3173819
0.010727595
-3.5741803
0.0049453389
-3.8466136
0.05362651
-1.652837
0.065351787
-1.7929246
0.065669608
-1.944231
0.061738569
-2.1060364
0.054395137
-2.2785546
0.045947832
-2.4635575
0.037667759
-2.662377
0.02994979
-2.8752852
0.022747355
-3.102316
0.016004518
-3.3431775
0.0098565895
-3.5987384
0.004445587
-3.8699717
0.053740646
-1.5422781
0.069792574
-1.6736425
0.072529854
-1.8164305
0.069634939
-1.9693904
0.062051792
-2.1318974
0.052826913
-2.3051061
0.043844007
-2.4904927
0.035727542
-2.6891465
0.028308214
-2.9014917
0.021336324
-3.1275485
0.014794388
-3.367045
0.0089197181
-3.6212593
0.0039099115
-3.891438
0.052457923
-1.4385088
0.073664683
-1.561522
0.079606748
-1.6963967
0.078206928
-1.8413471
0.07039749
-1.9948871
0.060095671
-2.1575264
0.050065641
-2.3306436
0.041366659
-2.5157819
0.033755926
-2.7141984
0.02667149
-2.9260024
0.019873601
-3.1509505
0.013499938
-3.3890384
0.0079097855
-3.6419102
0.003340623
-3.9108624
0.049560675
-1.3410677
0.076788421
-1.4560448
0.086896367
-1.5835422
0.087624902
-1.7212687
0.07968755
-1.866801
0.067960728
-2.0199557
0.05639395
-2.1818941
0.046793905
-2.3543918
0.038949329
-2.5394386
0.031915967
-2.7378258
0.025052067
-2.9489231
0.01833058
-3.1726562
0.012101414
-3.4092318
0.0068232711
-3.6606947
0.0027436735
-3.9285162
0.044836532
-1.2495722
0.078974583
-1.3567412
0.094370409
-1.4773294
0.098060317
-1.6085737
0.090218364
-1.7470197
0.076696328
-1.8916806
0.062944163
-2.0434287
0.051935151
-2.2041784
0.043709903
-2.3764926
0.036882367
-2.5618748
0.030241335
-2.7600811
0.0233989
-2.9703304
0.016662374
-3.1927023
0.010582544
-3.4277101
0.0056627869
-3.6777082
0.0021228997
-3.9442649
0.038076672
-1.1636687
0.079996587
-1.2631964
0.10196888
-1.377267
0.10967095
-1.5027183
0.10231901
-1.6349942
0.086649381
-1.7721195
0.069899353
-1.9145594
0.056739425
-2.0643309
0.047818855
-2.2244801
0.041318871
-2.3973656
0.035247902
-2.5832029
0.028651105
-2.781109
0.021624786
-2.9903076
0.0148252
-3.2111759
0.0089366944
-3.4444654
0.0044382816
-3.6929434
0.0014814392
-3.9583809
0.029096397
-1.0830414
0.079609251
-1.17504
0.10959128
-1.2829052
0.12258658
-1.4031872
0.11633547
-1.5301993
0.098237575
-1.6607797
0.077525994
-1.7947511
0.061193019
-1.9341809
0.05103493
-2.0827009
0.044897536
-2.2435131
0.039798576
-2.4174362
0.033928739
-2.603595
0.026991621
-2.8009804
0.019636519
-3.0089003
0.012789538
-3.2280312
0.0071701169
-3.4595729
0.0031692491
-3.7065224
0.00081749918
-3.9707761
0.017746046
-1.0074018
0.077557506
-1.0919485
0.11710273
-1.193843
0.13690192
-1.309499
0.13261343
-1.4321242
0.11193901
-1.5571908
0.086183109
-1.6835748
0.065338789
-1.8132277
0.053104462
-1.950492
0.047225738
-2.0995012
0.043522583
-2.2618207
0.038993363
-2.4368298
0.03267308
-2.6231839
0.025088118
-2.8197635
0.017359663
-3.0260737
0.010548066
-3.2433514
0.0053025896
-3.4730595
0.0018786028
-3.7185215
0.00014689172
-3.9816617
0.003938934
-0.93649227
0.073585774
-1.0136354
0.12433568
-1.1097252
0.15266144
-1.2212033
0.15147943
-1.3402687
0.12827944
-1.4608874
0.096326056
-1.5806483
0.069289305
-1.7010777
0.053776142
-1.8272932
0.047850763
-1.9646333
0.045959298
-2.1155604
0.043504971
-2.2797945
0.038511568
-2.4558615
0.03117952
-2.6420816
0.022788548
-2.8373985
0.014754525
-3.0418462
0.0081180694
-3.2571226
0.0033664853
-3.4850104
0.0005855071
-3.7290335
-0.0004813289
-3.9910179
-0.012291991
-0.87009124
0.067464123
-0.93986944
0.13110201
-1.0302472
0.16984928
-1.1378801
0.17321891
-1.2541403
0.14780585
-1.3713899
0.10851021
-1.4856009
0.073242411
-1.5974239
0.052812327
-1.7127289
0.046267674
-1.8383777
0.046557564
-1.9779826
0.047027699
-2.1316899
0.044257773
-2.2979969
0.037862861
-2.4747987
0.029171384
-2.6602521
0.019992996
-2.8538511
0.011822838
-3.0561729
0.0055393232
-3.269393
0.0014043191
-3.4954319
-0.00067833963
-3.738104
-0.0010732927
-3.9990816
-0.030783248
-0.80804012
0.05902703
-0.87049435
0.1372235
-0.95518871
0.18840636
-1.0591772
0.19806363
-1.1732649
0.17106027
-1.2882053
0.12337203
-1.3980344
0.077491575
-1.5019843
0.050006926
-1.606501
0.04193008
-1.7202879
0.044682197
-1.8484831
0.049027833
-1.9918195
0.049575586
-2.1487626
0.045017948
-2.3168211
0.036581379
-2.4935261
0.026447695
-2.6775506
0.016667546
-2.8689963
0.0086064257
-3.0690106
0.0028687147
-3.2801257
-0.00053811794
-3.5044301
-0.0019059235
-3.7458039
-0.0016228679
-4.005855
-0.051378063
-0.75016194
0.048129846
-0.80537158
0.14249522
-0.88436623
0.2082226
-0.98481948
0.22619655
-1.0972418
0.19856688
-1.2108486
0.14162719
-1.3175348
0.08242165
-1.4144488
0.045184411
-1.5083504
0.034261654
-1.6100124
0.039625298
-1.7265235
0.048883815
-1.8594809
0.054040069
-2.0073116
0.052455389
-2.1672324
0.045044811
-2.3361269
0.03430864
-2.511847
0.022908371
-2.6937718
0.012845056
-2.8827064
0.0051798894
-3.080299
0.00017560774
-3.2894009
-0.0024183306
-3.5120549
-0.003042249
-3.7522522
-0.0021219268
-4.01153
-0.073949646
-0.69591355
0.034584808
-0.74427831
0.14656061
-0.81748748
0.22895956
-0.91439165
0.25759254
-1.025585
0.23074375
-1.138813
0.16405359
-1.2436788
0.088536687
-1.3345174
0.038213456
-1.4180039
0.022652395
-1.5072435
0.030612385
-1.6116653
0.045898898
-1.7340559
0.057149004
-1.8729378
0.059910804
-2.0251934
0.054540277
-2.1870877
0.04374772
-2.3556039
0.030834476
-2.5294165
0.018558777
-2.708672
0.0086159768
-2.8948352
0.0016409438
-3.0900448
-0.0024705112
-3.2972322
-0.0041944495
-3.5184136
-0.0040785523
-3.7575315
-0.0025680357
-4.0161249
-0.097474547
-0.6433979
0.018397373
-0.68686143
0.14902752
-0.75428882
0.25005026
-0.84736669
0.29185548
-0.95750054
0.26758938
-1.0711912
0.19124069
-1.1757677
0.096407937
-1.2618272
0.029023774
-1.3352196
0.0065054517
-1.4117142
0.016818334
-1.5035279
0.039314752
-1.6150349
0.058338721
-1.7449853
0.067052389
-1.8898735
0.064986302
-2.0454236
0.054915083
-2.2078151
0.040748131
-2.3747888
0.026107491
-2.5458678
0.013499526
-2.72199
0.004113526
-2.9053128
-0.0018990499
-3.0982484
-0.0050030257
-3.3036902
-0.0058308388
-3.5235354
-0.005004247
-3.761759
-0.0029556112
-4.0198213
-0.11901342
-0.58969061
0.0010189309
-0.63266724
0.15000729
-0.6949164
0.27101932
-0.78357017
0.3287433
-0.89261139
0.30921251
-1.007298
0.22346829
-1.1125816
0.10635735
-1.1954277
0.017572158
-1.2596582
-0.014788548
-1.3231626
-0.0026036691
-1.401815
0.028343766
-1.5019877
0.057010955
-1.622875
0.073495106
-1.7605859
0.076239327
-1.9102976
0.067919494
-2.0674617
0.052960531
-2.2288714
0.035895796
-2.3931674
0.020224365
-2.5607907
0.007905995
-2.7335462
-0.00049473122
-2.9140791
-0.0053419187
-3.1049175
-0.0073572065
-3.3088141
-0.0073004663
-3.5275666
-0.0058101338
-3.7650237
-0.0032822102
-4.0226658
-0.13777013
-0.53618879
-0.013742473
-0.58112583
0.1502656
-0.63956817
0.29184598
-0.72360096
0.36842833
-0.83115246
0.35690997
-0.9479461
0.26259043
-1.0550103
0.11907822
-1.1344674
0.0035654819
-1.1901175
-0.041951139
-1.2411353
-0.028602454
-1.3061578
0.012169387
-1.3945788
0.052569992
-1.506188
0.078827631
-1.6367932
0.088094895
-1.7810325
0.082813209
-1.9336823
0.067768056
-2.0906756
0.048370791
-2.2496262
0.029257852
-2.4101707
0.013404408
-2.5738568
0.002004594
-2.7431796
-0.0050631863
-2.9211016
-0.0085816272
-3.110107
-0.0094863895
-3.3127348
-0.0085852874
-3.5305763
-0.0064923067
-3.7674604
-0.0035497573
-4.0248083
-0.15485663
-0.48744626
-0.024100033
-0.5316096
0.15097539
-0.58807869
0.31220427
-0.66735043
0.41038453
-0.77301991
0.41188486
-0.89327399
0.31223081
-1.0056344
0.13847912
-1.0830498
-0.012276007
-1.126761
-0.075560783
-1.1645725
-0.061999718
-1.2162276
-0.010004891
-1.2924564
0.04444482
-1.394597
0.082646614
-1.518069
0.10030011
-1.6570635
0.099573976
-1.8057707
0.085427513
-1.9593189
0.064001548
-2.1142629
0.041142339
-2.2692351
0.021090888
-2.4252471
0.0059550009
-2.5847772
-0.0039530608
-2.7508217
-0.0094215108
-2.9264167
-0.011537849
-3.1139149
-0.011357652
-3.3155448
-0.0096762359
-3.5327143
-0.0070515901
-3.7691511
-0.0037609336
-4.0262966
-0.17110341
-0.446274
-0.031809777
-0.48512866
0.15348751
-0.53999589
0.33160393
-0.61448738
0.45288119
-0.71689647
0.47040207
-0.838237
0.37289701
-0.96147783
0.16904011
-1.0443229
-0.026771694
-1.0761525
-0.11563616
-1.0941992
-0.10338313
-1.1311969
-0.038922729
-1.1953396
0.032167213
-1.2878463
0.084600514
-1.4041254
0.11257333
-1.5379321
0.11809465
-1.6830788
0.1061209
-1.8339616
0.083253887
-1.9861526
0.056485513
-2.1370897
0.031546103
-2.2869063
0.011799646
-2.437934
-0.0017482808
-2.5933812
-0.0097433611
-2.7564585
-0.013438125
-2.9301226
-0.014151597
-3.1164656
-0.012952008
-3.3173719
-0.01057234
-3.5340543
-0.0074924052
-3.770218
-0.0039189194
-4.0272644
-0.18670635
-0.41141958
-0.039731276
-0.4433908
0.15777215
-0.49494478
0.3498233
-0.56482838
0.49421321
-0.66247478
0.52846185
-0.78124725
0.43473419
-0.90713049
0.20885494
-1.0089228
-0.038329171
-1.0398524
-0.16212376
-1.0366503
-0.15371009
-1.0514197
-0.074962548
-1.1027662
0.015370679
-1.1857539
0.084454882
-1.2948127
0.12463974
-1.4233477
0.13817564
-1.5650636
0.12991959
-1.7138998
0.10654612
-1.864448
0.075945656
-2.0128373
0.04545754
-2.1580188
0.020084491
-2.3019037
0.0018941648
-2.4478905
-0.009374651
-2.599602
-0.015137686
-2.760188
-0.017012653
-2.9323563
-0.016386534
-3.1178796
-0.014263928
-3.3183257
-0.011279268
-3.534745
-0.0078219988
-3.7707471
-0.004028032
-4.0277667
-0.20772369
-0.44824559
-0.049095317
-0.40676774
0.16212621
-0.45295635
0.3669253
-0.51828127
0.53273845
-0.60963083
0.58371901
-0.72364622
0.49415557
-0.84726996
0.24792263
-0.95334454
-0.049341372
-1.0045106
-0.21608112
-0.99237693
-0.21627268
-0.98119736
-0.11912476
-1.0144663
-0.0060141888
-1.0881534
0.082127605
-1.1900993
0.13627772
-1.3132001
0.15953462
-1.4513514
0.1567457
-1.598474
0.13419867
-1.748308
0.10019147
-1.8955529
0.063624659
-2.0377638
0.031495362
-2.1759814
0.0074442708
-2.3136858
-0.0080773837
-2.4549873
-0.016573379
-2.6035149
-0.019971378
-2.7621616
-0.02007967
-2.9332667
-0.018227974
-3.1183143
-0.01529909
-3.3185583
-0.011807881
-3.5348802
-0.0080496221
-3.7708569
-0.0040932215
-4.0279159
-0.22795449
-0.44571967
-0.067199396
-0.435295
0.16516629
-0.41472201
0.38286275
-0.4747643
0.56744086
-0.55889755
0.6337443
-0.66521942
0.5492728
-0.78493553
0.28290764
-0.88893449
-0.056755844
-0.95207075
-0.27799161
-0.94860362
-0.29316024
-0.92218169
-0.17518673
-0.93196483
-0.032033601
-0.99479745
0.077751691
-1.0900282
0.14735496
-1.2075424
0.18181737
-1.341749
0.18634432
-1.4871159
0.16637531
-1.6369442
0.12985767
-1.7843966
0.086935825
-1.9252829
0.046876538
-2.0594686
0.015481451
-2.1901321
-0.005549377
-2.321969
-0.017646122
-2.4592401
-0.023067764
-2.6052902
-0.024131528
-2.7625656
-0.022608055
-2.9330416
-0.019679682
-3.1179205
-0.01607213
-3.3181895
-0.01217273
-3.5345817
-0.0081857091
-3.7706327
-0.0041196852
-4.0277592
-0.24647892
-0.44393136
-0.087254046
-0.43082011
0.15782811
-0.43333169
0.39729889
-0.43467864
0.59786295
-0.51075157
0.67762224
-0.60801189
0.59947518
-0.72119064
0.3108442
-0.81910403
-0.070311935
-0.88108859
-0.34078639
-0.8948273
-0.38088056
-0.86717928
-0.24605655
-0.85778193
-0.06424212
-0.90570084
0.071773641
-0.99466516
0.15784776
-1.1065252
0.20458885
-1.2362226
0.21822001
-1.3794022
0.20299592
-1.5296098
0.16548654
-1.6785585
0.11634694
-1.8198191
0.067228915
-1.9516764
0.026778438
-2.0767389
-0.0013777017
-2.199999
-0.018230918
-2.3266979
-0.026342295
-2.460836
-0.028672691
-2.6051647
-0.027559539
-2.7616328
-0.024596573
-2.9318647
-0.020760244
-3.1168542
-0.016603981
-3.3173306
-0.012390612
-3.533942
-0.0082412456
-3.7701655
-0.0041126346
-4.0273705
-0.26334958
-0.44229973
-0.1088101
-0.42753151
0.14846766
-0.4268973
0.39980944
-0.44180987
0.62399872
-0.46604225
0.71505882
-0.55312068
0.64306703
-0.65699451
0.33360345
-0.74975667
-0.08952937
-0.80519356
-0.40286841
-0.82413209
-0.47317414
-0.80845334
-0.32813998
-0.79122707
-0.10538213
-0.82219888
0.064608022
-0.90399203
0.1679336
-1.0104131
0.22741121
-1.1349198
0.25162846
-1.2750401
0.24359815
-1.4254921
0.2073744
-1.5770768
0.15283777
-1.7206343
0.093736343
-1.8520189
0.042237838
-1.972905
0.004874969
-2.0885901
-0.018142845
-2.2053725
-0.029840042
-2.3280845
-0.033861533
-2.4600818
-0.033283906
-2.6034346
-0.030244411
-2.7595989
-0.026068098
-2.9299235
-0.021498777
-3.1152311
-0.016919567
-3.3160864
-0.012479406
-3.533062
-0.0082272386
-3.7694985
-0.0040771156
-4.0267823
-0.27900571
-0.44053271
-0.13161608
-0.42465316
0.13601717
-0.42058277
0.40141799
-0.43453228
0.63562986
-0.45904427
0.74607348
-0.50170364
0.67941444
-0.59450418
0.35110155
-0.67989557
-0.11127094
-0.73294415
-0.46185743
-0.75093211
-0.55770944
-0.74516122
-0.41384385
-0.72856023
-0.1558125
-0.74598448
0.055526048
-0.81820141
0.1781665
-0.91956392
0.25001011
-1.0382658
0.2858239
-1.1741705
0.28751302
-1.3240841
0.25554444
-1.4788764
0.19726787
-1.6266745
0.12774338
-1.759892
0.063038591
-1.8783034
0.013997888
-1.9875323
-0.017117086
-2.0948655
-0.033621507
-2.2064771
-0.039900663
-2.3265154
-0.040030783
-2.4573622
-0.036873338
-2.6004113
-0.032213852
-2.7566979
-0.027062751
-2.9273676
-0.021931114
-3.113184
-0.017045736
-3.3145593
-0.012457117
-3.5319976
-0.0081543273
-3.7686966
-0.0040178649
-4.0260297
-0.29401099
-0.43855518
-0.1556062
-0.42170707
0.1203393
-0.41454139
0.4010473
-0.42629474
0.64538922
-0.44995608
0.76355554
-0.48149312
0.70823155
-0.53522568
0.36403359
-0.61245576
-0.13347215
-0.6622698
-0.5181146
-0.68104243
-0.63362167
-0.68024781
-0.49734685
-0.66716482
-0.21250166
-0.67670897
0.042972609
-0.73815916
0.18919336
-0.83426133
0.27236304
-0.94687091
0.32024045
-1.0773982
0.33418846
-1.2256367
0.31017262
-1.3835989
0.25079075
-1.5371891
0.17087418
-1.6746139
0.090625875
-1.7926188
0.02678384
-1.8964309
-0.01490113
-1.994933
-0.037739061
-2.0956215
-0.047050707
-2.2038243
-0.04812065
-2.3225009
-0.044793336
-2.4530962
-0.039474526
-2.596397
-0.033523407
-2.7531268
-0.027631654
-2.9243579
-0.022096394
-3.110814
-0.017009727
-3.3128289
-0.012341159
-3.5308073
-0.0080324889
-3.7677731
-0.0039392465
-4.0251404
-0.3089134
-0.43653632
-0.1808445
-0.41848777
0.10168515
-0.40868217
0.39799334
-0.41762419
0.65276863
-0.43939284
0.77755478
-0.46901431
0.73326805
-0.51147835
0.37321208
-0.5490593
-0.15478106
-0.59539329
-0.57006926
-0.61432596
-0.70268029
-0.61689163
-0.57568633
-0.60712469
-0.2713807
-0.61279198
0.026610198
-0.66473619
0.20101945
-0.754731
0.29471688
-0.86128754
0.35425712
-0.98527791
0.38276782
-1.1304482
0.37120289
-1.2912533
0.31479734
-1.4520638
0.22577416
-1.5964909
0.12743298
-1.7161123
0.044410026
-1.8152631
-0.011114025
-1.9052748
-0.042291621
-1.9952168
-0.05563495
-2.0915424
-0.057962432
-2.1980998
-0.054398728
-2.316611
-0.048190365
-2.4476853
-0.041165388
-2.5916577
-0.034246262
-2.7490875
-0.027831414
-2.9210188
-0.022034552
-3.1082273
-0.016837862
-3.3109444
-0.012147868
-3.5295167
-0.0078708932
-3.7667772
-0.0038451777
-4.0241131
-0.32416981
-0.4347289
-0.2074268
-0.41513232
0.080414438
-0.40290709
0.39194471
-0.40882219
0.65745698
-0.42808131
0.78775764
-0.45473767
0.75407017
-0.49482238
0.39872437
-0.54181093
-0.17381225
-0.53396467
-0.61647325
-0.55268549
-0.76407299
-0.55753552
-0.64721536
-0.5503032
-0.3289415
-0.55375878
0.0079140972
-0.59816557
0.21314282
-0.68133324
0.31741915
-0.7818417
0.38706355
-0.89817254
0.43149087
-1.0381656
0.43632837
-1.1998827
0.38843505
-1.3690503
0.29356051
-1.5238752
0.17697293
-1.6502639
0.069657302
-1.7459832
-0.0050549405
-1.8261522
-0.047476753
-1.9048245
-0.066091749
-1.9892444
-0.070073444
-2.0835732
-0.066186512
-2.1900809
-0.058787784
-2.3093897
-0.050333118
-2.44149
-0.042051575
-2.5864486
-0.034464327
-2.7447381
-0.027719959
-2.9174737
-0.021784181
-3.1054827
-0.016554836
-3.3089574
-0.011892201
-3.5281747
-0.0076777545
-3.7656804
-0.003739146
-4.0229701
-0.34011104
-0.43330766
-0.23537918
-0.41196281
0.056802208
-0.39726735
0.3829307
-0.40013088
0.659293
-0.41647197
0.79400736
-0.43954614
0.76993925
-0.4756617
0.42248806
-0.52342789
-0.162453
-0.557219
-0.65718809
-0.49666244
-0.81781615
-0.50324941
-0.71117014
-0.49825632
-0.38312849
-0.50002198
-0.011303081
-0.53831115
0.22523119
-0.61447003
0.3406049
-0.70867981
0.41790077
-0.8164583
0.47797105
-0.94852536
0.50150141
-1.1073926
0.4658814
-1.2812163
0.36868534
-1.4478685
0.23711799
-1.5878585
0.10485928
-1.6896771
0.0055036018
-1.7610326
-0.052918837
-1.8252545
-0.079031707
-1.8963064
-0.085127928
-1.9783338
-0.080780749
-2.0727849
-0.071794983
-2.1805131
-0.061450134
-2.3013277
-0.051375748
-2.434839
-0.042252165
-2.5809729
-0.034261477
-2.7402238
-0.027353183
-2.9138079
-0.021381331
-3.102657
-0.0161831
-3.3069095
-0.011587534
-3.5267715
-0.007460369
-3.7645216
-0.0036241791
-4.0217011
-0.43241408
-0.35690425
-0.2646218
-0.40925957
0.030997949
-0.39195863
0.37115665
-0.39177719
0.65827969
-0.40497099
0.79627156
-0.42401323
0.78018808
-0.45488803
0.44356499
-0.50158876
-0.14977387
-0.54018201
-0.66973623
-0.54816411
-0.86474266
-0.45376666
-0.76710254
-0.45173352
-0.43305506
-0.4519692
-0.029888319
-0.48492439
0.23722166
-0.5542733
0.36410139
-0.64189543
0.4463109
-0.74058624
0.5200208
-0.86210237
0.56273366
-1.0135762
0.54115052
-1.1863022
0.44293966
-1.3588629
0.29502726
-1.5092655
0.14195731
-1.6287773
0.019749085
-1.7080414
-0.05713354
-1.7611071
-0.094686074
-1.8138977
-0.10398213
-1.8815681
-0.098956979
-1.9639919
-0.08786314
-2.0602095
-0.075029537
-2.1700637
-0.062613184
-2.292852
-0.051492318
-2.4279956
-0.041888774
-2.5754031
-0.033718319
-2.7356481
-0.026782982
-2.9101097
-0.020858604
-3.0997964
-0.015742688
-3.3048344
-0.011245637
-3.5253356
-0.0072250431
-3.7632555
-0.0035028983
-4.0203344
-0.40725724
-0.29498132
-0.43236506
-0.37440544
0.0031187415
-0.38722787
0.35688105
-0.38400957
0.65458454
-0.39396922
0.79474075
-0.40876763
0.78441935
-0.43336526
0.46060225
-0.47677651
-0.13636904
-0.51908247
-0.67691693
-0.53654522
-0.89807505
-0.51896781
-0.81509537
-0.40992775
-0.47826604
-0.40992099
-0.047273641
-0.43781108
0.24924491
-0.50068687
0.38765334
-0.58153563
0.47216069
-0.6709758
0.55620106
-0.78009695
0.61713338
-0.92010298
0.61096478
-1.0868067
0.51352745
-1.260007
0.3463886
-1.4134051
0.16875541
-1.5395523
0.026075898
-1.6388845
-0.064216651
-1.7049614
-0.11315034
-1.7467738
-0.12759596
-1.7943585
-0.12166189
-1.8627113
-0.10776559
-1.9476188
-0.091688162
-2.0467425
-0.076228819
-2.1592925
-0.062532568
-2.2843061
-0.050859473
-2.4211705
-0.04107748
-2.5698614
-0.032909103
-2.7311113
-0.02605595
-2.9064519
-0.020244823
-3.0969609
-0.015251014
-3.3027425
-0.010876676
-3.5238305
-0.0069772321
-3.7619223
-0.0033775118
-4.0188594
-0.38333854
-0.026688798
-0.40636126
-0.32619559
-0.43315899
-0.39248324
0.34038862
-0.3771011
0.64850765
-0.38384765
0.78977066
-0.39436558
0.78270551
-0.41219238
0.47266721
-0.45027733
-0.1225921
-0.49465074
-0.67866269
-0.52092418
-0.92433206
-0.51451816
-0.86896163
-0.46934442
-0.51820633
-0.37316155
-0.063414345
-0.39677124
0.26132239
-0.45340555
0.41095985
-0.52749932
0.4954999
-0.60785772
0.58589018
-0.70374628
0.66300076
-0.82936389
0.67335402
-0.98570608
0.5815836
-1.1577275
0.39904477
-1.3155688
0.1883509
-1.4362073
0.016654132
-1.533614
-0.086396199
-1.6204165
-0.13863203
-1.6834063
-0.15737392
-1.7209805
-0.15033661
-1.7695052
-0.13240407
-1.8416193
-0.11213089
-1.9304179
-0.092764359
-2.0331213
-0.07576946
-2.1486411
-0.061464953
-2.2759488
-0.049644145
-2.4145092
-0.039924096
-2.5644574
-0.031899783
-2.7266963
-0.025212787
-2.9028941
-0.019564838
-3.0941682
-0.01472307
-3.3006444
-0.010489328
-3.5222905
-0.0067215016
-3.7604952
-0.003249889
-4.0173145
-0.37131795
0.32196749
-0.38049759
-0.058476789
-0.40659977
-0.35797239
-0.43498278
-0.41081091
0.64042614
-0.37495566
0.78188184
-0.38135222
0.77566461
-0.39247225
0.47914797
-0.4235114
-0.10890995
-0.46806089
-0.67470687
-0.50222784
-0.94337043
-0.50620284
-0.91262613
-0.47520016
-0.58907723
-0.40168193
-0.077361428
-0.36199345
0.27306654
-0.4118166
0.43384361
-0.47960118
0.51646151
-0.55121546
0.60914174
-0.63395862
0.69945882
-0.74341795
0.72656883
-0.88560895
0.64660349
-1.0533586
0.45684498
-1.2181842
0.21804806
-1.3482286
0.0047414525
-1.4275225
-0.12627125
-1.4971748
-0.18003951
-1.5826762
-0.19556396
-1.6490389
-0.18695521
-1.6881304
-0.16331929
-1.7421407
-0.13712228
-1.8199086
-0.11281765
-1.9133403
-0.091647237
-2.0199096
-0.074023927
-2.1384285
-0.0596497
-2.2679573
-0.047996498
-2.4081329
-0.038521375
-2.5592672
-0.030747259
-2.7224596
-0.024288211
-2.8994717
-0.018839745
-3.0914509
-0.014171426
-3.298552
-0.010090847
-3.5207013
-0.0064617004
-3.759027
-0.0031215566
-4.0156971
-0.36759571
0.63075417
-0.36635454
0.30139278
-0.37927392
-0.091756384
-0.4081958
-0.38998271
-0.43787196
-0.42902994
0.77173945
-0.37022068
0.76428218
-0.37511766
0.47992252
-0.39807147
-0.095775537
-0.44074777
-0.66506024
-0.48135346
-0.954265
-0.49572011
-0.94611246
-0.47714726
-0.65345837
-0.4140995
-0.13566321
-0.34617437
0.28484421
-0.37686515
0.45604319
-0.43714099
0.53519591
-0.50088338
0.62644681
-0.57115251
0.72615826
-0.66369769
0.76880499
-0.7885168
0.70511357
-0.94653724
0.51832828
-1.1172685
0.2597271
-1.2626106
0.0086156732
-1.3551116
-0.16327239
-1.3937096
-0.23533506
-1.445283
-0.24433989
-1.5375219
-0.23122751
-1.6084438
-0.20269542
-1.652282
-0.16798443
-1.7145722
-0.13698088
-1.7987759
-0.11063794
-1.8970966
-0.088875497
-2.0074956
-0.071333615
-2.1288651
-0.057298664
-2.2604619
-0.046046162
-2.402111
-0.0369482
-2.5543426
-0.029499339
-2.7184344
-0.023311228
-2.8962109
-0.018087047
-3.0888105
-0.013606566
-3.2964815
-0.009687241
-3.5190982
-0.0062009424
-3.7574895
-0.0029937779
-4.0140403
-0.36132401
0.76005943
-0.36093858
0.61938091
-0.36374501
0.27940496
-0.37971373
-0.12621393
-0.41130021
-0.42178212
-0.44181485
-0.44680397
0.74970836
-0.36078686
0.47546877
-0.37547221
-0.083548167
-0.41439794
-0.64980568
-0.45966471
-0.95633634
-0.48372219
-0.96900295
-0.47733281
-0.70934381
-0.42460443
-0.19353475
-0.35910163
0.25839627
-0.32282611
0.47748259
-0.40123848
0.55192037
-0.45623303
0.63841774
-0.51528761
0.7432314
-0.59110014
0.79879647
-0.69639626
0.75307933
-0.83870217
0.57615779
-1.0065817
0.30611844
-1.1662151
0.027182489
-1.2839936
-0.18886182
-1.3324914
-0.2914445
-1.3407612
-0.30383345
-1.3891703
-0.28008981
-1.4921636
-0.24883186
-1.5657605
-0.2069322
-1.6166135
-0.16618703
-1.6884332
-0.13316785
-1.7790665
-0.10636081
-1.8821349
-0.084932645
-1.9961162
-0.067994914
-2.1200868
-0.054591512
-2.2535317
-0.043901431
-2.396491
-0.03526964
-2.5497071
-0.028195304
-2.714645
-0.022305565
-2.8931201
-0.017321093
-3.0862717
-0.013036982
-3.2944316
-0.0092833822
-3.5174579
-0.0059417998
-3.7559248
-0.0028675493
-4.0123002
-0.34992105
0.73318028
-0.35348158
0.74720513
-0.35753551
0.60721209
-0.36299908
0.25620849
-0.3820839
-0.16141865
-0.41598565
-0.4528418
-0.44679016
-0.46385742
0.46675841
-0.3568677
-0.072374048
-0.39073982
-0.62934577
-0.43853009
-0.94904803
-0.47142947
-0.98121741
-0.47607046
-0.75525409
-0.4348246
-0.24771551
-0.37337
0.22922274
-0.33311582
0.47428802
-0.32254783
0.56666802
-0.41819228
0.64590457
-0.46597665
0.75135861
-0.52613075
0.81648477
-0.61135258
0.78769796
-0.73305291
0.62424302
-0.88880751
0.34628873
-1.0491336
0.043090392
-1.1847695
-0.20919461
-1.2664326
-0.34756449
-1.2793086
-0.37357986
-1.274149
-0.3363749
-1.3361672
-0.29450683
-1.4498212
-0.25230279
-1.5236386
-0.20240951
-1.5834694
-0.1597679
-1.6647028
-0.12676138
-1.7612734
-0.10066322
-1.8687217
-0.080228971
-1.9859042
-0.064254043
-2.1121557
-0.051675261
-2.247202
-0.041649846
-2.3912818
-0.03353813
-2.5453797
-0.02686664
-2.7110977
-0.021290271
-2.89021
-0.016553346
-3.0838151
-0.012469543
-3.2924109
-0.0088831938
-3.5158139
-0.0056862834
-3.7542768
-0.002743669
-4.0104948
-0.34319683
0.45525975
-0.34149942
0.71609264
-0.34983492
0.73413058
-0.3561731
0.59443124
-0.36439618
0.23202085
-0.38657047
-0.19682695
-0.42223044
-0.48263373
-0.45274041
-0.47998371
-0.062157223
-0.37117062
-0.60434058
-0.41942002
-0.93222405
-0.45984983
-0.98290991
-0.47434552
-0.78961334
-0.44516766
-0.29714984
-0.3884008
0.19835309
-0.3457669
0.47219498
-0.33401232
0.56193842
-0.319994
0.64931067
-0.42369998
0.75196118
-0.46913855
0.82283789
-0.53491136
0.80799786
-0.63352605
0.65901014
-0.76966271
0.37465104
-0.91939403
0.049977268
-1.0585151
-0.23436149
-1.162195
-0.40812359
-1.20861
-0.4514206
-1.2043819
-0.40815054
-1.2054347
-0.34161016
-1.2922378
-0.29430112
-1.4110204
-0.24500546
-1.484136
-0.19187811
-1.5542644
-0.15029986
-1.6438471
-0.11867987
-1.7456749
-0.094106539
-1.8569708
-0.075097004
-1.9769039
-0.060307853
-2.105086
-0.048666051
-2.2414659
-0.039360284
-2.3864937
-0.031794668
-2.5413585
-0.025538055
-2.7077959
-0.020280261
-2.887458
-0.015792871
-3.0814589
-0.011909603
-3.2904241
-0.008489743
-3.5141143
-0.0054360008
-3.7525737
-0.0026227383
-4.0086783
-0.3568142
-0.052616174
-0.3344838
0.4434832
-0.3384989
0.69967487
-0.34854233
0.72116251
-0.35702279
0.58111332
-0.36815465
0.20709245
-0.39322706
-0.23182005
-0.42991423
-0.51069079
-0.45943041
-0.49490967
-0.57553766
-0.40364407
-0.90637267
-0.44977145
-0.97416791
-0.47323174
-0.81091379
-0.45655008
-0.34021341
-0.40517048
0.16736604
-0.3607452
0.4688162
-0.34543357
0.56166526
-0.33597074
0.62954106
-0.30229518
0.74579587
-0.41993767
0.81965461
-0.46824713
0.81420063
-0.54283976
0.67918323
-0.65537865
0.38992665
-0.78701751
0.048098918
-0.91987263
-0.26360312
-1.0317012
-0.46772277
-1.1051482
-0.53345716
-1.1292923
-0.49263653
-1.1227517
-0.40402915
-1.1460056
-0.33064176
-1.2590018
-0.28409176
-1.3750229
-0.22998186
-1.4489654
-0.17775148
-1.5295534
-0.13901411
-1.6260219
-0.1096699
-1.7323517
-0.08713373
-1.8468936
-0.069795599
-1.9690943
-0.056307806
-2.0988458
-0.045652736
-2.2363134
-0.037085103
-2.3821103
-0.030070558
-2.5376414
-0.024228368
-2.7047146
-0.019287012
-2.8848729
-0.01504657
-3.0791795
-0.011361343
-3.288435
-0.0081054108
-3.5123714
-0.0051921339
-3.7508524
-0.0025051694
-4.0068845
-0.39205956
-0.54395077
-0.34904812
-0.042118101
-0.33128216
0.43151488
-0.33852838
0.68460788
-0.34978619
0.70863679
-0.36018897
0.56721846
-0.37436381
0.18170936
-0.40194572
-0.26576649
-0.4388407
-0.53650738
-0.46675151
-0.50848262
-0.8725287
-0.44197854
-0.95536331
-0.47323255
-0.818585
-0.46910716
-0.37447321
-0.4254037
0.13751017
-0.3786973
0.46414405
-0.35916861
0.56474365
-0.35079054
0.61361881
-0.32219087
0.71278964
-0.27164616
0.80811384
-0.41054575
0.80880073
-0.46444342
0.6854611
-0.55065331
0.39320408
-0.66060326
0.038086237
-0.77923365
-0.29496275
-0.89078825
-0.52340944
-0.9783984
-0.61191559
-1.0292349
-0.58018952
-1.0444125
-0.48242743
-1.0471614
-0.37716701
-1.1024408
-0.31205123
-1.2340813
-0.26649999
-1.3414705
-0.21011494
-1.4194002
-0.16187874
-1.5092786
-0.12684041
-1.6112078
-0.10031092
-1.7212609
-0.080078512
-1.8384081
-0.06451807
-1.9624044
-0.05236609
-2.0933939
-0.042700635
-2.2317091
-0.034862884
-2.378118
-0.028388791
-2.5342014
-0.022951552
-2.7018599
-0.018318963
-2.8824079
-0.014319703
-3.0769378
-0.01082789
-3.286424
-0.0077319611
-3.5106302
-0.0049554643
-3.7491526
-0.0023910654
-4.0050794
-0.43674355
-0.83231398
-0.38758796
-0.50905084
-0.34537077
-0.032085193
-0.33240011
0.42064219
-0.34089032
0.67069271
-0.35328877
0.69650758
-0.36562578
0.55257034
-0.38294011
0.15617981
-0.41246655
-0.298095
-0.44875149
-0.55972775
-0.4745076
-0.52061078
-0.92727307
-0.47472683
-0.81277106
-0.48262463
-0.39816756
-0.44856511
0.10967049
-0.40098481
0.45834253
-0.37603544
0.56888551
-0.36563695
0.6016875
-0.34106746
0.68058755
-0.29242574
0.77485645
-0.24047949
0.79303677
-0.39626384
0.67897518
-0.45937067
0.38646709
-0.54574108
0.021566022
-0.64619353
-0.32674875
-0.74958158
-0.57450607
-0.8419194
-0.68206428
-0.91063773
-0.66348675