/*--------------------------------*- C++ -*----------------------------------*\
| =========                 |                                                 |
| \\      /  F ield         | OpenFOAM: The Open Source CFD Toolbox           |
|  \\    /   O peration     | Version:  v2012                                 |
|   \\  /    A nd           | Website:  www.openfoam.com                      |
|    \\/     M anipulation  |                                                 |
\*---------------------------------------------------------------------------*/
FoamFile
{
    version     2.0;
    format      ascii;
    class       pointVectorField;
    location    "19.12352607545994";
    object      pointDisplacement;
}
// * * * * * * * * * * * * * * * * * * * * * * * * * * * * * * * * * * * * * //

dimensions      [0 1 0 0 0 0 0];


internalField   nonuniform List<vector> 
18840
(
(1.4611877 0 0)
(1.4611518 0 0)
(1.4610451 0 0)
(1.4608689 0 0)
(1.460624 0 0)
(1.4603105 0 0)
(1.4599283 0 0)
(1.4594764 0 0)
(1.4589535 0 0)
(1.458358 0 0)
(1.4576878 0 0)
(1.4569403 0 0)
(1.4561128 0 0)
(1.4552021 0 0)
(1.4542047 0 0)
(1.453117 0 0)
(1.451935 0 0)
(1.4506546 0 0)
(1.4492715 0 0)
(1.4477814 0 0)
(1.4458443 0 0)
(1.4611877 0 0)
(1.4611515 0 0)
(1.4610436 0 0)
(1.4608654 0 0)
(1.4606177 0 0)
(1.4603008 0 0)
(1.4599144 0 0)
(1.4594576 0 0)
(1.4589293 0 0)
(1.4583277 0 0)
(1.4576507 0 0)
(1.4568959 0 0)
(1.4560604 0 0)
(1.4551411 0 0)
(1.4541345 0 0)
(1.4530368 0 0)
(1.4518443 0 0)
(1.4505528 0 0)
(1.4491581 0 0)
(1.4476559 0 0)
(1.4460191 0 0)
(1.4611877 0 0)
(1.4611509 0 0)
(1.4610416 0 0)
(1.460861 0 0)
(1.4606098 0 0)
(1.4602885 0 0)
(1.4598967 0 0)
(1.4594337 0 0)
(1.4588982 0 0)
(1.4582886 0 0)
(1.4576027 0 0)
(1.456838 0 0)
(1.4559915 0 0)
(1.4550602 0 0)
(1.4540404 0 0)
(1.4529283 0 0)
(1.4517199 0 0)
(1.450411 0 0)
(1.4489974 0 0)
(1.4474746 0 0)
(1.4457907 0 0)
(1.4611877 0 0)
(1.4611504 0 0)
(1.4610394 0 0)
(1.4608561 0 0)
(1.4606011 0 0)
(1.4602749 0 0)
(1.4598771 0 0)
(1.4594072 0 0)
(1.4588637 0 0)
(1.458245 0 0)
(1.4575489 0 0)
(1.4567728 0 0)
(1.4559138 0 0)
(1.4549684 0 0)
(1.453933 0 0)
(1.4528036 0 0)
(1.4515759 0 0)
(1.4502456 0 0)
(1.4488082 0 0)
(1.447259 0 0)
(1.4455253 0 0)
(1.4611877 0 0)
(1.4611498 0 0)
(1.461037 0 0)
(1.4608507 0 0)
(1.4605915 0 0)
(1.4602599 0 0)
(1.4598556 0 0)
(1.459378 0 0)
(1.4588256 0 0)
(1.4581967 0 0)
(1.4574892 0 0)
(1.4567003 0 0)
(1.4558269 0 0)
(1.4548656 0 0)
(1.4538125 0 0)
(1.4526632 0 0)
(1.4514133 0 0)
(1.4500581 0 0)
(1.4485927 0 0)
(1.4470126 0 0)
(1.4452265 0 0)
(1.4611877 0 0)
(1.4611491 0 0)
(1.4610344 0 0)
(1.4608448 0 0)
(1.4605811 0 0)
(1.4602436 0 0)
(1.4598322 0 0)
(1.459346 0 0)
(1.4587838 0 0)
(1.4581437 0 0)
(1.4574235 0 0)
(1.4566204 0 0)
(1.4557312 0 0)
(1.4547522 0 0)
(1.4536792 0 0)
(1.4525079 0 0)
(1.4512333 0 0)
(1.4498504 0 0)
(1.4483541 0 0)
(1.4467392 0 0)
(1.4448994 0 0)
(1.4611877 0 0)
(1.4611484 0 0)
(1.4610315 0 0)
(1.4608383 0 0)
(1.4605696 0 0)
(1.4602258 0 0)
(1.4598066 0 0)
(1.4593113 0 0)
(1.4587384 0 0)
(1.4580861 0 0)
(1.4573521 0 0)
(1.4565334 0 0)
(1.4556269 0 0)
(1.4546285 0 0)
(1.453534 0 0)
(1.4523386 0 0)
(1.4510372 0 0)
(1.4496245 0 0)
(1.4480947 0 0)
(1.4464425 0 0)
(1.4445484 0 0)
(1.4611877 0 0)
(1.4611476 0 0)
(1.4610283 0 0)
(1.4608312 0 0)
(1.4605572 0 0)
(1.4602065 0 0)
(1.4597789 0 0)
(1.4592736 0 0)
(1.4586892 0 0)
(1.4580238 0 0)
(1.4572748 0 0)
(1.4564393 0 0)
(1.455514 0 0)
(1.4544946 0 0)
(1.4533769 0 0)
(1.4521557 0 0)
(1.4508256 0 0)
(1.449381 0 0)
(1.4478157 0 0)
(1.4461239 0 0)
(1.4441759 0 0)
(1.4611877 0 0)
(1.4611468 0 0)
(1.4610249 0 0)
(1.4608236 0 0)
(1.4605437 0 0)
(1.4601856 0 0)
(1.4597489 0 0)
(1.4592329 0 0)
(1.4586361 0 0)
(1.4579563 0 0)
(1.4571912 0 0)
(1.4563377 0 0)
(1.455392 0 0)
(1.4543502 0 0)
(1.4532074 0 0)
(1.4519585 0 0)
(1.4505978 0 0)
(1.4491192 0 0)
(1.4475165 0 0)
(1.4457829 0 0)
(1.4437821 0 0)
(1.4611877 0 0)
(1.4611459 0 0)
(1.4610213 0 0)
(1.4608155 0 0)
(1.4605293 0 0)
(1.4601632 0 0)
(1.4597167 0 0)
(1.4591891 0 0)
(1.4585787 0 0)
(1.4578836 0 0)
(1.4571011 0 0)
(1.456228 0 0)
(1.4552606 0 0)
(1.4541945 0 0)
(1.4530249 0 0)
(1.4517463 0 0)
(1.4503529 0 0)
(1.4488383 0 0)
(1.4471958 0 0)
(1.4454185 0 0)
(1.443366 0 0)
(1.4611877 0 0)
(1.4611448 0 0)
(1.4610173 0 0)
(1.4608063 0 0)
(1.460513 0 0)
(1.4601376 0 0)
(1.4596798 0 0)
(1.4591387 0 0)
(1.4585128 0 0)
(1.4577999 0 0)
(1.4569974 0 0)
(1.4561019 0 0)
(1.4551095 0 0)
(1.4540157 0 0)
(1.4528154 0 0)
(1.4515031 0 0)
(1.4500726 0 0)
(1.4485173 0 0)
(1.4468301 0 0)
(1.4450037 0 0)
(1.4428985 0 0)
(1.4611877 0 0)
(1.4611518 0 0)
(1.4610451 0 0)
(1.4608689 0 0)
(1.460624 0 0)
(1.4603105 0 0)
(1.4599283 0 0)
(1.4594764 0 0)
(1.4589535 0 0)
(1.458358 0 0)
(1.4576878 0 0)
(1.4569403 0 0)
(1.4561128 0 0)
(1.4552021 0 0)
(1.4542047 0 0)
(1.453117 0 0)
(1.451935 0 0)
(1.4506546 0 0)
(1.4492715 0 0)
(1.4477814 0 0)
(1.4458443 0 0)
(1.4611877 0 0)
(1.4611515 0 0)
(1.4610436 0 0)
(1.4608654 0 0)
(1.4606177 0 0)
(1.4603008 0 0)
(1.4599144 0 0)
(1.4594576 0 0)
(1.4589293 0 0)
(1.4583277 0 0)
(1.4576507 0 0)
(1.4568959 0 0)
(1.4560604 0 0)
(1.4551411 0 0)
(1.4541345 0 0)
(1.4530368 0 0)
(1.4518443 0 0)
(1.4505528 0 0)
(1.4491581 0 0)
(1.4476559 0 0)
(1.4460191 0 0)
(1.4611877 0 0)
(1.4611509 0 0)
(1.4610416 0 0)
(1.460861 0 0)
(1.4606098 0 0)
(1.4602885 0 0)
(1.4598967 0 0)
(1.4594337 0 0)
(1.4588982 0 0)
(1.4582886 0 0)
(1.4576027 0 0)
(1.456838 0 0)
(1.4559915 0 0)
(1.4550602 0 0)
(1.4540404 0 0)
(1.4529283 0 0)
(1.4517199 0 0)
(1.450411 0 0)
(1.4489974 0 0)
(1.4474746 0 0)
(1.4457907 0 0)
(1.4611877 0 0)
(1.4611504 0 0)
(1.4610394 0 0)
(1.4608561 0 0)
(1.4606011 0 0)
(1.4602749 0 0)
(1.4598771 0 0)
(1.4594072 0 0)
(1.4588637 0 0)
(1.458245 0 0)
(1.4575489 0 0)
(1.4567728 0 0)
(1.4559138 0 0)
(1.4549684 0 0)
(1.453933 0 0)
(1.4528036 0 0)
(1.4515759 0 0)
(1.4502456 0 0)
(1.4488082 0 0)
(1.447259 0 0)
(1.4455253 0 0)
(1.4611877 0 0)
(1.4611498 0 0)
(1.461037 0 0)
(1.4608507 0 0)
(1.4605915 0 0)
(1.4602599 0 0)
(1.4598556 0 0)
(1.459378 0 0)
(1.4588256 0 0)
(1.4581967 0 0)
(1.4574892 0 0)
(1.4567003 0 0)
(1.4558269 0 0)
(1.4548656 0 0)
(1.4538125 0 0)
(1.4526632 0 0)
(1.4514133 0 0)
(1.4500581 0 0)
(1.4485927 0 0)
(1.4470126 0 0)
(1.4452265 0 0)
(1.4611877 0 0)
(1.4611491 0 0)
(1.4610344 0 0)
(1.4608448 0 0)
(1.4605811 0 0)
(1.4602436 0 0)
(1.4598322 0 0)
(1.459346 0 0)
(1.4587838 0 0)
(1.4581437 0 0)
(1.4574235 0 0)
(1.4566204 0 0)
(1.4557312 0 0)
(1.4547522 0 0)
(1.4536792 0 0)
(1.4525079 0 0)
(1.4512333 0 0)
(1.4498504 0 0)
(1.4483541 0 0)
(1.4467392 0 0)
(1.4448994 0 0)
(1.4611877 0 0)
(1.4611484 0 0)
(1.4610315 0 0)
(1.4608383 0 0)
(1.4605696 0 0)
(1.4602258 0 0)
(1.4598066 0 0)
(1.4593113 0 0)
(1.4587384 0 0)
(1.4580861 0 0)
(1.4573521 0 0)
(1.4565334 0 0)
(1.4556269 0 0)
(1.4546285 0 0)
(1.453534 0 0)
(1.4523386 0 0)
(1.4510372 0 0)
(1.4496245 0 0)
(1.4480947 0 0)
(1.4464425 0 0)
(1.4445484 0 0)
(1.4611877 0 0)
(1.4611476 0 0)
(1.4610283 0 0)
(1.4608312 0 0)
(1.4605572 0 0)
(1.4602065 0 0)
(1.4597789 0 0)
(1.4592736 0 0)
(1.4586892 0 0)
(1.4580238 0 0)
(1.4572748 0 0)
(1.4564393 0 0)
(1.455514 0 0)
(1.4544946 0 0)
(1.4533769 0 0)
(1.4521557 0 0)
(1.4508256 0 0)
(1.449381 0 0)
(1.4478157 0 0)
(1.4461239 0 0)
(1.4441759 0 0)
(1.4611877 0 0)
(1.4611468 0 0)
(1.4610249 0 0)
(1.4608236 0 0)
(1.4605437 0 0)
(1.4601856 0 0)
(1.4597489 0 0)
(1.4592329 0 0)
(1.4586361 0 0)
(1.4579563 0 0)
(1.4571912 0 0)
(1.4563377 0 0)
(1.455392 0 0)
(1.4543502 0 0)
(1.4532074 0 0)
(1.4519585 0 0)
(1.4505978 0 0)
(1.4491192 0 0)
(1.4475165 0 0)
(1.4457829 0 0)
(1.4437821 0 0)
(1.4611877 0 0)
(1.4611459 0 0)
(1.4610213 0 0)
(1.4608155 0 0)
(1.4605293 0 0)
(1.4601632 0 0)
(1.4597167 0 0)
(1.4591891 0 0)
(1.4585787 0 0)
(1.4578836 0 0)
(1.4571011 0 0)
(1.456228 0 0)
(1.4552606 0 0)
(1.4541945 0 0)
(1.4530249 0 0)
(1.4517463 0 0)
(1.4503529 0 0)
(1.4488383 0 0)
(1.4471958 0 0)
(1.4454185 0 0)
(1.443366 0 0)
(1.4611877 0 0)
(1.4611448 0 0)
(1.4610173 0 0)
(1.4608063 0 0)
(1.460513 0 0)
(1.4601376 0 0)
(1.4596798 0 0)
(1.4591387 0 0)
(1.4585128 0 0)
(1.4577999 0 0)
(1.4569974 0 0)
(1.4561019 0 0)
(1.4551095 0 0)
(1.4540157 0 0)
(1.4528154 0 0)
(1.4515031 0 0)
(1.4500726 0 0)
(1.4485173 0 0)
(1.4468301 0 0)
(1.4450037 0 0)
(1.4428985 0 0)
(1.4611877 0 0)
(1.4611538 0 0)
(1.4610529 0 0)
(1.4608862 0 0)
(1.4606541 0 0)
(1.4603562 0 0)
(1.4599917 0 0)
(1.4595591 0 0)
(1.4590566 0 0)
(1.4584816 0 0)
(1.4578314 0 0)
(1.4571028 0 0)
(1.4562919 0 0)
(1.4553946 0 0)
(1.4544064 0 0)
(1.4533221 0 0)
(1.4521361 0 0)
(1.4508426 0 0)
(1.4494349 0 0)
(1.4479067 0 0)
(1.4461069 0 0)
(1.4611877 0 0)
(1.4611535 0 0)
(1.4610518 0 0)
(1.4608837 0 0)
(1.4606498 0 0)
(1.4603496 0 0)
(1.4599823 0 0)
(1.4595466 0 0)
(1.4590405 0 0)
(1.4584618 0 0)
(1.4578075 0 0)
(1.4570745 0 0)
(1.4562591 0 0)
(1.4553571 0 0)
(1.454364 0 0)
(1.4532747 0 0)
(1.4520836 0 0)
(1.450785 0 0)
(1.4493722 0 0)
(1.447839 0 0)
(1.4460364 0 0)
(1.4611877 0 0)
(1.4611532 0 0)
(1.4610506 0 0)
(1.4608811 0 0)
(1.4606452 0 0)
(1.4603426 0 0)
(1.4599726 0 0)
(1.4595337 0 0)
(1.4590242 0 0)
(1.4584417 0 0)
(1.4577836 0 0)
(1.4570465 0 0)
(1.456227 0 0)
(1.4553208 0 0)
(1.4543235 0 0)
(1.4532301 0 0)
(1.4520352 0 0)
(1.4507329 0 0)
(1.4493169 0 0)
(1.4477809 0 0)
(1.4459813 0 0)
(1.4611877 0 0)
(1.461153 0 0)
(1.4610496 0 0)
(1.4608789 0 0)
(1.4606414 0 0)
(1.4603369 0 0)
(1.4599646 0 0)
(1.4595233 0 0)
(1.4590111 0 0)
(1.4584259 0 0)
(1.4577651 0 0)
(1.4570253 0 0)
(1.4562032 0 0)
(1.4552948 0 0)
(1.4542955 0 0)
(1.4532005 0 0)
(1.4520046 0 0)
(1.4507019 0 0)
(1.4492865 0 0)
(1.447752 0 0)
(1.4459629 0 0)
(1.4611877 0 0)
(1.4611527 0 0)
(1.4610488 0 0)
(1.4608771 0 0)
(1.4606382 0 0)
(1.4603321 0 0)
(1.4599581 0 0)
(1.4595148 0 0)
(1.4590008 0 0)
(1.4584137 0 0)
(1.457751 0 0)
(1.4570098 0 0)
(1.4561864 0 0)
(1.4552772 0 0)
(1.4542777 0 0)
(1.4531832 0 0)
(1.4519885 0 0)
(1.4506883 0 0)
(1.4492765 0 0)
(1.4477472 0 0)
(1.4459755 0 0)
(1.4611877 0 0)
(1.4611526 0 0)
(1.4610481 0 0)
(1.4608755 0 0)
(1.4606355 0 0)
(1.4603281 0 0)
(1.4599526 0 0)
(1.4595079 0 0)
(1.4589924 0 0)
(1.458404 0 0)
(1.4577402 0 0)
(1.4569981 0 0)
(1.4561745 0 0)
(1.4552654 0 0)
(1.4542668 0 0)
(1.4531742 0 0)
(1.4519826 0 0)
(1.4506867 0 0)
(1.4492808 0 0)
(1.4477594 0 0)
(1.4460112 0 0)
(1.4611877 0 0)
(1.4611524 0 0)
(1.4610474 0 0)
(1.4608741 0 0)
(1.4606331 0 0)
(1.4603245 0 0)
(1.4599479 0 0)
(1.4595019 0 0)
(1.4589852 0 0)
(1.4583958 0 0)
(1.4577312 0 0)
(1.4569886 0 0)
(1.456165 0 0)
(1.4552566 0 0)
(1.4542595 0 0)
(1.4531694 0 0)
(1.4519815 0 0)
(1.4506909 0 0)
(1.4492923 0 0)
(1.4477802 0 0)
(1.4460604 0 0)
(1.4611877 0 0)
(1.4611523 0 0)
(1.4610468 0 0)
(1.4608728 0 0)
(1.460631 0 0)
(1.4603214 0 0)
(1.4599436 0 0)
(1.4594965 0 0)
(1.4589787 0 0)
(1.4583883 0 0)
(1.457723 0 0)
(1.4569801 0 0)
(1.4561566 0 0)
(1.4552489 0 0)
(1.4542534 0 0)
(1.4531658 0 0)
(1.4519819 0 0)
(1.4506966 0 0)
(1.4493053 0 0)
(1.4478029 0 0)
(1.446115 0 0)
(1.4611877 0 0)
(1.4611521 0 0)
(1.4610464 0 0)
(1.4608718 0 0)
(1.4606291 0 0)
(1.4603186 0 0)
(1.4599397 0 0)
(1.4594915 0 0)
(1.4589726 0 0)
(1.4583812 0 0)
(1.4577151 0 0)
(1.4569718 0 0)
(1.4561482 0 0)
(1.4552411 0 0)
(1.4542468 0 0)
(1.4531614 0 0)
(1.4519806 0 0)
(1.4507001 0 0)
(1.4493152 0 0)
(1.4478212 0 0)
(1.4461667 0 0)
(1.4611877 0 0)
(1.461152 0 0)
(1.4610459 0 0)
(1.4608708 0 0)
(1.4606273 0 0)
(1.4603158 0 0)
(1.4599357 0 0)
(1.4594863 0 0)
(1.4589662 0 0)
(1.4583737 0 0)
(1.4577066 0 0)
(1.4569625 0 0)
(1.4561383 0 0)
(1.455231 0 0)
(1.454237 0 0)
(1.4531525 0 0)
(1.4519735 0 0)
(1.4506959 0 0)
(1.4493149 0 0)
(1.4478263 0 0)
(1.4462059 0 0)
(1.4611877 0 0)
(1.4611538 0 0)
(1.4610529 0 0)
(1.4608862 0 0)
(1.4606541 0 0)
(1.4603562 0 0)
(1.4599917 0 0)
(1.4595591 0 0)
(1.4590566 0 0)
(1.4584816 0 0)
(1.4578314 0 0)
(1.4571028 0 0)
(1.4562919 0 0)
(1.4553946 0 0)
(1.4544064 0 0)
(1.4533221 0 0)
(1.4521361 0 0)
(1.4508426 0 0)
(1.4494349 0 0)
(1.4479067 0 0)
(1.4461069 0 0)
(1.4611877 0 0)
(1.4611535 0 0)
(1.4610518 0 0)
(1.4608837 0 0)
(1.4606498 0 0)
(1.4603496 0 0)
(1.4599823 0 0)
(1.4595466 0 0)
(1.4590405 0 0)
(1.4584618 0 0)
(1.4578075 0 0)
(1.4570745 0 0)
(1.4562591 0 0)
(1.4553571 0 0)
(1.454364 0 0)
(1.4532747 0 0)
(1.4520836 0 0)
(1.450785 0 0)
(1.4493722 0 0)
(1.447839 0 0)
(1.4460364 0 0)
(1.4611877 0 0)
(1.4611532 0 0)
(1.4610506 0 0)
(1.4608811 0 0)
(1.4606452 0 0)
(1.4603426 0 0)
(1.4599726 0 0)
(1.4595337 0 0)
(1.4590242 0 0)
(1.4584417 0 0)
(1.4577836 0 0)
(1.4570465 0 0)
(1.456227 0 0)
(1.4553208 0 0)
(1.4543235 0 0)
(1.4532301 0 0)
(1.4520352 0 0)
(1.4507329 0 0)
(1.4493169 0 0)
(1.4477809 0 0)
(1.4459813 0 0)
(1.4611877 0 0)
(1.461153 0 0)
(1.4610496 0 0)
(1.4608789 0 0)
(1.4606414 0 0)
(1.4603369 0 0)
(1.4599646 0 0)
(1.4595233 0 0)
(1.4590111 0 0)
(1.4584259 0 0)
(1.4577651 0 0)
(1.4570253 0 0)
(1.4562032 0 0)
(1.4552948 0 0)
(1.4542955 0 0)
(1.4532005 0 0)
(1.4520046 0 0)
(1.4507019 0 0)
(1.4492865 0 0)
(1.447752 0 0)
(1.4459629 0 0)
(1.4611877 0 0)
(1.4611527 0 0)
(1.4610488 0 0)
(1.4608771 0 0)
(1.4606382 0 0)
(1.4603321 0 0)
(1.4599581 0 0)
(1.4595148 0 0)
(1.4590008 0 0)
(1.4584137 0 0)
(1.457751 0 0)
(1.4570098 0 0)
(1.4561864 0 0)
(1.4552772 0 0)
(1.4542777 0 0)
(1.4531832 0 0)
(1.4519885 0 0)
(1.4506883 0 0)
(1.4492765 0 0)
(1.4477472 0 0)
(1.4459755 0 0)
(1.4611877 0 0)
(1.4611526 0 0)
(1.4610481 0 0)
(1.4608755 0 0)
(1.4606355 0 0)
(1.4603281 0 0)
(1.4599526 0 0)
(1.4595079 0 0)
(1.4589924 0 0)
(1.458404 0 0)
(1.4577402 0 0)
(1.4569981 0 0)
(1.4561745 0 0)
(1.4552654 0 0)
(1.4542668 0 0)
(1.4531742 0 0)
(1.4519826 0 0)
(1.4506867 0 0)
(1.4492808 0 0)
(1.4477594 0 0)
(1.4460112 0 0)
(1.4611877 0 0)
(1.4611524 0 0)
(1.4610474 0 0)
(1.4608741 0 0)
(1.4606331 0 0)
(1.4603245 0 0)
(1.4599479 0 0)
(1.4595019 0 0)
(1.4589852 0 0)
(1.4583958 0 0)
(1.4577312 0 0)
(1.4569886 0 0)
(1.456165 0 0)
(1.4552566 0 0)
(1.4542595 0 0)
(1.4531694 0 0)
(1.4519815 0 0)
(1.4506909 0 0)
(1.4492923 0 0)
(1.4477802 0 0)
(1.4460604 0 0)
(1.4611877 0 0)
(1.4611523 0 0)
(1.4610468 0 0)
(1.4608728 0 0)
(1.460631 0 0)
(1.4603214 0 0)
(1.4599436 0 0)
(1.4594965 0 0)
(1.4589787 0 0)
(1.4583883 0 0)
(1.457723 0 0)
(1.4569801 0 0)
(1.4561566 0 0)
(1.4552489 0 0)
(1.4542534 0 0)
(1.4531658 0 0)
(1.4519819 0 0)
(1.4506966 0 0)
(1.4493053 0 0)
(1.4478029 0 0)
(1.446115 0 0)
(1.4611877 0 0)
(1.4611521 0 0)
(1.4610464 0 0)
(1.4608718 0 0)
(1.4606291 0 0)
(1.4603186 0 0)
(1.4599397 0 0)
(1.4594915 0 0)
(1.4589726 0 0)
(1.4583812 0 0)
(1.4577151 0 0)
(1.4569718 0 0)
(1.4561482 0 0)
(1.4552411 0 0)
(1.4542468 0 0)
(1.4531614 0 0)
(1.4519806 0 0)
(1.4507001 0 0)
(1.4493152 0 0)
(1.4478212 0 0)
(1.4461667 0 0)
(1.4611877 0 0)
(1.461152 0 0)
(1.4610459 0 0)
(1.4608708 0 0)
(1.4606273 0 0)
(1.4603158 0 0)
(1.4599357 0 0)
(1.4594863 0 0)
(1.4589662 0 0)
(1.4583737 0 0)
(1.4577066 0 0)
(1.4569625 0 0)
(1.4561383 0 0)
(1.455231 0 0)
(1.454237 0 0)
(1.4531525 0 0)
(1.4519735 0 0)
(1.4506959 0 0)
(1.4493149 0 0)
(1.4478263 0 0)
(1.4462059 0 0)
(1.4438328 0 0)
(1.4411986 0 0)
(1.4383354 0 0)
(1.4352276 0 0)
(1.4318566 0 0)
(1.428202 0 0)
(1.4242384 0 0)
(1.4199311 0 0)
(1.4152358 0 0)
(1.4101063 0 0)
(1.4045002 0 0)
(1.3983731 0 0)
(1.3916777 0 0)
(1.3843676 0 0)
(1.3763954 0 0)
(1.3677067 0 0)
(1.3582436 0 0)
(1.3479494 0 0)
(1.3367705 0 0)
(1.3246508 0 0)
(1.3115289 0 0)
(1.297341 0 0)
(1.2820255 0 0)
(1.2655148 0 0)
(1.2477321 0 0)
(1.2285944 0 0)
(1.2080147 0 0)
(1.1859059 0 0)
(1.1621684 0 0)
(1.1367062 0 0)
(1.1094065 0 0)
(1.0801241 0 0)
(1.0487231 0 0)
(1.0150897 0 0)
(0.97907351 0 0)
(0.94046262 0 0)
(0.89908206 0 0)
(0.85479546 0 0)
(0.80738657 0 0)
(0.7565311 0 0)
(0.70198955 0 0)
(0.64359886 0 0)
(0.58109724 0 0)
(0.51417582 0 0)
(0.44251739 0 0)
(0.36579547 0 0)
(0.28363275 0 0)
(0.19555271 0 0)
(0.1010483 0 0)
(0 0 0)
(1.4437642 0 0)
(1.4411344 0 0)
(1.4382759 0 0)
(1.4351728 0 0)
(1.431807 0 0)
(1.4281587 0 0)
(1.4242033 0 0)
(1.4199066 0 0)
(1.415224 0 0)
(1.4101094 0 0)
(1.4045192 0 0)
(1.398408 0 0)
(1.391728 0 0)
(1.3844332 0 0)
(1.376476 0 0)
(1.3678021 0 0)
(1.3583533 0 0)
(1.3480725 0 0)
(1.336906 0 0)
(1.3247977 0 0)
(1.3116866 0 0)
(1.297509 0 0)
(1.2822028 0 0)
(1.2657007 0 0)
(1.2479256 0 0)
(1.2287952 0 0)
(1.208223 0 0)
(1.1861203 0 0)
(1.1623877 0 0)
(1.1369288 0 0)
(1.1096312 0 0)
(1.0803501 0 0)
(1.0489489 0 0)
(1.0153136 0 0)
(0.97929433 0 0)
(0.94067943 0 0)
(0.89929341 0 0)
(0.85499979 0 0)
(0.80758243 0 0)
(0.75671622 0 0)
(0.70216125 0 0)
(0.64375579 0 0)
(0.58123863 0 0)
(0.51430121 0 0)
(0.44262501 0 0)
(0.3658834 0 0)
(0.2836991 0 0)
(0.19559653 0 0)
(0.10106989 0 0)
(0 0 0)
(1.4437231 0 0)
(1.4411126 0 0)
(1.4382734 0 0)
(1.4351894 0 0)
(1.431843 0 0)
(1.428215 0 0)
(1.4242817 0 0)
(1.4200091 0 0)
(1.4153528 0 0)
(1.4102666 0 0)
(1.4047065 0 0)
(1.3986254 0 0)
(1.3919752 0 0)
(1.3847099 0 0)
(1.3767822 0 0)
(1.3681377 0 0)
(1.3587177 0 0)
(1.3484645 0 0)
(1.3373244 0 0)
(1.3252417 0 0)
(1.3121549 0 0)
(1.298 0 0)
(1.2827151 0 0)
(1.2662334 0 0)
(1.2484771 0 0)
(1.2293637 0 0)
(1.2088083 0 0)
(1.1867205 0 0)
(1.1629997 0 0)
(1.1375498 0 0)
(1.1102593 0 0)
(1.0809828 0 0)
(1.0495827 0 0)
(1.015945 0 0)
(0.97992095 0 0)
(0.94129812 0 0)
(0.89989989 0 0)
(0.85559033 0 0)
(0.80815356 0 0)
(0.7572627 0 0)
(0.70267721 0 0)
(0.64423713 0 0)
(0.58168103 0 0)
(0.5146993 0 0)
(0.44297235 0 0)
(0.3661738 0 0)
(0.28392575 0 0)
(0.19575259 0 0)
(0.1011499 0 0)
(0 0 0)
(1.4437319 0 0)
(1.4411567 0 0)
(1.4383523 0 0)
(1.4353028 0 0)
(1.431991 0 0)
(1.4283984 0 0)
(1.4245021 0 0)
(1.4202683 0 0)
(1.4156531 0 0)
(1.4106105 0 0)
(1.4050953 0 0)
(1.3990595 0 0)
(1.3924545 0 0)
(1.3852342 0 0)
(1.3773514 0 0)
(1.3687518 0 0)
(1.3593761 0 0)
(1.3491656 0 0)
(1.3380666 0 0)
(1.3260239 0 0)
(1.3129755 0 0)
(1.2988567 0 0)
(1.2836056 0 0)
(1.2671559 0 0)
(1.2494293 0 0)
(1.230343 0 0)
(1.2098132 0 0)
(1.1877479 0 0)
(1.164046 0 0)
(1.1386107 0 0)
(1.1113309 0 0)
(1.082061 0 0)
(1.0506624 0 0)
(1.0170212 0 0)
(0.98098892 0 0)
(0.94235228 0 0)
(0.9009339 0 0)
(0.8565981 0 0)
(0.80912856 0 0)
(0.75819667 0 0)
(0.7035618 0 0)
(0.64506523 0 0)
(0.58244402 0 0)
(0.51538698 0 0)
(0.44357372 0 0)
(0.36667828 0 0)
(0.28432145 0 0)
(0.1960266 0 0)
(0.10129114 0 0)
(0 0 0)
(1.4437844 0 0)
(1.4412599 0 0)
(1.4385058 0 0)
(1.435506 0 0)
(1.4322439 0 0)
(1.4287017 0 0)
(1.4248572 0 0)
(1.4206774 0 0)
(1.4161182 0 0)
(1.4111339 0 0)
(1.4056783 0 0)
(1.3997026 0 0)
(1.3931578 0 0)
(1.3859977 0 0)
(1.3781751 0 0)
(1.3696359 0 0)
(1.3603197 0 0)
(1.3501669 0 0)
(1.3391238 0 0)
(1.3271354 0 0)
(1.3141392 0 0)
(1.3000694 0 0)
(1.2848645 0 0)
(1.2684588 0 0)
(1.250773 0 0)
(1.2317234 0 0)
(1.2112279 0 0)
(1.1891932 0 0)
(1.1655166 0 0)
(1.1401012 0 0)
(1.1128365 0 0)
(1.0835755 0 0)
(1.0521785 0 0)
(1.0185325 0 0)
(0.98248917 0 0)
(0.94383319 0 0)
(0.90238652 0 0)
(0.8580143 0 0)
(0.81049948 0 0)
(0.75951086 0 0)
(0.70480782 0 0)
(0.64623315 0 0)
(0.58352156 0 0)
(0.51635879 0 0)
(0.44442421 0 0)
(0.36739274 0 0)
(0.28488301 0 0)
(0.19641646 0 0)
(0.1014926 0 0)
(0 0 0)
(1.4438721 0 0)
(1.4414133 0 0)
(1.4387242 0 0)
(1.4357888 0 0)
(1.4325911 0 0)
(1.4291143 0 0)
(1.4253368 0 0)
(1.4212256 0 0)
(1.416737 0 0)
(1.4118253 0 0)
(1.4064436 0 0)
(1.4005425 0 0)
(1.3940728 0 0)
(1.3869881 0 0)
(1.3792411 0 0)
(1.3707775 0 0)
(1.3615359 0 0)
(1.3514558 0 0)
(1.340483 0 0)
(1.3285631 0 0)
(1.3156328 0 0)
(1.3016254 0 0)
(1.2864792 0 0)
(1.2701288 0 0)
(1.2524946 0 0)
(1.233492 0 0)
(1.2130393 0 0)
(1.1910426 0 0)
(1.1673983 0 0)
(1.1420086 0 0)
(1.1147629 0 0)
(1.0855129 0 0)
(1.0541184 0 0)
(1.0204667 0 0)
(0.98440912 0 0)
(0.94572846 0 0)
(0.9042461 0 0)
(0.85982787 0 0)
(0.81225529 0 0)
(0.76119454 0 0)
(0.70640555 0 0)
(0.64773206 0 0)
(0.58490513 0 0)
(0.51760712 0 0)
(0.4455173 0 0)
(0.36831176 0 0)
(0.28560601 0 0)
(0.19691902 0 0)
(0.10175263 0 0)
(0 0 0)
(1.4439847 0 0)
(1.441606 0 0)
(1.4389962 0 0)
(1.4361394 0 0)
(1.4330205 0 0)
(1.4296238 0 0)
(1.4259281 0 0)
(1.4218992 0 0)
(1.4174943 0 0)
(1.4126685 0 0)
(1.4073751 0 0)
(1.4015633 0 0)
(1.3951833 0 0)
(1.3881888 0 0)
(1.3805326 0 0)
(1.3721597 0 0)
(1.3630077 0 0)
(1.3530151 0 0)
(1.3421273 0 0)
(1.3302901 0 0)
(1.3174394 0 0)
(1.3035074 0 0)
(1.2884322 0 0)
(1.2721489 0 0)
(1.254577 0 0)
(1.2356313 0 0)
(1.2152302 0 0)
(1.1932791 0 0)
(1.1696733 0 0)
(1.1443153 0 0)
(1.1170932 0 0)
(1.0878567 0 0)
(1.056465 0 0)
(1.0228069 0 0)
(0.98673283 0 0)
(0.94802254 0 0)
(0.90649711 0 0)
(0.86202368 0 0)
(0.81438194 0 0)
(0.76323449 0 0)
(0.70834227 0 0)
(0.64954983 0 0)
(0.58658389 0 0)
(0.51912217 0 0)
(0.44684428 0 0)
(0.36942791 0 0)
(0.28648481 0 0)
(0.19753048 0 0)
(0.10206917 0 0)
(0 0 0)
(1.444113 0 0)
(1.4418278 0 0)
(1.4393111 0 0)
(1.4365467 0 0)
(1.4335207 0 0)
(1.430218 0 0)
(1.4266167 0 0)
(1.4226819 0 0)
(1.4183723 0 0)
(1.4136455 0 0)
(1.4084545 0 0)
(1.4027465 0 0)
(1.39647 0 0)
(1.3895797 0 0)
(1.3820291 0 0)
(1.373762 0 0)
(1.3647147 0 0)
(1.3548246 0 0)
(1.3440362 0 0)
(1.3322955 0 0)
(1.3195383 0 0)
(1.3056949 0 0)
(1.2907029 0 0)
(1.2744979 0 0)
(1.2569991 0 0)
(1.2381203 0 0)
(1.2177794 0 0)
(1.1958813 0 0)
(1.172321 0 0)
(1.1470004 0 0)
(1.1198063 0 0)
(1.0905859 0 0)
(1.0591983 0 0)
(1.0255333 0 0)
(0.98944051 0 0)
(0.95069618 0 0)
(0.90912114 0 0)
(0.86458376 0 0)
(0.8168617 0 0)
(0.76561394 0 0)
(0.71060238 0 0)
(0.65167208 0 0)
(0.58854442 0 0)
(0.52089187 0 0)
(0.44839466 0 0)
(0.37073249 0 0)
(0.28751245 0 0)
(0.19824581 0 0)
(0.10243961 0 0)
(0 0 0)
(1.4442471 0 0)
(1.4420687 0 0)
(1.4396584 0 0)
(1.437 0 0)
(1.4340796 0 0)
(1.4308828 0 0)
(1.4273871 0 0)
(1.4235579 0 0)
(1.4193548 0 0)
(1.414738 0 0)
(1.4096605 0 0)
(1.4040685 0 0)
(1.3979098 0 0)
(1.391139 0 0)
(1.3837088 0 0)
(1.3755622 0 0)
(1.3666346 0 0)
(1.3568614 0 0)
(1.3461859 0 0)
(1.3345553 0 0)
(1.3219054 0 0)
(1.3081638 0 0)
(1.2932671 0 0)
(1.2771517 0 0)
(1.2597367 0 0)
(1.2409346 0 0)
(1.2206628 0 0)
(1.198825 0 0)
(1.1753163 0 0)
(1.150039 0 0)
(1.1228782 0 0)
(1.0936771 0 0)
(1.0622944 0 0)
(1.0286224 0 0)
(0.99250935 0 0)
(0.95372719 0 0)
(0.91209624 0 0)
(0.8674868 0 0)
(0.81967443 0 0)
(0.76831388 0 0)
(0.7131677 0 0)
(0.65408155 0 0)
(0.59077096 0 0)
(0.52290207 0 0)
(0.45015608 0 0)
(0.37221496 0 0)
(0.2886807 0 0)
(0.19905948 0 0)
(0.10286109 0 0)
(0 0 0)
(1.4443782 0 0)
(1.4423217 0 0)
(1.4400323 0 0)
(1.4374931 0 0)
(1.4346914 0 0)
(1.4316113 0 0)
(1.4282301 0 0)
(1.4245153 0 0)
(1.4204293 0 0)
(1.4159321 0 0)
(1.4109787 0 0)
(1.4055155 0 0)
(1.3994893 0 0)
(1.392853 0 0)
(1.3855583 0 0)
(1.3775466 0 0)
(1.3687514 0 0)
(1.3591084 0 0)
(1.3485606 0 0)
(1.3370548 0 0)
(1.3245265 0 0)
(1.3109001 0 0)
(1.2961099 0 0)
(1.2800948 0 0)
(1.2627743 0 0)
(1.244059 0 0)
(1.2238648 0 0)
(1.2020945 0 0)
(1.1786435 0 0)
(1.1534152 0 0)
(1.1262926 0 0)
(1.097114 0 0)
(1.0657376 0 0)
(1.0320581 0 0)
(0.99592309 0 0)
(0.95709954 0 0)
(0.91540684 0 0)
(0.87071732 0 0)
(0.82280465 0 0)
(0.77131929 0 0)
(0.71602409 0 0)
(0.65676472 0 0)
(0.59325057 0 0)
(0.52514091 0 0)
(0.45211806 0 0)
(0.37386648 0 0)
(0.28998232 0 0)
(0.19996628 0 0)
(0.10333083 0 0)
(0 0 0)
(1.4440375 0 0)
(1.4420882 0 0)
(1.4399046 0 0)
(1.4374701 0 0)
(1.4347729 0 0)
(1.431795 0 0)
(1.4285119 0 0)
(1.4248955 0 0)
(1.4209106 0 0)
(1.4165176 0 0)
(1.411672 0 0)
(1.4063209 0 0)
(1.4004109 0 0)
(1.3938937 0 0)
(1.3867199 0 0)
(1.37883 0 0)
(1.3701565 0 0)
(1.3606358 0 0)
(1.3502104 0 0)
(1.3388264 0 0)
(1.3264171 0 0)
(1.3129042 0 0)
(1.2982233 0 0)
(1.2823148 0 0)
(1.2650967 0 0)
(1.2464784 0 0)
(1.2263748 0 0)
(1.2046872 0 0)
(1.1813106 0 0)
(1.1561501 0 0)
(1.129087 0 0)
(1.0999555 0 0)
(1.0686116 0 0)
(1.0349522 0 0)
(0.99882457 0 0)
(0.95999217 0 0)
(0.91827121 0 0)
(0.87353556 0 0)
(0.82555786 0 0)
(0.77398626 0 0)
(0.71858053 0 0)
(0.65918654 0 0)
(0.59550786 0 0)
(0.52719639 0 0)
(0.4539345 0 0)
(0.37540936 0 0)
(0.29121101 0 0)
(0.20083392 0 0)
(0.10379254 0 0)
(0 0 0)
(1.4438328 0 0)
(1.4411986 0 0)
(1.4383354 0 0)
(1.4352276 0 0)
(1.4318566 0 0)
(1.428202 0 0)
(1.4242384 0 0)
(1.4199311 0 0)
(1.4152358 0 0)
(1.4101063 0 0)
(1.4045002 0 0)
(1.3983731 0 0)
(1.3916777 0 0)
(1.3843676 0 0)
(1.3763954 0 0)
(1.3677067 0 0)
(1.3582436 0 0)
(1.3479494 0 0)
(1.3367705 0 0)
(1.3246508 0 0)
(1.3115289 0 0)
(1.297341 0 0)
(1.2820255 0 0)
(1.2655148 0 0)
(1.2477321 0 0)
(1.2285944 0 0)
(1.2080147 0 0)
(1.1859059 0 0)
(1.1621684 0 0)
(1.1367062 0 0)
(1.1094065 0 0)
(1.0801241 0 0)
(1.0487231 0 0)
(1.0150897 0 0)
(0.97907351 0 0)
(0.94046262 0 0)
(0.89908206 0 0)
(0.85479546 0 0)
(0.80738657 0 0)
(0.7565311 0 0)
(0.70198955 0 0)
(0.64359886 0 0)
(0.58109724 0 0)
(0.51417582 0 0)
(0.44251739 0 0)
(0.36579547 0 0)
(0.28363275 0 0)
(0.19555271 0 0)
(0.1010483 0 0)
(0 0 0)
(1.4437642 0 0)
(1.4411344 0 0)
(1.4382759 0 0)
(1.4351728 0 0)
(1.431807 0 0)
(1.4281587 0 0)
(1.4242033 0 0)
(1.4199066 0 0)
(1.415224 0 0)
(1.4101094 0 0)
(1.4045192 0 0)
(1.398408 0 0)
(1.391728 0 0)
(1.3844332 0 0)
(1.376476 0 0)
(1.3678021 0 0)
(1.3583533 0 0)
(1.3480725 0 0)
(1.336906 0 0)
(1.3247977 0 0)
(1.3116866 0 0)
(1.297509 0 0)
(1.2822028 0 0)
(1.2657007 0 0)
(1.2479256 0 0)
(1.2287952 0 0)
(1.208223 0 0)
(1.1861203 0 0)
(1.1623877 0 0)
(1.1369288 0 0)
(1.1096312 0 0)
(1.0803501 0 0)
(1.0489489 0 0)
(1.0153136 0 0)
(0.97929433 0 0)
(0.94067943 0 0)
(0.89929341 0 0)
(0.85499979 0 0)
(0.80758243 0 0)
(0.75671622 0 0)
(0.70216125 0 0)
(0.64375579 0 0)
(0.58123863 0 0)
(0.51430121 0 0)
(0.44262501 0 0)
(0.3658834 0 0)
(0.2836991 0 0)
(0.19559653 0 0)
(0.10106989 0 0)
(0 0 0)
(1.4437231 0 0)
(1.4411126 0 0)
(1.4382734 0 0)
(1.4351894 0 0)
(1.431843 0 0)
(1.428215 0 0)
(1.4242817 0 0)
(1.4200091 0 0)
(1.4153528 0 0)
(1.4102666 0 0)
(1.4047065 0 0)
(1.3986254 0 0)
(1.3919752 0 0)
(1.3847099 0 0)
(1.3767822 0 0)
(1.3681377 0 0)
(1.3587177 0 0)
(1.3484645 0 0)
(1.3373244 0 0)
(1.3252417 0 0)
(1.3121549 0 0)
(1.298 0 0)
(1.2827151 0 0)
(1.2662334 0 0)
(1.2484771 0 0)
(1.2293637 0 0)
(1.2088083 0 0)
(1.1867205 0 0)
(1.1629997 0 0)
(1.1375498 0 0)
(1.1102593 0 0)
(1.0809828 0 0)
(1.0495827 0 0)
(1.015945 0 0)
(0.97992095 0 0)
(0.94129812 0 0)
(0.89989989 0 0)
(0.85559033 0 0)
(0.80815356 0 0)
(0.7572627 0 0)
(0.70267721 0 0)
(0.64423713 0 0)
(0.58168103 0 0)
(0.5146993 0 0)
(0.44297235 0 0)
(0.3661738 0 0)
(0.28392575 0 0)
(0.19575259 0 0)
(0.1011499 0 0)
(0 0 0)
(1.4437319 0 0)
(1.4411567 0 0)
(1.4383523 0 0)
(1.4353028 0 0)
(1.431991 0 0)
(1.4283984 0 0)
(1.4245021 0 0)
(1.4202683 0 0)
(1.4156531 0 0)
(1.4106105 0 0)
(1.4050953 0 0)
(1.3990595 0 0)
(1.3924545 0 0)
(1.3852342 0 0)
(1.3773514 0 0)
(1.3687518 0 0)
(1.3593761 0 0)
(1.3491656 0 0)
(1.3380666 0 0)
(1.3260239 0 0)
(1.3129755 0 0)
(1.2988567 0 0)
(1.2836056 0 0)
(1.2671559 0 0)
(1.2494293 0 0)
(1.230343 0 0)
(1.2098132 0 0)
(1.1877479 0 0)
(1.164046 0 0)
(1.1386107 0 0)
(1.1113309 0 0)
(1.082061 0 0)
(1.0506624 0 0)
(1.0170212 0 0)
(0.98098892 0 0)
(0.94235228 0 0)
(0.9009339 0 0)
(0.8565981 0 0)
(0.80912856 0 0)
(0.75819667 0 0)
(0.7035618 0 0)
(0.64506523 0 0)
(0.58244402 0 0)
(0.51538698 0 0)
(0.44357372 0 0)
(0.36667828 0 0)
(0.28432145 0 0)
(0.1960266 0 0)
(0.10129114 0 0)
(0 0 0)
(1.4437844 0 0)
(1.4412599 0 0)
(1.4385058 0 0)
(1.435506 0 0)
(1.4322439 0 0)
(1.4287017 0 0)
(1.4248572 0 0)
(1.4206774 0 0)
(1.4161182 0 0)
(1.4111339 0 0)
(1.4056783 0 0)
(1.3997026 0 0)
(1.3931578 0 0)
(1.3859977 0 0)
(1.3781751 0 0)
(1.3696359 0 0)
(1.3603197 0 0)
(1.3501669 0 0)
(1.3391238 0 0)
(1.3271354 0 0)
(1.3141392 0 0)
(1.3000694 0 0)
(1.2848645 0 0)
(1.2684588 0 0)
(1.250773 0 0)
(1.2317234 0 0)
(1.2112279 0 0)
(1.1891932 0 0)
(1.1655166 0 0)
(1.1401012 0 0)
(1.1128365 0 0)
(1.0835755 0 0)
(1.0521785 0 0)
(1.0185325 0 0)
(0.98248917 0 0)
(0.94383319 0 0)
(0.90238652 0 0)
(0.8580143 0 0)
(0.81049948 0 0)
(0.75951086 0 0)
(0.70480782 0 0)
(0.64623315 0 0)
(0.58352156 0 0)
(0.51635879 0 0)
(0.44442421 0 0)
(0.36739274 0 0)
(0.28488301 0 0)
(0.19641646 0 0)
(0.1014926 0 0)
(0 0 0)
(1.4438721 0 0)
(1.4414133 0 0)
(1.4387242 0 0)
(1.4357888 0 0)
(1.4325911 0 0)
(1.4291143 0 0)
(1.4253368 0 0)
(1.4212256 0 0)
(1.416737 0 0)
(1.4118253 0 0)
(1.4064436 0 0)
(1.4005425 0 0)
(1.3940728 0 0)
(1.3869881 0 0)
(1.3792411 0 0)
(1.3707775 0 0)
(1.3615359 0 0)
(1.3514558 0 0)
(1.340483 0 0)
(1.3285631 0 0)
(1.3156328 0 0)
(1.3016254 0 0)
(1.2864792 0 0)
(1.2701288 0 0)
(1.2524946 0 0)
(1.233492 0 0)
(1.2130393 0 0)
(1.1910426 0 0)
(1.1673983 0 0)
(1.1420086 0 0)
(1.1147629 0 0)
(1.0855129 0 0)
(1.0541184 0 0)
(1.0204667 0 0)
(0.98440912 0 0)
(0.94572846 0 0)
(0.9042461 0 0)
(0.85982787 0 0)
(0.81225529 0 0)
(0.76119454 0 0)
(0.70640555 0 0)
(0.64773206 0 0)
(0.58490513 0 0)
(0.51760712 0 0)
(0.4455173 0 0)
(0.36831176 0 0)
(0.28560601 0 0)
(0.19691902 0 0)
(0.10175263 0 0)
(0 0 0)
(1.4439847 0 0)
(1.441606 0 0)
(1.4389962 0 0)
(1.4361394 0 0)
(1.4330205 0 0)
(1.4296238 0 0)
(1.4259281 0 0)
(1.4218992 0 0)
(1.4174943 0 0)
(1.4126685 0 0)
(1.4073751 0 0)
(1.4015633 0 0)
(1.3951833 0 0)
(1.3881888 0 0)
(1.3805326 0 0)
(1.3721597 0 0)
(1.3630077 0 0)
(1.3530151 0 0)
(1.3421273 0 0)
(1.3302901 0 0)
(1.3174394 0 0)
(1.3035074 0 0)
(1.2884322 0 0)
(1.2721489 0 0)
(1.254577 0 0)
(1.2356313 0 0)
(1.2152302 0 0)
(1.1932791 0 0)
(1.1696733 0 0)
(1.1443153 0 0)
(1.1170932 0 0)
(1.0878567 0 0)
(1.056465 0 0)
(1.0228069 0 0)
(0.98673283 0 0)
(0.94802254 0 0)
(0.90649711 0 0)
(0.86202368 0 0)
(0.81438194 0 0)
(0.76323449 0 0)
(0.70834227 0 0)
(0.64954983 0 0)
(0.58658389 0 0)
(0.51912217 0 0)
(0.44684428 0 0)
(0.36942791 0 0)
(0.28648481 0 0)
(0.19753048 0 0)
(0.10206917 0 0)
(0 0 0)
(1.444113 0 0)
(1.4418278 0 0)
(1.4393111 0 0)
(1.4365467 0 0)
(1.4335207 0 0)
(1.430218 0 0)
(1.4266167 0 0)
(1.4226819 0 0)
(1.4183723 0 0)
(1.4136455 0 0)
(1.4084545 0 0)
(1.4027465 0 0)
(1.39647 0 0)
(1.3895797 0 0)
(1.3820291 0 0)
(1.373762 0 0)
(1.3647147 0 0)
(1.3548246 0 0)
(1.3440362 0 0)
(1.3322955 0 0)
(1.3195383 0 0)
(1.3056949 0 0)
(1.2907029 0 0)
(1.2744979 0 0)
(1.2569991 0 0)
(1.2381203 0 0)
(1.2177794 0 0)
(1.1958813 0 0)
(1.172321 0 0)
(1.1470004 0 0)
(1.1198063 0 0)
(1.0905859 0 0)
(1.0591983 0 0)
(1.0255333 0 0)
(0.98944051 0 0)
(0.95069618 0 0)
(0.90912114 0 0)
(0.86458376 0 0)
(0.8168617 0 0)
(0.76561394 0 0)
(0.71060238 0 0)