/*--------------------------------*- C++ -*----------------------------------*\
| =========                 |                                                 |
| \\      /  F ield         | OpenFOAM: The Open Source CFD Toolbox           |
|  \\    /   O peration     | Version:  v2012                                 |
|   \\  /    A nd           | Website:  www.openfoam.com                      |
|    \\/     M anipulation  |                                                 |
\*---------------------------------------------------------------------------*/
FoamFile
{
    version     2.0;
    format      ascii;
    class       volVectorField;
    location    "19.12352607545994";
    object      U;
}
// * * * * * * * * * * * * * * * * * * * * * * * * * * * * * * * * * * * * * //

dimensions      [0 1 -1 0 0 0 0];


internalField   nonuniform List<vector> 
9200
(
(2.5727201 -0.0025909253 6.573299e-22)
(2.572254 -0.0089175427 -7.1242085e-22)
(2.5804529 -0.0028476053 -5.8323708e-22)
(2.571767 -0.013926986 2.5205963e-23)
(2.5801488 -0.010044011 1.1711525e-23)
(2.5849073 -0.00296877 9.9430291e-22)
(2.5708525 -0.019413195 -7.7472465e-22)
(2.5797677 -0.015708586 5.2983993e-23)
(2.5847294 -0.010559273 6.0089604e-22)
(2.5904895 -0.0030633866 -8.623739e-23)
(2.5697237 -0.024204955 -4.7031751e-22)
(2.5790961 -0.022001445 -6.098804e-22)
(2.5844861 -0.016532575 9.4685692e-22)
(2.5904703 -0.010998704 -3.7349378e-23)
(2.5957744 -0.0031053988 -1.2992212e-21)
(2.5682714 -0.029031944 -9.8814006e-22)
(2.5781395 -0.02761571 -1.1178717e-21)
(2.5840427 -0.023216957 -1.5967914e-22)
(2.5904104 -0.017234818 8.700087e-22)
(2.5959211 -0.011231281 3.9213514e-22)
(2.6010186 -0.003099018 4.8302496e-22)
(2.5665139 -0.033419897 -1.0233178e-21)
(2.5768645 -0.033396045 4.0027926e-22)
(2.5833639 -0.029258317 8.3162837e-22)
(2.5902722 -0.024264672 -1.0951523e-21)
(2.5960691 -0.017605604 -1.1365576e-21)
(2.6013354 -0.01129424 0)
(2.6060531 -0.0030480994 0)
(2.5643996 -0.037555624 -7.8970006e-22)
(2.5751676 -0.038883093 3.7124503e-23)
(2.5824304 -0.035557805 1.2903252e-21)
(2.5899657 -0.030683684 -1.0402507e-21)
(2.5962688 -0.024833911 -2.4932892e-22)
(2.6017053 -0.017703612 -6.1548532e-22)
(2.6065404 -0.011208698 0)
(2.6108518 -0.0029584469 -4.1450773e-22)
(2.5619087 -0.041231372 -5.2475986e-22)
(2.5729792 -0.044322883 -1.0384055e-21)
(2.5811375 -0.04168724 1.0145769e-21)
(2.5895063 -0.037442184 3.1175939e-22)
(2.5963881 -0.031468878 1.4139794e-21)
(2.6022552 -0.025008149 1.1655403e-21)
(2.607136 -0.017567088 0)
(2.6115127 -0.011000493 -4.7668951e-22)
(2.6153696 -0.0028345663 1.4892203e-23)
(2.5589999 -0.044404112 -4.2835575e-22)
(2.5701749 -0.049568068 9.7587011e-22)
(2.5794198 -0.047944077 4.8213074e-22)
(2.588794 -0.044137121 -4.7405831e-23)
(2.5964834 -0.038482718 7.7858341e-22)
(2.6028062 -0.031718867 1.1040751e-21)
(2.6080278 -0.024848235 -1.1226938e-21)
(2.6123344 -0.0172443 7.6745141e-23)
(2.6162122 -0.01068544 3.1404437e-22)
(2.6195797 -0.0026786205 1.4461486e-22)
(2.5556433 -0.046908983 -3.1126101e-22)
(2.5666224 -0.054635346 1.1157101e-22)
(2.5771561 -0.054250336 7.972091e-22)
(2.5877974 -0.051112326 -2.4854574e-22)
(2.5964808 -0.045478162 -1.2259284e-21)
(2.603454 -0.038799727 -4.1538906e-22)
(2.6089782 -0.031526036 -9.4414645e-23)
(2.613554 -0.024436061 -5.3612548e-22)
(2.6172651 -0.016767477 -2.6037403e-22)
(2.6206185 -0.010268111 3.717348e-22)
(2.6234552 -0.0024907562 6.2583341e-23)
(2.5517845 -0.04863522 6.1943554e-22)
(2.5621629 -0.05944308 -6.9954063e-22)
(2.57421 -0.060708581 9.3932036e-23)
(2.5864268 -0.058357769 -2.5840323e-22)
(2.5964114 -0.052816838 2.1592265e-21)
(2.6041494 -0.045830953 6.3795435e-22)
(2.6101067 -0.038527697 1.5364806e-22)
(2.6148554 -0.031024612 9.1745492e-22)
(2.6188083 -0.023832338 1.0316119e-22)
(2.6219183 -0.016148333 -2.9447147e-22)
(2.6247113 -0.0097426884 -5.1870421e-23)
(2.6269703 -0.0022704337 -1.7329155e-22)
(2.5474278 -0.049342037 -3.8289794e-22)
(2.5566092 -0.063908238 1.0328575e-21)
(2.5704018 -0.067338643 -4.2730982e-22)
(2.5845839 -0.066063648 -3.8976488e-22)
(2.5962612 -0.060526168 7.0336089e-22)
(2.6049949 -0.053147832 1.658243e-22)
(2.6113698 -0.045384212 -5.0149075e-22)
(2.6163567 -0.037881628 -2.0571091e-22)
(2.6204248 -0.030326193 3.2678208e-22)
(2.6238032 -0.02306474 3.6269414e-22)
(2.6262864 -0.015378493 -2.5904837e-22)
(2.6284683 -0.0090960055 2.4107423e-22)
(2.6301005 -0.0020183356 -7.1438823e-23)
(2.5425844 -0.048929284 1.2906323e-21)
(2.5497842 -0.067920986 0)
(2.5655256 -0.07417624 -6.1871492e-23)
(2.5821277 -0.074363498 1.4470745e-21)
(2.5960303 -0.068852838 2.5993987e-22)
(2.6060699 -0.060761168 -2.4428168e-21)
(2.6129228 -0.052356103 -1.405147e-22)
(2.6179835 -0.044475364 -9.7145645e-23)
(2.6222049 -0.037060764 -6.6757732e-22)
(2.6257372 -0.029492913 -3.8242387e-22)
(2.6285593 -0.022124215 1.1519838e-22)
(2.6303586 -0.014435138 7.1275577e-22)
(2.631862 -0.0083127269 -9.4691167e-22)
(2.6328196 -0.0017376736 1.1408684e-21)
(2.5371953 -0.04709918 -6.658303e-22)
(2.5414693 -0.071316851 -1.1244388e-21)
(2.5593307 -0.081238702 2.4523217e-22)
(2.5788775 -0.083436935 -7.1253608e-22)
(2.5956913 -0.078017581 -7.2141766e-22)
(2.607508 -0.068909069 -2.0113996e-21)
(2.6149213 -0.059373222 -1.0017175e-21)
(2.6198986 -0.050956267 -2.2946337e-21)
(2.6239988 -0.043449741 3.8000122e-23)
(2.6277614 -0.036194205 7.4780959e-22)
(2.6308638 -0.028523774 -5.3696794e-23)
(2.6330899 -0.020971782 -6.9153113e-23)
(2.6341139 -0.013288828 4.0987729e-22)
(2.6348609 -0.0073822216 -4.0480043e-22)
(2.6350939 -0.0014317052 -6.3088954e-25)
(2.5313016 -0.043710262 -1.7669832e-21)
(2.5314574 -0.07392969 2.8294206e-21)
(2.551545 -0.088502651 0)
(2.5746001 -0.09345615 0)
(2.5951844 -0.08831792 -2.9373974e-21)
(2.6094489 -0.077827327 -2.7574306e-21)
(2.617624 -0.066578311 -4.6875228e-22)
(2.6222771 -0.057122858 -5.3045256e-22)
(2.6259179 -0.049526339 5.9198843e-22)
(2.6296132 -0.042558549 1.9639338e-22)
(2.6331843 -0.035306643 5.6303817e-22)
(2.635867 -0.027360089 -1.0783856e-21)
(2.6373882 -0.019551263 2.0737485e-23)
(2.6375194 -0.011911851 -6.785177e-22)
(2.6374284 -0.0063007495 1.7980057e-21)
(2.6369099 -0.001099366 -9.1908054e-22)
(2.5249594 -0.038547524 4.0800737e-21)
(2.519575 -0.075552937 1.3358778e-21)
(2.5418819 -0.095937418 -3.6058471e-21)
(2.5690174 -0.10459619 -1.0823205e-22)
(2.5944014 -0.10008264 -1.7512363e-21)
(2.6120348 -0.087857335 -3.6497082e-22)
(2.6213424 -0.074112987 6.5825312e-22)
(2.6254377 -0.062945021 1.7950895e-21)
(2.628076 -0.054945243 -1.2312768e-21)
(2.6312988 -0.048527072 -3.529226e-22)
(2.6351242 -0.041885739 5.3307281e-22)
(2.638624 -0.034317864 3.746968e-23)
(2.6407738 -0.025904078 -8.0180238e-22)
(2.6414213 -0.017803912 -4.9820163e-22)
(2.6405326 -0.010285064 -1.5815215e-21)
(2.6395252 -0.0050696047 5.9832821e-22)
(2.6382855 -0.00073435925 -2.7905767e-21)
(2.5182272 -0.031424129 6.8859674e-21)
(2.5056571 -0.075967154 -3.6390474e-21)
(2.5300314 -0.10345857 3.7683944e-23)
(2.5618061 -0.11700514 2.1522271e-22)
(2.5931761 -0.11367045 -3.348802e-21)
(2.6153879 -0.099411163 -3.5947223e-21)
(2.6264479 -0.082228891 -1.9450922e-21)
(2.6297919 -0.068361112 -3.5475493e-22)
(2.6307475 -0.059472234 -6.2610312e-22)
(2.6327932 -0.05364432 -7.4989817e-22)
(2.6365527 -0.048159591 -1.5849745e-21)
(2.6408311 -0.041332955 2.5891389e-22)
(2.6441745 -0.033069014 1.3898037e-21)
(2.6455633 -0.02404367 5.1781725e-22)
(2.6451317 -0.015681618 0)
(2.6431059 -0.0084014795 -9.4074072e-22)
(2.6411218 -0.0037041043 2.5579331e-22)
(2.6391658 -0.00026828385 1.0842484e-21)
(2.5111777 -0.022188817 -9.6334475e-21)
(2.4895742 -0.074929463 7.5095772e-21)
(2.515702 -0.11095354 1.3841251e-21)
(2.5526067 -0.13080152 -3.7355537e-21)
(2.5912766 -0.12945316 3.9658379e-21)
(2.6195884 -0.11297751 1.7132343e-20)
(2.6333508 -0.091271991 4.6307777e-21)
(2.6358686 -0.073384256 4.5445155e-22)
(2.634313 -0.062789452 3.608064e-21)
(2.6342209 -0.057503152 1.9847439e-23)
(2.637256 -0.053631896 -1.4510055e-21)
(2.6422175 -0.048320173 2.2574074e-23)
(2.6469474 -0.040655624 2.8044103e-22)
(2.6498462 -0.031363299 1.0911421e-22)
(2.6501659 -0.021676606 8.9793033e-23)
(2.6484452 -0.013157232 -1.9776728e-21)
(2.6451894 -0.0062672695 2.6555639e-21)
(2.642217 -0.0022364452 -3.7982271e-22)
(2.639449 0.00028994007 2.8771547e-21)
(2.5038561 -0.010715899 -2.8332975e-20)
(2.471244 -0.072193171 3.1035346e-21)
(2.4986183 -0.11827704 -1.6513611e-21)
(2.5410423 -0.14606313 -1.141503e-21)
(2.5884063 -0.14778721 -1.1603125e-21)
(2.6246544 -0.12910824 4.1484497e-21)
(2.6424731 -0.10169826 1.856296e-20)
(2.6442966 -0.07810484 8.1489308e-21)
(2.6392977 -0.064591201 1.9627547e-21)
(2.6357931 -0.059561906 6.5097675e-22)
(2.6371393 -0.057804293 1.6296085e-21)
(2.6423704 -0.054825736 1.106937e-21)
(2.6487065 -0.048648529 2.0806836e-22)
(2.6535505 -0.039528503 -7.5747819e-22)
(2.655562 -0.029008146 -7.4021154e-22)
(2.6544727 -0.018729671 1.3231168e-22)
(2.6512806 -0.010230295 -5.8166372e-22)
(2.6467362 -0.0039046056 1.5650917e-21)
(2.6428206 -0.00067871885 -2.1993784e-21)
(2.6393875 0.00077500702 -3.7891739e-21)
(2.4962367 0.003010321 1.6973809e-20)
(2.4506746 -0.06752681 -6.0287031e-21)
(2.4785336 -0.12524438 3.8616617e-21)
(2.5267187 -0.16280597 -1.2845888e-21)
(2.5842058 -0.16900958 2.1630642e-21)
(2.6305254 -0.14838684 -1.2247442e-20)
(2.6542391 -0.11407224 -1.2362489e-20)
(2.6557903 -0.082691009 -6.1191881e-21)
(2.6463554 -0.064590756 -5.0856484e-21)
(2.6378509 -0.059227336 2.732563e-22)
(2.6361494 -0.060014605 4.4785192e-22)
(2.6409581 -0.060362905 1.6763206e-21)
(2.6488657 -0.056713212 8.3717523e-22)
(2.6562187 -0.048632197 1.2264862e-21)
(2.6605696 -0.037616271 1.3772795e-21)
(2.6611704 -0.025850005 2.3029571e-21)
(2.6583517 -0.015171396 4.8928699e-22)
(2.6535588 -0.0069271577 8.8145743e-22)
(2.647712 -0.0013570112 6.2354092e-22)
(2.6429161 0.00097230709 -8.6370208e-23)
(2.6387889 0.0012595224 3.1579679e-21)
(2.4883731 0.018908345 9.6085397e-21)
(2.428044 -0.060717192 -4.8345567e-21)
(2.4553023 -0.13167389 5.3007982e-21)
(2.509279 -0.18098594 -5.2224471e-22)
(2.5782499 -0.19338545 5.9221528e-21)
(2.637037 -0.17142752 2.119658e-21)
(2.6690228 -0.12906301 -1.1602118e-20)
(2.6711572 -0.087425066 -2.5470606e-20)
(2.6562766 -0.062490632 2.1742359e-21)
(2.640851 -0.05585106 -9.6516072e-22)
(2.634319 -0.059503677 1.8070861e-22)
(2.6376362 -0.064280022 -9.5716745e-22)
(2.6468852 -0.064468751 1.7618676e-21)
(2.657142 -0.058516833 7.5164625e-22)
(2.6647142 -0.047721589 2.8392849e-23)
(2.6678037 -0.034632863 1.4783875e-22)
(2.6664689 -0.021797887 2.0892625e-23)
(2.6616649 -0.011017187 6.6082967e-22)
(2.6552108 -0.0032982045 -8.6293574e-22)
(2.6481072 0.0013198844 -4.4628065e-22)
(2.6424931 0.0026612936 2.7634219e-21)
(2.6377652 0.0017434861 5.1539114e-21)
(2.480614 0.036789707 -1.3133594e-20)
(2.4037657 -0.051658244 1.8587306e-20)
(2.4289869 -0.13737215 1.2543507e-20)
(2.4885478 -0.20052793 -1.0134666e-21)
(2.5701771 -0.22114912 -4.0553035e-21)
(2.6439253 -0.19879205 5.0048291e-22)
(2.6871196 -0.14744889 -9.0609497e-21)
(2.6912025 -0.092712046 2.599545e-20)
(2.6699792 -0.05809475 2.1104584e-21)
(2.6453835 -0.048700282 1.1331294e-21)
(2.6317557 -0.055405057 -6.8491186e-22)
(2.6320984 -0.065808659 -8.7899973e-22)
(2.6421631 -0.071389801 -3.6961554e-21)
(2.6556312 -0.068976377 -5.8873856e-21)
(2.6672289 -0.059377957 -4.1633543e-21)
(2.6739391 -0.045426246 -3.1246141e-21)
(2.6749566 -0.030382733 -2.9138277e-21)
(2.6712331 -0.016835028 8.172684e-22)
(2.6642839 -0.0063269926 2.8699737e-21)
(2.6561878 0.00058533764 -2.8962608e-21)
(2.6479335 0.0040738531 6.1283505e-21)
(2.6415804 0.0043318461 -4.959149e-22)
(2.6363647 0.0022100562 1.1219746e-22)
(2.4721832 0.056643888 8.0469089e-21)
(2.3779184 -0.040177484 -7.1782113e-21)
(2.3995713 -0.14215602 8.6553963e-21)
(2.4642902 -0.22127761 -3.2411757e-21)
(2.5596605 -0.25243636 -4.7848917e-21)
(2.6509448 -0.23107421 9.721122e-21)
(2.7087831 -0.17004239 1.4538557e-20)
(2.7167878 -0.099058132 3.9586662e-20)
(2.6884206 -0.051210536 -8.1389014e-21)
(2.6521242 -0.037116517 4.054397e-21)
(2.6286471 -0.04674917 -2.003267e-21)
(2.6240659 -0.064064727 2.9693555e-22)
(2.6340993 -0.076833847 -3.4258613e-22)
(2.6508946 -0.079692931 1.5086459e-21)
(2.6673487 -0.072595604 -4.6064722e-21)
(2.6788226 -0.05850667 -1.2647168e-21)
(2.6834773 -0.041382003 9.628541e-22)
(2.6816813 -0.024783593 9.8219122e-22)
(2.6752429 -0.0110193 7.4528747e-22)
(2.6661051 -0.0011990443 -2.2609152e-21)
(2.6564629 0.0046344719 -1.6297328e-21)
(2.6472021 0.0068500718 -2.2370407e-22)
(2.6402177 0.0059693515 -4.5835164e-21)
(2.6346043 0.002660201 -7.3527783e-21)
(2.453433 0.07843353 5.9540399e-21)
(2.3491263 -0.026068516 -2.132165e-20)
(2.3668966 -0.1455118 -1.6957343e-20)
(2.4356678 -0.24277123 -5.5070014e-21)
(2.5455113 -0.28711364 4.1640652e-21)
(2.6571543 -0.26858103 -1.6858545e-22)
(2.7339673 -0.19777753 1.5225284e-20)
(2.7488162 -0.10709639 5.8156944e-21)
(2.712765 -0.041659786 -2.0046095e-20)
(2.661844 -0.020217669 2.9994439e-21)
(2.6252088 -0.032562995 -1.1792527e-21)
(2.6132828 -0.058076884 3.8355092e-21)
(2.6220884 -0.080061782 -2.3786053e-21)
(2.6421162 -0.090237143 3.0138701e-21)
(2.664171 -0.08731353 1.1181489e-20)
(2.6816929 -0.074117271 6.9821235e-21)
(2.6913602 -0.055283821 1.7959297e-21)
(2.6928141 -0.035390359 7.6776354e-22)
(2.687623 -0.01787184 5.0171019e-21)
(2.6783064 -0.0044749738 -4.5441462e-22)
(2.6670623 0.0042393531 4.2876361e-22)
(2.6560333 0.0087529408 6.8380927e-22)
(2.6459355 0.009591977 -1.2962326e-20)
(2.6384473 0.0075535114 5.972873e-22)
(2.6325322 0.0030855752 -7.9142269e-21)
(2.4036266 0.099682835 -5.8546822e-21)
(2.3140625 -0.0097160638 -1.2714651e-20)
(2.3312897 -0.14723887 -3.7639384e-20)
(2.4020217 -0.26420019 -1.1051545e-20)
(2.5261069 -0.32442046 1.6460252e-20)
(2.6603634 -0.31108217 6.8885496e-20)
(2.7609133 -0.23103031 -4.4601891e-20)
(2.7871609 -0.11753734 -2.4376769e-20)
(2.7440855 -0.029484576 -5.5865159e-21)
(2.6754714 0.0027666762 -1.7146189e-21)
(2.6217609 -0.01158235 9.461062e-22)
(2.599495 -0.046819807 -1.2598967e-21)
(2.6055283 -0.080267053 9.7505814e-22)
(2.6284578 -0.10009856 4.2995184e-21)
(2.6567438 -0.10336431 -3.4162739e-21)
(2.6816193 -0.092480886 1.5095166e-21)
(2.6979298 -0.072557976 7.73794e-21)
(2.7041085 -0.049322036 2.0134118e-21)
(2.7014018 -0.027433501 -2.6928807e-21)
(2.6924563 -0.0097936444 1.6898077e-21)
(2.680285 0.00262028 -1.5647033e-21)
(2.6671247 0.0098480138 3.6651995e-21)
(2.6549237 0.012847824 1.2602177e-21)
(2.6441777 0.012248822 2.7699261e-21)
(2.6363177 0.0090577812 1.8339047e-21)
(2.6301934 0.0034773734 6.0634268e-21)
(2.33246 0.11791489 3.2544419e-21)
(2.2690006 0.0065850445 1.214525e-20)
(2.2939224 -0.14772255 -5.0652601e-20)
(2.3648185 -0.28551627 -6.2281601e-21)
(2.5012486 -0.36459743 -1.1168328e-20)
(2.6603961 -0.35884686 -2.4099874e-20)
(2.7893731 -0.2700788 1.6244161e-20)
(2.830261 -0.13042669 -1.3973026e-19)
(2.7816276 -0.014455727 3.4936596e-20)
(2.693617 0.032402878 -1.7444119e-20)
(2.6185363 0.017135105 5.740468e-21)
(2.5824834 -0.029155951 2.6697418e-21)
(2.5838317 -0.076609852 -2.8334638e-21)
(2.6090966 -0.10870023 4.1581822e-21)
(2.644075 -0.12050059 -6.4579938e-21)
(2.6775914 -0.1137231 -1.1280399e-20)
(2.7023168 -0.093719049 -8.0696677e-21)
(2.7150559 -0.067244781 3.8604855e-22)
(2.7162572 -0.040495324 -6.0776455e-21)
(2.7087169 -0.017667401 3.6734325e-21)
(2.6959207 -0.00078801984 -4.8688734e-21)
(2.6810952 0.010053733 -3.5964008e-21)
(2.6662973 0.015480809 -9.0087487e-23)
(2.6531804 0.016832596 -8.6004416e-22)
(2.6419816 0.014776415 4.0055054e-21)
(2.6338784 0.010462883 -6.8042434e-21)
(2.6276328 0.003837568 6.3511546e-21)
(2.266694 0.1341608 5.5076157e-22)
(2.210641 0.018885617 5.4655489e-21)
(2.2547165 -0.14794638 1.2890658e-20)
(2.3255578 -0.3066053 6.7445766e-21)
(2.4737321 -0.40790303 -6.4170088e-21)
(2.6590529 -0.41500209 -5.6260589e-20)
(2.8252277 -0.31908849 -1.8506087e-20)
(2.885845 -0.14754031 1.4682556e-20)
(2.8259421 0.004129728 0)
(2.7149183 0.069842249 2.7733495e-21)
(2.6156274 0.054692059 2.2710304e-21)
(2.5618462 -0.0040945762 5.1984196e-21)
(2.5564166 -0.068268301 -9.4117203e-21)
(2.5832623 -0.11544694 -1.0176287e-20)
(2.625194 -0.13838192 1.1473385e-20)
(2.6685216 -0.13788828 2.1694997e-21)
(2.7035381 -0.11920931 7.2898506e-21)
(2.7249446 -0.08994896 -5.674406e-21)
(2.7319181 -0.057862978 -1.219054e-21)
(2.7270031 -0.028939889 2.1985352e-22)
(2.7143169 -0.0063997723 1.2756518e-23)
(2.6978525 0.0088400942 -3.3559917e-21)
(2.6807122 0.017606722 3.1952499e-21)
(2.6646243 0.020998859 -7.2051233e-21)
(2.6508649 0.020632075 4.8390688e-22)
(2.6394057 0.017139355 -3.4076804e-21)
(2.6311808 0.011755329 3.9630446e-21)
(2.6248937 0.0041661792 0)
(2.2217496 0.14934225 1.0214662e-21)
(2.1494461 0.026587187 4.8698428e-21)
(2.2116151 -0.1491385 2.3725689e-20)
(2.2847972 -0.32710217 4.1154169e-21)
(2.4426239 -0.45269715 -4.8490798e-21)
(2.6537312 -0.47790055 6.5248839e-20)
(2.8698106 -0.38205741 -1.8140871e-20)
(2.967566 -0.17671213 2.5543334e-19)
(2.8954088 0.02353662 7.4801215e-21)
(2.7426049 0.11543093 -1.2372801e-19)
(2.6115806 0.10249655 2.6615617e-22)
(2.5372629 0.029412269 -5.9832495e-21)
(2.5226433 -0.054526094 -6.7480965e-21)
(2.5502548 -0.11978566 -2.6899246e-21)
(2.5992112 -0.15660996 1.2624528e-21)
(2.6533141 -0.16488664 1.1663164e-21)
(2.7004758 -0.14940809 2.1493877e-20)
(2.7329257 -0.11820169 7.1554129e-21)
(2.7479297 -0.080554001 5.9899848e-22)
(2.7473292 -0.044473869 1.7942413e-21)
(2.7356284 -0.01503187 -3.9199451e-22)
(2.7178966 0.0059430283 -2.9453423e-21)
(2.6981741 0.018763282 1.9994732e-21)
(2.6791755 0.025061511 1.446153e-20)
(2.6621792 0.026280142 -2.1947399e-21)
(2.6480506 0.024185532 -5.9863867e-21)
(2.6365119 0.019311746 -1.0356202e-24)
(2.6282757 0.012926336 7.3753387e-21)
(2.6220173 0.0044605219 8.8158116e-21)
(2.19384 0.16412278 -8.6583151e-21)
(2.1011004 0.033743128 -1.7173213e-21)
(2.1631086 -0.15267349 -4.9484861e-22)
(2.2427351 -0.34615092 -2.1944222e-21)
(2.4062641 -0.49740838 -2.4478743e-20)
(2.6369972 -0.54204009 -1.4928579e-20)
(2.8946564 -0.45268718 5.3024658e-21)
(3.0627541 -0.21695937 5.6941346e-20)
(3.0044014 0.03814786 -1.5456654e-19)
(2.799855 0.1678934 1.117619e-20)
(2.609263 0.16053518 3.36676e-21)
(2.5075092 0.072388241 4.4543906e-22)
(2.4819133 -0.034788258 5.4874572e-21)
(2.5094753 -0.12127936 -1.7955294e-20)
(2.5653845 -0.17476336 3.5745304e-21)
(2.6309342 -0.19449514 3.1273562e-22)
(2.6919316 -0.18453715 -5.8135249e-22)
(2.7379524 -0.1527646 -6.1722777e-21)
(2.763704 -0.10963362 3.6162139e-21)
(2.7695821 -0.065424123 5.1865512e-21)
(2.7601724 -0.027505045 -5.0415088e-21)
(2.7415856 0.0006472108 -5.4296336e-21)
(2.7192843 0.018866202 6.1650305e-21)
(2.6968987 0.028647944 3.467291e-21)
(2.6765731 0.032224372 -4.4763418e-22)
(2.6590563 0.03122491 1.2422197e-20)
(2.6448171 0.027447971 6.0814291e-21)
(2.6333617 0.021276684 -2.5917053e-22)
(2.6252114 0.013971636 7.070045e-21)
(2.6190417 0.0047198375 -6.2782614e-22)
(2.1748489 0.18001019 -1.0566233e-20)
(2.066919 0.041283751 -1.4197033e-20)
(2.1117672 -0.15672254 1.430984e-22)
(2.199058 -0.36430742 1.742193e-20)
(2.3641493 -0.53950725 2.3748778e-20)
(2.6071279 -0.60454021 -4.04565e-20)
(2.8915785 -0.5220673 -2.4659012e-20)
(3.0971536 -0.264067 -4.0251941e-19)
(3.1193293 0.053046461 -4.4736977e-20)
(2.8943683 0.22946086 2.1314383e-19)
(2.6267849 0.23057927 -7.5482398e-20)
(2.4725186 0.12484983 -6.2478464e-21)
(2.4334488 -0.0086536638 -6.7730359e-22)
(2.460454 -0.11968636 3.471253e-21)
(2.5232017 -0.19245833 1.9202467e-21)
(2.6005062 -0.22634668 -2.0855979e-21)
(2.6766775 -0.22462138 7.2520439e-21)
(2.7388032 -0.19427226 -1.3634814e-21)
(2.778416 -0.1462629 7.5452453e-22)
(2.7935689 -0.093072866 3.004401e-21)
(2.7882271 -0.044976738 9.1525694e-21)
(2.7695335 -0.0077187879 3.5129338e-21)
(2.744561 0.017379918 -1.9116457e-21)
(2.71845 0.031877256 9.449671e-21)
(2.6941332 0.03819023 3.7229585e-21)
(2.6730298 0.038935709 -7.0957468e-21)
(2.6553626 0.035758535 -5.7548417e-21)
(2.6412458 0.030389896 8.4824124e-21)
(2.6300147 0.023025498 -8.0302021e-23)
(2.6220325 0.014890798 4.9075997e-21)
(2.6160018 0.0049446606 -9.1667937e-21)
(2.1606431 0.19737166 0)
(2.0392239 0.052788503 1.0122666e-21)
(2.0650269 -0.16188387 3.9282754e-22)
(2.1530737 -0.38040892 6.2390796e-21)
(2.3169485 -0.5785573 3.705685e-20)
(2.5624781 -0.66208778 -1.5352799e-20)
(2.8663535 -0.58601551 -2.9177346e-19)
(3.093938 -0.30992538 6.5908083e-20)
(3.1527814 0.064182567 2.9175151e-19)
(2.9877234 0.30349944 4.5501654e-20)
(2.6708924 0.31945901 -1.9459898e-20)
(2.4405165 0.18904368 -8.2388192e-21)
(2.3759865 0.023690717 -6.7595723e-21)
(2.4028803 -0.11501849 2.7123762e-20)
(2.4724439 -0.20942214 -1.5051321e-20)
(2.561439 -0.2599518 1.4929043e-21)
(2.6535653 -0.2694148 0)
(2.7340886 -0.24316136 -5.7058229e-22)
(2.7909904 -0.19157387 -2.2927952e-20)
(2.818874 -0.12892761 -2.6501315e-20)
(2.8201043 -0.068798458 1.9588038e-20)
(2.8023907 -0.020152233 -1.1926688e-21)
(2.7748391 0.013869934 3.9903342e-21)
(2.744448 0.034427543 -8.2105265e-21)
(2.7155164 0.044503405 -1.9402205e-21)
(2.6900454 0.047138303 -2.8405631e-22)
(2.6686936 0.045075334 1.0628029e-21)
(2.6512099 0.039831608 -8.4364867e-21)
(2.6374161 0.032996017 -1.5120716e-20)
(2.6265263 0.024556671 2.9245889e-21)
(2.6187793 0.015686503 8.8477986e-22)
(2.6129285 0.0051361787 -2.3118688e-23)
(2.145643 0.21445785 1.3370689e-20)
(2.0166718 0.069015299 -2.4725419e-20)
(2.0204398 -0.16188668 1.3293338e-21)
(2.1066346 -0.397697 3.6388755e-21)
(2.2657725 -0.61221123 -6.9044881e-20)
(2.5056177 -0.71395807 8.8204869e-21)
(2.8130423 -0.64633994 2.5108205e-19)
(3.0607347 -0.34615214 6.3066851e-20)
(3.1394161 0.074702674 1.1338202e-19)
(3.0410188 0.38518251 -1.0651488e-19)
(2.7109799 0.42890527 3.170384e-20)
(2.4217176 0.27258506 2.19125e-20)
(2.3101014 0.062516674 5.7427855e-22)
(2.336395 -0.10761762 -8.2241407e-21)
(2.4131727 -0.22552777 4.4271997e-21)
(2.5134679 -0.29471896 2.4670283e-20)
(2.6216189 -0.3183672 -3.6909139e-22)
(2.7223218 -0.29954999 7.8633324e-21)
(2.800054 -0.24659886 -4.0973037e-22)
(2.8448288 -0.17461387 -1.132919e-20)
(2.8559628 -0.10066404 -2.2048439e-20)
(2.8410168 -0.037885119 2.4441564e-20)
(2.8110845 0.0076537786 5.0253399e-21)
(2.7758424 0.036170343 -5.5933617e-21)
(2.7413619 0.051068995 6.5680152e-21)
(2.710713 0.056350245 -9.1085268e-21)
(2.6848445 0.05530114 -1.1263849e-20)
(2.663723 0.050563306 8.5840292e-23)
(2.6467087 0.043417981 2.5757653e-21)
(2.6334023 0.03526328 8.9945986e-22)
(2.6229468 0.02587454 -3.1207277e-21)
(2.6154876 0.016363857 -9.0986871e-21)
(2.6098488 0.0052961415 3.0377941e-21)
(2.1315429 0.2309722 -3.7695007e-20)
(2.0029295 0.087434761 -4.1352465e-20)
(1.9788089 -0.15708217 -4.9233476e-20)
(2.0544351 -0.40867274 -1.4588427e-20)
(2.2134307 -0.64385265 -1.7202661e-19)
(2.4399122 -0.75760248 1.0220821e-21)
(2.7413273 -0.698112 3.5245687e-19)
(3.0048358 -0.37496093 -1.1435634e-19)
(3.0787926 0.094611459 3.2073459e-21)
(2.98377 0.46399468 -5.6987628e-20)
(2.7116938 0.55014668 -1.0406135e-19)
(2.4093569 0.37738679 -7.6152421e-22)
(2.2429442 0.11164219 2.2518454e-22)
(2.2601577 -0.098323821 -1.355478e-20)
(2.345771 -0.24082005 2.6623726e-20)
(2.4566587 -0.32990564 2.2128883e-21)
(2.5799899 -0.37048675 -2.8280707e-20)
(2.7018053 -0.36309481 -4.6689668e-21)
(2.8038429 -0.31216672 1.0011546e-20)
(2.8703996 -0.23187308 5.6016006e-20)
(2.8958355 -0.14253003 6.5477644e-22)
(2.8861818 -0.062530646 6.2086128e-21)
(2.8545081 -0.0022120697 -1.3208273e-20)
(2.8137968 0.036760679 1.2329046e-21)
(2.7726405 0.058081566 -1.0509087e-21)
(2.7356215 0.06669126 1.5137937e-20)
(2.7043383 0.067118521 -1.6242066e-21)
(2.6787592 0.062551676 1.5111032e-22)
(2.6582757 0.055357099 3.9087233e-22)
(2.6419625 0.046511576 -9.2371385e-21)
(2.6292719 0.0371986 2.0775294e-20)
(2.6193208 0.026987959 6.9440377e-21)
(2.6121885 0.016929738 -5.2960944e-21)
(2.6067857 0.0054266846 -2.163408e-22)
(2.1187111 0.24691069 -1.5515792e-20)
(1.991292 0.10848763 1.5096345e-20)
(1.9425325 -0.14889978 4.1225235e-20)
(1.9979386 -0.41590844 -7.963927e-20)
(2.1523753 -0.66692559 3.6098238e-21)
(2.3696873 -0.79519776 1.6089192e-20)
(2.6549794 -0.74602549 -6.3656936e-20)
(2.9180296 -0.39747254 3.5957284e-19)
(2.9988915 0.12134173 -2.2717709e-19)
(2.8926404 0.53882871 1.1541209e-19)
(2.6715081 0.66571667 5.8012114e-20)
(2.3865263 0.49245934 2.909981e-20)
(2.1819914 0.17509987 5.0336455e-21)
(2.1750755 -0.087441446 -2.1107664e-20)
(2.2708536 -0.25574462 -4.5420884e-21)
(2.3916524 -0.36489196 6.051268e-21)
(2.5283766 -0.42439885 -1.0343268e-20)
(2.6708103 -0.43264907 -4.238465e-20)
(2.7999241 -0.38851397 -1.5148825e-20)
(2.8937958 -0.30244196 -2.9445183e-20)
(2.939452 -0.19676455 -2.2195915e-21)
(2.9387966 -0.095979661 -8.1797265e-20)
(2.9065641 -0.016961407 -1.2586605e-20)
(2.8597085 0.035790968 -1.0050187e-20)
(2.8105447 0.065585311 1.1407473e-20)
(2.7656646 0.078654962 8.4391258e-21)
(2.7276587 0.08082854 -2.1637287e-21)
(2.6967267 0.076609326 3.663598e-21)
(2.672019 0.068822517 2.9596257e-21)
(2.6525005 0.059446434 -3.6093959e-21)
(2.6370655 0.049122578 6.6861096e-22)
(2.6250843 0.038816548 -1.0772105e-20)
(2.6156866 0.027909071 5.9039411e-21)
(2.6089085 0.017392217 2.9043721e-21)
(2.6037588 0.0055301798 -6.7194373e-21)
(2.1073197 0.26264267 -2.9286665e-20)
(1.9789598 0.13151344 4.9470054e-20)
(1.9104177 -0.13643277 7.5508812e-20)
(1.9417489 -0.42032066 4.9880054e-21)
(2.0843416 -0.68502604 8.3271795e-20)
(2.2860976 -0.82627423 4.8108995e-20)
(2.5575319 -0.77976304 2.0636637e-20)
(2.811094 -0.41776131 3.0223398e-19)
(2.8940456 0.14740592 2.8309461e-20)
(2.7990057 0.61100539 0)
(2.6022969 0.76874414 1.8043051e-19)
(2.3428265 0.60680713 -5.9792803e-20)
(2.1236317 0.25047312 3.6615246e-23)
(2.0863978 -0.072767013 -1.0325844e-20)
(2.1888318 -0.27139182 3.6441169e-21)
(2.319929 -0.39942556 1.1020412e-20)
(2.4676415 -0.47907156 -3.6350512e-20)
(2.6288386 -0.50714889 -6.5583244e-21)
(2.7864097 -0.47537361 3.6488133e-20)
(2.9127421 -0.38758567 -3.1095045e-20)
(2.9857167 -0.26586039 1.510783e-21)
(2.999683 -0.14075904 -3.5847976e-20)
(2.9688377 -0.037896382 3.2041913e-20)
(2.9154532 0.032627592 -1.7212288e-20)
(2.8565666 0.073713412 1.2130252e-21)
(2.8019268 0.092660337 7.9966146e-21)
(2.7555436 0.097173124 -7.3548787e-21)
(2.7179658 0.093173498 -8.9265052e-21)
(2.6882163 0.084718716 -4.8042121e-21)
(2.6648406 0.074097675 8.3954178e-21)
(2.6465314 0.062847014 -4.5518759e-21)
(2.6320997 0.051273544 1.400306e-20)
(2.6208903 0.040137193 -8.4636984e-21)
(2.6120768 0.02865221 -9.7708668e-21)
(2.6056697 0.017760061 -7.2493186e-21)
(2.600784 0.005609106 1.5838301e-20)
(2.0980334 0.27851186 -4.3104792e-22)
(1.9652463 0.15647889 -1.8741443e-20)
(1.880816 -0.11969572 -1.1243337e-19)
(1.8876064 -0.42153638 1.5655357e-19)
(2.0129556 -0.69908028 -2.996492e-20)
(2.1939286 -0.85154337 1.1410761e-19)
(2.4449063 -0.81507294 -9.0556194e-20)
(2.6882206 -0.42465848 -1.4780471e-19)
(2.7740608 0.17319695 9.385745e-20)
(2.6895093 0.67807936 -6.6319021e-19)
(2.5136984 0.86267875 1.4066251e-20)
(2.2777978 0.71557805 -8.8775298e-20)
(2.0593065 0.33156745 1.3163243e-20)
(1.9991276 -0.052086597 -1.5663657e-20)
(2.1008474 -0.28856242 -5.3155362e-21)
(2.2434473 -0.43364949 -1.4153809e-21)
(2.3995527 -0.5337136 2.9520445e-20)
(2.5768078 -0.58582261 2.6519996e-20)
(2.763112 -0.57378977 -2.6331906e-20)
(2.9266053 -0.49000919 -4.9587114e-20)
(3.0345455 -0.35315 -8.8902234e-20)
(3.0697543 -0.19972918 -3.1875195e-21)
(3.0432002 -0.066968248 4.2631967e-20)
(2.9829951 0.026738579 -7.868403e-21)
(2.9125648 0.082572188 -1.7687563e-20)
(2.8457803 0.10935206 5.0783866e-20)
(2.7888665 0.11687953 -1.3693066e-20)
(2.7430081 0.11316674 1.2376348e-21)
(2.7070439 0.1035692 -6.0133591e-22)
(2.679125 0.091424053 -3.9949655e-21)
(2.657418 0.078402173 3.7006696e-21)
(2.6404848 0.065594047 3.6805177e-21)
(2.6271347 0.052995757 1.1673362e-20)
(2.6167324 0.041184188 2.282664e-21)
(2.6085183 0.029232991 -1.5144647e-20)
(2.6024902 0.018042332 8.6177806e-21)
(2.5978743 0.0056659642 -9.9312991e-21)
(2.0915483 0.29470485 3.0517122e-20)
(1.9512574 0.18332411 8.5212543e-20)
(1.852662 -0.099267418 9.8755462e-20)
(1.8362872 -0.41858663 -9.6151802e-20)
(1.940316 -0.70954144 2.2908716e-20)
(2.0988388 -0.8709269 -2.2000204e-20)
(2.3217248 -0.85050141 -1.8338481e-20)
(2.5595 -0.44862464 -1.995009e-19)
(2.6457098 0.20266351 1.0477099e-20)
(2.5742487 0.74161231 7.6712289e-20)
(2.4165563 0.94712906 0)
(2.2009291 0.81657831 7.7741363e-20)
(1.9881 0.41293926 3.0731568e-20)
(1.9142854 -0.026463464 -1.8996798e-20)
(2.0100436 -0.30670028 4.0586452e-20)
(2.1638825 -0.46808985 2.6102537e-20)
(2.3261781 -0.58715438 9.1265544e-21)
(2.5153975 -0.66664634 3.5003812e-20)
(2.7287912 -0.68235317 -7.3444917e-20)
(2.934246 -0.61237789 -1.6656017e-19)
(3.0862977 -0.46527825 1.9241985e-20)
(3.1531533 -0.27941812 1.6295952e-19)
(3.1340011 -0.10699338 1.1243167e-19)
(3.0650435 0.017392808 9.3251165e-21)
(2.9804936 0.092447871 1.2939666e-20)
(2.8988427 0.12949538 3.8678457e-20)
(2.8287178 0.1409999 -7.6646355e-21)
(2.7724494 0.13753167 -1.192246e-20)
(2.7288034 0.12640488 4.0008975e-21)
(2.6953623 0.11198708 -1.2845158e-20)
(2.6697356 0.096766881 5.6991947e-21)
(2.6499173 0.081791336 -8.317289e-21)
(2.6344576 0.067736212 8.7809221e-21)
(2.6222277 0.054326035 -1.23972e-20)
(2.6126451 0.041983176 -1.1928808e-20)
(2.6050326 0.029667554 8.594071e-22)
(2.5993846 0.01824807 3.344187e-21)
(2.5950399 0.0057031969 -2.356891e-20)
(2.0880876 0.31164123 1.3821323e-21)
(1.9388579 0.21203444 5.0649059e-20)
(1.8262457 -0.075670999 3.8853828e-20)
(1.7881589 -0.4114332 -1.9289118e-19)
(1.8684799 -0.71584904 3.7759692e-20)
(2.0034896 -0.8848717 -1.1463402e-19)
(2.1941222 -0.87857618 -7.8916764e-20)
(2.4210815 -0.48824212 3.5082363e-21)
(2.522437 0.20949411 -9.0611537e-20)
(2.460727 0.79742183 8.012641e-19)
(2.3176929 1.0219571 -4.3014097e-19)
(2.1212947 0.9080041 4.617442e-19)
(1.9144687 0.49197385 1.4689522e-19)
(1.8320194 0.0008957235 6.0859873e-21)
(1.920454 -0.32460589 0)
(2.0827547 -0.50328463 -3.4557847e-20)
(2.2496118 -0.63798097 -2.5832856e-20)
(2.4448356 -0.74589801 -4.2763007e-20)