/*--------------------------------*- C++ -*----------------------------------*\
| =========                 |                                                 |
| \\      /  F ield         | OpenFOAM: The Open Source CFD Toolbox           |
|  \\    /   O peration     | Version:  v2012                                 |
|   \\  /    A nd           | Website:  www.openfoam.com                      |
|    \\/     M anipulation  |                                                 |
\*---------------------------------------------------------------------------*/
FoamFile
{
    version     2.0;
    format      ascii;
    class       surfaceVectorField;
    location    "19.12352607545994";
    object      Uf;
}
// * * * * * * * * * * * * * * * * * * * * * * * * * * * * * * * * * * * * * //

dimensions      [0 1 -1 0 0 0 0];


internalField   nonuniform List<vector> 
18180
(
(2.5724792 -0.0058786057 -5.0542415e-23)
(2.5772109 -0.0027214815 2.6993759e-23)
(2.5720023 -0.011486703 -3.3120435e-22)
(2.5768344 -0.0094903217 -3.4406882e-22)
(2.5802957 -0.0066015522 -2.7577233e-22)
(2.5824612 -0.0029092623 2.1902487e-22)
(2.5712944 -0.016781711 -3.8821996e-22)
(2.5764004 -0.014832877 3.9335579e-23)
(2.5799518 -0.012935121 3.3041489e-23)
(2.5822203 -0.010306238 3.1133867e-22)
(2.5848154 -0.0069372033 7.9099425e-22)
(2.5877929 -0.0030168742 4.4432961e-22)
(2.5702691 -0.021878163 -6.1739672e-22)
(2.575621 -0.020729248 -7.0512184e-22)
(2.5794206 -0.018990817 -2.8959781e-22)
(2.5819051 -0.016127905 4.954145e-22)
(2.5846037 -0.01360116 7.796903e-22)
(2.5876966 -0.01078269 2.7839014e-22)
(2.5904796 -0.0072173595 -6.097264e-23)
(2.5931536 -0.0030847598 -7.0308202e-22)
(2.5689731 -0.026712119 -7.3794776e-22)
(2.5745742 -0.025939227 -7.9967553e-22)
(2.5786017 -0.024883948 -8.7242374e-22)
(2.5813471 -0.02261993 -3.8094377e-22)
(2.584257 -0.020022565 3.7498167e-22)
(2.5875462 -0.016889611 9.0777739e-22)
(2.5904394 -0.014170554 4.3157525e-22)
(2.5932187 -0.011117007 1.790201e-22)
(2.5958503 -0.0073637686 -4.2515005e-22)
(2.5984394 -0.0031021548 -3.9289132e-22)
(2.567363 -0.031298651 -1.0063213e-21)
(2.5732054 -0.031250966 -2.6604141e-22)
(2.5774805 -0.030619028 -3.3324508e-22)
(2.5805301 -0.02845142 -1.406235e-22)
(2.5836919 -0.026317546 3.5264999e-22)
(2.5872587 -0.023749645 -6.4014821e-22)
(2.590339 -0.020905167 -1.456112e-22)
(2.5932639 -0.017423419 -1.5038281e-22)
(2.5959976 -0.014469753 -3.9789387e-22)
(2.5986726 -0.0112633 1.9272261e-22)
(2.6011823 -0.0073980505 2.3340425e-22)
(2.6035717 -0.0030731281 2.3753541e-22)
(2.5654211 -0.035567549 -9.0257533e-22)
(2.5714512 -0.036197794 -4.6776814e-22)
(2.5759875 -0.036228439 2.1258927e-22)
(2.5794316 -0.034495756 8.5285981e-22)
(2.5828814 -0.032532181 1.0686946e-21)
(2.5867681 -0.02998302 -1.2023845e-22)
(2.5901138 -0.027557927 -1.0667781e-21)
(2.5932967 -0.024554203 -6.6256954e-22)
(2.5961723 -0.021379474 -6.7802863e-22)
(2.5989332 -0.017655448 -8.7176885e-22)
(2.6015265 -0.01454702 -3.1808224e-22)
(2.6039753 -0.011250752 0)
(2.6063049 -0.0073332338 0)
(2.6084882 -0.003002511 -2.1100528e-22)
(2.5631122 -0.039462505 -6.527697e-22)
(2.5692535 -0.040996633 -9.3206489e-22)
(2.5740366 -0.04170564 -5.187431e-22)
(2.577949 -0.040309425 5.3413593e-22)
(2.5817622 -0.038723167 1.147811e-21)
(2.5860739 -0.03651589 7.9272743e-22)
(2.5897283 -0.034193384 -3.415027e-22)
(2.5932053 -0.03108304 2.0497646e-22)
(2.5963304 -0.02823593 6.1029444e-22)
(2.5993103 -0.024922523 4.6989544e-22)
(2.6019895 -0.021517322 3.0496415e-22)
(2.6044598 -0.017634205 -3.024933e-22)
(2.6068482 -0.014432403 0)
(2.609064 -0.011102829 -2.4284849e-22)
(2.6111934 -0.0071856187 -4.4664236e-22)
(2.6131439 -0.002895452 -1.9613917e-22)
(2.5604054 -0.042883681 -4.7493515e-22)
(2.5665257 -0.045470455 2.3836877e-22)
(2.5715299 -0.04704068 2.6307131e-24)
(2.5760183 -0.046164597 -2.6526995e-22)
(2.5802497 -0.044934948 7.3939453e-22)
(2.5850725 -0.042932855 4.7457391e-22)
(2.5891382 -0.040897432 1.2613445e-22)
(2.5930258 -0.037971391 5.4592444e-22)
(2.5964374 -0.035107887 1.0855947e-21)
(2.5996476 -0.031596016 1.2563881e-21)
(2.60254 -0.028446803 1.1337742e-21)
(2.6051833 -0.024926854 1.9140762e-24)
(2.6075969 -0.021369161 -5.802168e-22)
(2.6097748 -0.017402954 3.9027514e-23)
(2.6119374 -0.014163327 -1.9067587e-22)
(2.6138975 -0.010840286 -7.4567689e-23)
(2.6158051 -0.0069656117 1.6948957e-22)
(2.6175054 -0.0027552638 8.0862859e-23)
(2.5572651 -0.045715658 -3.6783797e-22)
(2.5631738 -0.049606603 -1.4277032e-22)
(2.5683389 -0.052201256 5.2917741e-22)
(2.5735202 -0.051949185 8.8502996e-22)
(2.5782499 -0.051214572 6.4497107e-22)
(2.5837157 -0.04955495 1.1059981e-22)
(2.5882789 -0.04775305 -1.5135961e-22)
(2.5926711 -0.044819143 -6.4667924e-22)
(2.5964821 -0.042088828 -2.5738964e-22)
(2.6000209 -0.038643948 1.7143578e-22)
(2.603141 -0.035389386 3.1879006e-22)
(2.6059366 -0.031620841 4.9461636e-22)
(2.608519 -0.028268502 -5.9126626e-22)
(2.6108337 -0.024638648 -8.2440536e-22)
(2.6129647 -0.021000856 -2.3999059e-22)
(2.6148373 -0.017001831 -9.4693852e-23)
(2.6167563 -0.013763955 1.7186638e-23)
(2.6184482 -0.010473218 3.4380397e-22)
(2.6201165 -0.0066765757 2.61987e-22)
(2.6215453 -0.0025830846 1.0311074e-22)
(2.553649 -0.047816859 1.6974464e-22)
(2.5590919 -0.053282535 -5.0870459e-22)
(2.5643176 -0.057137135 -3.0762994e-22)
(2.5703255 -0.057723531 1.0260268e-22)
(2.5756335 -0.057608417 4.3373954e-22)
(2.5818978 -0.056338743 2.6046654e-22)
(2.587089 -0.054864838 -2.5364031e-22)
(2.5921411 -0.051979181 9.7577653e-22)
(2.5964449 -0.049275565 5.2358938e-22)
(2.6003678 -0.045657609 -2.7813629e-22)
(2.6038134 -0.042419141 1.2899829e-22)
(2.6068269 -0.03866144 -1.2372428e-22)
(2.6095614 -0.035153482 3.378804e-23)
(2.6119629 -0.031271065 4.2015048e-22)
(2.6142266 -0.027810477 2.1510193e-22)
(2.6162224 -0.024129059 -2.1102283e-22)
(2.6180626 -0.020459298 -7.2496721e-23)
(2.6196273 -0.016452627 -2.7771428e-22)
(2.6212902 -0.013242315 2.7441619e-23)
(2.622695 -0.010000914 1.5630605e-22)
(2.6241044 -0.0063155465 3.4353905e-24)
(2.6252381 -0.0023787108 -5.7375959e-23)
(2.5495329 -0.049023238 1.0141073e-22)
(2.5541427 -0.056401594 8.2764399e-22)
(2.5592926 -0.061770102 1.9579582e-22)
(2.566269 -0.063457576 -5.6113083e-22)
(2.5722419 -0.064159896 -1.7545584e-22)
(2.5795018 -0.063431351 -1.5200697e-22)
(2.5854744 -0.062356609 -3.2629353e-22)
(2.5913848 -0.059460516 2.247302e-22)
(2.5963338 -0.056800653 1.4068071e-21)
(2.6007546 -0.052985241 1.1428e-21)
(2.6045864 -0.049608838 3.9394874e-22)
(2.6078069 -0.045603846 5.8530586e-23)
(2.6107595 -0.04205317 -1.8493892e-22)
(2.6132809 -0.038199173 -2.8173988e-23)
(2.6156313 -0.03457716 3.3698595e-22)
(2.6176855 -0.03066945 6.1707502e-22)
(2.6196437 -0.027159728 2.1873101e-22)
(2.6213455 -0.023441991 2.3573151e-22)
(2.6228924 -0.019764126 4.5155653e-23)
(2.6241354 -0.015756841 -2.7565125e-22)
(2.6255253 -0.012590989 -1.5893926e-22)
(2.6266169 -0.0094138177 9.6235926e-23)
(2.6277444 -0.0058753798 4.0846296e-23)
(2.6285576 -0.0021422253 -1.2149093e-22)
(2.5449247 -0.049155783 4.8200649e-22)
(2.5482328 -0.05878957 -1.882e-22)
(2.5530819 -0.066005825 4.9906107e-22)
(2.5611596 -0.069128651 4.7700083e-22)
(2.5678817 -0.070904179 -2.3844542e-22)
(2.5763677 -0.070910411 5.254127e-22)
(2.5833145 -0.070373898 5.595444e-22)
(2.5903539 -0.067482068 -5.9406717e-23)
(2.5961419 -0.064834777 4.7419304e-22)
(2.6012133 -0.060645822 -9.0137295e-22)
(2.6055505 -0.05707006 -1.1823673e-21)
(2.6090046 -0.052745338 1.0047833e-23)
(2.6121724 -0.048977084 -3.1493207e-22)
(2.614728 -0.044922067 -2.9465087e-22)
(2.6171975 -0.041271056 -1.496026e-22)
(2.6193308 -0.037464188 -4.4059083e-22)
(2.6213448 -0.033817521 -1.8711745e-22)
(2.6231258 -0.029902434 -3.3883155e-23)
(2.6248027 -0.026361221 -2.2391118e-23)
(2.6262188 -0.022586443 2.3682791e-22)
(2.6274611 -0.01890614 -6.5635476e-23)
(2.6283527 -0.01489875 2.3605726e-22)
(2.6294452 -0.011791673 4.8483751e-22)
(2.6301892 -0.0086976577 -3.6311551e-22)
(2.6310108 -0.005347934 -5.238696e-22)
(2.631477 -0.0018755986 5.4513555e-22)
(2.5397993 -0.048007523 2.7951257e-22)
(2.5412422 -0.060313609 6.2627133e-23)
(2.545487 -0.069705006 -5.8112258e-22)
(2.5547883 -0.07469156 1.2467874e-22)
(2.562324 -0.077864999 9.6843521e-23)
(2.5723031 -0.078884797 -3.9175018e-22)
(2.580448 -0.079081038 3.3095818e-22)
(2.5889661 -0.076221704 3.444637e-22)
(2.5958551 -0.073596867 -2.4724033e-22)
(2.6018102 -0.068881685 -9.0335572e-22)
(2.6068131 -0.064960334 -2.2198534e-21)
(2.6105361 -0.060055568 -1.7100092e-21)
(2.6139556 -0.055959534 -5.8559827e-22)
(2.6164621 -0.0516443 -1.2359315e-21)
(2.6189732 -0.047812526 -1.2328433e-21)
(2.6210453 -0.043953781 -2.8419153e-23)
(2.623132 -0.040348172 -3.0292364e-22)
(2.6250337 -0.03662006 5.2214076e-23)
(2.6267833 -0.032970591 2.0169717e-22)
(2.6283436 -0.029000054 -2.1524689e-22)
(2.6297503 -0.025409264 2.7911512e-23)
(2.6308596 -0.021538143 2.1442692e-23)
(2.6317702 -0.017853669 3.0866086e-22)
(2.6322632 -0.013852168 5.587169e-22)
(2.6330258 -0.010821836 -2.4572823e-22)
(2.633382 -0.0078394919 -6.7210154e-22)
(2.6338745 -0.0047291204 3.4209089e-22)
(2.6339713 -0.001582061 5.6008809e-22)
(2.5341494 -0.045377447 -1.2349128e-21)
(2.5330238 -0.060742861 1.0789248e-21)
(2.5362951 -0.072696199 9.1894524e-22)
(2.5469162 -0.080053553 -5.5276958e-22)
(2.555307 -0.085037922 1.1849401e-22)
(2.5670662 -0.087450564 1.2054747e-22)
(2.5766669 -0.088650318 -3.4429005e-22)
(2.5871043 -0.085918982 -1.8383201e-21)
(2.5954294 -0.083354034 -1.8666629e-21)
(2.6026014 -0.077921225 -1.7566995e-21)
(2.608511 -0.073502885 -2.3969586e-21)
(2.6125956 -0.067724167 -1.2353106e-21)
(2.6163181 -0.063068405 -7.2627305e-22)
(2.6186472 -0.058228954 -7.6207027e-22)
(2.6211278 -0.054116071 -1.3828779e-21)
(2.6229658 -0.050229061 -8.266859e-22)
(2.6249906 -0.046582189 3.2431008e-22)
(2.6268628 -0.042996471 1.16416e-22)
(2.6287185 -0.039475848 4.6282888e-22)
(2.6305227 -0.035742806 6.5384247e-22)
(2.6320631 -0.032047335 2.6504081e-22)
(2.6334062 -0.027931972 -5.7482292e-22)
(2.6345251 -0.024253866 -5.9073543e-22)
(2.6352709 -0.020249359 -2.34363e-23)
(2.6358061 -0.016563169 2.0876768e-22)
(2.6358402 -0.012588531 -1.4473252e-22)
(2.6362348 -0.0096618879 -5.4625645e-22)
(2.636161 -0.0068321944 7.1457357e-22)
(2.6363003 -0.0040201348 9.2887633e-22)
(2.6360198 -0.0012626677 -4.6777445e-22)
(2.5280239 -0.041069452 1.2547891e-21)
(2.5235075 -0.059902747 -1.6394257e-22)
(2.5253166 -0.074798875 2.0575521e-21)
(2.5373001 -0.085117356 -4.7036816e-22)
(2.5465511 -0.092394653 -1.8635214e-21)
(2.5603817 -0.096685212 -5.5028369e-23)
(2.5717149 -0.099255376 -5.5935075e-23)
(2.584602 -0.0968257 -8.9643321e-22)
(2.5947797 -0.094416801 -2.3243786e-21)
(2.6036286 -0.088084274 -1.6398621e-21)
(2.6107853 -0.082994429 -1.5209808e-21)
(2.6154065 -0.075939058 -1.0062751e-21)
(2.6195457 -0.070432055 1.1369835e-22)
(2.62157 -0.064730883 6.8244927e-22)
(2.6239106 -0.060095133 6.7142075e-22)
(2.6252356 -0.056015407 -8.868452e-22)
(2.6270332 -0.052305085 -3.5030213e-22)
(2.6286717 -0.049018047 1.1145638e-22)
(2.6304844 -0.045644568 -8.7501821e-23)
(2.6324263 -0.042216313 3.6761476e-22)
(2.6341869 -0.038707446 5.4755159e-22)
(2.6359523 -0.034803769 2.9608218e-22)
(2.6372919 -0.030976558 -5.0169531e-22)
(2.6383583 -0.026619614 -9.3772017e-22)
(2.6391379 -0.022816693 -4.0436001e-22)
(2.6394332 -0.018662606 -2.4319233e-22)
(2.6395359 -0.014990973 -5.8532937e-22)
(2.6390461 -0.011084483 -1.1388703e-21)
(2.6390326 -0.0082995534 5.1479239e-23)
(2.6384892 -0.0056745814 1.1878238e-21)
(2.6382614 -0.00321971 -1.3490758e-22)
(2.6376046 -0.00091371659 -1.8709891e-21)
(2.5214802 -0.034890783 5.5301558e-21)
(2.5126281 -0.057576003 1.5524744e-22)
(2.5123822 -0.075797049 -1.2351653e-21)
(2.5257008 -0.089738492 6.7588557e-22)
(2.5357575 -0.099875863 -1.7228631e-21)
(2.551944 -0.10664894 -1.666637e-21)
(2.5652906 -0.11105619 5.8930562e-23)
(2.5812428 -0.10921027 -1.7559223e-21)
(2.5937682 -0.1071303 -2.5768676e-21)
(2.6049008 -0.099741962 -2.6886108e-21)
(2.6137677 -0.093810866 -2.0341329e-21)
(2.6192227 -0.084996019 -1.1923548e-21)
(2.623981 -0.078254835 -6.8718238e-22)
(2.6255891 -0.071188368 1.3520648e-22)
(2.627688 -0.065689269 6.8402427e-22)
(2.62815 -0.061178919 5.6561673e-22)
(2.6294567 -0.05725343 -9.1851469e-22)
(2.6305045 -0.054283456 -9.8647341e-22)
(2.6320711 -0.051163675 -5.5808535e-22)
(2.6339921 -0.04834003 -9.8504054e-22)
(2.6358625 -0.045141262 -5.6156758e-22)
(2.6380344 -0.041604551 3.9364358e-22)
(2.6397647 -0.03795112 1.5191565e-22)
(2.6414449 -0.033682735 7.2570438e-22)
(2.6425313 -0.029627876 3.3085177e-22)
(2.6432033 -0.024957929 -1.3065046e-22)
(2.6435619 -0.0210111 2.688792e-23)
(2.6433014 -0.01672454 -2.4481236e-22)
(2.6429095 -0.01310303 -7.6418261e-22)
(2.6418355 -0.0093270633 -1.2567089e-21)
(2.6413757 -0.0067331438 -1.9705641e-22)
(2.6403344 -0.0043750734 4.2410301e-22)
(2.6397512 -0.0023258036 -1.2162608e-21)
(2.6387104 -0.00049731906 -8.1965334e-22)
(2.5145841 -0.026670923 -1.651191e-21)
(2.5003493 -0.053547283 7.2554352e-21)
(2.4973455 -0.07545709 2.1225288e-21)
(2.511892 -0.093751861 -1.0853265e-21)
(2.522626 -0.10738248 7.3352316e-22)
(2.5414161 -0.1173605 -1.8807038e-21)
(2.5570519 -0.12418448 -1.8265401e-21)
(2.5767562 -0.1233345 2.1222386e-21)
(2.5921944 -0.12185778 4.3142408e-22)
(2.6063796 -0.11331907 7.0873433e-21)
(2.6175588 -0.10640528 7.1171324e-21)
(2.6243065 -0.095273536 5.6838337e-22)
(2.6300154 -0.086834919 1.4533665e-21)
(2.631151 -0.077731791 -7.3971145e-22)
(2.6329324 -0.07088122 6.3450772e-23)
(2.6321031 -0.065527671 1.6604616e-21)
(2.6325902 -0.061136296 1.5621635e-21)
(2.6325605 -0.058470535 -2.9070354e-22)
(2.633531 -0.055625228 -3.5208323e-22)
(2.635101 -0.053637714 -1.1170549e-21)
(2.6369161 -0.050997721 -1.5157374e-21)
(2.6394518 -0.048241117 -7.721303e-22)
(2.6415476 -0.044967574 1.3676963e-22)
(2.643944 -0.040988458 2.6986224e-22)
(2.6456076 -0.037001899 8.1646664e-22)
(2.647053 -0.032201543 7.3706636e-22)
(2.6477767 -0.027844907 3.0659348e-22)
(2.6478957 -0.022839825 3.0012079e-22)
(2.6477334 -0.018761078 4.6406009e-23)
(2.6468096 -0.014397711 -1.0088106e-21)
(2.6458653 -0.010881752 -1.4766328e-21)
(2.6441597 -0.0073159778 8.884645e-22)
(2.6432239 -0.0049769249 1.4959849e-21)
(2.6416777 -0.0029575866 -6.7717355e-23)
(2.6407426 -0.0013286225 3.2763973e-22)
(2.6393202 1.5676868e-05 1.9962323e-21)
(2.507394 -0.016271641 -1.9297222e-20)
(2.4866704 -0.047616789 -3.1573786e-21)
(2.4801012 -0.073535952 5.2325605e-21)
(2.4956697 -0.096964204 2.8048801e-21)
(2.5068733 -0.11478171 -1.8460112e-22)
(2.5284619 -0.1288041 1.073688e-22)
(2.5466302 -0.1387365 -2.3949551e-21)
(2.5708216 -0.13943788 -2.4261674e-21)
(2.5897932 -0.13896246 1.3166452e-21)
(2.6079664 -0.12927895 4.0586916e-21)
(2.6222065 -0.1212968 1.0422237e-20)
(2.6309048 -0.10724369 1.7859801e-20)
(2.6380653 -0.096574733 1.1830993e-20)
(2.6387703 -0.084577189 6.4197983e-21)
(2.6402243 -0.07571929 4.4310118e-21)
(2.6376197 -0.068912673 1.2227028e-21)
(2.6368891 -0.063647457 2.7577527e-21)
(2.6351351 -0.061147603 2.1042508e-21)
(2.6350334 -0.058540567 3.4602233e-22)
(2.6357683 -0.057655815 8.5724755e-22)
(2.6371957 -0.055800085 1.4109761e-22)
(2.6398916 -0.054238772 -1.5010476e-22)
(2.6422965 -0.051709218 5.8298903e-22)
(2.6455275 -0.048487088 1.1691371e-22)
(2.6478565 -0.044816321 2.4303763e-22)
(2.6503011 -0.040082413 -2.4744061e-22)
(2.6517606 -0.03559563 -3.3875535e-22)
(2.6527434 -0.03016553 -3.2285974e-22)
(2.6529547 -0.025478708 -3.3916567e-22)
(2.6523466 -0.020177809 1.1141891e-22)
(2.6515603 -0.016015976 -8.8721002e-22)
(2.64988 -0.011668542 -1.2676146e-21)
(2.6483374 -0.008330323 9.8254769e-22)
(2.6459706 -0.0050655372 2.0998594e-21)
(2.6445525 -0.003053965 6.2530079e-22)
(2.6425197 -0.0014441048 -1.3053617e-21)
(2.6411914 -0.00024715016 2.5368348e-22)
(2.6394292 0.00053669681 -5.1291545e-22)
(2.4999185 -0.0036126394 -4.9188899e-21)
(2.4716331 -0.039605026 -1.6945609e-20)
(2.4606139 -0.069790145 -1.6159263e-21)
(2.4768637 -0.099160358 3.4241444e-21)
(2.4882387 -0.12190862 1.1977301e-21)
(2.5127447 -0.14091644 -1.4648899e-21)
(2.5336399 -0.15475751 -1.215449e-21)
(2.5630762 -0.15772998 5.3870454e-22)
(2.5862355 -0.15878774 5.5719792e-22)
(2.609496 -0.14809342 -6.7797453e-21)
(2.6276886 -0.13905674 -4.3249369e-21)
(2.6392337 -0.12146482 -4.1991263e-21)
(2.6485538 -0.10798523 2.5806334e-21)
(2.6490096 -0.092034212 6.0346465e-21)
(2.6502366 -0.080332871 7.7510908e-22)
(2.6453383 -0.071232556 1.4187493e-21)
(2.6429452 -0.06448297 -1.679908e-21)
(2.6386614 -0.061862727 1.1035681e-21)
(2.6368566 -0.059345126 4.5576727e-22)
(2.6360738 -0.059791362 5.4767576e-22)
(2.6366277 -0.058955178 1.0188632e-21)
(2.6391409 -0.059105045 1.653365e-21)
(2.6416405 -0.057723673 1.4012022e-21)
(2.6456961 -0.055785489 9.6973986e-22)
(2.6487888 -0.052854854 5.3320042e-22)
(2.6525263 -0.04864023 7.2603296e-22)
(2.6549294 -0.044264013 2.6786854e-22)
(2.6571093 -0.038556024 3.2827836e-22)
(2.65815 -0.033465779 3.5414403e-22)
(2.6584017 -0.027401958 8.0178974e-22)
(2.6579342 -0.022415026 1.2541337e-21)
(2.6564354 -0.016919894 3.1388155e-22)
(2.654935 -0.01275951 -2.8184854e-23)
(2.6524322 -0.0085502141 1.5970048e-22)
(2.6502622 -0.0054748729 1.211786e-21)
(2.6472281 -0.0026087673 1.0861607e-21)
(2.6453485 -0.00098539471 -7.405059e-22)
(2.642864 0.00016109658 -1.1245441e-21)
(2.641211 0.00083845013 -1.8756244e-21)
(2.6390691 0.0010214552 -2.5411223e-22)
(2.4921729 0.011276414 1.3167531e-20)
(2.4553586 -0.029395845 5.8855741e-21)
(2.4389793 -0.064000538 -5.4115816e-21)
(2.4553949 -0.1001342 -3.1190926e-22)
(2.4665279 -0.12857802 4.6053934e-21)
(2.4939629 -0.15358429 1.6328485e-21)
(2.517706 -0.17223158 -8.9061566e-22)
(2.5531124 -0.17835348 2.3796697e-21)
(2.5811278 -0.18163397 4.1057385e-21)
(2.6107261 -0.17024037 2.161308e-21)
(2.6338906 -0.16027986 -4.8225722e-21)
(2.6494424 -0.13856395 -1.1919301e-20)
(2.6618793 -0.12169022 -1.196953e-20)
(2.6624744 -0.10052394 -1.9028077e-20)
(2.6637319 -0.084950603 -1.6120026e-20)
(2.6560066 -0.072418707 -1.901734e-21)
(2.6514827 -0.063355134 -1.3337111e-21)
(2.6436942 -0.060145255 -2.9901927e-21)
(2.6394013 -0.057408919 -3.6676614e-22)
(2.6362061 -0.059366708 2.0055457e-22)
(2.6352034 -0.059752554 3.0978975e-22)
(2.6370016 -0.062183086 -2.667036e-22)
(2.6392413 -0.062430502 3.1530375e-22)
(2.644014 -0.062450723 1.7198287e-21)
(2.6478422 -0.060774687 1.3150692e-21)
(2.6530811 -0.057630478 7.9200928e-22)
(2.6566959 -0.053783012 9.8108133e-22)
(2.660528 -0.04816916 6.1712367e-22)
(2.6627116 -0.042864294 6.8015117e-22)
(2.6642325 -0.036098998 7.5195885e-22)
(2.6645986 -0.03039071 1.1891546e-21)
(2.663851 -0.023789088 1.1422203e-21)
(2.6625468 -0.01859245 2.4721373e-22)
(2.6600268 -0.013058454 5.7654171e-22)
(2.6577481 -0.0090128305 7.6743463e-22)
(2.6543932 -0.0050812925 -5.8481858e-24)
(2.6515874 -0.0023643486 -1.4467766e-22)
(2.6479123 4.653059e-06 7.9350031e-23)
(2.6455988 0.0011819423 -2.7237031e-22)
(2.6427 0.001831471 1.3634507e-21)
(2.6407032 0.0019357455 2.9540729e-21)
(2.6382669 0.0015057134 4.1732022e-21)
(2.4843633 0.028245816 -2.1442563e-21)
(2.4381493 -0.016975326 1.4173674e-20)
(2.4154973 -0.056009224 7.2695449e-21)
(2.4313695 -0.099682619 3.9449048e-21)
(2.4417028 -0.13461439 9.0437424e-21)
(2.4719616 -0.16668016 2.0905942e-21)
(2.4985653 -0.19109873 -7.761029e-22)
(2.5405677 -0.20140587 -2.31862e-21)
(2.574078 -0.20774523 7.6588896e-22)
(2.6113405 -0.19613569 3.1653692e-21)
(2.6405968 -0.18555589 1.2828781e-21)
(2.6615925 -0.15923877 -3.5655491e-21)
(2.6783751 -0.13840504 -1.0288851e-20)
(2.6797443 -0.11058124 7.5165092e-21)
(2.6815165 -0.089912562 1.126972e-21)
(2.6704833 -0.072510178 -1.144481e-20)
(2.6633581 -0.060014109 2.1412756e-21)
(2.6509226 -0.055476332 1.6447854e-21)
(2.6431934 -0.052049804 1.1924429e-22)
(2.6364496 -0.055622539 -8.2263756e-22)
(2.6329943 -0.057372854 -2.6665006e-22)
(2.6333384 -0.062708997 -3.5823146e-22)
(2.6347742 -0.065118513 -9.1676962e-22)
(2.6400082 -0.067895357 -2.3281135e-21)
(2.6444448 -0.068113235 -1.0589033e-21)
(2.6513508 -0.066761172 -2.1285498e-21)
(2.6563612 -0.063982419 -2.6795022e-21)
(2.6622618 -0.058954912 -1.7481815e-21)
(2.6660138 -0.053783912 -2.1379712e-21)
(2.6693855 -0.046554327 -1.5699248e-21)
(2.6709746 -0.040225996 -1.5434236e-21)
(2.6714219 -0.032471292 -1.4142751e-21)
(2.6708555 -0.026226249 -1.4958222e-21)
(2.6688775 -0.01927368 4.193035e-22)
(2.6666099 -0.014010741 7.4167957e-22)
(2.6629879 -0.0086315467 1.7884364e-21)
(2.6598999 -0.0048321404 1.0662718e-21)
(2.6557031 -0.0013227827 -1.8972355e-21)
(2.6522832 0.00093797937 -1.7124424e-21)
(2.6480154 0.0027207747 2.8981555e-21)
(2.6453047 0.0034383422 4.5024016e-21)
(2.642028 0.003511102 1.1052595e-21)
(2.6397368 0.00303061 2.2341726e-21)
(2.6370543 0.0019808392 2.58912e-21)
(2.4762571 0.047151716 -2.1878654e-21)
(2.4202837 -0.0023483812 -1.0105673e-20)
(2.3904082 -0.045678249 5.2720917e-21)
(2.4049686 -0.097660369 1.3538196e-20)
(2.4137854 -0.13981597 1.0534187e-20)
(2.4466599 -0.18003046 4.5185352e-21)
(2.4760118 -0.21124715 -2.1647178e-21)
(2.5251797 -0.22691929 -2.9482313e-21)
(2.5647422 -0.23731422 -4.4323467e-21)
(2.6110714 -0.2261964 2.9496691e-21)
(2.6475529 -0.21545536 5.2656311e-21)
(2.6756783 -0.18417851 7.6386648e-21)
(2.6983152 -0.15893454 3.135126e-21)
(2.7013881 -0.12284609 1.5773508e-20)
(2.7044248 -0.095665406 3.3019332e-20)
(2.6896528 -0.071608078 8.6221616e-21)
(2.6795097 -0.054246777 -3.1863953e-21)
(2.6611456 -0.047424694 3.0990416e-21)
(2.6488671 -0.042548011 2.6428448e-21)
(2.637198 -0.047705597 -4.6191492e-22)
(2.6301491 -0.050902214 -1.3662434e-21)
(2.6280682 -0.05980732 -1.8556929e-22)
(2.6279471 -0.064958114 -2.71268e-22)
(2.6332253 -0.071414987 -6.2469854e-22)
(2.6379957 -0.074284731 -1.9629978e-21)
(2.6466386 -0.075612463 -1.048984e-21)
(2.6531833 -0.074592932 -2.0650268e-21)
(2.661584 -0.070817231 -5.2358961e-21)
(2.6672908 -0.066264794 -4.3923643e-21)
(2.6731008 -0.058935052 -2.6890359e-21)
(2.676463 -0.052212934 -2.1633876e-21)
(2.6787633 -0.043369478 -1.0385237e-21)
(2.6793602 -0.036067485 -9.1028788e-22)
(2.6783557 -0.027534959 -9.4249324e-22)
(2.6766329 -0.020923024 9.0250342e-22)
(2.6732588 -0.013876927 7.8065448e-22)
(2.6699477 -0.0087298427 1.7719036e-21)
(2.6652034 -0.0037186012 2.6002434e-22)
(2.6613131 -0.00030624255 -2.5679074e-21)
(2.6563239 0.0026450519 -2.2519938e-21)
(2.6523415 0.0043644073 2.1189365e-21)
(2.6475599 0.0054861075 2.8970573e-21)
(2.6444857 0.0056826984 -3.5523762e-22)
(2.6408873 0.0051648686 -2.5753173e-21)
(2.6383559 0.0041031446 -2.3144713e-21)
(2.6354691 0.0024390565 -3.6854305e-21)
(2.4624935 0.067877568 6.9653528e-21)
(2.4007912 0.01458481 -6.8850055e-21)
(2.3630392 -0.032828897 -1.4487293e-20)
(2.3761369 -0.093721523 -1.210732e-20)
(2.3826855 -0.14383225 -4.5808467e-21)
(2.4176338 -0.19330938 1.4552288e-21)
(2.4494986 -0.23233316 -4.4121204e-21)
(2.5062155 -0.25475003 5.2399004e-22)
(2.5523484 -0.27031525 -1.6018857e-22)
(2.6093158 -0.26064526 -2.4376113e-21)
(2.6541538 -0.25043368 4.6102282e-21)
(2.6915538 -0.21414992 1.2519914e-20)
(2.7217981 -0.18415383 1.4893452e-20)
(2.727959 -0.13803987 1.0102943e-20)
(2.7333398 -0.10279477 2.2134054e-20)
(2.7145183 -0.069870609 9.2615994e-21)
(2.7010017 -0.04589335 -1.429249e-20)
(2.6752182 -0.03544717 -2.4745266e-21)
(2.6571474 -0.02814157 3.5091986e-21)
(2.6389026 -0.034797391 1.4893915e-21)
(2.6268702 -0.039340438 -1.5774151e-21)
(2.6211626 -0.052507522 1.0299873e-21)
(2.6184931 -0.061018824 2.125686e-21)
(2.6232235 -0.072199249 -1.0638187e-21)
(2.627892 -0.078595986 -1.3948161e-21)
(2.6382353 -0.083650251 1.3645168e-21)
(2.6463578 -0.085238067 2.2865611e-21)
(2.6576472 -0.083568881 6.4283973e-21)
(2.6657064 -0.080276845 3.5529459e-21)
(2.6746159 -0.073369859 1.2962674e-21)
(2.680306 -0.066616091 2.9973802e-21)
(2.6851635 -0.056867791 2.9204291e-22)
(2.6875513 -0.048575341 1.3934022e-21)
(2.6881959 -0.038334688 8.7154163e-22)
(2.6874349 -0.030247952 8.7137103e-22)
(2.6846824 -0.021268072 3.044905e-21)
(2.6816411 -0.014529183 2.9530371e-21)
(2.6767899 -0.0076904856 1.4016156e-22)
(2.6724109 -0.002863184 -1.3272882e-21)
(2.6665863 0.001567346 -8.951151e-22)
(2.6619408 0.0044606848 -5.6588013e-22)
(2.6562425 0.0067295222 -4.5358714e-22)
(2.6517661 0.0078379047 2.4530301e-22)
(2.6465572 0.0082449132 -6.704018e-21)
(2.6431726 0.0078886971 -8.9136451e-21)
(2.6393173 0.0067752559 -1.9479072e-21)
(2.6365903 0.0051421857 -3.2443138e-21)
(2.6335507 0.0028766058 -7.6384085e-21)
(2.427694 0.089483537 -1.4846914e-22)
(2.373312 0.033610288 -3.5376793e-21)
(2.331006 -0.017465993 -1.6873718e-20)
(2.3443342 -0.087662661 -2.9617072e-20)
(2.3484956 -0.14627764 -2.7645446e-20)
(2.3844539 -0.20585335 -1.3954844e-20)
(2.4182801 -0.25378085 -8.3723272e-21)
(2.4824138 -0.28428353 5.6937338e-21)
(2.5354834 -0.30633281 1.0518548e-20)
(2.6044034 -0.29929951 3.7073395e-20)
(2.6588127 -0.2904907 3.551767e-20)
(2.7078728 -0.24949502 -2.2614445e-20)
(2.7478927 -0.21472697 -1.5692743e-20)
(2.7593376 -0.15698301 -4.7987904e-21)
(2.7686324 -0.11196488 -9.7874957e-21)
(2.7460424 -0.067630421 1.7321443e-23)
(2.7289512 -0.034867588 -1.2573481e-20)
(2.694162 -0.019064526 -1.0766608e-20)
(2.6688866 -0.0080846471 5.6323412e-22)
(2.6421113 -0.015821497 1.8829935e-21)
(2.6234269 -0.021621645 -8.0869809e-23)
(2.6126086 -0.039809929 -1.2202663e-21)
(2.6061572 -0.052287282 1.2021945e-21)
(2.6095738 -0.069360604 2.3352085e-21)
(2.6135301 -0.080268276 -6.4541578e-22)
(2.6254178 -0.090251738 1.017916e-21)
(2.6350574 -0.095445006 3.6783033e-21)
(2.649567 -0.096913722 -2.5660507e-22)
(2.6603326 -0.095701497 3.6372104e-21)
(2.6730151 -0.089942114 6.2523537e-21)
(2.6816548 -0.083667025 4.1538076e-21)
(2.6899054 -0.073324652 7.3665616e-21)
(2.6947555 -0.064230246 4.8668579e-21)
(2.6978017 -0.052251835 1.9065519e-21)
(2.6986512 -0.042576611 1.4115369e-21)
(2.6971509 -0.031343355 -9.9253594e-22)
(2.6947442 -0.022777923 1.0324388e-21)
(2.690063 -0.013762873 3.3245928e-21)
(2.6856193 -0.0071815961 6.5375778e-22)
(2.6793036 -0.00086580637 -1.023431e-21)
(2.673896 0.0034307148 -6.0149037e-22)
(2.6670909 0.0070924487 2.0738144e-21)
(2.6617654 0.0093532494 2.224623e-21)
(2.6554682 0.010836058 9.7703599e-22)
(2.6505807 0.011282228 -5.6120519e-21)
(2.6450415 0.010943583 -4.9590037e-21)
(2.6414088 0.010023002 1.7200964e-21)
(2.6373644 0.0083187929 1.2264015e-21)
(2.6344885 0.0061287928 -2.8765513e-21)
(2.631343 0.0032849034 -8.0314505e-22)
(2.3668492 0.10927023 -1.1472818e-21)
(2.3255836 0.05234414 3.2969827e-21)
(2.2907754 -0.00096747628 1.3242631e-22)
(2.308473 -0.079868835 -3.2001044e-20)
(2.311979 -0.14726082 -4.4364357e-20)
(2.3480246 -0.21753924 -2.1677372e-20)
(2.3827958 -0.27510693 -8.5589096e-21)
(2.4533393 -0.31524466 -1.1110923e-20)
(2.5132606 -0.34511262 2.1822761e-21)
(2.5954571 -0.3419223 -4.119451e-21)
(2.6603803 -0.33574532 2.0832051e-20)
(2.7234687 -0.29024182 4.2214722e-20)
(2.7756209 -0.25097013 -1.3157445e-20)
(2.7938108 -0.17988373 -9.2974866e-20)
(2.8094346 -0.12355086 -8.3990143e-20)
(2.7838015 -0.065119995 5.7859188e-21)
(2.7634869 -0.021116169 1.5355465e-20)
(2.7189045 0.0019911428 -1.1616688e-20)
(2.684849 0.018384226 -9.8435251e-21)
(2.6474506 0.010080244 2.1873796e-21)
(2.6200944 0.0033484295 3.4238143e-21)
(2.6024759 -0.020514618 1.746222e-21)
(2.5907034 -0.037710528 7.7093624e-22)
(2.5918563 -0.061968074 -2.0602019e-21)
(2.5943154 -0.078474165 -9.9319438e-22)
(2.6074706 -0.094727164 2.5940126e-21)
(2.6184518 -0.10466343 4.2264751e-21)
(2.636427 -0.11047513 -1.1719367e-21)
(2.6501965 -0.11232802 -4.9882599e-21)
(2.6673177 -0.10863341 -7.406114e-21)
(2.6795376 -0.10353413 -5.1004519e-21)
(2.6920905 -0.093111282 -3.3807095e-21)
(2.7001971 -0.083526863 -4.3164979e-22)
(2.7065828 -0.069856069 3.9811493e-21)
(2.7097663 -0.058573927 1.172363e-21)
(2.7102426 -0.044832737 -2.1022111e-21)
(2.7090793 -0.034145304 -4.4421887e-21)
(2.7050937 -0.022466069 5.4550158e-22)
(2.7008601 -0.013810925 2.7149823e-21)
(2.6942072 -0.0052127268 -1.6465105e-21)
(2.6883658 0.00089427046 -3.2723576e-21)
(2.6806921 0.0064016231 -2.5982276e-21)
(2.6743448 0.0099921822 -8.7705726e-23)
(2.6667024 0.012713477 1.7548358e-21)
(2.6608017 0.014242318 5.6236596e-22)
(2.6540372 0.014874982 1.8158671e-22)
(2.6488303 0.014627619 8.9394157e-22)
(2.6430612 0.013534709 3.398512e-21)
(2.6392447 0.012051084 2.9561772e-21)
(2.6350776 0.0097726301 -2.5607512e-21)
(2.6320978 0.0070484835 -5.8637482e-22)
(2.6288914 0.0036606272 6.2097572e-21)
(2.2984736 0.12650511 1.8572419e-21)
(2.2605611 0.067560832 4.342558e-21)
(2.2388416 0.013050013 8.6933278e-21)
(2.2666911 -0.071968243 1.2591244e-20)
(2.2736616 -0.14753315 -1.7814807e-20)
(2.3097132 -0.22849838 -2.14721e-20)
(2.3445294 -0.29628949 4.7588917e-22)
(2.421197 -0.34774099 -6.3004528e-21)
(2.4870286 -0.38683526 -8.7129352e-21)
(2.5833924 -0.39022169 -3.4012422e-20)
(2.6597019 -0.38760641 -4.0719986e-20)
(2.7413743 -0.33864027 -2.1372975e-20)
(2.8079022 -0.29496756 -1.7142447e-21)
(2.8350606 -0.20778213 1.5450083e-20)
(2.8589861 -0.13835941 -5.9931778e-20)
(2.8273065 -0.062004284 -6.867301e-20)
(2.8045289 -0.0042856658 1.6881753e-20)
(2.7482999 0.028417454 1.8579975e-20)
(2.7046253 0.052165962 -6.9959055e-21)
(2.6551659 0.043746196 -7.417783e-21)
(2.617033 0.036795519 3.9474847e-21)
(2.59067 0.0063452763 5.4647951e-21)
(2.5718182 -0.016196603 3.9765531e-21)
(2.5696739 -0.049044632 -3.5244314e-21)
(2.5696636 -0.07238909 -6.2331027e-21)
(2.5837113 -0.096361166 -6.5680755e-21)
(2.5957454 -0.11230497 -3.2499102e-21)
(2.6173276 -0.12379646 7.8703816e-21)
(2.6343172 -0.12985514 2.8090445e-21)
(2.6564843 -0.12934476 -2.0697862e-21)
(2.672904 -0.1262996 -4.3293761e-21)
(2.6907239 -0.11651433 -1.8347794e-21)
(2.702948 -0.10693695 -1.3169232e-22)
(2.7137507 -0.091802246 -6.8513098e-21)
(2.7201665 -0.078974899 -2.746082e-21)
(2.7235688 -0.062473347 -4.1137105e-22)
(2.724351 -0.04942595 -3.5666412e-21)
(2.7216786 -0.034617896 -2.8742636e-21)
(2.7181676 -0.023430148 1.8885595e-21)
(2.7115442 -0.011935953 1.8223366e-21)
(2.7054282 -0.0036256496 -2.3459549e-21)
(2.6968915 0.0041096618 -4.0992707e-21)
(2.6897557 0.0094762876 -3.4721531e-21)