/*--------------------------------*- C++ -*----------------------------------*\
| =========                 |                                                 |
| \\      /  F ield         | OpenFOAM: The Open Source CFD Toolbox           |
|  \\    /   O peration     | Version:  v2012                                 |
|   \\  /    A nd           | Website:  www.openfoam.com                      |
|    \\/     M anipulation  |                                                 |
\*---------------------------------------------------------------------------*/
FoamFile
{
    version     2.0;
    format      ascii;
    class       volVectorField;
    location    "65.2895086693644942";
    object      cellDisplacement;
}
// * * * * * * * * * * * * * * * * * * * * * * * * * * * * * * * * * * * * * //

dimensions      [0 1 0 0 0 0 0];


internalField   nonuniform List<vector> 
9200
(
(-0.048383232 0 0)
(-0.048574914 0 0)
(-0.1402624 0 0)
(-0.048873126 0 0)
(-0.14075104 0 0)
(-0.22555229 0 0)
(-0.049219136 0 0)
(-0.14151067 0 0)
(-0.22625414 0 0)
(-0.30456626 0 0)
(-0.049592322 0 0)
(-0.14244502 0 0)
(-0.22744731 0 0)
(-0.30551388 0 0)
(-0.37773927 0 0)
(-0.049973579 0 0)
(-0.14345716 0 0)
(-0.22888503 0 0)
(-0.30704653 0 0)
(-0.37885106 0 0)
(-0.4454297 0 0)
(-0.050348879 0 0)
(-0.14449641 0 0)
(-0.23045728 0 0)
(-0.30894513 0 0)
(-0.38073545 0 0)
(-0.44674187 0 0)
(-0.50803319 0 0)
(-0.050710021 0 0)
(-0.14552512 0 0)
(-0.23207608 0 0)
(-0.31103321 0 0)
(-0.38307655 0 0)
(-0.44893634 0 0)
(-0.50950146 0 0)
(-0.56589074 0 0)
(-0.051049181 0 0)
(-0.14651382 0 0)
(-0.23367916 0 0)
(-0.31318335 0 0)
(-0.38564394 0 0)
(-0.45167955 0 0)
(-0.51201275 0 0)
(-0.56754829 0 0)
(-0.61934657 0 0)
(-0.051364062 0 0)
(-0.14744763 0 0)
(-0.23522484 0 0)
(-0.31531479 0 0)
(-0.3882984 0 0)
(-0.45472072 0 0)
(-0.51516693 0 0)
(-0.57034835 0 0)
(-0.62115873 0 0)
(-0.66870262 0 0)
(-0.05165133 0 0)
(-0.14831199 0 0)
(-0.2366823 0 0)
(-0.31737025 0 0)
(-0.39093292 0 0)
(-0.4578699 0 0)
(-0.51867631 0 0)
(-0.57390461 0 0)
(-0.62427639 0 0)
(-0.67070359 0 0)
(-0.71424464 0 0)
(-0.051911856 0 0)
(-0.14910463 0 0)
(-0.23803637 0 0)
(-0.31931009 0 0)
(-0.39347403 0 0)
(-0.4609992 0 0)
(-0.5223165 0 0)
(-0.5778771 0 0)
(-0.62823674 0 0)
(-0.67411443 0 0)
(-0.71640986 0 0)
(-0.75624024 0 0)
(-0.052145029 0 0)
(-0.14982068 0 0)
(-0.2392751 0 0)
(-0.32111159 0 0)
(-0.39587488 0 0)
(-0.46401807 0 0)
(-0.52593581 0 0)
(-0.58201285 0 0)
(-0.63267529 0 0)
(-0.67847265 0 0)
(-0.72014421 0 0)
(-0.75860076 0 0)
(-0.79493256 0 0)
(-0.052353108 0 0)
(-0.15046401 0 0)
(-0.24039832 0 0)
(-0.32276143 0 0)
(-0.39810283 0 0)
(-0.46687344 0 0)
(-0.52943671 0 0)
(-0.58613657 0 0)
(-0.63732481 0 0)
(-0.68339646 0 0)
(-0.72492102 0 0)
(-0.76264209 0 0)
(-0.79746958 0 0)
(-0.83055725 0 0)
(-0.052537054 0 0)
(-0.15103574 0 0)
(-0.2414049 0 0)
(-0.32425564 0 0)
(-0.40014457 0 0)
(-0.46952425 0 0)
(-0.53274464 0 0)
(-0.59012279 0 0)
(-0.64195198 0 0)
(-0.6885368 0 0)
(-0.73030578 0 0)
(-0.76783117 0 0)
(-0.80185121 0 0)
(-0.83329597 0 0)
(-0.86331585 0 0)
(-0.052699386 0 0)
(-0.15154165 0 0)
(-0.24230147 0 0)
(-0.32559615 0 0)
(-0.40199156 0 0)
(-0.47195493 0 0)
(-0.53582433 0 0)
(-0.5938936 0 0)
(-0.64643536 0 0)
(-0.69370215 0 0)
(-0.73599177 0 0)
(-0.77371998 0 0)
(-0.807477 0 0)
(-0.838002 0 0)
(-0.86624162 0 0)
(-0.89341629 0 0)
(-0.052841891 0 0)
(-0.15198645 0 0)
(-0.24309339 0 0)
(-0.32678911 0 0)
(-0.40364957 0 0)
(-0.47415522 0 0)
(-0.53864475 0 0)
(-0.59740608 0 0)
(-0.65068759 0 0)
(-0.69870406 0 0)
(-0.74167892 0 0)
(-0.77991183 0 0)
(-0.81384993 0 0)
(-0.84406228 0 0)
(-0.87130251 0 0)
(-0.89654967 0 0)
(-0.92103108 0 0)
(-0.052966753 0 0)
(-0.15237566 0 0)
(-0.24378923 0 0)
(-0.32784397 0 0)
(-0.40512227 0 0)
(-0.47612956 0 0)
(-0.54120523 0 0)
(-0.60062797 0 0)
(-0.65464342 0 0)
(-0.70344913 0 0)
(-0.74721992 0 0)
(-0.78616883 0 0)
(-0.82060823 0 0)
(-0.85096203 0 0)
(-0.87782044 0 0)
(-0.90194964 0 0)
(-0.92436039 0 0)
(-0.94634454 0 0)
(-0.053076101 0 0)
(-0.15271571 0 0)
(-0.24439752 0 0)
(-0.32877037 0 0)
(-0.40642457 0 0)
(-0.47788547 0 0)
(-0.54349949 0 0)
(-0.60355291 0 0)
(-0.65828589 0 0)
(-0.70788001 0 0)
(-0.75248811 0 0)
(-0.79227174 0 0)
(-0.82742725 0 0)
(-0.85826175 0 0)
(-0.88523583 0 0)
(-0.90892561 0 0)
(-0.93012694 0 0)
(-0.94988404 0 0)
(-0.96950237 0 0)
(-0.0531716 0 0)
(-0.15301111 0 0)
(-0.24492602 0 0)
(-0.32958054 0 0)
(-0.4075659 0 0)
(-0.47943617 0 0)
(-0.54554535 0 0)
(-0.60617891 0 0)
(-0.66158727 0 0)
(-0.71195417 0 0)
(-0.75741305 0 0)
(-0.79808663 0 0)
(-0.83410807 0 0)
(-0.86568136 0 0)
(-0.89313119 0 0)
(-0.91689221 0 0)
(-0.93757775 0 0)
(-0.95600082 0 0)
(-0.97324214 0 0)
(-0.99066707 0 0)
(-0.053255333 0 0)
(-0.15326853 0 0)
(-0.24538494 0 0)
(-0.33028522 0 0)
(-0.40856456 0 0)
(-0.48079765 0 0)
(-0.54734906 0 0)
(-0.60851817 0 0)
(-0.66456241 0 0)
(-0.71566442 0 0)
(-0.76194995 0 0)
(-0.80352819 0 0)
(-0.84049447 0 0)
(-0.8729652 0 0)
(-0.90114418 0 0)
(-0.92536204 0 0)
(-0.94608693 0 0)
(-0.96392499 0 0)
(-0.97973117 0 0)
(-0.99461737 0 0)
(-1.0099653 0 0)
(-0.053328422 0 0)
(-0.1534915 0 0)
(-0.24578033 0 0)
(-0.33089629 0 0)
(-0.409431 0 0)
(-0.48198582 0 0)
(-0.54893667 0 0)
(-0.610586 0 0)
(-0.66720812 0 0)
(-0.71900064 0 0)
(-0.76608505 0 0)
(-0.80855571 0 0)
(-0.84648503 0 0)
(-0.87994859 0 0)
(-0.90905183 0 0)
(-0.93401219 0 0)
(-0.95517946 0 0)
(-0.97300451 0 0)
(-0.98814105 0 0)
(-1.0014615 0 0)
(-1.0141175 0 0)
(-1.0275411 0 0)
(-0.053392809 0 0)
(-0.153686 0 0)
(-0.24612254 0 0)
(-0.33142401 0 0)
(-0.41018359 0 0)
(-0.48301982 0 0)
(-0.55031986 0 0)
(-0.61240195 0 0)
(-0.66955401 0 0)
(-0.72198355 0 0)
(-0.76981285 0 0)
(-0.81313912 0 0)
(-0.85202654 0 0)
(-0.8865135 0 0)
(-0.91665138 0 0)
(-0.94255686 0 0)
(-0.96445589 0 0)
(-0.98270107 0 0)
(-0.99778264 0 0)
(-1.0103542 0 0)
(-1.021334 0 0)
(-1.0319006 0 0)
(-1.0435037 0 0)
(-0.053449088 0 0)
(-0.15385472 0 0)
(-0.24641601 0 0)
(-0.3318796 0 0)
(-0.41083208 0 0)
(-0.48391458 0 0)
(-0.55152584 0 0)
(-0.61398902 0 0)
(-0.67161072 0 0)
(-0.72462116 0 0)
(-0.77314636 0 0)
(-0.81728382 0 0)
(-0.8570887 0 0)
(-0.89259241 0 0)
(-0.92381513 0 0)
(-0.95079563 0 0)
(-0.97365506 0 0)
(-0.99264188 0 0)
(-1.0081209 0 0)
(-1.0205758 0 0)
(-1.0307151 0 0)
(-1.0394716 0 0)
(-1.0480621 0 0)
(-1.0579797 0 0)
(-0.053498953 0 0)
(-0.15400255 0 0)
(-0.24667025 0 0)
(-0.33227155 0 0)
(-0.41139254 0 0)
(-0.48468854 0 0)
(-0.55256773 0 0)
(-0.61536858 0 0)
(-0.67341314 0 0)
(-0.72694751 0 0)
(-0.77610372 0 0)
(-0.82099044 0 0)
(-0.86167158 0 0)
(-0.89816131 0 0)
(-0.93046376 0 0)
(-0.95858525 0 0)
(-0.9825545 0 0)
(-1.0025113 0 0)
(-1.0187147 0 0)
(-1.0315381 0 0)
(-1.0415075 0 0)
(-1.0493347 0 0)
(-1.0559993 0 0)
(-1.0627393 0 0)
(-1.0710651 0 0)
(-0.053542645 0 0)
(-0.15413158 0 0)
(-0.24688847 0 0)
(-0.33260969 0 0)
(-0.41187377 0 0)
(-0.48535482 0 0)
(-0.55347065 0 0)
(-0.61656529 0 0)
(-0.67497705 0 0)
(-0.72897909 0 0)
(-0.77870984 0 0)
(-0.82428831 0 0)
(-0.86578038 0 0)
(-0.90320527 0 0)
(-0.93656148 0 0)
(-0.965825 0 0)
(-0.99097565 0 0)
(-1.0120715 0 0)
(-1.0292645 0 0)
(-1.0428171 0 0)
(-1.0531209 0 0)
(-1.0607082 0 0)
(-1.0663455 0 0)
(-1.0710241 0 0)
(-1.0760183 0 0)
(-1.0828719 0 0)
(-0.053581598 0 0)
(-0.15424558 0 0)
(-0.24707869 0 0)
(-0.33290083 0 0)
(-0.41228939 0 0)
(-0.48593004 0 0)
(-0.55424693 0 0)
(-0.61759824 0 0)
(-0.67633644 0 0)
(-0.73075362 0 0)
(-0.78099498 0 0)
(-0.82719476 0 0)
(-0.86943891 0 0)
(-0.90774146 0 0)
(-0.94209444 0 0)
(-0.97247429 0 0)
(-0.99883785 0 0)
(-1.0211667 0 0)
(-1.0395185 0 0)
(-1.0540626 0 0)
(-1.0650713 0 0)
(-1.072955 0 0)
(-1.0782888 0 0)
(-1.0818449 0 0)
(-1.0846575 0 0)
(-1.0880173 0 0)
(-1.0934841 0 0)
(-0.053615977 0 0)
(-0.15434599 0 0)
(-0.24724326 0 0)
(-0.33315312 0 0)
(-0.41264679 0 0)
(-0.48642479 0 0)
(-0.55491772 0 0)
(-0.61849047 0 0)
(-0.67750783 0 0)
(-0.73228975 0 0)
(-0.78298733 0 0)
(-0.82974997 0 0)
(-0.8726727 0 0)
(-0.91178209 0 0)
(-0.9470777 0 0)
(-0.97852727 0 0)
(-1.0060722 0 0)
(-1.0296566 0 0)
(-1.0492735 0 0)
(-1.0650069 0 0)
(-1.0770207 0 0)
(-1.0856018 0 0)
(-1.0911861 0 0)
(-1.0943605 0 0)
(-1.0959487 0 0)
(-1.0969927 0 0)
(-1.098814 0 0)
(-1.1029993 0 0)
(-0.053646782 0 0)
(-0.1544362 0 0)
(-0.24738858 0 0)
(-0.33337201 0 0)
(-0.41295679 0 0)
(-0.48685282 0 0)
(-0.55549407 0 0)
(-0.61925827 0 0)
(-0.67852191 0 0)
(-0.7336231 0 0)
(-0.7847202 0 0)
(-0.83197736 0 0)
(-0.87551557 0 0)
(-0.91536481 0 0)
(-0.95152655 0 0)
(-0.98397886 0 0)
(-1.0126626 0 0)
(-1.0374988 0 0)
(-1.0584299 0 0)
(-1.0754644 0 0)
(-1.0886819 0 0)
(-1.0982639 0 0)
(-1.1045126 0 0)
(-1.1078898 0 0)
(-1.1090232 0 0)
(-1.1087425 0 0)
(-1.1081274 0 0)
(-1.1085106 0 0)
(-1.1114922 0 0)
(-0.053672659 0 0)
(-0.15451638 0 0)
(-0.24751631 0 0)
(-0.33356374 0 0)
(-0.41322568 0 0)
(-0.4872228 0 0)
(-0.5559932 0 0)
(-0.61992113 0 0)
(-0.67939288 0 0)
(-0.73477136 0 0)
(-0.78621982 0 0)
(-0.83391862 0 0)
(-0.87800237 0 0)
(-0.91851542 0 0)
(-0.95547545 0 0)
(-0.9888642 0 0)
(-1.0186201 0 0)
(-1.0446596 0 0)
(-1.066902 0 0)
(-1.0852891 0 0)
(-1.0998334 0 0)
(-1.1106409 0 0)
(-1.117892 0 0)
(-1.121913 0 0)
(-1.1231923 0 0)
(-1.1223725 0 0)
(-1.1203285 0 0)
(-1.1181439 0 0)
(-1.1171775 0 0)
(-1.1190486 0 0)
(-0.053472332 0 0)
(-0.154586 0 0)
(-0.24763246 0 0)
(-0.33373361 0 0)
(-0.41346199 0 0)
(-0.48754591 0 0)
(-0.55642425 0 0)
(-0.62049238 0 0)
(-0.68014709 0 0)
(-0.73576544 0 0)
(-0.78751789 0 0)
(-0.83559789 0 0)
(-0.88016781 0 0)
(-0.92127913 0 0)
(-0.95895673 0 0)
(-0.99320005 0 0)
(-1.0239585 0 0)
(-1.0511442 0 0)
(-1.0746585 0 0)
(-1.0944102 0 0)
(-1.1103546 0 0)
(-1.1225215 0 0)
(-1.1310051 0 0)
(-1.1360129 0 0)
(-1.1378926 0 0)
(-1.1371617 0 0)
(-1.1344981 0 0)
(-1.1307826 0 0)
(-1.1271288 0 0)
(-1.1249025 0 0)
(-1.1257341 0 0)
(-0.053229015 0 0)
(-0.15415909 0 0)
(-0.24773111 0 0)
(-0.33388491 0 0)
(-0.41367144 0 0)
(-0.48782897 0 0)
(-0.5568006 0 0)
(-0.62098816 0 0)
(-0.68079581 0 0)
(-0.7366206 0 0)
(-0.78863701 0 0)
(-0.83705337 0 0)
(-0.88204803 0 0)
(-0.92368594 0 0)
(-0.96201166 0 0)
(-0.99703667 0 0)
(-1.0287168 0 0)
(-1.0569681 0 0)
(-1.0816931 0 0)
(-1.1027839 0 0)
(-1.1201456 0 0)
(-1.1337394 0 0)
(-1.1436044 0 0)
(-1.149858 0 0)
(-1.1527127 0 0)
(-1.1525482 0 0)
(-1.1499071 0 0)
(-1.145483 0 0)
(-1.1401942 0 0)
(-1.1351546 0 0)
(-1.1317494 0 0)
(-1.131623 0 0)
(-0.053008954 0 0)
(-0.15342733 0 0)
(-0.24709761 0 0)
(-0.33401564 0 0)
(-0.41385925 0 0)
(-0.48808006 0 0)
(-0.55712995 0 0)
(-0.62141884 0 0)
(-0.6813601 0 0)
(-0.73736166 0 0)
(-0.78960427 0 0)
(-0.83830694 0 0)
(-0.88367467 0 0)
(-0.92578087 0 0)
(-0.96467938 0 0)
(-1.0004028 0 0)
(-1.0329249 0 0)
(-1.0621672 0 0)
(-1.0880297 0 0)
(-1.1103968 0 0)
(-1.1291577 0 0)
(-1.1442182 0 0)
(-1.1555497 0 0)
(-1.1632053 0 0)
(-1.1673004 0 0)
(-1.1680844 0 0)
(-1.1659574 0 0)
(-1.1614907 0 0)
(-1.1554078 0 0)
(-1.1486312 0 0)
(-1.142297 0 0)
(-1.1377935 0 0)
(-1.136774 0 0)
(-0.052814359 0 0)
(-0.15276443 0 0)
(-0.24592397 0 0)
(-0.33319787 0 0)
(-0.41402241 0 0)
(-0.48830636 0 0)
(-0.55742193 0 0)
(-0.62179721 0 0)
(-0.6818495 0 0)
(-0.73800176 0 0)
(-0.79043852 0 0)
(-0.83939124 0 0)
(-0.88508157 0 0)
(-0.9275933 0 0)
(-0.9670004 0 0)
(-1.0033519 0 0)
(-1.0366345 0 0)
(-1.0667777 0 0)
(-1.0936931 0 0)
(-1.1172681 0 0)
(-1.1373727 0 0)
(-1.1538861 0 0)
(-1.1667262 0 0)
(-1.175873 0 0)
(-1.1813848 0 0)
(-1.1834084 0 0)
(-1.1822043 0 0)
(-1.1782062 0 0)
(-1.172007 0 0)
(-1.1643452 0 0)
(-1.1561721 0 0)
(-1.1486203 0 0)
(-1.1430927 0 0)
(-1.1412515 0 0)
(-0.052646969 0 0)
(-0.15217949 0 0)
(-0.24486298 0 0)
(-0.33163511 0 0)
(-0.41304877 0 0)
(-0.4885011 0 0)
(-0.55768488 0 0)
(-0.62213243 0 0)
(-0.68228058 0 0)
(-0.73856039 0 0)
(-0.79116194 0 0)
(-0.84032487 0 0)
(-0.88629508 0 0)
(-0.92916351 0 0)
(-0.96901406 0 0)
(-1.0059171 0 0)
(-1.0398814 0 0)
(-1.0708463 0 0)
(-1.0987309 0 0)
(-1.1234235 0 0)
(-1.1447986 0 0)
(-1.1627227 0 0)
(-1.1770707 0 0)
(-1.1877639 0 0)
(-1.1947986 0 0)
(-1.198249 0 0)
(-1.1982671 0 0)
(-1.1951541 0 0)
(-1.1893633 0 0)
(-1.1815137 0 0)
(-1.1723673 0 0)
(-1.1628776 0 0)
(-1.1541911 0 0)
(-1.1477112 0 0)
(-1.1451073 0 0)
(-0.052507775 0 0)
(-0.15167538 0 0)
(-0.24392452 0 0)
(-0.33021906 0 0)
(-0.41114555 0 0)
(-0.48739138 0 0)
(-0.5579111 0 0)
(-0.62243268 0 0)
(-0.68266199 0 0)
(-0.73904852 0 0)
(-0.79178946 0 0)
(-0.84113276 0 0)
(-0.88734395 0 0)
(-0.93051767 0 0)
(-0.9707565 0 0)
(-1.0081484 0 0)
(-1.0427199 0 0)
(-1.074419 0 0)
(-1.1031813 0 0)
(-1.1289094 0 0)
(-1.1514725 0 0)
(-1.1707313 0 0)
(-1.1865493 0 0)
(-1.1987996 0 0)
(-1.2074142 0 0)
(-1.2124012 0 0)
(-1.2138494 0 0)
(-1.2119449 0 0)
(-1.2070014 0 0)
(-1.1995051 0 0)
(-1.1900923 0 0)
(-1.1795382 0 0)
(-1.1688161 0 0)
(-1.1590664 0 0)
(-1.1517014 0 0)
(-1.1483968 0 0)
(-0.052398174 0 0)
(-0.15125672 0 0)
(-0.24311724 0 0)
(-0.3289687 0 0)
(-0.40942156 0 0)
(-0.48518437 0 0)
(-0.55667924 0 0)
(-0.62269372 0 0)
(-0.68300428 0 0)
(-0.73947991 0 0)
(-0.79233793 0 0)
(-0.841832 0 0)
(-0.88824984 0 0)
(-0.93168985 0 0)
(-0.97226351 0 0)
(-1.0100788 0 0)
(-1.045186 0 0)
(-1.0775433 0 0)
(-1.1071006 0 0)
(-1.1337679 0 0)
(-1.1574267 0 0)
(-1.1779426 0 0)
(-1.1951631 0 0)
(-1.2089386 0 0)
(-1.219154 0 0)
(-1.225753 0 0)
(-1.2287584 0 0)
(-1.2282793 0 0)
(-1.2245146 0 0)
(-1.2178183 0 0)
(-1.208693 0 0)
(-1.1977968 0 0)
(-1.1859223 0 0)
(-1.1740424 0 0)
(-1.1633037 0 0)
(-1.1551179 0 0)
(-1.1511661 0 0)
(-0.052318736 0 0)
(-0.15092592 0 0)
(-0.24244521 0 0)
(-0.3278908 0 0)
(-0.40789932 0 0)
(-0.48318764 0 0)
(-0.55420019 0 0)
(-0.62135405 0 0)
(-0.68330239 0 0)
(-0.7398659 0 0)
(-0.79282125 0 0)
(-0.84244077 0 0)
(-0.88903646 0 0)
(-0.93270224 0 0)
(-0.97356547 0 0)
(-1.0117509 0 0)
(-1.0473303 0 0)
(-1.0802677 0 0)
(-1.1105317 0 0)
(-1.1380532 0 0)
(-1.1627176 0 0)
(-1.1843923 0 0)
(-1.2029324 0 0)
(-1.2181767 0 0)
(-1.2299708 0 0)
(-1.238207 0 0)
(-1.2428496 0 0)
(-1.243932 0 0)
(-1.2415836 0 0)
(-1.2360393 0 0)
(-1.227666 0 0)
(-1.2169953 0 0)
(-1.2046978 0 0)
(-1.1915766 0 0)
(-1.1786159 0 0)
(-1.166954 0 0)
(-1.1580081 0 0)
(-1.1534626 0 0)
(-0.052270381 0 0)
(-0.15068579 0 0)
(-0.24191447 0 0)
(-0.32699461 0 0)
(-0.4065878 0 0)
(-0.48142309 0 0)
(-0.55195823 0 0)
(-0.61863507 0 0)
(-0.6818731 0 0)
(-0.74019788 0 0)
(-0.79324934 0 0)
(-0.84297609 0 0)
(-0.88972125 0 0)
(-0.93358193 0 0)
(-0.9746928 0 0)
(-1.0131951 0 0)
(-1.0491856 0 0)
(-1.0826355 0 0)
(-1.1135311 0 0)
(-1.1418148 0 0)
(-1.1673877 0 0)
(-1.1901327 0 0)
(-1.209902 0 0)
(-1.2265298 0 0)
(-1.2398519 0 0)
(-1.2497163 0 0)
(-1.2560295 0 0)
(-1.2587689 0 0)
(-1.2579896 0 0)
(-1.2538442 0 0)
(-1.2465825 0 0)
(-1.2366086 0 0)
(-1.2244673 0 0)
(-1.2108457 0 0)
(-1.1965587 0 0)
(-1.182586 0 0)
(-1.1700671 0 0)
(-1.1604181 0 0)
(-1.1553272 0 0)
(-0.052253129 0 0)
(-0.15053807 0 0)
(-0.24152794 0 0)
(-0.32628512 0 0)
(-0.40549736 0 0)
(-0.47990489 0 0)
(-0.54997739 0 0)
(-0.61617385 0 0)
(-0.67894125 0 0)
(-0.73868756 0 0)
(-0.79361985 0 0)
(-0.8434484 0 0)
(-0.89032215 0 0)
(-0.93434777 0 0)
(-0.97567025 0 0)
(-1.0144461 0 0)
(-1.0507954 0 0)
(-1.0846922 0 0)
(-1.1161408 0 0)
(-1.1451067 0 0)
(-1.1715002 0 0)
(-1.1952131 0 0)
(-1.2161132 0 0)
(-1.2340387 0 0)
(-1.2488104 0 0)
(-1.2602559 0 0)
(-1.2682382 0 0)
(-1.2726782 0 0)
(-1.2735709 0 0)
(-1.2709859 0 0)
(-1.2651022 0 0)
(-1.2562023 0 0)
(-1.2447019 0 0)
(-1.2311703 0 0)
(-1.2163019 0 0)
(-1.2009187 0 0)
(-1.1860038 0 0)
(-1.1726884 0 0)
(-1.1623904 0 0)
(-1.1568001 0 0)
(-0.15048357 0 0)
(-0.052260351 0 0)
(-0.24128905 0 0)
(-0.32576868 0 0)
(-0.40463506 0 0)
(-0.47864198 0 0)
(-0.54827409 0 0)
(-0.61400237 0 0)
(-0.67628775 0 0)
(-0.7355576 0 0)
(-0.792033 0 0)
(-0.84385866 0 0)
(-0.89085595 0 0)
(-0.93501986 0 0)
(-0.97652231 0 0)
(-1.0155306 0 0)
(-1.0521886 0 0)
(-1.0864748 0 0)
(-1.1184118 0 0)
(-1.1479789 0 0)
(-1.1751009 0 0)
(-1.1996917 0 0)
(-1.2216266 0 0)
(-1.2407455 0 0)
(-1.2568755 0 0)
(-1.2698357 0 0)
(-1.2794525 0 0)
(-1.285598 0 0)
(-1.2882149 0 0)
(-1.287311 0 0)
(-1.2829818 0 0)
(-1.2754302 0 0)
(-1.2649547 0 0)
(-1.2520034 0 0)
(-1.2371545 0 0)
(-1.2211131 0 0)
(-1.204708 0 0)
(-1.1889139 0 0)
(-1.1748602 0 0)
(-1.1639638 0 0)
(-1.1579175 0 0)
(-0.24119946 0 0)
(-0.15050223 0 0)
(-0.052291799 0 0)
(-0.32544821 0 0)
(-0.40400759 0 0)
(-0.47764466 0 0)
(-0.54685771 0 0)
(-0.61213368 0 0)
(-0.67394718 0 0)
(-0.73272741 0 0)
(-0.78872593 0 0)
(-0.8422079 0 0)
(-0.89131458 0 0)
(-0.9356164 0 0)
(-0.9772701 0 0)
(-1.0164755 0 0)
(-1.0534003 0 0)
(-1.0880227 0 0)
(-1.120382 0 0)
(-1.15048 0 0)
(-1.1782513 0 0)
(-1.2036234 0 0)
(-1.2264922 0 0)
(-1.2467104 0 0)
(-1.2641016 0 0)
(-1.278482 0 0)
(-1.28967 0 0)
(-1.2974961 0 0)
(-1.3018492 0 0)
(-1.302688 0 0)
(-1.3000427 0 0)
(-1.2940258 0 0)
(-1.2848669 0 0)
(-1.2728939 0 0)
(-1.258564 0 0)
(-1.2424748 0 0)
(-1.2253338 0 0)
(-1.207971 0 0)
(-1.1913602 0 0)
(-1.1766233 0 0)
(-1.1651767 0 0)
(-1.1587135 0 0)
(-0.32532648 0 0)
(-0.24122613 0 0)
(-0.15059328 0 0)
(-0.052354483 0 0)
(-0.40361963 0 0)
(-0.47691907 0 0)
(-0.54574023 0 0)
(-0.61058212 0 0)
(-0.67193333 0 0)
(-0.73022741 0 0)
(-0.7857303 0 0)
(-0.83873996 0 0)
(-0.88962121 0 0)
(-0.93612913 0 0)
(-0.97793051 0 0)
(-1.0173047 0 0)
(-1.0544556 0 0)
(-1.0893669 0 0)
(-1.1220946 0 0)
(-1.1526553 0 0)
(-1.1809948 0 0)
(-1.2070644 0 0)
(-1.2307748 0 0)
(-1.2519866 0 0)
(-1.270535 0 0)
(-1.2862425 0 0)
(-1.2989144 0 0)
(-1.3083608 0 0)
(-1.3144349 0 0)
(-1.317041 0 0)
(-1.3161518 0 0)
(-1.3118151 0 0)
(-1.3041731 0 0)
(-1.293477 0 0)
(-1.2800701 0 0)
(-1.2644357 0 0)
(-1.2471767 0 0)
(-1.2290055 0 0)
(-1.2107532 0 0)
(-1.1933826 0 0)
(-1.1780136 0 0)
(-1.1660611 0 0)
(-1.1592199 0 0)
(-0.40347339 0 0)
(-0.32536011 0 0)
(-0.24136998 0 0)
(-0.150778 0 0)
(-0.052447877 0 0)
(-0.47647141 0 0)
(-0.54492835 0 0)
(-0.60935754 0 0)
(-0.67026169 0 0)
(-0.72807875 0 0)
(-0.78308842 0 0)
(-0.83559855 0 0)
(-0.88601203 0 0)
(-0.93439956 0 0)
(-0.97850221 0 0)
(-1.0180364 0 0)
(-1.0553805 0 0)
(-1.0905394 0 0)
(-1.1235825 0 0)
(-1.1545465 0 0)
(-1.1833866 0 0)
(-1.2100687 0 0)
(-1.2345264 0 0)
(-1.2566381 0 0)
(-1.2762436 0 0)
(-1.2931682 0 0)
(-1.3072258 0 0)
(-1.3182193 0 0)
(-1.3259661 0 0)
(-1.330326 0 0)
(-1.331223 0 0)
(-1.328649 0 0)
(-1.3226776 0 0)
(-1.3134682 0 0)
(-1.3012977 0 0)
(-1.2865334 0 0)
(-1.2696651 0 0)
(-1.2513099 0 0)
(-1.2321767 0 0)
(-1.2130931 0 0)
(-1.1950182 0 0)
(-1.1790672 0 0)
(-1.1666515 0 0)
(-1.159465 0 0)
(-0.47630428 0 0)
(-0.40351661 0 0)
(-0.325549 0 0)
(-0.24166209 0 0)
(-0.15105417 0 0)
(-0.052571307 0 0)
(-0.54442897 0 0)
(-0.60846946 0 0)
(-0.66894285 0 0)
(-0.72629279 0 0)
(-0.78081388 0 0)
(-0.83283017 0 0)
(-0.8827493 0 0)
(-0.93066728 0 0)
(-0.97674064 0 0)
(-1.0186713 0 0)
(-1.0561982 0 0)
(-1.0915672 0 0)
(-1.1248806 0 0)
(-1.1561929 0 0)
(-1.1854655 0 0)
(-1.2126866 0 0)
(-1.2378087 0 0)
(-1.2607219 0 0)
(-1.2812799 0 0)
(-1.2993231 0 0)
(-1.3146657 0 0)
(-1.3271059 0 0)
(-1.3364465 0 0)
(-1.3425193 0 0)
(-1.3452054 0 0)
(-1.3444372 0 0)
(-1.3402289 0 0)
(-1.3326749 0 0)
(-1.3219626 0 0)
(-1.3083868 0 0)
(-1.2923293 0 0)
(-1.2742995 0 0)
(-1.2549148 0 0)
(-1.2348837 0 0)
(-1.2150305 0 0)
(-1.1963028 0 0)
(-1.1798144 0 0)
(-1.1669745 0 0)
(-1.1594772 0 0)
(-0.54424485 0 0)
(-0.47635621 0 0)
(-0.40374835 0 0)
(-0.325937 0 0)
(-0.24210292 0 0)
(-0.15142135 0 0)
(-0.052723955 0 0)
(-0.60792403 0 0)
(-0.66798698 0 0)
(-0.7248851 0 0)
(-0.77892659 0 0)
(-0.83044681 0 0)
(-0.87986962 0 0)
(-0.92729454 0 0)
(-0.97289934 0 0)
(-1.0168895 0 0)
(-1.0569021 0 0)
(-1.0924727 0 0)
(-1.1260179 0 0)
(-1.1576284 0 0)
(-1.1872773 0 0)
(-1.2149668 0 0)
(-1.2406708 0 0)
(-1.2642989 0 0)
(-1.2857147 0 0)
(-1.3047668 0 0)
(-1.3212842 0 0)
(-1.3350715 0 0)
(-1.3459217 0 0)
(-1.3536412 0 0)
(-1.3580777 0 0)
(-1.3591217 0 0)
(-1.3567274 0 0)
(-1.3509306 0 0)
(-1.341853 0 0)
(-1.3296972 0 0)
(-1.3147806 0 0)
(-1.2975041 0 0)
(-1.2783807 0 0)
(-1.2580358 0 0)
(-1.2371698 0 0)
(-1.2165993 0 0)
(-1.1972678 0 0)
(-1.1802872 0 0)
(-1.1670606 0 0)
(-1.15928 0 0)
(-0.60772493 0 0)
(-0.54430669 0 0)
(-0.47662766 0 0)
(-0.40422279 0 0)
(-0.32652118 0 0)
(-0.24268695 0 0)
(-0.15187533 0 0)
(-0.052904498 0 0)
(-0.66740108 0 0)
(-0.72386359 0 0)
(-0.77743662 0 0)
(-0.8284708 0 0)
(-0.87739547 0 0)
(-0.92431832 0 0)
(-0.96942545 0 0)
(-1.0129502 0 0)
(-1.0551098 0 0)
(-1.0932572 0 0)
(-1.1270191 0 0)
(-1.1588846 0 0)
(-1.1888561 0 0)
(-1.216952 0 0)
(-1.2431672 0 0)
(-1.2674245 0 0)
(-1.2896009 0 0)
(-1.3095652 0 0)
(-1.3271552 0 0)
(-1.3421795 0 0)
(-1.3544344 0 0)
(-1.3637176 0 0)
(-1.3698432 0 0)
(-1.3726694 0 0)
(-1.3721097 0 0)
(-1.3681325 0 0)
(-1.3607998 0 0)
(-1.3502531 0 0)
(-1.3367197 0 0)
(-1.3205306 0 0)
(-1.3020993 0 0)
(-1.2819517 0 0)
(-1.2607085 0 0)
(-1.2390661 0 0)
(-1.2178338 0 0)
(-1.1979454 0 0)
(-1.1805113 0 0)
(-1.1669321 0 0)
(-1.1588984 0 0)
(-0.66718856 0 0)
(-0.60779637 0 0)
(-0.54461501 0 0)
(-0.47717922 0 0)
(-0.40493583 0 0)
(-0.32729928 0 0)
(-0.24341346 0 0)
(-0.1524148 0 0)
(-0.053111967 0 0)
(-0.72323748 0 0)
(-0.77635768 0 0)
(-0.82691218 0 0)
(-0.87534095 0 0)
(-0.9217624 0 0)
(-0.96636474 0 0)
(-1.0093882 0 0)
(-1.0510762 0 0)
(-1.0914562 0 0)
(-1.1278876 0 0)
(-1.1599912 0 0)
(-1.1902374 0 0)
(-1.2186835 0 0)
(-1.2453412 0 0)
(-1.2701523 0 0)
(-1.2930049 0 0)
(-1.3137803 0 0)
(-1.3323346 0 0)
(-1.3484903 0 0)
(-1.3620466 0 0)
(-1.372795 0 0)
(-1.3805327 0 0)
(-1.385089 0 0)
(-1.3863418 0 0)
(-1.3842112 0 0)
(-1.378693 0 0)
(-1.3698731 0 0)
(-1.3579189 0 0)
(-1.3430688 0 0)
(-1.3256721 0 0)
(-1.3061573 0 0)
(-1.2850497 0 0)
(-1.2629724 0 0)
(-1.240611 0 0)
(-1.2187638 0 0)
(-1.1983615 0 0)
(-1.1805148 0 0)
(-1.1666156 0 0)
(-1.1583517 0 0)
(-0.72301018 0 0)
(-0.66726724 0 0)
(-0.60813731 0 0)
(-0.54523793 0 0)
(-0.47800909 0 0)
(-0.40588413 0 0)
(-0.32826431 0 0)
(-0.24427404 0 0)
(-0.15303427 0 0)
(-0.05334432 0 0)
(-0.77569599 0 0)
(-0.82578482 0 0)
(-0.87372264 0 0)
(-0.91964036 0 0)
(-0.96373421 0 0)
(-1.0062523 0 0)
(-1.0474357 0 0)
(-1.0873411 0 0)
(-1.1260876 0 0)
(-1.1609454 0 0)
(-1.1914531 0 0)
(-1.2201985 0 0)
(-1.2472384 0 0)
(-1.2725315 0 0)
(-1.295976 0 0)
(-1.3174738 0 0)
(-1.336896 0 0)
(-1.3540746 0 0)
(-1.3688185 0 0)
(-1.3809251 0 0)
(-1.3901857 0 0)
(-1.3964026 0 0)
(-1.3994162 0 0)
(-1.39912 0 0)
(-1.3954583 0 0)
(-1.3884449 0 0)
(-1.3781937 0 0)
(-1.364889 0 0)
(-1.3487888 0 0)
(-1.3302513 0 0)
(-1.3097156 0 0)
(-1.287713 0 0)
(-1.2648588 0 0)
(-1.2418315 0 0)
(-1.2194185 0 0)
(-1.1985452 0 0)
(-1.1803192 0 0)
(-1.1661303 0 0)
(-1.1576627 0 0)
(-0.77545697 0 0)
(-0.72309307 0 0)
(-0.66763591 0 0)
(-0.6088257 0 0)
(-0.54617406 0 0)
(-0.47911023 0 0)
(-0.40706017 0 0)
(-0.32941199 0 0)
(-0.24526685 0 0)
(-0.15373139 0 0)
(-0.053599902 0 0)
(-0.82509593 0 0)
(-0.87254996 0 0)
(-0.9179695 0 0)
(-0.96155367 0 0)
(-1.0035574 0 0)
(-1.0442268 0 0)
(-1.0836244 0 0)
(-1.1218987 0 0)
(-1.1591558 0 0)
(-1.1925 0 0)
(-1.2215283 0 0)
(-1.2488976 0 0)
(-1.2746076 0 0)
(-1.2985718 0 0)
(-1.3207043 0 0)
(-1.3408955 0 0)
(-1.358995 0 0)
(-1.3748218 0 0)
(-1.3881779 0 0)
(-1.3988536 0 0)
(-1.4066446 0 0)
(-1.4113609 0 0)
(-1.4128571 0 0)
(-1.4110467 0 0)
(-1.4058881 0 0)
(-1.3974261 0 0)
(-1.3857963 0 0)
(-1.3712048 0 0)
(-1.3539162 0 0)
(-1.3343021 0 0)
(-1.3128128 0 0)
(-1.2899751 0 0)
(-1.2664017 0 0)
(-1.2427597 0 0)
(-1.2198246 0 0)
(-1.198518 0 0)
(-1.17995 0 0)
(-1.1654996 0 0)
(-1.1568455 0 0)
(-0.82484952 0 0)
(-0.77554668 0 0)
(-0.72348689 0 0)
(-0.66837883 0 0)
(-0.60985584 0 0)
(-0.54741488 0 0)
(-0.48047747 0 0)
(-0.40845738 0 0)
(-0.33073304 0 0)
(-0.24638199 0 0)
(-0.15449709 0 0)
(-0.053810828 0 0)
(-0.8718332 0 0)
(-0.91675979 0 0)
(-0.95983524 0 0)
(-1.0013253 0 0)
(-1.041475 0 0)
(-1.0803546 0 0)
(-1.1181162 0 0)
(-1.1548999 0 0)
(-1.1907254 0 0)
(-1.2226787 0 0)
(-1.2503531 0 0)
(-1.2764226 0 0)
(-1.3008365 0 0)
(-1.3235262 0 0)
(-1.3444004 0 0)
(-1.3633214 0 0)
(-1.3801214 0 0)
(-1.3946154 0 0)
(-1.4066004 0 0)
(-1.4158638 0 0)
(-1.4222015 0 0)
(-1.4254373 0 0)
(-1.4254417 0 0)
(-1.4221444 0 0)
(-1.4155327 0 0)
(-1.4056717 0 0)
(-1.3927221 0 0)
(-1.3769027 0 0)
(-1.3584919 0 0)
(-1.3378658 0 0)
(-1.3154831 0 0)
(-1.2918695 0 0)
(-1.2676298 0 0)
(-1.2434213 0 0)
(-1.2200071 0 0)
(-1.1983067 0 0)
(-1.1794244 0 0)
(-1.164738 0 0)
(-1.1558646 0 0)
(-0.87157601 0 0)
(-0.82494808 0 0)
(-0.77596405 0 0)
(-0.72427858 0 0)
(-0.66949016 0 0)
(-0.61122415 0 0)
(-0.54895537 0 0)
(-0.48209937 0 0)
(-0.41006635 0 0)
(-0.33222086 0 0)
(-0.24761028 0 0)
(-0.15495477 0 0)
(-0.053794565 0 0)
(-0.91602093 0 0)
(-0.95859302 0 0)
(-0.9995671 0 0)
(-1.039193 0 0)
(-1.0775484 0 0)
(-1.1147915 0 0)
(-1.1510622 0 0)
(-1.1864104 0 0)
(-1.2209203 0 0)
(-1.2516127 0 0)
(-1.2780152 0 0)
(-1.3028168 0 0)
(-1.3259912 0 0)
(-1.347463 0 0)
(-1.3671131 0 0)
(-1.3847874 0 0)
(-1.4003129 0 0)
(-1.4134923 0 0)
(-1.4241194 0 0)
(-1.4319842 0 0)
(-1.4368859 0 0)
(-1.4386597 0 0)
(-1.4371977 0 0)
(-1.4324519 0 0)
(-1.4244268 0 0)
(-1.4132181 0 0)
(-1.3990047 0 0)
(-1.3820221 0 0)
(-1.3625506 0 0)
(-1.3409749 0 0)
(-1.3177611 0 0)
(-1.2934271 0 0)
(-1.2685717 0 0)
(-1.243843 0 0)
(-1.2199904 0 0)
(-1.1979281 0 0)
(-1.1787644 0 0)
(-1.1637361 0 0)
(-1.1546855 0 0)
(-0.9157573 0 0)
(-0.8716746 0 0)
(-0.82538808 0 0)
(-0.77680439 0 0)
(-0.72546608 0 0)
(-0.670964 0 0)
(-0.61291806 0 0)
(-0.55078193 0 0)
(-0.4839675 0 0)
(-0.41187529 0 0)
(-0.33385681 0 0)
(-0.24829557 0 0)
(-0.15491349 0 0)
(-0.053772618 0 0)
(-0.95783412 0 0)
(-0.99829766 0 0)
(-1.0373997 0 0)
(-1.0752257 0 0)
(-1.1119383 0 0)
(-1.1476861 0 0)
(-1.1825227 0 0)
(-1.2165523 0 0)
(-1.2498791 0 0)
(-1.2793886 0 0)
(-1.3045536 0 0)
(-1.3281468 0 0)
(-1.3501411 0 0)
(-1.3704336 0 0)
(-1.3888835 0 0)
(-1.4053337 0 0)
(-1.4196015 0 0)
(-1.4314821 0 0)
(-1.4407649 0 0)
(-1.4472429 0 0)
(-1.4507224 0 0)
(-1.4510553 0 0)
(-1.4481535 0 0)
(-1.4419916 0 0)
(-1.4326021 0 0)
(-1.4200992 0 0)
(-1.4046831 0 0)
(-1.3865975 0 0)
(-1.3661302 0 0)
(-1.343666 0 0)
(-1.3196782 0 0)
(-1.2946764 0 0)
(-1.2692547 0 0)
(-1.2440496 0 0)
(-1.2197946 0 0)
(-1.197406 0 0)
(-1.1777339 0 0)
(-1.1624908 0 0)
(-1.1533417 0 0)
(-0.95756461 0 0)
(-0.91585978 0 0)
(-0.87212956 0 0)
(-0.82627237 0 0)
(-0.77806065 0 0)
(-0.72703913 0 0)
(-0.67278971 0 0)
(-0.61493027 0 0)
(-0.55288654 0 0)
(-0.48606891 0 0)
(-0.41386569 0 0)
(-0.33474339 0 0)
(-0.24824507 0 0)
(-0.15486102 0 0)
(-0.053747209 0 0)
(-0.99752397 0 0)
(-1.0361031 0 0)
(-1.0733985 0 0)
(-1.1095791 0 0)
(-1.1447933 0 0)
(-1.1791025 0 0)
(-1.2126153 0 0)
(-1.2454623 0 0)
(-1.2776899 0 0)
(-1.30605 0 0)
(-1.3300348 0 0)
(-1.3524827 0 0)
(-1.3733366 0 0)
(-1.3924734 0 0)
(-1.4097508 0 0)
(-1.4249969 0 0)
(-1.4380191 0 0)
(-1.4486128 0 0)
(-1.4565632 0 0)
(-1.4616624 0 0)
(-1.463733 0 0)
(-1.4626464 0 0)
(-1.4583362 0 0)
(-1.4508008 0 0)
(-1.4400919 0 0)
(-1.4263506 0 0)
(-1.4097904 0 0)
(-1.390666 0 0)
(-1.3692631 0 0)
(-1.3459704 0 0)
(-1.3212648 0 0)
(-1.2956466 0 0)
(-1.2697021 0 0)
(-1.2440612 0 0)
(-1.2194418 0 0)
(-1.1963464 0 0)
(-1.1763647 0 0)
(-1.1610908 0 0)
(-1.1518259 0 0)
(-0.99725179 0 0)
(-0.95767107 0 0)
(-0.91632944 0 0)
(-0.87304299 0 0)
(-0.82759077 0 0)
(-0.77972801 0 0)
(-0.72899056 0 0)
(-0.67495615 0 0)
(-0.61724449 0 0)
(-0.55525315 0 0)
(-0.48837899 0 0)
(-0.41491849 0 0)
(-0.33467928 0 0)
(-0.24817729 0 0)
(-0.1547986 0 0)
(-0.053716625 0 0)
(-1.0353153 0 0)
(-1.0720809 0 0)
(-1.1077235 0 0)
(-1.1423988 0 0)
(-1.1761747 0 0)
(-1.2091582 0 0)
(-1.2414823 0 0)
(-1.2732292 0 0)
(-1.3043923 0 0)
(-1.3316654 0 0)
(-1.3545332 0 0)
(-1.3758762 0 0)
(-1.3956152 0 0)
(-1.4136241 0 0)
(-1.4297484 0 0)
(-1.4438048 0 0)
(-1.4555943 0 0)
(-1.4649079 0 0)
(-1.4715311 0 0)
(-1.4752623 0 0)
(-1.4759396 0 0)
(-1.4734584 0 0)
(-1.4677722 0 0)
(-1.458903 0 0)
(-1.4469287 0 0)
(-1.4320055 0 0)
(-1.4143632 0 0)
(-1.3942601 0 0)
(-1.3719836 0 0)
(-1.3479198 0 0)
(-1.3225504 0 0)
(-1.296361 0 0)
(-1.2699406 0 0)
(-1.2439026 0 0)
(-1.2183561 0 0)
(-1.1948084 0 0)
(-1.174855 0 0)
(-1.1595276 0 0)
(-1.1501412 0 0)
(-1.0350388 0 0)
(-0.99736396 0 0)
(-0.95815336 0 0)
(-0.91727235 0 0)
(-0.87441201 0 0)
(-0.8293391 0 0)
(-0.78179116 0 0)
(-0.73130455 0 0)
(-0.67745015 0 0)
(-0.61984768 0 0)
(-0.55785525 0 0)
(-0.48958845 0 0)
(-0.41483321 0 0)
(-0.33459379 0 0)
(-0.24809782 0 0)
(-0.15472569 0 0)
(-0.053681284 0 0)
(-1.0712797 0 0)
(-1.1063873 0 0)
(-1.1405188 0 0)
(-1.1737509 0 0)
(-1.2061967 0 0)
(-1.2379908 0 0)
(-1.2692148 0 0)
(-1.2998958 0 0)
(-1.3300528 0 0)
(-1.3563053 0 0)
(-1.3781015 0 0)
(-1.3983654 0 0)
(-1.4170188 0 0)
(-1.4339225 0 0)
(-1.4489065 0 0)
(-1.461785 0 0)
(-1.4723513 0 0)
(-1.4803892 0 0)
(-1.4856892 0 0)
(-1.4880611 0 0)
(-1.4873634 0 0)
(-1.4835133 0 0)
(-1.4764884 0 0)
(-1.466334 0 0)
(-1.4531448 0 0)
(-1.4370986 0 0)
(-1.4184338 0 0)
(-1.3974146 0 0)
(-1.3743228 0 0)
(-1.3495446 0 0)
(-1.3235598 0 0)
(-1.2968479 0 0)
(-1.2699882 0 0)
(-1.2427914 0 0)
(-1.2166198 0 0)
(-1.1931541 0 0)
(-1.1732039 0 0)
(-1.1578035 0 0)
(-1.1482802 0 0)
(-1.0710011 0 0)
(-1.035154 0 0)
(-0.99785954 0 0)
(-0.95912469 0 0)
(-0.91868685 0 0)
(-0.87622494 0 0)
(-0.83150072 0 0)
(-0.78424093 0 0)
(-0.73396877 0 0)
(-0.68025442 0 0)
(-0.62270869 0 0)
(-0.5592061 0 0)
(-0.48948513 0 0)
(-0.41472121 0 0)
(-0.33449102 0 0)
(-0.24800033 0 0)
(-0.15463929 0 0)
(-0.053639976 0 0)
(-1.1055759 0 0)
(-1.1391625 0 0)
(-1.1718496 0 0)
(-1.2037491 0 0)
(-1.2350001 0 0)
(-1.2656913 0 0)
(-1.2958526 0 0)
(-1.3255285 0 0)
(-1.3547465 0 0)
(-1.3800203 0 0)
(-1.4007735 0 0)
(-1.419991 0 0)
(-1.4375832 0 0)
(-1.4533961 0 0)
(-1.4672533 0 0)
(-1.4789604 0 0)
(-1.4883052 0 0)
(-1.4950701 0 0)
(-1.4990502 0 0)
(-1.5000746 0 0)
(-1.4980235 0 0)
(-1.4928367 0 0)
(-1.4845125 0 0)
(-1.4731194 0 0)
(-1.4587729 0 0)
(-1.4416624 0 0)
(-1.4220367 0 0)
(-1.4001602 0 0)
(-1.3763113 0 0)
(-1.3508702 0 0)
(-1.3243211 0 0)
(-1.2971269 0 0)
(-1.2688559 0 0)
(-1.2408371 0 0)
(-1.2147984 0 0)
(-1.1913837 0 0)
(-1.1714046 0 0)
(-1.1559112 0 0)
(-1.1462469 0 0)
(-1.105296 0 0)
(-1.0711194 0 0)
(-1.0356605 0 0)
(-0.99885634 0 0)
(-0.96057875 0 0)
(-0.92056002 0 0)
(-0.87847309 0 0)
(-0.83406651 0 0)
(-0.7870576 0 0)
(-0.73696526 0 0)
(-0.68333962 0 0)
(-0.62418079 0 0)
(-0.5590896 0 0)
(-0.48935416 0 0)
(-0.41459125 0 0)
(-0.33436508 0 0)
(-0.24788352 0 0)
(-0.15453825 0 0)