/*--------------------------------*- C++ -*----------------------------------*\
| =========                 |                                                 |
| \\      /  F ield         | OpenFOAM: The Open Source CFD Toolbox           |
|  \\    /   O peration     | Version:  v2012                                 |
|   \\  /    A nd           | Website:  www.openfoam.com                      |
|    \\/     M anipulation  |                                                 |
\*---------------------------------------------------------------------------*/
FoamFile
{
    version     2.0;
    format      ascii;
    class       surfaceScalarField;
    location    "65.2895086693644942";
    object      meshPhi;
}
// * * * * * * * * * * * * * * * * * * * * * * * * * * * * * * * * * * * * * //

dimensions      [0 3 -1 0 0 0 0];
oriented        oriented;


internalField   nonuniform List<scalar> 
18180
(
8.0122018e-14
0.040256822
8.0150357e-14
0.037636923
0
0.076660486
0
0.035328226
0
0.07145518
0
0.10934692
-8.0248275e-14
0.033297473
0
0.066734312
0
0.10179012
0
0.1393429
-1.8372635e-17
0.031535224
3.8582466e-14
0.062713058
0
0.09491437
0
0.1297597
0
0.16708003
1.8667759e-17
0.029948555
3.8601226e-14
0.059252899
-3.7093248e-14
0.088877344
0
0.12085185
0
0.1556671
0
0.1925345
-4.0200147e-14
0.028453026
1.6306551e-17
0.056148845
-1.4183184e-17
0.083706714
0
0.11305114
-6.8578245e-14
0.1450363
0
0.17942258
-2.0604621e-17
0.21579941
-4.0201824e-14
0.027016769
3.863864e-14
0.053266805
0
0.079145805
3.5678954e-14
0.10626167
-3.429102e-14
0.13548036
6.5922037e-14
0.16711471
0
0.20117763
0
0.23721389
-4.0240636e-14
0.025627055
0
0.050510021
-1.4350592e-17
0.074897853
3.5708001e-14
0.10020078
-1.1996181e-17
0.12705797
0
0.15588362
-6.3416708e-14
0.1872975
0
0.22117817
0
0.25686646
4.0238907e-14
0.024278599
0
0.047855656
0
0.070851886
0
0.094641645
1.2039552e-17
0.11963457
-1.0889884e-17
0.14594222
3.17219e-14
0.17462597
0
0.20610558
0
0.23966192
0
0.27486686
0
0.022969551
-3.8705181e-14
0.045295784
-3.7174976e-14
0.066961167
0
0.089393126
-3.4348939e-14
0.11293777
-3.3005074e-14
0.13729027
0
0.1634132
0
0.19231643
0
0.22357085
0
0.25662096
5.4227778e-14
0.29132872
0
0.021698864
0
0.042830728
-3.7203371e-14
0.063219246
-3.5739677e-14
0.08436748
0
0.10670261
0
0.12958599
0
0.15354551
-9.6515311e-18
0.18003059
0
0.20901391
-1.65629e-17
0.23974306
0
0.27217897
-1.3348413e-17
0.30639441
0
0.02046606
0
0.040456299
0
0.059624904
0
0.07953968
-3.4377212e-14
0.10077489
-3.3045602e-14
0.12250944
-1.015611e-17
0.1448465
3.0539742e-14
0.16923332
-2.9360101e-14
0.19602315
2.8227271e-14
0.2245206
0
0.25456889
0
0.28642553
0
0.32014221
-2.0157429e-14
0.019269334
0
0.038167125
0
0.056180062
0
0.074903125
0
0.095090186
-3.3059252e-14
0.11585536
3.1782017e-14
0.13694957
0
0.15954027
9.3663374e-18
0.18434652
-2.8242675e-14
0.21089081
-2.7154234e-14
0.23874789
0
0.26817796
0
0.29943301
-4.8294859e-14
0.33264096
-2.0162616e-14
0.018109058
1.9367798e-14
0.035959478
-1.8611584e-14
0.052881215
0
0.070462293
0
0.089632375
0
0.10949376
3.1785384e-14
0.12953899
0
0.15067913
2.9382543e-14
0.17375084
-2.8250173e-14
0.19849171
-2.7169904e-14
0.2244648
-2.6123798e-14
0.25177195
-1.272046e-17
0.28059598
0
0.31127315
4.645557e-14
0.34398894
0
0.016989076
1.9372162e-14
0.033831723
0
0.049728981
0
0.066222303
0
0.084403999
0
0.1033906
0
0.12249323
0
0.14244357
0
0.1639927
0
0.18702732
-2.7178614e-14
0.21129942
-7.2033191e-18
0.23685011
5.0261453e-14
0.26365003
0
0.29190916
0
0.32201814
4.4698657e-14
0.35427486
0
0.015912175
1.9375984e-14
0.031783174
-7.2947298e-18
0.046721805
0
0.062186931
-1.7203979e-14
0.079413192
0
0.097541229
0
0.11573816
0
0.13463571
0
0.15488945
-2.8291515e-14
0.17639336
2.7195663e-14
0.19902444
-2.6149741e-14
0.22294595
2.5143881e-14
0.24812977
-2.4177119e-14
0.27447542
-4.6507707e-14
0.30216932
0
0.33176152
-4.3018313e-14
0.36357844
0
0.014883171
0
0.029813403
0
0.04385895
-6.5797177e-18
0.058358799
1.7208014e-14
0.074662428
-1.6545412e-14
0.091951451
0
0.10925972
0
0.12717856
2.9426401e-14
0.14631967
0
0.16651226
0
0.18761815
0
0.209962
-2.5161402e-14
0.23365297
2.4193945e-14
0.25847403
2.3269276e-14
0.28431396
0
0.31148322
4.3027464e-14
0.34056305
0
0.37196688
-2.0167409e-14
0.013904681
1.9391245e-14
0.027924181
1.8626608e-14
0.041138262
0
0.054737868
-1.721826e-14
0.070152619
0
0.08662347
-1.5914819e-14
0.10305515
0
0.12003392
0
0.13818284
0
0.15726351
0
0.1770542
0
0.19793066
0
0.22012418
2.4218106e-14
0.2434879
-5.5024862e-18
0.26788735
4.477725e-14
0.29325681
4.3053162e-14
0.31989412
4.1404589e-14
0.34851148
3.9826708e-14
0.37952524
-1.0258279e-17
0.012980257
0
0.026117554
-1.8636583e-14
0.038555882
1.7906349e-14
0.051321193
0
0.065881847
-6.5096258e-18
0.081554427
0
0.097126344
0
0.11319033
0
0.13041571
0
0.148522
2.7243827e-14
0.16718411
0
0.18671749
0
0.20751445
-6.2578337e-18
0.22948506
0
0.25248514
-2.2408893e-14
0.27647249
-2.1542499e-14
0.30134392
0
0.32749638
0
0.3556622
-6.0228353e-18
0.38631814
2.0172407e-14
0.012111434
0
0.024399075
0
0.036109552
0
0.048101853
-1.7224159e-14
0.061845912
0
0.076740848
1.5922754e-14
0.091472741
-5.0400497e-18
0.10664199
0
0.12299041
0
0.14020569
0
0.15786785
-2.6225191e-14
0.17621644
0
0.19573351
0
0.21645611
0
0.23811014
0
0.26070544
-4.5681453e-18
0.28425548
0
0.3086653
-3.9877631e-14
0.33433488
-3.835067e-14
0.3620958
0
0.39241196
0
0.011298975
0
0.02277365
0
0.033798032
-1.7910863e-14
0.045073763
0
0.05803734
1.6558821e-14
0.072175726
0
0.086091806
-5.0454356e-18
0.10038843
1.4735164e-14
0.11589241
0
0.13226968
0
0.14901961
0
0.1663304
0
0.18464662
0
0.20418645
0
0.22470587
-5.2749582e-18
0.2459873
0
0.26819733
-2.0753968e-14
0.29133055
-1.9951614e-14
0.31526643
0
0.34049204
0
0.36785635
-3.5503236e-14
0.39785612
5.0936923e-18
0.010541721
0
0.02124298
0
0.031621042
-6.6907506e-18
0.042229157
-6.9630911e-18
0.054446778
6.8400636e-18
0.067851012
0
0.080978464
-3.0654228e-14
0.09442931
1.4744274e-14
0.1091152
0
0.12469577
0
0.14057905
0
0.15694067
0
0.17416034
2.4292149e-14
0.19251658
0
0.2120418
0
0.23231302
0
0.25319245
-2.0769634e-14
0.27500694
-3.7651438e-18
0.29772404
0
0.32121175
-5.6644066e-18
0.34600533
0
0.37301279
0
0.40271793
0
0.0098373785
9.7003644e-15
0.019806704
0
0.02957451
0
0.039560146
0
0.051062856
1.6570108e-14
0.063755291
3.1868475e-14
0.076127281
0
0.088764121
0
0.10265757
-4.7633024e-18
0.11747329
-4.1537049e-18
0.13252213
1.313336e-14
0.14798997
0
0.16422294
2.4308801e-14
0.18148376
-2.338207e-14
0.19998448
0
0.21938147
0
0.23924238
0
0.25973465
0
0.28119191
-3.8444537e-14
0.30348989
0
0.32653946
3.5542079e-14
0.35094066
0
0.37760231
-3.28873e-14
0.40703891
-1.0089574e-14
0.0091832379
-9.7009494e-15
0.018463027
0
0.027654532
0
0.037057699
0
0.047874991
1.6564917e-14
0.059878414
0
0.071531223
1.5332756e-14
0.083389457
-1.4751245e-14
0.096516567
0
0.11059636
-1.3659894e-14
0.12483806
1.3135439e-14
0.13944599
1.2641588e-14
0.15478066
0
0.1710526
0
0.18848955
0
0.20697847
0
0.22605583
0
0.24551739
0
0.26567656
1.9244433e-14
0.28676706
0
0.30866188
-1.7787415e-14
0.33130742
0
0.35533108
0
0.38168403
0
0.41087239
5.0705527e-18
0.0085756269
0
0.017209977
9.3192307e-15
0.025854756
0
0.034712446
0
0.044873671
0
0.056210312
0
0.067181241
0
0.078300684
1.4754098e-14
0.090687789
0
0.10405984
-1.3655806e-14
0.11752083
-1.3144261e-14
0.13129569
0
0.14578115
-1.2166066e-14
0.16114023
0
0.17758261
0
0.19512336
0
0.21337657
0
0.23204401
-2.0036786e-14
0.25121027
-3.6199621e-18
0.27106166
1.8523313e-14
0.29179571
1.7808988e-14
0.31329527
-1.7120537e-14
0.33555634
3.292614e-14
0.35923261
0
0.3852911
0
0.41425005
1.0090712e-14
0.0080111268
9.7018945e-15
0.016043252
9.3235095e-15
0.024169947
-3.4601687e-18
0.032513699
3.555446e-18
0.042049954
0
0.052741715
0
0.063068417
0
0.073491117
1.4751495e-14
0.085163874
0
0.097855531
0
0.11056671
0
0.12353215
-3.3371565e-18
0.13720365
-3.1360547e-18
0.15171493
0
0.16724571
0
0.18383457
0
0.20119037
0
0.21906627
0
0.23746659
1.9287685e-14
0.25637508
1.8541707e-14
0.27592
0
0.29629503
-2.44248e-18
0.31742932
1.6481236e-14
0.339326
-3.5468439e-18
0.36268073
0
0.38847228
0
0.41722325
-1.0091189e-14
0.0074859453
-9.7022809e-15
0.014958185
0
0.022593433
1.7921814e-14
0.030452419
0
0.039394877
-8.2880194e-15
0.049465392
-1.5944194e-14
0.059182261
0
0.068952442
0
0.079937084
0
0.091971987
1.3667134e-14
0.10396563
1.3149357e-14
0.1161525
0
0.12903795
3.126567e-18
0.14273989
-1.1722184e-14
0.15741993
1.1279111e-14
0.17310829
0
0.18955914
0
0.2065785
-2.0079102e-14
0.22417828
0
0.24236639
0
0.26105194
0
0.28028815
0
0.30032628
1.6497777e-14
0.32109408
-1.8340147e-18
0.34266165
0
0.36571793
0
0.39125497
0
0.41981801
1.0091612e-14
0.0069963958
0
0.013950024
-9.3242198e-15
0.02111902
-8.9595097e-15
0.028519582
8.618101e-15
0.036899943
-8.2885292e-15
0.046374035
-7.96977e-15
0.055512925
0
0.064673217
0
0.074998003
1.4199357e-14
0.086396361
0
0.097707071
-1.315299e-14
0.10915009
-3.3080522e-18
0.12127848
0
0.13420266
1.1725374e-14
0.14807765
-1.1286355e-14
0.16292868
2.171672e-14
0.17851086
0
0.19465447
0
0.21141531
1.9327142e-14
0.22883411
0
0.24684144
-3.0250133e-18
0.26527136
0
0.28420483
0
0.3038969
-1.5882578e-14
0.32433852
0
0.34559657
0
0.36837467
0
0.39368066
0
0.42207452
0
0.0065370131
0
0.0130136
0
0.019740932
8.9598137e-15
0.02670851
3.5738812e-18
0.034557021
0
0.04346033
-7.9732234e-15
0.052051591
-7.6657561e-15
0.06064278
0
0.070337353
0
0.081117236
-1.3672591e-14
0.09177711
0
0.10251474
0
0.11391999
-1.2191479e-14
0.12609362
1.1730966e-14
0.1391979
-1.1292959e-14
0.15326681
1.0867366e-14
0.16803638
-1.0454003e-14
0.18333252
-4.0233284e-14
0.1992603
0
0.21585396
1.8607765e-14
0.23307777
1.7896453e-14
0.25089358
-1.7206909e-14
0.269089
0
0.28770273
0
0.30707285
0
0.3271924
1.46981e-14
0.34817333
0
0.37068501
0
0.3957735
0
0.42401234
2.9983531e-05
0.0071638165
0
0.012138689
-9.3247707e-15
0.018452853
-1.7920167e-14
0.025010717
8.6152397e-15
0.0323593
-8.2857109e-15
0.040716676
0
0.048789922
7.668786e-15
0.056849204
7.3792629e-15
0.065944492
0
0.076122794
0
0.086163916
0
0.096233908
1.2669875e-14
0.10695133
1.2195639e-14
0.11840488
0
0.13076914
1.1298931e-14
0.14409667
-1.087437e-14
0.15810602
-1.0464469e-14
0.17259886
1.0068496e-14
0.18768677
-1.9367886e-14
0.20348384
1.8632604e-14
0.21990591
0
0.23695629
-1.7229727e-14
0.25459443
-1.6565078e-14
0.27251452
-1.5924762e-14
0.29081381
-1.5307027e-14
0.30986449
1.4715852e-14
0.32970145
0
0.35040947
0
0.37268086
-2.6177686e-14
0.39756627
2.5186323e-14
0.42567004
5.0411837e-05
0.0071427384
8.2472704e-05
0.013175719
0
0.017242891
0
0.023418356
8.6191196e-15
0.030297529
-8.2897023e-15
0.038135218
0
0.045718419
7.6717463e-15
0.053280601
-7.3824385e-15
0.061807298
2.1312217e-14
0.071400355
1.3676692e-14
0.080853411
0
0.090295761
-1.2672879e-14
0.10036117
0
0.11112515
-1.1740423e-14
0.12277773
-3.0143234e-18
0.13540071
0
0.14869104
-2.4558726e-18
0.16242252
-1.0076954e-14
0.17669924
-9.6933808e-15
0.19170209
0
0.20737383
0
0.22360896
-1.7252403e-14
0.24049809
0
0.25793578
0
0.27558504
0
0.29357
-1.4735594e-14
0.3123281
-1.4167684e-14
0.33187572
-1.0667929e-18
0.35234949
-2.6199622e-14
0.37438611
0
0.3990798
0
0.42706498
6.2358856e-05
0.0071224784
0.00013852882
0.013152248
0.00012515964
0.018596509
0
0.021917416
0
0.028363177
-8.2900083e-15
0.035707551
-2.9736329e-18
0.042827928
2.4907755e-18
0.049924879
7.3804056e-15
0.057914287
0
0.066939617
-6.834871e-15
0.07583329
0
0.084688335
0
0.094136027
-1.2202524e-14
0.10424202
0
0.11521089
-1.1306048e-14
0.12716216
-1.0886475e-14
0.13976771
1.0478613e-14
0.15277738
0
0.16629074
-9.7042064e-15
0.18048158
9.3363978e-15
0.19538986
0
0.2109101
0
0.22699566
0
0.24373127
1.5968209e-14
0.26095898
-1.5350973e-14
0.27831902
1.4756821e-14
0.2960036
-1.4185748e-14
0.31446433
-1.1166732e-18
0.33376366
1.3113766e-14
0.35400854
0
0.37582896
0
0.40034267
0
0.42822815
6.6917231e-05
0.0071047638
0.00017121012
0.013126172
0.00021025754
0.018632514
0.00016119998
0.023497081
0
0.026544331
0
0.033424776
0
0.040109762
-2.5008586e-18
0.04677282
2.5608969e-18
0.054254634
7.1062025e-15
0.062730811
-1.3677583e-14
0.071089712
1.7196571e-18
0.079397838
-1.2677777e-14
0.088263757
0
0.097742339
0
0.10805404
0
0.11936384
0
0.13131869
1.0482205e-14
0.14363373
-1.0089652e-14
0.15642249
0
0.16983198
0
0.18393597
0
0.19874563
0
0.21414736
0
0.23009546
-2.4111072e-18
0.24666531
0
0.26367565
1.7959216e-18
0.2807592
1.420809e-14
0.29813918
0
0.31632754
-9.5160417e-19
0.33537854
0
0.35542687
2.4282051e-14
0.37702733
0
0.40137499
-8.035888e-19
0.42917328
6.5170184e-05
0.0070898134
0.00018356857
0.013102387
0.00025989929
0.018657456
0.00027121796
0.023642282
0.00019256193
0.028248497
0
0.031270673
0
0.037554601
0
0.043812149
-7.3838301e-15
0.050816521
7.1066989e-15
0.058764591
-6.8383188e-15
0.066609923
6.5834304e-15
0.074408322
-6.3382682e-15
0.082729345
0
0.091611992
0
0.10129351
0
0.11198997
0
0.1233245
1.0490213e-14
0.13497042
0
0.14706947
9.7198608e-15
0.15975047
0
0.17305998
0
0.1870893
0
0.2018442
0
0.21714447
0
0.23293454
-1.5399357e-14
0.24933836
0
0.26612594
0
0.28291598
0
0.30000179
-1.3147598e-14
0.31792275
-1.2640748e-14
0.33676296
-1.2153932e-14
0.35660839
2.3378502e-14
0.37801074
0
0.40219973
-2.1644494e-14
0.42992797
5.8210719e-05
0.0070776618
0.00017863886
0.013081281
0.00027866642
0.018677302
0.00033567312
0.023763428
0.00032425878
0.028494885
0.00022145486
0.033028208
0
0.035141909
0
0.0410314
0
0.047587751
-2.6613193e-18
0.055028791
2.136066e-18
0.062382887
1.3171617e-14
0.069704802
0
0.077518088
-6.1034543e-15
0.085836851
0
0.094914109
0
0.10502413
-3.020634e-18
0.11576823
0
0.1267689
-1.0101939e-14
0.13820488
9.7246524e-15
0.15020704
0
0.16277632
-9.0093784e-15
0.17601149
-1.5801699e-18
0.19005113
8.338478e-15
0.20476219
0
0.21990699
-1.5420156e-14
0.23554032
0
0.25176446
0
0.26831619
0
0.2848178
0
0.3016169
8.7912609e-19
0.3192951
1.216918e-14
0.33791849
-5.4657714e-19
0.35759309
0
0.37879282
0
0.40283417
0
0.43050441
4.7124969e-05
0.0070683187
0.00015945342
0.013062996
0.00027119055
0.018692182
0.00036032913
0.023868986
0.00040165783
0.0287081
0.00037289397
0.033385671
0.00024525777
0.036867397
0
0.038409387
0
0.044556533
0
0.05151353
6.8392797e-15
0.058398332
1.7107142e-18
0.065274252
0
0.072613752
6.104388e-15
0.080401619
0
0.088900707
0
0.098450294
0
0.10863267
-2.5714286e-18
0.11901017
0
0.12980774
0
0.14116924
0
0.15305574
0
0.16553923
8.6760018e-15
0.17880236
8.3470941e-15
0.19287203
8.0303355e-15
0.20748245
0
0.22246259
0
0.23792776
-1.4276235e-14
0.25396536
0
0.27026954
0
0.28648096
1.2677173e-14
0.30300721
-1.2186392e-14
0.32044507
-5.725837e-19
0.33888618
2.2533451e-14
0.35839061
0
0.3794002
0
0.40329765
0
0.43092411
3.3003743e-05
0.007061806
0.00012900831
0.013047496
0.00024203406
0.018702444
0.00035098524
0.023958219
0.00043147573
0.028893907
0.00046185298
0.033693438
0.00041299813
0.037362954
0.00026204682
0.04004233
0
0.041702942
0
0.048207347
0
0.054646552
-6.5868764e-15
0.061103299
-6.340525e-15
0.068002229
0
0.07529004
-1.4580886e-18
0.083237435
-5.6613323e-15
0.092250226
1.0907134e-14
0.10189976
0
0.11167775
-2.2522424e-18
0.12185754
-9.7363651e-15
0.13260949
9.3756532e-15
0.14385913
9.023432e-15
0.1556471
1.5842312e-18
0.16815233
0
0.18150805
-8.0407232e-15
0.19555341
0
0.21000424
0
0.22481112
0
0.24010717
-1.3745734e-14
0.25593987
0
0.27200334
0
0.28793293
-1.2206044e-14
0.30419324
0
0.32141437
-4.6971868e-19
0.33968117
0
0.3590365
0
0.37984143
2.0079351e-14
0.40360584
0
0.43119654
1.6932706e-05
0.0070581819
9.0298146e-05
0.013034557
0.00019579515
0.018708203
0.00031350967
0.024030995
0.0004205418
0.029051699
0.00049608913
0.033959896
0.00051152378
0.037793365
0.00044146938
0.040696588
0.00027528781
0.043189247
0
0.045087782
0
0.051116514
0
0.057180341
6.341089e-15
0.063666403
-6.1059072e-15
0.070486554
0
0.077909709
-5.6640782e-15
0.086407175
1.6148334e-18
0.095550656
0
0.10475284
0
0.11433741
0
0.1245062
9.381533e-15
0.13515144
-9.0302796e-15
0.14629525
8.6924244e-15
0.15809926
8.3654964e-15
0.17070896
-8.0505532e-15
0.18410177
0
0.19804299
-7.4465859e-15
0.21232569
-1.4322436e-14
0.22696472
0
0.2420809
-1.3234924e-14
0.25772144
0
0.27353635
0
0.28918637
-1.175173e-14
0.30519379
5.2109999e-19
0.32221548
1.0861294e-14
0.3403381
1.0445172e-14
0.35953209
0
0.38014162
0
0.40377456
-1.8610654e-14
0.43134061
0.0070572365
0
4.6305509e-05
0.013024322
0.00013701501
0.018709318
0.00025377298
0.024087433
0.00037585008
0.029181069
0.00048346749
0.034184854
0.00054946655
0.038169591
0.00054707154
0.041270685
0.00046395565
0.043992863
0.00028735826
0.046358576
0
0.047781394
0
0.053493883
0
0.059593523
6.1050726e-15
0.065973572
1.4182527e-18
0.072902543
0
0.080905379
-5.4562079e-15
0.089565994
0
0.098218573
1.0119741e-14
0.10723022
0
0.11683959
9.3848984e-15
0.12690855
0
0.13744233
0
0.14859568
-1.5488094e-18
0.16049146
8.058253e-15
0.17316874
7.7528525e-15
0.18653226
0
0.20033958
7.1724538e-15
0.21445326
0
0.2289263
0
0.24387307
-1.3425376e-18
0.25930864
0
0.27488442
0
0.29026041
-5.8973827e-19
0.30603365
1.0876961e-14
0.32288385
2.0915888e-14
0.34087066
0
0.35991053
1.9350594e-14
0.38030952
0
0.40381732
0
0.43136465
0.013016663
0
0.0070585297
-1.6938911e-05
7.0244112e-05
0.018705826
0.00017767736
0.024127606
0.00030436307
0.029281923
0.00043202436
0.034368003
0.0005355219
0.038490643
0.00058790681
0.041775792
0.00057510027
0.044699601
0.00048407123
0.047277321
0.00029613825
0.04879133
-1.317359e-14
0.050015148
6.3436626e-15
0.055770402
0
0.061738167
-5.8826549e-15
0.06820276
-5.6642211e-15
0.075730479
0
0.083928375
5.2549558e-15
0.092056152
1.1078397e-18
0.10051858
0
0.10959311
0
0.11910912
-9.0437582e-15
0.12905945
-8.7061471e-15
0.13960453
0
0.15083897
0
0.16279786
0
0.17548759
0
0.18877535
-7.1833287e-15
0.20243884
0
0.21639153
-1.328079e-14
0.23071079
0
0.24548534
-1.2026158e-18
0.26072791
0
0.27605722
0
0.29117169
-4.9097263e-19
0.30673394
-1.047248e-14
0.32344097
0
0.34130978
-9.6851628e-15
0.36017982
0
0.38036596
0
0.40374606
0
0.43128488
0.018697911
0
0.013012203
-4.6290954e-05
0.0070617771
-3.3025267e-05
9.1117856e-05
0.024150989
0.00021317713
0.029354135
0.00034980859
0.034509056
0.00047852882
0.038755218
0.00057321121
0.04220924
0.0006181689
0.045316165
0.00059972456
0.048075072
0.00049842465
0.049826859
0.00030058019
0.05077857
0
0.052162785
0
0.057766116
-5.8832231e-15
0.063793683
0
0.07086654
1.7282342e-18
0.078620565
0
0.08624913
0
0.094186192
1.0837075e-18
0.10274909
0
0.11173525
0
0.12112504
0
0.13109213
0
0.14171429
1.4889502e-18
0.1529932
0
0.16496505
7.4785221e-15
0.17762867
-1.177631e-18
0.19082397
0
0.20434121
0
0.21815038
1.278692e-14
0.2323215
0
0.24692959
1.181227e-14
0.26197324
0
0.27707668
0
0.29194318
0
0.30732135
0
0.32391927
-9.6967396e-15
0.34167552
0
0.36036509
-1.7945316e-14
0.38031362
-1.7269613e-14
0.40357501
1.6624566e-14
0.43110828
0.024156832
0
0.018687665
-7.0179024e-05
0.0130109
-9.0238455e-05
0.0070670675
-4.7164453e-05
0.00010934891
0.029397471
0.00024496578
0.034607673
0.0003874704
0.038962322
0.00051242871
0.042569067
0.00060282434
0.045840961
0.00064421679
0.048761864
0.00061695993
0.050719056
0.00050584674
0.051977459
0.0003029669
0.052676963
0
0.054022278
0
0.059660319
5.667292e-15
0.066296963
0
0.073623555
5.2584094e-15
0.080781005
5.0642205e-15
0.088217889
-4.8780848e-15
0.096291888
9.8210375e-19
0.10477041
0
0.11361998
0
0.12303441
0
0.13308265
0
0.143729
-7.7792874e-15
0.15500255
7.4863295e-15
0.16696379
7.2036836e-15
0.17958886
-6.9287393e-15
0.19268588
6.6617595e-15
0.20606908
8.037697e-19
0.21973799
0
0.23376387
0
0.24820964
-1.1374205e-14
0.26307744
0
0.27795196
0
0.29258933
0
0.3078209
-9.7096364e-15
0.32434121
-2.1759564e-19
0.3419872
1.0143015e-19
0.36045981
0
0.38017076
0
0.40331546
0
0.43084779
0.029410981
0
0.024148691
-9.1039652e-05
0.018675451
-0.00013676398
0.013012163
-0.00012887423
0.0070743422
-5.8261157e-05
0.00012563794
0.034663961
0.00027133541
0.039111386
0.00041506028
0.042853519
0.00053895254
0.046272788
0.00062782997
0.049337947
0.00066221625
0.051486799
0.00062607804
0.053023097
0.00051010704
0.054059939
0.00030367948
0.054246343
0
0.055775174
0
0.062005734
-5.4579992e-15
0.068921387
-1.2723442e-18
0.075636374
1.0691619e-18
0.08259935
-4.8794178e-15
0.090205264
0
0.098198759
0
0.10652853
0
0.1154113
0
0.12491655
8.0882517e-15
0.13497337
0
0.14559298
0
0.15685086
7.2118247e-15
0.16880681
6.9377267e-15
0.18138141
-6.6733423e-15
0.19436812
6.4148201e-15
0.20762048
-6.1675243e-15
0.22115781
0
0.2350471
0
0.24934709
0
0.26403626
0
0.27870477
0
0.29313608
9.7241959e-15
0.30825727
-9.3497043e-15
0.32472642
-8.9918162e-15
0.34224491
8.6494057e-15
0.36048492
1.6644434e-14
0.37994498
1.6019382e-14
0.4029793
3.4609276e-19
0.43050875
0.034677472
0
0.029400521
-0.00010927299
0.024126746
-0.00017737685
0.018659819
-0.00019526752
0.013016295
-0.00015922079
0.007083485
-6.5220962e-05
0.00013916332
0.039202123
0.00029075041
0.043061912
0.00043657756
0.046611299
0.00056096507
0.049804514
0.00064485243
0.052129916
0.00067196926
0.053931907
0.00063174582
0.055275884
0.00051150819
0.055781847
0.00030273994
0.055692504
-5.6663025e-15
0.057971055
0
0.064495852
0
0.070800079
5.0663025e-15
0.077315599
0
0.084474472
0
0.09200387
-8.4385215e-19
0.09983511
8.1272162e-19
0.10820693
-8.4064329e-15
0.11719475
0
0.12669492
0
0.13670577
7.502532e-15
0.14730189
-7.2205417e-15
0.15855792
-6.9483579e-15
0.17049592
0
0.18299991
-6.4280689e-15
0.19587376
0
0.20900541
6.363539e-19
0.22241888
0
0.23618545
0
0.25034828
-1.0544312e-14
0.26487814
0
0.27934288
0
0.29359837
0
0.30864822
9.0036214e-15
0.32508211
0
0.34246275
0
0.36043832
1.6030642e-14
0.37965036
0
0.40257327
4.0019467e-19
0.43010204
0.039234121
0
0.034658082
-0.00012552099
0.029366384
-0.00021288468
0.024087347
-0.00025313845
0.018641094
-0.0002411884
0.013023859
-0.00017830921
0.0070942668
-6.6949194e-05
0.00014915828
0.043193377
0.00030583251
0.046855964
0.00045414743
0.050162803
0.00057575622
0.052650412
0.0006543468
0.054702233
0.00067849779
0.056340495
0.00063377308
0.057135397
0.00051000282
0.057380218
0.00030233743
0.057580812
0
0.060314998
0
0.066255955
0
0.072352077
-1.1198134e-18
0.079081528
4.7039454e-15
0.0861696
8.3877557e-19
0.093524638
-8.1267004e-19
0.1014061
4.2054448e-15
0.1098989
-8.1008728e-15
0.11887076
0
0.12830733
-1.245949e-18
0.13828764
0
0.14888013
6.9573087e-15
0.16014035
0
0.17203769
0
0.18444629
6.1891956e-15
0.19721559
-5.95059e-15
0.21023323
-5.7188797e-15
0.22353375
0
0.23718964
0
0.25122646
1.0151771e-14
0.26559772
0
0.27988932
0
0.29399777
-9.0166645e-15
0.30900608
-8.6701399e-15
0.32541728
-1.6605635e-19
0.34263632
0
0.36033612
0
0.37928869
0
0.4021108
0
0.42963258
0.043246495
0
0.039220672
-0.00013903964
0.034606435
-0.00024451649
0.029302937
-0.00030373982
0.024029953
-0.00031246792
0.018619675
-0.00027005725
0.013034975
-0.00018314588
0.0071064524
-6.2358774e-05
0.00015689752
0.047006477
0.0003179758
0.050414335
0.00046583353
0.053050072
0.00058431643
0.05533398
0.00066116192
0.057250923
0.00068090243
0.05832259
0.00063195112
0.058871948
0.00050948803
0.059437929
0.00030316524
0.059599672
0
0.061963518
0
0.067695031
0
0.074012701
-1.0133497e-18
0.080677794
-4.5322889e-15
0.08758122
4.3666239e-15
0.094993086
-4.207422e-15
0.10301313
4.0527816e-15
0.11148075
0
0.12037098
-7.5160601e-15
0.12977467
-7.2371186e-15
0.13975488
0
0.15035141
0
0.16158371
0
0.17341115
6.1995571e-15
0.18573493
-6.873214e-19
0.19840877
-5.7296565e-15
0.21131958
0
0.22451412
1.058491e-14
0.23806809
0
0.25198914
-9.775115e-15
0.26622444
0
0.28034979
0
0.2943429
8.6824608e-15
0.309331
8.3497114e-15
0.32572882
8.0311544e-15
0.34277616
-7.7267849e-15
0.36016466
-1.4871363e-14
0.37887312
1.4315533e-14
0.4015994
1.3784112e-14
0.42911244
0.047061191
0
0.043237311
-0.0001490764
0.039162313
-0.00027086127
0.034514116
-0.0003488676
0.029209764
-0.00037479407
0.023954346
-0.00034953284
0.018595708
-0.00027732696
0.013049127
-0.00017073022
0.0071200549
-5.037768e-05
0.00016305586
0.050560425
0.00032599934
0.053331476
0.0004727985
0.055826778
0.00059070795
0.05800448
0.00066374722
0.05933861
0.00067901765
0.060178368
0.00063132997
0.061083461
0.00051076384
0.061616777
0.00030210705
0.06091901
0
0.063305476
0
0.069253503
9.4109035e-15
0.075515243
-4.5342803e-15
0.081989579
8.1094269e-19
0.088952908
0
0.096520408
-7.7712041e-19
0.1045073
-3.9050845e-15
0.11287621
0
0.12173136
0
0.13114018
0
0.14111766
6.7109714e-15
0.15168688
8.9457829e-19
0.16287581
0
0.17463978
0
0.18688612
-5.7408961e-15
0.19946919
-5.5178893e-15
0.21227222
4.2846576e-19
0.2253679
0
0.23883436
-9.7937397e-15
0.25265294
9.4114614e-15
0.26675443
0
0.28074408
8.6960349e-15
0.2946335
-1.7243405e-19
0.30962714
0
0.32601582
-1.1886879e-19
0.34285248
-7.4422374e-15
0.35993871
0
0.37841329
0
0.40105133
0
0.42854561
0.050601524
0
0.047039836
-0.0001567915
0.043166132
-0.00029043666
0.039046871
-0.00038648542
0.034382115
-0.00043049075
0.02908647
-0.00041901699
0.023860308
-0.00035853614
0.01856892
-0.00025850476
0.013066378
-0.00013806514
0.007135231
-2.9940879e-05
0.00016711109
0.053496646
0.00033091254
0.056180194
0.0004782368
0.058598912
0.0005932285
0.0601787
0.00066195281
0.061293381
0.0006783906
0.062518655
0.00063289931
0.063397096
0.00050887603
0.063077058
0.00029836313
0.061937879
0
0.064763422
0
0.070666575
0
0.076735579
-4.3701263e-15
0.083270696
8.666395e-19
0.09040508
-4.0559169e-15
0.097932677
-3.9079542e-15
0.10580418
0
0.11413583
0
0.12300488
0
0.13241041
0
0.14235167
0
0.15288455
0
0.16404493
-5.98177e-15
0.17575569
-5.7513059e-15
0.18791868
-5.4093572e-19
0.20040218
0
0.21310008
0
0.22610877
0
0.23949954
0
0.2532255
-3.9945896e-19
0.26721049
0
0.28106484
0
0.29487593
-8.0519816e-15
0.30987969
0
0.3262479
-7.4498866e-15
0.3428756
0
0.35965812
1.3798556e-14
0.37792202
0
0.40047266
1.2792019e-14
0.4279401
0.053546433
0
0.050562809
-0.00016285545
0.046942768
-0.00030542285
0.043017388
-0.0004144064
0.038876067
-0.00047696762
0.034210874
-0.00048135452
0.028933047
-0.00042951531
0.023749063
-0.00033374163
0.01853922
-0.00020902996
0.013087422
-8.2160174e-05
0.0071503239
0
0.00016964804
0.056394982
0.00033486094
0.059031498
0.0004804164
0.060839352
0.00059161328
0.062212346
0.0006612816
0.063739618
0.00067992791
0.064948656
0.00063040306
0.064977436
0.00050253898
0.064240293
0.00029413833
0.063068823
0
0.066087275
0
0.071804347
0
0.077931479
-8.7705275e-19
0.084648737
-4.0575253e-15
0.091740309
3.9099003e-15
0.099137439
-5.9957084e-19
0.10696969
-3.6271092e-15
0.11532433
0
0.12419494
0
0.13355501
0
0.14344837
0
0.15398223
7.5750896e-19
0.16512618
5.7607276e-15
0.1767627
0
0.18883739
5.3231669e-15
0.20121842
-3.8602901e-19
0.2138148
0
0.22674718
0
0.24007551
0
0.25371496
0
0.26758544
0
0.28132962
0
0.29505747
7.7542813e-15
0.31008119
-7.4583941e-15
0.3264211
-7.1755085e-15
0.34283299
0
0.35934153
-1.3291618e-14
0.37739895
-1.2797071e-14
0.39987511
0
0.42726796
0.056470795
0
0.053510787
-0.00016687255
0.050444478
-0.00031719633
0.046750096
-0.00043570292
0.04279143
-0.00051137751
0.038651219
-0.0005334439
0.034000975
-0.00049351129
0.0287515
-0.00039948937
0.023618445
-0.0002694134
0.018507447
-0.00012439441
0.01310787
0
0.0065178853
-1.0098735e-14
0.00017172805
0.059300886
0.00033644828
0.061318206
0.0004790596
0.062930144
0.00059096408
0.06474334
0.00066268278
0.066266892
0.00067715041
0.066638755
0.00062252116
0.066271322
0.00049541737
0.065521135
0.00028969506
0.064064243
0
0.067151248
0
0.072920583
4.2123224e-15
0.079236594
-1.6050448e-18
0.085910795
-3.9109537e-15
0.092858638
-3.768535e-15
0.10021475
-5.7367109e-19
0.10807913
5.4291988e-19
0.1164431
0
0.12526546
0
0.13456113
0
0.14445191
0
0.15501138
0
0.16612137
5.548274e-15
0.1776729
0
0.18964911
-4.1550925e-19
0.20192699
-4.9260623e-15
0.21442894
4.733452e-15
0.22729594
0
0.24056675
0
0.25412844
0
0.26790067
8.0764199e-15
0.28152536
0
0.29518664
7.4679931e-15
0.31020736
7.1835751e-15
0.32652271
-6.9115004e-15
0.34274575
0
0.35897225
0
0.37685632
0
0.39923288
0.0038853908
0.4226288
0.059404788
0
0.056441506
-0.00016944783
0.053388932
-0.00032506351
0.050222074
-0.00045247829
0.046461843
-0.0005374849
0.042488764
-0.00057178893
0.038372564
-0.00054703294
0.0337534
-0.00045912563
0.028539714
-0.00032213708
0.023468743
-0.00015999533
0.018467541
0
0.01207414
0
0.0069670765
0
0.00017256815
0.061613292
0.00033545867
0.063444205
0.00047847044
0.065526762
0.00059210923
0.067348247
0.00065988696
0.068053754
0.0006687105
0.068048277
0.00061370557
0.067684365
0.0004879747
0.066654407
0.00028444062
0.064811492
0
0.068197678
0
0.07415265
0
0.080429314
3.9124622e-15
0.086950837
-7.5401286e-15
0.093853501
0
0.10125004
-3.4987137e-15
0.10913247
-6.7377286e-15
0.11745144
0
0.12619636
0
0.13547343
-6.0090729e-15
0.14541621
0
0.15599323
0
0.16703506
0
0.17848669
5.1359129e-15
0.19036485
-4.9360065e-15
0.20253902
0
0.21495233
4.5574621e-15
0.22776016
0
0.24098547
0
0.25447667
0
0.26814834
0
0.28167169
1.4956715e-14
0.29523695
7.1924268e-15
0.3102611
-1.3837956e-14
0.3265612
3.2198269e-20
0.34258502
0
0.35856728
0
0.37628338
0.0075278694
0.39487436
0.0035321253
0.41827525
0.061723452
0
0.059379825
-0.00017156727
0.056307576
-0.00033012803
0.053152312
-0.00046383571
0.049896099
-0.00055820418
0.046077439
-0.00060072656
0.04210865
-0.00058617976
0.038040425
-0.00050902961
0.033468673
-0.00037039739
0.028296957
-0.0001910786
0.02329202
0
0.017121283
0
0.012943119
0
0.0074434093
5.0333631e-18
0.00017202308
0.06375297
0.00033499132
0.066086533
0.00047932013
0.068189034
0.00058952823
0.069215812
0.00065169075
0.06956376
0.00065923953
0.069574569
0.00060451394
0.0689387
0.00047905241
0.067539575
0.00027859717
0.065551561
0
0.069356488
0
0.075279043
0
0.081398144
0
0.087869331
3.6342322e-15
0.094819183
0
0.10224278
0
0.11008538
3.2471097e-15
0.11832034
0
0.12703392
0
0.136362
5.7883373e-15
0.14635789
0
0.15691146
0
0.16786518
0
0.17921494
4.9459207e-15
0.19098921
0
0.20306254
-4.5666618e-15
0.21539214
0
0.22815224
0
0.24133757
0
0.25476577
7.7901953e-15
0.26834413
0
0.28174649
7.2021256e-15
0.2952207
0
0.3102293
0
0.32652055
6.4129895e-15
0.34237198
-6.168209e-15
0.35811581
0.011089451