/*--------------------------------*- C++ -*----------------------------------*\
| =========                 |                                                 |
| \\      /  F ield         | OpenFOAM: The Open Source CFD Toolbox           |
|  \\    /   O peration     | Version:  v2012                                 |
|   \\  /    A nd           | Website:  www.openfoam.com                      |
|    \\/     M anipulation  |                                                 |
\*---------------------------------------------------------------------------*/
FoamFile
{
    version     2.0;
    format      ascii;
    class       volVectorField;
    location    "65.2895086693644942";
    object      U;
}
// * * * * * * * * * * * * * * * * * * * * * * * * * * * * * * * * * * * * * //

dimensions      [0 1 -1 0 0 0 0];


internalField   nonuniform List<vector> 
9200
(
(2.5339903 -0.0014979657 -2.531897e-22)
(2.5330177 -0.0048948018 3.0297371e-22)
(2.5392698 -0.0020505452 -5.3481754e-22)
(2.5321191 -0.0082804833 3.0912657e-22)
(2.5389076 -0.0066409162 3.4768913e-22)
(2.5429395 -0.0021857003 2.47958e-22)
(2.5305863 -0.01233256 2.5468598e-23)
(2.5388052 -0.010862524 -1.8229217e-22)
(2.54279 -0.0069289824 -1.844366e-22)
(2.5471676 -0.0022993875 2.4559032e-22)
(2.5290995 -0.016622463 9.2885624e-23)
(2.5384645 -0.015634757 1.1065724e-21)
(2.5428825 -0.011267338 6.2105693e-23)
(2.5472827 -0.0072337804 -1.0628708e-22)
(2.5512215 -0.0023169752 -2.7053247e-23)
(2.5275317 -0.021597808 -9.7146241e-22)
(2.5382993 -0.020268043 0)
(2.5428674 -0.016107703 5.5889823e-22)
(2.5476781 -0.011691698 5.6786687e-22)
(2.5515389 -0.0072576421 -2.2497226e-23)
(2.5551101 -0.0022810379 2.8369857e-23)
(2.5261448 -0.026897859 -1.0045062e-21)
(2.5382237 -0.025349166 -1.6453276e-21)
(2.5430139 -0.020709897 -7.7616914e-22)
(2.5481244 -0.016621555 -3.4400694e-22)
(2.5521517 -0.011694331 -1.0407412e-22)
(2.5556152 -0.0071420906 1.4506023e-22)
(2.5587501 -0.0021947014 -1.3873236e-22)
(2.5249668 -0.032705467 -8.6073612e-22)
(2.5383773 -0.030414062 -3.5720732e-22)
(2.5432514 -0.025678627 0)
(2.5487386 -0.021223073 -1.3797702e-22)
(2.5529425 -0.016603556 7.5136668e-22)
(2.5564486 -0.011487725 5.6904669e-22)
(2.5594265 -0.0068961807 0)
(2.562096 -0.002066893 4.4959534e-22)
(2.5241051 -0.038835164 2.4967313e-21)
(2.5388055 -0.035675928 2.4594716e-21)
(2.5436597 -0.030516266 2.388537e-21)
(2.5494483 -0.026131456 1.9842117e-21)
(2.5538912 -0.021165442 1.4472244e-21)
(2.5575949 -0.016325317 6.0081226e-22)
(2.5604751 -0.011085816 2.3714935e-22)
(2.5629382 -0.0065429913 8.2409623e-23)
(2.5651164 -0.0019060819 -3.7548454e-23)
(2.5236096 -0.045340921 -1.6076025e-21)
(2.5395982 -0.040917024 8.9912629e-22)
(2.5442558 -0.035415439 -6.4623589e-23)
(2.5502492 -0.030826579 2.8586323e-22)
(2.5549312 -0.026039813 -3.7598172e-22)
(2.5589103 -0.020837825 -1.1807936e-21)
(2.5619792 -0.015789817 1.2282908e-21)
(2.5642039 -0.010521366 1.7671232e-23)
(2.5661204 -0.0060978694 -1.2831255e-21)
(2.5677928 -0.0017225964 -6.8887948e-22)
(2.5236105 -0.052113665 9.810892e-22)
(2.5408099 -0.046152099 -2.6654833e-21)
(2.5450884 -0.040115868 -2.4199085e-21)
(2.5511083 -0.035502322 -6.9974498e-23)
(2.5559774 -0.030717019 -2.6124317e-21)
(2.5603466 -0.025711629 -1.1626715e-21)
(2.5636911 -0.0202151 1.4925144e-21)
(2.5660733 -0.015022448 -4.3492189e-22)
(2.5675971 -0.0098098704 -3.1761133e-22)
(2.5689509 -0.0055839343 -2.7250699e-22)
(2.5701237 -0.001526726 0)
(2.5240747 -0.059201159 -1.3830664e-21)
(2.5424254 -0.051259173 2.320429e-21)
(2.5462082 -0.044558069 1.431599e-21)
(2.5520051 -0.039877825 -9.9917719e-23)
(2.5569485 -0.035407469 -1.1640232e-21)
(2.5617486 -0.030473843 2.927444e-22)
(2.5655984 -0.025068468 -3.4469922e-21)
(2.5682206 -0.019292383 2.094656e-22)
(2.5698179 -0.014029698 2.2678018e-22)
(2.5706213 -0.008972578 -2.152922e-24)
(2.5714168 -0.0050288039 2.0038413e-21)
(2.5721205 -0.0013267241 -9.3719968e-22)
(2.5249933 -0.066513326 -3.8749784e-22)
(2.5445595 -0.056295049 -6.2139123e-22)
(2.5476966 -0.048624241 3.1612029e-21)
(2.5529249 -0.043881911 -8.2828018e-22)
(2.5577512 -0.039838311 -1.9698429e-21)
(2.5630036 -0.035371545 2.5238994e-22)
(2.567499 -0.029930811 1.9434076e-22)
(2.5706824 -0.024044285 1.740257e-21)
(2.5724109 -0.018049011 -1.9406193e-21)
(2.5731553 -0.01283362 1.6584381e-21)
(2.5732497 -0.0080389191 1.0978091e-21)
(2.5735161 -0.0044574496 -4.7395151e-22)
(2.5738032 -0.0011276986 7.1923285e-23)
(2.526407 -0.074224086 -6.913053e-22)
(2.5474223 -0.061031067 -7.9977026e-24)
(2.54959 -0.05221991 2.19218e-21)
(2.5538426 -0.047383824 -1.992378e-21)
(2.5582886 -0.04396254 -5.6839763e-21)
(2.5639561 -0.040182901 3.8862385e-22)
(2.5692785 -0.035095819 2.0885385e-21)
(2.5732364 -0.028917269 -4.2605557e-22)
(2.5754654 -0.02256706 4.0779114e-22)
(2.5761656 -0.016496372 5.80172e-22)
(2.5760372 -0.011476592 -1.2903702e-22)
(2.5754691 -0.0070457298 -3.6120165e-21)
(2.5752597 -0.0038862683 1.3338307e-21)
(2.5751968 -0.00093245774 1.090421e-21)
(2.5280683 -0.082292358 3.6791693e-21)
(2.551141 -0.065818284 -4.1104077e-21)
(2.5520998 -0.055079369 -2.3558663e-21)
(2.5547839 -0.050096523 -1.4419287e-21)
(2.558449 -0.047605251 2.7799961e-21)
(2.5644398 -0.044918986 1.5671159e-21)
(2.570749 -0.040415996 -4.9881594e-21)
(2.5757968 -0.034247136 1.9092997e-21)
(2.5787642 -0.027273661 -2.8043891e-21)
(2.5797881 -0.020625253 -3.8744866e-22)
(2.579396 -0.014687037 1.8688857e-21)
(2.5784383 -0.010018725 -3.2680914e-21)
(2.5772854 -0.0060321763 5.0298063e-22)
(2.5766704 -0.0033236989 4.5573759e-22)
(2.5763262 -0.00074345258 -1.4200387e-21)
(2.5300647 -0.091017139 1.9545341e-21)
(2.5561824 -0.070208059 -1.5778208e-21)
(2.555138 -0.057502322 -1.6765767e-21)
(2.5558305 -0.051935334 4.0334062e-21)
(2.5581862 -0.050474721 8.9435791e-21)
(2.564277 -0.049426282 6.5865094e-22)
(2.5717202 -0.045973566 -3.724553e-21)
(2.57818 -0.039961499 1.0774571e-21)
(2.5822741 -0.032527884 -1.5487824e-21)
(2.5838279 -0.024943341 1.9968008e-21)
(2.5834956 -0.01828326 -2.7915478e-22)
(2.5820468 -0.012710157 -4.0409891e-23)
(2.5803622 -0.0085274894 -2.9581388e-22)
(2.5787243 -0.0050340538 3.159978e-21)
(2.5777809 -0.0027754328 -3.50112e-21)
(2.5772109 -0.00056310504 8.146581e-22)
(2.5324547 -0.10041793 -3.1479962e-21)
(2.5625523 -0.074737012 1.8569299e-21)
(2.5589517 -0.058727669 7.1487696e-22)
(2.556732 -0.052985585 -4.8006614e-21)
(2.5573272 -0.052794993 -6.7890506e-21)
(2.5632941 -0.053603235 -2.8876013e-21)
(2.5719821 -0.0517105 2.713609e-21)
(2.5802166 -0.046217858 -5.1259635e-21)
(2.5858493 -0.038316905 2.1566984e-21)
(2.5883165 -0.029803844 -2.8296638e-21)
(2.5881689 -0.021999024 -1.8803625e-21)
(2.5864825 -0.01567262 2.210906e-21)
(2.5841082 -0.010673525 -2.0400329e-21)
(2.5818407 -0.0070658318 3.4105308e-21)
(2.5798266 -0.0040794889 0)
(2.5786268 -0.0022470563 1.6521462e-22)
(2.5778759 -0.00039199453 1.385889e-21)
(2.5352722 -0.11065548 -4.064172e-21)
(2.5702721 -0.079177825 -1.0676139e-21)
(2.5638063 -0.059235656 -1.0718416e-21)
(2.5576851 -0.052377816 -3.6372199e-21)
(2.5558292 -0.053332766 -2.9920004e-21)
(2.5612127 -0.057421685 -1.5951775e-20)
(2.5712917 -0.057650799 5.4515975e-21)
(2.5817035 -0.053064852 2.262478e-22)
(2.5893811 -0.044859459 3.6788003e-21)
(2.5931684 -0.03522426 -9.0983749e-22)
(2.5935089 -0.026149262 1.8405044e-21)
(2.5915986 -0.018629256 -1.4349971e-21)
(2.5887151 -0.012961691 0)
(2.5856163 -0.0086816471 -9.1730833e-22)
(2.5829264 -0.0056827246 5.3261024e-23)
(2.5806409 -0.0031866846 3.574368e-21)
(2.5792421 -0.0017425707 3.1780468e-21)
(2.578362 -0.00022711177 -7.2590175e-22)
(2.5384828 -0.1218012 -3.6164041e-21)
(2.5794537 -0.083720203 -6.1434278e-22)
(2.5696687 -0.058623614 3.9208511e-22)
(2.5590111 -0.05025198 2.1826602e-21)
(2.5535829 -0.053558893 4.1812922e-21)
(2.5581019 -0.060338912 -7.9855202e-21)
(2.5694104 -0.063703932 -2.221706e-21)
(2.5824126 -0.060606225 2.4954466e-21)
(2.5927219 -0.052287507 4.2391389e-21)
(2.5983638 -0.041448333 -4.7527508e-21)
(2.5994952 -0.030744734 0)
(2.5975324 -0.021829242 -4.8059304e-22)
(2.5940397 -0.015090541 2.2255187e-21)
(2.5902345 -0.010317844 9.1869539e-24)
(2.5866426 -0.0068173483 1.0905846e-21)
(2.5836828 -0.0044083897 -1.9593079e-21)
(2.5812165 -0.0023629254 6.6516792e-22)
(2.5796615 -0.0012676755 8.9860318e-22)
(2.5786791 -3.3324565e-05 7.6663371e-24)
(2.5420814 -0.13390766 1.2874555e-20)
(2.5902118 -0.088425559 5.3144539e-21)
(2.5767353 -0.056845785 5.4693948e-23)
(2.5606178 -0.046633469 1.0086157e-20)
(2.5505574 -0.051894127 8.5855312e-21)
(2.5536659 -0.062831292 2.5285857e-20)
(2.5661371 -0.069919026 8.5716482e-22)
(2.5821206 -0.068909999 -3.3322972e-21)
(2.5957133 -0.060795132 -6.8398179e-21)
(2.6038507 -0.048653033 -2.3606331e-22)
(2.6062041 -0.036005515 3.9113395e-21)
(2.6043123 -0.025241552 -8.9883628e-22)
(2.6002358 -0.017228164 -4.1360575e-21)
(2.5955354 -0.011645164 9.2290717e-22)
(2.5911409 -0.0078750902 2.2851746e-21)
(2.587278 -0.0051317603 7.6373706e-22)
(2.5841748 -0.0032545563 1.0131729e-22)
(2.5815977 -0.0016057838 -3.6661385e-21)
(2.5799257 -0.00083245462 -2.8818464e-21)
(2.5787928 0.00015713354 -2.2265376e-23)
(2.5460688 -0.14700997 -1.1826009e-20)
(2.6026187 -0.093407742 2.708147e-21)
(2.5851673 -0.053870758 -4.9322691e-22)
(2.5625096 -0.041193593 -1.8097754e-21)
(2.5467904 -0.048643468 -4.5896009e-21)
(2.5475282 -0.064247014 -9.7580547e-22)
(2.5612027 -0.076039716 3.9150879e-21)
(2.5805379 -0.078057569 1.1343972e-20)
(2.5981723 -0.070569971 1.4668089e-20)
(2.6095817 -0.057091157 3.2457135e-22)
(2.6136941 -0.042099504 -2.8834096e-21)
(2.6120919 -0.029014151 2.8668827e-21)
(2.6073487 -0.019279372 -1.1996745e-21)
(2.6016589 -0.012751086 2.0635287e-21)
(2.5962269 -0.0085061131 -3.0796895e-22)
(2.5915675 -0.0057160138 -3.2788544e-21)
(2.5876168 -0.0036436202 1.367848e-21)
(2.5844617 -0.0022181385 9.0292356e-22)
(2.5818181 -0.00090826208 -1.02302e-21)
(2.5800677 -0.00043397213 -7.4084517e-22)
(2.5788062 0.00028998435 -1.8793904e-21)
(2.5505788 -0.16107143 -1.6431913e-20)
(2.6166643 -0.098788392 7.6819506e-21)
(2.5950797 -0.049635677 -6.9621162e-23)
(2.5647693 -0.03385544 -9.7051849e-22)
(2.5421881 -0.043518555 5.7589678e-21)
(2.5396982 -0.064589678 -7.9103066e-21)
(2.5543217 -0.0821313 -1.2990564e-22)
(2.5774076 -0.088082188 2.3581622e-21)
(2.5998915 -0.081795475 3.6083374e-21)
(2.6154882 -0.067024208 -3.7301579e-21)
(2.6220545 -0.049274017 -4.8337335e-21)
(2.6210229 -0.033246197 3.5450912e-21)
(2.6155665 -0.021286614 1.6429399e-21)
(2.6086286 -0.013473271 3.5044555e-22)
(2.6020017 -0.0087321596 -1.2635169e-21)
(2.5963123 -0.0058049246 2.6248991e-22)
(2.5916545 -0.0038696764 -4.2525828e-21)
(2.587745 -0.0023454382 -2.2279729e-21)
(2.5845942 -0.0012859395 1.2434286e-21)
(2.5819001 -0.00026396945 -2.12315e-21)
(2.580095 -5.02182e-05 1.6606932e-21)
(2.5787291 0.00039512249 1.7036255e-22)
(2.5556552 -0.17596178 3.1265556e-20)
(2.6320394 -0.10465092 -8.9843745e-21)
(2.6065521 -0.044082236 -1.2683814e-20)
(2.5674392 -0.024549164 2.9462531e-21)
(2.5367347 -0.036358115 2.0789092e-20)
(2.5300731 -0.063689546 1.7892487e-20)
(2.5452935 -0.088067241 -7.8072269e-23)
(2.5724889 -0.099028461 -3.3778959e-20)
(2.6006435 -0.094674476 -3.3468058e-21)
(2.6214839 -0.078741619 2.255813e-20)
(2.6313726 -0.057801777 -5.3589152e-21)
(2.6313176 -0.038104389 -2.7040248e-21)
(2.625084 -0.023236303 9.482194e-21)
(2.6166138 -0.013742154 -2.5674406e-21)
(2.6084342 -0.0083400213 1.7322478e-21)
(2.6015603 -0.0053783731 -5.6068373e-21)
(2.5960032 -0.0035864529 3.1480954e-21)
(2.5915286 -0.0023213731 3.332058e-21)
(2.5877316 -0.0012123845 -2.1585022e-21)
(2.5846131 -0.00043890652 9.2042477e-22)
(2.5818673 0.00033544986 1.3401334e-21)
(2.5800035 0.00032539529 1.5171413e-22)
(2.5785411 0.00050946027 -1.279111e-21)
(2.5602304 -0.19139992 -5.0141133e-20)
(2.6477036 -0.11109076 -2.4595944e-20)
(2.6196302 -0.037220653 1.3036455e-21)
(2.5705542 -0.013168224 -1.0202582e-21)
(2.5304208 -0.027075186 -1.9412979e-20)
(2.5185593 -0.061374491 -2.1535232e-21)
(2.5339611 -0.093780281 -8.8018034e-21)
(2.5655098 -0.11090614 -3.5094985e-21)
(2.6001836 -0.10935768 9.8653753e-21)
(2.6274536 -0.0925411 -3.3840563e-21)
(2.6417342 -0.068000186 -1.1856579e-21)
(2.6432135 -0.043782185 1.0684042e-21)
(2.6361782 -0.025152392 3.2195975e-21)
(2.6257848 -0.013421081 -4.379037e-22)
(2.6156279 -0.007170204 -6.5863102e-21)
(2.6072064 -0.0042012016 -5.2334184e-21)
(2.6006542 -0.0027578814 5.4686679e-21)
(2.5954887 -0.0018238026 1.4505943e-21)
(2.5912911 -0.0010277803 2.3679696e-21)
(2.5876265 -0.00021128583 3.2381618e-21)
(2.584544 0.0003444638 -8.1077303e-22)
(2.5817498 0.00090072007 1.9693593e-21)
(2.5798103 0.00068091519 0)
(2.5782543 0.00065297113 1.2163136e-21)
(2.5630322 -0.20716024 -1.2728444e-20)
(2.6620384 -0.11809852 1.4216404e-20)
(2.6340805 -0.029107193 1.7480597e-20)
(2.5741322 0.00029634169 -5.7377875e-21)
(2.5232618 -0.015531825 -2.4468903e-20)
(2.5050972 -0.05754426 8.520099e-21)
(2.5201852 -0.099161997 1.3346927e-21)
(2.556244 -0.12369276 2.0357916e-20)
(2.5982568 -0.1259816 -2.2122898e-20)
(2.633247 -0.10872003 -1.6204105e-20)
(2.6532095 -0.080221413 7.1563132e-21)
(2.6569802 -0.050520298 -1.948867e-21)
(2.6491739 -0.027066783 1.7347814e-22)
(2.636398 -0.012369471 7.3296966e-21)
(2.6236674 -0.0049889248 -8.0960097e-21)
(2.6132618 -0.0020650714 3.3870873e-22)
(2.6054275 -0.0011587431 3.9131555e-22)
(2.5995676 -0.00082281774 2.8574353e-21)
(2.5949154 -0.00044331449 -4.9875229e-21)
(2.5910134 6.827336e-05 -3.5969224e-21)
(2.5874659 0.00069141776 2.4018746e-21)
(2.5843989 0.0010826906 1.6036054e-21)
(2.5815593 0.0014420317 3.4876031e-22)
(2.5795383 0.001016172 1.2369018e-21)
(2.5779017 0.00077028401 2.1933765e-21)
(2.5643639 -0.2230442 8.7619771e-20)
(2.6746849 -0.12586264 2.579184e-20)
(2.6487867 -0.01992804 -1.3423698e-21)
(2.5778369 0.015848525 -3.7315576e-21)
(2.5152217 -0.001743895 2.3153558e-20)
(2.4896697 -0.052086025 -2.3213371e-21)
(2.5038733 -0.10411383 1.0285672e-20)
(2.5445003 -0.13733893 -1.2180305e-20)
(2.5946031 -0.1446365 -5.5399426e-22)
(2.6386825 -0.12756091 3.1458467e-20)
(2.6658425 -0.094843999 -2.6030718e-21)
(2.6729023 -0.058607405 4.0313153e-21)
(2.6644565 -0.029036746 -2.1680428e-21)
(2.6487594 -0.010426088 9.3711065e-22)
(2.6327083 -0.0015211694 -4.1377651e-21)
(2.6196903 0.0013089897 2.5933459e-22)
(2.6102371 0.0014217734 7.2133451e-21)
(2.603522 0.00086826598 3.0650302e-21)
(2.598515 0.000548612 -3.2958928e-21)
(2.5943811 0.00064963514 -1.7816717e-21)
(2.5907368 0.0010260928 2.640645e-21)
(2.5872732 0.0015262284 3.038816e-22)
(2.584191 0.0017873304 7.9883609e-23)
(2.5812971 0.0019644933 -2.4162472e-21)
(2.5791939 0.0013426706 -3.1881928e-22)
(2.57748 0.00087054409 -1.9132418e-21)
(2.5641534 -0.23889048 2.5638087e-20)
(2.6865813 -0.13388163 -1.1929089e-19)
(2.6620373 -0.0098634244 -1.4417033e-20)
(2.5807959 0.033478256 1.4927118e-21)
(2.5059961 0.014325312 2.9322768e-21)
(2.4722697 -0.044961489 -3.6366909e-20)
(2.4849923 -0.10854609 1.723856e-20)
(2.530132 -0.15175749 1.6946091e-20)
(2.5889728 -0.16536822 -1.4253092e-20)
(2.6435421 -0.14931342 1.1755152e-20)
(2.6796336 -0.11226842 -2.6026026e-22)
(2.6912711 -0.068379867 4.6495424e-21)
(2.6824615 -0.031148439 1.1871972e-21)
(2.6632404 -0.007413339 -3.5433902e-21)
(2.6429299 0.0035489867 -1.9519886e-21)
(2.626497 0.0062586763 -6.7906942e-21)
(2.6149271 0.0052462222 2.7270408e-21)
(2.6071877 0.0034264005 -2.6422695e-21)
(2.6018023 0.0020804431 -4.0864525e-22)
(2.5976311 0.0015123012 -1.5506874e-21)
(2.59394 0.0015508252 7.7765606e-23)
(2.5904807 0.0018974973 7.302257e-21)
(2.5870569 0.0023195086 -2.2046986e-21)
(2.5839313 0.0024683099 -1.3888746e-21)
(2.5809706 0.0024703668 -9.3023688e-22)
(2.5787825 0.0016631964 -2.187189e-21)
(2.5769982 0.00097065777 6.9720622e-23)
(2.5580036 -0.25461855 -7.5592368e-20)
(2.6958403 -0.14299126 2.2633227e-21)
(2.6742602 0.00079620417 3.1899155e-21)
(2.5829048 0.052972012 -2.8692978e-20)
(2.4949918 0.032546154 -1.7861137e-20)
(2.4528956 -0.036109285 -4.4517373e-22)
(2.4635597 -0.11238954 -3.4308747e-20)
(2.5130523 -0.16684137 1.1349509e-20)
(2.5811346 -0.18815855 -1.7977063e-20)
(2.647577 -0.17418659 -3.0169566e-20)
(2.6945364 -0.13289343 1.1183629e-21)
(2.712357 -0.080223501 2.8237841e-21)
(2.7036695 -0.033531294 3.4274264e-21)
(2.6802762 -0.0031425505 2.419008e-21)
(2.6545586 0.010595895 7.7264016e-21)
(2.6336755 0.013168485 -2.3428061e-21)
(2.6193499 0.010638511 -1.1090226e-22)
(2.6103144 0.0070508362 -6.3381369e-22)
(2.6045667 0.0042713115 -4.0857258e-21)
(2.6004538 0.002726862 2.563775e-21)
(2.596979 0.0022229476 4.0257588e-22)
(2.5936092 0.0023446559 3.9387826e-21)
(2.5902509 0.0027219309 -2.2024715e-21)
(2.586818 0.0030885365 -1.4095243e-21)
(2.583624 0.0031319209 1.7568515e-21)
(2.5805862 0.0029615864 2.017536e-21)
(2.5783122 0.001975308 2.2794395e-22)
(2.5764641 0.0010648404 7.5617343e-22)
(2.5499518 -0.27000603 3.3521653e-20)
(2.6995005 -0.15280691 1.6200691e-19)
(2.6902412 0.01117656 -3.0092473e-21)
(2.5862603 0.073654527 5.1463873e-21)
(2.4828148 0.052704676 4.6072555e-21)
(2.4314568 -0.025732235 7.9218969e-20)
(2.4396592 -0.1155665 3.7033701e-20)
(2.4932158 -0.18245427 1.5941131e-20)
(2.570877 -0.212939 -2.9548728e-21)
(2.6505083 -0.20232319 -1.3387506e-20)
(2.7104409 -0.15710938 6.5850854e-21)
(2.7364154 -0.094563102 1.3057587e-21)
(2.7285871 -0.036342563 -2.0488172e-21)
(2.7003601 0.0025749629 -4.4660572e-21)
(2.6678594 0.020043068 -2.8353895e-21)
(2.6412301 0.022499543 -1.1327024e-22)
(2.6233147 0.017953249 -1.6921435e-21)
(2.6126398 0.011985766 1.351098e-21)
(2.6065025 0.0072292435 -5.0032e-21)
(2.6026224 0.0043485147 8.7477961e-22)
(2.5995465 0.0030505897 2.7033156e-22)
(2.5965663 0.0028117682 2.7356972e-21)
(2.593381 0.0030956174 -9.3877159e-22)
(2.5900422 0.003527587 -4.9468009e-21)
(2.5865556 0.0038438696 0)
(2.5832722 0.0037810524 -1.2873209e-22)
(2.5801497 0.0034386069 -1.2904943e-21)
(2.5777903 0.0022780064 1.5355008e-21)
(2.5758845 0.001153903 -8.4250107e-22)
(2.5395849 -0.28440152 3.067844e-20)
(2.697405 -0.1641301 1.0556317e-19)
(2.7037264 0.021424063 3.6268216e-20)
(2.592416 0.095843984 -3.6242064e-20)
(2.4708367 0.074433806 -1.764802e-20)
(2.4081539 -0.013896881 -6.7779987e-21)
(2.4134145 -0.11808215 2.6646091e-20)
(2.4706221 -0.19842825 -4.4026036e-20)
(2.5579888 -0.23954568 -2.441247e-22)
(2.6519941 -0.23379859 1.7267919e-20)
(2.7271484 -0.18526713 -4.4496095e-21)
(2.7636196 -0.1118595 -9.0588205e-21)
(2.757748 -0.039809615 -6.4345746e-22)
(2.7240401 0.0099535859 -1.5420724e-21)
(2.6831374 0.032357509 8.4251931e-22)
(2.6491562 0.034777384 -2.2791315e-22)
(2.6266035 0.027610248 -1.9467895e-21)
(2.6138381 0.018478616 2.8997684e-21)
(2.6072882 0.011087856 1.559208e-21)
(2.6038203 0.0063887429 5.2972425e-21)
(2.6014257 0.0040328761 1.6779627e-21)
(2.599066 0.0032540801 -1.2190899e-21)
(2.5963644 0.0033772714 1.73361e-21)
(2.5932346 0.0038469865 -2.5015119e-22)
(2.5898441 0.0043312541 3.7213383e-21)
(2.5862668 0.0045905909 2.0890222e-22)
(2.5828781 0.0044162961 -1.115956e-21)
(2.5796662 0.0039009368 1.9132229e-21)
(2.5772232 0.0025705778 1.7763414e-22)
(2.5752658 0.0012380152 3.6296679e-22)
(2.5223683 -0.29964214 -4.5093722e-20)
(2.6909121 -0.17306876 -2.5660961e-19)
(2.6968549 0.031329564 4.2305351e-20)
(2.595667 0.11996312 3.3476414e-20)
(2.4580666 0.098393278 -1.5556217e-20)
(2.3834044 -0.00084628258 -3.2022379e-20)
(2.3849825 -0.11988898 -5.3987362e-20)
(2.4454104 -0.21463048 -2.9060865e-20)
(2.5423975 -0.26780822 1.9107767e-20)
(2.6517206 -0.26857715 -4.037959e-21)
(2.7443446 -0.21766272 4.2220598e-22)
(2.7940555 -0.13258235 -1.2623489e-20)
(2.7916125 -0.044196272 -9.1619407e-21)
(2.7518873 0.019134988 4.6260191e-21)
(2.7007314 0.048070095 3.7812491e-21)
(2.6574449 0.050590363 5.5584718e-22)
(2.6289497 0.040074354 -2.1951797e-22)
(2.6135344 0.026813126 2.0197665e-21)
(2.6065369 0.015948834 3.0586299e-21)
(2.603722 0.0088678626 2.9496195e-21)
(2.6023249 0.0050966217 5.5175398e-21)
(2.6009203 0.0036284551 1.7483913e-21)
(2.5989457 0.0034837145 2.9940297e-21)
(2.5963263 0.0039831225 3.3691152e-21)
(2.5931435 0.0046232658 1.0523349e-21)
(2.5896448 0.0051406984 1.5672408e-21)
(2.5859491 0.0053299329 4.1337728e-22)
(2.582444 0.0050369438 3.6386956e-22)
(2.5791405 0.0043478804 -8.7285361e-23)
(2.5766171 0.0028522948 4.9633353e-22)
(2.5746143 0.001317118 1.8818263e-22)
(2.4983336 -0.31591491 -2.2042317e-20)
(2.6778809 -0.18258612 -9.6696313e-20)
(2.6763837 0.042673419 -1.4419499e-19)
(2.578578 0.1441576 9.5684904e-20)
(2.441751 0.12429741 2.9161966e-21)
(2.3575009 0.013832374 -4.5007949e-22)
(2.3546229 -0.12116175 0)
(2.417927 -0.23093128 4.1294893e-20)
(2.5243731 -0.29759187 -2.7422749e-20)
(2.6498037 -0.30671499 -1.1865813e-20)
(2.7619693 -0.25460012 9.4718753e-21)
(2.8278461 -0.15724664 2.2544187e-20)
(2.8307159 -0.049798035 8.0300027e-21)
(2.78446 0.030298257 -5.8691434e-21)
(2.7209523 0.06771225 8.6114835e-21)
(2.6660726 0.070586337 4.2963247e-21)
(2.6300349 0.055859522 -5.3032206e-21)
(2.6112866 0.0372763 -8.9801958e-21)
(2.6038113 0.021917442 -3.4706418e-21)
(2.6019495 0.011743579 3.8014665e-23)
(2.6019584 0.0061678456 -2.0740791e-21)
(2.601886 0.0037999417 -3.6205153e-21)
(2.600976 0.0033469478 -1.5236443e-22)
(2.5990955 0.0038289683 -2.9679457e-22)
(2.5964001 0.004662539 -1.4069913e-21)
(2.5930818 0.0054343392 -4.5175585e-21)
(2.5894336 0.0059573878 -2.6183034e-21)
(2.5856002 0.0060608273 4.9153748e-23)
(2.5819721 0.0056417085 -2.0850329e-21)
(2.5785775 0.0047787185 -1.2992837e-21)
(2.5759777 0.0031226609 -1.4917073e-22)
(2.5739355 0.0013913597 1.4327491e-22)
(2.4675498 -0.33226751 5.3512759e-21)
(2.6580666 -0.19294027 2.9070663e-19)
(2.6480271 0.054015533 -8.0334686e-20)
(2.5502532 0.16747137 7.6076872e-20)
(2.42191 0.15047322 1.0472159e-20)
(2.3312896 0.029217886 4.410022e-20)
(2.3229583 -0.12162615 4.8613708e-22)
(2.3886074 -0.24739475 4.1111417e-20)
(2.504314 -0.32876253 -1.1735256e-20)
(2.6465223 -0.34813188 0)
(2.780271 -0.29638641 0)
(2.865433 -0.18655491 0)
(2.8760123 -0.057156158 2.8129475e-20)
(2.8227344 0.043611957 4.0235495e-21)
(2.7441615 0.091884053 -2.7331597e-21)
(2.674938 0.09547106 -6.6700045e-21)
(2.6294846 0.075512498 -2.6547341e-21)
(2.6065821 0.050167999 -7.4559509e-22)
(2.5986124 0.029060765 -4.3385313e-21)
(2.5980907 0.014951975 -2.0637957e-21)
(2.6000096 0.0070888591 1.2362196e-21)
(2.6017446 0.00363077 -4.0462277e-21)
(2.6022716 0.0027969594 -6.1634216e-21)
(2.6014344 0.003309151 -2.9499353e-21)
(2.599423 0.0043308071 -1.7607321e-21)
(2.5965374 0.005425547 -1.8167957e-21)
(2.5930268 0.0062801594 -1.6950876e-21)
(2.5892015 0.0067790219 -1.8989862e-21)
(2.5852188 0.0067811188 1.441575e-21)
(2.5814651 0.0062292263 3.2918183e-22)
(2.5779816 0.0051929101 -3.3344195e-22)
(2.5753104 0.0033814256 -8.1361363e-23)
(2.5732347 0.0014608843 1.6912251e-22)
(2.4310982 -0.34835745 9.3885549e-21)
(2.6298991 -0.20176848 -9.0837675e-21)
(2.6108072 0.0656478 1.7164705e-19)
(2.5159744 0.19055731 -2.9945638e-20)
(2.3973844 0.17432229 -7.8944051e-21)
(2.3055777 0.045975309 -4.690253e-20)
(2.2909219 -0.1220051 -1.7714114e-21)
(2.3577361 -0.26362214 -9.3694128e-20)
(2.4822488 -0.36100785 2.4833463e-20)
(2.6414119 -0.39240665 2.7549043e-21)
(2.7980225 -0.34248207 1.6365427e-20)
(2.9052596 -0.22042033 -4.9693047e-20)
(2.9272199 -0.066891946 2.1283483e-20)
(2.8681898 0.058803237 5.0100799e-20)
(2.7715301 0.12117217 -1.2555613e-20)
(2.6839701 0.12600092 -4.5101341e-21)
(2.6268261 0.099619323 -7.8170506e-21)
(2.5988391 0.065775258 5.1712684e-21)
(2.5903835 0.0374217 8.3268811e-21)
(2.591694 0.018362058 2.7745728e-21)
(2.5961526 0.0076673882 2.6655623e-22)
(2.6002715 0.002889838 -1.430521e-21)
(2.6026929 0.0016661656 5.5885558e-22)
(2.603219 0.002244322 3.332435e-21)
(2.6021417 0.003560274 2.6725217e-21)
(2.5998469 0.0049944618 -1.1666609e-21)
(2.5966985 0.0062670192 -4.7676331e-22)
(2.5929608 0.0071549837 5.9871708e-21)
(2.5889424 0.0076015324 -2.2662572e-22)
(2.5848044 0.0074883925 -8.8194779e-23)
(2.5809256 0.0067983389 -1.0132599e-22)
(2.5773572 0.005590152 -4.4067361e-22)
(2.5746201 0.0036285121 -6.0765095e-23)
(2.5725166 0.0015258631 7.8507765e-22)
(2.3886504 -0.36376526 -2.109107e-21)
(2.5907083 -0.20918736 -1.4249055e-19)
(2.5652641 0.079970352 2.841626e-21)
(2.4753283 0.21415218 -1.8380873e-19)
(2.365396 0.19968325 -3.6776909e-21)
(2.2791335 0.060059184 -5.6525498e-20)
(2.2591129 -0.12028886 5.3305151e-20)
(2.3255665 -0.28001917 2.1983331e-20)
(2.4578548 -0.39344826 1.8341049e-20)
(2.6327275 -0.43834533 -3.058446e-21)
(2.8122625 -0.39149524 9.3366886e-21)
(2.9422886 -0.25684166 -1.498369e-21)
(2.9767812 -0.077424413 -1.0636323e-19)
(2.9166501 0.076177867 -7.4076721e-21)
(2.8039551 0.15584742 1.3334842e-21)
(2.693988 0.16291058 2.0004361e-20)
(2.621538 0.12876507 1.1775776e-20)
(2.5873871 0.084376691 7.5060008e-21)
(2.5785171 0.046983824 5.7922722e-21)
(2.5822805 0.021797204 1.1716144e-20)
(2.5900489 0.0076313453 1.0027049e-21)
(2.5972583 0.0013084156 -2.1880573e-21)
(2.6021177 -0.0003059031 8.1127125e-22)
(2.6043864 0.00046873047 2.6153637e-21)
(2.6044836 0.002183553 4.3014605e-21)
(2.6029682 0.0040918646 4.4057876e-22)
(2.6003034 0.0058026914 -1.1407736e-21)
(2.5968537 0.0071736859 3.759972e-22)
(2.592871 0.0080506382 1.530068e-21)
(2.5886519 0.0084204458 -1.7797747e-21)
(2.5843575 0.0081804543 -1.9328379e-21)
(2.5803567 0.0073482079 3.0222379e-22)
(2.5767085 0.005970361 -3.1807685e-23)
(2.5739114 0.0038639938 -3.944434e-22)
(2.5717855 0.0015864852 -8.7266355e-23)
(2.3408575 -0.37805868 8.4792683e-21)
(2.5413264 -0.21507922 9.2135836e-20)
(2.5117269 0.095935991 -4.8614018e-20)
(2.4265268 0.23834773 -1.2297901e-19)
(2.3279211 0.22713906 3.276596e-22)
(2.2469799 0.079343669 1.6206231e-20)
(2.2285879 -0.12137462 -1.5908983e-20)
(2.2917687 -0.29450411 7.1170568e-20)
(2.431018 -0.42615112 -5.5238892e-21)
(2.6195313 -0.48490958 -6.9943069e-22)
(2.819871 -0.44188215 -4.9906519e-20)
(2.9728815 -0.29425694 8.1161194e-20)
(3.0191646 -0.085302998 -3.4369764e-21)
(2.9549529 0.09932131 -5.1813883e-20)
(2.8315045 0.19738765 -1.5206632e-20)
(2.7048202 0.20708286 -8.7617447e-22)
(2.6136605 0.16353073 1.7420646e-20)
(2.57147 0.1061912 1.3904886e-20)
(2.5623546 0.057689602 -6.587182e-21)
(2.5693543 0.024997438 -5.3953539e-21)
(2.5813656 0.0066589877 1.3273577e-21)
(2.5925083 -0.0014609703 -1.1189504e-21)
(2.6004598 -0.0034133624 -3.8940261e-21)
(2.6049099 -0.0022698664 -1.7197842e-21)
(2.6064492 6.1530415e-05 2.2738059e-21)
(2.6058668 0.0025760209 -2.5720347e-21)
(2.6038173 0.0048620551 -1.0467791e-21)
(2.6007477 0.0067273359 1.4883068e-21)
(2.5969828 0.0081294495 -5.8233804e-22)
(2.5927489 0.0089587073 -6.4279371e-21)
(2.5883277 0.009231666 -7.1838297e-22)
(2.5838793 0.0088555303 1.1386907e-21)
(2.5797614 0.0078783048 8.9329483e-22)
(2.5760394 0.0063336244 -1.8424911e-22)
(2.5731883 0.0040880211 1.6889469e-21)
(2.5710454 0.0016429444 -4.4294237e-21)
(2.2885684 -0.39088618 1.3074465e-20)
(2.4827046 -0.21931453 1.2453786e-19)
(2.4501044 0.11357436 9.6523567e-20)
(2.370171 0.26296521 8.7534619e-20)
(2.2829898 0.25343541 -1.6710549e-21)
(2.2110158 0.10365066 2.266404e-21)
(2.1933683 -0.1148797 -9.5737097e-21)
(2.26035 -0.3117395 -3.6848158e-20)
(2.4012167 -0.45700026 1.1904245e-21)
(2.6020517 -0.53188817 -1.1844921e-20)
(2.8216809 -0.49450256 8.4740526e-21)
(2.9993088 -0.33420116 1.1611492e-19)
(3.0602051 -0.092361031 2.9255745e-19)
(2.9828436 0.1303957 -1.4953708e-19)
(2.8379311 0.24890307 2.3410041e-21)
(2.7042652 0.25994558 -1.7177056e-20)
(2.6026808 0.20492257 -2.812383e-21)
(2.5504871 0.13141101 -1.5966742e-20)
(2.5412001 0.069374974 -1.2778278e-20)
(2.5524168 0.027666709 -9.6342325e-21)
(2.5697829 0.004345232 1.8637494e-21)
(2.5858549 -0.005808414 6.0541506e-21)
(2.5976717 -0.0080208482 3.9054817e-21)
(2.6048182 -0.0062423681 2.5656284e-21)
(2.6080899 -0.0030161408 3.0026946e-22)
(2.6085866 0.00035313976 3.7935913e-21)
(2.6072275 0.0033376637 -1.7971199e-21)
(2.6046257 0.0058162947 0)
(2.6011516 0.0077378609 2.6441511e-21)
(2.597073 0.0091188704 -2.8087286e-21)
(2.5925894 0.009871753 -9.6965017e-22)
(2.5879689 0.010031805 1.1047494e-21)
(2.5833713 0.0095122878 -8.0178416e-22)
(2.5791425 0.0083883496 -5.8116909e-22)
(2.5753534 0.0066801336 9.514103e-22)
(2.5724547 0.0043008006 1.1258989e-21)
(2.5702997 0.0016954345 1.031659e-21)
(2.2328966 -0.40188008 3.0824844e-20)
(2.4159249 -0.22171739 4.5914039e-22)
(2.3818234 0.13247426 5.201055e-21)
(2.3074433 0.28780202 1.6040385e-19)
(2.2310541 0.27953977 -5.6501304e-20)
(2.1702369 0.12592092 1.4681573e-20)
(2.1542512 -0.10201605 1.2710416e-20)
(2.2211685 -0.32037029 5.1899766e-20)
(2.372544 -0.49046168 -9.5971859e-23)
(2.5802776 -0.57788604 5.3521865e-21)
(2.8195157 -0.54840724 4.7863978e-20)
(3.0259747 -0.38087361 1.4761915e-19)
(3.115422 -0.10631144 6.3066027e-20)
(3.0344334 0.16214321 -7.381147e-20)
(2.8433449 0.30931167 5.1442556e-20)
(2.6774989 0.32081732 -8.1357722e-23)
(2.579708 0.25339716 -1.8721053e-20)
(2.5240135 0.16053035 -2.1581042e-20)
(2.514316 0.081819726 -2.0414047e-21)
(2.5310208 0.029370761 1.4528885e-20)
(2.5550191 0.00030640997 -7.4604059e-22)
(2.5771614 -0.012188455 2.9517226e-22)
(2.5937453 -0.01452591 8.4304671e-21)
(2.6041977 -0.011780752 1.4634964e-21)
(2.6095293 -0.0072618297 2.9686266e-21)
(2.6112329 -0.002723721 -2.7706121e-22)
(2.6105995 0.0011888529 -3.7249729e-21)
(2.6084811 0.0043681847 -4.078213e-21)
(2.6053586 0.006899237 1.6313777e-21)
(2.6015001 0.0088068419 1.9356807e-22)
(2.5971176 0.01012901 -1.5983128e-21)
(2.5923897 0.010783782 2.1633164e-21)
(2.5875756 0.010818218 2.5218509e-21)
(2.5828353 0.010149754 6.1971165e-22)
(2.5785031 0.0088782204 -4.8930317e-22)
(2.574654 0.0070101302 5.6886778e-22)
(2.571714 0.0045025421 1.0815285e-21)
(2.5695515 0.0017441451 4.2350971e-21)
(2.1753372 -0.41073851 -1.0114726e-20)
(2.3423406 -0.222311 1.0386957e-19)
(2.3084508 0.15223662 -1.4756392e-19)
(2.2400864 0.31262724 -8.8737395e-20)
(2.1735155 0.30463985 9.9548341e-20)
(2.1236307 0.14835787 1.7806624e-20)
(2.112248 -0.090207515 4.538514e-21)
(2.1767277 -0.32344673 1.7908425e-20)
(2.3313387 -0.51554988 0)
(2.5596987 -0.62565189 1.85781e-20)
(2.8134452 -0.60547208 -5.7029521e-20)