/*--------------------------------*- C++ -*----------------------------------*\
| =========                 |                                                 |
| \\      /  F ield         | OpenFOAM: The Open Source CFD Toolbox           |
|  \\    /   O peration     | Version:  v2012                                 |
|   \\  /    A nd           | Website:  www.openfoam.com                      |
|    \\/     M anipulation  |                                                 |
\*---------------------------------------------------------------------------*/
FoamFile
{
    version     2.0;
    format      ascii;
    class       surfaceVectorField;
    location    "65.2895086693644942";
    object      Uf;
}
// * * * * * * * * * * * * * * * * * * * * * * * * * * * * * * * * * * * * * //

dimensions      [0 1 -1 0 0 0 0];


internalField   nonuniform List<vector> 
18180
(
(2.5334877 -0.0032414732 3.4210805e-23)
(2.5369689 -0.0017796124 -3.9673895e-22)
(2.5325534 -0.0066541004 3.0615311e-22)
(2.5363586 -0.0057849242 3.2576527e-22)
(2.5390826 -0.0043943727 -7.878032e-23)
(2.5410326 -0.0021194427 -1.3574029e-22)
(2.5313271 -0.010371391 1.6255271e-22)
(2.5359679 -0.0095968291 5.8640559e-23)
(2.5388547 -0.0088404214 7.3826492e-23)
(2.5407559 -0.0067876956 7.0722608e-23)
(2.5428622 -0.0046038876 2.4516619e-23)
(2.545126 -0.0022436654 2.4675091e-22)
(2.529818 -0.014546909 6.0304532e-23)
(2.5351727 -0.014016173 5.7654806e-22)
(2.5386292 -0.013328006 4.8370712e-22)
(2.5407156 -0.011068754 -5.7689618e-23)
(2.5428378 -0.0091908074 -5.7037652e-23)
(2.5451178 -0.0070844083 -1.4459427e-22)
(2.5472271 -0.0048127418 6.3756108e-23)
(2.5492403 -0.0023083553 1.0659518e-22)
(2.5282894 -0.019195482 -4.5708654e-22)
(2.5345168 -0.018481329 4.5536671e-23)
(2.5383792 -0.018024817 5.3477436e-22)
(2.5404886 -0.015875632 8.16418e-22)
(2.5428747 -0.013772779 3.1881642e-22)
(2.5453765 -0.011483752 3.199559e-22)
(2.547487 -0.0095593919 2.4207806e-22)
(2.5494578 -0.0072459511 -6.3570424e-23)
(2.5513855 -0.0048320119 -2.46989e-23)
(2.5532122 -0.0022986576 1.2008755e-24)
(2.5268151 -0.02432827 -9.8853687e-22)
(2.5338857 -0.02351083 -1.2894033e-21)
(2.5382603 -0.022900485 -8.5018645e-22)
(2.5404208 -0.020492957 -3.8078882e-22)
(2.5429431 -0.018481595 -1.3097344e-22)
(2.5456128 -0.016369785 9.8570315e-23)
(2.5479087 -0.014247909 9.6667461e-23)
(2.5499622 -0.011693046 2.2530552e-22)
(2.5518556 -0.0095738176 -6.4651659e-23)
(2.5536268 -0.007198748 6.2076531e-23)
(2.5553711 -0.0047550692 8.8670189e-23)
(2.5569707 -0.0022370281 -5.6814167e-23)
(2.5255361 -0.029894715 -9.3021666e-22)
(2.5334718 -0.028691239 -6.4149299e-22)
(2.5383031 -0.027956509 -9.7971955e-22)
(2.5404363 -0.025516654 -8.0644078e-22)
(2.5431366 -0.023288364 -3.7509889e-22)
(2.5460172 -0.020971686 -4.5079748e-22)
(2.5484418 -0.018997535 -2.3754449e-22)
(2.5505823 -0.016612382 2.1458256e-22)
(2.5525604 -0.014243776 3.3796468e-22)
(2.5543544 -0.011589029 2.3907605e-22)
(2.5560459 -0.0094116926 3.6415305e-22)
(2.5575638 -0.0070167412 7.1601607e-23)
(2.5590996 -0.0045880889 -6.7041733e-23)
(2.5604582 -0.0021295517 1.6117029e-22)
(2.5245215 -0.035858199 8.7415706e-22)
(2.5333141 -0.034220856 8.3191803e-22)
(2.5385986 -0.033131922 1.0982538e-21)
(2.5406463 -0.030465553 1.0170683e-21)
(2.5434624 -0.028170609 1.2342307e-21)
(2.5465179 -0.025909707 1.0055606e-21)
(2.5491053 -0.02377509 9.586251e-22)
(2.5513653 -0.021193691 6.7017609e-22)
(2.5534328 -0.018962355 1.1109395e-21)
(2.5553301 -0.016461752 6.7461565e-22)
(2.5570409 -0.014003486 5.8546116e-22)
(2.5585077 -0.011282858 3.9985523e-22)
(2.5599684 -0.0090842662 1.2254561e-22)
(2.5612197 -0.0067161466 4.1743124e-23)
(2.5625312 -0.0043470946 2.598505e-22)
(2.5636361 -0.0019849219 2.0128017e-22)
(2.523849 -0.04217769 3.7589854e-22)
(2.5335108 -0.039897743 1.682244e-21)
(2.5392151 -0.038370339 1.6531922e-21)
(2.5410841 -0.035542367 1.140104e-21)
(2.5439677 -0.033051013 1.1209103e-21)
(2.5471509 -0.030674747 1.3244736e-21)
(2.5498622 -0.028554743 1.1066209e-21)
(2.5522423 -0.026084732 7.8095981e-22)
(2.5544286 -0.02370495 5.0511623e-22)
(2.5564708 -0.020998486 1.0749501e-22)
(2.5582746 -0.01866163 -3.1980127e-22)
(2.5598379 -0.016052359 9.2147515e-22)
(2.5612523 -0.013535092 7.4930872e-22)
(2.5623798 -0.010798097 1.2563077e-22)
(2.5635922 -0.0086195731 4.8956477e-23)
(2.564561 -0.0063160984 -6.1365165e-22)
(2.5656352 -0.0040438567 -6.8120518e-22)
(2.5664795 -0.0018125547 -3.6954569e-22)
(2.5236101 -0.048828363 -2.699399e-22)
(2.5341247 -0.045755866 -2.1469424e-21)
(2.5402243 -0.043606458 -9.4282998e-22)
(2.5418211 -0.04050767 -8.1315003e-22)
(2.544686 -0.03783546 -1.2816788e-21)
(2.5479069 -0.035460067 -5.7160931e-23)
(2.5506931 -0.033250954 1.0199011e-22)
(2.5531685 -0.030770721 -1.1917167e-21)
(2.5554718 -0.028460338 -1.5316263e-21)
(2.5577193 -0.025872593 -7.7702359e-22)
(2.5596525 -0.023381402 -1.1714294e-21)
(2.5613577 -0.020520416 1.8196251e-22)
(2.5628638 -0.018083065 1.3648234e-21)
(2.5640713 -0.01539867 3.804734e-22)
(2.5651699 -0.012867477 -2.1619983e-22)
(2.5659346 -0.010158697 -1.5342691e-22)
(2.5668835 -0.0080332054 -7.842033e-22)
(2.567562 -0.0058359047 -7.6799441e-22)
(2.5683913 -0.0036950349 -4.7371776e-22)
(2.5689785 -0.0016227585 -3.3765617e-22)
(2.5238504 -0.055759315 -2.4055644e-22)
(2.5352227 -0.051679565 1.6639411e-21)
(2.5416447 -0.048781977 -8.9078224e-23)
(2.5429135 -0.045338368 -5.5240068e-22)
(2.545667 -0.042407558 -4.296939e-22)
(2.5487971 -0.039994887 -1.2370703e-21)
(2.5515717 -0.037758983 -8.5447199e-23)
(2.5540871 -0.035453969 -6.2773067e-22)
(2.5564792 -0.033156573 -1.8639915e-21)
(2.5589553 -0.030593166 -1.1314287e-21)
(2.561071 -0.028182058 -4.1061354e-22)
(2.5630373 -0.02538382 -2.3271253e-21)
(2.5646767 -0.022750957 -1.0598721e-21)
(2.566007 -0.019744779 8.3849058e-22)
(2.5671828 -0.017236058 -1.0194781e-22)
(2.5679835 -0.014516421 -9.7935631e-23)
(2.5687447 -0.012011516 -3.6305591e-23)
(2.5691375 -0.0093830869 -1.5681768e-22)
(2.5698141 -0.0073476009 -1.3280395e-22)
(2.5702053 -0.0053009771 8.8775435e-22)
(2.5707919 -0.0033196076 1.0354891e-21)
(2.5711381 -0.0014247841 -4.7754789e-22)
(2.5245494 -0.062963694 -8.6861646e-22)
(2.5368527 -0.057721204 -9.4531836e-22)
(2.5435282 -0.053835236 8.0027263e-22)
(2.5444044 -0.049914621 2.721072e-21)
(2.5469773 -0.046646385 2.3253526e-21)
(2.5498336 -0.044213748 2.9428031e-22)
(2.5524804 -0.041948127 -4.7628986e-22)
(2.5549415 -0.039857699 -1.0532212e-21)
(2.5573632 -0.037704016 -1.5804179e-21)
(2.5600816 -0.035389306 -4.3595877e-22)
(2.5623971 -0.033027747 2.7189197e-22)
(2.564698 -0.030197098 2.4258276e-22)
(2.5665805 -0.027594914 -1.5654105e-21)
(2.5681994 -0.024546444 -8.0286762e-22)
(2.5694927 -0.021776767 1.0004666e-21)
(2.5703586 -0.018658618 -8.8647911e-22)
(2.5711578 -0.016113069 -8.9317506e-22)
(2.5715178 -0.013420041 9.5650916e-22)
(2.5719307 -0.010989048 8.5592844e-22)
(2.5719583 -0.0084966846 5.5849538e-22)
(2.5723639 -0.0065916323 1.5356588e-21)
(2.5724833 -0.004737583 7.406397e-22)
(2.5728417 -0.0029342685 -6.9781576e-22)
(2.5729745 -0.0012252821 -4.2287249e-22)
(2.5257238 -0.070479237 -5.4448821e-22)
(2.5391158 -0.063720037 -1.9400509e-22)
(2.5460388 -0.058728261 -3.0442442e-22)
(2.546365 -0.054216087 8.132498e-22)
(2.548675 -0.050443257 2.6604683e-21)
(2.5510368 -0.047992231 5.3364318e-22)
(2.5533991 -0.045672856 -1.4298158e-21)
(2.5556785 -0.043923067 -3.3037497e-21)
(2.5580289 -0.041981997 -3.8890733e-21)
(2.560974 -0.040014168 -7.5928793e-22)
(2.5634958 -0.03787491 3.2278653e-22)
(2.5662266 -0.035231087 1.1915243e-21)
(2.5684185 -0.032627986 1.1731292e-21)
(2.5704364 -0.029414234 -1.2344591e-22)
(2.5720021 -0.02657822 6.2086585e-22)
(2.5731233 -0.023291334 1.0610791e-21)
(2.5739892 -0.020411686 -7.2713769e-22)
(2.5743234 -0.01725762 -6.5576464e-22)
(2.5747108 -0.014730894 1.1012704e-21)
(2.5746211 -0.012141941 7.4799535e-22)
(2.5746901 -0.0098364311 4.6386053e-22)
(2.5743771 -0.0075326943 -1.3020144e-21)
(2.5745253 -0.0057967093 -2.0955071e-21)
(2.5744008 -0.0041663225 4.4742844e-22)
(2.5745559 -0.0025497967 7.2401373e-22)
(2.5745098 -0.0010281877 5.9086415e-22)
(2.5272654 -0.078349838 1.5671199e-21)
(2.5420966 -0.06994029 -2.4346052e-21)
(2.5493439 -0.06347371 -2.1279007e-21)
(2.5489865 -0.057995183 -1.2237727e-21)
(2.5508869 -0.053686145 -1.5799829e-22)
(2.5524269 -0.051137662 3.3931644e-22)
(2.554329 -0.048766911 -1.7079374e-21)
(2.5562312 -0.047496812 4.3742313e-22)
(2.5583715 -0.045842331 -1.3103083e-21)
(2.5615009 -0.044450353 -1.987587e-21)
(2.564206 -0.042652153 9.9759295e-22)
(2.5674517 -0.040301845 -2.3521543e-21)
(2.5700384 -0.037868742 -1.5682137e-21)
(2.5726182 -0.034663302 1.9949455e-21)
(2.5745595 -0.031701641 7.8068667e-22)
(2.5760578 -0.028079529 -1.6383083e-21)
(2.57717 -0.025014638 -1.2520187e-21)
(2.5776669 -0.021577322 2.4613942e-24)
(2.5780375 -0.01865566 8.0181081e-23)
(2.5778083 -0.015574163 1.2370085e-21)
(2.5777728 -0.013137569 9.033358e-22)
(2.5772567 -0.010733534 -1.7289329e-21)
(2.5770034 -0.0086027447 -3.4343009e-21)
(2.5763905 -0.0065291363 -1.5147341e-21)
(2.5763065 -0.0049913468 9.0450109e-22)
(2.5759746 -0.0035995366 8.8630073e-22)
(2.5759583 -0.0021715111 7.6244922e-22)
(2.5757677 -0.0008361259 -1.8884897e-22)
(2.5290999 -0.086749801 2.7879664e-21)
(2.5459141 -0.076133072 9.987444e-22)
(2.5537461 -0.06804378 -2.8016971e-21)
(2.552267 -0.061576756 -2.8693746e-21)
(2.5536698 -0.056268684 -2.0048453e-21)
(2.5541532 -0.053476647 9.0174185e-22)
(2.5553247 -0.05108598 1.387425e-21)
(2.5565925 -0.050289514 3.858927e-21)
(2.5583132 -0.049118353 5.9649801e-21)
(2.5615153 -0.048533849 1.6986058e-21)
(2.5643556 -0.047268318 1.0976774e-21)
(2.5681948 -0.04545671 -1.1302482e-21)
(2.5712509 -0.043317846 -4.3352109e-21)
(2.5745598 -0.040184433 -1.8964278e-21)
(2.5770283 -0.037226599 1.4794625e-21)
(2.5791032 -0.033370862 1.4736574e-22)
(2.5805778 -0.030017691 -2.1555865e-21)
(2.5813426 -0.026085917 -3.5729066e-22)
(2.5818756 -0.022869757 8.4454245e-22)
(2.5816728 -0.019431569 -3.3225394e-22)
(2.5815144 -0.016567967 7.5895188e-22)
(2.5807418 -0.013679459 8.9578287e-22)
(2.5803029 -0.011408618 -1.6002831e-21)
(2.5794139 -0.0092586762 -1.7542134e-21)
(2.5788753 -0.007341898 9.0223453e-23)
(2.5780142 -0.0055234582 1.8562886e-21)
(2.5777317 -0.0041986615 1.8531084e-21)
(2.5772321 -0.0030442623 -1.5608715e-21)
(2.5770779 -0.0018027132 -2.4954323e-21)
(2.5767724 -0.00065153487 -2.8114499e-22)
(2.5312997 -0.09581605 -6.8220453e-22)
(2.5506409 -0.082718543 1.8492351e-21)
(2.5594741 -0.072506688 1.9708987e-22)
(2.5565401 -0.064352814 -4.0874438e-22)
(2.5571087 -0.058076917 -4.4079362e-22)
(2.5561406 -0.055199764 -3.2786123e-21)
(2.5562963 -0.05243584 -5.3157951e-22)
(2.5567477 -0.052373959 -1.4839285e-21)
(2.5577423 -0.051624611 8.138213e-22)
(2.5609143 -0.052069894 2.9019657e-21)
(2.5637691 -0.051620126 -1.1738432e-21)
(2.5682628 -0.050590837 1.7107504e-21)
(2.5718555 -0.048971445 -3.9771982e-22)
(2.5760816 -0.046098216 -4.4388622e-21)
(2.5792324 -0.043228635 -2.1280476e-21)
(2.5820953 -0.0391233 1.6275338e-21)
(2.5841215 -0.035544884 3.6593572e-22)
(2.5853499 -0.031139486 -2.2016164e-21)
(2.5861472 -0.027480088 -4.9713475e-22)
(2.5860335 -0.023442684 2.2399447e-23)
(2.5859104 -0.020213042 -1.1065266e-21)
(2.5850112 -0.01695269 9.8991985e-22)
(2.5843388 -0.014260259 1.122881e-21)
(2.5830916 -0.011672151 -1.0582836e-21)
(2.5822978 -0.009632701 -1.1970815e-21)
(2.5811106 -0.0077825324 1.5920973e-21)
(2.5803346 -0.0061037896 3.2894442e-21)
(2.5792815 -0.004547545 1.549519e-21)
(2.578838 -0.0034360694 -1.6919828e-21)
(2.5782074 -0.002506137 -1.6326181e-21)
(2.5779426 -0.0014479656 4.790606e-22)
(2.577549 -0.00047590103 1.1057745e-21)
(2.5339106 -0.10565684 -3.6214331e-21)
(2.5563317 -0.089590356 -2.0532183e-21)
(2.5665415 -0.076953039 3.4566225e-22)
(2.5619668 -0.066831264 3.6350184e-22)
(2.5614603 -0.058969036 -2.0841344e-22)
(2.5585915 -0.05549061 -1.504083e-21)
(2.5572245 -0.052568914 -4.1994525e-21)
(2.5564173 -0.053162907 -3.8785999e-21)
(2.5565531 -0.053092577 -4.8269341e-21)
(2.5594509 -0.055153903 -1.1459833e-20)
(2.5622186 -0.055561786 -9.6384325e-21)
(2.5674471 -0.055666662 1.3631214e-21)
(2.5716253 -0.054814373 4.1284357e-21)
(2.5769786 -0.052400989 1.4392299e-21)
(2.580985 -0.049792884 -2.3602927e-21)
(2.5848957 -0.04552555 -6.3835883e-22)
(2.5876742 -0.041730454 2.9432122e-21)
(2.5895737 -0.036740661 5.9461279e-22)
(2.5908236 -0.032626013 -1.8376468e-21)
(2.5909531 -0.027941214 -4.4949682e-22)
(2.5909282 -0.024163448 4.2272776e-23)
(2.589908 -0.020281581 -1.6533844e-21)
(2.589126 -0.017206324 3.2701834e-22)
(2.5876131 -0.014290976 1.084142e-21)
(2.5864886 -0.011872084 -9.8592282e-22)
(2.5848709 -0.009658354 -1.4678528e-21)
(2.5837916 -0.0078944647 1.1742781e-21)
(2.582389 -0.0063609232 1.6995543e-21)
(2.5814284 -0.0049274274 2.752099e-23)
(2.5802372 -0.0036244657 1.8216085e-21)
(2.5796675 -0.0027153782 1.9268223e-21)
(2.578936 -0.0019899415 1.6998755e-21)
(2.5785819 -0.0011091482 2.3119779e-21)
(2.5781214 -0.00030796433 3.096798e-22)
(2.5369313 -0.11636208 -3.8327856e-21)
(2.5630554 -0.096924007 -2.3051137e-21)
(2.5750168 -0.081442792 -8.3338367e-22)
(2.5685662 -0.068695398 -3.0258553e-22)
(2.5668357 -0.058849992 -3.1535129e-22)
(2.5616911 -0.054655739 5.8750448e-22)
(2.5583703 -0.051251543 -6.2978166e-22)
(2.5557001 -0.052980159 3.4317308e-22)
(2.5546684 -0.053487629 7.1479974e-22)
(2.5571876 -0.056904735 -5.5471569e-21)
(2.5596052 -0.058966768 -1.1835241e-20)
(2.5654813 -0.060624198 -8.9613929e-21)
(2.5703195 -0.060812636 1.486477e-21)
(2.5770134 -0.05915738 3.9448648e-21)
(2.5820699 -0.057001617 1.3988274e-21)
(2.5873298 -0.052668713 2.2714989e-21)
(2.5911074 -0.04873224 3.9683448e-21)
(2.5939502 -0.043120918 -6.1704101e-22)
(2.595853 -0.038467152 -2.8955669e-21)
(2.5963788 -0.032941223 -4.4808377e-22)
(2.5966021 -0.028538809 8.8948239e-22)
(2.5955474 -0.023947558 6.5449092e-22)
(2.5946646 -0.020297108 -9.4184417e-22)
(2.5928336 -0.016825765 4.2829522e-22)
(2.5914664 -0.014064158 1.149947e-21)
(2.5894824 -0.011614272 6.2736123e-24)
(2.5880026 -0.0095406714 -4.385804e-22)
(2.5861337 -0.0077315176 1.0595887e-22)
(2.5848466 -0.0062604768 5.8925629e-22)
(2.5833071 -0.005033264 -9.7238799e-22)
(2.5822127 -0.0038372473 7.1502864e-22)
(2.5809302 -0.0027668581 2.0917811e-21)
(2.5802623 -0.0020428843 1.8795755e-21)
(2.5794531 -0.0015005461 2.0164061e-21)
(2.5790335 -0.00078389782 1.1355153e-22)
(2.5785108 -0.00012833861 -3.5206818e-22)
(2.5403424 -0.12800627 4.9054151e-21)
(2.5708348 -0.10478579 9.8804836e-22)
(2.585013 -0.086054341 2.4494053e-21)
(2.5764979 -0.070014854 -2.7318665e-22)
(2.5733204 -0.057627791 2.1773618e-22)
(2.5653889 -0.052510767 5.3347373e-21)
(2.5598414 -0.048347423 6.2668299e-21)
(2.5548696 -0.051089485 5.4421997e-21)
(2.5520194 -0.052641243 6.4571933e-21)
(2.5538979 -0.058286223 1.4925275e-20)
(2.5558096 -0.061683474 9.2074344e-21)
(2.5623242 -0.065222485 -3.4905003e-21)
(2.5677189 -0.066959848 -6.3071476e-22)
(2.5759626 -0.066357691 -2.7810608e-21)
(2.5822617 -0.064941504 -5.1598342e-22)
(2.5892052 -0.060702567 -2.262379e-21)
(2.5942676 -0.056722199 -1.4857394e-21)
(2.5983803 -0.050435153 1.9583852e-21)
(2.601199 -0.045198124 -2.4188534e-21)
(2.6023391 -0.038674391 -3.402889e-22)
(2.6029618 -0.033481106 2.0210711e-21)
(2.6019334 -0.027940091 -4.6269303e-22)
(2.6010356 -0.023600799 -6.9670509e-22)
(2.5988982 -0.019484379 -2.3434698e-21)
(2.5972413 -0.016204615 -1.0615626e-21)
(2.5947934 -0.013334671 1.5616933e-21)
(2.5929735 -0.01100329 4.8131118e-22)
(2.5906899 -0.0090729396 1.169053e-21)
(2.5889669 -0.0073753582 1.7078344e-21)
(2.5869611 -0.0059583135 9.2401961e-22)
(2.5855404 -0.0047717811 -5.5229397e-22)
(2.583929 -0.0038203513 -9.1099097e-22)
(2.5827451 -0.0028425134 3.7381892e-22)
(2.5814068 -0.0019770558 -1.5421077e-21)
(2.580662 -0.0014221349 -1.4601108e-21)
(2.5797937 -0.0010458742 -1.0283652e-21)
(2.5793233 -0.00046261009 -1.4854692e-21)
(2.5787321 6.3739902e-05 -7.5868455e-24)
(2.5441419 -0.14063539 1.1032548e-22)
(2.5796781 -0.1132595 7.6906255e-21)
(2.5966232 -0.090891323 3.967622e-21)
(2.5859163 -0.070803718 2.3529811e-21)
(2.5810926 -0.055226999 -2.2844845e-22)
(2.5698054 -0.048865724 -8.9593315e-22)
(2.5615954 -0.043747302 3.9388567e-21)
(2.5538296 -0.047658654 2.6044327e-21)
(2.5486108 -0.050200591 1.7772213e-21)
(2.5493362 -0.058191783 3.7295253e-21)
(2.5504942 -0.06356221 1.1715106e-20)
(2.557684 -0.069564359 1.4392851e-20)
(2.5635872 -0.073128543 2.4373399e-21)
(2.5735672 -0.074067432 6.1933668e-21)
(2.5813028 -0.073685963 4.2515648e-21)
(2.5903203 -0.069756093 5.8416598e-21)
(2.596984 -0.065888137 4.2741252e-21)
(2.6027624 -0.05890737 -3.19177e-21)
(2.6068121 -0.053042624 5.3633992e-23)
(2.6088377 -0.045313067 -1.5851957e-21)
(2.6100744 -0.039170251 4.0033167e-22)
(2.609181 -0.032442514 3.3790781e-21)
(2.6083322 -0.027199919 1.0469728e-21)
(2.6058441 -0.022203107 -1.0521435e-21)
(2.6039111 -0.018290909 -2.6188018e-21)
(2.6009505 -0.014946572 -9.767645e-22)
(2.5986994 -0.012222468 1.5122709e-21)
(2.5958802 -0.010045449 2.9565682e-22)
(2.5937688 -0.0081985855 9.452947e-22)
(2.5913523 -0.0067747775 -5.5024387e-22)
(2.5894943 -0.0054435067 -1.3250704e-21)
(2.5874458 -0.0043733642 1.071592e-21)
(2.5859533 -0.0034437597 7.5573671e-22)
(2.5843168 -0.0027263653 5.098165e-22)
(2.5830776 -0.0019399462 -1.3052578e-21)
(2.5817054 -0.001250298 -2.3192036e-21)
(2.5809036 -0.00085283379 -1.921349e-21)
(2.5799948 -0.00062937544 -1.7902255e-21)
(2.5794516 -0.00016611933 -3.9358573e-22)
(2.5788087 0.0002248192 -9.6863738e-22)
(2.5483994 -0.1542573 -1.4206156e-20)
(2.5895521 -0.12242436 -1.8424211e-21)
(2.6098769 -0.096067548 5.2784108e-21)
(2.5969399 -0.071085742 1.2916927e-21)
(2.5902896 -0.051585646 -2.7432468e-22)
(2.5750496 -0.043665988 -7.3179842e-22)
(2.5636774 -0.037315267 -1.3760825e-21)
(2.5525171 -0.042379495 2.048779e-21)
(2.5444122 -0.045963836 7.5808804e-22)
(2.5435668 -0.056772877 -6.2823202e-21)
(2.543482 -0.064442312 -4.5592344e-21)
(2.5512089 -0.073363461 -5.3257111e-22)
(2.5576469 -0.079229398 1.8248365e-21)
(2.5695692 -0.082177865 3.1215581e-21)
(2.5789203 -0.083288706 6.7005896e-21)
(2.5904268 -0.079962683 7.4015402e-21)
(2.5990607 -0.076415292 8.9530665e-21)
(2.6069717 -0.068762844 5.2919278e-21)
(2.6126338 -0.06225426 -1.7706463e-21)
(2.6158959 -0.053107254 -2.3041293e-21)
(2.6180142 -0.045821788 -3.891195e-21)
(2.6173954 -0.037587698 3.9250858e-22)
(2.6167068 -0.031205287 3.2173262e-21)
(2.6138417 -0.025076152 2.2493408e-21)
(2.6115949 -0.02031835 2.6913761e-22)
(2.6079881 -0.016320576 -4.0975971e-22)
(2.6052601 -0.013123333 1.1783713e-21)
(2.6018247 -0.010703031 3.681232e-22)
(2.5992107 -0.0086262282 -8.0170005e-22)
(2.5962637 -0.0071295665 -1.7271825e-23)
(2.5940191 -0.0057578145 -1.4490539e-21)
(2.5916065 -0.0047750944 -3.7750539e-21)
(2.5897031 -0.0037690836 -1.5362053e-21)
(2.5876778 -0.0029820411 -4.6269457e-22)
(2.5861582 -0.0022713381 -7.1480661e-22)
(2.5845259 -0.0017430704 1.075112e-21)
(2.5832525 -0.0011197518 1.4807053e-22)
(2.5818557 -0.00057990923 -1.5836359e-21)
(2.5810145 -0.00032600029 -1.4551105e-21)
(2.5800751 -0.00023838682 4.8294785e-22)
(2.5794722 9.9273878e-05 -5.0083746e-23)
(2.578765 0.00034356366 -8.3487738e-22)
(2.5532021 -0.16878993 8.2162763e-21)
(2.6003299 -0.1323049 -1.2634287e-20)
(2.6246096 -0.10169533 -9.3056337e-22)
(2.6096237 -0.070890809 -2.6848608e-21)
(2.6010082 -0.046651721 -6.5881408e-21)
(2.5811842 -0.036845133 1.4680721e-21)
(2.566149 -0.028940212 1.0535109e-21)
(2.5509721 -0.035132096 1.0105796e-20)
(2.5393701 -0.039776582 1.3525906e-20)
(2.536495 -0.05380161 1.1943962e-20)
(2.5347244 -0.064138771 5.423431e-21)
(2.5428119 -0.076557084 -3.9181496e-21)
(2.5496564 -0.085236391 -1.0312061e-22)
(2.5637164 -0.090743766 -1.7279914e-20)
(2.5748659 -0.093789876 -1.6315649e-20)
(2.589284 -0.091442007 -5.5287718e-22)
(2.6002801 -0.088496649 1.4311103e-23)
(2.6108627 -0.080239035 1.3265404e-20)
(2.6185864 -0.073109749 9.8539867e-21)
(2.6235236 -0.062324174 -4.570884e-21)
(2.6268694 -0.053692594 -5.105111e-21)
(2.626727 -0.043581884 -3.7484758e-21)
(2.6263424 -0.035756417 3.1602899e-22)
(2.6230643 -0.02814523 6.5704718e-21)
(2.6204843 -0.022289735 5.6935978e-21)
(2.6160844 -0.017442068 -5.0253629e-22)
(2.6127546 -0.013609562 -1.157246e-21)
(2.6085193 -0.010857438 1.0545681e-21)
(2.6053254 -0.0085264625 2.8439289e-22)
(2.6017692 -0.0070230957 -3.4767452e-21)
(2.599024 -0.005586138 -2.7701606e-21)
(2.5961489 -0.004674392 1.7329176e-21)
(2.5939014 -0.0037181152 -4.2871168e-22)
(2.5915857 -0.0030806503 -3.8552455e-22)
(2.5896999 -0.0023406106 6.4484881e-22)
(2.587734 -0.0017680152 -2.1907912e-21)
(2.5862153 -0.0012353667 -5.1433267e-22)
(2.5846008 -0.00085428044 1.0788315e-21)
(2.5833019 -0.00037027039 -5.5052085e-22)
(2.5818832 4.1484842e-05 -3.5832399e-22)
(2.5810108 0.00016231335 1.4950539e-21)
(2.5800469 0.00014119291 8.9149438e-22)
(2.5793876 0.00033214344 1.6072616e-22)
(2.5786238 0.00045340168 -5.6901603e-22)
(2.5580195 -0.18399982 -1.0802329e-20)
(2.6114568 -0.14288593 2.7805864e-21)
(2.6401341 -0.10786346 -1.7051846e-20)
(2.623856 -0.070264998 -3.7382204e-21)
(2.6133104 -0.040396359 -5.4556273e-21)
(2.5882531 -0.02832026 -6.7369514e-21)
(2.5690489 -0.018543958 8.9651503e-22)
(2.5492169 -0.025837889 -8.464262e-21)
(2.533472 -0.031504231 1.4288468e-23)
(2.528068 -0.049111171 9.0740208e-21)
(2.5241232 -0.062499816 7.5335636e-21)
(2.5323609 -0.079027717 4.2862525e-21)
(2.5394375 -0.09105669 -4.5861009e-21)
(2.5557633 -0.09970802 -1.8368027e-21)
(2.5688825 -0.10521382 -1.8137177e-20)
(2.5866503 -0.10429273 -1.1536437e-20)
(2.6004059 -0.10230751 3.4805418e-21)
(2.6142666 -0.093587121 -3.3657888e-21)
(2.6245687 -0.085902059 9.1527442e-21)
(2.6317215 -0.073267513 1.0450744e-20)
(2.6367268 -0.063079542 -3.2024505e-21)
(2.6373382 -0.050657409 -2.0837556e-21)
(2.6374645 -0.041030464 -7.5470977e-22)
(2.6337565 -0.031504317 3.144073e-22)
(2.6308166 -0.024215043 6.246194e-21)
(2.6254221 -0.018234769 4.4273739e-21)
(2.6213525 -0.013567301 -1.4670881e-21)
(2.6161001 -0.010393297 -4.6152664e-21)
(2.6121512 -0.0077308321 -2.5659645e-21)
(2.6078003 -0.0062309796 -1.8171484e-21)
(2.6044776 -0.004765939 -5.4138938e-21)
(2.6010921 -0.0040430088 3.6791493e-23)
(2.5984063 -0.0031587662 4.3471122e-21)
(2.5957359 -0.0026882156 2.2806291e-21)
(2.5935747 -0.002058514 2.3599294e-21)
(2.5914036 -0.0016621567 2.8425697e-21)
(2.5895707 -0.0011237673 1.8026926e-22)
(2.5876744 -0.00070221612 5.8996953e-22)
(2.5861701 -0.00030869684 2.1179805e-21)
(2.5845732 -3.9678843e-05 3.825101e-23)
(2.5832504 0.00032782875 2.2875552e-22)
(2.5818035 0.00062352434 1.6607698e-21)
(2.5809058 0.00065072594 1.0909227e-21)
(2.5799035 0.00050656487 7.413685e-23)
(2.5791969 0.00056675063 -6.1814376e-22)
(2.5783918 0.00058259346 -7.2822083e-24)
(2.5616783 -0.19959524 -3.0807643e-20)
(2.6215261 -0.15402491 -1.7351359e-20)
(2.6551113 -0.11461798 -4.5391439e-21)
(2.6390075 -0.069283752 -3.1398615e-21)
(2.6270976 -0.032850138 9.6632931e-21)
(2.5962779 -0.018091812 -2.2849529e-21)
(2.5724032 -0.0060858099 -3.4580982e-21)
(2.5472819 -0.014374327 -1.2974388e-20)
(2.5267213 -0.021046104 -2.2025683e-20)
(2.5182543 -0.042607822 -5.1743619e-21)
(2.5116026 -0.059393184 3.3621661e-21)
(2.5197375 -0.0806357 -3.6373376e-22)
(2.5268424 -0.096590697 -3.5637026e-21)
(2.5455199 -0.1090262 6.0726776e-21)
(2.5607217 -0.11755747 8.8240703e-21)
(2.5822621 -0.11858919 -1.2995353e-20)
(2.5991879 -0.11799045 -6.6645381e-21)
(2.6169885 -0.10903255 -3.4195437e-21)
(2.6304473 -0.10092852 -1.0008737e-20)
(2.6404683 -0.086262733 1.9870598e-21)
(2.6476639 -0.074317063 3.1249534e-21)
(2.6494061 -0.059092604 -1.5745568e-21)
(2.6503272 -0.047245978 -4.9071186e-22)
(2.6461991 -0.035264565 6.1239832e-22)
(2.6428934 -0.02611936 1.6455989e-21)
(2.6362677 -0.018638813 5.3100438e-21)
(2.6312688 -0.012861217 3.5757232e-21)
(2.6246943 -0.0091244789 -4.3436807e-21)
(2.6197819 -0.0060327956 -7.366379e-21)
(2.6144132 -0.0045688401 -3.0604273e-21)
(2.6103352 -0.0030918695 -2.354319e-21)
(2.6062925 -0.0026508523 -2.3653044e-21)
(2.6031205 -0.0019272427 2.845252e-21)
(2.600095 -0.0017718092 4.1381164e-21)
(2.5975962 -0.0013064131 2.1774884e-21)
(2.5951922 -0.0011203182 -1.8299819e-21)
(2.5931637 -0.00071977857 -1.4324873e-21)
(2.5911457 -0.0004692307 -6.6974172e-22)
(2.5893765 -7.3120073e-05 -2.9341389e-22)
(2.5875422 0.0002487255 2.8120194e-21)
(2.5860537 0.00053513854 8.4916544e-22)
(2.5844678 0.00072066073 4.1860055e-22)
(2.5831186 0.00097445824 1.7803743e-21)
(2.5816499 0.0011765749 1.1435592e-21)
(2.580714 0.0011060635 1.8020993e-22)
(2.5796688 0.00085176337 6.2927197e-22)
(2.5789178 0.00080520992 1.2269523e-21)
(2.5780745 0.00071274849 1.7141784e-21)
(2.5637204 -0.2154014 3.9127846e-20)
(2.6296808 -0.16570737 6.9449252e-21)
(2.6685737 -0.12199407 2.0198175e-20)
(2.6536995 -0.06803738 6.2731392e-21)
(2.6416801 -0.024148141 7.7535693e-21)
(2.6049911 -0.0061853635 6.6652113e-21)
(2.5760466 0.0084463554 -4.7010424e-21)
(2.5451636 -0.00074510302 8.991027e-21)
(2.519107 -0.0083411934 1.405721e-22)
(2.5070593 -0.034166424 -1.3161604e-20)
(2.4971249 -0.054712671 2.9176752e-21)
(2.5048631 -0.081281638 9.4200139e-21)
(2.5117559 -0.10173989 5.9601847e-21)
(2.5328191 -0.11861996 -5.5615607e-21)
(2.5501754 -0.13078073 3.5436113e-21)
(2.5758764 -0.13436636 9.7008044e-21)
(2.5963687 -0.13565841 -1.0977134e-20)
(2.6188131 -0.12678623 5.1815875e-21)
(2.6360558 -0.11847822 8.4253716e-21)
(2.6497129 -0.10164858 -9.2734624e-21)
(2.6597375 -0.087770993 2.1132388e-21)
(2.6631074 -0.06920729 5.5639796e-21)
(2.6652077 -0.054667412 1.1412983e-21)
(2.6607189 -0.039573233 -2.0742408e-21)
(2.6570708 -0.028047968 -1.0364478e-21)
(2.6489365 -0.018587715 5.6256881e-22)
(2.6427854 -0.011337795 4.0265315e-21)
(2.6345062 -0.0068419147 1.4867665e-21)
(2.6283389 -0.0031807386 -6.0507493e-21)
(2.6216316 -0.0017798889 -3.8387521e-21)
(2.6165834 -0.00031307109 2.9769616e-22)
(2.6117134 -0.00028834251 3.841541e-21)
(2.6079126 0.00017835216 3.9162003e-21)
(2.6044508 -0.00012584686 1.7520857e-21)
(2.6016108 5.5391712e-05 2.9646964e-21)
(2.5990268 -0.00012396529 -2.7562816e-22)
(2.5967752 6.9699261e-05 -4.1134908e-21)
(2.59464 0.00011363272 -3.3539912e-21)
(2.5927534 0.00037314557 -2.6590217e-21)
(2.5908696 0.00055636751 -4.1855104e-22)
(2.5891559 0.00085751144 2.5252424e-21)
(2.5873647 0.0011168351 1.3328278e-21)
(2.585884 0.0013277984 9.3205675e-22)
(2.5842904 0.0014417711 8.2616716e-22)
(2.5829191 0.0015984271 2.0983234e-22)
(2.5814231 0.0017082758 -1.061124e-21)
(2.5804471 0.0015405452 -6.5073305e-22)
(2.5793602 0.0011825534 4.4328735e-22)
(2.5785694 0.0010267571 8.9522859e-22)
(2.5776849 0.00082137455 1.0087546e-22)
(2.5642551 -0.23131653 5.5589852e-20)
(2.6365109 -0.17758029 -1.7857519e-20)
(2.6808325 -0.12995903 -4.9181786e-20)
(2.666833 -0.0667101 5.2880374e-21)
(2.6556341 -0.014514022 -8.0988927e-21)
(2.6134197 0.0073026727 1.031456e-22)
(2.579366 0.025052419 -1.0318445e-21)
(2.5425228 0.015070479 -3.3433506e-22)
(2.5104542 0.0066359794 1.2703952e-20)
(2.4944582 -0.02377522 -7.1862396e-21)
(2.480678 -0.048380348 -1.9914776e-20)
(2.4877083 -0.080864494 7.6483286e-21)
(2.4941164 -0.1064115 1.3878644e-20)
(2.5175403 -0.12839655 1.3680216e-20)
(2.5370754 -0.1448148 2.8709717e-21)
(2.567273 -0.15162337 -1.3240313e-20)
(2.5916936 -0.1553779 -7.6330545e-21)
(2.6195045 -0.14701964 5.7185305e-21)
(2.6411937 -0.13881626 2.1276794e-20)
(2.6593679 -0.11976767 1.5306633e-20)
(2.672969 -0.10383105 -1.3924375e-21)
(2.6786081 -0.081358518 1.0924073e-21)
(2.6823942 -0.063607331 4.3507766e-21)
(2.6776751 -0.044615825 2.5923041e-21)
(2.6737602 -0.03007208 -4.3428769e-22)
(2.6638065 -0.018019104 -2.8688011e-21)
(2.6562421 -0.008826873 -1.3780644e-21)
(2.6457798 -0.0033055941 -5.3490904e-22)
(2.6379899 0.0011204779 -3.0083452e-21)
(2.6295375 0.0024427889 -5.4894561e-21)
(2.6232073 0.0038763549 -3.3834403e-21)
(2.6172562 0.0033151398 1.5166649e-21)
(2.6126604 0.003405703 4.8952985e-21)
(2.6086764 0.0024432491 2.1937696e-21)
(2.605416 0.0021956129 1.1614591e-22)
(2.6026408 0.0014859618 1.2964743e-21)
(2.6002135 0.0013450119 -1.8041106e-21)
(2.5980612 0.0010396871 -2.4066546e-21)
(2.5960603 0.0010956099 -1.6623278e-21)
(2.5941533 0.0011088663 -8.3421429e-22)
(2.5923918 0.0013035803 1.316472e-21)
(2.5906037 0.0014701459 5.0159513e-21)
(2.5889304 0.0017104403 3.919775e-21)
(2.5871604 0.0019304753 -9.7436572e-22)
(2.5856718 0.0020788042 -1.100521e-21)
(2.5840563 0.0021343486 -6.6852257e-22)
(2.5826582 0.0022026127 -1.885408e-21)
(2.5811284 0.002222279 -1.6590544e-21)
(2.5801119 0.001961761 -6.347469e-22)
(2.5789822 0.0015060033 -1.2708327e-21)
(2.578153 0.0012381325 -2.0548007e-21)
(2.5772327 0.00092155897 -9.0285488e-22)
(2.5609754 -0.24709028 -2.667422e-20)
(2.6410424 -0.18999083 1.3683199e-20)
(2.6913661 -0.1384893 -5.6475883e-20)
(2.6790602 -0.065204239 -5.6825446e-20)
(2.6683536 -0.0042041986 -5.3183774e-21)
(2.6207317 0.022175044 -2.1695867e-20)
(2.5818857 0.043640271 -1.4106182e-20)
(2.5386375 0.033001383 -8.3738739e-21)
(2.5003095 0.023823171 -7.8130042e-21)
(2.4802984 -0.011384923 1.2106688e-21)
(2.4622579 -0.040362004 -1.7803908e-20)
(2.4682738 -0.079330201 -3.5317868e-20)
(2.4739167 -0.11052335 -9.3990733e-21)
(2.4996228 -0.13825742 1.4224402e-20)
(2.5213059 -0.15956341 1.4054007e-20)
(2.5562622 -0.17030818 -8.510677e-22)
(2.5849223 -0.1771622 -1.6177475e-20)
(2.6188167 -0.16986179 -2.2363749e-20)
(2.6456271 -0.16217094 -9.9095164e-21)
(2.6693057 -0.14094566 6.3351413e-21)
(2.6873346 -0.12289559 4.521392e-22)
(2.6960427 -0.095939299 1.342474e-21)
(2.7021671 -0.074427111 3.7060977e-21)
(2.6974525 -0.050623288 4.0118323e-21)
(2.6934204 -0.032296315 2.3448006e-21)
(2.681312 -0.016879131 1.8110721e-21)
(2.6720433 -0.0051453252 -4.6245973e-22)
(2.658814 0.0017622944 2.1985087e-21)
(2.6489387 0.0072217454 3.0490087e-21)
(2.6382129 0.0084500752 -2.1511075e-21)
(2.6302062 0.0098446438 -4.4924341e-21)
(2.6228477 0.008490272 -3.3873587e-21)
(2.6172124 0.0080439214 1.2606812e-21)
(2.6125693 0.0061657658 1.0146758e-21)
(2.6088032 0.0053070379 -1.6045232e-21)
(2.6058468 0.0038569587 -3.3793426e-21)