/*--------------------------------*- C++ -*----------------------------------*\
| =========                 |                                                 |
| \\      /  F ield         | OpenFOAM: The Open Source CFD Toolbox           |
|  \\    /   O peration     | Version:  v2012                                 |
|   \\  /    A nd           | Website:  www.openfoam.com                      |
|    \\/     M anipulation  |                                                 |
\*---------------------------------------------------------------------------*/
FoamFile
{
    version     2.0;
    format      ascii;
    class       volVectorField;
    location    "76.2183595797693272";
    object      cellDisplacement;
}
// * * * * * * * * * * * * * * * * * * * * * * * * * * * * * * * * * * * * * //

dimensions      [0 1 0 0 0 0 0];


internalField   nonuniform List<vector> 
9200
(
(0.020826496 0 0)
(0.020927933 0 0)
(0.06058387 0 0)
(0.021031216 0 0)
(0.060762395 0 0)
(0.097734231 0 0)
(0.021227544 0 0)
(0.061167035 0 0)
(0.098095028 0 0)
(0.13241177 0 0)
(0.021439244 0 0)
(0.061641451 0 0)
(0.098628781 0 0)
(0.13282576 0 0)
(0.16467645 0 0)
(0.021677141 0 0)
(0.062231159 0 0)
(0.099400545 0 0)
(0.13361663 0 0)
(0.16524597 0 0)
(0.19466888 0 0)
(0.021916779 0 0)
(0.06287183 0 0)
(0.10030432 0 0)
(0.13460745 0 0)
(0.1661462 0 0)
(0.19528779 0 0)
(0.22248684 0 0)
(0.022155422 0 0)
(0.063535186 0 0)
(0.10128881 0 0)
(0.1357694 0 0)
(0.16735854 0 0)
(0.196407 0 0)
(0.22323637 0 0)
(0.24825199 0 0)
(0.022385946 0 0)
(0.064195816 0 0)
(0.10231952 0 0)
(0.13706499 0 0)
(0.16877978 0 0)
(0.19780538 0 0)
(0.22444247 0 0)
(0.24904062 0 0)
(0.27207699 0 0)
(0.022605177 0 0)
(0.06483863 0 0)
(0.10335263 0 0)
(0.13841609 0 0)
(0.17033652 0 0)
(0.19944093 0 0)
(0.22604457 0 0)
(0.25044486 0 0)
(0.27297531 0 0)
(0.29407344 0 0)
(0.022812552 0 0)
(0.06545486 0 0)
(0.10436454 0 0)
(0.13977965 0 0)
(0.17196694 0 0)
(0.20122689 0 0)
(0.22787891 0 0)
(0.25219683 0 0)
(0.27444823 0 0)
(0.29500699 0 0)
(0.3143679 0 0)
(0.023005139 0 0)
(0.06603594 0 0)
(0.10533704 0 0)
(0.14111989 0 0)
(0.17362065 0 0)
(0.20311188 0 0)
(0.22988478 0 0)
(0.25421674 0 0)
(0.27637435 0 0)
(0.2966474 0 0)
(0.31538917 0 0)
(0.33305158 0 0)
(0.023184612 0 0)
(0.066581572 0 0)
(0.10626052 0 0)
(0.14241375 0 0)
(0.17525316 0 0)
(0.20502595 0 0)
(0.23199268 0 0)
(0.25642086 0 0)
(0.27857629 0 0)
(0.29870123 0 0)
(0.31707935 0 0)
(0.33409867 0 0)
(0.35025222 0 0)
(0.023348929 0 0)
(0.067086477 0 0)
(0.10712743 0 0)
(0.14364684 0 0)
(0.17683332 0 0)
(0.20691897 0 0)
(0.23413379 0 0)
(0.25871799 0 0)
(0.28094489 0 0)
(0.30105207 0 0)
(0.31928187 0 0)
(0.33593162 0 0)
(0.3513687 0 0)
(0.36604866 0 0)
(0.023500228 0 0)
(0.067554158 0 0)
(0.10793613 0 0)
(0.14480885 0 0)
(0.17834346 0 0)
(0.20875804 0 0)
(0.2362617 0 0)
(0.2610695 0 0)
(0.28343176 0 0)
(0.30359273 0 0)
(0.32178194 0 0)
(0.33823107 0 0)
(0.35323526 0 0)
(0.36718609 0 0)
(0.38056768 0 0)
(0.023637496 0 0)
(0.067981581 0 0)
(0.10868351 0 0)
(0.14589626 0 0)
(0.17976957 0 0)
(0.21051658 0 0)
(0.23833382 0 0)
(0.263408 0 0)
(0.28596231 0 0)
(0.30623859 0 0)
(0.32446799 0 0)
(0.34085615 0 0)
(0.35565572 0 0)
(0.36916827 0 0)
(0.3817577 0 0)
(0.39387152 0 0)
(0.023762585 0 0)
(0.068373541 0 0)
(0.10937269 0 0)
(0.14690587 0 0)
(0.18110644 0 0)
(0.21218286 0 0)
(0.24032011 0 0)
(0.26568817 0 0)
(0.28848335 0 0)
(0.30892664 0 0)
(0.32725905 0 0)
(0.3436829 0 0)
(0.35840458 0 0)
(0.37166349 0 0)
(0.38375908 0 0)
(0.39507502 0 0)
(0.40607917 0 0)
(0.023875441 0 0)
(0.068729426 0 0)
(0.11000326 0 0)
(0.1478391 0 0)
(0.18234966 0 0)
(0.2137443 0 0)
(0.24220509 0 0)
(0.26788153 0 0)
(0.29094897 0 0)
(0.31161348 0 0)
(0.33009675 0 0)
(0.34660822 0 0)
(0.36134628 0 0)
(0.37450794 0 0)
(0.38635236 0 0)
(0.39717024 0 0)
(0.40732136 0 0)
(0.4172419 0 0)
(0.023977284 0 0)
(0.069053071 0 0)
(0.11057951 0 0)
(0.14869606 0 0)
(0.18349972 0 0)
(0.21520065 0 0)
(0.24397622 0 0)
(0.26996413 0 0)
(0.29332578 0 0)
(0.31424745 0 0)
(0.33292823 0 0)
(0.34957763 0 0)
(0.36439737 0 0)
(0.37756268 0 0)
(0.38928893 0 0)
(0.39981195 0 0)
(0.40942178 0 0)
(0.41849207 0 0)
(0.42747006 0 0)
(0.024068737 0 0)
(0.069345779 0 0)
(0.11110246 0 0)
(0.14948106 0 0)
(0.18455744 0 0)
(0.21654638 0 0)
(0.24562892 0 0)
(0.27192745 0 0)
(0.29558613 0 0)
(0.31678596 0 0)
(0.33570494 0 0)
(0.35252908 0 0)
(0.3674733 0 0)
(0.38071571 0 0)
(0.39243161 0 0)
(0.40282036 0 0)
(0.41213828 0 0)
(0.42066378 0 0)
(0.42874671 0 0)
(0.43680356 0 0)
(0.024150467 0 0)
(0.069610091 0 0)
(0.11157705 0 0)
(0.15019567 0 0)
(0.1855256 0 0)
(0.21778696 0 0)
(0.24716088 0 0)
(0.27376089 0 0)
(0.29772001 0 0)
(0.31920932 0 0)
(0.33839059 0 0)
(0.35543552 0 0)
(0.3705431 0 0)
(0.38390173 0 0)
(0.39568167 0 0)
(0.40604708 0 0)
(0.41521538 0 0)
(0.4234102 0 0)
(0.43091305 0 0)
(0.438083 0 0)
(0.44534165 0 0)
(0.024223473 0 0)
(0.069848848 0 0)
(0.11200576 0 0)
(0.15084518 0 0)
(0.18640817 0 0)
(0.21892074 0 0)
(0.24857238 0 0)
(0.27546563 0 0)
(0.29971596 0 0)
(0.32149461 0 0)
(0.3409577 0 0)
(0.35825212 0 0)
(0.37355671 0 0)
(0.38706499 0 0)
(0.39895431 0 0)
(0.40937317 0 0)
(0.41850221 0 0)
(0.42653433 0 0)
(0.43371404 0 0)
(0.44030263 0 0)
(0.44663844 0 0)
(0.45311614 0 0)
(0.02428809 0 0)
(0.070062936 0 0)
(0.1123921 0 0)
(0.15143124 0 0)
(0.18720856 0 0)
(0.21995604 0 0)
(0.24986716 0 0)
(0.27703884 0 0)
(0.30157343 0 0)
(0.32363982 0 0)
(0.3433837 0 0)
(0.36094384 0 0)
(0.37647989 0 0)
(0.39016787 0 0)
(0.40219916 0 0)
(0.41272654 0 0)
(0.42189828 0 0)
(0.42988008 0 0)
(0.43688299 0 0)
(0.44311495 0 0)
(0.44884444 0 0)
(0.45441286 0 0)
(0.46021529 0 0)
(0.024345469 0 0)
(0.070256121 0 0)
(0.11273985 0 0)
(0.15196018 0 0)
(0.18793243 0 0)
(0.22089378 0 0)
(0.25104801 0 0)
(0.27848576 0 0)
(0.3032905 0 0)
(0.32563372 0 0)
(0.34566225 0 0)
(0.36349677 0 0)
(0.37928094 0 0)
(0.39318355 0 0)
(0.40538299 0 0)
(0.41604284 0 0)
(0.42531111 0 0)
(0.43332568 0 0)
(0.44026694 0 0)
(0.44631306 0 0)
(0.45169455 0 0)
(0.4566567 0 0)
(0.46152279 0 0)
(0.46666333 0 0)
(0.024395834 0 0)
(0.070428166 0 0)
(0.11305097 0 0)
(0.15243279 0 0)
(0.18858271 0 0)
(0.22174243 0 0)
(0.25212095 0 0)
(0.27980743 0 0)
(0.30487069 0 0)
(0.32748324 0 0)
(0.34778567 0 0)
(0.3658927 0 0)
(0.38194017 0 0)
(0.39607985 0 0)
(0.40847376 0 0)
(0.41929148 0 0)
(0.42868979 0 0)
(0.43679471 0 0)
(0.44375706 0 0)
(0.44973413 0 0)
(0.45492042 0 0)
(0.45950711 0 0)
(0.46374904 0 0)
(0.46796926 0 0)
(0.4725373 0 0)
(0.024440515 0 0)
(0.070582989 0 0)
(0.11332917 0 0)
(0.15285578 0 0)
(0.18916596 0 0)
(0.22250454 0 0)
(0.25308995 0 0)
(0.28101138 0 0)
(0.30631715 0 0)
(0.32918309 0 0)
(0.34975483 0 0)
(0.36813317 0 0)
(0.3844401 0 0)
(0.39882759 0 0)
(0.41144222 0 0)
(0.42243488 0 0)
(0.43198046 0 0)
(0.44021502 0 0)
(0.44726053 0 0)
(0.4532522 0 0)
(0.45836149 0 0)
(0.46274789 0 0)
(0.46662531 0 0)
(0.47022283 0 0)
(0.47385027 0 0)
(0.47785554 0 0)
(0.024479565 0 0)
(0.070719809 0 0)
(0.11357589 0 0)
(0.15323012 0 0)
(0.18968494 0 0)
(0.22318803 0 0)
(0.25396251 0 0)
(0.2821007 0 0)
(0.30763475 0 0)
(0.33074402 0 0)
(0.35157057 0 0)
(0.37020975 0 0)
(0.38677824 0 0)
(0.40141891 0 0)
(0.41426603 0 0)
(0.42546213 0 0)
(0.43517228 0 0)
(0.4435496 0 0)
(0.45071847 0 0)
(0.45678728 0 0)
(0.46190326 0 0)
(0.46620911 0 0)
(0.46988063 0 0)
(0.47309223 0 0)
(0.47608529 0 0)
(0.47916747 0 0)
(0.48268542 0 0)
(0.024514457 0 0)
(0.070842331 0 0)
(0.11379486 0 0)
(0.15356162 0 0)
(0.19014584 0 0)
(0.22379644 0 0)
(0.25474355 0 0)
(0.28308354 0 0)
(0.30882983 0 0)
(0.33216462 0 0)
(0.35323667 0 0)
(0.37213091 0 0)
(0.38894983 0 0)
(0.40383951 0 0)
(0.41693149 0 0)
(0.42834755 0 0)
(0.43823745 0 0)
(0.44676724 0 0)
(0.45407753 0 0)
(0.4602659 0 0)
(0.4654511 0 0)
(0.46976034 0 0)
(0.47334786 0 0)
(0.47635307 0 0)
(0.4789727 0 0)
(0.48142296 0 0)
(0.48400299 0 0)
(0.48703982 0 0)
(0.024544868 0 0)
(0.070949081 0 0)
(0.1139867 0 0)
(0.15385105 0 0)
(0.19055091 0 0)
(0.2243363 0 0)
(0.25543989 0 0)
(0.28396365 0 0)
(0.30990784 0 0)
(0.3334568 0 0)
(0.35475856 0 0)
(0.37389341 0 0)
(0.39095767 0 0)
(0.40609381 0 0)
(0.41942474 0 0)
(0.43106877 0 0)
(0.44115981 0 0)
(0.44985094 0 0)
(0.45730942 0 0)
(0.46364498 0 0)
(0.46894546 0 0)
(0.47331919 0 0)
(0.47690565 0 0)
(0.47982759 0 0)
(0.48223988 0 0)
(0.48430119 0 0)
(0.48624176 0 0)
(0.48835734 0 0)
(0.49097777 0 0)
(0.024573066 0 0)
(0.071044105 0 0)
(0.11415487 0 0)
(0.1541032 0 0)
(0.19090565 0 0)
(0.22481176 0 0)
(0.25605728 0 0)
(0.28474979 0 0)
(0.31087613 0 0)
(0.3346214 0 0)
(0.3561408 0 0)
(0.37550861 0 0)
(0.39280461 0 0)
(0.40817605 0 0)
(0.42174759 0 0)
(0.43362307 0 0)
(0.44392444 0 0)
(0.45280382 0 0)
(0.46042313 0 0)
(0.46689947 0 0)
(0.47233172 0 0)
(0.47681292 0 0)
(0.48045885 0 0)
(0.48338016 0 0)
(0.48571032 0 0)
(0.4875683 0 0)
(0.48913407 0 0)
(0.49061456 0 0)
(0.49230101 0 0)
(0.49450909 0 0)
(0.02449327 0 0)
(0.07112626 0 0)
(0.1142985 0 0)
(0.1543195 0 0)
(0.1912126 0 0)
(0.22522787 0 0)
(0.25660139 0 0)
(0.28544511 0 0)
(0.31173989 0 0)
(0.33567017 0 0)
(0.35739148 0 0)
(0.37697594 0 0)
(0.39449485 0 0)
(0.41009598 0 0)
(0.42389682 0 0)
(0.43599897 0 0)
(0.4465207 0 0)
(0.45559809 0 0)
(0.46337872 0 0)
(0.47000259 0 0)
(0.47558412 0 0)
(0.48020058 0 0)
(0.4839478 0 0)
(0.48692677 0 0)
(0.48925605 0 0)
(0.49103699 0 0)
(0.49240264 0 0)
(0.493498 0 0)
(0.49454557 0 0)
(0.49583437 0 0)
(0.49768568 0 0)
(0.024391614 0 0)
(0.070968501 0 0)
(0.11442367 0 0)
(0.15450194 0 0)
(0.191475 0 0)
(0.22558898 0 0)
(0.25707761 0 0)
(0.28605845 0 0)
(0.312507 0 0)
(0.3366057 0 0)
(0.3585152 0 0)
(0.37830787 0 0)
(0.3960356 0 0)
(0.41185207 0 0)
(0.42587829 0 0)
(0.43820405 0 0)
(0.4489387 0 0)
(0.45821905 0 0)
(0.46618522 0 0)
(0.4729739 0 0)
(0.4787042 0 0)
(0.4834551 0 0)
(0.4873218 0 0)
(0.49039657 0 0)
(0.49278207 0 0)
(0.49456655 0 0)
(0.49586111 0 0)
(0.49676465 0 0)
(0.49744244 0 0)
(0.49809709 0 0)
(0.49901757 0 0)
(0.50051481 0 0)
(0.024299261 0 0)
(0.070657471 0 0)
(0.11418397 0 0)
(0.15465597 0 0)
(0.19169692 0 0)
(0.22589782 0 0)
(0.25749082 0 0)
(0.28659336 0 0)
(0.31318285 0 0)
(0.3374385 0 0)
(0.35952163 0 0)
(0.3795064 0 0)
(0.39743097 0 0)
(0.41345566 0 0)
(0.42769459 0 0)
(0.44023402 0 0)
(0.45118192 0 0)
(0.46066946 0 0)
(0.46882564 0 0)
(0.47578184 0 0)
(0.4816597 0 0)
(0.48655186 0 0)
(0.49055413 0 0)
(0.49375006 0 0)
(0.49622906 0 0)
(0.49807213 0 0)
(0.49937443 0 0)
(0.50021633 0 0)
(0.50070952 0 0)
(0.50098851 0 0)
(0.50127289 0 0)
(0.50185037 0 0)
(0.50304124 0 0)
(0.024217901 0 0)
(0.070377634 0 0)
(0.11367702 0 0)
(0.15433628 0 0)
(0.19188173 0 0)
(0.22616042 0 0)
(0.25784658 0 0)
(0.28705727 0 0)
(0.31377434 0 0)
(0.33817236 0 0)
(0.36041572 0 0)
(0.38058284 0 0)
(0.39869065 0 0)
(0.41490784 0 0)
(0.42935273 0 0)
(0.44210015 0 0)
(0.45324951 0 0)
(0.46293598 0 0)
(0.47128848 0 0)
(0.47842296 0 0)
(0.48445385 0 0)
(0.48949766 0 0)
(0.49364389 0 0)
(0.4969603 0 0)
(0.49954814 0 0)
(0.50148399 0 0)
(0.50284837 0 0)
(0.50370662 0 0)
(0.50414841 0 0)
(0.5042546 0 0)
(0.50417892 0 0)
(0.50412528 0 0)
(0.50438429 0 0)
(0.5052719 0 0)
(0.024147247 0 0)
(0.070127915 0 0)
(0.11321612 0 0)
(0.15364503 0 0)
(0.19150103 0 0)
(0.22637928 0 0)
(0.2581461 0 0)
(0.28745388 0 0)
(0.31428646 0 0)
(0.33881584 0 0)
(0.36120647 0 0)
(0.38154152 0 0)
(0.39981901 0 0)
(0.41622034 0 0)
(0.43085848 0 0)
(0.44380247 0 0)
(0.45514818 0 0)
(0.46503217 0 0)
(0.47357587 0 0)
(0.48088993 0 0)
(0.48708394 0 0)
(0.49227398 0 0)
(0.49655781 0 0)
(0.50000801 0 0)
(0.50271754 0 0)
(0.50476485 0 0)
(0.5062232 0 0)
(0.50715049 0 0)
(0.50761707 0 0)
(0.50768491 0 0)
(0.50744645 0 0)
(0.50702986 0 0)
(0.5066573 0 0)
(0.50661982 0 0)
(0.50724423 0 0)
(0.024088819 0 0)
(0.069912625 0 0)
(0.11280604 0 0)
(0.15301561 0 0)
(0.19065492 0 0)
(0.22595096 0 0)
(0.25839984 0 0)
(0.28778689 0 0)
(0.31472412 0 0)
(0.33937382 0 0)
(0.36189896 0 0)
(0.38239091 0 0)
(0.40082579 0 0)
(0.41739525 0 0)
(0.43221839 0 0)
(0.4453525 0 0)
(0.45688241 0 0)
(0.46695113 0 0)
(0.4756842 0 0)
(0.48318341 0 0)
(0.48954579 0 0)
(0.49488116 0 0)
(0.49930018 0 0)
(0.50289344 0 0)
(0.50573347 0 0)
(0.50788978 0 0)
(0.50945358 0 0)
(0.51047879 0 0)
(0.51102264 0 0)
(0.51112762 0 0)
(0.51086454 0 0)
(0.51029915 0 0)
(0.50957837 0 0)
(0.50891312 0 0)
(0.50859994 0 0)
(0.50896496 0 0)
(0.024042397 0 0)
(0.069731819 0 0)
(0.11244868 0 0)
(0.15245364 0 0)
(0.18988605 0 0)
(0.22497562 0 0)
(0.25792747 0 0)
(0.28806604 0 0)
(0.31509378 0 0)
(0.33985102 0 0)
(0.36250073 0 0)
(0.38313767 0 0)
(0.40171514 0 0)
(0.41844407 0 0)
(0.43343983 0 0)
(0.44675269 0 0)
(0.45845933 0 0)
(0.46870934 0 0)
(0.4776232 0 0)
(0.48529955 0 0)
(0.49183077 0 0)
(0.49731981 0 0)
(0.50187138 0 0)
(0.50559394 0 0)
(0.50856531 0 0)
(0.51084247 0 0)
(0.51251818 0 0)
(0.51365595 0 0)
(0.51430432 0 0)
(0.51449801 0 0)
(0.51428402 0 0)
(0.51370975 0 0)
(0.51285184 0 0)
(0.51183727 0 0)
(0.51089611 0 0)
(0.5103266 0 0)
(0.5104643 0 0)
(0.024008978 0 0)
(0.069588519 0 0)
(0.11214836 0 0)
(0.15196275 0 0)
(0.18919682 0 0)
(0.2240901 0 0)
(0.25684147 0 0)
(0.28755432 0 0)
(0.31540067 0 0)
(0.34025539 0 0)
(0.36301785 0 0)
(0.38378637 0 0)
(0.40249601 0 0)
(0.41936967 0 0)
(0.4345287 0 0)
(0.44801365 0 0)
(0.45988602 0 0)
(0.47030342 0 0)
(0.4793925 0 0)
(0.48724631 0 0)
(0.4939463 0 0)
(0.49958727 0 0)
(0.50427641 0 0)
(0.50812067 0 0)
(0.51121265 0 0)
(0.51362482 0 0)
(0.51541739 0 0)
(0.51665759 0 0)
(0.51741883 0 0)
(0.51772628 0 0)
(0.5176138 0 0)
(0.51710399 0 0)
(0.51625303 0 0)
(0.51511566 0 0)
(0.51383812 0 0)
(0.51264262 0 0)
(0.51183414 0 0)
(0.51174883 0 0)
(0.023988431 0 0)
(0.069482911 0 0)
(0.11190691 0 0)
(0.15154841 0 0)
(0.18859539 0 0)
(0.22329531 0 0)
(0.25585136 0 0)
(0.28636679 0 0)
(0.31486825 0 0)
(0.34059019 0 0)
(0.36345247 0 0)
(0.38434585 0 0)
(0.40317352 0 0)
(0.42018249 0 0)
(0.43549323 0 0)
(0.44913923 0 0)
(0.46116826 0 0)
(0.47174931 0 0)
(0.48100468 0 0)
(0.48902581 0 0)
(0.49588879 0 0)
(0.5016866 0 0)
(0.50651643 0 0)
(0.51047978 0 0)
(0.51368187 0 0)
(0.51621064 0 0)
(0.51812415 0 0)
(0.51947601 0 0)
(0.52034762 0 0)
(0.52077844 0 0)
(0.52079066 0 0)
(0.52039773 0 0)
(0.51962569 0 0)
(0.51851225 0 0)
(0.51712332 0 0)
(0.5155908 0 0)
(0.51415594 0 0)
(0.51312535 0 0)
(0.5128428 0 0)
(0.023981206 0 0)
(0.069416351 0 0)
(0.11172685 0 0)
(0.1512135 0 0)
(0.18808572 0 0)
(0.22260218 0 0)
(0.25496566 0 0)
(0.28528351 0 0)
(0.31360474 0 0)
(0.34004547 0 0)
(0.36381849 0 0)
(0.38481425 0 0)
(0.40375264 0 0)
(0.420886 0 0)
(0.43633856 0 0)
(0.4501385 0 0)
(0.4623148 0 0)
(0.47304613 0 0)
(0.48246094 0 0)
(0.49064714 0 0)
(0.49767123 0 0)
(0.50361748 0 0)
(0.50858696 0 0)
(0.51267583 0 0)
(0.51598062 0 0)
(0.51860819 0 0)
(0.52063384 0 0)
(0.52211074 0 0)
(0.52309242 0 0)
(0.5236313 0 0)
(0.52377385 0 0)
(0.52351923 0 0)
(0.52288052 0 0)
(0.52186345 0 0)
(0.52051481 0 0)
(0.51888335 0 0)
(0.51712238 0 0)
(0.51546603 0 0)
(0.51422778 0 0)
(0.51375289 0 0)
(0.069389398 0 0)
(0.023983872 0 0)
(0.11160963 0 0)
(0.15096117 0 0)
(0.18767349 0 0)
(0.22201386 0 0)
(0.25419 0 0)
(0.28431371 0 0)
(0.31245425 0 0)
(0.33872617 0 0)
(0.36326393 0 0)
(0.38520715 0 0)
(0.40424121 0 0)
(0.42148722 0 0)
(0.43707284 0 0)
(0.45101613 0 0)
(0.46333081 0 0)
(0.47420813 0 0)
(0.4837739 0 0)
(0.49211566 0 0)
(0.49929287 0 0)
(0.50538825 0 0)
(0.51049698 0 0)
(0.51470782 0 0)
(0.5181195 0 0)
(0.52083873 0 0)
(0.52295648 0 0)
(0.52454005 0 0)
(0.52563407 0 0)
(0.52628175 0 0)
(0.52654464 0 0)
(0.52643556 0 0)
(0.52595043 0 0)
(0.52508515 0 0)
(0.52384871 0 0)
(0.52227363 0 0)
(0.52042362 0 0)
(0.5184409 0 0)
(0.51657661 0 0)
(0.51514539 0 0)
(0.51449841 0 0)
(0.11155571 0 0)
(0.069391694 0 0)
(0.023996422 0 0)
(0.15079359 0 0)
(0.18736139 0 0)
(0.22153783 0 0)
(0.25353344 0 0)
(0.28346373 0 0)
(0.31142016 0 0)
(0.33752558 0 0)
(0.36190811 0 0)
(0.38464918 0 0)
(0.40464375 0 0)
(0.42199336 0 0)
(0.43770127 0 0)
(0.45177924 0 0)
(0.46422443 0 0)
(0.47523585 0 0)
(0.48494529 0 0)
(0.49343908 0 0)
(0.50076743 0 0)
(0.50700308 0 0)
(0.51224554 0 0)
(0.51658379 0 0)
(0.5201039 0 0)
(0.52290857 0 0)
(0.52510355 0 0)
(0.52677254 0 0)
(0.52796767 0 0)
(0.52873516 0 0)
(0.52910913 0 0)
(0.52912301 0 0)
(0.52879625 0 0)
(0.52810202 0 0)
(0.5270365 0 0)
(0.5255927 0 0)
(0.52381325 0 0)
(0.52175077 0 0)
(0.51956948 0 0)
(0.51751202 0 0)
(0.51589985 0 0)
(0.51508604 0 0)
(0.15071179 0 0)
(0.11155014 0 0)
(0.069423964 0 0)
(0.024022266 0 0)
(0.18715236 0 0)
(0.22117649 0 0)
(0.2530001 0 0)
(0.28274341 0 0)
(0.31051518 0 0)
(0.33644355 0 0)
(0.360667 0 0)
(0.38326428 0 0)
(0.40409029 0 0)
(0.42240926 0 0)
(0.43822766 0 0)
(0.45243326 0 0)
(0.46500041 0 0)
(0.47614157 0 0)
(0.48598706 0 0)
(0.49462428 0 0)
(0.50209546 0 0)
(0.50847016 0 0)
(0.51384565 0 0)
(0.51830288 0 0)
(0.52192997 0 0)
(0.52482601 0 0)
(0.52709059 0 0)
(0.52882656 0 0)
(0.53010364 0 0)
(0.53096791 0 0)
(0.53145413 0 0)
(0.53158533 0 0)
(0.5313987 0 0)
(0.53088169 0 0)
(0.53000558 0 0)
(0.52875336 0 0)
(0.52712151 0 0)
(0.5251429 0 0)
(0.52288908 0 0)
(0.52051472 0 0)
(0.51827611 0 0)
(0.51649568 0 0)
(0.51553127 0 0)
(0.18704814 0 0)
(0.15069544 0 0)
(0.11159145 0 0)
(0.069494704 0 0)
(0.024060811 0 0)
(0.22093374 0 0)
(0.25259562 0 0)
(0.2821575 0 0)
(0.30974515 0 0)
(0.33549647 0 0)
(0.35955275 0 0)
(0.38199319 0 0)
(0.40268749 0 0)
(0.42186386 0 0)
(0.43866437 0 0)
(0.45298039 0 0)
(0.46566441 0 0)
(0.47692756 0 0)
(0.48690192 0 0)
(0.49567774 0 0)
(0.50328937 0 0)
(0.50979532 0 0)
(0.51529676 0 0)
(0.51987643 0 0)
(0.52361076 0 0)
(0.52659331 0 0)
(0.52892954 0 0)
(0.53072234 0 0)
(0.53205741 0 0)
(0.53299663 0 0)
(0.5335763 0 0)
(0.53382974 0 0)
(0.53376708 0 0)
(0.53339897 0 0)
(0.53271807 0 0)
(0.53167547 0 0)
(0.53025587 0 0)
(0.52844372 0 0)
(0.52628477 0 0)
(0.52384369 0 0)
(0.52129637 0 0)
(0.51888875 0 0)
(0.51695019 0 0)
(0.51584105 0 0)
(0.22081128 0 0)
(0.18702262 0 0)
(0.15074343 0 0)
(0.11169724 0 0)
(0.069604884 0 0)
(0.024112131 0 0)
(0.2523226 0 0)
(0.28171189 0 0)
(0.30911903 0 0)
(0.33468791 0 0)
(0.35857147 0 0)
(0.38085102 0 0)
(0.40140435 0 0)
(0.42045992 0 0)
(0.43813003 0 0)
(0.45343348 0 0)
(0.4662235 0 0)
(0.47760117 0 0)
(0.48769989 0 0)
(0.49660672 0 0)
(0.5043507 0 0)
(0.51098477 0 0)
(0.51661213 0 0)
(0.52130649 0 0)
(0.52514374 0 0)
(0.52821886 0 0)
(0.5306284 0 0)
(0.53247147 0 0)
(0.53384916 0 0)
(0.53484119 0 0)
(0.5354923 0 0)
(0.53583912 0 0)
(0.53589671 0 0)
(0.53566341 0 0)
(0.53515197 0 0)
(0.53432675 0 0)
(0.53313721 0 0)
(0.53155863 0 0)
(0.52958162 0 0)
(0.52724482 0 0)
(0.52463569 0 0)
(0.52192046 0 0)
(0.51935449 0 0)
(0.51726871 0 0)
(0.51602752 0 0)
(0.25218373 0 0)
(0.22077904 0 0)
(0.18707658 0 0)
(0.15087815 0 0)
(0.11186359 0 0)
(0.069751116 0 0)
(0.024175116 0 0)
(0.28140983 0 0)
(0.30864063 0 0)
(0.33402969 0 0)
(0.35773623 0 0)
(0.37984247 0 0)
(0.4002438 0 0)
(0.4191744 0 0)
(0.43673788 0 0)
(0.45291725 0 0)
(0.46668288 0 0)
(0.47816934 0 0)
(0.48838507 0 0)
(0.49741699 0 0)
(0.5052897 0 0)
(0.51204558 0 0)
(0.51779126 0 0)
(0.52260245 0 0)
(0.52654397 0 0)
(0.52970367 0 0)
(0.53218536 0 0)
(0.53408507 0 0)
(0.53549538 0 0)
(0.53651752 0 0)
(0.53721734 0 0)
(0.53763195 0 0)
(0.53778447 0 0)
(0.53768706 0 0)
(0.53732153 0 0)
(0.5366788 0 0)
(0.53572848 0 0)
(0.53440214 0 0)
(0.53267881 0 0)
(0.53054175 0 0)
(0.52804375 0 0)
(0.52526975 0 0)
(0.52240341 0 0)
(0.51968896 0 0)
(0.51746466 0 0)
(0.51609743 0 0)
(0.28125379 0 0)
(0.25214564 0 0)
(0.22083789 0 0)
(0.1872345 0 0)
(0.15109674 0 0)
(0.11209192 0 0)
(0.06993461 0 0)
(0.024249793 0 0)
(0.30831519 0 0)
(0.33352419 0 0)
(0.3570517 0 0)
(0.378983 0 0)
(0.39922214 0 0)
(0.41800926 0 0)
(0.435457 0 0)
(0.45154651 0 0)
(0.46619561 0 0)
(0.47863537 0 0)
(0.48896057 0 0)
(0.49811321 0 0)
(0.50610928 0 0)
(0.51298286 0 0)
(0.51884634 0 0)
(0.52376821 0 0)
(0.52780907 0 0)
(0.5310577 0 0)
(0.53361279 0 0)
(0.53556468 0 0)
(0.5370106 0 0)
(0.53805271 0 0)
(0.53877528 0 0)
(0.5392335 0 0)
(0.53945305 0 0)
(0.53945428 0 0)
(0.53922824 0 0)
(0.53874795 0 0)
(0.5380034 0 0)
(0.53694076 0 0)
(0.53549095 0 0)
(0.53362779 0 0)
(0.53134352 0 0)
(0.5286856 0 0)
(0.52576371 0 0)
(0.52275055 0 0)
(0.5198969 0 0)
(0.51754344 0 0)
(0.51606045 0 0)
(0.30814449 0 0)
(0.28120791 0 0)
(0.25220742 0 0)
(0.22101578 0 0)
(0.18749593 0 0)
(0.15139839 0 0)
(0.11237642 0 0)
(0.070150405 0 0)
(0.024334616 0 0)
(0.33317758 0 0)
(0.35652621 0 0)
(0.37827656 0 0)
(0.39834627 0 0)
(0.41698228 0 0)
(0.43429829 0 0)
(0.45028208 0 0)
(0.46486045 0 0)
(0.47817798 0 0)
(0.48944052 0 0)
(0.4987028 0 0)
(0.50681473 0 0)
(0.51380277 0 0)
(0.51977713 0 0)
(0.52481034 0 0)
(0.52895273 0 0)
(0.53228415 0 0)
(0.5349093 0 0)
(0.53692107 0 0)
(0.53840475 0 0)
(0.53945951 0 0)
(0.54018687 0 0)
(0.54066217 0 0)
(0.5409223 0 0)
(0.54099188 0 0)
(0.54087164 0 0)
(0.54054908 0 0)
(0.53998171 0 0)
(0.53914141 0 0)
(0.53797976 0 0)
(0.53641252 0 0)
(0.53442043 0 0)
(0.5319925 0 0)
(0.52918914 0 0)
(0.52612229 0 0)
(0.52297544 0 0)
(0.51999075 0 0)
(0.51751565 0 0)
(0.51592379 0 0)
(0.33299198 0 0)
(0.30808975 0 0)
(0.28127146 0 0)
(0.25240362 0 0)
(0.22131281 0 0)
(0.18785634 0 0)
(0.15177836 0 0)
(0.11271818 0 0)
(0.070399475 0 0)
(0.024429291 0 0)
(0.35616269 0 0)
(0.37773234 0 0)
(0.39762857 0 0)
(0.41610001 0 0)
(0.4332726 0 0)
(0.44913772 0 0)
(0.46363083 0 0)
(0.47688719 0 0)
(0.48901036 0 0)
(0.49918941 0 0)
(0.50741292 0 0)
(0.51451003 0 0)
(0.5205938 0 0)
(0.52573355 0 0)
(0.52997294 0 0)
(0.5333906 0 0)
(0.53608875 0 0)
(0.53815367 0 0)
(0.539675 0 0)
(0.54074939 0 0)
(0.54147273 0 0)
(0.54194241 0 0)
(0.54221776 0 0)
(0.54232667 0 0)
(0.54227926 0 0)
(0.54207217 0 0)
(0.54167099 0 0)
(0.54102788 0 0)
(0.54011276 0 0)
(0.53885949 0 0)
(0.53718388 0 0)
(0.53506627 0 0)
(0.53250527 0 0)
(0.52955821 0 0)
(0.52635971 0 0)
(0.52308341 0 0)
(0.51997568 0 0)
(0.51738744 0 0)
(0.5156946 0 0)
(0.35596472 0 0)
(0.33292618 0 0)
(0.30815138 0 0)
(0.28148183 0 0)
(0.25272967 0 0)
(0.22172295 0 0)
(0.18831399 0 0)
(0.15223452 0 0)
(0.11310895 0 0)
(0.070675724 0 0)
(0.024532379 0 0)
(0.37735384 0 0)
(0.39707288 0 0)
(0.41537489 0 0)
(0.43239274 0 0)
(0.44812253 0 0)
(0.46251264 0 0)
(0.47569952 0 0)
(0.48777449 0 0)
(0.49879737 0 0)
(0.50790499 0 0)
(0.51510685 0 0)
(0.52129781 0 0)
(0.52654241 0 0)
(0.53088041 0 0)
(0.5343807 0 0)
(0.53714847 0 0)
(0.53927379 0 0)
(0.54083569 0 0)
(0.54192613 0 0)
(0.54264818 0 0)
(0.54310095 0 0)
(0.54336265 0 0)
(0.54348204 0 0)
(0.54347517 0 0)
(0.54334754 0 0)
(0.54307361 0 0)
(0.54261757 0 0)
(0.54191722 0 0)
(0.54092881 0 0)
(0.53959263 0 0)
(0.53781201 0 0)
(0.53557762 0 0)
(0.53288748 0 0)
(0.52980809 0 0)
(0.52648053 0 0)
(0.52308485 0 0)
(0.51986124 0 0)
(0.51716675 0 0)
(0.51537956 0 0)
(0.37714322 0 0)
(0.35589009 0 0)
(0.3329818 0 0)
(0.30836706 0 0)
(0.28183451 0 0)
(0.25318462 0 0)
(0.22224543 0 0)
(0.18886248 0 0)
(0.15276168 0 0)
(0.11354896 0 0)
(0.070980641 0 0)
(0.024611866 0 0)
(0.39668621 0 0)
(0.41481192 0 0)
(0.43166688 0 0)
(0.44725135 0 0)
(0.46152224 0 0)
(0.47461567 0 0)
(0.48662842 0 0)
(0.49761326 0 0)
(0.50754976 0 0)
(0.51560288 0 0)
(0.52189183 0 0)
(0.52723995 0 0)
(0.53167418 0 0)
(0.53525901 0 0)
(0.53810092 0 0)
(0.54028237 0 0)
(0.54188356 0 0)
(0.54299874 0 0)
(0.54372278 0 0)
(0.54415267 0 0)
(0.54438365 0 0)
(0.54448576 0 0)
(0.54448871 0 0)
(0.54440504 0 0)
(0.54422087 0 0)
(0.54390571 0 0)
(0.54340451 0 0)
(0.54265353 0 0)
(0.54160595 0 0)
(0.54019028 0 0)
(0.5383109 0 0)
(0.53596298 0 0)
(0.53315169 0 0)
(0.52994203 0 0)
(0.52649555 0 0)
(0.52298511 0 0)
(0.51965308 0 0)
(0.5168594 0 0)
(0.5149655 0 0)
(0.39647069 0 0)
(0.37705966 0 0)
(0.35593745 0 0)
(0.33319707 0 0)
(0.30873566 0 0)
(0.28232766 0 0)
(0.25375988 0 0)
(0.2228707 0 0)
(0.1894972 0 0)
(0.15335337 0 0)
(0.11403176 0 0)
(0.071129565 0 0)
(0.024581685 0 0)
(0.41441764 0 0)
(0.43110359 0 0)
(0.44653168 0 0)
(0.46066935 0 0)
(0.47365633 0 0)
(0.4855884 0 0)
(0.49651878 0 0)
(0.50642652 0 0)
(0.51528445 0 0)
(0.52238648 0 0)
(0.52783121 0 0)
(0.53235981 0 0)
(0.53602935 0 0)
(0.53894295 0 0)
(0.54118705 0 0)
(0.54283286 0 0)
(0.54396802 0 0)
(0.54469533 0 0)
(0.54511015 0 0)
(0.54530112 0 0)
(0.54536118 0 0)
(0.54534521 0 0)
(0.54527229 0 0)
(0.54513902 0 0)
(0.54492592 0 0)
(0.54458105 0 0)
(0.54405113 0 0)
(0.54326053 0 0)
(0.5421521 0 0)
(0.54066246 0 0)
(0.5386864 0 0)
(0.53623175 0 0)
(0.53330411 0 0)
(0.52997201 0 0)
(0.52640991 0 0)
(0.52279186 0 0)
(0.51935774 0 0)
(0.5164396 0 0)
(0.51444406 0 0)
(0.41419569 0 0)
(0.39638189 0 0)
(0.37709921 0 0)
(0.356152 0 0)
(0.33357291 0 0)
(0.30925088 0 0)
(0.2829547 0 0)
(0.25445419 0 0)
(0.22359619 0 0)
(0.19021149 0 0)
(0.15400787 0 0)
(0.11424664 0 0)
(0.071035463 0 0)
(0.024546799 0 0)
(0.43070765 0 0)
(0.44597202 0 0)
(0.45996608 0 0)
(0.47282744 0 0)
(0.48466103 0 0)
(0.49551917 0 0)
(0.5053876 0 0)
(0.51423688 0 0)
(0.52210874 0 0)
(0.52831827 0 0)
(0.53294085 0 0)
(0.53669505 0 0)
(0.5396842 0 0)
(0.54198972 0 0)
(0.54367949 0 0)
(0.54484287 0 0)
(0.54557779 0 0)
(0.54597596 0 0)
(0.546131 0 0)
(0.54613823 0 0)
(0.54607425 0 0)
(0.54598054 0 0)
(0.54586171 0 0)
(0.5457086 0 0)
(0.54548087 0 0)
(0.54512391 0 0)
(0.54456868 0 0)
(0.54374114 0 0)
(0.54258056 0 0)
(0.54101779 0 0)
(0.53894939 0 0)
(0.53639221 0 0)
(0.53335276 0 0)
(0.52990195 0 0)
(0.52623082 0 0)
(0.52251103 0 0)
(0.51893055 0 0)
(0.51590497 0 0)
(0.51382574 0 0)
(0.43048338 0 0)
(0.41410062 0 0)
(0.39642122 0 0)
(0.37731166 0 0)
(0.35652699 0 0)
(0.33409987 0 0)
(0.30990993 0 0)
(0.28371036 0 0)
(0.25525573 0 0)
(0.22441131 0 0)
(0.19099989 0 0)
(0.15428921 0 0)
(0.1140982 0 0)
(0.070925117 0 0)
(0.024505375 0 0)
(0.44557846 0 0)
(0.45941865 0 0)
(0.47214416 0 0)
(0.48386438 0 0)
(0.49463096 0 0)
(0.50443445 0 0)
(0.51325939 0 0)
(0.52114214 0 0)
(0.52808556 0 0)
(0.53341702 0 0)
(0.5372565 0 0)
(0.54032308 0 0)
(0.54269449 0 0)
(0.54443474 0 0)
(0.54562489 0 0)
(0.54636786 0 0)
(0.54675937 0 0)
(0.5468834 0 0)
(0.54683273 0 0)
(0.54670192 0 0)
(0.54655721 0 0)
(0.54641885 0 0)
(0.54628585 0 0)
(0.54613045 0 0)
(0.54590715 0 0)
(0.54554262 0 0)
(0.54497233 0 0)
(0.54411313 0 0)
(0.54289703 0 0)
(0.54126438 0 0)
(0.53910535 0 0)
(0.53644996 0 0)
(0.53330454 0 0)
(0.5297394 0 0)
(0.52596426 0 0)
(0.52207367 0 0)
(0.51837202 0 0)
(0.51527526 0 0)
(0.51311293 0 0)
(0.44535377 0 0)
(0.43038653 0 0)
(0.4141351 0 0)
(0.39663121 0 0)
(0.37768761 0 0)
(0.35706309 0 0)
(0.33477829 0 0)
(0.31070279 0 0)
(0.28458576 0 0)
(0.25615938 0 0)
(0.22531299 0 0)
(0.19132806 0 0)
(0.15410219 0 0)
(0.1139287 0 0)
(0.07079942 0 0)
(0.024457716 0 0)
(0.45903406 0 0)
(0.47161067 0 0)
(0.48320328 0 0)
(0.49386373 0 0)
(0.50358764 0 0)
(0.51236376 0 0)
(0.5202334 0 0)
(0.52719996 0 0)
(0.53322794 0 0)
(0.53771985 0 0)
(0.54086177 0 0)
(0.54330203 0 0)
(0.54509484 0 0)
(0.54631969 0 0)
(0.54707755 0 0)
(0.54745963 0 0)
(0.54755532 0 0)
(0.54745468 0 0)
(0.54724895 0 0)
(0.54702949 0 0)
(0.54684231 0 0)
(0.54669353 0 0)
(0.54656713 0 0)
(0.54643005 0 0)
(0.54621766 0 0)
(0.54585625 0 0)
(0.54526939 0 0)
(0.54437861 0 0)
(0.54311171 0 0)
(0.54140859 0 0)
(0.53916144 0 0)
(0.53641294 0 0)
(0.53316238 0 0)
(0.52948979 0 0)
(0.52551783 0 0)
(0.52148748 0 0)
(0.51772333 0 0)
(0.51455163 0 0)
(0.51230227 0 0)
(0.45881545 0 0)
(0.44525613 0 0)
(0.43041626 0 0)
(0.41434047 0 0)
(0.39701191 0 0)
(0.37823025 0 0)
(0.35774948 0 0)
(0.33559439 0 0)
(0.31162319 0 0)
(0.28557048 0 0)
(0.25715844 0 0)
(0.22567273 0 0)
(0.19109197 0 0)
(0.15388336 0 0)
(0.11373438 0 0)
(0.070655241 0 0)
(0.024402496 0 0)
(0.47123508 0 0)
(0.48269001 0 0)
(0.49322997 0 0)
(0.50285352 0 0)
(0.51156195 0 0)
(0.51939938 0 0)
(0.52636698 0 0)
(0.53243 0 0)
(0.53757263 0 0)
(0.54130636 0 0)
(0.54381525 0 0)
(0.54566503 0 0)
(0.54692804 0 0)
(0.54770271 0 0)
(0.5480857 0 0)
(0.54815939 0 0)
(0.54800994 0 0)
(0.54773641 0 0)
(0.54743532 0 0)
(0.547167 0 0)
(0.54696404 0 0)
(0.54682597 0 0)
(0.54672877 0 0)
(0.54661886 0 0)
(0.54642899 0 0)
(0.54606989 0 0)
(0.54547192 0 0)
(0.54455078 0 0)
(0.5432294 0 0)
(0.5414567 0 0)
(0.53912347 0 0)
(0.53628288 0 0)
(0.532935 0 0)
(0.52903994 0 0)
(0.5249034 0 0)
(0.5208132 0 0)
(0.51698101 0 0)
(0.51373133 0 0)
(0.51139727 0 0)
(0.47102075 0 0)
(0.45871899 0 0)
(0.44528269 0 0)
(0.43061961 0 0)
(0.41471834 0 0)
(0.39755491 0 0)
(0.3789256 0 0)
(0.35858459 0 0)
(0.33654512 0 0)
(0.31265992 0 0)
(0.28666007 0 0)
(0.25754479 0 0)
(0.22538581 0 0)
(0.19082136 0 0)
(0.15363144 0 0)
(0.11351351 0 0)
(0.070493649 0 0)
(0.024340253 0 0)
(0.48232733 0 0)
(0.49273555 0 0)
(0.50224699 0 0)
(0.51086838 0 0)
(0.51864786 0 0)
(0.52559488 0 0)
(0.53167647 0 0)
(0.53687261 0 0)
(0.54120184 0 0)
(0.544234 0 0)
(0.54614529 0 0)
(0.54745243 0 0)
(0.54825248 0 0)
(0.54863718 0 0)
(0.54869131 0 0)
(0.54850366 0 0)
(0.54816581 0 0)
(0.54777355 0 0)
(0.54740908 0 0)
(0.54712783 0 0)
(0.5469437 0 0)
(0.5468434 0 0)
(0.54678696 0 0)
(0.54671679 0 0)
(0.5465497 0 0)
(0.54619812 0 0)
(0.54558498 0 0)
(0.54463152 0 0)
(0.54325639 0 0)
(0.54141332 0 0)
(0.53899476 0 0)
(0.53606813 0 0)
(0.53248944 0 0)
(0.52840434 0 0)
(0.52420526 0 0)
(0.5200516 0 0)
(0.51614768 0 0)
(0.51281705 0 0)
(0.51039336 0 0)
(0.48212129 0 0)
(0.47092472 0 0)
(0.45874618 0 0)
(0.44548266 0 0)
(0.4309904 0 0)
(0.415258 0 0)
(0.39825822 0 0)
(0.37977418 0 0)
(0.35955398 0 0)
(0.33761497 0 0)
(0.31380646 0 0)
(0.28707348 0 0)
(0.25721252 0 0)
(0.22505726 0 0)
(0.19050801 0 0)
(0.1533406 0 0)
(0.11326547 0 0)
(0.070312601 0 0)
(0.02426971 0 0)
(0.49238798 0 0)
(0.50177249 0 0)
(0.51029158 0 0)
(0.51799712 0 0)
(0.52489966 0 0)
(0.53097133 0 0)
(0.5362014 0 0)
(0.54060245 0 0)
(0.54417347 0 0)
(0.54653416 0 0)
(0.54789132 0 0)
(0.54872263 0 0)
(0.5491188 0 0)
(0.54916226 0 0)
(0.54893632 0 0)
(0.54853737 0 0)
(0.54806415 0 0)
(0.54760509 0 0)
(0.54722616 0 0)
(0.54695754 0 0)
(0.546811 0 0)
(0.54676121 0 0)
(0.54675962 0 0)
(0.54673105 0 0)
(0.54659233 0 0)
(0.54624423 0 0)
(0.54561737 0 0)
(0.54462942 0 0)
(0.54319784 0 0)
(0.54128298 0 0)
(0.53878291 0 0)
(0.53562628 0 0)
(0.53184567 0 0)
(0.52768963 0 0)
(0.52342432 0 0)
(0.51919975 0 0)
(0.51521953 0 0)
(0.51180506 0 0)
(0.50929493 0 0)
(0.4921898 0 0)
(0.48202971 0 0)
(0.47094929 0 0)
(0.45893927 0 0)
(0.44584717 0 0)
(0.43152741 0 0)