/*--------------------------------*- C++ -*----------------------------------*\
| =========                 |                                                 |
| \\      /  F ield         | OpenFOAM: The Open Source CFD Toolbox           |
|  \\    /   O peration     | Version:  v2012                                 |
|   \\  /    A nd           | Website:  www.openfoam.com                      |
|    \\/     M anipulation  |                                                 |
\*---------------------------------------------------------------------------*/
FoamFile
{
    version     2.0;
    format      ascii;
    class       surfaceScalarField;
    location    "76.2183595797693272";
    object      meshPhi;
}
// * * * * * * * * * * * * * * * * * * * * * * * * * * * * * * * * * * * * * //

dimensions      [0 3 -1 0 0 0 0];
oriented        oriented;


internalField   nonuniform List<scalar> 
18180
(
-1.0506027e-13
0.063102632
0
0.059979667
0
0.12350905
1.0495416e-13
0.058052991
0
0.11648543
-9.7837719e-14
0.17867556
5.2489934e-14
0.05637869
0
0.11132864
0
0.16781341
9.4384683e-14
0.230329
5.2439121e-14
0.053915116
0
0.10684228
0
0.15864324
0
0.21538578
9.1100793e-14
0.27871591
5.2449847e-14
0.050515194
-2.7249276e-17
0.10117081
0
0.15001901
9.43558e-14
0.20184691
0
0.26047804
-8.7972182e-14
0.32470994
-5.2429004e-14
0.046908962
0
0.094646698
0
0.14137479
0
0.18952343
9.107298e-14
0.24346474
0
0.30364944
0
0.36791843
0
0.043639545
0
0.088232258
2.3584639e-17
0.13263244
0
0.17788676
9.1074127e-14
0.22771509
-4.0896162e-17
0.28392342
0
0.34458633
0
0.40875381
0
0.040775878
5.0554832e-14
0.082299513
-4.8844034e-14
0.12413917
2.1346934e-17
0.16690003
-2.0329085e-17
0.21316265
2.0274966e-17
0.26537008
8.4847186e-14
0.32275385
0
0.38327895
0
0.44686883
-5.2369998e-14
0.038255266
0
0.076982343
-9.7607956e-14
0.11625679
-4.7148903e-14
0.15669823
4.5524676e-14
0.19985047
4.3933369e-14
0.248266
0
0.30223452
0
0.35966553
0
0.41941161
0
0.48260425
0
0.035990341
-5.0548007e-14
0.072193975
0
0.10898955
0
0.14722723
4.5491657e-14
0.18777655
4.3943148e-14
0.23270362
-2.0173485e-17
0.2830979
4.0959388e-14
0.33744497
7.9048959e-14
0.39418057
0
0.45324855
0
0.51583823
0
0.033913562
0
0.067839275
0
0.10228244
0
0.1383918
-4.5478813e-14
0.17667649
4.3911879e-14
0.21847416
4.2416384e-14
0.26536053
-4.0951084e-14
0.31663733
-3.9498721e-14
0.37052406
0
0.42643398
0
0.48476677
0
0.54699458
0
0.031980045
0
0.063822743
0
0.096056659
-4.7107219e-14
0.13009788
0
0.16633325
4.392099e-14
0.20551435
0
0.24915827
0
0.29721462
3.9508884e-14
0.3482673
-3.8142695e-14
0.40135592
7.3643953e-14
0.45652611
0
0.51426719
0
0.57587155
0
0.030159312
-2.5237838e-14
0.060083995
0
0.090244672
0
0.12228182
0
0.15660047
0
0.19355685
0
0.23429917
4.0914106e-14
0.2791086
-3.9500876e-14
0.3272528
-1.728338e-17
0.37780125
3.6815654e-14
0.43019788
-7.1108122e-14
0.48462199
0
0.54164046
0
0.60284545
-1.6145689e-17
0.028433455
0
0.056576216
0
0.084790495
0
0.11490272
0
0.14737206
-4.3898742e-14
0.18229672
0
0.22051607
0
0.26230527
0
0.30738087
-3.812803e-14
0.35534961
-1.6158278e-17
0.40543446
0
0.45705531
0
0.51073051
0
0.56718015
0
0.62776741
0
0.026787249
0
0.053265743
-1.2197937e-17
0.07965573
2.3535077e-14
0.10792671
0
0.1386117
0
0.17162287
0
0.20763572
0
0.24678307
0
0.28881473
0
0.33397633
0
0.38183533
-1.5125864e-17
0.43122202
0
0.48203211
0
0.53501383
0
0.59083574
0
0.6510175
-1.6357796e-17
0.025212745
-2.5234147e-14
0.050127837
-2.4378907e-14
0.074809349
2.3518164e-14
0.10132908
2.2720893e-14
0.13029904
0
0.16146888
0
0.19546981
0
0.23236558
0
0.27170021
3.8113698e-14
0.31393411
-3.681227e-14
0.359246
3.5537144e-14
0.40660491
3.4290656e-14
0.45520574
6.6200927e-14
0.50521074
0
0.55759645
-6.1692885e-14
0.61288909
0
0.67242034
5.2245588e-14
0.023704727
2.5215018e-14
0.04714932
2.4361645e-14
0.070232999
2.3513106e-14
0.095092732
-1.1198568e-17
0.12242039
-2.1923499e-14
0.15181133
0
0.18390434
0
0.21881567
0
0.25584103
0
0.29525792
0
0.33782784
0
0.38301701
3.4299546e-14
0.42973557
-3.3108733e-14
0.47751691
0
0.52684458
0
0.57863352
0
0.63328612
0
0.69235469
-2.6126676e-14
0.022260807
0
0.044320537
0
0.065913045
0
0.089205427
2.2688912e-14
0.11496448
4.3848614e-14
0.14263771
1.0446402e-17
0.1728906
0
0.20597008
0
0.24099054
0
0.27794618
0
0.31780598
0
0.36052826
0
0.40524831
1.3516283e-17
0.45126635
-1.221994e-17
0.49832979
0
0.54696583
0
0.59819745
0
0.65227533
-5.5437103e-14
0.71064223
0
0.020879948
0
0.041630095
0
0.061838962
-2.3515644e-14
0.083654458
2.2695946e-14
0.10792026
-1.0751702e-17
0.13394202
0
0.16240799
-2.0430632e-14
0.19374137
0
0.22696246
0
0.26179711
-3.6793691e-14
0.2991031
0
0.33920005
0
0.38168578
-1.3861991e-17
0.42594804
0
0.47135432
3.082631e-14
0.51767736
0
0.56573153
0
0.61639235
0
0.66978386
-1.5112722e-17
0.72761589
0
0.019562685
-2.521709e-14
0.039071837
0
0.057998479
1.1474485e-17
0.078427573
-1.1435697e-17
0.1012747
2.1910831e-14
0.12571441
-4.2332514e-14
0.1524455
0
0.18209715
1.9732741e-14
0.21362747
0
0.24654587
0
0.281569
-1.6174007e-17
0.31910689
0
0.35912522
0
0.40139853
3.1932804e-14
0.44528688
0
0.49004308
-2.9759858e-14
0.53572655
-5.7432258e-14
0.58319131
0
0.6332986
0
0.68602137
-5.1613021e-14
0.74309495
0
0.018309522
0
0.036640546
-2.4345373e-14
0.05438096
0
0.073513124
-2.2700029e-14
0.095009546
-1.0784966e-17
0.11793974
0
0.14299452
-2.0433602e-14
0.17102106
0
0.20093918
0
0.23207596
0
0.26507399
0
0.30028649
3.4265384e-14
0.33776511
0
0.37777788
0
0.41996855
0
0.46336465
0
0.50749786
2.8708874e-14
0.55255951
0
0.59949278
5.3472325e-14
0.64897036
0
0.70092942
-4.9798887e-14
0.75742666
0
0.01711988
0
0.034332172
0
0.050976249
0
0.068898266
0
0.089107349
2.1914798e-14
0.1106004
2.1148773e-14
0.1340453
6.1269456e-14
0.16050351
1.9705772e-14
0.18887684
-9.2204453e-18
0.21831419
-1.8379125e-14
0.24946192
0
0.28263635
0
0.3177662
0
0.35534383
0
0.39548611
0
0.43737479
0
0.48026082
0
0.52377537
-9.2095896e-18
0.5682531
0
0.61460383
0
0.6634699
0
0.71470394
4.8035291e-14
0.77044303
2.6102508e-14
0.015995175
-1.2596805e-14
0.032144537
0
0.04777391
0
0.064569956
-2.2694072e-14
0.083551261
0
0.10368259
-2.1145682e-14
0.12558992
0
0.15053768
1.9712787e-14
0.17742757
-9.2796098e-18
0.20523112
-1.8384912e-14
0.2346313
0
0.26598326
0
0.29903645
0
0.33419355
0
0.3720689
0
0.41220243
2.975198e-14
0.45370841
-2.8714498e-14
0.49602229
2.7711405e-14
0.53891967
5.3466377e-14
0.58279127
0
0.62860801
0
0.67683087
0
0.7272907
0
0.78244804
0
0.014935601
0
0.030077692
1.2168505e-14
0.044763295
0
0.060512189
0
0.078324563
0
0.097169477
0
0.11761726
1.077386e-17
0.14111521
0
0.1665815
0
0.19280986
-8.6669585e-18
0.22053432
0
0.25019755
-1.7133457e-14
0.28141029
0
0.31438676
0
0.34996126
-3.0822913e-14
0.38807414
0
0.42794106
0
0.46895548
-2.7699979e-14
0.51067065
0
0.55291204
2.5795614e-14
0.59621361
-2.4890869e-14
0.64149374
0
0.68911835
0
0.73885309
0
0.7933107
1.305328e-14
0.013940763
1.260184e-14
0.028129229
-1.2167426e-14
0.041933793
5.7853443e-18
0.056706032
0
0.073407123
0
0.091039865
0
0.11011221
0
0.13222157
1.9717699e-14
0.15632342
-9.3748532e-18
0.18103913
0
0.20714757
0
0.23520136
0
0.26474252
-7.1221158e-18
0.2957992
0
0.32915671
0
0.36510394
-1.2316451e-17
0.40314643
0
0.44264769
0
0.48313031
0
0.52418557
0
0.56579674
-4.9794598e-14
0.60855131
-2.4022474e-14
0.65333854
0
0.70035761
0
0.74938331
0
0.80334205
-1.3052403e-14
0.013008896
0
0.026296291
2.4326795e-14
0.039275184
-1.1747749e-14
0.053134071
5.843377e-18
0.068780293
0
0.085272982
0
0.10305559
0
0.12383799
0
0.14663537
-1.9025261e-14
0.16990333
0
0.19445415
0
0.22096162
-1.7129286e-14
0.24892191
0
0.27822986
6.8073507e-18
0.30957036
3.081845e-14
0.34336584
0
0.37944191
0
0.41726937
0
0.45633114
2.672907e-14
0.49620602
-2.5801994e-14
0.53661192
-2.4889434e-14
0.57759993
0
0.61982335
4.6348321e-14
0.66414103
0
0.71064174
0
0.75904491
4.1615853e-14
0.81246655
1.3043429e-14
0.012137374
-7.321506e-18
0.024575633
6.2194628e-18
0.036778368
1.1746912e-14
0.049781897
-5.8413442e-18
0.064427734
1.0951379e-14
0.07984917
0
0.09643056
0
0.11594603
0
0.1374942
0
0.15938425
1.8366338e-14
0.18243983
0
0.20745857
0
0.23390216
1.6527445e-14
0.26157535
0
0.29110424
6.5939354e-18
0.32288828
0
0.35689682
0
0.39288989
-2.7706336e-14
0.4304225
0
0.46897428
0
0.50822982
0
0.54796743
0
0.58833605
-5.9534385e-18
0.63006981
-2.2360831e-14
0.67399148
0
0.72001558
0
0.76787463
4.0147526e-14
0.82094867
0
0.011322972
-1.2592068e-14
0.022962842
-6.2528006e-18
0.034432471
5.8408174e-18
0.046635378
0
0.060334927
2.1895743e-14
0.074749782
-2.1134102e-14
0.090218152
2.0403852e-14
0.10852869
0
0.12887794
0
0.14946107
3.6737152e-14
0.17108867
-1.7730011e-14
0.19467701
0
0.2196577
0
0.24576417
-1.596034e-14
0.27362667
-1.5406953e-14
0.30358674
-1.4865503e-14
0.33555709
0
0.36953209
0
0.40538717
-5.3464514e-14
0.44256493
0
0.48060044
4.9777378e-14
0.51921078
-2.4022066e-14
0.55827166
2.3177047e-14
0.59805154
2.235546e-14
0.63933982
2.1567812e-14
0.68293193
4.1614893e-14
0.72858519
0
0.77601101
3.8730254e-14
0.82868712
0
0.01055869
0
0.021452634
1.2164445e-14
0.032230881
-5.8627431e-18
0.043681803
0
0.056487529
1.0949796e-14
0.069958851
-1.0576199e-14
0.084399434
1.0206505e-14
0.10156742
0
0.12076237
0
0.14011079
-1.8370951e-14
0.16038205
0
0.18259975
7.9765369e-18
0.2061684
-1.653138e-14
0.23075961
1.5952121e-14
0.25704789
1.539918e-14
0.2853459
-6.2713351e-18
0.31543228
0
0.34731208
0
0.38124849
0
0.41695383
0
0.4537586
0
0.49122638
2.4022483e-14
0.52916881
-6.2412406e-18
0.56757422
2.2361163e-14
0.60680535
-4.841081e-18
0.64772142
2.0811793e-14
0.69104719
4.0146612e-14
0.73639952
0
0.78346781
-3.7368744e-14
0.83589707
4.8291924e-05
0.011548786
0
0.020031209
0
0.030167109
0
0.040909453
2.2669875e-14
0.052875128
-1.0943846e-14
0.065461379
0
0.078953224
-2.0411409e-14
0.095040402
9.8538429e-15
0.11312399
-1.9017274e-14
0.13130676
0
0.15029198
0
0.17120565
0
0.19341562
-1.6529897e-14
0.21653673
0
0.24131832
-1.5398056e-14
0.26807745
1.4863861e-14
0.29646435
-5.7756915e-18
0.32636896
5.3651688e-18
0.35821071
0
0.39213381
0
0.42762662
-8.3990802e-18
0.46400226
0
0.50087764
2.3171826e-14
0.53815292
2.2356289e-14
0.57594108
4.8944609e-18
0.6146769
-4.3278366e-18
0.65524915
0
0.69838604
0
0.74354808
0
0.79034807
0
0.84247137
8.1035163e-05
0.011492975
0.00013505403
0.021759768
0
0.028219869
0
0.038307907
0
0.049484347
-5.2846306e-18
0.061241596
4.9659099e-18
0.073858054
0
0.088922077
-5.656787e-18
0.1059368
-9.507854e-15
0.12301837
0
0.14079041
-1.7733323e-14
0.1604676
0
0.18137866
0
0.20307598
-1.594955e-14
0.22640666
0
0.25171276
0
0.27854893
-5.7654661e-18
0.30666687
-1.3852267e-14
0.33643441
1.3368499e-14
0.36832847
0
0.40221794
0
0.437441
0
0.47335593
2.3179402e-14
0.50960709
0
0.54623489
-2.1574268e-14
0.58344006
-2.0808286e-14
0.62169897
2.007364e-14
0.66200517
-1.9364661e-14
0.70502319
-6.5856903e-18
0.75006075
0
0.79664943
3.4767952e-14
0.84858689
0.00010004761
0.011438186
0.0002267906
0.021735876
0.00020586465
0.030471518
0
0.035853234
0
0.046302348
0
0.057284831
-4.9633874e-18
0.069088727
0
0.083191469
-9.8467673e-15
0.099176816
9.5071501e-15
0.11521836
4.2570492e-18
0.13184359
0
0.15035343
0
0.17003388
1.652014e-14
0.190357
0
0.21228659
1.5395956e-14
0.23621281
-1.486867e-14
0.26159852
0
0.28809473
0
0.31599159
1.3363662e-14
0.34584283
4.6800215e-18
0.377795
0
0.41153202
0
0.44644987
2.3173763e-14
0.48184054
0
0.5174729
2.1570475e-14
0.55347303
0
0.59010748
2.0078243e-14
0.62795505
1.9365025e-14
0.66802978
1.8683815e-14
0.71101239
0
0.75600825
0
0.80246061
0
0.85409527
0.00010716732
0.011388516
0.00028021755
0.021706361
0.00034615789
0.030569051
0.00026394129
0.038433662
0
0.043300307
0
0.053578315
0
0.064627882
-5.5277458e-18
0.077823429
5.7085717e-18
0.092824459
1.9017867e-14
0.10788118
-9.1822985e-15
0.12342276
8.8652608e-15
0.14083085
0
0.15935159
0
0.17835808
0
0.19893546
0
0.22154665
0
0.24556187
0
0.27055827
2.769838e-14
0.29678623
-1.3368697e-14
0.32473003
-1.2901526e-14
0.35464904
0
0.3865446
0
0.42011564
0
0.45465402
0
0.48951664
0
0.52452888
0
0.55990525
0
0.59602674
1.9365824e-14
0.63349387
1.8681e-14
0.67342137
0
0.71641182
0
0.76141692
0
0.8077415
0
0.85914692
0.00010419605
0.011344855
0.00030037194
0.02167999
0.00042827643
0.030644775
0.00044422986
0.038661696
0.00031421572
0.04603235
-1.0947606e-14
0.050086856
0
0.060460171
0
0.072798734
9.8399352e-15
0.086858473
4.830991e-18
0.10098244
9.1774785e-15
0.11549871
-4.3812079e-18
0.13187021
-8.5544856e-15
0.14930269
-1.6517984e-14
0.16705658
0
0.18633269
1.5394071e-14
0.207688
0
0.23040364
0
0.25397775
0
0.27866622
0
0.30489822
-4.6036639e-18
0.33289722
1.2446147e-14
0.36281393
4.0189334e-18
0.39464891
0
0.42799363
0
0.46213312
-2.1579737e-14
0.4964392
0
0.53081907
0
0.56560929
-1.937063e-14
0.60124822
0
0.63840179
-1.802345e-14
0.67820268
0
0.72126677
0
0.76633721
0
0.81256485
3.1206923e-14
0.86359134
9.2926192e-05
0.011307306
0.00029224821
0.021657841
0.00045959965
0.030711061
0.00054999235
0.038848985
0.00052863822
0.046376219
0.00035718233
0.05285402
0
0.056545814
0
0.068097725
0
0.081257525
9.5054848e-15
0.09449789
-9.1769607e-15
0.10804694
-8.8597209e-15
0.12344226
0
0.13985558
0
0.15642701
0
0.17445609
0
0.19460971
1.486011e-14
0.21609139
0
0.23831039
-1.3846046e-14
0.26154804
1.3363801e-14
0.28623247
0
0.31250662
-4.2836554e-18
0.34049241
-4.0542121e-18
0.370446
1.1593058e-14
0.40220846
0
0.43524696
0
0.46893555
-2.0820189e-14
0.50266608
0
0.5364162
0
0.57063671
-1.8686284e-14
0.60584576
1.8024233e-14
0.64270444
1.7383524e-14
0.68245327
0
0.72562678
0
0.77078233
0
0.8168619
0
0.86756772
7.5125208e-05
0.011275906
0.00026082256
0.021640304
0.00044766006
0.030768357
0.00059055984
0.039010107
0.00065428136
0.046660347
0.00060068437
0.053370184
0.00039341726
0.059300489
0
0.063684886
0
0.075999415
0
0.088405196
-9.18063e-15
0.10103912
4.4314136e-18
0.1155174
0
0.13098005
-3.385427e-18
0.1464394
-7.9722513e-15
0.16328006
0
0.18228636
0
0.20259352
0
0.22352062
0
0.2453758
1.3368633e-14
0.26862461
0
0.293361
-1.2451697e-14
0.3195879
-1.2015768e-14
0.34766775
0
0.3776779
1.1186567e-14
0.40921541
0
0.44191407
0
0.47512696
0
0.50823796
0
0.54136484
0
0.57505137
0
0.60984341
-1.7384325e-14
0.64647922
-1.6770614e-14
0.68620528
-1.6176908e-14
0.72953861
-3.1209029e-14
0.77478251
0
0.82070779
-2.9039385e-14
0.87098419
5.2554576e-05
0.011251411
0.00021099713
0.021626982
0.00039985462
0.030816679
0.00057544016
0.039145075
0.00070230551
0.046904847
0.00074319854
0.053808706
0.00066203089
0.060077521
0.00042794212
0.066335493
0
0.071047476
9.5095559e-15
0.082683326
0
0.094456836
0
0.10806295
-8.553138e-15
0.12264275
1.6518881e-14
0.13706425
7.97186e-15
0.15277839
3.6059426e-18
0.17069025
0
0.18987834
0
0.20957293
-1.3850724e-14
0.23011132
0
0.25200117
-1.2897961e-14
0.27533876
-4.3065355e-18
0.3000004
0
0.32627788
0
0.354528
-1.1187959e-14
0.38448227
-1.0790706e-14
0.41574412
0
0.44804517
0
0.48071656
-4.1738455e-18
0.51320374
0
0.5457201
0
0.57887595
0
0.61332111
0
0.64977274
-1.6176889e-14
0.68954727
0
0.73304981
0
0.7783562
-2.9035215e-14
0.82407736
2.8007857e-14
0.87399121
2.6940208e-05
0.011234504
0.00014768674
0.02161811
0.00032371852
0.030855647
0.00051413529
0.039253799
0.00068405537
0.04710966
0.00079758305
0.05419318
0.00081956705
0.060755381
0.00072055577
0.067360286
0.00046215482
0.073477083
0
0.077284318
0
0.088286583
0
0.10105766
8.5484997e-15
0.11481235
3.3137924e-18
0.12827155
0
0.14292292
-3.6487893e-18
0.15979032
7.4327122e-15
0.17791333
0
0.19643042
1.3845258e-14
0.21571343
1.3363505e-14
0.23631162
2.5800818e-14
0.25834665
0
0.28159979
1.201337e-14
0.30624786
0
0.33276576
1.1185645e-14
0.36112388
-1.0795632e-14
0.39087532
-1.0411833e-14
0.42179615
0
0.4536546
0
0.48575763
0
0.51760948
0
0.5495069
0
0.58218617
1.6770617e-14
0.61631882
1.6177447e-14
0.65265853
-1.6309831e-18
0.69252302
-1.5049761e-14
0.73620208
0
0.78154527
0
0.82705197
0
0.87651607
0.011225263
0
7.5744063e-05
0.021614722
0.00022670334
0.030885078
0.0004162831
0.039335354
0.00061099221
0.04727494
0.0007767349
0.054521919
0.00088004605
0.061352448
0.00089253151
0.068260772
0.00077796528
0.074728344
0.00049026243
0.079394312
0
0.082479291
0
0.09448187
0
0.10745906
-3.289585e-18
0.12003101
3.1852045e-18
0.13368605
0
0.1495546
0
0.16666233
7.1745747e-15
0.18405764
0
0.2021447
0
0.22151111
1.289808e-14
0.24231521
-1.2453033e-14
0.26427859
4.0754955e-18
0.2874744
1.1593686e-14
0.31233971
-3.356882e-14
0.33905529
0
0.3673492
0
0.3968418
0
0.42739273
0
0.45876296
0
0.49028549
0
0.52148988
0
0.55279488
0
0.58501709
1.6176973e-14
0.6189041
1.5102101e-18
0.6551983
-1.5052702e-14
0.69520271
1.4518153e-14
0.73903509
2.8005584e-14
0.78436927
0
0.82960719
0
0.87868423
0.021617025
0
0.011223267
-2.6930629e-05
0.00011631369
0.030905359
0.00029151381
0.039389665
0.00049452198
0.047400151
0.00069371112
0.054794238
0.0008575294
0.061865577
0.000958733
0.069046663
0.00096329863
0.075815407
0.00082480921
0.080886386
0.00050894776
0.084186982
0
0.088295515
0
0.10055219
0
0.11231156
7.9677672e-15
0.12503201
-7.6948502e-15
0.13995331
0
0.15609109
7.1714491e-15
0.17242066
-6.9223781e-15
0.18936962
0
0.20755888
0
0.22719402
-1.245335e-14
0.24794462
4.1130304e-18
0.26981334
3.955201e-18
0.29317858
0
0.31827171
-1.0799064e-14
0.34505465
-3.3881128e-18
0.37320679
1.0047786e-14
0.40240118
9.6951071e-15
0.43254213
0
0.46342719
0
0.49434159
-1.7393462e-14
0.52489265
0
0.5556147
0
0.58743104
-1.5605505e-14
0.6211215
0
0.6574543
1.451661e-14
0.69762154
1.4003697e-14
0.74158484
0
0.78685939
0
0.83181406
0
0.8804567
0.03091614
0
0.021625594
-7.5774288e-05
0.011228694
-5.2518911e-05
0.0001495318
0.039416953
0.00034619996
0.047484831
0.00056146773
0.055008701
0.00076619826
0.062292877
0.00093446069
0.069714986
0.0010343535
0.076755939
0.0010207227
0.08217396
0.00085604161
0.085942633
0.00052454927
0.089608558
0
0.094029263
0
0.10508447
0
0.11693396
0
0.13094759
3.7015196e-18
0.14616385
0
0.16148354
-2.5437224e-18
0.17735457
2.4387548e-18
0.19441941
0
0.21293888
0
0.23253937
0
0.253169
0
0.27517937
3.882098e-18
0.29876703
-3.72536e-18
0.32399034
-1.0420687e-14
0.35077271
0
0.37874332
-9.6973895e-15
0.40758978
0
0.43731328
0
0.46766927
0
0.49795696
0
0.52785335
0
0.55802212
0
0.58945752
0
0.62303905
1.1830056e-18
0.65948411
-1.2178128e-18
0.69983565
0
0.74387553
0
0.78903565
0
0.83367901
2.4244235e-14
0.88196291
0.039416717
0
0.030920217
-0.00011636976
0.021640591
-0.00014780764
0.011242137
-7.5052365e-05
0.00017751873
0.047529358
0.00039308646
0.055164018
0.00062042084
0.062632886
0.00083512026
0.070264992
0.0010077699
0.077549375
0.0010954086
0.083287434
0.0010591372
0.087464503
0.00088251728
0.091689497
0.00054022465
0.094911739
0
0.098272568
0
0.10936546
0
0.12250623
-7.4321015e-15
0.13684286
2.9844963e-18
0.1512087
-6.9246605e-15
0.16606268
0
0.18205727
2.4805612e-18
0.19951412
0
0.21801756
0
0.23746955
-4.0266201e-18
0.25823192
0
0.28045723
0
0.30417717
0
0.32950876
3.382314e-18
0.35624317
0
0.38393762
9.3533756e-15
0.41243367
0
0.44171153
0
0.47151982
0
0.50116292
0
0.5304155
0
0.56004054
-1.5052873e-14
0.59116351
-1.4518862e-14
0.62471465
0
0.66133121
-1.1302347e-18
0.70186254
-1.302746e-14
0.74593446
-2.5134449e-14
0.79093185
0
0.83526843
0
0.88315309
0.04753299
0
0.039395041
-0.0001494572
0.030917408
-0.00022692175
0.021662272
-0.00021127117
0.011263718
-9.2815439e-05
0.00020157848
0.055259019
0.00043451499
0.0628832
0.00067633182
0.070696587
0.00090024128
0.078195514
0.0010667136
0.084227421
0.0011364765
0.088782776
0.0010921175
0.093511987
0.00090915869
0.097339881
0.00054955951
0.098643442
0
0.10225472
0
0.11459657
-7.431986e-15
0.12809065
-2.9833856e-18
0.14155928
-6.9220213e-15
0.15545705
0
0.1704385
0
0.18688222
0
0.20433994
0
0.22266665
0
0.242253
0
0.26323499
0
0.285567
0
0.30940577
0
0.33482338
-9.6989537e-15
0.36142315
0
0.3888267
-9.0263484e-15
0.41694718
2.1089992e-18
0.44575568
0
0.47498499
0
0.50399529
-1.9321601e-18
0.53260489
0
0.56173359
0
0.5926037
-1.4004044e-14
0.62619671
1.3506999e-14
0.66303422
-1.0562016e-18
0.70373848
-1.2566664e-14
0.7477653
0
0.79256316
0
0.83657299
2.2555959e-14
0.88411694
0.055291449
0
0.047505547
-0.00017731825
0.039351716
-0.00029121953
0.030904442
-0.00032419071
0.021691373
-0.0002613098
0.011293273
-0.00010406163
0.00022289434
0.063040967
0.00047369151
0.071007667
0.0007287529
0.078693487
0.0009525099
0.084993969
0.0011065369
0.089897916
0.0011719962
0.095092939
0.0011255002
0.099467145
0.00092506748
0.10137212
0.00055262305
0.10208809
0
0.10715729
0
0.11987007
0
0.13250204
-2.4844475e-18
0.14550163
6.6835527e-15
0.15952589
6.4513586e-15
0.17500683
6.227046e-15
0.19146854
-6.0080703e-15
0.20871653
0
0.22718406
0
0.24701143
-3.8545214e-18
0.26807332
0
0.29048898
-1.0055981e-14
0.31451251
-9.7046614e-15
0.33995041
0
0.36632557
0
0.39341087
8.7055979e-15
0.42113994
-8.3975567e-15
0.44944835
0
0.47811561
-1.5617299e-14
0.50647717
1.5058003e-14
0.53446992
0
0.56314297
0
0.59382905
-1.3507377e-14
0.62752359
1.3028037e-14
0.66462265
0
0.70545139
0
0.74939115
2.338222e-14
0.79395222
0
0.83764013
0
0.88483355
0.063102938
0
0.055276029
-0.00020141036
0.047446743
-0.00034541383
0.03927977
-0.00041563343
0.030882059
-0.00040065595
0.021727276
-0.00029299458
0.011330559
-0.00010703547
0.00024299075
0.071195806
0.00051020067
0.079044204
0.00077073741
0.085586024
0.00098792365
0.090810343
0.0011412713
0.09643153
0.0012083009
0.10132449
0.0011455744
0.10377466
0.00093046551
0.10513797
0.00055643835
0.10642324
-7.4317872e-15
0.11210872
-7.1738384e-15
0.12400372
0
0.13616504
6.6810402e-15
0.14928952
2.5727029e-18
0.1638495
0
0.17936338
6.0081831e-15
0.19557994
5.8030528e-15
0.21297724
0
0.23171402
0
0.25160777
-1.0427748e-14
0.27271373
0
0.29532356
0
0.31948019
-3.2309314e-18
0.34481552
0
0.37093707
8.7082638e-15
0.39770248
-2.5196854e-14
0.42501746
0
0.45283415
0
0.48091423
0
0.5086476
1.4524062e-14
0.53604665
0
0.56431916
0
0.59487525
1.3027548e-14
0.62873311
8.428824e-19
0.66609925
1.2119732e-14
0.70703178
0
0.75080723
2.2553256e-14
0.79511371
0
0.8384853
0
0.88539559
0.071259982
0
0.063088409
-0.00022278157
0.055212861
-0.00039242893
0.047346468
-0.00049281918
0.039179289
-0.00051304197
0.030849892
-0.00044881499
0.021769281
-0.00030137226
0.011375418
-9.9940511e-05
0.00026162722
0.079248601
0.00053944168
0.086005107
0.00079936179
0.09152071
0.0010190808
0.097526238
0.0011770361
0.10290704
0.0012302615
0.1058918
0.0011525794
0.10783777
0.00093726653
0.10981053
0.00056179814
0.11076153
7.1707252e-15
0.11597712
0
0.12741425
0
0.13969266
0
0.15337951
6.2271195e-15
0.16798631
-1.2018682e-14
0.18321746
5.799106e-15
0.19958876
5.599113e-15
0.21728953
0
0.23608624
-1.0425457e-14
0.25598063
1.0059756e-14
0.27725006
-9.7093201e-15
0.30005136
3.3563452e-18
0.32424165
-9.0347405e-15
0.34941422
0
0.37526884
-2.3586463e-18
0.40169784
0
0.42860002
7.8136926e-15
0.45590961
0
0.48341885
-1.4527463e-14
0.51052948
0
0.53737563
-1.3509329e-14
0.56529214
0
0.59578542
0
0.62983226
-1.2119482e-14
0.66748093
1.1689939e-14
0.70843474
0
0.75203423
2.1753657e-14
0.79607152
0
0.83915289
-2.0241464e-14
0.88575853
0.079307803
0
0.071226478
-0.00024281717
0.062996605
-0.00043406985
0.05508726
-0.00056005262
0.047205255
-0.00060815248
0.039051505
-0.00057389022
0.030808281
-0.00046106767
0.021817711
-0.00028139701
0.011427906
-8.0976161e-05
0.00027655423
0.086253601
0.00055945222
0.092029054
0.00082464716
0.098375578
0.0010512268
0.10420944
0.0011988548
0.10771225
0.0012382463
0.11021966
0.0011612004
0.11281429
0.00094609033
0.11446736
0.00056330885
0.11399975
0
0.11915502
0
0.13070007
2.6248533e-18
0.14355576
6.2246387e-15
0.1572991
2.134511e-18
0.17159319
0
0.1869815
-1.1198861e-14
0.20369051
-5.4021178e-15
0.22144823
0
0.24021065
0
0.26024049
-3.5432931e-18
0.28171287
9.3656767e-15
0.3046356
0
0.32878697
0
0.35376374
8.4038969e-15
0.37932579
-2.1970845e-18
0.40541034
7.8147374e-15
0.43188605
7.5367722e-15
0.45869319
0
0.48562995
0
0.51216092
-1.3511623e-14
0.53848493
0
0.56610847
0
0.596573
0
0.63083763
1.1689589e-14
0.66871134
1.1275367e-14
0.70968329
0
0.75306064
2.0982379e-14
0.79683836
2.0240453e-14
0.83963426
0
0.88599187
0.086331646
0
0.079257145
-0.00026133493
0.071095045
-0.00047300642
0.062807505
-0.000619454
0.054900101
-0.00069134667
0.047023895
-0.00068006816
0.038896675
-0.00058862988
0.030754098
-0.00042986196
0.021874121
-0.00022799331
0.011488227
-4.8287067e-05
0.00028683489
0.092338373
0.00057716823
0.098981272
0.00085080429
0.10522675
0.0010712387
0.10922824
0.0012071436
0.11227205
0.001247713
0.11545154
0.0011720789
0.1177371
0.00094845125
0.11798665
0.00055977493
0.11654953
0
0.12222741
0
0.13433868
-6.2271483e-15
0.14726391
0
0.16067017
-5.7993961e-15
0.1751198
0
0.19087971
0
0.20764603
0
0.22533553
0
0.24421476
0
0.26444192
0
0.28605919
0
0.30905306
8.7197929e-15
0.33310995
-2.7192522e-18
0.35783615
0
0.3831074
-2.0309422e-18
0.40883398
0
0.43487703
0
0.46118748
0
0.48759267
0
0.51355793
-1.3032784e-14
0.53941305
-1.2567306e-14
0.56679137
0
0.59726233
0
0.63170143
0
0.6698095
-1.0876126e-14
0.71074401
0
0.75391406
0
0.79742691
0
0.83995561
0
0.88606986
0.092449087
0
0.086282644
-0.00027622156
0.079097736
-0.00050906476
0.070840353
-0.00067485645
0.062523783
-0.00076455671
0.05465329
-0.0007734156
0.046802674
-0.00069735642
0.038713305
-0.00054778384
0.030690572
-0.00034769659
0.021938208
-0.00013594664
0.0115527
0
0.00029593428
0.099346956
0.00059556101
0.1059583
0.0008673453
0.11043094
0.0010790714
0.11398648
0.0012164676
0.11771285
0.0012591038
0.12060108
0.0011746243
0.12149497
0.00094235628
0.12081798
0.00055415984
0.11900989
6.4483692e-15
0.12564825
0
0.13784084
0
0.15041451
-2.0935473e-18
0.1639741
2.2047279e-18
0.17882052
-5.4028636e-15
0.19463873
5.2144398e-15
0.21130673
0
0.22910173
-9.7151339e-15
0.24817401
-9.3736521e-15
0.26853133
-3.3199935e-18
0.29025048
0
0.31326928
0
0.33717884
8.1102952e-15
0.36165239
0
0.38661329
7.5408345e-15
0.41196545
0
0.43758264
0
0.46342573
0
0.48930678
0
0.51475945
0
0.54019281
0
0.56737026
1.1689905e-14
0.59782427
1.1274768e-14
0.63244607
-1.0874953e-14
0.67073478
-5.5364167e-19
0.71165622
0
0.75458142
0
0.79784627
0
0.84012353
-5.8048521e-20
0.8861044
0.099475795
0
0.092410261
-0.00028655312
0.086108058
-0.00053815864
0.07879728
-0.00072635326
0.070464464
-0.00083266951
0.062145955
-0.00085515053
0.054349045
-0.00079346056
0.046544496
-0.00064888451
0.038500871
-0.00044214214
0.030618577
-0.00020692757
0.022000766
0
0.010573691
0
0.00030536421
0.10640445
0.00060737278
0.1113136
0.00087405826
0.11535507
0.0010874335
0.11959097
0.0012273201
0.12305064
0.001261596
0.12457141
0.0011669291
0.12457699
0.00093295504
0.12359892
0.00054868239
0.1218037
0
0.1289373
0
0.14078908
0
0.15350629
5.5979109e-15
0.16748296
5.4052956e-15
0.18239037
5.2167993e-15
0.19808096
1.0067324e-14
0.21484644
4.8583781e-15
0.23284144
0
0.25202097
0
0.27246115
-3.2316321e-18
0.29429815
0
0.3173012
0
0.34100778
0
0.36520239
-2.0361553e-18
0.38983583
-7.2752556e-15
0.41480797
-7.0140917e-15
0.44002034
6.7623364e-15
0.46541394
0
0.49081196
0
0.51578593
0
0.54084889
1.1690686e-14
0.56783574
1.1275231e-14
0.59828554
1.0874681e-14
0.63302928
1.0489595e-14
0.67152115
-4.3784631e-19
0.71237441
0
0.75510063
0
0.79810922
0
0.8402079
0.0081169693
0.87792073
0.10656758
0
0.099425529
-0.00029565968
0.092222976
-0.000558367
0.085768375
-0.00076805397
0.078357198
-0.000896357
0.069965892
-0.00093091679
0.061675712
-0.00087700272
0.053988039
-0.00073872872
0.046246919
-0.00052358426
0.038261507
-0.00026250019
0.030524788
1.215978e-14
0.020287382
0
0.011355703
0
0.00031151301
0.11187205
0.00061231784
0.11636941
0.00088088224
0.12107953
0.0010968679
0.12507753
0.0012294809
0.12720658
0.0012532634
0.12787705
0.0011554241
0.1276526
0.00092412262
0.12672634
0.00054347818
0.12444931
0
0.13169834
0
0.14367846
0
0.1568249
-5.4055787e-15
0.17086481
1.9157238e-18
0.18562222
0
0.20140464
-1.8381885e-18
0.21838111
1.7638672e-18
0.23646937
0
0.25569815
0
0.27626976
-3.1126118e-18
0.29819654
0
0.32110226
0
0.34457408
-7.5493019e-15
0.36847905
0
0.39277058
-7.0170333e-15
0.41737448
6.7649152e-15
0.44220483
0
0.46717354
0
0.49211374
0
0.51666817
0
0.54138799
0
0.56821499
-1.0874924e-14
0.59861532
1.0488805e-14
0.63347812
0
0.67210902
0
0.71296272
-2.2514536e-19
0.75545656
0
0.79823011
0.015985743
0.83243849
0.0073915171
0.87037314
0.11210263
0
0.10651588
-0.00030506208
0.099196552
-0.00057610372
0.091837886
-0.00079706997
0.085266598
-0.00094822312
0.077778438
-0.0010023974
0.069347237
-0.00095424462
0.0611107
-0.0008160628
0.05357091
-0.00059651516
0.045911658
-0.00031083039
0.037982155
0
0.028272139
0
0.021759363
1.2593284e-14
0.012195856
-1.3044169e-14
0.00031416186
0.11702279
0.00061709534
0.12217287
0.00088826524
0.12667314
0.0010986186
0.12939117
0.0012213319
0.1307057
0.0012410183
0.13121165
0.0011448273
0.13108256
0.00091535676
0.12968004
0.00053643324
0.126582
-5.8016798e-15
0.1344063
0
0.14680517
0
0.16002261
-5.2175547e-15
0.17389371
1.8438675e-18
0.18873728
-9.7176735e-15
0.20474598
-1.8754847e-14
0.22180912
0
0.23990756
0
0.25923652
0
0.27995258
8.1197503e-15
0.30191173
0
0.32466047
0
0.34787052
-7.2818414e-15
0.37147323
-7.0185094e-15
0.39542768
0
0.41967811
-6.5244196e-15
0.44414508
8.4608709e-19
0.46871839
0
0.49325218
-1.1693925e-14
0.51740909
0
0.54183072
0
0.56850083
1.0488715e-14
0.59884068
0
0.63374319
-9.7583106e-15
0.67258181
9.4127253e-15
0.71339225
-9.0812953e-15
0.75562343
0.023539613
0.79079529
0.014556722
0.82526106
0.006615607
0.8634567
0.11730714
0
0.11207986
-0.00031130076
0.10625137
-0.00059439368
0.098731988
-0.00082236625
0.091257061
-0.0009842514
0.084601324
-0.0010609296
0.077062525
-0.0010278644
0.068608288
-0.00088739998
0.0604577
-0.00065867349
0.053099279
-0.00035439931
0.045520827
0
0.035383787
0
0.030219766
0
0.023322288
7.5258981e-18
0.013101062
-8.307317e-18
0.00031661959
0.1228662
0.00062209859
0.12783326
0.00088952003
0.1311141
0.0010912706
0.13305109
0.0012094544
0.13426059
0.0012297835
0.134904
0.0011340555
0.13430797
0.00090364382
0.13210792
0.00052816874
0.12866868
-5.5981194e-15
0.13734369
0
0.14982287
0
0.16286107
-1.8507894e-18
0.1768136
0
0.19189424