/*--------------------------------*- C++ -*----------------------------------*\
| =========                 |                                                 |
| \\      /  F ield         | OpenFOAM: The Open Source CFD Toolbox           |
|  \\    /   O peration     | Version:  v2012                                 |
|   \\  /    A nd           | Website:  www.openfoam.com                      |
|    \\/     M anipulation  |                                                 |
\*---------------------------------------------------------------------------*/
FoamFile
{
    version     2.0;
    format      ascii;
    class       volScalarField;
    location    "76.2183595797693272";
    object      p;
}
// * * * * * * * * * * * * * * * * * * * * * * * * * * * * * * * * * * * * * //

dimensions      [0 2 -2 0 0 0 0];


internalField   nonuniform List<scalar> 
9200
(
-0.00093145091
-0.00091487127
-0.0041242918
-0.00083027187
-0.0043438518
-0.0062114378
-0.00069262785
-0.004616904
-0.0065355179
-0.0082861041
-0.00044863667
-0.004999869
-0.006932246
-0.0088675443
-0.0099931779
-8.5750128e-05
-0.0053387901
-0.0074677301
-0.0094818994
-0.010850147
-0.01131771
0.00045739669
-0.0056293224
-0.0078700471
-0.010380785
-0.011738697
-0.012488555
-0.012167536
0.0011993761
-0.0057727945
-0.0081370057
-0.011134681
-0.013083387
-0.013751988
-0.013675317
-0.012457688
0.0022090192
-0.0057482883
-0.0081069038
-0.011761215
-0.01430352
-0.015681009
-0.015398754
-0.014320633
-0.012089439
0.0035350696
-0.0054819572
-0.0077531597
-0.012023845
-0.015413917
-0.017570303
-0.018035818
-0.016573531
-0.014324834
-0.011021532
0.0052542957
-0.0049460986
-0.0069908644
-0.011890941
-0.016112836
-0.019417042
-0.020787017
-0.020028337
-0.017149032
-0.013578163
-0.0092522185
0.0074306793
-0.0040847991
-0.0058287174
-0.011277431
-0.016325578
-0.020857975
-0.023628421
-0.023827046
-0.021491167
-0.01699578
-0.011983386
-0.0066540784
0.010110409
-0.0028391245
-0.004266091
-0.01019958
-0.015923657
-0.021749892
-0.026144755
-0.027933551
-0.026484008
-0.022243135
-0.015991663
-0.009564361
-0.0031141382
0.013242171
-0.0010947113
-0.002347407
-0.0086934173
-0.014887121
-0.021898664
-0.028114972
-0.031903888
-0.032095235
-0.02851106
-0.022106959
-0.014047753
-0.0063371809
0.0011094329
0.016485509
0.0013384058
-0.00013941254
-0.0068519048
-0.01323355
-0.021204285
-0.029263035
-0.035451123
-0.037890322
-0.035799792
-0.02963821
-0.02091789
-0.011093452
-0.0022292423
0.0059658973
0.019129383
0.0047950688
0.0022348295
-0.004800532
-0.01104933
-0.019614755
-0.029378481
-0.038224033
-0.043546992
-0.043730999
-0.038666084
-0.029600797
-0.018536136
-0.0071315839
0.0026635983
0.011451321
0.020946087
0.0099315352
0.0046048464
-0.0026849005
-0.0084718302
-0.017151494
-0.028293995
-0.039899873
-0.048669414
-0.051997674
-0.048921892
-0.040290597
-0.028152595
-0.014909857
-0.0022091947
0.0082824713
0.017419353
0.021941719
0.016650177
0.0066119105
-0.00064088361
-0.0056654002
-0.01390673
-0.025902851
-0.040187226
-0.052844293
-0.060213149
-0.060179802
-0.052879695
-0.040287527
-0.025127899
-0.0100599
0.0035607469
0.014489158
0.023762111
0.022277979
0.024923372
0.0080281573
0.0011474928
-0.0028254801
-0.010045131
-0.022165682
-0.038839454
-0.055671085
-0.067922836
-0.072144432
-0.067298311
-0.055000035
-0.038311263
-0.020507914
-0.004064188
0.01006222
0.021140246
0.03035313
0.021937175
0.033567815
0.0095588355
0.0024844008
-0.00010891569
-0.005832231
-0.017112903
-0.035681222
-0.056770489
-0.074655919
-0.084403601
-0.083446044
-0.072466366
-0.054697359
-0.034173189
-0.01432411
0.0029452465
0.017141132
0.028095844
0.037075076
0.021536596
0.042041749
0.0097267158
0.001245867
0.0020754559
-0.0016048206
-0.010836482
-0.030619197
-0.055835595
-0.079919244
-0.096496606
-0.10107754
-0.092885085
-0.074773245
-0.051548938
-0.02786788
-0.0067222813
0.010762278
0.024622667
0.035217409
0.043823628
0.020553423
0.050319887
0.0077528086
-0.0015518534
0.0024528097
0.002320511
-0.0034794496
-0.023650095
-0.052657832
-0.083269954
-0.10787848
-0.11988071
-0.11633272
-0.099085782
-0.07341499
-0.045443454
-0.019560327
0.0020470416
0.019153151
0.032331658
0.042375241
0.050507228
0.019038072
0.057974396
0.0026897684
-0.0059851396
0.0013586191
0.0066527595
0.0047673759
-0.014881967
-0.047166066
-0.084353343
-0.11799961
-0.13940211
-0.14282662
-0.12823165
-0.10063834
-0.067990091
-0.036408297
-0.0095363295
0.011667515
0.027878497
0.040104667
0.049458819
0.05704928
0.017253443
0.064105048
-0.0060071417
-0.012622107
-0.001004853
0.010087739
0.01371758
-0.0044994126
-0.039451878
-0.082972737
-0.12633706
-0.15911601
-0.17225771
-0.16277478
-0.13456106
-0.096545154
-0.058267535
-0.024833047
0.0017743276
0.021801961
0.036711678
0.047798736
0.056377133
0.06339072
0.015323348
0.067228732
-0.017791283
-0.02219589
-0.0048816988
0.011800456
0.022902444
0.0071506942
-0.029775868
-0.079123763
-0.13248265
-0.17841881
-0.20437915
-0.20327311
-0.17651308
-0.13344769
-0.086718007
-0.044835521
-0.011304188
0.013883933
0.032124192
0.045453186
0.055296562
0.063060367
0.069487567
0.013102015
0.068182904
-0.03118153
-0.035261433
-0.010624401
0.011077501
0.031868417
0.019636826
-0.018603202
-0.073051958
-0.13618363
-0.19671432
-0.23876931
-0.25021911
-0.22794344
-0.1806707
-0.12408998
-0.071225073
-0.028426854
0.0034723773
0.026312068
0.042344726
0.053939746
0.062507984
0.069458096
0.075311156
0.010704668
0.067516974
-0.045381882
-0.050934838
-0.019025155
0.0071056392
0.039986564
0.032374202
-0.0065489852
-0.065264173
-0.13748099
-0.21347496
-0.27489868
-0.3039018
-0.29086147
-0.24050223
-0.17338306
-0.10619351
-0.051126356
-0.010062313
0.018780756
0.038629048
0.052226768
0.062047165
0.069369364
0.075538005
0.080844484
0.0087355564
0.065591754
-0.060162385
-0.071274685
-0.031804332
-0.00041722268
0.046735887
0.044735484
0.0056544228
-0.056448956
-0.136645
-0.22841355
-0.31221791
-0.36447127
-0.36725793
-0.3173741
-0.23613274
-0.15272183
-0.08134899
-0.027965455
0.0091758512
0.033975418
0.050484451
0.061592391
0.069689756
0.075840678
0.081282633
0.08608152
0.0072543749
0.06124722
-0.076218011
-0.094817139
-0.049499561
-0.012598873
0.051255486
0.056138545
0.017206293
-0.047428912
-0.13416249
-0.24133802
-0.35028498
-0.43206072
-0.45932094
-0.41592259
-0.32111535
-0.2147338
-0.1219504
-0.051782835
-0.0033980226
0.028308189
0.048532254
0.061618404
0.070321264
0.076815991
0.081902292
0.086687118
0.091023642
0.0061816188
0.053070428
-0.09201225
-0.11874721
-0.070083932
-0.028129591
0.052677179
0.065417451
0.027238479
-0.03912895
-0.13072397
-0.25216845
-0.38841951
-0.50661372
-0.5697978
-0.54231832
-0.43433459
-0.29903939
-0.17697993
-0.083887357
-0.019994741
0.021083228
0.046546691
0.062068551
0.071859639
0.078344668
0.083403434
0.087550718
0.091755915
0.095678923
0.004920424
0.042072116
-0.10457317
-0.14254087
-0.092796866
-0.046329447
0.050619337
0.07168393
0.034785363
-0.032495923
-0.12720578
-0.26085706
-0.42490275
-0.58545735
-0.69953037
-0.70437124
-0.58686657
-0.41428872
-0.25234031
-0.12764408
-0.042324285
0.011736519
0.044293805
0.063327606
0.074339304
0.081115313
0.08563658
0.089452576
0.092795033
0.09650077
0.10005918
0.003237561
0.029465767
-0.11491649
-0.16537113
-0.11709494
-0.064996269
0.044829593
0.074139309
0.038897294
-0.028380115
-0.12450987
-0.26754839
-0.45825004
-0.66269001
-0.83993104
-0.90370007
-0.79062076
-0.5755616
-0.35682867
-0.1876295
-0.072786347
-0.00078560403
0.041633132
0.065408083
0.078303066
0.085219835
0.089356725
0.092204672
0.094981195
0.097653144
0.10093809
0.10417955
0.0013224376
0.015858757
-0.12322529
-0.18631881
-0.14207776
-0.081653024
0.035484584
0.072263516
0.038945402
-0.027515103
-0.12342403
-0.27236233
-0.48740071
-0.73543852
-0.98388533
-1.1283606
-1.0458163
-0.79474112
-0.50785554
-0.27180916
-0.11448558
-0.017951251
0.03805924
0.068496101
0.083939262
0.09130944
0.094681888
0.096604575
0.098080867
0.10001904
0.10214903
0.10508752
0.1080563
-0.00080088576
0.0016687377
-0.12976764
-0.20400406
-0.1667368
-0.096026483
0.023056794
0.065483694
0.034694011
-0.030448545
-0.12444188
-0.27563266
-0.51053047
-0.79915334
-1.1294711
-1.3837198
-1.3535673
-1.0640203
-0.7125033
-0.3959345
-0.17378746
-0.041641286
0.032847861
0.072492729
0.091660593
0.099681967
0.1023272
0.10276936
0.10291419
0.10331374
0.10460347
0.10631006
0.10897008
0.11170687
-0.0032873399
-0.012940882
-0.13273486
-0.22001427
-0.18996446
-0.10775028
0.0086165714
0.053520739
0.025837267
-0.037401503
-0.12779859
-0.27759763
-0.52628485
-0.85124207
-1.2597001
-1.6646353
-1.7361857
-1.3949404
-0.95780729
-0.56062266
-0.26209752
-0.076368837
0.024992625
0.077192561
0.1016356
0.11088711
0.11264328
0.11144086
0.10957508
0.10836362
0.10796147
0.1087759
0.11016526
0.11260745
0.11514822
-0.00597981
-0.027887104
-0.13179102
-0.23083695
-0.21230913
-0.11882428
-0.0072377971
0.036857734
0.012442945
-0.04844852
-0.13340186
-0.27851709
-0.5338455
-0.89180103
-1.3769798
-1.9556575
-2.1494613
-1.8122795
-1.2681129
-0.75475551
-0.37620986
-0.1293996
0.011611143
0.082147729
0.11397818
0.12524373
0.12624436
0.12297738
0.11880276
0.11522232
0.11304318
0.11208706
0.11257909
0.11374365
0.11602078
0.11839721
-0.0081241044
-0.042439277
-0.12607762
-0.23608761
-0.22892867
-0.13186517
-0.029153617
0.017054065
-0.00596549
-0.063333899
-0.1410383
-0.27849967
-0.53258687
-0.91763248
-1.4754501
-2.2108186
-2.5871658
-2.3584789
-1.6895876
-1.0130565
-0.50798801
-0.19764182
-0.011728279
0.085668919
0.12855323
0.14303366
0.14350966
0.13800287
0.13092952
0.12460459
0.11984936
0.11704826
0.11575405
0.11605508
0.11707341
0.11923047
0.12146952
-0.0095767817
-0.054776813
-0.11590203
-0.23503746
-0.23962639
-0.14515627
-0.053354516
-0.011248094
-0.026020455
-0.082246804
-0.15026192
-0.27752996
-0.52329991
-0.92632216
-1.5387739
-2.3902229
-2.9838892
-2.9216762
-2.2368482
-1.3868257
-0.68329011
-0.2759764
-0.04352459
0.085025156
0.14442486
0.16426925
0.16478276
0.15689371
0.14655067
0.13679316
0.12905499
0.12359889
0.12047333
0.11902401
0.11924386
0.12018103
0.12225549
0.12438004
-0.01040205
-0.063882766
-0.10343587
-0.22728786
-0.24365235
-0.15656049
-0.079547877
-0.041046129
-0.080426829
-0.10371381
-0.16113746
-0.27533449
-0.50679996
-0.91671686
-1.5596637
-2.4893061
-3.2924862
-3.4058567
-2.7739554
-1.8015354
-0.92787598
-0.3784552
-0.081065923
0.080175452
0.159831
0.18841183
0.19011994
0.17998611
0.16599862
0.15232965
0.14087796
0.13236423
0.12660963
0.12340831
0.12195442
0.12218246
0.12309099
0.12511344
0.12714221
-0.010560037
-0.070011136
-0.089573985
-0.21300621
-0.24071832
-0.16479397
-0.1048985
-0.07642589
-0.10977548
-0.12991381
-0.1719721
-0.27267344
-0.48324488
-0.88827922
-1.5436601
-2.5048114
-3.4741431
-3.797844
-3.2312227
-2.2053363
-1.2134147
-0.52054721
-0.13102387
0.071626169
0.17376075
0.21424132
0.2191485
0.20731957
0.18956043
0.17147853
0.15579161
0.14348858
0.13473299
0.1290115
0.12593597
0.12459778
0.12490449
0.12582545
0.12782014
0.12976848
-0.073637073
-0.010120486
-0.074290189
-0.19303787
-0.23100377
-0.16866294
-0.12887955
-0.11517975
-0.14853769
-0.15649096
-0.1839878
-0.26832921
-0.45873175
-0.84875579
-1.4930946
-2.44311
-3.5235131
-4.0011512
-3.5660826
-2.5500536
-1.49676
-0.69492365
-0.20308027
0.055935032
0.185025
0.24036282
0.25091823
0.23856279
0.21722641
0.19445687
0.17398069
0.15736986
0.14491023
0.13634616
0.13092236
0.12813073
0.12700093
0.12743992
0.12840423
0.13038991
0.13226992
-0.057983975
-0.075137292
-0.0092805419
-0.16852699
-0.21523038
-0.16676977
-0.15112427
-0.15568545
-0.19443272
-0.19008678
-0.19239638
-0.26216947
-0.43454742
-0.79657063
-1.4086459
-2.3226976
-3.4511511
-4.0472245
-3.7529586
-2.8011661
-1.7451394
-0.87827198
-0.30104676
0.02705939
0.19078422
0.26470757
0.28398978
0.27287092
0.24865162
0.22119132
0.19558492
0.17410986
0.15746208
0.14540119
0.13736895
0.13244669
0.1300581
0.12920505
0.12981499
0.13084471
0.13283537
0.13465659
-0.14134373
-0.041232656
-0.074661731
-0.0085455685
-0.19436751
-0.15779749
-0.16949499
-0.19533972
-0.24423419
-0.22961366
-0.20613308
-0.24843162
-0.40225767
-0.73434703
-1.3006416
-2.1641517
-3.2799173
-3.9523773
-3.7937009
-2.948592
-1.9464844
-1.0511689
-0.41899893
-0.021969341
0.1869344
0.28404555
0.31610997
0.30886375
0.2830211
0.25130365
0.2204657
0.19377198
0.17240927
0.15642184
0.14518873
0.13794577
0.13367516
0.13177473
0.13124547
0.13205223
0.13316209
0.13516787
0.13693731
-0.16965924
-0.11308656
-0.024776343
-0.071785916
-0.0081812672
-0.14298426
-0.17989915
-0.23276785
-0.29641609
-0.27227441
-0.22573358
-0.23830877
-0.35936625
-0.65185821
-1.1846827
-1.9818803
-3.0401489
-3.7443173
-3.7076804
-2.9972721
-2.0900937
-1.2056279
-0.5485417
-0.094992727
0.16787425
0.29475003
0.3438642
0.34443854
0.319019
0.28398983
0.24821061
0.21615808
0.1897443
0.16935265
0.15455535
0.14446864
0.13820021
0.13468505
0.1333285
0.13315197
0.13417091
0.13536976
0.13739745
0.13912003
-0.12549776
-0.14274504
-0.085406673
-0.009867198
-0.066442393
-0.0079150704
-0.18310649
-0.26750937
-0.34814113
-0.31698922
-0.24937132
-0.23196008
-0.32173547
-0.55986029
-1.0285901
-1.7946702
-2.7603626
-3.4563837
-3.5187612
-2.9507212
-2.1496634
-1.3416894
-0.6842659
-0.19086417
0.1268618
0.29291991
0.36337508
0.37650892
0.35473591
0.31800275
0.27802832
0.24082967
0.20921897
0.18412295
0.1653435
0.15212243
0.14340614
0.13823609
0.13554065
0.13475893
0.13494944
0.13618787
0.13747962
0.13953285
0.14121173
-0.18044552
-0.10662283
-0.11543271
-0.05892881
0.0026507679
-0.058883424
-0.0075539061
-0.29737849
-0.39579328
-0.3624053
-0.27397598
-0.22654653
-0.28920672
-0.47676058
-0.86860356
-1.5454338
-2.469076
-3.1343374
-3.2638889
-2.827442
-2.1361494
-1.4525058
-0.82193427
-0.30688523
0.05995629
0.2732186
0.37124914
0.40118012
0.38758489
0.35159362
0.30875232
0.26701724
0.2303793
0.20044422
0.1774275
0.16071888
0.14933929
0.14213807
0.13813847
0.13629409
0.13609841
0.13665935
0.13811798
0.13950152
0.14158093
0.14321865
-0.31947054
-0.17237586
-0.086183654
-0.088167532
-0.034493255
0.012012974
-0.049653189
-0.0072141206
-0.43530947
-0.4047411
-0.29671736
-0.2212009
-0.25892318
-0.40213636
-0.72047488
-1.3016903
-2.1235208
-2.8053861
-2.9913842
-2.6654514
-2.0935006
-1.5372139
-0.95819893
-0.44008509
-0.03350587
0.2301109
0.36405007
0.41477066
0.41422022
0.38255374
0.33879999
0.29364406
0.25248895
0.21785723
0.19048734
0.17008489
0.15575515
0.14638239
0.14077494
0.13797524
0.13698728
0.13737441
0.13830035
0.13997282
0.14144233
0.14354721
0.14514625
-0.46338114
-0.33241395
-0.16070843
-0.06575166
-0.061715145
-0.013291992
0.018107288
-0.039994714
-0.0069059736
-0.43841627
-0.31319719
-0.21726021
-0.23028872
-0.33486259
-0.58251609
-1.0689812
-1.7942612
-2.4433659
-2.7117462
-2.4988942
-2.0440559
-1.6016745
-1.0916095
-0.5882823
-0.15269072
0.16008449
0.33730403
0.41436497
0.43093382
0.40820514
0.36622596
0.31930299
0.27456772
0.23566814
0.20406701
0.17987639
0.16243997
0.1506747
0.1433923
0.13940355
0.13779994
0.13765509
0.13861043
0.13988626
0.14175862
0.14330694
0.1454381
0.14699939
-0.45981407
-0.47865945
-0.33612269
-0.1469091
-0.046889949
-0.036926532
0.0043488605
0.021972268
-0.030861926
-0.0062565226
-0.32420367
-0.21668929
-0.20368336
-0.27289393
-0.45840331
-0.84976272
-1.467776
-2.0981101
-2.4040223
-2.328176
-1.9927497
-1.6502671
-1.2203142
-0.75049036
-0.29720715
0.061335947
0.28644934
0.39694127
0.43446952
0.42541545
0.38880293
0.34229347
0.29537762
0.25299627
0.21752049
0.1896464
0.16903124
0.15476622
0.14565223
0.14047786
0.13809124
0.13765617
0.13832667
0.13982285
0.14142267
0.14347866
0.14510305
0.14726297
0.14878233
-0.33181474
-0.46893234
-0.48038498
-0.33212678
-0.13209688
-0.030256289
-0.015265679
0.018510404
0.024595028
-0.022220438
-0.0046216158
-0.21565789
-0.17868645
-0.21506777
-0.34847844
-0.65261857
-1.1650768
-1.7415833
-2.1189623
-2.1411368
-1.9391519
-1.6921509
-1.3426975
-0.92429424
-0.46924054
-0.068335982
0.20772065
0.35872431
0.42222031
0.43096505
0.40411425
0.36072468
0.31347418
0.2687673
0.23006542
0.19879862
0.17509412
0.15827999
0.14727563
0.1408212
0.13772197
0.13689139
0.13757932
0.13902122
0.1410161
0.14291107
0.14514373
0.14684454
0.14902931
0.15049915
-0.20978536
-0.33450412
-0.46566471
-0.46988109
-0.32163142
-0.11728768
-0.016074212
0.0023115152
0.029142042
0.026067815
-0.014109364
-0.0025011189
-0.153855
-0.16134803
-0.25153019
-0.4812322
-0.89381841
-1.4014429
-1.8065688
-1.9533024
-1.8803743
-1.7244308
-1.4617768
-1.1045793
-0.67076145
-0.23523307
0.096829902
0.29563676
0.39145986
0.42204635
0.40949567
0.37264222
0.3272781
0.28178362
0.24078641
0.20664633
0.18008118
0.16079402
0.14787362
0.14012813
0.13628163
0.13518858
0.13584589
0.13759137
0.1397418
0.14218909
0.1443652
0.14677838
0.1485412
0.15073144
0.15223221
-0.12759673
-0.19895259
-0.3301279
-0.45128807
-0.44869271
-0.30612191
-0.1032182
-0.0044984184
0.015641407
0.036446022
0.026039927
-0.0074460838
-0.00055370351
-0.1119651
-0.16671103
-0.33398659
-0.65762479
-1.0904921
-1.4934846
-1.7273633
-1.7936708
-1.7480972
-1.5828311
-1.2918387
-0.896203
-0.44769891
-0.054461399
0.20265773
0.33891118
0.39596887
0.40218128
0.37585567
0.33506223
0.29071192
0.24868332
0.21241088
0.1833975
0.16180667
0.14703604
0.13799942
0.13344173
0.13210827
0.13292578
0.13497929
0.13769367
0.14048427
0.14335951
0.14582051
0.14839686
0.15017762
0.15241972
0.15401941
-0.066321257
-0.098463539
-0.18219521
-0.31633687
-0.42714237
-0.41890904
-0.2869235
-0.090498794
0.0043280663
0.024730664
0.040564833
0.024981832
-0.0020357786
0.0008929179
-0.093050962
-0.20958082
-0.45673039
-0.8161368
-1.1957184
-1.4866314
-1.6638372
-1.7395988
-1.707743
-1.5013222
-1.1413582
-0.70333605
-0.2582023
0.072678273
0.26008233
0.3501902
0.37978844
0.36821667
0.33516461
0.29410513
0.25270269
0.21521688
0.18439394
0.16080108
0.14430249
0.13403448
0.12879357
0.12730167
0.12835454
0.13096013
0.13429122
0.13787867
0.14126991
0.14457696
0.14729601
0.14995673
0.15178075
0.15416062
0.15581248
-0.029394519
-0.023626766
-0.067174632
-0.16030868
-0.29306884
-0.3943218
-0.38296429
-0.26565355
-0.079690733
0.010276489
0.03017301
0.042539595
0.02344143
0.0025112659
0.0013213684
-0.10634683
-0.29017508
-0.58122105
-0.92516869
-1.2433935
-1.501758
-1.6917652
-1.7848849
-1.7479629
-1.4341145
-0.99339098
-0.5198524
-0.10498848
0.14981473
0.28431948
0.34065991
0.34803995
0.32599027
0.2907607
0.25166141
0.21453655
0.18240648
0.1572332
0.1392218
0.12780835
0.12194314
0.12035094
0.12176524
0.12504825
0.1292899
0.13377076
0.13817048
0.14216189
0.14586549
0.14872313
0.15144003
0.15347284
0.15591671
0.15761133
-0.021753393
0.025763169
0.015611125
-0.035309279
-0.13522439
-0.26299342
-0.35480474
-0.34332597
-0.24387757
-0.070721961
0.013958464
0.033803178
0.042400311
0.022085761
0.005725256
0.00060282495
-0.1554804
-0.38630098
-0.68791442
-1.0099035
-1.3208629
-1.6036199
-1.8246111
-1.9299954
-1.8268734
-1.3544888
-0.83597092
-0.33871107
0.0010631639
0.19074708
0.28264839
0.31364093
0.30633337
0.27949971
0.24470411
0.20902402
0.17686133
0.15064384
0.13136185
0.11892134
0.11249403
0.11086525
0.11273053
0.1168605
0.12218745
0.1279015
0.1334428
0.13864416
0.14318893
0.14711929
0.15005451
0.15306309
0.15518634
0.15768955
0.15941594
-0.048651477
0.047477325
0.072785505
0.051624229
-0.0040620772
-0.10736787
-0.22861389
-0.31128123
-0.30198678
-0.22123046
-0.062946354
0.017346138
0.035165063
0.041365292
0.021060762
0.0075249796
-0.00055837792
-0.22873841
-0.48673132
-0.79550267
-1.1328721
-1.4834803
-1.8183453
-2.0878672
-2.1518549
-1.893041
-1.2262278
-0.63879058
-0.19267602
0.068238911
0.20412232
0.26353406
0.27493528
0.25931198
0.23090732
0.1982923
0.16702818
0.14048198
0.1203328
0.10702725
0.10008268
0.098468974
0.10085917
0.10595978
0.11258733
0.11975749
0.12681735
0.13338866
0.13933109
0.14420863
0.14826244
0.15161508
0.15471556
0.15693003
0.15947808
0.16122617
-0.10399158
0.036343881
0.10322993
0.1129486
0.084184082
0.025883321
-0.077707224
-0.19189283
-0.26616195
-0.26073779
-0.19668754
-0.055041521
0.020127894
0.035512025
0.039370893
0.020609467
0.0084730528
-0.0018602243
-0.32096362
-0.60589711
-0.94839752
-1.341169
-1.7696516
-2.2005347
-2.4902338
-2.394412
-1.8436795
-0.95247919
-0.444723
-0.085134734
0.10385001
0.19695056
0.23081598
0.22935632
0.20956433
0.18162462
0.15245906
0.1263471
0.1057875
0.091824085
0.084442337
0.082830945
0.08578901
0.091951694
0.1000439
0.10893299
0.11777347
0.1261153
0.13363923
0.14005274
0.14514723
0.14975733
0.15320769
0.1564176
0.15869856
0.16128167
0.16304185
-0.18721613
-0.0054929821
0.10255332
0.14820991
0.14682507
0.11300168
0.053656795
-0.047289025
-0.1549404
-0.22179577
-0.21973673
-0.17365428
-0.045278496
0.021995271
0.034897143
0.037012133
0.020172053
0.0090555324
-0.0028994552
-0.44356198
-0.77536829
-1.1867674
-1.6825452
-2.2668161
-2.8028017
-2.9566202
-2.5090178
-1.6254003
-0.74389509
-0.27548522
-0.01804649
0.11359294
0.17352963
0.18916808
0.18004768
0.15859408
0.13269233
0.10790469
0.087454692
0.073098645
0.065327801
0.063715466
0.06720796
0.074481571
0.084159099
0.094977005
0.10589874
0.11629446
0.12582022
0.13399058
0.14077641
0.14660207
0.15128767
0.15486987
0.15815903
0.16049093
0.16309936
0.16486268
-0.3076092
-0.079569602
0.070532384
0.15405356
0.18406422
0.17485224
0.13791269
0.078586669
-0.017558398
-0.11920451
-0.17747628
-0.18465912
-0.14867498
-0.036099094
0.023026672
0.033780205
0.034517626
0.019737082
0.0095978463
-0.0036993165
-0.61918917
-1.0294405
-1.5650894
-2.2809569
-3.0827325
-3.5417804
-3.3210988
-2.3219984
-1.1843046
-0.49904079
-0.16174902
0.013937987
0.1032568
0.13848329
0.14223184
0.12869121
0.10750016
0.084865382
0.065143181
0.05070224
0.042644632
0.040964596
0.044898655
0.053241483
0.064580055
0.077488692
0.090738387
0.10350357
0.11533184
0.12572198
0.13452185
0.1422198
0.14809153
0.15291333
0.15658453
0.15993892
0.16230492
0.16493026
0.16668806
-0.4819734
-0.19398687
0.0045063151
0.12894159
0.19348456
0.2121896
0.19753887
0.1589857
0.10011455
0.010397237
-0.08714369
-0.13987966
-0.1502505
-0.12368115
-0.027486487
0.023492793
0.032411635
0.032118241
0.019104314
0.010118076
-0.0042006403
-0.87796227
-1.4323589
-2.2457948
-3.3275664
-4.1289224
-4.2384835
-3.2536339
-1.8030314
-0.80412527
-0.32474749
-0.10057956
0.020467336
0.077757537
0.095888465
0.092019291
0.076471756
0.057137859
0.038716955
0.0245678
0.0163414
0.014547936
0.018769801
0.028021469
0.040992676
0.056112536
0.071887709
0.087279157
0.101735
0.11470202
0.12610912
0.13601289
0.14369829
0.14970219
0.15460872
0.15835162
0.16175369
0.16413864
0.16677352
0.16851726
-0.73831909
-0.36173265
-0.10249907
0.069739497
0.17295841
0.22312977
0.23364515
0.21527305
0.17605752
0.11893678
0.034906086
-0.064241186
-0.10582883
-0.11939462
-0.098506027
-0.019567381
0.023506056
0.030967308
0.029879914
0.01850004
0.010437237
-0.0043336354
-1.2984889
-2.1716009
-3.5174363
-4.6984606
-5.2150921
-4.3982721
-2.6397587
-1.245563
-0.53072146
-0.22916057
-0.072930416
0.0072778891
0.041706004
0.048239211
0.039880039
0.024397477
0.0081801911
-0.0053024488
-0.01353804
-0.015499904
-0.011165612
-0.0012207434
0.013193783
0.030528368
0.048984053
0.067205234
0.084550522
0.1004836
0.11504068
0.12772179
0.13754022
0.14532581
0.15139935
0.15637493
0.16016628
0.16360091
0.16598953
0.16862791
0.17034999
-1.1677475
-0.61031608
-0.26162337
-0.029746347
0.11912835
0.20525157
0.24450015
0.24922883
0.22854588
0.1901792
0.13412999
0.052664527
-0.04415055
-0.0774729
-0.091380578
-0.075932356
-0.012171145
0.02327741
0.029561896
0.027887226
0.017990511
0.0099735337
-0.004900376
-2.0727274
-3.5683749
-5.1767639
-6.254508
-5.7416162
-3.7294102
-1.8723317
-0.81876878
-0.38233528
-0.17708262
-0.070848086
-0.02040918
-0.0017345792
-0.0028085443
-0.012969568
-0.02668984
-0.038824188
-0.046865947
-0.049038803
-0.044808637
-0.034449044
-0.018845496
0.00053634725
0.021702337
0.042902552
0.063341361
0.082582026
0.10091066
0.11688279
0.12937958
0.13924113
0.14705855
0.15318619
0.15820544
0.1620256
0.16547773
0.16785413
0.17049118
0.1721871
-1.9581046
-1.0340245
-0.50083287
-0.1800799
0.026216099
0.15528075
0.22792264
0.25939903
0.26051899
0.23856231
0.19991397
0.14501678
0.063111859
-0.022807882
-0.053942428
-0.065712022
-0.054763927
-0.0055137824
0.023068638
0.02824145
0.026182444
0.017756048
0.0097945259
-0.0060132768
-3.4328991
-5.4755031
-7.1914955
-7.108043
-5.044764
-2.7005301
-1.2000447
-0.59231279
-0.29365393
-0.15747822
-0.088037862
-0.058604501
-0.050436802
-0.055708816
-0.065445584
-0.076085077
-0.083472022
-0.085828991
-0.081938949
-0.071528807
-0.055070218
-0.033916743
-0.010154311
0.014031488
0.037702621
0.060547209
0.083285043
0.10311061
0.11879234
0.13123041
0.14106553
0.14890194
0.15505486
0.16009681
0.16392563
0.1673795
0.1697302
0.17236062
0.17402791
-3.2459757
-1.8045398
-0.90754914
-0.40939869
-0.11639541
0.067594486
0.18070663
0.24361881
0.2696977
0.26759151
0.24329073
0.20664747
0.14763995
0.073025021
-0.003255997
-0.03307856
-0.044150836
-0.035559269
0.00056080939
0.023044742
0.027111773
0.025011207
0.01791263
0.011097582
-0.0065987366
-5.6004691
-7.9037164
-8.3902302
-6.4979201
-3.749602
-1.7420548
-0.86173734
-0.45285593
-0.24767161
-0.16328108
-0.11933747
-0.10449955
-0.1024194
-0.10899142
-0.11661588
-0.12327293
-0.12559851
-0.12222243
-0.1121772
-0.095341782
-0.072754616
-0.046709736
-0.01959429
0.0072682397
0.033955046
0.061760437
0.086000259
0.10541899
0.12090627
0.13322188
0.14302181
0.15084683
0.15700175
0.16204433
0.16585989
0.16930096
0.17162111
0.17423394
0.17587162
-5.6198968
-3.0849294
-1.631904
-0.79541674
-0.33646148
-0.068713542
0.09695609
0.1981739
0.25352791
0.27397183
0.26939145
0.25026841
0.205991
0.14992479
0.081160332
0.012723454
-0.015212832
-0.026250306
-0.019512834
0.0061958831
0.023230633
0.026198462
0.024097544
0.017991362
0.012719606
-0.0063296688
-8.2951392
-9.4103583
-7.9034667
-4.9586041
-2.4291774
-1.2152246
-0.65397787
-0.36997814
-0.23496867
-0.1881081
-0.16109431
-0.15547752
-0.15572206
-0.16135577
-0.16579436
-0.16806881
-0.16527347
-0.15598777
-0.13934039
-0.11585718
-0.087856454
-0.058218248
-0.028168989
0.0024096875
0.035950489
0.065175996
0.088898877
0.10792349
0.12317652
0.13536275
0.14510026
0.15288917
0.15902143
0.1640398
0.16782329
0.17124249
0.17352318
0.17610957
0.17771741
-8.3182606
-5.4490749
-2.8954621
-1.4753886
-0.70234476
-0.28034238
-0.034452679
0.11693277
0.20815033
0.2554323
0.2722753
0.27221705
0.24675531
0.2049984
0.1507813
0.087299584
0.027258103
-0.00018046346
-0.01101917
-0.0065593103
0.01129205
0.023629634
0.02553548
0.023322432
0.017931875
0.013708785
-0.0054749681
-9.9981912
-9.0512264
-6.1724814
-3.2390746
-1.6624147
-0.90491372
-0.52454542
-0.33094639
-0.24661172
-0.22711421
-0.2099896
-0.208842
-0.20856244
-0.21183846
-0.21274363
-0.21062156
-0.20246775
-0.186612
-0.16290236
-0.13350574
-0.10170656
-0.068911035
-0.034304262
0.0054975527
0.040269911
0.068886844
0.091967062
0.11060437
0.12559712
0.13765138
0.14729656
0.15502266
0.16110435
0.16607688
0.16982112
0.17319717
0.17543356
0.17798557
0.1795647
-10.05264
-7.9842738
-5.071889
-2.6737111
-1.3365539
-0.6263095
-0.2386272
-0.011212657
0.12761377
0.20835646
0.25110913
0.27520038
0.26814561
0.24344545
0.20173359
0.15000855
0.091778389
0.039591323
0.012590205
0.0016306449
0.0039132572
0.015779885
0.024199936
0.025117744
0.022810438
0.017810645
0.014280351
-0.0043432654
-9.7354599
-7.2040116
-4.1106289
-2.1896347
-1.2101752
-0.71386356
-0.45162811
-0.32511094
-0.27635982
-0.27591892
-0.26253623
-0.26204229
-0.25959731
-0.26010805
-0.25770934
-0.25099039
-0.23658378
-0.21341744
-0.18336859
-0.15000672
-0.11491522
-0.076499584
-0.029837419
0.01094676
0.045050927
0.072709034
0.095218468
0.11346601
0.12819715
0.14009048
0.1496039
0.15723676
0.16324561
0.16816068
0.17184351
0.17516235
0.1773483
0.17986017
0.18141293
-9.8217204
-9.5900697
-7.3380876
-4.5965477
-2.4350243
-1.2109507
-0.56544189
-0.20962001
0.0008995698
0.12702306
0.20214561
0.25517251
0.27088939
0.26371423
0.23733276
0.19695717
0.14765648
0.094659202
0.048905816
0.023095701
0.012001903
0.012315604
0.019630183
0.024872446
0.024847819
0.022437492
0.017572935
0.014457376
-0.0031116719
-7.8359532
-4.841256
-2.753982
-1.5601943
-0.93892586
-0.59868223
-0.42173841
-0.34446008
-0.31915202
-0.32974356
-0.31531262
-0.31311161
-0.30834652
-0.3065605
-0.30089814
-0.28852687
-0.26678941
-0.23698368
-0.2028879
-0.16614418
-0.12432781
-0.070332802
-0.023050124
0.017085613
0.049852258
0.076735308
0.098660666
0.11649982
0.13099075
0.14265683
0.15201153
0.15952913
0.16545229
0.17027748
0.17388648
0.17713306
0.1792635
0.18173186
0.18326076
-7.9538927
-9.3315802
-8.6949852
-6.5137977
-4.0677304
-2.1912248
-1.1001098
-0.51996531
-0.19340096
0.0010084652
0.1199508
0.20845974
0.25196242
0.26631019
0.25642242
0.22972049
0.19035077
0.14389252
0.095870046
0.055561901
0.031436171
0.020361573
0.018976586
0.022842084
0.025551615
0.024676958
0.022062609
0.017244422
0.014282252
-0.0019271396
-5.3469506
-3.2805163
-1.9272387
-1.1914796
-0.77271502
-0.53862478
-0.42505677
-0.38284875
-0.36950205
-0.38357674
-0.36554903
-0.36131112
-0.35538824
-0.35170851
-0.34166978
-0.32223895
-0.29374095
-0.25992652
-0.22243718
-0.17774716
-0.11619239
-0.06198263
-0.015260966
0.023116255
0.054871648
0.080958948
0.10231423
0.11971261
0.13389783
0.1453353
0.15452262
0.16190602
0.16770561
0.17242348
0.17594258
0.17910386
0.18117795
0.18359926
0.18510533
-5.5784832
-7.5661072
-8.3790895
-7.5521109
-5.6207695
-3.5647173
-1.9596509
-1.0100875
-0.49000949
-0.18793833
-0.0046636115
0.13003399
0.20818663
0.24867199
0.25865098
0.24730489
0.22018746
0.18226696
0.13884342
0.095635455
0.060089295
0.037810507
0.026942017
0.02415654
0.025426961
0.026157341
0.024514609
0.021654857
0.016793385
0.01379967
-0.00088438621
-3.618793
-2.2643682
-1.4519405
-0.96594772
-0.6779673
-0.52111488
-0.45448949
-0.43383164
-0.42141932
-0.43311591
-0.41207578
-0.4074534
-0.40169836
-0.39511771
-0.37889126
-0.35285553
-0.32055161
-0.28343564
-0.23668355
-0.16747235
-0.10606347
-0.052233484
-0.0077437259
0.029380321
0.06008787
0.085398235
0.10617085
0.12315258
0.13694071
0.14814784
0.15714124