/*--------------------------------*- C++ -*----------------------------------*\
| =========                 |                                                 |
| \\      /  F ield         | OpenFOAM: The Open Source CFD Toolbox           |
|  \\    /   O peration     | Version:  v2012                                 |
|   \\  /    A nd           | Website:  www.openfoam.com                      |
|    \\/     M anipulation  |                                                 |
\*---------------------------------------------------------------------------*/
FoamFile
{
    version     2.0;
    format      ascii;
    class       pointVectorField;
    location    "76.2183595797693272";
    object      pointDisplacement;
}
// * * * * * * * * * * * * * * * * * * * * * * * * * * * * * * * * * * * * * //

dimensions      [0 1 0 0 0 0 0];


internalField   nonuniform List<vector> 
18840
(
(0.51272564 0 0)
(0.51276305 0 0)
(0.51287455 0 0)
(0.51305876 0 0)
(0.51331446 0 0)
(0.51364036 0 0)
(0.51403538 0 0)
(0.51449824 0 0)
(0.51502782 0 0)
(0.51562282 0 0)
(0.51628211 0 0)
(0.51700434 0 0)
(0.51778827 0 0)
(0.5186325 0 0)
(0.5195357 0 0)
(0.52049639 0 0)
(0.52151305 0 0)
(0.52258398 0 0)
(0.52370704 0 0)
(0.52487965 0 0)
(0.52632925 0 0)
(0.51272564 0 0)
(0.51276282 0 0)
(0.51287362 0 0)
(0.5130566 0 0)
(0.51331047 0 0)
(0.51363398 0 0)
(0.51402591 0 0)
(0.51448504 0 0)
(0.51501009 0 0)
(0.51559985 0 0)
(0.51625298 0 0)
(0.51696821 0 0)
(0.51774415 0 0)
(0.51857943 0 0)
(0.51947259 0 0)
(0.52042218 0 0)
(0.52142664 0 0)
(0.52248433 0 0)
(0.52359342 0 0)
(0.524752 0 0)
(0.52593145 0 0)
(0.51272564 0 0)
(0.51276262 0 0)
(0.5128728 0 0)
(0.51305468 0 0)
(0.51330686 0 0)
(0.51362806 0 0)
(0.51401701 0 0)
(0.51447241 0 0)
(0.51499295 0 0)
(0.51557727 0 0)
(0.51622401 0 0)
(0.51693174 0 0)
(0.51769902 0 0)
(0.51852436 0 0)
(0.51940622 0 0)
(0.52034302 0 0)
(0.52133317 0 0)
(0.52237496 0 0)
(0.52346673 0 0)
(0.52460672 0 0)
(0.5257812 0 0)
(0.51272564 0 0)
(0.51276237 0 0)
(0.5128718 0 0)
(0.51305232 0 0)
(0.51330246 0 0)
(0.51362084 0 0)
(0.51400617 0 0)
(0.51445707 0 0)
(0.51497215 0 0)
(0.51554993 0 0)
(0.51618894 0 0)
(0.51688765 0 0)
(0.51764448 0 0)
(0.51845781 0 0)
(0.51932596 0 0)
(0.52024718 0 0)
(0.52121971 0 0)
(0.52224166 0 0)
(0.52331118 0 0)
(0.5244263 0 0)
(0.52558661 0 0)
(0.51272564 0 0)
(0.51276209 0 0)
(0.51287063 0 0)
(0.51304959 0 0)
(0.51329736 0 0)
(0.51361247 0 0)
(0.5139936 0 0)
(0.51443931 0 0)
(0.51494809 0 0)
(0.51551837 0 0)
(0.51614852 0 0)
(0.51683689 0 0)
(0.51758175 0 0)
(0.5183813 0 0)
(0.5192337 0 0)
(0.52013702 0 0)
(0.52108924 0 0)
(0.52208823 0 0)
(0.52313183 0 0)
(0.52421777 0 0)
(0.52535817 0 0)
(0.51272564 0 0)
(0.51276175 0 0)
(0.51286927 0 0)
(0.51304646 0 0)
(0.51329158 0 0)
(0.51360308 0 0)
(0.51397955 0 0)
(0.51441956 0 0)
(0.51492146 0 0)
(0.51548354 0 0)
(0.51610405 0 0)
(0.51678114 0 0)
(0.51751295 0 0)
(0.51829748 0 0)
(0.51913269 0 0)
(0.52001644 0 0)
(0.52094648 0 0)
(0.52192039 0 0)
(0.52293568 0 0)
(0.52398975 0 0)
(0.52510589 0 0)
(0.51272564 0 0)
(0.51276135 0 0)
(0.51286766 0 0)
(0.51304283 0 0)
(0.51328499 0 0)
(0.51359253 0 0)
(0.51396396 0 0)
(0.51439785 0 0)
(0.51489246 0 0)
(0.51544594 0 0)
(0.51605635 0 0)
(0.51672169 0 0)
(0.51743989 0 0)
(0.51820873 0 0)
(0.51902596 0 0)
(0.51988922 0 0)
(0.52079603 0 0)
(0.52174367 0 0)
(0.52272928 0 0)
(0.52374996 0 0)
(0.52483858 0 0)
(0.51272564 0 0)
(0.51276088 0 0)
(0.51286578 0 0)
(0.51303859 0 0)
(0.51327739 0 0)
(0.51358048 0 0)
(0.51394639 0 0)
(0.51437364 0 0)
(0.5148605 0 0)
(0.51540498 0 0)
(0.51600497 0 0)
(0.51665825 0 0)
(0.51736252 0 0)
(0.51811539 0 0)
(0.51891431 0 0)
(0.5197567 0 0)
(0.52063979 0 0)
(0.5215606 0 0)
(0.52251594 0 0)
(0.5235025 0 0)
(0.52456107 0 0)
(0.51272564 0 0)
(0.51276034 0 0)
(0.51286363 0 0)
(0.51303374 0 0)
(0.51326872 0 0)
(0.51356681 0 0)
(0.51392653 0 0)
(0.51434643 0 0)
(0.5148248 0 0)
(0.51535958 0 0)
(0.51594853 0 0)
(0.51658925 0 0)
(0.5172792 0 0)
(0.51801571 0 0)
(0.51879603 0 0)
(0.51961725 0 0)
(0.52047633 0 0)
(0.52137001 0 0)
(0.52229481 0 0)
(0.52324705 0 0)
(0.52427359 0 0)
(0.51272564 0 0)
(0.51275974 0 0)
(0.51286125 0 0)
(0.51302836 0 0)
(0.51325909 0 0)
(0.51355163 0 0)
(0.51390449 0 0)
(0.51431624 0 0)
(0.5147852 0 0)
(0.5153093 0 0)
(0.51588624 0 0)
(0.51651348 0 0)
(0.5171883 0 0)
(0.51790779 0 0)
(0.51866889 0 0)
(0.51946845 0 0)
(0.52030313 0 0)
(0.52116937 0 0)
(0.52206341 0 0)
(0.52298129 0 0)
(0.52397438 0 0)
(0.51272564 0 0)
(0.51275917 0 0)
(0.51285894 0 0)
(0.51302313 0 0)
(0.5132497 0 0)
(0.51353673 0 0)
(0.51388273 0 0)
(0.51428626 0 0)
(0.51474565 0 0)
(0.5152588 0 0)
(0.51582341 0 0)
(0.51643683 0 0)
(0.51709625 0 0)
(0.51779852 0 0)
(0.5185404 0 0)
(0.5193184 0 0)
(0.5201289 0 0)
(0.52096809 0 0)
(0.52183194 0 0)
(0.52271616 0 0)
(0.52367495 0 0)
(0.51272564 0 0)
(0.51276305 0 0)
(0.51287455 0 0)
(0.51305876 0 0)
(0.51331446 0 0)
(0.51364036 0 0)
(0.51403538 0 0)
(0.51449824 0 0)
(0.51502782 0 0)
(0.51562282 0 0)
(0.51628211 0 0)
(0.51700434 0 0)
(0.51778827 0 0)
(0.5186325 0 0)
(0.5195357 0 0)
(0.52049639 0 0)
(0.52151305 0 0)
(0.52258398 0 0)
(0.52370704 0 0)
(0.52487965 0 0)
(0.52632925 0 0)
(0.51272564 0 0)
(0.51276282 0 0)
(0.51287362 0 0)
(0.5130566 0 0)
(0.51331047 0 0)
(0.51363398 0 0)
(0.51402591 0 0)
(0.51448504 0 0)
(0.51501009 0 0)
(0.51559985 0 0)
(0.51625298 0 0)
(0.51696821 0 0)
(0.51774415 0 0)
(0.51857943 0 0)
(0.51947259 0 0)
(0.52042218 0 0)
(0.52142664 0 0)
(0.52248433 0 0)
(0.52359342 0 0)
(0.524752 0 0)
(0.52593145 0 0)
(0.51272564 0 0)
(0.51276262 0 0)
(0.5128728 0 0)
(0.51305468 0 0)
(0.51330686 0 0)
(0.51362806 0 0)
(0.51401701 0 0)
(0.51447241 0 0)
(0.51499295 0 0)
(0.51557727 0 0)
(0.51622401 0 0)
(0.51693174 0 0)
(0.51769902 0 0)
(0.51852436 0 0)
(0.51940622 0 0)
(0.52034302 0 0)
(0.52133317 0 0)
(0.52237496 0 0)
(0.52346673 0 0)
(0.52460672 0 0)
(0.5257812 0 0)
(0.51272564 0 0)
(0.51276237 0 0)
(0.5128718 0 0)
(0.51305232 0 0)
(0.51330246 0 0)
(0.51362084 0 0)
(0.51400617 0 0)
(0.51445707 0 0)
(0.51497215 0 0)
(0.51554993 0 0)
(0.51618894 0 0)
(0.51688765 0 0)
(0.51764448 0 0)
(0.51845781 0 0)
(0.51932596 0 0)
(0.52024718 0 0)
(0.52121971 0 0)
(0.52224166 0 0)
(0.52331118 0 0)
(0.5244263 0 0)
(0.52558661 0 0)
(0.51272564 0 0)
(0.51276209 0 0)
(0.51287063 0 0)
(0.51304959 0 0)
(0.51329736 0 0)
(0.51361247 0 0)
(0.5139936 0 0)
(0.51443931 0 0)
(0.51494809 0 0)
(0.51551837 0 0)
(0.51614852 0 0)
(0.51683689 0 0)
(0.51758175 0 0)
(0.5183813 0 0)
(0.5192337 0 0)
(0.52013702 0 0)
(0.52108924 0 0)
(0.52208823 0 0)
(0.52313183 0 0)
(0.52421777 0 0)
(0.52535817 0 0)
(0.51272564 0 0)
(0.51276175 0 0)
(0.51286927 0 0)
(0.51304646 0 0)
(0.51329158 0 0)
(0.51360308 0 0)
(0.51397955 0 0)
(0.51441956 0 0)
(0.51492146 0 0)
(0.51548354 0 0)
(0.51610405 0 0)
(0.51678114 0 0)
(0.51751295 0 0)
(0.51829748 0 0)
(0.51913269 0 0)
(0.52001644 0 0)
(0.52094648 0 0)
(0.52192039 0 0)
(0.52293568 0 0)
(0.52398975 0 0)
(0.52510589 0 0)
(0.51272564 0 0)
(0.51276135 0 0)
(0.51286766 0 0)
(0.51304283 0 0)
(0.51328499 0 0)
(0.51359253 0 0)
(0.51396396 0 0)
(0.51439785 0 0)
(0.51489246 0 0)
(0.51544594 0 0)
(0.51605635 0 0)
(0.51672169 0 0)
(0.51743989 0 0)
(0.51820873 0 0)
(0.51902596 0 0)
(0.51988922 0 0)
(0.52079603 0 0)
(0.52174367 0 0)
(0.52272928 0 0)
(0.52374996 0 0)
(0.52483858 0 0)
(0.51272564 0 0)
(0.51276088 0 0)
(0.51286578 0 0)
(0.51303859 0 0)
(0.51327739 0 0)
(0.51358048 0 0)
(0.51394639 0 0)
(0.51437364 0 0)
(0.5148605 0 0)
(0.51540498 0 0)
(0.51600497 0 0)
(0.51665825 0 0)
(0.51736252 0 0)
(0.51811539 0 0)
(0.51891431 0 0)
(0.5197567 0 0)
(0.52063979 0 0)
(0.5215606 0 0)
(0.52251594 0 0)
(0.5235025 0 0)
(0.52456107 0 0)
(0.51272564 0 0)
(0.51276034 0 0)
(0.51286363 0 0)
(0.51303374 0 0)
(0.51326872 0 0)
(0.51356681 0 0)
(0.51392653 0 0)
(0.51434643 0 0)
(0.5148248 0 0)
(0.51535958 0 0)
(0.51594853 0 0)
(0.51658925 0 0)
(0.5172792 0 0)
(0.51801571 0 0)
(0.51879603 0 0)
(0.51961725 0 0)
(0.52047633 0 0)
(0.52137001 0 0)
(0.52229481 0 0)
(0.52324705 0 0)
(0.52427359 0 0)
(0.51272564 0 0)
(0.51275974 0 0)
(0.51286125 0 0)
(0.51302836 0 0)
(0.51325909 0 0)
(0.51355163 0 0)
(0.51390449 0 0)
(0.51431624 0 0)
(0.5147852 0 0)
(0.5153093 0 0)
(0.51588624 0 0)
(0.51651348 0 0)
(0.5171883 0 0)
(0.51790779 0 0)
(0.51866889 0 0)
(0.51946845 0 0)
(0.52030313 0 0)
(0.52116937 0 0)
(0.52206341 0 0)
(0.52298129 0 0)
(0.52397438 0 0)
(0.51272564 0 0)
(0.51275917 0 0)
(0.51285894 0 0)
(0.51302313 0 0)
(0.5132497 0 0)
(0.51353673 0 0)
(0.51388273 0 0)
(0.51428626 0 0)
(0.51474565 0 0)
(0.5152588 0 0)
(0.51582341 0 0)
(0.51643683 0 0)
(0.51709625 0 0)
(0.51779852 0 0)
(0.5185404 0 0)
(0.5193184 0 0)
(0.5201289 0 0)
(0.52096809 0 0)
(0.52183194 0 0)
(0.52271616 0 0)
(0.52367495 0 0)
(0.51272564 0 0)
(0.51276596 0 0)
(0.51288621 0 0)
(0.51308502 0 0)
(0.51336117 0 0)
(0.51371337 0 0)
(0.51414031 0 0)
(0.51464061 0 0)
(0.51521278 0 0)
(0.51585523 0 0)
(0.51656611 0 0)
(0.51734347 0 0)
(0.51818507 0 0)
(0.51908853 0 0)
(0.52005126 0 0)
(0.5210706 0 0)
(0.5221437 0 0)
(0.52326767 0 0)
(0.52443943 0 0)
(0.52565601 0 0)
(0.52701949 0 0)
(0.51272564 0 0)
(0.5127657 0 0)
(0.51288517 0 0)
(0.51308266 0 0)
(0.51335693 0 0)
(0.51370671 0 0)
(0.51413066 0 0)
(0.51462741 0 0)
(0.51519547 0 0)
(0.51583327 0 0)
(0.51653902 0 0)
(0.51731078 0 0)
(0.51814639 0 0)
(0.51904358 0 0)
(0.51999983 0 0)
(0.52101259 0 0)
(0.52207912 0 0)
(0.52319661 0 0)
(0.52436206 0 0)
(0.52557252 0 0)
(0.52692979 0 0)
(0.51272564 0 0)
(0.51276549 0 0)
(0.5128843 0 0)
(0.51308068 0 0)
(0.51335338 0 0)
(0.51370111 0 0)
(0.51412251 0 0)
(0.51461625 0 0)
(0.51518083 0 0)
(0.51581472 0 0)
(0.51651617 0 0)
(0.51728331 0 0)
(0.51811407 0 0)
(0.51900627 0 0)
(0.51995754 0 0)
(0.52096544 0 0)
(0.52202735 0 0)
(0.52314057 0 0)
(0.52430222 0 0)
(0.52550944 0 0)
(0.52686098 0 0)
(0.51272564 0 0)
(0.51276524 0 0)
(0.51288332 0 0)
(0.51307848 0 0)
(0.51334945 0 0)
(0.51369494 0 0)
(0.51411361 0 0)
(0.51460414 0 0)
(0.51516506 0 0)
(0.51579488 0 0)
(0.51649193 0 0)
(0.51725442 0 0)
(0.51808038 0 0)
(0.51896778 0 0)
(0.51991438 0 0)
(0.52091789 0 0)
(0.52197587 0 0)
(0.52308578 0 0)
(0.5242449 0 0)
(0.52545049 0 0)
(0.52679604 0 0)
(0.51272564 0 0)
(0.51276498 0 0)
(0.51288226 0 0)
(0.5130761 0 0)
(0.51334522 0 0)
(0.51368834 0 0)
(0.51410414 0 0)
(0.5145913 0 0)
(0.51514844 0 0)
(0.51577408 0 0)
(0.51646665 0 0)
(0.51722446 0 0)
(0.51804568 0 0)
(0.51892839 0 0)
(0.51987055 0 0)
(0.52087003 0 0)
(0.52192458 0 0)
(0.52303188 0 0)
(0.52418942 0 0)
(0.52539469 0 0)
(0.52673363 0 0)
(0.51272564 0 0)
(0.5127647 0 0)
(0.51288113 0 0)
(0.51307356 0 0)
(0.51334072 0 0)
(0.51368133 0 0)
(0.51409411 0 0)
(0.51457777 0 0)
(0.51513096 0 0)
(0.51575229 0 0)
(0.51644025 0 0)
(0.51719329 0 0)
(0.51800968 0 0)
(0.51888768 0 0)
(0.51982539 0 0)
(0.52082091 0 0)
(0.52187218 0 0)
(0.52297711 0 0)
(0.52413347 0 0)
(0.52533905 0 0)
(0.52667011 0 0)
(0.51272564 0 0)
(0.51276439 0 0)
(0.51287993 0 0)
(0.51307086 0 0)
(0.51333593 0 0)
(0.51367389 0 0)
(0.51408348 0 0)
(0.51456344 0 0)
(0.51511248 0 0)
(0.51572927 0 0)
(0.51641241 0 0)
(0.51716042 0 0)
(0.51797172 0 0)
(0.51884472 0 0)
(0.51977768 0 0)
(0.52076889 0 0)
(0.52181649 0 0)
(0.52291865 0 0)
(0.5240734 0 0)
(0.52527885 0 0)
(0.52659979 0 0)
(0.51272564 0 0)
(0.51276407 0 0)
(0.51287865 0 0)
(0.51306798 0 0)
(0.51333083 0 0)
(0.51366597 0 0)
(0.51407217 0 0)
(0.51454821 0 0)
(0.51509283 0 0)
(0.51570478 0 0)
(0.51638271 0 0)
(0.51712527 0 0)
(0.517931 0 0)
(0.5187984 0 0)
(0.5197259 0 0)
(0.52071194 0 0)
(0.52175485 0 0)
(0.52285297 0 0)
(0.52400457 0 0)
(0.52520804 0 0)
(0.52651529 0 0)
(0.51272564 0 0)
(0.51276373 0 0)
(0.51287729 0 0)
(0.51306493 0 0)
(0.51332543 0 0)
(0.51365757 0 0)
(0.51406015 0 0)
(0.51453198 0 0)
(0.51507185 0 0)
(0.51567854 0 0)
(0.51635077 0 0)
(0.51708726 0 0)
(0.51788663 0 0)
(0.5187475 0 0)
(0.51966839 0 0)
(0.52064785 0 0)
(0.5216843 0 0)
(0.52277618 0 0)
(0.5239218 0 0)
(0.52511962 0 0)
(0.52640767 0 0)
(0.51272564 0 0)
(0.51276337 0 0)
(0.51287586 0 0)
(0.51306171 0 0)
(0.51331976 0 0)
(0.51364869 0 0)
(0.51404745 0 0)
(0.51451474 0 0)
(0.5150495 0 0)
(0.51565039 0 0)
(0.5163163 0 0)
(0.51704589 0 0)
(0.51783793 0 0)
(0.51869098 0 0)
(0.51960373 0 0)
(0.52057469 0 0)
(0.52160238 0 0)
(0.52268509 0 0)
(0.52382088 0 0)
(0.52500742 0 0)
(0.52626684 0 0)
(0.51272564 0 0)
(0.51276596 0 0)
(0.51288621 0 0)
(0.51308502 0 0)
(0.51336117 0 0)
(0.51371337 0 0)
(0.51414031 0 0)
(0.51464061 0 0)
(0.51521278 0 0)
(0.51585523 0 0)
(0.51656611 0 0)
(0.51734347 0 0)
(0.51818507 0 0)
(0.51908853 0 0)
(0.52005126 0 0)
(0.5210706 0 0)
(0.5221437 0 0)
(0.52326767 0 0)
(0.52443943 0 0)
(0.52565601 0 0)
(0.52701949 0 0)
(0.51272564 0 0)
(0.5127657 0 0)
(0.51288517 0 0)
(0.51308266 0 0)
(0.51335693 0 0)
(0.51370671 0 0)
(0.51413066 0 0)
(0.51462741 0 0)
(0.51519547 0 0)
(0.51583327 0 0)
(0.51653902 0 0)
(0.51731078 0 0)
(0.51814639 0 0)
(0.51904358 0 0)
(0.51999983 0 0)
(0.52101259 0 0)
(0.52207912 0 0)
(0.52319661 0 0)
(0.52436206 0 0)
(0.52557252 0 0)
(0.52692979 0 0)
(0.51272564 0 0)
(0.51276549 0 0)
(0.5128843 0 0)
(0.51308068 0 0)
(0.51335338 0 0)
(0.51370111 0 0)
(0.51412251 0 0)
(0.51461625 0 0)
(0.51518083 0 0)
(0.51581472 0 0)
(0.51651617 0 0)
(0.51728331 0 0)
(0.51811407 0 0)
(0.51900627 0 0)
(0.51995754 0 0)
(0.52096544 0 0)
(0.52202735 0 0)
(0.52314057 0 0)
(0.52430222 0 0)
(0.52550944 0 0)
(0.52686098 0 0)
(0.51272564 0 0)
(0.51276524 0 0)
(0.51288332 0 0)
(0.51307848 0 0)
(0.51334945 0 0)
(0.51369494 0 0)
(0.51411361 0 0)
(0.51460414 0 0)
(0.51516506 0 0)
(0.51579488 0 0)
(0.51649193 0 0)
(0.51725442 0 0)
(0.51808038 0 0)
(0.51896778 0 0)
(0.51991438 0 0)
(0.52091789 0 0)
(0.52197587 0 0)
(0.52308578 0 0)
(0.5242449 0 0)
(0.52545049 0 0)
(0.52679604 0 0)
(0.51272564 0 0)
(0.51276498 0 0)
(0.51288226 0 0)
(0.5130761 0 0)
(0.51334522 0 0)
(0.51368834 0 0)
(0.51410414 0 0)
(0.5145913 0 0)
(0.51514844 0 0)
(0.51577408 0 0)
(0.51646665 0 0)
(0.51722446 0 0)
(0.51804568 0 0)
(0.51892839 0 0)
(0.51987055 0 0)
(0.52087003 0 0)
(0.52192458 0 0)
(0.52303188 0 0)
(0.52418942 0 0)
(0.52539469 0 0)
(0.52673363 0 0)
(0.51272564 0 0)
(0.5127647 0 0)
(0.51288113 0 0)
(0.51307356 0 0)
(0.51334072 0 0)
(0.51368133 0 0)
(0.51409411 0 0)
(0.51457777 0 0)
(0.51513096 0 0)
(0.51575229 0 0)
(0.51644025 0 0)
(0.51719329 0 0)
(0.51800968 0 0)
(0.51888768 0 0)
(0.51982539 0 0)
(0.52082091 0 0)
(0.52187218 0 0)
(0.52297711 0 0)
(0.52413347 0 0)
(0.52533905 0 0)
(0.52667011 0 0)
(0.51272564 0 0)
(0.51276439 0 0)
(0.51287993 0 0)
(0.51307086 0 0)
(0.51333593 0 0)
(0.51367389 0 0)
(0.51408348 0 0)
(0.51456344 0 0)
(0.51511248 0 0)
(0.51572927 0 0)
(0.51641241 0 0)
(0.51716042 0 0)
(0.51797172 0 0)
(0.51884472 0 0)
(0.51977768 0 0)
(0.52076889 0 0)
(0.52181649 0 0)
(0.52291865 0 0)
(0.5240734 0 0)
(0.52527885 0 0)
(0.52659979 0 0)
(0.51272564 0 0)
(0.51276407 0 0)
(0.51287865 0 0)
(0.51306798 0 0)
(0.51333083 0 0)
(0.51366597 0 0)
(0.51407217 0 0)
(0.51454821 0 0)
(0.51509283 0 0)
(0.51570478 0 0)
(0.51638271 0 0)
(0.51712527 0 0)
(0.517931 0 0)
(0.5187984 0 0)
(0.5197259 0 0)
(0.52071194 0 0)
(0.52175485 0 0)
(0.52285297 0 0)
(0.52400457 0 0)
(0.52520804 0 0)
(0.52651529 0 0)
(0.51272564 0 0)
(0.51276373 0 0)
(0.51287729 0 0)
(0.51306493 0 0)
(0.51332543 0 0)
(0.51365757 0 0)
(0.51406015 0 0)
(0.51453198 0 0)
(0.51507185 0 0)
(0.51567854 0 0)
(0.51635077 0 0)
(0.51708726 0 0)
(0.51788663 0 0)
(0.5187475 0 0)
(0.51966839 0 0)
(0.52064785 0 0)
(0.5216843 0 0)
(0.52277618 0 0)
(0.5239218 0 0)
(0.52511962 0 0)
(0.52640767 0 0)
(0.51272564 0 0)
(0.51276337 0 0)
(0.51287586 0 0)
(0.51306171 0 0)
(0.51331976 0 0)
(0.51364869 0 0)
(0.51404745 0 0)
(0.51451474 0 0)
(0.5150495 0 0)
(0.51565039 0 0)
(0.5163163 0 0)
(0.51704589 0 0)
(0.51783793 0 0)
(0.51869098 0 0)
(0.51960373 0 0)
(0.52057469 0 0)
(0.52160238 0 0)
(0.52268509 0 0)
(0.52382088 0 0)
(0.52500742 0 0)
(0.52626684 0 0)
(0.52865365 0 0)
(0.53044718 0 0)
(0.53228423 0 0)
(0.53415079 0 0)
(0.53603147 0 0)
(0.53790817 0 0)
(0.53975854 0 0)
(0.54155606 0 0)
(0.54327254 0 0)
(0.54487905 0 0)
(0.54634357 0 0)
(0.54762886 0 0)
(0.54869594 0 0)
(0.54950612 0 0)
(0.55002125 0 0)
(0.55020736 0 0)
(0.55002682 0 0)
(0.54944059 0 0)
(0.5484134 0 0)
(0.54691431 0 0)
(0.54490527 0 0)
(0.54233967 0 0)
(0.5391731 0 0)
(0.53537333 0 0)
(0.53090053 0 0)
(0.52569682 0 0)
(0.51970971 0 0)
(0.51291058 0 0)
(0.50526028 0 0)
(0.49668569 0 0)
(0.48712439 0 0)
(0.47654083 0 0)
(0.46488988 0 0)
(0.45205985 0 0)
(0.43789841 0 0)
(0.42232518 0 0)
(0.40532641 0 0)
(0.38680965 0 0)
(0.36656821 0 0)
(0.34450547 0 0)
(0.32060968 0 0)
(0.2947563 0 0)
(0.26679214 0 0)
(0.23658762 0 0)
(0.20403745 0 0)
(0.16900759 0 0)
(0.13128416 0 0)
(0.090647412 0 0)
(0.046885599 0 0)
(0 0 0)
(0.52855738 0 0)
(0.5303444 0 0)
(0.53217603 0 0)
(0.53403894 0 0)
(0.5359185 0 0)
(0.53779741 0 0)
(0.53965363 0 0)
(0.54146005 0 0)
(0.54318769 0 0)
(0.54480716 0 0)
(0.54628567 0 0)
(0.54758537 0 0)
(0.54866708 0 0)
(0.54949195 0 0)
(0.55002141 0 0)
(0.55022075 0 0)
(0.55005273 0 0)
(0.54947843 0 0)
(0.54846249 0 0)
(0.54697414 0 0)
(0.54497613 0 0)
(0.54242138 0 0)
(0.53926449 0 0)
(0.53547306 0 0)
(0.53100848 0 0)
(0.5258127 0 0)
(0.51983208 0 0)
(0.51303784 0 0)
(0.50539227 0 0)
(0.49682248 0 0)
(0.48726547 0 0)
(0.47668737 0 0)
(0.46504038 0 0)
(0.45221293 0 0)
(0.43805259 0 0)
(0.42247768 0 0)
(0.40547444 0 0)
(0.38695172 0 0)
(0.36670214 0 0)
(0.34462862 0 0)
(0.32072108 0 0)
(0.29485549 0 0)
(0.26687948 0 0)
(0.23666359 0 0)
(0.20410224 0 0)
(0.16905909 0 0)
(0.13131918 0 0)
(0.090665401 0 0)
(0.046891438 0 0)
(0 0 0)
(0.52847754 0 0)
(0.53025171 0 0)
(0.53207222 0 0)
(0.53392633 0 0)
(0.53580024 0 0)
(0.53767751 0 0)
(0.53953642 0 0)
(0.54134974 0 0)
(0.54308803 0 0)
(0.54472103 0 0)
(0.54621522 0 0)
(0.54753233 0 0)
(0.54863272 0 0)
(0.54947706 0 0)
(0.55002699 0 0)
(0.55024671 0 0)
(0.55009862 0 0)
(0.54954444 0 0)
(0.54854882 0 0)
(0.5470805 0 0)
(0.5451024 0 0)
(0.54256754 0 0)
(0.53942998 0 0)
(0.53565642 0 0)
(0.53120876 0 0)
(0.52602935 0 0)
(0.52006398 0 0)
(0.51328286 0 0)
(0.50564906 0 0)
(0.4970905 0 0)
(0.48754427 0 0)
(0.47697723 0 0)
(0.46533889 0 0)
(0.45251854 0 0)
(0.43836249 0 0)
(0.42278711 0 0)
(0.40577939 0 0)
(0.38724993 0 0)
(0.36699025 0 0)
(0.34490255 0 0)
(0.32097873 0 0)
(0.29509468 0 0)
(0.26709769 0 0)
(0.23685866 0 0)
(0.2042727 0 0)
(0.1692007 0 0)
(0.1314254 0 0)
(0.090732784 0 0)
(0.046923069 0 0)
(0 0 0)
(0.52839721 0 0)
(0.53015259 0 0)
(0.53195688 0 0)
(0.53379784 0 0)
(0.53566232 0 0)
(0.53753464 0 0)
(0.53939381 0 0)
(0.54121289 0 0)
(0.54296213 0 0)
(0.54461035 0 0)
(0.54612307 0 0)
(0.54746171 0 0)
(0.54858613 0 0)
(0.54945655 0 0)
(0.55003423 0 0)
(0.55028285 0 0)
(0.55016424 0 0)
(0.5496399 0 0)
(0.54867471 0 0)
(0.54723702 0 0)
(0.54528962 0 0)
(0.5427851 0 0)
(0.53967718 0 0)
(0.53593196 0 0)
(0.53151157 0 0)
(0.52635812 0 0)
(0.5204168 0 0)
(0.51365744 0 0)
(0.50604367 0 0)
(0.49750348 0 0)
(0.48797405 0 0)
(0.47742382 0 0)
(0.46579952 0 0)
(0.45299026 0 0)
(0.43884106 0 0)
(0.42326674 0 0)
(0.40625487 0 0)
(0.38771685 0 0)
(0.36744391 0 0)
(0.34533866 0 0)
(0.32139364 0 0)
(0.2954836 0 0)
(0.26745516 0 0)
(0.23718037 0 0)
(0.20455546 0 0)
(0.16943758 0 0)
(0.13160656 0 0)
(0.090852249 0 0)
(0.046981881 0 0)
(0 0 0)
(0.52831471 0 0)
(0.53004515 0 0)
(0.53182792 0 0)
(0.53365121 0 0)
(0.5355024 0 0)
(0.53736655 0 0)
(0.53922353 0 0)
(0.54104697 0 0)
(0.54280696 0 0)
(0.54447153 0 0)
(0.54600527 0 0)
(0.54736926 0 0)
(0.54852279 0 0)
(0.54942541 0 0)
(0.55003834 0 0)
(0.55032419 0 0)
(0.55024411 0 0)
(0.54975942 0 0)
(0.54883503 0 0)
(0.5474385 0 0)
(0.54553218 0 0)
(0.54306855 0 0)
(0.54000102 0 0)
(0.53629469 0 0)
(0.53191149 0 0)
(0.52679358 0 0)
(0.52088566 0 0)
(0.51415686 0 0)
(0.50657092 0 0)
(0.49805617 0 0)
(0.48855012 0 0)
(0.47802206 0 0)
(0.46641691 0 0)
(0.45362335 0 0)
(0.43948383 0 0)
(0.42391178 0 0)
(0.40689606 0 0)
(0.38834879 0 0)
(0.36806014 0 0)
(0.34593327 0 0)
(0.32196203 0 0)
(0.29601911 0 0)
(0.26794921 0 0)
(0.23762604 0 0)
(0.20494796 0 0)
(0.1697678 0 0)
(0.13186141 0 0)
(0.091022814 0 0)
(0.047067333 0 0)
(0 0 0)
(0.52822598 0 0)
(0.52992494 0 0)
(0.53168052 0 0)
(0.53348136 0 0)
(0.53531524 0 0)
(0.53716789 0 0)
(0.53902001 0 0)
(0.54084613 0 0)
(0.54261638 0 0)
(0.54429777 0 0)
(0.54585446 0 0)
(0.54724735 0 0)
(0.54843492 0 0)
(0.54937582 0 0)
(0.55003107 0 0)
(0.55036256 0 0)
(0.55033027 0 0)
(0.54989493 0 0)
(0.5490214 0 0)
(0.54767677 0 0)
(0.54582248 0 0)
(0.5434103 0 0)
(0.54039345 0 0)
(0.53673671 0 0)
(0.53240133 0 0)
(0.52732863 0 0)
(0.52146298 0 0)
(0.51477362 0 0)
(0.50722414 0 0)
(0.49874207 0 0)
(0.48926534 0 0)
(0.47876517 0 0)
(0.46718467 0 0)
(0.45441085 0 0)
(0.44028384 0 0)
(0.42471603 0 0)
(0.40769738 0 0)
(0.38913986 0 0)
(0.36883295 0 0)
(0.34668148 0 0)
(0.32267949 0 0)
(0.29669665 0 0)
(0.26857544 0 0)
(0.23819207 0 0)
(0.20544724 0 0)
(0.17018863 0 0)
(0.1321876 0 0)
(0.091243128 0 0)
(0.047178811 0 0)
(0 0 0)
(0.52812491 0 0)
(0.52978555 0 0)
(0.5315079 0 0)
(0.53328114 0 0)
(0.53509336 0 0)
(0.53693073 0 0)
(0.53877507 0 0)
(0.54060174 0 0)
(0.54238089 0 0)
(0.54407924 0 0)
(0.54566053 0 0)
(0.54708536 0 0)
(0.54831149 0 0)
(0.54929676 0 0)
(0.55000155 0 0)
(0.55038678 0 0)
(0.5504114 0 0)
(0.55003542 0 0)
(0.54922318 0 0)
(0.54794101 0 0)
(0.54614957 0 0)
(0.54379983 0 0)
(0.54084447 0 0)
(0.53724787 0 0)
(0.5329707 0 0)
(0.52795332 0 0)
(0.5221395 0 0)
(0.51549851 0 0)
(0.50799375 0 0)
(0.49955178 0 0)
(0.4901109 0 0)
(0.47964395 0 0)
(0.46809339 0 0)
(0.45534421 0 0)
(0.44123287 0 0)
(0.42567091 0 0)
(0.40865041 0 0)
(0.39008277 0 0)
(0.3697558 0 0)
(0.34757641 0 0)
(0.32353931 0 0)
(0.2975104 0 0)
(0.2693288 0 0)
(0.2388735 0 0)
(0.20604874 0 0)
(0.17069647 0 0)
(0.13258257 0 0)
(0.091511288 0 0)
(0.047315299 0 0)
(0 0 0)
(0.5280035 0 0)
(0.52961877 0 0)
(0.53130163 0 0)
(0.5330419 0 0)
(0.53482777 0 0)
(0.53664574 0 0)
(0.53847842 0 0)
(0.54030272 0 0)
(0.54208914 0 0)
(0.54380385 0 0)
(0.54541062 0 0)
(0.54687004 0 0)
(0.54813924 0 0)
(0.54917477 0 0)
(0.54993606 0 0)
(0.5503833 0 0)
(0.55047417 0 0)
(0.55016742 0 0)
(0.54942678 0 0)
(0.54821808 0 0)
(0.54650077 0 0)
(0.54422438 0 0)
(0.54134116 0 0)
(0.53781568 0 0)
(0.53360778 0 0)
(0.52865591 0 0)
(0.52290321 0 0)
(0.51631985 0 0)
(0.50886877 0 0)
(0.50047442 0 0)
(0.49107546 0 0)
(0.48064753 0 0)
(0.46913231 0 0)
(0.45641234 0 0)
(0.44232013 0 0)
(0.42676648 0 0)
(0.40974559 0 0)
(0.39116777 0 0)
(0.37081941 0 0)
(0.34860989 0 0)
(0.3245339 0 0)
(0.29845298 0 0)
(0.27020234 0 0)
(0.23966445 0 0)
(0.20674736 0 0)
(0.1712868 0 0)
(0.13304268 0 0)
(0.091824986 0 0)
(0.047475676 0 0)
(0 0 0)
(0.52785178 0 0)
(0.52941451 0 0)
(0.53105174 0 0)
(0.5327537 0 0)
(0.53450819 0 0)
(0.53630153 0 0)
(0.53811796 0 0)
(0.53993592 0 0)
(0.54172686 0 0)
(0.54345726 0 0)
(0.54509059 0 0)
(0.54658709 0 0)
(0.54790313 0 0)
(0.54899419 0 0)
(0.549819 0 0)
(0.55033653 0 0)
(0.55050288 0 0)
(0.55027546 0 0)
(0.54961709 0 0)
(0.54849282 0 0)
(0.54686083 0 0)
(0.54466906 0 0)
(0.54186919 0 0)
(0.53842595 0 0)
(0.53429825 0 0)
(0.5294224 0 0)
(0.5237408 0 0)
(0.51722446 0 0)
(0.50983576 0 0)
(0.50149679 0 0)
(0.49214646 0 0)
(0.48176289 0 0)
(0.47028831 0 0)
(0.45760281 0 0)
(0.44353369 0 0)
(0.42799069 0 0)
(0.41097106 0 0)
(0.39238416 0 0)
(0.37201396 0 0)
(0.34977203 0 0)
(0.3256537 0 0)
(0.29951576 0 0)
(0.27118836 0 0)
(0.24055767 0 0)
(0.20753662 0 0)
(0.17195436 0 0)
(0.13356408 0 0)
(0.092181534 0 0)
(0.047658536 0 0)
(0 0 0)
(0.52765739 0 0)
(0.52916074 0 0)
(0.53074668 0 0)
(0.53240431 0 0)
(0.53412122 0 0)
(0.53588487 0 0)
(0.53768072 0 0)
(0.53948825 0 0)
(0.5412807 0 0)
(0.54302556 0 0)
(0.54468583 0 0)
(0.54622126 0 0)
(0.54758754 0 0)
(0.54873933 0 0)
(0.5496345 0 0)
(0.55023087 0 0)
(0.55048247 0 0)
(0.55034463 0 0)
(0.54977918 0 0)
(0.5487508 0 0)
(0.54721591 0 0)
(0.54512012 0 0)
(0.54241471 0 0)
(0.53906525 0 0)
(0.53502939 0 0)
(0.53024034 0 0)
(0.52463972 0 0)
(0.51820012 0 0)
(0.51088319 0 0)
(0.50260758 0 0)
(0.49331222 0 0)
(0.48297882 0 0)
(0.47154996 0 0)
(0.45890374 0 0)
(0.44486188 0 0)
(0.42933264 0 0)
(0.41231638 0 0)
(0.3937213 0 0)
(0.3733292 0 0)
(0.35105358 0 0)
(0.32688981 0 0)
(0.30069002 0 0)
(0.27227867 0 0)
(0.24154601 0 0)
(0.20841022 0 0)
(0.17269358 0 0)
(0.13414235 0 0)
(0.092578183 0 0)
(0.047862541 0 0)
(0 0 0)
(0.52775563 0 0)
(0.52919316 0 0)
(0.53071789 0 0)
(0.5323181 0 0)
(0.53398269 0 0)
(0.53570074 0 0)
(0.53745741 0 0)
(0.53923253 0 0)
(0.54100135 0 0)
(0.54273299 0 0)
(0.54439115 0 0)
(0.54593595 0 0)
(0.5473226 0 0)
(0.5485051 0 0)
(0.54944102 0 0)
(0.55008739 0 0)
(0.55039651 0 0)
(0.55032214 0 0)
(0.54982541 0 0)
(0.54887013 0 0)
(0.54741116 0 0)
(0.5453927 0 0)
(0.54276557 0 0)
(0.5394953 0 0)
(0.53553875 0 0)
(0.53082689 0 0)
(0.52530018 0 0)
(0.51893185 0 0)
(0.51168316 0 0)
(0.50347059 0 0)
(0.49423205 0 0)
(0.48395077 0 0)
(0.4725704 0 0)
(0.45996859 0 0)
(0.44596322 0 0)
(0.43045797 0 0)
(0.4134559 0 0)
(0.39486519 0 0)
(0.37446732 0 0)
(0.35217378 0 0)
(0.32798103 0 0)
(0.30173733 0 0)
(0.27326099 0 0)
(0.24244446 0 0)
(0.20921169 0 0)
(0.17337861 0 0)
(0.13468418 0 0)
(0.092955095 0 0)
(0.048062373 0 0)
(0 0 0)
(0.52865365 0 0)
(0.53044718 0 0)
(0.53228423 0 0)
(0.53415079 0 0)
(0.53603147 0 0)
(0.53790817 0 0)
(0.53975854 0 0)
(0.54155606 0 0)
(0.54327254 0 0)
(0.54487905 0 0)
(0.54634357 0 0)
(0.54762886 0 0)
(0.54869594 0 0)
(0.54950612 0 0)
(0.55002125 0 0)
(0.55020736 0 0)
(0.55002682 0 0)
(0.54944059 0 0)
(0.5484134 0 0)
(0.54691431 0 0)
(0.54490527 0 0)
(0.54233967 0 0)
(0.5391731 0 0)
(0.53537333 0 0)
(0.53090053 0 0)
(0.52569682 0 0)
(0.51970971 0 0)
(0.51291058 0 0)
(0.50526028 0 0)
(0.49668569 0 0)
(0.48712439 0 0)
(0.47654083 0 0)
(0.46488988 0 0)
(0.45205985 0 0)
(0.43789841 0 0)
(0.42232518 0 0)
(0.40532641 0 0)
(0.38680965 0 0)
(0.36656821 0 0)
(0.34450547 0 0)
(0.32060968 0 0)
(0.2947563 0 0)
(0.26679214 0 0)
(0.23658762 0 0)
(0.20403745 0 0)
(0.16900759 0 0)
(0.13128416 0 0)
(0.090647412 0 0)
(0.046885599 0 0)
(0 0 0)
(0.52855738 0 0)
(0.5303444 0 0)
(0.53217603 0 0)
(0.53403894 0 0)
(0.5359185 0 0)
(0.53779741 0 0)
(0.53965363 0 0)
(0.54146005 0 0)
(0.54318769 0 0)
(0.54480716 0 0)
(0.54628567 0 0)
(0.54758537 0 0)
(0.54866708 0 0)
(0.54949195 0 0)
(0.55002141 0 0)
(0.55022075 0 0)
(0.55005273 0 0)
(0.54947843 0 0)
(0.54846249 0 0)
(0.54697414 0 0)
(0.54497613 0 0)
(0.54242138 0 0)
(0.53926449 0 0)
(0.53547306 0 0)
(0.53100848 0 0)
(0.5258127 0 0)
(0.51983208 0 0)
(0.51303784 0 0)
(0.50539227 0 0)
(0.49682248 0 0)
(0.48726547 0 0)
(0.47668737 0 0)
(0.46504038 0 0)
(0.45221293 0 0)
(0.43805259 0 0)
(0.42247768 0 0)
(0.40547444 0 0)
(0.38695172 0 0)
(0.36670214 0 0)
(0.34462862 0 0)
(0.32072108 0 0)
(0.29485549 0 0)
(0.26687948 0 0)
(0.23666359 0 0)
(0.20410224 0 0)
(0.16905909 0 0)
(0.13131918 0 0)
(0.090665401 0 0)
(0.046891438 0 0)
(0 0 0)
(0.52847754 0 0)
(0.53025171 0 0)
(0.53207222 0 0)
(0.53392633 0 0)
(0.53580024 0 0)
(0.53767751 0 0)
(0.53953642 0 0)
(0.54134974 0 0)
(0.54308803 0 0)
(0.54472103 0 0)
(0.54621522 0 0)
(0.54753233 0 0)
(0.54863272 0 0)
(0.54947706 0 0)
(0.55002699 0 0)
(0.55024671 0 0)
(0.55009862 0 0)
(0.54954444 0 0)
(0.54854882 0 0)
(0.5470805 0 0)
(0.5451024 0 0)
(0.54256754 0 0)
(0.53942998 0 0)
(0.53565642 0 0)
(0.53120876 0 0)
(0.52602935 0 0)
(0.52006398 0 0)
(0.51328286 0 0)
(0.50564906 0 0)
(0.4970905 0 0)
(0.48754427 0 0)
(0.47697723 0 0)
(0.46533889 0 0)
(0.45251854 0 0)
(0.43836249 0 0)
(0.42278711 0 0)
(0.40577939 0 0)
(0.38724993 0 0)
(0.36699025 0 0)
(0.34490255 0 0)
(0.32097873 0 0)
(0.29509468 0 0)
(0.26709769 0 0)
(0.23685866 0 0)
(0.2042727 0 0)
(0.1692007 0 0)
(0.1314254 0 0)
(0.090732784 0 0)
(0.046923069 0 0)
(0 0 0)
(0.52839721 0 0)
(0.53015259 0 0)
(0.53195688 0 0)
(0.53379784 0 0)
(0.53566232 0 0)
(0.53753464 0 0)
(0.53939381 0 0)
(0.54121289 0 0)
(0.54296213 0 0)
(0.54461035 0 0)
(0.54612307 0 0)
(0.54746171 0 0)
(0.54858613 0 0)
(0.54945655 0 0)
(0.55003423 0 0)
(0.55028285 0 0)
(0.55016424 0 0)
(0.5496399 0 0)
(0.54867471 0 0)
(0.54723702 0 0)
(0.54528962 0 0)
(0.5427851 0 0)
(0.53967718 0 0)
(0.53593196 0 0)
(0.53151157 0 0)
(0.52635812 0 0)
(0.5204168 0 0)
(0.51365744 0 0)
(0.50604367 0 0)
(0.49750348 0 0)
(0.48797405 0 0)
(0.47742382 0 0)
(0.46579952 0 0)
(0.45299026 0 0)
(0.43884106 0 0)
(0.42326674 0 0)
(0.40625487 0 0)
(0.38771685 0 0)
(0.36744391 0 0)
(0.34533866 0 0)
(0.32139364 0 0)
(0.2954836 0 0)
(0.26745516 0 0)
(0.23718037 0 0)
(0.20455546 0 0)
(0.16943758 0 0)
(0.13160656 0 0)
(0.090852249 0 0)
(0.046981881 0 0)
(0 0 0)
(0.52831471 0 0)
(0.53004515 0 0)
(0.53182792 0 0)
(0.53365121 0 0)
(0.5355024 0 0)
(0.53736655 0 0)
(0.53922353 0 0)
(0.54104697 0 0)
(0.54280696 0 0)
(0.54447153 0 0)
(0.54600527 0 0)
(0.54736926 0 0)
(0.54852279 0 0)
(0.54942541 0 0)
(0.55003834 0 0)
(0.55032419 0 0)
(0.55024411 0 0)
(0.54975942 0 0)
(0.54883503 0 0)
(0.5474385 0 0)
(0.54553218 0 0)
(0.54306855 0 0)
(0.54000102 0 0)
(0.53629469 0 0)
(0.53191149 0 0)
(0.52679358 0 0)
(0.52088566 0 0)
(0.51415686 0 0)
(0.50657092 0 0)
(0.49805617 0 0)
(0.48855012 0 0)
(0.47802206 0 0)
(0.46641691 0 0)
(0.45362335 0 0)
(0.43948383 0 0)
(0.42391178 0 0)
(0.40689606 0 0)
(0.38834879 0 0)
(0.36806014 0 0)
(0.34593327 0 0)
(0.32196203 0 0)
(0.29601911 0 0)
(0.26794921 0 0)
(0.23762604 0 0)
(0.20494796 0 0)
(0.1697678 0 0)
(0.13186141 0 0)
(0.091022814 0 0)
(0.047067333 0 0)
(0 0 0)
(0.52822598 0 0)
(0.52992494 0 0)
(0.53168052 0 0)
(0.53348136 0 0)
(0.53531524 0 0)
(0.53716789 0 0)
(0.53902001 0 0)
(0.54084613 0 0)
(0.54261638 0 0)
(0.54429777 0 0)
(0.54585446 0 0)
(0.54724735 0 0)
(0.54843492 0 0)
(0.54937582 0 0)
(0.55003107 0 0)
(0.55036256 0 0)
(0.55033027 0 0)
(0.54989493 0 0)
(0.5490214 0 0)
(0.54767677 0 0)
(0.54582248 0 0)
(0.5434103 0 0)
(0.54039345 0 0)
(0.53673671 0 0)
(0.53240133 0 0)
(0.52732863 0 0)
(0.52146298 0 0)
(0.51477362 0 0)
(0.50722414 0 0)
(0.49874207 0 0)
(0.48926534 0 0)
(0.47876517 0 0)
(0.46718467 0 0)
(0.45441085 0 0)
(0.44028384 0 0)
(0.42471603 0 0)
(0.40769738 0 0)
(0.38913986 0 0)
(0.36883295 0 0)
(0.34668148 0 0)
(0.32267949 0 0)
(0.29669665 0 0)
(0.26857544 0 0)
(0.23819207 0 0)
(0.20544724 0 0)
(0.17018863 0 0)