/*--------------------------------*- C++ -*----------------------------------*\
| =========                 |                                                 |
| \\      /  F ield         | OpenFOAM: The Open Source CFD Toolbox           |
|  \\    /   O peration     | Version:  v2012                                 |
|   \\  /    A nd           | Website:  www.openfoam.com                      |
|    \\/     M anipulation  |                                                 |
\*---------------------------------------------------------------------------*/
FoamFile
{
    version     2.0;
    format      ascii;
    class       surfaceVectorField;
    location    "76.2183595797693272";
    object      Uf;
}
// * * * * * * * * * * * * * * * * * * * * * * * * * * * * * * * * * * * * * //

dimensions      [0 1 -1 0 0 0 0];


internalField   nonuniform List<vector> 
18180
(
(2.6587064 0.0017220202 2.5771929e-23)
(2.6574798 0.00047608066 -3.4402213e-22)
(2.6588228 0.0036815747 1.0155418e-22)
(2.657198 0.0014851336 1.284414e-22)
(2.6567175 0.00029835411 -2.2109355e-22)
(2.6572322 -5.9551206e-05 -5.1295017e-22)
(2.6589589 0.0060521049 1.7150625e-22)
(2.6569465 0.0029396531 3.4826567e-22)
(2.6562069 0.00083092763 3.77604e-22)
(2.6567258 -0.00036028992 2.3171203e-22)
(2.6570368 -0.00072601536 -3.7283179e-23)
(2.6578137 -0.00043849608 -1.6803202e-22)
(2.6589509 0.0090591488 1.4514269e-22)
(2.6562641 0.0046436972 -6.8797154e-23)
(2.6553453 0.0016535072 1.0270362e-22)
(2.6561671 -0.00011718492 4.6865732e-22)
(2.6564194 -0.0012609549 3.3257851e-22)
(2.6571846 -0.0019710569 -9.9679625e-23)
(2.6579618 -0.0017507866 -2.2436023e-22)
(2.6591672 -0.00073832363 2.0884366e-22)
(2.6587513 0.012888125 7.0085587e-23)
(2.6551945 0.0071516025 -4.8145202e-23)
(2.653925 0.0029234047 -2.4736282e-22)
(2.6549782 0.00012566068 -2.5749184e-22)
(2.6554189 -0.0015988003 7.9457983e-23)
(2.656478 -0.0027795987 1.3759124e-22)
(2.6572567 -0.0034621441 -2.7476528e-22)
(2.6585999 -0.0035109432 -7.6321091e-22)
(2.6597585 -0.0026370611 -3.6021708e-22)
(2.6611348 -0.00099706274 1.2220228e-22)
(2.6582287 0.017709653 1.2871392e-23)
(2.6535616 0.010269257 -2.009564e-22)
(2.6518596 0.004755405 -3.1742593e-22)
(2.6532114 0.0010348111 -1.7435593e-22)
(2.6537351 -0.0016523998 -1.8745959e-22)
(2.6550337 -0.0038550256 2.4817102e-23)
(2.6561049 -0.0050428758 7.778685e-23)
(2.657877 -0.0053374817 9.0171277e-23)
(2.6591602 -0.0053806132 -3.679798e-22)
(2.6607896 -0.0047782691 -5.8298942e-22)
(2.6621345 -0.0033410507 -1.2823375e-22)
(2.663541 -0.0012033973 -1.5534157e-22)
(2.6572586 0.02368341 -1.0383808e-22)
(2.6512209 0.014369177 -2.0076087e-23)
(2.6489858 0.0072358586 -2.0323341e-22)
(2.6506913 0.0022855345 -1.9414954e-22)
(2.6513219 -0.001307318 -5.6362044e-23)
(2.6528552 -0.0043907672 -3.7334063e-22)
(2.654172 -0.006526055 -1.7351386e-22)
(2.6564391 -0.0077275565 -3.2143345e-22)
(2.6581142 -0.0080986089 -3.1589968e-22)
(2.6601976 -0.0074935174 1.386281e-22)
(2.6617831 -0.0069011839 -5.7655857e-23)
(2.6635319 -0.0056856627 2.0483407e-22)
(2.6649103 -0.0038017044 1.8486025e-22)
(2.6661836 -0.0013187247 -7.7857358e-23)
(2.6556937 0.030932609 -1.5293113e-22)
(2.6480375 0.019358556 -3.3859572e-22)
(2.6451753 0.010412203 -2.1524301e-22)
(2.6472915 0.0042350805 2.60772e-22)
(2.6480344 -0.00052590028 2.7665638e-22)
(2.6498244 -0.0048037957 1.3555485e-22)
(2.6513868 -0.0078145346 -1.5957103e-22)
(2.6541634 -0.0097371501 -1.7008503e-22)
(2.6562889 -0.010930136 -3.1049601e-22)
(2.6590257 -0.011065295 -4.4602823e-22)
(2.6610395 -0.010599989 -1.6427618e-23)
(2.6632448 -0.0091167484 9.7577587e-23)
(2.6649493 -0.007923903 3.4971483e-22)
(2.6665962 -0.0061781548 3.6144914e-22)
(2.667857 -0.0039839771 1.1458815e-22)
(2.6688565 -0.0013210258 -1.9338807e-22)
(2.6533577 0.039564199 1.1353891e-22)
(2.6438359 0.025378611 2.4389e-22)
(2.6402932 0.014265455 1.003419e-22)
(2.6429419 0.0067145182 -1.969888e-22)
(2.6437944 0.00075700003 2.765325e-22)
(2.6457672 -0.0047140703 1.1480673e-22)
(2.6476041 -0.0088567587 -2.7910694e-23)
(2.6509598 -0.011856692 1.7840194e-22)
(2.6535436 -0.013790875 1.7369435e-22)
(2.6569599 -0.014470675 4.6333574e-22)
(2.6595886 -0.014654477 3.4670613e-22)
(2.6625988 -0.013681898 4.0199645e-22)
(2.6647369 -0.012392642 5.1726342e-22)
(2.6667975 -0.01010496 1.8862094e-22)
(2.6684165 -0.0083910069 1.9790093e-22)
(2.669758 -0.0062303894 1.2875349e-22)
(2.6707629 -0.0038755659 -1.6372676e-22)
(2.6713662 -0.001205918 -2.103568e-22)
(2.6500359 0.049654373 8.7598989e-23)
(2.6384335 0.032346787 -1.944199e-22)
(2.6341975 0.018708077 -7.5450351e-23)
(2.6375556 0.0097987946 1.9071559e-22)
(2.6385743 0.0025273973 -7.0413642e-23)
(2.6406912 -0.0042681207 5.4645347e-22)
(2.6427523 -0.0095740945 3.9131386e-22)
(2.6466091 -0.013677517 -5.9478971e-22)
(2.6497105 -0.016622308 -4.051578e-22)
(2.6539224 -0.018246316 -1.2463213e-22)
(2.6571878 -0.019013998 1.4575957e-22)
(2.6610698 -0.018361889 4.0527349e-23)
(2.6639678 -0.017493665 8.8700386e-23)
(2.6669361 -0.015425357 1.4616483e-22)
(2.6689551 -0.013373295 -1.7110562e-22)
(2.6706198 -0.010392865 3.5118787e-22)
(2.6719573 -0.0082672126 2.8791197e-22)
(2.6727987 -0.0058313222 -6.1219021e-22)
(2.6734277 -0.0034718392 -6.6344992e-22)
(2.6735361 -0.00097486428 4.6351409e-22)
(2.6454555 0.061255363 1.8204124e-22)
(2.6316026 0.040210222 -5.0559363e-22)
(2.6267386 0.023556237 -8.5621696e-22)
(2.6311075 0.013304508 4.6531955e-22)
(2.6323941 0.004716179 7.6608435e-22)
(2.6345798 -0.0033527752 -6.1876421e-22)
(2.6368516 -0.0099234864 -4.1548698e-23)
(2.6411403 -0.015278527 1.9632244e-22)
(2.6446795 -0.019298446 -7.36991e-22)
(2.6496072 -0.021971332 -2.5520843e-22)
(2.6536141 -0.023625186 1.3685904e-23)
(2.6585734 -0.023725835 6.3613985e-22)
(2.6622913 -0.023236767 5.4386753e-22)
(2.6662929 -0.021202507 -6.2178276e-22)
(2.6691764 -0.01928951 -5.7829675e-22)
(2.6717899 -0.01618275 -1.1059539e-21)
(2.6734475 -0.013464857 -6.2454735e-22)
(2.6744676 -0.0099396915 7.7241915e-23)
(2.6753379 -0.0075355554 -7.807951e-22)
(2.6755139 -0.0049839068 -1.188269e-22)
(2.6756739 -0.0027738685 9.6036009e-22)
(2.6752093 -0.00059886843 5.2264736e-23)
(2.6392779 0.074376835 -9.9592613e-23)
(2.6230883 0.048797041 5.9228874e-22)
(2.6177584 0.028523283 -1.7281441e-22)
(2.6235803 0.01705007 -7.7857742e-22)
(2.6253444 0.0071652631 5.1461072e-22)
(2.6275478 -0.002083184 8.1470549e-22)
(2.6299948 -0.0098821257 -4.9967649e-22)
(2.6345472 -0.016467839 -5.8938947e-23)
(2.6384531 -0.021678404 1.7022363e-22)
(2.6439968 -0.02564653 -5.8329582e-22)
(2.6486639 -0.02832923 -1.2349564e-22)
(2.6546841 -0.029382676 4.5077454e-22)
(2.6594082 -0.029604703 1.0484062e-21)
(2.6647683 -0.028037702 8.2770177e-22)
(2.6686332 -0.026236749 -2.7480722e-22)
(2.6723886 -0.022809626 -4.1326925e-22)
(2.674957 -0.019900276 -9.1177098e-22)
(2.676884 -0.015866068 -7.6465171e-22)
(2.6779426 -0.012613413 -1.0040021e-22)
(2.6780946 -0.0087265374 -5.4471286e-22)
(2.6783329 -0.0062016006 8.6510758e-23)
(2.6777237 -0.0037120855 1.1781663e-21)
(2.6773399 -0.001778519 3.1921502e-22)
(2.6762446 -2.8489916e-05 -4.3013906e-22)
(2.6311022 0.088966233 6.6203864e-22)
(2.6126155 0.057874118 -3.2722832e-22)
(2.6071029 0.03321168 3.4632263e-22)
(2.6149961 0.020700603 -3.7807754e-22)
(2.617575 0.0096226786 -9.5658688e-22)
(2.6197633 -0.00055585739 3.8715795e-22)
(2.6223904 -0.0094816463 6.7015781e-22)
(2.6270087 -0.017211868 -5.4235028e-22)
(2.6311176 -0.023601909 -1.2447154e-22)
(2.6370235 -0.028991458 4.0921468e-22)
(2.6422497 -0.032907471 -3.0287469e-22)
(2.6492851 -0.035279703 -3.7572556e-22)
(2.6549903 -0.036445613 1.6540472e-22)
(2.6618036 -0.035623742 -2.7106083e-23)
(2.66695 -0.034271908 -2.5349238e-22)
(2.672309 -0.030911704 6.2607037e-22)
(2.6759712 -0.027778566 5.1092622e-22)
(2.6790576 -0.023012159 4.0348713e-22)
(2.6809953 -0.019204487 5.6369759e-22)
(2.6819175 -0.014416962 -8.1287212e-22)
(2.6821609 -0.010794117 -1.2473516e-21)
(2.681259 -0.006760152 7.4379492e-22)
(2.6807477 -0.0042895497 1.7891591e-21)
(2.6792852 -0.0020531686 3.2433557e-22)
(2.6782855 -0.00049227782 -3.866822e-22)
(2.676521 0.00063042516 6.1698144e-22)
(2.6204526 0.10488149 6.2670741e-22)
(2.5999095 0.067107392 1.9997917e-21)
(2.5946149 0.03712671 1.1435346e-21)
(2.6053972 0.023832632 7.3800025e-22)
(2.609299 0.011733337 5.6193723e-23)
(2.6114957 0.0010103494 -4.5463018e-22)
(2.6143429 -0.0088077508 8.2938679e-22)
(2.6187761 -0.017432913 3.3252907e-22)
(2.6228968 -0.024904509 -8.1956373e-22)
(2.6288138 -0.031800499 -3.5503521e-22)
(2.634353 -0.03707722 1.4817843e-22)
(2.6421805 -0.041086308 9.1369302e-23)
(2.6488099 -0.043518291 2.8353247e-23)
(2.6571605 -0.043903527 6.6541046e-22)
(2.6636687 -0.043305268 4.904115e-22)
(2.6708716 -0.040321166 -3.5677283e-23)
(2.6760588 -0.037266034 8.0512278e-22)
(2.6808983 -0.032055821 7.9937813e-22)
(2.6839581 -0.027629089 7.0511773e-22)
(2.6859374 -0.021666762 5.0049039e-22)
(2.6869382 -0.017117774 -8.0770667e-22)
(2.6865758 -0.011819055 -7.3910459e-22)
(2.6858253 -0.0080234293 1.1582011e-21)
(2.6837401 -0.004087805 3.1091143e-22)
(2.682423 -0.0018471584 -1.1012165e-21)
(2.6800969 -5.2425175e-05 -7.7969114e-22)
(2.6784643 0.00093293154 1.6727806e-22)
(2.6760148 0.0012969008 3.0041535e-21)
(2.6065816 0.12182532 5.1547486e-22)
(2.584734 0.076115577 9.7919687e-22)
(2.5801357 0.039705914 2.2886548e-21)
(2.5948368 0.025930022 7.0759425e-22)
(2.6007829 0.013041654 3.1560843e-22)
(2.603088 0.0023302336 5.2004537e-22)
(2.6062666 -0.008006952 4.2194434e-23)
(2.6102357 -0.017115585 8.9802113e-22)
(2.6141278 -0.025427459 4.3162948e-22)
(2.6195728 -0.033797474 -1.1501665e-21)
(2.6250865 -0.040500471 -7.142e-22)
(2.6333511 -0.046468525 -1.0411668e-21)
(2.6406767 -0.050474801 -1.1093225e-21)
(2.6504698 -0.052563732 6.2178705e-22)
(2.6584045 -0.053141145 1.2360474e-21)
(2.6677228 -0.051034057 1.0404996e-21)
(2.6746549 -0.048388482 5.4797635e-22)
(2.6816417 -0.043014584 -3.4751644e-22)
(2.686383 -0.038187531 -3.6789904e-22)
(2.6901192 -0.031190436 -1.5596058e-22)
(2.6921567 -0.025592981 -3.6773581e-22)
(2.6926132 -0.018686798 -2.02744e-22)
(2.6924078 -0.013618471 -1.2818418e-22)
(2.6905502 -0.0081124403 1.0187694e-21)
(2.6886766 -0.0043770637 2.1330314e-22)
(2.6853595 -0.00080728888 -1.8940334e-21)
(2.6832144 0.0010033817 -1.6010214e-21)
(2.6800532 0.002213787 -7.4457666e-22)
(2.6777619 0.0024754879 1.935115e-21)
(2.6747189 0.0020069711 2.1970356e-21)
(2.5878604 0.13915565 3.3546672e-22)
(2.5668351 0.084394688 9.5142815e-22)
(2.5635518 0.040368006 1.3986185e-21)
(2.5833673 0.026402675 -3.7002989e-23)
(2.5923423 0.012989285 -1.5750746e-21)
(2.5949654 0.0030443487 -1.1620678e-22)
(2.5986733 -0.0072847067 7.1170402e-23)
(2.6018748 -0.016270504 5.7744691e-22)
(2.605272 -0.02502333 1.3909352e-21)
(2.6096447 -0.034705469 -4.3924503e-22)
(2.6146705 -0.0427974 -1.9550935e-21)
(2.622845 -0.050997963 -7.3004602e-22)
(2.6305095 -0.056873889 -1.0366721e-21)
(2.6415142 -0.061220362 -1.1063631e-21)
(2.6507665 -0.063450699 5.4085417e-22)
(2.6623145 -0.062833896 -6.4217455e-22)
(2.6712347 -0.061066396 -8.5864991e-22)
(2.6808543 -0.055990176 -3.7302989e-22)
(2.6876463 -0.05106323 -1.2337982e-21)
(2.6936683 -0.043218652 -1.0110839e-21)
(2.6974069 -0.036661663 -8.2362282e-22)
(2.6994431 -0.028100902 -4.3462708e-22)
(2.7000579 -0.021559448 -2.7445603e-22)
(2.6986449 -0.014072115 5.6887231e-23)
(2.6970251 -0.0087685001 1.148909e-21)
(2.6935561 -0.0034040753 -4.8994524e-22)
(2.6905005 1.0055582e-05 -2.5019576e-21)
(2.6859683 0.002952726 2.511415e-22)
(2.6830201 0.0042328559 1.0922438e-21)
(2.6790666 0.0046481573 -6.5351382e-22)
(2.6761976 0.0041132848 -4.4485125e-22)
(2.6726411 0.0027351485 -4.5110053e-21)
(2.5615055 0.15554131 -2.6874541e-22)
(2.5457064 0.091268903 -2.5996894e-21)
(2.5450955 0.038554237 -2.0606484e-21)
(2.5709744 0.024566169 8.8433719e-23)
(2.5842652 0.010924425 -1.3376749e-21)
(2.5876115 0.002686713 -1.6016786e-22)
(2.5921548 -0.0068978779 1.2154932e-21)
(2.5942829 -0.014948668 -8.3684764e-22)
(2.5968932 -0.023560116 -3.8728797e-22)
(2.5994782 -0.034239651 5.0638324e-22)
(2.6034443 -0.043558267 -1.2480492e-21)
(2.6108377 -0.054192652 -1.1487968e-21)
(2.6183156 -0.062192006 2.7231004e-23)
(2.6301141 -0.069379218 1.9889515e-21)
(2.6404407 -0.073784089 1.9731277e-21)
(2.6542183 -0.075377706 4.1838152e-21)
(2.6652163 -0.075076685 3.115712e-21)
(2.6778383 -0.070940448 -2.0923923e-21)
(2.6871303 -0.066354353 -1.646749e-21)
(2.6961311 -0.05799653 -3.3357475e-22)
(2.7020731 -0.050687871 -1.0153e-22)
(2.7063047 -0.040510063 9.749306e-22)
(2.7084672 -0.032416177 1.3702016e-21)
(2.7082621 -0.022692883 6.1881028e-22)
(2.7071177 -0.015542234 9.4735379e-22)
(2.7036038 -0.0079292165 1.1904062e-21)
(2.7004477 -0.0027237108 -3.6274443e-22)
(2.6953552 0.0021299575 -2.3098546e-21)
(2.6911501 0.0049743175 3.0657343e-22)
(2.6855165 0.0070493922 3.3754629e-21)
(2.6818047 0.0076276726 1.7531195e-21)
(2.6771652 0.0071606154 2.0552924e-22)
(2.6737998 0.0057745454 -3.6452432e-21)
(2.6698264 0.0034494837 -4.1711008e-21)
(2.525781 0.16911615 -9.5985035e-22)
(2.5200015 0.095386445 -2.7027571e-21)
(2.5250927 0.033634408 -4.9544609e-21)
(2.5576434 0.019882932 -2.0091651e-21)
(2.5765482 0.0061555975 -5.149947e-23)
(2.5814111 0.00079640197 6.9732882e-22)
(2.5872716 -0.0071378751 1.7741798e-21)
(2.5881109 -0.013244068 2.4024521e-21)
(2.5896375 -0.020915879 4.6278196e-22)
(2.589614 -0.032127056 -6.2493621e-23)
(2.5918433 -0.042358014 7.8900927e-22)
(2.5976037 -0.055537453 -1.0382143e-21)
(2.6042086 -0.065843034 -9.4067125e-22)
(2.6161989 -0.07644863 5.7647386e-22)
(2.6271743 -0.083577946 2.4376017e-21)
(2.6430028 -0.088206515 3.5102022e-21)
(2.6560541 -0.090057942 5.6321421e-21)
(2.6719775 -0.087652515 4.7564752e-21)
(2.6841036 -0.084023815 -1.6297319e-22)
(2.6967212 -0.075722369 -3.4476321e-22)
(2.7055186 -0.067991573 9.2131447e-22)
(2.7128049 -0.056316652 -3.7717706e-22)
(2.7171069 -0.04672995 6.3477866e-22)
(2.7187405 -0.034619494 2.8128257e-22)
(2.7188043 -0.025353062 -4.4208075e-22)
(2.7159442 -0.015033767 1.3987873e-21)
(2.7128056 -0.0077016311 1.6433452e-21)
(2.7071116 -0.00048146427 1.0109581e-21)
(2.7024131 0.0042506372 -8.1665498e-22)
(2.6958028 0.0082571423 -2.1967037e-21)
(2.690532 0.010308775 6.7898389e-22)
(2.6839594 0.011319153 3.7912358e-22)
(2.6795848 0.011075143 -1.1114212e-21)
(2.6743992 0.0096629565 2.2123595e-21)
(2.6706294 0.0073993663 1.8032471e-21)
(2.666346 0.0041281439 5.4104199e-21)
(2.4820347 0.17825244 4.0398936e-22)
(2.4897923 0.094968906 -8.6346466e-22)
(2.5038447 0.02412367 -2.4319359e-21)
(2.5446329 0.011553426 -2.7072835e-21)
(2.5703019 -0.0017268107 8.332736e-23)
(2.5760645 -0.0032593635 7.6721596e-23)
(2.5840629 -0.0084085326 8.0618734e-22)
(2.5841078 -0.011199828 8.3009797e-22)
(2.5843408 -0.016984076 1.4119526e-21)
(2.5806612 -0.028082854 2.8092676e-21)
(2.5803839 -0.038771291 2.3472078e-21)
(2.5835086 -0.054500515 1.3354439e-21)
(2.5883943 -0.067202811 -4.0440575e-22)
(2.5997888 -0.08178145 -2.6551843e-21)
(2.6108074 -0.092178331 -1.2510301e-21)
(2.6283217 -0.10072276 1.6555846e-21)
(2.6432282 -0.10550777 2.6619662e-21)
(2.6625996 -0.10580347 1.7889538e-22)
(2.67782 -0.10389199 -7.3609746e-22)
(2.6946909 -0.096395033 1.2942156e-21)
(2.7069374 -0.088790327 1.1374411e-21)
(2.7181585 -0.076003992 -1.3302049e-21)
(2.725418 -0.065059024 -2.5984014e-21)
(2.7298373 -0.05039312 -3.5564135e-21)
(2.7317214 -0.038882489 -3.9507028e-21)
(2.730072 -0.025507988 9.129304e-22)
(2.7276267 -0.015597757 2.6862695e-21)
(2.7218988 -0.0053755023 -1.2212274e-22)
(2.7166736 0.0015986993 -7.5004243e-22)
(2.7089012 0.0079416731 -1.440085e-21)
(2.7027376 0.011902578 -2.759835e-21)
(2.6948019 0.014709814 -2.7281696e-21)
(2.6886263 0.015780202 -3.0655697e-21)
(2.6813283 0.015591845 -2.0358394e-21)
(2.6764242 0.014451693 1.1059938e-21)
(2.670849 0.012070118 2.5498903e-21)
(2.6667766 0.0089333986 5.9863858e-21)
(2.6622916 0.0047500924 3.8005929e-21)
(2.4341309 0.18212379 6.3762786e-22)
(2.4565855 0.089190235 8.4720806e-22)
(2.4817128 0.009066264 -3.4903917e-22)
(2.5314589 -0.0016818688 -8.3427582e-22)
(2.5660141 -0.013800331 -1.0707003e-21)
(2.5747814 -0.009918386 1.4841272e-21)
(2.5844577 -0.01135661 1.553053e-21)
(2.5827154 -0.009334656 -1.0739856e-21)
(2.5820932 -0.011731099 -1.0808213e-21)
(2.5734433 -0.0218616 1.0889825e-21)
(2.5696747 -0.032388143 2.4109597e-21)
(2.5689921 -0.050537989 3.1795627e-21)
(2.5711603 -0.06563757 2.2004475e-21)
(2.5809993 -0.08468927 -7.676516e-22)
(2.5912733 -0.09887258 -2.8983185e-21)
(2.6099106 -0.11224692 -1.0365408e-21)
(2.6262945 -0.12080008 1.7138747e-21)
(2.6490807 -0.12488776 -6.1461681e-22)
(2.6675053 -0.12561503 -3.0229268e-21)
(2.6891673 -0.11993011 -4.0911025e-21)
(2.7054464 -0.11317844 -2.2154198e-21)
(2.7215795 -0.099849539 5.1758352e-22)
(2.7326295 -0.087919872 -1.8220863e-21)
(2.7408814 -0.070790755 -1.5860526e-22)
(2.7454974 -0.056902857 -1.0159198e-21)
(2.7459816 -0.039974669 -5.6004215e-21)
(2.7447787 -0.027155174 -1.0075641e-21)
(2.7393975 -0.013414194 5.5724096e-22)
(2.7342068 -0.0035274776 -2.1426545e-21)
(2.7256119 0.0058482472 -5.1472839e-22)
(2.7184059 0.012036096 -1.1694197e-21)
(2.7087856 0.016950858 -3.4273105e-21)
(2.7013465 0.019822049 -3.407584e-21)
(2.6923759 0.021211223 -7.593569e-22)
(2.6854959 0.021166527 2.5439129e-22)
(2.6777083 0.019712278 1.3934927e-21)
(2.6724239 0.017645103 2.7689367e-21)
(2.6666181 0.014310901 -6.6414216e-23)
(2.6623471 0.010334819 -2.2351741e-21)
(2.6577658 0.0053064035 -5.2452061e-21)
(2.3852834 0.18087462 -1.879343e-21)
(2.4227333 0.077813958 -4.8376414e-22)
(2.4588807 -0.011909509 -3.7630773e-22)
(2.5186258 -0.020186413 1.2942183e-21)
(2.5633573 -0.030568046 8.3821442e-22)
(2.5762112 -0.019489952 -1.9225902e-22)
(2.5896078 -0.015623968 2.2941198e-21)
(2.5850565 -0.0075931912 1.2847834e-21)
(2.5826259 -0.0055329283 -1.2282433e-21)
(2.5692413 -0.013301163 -3.8143947e-21)
(2.5607637 -0.022744055 -1.796135e-21)
(2.5545546 -0.043191646 -3.5641652e-21)
(2.5528372 -0.060531152 -2.9456661e-21)
(2.5600334 -0.08449139 3.9022262e-21)
(2.5686037 -0.10292921 1.1218601e-21)
(2.5876131 -0.12203092 -4.3492276e-21)
(2.6049086 -0.13521525 -2.6162925e-21)
(2.6308601 -0.14428018 2.8966663e-21)
(2.6524234 -0.14868309 6.947795e-22)
(2.6792657 -0.14602128 -2.5291052e-21)
(2.7000574 -0.14108295 -3.5354247e-21)
(2.722078 -0.12811125 -1.9850101e-21)
(2.737834 -0.11576202 6.2648039e-22)
(2.7511817 -0.096401846 3.4048242e-21)
(2.7595336 -0.080229106 5.0603344e-21)
(2.7632354 -0.059462517 8.5799198e-22)
(2.7641755 -0.043288188 -3.4833976e-21)
(2.7599087 -0.025211388 -1.6410902e-21)
(2.755155 -0.011928183 -1.6498895e-22)
(2.7459167 0.001133101 -2.727061e-21)
(2.7380001 0.010258513 -1.1931975e-21)
(2.7268252 0.018077849 1.5307455e-21)
(2.7178282 0.022995076 -5.70838e-22)
(2.706735 0.026127651 -6.9132266e-22)
(2.6982909 0.02766902 1.8652784e-21)
(2.6886194 0.027502826 6.5566574e-22)
(2.6812594 0.026271402 1.7434518e-21)
(2.6732235 0.02354924 9.3046311e-22)
(2.6677103 0.020565664 -1.7900508e-21)
(2.6618244 0.016331646 -7.7356574e-22)
(2.6574559 0.011579559 -3.6090577e-21)
(2.6528731 0.0057941868 -2.6759949e-21)
(2.3383478 0.17449923 -2.897729e-22)
(2.3907936 0.061146027 -1.3927586e-21)
(2.4372926 -0.038396641 -5.9779655e-23)
(2.5064834 -0.044339835 2.5478142e-21)
(2.5627969 -0.052404547 4.1615815e-21)
(2.5809281 -0.032552845 -4.3320284e-22)
(2.5990684 -0.021712964 -1.3887626e-21)
(2.5918722 -0.0055341711 1.0539166e-21)
(2.5866389 0.0024532194 8.1161141e-23)
(2.5664716 -0.0021317399 2.3506836e-22)
(2.5534447 -0.0093222048 -2.197677e-21)
(2.5411003 -0.031779962 3.5085584e-21)
(2.5338085 -0.051292202 1.9499088e-21)
(2.5371418 -0.08056235 1.0324706e-21)
(2.5429199 -0.10364416 7.5719534e-21)
(2.5613986 -0.12932806 -2.1331367e-21)
(2.5788642 -0.14798726 -7.3800155e-21)
(2.6074967 -0.16323334 1.558132e-21)
(2.6319268 -0.17243192 6.8504941e-21)
(2.6641121 -0.17420064 2.37701e-21)
(2.6897449 -0.17223171 -6.5388491e-22)
(2.718566 -0.16081424 6.3983225e-22)
(2.7399288 -0.14890882 2.1773926e-21)
(2.7597767 -0.12791139 5.1445514e-21)
(2.7730653 -0.10970574 7.847434e-21)
(2.7813988 -0.084846778 7.5749676e-21)
(2.7855358 -0.065047168 3.6075616e-21)
(2.7833309 -0.041943831 2.3659026e-21)
(2.7797726 -0.024517213 4.2063054e-21)
(2.7703677 -0.0067078185 3.9282e-21)
(2.7619173 0.005986422 1.5522749e-21)
(2.7490817 0.017353543 -2.5013876e-21)
(2.7386614 0.02506771 6.3684444e-23)
(2.7253688 0.030685315 3.8952373e-21)
(2.714942 0.033948337 3.8499316e-21)
(2.7028452 0.035060213 5.6669144e-22)
(2.6937136 0.035126753 -6.0192353e-22)
(2.6836892 0.033364167 1.5128367e-21)
(2.6760792 0.030936919 7.3735092e-22)
(2.6680226 0.027002823 3.9204025e-22)
(2.6624251 0.023149601 1.3907775e-21)
(2.6565943 0.018096488 2.2436944e-23)
(2.6522193 0.012650233 9.6419194e-22)
(2.6477159 0.0062079875 1.095471e-21)
(2.2958331 0.16364154 3.3695898e-21)
(2.3626174 0.03974066 1.2800421e-21)
(2.4189199 -0.069750492 2.5709938e-22)
(2.4967858 -0.073613886 -3.811989e-21)
(2.5643768 -0.0794386 -1.3828225e-21)
(2.588945 -0.049366488 3.0440023e-21)
(2.613036 -0.029989726 -1.2687192e-21)
(2.6036793 -0.0036980629 -2.3441099e-21)
(2.5957409 0.012251405 -9.9224493e-24)
(2.5674722 0.011944884 8.4421339e-22)
(2.5479585 0.0078846554 1.001837e-21)
(2.5278685 -0.015936209 7.6189183e-21)
(2.5143643 -0.037188526 1.3201846e-20)
(2.5126189 -0.072238576 9.2811419e-21)
(2.5143673 -0.1003868 8.5001033e-21)
(2.5313434 -0.13341781 1.0378917e-20)
(2.5480987 -0.15835658 1.2059541e-21)
(2.5787125 -0.180948 -1.0540667e-20)
(2.6055183 -0.19607679 -2.10173e-21)
(2.6429271 -0.20379956 -1.5924316e-21)
(2.6735055 -0.20613267 -5.9689984e-21)
(2.7098717 -0.1978043 -1.2502326e-20)
(2.7376662 -0.18749478 -1.1455439e-20)
(2.765511 -0.1658113 -1.1668741e-20)
(2.7850576 -0.14615237 -9.0693878e-21)
(2.799744 -0.11726443 4.4022453e-21)
(2.8084419 -0.093627633 4.0898218e-21)
(2.8096371 -0.064663411 6.6036474e-21)
(2.8082167 -0.04242988 5.4711414e-21)
(2.7992587 -0.0188319 2.8304078e-21)
(2.7907665 -0.001526882 2.5387925e-21)
(2.7763491 0.014502409 2.2270234e-21)
(2.7644381 0.025673754 -1.6082222e-21)
(2.7485756 0.03432595 2.4498225e-22)
(2.7360989 0.040019279 3.8860473e-21)
(2.7213328 0.043037825 3.7336786e-22)
(2.70992 0.044396116 -2.7978953e-21)
(2.6973178 0.043393575 1.6587008e-21)
(2.6878307 0.04193589 3.7015635e-21)
(2.6777849 0.038625788 2.5897493e-21)
(2.6701427 0.035050116 2.2904072e-21)
(2.662266 0.030006308 3.4168744e-21)
(2.6567139 0.025358601 2.1488277e-21)
(2.651052 0.01958675 -1.4261709e-21)
(2.6467485 0.013538619 -1.3382408e-21)
(2.6423907 0.0065454386 0)
(2.258519 0.1495003 3.9725487e-21)
(2.3371146 0.015086592 1.9865043e-21)
(2.4025465 -0.10470946 -1.9566696e-23)
(2.488974 -0.10669112 7.0160286e-21)
(2.567061 -0.11047894 3.2904354e-21)
(2.5980169 -0.06979015 1.1163406e-20)
(2.6292431 -0.040643729 1.5629467e-20)
(2.6202512 -0.0019642799 -2.7088869e-21)
(2.6099362 0.023878217 -3.7415434e-21)
(2.5727022 0.029083691 -8.4344772e-23)
(2.5455198 0.029307719 7.2520318e-22)
(2.5160559 0.0044162035 -1.1934604e-20)
(2.4947341 -0.018108592 -5.8764077e-21)
(2.4866249 -0.059024356 9.6663164e-22)
(2.4831094 -0.09257542 -2.9488322e-21)
(2.4975176 -0.1336542 1.3305947e-20)
(2.5126249 -0.16559029 1.5165628e-20)
(2.5443395 -0.19655988 -3.4400825e-24)
(2.5728334 -0.21871413 -1.1178025e-20)
(2.6150228 -0.23397065 -4.7033229e-21)
(2.6503767 -0.24204694 -4.2603183e-21)
(2.6947926 -0.23866221 -3.2992882e-21)
(2.7296644 -0.23140964 -9.4587859e-21)
(2.767027 -0.21046079 -1.2724321e-20)
(2.7942199 -0.19027882 -1.2946201e-20)
(2.8172747 -0.15774831 -1.1434001e-20)
(2.8321806 -0.13035661 1.3005423e-21)
(2.8385667 -0.094883212 1.7357796e-21)
(2.8406142 -0.06706238 4.0863388e-21)
(2.8330758 -0.036271274 -7.1141632e-21)
(2.825192 -0.013351425 -9.8173829e-21)
(2.809352 0.0085740514 4.5970628e-21)
(2.7960605 0.024297445 4.3378119e-21)
(2.7773298 0.037104877 -2.6011573e-21)
(2.7624639 0.045814685 -8.5680382e-22)
(2.7444357 0.051098457 2.3655925e-21)
(2.7305094 0.05434406 -9.9331974e-22)
(2.7149787 0.054577281 -5.5784832e-21)
(2.7030557 0.053924628 -1.3897953e-21)
(2.6904287 0.050852939 -1.5170748e-21)
(2.6809033 0.047910006 -2.6548867e-21)
(2.6711276 0.043174624 -2.858486e-21)
(2.6636455 0.038543359 -1.8681531e-21)
(2.6561139 0.032524544 7.0069535e-22)
(2.6507164 0.027177558 -2.7158815e-21)
(2.6453135 0.020798598 -1.2711973e-21)
(2.6411453 0.014246098 0)
(2.6369846 0.0068083076 -1.5273927e-21)
(2.2270635 0.13334489 1.6519048e-21)
(2.313669 -0.010968219 1.0967413e-21)
(2.3862169 -0.14095838 -8.3438458e-22)
(2.4772061 -0.1416658 -1.1234001e-20)
(2.5653047 -0.14390247 -4.7065546e-21)
(2.605521 -0.092545897 5.3487079e-21)
(2.6438379 -0.053342201 1.2908755e-20)
(2.6379075 -0.00040853648 1.3796567e-20)
(2.6273803 0.037404853 -3.6759013e-21)
(2.5816998 0.049560892 -1.8042897e-21)
(2.5460973 0.055320614 1.6994491e-21)
(2.5059221 0.029756329 -1.3296953e-21)
(2.475151 0.0064144833 -1.3385022e-20)
(2.4593341 -0.040676592 -1.0139049e-20)
(2.4492458 -0.079802287 -3.7427817e-21)
(2.4601039 -0.12949556 -2.0092126e-21)
(2.4725426 -0.16906911 1.3442992e-20)
(2.5043415 -0.20922044 8.5864845e-21)
(2.5336782 -0.23935914 -5.9006611e-21)
(2.5798006 -0.26361046 7.0840469e-24)
(2.6194488 -0.27891208 6.3309884e-21)
(2.6719878 -0.282585 1.2592449e-20)
(2.7143315 -0.28015453 1.3753665e-20)
(2.7626621 -0.26194599 1.9941629e-20)
(2.7988825 -0.24260508 1.7311779e-20)
(2.8326914 -0.20734517 1.4180485e-20)
(2.8557085 -0.17659867 1.6019181e-20)
(2.8695648 -0.13411001 1.2350346e-20)
(2.8768409 -0.10010112 1.2967583e-20)
(2.8722061 -0.060716663 -9.2503607e-21)
(2.8659492 -0.030830099 -2.0093826e-20)
(2.8490581 -0.0012138844 -7.5622679e-21)
(2.8345851 0.02023029 6.1605721e-21)
(2.8126135 0.038428747 3.6997553e-21)
(2.7950931 0.051212241 -2.8991575e-21)
(2.7731785 0.059669476 -3.8352711e-21)
(2.7561801 0.065220052 -8.1807355e-22)
(2.7369942 0.066799703 2.7115009e-21)
(2.7222964 0.067391819 -1.5812429e-21)
(2.706695 0.064868487 -7.235992e-22)
(2.6947221 0.062235097 -8.3577994e-22)
(2.6824928 0.057254827 -1.0902534e-20)
(2.6732087 0.052938188 -1.1224497e-20)
(2.6639407 0.046952065 -3.4578721e-21)
(2.6567771 0.04139038 -1.0432638e-21)
(2.6497165 0.034550123 -3.6446841e-21)
(2.6445604 0.028610743 -2.2876811e-21)
(2.6394829 0.02174009 -2.5548435e-21)
(2.6354996 0.014781027 -4.0441821e-21)
(2.6315731 0.0070008722 -1.3661971e-21)
(2.202125 0.11627252 -2.4407995e-21)
(2.2930924 -0.037591635 -2.2323417e-21)
(2.3697805 -0.17718616 -2.8203331e-21)
(2.4633779 -0.1770592 1.2591459e-21)
(2.5571599 -0.17807236 -8.5632784e-21)
(2.6046054 -0.11698616 -2.0398171e-20)
(2.6526136 -0.067638773 -1.1047736e-20)
(2.6535362 0.0012033871 8.9930294e-21)
(2.6452086 0.052657907 9.7501086e-21)
(2.5914084 0.073627936 1.6701715e-21)
(2.5479817 0.086202309 3.5315462e-21)
(2.496907 0.060480219 5.1501596e-22)
(2.4553542 0.036725762 -2.3803418e-21)
(2.4309184 -0.016906449 3.8988116e-22)
(2.4128515 -0.061815222 3.7044123e-21)
(2.4193163 -0.12067715 2.472421e-23)
(2.42816 -0.16843301 1.7302033e-21)
(2.4591067 -0.21836501 3.0327202e-21)
(2.4883344 -0.25724077 -1.7220643e-21)
(2.537252 -0.29169173 -3.2534489e-21)
(2.5803362 -0.31558864 2.3984765e-21)
(2.6404475 -0.32847022 1.855259e-22)
(2.6902281 -0.33285115 6.0217705e-21)
(2.750483 -0.31981969 1.7735131e-21)
(2.797008 -0.30324333 7.4627725e-21)
(2.844066 -0.26689122 9.0466805e-21)
(2.8774049 -0.23368146 5.9439808e-21)
(2.901746 -0.18411576 1.2426985e-20)
(2.9164638 -0.14346558 8.9166231e-21)
(2.9168076 -0.093886145 2.3658705e-20)
(2.913696 -0.055698152 2.6909837e-21)
(2.8965545 -0.016391761 -2.5826128e-20)
(2.8812802 0.012492946 -1.3988421e-20)
(2.8557784 0.037939319 2.6695676e-21)
(2.8352745 0.055992836 2.8208907e-22)
(2.8086396 0.068594783 1.2655785e-21)
(2.7879808 0.077320046 4.4437026e-22)
(2.7643104 0.080847083 -2.1707397e-21)
(2.7461437 0.082871967 1.1633315e-21)
(2.7268028 0.080745025 1.5250898e-21)
(2.7119997 0.078690788 2.3873113e-21)
(2.6969401 0.073621105 2.0298806e-21)
(2.6853231 0.069151227 -7.4831315e-21)
(2.673832 0.062505178 -6.4136938e-21)
(2.6650172 0.056978618 1.0344217e-21)
(2.6564343 0.049947103 -9.5498702e-22)
(2.6497103 0.043599368 -3.4226602e-21)
(2.6432086 0.03609802 3.2562534e-21)
(2.6383577 0.029677357 3.0871139e-21)
(2.6336499 0.022428095 -2.2676429e-21)
(2.6298874 0.015156529 3.0212534e-22)
(2.6262198 0.0071290247 -2.0761466e-22)
(2.1836842 0.099271697 3.1589114e-22)
(2.2754688 -0.063548277 1.9457485e-22)
(2.3535916 -0.21253668 4.5356138e-22)
(2.4492984 -0.21174924 1.147864e-20)
(2.5463302 -0.21190667 1.5597963e-20)
(2.5982643 -0.1427541 1.6392255e-21)
(2.6538961 -0.084128341 -9.4408913e-21)
(2.6638285 0.0018348203 -1.8596336e-20)
(2.661313 0.068875902 3.1934746e-22)
(2.6006513 0.10076771 1.2365676e-20)
(2.5497831 0.12205862 4.7199787e-21)
(2.4861166 0.096725016 9.5535176e-21)
(2.4335103 0.072968439 6.782978e-21)
(2.4009797 0.012480589 2.1402793e-21)
(2.3739144 -0.038545053 4.8882111e-21)
(2.3754932 -0.10723945 -1.1537573e-20)
(2.3799811 -0.16370881 -1.5271401e-20)
(2.4094359 -0.22385821 3.9701926e-21)
(2.4377094 -0.27203197 5.2716587e-21)
(2.4883014 -0.3176927 -5.547955e-21)
(2.533709 -0.35132689 -7.0621668e-21)
(2.6004985 -0.37560097 -5.9189756e-21)
(2.6570826 -0.38884795 -8.1507266e-21)
(2.7296878 -0.38385913 -2.9890161e-21)
(2.7872986 -0.37235974 -7.1642844e-21)
(2.849744 -0.33699202 8.491668e-21)
(2.8956691 -0.30290799 9.9947627e-21)
(2.933657 -0.24664169 -3.9168258e-20)
(2.9587016 -0.19930917 -3.3715039e-20)
(2.9668395 -0.1380408 3.443723e-21)
(2.9689837 -0.090021752 1.7266807e-20)
(2.9527829 -0.038472097 1.648503e-20)
(2.937569 -3.6722764e-05 -1.0355795e-20)
(2.9082587 0.034682728 -1.0784523e-20)
(2.8845857 0.059822392 5.0865764e-21)
(2.8523063 0.078063682 2.6115318e-21)
(2.8272064 0.090972728 3.5755646e-21)
(2.7979222 0.096997333 -1.6302826e-21)
(2.7754906 0.10103514 -4.1455155e-21)
(2.7515137 0.099567106 1.3681084e-21)
(2.7331441 0.098031623 1.7147733e-21)
(2.7145359 0.092479248 -9.7885933e-22)
(2.7002169 0.087965877 -1.3675001e-21)
(2.6861877 0.080689129 -5.0406119e-21)
(2.6752542 0.074609285 -3.9902023e-21)
(2.6647497 0.06658804 5.5892798e-21)
(2.6565749 0.060046676 3.7712028e-21)