/*--------------------------------*- C++ -*----------------------------------*\
| =========                 |                                                 |
| \\      /  F ield         | OpenFOAM: The Open Source CFD Toolbox           |
|  \\    /   O peration     | Version:  v2012                                 |
|   \\  /    A nd           | Website:  www.openfoam.com                      |
|    \\/     M anipulation  |                                                 |
\*---------------------------------------------------------------------------*/
FoamFile
{
    version     2.0;
    format      ascii;
    class       volVectorField;
    location    "23.365706412101066";
    object      cellDisplacement;
}
// * * * * * * * * * * * * * * * * * * * * * * * * * * * * * * * * * * * * * //

dimensions      [0 1 0 0 0 0 0];


internalField   nonuniform List<vector> 
9200
(
(-0.047846413 0 0)
(-0.048035968 0 0)
(-0.138708 0 0)
(-0.048330182 0 0)
(-0.1391907 0 0)
(-0.22305496 0 0)
(-0.048671388 0 0)
(-0.13994018 0 0)
(-0.22374793 0 0)
(-0.30119698 0 0)
(-0.049038951 0 0)
(-0.14086109 0 0)
(-0.22492528 0 0)
(-0.30213289 0 0)
(-0.373565 0 0)
(-0.049414482 0 0)
(-0.1418584 0 0)
(-0.22634264 0 0)
(-0.30364483 0 0)
(-0.3746623 0 0)
(-0.44051331 0 0)
(-0.049783776 0 0)
(-0.14288148 0 0)
(-0.22789151 0 0)
(-0.30551667 0 0)
(-0.37652133 0 0)
(-0.44180818 0 0)
(-0.50243392 0 0)
(-0.050139134 0 0)
(-0.1438942 0 0)
(-0.22948573 0 0)
(-0.30757398 0 0)
(-0.3788296 0 0)
(-0.44397287 0 0)
(-0.50388228 0 0)
(-0.55966402 0 0)
(-0.050472518 0 0)
(-0.14486655 0 0)
(-0.23106351 0 0)
(-0.30969173 0 0)
(-0.38135966 0 0)
(-0.44667746 0 0)
(-0.50635904 0 0)
(-0.56129888 0 0)
(-0.61254412 0 0)
(-0.050782012 0 0)
(-0.14578493 0 0)
(-0.23258444 0 0)
(-0.31179005 0 0)
(-0.38397439 0 0)
(-0.44967499 0 0)
(-0.5094692 0 0)
(-0.5640601 0 0)
(-0.61433115 0 0)
(-0.66137254 0 0)
(-0.051064099 0 0)
(-0.14663406 0 0)
(-0.23401746 0 0)
(-0.31381296 0 0)
(-0.38656901 0 0)
(-0.45277793 0 0)
(-0.5129287 0 0)
(-0.56756681 0 0)
(-0.61740554 0 0)
(-0.66334585 0 0)
(-0.70643146 0 0)
(-0.051319899 0 0)
(-0.14741275 0 0)
(-0.23534849 0 0)
(-0.31572097 0 0)
(-0.38907037 0 0)
(-0.45586075 0 0)
(-0.51651664 0 0)
(-0.57148353 0 0)
(-0.62131091 0 0)
(-0.66670937 0 0)
(-0.70856687 0 0)
(-0.74798533 0 0)
(-0.05154866 0 0)
(-0.1481154 0 0)
(-0.23656502 0 0)
(-0.31749213 0 0)
(-0.3914332 0 0)
(-0.45883397 0 0)
(-0.52008341 0 0)
(-0.57556112 0 0)
(-0.62568802 0 0)
(-0.67100748 0 0)
(-0.71224993 0 0)
(-0.75031378 0 0)
(-0.78627397 0 0)
(-0.051752788 0 0)
(-0.14874672 0 0)
(-0.23766786 0 0)
(-0.31911305 0 0)
(-0.39362411 0 0)
(-0.46164524 0 0)
(-0.52353322 0 0)
(-0.57962676 0 0)
(-0.63027353 0 0)
(-0.67586407 0 0)
(-0.71696155 0 0)
(-0.75430016 0 0)
(-0.78877699 0 0)
(-0.82153032 0 0)
(-0.051933154 0 0)
(-0.14930717 0 0)
(-0.23865516 0 0)
(-0.32058019 0 0)
(-0.39563134 0 0)
(-0.46425392 0 0)
(-0.52679185 0 0)
(-0.58355672 0 0)
(-0.63483732 0 0)
(-0.68093484 0 0)
(-0.72227364 0 0)
(-0.75941935 0 0)
(-0.79310016 0 0)
(-0.82423306 0 0)
(-0.85395296 0 0)
(-0.05209234 0 0)
(-0.14980315 0 0)
(-0.23953438 0 0)
(-0.32189546 0 0)
(-0.39744518 0 0)
(-0.4666446 0 0)
(-0.52982486 0 0)
(-0.5872738 0 0)
(-0.63925961 0 0)
(-0.68603145 0 0)
(-0.7278842 0 0)
(-0.76522988 0 0)
(-0.79865148 0 0)
(-0.82887737 0 0)
(-0.85684104 0 0)
(-0.88374765 0 0)
(-0.052232076 0 0)
(-0.15023885 0 0)
(-0.24031014 0 0)
(-0.3230651 0 0)
(-0.39907289 0 0)
(-0.46880732 0 0)
(-0.53260088 0 0)
(-0.5907354 0 0)
(-0.64345385 0 0)
(-0.69096768 0 0)
(-0.73349802 0 0)
(-0.77134178 0 0)
(-0.80494167 0 0)
(-0.83485916 0 0)
(-0.86183716 0 0)
(-0.88684156 0 0)
(-0.9110842 0 0)
(-0.052354557 0 0)
(-0.15062018 0 0)
(-0.24099167 0 0)
(-0.32409859 0 0)
(-0.4005168 0 0)
(-0.47074639 0 0)
(-0.53511992 0 0)
(-0.59390944 0 0)
(-0.64735515 0 0)
(-0.69565069 0 0)
(-0.73896841 0 0)
(-0.77751944 0 0)
(-0.81161387 0 0)
(-0.84167103 0 0)
(-0.86827258 0 0)
(-0.8921738 0 0)
(-0.91437247 0 0)
(-0.93614519 0 0)
(-0.052461874 0 0)
(-0.15095317 0 0)
(-0.24158685 0 0)
(-0.32500542 0 0)
(-0.40179313 0 0)
(-0.47246963 0 0)
(-0.53737516 0 0)
(-0.59678956 0 0)
(-0.65094655 0 0)
(-0.70002331 0 0)
(-0.74417048 0 0)
(-0.78354793 0 0)
(-0.81835017 0 0)
(-0.84888125 0 0)
(-0.87559628 0 0)
(-0.8990636 0 0)
(-0.92006854 0 0)
(-0.93964206 0 0)
(-0.95907394 0 0)
(-0.052555675 0 0)
(-0.15124257 0 0)
(-0.24210385 0 0)
(-0.32579793 0 0)
(-0.40291004 0 0)
(-0.47398991 0 0)
(-0.539385 0 0)
(-0.59937381 0 0)
(-0.65420036 0 0)
(-0.70404341 0 0)
(-0.7490335 0 0)
(-0.78929186 0 0)
(-0.82495041 0 0)
(-0.85621126 0 0)
(-0.88339603 0 0)
(-0.90693383 0 0)
(-0.92742952 0 0)
(-0.94568556 0 0)
(-0.96276959 0 0)
(-0.98003158 0 0)
(-0.052638009 0 0)
(-0.15149474 0 0)
(-0.24255241 0 0)
(-0.32648657 0 0)
(-0.40388689 0 0)
(-0.4753235 0 0)
(-0.54115504 0 0)
(-0.60167431 0 0)
(-0.65713145 0 0)
(-0.70770334 0 0)
(-0.75351293 0 0)
(-0.79466768 0 0)
(-0.83126195 0 0)
(-0.86341112 0 0)
(-0.89131646 0 0)
(-0.91530473 0 0)
(-0.9358385 0 0)
(-0.95351639 0 0)
(-0.96918282 0 0)
(-0.98393629 0 0)
(-0.99914257 0 0)
(-0.05270996 0 0)
(-0.15171333 0 0)
(-0.2429388 0 0)
(-0.32708333 0 0)
(-0.40473301 0 0)
(-0.47648587 0 0)
(-0.54271183 0 0)
(-0.60370629 0 0)
(-0.65973631 0 0)
(-0.71099325 0 0)
(-0.75759499 0 0)
(-0.79963414 0 0)
(-0.83718218 0 0)
(-0.87031397 0 0)
(-0.89913335 0 0)
(-0.92385531 0 0)
(-0.94482625 0 0)
(-0.96249131 0 0)
(-0.97749591 0 0)
(-0.990702 0 0)
(-1.0032479 0 0)
(-1.01655 0 0)
(-0.052773438 0 0)
(-0.15190406 0 0)
(-0.24327303 0 0)
(-0.32759815 0 0)
(-0.40546757 0 0)
(-0.47749643 0 0)
(-0.54406635 0 0)
(-0.60548916 0 0)
(-0.66204476 0 0)
(-0.71393345 0 0)
(-0.76127392 0 0)
(-0.80416143 0 0)
(-0.84265905 0 0)
(-0.87680448 0 0)
(-0.9066483 0 0)
(-0.9323057 0 0)
(-0.9539999 0 0)
(-0.97207959 0 0)
(-0.98702908 0 0)
(-0.99949447 0 0)
(-1.0103836 0 0)
(-1.0208612 0 0)
(-1.0323612 0 0)
(-0.052828987 0 0)
(-0.15206971 0 0)
(-0.24355961 0 0)
(-0.32804236 0 0)
(-0.40609946 0 0)
(-0.47836967 0 0)
(-0.54524632 0 0)
(-0.60704584 0 0)
(-0.66406686 0 0)
(-0.71653195 0 0)
(-0.76456275 0 0)
(-0.80825469 0 0)
(-0.8476618 0 0)
(-0.88281472 0 0)
(-0.91373308 0 0)
(-0.9404543 0 0)
(-0.96309803 0 0)
(-0.98191086 0 0)
(-0.99725357 0 0)
(-1.0096036 0 0)
(-1.0196613 0 0)
(-1.028349 0 0)
(-1.0368701 0 0)
(-1.0467018 0 0)
(-0.052878281 0 0)
(-0.15221489 0 0)
(-0.24380781 0 0)
(-0.32842414 0 0)
(-0.40664527 0 0)
(-0.47912423 0 0)
(-0.54626409 0 0)
(-0.60839746 0 0)
(-0.66583783 0 0)
(-0.71882257 0 0)
(-0.76747926 0 0)
(-0.81191434 0 0)
(-0.85219056 0 0)
(-0.88832117 0 0)
(-0.92030913 0 0)
(-0.94816023 0 0)
(-0.9719029 0 0)
(-0.99167561 0 0)
(-1.0077345 0 0)
(-1.0204486 0 0)
(-1.0303374 0 0)
(-1.0381055 0 0)
(-1.0447218 0 0)
(-1.0514107 0 0)
(-1.0596662 0 0)
(-0.052921486 0 0)
(-0.15234178 0 0)
(-0.24402087 0 0)
(-0.3287534 0 0)
(-0.40711317 0 0)
(-0.47977281 0 0)
(-0.54714532 0 0)
(-0.60956866 0 0)
(-0.66737269 0 0)
(-0.72082146 0 0)
(-0.77004827 0 0)
(-0.81516955 0 0)
(-0.85625014 0 0)
(-0.89330819 0 0)
(-0.92634108 0 0)
(-0.9553238 0 0)
(-0.98023611 0 0)
(-1.0011356 0 0)
(-1.0181731 0 0)
(-1.0316084 0 0)
(-1.0418285 0 0)
(-1.049359 0 0)
(-1.0549585 0 0)
(-1.0596077 0 0)
(-1.0645675 0 0)
(-1.0713658 0 0)
(-0.052960046 0 0)
(-0.1524539 0 0)
(-0.24420657 0 0)
(-0.32903669 0 0)
(-0.4075171 0 0)
(-0.48033223 0 0)
(-0.54790159 0 0)
(-0.61057823 0 0)
(-0.66870589 0 0)
(-0.72256642 0 0)
(-0.77229974 0 0)
(-0.81803736 0 0)
(-0.85986413 0 0)
(-0.89779322 0 0)
(-0.93181472 0 0)
(-0.96190397 0 0)
(-0.98801783 0 0)
(-1.010138 0 0)
(-1.0283225 0 0)
(-1.0427391 0 0)
(-1.0536565 0 0)
(-1.06148 0 0)
(-1.0667782 0 0)
(-1.0703159 0 0)
(-1.073117 0 0)
(-1.0764581 0 0)
(-1.0818829 0 0)
(-0.052994023 0 0)
(-0.15255278 0 0)
(-0.24436731 0 0)
(-0.3292822 0 0)
(-0.40786402 0 0)
(-0.48081271 0 0)
(-0.54855457 0 0)
(-0.61144931 0 0)
(-0.66985311 0 0)
(-0.72407544 0 0)
(-0.77426163 0 0)
(-0.82055771 0 0)
(-0.86305772 0 0)
(-0.90178742 0 0)
(-0.93674463 0 0)
(-0.96789505 0 0)
(-0.99517974 0 0)
(-1.0185438 0 0)
(-1.0379805 0 0)
(-1.0535734 0 0)
(-1.065485 0 0)
(-1.0739988 0 0)
(-1.0795452 0 0)
(-1.0827046 0 0)
(-1.0842928 0 0)
(-1.0853416 0 0)
(-1.0871587 0 0)
(-1.0913149 0 0)
(-0.053024479 0 0)
(-0.15264155 0 0)
(-0.24450926 0 0)
(-0.32949515 0 0)
(-0.40816491 0 0)
(-0.48122816 0 0)
(-0.54911459 0 0)
(-0.61219779 0 0)
(-0.67084556 0 0)
(-0.72538447 0 0)
(-0.7759671 0 0)
(-0.82275384 0 0)
(-0.86586448 0 0)
(-0.90532879 0 0)
(-0.94114581 0 0)
(-0.97329121 0 0)
(-1.0017054 0 0)
(-1.02631 0 0)
(-1.0470482 0 0)
(-1.0639289 0 0)
(-1.077032 0 0)
(-1.0865366 0 0)
(-1.0927406 0 0)
(-1.0961004 0 0)
(-1.0972371 0 0)
(-1.0969733 0 0)
(-1.0963784 0 0)
(-1.096771 0 0)
(-1.0997349 0 0)
(-0.053049972 0 0)
(-0.15272053 0 0)
(-0.24463416 0 0)
(-0.32968182 0 0)
(-0.4084258 0 0)
(-0.4815869 0 0)
(-0.54959936 0 0)
(-0.6128434 0 0)
(-0.67169667 0 0)
(-0.72651041 0 0)
(-0.77744193 0 0)
(-0.82466706 0 0)
(-0.86831897 0 0)
(-0.90844211 0 0)
(-0.94505211 0 0)
(-0.97812728 0 0)
(-1.0076049 0 0)
(-1.0334025 0 0)
(-1.0554407 0 0)
(-1.0736612 0 0)
(-1.0880773 0 0)
(-1.0987942 0 0)
(-1.1059901 0 0)
(-1.1099873 0 0)
(-1.1112686 0 0)
(-1.1104699 0 0)
(-1.1084587 0 0)
(-1.1063085 0 0)
(-1.1053639 0 0)
(-1.1072282 0 0)
(-0.05285193 0 0)
(-0.15278902 0 0)
(-0.24474782 0 0)
(-0.32984735 0 0)
(-0.40865522 0 0)
(-0.48190025 0 0)
(-0.55001739 0 0)
(-0.61339899 0 0)
(-0.67243324 0 0)
(-0.72748464 0 0)
(-0.7787179 0 0)
(-0.82632151 0 0)
(-0.87045573 0 0)
(-0.91117292 0 0)
(-0.94849567 0 0)
(-0.98241948 0 0)
(-1.0128919 0 0)
(-1.0398263 0 0)
(-1.0631256 0 0)
(-1.0826988 0 0)
(-1.0985013 0 0)
(-1.1105635 0 0)
(-1.1189797 0 0)
(-1.1239541 0 0)
(-1.1258297 0 0)
(-1.1251186 0 0)
(-1.122492 0 0)
(-1.1188238 0 0)
(-1.1152177 0 0)
(-1.1130248 0 0)
(-1.1138594 0 0)
(-0.052611315 0 0)
(-0.15236692 0 0)
(-0.24484452 0 0)
(-0.329995 0 0)
(-0.40885885 0 0)
(-0.48217477 0 0)
(-0.5503825 0 0)
(-0.61388099 0 0)
(-0.67306596 0 0)
(-0.72832164 0 0)
(-0.77981707 0 0)
(-0.82775485 0 0)
(-0.87231051 0 0)
(-0.91355037 0 0)
(-0.9515172 0 0)
(-0.98621768 0 0)
(-1.0176048 0 0)
(-1.0455959 0 0)
(-1.0700957 0 0)
(-1.0909975 0 0)
(-1.1082052 0 0)
(-1.1216806 0 0)
(-1.1314638 0 0)
(-1.1376707 0 0)
(-1.1405114 0 0)
(-1.1403611 0 0)
(-1.1377566 0 0)
(-1.133385 0 0)
(-1.1281573 0 0)
(-1.1231776 0 0)
(-1.1198165 0 0)
(-1.1197024 0 0)
(-0.05239375 0 0)
(-0.15164346 0 0)
(-0.24421787 0 0)
(-0.33012287 0 0)
(-0.40904173 0 0)
(-0.48241861 0 0)
(-0.55070184 0 0)
(-0.61429937 0 0)
(-0.67361622 0 0)
(-0.72904671 0 0)
(-0.78076668 0 0)
(-0.8289891 0 0)
(-0.87391495 0 0)
(-0.91561964 0 0)
(-0.95415567 0 0)
(-0.98955023 0 0)
(-1.0217732 0 0)
(-1.0507472 0 0)
(-1.0763749 0 0)
(-1.0985421 0 0)
(-1.1171381 0 0)
(-1.1320681 0 0)
(-1.1433033 0 0)
(-1.1508979 0 0)
(-1.1549671 0 0)
(-1.1557559 0 0)
(-1.1536602 0 0)
(-1.1492457 0 0)
(-1.1432288 0 0)
(-1.136526 0 0)
(-1.130263 0 0)
(-1.1258136 0 0)
(-1.1248147 0 0)
(-0.052201299 0 0)
(-0.1509882 0 0)
(-0.2430576 0 0)
(-0.3293137 0 0)
(-0.40920113 0 0)
(-0.4826387 0 0)
(-0.5509854 0 0)
(-0.61466716 0 0)
(-0.67409313 0 0)
(-0.72967236 0 0)
(-0.78158507 0 0)
(-0.83005617 0 0)
(-0.87530225 0 0)
(-0.91740944 0 0)
(-0.95645109 0 0)
(-0.99247009 0 0)
(-1.025448 0 0)
(-1.0553155 0 0)
(-1.0819872 0 0)
(-1.1053525 0 0)
(-1.1252815 0 0)
(-1.1416531 0 0)
(-1.1543846 0 0)
(-1.1634562 0 0)
(-1.1689275 0 0)
(-1.1709429 0 0)
(-1.1697609 0 0)
(-1.16581 0 0)
(-1.1596775 0 0)
(-1.1520951 0 0)
(-1.1440076 0 0)
(-1.1365376 0 0)
(-1.1310732 0 0)
(-1.1292605 0 0)
(-0.052035802 0 0)
(-0.15040988 0 0)
(-0.24200874 0 0)
(-0.32776855 0 0)
(-0.4082373 0 0)
(-0.48282858 0 0)
(-0.55124103 0 0)
(-0.61499316 0 0)
(-0.67451348 0 0)
(-0.73021845 0 0)
(-0.7822945 0 0)
(-0.83097493 0 0)
(-0.87649893 0 0)
(-0.91896009 0 0)
(-0.95844252 0 0)
(-0.99501027 0 0)
(-1.0286651 0 0)
(-1.0593475 0 0)
(-1.0869801 0 0)
(-1.1114532 0 0)
(-1.1326424 0 0)
(-1.1504144 0 0)
(-1.1646426 0 0)
(-1.1752478 0 0)
(-1.1822272 0 0)
(-1.185655 0 0)
(-1.1856832 0 0)
(-1.1826086 0 0)
(-1.1768798 0 0)
(-1.1691105 0 0)
(-1.1600552 0 0)
(-1.150662 0 0)
(-1.1420672 0 0)
(-1.1356591 0 0)
(-1.1330907 0 0)
(-0.051898135 0 0)
(-0.14991159 0 0)
(-0.24108111 0 0)
(-0.32636865 0 0)
(-0.40635514 0 0)
(-0.48172933 0 0)
(-0.55146158 0 0)
(-0.61528574 0 0)
(-0.67488553 0 0)
(-0.73069554 0 0)
(-0.78290963 0 0)
(-0.83176955 0 0)
(-0.87753295 0 0)
(-0.92029707 0 0)
(-0.96016572 0 0)
(-0.99722001 0 0)
(-1.0314778 0 0)
(-1.0628882 0 0)
(-1.0913908 0 0)
(-1.1168908 0 0)
(-1.139258 0 0)
(-1.1583537 0 0)
(-1.1740415 0 0)
(-1.1861929 0 0)
(-1.1947394 0 0)
(-1.1996898 0 0)
(-1.2011334 0 0)
(-1.1992541 0 0)
(-1.1943643 0 0)
(-1.1869439 0 0)
(-1.1776241 0 0)
(-1.1671726 0 0)
(-1.1565571 0 0)
(-1.1469081 0 0)
(-1.1396228 0 0)
(-1.1363603 0 0)
(-0.051789783 0 0)
(-0.14949765 0 0)
(-0.24028311 0 0)
(-0.32513267 0 0)
(-0.40465047 0 0)
(-0.47954577 0 0)
(-0.55024064 0 0)
(-0.61554063 0 0)
(-0.67522 0 0)
(-0.73111753 0 0)
(-0.78344727 0 0)
(-0.83245736 0 0)
(-0.87842611 0 0)
(-0.92145454 0 0)
(-0.96165611 0 0)
(-0.9991321 0 0)
(-1.0339222 0 0)
(-1.0659853 0 0)
(-1.0952756 0 0)
(-1.1217064 0 0)
(-1.1451601 0 0)
(-1.165503 0 0)
(-1.1825825 0 0)
(-1.1962484 0 0)
(-1.2063846 0 0)
(-1.2129343 0 0)
(-1.2159202 0 0)
(-1.2154519 0 0)
(-1.2117288 0 0)
(-1.2051003 0 0)
(-1.1960639 0 0)
(-1.1852726 0 0)
(-1.1735107 0 0)
(-1.1617468 0 0)
(-1.1511173 0 0)
(-1.1430185 0 0)
(-1.1391147 0 0)
(-0.051711221 0 0)
(-0.14917068 0 0)
(-0.2396189 0 0)
(-0.32406726 0 0)
(-0.40314559 0 0)
(-0.47757063 0 0)
(-0.54778695 0 0)
(-0.61421255 0 0)
(-0.6755117 0 0)
(-0.73149544 0 0)
(-0.78392118 0 0)
(-0.83305593 0 0)
(-0.87920132 0 0)
(-0.92245367 0 0)
(-0.9629437 0 0)
(-1.0007887 0 0)
(-1.036048 0 0)
(-1.0686861 0 0)
(-1.0986766 0 0)
(-1.1259542 0 0)
(-1.150405 0 0)
(-1.1718966 0 0)
(-1.1902853 0 0)
(-1.20541 0 0)
(-1.2171143 0 0)
(-1.2252898 0 0)
(-1.2299003 0 0)
(-1.2309795 0 0)
(-1.2286576 0 0)
(-1.2231679 0 0)
(-1.214876 0 0)
(-1.2043063 0 0)
(-1.1921248 0 0)
(-1.1791262 0 0)
(-1.1662902 0 0)
(-1.1547452 0 0)
(-1.145893 0 0)
(-1.1414011 0 0)
(-0.051663446 0 0)
(-0.14893327 0 0)
(-0.2390943 0 0)
(-0.32318154 0 0)
(-0.40184917 0 0)
(-0.47582555 0 0)
(-0.54556831 0 0)
(-0.61152025 0 0)
(-0.67409453 0 0)
(-0.73182104 0 0)
(-0.78434116 0 0)
(-0.8335822 0 0)
(-0.87987613 0 0)
(-0.92332207 0 0)
(-0.96405857 0 0)
(-1.0022199 0 0)
(-1.0378879 0 0)
(-1.0710342 0 0)
(-1.1016501 0 0)
(-1.1296828 0 0)
(-1.1550341 0 0)
(-1.1775875 0 0)
(-1.1971954 0 0)
(-1.2136924 0 0)
(-1.2269145 0 0)
(-1.2367081 0 0)
(-1.242978 0 0)
(-1.2457017 0 0)
(-1.2449337 0 0)
(-1.2408281 0 0)
(-1.2336357 0 0)
(-1.2237556 0 0)
(-1.2117268 0 0)
(-1.1982316 0 0)
(-1.1840756 0 0)
(-1.1702358 0 0)
(-1.1578411 0 0)
(-1.1482919 0 0)
(-1.1432598 0 0)
(-0.0516464 0 0)
(-0.14878731 0 0)
(-0.23871238 0 0)
(-0.32248048 0 0)
(-0.4007715 0 0)
(-0.4743243 0 0)
(-0.54360862 0 0)
(-0.60908384 0 0)
(-0.67119064 0 0)
(-0.73032336 0 0)
(-0.78470515 0 0)
(-0.83404645 0 0)
(-0.880468 0 0)
(-0.92407725 0 0)
(-0.96502513 0 0)
(-1.0034598 0 0)
(-1.0394848 0 0)
(-1.073074 0 0)
(-1.1042374 0 0)
(-1.1329461 0 0)
(-1.1591109 0 0)
(-1.1826236 0 0)
(-1.2033529 0 0)
(-1.221138 0 0)
(-1.2357991 0 0)
(-1.2471632 0 0)
(-1.2550918 0 0)
(-1.259505 0 0)
(-1.2603968 0 0)
(-1.2578372 0 0)
(-1.252007 0 0)
(-1.2431878 0 0)
(-1.2317935 0 0)
(-1.218385 0 0)
(-1.2036526 0 0)
(-1.1884091 0 0)
(-1.1736346 0 0)
(-1.1604499 0 0)
(-1.1502574 0 0)
(-1.1447305 0 0)
(-0.14873345 0 0)
(-0.0516536 0 0)
(-0.23847635 0 0)
(-0.32197027 0 0)
(-0.39991951 0 0)
(-0.47307588 0 0)
(-0.54192375 0 0)
(-0.60693468 0 0)
(-0.66856318 0 0)
(-0.72722279 0 0)
(-0.78313117 0 0)
(-0.83444937 0 0)
(-0.88099294 0 0)
(-0.92474043 0 0)
(-0.96586782 0 0)
(-1.004535 0 0)
(-1.0408672 0 0)
(-1.0748425 0 0)
(-1.1064892 0 0)
(-1.1357933 0 0)
(-1.1626799 0 0)
(-1.1870633 0 0)
(-1.2088192 0 0)
(-1.2277877 0 0)
(-1.2437969 0 0)
(-1.256666 0 0)
(-1.2662189 0 0)
(-1.2723266 0 0)
(-1.2749316 0 0)
(-1.2740407 0 0)
(-1.2697495 0 0)
(-1.2622629 0 0)
(-1.2518814 0 0)
(-1.2390471 0 0)
(-1.2243313 0 0)
(-1.2084352 0 0)
(-1.1921771 0 0)
(-1.1765303 0 0)
(-1.1626136 0 0)
(-1.1518279 0 0)
(-1.1458491 0 0)
(-0.23838805 0 0)
(-0.14875203 0 0)
(-0.051684741 0 0)
(-0.32165389 0 0)
(-0.39929979 0 0)
(-0.47209024 0 0)
(-0.54052325 0 0)
(-0.60508572 0 0)
(-0.666246 0 0)
(-0.72441984 0 0)
(-0.77985424 0 0)
(-0.8328118 0 0)
(-0.88144389 0 0)
(-0.9253284 0 0)
(-0.96660759 0 0)
(-1.005472 0 0)
(-1.0420698 0 0)
(-1.0763786 0 0)
(-1.108443 0 0)
(-1.1382727 0 0)
(-1.165803 0 0)
(-1.1909606 0 0)
(-1.2136424 0 0)
(-1.2337021 0 0)
(-1.2509629 0 0)
(-1.265241 0 0)
(-1.276355 0 0)
(-1.2841338 0 0)
(-1.2884645 0 0)
(-1.2893055 0 0)
(-1.2866856 0 0)
(-1.2807188 0 0)
(-1.2716372 0 0)
(-1.2597679 0 0)
(-1.2455662 0 0)
(-1.2296192 0 0)
(-1.212632 0 0)
(-1.1954238 0 0)
(-1.1789667 0 0)
(-1.1643723 0 0)
(-1.1530412 0 0)
(-1.1466494 0 0)
(-0.321534 0 0)
(-0.23841464 0 0)
(-0.14884215 0 0)
(-0.051746803 0 0)
(-0.398917 0 0)
(-0.47137361 0 0)
(-0.53941859 0 0)
(-0.60355097 0 0)
(-0.66425292 0 0)
(-0.72194449 0 0)
(-0.77688653 0 0)
(-0.82937469 0 0)
(-0.8797638 0 0)
(-0.92583453 0 0)
(-0.96726148 0 0)
(-1.0062946 0 0)
(-1.0431175 0 0)
(-1.0777128 0 0)
(-1.1101416 0 0)
(-1.1404294 0 0)
(-1.1685224 0 0)
(-1.1943715 0 0)
(-1.2178882 0 0)
(-1.2389333 0 0)
(-1.2573424 0 0)
(-1.2729385 0 0)
(-1.2855266 0 0)
(-1.2949155 0 0)
(-1.3009567 0 0)
(-1.3035541 0 0)
(-1.3026796 0 0)
(-1.2983803 0 0)
(-1.2907989 0 0)
(-1.2801902 0 0)
(-1.2668992 0 0)
(-1.2514026 0 0)
(-1.2342947 0 0)
(-1.2162854 0 0)
(-1.198194 0 0)
(-1.1809831 0 0)
(-1.1657619 0 0)
(-1.1539293 0 0)
(-1.147163 0 0)
(-0.39877326 0 0)
(-0.32156784 0 0)
(-0.23855725 0 0)
(-0.14902497 0 0)
(-0.051839219 0 0)
(-0.47093193 0 0)
(-0.53861672 0 0)
(-0.60234024 0 0)
(-0.66259897 0 0)
(-0.71981765 0 0)
(-0.77427003 0 0)
(-0.82626196 0 0)
(-0.87618782 0 0)
(-0.92411934 0 0)
(-0.96782856 0 0)
(-1.0070207 0 0)
(-1.0440358 0 0)
(-1.0788768 0 0)
(-1.1116176 0 0)
(-1.1423046 0 0)
(-1.1708936 0 0)
(-1.1973496 0 0)
(-1.2216068 0 0)
(-1.2435451 0 0)
(-1.2630036 0 0)
(-1.2798072 0 0)
(-1.2937709 0 0)
(-1.3046975 0 0)
(-1.3124019 0 0)
(-1.3167428 0 0)
(-1.3176438 0 0)
(-1.3150964 0 0)
(-1.3091728 0 0)
(-1.3000348 0 0)
(-1.2879625 0 0)
(-1.2733226 0 0)
(-1.2566022 0 0)
(-1.2384058 0 0)
(-1.2194422 0 0)
(-1.2005262 0 0)
(-1.1826164 0 0)
(-1.166818 0 0)
(-1.1545262 0 0)
(-1.1474178 0 0)
(-0.47076796 0 0)
(-0.39881703 0 0)
(-0.32175518 0 0)
(-0.23884638 0 0)
(-0.14929817 0 0)
(-0.051961353 0 0)
(-0.53812408 0 0)
(-0.60146278 0 0)
(-0.66129488 0 0)
(-0.71805052 0 0)
(-0.77201793 0 0)
(-0.82351885 0 0)
(-0.87295439 0 0)
(-0.92042052 0 0)
(-0.96608254 0 0)
(-1.0076517 0 0)
(-1.0448478 0 0)
(-1.0798971 0 0)
(-1.1129054 0 0)
(-1.1439371 0 0)
(-1.1729545 0 0)
(-1.1999446 0 0)
(-1.2248608 0 0)
(-1.2475938 0 0)
(-1.2679975 0 0)
(-1.2859121 0 0)
(-1.3011518 0 0)
(-1.3135151 0 0)
(-1.3228041 0 0)
(-1.3288484 0 0)
(-1.3315279 0 0)
(-1.3307756 0 0)
(-1.326604 0 0)
(-1.319108 0 0)
(-1.308476 0 0)
(-1.2950073 0 0)
(-1.2790853 0 0)
(-1.2612118 0 0)
(-1.2419937 0 0)
(-1.2221394 0 0)
(-1.2024595 0 0)
(-1.1839021 0 0)
(-1.1675706 0 0)
(-1.1548583 0 0)
(-1.147442 0 0)
(-0.53794374 0 0)
(-0.47082071 0 0)
(-0.39904722 0 0)
(-0.32213956 0 0)
(-0.23928272 0 0)
(-0.14966145 0 0)
(-0.052112369 0 0)
(-0.60092481 0 0)
(-0.66035035 0 0)
(-0.71665845 0 0)
(-0.77015011 0 0)
(-0.82115807 0 0)
(-0.87010103 0 0)
(-0.91707765 0 0)
(-0.96227424 0 0)
(-1.005886 0 0)
(-1.045547 0 0)
(-1.080796 0 0)
(-1.1140335 0 0)
(-1.1453608 0 0)
(-1.174751 0 0)
(-1.2022052 0 0)
(-1.2276978 0 0)
(-1.2511402 0 0)
(-1.2723955 0 0)
(-1.2913113 0 0)
(-1.3077169 0 0)
(-1.3214182 0 0)
(-1.3322079 0 0)
(-1.3398899 0 0)
(-1.3443099 0 0)
(-1.3453593 0 0)
(-1.3429914 0 0)
(-1.3372413 0 0)
(-1.3282303 0 0)
(-1.3161643 0 0)
(-1.3013645 0 0)
(-1.2842309 0 0)
(-1.265273 0 0)
(-1.2451013 0 0)
(-1.2244189 0 0)
(-1.2040277 0 0)
(-1.1848712 0 0)
(-1.1680516 0 0)
(-1.1549558 0 0)
(-1.1472588 0 0)
(-0.60072976 0 0)
(-0.53800681 0 0)
(-0.47109087 0 0)
(-0.39951759 0 0)
(-0.32271789 0 0)
(-0.23986061 0 0)
(-0.15011052 0 0)
(-0.052290979 0 0)
(-0.6597726 0 0)
(-0.71564928 0 0)
(-0.76867634 0 0)
(-0.81920106 0 0)
(-0.86764915 0 0)
(-0.9141281 0 0)
(-0.95883076 0 0)
(-1.001981 0 0)
(-1.0437713 0 0)
(-1.0815744 0 0)
(-1.1150268 0 0)
(-1.1466069 0 0)
(-1.1763167 0 0)
(-1.2041735 0 0)
(-1.2301727 0 0)
(-1.254239 0 0)
(-1.2762488 0 0)
(-1.2960707 0 0)
(-1.3135417 0 0)
(-1.3284709 0 0)
(-1.3406554 0 0)
(-1.3498929 0 0)
(-1.3559939 0 0)
(-1.3588156 0 0)
(-1.3582716 0 0)
(-1.3543306 0 0)
(-1.3470528 0 0)
(-1.3365814 0 0)
(-1.3231455 0 0)
(-1.307081 0 0)
(-1.2888026 0 0)
(-1.268828 0 0)
(-1.247765 0 0)
(-1.2263125 0 0)
(-1.2052646 0 0)
(-1.1855557 0 0)
(-1.1682861 0 0)
(-1.1548407 0 0)
(-1.1468931 0 0)
(-0.65956461 0 0)
(-0.60080284 0 0)
(-0.53831414 0 0)
(-0.47163813 0 0)
(-0.4002239 0 0)
(-0.32348817 0 0)
(-0.24057957 0 0)
(-0.1506442 0 0)
(-0.052496209 0 0)
(-0.71503198 0 0)
(-0.76761025 0 0)
(-0.81765849 0 0)
(-0.86561392 0 0)
(-0.91159494 0 0)
(-0.955797 0 0)
(-0.99845079 0 0)
(-1.0397744 0 0)
(-1.0797908 0 0)
(-1.1158878 0 0)
(-1.1477042 0 0)
(-1.177687 0 0)
(-1.2058907 0 0)
(-1.2323281 0 0)
(-1.2569435 0 0)
(-1.2796247 0 0)
(-1.3002514 0 0)
(-1.3186797 0 0)
(-1.3347323 0 0)
(-1.3482095 0 0)
(-1.3589029 0 0)
(-1.3666081 0 0)
(-1.3711515 0 0)
(-1.3724101 0 0)
(-1.3703054 0 0)
(-1.3648318 0 0)
(-1.3560752 0 0)
(-1.3442035 0 0)
(-1.3294593 0 0)
(-1.3121959 0 0)
(-1.2928404 0 0)
(-1.2719141 0 0)
(-1.2500226 0 0)
(-1.2278571 0 0)
(-1.2062 0 0)
(-1.185981 0 0)
(-1.1683024 0 0)
(-1.1545397 0 0)
(-1.1463639 0 0)
(-0.71481004 0 0)
(-0.65964541 0 0)
(-0.60114276 0 0)
(-0.53893275 0 0)
(-0.47246096 0 0)
(-0.40116307 0 0)
(-0.32444328 0 0)
(-0.24143107 0 0)
(-0.15125697 0 0)
(-0.052726043 0 0)
(-0.76695789 0 0)
(-0.81654343 0 0)
(-0.86401098 0 0)
(-0.90949235 0 0)
(-0.95319014 0 0)
(-0.99534303 0 0)
(-1.0361672 0 0)
(-1.075714 0 0)
(-1.1141056 0 0)
(-1.1486506 0 0)
(-1.1788927 0 0)
(-1.2073934 0 0)
(-1.2342097 0 0)
(-1.2593027 0 0)
(-1.2825708 0 0)
(-1.3039149 0 0)
(-1.3232054 0 0)
(-1.3402736 0 0)
(-1.3549296 0 0)
(-1.3669719 0 0)
(-1.3761921 0 0)
(-1.3823888 0 0)
(-1.3854001 0 0)
(-1.38512 0 0)
(-1.3814925 0 0)
(-1.3745316 0 0)
(-1.3643504 0 0)
(-1.3511358 0 0)
(-1.3351481 0 0)
(-1.3167509 0 0)
(-1.2963835 0 0)
(-1.2745687 0 0)
(-1.2519063 0 0)
(-1.2290807 0 0)
(-1.2068625 0 0)
(-1.1861763 0 0)
(-1.1681213 0 0)
(-1.1540714 0 0)
(-1.1456938 0 0)
(-0.76672454 0 0)
(-0.71489546 0 0)
(-0.66001335 0 0)
(-0.60182692 0 0)
(-0.53986165 0 0)
(-0.47355216 0 0)
(-0.40232746 0 0)
(-0.32557926 0 0)
(-0.24241354 0 0)
(-0.15194661 0 0)
(-0.052978862 0 0)
(-0.81586364 0 0)
(-0.86285056 0 0)
(-0.90783728 0 0)
(-0.95102936 0 0)
(-0.99267289 0 0)
(-1.0329883 0 0)
(-1.0720326 0 0)
(-1.1099566 0 0)
(-1.1468781 0 0)
(-1.1799316 0 0)
(-1.2087127 0 0)
(-1.2358553 0 0)
(-1.2613618 0 0)
(-1.2851455 0 0)
(-1.3071194 0 0)
(-1.3271731 0 0)
(-1.3451558 0 0)
(-1.3608872 0 0)
(-1.3741702 0 0)
(-1.3847958 0 0)
(-1.3925593 0 0)
(-1.3972669 0 0)
(-1.3987709 0 0)
(-1.3969853 0 0)
(-1.3918691 0 0)
(-1.3834663 0 0)
(-1.3719135 0 0)
(-1.3574179 0 0)
(-1.3402495 0 0)
(-1.3207836 0 0)
(-1.2994681 0 0)
(-1.2768257 0 0)
(-1.2534488 0 0)
(-1.2300138 0 0)
(-1.2072787 0 0)
(-1.1861626 0 0)
(-1.1677684 0 0)
(-1.1534592 0 0)
(-1.1448969 0 0)
(-0.81562253 0 0)
(-0.76681727 0 0)
(-0.71528922 0 0)
(-0.66075227 0 0)
(-0.6028494 0 0)
(-0.54109207 0 0)
(-0.47490691 0 0)
(-0.40371087 0 0)
(-0.3268867 0 0)
(-0.24351698 0 0)
(-0.15270411 0 0)
(-0.053187524 0 0)
(-0.86214225 0 0)
(-0.90663991 0 0)
(-0.94932732 0 0)
(-0.99046139 0 0)
(-1.0302623 0 0)
(-1.068794 0 0)
(-1.1062109 0 0)
(-1.1426626 0 0)
(-1.1781732 0 0)
(-1.2098541 0 0)
(-1.2372994 0 0)
(-1.2631624 0 0)
(-1.2873919 0 0)
(-1.3099188 0 0)
(-1.3306508 0 0)
(-1.3494493 0 0)
(-1.3661468 0 0)
(-1.3805594 0 0)
(-1.3924854 0 0)
(-1.4017124 0 0)
(-1.4080344 0 0)
(-1.411272 0 0)
(-1.4112937 0 0)
(-1.4080297 0 0)
(-1.4014669 0 0)
(-1.3916713 0 0)
(-1.3788042 0 0)
(-1.3630875 0 0)
(-1.3448026 0 0)
(-1.3243309 0 0)
(-1.3021302 0 0)
(-1.2787176 0 0)
(-1.2546794 0 0)
(-1.2306831 0 0)
(-1.2074732 0 0)
(-1.1859666 0 0)
(-1.1672605 0 0)
(-1.1527172 0 0)
(-1.1439385 0 0)
(-0.86189021 0 0)
(-0.81572401 0 0)
(-0.7672348 0 0)
(-0.71607702 0 0)
(-0.66185588 0 0)
(-0.60420695 0 0)
(-0.54261941 0 0)
(-0.47651367 0 0)
(-0.40530378 0 0)
(-0.3283594 0 0)
(-0.24473263 0 0)
(-0.15315729 0 0)
(-0.053171672 0 0)
(-0.90590994 0 0)
(-0.94809748 0 0)
(-0.98872021 0 0)
(-1.0280023 0 0)
(-1.0660152 0 0)
(-1.1029186 0 0)
(-1.1388618 0 0)
(-1.1738979 0 0)
(-1.2081117 0 0)
(-1.2385491 0 0)
(-1.2647425 0 0)
(-1.289357 0 0)
(-1.3123647 0 0)
(-1.3336896 0 0)
(-1.3532119 0 0)
(-1.3707777 0 0)
(-1.3862145 0 0)
(-1.399326 0 0)
(-1.4099074 0 0)
(-1.4177488 0 0)
(-1.4226461 0 0)
(-1.4244313 0 0)
(-1.4229952 0 0)
(-1.4182895 0 0)
(-1.4103198 0 0)
(-1.3991818 0 0)
(-1.3850568 0 0)
(-1.368182 0 0)
(-1.3488433 0 0)
(-1.327429 0 0)
(-1.304402 0 0)
(-1.2802757 0 0)
(-1.2556256 0 0)
(-1.2311139 0 0)
(-1.2074703 0 0)
(-1.1856046 0 0)
(-1.1666194 0 0)
(-1.1517377 0 0)
(-1.1427845 0 0)
(-0.90565161 0 0)
(-0.86199145 0 0)
(-0.81616423 0 0)
(-0.76807168 0 0)
(-0.71725723 0 0)
(-0.66331889 0 0)
(-0.60588684 0 0)
(-0.54442993 0 0)
(-0.47836442 0 0)
(-0.40709478 0 0)
(-0.32997876 0 0)
(-0.24541169 0 0)
(-0.15311742 0 0)
(-0.05315022 0 0)
(-0.9473476 0 0)
(-0.98746334 0 0)
(-1.0262265 0 0)
(-1.0637155 0 0)
(-1.1000942 0 0)
(-1.1355189 0 0)
(-1.1700467 0 0)
(-1.2037824 0 0)
(-1.236831 0 0)
(-1.2661058 0 0)
(-1.2910805 0 0)
(-1.3145038 0 0)
(-1.3363476 0 0)
(-1.3565076 0 0)
(-1.3748432 0 0)
(-1.3911982 0 0)
(-1.4053904 0 0)
(-1.4172162 0 0)
(-1.426466 0 0)
(-1.4329326 0 0)
(-1.4364184 0 0)
(-1.4367718 0 0)
(-1.4339038 0 0)
(-1.4277884 0 0)
(-1.4184592 0 0)
(-1.4060322 0 0)
(-1.390709 0 0)
(-1.3727372 0 0)
(-1.3524077 0 0)
(-1.3301104 0 0)
(-1.3063166 0 0)
(-1.2815275 0 0)
(-1.2563153 0 0)
(-1.2313317 0 0)
(-1.2072896 0 0)
(-1.1851005 0 0)
(-1.1656113 0 0)
(-1.1505178 0 0)
(-1.1414679 0 0)
(-0.94708322 0 0)
(-0.90575724 0 0)
(-0.86244668 0 0)
(-0.81704512 0 0)
(-0.76932055 0 0)
(-0.71881917 0 0)
(-0.66513019 0 0)
(-0.60788225 0 0)
(-0.54651608 0 0)
(-0.48044613 0 0)
(-0.40906557 0 0)
(-0.33085786 0 0)
(-0.24536394 0 0)
(-0.15306669 0 0)
(-0.053125393 0 0)
(-0.98669872 0 0)
(-1.0249436 0 0)
(-1.0619072 0 0)
(-1.0977591 0 0)
(-1.1326553 0 0)
(-1.1666596 0 0)
(-1.1998815 0 0)
(-1.2324521 0 0)
(-1.2644212 0 0)
(-1.2925663 0 0)
(-1.316378 0 0)
(-1.3386716 0 0)
(-1.3593889 0 0)
(-1.3784066 0 0)
(-1.3955828 0 0)
(-1.4107463 0 0)
(-1.4237052 0 0)
(-1.4342568 0 0)
(-1.442187 0 0)
(-1.4472859 0 0)
(-1.4493724 0 0)
(-1.448315 0 0)
(-1.4440451 0 0)
(-1.4365614 0 0)
(-1.4259179 0 0)
(-1.4122566 0 0)
(-1.3957944 0 0)
(-1.3767882 0 0)
(-1.3555294 0 0)
(-1.3324098 0 0)
(-1.3079024 0 0)
(-1.2825028 0 0)
(-1.2567707 0 0)
(-1.2313555 0 0)
(-1.2069533 0 0)
(-1.1840633 0 0)
(-1.1642684 0 0)
(-1.1491453 0 0)
(-1.1399813 0 0)
(-0.98643106 0 0)
(-0.9471924 0 0)
(-0.90622728 0 0)
(-0.86335707 0 0)
(-0.8183565 0 0)
(-0.77097705 0 0)
(-0.72075634 0 0)
(-0.66727946 0 0)
(-0.61017677 0 0)
(-0.54886169 0 0)
(-0.48273486 0 0)
(-0.41010994 0 0)
(-0.33079757 0 0)
(-0.2452994 0 0)
(-0.15300626 0 0)
(-0.053095487 0 0)
(-1.0241648 0 0)
(-1.0606038 0 0)
(-1.0959237 0 0)
(-1.1302859 0 0)
(-1.1637611 0 0)
(-1.196457 0 0)
(-1.2285077 0 0)
(-1.2599973 0 0)
(-1.2909212 0 0)
(-1.3179969 0 0)
(-1.3407073 0 0)
(-1.3619103 0 0)
(-1.3815256 0 0)
(-1.399428 0 0)
(-1.4154635 0 0)
(-1.4294493 0 0)
(-1.4411877 0 0)
(-1.4504719 0 0)
(-1.4570873 0 0)
(-1.4608287 0 0)
(-1.4615304 0 0)
(-1.4590857 0 0)
(-1.4534458 0 0)
(-1.4446332 0 0)
(-1.4327279 0 0)
(-1.4178892 0 0)
(-1.4003486 0 0)
(-1.380369 0 0)
(-1.3582409 0 0)
(-1.3343552 0 0)
(-1.3091902 0 0)
(-1.2832238 0 0)
(-1.2570192 0 0)
(-1.2312106 0 0)
(-1.2058895 0 0)
(-1.1825523 0 0)
(-1.1627867 0 0)
(-1.1476116 0 0)
(-1.1383281 0 0)
(-1.0238934 0 0)
(-0.98654543 0 0)
(-0.94767462 0 0)
(-0.90716774 0 0)
(-0.8647194 0 0)
(-0.82009411 0 0)
(-0.77302548 0 0)
(-0.72305243 0 0)
(-0.66975306 0 0)
(-0.61275792 0 0)
(-0.55144103 0 0)
(-0.48393567 0 0)
(-0.41002976 0 0)
(-0.33071688 0 0)
(-0.24522381 0 0)
(-0.15293571 0 0)
(-0.053060959 0 0)
(-1.0598128 0 0)
(-1.094603 0 0)
(-1.1284269 0 0)
(-1.1613629 0 0)
(-1.1935248 0 0)
(-1.2250484 0 0)
(-1.2560173 0 0)
(-1.2864595 0 0)
(-1.3163954 0 0)
(-1.3424661 0 0)
(-1.3641189 0 0)
(-1.3842559 0 0)
(-1.4027985 0 0)
(-1.4196077 0 0)
(-1.4345142 0 0)
(-1.4473339 0 0)
(-1.4578618 0 0)
(-1.4658824 0 0)
(-1.4711857 0 0)
(-1.4735774 0 0)
(-1.4729123 0 0)
(-1.4691053 0 0)
(-1.4621315 0 0)
(-1.4520374 0 0)
(-1.4389214 0 0)
(-1.4229629 0 0)
(-1.4044045 0 0)
(-1.3835126 0 0)
(-1.3605747 0 0)
(-1.33598 0 0)
(-1.3102034 0 0)
(-1.2837195 0 0)
(-1.2570779 0 0)
(-1.23012 0 0)
(-1.2041807 0 0)
(-1.1809266 0 0)
(-1.1611659 0 0)
(-1.1459194 0 0)
(-1.1365005 0 0)
(-1.0595396 0 0)
(-1.0240101 0 0)
(-0.98703965 0 0)
(-0.94864251 0 0)
(-0.90857585 0 0)
(-0.86652256 0 0)
(-0.82224158 0 0)
(-0.77545741 0 0)
(-0.72569602 0 0)
(-0.67253462 0 0)
(-0.61559473 0 0)
(-0.55278311 0 0)
(-0.48383916 0 0)
(-0.40992409 0 0)
(-0.33061956 0 0)
(-0.24513066 0 0)
(-0.152852 0 0)
(-0.05302061 0 0)
(-1.0938028 0 0)
(-1.1270873 0 0)
(-1.159483 0 0)
(-1.1911028 0 0)
(-1.2220867 0 0)
(-1.2525252 0 0)
(-1.282449 0 0)
(-1.3119036 0 0)
(-1.3409171 0 0)
(-1.3660239 0 0)
(-1.3866467 0 0)
(-1.4057495 0 0)
(-1.4232426 0 0)
(-1.4389722 0 0)
(-1.4527635 0 0)
(-1.4644239 0 0)
(-1.473743 0 0)
(-1.4805026 0 0)
(-1.484496 0 0)
(-1.4855484 0 0)
(-1.4835371 0 0)
(-1.478399 0 0)
(-1.4701301 0 0)
(-1.4588008 0 0)
(-1.4445306 0 0)
(-1.4275114 0 0)
(-1.4079952 0 0)
(-1.3862509 0 0)
(-1.3625596 0 0)
(-1.3373064 0 0)
(-1.3109705 0 0)
(-1.2840084 0 0)
(-1.2559652 0 0)
(-1.2281933 0 0)
(-1.2023881 0 0)
(-1.1791867 0 0)
(-1.1593985 0 0)
(-1.1440607 0 0)
(-1.1345029 0 0)
(-1.0935295 0 0)
(-1.0596605 0 0)
(-1.0245155 0 0)
(-0.98803194 0 0)
(-0.9500895 0 0)
(-0.91043984 0 0)
(-0.86875713 0 0)
(-0.82478974 0 0)
(-0.77825263 0 0)
(-0.7286687 0 0)
(-0.67559468 0 0)
(-0.61705791 0 0)
(-0.55267471 0 0)
(-0.4837162 0 0)
(-0.40980138 0 0)
(-0.33050005 0 0)
(-0.24501898 0 0)
(-0.15275416 0 0)
(-0.052973798 0 0)