/*--------------------------------*- C++ -*----------------------------------*\
| =========                 |                                                 |
| \\      /  F ield         | OpenFOAM: The Open Source CFD Toolbox           |
|  \\    /   O peration     | Version:  v2012                                 |
|   \\  /    A nd           | Website:  www.openfoam.com                      |
|    \\/     M anipulation  |                                                 |
\*---------------------------------------------------------------------------*/
FoamFile
{
    version     2.0;
    format      ascii;
    class       surfaceScalarField;
    location    "23.365706412101066";
    object      meshPhi;
}
// * * * * * * * * * * * * * * * * * * * * * * * * * * * * * * * * * * * * * //

dimensions      [0 3 -1 0 0 0 0];
oriented        oriented;


internalField   nonuniform List<scalar> 
18180
(
0
0.040421015
-8.0963686e-14
0.037840176
0
0.077021741
8.100097e-14
0.035586832
0
0.071899124
-7.4893507e-14
0.10992427
-4.0539829e-14
0.033603382
7.7913685e-14
0.067292423
0
0.10250578
-7.2010655e-14
0.1401352
-4.0562165e-14
0.031882526
0
0.06336733
-7.4939459e-14
0.095821043
0
0.13075522
0
0.16804983
0
0.030338493
0
0.059981759
0
0.089939517
0
0.12213624
0
0.15691828
6.6562463e-14
0.19364326
-1.9277238e-17
0.028887417
1.6574563e-17
0.056945761
0
0.084873064
-3.6027526e-14
0.11457101
0
0.14669111
0
0.1808868
6.4013532e-14
0.21700483
0
0.02749455
3.903022e-14
0.054133174
-3.7504953e-14
0.080388086
-1.3310359e-17
0.10792317
6.9297131e-14
0.13747103
0
0.16909818
0
0.20280441
6.1566467e-14
0.23848817
0
0.026142249
0
0.051444474
3.7521594e-14
0.076208749
3.6072554e-14
0.10193696
-3.4682158e-14
0.1292427
-1.1219581e-17
0.15831116
0
0.18954543
0
0.22292345
0
0.25818914
8.1309038e-14
0.02482271
0
0.048851155
-3.7552245e-14
0.072229443
-3.6088218e-14
0.096423724
-3.4672928e-14
0.12189423
-1.1201466e-17
0.14862911
0
0.17742078
6.1602684e-14
0.20855153
0
0.24149251
0
0.27623646
4.0680926e-14
0.023532779
-3.9096761e-14
0.046340225
0
0.068400385
0
0.091214652
-1.2481739e-17
0.11521163
0
0.14006414
-3.2063843e-14
0.16653739
-9.7452374e-18
0.19539205
-5.9271158e-14
0.22615904
0
0.25852338
5.4793924e-14
0.29275531
0
0.022271638
0
0.043909499
-1.4889311e-17
0.064709889
0
0.086226147
0
0.10897175
-1.1387749e-17
0.13234317
3.2068891e-14
0.15677625
3.0829654e-14
0.18349702
2.9639882e-14
0.21229016
0
0.24243815
0
0.27415247
0
0.30789679
2.0354367e-14
0.021039724
0
0.041554019
0
0.061152645
0
0.081430735
3.4715874e-14
0.1030382
0
0.1252123
-1.0438356e-17
0.1480364
9.9810105e-18
0.17282586
-2.9664357e-14
0.19973123
0
0.22793585
-5.4846708e-14
0.25735254
0
0.28847833
0
0.32174027
-2.036019e-14
0.01983637
0
0.039269433
0
0.057729124
0
0.076817036
-3.4741278e-14
0.097349082
0
0.11850067
3.2109048e-14
0.14003585
0
0.16306943
0
0.18819069
0
0.21475641
2.742945e-14
0.24226019
0
0.2710412
0
0.30157635
4.8791542e-14
0.3343587
-2.0365331e-14
0.018663229
-1.9572254e-14
0.037053538
1.8807583e-14
0.054435627
0
0.072386632
0
0.091883642
-3.3410912e-14
0.112087
0
0.13251178
3.0885619e-14
0.154056
0
0.17751238
-2.8543538e-14
0.20250703
-7.980575e-18
0.22844677
-2.6389661e-14
0.25536807
-5.0765328e-14
0.28354159
0
0.313523
-4.6955415e-14
0.34584837
-2.0359229e-14
0.017525442
-9.2250526e-18
0.034906408
1.8804547e-14
0.051274169
0
0.06814356
0
0.086640662
0
0.10593557
0
0.12536149
0
0.14564937
2.9721261e-14
0.16756422
2.8560014e-14
0.19097493
-2.7469644e-14
0.21547822
2.6405575e-14
0.24094346
0
0.26732519
-1.1649735e-17
0.29494215
-4.6962095e-14
0.3243899
-4.5180065e-14
0.35629812
2.0363167e-14
0.016427108
-1.9571177e-14
0.032829182
-3.7624513e-14
0.048244468
-1.8085182e-14
0.064091738
0
0.081626219
0
0.10003696
0
0.11851211
-3.0912997e-14
0.13768125
0
0.15823777
0
0.18014836
-8.1122589e-18
0.20320386
2.6430019e-14
0.22730855
2.540719e-14
0.25232195
0
0.27821848
4.6986982e-14
0.30529223
0
0.33426869
-4.3473735e-14
0.36578304
2.0366618e-14
0.015374154
1.9574459e-14
0.030823395
-1.8819493e-14
0.045347618
-6.7843184e-18
0.060234601
-1.739026e-14
0.076841439
0
0.094393849
0
0.1119447
0
0.13007961
2.9730743e-14
0.14944884
0
0.17001692
0
0.19165221
-7.4209224e-18
0.2143714
6.7285178e-18
0.23810855
2.4447971e-14
0.26270859
-2.3508847e-14
0.28810716
-9.6013406e-18
0.31469756
4.3491327e-14
0.3432176
0
0.37437182
-2.0380265e-14
0.014370173
-1.9586676e-14
0.028892676
1.8814875e-14
0.04258328
0
0.05657309
-3.4780832e-14
0.072287451
-1.6725308e-14
0.089005997
0
0.10565212
0
0.12280344
0
0.14111195
0
0.16049644
0
0.18082086
0
0.20218796
2.5442955e-14
0.22460303
-2.4466073e-14
0.24795537
2.3526194e-14
0.27213348
4.9135841e-18
0.29708955
0
0.32320346
4.1851393e-14
0.35132626
0
0.38214214
0
0.013419504
0
0.027040704
7.6717989e-18
0.039949629
-1.8094842e-14
0.053105921
0
0.067962699
-6.6097638e-18
0.083870436
1.6082511e-14
0.099633611
1.547311e-14
0.11583618
0
0.13316462
0
0.15148971
-8.2203358e-18
0.17063702
0
0.19072698
0
0.21182519
2.4484874e-14
0.23390719
2.3550406e-14
0.25692614
-4.5290407e-14
0.28071762
0
0.30521249
-4.187769e-14
0.33090681
0
0.35864643
-3.8741148e-14
0.38915899
2.0374594e-14
0.012524413
0
0.025274595
0
0.037446265
-1.8090405e-14
0.049827693
1.7392687e-14
0.063864423
0
0.078983839
0
0.093887838
-5.0439507e-18
0.1091689
1.4887632e-14
0.1255764
0
0.14293405
0
0.16101185
0
0.17992723
0
0.19977431
0
0.2206333
-2.3569826e-14
0.24246136
0
0.26511374
-4.543521e-18
0.28848318
0
0.31256613
0
0.33785016
0
0.36525686
-5.6021851e-18
0.39548141
0
0.011686269
-1.9583754e-14
0.023600687
-1.8829246e-14
0.03507364
0
0.046734199
7.0597199e-18
0.059986159
-6.8299137e-18
0.074340479
0
0.088412511
3.0952929e-14
0.10279953
-4.8579723e-18
0.11832919
0
0.1347865
0
0.15187685
0
0.16973187
-6.8939888e-18
0.18842882
0
0.20810846
0
0.22878457
-2.2684309e-14
0.25028418
0
0.27255934
-4.1237791e-18
0.2955297
0
0.31919676
0
0.34411512
0
0.37119773
0
0.40115989
1.0194461e-14
0.010904443
0
0.022021892
0
0.032833164
0
0.043819258
-7.122687e-18
0.05632032
1.6737391e-14
0.06993323
-1.6098127e-14
0.083203515
0
0.096727529
4.4679988e-14
0.11141449
-1.4331154e-14
0.12702639
0
0.14318679
0
0.1600663
-2.5511859e-14
0.17771753
0
0.19625681
0
0.21588002
0
0.23634015
0
0.25743618
0
0.27930145
0
0.30188492
-1.9409396e-14
0.32517063
0
0.34973802
0
0.37653826
0
0.4062547
3.0575161e-14
0.010176918
-9.7887052e-15
0.020538768
0
0.030722207
0
0.041076655
0
0.052856902
1.6732458e-14
0.065751956
0
0.078256416
-5.003003e-18
0.090952611
-1.4895404e-14
0.10482966
-4.6783085e-18
0.11963874
0
0.13491272
1.3270085e-14
0.15087614
0
0.16757182
0
0.1850657
2.3621328e-14
0.20367961
0
0.22318973
0
0.24321511
0
0.26390266
0
0.28541658
-3.3548778e-18
0.30761286
1.8680734e-14
0.33052831
0
0.35478501
0
0.38131125
-3.3240168e-14
0.41080632
-1.0195901e-14
0.009501238
1.9592537e-14
0.019150179
3.9818156e-18
0.028738169
0
0.038498812
0
0.049586723
-7.1071116e-18
0.061787475
0
0.073564924
-1.5485645e-14
0.085471738
0
0.098570936
-1.4339725e-14
0.11261484
1.3793305e-14
0.12703743
1.3272036e-14
0.14212367
0
0.1579418
-2.4578696e-14
0.1744741
0
0.19205533
-2.2743742e-14
0.21066658
0
0.22982808
0
0.24943155
0
0.26977082
-1.9445457e-14
0.29091122
-3.0066932e-18
0.31274153
-1.7977386e-14
0.33532497
-3.4579236e-14
0.35928592
0
0.38557335
0
0.41486159
5.2473016e-18
0.0088738435
1.9593552e-14
0.017854595
-9.4172266e-15
0.026875539
9.0525622e-15
0.036077808
-1.7408583e-14
0.046501499
0
0.058030793
0
0.069120688
0
0.080280415
-1.4901506e-14
0.092633286
-4.8037195e-18
0.10594781
1.3801811e-14
0.11955045
-3.8191598e-18
0.13378784
-1.2779646e-14
0.14877461
1.229648e-14
0.16440506
0
0.18098905
0
0.19868741
-2.1894136e-14
0.21706439
0
0.23578582
0
0.25504937
1.9466857e-14
0.27506113
-1.8717389e-14
0.29585123
-2.6816291e-18
0.31732673
0
0.33960036
0
0.36329492
0
0.38935361
0
0.41844982
-5.2441573e-18
0.008291407
0
0.016647991
-9.4176559e-15
0.025129843
0
0.033803997
8.7048474e-15
0.043593671
0
0.054473579
0
0.064915478
0
0.075371985
0
0.087008365
0
0.099627765
0
0.11244568
-1.3285684e-14
0.12585782
-3.5493753e-18
0.14004488
0
0.15482997
2.9962628e-18
0.1704794
0
0.18722599
0
0.20478075
2.1077152e-14
0.22276036
0
0.24115076
0
0.26012283
1.8739063e-14
0.27980705
0
0.30024494
-1.7325006e-14
0.32140721
-1.6657852e-14
0.34339279
0
0.36684529
0
0.39269927
0
0.42161869
1.0192254e-14
0.0077500942
-9.7998931e-15
0.015525797
4.0628851e-18
0.0234949
3.6343181e-18
0.031669175
0
0.040855414
3.6489563e-18
0.051109364
0
0.060939289
0
0.070738189
0
0.081687385
0
0.093641325
4.2078065e-18
0.10570988
1.3286004e-14
0.11832654
0
0.13174125
-3.2082802e-18
0.14571537
0
0.16048353
1.1397564e-14
0.17630406
0
0.19298633
0
0.21021633
-4.1507194e-18
0.22785624
0
0.24596337
0
0.26466338
0
0.28403985
0
0.30416812
1.6674542e-14
0.32501591
1.6032571e-14
0.3467486
0
0.36997913
0
0.39563497
2.8534369e-14
0.42439143
0
0.0072460601
0
0.014483255
-4.0848155e-18
0.02196493
0
0.029664892
0
0.038278849
-1.6746328e-14
0.047931546
-1.6102997e-14
0.057182358
-1.5493152e-14
0.066367331
0
0.076660002
1.4346573e-14
0.08797378
0
0.099330124
1.3293432e-14
0.11118382
-1.2794604e-14
0.12385428
0
0.13704806
-2.9708713e-18
0.15097958
-1.1404856e-14
0.16592839
2.1945225e-14
0.18174168
0
0.19816727
0
0.21508594
1.9532009e-14
0.23244528
0
0.25029728
3.6125608e-14
0.26873141
-2.5259952e-18
0.28781202
0
0.30761963
0
0.32819953
-3.0867733e-14
0.34969864
0
0.37272433
0
0.39819944
0
0.42680657
0
0.0067736444
0
0.013515029
0
0.020534367
9.0504663e-15
0.027785083
8.706118e-15
0.03585638
-3.6904226e-18
0.044933225
8.0549594e-15
0.053635806
7.749665e-15
0.062248711
0
0.071915778
0
0.082612206
0
0.093290888
0
0.10441683
-2.5593459e-14
0.1163751
-1.2318919e-14
0.1288162
-1.1856923e-14
0.14194628
-2.8886129e-18
0.15607867
1.097894e-14
0.17106386
0
0.18667641
0
0.20285834
0
0.21950332
1.8805414e-14
0.23657157
0
0.25418647
0
0.27236935
-2.2536961e-18
0.29115082
1.6073485e-14
0.31067139
-1.545294e-14
0.33098741
1.4857831e-14
0.35228532
2.8573558e-14
0.37511357
-2.7486451e-14
0.40041541
0
0.42888208
3.1098172e-05
0.0074276546
-9.7958772e-15
0.012610507
9.4188846e-15
0.01919689
0
0.026021524
0
0.033581776
3.7057321e-18
0.042107241
0
0.050291303
0
0.058369945
7.4580498e-15
0.06744296
0
0.077542531
0
0.087578962
0
0.09801157
0
0.10928973
0
0.12100887
0
0.13336943
-1.1417525e-14
0.14672971
1.0985952e-14
0.16093477
1.0572225e-14
0.17575544
0
0.19116721
0
0.20712156
-1.8830275e-14
0.2234782
1.8106288e-14
0.24029798
0
0.25769413
1.6742119e-14
0.27560606
-1.9705195e-18
0.29408839
1.6643752e-18
0.31332807
0
0.33342598
1.2122152e-18
0.35452429
0
0.37717783
0
0.40231546
2.5459499e-14
0.43065828
5.2324671e-05
0.0074110095
8.5659813e-05
0.013692747
0
0.017940118
0
0.024366336
-8.7030694e-15
0.031446042
-1.6748624e-14
0.039446032
8.0557963e-15
0.047139393
7.7482435e-15
0.054719051
1.4914817e-14
0.063228564
2.5766352e-18
0.072750015
-1.3818658e-14
0.082178296
0
0.091954461
0
0.10258522
1.2326823e-14
0.11361331
1.1866476e-14
0.12523394
-1.1422942e-14
0.13786207
-1.0995118e-14
0.15132914
-2.5372085e-18
0.16538835
1.0181028e-14
0.18003054
2.0696171e-18
0.19528581
0
0.2109913
0
0.22705986
1.7433454e-14
0.24365763
0
0.26082121
0
0.27845547
-1.7374066e-18
0.29666036
0
0.31565532
-1.2159599e-18
0.3355255
1.3768099e-14
0.35646199
-2.6483247e-14
0.37894193
0
0.40392131
0
0.4321533
6.4775089e-05
0.0073955878
0.00014395874
0.0136738
0.00013017848
0.019350159
0
0.022804985
0
0.029440556
8.3708902e-15
0.036941297
0
0.044170778
-7.748659e-15
0.051283604
1.4915885e-14
0.059260585
0
0.068222691
1.3820323e-14
0.077074667
0
0.086232258
0
0.09624649
-1.2330075e-14
0.10661581
0
0.11752727
-1.1424853e-14
0.12945851
-2.8408757e-18
0.14222322
2.1175294e-14
0.15555629
-2.3185148e-18
0.16945583
-9.8068062e-15
0.1839689
0
0.19902252
0
0.21445386
0
0.2302838
1.6785853e-14
0.24667681
0
0.26359855
0
0.28096174
-1.5053935e-18
0.29890172
0
0.31764846
-1.3786166e-14
0.33733495
1.3254761e-14
0.35811254
2.5494785e-14
0.38043412
0
0.40526209
-2.3601298e-14
0.43340088
6.9564549e-05
0.0073829388
0.00017802121
0.013652628
0.00021873827
0.019389205
0.00016772627
0.024447678
0
0.027553439
0
0.034584018
0
0.041376524
-7.7539448e-15
0.048054131
-7.4571538e-15
0.05552769
-1.4359567e-14
0.063949679
-2.0801581e-18
0.072253204
1.8081799e-18
0.080830605
0
0.090259032
0
0.10000176
1.1871117e-14
0.1102342
0
0.12150244
2.8885447e-18
0.13359989
0
0.14623314
1.0195929e-14
0.15941766
1.9625748e-14
0.17318949
-1.8887206e-14
0.18753431
0
0.20237002
0
0.21756483
0
0.23318565
0
0.24937195
0
0.26605478
1.4939619e-14
0.28315426
0
0.30084123
1.3805234e-14
0.3193671
-1.3273033e-14
0.33886754
1.2760928e-14
0.35951788
0
0.38167302
0
0.40635961
-8.6261966e-19
0.43441658
6.7800667e-05
0.0073731328
0.00019098122
0.013634119
0.00027044969
0.019417084
0.00028219797
0.024597093
0.0002000978
0.029323196
0
0.032358673
0
0.038747129
0
0.04501821
-2.5048442e-18
0.052017587
-7.1776855e-15
0.059920525
6.911484e-15
0.067700112
-6.6536607e-15
0.075733568
1.8306017e-18
0.084608905
0
0.093755484
-1.1877033e-14
0.10333987
0
0.11397787
0
0.12544011
2.1198527e-14
0.13739797
1.0202389e-14
0.14989842
0
0.16296111
9.4511884e-15
0.17657008
-9.0959833e-15
0.190746
8.7505799e-15
0.20539808
0
0.22038414
1.6187701e-14
0.23579901
1.5562248e-14
0.25178667
0
0.26822615
0
0.28506238
1.3824777e-14
0.30250036
-1.3289794e-14
0.32081369
-1.2777631e-14
0.34016746
-2.4571689e-14
0.36068103
2.3632655e-14
0.38268924
0
0.40723903
2.1879922e-14
0.43523153
6.0605456e-05
0.0073660811
0.00018595945
0.013618517
0.00029005621
0.019440048
0.00034926817
0.024721539
0.00033694417
0.029580247
0.00022952741
0.034182976
0
0.036262804
0
0.042164345
0
0.048717716
-7.180716e-15
0.056122153
-6.9099486e-15
0.063403976
-6.6525577e-15
0.070928126
6.405011e-15
0.079282042
0
0.087863627
0
0.09682881
-1.1439269e-14
0.10686809
0
0.11772693
0
0.12903273
1.0210638e-14
0.14087369
0
0.15326746
0
0.16616408
0
0.17962863
-8.7604709e-15
0.19370166
-8.4258737e-15
0.20817999
0
0.2229335
0
0.23815986
0
0.25393797
0
0.27012413
-1.3846558e-14
0.28669796
0
0.30391169
1.2795609e-14
0.3220385
1.2301221e-14
0.34123614
2.365813e-14
0.36164448
-2.2755194e-14
0.38349811
0
0.40791984
2.1068544e-14
0.43585979
4.9098298e-05
0.0073616988
0.0001660815
0.013605852
0.00028235272
0.019458161
0.00037493565
0.024830166
0.00041737035
0.02980277
0.00038654175
0.034560768
0.00025349193
0.038050862
0
0.039472227
0
0.045616346
0
0.052544097
6.9104077e-15
0.059353401
1.7693441e-18
0.066402762
0
0.074266427
6.1681399e-15
0.082313138
5.9410215e-15
0.09068739
0
0.10015727
0
0.11044309
-1.0609916e-14
0.12111857
-1.0215901e-14
0.1323232
-9.8333361e-15
0.1440824
0
0.15630649
9.1131308e-15
0.1690612
0
0.18247105
-8.4374685e-15
0.19644819
8.1160044e-15
0.21071534
0
0.225253
0
0.2402867
1.4427969e-14
0.25584548
0
0.27176881
0
0.2880951
0
0.30509545
1.2319199e-14
0.32303974
1.1843576e-14
0.34211607
0
0.36241765
-6.6768927e-19
0.38412754
-2.1079698e-14
0.40842294
-2.0288344e-14
0.4363252
3.4408276e-05
0.0073599224
0.00013444388
0.013595972
0.00025206779
0.019471737
0.00036523083
0.024922221
0.00044835834
0.029997021
0.0004788215
0.034887137
0.0004269697
0.038572416
0.00026990654
0.041156429
0
0.042695436
0
0.049174827
0
0.055538159
-6.6554227e-15
0.062144619
6.4082711e-15
0.06954903
-6.1705168e-15
0.077090476
1.1881416e-14
0.084902209
-5.7224084e-15
0.09382905
0
0.10357153
0
0.11363901
-2.4688091e-18
0.12422667
0
0.13537981
-9.4727151e-15
0.14697011
9.1189008e-15
0.15904474
0
0.17176119
-8.4470632e-15
0.1851637
-1.3943694e-18
0.19899625
7.8162094e-15
0.21302022
0
0.22735072
0
0.2421913
0
0.2575131
0
0.27318386
0
0.28927259
-1.233821e-14
0.30607979
1.1860798e-14
0.32386241
-3.9847416e-19
0.34282245
0
0.36303796
0
0.38458699
0
0.40876565
0
0.43663762
1.7663822e-05
0.0073607461
9.4151007e-05
0.013588543
0.00020397026
0.019480887
0.00032625658
0.024997648
0.00043700596
0.030162428
0.0005143822
0.035170302
0.00052894425
0.039026256
0.00045482003
0.041838454
0.00028241288
0.04422127
0
0.045993158
0
0.051946888
0
0.058141755
6.4069572e-15
0.0651165
1.5548484e-18
0.072181074
0
0.079459855
0
0.087867986
5.512265e-15
0.097093969
0
0.1065758
0
0.116567
0
0.12713902
9.4785785e-15
0.13812404
0
0.14955816
0
0.1616013
-8.4559845e-15
0.17435094
-8.1363275e-15
0.18769059
0
0.20131346
-7.5264077e-15
0.21510452
0
0.22924136
0
0.24387912
0
0.25897372
0
0.27439105
0
0.29025683
0
0.30687785
0
0.32451783
-1.0979935e-14
0.34339125
0
0.36350685
-3.5769096e-19
0.38490268
0
0.40896435
1.8814613e-14
0.43681882
0.0073639018
0
4.8304201e-05
0.013583611
0.00014277627
0.019485395
0.00026411382
0.025056651
0.00039057974
0.030298694
0.00050136021
0.035410181
0.00056829278
0.039423128
0.00056372753
0.0424371
0.00047605501
0.045051634
0.00029369144
0.047293072
0
0.048554951
0
0.054381679
0
0.060954614
-1.5510557e-18
0.067571098
5.9436769e-15
0.074346125
0
0.082258403
5.5135101e-15
0.090991834
1.3648806e-18
0.099911884
0
0.10932708
0
0.11934
0
0.12974565
-9.1337856e-15
0.14056925
-8.7917683e-15
0.15197179
-8.4642247e-15
0.16405353
-8.1440619e-15
0.17680305
-1.3563667e-18
0.19001575
-7.5383039e-15
0.20340796
0
0.21698058
-1.3940007e-14
0.23093223
0
0.2453743
-1.2879401e-14
0.26023152
0
0.27540614
1.1898821e-14
0.29105699
-4.3896229e-19
0.30752134
0
0.32504341
0
0.34383628
0
0.36385865
0
0.38508348
0
0.40903413
1.811956e-14
0.43687633
0.013580974
0
0.0073689114
-1.7687861e-05
7.3217896e-05
0.019485242
0.0001849365
0.025099318
0.00031630919
0.030405781
0.00044807282
0.035606597
0.00055397312
0.039762324
0.00060591135
0.042963492
0.00059018391
0.045781809
0.00049481141
0.048237191
0.00030155386
0.04958719
0
0.050842065
0
0.057047399
0
0.063247009
-5.9443479e-15
0.069549892
5.7253998e-15
0.076985692
0
0.085247396
5.3100933e-15
0.093628988
5.1158574e-15
0.10248892
-9.8545494e-15
0.11196603
0
0.12181368
9.1375517e-15
0.13205051
8.8000101e-15
0.14284969
0
0.15428808
-1.5181435e-18
0.16638831
7.8451277e-15
0.1790879
7.5474149e-15
0.19212105
7.2592497e-15
0.20527927
0
0.21865851
-1.3423635e-14
0.23243896
0
0.24668144
1.240097e-14
0.26131043
0
0.27624286
1.1455881e-14
0.29169904
-1.1012221e-14
0.30802648
-1.0586659e-14
0.32545916
-1.0180258e-14
0.3441891
0
0.36410138
-1.8838583e-14
0.38515119
0
0.40898643
0
0.43682773
0.019480568
0
0.013581231
-4.8328562e-05
0.0073754695
-3.4499097e-05
9.4851529e-05
0.025125045
0.0002215614
0.030483631
0.00036285285
0.035759306
0.00049510535
0.040042772
0.0005908572
0.043415382
0.00063445266
0.046417752
0.00061309239
0.049056255
0.00050765426
0.050654302
0.00030562681
0.051634095
0
0.053366969
0
0.059192648
5.944933e-15
0.065055436
0
0.072034346
-5.5138472e-15
0.07984347
5.3126158e-15
0.087710257
0
0.096036203
-4.9277905e-15
0.10499884
0
0.11430999
-9.1443836e-15
0.12398126
0
0.13420516
-1.6293109e-18
0.14503886
0
0.15648826
7.8539664e-15
0.16857585
-7.5571274e-15
0.18117307
7.270786e-15
0.19399806
6.9914944e-15
0.20693928
0
0.22015307
0
0.23376851
0
0.24781395
-7.8450714e-19
0.26221151
0
0.2769204
-2.2060573e-14
0.29220208
0
0.30842639
0
0.32579853
9.8023464e-15
0.34446999
0
0.36426099
-1.8142076e-14
0.38510821
0
0.40883686
0
0.43667765
0.025133048
0
0.019473544
-7.3187994e-05
0.013584292
-9.4242367e-05
0.0073836689
-4.9285506e-05
0.00011365984
0.030531894
0.00025413731
0.035867992
0.00040096193
0.040263604
0.00052828217
0.043791135
0.00061876087
0.046958358
0.00065861767
0.049760373
0.00062850905
0.05157746
0.00051463124
0.052888445
0.0003091742
0.053913426
0
0.055368429
0
0.060847769
-5.7268159e-15
0.067387404
-5.5163912e-15
0.074759745
5.3136254e-15
0.082139312
0
0.089953285
-1.2448836e-18
0.098422379
1.0798803e-18
0.10721803
0
0.11634196
0
0.1260151
0
0.13627982
0
0.14710447
-7.8621427e-15
0.15854441
0
0.17059385
-7.2807695e-15
0.18304669
-7.003033e-15
0.19565886
-6.7342785e-15
0.20841746
-6.4737499e-15
0.22147739
1.2445853e-14
0.23492736
0
0.24877927
0
0.26296333
0
0.27745611
0
0.29258629
0
0.30873931
9.8159289e-15
0.32608336
-1.5059372e-19
0.34469885
-1.8159607e-14
0.3643313
0
0.38497331
0
0.40859429
0
0.43644098
0.030549543
0
0.025127043
-9.4796115e-05
0.019464486
-0.00014266159
0.013589487
-0.00013463104
0.0073934438
-6.0897011e-05
0.00013036068
0.035932686
0.00028083134
0.040424301
0.0004279625
0.044089247
0.00055324521
0.047402927
0.00064189304
0.050350317
0.00067473121
0.052373927
0.00063729989
0.053995073
0.00052097265
0.05536378
0.00031109834
0.055605589
0
0.056891747
0
0.063028226
5.5171193e-15
0.069978989
-5.3145102e-15
0.076899001
0
0.084225773
0
0.09222002
-1.0920651e-18
0.10052164
9.1841929e-19
0.10911749
8.8159913e-15
0.1182595
0
0.12798476
-1.5397741e-18
0.13822026
-7.8710559e-15
0.14902095
-7.5747113e-15
0.16045675
7.2889458e-15
0.1724394
0
0.18471508
-8.5168167e-19
0.19712363
0
0.20972106
0
0.22263575
0
0.23592781
0
0.24959818
-5.4142425e-19
0.26356864
0
0.27786442
0
0.29287327
0
0.30899496
0
0.32633372
-9.0902884e-15
0.34487627
0
0.36433248
1.7346141e-19
0.38475135
0
0.4082717
0
0.43611974
0.035952906
0
0.030542677
-0.0001136073
0.025107197
-0.00018472439
0.019451813
-0.00020373226
0.013597089
-0.00016637202
0.0074046906
-6.8185195e-05
0.00014405736
0.040524598
0.00029983144
0.044309157
0.00044818983
0.04775143
0.00057354758
0.0508278
0.00065714696
0.053043584
0.00068437633
0.054962654
0.00064569607
0.056652575
0.00052424495
0.057187113
0.00030954195
0.056804781
0
0.058931073
0
0.065482065
1.0629212e-14
0.071972872
-1.2222213e-18
0.078837604
-4.9317843e-15
0.086376673
0
0.094204541
0
0.10229215
8.7610554e-19
0.11092265
8.4938296e-15
0.12013372
8.1800537e-15
0.12981025
0
0.13999906
-7.5825128e-15
0.15080799
-7.2976789e-15
0.16223479
0
0.17410197
-6.7552999e-15
0.18618089
-6.4970722e-15
0.19840893
0
0.21086361
6.0037758e-15
0.22364012
1.1540611e-14
0.23678374
0
0.25027981
-4.3810397e-19
0.26405089
0
0.27816306
0
0.29307936
9.4660231e-15
0.30920666
0
0.32655671
-1.1880717e-19
0.34501599
0
0.36426119
-1.6206741e-14
0.38445705
0
0.4078731
-1.501872e-14
0.4357259
0.040564054
0
0.035938918
-0.00013027898
0.030511622
-0.00022136035
0.025069626
-0.00026366696
0.019435799
-0.00025169267
0.013607651
-0.00018635147
0.0074172007
-7.0001509e-05
0.00015383914
0.044450165
0.00031399203
0.048003753
0.00046434401
0.051194183
0.00058682413
0.053588466
0.00066676705
0.055788691
0.00069399608
0.057786463
0.00064984925
0.058583881
0.00052143385
0.058514983
0.00030784225
0.058535692
5.5161506e-15
0.061238425
0
0.067343801
0
0.073772404
-4.9340884e-15
0.080874145
-4.7524022e-15
0.088250548
-9.1583514e-15
0.095851481
4.4110866e-15
0.10398988
-4.2491367e-15
0.1127084
0
0.12185348
0
0.1314593
0
0.14165466
0
0.15248821
1.1611926e-18
0.16387489
0
0.17558395
0
0.18745983
6.2559788e-15
0.19953408
-5.4023664e-19
0.21185719
-5.7812459e-15
0.2245025
1.1112231e-14
0.23750851
0
0.25083788
1.0262339e-14
0.26441301
0
0.27836452
0
0.29322715
9.1151344e-15
0.30939175
-8.7652083e-15
0.32676141
-8.4307479e-15
0.34511326
0
0.36413339
0
0.38409022
0
0.40741299
0
0.43525933
0.044510902
0
0.04055646
-0.00014397606
0.035891366
-0.00025382586
0.03045037
-0.00031587977
0.025013725
-0.00032551903
0.019416823
-0.00028186696
0.013621297
-0.00019143116
0.0074307913
-6.5207849e-05
0.00016109778
0.048159958
0.00032512448
0.051451649
0.00047485556
0.054010079
0.00059569579
0.056472291
0.00067672788
0.058760952
0.00069851488
0.059813799
0.00064613733
0.060025974
0.00051869232
0.060422203
0.00030804478
0.060522903
0
0.062978462
0
0.069014911
0
0.075696147
0
0.082641308
9.0103449e-19
0.089780154
-4.4127251e-15
0.097445625
0
0.10569344
7.8844976e-19
0.11433103
0
0.12337981
0
0.13298806
0
0.14322738
0
0.15406863
1.0526907e-18
0.1653555
6.5157958e-15
0.17687377
0
0.18857457
0
0.20051845
-4.7008402e-19
0.21271697
1.1133303e-14
0.22523636
0
0.23811047
0
0.25128256
0
0.26467722
0
0.27848677
0
0.29332527
-6.9925265e-20
0.30954622
0
0.32694441
8.1194511e-15
0.34517859
0
0.36393436
0
0.38366362
-1.4473025e-14
0.40689376
0
0.43473447
0.048218739
0
0.04450805
-0.00015380133
0.040502296
-0.00028052222
0.035801351
-0.00036220547
0.030358399
-0.00038983817
0.024939233
-0.00036419506
0.019394999
-0.00028949651
0.013637512
-0.00017846921
0.0074455238
-5.2681684e-05
0.00016672748
0.051601863
0.00033236089
0.054310896
0.00048222363
0.057012295
0.00060500432
0.05957204
0.00068121981
0.060870975
0.00069435572
0.061355751
0.00064272185
0.06209542
0.0005190653
0.062590525
0.00030702261
0.06193387
-5.12122e-15
0.064536755
0
0.070826192
4.7544066e-15
0.077361886
-8.9707998e-19
0.08406236
8.8595073e-19
0.09127552
0
0.099071644
8.1949964e-15
0.10722538
0
0.1157426
0
0.12478859
0
0.13445015
0
0.14471784
6.7829197e-15
0.15551384
6.5260805e-15
0.16666373
0
0.17799913
0
0.18955267
-5.0382769e-19
0.2013794
5.5771675e-15
0.21345198
5.3599521e-15
0.22584891
0
0.23860519
0
0.25162927
0
0.26484748
0
0.27853917
-8.7911018e-15
0.29337723
8.4528062e-15
0.30967794
0
0.32710527
-5.8410994e-20
0.34518174
-7.5241663e-15
0.36367665
0
0.38318226
-1.3941661e-14
0.40632818
0
0.43415066
0.051645568
0
0.048200587
-0.0001610249
0.044441894
-0.00029968921
0.040388842
-0.0004003296
0.035669835
-0.00044701947
0.030235244
-0.00043590971
0.024845899
-0.00037364252
0.019370039
-0.00026988157
0.013656393
-0.00014432961
0.0074616241
-3.1310766e-05
0.00017039469
0.054492649
0.00033764954
0.057407306
0.00049008404
0.060215702
0.00060911902
0.061749471
0.0006770305
0.062497263
0.00069069206
0.063560773
0.00064331196
0.064420731
0.00051740469
0.064162471
0.000303875
0.063161508
0
0.06623392
4.7552181e-15
0.072395466
0
0.078683531
4.4154192e-15
0.085464486
4.255287e-15
0.092827631
0
0.10051929
-3.9488285e-15
0.10852945
0
0.11703839
0
0.12614627
0
0.13584625
-1.0968456e-18
0.14609717
0
0.15681582
0
0.16782222
-6.0462453e-15
0.17899408
0
0.19041717
5.5877798e-15
0.20212472
0
0.21406997
2.582547e-19
0.22635533
-9.9190336e-15
0.23900313
-1.9064121e-14
0.25188774
9.1609786e-15
0.26494209
0
0.27853084
8.4655216e-15
0.29338835
-1.5991681e-20
0.30977075
7.8293165e-15
0.32721424
0
0.34513235
7.2473406e-15
0.36335729
0
0.38265671
0
0.4057175
0
0.4335186
0.054555918
0
0.051608629
-0.00016654369
0.048106042
-0.00031371291
0.044296369
-0.00042767781
0.040217838
-0.00049412401
0.035497223
-0.00049991009
0.030080904
-0.00044691393
0.024735002
-0.00034786683
0.019341857
-0.00021825107
0.013678696
-8.5888736e-05
0.0074774807
0
0.00017316448
0.057656809
0.00034332799
0.060688439
0.00049347029
0.062444831
0.00060524513
0.063445283
0.00067338941
0.064813983
0.00069128448
0.066019601
0.00064124444
0.06613328
0.00051216499
0.065549848
0.00030050752
0.064519449
4.7567167e-15
0.067705837
0
0.073627765
0
0.079996592
-4.2566326e-15
0.086943139
-4.1005571e-15
0.094196096
-3.9514562e-15
0.10172366
0
0.10972079
-7.3321474e-15
0.1182992
0
0.12745248
0
0.13714557
0
0.14735452
0
0.15799774
-6.0551877e-15
0.16886047
0
0.17987371
0
0.19117876
-5.3812848e-15
0.20276422
-5.1712423e-15
0.21458381
-4.969337e-15
0.22676543
0
0.23931801
-9.1780087e-15
0.25206767
-8.8210339e-15
0.26496459
-8.4791251e-15
0.2784688
0
0.29335077
0
0.30982039
3.761352e-20
0.32726848
-7.2545723e-15
0.34501611
-6.9809655e-15
0.36299083
0
0.3820843
0
0.40507506
-1.2457645e-14
0.43281533
0.057760152
0
0.054531378
-0.00017019742
0.051491506
-0.00032441287
0.047914892
-0.00044760232
0.044071973
-0.00052784359
0.039990647
-0.00055270531
0.035284125
-0.00051261374
0.029897416
-0.00041575013
0.024604194
-0.00028086787
0.019311323
-0.00012989219
0.013700029
0
0.0068162474
0
0.00017613924
0.060988186
0.0003457161
0.062953802
0.00049023982
0.064194491
0.00060193846
0.065851348
0.00067394482
0.067382929
0.00068906906
0.06785726
0.00063479568
0.067666179
0.00050650193
0.067067731
0.0002966925
0.065652331
0
0.06885875
0
0.074855692
-4.2578101e-15
0.081401294
-4.1027973e-15
0.088236156
6.5317256e-19
0.095308108
-3.80865e-15
0.1028183
0
0.11089233
-3.5329e-15
0.11952297
0
0.12867285
0
0.13833473
6.3032338e-15
0.14851566
6.0642991e-15
0.15907645
5.8333754e-15
0.16978749
-5.3655843e-19
0.18066053
0
0.19184715
-5.1818246e-15
0.20330753
0
0.21500486
0
0.22709307
0
0.23955492
0
0.25217914
-2.6992617e-21
0.2649299
-8.1650704e-15
0.27835323
0
0.29326988
1.5100203e-14
0.30980208
7.2626403e-15
0.32725472
6.987763e-15
0.34485154
0
0.36256071
0
0.38147573
0
0.40439185
0.0039358963
0.42809537
0.061113461
0
0.057751918
-0.00017306337
0.05441794
-0.00033158606
0.051269338
-0.0004628297
0.047627436
-0.00055227001
0.043769265
-0.00059030443
0.039707557
-0.00056685933
0.035031495
-0.00047696438
0.02968235
-0.00033531447
0.024453669
-0.00016682854
0.019272286
0
0.01261972
0
0.0072863612
0
0.00017737295
0.063274518
0.00034340548
0.064741762
0.00048751711
0.066669386
0.00060236862
0.068507002
0.00067175547
0.069327718
0.00068220791
0.06951676
0.0006277918
0.069325151
0.00050009723
0.068345656
0.00029170087
0.066479896
0
0.070010161
0
0.076184482
0
0.082622962
-6.4868194e-19
0.089265013
5.8995858e-19
0.096313908
3.6710244e-15
0.10390751
7.0715519e-15
0.11203962
5.5711873e-19
0.1206707
0
0.12978835
0
0.13944087
-8.9199154e-19
0.14960833
0
0.16006679
6.1488344e-19
0.17061978
5.4013093e-15
0.18136115
5.191665e-15
0.19243272
-4.9895784e-15
0.20376426
9.5886993e-15
0.21534354
-4.6069093e-15
0.22734329
8.853989e-15
0.23972787
0
0.25223228
0
0.26483787
0
0.27819348
0
0.29312667
0
0.30972077
6.9952264e-15
0.32718084
6.7309942e-15
0.34460908
0
0.36207927
0
0.38084478
0.0076243382
0.39996483
0.0035778762
0.42365846
0.063405227
0
0.061101991
-0.00017608087
0.057631528
-0.00033724428
0.054185791
-0.00047320185
0.050942621
-0.00057106623
0.047243163
-0.00061738825
0.043387579
-0.00060527523
0.039369005
-0.00052754317
0.034739746
-0.00038484072
0.029434829
-0.00019893284
0.024275178
0
0.017870374
0
0.013528408
0
0.0077849425
5.2644414e-18
0.00017616343
0.065084853
0.00034146291
0.067264495
0.00048780194
0.069387912
0.00060034919
0.070538522
0.00066510356
0.071094824
0.00067467628
0.07129666
0.00061986988
0.070730034
0.00049159973
0.069318178
0.00028599731
0.067313057
0
0.071260003
0
0.077338491
0
0.083577488
-5.8069876e-19
0.090190184
7.345925e-15
0.097326965
-3.5383766e-15
0.10498407
-3.4075438e-15
0.11312016
-3.2813869e-15
0.12171649
0
0.13082901
0
0.14050662
0
0.15063656
0
0.16096197
0
0.171366
-5.2020903e-15