/*--------------------------------*- C++ -*----------------------------------*\
| =========                 |                                                 |
| \\      /  F ield         | OpenFOAM: The Open Source CFD Toolbox           |
|  \\    /   O peration     | Version:  v2012                                 |
|   \\  /    A nd           | Website:  www.openfoam.com                      |
|    \\/     M anipulation  |                                                 |
\*---------------------------------------------------------------------------*/
FoamFile
{
    version     2.0;
    format      ascii;
    class       surfaceScalarField;
    location    "23.365706412101066";
    object      phi;
}
// * * * * * * * * * * * * * * * * * * * * * * * * * * * * * * * * * * * * * //

dimensions      [0 3 -1 0 0 0 0];
oriented        oriented;


internalField   nonuniform List<scalar> 
18180
(
0.0098507487
-3.5905971
0.019630262
-3.3589896
0.0089099417
-3.6361078
0.029154135
-3.1425521
0.017983868
-3.4021225
0.0078396766
-3.67685
0.038684191
-2.9406834
0.027298669
-3.1835725
0.016006336
-3.4408958
0.0062714665
-3.7133324
0.047908542
-2.7515729
0.037168687
-2.9803173
0.024870187
-3.220965
0.013051752
-3.4759255
0.0042091941
-3.7454562
0.056564744
-2.5742767
0.047474927
-2.7899784
0.034846212
-3.0168655
0.020947393
-3.2551758
0.0090652207
-3.5069446
0.0016317755
-3.7726814
0.064115037
-2.4075558
0.058009485
-2.6114186
0.046091606
-2.8261151
0.030536822
-3.0510865
0.015284185
-3.2859496
0.0040865343
-3.5333679
-0.0011917604
-3.7948512
0.069953946
-2.2506094
0.068302851
-2.4430949
0.058660667
-2.6474299
0.042250686
-2.860879
0.023591817
-3.0822941
0.0078820763
-3.3121522
-0.0015175331
-3.5549597
-0.003991563
-3.812343
0.073387073
-2.1026326
0.077693317
-2.2839498
0.072418775
-2.4789286
0.05648371
-2.6832118
0.034632956
-2.8932397
0.013822174
-3.1090743
-0.00080198138
-3.333315
-0.007431732
-3.5716386
-0.0066362063
-3.8254077
0.073437074
-1.9630527
0.08534267
-2.1329909
0.087078092
-2.319394
0.073515593
-2.5161754
0.049131034
-2.7176672
0.022653974
-2.9214579
0.001721223
-3.1307072
-0.010100983
-3.3496519
-0.013012005
-3.5838318
-0.0089066154
-3.8345484
0.069159541
-1.8314321
0.090260683
-1.9894883
0.10217947
-2.1676415
0.093539785
-2.3584034
0.067796837
-2.5536291
0.035322395
-2.7485055
0.006739378
-2.9443843
-0.011671352
-3.1471081
-0.019093088
-3.3611783
-0.017822738
-3.5919466
-0.010659668
-3.8404076
0.059714551
-1.7072949
0.091345712
-1.8528938
0.11702361
-2.0227021
0.11658513
-2.2085126
0.091356463
-2.3997202
0.052880373
-2.5883187
0.015186797
-2.773665
-0.011650209
-2.9613651
-0.024971768
-3.1581275
-0.026937597
-3.3683426
-0.021545715
-3.5966896
-0.011844091
-3.843705
0.044282489
-1.5903747
0.087301851
-1.7225335
0.13069218
-1.8838055
0.14255595
-2.0653938
0.12047056
-2.2544387
0.076543943
-2.4396243
0.02822295
-2.617048
-0.0093787946
-2.7919861
-0.030502116
-2.972069
-0.036716613
-3.1639942
-0.033030097
-3.3717726
-0.024038295
-3.5988213
-0.012466895
-3.8450816
0.022089006
-1.4803846
0.07672117
-1.5980237
0.14228588
-1.7503023
0.17111516
-1.9280291
0.15570797
-2.1165495
0.10760442
-2.3009617
0.047345884
-2.4735708
-0.003952395
-2.6375075
-0.035531374
-2.8023216
-0.047415931
-2.9763948
-0.045861341
-3.1654873
-0.037087993
-3.3724115
-0.025320511
-3.5990657
-0.012587505
-3.8451125
-0.007523244
-1.3770088
0.058255482
-1.4791361
0.15071609
-1.6216201
0.20169241
-1.795537
0.19745686
-1.9848446
0.14741356
-2.1710966
0.074235353
-2.3418623
0.005672313
-2.4972156
-0.039718515
-2.6477633
-0.05940854
-2.8046454
-0.060622358
-2.9753242
-0.051896693
-3.1637864
-0.039131359
-3.3711011
-0.025531808
-3.598068
-0.012297479
-3.8443047
-0.044920224
-1.2800966
0.030765653
-1.3657621
0.15488126
-1.4975219
0.2335744
-1.66721
0.24587881
-1.858213
0.19726195
-2.0487449
0.11093484
-2.2210706
0.021240421
-2.370568
-0.042512849
-2.5079295
-0.073041268
-2.6475931
-0.078097388
-2.8001415
-0.069229357
-2.9704882
-0.054835635
-3.1600393
-0.039400167
-3.3686333
-0.02487669
-3.5963557
-0.011698831
-3.8430556
-0.090076591
-1.1894783
-0.0066041731
-1.2580305
0.15400029
-1.3782192
0.26610092
-1.542866
0.30106368
-1.7358776
0.25843592
-1.9327833
0.15979111
-2.1101777
0.044691115
-2.256841
-0.043270515
-2.3823987
-0.088728634
-2.5048263
-0.099188718
-2.6387307
-0.090072705
-2.7911285
-0.073229806
-2.9634725
-0.055069407
-3.1552633
-0.038252137
-3.3656079
-0.023579536
-3.5943538
-0.01088909
-3.8416515
-0.14257499
-1.105
-0.054351819
-1.1561269
0.14755386
-1.2641025
0.29857156
-1.42268
0.36295571
-1.6175077
0.3323322
-1.8225415
0.2237021
-2.008602
0.078676343
-2.1557305
-0.041004741
-2.2708744
-0.10697136
-2.3759351
-0.12505044
-2.4904684
-0.11558591
-2.624385
-0.095293099
-2.7798652
-0.073252951
-2.9556756
-0.05318303
-3.1502211
-0.036075875
-3.3625169
-0.021852449
-3.5923393
-0.0099530581
-3.8402872
-0.20234641
-1.027602
-0.11272806
-1.0601423
0.13513445
-1.1554674
0.33001148
-1.3067679
0.43025813
-1.5020353
0.4191681
-1.7165082
0.30558178
-1.9156794
0.12703943
-2.0678238
-0.034090659
-2.1736769
-0.12830365
-2.2605897
-0.15713604
-2.3546535
-0.14723499
-2.4693551
-0.12214019
-2.6077696
-0.094776603
-2.7681884
-0.070236499
-2.948047
-0.04980237
-3.145477
-0.033232724
-3.3596425
-0.019877382
-3.5905237
-0.0089593116
-3.8390982
-0.26979234
-0.95725025
-0.18263357
-0.970367
0.1163322
-1.052397
0.35897857
-1.1949571
0.50026499
-1.3881644
0.51671505
-1.6111652
0.40519491
-1.8267489
0.19322311
-1.9920472
-0.020408505
-2.0918671
-0.15313637
-2.1592219
-0.19724016
-2.2306261
-0.18684513
-2.3249494
-0.15511643
-2.4460161
-0.12051421
-2.5913361
-0.090017633
-2.757378
-0.065161105
-2.9412724
-0.045496242
-3.1413364
-0.030026133
-3.3571971
-0.017799009
-3.5890041
-0.0079601384
-3.8381549
-0.34351672
-0.88813438
-0.26536349
-0.88637543
0.090578765
-0.95501912
0.38426287
-1.0875594
0.56893335
-1.274384
0.61872362
-1.5011941
0.51882042
-1.7348081
0.27668444
-1.9197456
0.0004817717
-2.0226777
-0.18189344
-2.0728795
-0.24764937
-2.1183349
-0.23670982
-2.1900517
-0.1958152
-2.293298
-0.15143301
-2.4239054
-0.11308661
-2.5768213
-0.082530669
-2.7481961
-0.058891037
-2.9356432
-0.040729301
-3.1379869
-0.026691771
-3.3552477
-0.015725517
-3.5878492
-0.0069929196
-3.8374844
-0.41901984
-0.81420089
-0.35852541
-0.80604873
0.057729139
-0.86332484
0.40526487
-0.98530906
0.63281528
-1.1615998
0.7185256
-1.384662
0.63482642
-1.6266288
0.37157997
-1.8386153
0.026732414
-1.9551565
-0.21615083
-1.9976304
-0.31128722
-2.0181845
-0.29992536
-2.0638393
-0.2461381
-2.1482304
-0.18856306
-2.2645021
-0.13996894
-2.4051743
-0.10217569
-2.5649991
-0.073600648
-2.7409321
-0.052106772
-2.9313122
-0.035850464
-3.1354589
-0.023400778
-3.3538374
-0.013732486
-3.5870505
-0.0060827209
-3.8370802
-0.490461
-0.73701249
-0.45459441
-0.72846751
0.019800486
-0.77735255
0.42222238
-0.88902798
0.6893437
-1.0514236
0.80963838
-1.2626596
0.74680194
-1.5055006
0.46569845
-1.7290623
0.05400989
-1.8745078
-0.25979113
-1.9202134
-0.39112012
-1.9261978
-0.38047105
-1.9458282
-0.3085476
-2.0094155
-0.23296781
-2.1116536
-0.17109431
-2.2411483
-0.1242403
-2.3906653
-0.089657637
-2.5560941
-0.064193682
-2.7355873
-0.045297734
-2.9282202
-0.031103352
-3.1337302
-0.020268767
-3.352924
-0.011869155
-3.5866046
-0.0052447378
-3.8369302
-0.55575429
-0.66426687
-0.54574876
-0.65549248
-0.019037068
-0.69833027
0.43617731
-0.79955097
0.73691156
-0.94563348
0.88601147
-1.1372283
0.84501208
-1.3691929
0.55412803
-1.6016793
0.081282968
-1.7644375
-0.31842496
-1.8240982
-0.49047286
-1.828747
-0.48181293
-1.8325453
-0.38616486
-1.8757165
-0.28580315
-1.9639283
-0.20672047
-2.0834502
-0.14867963
-2.2240187
-0.10693487
-2.380263
-0.07686555
-2.5498888
-0.054967376
-2.7320327
-0.03878766
-2.9262638
-0.026644322
-3.1327123
-0.017367518
-3.3524727
-0.010164176
-3.5864582
-0.0044867614
-3.8369951
-0.61408925
-0.59829267
-0.63025336
-0.58873553
-0.055875861
-0.62685308
0.44761307
-0.71754264
0.77492193
-0.84607141
0.94349621
-1.0120488
0.92157887
-1.2216081
0.61840392
-1.4406841
0.07588138
-1.603896
-0.39556174
-1.6950859
-0.614929
-1.7070407
-0.60484968
-1.7129212
-0.48112051
-1.7446553
-0.34838722
-1.8200347
-0.24686369
-1.9307747
-0.17518949
-2.0639273
-0.12509002
-2.2125019
-0.089836819
-2.3735082
-0.064644986
-2.5460793
-0.04632609
-2.729989
-0.032769786
-2.925267
-0.02256364
-3.1323128
-0.014735808
-3.3524019
-0.0086311333
-3.5865759
-0.0038110775
-3.8372393
-0.66402265
-0.53859705
-0.70761395
-0.52928544
-0.089989266
-0.56234748
0.45682396
-0.64340361
0.80369951
-0.7543229
0.98121067
-0.89222994
0.97332917
-1.0711323
0.65226882
-1.2621885
0.037877018
-1.4098413
-0.50307897
-1.5037556
-0.76938482
-1.5475657
-0.74677481
-1.571866
-0.59119325
-1.6094994
-0.42102696
-1.6784788
-0.29132652
-1.7820868
-0.20311567
-1.9094806
-0.1435199
-2.0518953
-0.10262435
-2.2056721
-0.073976768
-2.3697942
-0.053465985
-2.5442297
-0.038486339
-2.7292124
-0.027342966
-2.9250729
-0.018903687
-3.1324203
-0.012388842
-3.3526532
-0.0072727138
-3.5868945
-0.0032162582
-3.8376113
-0.70556457
-0.48598959
-0.77611254
-0.47787261
-0.12137524
-0.50517471
0.46485561
-0.57730759
0.82429854
-0.67151851
1.0010892
-0.78217351
1.0001399
-0.9259254
0.65599313
-1.0811079
-0.023657612
-1.2073818
-0.62768416
-1.2922306
-0.92745396
-1.3521844
-0.8995251
-1.4011227
-0.70846069
-1.4608556
-0.50041811
-1.5361636
-0.3392578
-1.6366218
-0.23143197
-1.7600075
-0.161308
-1.8977859
-0.1145309
-2.0456847
-0.082452172
-2.2025616
-0.059847068
-2.3684866
-0.043537841
-2.5439241
-0.031536374
-2.7294127
-0.022541548
-2.9255155
-0.015674308
-3.1329273
-0.010325549
-3.3531508
-0.0060842505
-3.5873722
-0.0026985617
-3.8380816
-0.73884211
-0.43978493
-0.83541052
-0.433926
-0.15027687
-0.4558179
0.47220323
-0.51906166
0.83804767
-0.59810814
1.0062004
-0.68414543
1.0038269
-0.79232614
0.63380431
-0.90955928
-0.10099933
-1.0100816
-0.75942909
-1.0822698
-1.080909
-1.1448577
-1.0481295
-1.2094608
-0.82257962
-1.2928872
-0.57874301
-1.3882012
-0.38769048
-1.4933845
-0.25871047
-1.615168
-0.17720016
-1.7498756
-0.12463497
-1.8931174
-0.089411103
-2.0438217
-0.065000227
-2.2022211
-0.04759446
-2.3689705
-0.034905104
-2.5447882
-0.025483052
-2.7303944
-0.018358551
-2.92644
-0.012863947
-3.1337447
-0.0085342025
-3.3538347
-0.0050563101
-3.5879501
-0.0022530938
-3.8386012
-0.76444017
-0.39931365
-0.88539569
-0.39653293
-0.17682678
-0.41381522
0.47848118
-0.46826585
0.8463778
-0.53400147
0.99994948
-0.59893333
0.98820332
-0.67459489
0.59129372
-0.7552436
-0.18729355
-0.82918688
-0.89077173
-0.88502537
-1.2251246
-0.94374307
-1.1840482
-1.0144129
-0.92691891
-1.1106493
-0.64609815
-1.2308389
-0.43046378
-1.3506921
-0.28263238
-1.4749074
-0.18965214
-1.6081536
-0.13180014
-1.7478914
-0.094059991
-1.8933381
-0.068369744
-2.0450412
-0.050261673
-2.2038878
-0.037166946
-2.3707767
-0.027516896
-2.5465265
-0.020285353
-2.7319191
-0.014761999
-2.9277256
-0.010447985
-3.134781
-0.006996627
-3.3546395
-0.0041765566
-3.5885911
-0.0018739316
-3.8391424
-0.78304862
-0.36406545
-0.92618333
-0.36479497
-0.20107491
-0.37833591
0.48329129
-0.42444549
0.85064779
-0.47872732
0.98574147
-0.52644783
0.95808831
-0.57452258
0.53400144
-0.62236896
-0.27657068
-0.67151491
-1.0142215
-0.71168932
-1.3548888
-0.76057827
-1.3031323
-0.82974566
-1.018061
-0.92846214
-0.6960595
-1.0656499
-0.4592203
-1.2069806
-0.2992264
-1.3391972
-0.19685187
-1.4728431
-0.13471637
-1.6101721
-0.095509969
-1.7511325
-0.069343148
-1.8967821
-0.051111197
-2.048318
-0.03801172
-2.2069322
-0.02841303
-2.3735185
-0.021273904
-2.5488768
-0.015876869
-2.733856
-0.011706101
-2.9292553
-0.0083945273
-3.1359697
-0.0056908745
-3.3555145
-0.0034311615
-3.5892499
-0.0015537853
-3.8396642
-0.79512513
-0.39658472
-0.958278
-0.33780765
-0.22292258
-0.34862916
0.48643625
-0.38696803
0.85187673
-0.43147113
0.96650727
-0.46574399
0.91802536
-0.49174296
0.4673358
-0.51259108
-0.36376612
-0.54036777
-1.123762
-0.56760114
-1.4667858
-0.60475906
-1.4039321
-0.66449919
-1.0941586
-0.75852093
-0.72843016
-0.90072526
-0.46690757
-1.0625158
-0.30298231
-1.2080081
-0.19651284
-1.3443923
-0.13201293
-1.4802382
-0.092828155
-1.6173447
-0.067297468
-1.7574414
-0.049715197
-1.902153
-0.037134997
-2.0529211
-0.027941149
-2.2109117
-0.021143143
-2.376886
-0.016056948
-2.5516343
-0.01217989
-2.7360389
-0.009138742
-2.9309497
-0.0066680816
-3.1372315
-0.0045933847
-3.3564165
-0.0028057455
-3.589898
-0.0012857802
-3.8401546
-0.79944398
-0.38963184
-0.98694176
-0.37427171
-0.24234359
-0.32371626
0.48762759
-0.35498994
0.85065638
-0.39117219
0.94450129
-0.4153294
0.87195233
-0.42470311
0.39647029
-0.4253052
-0.4449836
-0.43623221
-1.2155554
-0.4538814
-1.5591446
-0.47987813
-1.4881001
-0.52496652
-1.1563926
-0.60683885
-0.7454451
-0.74582956
-0.45144935
-0.92040854
-0.2882092
-1.0817816
-0.18576879
-1.2233516
-0.12236296
-1.3584959
-0.085112788
-1.4922286
-0.06165374
-1.6271071
-0.045688464
-1.7653379
-0.034269577
-1.9086
-0.025902952
-2.0583189
-0.019731276
-2.2154507
-0.015163746
-2.3806286
-0.011743672
-2.5546425
-0.0091141335
-2.7383907
-0.0070057455
-2.9327115
-0.0052322742
-3.1385303
-0.0036803308
-3.357306
-0.0022860992
-3.5905035
-0.0010635362
-3.8405861
-0.79640307
-0.38418455
-1.0060213
-0.37687336
-0.27461114
-0.34779175
0.48657602
-0.32752955
0.84734892
-0.35675671
0.92138785
-0.373554
0.82309673
-0.37119855
0.32571334
-0.35809036
-0.51771014
-0.3571202
-1.2880858
-0.36869599
-1.6324363
-0.38491425
-1.5585359
-0.4134963
-1.2089101
-0.47674103
-0.74943197
-0.60688256
-0.41513994
-0.78605294
-0.25110836
-0.96173395
-0.16159629
-1.1103152
-0.10449198
-1.2454497
-0.071611345
-1.3760648
-0.051933969
-1.5058868
-0.038733262
-1.637799
-0.029220781
-1.7738492
-0.022157386
-1.9155695
-0.016922681
-2.0641467
-0.013089728
-2.220302
-0.010293992
-2.3845846
-0.0082171708
-2.5577808
-0.0066011953
-2.7407884
-0.0052539917
-2.9344993
-0.0040514333
-3.1398098
-0.0029286989
-3.3581556
-0.001858662
-3.5910492
-0.00088103196
-3.8409526
-0.78628812
-0.38043182
-1.0156408
-0.38085616
-0.30401977
-0.3532687
0.46613
-0.33261097
0.84206234
-0.32699143
0.89841926
-0.33893158
0.77383878
-0.32873128
0.2580128
-0.30738137
-0.58040089
-0.29964369
-1.3420852
-0.30780988
-1.688881
-0.31628183
-1.6185324
-0.32867375
-1.2561815
-0.37025165
-0.7434572
-0.48647108
-0.36098803
-0.66465286
-0.19128536
-0.84985111
-0.12148743
-1.0059842
-0.077272008
-1.1415451
-0.051832372
-1.2690901
-0.037821223
-1.3939112
-0.028684275
-1.5195012
-0.021899754
-1.6484675
-0.016648702
-1.7824689
-0.012666612
-1.9227275
-0.0097782108
-2.0701534
-0.0077632683
-2.225289
-0.006372118
-2.3886221
-0.0053696797
-2.5609518
-0.0045674744
-2.7431936
-0.0038331331
-2.9362501
-0.0030917552
-3.141052
-0.002316963
-3.3589362
-0.001510765
-3.5915169
-0.00073271339
-3.8412356
-0.76938447
-0.37844571
-1.0158743
-0.3864625
-0.32974854
-0.36094356
0.44440728
-0.33686834
0.82166324
-0.31728749
0.87603582
-0.30941322
0.72587122
-0.29512713
0.19501166
-0.26937182
-0.63185001
-0.25989571
-1.3800219
-0.26609988
-1.7312274
-0.26921389
-1.6709178
-0.26737679
-1.3007644
-0.28786917
-0.73076302
-0.38644228
-0.29142482
-0.55937239
-0.11100915
-0.74867274
-0.064192733
-0.91108347
-0.03994998
-1.0471043
-0.025566505
-1.1714763
-0.019222782
-1.291232
-0.015537248
-1.4104388
-0.012350487
-1.5322621
-0.009429809
-1.6587145
-0.0069992497
-1.7909556
-0.0052370938
-1.929882
-0.0041329324
-2.0761984
-0.0035382798
-2.2302942
-0.0032559014
-2.392644
-0.0031039003
-2.5640745
-0.0029454978
-2.7455278
-0.0026969065
-2.9379449
-0.0023221266
-3.14221
-0.0018254361
-3.3596378
-0.0012308484
-3.5918982
-0.0006135384
-3.841437
-0.74681179
-0.3788113
-1.0066873
-0.39387304
-0.35080926
-0.37122733
0.42171531
-0.34362311
0.8014794
-0.3218045
0.84756587
-0.29390685
0.68043136
-0.2678775
0.1379532
-0.24148588
-0.67244717
-0.23247415
-1.4046957
-0.23932645
-1.7620084
-0.23880241
-1.7172308
-0.22612883
-1.3428457
-0.22884402
-0.71353791
-0.308349
-0.20909051
-0.47184992
-0.01322837
-0.6606814
0.009835905
-0.82645044
0.007743406
-0.96236948
0.0071257871
-1.0832723
0.0037079009
-1.197776
0.00054501262
-1.3105172
-0.00075860554
-1.4250893
-0.0006729543
-1.5439746
-5.6434497e-05
-1.6684392
0.00044519481
-1.7991872
0.00055556749
-1.9369313
0.00028054363
-2.0821685
-0.0002358374
-2.2352123
-0.00082134901
-2.3965622
-0.001332694
-2.5670986
-0.0016745684
-2.747775
-0.0018036924
-2.939532
-0.0017146684
-3.1432842
-0.0014361787
-3.3602413
-0.0010086292
-3.5921839
-0.0005190148
-3.8415463
-0.71880711
-0.38122395
-0.98901357
-0.40270494
-0.36675147
-0.38376277
0.3980581
-0.3529859
0.78090815
-0.32821352
0.82057899
-0.29995515
0.64382844
-0.26142531
0.088869554
-0.22200328
-0.70448384
-0.21290122
-1.4179632
-0.22303303
-1.7836848
-0.22088128
-1.7576212
-0.2014108
-1.3810381
-0.1912747
-0.6923746
-0.25303842
-0.11722356
-0.40303971
0.098534211
-0.58694096
0.09780819
-0.75222868
0.064986428
-0.88708511
0.045654994
-1.0041891
0.030496333
-1.1132695
0.019196858
-1.2194669
0.012545486
-1.3267184
0.0093287442
-1.4379334
0.0079209269
-1.5546985
0.0070906799
-1.67762
0.0061875353
-1.8071387
0.0050255916
-1.9438032
0.0036744179
-2.0879863
0.0022943183
-2.2399726
0.0010395352
-2.4003315
2.1549657e-05
-2.5699785
-0.00070058832
-2.7498793
-0.0011163684
-2.9410103
-0.0012446442
-3.1442489
-0.0011327303
-3.3607466
-0.00083513408
-3.5923709
-0.00044520092
-3.8415665
-0.6858087
-0.38524419
-0.96347
-0.41297017
-0.37714286
-0.39814916
0.37346411
-0.36462314
0.75900547
-0.33628106
0.7946873
-0.30749847
0.607741
-0.26805284
0.073925091
-0.24985632
-0.72755032
-0.20216001
-1.4217687
-0.21265414
-1.7976145
-0.21209741
-1.7914421
-0.18985166
-1.4150146
-0.17058059
-0.66697785
-0.2194955
-0.019679565
-0.35317149
0.21987146
-0.52751863
0.19633788
-0.6888849
0.13069346
-0.82113164
0.089313121
-0.93385133
0.060570591
-1.03732
0.039929121
-1.1368894
0.027114627
-1.2367742
0.020167236
-1.3402569
0.016592829
-1.4492979
0.014440873
-1.5645968
0.012582021
-1.6863194
0.010580827
-1.8147916
0.0084120265
-1.9504454
0.0062206826
-2.0935803
0.0041783179
-2.2445264
0.0024205994
-2.4039081
0.0010268072
-2.5726903
2.4709202e-05
-2.751843
-0.00060169567
-2.9423596
-0.00088959245
-3.1451124
-0.00090034612
-3.3611409
-0.00070263056
-3.5924562
-0.00038860112
-3.8414903
-0.64838834
-0.39072567
-0.93072293
-0.42417958
-0.38204164
-0.41390821
0.34831354
-0.37848552
0.73543111
-0.34627764
0.76965371
-0.31645631
0.57323736
-0.27723592
0.057906395
-0.2554851
-0.69911914
-0.28163475
-1.4186442
-0.20858232
-1.8033547
-0.20968598
-1.8169972
-0.18914586
-1.4462199
-0.16161825
-0.63806716
-0.20212332
0.079728146
-0.32127259
0.34553298
-0.48179878
0.30166578
-0.63611144
0.20273508
-0.76393079
0.13698565
-0.87173215
0.093207435
-0.96940053
0.062145702
-1.0622808
0.042420044
-1.1547829
0.031359181
-1.2505228
0.025544947
-1.3517988
0.022165489
-1.4595494
0.019494939
-1.5738269
0.016778943
-1.6946018
0.013870561
-1.8221408
0.010898378
-1.9568109
0.0080600851
-2.0989227
0.0055250873
-2.2488381
0.0034029622
-2.4072685
0.0017424366
-2.575206
0.00054455575
-2.7536447
-0.00022979898
-2.9435882
-0.00062879566
-3.1458528
-0.00072815921
-3.361431
-0.00060437492
-3.5924391
-0.00034610155
-3.8413254
-0.3975596
-0.60721254
-0.89163247
-0.43599315
-0.38151779
-0.43053909
0.32316934
-0.39427763
0.70996384
-0.35827286
0.74499907
-0.32685773
0.54065222
-0.28816336
0.042130684
-0.26497996
-0.67124169
-0.28676936
-1.3653266
-0.33831785
-1.8020132
-0.21248564
-1.8334801
-0.19563787
-1.4668078
-0.17137073
-0.60720876
-0.19493124
0.1790123
-0.30357253
0.46993123
-0.44846939
0.40964257
-0.59289941
0.27847171
-0.71466598
0.18736143
-0.81705785
0.12751324
-0.90881095
0.085181912
-0.99504338
0.057886238
-1.0801922
0.042367264
-1.1682046
0.034299213
-1.2617293
0.029873854
-1.3619592
0.026631953
-1.4690116
0.023410598
-1.5825531
0.019908325
-1.7025156
0.016237078
-1.8291704
0.012632382
-1.9628784
0.0093120865
-2.1039675
0.0064272551
-2.2528775
0.0040568002
-2.410383
0.002220757
-2.5775257
0.00089476368
-2.7552949
2.6606909e-05
-2.9446886
-0.00044534399
-3.1464874
-0.0006113052
-3.3616049
-0.00053395766
-3.5923211
-0.00031504263
-3.8410679
-0.44814696
-0.84721388
-0.40578967
-0.56282272
-0.37579166
-0.44755135
0.29863121
-0.41153571
0.68251971
-0.37210836
0.72009761
-0.33862602
0.50998404
-0.30052738
0.026952951
-0.27656817
-0.64406126
-0.29561923
-1.3092026
-0.34627995
-1.7645776
-0.3783491
-1.8406954
-0.20755747
-1.4775396
-0.18757184
-0.57485661
-0.20601528
0.27797874
-0.29587647
0.58930406
-0.42558492
0.51612669
-0.55794251
0.3552735
-0.67233836
0.23903894
-0.76892054
0.16259792
-0.85478147
0.10840115
-0.93450387
0.072931872
-1.0123939
0.052629799
-1.0927352
0.042342272
-1.178564
0.037137586
-1.2713278
0.033662606
-1.3712747
0.030235976
-1.4779423
0.026358321
-1.5908744
0.022124016
-1.7100805
0.017822362
-1.8358671
0.013738091
-1.9686115
0.010078779
-2.1086979
0.0069647757
-2.2566222
0.0044430303
-2.4132473
0.0025059207
-2.579642
0.0011098724
-2.7567939
0.00019181453
-2.9456786
-0.00032937677
-3.1470121
-0.00053331815
-3.3616732
-0.00048540386
-3.592103
-0.00029321972
-3.840726
-0.46448198
-0.36528302
-0.46075893
-0.79840861
-0.41466572
-0.5162387
0.27526477
-0.42973463
0.65321935
-0.38752492
0.69439037
-0.35166942
0.48107249
-0.31409177
0.013001882
-0.29021431
-0.61742866
-0.3066993
-1.2519817
-0.35623295
-1.7184253
-0.39505547
-1.8365839
-0.38481314
-1.4782991
-0.20932284
-0.54082876
-0.22374494
0.36756981
-0.29741477
0.70162899
-0.41068586
0.61745811
-0.52977412
0.4307198
-0.63585167
0.29065615
-0.72636279
0.19766789
-0.80650042
0.13123633
-0.87996062
0.08701939
-0.95075897
0.061600722
-1.0235194
0.049151274
-1.1017334
0.043509545
-1.1871361
0.040237733
-1.2800904
0.036999964
-1.3801239
0.033040467
-1.4865015
0.028434157
-1.5988445
0.023544437
-1.7172971
0.018746262
-1.8422048
0.014322642
-1.9739879
0.010448504
-2.1130827
0.0072068851
-2.2600636
0.0046132244
-2.4158577
0.0026360644
-2.5815681
0.001216196
-2.7581576
0.00027888121
-2.9465677
-0.0002619892
-3.147443
-0.0004816721
-3.361634
-0.00045340505
-3.5917932
-0.00027879133
-3.8402972
-0.44827596
0.25350112
-0.48105409
-0.35080698
-0.4727797
-0.74645753
-0.42400989
-0.46816908
0.62235946
-0.40417369
0.66745162
-0.36586181
0.45366231
-0.32866939
0.00070372559
-0.30547941
-0.59100609
-0.32016417
-1.1939012
-0.36816788
-1.6651803
-0.41212002
-1.8172945
-0.41678804
-1.5185273
-0.34717344
-0.50684039
-0.24531268
0.44708453
-0.30491478
0.80304532
-0.40116307
0.71092792
-0.50688106
0.50275675
-0.60410691
0.34100454
-0.68844309
0.23208644
-0.76316752
0.15322561
-0.83070889
0.099718782
-0.89469199
0.068781625
-0.95997371
0.054213711
-1.0306565
0.048537757
-1.1088272
0.046004448
-1.194959
0.043446445
-1.2885549
0.039775214
-1.3887323
0.035042239
-1.4947703
0.029710112
-1.6064884
0.024273608
-1.7241488
0.019115168
-1.8481562
0.014480054
-1.9789848
0.010497911
-2.1171256
0.0072129907
-2.2631991
0.0046119408
-2.4182178
0.0026433824
-2.5833082
0.0012361903
-2.7593998
0.00030734723
-2.9473659
-0.0002296917
-3.1477653
-0.00045118893
-3.3615013
-0.00043407615
-3.5913954
-0.00027018407
-3.8397903
-0.42156652
0.59034719
-0.4662249
0.23311323
-0.4967688
-0.33262861
-0.48426039
-0.69237246
-0.43349469
-0.41918234
0.63902231
-0.38102139
0.42743441
-0.3440701
-0.0097157992
-0.32197519
-0.56455412
-0.33547765
-1.1353835
-0.38205711
-1.6048853
-0.43112261
-1.7843493
-0.44760549
-1.5375243
-0.40047816
-0.56893467
-0.28708242
0.51476805
-0.31451952
0.89099937
-0.3950493
0.79510632
-0.48793306
0.56976306
-0.57602662
0.38909693
-0.65428575
0.26536149
-0.72398487
0.17405327
-0.78609443
0.11070671
-0.84359628
0.073766631
-0.90159453
0.057072356
-0.96480201
0.051789642
-1.0358489
0.050617736
-1.115357
0.049330275
-1.2027551
0.046396077
-1.2970213
0.041834763
-1.3971932
0.036238826
-1.5027638
0.030260215
-1.6137786
0.024410675
-1.7306027
0.019025806
-1.8537024
0.014293143
-1.9835989
0.010293263
-2.1208112
0.0070340314
-2.2660295
0.0044771086
-2.4203385
0.0025554292
-2.5848831
0.0011886542
-2.7605314
0.00029070639
-2.9480637
-0.000226289
-3.1479914
-0.00043928722
-3.3612741
-0.0004255356
-3.5909174
-0.00026603324
-3.839203
-0.39688813
0.60907093
-0.438418
0.55723826
-0.48410475
0.21489639
-0.5111962
-0.31149405
-0.49496971
-0.63706935
-0.44293076
-0.36983341
0.40205901
-0.36010113
-0.018216345
-0.33932627
-0.53793932
-0.35214712
-1.0767768
-0.39744086
-1.5384791
-0.45113896
-1.7375589
-0.48054877
-1.5354584
-0.45245366
-0.61951459
-0.35193472
0.48306478
-0.25688787
0.96576829
-0.39132776
0.86885552
-0.47125234
0.63053916
-0.55070305
0.43423678
-0.62310508
0.29719698
-0.68827215
0.19354222
-0.74545834
0.11976219
-0.79692043
0.076228007
-0.84786282
0.057259094
-0.90365549
0.052855617
-0.96769349
0.053756769
-1.0407667
0.054429681
-1.1222434
0.05275962
-1.2108967
0.048720212
-1.3055693
0.043068094
-1.4054883
0.036658177
-1.5104471
0.030169466
-1.6206799
0.024052381
-1.7366336
0.018566209
-1.8588314
0.013834611
-1.9878219
0.009891572
-2.1241509
0.0067132391
-2.2685642
0.0042408565
-2.42223
0.0023954619
-2.5863016
0.0010904218
-2.7615541
0.00023744935
-2.9486672
-0.00024709123
-3.1481123
-0.00044384952
-3.3609615
-0.00042642144
-3.5903584
-0.00026519792
-3.838544
-0.37657165
0.37727543
-0.41240341
0.57779038
-0.45611251
0.52394934
-0.50072217
0.1988835
-0.52402993
-0.28822458
-0.50472038
-0.5814627
-0.45216295
-0.3206991
-0.024918631
-0.35717842
-0.51121203
-0.36961396
-1.0184518
-0.41380575
-1.4669319
-0.47167838
-1.6777155
-0.51370985
-1.5118725
-0.50700671
-0.65268019
-0.42134496
0.44259168
-0.31300139
0.99366773
-0.28682606
0.93131879
-0.45609839
0.68454442
-0.52711933
0.47597222
-0.59423802
0.32744836
-0.655393
0.21170465
-0.70830845
0.12680034
-0.75414343
0.075884616
-0.79827477
0.054381412
-0.84677089
0.051316702
-0.90383634
0.05510771
-0.97069348
0.058552382
-1.046545
0.058755028
-1.1299191
0.055637065
-1.2194537
0.05016155
-1.3141448
0.043439545
-1.4135486
0.0363645
-1.5177673
0.029532779
-1.6271539
0.023291742
-1.7422215
0.017815652
-1.8635372
0.013167687
-1.9916561
0.0093414713
-2.1271413
0.0062871316
-2.270812
0.0039301263
-2.4239124
0.0021829347
-2.5875792
0.00095513838
-2.7624765
0.00015866284
-2.9491702
-0.00028674643
-3.1481416
-0.00046444107
-3.3605567
-0.00043350793
-3.58973
-0.00026675232
-3.8378107
-0.37514182
-0.030141462
-0.39301642
0.35341487
-0.42907884
0.54550051
-0.47299291
0.49093386
-0.5156441
0.1849816
-0.53506811
-0.26365584
-0.51337
-0.52645466
-0.46100298
-0.27235539
-0.48462649
-0.38732085
-0.96078086
-0.43059354
-1.3913275
-0.49211408
-1.6060677
-0.54613893
-1.4676007
-0.56093668
-0.6684008
-0.4933621
0.40065726
-0.38097734
1.0077743
-0.32922607
0.98811
-0.34591253
0.73158448
-0.50487848
0.51419276
-0.56701098
0.35614441
-0.62485781
0.22862286
-0.67407838
0.13187777
-0.71491549
0.072594431
-0.75244739
0.048130347
-0.79372727
0.046815399
-0.84389222
0.0544378
-0.90469276
0.061539458
-0.97520931
0.064307412
-1.0536701
0.062559597
-1.138422
0.057514608
-1.2282874
0.050602652
-1.3225977
0.04298748
-1.4212863
0.035451159
-1.52467
0.028449669
-1.6331716
0.022215783
-1.7473555
0.016844282
-1.8678157
0.012346737
-1.995106
0.0086841071
-2.1298025
0.0057862951
-2.2727904
0.0035673118
-2.4253949
0.0019339815
-2.5887125
0.0007945138
-2.7632954
6.2848868e-05
-2.9495852
-0.00034202826
-3.148065
-0.00049096554
-3.3600726
-0.00044496764
-3.5890326
-0.00026991922
-3.8370159
-0.40469195
-0.45862311
-0.39360176
-0.033353907
-0.40984413
0.32970578
-0.44532605
0.51259105
-0.48856994
0.45858899
-0.52855432
0.17298407
-0.54420529
-0.23858663
-0.52082026
-0.47285707
-0.46924764
-0.22542417
-0.90417625
-0.44720897
-1.3128153
-0.51182258
-1.5244035
-0.57666711
-1.40458
-0.61218768
-0.66608206
-0.56534816
0.36110492
-0.45539995
1.007308
-0.38270452
1.0351363
-0.37863173
0.79146742
-0.40751346
0.54880794
-0.54105196
0.38347829
-0.59615614
0.24458035
-0.64248104
0.13509859
-0.67872025
0.066288574
-0.710105
0.038259082
-0.74420214
0.039046021
-0.78748982
0.051512204
-0.84237819
0.063283436
-0.90784551
0.069386568
-0.98175055
0.069500819
-1.0621018
0.065157898
-1.1475105
0.05817564
-1.2371686
0.050053319
-1.3307889
0.041806963
-1.4286202
0.034028311
-1.5311096
0.027018001
-1.6387088
0.020903336
-1.7520271
0.015713012
-1.8716767
0.011417871
-1.9981865
0.0079539164
-2.1321404
0.0052361678
-2.2745117
0.0031709066
-2.4266838
0.0016618511
-2.5897116
0.0006177456
-2.7640111
-4.5849543e-05
-2.9498845
-0.00040310118
-3.1478952
-0.00052182105
-3.3595144
-0.00045888639
-3.588278
-0.00027407044
-3.836158
-0.46308372
-0.84904458
-0.42337756
-0.43237882
-0.41069906
-0.036292681
-0.42606124
0.30597329
-0.46063268
0.47942716
-0.50242292
0.42720765
-0.53925787
0.1625952
-0.55143626
-0.21372278
-0.52700077
-0.42134894
-0.47675664
-0.18056692
-1.2325563
-0.53019675
-1.4348846
-0.60429331
-1.3256487
-0.65868689
-0.6464614
-0.63391367
0.32665377
-0.53250597
0.9940364
-0.44438129
1.0679195
-0.41793722
0.84748463
-0.43643126
0.59843575
-0.45867278
0.40961112
-0.56888196
0.25985026
-0.61299532
0.13677387
-0.64547796
0.056994882
-0.67082869
0.024501916
-0.69789995
0.027721172
-0.73432493
0.046101001
-0.78338269
0.063706629
-0.84409717
0.073996759
-0.91381339
0.07651288
-0.99015872
0.073157349
-1.0714806
0.066217926
-1.1568548
0.057601802
-1.2458755
0.048617293
-1.3385942
0.040026511
-1.4354829
0.032210524
-1.5370475
0.025328848
-1.6437523
0.019423697
-1.7562442
0.014473723
-1.8751305
0.010419721
-2.0009108
0.0071794413
-2.1341782
0.0046576693
-2.2759901
0.0027560097
-2.4277891
0.0013772768
-2.590564
0.00043237514
-2.7645983
-0.00015953599
-2.9500787
-0.00046765585
-3.14763
-0.00055525346
-3.3588925
-0.00047387912
-3.5874675
-0.000278709
-3.8352472
-0.54671534
-1.1516646
-0.48137383
-0.79428982
-0.43870269
-0.40788664
-0.42651886
-0.039614608
-0.44109215
0.28197855
-0.47445484
0.44625
-0.51418813
0.39691391
-0.54766692
0.15343512
-0.55679996
-0.18966068
-0.5318249
-0.37255619
-0.48341657
-0.13849796
-1.3398866
-0.62819438
-1.234268
-0.69880835
-0.61144247
-0.6958193
0.29902176
-0.60790569
0.97015692
-0.51092591
1.0842922
-0.46326078
0.89697151
-0.46926049
0.6476718
-0.48726298