/*--------------------------------*- C++ -*----------------------------------*\
| =========                 |                                                 |
| \\      /  F ield         | OpenFOAM: The Open Source CFD Toolbox           |
|  \\    /   O peration     | Version:  v2012                                 |
|   \\  /    A nd           | Website:  www.openfoam.com                      |
|    \\/     M anipulation  |                                                 |
\*---------------------------------------------------------------------------*/
FoamFile
{
    version     2.0;
    format      ascii;
    class       volVectorField;
    location    "23.365706412101066";
    object      U;
}
// * * * * * * * * * * * * * * * * * * * * * * * * * * * * * * * * * * * * * //

dimensions      [0 1 -1 0 0 0 0];


internalField   nonuniform List<vector> 
9200
(
(2.6442603 -0.0031586868 0)
(2.6449327 -0.011779996 -1.6687335e-22)
(2.6555424 -0.0028716566 3.9479318e-22)
(2.6457445 -0.01857337 -6.3009911e-23)
(2.6569541 -0.011124672 -6.3686403e-22)
(2.6604915 -0.0025625747 -5.1324577e-22)
(2.6467829 -0.02637213 2.383553e-23)
(2.658402 -0.017814998 -4.9734327e-22)
(2.6624757 -0.010191994 3.5571589e-22)
(2.6662293 -0.0020716888 -4.7890523e-22)
(2.6476681 -0.033463758 2.470345e-22)
(2.6604558 -0.025900785 5.7360513e-22)
(2.664749 -0.016624293 -5.4138232e-22)
(2.6689368 -0.0085101154 4.1232524e-22)
(2.6701545 -0.001348507 1.2879212e-21)
(2.6483384 -0.04056933 -1.1653275e-23)
(2.6620297 -0.033844727 8.5657498e-23)
(2.6680034 -0.024775123 -5.0527575e-22)
(2.6724439 -0.014252508 -1.2394126e-22)
(2.6735809 -0.0060171076 6.9865338e-22)
(2.6724399 -0.00018383968 -1.1100862e-21)
(2.6486005 -0.046900366 -2.6644656e-22)
(2.6629595 -0.042373464 -1.0214321e-21)
(2.6709659 -0.033446724 9.2772791e-22)
(2.6775331 -0.022015696 3.8191538e-22)
(2.6785425 -0.010451474 5.5255484e-22)
(2.6766466 -0.0026995257 -2.5538142e-21)
(2.6726215 0.0010973612 4.5165863e-21)
(2.6484271 -0.052215221 -3.3213606e-22)
(2.662497 -0.050803348 1.0824415e-21)
(2.6733704 -0.043459356 1.5286104e-21)
(2.6828268 -0.031035576 -9.2748208e-22)
(2.6858503 -0.017087278 4.8377576e-23)
(2.6830242 -0.0051026064 -1.0185446e-21)
(2.6775839 0.001322682 -1.9892085e-22)
(2.6706832 0.0023791491 5.2124083e-21)
(2.647709 -0.055923299 0)
(2.6601826 -0.058862733 -1.8815743e-21)
(2.6742533 -0.054448575 -2.9701204e-21)
(2.6880562 -0.042262608 -2.5153544e-21)
(2.6941959 -0.025554636 -3.4143083e-21)
(2.6926743 -0.009690033 -2.9548393e-22)
(2.6850711 0.0015719608 -9.8321113e-22)
(2.6761015 0.0057819774 3.3073618e-21)
(2.6666708 0.003640755 -3.7296017e-21)
(2.6467987 -0.057525398 -3.6700706e-22)
(2.6554131 -0.065955951 -1.073075e-21)
(2.672905 -0.066380768 -5.9354924e-22)
(2.6921407 -0.05574022 -2.5133952e-21)
(2.7034598 -0.036938412 -3.5331653e-21)
(2.7043817 -0.016345159 3.8287264e-21)
(2.6967782 -8.1688472e-09 -4.658567e-21)
(2.6843076 0.0091071528 0)
(2.672139 0.010334771 5.394208e-22)
(2.6607903 0.00478402 -4.6796744e-21)
(2.6458576 -0.056100068 3.7105974e-22)
(2.6476905 -0.071114495 3.7661095e-22)
(2.6684164 -0.078877687 8.0070833e-22)
(2.6942568 -0.071762411 6.9093709e-21)
(2.7126454 -0.051707517 1.1609788e-20)
(2.7183633 -0.026212331 3.1833995e-22)
(2.711551 -0.0034602829 -1.0344989e-20)
(2.6973678 0.011329972 4.5366562e-21)
(2.6805592 0.016907485 3.1618849e-21)
(2.6659525 0.014618582 1.1175434e-21)
(2.6533907 0.0057373617 -6.7922915e-21)
(2.6449937 -0.050979862 -7.3679449e-22)
(2.6367749 -0.073750117 1.9711755e-21)
(2.6598723 -0.091575086 -5.1258818e-21)
(2.6932452 -0.090440185 9.5419546e-22)
(2.7210302 -0.070558542 1.0408307e-20)
(2.7339116 -0.040114135 6.7377511e-21)
(2.7300651 -0.0097927239 -4.3014419e-21)
(2.7143025 0.012243428 1.056114e-21)
(2.6939851 0.023279969 1.3126272e-21)
(2.6739894 0.024287738 -1.8864341e-22)
(2.6579395 0.018324798 0)
(2.6448903 0.006490126 3.558513e-22)
(2.6446693 -0.041580848 1.2336212e-21)
(2.6219586 -0.073008755 2.6867178e-21)
(2.6464079 -0.10359723 -5.976691e-21)
(2.6879599 -0.11169896 8.7461316e-22)
(2.7274724 -0.094145549 -5.0208294e-21)
(2.7506849 -0.05911356 6.8764507e-21)
(2.7520728 -0.01997848 1.4397678e-20)
(2.736178 0.011308586 -6.2577882e-21)
(2.7116988 0.02925887 5.0379948e-21)
(2.6867443 0.034693284 -2.9688435e-21)
(2.665071 0.030666243 -4.8098878e-21)
(2.6486112 0.021244225 2.2005903e-23)
(2.6357209 0.0070210751 4.1147831e-21)
(2.6452891 -0.027292685 -1.2209392e-20)
(2.6030004 -0.067411602 4.096895e-21)
(2.6271411 -0.11439943 -5.3679937e-21)
(2.6771308 -0.13545675 5.8118017e-22)
(2.7307595 -0.1230181 -6.6233921e-21)
(2.7678347 -0.084434757 -1.9051549e-20)
(2.7779078 -0.035275992 2.2231862e-21)
(2.7632581 0.0077113887 -9.0837666e-21)
(2.7349307 0.034908807 7.0628257e-21)
(2.7036687 0.045725723 2.294811e-21)
(2.6762604 0.044559423 -1.8067527e-21)
(2.6544596 0.035652928 -1.884144e-21)
(2.6385058 0.023283802 -7.9772181e-23)
(2.6262869 0.0073252219 -3.2208709e-21)
(2.6471379 -0.0075542582 1.7560796e-21)
(2.5797819 -0.056142573 -2.3409188e-20)
(2.6011024 -0.12304552 3.7280958e-21)
(2.6594269 -0.16125041 -1.9774707e-21)
(2.7294116 -0.1576519 1.1433801e-20)
(2.7844674 -0.11729191 -9.7800744e-21)
(2.8073715 -0.057272255 -1.3683258e-20)
(2.7965161 0.0003518741 -2.3695864e-21)
(2.764331 0.039772372 4.0534581e-21)
(2.725908 0.058094163 -1.0628867e-20)
(2.6910089 0.059969041 2.9569952e-21)
(2.6634569 0.052197265 8.8254728e-21)
(2.6428639 0.039074383 2.0720399e-21)
(2.6281174 0.024451495 0)
(2.6169324 0.0074201798 2.9257917e-22)
(2.6505453 0.018197735 1.9466409e-20)
(2.5520969 -0.037997327 2.7296252e-21)
(2.5675635 -0.12857658 1.0195915e-20)
(2.633458 -0.18854351 -1.0472671e-20)
(2.7217573 -0.19831 -5.4216066e-21)
(2.7992247 -0.15898942 7.9439666e-21)
(2.8404448 -0.087723575 -2.0500286e-20)
(2.8368367 -0.012189922 -6.6222612e-22)
(2.8012958 0.043551471 6.0265625e-21)
(2.7542012 0.071899703 7.508954e-21)
(2.710173 0.078149712 -9.6661957e-21)
(2.6750698 0.070855089 2.2759437e-21)
(2.6493553 0.057314647 -9.3669063e-23)
(2.6309406 0.040949365 3.4733669e-21)
(2.6178579 0.024827738 4.1307494e-22)
(2.6079261 0.0073366047 2.4942338e-21)
(2.6555599 0.049939407 -2.3811697e-20)
(2.5201517 -0.012272115 2.6517473e-20)
(2.5262806 -0.13019626 2.1126975e-20)
(2.5982416 -0.2166972 -7.8578499e-21)
(2.7060983 -0.24503604 -6.1459629e-21)
(2.8104045 -0.21068852 -1.0011087e-20)
(2.8765975 -0.12881303 4.6786112e-21)
(2.8852671 -0.031544339 1.2458086e-20)
(2.8475192 0.045533002 3.0429294e-21)
(2.7900181 0.087742859 -1.2656685e-20)
(2.7342577 0.099700494 4.194794e-22)
(2.6897493 0.093227934 -8.9659996e-22)
(2.6573804 0.07791421 -8.7128146e-21)
(2.6348944 0.059959874 -1.783087e-21)
(2.6192293 0.041433918 -1.7303939e-22)
(2.6080422 0.02453516 0)
(2.5994604 0.0071100509 0)
(2.6621283 0.0875601 1.1050937e-20)
(2.4844726 0.021558759 0)
(2.4776853 -0.12735016 0)
(2.5538502 -0.24512473 0)
(2.6816031 -0.29796199 6.000509e-21)
(2.8165657 -0.27369841 1.132907e-20)
(2.9153465 -0.18292885 4.152229e-20)
(2.9429328 -0.060058205 3.075363e-22)
(2.9049005 0.044925847 2.6391937e-20)
(2.8350615 0.10596848 -6.2450226e-21)
(2.7643122 0.12597884 -1.0635583e-20)
(2.7075699 0.12018269 7.5239025e-22)
(2.6669755 0.10259964 7.5427903e-21)
(2.6393322 0.081255201 -6.7268602e-21)
(2.6208257 0.060415755 3.0387244e-22)
(2.6081287 0.040760878 -4.7443965e-21)
(2.5988886 0.023712931 -4.025833e-22)
(2.5916591 0.0067761893 0)
(2.6745805 0.13061958 2.5763551e-20)
(2.4458264 0.063889952 1.7510452e-20)
(2.4224418 -0.11973088 -2.4249593e-21)
(2.5006608 -0.27329715 1.4056124e-20)
(2.6476278 -0.35671204 1.8604e-20)
(2.8164653 -0.34912482 3.9863894e-20)
(2.9565938 -0.25329615 -1.9503083e-20)
(3.012074 -0.10082451 0)
(2.9762858 0.0406287 -1.601761e-20)
(2.8914787 0.12722233 3.2296716e-20)
(2.8014746 0.15827896 -1.0354855e-20)
(2.7288914 0.15347009 5.2281628e-21)
(2.6777582 0.13223485 4.3487323e-21)
(2.643946 0.10650471 6.4451061e-21)
(2.6220015 0.081369708 -2.0658561e-21)
(2.6076792 0.059087524 -6.7689966e-22)
(2.5979006 0.039189453 3.1392924e-21)
(2.5905295 0.02249832 1.6026957e-21)
(2.5845881 0.0063678298 1.9789897e-21)
(2.696067 0.17890164 -4.8365256e-21)
(2.4065322 0.11471517 9.647392e-20)
(2.3609553 -0.10699284 -9.8068427e-23)
(2.4389707 -0.30004335 -1.537845e-20)
(2.6029026 -0.41963772 -3.0130084e-20)
(2.8056121 -0.43682997 -4.2090329e-20)
(2.9964141 -0.34212523 7.8938567e-20)
(3.0943234 -0.15862567 -5.9430881e-20)
(3.0663637 0.030680896 4.2116471e-21)
(2.9628547 0.15203039 1.6343618e-20)
(2.8472245 0.19851751 -1.1222532e-20)
(2.7539383 0.19484658 1.0772588e-20)
(2.6894015 0.16855469 2.4030773e-20)
(2.6480005 0.13636227 -2.8095856e-21)
(2.6222125 0.10579161 2.5516729e-21)
(2.6061034 0.078930734 1.1524045e-20)
(2.5957779 0.056412915 3.1483866e-21)
(2.58869 0.036970187 4.157606e-21)
(2.5830285 0.021015458 3.2694211e-22)
(2.5782685 0.0059133097 -9.5999963e-22)
(2.7075572 0.23435592 7.517355e-21)
(2.3666263 0.17502705 -5.1953645e-20)
(2.2934656 -0.088654767 4.2332591e-20)
(2.3689407 -0.32400444 5.4819884e-21)
(2.5452773 -0.48324846 1.1141801e-21)
(2.7783669 -0.53207323 -7.8700788e-20)
(3.0248609 -0.44793245 -2.3729789e-20)
(3.1807024 -0.23553014 1.6944498e-20)
(3.1761187 0.011547766 -1.6474519e-20)
(3.0545256 0.18043342 -5.8903914e-20)
(2.9043352 0.24878766 3.2244339e-20)
(2.7829436 0.24679021 -1.9316937e-20)
(2.7012486 0.21318997 -4.7082823e-22)
(2.650672 0.17225455 1.65187e-21)
(2.6205289 0.13401992 -2.8420878e-21)
(2.6027313 0.10155966 5.7158352e-21)
(2.5920299 0.074639052 2.9200399e-21)
(2.5852755 0.052803095 -4.7907172e-21)
(2.5805521 0.034324798 -4.179684e-21)
(2.5763966 0.019369914 -1.1122649e-21)
(2.5726884 0.0054359101 -8.9296732e-22)
(2.6795866 0.29425758 8.8347377e-21)
(2.3155459 0.2468762 -1.6075396e-20)
(2.2193269 -0.06418929 -4.7562634e-20)
(2.2914379 -0.3444004 1.0427002e-20)
(2.4746775 -0.54398538 -4.2563863e-21)
(2.7280049 -0.62836569 1.0746641e-19)
(3.0240031 -0.56194114 -2.1524005e-20)
(3.2567231 -0.32591893 1.0128812e-19)
(3.2915174 -0.015046922 -2.4627394e-19)
(3.1647581 0.21376265 5.7575217e-20)
(2.9768535 0.31182487 -8.4810916e-20)
(2.8167212 0.31214484 -5.4386428e-21)
(2.71233 0.26834692 -1.3838813e-21)
(2.6507232 0.21529742 -7.2139847e-21)
(2.6158787 0.16704849 -6.9476442e-21)
(2.5965899 0.12698179 -3.1205872e-21)
(2.5859529 0.094903846 -9.6577695e-21)
(2.5799235 0.06912941 -3.0398243e-21)
(2.5762017 0.048611489 -4.509388e-22)
(2.5734767 0.031437527 -7.6689621e-22)
(2.5706079 0.0176473 -1.4807806e-22)
(2.5678128 0.0049539649 2.7082783e-22)
(2.604913 0.35116084 6.5366797e-21)
(2.2426094 0.32545062 2.5743294e-20)
(2.1380411 -0.03430086 -7.7682557e-21)
(2.2079448 -0.36094099 -1.3791309e-20)
(2.3929242 -0.59908514 1.4794977e-20)
(2.654024 -0.71949188 3.4129284e-20)
(2.9851874 -0.67569273 4.4475749e-20)
(3.2807936 -0.42312351 1.0961681e-19)
(3.3809219 -0.043175409 1.6729473e-20)
(3.2750469 0.25555211 -1.2956877e-19)
(3.0611539 0.39229302 -1.0814127e-19)
(2.8567989 0.39516837 -4.5853339e-20)
(2.7215145 0.3364304 -5.0205711e-21)
(2.6464878 0.26692759 -2.0492708e-20)
(2.606806 0.20535748 -1.5905198e-20)
(2.5865758 0.15576543 -3.1572815e-21)
(2.5766443 0.1169265 -6.1835867e-21)
(2.5719619 0.086773196 -9.8477966e-22)
(2.5697557 0.062927108 2.439946e-21)
(2.5685031 0.04412302 1.4729695e-21)
(2.567411 0.028454142 1.9694944e-22)
(2.5656121 0.015914317 -2.0573705e-22)
(2.5635921 0.0044812416 4.4159827e-22)
(2.5145189 0.40401595 -2.0680049e-20)
(2.1551991 0.40150505 -1.1659007e-20)
(2.0548519 -0.0016172862 1.9759039e-20)
(2.1206647 -0.37434861 1.40124e-20)
(2.3029012 -0.64641135 7.8497573e-21)
(2.558212 -0.79955043 1.2473303e-20)
(2.9047754 -0.78010703 -4.4783693e-20)
(3.2533438 -0.51900608 -6.6871556e-20)
(3.3960452 -0.074566664 -1.8270613e-19)
(3.3594995 0.30824759 2.1014901e-20)
(3.134483 0.49244212 1.6841916e-19)
(2.8984878 0.50146702 -1.0311911e-19)
(2.7278237 0.42094385 2.5036455e-20)
(2.6357865 0.32840261 -4.0667581e-21)
(2.5914972 0.24952937 2.4955187e-22)
(2.5713021 0.18782275 1.3572763e-21)
(2.5631166 0.14093087 -9.425862e-22)
(2.5606274 0.10523523 1.5461855e-21)
(2.5606129 0.077917347 2.3231269e-21)
(2.5613942 0.056438679 1.4439712e-21)
(2.5620767 0.039555917 -1.0188915e-21)
(2.5622761 0.025485212 2.2620317e-22)
(2.5613445 0.01422101 8.5549611e-24)
(2.5599683 0.0040274569 -7.0748357e-23)
(2.4205836 0.4524598 -5.8715276e-20)
(2.0682294 0.47224842 9.2420907e-21)
(1.9737534 0.030447757 7.7898266e-21)
(2.0324056 -0.38522413 -2.9985462e-21)
(2.2078822 -0.68542776 -1.1701979e-20)
(2.4441893 -0.86385243 2.3300512e-20)
(2.7821951 -0.86644563 1.439988e-19)
(3.1554867 -0.59913596 -2.8171762e-19)
(3.3640657 -0.087866426 4.7889793e-20)
(3.3905938 0.38433672 6.0516416e-19)
(3.1580184 0.61756414 1.3479078e-19)
(2.9189004 0.63354604 -1.3749443e-20)
(2.726377 0.52621712 2.5535257e-20)
(2.6162508 0.40132962 3.1895657e-20)
(2.5676745 0.29967444 3.7152254e-20)
(2.5491764 0.22304516 1.4806685e-20)
(2.5442238 0.16641625 -6.0521379e-21)
(2.5451251 0.12450045 2.8500972e-21)
(2.548179 0.092938927 3.4715923e-21)
(2.5516373 0.068887437 3.0432534e-21)
(2.5546526 0.049961769 2.3713598e-21)
(2.5567938 0.035069954 -4.3199786e-22)
(2.5579802 0.022611273 -3.3494074e-22)
(2.5577331 0.012603422 -5.1868691e-22)
(2.5568803 0.0035989282 5.9295848e-22)
(2.320069 0.49439787 -8.1364305e-20)
(1.9878929 0.53777584 -7.1732825e-20)
(1.8922958 0.060364389 -5.5989245e-20)
(1.9456638 -0.39405163 9.5317414e-21)
(2.1113583 -0.71510838 1.1682926e-20)
(2.3188731 -0.90865737 2.0907693e-21)
(2.6236476 -0.92883906 5.2856184e-20)
(2.9857558 -0.64927279 2.0543207e-20)
(3.2040215 -0.064477972 3.2985859e-19)
(3.2262951 0.49070117 -5.2872814e-20)
(3.0844667 0.78316944 -1.7416998e-19)
(2.8784017 0.79238771 1.3522709e-19)
(2.7004339 0.65339219 3.4260118e-22)
(2.5840153 0.48751519 1.6960667e-21)
(2.5328041 0.3556753 5.3528286e-22)
(2.5183718 0.26072947 5.1487346e-21)
(2.5187698 0.19283297 -9.539113e-21)
(2.5246177 0.14382306 3.1229771e-21)
(2.531874 0.10783725 -6.0579996e-21)
(2.5388099 0.080747817 3.2686364e-22)
(2.5447184 0.060063867 -1.826345e-21)
(2.549325 0.043703307 -5.7788204e-22)
(2.552517 0.030776891 4.5717305e-22)
(2.554427 0.019888366 0)
(2.5547038 0.011086221 0)
(2.5542665 0.0031995482 0)
(2.2235013 0.52984967 1.2421593e-19)
(1.9181489 0.59674949 1.5601752e-19)
(1.8158646 0.088089552 -4.2045722e-20)
(1.8631984 -0.40122883 -1.31933e-20)
(2.0169692 -0.7371667 8.6135658e-21)
(2.190391 -0.93461319 1.0399012e-19)
(2.4424227 -0.96851716 5.313193e-21)
(2.7628177 -0.66849097 -9.2071097e-20)
(2.9585984 -0.0094698738 9.0379524e-21)
(2.9699328 0.61831791 -9.5374669e-20)
(2.8844249 0.96785944 3.9116356e-21)
(2.7455237 0.97207948 4.4086754e-20)
(2.6230837 0.79638784 4.5118936e-20)
(2.5294655 0.58606498 -2.8527118e-20)
(2.4841307 0.41713877 -9.0843665e-21)
(2.4769431 0.29974076 -2.6216622e-20)
(2.4855474 0.21904131 8.428425e-21)
(2.498341 0.16244751 -1.0143005e-20)
(2.5111653 0.12176253 -7.6697035e-21)
(2.5225335 0.091804606 2.633649e-21)
(2.5320074 0.069114354 -7.9936654e-21)
(2.5395364 0.051692804 8.2331064e-21)
(2.545207 0.03779928 -1.0269369e-21)
(2.5491102 0.026750768 -1.7723327e-21)
(2.5515212 0.01735319 0)
(2.5521837 0.009685024 0)
(2.5520678 0.0028321075 -8.3629187e-22)
(2.1314518 0.55852151 4.3946372e-20)
(1.8607809 0.64832583 -1.4047401e-19)
(1.7520784 0.11354618 1.2483869e-19)
(1.7871709 -0.40756646 -1.6841082e-19)
(1.9280055 -0.75280998 -8.1017888e-21)
(2.0654208 -0.94573568 7.3180666e-20)
(2.253757 -0.98438913 -5.261455e-20)
(2.5097178 -0.65891352 -2.1900904e-19)
(2.6620085 0.06457044 5.4791005e-21)
(2.6610447 0.76146617 1.7112151e-19)
(2.5999184 1.1466478 6.0337332e-20)
(2.5263641 1.1538132 -1.5671098e-19)
(2.4710607 0.94154177 1.4141558e-19)
(2.4361085 0.68965063 1.0285148e-20)
(2.4172011 0.48222189 1.8091562e-20)
(2.4230845 0.33840664 -3.8401722e-21)
(2.4434502 0.24353287 2.7372092e-20)
(2.4656694 0.17910042 3.3173148e-21)
(2.4856742 0.13392876 -8.1352039e-22)
(2.5025374 0.10120554 7.1200278e-22)
(2.516312 0.076892369 2.9080835e-21)
(2.5272931 0.058301148 -8.207817e-21)
(2.5357939 0.043921322 8.2324442e-21)
(2.5421072 0.032332587 -4.3284085e-22)
(2.5464451 0.023036888 0)
(2.5491729 0.015027513 0)
(2.5501036 0.0084083592 -8.8459076e-22)
(2.5502282 0.0025001778 1.1123133e-21)
(2.0461778 0.58101844 -8.3505235e-20)
(1.8163354 0.69224577 -5.393183e-20)
(1.7022615 0.13708795 -2.5744189e-19)
(1.7200594 -0.4133487 -1.6565761e-19)
(1.8470417 -0.76243243 7.5186819e-21)
(1.9488534 -0.94476535 8.1138826e-21)
(2.0708788 -0.97651231 2.4249277e-20)
(2.2476792 -0.62573706 -7.6379372e-20)
(2.3434113 0.15190443 -1.0023538e-19)
(2.3191872 0.9073692 -1.4799139e-19)
(2.2725437 1.3174444 -1.6543765e-21)
(2.2472714 1.3240176 -5.2479769e-20)
(2.2460034 1.0767375 1.037841e-19)
(2.28748 0.78526248 2.0508354e-21)
(2.3241938 0.54494385 4.7172009e-21)
(2.3551456 0.37445106 1.0639581e-20)
(2.39162 0.26425548 1.174022e-20)
(2.4262335 0.19229608 9.3909555e-21)
(2.4552394 0.14313226 5.1944601e-21)
(2.4787444 0.10824367 -6.4215967e-21)
(2.4975656 0.082606313 6.7058232e-21)
(2.5125211 0.063335053 -9.8759693e-21)
(2.5242482 0.048440048 1.2721836e-20)
(2.5332269 0.036826771 -5.2312374e-21)
(2.539853 0.027347665 7.3108422e-22)
(2.5444045 0.01965915 0)
(2.5472986 0.012921805 0)
(2.5483998 0.0072592785 1.7690147e-23)
(2.5486957 0.0022059516 9.6693821e-22)
(1.9692912 0.59815856 4.7616371e-20)
(1.7832136 0.72844918 1.2282773e-19)
(1.6659356 0.15849774 -6.3063305e-20)
(1.6647047 -0.41793128 3.5775793e-19)
(1.7756786 -0.76753917 2.3079311e-20)
(1.8445015 -0.93437635 2.7392239e-20)
(1.9033498 -0.9533015 3.3068292e-20)
(1.9948679 -0.5749328 -4.1637293e-19)
(2.0267233 0.24533432 1.7058802e-21)
(1.9752145 1.0479817 -2.1705392e-19)
(1.9302167 1.4739039 1.3045165e-20)
(1.9370312 1.4758425 2.7107939e-20)
(1.9769356 1.1972141 -1.0348173e-19)
(2.0805622 0.8605782 2.2700802e-20)
(2.1960504 0.5947978 -8.7598747e-21)
(2.2708849 0.40376113 1.1617233e-20)
(2.3297384 0.27883894 -2.4974562e-20)
(2.3800096 0.20017734 3.2699859e-21)
(2.4200113 0.1481121 1.3855979e-21)
(2.4513212 0.11189656 1.5072372e-21)
(2.4759009 0.085684021 -2.8111958e-21)
(2.4952993 0.066095798 4.208849e-22)
(2.5105935 0.051205792 -3.0879762e-21)
(2.5225202 0.039577839 1.0502647e-20)
(2.5316078 0.030439226 -8.3354382e-21)
(2.5382924 0.022861728 1.4068398e-23)
(2.5428833 0.016625732 2.951038e-21)
(2.5458229 0.011038088 -1.724973e-21)
(2.547015 0.0062367882 1.0888755e-21)
(2.5474233 0.0019458455 -2.5178437e-21)
(1.8961734 0.61077382 7.2069914e-20)
(1.760774 0.75804463 6.7676114e-20)
(1.6439342 0.17741693 1.9245034e-19)
(1.6227418 -0.42123006 6.4899966e-19)
(1.7147023 -0.76955027 -9.7886754e-22)
(1.7548411 -0.91814339 -4.9011918e-20)
(1.7568366 -0.91887907 2.3373792e-19)
(1.7653984 -0.51143641 -5.2226619e-19)
(1.7312308 0.33819713 -1.5204522e-19)
(1.6535602 1.1760555 -3.5500247e-20)
(1.6064888 1.6114719 4.17048e-22)
(1.6257828 1.6051684 -1.0090041e-19)
(1.6905564 1.3001864 4.0365378e-20)
(1.8328456 0.911896 -3.0851413e-20)
(2.0280628 0.62016824 -2.8609673e-20)
(2.1675662 0.4194847 -9.5128348e-22)
(2.2581127 0.2844651 3.3162004e-21)
(2.327446 0.2007194 2.7722907e-21)
(2.3805178 0.14742439 -5.4188972e-21)
(2.4207379 0.11121186 4.4857171e-21)
(2.4516856 0.085326613 6.2228167e-22)
(2.4758889 0.066163854 9.129372e-22)
(2.4950028 0.051623159 -3.8053993e-21)
(2.5100773 0.040483768 2.5104448e-21)
(2.521819 0.031708756 -6.4697726e-21)
(2.5307434 0.0247576 -7.0771498e-22)
(2.5372933 0.018873048 -1.0406324e-21)
(2.5417889 0.013933363 3.2633703e-21)
(2.5446789 0.0093720977 4.8240289e-23)
(2.5458977 0.0053370033 0)
(2.5463697 0.0017173608 1.0687581e-22)
(1.826859 0.6182737 -3.194371e-20)
(1.7471965 0.7832116 2.3414509e-20)
(1.6348383 0.19357568 -5.3179602e-21)
(1.5945938 -0.42263032 2.6001309e-19)
(1.664392 -0.76980618 0)
(1.6806505 -0.89871896 -6.3552823e-20)
(1.633832 -0.87635151 2.8187549e-19)
(1.5682087 -0.44084018 3.6740308e-19)
(1.4721231 0.42615241 -2.8286355e-21)
(1.372769 1.285854 -2.6338149e-19)
(1.3249537 1.7272917 -2.9891517e-20)
(1.3411813 1.7136093 1.5971063e-19)
(1.405341 1.3842225 3.3142766e-20)
(1.5690322 0.94227853 -7.745371e-20)
(1.825638 0.61427701 3.9159645e-21)
(2.0437491 0.41333287 -6.0985314e-21)
(2.1774145 0.277434 1.718177e-20)
(2.2696626 0.1918928 -3.4061245e-20)
(2.3376983 0.1396487 1.6284181e-20)
(2.3878001 0.10518564 -9.8194709e-22)
(2.4255516 0.080898836 1.7310592e-21)
(2.454756 0.062962058 4.360588e-21)
(2.4778003 0.049419233 -1.2990569e-20)
(2.4961237 0.039049744 6.3749669e-21)
(2.5106185 0.031098842 2.2413032e-21)
(2.5219083 0.024796212 -1.3654615e-20)
(2.530472 0.019760558 1.204328e-21)
(2.536743 0.015366946 5.0181366e-21)
(2.5410407 0.011570509 -7.3057811e-21)
(2.5438075 0.007915059 2.548423e-21)
(2.545002 0.0045540192 -1.3260981e-21)
(2.5454984 0.0015186803 2.3154309e-21)
(1.7663696 0.62061064 -2.0057214e-20)
(1.7423936 0.80552334 -2.0774185e-19)
(1.6380922 0.21527389 2.535393e-19)
(1.5803145 -0.42557468 -1.6356263e-19)
(1.6240583 -0.76741341 -1.383854e-20)
(1.6212167 -0.87694397 3.0536258e-20)
(1.5345114 -0.82934538 -1.3510747e-18)
(1.4072534 -0.36833645 -6.5497307e-20)
(1.2590959 0.50716252 -2.9279968e-21)
(1.1450278 1.3752834 -6.3323632e-19)
(1.0994979 1.8209448 -1.1443652e-19)
(1.1013319 1.8040171 6.0876666e-20)
(1.1393857 1.4530412 -4.4082653e-19)
(1.3048436 0.95455574 7.5712463e-20)
(1.6044258 0.57831493 -1.3316928e-19)
(1.9008672 0.37814765 7.4363652e-21)
(2.0889622 0.2533124 1.5294235e-21)
(2.2084759 0.17181297 6.5436962e-21)
(2.2929272 0.12346306 -2.1945281e-20)
(2.3536498 0.092983122 1.3159053e-20)
(2.3983968 0.071795695 -8.2809994e-21)
(2.4325777 0.056135869 1.3035484e-20)
(2.4594769 0.044210964 2.2016545e-21)
(2.4809999 0.03512963 -6.1148971e-21)
(2.4982538 0.028205732 2.6014119e-21)
(2.5119416 0.022958879 -1.5108534e-22)
(2.5225973 0.018786537 5.3080507e-21)
(2.530659 0.015413722 1.1773866e-20)
(2.5365455 0.01232006 -2.4837201e-21)
(2.5405693 0.0095199349 -3.1979966e-21)
(2.5431578 0.0066551912 -7.1401144e-23)
(2.5442882 0.0038805991 -6.2286699e-22)
(2.5447774 0.0013477983 4.2791598e-22)
(1.7150995 0.6174664 9.9504669e-22)
(1.7452831 0.81948734 1.236146e-19)
(1.6570755 0.24192728 -2.3995557e-19)
(1.5753906 -0.41744686 -5.9303196e-19)
(1.5933227 -0.76461045 -1.0639787e-20)
(1.5754997 -0.85506105 0)
(1.4573309 -0.78075828 -2.3054454e-19)
(1.281997 -0.29744666 6.3698907e-20)
(1.0952366 0.57888598 0)
(0.97437469 1.444154 1.5517842e-19)
(0.93524068 1.8938084 4.5966361e-20)
(0.91278828 1.8805673 -4.4614557e-20)
(0.90752739 1.5134353 4.8685028e-19)
(1.0515386 0.95185037 -8.955999e-19)
(1.3811516 0.51693167 0)
(1.7448539 0.31066435 -3.1225753e-21)
(1.9952357 0.20790533 -6.6535958e-21)
(2.1461248 0.13861115 2.5757237e-20)
(2.2480438 0.097882822 -1.6242442e-20)
(2.3197145 0.073943509 3.6220463e-21)
(2.3713523 0.057646257 7.8622275e-21)
(2.4102234 0.045407312 -6.7673121e-21)
(2.4406774 0.035867603 8.7534688e-21)
(2.4651743 0.02849397 -2.0623894e-20)
(2.4850522 0.022982801 1.7387887e-20)
(2.501092 0.01892017 -1.3883035e-20)
(2.5138316 0.015964927 -2.9944741e-21)
(2.5237309 0.013617447 9.3107808e-21)
(2.5311925 0.011674639 -2.7634183e-21)
(2.5366204 0.009703313 -1.0076951e-20)
(2.5403156 0.0077610684 4.905401e-21)
(2.5426858 0.0055787066 -8.1782502e-22)
(2.5437218 0.0033087165 1.2457699e-21)
(2.5441793 0.0012025734 -9.1086563e-22)
(1.6734259 0.60917202 7.9998169e-21)
(1.7568654 0.82655073 1.5429654e-21)
(1.6857396 0.26492408 3.2848283e-21)
(1.5779189 -0.40214882 -1.6407969e-19)
(1.5715202 -0.75575645 -3.233318e-21)
(1.540931 -0.8336628 3.41909e-21)
(1.4003656 -0.73341255 1.0709221e-18)
(1.1884994 -0.2305394 1.2473275e-18)
(0.97690596 0.63887962 -3.3791029e-21)
(0.86009461 1.4934142 1.6447224e-20)
(0.82826715 1.9493426 1.1852529e-19)
(0.77538622 1.9463438 1.4359131e-20)
(0.71868002 1.5702168 9.0330075e-21)
(0.82296299 0.93933043 -1.2478997e-19)
(1.1674858 0.43375187 5.0540079e-19)
(1.5864831 0.21285038 -5.31975e-20)
(1.8997207 0.13833302 3.4136528e-21)
(2.0852928 0.090824887 -8.2623421e-21)
(2.2052516 0.062380751 -6.657085e-22)
(2.2876275 0.047720627 -1.2013861e-20)
(2.3457267 0.038296458 2.1388512e-20)
(2.3887017 0.030756809 -8.1116202e-21)
(2.4221679 0.024357384 8.1484035e-21)
(2.4492142 0.019175903 3.3898446e-21)
(2.4714341 0.015311768 -5.259698e-21)
(2.4896595 0.012703253 -9.1656578e-22)
(2.5044146 0.011033921 -3.5949156e-21)
(2.5161198 0.010018713 -6.6334324e-21)
(2.5251833 0.0092232821 -5.1735578e-21)
(2.5319805 0.0084969132 -6.2899656e-21)
(2.5369003 0.0074841004 3.9621508e-21)
(2.5402296 0.0062721076 2.8498506e-21)
(2.5423539 0.0046705757 4.2274769e-21)
(2.5432736 0.0028299473 7.2078701e-22)
(2.5436804 0.0010808427 -4.108538e-22)
(1.6482021 0.59608041 1.5792178e-20)
(1.7772378 0.82626537 -8.124541e-20)
(1.7240161 0.28528129 6.0932947e-19)
(1.5939417 -0.38546994 2.9851328e-19)
(1.5603737 -0.74318386 4.058018e-21)
(1.5205209 -0.81305871 -3.3081388e-21)
(1.3573231 -0.68555199 2.7965282e-19)
(1.1225865 -0.17025036 -1.262888e-19)
(0.89658472 0.68675979 -4.0161796e-21)
(0.80068235 1.5261051 3.4340486e-19)
(0.76855572 1.9900444 -6.5298606e-20)
(0.68689803 2.0042653 -1.4840059e-19)
(0.57807389 1.6236617 1.2792348e-19)
(0.63447788 0.92130698 1.3563163e-18)
(0.97406843 0.33225843 -1.3451488e-19)
(1.4379582 0.089505822 -1.9226919e-19)
(1.8073755 0.044769143 0)
(2.0292578 0.028277416 1.7906741e-20)
(2.1669162 0.017075398 1.8303364e-20)
(2.2591963 0.014460199 -1.712717e-20)
(2.3229315 0.013925261 -4.9930297e-21)
(2.3691123 0.012386024 4.7722836e-21)
(2.4047806 0.0099112969 -2.4035671e-20)
(2.4337457 0.0073137067 1.3082316e-20)
(2.4578678 0.0053357596 -1.6269373e-20)
(2.4780056 0.0042646766 6.1369935e-21)
(2.4946149 0.0040591221 -1.036707e-20)
(2.5080537 0.0044029242 7.834795e-21)
(2.5186733 0.0050254587 -7.4103524e-21)
(2.5268522 0.0055382427 -8.5256907e-23)
(2.5329467 0.005834023 2.495057e-21)
(2.5373287 0.0056283718 5.1252292e-21)
(2.5402697 0.0050312112 -1.4548997e-21)
(2.5421301 0.0039154587 -3.1662967e-22)
(2.5429187 0.0024357337 0)
(2.5432607 0.00098046792 0)
(1.6338251 0.57811774 -2.8430706e-21)
(1.8045788 0.81755351 -2.883614e-21)
(1.7729253 0.30184211 -9.0291043e-20)
(1.6275589 -0.3678384 -1.2694562e-19)
(1.5613574 -0.72906271 9.405412e-22)
(1.5085589 -0.793188 1.0530336e-20)
(1.3377956 -0.64805096 -4.7667615e-19)
(1.0791321 -0.11158389 -2.4345789e-18)
(0.85295366 0.72758145 -1.2405997e-18)
(0.78093464 1.5472613 3.7218258e-19)
(0.74762791 2.019192 -3.374404e-19)
(0.64458663 2.0555987 4.6780965e-21)
(0.48905081 1.6724264 5.68998e-19)
(0.49946924 0.89784267 -3.9518578e-19)
(0.8134685 0.21699999 -1.3183555e-18)
(1.3085224 -0.054709279 8.6389886e-20)
(1.7239589 -0.071234031 -3.6211672e-20)
(1.9809951 -0.049385675 6.5054869e-21)
(2.1351747 -0.037794677 -4.3811598e-22)
(2.2362007 -0.025372507 4.4281802e-21)
(2.304354 -0.01504531 7.964423e-21)
(2.3525688 -0.0092382112 9.9423989e-21)
(2.3893667 -0.0070532548 -6.5966464e-22)
(2.4193998 -0.0067139633 -2.7977058e-21)
(2.4448273 -0.0067086748 -5.0752584e-21)
(2.4664928 -0.00619024 -1.1279569e-20)
(2.484731 -0.0049566757 -4.9910426e-21)
(2.4997683 -0.0031427747 1.3308513e-20)
(2.5118796 -0.001102935 2.0897164e-20)
(2.5213871 0.00089385995 7.9343971e-21)
(2.5286555 0.0024977293 1.7334677e-20)
(2.5340287 0.0036416121 -2.1494336e-21)
(2.5378586 0.0041030161 -2.5474704e-21)
(2.5404009 0.004015944 -3.0332739e-21)
(2.5419877 0.0032988515 -5.4813266e-21)
(2.5426364 0.0021177087 1.194285e-21)
(2.5429034 0.00089936173 7.4459563e-22)
(1.6291109 0.55590166 -1.8346217e-20)
(1.8410895 0.80254336 6.650436e-20)
(1.8303957 0.31424607 -3.9768896e-19)
(1.6744515 -0.34825308 5.2020662e-20)
(1.5729702 -0.71355688 -7.1953731e-21)
(1.5037181 -0.77338005 3.2668299e-19)
(1.3292631 -0.61804303 -4.8047227e-19)
(1.066132 -0.077877717 -1.9174846e-18)
(0.84726579 0.75986648 2.2653012e-18)
(0.77855914 1.5598079 -3.9929863e-19)
(0.76181501 2.0398996 -2.019138e-19)
(0.64445656 2.1002043 4.0534173e-19)
(0.45291957 1.718405 -1.548677e-18)
(0.42608531 0.8677641 5.4542632e-19)
(0.7002868 0.092771124 2.7275897e-20)
(1.2062783 -0.21539151 3.7742324e-19)
(1.6559569 -0.20571853 4.4503455e-20)
(1.9428838 -0.14136322 6.406597e-20)
(2.1118173 -0.10143158 7.8310352e-21)
(2.2200937 -0.071088304 -1.982087e-20)
(2.291217 -0.047949065 -1.2262825e-20)
(2.3400919 -0.033456823 2.5552585e-20)
(2.3767245 -0.025905528 9.4815105e-21)
(2.4067739 -0.022375759 -1.2962716e-20)
(2.4327505 -0.020376049 7.1738247e-21)
(2.4554564 -0.018380832 -2.1809345e-20)
(2.475029 -0.015779565 9.7298441e-21)
(2.4915029 -0.012586665 1.2196439e-20)
(2.5050052 -0.0090632889 2.1776667e-20)
(2.5157897 -0.0056013995 -3.5721272e-22)
(2.5241778 -0.0024639908 7.6428515e-21)
(2.5305282 3.8018879e-05 -1.4174243e-21)
(2.5351764 0.0018764541 5.8994565e-21)
(2.5384516 0.00287749 2.74178e-21)
(2.5405937 0.0032012659 1.1860098e-22)
(2.5419059 0.0028077448 1.1386057e-21)
(2.542409 0.0018681326 -2.3778927e-21)
(2.5425944 0.00083549888 1.8107179e-22)
(1.6339791 0.52964293 -5.778271e-21)
(1.8838386 0.78086225 -1.0650209e-20)
(1.894155 0.32216022 -9.4360328e-20)
(1.7330284 -0.32695272 4.708392e-20)
(1.5958769 -0.6958037 1.3206281e-20)
(1.5071225 -0.75315068 2.1189538e-19)
(1.3321927 -0.5885228 2.386949e-19)
(1.0669133 -0.07030958 -3.7884918e-19)
(0.8639619 0.7637796 1.8620357e-18)
(0.80620756 1.5606021 -4.4985179e-19)
(0.80516263 2.0528617 1.7821868e-19)
(0.67996848 2.1360219 3.5298304e-19)
(0.46856876 1.7614306 6.8462666e-19)
(0.40361947 0.83483021 1.3653155e-18)
(0.64453607 -0.036837112 4.1092478e-19)
(1.1386348 -0.38607871 -1.9011648e-20)
(1.6088433 -0.35233854 6.5210197e-20)
(1.9177727 -0.24434429 -7.6506962e-20)
(2.0988593 -0.17212525 1.4950106e-20)
(2.2122064 -0.12149302 3.5453963e-21)
(2.2846727 -0.083823765 1.2432841e-20)
(2.3325986 -0.059418438 9.5172901e-21)
(2.3675639 -0.045839641 -7.2076749e-21)
(2.3963866 -0.038955986 -3.311691e-21)
(2.4220075 -0.03509612 -2.6154249e-20)
(2.4451679 -0.031853498 1.3234615e-21)
(2.465731 -0.02812642 -3.0209898e-21)
(2.4834467 -0.023693282 -1.1085017e-20)
(2.49824 -0.018807566 -1.7868183e-21)
(2.5102346 -0.013839476 -1.5091279e-20)
(2.5197026 -0.009199168 -1.6038933e-20)
(2.5269783 -0.0051310766 9.7245837e-21)