/*--------------------------------*- C++ -*----------------------------------*\
| =========                 |                                                 |
| \\      /  F ield         | OpenFOAM: The Open Source CFD Toolbox           |
|  \\    /   O peration     | Version:  v2012                                 |
|   \\  /    A nd           | Website:  www.openfoam.com                      |
|    \\/     M anipulation  |                                                 |
\*---------------------------------------------------------------------------*/
FoamFile
{
    version     2.0;
    format      ascii;
    class       surfaceVectorField;
    location    "23.365706412101066";
    object      Uf;
}
// * * * * * * * * * * * * * * * * * * * * * * * * * * * * * * * * * * * * * //

dimensions      [0 1 -1 0 0 0 0];


internalField   nonuniform List<vector> 
18180
(
(2.6446078 -0.0076574654 -8.6232747e-23)
(2.6509679 -0.0030123527 2.0122855e-22)
(2.6453522 -0.015254213 -1.132035e-22)
(2.6520611 -0.01144634 -4.0642586e-22)
(2.6562719 -0.0071998212 -1.3831811e-22)
(2.6576208 -0.0027140502 -7.0389823e-23)
(2.6462811 -0.022644493 -1.8134439e-23)
(2.6532104 -0.018187334 -2.609222e-22)
(2.6577023 -0.014528086 -5.6476799e-22)
(2.6593043 -0.010648878 -1.1070638e-22)
(2.6615168 -0.006588708 -6.4206707e-23)
(2.6634746 -0.0023123253 -4.9573858e-22)
(2.6472403 -0.030030869 1.3916773e-22)
(2.6548078 -0.026132523 2.7794512e-22)
(2.6594633 -0.022044253 5.6052001e-23)
(2.6611581 -0.0172075 -5.1979558e-22)
(2.6636504 -0.013448797 -1.0785342e-22)
(2.6658243 -0.0093345961 3.8457615e-22)
(2.6676284 -0.0054817424 -1.8357752e-23)
(2.6681575 -0.0017029937 4.2108239e-22)
(2.6480144 -0.03717133 1.1336463e-22)
(2.6560436 -0.033658687 1.647728e-22)
(2.661269 -0.030000874 3.2146818e-22)
(2.6638088 -0.025326322 2.3552859e-23)
(2.6664307 -0.020888862 -5.2272473e-22)
(2.6687235 -0.01541518 -3.261781e-22)
(2.6707491 -0.011405533 1.3521246e-22)
(2.6712388 -0.0072391092 5.5545907e-22)
(2.6719251 -0.003826245 9.83414e-22)
(2.6713008 -0.00075477408 6.5459703e-23)
(2.6484738 -0.043863239 -1.4331095e-22)
(2.6568209 -0.041489781 -5.2640345e-22)
(2.6625101 -0.038301115 -4.8640708e-22)
(2.6660891 -0.033641173 5.1498213e-22)
(2.6695343 -0.029255566 2.3520343e-22)
(2.6729107 -0.023368383 -5.5384849e-23)
(2.6750737 -0.018299024 1.3745405e-22)
(2.675466 -0.012314594 2.1287979e-22)
(2.6761448 -0.0082385843 6.2315768e-22)
(2.6751189 -0.0043258313 -9.593966e-22)
(2.6746137 -0.0015425155 -1.8561402e-21)
(2.6725197 0.00046927638 1.7581922e-21)
(2.6485109 -0.049691361 -3.0038998e-22)
(2.6566235 -0.048890761 4.2119116e-22)
(2.6627205 -0.046777209 6.5699943e-23)
(2.6677948 -0.042926458 2.7871238e-22)
(2.6722084 -0.03867934 1.2382225e-21)
(2.6770563 -0.032217537 -1.8105969e-23)
(2.6802686 -0.026665198 -2.9469405e-22)
(2.6816659 -0.019502958 2.1187687e-22)
(2.6823187 -0.013885782 2.9202706e-22)
(2.6807817 -0.0077246263 -2.5257443e-22)
(2.6799422 -0.003862114 -1.760471e-21)
(2.6770837 -0.00064908706 -1.3568947e-21)
(2.6751858 0.0011714478 2.0798239e-21)
(2.6716305 0.0017507504 4.8712796e-21)
(2.648056 -0.054188951 -1.6051226e-22)
(2.6552078 -0.055604719 -1.1220336e-21)
(2.661301 -0.055051232 -4.4915481e-22)
(2.6680821 -0.052661316 -9.8379729e-22)
(2.6738266 -0.049204664 -7.9602502e-22)
(2.6808976 -0.042849296 -5.3312119e-22)
(2.685529 -0.036877849 -1.7479868e-21)
(2.6884896 -0.028241069 -2.1952749e-21)
(2.6901627 -0.021424716 -1.7409088e-21)
(2.6892597 -0.013316128 -1.2691681e-22)
(2.6880108 -0.0074467237 -6.4491148e-22)
(2.6840341 -0.0017000829 -9.9743251e-22)
(2.6814529 0.0014913253 -6.0419877e-22)
(2.6768306 0.0035957846 1.5883915e-21)
(2.6734831 0.0040795391 4.2279667e-21)
(2.6686507 0.00302222 6.5491622e-22)
(2.6472386 -0.056821188 -1.8964383e-22)
(2.6522036 -0.061038491 -5.5687936e-22)
(2.6577181 -0.062591359 -1.4637968e-21)
(2.6663758 -0.062695504 -1.2248525e-21)
(2.6735566 -0.060717881 -1.7420686e-21)
(2.6834118 -0.055107177 -2.7372671e-21)
(2.6901668 -0.049279081 -2.514342e-21)
(2.6957478 -0.039547917 -3.0342376e-21)
(2.6989828 -0.031437932 -3.4757255e-21)
(2.6992795 -0.020859532 2.7804317e-22)
(2.6987239 -0.013053404 1.8356312e-21)
(2.6947032 -0.0047502648 -2.5196108e-21)
(2.6911206 0.00078786091 -2.8824047e-21)
(2.6846628 0.0054130207 -4.8202616e-22)
(2.680342 0.0075937161 1.5983028e-21)
(2.6740925 0.0081026437 1.8964647e-21)
(2.6694965 0.0070516665 -1.5235671e-21)
(2.6636964 0.0042234789 -4.2138673e-21)
(2.6463124 -0.056834864 1.4376903e-23)
(2.6474243 -0.064453558 1.210612e-23)
(2.6514226 -0.068724582 -3.2397161e-22)
(2.6619159 -0.072544224 -1.2208582e-22)
(2.6705856 -0.07297755 1.2691145e-22)
(2.6838332 -0.069124607 3.231704e-21)
(2.6932342 -0.064110669 2.3556642e-21)
(2.7024073 -0.053683855 4.7092609e-21)
(2.7082063 -0.044578637 4.2916861e-21)
(2.7108932 -0.031470017 -1.5511779e-21)
(2.7116064 -0.02138441 2.0148007e-21)
(2.7079308 -0.0097766673 -3.39642e-21)
(2.7044118 -0.0016902045 -7.5969215e-21)
(2.6970394 0.0057754576 2.8602431e-23)
(2.6910563 0.010317481 2.3442545e-21)
(2.6824067 0.013083148 1.6107873e-21)
(2.6764901 0.013823168 1.8945604e-21)
(2.6690118 0.012518226 8.3636083e-22)
(2.6634579 0.0098392217 -1.6839437e-21)
(2.6570467 0.0052699174 -5.7564729e-21)
(2.6454112 -0.053502929 -2.0140966e-22)
(2.6407889 -0.065098331 1.1955258e-21)
(2.64205 -0.072656442 1.2005822e-21)
(2.6540744 -0.0815472 -2.4226124e-21)
(2.6640013 -0.085599394 -2.2617803e-21)
(2.6811351 -0.084772812 8.7896189e-22)
(2.6937341 -0.081539295 3.8321222e-21)
(2.7077052 -0.071148147 8.6931339e-21)
(2.7169781 -0.061487993 1.0988943e-20)
(2.7232503 -0.045796783 9.1261538e-21)
(2.7263976 -0.033327616 3.6354492e-21)
(2.7241556 -0.017841799 -2.0366033e-21)
(2.7211178 -0.006614858 -7.2221102e-21)
(2.7128797 0.0045447162 -4.5334508e-21)
(2.7061185 0.011916306 2.7381555e-21)
(2.6956494 0.017421107 2.8933032e-21)
(2.6874968 0.020275849 2.2063093e-21)
(2.6772414 0.020669157 1.4483792e-21)
(2.6701055 0.019683742 4.4258264e-22)
(2.6619033 0.016507547 5.4793592e-22)
(2.6557413 0.012241687 -3.2823596e-21)
(2.6490881 0.0061210108 -3.1477825e-21)
(2.644826 -0.046179465 2.8139885e-22)
(2.6321299 -0.06221035 1.0086636e-21)
(2.6291187 -0.073503592 2.3409252e-21)
(2.6422981 -0.08896961 -2.0813324e-21)
(2.6529147 -0.097998773 -5.5655284e-21)
(2.6742599 -0.10183519 -2.0665866e-21)
(2.6905141 -0.10158859 9.1307227e-22)
(2.7105021 -0.092328674 -2.0918751e-21)
(2.7243591 -0.082820572 2.4355348e-21)
(2.7358256 -0.064723211 8.5662263e-21)
(2.7425789 -0.0498715 6.8094216e-21)
(2.7428941 -0.029849048 1.0642372e-20)
(2.7414371 -0.014899059 5.3609401e-21)
(2.7330441 0.00096375698 -5.2831456e-21)
(2.7256062 0.011888919 -2.723179e-21)
(2.7129704 0.020916466 3.0857363e-21)
(2.7031382 0.026506532 3.2376294e-21)
(2.6903343 0.0290972 -8.6964719e-22)
(2.6805803 0.02973874 -1.6252644e-21)
(2.6694876 0.027538654 -2.5359427e-21)
(2.6616246 0.024736399 -2.4854599e-21)
(2.6532216 0.019812686 1.1215996e-23)
(2.6468131 0.014139167 1.8333632e-22)
(2.6402449 0.0067607114 2.2716699e-21)
(2.6449895 -0.034234242 -5.7129678e-21)
(2.6215586 -0.05474945 2.6512332e-21)
(2.6121621 -0.070227 3.4154177e-21)
(2.6257309 -0.094115038 -1.4203107e-21)
(2.6364519 -0.10940853 -5.6621514e-21)
(2.6621506 -0.11984074 -2.636329e-21)
(2.6823641 -0.12417424 7.2298454e-22)
(2.7096362 -0.11746908 -2.9372785e-21)
(2.729171 -0.10917144 -5.8489337e-21)
(2.7476477 -0.089194038 -1.2173213e-20)
(2.7595468 -0.072157333 -6.5214176e-21)
(2.7641199 -0.046960924 4.5044911e-21)
(2.7654225 -0.027675088 8.1067503e-21)
(2.7575384 -0.0058633732 2.4286849e-21)
(2.750171 0.0095661067 -7.7180475e-21)
(2.7355181 0.023337917 5.3183501e-22)
(2.7237033 0.032360208 6.0842759e-21)
(2.7076566 0.037651724 3.6505476e-21)
(2.6954896 0.0405152 -2.4897589e-22)
(2.681462 0.039721633 -2.3886579e-21)
(2.6708529 0.03790579 -3.2580755e-21)
(2.6597101 0.033207655 -3.3187084e-21)
(2.6516333 0.02868765 -9.6297365e-22)
(2.6434946 0.022283643 -2.9867108e-23)
(2.63716 0.015469684 1.9472465e-21)
(2.6309366 0.0071760638 3.7610422e-22)
(2.6462444 -0.017071852 -4.9927848e-21)
(2.6091723 -0.042000348 -1.7919741e-20)
(2.5910023 -0.06169801 -1.0116769e-20)
(2.6037977 -0.095781404 3.9088457e-21)
(2.6136857 -0.11907818 -6.6763477e-22)
(2.6437037 -0.13828637 -3.6393521e-21)
(2.6679825 -0.14900234 -7.4098489e-22)
(2.7037339 -0.14677167 6.1138259e-21)
(2.730063 -0.14105268 2.7074779e-21)
(2.7576952 -0.12009771 -8.2325493e-21)
(2.7764294 -0.10139637 -1.4260642e-20)
(2.7873409 -0.070586637 -1.6404746e-20)
(2.7931326 -0.046405674 -5.996179e-21)
(2.7870622 -0.01711454 -1.1781562e-22)
(2.7804434 0.0040293129 -5.6143626e-21)
(2.7637378 0.024053182 -2.3795998e-21)
(2.7501225 0.037675647 5.5078126e-21)
(2.730396 0.046725782 -1.9544186e-21)
(2.7151603 0.052293208 -4.3831441e-21)
(2.6973038 0.052984768 2.6137961e-21)
(2.6838813 0.052604344 6.5478813e-22)
(2.6698021 0.048451863 3.6121502e-21)
(2.6591088 0.044241817 3.6498176e-21)
(2.6485937 0.037396533 1.4031907e-22)
(2.6407578 0.031409158 1.0321458e-21)
(2.6332396 0.023878842 -4.4021221e-23)
(2.6272328 0.016234608 -1.5564896e-21)
(2.6215381 0.0073735979 -1.4302532e-21)
(2.6488986 0.0058129952 1.0907875e-20)
(2.5950199 -0.023073965 2.2524607e-21)
(2.5654757 -0.046836264 -9.9019841e-21)
(2.5760978 -0.093079811 -6.2739385e-21)
(2.5837712 -0.12609936 7.0703256e-21)
(2.6177178 -0.15643971 -3.5121263e-21)
(2.6460076 -0.17557667 -6.3673293e-21)
(2.6912934 -0.18014349 -3.7332807e-21)
(2.7254563 -0.17881298 2.7238928e-21)
(2.7646036 -0.1583325 9.686172e-21)
(2.7920931 -0.13885623 -6.2137969e-22)
(2.8120717 -0.1022166 -1.524449e-20)
(2.8244616 -0.072729897 -1.7205851e-20)
(2.8218031 -0.034290944 -6.9650592e-21)
(2.8173509 -0.0057798978 -1.4873432e-21)
(2.7987401 0.02237133 1.9098508e-21)
(2.7834316 0.04209279 5.07301e-21)
(2.7592456 0.056146582 5.7958546e-21)
(2.7405277 0.065481998 -1.2566708e-21)
(2.7180171 0.068315125 -1.0138223e-20)
(2.7009114 0.069495977 -3.5656563e-21)
(2.6829838 0.065516666 2.609891e-21)
(2.6694576 0.061873427 5.4411955e-21)
(2.6563315 0.054805036 4.2676156e-21)
(2.6462182 0.048518126 9.5296281e-22)
(2.6368235 0.040029806 2.7794967e-21)
(2.6295762 0.032918139 1.7948051e-21)
(2.6229105 0.024643178 2.1052081e-22)
(2.6174106 0.016484534 3.5484508e-22)
(2.612356 0.0073775722 1.4146204e-21)
(2.6531366 0.034700877 -2.8976188e-21)
(2.5794685 0.0026645735 2.3061579e-20)
(2.5355892 -0.024729448 1.5022027e-20)
(2.5424185 -0.085013944 1.2110505e-20)
(2.5462306 -0.12955326 1.5844542e-20)
(2.5833515 -0.17350507 9.9832472e-22)
(2.61526 -0.20327734 -9.1214668e-21)
(2.6707565 -0.21734379 -8.2790165e-21)
(2.7136656 -0.22259664 -5.7959143e-21)
(2.7667684 -0.20461948 -7.7761197e-21)
(2.8050017 -0.18574664 -1.3341528e-21)
(2.8373863 -0.14360315 6.2795332e-21)
(2.8591262 -0.10864171 -7.4894236e-21)
(2.8623271 -0.059084918 -3.7014059e-21)
(2.8618622 -0.021633362 6.1174601e-21)
(2.8419198 0.017232137 1.2262222e-21)
(2.8251806 0.045030682 4.4848408e-21)
(2.795654 0.06607386 -3.5094359e-21)
(2.7727086 0.080461999 -2.9110629e-21)
(2.7442291 0.086067476 3.8957433e-21)
(2.722618 0.089474599 -4.4547477e-21)
(2.6999118 0.08583341 -5.1967765e-21)
(2.682655 0.08248808 6.3663824e-22)
(2.6661435 0.074452184 -3.3244064e-21)
(2.653502 0.06795029 -4.547332e-21)
(2.642035 0.058662481 -9.546635e-22)
(2.6329836 0.050773112 7.5723849e-22)
(2.6249993 0.041196182 1.6200695e-21)
(2.6185665 0.033334637 1.1021133e-22)
(2.612871 0.02467858 2.0255884e-22)
(2.6079861 0.016298284 1.2053473e-21)
(2.6036207 0.0072211369 1.2223861e-21)
(2.6589541 0.069570669 -5.7963044e-21)
(2.562924 0.035471575 -1.1630544e-20)
(2.5017144 0.005307399 1.2814473e-20)
(2.5030425 -0.070956144 1.3121863e-20)
(2.5011689 -0.12878929 1.0209561e-20)
(2.5405248 -0.18879298 1.0355362e-20)
(2.5753023 -0.23153133 -3.7972998e-21)
(2.6411892 -0.25812657 -7.9292967e-22)
(2.6934404 -0.27248368 1.3070129e-22)
(2.7627177 -0.25964758 2.7619503e-21)
(2.8135882 -0.24327341 1.016314e-21)
(2.8622502 -0.19653315 1.6117176e-20)
(2.8966206 -0.15643072 2.3717203e-20)
(2.9088802 -0.093762826 2.5716918e-21)
(2.915065 -0.045498425 6.1794778e-21)
(2.8946465 0.0074334075 1.9466895e-20)
(2.8771698 0.045810499 1.5108039e-20)
(2.8412864 0.076333764 -1.6746317e-21)
(2.8132931 0.09768794 -9.3436342e-21)
(2.7772073 0.10722794 -1.1701762e-20)
(2.7497874 0.11356793 -5.2928639e-21)
(2.7208816 0.11013754 6.4363615e-22)
(2.6989575 0.10725363 -4.4543553e-23)
(2.6782739 0.098003182 3.4043877e-21)
(2.6623383 0.090684743 -3.1333616e-22)
(2.6482518 0.079616418 -7.7007146e-21)
(2.6371875 0.070921522 -4.3376033e-21)
(2.6277604 0.060191986 -7.1951557e-22)
(2.6200542 0.051230265 7.3390262e-23)
(2.6135908 0.041090826 -2.5027177e-21)
(2.6080869 0.032837327 -2.4515676e-21)
(2.6033872 0.0241161 -2.0516491e-22)
(2.5991649 0.015765615 -2.0803305e-22)
(2.5954899 0.006939904 -4.1856135e-25)
(2.668563 0.11009915 1.8653762e-20)
(2.5458965 0.075494014 1.4391606e-20)
(2.464502 0.043672045 9.0486234e-21)
(2.4585335 -0.050491964 -1.2365105e-21)
(2.449138 -0.1233755 -1.2531087e-21)
(2.4896399 -0.20176204 7.1665563e-21)
(2.5263645 -0.25973096 7.2635434e-21)
(2.6022382 -0.30201248 9.4842081e-21)
(2.6640464 -0.32842321 1.2513369e-20)
(2.7514605 -0.32404508 2.3262279e-20)
(2.8165138 -0.31274656 2.6074348e-20)
(2.8860213 -0.2632927 -4.3865485e-21)
(2.9366607 -0.21892484 9.987883e-21)
(2.9622034 -0.14107159 2.035894e-20)
(2.9786606 -0.080066049 1.4862075e-22)
(2.9588714 -0.0087368068 -8.1806922e-21)
(2.9417875 0.043391585 4.4775883e-21)
(2.8981772 0.086867325 2.9418625e-20)
(2.8642137 0.11770901 1.367047e-20)
(2.8183773 0.13262505 -8.3395344e-21)
(2.7835147 0.14309073 -1.0490525e-20)
(2.7466069 0.13998677 -2.4613736e-21)
(2.718587 0.13754129 3.0650818e-21)
(2.6925713 0.12632333 2.6321617e-21)
(2.672547 0.11792496 5.8923882e-21)
(2.655337 0.10458902 6.9833913e-21)
(2.6417162 0.0942738 7.9212198e-23)
(2.6305477 0.081313217 -4.3515363e-21)
(2.6214332 0.071180044 -9.2059063e-22)
(2.6141491 0.059738717 -1.868027e-22)
(2.6078965 0.050211537 -2.6426538e-21)
(2.6029276 0.039959997 -7.2675449e-22)
(2.598378 0.031625961 1.4275991e-21)
(2.5946341 0.023093932 6.202672e-22)
(2.5910754 0.014975358 8.2818378e-22)
(2.5880579 0.0065680844 1.0086837e-21)
(2.6856838 0.15623271 9.9507388e-21)
(2.5317273 0.12251298 6.1870619e-20)
(2.4255208 0.090564415 5.8315409e-20)
(2.4094427 -0.023251755 8.6407864e-21)
(2.3906683 -0.1129731 -1.2225236e-21)
(2.431148 -0.2116644 -9.0210983e-21)
(2.4687821 -0.28703009 -1.1543408e-21)
(2.5535038 -0.347902 -8.4896669e-21)
(2.624516 -0.38924211 -6.5794702e-21)
(2.7304434 -0.39755742 -1.2452843e-20)
(2.8108569 -0.39436683 -2.4858991e-21)
(2.9063681 -0.34555133 5.9780678e-20)
(2.9771707 -0.29896673 3.1366175e-20)
(3.0228915 -0.20502953 -3.9500282e-20)
(3.0545756 -0.12923711 -3.0710342e-20)
(3.0381627 -0.033795003 2.1464843e-21)
(3.0228322 0.036059562 -5.564452e-21)
(2.9695294 0.097402519 4.6079897e-22)
(2.9283607 0.14111095 2.4053304e-20)
(2.8695585 0.16355211 1.0118339e-20)
(2.8251146 0.17969922 -1.0803202e-20)
(2.7777821 0.17691069 4.119638e-22)
(2.7418335 0.17508562 8.0930459e-21)
(2.7090553 0.16115519 1.4810121e-20)
(2.6837744 0.15103973 1.4518622e-20)
(2.6627309 0.13433714 6.675632e-22)
(2.646041 0.12188338 1.6631518e-21)
(2.6329333 0.10614081 4.4467774e-21)
(2.6221105 0.09393468 3.2004323e-22)
(2.6139281 0.080126577 4.8475887e-21)
(2.606865 0.069268049 5.6274082e-21)
(2.6016271 0.057724439 1.2724872e-21)
(2.5968038 0.048067306 3.1439915e-21)
(2.5932124 0.038058474 3.6582293e-21)
(2.589579 0.029894793 2.9228813e-21)
(2.5867091 0.021742643 9.5256978e-22)
(2.5837822 0.014008157 1.1253053e-21)
(2.5813678 0.0061362088 4.812894e-22)
(2.7020047 0.20828124 1.5474509e-21)
(2.5220114 0.1769287 -2.8861492e-20)
(2.3859105 0.14670709 1.9772643e-20)
(2.3570119 0.011006826 6.8728761e-20)
(2.3260795 -0.0972409 2.1828319e-20)
(2.3652453 -0.21763776 2.7504174e-21)
(2.4027822 -0.31217636 -4.5986762e-21)
(2.4940239 -0.39344155 -6.996057e-21)
(2.5731245 -0.45249401 -1.3984458e-20)
(2.6960847 -0.4769595 -5.5095706e-20)
(2.7915331 -0.48603569 -6.1008845e-20)
(2.9164909 -0.44248639 -3.2777082e-20)
(3.0111139 -0.39631817 2.5884898e-20)
(3.0843644 -0.28777472 4.7341767e-20)
(3.1389592 -0.19650234 -1.9964411e-20)
(3.1339241 -0.071888351 -3.7538339e-20)
(3.1230783 0.021578735 -6.4776753e-21)
(3.0602391 0.10699908 -2.7953656e-20)
(3.0102239 0.16834318 -2.2539132e-20)
(2.9339336 0.20133355 2.4589496e-20)
(2.876735 0.22543645 1.1237843e-20)
(2.8152886 0.22311173 -1.522576e-20)
(2.7689258 0.22204552 -4.7751769e-21)
(2.7275147 0.20419107 5.0430125e-21)
(2.695523 0.19168057 1.1370563e-20)
(2.6698559 0.17043857 1.262668e-20)
(2.6493809 0.15486276 -5.0433129e-22)
(2.6340823 0.13516795 -2.8261484e-21)
(2.6213426 0.12029442 -2.3529159e-22)
(2.6123187 0.10363475 4.1641058e-21)
(2.604361 0.090558349 8.5229393e-21)
(2.5989453 0.076743604 7.1336739e-21)
(2.5938413 0.065756436 3.0303992e-21)
(2.5904312 0.054573328 -8.9734392e-22)
(2.5869257 0.045129755 -4.6608701e-22)
(2.5845445 0.0356221 -9.0482408e-23)
(2.5817489 0.027816958 -2.0017342e-21)
(2.5796486 0.020176905 -4.0641098e-22)
(2.5773012 0.012932855 -1.0386815e-21)
(2.5754236 0.0056700362 -9.2584099e-22)
(2.6931031 0.26516712 8.1981258e-21)
(2.5021237 0.24074236 -4.5126771e-21)
(2.34023 0.21313973 -3.3413186e-20)
(2.3009196 0.053039156 -4.9714597e-20)
(2.2551537 -0.075704883 -4.1216308e-21)
(2.2923858 -0.21904838 2.6065307e-20)
(2.3288905 -0.33411966 8.0373659e-21)
(2.4238748 -0.43615076 5.1743985e-22)
(2.5087944 -0.5145249 -1.6610958e-21)
(2.6435446 -0.55723145 5.5174224e-20)
(2.7523422 -0.58187605 1.7501839e-20)
(2.9040975 -0.54729846 -4.9557606e-20)
(3.0244176 -0.50733549 -2.2589949e-20)
(3.1335568 -0.3857135 3.9988003e-20)
(3.2199858 -0.28129921 6.0528751e-20)
(3.2339997 -0.12315032 -1.1720168e-19)
(3.2357499 -0.0005092159 -1.3522124e-19)
(3.1696989 0.11460277 2.1319475e-20)
(3.1114865 0.19986947 1.284869e-21)
(3.0161907 0.24738322 -7.21061e-20)
(2.9418074 0.28290551 -2.8241326e-20)
(2.8609589 0.28106524 1.2840363e-20)
(2.8003972 0.28113305 -1.214575e-20)
(2.7475909 0.25777039 -1.0365387e-20)
(2.7069745 0.24180329 -9.426138e-22)
(2.6757616 0.21426175 -3.9069852e-21)
(2.6506985 0.19444297 -2.9291592e-21)
(2.6330426 0.16960078 -2.730245e-21)
(2.6181262 0.15099796 -4.9634287e-21)
(2.6083671 0.1304331 -2.9840053e-21)
(2.5995581 0.11460078 1.1500812e-21)
(2.5941941 0.098167863 -2.1182712e-21)
(2.5888899 0.08504483 -3.5788686e-21)
(2.5858642 0.071831393 -1.1853588e-22)
(2.5825101 0.06116906 -3.8860322e-21)
(2.5806517 0.050667107 -2.5792235e-21)
(2.5783042 0.041687441 -2.2530126e-21)
(2.5769453 0.032853495 -2.4410455e-21)
(2.5748878 0.025537493 -9.338057e-22)
(2.5734449 0.018492109 -6.2093257e-22)
(2.5716133 0.011805484 -5.0805229e-22)
(2.5702016 0.0051903265 -3.0011465e-22)
(2.6409982 0.32341773 7.6471908e-21)
(2.4524284 0.31016486 1.7456553e-20)
(2.2778551 0.28794047 5.5348978e-21)
(2.2358942 0.10349085 -1.1839436e-20)
(2.1773216 -0.04824457 -2.6998452e-20)
(2.2128579 -0.21548966 -3.0332013e-20)
(2.248292 -0.3523405 -2.0880495e-21)
(2.3443915 -0.47423853 1.2612559e-20)
(2.4324308 -0.57222047 5.5885648e-21)
(2.5725787 -0.63346043 1.5310147e-20)
(2.6897749 -0.67562169 6.9569023e-20)
(2.8611321 -0.65249353 7.5480972e-20)
(3.003945 -0.62064579 1.2581554e-20)
(3.1410453 -0.49114643 4.5313822e-20)
(3.2691615 -0.37768133 1.0559196e-19)
(3.3154591 -0.18180635 5.7722213e-20)
(3.3377166 -0.028246243 -1.1036856e-19)
(3.281979 0.12285749 -1.8691109e-19)
(3.2217485 0.2374192 -3.912913e-20)
(3.1135888 0.30473069 -2.6871995e-20)
(3.0204142 0.35543372 -9.6866433e-20)
(2.9176275 0.35428208 -6.495914e-20)
(2.8374303 0.35600979 -2.6321859e-20)
(2.7691322 0.32451318 -5.3721072e-21)
(2.7170758 0.30374266 -3.2630137e-21)
(2.6791238 0.26762087 -1.1121018e-20)
(2.6485347 0.24193504 -1.4075197e-20)
(2.628462 0.21023135 -1.1675213e-20)
(2.6111909 0.18673697 -1.1576011e-20)
(2.6009819 0.1612987 -5.0071479e-21)
(2.5914157 0.14175497 -3.139547e-21)
(2.5864339 0.12185786 -4.6776917e-21)
(2.5811432 0.10619138 -7.8626851e-21)
(2.5788229 0.090760701 -5.2382576e-21)
(2.5758098 0.078186979 -1.9779987e-21)
(2.5747394 0.06596889 -2.4746375e-22)
(2.5728711 0.055945779 1.0427689e-21)
(2.5722756 0.046324293 5.294414e-22)
(2.5709068 0.037975705 3.9045368e-22)
(2.5703827 0.029917284 -2.7462863e-22)
(2.568956 0.023172171 3.0204237e-23)
(2.5680593 0.016764233 -1.774595e-22)
(2.5666756 0.010669834 2.4567482e-23)
(2.5656592 0.0047130857 3.5761308e-22)
(2.5582007 0.37852669 -7.5278948e-21)
(2.3729551 0.37683296 -2.7415348e-21)
(2.197439 0.36506669 6.4151852e-21)
(2.158852 0.15866402 2.2691805e-20)
(2.0950521 -0.016545945 6.4568082e-21)
(2.1272204 -0.20767494 3.3367896e-21)
(2.1628418 -0.36704717 5.7656819e-22)
(2.2576851 -0.50647332 -2.7588737e-21)
(2.346404 -0.62326354 1.1205967e-20)
(2.4850547 -0.70128374 1.3878306e-20)
(2.6045124 -0.76118392 2.2938391e-20)
(2.7849518 -0.75039469 -6.0924081e-21)
(2.9436341 -0.7299891 -1.6494975e-21)
(3.1056859 -0.59578756 -1.1315957e-20)
(3.2666089 -0.4732394 1.8416202e-20)
(3.3340079 -0.24547047 -3.9052227e-20)
(3.3887368 -0.057052252 -8.6328189e-20)
(3.368879 0.135914 1.9029944e-20)
(3.318687 0.2852525 -5.1756023e-20)
(3.2054189 0.37625568 2.2279497e-20)
(3.0990456 0.44639471 3.4767013e-20)
(2.9813012 0.44790531 -1.0503233e-19)
(2.8783407 0.45138029 -7.5444108e-20)
(2.7924347 0.40829271 -9.9608197e-21)
(2.7247746 0.38052094 1.0510462e-20)
(2.6782715 0.33233633 -4.534558e-21)
(2.6409583 0.29869179 -1.2005253e-20)
(2.6185915 0.25806127 -9.9602599e-21)
(2.598896 0.22807534 -7.5580053e-21)
(2.5887371 0.19642244 -7.1090979e-21)
(2.5786839 0.17221325 -8.2463192e-22)
(2.5746171 0.14820647 -2.0300441e-21)
(2.5696547 0.12923763 -3.4756106e-21)
(2.5684735 0.11096921 -2.244817e-21)
(2.5661055 0.096231799 3.2293975e-22)
(2.5661707 0.082260662 7.0451383e-22)
(2.5650317 0.070622694 2.379587e-21)
(2.5654885 0.05962088 1.9324298e-21)
(2.56483 0.05043261 1.4579863e-21)
(2.5652234 0.041795809 2.031939e-22)
(2.5646547 0.034177134 -4.3127865e-22)
(2.5647904 0.0269413 2.118562e-22)
(2.5638883 0.020809683 1.7454029e-23)
(2.563434 0.015051484 -9.5944542e-23)
(2.5624307 0.0095588054 2.1782759e-22)
(2.5617424 0.004250018 1.8078454e-22)
(2.4659766 0.42888634 -4.0335247e-20)
(2.2859695 0.43880919 -5.4222392e-21)
(2.1102563 0.43823917 -8.5808215e-22)
(2.0750749 0.2122872 -1.8102781e-21)
(2.0129432 0.015906834 1.3573793e-20)
(2.0398738 -0.19719909 8.1193058e-21)
(2.0750557 -0.37914624 5.2217854e-21)
(2.1666077 -0.53293605 9.0343041e-22)
(2.2537991 -0.66620489 -2.2538192e-21)
(2.3842029 -0.75726391 1.555741e-20)
(2.4992897 -0.83288233 1.8068362e-20)
(2.6753558 -0.83365311 7.961202e-20)
(2.8414312 -0.82585953 5.2770927e-20)
(3.0143085 -0.6878235 -1.6553861e-19)
(3.2027758 -0.56299079 -1.7789402e-19)
(3.2996466 -0.29925536 -8.3871697e-21)
(3.3795198 -0.085840115 -6.3545862e-20)
(3.3912822 0.15929408 2.1878463e-19)
(3.3755673 0.34952222 3.2287045e-19)
(3.2585743 0.46585721 7.9172176e-20)
(3.1466446 0.55956896 1.5104211e-19)
(3.0292637 0.56431466 7.6043397e-20)
(2.9090356 0.57133526 -5.6939058e-20)
(2.8127625 0.51406472 -3.7564582e-20)
(2.7270762 0.47596914 2.5294197e-20)
(2.6715077 0.41094556 2.8531448e-20)
(2.6256921 0.36618336 1.4515532e-20)
(2.6011881 0.31376375 1.6969468e-20)
(2.5791879 0.27534931 1.9317365e-20)
(2.5699227 0.23603483 7.6700485e-21)
(2.5598698 0.20590847 8.3065469e-21)
(2.5574748 0.1769156 -2.4181158e-21)
(2.5533549 0.15399648 -3.582642e-21)
(2.5539241 0.13255913 9.8995266e-22)
(2.5526176 0.1151139 2.2198983e-21)
(2.5542669 0.098969845 2.5357223e-21)
(2.5541885 0.08561222 2.91652e-21)
(2.5560276 0.073316238 2.6847521e-21)
(2.556353 0.062831004 2.2702949e-21)
(2.5579508 0.053138393 1.9199683e-21)
(2.5582407 0.044887666 7.3281448e-22)
(2.5593789 0.037270101 -7.1983342e-22)
(2.5594434 0.030427352 -1.1388946e-22)
(2.5600826 0.024020802 -5.9733283e-23)
(2.5596061 0.018515353 -1.6893477e-22)
(2.5595006 0.013396779 -2.6010374e-22)
(2.5588133 0.0084960301 -3.022157e-22)
(2.5583916 0.0038091069 2.6718033e-22)
(2.3686413 0.47387324 -7.0419468e-20)
(2.2005885 0.49596404 -6.5351163e-20)
(2.0267144 0.50606712 -3.2602857e-20)
(1.9906617 0.26221231 -2.4092725e-20)
(1.931659 0.046685355 -2.51689e-20)
(1.9543901 -0.18598243 8.6779568e-21)
(1.9875807 -0.38905836 3.4766438e-21)
(2.0743346 -0.55339825 4.4859381e-21)
(2.1580023 -0.70050786 3.8245449e-22)
(2.2746511 -0.79923069 -4.868789e-21)
(2.3794308 -0.88682447 1.2340155e-20)
(2.5372863 -0.8969789 3.830582e-20)
(2.7002644 -0.90056948 9.6900094e-20)
(2.866578 -0.75571331 8.1079265e-20)
(3.0677773 -0.62818794 -1.2552265e-19)
(3.1653571 -0.32662118 2.9007359e-20)
(3.2813626 -0.080118039 1.9359761e-19)
(3.2896612 0.2069777 -3.7057324e-21)
(3.305693 0.43406997 2.6512567e-19)
(3.2357682 0.58756097 2.0804571e-19)
(3.1200112 0.70131158 -2.4861947e-20)
(3.0224187 0.70660577 1.3572526e-19)
(2.8979733 0.71692099 6.3231864e-20)
(2.8103511 0.64364018 -7.1047877e-21)
(2.7129715 0.59269359 1.2517538e-20)
(2.6544492 0.50649311 1.3278523e-20)
(2.5995942 0.4460871 1.6290973e-20)
(2.573779 0.37806758 1.5909282e-20)
(2.5496567 0.32857629 1.8231926e-20)
(2.5424783 0.27983193 2.0821912e-20)
(2.5332597 0.24241663 9.8164238e-21)
(2.5336096 0.20765209 2.4019027e-21)
(2.5310719 0.17997287 -7.8538301e-21)
(2.5341827 0.15490494 -1.3913433e-21)
(2.5345292 0.13440473 2.9910903e-21)
(2.5383409 0.11601035 -1.6888926e-21)
(2.5397545 0.10057976 -1.4521668e-21)
(2.543385 0.086727288 1.8692214e-21)
(2.5450097 0.074962993 1.6397521e-21)
(2.548099 0.064391556 5.561369e-22)
(2.5495198 0.05515102 2.0248861e-22)
(2.5519292 0.046772854 8.6856774e-22)
(2.5529348 0.039494406 -5.073742e-22)
(2.5546084 0.032882469 2.1082336e-23)
(2.5551574 0.026822845 7.4342956e-23)
(2.556165 0.021223849 -1.6427129e-22)
(2.5560248 0.016335249 -2.5067372e-22)
(2.5561858 0.011830357 -2.5310159e-22)
(2.5557556 0.0074975392 2.8655399e-22)
(2.5555453 0.0033954344 2.9082293e-22)
(2.2701663 0.51237536 2.4872224e-20)
(2.1172399 0.54658885 3.9682564e-20)
(1.9518517 0.56815564 4.5960525e-20)
(1.9114895 0.30846387 -5.6523015e-20)
(1.8527989 0.075183749 -4.8783724e-20)
(1.8711476 -0.17497768 -3.4169368e-20)
(1.9030487 -0.39703944 -2.211741e-21)
(1.9840165 -0.5689708 9.0636639e-21)
(2.0625815 -0.72646814 1.0096794e-20)
(2.1617322 -0.82701088 5.8734462e-20)
(2.2524785 -0.92218811 5.4748443e-20)
(2.3819309 -0.93916745 3.7315431e-21)
(2.5299979 -0.95102931 2.8287877e-20)
(2.6755163 -0.79610766 -2.169623e-20)
(2.8705509 -0.662491 -3.7651062e-20)
(2.9521814 -0.32316772 1.4680059e-20)
(3.0771982 -0.039984088 1.6407331e-19)
(3.078608 0.28348017 1.1317005e-19)
(3.0938201 0.55191687 -7.4835618e-20)
(3.0571507 0.73381695 -2.3638617e-20)
(2.9810962 0.87719028 -8.2147319e-20)
(2.9220631 0.87937132 -6.2961281e-20)
(2.8097386 0.88479695 8.8131417e-20)
(2.7522677 0.7944014 8.9315475e-20)
(2.6604647 0.72794224 2.347991e-20)
(2.6139832 0.6190837 -1.4366744e-20)
(2.5558282 0.53878488 -1.3920935e-20)
(2.5330317 0.45165899 -3.7799021e-21)
(2.5076539 0.38748886 -4.435321e-21)
(2.5041515 0.32717825 -1.3094909e-20)
(2.4969655 0.28083257 -1.1057868e-20)
(2.5015018 0.23949052 6.8659252e-21)
(2.5016039 0.20630065 -2.5538541e-22)
(2.5082688 0.17735221 -9.8194887e-21)
(2.5110409 0.15338316 -3.7313826e-21)
(2.5177086 0.13258345 -2.3761106e-21)
(2.5211742 0.11497646 -6.8907352e-21)
(2.5270824 0.099668595 -1.6126414e-21)
(2.5304002 0.086420883 1.5187245e-21)
(2.5353241 0.074820414 -3.9127358e-21)
(2.538151 0.064700201 -5.0128424e-21)
(2.5420654 0.055798623 3.3050688e-21)
(2.5442675 0.04780932 3.9745501e-21)
(2.5472182 0.040695038 -8.1032317e-22)
(2.5487401 0.03437676 -3.0964194e-22)
(2.5507749 0.028725461 -6.788619e-22)
(2.5516798 0.023428893 -9.1575767e-22)
(2.5529418 0.018596623 0)
(2.5530593 0.014300061 0)
(2.5534161 0.010372278 0)
(2.5531903 0.0065734675 0)
(2.5531432 0.0030123322 -4.2611557e-22)
(2.1759334 0.54440184 8.2735465e-20)
(2.0418242 0.59026306 -1.0756932e-20)
(1.8885031 0.62312689 2.8009362e-21)
(1.8434982 0.35034685 1.4011866e-19)
(1.7829021 0.10140132 4.4194333e-20)
(1.7938973 -0.16461921 -1.0647402e-19)
(1.8239101 -0.40399822 -9.3404235e-20)
(1.8987577 -0.58046418 -1.0597696e-20)
(1.9709959 -0.74504012 -2.4325205e-23)
(2.0508285 -0.84349221 4.152512e-20)
(2.1258111 -0.94079569 8.8068948e-20)
(2.2220319 -0.95998226 2.4170592e-20)
(2.3449276 -0.9771278 -2.4621608e-20)
(2.4585451 -0.81068894 -1.0830829e-19)
(2.6320261 -0.66618889 -1.5766741e-19)
(2.6865506 -0.29485498 -4.23594e-20)
(2.8053339 0.024969473 7.1988953e-21)
(2.8006449 0.38339659 9.2059435e-20)
(2.8103144 0.6884678 4.2337692e-20)
(2.7900514 0.88749185 -1.6032061e-20)
(2.737407 1.0571153 3.3069451e-20)
(2.7137926 1.0625495 -7.7929266e-20)
(2.6322748 1.0654073 -5.9673749e-20)
(2.6109683 0.95648956 9.3091055e-20)
(2.5445281 0.87195614 9.4878735e-20)
(2.5284118 0.7420016 2.7310029e-20)
(2.4812254 0.64004214 -8.4717774e-21)
(2.4719288 0.53316076 -4.7754092e-21)
(2.449547 0.45095468 4.957927e-21)
(2.4526434 0.37702919 -6.412512e-21)
(2.4491139 0.3197425 -1.4654521e-20)
(2.4596221 0.27110591 1.0864069e-21)
(2.4637958 0.23166799 1.8216588e-20)
(2.4752669 0.19869325 5.8243256e-21)
(2.48146 0.17101217 -3.1882042e-21)
(2.4918002 0.14791816 -5.3638279e-21)
(2.4979945 0.12801364 -4.127239e-21)
(2.5067199 0.11128916 -3.3991279e-21)
(2.512202 0.096626352 1.6407822e-21)
(2.5193346 0.084206911 2.7734789e-21)
(2.523898 0.073107467 -2.3610456e-21)
(2.5295875 0.06360496 -8.1027818e-21)
(2.5332106 0.05507791 -2.6143038e-22)
(2.5376178 0.047733115 8.2274683e-21)
(2.5403435 0.040947428 3.7571378e-21)
(2.5436195 0.03501389 -7.2079027e-22)
(2.5454919 0.029613221 -1.0802428e-21)
(2.5477464 0.024858468 -8.7157617e-22)
(2.5488984 0.020286648 0)
(2.5503203 0.016168213 -1.6129938e-24)
(2.550628 0.012428474 0)
(2.5511204 0.009034546 -4.5072441e-22)
(2.5510528 0.0057297082 -8.6124973e-22)
(2.5511276 0.0026629883 1.5656273e-22)
(2.0873852 0.57005186 -2.1916183e-20)
(1.9748144 0.62671058 -5.9647826e-21)
(1.837813 0.67071018 -9.5751988e-20)
(1.7884098 0.38762811 -2.0011899e-19)
(1.7263347 0.12554187 -7.2710862e-20)
(1.7276982 -0.15508969 -2.3327711e-20)
(1.75249 -0.41036479 -1.6698806e-19)