# Force         
# CofR          : (0.00000000e+00 0.00000000e+00 0.00000000e+00)
#
# Time          	(total_x total_y total_z)	(pressure_x pressure_y pressure_z)	(viscous_x viscous_y viscous_z)
0.0221698       	(3.56422440e+02 -7.00643454e-02 1.06289187e-18)	(3.50736060e+02 -6.96883641e-02 7.59271363e-19)	(5.68638041e+00 -3.75981319e-04 3.03620508e-19)
0.0425841       	(1.59141135e+01 -6.32378030e-02 -1.41704344e-18)	(1.09255493e+01 -6.26549724e-02 -1.49318350e-18)	(4.98856424e+00 -5.82830530e-04 7.61400542e-20)
0.0628021       	(1.04079721e+01 -6.06995001e-02 1.69385758e-19)	(5.88208531e+00 -5.99215444e-02 1.72321385e-19)	(4.52588679e+00 -7.77955703e-04 -2.93562715e-21)
0.0826865       	(8.06201589e+00 -6.04062471e-02 1.94265454e-18)	(3.86149364e+00 -5.94401961e-02 1.71781710e-18)	(4.20052225e+00 -9.66050936e-04 2.24837436e-19)
0.102227        	(7.27413786e+00 -6.07631975e-02 -1.75606350e-18)	(3.31403510e+00 -5.96012920e-02 -1.90923169e-18)	(3.96010276e+00 -1.16190544e-03 1.53168184e-19)
0.121396        	(6.81293712e+00 -5.84406881e-02 -1.95967993e-18)	(3.03750835e+00 -5.70757401e-02 -1.62292118e-18)	(3.77542877e+00 -1.36494796e-03 -3.36758748e-19)
0.140241        	(6.46467033e+00 -6.79459231e-02 -2.83344167e-18)	(2.83593790e+00 -6.63418449e-02 -2.68068830e-18)	(3.62873243e+00 -1.60407817e-03 -1.52753361e-19)
0.158773        	(6.20501661e+00 -5.42746492e-02 -3.14456289e-19)	(2.69896319e+00 -5.24792948e-02 -4.29044812e-19)	(3.50605342e+00 -1.79535441e-03 1.14588523e-19)
0.17707         	(5.98963009e+00 -5.67013690e-02 2.22246728e-19)	(2.58998179e+00 -5.46965581e-02 -3.53724209e-20)	(3.39964830e+00 -2.00481092e-03 2.57619149e-19)
0.195136        	(5.80600113e+00 -5.78020666e-02 -2.43266982e-20)	(2.50296325e+00 -5.55675256e-02 -1.56978663e-19)	(3.30303788e+00 -2.23454096e-03 1.32651964e-19)
0.213064        	(5.63945785e+00 -5.63496890e-02 -2.08444610e-18)	(2.42441742e+00 -5.39240680e-02 -1.95071757e-18)	(3.21504043e+00 -2.42562100e-03 -1.33728534e-19)
0.230847        	(5.47428446e+00 -5.63100230e-02 -1.35413273e-18)	(2.34021151e+00 -5.36978177e-02 -1.29910160e-18)	(3.13407295e+00 -2.61220537e-03 -5.50311288e-20)
0.248567        	(5.30909571e+00 -5.68977312e-02 -7.05512374e-19)	(2.25196974e+00 -5.40984140e-02 -5.64540555e-19)	(3.05712597e+00 -2.79931719e-03 -1.40971819e-19)
0.266281        	(5.14671969e+00 -5.61234709e-02 -1.24868229e-18)	(2.16355394e+00 -5.30950570e-02 -1.28667048e-18)	(2.98316575e+00 -3.02841388e-03 3.79881907e-20)
0.283976        	(4.98409841e+00 -5.63854006e-02 -1.47650973e-18)	(2.06974992e+00 -5.31048638e-02 -1.39185791e-18)	(2.91434849e+00 -3.28053680e-03 -8.46518250e-20)
0.301703        	(4.82504912e+00 -5.60121747e-02 -2.68985800e-18)	(1.97483815e+00 -5.24309369e-02 -2.79858056e-18)	(2.85021096e+00 -3.58123780e-03 1.08722561e-19)
0.319494        	(4.66969508e+00 -5.62041286e-02 -1.00955881e-18)	(1.87928111e+00 -5.22875488e-02 -1.34982660e-18)	(2.79041397e+00 -3.91657975e-03 3.40267790e-19)
0.337348        	(4.51909032e+00 -5.54198701e-02 -1.09719901e-18)	(1.78511820e+00 -5.11419775e-02 -9.25485554e-19)	(2.73397212e+00 -4.27789258e-03 -1.71713459e-19)
0.355276        	(4.37168654e+00 -5.46006619e-02 -1.46457000e-18)	(1.69087891e+00 -4.98548385e-02 -1.31601643e-18)	(2.68080763e+00 -4.74582345e-03 -1.48553577e-19)
0.373298        	(4.22936670e+00 -5.27907611e-02 -2.36461312e-18)	(1.59867633e+00 -4.75244495e-02 -2.37320245e-18)	(2.63069037e+00 -5.26631156e-03 8.58933529e-21)
0.391426        	(4.09086436e+00 -5.16565341e-02 -9.31787867e-19)	(1.50712185e+00 -4.58047826e-02 -9.65869974e-19)	(2.58374251e+00 -5.85175150e-03 3.40821068e-20)
0.409657        	(3.95858734e+00 -5.11101744e-02 -1.02896945e-18)	(1.41876542e+00 -4.46158535e-02 -9.67761563e-19)	(2.53982192e+00 -6.49432093e-03 -6.12078916e-20)
0.427998        	(3.83264686e+00 -4.94572122e-02 -1.41633644e-18)	(1.33387152e+00 -4.22193206e-02 -1.29041113e-18)	(2.49877534e+00 -7.23789167e-03 -1.25925307e-19)
0.44646         	(3.71541035e+00 -4.87421638e-02 -2.39508259e-18)	(1.25510698e+00 -4.06820071e-02 -2.37432565e-18)	(2.46030338e+00 -8.06015679e-03 -2.07569400e-20)
0.465048        	(3.60412288e+00 -4.47716327e-02 2.60159344e-19)	(1.17980042e+00 -3.59125976e-02 -6.13146601e-20)	(2.42432245e+00 -8.85903518e-03 3.21474004e-19)
0.483765        	(3.50205641e+00 -4.24545595e-02 -5.47963795e-19)	(1.11164786e+00 -3.27824143e-02 -7.23091663e-19)	(2.39040855e+00 -9.67214512e-03 1.75127869e-19)
0.502612        	(3.40479623e+00 -3.76836556e-02 -1.99904965e-18)	(1.04628159e+00 -2.71492760e-02 -1.86366877e-18)	(2.35851464e+00 -1.05343795e-02 -1.35380881e-19)
0.52159         	(3.31270161e+00 -4.62084391e-02 -1.29795896e-18)	(9.84326470e-01 -3.47531857e-02 -1.33349074e-18)	(2.32837514e+00 -1.14552534e-02 3.55317778e-20)
0.540696        	(3.22726454e+00 -3.97630011e-02 2.66269344e-19)	(9.27530047e-01 -2.73663819e-02 1.56022564e-19)	(2.29973449e+00 -1.23966193e-02 1.10246780e-19)
0.55993         	(3.14783406e+00 -2.79702292e-02 -8.30422417e-19)	(8.75645690e-01 -1.46770356e-02 -8.59754361e-19)	(2.27218837e+00 -1.32931937e-02 2.93319441e-20)
0.579293        	(3.07286451e+00 -3.03616826e-02 -7.29788615e-19)	(8.27373340e-01 -1.61241942e-02 -5.08118777e-19)	(2.24549117e+00 -1.42374884e-02 -2.21669838e-19)
0.598786        	(3.00136677e+00 -2.87073808e-02 -5.10708495e-19)	(7.81912350e-01 -1.35132557e-02 -4.61021990e-19)	(2.21945442e+00 -1.51941251e-02 -4.96865052e-20)
0.618413        	(2.93422411e+00 -2.71013584e-02 -4.96353627e-19)	(7.40227496e-01 -1.09169656e-02 -4.38336458e-19)	(2.19399661e+00 -1.61843927e-02 -5.80171685e-20)
0.638176        	(2.86954236e+00 -2.76207972e-02 -6.36807320e-19)	(7.00522322e-01 -1.04324217e-02 -4.01668755e-19)	(2.16902004e+00 -1.71883756e-02 -2.35138565e-19)
0.658078        	(2.80824644e+00 -2.44286282e-02 -3.43671526e-19)	(6.63789036e-01 -6.17968285e-03 -4.62685401e-19)	(2.14445741e+00 -1.82489454e-02 1.19013875e-19)
0.678124        	(2.74951792e+00 -2.21543082e-02 -3.57195010e-19)	(6.29411950e-01 -2.79291439e-03 -4.63131659e-19)	(2.12010597e+00 -1.93613938e-02 1.05936649e-19)
0.698316        	(2.69293562e+00 -1.95113486e-02 -1.82789177e-19)	(5.96944291e-01 1.05228998e-03 -2.83314321e-19)	(2.09599132e+00 -2.05636386e-02 1.00525144e-19)
0.718661        	(2.63828146e+00 -1.66355496e-02 -7.01313649e-19)	(5.66370085e-01 5.19538643e-03 -5.83277719e-19)	(2.07191138e+00 -2.18309360e-02 -1.18035930e-19)
0.739164        	(2.58599735e+00 -1.31498195e-02 -3.16924655e-19)	(5.38062451e-01 1.00293680e-02 -2.84583898e-19)	(2.04793490e+00 -2.31791875e-02 -3.23407567e-20)
0.759832        	(2.53490300e+00 -9.86461277e-03 -5.81382238e-19)	(5.11012474e-01 1.46973551e-02 -6.40050717e-19)	(2.02389053e+00 -2.45619679e-02 5.86684793e-20)
0.78067         	(2.48619631e+00 -5.81995286e-03 -7.71960444e-19)	(4.86278307e-01 2.02322886e-02 -6.42054877e-19)	(1.99991800e+00 -2.60522414e-02 -1.29905567e-19)
0.801688        	(2.43814661e+00 -2.88054954e-03 -5.99163532e-19)	(4.62344202e-01 2.46543092e-02 -5.93267405e-19)	(1.97580241e+00 -2.75348587e-02 -5.89612717e-21)
0.822892        	(2.39183973e+00 9.99019434e-04 -6.44832311e-19)	(4.40136198e-01 3.00596439e-02 -5.93675786e-19)	(1.95170353e+00 -2.90606245e-02 -5.11565249e-20)
0.844291        	(2.34664174e+00 4.63620292e-03 -1.92088482e-19)	(4.19236378e-01 3.52002606e-02 -1.83339314e-19)	(1.92740536e+00 -3.05640577e-02 -8.74916819e-21)
0.865896        	(2.30390119e+00 1.23426757e-02 -7.70432457e-19)	(4.00894186e-01 4.44593485e-02 -9.35090037e-19)	(1.90300700e+00 -3.21166729e-02 1.64657580e-19)
0.887716        	(2.26112218e+00 2.01800709e-02 -3.18192185e-19)	(3.83248628e-01 5.37585845e-02 -2.31525018e-19)	(1.87787355e+00 -3.35785136e-02 -8.66671673e-20)
0.909754        	(2.22001699e+00 1.36828386e-02 -8.12544424e-19)	(3.67498766e-01 4.87442775e-02 -9.35089886e-19)	(1.85251822e+00 -3.50614389e-02 1.22545462e-19)
0.932022        	(2.17959758e+00 2.01253309e-02 -6.03529696e-19)	(3.52674498e-01 5.65096535e-02 -6.20747257e-19)	(1.82692308e+00 -3.63843225e-02 1.72175618e-20)
0.954531        	(2.14111072e+00 3.47815569e-02 -7.76848078e-19)	(3.39918883e-01 7.23824405e-02 -6.22222511e-19)	(1.80119184e+00 -3.76008836e-02 -1.54625567e-19)
0.977293        	(2.10367728e+00 4.00839774e-02 1.74983722e-18)	(3.28497558e-01 7.88559649e-02 1.78237720e-18)	(1.77517972e+00 -3.87719875e-02 -3.25399772e-20)
1.00032         	(2.06781004e+00 4.42202425e-02 -2.52605811e-19)	(3.18782264e-01 8.41930597e-02 -2.85031544e-19)	(1.74902777e+00 -3.99728172e-02 3.24257329e-20)
1.02363         	(2.03266010e+00 4.98006222e-02 -1.50355673e-18)	(3.10121795e-01 9.10045521e-02 -1.50146738e-18)	(1.72253830e+00 -4.12039299e-02 -2.08934454e-21)
1.04723         	(1.99933709e+00 5.56173203e-02 -1.49901749e-18)	(3.03513074e-01 9.81965697e-02 -1.50177264e-18)	(1.69582401e+00 -4.25792495e-02 2.75514488e-21)
1.07114         	(1.96662524e+00 6.12000084e-02 9.22705427e-19)	(2.97891860e-01 1.05257160e-01 8.96218925e-19)	(1.66873338e+00 -4.40571519e-02 2.64865021e-20)
1.09537         	(1.93582201e+00 6.78921265e-02 -1.82203756e-18)	(2.94445080e-01 1.13520611e-01 -1.87320536e-18)	(1.64137693e+00 -4.56284843e-02 5.11677933e-20)
1.11995         	(1.90535437e+00 7.47989858e-02 -1.79675908e-18)	(2.91707290e-01 1.22072385e-01 -1.87277356e-18)	(1.61364708e+00 -4.72733994e-02 7.60144723e-20)
1.14489         	(1.87718335e+00 8.21285649e-02 -1.99225351e-18)	(2.91541594e-01 1.31125257e-01 -1.87224754e-18)	(1.58564176e+00 -4.89966923e-02 -1.20005972e-19)
1.17023         	(1.84922710e+00 8.96938808e-02 -1.41417454e-18)	(2.92035181e-01 1.40469110e-01 -1.37348243e-18)	(1.55719192e+00 -5.07752289e-02 -4.06921096e-20)
1.19598         	(1.82408056e+00 9.72780780e-02 -1.26835462e-18)	(2.95622705e-01 1.49904871e-01 -1.33616421e-18)	(1.52845785e+00 -5.26267931e-02 6.78095841e-20)
1.22218         	(1.79942498e+00 1.05063014e-01 -1.22281357e-18)	(3.00149077e-01 1.59594473e-01 -1.33454160e-18)	(1.49927590e+00 -5.45314592e-02 1.11728031e-19)
1.24888         	(1.77733420e+00 1.12971441e-01 -1.27372689e-18)	(3.07613165e-01 1.69423888e-01 -1.33253200e-18)	(1.46972104e+00 -5.64524468e-02 5.88051070e-20)
1.2761          	(1.75586348e+00 1.21836281e-01 -1.32255953e-18)	(3.16299436e-01 1.80227599e-01 -1.29398573e-18)	(1.43956404e+00 -5.83913187e-02 -2.85738029e-20)
1.3039          	(1.73835566e+00 1.33010103e-01 -9.98352742e-19)	(3.29388577e-01 1.93360175e-01 -9.47437307e-19)	(1.40896709e+00 -6.03500728e-02 -5.09154353e-20)
1.33234         	(1.72078069e+00 1.45694041e-01 -6.41477949e-19)	(3.43051025e-01 2.08057546e-01 -7.15134557e-19)	(1.37772967e+00 -6.23635052e-02 7.36566074e-20)
1.36148         	(1.70725806e+00 1.42811861e-01 -5.18651023e-19)	(3.61262078e-01 2.07336107e-01 -3.89489273e-19)	(1.34599598e+00 -6.45242456e-02 -1.29161750e-19)
1.39138         	(1.69507781e+00 1.60819533e-01 -7.14483676e-19)	(3.81535938e-01 2.27499293e-01 -7.74959381e-19)	(1.31354187e+00 -6.66797608e-02 6.04757049e-20)
1.42161         	(1.68836309e+00 1.76265636e-01 -8.05260189e-19)	(4.07641706e-01 2.44864757e-01 -7.76386164e-19)	(1.28072138e+00 -6.85991207e-02 -2.88740250e-20)
1.45189         	(1.68358678e+00 1.85397912e-01 -7.47380895e-19)	(4.35877812e-01 2.55455457e-01 -7.14040936e-19)	(1.24770897e+00 -7.00575450e-02 -3.33399590e-20)
1.48227         	(1.68195140e+00 1.97301092e-01 -1.34849960e-19)	(4.67365681e-01 2.68550832e-01 -6.01818751e-21)	(1.21458572e+00 -7.12497399e-02 -1.28831772e-19)
1.51269         	(1.68270351e+00 2.09496900e-01 -7.69238003e-19)	(5.01251804e-01 2.81615264e-01 -7.17873810e-19)	(1.18145171e+00 -7.21183640e-02 -5.13641931e-20)
1.54322         	(1.68720996e+00 2.20953392e-01 -7.97424166e-19)	(5.38889821e-01 2.93782318e-01 -7.19631425e-19)	(1.14832014e+00 -7.28289257e-02 -7.77927408e-20)
1.57381         	(1.69504203e+00 2.34598051e-01 -5.01197972e-19)	(5.79808626e-01 3.08086931e-01 -5.00780494e-19)	(1.11523341e+00 -7.34888798e-02 -4.17478367e-22)
1.60424         	(1.70831425e+00 2.47912140e-01 -2.00867981e-19)	(6.25947746e-01 3.22179490e-01 -1.73459473e-19)	(1.08236650e+00 -7.42673496e-02 -2.74085079e-20)
1.63444         	(1.72391648e+00 2.61154670e-01 -2.70969928e-19)	(6.74248024e-01 3.36193965e-01 -1.66632886e-19)	(1.04966845e+00 -7.50392946e-02 -1.04337042e-19)
1.6645          	(1.74452216e+00 2.75415904e-01 -4.79993813e-19)	(7.27395953e-01 3.51192144e-01 -5.13577608e-19)	(1.01712621e+00 -7.57762396e-02 3.35837958e-20)
1.69436         	(1.76796032e+00 2.89210807e-01 -1.58753107e-19)	(7.83161265e-01 3.65637683e-01 -1.98184018e-19)	(9.84799052e-01 -7.64268762e-02 3.94309109e-20)
1.72406         	(1.79627987e+00 3.03120659e-01 -6.54189309e-19)	(8.43571386e-01 3.80142776e-01 -5.37007901e-19)	(9.52708485e-01 -7.70221166e-02 -1.17181408e-19)
1.75356         	(1.82775164e+00 3.17120392e-01 -4.75558155e-19)	(9.06921560e-01 3.94657970e-01 -4.72756186e-19)	(9.20830084e-01 -7.75375777e-02 -2.80196905e-21)
1.7829          	(1.86382998e+00 3.31496087e-01 -2.91768450e-19)	(9.75482851e-01 4.09604244e-01 -2.01628229e-19)	(8.88347133e-01 -7.81081573e-02 -9.01402211e-20)
1.81204         	(1.90308466e+00 3.45559379e-01 -5.46766179e-19)	(1.04689352e+00 4.24113945e-01 -5.28911335e-19)	(8.56191138e-01 -7.85545667e-02 -1.78548437e-20)
1.84102         	(1.94819914e+00 3.60174485e-01 -4.45948761e-19)	(1.12354552e+00 4.38947255e-01 -5.26115021e-19)	(8.24653618e-01 -7.87727698e-02 8.01662598e-20)
1.8698          	(1.99711409e+00 3.78659007e-01 -4.86640444e-19)	(1.20324064e+00 4.57232147e-01 -4.58098934e-19)	(7.93873452e-01 -7.85731404e-02 -2.85415099e-20)
1.89843         	(2.05069727e+00 3.95146350e-01 -4.51797802e-19)	(1.28714343e+00 4.73285430e-01 -4.65624802e-19)	(7.63553839e-01 -7.81390795e-02 1.38270001e-20)
1.92685         	(2.10550411e+00 4.01989713e-01 -2.39471724e-19)	(1.37167724e+00 4.79455808e-01 -2.01643610e-19)	(7.33826870e-01 -7.74660951e-02 -3.78281141e-20)
1.95514         	(2.16723954e+00 4.19277524e-01 -8.71028406e-19)	(1.46264909e+00 4.95588747e-01 -8.61883750e-19)	(7.04590453e-01 -7.63112231e-02 -9.14465545e-21)
1.98323         	(2.23309207e+00 4.42567916e-01 -4.78229296e-19)	(1.55739296e+00 5.17256886e-01 -4.77308993e-19)	(6.75699115e-01 -7.46889698e-02 -9.20303755e-22)
2.01118         	(2.30512041e+00 4.64226527e-01 -5.13644408e-19)	(1.65801449e+00 5.36970860e-01 -4.73546573e-19)	(6.47105920e-01 -7.27443331e-02 -4.00978355e-20)
2.03895         	(2.38115151e+00 4.80691310e-01 -3.50161347e-19)	(1.76265580e+00 5.51500172e-01 -4.69501662e-19)	(6.18495712e-01 -7.08088620e-02 1.19340315e-19)
2.06658         	(2.46195671e+00 4.98939930e-01 -9.31997817e-19)	(1.87238954e+00 5.67995671e-01 -8.52406622e-19)	(5.89567170e-01 -6.90557401e-02 -7.95911950e-20)
2.09403         	(2.54491943e+00 5.15235259e-01 -6.03632398e-19)	(1.98406385e+00 5.82479862e-01 -5.80770494e-19)	(5.60855578e-01 -6.72446035e-02 -2.28619045e-20)
2.12136         	(2.63174832e+00 5.31283213e-01 1.89943542e-19)	(2.09878216e+00 5.96345195e-01 1.20986072e-19)	(5.32966155e-01 -6.50619826e-02 6.89574695e-20)
2.14852         	(2.72228675e+00 5.51289102e-01 1.68747736e-19)	(2.21693411e+00 6.13945331e-01 1.23258452e-19)	(5.05352644e-01 -6.26562288e-02 4.54892839e-20)
2.17557         	(2.81859060e+00 5.71310868e-01 -6.08839957e-19)	(2.34000251e+00 6.31462489e-01 -5.76063393e-19)	(4.78588096e-01 -6.01516217e-02 -3.27765636e-20)
2.20247         	(2.91841726e+00 5.90870186e-01 2.38803660e-19)	(2.46599357e+00 6.48492938e-01 2.12400440e-19)	(4.52423690e-01 -5.76227518e-02 2.64032203e-20)
2.22924         	(3.02257333e+00 6.10498496e-01 -4.72278978e-19)	(2.59541229e+00 6.65487415e-01 -5.99130663e-19)	(4.27161037e-01 -5.49889183e-02 1.26851685e-19)
2.25581         	(3.12911044e+00 6.29705781e-01 -6.23535035e-19)	(2.72650367e+00 6.81916576e-01 -6.05970937e-19)	(4.02606773e-01 -5.22107942e-02 -1.75640982e-20)
2.28222         	(3.23752871e+00 6.50136981e-01 -6.28310621e-19)	(2.85851482e+00 6.99349052e-01 -6.29814348e-19)	(3.79013890e-01 -4.92120709e-02 1.50372787e-21)
2.30844         	(3.35318815e+00 6.71323606e-01 -5.59338541e-19)	(2.99720722e+00 7.17407353e-01 -6.19628911e-19)	(3.55980929e-01 -4.60837472e-02 6.02903698e-20)
2.33452         	(3.46906863e+00 6.92120850e-01 -6.57994092e-19)	(3.13506278e+00 7.35162215e-01 -6.46400963e-19)	(3.34005850e-01 -4.30413654e-02 -1.15931297e-20)
2.360403        	(3.59086082e+00 7.12833116e-01 -7.08519015e-20)	(3.27800872e+00 7.52659377e-01 -6.35068979e-20)	(3.12852100e-01 -3.98262607e-02 -7.34500366e-21)
2.38613         	(3.71644591e+00 7.33193140e-01 -5.65078631e-19)	(3.42369725e+00 7.69754612e-01 -6.16297753e-19)	(2.92748661e-01 -3.65614724e-02 5.12191217e-20)
2.41167         	(3.84695268e+00 7.54352668e-01 -5.91757774e-20)	(3.57314942e+00 7.87718438e-01 -3.60699039e-20)	(2.73803258e-01 -3.33657705e-02 -2.31058735e-20)
2.437049        	(3.98061164e+00 7.74606708e-01 -5.96969018e-19)	(3.72456392e+00 8.04755233e-01 -5.79410548e-19)	(2.56047724e-01 -3.01485250e-02 -1.75584697e-20)
2.462255        	(4.11781939e+00 7.95226070e-01 -1.82600582e-21)	(3.87831942e+00 8.22161072e-01 -1.33024660e-20)	(2.39499975e-01 -2.69350020e-02 1.14764602e-20)
2.487309        	(4.25874947e+00 8.16816013e-01 -5.02675756e-19)	(4.03468273e+00 8.40424301e-01 -5.46172726e-19)	(2.24066734e-01 -2.36082878e-02 4.34969698e-20)
2.512191        	(4.40250584e+00 8.36906667e-01 -3.53865855e-19)	(4.19253244e+00 8.57086147e-01 -3.37000538e-19)	(2.09973406e-01 -2.01794800e-02 -1.68653173e-20)
2.53694         	(4.55147771e+00 8.57548803e-01 -3.33714951e-19)	(4.35435080e+00 8.74209076e-01 -3.40978087e-19)	(1.97126915e-01 -1.66602731e-02 7.26313556e-21)
2.561527        	(4.70231757e+00 8.79095890e-01 -6.93240873e-19)	(4.51676378e+00 8.92226669e-01 -6.27936051e-19)	(1.85553782e-01 -1.31307787e-02 -6.53048222e-20)
2.585986        	(4.85893986e+00 9.00641813e-01 -2.47929923e-19)	(4.68376215e+00 9.10224375e-01 -2.77617702e-19)	(1.75177706e-01 -9.58256234e-03 2.96877794e-20)
2.61029         	(5.01382879e+00 9.21596541e-01 2.84330916e-20)	(4.84765200e+00 9.27683754e-01 6.19156973e-20)	(1.66176792e-01 -6.08721312e-03 -3.34826057e-20)
2.634472        	(5.17617877e+00 9.45151688e-01 -3.86199507e-19)	(5.01766594e+00 9.47787730e-01 -4.55978405e-19)	(1.58512831e-01 -2.63604205e-03 6.97788981e-20)
2.658514        	(5.33644019e+00 9.67202124e-01 6.53095012e-20)	(5.18430580e+00 9.66447745e-01 5.88336504e-20)	(1.52134386e-01 7.54379235e-04 6.47585081e-21)
2.682437        	(5.50320966e+00 9.89057666e-01 -4.22086135e-19)	(5.35608473e+00 9.84973051e-01 -4.50801479e-19)	(1.47124934e-01 4.08461484e-03 2.87153441e-20)
2.706233        	(5.66874271e+00 9.97365112e-01 -4.96797542e-19)	(5.52527298e+00 9.90050022e-01 -4.47912107e-19)	(1.43469725e-01 7.31509035e-03 -4.88854349e-20)
2.729916        	(5.83668014e+00 1.02620665e+00 -1.00517757e-19)	(5.69555960e+00 1.01561505e+00 -1.99516841e-20)	(1.41120534e-01 1.05916039e-02 -8.05660730e-20)
2.753459        	(6.00415331e+00 1.04922875e+00 -1.00931573e-18)	(5.86408162e+00 1.03537699e+00 -1.02698766e-18)	(1.40071691e-01 1.38517639e-02 1.76719311e-20)
2.776848        	(6.17366535e+00 1.07176612e+00 1.94353519e-19)	(6.03335800e+00 1.05470065e+00 1.16488600e-19)	(1.40307355e-01 1.70654708e-02 7.78649190e-20)
2.800073        	(6.34203980e+00 1.09058259e+00 -1.17606801e-18)	(6.20023268e+00 1.07036922e+00 -1.15527330e-18)	(1.41807125e-01 2.02133726e-02 -2.07947143e-20)
2.823162        	(6.51031724e+00 1.11002724e+00 1.13679522e-19)	(6.36576930e+00 1.08669502e+00 1.39532908e-19)	(1.44547934e-01 2.33322172e-02 -2.58533867e-20)
2.846093        	(6.67461283e+00 1.12867198e+00 -4.92782151e-19)	(6.52610116e+00 1.10225103e+00 -5.42468108e-19)	(1.48511667e-01 2.64209538e-02 4.96859570e-20)
2.868905        	(6.84120570e+00 1.14690005e+00 -5.40256241e-19)	(6.68751737e+00 1.11742216e+00 -5.37217748e-19)	(1.53688329e-01 2.94778913e-02 -3.03849380e-21)
2.891572        	(7.00128951e+00 1.16310136e+00 1.46198178e-19)	(6.84126614e+00 1.13064727e+00 1.41089738e-19)	(1.60023373e-01 3.24540835e-02 5.10844075e-21)
2.914136        	(7.15988565e+00 1.17929653e+00 -5.09940642e-19)	(6.99236444e+00 1.14395185e+00 -5.25704480e-19)	(1.67521216e-01 3.53446771e-02 1.57638384e-20)
2.936576        	(7.31644062e+00 1.19809141e+00 -3.21580284e-19)	(7.14029768e+00 1.15993628e+00 -3.26889021e-19)	(1.76142938e-01 3.81551292e-02 5.30873696e-21)
2.95893         	(7.46618142e+00 1.21317553e+00 -3.27275270e-19)	(7.28036303e+00 1.17231282e+00 -3.18142822e-19)	(1.85818391e-01 4.08627052e-02 -9.13244753e-21)
2.981183        	(7.61305732e+00 1.22968631e+00 -1.20958458e-18)	(7.41660117e+00 1.18622519e+00 -1.25261399e-18)	(1.96456142e-01 4.34611225e-02 4.30294095e-20)
3.003369        	(7.75500825e+00 1.24186441e+00 -5.95834997e-21)	(7.54702249e+00 1.19588275e+00 2.37277758e-20)	(2.07985770e-01 4.59816515e-02 -2.96861258e-20)
3.025473        	(7.89143928e+00 1.25848694e+00 2.16205402e-20)	(7.67107407e+00 1.21003574e+00 3.35578631e-20)	(2.20365208e-01 4.84512039e-02 -1.19373229e-20)
3.047513        	(8.01943556e+00 1.27185754e+00 -8.51220025e-20)	(7.78584869e+00 1.22094661e+00 4.34735964e-20)	(2.33586874e-01 5.09109323e-02 -1.28595599e-19)
3.069421        	(8.14683210e+00 1.28738221e+00 -3.44620880e-19)	(7.89923574e+00 1.23407503e+00 -3.86879619e-19)	(2.47596355e-01 5.33071767e-02 4.22587388e-20)
3.091246        	(8.26140319e+00 1.29915295e+00 -1.13004139e-18)	(7.99908554e+00 1.24353375e+00 -1.15227392e-18)	(2.62317656e-01 5.56191959e-02 2.22325358e-20)
3.112972        	(8.36991149e+00 1.30887258e+00 6.05246220e-20)	(8.09220266e+00 1.25109223e+00 2.24319503e-19)	(2.77708826e-01 5.77803578e-02 -1.63794881e-19)
3.134634        	(8.47168484e+00 1.32229065e+00 2.87184880e-19)	(8.17798522e+00 1.26244073e+00 2.34550231e-19)	(2.93699624e-01 5.98499231e-02 5.26346489e-20)
3.156227        	(8.56607621e+00 1.33120001e+00 4.58867773e-19)	(8.25549283e+00 1.26932904e+00 3.10090600e-19)	(3.10583388e-01 6.18709686e-02 1.48777172e-19)
3.177777        	(8.65255153e+00 1.33891619e+00 -1.97566465e-19)	(8.32399626e+00 1.27507316e+00 -2.01348986e-19)	(3.28555264e-01 6.38430322e-02 3.78252021e-21)
3.199281        	(8.73489897e+00 1.35024647e+00 -1.78383990e-19)	(8.38755710e+00 1.28445355e+00 -1.92265997e-19)	(3.47341867e-01 6.57929187e-02 1.38820069e-20)
3.220761        	(8.80510604e+00 1.35574472e+00 4.35376281e-19)	(8.43850858e+00 1.28808651e+00 4.05181192e-19)	(3.66597462e-01 6.76582156e-02 3.01950889e-20)
3.242213        	(8.87172530e+00 1.36667828e+00 4.91289681e-19)	(8.48545239e+00 1.29732625e+00 4.10377731e-19)	(3.86272914e-01 6.93520276e-02 8.09119500e-20)
3.263618        	(8.92477488e+00 1.37285835e+00 1.51692490e-19)	(8.51871966e+00 1.30192297e+00 1.53406526e-19)	(4.06055218e-01 7.09353835e-02 -1.71403606e-21)
3.284977        	(8.96734082e+00 1.37600373e+00 2.64196595e-19)	(8.54108557e+00 1.30359527e+00 2.09228355e-19)	(4.26255250e-01 7.24084590e-02 5.49682392e-20)
3.306312        	(9.00634322e+00 1.37834544e+00 3.94003358e-20)	(8.55994693e+00 1.30456591e+00 1.68489089e-19)	(4.46396283e-01 7.37795272e-02 -1.29088753e-19)
3.327629        	(9.03756196e+00 1.38193945e+00 -1.06033975e-18)	(8.57073146e+00 1.30696200e+00 -1.06266438e-18)	(4.66830498e-01 7.49774507e-02 2.32462793e-21)
3.348944        	(9.06015326e+00 1.38524554e+00 1.00626807e-19)	(8.57245534e+00 1.30926250e+00 2.12341723e-19)	(4.87697927e-01 7.59830355e-02 -1.11714916e-19)
3.370262        	(9.07907406e+00 1.38906590e+00 3.29370789e-19)	(8.57048461e+00 1.31213631e+00 4.10554004e-19)	(5.08589447e-01 7.69295944e-02 -8.11832144e-20)
3.3916          	(9.08342742e+00 1.39390505e+00 -1.82977129e-19)	(8.55389944e+00 1.31619426e+00 -1.28422973e-19)	(5.29527985e-01 7.77107921e-02 -5.45541551e-20)
3.412951        	(9.08413115e+00 1.39849308e+00 -9.82631523e-19)	(8.53338011e+00 1.32012389e+00 -1.03288959e-18)	(5.50751040e-01 7.83691935e-02 5.02580664e-20)
3.434272        	(9.08055644e+00 1.39581457e+00 1.42489988e-19)	(8.50857788e+00 1.31675710e+00 1.13985403e-19)	(5.71978555e-01 7.90574760e-02 2.85045847e-20)
3.455563        	(9.07372702e+00 1.39209286e+00 -1.23002031e-18)	(8.48054049e+00 1.31232043e+00 -1.29745086e-18)	(5.93186531e-01 7.97724338e-02 6.74305469e-20)
3.476823        	(9.05948119e+00 1.39047844e+00 -1.40545509e-18)	(8.44524506e+00 1.31017292e+00 -1.28716941e-18)	(6.14236127e-01 8.03055132e-02 -1.18285682e-19)
3.498052        	(9.03976723e+00 1.39317981e+00 7.38163211e-20)	(8.40456510e+00 1.31248595e+00 9.57760747e-20)	(6.35202129e-01 8.06938542e-02 -2.19597535e-20)
3.519248        	(9.01391326e+00 1.39170746e+00 -1.13658852e-18)	(8.35776129e+00 1.31071412e+00 -1.26811509e-18)	(6.56151975e-01 8.09933400e-02 1.31526570e-19)
3.540411        	(8.98581789e+00 1.38957444e+00 -1.28197847e-18)	(8.30895683e+00 1.30827606e+00 -1.25713589e-18)	(6.76861056e-01 8.12983795e-02 -2.48425774e-20)
3.561539        	(8.95750783e+00 1.38733007e+00 -1.15497845e-18)	(8.26025331e+00 1.30589403e+00 -1.24677450e-18)	(6.97254519e-01 8.14360444e-02 9.17960576e-20)
3.582632        	(8.91990008e+00 1.38709271e+00 -9.59334953e-20)	(8.20248094e+00 1.30553400e+00 -1.01684014e-19)	(7.17419143e-01 8.15587139e-02 5.75051847e-21)
3.603688        	(8.88532365e+00 1.37453458e+00 -7.60180812e-19)	(8.14788287e+00 1.29292744e+00 -9.40766579e-19)	(7.37440776e-01 8.16071452e-02 1.80585767e-19)
3.624711        	(8.84422521e+00 1.37109600e+00 1.82941384e-19)	(8.08688665e+00 1.28952878e+00 2.17366967e-19)	(7.57338552e-01 8.15672181e-02 -3.44255833e-20)
3.645693        	(8.80360078e+00 1.36943002e+00 1.07082306e-19)	(8.02685156e+00 1.28790054e+00 1.31516316e-19)	(7.76749211e-01 8.15294779e-02 -2.44340093e-20)
3.666641        	(8.76096860e+00 1.36230886e+00 2.73541426e-19)	(7.96498666e+00 1.28091321e+00 2.16509697e-19)	(7.95981935e-01 8.13956415e-02 5.70317284e-20)
3.687547        	(8.71630228e+00 1.35766271e+00 -1.25560840e-19)	(7.90144701e+00 1.27651727e+00 -9.84912031e-20)	(8.14855269e-01 8.11454389e-02 -2.70696369e-20)
3.708419        	(8.67029115e+00 1.35422615e+00 -1.07625607e-18)	(7.83676374e+00 1.27325114e+00 -1.07684948e-18)	(8.33527413e-01 8.09750170e-02 5.93408990e-22)
3.729246        	(8.62695873e+00 1.35070454e+00 1.17504736e-19)	(7.77501626e+00 1.26995422e+00 2.12223244e-19)	(8.51942468e-01 8.07503156e-02 -9.47185080e-20)
3.750042        	(8.58023169e+00 1.33882261e+00 2.12624206e-19)	(7.70995935e+00 1.25829190e+00 2.09867613e-19)	(8.70272345e-01 8.05307056e-02 2.75659296e-21)
3.770785        	(8.53663796e+00 1.32791972e+00 -7.64110715e-19)	(7.64833735e+00 1.24757455e+00 -8.48510147e-19)	(8.88300613e-01 8.03451684e-02 8.43994325e-20)
3.791484        	(8.49206425e+00 1.31624759e+00 -5.02206454e-20)	(7.58607092e+00 1.23595982e+00 -1.05904250e-19)	(9.05993328e-01 8.02877723e-02 5.56836047e-20)
3.812132        	(8.44947654e+00 1.30876356e+00 -8.89509472e-19)	(7.52603054e+00 1.22861473e+00 -1.00486786e-18)	(9.23445996e-01 8.01488330e-02 1.15358385e-19)
3.832738        	(8.40706209e+00 1.30298939e+00 -9.38733848e-19)	(7.46643375e+00 1.22308227e+00 -9.95380233e-19)	(9.40628338e-01 7.99071196e-02 5.66463851e-20)
3.853295        	(8.36949740e+00 1.29645558e+00 3.66489180e-19)	(7.41200471e+00 1.21677625e+00 3.71836856e-19)	(9.57492695e-01 7.96793320e-02 -5.34767517e-21)
3.873811        	(8.32912144e+00 1.28528347e+00 4.17272055e-19)	(7.35477776e+00 1.20586071e+00 3.68993826e-19)	(9.74343673e-01 7.94227632e-02 4.82782284e-20)
3.894278        	(8.29491812e+00 1.27024641e+00 2.27390087e-19)	(7.30376304e+00 1.19110351e+00 2.21597756e-19)	(9.91155082e-01 7.91429032e-02 5.79233095e-21)
3.914705        	(8.25687499e+00 1.26662268e+00 1.31488141e-19)	(7.24910992e+00 1.18773964e+00 2.15625856e-19)	(1.00776508e+00 7.88830433e-02 -8.41377151e-20)
3.935085        	(8.22268069e+00 1.25412603e+00 -3.78693216e-20)	(7.19847719e+00 1.17558253e+00 -1.47049551e-19)	(1.02420350e+00 7.85434934e-02 1.09180230e-19)
3.955428        	(8.19039185e+00 1.24092536e+00 -7.31671796e-19)	(7.14993446e+00 1.16269635e+00 -7.89427400e-19)	(1.04045739e+00 7.82290054e-02 5.77556038e-20)
3.97572         	(8.16147660e+00 1.23121573e+00 2.36668285e-19)	(7.10485860e+00 1.15328645e+00 1.82895996e-19)	(1.05661799e+00 7.79292780e-02 5.37722887e-20)
3.995979        	(8.13354298e+00 1.22108404e+00 -1.01579359e-18)	(7.06088620e+00 1.14343723e+00 -9.19132070e-19)	(1.07265678e+00 7.76468105e-02 -9.66615207e-20)
4.016188        	(8.10572900e+00 1.21275690e+00 -1.89816389e-20)	(7.01721009e+00 1.13530194e+00 1.60262727e-19)	(1.08851890e+00 7.74549627e-02 -1.79244366e-19)
4.036365        	(8.07791062e+00 1.19387846e+00 -8.46501626e-19)	(6.97353586e+00 1.11655727e+00 -8.99915458e-19)	(1.10437476e+00 7.73211896e-02 5.34138318e-20)
4.056494        	(8.05371457e+00 1.18121440e+00 -7.04197837e-19)	(6.93381825e+00 1.10400743e+00 -6.23057391e-19)	(1.11989632e+00 7.72069655e-02 -8.11404455e-20)
4.076595        	(8.03112785e+00 1.16910138e+00 -9.71755010e-19)	(6.89592024e+00 1.09204043e+00 -1.04482518e-18)	(1.13520761e+00 7.70609446e-02 7.30701682e-20)
4.09665         	(8.01224897e+00 1.15390623e+00 -4.64982799e-19)	(6.86199690e+00 1.07711179e+00 -4.66250573e-19)	(1.15025207e+00 7.67944417e-02 1.26777442e-21)
4.116676        	(7.99454398e+00 1.14348862e+00 -4.70665281e-19)	(6.82950259e+00 1.06695525e+00 -4.69961017e-19)	(1.16504139e+00 7.65333768e-02 -7.04263656e-22)
4.136661        	(7.97554828e+00 1.12892344e+00 4.14704275e-19)	(6.79568819e+00 1.05265703e+00 4.45546560e-19)	(1.17986009e+00 7.62664038e-02 -3.08422854e-20)
4.156621        	(7.96213170e+00 1.12027457e+00 4.80729147e-19)	(6.76746818e+00 1.04420988e+00 4.44818474e-19)	(1.19466352e+00 7.60646823e-02 3.59106732e-20)
4.176542        	(7.94582347e+00 1.10482530e+00 -2.53155296e-20)	(6.73622601e+00 1.02895802e+00 -1.71697897e-19)	(1.20959747e+00 7.58672802e-02 1.46382367e-19)
4.196444        	(7.93492623e+00 1.08741704e+00 4.95266303e-19)	(6.71042361e+00 1.01172290e+00 4.43334783e-19)	(1.22450261e+00 7.56941422e-02 5.19315203e-20)
4.216311        	(7.92343113e+00 1.07134702e+00 4.83022300e-19)	(6.68379114e+00 9.95824860e-01 4.43457196e-19)	(1.23963999e+00 7.55221621e-02 3.95651034e-20)