# Moment        
# CofR          : (0.00000000e+00 0.00000000e+00 0.00000000e+00)
#
# Time          	(total_x total_y total_z)	(pressure_x pressure_y pressure_z)	(viscous_x viscous_y viscous_z)
0.0221698       	(2.11295375e-19 4.14858367e-18 -1.48996779e-03)	(6.70619257e-19 5.14615792e-18 -1.39045465e-03)	(-4.59323881e-19 -9.97574249e-19 -9.95131470e-05)
0.0425841       	(-1.04140147e-20 8.91691426e-19 -2.60857198e-03)	(-1.46081975e-19 8.77923078e-19 -2.40114709e-03)	(1.35667961e-19 1.37683475e-20 -2.07424889e-04)
0.0628021       	(8.91519762e-19 2.20884108e-19 -3.74383225e-03)	(5.33204057e-19 -4.72892809e-20 -3.38642802e-03)	(3.58315705e-19 2.68173389e-19 -3.57404224e-04)
0.0826865       	(1.86858676e-18 1.53565427e-19 -4.99723158e-03)	(1.59259969e-18 2.73175831e-19 -4.42239252e-03)	(2.75987073e-19 -1.19610404e-19 -5.74839061e-04)
0.102227        	(-1.46708410e-18 7.38980764e-19 -6.34730669e-03)	(-1.15181739e-18 7.13948358e-19 -5.48165748e-03)	(-3.15266715e-19 2.50324061e-20 -8.65649208e-04)
0.121396        	(1.64903417e-18 2.67835933e-19 -7.44119378e-03)	(1.54555610e-18 7.35852967e-20 -6.23281420e-03)	(1.03478069e-19 1.94250636e-19 -1.20837957e-03)
0.140241        	(1.96121163e-18 4.97604985e-19 -9.95859474e-03)	(2.14710979e-18 3.14004245e-19 -8.36790563e-03)	(-1.85898160e-19 1.83600740e-19 -1.59068911e-03)
0.158773        	(1.23089495e-18 6.54912003e-19 -9.45829189e-03)	(1.21784603e-18 6.54502886e-19 -7.49270784e-03)	(1.30489254e-20 4.09117627e-22 -1.96558406e-03)
0.17707         	(7.94878917e-19 2.18094845e-19 -1.10702222e-02)	(7.96546143e-19 5.11756774e-19 -8.70738705e-03)	(-1.66722638e-21 -2.93661929e-19 -2.36283510e-03)
0.195136        	(-6.99844420e-20 7.23486398e-20 -1.25325612e-02)	(3.15031240e-20 1.50176119e-19 -9.74635968e-03)	(-1.01487566e-19 -7.78274794e-20 -2.78620150e-03)
0.213064        	(4.32060721e-19 4.43791953e-19 -1.34884037e-02)	(6.60678482e-19 3.57212356e-19 -1.03245388e-02)	(-2.28617760e-19 8.65795966e-20 -3.16386494e-03)
0.230847        	(-7.39999675e-19 6.90473771e-19 -1.46853914e-02)	(-5.31277717e-19 6.18345998e-19 -1.11363372e-02)	(-2.08721957e-19 7.21277732e-20 -3.54905426e-03)
0.248567        	(-4.95508801e-19 5.22703013e-19 -1.59950300e-02)	(-5.99558673e-19 3.86489998e-19 -1.20771797e-02)	(1.04049872e-19 1.36213015e-19 -3.91785031e-03)
0.266281        	(-4.79020525e-20 5.36243435e-19 -1.70576615e-02)	(-2.34018626e-19 6.33233481e-19 -1.26939438e-02)	(1.86116574e-19 -9.69900465e-20 -4.36371775e-03)
0.283976        	(5.33443563e-19 3.26645695e-19 -1.83779001e-02)	(6.50347364e-19 2.70571790e-19 -1.35355737e-02)	(-1.16903801e-19 5.60739057e-20 -4.84232641e-03)
0.301703        	(4.56873389e-19 1.33563119e-18 -1.95822579e-02)	(4.27111466e-19 1.35797355e-18 -1.41930456e-02)	(2.97619231e-20 -2.23423535e-20 -5.38921228e-03)
0.319494        	(4.86105760e-19 2.33395642e-19 -2.09963720e-02)	(6.07911494e-19 5.55702656e-19 -1.49832935e-02)	(-1.21805733e-19 -3.22307013e-19 -6.01307846e-03)
0.337348        	(8.17527426e-19 -6.71139123e-21 -2.21287502e-02)	(8.09292894e-19 -2.04240332e-19 -1.54678102e-02)	(8.23453187e-21 1.97528941e-19 -6.66094006e-03)
0.355276        	(-6.15027864e-19 3.51037990e-19 -2.33575255e-02)	(-6.85601321e-19 1.00492672e-19 -1.58731974e-02)	(7.05734562e-20 2.50545318e-19 -7.48432805e-03)
0.373298        	(1.00746973e-18 1.40786478e-18 -2.42826634e-02)	(1.03911445e-18 1.31731790e-18 -1.58917397e-02)	(-3.16447258e-20 9.05468799e-20 -8.39092367e-03)
0.391426        	(-1.82009556e-20 4.79243586e-20 -2.54612754e-02)	(1.55821521e-20 8.86476046e-20 -1.60529762e-02)	(-3.37831077e-20 -4.07232461e-20 -9.40829920e-03)
0.409657        	(1.14631925e-19 2.03957957e-19 -2.68727186e-02)	(1.92428796e-20 1.01364423e-19 -1.63564799e-02)	(9.53890453e-20 1.02593534e-19 -1.05162387e-02)
0.427998        	(-6.39659006e-19 6.08606843e-19 -2.79551568e-02)	(-6.90139928e-19 5.22097666e-19 -1.61624817e-02)	(5.04809223e-20 8.65091766e-20 -1.17926751e-02)
0.44646         	(1.06272187e-18 1.41999157e-18 -2.94286893e-02)	(1.07508811e-18 1.40860346e-18 -1.62368999e-02)	(-1.23662337e-20 1.13881043e-20 -1.31917894e-02)
0.465048        	(-8.49561871e-19 -8.59013818e-19 -2.95326504e-02)	(-7.92595219e-19 -4.46017823e-19 -1.49215516e-02)	(-5.69666519e-20 -4.12995996e-19 -1.46110988e-02)
0.483765        	(7.63253005e-19 3.41176562e-19 -3.02357762e-02)	(8.52609177e-19 5.29773018e-19 -1.41606647e-02)	(-8.93561712e-20 -1.88596456e-19 -1.60751115e-02)
0.502612        	(7.28428848e-19 1.17064004e-18 -2.98320812e-02)	(6.39941320e-19 1.02375574e-18 -1.21766026e-02)	(8.84875280e-20 1.46884303e-19 -1.76554786e-02)
0.52159         	(-1.02755493e-18 4.99888041e-19 -3.54616137e-02)	(-1.03751658e-18 5.97747721e-19 -1.61649029e-02)	(9.96164935e-21 -9.78596794e-20 -1.92967108e-02)
0.540696        	(-1.08968909e-19 -2.51314291e-19 -3.42297593e-02)	(-1.03847166e-19 -1.98678280e-19 -1.31862520e-02)	(-5.12174306e-21 -5.26360106e-20 -2.10435073e-02)
0.55993         	(1.25568285e-18 7.10211863e-19 -3.01024718e-02)	(1.24813265e-18 8.48743270e-19 -7.31834142e-03)	(7.55020801e-21 -1.38531407e-19 -2.27841304e-02)
0.579293        	(1.15000868e-19 5.01376016e-19 -3.29157749e-02)	(1.81475873e-19 2.26473840e-19 -8.31173583e-03)	(-6.64750048e-20 2.74902176e-19 -2.46040391e-02)
0.598786        	(2.18807195e-19 3.75407021e-19 -3.36727574e-02)	(2.07073132e-19 2.49759934e-19 -7.19465822e-03)	(1.17340635e-20 1.25647087e-19 -2.64780992e-02)
0.618413        	(-2.52702153e-19 3.52065796e-19 -3.44496694e-02)	(-3.62962731e-19 3.84737669e-19 -5.99802501e-03)	(1.10260578e-19 -3.26718735e-20 -2.84516444e-02)
0.638176        	(8.95697592e-19 6.01269112e-19 -3.63773061e-02)	(8.30558023e-19 3.35142918e-19 -5.91000225e-03)	(6.51395684e-20 2.66126194e-19 -3.04673039e-02)
0.658078        	(3.41722542e-19 6.49182671e-20 -3.62334308e-02)	(3.41525166e-19 2.70197546e-19 -3.60685906e-03)	(1.97375713e-22 -2.05279279e-19 -3.26265717e-02)
0.678124        	(3.90812753e-19 1.30858112e-19 -3.65809183e-02)	(3.43885893e-19 2.77240856e-19 -1.67829511e-03)	(4.69268607e-20 -1.46382743e-19 -3.49026232e-02)
0.698316        	(5.69504624e-19 6.92269736e-20 -3.67275616e-02)	(5.24928860e-19 1.94199070e-19 6.50433457e-04)	(4.45757644e-20 -1.24972097e-19 -3.73779950e-02)
0.718661        	(1.05861650e-18 5.78850527e-19 -3.67054623e-02)	(1.01409856e-18 4.51182184e-19 3.30199413e-03)	(4.45179403e-20 1.27668343e-19 -4.00074564e-02)
0.739164        	(5.12812047e-19 2.67979659e-19 -3.62781369e-02)	(5.28563272e-19 2.03065542e-19 6.54957150e-03)	(-1.57512252e-20 6.49141172e-20 -4.28277084e-02)
0.759832        	(-5.02951514e-20 5.04891133e-19 -3.58914316e-02)	(-1.35957390e-19 5.41760619e-19 9.85596566e-03)	(8.56622388e-20 -3.68694856e-20 -4.57473973e-02)
0.78067         	(-1.51383679e-19 7.93562953e-19 -3.50068009e-02)	(-1.29865534e-19 5.54988238e-19 1.39245757e-02)	(-2.15181450e-20 2.38574715e-19 -4.89313765e-02)
0.801688        	(9.24197535e-19 4.51688474e-19 -3.47432430e-02)	(1.01890583e-18 4.87600723e-19 1.74050890e-02)	(-9.47082988e-20 -3.59122491e-20 -5.21483320e-02)
0.822892        	(1.01693014e-18 5.51846577e-19 -3.37590599e-02)	(1.01994070e-18 4.97915278e-19 2.17568352e-02)	(-3.01055433e-21 5.39312986e-20 -5.55158951e-02)
0.844291        	(1.79154944e-18 -1.69144918e-19 -3.27996173e-02)	(1.80659613e-18 -2.24631916e-19 2.61083783e-02)	(-1.50466841e-20 5.54869979e-20 -5.89079956e-02)
0.865896        	(1.14443792e-18 2.19697698e-19 -2.87117220e-02)	(1.21230220e-18 5.55120580e-19 3.37772180e-02)	(-6.78642816e-20 -3.35422882e-19 -6.24889399e-02)
0.887716        	(1.79329273e-18 3.68722601e-20 -2.41809874e-02)	(1.79991615e-18 -1.32941320e-19 4.18167381e-02)	(-6.62341750e-21 1.69813580e-19 -6.59977255e-02)
0.909754        	(1.23970948e-18 4.66243199e-19 -3.07807070e-02)	(1.21163238e-18 5.88177463e-19 3.88051112e-02)	(2.80771077e-20 -1.21934263e-19 -6.95858182e-02)
0.932022        	(1.17879925e-19 6.18120397e-19 -2.69536782e-02)	(1.42300817e-19 6.68050741e-19 4.60237795e-02)	(-2.44208922e-20 -4.99303432e-20 -7.29774577e-02)
0.954531        	(1.59422888e-19 8.77206643e-19 -1.60095623e-02)	(1.46370873e-19 6.83561704e-19 6.02874584e-02)	(1.30520153e-20 1.93644939e-19 -7.62970207e-02)
0.977293        	(1.15887548e-18 -8.35567568e-19 -1.24528581e-02)	(1.10241991e-18 -8.93246119e-19 6.71444953e-02)	(5.64555774e-20 5.76785508e-20 -7.95973534e-02)
1.00032         	(8.76900935e-19 3.02762753e-19 -9.73298355e-03)	(8.33616134e-19 3.49182473e-19 7.32639533e-02)	(4.32848010e-20 -4.64197200e-20 -8.29969369e-02)
1.02363         	(8.06570874e-19 1.01755307e-18 -5.62421828e-03)	(8.36093416e-19 1.01728703e-18 8.09057269e-02)	(-2.95225418e-20 2.66040958e-22 -8.65299452e-02)
1.04723         	(8.33397419e-19 1.00406601e-18 -1.24737088e-03)	(8.39339279e-19 1.04829972e-18 8.91630535e-02)	(-5.94185961e-21 -4.42337111e-20 -9.04104244e-02)
1.07114         	(1.62984704e-18 -6.55021701e-19 3.03567513e-03)	(1.68902049e-18 -5.63109815e-19 9.75865629e-02)	(-5.91734490e-20 -9.19118861e-20 -9.45508878e-02)
1.09537         	(5.52689078e-19 1.13586819e-18 8.48248093e-03)	(5.54224949e-19 1.23288112e-18 1.07435294e-01)	(-1.53587167e-21 -9.70129287e-20 -9.89528135e-02)
1.11995         	(4.99134489e-19 1.14050752e-18 1.43178198e-02)	(5.56994465e-19 1.27166297e-18 1.17900299e-01)	(-5.78599762e-20 -1.31155445e-19 -1.03582479e-01)
1.14489         	(5.84223584e-19 1.51804421e-18 2.07604056e-02)	(5.59325085e-19 1.31071671e-18 1.29213409e-01)	(2.48984982e-20 2.07327499e-19 -1.08453004e-01)
1.17023         	(1.18300981e-19 1.25899005e-18 2.76699867e-02)	(1.27175221e-19 1.09243343e-18 1.41199072e-01)	(-8.87424038e-21 1.66556624e-19 -1.13529085e-01)
1.19598         	(1.19697247e-18 8.87880138e-19 3.48318349e-02)	(1.21524073e-18 1.06014210e-18 1.53677441e-01)	(-1.82682592e-20 -1.72261964e-19 -1.18845606e-01)
1.22218         	(1.26332754e-18 8.81579081e-19 4.24508100e-02)	(1.21522981e-18 1.08683950e-18 1.66831211e-01)	(4.80977300e-20 -2.05260423e-19 -1.24380401e-01)
1.24888         	(1.18024708e-19 9.80283754e-19 5.04982250e-02)	(1.14845642e-19 1.09983642e-18 1.80563224e-01)	(3.17906551e-21 -1.19552663e-19 -1.30064999e-01)
1.2761          	(1.23285243e-18 1.08112598e-18 5.98941762e-02)	(1.21689710e-18 1.06583332e-18 1.95799361e-01)	(1.59553221e-20 1.52926627e-20 -1.35905185e-01)
1.3039          	(-1.28120467e-19 7.67629598e-19 7.21841864e-02)	(-1.32322230e-19 5.82950067e-19 2.14112539e-01)	(4.20176216e-21 1.84679531e-19 -1.41928352e-01)
1.33234         	(7.93971974e-19 7.11772179e-19 8.66036357e-02)	(8.00846259e-19 8.29826356e-19 2.34802942e-01)	(-6.87428538e-21 -1.18054176e-19 -1.48199306e-01)
1.36148         	(-4.40287925e-19 5.67619537e-19 8.35952019e-02)	(-5.42970971e-19 3.58047983e-19 2.38456929e-01)	(1.02683046e-19 2.09571554e-19 -1.54861727e-01)
1.39138         	(-1.20003740e-18 9.68534664e-19 1.04908775e-01)	(-1.24449851e-18 1.12763352e-18 2.66630980e-01)	(4.44611075e-20 -1.59098854e-19 -1.61722206e-01)
1.42161         	(-1.21013262e-18 1.27330756e-18 1.24152441e-01)	(-1.24416839e-18 1.14770332e-18 2.92355845e-01)	(3.40357711e-20 1.25604235e-19 -1.68203404e-01)
1.45189         	(-1.21544375e-18 1.27394143e-18 1.36830925e-01)	(-1.27468150e-18 1.14464556e-18 3.10556755e-01)	(5.92377558e-20 1.29295867e-19 -1.73725830e-01)
1.48227         	(-1.26150837e-18 3.12643288e-19 1.53514106e-01)	(-1.24134309e-18 3.92850796e-20 3.32277203e-01)	(-2.01652757e-20 2.73358209e-19 -1.78763098e-01)
1.51269         	(-1.26280413e-18 1.27021092e-18 1.71336805e-01)	(-1.27428441e-18 1.18066269e-18 3.54465439e-01)	(1.14802877e-20 8.95482348e-20 -1.83128634e-01)
1.54322         	(-1.39303065e-18 1.31513407e-18 1.88839029e-01)	(-1.27439113e-18 1.19823473e-18 3.76019933e-01)	(-1.18639519e-19 1.16899347e-19 -1.87180905e-01)
1.57381         	(-2.21701360e-19 6.63154492e-19 2.09658109e-01)	(-2.24904150e-19 6.81353914e-19 4.00808610e-01)	(3.20278986e-21 -1.81994212e-20 -1.91150501e-01)
1.60424         	(-1.28961367e-18 1.35748360e-19 2.30444418e-01)	(-1.33384444e-18 1.41961998e-19 4.25803225e-01)	(4.42307669e-20 -6.21363862e-21 -1.95358807e-01)
1.63444         	(-1.30662214e-18 3.27698478e-19 2.51583527e-01)	(-1.33168553e-18 1.47528698e-19 4.51141933e-01)	(2.50633944e-20 1.80169780e-19 -1.99558406e-01)
1.6645          	(-1.86957160e-19 8.01580128e-19 2.74578436e-01)	(-2.15794756e-19 7.61311149e-19 4.78271825e-01)	(2.88375966e-20 4.02689792e-20 -2.03693389e-01)
1.69436         	(-1.38880347e-18 1.47592630e-19 2.97455135e-01)	(-1.33977923e-18 1.78785223e-19 5.05094176e-01)	(-4.90242372e-20 -3.11925934e-20 -2.07639041e-01)
1.72406         	(-1.96081494e-19 9.90902644e-19 3.20986656e-01)	(-2.30411960e-19 7.92552650e-19 5.32433640e-01)	(3.43304660e-20 1.98349994e-19 -2.11446984e-01)
1.75356         	(4.40460111e-19 6.71726648e-19 3.45123884e-01)	(4.82012681e-19 6.69723232e-19 5.60193918e-01)	(-4.15525700e-20 2.00341608e-21 -2.15070033e-01)
1.7829          	(-1.34592026e-18 3.93079904e-19 3.70167612e-01)	(-1.32820096e-18 2.07406774e-19 5.88978835e-01)	(-1.77192993e-20 1.85673130e-19 -2.18811223e-01)
1.81204         	(-1.59853362e-19 8.45183849e-19 3.95288496e-01)	(-2.34297077e-19 8.15416912e-19 6.17520306e-01)	(7.44437149e-20 2.97669370e-20 -2.22231810e-01)
1.84102         	(-3.11688003e-19 7.16912483e-19 4.21877416e-01)	(-2.36222179e-19 8.22266016e-19 6.46912669e-01)	(-7.54658245e-20 -1.05353533e-19 -2.25035252e-01)
1.8698          	(5.10171456e-19 6.56370619e-19 4.54982396e-01)	(4.92564797e-19 6.85409893e-19 6.81809485e-01)	(1.76066585e-20 -2.90392732e-20 -2.26827088e-01)
1.89843         	(5.85694283e-19 6.77305437e-19 4.85870853e-01)	(4.95123501e-19 6.95907976e-19 7.13814363e-01)	(9.05707828e-20 -1.86025391e-20 -2.27943510e-01)
1.92685         	(-4.86724045e-19 2.46383337e-19 5.02719063e-01)	(-4.87228593e-19 2.47301676e-19 7.31117883e-01)	(5.04547433e-22 -9.18338768e-22 -2.28398821e-01)
1.95514         	(7.72251896e-19 1.11353376e-18 5.36194869e-01)	(8.35053655e-19 1.10170493e-18 7.63819497e-01)	(-6.28017600e-20 1.18288263e-20 -2.27624627e-01)
1.98323         	(6.24284224e-19 7.47041041e-19 5.79754862e-01)	(5.99699993e-19 7.64605328e-19 8.05485369e-01)	(2.45842310e-20 -1.75642875e-20 -2.25730506e-01)
2.01118         	(6.17929700e-19 8.56503947e-19 6.21647476e-01)	(5.95405798e-19 7.66710513e-19 8.44594234e-01)	(2.25239016e-20 8.97934341e-20 -2.22946758e-01)
2.03895         	(5.73153241e-19 6.21903607e-19 6.55760535e-01)	(5.90689517e-19 7.68137134e-19 8.75893039e-01)	(-1.75362769e-20 -1.46233527e-19 -2.20132504e-01)
2.06658         	(-6.31670591e-19 1.65247293e-18 6.92843051e-01)	(-6.21381643e-19 1.53396568e-18 9.10605333e-01)	(-1.02889479e-20 1.18507247e-19 -2.17762283e-01)
2.09403         	(-4.85028471e-19 9.63236666e-19 7.27297405e-01)	(-3.71957640e-19 8.75000233e-19 9.42359732e-01)	(-1.13070831e-19 8.82364326e-20 -2.15062326e-01)
2.12136         	(-2.22755816e-19 -2.26576311e-19 7.62255019e-01)	(-2.18487506e-19 -1.39127009e-19 9.73341435e-01)	(-4.26830993e-21 -8.74493020e-20 -2.11086416e-01)
2.14852         	(-2.28954198e-19 -2.54007349e-19 8.04415980e-01)	(-2.19008147e-19 -1.40022766e-19 1.01066770e+00)	(-9.94605098e-21 -1.13984583e-19 -2.06251723e-01)
2.17557         	(9.68125512e-20 9.06963799e-19 8.47537533e-01)	(1.11719035e-19 8.67090325e-19 1.04815686e+00)	(-1.49064840e-20 3.98734740e-20 -2.00619330e-01)
2.20247         	(1.61635209e-19 -2.57949341e-19 8.89966121e-01)	(1.48985050e-19 -2.02941579e-19 1.08510485e+00)	(1.26501587e-20 -5.50077618e-20 -1.95138726e-01)
2.22924         	(-7.88835907e-19 7.20512620e-19 9.32468884e-01)	(-7.79428953e-19 9.14205187e-19 1.12224256e+00)	(-9.40695403e-21 -1.93692567e-19 -1.89773672e-01)
2.25581         	(-4.32619286e-19 9.50762194e-19 9.74867892e-01)	(-4.64015342e-19 9.47349431e-19 1.15863100e+00)	(3.13960557e-20 3.41276323e-21 -1.83763106e-01)
2.28222         	(-3.38739279e-19 1.04958127e-18 1.01994989e+00)	(-3.38013485e-19 1.02748385e-18 1.19693700e+00)	(-7.25793453e-22 2.20974182e-20 -1.76987115e-01)
2.30844         	(-1.21198173e-18 8.82542267e-19 1.06681325e+00)	(-1.20498696e-18 9.77404535e-19 1.23651641e+00)	(-6.99476620e-21 -9.48622682e-20 -1.69703159e-01)
2.33452         	(-8.15387890e-19 1.28649119e-18 1.11318899e+00)	(-7.92991632e-19 1.22981252e-18 1.27578375e+00)	(-2.23962580e-20 5.66786755e-20 -1.62594765e-01)
2.360403        	(-5.12506658e-19 3.72312840e-19 1.15996425e+00)	(-5.34711732e-19 3.73495112e-19 1.31477513e+00)	(2.22050739e-20 -1.18227282e-21 -1.54810886e-01)
2.38613         	(-1.17118906e-18 9.28479658e-19 1.20633408e+00)	(-1.18460091e-18 9.85483238e-19 1.35322673e+00)	(1.34118474e-20 -5.70035798e-20 -1.46892644e-01)
2.41167         	(-3.69571171e-19 3.83135878e-19 1.25426443e+00)	(-3.96989489e-19 3.43701534e-19 1.39334903e+00)	(2.74183179e-20 3.94343441e-20 -1.39084605e-01)
2.437049        	(-7.07564661e-19 1.19935059e-18 1.30087495e+00)	(-7.14549570e-19 1.16518742e-18 1.43197015e+00)	(6.98490948e-21 3.41631679e-20 -1.31095195e-01)
2.462255        	(-3.94270429e-19 3.08637697e-19 1.34843804e+00)	(-4.02915335e-19 3.15636594e-19 1.47136258e+00)	(8.64490589e-21 -6.99889647e-21 -1.22924531e-01)
2.487309        	(-7.30351396e-19 1.07842058e-18 1.39791030e+00)	(-7.50332134e-19 1.12851703e-18 1.51241159e+00)	(1.99807381e-20 -5.00964541e-20 -1.14501291e-01)
2.512191        	(1.34562482e-19 5.37443953e-19 1.44498323e+00)	(1.52390997e-19 5.34427599e-19 1.55067363e+00)	(-1.78285148e-20 3.01635481e-21 -1.05690406e-01)
2.53694         	(1.67978939e-19 5.03223490e-19 1.49329147e+00)	(1.42162165e-19 5.48952491e-19 1.58985420e+00)	(2.58167739e-20 -4.57290013e-20 -9.65627379e-02)
2.561527        	(-8.13416159e-19 1.49685411e-18 1.54342636e+00)	(-8.07078716e-19 1.43890338e-18 1.63073742e+00)	(-6.33744354e-21 5.79507346e-20 -8.73110590e-02)
2.585986        	(-6.40884710e-19 2.17646256e-19 1.59381041e+00)	(-6.23833535e-19 3.48866863e-19 1.67166695e+00)	(-1.70511750e-20 -1.31220607e-19 -7.78565375e-02)
2.61029         	(-4.49500466e-19 2.66429881e-19 1.64313654e+00)	(-4.15208060e-19 2.10993402e-19 1.71166435e+00)	(-3.42924068e-20 5.54364794e-20 -6.85278063e-02)
2.634472        	(-1.08611029e-18 5.38120669e-19 1.69734333e+00)	(-1.03802174e-18 6.94838937e-19 1.75661421e+00)	(-4.80885477e-20 -1.56718268e-19 -5.92708837e-02)
2.658514        	(-4.53620295e-19 1.67191267e-19 1.74880726e+00)	(-4.30183709e-19 1.99502244e-19 1.79895235e+00)	(-2.34365853e-20 -3.23109771e-20 -5.01450934e-02)
2.682437        	(-1.06279320e-18 6.21974079e-19 1.79993829e+00)	(-1.02835429e-18 6.82711936e-19 1.84108614e+00)	(-3.44389050e-20 -6.07378575e-20 -4.11478509e-02)
2.706233        	(-1.02780080e-18 7.43996458e-19 1.82569031e+00)	(-1.02366339e-18 6.75932463e-19 1.85801236e+00)	(-4.13740605e-21 6.80639950e-20 -3.23220467e-02)
2.729916        	(-1.18478567e-18 5.75145232e-20 1.88999959e+00)	(-1.15731999e-18 -1.12726891e-19 1.91336527e+00)	(-2.74656866e-20 1.70241414e-19 -2.33656775e-02)
2.753459        	(-1.13511415e-18 2.59825701e-18 1.94340715e+00)	(-1.20921365e-18 2.66987243e-18 1.95785052e+00)	(7.40995025e-20 -7.16154139e-20 -1.44433672e-02)
2.776848        	(-4.58779664e-19 -5.07509343e-20 1.99587582e+00)	(-4.21096114e-19 1.00876309e-19 2.00151091e+00)	(-3.76835493e-20 -1.51627244e-19 -5.63509629e-03)
2.800073        	(-5.37990538e-19 2.60239564e-18 2.04120723e+00)	(-5.43550821e-19 2.57728091e-18 2.03819799e+00)	(5.56028291e-21 2.51147267e-20 3.00924604e-03)
2.823162        	(-3.34510741e-19 1.31610323e-19 2.08767008e+00)	(-4.11069324e-19 5.86307932e-20 2.07607879e+00)	(7.65585832e-20 7.29795294e-20 1.15912895e-02)
2.846093        	(-8.54217133e-19 7.70203684e-19 2.13252623e+00)	(-8.79827963e-19 8.54820280e-19 2.11241631e+00)	(2.56108297e-20 -8.46165964e-20 2.01099185e-02)
2.868905        	(-9.46089824e-19 8.61683900e-19 2.17649087e+00)	(-8.75365280e-19 8.41579555e-19 2.14793936e+00)	(-7.07245438e-20 2.01043453e-20 2.85515027e-02)
2.891572        	(-4.30544195e-19 -6.75741820e-21 2.21639489e+00)	(-4.21493241e-19 5.58089892e-20 2.17961749e+00)	(-9.05095423e-21 -6.25664074e-20 3.67774011e-02)
2.914136        	(-9.04067357e-19 8.27415798e-19 2.25610786e+00)	(-8.66054938e-19 8.11886517e-19 2.21133916e+00)	(-3.80124192e-20 1.55292804e-20 4.47687013e-02)
2.936576        	(-9.31055297e-19 6.04499296e-19 2.30066523e+00)	(-9.27832401e-19 6.03674506e-19 2.24813327e+00)	(-3.22289607e-21 8.24789819e-22 5.25319624e-02)
2.95893         	(-9.75244644e-19 6.61132193e-19 2.33784050e+00)	(-9.23725471e-19 5.85012685e-19 2.27782584e+00)	(-5.15191730e-20 7.61195077e-20 6.00146629e-02)
2.981183        	(-1.41351535e-18 3.09017156e-18 2.37752375e+00)	(-1.50500331e-18 3.19782729e-18 2.31037258e+00)	(9.14879570e-20 -1.07655733e-19 6.71511766e-02)
3.003369        	(-4.81998770e-19 1.85946733e-19 2.40854019e+00)	(-4.25171949e-19 1.12705079e-19 2.33449289e+00)	(-5.68268203e-20 7.32416541e-20 7.40473005e-02)
3.025473        	(-3.97089370e-19 1.48077477e-19 2.44800478e+00)	(-4.12091926e-19 8.93621701e-20 2.36724028e+00)	(1.50025559e-20 5.87153071e-20 8.07645033e-02)
3.047513        	(-4.26869301e-19 2.56309349e-19 2.48091035e+00)	(-3.98953477e-19 6.53138785e-20 2.39350091e+00)	(-2.79158243e-20 1.90995471e-19 8.74094401e-02)
3.069421        	(-8.62455748e-19 5.66536831e-19 2.51776943e+00)	(-9.27728015e-19 5.95939597e-19 2.42394004e+00)	(6.52722677e-20 -2.94027659e-20 9.38293875e-02)
3.091246        	(-1.57529611e-18 3.17997769e-18 2.54696788e+00)	(-1.57789100e-18 3.21119141e-18 2.44700319e+00)	(2.59489030e-21 -3.12137163e-20 9.99646926e-02)
3.112972        	(-4.23055063e-19 2.51759232e-19 2.57179007e+00)	(-4.13840282e-19 -1.81307177e-19 2.46613208e+00)	(-9.21478106e-21 4.33066409e-19 1.05657981e-01)
3.134634        	(-4.15006785e-19 -2.96336616e-19 2.60362230e+00)	(-3.98019310e-19 -2.05496287e-19 2.49254687e+00)	(-1.69874743e-20 -9.08403291e-20 1.11075425e-01)
3.156227        	(-1.50668893e-18 -1.18926633e-18 2.62650710e+00)	(-1.53127990e-18 -8.99232397e-19 2.50996377e+00)	(2.45909677e-20 -2.90033933e-19 1.16543330e-01)
3.177777        	(-9.37122845e-19 3.63819325e-19 2.64666431e+00)	(-9.18890780e-19 3.50238490e-19 2.52491122e+00)	(-1.82320644e-20 1.35808359e-20 1.21753087e-01)
3.199281        	(-8.62016277e-19 2.75729589e-19 2.67341833e+00)	(-9.10950256e-19 3.28015964e-19 2.54685580e+00)	(4.89339784e-20 -5.22863746e-20 1.26562534e-01)
3.220761        	(-8.72911029e-19 -1.40739986e-18 2.68840135e+00)	(-9.02500570e-19 -1.32033889e-18 2.55719560e+00)	(2.95895406e-20 -8.70609683e-20 1.31205749e-01)
3.242213        	(-8.64874897e-19 -1.49056620e-18 2.71376432e+00)	(-9.03989909e-19 -1.33244337e-18 2.57845355e+00)	(3.91150120e-20 -1.58122834e-19 1.35310772e-01)
3.263618        	(-3.31326786e-19 -2.03742523e-19 2.72923864e+00)	(-3.34458958e-19 -2.13598665e-19 2.59026773e+00)	(3.13217185e-21 9.85614152e-21 1.38970904e-01)
3.284977        	(-1.54543601e-18 -9.99297203e-19 2.73826797e+00)	(-1.52195268e-18 -8.39606278e-19 2.59603087e+00)	(-2.34833328e-20 -1.59690925e-19 1.42237093e-01)
3.306312        	(-2.59024632e-19 7.81818945e-21 2.74558227e+00)	(-3.07644284e-19 -2.53634095e-19 2.60015924e+00)	(4.86196517e-20 2.61452284e-19 1.45423030e-01)
3.327629        	(-8.99194137e-19 2.92525541e-18 2.75495012e+00)	(-9.51100951e-19 2.88501984e-18 2.60689272e+00)	(5.19068142e-20 4.02355701e-20 1.48057401e-01)
3.348944        	(-1.47750899e-18 -6.36340035e-19 2.76333951e+00)	(-1.48650736e-18 -8.37380873e-19 2.61320213e+00)	(8.99837051e-21 2.01040838e-19 1.50137375e-01)
3.370262        	(-8.52516138e-19 -1.26066461e-18 2.77238287e+00)	(-8.65602960e-19 -1.32590649e-18 2.62042192e+00)	(1.30868227e-20 6.52418730e-20 1.51960945e-01)
3.3916          	(-8.35482999e-19 2.20582230e-19 2.78305918e+00)	(-8.09959762e-19 1.67472587e-19 2.62977343e+00)	(-2.55232366e-20 5.31096431e-20 1.53285746e-01)
3.412951        	(-9.64442748e-19 2.75719796e-18 2.79279691e+00)	(-9.10245763e-19 2.81109384e-18 2.63863353e+00)	(-5.41969851e-20 -5.38958847e-20 1.54163383e-01)
3.434272        	(-1.39506439e-18 -8.08515581e-19 2.78781978e+00)	(-1.41700356e-18 -7.01536244e-19 2.63266631e+00)	(2.19391772e-20 -1.06979337e-19 1.55153468e-01)
3.455563        	(-1.45033632e-18 3.18794450e-18 2.78049555e+00)	(-1.46000979e-18 3.34374788e-18 2.62431339e+00)	(9.67347113e-21 -1.55803374e-19 1.56182164e-01)
3.476823        	(-1.35823171e-18 3.51800955e-18 2.77686658e+00)	(-1.44482581e-18 3.31652638e-18 2.62029490e+00)	(8.65940949e-20 2.01483169e-19 1.56571682e-01)
3.498052        	(-1.44673131e-18 -6.37809599e-19 2.78148380e+00)	(-1.37192942e-18 -6.45116731e-19 2.62495721e+00)	(-7.48018958e-20 7.30713193e-21 1.56526595e-01)
3.519248        	(-1.39437867e-18 3.03064228e-18 2.77736181e+00)	(-1.41530313e-18 3.26446721e-18 2.62121112e+00)	(2.09244597e-20 -2.33824934e-19 1.56150686e-01)
3.540411        	(-1.39620992e-18 3.22965486e-18 2.77171267e+00)	(-1.40081014e-18 3.23438472e-18 2.61589620e+00)	(4.60022534e-21 -4.72986674e-21 1.55816472e-01)
3.561539        	(-1.41628061e-18 2.97771997e-18 2.76547706e+00)	(-1.38697143e-18 3.20558880e-18 2.61045944e+00)	(-2.93091801e-20 -2.27868829e-19 1.55017625e-01)
3.582632        	(-8.16469131e-19 6.33011993e-20 2.76298595e+00)	(-7.73203695e-19 1.06538344e-19 2.60883179e+00)	(-4.32654359e-20 -4.32371442e-20 1.54154163e-01)
3.603688        	(-8.58074052e-19 2.32119216e-18 2.73560695e+00)	(-8.42514961e-19 2.56307721e-18 2.58251051e+00)	(-1.55590912e-20 -2.41885050e-19 1.53096441e-01)
3.624711        	(-1.98325617e-19 -2.50213143e-19 2.72612886e+00)	(-2.26011479e-19 -3.68634611e-19 2.57436629e+00)	(2.76858614e-20 1.18421469e-19 1.51762576e-01)
3.645693        	(-1.22226026e-18 -6.27001801e-19 2.72001919e+00)	(-1.28600696e-18 -5.74332593e-19 2.56953492e+00)	(6.37466983e-20 -5.26692088e-20 1.50484277e-01)
3.666641        	(-2.10801968e-19 -4.51664344e-19 2.70273171e+00)	(-2.30823036e-19 -3.62169477e-19 2.55379738e+00)	(2.00210675e-20 -8.94948672e-20 1.48934332e-01)
3.687547        	(-7.34330414e-19 1.78606000e-19 2.68999495e+00)	(-7.96443811e-19 1.09256806e-19 2.54302041e+00)	(6.21133965e-20 6.93491938e-20 1.46974543e-01)
3.708419        	(-1.24999569e-18 2.79086536e-18 2.67934554e+00)	(-1.30208217e-18 2.88427846e-18 2.53428557e+00)	(5.20864804e-20 -9.34131038e-20 1.45059963e-01)
3.729246        	(-2.29828720e-19 -2.75290880e-19 2.66827744e+00)	(-2.40436520e-19 -3.43647952e-19 2.52528339e+00)	(1.06078000e-20 6.83570724e-20 1.42994050e-01)
3.750042        	(-1.98277194e-19 -3.25894251e-19 2.64052547e+00)	(-2.44266025e-19 -3.34595181e-19 2.49945993e+00)	(4.59888315e-20 8.70092976e-21 1.41065546e-01)
3.770785        	(-7.66007546e-19 2.16944127e-18 2.61453578e+00)	(-8.03509086e-19 2.30190103e-18 2.47535074e+00)	(3.75015402e-20 -1.32459762e-19 1.39185038e-01)
3.791484        	(-8.66182275e-19 4.45677687e-20 2.58704164e+00)	(-8.06620107e-19 1.36411587e-19 2.44930454e+00)	(-5.95621674e-20 -9.18438181e-20 1.37737100e-01)
3.812132        	(-8.26563521e-19 2.18672063e-18 2.56760662e+00)	(-7.56850587e-19 2.41927039e-18 2.43156233e+00)	(-6.97129338e-20 -2.32549765e-19 1.36044296e-01)
3.832738        	(-7.81639815e-19 2.28266246e-18 2.55125255e+00)	(-7.51264222e-19 2.38895266e-18 2.41723907e+00)	(-3.03755934e-20 -1.06290194e-19 1.34013474e-01)
3.853295        	(-1.70028560e-19 -4.70665786e-19 2.53329516e+00)	(-2.32794791e-19 -4.70082510e-19 2.40122167e+00)	(6.27662305e-20 -5.83276112e-22 1.32073481e-01)
3.873811        	(-2.35642263e-19 -5.74324258e-19 2.50595663e+00)	(-2.37594036e-19 -4.57637459e-19 2.37596198e+00)	(1.95177303e-21 -1.16686798e-19 1.29994650e-01)
3.894278        	(-1.09961571e-18 -5.65800850e-19 2.47099140e+00)	(-1.11819727e-18 -4.95971447e-19 2.34302144e+00)	(1.85815541e-20 -6.98294027e-20 1.27969964e-01)
3.914705        	(-1.09011380e-18 -3.11556491e-19 2.45829748e+00)	(-1.10902901e-18 -4.75771124e-19 2.33236141e+00)	(1.89152075e-20 1.64214632e-19 1.25936068e-01)
3.935085        	(-7.20300173e-19 7.55196597e-20 2.42793138e+00)	(-7.49456519e-19 2.07582042e-19 2.30430196e+00)	(2.91563459e-20 -1.32062383e-19 1.23629422e-01)
3.955428        	(-7.44981091e-19 1.97156552e-18 2.39616267e+00)	(-6.82393710e-19 2.06619035e-18 2.27471887e+00)	(-6.25873815e-20 -9.46248302e-20 1.21443808e-01)
3.97572         	(-5.40364745e-19 -7.79806878e-19 2.37113330e+00)	(-6.36558542e-19 -6.79185721e-19 2.25184201e+00)	(9.61937973e-20 -1.00621157e-19 1.19291281e-01)
3.995979        	(-1.00296404e-18 2.54815348e-18 2.34521556e+00)	(-1.07415493e-18 2.42501292e-18 2.22800371e+00)	(7.11908872e-20 1.23140570e-19 1.17211858e-01)
4.016188        	(-2.11129344e-19 1.32808682e-19 2.32275185e+00)	(-2.00624982e-19 -1.68498132e-19 2.20740544e+00)	(-1.05043622e-20 3.01306814e-19 1.15346417e-01)
4.036365        	(-1.04516230e-18 2.28798627e-18 2.27986760e+00)	(-1.05626485e-18 2.36554237e-18 2.16611969e+00)	(1.11025541e-20 -7.75561041e-20 1.13747901e-01)
4.056494        	(-1.00446820e-18 2.15013010e-18 2.24908472e+00)	(-9.55382080e-19 2.07002850e-18 2.13682298e+00)	(-4.90861151e-20 8.01015989e-20 1.12261743e-01)
4.076595        	(-4.65175901e-19 2.13493234e-18 2.21930244e+00)	(-5.65168861e-19 2.21958725e-18 2.10859819e+00)	(9.99929604e-20 -8.46549154e-20 1.10704247e-01)
4.09665         	(-7.04288017e-19 5.49673745e-19 2.18357269e+00)	(-6.67683762e-19 5.57254841e-19 2.07462125e+00)	(-3.66042551e-20 -7.58109648e-21 1.08951439e-01)
4.116676        	(-7.11941577e-19 4.90725717e-19 2.15695246e+00)	(-6.70503675e-19 5.63944411e-19 2.04979597e+00)	(-4.14379019e-20 -7.32186934e-20 1.07156482e-01)
4.136661        	(-9.18152959e-20 -4.09665019e-19 2.12224755e+00)	(-9.75303937e-20 -4.31754222e-19 2.01698166e+00)	(5.71509783e-21 2.20892027e-20 1.05265888e-01)
4.156621        	(-5.23432856e-20 -4.91577611e-19 2.09882323e+00)	(-9.96892410e-20 -4.22600400e-19 1.99533912e+00)	(4.73459554e-20 -6.89772103e-20 1.03484114e-01)
4.176542        	(-4.97472256e-19 -4.68873224e-19 2.06247520e+00)	(-5.32093798e-19 -2.39158831e-19 1.96066968e+00)	(3.46215416e-20 -2.29714393e-19 1.01805522e-01)
4.196444        	(-3.44266631e-20 -4.68928242e-19 2.02236107e+00)	(-1.03963577e-19 -4.03770521e-19 1.92224625e+00)	(6.95369135e-20 -6.51577214e-20 1.00114822e-01)