/*--------------------------------*- C++ -*----------------------------------*\
| =========                 |                                                 |
| \\      /  F ield         | OpenFOAM: The Open Source CFD Toolbox           |
|  \\    /   O peration     | Version:  v2012                                 |
|   \\  /    A nd           | Website:  www.openfoam.com                      |
|    \\/     M anipulation  |                                                 |
\*---------------------------------------------------------------------------*/
FoamFile
{
    version     2.0;
    format      ascii;
    class       surfaceScalarField;
    location    "89.9137842149523294";
    object      meshPhi;
}
// * * * * * * * * * * * * * * * * * * * * * * * * * * * * * * * * * * * * * //

dimensions      [0 3 -1 0 0 0 0];
oriented        oriented;


internalField   nonuniform List<scalar> 
18180
(
-4.6862705e-17
0.054012046
0
0.047784055
-9.787748e-14
0.10887835
0
0.041593073
0
0.097462501
0
0.16186319
-1.0128595e-13
0.036930836
9.778225e-14
0.086088819
0
0.14727726
9.1192238e-14
0.21309449
-1.9635083e-17
0.033953507
0
0.076862517
0
0.13226597
0
0.19583257
8.8048636e-14
0.26115001
5.0604265e-14
0.03207798
4.8853975e-14
0.069970512
-4.7188067e-14
0.11891415
-9.1197227e-14
0.17829427
0
0.24202752
0
0.30678957
0
0.030815292
0
0.065295418
-9.4363713e-14
0.10820055
0
0.16198076
8.8008917e-14
0.22281148
0
0.28564538
0
0.3491531
5.0533456e-14
0.029806463
-4.8831495e-14
0.062092261
0
0.10002253
-2.2464945e-17
0.14765625
-2.298566e-17
0.20431851
0
0.26493585
0
0.32631432
7.9255064e-14
0.38877979
0
0.028808306
2.1302424e-17
0.05957712
0
0.093947133
0
0.1357176
4.3976872e-14
0.18713447
-4.2498048e-14
0.24485709
0
0.30437589
0
0.36416372
-3.258454e-17
0.42529
5.0486247e-14
0.027758257
4.8767543e-14
0.057344534
0
0.08933091
-4.5533985e-14
0.12629082
0
0.17203839
-4.2484926e-14
0.22592802
0
0.28322032
-7.9261011e-14
0.34105907
0
0.39922073
0
0.45942506
0
0.026647924
-2.2422778e-17
0.055135114
0
0.085469726
-4.5516645e-14
0.11900402
-2.1594548e-17
0.1594396
4.2448459e-14
0.20857539
-2.1747377e-17
0.26303554
3.9600405e-14
0.31887965
0
0.37503777
0
0.43174746
7.1331124e-14
0.49074986
0
0.025494164
0
0.052885228
-4.7098956e-14
0.081921893
0
0.11309062
-4.3931759e-14
0.14917474
0
0.19322835
2.2245341e-17
0.24414517
-2.046931e-17
0.29771762
-3.8254132e-14
0.35189209
-7.3887085e-14
0.40646368
0
0.46173507
6.8866304e-14
0.51976247
0
0.024317017
0
0.050590962
0
0.07846095
0
0.10790479
0
0.14084541
0
0.18033147
-2.2482363e-17
0.22704537
-3.9575708e-14
0.27783644
3.8224589e-14
0.32979969
-1.6771307e-17
0.38236211
-7.1335852e-14
0.43546902
0
0.48936343
-2.36997e-17
0.54634126
0
0.023129372
0
0.048274031
0
0.075025031
0
0.10305189
0
0.13374464
0
0.16959097
0
0.21196573
0
0.25936522
0
0.308867
-1.7280334e-17
0.35924251
-3.5644085e-14
0.41045673
-6.8870645e-14
0.46214163
0
0.51480246
6.4182955e-14
0.57112443
0
0.021943083
0
0.04595338
1.1663908e-17
0.071612394
0
0.098358488
0
0.12726238
0
0.16037206
0
0.19890595
0
0.24241259
-3.8221068e-14
0.28907235
3.6914097e-14
0.33721554
-3.5650224e-14
0.38636082
1.4200731e-17
0.43628239
0
0.48669965
0
0.53832557
0
0.59387817
-1.2631305e-17
0.020769099
4.8677229e-14
0.043645697
0
0.068238182
-2.2708885e-14
0.093774766
0
0.12110899
0
0.15210714
0
0.18755644
0
0.22722102
0
0.27058177
0
0.31637464
0
0.36335395
3.4389639e-14
0.41130812
-6.6461116e-14
0.46005152
0
0.50931263
0
0.559995
0
0.61500217
2.5183747e-14
0.019617762
2.4338676e-14
0.041366444
-2.3525167e-14
0.064910027
0
0.089296033
-2.1930261e-14
0.11516151
0
0.14435309
0
0.17739714
3.9527724e-14
0.21377507
0
0.25355122
0
0.29659929
0
0.34150607
0
0.38734638
3.3215641e-14
0.43425847
0
0.48189741
-6.1962308e-14
0.53011862
0
0.57995741
0
0.63429394
1.2840405e-17
0.018495741
2.4320432e-14
0.039129281
0
0.061641082
0
0.08492805
-2.1934928e-14
0.10939674
2.1188396e-14
0.13693326
0
0.16799723
0
0.20171784
3.8168452e-14
0.2380841
0
0.27796411
0
0.32073677
-3.4400876e-14
0.36462705
-3.3206881e-14
0.40942445
-1.2384493e-17
0.45535096
0
0.50197055
-5.9812773e-14
0.54921141
0
0.59828641
5.5725874e-14
0.65219494
0
0.017408369
0
0.036947069
2.348968e-14
0.058442007
4.5393529e-14
0.080681989
-1.0715314e-17
0.10382298
2.1172063e-14
0.12978908
0
0.15910274
0
0.19066922
0
0.22419975
0
0.26086616
0
0.30109402
0
0.34317068
0
0.38590836
0
0.42973587
-3.096833e-14
0.47474156
0
0.52035728
0
0.56673167
0
0.61516246
5.378663e-14
0.66849309
-2.5181563e-14
0.016360566
-2.4310679e-14
0.034829308
-2.3484837e-14
0.05532325
0
0.076563025
0
0.098445593
-1.0806357e-17
0.12291578
-2.0456119e-14
0.15060805
-1.9747756e-14
0.18032026
0
0.21156499
0
0.24534908
3.5585382e-14
0.28269105
0
0.32277529
0
0.36377993
0
0.40543935
0
0.44843191
-2.9894637e-14
0.49250962
-2.8853495e-14
0.53720961
0
0.58279959
0
0.63059052
-5.1926279e-14
0.68351024
-2.5177629e-14
0.015355864
0
0.032785217
0
0.052291169
-2.268132e-14
0.072569488
0
0.093268689
0
0.1163118
-1.1090952e-17
0.14247606
-1.0544129e-17
0.17050499
9.616373e-18
0.19979077
0
0.23117158
0
0.26568911
0
0.30332931
0
0.34273626
0
0.38267243
-3.0953997e-14
0.42344406
-2.9877335e-14
0.46559284
2.8847543e-14
0.50879346
0
0.55263042
0
0.59748034
0
0.64470167
0
0.69708706
0
0.014397157
0
0.030821655
2.3476511e-14
0.049353778
0
0.068700845
2.190453e-14
0.088287561
2.1157716e-14
0.10997548
2.0435778e-14
0.13469238
-1.0576818e-17
0.16114723
1.9064893e-14
0.18866017
8.9978293e-18
0.21802671
0
0.25005901
0
0.28501439
-3.3188978e-14
0.32250465
0
0.36109344
0
0.40001613
-2.9881463e-14
0.43997779
2.8851182e-14
0.48134373
-8.7589867e-18
0.52368383
2.6882653e-14
0.5667066
0
0.61086814
0
0.65754423
-4.8365081e-14
0.70959356
1.2585536e-14
0.01348581
0
0.028945047
0
0.046519343
0
0.064956183
0
0.083500279
0
0.10390405
-1.1191439e-17
0.12724086
-1.9734212e-14
0.15221546
-9.5440531e-18
0.17806023
0
0.20562396
0
0.23556892
0
0.26798528
0
0.30303508
3.2027821e-14
0.3400959
0
0.37779946
-2.9863493e-14
0.41589318
-1.0189954e-17
0.455171
0
0.4957622
-7.9964057e-18
0.5372767
0
0.57952223
-5.0104934e-14
0.62305177
0
0.66928249
4.6664626e-14
0.72089294
-6.5320452e-18
0.012622906
6.6304022e-18
0.027159492
0
0.043794699
0
0.061336538
-2.190808e-14
0.078898862
0
0.09809457
0
0.12011606
1.9730322e-14
0.14369041
0
0.16794902
-8.8936918e-18
0.19383104
-8.6354256e-18
0.22197119
-1.7167828e-14
0.25217232
0
0.2846133
0
0.31962557
3.0920542e-14
0.35620718
0
0.3930469
-2.8828594e-14
0.43048123
0
0.46911464
2.6880912e-14
0.5089419
-7.2826213e-18
0.5496495
2.5049009e-14
0.59117533
0
0.63414787
0
0.67993836
0
0.73127196
0
0.011808174
-1.2153727e-14
0.025467687
6.8176159e-18
0.041187195
0
0.057845273
0
0.074479267
2.1146679e-14
0.092541959
2.0435671e-14
0.11330745
1.9737443e-14
0.13555778
-1.9062716e-14
0.1583115
0
0.18258942
1.7772862e-14
0.20909391
0
0.23740955
0
0.26749813
0
0.3000692
0
0.33501542
-2.986256e-14
0.3708767
-2.8822474e-14
0.40700486
-2.7828585e-14
0.44389554
0
0.4818976
0
0.5209457
0
0.56089921
2.4169035e-14
0.60176297
0
0.64420431
0
0.68964011
-4.3465079e-14
0.74064678
1.2581974e-14
0.011041404
-1.2145943e-14
0.02386959
0
0.038701888
-2.2670588e-14
0.054487928
0
0.070234698
0
0.087237029
0
0.10680528
1.9723458e-14
0.12780211
-1.9049999e-14
0.1491291
-1.8407883e-14
0.17187994
0
0.19685716
-1.7169216e-14
0.22350705
-7.4642787e-18
0.25158623
0
0.28171548
0
0.31451427
0
0.34917366
2.881661e-14
0.38430951
0
0.41986257
-2.6871114e-14
0.45626661
0
0.49357498
2.5041411e-14
0.5318701
-6.0101295e-18
0.57111068
0
0.61134007
-4.5034151e-14
0.65332234
0
0.69845358
0
0.7493206
0
0.01032194
1.2151669e-14
0.02236444
-2.3469166e-14
0.036341035
-6.5309748e-18
0.051268342
1.0949805e-14
0.066161729
0
0.08216839
0
0.10059531
0
0.12040581
0
0.14038989
0
0.1616891
-8.6349217e-18
0.18522551
0
0.21034524
-7.426873e-18
0.23667101
1.6008398e-14
0.26466369
-1.545152e-14
0.29515932
0
0.32814215
0
0.36223502
0
0.39667446
0
0.43177886
0
0.46760701
-7.1882127e-18
0.50422002
-2.4161795e-14
0.54179291
-5.4326712e-18
0.58034281
2.2514472e-14
0.61999735
0
0.66157314
0
0.70651716
-7.0392993e-18
0.75725425
0
0.0096488765
-1.2150834e-14
0.020950086
1.1737116e-14
0.034104557
1.1336344e-14
0.048189998
-5.7034175e-18
0.062259561
-1.0569289e-14
0.077328012
0
0.094670537
0
0.11335664
0
0.13207799
0
0.15200399
0
0.17417998
0
0.19786269
0
0.22259778
1.5998817e-14
0.24876848
-3.0904457e-14
0.27709396
1.4923481e-14
0.30803928
-2.8818071e-14
0.34082605
0
0.37420763
-9.3357186e-18
0.40808981
0
0.44272671
2.503381e-14
0.47798533
-2.4158135e-14
0.51391139
0
0.55077514
-4.9054976e-18
0.58867807
4.2634529e-18
0.62779973
0
0.66906645
0
0.71390739
0
0.76467741
0
0.0090213964
0
0.019623513
0
0.031988945
-1.1328824e-14
0.045254078
1.0941972e-14
0.058529268
0
0.072712941
5.6570217e-18
0.089023579
0
0.10664208
0
0.12418307
0
0.14281089
0
0.1636992
-1.7152589e-14
0.18602767
0
0.20926908
0
0.23381448
-6.4618984e-18
0.26024585
-1.4921125e-14
0.28909451
1.4406853e-14
0.32017274
0
0.35242581
0
0.38518434
-2.5928581e-14
0.4186249
0
0.45281575
2.4154603e-14
0.48747472
-5.9622591e-18
0.52271109
5.1218087e-18
0.5588826
2.1724003e-14
0.59617685
0
0.63484077
-4.0464741e-14
0.67586039
0
0.72072719
0
0.77151509
-1.2579614e-14
0.0084335227
0
0.0183817
0
0.029992604
0
0.042461515
5.7597596e-18
0.054969965
5.4198277e-18
0.068318816
0
0.083649645
0
0.10025247
0
0.11668784
0
0.13409677
-1.7767589e-14
0.15376658
0
0.17481452
0
0.19663553
-6.7085477e-18
0.21967885
0
0.24446207
-1.4918897e-14
0.27137574
1.4398776e-14
0.30049013
1.3907731e-14
0.33133169
0
0.36309257
0
0.39535496
-8.0103167e-18
0.42838008
-2.4151285e-14
0.46210128
0
0.49614916
2.2501162e-14
0.53067273
2.1721633e-14
0.56617523
2.0959108e-14
0.60291858
2.0230262e-14
0.64115813
0
0.68204505
0
0.72701773
0
0.77795094
3.8705453e-05
0.0092461574
-1.2142579e-14
0.017215502
0
0.02811184
0
0.039811369
0
0.051582625
5.4319825e-18
0.064141374
0
0.078542835
0
0.094175126
0
0.1095792
0
0.12584735
0
0.14436187
-1.71563e-14
0.16420009
0
0.18466889
6.6462468e-18
0.20628874
-1.5448522e-14
0.22957619
1.4916818e-14
0.25478856
0
0.28198542
-5.586917e-18
0.31105175
-1.342031e-14
0.3416357
0
0.37295344
0
0.4047657
2.4148241e-14
0.43742927
2.3309505e-14
0.4706624
2.2498561e-14
0.50402267
-2.1719464e-14
0.53784554
0
0.57272487
4.0449314e-14
0.60893343
0
0.64683673
3.7668237e-14
0.68767019
0
0.73286261
0
0.78389746
6.5088831e-05
0.009221388
0.0001137284
0.018759895
0
0.026333363
0
0.037300858
0
0.048365173
1.0565794e-14
0.060175815
5.6527163e-18
0.073697085
0
0.088400797
9.5177695e-15
0.10283904
4.0708135e-18
0.11804427
0
0.13546634
1.7146047e-14
0.1541612
0
0.17334204
0
0.19360642
0
0.21550171
0
0.23919571
0
0.26466886
-5.5395711e-18
0.29182137
0
0.32083561
-1.2954721e-14
0.35125276
0
0.38213413
0
0.41356266
-2.3313947e-14
0.44583372
0
0.47847744
0
0.51115066
-2.0959078e-14
0.54429847
0
0.5785597
-3.1401479e-18
0.6143016
1.8834926e-14
0.65192473
0
0.69281873
0
0.73827738
0
0.7894932
8.0540229e-05
0.0091976168
0.00019152847
0.01879795
0.00018636133
0.028470606
0
0.034914941
0
0.045314945
0
0.056417061
-5.6421176e-18
0.06910213
-9.8540703e-15
0.082919945
-1.9033887e-14
0.096451855
-9.195611e-15
0.11066957
4.3635614e-18
0.12705736
0
0.14467201
0
0.16263218
-6.4950647e-18
0.18160398
0
0.20218545
0
0.22448171
0
0.24843544
-1.3897121e-14
0.2738236
-5.2083504e-18
0.30102002
-5.0180293e-18
0.33018181
0
0.36030961
0
0.39073346
0
0.42179065
0
0.45359854
0
0.48560921
2.0952833e-14
0.5175885
-3.9274339e-18
0.55005815
-3.9030127e-14
0.58374643
-2.7713292e-18
0.61906124
-1.8173074e-14
0.6564986
0
0.69752207
0
0.74333117
-3.2653601e-14
0.79460831
8.6465975e-05
0.0091782621
0.00023732612
0.018831893
0.00031401169
0.028595674
0.00025244941
0.037420247
0
0.042415522
0
0.052859897
0
0.064750762
-5.448785e-18
0.077719527
4.417722e-18
0.090407212
0
0.10370595
0
0.11911587
8.5755162e-15
0.13570979
0
0.15251311
0
0.17025755
1.5436825e-14
0.18959529
0
0.21057707
1.4397745e-14
0.23315902
0
0.25700704
1.342114e-14
0.28239645
-5.0394968e-18
0.309911
-4.8069151e-18
0.33907596
4.3006523e-18
0.36877689
0
0.39878322
0
0.42946946
2.1708944e-14
0.46073813
0
0.49209657
0
0.52337301
-1.9515276e-14
0.55517981
0
0.58831876
-3.6344979e-14
0.62328463
0
0.66059357
0
0.70184843
3.2646538e-14
0.74799887
0
0.79936234
8.4252471e-05
0.0091633676
0.00025510076
0.018866706
0.00038924691
0.028700092
0.00042501405
0.037627186
0.00030709877
0.045123213
0
0.04948715
0
0.06063636
0
0.072794113
-9.5199608e-15
0.084693381
9.1941664e-15
0.097140901
0
0.11162168
8.5705989e-15
0.12724998
1.6560441e-14
0.14296171
-1.5985315e-14
0.1595437
0
0.17770526
-6.2029023e-18
0.19743851
1.4390228e-14
0.21874399
0
0.24121598
0
0.26497982
0
0.29071775
-1.2507665e-14
0.31848998
0
0.34740421
4.0159241e-18
0.37668396
0
0.40635045
0
0.43660253
-2.0955739e-14
0.46731
0
0.4979764
-3.793617e-18
0.52852907
1.8827067e-14
0.55969138
2.5349558e-18
0.59234752
0
0.62699599
1.9202733e-18
0.66427548
0
0.70583672
3.1501135e-14
0.75234926
0
0.80361976
7.5302e-05
0.0091528904
0.00024883624
0.018901221
0.0004184535
0.028790753
0.00052626041
0.037789398
0.00051667372
0.045484551
0.00035205568
0.052292479
0
0.056738193
0
0.068135324
0
0.079302654
-3.9564187e-18
0.090959333
4.3920807e-18
0.10455718
0
0.11926961
0
0.13395222
0
0.14943619
0
0.16649063
1.4902339e-14
0.1850351
0
0.2051321
0
0.22633636
1.3418694e-14
0.24866231
0
0.27272231
-2.5008741e-14
0.29882392
2.4137512e-14
0.32660944
0
0.35523736
0
0.3841616
0
0.41346334
0
0.44324901
0
0.47331736
0
0.50325568
-1.8825963e-14
0.53309309
-1.8168535e-14
0.56366211
1.7530759e-14
0.59584991
1.6913497e-14
0.63026803
-3.2643265e-14
0.6676186
0
0.70955379
0
0.7563219
-3.4790183e-18
0.80748966
6.1005054e-05
0.0091469252
0.00022260693
0.018934721
0.00040818486
0.028866988
0.00056506603
0.037920577
0.0006393488
0.045775986
0.00059254246
0.052868713
0.0003923454
0.059515399
0
0.063720955
0
0.074223582
0
0.085144808
8.8742008e-15
0.097899817
-8.5694026e-15
0.11174525
-8.2755528e-15
0.12546119
0
0.13991052
7.7227308e-15
0.15592368
0
0.17333659
0
0.19228658
0
0.21229363
-1.3417595e-14
0.23330065
1.295404e-14
0.25586822
-1.2506033e-14
0.28030653
-1.2072842e-14
0.30659284
-4.4313166e-18
0.33430144
0
0.36262514
1.0856712e-14
0.39120495
0
0.42014331
-2.0216929e-14
0.4493952
-1.9513833e-14
0.47878513
0
0.50796732
0
0.5371199
0
0.56710388
1.6913858e-14
0.5988916
-1.6319816e-14
0.63315625
-1.5564973e-18
0.6706816
0
0.71299508
0
0.75997839
-2.8288749e-14
0.81088845
4.2757277e-05
0.0091452689
0.00018047164
0.018966845
0.00036505855
0.028928348
0.00055047487
0.038021045
0.00068600356
0.046016641
0.00073344828
0.053352315
0.00066058981
0.060299137
0.00042870645
0.066353131
0
0.069421621
0
0.079683087
0
0.091631301
8.568927e-15
0.10465129
-8.2750693e-15
0.11746518
0
0.13094253
0
0.1459758
3.0894637e-18
0.16231505
0
0.18017516
1.3890608e-14
0.19904432
-1.3416579e-14
0.21881034
0
0.24003422
-1.2500384e-14
0.26296428
-1.2072298e-14
0.28760217
1.1649008e-14
0.31399249
-1.124851e-14
0.34160791
-2.1709704e-14
0.36960645
3.387129e-18
0.39785853
0
0.42638903
0
0.45505471
0
0.4837079
0
0.51215952
0
0.54062693
1.6910732e-14
0.57007521
1.6318293e-14
0.60151076
-1.4135796e-18
0.63572433
-1.4149036e-18
0.67350116
-2.9316826e-14
0.71620326
0
0.76328153
-2.7290916e-14
0.81393602
2.195422e-05
0.0091477031
0.00012655831
0.018997241
0.00029585222
0.028975556
0.00049165866
0.038091438
0.00066778528
0.04620696
0.0007871836
0.053758802
0.00081786974
0.060967482
0.00072164457
0.06734936
0.00045680216
0.071831936
0
0.074537357
0
0.085735162
0
0.097968537
-8.2779822e-15
0.10994164
2.9629201e-18
0.12251059
0
0.13662038
7.449434e-15
0.15193959
7.1957746e-15
0.16876535
0
0.18655433
0
0.20513535
1.2947286e-14
0.22511245
0
0.24670448
2.414359e-14
0.26979969
-1.1653229e-14
0.29462523
-1.1248476e-14
0.32117289
1.085286e-14
0.3485721
-1.0478151e-14
0.376213
-1.0108663e-14
0.40413173
0
0.43220685
0
0.46021963
0
0.48815552
0
0.51584669
0
0.54365558
0
0.57260234
1.5743385e-14
0.60377293
-1.2414254e-18
0.63802113
0
0.67611656
-2.8283169e-14
0.71917782
2.7288765e-14
0.76630372
0
0.81655874
0.0091536513
0
6.5003931e-05
0.019024972
0.0002073608
0.029009167
0.00039790046
0.038132846
0.0005959998
0.046347055
0.00076644758
0.054089146
0.00087802828
0.061534393
0.00089340522
0.068209725
0.0007689582
0.073097343
0.00047640918
0.076652418
0
0.080177064
0
0.091675818
0
0.10286963
-2.9195194e-18
0.11459054
3.1520248e-18
0.12783118
7.4489606e-15
0.14218275
-7.1953049e-15
0.15802449
2.9283822e-18
0.17478921
0
0.19223599
0
0.21103275
1.2498973e-14
0.23141138
-1.2066545e-14
0.25314635
1.165294e-14
0.27639239
0
0.30151424
0
0.32807705
0
0.35514855
1.0108971e-14
0.38244957
9.7582352e-15
0.41003449
0
0.43759342
0
0.46494779
-3.4441592e-18
0.49212082
0
0.51906597
0
0.54623376
0
0.57475373
0
0.60573117
-1.1040525e-18
0.64010186
-1.4138444e-14
0.6785616
0
0.72196484
0
0.76898955
0
0.81885633
0.019048908
0
0.0091622402
-2.1995434e-05
0.00010644187
0.029028979
0.0002785007
0.038147222
0.0004819578
0.046437309
0.00068416922
0.054344729
0.00085516612
0.062004687
0.00095910571
0.0689541
0.00095213778
0.074199715
0.00080225273
0.078192726
0.00049366734
0.081925108
0
0.08572714
0
0.096228193
0
0.10715993
7.7147165e-15
0.11958064
3.0629024e-18
0.1330174
-1.4386571e-14
0.14792404
-6.9468715e-15
0.16371682
6.7069735e-15
0.18007928
0
0.19774778
0
0.21699434
0
0.23751031
-1.1652669e-14
0.25931814
-1.1243852e-14
0.28287766
-1.0857332e-14
0.30822081
1.0474944e-14
0.33460638
1.0109383e-14
0.36134072
-3.2195989e-18
0.38835408
0
0.41555558
0
0.44257133
0
0.46923852
0
0.49565122
0
0.5218336
0
0.54842028
-1.5187227e-14
0.57656417
1.4652845e-14
0.6074403
-9.9610557e-19
0.64200986
-1.3639746e-14
0.68086892
0
0.72452053
0
0.7713973
0
0.82078613
0.029034431
0
0.019069151
-6.5136882e-05
0.0091733586
-4.2916844e-05
0.0001427704
0.038135842
0.00033707653
0.046479769
0.00055333581
0.054526419
0.00076358876
0.062382134
0.00093425002
0.069586631
0.0010223915
0.075161505
0.00099374123
0.079542134
0.00083141416
0.083730555
0.00051016738
0.087041417
0
0.089954897
-7.989785e-15
0.10019793
0
0.11184123
-3.0620459e-18
0.1244212
7.1945043e-15
0.13843615
0
0.15330551
0
0.16863532
2.4841853e-18
0.18522235
1.2502843e-14
0.20339403
0
0.22278675
0
0.24331465
0
0.26537829
0
0.28924273
0
0.31463415
2.0223583e-14
0.34079518
-3.4377952e-18
0.36722593
9.4144648e-15
0.39392197
9.0864914e-15
0.42070448
0
0.44715001
0
0.47312041
-3.2632718e-14
0.49873813
0
0.52420832
0
0.55024056
-1.0079048e-18
0.57808968
0
0.60894989
1.3637073e-14
0.64377963
-1.3159542e-14
0.68301652
-2.5393784e-14
0.72687477
0
0.77349068
0
0.82245828
0.038099044
0
0.029028664
-0.00010650625
0.01908599
-0.00012707814
0.0091876397
-6.1342633e-05
0.00017266393
0.046476801
0.00038703051
0.054636028
0.00061781878
0.062668858
0.00083444981
0.070107448
0.00099615825
0.075977578
0.0010673122
0.08071438
0.0010298274
0.085307954
0.00085892353
0.089092308
0.00052059941
0.09077022
0
0.093643558
0
0.10458396
0
0.11636199
7.1909163e-15
0.12953509
3.0274047e-18
0.14352444
0
0.15787243
0
0.17342489
2.6053081e-18
0.19057211
0
0.20890368
0
0.22825835
1.1243719e-14
0.2489786
0
0.2713449
0
0.29540623
0
0.32076002
-9.7607629e-15
0.3466572
-3.2380183e-18
0.37278256
0
0.39915274
0
0.4254826
1.6916693e-14
0.45134419
0
0.47659508
1.5742777e-14
0.50145115
0
0.52620233
0
0.55174256
1.4133682e-14
0.57937788
0
0.61030029
-2.6315071e-14
0.64541685
-9.9788195e-19
0.68502736
0
0.72897299
0
0.77533866
-2.2801507e-14
0.8238207
0.046428663
0
0.038043615
-0.00014251063
0.029012294
-0.00020761955
0.019098946
-0.00018157799
0.0092049758
-7.584102e-05
0.00019826407
0.054675887
0.00043232554
0.062867127
0.00067540757
0.070515781
0.00088984874
0.076639917
0.001040016
0.08169982
0.0011060428
0.08667057
0.0010634691
0.090875952
0.00087598361
0.093057665
0.00052434692
0.093943992
0
0.097743693
0
0.10880801
7.1938791e-15
0.12118398
6.9428938e-15
0.13434048
-6.7034689e-15
0.14775948
0
0.16232659
-1.2501856e-14
0.17849475
-1.2064722e-14
0.19581617
0
0.2140697
0
0.23357462
0
0.25456069
0
0.2771371
0
0.30132813
0
0.32659926
9.4162659e-15
0.35220969
0
0.37803545
8.7661927e-15
0.40404597
2.3015604e-18
0.42990052
1.6321455e-14
0.45516479
0
0.47970951
-2.117939e-18
0.50378392
0
0.52786592
1.4132778e-14
0.55297633
0
0.58048294
1.3155654e-14
0.61152331
1.2693036e-14
0.6469492
1.2246785e-14
0.68684713
2.3630093e-14
0.73085945
0
0.77689773
0
0.82495314
0.054647104
0
0.046346337
-0.00017210176
0.037971552
-0.00027750903
0.028983163
-0.0002964193
0.019107628
-0.00022439057
0.009224926
-8.4975427e-05
0.00022158312
0.06297912
0.00047281433
0.07080805
0.00072027281
0.077141372
0.00092897838
0.082491076
0.001077582
0.087815876
0.0011416744
0.092414937
0.0010841733
0.095041152
0.00088213214
0.096485578
0.00052694626
0.097522785
0
0.10169918
0
0.11334856
0
0.12571982
-2.471646e-18
0.13826518
0
0.15189655
-6.2480344e-15
0.16712953
-6.0347733e-15
0.18348784
5.8258673e-15
0.20069228
0
0.21906937
0
0.23881525
0
0.25996857
0
0.2827543
0
0.30708693
0
0.33217368
0
0.35746898
8.7674179e-15
0.3829833
-1.691941e-14
0.408605
8.1620066e-15
0.43395608
0
0.45863029
0
0.48247035
0
0.50579021
0
0.52922826
0
0.55399551
-5.8836936e-19
0.5814411
6.1322359e-19
0.6126452
-1.2244802e-14
0.64835326
-8.3353662e-19
0.6885056
-2.2797159e-14
0.73249117
0
0.77822486
2.1217677e-14
0.82583309
0.063001619
0
0.054564653
-0.00019761811
0.046230906
-0.00033490771
0.037879145
-0.00039583733
0.028942176
-0.00036599862
0.019111766
-0.0002512552
0.0092474468
-8.7310621e-05
0.00024244165
0.070981469
0.00050415188
0.077479473
0.00075170679
0.08307989
0.00096238343
0.08874094
0.0011119296
0.093707892
0.0011635619
0.096760872
0.0010916768
0.098703597
0.00088658042
0.10035656
0.00052948531
0.10094999
-1.4383712e-14
0.10596996
0
0.11762848
-6.7030034e-15
0.12936116
0
0.14210911
2.7059238e-18
0.15644341
0
0.17188205
0
0.18808441
2.2822481e-18
0.20539627
0
0.22400945
1.0481039e-14
0.24388143
0
0.26521623
0
0.28827597
0
0.31263101
-9.0917084e-15
0.33744261
0
0.36242463
-2.7267013e-18
0.38762228
-2.3345819e-18
0.41281344
7.8746143e-15
0.43765949
1.5191484e-14
0.46175861
0
0.48490415
1.4132847e-14
0.50747419
0
0.53034936
0
0.55483914
-1.2689424e-14
0.58228492
0
0.61367246
-2.3624585e-14
0.64964817
0
0.68995663
0
0.73391271
0
0.77930279
-2.0468618e-14
0.82654431
0.07103288
0
0.06295135
-0.0002210832
0.054427792
-0.00038451216
0.046073942
-0.00047738638
0.03776797
-0.00048837893
0.02888941
-0.00040949284
0.019111594
-0.00025797344
0.0092730016
-8.1416e-05
0.00025844304
0.077653518
0.00052594667
0.083466608
0.00077865331
0.089444057
0.00099288702
0.094753829
0.0011330025
0.098211429
0.0011714973
0.10063224
0.001097232
0.10283753
0.00089119181
0.10410415
0.00053177614
0.10466753
0
0.10998827
-6.7052594e-15
0.12101661
0
0.13293183
-2.7376087e-18
0.14641113
0
0.16096569
5.823256e-15
0.17620972
5.6216201e-15
0.19250595
4.5374521e-18
0.21006197
0
0.22877351
0
0.2487581
0
0.27039081
0
0.29365975
-9.0894604e-15
0.31788346
-8.7735154e-15
0.34239552
-8.46131e-15
0.36709249
-2.5431959e-18
0.3919343
-7.87616e-15
0.41667418
0
0.44102328
0
0.46455886
0
0.48702386
1.3633765e-14
0.50889924
0
0.53125466
0
0.5555412
1.2240655e-14
0.5830238
1.1810315e-14
0.6146216
-5.8387798e-19
0.65078402
2.1987674e-14
0.69123871
2.1213225e-14
0.73508996
0
0.78019414
-1.9745056e-14
0.82703889
0.077668585
0
0.070987496
-0.00024209569
0.062826133
-0.0004303526
0.054222057
-0.0005479653
0.045877991
-0.00058863134
0.037638967
-0.00054608039
0.028825804
-0.00042007758
0.019107707
-0.00024033581
0.0093014075
-6.5849945e-05
0.0002694656
0.083656184
0.00054475421
0.089923607
0.00080329282
0.095552501
0.0010114352
0.099389195
0.0011406573
0.10226557
0.0011775942
0.10499757
0.0011031726
0.10687868
0.0008951872
0.10814834
0.00053320063
0.10809759
0
0.11314676
0
0.12433269
0
0.13699443
6.0316624e-15
0.15070648
2.4150473e-18
0.16503636
-5.6215481e-15
0.18036084
0
0.19691319
0
0.21455313
-1.0113303e-14
0.23331952
0
0.25355821
0
0.27548131
-9.0907757e-15
0.29882315
3.5655603e-18
0.32285605
-8.4660453e-15
0.3470754
0
0.37145987
-2.3554823e-18
0.39591395
0
0.42019313
0
0.44405662
-1.4138002e-14
0.46705223
-1.3636535e-14
0.48886908
0
0.51007626
-1.2687796e-14
0.53198693
0
0.55611469
1.1808115e-14
0.58368273
4.3408299e-19
0.61544466
0
0.65178831
2.1210656e-14
0.69230759
2.0463592e-14
0.73607614
0
0.78086311
0
0.82738278
0.083653833
0
0.077563685
-0.00025792128
0.070845958
-0.00047145253
0.062604634
-0.00061352308
0.053950136
-0.00067542104
0.045644941
-0.00065778404
0.037494633
-0.00055998922
0.028751069
-0.00039102109
0.019099881
-0.00019418084
0.0093320145
-3.9181468e-05
0.00027909564
0.090181408
0.00056201368
0.096105226
0.00081817878
0.10029092
0.0010183554
0.10359935
0.0011467715
0.10683027
0.0011843063
0.10930127
0.0011085079
0.11121856
0.00089771158
0.11187497
0.00053112207
0.11065839
0
0.11623819
0
0.12815557
-6.0315259e-15
0.14106646
5.8230428e-15
0.15453029
5.6237765e-15
0.16892722
-5.426792e-15
0.18452327
5.2387067e-15
0.20115203
0
0.21879876
0
0.23776615
0
0.25829751
-9.096023e-15
0.2804306
0
0.30375337
0
0.32753396
8.1659984e-15
0.35144939
0
0.37551213
-1.5200817e-14
0.39955714
-7.3305872e-15
0.42337706
1.42645e-18
0.44677317
0
0.46925568
0
0.49046048
1.2686272e-14
0.51104904
0
0.5325595
1.1807118e-14
0.55659156
0
0.58422187
3.6652447e-19
0.61615601
-4.2812579e-19
0.6526261
0
0.69320789
1.97404e-14
0.7368411
0
0.78136142
1.8373337e-14
0.82754664
0.090217509
0
0.083507446
-0.00026862702
0.077344517
-0.00050215672
0.070582952
-0.00067242563
0.062287413
-0.00075641616
0.05361311
-0.00075442403
0.045375626
-0.00067416472
0.037338166
-0.00052116985
0.028667657
-0.00031568497
0.019087767
-0.00011540494
0.0093620659
0
0.00028798894
0.096413364
0.00057239639
0.10091707
0.00082378921
0.10462824
0.0010239337
0.10833104
0.0011535392
0.11136234
0.0011902955
0.11390007
0.0011116362
0.11519969
0.00089412262
0.11470615
0.00052649677
0.11315494
0
0.11982741
0
0.13200604
0
0.14465708
5.6214012e-15
0.15817744
5.4291077e-15
0.17285688
0
0.1885243
-1.5175234e-14
0.20512305
-4.8812686e-15
0.22293155
0
0.24215992
0
0.2629184
1.7553277e-14
0.2851867
0
0.30842218
-8.1678142e-15
0.33191716
0
0.35552608
-7.6023658e-15
0.37924252
-7.3323761e-15
0.40286657
7.0701632e-15
0.42623319
0
0.44918505
0
0.47119821
0
0.49182161
-1.2239437e-14
0.51183067
0
0.53301566
0
0.55694955
-2.0731921e-19
0.58465573
0
0.61672409
-3.5699668e-19
0.65332962
0
0.69390501
0
0.73744132
0
0.78166704
-1.1719832e-19
0.82762908
0.096477411
0
0.090083138
-0.00027819499
0.083223574
-0.00052275004
0.076982326
-0.00071611167
0.070202091
-0.00082942335
0.06187331
-0.00084502332
0.053209405
-0.00077267721
0.045072112
-0.00062712176
0.037170119
-0.00042078383
0.028575263
-0.00018747898
0.019066255
0
0.0085446626
0
0.00029329846
0.10126909
0.00057634206
0.10534847
0.0008284117
0.10949382
0.0010301821
0.11305595
0.001159646
0.11618469
0.0011937579
0.11810705
0.0011071484
0.11827164
0.00088633472
0.11750318
0.00052238202
0.11613476
-6.0340247e-15
0.1234479
0
0.13537885
0
0.14807397
-2.356672e-18
0.16188553
2.2447869e-18
0.1766333
-5.059247e-15
0.19223815
4.8835248e-15
0.20896995
4.7136348e-15
0.22701195
0
0.24643006
0
0.26740133
-3.6921555e-18
0.28977666
0
0.31279677
-7.8810565e-15
0.33597246
-7.6044526e-15
0.35928941
-7.334357e-15
0.3826502
-1.7743828e-18
0.40584492
-6.821843e-15
0.42877268
-6.5780912e-15
0.45131896
0
0.47289161
0
0.49297409
-6.4968467e-19
0.51246549
0
0.53334719
0
0.55720904
0
0.58494356
0
0.6171787
9.8670115e-15
0.65385647
-9.5199127e-15
0.69446495
0
0.73784602
1.7723943e-14
0.78183959
0.0075759027
0.8199999
0.10134936
0
0.096353453
-0.0002871925
0.089783183
-0.00054130616
0.082768115
-0.00074511143
0.076483807
-0.00088328888
0.069705972
-0.00092704032
0.061364695
-0.00086545736
0.052738257
-0.00071807834
0.044733949
-0.00050600819
0.036990467
-0.00024994139
0.028465024
0
0.017510241
0
0.0091489313
-2.5161855e-14
0.00029532848
0.10576041
0.00057963627
0.11031347
0.00083364187
0.11437667
0.0010358946
0.11806665
0.0011630929
0.12058771
0.0011889492
0.12139753
0.0010976043
0.12134475
0.00087974317
0.12081137
0.00051918565
0.11912954
0
0.1266136
0
0.13857824
0
0.15156736
-2.2571602e-18
0.16544342
2.0525573e-18
0.18010401
-4.883751e-15
0.19582153
-1.9642833e-18
0.21277153
-4.547834e-15
0.23096196
0
0.25056687
0
0.27175416
0
0.29406916
0
0.31680179
-7.6039761e-15
0.33970772
0
0.36274229
1.9507699e-18
0.38572956
0
0.4085014
0
0.43101969
0
0.4531867
0
0.47436262
0
0.49394537
-1.1388725e-14
0.51295888
0
0.53358136
0
0.5573319
-1.0224946e-14
0.5851196
9.8652905e-15
0.61747064
1.9036684e-14
0.65427288
-2.7550439e-14
0.69485375
0
0.73807313
0.014832065
0.77466109
0.006898904
0.81294138
0.10586445
0
0.10122286
-0.00029255632
0.096044008
-0.00055894513
0.089275188
-0.00077148609
0.082145808
-0.00091867763
0.075853056
-0.00098737353
0.069097306
-0.00095004739
0.060759582
-0.00080411423
0.052199596
-0.00057872513
0.044363233
-0.00030044095
0.036782766
0
0.026348201
0
0.018710295
-1.2143858e-14
0.0097966624
1.2581793e-14
0.00029703927
0.11078855
0.0005834068
0.11532074
0.00083842403
0.11953907
0.0010390533
0.12263365
0.0011584794
0.12407054
0.0011788007
0.12471384
0.0010897231
0.1249506
0.00087437862
0.12412452
0.00051454914
0.12167651
0
0.12961501
0
0.14186245
0
0.15491519
0
0.16868276
1.9683898e-18
0.18344
0
0.19936872
-9.0985281e-15
0.21643436
4.3913228e-15
0.23474427
0
0.25458939
-1.6350372e-14
0.27587964
-3.1693318e-18
0.29799521
0
0.32046231
0
0.3431454
7.0755155e-15
0.36588139
0
0.38848842
-1.4078695e-18
0.41085644
0
0.43298576
0
0.45481306
0
0.47562153
0
0.49475742
0
0.51333073
0
0.53369615
-1.0223474e-14
0.55735634
0
0.58513665
0
0.61766458
-1.2973427e-19
0.65455436
-1.772115e-14
0.6950432
0.021693645
0.73127226
0.013507185
0.76799952
0.006174608
0.80645479
0.11091964
0
0.10573435
-0.00029459754
0.10089204
-0.00056952356
0.095498689
-0.00079684226
0.08856602
-0.00095102687
0.081359648
-0.0010264789
0.075092316
-0.0010121011
0.068374662
-0.00088330411
0.060061493
-0.00064791716
0.051596282
-0.00034313038
0.043942753
0
0.034329416
0
0.028154471
0
0.019988177
1.2151588e-14
0.010494543
-6.6458318e-18
0.00029901914
0.11588437