/*--------------------------------*- C++ -*----------------------------------*\
| =========                 |                                                 |
| \\      /  F ield         | OpenFOAM: The Open Source CFD Toolbox           |
|  \\    /   O peration     | Version:  v2012                                 |
|   \\  /    A nd           | Website:  www.openfoam.com                      |
|    \\/     M anipulation  |                                                 |
\*---------------------------------------------------------------------------*/
FoamFile
{
    version     2.0;
    format      ascii;
    class       volScalarField;
    location    "89.9137842149523294";
    object      p;
}
// * * * * * * * * * * * * * * * * * * * * * * * * * * * * * * * * * * * * * //

dimensions      [0 2 -2 0 0 0 0];


internalField   nonuniform List<scalar> 
9200
(
0.0038276311
0.0039877233
0.003417172
0.0038496393
0.0040097754
0.0077998252
0.0038574685
0.0045880283
0.008389604
0.01036086
0.0036290048
0.0056731728
0.0090449105
0.011035541
0.012956398
0.0034048008
0.006915526
0.010149658
0.011869115
0.013806988
0.015127513
0.0030310705
0.008393055
0.011345925
0.013135347
0.01468751
0.015950738
0.016953522
0.002509059
0.0098915375
0.012689166
0.014557635
0.016043016
0.016958422
0.017759082
0.018371131
0.0019494119
0.011353785
0.014039245
0.016149525
0.017588616
0.018417329
0.018889934
0.019182584
0.019413153
0.0010413913
0.01257598
0.015339881
0.017784908
0.019270096
0.020120368
0.020445614
0.020431626
0.020241239
0.020087285
-0.00026307913
0.01375
0.016560854
0.019394325
0.021012515
0.021938797
0.022310177
0.022089237
0.021600021
0.020933602
0.020410251
-0.0015824479
0.015190099
0.017770823
0.020959375
0.022710146
0.023838701
0.02427806
0.024130399
0.023366699
0.022391294
0.021269493
0.020398789
-0.0030130658
0.016564743
0.019036322
0.022463825
0.024351296
0.025675969
0.026348694
0.026282792
0.025595605
0.024267843
0.022810607
0.021260861
0.020075406
-0.0046096619
0.017627001
0.020298401
0.023941897
0.02589449
0.027431996
0.028342417
0.02857484
0.027964332
0.02668829
0.02478711
0.022863852
0.020925638
0.019466276
-0.0062502804
0.018464219
0.02151024
0.025371943
0.027342997
0.029033933
0.030229817
0.030796557
0.030529468
0.029296279
0.027389535
0.024918492
0.022562531
0.020286845
0.018603118
-0.0077932351
0.019091144
0.022658687
0.026752552
0.028687522
0.030464757
0.031908306
0.032908762
0.033060464
0.032179344
0.030241702
0.02767723
0.024661657
0.021924374
0.019373226
0.0175204
-0.0090287437
0.019537944
0.023704371
0.028095113
0.029941171
0.03170178
0.033332982
0.034780529
0.03551469
0.035098304
0.033466288
0.030755519
0.027534015
0.024024033
0.020974047
0.018218048
0.016255985
-0.0097171109
0.019940504
0.024607806
0.029435074
0.031127528
0.032747772
0.034451439
0.036336961
0.037742456
0.038016583
0.036826857
0.034314122
0.030795274
0.026951765
0.023022372
0.019742796
0.016858631
0.014848381
-0.0097408688
0.020398653
0.025255824
0.030862046
0.032287115
0.033617191
0.035232567
0.037489083
0.039648696
0.040777003
0.04030435
0.038129874
0.034645714
0.030329741
0.025934985
0.021683136
0.018267485
0.015334672
0.013337092
-0.010075675
0.021346562
0.025389719
0.032435775
0.033472284
0.034346098
0.035659372
0.038157289
0.041119093
0.043278366
0.043749673
0.042211362
0.03888223
0.034396429
0.029344513
0.024502183
0.020041485
0.016589283
0.013687279
0.011760294
-0.01107836
0.022834424
0.025221872
0.034395097
0.034710208
0.034976794
0.035729326
0.038276515
0.042034491
0.045391889
0.047067412
0.046432691
0.043545888
0.038972552
0.033523944
0.027845157
0.022685161
0.018139919
0.014752033
0.011957184
0.010154835
-0.012379997
0.024050529
0.026202217
0.036394264
0.036086176
0.03557041
0.035455159
0.037769733
0.04230189
0.046991415
0.050106721
0.050729904
0.04853823
0.044133495
0.038319094
0.032014122
0.025857012
0.02052747
0.016026043
0.012800411
0.010183873
0.0085535085
-0.013686211
0.024798825
0.027660708
0.03751078
0.037568671
0.036184649
0.034873085
0.036581901
0.041719727
0.048053376
0.052710786
0.055009216
0.053824118
0.049811368
0.043837959
0.036878532
0.029881418
0.02342351
0.01808154
0.013750306
0.010778401
0.0084040378
0.0069868839
-0.014851268
0.025134878
0.028105419
0.038836072
0.039126629
0.036861076
0.034020217
0.034654474
0.040232512
0.048160028
0.054990425
0.059243792
0.059334306
0.056004803
0.050042374
0.042574357
0.034648375
0.027167319
0.020602451
0.015405615
0.011363753
0.008727921
0.0066513215
0.0054846519
-0.015872
0.024668865
0.027746031
0.041304077
0.040905351
0.037668396
0.032950757
0.031919823
0.03776027
0.047261169
0.056825522
0.06296054
0.064997476
0.062675919
0.056964428
0.049090021
0.040315074
0.031665369
0.023935636
0.017461857
0.012560532
0.0089161086
0.0066879842
0.0049560439
0.0040691036
-0.016781699
0.023619944
0.026780814
0.044480582
0.042998481
0.038616195
0.031726467
0.028317986
0.034094539
0.045420663
0.057647605
0.066371959
0.070696027
0.069786951
0.064597373
0.056485511
0.046890185
0.037087714
0.027999467
0.020266735
0.014075266
0.0096069268
0.0064542549
0.0046935331
0.0033441329
0.0027481911
-0.017300988
0.022196174
0.025100287
0.048306268
0.04536389
0.039676351
0.030405094
0.023774905
0.029084261
0.042285291
0.057387453
0.069567948
0.076401003
0.077290375
0.072938169
0.064780875
0.054454413
0.043455785
0.032968316
0.023746429
0.016250924
0.01051769
0.006602825
0.0040208968
0.0027748209
0.001835604
0.0015443219
-0.017360916
0.020505638
0.02253127
0.052532988
0.047889733
0.04079003
0.029037993
0.018208297
0.022532495
0.037673907
0.056080442
0.072057138
0.082057104
0.085143728
0.081967495
0.07399957
0.06304706
0.050861415
0.038867879
0.028071337
0.019018093
0.011982412
0.0068619457
0.0036017396
0.0016537803
0.00095794622
0.00044811013
0.00050589432
-0.01751896
0.018525403
0.019159454
0.057155881
0.050426233
0.041824521
0.027640492
0.011534649
0.01421079
0.031385965
0.053462058
0.073774025
0.087515055
0.09328155
0.091655045
0.0841443
0.072709644
0.059353525
0.04579011
0.033262805
0.022536349
0.013934051
0.0075539275
0.0031758427
0.00065155549
-0.00061460143
-0.00073472814
-0.0008006942
-0.00039701188
-0.018028255
0.016156713
0.015210532
0.061481941
0.052854836
0.042659516
0.026219554
0.0036810708
0.0038459195
0.023197824
0.049315581
0.074550859
0.092658742
0.1016141
0.10194511
0.095196317
0.083459664
0.068982111
0.053782148
0.039401926
0.026815862
0.016516594
0.0086134613
0.0030523968
-0.00047969128
-0.0022061792
-0.0027568261
-0.0022869732
-0.0019020594
-0.0012901949
-0.018761852
0.013197391
0.011586938
0.065403511
0.054953161
0.043134432
0.024734682
-0.0054532249
-0.0088872025
0.012816741
0.043378067
0.074222425
0.097351483
0.11002888
0.11275154
0.10710455
0.095288008
0.079771473
0.062891577
0.046522371
0.031916695
0.019724197
0.010166727
0.003168739
-0.001444017
-0.0040516726
-0.0049364461
-0.0047508975
-0.0036885262
-0.0028578032
-0.0020733156
-0.02002679
0.0091144688
0.0082928757
0.06771144
0.056281089
0.043079502
0.022969943
-0.015981786
-0.024429422
-0.00010449691
0.03529861
0.072498476
0.10145423
0.11839014
0.12395381
0.11977949
0.10814785
0.091718318
0.073138927
0.054654746
0.037846379
0.023588109
0.012190121
0.0036334279
-0.0022994783
-0.0058676023
-0.0074953748
-0.0075107924
-0.006580193
-0.0049291613
-0.0036591333
-0.0025822734
-0.021731692
0.0037882831
0.003815579
0.068686356
0.056209651
0.042111129
0.020874886
-0.027807728
-0.04311989
-0.015999345
0.024789667
0.069109398
0.10474144
0.12654262
0.1353948
0.13308628
0.12194624
0.10477828
0.084518051
0.063801987
0.044604733
0.028080334
0.014682063
0.004406538
-0.0029525677
-0.0077046927
-0.010161581
-0.010774264
-0.0099066654
-0.0082324891
-0.0059987039
-0.0042929241
-0.0028337818
-0.024085817
-0.0021647858
-0.0018738719
0.068342451
0.054970189
0.039793118
0.018389587
-0.040360694
-0.064900407
-0.034983129
0.011586351
0.063714137
0.10711363
0.13428518
0.14688297
0.14684117
0.13653734
0.1188581
0.096983114
0.073942955
0.052160318
0.033155922
0.017573069
0.0054543943
-0.0034547096
-0.0094802515
-0.012975545
-0.014279937
-0.013859304
-0.012106807
-0.0096988985
-0.0068939601
-0.0047751984
-0.0028877763
-0.027340658
-0.0088926895
-0.0079839196
0.066090872
0.051207829
0.03677695
0.015431243
-0.054363551
-0.089910524
-0.057034442
-0.004260714
0.055969674
0.10819211
0.14142567
0.15818227
0.16081339
0.15171786
0.13380846
0.1104416
0.085018619
0.060457179
0.038731097
0.020762902
0.0066655347
-0.0038664607
-0.011250094
-0.015860167
-0.018055317
-0.01818638
-0.016728244
-0.014099021
-0.010973951
-0.007616164
-0.0051192771
-0.0028365085
-0.030823117
-0.016427684
-0.014195139
0.060651032
0.045317117
0.032241649
0.011341908
-0.068796195
-0.11765117
-0.08219327
-0.022684711
0.045503854
0.10781449
0.1477377
0.16904287
0.17472257
0.16722895
0.14941837
0.12474532
0.096930295
0.069404231
0.044692241
0.024100033
0.0078807544
-0.0043350389
-0.013092008
-0.018867092
-0.022023679
-0.022900473
-0.021853268
-0.019364715
-0.015876008
-0.012056361
-0.0081658999
-0.0053106928
-0.0027171784
-0.033669776
-0.024257516
-0.020002832
0.051802752
0.035527091
0.02691965
0.0067052606
-0.08433588
-0.14584078
-0.1099894
-0.042762244
0.032252724
0.10569682
0.15289429
0.17914105
0.18826095
0.18275844
0.16541722
0.13968641
0.10952858
0.078878101
0.050889509
0.027391785
0.0088730673
-0.0050729939
-0.015176318
-0.022078969
-0.026223762
-0.027920582
-0.027478586
-0.025260206
-0.021757533
-0.017433746
-0.012948662
-0.0085549366
-0.0053643113
-0.002523932
-0.034953508
-0.031685161
-0.025742206
0.039005964
0.02153965
0.018608867
0.0018972477
-0.097978844
-0.17410162
-0.14200371
-0.065050047
0.016049182
0.10180859
0.15660983
0.18821888
0.20107712
0.19796044
0.18147755
0.15499736
0.12261198
0.088711834
0.057145234
0.030399247
0.0093525097
-0.0063815481
-0.017754787
-0.025672116
-0.030729569
-0.033264741
-0.033515645
-0.031766163
-0.028392864
-0.023900016
-0.018770444
-0.013653111
-0.0087894443
-0.0052824402
-0.0022466052
-0.034657348
-0.037954058
-0.032704551
0.022701604
0.0032478704
0.0059248772
-0.0048871636
-0.11193672
-0.19983657
-0.17913593
-0.090975467
-0.0044620612
0.096084536
0.15874384
0.19588823
0.21285165
0.21245471
0.19723482
0.17035158
0.13592463
0.098700553
0.063241467
0.032849039
0.0089649268
-0.0086507549
-0.02118742
-0.02991568
-0.035704231
-0.038985712
-0.039956035
-0.038785082
-0.035746916
-0.03124181
-0.025789235
-0.019888961
-0.014174634
-0.0088785431
-0.0050747177
-0.0018851282
-0.032919885
-0.042756153
-0.041549905
0.0040179964
-0.019357894
-0.011447428
-0.013880829
-0.1259181
-0.22988919
-0.21832036
-0.1228391
-0.027996072
0.088368187
0.15913582
0.20198374
0.22319436
0.22587984
0.21228851
0.18538351
0.14915387
0.10859236
0.068939368
0.034426593
0.0073008094
-0.012362243
-0.025949484
-0.035200807
-0.041408036
-0.045214782
-0.046820578
-0.046278463
-0.043713666
-0.039410223
-0.033801694
-0.027424772
-0.020793638
-0.014519515
-0.0088288743
-0.0047505733
-0.0014529958
-0.046375538
-0.029819616
-0.051610331
-0.01673192
-0.045355547
-0.033238798
-0.024480244
-0.1406968
-0.25996567
-0.26432268
-0.16152599
-0.049625513
0.079021622
0.15779975
0.20606574
0.23190769
0.23784154
0.22625662
0.19968606
0.1619497
0.11809236
0.073957667
0.034803722
0.0038919466
-0.018091705
-0.032640445
-0.04205651
-0.048228583
-0.052176591
-0.054193117
-0.054229175
-0.05222269
-0.048292073
-0.042749408
-0.036070721
-0.028809537
-0.021491166
-0.014696258
-0.0086478543
-0.0043189039
-0.00093710166
-0.061516835
-0.04949557
-0.026395289
-0.03993205
-0.073841981
-0.058622917
-0.036215778
-0.15672161
-0.29035656
-0.31015339
-0.20940933
-0.070665429
0.069420294
0.15501049
0.20856332
0.23848644
0.24810649
0.23872495
0.21286982
0.17391475
0.12687341
0.078001077
0.03360723
-0.0017591074
-0.026508934
-0.041999844
-0.051164202
-0.056704748
-0.060219142
-0.062239257
-0.062660326
-0.061219402
-0.057786512
-0.052513991
-0.045759862
-0.038049928
-0.029948744
-0.021989191
-0.014714001
-0.0083433834
-0.0037880739
-0.00029665605
-0.065456735
-0.069244939
-0.051416686
-0.023538232
-0.10420342
-0.085904284
-0.049112888
-0.17330788
-0.32066556
-0.35677781
-0.2568919
-0.099128302
0.051958727
0.15201263
0.20872427
0.24338961
0.25621589
0.24943617
0.2245006
0.18466771
0.13456451
0.080739266
0.030487279
-0.010206278
-0.038363593
-0.054910778
-0.063384081
-0.067542538
-0.069841576
-0.07123449
-0.07166223
-0.070654706
-0.067801635
-0.062969458
-0.056374959
-0.04844103
-0.039742886
-0.030849728
-0.022296396
-0.014581975
-0.0079235516
-0.0031661225
0.00044849661
-0.13546644
-0.092287575
-0.073521675
-0.051183595
-0.02109667
-0.11346901
-0.062829681
-0.18992885
-0.34896053
-0.40208216
-0.30407504
-0.13344042
0.028286653
0.1401828
0.20882228
0.24526162
0.26240784
0.25791832
0.23430972
0.19376658
0.14081317
0.081833053
0.025032389
-0.021969226
-0.054496494
-0.072413554
-0.079772721
-0.081651796
-0.081711108
-0.081590127
-0.081412781
-0.080536369
-0.078218159
-0.073985015
-0.067769368
-0.059872325
-0.050794591
-0.041155482
-0.031521012
-0.022421989
-0.014309904
-0.0073976235
-0.0024622302
0.001255891
-0.14027163
-0.1670488
-0.1180368
-0.073788081
-0.049103614
-0.018827233
-0.07808383
-0.20634863
-0.37297484
-0.44352989
-0.34937464
-0.17079332
0.0011758122
0.12420635
0.20122134
0.24745503
0.26554981
0.26440291
0.24177077
0.20094741
0.14519443
0.080953187
0.016912448
-0.037669188
-0.075776398
-0.095710227
-0.10161792
-0.1001788
-0.096706187
-0.093882018
-0.092197854
-0.09092902
-0.08895594
-0.085385258
-0.079778528
-0.072181958
-0.063005555
-0.052824542
-0.042295063
-0.031971623
-0.022376061
-0.013908962
-0.006776239
-0.0016852199
0.0021189136
-0.095914504
-0.16628605
-0.19698937
-0.14138247
-0.069549222
-0.045405887
-0.01644891
-0.21904438
-0.39064595
-0.47828178
-0.39076761
-0.20905957
-0.028044724
0.10412483
0.19048517
0.24181669
0.26844159
0.26757661
0.24718331
0.20563166
0.14747456
0.077727123
0.005726896
-0.057726272
-0.1032099
-0.12615999
-0.13045592
-0.12453592
-0.11594949
-0.10889401
-0.10445646
-0.10197875
-0.099957462
-0.097002198
-0.092182169
-0.085184775
-0.076205238
-0.065775343
-0.054536039
-0.043169586
-0.032211827
-0.022171131
-0.013391813
-0.006068933
-0.00084171059
0.0030321999
-0.2248846
-0.11567556
-0.1906182
-0.22455797
-0.16120105
-0.061035092
-0.0396591
-0.01361391
-0.39983403
-0.50346177
-0.42593555
-0.24541912
-0.058913895
0.081343144
0.17507641
0.23557236
0.26402779
0.27058724
0.24898655
0.20818934
0.14704651
0.071962134
-0.008811579
-0.082825731
-0.13760307
-0.16531665
-0.16810365
-0.15646797
-0.14083399
-0.1276042
-0.1188471
-0.11390938
-0.11121275
-0.10865922
-0.10473385
-0.098621006
-0.090199299
-0.079836247
-0.06818319
-0.055934745
-0.043788693
-0.03225543
-0.021822153
-0.012768954
-0.0052812628
6.2539328e-05
0.0039873784
-0.39883697
-0.22278301
-0.13551564
-0.21029774
-0.24448351
-0.17676569
-0.050215252
-0.030751803
-0.0098865927
-0.51650146
-0.45254149
-0.27712462
-0.0900949
0.055468277
0.1566931
0.22365945
0.26105786
0.26572246
0.25082726
0.20681417
0.14437879
0.063099224
-0.02697388
-0.11315292
-0.18024274
-0.21479452
-0.21669387
-0.19804942
-0.17317278
-0.15117644
-0.136204
-0.12718858
-0.12277196
-0.12019374
-0.11715142
-0.11218463
-0.10470044
-0.094813769
-0.083070895
-0.070230675
-0.057028452
-0.044166901
-0.03211982
-0.021340937
-0.012043951
-0.0044173258
0.0010169498
0.0049749216
-0.51550329
-0.38598959
-0.2136336
-0.15214787
-0.22279697
-0.25743181
-0.18725736
-0.039870542
-0.018406314
-0.0054242022
-0.46857825
-0.30167067
-0.12026025
0.027095755
0.13419602
0.20843627
0.25222251
0.26608416
0.24461146
0.20572529
0.13741317
0.051706413
-0.049098635
-0.14943776
-0.23144738
-0.2767413
-0.27875505
-0.25180768
-0.21504004
-0.1815296
-0.15677835
-0.14229673
-0.1348026
-0.13146254
-0.12913016
-0.12550618
-0.11936192
-0.11040771
-0.099016156
-0.085904027
-0.071921794
-0.057831305
-0.044323688
-0.031818028
-0.020728818
-0.011218196
-0.0034910847
0.0020035582
0.0059884175
-0.47234436
-0.4990531
-0.36181922
-0.19979019
-0.16327542
-0.22647502
-0.26283504
-0.19223404
-0.031276336
-0.0036247548
-0.00022933388
-0.31719729
-0.14803603
-0.0033272891
0.10776528
0.18860225
0.23882998
0.25986914
0.24766272
0.1970854
0.13098167
0.035592263
-0.074791358
-0.19150581
-0.29311398
-0.35247044
-0.35724109
-0.32080475
-0.26896177
-0.22049401
-0.18335711
-0.15985875
-0.14757036
-0.14238717
-0.14034691
-0.13816
-0.13374947
-0.12624961
-0.11572012
-0.10279107
-0.088332821
-0.073268412
-0.058363991
-0.044272936
-0.031348345
-0.019984048
-0.010311795
-0.0025322966
0.0030110508
0.0070308827
-0.32285045
-0.46309511
-0.46812366
-0.32719786
-0.18142513
-0.16954934
-0.22226895
-0.2611257
-0.19207598
-0.024242442
0.012554473
0.0051215949
-0.17242051
-0.035049025
0.077276773
0.16365926
0.22086387
0.24720366
0.24382934
0.20219484
0.118411
0.02010389
-0.10579335
-0.2400591
-0.36431325
-0.44578604
-0.4553782
-0.40863934
-0.33796386
-0.27033504
-0.21677547
-0.18124676
-0.16151122
-0.152973
-0.15050011
-0.14966791
-0.14734476
-0.14186542
-0.13281173
-0.12060741
-0.10612456
-0.090363754
-0.074290687
-0.058640328
-0.044009133
-0.030705092
-0.019133843
-0.009374243
-0.0015592063
0.0040599059
0.008162872
-0.19302734
-0.31935821
-0.44156386
-0.42437193
-0.28451478
-0.15844279
-0.17020249
-0.21323905
-0.2532289
-0.18718981
-0.018042896
0.028071904
0.010199238
-0.06729116
0.042837437
0.13317703
0.19666335
0.2296667
0.23137221
0.20021382
0.12464378
0.0013268274
-0.13709676
-0.29484894
-0.44840521
-0.55566817
-0.57835441
-0.52010231
-0.4262203
-0.33285824
-0.25891499
-0.20755929
-0.17738222
-0.16336074
-0.15933301
-0.15953187
-0.15954704
-0.15667578
-0.14980239
-0.13899719
-0.12503846
-0.10901308
-0.092013456
-0.075000725
-0.058649766
-0.043521872
-0.029924415
-0.018250786
-0.008433182
-0.00052806099
0.0052621209
0.0093839326
-0.099577042
-0.20967261
-0.31042316
-0.40834209
-0.37167194
-0.23658967
-0.13152116
-0.16275798
-0.20125273
-0.24036748
-0.17761026
-0.011357439
0.041558432
0.015978455
0.0046714609
0.096583869
0.16542394
0.20519379
0.21283467
0.18767622
0.12362396
0.00700089
-0.16610449
-0.35431561
-0.54070659
-0.68987948
-0.72704535
-0.66004014
-0.53837035
-0.41337405
-0.31207001
-0.24026203
-0.19603445
-0.17388768
-0.1666818
-0.16725806
-0.16969927
-0.16999508
-0.16608423
-0.15748123
-0.14474952
-0.12899286
-0.11146503
-0.093289528
-0.075381221
-0.058376072
-0.04285692
-0.029107233
-0.017374389
-0.0074009402
0.00074933367
0.0065492303
0.01067163
-0.037103168
-0.13186953
-0.22050717
-0.29940918
-0.36574978
-0.31526217
-0.18690442
-0.1017613
-0.14730767
-0.18727187
-0.22253381
-0.166065
-0.0029999473
0.053437894
0.022207327
0.053380554
0.12602082
0.17188498
0.18686744
0.16729793
0.11037807
0.0057193482
-0.16528738
-0.40051618
-0.64907698
-0.83786755
-0.91333568
-0.8330672
-0.67909924
-0.51457287
-0.37910375
-0.28125199
-0.21859477
-0.18506547
-0.17252612
-0.17240218
-0.17711004
-0.1810519
-0.18092663
-0.17545439
-0.16480932
-0.15002182
-0.13246378
-0.11347918
-0.094165252
-0.075408592
-0.057875235
-0.042146564
-0.028306505
-0.016368381
-0.005954065
0.0020918653
0.0079111955
0.012023208
0.0028927585
-0.082812006
-0.16272224
-0.22472761
-0.28579006
-0.31990148
-0.25985737
-0.13899055
-0.070473009
-0.12610394
-0.17199151
-0.20450331
-0.15154568
0.0059412031
0.063065364
0.028457895
0.076926277
0.128134
0.15060517
0.13856572
0.087512387
-0.0090745431
-0.16966938
-0.41493357
-0.72533708
-1.0222125
-1.1221299
-1.0483987
-0.85621541
-0.64229826
-0.46261901
-0.3323065
-0.24648741
-0.19766253
-0.17702207
-0.17462246
-0.18109683
-0.18900724
-0.19349178
-0.19218002
-0.18464349
-0.17170016
-0.15478196
-0.13543459
-0.11501547
-0.094607389
-0.07514869
-0.057313852
-0.041459238
-0.027323942
-0.014741324
-0.0044515075
0.0035253614
0.009338293
0.013438997
0.016394491
-0.056292
-0.13192579
-0.19207999
-0.22800925
-0.26787846
-0.27576079
-0.20744419
-0.094957698
-0.039384719
-0.10130381
-0.15801781
-0.18337342
-0.13590667
0.015330714
0.06967283
0.034135126
0.071446229
0.10179416
0.098437981
0.055006037
-0.035374174
-0.18726468
-0.4307323
-0.77680991
-1.1570906
-1.3907881
-1.289436
-1.0671992
-0.80165025
-0.56878737
-0.39603387
-0.2810627
-0.21269382
-0.18057174
-0.17373189
-0.18103933
-0.19299553
-0.20284914
-0.20680169
-0.20354505
-0.19350794
-0.17808228
-0.15898831
-0.13784616
-0.11602751
-0.094690224
-0.074803816
-0.056776986
-0.040529325
-0.025447696
-0.013068468
-0.0028423693
0.0050247095
0.010832757
0.014918075
-0.00099847375
-0.058489728
-0.12463358
-0.18519878
-0.22132116
-0.23474682
-0.24767805
-0.23357428
-0.15389481
-0.055062636
-0.011386415
-0.079830158
-0.14147457
-0.16012124
-0.11998009
0.024270122
0.072273567
0.038787171
0.037476833
0.04419004
0.0099609604
-0.072776992
-0.21820184
-0.45654568
-0.82333941
-1.2939079
-1.6228756
-1.6043503
-1.3030295
-0.97896899
-0.69655779
-0.4767413
-0.32469263
-0.23131572
-0.18383608
-0.16977086
-0.17643983
-0.19217433
-0.20801318
-0.2183542
-0.22068322
-0.21479843
-0.20191801
-0.18387554
-0.16255419
-0.13963367
-0.11659499
-0.094651848
-0.074476645
-0.055923976
-0.03837705
-0.023521809
-0.011264626
-0.0011736108
0.0065972748
0.012392853
0.016459448
-0.045957678
-0.093330628
-0.15000248
-0.20386486
-0.24321149
-0.25213012
-0.24277585
-0.22881718
-0.19482883
-0.11327197
-0.021820886
0.015549641
-0.064689843
-0.12236271
-0.1348616
-0.10506473
0.031156801
0.070398036
0.043449224
-0.027113296
-0.05039358
-0.12391099
-0.26185283
-0.49750372
-0.87331417
-1.417777
-1.922917
-1.9269189
-1.6242196
-1.1862103
-0.8346213
-0.57151298
-0.3799794
-0.25546315
-0.18775979
-0.16306361
-0.16699923
-0.18578579
-0.20798662
-0.22579786
-0.23511183
-0.23480492
-0.22572724
-0.20973646
-0.18895338
-0.16538846
-0.14087707
-0.11698991
-0.094612802
-0.073747655
-0.053451031
-0.036152054
-0.021439679
-0.0094070131
0.00056972107
0.008239424
0.014017489
0.01806177
-0.11894288
-0.15393234
-0.21022321
-0.26177762
-0.29529864
-0.30571981
-0.28476007
-0.25056772
-0.21390377
-0.16435456
-0.081444686
0.0085276436
0.036021462
-0.049871737
-0.10100866
-0.10821662
-0.089479213
0.034263245
0.064714776
0.049046438
-0.1285266
-0.19143852
-0.3202208
-0.55283879
-0.9424669
-1.5361901
-2.205794
-2.3862734
-1.9490457
-1.458541
-0.99670985
-0.67422191
-0.44559313
-0.28694995
-0.19385193
-0.15426143
-0.15270612
-0.17323825
-0.20182213
-0.22805555
-0.24580047
-0.25264738
-0.24883849
-0.23611207
-0.21677944
-0.19318672
-0.16756349
-0.14187816
-0.11735013
-0.094071763
-0.070928398
-0.050851644
-0.033739965
-0.019315177
-0.0074707457
0.0023822465
0.0099497825
0.015704735
0.01972364
-0.22682352
-0.23666634
-0.29094604
-0.35754084
-0.39645175
-0.40004289
-0.37318234
-0.31863038
-0.25967267
-0.20477988
-0.14218395
-0.051798507
0.029970235
0.054047432
-0.034318011
-0.07764135
-0.082000582
-0.070269231
0.03355622
0.057351605
0.052344778
-0.27723264
-0.39581378
-0.62288211
-1.0296528
-1.6791982
-2.4998786
-2.875995
-2.4737504
-1.7722605
-1.1967316
-0.78942844
-0.51851051
-0.32636153
-0.2036467
-0.1445137
-0.13386834
-0.15420173
-0.1887011
-0.22407096
-0.25166659
-0.26736201
-0.2704758
-0.26244936
-0.24568669
-0.22286289
-0.19662898
-0.16940424
-0.14279071
-0.11709165
-0.090888071
-0.067883891
-0.048032734
-0.031298476
-0.017110728
-0.0054642718
0.0042632019
0.011725182
0.01745267
0.02144389
-0.38216415
-0.34934887
-0.38340339
-0.46425999
-0.53926335
-0.55582681
-0.51905484
-0.4473238
-0.35536695
-0.27323979
-0.20077819
-0.11908691
-0.028250705
0.048167977
0.066705696
-0.019169483
-0.054122066
-0.059616595
-0.049016657
0.030593291
0.04911303
0.052577281
-0.49019244
-0.70945765
-1.1307055
-1.8444168
-2.8245371
-3.4687259
-3.0845683
-2.2700334
-1.4505242
-0.92040729
-0.59535746
-0.37284571
-0.21880143
-0.13517508
-0.11130033
-0.1286427
-0.16802455
-0.21287916
-0.25162787
-0.27792643
-0.28978402
-0.28810604
-0.27525705
-0.25418832
-0.22800569
-0.19961961
-0.17107802
-0.14294883
-0.11354479
-0.087318864
-0.064585051
-0.045201
-0.028775109
-0.014837812
-0.0033880169
0.006208658
0.013562725
0.019260309
0.023220964
-0.60281808
-0.50812105
-0.49684832
-0.56587139
-0.67880022
-0.7582778
-0.74142249
-0.65350199
-0.52964085
-0.39829331
-0.29099348
-0.19140795
-0.099588104
-0.007627277
0.061151576
0.072486973
-0.0058668457
-0.035199907
-0.042523113
-0.031220536
0.027565944
0.03981054
0.05015904
-0.81379362
-1.2456533
-2.0181731
-3.1674201
-4.1161209
-3.865191
-2.9053566
-1.87632
-1.1136896
-0.67652232
-0.41941564
-0.24055764
-0.12812127
-0.086126418
-0.097035276
-0.13947452
-0.19369529
-0.24466156
-0.28331197
-0.30587463
-0.3123636
-0.30500277
-0.28688534
-0.26158301
-0.23255182
-0.20233633
-0.17183821
-0.13906588
-0.10936919
-0.083459791
-0.061291761
-0.042286779
-0.026185128
-0.012495724
-0.0012472772
0.0082153416
0.015461346
0.021128183
0.025051393
-0.93371383
-0.73359752
-0.65277841
-0.67387401
-0.78789109
-0.93720938
-1.0157236
-0.95410071
-0.80298273
-0.62160099
-0.44736131
-0.29926987
-0.18254828
-0.081907933
0.0077103322
0.06848471
0.072623009
0.0054197318
-0.022691681
-0.029318844
-0.018661412
0.024452352
0.03043173
0.045551888
-1.3740678
-2.1938659
-3.5168459
-4.7792045
-4.8194478
-3.7300578
-2.4458678
-1.4388295
-0.82416758
-0.46485876
-0.26174025
-0.12634709
-0.059884124
-0.060211034
-0.1031755
-0.16600663
-0.22990207
-0.28252682
-0.31782226
-0.33452886
-0.33440143
-0.32062328
-0.29721933
-0.2682067
-0.23668597
-0.2039503
-0.16767666
-0.13420278
-0.10486807
-0.07962563
-0.05791541
-0.039309192
-0.023526526
-0.010090758
0.00095382696
0.010283588
0.017423543
0.023051136
0.026933483
-1.5084662
-1.0682581
-0.87588056
-0.81846049
-0.88151143
-1.0499418
-1.2386198
-1.3112559
-1.1909468
-0.96323659
-0.72349802
-0.48320815
-0.3051173
-0.17301708
-0.067686811
0.018257424
0.070512968
0.069123997
0.013816973
-0.013963991
-0.019638155
-0.010277893
0.0210577
0.021785331
0.039394543
-2.3698923
-3.8327887
-5.4744475
-5.9058314
-4.7852123
-3.2165375
-1.8755381
-1.0706069
-0.57678127
-0.27923482
-0.12428384
-0.036684796
-0.019164819
-0.059648103
-0.12960172
-0.20673496
-0.27472952
-0.32475503
-0.35381195
-0.36284717
-0.35506453
-0.33473627
-0.30657922
-0.27424733
-0.23948964
-0.1996044
-0.16204581
-0.12897795
-0.10041028
-0.075707676
-0.054479102
-0.036264386
-0.020806724
-0.0076274282
0.0032166709
0.012421361
0.019438755
0.025026336
0.028865194
-2.5396874
-1.6389979
-1.206305
-1.0298988
-1.0031677
-1.1169636
-1.3481374
-1.580075
-1.638859
-1.4409107
-1.1361353
-0.81337616
-0.50963952
-0.30865926
-0.16472443
-0.056809265
0.023937792
0.067972127
0.062935801
0.017929619
-0.007685544
-0.01266105
-0.0050219563
0.017481993
0.014400085
0.032364278
-4.099254
-6.1599383
-7.0356365
-6.0701646
-4.1862427
-2.4626282
-1.3964725
-0.76791866
-0.36182081
-0.11722068
-0.012804284
0.021523314
-0.0094923188
-0.084755118
-0.17468224
-0.25928679
-0.32594499
-0.36953402
-0.38985031
-0.38978306
-0.37395842
-0.3476583
-0.31515242
-0.27867913
-0.23509588
-0.19313239
-0.15601677
-0.12381079
-0.095866642
-0.071732836
-0.050976713
-0.033160707
-0.018030563
-0.0051024735
0.0055552971
0.014612412
0.021503644
0.02704993
0.030844799
-4.2990931
-2.6779702
-1.7524393
-1.3467067
-1.1909719
-1.2009789
-1.3734086
-1.6744891
-1.9443393
-1.9877581
-1.702704
-1.3014739
-0.87697998
-0.53543019
-0.31129241
-0.15751813
-0.04966214
0.025027888
0.061415115
0.054568633
0.018639478
-0.0037811964
-0.0079033291
-0.0020618157
0.013857255
0.008669583
0.025313691
-6.7219659
-8.1333113
-7.4664234
-5.3519324
-3.2245212
-1.8207118
-1.0200526
-0.51100019
-0.17417778
0.017761725
0.064176972
0.042994225
-0.031988819
-0.13394529
-0.23559323
-0.3208178
-0.38114754
-0.41492283
-0.42451128
-0.41473458
-0.39142255
-0.35954619
-0.32177111
-0.2744195
-0.22772209
-0.18622291
-0.15005204
-0.11855258
-0.091267359
-0.067692283
-0.047417279
-0.03000308
-0.015192699
-0.0024936578
0.0079463824
0.016852634
0.023613699
0.029119163
0.032870119
-7.055859
-4.4113109
-2.7605244
-1.8569006
-1.4808578
-1.3510547
-1.4029296
-1.6396224
-2.013303
-2.3257015
-2.3359542
-1.9666126
-1.416727
-0.9286744
-0.5585335
-0.31227798
-0.15193265
-0.046251948
0.021839391
0.051767374
0.044688353
0.016647171
-0.0018226823
-0.0050048656
-0.00069899231
0.010489166
0.0044735479
0.019030608
-9.0515191
-8.8526721
-6.6841205
-4.1568358
-2.3640838
-1.3357514
-0.7156616
-0.28604397
-0.014967727
0.11764484
0.098644385
0.025650264
-0.085022565
-0.2039964
-0.3088203
-0.38822253
-0.43773161
-0.4589827
-0.45691368
-0.4379214
-0.40759833
-0.36904886
-0.31787245
-0.26610113
-0.21986242
-0.17937213
-0.14398566
-0.11323617
-0.086600494
-0.06359552
-0.043805516
-0.026783697
-0.012260895
0.00016757636
0.010384718
0.019135548
0.025766956
0.031231027
0.034937189
-9.64718
-7.084844
-4.4428277
-2.7859099
-1.9430401
-1.5981037
-1.5001666
-1.5969241
-1.9048121
-2.3452957
-2.6879159
-2.6955111
-2.1536192
-1.5201375
-0.96498421
-0.57373678
-0.31172351
-0.14820375
-0.046379856
0.015132427
0.040122479
0.03406005
0.012888199
-0.0013773097
-0.0034030883
-0.00058115422
0.0071827235
0.0013774822
0.013908002
-10.04137
-8.0415675
-5.2182196
-3.0284259
-1.7225808
-0.96964792
-0.45377162
-0.090061537
0.10932003
0.17210301
0.086247907
-0.028920731
-0.16461488
-0.29050039
-0.39046104
-0.45806283
-0.49309037
-0.50048139
-0.48724518
-0.45954585
-0.42083888
-0.3657782
-0.30858827
-0.25722927
-0.21203807
-0.17240015
-0.13785209
-0.10784639
-0.081875704
-0.059446834
-0.04013066
-0.02345844
-0.0092753565
0.0028745415
0.012862527
0.021459499
0.02796142
0.033379696
0.037040859
-10.821226
-9.7714575
-6.8613692
-4.3438361
-2.7513809
-1.9953082
-1.6893033
-1.6271545
-1.7700411
-2.1447988
-2.6428763
-3.0624047
-2.9837502
-2.3293702
-1.5946044
-0.98256943
-0.57966031
-0.3093335
-0.14640238
-0.049541797
0.0058980012
0.027411033
0.02324532
0.0080276498
-0.0021795297
-0.0033976595
-0.0011063347
0.0042107755
-0.0009251413
0.0099141525
-9.238841
-6.3087448
-3.7903192
-2.1798757
-1.2703381
-0.67007284
-0.22336198
0.073937469
0.18820299
0.17122091
0.028033696
-0.11709668
-0.26506787
-0.38859692
-0.47597386
-0.52687353
-0.54555267
-0.539575
-0.51568681
-0.47753568
-0.41849477
-0.35553243
-0.2986497
-0.24834585
-0.20405912
-0.16534202