/*--------------------------------*- C++ -*----------------------------------*\
| =========                 |                                                 |
| \\      /  F ield         | OpenFOAM: The Open Source CFD Toolbox           |
|  \\    /   O peration     | Version:  v2012                                 |
|   \\  /    A nd           | Website:  www.openfoam.com                      |
|    \\/     M anipulation  |                                                 |
\*---------------------------------------------------------------------------*/
FoamFile
{
    version     2.0;
    format      ascii;
    class       surfaceScalarField;
    location    "89.9137842149523294";
    object      phi;
}
// * * * * * * * * * * * * * * * * * * * * * * * * * * * * * * * * * * * * * //

dimensions      [0 3 -1 0 0 0 0];
oriented        oriented;


internalField   nonuniform List<scalar> 
18180
(
-0.014384952
-3.4502836
-0.027197579
-3.2174977
-0.007380948
-3.497769
-0.037784277
-2.997749
-0.013312851
-3.2612443
-0.0047342074
-3.5460196
-0.045966003
-2.7902772
-0.017618631
-3.037939
-0.0083674291
-3.3074258
-0.0020593628
-3.5951916
-0.051153743
-2.5966237
-0.019915832
-2.8279117
-0.010689836
-3.0817937
-0.0033192024
-3.3547213
-0.00015273567
-3.6430943
-0.053080381
-2.4156621
-0.02003651
-2.63252
-0.011337187
-2.869316
-0.0035361225
-3.1276051
0.00020870522
-3.4012777
0.0013198407
-3.6900537
-0.051484058
-2.2470144
-0.017891219
-2.4510248
-0.010169671
-2.6719176
-0.0024350004
-2.9134837
0.0014161427
-3.1733298
0.0030099086
-3.4465856
0.0024195932
-3.7348369
-0.046246172
-2.090065
-0.013450663
-2.2827319
-0.0070985851
-2.488823
6.6651624e-05
-2.7138749
0.003620606
-2.9580259
0.0052832351
-3.2177275
0.0051376133
-3.4899725
0.0032905216
-3.7777541
-0.037476521
-1.9443045
-0.0068154011
-2.1264709
-0.0021933742
-2.319492
0.0039754948
-2.5284269
0.0068951204
-2.7566277
0.0083296956
-3.001611
0.0082237256
-3.2602536
0.0067773376
-3.5313088
0.0039645347
-3.8182288
-0.025479783
-1.8092355
0.0018370094
-1.9814932
0.0043605415
-2.1627786
0.009189671
-2.3570499
0.011233626
-2.5690862
0.012169136
-2.7992607
0.011886565
-3.043637
0.010490777
-3.3006502
0.0080247046
-3.5704259
0.0044612206
-3.8568251
-0.010478644
-1.6845768
0.01229668
-1.847072
0.01225033
-2.0175082
0.015544141
-2.1988062
0.01654546
-2.3955105
0.016798582
-2.6102527
0.016120464
-2.8406021
0.014615707
-3.0834213
0.01221644
-3.3388207
0.0089481333
-3.6074396
0.0048050574
-3.892955
0.0069668883
-1.5694541
0.023835588
-1.7223531
0.021015843
-1.8826243
0.022806718
-2.0523916
0.022698846
-2.2351303
0.022139346
-2.43464
0.020923053
-2.650625
0.019137859
-2.8798063
0.016689849
-3.1209072
0.013495762
-3.3747942
0.0095943977
-3.6422165
0.005019532
-3.9269871
0.02631271
-1.4631356
0.035781748
-1.6064971
0.030331359
-1.7572443
0.030719516
-1.91652
0.029521853
-2.0869694
0.028095304
-2.272243
0.026227961
-2.4737619
0.024045694
-2.6892242
0.02142605
-2.9166246
0.018232557
-3.156114
0.014394748
-3.4085999
0.010000216
-3.6748256
0.0051232964
-3.9586892
0.046922586
-1.3650772
0.047860438
-1.4991713
0.040077714
-1.6406775
0.039029936
-1.7901457
0.036833558
-1.9496716
0.034556284
-2.122176
0.031963369
-2.3096126
0.029275474
-2.5113116
0.026400156
-2.7252288
0.023133702
-2.9509685
0.019326029
-3.1891399
0.014964122
-3.4402364
0.010197313
-3.7053386
0.0051326234
-3.988605
0.068116405
-1.2746835
0.059724846
-1.3997656
0.049854572
-1.5322865
0.047446292
-1.6724273
0.04445531
-1.8219779
0.041421051
-1.9831638
0.038058324
-2.1575859
0.034761009
-2.345545
0.031541256
-2.5461598
0.028162336
-2.758606
0.024359035
-2.9831199
0.020030723
-3.2200321
0.01524629
-3.4698434
0.010214973
-3.7339441
0.0050625613
-4.0164213
0.089258668
-1.1913314
0.070986679
-1.307648
0.059241052
-1.4314369
0.055661935
-1.5626645
0.052220103
-1.7029426
0.048607154
-1.8540088
0.044461938
-2.0167518
0.040442421
-2.1915824
0.036771991
-2.3789449
0.033234652
-2.5785344
0.029449529
-2.7898349
0.025170814
-3.0132072
0.020394555
-3.2489495
0.015279218
-3.4975206
0.01008037
-3.7606313
0.0049267505
-4.042472
0.10980241
-1.1143923
0.081279119
-1.2222212
0.067859063
-1.3375303
0.063394415
-1.4602272
0.059971811
-1.591803
0.056055401
-1.733635
0.051154279
-1.8859911
0.046283311
-2.0488113
0.042017712
-2.2231583
0.038253047
-2.4099809
0.034502
-2.6087183
0.03034
-2.8189965
0.025618664
-3.0413817
0.020458262
-3.2759745
0.015097457
-3.5233437
0.0098181313
-3.7854851
0.0047371633
-4.066501
0.12930334
-1.0432729
0.090273672
-1.1428984
0.075379683
-1.2500165
0.070376042
-1.36453
0.067563338
-1.4879194
0.063733063
-1.6212524
0.058152869
-1.7642777
0.052282063
-1.9163106
0.047222019
-2.0783246
0.043114124
-2.2524323
0.039400006
-2.4390163
0.035438317
-2.6369376
0.030882475
-2.8463384
0.025739956
-3.0677559
0.020257419
-3.3012076
0.014731992
-3.5473504
0.0094500752
-3.808527
0.004504074
-4.088906
0.14772395
-0.97750132
0.097700663
-1.0691513
0.081541605
-1.168373
0.076343615
-1.275025
0.074853378
-1.390715
0.071637059
-1.5162158
0.06551675
-1.6507857
0.058478995
-1.7931466
0.052356368
-1.9439268
0.04772059
-2.1057131
0.044010191
-2.2801724
0.04033897
-2.4663509
0.036091166
-2.6634276
0.031103929
-2.8720138
0.025563546
-3.0924526
0.019823136
-3.3246854
0.014210368
-3.5696309
0.0089952546
-3.8298943
0.0042362055
-4.1094404
0.16545766
-0.91666459
0.10341198
-1.0006336
0.086172359
-1.0921582
0.081066312
-1.1912168
0.081710774
-1.299646
0.079786094
-1.4179568
0.073347554
-1.5448655
0.064961349
-1.6784856
0.057427136
-1.8191132
0.051989098
-1.9693446
0.048191863
-2.1317197
0.044888837
-2.3064035
0.041120782
-2.4919898
0.036470479
-2.6883251
0.031016823
-2.8961631
0.025112471
-3.11551
0.019183101
-3.3465105
0.013557128
-3.5902607
0.0084704032
-3.8495565
0.0039411262
-4.1283987
0.18250933
-0.86032049
0.1075366
-0.93721386
0.088931217
-1.0208543
0.084309182
-1.1126473
0.088015118
-1.2142268
0.088227584
-1.3259537
0.081780928
-1.4459504
0.071864198
-1.5716653
0.062482988
-1.703012
0.055856039
-1.8425867
0.051804136
-1.993297
0.048916899
-2.156386
0.045815812
-2.3310595
0.041732294
-2.5161441
0.036560899
-2.7118739
0.030625313
-2.9188369
0.024406897
-3.1370176
0.018362771
-3.3667369
0.012794741
-3.6092658
0.0078906298
-3.8676172
0.0036255861
-4.1456011
0.19874002
-0.80800121
0.10998732
-0.878237
0.089343731
-0.95419493
0.085882583
-1.0388374
0.093623903
-1.1339742
0.097016355
-1.2397223
0.090987042
-1.3535404
0.079366491
-1.4721239
0.067609692
-1.5949472
0.05928274
-1.7246746
0.054712275
-1.8643823
0.052238828
-2.0159442
0.04999597
-2.1797415
0.046747968
-2.3544324
0.042115516
-2.5390424
0.036333636
-2.734116
0.029931586
-2.9401124
0.023466808
-3.157012
0.017386951
-3.3854053
0.011944639
-3.6267076
0.0072698234
-3.884104
0.0032960838
-4.1614037
0.21402612
-0.7592906
0.11062745
-0.82318923
0.087182298
-0.89177326
0.085563197
-0.96947795
0.098510332
-1.0585232
0.10622839
-1.1588027
0.10115279
-1.2671534
0.087690231
-1.3793872
0.072935211
-1.4943624
0.062248513
-1.6148768
0.056790146
-1.7442947
0.054661421
-1.8847311
0.053460539
-2.0374294
0.051349951
-2.2019348
0.047568231
-2.3765911
0.042191575
-2.5607774
0.035759199
-2.7551368
0.028941253
-2.9600054
0.02231467
-3.1755326
0.016281178
-3.4025575
0.011027577
-3.642649
0.0066212038
-3.8991673
0.002959231
-4.1756623
0.22833599
-0.71385348
0.10942866
-0.77176549
0.082472302
-0.83332889
0.083178735
-0.90420599
0.10261146
-0.98752176
0.11593018
-1.0828193
0.1124928
-1.1863547
0.097086485
-1.2929992
0.078633288
-1.4008188
0.064782283
-1.512667
0.057904108
-1.632338
0.055977518
-1.7622142
0.055992307
-1.9038909
0.055347773
-2.0580177
0.052781774
-2.2232596
0.048124831
-2.3977718
0.041881133
-2.5814874
0.034816863
-2.774956
0.027667813
-2.9785382
0.020977296
-3.1926016
0.015071978
-3.418255
0.010063889
-3.6571878
0.0059575086
-3.9128215
0.0026218594
-4.1886632
0.24165561
-0.6713567
0.10647075
-0.72374035
0.075274222
-0.77859512
0.07857916
-0.84277988
0.10587497
-0.92061223
0.1261807
-1.0114154
0.12519459
-1.110734
0.10783023
-1.2125402
0.084901207
-1.3138883
0.066916588
-1.4175935
0.057934186
-1.5279599
0.056010183
-1.647809
0.057363612
-1.7789113
0.058531835
-1.9225309
0.057595728
-2.0782215
0.054038218
-2.2438425
0.048265507
-2.4181141
0.041121088
-2.6012059
0.033501966
-2.7935731
0.026135255
-2.9957
0.019485911
-3.2082652
0.013786811
-3.4325656
0.0090731521
-3.6703598
0.0052909931
-3.9251924
0.0022903933
-4.2003284
0.25390037
-0.63136495
0.10185278
-0.67880014
0.06561124
-0.72731156
0.071657542
-0.78497423
0.10819998
-0.85749432
0.13704097
-0.94423026
0.13942362
-1.0399077
0.12019891
-1.1375973
0.09196523
-1.2331755
0.068691746
-1.3292319
0.056773395
-1.4307005
0.054560419
-1.5409233
0.057343231
-1.6619653
0.060683714
-1.7952805
0.061831783
-1.941212
0.059816186
-2.0981577
0.054865433
-2.2638752
0.047864382
-2.4377151
0.039876249
-2.6199513
0.031829787
-2.8109451
0.02437784
-3.0115163
0.0178755
-3.2225654
0.012453185
-3.4455227
0.008073817
-3.6822607
0.0046329083
-3.9363484
0.0019702434
-4.2109724
0.26485291
-0.59326745
0.095610196
-0.6364454
0.053512584
-0.67917293
0.062331377
-0.73055185
0.10948843
-0.79793648
0.14856883
-0.88095587
0.15535295
-0.97351787
0.13447117
-1.0677805
0.10007352
-1.1582934
0.070177924
-1.2472217
0.054347103
-1.3401511
0.051405397
-1.4410335
0.055691991
-1.552436
0.061566982
-1.675926
0.065298555
-1.8121912
0.065326099
-1.9603498
0.061617263
-2.1179709
0.055048491
-2.2834243
0.046839058
-2.4565942
0.038144658
-2.6376065
0.029834919
-2.8270472
0.022438537
-3.0260021
0.01618303
-3.2355273
0.011097774
-3.4572039
0.0070825378
-3.6929611
0.0039931065
-3.9464348
0.0016658469
-4.2205719
0.27451442
-0.5566242
0.087508898
-0.5957943
0.03899726
-0.63367019
0.050585696
-0.67927621
0.10967688
-0.74173152
0.16080232
-0.82133626
0.17313842
-0.91124348
0.15090997
-1.002718
0.10949105
-1.0888703
0.071453395
-1.171183
0.050556713
-1.2559222
0.046361012
-1.3477439
0.052186517
-1.4497806
0.060952695
-1.5639192
0.067797773
-1.6908555
0.070421612
-1.8301666
0.068442142
-1.9798586
0.062663297
-2.1375584
0.054436934
-2.3024375
0.045159144
-2.4745566
0.035957282
-2.6541072
0.027568588
-2.8418686
0.020365905
-3.0391672
0.01444564
-3.2472105
0.009745229
-3.467669
0.0061138267
-3.7025752
0.0033796486
-3.9555388
0.0013802834
-4.2293754
0.2828146
-0.52140524
0.07726665
-0.55635659
0.021954369
-0.58979027
0.036495049
-0.63072907
0.10881338
-0.68875199
0.17378489
-0.76516747
0.19290643
-0.85279984
0.16975003
-0.94205508
0.12048293
-1.0245363
0.072599132
-1.1007489
0.045314106
-1.1776356
0.039243963
-1.2606528
0.0465964
-1.3535602
0.058633214
-1.4586778
0.069134054
-1.5767329
0.07494995
-1.7073844
0.075248216
-1.8491062
0.070687233
-1.9994823
0.062710718
-2.1568088
0.052957289
-2.3207707
0.042845712
-2.491534
0.033373184
-2.6694012
0.025093451
-2.8553958
0.018210798
-3.0510398
0.012698543
-3.2576625
0.0084174126
-3.4770136
0.0051798277
-3.7111693
0.0027980581
-3.9637764
0.0011138113
-4.2373268
0.28991251
-0.48794252
0.064836142
-0.51833503
0.0021790967
-0.54695041
0.020362643
-0.58413043
0.1071665
-0.63879808
0.18760421
-0.71236086
0.21474719
-0.79794494
0.19119002
-0.88546872
0.1333251
-0.96494302
0.073690298
-1.0355412
0.038528859
-1.1049193
0.029882796
-1.1793897
0.03871846
-1.2633827
0.054404197
-1.3597409
0.06912421
-1.4693156
0.078757195
-1.59167
0.081933183
-1.725465
0.079085952
-1.8686638
0.071694032
-2.0191323
0.061623326
-2.1756455
0.050611389
-2.3382916
0.039964326
-2.5074107
0.030472039
-2.6834542
0.022478217
-2.8676249
0.01602284
-3.0616568
0.010973564
-3.2669604
0.0071328736
-3.485284
0.0042900275
-3.7188459
0.0022515853
-3.9712047
0.0008653777
-4.2446281
0.29153679
-0.53532594
0.050604746
-0.48249311
-0.02007371
-0.50581237
0.0027109906
-0.53911752
0.10541234
-0.59149738
0.20231382
-0.6626791
0.23860251
-0.74644019
0.21524122
-0.83252162
0.14827726
-0.9097476
0.074812791
-0.97522502
0.030112541
-1.0373899
0.018114694
-1.1035847
0.028370236
-1.1788959
0.048092042
-1.2667238
0.067604997
-1.3681191
0.0816957
-1.4825806
0.088387935
-1.6087344
0.087811532
-1.7447522
0.081409779
-1.8886836
0.071240328
-2.0386102
0.059371754
-2.1938166
0.047468556
-2.354845
0.036614517
-2.5221143
0.027345556
-2.6961951
0.019791954
-2.8785668
0.013847762
-3.0710806
0.0092981368
-3.2751405
0.0059064747
-3.4925791
0.0034514034
-3.7256709
0.0017432858
-3.9779275
0.00063789714
-4.2512125
0.293071
-0.53537848
0.028390573
-0.52273923
-0.044363154
-0.46732152
-0.015939039
-0.49635136
0.10432295
-0.54658193
0.21817052
-0.61594727
0.26401091
-0.6976432
0.24131002
-0.78236696
0.16524909
-0.85815736
0.075993862
-0.91939374
0.019984347
-0.97471582
0.003810077
-1.0328847
0.015394882
-1.0997513
0.039556492
-1.1792978
0.064443368
-1.2727751
0.083632989
-1.3796759
0.094500803
-1.4985737
0.096803577
-1.6275624
0.091867285
-1.7649935
0.081885475
-1.9089458
0.069249916
-2.0576691
0.056023684
-2.2111687
0.043650469
-2.3702854
0.03291733
-2.5355011
0.024089064
-2.7076202
0.017099656
-2.8882716
0.011725565
-3.0793429
0.0076945795
-3.2822968
0.0047495377
-3.4989652
0.0026689025
-3.731745
0.0012759154
-3.9839803
0.00043310481
-4.2572413
0.29433153
-0.53442514
0.0039798029
-0.52062207
-0.077528884
-0.49947057
-0.035275828
-0.45656631
0.10411213
-0.50415462
0.23538276
-0.57184606
0.29071015
-0.65157282
0.26853476
-0.7340908
0.18334662
-0.80851555
0.076889338
-0.86688337
0.0080167138
-0.91643919
-0.013145016
-0.96696639
-0.00032564757
-1.0256351
0.028700236
-1.097157
0.059543842
-1.1829773
0.084459103
-1.2825813
0.1001629
-1.3945777
0.10598856
-1.5169134
0.10305858
-1.6479524
0.093624438
-1.7860787
0.080368945
-1.9291217
0.065779247
-2.076024
0.0517239
-2.2274701
0.039314465
-2.3844474
0.029002682
-2.5475465
0.02079403
-2.7177524
0.014458978
-2.8967647
0.0096891652
-3.0865242
0.0061800944
-3.288487
0.0036700231
-3.5045402
0.0019456359
-3.7371181
0.00084856181
-3.9894495
0.0002430259
-4.2625995
0.2951563
-0.53253635
-0.022482312
-0.5176431
-0.11247682
-0.49559951
-0.063755098
-0.48019339
0.10480807
-0.46476283
0.25380668
-0.53012349
0.3181796
-0.60764922
0.29663814
-0.6882936
0.20195798
-0.76018943
0.077101469
-0.81598177
-0.0061843678
-0.86112859
-0.032870584
-0.90536606
-0.018917077
-0.95621606
0.015466381
-1.0200266
0.052859103
-1.0984636
0.084093668
-1.1910035
0.10527274
-1.2963684
0.11528205
-1.4124428
0.11495473
-1.5373824
0.1065046
-1.6697235
0.092846104
-1.80745
0.076892145
-1.9487019
0.060995166
-2.093345
0.046673003
-2.2425075
0.034635231
-2.3972195
0.024998139
-2.558238
0.017542883
-2.7266208
0.01191789
-2.9041151
0.0077641387
-3.0926806
0.0047669273
-3.2938073
0.0026727474
-3.5093623
0.001282665
-3.7418785
0.00045761425
-3.9943318
5.9469482e-05
-4.267413
0.29532571
-0.52975742
-0.050592054
-0.51413283
-0.14862406
-0.4914393
-0.093083556
-0.47547513
0.096937546
-0.48033293
0.27320073
-0.49122851
0.34593862
-0.56565897
0.32495836
-0.64401278
0.22090883
-0.71421831
0.077036082
-0.76685773
-0.022675967
-0.80740591
-0.05533134
-0.84680194
-0.0403742
-0.89116085
-0.00015716701
-0.9476231
0.044387197
-1.0190024
0.082493397
-1.1047065
0.10974242
-1.2036401
0.1245899
-1.3137332
0.12750405
-1.4329649
0.1205502
-1.5597493
0.10678533
-1.6922417
0.089521925
-1.8284081
0.071639111
-1.9672529
0.05514795
-2.1093872
0.041102583
-2.2561079
0.029788796
-2.408582
0.021020427
-2.5675953
0.01440487
-2.7342638
0.009513926
-2.9103765
0.0059687862
-3.0979112
0.0034627071
-3.2983086
0.001759797
-3.5135213
0.00067946365
-3.7460887
0.00010116644
-3.9987239
-0.00010364123
-4.2715668
0.29465272
-0.52617198
-0.079846958
-0.51023411
-0.18524364
-0.4874665
-0.12306547
-0.47064794
0.090280389
-0.47688491
0.28506824
-0.49972176
0.3736552
-0.52619613
0.35300091
-0.6012005
0.23986678
-0.66947927
0.07685078
-0.72029896
-0.040464264
-0.75648571
-0.080171718
-0.79021346
-0.064248604
-0.82962977
-0.018094116
-0.87969838
0.03418585
-0.94436868
0.079652402
-1.0234913
0.11350177
-1.1161595
0.13381285
-1.2204554
0.14062999
-1.3343055
0.13575465
-1.4559118
0.12226923
-1.5833394
0.1038229
-1.7146622
0.083841333
-1.8484434
0.064912701
-1.9844953
0.048538555
-2.123936
0.035252076
-2.2682176
0.024938851
-2.4185078
0.017168846
-2.5756386
0.011434592
-2.7407485
0.0072740718
-2.9156525
0.0043146111
-3.1022655
0.0022710138
-3.3020919
0.00093102499
-3.517116
0.00013483284
-3.7498394
-0.00022129339
-4.0025789
-0.00024757168
-4.2751891
0.2930606
-0.52188118
-0.10968595
-0.5060886
-0.22153088
-0.48390237
-0.15336373
-0.46633686
0.084137794
-0.4726146
0.29994507
-0.49938639
0.39563484
-0.52931667
0.38042395
-0.56060192
0.25862572
-0.62604769
0.079033429
-0.67750408
-0.058340868
-0.70936284
-0.10668347
-0.73716203
-0.089731148
-0.77092249
-0.0378314
-0.81585078
0.022364589
-0.87436461
0.075611399
-0.94717365
0.11650108
-1.0337421
0.1428485
-1.1323567
0.15423309
-1.2410228
0.15207638
-1.3578331
0.13934892
-1.4805757
0.11993539
-1.6072208
0.097792682
-1.7363055
0.076158373
-1.8670769
0.057096012
-2.0000961
0.041487999
-2.1368519
0.02934885
-2.2787738
0.020226604
-2.4270334
0.013522106
-2.5824378
0.0086713627
-2.7461726
0.0052153533
-2.919995
0.0028071652
-3.1058433
0.0011920352
-3.3052411
0.00018458777
-3.5202288
-0.00035338979
-3.7531486
-0.00051414007
-4.0059688
-0.00037945274
-4.2782084
0.29065881
-0.5170169
-0.13945028
-0.50189463
-0.25672705
-0.48084293
-0.18343799
-0.46296757
0.077917051
-0.46825884
0.31705068
-0.49743745
0.42075092
-0.53220114
0.40626674
-0.5624259
0.27690646
-0.58458333
0.082060464
-0.63453424
-0.075271245
-0.66706019
-0.13377679
-0.68902099
-0.11666346
-0.71594965
-0.058590503
-0.75564474
0.009233931
-0.80878541
0.070445013
-0.87558959
0.11871583
-0.95622697
0.15159644
-1.0492477
0.16819107
-1.1528314
0.16943637
-1.2651164
0.15803768
-1.3836179
0.13797623
-1.5059122
0.11368286
-1.6305107
0.089092159
-1.7565458
0.06694926
-1.8839114
0.048612661
-2.0138743
0.034308506
-2.1480573
0.023591915
-2.2877987
0.015764761
-2.4341988
0.010137075
-2.5880957
0.0061400251
-2.7506043
0.0033460459
-2.9235052
0.0014470021
-3.1087174
0.00022333679
-3.307848
-0.00048248838
-3.5229192
-0.00078777139
-3.7560832
-0.00077307909
-4.0088783
-0.00049677409
-4.2807592
0.28770419
-0.51173561
-0.16839031
-0.49787494
-0.29016981
-0.47839138
-0.21263845
-0.46074674
0.071193943
-0.46441216
0.33542574
-0.49442979
0.44849765
-0.53295664
0.43469127
-0.56796883
0.30028596
-0.59174101
0.08404766
-0.59168626
-0.091680625
-0.62417693
-0.16270813
-0.64446609
-0.14521225
-0.66576255
-0.080371873
-0.69921369
-0.0046929137
-0.74739574
0.064274902
-0.80857909
0.12014143
-0.8834655
0.15996216
-0.97097186
0.18236587
-1.0695136
0.18771591
-1.177413
0.1783025
-1.2920515
0.15802954
-1.4105067
0.13169093
-1.5309434
0.10393238
-1.6525313
0.078294693
-1.7748554
0.056761519
-1.8986668
0.039885564
-2.0257246
0.027278125
-2.1575613
0.018141676
-2.2953405
0.011635016
-2.4401443
0.0070495297
-2.5926923
0.0038526055
-2.7541395
0.0016671197
-2.9262525
0.00023078513
-3.1109871
-0.00063943874
-3.3099878
-0.0010756966
-3.5252467
-0.001172042
-3.7586588
-0.0010003425
-4.0113969
-0.00059938087
-4.2827825
-0.50618781
0.28443464
-0.19571766
-0.49422397
-0.32120039
-0.47676779
-0.24045714
-0.45963622
0.063827247
-0.46156388
0.35397204
-0.49081991
0.47813035
-0.53189824
0.46523275
-0.57091211
0.32602255
-0.59976556
0.093999901
-0.60699014
-0.10838348
-0.58062312
-0.19162528
-0.60120044
-0.17490071
-0.61967874
-0.10361737
-0.64716595
-0.019243509
-0.68998368
0.057317314
-0.74600052
0.12078908
-0.81531164
0.16785859
-0.89738579
0.19660612
-0.99089376
0.20676339
-1.0944584
0.20006042
-1.2054699
0.18013336
-1.3205972
0.15197682
-1.4373853
0.12090299
-1.554803
0.091349464
-1.6724902
0.066092839
-1.7907632
0.046160567
-1.9111784
0.031299637
-2.0356489
0.020623489
-2.1654297
0.013114658
-2.3015483
0.0078885328
-2.4449486
0.0042765847
-2.5963356
0.0018105039
-2.7568611
0.00017392688
-2.928347
-0.00084758064
-3.1127372
-0.0014025777
-3.3117417
-0.0015981278
-3.5272657
-0.0015093533
-3.7609368
-0.0011981975
-4.013484
-0.00068797011
-4.2843922
-0.49103793
-0.22069778
-0.50058377
0.28110618
-0.34925799
-0.47606946
-0.26667038
-0.45957321
0.055961655
-0.45996105
0.3715929
-0.48710013
0.50865827
-0.52924051
0.49708032
-0.57123122
0.35351893
-0.60458166
0.10440641
-0.6155933
-0.11790359
-0.60323638
-0.2192933
-0.55850517
-0.20421056
-0.57644295
-0.12788462
-0.59970178
-0.03475104
-0.63664853
0.049786948
-0.68763953
0.12068099
-0.75163372
0.1752117
-0.82835708
0.21075561
-0.91682536
0.22639278
-1.0160349
0.22317932
-1.1235389
0.20427627
-1.2357117
0.17466652
-1.3494586
0.14022851
-1.463196
0.10635238
-1.5765125
0.076789656
-1.6897163
0.053231548
-1.8040263
0.035674428
-1.9214577
0.023173123
-2.0437196
0.014510101
-2.1718031
0.0085836915
-2.3065342
0.0045494175
-2.4487519
0.001819974
-2.5991127
6.9578915e-06
-2.7588806
-0.0011422153
-2.9298628
-0.0017969428
-3.1140519
-0.0020724677
-3.3131753
-0.0020550811
-3.5290273
-0.0018031176
-3.7628875
-0.001368891
-4.0152108
-0.00076316437
-4.2855588
-0.47640553
-0.37376948
-0.48861946
-0.24250387
-0.49515705
0.27803379
-0.29124566
-0.46046531
0.047777802
-0.45957702
0.38742379
-0.48375022
0.53887912
-0.52526681
0.52911624
-0.56883352
0.38165423
-0.60564417
0.11496343
-0.62067259
-0.12690717
-0.6124653
-0.24403366
-0.5841225
-0.23198616
-0.53495734
-0.1521956
-0.5561017
-0.051445564
-0.58768856
0.041636949
-0.63333908
0.11990233
-0.69227963
0.18194748
-0.76375096
0.22466086
-0.84718083
0.24639963
-0.94197529
0.24747337
-1.0459752
0.23038582
-1.1554409
0.19984852
-1.2666981
0.16212146
-1.3774118
0.12356016
-1.4867689
0.089063667
-1.5951998
0.061216831
-1.7038904
0.040427432
-1.8146645
0.025746901
-1.9295994
0.015740004
-2.0500984
0.0090411444
-2.1768392
0.0045823902
-2.3104491
0.0016193653
-2.4516382
-0.00033002669
-2.6011504
-0.0015703535
-2.7602728
-0.0022932853
-2.930892
-0.0026258414
-3.1150081
-0.002656097
-3.3143441
-0.0024517028
-3.5305263
-0.0020567967
-3.7645539
-0.0015145286
-4.0165528
-0.0008255394
-4.2864054
-0.46255272
-0.31402032
-0.47823831
-0.39400363
-0.4866801
-0.26083151
-0.49001712
0.27551789
0.039649209
-0.46051326
0.40097077
-0.48111395
0.56743282
-0.52030059
0.56010266
-0.56387874
0.40907359
-0.6026176
0.12506475
-0.62137194
-0.13620881
-0.61733518
-0.26773499
-0.59447448
-0.26329077
-0.55706729
-0.17550252
-0.51533907
-0.068951431
-0.54298187
0.032515757
-0.58308812
0.11851739
-0.63706804
0.18801821
-0.70343866
0.23817345
-0.78183048
0.26656133
-0.8721321
0.27272077
-0.97257244
0.25832654
-1.0794256
0.22755075
-1.1886147
0.18677812
-1.2970187
0.1432444
-1.4030626
0.10315551
-1.5070242
0.070260003
-1.6103689
0.04559347
-1.7149185
0.028295992
-1.8227702
0.016707332
-1.9357975
0.0091459982
-2.0549814
0.0042633955
-2.1807144
0.0011122737
-2.3134166
-0.00091497488
-2.4537663
-0.0021922299
-2.6025226
-0.0029384626
-2.7611296
-0.0032915658
-2.9315144
-0.0033441667
-3.1156705
-0.0031606569
-3.3152723
-0.0027931077
-3.5318008
-0.0022737815
-3.7658929
-0.0016372793
-4.017589
-0.00087654566
-4.2868913
-0.46273259
0.03167213
-0.46674836
-0.33438271
-0.48064987
-0.40985905
-0.48547903
-0.2752264
-0.48523933
0.27382557
0.41216252
-0.47971532
0.59297839
-0.51470513
0.58877852
-0.55666432
0.43436187
-0.59559318
0.1338624
-0.61711019
-0.14613117
-0.61748198
-0.29098441
-0.5998583
-0.29322698
-0.56885902
-0.20822631
-0.52804161
-0.086147178
-0.50224346
0.022265624
-0.53695579
0.1164365
-0.58582922
0.19340412
-0.64725934
0.2511606
-0.72066084
0.28665465
-0.80637796
0.29865269
-0.90313388
0.28790506
-1.007395
0.25774531
-1.1147862
0.21435378
-1.2215066
0.16568506
-1.3250414
0.11934034
-1.4250396
0.080534214
-1.5232204
0.051221738
-1.6218364
0.030768785
-1.7229438
0.017299183
-1.828615
0.0087608976
-1.9403056
0.0034558866
-2.0585918
0.00017754739
-2.1836003
-0.00184896
-2.3155971
-0.0030842868
-2.455207
-0.0037891534
-2.6033355
-0.0041143507
-2.7615406
-0.004150713
-2.931813
-0.0039617426
-3.1160924
-0.0035931581
-3.3160046
-0.0030842096
-3.5328101
-0.0024573698
-3.7669592
-0.0017395456
-4.0182851
-0.00091814127
-4.2871056
-0.47964961
0.42105935
-0.46620737
0.023000524
-0.47298662
-0.35087022
-0.48395777
-0.42117573
-0.48498758
-0.28533798
-0.48073801
0.27313387
0.61414827
-0.50897769
0.61392608
-0.54759103
0.45610905
-0.58486751
0.14041336
-0.60788426
-0.15689364
-0.61243532
-0.31387894
-0.60041003
-0.32185685
-0.57560181
-0.23967946
-0.54119156
-0.11689566
-0.50139887
0.011385882
-0.4953192
0.11332885
-0.53838869
0.19812281
-0.59508375
0.2634983
-0.66352175
0.30646469
-0.74460795
0.32498911
-0.83751732
0.31885577
-0.93907767
0.29032793
-1.0448538
0.24497058
-1.1504027
0.19115815
-1.2522204
0.13792106
-1.34903
0.092247727
-1.4423704
0.057378354
-1.5351358
0.033113214
-1.6297552
0.01738846
-1.7282923
0.0077247717
-1.8325267
0.0019974384
-1.9434062
-0.0013305649
-2.0611392
-0.0032501322
-2.1856646
-0.004340189
-2.317102
-0.0049172417
-2.4560852
-0.005146159
-2.603666
-0.0051169515
-2.7615935
-0.0048839707
-2.9318489
-0.0044880999
-3.1163194
-0.0039603279
-3.3165326
-0.0033297144
-3.5335963
-0.002610716
-3.7677198
-0.0018237044
-4.0187067
-0.00095183756
-4.2870337
-0.50367747
0.6300432
-0.47974271
0.426574
-0.47278261
0.014699967
-0.48084199
-0.36276366
-0.48796407
-0.42796422
-0.48492228
-0.29101368
-0.47686876
0.27346036
0.63432484
-0.53714843
0.47298055
-0.57091784
0.14385834
-0.59407374
-0.16865013
-0.60226244
-0.33616064
-0.59601589
-0.34891945
-0.57777276
-0.26951118
-0.54964209
-0.147018
-0.51529983
-0.015711603
-0.47825808
0.10930116
-0.4955623
0.20197746
-0.54652327
0.27513132
-0.61035811
0.32578011
-0.68668109
0.35142963
-0.77559535
0.35088824
-0.87430231
0.32512306
-0.97846937
0.2786774
-1.0832646
0.2199366
-1.1841212
0.15923328
-1.2785988
0.10564173
-1.3676717
0.064149965
-1.4546636
0.035276067
-1.5428427
0.016834188
-1.6344699
0.0058543672
-1.7313776
-0.00030107546
-1.8348672
-0.0035865218
-1.9453587
-0.005264781
-2.062828
-0.0060751595
-2.1870579
-0.0064083057
-2.3180448
-0.0064512304
-2.4564641
-0.0062891199
-2.6036149
-0.0059645261
-2.7613566
-0.0055042308
-2.9316766
-0.0049322817
-3.1163747
-0.0042685414
-3.3168887
-0.0035340613
-3.5341239
-0.0027368257
-3.7682282
-0.0018917542
-4.0188447
-0.0009784802
-4.2867665
-0.52589324
0.64875179
-0.49780661
0.63994149
-0.48268549
0.42846689
-0.48137651
0.007182173
-0.48981789
-0.36964309
-0.4923758
-0.43024485
-0.48515249
-0.29258738
-0.47355911
0.2747695
0.48376602
-0.55436025
0.14347512
-0.57629599
-0.18141797
-0.58748634
-0.35738227
-0.58693465
-0.3739609
-0.57544741
-0.29752401
-0.5537111
-0.17578191
-0.52522276
-0.043321161
-0.49179957
0.086954802
-0.46016105
0.20503028
-0.50263342
0.28591002
-0.5606901
0.34445126
-0.63259993
0.37767474
-0.71722822
0.3836434
-0.81287278
0.36190411
-0.91541104
0.31549012
-1.0197036
0.25226283
-1.1202565
0.1836377
-1.2132897
0.1210023
-1.298836
0.071642781
-1.3803391
0.037206479
-1.4619778
0.015477578
-1.5467385
0.0029481637
-1.6365166
-0.0036540473
-1.7326925
-0.0067905223
-1.8359752
-0.0080634978
-1.9464207
-0.0084248251
-2.0638421
-0.0083653846
-2.1879011
-0.0081043356
-2.3185114
-0.0077223851
-2.4564559
-0.0072430839
-2.6032417
-0.0066743835
-2.7608885
-0.0060235467
-2.9313242
-0.0053027729
-3.1162896
-0.0045237653
-3.3170348
-0.0037014333
-3.5344414
-0.002838462
-3.7684587
-0.0019453561
-4.0187692
-0.00099874096
-4.2862623
-0.5359523
0.48744782
-0.51304979
0.65620091
-0.49475164
0.64381857
-0.48719704
0.42630275
-0.49144581
0.00081131692
-0.49946306
-0.37124769
-0.49695927
-0.42814169
-0.48590217
-0.29009666
-0.47041955
0.27718417
0.13874075
-0.55537207
-0.19498915
-0.56894791
-0.37702554
-0.57376192
-0.39642725
-0.5689821
-0.32353032
-0.5534644
-0.20294669
-0.53099201
-0.070552028
-0.50224503
0.06348897
-0.47274134
0.18819019
-0.44728422
0.29602829
-0.51591018
0.36223686
-0.58179178
0.4034872
-0.66247499
0.4167689
-0.75464906
0.40033761
-0.85537695
0.3553298
-0.95940183
0.28839481
-1.0602429
0.21153663
-1.1526466
0.13865574
-1.2354891
0.079989395
-1.3119827
0.038847654
-1.3870707
0.013152288
-1.4648159
-0.0012202429
-1.5475427
-0.0083128688
-1.6365376
-0.011172324
-1.7326781
-0.011843549
-1.8361748
-0.011546972
-1.9468175
-0.010908163
-2.0643327
-0.010192964
-2.1883059
-0.0094788897
-2.3186001
-0.0087651813
-2.4561108
-0.0080314779
-2.6026168
-0.0072625603
-2.760223
-0.0064530874
-2.9308328
-0.0056074312
-3.116029
-0.004731576
-3.317009
-0.0038356593
-3.5345131
-0.0029181491
-3.7684721
-0.0019859792
-4.0184509
-0.0010132539
-4.2855929
-0.53232952
0.12940219
-0.5159116
0.48399136
-0.50259513
0.65625393
-0.49289318
0.6413153
-0.49305522
0.41996748
-0.5022452
-0.0043433709
-0.50927619
-0.36758568
-0.50185711
-0.42185917
-0.487253
-0.28310783
-0.46790582
0.28063407
-0.20891379
-0.54770699
-0.39448631
-0.55742748
-0.41584827
-0.55888607
-0.34726314
-0.54933712
-0.22860549
-0.53233949
-0.096814581
-0.5091143
0.039268232
-0.48257749
0.17077786
-0.45942015
0.28511368
-0.43946154
0.37940115
-0.53616591
0.4284914
-0.61061886
0.44993763
-0.69971576
0.4401074
-0.79824265
0.39804009
-0.90197811
0.32846619
-1.0036356
0.24336101
-1.0963061
0.15901302
-1.1772495
0.089357224
-1.2493036
0.040139461
-1.3180138
0.0096643683
-1.3885321
-0.0069128745
-1.4640535
-0.014538078
-1.5459954
-0.016981401
-1.6351026
-0.016826377
-1.7317475
-0.01562198
-1.835743
-0.014173978
-1.9467356
-0.012816721
-2.0644254
-0.011628821
-2.1883594
-0.010579654
-2.318377
-0.0096113779
-2.4555037
-0.0086756336
-2.6017763
-0.007743685
-2.7594093
-0.0068030661
-2.9301763
-0.0058535242
-3.1156184
-0.0048970556
-3.3167854
-0.0039402285
-3.5343913
-0.0029781728
-3.7682449
-0.0020150313
-4.0179474
-0.0010225858
-4.2847342
-0.52495798
-0.22256991
-0.5089611
0.11677657
-0.49735887
0.47250078
-0.49322134
0.64880474
-0.49223423
0.63229993
-0.49975574
0.40958885
-0.51301204
-0.0084721314
-0.51861722
-0.35945149
-0.50697917
-0.41177612
-0.48856012
-0.27228806
-0.46584102
0.28497593
-0.40909838
-0.53905285
-0.43194606
-0.54589574
-0.36847933
-0.54181264
-0.25302812
-0.52952334
-0.12195607
-0.5116993
0.014837584
-0.48936424
0.15231992
-0.46831461
0.27444737
-0.45194802
0.37475421
-0.43783764
0.45296948
-0.5642332
0.48263715
-0.64716886
0.48081914
-0.74401812
0.44343876
-0.84728848