/*--------------------------------*- C++ -*----------------------------------*\
| =========                 |                                                 |
| \\      /  F ield         | OpenFOAM: The Open Source CFD Toolbox           |
|  \\    /   O peration     | Version:  v2012                                 |
|   \\  /    A nd           | Website:  www.openfoam.com                      |
|    \\/     M anipulation  |                                                 |
\*---------------------------------------------------------------------------*/
FoamFile
{
    version     2.0;
    format      ascii;
    class       pointVectorField;
    location    "89.9137842149523294";
    object      pointDisplacement;
}
// * * * * * * * * * * * * * * * * * * * * * * * * * * * * * * * * * * * * * //

dimensions      [0 1 0 0 0 0 0];


internalField   nonuniform List<vector> 
18840
(
(0.74091515 0 0)
(0.74093588 0 0)
(0.74099762 0 0)
(0.74109954 0 0)
(0.7412409 0 0)
(0.74142069 0 0)
(0.74163795 0 0)
(0.74189158 0 0)
(0.74218051 0 0)
(0.74250339 0 0)
(0.74285893 0 0)
(0.74324578 0 0)
(0.74366246 0 0)
(0.74410721 0 0)
(0.74457821 0 0)
(0.74507365 0 0)
(0.74559138 0 0)
(0.74612887 0 0)
(0.74668309 0 0)
(0.74725043 0 0)
(0.74792694 0 0)
(0.74091515 0 0)
(0.74093553 0 0)
(0.74099625 0 0)
(0.74109644 0 0)
(0.74123532 0 0)
(0.74141203 0 0)
(0.74162549 0 0)
(0.74187471 0 0)
(0.74215847 0 0)
(0.74247558 0 0)
(0.74282461 0 0)
(0.74320423 0 0)
(0.74361279 0 0)
(0.74404871 0 0)
(0.74451 0 0)
(0.74499484 0 0)
(0.74550095 0 0)
(0.74602607 0 0)
(0.7465672 0 0)
(0.74712129 0 0)
(0.74766164 0 0)
(0.74091515 0 0)
(0.7409352 0 0)
(0.74099492 0 0)
(0.74109347 0 0)
(0.74122996 0 0)
(0.74140362 0 0)
(0.74161336 0 0)
(0.74185816 0 0)
(0.74213676 0 0)
(0.74244796 0 0)
(0.74279027 0 0)
(0.74316228 0 0)
(0.74356227 0 0)
(0.74398857 0 0)
(0.74443918 0 0)
(0.74491215 0 0)
(0.74540521 0 0)
(0.74591608 0 0)
(0.74644219 0 0)
(0.74698103 0 0)
(0.74751326 0 0)
(0.74091515 0 0)
(0.74093483 0 0)
(0.74099343 0 0)
(0.7410901 0 0)
(0.74122399 0 0)
(0.74139421 0 0)
(0.74159981 0 0)
(0.74183962 0 0)
(0.74211245 0 0)
(0.74241691 0 0)
(0.74275158 0 0)
(0.74311481 0 0)
(0.74350492 0 0)
(0.74391996 0 0)
(0.74435798 0 0)
(0.74481673 0 0)
(0.74529396 0 0)
(0.74578711 0 0)
(0.74629366 0 0)
(0.74681082 0 0)
(0.74732495 0 0)
(0.74091515 0 0)
(0.7409344 0 0)
(0.74099173 0 0)
(0.74108631 0 0)
(0.74121723 0 0)
(0.74138367 0 0)
(0.74158459 0 0)
(0.74181885 0 0)
(0.74208515 0 0)
(0.74238206 0 0)
(0.74270803 0 0)
(0.74306134 0 0)
(0.74344012 0 0)
(0.7438423 0 0)
(0.74426573 0 0)
(0.74470797 0 0)
(0.74516655 0 0)
(0.74563867 0 0)
(0.74612157 0 0)
(0.74661218 0 0)
(0.74710199 0 0)
(0.74091515 0 0)
(0.74093391 0 0)
(0.7409898 0 0)
(0.74108202 0 0)
(0.74120969 0 0)
(0.7413719 0 0)
(0.74156768 0 0)
(0.74179575 0 0)
(0.74205484 0 0)
(0.74234335 0 0)
(0.7426597 0 0)
(0.74300194 0 0)
(0.74336815 0 0)
(0.74375597 0 0)
(0.74416311 0 0)
(0.74458684 0 0)
(0.74502447 0 0)
(0.74547288 0 0)
(0.74592897 0 0)
(0.74638937 0 0)
(0.74685018 0 0)
(0.74091515 0 0)
(0.74093338 0 0)
(0.74098767 0 0)
(0.74107724 0 0)
(0.74120132 0 0)
(0.74135889 0 0)
(0.741549 0 0)
(0.74177029 0 0)
(0.74202145 0 0)
(0.7423008 0 0)
(0.74260661 0 0)
(0.74293682 0 0)
(0.74328931 0 0)
(0.74366156 0 0)
(0.74405099 0 0)
(0.74445467 0 0)
(0.74486957 0 0)
(0.7452923 0 0)
(0.74571932 0 0)
(0.746147 0 0)
(0.74657539 0 0)
(0.74091515 0 0)
(0.74093279 0 0)
(0.74098532 0 0)
(0.74107202 0 0)
(0.7411921 0 0)
(0.74134461 0 0)
(0.74152845 0 0)
(0.74174234 0 0)
(0.74198479 0 0)
(0.74225415 0 0)
(0.74254849 0 0)
(0.74286569 0 0)
(0.74320336 0 0)
(0.74355889 0 0)
(0.74392935 0 0)
(0.74431168 0 0)
(0.74470244 0 0)
(0.74509802 0 0)
(0.74549445 0 0)
(0.74588769 0 0)
(0.74628126 0 0)
(0.74091515 0 0)
(0.74093214 0 0)
(0.74098276 0 0)
(0.74106631 0 0)
(0.74118202 0 0)
(0.74132894 0 0)
(0.74150592 0 0)
(0.74171163 0 0)
(0.74194455 0 0)
(0.74220295 0 0)
(0.74248479 0 0)
(0.74278784 0 0)
(0.74310952 0 0)
(0.74344707 0 0)
(0.74379733 0 0)
(0.74415699 0 0)
(0.74452233 0 0)
(0.74488945 0 0)
(0.74525405 0 0)
(0.74561169 0 0)
(0.74596873 0 0)
(0.74091515 0 0)
(0.74093144 0 0)
(0.74097997 0 0)
(0.74106008 0 0)
(0.74117101 0 0)
(0.74131179 0 0)
(0.74148124 0 0)
(0.741678 0 0)
(0.74190047 0 0)
(0.74214686 0 0)
(0.74241507 0 0)
(0.74270273 0 0)
(0.74300714 0 0)
(0.74332537 0 0)
(0.74365408 0 0)
(0.74398973 0 0)
(0.74432837 0 0)
(0.7446658 0 0)
(0.74499744 0 0)
(0.74531853 0 0)
(0.74563788 0 0)
(0.74091515 0 0)
(0.74093071 0 0)
(0.74097707 0 0)
(0.74105358 0 0)
(0.74115949 0 0)
(0.74129383 0 0)
(0.74145535 0 0)
(0.74164266 0 0)
(0.74185409 0 0)
(0.74208779 0 0)
(0.74234156 0 0)
(0.74261295 0 0)
(0.74289913 0 0)
(0.74319702 0 0)
(0.74350313 0 0)
(0.7438137 0 0)
(0.74412455 0 0)
(0.74443124 0 0)
(0.74472892 0 0)
(0.74501251 0 0)
(0.74529311 0 0)
(0.74091515 0 0)
(0.74093588 0 0)
(0.74099762 0 0)
(0.74109954 0 0)
(0.7412409 0 0)
(0.74142069 0 0)
(0.74163795 0 0)
(0.74189158 0 0)
(0.74218051 0 0)
(0.74250339 0 0)
(0.74285893 0 0)
(0.74324578 0 0)
(0.74366246 0 0)
(0.74410721 0 0)
(0.74457821 0 0)
(0.74507365 0 0)
(0.74559138 0 0)
(0.74612887 0 0)
(0.74668309 0 0)
(0.74725043 0 0)
(0.74792694 0 0)
(0.74091515 0 0)
(0.74093553 0 0)
(0.74099625 0 0)
(0.74109644 0 0)
(0.74123532 0 0)
(0.74141203 0 0)
(0.74162549 0 0)
(0.74187471 0 0)
(0.74215847 0 0)
(0.74247558 0 0)
(0.74282461 0 0)
(0.74320423 0 0)
(0.74361279 0 0)
(0.74404871 0 0)
(0.74451 0 0)
(0.74499484 0 0)
(0.74550095 0 0)
(0.74602607 0 0)
(0.7465672 0 0)
(0.74712129 0 0)
(0.74766164 0 0)
(0.74091515 0 0)
(0.7409352 0 0)
(0.74099492 0 0)
(0.74109347 0 0)
(0.74122996 0 0)
(0.74140362 0 0)
(0.74161336 0 0)
(0.74185816 0 0)
(0.74213676 0 0)
(0.74244796 0 0)
(0.74279027 0 0)
(0.74316228 0 0)
(0.74356227 0 0)
(0.74398857 0 0)
(0.74443918 0 0)
(0.74491215 0 0)
(0.74540521 0 0)
(0.74591608 0 0)
(0.74644219 0 0)
(0.74698103 0 0)
(0.74751326 0 0)
(0.74091515 0 0)
(0.74093483 0 0)
(0.74099343 0 0)
(0.7410901 0 0)
(0.74122399 0 0)
(0.74139421 0 0)
(0.74159981 0 0)
(0.74183962 0 0)
(0.74211245 0 0)
(0.74241691 0 0)
(0.74275158 0 0)
(0.74311481 0 0)
(0.74350492 0 0)
(0.74391996 0 0)
(0.74435798 0 0)
(0.74481673 0 0)
(0.74529396 0 0)
(0.74578711 0 0)
(0.74629366 0 0)
(0.74681082 0 0)
(0.74732495 0 0)
(0.74091515 0 0)
(0.7409344 0 0)
(0.74099173 0 0)
(0.74108631 0 0)
(0.74121723 0 0)
(0.74138367 0 0)
(0.74158459 0 0)
(0.74181885 0 0)
(0.74208515 0 0)
(0.74238206 0 0)
(0.74270803 0 0)
(0.74306134 0 0)
(0.74344012 0 0)
(0.7438423 0 0)
(0.74426573 0 0)
(0.74470797 0 0)
(0.74516655 0 0)
(0.74563867 0 0)
(0.74612157 0 0)
(0.74661218 0 0)
(0.74710199 0 0)
(0.74091515 0 0)
(0.74093391 0 0)
(0.7409898 0 0)
(0.74108202 0 0)
(0.74120969 0 0)
(0.7413719 0 0)
(0.74156768 0 0)
(0.74179575 0 0)
(0.74205484 0 0)
(0.74234335 0 0)
(0.7426597 0 0)
(0.74300194 0 0)
(0.74336815 0 0)
(0.74375597 0 0)
(0.74416311 0 0)
(0.74458684 0 0)
(0.74502447 0 0)
(0.74547288 0 0)
(0.74592897 0 0)
(0.74638937 0 0)
(0.74685018 0 0)
(0.74091515 0 0)
(0.74093338 0 0)
(0.74098767 0 0)
(0.74107724 0 0)
(0.74120132 0 0)
(0.74135889 0 0)
(0.741549 0 0)
(0.74177029 0 0)
(0.74202145 0 0)
(0.7423008 0 0)
(0.74260661 0 0)
(0.74293682 0 0)
(0.74328931 0 0)
(0.74366156 0 0)
(0.74405099 0 0)
(0.74445467 0 0)
(0.74486957 0 0)
(0.7452923 0 0)
(0.74571932 0 0)
(0.746147 0 0)
(0.74657539 0 0)
(0.74091515 0 0)
(0.74093279 0 0)
(0.74098532 0 0)
(0.74107202 0 0)
(0.7411921 0 0)
(0.74134461 0 0)
(0.74152845 0 0)
(0.74174234 0 0)
(0.74198479 0 0)
(0.74225415 0 0)
(0.74254849 0 0)
(0.74286569 0 0)
(0.74320336 0 0)
(0.74355889 0 0)
(0.74392935 0 0)
(0.74431168 0 0)
(0.74470244 0 0)
(0.74509802 0 0)
(0.74549445 0 0)
(0.74588769 0 0)
(0.74628126 0 0)
(0.74091515 0 0)
(0.74093214 0 0)
(0.74098276 0 0)
(0.74106631 0 0)
(0.74118202 0 0)
(0.74132894 0 0)
(0.74150592 0 0)
(0.74171163 0 0)
(0.74194455 0 0)
(0.74220295 0 0)
(0.74248479 0 0)
(0.74278784 0 0)
(0.74310952 0 0)
(0.74344707 0 0)
(0.74379733 0 0)
(0.74415699 0 0)
(0.74452233 0 0)
(0.74488945 0 0)
(0.74525405 0 0)
(0.74561169 0 0)
(0.74596873 0 0)
(0.74091515 0 0)
(0.74093144 0 0)
(0.74097997 0 0)
(0.74106008 0 0)
(0.74117101 0 0)
(0.74131179 0 0)
(0.74148124 0 0)
(0.741678 0 0)
(0.74190047 0 0)
(0.74214686 0 0)
(0.74241507 0 0)
(0.74270273 0 0)
(0.74300714 0 0)
(0.74332537 0 0)
(0.74365408 0 0)
(0.74398973 0 0)
(0.74432837 0 0)
(0.7446658 0 0)
(0.74499744 0 0)
(0.74531853 0 0)
(0.74563788 0 0)
(0.74091515 0 0)
(0.74093071 0 0)
(0.74097707 0 0)
(0.74105358 0 0)
(0.74115949 0 0)
(0.74129383 0 0)
(0.74145535 0 0)
(0.74164266 0 0)
(0.74185409 0 0)
(0.74208779 0 0)
(0.74234156 0 0)
(0.74261295 0 0)
(0.74289913 0 0)
(0.74319702 0 0)
(0.74350313 0 0)
(0.7438137 0 0)
(0.74412455 0 0)
(0.74443124 0 0)
(0.74472892 0 0)
(0.74501251 0 0)
(0.74529311 0 0)
(0.74091515 0 0)
(0.74094147 0 0)
(0.74101986 0 0)
(0.74114908 0 0)
(0.74132785 0 0)
(0.74155475 0 0)
(0.74182814 0 0)
(0.74214616 0 0)
(0.74250677 0 0)
(0.74290778 0 0)
(0.74334682 0 0)
(0.74382141 0 0)
(0.74432885 0 0)
(0.74486627 0 0)
(0.74543061 0 0)
(0.7460186 0 0)
(0.74662671 0 0)
(0.74725121 0 0)
(0.74788807 0 0)
(0.74853304 0 0)
(0.74923505 0 0)
(0.74091515 0 0)
(0.74094069 0 0)
(0.74101671 0 0)
(0.741142 0 0)
(0.74131528 0 0)
(0.74153517 0 0)
(0.74180009 0 0)
(0.74210829 0 0)
(0.74245789 0 0)
(0.74284686 0 0)
(0.74327303 0 0)
(0.74373406 0 0)
(0.74422742 0 0)
(0.74475038 0 0)
(0.74529999 0 0)
(0.74587313 0 0)
(0.7464664 0 0)
(0.74707617 0 0)
(0.74769854 0 0)
(0.74832933 0 0)
(0.74901849 0 0)
(0.74091515 0 0)
(0.74093998 0 0)
(0.74101387 0 0)
(0.74113566 0 0)
(0.7413041 0 0)
(0.74151787 0 0)
(0.74177545 0 0)
(0.74207523 0 0)
(0.74241544 0 0)
(0.74279422 0 0)
(0.7432095 0 0)
(0.7436591 0 0)
(0.74414059 0 0)
(0.74465139 0 0)
(0.74518872 0 0)
(0.74574958 0 0)
(0.74633075 0 0)
(0.74692876 0 0)
(0.74753982 0 0)
(0.74815986 0 0)
(0.74883797 0 0)
(0.74091515 0 0)
(0.74093932 0 0)
(0.74101125 0 0)
(0.74112982 0 0)
(0.74129386 0 0)
(0.74150208 0 0)
(0.74175308 0 0)
(0.74204533 0 0)
(0.74237719 0 0)
(0.7427469 0 0)
(0.74315253 0 0)
(0.743592 0 0)
(0.74406305 0 0)
(0.74456326 0 0)
(0.74509001 0 0)
(0.74564049 0 0)
(0.74621166 0 0)
(0.74680023 0 0)
(0.74740257 0 0)
(0.74801481 0 0)
(0.74868363 0 0)
(0.74091515 0 0)
(0.74093871 0 0)
(0.74100886 0 0)
(0.74112451 0 0)
(0.74128457 0 0)
(0.74148781 0 0)
(0.74173289 0 0)
(0.7420184 0 0)
(0.74234277 0 0)
(0.74270437 0 0)
(0.74310139 0 0)
(0.74353189 0 0)
(0.74399375 0 0)
(0.74448475 0 0)
(0.74500242 0 0)
(0.74554417 0 0)
(0.74610714 0 0)
(0.74668825 0 0)
(0.74728412 0 0)
(0.74789111 0 0)
(0.7485521 0 0)
(0.74091515 0 0)
(0.74093816 0 0)
(0.74100668 0 0)
(0.74111968 0 0)
(0.74127611 0 0)
(0.74147481 0 0)
(0.74171453 0 0)
(0.74199391 0 0)
(0.7423115 0 0)
(0.74266577 0 0)
(0.74305502 0 0)
(0.74347747 0 0)
(0.74393116 0 0)
(0.74441402 0 0)
(0.74492377 0 0)
(0.74545802 0 0)
(0.74601411 0 0)
(0.74658922 0 0)
(0.74718022 0 0)
(0.74778379 0 0)
(0.74843786 0 0)
(0.74091515 0 0)
(0.74093765 0 0)
(0.74100466 0 0)
(0.7411152 0 0)
(0.74126829 0 0)
(0.74146281 0 0)
(0.74169757 0 0)
(0.74197131 0 0)
(0.74228265 0 0)
(0.74263017 0 0)
(0.74301229 0 0)
(0.74342735 0 0)
(0.74387354 0 0)
(0.74434896 0 0)
(0.74485148 0 0)
(0.74537891 0 0)
(0.74592881 0 0)
(0.74649862 0 0)
(0.74708548 0 0)
(0.74768641 0 0)
(0.74833356 0 0)
(0.74091515 0 0)
(0.74093718 0 0)
(0.74100277 0 0)
(0.74111101 0 0)
(0.74126095 0 0)
(0.74145156 0 0)
(0.74168167 0 0)
(0.74195011 0 0)
(0.74225559 0 0)
(0.74259676 0 0)
(0.74297213 0 0)
(0.74338018 0 0)
(0.74381922 0 0)
(0.74428746 0 0)
(0.74478292 0 0)
(0.7453036 0 0)
(0.74584724 0 0)
(0.74641149 0 0)
(0.74699377 0 0)
(0.74759147 0 0)
(0.74823039 0 0)
(0.74091515 0 0)
(0.74093672 0 0)
(0.74100097 0 0)
(0.74110702 0 0)
(0.74125398 0 0)
(0.74144085 0 0)
(0.74166653 0 0)
(0.74192991 0 0)
(0.74222977 0 0)
(0.7425648 0 0)
(0.74293361 0 0)
(0.74333475 0 0)
(0.74376664 0 0)
(0.7442276 0 0)
(0.7447157 0 0)
(0.74522908 0 0)
(0.74576561 0 0)
(0.74632307 0 0)
(0.74689897 0 0)
(0.74749097 0 0)
(0.74811826 0 0)
(0.74091515 0 0)
(0.74093628 0 0)
(0.74099922 0 0)
(0.74110316 0 0)
(0.74124725 0 0)
(0.7414305 0 0)
(0.74165189 0 0)
(0.74191034 0 0)
(0.7422047 0 0)
(0.74253367 0 0)
(0.74289589 0 0)
(0.74329002 0 0)
(0.74371457 0 0)
(0.74416779 0 0)
(0.74464785 0 0)
(0.74515296 0 0)
(0.74568103 0 0)
(0.74622968 0 0)
(0.7467962 0 0)
(0.74737774 0 0)
(0.74798588 0 0)
(0.74091515 0 0)
(0.74094147 0 0)
(0.74101986 0 0)
(0.74114908 0 0)
(0.74132785 0 0)
(0.74155475 0 0)
(0.74182814 0 0)
(0.74214616 0 0)
(0.74250677 0 0)
(0.74290778 0 0)
(0.74334682 0 0)
(0.74382141 0 0)
(0.74432885 0 0)
(0.74486627 0 0)
(0.74543061 0 0)
(0.7460186 0 0)
(0.74662671 0 0)
(0.74725121 0 0)
(0.74788807 0 0)
(0.74853304 0 0)
(0.74923505 0 0)
(0.74091515 0 0)
(0.74094069 0 0)
(0.74101671 0 0)
(0.741142 0 0)
(0.74131528 0 0)
(0.74153517 0 0)
(0.74180009 0 0)
(0.74210829 0 0)
(0.74245789 0 0)
(0.74284686 0 0)
(0.74327303 0 0)
(0.74373406 0 0)
(0.74422742 0 0)
(0.74475038 0 0)
(0.74529999 0 0)
(0.74587313 0 0)
(0.7464664 0 0)
(0.74707617 0 0)
(0.74769854 0 0)
(0.74832933 0 0)
(0.74901849 0 0)
(0.74091515 0 0)
(0.74093998 0 0)
(0.74101387 0 0)
(0.74113566 0 0)
(0.7413041 0 0)
(0.74151787 0 0)
(0.74177545 0 0)
(0.74207523 0 0)
(0.74241544 0 0)
(0.74279422 0 0)
(0.7432095 0 0)
(0.7436591 0 0)
(0.74414059 0 0)
(0.74465139 0 0)
(0.74518872 0 0)
(0.74574958 0 0)
(0.74633075 0 0)
(0.74692876 0 0)
(0.74753982 0 0)
(0.74815986 0 0)
(0.74883797 0 0)
(0.74091515 0 0)
(0.74093932 0 0)
(0.74101125 0 0)
(0.74112982 0 0)
(0.74129386 0 0)
(0.74150208 0 0)
(0.74175308 0 0)
(0.74204533 0 0)
(0.74237719 0 0)
(0.7427469 0 0)
(0.74315253 0 0)
(0.743592 0 0)
(0.74406305 0 0)
(0.74456326 0 0)
(0.74509001 0 0)
(0.74564049 0 0)
(0.74621166 0 0)
(0.74680023 0 0)
(0.74740257 0 0)
(0.74801481 0 0)
(0.74868363 0 0)
(0.74091515 0 0)
(0.74093871 0 0)
(0.74100886 0 0)
(0.74112451 0 0)
(0.74128457 0 0)
(0.74148781 0 0)
(0.74173289 0 0)
(0.7420184 0 0)
(0.74234277 0 0)
(0.74270437 0 0)
(0.74310139 0 0)
(0.74353189 0 0)
(0.74399375 0 0)
(0.74448475 0 0)
(0.74500242 0 0)
(0.74554417 0 0)
(0.74610714 0 0)
(0.74668825 0 0)
(0.74728412 0 0)
(0.74789111 0 0)
(0.7485521 0 0)
(0.74091515 0 0)
(0.74093816 0 0)
(0.74100668 0 0)
(0.74111968 0 0)
(0.74127611 0 0)
(0.74147481 0 0)
(0.74171453 0 0)
(0.74199391 0 0)
(0.7423115 0 0)
(0.74266577 0 0)
(0.74305502 0 0)
(0.74347747 0 0)
(0.74393116 0 0)
(0.74441402 0 0)
(0.74492377 0 0)
(0.74545802 0 0)
(0.74601411 0 0)
(0.74658922 0 0)
(0.74718022 0 0)
(0.74778379 0 0)
(0.74843786 0 0)
(0.74091515 0 0)
(0.74093765 0 0)
(0.74100466 0 0)
(0.7411152 0 0)
(0.74126829 0 0)
(0.74146281 0 0)
(0.74169757 0 0)
(0.74197131 0 0)
(0.74228265 0 0)
(0.74263017 0 0)
(0.74301229 0 0)
(0.74342735 0 0)
(0.74387354 0 0)
(0.74434896 0 0)
(0.74485148 0 0)
(0.74537891 0 0)
(0.74592881 0 0)
(0.74649862 0 0)
(0.74708548 0 0)
(0.74768641 0 0)
(0.74833356 0 0)
(0.74091515 0 0)
(0.74093718 0 0)
(0.74100277 0 0)
(0.74111101 0 0)
(0.74126095 0 0)
(0.74145156 0 0)
(0.74168167 0 0)
(0.74195011 0 0)
(0.74225559 0 0)
(0.74259676 0 0)
(0.74297213 0 0)
(0.74338018 0 0)
(0.74381922 0 0)
(0.74428746 0 0)
(0.74478292 0 0)
(0.7453036 0 0)
(0.74584724 0 0)
(0.74641149 0 0)
(0.74699377 0 0)
(0.74759147 0 0)
(0.74823039 0 0)
(0.74091515 0 0)
(0.74093672 0 0)
(0.74100097 0 0)
(0.74110702 0 0)
(0.74125398 0 0)
(0.74144085 0 0)
(0.74166653 0 0)
(0.74192991 0 0)
(0.74222977 0 0)
(0.7425648 0 0)
(0.74293361 0 0)
(0.74333475 0 0)
(0.74376664 0 0)
(0.7442276 0 0)
(0.7447157 0 0)
(0.74522908 0 0)
(0.74576561 0 0)
(0.74632307 0 0)
(0.74689897 0 0)
(0.74749097 0 0)
(0.74811826 0 0)
(0.74091515 0 0)
(0.74093628 0 0)
(0.74099922 0 0)
(0.74110316 0 0)
(0.74124725 0 0)
(0.7414305 0 0)
(0.74165189 0 0)
(0.74191034 0 0)
(0.7422047 0 0)
(0.74253367 0 0)
(0.74289589 0 0)
(0.74329002 0 0)
(0.74371457 0 0)
(0.74416779 0 0)
(0.74464785 0 0)
(0.74515296 0 0)
(0.74568103 0 0)
(0.74622968 0 0)
(0.7467962 0 0)
(0.74737774 0 0)
(0.74798588 0 0)
(0.75004738 0 0)
(0.75090252 0 0)
(0.75173459 0 0)
(0.75252744 0 0)
(0.75326302 0 0)
(0.75392086 0 0)
(0.75447782 0 0)
(0.75490811 0 0)
(0.75518354 0 0)
(0.75527351 0 0)
(0.75514457 0 0)
(0.75475976 0 0)
(0.75408069 0 0)
(0.75306648 0 0)
(0.75167218 0 0)
(0.74984991 0 0)
(0.74755619 0 0)
(0.74475596 0 0)
(0.74140743 0 0)
(0.73746861 0 0)
(0.7328974 0 0)
(0.7276458 0 0)
(0.72166526 0 0)
(0.71491653 0 0)
(0.7073526 0 0)
(0.69890881 0 0)
(0.68952326 0 0)
(0.67914982 0 0)
(0.66772162 0 0)
(0.65513577 0 0)
(0.641308 0 0)
(0.62619534 0 0)
(0.60972908 0 0)
(0.59178038 0 0)
(0.57225953 0 0)
(0.55110158 0 0)
(0.5281457 0 0)
(0.50324255 0 0)
(0.47632601 0 0)
(0.4472555 0 0)
(0.41577265 0 0)
(0.38175597 0 0)
(0.34517303 0 0)
(0.30583676 0 0)
(0.26350754 0 0)
(0.21797779 0 0)
(0.16908135 0 0)
(0.1166241 0 0)
(0.060309412 0 0)
(0 0 0)
(0.74982105 0 0)
(0.75066853 0 0)
(0.75149469 0 0)
(0.75228414 0 0)
(0.75301971 0 0)
(0.75368175 0 0)
(0.7542475 0 0)
(0.75469058 0 0)
(0.75498189 0 0)
(0.7550905 0 0)
(0.75498217 0 0)
(0.7546194 0 0)
(0.75396369 0 0)
(0.75297382 0 0)
(0.75160378 0 0)
(0.7498055 0 0)
(0.74753635 0 0)
(0.74475949 0 0)
(0.74143199 0 0)
(0.73751256 0 0)
(0.73295989 0 0)
(0.72772539 0 0)
(0.72175964 0 0)
(0.71502345 0 0)
(0.70747101 0 0)
(0.69903744 0 0)
(0.68965995 0 0)
(0.67929264 0 0)
(0.66787025 0 0)
(0.65528965 0 0)
(0.64146523 0 0)
(0.62635421 0 0)
(0.60988933 0 0)
(0.59194155 0 0)
(0.57241972 0 0)
(0.55126098 0 0)
(0.52830281 0 0)
(0.50339561 0 0)
(0.47647361 0 0)
(0.44739589 0 0)
(0.41590076 0 0)
(0.38186732 0 0)
(0.34526794 0 0)
(0.30591554 0 0)
(0.26357021 0 0)
(0.21802531 0 0)
(0.16911678 0 0)
(0.11664883 0 0)
(0.060322276 0 0)
(0 0 0)
(0.74962909 0 0)
(0.75046605 0 0)
(0.75128388 0 0)
(0.75206784 0 0)
(0.7528016 0 0)
(0.75346657 0 0)
(0.75404034 0 0)
(0.75449631 0 0)
(0.75480507 0 0)
(0.75493481 0 0)
(0.75485066 0 0)
(0.75451482 0 0)
(0.75388842 0 0)
(0.75292943 0 0)
(0.75159113 0 0)
(0.74982553 0 0)
(0.7475899 0 0)
(0.74484597 0 0)
(0.74155015 0 0)
(0.7376608 0 0)
(0.73313684 0 0)
(0.72792957 0 0)
(0.72198921 0 0)
(0.7152758 0 0)
(0.70774413 0 0)
(0.69932975 0 0)
(0.68996955 0 0)
(0.679617 0 0)
(0.66820769 0 0)
(0.6556388 0 0)
(0.64182396 0 0)
(0.62671991 0 0)
(0.61026015 0 0)
(0.59231578 0 0)
(0.5727949 0 0)
(0.5516358 0 0)
(0.52867398 0 0)
(0.50376036 0 0)
(0.47682882 0 0)
(0.44773745 0 0)
(0.41622203 0 0)
(0.38216264 0 0)
(0.34553528 0 0)
(0.30615175 0 0)
(0.26377183 0 0)
(0.21819068 0 0)
(0.1692461 0 0)
(0.11673979 0 0)
(0.060369909 0 0)
(0 0 0)
(0.74946225 0 0)
(0.75028663 0 0)
(0.75109472 0 0)
(0.75187224 0 0)
(0.75260361 0 0)
(0.75327112 0 0)
(0.75385308 0 0)
(0.75432322 0 0)
(0.7546518 0 0)
(0.7548063 0 0)
(0.75475107 0 0)
(0.75444809 0 0)
(0.75385809 0 0)
(0.75293807 0 0)
(0.75164034 0 0)
(0.74991697 0 0)
(0.74772537 0 0)
(0.74502537 0 0)
(0.74177257 0 0)
(0.7379253 0 0)
(0.73344197 0 0)
(0.72827338 0 0)
(0.72236945 0 0)
(0.7156899 0 0)
(0.70818981 0 0)
(0.69980455 0 0)
(0.69047069 0 0)
(0.68014173 0 0)
(0.66875377 0 0)
(0.65620352 0 0)
(0.64240391 0 0)
(0.62731185 0 0)
(0.61086146 0 0)
(0.59292308 0 0)
(0.57340393 0 0)
(0.55224431 0 0)
(0.52927735 0 0)
(0.50435355 0 0)
(0.47740708 0 0)
(0.44829516 0 0)
(0.41675072 0 0)
(0.38265471 0 0)
(0.34598625 0 0)
(0.30655536 0 0)
(0.26412109 0 0)
(0.21848077 0 0)
(0.16947443 0 0)
(0.11690048 0 0)
(0.060454038 0 0)
(0 0 0)
(0.74931716 0 0)
(0.75012708 0 0)
(0.75092409 0 0)
(0.75169433 0 0)
(0.75242284 0 0)
(0.7530927 0 0)
(0.75368316 0 0)
(0.75416846 0 0)
(0.75451895 0 0)
(0.75470143 0 0)
(0.75467946 0 0)
(0.75441479 0 0)
(0.75386772 0 0)
(0.75299425 0 0)
(0.75174585 0 0)
(0.75007435 0 0)
(0.74793664 0 0)
(0.74529128 0 0)
(0.74209319 0 0)
(0.73829967 0 0)
(0.73386849 0 0)
(0.72875013 0 0)
(0.72289421 0 0)
(0.71625964 0 0)
(0.70880148 0 0)
(0.70045524 0 0)
(0.69115737 0 0)
(0.68086095 0 0)
(0.66950213 0 0)
(0.65697738 0 0)
(0.64319926 0 0)
(0.62812453 0 0)
(0.61168731 0 0)
(0.59375731 0 0)
(0.57424139 0 0)
(0.55308096 0 0)
(0.53010706 0 0)
(0.5051701 0 0)
(0.47820385 0 0)
(0.44906419 0 0)
(0.41748213 0 0)
(0.38333968 0 0)
(0.34661756 0 0)
(0.30712316 0 0)
(0.26461501 0 0)
(0.21889333 0 0)
(0.16980005 0 0)
(0.11712951 0 0)
(0.060573944 0 0)
(0 0 0)
(0.74918813 0 0)
(0.74998153 0 0)
(0.75076592 0 0)
(0.75152792 0 0)
(0.75225303 0 0)
(0.7529251 0 0)
(0.75352423 0 0)
(0.75402578 0 0)
(0.75440003 0 0)
(0.75461305 0 0)
(0.75462815 0 0)
(0.75440698 0 0)
(0.75390902 0 0)
(0.75308937 0 0)
(0.75189874 0 0)
(0.75028847 0 0)
(0.74821473 0 0)
(0.74563444 0 0)
(0.74250215 0 0)
(0.73877423 0 0)
(0.73440722 0 0)
(0.72935066 0 0)
(0.72355386 0 0)
(0.71697561 0 0)
(0.7095704 0 0)
(0.70127315 0 0)
(0.69202038 0 0)
(0.68176553 0 0)
(0.67044443 0 0)
(0.65795227 0 0)
(0.64420129 0 0)
(0.62914924 0 0)
(0.61272986 0 0)
(0.5948109 0 0)
(0.57529928 0 0)
(0.55413821 0 0)
(0.5311562 0 0)
(0.5062028 0 0)
(0.47921198 0 0)
(0.45003837 0 0)
(0.41841063 0 0)
(0.38421196 0 0)
(0.34742386 0 0)
(0.30785065 0 0)
(0.26524996 0 0)
(0.21942519 0 0)
(0.17022028 0 0)
(0.11742512 0 0)
(0.060728712 0 0)
(0 0 0)
(0.74906745 0 0)
(0.74984209 0 0)
(0.75061205 0 0)
(0.75136453 0 0)
(0.75208552 0 0)
(0.75275945 0 0)
(0.75336764 0 0)
(0.75388601 0 0)
(0.75428513 0 0)
(0.75453105 0 0)
(0.75458678 0 0)
(0.75441364 0 0)
(0.75397053 0 0)
(0.75321176 0 0)
(0.75208712 0 0)
(0.75054702 0 0)
(0.74854672 0 0)
(0.74604232 0 0)
(0.74298705 0 0)
(0.73933622 0 0)
(0.73504526 0 0)
(0.73006246 0 0)
(0.72433643 0 0)
(0.71782561 0 0)
(0.71048416 0 0)
(0.70224629 0 0)
(0.69304836 0 0)
(0.68284408 0 0)
(0.67156894 0 0)
(0.65911668 0 0)
(0.64539931 0 0)
(0.63037535 0 0)
(0.61397806 0 0)
(0.59607313 0 0)
(0.57656747 0 0)
(0.55540578 0 0)
(0.53241468 0 0)
(0.5074426 0 0)
(0.48042284 0 0)
(0.4512089 0 0)
(0.41952815 0 0)
(0.38526445 0 0)
(0.34839877 0 0)
(0.30873173 0 0)
(0.26602048 0 0)
(0.22007205 0 0)
(0.17073189 0 0)
(0.11778486 0 0)
(0.060916979 0 0)
(0 0 0)
(0.74894565 0 0)
(0.74969908 0 0)
(0.75045268 0 0)
(0.75119432 0 0)
(0.75191033 0 0)
(0.75258584 0 0)
(0.75320268 0 0)
(0.75373805 0 0)
(0.7541629 0 0)
(0.75444331 0 0)
(0.75454251 0 0)
(0.75442161 0 0)
(0.75403873 0 0)
(0.75334729 0 0)
(0.75229615 0 0)
(0.75083482 0 0)
(0.74891768 0 0)
(0.74649942 0 0)
(0.74353219 0 0)
(0.73997028 0 0)
(0.73576758 0 0)
(0.73087039 0 0)
(0.7252266 0 0)
(0.71879478 0 0)
(0.71152845 0 0)
(0.70336038 0 0)
(0.69422672 0 0)
(0.68408231 0 0)
(0.67286204 0 0)
(0.66045718 0 0)
(0.64677951 0 0)
(0.63178932 0 0)
(0.61541925 0 0)
(0.59753162 0 0)
(0.5780333 0 0)
(0.55687164 0 0)
(0.53387094 0 0)
(0.508878 0 0)
(0.48182538 0 0)
(0.45256559 0 0)
(0.42082518 0 0)
(0.38648815 0 0)
(0.34953377 0 0)
(0.30975899 0 0)
(0.26692028 0 0)
(0.22082855 0 0)
(0.17133059 0 0)
(0.11820579 0 0)
(0.061137206 0 0)
(0 0 0)
(0.74881147 0 0)
(0.74954128 0 0)
(0.75027705 0 0)
(0.75100668 0 0)
(0.75171689 0 0)
(0.7523931 0 0)
(0.75301807 0 0)
(0.75356975 0 0)
(0.75402029 0 0)
(0.7543363 0 0)
(0.75448115 0 0)
(0.75441581 0 0)
(0.75409792 0 0)
(0.75347991 0 0)
(0.75250946 0 0)
(0.75113504 0 0)
(0.74931019 0 0)
(0.74698846 0 0)
(0.74412006 0 0)
(0.74065857 0 0)
(0.73655627 0 0)
(0.73175687 0 0)
(0.72620721 0 0)
(0.71986603 0 0)
(0.71268614 0 0)
(0.70459857 0 0)
(0.6955392 0 0)
(0.68546397 0 0)
(0.67430717 0 0)
(0.66195749 0 0)
(0.64832642 0 0)
(0.633376 0 0)
(0.61703805 0 0)
(0.59917124 0 0)
(0.57968247 0 0)
(0.5585213 0 0)
(0.53551074 0 0)
(0.51049592 0 0)
(0.48340717 0 0)
(0.45409621 0 0)
(0.42229026 0 0)
(0.38787266 0 0)
(0.35081928 0 0)
(0.31092345 0 0)
(0.26794159 0 0)
(0.22168837 0 0)
(0.17201143 0 0)
(0.11868431 0 0)
(0.061387469 0 0)
(0 0 0)
(0.74865171 0 0)
(0.74935673 0 0)
(0.75007428 0 0)
(0.75079096 0 0)
(0.75149393 0 0)
(0.75216982 0 0)
(0.75280185 0 0)
(0.75336906 0 0)
(0.75384467 0 0)
(0.75419653 0 0)
(0.75438863 0 0)
(0.75438197 0 0)
(0.75413345 0 0)
(0.75359452 0 0)
(0.7527116 0 0)
(0.75143194 0 0)
(0.74970836 0 0)
(0.74749269 0 0)
(0.74473414 0 0)
(0.74138536 0 0)
(0.73739595 0 0)
(0.73270637 0 0)
(0.72726269 0 0)
(0.72102423 0 0)
(0.71394267 0 0)
(0.70594654 0 0)
(0.69697136 0 0)
(0.68697481 0 0)
(0.67589065 0 0)
(0.66360417 0 0)
(0.65002638 0 0)
(0.63512195 0 0)
(0.61882165 0 0)
(0.60097951 0 0)
(0.58150217 0 0)
(0.5603423 0 0)
(0.53732185 0 0)
(0.51228435 0 0)
(0.48515667 0 0)
(0.45578969 0 0)
(0.42391297 0 0)
(0.38940806 0 0)
(0.35224574 0 0)
(0.31221658 0 0)
(0.26907704 0 0)
(0.22264524 0 0)
(0.17276934 0 0)
(0.1192169 0 0)
(0.061665894 0 0)
(0 0 0)
(0.74862235 0 0)
(0.74929714 0 0)
(0.7499863 0 0)
(0.75067703 0 0)
(0.75135854 0 0)
(0.75201819 0 0)
(0.75263953 0 0)
(0.75320167 0 0)
(0.75367933 0 0)
(0.75404185 0 0)
(0.75425453 0 0)
(0.75427906 0 0)
(0.75407213 0 0)
(0.75358426 0 0)
(0.75276098 0 0)
(0.75154928 0 0)
(0.74990129 0 0)
(0.74776798 0 0)
(0.74509742 0 0)
(0.74184081 0 0)
(0.73794543 0 0)
(0.73335001 0 0)
(0.72799973 0 0)
(0.7218533 0 0)
(0.71486175 0 0)
(0.70695161 0 0)
(0.69805749 0 0)
(0.68813802 0 0)
(0.67712701 0 0)
(0.66490762 0 0)
(0.65138945 0 0)
(0.63653814 0 0)
(0.62028419 0 0)
(0.60247914 0 0)
(0.58302718 0 0)
(0.56188302 0 0)
(0.53886974 0 0)
(0.51382755 0 0)
(0.48667992 0 0)
(0.45727703 0 0)
(0.42535281 0 0)
(0.3907838 0 0)
(0.35353583 0 0)
(0.31339702 0 0)
(0.27012364 0 0)
(0.22353626 0 0)
(0.17348302 0 0)
(0.11972556 0 0)
(0.061939297 0 0)
(0 0 0)
(0.75004738 0 0)
(0.75090252 0 0)
(0.75173459 0 0)
(0.75252744 0 0)
(0.75326302 0 0)
(0.75392086 0 0)
(0.75447782 0 0)
(0.75490811 0 0)
(0.75518354 0 0)
(0.75527351 0 0)
(0.75514457 0 0)
(0.75475976 0 0)
(0.75408069 0 0)
(0.75306648 0 0)
(0.75167218 0 0)
(0.74984991 0 0)
(0.74755619 0 0)
(0.74475596 0 0)
(0.74140743 0 0)
(0.73746861 0 0)
(0.7328974 0 0)
(0.7276458 0 0)
(0.72166526 0 0)
(0.71491653 0 0)
(0.7073526 0 0)
(0.69890881 0 0)
(0.68952326 0 0)
(0.67914982 0 0)
(0.66772162 0 0)
(0.65513577 0 0)
(0.641308 0 0)
(0.62619534 0 0)
(0.60972908 0 0)
(0.59178038 0 0)
(0.57225953 0 0)
(0.55110158 0 0)
(0.5281457 0 0)
(0.50324255 0 0)
(0.47632601 0 0)
(0.4472555 0 0)
(0.41577265 0 0)
(0.38175597 0 0)
(0.34517303 0 0)
(0.30583676 0 0)
(0.26350754 0 0)
(0.21797779 0 0)
(0.16908135 0 0)
(0.1166241 0 0)
(0.060309412 0 0)
(0 0 0)
(0.74982105 0 0)
(0.75066853 0 0)
(0.75149469 0 0)
(0.75228414 0 0)
(0.75301971 0 0)
(0.75368175 0 0)
(0.7542475 0 0)
(0.75469058 0 0)
(0.75498189 0 0)
(0.7550905 0 0)
(0.75498217 0 0)
(0.7546194 0 0)
(0.75396369 0 0)
(0.75297382 0 0)
(0.75160378 0 0)
(0.7498055 0 0)
(0.74753635 0 0)
(0.74475949 0 0)
(0.74143199 0 0)
(0.73751256 0 0)
(0.73295989 0 0)
(0.72772539 0 0)
(0.72175964 0 0)
(0.71502345 0 0)
(0.70747101 0 0)
(0.69903744 0 0)
(0.68965995 0 0)
(0.67929264 0 0)
(0.66787025 0 0)
(0.65528965 0 0)
(0.64146523 0 0)
(0.62635421 0 0)
(0.60988933 0 0)
(0.59194155 0 0)
(0.57241972 0 0)
(0.55126098 0 0)
(0.52830281 0 0)
(0.50339561 0 0)
(0.47647361 0 0)
(0.44739589 0 0)
(0.41590076 0 0)
(0.38186732 0 0)
(0.34526794 0 0)
(0.30591554 0 0)
(0.26357021 0 0)
(0.21802531 0 0)
(0.16911678 0 0)
(0.11664883 0 0)
(0.060322276 0 0)
(0 0 0)
(0.74962909 0 0)
(0.75046605 0 0)
(0.75128388 0 0)
(0.75206784 0 0)
(0.7528016 0 0)
(0.75346657 0 0)
(0.75404034 0 0)
(0.75449631 0 0)
(0.75480507 0 0)
(0.75493481 0 0)
(0.75485066 0 0)
(0.75451482 0 0)
(0.75388842 0 0)
(0.75292943 0 0)
(0.75159113 0 0)
(0.74982553 0 0)
(0.7475899 0 0)
(0.74484597 0 0)
(0.74155015 0 0)
(0.7376608 0 0)
(0.73313684 0 0)
(0.72792957 0 0)
(0.72198921 0 0)
(0.7152758 0 0)
(0.70774413 0 0)
(0.69932975 0 0)
(0.68996955 0 0)
(0.679617 0 0)
(0.66820769 0 0)
(0.6556388 0 0)
(0.64182396 0 0)
(0.62671991 0 0)
(0.61026015 0 0)
(0.59231578 0 0)
(0.5727949 0 0)
(0.5516358 0 0)
(0.52867398 0 0)
(0.50376036 0 0)
(0.47682882 0 0)
(0.44773745 0 0)
(0.41622203 0 0)
(0.38216264 0 0)
(0.34553528 0 0)
(0.30615175 0 0)
(0.26377183 0 0)
(0.21819068 0 0)
(0.1692461 0 0)
(0.11673979 0 0)
(0.060369909 0 0)
(0 0 0)
(0.74946225 0 0)
(0.75028663 0 0)
(0.75109472 0 0)
(0.75187224 0 0)
(0.75260361 0 0)
(0.75327112 0 0)
(0.75385308 0 0)
(0.75432322 0 0)
(0.7546518 0 0)
(0.7548063 0 0)
(0.75475107 0 0)
(0.75444809 0 0)
(0.75385809 0 0)
(0.75293807 0 0)
(0.75164034 0 0)
(0.74991697 0 0)
(0.74772537 0 0)
(0.74502537 0 0)
(0.74177257 0 0)
(0.7379253 0 0)
(0.73344197 0 0)
(0.72827338 0 0)
(0.72236945 0 0)
(0.7156899 0 0)
(0.70818981 0 0)
(0.69980455 0 0)
(0.69047069 0 0)
(0.68014173 0 0)
(0.66875377 0 0)
(0.65620352 0 0)
(0.64240391 0 0)
(0.62731185 0 0)
(0.61086146 0 0)
(0.59292308 0 0)
(0.57340393 0 0)
(0.55224431 0 0)
(0.52927735 0 0)
(0.50435355 0 0)
(0.47740708 0 0)
(0.44829516 0 0)
(0.41675072 0 0)
(0.38265471 0 0)
(0.34598625 0 0)
(0.30655536 0 0)
(0.26412109 0 0)
(0.21848077 0 0)
(0.16947443 0 0)
(0.11690048 0 0)
(0.060454038 0 0)
(0 0 0)
(0.74931716 0 0)
(0.75012708 0 0)
(0.75092409 0 0)
(0.75169433 0 0)
(0.75242284 0 0)
(0.7530927 0 0)
(0.75368316 0 0)
(0.75416846 0 0)
(0.75451895 0 0)
(0.75470143 0 0)
(0.75467946 0 0)
(0.75441479 0 0)
(0.75386772 0 0)
(0.75299425 0 0)
(0.75174585 0 0)
(0.75007435 0 0)
(0.74793664 0 0)
(0.74529128 0 0)
(0.74209319 0 0)
(0.73829967 0 0)
(0.73386849 0 0)
(0.72875013 0 0)
(0.72289421 0 0)
(0.71625964 0 0)
(0.70880148 0 0)
(0.70045524 0 0)
(0.69115737 0 0)
(0.68086095 0 0)
(0.66950213 0 0)
(0.65697738 0 0)
(0.64319926 0 0)
(0.62812453 0 0)
(0.61168731 0 0)
(0.59375731 0 0)
(0.57424139 0 0)
(0.55308096 0 0)
(0.53010706 0 0)
(0.5051701 0 0)
(0.47820385 0 0)
(0.44906419 0 0)
(0.41748213 0 0)
(0.38333968 0 0)
(0.34661756 0 0)
(0.30712316 0 0)
(0.26461501 0 0)
(0.21889333 0 0)
(0.16980005 0 0)
(0.11712951 0 0)
(0.060573944 0 0)
(0 0 0)
(0.74918813 0 0)
(0.74998153 0 0)
(0.75076592 0 0)
(0.75152792 0 0)
(0.75225303 0 0)
(0.7529251 0 0)
(0.75352423 0 0)
(0.75402578 0 0)
(0.75440003 0 0)
(0.75461305 0 0)
(0.75462815 0 0)
(0.75440698 0 0)
(0.75390902 0 0)
(0.75308937 0 0)
(0.75189874 0 0)
(0.75028847 0 0)
(0.74821473 0 0)
(0.74563444 0 0)
(0.74250215 0 0)
(0.73877423 0 0)
(0.73440722 0 0)
(0.72935066 0 0)
(0.72355386 0 0)
(0.71697561 0 0)
(0.7095704 0 0)
(0.70127315 0 0)
(0.69202038 0 0)
(0.68176553 0 0)
(0.67044443 0 0)
(0.65795227 0 0)
(0.64420129 0 0)
(0.62914924 0 0)
(0.61272986 0 0)
(0.5948109 0 0)
(0.57529928 0 0)
(0.55413821 0 0)
(0.5311562 0 0)
(0.5062028 0 0)
(0.47921198 0 0)
(0.45003837 0 0)
(0.41841063 0 0)
(0.38421196 0 0)
(0.34742386 0 0)
(0.30785065 0 0)
(0.26524996 0 0)
(0.21942519 0 0)
(0.17022028 0 0)
(0.11742512 0 0)