/*--------------------------------*- C++ -*----------------------------------*\
| =========                 |                                                 |
| \\      /  F ield         | OpenFOAM: The Open Source CFD Toolbox           |
|  \\    /   O peration     | Version:  v2012                                 |
|   \\  /    A nd           | Website:  www.openfoam.com                      |
|    \\/     M anipulation  |                                                 |
\*---------------------------------------------------------------------------*/
FoamFile
{
    version     2.0;
    format      ascii;
    class       surfaceVectorField;
    location    "89.9137842149523294";
    object      Uf;
}
// * * * * * * * * * * * * * * * * * * * * * * * * * * * * * * * * * * * * * //

dimensions      [0 1 -1 0 0 0 0];


internalField   nonuniform List<vector> 
18180
(
(2.5425964 0.012624937 5.1535957e-22)
(2.5360451 0.0044461653 1.2041697e-22)
(2.5359613 0.023876063 2.4386811e-22)
(2.5311346 0.014351036 1.2144168e-22)
(2.5284786 0.0067117348 -2.5966047e-22)
(2.5305334 0.0026134261 -1.1869128e-22)
(2.5262696 0.033181718 -2.173921e-22)
(2.5244273 0.021294018 -4.0371815e-22)
(2.5232108 0.012108412 -5.3007006e-22)
(2.5263976 0.0082220452 -1.9080309e-22)
(2.526833 0.0044589251 -5.5832118e-23)
(2.5269983 0.0015023403 -3.3470134e-22)
(2.5135448 0.040383949 1.1025538e-23)
(2.5144182 0.027329644 2.1691239e-22)
(2.5156928 0.016029564 8.5580816e-23)
(2.5207503 0.01168692 -1.7305071e-24)
(2.522327 0.0078824065 3.1257161e-22)
(2.523497 0.0047252423 5.8662339e-22)
(2.5239968 0.0020089241 3.3186864e-22)
(2.5254607 0.00048874488 4.1819387e-23)
(2.4985081 0.044962774 5.3568543e-24)
(2.502704 0.030723555 -1.8065186e-22)
(2.5060411 0.018126377 4.8144656e-23)
(2.5123208 0.014165798 7.6992905e-23)
(2.5158079 0.010073041 -5.1313018e-23)
(2.5187688 0.0063441096 3.907773e-22)
(2.5202217 0.0032385001 6.5229216e-22)
(2.5224927 0.0015433627 1.0601263e-22)
(2.5237219 0.00015431621 -1.7302589e-22)
(2.5253468 -0.00030280738 1.4087548e-22)
(2.4816327 0.046679085 -1.3769311e-22)
(2.4893617 0.031936299 -4.3126351e-25)
(2.4950723 0.018243796 -1.7716231e-22)
(2.5025881 0.014552993 -2.574843e-22)
(2.5074736 0.010686669 -2.6301965e-22)
(2.5117332 0.0069883231 -6.0223833e-22)
(2.5148514 0.0034510487 -1.9105221e-22)
(2.5185876 0.0014674755 1.5300104e-22)
(2.5205835 -0.0002109014 -3.7664523e-22)
(2.5227833 -0.00098014373 -2.9700915e-22)
(2.5243475 -0.0013811114 0)
(2.5263325 -0.00090800884 0)
(2.4635852 0.045297579 -4.3937766e-22)
(2.4751854 0.030540243 -3.2923878e-22)
(2.4832432 0.016297555 -2.0189997e-22)
(2.4916066 0.013149767 2.4677567e-22)
(2.4980243 0.0095897423 1.7719678e-22)
(2.5037343 0.0059923287 6.8206532e-23)
(2.5080505 0.0023771623 -2.4046915e-22)
(2.5127461 0.0004638925 -5.0949935e-22)
(2.5161409 -0.0014313993 -1.9050143e-22)
(2.5196235 -0.0023585775 -4.0150646e-23)
(2.5217316 -0.0031501585 4.2304095e-23)
(2.5241351 -0.0030981051 7.1706572e-23)
(2.5260006 -0.0026223275 7.2835309e-23)
(2.5281395 -0.0014019955 -1.7262847e-22)
(2.4450831 0.040708771 6.2998435e-23)
(2.4607214 0.026541639 -1.1928413e-21)
(2.4712097 0.012257985 -1.1001193e-21)
(2.4801526 0.0097832316 -4.8447626e-22)
(2.4878552 0.0066964754 -6.3773369e-23)
(2.494823 0.0034307174 1.0058129e-22)
(2.5004516 -6.5091377e-05 3.5826755e-24)
(2.5061885 -0.0017615585 4.111178e-22)
(2.5105127 -0.003660711 1.6330057e-22)
(2.5147679 -0.0046246495 3.3797578e-22)
(2.5180877 -0.0055307372 4.9166048e-22)
(2.5215702 -0.0055434471 9.8026443e-23)
(2.5238353 -0.0055689672 1.2757556e-22)
(2.5263079 -0.0048707373 6.9234317e-23)
(2.5283425 -0.0036936021 -1.6395911e-22)
(2.5305968 -0.0018501468 -4.5525433e-22)
(2.4268964 0.033004543 -3.1388785e-22)
(2.4466043 0.019954092 3.4959148e-22)
(2.4595074 0.0062137977 -8.3857017e-22)
(2.4686583 0.0045167551 -1.1062546e-21)
(2.4774886 0.002069974 -5.2251134e-22)
(2.4856436 -0.00067260656 -1.0350005e-22)
(2.4923762 -0.00388388 5.1975581e-23)
(2.4989207 -0.0052895538 -4.2958255e-22)
(2.5042674 -0.0069737937 -5.3603893e-23)
(2.5093991 -0.0077370839 1.1275433e-23)
(2.5134582 -0.0087223916 1.7650292e-22)
(2.5175594 -0.0088665489 3.4900705e-22)
(2.5208439 -0.0089162244 -2.640828e-23)
(2.5242111 -0.0082028791 -3.2407883e-22)
(2.5265645 -0.0076086943 -3.8660442e-22)
(2.5290946 -0.0063643567 -3.4766552e-23)
(2.5312415 -0.0046091959 -3.0953398e-22)
(2.5335574 -0.0022349599 -3.6110383e-22)
(2.4098284 0.022449272 -2.6357171e-22)
(2.4333545 0.011043023 -7.205759e-22)
(2.4486607 -0.0016755651 -5.6188704e-23)
(2.4576724 -0.002400225 2.0549668e-22)
(2.4673283 -0.004116888 -3.2182485e-23)
(2.4765027 -0.0062532088 1.1271992e-23)
(2.4842456 -0.0089813108 4.1969717e-22)
(2.4914868 -0.0099438017 3.6595345e-22)
(2.4976497 -0.011365722 -8.8151913e-23)
(2.5034689 -0.011947538 -6.1176967e-22)
(2.5083628 -0.012746774 -5.5896754e-22)
(2.5131624 -0.012696843 -5.5755435e-22)
(2.5170404 -0.012890996 -4.053003e-22)
(2.5209142 -0.012405476 -2.208986e-22)
(2.5241127 -0.011780221 -5.0668155e-22)
(2.5273878 -0.01045366 -3.5457327e-22)
(2.5297975 -0.0093309235 -2.0030875e-23)
(2.5323391 -0.0076173559 5.6509284e-23)
(2.5345515 -0.0053720841 1.3322737e-23)
(2.5368889 -0.0025451111 2.1035919e-23)
(2.3945587 0.0092361721 5.8909251e-22)
(2.4217731 -3.8598495e-05 -1.6499998e-22)
(2.4390049 -0.01122053 -6.2373113e-22)
(2.447663 -0.010696542 -5.1257738e-22)
(2.4577579 -0.011570386 -2.3699684e-22)
(2.4677703 -0.013027803 -1.9441074e-22)
(2.4763462 -0.015197492 -1.5384768e-22)
(2.4841162 -0.015727719 -2.7747798e-22)
(2.4910034 -0.01674602 -3.4085404e-22)
(2.4974408 -0.016974486 -4.5587506e-23)
(2.502992 -0.017601747 -5.4223741e-22)
(2.5083221 -0.01745909 7.3768257e-23)
(2.5128712 -0.017487897 8.5105245e-23)
(2.5173114 -0.016831542 -3.4488452e-23)
(2.5209949 -0.016416488 1.4650045e-22)
(2.5246911 -0.015399867 3.3878556e-23)
(2.5278041 -0.014207954 1.8686197e-22)
(2.5309728 -0.012353718 1.412597e-22)
(2.5334002 -0.0107766 2.1623796e-22)
(2.5359242 -0.0086554407 2.0385365e-22)
(2.5381614 -0.0059931483 2.1420933e-22)
(2.5404771 -0.0027885975 1.954355e-23)
(2.3812975 -0.0061431852 -8.3211111e-22)
(2.4118288 -0.012617091 -1.6230291e-23)
(2.4303731 -0.021757886 -8.0211747e-22)
(2.4386545 -0.020197277 -8.7178297e-22)
(2.4489859 -0.019856878 -7.3809624e-22)
(2.4596603 -0.020754085 -3.0080662e-22)
(2.4689104 -0.022306403 -2.6136621e-22)
(2.4770743 -0.022370312 -8.1452132e-23)
(2.4845379 -0.022982236 -1.9893058e-22)
(2.4914912 -0.02289303 -3.2601312e-22)
(2.4976331 -0.023205673 -4.4800285e-23)
(2.5034284 -0.022778072 -5.7997873e-23)
(2.5084951 -0.022704934 5.3472186e-22)
(2.5133564 -0.02204588 4.4543266e-22)
(2.5175822 -0.021501975 3.3743565e-22)
(2.5217419 -0.020343105 2.2669422e-22)
(2.5252574 -0.019415541 1.2099389e-22)
(2.528786 -0.017935884 2.5741382e-22)
(2.5318051 -0.016256772 2.1465098e-22)
(2.5348615 -0.013938922 6.9330718e-23)
(2.5372764 -0.011968274 5.4987149e-23)
(2.5397507 -0.009494094 3.6837208e-23)
(2.5419714 -0.0064848423 -1.5082762e-22)
(2.5442254 -0.0029746567 -3.942534e-23)
(2.3702997 -0.023210008 -1.0412693e-21)
(2.4035849 -0.026236416 1.4006003e-22)
(2.4229105 -0.032674328 9.3038466e-22)
(2.4305202 -0.030091842 -7.4201286e-23)
(2.4411907 -0.028668902 -1.2879578e-22)
(2.4522893 -0.029043399 -2.100347e-22)
(2.4620637 -0.030056374 2.136958e-22)
(2.4704999 -0.02971587 4.7515742e-22)
(2.4784174 -0.029900976 6.5771523e-22)
(2.4858185 -0.029450627 9.766481e-22)
(2.4924544 -0.029458429 8.7505755e-22)
(2.4986315 -0.028791066 5.8353315e-22)
(2.504158 -0.028470614 5.8015775e-22)
(2.5093759 -0.02759688 -2.6028655e-22)
(2.5140098 -0.027024115 -3.5773644e-22)
(2.5185006 -0.025949523 -4.4733194e-22)
(2.5224593 -0.024932165 -5.6488798e-22)
(2.5263812 -0.023340019 -4.7210007e-23)
(2.5297433 -0.021968005 7.940086e-23)
(2.533121 -0.020067808 2.844535e-22)
(2.5360379 -0.017959806 1.4765993e-22)
(2.5389656 -0.015231422 -4.4287139e-23)
(2.5413375 -0.012921129 -6.3329181e-23)
(2.5437297 -0.010145375 -7.3520881e-23)
(2.5458954 -0.0068561307 3.3650051e-23)
(2.5480512 -0.0031082366 -1.5906938e-22)
(2.3620384 -0.041403189 1.4639059e-21)
(2.3973528 -0.040567419 -1.4456313e-21)
(2.4170784 -0.043718428 -3.3001232e-22)
(2.4237962 -0.040257467 1.2975822e-21)
(2.4345579 -0.037893719 3.9424496e-22)
(2.4457756 -0.037715589 -2.0521843e-22)
(2.4558549 -0.03820039 -2.8359824e-22)
(2.4644633 -0.037522844 -5.11391e-22)
(2.4727164 -0.037319308 -2.7454903e-22)
(2.48052 -0.036567941 3.9309779e-22)
(2.487586 -0.036245008 6.9182845e-22)
(2.4941012 -0.035265607 7.9957305e-22)
(2.5000132 -0.034707624 5.2076291e-22)
(2.5055084 -0.033663914 6.6147717e-22)
(2.5104918 -0.03291177 -1.3492111e-22)
(2.5152396 -0.031702696 1.1942224e-22)
(2.5195189 -0.030729203 4.1581664e-23)
(2.5237138 -0.029305218 -3.7028255e-22)
(2.5274503 -0.02788086 1.2394302e-22)
(2.5311813 -0.025891253 2.7250606e-22)
(2.5344033 -0.024118058 4.7012648e-22)
(2.537633 -0.021827075 5.4994441e-22)
(2.5404324 -0.019338488 3.7336746e-22)
(2.5432089 -0.016247712 6.4036109e-23)
(2.5455065 -0.013647963 5.6481558e-23)
(2.547783 -0.010621018 -1.0704534e-23)
(2.5498584 -0.0071150241 -1.9451664e-22)
(2.551884 -0.0031930031 1.0354251e-22)
(2.3567907 -0.060121968 1.0581941e-21)
(2.393318 -0.055135288 2.1406765e-21)
(2.4129752 -0.054572547 -6.1215334e-22)
(2.4185843 -0.05034946 -1.1744782e-21)
(2.4291376 -0.047152416 4.0024772e-22)
(2.440162 -0.046491757 9.2749412e-22)
(2.4502724 -0.04645271 3.8237453e-22)
(2.4589606 -0.04558376 -2.2821568e-22)
(2.4674418 -0.045056269 -4.4369914e-22)
(2.4756327 -0.044070287 -3.4693353e-22)
(2.4830861 -0.043459361 2.8606586e-22)
(2.4899303 -0.042183324 3.8063369e-22)
(2.4961899 -0.041339016 4.7967351e-22)
(2.5019161 -0.04001983 4.1070608e-23)
(2.5071772 -0.039090693 1.6765065e-22)
(2.5120866 -0.037800332 4.9887288e-22)
(2.5166184 -0.036724137 7.5012495e-22)
(2.5210038 -0.03525874 7.0707767e-22)
(2.5250024 -0.033950944 3.2592473e-22)
(2.5289835 -0.032203481 -1.958122e-22)
(2.5325402 -0.030406977 -5.9531249e-23)
(2.5361093 -0.028035929 2.147608e-22)
(2.5391947 -0.025892009 2.8620302e-22)
(2.5422679 -0.023234399 4.1094669e-22)
(2.544928 -0.020409058 1.1775946e-22)
(2.5475243 -0.017002715 5.451497e-23)
(2.5497153 -0.014162002 -9.4066847e-24)
(2.5518427 -0.010933437 4.5156385e-23)
(2.5537969 -0.0072699243 3.3193017e-22)
(2.5556644 -0.0032326901 5.8979888e-22)
(2.3546191 -0.078804223 8.5410233e-22)
(2.3915339 -0.069428734 -5.7717904e-22)
(2.4105977 -0.064880781 4.2507932e-22)
(2.4148709 -0.059985901 1.9431325e-22)
(2.424897 -0.056046159 -3.9248842e-22)
(2.4353883 -0.055022992 -5.9008417e-22)
(2.4452572 -0.054512576 -9.0221052e-23)
(2.4539267 -0.053654993 8.9560433e-22)
(2.4625345 -0.05294237 3.3118033e-22)
(2.4711294 -0.051844521 4.0430745e-22)
(2.4789535 -0.05101498 5.1050946e-22)
(2.4861662 -0.049438869 -2.449123e-23)
(2.492768 -0.048309618 6.1932656e-23)
(2.4987098 -0.046677695 1.6195507e-22)
(2.5042086 -0.045493561 -2.596496e-22)
(2.509202 -0.044000659 -8.6360714e-22)
(2.5138991 -0.042826841 -5.6574226e-22)
(2.5183597 -0.041398601 -5.6895896e-22)
(2.5225429 -0.040077079 -6.3065155e-22)
(2.5266906 -0.038385226 -2.8021197e-22)
(2.5304847 -0.036771322 -7.8461653e-22)
(2.534317 -0.034697065 -7.5754597e-22)
(2.5377227 -0.032544318 -5.0722015e-22)
(2.5411409 -0.029796812 -3.3796322e-23)
(2.5440817 -0.027306535 7.9649362e-23)
(2.5469763 -0.024306051 2.8072423e-22)
(2.5494696 -0.021186636 2.2264434e-22)
(2.5518521 -0.017511685 -2.8068181e-22)
(2.5539044 -0.014477189 -2.3304602e-22)
(2.5558506 -0.011095376 -1.7943227e-22)
(2.5576567 -0.0073292424 5.7474533e-23)
(2.5593433 -0.0032308744 -1.0863698e-22)
(2.3554362 -0.096965488 8.6285847e-22)
(2.3919346 -0.083085538 2.1522764e-21)
(2.4098756 -0.074306615 9.5408635e-22)
(2.4126 -0.068800966 -1.8322325e-22)
(2.4217814 -0.064216236 -4.7333999e-22)
(2.431372 -0.062968498 -1.238213e-21)
(2.4407029 -0.062102551 -1.4393335e-21)
(2.4492447 -0.061521942 -4.5702844e-22)
(2.4578711 -0.06081894 4.8895978e-22)
(2.466919 -0.059781927 2.8302315e-22)
(2.4751263 -0.058849618 3.5251172e-22)
(2.482804 -0.057007985 5.4725003e-23)
(2.4897874 -0.055597645 -4.6064752e-22)
(2.4959768 -0.053567868 -9.0843273e-22)
(2.5017041 -0.052079437 -8.2877879e-22)
(2.5067193 -0.050314145 -1.2992168e-22)
(2.5115119 -0.048950579 -7.0070107e-22)
(2.5159307 -0.047451609 -3.5361717e-22)
(2.5201908 -0.046141602 -3.5332048e-22)
(2.5243789 -0.044625982 -5.3551961e-22)
(2.5283307 -0.043091718 -1.9998555e-22)
(2.5323548 -0.041158171 -6.9758799e-22)
(2.5360078 -0.039238103 -6.6861085e-22)
(2.5397318 -0.036813422 -6.9943405e-22)
(2.5429976 -0.034309409 -2.5283593e-22)
(2.5462534 -0.031187278 8.1412723e-23)
(2.5490292 -0.028373894 2.7186648e-22)
(2.5517118 -0.025056783 -1.7354322e-23)
(2.5540063 -0.02168611 -4.990212e-22)
(2.5561389 -0.017790051 -1.6569699e-22)
(2.5580218 -0.014607419 -1.1376526e-22)
(2.5597572 -0.011119141 -5.472478e-24)
(2.5613932 -0.0073008297 -1.6414527e-22)
(2.5628807 -0.0031907972 -3.9852836e-22)
(2.3587698 -0.1142117 -5.1208765e-22)
(2.3943977 -0.095653619 1.3921191e-21)
(2.4107007 -0.082548386 2.6769618e-21)
(2.4116239 -0.076573403 9.6713451e-22)
(2.4196887 -0.071350198 -1.1301313e-22)
(2.4280025 -0.070060162 1.3783295e-22)
(2.4364594 -0.06895947 -5.7899361e-22)
(2.4447548 -0.068967218 -3.3902963e-22)
(2.4532726 -0.068536247 6.1942196e-22)
(2.4628534 -0.067795155 -9.1785688e-23)
(2.4714874 -0.06692866 -2.9546227e-22)
(2.4797878 -0.064881641 1.0741717e-22)
(2.4872461 -0.063222053 -1.7931098e-22)
(2.4937734 -0.060714394 -3.3623169e-22)
(2.4997664 -0.058846261 -7.568747e-22)
(2.5047717 -0.056664216 -7.2683546e-22)
(2.5096061 -0.055029223 -6.1592587e-23)
(2.513858 -0.05339694 9.0039366e-22)
(2.518086 -0.052019488 1.2553186e-21)
(2.5221677 -0.05061424 7.7175364e-22)
(2.5261571 -0.049222251 6.1756553e-22)
(2.5302538 -0.047601106 3.3727058e-22)
(2.5340847 -0.045843632 -1.2579301e-22)
(2.5380692 -0.043615808 -2.1044055e-22)
(2.5416214 -0.041369328 -2.3251086e-22)
(2.545244 -0.038561267 -4.6313353e-22)
(2.5483603 -0.035707349 -1.4745555e-22)
(2.5514207 -0.03221515 -1.0024351e-22)
(2.5540001 -0.029103623 -3.8074296e-22)
(2.5564287 -0.025500254 -4.8566085e-23)
(2.5584901 -0.021921636 2.7473518e-22)
(2.5603369 -0.017852629 -3.6389553e-22)
(2.562022 -0.014565753 -2.6490519e-22)
(2.5635211 -0.011016004 3.5500468e-22)
(2.5649692 -0.0071916832 1.406112e-22)
(2.5662439 -0.0031153311 6.7911103e-22)
(2.3637388 -0.13050805 -2.7131993e-22)
(2.3989553 -0.10711337 -4.2151152e-22)
(2.4134463 -0.089358185 1.3139565e-21)
(2.4117866 -0.082862132 1.5128402e-21)
(2.4185036 -0.077199526 -1.2991397e-22)
(2.4251241 -0.07601424 8.6795826e-23)
(2.4323473 -0.074824369 3.1654856e-22)
(2.4402411 -0.075830926 -5.6686486e-22)
(2.4485061 -0.075950316 -3.3874175e-22)
(2.4587332 -0.075819176 2.1286052e-22)
(2.4678669 -0.075248647 -4.6967664e-22)
(2.4770207 -0.073093608 -3.0582787e-22)
(2.485105 -0.071246864 8.2812269e-23)
(2.4921279 -0.068164281 8.5865889e-24)
(2.4984817 -0.065839193 -1.3496441e-22)
(2.5034861 -0.063070261 -5.2429475e-22)
(2.5083394 -0.061029216 -4.932225e-22)
(2.5123018 -0.059114188 -5.5386634e-22)
(2.516382 -0.057592923 3.5203472e-22)
(2.5201797 -0.056284076 9.0925e-22)
(2.5240673 -0.054995924 4.4451705e-22)
(2.528084 -0.05368137 1.1885091e-21)
(2.5319777 -0.052196397 9.3349536e-22)
(2.5361315 -0.050386615 9.2247951e-22)
(2.5399244 -0.048358923 8.5857239e-22)
(2.5439059 -0.045761993 3.4549104e-22)
(2.547366 -0.043158847 1.3579289e-22)
(2.5508593 -0.039935432 -4.9170974e-22)
(2.5537957 -0.036734889 -4.522698e-22)
(2.5566103 -0.03288424 -5.8379552e-22)
(2.5589536 -0.029502901 -2.7175563e-22)
(2.5610815 -0.025648792 6.1904448e-22)
(2.5628756 -0.021906169 1.8031724e-23)
(2.564403 -0.01771321 -6.3107685e-22)
(2.5658657 -0.014364162 -4.7998989e-23)
(2.5671075 -0.010796 -6.5294865e-24)
(2.5683545 -0.0070079529 5.0242025e-22)
(2.5694071 -0.0030070485 1.3891064e-21)
(2.3703467 -0.14620076 -5.7784022e-23)
(2.4056907 -0.11716799 3.262207e-22)
(2.4190645 -0.094599321 9.4540481e-23)
(2.4132592 -0.08774245 1.9897556e-22)
(2.4179921 -0.081599758 3.7014499e-22)
(2.4226427 -0.08054575 2.6026091e-21)
(2.4281912 -0.079469992 2.8409196e-21)
(2.4354907 -0.081831239 2.2757332e-22)
(2.4433174 -0.082927403 -6.1295769e-22)
(2.4543075 -0.083811958 -6.1188646e-22)
(2.4640476 -0.083828906 -9.583863e-23)
(2.4743536 -0.081721091 9.7786711e-23)
(2.483283 -0.079782533 2.7190939e-22)
(2.4910508 -0.076029404 -1.9476331e-22)
(2.4979271 -0.073156312 -2.696572e-22)
(2.5029885 -0.069567908 -6.7808175e-23)
(2.5078791 -0.066957542 -4.3653291e-22)
(2.511436 -0.064567881 -2.4002026e-22)
(2.5152559 -0.062760923 -2.9361765e-22)
(2.5185666 -0.061453113 -6.8727324e-22)
(2.5221843 -0.060236861 -1.7246361e-22)
(2.525922 -0.059291149 -2.7258154e-22)
(2.5297309 -0.058098072 4.2478838e-22)
(2.5339239 -0.056763802 1.5577096e-22)
(2.5378679 -0.055111689 1.3564465e-22)
(2.5421627 -0.052985262 1.2304663e-21)
(2.5459561 -0.050617653 7.4791196e-22)
(2.5499175 -0.047571826 5.3420346e-22)
(2.5532609 -0.044581529 -5.3378634e-23)
(2.5565659 -0.040920561 -8.4489082e-22)
(2.5592753 -0.037382779 -9.7694781e-22)
(2.5617817 -0.033195508 -3.3180367e-22)
(2.5638447 -0.029577162 5.1329216e-22)
(2.5656249 -0.025513681 1.19686e-22)
(2.5671195 -0.021651833 -4.9514782e-22)
(2.568299 -0.017384866 3.1914791e-22)
(2.569519 -0.014013859 3.6437798e-22)
(2.5704885 -0.0104681 1.327674e-22)
(2.571525 -0.0067552054 9.6910465e-22)
(2.57235 -0.0028684923 7.5142319e-22)
(2.3791393 -0.16129305 9.3222907e-24)
(2.4145196 -0.12633929 -4.9598542e-22)
(2.4274485 -0.098388755 -2.3028125e-22)
(2.4167418 -0.090933466 1.3676306e-21)
(2.4180497 -0.084227217 1.4205444e-21)
(2.4201873 -0.083551948 9.3255526e-22)
(2.4236605 -0.082664988 3.0620834e-21)
(2.4302699 -0.086966199 2.4822291e-21)
(2.4374217 -0.089344591 -3.7092283e-24)
(2.4493275 -0.091689307 6.7853605e-22)
(2.4597852 -0.092719055 6.9811818e-22)
(2.4716123 -0.09085521 -1.0011232e-22)
(2.4816679 -0.088976549 8.7253068e-23)
(2.4905083 -0.084459695 -1.0574679e-22)
(2.4981587 -0.080949572 -5.5498103e-22)
(2.5034126 -0.07627887 8.9648252e-23)
(2.50841 -0.072870613 2.8704802e-22)
(2.5114599 -0.069721215 4.9343617e-22)
(2.5149143 -0.067445985 6.9477776e-22)
(2.5175043 -0.066002488 5.3486539e-22)
(2.5206616 -0.064768052 1.7682532e-22)
(2.5238746 -0.064187991 -1.8874498e-22)
(2.5274065 -0.063326741 -2.8408783e-22)
(2.5314562 -0.062614504 2.6784066e-22)
(2.5354238 -0.061418471 8.6672454e-24)
(2.5399496 -0.059872377 -9.6972845e-22)
(2.5440292 -0.057934072 5.0049043e-23)
(2.5484702 -0.055346021 6.8032684e-22)
(2.5522511 -0.052562444 4.7989655e-22)
(2.5561253 -0.048998936 -7.2200117e-22)
(2.5592977 -0.045599229 -1.4834133e-21)
(2.5623325 -0.041495121 -2.6918384e-22)
(2.5647562 -0.037638736 3.5455012e-22)
(2.5668871 -0.03314898 1.6597424e-22)
(2.5686252 -0.029331719 -2.1322931e-22)
(2.5700144 -0.025106316 -2.9619714e-22)
(2.571182 -0.021171029 4.8041626e-22)
(2.5719914 -0.016880764 1.303348e-21)
(2.5729541 -0.013525941 1.0976715e-21)
(2.5736419 -0.010040724 -3.6014111e-23)
(2.5744622 -0.006438977 -2.5832365e-22)
(2.5750572 -0.0027026429 -8.4524502e-22)
(2.3900789 -0.17566128 6.6800621e-23)
(2.4251436 -0.13436321 -8.4521161e-22)
(2.4375311 -0.10064589 -1.2792165e-21)
(2.4215475 -0.09192818 -1.3060259e-21)
(2.418675 -0.084631465 1.3252109e-22)
(2.4178763 -0.084892772 5.9766797e-22)
(2.4186455 -0.084222449 1.2106285e-22)
(2.4241703 -0.090863978 -2.3669392e-22)
(2.4305341 -0.095056549 -8.3783548e-22)
(2.4434449 -0.099582934 3.4208201e-22)
(2.4547783 -0.10197644 9.956104e-22)
(2.4685959 -0.10063234 2.7062695e-22)
(2.4801199 -0.099014097 -4.9435694e-22)
(2.4904673 -0.093652555 -1.013431e-22)
(2.4992218 -0.089420622 -2.8764453e-22)
(2.504869 -0.083318132 -1.0082118e-21)
(2.5101206 -0.078868151 -4.1294379e-22)
(2.5125915 -0.074638553 3.583412e-22)
(2.51559 -0.071600745 5.5549473e-22)
(2.5172076 -0.069800431 1.3896183e-22)
(2.5196887 -0.068420285 -2.0835506e-23)
(2.5220777 -0.06817106 -1.1682258e-22)
(2.5250947 -0.067643108 -4.6309963e-22)
(2.5287622 -0.067655847 -4.1756519e-22)
(2.5325753 -0.067037305 1.0614342e-22)
(2.5372001 -0.066289258 5.4505098e-22)
(2.5414829 -0.064911582 -3.8196802e-22)
(2.5463849 -0.062923969 -1.1227335e-21)
(2.5506102 -0.060562004 -5.3861324e-22)
(2.555126 -0.057377223 1.145039e-21)
(2.5588335 -0.054110611 1.5616176e-23)
(2.5625141 -0.049984468 -1.4358092e-21)
(2.5654388 -0.046168051 -2.8195776e-22)
(2.5681088 -0.04163644 -4.462435e-22)
(2.5701832 -0.037491523 -6.3783023e-22)
(2.5718737 -0.032746542 -1.4972384e-22)
(2.5732453 -0.028774115 -2.2737986e-22)
(2.5742077 -0.024439818 4.938845e-23)
(2.5750269 -0.020477766 8.2348912e-22)
(2.5754523 -0.016215047 1.4961932e-21)
(2.5761484 -0.012912136 4.2584434e-22)
(2.5765513 -0.0095226355 4.3653519e-22)
(2.5771529 -0.0060655718 -1.1021485e-22)
(2.5775183 -0.0025133857 -1.395367e-21)
(2.4028063 -0.18919537 -1.5525129e-21)
(2.4372482 -0.14112053 -4.0147136e-22)
(2.4486876 -0.10124498 -1.2195451e-21)
(2.427119 -0.091076722 -8.6929079e-22)
(2.4197846 -0.082595925 -8.882285e-22)
(2.4153998 -0.083784691 -4.1925422e-21)
(2.4129895 -0.08392251 -3.8193659e-21)
(2.4170758 -0.093499281 1.1835502e-22)
(2.4223261 -0.10003537 -2.2194288e-22)
(2.4364584 -0.10721067 -1.562822e-21)
(2.4487634 -0.11168075 -4.5277602e-22)
(2.4650446 -0.11121859 8.1859236e-22)
(2.4784677 -0.11009867 1.2715126e-22)
(2.4908576 -0.10384991 -8.5145245e-22)
(2.5011537 -0.098819621 -4.8380565e-22)
(2.5074981 -0.090931115 4.2011032e-23)
(2.5132166 -0.08509924 -6.4638762e-22)
(2.5150557 -0.079283929 4.3309505e-22)
(2.5175478 -0.075199639 1.1790482e-21)
(2.5179058 -0.072799379 9.0215979e-23)
(2.5194703 -0.071034837 -3.1275021e-22)
(2.5207061 -0.071035625 -1.5444188e-22)
(2.5229135 -0.070796207 -2.4676145e-22)
(2.5258991 -0.071635878 -1.693558e-21)
(2.5293246 -0.071698913 -1.6580888e-21)
(2.5338631 -0.071943364 -8.0943866e-22)
(2.538218 -0.071317155 -4.1052009e-22)
(2.5435221 -0.070194757 5.6088694e-22)
(2.5481691 -0.068417934 -1.2199857e-22)
(2.5533776 -0.065764338 -1.1736411e-21)
(2.5576852 -0.06284856 4.1534887e-22)
(2.5621416 -0.058963721 7.5610801e-22)
(2.5656766 -0.0551685 -6.1067669e-22)
(2.569033 -0.05046744 3.3755695e-22)
(2.5716207 -0.046246643 1.9122765e-22)
(2.5738299 -0.041326439 -7.4908257e-22)
(2.5754928 -0.036935475 -2.8716298e-22)
(2.576686 -0.031994926 -6.9931906e-22)
(2.5776566 -0.027916393 -4.4415948e-22)
(2.5781662 -0.023530482 -3.0985964e-22)
(2.5786232 -0.019588674 3.1132128e-22)
(2.5786597 -0.015403453 7.017276e-23)
(2.5790856 -0.012185532 7.4624043e-23)
(2.5792056 -0.0089240902 6.4732952e-22)
(2.5795889 -0.0056429095 -5.6136331e-22)
(2.5797279 -0.0023056229 -5.4262306e-22)
(2.4169057 -0.20186671 -8.9586175e-22)
(2.4506226 -0.14657937 -4.293137e-22)
(2.4608164 -0.10015955 7.5408926e-22)
(2.4333435 -0.088136119 -1.1846631e-21)
(2.4213456 -0.078143769 -7.9935964e-22)
(2.4127501 -0.08051222 -1.8426945e-21)
(2.4064077 -0.081595397 -4.9966221e-21)
(2.4086413 -0.094906908 -3.2150968e-21)
(2.4124872 -0.10421663 5.3483085e-22)
(2.4281227 -0.11476565 1.3281299e-21)
(2.4415533 -0.1219017 7.9761795e-23)
(2.4607875 -0.12270558 -5.6653724e-22)
(2.476534 -0.12246402 6.4036102e-22)
(2.4915973 -0.11529975 1.0042049e-21)
(2.5039717 -0.10942977 8.8567851e-23)
(2.5114088 -0.099325035 -1.1138587e-21)
(2.5179136 -0.091766507 -6.2438836e-22)
(2.5191424 -0.083907217 -1.9572263e-22)
(2.5210971 -0.078276994 8.367126e-22)
(2.5199018 -0.074822702 1.0617014e-21)
(2.5202573 -0.072443642 2.5669561e-23)
(2.5199167 -0.072540774 1.9232686e-22)
(2.5210036 -0.072516518 3.4183664e-22)
(2.5229418 -0.074290946 1.4512675e-21)
(2.5256896 -0.075110607 1.1037224e-22)
(2.5298994 -0.076570503 -3.7644586e-22)
(2.5341433 -0.076885469 4.4970534e-22)
(2.5397467 -0.076887034 8.8544364e-22)
(2.5447534 -0.075932268 1.8316693e-21)
(2.5506797 -0.074093372 -3.8311446e-22)
(2.5556313 -0.071701939 -1.3889767e-21)
(2.5609821 -0.068198049 8.4397837e-22)
(2.5652476 -0.064626865 1.174302e-21)
(2.569469 -0.059985671 -2.3635901e-22)
(2.5727084 -0.055646557 6.6998138e-22)
(2.5756019 -0.050395262 5.4421918e-22)
(2.5777612 -0.045804301 -3.4322457e-22)
(2.5794214 -0.040556943 7.9992158e-22)
(2.5806183 -0.035974332 4.2546586e-22)
(2.58127 -0.030907991 -4.2046917e-22)
(2.5818144 -0.026776582 -2.9256942e-22)
(2.5818567 -0.022398605 -2.7521804e-22)
(2.5819462 -0.018523432 -5.1281427e-22)
(2.5815973 -0.01446349 -1.3827366e-21)
(2.5817548 -0.011361128 -8.6103633e-22)
(2.5815987 -0.0082576984 -1.6118879e-21)
(2.5817664 -0.0051808061 -1.6101404e-21)
(2.5816855 -0.0020847819 -3.5644189e-22)
(2.4318666 -0.21366234 5.3802168e-22)
(2.4649228 -0.15086741 -2.0445524e-21)
(2.4738343 -0.09746221 -1.5521197e-21)
(2.4402915 -0.083157939 2.1702057e-21)
(2.4233272 -0.07133168 3.996677e-22)
(2.4098395 -0.074937454 3.2011195e-21)
(2.3988585 -0.077093245 2.2568498e-21)
(2.3987515 -0.094727151 2.4972737e-22)
(2.4007922 -0.10754659 2.0254718e-21)
(2.4180658 -0.12233478 6.9278648e-23)
(2.4328383 -0.13270113 8.1124856e-22)
(2.455614 -0.13529627 2.6567661e-21)
(2.4741235 -0.13631451 2.0847181e-21)
(2.4925893 -0.12828598 2.108195e-21)
(2.5076698 -0.12156123 2.4566658e-21)
(2.5167184 -0.10879142 1.0596802e-21)
(2.5244269 -0.099100199 -5.0281038e-23)
(2.5250937 -0.088512051 9.6383092e-23)
(2.5265343 -0.080871727 5.0941994e-22)
(2.523494 -0.075909615 1.2634604e-22)
(2.5223628 -0.072495682 3.2882442e-22)
(2.5199708 -0.072561825 -9.2824992e-22)
(2.5195484 -0.072573652 -7.8953353e-22)
(2.5200099 -0.075262741 -2.0827611e-21)
(2.5217215 -0.076966106 -1.0607946e-21)
(2.5252829 -0.079867877 -4.1639619e-22)
(2.5291782 -0.081325099 -8.9708039e-22)
(2.5349266 -0.082755345 2.5214833e-22)
(2.540188 -0.082873983 6.6287012e-22)
(2.546825 -0.08213959 1.5549533e-21)
(2.5524387 -0.080528463 -5.5119546e-22)
(2.5587918 -0.077679412 -1.4818115e-21)
(2.5638966 -0.074493832 6.3732245e-22)
(2.5691591 -0.070019933 1.9738543e-21)
(2.5732174 -0.065735359 6.4670721e-22)
(2.5770095 -0.060336445 -3.6039476e-22)
(2.5798217 -0.055472953 -4.959038e-22)
(2.5821203 -0.049732742 -3.4785366e-22)
(2.5837669 -0.044827294 7.3739876e-22)
(2.5848059 -0.039333417 7.1774324e-22)
(2.5854942 -0.034623462 -8.0502645e-23)
(2.5855765 -0.029507773 2.3173365e-21)
(2.5856801 -0.025379071 2.3747974e-21)
(2.5852525 -0.021068522 5.1787921e-22)
(2.5849775 -0.017304565 -2.9175505e-22)
(2.5842552 -0.013414166 -2.2652782e-21)
(2.5841504 -0.010455788 -2.9997875e-21)
(2.5837288 -0.0075382232 -1.9355214e-21)
(2.5836863 -0.0046900234 -7.4992301e-22)
(2.5833957 -0.0018561129 6.625934e-23)
(2.4466813 -0.22450705 1.3009845e-22)
(2.479222 -0.15383433 -4.6108583e-21)
(2.4870198 -0.093243396 -7.1458453e-21)
(2.4476631 -0.076285195 -2.5928487e-21)
(2.4255435 -0.062181147 9.6097882e-22)
(2.4065348 -0.067048332 1.0747929e-21)
(2.3902118 -0.070310569 3.7092966e-21)
(2.3872788 -0.092928095 5.2951067e-21)
(2.3870079 -0.10992247 3.4368148e-21)
(2.4059671 -0.12975254 -2.7037174e-22)
(2.4222399 -0.14414308 -2.1688469e-21)
(2.4492155 -0.1490819 -6.4410113e-23)
(2.4710112 -0.15183045 1.6747274e-21)
(2.4937087 -0.14305589 5.1834217e-21)
(2.5122166 -0.1355272 5.2357245e-21)
(2.5235096 -0.11962452 2.7341532e-21)
(2.5329694 -0.10736458 1.4521821e-21)
(2.533199 -0.093321096 -1.0797869e-21)
(2.5341797 -0.083032125 -9.6961667e-22)
(2.5289449 -0.075976749 1.3222911e-21)
(2.5260749 -0.071056226 9.7128293e-22)
(2.5211203 -0.070767679 5.464679e-22)
(2.5187213 -0.070708671 -6.4405791e-22)
(2.5172312 -0.07441105 -1.0218993e-21)
(2.5174852 -0.076953829 -2.2477833e-21)
(2.5200278 -0.081506842 -3.269106e-21)
(2.523259 -0.084331408 -2.6941599e-21)
(2.5289407 -0.087507881 -3.7083633e-21)
(2.5343011 -0.088986007 -2.6610624e-21)
(2.5416023 -0.08970372 -1.1839687e-21)
(2.5478649 -0.089155317 -3.6159771e-22)
(2.555311 -0.087248277 1.3326271e-21)
(2.5613529 -0.08469635 4.7833422e-22)
(2.567838 -0.080629022 -5.1863874e-22)
(2.5728797 -0.076529692 7.3411536e-22)
(2.5777891 -0.071043803 -2.109763e-22)
(2.5814563 -0.066039542 -1.1807629e-21)
(2.5846284 -0.059937225 -7.6678325e-22)
(2.5868874 -0.054603752 -6.3062423e-22)
(2.5884785 -0.048468076 1.1977536e-21)
(2.5895429 -0.043322333 1.1867311e-21)
(2.5899096 -0.03767647 -2.1586329e-22)
(2.5900617 -0.032910194 2.0583021e-21)
(2.5895635 -0.02782418 3.0007559e-21)
(2.5892232 -0.023753955 1.2472032e-21)
(2.5883342 -0.019567936 4.5034971e-22)
(2.5877055 -0.015956673 -1.4121056e-21)
(2.5866285 -0.012275314 -1.3020556e-21)
(2.5862711 -0.0094874538 -2.6507178e-22)
(2.5855979 -0.0067814932 -5.3774528e-22)
(2.5853553 -0.0041809494 2.4069948e-22)
(2.5848667 -0.0016243197 3.3015024e-22)
(2.4593454 -0.23420827 6.1091989e-22)
(2.4915291 -0.15574036 4.3825685e-23)
(2.4985103 -0.0875354 -4.5073505e-21)
(2.4542643 -0.067391107 -7.9663729e-21)
(2.4272016 -0.050719574 -3.6221507e-21)
(2.4024533 -0.056739389 2.663038e-22)
(2.3801268 -0.061165962 3.4308586e-22)
(2.3740024 -0.089524694 -2.3693236e-21)
(2.3709108 -0.11124418 -9.5812184e-22)
(2.3916124 -0.13703622 2.2191114e-21)
(2.4094879 -0.15628823 -1.3237783e-21)
(2.4413274 -0.16418777 -1.7775221e-21)
(2.4669703 -0.16920055 2.2766e-22)
(2.4948188 -0.15986606 -1.6109616e-21)
(2.5175638 -0.15164219 1.6697877e-21)
(2.5318575 -0.13212913 -3.1287693e-21)
(2.5437454 -0.11684954 -5.6138586e-21)
(2.5437277 -0.098496963 1.5015113e-21)
(2.5443816 -0.084842762 -9.2015826e-22)
(2.5366217 -0.075020884 -1.2242043e-21)
(2.5316881 -0.068031102 9.4868997e-22)
(2.5236239 -0.067074468 -7.1740548e-22)
(2.5187372 -0.066631642 -1.147536e-21)
(2.5146969 -0.071298209 8.4307278e-22)
(2.5130308 -0.074751594 5.0763785e-22)
(2.5141334 -0.081192 2.8803498e-21)
(2.5163321 -0.085574705 1.9976371e-21)
(2.5216792 -0.090851534 -3.7122492e-23)
(2.5269288 -0.093992147 -9.65353e-22)
(2.5348047 -0.096541853 -4.2317903e-21)
(2.5416642 -0.097384479 -2.8536124e-21)
(2.5502691 -0.096772906 -3.7860991e-22)
(2.5573287 -0.095135623 1.2301184e-21)
(2.5652158 -0.091729809 1.5396867e-22)
(2.57141 -0.088031989 -7.9880961e-22)
(2.5776759 -0.082644008 7.885996e-22)
(2.5824042 -0.077584458 -1.080526e-22)
(2.5866927 -0.071125093 -1.119127e-21)
(2.589787 -0.065447769 -7.2503536e-22)
(2.5921704 -0.058746498 -8.937904e-22)
(2.5937682 -0.053028366 8.3898159e-22)