/*--------------------------------*- C++ -*----------------------------------*\
| =========                 |                                                 |
| \\      /  F ield         | OpenFOAM: The Open Source CFD Toolbox           |
|  \\    /   O peration     | Version:  v2012                                 |
|   \\  /    A nd           | Website:  www.openfoam.com                      |
|    \\/     M anipulation  |                                                 |
\*---------------------------------------------------------------------------*/
FoamFile
{
    version     2.0;
    format      ascii;
    class       surfaceScalarField;
    location    "13.71776417541";
    object      meshPhi;
}
// * * * * * * * * * * * * * * * * * * * * * * * * * * * * * * * * * * * * * //

dimensions      [0 3 -1 0 0 0 0];
oriented        oriented;


internalField   nonuniform List<scalar> 
18180
(
-8.4647943e-14
-0.068444876
8.4662288e-14
-0.062311662
0
-0.13923969
0
-0.056862328
0
-0.12772774
6.474787e-17
-0.21231136
-4.2383488e-14
-0.053117719
0
-0.11726426
0
-0.195888
0
-0.28384668
4.2428582e-14
-0.050640133
0
-0.10898599
0
-0.18045743
0
-0.26330727
0
-0.35223377
-4.2415468e-14
-0.048847024
3.0457523e-17
-0.10298914
3.9296547e-14
-0.16786487
-7.5679272e-14
-0.24399917
0
-0.32773351
-7.0183924e-14
-0.41530691
-8.4832892e-14
-0.04735958
0
-0.098504024
-3.9275086e-14
-0.15795478
0
-0.22717783
0
-0.30466595
0
-0.38760978
0
-0.47402022
0
-0.045913714
4.087148e-14
-0.09466335
-3.9349877e-14
-0.14991612
0
-0.21310278
0
-0.2838506
0
-0.36128639
0
-0.44310665
-6.5098725e-14
-0.52757818
0
-0.044428286
-4.0885915e-14
-0.091089551
-3.9329809e-14
-0.14307647
3.7864179e-14
-0.20144578
0
-0.26587667
3.5102958e-14
-0.33713186
6.7659095e-14
-0.41420368
0
-0.49416081
0
-0.57697699
0
-0.042878185
-4.0900161e-14
-0.087571398
3.9341822e-14
-0.13684281
-3.7874076e-14
-0.19151584
-3.6493764e-14
-0.25075444
2.8824021e-17
-0.31580383
0
-0.38736268
0
-0.46305219
0
-0.54096912
6.0422511e-14
-0.62174175
-8.4957219e-14
-0.04126974
-4.0880368e-14
-0.084045066
0
-0.13087005
0
-0.18257457
0
-0.2377304
0
-0.29718399
3.3837536e-14
-0.36316105
3.2582911e-14
-0.4342849
0
-0.50793652
0
-0.58356076
0
-0.66268598
0
-0.039616177
-4.0927268e-14
-0.080492561
3.9398939e-14
-0.12500491
0
-0.17415539
3.6510923e-14
-0.22608406
-3.5120517e-14
-0.2810214
-3.3814407e-14
-0.34179358
6.5146723e-14
-0.40807176
-3.1354709e-14
-0.47733658
-6.0389355e-14
-0.54866822
0
-0.62225532
5.6045736e-14
-0.69952504
-1.8962362e-17
-0.03792336
0
-0.076924621
0
-0.11918962
3.793831e-14
-0.16599869
0
-0.21527756
0
-0.26657043
0
-0.32252848
0
-0.38407012
2.3933573e-17
-0.44911329
-3.0196955e-14
-0.51620635
0
-0.58549991
0
-0.65716373
2.9546769e-17
-0.73290794
2.126854e-14
-0.03620124
2.045825e-14
-0.073357908
0
-0.11342809
0
-0.15800837
3.6529266e-14
-0.20492925
0
-0.25312921
3.3825636e-14
-0.30493654
2.6064972e-17
-0.36199051
3.1360046e-14
-0.42281795
3.0220491e-14
-0.48583484
2.9101213e-14
-0.55113345
5.6049906e-14
-0.61864829
0
-0.68861151
-5.1965997e-14
-0.76271901
-2.1254735e-14
-0.034461731
-2.0463585e-14
-0.069822071
0
-0.10775111
0
-0.15017433
0
-0.19489669
-3.5142817e-14
-0.24039061
0
-0.28867953
-2.5709227e-17
-0.34154072
0
-0.39810476
0
-0.45714404
-2.9084019e-14
-0.51864781
2.8009185e-14
-0.58248766
0
-0.64844955
0
-0.71679865
5.0080028e-14
-0.78951008
-2.1259867e-14
-0.032718846
2.0486709e-14
-0.066339246
1.9721417e-14
-0.10219416
0
-0.14252586
0
-0.18514272
0
-0.22813358
-3.3838407e-14
-0.27332762
0
-0.32247742
0
-0.37499725
3.0224216e-14
-0.42998789
-2.9104213e-14
-0.48764579
2.802724e-14
-0.54805318
2.696094e-14
-0.61070494
-5.1965338e-14
-0.67517551
0
-0.7420073
0
-0.81328358
0
-0.03098006
0
-0.062926954
1.9726153e-14
-0.096794377
1.7495764e-17
-0.13509115
1.8261384e-14
-0.17568153
0
-0.21629779
0
-0.25868476
3.2607626e-14
-0.30460385
0
-0.35352096
0
-0.40460203
1.8736843e-17
-0.4583336
-2.8028043e-14
-0.51518147
2.699202e-14
-0.57466328
-2.5982357e-14
-0.63601834
2.4321282e-17
-0.69905573
0
-0.764468
-4.6450184e-14
-0.83448131
2.1269008e-14
-0.029255608
0
-0.059598375
0
-0.091578945
1.7690352e-17
-0.12789933
-1.8265259e-14
-0.16653259
-1.7596941e-14
-0.20486577
0
-0.24463759
0
-0.28770208
2.3339563e-17
-0.33350523
0
-0.38113651
0
-0.4311183
1.7058314e-17
-0.48413538
0
-0.54012783
2.5995755e-14
-0.59856111
2.5025889e-14
-0.65868379
0
-0.72034637
0
-0.78442371
0
-0.85316094
0
-0.027557041
-2.0500198e-14
-0.056359256
1.9734652e-14
-0.086566564
-1.8997468e-14
-0.12097667
-1.8268934e-14
-0.15770641
-1.7585969e-14
-0.19384442
0
-0.23114201
0
-0.27160712
0
-0.31468932
0
-0.35934441
0
-0.40591728
0
-0.45527182
2.6991833e-14
-0.50758734
2.59811e-14
-0.56268641
2.5037126e-14
-0.62007003
0
-0.67892741
1.9328164e-17
-0.73929215
-4.4745612e-14
-0.80210312
0
-0.86969957
2.1297252e-14
-0.025895792
2.0504009e-14
-0.053215338
0
-0.081759846
1.900129e-14
-0.11433986
0
-0.14921779
1.4435235e-17
-0.18324089
-1.6931948e-14
-0.21817867
-1.6311514e-14
-0.25623775
0
-0.29687263
0
-0.33891565
2.9108558e-14
-0.38255212
0
-0.42862281
0
-0.47739661
-2.5979954e-14
-0.52885816
-1.2656783e-17
-0.58304623
1.1273044e-17
-0.63936501
0
-0.69702701
0
-0.75611619
0
-0.81769158
1.2883832e-17
-0.88419185
0
-0.024284072
2.0507506e-14
-0.050177116
0
-0.077163668
0
-0.10799428
-1.8275634e-14
-0.14107189
-1.7606861e-14
-0.17306324
1.2656815e-17
-0.20574807
0
-0.24154781
-1.5704547e-14
-0.27993277
0
-0.31963092
0
-0.36073918
0
-0.40385241
0
-0.4493598
0
-0.49742145
0
-0.54813378
0
-0.60147016
1.0155415e-17
-0.65671483
0
-0.71312223
4.3117458e-14
-0.77096632
0
-0.83141741
4.0028175e-14
-0.89691191
0
-0.022731486
0
-0.047257099
-1.9727078e-14
-0.072777909
-1.8989637e-14
-0.10193612
-1.829622e-14
-0.1332704
0
-0.16331289
0
-0.19385191
0
-0.22751487
0
-0.26380959
1.5109243e-14
-0.30132427
0
-0.34015892
-2.8029323e-14
-0.38068563
-2.6973891e-14
-0.42319653
0
-0.4681456
-2.5031841e-14
-0.51567295
0
-0.5657067
0
-0.61809396
0
-0.67219456
0
-0.72737726
0
-0.78405793
0
-0.84342138
0
-0.90795693
-1.0653184e-14
-0.021246466
0
-0.04445855
0
-0.068602274
0
-0.096155742
1.8299157e-14
-0.12580099
0
-0.15399031
1.6952839e-14
-0.18249507
1.6318785e-14
-0.21413023
-1.5696739e-14
-0.24846142
0
-0.28391268
0
-0.32065064
0
-0.35891379
-2.6989063e-14
-0.39874611
0
-0.44071871
0
-0.48533937
0
-0.53242101
2.3221254e-14
-0.5816596
-2.2369978e-14
-0.63303776
-2.1543916e-14
-0.68596582
2.0765753e-14
-0.73996765
4.0018746e-14
-0.79553507
0
-0.85390368
0
-0.91756724
1.0654369e-14
-0.019834086
-1.0248126e-14
-0.041785839
0
-0.064631208
0
-0.090644162
1.7868096e-17
-0.11865576
1.7600814e-14
-0.14509219
0
-0.17167641
0
-0.201385
1.5710595e-14
-0.23386336
1.0705521e-17
-0.26734829
9.6472412e-18
-0.3021008
-1.4015613e-14
-0.33833764
0
-0.37582371
0
-0.41501988
0
-0.45676546
0
-0.50119745
2.3206855e-14
-0.54770232
0
-0.59606639
2.1539482e-14
-0.64635789
7.2008167e-18
-0.69817098
2.0005617e-14
-0.75105921
-3.8545907e-14
-0.80557592
0
-0.86297015
0
-0.92584936
-1.0645184e-14
-0.018498868
-1.0249205e-14
-0.039239645
0
-0.060857735
0
-0.085394858
0
-0.11182561
0
-0.13661058
0
-0.16139465
-1.2144712e-17
-0.18927039
1.5712497e-14
-0.21999412
0
-0.25160046
-1.4549474e-14
-0.28445048
0
-0.31881573
0
-0.35421605
0
-0.3909274
0
-0.42985962
2.4100715e-14
-0.47157186
0
-0.51572688
-2.235199e-14
-0.56158085
2.154334e-14
-0.60897231
-7.4939419e-18
-0.65823916
6.3698143e-18
-0.70896512
1.9274097e-14
-0.76077556
0
-0.81426486
0
-0.87081457
3.4499591e-14
-0.93298655
-1.0656297e-14
-0.017242531
0
-0.036822139
9.8774992e-15
-0.057272445
9.4995637e-15
-0.08039934
1.8288382e-14
-0.10530316
0
-0.12853684
1.6959552e-14
-0.15164275
0
-0.17777442
0
-0.20683304
1.512595e-14
-0.23664902
0
-0.26766214
1.4016908e-14
-0.30026392
0
-0.3337699
-1.2992984e-14
-0.36826687
0
-0.40461334
0
-0.44353086
0
-0.48519515
0
-0.52901191
0
-0.57410064
-2.074399e-14
-0.62052619
0
-0.66876081
5.6262342e-18
-0.7184595
3.7135368e-14
-0.76921213
3.579333e-14
-0.82178011
0
-0.87752747
3.3243475e-14
-0.93907338
1.0657061e-14
-0.016065359
1.0250999e-14
-0.034530823
0
-0.053869653
-9.5004343e-15
-0.075648945
-9.1541805e-15
-0.09908389
0
-0.12085819
0
-0.14241004
1.2026176e-17
-0.16688458
0
-0.19435482
0
-0.22246564
-1.4551574e-14
-0.25171463
0
-0.28263277
1.3503025e-14
-0.31437171
6.915523e-18
-0.34686231
1.2504097e-14
-0.3809029
0
-0.41716671
0
-0.45609058
0
-0.49768771
-2.1533463e-14
-0.54106862
0
-0.58534659
-1.9983266e-14
-0.63079778
1.9257748e-14
-0.67807973
0
-0.72674243
0
-0.77652229
6.6079302e-18
-0.82820998
0
-0.8832747
0
-0.94433018
0
-0.014967216
-1.0251722e-14
-0.032364042
0
-0.050642463
-9.5107654e-15
-0.07113651
0
-0.09316304
0
-0.11356404
0
-0.13367878
0
-0.15658414
0
-0.18253287
0
-0.20902465
-9.7731454e-18
-0.23658383
0
-0.26588878
0
-0.295959
6.898364e-18
-0.32658336
6.1502162e-18
-0.35854877
-1.2045848e-14
-0.39244957
0
-0.42867252
-2.234781e-14
-0.46768217
-2.1528171e-14
-0.5091724
0
-0.5519741
0
-0.59537159
6.164643e-18
-0.63991899
0
-0.68623942
4.3038756e-18
-0.73395961
-3.4861812e-18
-0.78280087
-3.3227111e-14
-0.83370574
0
-0.88816465
-3.0865117e-14
-0.94884925
0
-0.013947552
-1.0252336e-14
-0.030320205
0
-0.04758722
-9.5114503e-15
-0.066855528
0
-0.087535451
8.8123364e-15
-0.10664489
-8.4823953e-15
-0.12543296
0
-0.14685704
0
-0.171343
1.5130082e-14
-0.19629486
1.4553663e-14
-0.22224267
-1.4019234e-14
-0.25000706
-1.3487637e-14
-0.27848577
0
-0.30734807
1.2509016e-14
-0.33740887
0
-0.3692286
-1.1593816e-14
-0.40304793
2.2333211e-14
-0.43939847
0
-0.47848189
-2.0726212e-14
-0.51963018
0
-0.56175297
1.9250936e-14
-0.60432285
1.8552454e-14
-0.64797083
1.7876328e-14
-0.69341777
3.7223583e-18
-0.74019249
0
-0.78817005
4.7505595e-18
-0.83834336
0
-0.89235604
3.5018525e-18
-0.95286061
0
-0.0129986
-1.0263327e-14
-0.028395765
9.8805729e-15
-0.044696157
-9.5023903e-15
-0.062800388
-9.0744233e-18
-0.082194381
0
-0.10009147
-8.4774324e-15
-0.11765297
1.6319659e-14
-0.13768447
0
-0.16076061
1.5120385e-14
-0.18424967
-1.4554678e-14
-0.20866192
2.8030677e-14
-0.23495556
0
-0.2619192
0
-0.28910151
0
-0.31737504
-1.2038154e-14
-0.34732817
1.1597461e-14
-0.3790556
-1.11693e-14
-0.41295067
0
-0.44948534
2.0720006e-14
-0.48846548
-1.9963572e-14
-0.52912637
0
-0.57055152
0
-0.61228891
0
-0.65509484
0
-0.69966096
-1.6603317e-14
-0.7455618
1.600485e-14
-0.79269718
0
-0.84227473
2.9739925e-14
-0.8959996
-2.8663351e-14
-0.95642822
-5.9410787e-05
-0.014211532
0
-0.02657815
0
-0.041961892
0
-0.058959216
-9.1478607e-15
-0.077131929
8.8066889e-15
-0.093891147
-8.4837353e-15
-0.1103185
8.1663512e-15
-0.12904373
7.8545021e-15
-0.15075991
0
-0.17285843
0
-0.19581416
-1.4011327e-14
-0.22070552
0
-0.24622531
0
-0.27180118
5.9697976e-18
-0.29838044
0
-0.32661099
0
-0.35648245
0
-0.3882401
0
-0.42240883
0
-0.45900237
0
-0.49762152
-1.9236972e-14
-0.53773095
0
-0.5784345
-1.7861486e-14
-0.61936823
-1.7216922e-14
-0.66135822
-1.6600134e-14
-0.70510553
2.7470441e-18
-0.75011658
-1.5423041e-14
-0.79651955
2.9737272e-14
-0.84562145
-2.8659851e-14
-0.89921887
0
-0.95974564
-9.9629646e-05
-0.014134679
-0.0001750495
-0.028932255
0
-0.039367841
0
-0.055321403
-9.1573505e-15
-0.072336631
0
-0.088031823
-5.6181513e-18
-0.10340841
0
-0.12091249
-7.8550238e-15
-0.14132011
-7.5667712e-15
-0.16209437
0
-0.18367311
1.4012052e-14
-0.20722301
0
-0.23137029
0
-0.25541189
0
-0.28037359
0
-0.30698576
0
-0.3351743
0
-0.36505702
0
-0.39707483
1.0353853e-14
-0.43139764
0
-0.46779405
0
-0.50598567
0
-0.54549056
1.7858827e-14
-0.5854592
0
-0.62562274
0
-0.66686053
-1.5995509e-14
-0.70977257
-3.0834916e-14
-0.75398827
0
-0.79973721
2.8657048e-14
-0.84850996
0
-0.90213479
-2.6619885e-14
-0.96282716
-0.00012291496
-0.0140577
-0.00029422908
-0.028950554
-0.00028235442
-0.042620322
0
-0.051871235
0
-0.067796018
0
-0.082500324
5.6121426e-18
-0.096907132
-5.8224069e-18
-0.11326919
-7.8618618e-15
-0.13242086
5.4860384e-18
-0.15192754
7.2787317e-15
-0.17220815
0
-0.19447831
-1.3489597e-14
-0.21731905
-1.2986273e-14
-0.23989635
0
-0.26331471
-1.2041578e-14
-0.28839397
0
-0.3150072
0
-0.34319048
1.075131e-14
-0.37327747
0
-0.40548689
0
-0.43977339
0
-0.47587693
0
-0.5135702
-1.7844969e-14
-0.55243338
0
-0.59169528
1.6585002e-14
-0.63115693
1.5988202e-14
-0.67165719
1.5410792e-14
-0.71380231
2.9716577e-14
-0.75725184
1.4323055e-14
-0.80246426
-2.7614008e-14
-0.85105755
0
-0.90483206
2.5656354e-14
-0.96577835
-0.00013152926
-0.013984498
-0.00036380402
-0.028955495
-0.00047578063
-0.042859476
-0.00037700526
-0.05569915
0
-0.063482254
0
-0.077281341
0
-0.090791534
5.7961791e-18
-0.10608931
-6.3735834e-18
-0.1240408
-7.5622229e-15
-0.14232959
0
-0.1613844
-4.9763905e-18
-0.18243648
0
-0.20403557
0
-0.2252217
-1.2501772e-14
-0.24716756
0
-0.27078998
1.1587645e-14
-0.29591046
0
-0.32251884
0
-0.35086906
4.4290177e-18
-0.38112182
-9.9682816e-15
-0.4133687
0
-0.44755577
0
-0.48331277
0
-0.52041684
0
-0.55863033
0
-0.59723459
0
-0.63603421
-1.5403209e-14
-0.67584597
-1.4852999e-14
-0.7172386
0
-0.76001628
-2.7607681e-14
-0.80481828
2.6614158e-14
-0.85336605
0
-0.90738934
0
-0.96857854
-0.00012772753
-0.013915422
-0.00039010666
-0.02895449
-0.00058969522
-0.043059986
-0.00063580281
-0.056122506
-0.00045897022
-0.06758067
0
-0.072334883
-8.4854637e-15
-0.085039688
0
-0.099347224
-7.8562726e-15
-0.11615174
-5.4499527e-18
-0.13327597
7.2795239e-15
-0.15116993
1.4024147e-14
-0.1710663
6.7453605e-15
-0.19148649
0
-0.21135191
0
-0.23189806
1.2040653e-14
-0.25413718
0
-0.27783392
0
-0.30294998
0
-0.32970996
0
-0.35818699
9.9694428e-15
-0.38846673
9.6041055e-15
-0.42078038
-9.253626e-15
-0.4548168
0
-0.49005494
0
-0.52655663
0
-0.56415091
0
-0.60213411
0
-0.64032139
1.4845762e-14
-0.67948491
-1.4313371e-14
-0.72019171
1.428601e-18
-0.76236812
0
-0.80689877
0
-0.85552714
0
-0.90983964
0
-0.97125802
-0.00011374194
-0.013850577
-0.00037956167
-0.028947332
-0.00063374586
-0.043234175
-0.00078848237
-0.056482609
-0.00077340746
-0.068188077
-0.0005205567
-0.076431785
0
-0.079606843
0
-0.093018466
0
-0.10873058
-7.5576031e-15
-0.1247414
7.279866e-15
-0.14153864
0
-0.16033481
4.4615754e-18
-0.17963704
-6.5001564e-15
-0.1982544
0
-0.21747326
1.2034826e-14
-0.23840045
0
-0.26073587
0
-0.28442552
-1.0745928e-14
-0.30969544
4.4383027e-18
-0.33656014
9.9625612e-15
-0.36500082
9.6006982e-15
-0.39536984
-9.2460768e-15
-0.42777784
8.9096744e-15
-0.46152244
0
-0.49617462
0
-0.53204798
0
-0.56903598
0
-0.60643625
0
-0.64407447
0
-0.68265046
0
-0.72270523
0
-0.76440265
1.2818856e-14
-0.80880873
2.4718135e-14
-0.85758959
0
-0.91217603
0
-0.97377747
-9.1797139e-05
-0.013790031
-0.00033862316
-0.028934338
-0.00061790101
-0.043380135
-0.00084785031
-0.056790038
-0.00095845185
-0.0686979
-0.00087669051
-0.077288699
-0.00056150624
-0.083553338
0
-0.087059873
0
-0.10175137
0
-0.11670372
-1.4560356e-14
-0.13246237
7.0075633e-15
-0.1502141
6.7504073e-15
-0.16845337
0
-0.18589355
0
-0.2038594
0
-0.22354606
0
-0.24458011
0
-0.2668995
1.0744517e-14
-0.29075461
1.0341913e-14
-0.31613046
-9.9600559e-15
-0.3428864
-9.597552e-15
-0.37135998
0
-0.40201201
0
-0.43438176
0
-0.46762055
0
-0.50165601
0
-0.53692057
0
-0.57332162
0
-0.61021304
0
-0.64736578
0
-0.68539396
1.3291748e-14
-0.72488072
-1.2815437e-14
-0.76622502
-1.2355939e-14
-0.81060109
0
-0.85957029
0
-0.91441049
2.2131038e-14
-0.97606155
-6.4081616e-05
-0.013733809
-0.00027375226
-0.028915713
-0.00055227914
-0.04349704
-0.00082698912
-0.05704424
-0.0010298311
-0.069128498
-0.0010859099
-0.078019307
-0.00094588537
-0.084720512
-0.00059400168
-0.090759336
0
-0.095168144
0
-0.10913849
0
-0.12391449
5.2212177e-18
-0.14067095
-4.5746284e-18
-0.15790132
-6.4940023e-15
-0.1742364
0
-0.19102309
-6.0199305e-15
-0.20953855
0
-0.2293312
1.1158146e-14
-0.25033367
0
-0.27283602
0
-0.29681033
-4.0721203e-18
-0.32202405
0
-0.34873211
0
-0.3774941
3.5736138e-18
-0.40831125
-8.5779677e-15
-0.44041002
-8.270281e-15
-0.47310907
0
-0.5065422
0
-0.54120388
0
-0.57708315
0
-0.61352168
0
-0.65024762
-1.3284857e-14
-0.68778384
1.2809856e-14
-0.72679481
-1.2350853e-14
-0.76789333
0
-0.81232898
0
-0.86149117
0
-0.91645552
0
-0.97807818
-3.2771248e-05
-0.013682394
-0.00019139663
-0.028891166
-0.00044722651
-0.043584672
-0.00073945687
-0.057244453
-0.0010037766
-0.069480676
-0.0011663131
-0.078649006
-0.0011719053
-0.085734173
-0.0010009787
-0.092246617
-0.00062580422
-0.09848452
0
-0.10199644
0
-0.11587077
0
-0.1316762
4.6300532e-18
-0.14794541
-6.4973154e-15
-0.16324922
2.5678786e-18
-0.17893
0
-0.196342
-5.7948825e-15
-0.21495359
0
-0.23469116
-1.0737483e-14
-0.25589398
4.5317407e-18
-0.27854138
0
-0.30230863
0
-0.32738254
-9.2357983e-15
-0.35431936
8.9013163e-15
-0.38338453
-8.5736995e-15
-0.41416088
-8.2628436e-15
-0.4458503
-2.5089934e-18
-0.47801159
0
-0.51085524
0
-0.54497151
-1.4277609e-14
-0.58037313
0
-0.61641966
0
-0.65276272
-1.2804779e-14
-0.68988027
0
-0.72851818
1.1904126e-14
-0.76946998
0
-0.81401276
2.2125493e-14
-0.8633036
0
-0.91831279
0
-0.97979816
-0.013635913
0
-9.8014619e-05
-0.02886096
-0.00031316459
-0.043643321
-0.00059896517
-0.057390595
-0.00089694486
-0.069754539
-0.0011364482
-0.07917651
-0.0012591495
-0.086621949
-0.0012406416
-0.093550212
-0.0010542325
-0.10023209
-0.00065209593
-0.10479531
7.2807847e-15
-0.1082934
0
-0.12320189
0
-0.13855822
-6.4943074e-15
-0.15290171
-2.5196067e-18
-0.16754891
2.7662238e-18
-0.18392047
0
-0.20141044
5.5759412e-15
-0.21993649
0
-0.23989053
0
-0.26127617
-9.953857e-15
-0.28367564
9.5859634e-15
-0.30722931
0
-0.332484
8.8977381e-15
-0.35975777
1.7145935e-14
-0.3889264
-8.2583147e-15
-0.41946857
-7.9597013e-15
-0.45073578
-2.2371686e-18
-0.48237106
1.4799838e-14
-0.51467515
0
-0.54827485
-1.3758876e-14
-0.58324266
0
-0.61892936
0
-0.65495732
-1.233942e-14
-0.69173992
1.1898349e-14
-0.7300916
1.1472748e-14
-0.77098035
0
-0.81564554
0
-0.86500846
0
-0.91990776
1.9809131e-14
-0.98123024
-0.028825877
0
-0.013594593
3.2572973e-05
-0.00016057933
-0.043672288
-0.00041951872
-0.057482928
-0.00072609198
-0.069950385
-0.0010152091
-0.079600101
-0.0012273927
-0.087378768
-0.0013333933
-0.094687101
-0.0013061296
-0.10174818
-0.0010976237
-0.10680552
-0.00067032876
-0.11059833
0
-0.11520626
0
-0.12970849
0
-0.14316559
-6.2510776e-15
-0.15684847
0
-0.17223817
0
-0.1886651
-1.1151322e-14
-0.20603446
-2.3435436e-18
-0.224789
0
-0.24497338
0
-0.26607737
9.5873898e-15
-0.28819218
0
-0.31189043
8.8944371e-15
-0.33748213
0
-0.36494793
8.2539071e-15
-0.39405513
-7.9549075e-15
-0.42428916
-7.6680676e-15
-0.45509985
7.3928064e-15
-0.48625354
0
-0.51804256
0
-0.55115727
0
-0.58571543
0
-0.62110986
0
-0.6568792
1.1893716e-14
-0.69340191
0
-0.73155811
1.1057079e-14
-0.77244256
-1.0658624e-14
-0.81722367
-2.0548708e-14
-0.86651616
0
-0.92127524
0
-0.98232005
-0.043670227
0
-0.02878753
9.7646874e-05
-0.0135592
6.3316115e-05
-0.00021514736
-0.057521619
-0.0005082714
-0.070068027
-0.00082168497
-0.079918642
-0.0010968643
-0.08800127
-0.0013001041
-0.095654255
-0.0014031425
-0.1030538
-0.0013588036
-0.10853597
-0.0011282214
-0.11299579
-0.00068732177
-0.11702274
0
-0.12133585
0
-0.13401175
0
-0.1467999
-6.0169459e-15
-0.16125852
-5.7944025e-15
-0.17668016
0
-0.19294947
2.3332248e-18
-0.21055471
-2.3364049e-18
-0.22959268
0
-0.24946843
0
-0.27021836
0
-0.29246072
0
-0.31650205
1.7127633e-14
-0.34233453
0
-0.36987061
0
-0.39880717
1.5331188e-14
-0.42865793
-7.3875274e-15
-0.45902476
-7.1249002e-15
-0.48970164
-1.3738242e-14
-0.52099994
0
-0.553648
-1.2778819e-14
-0.58784959
0
-0.62298962
1.2252535e-18
-0.65856855
1.0277877e-18
-0.69489751
0
-0.73293823
7.9995611e-19
-0.77386161
-1.0272374e-14
-0.81866821
0
-0.8678447
0
-0.92233846
-1.8397237e-14
-0.9830866
-0.05750492
0
-0.043640607
0.00016027816
-0.028746757
0.00018997776
-0.013531324
9.0188079e-05
-0.00026053773
-0.070108516
-0.00057510503
-0.080131449
-0.00088813145
-0.088486269
-0.0011622294
-0.096449654
-0.0013675736
-0.10415144
-0.0014585643
-0.11002415
-0.0013965148
-0.11508962
-0.0011576063
-0.11988261
-0.00070174443
-0.12254997
0
-0.12535762
0
-0.13737544
0
-0.15094713
2.6335144e-18
-0.16541778
-2.3319412e-18
-0.18064466
0
-0.19715207
2.3641648e-18
-0.21509796
4.9747246e-15
-0.23380789
9.5802967e-15
-0.25326058
0
-0.27412936
0
-0.29673611
0
-0.32103999
8.2457362e-15
-0.34701527
0
-0.3745413
7.6580775e-15
-0.40318748
-7.3823007e-15
-0.43259118
0
-0.46252687
6.86366e-15
-0.49275611
0
-0.52357664
0
-0.55580324
1.2317487e-14
-0.58967502
0
-0.62461886
0
-0.66004276
0
-0.69625427
-8.207534e-19
-0.73424864
7.4890173e-19
-0.77518582
0
-0.81998075
1.9087127e-14
-0.86893002
1.8396049e-14
-0.92313999
0
-0.98354236
-0.070071374
0
-0.057441025
0.00021475002
-0.043584139
0.00031200377
-0.028704308
0.00027077833
-0.013511862
0.0001111485
-0.00029478054
-0.080238435
-0.00062188523
-0.088832674
-0.00094133352
-0.097072773
-0.0012220263
-0.10504476
-0.001420557
-0.11127339
-0.0014990413
-0.11689915
-0.0014336924
-0.12239489
-0.0011821664
-0.12578937
-0.00070566607
-0.1258911
6.2511784e-15
-0.12849505
0
-0.14126996
0
-0.15484146
-5.5750224e-15
-0.16908383
5.367018e-15
-0.18454749
5.1690452e-15
-0.20145286
2.0533225e-18
-0.21905704
4.7894158e-15
-0.23727649
0
-0.25684365
0
-0.27810715
-8.5557992e-15
-0.30098965
0
-0.32546209
-7.9445514e-15
-0.35152889
7.656177e-15
-0.37890559
0
-0.40715606
0
-0.43613218
1.7272403e-18
-0.46565912
0
-0.49544576
0
-0.52583289
0
-0.55765657
-1.1870249e-14
-0.59123423
0
-0.62600254
-1.1042429e-14
-0.66133271
8.0573832e-19
-0.69748401
0
-0.73546565
7.0687967e-19
-0.77642045
0
-0.82110424
-1.8394031e-14
-0.86980602
0
-0.9236399
1.7087001e-14
-0.98373136
-0.080239429
0
-0.06997378
0.00025987872
-0.057330839
0.0004179823
-0.043497329
0.00044477792
-0.028662018
0.00033386418
-0.013502102
0.00012421447
-0.00031889158
-0.089038889
-0.00065934266
-0.097522467
-0.0009894707
-0.10573682
-0.001268643
-0.11229043
-0.0014598486
-0.11842573
-0.0015395981
-0.12456824
-0.0014645756
-0.12862931
-0.0011886616
-0.12945923
-0.00070013289
-0.1283421
0
-0.13214596
0
-0.14491517
0
-0.1582308
2.2752711e-18
-0.17270066
-5.1687429e-15
-0.18861968
0
-0.20517744
4.7920172e-15
-0.22222479
-1.5669369e-18
-0.24055408
0
-0.26055289
0
-0.28210812
-8.2387509e-15
-0.30516048
0
-0.32976655
7.64868e-15
-0.35582977
0
-0.38292776
0
-0.41073479
-1.3706999e-14
-0.43929761
1.3218387e-14
-0.46843324
0
-0.49781668
0
-0.52779376
0
-0.55924065
0
-0.59253947
-1.1035879e-14
-0.62718576
0
-0.66245263
0
-0.69859578
0
-0.73660045
-9.5392796e-15
-0.7775013
0
-0.8220591
1.7727887e-14
-0.87040674
0
-0.92390374
1.6466834e-14
-0.98363257
-0.08910226
0
-0.08015864
0.00029408112
-0.069817529
0.00050572169
-0.057167278
0.00059569316
-0.043379287
0.00054830654
-0.028621274
0.00037315621
-0.013503069
0.00012735353
-0.00033820246
-0.09779793
-0.00069287866
-0.10623051
-0.0010266941
-0.11308048
-0.0013036572
-0.11967329
-0.0014999297
-0.12640321
-0.0015731832
-0.13109378
-0.0014726741
-0.13258673
-0.0011794216
-0.13224292
-0.00069307389
-0.13129741
0
-0.13555162
0
-0.14805195
5.3689044e-15
-0.16157979
2.4508927e-18
-0.17655324
-2.0816259e-18
-0.19212647
-4.7882343e-15
-0.20806613
-4.6103456e-15
-0.22521946
-4.4427373e-15
-0.24401875
0
-0.26432259
0
-0.28604419
7.9370145e-15
-0.30924299
0
-0.33391131
0
-0.35982463
0
-0.38654317
6.8490708e-15
-0.41391908
1.6542008e-18
-0.44211579
1.3575948e-18
-0.4708876
0
-0.49989095
0
-0.52949108
0
-0.56057426
8.8585638e-19
-0.5936304
0
-0.62817646
0
-0.66342963
0
-0.69958733
-9.5372236e-15
-0.73760506
-9.1937483e-15
-0.7784464
-4.1948048e-19
-0.82277333
4.7473875e-19
-0.87078249
0
-0.92389489
1.5869041e-14
-0.98327677
-0.097895546
0
-0.089051866
0.00031839747
-0.079997915
0.00057240325
-0.069589985
0.00072070138
-0.056949579
0.00073403306
-0.043229826
0.00061244375
-0.028582292
0.00038254052
-0.013515492
0.00011857422
-0.00035536648
-0.10652784
-0.00071872134
-0.11364856
-0.0010549754
-0.12064388
-0.0013398794
-0.12789981
-0.0015330389
-0.13317882
-0.0015818938
-0.13531995
-0.0014613783
-0.135685
-0.0011679168
-0.13554882
-0.00068641116
-0.13397996
0
-0.13846006
0
-0.15115336
0
-0.16521948
4.9749797e-15
-0.17986219
0
-0.19476055
0
-0.21079954
0
-0.22845916
-4.2759297e-15
-0.24757579
8.2363394e-15
-0.26803789
0
-0.28990645
0
-0.31317536
0
-0.33778251
-7.0991931e-15
-0.36345524
0
-0.38976871
0
-0.41674615
6.3639731e-15
-0.44460371
-6.1371142e-15
-0.47303807
0
-0.50169687
0
-0.53094378
0
-0.56169386
0
-0.59452469
0
-0.62901462
0
-0.66425591
0
-0.70045739
-5.3881623e-19
-0.73848514
0
-0.77918964
1.7082529e-14
-0.82328317
1.6465033e-14
-0.87090998
0
-0.92366451
0
-0.98268144
-0.10662891
0
-0.097851481
0.00033786081
-0.088888553
0.00061997615
-0.079736662
0.00081599467
-0.06929377
0.00088814562
-0.056677095
0.00081935694
-0.043048727
0.00062713892
-0.028545687
0.00035599133
-0.013540671
9.5820601e-05
-0.00036854345
-0.11399833
-0.0007384913
-0.12133815
-0.0010844885
-0.12905828
-0.0013694818
-0.13488033
-0.0015415959
-0.13764677
-0.0015701563
-0.1387068
-0.0014473635
-0.13930806
-0.001156532
-0.13855063
-0.00067726358
-0.13615521
0
-0.14134104
0
-0.15458084
0
-0.1683441
1.5054603e-18
-0.18226792
-4.6106503e-15
-0.19725569
0
-0.21383173
4.2749799e-15
-0.23181736
4.115254e-15
-0.25108076
0
-0.27169537
0
-0.29362671
-7.3584351e-15
-0.31686111
0
-0.34135488
-6.8386935e-15
-0.36673553
0
-0.39263432
6.3567805e-15
-0.41924459
6.1339701e-15
-0.44679777
1.0403334e-18
-0.4749149
-5.7069244e-15
-0.50326109
0
-0.53219356
0
-0.56262183
-1.0245431e-14
-0.59525281
0
-0.62969202
0
-0.66495557
4.3823887e-19
-0.70119611
-8.8590919e-15
-0.73920268
8.5400413e-15
-0.7797686
8.2314749e-15
-0.82356436
-1.5867527e-14
-0.87083907
0
-0.92318906
0
-0.98189472
-0.11412944
0
-0.10658079
0.00035504623
-0.097666484
0.00065801984
-0.088584873
0.00088410064
-0.079379392
0.0010060373
-0.068930533
0.00099163411
-0.056350276
0.00083836366
-0.042837997
0.00058269436
-0.028513295
0.00028743506
-0.013579972
5.7019582e-05
-0.00037866475
-0.12175823
-0.00075914769
-0.12987697
-0.0011084968
-0.13619586
-0.0013773006
-0.13955669
-0.0015306054
-0.14129359
-0.0015555285
-0.14260928
-0.0014334143
-0.14258979
-0.0011411439
-0.1410316
-0.00066670542
-0.13832033
0
-0.14455794
0
-0.15753113
-1.4776951e-18
-0.17054869
9.2189113e-15
-0.18454218
-1.6801756e-18
-0.20009385
4.2723871e-15
-0.21700262
-4.1124478e-15
-0.23512101
7.9263206e-15
-0.25454477
0
-0.27521721
0
-0.29709932
-7.0872355e-15
-0.3202854
0
-0.34465118
-6.5881926e-15
-0.36967866
-6.3510728e-15
-0.39515509
0
-0.42145295
-5.9090425e-15
-0.44871733
0
-0.47654479
0
-0.50461687
0
-0.53325808
-1.0238615e-14
-0.56337929
-9.8760906e-15
-0.59582055
0
-0.63024355
0
-0.66552483
8.8564602e-15
-0.70180637
0
-0.73978374
-8.2302534e-15
-0.78014317
-7.9329736e-15
-0.82366083
0
-0.87052931
0
-0.92253246
1.4202021e-14
-0.98090431
-0.1219031
0
-0.1140989
0.00036828077
-0.10638281
0.00069162836
-0.09730378
0.00093850919
-0.088142158
0.001090333
-0.078930018
0.0011239781
-0.068502307
0.0010150689
-0.055973352
0.00077818208
-0.04259365
0.00046942863
-0.028488082
0.00017083675
-0.013632194
0
-0.00038921515
-0.13035549
-0.00077589937
-0.13712476
-0.0011148821
-0.14104165
-0.0013678748
-0.14343343
-0.001516682
-0.14543925
-0.0015404753
-0.14613564
-0.001414188
-0.14534127
-0.0011234724
-0.14353138
-0.00065694237
-0.14081311
0
-0.14732976
0
-0.15956643
0
-0.17262479
-4.4366317e-15
-0.187201
4.2716527e-15
-0.20308538
1.7245656e-18
-0.22011148
0
-0.23840113
0
-0.25788537
7.3509148e-15
-0.27848278
0
-0.30032345
-6.8264321e-15
-0.323496
0
-0.34766039
-6.3473247e-15
-0.37228884
0
-0.39739405
0
-0.42340272
5.6960927e-15
-0.45039891
5.4954957e-15
-0.47795685
-5.3020514e-15
-0.50578697
0
-0.53415696
0
-0.56397867
9.5195883e-15
-0.5962532
0
-0.63066781
-8.8532859e-15
-0.66598792
8.535937e-15
-0.70228387
8.2286846e-15
-0.74020188
0
-0.78035756
7.6452399e-15
-0.82352908
1.4736373e-14
-0.87002886
0
-0.92166611
0
-0.97972539
-0.13049193
0
-0.12184044
0.00037836598
-0.11390294
0.00071766624
-0.10598716
0.00098676945
-0.096763142
0.0011575273
-0.087562071
0.0012184527
-0.078389984
0.0011514197
-0.068012009
0.00094276331
-0.05554231
0.00062613551
-0.042318063
0.00027823259
-0.028461914
0
-0.01246155
0
-0.00039774233
-0.13766622
-0.0007804054
-0.14209814
-0.0011075516
-0.14511513
-0.0013557892
-0.14778611
-0.0015020547
-0.14917287
-0.0015197582
-0.14912375
-0.0013923316
-0.14814364
-0.0011070804
-0.14636133
-0.00064653188
-0.14285608
0
-0.14922184
0
-0.1614675
0
-0.17511143
0
-0.1900252
-4.1140973e-15
-0.20600771
0
-0.2232161
0
-0.2415746
3.6723203e-15
-0.26096209
0
-0.28149429
0
-0.3033699
0
-0.32651091
0
-0.35037471
6.1140373e-15
-0.37459209
-5.8973798e-15
-0.39938388
0
-0.42513064
-5.4892191e-15
-0.45185885
0
-0.47917523
5.1102655e-15
-0.50678701
0
-0.53490361
0
-0.56444293
9.1760135e-15
-0.59656531
0
-0.63099735
0
-0.66632581
8.2269502e-15
-0.7026396
7.9306005e-15
-0.74047972
4.4902151e-20
-0.78036981
0
-0.82321114
-1.4201766e-14
-0.86931922
0
-0.92064921
-0.0089383213
-0.96939561
-0.13781658
0
-0.13036213
0.00038862217
-0.12156976
0.00073729684
-0.11348344
0.0010243862
-0.10539428
0.0012175044
-0.096043157
0.0012934429
-0.086842958
0.0012483287
-0.077760182
0.0010703112
-0.067460989
0.00075916491
-0.055056188
0.00037048522
-0.041997738
0
-0.026143964
0
-0.013376396
-1.0653502e-14
-0.00040006885
-0.14272518
-0.0007754912
-0.14633074
-0.0010980732
-0.14963852
-0.0013427403
-0.15168756
-0.0014817359
-0.15236218
-0.0014963161
-0.15218557
-0.0013721066
-0.15127502
-0.0010896445
-0.1487049
-0.00063336896
-0.14405406
0
-0.15097877
0
-0.16378215
0
-0.17777125
1.736463e-18
-0.19276727
3.9590399e-15
-0.20894415
0
-0.22623315
0
-0.24447635
0
-0.26377332
0
-0.28434771
0
-0.30627548
6.336845e-15
-0.32924565
0
-0.3527565
-1.4856766e-18
-0.37663935
0
-0.40116119
5.4844956e-15
-0.42664987
-5.291058e-15
-0.45313008
0
-0.48021676
-4.9265693e-15
-0.50763872
0
-0.53552431
0
-0.56479123
0
-0.59677661
0
-0.63121529
1.6448857e-14
-0.66656512
0
-0.70287024
7.6432111e-15
-0.74059991
-7.3670684e-15
-0.78022717
7.1003899e-15
-0.82268677
1.3684678e-14
-0.86849255
-0.017409336
-0.91101809
-0.008128513
-0.95969876
-0.14291967
0
-0.13765836
0.00039688902
-0.12996775
0.00075683662
-0.12102564
0.0010523954
-0.1128337
0.0012646613
-0.10460285
0.0013611192