/*--------------------------------*- C++ -*----------------------------------*\
| =========                 |                                                 |
| \\      /  F ield         | OpenFOAM: The Open Source CFD Toolbox           |
|  \\    /   O peration     | Version:  v2012                                 |
|   \\  /    A nd           | Website:  www.openfoam.com                      |
|    \\/     M anipulation  |                                                 |
\*---------------------------------------------------------------------------*/
FoamFile
{
    version     2.0;
    format      ascii;
    class       surfaceScalarField;
    location    "13.71776417541";
    object      phi;
}
// * * * * * * * * * * * * * * * * * * * * * * * * * * * * * * * * * * * * * //

dimensions      [0 3 -1 0 0 0 0];
oriented        oriented;


internalField   nonuniform List<scalar> 
18180
(
0.0033294471
-3.304802
0.0064232763
-3.0916905
0.0035485715
-3.2375558
0.0093076709
-2.8920909
0.0068783279
-3.0296042
0.0035833393
-3.1680674
0.011991342
-2.7038706
0.010000886
-2.8348115
0.0069558274
-2.9648164
0.0036304531
-3.1001626
0.014472797
-2.5267893
0.012945649
-2.650947
0.010125939
-2.7747885
0.0070549495
-2.9008217
0.0036442495
-3.0354197
0.016779345
-2.3605834
0.015720176
-2.4772149
0.013128593
-2.5950708
0.010280456
-2.7144722
0.0070865847
-2.8398378
0.0036344067
-2.975981
0.018907871
-2.2049225
0.018352344
-2.3135586
0.015976967
-2.4250976
0.013346087
-2.5388235
0.010331148
-2.65705
0.0070710063
-2.7833981
0.0035990417
-2.9208667
0.020877494
-2.0593742
0.020853728
-2.1601201
0.018698257
-2.2648678
0.01626559
-2.3728691
0.013418071
-2.4852376
0.010310193
-2.6036688
0.0070048847
-2.7313071
0.0035400504
-2.8708488
0.022690331
-1.9233751
0.023244064
-2.0165887
0.021311614
-2.1143203
0.019068695
-2.2161412
0.016359383
-2.3230365
0.013390771
-2.435037
0.010215598
-2.5539622
0.006892331
-2.6836052
0.0034614384
-2.8249115
0.024354474
-1.7963359
0.025536198
-1.8825242
0.023839959
-1.9733638
0.021776963
-2.0685892
0.019183517
-2.1696567
0.016320578
-2.2760392
0.013266524
-2.3878571
0.010056707
-2.5082781
0.0067418592
-2.6400773
0.0033708052
-2.7835175
0.025871462
-1.6776836
0.027742273
-1.7573751
0.026303958
-1.8416895
0.024418213
-1.9302733
0.02191126
-2.0251024
0.019122509
-2.1260291
0.016159151
-2.2315746
0.013063361
-2.3439415
0.0098484632
-2.4665003
0.0065696086
-2.6006845
0.003277771
-2.7458511
0.027242405
-1.5668669
0.029869869
-1.6405884
0.028722998
-1.7188343
0.027019229
-1.8010052
0.024571298
-1.8894238
0.021812123
-1.984501
0.018907381
-2.0841677
0.015907361
-2.1895079
0.012806401
-2.3038478
0.0096156502
-2.4288147
0.0063958906
-2.565108
0.0031906266
-2.7122026
0.028465741
-1.4633793
0.031922755
-1.5316113
0.03111364
-1.604282
0.029608167
-1.6804295
0.027193636
-1.7625054
0.024413518
-1.8515388
0.021516747
-1.9456033
0.018591135
-2.044575
0.015605122
-2.1512651
0.012530625
-2.267893
0.0093870843
-2.3949742
0.0062378721
-2.5332469
0.0031128362
-2.6819326
0.029538715
-1.3667428
0.033900667
-1.4299227
0.033488613
-1.4974829
0.032212109
-1.5680672
0.029812588
-1.6441179
0.026953901
-1.7271941
0.023999721
-1.8156557
0.021105763
-1.9086559
0.018235589
-2.0084576
0.015301292
-2.1173142
0.012273302
-2.2358521
0.009185456
-2.3647734
0.0061020137
-2.5047883
0.0030414917
-2.655163
0.030457265
-1.2765073
0.035799263
-1.3350206
0.035855901
-1.3978968
0.034856063
-1.4633806
0.032464852
-1.5338311
0.02946781
-1.6111704
0.026372887
-1.6940169
0.02344691
-1.7813927
0.020673815
-1.8749799
0.01791007
-1.9767403
0.015042494
-2.0872704
0.012060626
-2.2073731
0.0090170244
-2.3378871
0.0059810092
-2.4795406
0.0029686122
-2.6313405
0.031216832
-1.1922501
0.037610125
-1.2464406
0.038218575
-1.3050112
0.037561224
-1.3658272
0.035187946
-1.4311353
0.031996197
-1.5031226
0.028661797
-1.5805223
0.025611833
-1.662384
0.02289504
-1.7501574
0.020319997
-1.8455067
0.017673812
-1.9488699
0.014856544
-2.060661
0.011895354
-2.1820341
0.0088680528
-2.3140482
0.0058567807
-2.4572202
0.0028843062
-2.6104513
0.031813126
-1.1135811
0.039321938
-1.1637538
0.040574186
-1.2183411
0.040343885
-1.2748968
0.038019463
-1.335503
0.034585012
-1.402569
0.030901388
-1.474811
0.027606172
-1.5512404
0.024872097
-1.6333175
0.022487614
-1.7227202
0.020123475
-1.8196107
0.017555905
-1.9240336
0.01473893
-2.0368944
0.011753827
-2.1596065
0.008709805
-2.293021
0.0057075454
-2.4375827
0.0027802081
-2.5920338
0.032242541
-1.0401324
0.040921293
-1.0865621
0.042915107
-1.1374428
0.043213846
-1.1901061
0.040992978
-1.2464289
0.037287038
-1.3090208
0.033136911
-1.3764647
0.029444872
-1.4476324
0.026581473
-1.5240484
0.024361222
-1.6075756
0.022335911
-1.6984164
0.020116611
-1.7963696
0.01754039
-1.9018886
0.014651097
-2.0158939
0.011593429
-2.1398247
0.0085090634
-2.2745319
0.0055151942
-2.420362
0.0026516157
-2.5760058
0.032503084
-0.97155793
0.042393872
-1.0145014
0.045229227
-1.0619081
0.046174023
-1.1110052
0.044136624
-1.1634427
0.040153066
-1.2219831
0.035425319
-1.285033
0.031158176
-1.3512085
0.028005687
-1.4220694
0.025885477
-1.4997335
0.02424051
-1.5846994
0.022481276
-1.6766275
0.020267739
-1.775645
0.017566971
-1.8822459
0.014531739
-1.9973233
0.011367296
-2.1224393
0.0082388739
-2.2583098
0.0052698807
-2.4053008
0.0024980984
-2.5619653
0.032594349
-0.9075325
0.043725598
-0.94723136
0.047501196
-0.99137274
0.049220298
-1.037181
0.047472317
-1.0860998
0.043233634
-1.1409888
0.037827964
-1.2000515
0.032785203
-1.2615643
0.029141275
-1.3270786
0.027006757
-1.3989643
0.025755669
-1.4780409
0.024573229
-1.5640858
0.022873621
-1.6571086
0.020486777
-1.757294
0.017548328
-1.8649027
0.014316324
-1.9809773
0.01103836
-2.1071391
0.0078850794
-2.244101
0.0049710834
-2.3921854
0.0023227768
-2.5497958
0.032518136
-0.84775063
0.044903498
-0.88442907
0.049713126
-0.92549496
0.052342157
-0.96826016
0.051013249
-1.0139899
0.046576212
-1.0655969
0.040417437
-1.121071
0.034382085
-1.1782792
0.029988721
-1.2387167
0.027675023
-1.3049886
0.026791375
-1.3781765
0.0262989
-1.4584663
0.025290177
-1.5457654
0.023383085
-1.6399801
0.020649392
-1.7411194
0.017395185
-1.8495576
0.013955098
-1.9665442
0.010587986
-2.0937468
0.0074476889
-2.2317274
0.0046259265
-2.3807627
0.0021310209
-2.5392067
0.032278166
-0.79192764
0.045916738
-0.82579085
0.051846345
-0.8639615
0.055522673
-0.90390302
0.054763794
-0.94673459
0.050220644
-0.99539337
0.043266337
-1.0476571
0.036025753
-1.1009479
0.030578525
-1.1566073
0.02783809
-1.2174883
0.027244672
-1.2849139
0.027545606
-1.3594768
0.027429535
-1.4412616
0.026210197
-1.5298067
0.023833688
-1.6249129
0.020630788
-1.7267821
0.017039928
-1.8360187
0.01342375
-1.9539003
0.01001726
-2.0820614
0.0069382517
-2.2209482
0.0042461817
-2.3708739
0.001929103
-2.5300908
0.031880735
-0.73979639
0.046756774
-0.77104061
0.053882477
-0.8064818
0.058740329
-0.84380132
0.058718454
-0.88399282
0.054197711
-0.92999174
0.046447227
-0.97939208
0.037796652
-1.0291497
0.03095216
-1.080375
0.027471962
-1.136138
0.027037842
-1.1979551
0.02818785
-1.2668012
0.029182485
-1.3431693
0.028904052
-1.4264332
0.027087536
-1.5158668
0.024049488
-1.6115835
0.020336614
-1.7141259
0.016449691
-1.8241008
0.012724896
-1.9428366
0.0093434137
-2.0718761
0.006375284
-2.2116001
0.0038453203
-2.3623078
0.0017231601
-2.5222036
0.031334525
-0.69110705
0.047418436
-0.71991868
0.055804327
-0.7527898
0.061970062
-0.78766965
0.062862868
-0.82544572
0.058527077
-0.86903099
0.05002831
-0.91588673
0.039787941
-0.96249345
0.031168846
-1.0096333
0.026559856
-1.060576
0.026077992
-1.1169901
0.028098194
-1.1801784
0.030423232
-1.2511321
0.031380107
-1.3293715
0.030384831
-1.4136838
0.02767304
-1.5036322
0.023895383
-1.599861
0.019719969
-1.7029894
0.015628338
-1.8136841
0.011882978
-1.933171
0.008593254
-2.0630026
0.0057797692
-2.2034937
0.0034362297
-2.3549544
0.0015184264
-2.51544
0.030651182
-0.64562564
0.047899946
-0.672183
0.057596953
-0.70263941
0.06518455
-0.73524064
0.067174293
-0.77079963
0.063216591
-0.81218041
0.054070423
-0.85677065
0.042098093
-0.9006029
0.031306707
-0.94402219
0.025113694
-0.99045002
0.024270361
-1.0416662
0.027129275
-1.0993062
0.030992195
-1.164869
0.033530142
-1.2381784
0.033683411
-1.3178304
0.031519425
-1.4027238
0.027770088
-1.4929775
0.023300581
-1.5895631
0.01878407
-1.6932392
0.014609397
-1.8045293
0.010935577
-1.9247192
0.0077969961
-2.0553034
0.0051716761
-2.1965402
0.0030297992
-2.3486213
0.001318912
-2.5096217
0.029845015
-0.60313878
0.048204009
-0.62760644
0.059248147
-0.6558014
0.068355609
-0.68626886
0.071622643
-0.71978069
0.068261393
-0.7591332
0.058623308
-0.80170113
0.044828826
-0.8431216
0.031457657
-0.8831912
0.02315733
-0.92541092
0.021550266
-0.97166825
0.025139113
-1.0238626
0.03072373
-1.0840836
0.035223342
-1.1525114
0.036921739
-1.2277308
0.035599738
-1.3082395
0.032021488
-1.3933519
0.027268986
-1.4836609
0.022263657
-1.5805228
0.017573682
-1.6846496
0.013444867
-1.7965169
0.0099248721
-1.9173527
0.0069832372
-2.0486784
0.0045678435
-2.190563
0.0026343994
-2.3432239
0.0011275535
-2.5046624
0.028932274
-0.56345123
0.048337632
-0.58598411
0.060749652
-0.61206043
0.071455308
-0.6405246
0.07617163
-0.6721333
0.073644676
-0.70960895
0.063722213
-0.75035891
0.048079624
-0.7897101
0.031725519
-0.82680907
0.020736026
-0.8651373
0.017868493
-0.90666354
0.021984743
-0.95354325
0.029449784
-1.0084809
0.036307218
-1.0720751
0.040017078
-1.1429707
0.039914274
-1.219492
0.036714354
-1.3003726
0.031718762
-1.3853091
0.026154942
-1.4754955
0.020841863
-1.5725451
0.016160055
-1.6770932
0.012193418
-1.7894665
0.0088908718
-1.9109774
0.0061760575
-2.0429765
0.0039811246
-2.1854799
0.0022559298
-2.3386051
0.0009465424
-2.5003521
0.027930783
-0.52639319
0.048311132
-0.54712605
0.062097063
-0.57121988
0.074458126
-0.59779639
0.080780852
-0.62761972
0.079338091
-0.66334656
0.069386253
-0.70245239
0.05194408
-0.74004926
0.032221015
-0.7745573
0.017913416
-0.80931662
0.013196984
-0.8463476
0.017539403
-0.88804405
0.026984715
-0.93775195
0.036609474
-0.99657148
0.042863174
-1.0632347
0.04444701
-1.1359567
0.041913732
-1.2131855
0.036759346
-1.2938216
0.030569247
-1.3782387
0.0244975
-1.4682456
0.01913194
-1.565492
0.014625195
-1.6704037
0.010911089
-1.7833271
0.0078671245
-1.9054513
0.0053936445
-2.0381104
0.0034203579
-2.1811485
0.001898032
-2.3346666
0.00077693902
-2.49661
0.02686054
-0.49180481
0.048135911
-0.51086498
0.063289859
-0.53309567
0.077341103
-0.55788979
0.085408684
-0.58602528
0.085305128
-0.62010491
0.07561668
-0.65770807
0.056505351
-0.69383541
0.033058409
-0.72612779
0.014768892
-0.75765079
0.0075295924
-0.79043122
0.011691524
-0.82707649
0.023145362
-0.87160771
0.035945145
-0.92569854
0.045330933
-0.98821373
0.049162568
-1.0572704
0.047679778
-1.1311244
0.042513888
-1.2082141
0.035643538
-1.2880962
0.028650969
-1.3719344
0.022425971
-1.4617608
0.017248714
-1.5591642
0.013048351
-1.6644892
0.0096449182
-1.7779265
0.0068788071
-1.9007036
0.0046482697
-2.0339691
0.0028908901
-2.1775038
0.0015622719
-2.3312606
0.00061832185
-2.493217
0.025727688
-0.45951542
0.047824847
-0.47704553
0.064327338
-0.4975265
0.080086087
-0.52062749
0.090013507
-0.54715576
0.091503483
-0.57966762
0.082400479
-0.61588063
0.061833357
-0.65078457
0.034347358
-0.68122079
0.011395364
-0.7098476
0.00088558371
-0.73863972
0.0043496537
-0.77037646
0.017756589
-0.80977558
0.034119758
-0.85916658
0.047271359
-0.917612
0.054002166
-0.98313403
0.054060058
-1.0538237
0.049114012
-1.1278218
0.041541367
-1.2040251
0.033444047
-1.2829057
0.026132483
-1.3661447
0.020100685
-1.4558142
0.015305725
-1.5534556
0.011496772
-1.659217
0.0084300391
-1.7732346
0.0059425006
-1.8966285
0.0039470822
-2.0304982
0.0023952047
-2.1744053
0.001249199
-2.3282479
0.00047046747
-2.4901198
0.019769983
-0.50463385
0.047394727
-0.44550575
0.06520629
-0.46435836
0.082676193
-0.48585355
0.094556436
-0.51083887
0.097886846
-0.54184236
0.089715093
-0.5767552
0.067987441
-0.61064396
0.036192105
-0.63955388
0.0078958663
-0.66562347
-0.0066934939
-0.69070403
-0.0045529839
-0.71769349
0.010657577
-0.75200769
0.03093829
-0.79671213
0.048519513
-0.8511358
0.058882398
-0.91325628
0.061082857
-0.98100254
0.056691789
-1.052217
0.048450201
-1.1252725
0.039055068
-1.2001191
0.030373463
-1.2779906
0.02323567
-1.3606751
0.01768542
-1.4503109
0.013400852
-1.5482803
0.010020543
-1.6545441
0.0072890756
-1.7691366
0.0050673843
-1.893194
0.0032931424
-2.0275738
0.0019339171
-2.1717433
0.00095952985
-2.3255177
0.00033518899
-2.4871376
0.014954863
-0.50544664
0.042262997
-0.48460635
0.065948213
-0.43345798
0.085105761
-0.45342841
0.099001462
-0.47692116
0.10440107
-0.50645321
0.097535348
-0.54014535
0.075016529
-0.5731903
0.038692013
-0.60086749
0.004371276
-0.62469483
-0.015155561
-0.64634672
-0.015061887
-0.66878628
0.001707081
-0.69807822
0.026213243
-0.73809606
0.048901633
-0.78852183
0.063696245
-0.84734433
0.068750054
-0.91236017
0.06536977
-0.98110595
0.056575646
-1.0515077
0.045700702
-1.1229293
0.035310968
-1.1962649
0.026733158
-1.2731239
0.020196355
-1.3554264
0.015324597
-1.44521
0.011607502
-1.5436128
0.0086514256
-1.6504042
0.0062337178
-1.7656359
0.0042566414
-1.8902859
0.0026866831
-2.0251089
0.0015064407
-2.1694017
0.00069319534
-2.3229598
0.00020815276
-2.4842642
0.011094375
-0.50594959
0.038210446
-0.48645904
0.062141833
-0.46682955
0.087381582
-0.42323041
0.10335259
-0.44530493
0.11100496
-0.47336135
0.10582793
-0.50587049
0.0829533
-0.53822135
0.041946874
-0.56493679
0.00092530843
-0.58681409
-0.024419242
-0.60531737
-0.027182894
-0.62342052
-0.0092100008
-0.64777315
0.019771517
-0.68311044
0.048243207
-0.72953482
0.068316681
-0.78512189
0.077032178
-0.84760501
0.075248841
-0.91422305
0.066129996
-0.98243985
0.053634188
-1.0510291
0.041153768
-1.1203964
0.030707459
-1.1921563
0.022859751
-1.2682028
0.017229293
-1.3503883
0.013128378
-1.4404948
0.0099718082
-1.5393989
0.0074046107
-1.6467784
0.0052667882
-1.7626163
0.0035093781
-1.887845
0.0021260743
-2.0230015
0.0011113005
-2.1672723
0.00044790597
-2.3205022
8.6861636e-05
-2.4813999
0.0079734116
-0.50613234
0.035065894
-0.48783767
0.059470794
-0.46968565
0.085228814
-0.45122095
0.10762036
-0.41588715
0.11769191
-0.44250656
0.11452726
-0.47376947
0.091801214
-0.50553622
0.046079996
-0.53158286
-0.0023229986
-0.55177976
-0.034393415
-0.56738305
-0.040903607
-0.58136833
-0.022179089
-0.60089417
0.011464938
-0.63156393
0.046378268
-0.67397429
0.072603225
-0.72634609
0.085865538
-0.78643877
0.086396235
-0.85124076
0.07731909
-0.91773358
0.063139128
-0.98410044
0.048162609
-1.0501561
0.035317977
-1.1172245
0.025718035
-1.1875788
0.01907254
-1.2631994
0.014502216
-1.3455652
0.011166093
-1.4361497
0.0085145388
-1.5356316
0.0062819396
-1.6436048
0.0043850715
-1.7600557
0.0028220926
-1.8857766
0.0016086886
-2.0211448
0.0007466493
-2.1652625
0.00022153989
-2.3180796
-2.1779034e-05
-2.4785779
0.0055404393
-0.50618906
0.032624977
-0.48869512
0.057894886
-0.47204336
0.084308393
-0.45524341
0.10776067
-0.43902078
0.12445844
-0.41380106
0.12344543
-0.44366638
0.10135901
-0.47477157
0.051252358
-0.50064615
-0.0051640562
-0.51950663
-0.044959171
-0.53237366
-0.056191965
-0.54241279
-0.037255301
-0.5572421
0.0011727132
-0.58328561
0.043159956
-0.62166925
0.076410584
-0.67081202
0.095153184
-0.7285898
0.09883447
-0.79183748
0.090325039
-0.85705559
0.074518526
-0.92179504
0.056652725
-0.98524565
0.040780092
-1.0482066
0.028844605
-1.11309
0.020813708
-1.1825778
0.015628582
-1.258186
0.012122232
-1.3410008
0.0094678512
-1.4322035
0.0072357358
-1.5322982
0.005275991
-1.6408568
0.0035816086
-1.7578621
0.0021900077
-1.884006
0.001131587
-2.0194493
0.00041095024
-2.1632908
1.6958212e-05
-2.3156681
-0.00011084585
-2.4757876
0.0037685107
-0.50661892
0.030738842
-0.48928156
0.057384692
-0.47386119
0.084714138
-0.4588738
0.10939354
-0.44449627
0.12761597
-0.43280663
0.13241884
-0.41550251
0.11084041
-0.44516901
0.057069609
-0.47120547
-0.0072964308
-0.48992412
-0.055830601
-0.50037253
-0.072981465
-0.50641928
-0.054471436
-0.51662592
-0.011192902
-0.53810858
0.038467468
-0.57247176
0.079598865
-0.61835515
0.10476941
-0.67382956
0.11253207
-0.7356958
0.10528779
-0.80005477
0.088078113
-0.863765
0.066991234
-0.92531972
0.047375715
-0.98493816
0.032356107
-1.0447206
0.022419974
-1.1079907
0.016388531
-1.177218
0.012696119
-1.2532685
0.010135324
-1.3367832
0.0080310335
-1.4286967
0.0061209767
-1.5293901
0.0043738455
-1.6384834
0.0028477689
-1.7560063
0.0016079624
-1.8824479
0.00069177417
-2.0178201
0.00010238468
-2.1613138
-0.00017883504
-2.3132637
-0.00019849939
-2.4730697
0.0025214833
-0.50743274
0.029434319
-0.49027157
0.05778808
-0.47526799
0.086538758
-0.46207058
0.11261165
-0.44969157
0.13251745
-0.43994099
0.13823285
-0.43093759
0.11951419
-0.41672326
0.062265202
-0.44163169
-0.0089107077
-0.46161805
-0.066802361
-0.47123138
-0.091119393
-0.47355914
-0.073855069
-0.47891708
-0.02568117
-0.49588114
0.03221707
-0.52625318
0.082044054
-0.56884415
0.11456792
-0.621974
0.12739924
-0.68253309
0.12228646
-0.74636537
0.10410499
-0.80964663
0.079590693
-0.8700382
0.055463277
-0.92704812
0.03642675
-0.98236663
0.023875359
-1.0395721
0.016645536
-1.1021496
0.012708669
-1.1717492
0.010348361
-1.248609
0.0085356038
-1.3330021
0.0068300922
-1.425629
0.0051473913
-1.5268724
0.0035602625
-1.6364524
0.0021746924
-1.7543976
0.0010710851
-1.8810048
0.00028645709
-2.0162119
-0.00018058099
-2.1593313
-0.00035625881
-2.3108715
-0.00028251374
-2.4705031
0.0016190636
-0.50859623
0.02859818
-0.49153579
0.058534406
-0.47652082
0.08978786
-0.46487385
0.11736628
-0.45441538
0.13860531
-0.44624881
0.14480987
-0.43870181
0.12578502
-0.42940841
0.06482067
-0.41117045
-0.012902743
-0.43025254
-0.079196296
-0.44201335
-0.11054903
-0.44359317
-0.095517999
-0.44420899
-0.042343415
-0.45647181
0.024357007
-0.48289154
0.083649118
-0.52217909
0.12439301
-0.5728841
0.14328672
-0.63210792
0.14132249
-0.6956326
0.12284267
-0.75904733
0.094895095
-0.81905744
0.065486554
-0.87421576
0.041304755
-0.925792
0.025191153
-0.97738318
0.0162475
-1.0331458
0.011942063
-1.0958944
0.0098937557
-1.1664084
0.0085759437
-1.244366
0.0072803495
-1.3296908
0.0058261582
-1.4229991
0.004288813
-1.5247191
0.0028200617
-1.6347079
0.0015542822
-1.7529667
0.00057522308
-1.8796253
-8.4060137e-05
-2.0145805
-0.00043866259
-2.1573281
-0.00051633031
-2.3085926
-0.00035457766
-2.4681319
0.0010680636
-0.51046931
0.028057175
-0.49298023
0.059934262
-0.47837174
0.0939367
-0.46700978
0.12342702
-0.45852421
0.14518343
-0.45139259
0.15111031
-0.44460837
0.13012833
-0.43511204
0.062729399
-0.41896615
-0.024874407
-0.3923705
-0.097462073
-0.40525448
-0.13246702
-0.41233365
-0.11941885
-0.41241786
-0.061370892
-0.41983362
0.014866076
-0.44228728
0.08435191
-0.47827542
0.13409324
-0.52646429
0.15999277
-0.58423019
0.16230581
-0.64753094
0.144464
-0.71154857
0.11335915
-0.77201308
0.077979354
-0.82619175
0.047329919
-0.87465367
0.026419281
-0.9211297
0.015030902
-0.97031695
0.010135538
-1.025899
0.0085072478
-1.0896054
0.0079315512
-1.161451
0.0073102572
-1.2406283
0.0063056597
-1.3268804
0.0049754707
-1.4207878
0.0035196188
-1.5229035
0.0021396508
-1.6331969
0.00097965285
-1.7516477
0.00011694439
-1.8782496
-0.00043005038
-2.0129053
-0.00067482139
-2.1553571
-0.00066047323
-2.3064295
-0.0004199268
-2.465992
-0.51275466
0.0010700194
0.027966484
-0.49529343
0.062358991
-0.48078686
0.098699628
-0.46946923
0.13049163
-0.46167113
0.15122515
-0.45489996
0.15565336
-0.44787545
0.13052458
-0.43694892
0.054360725
-0.41832946
-0.043478897
-0.39339878
-0.12562531
-0.3579103
-0.15891727
-0.37147312
-0.14426491
-0.38060557
-0.082848825
-0.38598363
0.0036754418
-0.4043433
0.084124395
-0.43706929
0.14353269
-0.48264642
0.17727419
-0.53876281
0.18504686
-0.60177186
0.16904562
-0.66673038
0.13541813
-0.72847329
0.093570027
-0.78268307
0.054954127
-0.8287145
0.027669749
-0.87046573
0.012820429
-0.91337736
0.0069835844
-0.96185731
0.0058667166
-1.018373
0.0063286195
-1.083643
0.0067150019
-1.1570358
0.0064489571
-1.2374682
0.0055401067
-1.3245755
0.0042356187
-1.4189941
0.0028171884
-1.5213865
0.0015078172
-1.6318654
0.00044528955
-1.7504026
-0.0003068128
-1.8768625
-0.0007448712
-2.0112025
-0.00088942266
-2.1534233
-0.00078973012
-2.3044647
-0.00047806954
-2.4640818
-0.49782301
0.02812678
-0.51499805
0.0015225359
0.065298504
-0.4835742
0.1038104
-0.47223748
0.13712296
-0.46371163
0.15575655
-0.4564782
0.15693052
-0.44800662
0.12524416
-0.43443713
0.039879537
-0.41401787
-0.068179662
-0.38660974
-0.15835108
-0.35419966
-0.18963601
-0.3202787
-0.16727668
-0.34195474
-0.10481914
-0.35402787
-0.0093448564
-0.36901658
0.082971953
-0.39850159
0.15260119
-0.44139317
0.19486161
-0.49560983
0.20925244
-0.55811588
0.19654643
-0.62418982
0.16145466
-0.68796571
0.11296779
-0.74335452
0.064767508
-0.78783534
0.029126545
-0.82517316
0.0094433012
-0.86189845
0.0021225477
-0.90338759
0.0015859523
-0.95275596
0.0034342963
-1.0111146
0.0052418855
-1.0782874
0.0060835186
-1.1533029
0.0058780876
-1.2349238
0.0049150515
-1.3227821
0.0035695717
-1.417566
0.0021632002
-1.52012
0.00091599697
-1.6306741
-5.0773275e-05
-1.7491922
-0.0006984985
-1.8754467
-0.0010322063
-2.0094816
-0.0010833525
-2.151622
-0.00090493538
-2.3026704
-0.00052918796
-2.4624628
-0.48549337
0.067652637
-0.4997806
0.028004622
-0.51676846
0.0022737805
0.10802955
-0.47414839
0.14168275
-0.46443
0.15751581
-0.45569617
0.15351017
-0.44478722
0.11335593
-0.42787619
0.020198394
-0.40629227
-0.094891693
-0.38025687
-0.19254964
-0.34576302
-0.22387209
-0.31285185
-0.18735194
-0.29407385
-0.12188906
-0.32058157
-0.023455071
-0.33628335
0.080869067
-0.36250364
0.16121873
-0.40267714
0.21247794
-0.45472513
0.23452554
-0.51636268
0.22678233
-0.5835481
0.19175448
-0.64999459
0.13695728
-0.7078142
0.077513723
-0.7518322
0.031054796
-0.78515197
0.0047488261
-0.81562629
-0.0048573389
-0.84999588
-0.0048054862
-0.89224412
-0.001155157
-0.94379773
0.0025874798
-1.0045353
0.0049988789
-1.0737547
0.0058587877
-1.1503263
0.0054889012
-1.2330069
0.0043710681
-1.3214495
0.002947714
-1.4164708
0.0015440225
-1.5190586
0.00035824545
-1.6295875
-0.00051697106
-1.7479936
-0.0010592986
-1.8740005
-0.0012935315
-2.0078269
-0.0012575358
-2.1499409
-0.0010068464
-2.3011295
-0.0005735989
-2.4611227
-0.47401293
0.11016865
-0.48560842
0.068173255
-0.5006111
0.026942483
-0.51762566
0.0035388452
0.14281755
-0.46294402
0.15513435
-0.45223169
0.14437242
-0.43819952
0.094914679
-0.41803546
-0.0032959239
-0.39592026
-0.12022204
-0.37389182
-0.22140972
-0.34457483
-0.25834208
-0.30393593
-0.21232051
-0.2816543
-0.13001792
-0.28192321
-0.0351324
-0.30554055
0.077795104
-0.32906216
0.1693293
-0.36645494
0.22984427
-0.41607898
0.26038264
-0.47637963
0.25940351
-0.54444061
0.22645453
-0.61403295
0.16634611
-0.67559128
0.094104376
-0.72049385
0.03389785
-0.75039986
-0.0013807909
-0.77448441
-0.014458615
-0.80134427
-0.013855489
-0.83627518
-0.0079046995
-0.88111426
-0.0016084193
-0.93566858
0.0029455843
-0.99897986
0.0053258524
-1.0701673
0.0058723595
-1.148133
0.0051880583
-1.2316687
0.0038611168
-1.3205374
0.0023484169
-1.4156459
0.00095044432
-1.5181766
-0.0001689327
-1.6285788
-0.00094982934
-1.7467926
-0.0013905399
-1.8725793
-0.0015299906
-2.0062419
-0.0014129088
-2.1484495
-0.0010962349
-2.2998053
-0.00061171909
-2.4600552
-0.45835155
0.13946209
-0.47032298
0.10846887
-0.48319597
0.065443779
-0.50064989
0.025058889
-0.51715116
0.0046930131
0.14752916
-0.44548924
0.12911377
-0.42853806
0.071379715
-0.40629895
-0.028608063
-0.38427376
-0.14193143
-0.36712692
-0.24085675
-0.34746727
-0.28572106
-0.3096145
-0.24159532
-0.26827395
-0.1417498
-0.26587562
-0.038811309
-0.27510687
0.074371426
-0.29822235
0.17690975
-0.33274829
0.24673652
-0.37968113
0.28632501
-0.43811852
0.29394016
-0.50661548
0.26556227
-0.57958926
0.20193175
-0.64614998
0.11562976
-0.69353358
0.038182035
-0.72080025
-0.0091734673
-0.73835365
-0.027286884
-0.75723404
-0.026217046
-0.78446909
-0.01737422
-0.82244137
-0.0077491809
-0.87100492
-0.00036336882
-0.92881864
0.004100352
-0.99462211
0.005966532
-1.0675718
0.0059804484
-1.1466692
0.0049024505
-1.2308567
0.0033513461
-1.3199812
0.0017575575
-1.4150693
0.00037726201
-1.5174329
-0.00066897367
-1.6276299
-0.0013521319
-1.745614
-0.0016932499
-1.8711814
-0.0017426339
-2.0047886
-0.0015504006
-2.1471193
-0.001173987
-2.2987431
-0.00064425393
-2.4592219
-0.43506162
0.1341125
-0.44939807
0.13081005
-0.46308481
0.10190118
-0.47965592
0.059110062
-0.49989992
0.022894719
-0.51600416
0.0053558398
0.10852625
-0.41640425
0.045058905
-0.39380944
-0.05295113
-0.37352439
-0.15840487
-0.36070657
-0.2502886
-0.35058192
-0.30202692
-0.32338641
-0.27248897
-0.27220402
-0.15891564
-0.24695526
-0.045379682
-0.25615612
0.073292563
-0.2703771
0.18368708
-0.30135447
0.26307152
-0.34569395
0.31202604
-0.40176533
0.33002573
-0.4701319
0.30911561
-0.54644423
0.2445966
-0.61908635
0.14354723
-0.67078986
0.044630122
-0.69627244
-0.018758055
-0.70721469
-0.043929814
-0.71753989
-0.042646683
-0.73649995
-0.03019691
-0.76734552
-0.016300706
-0.80986768
-0.0052122178
-0.86257734
0.0019916002
-0.92354445
0.005663673
-0.99154513
0.0067045124
-1.0659249
0.0060721917
-1.145878
0.0045802032
-1.2305014
0.0028202507
-1.3197386
0.0011674714
-1.4146763
-0.00017742632
-1.5168045
-0.0011412712
-1.626729
-0.0017245903
-1.7444479
-0.0019683216
-1.8698749
-0.0019324686
-2.0034517
-0.0016709761
-2.1460216
-0.0012409569
-2.2978826
-0.00067176134
-2.458649
-0.40273301
0.084741574
-0.42165697
0.11626218
-0.43763963
0.11760571
-0.45525852
0.090996017
-0.47758215
0.05140603
-0.49913683
0.021107275
-0.51471414
0.0054451331
0.01897947
-0.38188692
-0.073426255
-0.36492287
-0.16895241
-0.35587513
-0.25162084
-0.35214767
-0.30789563
-0.33677538
-0.29917387
-0.29006736
-0.18785257
-0.23902566
-0.047863052
-0.2412089
0.062659908
-0.24187507
0.18999834
-0.2732827
0.27864567
-0.31379183
0.33725216
-0.36757108
0.3672378
-0.43512483
0.35723115
-0.51474066
0.29502461
-0.59398356
0.17981703
-0.65236149
0.054582451
-0.67727752
-0.030057291
-0.68120349
-0.065176377
-0.68203206
-0.064075205
-0.69202886
-0.047102035
-0.71545006
-0.027772991
-0.75187838
-0.011960262
-0.79950422
-0.0012171769
-0.85618427
0.0048529143
-0.91991552
0.0073171187
-0.98970338
0.0073753587
-1.0651538
0.0060702289
-1.1456707
0.0041890924
-1.2305367
0.0022568075
-1.319737
0.00057576866
-1.4144388
-0.00071481919
-1.516254
-0.0015860526
-1.625876
-0.0020675937
-1.743344
-0.0022165822
-1.8686457
-0.0021005331
-2.0023079
-0.0017756022
-2.1451112
-0.0012978687
-2.2972653
-0.0006945579
-2.4583102
-0.37218529
-0.0031131692
-0.39011897
0.0617784
-0.40875916
0.097283781
-0.42765847
0.10221339
-0.45167719
0.078523003
-0.47801579
0.044829405
-0.49842854
0.019891512
-0.51355833
0.0047132212
-0.088290879
-0.3586299
-0.17350794
-0.35325726
-0.24747359
-0.35270766
-0.30627224
-0.34570458
-0.31869268
-0.31052111
-0.22648436
-0.24710019
-0.060102271
-0.22340622
0.062946759
-0.23771502
0.17881456
-0.22732234
0.29365752
-0.28538612
0.36168815
-0.33512642
0.40476067
-0.40145425
0.40841352
-0.48299826
0.35146859
-0.56855056
0.22507517
-0.63650829
0.069189308
-0.66372864
-0.042218729
-0.66155904
-0.091694445
-0.65097013
-0.091549132
-0.65069587
-0.068915295
-0.66628322
-0.042703687
-0.69664817
-0.020940779
-0.73926725
-0.0057023515
-0.7917935
0.0034159457
-0.85192023
0.0077823482
-0.91789282
0.0088250034
-0.98900256
0.0078671148
-1.0651448
0.005927443
-1.1459564
0.0037133815
-1.2308736
0.0016584024
-1.3199254
-1.3116484e-05
-1.4143024
-0.001232607
-1.5157811
-0.0020026898
-1.6250708
-0.0023814241
-1.7422991
-0.0024389061
-1.867564
-0.0022478801
-2.0013258
-0.001865254
-2.1444164
-0.0013453588
-2.2968449
-0.00071296715
-2.4581926
-0.35539898
-0.09669919
-0.36634104
-0.018429342
-0.38259084
0.044199137
-0.401502
0.081030397
-0.42482859
0.087541537
-0.45361754
0.067486692
-0.47922922
0.040081824
-0.4971332
0.018523122
-0.51258487
0.0029214857
-0.17257252
-0.352445
-0.2398736
-0.35348415
-0.30031866
-0.35050223
-0.3311089
-0.3264714
-0.26730965
-0.26526816
-0.090168124
-0.21353871
0.068095175
-0.22465212
0.17361659
-0.22904511
0.28866287
-0.21947518
0.38554098
-0.30635796
0.44177237
-0.36871064
0.4602848
-0.45020092
0.409671
-0.53879493
0.27237112
-0.61335138
0.084563215
-0.64885001
-0.056286723
-0.64630246
-0.12400394
-0.62574457
-0.12639896
-0.61246282
-0.096554281
-0.61933663
-0.06164649
-0.64365467
-0.032463665
-0.6815529
-0.011664442
-0.73002486
0.0012784292
-0.78679038
0.0080799196
-0.84971936
0.010447929
-0.91732168
0.010029849
-0.98928846
0.0081132645
-1.0657664
0.0056220184
-1.1466153
0.0031504136
-1.2314377
0.0010285432
-1.3202389
-0.00060440238
-1.4142532
-0.0017283402
-1.5153558
-0.002390368
-1.6243232
-0.0026664092
-1.741354
-0.0026362183
-1.8665967
-0.0023755942
-2.0005343
-0.001940846
-2.1438918
-0.0013840831
-2.2966493
-0.00072731392
-2.458252
-0.35330842
-0.16753109
-0.35655798
-0.098107986
-0.36631029
-0.026252116
-0.38182822
0.033109441
-0.40257494
0.068672324
-0.42900842
0.075082369
-0.45715053
0.058690541
-0.47884548
0.036130855
-0.49517472
0.01615415
-0.51149552
-1.1740142e-05
-0.23028458
-0.35463394
-0.29249611
-0.35309323
-0.33846117
-0.33627338
-0.30387221
-0.28539678
-0.13523982
-0.2165892
0.065732155
-0.20716504
0.17873523
-0.22621215
0.28462214
-0.22205953
0.38731727
-0.21841964
0.4773664
-0.3387351
0.51093806
-0.41641362
0.46584846
-0.50417379
0.31603737
-0.58018692
0.095137289
-0.62108729
-0.080864758
-0.62110108
-0.16466387
-0.60233888
-0.17040417
-0.57827535
-0.1312568
-0.57423847
-0.085133327
-0.59237718
-0.046796299
-0.62589775
-0.019210857
-0.67071019
-0.0015604378
-0.72424288
0.0082154533
-0.78440514
0.012289798
-0.84935286
0.012634003
-0.91800628
0.010840755
-0.99038606
0.0080845746
-1.0668732
0.0051517289
-1.1475521
0.0025071087
-1.2321588
0.00037523887
-1.3206508
-0.0011840392
-1.414246
-0.0021992748
-1.5149776
-0.0027483058
-1.623631
-0.0029230004
-1.7404862
-0.0028095229
-1.8657882
-0.0024847052
-1.999894
-0.0020032903
-2.1435823
-0.0014147164
-2.2966185
-0.00073789857
-2.4585045
-0.35599174
-0.22020627
-0.35694559
-0.15999365
-0.36057487
-0.095463669
-0.37083294