/*--------------------------------*- C++ -*----------------------------------*\
| =========                 |                                                 |
| \\      /  F ield         | OpenFOAM: The Open Source CFD Toolbox           |
|  \\    /   O peration     | Version:  v2012                                 |
|   \\  /    A nd           | Website:  www.openfoam.com                      |
|    \\/     M anipulation  |                                                 |
\*---------------------------------------------------------------------------*/
FoamFile
{
    version     2.0;
    format      ascii;
    class       pointVectorField;
    location    "13.71776417541";
    object      pointDisplacement;
}
// * * * * * * * * * * * * * * * * * * * * * * * * * * * * * * * * * * * * * //

dimensions      [0 1 0 0 0 0 0];


internalField   nonuniform List<vector> 
18840
(
(-0.21993714 -0 -0)
(-0.22003397 0 0)
(-0.22032206 0 0)
(-0.22079678 0 0)
(-0.22145477 0 0)
(-0.2222923 0 0)
(-0.22330738 0 0)
(-0.22449749 0 0)
(-0.22586106 0 0)
(-0.22739623 0 0)
(-0.22910187 0 0)
(-0.23097654 0 0)
(-0.23301919 0 0)
(-0.23522857 0 0)
(-0.23760379 0 0)
(-0.24014372 0 0)
(-0.24284716 0 0)
(-0.24571261 0 0)
(-0.24873793 0 0)
(-0.25191834 0 0)
(-0.2558941 0 0)
(-0.21993714 -0 -0)
(-0.2200333 0 0)
(-0.2203195 0 0)
(-0.22079159 0 0)
(-0.22144606 0 0)
(-0.22227987 0 0)
(-0.22329009 0 0)
(-0.2244747 0 0)
(-0.22583165 0 0)
(-0.22735954 0 0)
(-0.22905676 0 0)
(-0.23092218 0 0)
(-0.23295444 0 0)
(-0.2351525 0 0)
(-0.23751511 0 0)
(-0.24004129 0 0)
(-0.24272973 0 0)
(-0.24557913 0 0)
(-0.24858761 0 0)
(-0.25175216 0 0)
(-0.255037 0 0)
(-0.21993714 -0 -0)
(-0.22003275 0 0)
(-0.22031734 0 0)
(-0.22078698 0 0)
(-0.2214384 0 0)
(-0.2222684 0 0)
(-0.22327415 0 0)
(-0.22445326 0 0)
(-0.22580392 0 0)
(-0.22732441 0 0)
(-0.22901331 0 0)
(-0.23086915 0 0)
(-0.23289071 0 0)
(-0.23507662 0 0)
(-0.23742575 0 0)
(-0.23993678 0 0)
(-0.24260861 0 0)
(-0.24543983 0 0)
(-0.24842924 0 0)
(-0.25157541 0 0)
(-0.25488486 0 0)
(-0.21993714 -0 -0)
(-0.22003208 0 0)
(-0.22031475 0 0)
(-0.22078135 0 0)
(-0.22142871 0 0)
(-0.2222537 0 0)
(-0.22325335 0 0)
(-0.22442524 0 0)
(-0.22576751 0 0)
(-0.22727835 0 0)
(-0.22895624 0 0)
(-0.23079959 0 0)
(-0.23280705 0 0)
(-0.23497708 0 0)
(-0.2373084 0 0)
(-0.23979949 0 0)
(-0.24244905 0 0)
(-0.24525546 0 0)
(-0.24821729 0 0)
(-0.25133265 0 0)
(-0.25464464 0 0)
(-0.21993714 -0 -0)
(-0.2200313 0 0)
(-0.22031171 0 0)
(-0.22077465 0 0)
(-0.22141708 0 0)
(-0.22223587 0 0)
(-0.22322803 0 0)
(-0.22439107 0 0)
(-0.22572307 0 0)
(-0.22722213 0 0)
(-0.22888662 0 0)
(-0.23071479 0 0)
(-0.2327051 0 0)
(-0.23485585 0 0)
(-0.2371655 0 0)
(-0.23963227 0 0)
(-0.24225453 0 0)
(-0.24503033 0 0)
(-0.24795779 0 0)
(-0.2510344 0 0)
(-0.25433665 0 0)
(-0.21993714 -0 -0)
(-0.22003043 0 0)
(-0.22030823 0 0)
(-0.22076699 0 0)
(-0.2214036 0 0)
(-0.22221515 0 0)
(-0.22319849 0 0)
(-0.22435121 0 0)
(-0.22567123 0 0)
(-0.22715661 0 0)
(-0.22880553 0 0)
(-0.23061612 0 0)
(-0.23258662 0 0)
(-0.23471511 0 0)
(-0.23699979 0 0)
(-0.23943857 0 0)
(-0.24202948 0 0)
(-0.24477015 0 0)
(-0.24765827 0 0)
(-0.25069071 0 0)
(-0.25397371 0 0)
(-0.21993714 -0 -0)
(-0.22002947 0 0)
(-0.22030442 0 0)
(-0.22075845 0 0)
(-0.22138858 0 0)
(-0.22219178 0 0)
(-0.22316519 0 0)
(-0.22430613 0 0)
(-0.22561266 0 0)
(-0.22708256 0 0)
(-0.22871404 0 0)
(-0.2305049 0 0)
(-0.23245334 0 0)
(-0.23455705 0 0)
(-0.23681409 0 0)
(-0.23922197 0 0)
(-0.24177844 0 0)
(-0.24448069 0 0)
(-0.24732598 0 0)
(-0.25031074 0 0)
(-0.25356664 0 0)
(-0.21993714 -0 -0)
(-0.22002843 0 0)
(-0.22030029 0 0)
(-0.22074916 0 0)
(-0.22137216 0 0)
(-0.22216615 0 0)
(-0.22312847 0 0)
(-0.2242564 0 0)
(-0.22554795 0 0)
(-0.22700083 0 0)
(-0.22861311 0 0)
(-0.23038245 0 0)
(-0.2323068 0 0)
(-0.23438372 0 0)
(-0.23661093 0 0)
(-0.23898573 0 0)
(-0.24150544 0 0)
(-0.24416703 0 0)
(-0.24696724 0 0)
(-0.24990223 0 0)
(-0.25312464 0 0)
(-0.21993714 -0 -0)
(-0.22002728 0 0)
(-0.22029579 0 0)
(-0.22073913 0 0)
(-0.22135432 0 0)
(-0.22213845 0 0)
(-0.22308865 0 0)
(-0.22420253 0 0)
(-0.22547778 0 0)
(-0.22691229 0 0)
(-0.22850379 0 0)
(-0.23025007 0 0)
(-0.23214865 0 0)
(-0.23419714 0 0)
(-0.23639282 0 0)
(-0.23873292 0 0)
(-0.24121429 0 0)
(-0.24383375 0 0)
(-0.24658764 0 0)
(-0.24947186 0 0)
(-0.25265541 0 0)
(-0.21993714 -0 -0)
(-0.22002604 0 0)
(-0.22029087 0 0)
(-0.22072823 0 0)
(-0.22133512 0 0)
(-0.22210864 0 0)
(-0.22304603 0 0)
(-0.22414488 0 0)
(-0.22540284 0 0)
(-0.22681776 0 0)
(-0.2283873 0 0)
(-0.23010916 0 0)
(-0.23198075 0 0)
(-0.23399948 0 0)
(-0.23616245 0 0)
(-0.23846668 0 0)
(-0.2409088 0 0)
(-0.24348534 0 0)
(-0.24619238 0 0)
(-0.24902562 0 0)
(-0.25216571 0 0)
(-0.21993714 -0 -0)
(-0.22002488 0 0)
(-0.22028632 0 0)
(-0.22071803 0 0)
(-0.22131719 0 0)
(-0.22208082 0 0)
(-0.22300631 0 0)
(-0.22409113 0 0)
(-0.22533299 0 0)
(-0.22672959 0 0)
(-0.22827857 0 0)
(-0.22997751 0 0)
(-0.23182376 0 0)
(-0.23381458 0 0)
(-0.23594686 0 0)
(-0.23821746 0 0)
(-0.24062276 0 0)
(-0.24315912 0 0)
(-0.24582229 0 0)
(-0.24860789 0 0)
(-0.25170235 0 0)
(-0.21993714 -0 -0)
(-0.22003397 0 0)
(-0.22032206 0 0)
(-0.22079678 0 0)
(-0.22145477 0 0)
(-0.2222923 0 0)
(-0.22330738 0 0)
(-0.22449749 0 0)
(-0.22586106 0 0)
(-0.22739623 0 0)
(-0.22910187 0 0)
(-0.23097654 0 0)
(-0.23301919 0 0)
(-0.23522857 0 0)
(-0.23760379 0 0)
(-0.24014372 0 0)
(-0.24284716 0 0)
(-0.24571261 0 0)
(-0.24873793 0 0)
(-0.25191834 0 0)
(-0.2558941 0 0)
(-0.21993714 -0 -0)
(-0.2200333 0 0)
(-0.2203195 0 0)
(-0.22079159 0 0)
(-0.22144606 0 0)
(-0.22227987 0 0)
(-0.22329009 0 0)
(-0.2244747 0 0)
(-0.22583165 0 0)
(-0.22735954 0 0)
(-0.22905676 0 0)
(-0.23092218 0 0)
(-0.23295444 0 0)
(-0.2351525 0 0)
(-0.23751511 0 0)
(-0.24004129 0 0)
(-0.24272973 0 0)
(-0.24557913 0 0)
(-0.24858761 0 0)
(-0.25175216 0 0)
(-0.255037 0 0)
(-0.21993714 -0 -0)
(-0.22003275 0 0)
(-0.22031734 0 0)
(-0.22078698 0 0)
(-0.2214384 0 0)
(-0.2222684 0 0)
(-0.22327415 0 0)
(-0.22445326 0 0)
(-0.22580392 0 0)
(-0.22732441 0 0)
(-0.22901331 0 0)
(-0.23086915 0 0)
(-0.23289071 0 0)
(-0.23507662 0 0)
(-0.23742575 0 0)
(-0.23993678 0 0)
(-0.24260861 0 0)
(-0.24543983 0 0)
(-0.24842924 0 0)
(-0.25157541 0 0)
(-0.25488486 0 0)
(-0.21993714 -0 -0)
(-0.22003208 0 0)
(-0.22031475 0 0)
(-0.22078135 0 0)
(-0.22142871 0 0)
(-0.2222537 0 0)
(-0.22325335 0 0)
(-0.22442524 0 0)
(-0.22576751 0 0)
(-0.22727835 0 0)
(-0.22895624 0 0)
(-0.23079959 0 0)
(-0.23280705 0 0)
(-0.23497708 0 0)
(-0.2373084 0 0)
(-0.23979949 0 0)
(-0.24244905 0 0)
(-0.24525546 0 0)
(-0.24821729 0 0)
(-0.25133265 0 0)
(-0.25464464 0 0)
(-0.21993714 -0 -0)
(-0.2200313 0 0)
(-0.22031171 0 0)
(-0.22077465 0 0)
(-0.22141708 0 0)
(-0.22223587 0 0)
(-0.22322803 0 0)
(-0.22439107 0 0)
(-0.22572307 0 0)
(-0.22722213 0 0)
(-0.22888662 0 0)
(-0.23071479 0 0)
(-0.2327051 0 0)
(-0.23485585 0 0)
(-0.2371655 0 0)
(-0.23963227 0 0)
(-0.24225453 0 0)
(-0.24503033 0 0)
(-0.24795779 0 0)
(-0.2510344 0 0)
(-0.25433665 0 0)
(-0.21993714 -0 -0)
(-0.22003043 0 0)
(-0.22030823 0 0)
(-0.22076699 0 0)
(-0.2214036 0 0)
(-0.22221515 0 0)
(-0.22319849 0 0)
(-0.22435121 0 0)
(-0.22567123 0 0)
(-0.22715661 0 0)
(-0.22880553 0 0)
(-0.23061612 0 0)
(-0.23258662 0 0)
(-0.23471511 0 0)
(-0.23699979 0 0)
(-0.23943857 0 0)
(-0.24202948 0 0)
(-0.24477015 0 0)
(-0.24765827 0 0)
(-0.25069071 0 0)
(-0.25397371 0 0)
(-0.21993714 -0 -0)
(-0.22002947 0 0)
(-0.22030442 0 0)
(-0.22075845 0 0)
(-0.22138858 0 0)
(-0.22219178 0 0)
(-0.22316519 0 0)
(-0.22430613 0 0)
(-0.22561266 0 0)
(-0.22708256 0 0)
(-0.22871404 0 0)
(-0.2305049 0 0)
(-0.23245334 0 0)
(-0.23455705 0 0)
(-0.23681409 0 0)
(-0.23922197 0 0)
(-0.24177844 0 0)
(-0.24448069 0 0)
(-0.24732598 0 0)
(-0.25031074 0 0)
(-0.25356664 0 0)
(-0.21993714 -0 -0)
(-0.22002843 0 0)
(-0.22030029 0 0)
(-0.22074916 0 0)
(-0.22137216 0 0)
(-0.22216615 0 0)
(-0.22312847 0 0)
(-0.2242564 0 0)
(-0.22554795 0 0)
(-0.22700083 0 0)
(-0.22861311 0 0)
(-0.23038245 0 0)
(-0.2323068 0 0)
(-0.23438372 0 0)
(-0.23661093 0 0)
(-0.23898573 0 0)
(-0.24150544 0 0)
(-0.24416703 0 0)
(-0.24696724 0 0)
(-0.24990223 0 0)
(-0.25312464 0 0)
(-0.21993714 -0 -0)
(-0.22002728 0 0)
(-0.22029579 0 0)
(-0.22073913 0 0)
(-0.22135432 0 0)
(-0.22213845 0 0)
(-0.22308865 0 0)
(-0.22420253 0 0)
(-0.22547778 0 0)
(-0.22691229 0 0)
(-0.22850379 0 0)
(-0.23025007 0 0)
(-0.23214865 0 0)
(-0.23419714 0 0)
(-0.23639282 0 0)
(-0.23873292 0 0)
(-0.24121429 0 0)
(-0.24383375 0 0)
(-0.24658764 0 0)
(-0.24947186 0 0)
(-0.25265541 0 0)
(-0.21993714 -0 -0)
(-0.22002604 0 0)
(-0.22029087 0 0)
(-0.22072823 0 0)
(-0.22133512 0 0)
(-0.22210864 0 0)
(-0.22304603 0 0)
(-0.22414488 0 0)
(-0.22540284 0 0)
(-0.22681776 0 0)
(-0.2283873 0 0)
(-0.23010916 0 0)
(-0.23198075 0 0)
(-0.23399948 0 0)
(-0.23616245 0 0)
(-0.23846668 0 0)
(-0.2409088 0 0)
(-0.24348534 0 0)
(-0.24619238 0 0)
(-0.24902562 0 0)
(-0.25216571 0 0)
(-0.21993714 -0 -0)
(-0.22002488 0 0)
(-0.22028632 0 0)
(-0.22071803 0 0)
(-0.22131719 0 0)
(-0.22208082 0 0)
(-0.22300631 0 0)
(-0.22409113 0 0)
(-0.22533299 0 0)
(-0.22672959 0 0)
(-0.22827857 0 0)
(-0.22997751 0 0)
(-0.23182376 0 0)
(-0.23381458 0 0)
(-0.23594686 0 0)
(-0.23821746 0 0)
(-0.24062276 0 0)
(-0.24315912 0 0)
(-0.24582229 0 0)
(-0.24860789 0 0)
(-0.25170235 0 0)
(-0.21993714 -0 -0)
(-0.22003879 0 0)
(-0.22034081 0 0)
(-0.22083777 0 0)
(-0.22152507 0 0)
(-0.22239894 0 0)
(-0.22345618 0 0)
(-0.2246939 0 0)
(-0.22610965 0 0)
(-0.22770117 0 0)
(-0.22946653 0 0)
(-0.23140389 0 0)
(-0.2335116 0 0)
(-0.23578802 0 0)
(-0.23823165 0 0)
(-0.24084086 0 0)
(-0.24361409 0 0)
(-0.24654955 0 0)
(-0.24964541 0 0)
(-0.25289767 0 0)
(-0.25659449 0 0)
(-0.21993714 -0 -0)
(-0.2200384 0 0)
(-0.22033928 0 0)
(-0.22083431 0 0)
(-0.22151894 0 0)
(-0.22238945 0 0)
(-0.22344267 0 0)
(-0.22467579 0 0)
(-0.22608643 0 0)
(-0.22767241 0 0)
(-0.22943188 0 0)
(-0.23136307 0 0)
(-0.23346444 0 0)
(-0.23573441 0 0)
(-0.23817157 0 0)
(-0.24077438 0 0)
(-0.2435414 0 0)
(-0.24647097 0 0)
(-0.24956138 0 0)
(-0.25280885 0 0)
(-0.25649931 0 0)
(-0.21993714 -0 -0)
(-0.22003818 0 0)
(-0.22033836 0 0)
(-0.22083225 0 0)
(-0.22151526 0 0)
(-0.22238374 0 0)
(-0.22343458 0 0)
(-0.22466501 0 0)
(-0.22607272 0 0)
(-0.22765559 0 0)
(-0.22941186 0 0)
(-0.23133981 0 0)
(-0.23343799 0 0)
(-0.2357049 0 0)
(-0.23813921 0 0)
(-0.2407395 0 0)
(-0.24350443 0 0)
(-0.24643248 0 0)
(-0.24952213 0 0)
(-0.25276986 0 0)
(-0.25645146 0 0)
(-0.21993714 -0 -0)
(-0.2200379 0 0)
(-0.22033727 0 0)
(-0.22082983 0 0)
(-0.22151104 0 0)
(-0.22237729 0 0)
(-0.22342554 0 0)
(-0.2246531 0 0)
(-0.22605772 0 0)
(-0.22763737 0 0)
(-0.22939035 0 0)
(-0.23131502 0 0)
(-0.23341 0 0)
(-0.23567389 0 0)
(-0.23810547 0 0)
(-0.24070341 0 0)
(-0.24346653 0 0)
(-0.24639347 0 0)
(-0.24948292 0 0)
(-0.25273171 0 0)
(-0.25639907 0 0)
(-0.21993714 -0 -0)
(-0.22003758 0 0)
(-0.22033601 0 0)
(-0.22082705 0 0)
(-0.22150622 0 0)
(-0.22237 0 0)
(-0.22341541 0 0)
(-0.22463985 0 0)
(-0.22604113 0 0)
(-0.22761731 0 0)
(-0.22936675 0 0)
(-0.2312879 0 0)
(-0.23337947 0 0)
(-0.23564013 0 0)
(-0.23806876 0 0)
(-0.24066418 0 0)
(-0.24342532 0 0)
(-0.24635102 0 0)
(-0.24944017 0 0)
(-0.25269006 0 0)
(-0.25633726 0 0)
(-0.21993714 -0 -0)
(-0.2200372 0 0)
(-0.22033454 0 0)
(-0.22082384 0 0)
(-0.22150069 0 0)
(-0.22236165 0 0)
(-0.22340384 0 0)
(-0.22462474 0 0)
(-0.22602225 0 0)
(-0.22759448 0 0)
(-0.22933989 0 0)
(-0.23125699 0 0)
(-0.23334455 0 0)
(-0.23560134 0 0)
(-0.23802634 0 0)
(-0.24061846 0 0)
(-0.24337679 0 0)
(-0.24630031 0 0)
(-0.24938813 0 0)
(-0.25263804 0 0)
(-0.25625833 0 0)
(-0.21993714 -0 -0)
(-0.22003676 0 0)
(-0.22033282 0 0)
(-0.22082011 0 0)
(-0.22149426 0 0)
(-0.2223519 0 0)
(-0.22339031 0 0)
(-0.22460703 0 0)
(-0.22600005 0 0)
(-0.22756756 0 0)
(-0.22930806 0 0)
(-0.23122015 0 0)
(-0.23330266 0 0)
(-0.23555438 0 0)
(-0.23797441 0 0)
(-0.24056173 0 0)
(-0.24331553 0 0)
(-0.24623491 0 0)
(-0.24931916 0 0)
(-0.25256657 0 0)
(-0.25615202 0 0)
(-0.21993714 -0 -0)
(-0.22003624 0 0)
(-0.22033081 0 0)
(-0.22081572 0 0)
(-0.22148667 0 0)
(-0.22234032 0 0)
(-0.22337412 0 0)
(-0.22458573 0 0)
(-0.22597321 0 0)
(-0.22753479 0 0)
(-0.22926906 0 0)
(-0.23117465 0 0)
(-0.23325042 0 0)
(-0.2354952 0 0)
(-0.23790814 0 0)
(-0.24048827 0 0)
(-0.24323478 0 0)
(-0.2461468 0 0)
(-0.24922378 0 0)
(-0.25246441 0 0)
(-0.25600559 0 0)
(-0.21993714 -0 -0)
(-0.22003561 0 0)
(-0.22032839 0 0)
(-0.22081043 0 0)
(-0.22147746 0 0)
(-0.22232635 0 0)
(-0.22335445 0 0)
(-0.22455978 0 0)
(-0.22594025 0 0)
(-0.22749433 0 0)
(-0.22922049 0 0)
(-0.23111755 0 0)
(-0.23318419 0 0)
(-0.23541947 0 0)
(-0.23782233 0 0)
(-0.24039196 0 0)
(-0.24312734 0 0)
(-0.24602758 0 0)
(-0.24909194 0 0)
(-0.25231943 0 0)
(-0.25580503 0 0)
(-0.21993714 -0 -0)
(-0.22003482 0 0)
(-0.22032535 0 0)
(-0.22080372 0 0)
(-0.22146628 0 0)
(-0.22230929 0 0)
(-0.22333084 0 0)
(-0.22452844 0 0)
(-0.22590054 0 0)
(-0.22744519 0 0)
(-0.22916131 0 0)
(-0.23104738 0 0)
(-0.23310241 0 0)
(-0.23532516 0 0)
(-0.23771482 0 0)
(-0.24027027 0 0)
(-0.24299051 0 0)
(-0.24587422 0 0)
(-0.24892004 0 0)
(-0.25212517 0 0)
(-0.25553576 0 0)
(-0.21993714 -0 -0)
(-0.22003879 0 0)
(-0.22034081 0 0)
(-0.22083777 0 0)
(-0.22152507 0 0)
(-0.22239894 0 0)
(-0.22345618 0 0)
(-0.2246939 0 0)
(-0.22610965 0 0)
(-0.22770117 0 0)
(-0.22946653 0 0)
(-0.23140389 0 0)
(-0.2335116 0 0)
(-0.23578802 0 0)
(-0.23823165 0 0)
(-0.24084086 0 0)
(-0.24361409 0 0)
(-0.24654955 0 0)
(-0.24964541 0 0)
(-0.25289767 0 0)
(-0.25659449 0 0)
(-0.21993714 -0 -0)
(-0.2200384 0 0)
(-0.22033928 0 0)
(-0.22083431 0 0)
(-0.22151894 0 0)
(-0.22238945 0 0)
(-0.22344267 0 0)
(-0.22467579 0 0)
(-0.22608643 0 0)
(-0.22767241 0 0)
(-0.22943188 0 0)
(-0.23136307 0 0)
(-0.23346444 0 0)
(-0.23573441 0 0)
(-0.23817157 0 0)
(-0.24077438 0 0)
(-0.2435414 0 0)
(-0.24647097 0 0)
(-0.24956138 0 0)
(-0.25280885 0 0)
(-0.25649931 0 0)
(-0.21993714 -0 -0)
(-0.22003818 0 0)
(-0.22033836 0 0)
(-0.22083225 0 0)
(-0.22151526 0 0)
(-0.22238374 0 0)
(-0.22343458 0 0)
(-0.22466501 0 0)
(-0.22607272 0 0)
(-0.22765559 0 0)
(-0.22941186 0 0)
(-0.23133981 0 0)
(-0.23343799 0 0)
(-0.2357049 0 0)
(-0.23813921 0 0)
(-0.2407395 0 0)
(-0.24350443 0 0)
(-0.24643248 0 0)
(-0.24952213 0 0)
(-0.25276986 0 0)
(-0.25645146 0 0)
(-0.21993714 -0 -0)
(-0.2200379 0 0)
(-0.22033727 0 0)
(-0.22082983 0 0)
(-0.22151104 0 0)
(-0.22237729 0 0)
(-0.22342554 0 0)
(-0.2246531 0 0)
(-0.22605772 0 0)
(-0.22763737 0 0)
(-0.22939035 0 0)
(-0.23131502 0 0)
(-0.23341 0 0)
(-0.23567389 0 0)
(-0.23810547 0 0)
(-0.24070341 0 0)
(-0.24346653 0 0)
(-0.24639347 0 0)
(-0.24948292 0 0)
(-0.25273171 0 0)
(-0.25639907 0 0)
(-0.21993714 -0 -0)
(-0.22003758 0 0)
(-0.22033601 0 0)
(-0.22082705 0 0)
(-0.22150622 0 0)
(-0.22237 0 0)
(-0.22341541 0 0)
(-0.22463985 0 0)
(-0.22604113 0 0)
(-0.22761731 0 0)
(-0.22936675 0 0)
(-0.2312879 0 0)
(-0.23337947 0 0)
(-0.23564013 0 0)
(-0.23806876 0 0)
(-0.24066418 0 0)
(-0.24342532 0 0)
(-0.24635102 0 0)
(-0.24944017 0 0)
(-0.25269006 0 0)
(-0.25633726 0 0)
(-0.21993714 -0 -0)
(-0.2200372 0 0)
(-0.22033454 0 0)
(-0.22082384 0 0)
(-0.22150069 0 0)
(-0.22236165 0 0)
(-0.22340384 0 0)
(-0.22462474 0 0)
(-0.22602225 0 0)
(-0.22759448 0 0)
(-0.22933989 0 0)
(-0.23125699 0 0)
(-0.23334455 0 0)
(-0.23560134 0 0)
(-0.23802634 0 0)
(-0.24061846 0 0)
(-0.24337679 0 0)
(-0.24630031 0 0)
(-0.24938813 0 0)
(-0.25263804 0 0)
(-0.25625833 0 0)
(-0.21993714 -0 -0)
(-0.22003676 0 0)
(-0.22033282 0 0)
(-0.22082011 0 0)
(-0.22149426 0 0)
(-0.2223519 0 0)
(-0.22339031 0 0)
(-0.22460703 0 0)
(-0.22600005 0 0)
(-0.22756756 0 0)
(-0.22930806 0 0)
(-0.23122015 0 0)
(-0.23330266 0 0)
(-0.23555438 0 0)
(-0.23797441 0 0)
(-0.24056173 0 0)
(-0.24331553 0 0)
(-0.24623491 0 0)
(-0.24931916 0 0)
(-0.25256657 0 0)
(-0.25615202 0 0)
(-0.21993714 -0 -0)
(-0.22003624 0 0)
(-0.22033081 0 0)
(-0.22081572 0 0)
(-0.22148667 0 0)
(-0.22234032 0 0)
(-0.22337412 0 0)
(-0.22458573 0 0)
(-0.22597321 0 0)
(-0.22753479 0 0)
(-0.22926906 0 0)
(-0.23117465 0 0)
(-0.23325042 0 0)
(-0.2354952 0 0)
(-0.23790814 0 0)
(-0.24048827 0 0)
(-0.24323478 0 0)
(-0.2461468 0 0)
(-0.24922378 0 0)
(-0.25246441 0 0)
(-0.25600559 0 0)
(-0.21993714 -0 -0)
(-0.22003561 0 0)
(-0.22032839 0 0)
(-0.22081043 0 0)
(-0.22147746 0 0)
(-0.22232635 0 0)
(-0.22335445 0 0)
(-0.22455978 0 0)
(-0.22594025 0 0)
(-0.22749433 0 0)
(-0.22922049 0 0)
(-0.23111755 0 0)
(-0.23318419 0 0)
(-0.23541947 0 0)
(-0.23782233 0 0)
(-0.24039196 0 0)
(-0.24312734 0 0)
(-0.24602758 0 0)
(-0.24909194 0 0)
(-0.25231943 0 0)
(-0.25580503 0 0)
(-0.21993714 -0 -0)
(-0.22003482 0 0)
(-0.22032535 0 0)
(-0.22080372 0 0)
(-0.22146628 0 0)
(-0.22230929 0 0)
(-0.22333084 0 0)
(-0.22452844 0 0)
(-0.22590054 0 0)
(-0.22744519 0 0)
(-0.22916131 0 0)
(-0.23104738 0 0)
(-0.23310241 0 0)
(-0.23532516 0 0)
(-0.23771482 0 0)
(-0.24027027 0 0)
(-0.24299051 0 0)
(-0.24587422 0 0)
(-0.24892004 0 0)
(-0.25212517 0 0)
(-0.25553576 0 0)
(-0.26109625 0 0)
(-0.26611482 0 0)
(-0.27134659 0 0)
(-0.2767761 0 0)
(-0.28238432 0 0)
(-0.28814738 0 0)
(-0.29403621 0 0)
(-0.30001897 0 0)
(-0.30606079 0 0)
(-0.31212303 0 0)
(-0.31816628 0 0)
(-0.32414723 0 0)
(-0.33002138 0 0)
(-0.33574721 0 0)
(-0.3412833 0 0)
(-0.34658391 0 0)
(-0.35160555 0 0)
(-0.35631281 0 0)
(-0.36065742 0 0)
(-0.36459255 0 0)
(-0.36808113 0 0)
(-0.37108917 0 0)
(-0.37357295 0 0)
(-0.37548131 0 0)
(-0.37675923 0 0)
(-0.37735274 0 0)
(-0.37722554 0 0)
(-0.376327 0 0)
(-0.37462213 0 0)
(-0.37206112 0 0)
(-0.36854861 0 0)
(-0.36400313 0 0)
(-0.35836496 0 0)
(-0.35153183 0 0)
(-0.34338739 0 0)
(-0.33381562 0 0)
(-0.32273355 0 0)
(-0.31015546 0 0)
(-0.29601803 0 0)
(-0.28006484 0 0)
(-0.26220493 0 0)
(-0.24244832 0 0)
(-0.22060568 0 0)
(-0.19653692 0 0)
(-0.17020218 0 0)
(-0.14152245 0 0)
(-0.11030691 0 0)
(-0.076381476 0 0)
(-0.039620175 0 0)
(0 0 0)
(-0.26099097 0 0)
(-0.26599878 0 0)
(-0.27122239 0 0)
(-0.27664651 0 0)
(-0.28225227 0 0)
(-0.28801609 0 0)
(-0.29390937 0 0)
(-0.29989994 0 0)
(-0.30595256 0 0)
(-0.31202863 0 0)
(-0.31808703 0 0)
(-0.32408341 0 0)
(-0.3299735 0 0)
(-0.33571587 0 0)
(-0.34126843 0 0)
(-0.34658583 0 0)
(-0.35162608 0 0)
(-0.35635143 0 0)
(-0.36071216 0 0)
(-0.36466256 0 0)
(-0.36816683 0 0)
(-0.37119052 0 0)
(-0.3736896 0 0)
(-0.37561254 0 0)
(-0.3769051 0 0)
(-0.37751457 0 0)
(-0.37740116 0 0)
(-0.37651463 0 0)
(-0.37481909 0 0)
(-0.37226515 0 0)
(-0.3687578 0 0)
(-0.36421515 0 0)
(-0.35857952 0 0)
(-0.35174568 0 0)
(-0.34359948 0 0)
(-0.33402501 0 0)
(-0.3229382 0 0)
(-0.31035481 0 0)
(-0.29621468 0 0)
(-0.28025376 0 0)
(-0.26237805 0 0)
(-0.24260685 0 0)
(-0.22074799 0 0)
(-0.19666025 0 0)
(-0.17030644 0 0)
(-0.14160819 0 0)
(-0.11037391 0 0)
(-0.076427628 0 0)
(-0.039643619 0 0)
(0 0 0)
(-0.26091568 0 0)
(-0.2658895 0 0)
(-0.2710833 0 0)
(-0.27648196 0 0)
(-0.28206683 0 0)
(-0.28781471 0 0)
(-0.29369737 0 0)
(-0.29968295 0 0)
(-0.30573627 0 0)
(-0.31181795 0 0)
(-0.31788586 0 0)
(-0.32389473 0 0)
(-0.3297999 0 0)
(-0.33555955 0 0)
(-0.34113103 0 0)
(-0.34646987 0 0)
(-0.35153447 0 0)
(-0.35628486 0 0)
(-0.36067072 0 0)
(-0.36464627 0 0)
(-0.36817589 0 0)
(-0.37122552 0 0)
(-0.37375173 0 0)
(-0.37570124 0 0)
(-0.37701946 0 0)
(-0.37765676 0 0)
(-0.37756972 0 0)
(-0.37670656 0 0)
(-0.37503146 0 0)
(-0.37249628 0 0)
(-0.36900502 0 0)
(-0.36447439 0 0)
(-0.35885076 0 0)
(-0.35202563 0 0)
(-0.34388529 0 0)
(-0.33431485 0 0)
(-0.32322948 0 0)
(-0.31064531 0 0)
(-0.29650425 0 0)
(-0.28053717 0 0)
(-0.26264831 0 0)
(-0.24286291 0 0)
(-0.22098387 0 0)
(-0.19687103 0 0)
(-0.17049037 0 0)
(-0.14176267 0 0)
(-0.11049538 0 0)
(-0.076511985 0 0)
(-0.039687385 0 0)
(0 0 0)
(-0.26081811 0 0)
(-0.26573511 0 0)
(-0.27087807 0 0)
(-0.27623209 0 0)
(-0.28177877 0 0)
(-0.28749535 0 0)
(-0.29335419 0 0)
(-0.29932389 0 0)
(-0.3053694 0 0)
(-0.3114509 0 0)
(-0.31752485 0 0)
(-0.32354514 0 0)
(-0.32946692 0 0)
(-0.33524738 0 0)
(-0.340843 0 0)
(-0.34621009 0 0)
(-0.35130742 0 0)
(-0.35609247 0 0)
(-0.3605143 0 0)
(-0.36452725 0 0)
(-0.36809499 0 0)
(-0.37118353 0 0)
(-0.37375013 0 0)
(-0.37574003 0 0)
(-0.37709787 0 0)
(-0.37777609 0 0)
(-0.37772877 0 0)
(-0.37690285 0 0)
(-0.37526133 0 0)
(-0.37275719 0 0)
(-0.36929363 0 0)
(-0.36478618 0 0)
(-0.35918453 0 0)
(-0.35237758 0 0)
(-0.34425216 0 0)
(-0.33469347 0 0)
(-0.32361536 0 0)
(-0.31103442 0 0)
(-0.2968949 0 0)
(-0.28092372 0 0)
(-0.2630233 0 0)
(-0.24322319 0 0)
(-0.22132008 0 0)
(-0.19717509 0 0)
(-0.17075868 0 0)
(-0.1419899 0 0)
(-0.11067464 0 0)
(-0.076636779 0 0)
(-0.039752374 0 0)
(0 0 0)
(-0.26069345 0 0)
(-0.26553107 0 0)
(-0.2706023 0 0)
(-0.27589265 0 0)
(-0.28138405 0 0)
(-0.28705425 0 0)
(-0.2928763 0 0)
(-0.29881948 0 0)
(-0.30484877 0 0)
(-0.31092389 0 0)
(-0.31700013 0 0)
(-0.32303057 0 0)
(-0.32897 0 0)
(-0.3347744 0 0)
(-0.34039956 0 0)
(-0.34580189 0 0)
(-0.35093975 0 0)
(-0.35576878 0 0)
(-0.36023789 0 0)
(-0.36430023 0 0)
(-0.3679185 0 0)
(-0.37105917 0 0)
(-0.3736801 0 0)
(-0.37572431 0 0)
(-0.37713508 0 0)
(-0.37786776 0 0)
(-0.37787378 0 0)
(-0.37709796 0 0)
(-0.3755033 0 0)
(-0.37304349 0 0)
(-0.36961964 0 0)
(-0.36514586 0 0)
(-0.35957659 0 0)
(-0.35279787 0 0)
(-0.34469574 0 0)
(-0.33515642 0 0)
(-0.32409231 0 0)
(-0.31151921 0 0)
(-0.29738268 0 0)
(-0.28140888 0 0)
(-0.26349989 0 0)
(-0.24368486 0 0)
(-0.22175352 0 0)
(-0.19757003 0 0)
(-0.17110953 0 0)
(-0.14228827 0 0)
(-0.11091029 0 0)
(-0.076801098 0 0)
(-0.039838236 0 0)
(0 0 0)
(-0.26053395 0 0)
(-0.26526979 0 0)
(-0.27024844 0 0)
(-0.27545612 0 0)
(-0.28087521 0 0)
(-0.28648404 0 0)
(-0.29225651 0 0)
(-0.2981625 0 0)
(-0.30416733 0 0)
(-0.31022976 0 0)
(-0.31630401 0 0)
(-0.32234314 0 0)
(-0.328301 0 0)
(-0.3341324 0 0)
(-0.3397923 0 0)
(-0.34523688 0 0)
(-0.35042338 0 0)
(-0.3553058 0 0)
(-0.35983304 0 0)
(-0.36395703 0 0)
(-0.36763892 0 0)
(-0.37084511 0 0)
(-0.37353383 0 0)
(-0.3756465 0 0)
(-0.37712453 0 0)
(-0.37792458 0 0)
(-0.37799722 0 0)
(-0.37728534 0 0)
(-0.37575108 0 0)
(-0.37334826 0 0)
(-0.36997609 0 0)
(-0.36554768 0 0)
(-0.36002074 0 0)
(-0.35327991 0 0)
(-0.34521042 0 0)
(-0.3356986 0 0)
(-0.3246548 0 0)
(-0.31209406 0 0)
(-0.29796328 0 0)
(-0.2819892 0 0)
(-0.26407373 0 0)
(-0.24424362 0 0)
(-0.22228058 0 0)
(-0.19805222 0 0)
(-0.17153962 0 0)
(-0.14265529 0 0)
(-0.11120045 0 0)
(-0.077003516 0 0)
(-0.039944094 0 0)
(0 0 0)
(-0.26032912 0 0)
(-0.26494084 0 0)
(-0.26980608 0 0)
(-0.27491219 0 0)
(-0.28024204 0 0)
(-0.28577454 0 0)
(-0.29148446 0 0)
(-0.29734292 0 0)
(-0.30331504 0 0)
(-0.30935823 0 0)
(-0.31542614 0 0)
(-0.32147166 0 0)
(-0.3274484 0 0)
(-0.33330991 0 0)
(-0.33900983 0 0)
(-0.34450338 0 0)
(-0.34974663 0 0)
(-0.35469253 0 0)
(-0.35928908 0 0)
(-0.3634867 0 0)
(-0.36724538 0 0)
(-0.37053115 0 0)
(-0.37330172 0 0)
(-0.3754967 0 0)
(-0.37705626 0 0)
(-0.3779377 0 0)
(-0.37809016 0 0)
(-0.37745523 0 0)
(-0.37599529 0 0)
(-0.37366321 0 0)
(-0.37035478 0 0)
(-0.36598287 0 0)
(-0.36050918 0 0)
(-0.35381612 0 0)
(-0.34578798 0 0)
(-0.33631204 0 0)
(-0.32529624 0 0)
(-0.31275298 0 0)
(-0.29862973 0 0)
(-0.28265766 0 0)
(-0.26473909 0 0)
(-0.24489382 0 0)
(-0.22289564 0 0)
(-0.19861705 0 0)
(-0.17204511 0 0)
(-0.14308754 0 0)
(-0.11154242 0 0)
(-0.077242185 0 0)
(-0.04006906 0 0)
(0 0 0)
(-0.26006584 0 0)
(-0.2645312 0 0)
(-0.26926237 0 0)
(-0.27424831 0 0)
(-0.27947233 0 0)
(-0.28491368 0 0)
(-0.29054811 0 0)
(-0.29634839 0 0)
(-0.30227929 0 0)
(-0.30829607 0 0)
(-0.31435217 0 0)
(-0.32040177 0 0)
(-0.32639841 0 0)
(-0.33229332 0 0)
(-0.33803821 0 0)
(-0.34358756 0 0)
(-0.34889613 0 0)
(-0.3539154 0 0)
(-0.35859253 0 0)
(-0.36287648 0 0)
(-0.36672547 0 0)
(-0.37010474 0 0)
(-0.3729713 0 0)
(-0.37526309 0 0)
(-0.3769188 0 0)
(-0.37789541 0 0)
(-0.3781413 0 0)
(-0.37759704 0 0)
(-0.37622504 0 0)
(-0.37397706 0 0)
(-0.37074505 0 0)
(-0.36644143 0 0)
(-0.36103154 0 0)
(-0.35439641 0 0)
(-0.34641916 0 0)
(-0.33698783 0 0)
(-0.32600759 0 0)
(-0.31348743 0 0)
(-0.29937534 0 0)
(-0.28340826 0 0)
(-0.26548866 0 0)
(-0.24562838 0 0)
(-0.22359252 0 0)
(-0.19925863 0 0)
(-0.17262066 0 0)
(-0.14358073 0 0)
(-0.11193296 0 0)
(-0.077514762 0 0)
(-0.040211765 0 0)
(0 0 0)
(-0.25972958 0 0)
(-0.26402731 0 0)
(-0.26860483 0 0)
(-0.27345256 0 0)
(-0.27855456 0 0)
(-0.28388967 0 0)
(-0.28943346 0 0)
(-0.29516199 0 0)
(-0.30104102 0 0)
(-0.30702549 0 0)
(-0.31306733 0 0)
(-0.31911985 0 0)
(-0.32513629 0 0)
(-0.33106655 0 0)
(-0.33686123 0 0)
(-0.34247331 0 0)
(-0.34785579 0 0)
(-0.35295885 0 0)
(-0.35772861 0 0)
(-0.36211184 0 0)
(-0.36606482 0 0)
(-0.36955196 0 0)
(-0.37252913 0 0)
(-0.37493234 0 0)
(-0.3766988 0 0)
(-0.37778529 0 0)
(-0.3781383 0 0)
(-0.37769778 0 0)
(-0.37642755 0 0)
(-0.374278 0 0)
(-0.37113535 0 0)
(-0.36691127 0 0)
(-0.36157655 0 0)
(-0.35500991 0 0)
(-0.34709252 0 0)
(-0.33771465 0 0)
(-0.32677895 0 0)
(-0.3142884 0 0)
(-0.30019058 0 0)
(-0.28423156 0 0)
(-0.26631408 0 0)
(-0.24643885 0 0)
(-0.22436296 0 0)
(-0.19996995 0 0)
(-0.17326033 0 0)
(-0.1441298 0 0)
(-0.11236801 0 0)
(-0.077818479 0 0)
(-0.040370844 0 0)
(0 0 0)
(-0.25930105 0 0)
(-0.2634112 0 0)
(-0.26781683 0 0)
(-0.27250816 0 0)
(-0.2774697 0 0)
(-0.28267969 0 0)
(-0.2881173 0 0)
(-0.2937604 0 0)
(-0.29957726 0 0)
(-0.30552369 0 0)
(-0.31154872 0 0)
(-0.3176033 0 0)
(-0.32363967 0 0)
(-0.32960812 0 0)
(-0.33545816 0 0)
(-0.34114095 0 0)
(-0.34660807 0 0)
(-0.35180687 0 0)
(-0.35668149 0 0)
(-0.36117745 0 0)
(-0.36524903 0 0)
(-0.36885896 0 0)
(-0.37196181 0 0)
(-0.37449162 0 0)
(-0.37638423 0 0)
(-0.37759517 0 0)
(-0.37806931 0 0)
(-0.37774618 0 0)
(-0.37659151 0 0)
(-0.37455432 0 0)
(-0.37151425 0 0)
(-0.36738151 0 0)
(-0.36213267 0 0)
(-0.35564518 0 0)
(-0.34779707 0 0)
(-0.33848155 0 0)
(-0.32759933 0 0)
(-0.31514538 0 0)
(-0.30106607 0 0)
(-0.28511863 0 0)
(-0.26720555 0 0)
(-0.24731541 0 0)
(-0.22519785 0 0)
(-0.20074253 0 0)
(-0.17395661 0 0)
(-0.14472851 0 0)
(-0.11284275 0 0)
(-0.078149936 0 0)
(-0.040544408 0 0)
(0 0 0)
(-0.25971873 0 0)
(-0.26364172 0 0)
(-0.26786698 0 0)
(-0.27238605 0 0)
(-0.27718287 0 0)
(-0.2822398 0 0)
(-0.28754102 0 0)
(-0.29306249 0 0)
(-0.29877499 0 0)
(-0.30463756 0 0)
(-0.31059864 0 0)
(-0.31660753 0 0)
(-0.32261542 0 0)
(-0.32857311 0 0)
(-0.33442942 0 0)
(-0.34013434 0 0)
(-0.34563809 0 0)
(-0.35088592 0 0)
(-0.35582045 0 0)
(-0.36038636 0 0)
(-0.36453638 0 0)
(-0.36823152 0 0)
(-0.37142475 0 0)
(-0.37404871 0 0)
(-0.37603796 0 0)
(-0.37734735 0 0)
(-0.37791964 0 0)
(-0.37769301 0 0)
(-0.37663482 0 0)
(-0.37469387 0 0)
(-0.37174465 0 0)
(-0.36769381 0 0)
(-0.36252331 0 0)
(-0.35611067 0 0)
(-0.34832921 0 0)
(-0.33907709 0 0)
(-0.32825183 0 0)
(-0.31584024 0 0)
(-0.30178715 0 0)
(-0.28586333 0 0)
(-0.26796591 0 0)
(-0.24807348 0 0)
(-0.22593012 0 0)
(-0.20142842 0 0)
(-0.17458206 0 0)
(-0.1452727 0 0)
(-0.11327934 0 0)
(-0.078459042 0 0)
(-0.040711304 0 0)
(0 0 0)
(-0.26109625 0 0)
(-0.26611482 0 0)
(-0.27134659 0 0)
(-0.2767761 0 0)
(-0.28238432 0 0)
(-0.28814738 0 0)
(-0.29403621 0 0)
(-0.30001897 0 0)
(-0.30606079 0 0)
(-0.31212303 0 0)
(-0.31816628 0 0)
(-0.32414723 0 0)
(-0.33002138 0 0)
(-0.33574721 0 0)
(-0.3412833 0 0)
(-0.34658391 0 0)
(-0.35160555 0 0)
(-0.35631281 0 0)
(-0.36065742 0 0)
(-0.36459255 0 0)
(-0.36808113 0 0)
(-0.37108917 0 0)
(-0.37357295 0 0)
(-0.37548131 0 0)
(-0.37675923 0 0)
(-0.37735274 0 0)
(-0.37722554 0 0)
(-0.376327 0 0)
(-0.37462213 0 0)
(-0.37206112 0 0)
(-0.36854861 0 0)
(-0.36400313 0 0)
(-0.35836496 0 0)
(-0.35153183 0 0)
(-0.34338739 0 0)
(-0.33381562 0 0)
(-0.32273355 0 0)
(-0.31015546 0 0)
(-0.29601803 0 0)
(-0.28006484 0 0)
(-0.26220493 0 0)
(-0.24244832 0 0)
(-0.22060568 0 0)
(-0.19653692 0 0)
(-0.17020218 0 0)
(-0.14152245 0 0)
(-0.11030691 0 0)
(-0.076381476 0 0)
(-0.039620175 0 0)
(0 0 0)
(-0.26099097 0 0)
(-0.26599878 0 0)
(-0.27122239 0 0)
(-0.27664651 0 0)
(-0.28225227 0 0)
(-0.28801609 0 0)
(-0.29390937 0 0)
(-0.29989994 0 0)
(-0.30595256 0 0)
(-0.31202863 0 0)
(-0.31808703 0 0)
(-0.32408341 0 0)
(-0.3299735 0 0)
(-0.33571587 0 0)
(-0.34126843 0 0)
(-0.34658583 0 0)
(-0.35162608 0 0)
(-0.35635143 0 0)
(-0.36071216 0 0)
(-0.36466256 0 0)
(-0.36816683 0 0)
(-0.37119052 0 0)
(-0.3736896 0 0)
(-0.37561254 0 0)
(-0.3769051 0 0)
(-0.37751457 0 0)
(-0.37740116 0 0)
(-0.37651463 0 0)
(-0.37481909 0 0)
(-0.37226515 0 0)
(-0.3687578 0 0)
(-0.36421515 0 0)
(-0.35857952 0 0)
(-0.35174568 0 0)
(-0.34359948 0 0)
(-0.33402501 0 0)
(-0.3229382 0 0)
(-0.31035481 0 0)
(-0.29621468 0 0)
(-0.28025376 0 0)
(-0.26237805 0 0)
(-0.24260685 0 0)
(-0.22074799 0 0)
(-0.19666025 0 0)
(-0.17030644 0 0)
(-0.14160819 0 0)
(-0.11037391 0 0)
(-0.076427628 0 0)
(-0.039643619 0 0)
(0 0 0)
(-0.26091568 0 0)
(-0.2658895 0 0)
(-0.2710833 0 0)
(-0.27648196 0 0)
(-0.28206683 0 0)
(-0.28781471 0 0)
(-0.29369737 0 0)
(-0.29968295 0 0)
(-0.30573627 0 0)
(-0.31181795 0 0)
(-0.31788586 0 0)
(-0.32389473 0 0)
(-0.3297999 0 0)
(-0.33555955 0 0)
(-0.34113103 0 0)
(-0.34646987 0 0)
(-0.35153447 0 0)
(-0.35628486 0 0)
(-0.36067072 0 0)
(-0.36464627 0 0)
(-0.36817589 0 0)
(-0.37122552 0 0)
(-0.37375173 0 0)
(-0.37570124 0 0)
(-0.37701946 0 0)
(-0.37765676 0 0)
(-0.37756972 0 0)
(-0.37670656 0 0)
(-0.37503146 0 0)
(-0.37249628 0 0)
(-0.36900502 0 0)
(-0.36447439 0 0)
(-0.35885076 0 0)
(-0.35202563 0 0)
(-0.34388529 0 0)
(-0.33431485 0 0)
(-0.32322948 0 0)
(-0.31064531 0 0)
(-0.29650425 0 0)
(-0.28053717 0 0)
(-0.26264831 0 0)
(-0.24286291 0 0)
(-0.22098387 0 0)
(-0.19687103 0 0)
(-0.17049037 0 0)
(-0.14176267 0 0)
(-0.11049538 0 0)
(-0.076511985 0 0)
(-0.039687385 0 0)
(0 0 0)
(-0.26081811 0 0)
(-0.26573511 0 0)
(-0.27087807 0 0)
(-0.27623209 0 0)
(-0.28177877 0 0)
(-0.28749535 0 0)
(-0.29335419 0 0)
(-0.29932389 0 0)
(-0.3053694 0 0)
(-0.3114509 0 0)
(-0.31752485 0 0)
(-0.32354514 0 0)
(-0.32946692 0 0)
(-0.33524738 0 0)
(-0.340843 0 0)
(-0.34621009 0 0)
(-0.35130742 0 0)
(-0.35609247 0 0)
(-0.3605143 0 0)
(-0.36452725 0 0)
(-0.36809499 0 0)
(-0.37118353 0 0)
(-0.37375013 0 0)
(-0.37574003 0 0)
(-0.37709787 0 0)
(-0.37777609 0 0)
(-0.37772877 0 0)
(-0.37690285 0 0)
(-0.37526133 0 0)
(-0.37275719 0 0)
(-0.36929363 0 0)
(-0.36478618 0 0)
(-0.35918453 0 0)
(-0.35237758 0 0)
(-0.34425216 0 0)
(-0.33469347 0 0)
(-0.32361536 0 0)
(-0.31103442 0 0)
(-0.2968949 0 0)
(-0.28092372 0 0)
(-0.2630233 0 0)
(-0.24322319 0 0)
(-0.22132008 0 0)
(-0.19717509 0 0)
(-0.17075868 0 0)
(-0.1419899 0 0)