/*--------------------------------*- C++ -*----------------------------------*\
| =========                 |                                                 |
| \\      /  F ield         | OpenFOAM: The Open Source CFD Toolbox           |
|  \\    /   O peration     | Version:  v2012                                 |
|   \\  /    A nd           | Website:  www.openfoam.com                      |
|    \\/     M anipulation  |                                                 |
\*---------------------------------------------------------------------------*/
FoamFile
{
    version     2.0;
    format      ascii;
    class       volVectorField;
    location    "13.71776417541";
    object      U;
}
// * * * * * * * * * * * * * * * * * * * * * * * * * * * * * * * * * * * * * //

dimensions      [0 1 -1 0 0 0 0];


internalField   nonuniform List<vector> 
9200
(
(2.5165349 -0.0013080274 2.6648936e-22)
(2.5162854 -0.0040419875 8.2630734e-22)
(2.5205208 -0.0014257756 1.2781256e-21)
(2.515984 -0.006355806 -2.9620463e-22)
(2.5202582 -0.0044937972 8.6056818e-22)
(2.5227114 -0.0014826634 2.4279677e-22)
(2.5154647 -0.0087453385 -2.6811399e-22)
(2.5199473 -0.0070643336 6.9776755e-22)
(2.5224665 -0.0047227901 9.7585419e-25)
(2.5255288 -0.0015440189 -9.002609e-22)
(2.5148633 -0.010749299 2.3430905e-24)
(2.5194198 -0.0097747548 -2.8534889e-22)
(2.5221698 -0.0074142284 -2.6158224e-22)
(2.5253028 -0.0049805671 1.027759e-23)
(2.5282139 -0.0015932094 5.991809e-23)
(2.5141127 -0.012767822 8.6901198e-24)
(2.5187923 -0.01207579 0)
(2.521677 -0.010283694 1.9746065e-23)
(2.5250219 -0.0078041067 -8.8504034e-22)
(2.5280139 -0.0052034217 4.6908629e-24)
(2.5309456 -0.0016330923 -2.7261074e-23)
(2.5132655 -0.014523968 5.0746867e-22)
(2.5180351 -0.014437256 6.3699307e-22)
(2.5210897 -0.012726396 4.1411067e-22)
(2.5245671 -0.01084807 -7.4040656e-22)
(2.5277543 -0.0081345284 -1.8683646e-22)
(2.5307742 -0.0054006969 1.3992722e-23)
(2.5336485 -0.0016627385 -3.7665334e-22)
(2.5122986 -0.016214131 -4.5180351e-24)
(2.5171659 -0.016551842 2.2608736e-22)
(2.5203914 -0.015250177 -2.4946725e-24)
(2.5240227 -0.013441029 4.7936584e-22)
(2.5273473 -0.01132381 4.8481145e-24)
(2.5305358 -0.0084223046 3.8263581e-22)
(2.5335081 -0.0055648942 0)
(2.5363193 -0.0016827777 9.1904644e-22)
(2.511231 -0.017734253 -1.6219856e-22)
(2.516188 -0.018640615 -9.2430583e-23)
(2.5195969 -0.017534 1.0979431e-22)
(2.5233911 -0.016132451 -5.1928729e-22)
(2.5268574 -0.014034428 3.4159115e-22)
(2.5301762 -0.011736858 1.8680955e-23)
(2.5332907 -0.0086582888 7.6863365e-22)
(2.5362115 -0.0056937296 0)
(2.538937 -0.0016944825 -5.7432553e-22)
(2.5100577 -0.01915067 -3.580382e-22)
(2.5151003 -0.020597201 2.6401319e-22)
(2.5187144 -0.019810592 -4.4457998e-23)
(2.5226815 -0.018584668 2.674525e-22)
(2.5263056 -0.016850645 -6.6319103e-22)
(2.5297371 -0.014542361 -1.9263376e-21)
(2.532976 -0.012077466 1.0814104e-22)
(2.5360162 -0.0088418306 4.8957558e-22)
(2.5388629 -0.0057890301 1.9158769e-24)
(2.5414902 -0.0017001432 -8.8513292e-22)
(2.5087853 -0.020436321 3.6039246e-22)
(2.5139029 -0.02249664 -7.0524181e-22)
(2.5177446 -0.021977418 -4.3808313e-23)
(2.5219137 -0.021041979 2.7980284e-22)
(2.5256982 -0.019418063 -3.5608895e-22)
(2.5292571 -0.017451824 -1.9308396e-23)
(2.5325797 -0.014958115 -1.0816209e-21)
(2.5357436 -0.012349287 1.3667628e-22)
(2.5386949 -0.008978388 -2.558895e-23)
(2.5414514 -0.0058605654 -2.7587623e-24)
(2.543973 -0.0017026489 5.0861042e-22)
(2.5074154 -0.021607067 2.4501134e-24)
(2.5125907 -0.024316608 1.4509145e-22)
(2.5166886 -0.024116125 -1.307923e-22)
(2.5210906 -0.023405316 1.6723836e-22)
(2.5250679 -0.021987477 -2.3642176e-22)
(2.5287397 -0.020091987 -5.5047715e-23)
(2.5321549 -0.017935098 2.0882745e-22)
(2.5353804 -0.015294327 1.9709518e-21)
(2.5384659 -0.012564344 -4.9345471e-22)
(2.5413218 -0.0090849041 -4.800315e-22)
(2.543973 -0.0059244195 0)
(2.5463873 -0.0017045981 0)
(2.5059514 -0.02265714 -2.0767266e-22)
(2.5111594 -0.026075748 2.5581025e-23)
(2.5155406 -0.026212607 -1.6837578e-23)
(2.5202195 -0.025763697 -5.0890997e-22)
(2.5244249 -0.024461324 5.2680907e-22)
(2.5282313 -0.022713818 -2.8329442e-22)
(2.5316997 -0.020614088 3.90747e-22)
(2.5349888 -0.018327636 2.2962057e-22)
(2.5381312 -0.015574447 9.5687015e-22)
(2.5411444 -0.012749036 1.051537e-21)
(2.5438977 -0.0091868467 8.9863491e-22)
(2.5464328 -0.005996897 -6.5702352e-22)
(2.5487399 -0.0017072073 3.2886242e-24)
(2.5043977 -0.023586337 -1.6253802e-22)
(2.5096029 -0.027770896 4.2097333e-22)
(2.5142935 -0.028293114 -3.7169626e-22)
(2.5192979 -0.028112978 -9.7748558e-23)
(2.5237879 -0.02693337 8.5739089e-23)
(2.5277519 -0.025216427 7.8502895e-22)
(2.5312724 -0.023238586 -5.2764664e-23)
(2.5345568 -0.021032527 -7.8487182e-22)
(2.5377551 -0.018671154 1.2967474e-21)
(2.5408436 -0.015837916 -1.1389345e-21)
(2.5437889 -0.012938896 4.8879818e-22)
(2.5464311 -0.0093086783 -6.6223556e-23)
(2.5488412 -0.0060865523 3.970865e-22)
(2.5510378 -0.0017095842 7.2398771e-22)
(2.5027623 -0.024391919 -3.206053e-22)
(2.5079155 -0.029401367 1.0663853e-22)
(2.5129358 -0.030362588 3.5193931e-22)
(2.5183206 -0.030489877 2.3075712e-22)
(2.5231646 -0.029408477 -6.9818895e-22)
(2.5273363 -0.027692273 1.9873564e-22)
(2.5309024 -0.025697343 -1.4359102e-23)
(2.5341488 -0.023637851 2.2494885e-22)
(2.537309 -0.021416493 5.1176892e-23)
(2.5404781 -0.019024478 -5.9859025e-22)
(2.5435402 -0.016131637 -1.5911904e-21)
(2.5464152 -0.013165257 -5.0491349e-22)
(2.5489327 -0.0094617596 -1.2487121e-21)
(2.5512082 -0.0061889716 2.5280411e-22)
(2.5532838 -0.0017087721 1.9300434e-21)
(2.5010533 -0.025070559 -2.3263214e-23)
(2.5060932 -0.030962321 -2.055684e-23)
(2.5114555 -0.032426854 1.5216633e-23)
(2.5172751 -0.032911628 -1.4662667e-22)
(2.5225591 -0.031934351 1.0002895e-23)
(2.5270093 -0.030150428 -3.6411935e-22)
(2.5306421 -0.028071903 -2.286251e-23)
(2.5337986 -0.026014244 -7.6908141e-22)
(2.5368545 -0.02401998 -6.5372842e-22)
(2.5399957 -0.021853881 1.0484736e-21)
(2.5431997 -0.019449893 -4.2759232e-22)
(2.54625 -0.016492535 6.0929137e-22)
(2.5490397 -0.013439325 -3.3694375e-22)
(2.5514105 -0.0096367764 -1.0434519e-21)
(2.5535372 -0.0062871825 -7.0212468e-22)
(2.5554729 -0.0017005093 -1.3091881e-21)
(2.4992813 -0.025617915 1.5971298e-22)
(2.504133 -0.032444563 -4.4907067e-22)
(2.5098391 -0.034487393 -2.4350704e-23)
(2.5161456 -0.035396473 3.8957378e-22)
(2.5219664 -0.034542445 -1.010991e-21)
(2.5267923 -0.032645338 -3.5655772e-22)
(2.5305378 -0.030367098 5.5255355e-22)
(2.5335729 -0.028221336 3.6419083e-22)
(2.5364206 -0.026328778 -1.6937046e-23)
(2.5394448 -0.024515932 -2.6565808e-22)
(2.5426855 -0.022430024 -3.2833004e-22)
(2.5459702 -0.019990387 5.0932806e-22)
(2.5489992 -0.016928325 -1.5309408e-22)
(2.5516722 -0.013742988 4.3721087e-23)
(2.5538646 -0.0098048916 4.1156213e-22)
(2.5558223 -0.0063570944 4.377787e-22)
(2.5575931 -0.001680337 -1.5242661e-21)
(2.4974562 -0.026032235 -9.1616744e-24)
(2.5020356 -0.033838281 1.7099023e-22)
(2.5080735 -0.036538472 2.277222e-22)
(2.514912 -0.037957707 -5.6484042e-22)
(2.5213751 -0.037269027 3.8644644e-22)
(2.5267012 -0.035221218 1.0536345e-21)
(2.5306353 -0.032631709 -7.3454969e-22)
(2.533536 -0.030247251 -6.8588484e-23)
(2.5360771 -0.02837239 1.2075695e-21)
(2.5388367 -0.026834407 -2.8996549e-22)
(2.5420232 -0.025247049 5.6932411e-22)
(2.5454615 -0.023197234 4.0969209e-22)
(2.5488342 -0.020646959 5.0102203e-23)
(2.5518025 -0.017407631 -6.3125153e-22)
(2.5543108 -0.014031544 3.2376854e-22)
(2.5562847 -0.0099265584 1.0686842e-21)
(2.558048 -0.0063748842 -7.174545e-23)
(2.5596271 -0.001644619 9.4959289e-22)
(2.4955902 -0.026308755 6.3071738e-23)
(2.499802 -0.035131613 -7.6450311e-23)
(2.5061476 -0.038572806 -5.615882e-22)
(2.513551 -0.04059975 4.3220911e-22)
(2.5207644 -0.040143392 -3.4376614e-22)
(2.5267373 -0.037932704 -4.9938761e-22)
(2.5309856 -0.03491871 -4.9007706e-22)
(2.533763 -0.032113884 7.7041288e-22)
(2.5358962 -0.030105416 2.3121545e-22)
(2.5382285 -0.028805005 -4.8742362e-23)
(2.5411936 -0.027708036 2.5721493e-23)
(2.5447207 -0.026282873 3.0761231e-22)
(2.5483993 -0.024147459 2.283262e-22)
(2.5518183 -0.021368973 -2.4443143e-23)
(2.5546574 -0.017865254 1.3263136e-21)
(2.5569402 -0.014246607 -4.6689738e-22)
(2.5586514 -0.0099631659 1.9148374e-23)
(2.5601927 -0.0063229903 4.430961e-23)
(2.5615556 -0.0015912116 -5.3437331e-22)
(2.493694 -0.02645002 -2.1053167e-22)
(2.4974386 -0.036311552 2.2229703e-22)
(2.5040516 -0.040577394 3.6933136e-22)
(2.51204 -0.043324041 9.5761179e-22)
(2.5201074 -0.043188864 9.3977895e-23)
(2.5268924 -0.04082801 -1.3715185e-21)
(2.5316127 -0.037283922 8.5695614e-22)
(2.5343402 -0.033878206 -2.9425203e-22)
(2.5359774 -0.031507241 5.3045165e-23)
(2.5376852 -0.030336138 -1.5834983e-22)
(2.5402236 -0.029776652 -1.3733617e-21)
(2.5436894 -0.029050768 -8.0972583e-22)
(2.5476625 -0.027605964 -1.4616185e-22)
(2.551548 -0.025203544 -5.8520113e-22)
(2.5549225 -0.022063248 -6.4922682e-22)
(2.5575423 -0.01821985 6.5104791e-22)
(2.5595335 -0.014332476 -4.2533327e-22)
(2.5609395 -0.0098864642 1.004538e-21)
(2.5622325 -0.0061929765 2.1601697e-21)
(2.5633605 -0.0015196785 -5.7115564e-22)
(2.4917797 -0.026452037 1.6985484e-22)
(2.4949513 -0.037368621 1.4459055e-22)
(2.5017809 -0.042537832 5.915054e-22)
(2.510356 -0.04612236 -4.1244755e-22)
(2.5193728 -0.046424424 1.2562459e-21)
(2.5271492 -0.043956207 -7.4931615e-22)
(2.532541 -0.03980243 5.0353469e-23)
(2.535326 -0.035553521 1.7389931e-22)
(2.5364138 -0.032620994 -1.4165933e-21)
(2.5373051 -0.03137335 -1.3598946e-22)
(2.5391483 -0.031321222 0)
(2.5423508 -0.031446664 -1.0337056e-21)
(2.5465238 -0.030839047 -1.8092524e-22)
(2.5509368 -0.029104623 -3.2838308e-22)
(2.5549171 -0.026233703 1.1274119e-21)
(2.5581188 -0.022617919 6.7717251e-22)
(2.5604199 -0.018395502 -1.3952078e-21)
(2.562057 -0.01424918 6.7584681e-23)
(2.5631218 -0.009683087 -6.1692923e-22)
(2.5641456 -0.0059853412 6.015761e-22)
(2.5650273 -0.0014311308 -7.9150643e-24)
(2.4898584 -0.026322558 -2.9678415e-22)
(2.4923513 -0.038289326 9.0690125e-22)
(2.4993323 -0.044438595 -5.7372789e-22)
(2.5084795 -0.048983674 -6.5682126e-22)
(2.5185261 -0.049856251 2.7499375e-23)
(2.5274767 -0.047363326 1.1439033e-21)
(2.533784 -0.042542388 -1.6360882e-21)
(2.5368026 -0.037253834 -1.2091057e-22)
(2.5373163 -0.033380309 6.6748199e-22)
(2.5371625 -0.031894148 -4.6305102e-22)
(2.538027 -0.032265491 -1.3065893e-22)
(2.5406874 -0.033323542 2.7202108e-22)
(2.5449175 -0.033795812 9.3076367e-22)
(2.5498486 -0.032918724 -8.3363182e-23)
(2.5545738 -0.030594454 5.6752375e-22)
(2.5584731 -0.027083665 2.3845843e-22)
(2.5613558 -0.022930418 4.1280218e-22)
(2.5632437 -0.018338603 1.3952171e-23)
(2.5644753 -0.013978594 5.5343596e-22)
(2.5651739 -0.0093542527 -9.2344617e-22)
(2.5659146 -0.0057074461 -3.9450967e-22)
(2.5665462 -0.0013278223 7.7722216e-22)
(2.4879356 -0.026059437 2.1150171e-22)
(2.4896489 -0.03907013 -1.4562396e-22)
(2.4967099 -0.046261457 9.0008306e-23)
(2.5063933 -0.051889469 -5.2875594e-22)
(2.5175305 -0.053486738 -2.2825731e-23)
(2.5278363 -0.051080842 6.3660595e-22)
(2.535332 -0.045585815 6.9829334e-22)
(2.5388219 -0.039027371 1.0746325e-21)
(2.5388304 -0.033915206 1.0310065e-21)
(2.5374178 -0.031777039 -6.9985273e-22)
(2.536935 -0.032414089 1.3714779e-21)
(2.5386999 -0.034552537 0)
(2.5427649 -0.03633326 1.1330501e-21)
(2.5481736 -0.036619277 1.1673365e-21)
(2.5537338 -0.035035082 -4.0612128e-22)
(2.5585392 -0.031861557 1.7880129e-22)
(2.5621461 -0.027613236 -6.2763802e-22)
(2.5645675 -0.022929123 -8.0092764e-22)
(2.5659653 -0.018025676 9.363809e-22)
(2.5667565 -0.013523814 4.6128804e-22)
(2.5670762 -0.0089123556 2.2710237e-21)
(2.5675277 -0.0053707883 6.8079085e-22)
(2.5679114 -0.0012126349 -7.1490048e-23)
(2.4860101 -0.025675452 7.2455324e-22)
(2.4868548 -0.039699228 -1.5370173e-21)
(2.4939182 -0.047993899 5.7366517e-22)
(2.5040884 -0.054818465 1.1829803e-21)
(2.5163507 -0.05730404 0)
(2.5281785 -0.055138365 -8.4458025e-22)
(2.5371637 -0.048998568 6.5673186e-21)
(2.5414313 -0.040987536 -3.7074052e-21)
(2.5410391 -0.034218806 -1.4394753e-21)
(2.5382267 -0.03105777 7.1196592e-22)
(2.5360088 -0.031803871 -1.1970395e-22)
(2.5364379 -0.034921315 4.0723683e-22)
(2.540003 -0.038301061 -1.8256868e-22)
(2.5457763 -0.040091325 7.0369231e-23)
(2.5522576 -0.039571181 7.4383502e-22)
(2.5581527 -0.036890608 4.8122252e-22)
(2.5627407 -0.032711082 9.0499788e-23)
(2.5658426 -0.027724491 -4.7996132e-23)
(2.5676845 -0.022583375 -2.2847779e-22)
(2.5685407 -0.017462356 2.3194216e-23)
(2.5688755 -0.012904162 -2.7155919e-24)
(2.5688157 -0.0083764265 -7.9456253e-23)
(2.568979 -0.0049883859 -3.384773e-21)
(2.569122 -0.0010885689 1.5529935e-22)
(2.4840729 -0.025171204 -7.9351694e-22)
(2.4839758 -0.040180735 5.4200741e-23)
(2.4909658 -0.04961708 -1.9912849e-23)
(2.5015568 -0.05774768 3.8673744e-22)
(2.5149571 -0.061292633 1.4330726e-24)
(2.5284507 -0.059545926 -8.2601385e-22)
(2.5392392 -0.05285285 -5.2110689e-22)
(2.544658 -0.043226993 -4.799226e-22)
(2.5440635 -0.034391692 9.7036073e-22)
(2.5397253 -0.029724161 -3.8496814e-23)
(2.5353424 -0.030183646 -1.8401005e-21)
(2.5339412 -0.034360515 -1.7670341e-21)
(2.5365867 -0.039532523 4.796277e-23)
(2.5425249 -0.043212589 -1.104204e-21)
(2.5499684 -0.044141775 -7.527821e-22)
(2.5571666 -0.042238959 -5.2957911e-22)
(2.5629883 -0.038210671 3.8784975e-22)
(2.567046 -0.033004964 1.4369518e-22)
(2.5694609 -0.027375164 -3.6144239e-22)
(2.5706431 -0.021902162 0)
(2.5709355 -0.016676593 2.5397833e-22)
(2.5708155 -0.012148553 9.621978e-23)
(2.5703858 -0.0077678868 -4.2041345e-22)
(2.5702676 -0.0045727161 -1.6582509e-21)
(2.5701815 -0.00095847855 -6.7297101e-23)
(2.4821219 -0.024565927 -8.1986781e-22)
(2.481018 -0.040506332 3.9575877e-22)
(2.4878585 -0.051125307 4.7389145e-23)
(2.498797 -0.060649586 -1.1292975e-21)
(2.5133202 -0.065425892 -1.9775057e-21)
(2.5285985 -0.064308826 1.2067309e-21)
(2.541506 -0.057201419 -5.1024274e-21)
(2.5485115 -0.045857147 4.0317138e-21)
(2.5479994 -0.034522881 3.2118964e-23)
(2.5420738 -0.027781805 -1.72045e-21)
(2.5351308 -0.027541927 5.6399813e-22)
(2.5312731 -0.032595506 -3.7322699e-22)
(2.5324766 -0.039789249 -7.8823307e-23)
(2.538281 -0.045822704 7.7481005e-22)
(2.5466783 -0.048680268 3.6183188e-22)
(2.5553881 -0.047915537 -3.1773778e-22)
(2.5627589 -0.044233045 -2.1622884e-22)
(2.5680563 -0.038795283 1.7447509e-22)
(2.5713054 -0.032680861 -4.6876476e-22)
(2.5729055 -0.026577476 -3.2904096e-22)
(2.5733925 -0.020925189 7.0597675e-22)
(2.5731267 -0.015709588 -1.7034319e-22)
(2.5725681 -0.011289288 2.2362938e-21)
(2.5717854 -0.0071073499 1.5140419e-21)
(2.5713967 -0.0041346381 4.0960638e-21)
(2.5710961 -0.00082509023 -3.6293072e-21)
(2.4801761 -0.023860368 1.9294131e-21)
(2.4779988 -0.040691125 6.6350277e-22)
(2.4846072 -0.052500985 1.9127315e-23)
(2.4958062 -0.063502393 7.1505412e-25)
(2.5114156 -0.069673926 2.6940696e-22)
(2.5285635 -0.069413099 -2.625666e-22)
(2.5438978 -0.062092567 -4.4059174e-21)
(2.5529804 -0.048982254 4.307789e-21)
(2.5529314 -0.034721798 -3.1559636e-21)
(2.5454301 -0.025276831 1.1783528e-21)
(2.5355305 -0.023779171 -2.5456442e-21)
(2.5285593 -0.029493076 7.9235111e-22)
(2.5276608 -0.038885233 1.1234394e-21)
(2.5329168 -0.047735862 2.4442527e-22)
(2.5421815 -0.053088169 1.4071943e-21)
(2.5526027 -0.053932578 -3.3930054e-22)
(2.5618747 -0.050861052 1.0801378e-22)
(2.5687842 -0.045259192 2.653759e-22)
(2.5731387 -0.0385472 8.0188052e-23)
(2.5753748 -0.03175225 -2.7820393e-22)
(2.5760992 -0.025386778 -3.4650035e-22)
(2.5758991 -0.019710741 1.2145388e-22)
(2.5751031 -0.014607196 -2.6427035e-22)
(2.5741324 -0.010357358 -4.2776633e-22)
(2.5730181 -0.0064127058 -1.4431886e-21)
(2.5723724 -0.0036832371 -1.6441568e-22)
(2.5718699 -0.00069082126 8.6889077e-22)
(2.4783056 -0.023088427 1.2099548e-21)
(2.4749571 -0.040726057 -9.2944236e-23)
(2.4812367 -0.05374995 -2.3850851e-23)
(2.4925929 -0.066273906 -9.3256282e-25)
(2.509219 -0.073998975 1.8617189e-21)
(2.5282868 -0.07484088 -6.1185034e-21)
(2.5463345 -0.067550932 6.1233177e-21)
(2.5580302 -0.052709481 2.083804e-21)
(2.5589203 -0.035106798 -4.230123e-22)
(2.5499476 -0.022274354 2.5540072e-21)
(2.5367254 -0.018852717 -4.0345033e-22)
(2.5259319 -0.024879206 -5.0374258e-22)
(2.5221542 -0.036577144 -1.170832e-21)
(2.5263138 -0.04873337 -4.6662472e-22)
(2.5362625 -0.057235551 -9.2763593e-22)
(2.5485642 -0.060281519 7.9865413e-23)
(2.560131 -0.058194873 2.0870719e-22)
(2.5690972 -0.052544258 1.2796309e-22)
(2.5749292 -0.045161204 4.2186401e-23)
(2.5780171 -0.0374755 2.3751408e-23)
(2.5791336 -0.030294626 -6.3807775e-23)
(2.5789896 -0.023885395 -4.9484922e-23)
(2.5781465 -0.018323837 -9.2029219e-22)
(2.5768641 -0.013413278 3.3228302e-22)
(2.5755133 -0.00937954 -2.2287946e-21)
(2.5740906 -0.0056983125 -2.9769902e-21)
(2.5732022 -0.0032255203 -2.4908023e-21)
(2.572507 -0.0005570803 2.7280636e-21)
(2.4765942 -0.022234868 2.0818188e-21)
(2.4719879 -0.04065289 -1.6232151e-21)
(2.4777923 -0.054852196 -1.1354495e-21)
(2.4891801 -0.068955001 0)
(2.5067216 -0.078359127 0)
(2.5277113 -0.080553343 9.1349065e-22)
(2.5487232 -0.073592664 1.1070737e-20)
(2.5636024 -0.057129796 -5.2663779e-21)
(2.5660034 -0.035803738 -7.667907e-22)
(2.5557595 -0.018854424 -3.1303146e-21)
(2.538905 -0.012749828 2.2817619e-21)
(2.5235454 -0.018602873 5.1481515e-21)
(2.5160029 -0.032632264 7.4941437e-22)
(2.5183722 -0.048577551 -1.9073805e-22)
(2.5287042 -0.060960878 -1.9720283e-21)
(2.543002 -0.066926306 1.1573889e-21)
(2.5572818 -0.066331103 1.5889648e-22)
(2.5688388 -0.060832165 2.5681016e-23)
(2.5766151 -0.052713418 -1.8302387e-22)
(2.5808677 -0.043931697 3.3542983e-22)
(2.5825035 -0.035679973 -1.4580807e-22)
(2.5824983 -0.028424257 3.0229418e-23)
(2.5815514 -0.022166196 1.7217104e-21)
(2.5801343 -0.016826757 4.5002181e-22)
(2.5784171 -0.012165462 5.3121996e-22)
(2.5767196 -0.0083770411 2.3630434e-21)
(2.5750113 -0.0049748447 -8.1538005e-23)
(2.5738947 -0.0027655433 1.8107644e-23)
(2.5730243 -0.00042448518 -7.4930151e-22)
(2.4750658 -0.021358088 1.6186884e-23)
(2.4692104 -0.040412697 1.0635838e-22)
(2.4743576 -0.055844355 -3.1251592e-22)
(2.4856185 -0.071504933 -1.7016992e-21)
(2.5039279 -0.082728583 -1.576196e-21)
(2.526798 -0.086520839 4.9550962e-21)
(2.550972 -0.080204158 -6.4181669e-21)
(2.5696144 -0.062327765 6.0500102e-21)
(2.5741864 -0.036933978 1.0647917e-21)
(2.5629848 -0.015110337 -2.925506e-21)
(2.5422548 -0.0054590309 1.8798251e-21)
(2.5215709 -0.010543157 4.2006469e-22)
(2.5092773 -0.026818252 2.7795184e-21)
(2.5090172 -0.04701503 3.8063891e-22)
(2.5192976 -0.064071274 8.36914e-23)
(2.5356275 -0.073802616 3.3126366e-22)
(2.5530432 -0.075351867 2.7302325e-23)
(2.5678086 -0.070323747 -3.1091574e-22)
(2.5781228 -0.061444887 -2.8631741e-22)
(2.5839504 -0.051322801 1.1187169e-22)
(2.5863082 -0.041696659 -1.2868823e-23)
(2.5864624 -0.033323831 -3.2294655e-23)
(2.5854267 -0.026275206 -5.9618149e-22)
(2.5837841 -0.020318787 1.4029723e-22)
(2.5818747 -0.015272731 3.2837267e-22)
(2.579775 -0.010893122 -4.6039435e-22)
(2.5777626 -0.0073652997 -1.9167188e-21)
(2.5757904 -0.0042495911 1.3427576e-21)
(2.5744595 -0.0023054402 4.3942024e-21)
(2.5734444 -0.00029511849 -3.57435e-23)
(2.4734676 -0.020293796 -3.5780471e-21)
(2.4665528 -0.040150138 9.4859399e-22)
(2.4710372 -0.056635194 1.2662986e-21)
(2.481984 -0.0739509 -1.5733647e-21)
(2.5008834 -0.087036078 2.051162e-22)
(2.5255234 -0.092694314 0)
(2.5530085 -0.087397271 -6.8770435e-21)
(2.5759856 -0.0683588 -9.4925896e-22)
(2.583441 -0.038621444 1.7466964e-20)
(2.571694 -0.011162301 -4.1627879e-22)
(2.546951 0.0029854028 -3.1217206e-21)
(2.5201949 -0.00057739402 -3.2084562e-21)
(2.5020716 -0.018920525 -7.1294998e-22)
(2.4982023 -0.043783762 0)
(2.5078508 -0.066350063 1.4801837e-21)
(2.5261455 -0.080809099 -2.8509891e-21)
(2.5470966 -0.085318305 3.4007135e-22)
(2.5657606 -0.081225128 -6.2030561e-22)
(2.5793426 -0.071640936 -3.1755074e-22)
(2.5872992 -0.059912791 -1.9031435e-22)
(2.5906583 -0.048521102 -5.5246832e-23)
(2.5910316 -0.038681889 -5.035949e-22)
(2.5898221 -0.030601668 5.5109916e-24)
(2.587917 -0.023978798 6.354112e-22)
(2.5857076 -0.018419814 -1.0169381e-21)
(2.5833882 -0.013702756 -7.5771021e-22)
(2.580954 -0.0096170819 -2.975609e-21)
(2.5786545 -0.0063546564 -4.4674492e-21)
(2.5764379 -0.0035272326 2.7067012e-21)
(2.5749056 -0.0018495328 -4.1049018e-22)
(2.5737439 -0.0001713125 0)
(2.4713868 -0.018976723 2.1151367e-21)
(2.4635699 -0.039623923 -5.3042689e-23)
(2.4679073 -0.057438517 -9.2822934e-22)
(2.4783559 -0.076170442 1.7183352e-21)
(2.4976489 -0.091305872 1.5880845e-21)
(2.5239055 -0.098991751 4.7411398e-21)
(2.5547922 -0.095079585 8.0912684e-21)
(2.5826562 -0.075304273 -8.5203781e-21)
(2.5937534 -0.040973706 8.3447729e-21)
(2.5819225 -0.0071344033 -2.0374721e-22)
(2.553114 0.012490611 2.5853654e-21)
(2.5195946 0.011330306 -2.634613e-21)
(2.4945054 -0.0087303655 -5.9311128e-21)
(2.4859102 -0.038628978 -1.5287794e-21)
(2.4941994 -0.067559854 -1.4331863e-22)
(2.5142679 -0.087810612 6.0999967e-22)
(2.5390979 -0.096256297 2.322916e-22)
(2.5623981 -0.093739272 -3.7057524e-22)
(2.58012 -0.083618156 -2.3608635e-22)
(2.5909319 -0.070032817 -1.5139355e-22)
(2.5957036 -0.056393483 3.792039e-22)
(2.5963881 -0.044613344 -1.3014715e-22)
(2.5949139 -0.035169234 1.145045e-22)
(2.592575 -0.027708579 -2.3710491e-22)
(2.5900005 -0.021648187 3.5877013e-22)
(2.587355 -0.016527658 2.0563393e-22)
(2.5846996 -0.012144957 3.636135e-22)
(2.5819711 -0.0083504818 -3.0761884e-22)
(2.5794077 -0.0053514487 2.1950906e-21)
(2.5769631 -0.0028106713 1.4465013e-23)
(2.575241 -0.0014041087 -7.1039387e-21)
(2.5739352 -2.7443401e-05 1.5130819e-23)
(2.4687368 -0.017483847 -9.4876086e-22)
(2.4598171 -0.038782689 2.8469978e-22)
(2.4644236 -0.057903627 -6.9046772e-22)
(2.4749335 -0.078448187 2.679188e-21)
(2.4943917 -0.095379896 -7.321689e-22)
(2.521985 -0.10547742 2.5866872e-21)
(2.5562923 -0.10323286 2.3864719e-21)
(2.5895831 -0.083129811 7.7638606e-23)
(2.605147 -0.044088036 -4.9055671e-21)
(2.5937363 -0.0031227972 6.8150799e-21)
(2.5608569 0.022988525 6.2793753e-21)
(2.5199268 0.025206578 -2.2208983e-21)
(2.4866988 0.0038974464 -2.2447328e-22)
(2.4721544 -0.031304318 2.4798614e-21)
(2.4782134 -0.067460146 -1.7493742e-22)
(2.4997288 -0.094637457 4.5616452e-21)
(2.5286911 -0.10814922 -3.9769377e-21)
(2.5573773 -0.10804467 2.5150995e-22)
(2.5802426 -0.097718331 3.3744916e-21)
(2.5948376 -0.082073188 2.0599178e-21)
(2.6016096 -0.065634955 1.4040397e-21)
(2.6027849 -0.051284955 -2.6656072e-22)
(2.6009273 -0.040003609 -1.6683662e-22)
(2.5979331 -0.031450296 3.6786865e-22)
(2.5947688 -0.024815111 -2.4335102e-22)
(2.5917313 -0.019369172 -6.0940354e-23)
(2.5887668 -0.014681018 1.5815184e-21)
(2.585835 -0.010615759 -1.1148574e-21)
(2.5828426 -0.0071002879 1.7759977e-21)
(2.5800337 -0.0043590051 5.7889462e-21)
(2.5773744 -0.0021013119 -8.3157975e-22)
(2.5754773 -0.0009683202 1.4187084e-21)
(2.5740426 0.00013640745 -8.5664296e-24)
(2.4656187 -0.015709157 -5.9479536e-21)
(2.4549574 -0.037812661 -8.851244e-22)
(2.4601664 -0.058090437 -2.650749e-23)
(2.4710286 -0.08032135 2.232056e-22)
(2.4913296 -0.099615419 5.7806701e-22)
(2.5201643 -0.11190496 -2.805656e-21)
(2.5575788 -0.11200833 -1.3198896e-20)
(2.5966582 -0.092234642 -3.2678608e-22)
(2.6176531 -0.048094083 -1.37175e-20)
(2.6072652 0.00074562174 3.0820029e-22)
(2.5703116 0.034396953 -4.1738818e-21)
(2.5213367 0.041092115 1.9581132e-21)
(2.4787881 0.01908906 9.0179742e-21)
(2.4569689 -0.021598682 -2.9757934e-21)
(2.4598033 -0.06581067 6.700175e-21)
(2.4822998 -0.10109841 -1.5145476e-21)
(2.5155277 -0.12092902 -3.7683996e-21)
(2.5503148 -0.12427855 -1.265932e-21)
(2.5794307 -0.11428426 3.1614858e-21)
(2.5989547 -0.096485916 3.833474e-21)
(2.6085465 -0.076647117 9.3515661e-22)
(2.6105285 -0.058942094 1.1295956e-21)
(2.6081837 -0.045156272 0)
(2.604221 -0.035126963 1.0137288e-26)
(2.6001579 -0.027785498 -9.4891303e-23)
(2.5964901 -0.022050957 1.0261782e-22)
(2.5931754 -0.017197052 -1.4930376e-23)
(2.5899843 -0.012900406 -1.5396898e-22)
(2.5868184 -0.0091220819 -9.0513864e-22)
(2.5835834 -0.0058689827 1.5137064e-21)
(2.580543 -0.0033784861 -2.5917343e-22)
(2.5776801 -0.0013996779 -1.4870775e-21)
(2.5756285 -0.00053539319 2.3892977e-21)
(2.5740654 0.00026092074 0)
(2.4621919 -0.013641982 4.1831417e-21)
(2.4489146 -0.036564996 -1.1576063e-21)
(2.4548403 -0.058315023 2.1687417e-21)
(2.4665524 -0.081965955 3.8710397e-22)
(2.4876924 -0.10352482 1.2042334e-22)
(2.5187612 -0.11864176 -3.3268374e-21)
(2.5591547 -0.12093312 -6.4420853e-21)
(2.6037937 -0.10166747 -1.1837439e-20)
(2.631246 -0.053218108 1.9003807e-21)
(2.6228341 0.0042710161 4.1167164e-22)
(2.5817441 0.046581571 -3.6399803e-21)
(2.5239777 0.05891059 1.4518453e-21)
(2.4708808 0.036967757 1.865921e-21)
(2.4404099 -0.0093296781 -1.0183097e-21)
(2.4389223 -0.062394548 8.230803e-21)
(2.4618046 -0.1069827 -7.4930332e-21)
(2.4992871 -0.13447914 6.8516593e-22)
(2.5408034 -0.14251598 4.2768458e-23)
(2.5773332 -0.13363703 -1.2951843e-21)
(2.6031494 -0.11376549 -5.8345061e-21)
(2.6166649 -0.08992885 -2.2643185e-21)
(2.6199765 -0.067913635 1.4881672e-21)
(2.6170919 -0.050735587 -5.8448658e-22)
(2.6117781 -0.038651065 5.7404274e-22)
(2.6063623 -0.030382913 -1.3922623e-22)
(2.6017239 -0.024374985 -2.240889e-22)
(2.5978461 -0.019498218 -4.051788e-23)
(2.5944004 -0.015158367 6.1438239e-22)
(2.5910457 -0.011191445 -1.5584715e-21)
(2.5876711 -0.0076639286 1.8896562e-21)
(2.5842062 -0.0046561695 -1.9780052e-21)
(2.5809448 -0.002409854 -2.4404061e-21)
(2.5778871 -0.00070710996 -8.1398988e-22)
(2.5756991 -0.00010274322 -1.4701424e-21)
(2.5740193 0.00036914306 -1.860951e-21)
(2.4607225 -0.011375902 9.9620948e-22)
(2.4433675 -0.035046511 3.9932171e-22)
(2.4483506 -0.058569137 1.2788489e-22)
(2.4615853 -0.08386673 6.6361569e-23)
(2.4841449 -0.10746337 2.7058846e-23)
(2.5169139 -0.12542945 -1.2704893e-21)
(2.5613535 -0.13008362 -3.0930436e-22)
(2.6101824 -0.11236498 1.8340566e-21)
(2.6441382 -0.058926875 1.3677815e-20)
(2.6409273 0.0072838134 0)
(2.5961473 0.059402169 -5.9876541e-21)
(2.5282622 0.078653157 -2.9451939e-21)
(2.46309 0.057538431 -5.0095426e-21)
(2.422529 0.005651824 1.1021281e-20)
(2.4155582 -0.057023678 -1.0311196e-20)
(2.4381305 -0.11208546 2.3023641e-21)
(2.4797011 -0.14862941 1.2254405e-21)
(2.5284327 -0.16275722 -9.2635117e-22)
(2.5735313 -0.15604521 8.8259859e-21)
(2.6071931 -0.13442878 2.6218344e-21)
(2.6260672 -0.10607131 -5.6938703e-21)
(2.6315205 -0.078643031 -1.9838109e-21)
(2.6281582 -0.056910365 1.0940529e-21)
(2.6210506 -0.04195463 0)
(2.6136839 -0.032381068 2.4978235e-22)
(2.607558 -0.026083796 -1.2963347e-22)
(2.6028032 -0.021344634 6.4716026e-23)
(2.5989478 -0.01719304 -1.2843657e-22)
(2.5954682 -0.013255828 -5.7249113e-22)
(2.5919832 -0.0095489115 1.4750832e-22)
(2.5884101 -0.00623693 1.1897243e-21)
(2.584722 -0.0034598899 1.490003e-22)
(2.5812475 -0.0014525537 -1.4675765e-21)
(2.5780018 -2.5399434e-05 2.933402e-21)
(2.5756845 0.00032719575 -3.6824404e-23)
(2.5739032 0.0004980523 2.1210204e-21)
(2.461791 -0.0090726159 2.4924081e-22)
(2.4407422 -0.033249563 2.4439647e-21)
(2.4415487 -0.058957799 -5.2267092e-24)
(2.4562307 -0.086183189 -4.1577867e-22)
(2.4812699 -0.11203501 -1.486869e-22)
(2.516092 -0.13266947 5.3554289e-22)
(2.5628636 -0.13993422 3.6548642e-22)
(2.615977 -0.12151027 1.0587383e-20)
(2.6506788 -0.0662647 -1.5889079e-20)
(2.6568127 0.0092891839 -1.1605228e-22)
(2.6145798 0.072342006 1.1479002e-20)
(2.5358935 0.10019101 1.9929397e-21)
(2.4557899 0.080909787 -1.1164658e-20)
(2.4033842 0.023385288 -3.4646416e-22)
(2.3897273 -0.049536236 3.4896386e-21)
(2.4112274 -0.11621267 9.3267803e-21)
(2.4565763 -0.16317841 -4.3975057e-21)
(2.5128186 -0.18490786 -9.9599621e-21)
(2.5675488 -0.18169616 -9.041508e-21)
(2.6107454 -0.15898203 -4.4081671e-21)
(2.6367721 -0.12575396 9.1501397e-22)
(2.6455647 -0.091700888 2.1019249e-21)
(2.6419843 -0.063947652 -3.110409e-21)
(2.6326128 -0.044983516 -2.3836996e-22)
(2.6225303 -0.03352961 -8.5601029e-22)
(2.6142082 -0.026835386 -3.5815691e-22)
(2.6080799 -0.022426677 -2.9738443e-23)
(2.6035754 -0.018746614 -2.0707027e-22)
(2.599896 -0.015133025 -2.4393997e-22)
(2.59643 -0.011474761 -2.3683741e-22)
(2.5928218 -0.0079608139 1.1837566e-21)
(2.5890486 -0.0048345487 -2.4143946e-21)
(2.5851393 -0.0022776207 1.6598749e-21)
(2.5814596 -0.0005057646 2.8424263e-22)
(2.5780365 0.00064553341 -1.6613014e-21)
(2.5755923 0.00075184712 6.0871274e-21)
(2.5737224 0.00064714015 8.5586553e-21)
(2.4654471 -0.0066517424 -2.1037637e-22)
(2.4406303 -0.031328972 5.1990883e-22)
(2.4384359 -0.059196699 2.8254389e-21)
(2.4510423 -0.088999742 9.1900955e-22)
(2.4790404 -0.11732347 -2.6016854e-23)
(2.5163347 -0.14063059 -2.4291253e-22)
(2.5657943 -0.14986404 0)
(2.6180123 -0.13146946 0)
(2.65019 -0.070161618 -1.8684087e-20)
(2.6608555 0.010364063 2.443735e-20)
(2.6312916 0.085161356 -3.090992e-21)
(2.5471231 0.12307189 -6.6451569e-22)
(2.4505994 0.10699851 -3.3079477e-22)
(2.3831501 0.044039994 -2.0709214e-20)
(2.3614665 -0.03989111 -1.4303244e-21)
(2.3811125 -0.11919318 -3.5363448e-21)
(2.4298055 -0.1778947 -1.4160271e-21)
(2.4936319 -0.2087902 -1.001757e-21)
(2.5588766 -0.21065987 1.2043446e-20)
(2.6133419 -0.18788237 -8.935587e-21)
(2.6486762 -0.1497261 -1.7345121e-20)
(2.6624921 -0.10780496 -8.5268336e-22)
(2.6592617 -0.072233333 4.0007887e-21)
(2.647178 -0.047731202 5.8267896e-23)
(2.6334408 -0.033534605 -5.5061181e-22)
(2.6219749 -0.026225163 1.4885648e-23)
(2.6137727 -0.022325883 2.1069627e-22)
(2.6082149 -0.019490542 -1.5841965e-22)
(2.6042043 -0.016570557 4.0678975e-22)
(2.6007733 -0.013287568 -7.5634159e-23)
(2.5973241 -0.0097897287 -5.397564e-22)
(2.593579 -0.0064119608 1.8075802e-22)
(2.5895961 -0.0034498034 -5.5895326e-22)
(2.5854641 -0.0011072039 -1.1641782e-21)
(2.5815872 0.00043063655 3.1012684e-21)
(2.5780003 0.0013067508 4.0944929e-21)
(2.5754354 0.001169307 -5.0488542e-21)
(2.5734834 0.00076340521 -5.0117665e-21)
(2.472512 -0.0041199113 1.0398933e-20)
(2.4426894 -0.02926155 -1.7149302e-21)
(2.4381836 -0.059214506 -3.7229689e-22)
(2.4446515 -0.092311733 6.4564979e-23)
(2.477463 -0.12319419 -2.006908e-23)
(2.5163138 -0.14875413 2.6498241e-21)