/*--------------------------------*- C++ -*----------------------------------*\
| =========                 |                                                 |
| \\      /  F ield         | OpenFOAM: The Open Source CFD Toolbox           |
|  \\    /   O peration     | Version:  v2012                                 |
|   \\  /    A nd           | Website:  www.openfoam.com                      |
|    \\/     M anipulation  |                                                 |
\*---------------------------------------------------------------------------*/
FoamFile
{
    version     2.0;
    format      ascii;
    class       surfaceVectorField;
    location    "13.71776417541";
    object      Uf;
}
// * * * * * * * * * * * * * * * * * * * * * * * * * * * * * * * * * * * * * //

dimensions      [0 1 -1 0 0 0 0];


internalField   nonuniform List<vector> 
18180
(
(2.516406 -0.0027166755 5.5578174e-22)
(2.5188522 -0.0013680001 7.8169063e-22)
(2.5161297 -0.0052402096 2.4624777e-22)
(2.518591 -0.0042721495 8.4681114e-22)
(2.5203851 -0.0030053968 1.0623482e-21)
(2.5215019 -0.0014547458 7.507639e-22)
(2.5157157 -0.0075914777 -2.816889e-22)
(2.5182821 -0.0067167505 2.1005275e-22)
(2.5200975 -0.0058246889 7.7644026e-22)
(2.5212493 -0.0046103998 4.2271896e-22)
(2.5225848 -0.0031507218 1.1783297e-22)
(2.5241776 -0.0015139192 -3.3945002e-22)
(2.5151539 -0.0097773094 -1.2835765e-22)
(2.5177529 -0.0092697532 -2.7350461e-22)
(2.5196747 -0.0084671415 1.897427e-22)
(2.520947 -0.0072424988 2.0909941e-22)
(2.5223132 -0.0061153032 -1.3470267e-22)
(2.5239418 -0.0048541086 5.0532129e-24)
(2.525412 -0.00331416 -4.2972873e-22)
(2.5268884 -0.0015690748 -4.1115857e-22)
(2.5144754 -0.011796518 5.6228489e-24)
(2.5171293 -0.011425055 1.1496401e-24)
(2.5190956 -0.010957405 -1.3789625e-22)
(2.520439 -0.010033918 -1.3317003e-22)
(2.5219152 -0.0089007756 -1.1620507e-22)
(2.5236527 -0.007612846 -5.7846681e-22)
(2.5251576 -0.0064396468 -4.523854e-22)
(2.5266758 -0.0050940829 7.4317712e-24)
(2.5281106 -0.0034540652 3.137868e-23)
(2.5296096 -0.0016135262 1.5509549e-23)
(2.513675 -0.013671549 2.6642807e-22)
(2.5163674 -0.013618285 3.2872237e-22)
(2.518401 -0.013301829 3.2916157e-22)
(2.5198342 -0.012407108 2.1094576e-22)
(2.5213735 -0.01153761 2.2353341e-22)
(2.5231784 -0.010571208 -3.674704e-22)
(2.5247869 -0.0093824766 -8.1030006e-22)
(2.5264058 -0.0079724151 -5.293801e-22)
(2.5278797 -0.0067161584 -9.4282718e-23)
(2.5294241 -0.0053039152 9.519231e-24)
(2.530857 -0.0035766623 -5.9426007e-24)
(2.5323234 -0.0016481942 -2.0524134e-22)
(2.5127659 -0.015400107 2.4290568e-22)
(2.5154965 -0.01555703 3.6044417e-22)
(2.5175859 -0.015524036 4.2466103e-22)
(2.5191099 -0.014851252 3.1123525e-22)
(2.5207288 -0.014037141 1.9883152e-22)
(2.5226117 -0.013090461 4.45874e-22)
(2.5242858 -0.012178049 -1.1008721e-22)
(2.5259755 -0.011090403 -3.6077427e-22)
(2.527544 -0.0097898641 -8.7782034e-23)
(2.5291753 -0.008281125 1.0344386e-22)
(2.530651 -0.0069580943 2.04493e-22)
(2.5321679 -0.0054843399 6.8648156e-24)
(2.5335759 -0.0036775816 -1.8201231e-22)
(2.5350108 -0.0016729469 2.833776e-22)
(2.5117469 -0.016998035 -8.5997583e-23)
(2.5145117 -0.017450255 -4.9298788e-23)
(2.5166606 -0.017634022 6.1496093e-23)
(2.5182819 -0.01705205 1.668461e-22)
(2.5199808 -0.016423347 5.5530051e-23)
(2.5219459 -0.01569965 -2.6725465e-22)
(2.5236963 -0.014838793 -3.6687716e-23)
(2.525459 -0.013743302 4.0877074e-22)
(2.5270942 -0.012713104 1.7886171e-22)
(2.5287924 -0.011534224 1.1894635e-23)
(2.53035 -0.010144459 1.9455868e-22)
(2.5319404 -0.0085425171 5.7926465e-22)
(2.5333958 -0.0071572358 3.9720046e-22)
(2.5348872 -0.0056305247 -8.6684141e-26)
(2.5362636 -0.0037559432 4.4411549e-22)
(2.5376542 -0.0016887405 1.5832182e-22)
(2.5106247 -0.018467328 -2.6339662e-22)
(2.5134177 -0.019192722 5.4907859e-23)
(2.5156259 -0.019648686 9.1758457e-23)
(2.5173566 -0.019236506 -6.7992301e-23)
(2.5191409 -0.018713135 3.0085402e-23)
(2.5211928 -0.018069268 1.9159625e-22)
(2.5230244 -0.017391799 -1.127411e-22)
(2.5248679 -0.016498301 -5.9303912e-22)
(2.5265723 -0.015497174 -1.7763298e-22)
(2.5283282 -0.014293181 -8.1392355e-22)
(2.5299493 -0.013173886 -9.8642153e-22)
(2.5316039 -0.011910368 6.4252601e-23)
(2.5331281 -0.010436799 4.2731702e-22)
(2.5346814 -0.0087517882 6.2637541e-22)
(2.5361106 -0.007312206 2.5299425e-22)
(2.5375638 -0.0057422771 9.0327068e-25)
(2.5388987 -0.0038132864 -2.7654393e-22)
(2.5402389 -0.0016973663 -7.3264985e-22)
(2.5094002 -0.01981483 1.3203847e-23)
(2.512214 -0.020855201 -5.3490141e-22)
(2.5144816 -0.021579107 -2.3684132e-22)
(2.5163335 -0.021300202 1.1114459e-22)
(2.5182133 -0.020926813 -4.4122278e-23)
(2.5203667 -0.020437933 1.2073092e-22)
(2.5222848 -0.019856711 2.738345e-22)
(2.5242103 -0.01900921 -4.9710161e-23)
(2.5259917 -0.018168738 -5.0449569e-22)
(2.5278126 -0.017156904 -3.3537785e-22)
(2.529489 -0.016053893 -9.408694e-22)
(2.5311867 -0.014754154 -1.4959465e-21)
(2.5327712 -0.013552308 -5.0667942e-22)
(2.5343885 -0.012215937 1.2280527e-22)
(2.5358753 -0.010668423 3.0721069e-22)
(2.5373828 -0.0089113958 2.2714846e-22)
(2.5387761 -0.0074267438 -1.2297606e-23)
(2.5401831 -0.0058254713 -4.6537776e-25)
(2.5414702 -0.0038557016 -4.2915202e-22)
(2.5427559 -0.0017014198 -1.7517182e-22)
(2.5080774 -0.021042036 1.7542869e-22)
(2.5108995 -0.022413043 2.5419651e-22)
(2.5132248 -0.023435774 -2.658386e-22)
(2.5152137 -0.023321543 -4.0858576e-22)
(2.5171989 -0.023082678 -8.8756747e-23)
(2.5194691 -0.022704877 6.4395814e-23)
(2.5214884 -0.022259039 2.2163559e-22)
(2.5235122 -0.021523636 1.681851e-23)
(2.5253725 -0.020747556 -2.9425095e-22)
(2.5272504 -0.019761385 -2.0289466e-22)
(2.5289897 -0.018806897 -3.7776839e-23)
(2.5307348 -0.017698017 9.690906e-23)
(2.5323602 -0.016505366 -4.1477062e-22)
(2.5340094 -0.015129391 4.7339857e-22)
(2.5355559 -0.013856734 1.084558e-21)
(2.5371329 -0.012458842 -1.8444376e-22)
(2.5385766 -0.010848129 -2.6736443e-22)
(2.5400351 -0.0090326498 -2.5717569e-22)
(2.5413844 -0.0075143125 -2.4939614e-22)
(2.5427372 -0.0058930933 -1.4085615e-24)
(2.543973 -0.0038928347 2.4577756e-22)
(2.5452034 -0.001703642 2.4953201e-22)
(2.5066589 -0.022150066 -1.0612942e-22)
(2.509473 -0.023883528 1.423312e-23)
(2.5118511 -0.025225278 8.3335198e-23)
(2.513992 -0.025282391 6.2598252e-23)
(2.5160954 -0.025197919 -7.1906871e-23)
(2.5185045 -0.024955504 -3.2342365e-22)
(2.5206405 -0.024623341 -1.821588e-22)
(2.5227803 -0.023943278 3.5042028e-22)
(2.5247356 -0.023260832 1.5797685e-22)
(2.5266811 -0.022357507 -2.603005e-22)
(2.528477 -0.021448113 -1.7299479e-22)
(2.5302489 -0.020357964 1.7205361e-22)
(2.5319197 -0.019309973 3.0283564e-22)
(2.5336018 -0.01813507 2.1941983e-22)
(2.5351781 -0.016871824 1.0711012e-21)
(2.5367849 -0.015437028 1.4543702e-21)
(2.5382929 -0.014105107 2.560172e-22)
(2.539833 -0.012658431 2.9343725e-22)
(2.5412301 -0.010997661 3.1142695e-22)
(2.5426357 -0.0091368355 2.2225653e-22)
(2.5439341 -0.0075957961 4.6438313e-22)
(2.5452269 -0.0059613394 -3.3463941e-22)
(2.5464108 -0.003934317 -3.3952824e-22)
(2.5475859 -0.0017059272 1.6751492e-24)
(2.5051485 -0.02313784 -1.8434957e-22)
(2.5079324 -0.025262213 1.1256602e-22)
(2.5103551 -0.026951003 2.29898e-22)
(2.512663 -0.027205266 -1.7680978e-22)
(2.5148961 -0.027287217 -2.0020905e-22)
(2.5174687 -0.027180783 -5.7505896e-23)
(2.5197433 -0.026975388 -2.9644381e-22)
(2.5220278 -0.026359572 -2.066748e-22)
(2.5240957 -0.025737118 2.9888663e-22)
(2.5261199 -0.024846008 6.5835807e-22)
(2.5279836 -0.02400117 2.6876297e-22)
(2.5297812 -0.022981156 -1.6589193e-22)
(2.5314789 -0.021971403 1.6156009e-22)
(2.5331586 -0.02082726 -2.0834729e-22)
(2.5347656 -0.019716159 -2.9462792e-22)
(2.5364019 -0.018502636 7.7345187e-22)
(2.5379368 -0.017186181 1.1325057e-21)
(2.5395165 -0.015708666 -1.1074536e-22)
(2.540989 -0.01433051 -8.041596e-23)
(2.542494 -0.012845755 7.6487767e-22)
(2.5438415 -0.011147589 6.8684581e-22)
(2.5451896 -0.0092489083 4.0720968e-22)
(2.5464319 -0.0076916563 -3.5171802e-22)
(2.5476601 -0.006042566 -1.2008181e-22)
(2.5487922 -0.0039851252 2.0679077e-22)
(2.5499103 -0.001708418 3.7038775e-22)
(2.5035526 -0.024003296 -2.4421872e-22)
(2.5062766 -0.026548653 -2.5415495e-23)
(2.5087309 -0.028612897 2.5854198e-22)
(2.5112181 -0.029091132 3.8580407e-22)
(2.5135919 -0.029361896 2.2395954e-24)
(2.5163557 -0.029412297 -6.4769716e-23)
(2.5187929 -0.029340005 7.2005792e-23)
(2.5212576 -0.028772964 -4.0364971e-22)
(2.5234658 -0.028209 -3.1935477e-22)
(2.5255937 -0.02731999 1.4330543e-22)
(2.5275371 -0.026492986 4.8206124e-22)
(2.5293563 -0.025461426 3.7778454e-22)
(2.5310812 -0.024502607 -3.2918449e-23)
(2.532741 -0.023441993 8.8503196e-23)
(2.5343459 -0.022380286 -2.6303881e-22)
(2.5359635 -0.021228138 -3.5925563e-22)
(2.5375246 -0.020081455 6.5308446e-22)
(2.5391469 -0.018851151 3.3177244e-22)
(2.5406548 -0.017497839 -8.5970475e-22)
(2.5422208 -0.015987545 -1.3693154e-21)
(2.5436604 -0.014574234 -5.8606391e-22)
(2.5451288 -0.013054207 -1.7602064e-23)
(2.5464229 -0.011325821 -2.9292365e-22)
(2.5477063 -0.0093866566 -6.6856355e-22)
(2.5488885 -0.007811865 -4.5340903e-22)
(2.550047 -0.0061387217 3.2359331e-22)
(2.5511259 -0.0040424944 4.8049472e-22)
(2.5521814 -0.0017091704 1.3382937e-21)
(2.5018792 -0.02474328 -1.669544e-22)
(2.5045074 -0.027739037 -1.6775485e-22)
(2.5069738 -0.030207475 4.0910593e-23)
(2.5096486 -0.030942622 6.006356e-23)
(2.5121709 -0.031429107 1.779388e-22)
(2.5151537 -0.03166125 9.7936694e-23)
(2.5177803 -0.031740056 3.574485e-23)
(2.5204691 -0.031225768 1.1828988e-22)
(2.5228517 -0.030711322 -3.3223128e-22)
(2.5251188 -0.029786459 -5.2834881e-22)
(2.5271673 -0.028957651 -9.2120082e-23)
(2.5290178 -0.027885669 8.5842085e-23)
(2.5307679 -0.026920481 -1.8753266e-23)
(2.5323804 -0.025858793 -3.9902689e-22)
(2.5339678 -0.024859326 -2.8872273e-22)
(2.5355324 -0.023832532 -2.2267335e-22)
(2.5370741 -0.022764384 -3.1309053e-22)
(2.5386836 -0.02163932 5.5921451e-22)
(2.5402288 -0.020479686 2.5255205e-22)
(2.5418694 -0.019241199 -5.1148249e-22)
(2.5433643 -0.017861482 -9.8988464e-22)
(2.5449237 -0.016315485 -4.7026376e-22)
(2.5463298 -0.014870358 7.0868871e-23)
(2.5477537 -0.013304867 -4.1935152e-22)
(2.548988 -0.011543541 -7.7753935e-22)
(2.5501953 -0.0095509094 -1.1441577e-21)
(2.5513127 -0.0079494851 -4.1706104e-22)
(2.5523942 -0.0062389962 -2.3359933e-22)
(2.5534148 -0.0040961564 5.698188e-22)
(2.5543981 -0.0017045632 2.8014291e-22)
(2.5001376 -0.025354226 7.128964e-23)
(2.5026271 -0.028827052 -2.4024778e-22)
(2.5050803 -0.031727772 -2.4199105e-22)
(2.5079459 -0.032758115 -2.104865e-23)
(2.5106202 -0.033491669 -5.2297325e-24)
(2.5138485 -0.033939795 2.0611298e-22)
(2.5166914 -0.034194973 1.3045425e-22)
(2.519654 -0.033742464 -5.8699817e-22)
(2.5222528 -0.033279654 -5.1759566e-22)
(2.5247083 -0.032296554 -1.7611501e-22)
(2.5268972 -0.031435501 -3.6021187e-22)
(2.5288013 -0.030260797 1.0243882e-22)
(2.5305882 -0.029251327 2.744853e-22)
(2.5321364 -0.028148035 1.7423283e-22)
(2.533682 -0.027150535 -1.8345618e-22)
(2.53514 -0.026174496 -3.8591124e-22)
(2.5366303 -0.025207638 -3.246603e-22)
(2.5381815 -0.024272651 -4.5603628e-22)
(2.539711 -0.023233909 3.6937803e-22)
(2.5413726 -0.022147393 3.4791055e-22)
(2.542934 -0.020984873 -3.76297e-22)
(2.5446155 -0.019725234 4.9680938e-23)
(2.5461054 -0.018316937 5.5763372e-22)
(2.547653 -0.01671453 2.2066936e-22)
(2.5490188 -0.015228155 -2.4193622e-22)
(2.5503816 -0.013594007 -1.4294185e-22)
(2.5515457 -0.011786818 -4.8163352e-22)
(2.5526605 -0.0097224086 -3.0231789e-22)
(2.5537064 -0.0080814692 -1.2660398e-22)
(2.5547005 -0.0063227918 -1.2151279e-22)
(2.5556535 -0.0041315123 -4.0640723e-22)
(2.5565519 -0.0016902345 -1.4187358e-21)
(2.4983382 -0.025832755 7.2446856e-23)
(2.5006411 -0.029805569 1.6545792e-22)
(2.5030492 -0.033164383 -1.2865369e-22)
(2.5061021 -0.034530181 -1.0533823e-22)
(2.5089267 -0.035547579 1.0590794e-22)
(2.5124235 -0.036255431 -2.9971956e-22)
(2.5155081 -0.036719644 -1.0361966e-22)
(2.5187988 -0.036350478 3.8798046e-22)
(2.5216608 -0.035949625 -2.8886426e-22)
(2.5243679 -0.034888231 4.1353465e-23)
(2.5267452 -0.033971796 3.7216121e-22)
(2.5287405 -0.032638367 -5.4913063e-22)
(2.5305882 -0.031530914 -1.1256073e-22)
(2.5320642 -0.030306038 2.3610756e-22)
(2.5335538 -0.029260015 1.4054984e-22)
(2.5348543 -0.028298308 7.9343279e-22)
(2.5362431 -0.027381328 6.1583799e-22)
(2.5376606 -0.02658639 -1.560268e-22)
(2.5391305 -0.025710772 -2.7821925e-22)
(2.5407672 -0.024888404 1.5969997e-22)
(2.5423433 -0.023892637 1.3554725e-22)
(2.544106 -0.022820867 4.8403738e-23)
(2.5457073 -0.021644475 4.5783944e-22)
(2.5474329 -0.020324855 2.7539749e-22)
(2.5489139 -0.018868223 -4.8088715e-23)
(2.5504289 -0.017172481 -3.9666161e-22)
(2.5517395 -0.015622581 -3.0508436e-22)
(2.5530166 -0.013889971 1.863694e-22)
(2.5540951 -0.012018575 3.6619285e-22)
(2.5550969 -0.0098668629 7.462546e-22)
(2.5560613 -0.0081758239 7.6381313e-22)
(2.5569551 -0.0063661547 1.7821739e-22)
(2.5578282 -0.0041340138 -7.7364508e-22)
(2.5586279 -0.0016621445 -2.6425638e-22)
(2.4964919 -0.026176048 2.816511e-23)
(2.4985549 -0.030667686 -4.344061e-23)
(2.5008814 -0.034506122 4.3124794e-23)
(2.504112 -0.036250295 -2.0222669e-22)
(2.5070783 -0.037590278 -1.8015503e-22)
(2.5108603 -0.038607598 3.3179692e-22)
(2.5142087 -0.039323105 -4.9614107e-23)
(2.5178835 -0.03907126 -4.5220632e-22)
(2.5210595 -0.038753033 9.1078999e-24)
(2.5240931 -0.037607117 -6.553276e-23)
(2.5267199 -0.036618396 2.5110719e-22)
(2.528869 -0.035067058 2.6716331e-22)
(2.5308163 -0.033805527 -6.082177e-22)
(2.5322239 -0.03236788 3.2177035e-23)
(2.5336533 -0.031203809 3.6496991e-22)
(2.5347437 -0.030175009 8.4148341e-23)
(2.5359837 -0.029259578 7.0303045e-22)
(2.5371839 -0.028592817 5.6834766e-22)
(2.5385224 -0.027850842 -1.6531045e-22)
(2.5400493 -0.027279498 -1.2914498e-22)
(2.5415945 -0.026518636 2.8840887e-22)
(2.5434063 -0.025774743 4.3600318e-22)
(2.5450787 -0.024801242 3.5694049e-22)
(2.5469635 -0.023681301 3.1730279e-22)
(2.5486094 -0.022454471 1.4220292e-22)
(2.550357 -0.021014756 1.2129132e-23)
(2.5518107 -0.019473844 -3.176707e-22)
(2.5532577 -0.017640737 3.6589248e-22)
(2.5544899 -0.015998323 8.4185611e-22)
(2.55565 -0.014141089 -7.8967185e-23)
(2.5566234 -0.012189524 2.7513519e-22)
(2.5574895 -0.0099452034 5.3410698e-22)
(2.5583599 -0.008201179 -2.4773909e-23)
(2.5591392 -0.0063484521 -1.2684188e-23)
(2.5599194 -0.0040927526 4.8176774e-22)
(2.5606079 -0.0016174172 1.9377864e-22)
(2.4946103 -0.026382567 -7.831383e-23)
(2.496378 -0.03140444 1.4548926e-22)
(2.4985807 -0.035741021 7.7928448e-23)
(2.5019712 -0.037906016 1.5059058e-22)
(2.5050645 -0.039609299 -8.0532986e-23)
(2.509142 -0.040993457 2.1241505e-22)
(2.5127702 -0.04200808 7.0371213e-22)
(2.5168831 -0.04191886 2.598837e-22)
(2.5204249 -0.041716509 -1.1756081e-22)
(2.5238698 -0.040492145 -8.6738049e-22)
(2.5268174 -0.039425251 -9.5006362e-22)
(2.5291997 -0.037602105 1.9163128e-22)
(2.5313097 -0.036133343 2.0600688e-22)
(2.5326832 -0.034388566 -3.9134472e-22)
(2.5340613 -0.033014087 2.2024157e-22)
(2.5348944 -0.031804832 4.0493968e-22)
(2.5359382 -0.030823355 1.3914451e-22)
(2.5368188 -0.030222996 3.3637063e-23)
(2.5379477 -0.029590968 -1.0538327e-22)
(2.5392607 -0.029300054 -7.2355638e-22)
(2.5406923 -0.028778843 -6.9727658e-22)
(2.5424774 -0.0283921 -3.9987841e-22)
(2.5441877 -0.027716562 -2.6979307e-22)
(2.5462272 -0.026956899 7.6452604e-23)
(2.5480185 -0.025946334 3.4801696e-23)
(2.5500073 -0.024685443 -1.8657616e-22)
(2.5516786 -0.023350244 -3.1422718e-22)
(2.5534011 -0.021722632 -3.4270036e-22)
(2.5547944 -0.020054067 3.0540673e-22)
(2.5561271 -0.018045875 9.8235313e-22)
(2.5572513 -0.016285174 1.1082879e-22)
(2.5582606 -0.014290343 -4.4572658e-22)
(2.5591073 -0.012252249 -2.1054926e-22)
(2.5598159 -0.0099240978 5.2104312e-22)
(2.5605786 -0.0081345284 5.4053182e-22)
(2.5612303 -0.0062567703 1.1219651e-21)
(2.5619054 -0.0040022897 8.5809339e-22)
(2.5624733 -0.0015547786 -5.5310696e-22)
(2.4927048 -0.026452064 -1.3965013e-23)
(2.4941188 -0.032012253 -2.9618723e-23)
(2.4961533 -0.036857312 1.8214183e-22)
(2.4996803 -0.039483625 4.0989572e-22)
(2.5028782 -0.041591297 4.8414072e-22)
(2.507252 -0.043402441 -2.8603884e-23)
(2.5111698 -0.044770931 2.496289e-22)
(2.5157705 -0.044903656 1.109764e-21)
(2.5197278 -0.044860802 6.9458402e-22)
(2.5236766 -0.043579762 -3.3464074e-22)
(2.5270251 -0.042441952 -1.0499933e-21)
(2.5297407 -0.040305416 -6.4558108e-22)
(2.5320924 -0.038576969 4.4014105e-22)
(2.5334837 -0.036402252 5.0693323e-22)
(2.5348496 -0.034732462 -5.2332223e-23)
(2.5353965 -0.033237691 -8.6605381e-22)
(2.5362029 -0.032069053 -7.0640235e-22)
(2.5366638 -0.031439064 -4.2417936e-23)
(2.5374888 -0.030869938 -1.4679486e-22)
(2.538451 -0.030838061 -7.7678578e-23)
(2.539668 -0.030576317 -6.63657e-22)
(2.5413243 -0.030627476 -1.2003284e-21)
(2.5429976 -0.030295738 -9.2547153e-22)
(2.5451445 -0.029961795 -4.9017731e-22)
(2.547074 -0.029283218 -1.6412657e-22)
(2.5493363 -0.028369413 -2.3898718e-22)
(2.5512321 -0.027232487 -4.5248446e-22)
(2.5532666 -0.025728309 2.8719672e-22)
(2.5549197 -0.024218517 2.6889504e-22)
(2.5565512 -0.022345787 2.6413785e-23)
(2.5578402 -0.020511816 6.6454849e-22)
(2.5590077 -0.01830932 -3.9123441e-22)
(2.5599916 -0.016417077 -9.2654273e-22)
(2.560818 -0.014290049 -1.7426934e-22)
(2.561517 -0.01217249 5.2034078e-22)
(2.5620498 -0.0097828774 1.7862784e-22)
(2.5626921 -0.0079649409 7.2503005e-22)
(2.5632054 -0.0060872241 1.3663576e-21)
(2.5637662 -0.0038626403 3.4881079e-23)
(2.5642078 -0.0014745806 -2.842962e-22)
(2.4907869 -0.026386054 -7.1283815e-23)
(2.4917895 -0.032482291 5.4806138e-22)
(2.4936077 -0.037844151 5.385193e-22)
(2.4972403 -0.040970565 -2.2239836e-22)
(2.5005156 -0.043520742 -1.063531e-23)
(2.5051781 -0.045821866 -4.5026679e-23)
(2.5093863 -0.04760219 -5.3872883e-22)
(2.5145168 -0.048024763 -1.8835354e-22)
(2.5189353 -0.048198396 6.2128554e-22)
(2.5234833 -0.04690273 1.1979283e-21)
(2.5273185 -0.045715125 2.2901319e-22)
(2.5304903 -0.043235784 -1.2032745e-21)
(2.5331833 -0.041210459 -8.2112269e-22)
(2.5346802 -0.038503854 -3.6903044e-23)
(2.536089 -0.036418473 2.1554539e-23)
(2.5363336 -0.034446291 4.2536978e-22)
(2.5368802 -0.032997374 -3.396305e-22)
(2.5368092 -0.032250739 -9.3079314e-22)
(2.5372314 -0.031630784 -3.0500205e-22)
(2.5377022 -0.031827966 -1.3327378e-22)
(2.5385688 -0.031804171 -6.7519844e-23)
(2.5399565 -0.032341381 1.3857993e-22)
(2.5414912 -0.032422961 -3.5894842e-22)
(2.5436742 -0.032643448 -3.1764692e-23)
(2.5456937 -0.032377956 3.9356372e-22)
(2.548226 -0.031898498 -1.3122541e-22)
(2.5503744 -0.031084259 -2.0176323e-22)
(2.5527929 -0.029863559 1.27558e-22)
(2.5547397 -0.028500454 8.3807523e-22)
(2.5567293 -0.026666666 6.745891e-22)
(2.5583019 -0.024925542 4.5045485e-22)
(2.5597674 -0.022777096 5.4253472e-22)
(2.5609035 -0.020757535 -4.6086569e-22)
(2.5618575 -0.018366519 -6.7748755e-22)
(2.5626703 -0.01634712 3.9868469e-23)
(2.5632877 -0.01411136 3.1499457e-22)
(2.5638213 -0.011934476 -1.2107528e-23)
(2.5641656 -0.0095156047 -7.7304345e-22)
(2.564677 -0.0076933067 -1.8652157e-22)
(2.565045 -0.0058438072 9.4198977e-23)
(2.5654858 -0.0036781215 -2.0769716e-22)
(2.5657991 -0.0013785161 3.9193302e-22)
(2.4888648 -0.026187611 -3.4123628e-23)
(2.4894014 -0.032816555 -2.1977637e-22)
(2.4909548 -0.038692492 3.6300113e-22)
(2.4946585 -0.04235093 4.9072375e-22)
(2.4979771 -0.045381354 -2.3073768e-22)
(2.5029101 -0.048234683 -5.504596e-22)
(2.5074015 -0.050486559 -5.9064274e-22)
(2.5130937 -0.051277989 -3.3380072e-22)
(2.5180116 -0.051733474 1.493594e-24)
(2.5232542 -0.05048012 3.3782819e-22)
(2.5276625 -0.049283825 8.8175481e-22)
(2.5314293 -0.046457576 9.168737e-22)
(2.5345839 -0.044107794 -4.2978462e-22)
(2.5363041 -0.040751366 -2.549998e-22)
(2.5378461 -0.038153698 4.9689394e-22)
(2.5378202 -0.035552791 4.6597648e-22)
(2.5380987 -0.03364209 8.5533635e-22)
(2.5373872 -0.032563551 -2.9142594e-23)
(2.5372944 -0.031814039 -5.854208e-22)
(2.5370773 -0.032159157 4.7158139e-22)
(2.5374627 -0.032340333 6.4559076e-22)
(2.5384017 -0.033430756 -6.1387629e-23)
(2.5396603 -0.033959379 1.3144956e-22)
(2.5417678 -0.034856892 7.1066363e-22)
(2.5438051 -0.035117768 1.0352993e-21)
(2.5465886 -0.035234202 1.0512802e-21)
(2.548983 -0.034844732 5.629663e-22)
(2.5518325 -0.033996839 -2.4778028e-22)
(2.5541397 -0.032898472 6.4366724e-23)
(2.5565947 -0.031239916 3.6950954e-22)
(2.5585072 -0.02956514 2.0762889e-22)
(2.5603437 -0.027353416 -2.0271252e-22)
(2.5617642 -0.02534949 -1.2487731e-22)
(2.562991 -0.022929757 -2.0545994e-22)
(2.5639278 -0.020728499 -4.0716325e-22)
(2.5646291 -0.018179215 4.8378183e-22)
(2.5652453 -0.016054506 7.5133519e-22)
(2.565636 -0.013746963 5.06503e-22)
(2.5659918 -0.011540447 -2.0784036e-22)
(2.5661413 -0.0091291899 7.0358611e-22)
(2.5665149 -0.0073295826 9.8298192e-22)
(2.5667345 -0.0055359869 1.5313566e-22)
(2.5670534 -0.0034557396 7.273889e-22)
(2.5672397 -0.0012691586 3.4500334e-22)
(2.4869406 -0.02586187 4.7662559e-22)
(2.4869634 -0.033007977 -6.7694305e-22)
(2.488205 -0.0393952 -8.6463811e-22)
(2.4919418 -0.043616607 2.2082944e-22)
(2.4952673 -0.047157152 3.3994188e-22)
(2.5004455 -0.050621111 6.4686401e-22)
(2.5052022 -0.053404557 3.5579619e-22)
(2.5114744 -0.054648218 -2.5935391e-22)
(2.5169208 -0.055460857 -1.1030383e-23)
(2.5229468 -0.054328193 -4.4149598e-22)
(2.5280132 -0.053178273 -1.2880602e-22)
(2.5325287 -0.050019789 3.6582001e-21)
(2.5362785 -0.047342942 3.7311459e-21)
(2.5383734 -0.043242793 -1.5463959e-21)
(2.5401703 -0.040023355 -1.3965188e-21)
(2.5399254 -0.036577343 -2.0629047e-22)
(2.5399718 -0.034048939 -2.4563629e-22)
(2.5385379 -0.032459447 8.6846082e-22)
(2.5378358 -0.031392509 2.9719505e-23)
(2.536731 -0.031790828 -4.0428127e-22)
(2.5364564 -0.032092753 6.0088997e-22)
(2.536723 -0.033691586 8.8023304e-22)
(2.537531 -0.034750263 2.1044632e-22)
(2.5393925 -0.036462324 -9.0576055e-23)
(2.5413376 -0.037362674 4.5317806e-22)
(2.5443169 -0.038247816 5.916827e-22)
(2.5469347 -0.03842848 6.0045303e-22)
(2.5502609 -0.038123063 9.5159573e-22)
(2.5529709 -0.037393642 1.8814996e-22)
(2.5559859 -0.035980301 4.5896751e-23)
(2.5583395 -0.034468667 3.3508636e-22)
(2.5606785 -0.032294292 1.3376255e-22)
(2.5624534 -0.030258341 -2.5651749e-22)
(2.564028 -0.027669903 -3.323872e-22)
(2.5652265 -0.025405432 -4.1182481e-22)
(2.5661543 -0.022753016 -5.0939992e-22)
(2.5668537 -0.020397721 3.343995e-22)
(2.5672761 -0.01773876 4.7121891e-22)
(2.5676786 -0.015543707 2.3488785e-22)
(2.5678345 -0.013208216 2.2490374e-22)
(2.5680061 -0.011006413 1.0959922e-21)
(2.5679606 -0.0086394065 1.0739287e-21)
(2.5681933 -0.0068891288 2.8791039e-22)
(2.5682651 -0.0051760347 -1.3897479e-21)
(2.5684631 -0.0032036458 -1.7837122e-21)
(2.5685264 -0.0011494504 4.40089e-23)
(2.4850091 -0.025415897 -5.9924687e-23)
(2.4844794 -0.033064923 3.8011566e-22)
(2.4853671 -0.039947981 -7.1474023e-22)
(2.4890991 -0.044752205 -7.6410076e-22)
(2.4923925 -0.048833146 2.6692833e-22)
(2.4977825 -0.052963302 4.7842758e-22)
(2.5027802 -0.056333496 7.7151506e-22)
(2.5096391 -0.058117099 5.8097827e-22)
(2.5156306 -0.059367086 7.4055136e-25)
(2.5225179 -0.058446252 -4.2084118e-22)
(2.5283192 -0.057417748 -8.3498593e-22)
(2.5337448 -0.053973739 -6.7977578e-22)
(2.5382362 -0.050985329 2.9043282e-21)
(2.5408909 -0.046057647 2.9767355e-21)
(2.5430987 -0.042126086 -2.0395795e-21)
(2.5427314 -0.037626805 -1.3216527e-21)
(2.542602 -0.034283216 -1.9417055e-22)
(2.5403774 -0.031928864 -7.2569271e-22)
(2.5390011 -0.03034723 3.2415637e-22)
(2.5367972 -0.030612575 -5.9240573e-22)
(2.5356645 -0.030951334 -1.0087414e-21)
(2.5350078 -0.033106613 -9.5897055e-22)
(2.5351477 -0.034638644 -7.1635228e-22)
(2.5365578 -0.037270694 2.2020892e-22)
(2.5382376 -0.038951465 -6.3437175e-23)
(2.5413146 -0.040803309 -6.5208996e-22)
(2.5440961 -0.0417225 -5.366179e-22)
(2.547922 -0.042154784 -3.4976899e-22)
(2.5510746 -0.041949572 -2.9581426e-23)
(2.5547594 -0.040930191 9.5138763e-23)
(2.5576431 -0.039667399 -4.1139868e-23)
(2.5606139 -0.037563038 4.3365874e-22)
(2.5628686 -0.035559017 2.4416504e-22)
(2.5649317 -0.032860774 1.1746838e-22)
(2.5664645 -0.030461806 5.1067045e-23)
(2.5676844 -0.027546556 -2.0765214e-22)
(2.5686025 -0.02505703 -2.9719215e-22)
(2.5691906 -0.022236407 -1.120599e-22)
(2.5696272 -0.019772741 1.1207732e-23)
(2.5697595 -0.017062151 1.4068586e-22)
(2.5699401 -0.014838517 1.2994044e-22)
(2.5698623 -0.012519327 4.7606708e-23)
(2.5698492 -0.01035653 1.1330513e-23)
(2.5696137 -0.0080665022 -2.5310219e-22)
(2.569706 -0.0063892625 -1.8528489e-21)
(2.5696336 -0.0047766929 -2.5054907e-21)
(2.569714 -0.0029297682 -7.8189894e-22)
(2.5696603 -0.0010223174 4.192456e-23)
(2.4830647 -0.02485914 -8.0713404e-22)
(2.4819491 -0.032983448 -1.8763854e-22)
(2.4824473 -0.040349384 2.3070448e-22)
(2.4861359 -0.04575684 5.0730434e-23)
(2.48936 -0.050396347 1.4866147e-23)
(2.4949245 -0.055237989 -5.851333e-22)
(2.5001307 -0.059248643 -3.9668801e-22)
(2.5075684 -0.061659794 -8.178542e-22)
(2.5141112 -0.063430702 -1.0212009e-21)
(2.5219257 -0.062829381 6.1623214e-22)
(2.5285271 -0.062009958 2.244233e-22)
(2.535027 -0.05835123 -3.0047823e-21)
(2.5404106 -0.055096933 -2.888538e-21)
(2.5438404 -0.049288105 1.7985858e-21)
(2.5466493 -0.044566112 1.8515023e-21)
(2.5463004 -0.038791981 -2.2283563e-22)
(2.5460974 -0.034430913 4.8551538e-22)
(2.5430488 -0.031023992 -4.005903e-22)
(2.5409389 -0.028692043 -9.076643e-22)
(2.5374303 -0.028612516 2.6846806e-22)
(2.5352331 -0.028803881 -5.9775167e-22)
(2.5333372 -0.031412709 -1.0997992e-21)
(2.5325624 -0.033442958 -1.0467625e-21)
(2.5332591 -0.037126511 -9.0695292e-22)
(2.5344628 -0.039679834 -1.7556256e-23)
(2.5374869 -0.042737209 4.1825622e-22)
(2.5403318 -0.044582889 -1.331829e-22)
(2.5446558 -0.045998101 -3.5607597e-22)
(2.5482681 -0.04650774 -1.7677669e-22)
(2.5527308 -0.046064232 -5.3115937e-22)
(2.5562475 -0.04518719 -4.2010375e-22)
(2.5600115 -0.043254747 -3.6967521e-22)
(2.5628697 -0.041332191 7.5671906e-23)
(2.565566 -0.038508454 2.7915966e-22)
(2.5675681 -0.036000009 1.5960179e-22)
(2.5692135 -0.032839872 -1.6827146e-22)
(2.5704141 -0.030123406 -4.1690532e-22)
(2.5712145 -0.026968863 -3.4493886e-22)
(2.5718123 -0.024315231 -1.7004503e-22)
(2.5720428 -0.021404564 3.5960872e-22)
(2.5722053 -0.018887684 4.8756663e-22)
(2.5720506 -0.016184088 3.7867963e-23)
(2.5720099 -0.013974169 -4.1536947e-23)
(2.5717067 -0.011710933 1.1862152e-21)
(2.5715136 -0.0096178349 9.5253682e-22)
(2.5710969 -0.0074314863 5.6476886e-22)
(2.5710519 -0.0058466304 -1.8868742e-23)
(2.5708409 -0.0043496145 1.2722967e-21)
(2.5708095 -0.0026409686 2.0842268e-21)
(2.5706452 -0.00089054807 -1.8812868e-21)
(2.4811164 -0.024203199 6.0085649e-22)
(2.4793818 -0.032780684 -6.416003e-23)
(2.4794578 -0.040601732 5.3411854e-22)
(2.4830599 -0.046617466 2.0387534e-22)
(2.4861784 -0.051836113 3.2784524e-23)
(2.4918733 -0.057431278 2.3609106e-23)
(2.4972515 -0.062124451 -5.4535149e-22)
(2.5052488 -0.065247569 -4.1665095e-22)
(2.512336 -0.06762342 -8.1639181e-22)
(2.521126 -0.067457404 -1.1045881e-21)
(2.5285804 -0.066950155 4.4745828e-22)
(2.5363174 -0.063179472 -1.6528335e-21)
(2.542742 -0.059728348 -4.7425001e-21)
(2.5471886 -0.05301316 -3.137473e-22)
(2.5508208 -0.047451041 4.1743781e-21)
(2.5506803 -0.040183262 3.695029e-22)
(2.5505481 -0.034593189 -1.6153548e-21)
(2.5466776 -0.02981199 6.1692546e-22)
(2.5438082 -0.0264544 -2.2246196e-22)
(2.5387896 -0.025742675 -2.1408829e-21)
(2.5353373 -0.025573847 -1.0429495e-21)
(2.5318698 -0.028536362 6.8516427e-22)
(2.5298707 -0.030988369 2.2910322e-22)
(2.5295152 -0.035800268 3.8927934e-22)
(2.529988 -0.039335774 5.4246736e-22)
(2.5327521 -0.043837926 8.5858517e-23)
(2.5355089 -0.046835539 5.0072272e-22)
(2.5402907 -0.049524178 1.094934e-21)
(2.5443544 -0.050982907 9.0204864e-22)
(2.5496989 -0.051355992 4.6498843e-24)
(2.5539487 -0.051043624 -3.2888096e-22)
(2.5586862 -0.049416008 -1.0035518e-22)
(2.562302 -0.047668207 -4.866575e-23)
(2.5658212 -0.044755739 2.9614198e-23)
(2.5684325 -0.042139999 2.2145139e-22)
(2.5706409 -0.038668905 1.264475e-22)
(2.5722528 -0.035712 -1.8507212e-22)
(2.5733766 -0.032207865 -3.7180254e-22)
(2.5741816 -0.029256512 -3.0276882e-22)
(2.5745318 -0.025971012 -3.3790989e-22)
(2.5747913 -0.023228012 1.6206421e-22)
(2.5746687 -0.020306652 4.0827031e-22)
(2.5745595 -0.017792597 -1.9544654e-23)
(2.5741323 -0.01514814 -2.1818016e-22)
(2.5738782 -0.012989896 9.4402624e-22)
(2.5733633 -0.010814669 8.7960349e-22)
(2.5729983 -0.0088162706 5.105397e-22)
(2.5724114 -0.0067535848 8.0026507e-24)
(2.5722346 -0.0052757392 1.2334778e-21)
(2.5718918 -0.0039047539 1.926383e-21)
(2.5717557 -0.0023430601 -1.8387348e-21)
(2.5714872 -0.00075671202 -1.3385563e-21)
(2.4792095 -0.023461232 1.5576238e-21)
(2.4768078 -0.032452386 8.9911424e-22)
(2.476427 -0.040710951 2.7259927e-22)
(2.4798912 -0.047344466 3.1331341e-22)
(2.4828655 -0.053145289 -3.0821743e-24)
(2.4886386 -0.059518137 8.4345599e-24)
(2.4941457 -0.064935637 -1.3637128e-25)
(2.5026665 -0.068850499 9.4828046e-22)
(2.5102805 -0.071911022 1.0922513e-21)
(2.5200762 -0.072306554 -2.9837055e-21)
(2.5284205 -0.072221878 -3.2886794e-21)
(2.5375498 -0.068464177 2.9881498e-21)
(2.545157 -0.064915493 1.0351613e-21)
(2.5508834 -0.057311101 -1.0993073e-21)
(2.5555899 -0.050886113 3.1585234e-21)
(2.5558968 -0.041912091 1.8973615e-21)
(2.5560262 -0.034884199 -1.743682e-21)
(2.5513837 -0.028379705 -2.4486258e-22)
(2.5477646 -0.023686163 1.8892377e-21)
(2.5410453 -0.022003935 3.724224e-22)
(2.536148 -0.021203132 -1.4386382e-21)
(2.5307478 -0.024340068 -1.5053116e-21)
(2.5272016 -0.027098848 1.2257524e-22)
(2.5254044 -0.033102685 -2.1984377e-22)
(2.5248152 -0.037704139 -6.2164942e-23)
(2.5270474 -0.043902818 3.1335639e-22)
(2.5295046 -0.048277675 -1.230241e-22)
(2.5346547 -0.052575685 -3.4945084e-22)
(2.5391227 -0.055260538 2.0061587e-22)
(2.5454379 -0.056752808 7.3142381e-22)
(2.5505157 -0.057236436 -1.2268485e-22)
(2.5564285 -0.05610387 -6.0130993e-23)
(2.5609736 -0.054663456 1.6005039e-22)
(2.5655422 -0.051718449 1.1910388e-22)
(2.568946 -0.0490269 1.9436282e-22)
(2.5719065 -0.045209257 1.5168629e-22)
(2.574064 -0.041964112 6.0549191e-23)
(2.5756203 -0.038001305 5.1441165e-23)