/*--------------------------------*- C++ -*----------------------------------*\
| =========                 |                                                 |
| \\      /  F ield         | OpenFOAM: The Open Source CFD Toolbox           |
|  \\    /   O peration     | Version:  v2012                                 |
|   \\  /    A nd           | Website:  www.openfoam.com                      |
|    \\/     M anipulation  |                                                 |
\*---------------------------------------------------------------------------*/
FoamFile
{
    version     2.0;
    format      ascii;
    class       volVectorField;
    location    "11.1188619505";
    object      cellDisplacement;
}
// * * * * * * * * * * * * * * * * * * * * * * * * * * * * * * * * * * * * * //

dimensions      [0 1 0 0 0 0 0];


internalField   nonuniform List<vector> 
9200
(
(-0.059926748 0 0)
(-0.06016415 0 0)
(-0.17363375 0 0)
(-0.06055277 0 0)
(-0.1742444 0 0)
(-0.27911519 0 0)
(-0.061026631 0 0)
(-0.17526864 0 0)
(-0.28003576 0 0)
(-0.37676769 0 0)
(-0.061546321 0 0)
(-0.17653896 0 0)
(-0.28158984 0 0)
(-0.37795839 0 0)
(-0.4670539 0 0)
(-0.062083633 0 0)
(-0.17794486 0 0)
(-0.28353279 0 0)
(-0.37997122 0 0)
(-0.46848234 0 0)
(-0.55042562 0 0)
(-0.062619236 0 0)
(-0.17940863 0 0)
(-0.28569873 0 0)
(-0.38250806 0 0)
(-0.47091304 0 0)
(-0.55208034 0 0)
(-0.62734533 0 0)
(-0.063139163 0 0)
(-0.18087341 0 0)
(-0.28796212 0 0)
(-0.38534577 0 0)
(-0.47398616 0 0)
(-0.55489736 0 0)
(-0.62921076 0 0)
(-0.69824031 0 0)
(-0.063634213 0 0)
(-0.1822998 0 0)
(-0.29023464 0 0)
(-0.38832222 0 0)
(-0.47743572 0 0)
(-0.55846827 0 0)
(-0.63239381 0 0)
(-0.70031302 0 0)
(-0.76353608 0 0)
(-0.064098466 0 0)
(-0.18366094 0 0)
(-0.29245204 0 0)
(-0.39131692 0 0)
(-0.48106489 0 0)
(-0.56249395 0 0)
(-0.63644658 0 0)
(-0.7038551 0 0)
(-0.76580848 0 0)
(-0.82361692 0 0)
(-0.064528577 0 0)
(-0.18493937 0 0)
(-0.29457186 0 0)
(-0.39424578 0 0)
(-0.48472418 0 0)
(-0.56673397 0 0)
(-0.64101461 0 0)
(-0.70836446 0 0)
(-0.76969691 0 0)
(-0.82608911 0 0)
(-0.87886269 0 0)
(-0.064923173 0 0)
(-0.18612566 0 0)
(-0.29656546 0 0)
(-0.39704882 0 0)
(-0.48830903 0 0)
(-0.57101986 0 0)
(-0.64584172 0 0)
(-0.71346675 0 0)
(-0.77466428 0 0)
(-0.83032431 0 0)
(-0.88153002 0 0)
(-0.92961145 0 0)
(-0.065282154 0 0)
(-0.18721472 0 0)
(-0.29841719 0 0)
(-0.39968958 0 0)
(-0.49174535 0 0)
(-0.57522328 0 0)
(-0.65072726 0 0)
(-0.71886436 0 0)
(-0.78028573 0 0)
(-0.83573503 0 0)
(-0.88610482 0 0)
(-0.9324758 0 0)
(-0.97619677 0 0)
(-0.06560648 0 0)
(-0.18820678 0 0)
(-0.30011904 0 0)
(-0.40214371 0 0)
(-0.49498586 0 0)
(-0.57925985 0 0)
(-0.65552776 0 0)
(-0.72433342 0 0)
(-0.78623937 0 0)
(-0.84187284 0 0)
(-0.89196507 0 0)
(-0.93739327 0 0)
(-0.97925485 0 0)
(-1.0189123 0 0)
(-0.065897768 0 0)
(-0.18910338 0 0)
(-0.30167007 0 0)
(-0.40440249 0 0)
(-0.49800148 0 0)
(-0.58306913 0 0)
(-0.66014164 0 0)
(-0.72971693 0 0)
(-0.79228751 0 0)
(-0.84838459 0 0)
(-0.89861419 0 0)
(-0.94369391 0 0)
(-0.98451159 0 0)
(-1.0221669 0 0)
(-1.0580487 0 0)
(-0.066158026 0 0)
(-0.1899096 0 0)
(-0.30307337 0 0)
(-0.40646146 0 0)
(-0.50077844 0 0)
(-0.58661948 0 0)
(-0.66450315 0 0)
(-0.73489747 0 0)
(-0.79824576 0 0)
(-0.85500479 0 0)
(-0.90567931 0 0)
(-0.95086044 0 0)
(-0.99126204 0 0)
(-1.0277659 0 0)
(-1.0614969 0 0)
(-1.0938597 0 0)
(-0.066389564 0 0)
(-0.19063004 0 0)
(-0.30433532 0 0)
(-0.4083268 0 0)
(-0.50331315 0 0)
(-0.58989011 0 0)
(-0.66856969 0 0)
(-0.73980052 0 0)
(-0.80398944 0 0)
(-0.86153608 0 0)
(-0.91286904 0 0)
(-0.95847943 0 0)
(-0.99894128 0 0)
(-1.0349592 0 0)
(-1.067436 0 0)
(-1.0975035 0 0)
(-1.1265974 0 0)
(-0.066594694 0 0)
(-0.1912717 0 0)
(-0.30546435 0 0)
(-0.41000422 0 0)
(-0.50560972 0 0)
(-0.59287955 0 0)
(-0.67232214 0 0)
(-0.74437729 0 0)
(-0.80942998 0 0)
(-0.86784158 0 0)
(-0.9199801 0 0)
(-0.96625192 0 0)
(-1.0071228 0 0)
(-1.0431611 0 0)
(-1.0750808 0 0)
(-1.1037845 0 0)
(-1.1304338 0 0)
(-1.1564804 0 0)
(-0.066775888 0 0)
(-0.19184026 0 0)
(-0.30646975 0 0)
(-0.41150688 0 0)
(-0.5076779 0 0)
(-0.59558855 0 0)
(-0.67575168 0 0)
(-0.74860402 0 0)
(-0.81451638 0 0)
(-0.87382244 0 0)
(-0.92684885 0 0)
(-0.97393699 0 0)
(-1.0154695 0 0)
(-1.0519041 0 0)
(-1.0838005 0 0)
(-1.1118744 0 0)
(-1.1370546 0 0)
(-1.1605107 0 0)
(-1.1837274 0 0)
(-0.066935374 0 0)
(-0.19234301 0 0)
(-0.30736178 0 0)
(-0.41284473 0 0)
(-0.50953005 0 0)
(-0.59803127 0 0)
(-0.67886493 0 0)
(-0.75247134 0 0)
(-0.81921642 0 0)
(-0.87941928 0 0)
(-0.93337523 0 0)
(-0.9813774 0 0)
(-1.0237435 0 0)
(-1.060842 0 0)
(-1.0931127 0 0)
(-1.1211208 0 0)
(-1.145596 0 0)
(-1.1674711 0 0)
(-1.187948 0 0)
(-1.2085266 0 0)
(-0.067075463 0 0)
(-0.19278561 0 0)
(-0.30815021 0 0)
(-0.41403318 0 0)
(-0.51118169 0 0)
(-0.60021881 0 0)
(-0.68167064 0 0)
(-0.75598359 0 0)
(-0.82352305 0 0)
(-0.88459797 0 0)
(-0.93948783 0 0)
(-0.98845385 0 0)
(-1.0317612 0 0)
(-1.0697051 0 0)
(-1.1026369 0 0)
(-1.1310015 0 0)
(-1.1553626 0 0)
(-1.1764568 0 0)
(-1.195245 0 0)
(-1.2129377 0 0)
(-1.2310674 0 0)
(-0.067198134 0 0)
(-0.19317481 0 0)
(-0.30884533 0 0)
(-0.4150833 0 0)
(-0.51264786 0 0)
(-0.60217181 0 0)
(-0.68418803 0 0)
(-0.75915265 0 0)
(-0.82743558 0 0)
(-0.88934596 0 0)
(-0.94515165 0 0)
(-0.9950918 0 0)
(-1.0393943 0 0)
(-1.0783011 0 0)
(-1.1120968 0 0)
(-1.1411253 0 0)
(-1.1658172 0 0)
(-1.1867508 0 0)
(-1.2046788 0 0)
(-1.2205689 0 0)
(-1.2356648 0 0)
(-1.251512 0 0)
(-0.067305415 0 0)
(-0.19351572 0 0)
(-0.30945617 0 0)
(-0.41601017 0 0)
(-0.51394568 0 0)
(-0.60390535 0 0)
(-0.68643341 0 0)
(-0.76199625 0 0)
(-0.83097061 0 0)
(-0.8936653 0 0)
(-0.95034794 0 0)
(-1.0012473 0 0)
(-1.0465654 0 0)
(-1.0865023 0 0)
(-1.1212855 0 0)
(-1.1511857 0 0)
(-1.1765359 0 0)
(-1.1977783 0 0)
(-1.2154919 0 0)
(-1.2304426 0 0)
(-1.2436265 0 0)
(-1.2562948 0 0)
(-1.2700243 0 0)
(-0.067398978 0 0)
(-0.19381418 0 0)
(-0.30999202 0 0)
(-0.41682432 0 0)
(-0.51508994 0 0)
(-0.60544138 0 0)
(-0.68843056 0 0)
(-0.76453586 0 0)
(-0.83414302 0 0)
(-0.8975687 0 0)
(-0.95508099 0 0)
(-1.0069031 0 0)
(-1.0532232 0 0)
(-1.0942137 0 0)
(-1.1300583 0 0)
(-1.1609691 0 0)
(-1.1872067 0 0)
(-1.2091032 0 0)
(-1.2270942 0 0)
(-1.2417793 0 0)
(-1.2539408 0 0)
(-1.2645826 0 0)
(-1.2749879 0 0)
(-1.2867442 0 0)
(-0.067480507 0 0)
(-0.19407458 0 0)
(-0.31046075 0 0)
(-0.41753927 0 0)
(-0.516097 0 0)
(-0.60679551 0 0)
(-0.69019793 0 0)
(-0.76679403 0 0)
(-0.83697987 0 0)
(-0.90107665 0 0)
(-0.95936034 0 0)
(-1.0120571 0 0)
(-1.0593475 0 0)
(-1.1013844 0 0)
(-1.1383194 0 0)
(-1.1703209 0 0)
(-1.1975928 0 0)
(-1.2203837 0 0)
(-1.2390187 0 0)
(-1.2539533 0 0)
(-1.2657903 0 0)
(-1.2753279 0 0)
(-1.2835968 0 0)
(-1.2918864 0 0)
(-1.3018133 0 0)
(-0.067551383 0 0)
(-0.19430174 0 0)
(-0.31087033 0 0)
(-0.41816433 0 0)
(-0.51698008 0 0)
(-0.60798818 0 0)
(-0.69175944 0 0)
(-0.76879531 0 0)
(-0.83950236 0 0)
(-0.90421326 0 0)
(-0.96321058 0 0)
(-1.0167241 0 0)
(-1.0649349 0 0)
(-1.1079867 0 0)
(-1.1460107 0 0)
(-1.1791406 0 0)
(-1.2075323 0 0)
(-1.2313769 0 0)
(-1.2509182 0 0)
(-1.266486 0 0)
(-1.2785346 0 0)
(-1.287692 0 0)
(-1.2947709 0 0)
(-1.3008104 0 0)
(-1.3071293 0 0)
(-1.3153524 0 0)
(-0.067612967 0 0)
(-0.19449932 0 0)
(-0.31122728 0 0)
(-0.41871092 0 0)
(-0.51775364 0 0)
(-0.6090339 0 0)
(-0.69313277 0 0)
(-0.77056228 0 0)
(-0.84174036 0 0)
(-0.90700639 0 0)
(-0.96665423 0 0)
(-1.0209235 0 0)
(-1.0699984 0 0)
(-1.1140186 0 0)
(-1.1531024 0 0)
(-1.187363 0 0)
(-1.2169188 0 0)
(-1.2419127 0 0)
(-1.2625274 0 0)
(-1.2790004 0 0)
(-1.2916662 0 0)
(-1.3010015 0 0)
(-1.3076366 0 0)
(-1.3124027 0 0)
(-1.3163622 0 0)
(-1.3208391 0 0)
(-1.3274838 0 0)
(-0.067666367 0 0)
(-0.19467117 0 0)
(-0.31153816 0 0)
(-0.41918698 0 0)
(-0.51842896 0 0)
(-0.60995048 0 0)
(-0.69433962 0 0)
(-0.77211881 0 0)
(-0.84371618 0 0)
(-0.90948348 0 0)
(-0.9697241 0 0)
(-1.0246854 0 0)
(-1.0745599 0 0)
(-1.1194891 0 0)
(-1.1595877 0 0)
(-1.1949538 0 0)
(-1.2256787 0 0)
(-1.2518675 0 0)
(-1.2736598 0 0)
(-1.2912254 0 0)
(-1.3048021 0 0)
(-1.3147362 0 0)
(-1.3215061 0 0)
(-1.3257687 0 0)
(-1.3283678 0 0)
(-1.3303734 0 0)
(-1.3331361 0 0)
(-1.3383118 0 0)
(-0.067712624 0 0)
(-0.19482025 0 0)
(-0.31180828 0 0)
(-0.41960182 0 0)
(-0.51901827 0 0)
(-0.61075058 0 0)
(-0.69539574 0 0)
(-0.77348528 0 0)
(-0.84545818 0 0)
(-0.91167376 0 0)
(-0.9724471 0 0)
(-1.0280382 0 0)
(-1.0786484 0 0)
(-1.1244236 0 0)
(-1.1654771 0 0)
(-1.2019041 0 0)
(-1.2337801 0 0)
(-1.2611809 0 0)
(-1.2842046 0 0)
(-1.3029716 0 0)
(-1.3176505 0 0)
(-1.328486 0 0)
(-1.3358324 0 0)
(-1.3401906 0 0)
(-1.3422192 0 0)
(-1.3427807 0 0)
(-1.3429648 0 0)
(-1.3441258 0 0)
(-1.3479422 0 0)
(-0.067750338 0 0)
(-0.19494952 0 0)
(-0.3120429 0 0)
(-0.41996201 0 0)
(-0.51953085 0 0)
(-0.61144904 0 0)
(-0.69631975 0 0)
(-0.77468307 0 0)
(-0.84698729 0 0)
(-0.91360364 0 0)
(-0.97485725 0 0)
(-1.0310171 0 0)
(-1.0822965 0 0)
(-1.1288488 0 0)
(-1.1707927 0 0)
(-1.2082225 0 0)
(-1.2412058 0 0)
(-1.2697986 0 0)
(-1.2940659 0 0)
(-1.3140935 0 0)
(-1.3300009 0 0)
(-1.3419519 0 0)
(-1.3501992 0 0)
(-1.3551089 0 0)
(-1.3571849 0 0)
(-1.3571135 0 0)
(-1.3557665 0 0)
(-1.3542403 0 0)
(-1.3539125 0 0)
(-1.3564649 0 0)
(-0.067499515 0 0)
(-0.19505529 0 0)
(-0.31224612 0 0)
(-0.4202749 0 0)
(-0.51997661 0 0)
(-0.61205648 0 0)
(-0.697125 0 0)
(-0.77572969 0 0)
(-0.84832854 0 0)
(-0.91530032 0 0)
(-0.976981 0 0)
(-1.0336522 0 0)
(-1.0855386 0 0)
(-1.1328023 0 0)
(-1.1755656 0 0)
(-1.2139308 0 0)
(-1.2479649 0 0)
(-1.2777115 0 0)
(-1.3032123 0 0)
(-1.3245233 0 0)
(-1.341724 0 0)
(-1.3549202 0 0)
(-1.3642855 0 0)
(-1.3700807 0 0)
(-1.3726815 0 0)
(-1.3726137 0 0)
(-1.3705642 0 0)
(-1.3674242 0 0)
(-1.3643051 0 0)
(-1.362587 0 0)
(-1.3639716 0 0)
(-0.067193179 0 0)
(-0.19452818 0 0)
(-0.31241303 0 0)
(-0.42054568 0 0)
(-0.52036302 0 0)
(-0.61258481 0 0)
(-0.69782677 0 0)
(-0.7766433 0 0)
(-0.84950028 0 0)
(-0.91678725 0 0)
(-0.97884986 0 0)
(-1.0359784 0 0)
(-1.0884099 0 0)
(-1.136317 0 0)
(-1.179831 0 0)
(-1.219061 0 0)
(-1.2540772 0 0)
(-1.28492 0 0)
(-1.3116177 0 0)
(-1.3342008 0 0)
(-1.3527154 0 0)
(-1.367231 0 0)
(-1.3778618 0 0)
(-1.3847799 0 0)
(-1.3882585 0 0)
(-1.3886849 0 0)
(-1.3865875 0 0)
(-1.3826806 0 0)
(-1.3778621 0 0)
(-1.3732483 0 0)
(-1.3702399 0 0)
(-1.3705398 0 0)
(-0.06691426 0 0)
(-0.19360969 0 0)
(-0.31164227 0 0)
(-0.42076836 0 0)
(-0.52069788 0 0)
(-0.61304271 0 0)
(-0.69843613 0 0)
(-0.77743836 0 0)
(-0.85052351 0 0)
(-0.91808826 0 0)
(-0.98048772 0 0)
(-1.0380235 0 0)
(-1.0909444 0 0)
(-1.1394336 0 0)
(-1.1836279 0 0)
(-1.2236489 0 0)
(-1.2595752 0 0)
(-1.2914473 0 0)
(-1.3192867 0 0)
(-1.343107 0 0)
(-1.362928 0 0)
(-1.3787949 0 0)
(-1.3907761 0 0)
(-1.3989716 0 0)
(-1.4035698 0 0)
(-1.4048522 0 0)
(-1.4032177 0 0)
(-1.3992154 0 0)
(-1.3935594 0 0)
(-1.3871657 0 0)
(-1.3811615 0 0)
(-1.3769494 0 0)
(-1.376249 0 0)
(-0.066666411 0 0)
(-0.19277397 0 0)
(-0.31018341 0 0)
(-0.41978448 0 0)
(-0.52097292 0 0)
(-0.61343945 0 0)
(-0.69896531 0 0)
(-0.77812974 0 0)
(-0.85141372 0 0)
(-0.91922317 0 0)
(-0.98192191 0 0)
(-1.0398191 0 0)
(-1.0931755 0 0)
(-1.1421852 0 0)
(-1.1869947 0 0)
(-1.2277359 0 0)
(-1.2644964 0 0)
(-1.2973227 0 0)
(-1.3262364 0 0)
(-1.3512425 0 0)
(-1.3723415 0 0)
(-1.3895515 0 0)
(-1.4029099 0 0)
(-1.4124747 0 0)
(-1.4183634 0 0)
(-1.4207643 0 0)
(-1.4199727 0 0)
(-1.4163976 0 0)
(-1.410592 0 0)
(-1.4032958 0 0)
(-1.3954288 0 0)
(-1.3881215 0 0)
(-1.3827942 0 0)
(-1.3811661 0 0)
(-0.066451601 0 0)
(-0.19203202 0 0)
(-0.30885548 0 0)
(-0.41785077 0 0)
(-0.51980445 0 0)
(-0.6137656 0 0)
(-0.69942285 0 0)
(-0.77872904 0 0)
(-0.85218788 0 0)
(-0.92021189 0 0)
(-0.98317297 0 0)
(-1.0413898 0 0)
(-1.0951336 0 0)
(-1.1446105 0 0)
(-1.1899712 0 0)
(-1.2313621 0 0)
(-1.2688832 0 0)
(-1.3025875 0 0)
(-1.3325002 0 0)
(-1.3586252 0 0)
(-1.3809513 0 0)
(-1.3994748 0 0)
(-1.4142096 0 0)
(-1.425188 0 0)
(-1.4324693 0 0)
(-1.4361639 0 0)
(-1.436481 0 0)
(-1.4337224 0 0)
(-1.4283095 0 0)
(-1.4208133 0 0)
(-1.4119732 0 0)
(-1.4027253 0 0)
(-1.3942078 0 0)
(-1.3878415 0 0)
(-1.3853599 0 0)
(-0.06627158 0 0)
(-0.19138949 0 0)
(-0.3076767 0 0)
(-0.41609022 0 0)
(-0.51745459 0 0)
(-0.61243856 0 0)
(-0.69980036 0 0)
(-0.77924804 0 0)
(-0.8528586 0 0)
(-0.9210707 0 0)
(-0.98426356 0 0)
(-1.0427623 0 0)
(-1.0968484 0 0)
(-1.1467392 0 0)
(-1.1925939 0 0)
(-1.23457 0 0)
(-1.2727785 0 0)
(-1.3072829 0 0)
(-1.3381162 0 0)
(-1.3652852 0 0)
(-1.3887738 0 0)
(-1.4085632 0 0)
(-1.4246451 0 0)
(-1.4370327 0 0)
(-1.4457511 0 0)
(-1.4508532 0 0)
(-1.4524718 0 0)
(-1.4508138 0 0)
(-1.4461985 0 0)
(-1.439056 0 0)
(-1.4299602 0 0)
(-1.4196747 0 0)
(-1.4091368 0 0)
(-1.3994867 0 0)
(-1.3921599 0 0)
(-1.3888881 0 0)
(-0.06612778 0 0)
(-0.19085135 0 0)
(-0.30665601 0 0)
(-0.41452745 0 0)
(-0.51531513 0 0)
(-0.6097257 0 0)
(-0.69833832 0 0)
(-0.77967598 0 0)
(-0.8534393 0 0)
(-0.92181584 0 0)
(-0.98521081 0 0)
(-1.0439574 0 0)
(-1.098346 0 0)
(-1.148606 0 0)
(-1.1948994 0 0)
(-1.2373979 0 0)
(-1.2762259 0 0)
(-1.3114567 0 0)
(-1.3431306 0 0)
(-1.3712634 0 0)
(-1.3958389 0 0)
(-1.4168313 0 0)
(-1.4342169 0 0)
(-1.4479856 0 0)
(-1.4581429 0 0)
(-1.4647122 0 0)
(-1.4677543 0 0)
(-1.4673952 0 0)
(-1.4638656 0 0)
(-1.4574894 0 0)
(-1.4487101 0 0)
(-1.438117 0 0)
(-1.426472 0 0)
(-1.4147272 0 0)
(-1.4040273 0 0)
(-1.3958073 0 0)
(-1.39181 0 0)
(-0.066021437 0 0)
(-0.19042173 0 0)
(-0.30580127 0 0)
(-0.41317428 0 0)
(-0.51341583 0 0)
(-0.6072556 0 0)
(-0.69531034 0 0)
(-0.7781007 0 0)
(-0.85391855 0 0)
(-0.92245971 0 0)
(-0.98603292 0 0)
(-1.044997 0 0)
(-1.0996516 0 0)
(-1.1502363 0 0)
(-1.1969197 0 0)
(-1.2398849 0 0)
(-1.2792673 0 0)
(-1.3151516 0 0)
(-1.347589 0 0)
(-1.3766051 0 0)
(-1.4021876 0 0)
(-1.4243091 0 0)
(-1.442937 0 0)
(-1.4580417 0 0)
(-1.4696125 0 0)
(-1.4776532 0 0)
(-1.4821778 0 0)
(-1.4832498 0 0)
(-1.4810205 0 0)
(-1.4757164 0 0)
(-1.4676804 0 0)
(-1.4573618 0 0)
(-1.4453531 0 0)
(-1.432438 0 0)
(-1.4195674 0 0)
(-1.4078868 0 0)
(-1.3988429 0 0)
(-1.3941754 0 0)
(-0.06595333 0 0)
(-0.19010401 0 0)
(-0.30511892 0 0)
(-0.41204101 0 0)
(-0.51177134 0 0)
(-0.60506271 0 0)
(-0.69255265 0 0)
(-0.77479869 0 0)
(-0.85224887 0 0)
(-0.92299298 0 0)
(-0.9867431 0 0)
(-1.045898 0 0)
(-1.1007865 0 0)
(-1.1516593 0 0)
(-1.1986868 0 0)
(-1.2420653 0 0)
(-1.2819429 0 0)
(-1.3184148 0 0)
(-1.3515404 0 0)
(-1.3813593 0 0)
(-1.4078659 0 0)
(-1.4310353 0 0)
(-1.4508335 0 0)
(-1.4672174 0 0)
(-1.4801529 0 0)
(-1.4896358 0 0)
(-1.4956614 0 0)
(-1.4982429 0 0)
(-1.4974538 0 0)
(-1.4934408 0 0)
(-1.4864567 0 0)
(-1.4768471 0 0)
(-1.4650744 0 0)
(-1.4517428 0 0)
(-1.4376344 0 0)
(-1.4237125 0 0)
(-1.4111252 0 0)
(-1.4013167 0 0)
(-1.3960352 0 0)
(-0.065923963 0 0)
(-0.18990051 0 0)
(-0.30461416 0 0)
(-0.4111363 0 0)
(-0.510394 0 0)
(-0.60316404 0 0)
(-0.69010472 0 0)
(-0.77179176 0 0)
(-0.84871043 0 0)
(-0.92124721 0 0)
(-0.98733264 0 0)
(-1.0466781 0 0)
(-1.1017717 0 0)
(-1.152896 0 0)
(-1.2002276 0 0)
(-1.243973 0 0)
(-1.2842901 0 0)
(-1.3212857 0 0)
(-1.3550296 0 0)
(-1.385575 0 0)
(-1.4129247 0 0)
(-1.4370584 0 0)
(-1.4579458 0 0)
(-1.4755371 0 0)
(-1.4897841 0 0)
(-1.5006636 0 0)
(-1.5081634 0 0)
(-1.5122713 0 0)
(-1.5129993 0 0)
(-1.5104296 0 0)
(-1.504733 0 0)
(-1.496156 0 0)
(-1.4850649 0 0)
(-1.4719263 0 0)
(-1.4573455 0 0)
(-1.442125 0 0)
(-1.4272245 0 0)
(-1.4137918 0 0)
(-1.4032796 0 0)
(-1.3974322 0 0)
(-0.18981271 0 0)
(-0.065924624 0 0)
(-0.30429093 0 0)
(-0.41046701 0 0)
(-0.5092944 0 0)
(-0.60157385 0 0)
(-0.687985 0 0)
(-0.76912221 0 0)
(-0.84548812 0 0)
(-0.9175078 0 0)
(-0.98552816 0 0)
(-1.0473254 0 0)
(-1.1026232 0 0)
(-1.1539707 0 0)
(-1.2015688 0 0)
(-1.2456368 0 0)
(-1.2863439 0 0)
(-1.323807 0 0)
(-1.3581028 0 0)
(-1.3893008 0 0)
(-1.4174137 0 0)
(-1.4424282 0 0)
(-1.4643207 0 0)
(-1.483043 0 0)
(-1.4985334 0 0)
(-1.5107492 0 0)
(-1.5196742 0 0)
(-1.5252887 0 0)
(-1.5275659 0 0)
(-1.5265317 0 0)
(-1.5222799 0 0)
(-1.5149764 0 0)
(-1.5048938 0 0)
(-1.4923995 0 0)
(-1.4779725 0 0)
(-1.462227 0 0)
(-1.4459631 0 0)
(-1.4301508 0 0)
(-1.4159386 0 0)
(-1.4047746 0 0)
(-1.3984101 0 0)
(-0.30415128 0 0)
(-0.18981465 0 0)
(-0.065955403 0 0)
(-0.41003841 0 0)
(-0.50848101 0 0)
(-0.60030437 0 0)
(-0.68620985 0 0)
(-0.76681073 0 0)
(-0.84262726 0 0)
(-0.91410169 0 0)
(-0.98161874 0 0)
(-1.0454783 0 0)
(-1.1033331 0 0)
(-1.1548989 0 0)
(-1.202732 0 0)
(-1.2470853 0 0)
(-1.2881363 0 0)
(-1.326013 0 0)
(-1.3608005 0 0)
(-1.3925834 0 0)
(-1.421385 0 0)
(-1.4471984 0 0)
(-1.4700107 0 0)
(-1.4897773 0 0)
(-1.5064343 0 0)
(-1.5199246 0 0)
(-1.5302129 0 0)
(-1.5372846 0 0)
(-1.5411012 0 0)
(-1.5416352 0 0)
(-1.538919 0 0)
(-1.5330579 0 0)
(-1.5242395 0 0)
(-1.5127301 0 0)
(-1.4989174 0 0)
(-1.4832819 0 0)
(-1.466438 0 0)
(-1.4492046 0 0)
(-1.4325453 0 0)
(-1.4176078 0 0)
(-1.4058457 0 0)
(-1.3990054 0 0)
(-0.40985297 0 0)
(-0.3041543 0 0)
(-0.18990652 0 0)
(-0.066024823 0 0)
(-0.50795991 0 0)
(-0.59936538 0 0)
(-0.68479272 0 0)
(-0.76487486 0 0)
(-0.84015004 0 0)
(-0.91107787 0 0)
(-0.97805746 0 0)
(-1.0414257 0 0)
(-1.1014558 0 0)
(-1.1556744 0 0)
(-1.2037389 0 0)
(-1.2483413 0 0)
(-1.2896963 0 0)
(-1.3279401 0 0)
(-1.3631635 0 0)
(-1.3954671 0 0)
(-1.4248858 0 0)
(-1.4514204 0 0)
(-1.4750688 0 0)
(-1.4957956 0 0)
(-1.5135361 0 0)
(-1.5282243 0 0)
(-1.5398157 0 0)
(-1.5482859 0 0)
(-1.5535914 0 0)
(-1.5556851 0 0)
(-1.5545496 0 0)
(-1.5502353 0 0)
(-1.5428545 0 0)
(-1.5325905 0 0)
(-1.519735 0 0)
(-1.504675 0 0)
(-1.4879022 0 0)
(-1.4700367 0 0)
(-1.4518952 0 0)
(-1.4344491 0 0)
(-1.4188443 0 0)
(-1.4065294 0 0)
(-1.399256 0 0)
(-0.50773462 0 0)
(-0.40985673 0 0)
(-0.30429988 0 0)
(-0.19011386 0 0)
(-0.066132555 0 0)
(-0.59876389 0 0)
(-0.68374446 0 0)
(-0.76332946 0 0)
(-0.83807538 0 0)
(-0.90845929 0 0)
(-0.97489598 0 0)
(-1.0377353 0 0)
(-1.0972861 0 0)
(-1.1537798 0 0)
(-1.2045795 0 0)
(-1.2494287 0 0)
(-1.2910507 0 0)
(-1.3296169 0 0)
(-1.3652262 0 0)
(-1.3979933 0 0)
(-1.4279643 0 0)
(-1.4551457 0 0)
(-1.4795498 0 0)
(-1.5011503 0 0)
(-1.5198873 0 0)
(-1.5356953 0 0)
(-1.5485171 0 0)
(-1.5583101 0 0)
(-1.5650398 0 0)
(-1.5686596 0 0)
(-1.5691112 0 0)
(-1.5663886 0 0)
(-1.5605482 0 0)
(-1.5517152 0 0)
(-1.5400912 0 0)
(-1.5259608 0 0)
(-1.5097314 0 0)
(-1.4918938 0 0)
(-1.4730667 0 0)
(-1.454084 0 0)
(-1.4359085 0 0)
(-1.4196845 0 0)
(-1.4068636 0 0)
(-1.3991928 0 0)
(-0.59850402 0 0)
(-0.50773877 0 0)
(-0.4100493 0 0)
(-0.30462912 0 0)
(-0.1904356 0 0)
(-0.066277632 0 0)
(-0.6830733 0 0)
(-0.7621865 0 0)
(-0.83641912 0 0)
(-0.90626619 0 0)
(-0.97215804 0 0)
(-1.0344585 0 0)
(-1.0934883 0 0)
(-1.1495143 0 0)
(-1.2026802 0 0)
(-1.2503369 0 0)
(-1.2922209 0 0)
(-1.3310738 0 0)
(-1.3670233 0 0)
(-1.4002001 0 0)
(-1.4306618 0 0)
(-1.4584221 0 0)
(-1.4835055 0 0)
(-1.5058985 0 0)
(-1.5255468 0 0)
(-1.5423852 0 0)
(-1.5563568 0 0)
(-1.5674097 0 0)
(-1.5754992 0 0)
(-1.5805783 0 0)
(-1.5825777 0 0)
(-1.5814542 0 0)
(-1.5772117 0 0)
(-1.5699237 0 0)
(-1.5597203 0 0)
(-1.5467995 0 0)
(-1.5314696 0 0)
(-1.5141356 0 0)
(-1.4952978 0 0)
(-1.4755792 0 0)
(-1.4558103 0 0)
(-1.4369591 0 0)
(-1.4201669 0 0)
(-1.4068797 0 0)
(-1.3988485 0 0)
(-0.6827832 0 0)
(-0.59850891 0 0)
(-0.50797273 0 0)
(-0.41048544 0 0)
(-0.30513975 0 0)
(-0.19086898 0 0)
(-0.066459 0 0)
(-0.76145456 0 0)
(-0.83519435 0 0)
(-0.90451554 0 0)
(-0.96986494 0 0)
(-1.0316213 0 0)
(-1.0901171 0 0)
(-1.145629 0 0)
(-1.1983389 0 0)
(-1.2484433 0 0)
(-1.2932026 0 0)
(-1.3323315 0 0)
(-1.3685821 0 0)
(-1.4021225 0 0)
(-1.4330206 0 0)
(-1.4612958 0 0)
(-1.4869871 0 0)
(-1.5100936 0 0)
(-1.5305685 0 0)
(-1.5483526 0 0)
(-1.5633908 0 0)
(-1.5756239 0 0)
(-1.5849962 0 0)
(-1.5914585 0 0)
(-1.5949484 0 0)
(-1.5954027 0 0)
(-1.5927769 0 0)
(-1.5870902 0 0)
(-1.5784201 0 0)
(-1.5669097 0 0)
(-1.5527711 0 0)
(-1.5363067 0 0)
(-1.5179398 0 0)
(-1.4981676 0 0)
(-1.4776117 0 0)
(-1.4571169 0 0)
(-1.4376409 0 0)
(-1.4203227 0 0)
(-1.4066102 0 0)
(-1.3982492 0 0)
(-0.76113866 0 0)
(-0.6827889 0 0)
(-0.598779 0 0)
(-0.50850211 0 0)
(-0.41116182 0 0)
(-0.30582806 0 0)
(-0.19141104 0 0)
(-0.066675043 0 0)
(-0.83440993 0 0)
(-0.90322061 0 0)
(-0.9680345 0 0)
(-1.0292451 0 0)
(-1.0871979 0 0)
(-1.1421806 0 0)
(-1.1943862 0 0)
(-1.2440456 0 0)
(-1.2913225 0 0)
(-1.3333889 0 0)
(-1.3699323 0 0)
(-1.4037925 0 0)
(-1.4350754 0 0)
(-1.4638082 0 0)
(-1.4900417 0 0)
(-1.5137883 0 0)
(-1.5350105 0 0)
(-1.5536531 0 0)
(-1.5696685 0 0)
(-1.583001 0 0)
(-1.5935839 0 0)
(-1.6013537 0 0)
(-1.6062607 0 0)
(-1.608239 0 0)
(-1.6072074 0 0)
(-1.6031438 0 0)
(-1.596075 0 0)
(-1.5860964 0 0)
(-1.5733537 0 0)
(-1.5580562 0 0)
(-1.5405271 0 0)
(-1.5211862 0 0)
(-1.5005389 0 0)
(-1.4792093 0 0)
(-1.4580376 0 0)
(-1.4379844 0 0)
(-1.4201851 0 0)
(-1.4060817 0 0)
(-1.3974231 0 0)
(-0.83407172 0 0)
(-0.76114444 0 0)
(-0.68308974 0 0)
(-0.59939029 0 0)
(-0.50932418 0 0)
(-0.41207402 0 0)
(-0.30668856 0 0)
(-0.19205719 0 0)
(-0.066924171 0 0)
(-0.90239188 0 0)
(-0.96668061 0 0)
(-1.0273484 0 0)
(-1.0847534 0 0)
(-1.1391945 0 0)
(-1.190877 0 0)
(-1.2400427 0 0)
(-1.2868869 0 0)
(-1.3315314 0 0)
(-1.3710654 0 0)
(-1.4052366 0 0)
(-1.4368618 0 0)
(-1.465999 0 0)
(-1.4927137 0 0)
(-1.5170321 0 0)
(-1.5389253 0 0)
(-1.5583454 0 0)
(-1.5752535 0 0)
(-1.5895969 0 0)
(-1.6013067 0 0)
(-1.6103121 0 0)
(-1.6165558 0 0)
(-1.6199757 0 0)
(-1.6204907 0 0)
(-1.6180431 0 0)
(-1.6126091 0 0)
(-1.6042295 0 0)
(-1.5930027 0 0)
(-1.5790881 0 0)
(-1.5627048 0 0)
(-1.5441705 0 0)
(-1.5239214 0 0)
(-1.5024588 0 0)
(-1.4804044 0 0)
(-1.4586096 0 0)
(-1.4380241 0 0)
(-1.4197805 0 0)
(-1.4053223 0 0)
(-1.3963935 0 0)
(-0.90203409 0 0)
(-0.8340776 0 0)
(-0.76147246 0 0)
(-0.68377227 0 0)
(-0.60033955 0 0)
(-0.51043206 0 0)
(-0.41321431 0 0)
(-0.30771508 0 0)
(-0.19280288 0 0)
(-0.067204244 0 0)
(-0.96581439 0 0)
(-1.0259461 0 0)
(-1.0828025 0 0)
(-1.1366944 0 0)
(-1.1878393 0 0)
(-1.236488 0 0)
(-1.2828473 0 0)
(-1.3270704 0 0)
(-1.3692426 0 0)
(-1.4064543 0 0)
(-1.4384059 0 0)
(-1.4679017 0 0)
(-1.4950442 0 0)
(-1.5198712 0 0)
(-1.5423653 0 0)
(-1.5624845 0 0)
(-1.5801996 0 0)
(-1.595468 0 0)
(-1.6082228 0 0)
(-1.6183844 0 0)
(-1.625884 0 0)
(-1.6306651 0 0)
(-1.6326595 0 0)
(-1.6317842 0 0)
(-1.6279743 0 0)
(-1.6212309 0 0)
(-1.6115979 0 0)
(-1.5991924 0 0)
(-1.5841747 0 0)
(-1.5667602 0 0)
(-1.5472855 0 0)
(-1.5261822 0 0)
(-1.503958 0 0)
(-1.4812362 0 0)
(-1.4588619 0 0)
(-1.4377861 0 0)
(-1.4191378 0 0)
(-1.4043557 0 0)
(-1.3951846 0 0)
(-0.96544045 0 0)
(-0.9020405 0 0)
(-0.83442879 0 0)
(-0.7622159 0 0)
(-0.68483124 0 0)
(-0.6016189 0 0)
(-0.51181808 0 0)
(-0.41457492 0 0)
(-0.30889941 0 0)
(-0.193642 0 0)
(-0.067511756 0 0)
(-1.0250487 0 0)
(-1.0813602 0 0)
(-1.1346995 0 0)
(-1.1852959 0 0)
(-1.2334117 0 0)
(-1.279262 0 0)
(-1.3230072 0 0)
(-1.3647678 0 0)
(-1.4046699 0 0)
(-1.4397102 0 0)
(-1.4695498 0 0)
(-1.4970688 0 0)
(-1.5223483 0 0)
(-1.5453782 0 0)
(-1.566124 0 0)
(-1.5845677 0 0)
(-1.6006755 0 0)
(-1.6143857 0 0)
(-1.6256195 0 0)
(-1.6343004 0 0)
(-1.6403597 0 0)
(-1.6437421 0 0)
(-1.6443696 0 0)
(-1.6421516 0 0)
(-1.6370489 0 0)
(-1.6290572 0 0)
(-1.6182376 0 0)
(-1.6047091 0 0)
(-1.5886456 0 0)
(-1.5702673 0 0)
(-1.5499068 0 0)
(-1.5280096 0 0)
(-1.505078 0 0)
(-1.4817331 0 0)
(-1.4588267 0 0)
(-1.4373001 0 0)
(-1.4182805 0 0)
(-1.403206 0 0)
(-1.3938136 0 0)
(-1.0246627 0 0)
(-0.96544696 0 0)
(-0.90241016 0 0)
(-0.83522501 0 0)
(-0.76337094 0 0)
(-0.6862597 0 0)
(-0.60321941 0 0)
(-0.51347076 0 0)
(-0.41614455 0 0)
(-0.31023293 0 0)
(-0.19456399 0 0)
(-0.067763563 0 0)
(-1.0804381 0 0)
(-1.1332249 0 0)
(-1.1832671 0 0)
(-1.2308357 0 0)
(-1.2761577 0 0)
(-1.3194022 0 0)
(-1.3606962 0 0)
(-1.4001964 0 0)
(-1.437972 0 0)
(-1.4709408 0 0)
(-1.4988236 0 0)
(-1.5245029 0 0)
(-1.548008 0 0)
(-1.5693131 0 0)
(-1.5884095 0 0)
(-1.6052758 0 0)
(-1.6198583 0 0)
(-1.6320785 0 0)
(-1.6418557 0 0)
(-1.649118 0 0)
(-1.6538033 0 0)
(-1.6558453 0 0)
(-1.6551607 0 0)
(-1.6516684 0 0)
(-1.645321 0 0)
(-1.6361396 0 0)
(-1.6241868 0 0)
(-1.6096011 0 0)
(-1.592555 0 0)
(-1.5732638 0 0)
(-1.5520773 0 0)
(-1.5294354 0 0)
(-1.5058456 0 0)
(-1.4819285 0 0)
(-1.4585289 0 0)
(-1.4365895 0 0)
(-1.4172331 0 0)
(-1.4018909 0 0)
(-1.3922193 0 0)
(-1.0800414 0 0)
(-1.0246688 0 0)
(-0.96583241 0 0)
(-0.90325178 0 0)
(-0.83646287 0 0)
(-0.76492774 0 0)
(-0.68804542 0 0)
(-0.605128 0 0)
(-0.51537861 0 0)
(-0.41791228 0 0)
(-0.31169696 0 0)
(-0.19509396 0 0)
(-0.067726711 0 0)
(-1.132283 0 0)
(-1.1817684 0 0)
(-1.2287814 0 0)
(-1.2735595 0 0)
(-1.3162804 0 0)
(-1.3570812 0 0)
(-1.3961243 0 0)
(-1.4335097 0 0)
(-1.4692598 0 0)
(-1.5003058 0 0)
(-1.5263676 0 0)
(-1.5502966 0 0)
(-1.5720987 0 0)
(-1.5917791 0 0)
(-1.609327 0 0)
(-1.6246978 0 0)
(-1.6378177 0 0)
(-1.6486094 0 0)
(-1.6569939 0 0)
(-1.6628989 0 0)
(-1.6662674 0 0)
(-1.6670292 0 0)
(-1.6650864 0 0)
(-1.6603613 0 0)
(-1.6528349 0 0)
(-1.64252 0 0)
(-1.6294975 0 0)
(-1.6139063 0 0)
(-1.5959318 0 0)
(-1.5757899 0 0)
(-1.5538275 0 0)
(-1.530496 0 0)
(-1.5062965 0 0)
(-1.4818472 0 0)
(-1.4579969 0 0)
(-1.4356795 0 0)
(-1.4160135 0 0)
(-1.4002773 0 0)
(-1.3903576 0 0)
(-1.1318784 0 0)
(-1.0800486 0 0)
(-1.0250686 0 0)
(-0.96671175 0 0)
(-0.90455864 0 0)
(-0.83813103 0 0)
(-0.76687554 0 0)
(-0.69017631 0 0)
(-0.60733116 0 0)
(-0.51752595 0 0)
(-0.41985248 0 0)
(-0.31247254 0 0)
(-0.19499089 0 0)
(-0.067681166 0 0)
(-1.1808114 0 0)
(-1.2272643 0 0)
(-1.2714872 0 0)
(-1.3136683 0 0)
(-1.3539533 0 0)
(-1.3925111 0 0)
(-1.4294476 0 0)
(-1.46482 0 0)
(-1.4986889 0 0)
(-1.5279485 0 0)
(-1.5522762 0 0)
(-1.5745214 0 0)
(-1.594723 0 0)
(-1.612881 0 0)
(-1.6289633 0 0)
(-1.6429007 0 0)
(-1.6546177 0 0)
(-1.6640413 0 0)
(-1.6710918 0 0)
(-1.6756977 0 0)
(-1.6778088 0 0)
(-1.6773399 0 0)
(-1.6741918 0 0)
(-1.6682994 0 0)
(-1.6596372 0 0)
(-1.6482454 0 0)
(-1.6342029 0 0)
(-1.6176685 0 0)
(-1.5988238 0 0)
(-1.5778783 0 0)
(-1.5551951 0 0)
(-1.5312191 0 0)
(-1.5064552 0 0)
(-1.4815183 0 0)
(-1.457252 0 0)
(-1.4345881 0 0)
(-1.414372 0 0)
(-1.3983536 0 0)
(-1.3882783 0 0)
(-1.1804025 0 0)
(-1.1318863 0 0)
(-1.0804584 0 0)
(-1.0259784 0 0)
(-0.96807725 0 0)
(-0.90632227 0 0)
(-0.84021876 0 0)
(-0.7691981 0 0)
(-0.69263456 0 0)
(-0.60981097 0 0)
(-0.51988392 0 0)
(-0.4208427 0 0)
(-0.31230975 0 0)
(-0.19486395 0 0)
(-0.06762842 0 0)
(-1.2262962 0 0)
(-1.2699574 0 0)
(-1.311585 0 0)
(-1.3513351 0 0)
(-1.389384 0 0)
(-1.4258449 0 0)
(-1.4607815 0 0)
(-1.4942835 0 0)
(-1.5263991 0 0)
(-1.5539575 0 0)
(-1.5766211 0 0)
(-1.5972846 0 0)
(-1.6159888 0 0)
(-1.6327089 0 0)
(-1.6473834 0 0)
(-1.659944 0 0)
(-1.6703215 0 0)
(-1.6784327 0 0)
(-1.6842037 0 0)
(-1.6875813 0 0)
(-1.6884893 0 0)
(-1.6868332 0 0)
(-1.682524 0 0)
(-1.675504 0 0)
(-1.6657702 0 0)
(-1.6533528 0 0)
(-1.6383504 0 0)
(-1.620921 0 0)
(-1.6012572 0 0)
(-1.5795652 0 0)
(-1.556207 0 0)
(-1.5316363 0 0)
(-1.5063512 0 0)
(-1.4809636 0 0)
(-1.4563169 0 0)
(-1.4329134 0 0)
(-1.4123239 0 0)
(-1.3962199 0 0)
(-1.3859774 0 0)
(-1.2258839 0 0)
(-1.1804112 0 0)
(-1.1323046 0 0)
(-1.0813949 0 0)
(-1.0273946 0 0)
(-0.96992087 0 0)
(-0.90852734 0 0)
(-0.84270796 0 0)
(-0.77187911 0 0)
(-0.69540288 0 0)
(-0.61253364 0 0)
(-0.52105938 0 0)
(-0.42062531 0 0)
(-0.31211075 0 0)
(-0.1947173 0 0)
(-0.067567235 0 0)
(-1.268982 0 0)
(-1.3100476 0 0)
(-1.3492483 0 0)
(-1.3867677 0 0)
(-1.4227266 0 0)
(-1.4571983 0 0)
(-1.4902787 0 0)
(-1.5220402 0 0)
(-1.5524828 0 0)
(-1.5784018 0 0)
(-1.5995064 0 0)
(-1.6186963 0 0)
(-1.635987 0 0)
(-1.6513245 0 0)
(-1.664646 0 0)
(-1.675892 0 0)
(-1.6849865 0 0)
(-1.6918435 0 0)
(-1.6963945 0 0)
(-1.6985827 0 0)
(-1.6983337 0 0)
(-1.6955413 0 0)
(-1.690125 0 0)
(-1.6820388 0 0)
(-1.6712729 0 0)
(-1.657885 0 0)
(-1.6419693 0 0)
(-1.6237033 0 0)
(-1.6032735 0 0)
(-1.5808788 0 0)
(-1.556896 0 0)
(-1.5317721 0 0)
(-1.5060069 0 0)
(-1.4802061 0 0)
(-1.4546097 0 0)
(-1.430696 0 0)
(-1.4100825 0 0)
(-1.3938711 0 0)
(-1.3834552 0 0)
(-1.2685671 0 0)
(-1.2258931 0 0)
(-1.1808381 0 0)
(-1.1332626 0 0)
(-1.0828506 0 0)
(-1.0293037 0 0)
(-0.97222561 0 0)
(-0.9111588 0 0)
(-0.8455816 0 0)
(-0.77489642 0 0)
(-0.69844052 0 0)
(-0.6138692 0 0)
(-0.52079122 0 0)
(-0.42036031 0 0)
(-0.31187997 0 0)
(-0.19454728 0 0)
(-0.067496858 0 0)
(-1.3090683 0 0)
(-1.3477087 0 0)
(-1.3846824 0 0)
(-1.4201187 0 0)
(-1.4540986 0 0)
(-1.4867242 0 0)
(-1.5180752 0 0)
(-1.5481795 0 0)
(-1.5770134 0 0)
(-1.6013909 0 0)
(-1.6210412 0 0)
(-1.6388433 0 0)
(-1.6547761 0 0)
(-1.6687831 0 0)
(-1.6808167 0 0)
(-1.6908048 0 0)
(-1.6986642 0 0)
(-1.7043206 0 0)
(-1.7077124 0 0)
(-1.7087746 0 0)
(-1.7074072 0 0)
(-1.7035182 0 0)
(-1.6970367 0 0)
(-1.6879219 0 0)
(-1.6761851 0 0)
(-1.6618743 0 0)
(-1.6451024 0 0)
(-1.6260446 0 0)
(-1.6048965 0 0)
(-1.5818517 0 0)
(-1.5572858 0 0)
(-1.5316521 0 0)
(-1.5054453 0 0)
(-1.4784735 0 0)
(-1.452198 0 0)
(-1.4283091 0 0)
(-1.4076415 0 0)
(-1.3913069 0 0)
(-1.3807079 0 0)
(-1.3086523 0 0)
(-1.2685776 0 0)
(-1.2263257 0 0)
(-1.1818122 0 0)
(-1.1347511 0 0)
(-1.0848161 0 0)
(-1.0316939 0 0)
(-0.9749767 0 0)
(-0.91419448 0 0)
(-0.84881547 0 0)
(-0.77820893 0 0)
(-0.69991185 0 0)
(-0.6135513 0 0)
(-0.52046285 0 0)
(-0.42005254 0 0)
(-0.31161354 0 0)
(-0.19435174 0 0)
(-0.067415871 0 0)
(-1.3467282 0 0)
(-1.3831445 0 0)
(-1.4180404 0 0)
(-1.4515061 0 0)
(-1.4836512 0 0)
(-1.5145589 0 0)
(-1.5442635 0 0)
(-1.5727749 0 0)
(-1.6000957 0 0)
(-1.6230405 0 0)
(-1.6413227 0 0)
(-1.6577858 0 0)
(-1.6724083 0 0)
(-1.6851507 0 0)
(-1.6959546 0 0)
(-1.7047369 0 0)
(-1.7114165 0 0)
(-1.7159255 0 0)
(-1.7182023 0 0)
(-1.7181674 0 0)
(-1.7157295 0 0)
(-1.7107928 0 0)
(-1.7032974 0 0)
(-1.6932111 0 0)
(-1.6805404 0 0)
(-1.6653601 0 0)
(-1.647776 0 0)
(-1.6279805 0 0)
(-1.6061625 0 0)
(-1.5825075 0 0)
(-1.557403 0 0)
(-1.5312993 0 0)
(-1.5036965 0 0)
(-1.4758553 0 0)
(-1.4496439 0 0)
(-1.4257452 0 0)
(-1.4050011 0 0)
(-1.3885238 0 0)
(-1.3777363 0 0)
(-1.3463141 0 0)
(-1.3086635 0 0)
(-1.2690124 0 0)
(-1.2273121 0 0)
(-1.1833286 0 0)
(-1.1367621 0 0)
(-1.0872742 0 0)
(-1.0345436 0 0)
(-0.97814978 0 0)
(-0.91761274 0 0)
(-0.85236573 0 0)
(-0.7797933 0 0)
(-0.69954254 0 0)
(-0.61316227 0 0)
(-0.5200834 0 0)
(-0.41969768 0 0)
(-0.31130595 0 0)
(-0.19412645 0 0)
(-0.067323006 0 0)
(-1.3821663 0 0)
(-1.4165084 0 0)
(-1.4494413 0 0)
(-1.4810804 0 0)
(-1.5115174 0 0)
(-1.5407928 0 0)
(-1.5689212 0 0)
(-1.5959319 0 0)
(-1.6218381 0 0)
(-1.6434349 0 0)
(-1.6604016 0 0)
(-1.6755735 0 0)
(-1.6889529 0 0)