/*--------------------------------*- C++ -*----------------------------------*\
| =========                 |                                                 |
| \\      /  F ield         | OpenFOAM: The Open Source CFD Toolbox           |
|  \\    /   O peration     | Version:  v2012                                 |
|   \\  /    A nd           | Website:  www.openfoam.com                      |
|    \\/     M anipulation  |                                                 |
\*---------------------------------------------------------------------------*/
FoamFile
{
    version     2.0;
    format      ascii;
    class       surfaceScalarField;
    location    "11.1188619505";
    object      meshPhi;
}
// * * * * * * * * * * * * * * * * * * * * * * * * * * * * * * * * * * * * * //

dimensions      [0 3 -1 0 0 0 0];
oriented        oriented;


internalField   nonuniform List<scalar> 
18180
(
-6.0909535e-14
-0.0028680192
0
-0.0026397191
0
-0.0059080736
0
-0.0024347208
0
-0.0054722928
0
-0.0090684295
0
-0.0022636766
0
-0.0050540183
0
-0.0084467228
0
-0.01225145
-3.0532895e-14
-0.0021383658
2.9324379e-14
-0.0046998286
0
-0.0078644823
0
-0.011476345
2.8197726e-18
-0.015419668
0
-0.0020345574
1.3059052e-18
-0.004405824
0
-0.0073211587
0
-0.010740644
0
-0.014480496
-4.9914921e-14
-0.018574753
1.2795729e-18
-0.0019262815
0
-0.0041425635
0
-0.0068229559
0
-0.010008839
0
-0.013583305
0
-0.017448227
0
-0.021703626
0
-0.0018083147
2.9385164e-14
-0.0038877378
2.8205824e-14
-0.0063634069
1.4124374e-18
-0.0092950081
0
-0.012668115
0
-0.016377794
0
-0.020378298
4.6100319e-14
-0.024815589
0
-0.0016824075
0
-0.0036263613
-2.8223388e-14
-0.0059224136
2.7096071e-14
-0.0086140412
1.3753846e-18
-0.011722602
0
-0.015248034
0
-0.019111188
0
-0.02328137
0
-0.027896169
1.2453781e-18
-0.0015529486
0
-0.0033596271
0
-0.0054908305
0
-0.0079667915
0
-0.010795081
2.5001315e-14
-0.014070109
-2.4012587e-14
-0.017794672
2.7486065e-18
-0.02182553
0
-0.026168664
4.258798e-14
-0.030953247
0
-0.0014241014
-2.9438478e-14
-0.0030935082
0
-0.0050664769
2.7127575e-14
-0.0073533866
0
-0.0099361057
0
-0.012917662
-2.4024162e-14
-0.016411845
-2.3076046e-14
-0.020329823
0
-0.024539121
0
-0.029036456
2.6527597e-18
-0.033945619
0
-0.0012994745
0
-0.0028335562
0
-0.0046532678
2.7142426e-14
-0.0067676832
0
-0.009142742
2.502941e-14
-0.011843241
-2.403902e-14
-0.015040918
0
-0.018783009
-2.2179249e-14
-0.022899647
0
-0.027251342
0
-0.031865494
0
-0.036861116
-1.5347968e-14
-0.0011814985
0
-0.0025848685
0
-0.0042558172
-2.7156393e-14
-0.0062071483
0
-0.008400835
-1.2076396e-18
-0.010870727
0
-0.013778621
-2.3103329e-14
-0.017266269
0
-0.021240331
0
-0.025501361
-4.0966521e-14
-0.029956616
0
-0.034625337
0
-0.039662469
0
-0.0010713499
1.4740958e-14
-0.0023505796
0
-0.0038786667
0
-0.0056738493
1.1942286e-18
-0.0077008451
2.5056546e-14
-0.0099817409
2.4066129e-14
-0.012639709
0
-0.015843178
-1.4531276e-18
-0.019604958
1.4741083e-18
-0.023751979
0
-0.028108955
3.9386769e-14
-0.032602261
0
-0.037292125
3.6380475e-14
-0.042352208
1.5361012e-14
-0.0009694378
0
-0.0021328142
0
-0.0035254183
0
-0.0051708761
0
-0.0070391367
1.1634194e-18
-0.0091518139
0
-0.011602933
2.3128662e-14
-0.014541872
2.2219627e-14
-0.018039934
-2.1346207e-14
-0.02201946
-2.0506782e-14
-0.02628721
0
-0.03067849
0
-0.035174025
0
-0.039848408
0
-0.044906265
1.536599e-14
-0.00087614646
-1.4752221e-14
-0.001932267
1.4161279e-14
-0.0031979753
-1.3596658e-14
-0.0047014367
0
-0.0064166025
0
-0.0083719555
0
-0.010647189
0
-0.013359486
-2.2231351e-14
-0.016584832
1.5248717e-18
-0.020336117
2.0521432e-14
-0.024480216
1.9717106e-14
-0.02879687
-1.8944069e-14
-0.033182226
3.6411449e-14
-0.037644847
0
-0.042289118
2.1529278e-18
-0.04732884
1.5371396e-14
-0.00079142882
-1.4756978e-14
-0.0017491221
5.3667748e-19
-0.0028969913
1.3601009e-14
-0.0042665583
-1.3062048e-14
-0.0058353748
0
-0.0076394549
0
-0.0097525736
0
-0.012270902
0
-0.015250237
0
-0.018718859
0
-0.022668103
0
-0.026919234
1.4494336e-18
-0.031246825
-1.3409136e-18
-0.035601195
-3.5010769e-14
-0.040017262
0
-0.044601702
0
-0.049608404
0
-0.0007149642
0
-0.0015829545
0
-0.0026219957
1.360598e-14
-0.003866676
-1.3066157e-14
-0.0052963172
-1.2550776e-14
-0.0069554095
0
-0.0089136755
0
-0.011258343
2.2257703e-14
-0.014026099
0
-0.017210538
0
-0.020894058
-1.9742266e-14
-0.025026975
-1.8971407e-14
-0.029324883
1.4162426e-18
-0.033630807
-3.5034608e-14
-0.037931902
2.3347238e-18
-0.042269648
0
-0.046789536
0
-0.051757885
0
-0.0006461476
-4.8932278e-19
-0.0014330032
1.417411e-14
-0.0023724829
-1.3609407e-14
-0.0035008269
-2.614072e-14
-0.0047994103
0
-0.0063206742
-1.2061589e-14
-0.0081306095
0
-0.010310933
0
-0.012898446
2.1397747e-14
-0.015845715
0
-0.019229927
0
-0.023141116
0
-0.027382949
0
-0.031682869
1.3744961e-18
-0.035937886
1.6845671e-14
-0.040160089
-3.2380485e-14
-0.044410474
-3.1125385e-14
-0.048849901
0
-0.053770059
0
-0.00058450346
0
-0.001298088
1.4176989e-14
-0.0021470737
0
-0.0031681157
0
-0.0043439654
1.2559321e-14
-0.005734697
0
-0.0074033862
0
-0.0094260333
0
-0.011849767
0
-0.014605503
-2.057186e-14
-0.017711958
0
-0.02133383
0
-0.025442262
1.8256992e-14
-0.029730764
0
-0.033983637
1.6859715e-14
-0.038166055
1.6202721e-14
-0.042287655
-3.1143631e-14
-0.046433852
0
-0.050788799
0
-0.055651473
0
-0.00052944914
1.4771643e-14
-0.0011770842
0
-0.0019443104
0
-0.0028666657
-1.307749e-14
-0.0039287569
0
-0.0051966524
-1.2069454e-14
-0.0067313279
-1.1597103e-14
-0.0086022285
0
-0.010870008
0
-0.013461926
0
-0.016347662
1.9782919e-14
-0.019685363
0
-0.023575992
0
-0.027794902
1.7558232e-14
-0.032049597
0
-0.036229193
1.2827002e-18
-0.040303504
0
-0.044312813
0
-0.048346828
-2.8799082e-14
-0.052600502
2.7691592e-14
-0.057399854
0
-0.000480461
0
-0.0010689255
0
-0.0017623161
0
-0.0025947168
-1.3080943e-14
-0.0035520266
-1.2565708e-14
-0.004705585
0
-0.0061133693
-1.1601117e-14
-0.0078384974
7.1680024e-19
-0.0099560683
-1.0715002e-14
-0.012397207
0
-0.015106787
0
-0.018200862
-1.9022991e-14
-0.021833837
0
-0.02591156
0
-0.030138807
-1.6885901e-14
-0.034319706
1.6227902e-14
-0.038391856
1.2354224e-18
-0.042354363
0
-0.046235112
0
-0.050141023
0
-0.054292346
0
-0.059024939
-2.0852476e-19
-0.00043691837
0
-0.00097250369
0
-0.0015995354
0
-0.0023499792
0
-0.0032115237
-2.5138183e-14
-0.0042596998
5.4113764e-19
-0.0055488834
1.1605345e-14
-0.0071348016
1.1153312e-14
-0.0091066068
-1.0718781e-14
-0.011402137
0
-0.013955161
0
-0.016849723
0
-0.020236903
0
-0.024107305
0
-0.028254343
-3.3801443e-14
-0.032438214
0
-0.036521106
-1.5610836e-14
-0.040482565
0
-0.044312698
-2.8838619e-14
-0.048052824
0
-0.051822413
0
-0.055864382
0
-0.06052616
0
-0.00039828779
-7.3889729e-15
-0.00088661399
0
-0.0014541003
0
-0.0021302808
0
-0.0029050124
0
-0.0038563472
0
-0.0050359443
-1.160797e-14
-0.0064906104
0
-0.0083215681
0
-0.01047399
1.0307723e-14
-0.012878074
9.9073559e-15
-0.015602629
0
-0.01877703
0
-0.022415011
-3.5196196e-14
-0.026416233
0
-0.030586247
1.6256054e-14
-0.034693491
3.124871e-14
-0.038659964
-1.3016884e-18
-0.042492478
-1.4432585e-14
-0.046183457
-1.3870945e-14
-0.049764727
0
-0.05339252
0
-0.057322816
1.234697e-18
-0.061909449
0
-0.00036401937
1.478008e-14
-0.00081009054
-1.4189148e-14
-0.0013243174
0
-0.0019334813
0
-0.002630041
1.257391e-14
-0.0034929007
0
-0.0045716992
-5.9649637e-19
-0.0059043653
7.1753808e-19
-0.0076002374
-7.840557e-19
-0.0096121495
-1.0311159e-14
-0.011869196
0
-0.014434551
-9.072815e-19
-0.01742556
0
-0.020850084
0
-0.024644892
-1.6926892e-14
-0.028734597
0
-0.032887304
0
-0.03688427
0
-0.040727678
-1.4446347e-14
-0.044429169
-1.388351e-14
-0.047956306
0
-0.051376954
2.565812e-14
-0.054853463
0
-0.058667
0
-0.063177
-7.6979166e-15
-0.00033363256
0
-0.00074195215
7.0953437e-15
-0.0012085805
6.8135035e-15
-0.0017575905
0
-0.00238415
0
-0.0031668172
1.2084466e-14
-0.0041528023
0
-0.0053727589
-7.1742087e-19
-0.0069415922
0
-0.0088160942
0
-0.010927725
8.3382547e-19
-0.013337562
-9.5334149e-15
-0.016161702
-9.166063e-15
-0.019399852
0
-0.022967483
0
-0.026889695
1.9538747e-18
-0.031061584
0
-0.035143702
1.5044032e-14
-0.039013457
1.4460661e-14
-0.042728975
-1.3898288e-14
-0.046276399
1.0302124e-18
-0.049640839
1.28399e-14
-0.052884262
0
-0.056206366
0
-0.0599035
0
-0.064336213
1.9249637e-19
-0.00030667541
7.3912251e-15
-0.0006812753
0
-0.0011054924
0
-0.0016006865
-1.9363431e-19
-0.0021647519
0
-0.00287511
0
-0.0037760949
1.1616278e-14
-0.0048926145
0
-0.0063421234
-7.9242944e-19
-0.0080845944
0
-0.010053461
9.9203822e-15
-0.012309886
9.2995658e-19
-0.014972668
0
-0.018047537
8.8162892e-15
-0.021414346
0
-0.025112161
0
-0.029197424
-1.5665509e-14
-0.033366719
-1.5059923e-14
-0.0373226
1.4475162e-14
-0.041069387
1.3912573e-14
-0.044651474
0
-0.048044599
9.7708813e-19
-0.051229846
1.2354027e-14
-0.054292341
0
-0.057453526
0
-0.061036225
2.1967817e-14
-0.065392276
0
-0.00028273027
2.0142807e-19
-0.00062716998
-1.9448636e-19
-0.0010136619
0
-0.0014608875
-6.5461394e-15
-0.0019693649
6.2891591e-15
-0.0026145413
-1.2088185e-14
-0.0034384039
0
-0.0044602979
0
-0.0057983734
0
-0.0074146535
-1.0322299e-14
-0.0092450476
-9.9239308e-15
-0.011351147
-9.5428758e-15
-0.013854805
1.835139e-14
-0.016777264
1.7644892e-14
-0.019975105
8.4814998e-15
-0.023439564
0
-0.027326244
0
-0.031502663
-1.5072005e-14
-0.035582491
0
-0.039416955
0
-0.043055157
1.3385954e-14
-0.04649944
-1.1041794e-18
-0.049727382
9.2684412e-19
-0.052730247
1.1886383e-14
-0.05559787
0
-0.058603269
0
-0.062070678
0
-0.066349704
0
-0.00026145478
0
-0.00057880674
7.0971038e-15
-0.00093172132
6.8154007e-15
-0.0013364112
0
-0.0017955943
0
-0.0023820457
0
-0.0031361586
0
-0.0040722515
1.1170143e-14
-0.0053064166
0
-0.0068027991
0
-0.0085001655
-9.9279561e-15
-0.010460722
0
-0.012807202
0
-0.015579972
0
-0.018626285
1.0178929e-18
-0.021885932
-8.1600783e-15
-0.025528862
0
-0.029596349
0
-0.033758473
0
-0.037715354
0
-0.041452974
0
-0.044976304
0
-0.048275028
-1.0551806e-18
-0.051329924
-1.1898267e-14
-0.054134287
1.1438415e-14
-0.056812503
0
-0.059655704
2.1150411e-14
-0.063010138
-2.0343671e-14
-0.067224959
0
-0.00024250068
0
-0.00053551913
0
-0.00085856532
0
-0.001225568
-1.7808641e-19
-0.0016411781
-6.2906354e-15
-0.0021749191
-6.0452736e-15
-0.0028656951
-1.1621575e-14
-0.0037243468
0
-0.0048625248
0
-0.0062452798
1.0327483e-14
-0.0078161226
0
-0.0096369065
0
-0.0118294
-9.1826151e-15
-0.014453912
0
-0.017355646
1.0331822e-18
-0.02043946
0
-0.023845571
7.8514155e-15
-0.027715262
0
-0.031857486
0
-0.035912501
1.3955619e-14
-0.039774342
1.34133e-14
-0.043431487
1.2894272e-14
-0.046839675
1.1949286e-18
-0.049976255
0
-0.052843017
1.1450178e-14
-0.055453004
0
-0.057931527
-2.1164855e-14
-0.06061799
0
-0.063869843
7.16809e-19
-0.068025425
-1.1060471e-06
-0.00026463997
0
-0.00049665517
0
-0.0007931862
0
-0.0011269181
1.7427146e-19
-0.0015040366
0
-0.0019905573
6.0461051e-15
-0.0026237339
0
-0.0034125341
5.5860444e-15
-0.0044621135
-1.074274e-14
-0.0057383562
0
-0.0071896891
0
-0.0088776859
0
-0.010920373
0
-0.01339837
0
-0.016156944
0
-0.01907746
1.0379755e-18
-0.022272106
7.8579919e-15
-0.025907958
-7.5560094e-15
-0.029920434
0
-0.034009061
0
-0.037980884
-1.342564e-14
-0.041784766
0
-0.045365331
-1.2406441e-14
-0.048637507
1.1926009e-14
-0.05159718
1.1462084e-14
-0.05427382
2.203735e-14
-0.056682127
1.0592052e-14
-0.058964954
2.0369511e-14
-0.061497247
0
-0.064657536
0
-0.068763817
-1.8582698e-06
-0.00026338968
-3.2489384e-06
-0.00053739902
0
-0.00073454057
0
-0.0010390302
6.5482814e-15
-0.001382269
2.026548e-19
-0.0018264178
-2.4588344e-19
-0.0024074792
-5.8120496e-15
-0.0031328128
0
-0.0041008799
-3.9378239e-19
-0.0052779276
0
-0.0066173824
9.9355703e-15
-0.0081804264
0
-0.010078459
-9.1901782e-15
-0.012412938
8.8378014e-15
-0.015029626
8.5010772e-15
-0.017791467
0
-0.020795644
1.090267e-18
-0.024201897
0
-0.028023679
0
-0.032069833
0
-0.036101506
-1.3442695e-14
-0.040009492
0
-0.043764492
0
-0.047247507
0
-0.050366231
1.0869646e-18
-0.053135925
0
-0.055620641
1.060387e-14
-0.057829847
-1.0194191e-14
-0.059913598
0
-0.062306005
0
-0.065383134
-1.8137308e-14
-0.069440287
-2.3000951e-06
-0.00026262906
-5.4552869e-06
-0.00053587208
-5.2097529e-06
-0.00078737809
0
-0.00096036159
0
-0.0012741214
-1.2584152e-14
-0.0016802604
2.4477272e-19
-0.0022141837
-2.8032845e-19
-0.002881894
-5.5876928e-15
-0.0037748638
0
-0.0048599291
-5.1666091e-15
-0.0060956205
0
-0.0075421122
0
-0.0093013332
0
-0.011495457
0
-0.013973586
0
-0.016578237
-8.1790823e-15
-0.019401958
7.8677139e-15
-0.022597919
1.1442904e-18
-0.026212855
-7.2756552e-15
-0.030143399
6.9961978e-15
-0.034179521
0
-0.038154472
0
-0.042017619
1.2436247e-14
-0.045708327
0
-0.049079698
-1.14893e-14
-0.052020615
-1.1043544e-14
-0.054597329
0
-0.056886347
6.741833e-19
-0.058894425
-1.9621233e-14
-0.060791464
0
-0.063050032
0
-0.06604986
-1.7457928e-14
-0.070072236
-2.4729625e-06
-0.00026230863
-6.7469949e-06
-0.00053498448
-8.7363281e-06
-0.00078592784
-6.8962551e-06
-0.0010195341
0
-0.0011774746
0
-0.0015502228
0
-0.0020413621
0
-0.0026571137
5.5882166e-15
-0.0034806444
5.3731183e-15
-0.0044807282
-1.5501636e-14
-0.0056206698
9.9388745e-15
-0.0069586992
0
-0.0085852808
0
-0.010643496
0
-0.01298722
0
-0.015437712
-8.1838569e-15
-0.018086547
0
-0.021087178
0
-0.024497923
-7.2809189e-15
-0.028270176
7.0019154e-15
-0.032263023
0
-0.036279719
0
-0.040181741
0
-0.043992815
1.633666e-18
-0.047627238
0
-0.050853456
0
-0.053605711
9.8078859e-19
-0.055976069
0
-0.058070164
9.8217182e-15
-0.059887314
9.4428574e-15
-0.061602198
-1.8159735e-14
-0.063738361
0
-0.066670693
1.680524e-14
-0.070662415
-2.4156101e-06
-0.00026239942
-7.2465367e-06
-0.00053467252
-1.0791474e-05
-0.00078515454
-1.1544729e-05
-0.0010180481
-8.3720875e-06
-0.0012402896
0
-0.001433792
0
-0.001886808
0
-0.0024556027
5.5890236e-15
-0.0032154104
-5.3740472e-15
-0.0041369229
-3.9092272e-19
-0.0051888062
4.162895e-19
-0.0064261165
0
-0.0079263422
9.1975025e-15
-0.0098530377
0
-0.012068506
1.0982229e-18
-0.014369348
0
-0.016847652
7.8747021e-15
-0.019663368
-7.5747569e-15
-0.022880286
0
-0.026485328
-7.006014e-15
-0.030391465
6.7399751e-15
-0.034414409
-6.4810861e-15
-0.038341876
0
-0.04218387
0
-0.045975254
0
-0.049506997
0
-0.05256776
-1.0641543e-14
-0.055112882
1.0228895e-14
-0.057274062
-9.8333718e-15
-0.059178023
0
-0.060811264
-9.0883172e-15
-0.062357262
0
-0.064376783
0
-0.067250403
4.9592163e-19
-0.071215905
-2.1659224e-06
-0.00026284416
-7.0692488e-06
-0.00053485581
-1.1572603e-05
-0.00078497116
-1.4237543e-05
-0.0010173165
-1.3997289e-05
-0.0012406332
-9.8550985e-06
-0.001499492
0
-0.0017475444
0
-0.0022746812
0
-0.0029761046
-5.3741309e-15
-0.0038254706
-3.8936711e-19
-0.0047963849
0
-0.0059405296
-4.7811651e-15
-0.0073206168
4.5997025e-15
-0.0091205733
0
-0.01121465
8.5134651e-15
-0.013371864
0
-0.015684387
-7.879251e-15
-0.018323524
7.5787039e-15
-0.021355055
0
-0.024791952
0
-0.028579093
-6.744186e-15
-0.032563738
0
-0.036522911
-6.2377987e-15
-0.040363536
0
-0.044189438
0
-0.047942736
0
-0.0513461
0
-0.054211189
0
-0.05654038
8.6628796e-19
-0.058488427
0
-0.060214112
-9.0981117e-15
-0.061676189
-1.7496178e-14
-0.063059522
1.6826042e-14
-0.064974244
0
-0.06779272
0
-0.07173084
-1.7614441e-06
-0.00026359977
-6.329271e-06
-0.00053542496
-1.1272644e-05
-0.00078526629
-1.5244947e-05
-0.0010173565
-1.7244713e-05
-0.0012415994
-1.6465462e-05
-0.0015023646
-1.1579196e-05
-0.0018161549
0
-0.0021109997
0
-0.0027599789
5.3745384e-15
-0.0035434356
5.1690334e-15
-0.0044401219
-4.9716629e-15
-0.005498125
0
-0.0067648556
5.8186062e-19
-0.008443152
-6.3708506e-19
-0.010422694
0
-0.012443584
0
-0.014595631
7.8823492e-15
-0.01706545
7.5834491e-15
-0.019917835
7.294286e-15
-0.02318349
1.3447142e-18
-0.026832872
6.7505369e-15
-0.030729836
0
-0.034682832
6.2436879e-15
-0.038549062
6.0028471e-15
-0.042381797
0
-0.046230717
0
-0.049894611
1.0670009e-14
-0.053122241
0
-0.055781848
0
-0.057883191
0
-0.059628231
-9.1095974e-15
-0.061182596
0
-0.062484774
8.4205138e-15
-0.063719051
0
-0.065531675
-3.1160908e-14
-0.068298937
0
-0.072208974
-1.2402274e-06
-0.00026466375
-5.1389965e-06
-0.00053633736
-1.0075548e-05
-0.00078596435
-1.4830793e-05
-0.0010180636
-1.8450933e-05
-0.0012434347
-2.0273102e-05
-0.0015056105
-1.9340857e-05
-0.0018240369
-1.3561471e-05
-0.0021823752
0
-0.0025632872
0
-0.0032878879
0
-0.0041169015
4.1398927e-19
-0.0050951717
-4.7829315e-15
-0.0062562132
0
-0.0078180101
-4.4260569e-15
-0.0096890526
-4.2594624e-15
-0.011582014
0
-0.013579622
0
-0.015887269
-7.5854621e-15
-0.018566308
0
-0.021657617
-7.0222772e-15
-0.02515785
0
-0.028932498
6.4976432e-15
-0.032828313
6.2504559e-15
-0.036733998
1.1383618e-18
-0.040607579
-5.7789528e-15
-0.044480612
0
-0.048283677
0
-0.05180782
1.0269875e-14
-0.054839715
0
-0.057269903
0
-0.059147335
9.1212798e-15
-0.060690098
-8.7683908e-15
-0.062088452
-8.4295943e-15
-0.063245909
0
-0.064336768
1.5592118e-14
-0.066055003
0
-0.068767659
0
-0.072651842
-6.4023334e-07
-0.00026605379
-3.6120447e-06
-0.00053760666
-8.1679073e-06
-0.00078702495
-1.3241933e-05
-0.0010193701
-1.7939283e-05
-0.0012459941
-2.1683689e-05
-0.0015096845
-2.3806285e-05
-0.0018315922
-2.2666651e-05
-0.0021993231
-1.5854331e-05
-0.0026328995
0
-0.0030538676
0
-0.0038235028
0
-0.0047281559
-4.783025e-15
-0.0057910557
-5.8369845e-19
-0.007242573
0
-0.0090102303
0
-0.01078323
0
-0.012633881
0
-0.014786485
0
-0.017298663
-7.3012604e-15
-0.020213772
0
-0.023557588
-6.7595111e-15
-0.027196818
0
-0.030994273
0
-0.034889531
6.0153514e-15
-0.038829878
-5.7836824e-15
-0.042761906
5.5615077e-15
-0.046628917
0
-0.050331222
0
-0.053671252
-9.8835604e-15
-0.056474456
0
-0.058676015
-1.8266033e-14
-0.060328963
8.779689e-15
-0.061681375
8.4396817e-15
-0.062937391
0
-0.063962502
-7.8032894e-15
-0.06491973
0
-0.066539624
0
-0.069201833
1.3896314e-14
-0.073060474
-0.00026775066
0
-1.860896e-06
-0.00053921405
-5.7308837e-06
-0.00078841045
-1.0726114e-05
-0.0010211913
-1.6012906e-05
-0.0012491248
-2.1076068e-05
-0.0015143836
-2.5458886e-05
-0.0018397219
-2.7914572e-05
-0.0022150072
-2.6509796e-05
-0.002658332
-1.8366063e-05
-0.0031160591
0
-0.0035539967
0
-0.004393929
0
-0.0053666641
5.8332465e-19
-0.0067133549
4.4274663e-15
-0.008382465
4.2600078e-15
-0.010043021
0
-0.011755354
-3.9448676e-15
-0.013760665
0
-0.016113029
0
-0.018852343
0
-0.02203494
0
-0.025532267
0
-0.029206679
1.3612668e-18
-0.03303817
-6.0192446e-15
-0.037028124
5.7904759e-15
-0.04107222
0
-0.045007947
-5.3545051e-15
-0.048787948
0
-0.052333628
0
-0.055460911
-9.5133929e-15
-0.058024582
0
-0.059992783
8.791502e-15
-0.061429975
0
-0.062601994
-8.1246397e-15
-0.063735471
-7.8112859e-15
-0.064640441
0
-0.065465308
0
-0.066991229
-1.3902875e-14
-0.069601411
1.337952e-14
-0.073436971
-0.0005411006
0
-0.00026972756
6.4971966e-07
-2.9473394e-06
-0.00079006997
-7.520581e-06
-0.0010234669
-1.2968473e-05
-0.0012527053
-1.8809605e-05
-0.0015194868
-2.4743961e-05
-0.0018483102
-2.9866301e-05
-0.0022304611
-3.2653281e-05
-0.0026814005
-3.069371e-05
-0.0031513928
-2.083029e-05
-0.0036048327
4.9726207e-15
-0.0040852528
0
-0.0049808932
0
-0.0062282285
6.9618262e-19
-0.0078022096
0
-0.0093572249
0
-0.010940339
3.9458238e-15
-0.012806604
3.7965518e-15
-0.015006846
0
-0.017572949
0
-0.020591343
0
-0.023942799
0
-0.027488601
-6.2637611e-15
-0.03123185
-6.0240334e-15
-0.035220801
0
-0.039367685
5.5741806e-15
-0.043409907
0
-0.04724285
-1.0984371e-18
-0.050897015
0
-0.054268077
0
-0.057155921
0
-0.059476971
0
-0.061221815
0
-0.062450778
6.1085329e-19
-0.063462669
-7.8210849e-15
-0.064486665
-7.5197358e-15
-0.065281674
0
-0.065979683
0
-0.067406438
0
-0.069970053
1.2882418e-14
-0.073785044
-0.00079198464
0
-0.00054330091
1.880174e-06
-0.00027202032
1.2775291e-06
-3.8661947e-06
-0.0010261658
-9.0939092e-06
-0.001256677
-1.5232152e-05
-0.0015248918
-2.2081216e-05
-0.0018570574
-2.9038343e-05
-0.0022456419
-3.4941444e-05
-0.0027032827
-3.7790409e-05
-0.0031825699
-3.4795612e-05
-0.0036526062
-2.3211511e-05
-0.0041173552
0
-0.0046262456
0
-0.0057850743
-8.857771e-15
-0.0072660729
5.8451192e-19
-0.0087220452
-4.866674e-19
-0.010185204
-3.9466637e-15
-0.011920799
3.7981497e-15
-0.013977075
0
-0.016374125
0
-0.019227816
0
-0.022430316
0
-0.025841411
6.2678589e-15
-0.02948131
-6.0300407e-15
-0.033423729
0
-0.037615938
0
-0.0417759
1.3369059e-18
-0.045684984
1.1786144e-18
-0.049395495
-1.0563187e-18
-0.05293002
0
-0.056103723
0
-0.058755645
-1.7630635e-14
-0.060835217
0
-0.062360848
0
-0.063398959
7.8311569e-15
-0.064263952
0
-0.06519694
3.9190739e-19
-0.0658902
0
-0.066458222
0
-0.067791054
-1.2888321e-14
-0.070309718
1.2404221e-14
-0.074109278
-0.0010292769
0
-0.000794273
2.9672226e-06
-0.00054588946
3.6881737e-06
-0.00027468736
1.8419421e-06
-4.6762439e-06
-0.0012609985
-1.0682082e-05
-0.0015305522
-1.7881805e-05
-0.0018657608
-2.5926604e-05
-0.0022603283
-3.3973051e-05
-0.0027239884
-4.0414527e-05
-0.0032116231
-4.2822533e-05
-0.0036941364
-3.8748209e-05
-0.0041766612
-2.5504513e-05
-0.0046331646
0
-0.005378297
0
-0.0067703967
0
-0.0081337202
-4.1007669e-15
-0.0094852239
3.9468585e-15
-0.011099395
0
-0.013020223
6.5982981e-19
-0.015254043
-7.6445044e-19
-0.01794419
-6.772969e-15
-0.020995428
0
-0.024263182
0
-0.027786004
0
-0.031649047
-5.8052237e-15
-0.035822475
5.5843397e-15
-0.040060661
0
-0.044066982
5.1657552e-15
-0.047833393
-4.9663338e-15
-0.051471563
4.7751565e-15
-0.054872766
0
-0.057846036
0
-0.060249304
-8.4851412e-15
-0.062091329
0
-0.063414567
0
-0.064276967
-7.5382329e-15
-0.065014206
7.2478119e-15
-0.065870626
3.7430161e-19
-0.066466548
6.7032134e-15
-0.066905427
0
-0.06814442
0
-0.070625711
0
-0.074412781
-0.0012655952
0
-0.0010329557
3.8915558e-06
-0.00079695828
5.8092514e-06
-0.00054887574
5.3036768e-06
-0.00027772169
2.2990517e-06
-5.4935647e-06
-0.0015363838
-1.2541369e-05
-0.0018744114
-2.1001936e-05
-0.0022741765
-3.0333908e-05
-0.0027434219
-3.9275554e-05
-0.0032386462
-4.5777391e-05
-0.0037322959
-4.7656694e-05
-0.0042272515
-4.2550704e-05
-0.0047085312
-2.8247422e-05
-0.0053603761
0
-0.0063067343
0
-0.0075886882
0
-0.0088385238
0
-0.01033867
-3.7997889e-15
-0.012132173
3.6565595e-15
-0.014210416
0
-0.016739933
6.7746703e-15
-0.01963906
0
-0.022755947
0
-0.026145384
6.0380003e-15
-0.029902488
0
-0.034001715
0
-0.038244716
5.3761437e-15
-0.042339895
5.1696527e-15
-0.046176885
4.9730253e-15
-0.049883274
4.7820233e-15
-0.053459841
0
-0.056722863
0
-0.059480826
0
-0.061639611
1.0093779e-18
-0.063249198
7.852705e-15
-0.064384902
0
-0.065088978
7.2574798e-15
-0.065718329
0
-0.06651354
3.5444616e-19
-0.067010433
0
-0.067320119
0
-0.068473302
0
-0.070921024
-1.150135e-14
-0.074699046
-0.0015422593
0
-0.0012706795
4.7120075e-06
-0.0010372098
7.6197553e-06
-0.00079999467
8.3378572e-06
-0.00055225048
6.6019617e-06
-0.0002811059
2.6028135e-06
-6.4510285e-06
-0.0018829973
-1.4734913e-05
-0.0022871069
-2.457185e-05
-0.002761484
-3.5052209e-05
-0.0032636916
-4.4471261e-05
-0.0037673193
-5.0916892e-05
-0.0042737096
-5.2317033e-05
-0.0047735965
-4.7150845e-05
-0.00546162
-3.183473e-05
-0.0062548746
0
-0.0070732305
0
-0.0082426274
0
-0.0096353868
6.164165e-19
-0.011309779
3.6573637e-15
-0.013240713
0
-0.015613594
0
-0.018361085
-8.2180129e-19
-0.02132143
0
-0.024561443
0
-0.028187624
5.8132311e-15
-0.032168305
0
-0.036339424
5.3791119e-15
-0.040465201
5.1757968e-15
-0.044388254
4.9782308e-15
-0.048169023
-4.786425e-15
-0.051868725
4.6024959e-15
-0.055369583
-8.8511744e-15
-0.058471204
0
-0.061010931
0
-0.062916176
-7.8629409e-15
-0.06431091
0
-0.065276054
0
-0.065841335
-6.9864299e-15
-0.066386037
0
-0.067123839
3.3682188e-19
-0.067523125
0
-0.067707814
-1.1957054e-14
-0.068778913
1.1506327e-14
-0.071199957
-1.1075549e-14
-0.074971622
-0.0018913341
0
-0.0015485129
5.5380024e-06
-0.0012762553
9.2335372e-06
-0.0010419448
1.0940524e-05
-0.00080345504
1.0358496e-05
-0.00055608738
7.4542379e-06
-0.00028487944
2.7050253e-06
-7.5813901e-06
-0.0022992157
-1.7239817e-05
-0.0027780527
-2.8385973e-05
-0.0032867157
-3.9674154e-05
-0.0037993361
-4.9441358e-05
-0.0043162596
-5.5883642e-05
-0.0048334156
-5.7997662e-05
-0.0055503092
-5.3138693e-05
-0.0063822287
-3.5139261e-05
-0.0069754574
4.1028949e-15
-0.0076810843
0
-0.0089860214
-3.801041e-15
-0.0105477
3.6587176e-15
-0.012340251
3.5209849e-15
-0.014563467
0
-0.017160717
0
-0.019961715
-3.1403311e-15
-0.023040788
0
-0.026516832
0
-0.030350133
0
-0.034392735
0
-0.038475259
0
-0.042476049
4.9831094e-15
-0.046356492
4.7927993e-15
-0.050135732
1.1312972e-18
-0.053799798
-4.4307585e-15
-0.057187873
4.2607908e-15
-0.060114503
0
-0.062426102
0
-0.064094965
7.5702245e-15
-0.065281136
-7.2773268e-15
-0.066092577
6.9956666e-15
-0.066541995
6.726575e-15
-0.067017007
6.4677884e-15
-0.067704964
-6.2203461e-15
-0.06800423
0
-0.068068236
-1.1513747e-14
-0.069066813
0
-0.07146541
-1.0665842e-14
-0.075234525
-0.0023103244
0
-0.0018997978
6.5064229e-06
-0.0015551435
1.0855535e-05
-0.0012820667
1.3268299e-05
-0.0010472422
1.3599268e-05
-0.00080746397
1.1675454e-05
-0.00056051448
7.7269614e-06
-0.00028911348
2.5542953e-06
-8.8696236e-06
-0.0027930876
-1.9910197e-05
-0.0033075671
-3.2121957e-05
-0.0038282992
-4.4095702e-05
-0.0043550004
-5.4260923e-05
-0.0048882013
-6.1954287e-05
-0.0056293846
-6.5328806e-05
-0.006488739
-5.8587367e-05
-0.0071222182
-3.7353925e-05
-0.0075360175
0
-0.0083756896
0
-0.009841521
0
-0.011505914
7.8955416e-19
-0.013585001
-3.3907308e-15
-0.016036171
0
-0.018677797
3.1415286e-15
-0.021589696
-3.0236394e-15
-0.024903918
0
-0.028575058
0
-0.032461243
5.388784e-15
-0.03644584
0
-0.040460826
4.9862615e-15
-0.044440875
-4.7963689e-15
-0.048314162
0
-0.052070383
1.0956109e-18
-0.055659197
0
-0.058913041
-4.1009292e-15
-0.061650938
7.8849624e-15
-0.063742007
0
-0.065169856
7.2876743e-15
-0.06616373
0
-0.066840922
-6.7354466e-15
-0.06719602
6.4761343e-15
-0.067615148
0
-0.068252269
5.9896233e-15
-0.068456006
0
-0.068405547
0
-0.069339607
0
-0.071721801
-1.0271651e-14
-0.075490898
-0.0028064801
0
-0.0023208293
7.649975e-06
-0.0019084579
1.2758126e-05
-0.0015617532
1.560334e-05
-0.0012881382
1.6508467e-05
-0.001053166
1.5338839e-05
-0.00081213286
1.207985e-05
-0.00056562494
7.2772873e-06
-0.00029383497
2.094437e-06
-1.0241908e-05
-0.003326195
-2.2525587e-05
-0.0038540927
-3.5692751e-05
-0.0043899689
-4.8383975e-05
-0.0049377105
-6.0154439e-05
-0.0056992306
-6.97332e-05
-0.0065803159
-7.1921734e-05
-0.0072405603
-6.2215428e-05
-0.007707887
-3.9198105e-05
-0.0081786384
0
-0.0091758257
0
-0.010734658
0
-0.012675336
0
-0.014984131
3.2638468e-15
-0.01746929
3.1425879e-15
-0.02021201
0
-0.023358391
-9.5409242e-19
-0.026860448
0
-0.03057744
5.3923517e-15
-0.034428352
0
-0.03838716
0
-0.042422977
4.8008128e-15
-0.046415819
0
-0.050245767
0
-0.053942236
0
-0.057440625
-4.1063486e-15
-0.060536634
3.9478979e-15
-0.063088035
0
-0.064956548
0
-0.066155034
0
-0.066964104
0
-0.06752827
0
-0.067804668
3.8255008e-19
-0.068177078
0
-0.068770513
5.7673392e-15
-0.068875089
-5.5480352e-15
-0.068722548
-1.0676836e-14
-0.069602599
0
-0.071971209
0
-0.075743272
-0.0033424957
0
-0.0028190292
8.949706e-06
-0.0023306375
1.5002573e-05
-0.0019168636
1.8346292e-05
-0.0015683221
1.9419199e-05
-0.0012944747
1.8635582e-05
-0.0010598166
1.5882616e-05
-0.00081754205
1.1357064e-05
-0.00057151395
5.9524952e-06
-0.00029906241
1.2650224e-06
-1.1586623e-05
-0.0038767326
-2.5026886e-05
-0.0044211876
-3.9162787e-05
-0.0049817597
-5.3625992e-05
-0.0057597488
-6.7634596e-05
-0.0066579368
-7.6670035e-05
-0.007341907
-7.6332726e-05
-0.0078473122
-6.530583e-05
-0.0083821118
-4.1321603e-05
-0.0089184125
0
-0.010009814
0
-0.01183122
0
-0.014000655
0
-0.016334439
3.1426666e-15
-0.018910234
0
-0.021886188
-2.9125753e-15
-0.025216688
2.8023128e-15
-0.028757707
0
-0.032454112
0
-0.036314928
0
-0.04033834
-4.8049427e-15
-0.044417741
-1.3885675e-18
-0.048351804
-4.4459847e-15
-0.052118191
0
-0.055760582
-4.1115664e-15
-0.059133735
0
-0.062066475
0
-0.064429228
0
-0.066078955
7.0258557e-15
-0.067045328
0
-0.067691765
0
-0.068158883
0
-0.068370894
0
-0.068708541
0
-0.069250183
-5.5532147e-15
-0.069265873
5.3425747e-15
-0.069023629
1.0282254e-14
-0.069857065
0
-0.072218195
9.5275438e-15
-0.075994563
-0.0038960171
0
-0.0033576768
1.0334459e-05
-0.0028305804
1.7550944e-05
-0.0023391743
2.157449e-05
-0.0019249399
2.2843846e-05
-0.0015748915
2.19267e-05
-0.001301152
1.9313929e-05
-0.0010673381
1.4945969e-05
-0.00082388371
9.2740247e-06
-0.00057834531
3.5875426e-06
-0.00030478762
0
-1.2872131e-05
-0.0044483612
-2.74575e-05
-0.0050200901
-4.3388518e-05
-0.0058107508
-6.0219883e-05
-0.0067223632
-7.4251687e-05
-0.0074272804
-8.1324492e-05
-0.0079678759
-8.0150571e-05
-0.008550595
-6.8885931e-05
-0.0091594884
-4.3592404e-05
-0.0096908615
0
-0.011038012
0
-0.013081298
3.2653086e-15
-0.015269901
8.5278063e-19
-0.017683272
3.0259898e-15
-0.020491487
-2.9136911e-15
-0.023649983
0
-0.027012544
2.6983879e-15
-0.030541112
0
-0.034277152
0
-0.038232125
0
-0.042326843
-4.6278644e-15
-0.046366286
0
-0.050215625
0
-0.053937964
0
-0.057510046
3.9592731e-15
-0.060744383
0
-0.063501562
3.658835e-15
-0.065676511
0
-0.067108753
0
-0.067860446
6.5024477e-15
-0.068352711
0
-0.0687383
3.8519002e-19
-0.068898245
0
-0.069203057
0
-0.069697398
0
-0.069627744
5.1450641e-15
-0.069310783
0
-0.070109187
0
-0.072464239
-9.1738887e-15
-0.076248908
-0.0044709823
0
-0.0039133423
1.1690883e-05
-0.0033715756
2.0269733e-05
-0.0028400785
2.5235424e-05
-0.0023463616
2.6864966e-05
-0.0019325813
2.5807835e-05
-0.0015814961
2.2729011e-05
-0.0013082273
1.818861e-05
-0.0010759595
1.2217375e-05
-0.0008313837
5.5817383e-06
-0.00058613127
7.3927788e-15
-0.0002830306
0
-1.4121458e-05
-0.0050524099
-3.0399162e-05
-0.0058522965
-4.8653184e-05
-0.0067741435
-6.6026312e-05
-0.0074976774
-7.8733e-05
-0.0080707143
-8.5427342e-05
-0.0086975103
-8.4589194e-05
-0.0093616138
-7.2732518e-05
-0.0099804305
-4.6155421e-05
-0.010645335
0
-0.012210121
0
-0.014272558
0
-0.016530646
0
-0.019173757
-2.9146778e-15
-0.022163684
0
-0.025348294
-2.6996878e-15
-0.028700494
2.5983675e-15
-0.032290071
0
-0.036141777
0
-0.04018308
0
-0.044263416
0
-0.048213688
-4.2861844e-15
-0.052025041
-4.1212106e-15
-0.055731089
0
-0.059198904
0
-0.062266859
3.66461e-15