/*--------------------------------*- C++ -*----------------------------------*\
| =========                 |                                                 |
| \\      /  F ield         | OpenFOAM: The Open Source CFD Toolbox           |
|  \\    /   O peration     | Version:  v2012                                 |
|   \\  /    A nd           | Website:  www.openfoam.com                      |
|    \\/     M anipulation  |                                                 |
\*---------------------------------------------------------------------------*/
FoamFile
{
    version     2.0;
    format      ascii;
    class       volScalarField;
    location    "11.1188619505";
    object      p;
}
// * * * * * * * * * * * * * * * * * * * * * * * * * * * * * * * * * * * * * //

dimensions      [0 2 -2 0 0 0 0];


internalField   nonuniform List<scalar> 
9200
(
-0.0012957035
-0.0012327095
-0.0028409158
-0.0011731874
-0.0027039564
-0.0053295693
-0.0010752825
-0.002553333
-0.0051094909
-0.0076993914
-0.00094843168
-0.002326061
-0.0048336957
-0.0074096369
-0.010220982
-0.00081901899
-0.0020357847
-0.0044359014
-0.0070169004
-0.0098676392
-0.012846433
-0.00066434168
-0.0017328326
-0.0039289968
-0.0064651957
-0.0093599889
-0.012438484
-0.015612046
-0.00051121969
-0.0013852855
-0.0033849153
-0.005760359
-0.0086595487
-0.01182274
-0.015159301
-0.018521112
-0.00034767703
-0.0010367864
-0.0027688796
-0.0049946668
-0.0077597184
-0.010985289
-0.014443875
-0.018035178
-0.021575902
-0.00018617582
-0.00067429183
-0.0021373022
-0.0041308011
-0.0067741711
-0.0099012983
-0.013482898
-0.017231478
-0.021070098
-0.024769724
-2.4151776e-05
-0.00031785004
-0.001479921
-0.0032360909
-0.0056614308
-0.008706107
-0.012227468
-0.016164274
-0.020192689
-0.024259174
-0.028090157
0.00013347338
3.3122631e-05
-0.00082366402
-0.0023033291
-0.0044997064
-0.0073526237
-0.010834423
-0.014754633
-0.019040438
-0.023326136
-0.027591577
-0.031519045
0.00028584587
0.0003705022
-0.00017237191
-0.0013655802
-0.0032844808
-0.0059292732
-0.0092494492
-0.013180054
-0.017498517
-0.022114507
-0.026624584
-0.031050538
-0.035033324
0.00043096258
0.00069150723
0.00046144852
-0.00043075553
-0.0020549467
-0.0044339576
-0.0075703609
-0.011377295
-0.015763574
-0.020467768
-0.025384048
-0.030074882
-0.03461437
-0.038605865
0.00056773117
0.00099238958
0.0010717597
0.00048455556
-0.00082315369
-0.0029117817
-0.0057972134
-0.0094523566
-0.013761382
-0.018599526
-0.023666027
-0.028840846
-0.033658594
-0.038257151
-0.042206717
0.00069566245
0.0012709919
0.001652313
0.0013711188
0.00039009031
-0.0013790477
-0.0039808885
-0.0074070445
-0.011604487
-0.016422122
-0.0216983
-0.027091638
-0.032471235
-0.037352574
-0.041949435
-0.045804045
0.00081418302
0.0015265018
0.002198936
0.0022199394
0.0015721499
0.00013909632
-0.0021422716
-0.0052978552
-0.0092957779
-0.014052415
-0.019376906
-0.02506592
-0.030737676
-0.036256287
-0.041129511
-0.045659257
-0.04936518
0.00092364724
0.0017582622
0.002709071
0.0030246851
0.0027110469
0.0016263892
-0.00031124675
-0.0031506933
-0.0068970469
-0.011493189
-0.016820006
-0.022640103
-0.028703857
-0.034591753
-0.040172048
-0.044958665
-0.049353155
-0.052857571
0.0010244566
0.0019668304
0.0031808258
0.003781007
0.0037981331
0.0030676629
0.0014917592
-0.0010007901
-0.0044396814
-0.0088107743
-0.014028341
-0.019929899
-0.026223077
-0.032608537
-0.038635762
-0.0441899
-0.048806642
-0.052997202
-0.05624975
0.0011171974
0.0021525603
0.0036141634
0.0044856155
0.0048270605
0.0044518631
0.0032478952
0.0011263693
-0.0019650866
-0.006042283
-0.011071345
-0.01693109
-0.02340402
-0.030133387
-0.036770459
-0.042845599
-0.048277036
-0.05263836
-0.056557955
-0.059512167
0.001201782
0.0023169713
0.0040088996
0.0051374966
0.0057930734
0.0057705529
0.0049432855
0.0032074059
0.00049492981
-0.0032361825
-0.0079914749
-0.013713569
-0.020233487
-0.02726299
-0.034373433
-0.041173106
-0.047191141
-0.052397212
-0.056418014
-0.060003371
-0.062617945
0.001278655
0.0024609637
0.0043665997
0.0057356509
0.0066939832
0.0070176304
0.0065670456
0.0052247917
0.0029111401
-0.00043220291
-0.0048448114
-0.010323663
-0.016777815
-0.023970269
-0.03152448
-0.038938339
-0.04579206
-0.051636488
-0.056511668
-0.060110146
-0.063303622
-0.065543467
0.0013480058
0.0025863183
0.0046882677
0.0062813911
0.0075278277
0.0081897815
0.008111576
0.0071645313
0.0052610063
0.0023326431
-0.0016806675
-0.0068247006
-0.013083909
-0.020312426
-0.028177317
-0.036200009
-0.043813768
-0.050594368
-0.056140701
-0.060580286
-0.063680671
-0.06643183
-0.068268845
0.0014100296
0.0026944156
0.0049763246
0.0067753493
0.0082953759
0.0092843462
0.0095722501
0.0090170845
0.0075263208
0.0050285905
0.0014537564
-0.0032765848
-0.0092199895
-0.016331624
-0.024373396
-0.03288769
-0.041291102
-0.048973956
-0.055538743
-0.060658933
-0.064562875
-0.067097866
-0.069364657
-0.070778192
0.001464385
0.002787193
0.0052325789
0.007220239
0.0089965528
0.01030171
0.010945764
0.010776126
0.0096948533
0.0076311201
0.0045182334
0.00026074697
-0.0052555279
-0.012096055
-0.020143048
-0.029020243
-0.038125951
-0.046785266
-0.054380714
-0.060576426
-0.065143995
-0.068420498
-0.070333213
-0.072082736
-0.07305963
0.0015101331
0.0028664316
0.0054597503
0.0076178455
0.0096339815
0.011241384
0.012232062
0.012437582
0.011758163
0.010123553
0.0074785525
0.0037325458
-0.0012641769
-0.0076805687
-0.01554735
-0.024607735
-0.034308807
-0.043901058
-0.052652828
-0.059983608
-0.065652915
-0.069548069
-0.072116738
-0.073362059
-0.074570867
-0.075104984
0.0015452151
0.0029344015
0.0056600178
0.0079715795
0.010208886
0.012106109
0.013430398
0.014000692
0.013711589
0.012493974
0.010310344
0.0070898679
0.0026823204
-0.0031683688
-0.010660913
-0.019694092
-0.029821491
-0.040280278
-0.050199821
-0.058845752
-0.065721556
-0.070710131
-0.073824572
-0.075618763
-0.076164055
-0.07681801
-0.076909595
0.0015665994
0.002993439
0.005836043
0.0082838291
0.010724938
0.01289678
0.014543637
0.01546436
0.015554028
0.014736596
0.012995244
0.010294828
0.0065095535
0.0013570662
-0.005574572
-0.014343437
-0.024679043
-0.035871947
-0.046948789
-0.056983031
-0.065298512
-0.071525433
-0.075689025
-0.07792981
-0.078898184
-0.078723385
-0.0788172
-0.078472917
0.0015703753
0.0030466997
0.0059898435
0.008558311
0.011183984
0.013617542
0.015572525
0.016831208
0.017284884
0.01684989
0.01552416
0.013317055
0.010161978
0.0057748949
-0.00038341039
-0.0086456423
-0.018914695
-0.030656757
-0.042814404
-0.0542935
-0.064184879
-0.071931
-0.07732153
-0.080532079
-0.081824447
-0.081931591
-0.081028832
-0.080565522
-0.079799108
0.0015564862
0.0030961086
0.0061241726
0.0087972456
0.011590479
0.0142698
0.016521652
0.018101619
0.018907262
0.018834807
0.017893256
0.016138884
0.013588229
0.010023823
0.0048283035
-0.0026556269
-0.012577804
-0.024635517
-0.037739338
-0.050659786
-0.062255214
-0.071715618
-0.078652896
-0.083035261
-0.085185659
-0.085474538
-0.084700871
-0.083073617
-0.082063867
-0.080894288
0.0015187474
0.0031454485
0.0062400298
0.0090051186
0.011945681
0.01485904
0.01739209
0.019280078
0.020422081
0.020696478
0.020104395
0.018749972
0.016749032
0.014020942
0.0099090639
0.0035029929
-0.005801667
-0.017835082
-0.031684415
-0.045987473
-0.059365957
-0.070737731
-0.079466805
-0.085368929
-0.088594728
-0.08960183
-0.088852248
-0.087193174
-0.084854992
-0.083315976
-0.081760105
0.0014588786
0.0031853333
0.0063422731
0.0091825121
0.012256301
0.015385311
0.018190206
0.02036715
0.021834
0.022439006
0.022164297
0.021150628
0.019615683
0.017690728
0.014758527
0.0096439925
0.00132563
-0.010316604
-0.024633691
-0.040196495
-0.055391421
-0.068836287
-0.079613863
-0.087318522
-0.091984192
-0.093933757
-0.09373973
-0.091936109
-0.089400679
-0.086373768
-0.084327263
-0.082396546
0.0013814227
0.0032242371
0.0064097204
0.0093379821
0.012519627
0.015858639
0.018914729
0.02136952
0.023143407
0.02407016
0.024080915
0.023347955
0.022174506
0.020970521
0.019271115
0.015669494
0.0087418354
-0.0021493099
-0.01659636
-0.033225061
-0.050216172
-0.065863925
-0.078925552
-0.088734777
-0.095147072
-0.098408985
-0.098994232
-0.097566279
-0.094710995
-0.091320221
-0.087634182
-0.085105441
-0.082826857
0.0012889453
0.0032680469
0.006456118
0.0094382773
0.012752158
0.016270398
0.019578908
0.022284929
0.024356314
0.025594414
0.025865568
0.025355053
0.024421473
0.023813238
0.023345812
0.021446536
0.016254695
0.0065697864
-0.0076039423
-0.025032688
-0.043737707
-0.061680309
-0.077244655
-0.089451706
-0.097940965
-0.1028325
-0.10456269
-0.10372762
-0.10105641
-0.097167818
-0.09295293
-0.088643846
-0.085662588
-0.083105726
0.0011843184
0.0033193534
0.0064961012
0.0095041978
0.012895825
0.016652836
0.020166365
0.023129435
0.025468857
0.027020552
0.027528803
0.027188854
0.026365666
0.026181535
0.026894453
0.026835966
0.023713886
0.015713437
0.0022830111
-0.015602331
-0.035870883
-0.056153537
-0.074419735
-0.089314384
-0.10021093
-0.10707353
-0.11026478
-0.11037647
-0.10809559
-0.10419286
-0.099303044
-0.094303747
-0.089412668
-0.086013221
-0.083244499
0.0010717981
0.0033779937
0.0065334626
0.0095544754
0.012984406
0.016911222
0.020730966
0.023880359
0.026496814
0.028348866
0.029082118
0.028870938
0.028023198
0.0280547
0.029836904
0.031707963
0.030956635
0.025132103
0.012973596
-0.0049425436
-0.026550113
-0.049164837
-0.070304844
-0.088175147
-0.10181516
-0.11099422
-0.1159839
-0.11734844
-0.11579464
-0.11207004
-0.10696567
-0.10111804
-0.095380708
-0.089951118
-0.086167703
-0.083182397
0.00095585617
0.0034442996
0.0065671204
0.0095950494
0.013035925
0.017115722
0.021127413
0.024615069
0.027411228
0.029597245
0.030534694
0.030417634
0.029425016
0.029421501
0.032109877
0.035938065
0.037818949
0.034652751
0.024353363
0.0069056055
-0.01573445
-0.040610598
-0.064764222
-0.085891669
-0.10262336
-0.11447351
-0.12160223
-0.12454147
-0.12400512
-0.12077498
-0.11563247
-0.10937141
-0.10261842
-0.09619426
-0.090270473
-0.086134316
-0.082909995
0.00084989782
0.0035185864
0.0065987364
0.0096230646
0.013061972
0.017271687
0.021490249
0.025132617
0.028304472
0.030738546
0.03190309
0.03185631
0.030591687
0.030291127
0.03366359
0.039417223
0.044131526
0.044094407
0.036272453
0.019871135
-0.003412813
-0.030408522
-0.057673161
-0.082331096
-0.10251386
-0.11740894
-0.12702316
-0.13185757
-0.13263817
-0.13017452
-0.1252881
-0.11877316
-0.11141231
-0.10381329
-0.096756919
-0.090384442
-0.085932456
-0.082454285
0.00077042467
0.0035948322
0.0066299181
0.0096405595
0.013051566
0.017410042
0.021784804
0.025657476
0.028919799
0.031873316
0.03317329
0.033195261
0.031580189
0.030659943
0.034461268
0.042058017
0.049727168
0.053258585
0.048561279
0.033846903
0.010392799
-0.018504428
-0.04892399
-0.077369374
-0.10137798
-0.11971351
-0.1321772
-0.13922376
-0.14161283
-0.14019055
-0.13581373
-0.12931634
-0.12148993
-0.11309544
-0.10471456
-0.097082542
-0.090307681
-0.085589566
-0.081847168
0.00075874221
0.0036621802
0.0066555891
0.0096453039
0.012995165
0.017509861
0.022052155
0.026104555
0.029549143
0.032731648
0.034438582
0.034459634
0.03238677
0.03058953
0.034464164
0.043773067
0.054458904
0.061932076
0.061021471
0.048696421
0.025618175
-0.0048772519
-0.038433009
-0.070895755
-0.099116672
-0.1213209
-0.13701994
-0.14660277
-0.15087491
-0.15075453
-0.1471391
-0.14089563
-0.13285217
-0.12378697
-0.11443183
-0.1053368
-0.097185571
-0.090053012
-0.085116564
-0.081148019
0.0037223987
0.00082406181
0.0066896475
0.009635902
0.012883423
0.017567415
0.022258509
0.02653472
0.030042464
0.033668393
0.03547796
0.035693815
0.033120783
0.030029067
0.033702904
0.044515817
0.058159016
0.069936442
0.07343459
0.064241985
0.042163842
0.010447738
-0.026147287
-0.062817209
-0.095643095
-0.1221813
-0.14154012
-0.15399279
-0.16041245
-0.16182348
-0.15920301
-0.15344604
-0.14540661
-0.13589643
-0.12567394
-0.11543561
-0.10569684
-0.097082476
-0.089634287
-0.084502058
-0.080368225
0.0067076815
0.0037034312
0.00095367146
0.0096291305
0.012741759
0.017610097
0.022429329
0.026948865
0.030455075
0.034496868
0.036665026
0.03684759
0.03370317
0.029179623
0.032042257
0.044263468
0.060738825
0.077000009
0.085588207
0.080280326
0.059877703
0.027402919
-0.012059679
-0.053065257
-0.090883132
-0.12226142
-0.14575547
-0.16144008
-0.17025757
-0.17339911
-0.1719648
-0.16690905
-0.15909181
-0.14934419
-0.13845682
-0.12716481
-0.11612344
-0.10581134
-0.096792322
-0.089073924
-0.083767629
-0.079511588
0.0095826459
0.006697006
0.0036639642
0.0011278212
0.012567654
0.017634002
0.022554854
0.027325739
0.030770118
0.035257796
0.037817993
0.038215008
0.034510109
0.027747441
0.029759719
0.042828151
0.062084315
0.08297409
0.097190185
0.096590579
0.078571765
0.045855625
0.0037919925
-0.041610028
-0.08477913
-0.12154058
-0.14971255
-0.16903735
-0.18050463
-0.18553129
-0.18542598
-0.18123814
-0.1738487
-0.16407137
-0.15271452
-0.14054682
-0.1282766
-0.11651387
-0.10569608
-0.096331117
-0.088387279
-0.082932429
-0.07858958
0.012354543
0.0095763058
0.0066578769
0.0036159266
0.0012909207
0.017598224
0.022646949
0.027516108
0.030866302
0.035911576
0.038960287
0.039616804
0.035707868
0.026489059
0.026295672
0.040542795
0.062010747
0.087566784
0.10806155
0.11285033
0.09801421
0.065624814
0.021295495
-0.02846063
-0.077299127
-0.12000996
-0.15348028
-0.17692679
-0.19131346
-0.19834184
-0.19963365
-0.19642118
-0.18961877
-0.18001717
-0.16839068
-0.15553057
-0.1421843
-0.12902883
-0.11662601
-0.10536983
-0.095710964
-0.087586787
-0.082007416
-0.077607471
0.01753944
0.012284473
0.0095356203
0.0066172468
0.0035577291
0.0014307218
0.022818456
0.027384873
0.031087678
0.036368497
0.040158999
0.041003657
0.037506564
0.024639066
0.0223132
0.036635531
0.060672293
0.090759871
0.11787802
0.1289011
0.11789365
0.086466736
0.040283353
-0.013698888
-0.068436234
-0.11767385
-0.15714443
-0.18529429
-0.20291869
-0.21203274
-0.2147081
-0.21248148
-0.2063656
-0.19710798
-0.1854232
-0.17206357
-0.15781108
-0.14338971
-0.12944313
-0.11647915
-0.10484845
-0.094948172
-0.08668543
-0.081006083
-0.076568906
0.023050397
0.017286151
0.012559307
0.009463798
0.0065841133
0.0035020938
0.0015505894
0.027308134
0.031634505
0.036893175
0.041446473
0.042491092
0.039910349
0.023042871
0.016776303
0.031349442
0.057104595
0.092145404
0.12655189
0.14427054
0.13805273
0.10806001
0.060504287
0.0025455836
-0.058241295
-0.11454554
-0.16080034
-0.19436228
-0.21562907
-0.22690421
-0.23085529
-0.22950659
-0.22407143
-0.21527711
-0.20372379
-0.19008448
-0.17510993
-0.1595784
-0.14418596
-0.12954216
-0.11609753
-0.10415537
-0.094060577
-0.085695447
-0.079938071
-0.075478462
0.027346173
0.0232757
0.017156632
0.012866786
0.0094260327
0.0065648672
0.003449086
0.0016516139
0.032116088
0.037878223
0.042957925
0.04448436
0.042787401
0.020869549
0.012930377
0.022624352
0.051035668
0.091099681
0.13345711
0.15885949
0.1577877
0.13013782
0.081611741
0.020043633
-0.046789994
-0.11067146
-0.16454429
-0.20437771
-0.2298256
-0.24336385
-0.24839315
-0.24766227
-0.24276363
-0.23445494
-0.22319486
-0.20949346
-0.19402437
-0.17755464
-0.16085603
-0.1445987
-0.12934985
-0.11549954
-0.10330957
-0.093063516
-0.084626244
-0.078812024
-0.074349438
0.032725309
0.027459009
0.023121888
0.017093924
0.013091233
0.0093951555
0.0065390906
0.0034020676
0.001734546
0.039299572
0.044520092
0.047110526
0.042890029
0.017828239
0.0089262851
0.013568078
0.039097913
0.085733711
0.13879148
0.17192004
0.17728157
0.15203986
0.10327733
0.038482282
-0.034261162
-0.10609073
-0.16848192
-0.21560002
-0.24595146
-0.26193391
-0.26777013
-0.26722306
-0.26252677
-0.25459031
-0.24371221
-0.23016651
-0.21444835
-0.19726963
-0.17942447
-0.16167079
-0.14465442
-0.12888968
-0.11470947
-0.10232805
-0.091966691
-0.083485761
-0.077639198
-0.073202564
0.041025876
0.033353454
0.027523084
0.022705849
0.017033051
0.013134032
0.0093625943
0.0065097065
0.0033580693
0.0017998118
0.047647836
0.048529265
0.037723768
0.018270837
0.0063718219
0.0055775083
0.026585694
0.072660686
0.13852743
0.18448212
0.19537742
0.17409462
0.12487332
0.057550801
-0.020869719
-0.10093476
-0.172684
-0.22829074
-0.26450037
-0.2832525
-0.28958576
-0.28859796
-0.28353186
-0.27565718
-0.26513961
-0.25192997
-0.2362395
-0.21862007
-0.19984785
-0.18074327
-0.16205255
-0.14437965
-0.12819007
-0.11374801
-0.10122009
-0.09077726
-0.082287781
-0.076435681
-0.072046904
0.051040005
0.042665326
0.033698034
0.027719546
0.022089095
0.017027801
0.013129092
0.0093343607
0.0064664168
0.0033176532
0.0018467206
0.047754596
0.034402257
0.024818106
0.0056570994
0.00036780162
0.018033157
0.061526753
0.12968158
0.19044247
0.21413214
0.19336459
0.1464546
0.076619521
-0.0068743472
-0.095291389
-0.17728956
-0.24267264
-0.28599528
-0.30807127
-0.31460809
-0.31236172
-0.30606395
-0.29767768
-0.28732807
-0.27456833
-0.25918665
-0.24145559
-0.22203773
-0.20178463
-0.18153747
-0.16202861
-0.14380725
-0.12727506
-0.1126244
-0.099991548
-0.089513992
-0.08105622
-0.075212732
-0.070862651
0.048762226
0.052294895
0.043587847
0.033575228
0.02785897
0.021562024
0.016911891
0.013078152
0.0092957228
0.0064074676
0.003278361
0.0018715948
0.037981454
0.032139014
0.00746449
-0.00043678401
0.016039377
0.057041438
0.12152207
0.19002249
0.22699435
0.21494179
0.16608214
0.095719334
0.007204603
-0.089363701
-0.18229842
-0.25900815
-0.31095962
-0.33723923
-0.34378656
-0.33928688
-0.33055681
-0.32074432
-0.31012872
-0.29781508
-0.28301051
-0.26554352
-0.24584752
-0.22472658
-0.20310678
-0.18184421
-0.16163858
-0.14296531
-0.12615335
-0.11134319
-0.098667136
-0.088215588
-0.079807205
-0.073959619
-0.069570461
0.043562984
0.051674136
0.052747858
0.043284874
0.033487106
0.027842138
0.02132073
0.016708117
0.013014339
0.0092626318
0.0063288187
0.0032350091
0.0018705833
0.036961009
0.012926599
0.0046003365
0.019304284
0.059919035
0.11976511
0.18911008
0.23769307
0.23180238
0.18699971
0.1129842
0.021480126
-0.083440601
-0.18791987
-0.27734964
-0.33994395
-0.37169431
-0.37826054
-0.37037407
-0.35763235
-0.34505062
-0.33340524
-0.32135451
-0.30734792
-0.29056253
-0.27103988
-0.24943804
-0.22671171
-0.20385436
-0.18170849
-0.16091442
-0.14186164
-0.12482759
-0.10993715
-0.09730349
-0.086906306
-0.078515083
-0.072569826
-0.068169672
0.042488728
0.048978672
0.054182861
0.052676547
0.042494257
0.033630376
0.027669903
0.021264592
0.016543317
0.012926784
0.009246841
0.0062210759
0.0031813932
0.0018477804
0.023820057
0.015869624
0.027570095
0.065501981
0.12065193
0.18898069
0.2419247
0.25089536
0.20522809
0.13173885
0.03412689
-0.077378313
-0.19413044
-0.29805516
-0.37329976
-0.41243644
-0.41937154
-0.40689311
-0.38814498
-0.37092833
-0.35705361
-0.34482263
-0.33174368
-0.31608417
-0.29727677
-0.27569303
-0.2522452
-0.22802855
-0.20407029
-0.18116373
-0.15986223
-0.14049639
-0.12334002
-0.10848615
-0.095934928
-0.085530837
-0.077009404
-0.071079801
-0.066704594
0.036055327
0.051094699
0.055572527
0.05646864
0.051904973
0.041775619
0.033621238
0.027390243
0.021208899
0.016379933
0.012791661
0.0092038831
0.0060802491
0.0031247258
0.0018005716
0.028828666
0.03984898
0.071340923
0.11929312
0.18031519
0.24121851
0.26421478
0.23116682
0.14959492
0.048786315
-0.072717947
-0.20093808
-0.32082128
-0.4117417
-0.46040443
-0.46861888
-0.45040503
-0.42324139
-0.39889161
-0.38102897
-0.36781284
-0.35563998
-0.34155719
-0.32410047
-0.30316357
-0.27950813
-0.25429606
-0.228721
-0.20379033
-0.18021183
-0.15847853
-0.1389231
-0.12179846
-0.10703685
-0.09447111
-0.083803145
-0.075406638
-0.069517615
-0.065176586
0.042716157
0.048584792
0.058799797
0.060225734
0.057457054
0.051036719
0.041330749
0.033370521
0.027039468
0.021102775
0.01626046
0.012568967
0.0090928688
0.0059299851
0.0030603636
0.0017325408
0.051609058
0.077537082
0.11900632
0.16250517
0.22470862
0.26982628
0.25034921
0.18086137
0.065427646
-0.065725985
-0.20919862
-0.34616784
-0.45495412
-0.51689838
-0.527689
-0.50275986
-0.46438703
-0.42969553
-0.40537419
-0.3898874
-0.37837005
-0.36628642
-0.35091345
-0.33139812
-0.30820651
-0.28249713
-0.25562958
-0.22882244
-0.20301081
-0.17884407
-0.15682962
-0.13728306
-0.12026464
-0.10545223
-0.09247907
-0.08196855
-0.073722045
-0.067890389
-0.063587277
0.063249272
0.054721906
0.058212068
0.064303855
0.062639599
0.057371484
0.050261477
0.040947692
0.033018778
0.026688386
0.020969789
0.016057176
0.012294243
0.0089283308
0.0057782331
0.002986232
0.0016482411
0.085443758
0.1186801
0.14828543
0.1908465
0.25330539
0.26189101
0.20462101
0.1021774
-0.052260026
-0.21574909
-0.37372311
-0.50443204
-0.58213008
-0.59859131
-0.56624024
-0.51345449
-0.46437411
-0.4302714
-0.41059013
-0.3991528
-0.38942158
-0.37695109
-0.35980048
-0.33792659
-0.31238946
-0.28468516
-0.25627125
-0.22831897
-0.20171534
-0.177141
-0.15509592
-0.13565579
-0.11854607
-0.10310326
-0.09036833
-0.080042677
-0.071972594
-0.066198145
-0.061938186
0.089169313
0.071675199
0.064148473
0.064919224
0.066902987
0.06309127
0.056817007
0.049453666
0.040508734
0.032659644
0.026355836
0.020659697
0.015767231
0.012002344
0.0087120725
0.0056284303
0.002897902
0.001552506
0.11469176
0.13735044
0.1521133
0.20863883
0.25379545
0.21972689
0.13189145
-0.011239229
-0.20968192
-0.4022043
-0.55819042
-0.65888851
-0.68267596
-0.6434012
-0.57284848
-0.50440069
-0.45609105
-0.42950407
-0.41710685
-0.40994204
-0.40127353
-0.3876049
-0.36811558
-0.34362245
-0.31570951
-0.2860804
-0.2561904
-0.22718228
-0.19999958
-0.17532824
-0.15337768
-0.13378154
-0.11576902
-0.10061449
-0.088151804
-0.07805725
-0.070154996
-0.064443379
-0.060231195
0.10735305
0.088944175
0.075662185
0.069212999
0.068039584
0.067343083
0.062580969
0.056005585
0.048532871
0.039991076
0.032309308
0.025865014
0.020214702
0.015427441
0.011684902
0.008443001
0.0054656063
0.0027941727
0.001449867
0.12426403
0.12494048
0.14687386
0.21351874
0.22166497
0.15125995
0.02491748
-0.16865952
-0.41075002
-0.61884798
-0.74390491
-0.78403432
-0.7369655
-0.64524897
-0.5516606
-0.48350874
-0.44624934
-0.43129036
-0.42666662
-0.42274615
-0.41386993
-0.39806485
-0.37572223
-0.34843324
-0.31814334
-0.28662517
-0.25534047
-0.22552313
-0.19814063
-0.17352987
-0.15133603
-0.13048241
-0.11282251
-0.098004451
-0.08588231
-0.076004044
-0.0682729
-0.06262828
-0.058468414
0.10866833
0.09743447
0.086015548
0.076684118
0.071263762
0.068936656
0.066691571
0.061616745
0.054947672
0.04760012
0.039376012
0.031698938
0.025233719
0.019692945
0.015032573
0.011328115
0.0081361157
0.0052740337
0.0026745038
0.0013447801
0.099558426
0.087402123
0.13516393
0.19555093
0.16107705
0.050511023
-0.12897706
-0.37875585
-0.65292264
-0.84555341
-0.89952696
-0.85179759
-0.73441909
-0.60846927
-0.51339191
-0.4605431
-0.44056055
-0.43815777
-0.44004165
-0.43745499
-0.42689859
-0.40808197
-0.38248592
-0.35228267
-0.31959127
-0.28624515
-0.25384579
-0.22367617
-0.19628944
-0.1713139
-0.14742092
-0.12697177
-0.10973478
-0.095353226
-0.083544804
-0.073887912
-0.06632874
-0.060755652
-0.056651945
0.070390096
0.088868552
0.086829292
0.08206545
0.076004604
0.071527577
0.068584416
0.065515784
0.060321513
0.053814612
0.046512404
0.038468931
0.030852218
0.024498651
0.019107399
0.014572269
0.010924083
0.0077975886
0.005050653
0.0025387689
0.0012371808
0.037953561
0.044296223
0.12586845
0.15317074
0.066507923
-0.097794909
-0.34302964
-0.64686499
-0.91845478
-1.0431994
-0.98644219
-0.84493856
-0.67871547
-0.54731927
-0.47221965
-0.44402684
-0.44258312
-0.45156186
-0.4570373
-0.45355931
-0.43995445
-0.41739205
-0.38824507
-0.35500722
-0.31993727
-0.28507455
-0.25210457
-0.2218222
-0.19390534
-0.16667908
-0.14323553
-0.12329707
-0.10662117
-0.092636433
-0.081146146
-0.071710984
-0.064326232
-0.058828428
-0.054783666
-0.0095867973
0.046162439
0.069170213
0.077185402
0.077467623
0.074073024
0.070458925
0.067340306
0.063980441
0.058986863
0.052351918
0.045218975
0.037229756
0.029871882
0.023680649
0.018441361
0.014042663
0.010469852
0.0074225124
0.004792275
0.0023848069
0.0011269442
-0.044051961
0.019143605
0.11050116
0.070860638
-0.075901239
-0.31137774
-0.63107961
-0.96488608
-1.1662787
-1.1582712
-0.97763559
-0.76560708
-0.58818241
-0.48036915
-0.44009911
-0.44062469
-0.45570649
-0.47107431
-0.47695035
-0.47045981
-0.45256912
-0.42570208
-0.39274086
-0.35642902
-0.31931898
-0.283581
-0.25033017
-0.21929409
-0.18844274
-0.16169326
-0.1388589
-0.11961739
-0.10344532
-0.089863096
-0.078688217
-0.069477613
-0.062269003
-0.056849099
-0.052865854
-0.12491055
-0.056792878
0.024628537
0.052619952
0.067747048
0.072031081
0.070910691
0.068339373
0.065539981
0.06210341
0.056984726
0.05089044
0.043493379
0.035855396
0.028764835
0.022762243
0.017691579
0.01343857
0.0099599678
0.0070068394
0.0044972934
0.0022111959
0.0010134256
-0.10980694
0.016754013
0.055143834
-0.064206252
-0.28785625
-0.61228577
-0.99860135
-1.2963213
-1.3332967
-1.1499517
-0.87336996
-0.63482131
-0.48769181
-0.42804186
-0.42673327
-0.4510438
-0.47805019
-0.49556817
-0.49863381
-0.48734311
-0.46425298
-0.43261417
-0.39570553
-0.35667875
-0.31827854
-0.28201291
-0.2477077
-0.21289258
-0.18251793
-0.1564842
-0.13450383
-0.11588108
-0.10021902
-0.087034291
-0.076176338
-0.067191819
-0.060159403
-0.054818705
-0.050902613
-0.2344411
-0.19569584
-0.098375679
0.00044885952
0.035796977
0.057979001
0.065634475
0.066796624
0.065552914
0.063068763
0.059455899
0.055124783
0.048712156
0.04167051
0.034307961
0.027527999
0.021736097
0.016851081
0.012754953
0.0093899046
0.0065460673
0.0041648236
0.0020163636
0.00089625306
-0.12077404
0.002791172
-0.065949521
-0.27404552
-0.59869585
-1.0242435
-1.415127
-1.5669253
-1.3559369
-1.0167221
-0.69837115
-0.4930974
-0.4068577
-0.40147465
-0.43474805
-0.47619219
-0.50811528
-0.5233422
-0.52097794
-0.50344389
-0.47440894
-0.43773231
-0.39724739
-0.35637751
-0.31710158
-0.2793821
-0.24025448
-0.20587629
-0.17633213
-0.15132966
-0.1300996
-0.112103
-0.096942131
-0.08415601
-0.073615224
-0.064855022
-0.05799661
-0.052741668
-0.048896168
-0.27848937
-0.36724316
-0.26318687
-0.13006749
-0.024899713
0.020110017
0.047522693
0.058561825
0.0620561
0.061792002
0.059572447
0.057303372
0.052481028
0.04647574
0.039614454
0.032616396
0.026146247
0.020598118
0.015912272
0.011988441
0.0087542517
0.0060371683
0.0037932082
0.0017999362
0.00077449674
-0.10147547
-0.088157175
-0.27246293
-0.59231127
-1.0524011
-1.5272931
-1.7926865
-1.6649152
-1.2161727
-0.78315883
-0.50257864
-0.37645465
-0.36261514
-0.40544807
-0.46342127
-0.51306269
-0.54350113
-0.55267496
-0.54279685
-0.51788763
-0.48246181
-0.44112116
-0.39807077
-0.35585011
-0.31459566
-0.27076719
-0.23197951
-0.19855431
-0.17024076
-0.14613543
-0.12566465
-0.10828117
-0.093621366
-0.081233066
-0.071005578
-0.062462022
-0.055789784
-0.050622047
-0.046849233
-0.25937034
-0.45256856
-0.48615944
-0.32790235
-0.15003016
-0.048744373
0.0050997239
0.03669735
0.05098186
0.056134173
0.056836399
0.057011446
0.054182855
0.049816668
0.043935866
0.037400293
0.030750507
0.024625157
0.019337861
0.014872483
0.011133496
0.0080503621
0.0054761175
0.0033822707
0.0015610843
0.00064784024
-0.14458055
-0.28484669
-0.59567683
-1.0772215
-1.6468034
-2.0159391
-2.0005018
-1.5640484
-0.93316553
-0.51237633
-0.33864455
-0.30958022
-0.3610012
-0.43834545
-0.50881368
-0.55798924
-0.58166765
-0.58183927
-0.56282467
-0.52985427
-0.4884046
-0.4435728
-0.39854181
-0.35366202
-0.30471343
-0.26105262
-0.22334537
-0.19137383
-0.16412104
-0.14092412
-0.1211944
-0.10442275
-0.0902617
-0.078264315
-0.06833699
-0.060026712
-0.053543419
-0.048464094
-0.044764289
-0.2453449
-0.42760508
-0.6193091
-0.58267381
-0.38337978
-0.16436497
-0.067639335
-0.0093288964
0.025539212
0.042077445
0.048976453
0.053490914
0.053322119
0.051083363
0.046779555
0.041205649
0.03498412
0.02872661
0.022953662
0.017955333
0.013725107
0.01018897
0.0072740648
0.0048615057
0.0029310093
0.0013004636
0.00051573349
-0.31380422
-0.60909994
-1.096978
-1.7644411
-2.2360993
-2.3413592
-1.9609286
-1.2610584
-0.58012077
-0.28337426
-0.24158685
-0.30047541
-0.39895207
-0.49443597
-0.56571706
-0.60723364
-0.62015992
-0.60904391
-0.57990803
-0.53922972
-0.49312265
-0.44549759
-0.39693692
-0.34241332
-0.29336215
-0.25091324
-0.21490701
-0.18417774
-0.15800032
-0.1356877
-0.11669616
-0.10053246
-0.086860188
-0.075232426
-0.065628212
-0.057554448
-0.051262494
-0.046271237
-0.04264417
-0.36731914
-0.38315093
-0.60335366
-0.78429226
-0.65547972
-0.41748244
-0.1811414
-0.084801208
-0.023492224
0.013114798
0.03203766
0.044512411
0.049019938
0.049712317
0.047541901
0.043521423
0.038235532
0.032392426
0.026533352
0.021137942
0.016444144
0.012470362
0.0091513977
0.0064249703
0.0041912007
0.0024404129
0.0010183525
0.00037821763
-0.63299483
-1.1214996
-1.8528635
-2.4302961
-2.6559723
-2.370754
-1.6512925
-0.80893102
-0.26969411
-0.14724501
-0.22265867
-0.34446331
-0.46809027
-0.56639109
-0.62911
-0.65749501
-0.65647809
-0.63269231
-0.59378297
-0.54700018
-0.49707614
-0.44482467
-0.38422843
-0.32921106
-0.28150459
-0.24103076
-0.20646654
-0.17699887
-0.15186601
-0.13043322
-0.11217396
-0.096604935
-0.083390966
-0.072163902
-0.062885901
-0.05505167
-0.048950117
-0.044047062
-0.040492865
-0.66697951
-0.44487538
-0.54038749
-0.77681136
-0.91392577
-0.710257
-0.42632992
-0.1979038
-0.10070299
-0.038499804
-1.8274911e-05
0.026388714
0.03920793
0.044762349
0.0456134
0.043754208
0.039989867
0.035064816
0.029615723
0.024183332
0.01917458
0.014807723
0.011105558
0.0080223406
0.0055018566
0.0034661448
0.0019111892
0.00071636458
0.00023494264
-1.1549478
-1.8851602
-2.5678214
-2.916081
-2.7470946
-2.0585973
-1.1221723
-0.36134442
-0.072740149
-0.11817475
-0.27454434
-0.42981997
-0.5582867
-0.64678067
-0.69367466
-0.70528237
-0.68838698
-0.65232875
-0.60554754
-0.55368469
-0.49777546
-0.43056393
-0.36894123
-0.31540003
-0.26997157
-0.23115911
-0.19806305
-0.16981887
-0.1457245
-0.12516352
-0.10761934
-0.092604176
-0.07988741
-0.069066103
-0.060117564
-0.052521236
-0.046609296
-0.041797109
-0.038315054
-1.1710571
-0.70016052
-0.53152986
-0.67118259
-0.9268067
-1.0008616
-0.74529615
-0.42260334
-0.2146876
-0.1165731
-0.053459227
-0.0062519895
0.020615829
0.034349325
0.040033806
0.041271696
0.039669182
0.036237555
0.031691234
0.026673759
0.021677091
0.017072467
0.013046178
0.0096344786
0.0068025673