/*--------------------------------*- C++ -*----------------------------------*\
| =========                 |                                                 |
| \\      /  F ield         | OpenFOAM: The Open Source CFD Toolbox           |
|  \\    /   O peration     | Version:  v2012                                 |
|   \\  /    A nd           | Website:  www.openfoam.com                      |
|    \\/     M anipulation  |                                                 |
\*---------------------------------------------------------------------------*/
FoamFile
{
    version     2.0;
    format      ascii;
    class       volVectorField;
    location    "98.904147998564369";
    object      cellDisplacement;
}
// * * * * * * * * * * * * * * * * * * * * * * * * * * * * * * * * * * * * * //

dimensions      [0 1 0 0 0 0 0];


internalField   nonuniform List<vector> 
9200
(
(0.020147658 0 0)
(0.020230545 0 0)
(0.058494165 0 0)
(0.020419427 0 0)
(0.058803613 0 0)
(0.094295089 0 0)
(0.020593987 0 0)
(0.059212671 0 0)
(0.094685049 0 0)
(0.12764424 0 0)
(0.020762547 0 0)
(0.059685935 0 0)
(0.095351646 0 0)
(0.12818711 0 0)
(0.15871718 0 0)
(0.020924342 0 0)
(0.060179797 0 0)
(0.096145949 0 0)
(0.12903977 0 0)
(0.15931269 0 0)
(0.18764543 0 0)
(0.021068629 0 0)
(0.060620673 0 0)
(0.096880746 0 0)
(0.13000047 0 0)
(0.16031908 0 0)
(0.18835122 0 0)
(0.21457643 0 0)
(0.021200548 0 0)
(0.061024477 0 0)
(0.097597856 0 0)
(0.1310567 0 0)
(0.16158342 0 0)
(0.18950873 0 0)
(0.21533071 0 0)
(0.23964979 0 0)
(0.021314033 0 0)
(0.061381298 0 0)
(0.098236499 0 0)
(0.13201565 0 0)
(0.16282901 0 0)
(0.19089087 0 0)
(0.21662744 0 0)
(0.24051273 0 0)
(0.26297608 0 0)
(0.021414978 0 0)
(0.061692781 0 0)
(0.098801811 0 0)
(0.13289237 0 0)
(0.16404935 0 0)
(0.19241667 0 0)
(0.21826676 0 0)
(0.24194356 0 0)
(0.26389712 0 0)
(0.28468873 0 0)
(0.021498681 0 0)
(0.06196031 0 0)
(0.099295876 0 0)
(0.13366949 0 0)
(0.16517375 0 0)
(0.19390676 0 0)
(0.21999975 0 0)
(0.24371616 0 0)
(0.26548574 0 0)
(0.28572455 0 0)
(0.30486553 0 0)
(0.021571797 0 0)
(0.062185555 0 0)
(0.099712183 0 0)
(0.13434284 0 0)
(0.16617261 0 0)
(0.19527978 0 0)
(0.2217412 0 0)
(0.24572181 0 0)
(0.26752367 0 0)
(0.28746915 0 0)
(0.3059818 0 0)
(0.32363481 0 0)
(0.021630128 0 0)
(0.062371702 0 0)
(0.10006507 0 0)
(0.13491994 0 0)
(0.16704212 0 0)
(0.19651159 0 0)
(0.22337937 0 0)
(0.24772666 0 0)
(0.26972746 0 0)
(0.28966367 0 0)
(0.30791417 0 0)
(0.32487834 0 0)
(0.34104878 0 0)
(0.021680622 0 0)
(0.062523496 0 0)
(0.10034775 0 0)
(0.13539701 0 0)
(0.1677853 0 0)
(0.19759582 0 0)
(0.22487462 0 0)
(0.24966379 0 0)
(0.27203129 0 0)
(0.29217464 0 0)
(0.31039596 0 0)
(0.32698651 0 0)
(0.34239125 0 0)
(0.35722711 0 0)
(0.021719479 0 0)
(0.062643005 0 0)
(0.10057703 0 0)
(0.13579092 0 0)
(0.16840572 0 0)
(0.19852255 0 0)
(0.22619119 0 0)
(0.25142292 0 0)
(0.27424454 0 0)
(0.29475665 0 0)
(0.31314454 0 0)
(0.32967444 0 0)
(0.34471741 0 0)
(0.35870658 0 0)
(0.37220424 0 0)
(0.021752157 0 0)
(0.062736252 0 0)
(0.10074891 0 0)
(0.13609842 0 0)
(0.1689133 0 0)
(0.19930579 0 0)
(0.22732873 0 0)
(0.25299224 0 0)
(0.27630198 0 0)
(0.29728838 0 0)
(0.31603987 0 0)
(0.33275802 0 0)
(0.34772146 0 0)
(0.36123612 0 0)
(0.37380158 0 0)
(0.38609208 0 0)
(0.021776733 0 0)
(0.06280582 0 0)
(0.10088039 0 0)
(0.13634049 0 0)
(0.16931766 0 0)
(0.19994455 0 0)
(0.22829642 0 0)
(0.25436672 0 0)
(0.27815411 0 0)
(0.2996694 0 0)
(0.31891016 0 0)
(0.33598041 0 0)
(0.35108194 0 0)
(0.36448551 0 0)
(0.37657487 0 0)
(0.38783584 0 0)
(0.39891359 0 0)
(0.021797155 0 0)
(0.062857789 0 0)
(0.10096852 0 0)
(0.13651369 0 0)
(0.16962865 0 0)
(0.2004605 0 0)
(0.22909589 0 0)
(0.25553832 0 0)
(0.27978642 0 0)
(0.30182759 0 0)
(0.32162855 0 0)
(0.33920554 0 0)
(0.35466515 0 0)
(0.36822186 0 0)
(0.38016329 0 0)
(0.39083165 0 0)
(0.40078878 0 0)
(0.41077193 0 0)
(0.021812447 0 0)
(0.062893763 0 0)
(0.10102862 0 0)
(0.13663943 0 0)
(0.16986016 0 0)
(0.20085564 0 0)
(0.22974732 0 0)
(0.25652978 0 0)
(0.28119365 0 0)
(0.3037399 0 0)
(0.32412137 0 0)
(0.34228484 0 0)
(0.35825324 0 0)
(0.37216744 0 0)
(0.3842211 0 0)
(0.39470561 0 0)
(0.40404759 0 0)
(0.41279911 0 0)
(0.42168356 0 0)
(0.021824628 0 0)
(0.06291818 0 0)
(0.10105907 0 0)
(0.13671444 0 0)
(0.17002077 0 0)
(0.20115619 0 0)
(0.23025791 0 0)
(0.25733535 0 0)
(0.28239125 0 0)
(0.30541502 0 0)
(0.32635742 0 0)
(0.34515006 0 0)
(0.36173135 0 0)
(0.37615518 0 0)
(0.38856134 0 0)
(0.39916721 0 0)
(0.40828169 0 0)
(0.41629925 0 0)
(0.42385249 0 0)
(0.43174321 0 0)
(0.021834137 0 0)
(0.062933631 0 0)
(0.10107366 0 0)
(0.13675858 0 0)
(0.17012571 0 0)
(0.20136271 0 0)
(0.23064914 0 0)
(0.25799119 0 0)
(0.28338401 0 0)
(0.30684176 0 0)
(0.32832273 0 0)
(0.34772744 0 0)
(0.36496695 0 0)
(0.38002313 0 0)
(0.39295578 0 0)
(0.40391313 0 0)
(0.41309835 0 0)
(0.42084722 0 0)
(0.42762866 0 0)
(0.43406722 0 0)
(0.4409643 0 0)
(0.021841722 0 0)
(0.062941415 0 0)
(0.10106966 0 0)
(0.13676844 0 0)
(0.17018022 0 0)
(0.20150238 0 0)
(0.23093342 0 0)
(0.25849264 0 0)
(0.28419428 0 0)
(0.30805083 0 0)
(0.33001667 0 0)
(0.35000611 0 0)
(0.36791697 0 0)
(0.38366973 0 0)
(0.39725121 0 0)
(0.40874442 0 0)
(0.41828008 0 0)
(0.42609656 0 0)
(0.43255018 0 0)
(0.43809518 0 0)
(0.44343524 0 0)
(0.44943299 0 0)
(0.021848281 0 0)
(0.062945309 0 0)
(0.10105954 0 0)
(0.13676083 0 0)
(0.17019915 0 0)
(0.2015745 0 0)
(0.23112857 0 0)
(0.25888094 0 0)
(0.28483717 0 0)
(0.30903808 0 0)
(0.33146196 0 0)
(0.35200025 0 0)
(0.37054614 0 0)
(0.38701575 0 0)
(0.40132453 0 0)
(0.41347768 0 0)
(0.42355719 0 0)
(0.43171754 0 0)
(0.43818649 0 0)
(0.44335329 0 0)
(0.44774456 0 0)
(0.4520583 0 0)
(0.45716193 0 0)
(0.021854069 0 0)
(0.062946153 0 0)
(0.1010397 0 0)
(0.1367328 0 0)
(0.17018611 0 0)
(0.20160541 0 0)
(0.23124953 0 0)
(0.25915025 0 0)
(0.28533288 0 0)
(0.30984445 0 0)
(0.33266441 0 0)
(0.35370256 0 0)
(0.37285703 0 0)
(0.39002086 0 0)
(0.40508915 0 0)
(0.41799924 0 0)
(0.42876088 0 0)
(0.43747036 0 0)
(0.44427019 0 0)
(0.44943822 0 0)
(0.4533832 0 0)
(0.45662506 0 0)
(0.45993525 0 0)
(0.46422894 0 0)
(0.021859654 0 0)
(0.062946473 0 0)
(0.10101959 0 0)
(0.13669737 0 0)
(0.17015283 0 0)
(0.20159175 0 0)
(0.2313092 0 0)
(0.25934149 0 0)
(0.28570407 0 0)
(0.31046938 0 0)
(0.33365422 0 0)
(0.35515241 0 0)
(0.37485327 0 0)
(0.39267052 0 0)
(0.40849317 0 0)
(0.42220354 0 0)
(0.4337428 0 0)
(0.44314969 0 0)
(0.45050625 0 0)
(0.45598928 0 0)
(0.45987325 0 0)
(0.4626108 0 0)
(0.46478201 0 0)
(0.46715298 0 0)
(0.47064724 0 0)
(0.021865051 0 0)
(0.062946109 0 0)
(0.10099621 0 0)
(0.13665241 0 0)
(0.17010233 0 0)
(0.2015574 0 0)
(0.23132408 0 0)
(0.25944894 0 0)
(0.28596658 0 0)
(0.3109587 0 0)
(0.33444651 0 0)
(0.35634542 0 0)
(0.37656062 0 0)
(0.39498967 0 0)
(0.41152553 0 0)
(0.42604835 0 0)
(0.43842545 0 0)
(0.44862455 0 0)
(0.45669167 0 0)
(0.46273026 0 0)
(0.46690958 0 0)
(0.46955802 0 0)
(0.4711457 0 0)
(0.47225526 0 0)
(0.47371619 0 0)
(0.47648674 0 0)
(0.021870416 0 0)
(0.06294702 0 0)
(0.10097691 0 0)
(0.13660807 0 0)
(0.1700442 0 0)
(0.20149784 0 0)
(0.23130157 0 0)
(0.25950871 0 0)
(0.28614535 0 0)
(0.31131058 0 0)
(0.3350705 0 0)
(0.35733259 0 0)
(0.37799331 0 0)
(0.39697655 0 0)
(0.41418518 0 0)
(0.42947478 0 0)
(0.44269385 0 0)
(0.45376486 0 0)
(0.46266218 0 0)
(0.46942629 0 0)
(0.47415757 0 0)
(0.47707681 0 0)
(0.47850873 0 0)
(0.47896799 0 0)
(0.47909053 0 0)
(0.47969976 0 0)
(0.48176155 0 0)
(0.021875519 0 0)
(0.062949113 0 0)
(0.10095917 0 0)
(0.13656285 0 0)
(0.16998079 0 0)
(0.2014322 0 0)
(0.2312569 0 0)
(0.25951516 0 0)
(0.28624994 0 0)
(0.31156933 0 0)
(0.33554826 0 0)
(0.35811222 0 0)
(0.3791818 0 0)
(0.3986733 0 0)
(0.41648722 0 0)
(0.43250184 0 0)
(0.44656326 0 0)
(0.45853142 0 0)
(0.46831902 0 0)
(0.47592352 0 0)
(0.48138846 0 0)
(0.4848475 0 0)
(0.48651883 0 0)
(0.48678455 0 0)
(0.48617162 0 0)
(0.48532245 0 0)
(0.48511309 0 0)
(0.48653465 0 0)
(0.021880611 0 0)
(0.062953896 0 0)
(0.10094769 0 0)
(0.13652401 0 0)
(0.16991888 0 0)
(0.20135666 0 0)
(0.23119396 0 0)
(0.25949783 0 0)
(0.2863049 0 0)
(0.31173216 0 0)
(0.33590241 0 0)
(0.35873737 0 0)
(0.38015033 0 0)
(0.40008554 0 0)
(0.41846462 0 0)
(0.43515351 0 0)
(0.44999382 0 0)
(0.46282997 0 0)
(0.4735416 0 0)
(0.48207907 0 0)
(0.4884166 0 0)
(0.49261363 0 0)
(0.49481139 0 0)
(0.49528132 0 0)
(0.49440139 0 0)
(0.49274468 0 0)
(0.490995 0 0)
(0.49002141 0 0)
(0.49082027 0 0)
(0.021884952 0 0)
(0.062960289 0 0)
(0.10094188 0 0)
(0.13649092 0 0)
(0.1698613 0 0)
(0.20128662 0 0)
(0.23112692 0 0)
(0.25945251 0 0)
(0.2863155 0 0)
(0.31183846 0 0)
(0.33615674 0 0)
(0.35920584 0 0)
(0.38092624 0 0)
(0.40126234 0 0)
(0.42013444 0 0)
(0.43743169 0 0)
(0.45300706 0 0)
(0.46668993 0 0)
(0.4783304 0 0)
(0.48783235 0 0)
(0.49512259 0 0)
(0.50019744 0 0)
(0.50312926 0 0)
(0.50410328 0 0)
(0.50338823 0 0)
(0.50141621 0 0)
(0.49876832 0 0)
(0.49613856 0 0)
(0.49443645 0 0)
(0.49467589 0 0)
(0.021798187 0 0)
(0.06297047 0 0)
(0.10094339 0 0)
(0.13646784 0 0)
(0.16981191 0 0)
(0.20121881 0 0)
(0.23105664 0 0)
(0.25940132 0 0)
(0.28630209 0 0)
(0.31188405 0 0)
(0.33632756 0 0)
(0.35956769 0 0)
(0.38153934 0 0)
(0.40221234 0 0)
(0.42153581 0 0)
(0.43939332 0 0)
(0.4556355 0 0)
(0.470104 0 0)
(0.48264304 0 0)
(0.49310055 0 0)
(0.50137799 0 0)
(0.50744096 0 0)
(0.51127025 0 0)
(0.51296914 0 0)
(0.5127323 0 0)
(0.51088231 0 0)
(0.50784318 0 0)
(0.504238 0 0)
(0.50079609 0 0)
(0.49841726 0 0)
(0.49811428 0 0)
(0.021693837 0 0)
(0.062782304 0 0)
(0.10095495 0 0)
(0.13645699 0 0)
(0.16977552 0 0)
(0.20116459 0 0)
(0.23099484 0 0)
(0.25934199 0 0)
(0.28626806 0 0)
(0.31190183 0 0)
(0.33643884 0 0)
(0.35982057 0 0)
(0.38201037 0 0)
(0.40298421 0 0)
(0.42269185 0 0)
(0.44103846 0 0)
(0.4578941 0 0)
(0.47309808 0 0)
(0.48648513 0 0)
(0.49788746 0 0)
(0.50717248 0 0)
(0.51426229 0 0)
(0.51909197 0 0)
(0.52168313 0 0)
(0.52215569 0 0)
(0.52074987 0 0)
(0.51778424 0 0)
(0.513734 0 0)
(0.50922406 0 0)
(0.50499427 0 0)
(0.50197452 0 0)
(0.50118688 0 0)
(0.021600883 0 0)
(0.062472835 0 0)
(0.10067523 0 0)
(0.13645913 0 0)
(0.16975128 0 0)
(0.20112307 0 0)
(0.23094135 0 0)
(0.25929072 0 0)
(0.28623057 0 0)
(0.31188704 0 0)
(0.3365002 0 0)
(0.3600074 0 0)
(0.38237068 0 0)
(0.40358725 0 0)
(0.42363838 0 0)
(0.44242906 0 0)
(0.459831 0 0)
(0.47569431 0 0)
(0.48986682 0 0)
(0.5021782 0 0)
(0.51245509 0 0)
(0.52057087 0 0)
(0.52645327 0 0)
(0.53007151 0 0)
(0.53144022 0 0)
(0.53072179 0 0)
(0.52816453 0 0)
(0.52413697 0 0)
(0.51910315 0 0)
(0.51372669 0 0)
(0.50877466 0 0)
(0.50516151 0 0)
(0.50390448 0 0)
(0.021519284 0 0)
(0.062196979 0 0)
(0.10018258 0 0)
(0.13608746 0 0)
(0.16974816 0 0)
(0.20110023 0 0)
(0.23090494 0 0)
(0.25924639 0 0)
(0.28619035 0 0)
(0.31186274 0 0)
(0.33653189 0 0)
(0.36012594 0 0)
(0.38263436 0 0)
(0.40406505 0 0)
(0.42440269 0 0)
(0.443569 0 0)
(0.46146072 0 0)
(0.47793196 0 0)
(0.49282861 0 0)
(0.5059816 0 0)
(0.51722048 0 0)
(0.52637292 0 0)
(0.53332625 0 0)
(0.53802679 0 0)
(0.5404244 0 0)
(0.54058482 0 0)
(0.53868657 0 0)
(0.53502438 0 0)
(0.52995929 0 0)
(0.52399999 0 0)
(0.51780888 0 0)
(0.5121594 0 0)
(0.50798694 0 0)
(0.50631322 0 0)
(0.021449759 0 0)
(0.061956142 0 0)
(0.099743681 0 0)
(0.13541636 0 0)
(0.16928629 0 0)
(0.20110108 0 0)
(0.23088754 0 0)
(0.25921844 0 0)
(0.28615947 0 0)
(0.31182766 0 0)
(0.33654 0 0)
(0.36021085 0 0)
(0.38283118 0 0)
(0.4044268 0 0)
(0.42501419 0 0)
(0.44451626 0 0)
(0.46283623 0 0)
(0.47983905 0 0)
(0.49538872 0 0)
(0.50932642 0 0)
(0.52146651 0 0)
(0.53162655 0 0)
(0.53965575 0 0)
(0.54544847 0 0)
(0.54894953 0 0)
(0.55015178 0 0)
(0.54912107 0 0)
(0.54608301 0 0)
(0.54133774 0 0)
(0.53529189 0 0)
(0.5284382 0 0)
(0.52147255 0 0)
(0.51518781 0 0)
(0.51049935 0 0)
(0.5084223 0 0)
(0.021392681 0 0)
(0.061751637 0 0)
(0.099361632 0 0)
(0.13482186 0 0)
(0.16845162 0 0)
(0.20057113 0 0)
(0.23089466 0 0)
(0.25921022 0 0)
(0.28614089 0 0)
(0.31179756 0 0)
(0.33654156 0 0)
(0.36026095 0 0)
(0.38296996 0 0)
(0.40470858 0 0)
(0.42550057 0 0)
(0.44527773 0 0)
(0.46397186 0 0)
(0.48145451 0 0)
(0.49759665 0 0)
(0.51223987 0 0)
(0.52521474 0 0)
(0.53633798 0 0)
(0.54542605 0 0)
(0.55233075 0 0)
(0.55696484 0 0)
(0.5592885 0 0)
(0.55928833 0 0)
(0.55708883 0 0)
(0.55292842 0 0)
(0.54715082 0 0)
(0.54015157 0 0)
(0.53246321 0 0)
(0.52477377 0 0)
(0.51787769 0 0)
(0.51270535 0 0)
(0.51027164 0 0)
(0.021348327 0 0)
(0.061584366 0 0)
(0.099036795 0 0)
(0.13430221 0 0)
(0.16770779 0 0)
(0.19959447 0 0)
(0.23030161 0 0)
(0.2592255 0 0)
(0.28613858 0 0)
(0.31177596 0 0)
(0.3365403 0 0)
(0.36030136 0 0)
(0.38307621 0 0)
(0.4049191 0 0)
(0.42588425 0 0)
(0.44590271 0 0)
(0.46491913 0 0)
(0.48281224 0 0)
(0.49947359 0 0)
(0.51476533 0 0)
(0.5285081 0 0)
(0.54052074 0 0)
(0.55062464 0 0)
(0.5586331 0 0)
(0.56441117 0 0)
(0.56788067 0 0)
(0.56901289 0 0)
(0.56784161 0 0)
(0.56449373 0 0)
(0.55925559 0 0)
(0.5524725 0 0)
(0.54457878 0 0)
(0.53608766 0 0)
(0.52771494 0 0)
(0.52026585 0 0)
(0.51464783 0 0)
(0.51187015 0 0)
(0.021317202 0 0)
(0.061455997 0 0)
(0.098772288 0 0)
(0.13386275 0 0)
(0.16706123 0 0)
(0.19872654 0 0)
(0.22919047 0 0)
(0.25857277 0 0)
(0.28616225 0 0)
(0.31177021 0 0)
(0.33654818 0 0)
(0.36033352 0 0)
(0.38315594 0 0)
(0.40508632 0 0)
(0.42619056 0 0)
(0.44639991 0 0)
(0.46569055 0 0)
(0.48394635 0 0)
(0.50107183 0 0)
(0.51693263 0 0)
(0.53136901 0 0)
(0.54420946 0 0)
(0.55526472 0 0)
(0.56433988 0 0)
(0.57126311 0 0)
(0.57590964 0 0)
(0.57821809 0 0)
(0.57818276 0 0)
(0.57583952 0 0)
(0.57137353 0 0)
(0.56508066 0 0)
(0.55734627 0 0)
(0.54858887 0 0)
(0.53935436 0 0)
(0.53034656 0 0)
(0.52236676 0 0)
(0.51633288 0 0)
(0.51325161 0 0)
(0.021299203 0 0)
(0.061366412 0 0)
(0.098568735 0 0)
(0.13350355 0 0)
(0.16651147 0 0)
(0.1979716 0 0)
(0.22820543 0 0)
(0.25733439 0 0)
(0.28544253 0 0)
(0.31179412 0 0)
(0.33657211 0 0)
(0.36037278 0 0)
(0.38322841 0 0)
(0.40521838 0 0)
(0.42643589 0 0)
(0.44680831 0 0)
(0.46633144 0 0)
(0.48489157 0 0)
(0.50241267 0 0)
(0.51878647 0 0)
(0.53385138 0 0)
(0.54743738 0 0)
(0.55937171 0 0)
(0.56945864 0 0)
(0.57749694 0 0)
(0.58332323 0 0)
(0.58683633 0 0)
(0.58798087 0 0)
(0.58677243 0 0)
(0.58329461 0 0)
(0.57773529 0 0)
(0.57043661 0 0)
(0.56178137 0 0)
(0.55221985 0 0)
(0.54227464 0 0)
(0.53267107 0 0)
(0.52421326 0 0)
(0.51779695 0 0)
(0.51442607 0 0)
(0.02129508 0 0)
(0.061317737 0 0)
(0.09842796 0 0)
(0.13322828 0 0)
(0.16606412 0 0)
(0.19733102 0 0)
(0.2273469 0 0)
(0.25623754 0 0)
(0.28407771 0 0)
(0.31100704 0 0)
(0.33662021 0 0)
(0.36042644 0 0)
(0.38330151 0 0)
(0.4053358 0 0)
(0.42664133 0 0)
(0.44713779 0 0)
(0.46685274 0 0)
(0.48567509 0 0)
(0.5035449 0 0)
(0.52036051 0 0)
(0.53597824 0 0)
(0.55024733 0 0)
(0.56298989 0 0)
(0.57401301 0 0)
(0.58311885 0 0)
(0.59010735 0 0)
(0.59483147 0 0)
(0.59720268 0 0)
(0.59719078 0 0)
(0.59483646 0 0)
(0.59023008 0 0)
(0.58361508 0 0)
(0.57533915 0 0)
(0.5658193 0 0)
(0.55548549 0 0)
(0.54488725 0 0)
(0.53473288 0 0)
(0.52581823 0 0)
(0.51904765 0 0)
(0.51542209 0 0)
(0.061308644 0 0)
(0.021301302 0 0)
(0.098350811 0 0)
(0.1330377 0 0)
(0.16571942 0 0)
(0.19680963 0 0)
(0.22662013 0 0)
(0.25527962 0 0)
(0.28286216 0 0)
(0.30951096 0 0)
(0.33579379 0 0)
(0.36050179 0 0)
(0.38338438 0 0)
(0.40544865 0 0)
(0.42681919 0 0)
(0.44741722 0 0)
(0.46729182 0 0)
(0.48632974 0 0)
(0.50448857 0 0)
(0.52169434 0 0)
(0.53780556 0 0)
(0.5526764 0 0)
(0.56615008 0 0)
(0.57804058 0 0)
(0.58813802 0 0)
(0.59623481 0 0)
(0.60216242 0 0)
(0.60578326 0 0)
(0.60701759 0 0)
(0.60585098 0 0)
(0.60235481 0 0)
(0.5966633 0 0)
(0.58902197 0 0)
(0.57982087 0 0)
(0.56946993 0 0)
(0.55842262 0 0)
(0.54720289 0 0)
(0.53653521 0 0)
(0.52721072 0 0)
(0.52011614 0 0)
(0.51625049 0 0)
(0.098337679 0 0)
(0.061332739 0 0)
(0.02131875 0 0)
(0.13293332 0 0)
(0.16548071 0 0)
(0.19640884 0 0)
(0.22602745 0 0)
(0.25446976 0 0)
(0.28180487 0 0)
(0.30817933 0 0)
(0.33418636 0 0)
(0.35963689 0 0)
(0.38349329 0 0)
(0.4055672 0 0)
(0.42698459 0 0)
(0.44765735 0 0)
(0.46765858 0 0)
(0.48687634 0 0)
(0.50528558 0 0)
(0.52282116 0 0)
(0.53935557 0 0)
(0.55476695 0 0)
(0.5689021 0 0)
(0.5815767 0 0)
(0.59259311 0 0)
(0.60174486 0 0)
(0.60883579 0 0)
(0.61369381 0 0)
(0.61619916 0 0)
(0.61628976 0 0)
(0.6139835 0 0)
(0.60937771 0 0)
(0.6026149 0 0)
(0.59399073 0 0)
(0.58389708 0 0)
(0.57277191 0 0)
(0.56104389 0 0)
(0.54925712 0 0)
(0.53811586 0 0)
(0.52840313 0 0)
(0.52101102 0 0)
(0.51693474 0 0)
(0.1329164 0 0)
(0.098375609 0 0)
(0.06138759 0 0)
(0.021349266 0 0)
(0.16534932 0 0)
(0.19613174 0 0)
(0.22557294 0 0)
(0.25380835 0 0)
(0.28090581 0 0)
(0.30702282 0 0)
(0.33276185 0 0)
(0.35792633 0 0)
(0.38258209 0 0)
(0.405712 0 0)
(0.4271519 0 0)
(0.44787702 0 0)
(0.46798036 0 0)
(0.48734304 0 0)
(0.50595396 0 0)
(0.52377445 0 0)
(0.54068121 0 0)
(0.55655904 0 0)
(0.57127854 0 0)
(0.58467018 0 0)
(0.59653154 0 0)
(0.60665534 0 0)
(0.61483982 0 0)
(0.62089939 0 0)
(0.62468365 0 0)
(0.62607311 0 0)
(0.62502985 0 0)
(0.62159282 0 0)
(0.6158912 0 0)
(0.60810558 0 0)
(0.59853218 0 0)
(0.58759989 0 0)
(0.5757355 0 0)
(0.56338327 0 0)
(0.55106003 0 0)
(0.53948047 0 0)
(0.52942097 0 0)
(0.5217581 0 0)
(0.51748632 0 0)
(0.16532565 0 0)
(0.13296764 0 0)
(0.098463427 0 0)
(0.061485112 0 0)
(0.021394165 0 0)
(0.19597975 0 0)
(0.22525835 0 0)
(0.25330192 0 0)
(0.28017463 0 0)
(0.3060401 0 0)
(0.3315194 0 0)
(0.35641303 0 0)
(0.3807656 0 0)
(0.40476089 0 0)
(0.42733192 0 0)
(0.44809154 0 0)
(0.46826947 0 0)
(0.48774638 0 0)
(0.50652781 0 0)
(0.52458503 0 0)
(0.54180272 0 0)
(0.55809104 0 0)
(0.57333075 0 0)
(0.58735706 0 0)
(0.59998223 0 0)
(0.61100697 0 0)
(0.62022386 0 0)
(0.62743327 0 0)
(0.6324632 0 0)
(0.6351587 0 0)
(0.63542413 0 0)
(0.63324699 0 0)
(0.62870242 0 0)
(0.62194176 0 0)
(0.61315434 0 0)
(0.60267962 0 0)
(0.59094455 0 0)
(0.57839696 0 0)
(0.56545248 0 0)
(0.55264296 0 0)
(0.54066123 0 0)
(0.53027619 0 0)
(0.52236698 0 0)
(0.51792446 0 0)
(0.19595394 0 0)
(0.1653887 0 0)
(0.13308854 0 0)
(0.098615452 0 0)
(0.061621068 0 0)
(0.021451656 0 0)
(0.22508629 0 0)
(0.25295171 0 0)
(0.27961179 0 0)
(0.30524261 0 0)
(0.33046822 0 0)
(0.35509237 0 0)
(0.37915451 0 0)
(0.40283685 0 0)
(0.4263497 0 0)
(0.44831368 0 0)
(0.46854063 0 0)
(0.48810751 0 0)
(0.50702283 0 0)
(0.52527908 0 0)
(0.54276559 0 0)
(0.55940151 0 0)
(0.57509013 0 0)
(0.58968634 0 0)
(0.60300416 0 0)
(0.61484689 0 0)
(0.62501641 0 0)
(0.63331095 0 0)
(0.63952848 0 0)
(0.64350103 0 0)
(0.64510297 0 0)
(0.64424747 0 0)
(0.64095407 0 0)
(0.63531812 0 0)
(0.62752141 0 0)
(0.61778472 0 0)
(0.60644567 0 0)
(0.59396208 0 0)
(0.58076695 0 0)
(0.56728349 0 0)
(0.55401628 0 0)
(0.54166533 0 0)
(0.53099065 0 0)
(0.52285911 0 0)
(0.51826065 0 0)
(0.22505784 0 0)
(0.19602829 0 0)
(0.1655359 0 0)
(0.13329481 0 0)
(0.098829774 0 0)
(0.0617992 0 0)
(0.021523244 0 0)
(0.25276084 0 0)
(0.27922372 0 0)
(0.30462897 0 0)
(0.32961064 0 0)
(0.35397703 0 0)
(0.37775646 0 0)
(0.40113126 0 0)
(0.42431839 0 0)
(0.44730223 0 0)
(0.46881746 0 0)
(0.48844418 0 0)
(0.50746456 0 0)
(0.52588243 0 0)
(0.54358817 0 0)
(0.56052275 0 0)
(0.5766049 0 0)
(0.59169621 0 0)
(0.60562587 0 0)
(0.61821254 0 0)
(0.6292605 0 0)
(0.63856573 0 0)
(0.64591762 0 0)
(0.65112563 0 0)
(0.65404061 0 0)
(0.65453581 0 0)
(0.65256086 0 0)
(0.64816035 0 0)
(0.64146462 0 0)
(0.63267344 0 0)
(0.62201498 0 0)
(0.60986203 0 0)
(0.5966674 0 0)
(0.58287846 0 0)
(0.56888718 0 0)
(0.55520803 0 0)
(0.54251934 0 0)
(0.53157594 0 0)
(0.5232442 0 0)
(0.51850987 0 0)
(0.25273175 0 0)
(0.22514288 0 0)
(0.19620161 0 0)
(0.16579353 0 0)
(0.13358873 0 0)
(0.099106878 0 0)
(0.06201387 0 0)
(0.021606593 0 0)
(0.27901174 0 0)
(0.3042075 0 0)
(0.32895392 0 0)
(0.35306665 0 0)
(0.37657193 0 0)
(0.39965431 0 0)
(0.42252538 0 0)
(0.44517336 0 0)
(0.46777157 0 0)
(0.48877479 0 0)
(0.50787163 0 0)
(0.5264176 0 0)
(0.54430654 0 0)
(0.56148929 0 0)
(0.5779031 0 0)
(0.59343061 0 0)
(0.60790652 0 0)
(0.62115641 0 0)
(0.63299762 0 0)
(0.64323395 0 0)
(0.65165389 0 0)
(0.6580446 0 0)
(0.66222394 0 0)
(0.6640568 0 0)
(0.66344851 0 0)
(0.66036355 0 0)
(0.65488172 0 0)
(0.64715011 0 0)
(0.63739548 0 0)
(0.62587024 0 0)
(0.6129427 0 0)
(0.59909013 0 0)
(0.58474245 0 0)
(0.57029228 0 0)
(0.55622827 0 0)
(0.54323203 0 0)
(0.53205074 0 0)
(0.52353936 0 0)
(0.51868344 0 0)
(0.27897807 0 0)
(0.25282872 0 0)
(0.22534185 0 0)
(0.19650123 0 0)
(0.1661556 0 0)
(0.13396534 0 0)
(0.099443962 0 0)
(0.062270665 0 0)
(0.021703779 0 0)
(0.30397707 0 0)
(0.32849852 0 0)
(0.3523703 0 0)
(0.37561019 0 0)
(0.39840285 0 0)
(0.42096602 0 0)
(0.44329591 0 0)
(0.46554615 0 0)
(0.48770622 0 0)
(0.50826512 0 0)
(0.52690313 0 0)
(0.54493989 0 0)
(0.56232797 0 0)
(0.57902691 0 0)
(0.59492614 0 0)
(0.60987405 0 0)
(0.62371514 0 0)
(0.63627581 0 0)
(0.64736398 0 0)
(0.65677004 0 0)
(0.66428171 0 0)
(0.66968789 0 0)
(0.67282255 0 0)
(0.67357587 0 0)
(0.67185824 0 0)
(0.66767472 0 0)
(0.66112928 0 0)
(0.65240089 0 0)
(0.64172776 0 0)
(0.62936829 0 0)
(0.61571738 0 0)
(0.60124497 0 0)
(0.58638909 0 0)
(0.57150917 0 0)
(0.55710073 0 0)
(0.54382529 0 0)
(0.53242538 0 0)
(0.52375412 0 0)
(0.51879317 0 0)
(0.30394191 0 0)
(0.27908664 0 0)
(0.25305484 0 0)
(0.22568404 0 0)
(0.19692448 0 0)
(0.16662643 0 0)
(0.13442699 0 0)
(0.099839563 0 0)
(0.0625615 0 0)
(0.021812085 0 0)
(0.32825036 0 0)
(0.35188902 0 0)
(0.37487165 0 0)
(0.39738888 0 0)
(0.41965051 0 0)
(0.44166165 0 0)
(0.46357587 0 0)
(0.48537532 0 0)
(0.5071752 0 0)
(0.52736823 0 0)
(0.54551073 0 0)
(0.56306708 0 0)
(0.58000079 0 0)
(0.59622035 0 0)
(0.61158286 0 0)
(0.62594157 0 0)
(0.63913923 0 0)
(0.65099738 0 0)
(0.66131215 0 0)
(0.6698653 0 0)
(0.67643985 0 0)
(0.68084066 0 0)
(0.68291723 0 0)
(0.6825751 0 0)
(0.67976097 0 0)
(0.67449673 0 0)
(0.66692173 0 0)
(0.65722716 0 0)
(0.64567294 0 0)
(0.63253512 0 0)
(0.61820123 0 0)
(0.60315968 0 0)
(0.58782932 0 0)
(0.57256397 0 0)
(0.55783595 0 0)
(0.54430799 0 0)
(0.53271536 0 0)
(0.52390287 0 0)
(0.51885035 0 0)
(0.32820904 0 0)
(0.30406119 0 0)
(0.27933511 0 0)
(0.25343958 0 0)
(0.22616969 0 0)
(0.19747172 0 0)
(0.16719759 0 0)
(0.13496739 0 0)
(0.10029288 0 0)
(0.062891877 0 0)
(0.021933387 0 0)
(0.35162693 0 0)
(0.37436296 0 0)
(0.39661028 0 0)
(0.41857952 0 0)
(0.44028385 0 0)
(0.46186827 0 0)
(0.4833197 0 0)
(0.50474333 0 0)
(0.52625568 0 0)
(0.54605177 0 0)
(0.56373225 0 0)
(0.58085906 0 0)
(0.59734682 0 0)
(0.61305967 0 0)
(0.62787009 0 0)
(0.64163464 0 0)
(0.65418565 0 0)
(0.66532247 0 0)
(0.67483564 0 0)
(0.68250874 0 0)
(0.68812554 0 0)
(0.69150155 0 0)
(0.69251058 0 0)
(0.69108105 0 0)
(0.68717239 0 0)
(0.68084989 0 0)
(0.67227172 0 0)
(0.66165601 0 0)
(0.64926812 0 0)
(0.63538818 0 0)
(0.62042169 0 0)
(0.60484845 0 0)
(0.5890894 0 0)
(0.57346616 0 0)
(0.55845324 0 0)
(0.54469745 0 0)
(0.53293104 0 0)
(0.52399486 0 0)
(0.51886351 0 0)
(0.3515861 0 0)
(0.32833167 0 0)
(0.30433203 0 0)
(0.27976436 0 0)
(0.25398684 0 0)
(0.22679474 0 0)
(0.19813819 0 0)
(0.16787474 0 0)
(0.13558865 0 0)
(0.10080046 0 0)
(0.063253955 0 0)
(0.022035906 0 0)
(0.37408496 0 0)
(0.39607528 0 0)
(0.41776078 0 0)
(0.43916112 0 0)
(0.46042172 0 0)
(0.48153361 0 0)
(0.50260233 0 0)
(0.52372936 0 0)
(0.54492241 0 0)
(0.56435285 0 0)
(0.58162734 0 0)
(0.598337 0 0)
(0.61435002 0 0)
(0.6295491 0 0)
(0.64380603 0 0)
(0.65697031 0 0)
(0.66885328 0 0)
(0.67924373 0 0)
(0.6879285 0 0)
(0.69469495 0 0)
(0.69932986 0 0)
(0.70166664 0 0)
(0.70159912 0 0)
(0.69907632 0 0)
(0.69409605 0 0)
(0.6867409 0 0)
(0.67720051 0 0)
(0.66569999 0 0)
(0.65252034 0 0)
(0.63795341 0 0)
(0.62239466 0 0)
(0.6063367 0 0)
(0.59018072 0 0)
(0.57423701 0 0)
(0.55896289 0 0)
(0.54500442 0 0)
(0.53308535 0 0)
(0.52404119 0 0)
(0.51883272 0 0)
(0.37404074 0 0)
(0.35171683 0 0)
(0.32861794 0 0)
(0.30479942 0 0)
(0.28036691 0 0)
(0.25468789 0 0)
(0.22755887 0 0)
(0.19892235 0 0)
(0.16864759 0 0)
(0.13628575 0 0)
(0.10136435 0 0)
(0.063492158 0 0)
(0.022047351 0 0)
(0.39578319 0 0)
(0.41719402 0 0)
(0.43830274 0 0)
(0.45924766 0 0)
(0.4800258 0 0)
(0.50074118 0 0)
(0.52150047 0 0)
(0.54230066 0 0)
(0.56321404 0 0)
(0.58233849 0 0)
(0.5992179 0 0)
(0.6154809 0 0)
(0.63101016 0 0)
(0.64569607 0 0)
(0.65940275 0 0)
(0.67194836 0 0)
(0.68313266 0 0)
(0.69274993 0 0)
(0.70058373 0 0)
(0.7064146 0 0)
(0.7100457 0 0)
(0.71133022 0 0)
(0.71018541 0 0)
(0.70658694 0 0)
(0.70054804 0 0)
(0.69219192 0 0)
(0.68172286 0 0)
(0.66938675 0 0)
(0.65546348 0 0)
(0.64024789 0 0)
(0.62414491 0 0)
(0.6076382 0 0)
(0.59112426 0 0)
(0.57488578 0 0)
(0.55938183 0 0)
(0.5452424 0 0)
(0.53318803 0 0)
(0.52398821 0 0)
(0.51874688 0 0)
(0.39573765 0 0)
(0.37417881 0 0)
(0.35202151 0 0)
(0.3291108 0 0)
(0.30545348 0 0)
(0.28114687 0 0)
(0.25554713 0 0)
(0.22845627 0 0)
(0.19982111 0 0)
(0.16951998 0 0)
(0.13705811 0 0)
(0.10170898 0 0)
(0.063525891 0 0)
(0.022058879 0 0)
(0.41688502 0 0)
(0.43770884 0 0)
(0.45834414 0 0)
(0.47879799 0 0)
(0.49917213 0 0)
(0.51956804 0 0)
(0.53998719 0 0)
(0.56049107 0 0)
(0.58119189 0 0)
(0.60002966 0 0)
(0.61648462 0 0)
(0.63229371 0 0)
(0.64734558 0 0)
(0.6615223 0 0)
(0.67465809 0 0)
(0.68655673 0 0)
(0.69701671 0 0)
(0.70583298 0 0)
(0.71278699 0 0)
(0.71765906 0 0)
(0.72026738 0 0)
(0.72049304 0 0)
(0.71827052 0 0)
(0.71360208 0 0)
(0.70653703 0 0)
(0.69721325 0 0)
(0.68586188 0 0)
(0.67273049 0 0)
(0.6581081 0 0)
(0.64229657 0 0)
(0.6256888 0 0)
(0.60877357 0 0)
(0.59193148 0 0)
(0.57543333 0 0)
(0.55972102 0 0)
(0.54542206 0 0)
(0.53310519 0 0)
(0.52384791 0 0)
(0.51861002 0 0)
(0.41683335 0 0)
(0.39588282 0 0)
(0.3744973 0 0)
(0.35254367 0 0)
(0.32980981 0 0)
(0.30629916 0 0)
(0.28209157 0 0)
(0.25655291 0 0)
(0.22948575 0 0)
(0.20083033 0 0)
(0.17048394 0 0)
(0.13752767 0 0)
(0.10176122 0 0)
(0.063563588 0 0)
(0.022071573 0 0)
(0.43738366 0 0)
(0.45771975 0 0)
(0.47785648 0 0)
(0.49789292 0 0)
(0.51793389 0 0)
(0.53798387 0 0)
(0.55809655 0 0)
(0.57837049 0 0)
(0.59887668 0 0)
(0.6174031 0 0)
(0.6334297 0 0)
(0.64879247 0 0)
(0.66337644 0 0)
(0.67702647 0 0)
(0.68955835 0 0)
(0.70078347 0 0)
(0.71049776 0 0)
(0.71848615 0 0)
(0.72452979 0 0)
(0.72841721 0 0)
(0.7299905 0 0)
(0.72915212 0 0)
(0.7258618 0 0)
(0.72014884 0 0)
(0.71207989 0 0)
(0.70182828 0 0)
(0.68963385 0 0)
(0.6757582 0 0)
(0.66048435 0 0)
(0.64411619 0 0)
(0.62704545 0 0)
(0.60975587 0 0)
(0.59262241 0 0)
(0.57588899 0 0)
(0.55999318 0 0)
(0.54530327 0 0)
(0.53286691 0 0)
(0.52366327 0 0)
(0.51841574 0 0)
(0.43732934 0 0)
(0.41698116 0 0)
(0.39621662 0 0)
(0.37505057 0 0)
(0.3532868 0 0)
(0.33070817 0 0)
(0.3073221 0 0)
(0.28320466 0 0)
(0.25770807 0 0)
(0.23064302 0 0)
(0.20195127 0 0)
(0.17106672 0 0)
(0.13761389 0 0)
(0.10182347 0 0)
(0.063601719 0 0)
(0.022083773 0 0)
(0.45737411 0 0)
(0.47720198 0 0)
(0.49691316 0 0)
(0.51660515 0 0)
(0.53628853 0 0)
(0.55601991 0 0)
(0.57589407 0 0)
(0.59596384 0 0)
(0.61625216 0 0)
(0.63446176 0 0)
(0.65007094 0 0)
(0.66500151 0 0)
(0.67909949 0 0)
(0.6921914 0 0)
(0.70409565 0 0)
(0.714622 0 0)
(0.72356304 0 0)
(0.73069306 0 0)
(0.7357897 0 0)
(0.73867366 0 0)
(0.73920779 0 0)
(0.73731058 0 0)
(0.7329628 0 0)
(0.72622323 0 0)
(0.71719093 0 0)
(0.70605092 0 0)
(0.69306302 0 0)
(0.67848579 0 0)
(0.6626059 0 0)
(0.6457263 0 0)
(0.62823122 0 0)
(0.61060742 0 0)
(0.59321057 0 0)
(0.57626831 0 0)
(0.55983328 0 0)
(0.54493443 0 0)
(0.53259631 0 0)
(0.52342999 0 0)
(0.51816782 0 0)
(0.45731091 0 0)
(0.43748091 0 0)
(0.41732828 0 0)
(0.39679747 0 0)
(0.37583218 0 0)
(0.35424075 0 0)
(0.33180632 0 0)
(0.30852865 0 0)
(0.28447308 0 0)
(0.25900264 0 0)
(0.23192423 0 0)
(0.20261593 0 0)
(0.17118567 0 0)
(0.13771514 0 0)
(0.10189553 0 0)
(0.063639715 0 0)
(0.022095826 0 0)
(0.47683932 0 0)
(0.49623105 0 0)
(0.51558163 0 0)
(0.53491086 0 0)
(0.55426722 0 0)
(0.57374637 0 0)
(0.59340567 0 0)
(0.61325074 0 0)
(0.63332228 0 0)
(0.6512304 0 0)
(0.66643668 0 0)
(0.68091862 0 0)
(0.69449686 0 0)
(0.70700574 0 0)
(0.71826275 0 0)
(0.72806516 0 0)
(0.73619605 0 0)
(0.74243159 0 0)
(0.7465674 0 0)
(0.74843599 0 0)
(0.74792294 0 0)
(0.74496926 0 0)
(0.73958422 0 0)
(0.73185254 0 0)
(0.72188846 0 0)
(0.70990543 0 0)
(0.69616692 0 0)
(0.68093895 0 0)
(0.66449467 0 0)
(0.64714348 0 0)
(0.62926812 0 0)
(0.61134274 0 0)
(0.59370935 0 0)
(0.57606315 0 0)
(0.55930493 0 0)
(0.54454966 0 0)
(0.53229106 0 0)
(0.52314827 0 0)
(0.51785887 0 0)
(0.47676913 0 0)
(0.45746409 0 0)
(0.43784097 0 0)
(0.41793192 0 0)
(0.39761795 0 0)
(0.37684399 0 0)
(0.3554091 0 0)
(0.33309401 0 0)
(0.30990361 0 0)
(0.28589714 0 0)
(0.26043595 0 0)
(0.23268119 0 0)
(0.20274706 0 0)
(0.17132285 0 0)
(0.13782645 0 0)
(0.10197633 0 0)
(0.063678285 0 0)
(0.022107136 0 0)
(0.49585263 0 0)
(0.51487012 0 0)
(0.53384959 0 0)
(0.55283992 0 0)
(0.57193583 0 0)
(0.59119103 0 0)
(0.61061527 0 0)
(0.63023251 0 0)
(0.65010724 0 0)
(0.66773427 0 0)
(0.68252405 0 0)
(0.6965229 0 0)
(0.70955967 0 0)
(0.72146442 0 0)
(0.73204775 0 0)
(0.74109519 0 0)
(0.74838026 0 0)
(0.753688 0 0)
(0.75683684 0 0)
(0.75768628 0 0)
(0.75613121 0 0)
(0.75213639 0 0)
(0.74573458 0 0)
(0.73703953 0 0)
(0.72619061 0 0)
(0.71340851 0 0)
(0.69896993 0 0)
(0.68312972 0 0)
(0.66616659 0 0)
(0.64839198 0 0)
(0.63017376 0 0)
(0.61197751 0 0)
(0.5934605 0 0)
(0.57535693 0 0)
(0.55878332 0 0)
(0.54414807 0 0)
(0.5319477 0 0)
(0.52281355 0 0)
(0.51749444 0 0)
(0.4957774 0 0)
(0.47692147 0 0)
(0.45783072 0 0)
(0.43846695 0 0)
(0.41879229 0 0)
(0.39868169 0 0)
(0.37807625 0 0)
(0.35677906 0 0)
(0.33457087 0 0)
(0.31144964 0 0)
(0.28746931 0 0)
(0.26127544 0 0)
(0.23282502 0 0)
(0.20290137 0 0)
(0.171474 0 0)
(0.13794814 0 0)
(0.10206367 0 0)
(0.063714657 0 0)
(0.022116833 0 0)
(0.51446996 0 0)
(0.53311076 0 0)
(0.55174241 0 0)
(0.57046054 0 0)
(0.58932117 0 0)
(0.60833532 0 0)
(0.62752532 0 0)
(0.64693647 0 0)
(0.66663754 0 0)
(0.68397054 0 0)
(0.69830882 0 0)
(0.71180543 0 0)
(0.72428234 0 0)
(0.73555959 0 0)
(0.7454344 0 0)
(0.75368588 0 0)
(0.76009268 0 0)
(0.76445443 0 0)
(0.76661179 0 0)
(0.76643326 0 0)
(0.76383867 0 0)
(0.75881714 0 0)
(0.75142964 0 0)
(0.74181226 0 0)
(0.73011685 0 0)
(0.71658435 0 0)
(0.70148418 0 0)
(0.68508029 0 0)
(0.66764822 0 0)
(0.64948959 0 0)
(0.63096353 0 0)
(0.61168714 0 0)
(0.5925616 0 0)
(0.57467966 0 0)
(0.55826206 0 0)
(0.54372343 0 0)
(0.53156557 0 0)
(0.52242768 0 0)
(0.51706584 0 0)
(0.51438605 0 0)
(0.49593159 0 0)
(0.47729655 0 0)