/*--------------------------------*- C++ -*----------------------------------*\
| =========                 |                                                 |
| \\      /  F ield         | OpenFOAM: The Open Source CFD Toolbox           |
|  \\    /   O peration     | Version:  v2012                                 |
|   \\  /    A nd           | Website:  www.openfoam.com                      |
|    \\/     M anipulation  |                                                 |
\*---------------------------------------------------------------------------*/
FoamFile
{
    version     2.0;
    format      ascii;
    class       surfaceScalarField;
    location    "98.904147998564369";
    object      meshPhi;
}
// * * * * * * * * * * * * * * * * * * * * * * * * * * * * * * * * * * * * * //

dimensions      [0 3 -1 0 0 0 0];
oriented        oriented;


internalField   nonuniform List<scalar> 
18180
(
7.7105681e-14
-0.057917193
0
-0.05174979
0
-0.11650167
0
-0.045887766
0
-0.10524002
0
-0.17320254
0
-0.041424425
0
-0.094533517
0
-0.15895731
-6.9261547e-14
-0.22834468
-3.8486622e-14
-0.038686856
0
-0.086234484
7.1787158e-14
-0.14513929
0
-0.21133533
0
-0.2805584
0
-0.03697326
0
-0.079882935
2.5138715e-17
-0.13307641
6.9289865e-14
-0.19505718
0
-0.26127207
-6.4511757e-14
-0.33036169
0
-0.035668075
0
-0.075187735
2.4756461e-17
-0.12302491
0
-0.1801567
0
-0.2429476
0
-0.30866421
0
-0.37712441
0
-0.034542661
0
-0.071648827
-2.4175419e-17
-0.114751
0
-0.16658602
0
-0.2256879
0
-0.28831905
0
-0.35308904
0
-0.42104542
0
-0.033384768
3.7143007e-14
-0.068643455
0
-0.10808468
-3.4618929e-14
-0.15459008
2.4610566e-17
-0.20926903
0
-0.2689786
6.228204e-14
-0.33067109
0
-0.39461019
0
-0.46170091
2.6386462e-17
-0.032168995
0
-0.065853616
0
-0.10262831
-3.4586941e-14
-0.14450473
-3.341282e-14
-0.19417625
3.2255125e-14
-0.25059518
0
-0.30961699
6.0100615e-14
-0.37021868
0
-0.43312331
0
-0.49946
0
-0.030901073
3.7133228e-14
-0.063076023
0
-0.097818556
3.4580201e-14
-0.13622274
-3.3380547e-14
-0.18093143
3.2222333e-14
-0.23320756
2.2838482e-17
-0.28963894
0
-0.34734041
3.7369248e-17
-0.40684596
0
-0.46888686
-5.3984154e-14
-0.53406184
0
-0.029607374
-3.7104028e-14
-0.06027788
0
-0.09329306
0
-0.12916007
-6.6793468e-14
-0.16961245
-3.2213912e-14
-0.21720076
3.1094823e-14
-0.2706265
3.0035551e-14
-0.32588643
0
-0.38227271
0
-0.44086826
0
-0.5016758
0
-0.56587859
0
-0.028304544
0
-0.057467134
0
-0.088870927
0
-0.12276213
0
-0.16004275
3.2206049e-14
-0.2032292
3.1109514e-14
-0.25291065
3.0004738e-14
-0.30577714
-2.8961083e-14
-0.35942095
2.7953227e-14
-0.41461465
0
-0.47207099
0
-0.53178755
0
-0.59475367
1.9230763e-14
-0.027000816
1.8549215e-14
-0.054668584
0
-0.084513142
0
-0.11670117
0
-0.15163199
0
-0.19120925
0
-0.23678459
3.0017893e-14
-0.28677341
-2.8971627e-14
-0.33812639
1.8029948e-17
-0.3902646
1.6263991e-17
-0.44438488
0
-0.50077077
0
-0.55919459
4.8522679e-14
-0.62117642
1.4657135e-17
-0.025700616
1.3226941e-17
-0.051898603
-1.7917038e-14
-0.080229529
0
-0.11083511
0
-0.14382581
0
-0.18065083
0
-0.22245758
0
-0.26885839
0
-0.31785791
-1.8563259e-17
-0.36771338
1.6587608e-17
-0.41866981
-5.2046273e-14
-0.47172138
0
-0.52696091
0
-0.5842807
0
-0.64499856
0
-0.024413088
1.8561041e-14
-0.049176643
0
-0.076045335
-1.2393112e-17
-0.10513867
0
-0.13637345
0
-0.17104297
2.3539126e-17
-0.20978909
0
-0.25244564
0
-0.29851465
0
-0.34647371
-1.7155944e-17
-0.39499632
-5.2009309e-14
-0.44475381
-2.512151e-14
-0.49679158
-4.8470192e-14
-0.55092598
0
-0.60692645
0
-0.66667765
0
-0.023147564
1.8560747e-14
-0.046518193
1.295786e-17
-0.071977879
0
-0.09962296
-1.1925331e-17
-0.12917797
0
-0.16196879
0
-0.19833036
0
-0.23772232
0
-0.28034625
0
-0.32600266
2.6956081e-14
-0.37284701
-2.6016224e-14
-0.42000479
0
-0.46870526
0
-0.51967808
4.6788388e-14
-0.57261185
0
-0.62750238
0
-0.68608656
1.9213513e-14
-0.021906716
-1.8547149e-14
-0.043937547
-1.7902592e-14
-0.068040441
0
-0.09430329
-1.6673907e-14
-0.12223617
-1.6101611e-14
-0.15327268
0
-0.1876707
0
-0.22443283
2.8933877e-14
-0.263655
0
-0.30634425
0
-0.35155149
1.6312203e-17
-0.39702773
2.5083909e-14
-0.44290705
1.2775053e-17
-0.49056826
0
-0.54050708
0
-0.59231308
4.3572024e-14
-0.64599144
4.2052749e-14
-0.70370801
1.9228583e-14
-0.020693691
1.8547113e-14
-0.041444358
1.3191694e-17
-0.064243778
0
-0.08919219
1.2056597e-17
-0.11556497
1.6100185e-14
-0.14491352
-1.5535296e-14
-0.17756846
0
-0.21221956
-2.8926065e-14
-0.24860544
-2.7891398e-14
-0.28810329
0
-0.33101969
0
-0.3751213
1.4781226e-17
-0.41904076
0
-0.46376972
-2.3359059e-14
-0.51049406
-2.2549066e-14
-0.55938417
0
-0.6100962
0
-0.6627527
-4.0560184e-14
-0.71939926
1.5489293e-17
-0.019509927
-1.8560793e-14
-0.039046418
1.7902489e-14
-0.060599324
1.7290242e-14
-0.084293043
0
-0.10917394
1.2099942e-17
-0.13689615
0
-0.16792446
0
-0.20077258
0
-0.23490052
0
-0.27148514
-2.6904601e-14
-0.31153562
0
-0.35387548
0
-0.39639153
-2.4198954e-14
-0.43895373
-1.187093e-17
-0.48277461
1.0589114e-17
-0.52857988
-2.1764508e-14
-0.57653905
0
-0.62618731
0
-0.67771557
0
-0.73358799
-1.9228425e-14
-0.018358356
0
-0.036747393
0
-0.057112008
-1.7290301e-14
-0.079603012
0
-0.10306659
0
-0.12922347
-1.5519684e-14
-0.15870861
-1.4973309e-14
-0.18992126
-1.4456618e-14
-0.22213198
0
-0.25630403
0
-0.29346415
1.7700667e-17
-0.33332533
0
-0.37436165
0
-0.41546602
-2.3331073e-14
-0.45707776
0
-0.50008957
-2.1741205e-14
-0.54507763
0
-0.59204684
0
-0.64062513
0
-0.69120143
0
-0.74614081
0
-0.017247421
0
-0.034548984
0
-0.053784272
0
-0.075118137
-1.6684074e-14
-0.097238657
1.6097632e-14
-0.12189566
1.5530984e-14
-0.14990857
1.4983272e-14
-0.1795858
1.0701111e-17
-0.21006508
0
-0.24224049
0
-0.27686319
0
-0.31388952
2.5048393e-14
-0.35287411
0
-0.39275423
0
-0.43281193
0
-0.47361576
2.1726205e-14
-0.51591603
-2.0974688e-14
-0.5600624
2.0257639e-14
-0.60608615
0
-0.65361648
0
-0.70319429
0
-0.7574819
0
-0.016184465
0
-0.03245479
0
-0.050616401
0
-0.070831717
0
-0.091685886
0
-0.11490927
1.5530118e-14
-0.1415058
-2.9951606e-14
-0.16973167
-1.4441097e-14
-0.19857212
-1.3930737e-14
-0.22896857
0
-0.26149584
0
-0.29587488
0
-0.33222267
0
-0.37045145
0
-0.40940727
0
-0.44858904
0
-0.48874633
0
-0.53035696
-2.0235146e-14
-0.5736857
0
-0.61870668
0
-0.66524485
0
-0.71397741
0
-0.76746977
0
-0.015172487
-9.2809223e-15
-0.030465605
0
-0.047604124
0
-0.066735496
1.2341184e-17
-0.086396441
0
-0.10826001
0
-0.13349067
-1.4968436e-14
-0.16033518
1.0848573e-17
-0.1876077
-1.3928052e-14
-0.21633537
-1.3435462e-14
-0.24707523
1.2961399e-14
-0.27920716
2.5025806e-14
-0.31277894
0
-0.34868768
0
-0.38648646
0
-0.42459491
-2.1694764e-14
-0.46303511
9.269566e-18
-0.50260009
2.0219129e-14
-0.54353513
7.2781052e-18
-0.58600198
0
-0.6301008
-3.6396989e-14
-0.67565089
0
-0.72350878
0
-0.77645605
0
-0.014212758
0
-0.028580272
0
-0.044743524
0
-0.062824852
0
-0.081360645
0
-0.10194003
-1.5515905e-14
-0.12584932
-1.4979821e-14
-0.15137869
0
-0.17715685
1.3925759e-14
-0.20427504
1.9385597e-17
-0.23339752
0
-0.26365803
1.2500342e-14
-0.29478669
0
-0.32801679
0
-0.36401722
1.2068864e-17
-0.40118357
0
-0.43839221
2.093593e-14
-0.47625113
0
-0.51529367
-7.5555171e-18
-0.55552868
6.6124206e-18
-0.59717693
-1.8190798e-14
-0.64029205
9.5894791e-18
-0.68490563
0
-0.73202708
0
-0.78431819
-9.6141258e-15
-0.01330759
-9.2811884e-15
-0.026796914
6.9837133e-18
-0.042031164
-6.9703089e-18
-0.059097135
0
-0.076566273
0
-0.095937087
0
-0.11856889
-1.4966477e-14
-0.14283956
-1.0967645e-17
-0.16719472
0
-0.1927688
0
-0.22036683
1.2962795e-14
-0.24899263
-1.2495999e-14
-0.27810329
0
-0.30873807
0
-0.3423064
0
-0.37814132
0
-0.41442344
0
-0.45093796
8.6356208e-18
-0.48836735
0
-0.52687197
-1.8823754e-14
-0.56643895
0
-0.6072508
0
-0.64944565
0
-0.69314109
0
-0.73953317
3.1576837e-14
-0.79140684
7.8854782e-18
-0.012457527
-6.9952073e-18
-0.025113962
0
-0.039463563
0
-0.05554826
8.3299279e-15
-0.072003779
0
-0.090235543
0
-0.11163038
0
-0.13469228
1.4435241e-14
-0.15770176
0
-0.1817975
1.3437118e-14
-0.20794279
0
-0.23506779
-1.2492124e-14
-0.26244792
1.2050369e-14
-0.29086121
0
-0.32185777
0
-0.35572317
-1.1162552e-17
-0.39088177
2.0903719e-14
-0.4263169
0
-0.46240561
-1.9478509e-14
-0.49943002
-1.8799342e-14
-0.53741698
1.8152853e-14
-0.57633072
-1.7529312e-14
-0.61633879
1.6931516e-14
-0.65758622
0
-0.70044735
0
-0.74623089
-3.0459293e-14
-0.79762125
0
-0.011661129
7.0163469e-18
-0.023530868
-7.0749348e-18
-0.037035662
-8.6464238e-15
-0.052174611
6.2796244e-18
-0.067665454
8.0422465e-15
-0.084822802
0
-0.10502344
0
-0.12691817
1.1065918e-17
-0.14865206
-1.3930902e-14
-0.17134168
0
-0.19610452
0
-0.22180981
0
-0.24763289
6.600814e-18
-0.27419682
0
-0.30284665
0
-0.33436044
2.1645684e-14
-0.36791324
0
-0.40220045
8.7368956e-18
-0.43710292
0
-0.47287446
0
-0.50951318
0
-0.54699873
0
-0.58528526
-1.6911565e-14
-0.62449083
-1.6334971e-14
-0.66487391
-3.1537203e-14
-0.70691348
0
-0.75212381
0
-0.80323503
0
-0.010915528
0
-0.02204357
7.110562e-18
-0.034741676
-7.0746302e-18
-0.048972321
0
-0.063545867
8.0422714e-15
-0.079690632
7.7573175e-15
-0.098738182
1.497796e-14
-0.11949929
0
-0.14003047
1.3929767e-14
-0.16138108
0
-0.1848242
-1.2954933e-14
-0.20918265
1.249326e-14
-0.23354207
0
-0.25848117
6.1436782e-18
-0.28515336
0
-0.3143552
1.0810492e-14
-0.34587459
1.008476e-17
-0.37871315
0
-0.41235059
0
-0.4469323
0
-0.48244117
-1.8123245e-14
-0.5186892
1.7500242e-14
-0.5556973
-5.1319847e-18
-0.59337992
0
-0.6318339
-3.151513e-14
-0.67132642
0
-0.71262352
0
-0.757378
2.8355652e-14
-0.80821152
0
-0.010211179
0
-0.020648345
0
-0.032577964
8.6467731e-15
-0.045938698
0
-0.05963883
1.6090849e-14
-0.074829657
6.7808441e-18
-0.092767955
7.4822213e-15
-0.11242241
1.4444355e-14
-0.13181573
-1.3928833e-14
-0.1519004
1.008679e-17
-0.17408348
1.2953022e-14
-0.19715843
-1.2490608e-14
-0.2201202
6.451096e-18
-0.24357059
0
-0.26856951
1.1205612e-14
-0.29572368
1.0809955e-14
-0.32506378
-1.0429673e-14
-0.35616033
0
-0.38838912
1.9426684e-14
-0.4215944
7.3115714e-18
-0.45594952
0
-0.49115798
3.4963473e-14
-0.52701924
-1.6876616e-14
-0.56356945
0
-0.60069843
3.9748994e-18
-0.638415
1.5204089e-14
-0.67708356
-2.9355166e-14
-0.71768055
0
-0.76206627
-2.7351816e-14
-0.81281979
-4.6885958e-05
-0.011198861
0
-0.019332398
0
-0.030540202
0
-0.043069558
8.3429386e-15
-0.055941029
-6.2792322e-18
-0.070230844
0
-0.087106712
0
-0.10568141
-5.6125745e-18
-0.1239941
0
-0.14288759
0
-0.16386232
0
-0.18571556
0
-0.20734001
0
-0.22937737
1.161333e-14
-0.25288984
0
-0.27831318
-1.0798688e-14
-0.3056138
-1.041794e-14
-0.33474141
0
-0.36541873
0
-0.39715288
0
-0.43003888
0
-0.46417451
0
-0.49908931
-1.6863219e-14
-0.53455562
3.2571241e-14
-0.57069297
0
-0.6073116
0
-0.64432775
0
-0.68218324
-2.8320929e-14
-0.72218546
0
-0.76633373
0
-0.81699946
-7.8871253e-05
-0.011172171
-0.00013090479
-0.02105054
0
-0.028611502
0
-0.040359591
0
-0.052445235
-8.0423233e-15
-0.065884665
7.7571328e-15
-0.081748361
7.4819706e-15
-0.099273198
-7.2162385e-15
-0.1165493
6.9587433e-15
-0.13432653
0
-0.15414578
0
-0.17483331
1.2486296e-14
-0.19517678
0
-0.21586373
1.1609899e-14
-0.23800449
5.8319412e-18
-0.26193119
0
-0.28745487
5.0302775e-18
-0.31457372
-1.0045191e-14
-0.34350082
9.6931785e-15
-0.37383389
0
-0.40512824
0
-0.43776375
0
-0.47169604
0
-0.50626894
1.6271748e-14
-0.54137101
-1.5706261e-14
-0.57714181
0
-0.61328361
1.4654248e-14
-0.64962754
0
-0.6867486
0
-0.72623594
-2.6376178e-14
-0.77021583
0
-0.82091608
-9.7642388e-05
-0.011147923
-0.00022029383
-0.021070291
-0.00020501684
-0.030927417
0
-0.037787999
8.3430557e-15
-0.049144648
0
-0.061780685
6.8346812e-18
-0.07667983
-6.7844923e-18
-0.093190153
-7.2161318e-15
-0.1094678
4.9863593e-18
-0.12619506
6.7095246e-15
-0.14491259
0
-0.16448991
0
-0.18361324
0
-0.20300565
0
-0.22385192
0
-0.24643465
0
-0.27043068
-1.0406327e-14
-0.29572932
4.632743e-18
-0.32277704
0
-0.35160562
-9.3508187e-15
-0.38149741
0
-0.41239322
0
-0.44483423
0
-0.47852769
0
-0.51277223
0
-0.54753791
0
-0.58297796
0
-0.61868621
1.4137669e-14
-0.6544071
0
-0.69083866
-2.6359403e-14
-0.72990795
-2.5445548e-14
-0.77380304
-2.4557272e-14
-0.82450465
-0.00010488989
-0.011130564
-0.0002727735
-0.021081618
-0.00034515076
-0.031047576
-0.00027368761
-0.040509325
0
-0.046017643
0
-0.057908803
0
-0.071890344
-7.4817944e-15
-0.087419147
-5.6537977e-18
-0.10274188
-4.9786817e-18
-0.11847426
-6.7091613e-15
-0.13614649
-6.4739999e-15
-0.15466698
0
-0.17262805
0
-0.19078589
0
-0.21040302
0
-0.231739
-1.07903e-14
-0.25438215
1.0406259e-14
-0.27810322
0
-0.30332549
4.3209306e-18
-0.33043084
9.3431286e-15
-0.35899898
9.0132266e-15
-0.38841094
0
-0.41901111
0
-0.45129969
1.6227965e-14
-0.48474116
0
-0.51864642
0
-0.55310794
0
-0.58825854
0
-0.6235796
2.6531955e-18
-0.65872295
-2.6339818e-14
-0.69455767
2.543305e-14
-0.73327615
-2.4550432e-14
-0.77712185
-2.3689758e-14
-0.82791946
-0.00010228259
-0.011120098
-0.00029301865
-0.021093889
-0.0004274708
-0.031142226
-0.00046071466
-0.040742478
-0.00033300443
-0.048979994
0
-0.054247831
0
-0.067369044
0
-0.081952667
0
-0.096362766
-4.9775292e-18
-0.11115637
0
-0.12782984
-6.4688325e-15
-0.14534466
-3.6290984e-18
-0.16220442
0
-0.17918741
0
-0.19763384
1.1186588e-14
-0.21779829
0
-0.23920095
0
-0.26151846
4.5042777e-18
-0.28510711
9.6767559e-15
-0.31042558
9.3358633e-15
-0.33746683
9.0086172e-15
-0.36563966
8.6914742e-15
-0.39466398
0
-0.42508444
0
-0.45719549
0
-0.49035911
0
-0.52395309
0
-0.55813478
0
-0.59303945
-2.8427234e-18
-0.62802325
2.4096416e-18
-0.6626482
-1.2706396e-14
-0.69794785
2.453537e-14
-0.73638891
0
-0.78023995
2.7654744e-18
-0.83104859
-9.1493235e-05
-0.011116264
-0.00028566249
-0.021106692
-0.00045916123
-0.031222144
-0.00057045058
-0.040931446
-0.0005605436
-0.049402783
-0.00038446377
-0.057366357
7.7570966e-15
-0.063094709
0
-0.076779704
0
-0.090324038
4.9786157e-18
-0.10423111
-5.2161537e-18
-0.11994949
0
-0.13650425
0
-0.15232179
6.012923e-15
-0.16819138
0
-0.1855266
0
-0.20458125
1.0783409e-14
-0.22482416
0
-0.24585277
1.002246e-14
-0.26800081
-9.6667027e-15
-0.29164121
9.3290642e-15
-0.3169672
9.0009865e-15
-0.34381911
8.6861894e-15
-0.37165871
0
-0.40039964
0
-0.4306391
0
-0.46255859
0
-0.49544662
0
-0.52873292
0
-0.56267378
0
-0.5973817
1.3141495e-14
-0.63206301
2.205242e-18
-0.66623108
1.2258066e-14
-0.70107606
0
-0.73928058
0
-0.78312445
2.2046878e-14
-0.83398161
-7.4188957e-05
-0.011118674
-0.00025543717
-0.021119812
-0.00044753083
-0.031287116
-0.00061255896
-0.04109357
-0.00069411907
-0.049760666
-0.00064767337
-0.058051299
-0.0004339909
-0.066250519
0
-0.071876532
0
-0.08461465
0
-0.097685918
6.7135355e-15
-0.11248741
6.4681468e-15
-0.12812678
-3.5556596e-18
-0.1429622
0
-0.15778104
-2.8231584e-18
-0.17405966
0
-0.19205975
0
-0.21121299
1.0394112e-14
-0.23102948
0
-0.251863
-4.1300572e-18
-0.27401104
9.3228078e-15
-0.29763796
-8.9902428e-15
-0.32293197
3.3197631e-18
-0.34962296
2.9415472e-18
-0.37714586
0
-0.4056328
0
-0.43570898
0
-0.46741951
-1.4560202e-14
-0.50003629
0
-0.5330472
0
-0.56678333
0
-0.60132247
0
-0.63575344
1.224661e-14
-0.66952377
2.3649131e-14
-0.70395903
0
-0.74197344
0
-0.7858085
-2.1264345e-14
-0.83658402
-5.2049674e-05
-0.011127233
-0.00020700058
-0.02113268
-0.00039995795
-0.031337282
-0.00059684475
-0.041229022
-0.00074542619
-0.050074104
-0.00080257309
-0.058649386
-0.00073154565
-0.067198142
-0.00048106283
-0.074918598
0
-0.079201555
0
-0.091508937
0
-0.10542936
4.8914573e-18
-0.12019071
-3.5187095e-18
-0.13410568
0
-0.14793751
5.7982258e-15
-0.1632141
0
-0.18020881
0
-0.1983327
0
-0.21699928
0
-0.23660968
9.6608108e-15
-0.25742181
0
-0.27949411
3.4877557e-18
-0.30310863
1.7338064e-14
-0.3284331
0
-0.35495205
0
-0.3821535
0
-0.41041732
0
-0.44031999
0
-0.47183102
-1.4045513e-14
-0.50418558
0
-0.53693823
0
-0.57049458
-1.2663077e-14
-0.60490625
-2.1520623e-18
-0.63912761
-1.1812678e-14
-0.67255474
0
-0.70664714
2.2025739e-14
-0.74446504
0
-0.7882297
2.0942956e-18
-0.83895786
-2.6756109e-05
-0.01114214
-0.00014512097
-0.021145137
-0.00032390039
-0.031372911
-0.00053321785
-0.041337831
-0.00072639147
-0.050342911
-0.00086247976
-0.059174467
-0.00090687288
-0.068028958
-0.00081062851
-0.076112495
-0.00051893577
-0.082003063
0
-0.085669028
0
-0.098761641
0
-0.1126811
6.2391282e-15
-0.12573417
-6.0138994e-15
-0.13864278
5.7947815e-15
-0.15296912
0
-0.16900397
-2.8964147e-18
-0.18615281
0
-0.20372577
0
-0.22218188
0
-0.24177282
-9.3082758e-15
-0.26245483
-8.9776969e-15
-0.28447046
8.6637171e-15
-0.30823988
0
-0.33360887
0
-0.35980918
0
-0.38669013
0
-0.41478044
0
-0.44452343
0
-0.47581671
0
-0.50792872
0
-0.54044562
0
-0.57384879
0
-0.60816288
0
-0.6422254
1.704028e-18
-0.67535009
0
-0.70912663
2.1246808e-14
-0.746755
0
-0.79042044
0
-0.84100918
-0.011163111
0
-7.4527264e-05
-0.021157455
-0.00022687148
-0.031394062
-0.00043167138
-0.041419761
-0.00064907518
-0.050565746
-0.00084095821
-0.059625123
-0.00097489036
-0.068750766
-0.0010045956
-0.077149494
-0.000874157
-0.08349092
-0.00054614713
-0.088163149
6.7130872e-15
-0.092453789
0
-0.10557956
0
-0.11783079
6.0134249e-15
-0.12987661
-2.7487642e-18
-0.14330621
-5.5883828e-15
-0.15842322
0
-0.1746447
-1.0385722e-14
-0.19117525
0
-0.20853581
9.6527725e-15
-0.22699438
0
-0.24641748
-3.3125143e-18
-0.26698978
8.6572417e-15
-0.28916829
0
-0.31313619
2.9072293e-18
-0.33832329
2.4984571e-18
-0.36415431
7.5097825e-15
-0.39081502
0
-0.41876412
0
-0.44832464
0
-0.47942577
-1.3071118e-14
-0.51130704
0
-0.54360252
0
-0.57687656
0
-0.61113853
0
-0.64505967
1.0995172e-14
-0.67793063
0
-0.71142794
0
-0.74880989
0
-0.79233755
0
-0.84282328
-0.021169259
0
-0.011189174
2.6881176e-05
-0.00011638946
-0.031401197
-0.00030224647
-0.041475455
-0.00052555198
-0.050741039
-0.00075183664
-0.060000247
-0.00095079841
-0.069363645
-0.0010794535
-0.078043981
-0.0010830102
-0.08478724
-0.00092025754
-0.089997477
-0.00056907186
-0.094560372
0
-0.098841355
0
-0.11037765
0
-0.12162107
2.7202142e-18
-0.13419875
-3.0492489e-18
-0.14844328
-5.3832796e-15
-0.1637816
5.1917959e-15
-0.17931889
0
-0.19563551
0
-0.21303344
0
-0.23129582
-8.9673565e-15
-0.25055828
0
-0.27124889
0
-0.29370187
0
-0.31767667
-7.7677528e-15
-0.342519
7.5006057e-15
-0.36805307
0
-0.39458014
-1.8010325e-18
-0.42237867
0
-0.45176689
0
-0.48268099
2.5149787e-18
-0.51435281
0
-0.54644401
0
-0.57962192
1.1372617e-14
-0.61384576
-1.6516169e-18
-0.64766683
-1.0605376e-14
-0.6803101
0
-0.71350384
1.9769345e-14
-0.75064263
0
-0.79402272
0
-0.84432475
-0.031394649
0
-0.021180912
7.4701504e-05
-0.011221033
5.2543611e-05
-0.00015500638
-0.041505531
-0.00036806054
-0.05086876
-0.00060903233
-0.060297575
-0.00085012866
-0.069868412
-0.0010523015
-0.078797621
-0.0011634376
-0.085916448
-0.0011405354
-0.091615996
-0.00095922559
-0.096737335
-0.00058915602
-0.10046651
0
-0.10330777
0
-0.11386072
0
-0.12562849
3.0759712e-18
-0.13903951
-3.035921e-18
-0.15353529
0
-0.16812816
5.0034461e-15
-0.18345181
4.8191655e-15
-0.19985052
0
-0.21702912
0
-0.23508777
-8.6459999e-15
-0.25443041
0
-0.27538884
-2.9477255e-18
-0.29797695
0
-0.32173068
0
-0.34623417
-7.2306916e-15
-0.37159702
-6.9824864e-15
-0.39800604
6.7443703e-15
-0.42565
0
-0.45487345
0
-0.48563117
1.216773e-14
-0.51709714
0
-0.54900386
0
-0.58209765
0
-0.61631686
1.0594889e-14
-0.65005154
1.0232004e-14
-0.68248889
0
-0.71538567
0
-0.75224736
0
-0.79545131
0
-0.84561819
-0.04150977
0
-0.03137741
0.000116365
-0.021192742
0.00014580929
-0.011260195
7.5257991e-05
-0.00018879802
-0.050949662
-0.0004266748
-0.060515692
-0.0006887319
-0.070265566
-0.00094051909
-0.079412942
-0.0011339741
-0.086876685
-0.0012256635
-0.093035105
-0.0011891345
-0.098655073
-0.00099294114
-0.10294702
-0.00060003989
-0.10436313
0
-0.10652768
0
-0.11757629
0
-0.1301856
3.0890169e-18
-0.14388005
-2.3838981e-18
-0.15757565
0
-0.17195684
2.052535e-18
-0.18741011
-1.799477e-18
-0.20357377
0
-0.22050798
0
-0.23861579
-8.3303836e-15
-0.25818889
8.0381029e-15
-0.27933489
7.7523222e-15
-0.30186172
-7.4813048e-15
-0.32532335
0
-0.34958596
1.3949349e-14
-0.37483204
-6.7343236e-15
-0.4011231
0
-0.42861046
0
-0.4576907
0
-0.48828737
1.173884e-14
-0.51957191
0
-0.55130144
0
-0.58433455
0
-0.61856
0
-0.65224406
0
-0.68446724
9.5274069e-15
-0.71705391
0
-0.75364693
0
-0.79666763
-1.7122588e-14
-0.84665726
-0.050982722
0
-0.041494415
0.00015486777
-0.031349188
0.00022677634
-0.021204328
0.00020848694
-0.011306941
9.3273145e-05
-0.00021892227
-0.060654605
-0.00048252419
-0.07055404
-0.00076168444
-0.079891216
-0.001013272
-0.087663048
-0.0011950409
-0.09424932
-0.0012782449
-0.1003264
-0.0012306284
-0.10512013
-0.0010107612
-0.10711367
-0.00060029067
-0.10698358
0
-0.1099784
0
-0.12185455
-5.3813613e-15
-0.13478064
5.1893631e-15
-0.14763298
-2.0863731e-18
-0.16112039
0
-0.17568089
4.6468364e-15
-0.1908886
-1.531594e-18
-0.20676806
0
-0.22373386
0
-0.24204412
-8.0292635e-15
-0.26179052
0
-0.28298218
-2.475271e-18
-0.30536431
0
-0.3285745
0
-0.3526551
6.726192e-15
-0.37779532
1.5073607e-18
-0.4039461
-1.3348356e-18
-0.43128597
0
-0.46022668
0
-0.49069155
-1.1323407e-14
-0.5217953
0
-0.55336295
0
-0.58634465
0
-0.62061266
0
-0.65423564
0
-0.68626154
0
-0.71854334
0
-0.75482546
0
-0.79765877
1.6514635e-14
-0.84751428
-0.060713566
0
-0.050978197
0.00018871677
-0.04146067
0.00030171338
-0.031307444
0.00032370129
-0.021215769
0.00025790553
-0.011360631
0.00010478935
-0.00024757928
-0.070734074
-0.00053345751
-0.080232647
-0.00082039687
-0.088269781
-0.0010681922
-0.095251922
-0.0012465191
-0.10175026
-0.0013224194
-0.10700954
-0.0012522793
-0.10951332
-0.0010109719
-0.10999939
-0.00059712904
-0.10985125
0
-0.11399695
0
-0.12620384
0
-0.13827088
2.064117e-18
-0.15091312
4.8177966e-15
-0.16462814
0
-0.17893659
4.4762831e-15
-0.19382519
-1.4161374e-18
-0.20972474
8.3235781e-15
-0.22687675
0
-0.24532675
-7.739148e-15
-0.26515887
0
-0.28636387
-7.2071817e-15
-0.30858575
0
-0.33154028
6.7150039e-15
-0.35546033
-6.4853739e-15
-0.38048276
1.2531559e-14
-0.40649598
-6.0546114e-15
-0.43369255
0
-0.46251606
0
-0.49285174
0
-0.52379478
0
-0.55520406
0
-0.58816328
-9.8496259e-15
-0.62247112
-9.5126059e-15
-0.65605691
-9.183059e-15
-0.68787862
-8.8642279e-15
-0.71982556
0
-0.75581271
0
-0.79846907
1.5926965e-14
-0.84815074
-0.070805677
0
-0.060709791
0.00021888973
-0.050935919
0.00036775184
-0.041404591
0.00043056643
-0.031253491
0.00039965464
-0.021227589
0.00028914656
-0.011422731
0.00010802773
-0.00027363996
-0.080437825
-0.0005744123
-0.088695657
-0.00086501075
-0.096032531
-0.0011143886
-0.10292537
-0.0012892195
-0.10861376
-0.0013453319
-0.11160891
-0.0012524217
-0.1126451
-0.0010058477
-0.11319322
-0.00059567527
-0.11328563
0
-0.11809223
0
-0.12946107
0
-0.14130785
2.1042879e-18
-0.15422199
-4.6445683e-15
-0.16768059
4.4764375e-15
-0.18163896
0
-0.19653982
-1.3934593e-18
-0.21262237
0
-0.22988179
0
-0.24841165
-7.4596222e-15
-0.268346
0
-0.28954031
6.946194e-15
-0.31154336
0
-0.33424654
-6.4756906e-15
-0.35802051
1.3974427e-18
-0.38292251
6.0445824e-15
-0.4087869
-1.075238e-18
-0.4358544
0
-0.46457471
0
-0.49480521
1.0541634e-14
-0.52558239
0
-0.55685388
0
-0.58979038
1.0853923e-18
-0.624161
0
-0.65770162
8.8596531e-15
-0.6893261
-8.5511762e-15
-0.72093698
0
-0.75662062
0
-0.79909544
0
-0.84863961
-0.080507805
0
-0.070793569
0.00024751954
-0.060643129
0.00042654536
-0.050845933
0.00052492535
-0.041327529
0.00053148123
-0.031187648
0.00044715985
-0.021239545
0.00029736425
-0.011495875
0.00010112981
-0.00029455528
-0.088940161
-0.00060571233
-0.096585971
-0.00090260694
-0.10384854
-0.0011523361
-0.10993161
-0.0013112602
-0.11339352
-0.0013453559
-0.11496436
-0.0012462638
-0.11614037
-0.0010039568
-0.11698302
-0.0005953271
-0.11675924
0
-0.12113347
0
-0.13227636
4.8183045e-15
-0.1444268
1.8197193e-18
-0.15708976
-1.4645042e-18
-0.17017194
0
-0.18413537
0
-0.19922258
-1.3279209e-18
-0.21538575
0
-0.23270138
0
-0.25136455
-7.1903056e-15
-0.27142261
0
-0.2925207
0
-0.3142353
0
-0.33671769
0
-0.36036276
-6.0333299e-15
-0.38512709
1.1027457e-18
-0.41084589
-5.6337696e-15
-0.43779761
1.0891011e-14
-0.46643329
0
-0.49655262
0
-0.52718692
0
-0.55831773
-9.4921683e-15
-0.59124975
0
-0.62567984
0
-0.65920073
0
-0.69060157
0
-0.72187828
-1.591532e-14
-0.7572793
-1.535572e-14
-0.79957205
0
-0.84895177
-0.089008553
0
-0.080475376
0.00027347903
-0.070699194
0.00048230043
-0.060497308
0.00060876633
-0.050710291
0.00064811565
-0.041229496
0.00059455082
-0.031109026
0.00045875006
-0.021253946
0.00027761708
-0.011580734
8.2177514e-05
-0.00031058316
-0.096910405
-0.00063215651
-0.10451534
-0.00093321254
-0.11096243
-0.0011716665
-0.11486148
-0.0013112056
-0.11694664
-0.0013390043
-0.11872314
-0.0012443136
-0.12025963
-0.0010034522
-0.12078827
-0.00059162776
-0.11917169
0
-0.1237551
0
-0.13520797
0
-0.14712504
1.4436784e-18
-0.15938809
-4.3120587e-15
-0.17247291
4.1549496e-15
-0.18662981
-4.0054e-15
-0.20177556
-3.8630416e-15
-0.21796652
0
-0.23542329
0
-0.2542807
0
-0.27436472
6.6889076e-15
-0.29523794
6.4573774e-15
-0.31667205
-6.235776e-15
-0.338981
0
-0.36250646
-5.8197697e-15
-0.38711977
5.6249638e-15
-0.41268848
0
-0.43953973
0
-0.46809737
-1.0154653e-14
-0.49812644
0
-0.52861159
0
-0.55961654
0
-0.5925429
8.8432129e-15
-0.62706283
-8.5380365e-15
-0.66053492
0
-0.6917296
0
-0.72268345
0
-0.75778395
0
-0.79989324
0
-0.84914986
-0.097009085
0
-0.08894504
0.00029422215
-0.08034368
0.00053286138
-0.070500178
0.00068829258
-0.060274674
0.00075143833
-0.050530669
0.0007251973
-0.041112385
0.00060993413
-0.031016421
0.0004271036
-0.02126911
0.00022485069
-0.011677747
4.9163218e-05
-0.00032421226
-0.10492398
-0.00065354879
-0.1117062
-0.00094864614
-0.1160078
-0.0011716969
-0.11858417
-0.0013052998
-0.12093155
-0.001337327
-0.12312888
-0.0012440185
-0.12435732
-0.00099733624
-0.12350066
-0.00058392375
-0.12116678
0
-0.12650314
0
-0.13775022
-4.473343e-15
-0.14925315
-4.308244e-15
-0.16151378
0
-0.1747991
4.0036928e-15
-0.18899774
-3.8609518e-15
-0.20414269
3.7215438e-15
-0.22047038
0
-0.23815284
0
-0.25712087
0
-0.27707092
0
-0.29766403
-1.5863949e-18
-0.31889717
6.0152182e-15
-0.3410843
-5.8098791e-15
-0.36445929
1.0326594e-18
-0.388903
0
-0.41433287
0
-0.44109512
0
-0.46958862
0
-0.4995255
0
-0.52987942
0
-0.56075404
0
-0.59370227
0
-0.62829364
0
-0.66173505
-7.9478314e-15
-0.69271194
0
-0.72334213
4.4524756e-19
-0.75815856
0
-0.80009569
-1.377402e-14
-0.84919472
-0.10507138
0
-0.096936594
0.00031012922
-0.088756495
0.00057317888
-0.08008503
0.00076050157
-0.070198698
0.00084950257
-0.059977346
0.00084052157
-0.050306879
0.00074416586
-0.040978869
0.00056784133
-0.030910826
0.00034485816
-0.021287173
0.00013405078
-0.011777614
0
-0.00033520679
-0.11216279
-0.00066424404
-0.11683132
-0.0009486521
-0.11986822
-0.0011665979
-0.12275792
-0.0013039373
-0.12558073
-0.0013371642
-0.1274855
-0.0012364382
-0.12733541
-0.00098446311
-0.12579089
-0.0005754333
-0.12327836
9.2820205e-15
-0.12889222
0
-0.13973332
0
-0.15122117
1.3805934e-18
-0.16369124
-1.3010754e-18
-0.17700288
-3.8579101e-15
-0.19117031
1.1799792e-18
-0.2064437
-1.2309713e-18
-0.2230187
0
-0.24084888
0
-0.25975332
6.4429087e-15
-0.27948546
-6.2178725e-15
-0.29987099
0
-0.32097058
0
-0.34301968
-5.6053417e-15
-0.3662241
5.4169113e-15
-0.39049617
5.2354474e-15
-0.41579237
5.0595679e-15
-0.44247717
0
-0.47091783
0
-0.50077781
-9.1326033e-15
-0.53099158
0
-0.56175919
8.5210783e-15
-0.59471761
0
-0.62939527
-7.9427592e-15
-0.66278203
7.6667109e-15
-0.69356607
0
-0.7238772
1.4275622e-14
-0.75840839
0
-0.80017407
1.3282599e-14
-0.84916354
-0.11233088
0
-0.10501558
0.00032380064
-0.096700289
0.00060403146
-0.088409561
0.00081794807
-0.079700649
0.00093875662
-0.069795117
0.00095009059
-0.059604313
0.00086203589
-0.050040495
0.00069303499
-0.040828554
0.00045855176
-0.03079336
0.00020488696
-0.021297464
0
-0.010799376
0
-0.00034063704
-0.11733218
-0.00066423648
-0.12079287
-0.00094467496
-0.12419481
-0.0011655613
-0.12760736
-0.0013039445
-0.13016154
-0.001329165
-0.13070371
-0.0012206131
-0.12989462
-0.0009701804
-0.128194
-0.00056608642
-0.12503704
0
-0.13074692
0
-0.14155759
0
-0.15325744
1.2968512e-18
-0.16574438
-1.1727426e-18
-0.17900005
7.4358673e-15
-0.19328294
0
-0.2088204
0
-0.22556313
0
-0.24337337
0
-0.262124
-6.2096551e-15
-0.28166159
1.5444974e-18
-0.30191007
5.7907639e-15
-0.32289537
-5.594533e-15
-0.34478322
5.4062337e-15
-0.3678041
-5.2251449e-15
-0.39191177
0
-0.41708393
0
-0.44370655
0
-0.47210394
0
-0.50187916
0
-0.53197622
8.5119918e-15
-0.56262666
0
-0.59561016
5.9771918e-19
-0.63035021
0
-0.66371128
4.6339641e-19
-0.6942746
7.1344113e-15
-0.72427818
1.3766419e-14
-0.75855779
-1.3280676e-14
-0.8001698
-0.0077583042
-0.84125404
-0.11751108
0
-0.11227441
0.00033486065
-0.10476049
0.00063061861
-0.096259633
0.00086169364
-0.087910894
0.0010096774
-0.07919053
0.001050106
-0.069290749
0.00097419975
-0.059153302
0.00080218146
-0.049730637
0.00055977735
-0.040660615
0.00027241433
-0.030657404
-8.9575977e-15
-0.019588386
0
-0.011601475
9.6113635e-15
-0.00034061836
-0.12135651
-0.00066152363
-0.12523475
-0.00094399207
-0.12920183
-0.0011657047
-0.13237554
-0.0012962249
-0.1335899
-0.0013123047
-0.13349807
-0.0012029787
-0.1325578
-0.00095454508
-0.13022332
-0.0005549527
-0.12628645
0
-0.13244639
0
-0.143452
0
-0.15517059
1.1492621e-18
-0.16757946
0
-0.18093766
0
-0.19549974
-3.4537012e-15
-0.2112196
-3.3321036e-15
-0.22795582
6.4268431e-15
-0.24565325
0
-0.26425807
0
-0.28367247
-5.7816887e-15
-0.30381436
0
-0.32466082
0
-0.34637224
5.21554e-15
-0.36922116
-5.0405423e-15
-0.39316601
0
-0.41822288
-4.7107907e-15
-0.4447929
0
-0.47315129
0
-0.50285469
-8.500498e-15
-0.53282454
0
-0.56337663
0
-0.59636834
0
-0.63119389
7.3888959e-15
-0.66448625
-7.1305809e-15
-0.69484846
6.8803433e-15
-0.7245638
1.6688888e-19
-0.75864589
-0.015168462
-0.79271366
-0.0070643005
-0.83395943
-0.12155746
0
-0.11744216
0.00034026554
-0.11199456
0.00065222661
-0.10425534
0.00089953895
-0.095624153
0.0010633954
-0.087265889
0.0011295885
-0.078557889
0.0010771506
-0.068680772
0.00090622251
-0.058623067
0.00064731635
-0.04937884
0.00033267893
-0.040456152
0
-0.028356551
0
-0.020957637
-9.278333e-15
-0.012447719
9.6027489e-15
-0.00033925431
-0.12587502
-0.00066112057
-0.13036051
-0.00094414747
-0.13411742