/*--------------------------------*- C++ -*----------------------------------*\
| =========                 |                                                 |
| \\      /  F ield         | OpenFOAM: The Open Source CFD Toolbox           |
|  \\    /   O peration     | Version:  v2012                                 |
|   \\  /    A nd           | Website:  www.openfoam.com                      |
|    \\/     M anipulation  |                                                 |
\*---------------------------------------------------------------------------*/
FoamFile
{
    version     2.0;
    format      ascii;
    class       volScalarField;
    location    "98.904147998564369";
    object      p;
}
// * * * * * * * * * * * * * * * * * * * * * * * * * * * * * * * * * * * * * //

dimensions      [0 2 -2 0 0 0 0];


internalField   nonuniform List<scalar> 
9200
(
0.017902455
0.017951344
0.054201762
0.018142871
0.054445756
0.08812619
0.018328054
0.05501894
0.088529126
0.12075434
0.018615715
0.055696523
0.089379292
0.12134258
0.15181601
0.01892207
0.056621786
0.090432524
0.12243585
0.15256643
0.18142193
0.019296575
0.057644091
0.091828376
0.12385542
0.1538749
0.18228509
0.20954831
0.019703235
0.058812306
0.093390151
0.12570258
0.155625
0.18378833
0.21050247
0.23622829
0.020159249
0.060043003
0.095161242
0.12778985
0.1578788
0.18582635
0.21216269
0.23725208
0.26151705
0.02065639
0.061329252
0.097040705
0.13014939
0.16044859
0.18844355
0.21443955
0.23903598
0.26258072
0.28547436
0.021206706
0.062617117
0.099019307
0.132666
0.16335316
0.19144942
0.21736526
0.2414882
0.26444374
0.2865512
0.3081698
0.021806512
0.063862349
0.10103203
0.13532126
0.16646726
0.19485395
0.22074967
0.24466146
0.26700841
0.28844193
0.30923346
0.3296801
0.022458204
0.06501138
0.10304429
0.13804092
0.16975733
0.198524
0.22460736
0.24835599
0.27035287
0.29105429
0.31110119
0.33070434
0.3500859
0.023166963
0.06599507
0.10500443
0.14079168
0.17313384
0.20240658
0.22879574
0.25260822
0.2742743
0.29448042
0.3136929
0.33250286
0.35104628
0.36946809
0.023915622
0.066732646
0.10686608
0.14352677
0.17654585
0.20638468
0.23325662
0.25727309
0.27883528
0.29852944
0.31710628
0.33500553
0.35273499
0.37034413
0.38790826
0.024677179
0.067124166
0.10857197
0.14622114
0.17993455
0.21036485
0.23785098
0.26229938
0.28390203
0.30328234
0.32116892
0.33831392
0.35508521
0.37188907
0.38868295
0.4054856
0.025396888
0.067044656
0.11006301
0.14885082
0.18326797
0.21423658
0.24244269
0.26754605
0.28944652
0.30863182
0.32597396
0.3422713
0.35820373
0.3740323
0.39005705
0.4061448
0.4222676
0.025965825
0.06633777
0.111268
0.15140229
0.18653324
0.21789003
0.24686961
0.27287518
0.29535288
0.31457931
0.33144233
0.34697888
0.36194321
0.37688762
0.39194927
0.40732764
0.42280621
0.4383143
0.026228827
0.064819085
0.11210591
0.15386166
0.18974943
0.22121907
0.25093413
0.27809642
0.30150773
0.321052
0.33760284
0.35237796
0.36640958
0.38031145
0.39448223
0.4089364
0.42378465
0.43873807
0.4537055
0.025900655
0.062291744
0.1124965
0.15620957
0.19297393
0.22412635
0.2544089
0.28297531
0.30774118
0.3279859
0.34442683
0.35851557
0.37155352
0.38441111
0.39751217
0.41110295
0.42508869
0.43950658
0.4540064
0.46852144
0.024299431
0.058415396
0.11234883
0.15841841
0.19629859
0.22653904
0.25701607
0.28722913
0.31383967
0.33527714
0.35190497
0.36539177
0.37742832
0.38913799
0.40114559
0.41368152
0.42685938
0.44049385
0.45456485
0.4686668
0.4827659
0.022772539
0.052752251
0.11153709
0.16044145
0.19983914
0.22844118
0.25839934
0.29049761
0.3195245
0.34278796
0.3600105
0.37303342
0.38404265
0.39454129
0.40532996
0.41677726
0.42894816
0.44185207
0.45523145
0.4690217
0.48276909
0.49646246
0.021161088
0.045580013
0.11004688
0.16225673
0.20372302
0.22990389
0.25813617
0.29233751
0.32442958
0.35032262
0.36870465
0.38146335
0.39143218
0.40062294
0.41010491
0.42033298
0.43146035
0.44342931
0.45617005
0.46937322
0.48293217
0.49635956
0.50967698
0.018961129
0.037885697
0.10672729
0.16375751
0.20805331
0.23112324
0.25578075
0.29223411
0.32810264
0.35760746
0.37792353
0.39070948
0.39963057
0.4074056
0.41545681
0.42437812
0.43433591
0.44533214
0.45722919
0.46989387
0.48298041
0.49634151
0.50947467
0.52242767
0.016552641
0.030525856
0.10253874
0.16488415
0.21281055
0.23247186
0.25076895
0.28963969
0.32998508
0.36426133
0.38756266
0.40079986
0.40867833
0.41490424
0.42138423
0.42888331
0.43759845
0.44750282
0.4585113
0.47043732
0.48309685
0.49610442
0.50928688
0.52214715
0.5347635
0.013826199
0.024887651
0.098604214
0.16568866
0.21807258
0.23466925
0.24221017
0.28411077
0.32938159
0.36974891
0.39744949
0.41175199
0.41861969
0.4231354
0.42786977
0.4338218
0.44120864
0.44996513
0.45996961
0.47109944
0.48313043
0.49583838
0.50879683
0.52182919
0.53441325
0.54669379
0.010402991
0.020790702
0.095774097
0.16676502
0.22339969
0.23779065
0.22896944
0.27450896
0.32547192
0.37334917
0.40730658
0.42356046
0.4294922
0.43211303
0.43488774
0.43914118
0.44512177
0.4526801
0.46163434
0.47184639
0.48318146
0.49537848
0.50817215
0.52109854
0.5339718
0.54629296
0.55821914
0.0059413667
0.018601411
0.095076725
0.16879402
0.22847562
0.2398096
0.210445
0.25996473
0.31715051
0.37409525
0.41672152
0.43617317
0.44131418
0.4418401
0.44240518
0.44477074
0.44925912
0.45559918
0.46347827
0.47272313
0.48322328
0.49483186
0.50724245
0.52014273
0.5330386
0.545743
0.55779739
0.56935436
0.0029362647
0.017888601
0.096007816
0.17290551
0.23367546
0.24068913
0.18960643
0.24004571
0.3032719
0.3704924
0.42505373
0.44946683
0.45405824
0.45229447
0.45037438
0.45062584
0.45351402
0.4586346
0.46546609
0.47372322
0.48331903
0.4941762
0.50611592
0.51877489
0.5317876
0.54464815
0.55716916
0.56893982
0.58013394
-0.0011231415
0.015097225
0.09799196
0.17929964
0.23907504
0.24142213
0.172916
0.21591066
0.28422731
0.36102107
0.43122933
0.46317175
0.46761614
0.46340403
0.45872713
0.45659977
0.45775493
0.46166355
0.46752349
0.47484078
0.48349279
0.49349278
0.50477284
0.51709261
0.53002115
0.54314002
0.55594725
0.56826287
0.57973998
0.59058219
-0.0091029678
0.012912841
0.1004039
0.1884151
0.24517636
0.24325541
0.16104077
0.1849097
0.25970081
0.34504646
0.43410344
0.47681421
0.48173682
0.47501778
0.46736019
0.46257856
0.46181841
0.46452804
0.46954009
0.47603612
0.48377726
0.49283801
0.50330718
0.51507612
0.52781535
0.54102057
0.55423139
0.56695464
0.57903888
0.59020741
0.60069207
-0.019784185
0.012889652
0.10367668
0.19961264
0.25296446
0.24619702
0.15050054
0.14938204
0.22521816
0.32201324
0.43263188
0.48977889
0.49600894
0.48685459
0.4761198
0.46842872
0.46553927
0.46703078
0.47136316
0.47724188
0.48418533
0.49228803
0.50180459
0.51282379
0.52514604
0.53833255
0.55180693
0.56508384
0.57768573
0.58950811
0.60034967
0.61046534
-0.032253146
0.01201207
0.10672353
0.21272694
0.26360753
0.2502825
0.14173684
0.11463665
0.18362924
0.2955367
0.42532194
0.50084522
0.50970477
0.49848368
0.48475058
0.47398654
0.46870483
0.46896867
0.47279257
0.47834721
0.48470862
0.49191566
0.50038273
0.51044327
0.52210662
0.53504006
0.54868692
0.56240903
0.57571112
0.58815291
0.59967797
0.61017314
0.61991
-0.046257154
0.0090876446
0.10994871
0.22637577
0.27604225
0.25581558
0.13571864
0.083735851
0.14295171
0.26801708
0.41063913
0.50820447
0.52113236
0.50920602
0.49288007
0.47905025
0.47106065
0.47004088
0.47360885
0.47918905
0.48530956
0.49178534
0.49917361
0.50808588
0.51881616
0.53122244
0.5448124
0.55891432
0.57285002
0.58612334
0.59836199
0.60955379
0.61968317
0.62903192
-0.061630718
0.0027958463
0.11239561
0.24193636
0.290202
0.26339465
0.13402228
0.058115265
0.10632842
0.23982157
0.39067261
0.51031602
0.5278003
0.51776037
0.49995857
0.48333849
0.47258995
0.4699679
0.47350884
0.47957706
0.48591143
0.49194947
0.49831577
0.50593438
0.51544728
0.52699736
0.5402391
0.55451248
0.5690444
0.58314196
0.59632937
0.60831661
0.61913941
0.62888429
0.63783676
-0.081672404
-0.0093523692
0.11329158
0.25940182
0.3079034
0.27513668
0.13644685
0.039189497
0.075597825
0.21313659
0.36890607
0.50559831
0.52799242
0.52221366
0.50526465
0.48654899
0.47270959
0.46843819
0.47218158
0.47926833
0.48640199
0.49243803
0.49795276
0.50419234
0.51221971
0.52254365
0.53507031
0.54922278
0.56418286
0.57910362
0.59329147
0.60633411
0.61801864
0.62843759
0.63778056
0.64632982
-0.11382626
-0.024789213
0.11152888
0.27807704
0.328817
0.29072179
0.14826083
0.026503119
0.050414163
0.18979968
0.34659846
0.49365567
0.52136112
0.52070851
0.50790086
0.48820506
0.47127987
0.46503737
0.46918264
0.47795911
0.48663134
0.49325196
0.4982181
0.50308319
0.50938635
0.51810088
0.52947417
0.5431228
0.55823527
0.57385694
0.58911175
0.60331403
0.61613767
0.62746833
0.63745036
0.6463758
0.65451621
-0.1628177
-0.037510328
0.10606486
0.29691951
0.35270611
0.31005154
0.16691367
0.024448843
0.031686399
0.169774
0.32514038
0.47575634
0.50815812
0.5124162
0.50674947
0.48791397
0.46795857
0.45928242
0.46405711
0.4751931
0.48637388
0.49435845
0.49922843
0.5028299
0.50723199
0.51395187
0.52369152
0.53635291
0.55124177
0.56733047
0.58356059
0.59906015
0.61320061
0.62573774
0.63666483
0.64617937
0.65467403
0.66240138
-0.21857577
-0.046607195
0.096061141
0.31412379
0.37893697
0.33257608
0.1929781
0.028135032
0.022142916
0.15472482
0.30529112
0.45412897
0.48884933
0.4974353
0.50046065
0.48517767
0.4624085
0.45057718
0.45621213
0.47049494
0.48530584
0.49567141
0.50107224
0.50364448
0.50604824
0.51042147
0.51801409
0.52913589
0.54329996
0.55950844
0.57655116
0.59331669
0.60895684
0.62294857
0.63513024
0.64560656
0.65462611
0.66267917
0.6699912
-0.26828667
-0.0637358
0.081083863
0.32807685
0.40641925
0.35747561
0.22519377
0.043596392
0.013842901
0.1451209
0.28672173
0.43308842
0.46469691
0.47652532
0.48899432
0.47945195
0.45429352
0.43820527
0.44484675
0.46321551
0.48299401
0.49703085
0.50379132
0.50571057
0.50611639
0.50784709
0.5127849
0.52175116
0.53459542
0.55043334
0.56799411
0.58592905
0.60313548
0.61880053
0.63255168
0.64430977
0.65429155
0.66279218
0.67039533
0.67729164
-0.097451097
-0.31153793
0.06021593
0.33717968
0.4337181
0.38505817
0.26302534
0.068392582
0.016529666
0.13416684
0.26342653
0.41134842
0.4389271
0.4517533
0.47256838
0.47036353
0.44345868
0.42130044
0.42898087
0.45244963
0.47881581
0.49816085
0.50736669
0.50916021
0.50768205
0.50655481
0.508365
0.51453785
0.52537412
0.54023653
0.55786176
0.57675548
0.59548898
0.61300746
0.62858527
0.64200058
0.65327
0.66271777
0.67067946
0.67782701
0.68430896
0.030932531
-0.14511031
-0.34929971
0.34025211
0.45937316
0.41573587
0.30426007
0.10258294
0.029799925
0.12926051
0.24499336
0.3762972
0.41325151
0.4234039
0.45208675
0.45776223
0.42965392
0.39890559
0.40722332
0.43704152
0.47189593
0.49863182
0.51166595
0.51404689
0.51092525
0.5068262
0.50510532
0.50786023
0.51594934
0.52910927
0.54621925
0.56567964
0.58583038
0.60524664
0.62292174
0.63829618
0.6512838
0.66200419
0.67088348
0.67829036
0.68497916
0.69104959
0.33686377
-0.0070708362
-0.20345157
-0.38488665
0.4812913
0.44820601
0.345608
0.14435
0.054335895
0.1310185
0.23998598
0.3457482
0.37538245
0.39660916
0.42800858
0.4417284
0.4127573
0.36937753
0.37787634
0.41527025
0.46102365
0.49777439
0.51641745
0.52032065
0.51593099
0.50886184
0.50330641
0.50207742
0.50666819
0.51731692
0.53318261
0.55268856
0.57396141
0.5952404
0.61518393
0.63286223
0.6479155
0.66038877
0.6705058
0.67878767
0.68562781
0.6918569
0.69752025
0.49795883
0.32691789
-0.05100424
-0.27003279
-0.41831402
0.48042799
0.38471111
0.19157524
0.08905758
0.14164383
0.24758442
0.31508504
0.34659469
0.35735226
0.40199681
0.42264939
0.39238283
0.33255008
0.33947175
0.3849837
0.44449926
0.49468225
0.52114477
0.52774772
0.52264521
0.51274362
0.50317744
0.4974994
0.49788271
0.50516802
0.51894626
0.53780694
0.55976806
0.58275704
0.6050047
0.62527425
0.64281033
0.65742398
0.66930277
0.67876907
0.68642995
0.6926949
0.69846558
0.70372794
0.50849462
0.50843812
0.31135608
-0.091561705
-0.34194663
-0.44669171
0.41986061
0.24163796
0.13193835
0.16230544
0.2634854
0.28949748
0.31402377
0.32402805
0.37000729
0.40118438
0.36821769
0.2921532
0.29260217
0.34575725
0.41970244
0.48791235
0.52513935
0.53590375
0.5308295
0.51838865
0.50479318
0.49434354
0.48990509
0.49299023
0.50375711
0.52113504
0.54317165
0.56755525
0.59209571
0.61512303
0.63550129
0.6527416
0.66680155
0.67801387
0.68678906
0.69380999
0.69949472
0.70481115
0.70968034
0.45161694
0.52976475
0.51304277
0.29190882
-0.12444438
-0.41105116
-0.46801759
0.29115785
0.18012757
0.19159698
0.28256173
0.26894701
0.28231878
0.2861979
0.33830631
0.37775529
0.33934199
0.25373453
0.23636819
0.29822842
0.38517055
0.4749846
0.52707793
0.54407115
0.54003264
0.52551021
0.50804684
0.49268917
0.48296526
0.48108861
0.48789726
0.50283244
0.52415885
0.54943612
0.57611445
0.60199411
0.62555172
0.64584242
0.66262739
0.67602854
0.68651092
0.69456058
0.70092723
0.70603151
0.71090106
0.71538549
0.33799971
0.480263
0.54444868
0.51291796
0.27067199
-0.15557543
-0.47161356
-0.48058963
0.23009031
0.22638464
0.30098252
0.25498239
0.25288921
0.24789788
0.30274212
0.35584563
0.31705578
0.21375666
0.17818683
0.24206531
0.34313558
0.45483753
0.52509444
0.55107657
0.54948896
0.53358515
0.51262371
0.49243028
0.47716616
0.46970704
0.47164825
0.48310914
0.50277423
0.52826053
0.55672381
0.58547485
0.6124431
0.63625109
0.65625686
0.67243833
0.68508578
0.69478209
0.70207792
0.70778304
0.71231247
0.71674359
0.72085055
0.2790898
0.3806965
0.50357244
0.55369628
0.50983681
0.24937579
-0.18644849
-0.52258513
-0.48310621
0.26460321
0.31732508
0.24872337
0.22872316
0.2115855
0.26364198
0.32925456
0.30047546
0.1835413
0.11822689
0.1810518
0.29907581
0.42867256
0.51784515
0.55546608
0.55819871
0.54178555
0.51798201
0.49325447
0.47243535
0.45898785
0.45526087
0.46219843
0.47912399
0.50393251
0.53364217
0.56511362
0.59564541
0.62338086
0.64717602
0.66670249
0.68214496
0.69395264
0.70281453
0.70933828
0.71438409
0.71834645
0.72234433
0.72608082
0.30438255
0.32562281
0.41850259
0.52107817
0.55895287
0.5055199
0.22941204
-0.21296861
-0.5625733
-0.47485521
0.33250194
0.24915439
0.21188049
0.17803882
0.22512102
0.2970216
0.28384277
0.15031604
0.071217856
0.11378438
0.24922495
0.39519596
0.50271481
0.55519063
0.56469074
0.54961681
0.52334683
0.4946344
0.46851021
0.44892383
0.43892127
0.44033751
0.45335893
0.47641841
0.5066144
0.5404577
0.57463633
0.60661451
0.63475275
0.65828042
0.67713768
0.6917151
0.70260658
0.71059954
0.71634736
0.72073988
0.72413628
0.72770365
0.73108272
0.34947973
0.34364092
0.36792994
0.44899786
0.53358297
0.5616946
0.50153214
0.21204162
-0.23219333
-0.59056661
-0.4556929
0.25906162
0.20374229
0.14908204
0.18871319
0.26109697
0.26634195
0.12396411
0.011886287
0.055170034
0.19380595
0.3523319
0.47787767
0.546082
0.56710965
0.55487994
0.5277966
0.49583293
0.46493584
0.43934745
0.42270735
0.41774472
0.42566657
0.44574375
0.4754327
0.51107461
0.54880089
0.58529201
0.6183121
0.64649998
0.66950827
0.68751577
0.7011133
0.71103086
0.71814119
0.72311524
0.72684845
0.72967342
0.73282493
0.73587002
0.27768562
0.36946083
0.3782438
0.40391274
0.4720239
0.54287575
0.56364184
0.49906101
0.19788021
-0.24299221
-0.60514898
-0.42781246
0.20272567
0.12652513
0.15630267
0.22683723
0.24881726
0.10235795
-0.034625514
-0.024683815
0.13706912
0.30323015
0.44783883
0.52677619
0.56193966
0.55665649
0.52995497
0.49595875
0.46107696
0.42993225
0.40658101
0.39458161
0.39626487
0.41199632
0.4399489
0.47655506
0.51750255
0.55870297
0.59705938
0.63064739
0.65855897
0.68079467
0.69778459
0.71031187
0.71922692
0.72544994
0.72963331
0.73268695
0.73495595
0.73773202
0.74067739
0.20587903
0.29927363
0.39009458
0.40734529
0.43276156
0.49001255
0.55057814
0.56568887
0.49922258
0.19135495
-0.24557405
-0.60530868
-0.39251767
0.11196118
0.1304265
0.19948811
0.23314052
0.082825476
-0.074115774
-0.089457831
0.05768566
0.25557446
0.41482318
0.5037802
0.54748141
0.55236444
0.52872183
0.49392947
0.45618768
0.42020506
0.39038597
0.37095516
0.36537466
0.37533851
0.40008841
0.43653181
0.48010601
0.52600718
0.57015736
0.60985085
0.64353906
0.67084249
0.69206585
0.70790187
0.71930837
0.72720529
0.73250776
0.73585928
0.73824575
0.74002617
0.74263085
0.74558236
0.10656063
0.21247855
0.32259127
0.40973444
0.43093729
0.45512862
0.5048102
0.55806051
0.56983867
0.50232019
0.19743785
-0.24154071
-0.59322967
-0.34740111
0.11293094
0.17911647
0.2171171
0.069520218
-0.10509224
-0.15150332
-0.015563908
0.19836135
0.36306156
0.4786229
0.52742158
0.54094156
0.52245472
0.48877156
0.44941216
0.40962536
0.373862
0.34690363
0.33323477
0.33599576
0.35588206
0.39069862
0.43598818
0.48631717
0.53662154
0.58312375
0.62353567
0.65688775
0.68324824
0.7032601
0.71785945
0.72811278
0.73493508
0.73924583
0.74177287
0.74359771
0.74506824
0.74757642
0.75045081
0.1058199
0.10997803
0.22346326
0.34581706
0.42745021
0.44980813
0.47280485
0.51712072
0.56448203
0.57780521
0.50759034
0.20992697
-0.23301199
-0.56390374
-0.29379175
0.16572514
0.1985797
0.064695136
-0.12450596
-0.20118091
-0.081571237
0.13336344
0.30701393
0.42733314
0.50663995
0.52065075
0.51089449
0.47928246
0.44001614
0.39757141
0.35671646
0.32241536
0.30007562
0.29429269
0.30747624
0.3388629
0.3845454
0.4387252
0.49531622
0.54933441
0.5974684
0.63798298
0.67055714
0.69568931
0.71436106
0.72766585
0.73667665
0.74231217
0.74562961
0.74748729
0.74891752
0.75007394
0.75250868
0.75527676
0.16372762
0.10874895
0.12317778
0.23777782
0.36788854
0.44309067
0.46534325
0.48752871
0.52798794
0.5692376
0.58757163
0.51124818
0.2252328
-0.2130809
-0.51566139
-0.23415297
0.18238651
0.071061959
-0.12884927
-0.23487681
-0.13794376
0.070559265
0.24507205
0.37994525
0.46060638
0.50080494
0.49071438
0.46518645
0.42711708
0.38357695
0.33858972
0.29748245
0.2661529
0.25061502
0.25519381
0.28098031
0.32526588
0.38227542
0.44503469
0.50715181
0.56406599
0.61299798
0.65302799
0.68442603
0.70813786
0.72537424
0.73724886
0.74484889
0.7492829
0.75182745
0.75318242
0.7540862
0.75509576
0.75741454
0.76005658
0.17376301
0.17197529
0.12220294
0.14446177
0.25506429
0.38819645
0.45701353
0.47881522
0.5004093
0.53817178
0.57391919
0.59580085
0.51571779
0.24880763
-0.17842318
-0.44867818
-0.17156476
0.089006198
-0.11609043
-0.24788365
-0.18056784
0.015365332
0.1848731
0.32158343
0.41905024
0.46158903
0.46675295
0.44455204
0.41061261
0.36703906
0.31930152
0.27204212
0.23176861
0.20547697
0.19949175
0.2172406
0.25778093
0.31605012
0.38442537
0.45507617
0.5218128
0.58057251
0.62950291
0.66851064
0.69845134
0.72059426
0.73619529
0.74639527
0.75255031
0.75608754
0.75804612
0.75857818
0.75930184
0.76010741
0.76228957
0.7647859
0.11418292
0.17857081
0.18793535
0.14469949
0.17259541
0.27464423
0.40645693
0.46956401
0.49092821
0.51205797
0.54753463
0.57961499
0.60508889
0.52290738
0.28171554
-0.12523547
-0.36405588
-0.10983943
-0.085520806
-0.23676557
-0.20308903
-0.028583135
0.12795457
0.26143358
0.36386059
0.42592838
0.43205683
0.42051677
0.38903733
0.34815031
0.29848005
0.24623561
0.19719726
0.15948872
0.14109163
0.14803247
0.18197345
0.23921518
0.31209975
0.39137304
0.46887672
0.53907772
0.59857949
0.64678175
0.68436584
0.71262539
0.73291098
0.74652934
0.7549921
0.76011592
0.76299208
0.76377697
0.7640582
0.76451895
0.76510558
0.76712675
0.7694606
-0.038466013
0.1482672
0.19960135
0.20976496
0.17478563
0.20582347
0.29588033
0.42244006
0.48080745
0.50191581
0.52293507
0.55699927
0.58770845
0.61491721
0.53250071
0.32140993
-0.051311101
-0.26372869
-0.05327485
-0.20092029
-0.19965625
-0.057537631
0.084015554
0.20202092
0.30307571
0.37500414
0.40210427
0.38853415
0.3658787
0.32562397
0.27661373
0.21992137
0.16295253
0.1133085
0.080864295
0.074169062
0.097969847
0.15114536
0.22662712
0.31414768
0.40330778
0.48632686
0.55849157
0.61781016
0.66474438
0.70057423
0.72674242
0.74468545
0.75621874
0.76349723
0.76791599
0.76917269
0.76963434
0.76954904
0.76973782
0.77008001
0.77191965
0.77407648
-0.14298898
0.02322687
0.19069605
0.23446836
0.23741055
0.21083966
0.24240824
0.31758037
0.43609118
0.49076309
0.51214076
0.53394089
0.56679802
0.59853968
0.62561282
0.54747137
0.36571549
0.0431791
-0.15072973
-0.0048334737
-0.16982239
-0.065886506
0.058340659
0.14933407
0.23702736
0.31281859
0.35124836
0.36203163
0.33887134
0.30304967
0.25246515
0.19393064
0.12915478
0.067874227
0.019892649
-0.0033424351
0.006466306
0.051462284
0.12667845
0.22126248
0.32268799
0.42021747
0.50704979
0.57979327
0.63817329
0.68335326
0.716852
0.74025784
0.75570114
0.76588041
0.77244887
0.77469498
0.77553003
0.77550614
0.77505716
0.77494508
0.77502214
0.7766615
0.77862934
-0.11660638
-0.067223764
0.092956506
0.23878901
0.27629278
0.27108631
0.25083084
0.28095124
0.33882638
0.44817005
0.49957667
0.52232336
0.54499559
0.57704127
0.61190349
0.63852952
0.57480114
0.41876259
0.15707376
-0.023685544
0.031764143
-0.050522129
0.046012177
0.10671816
0.17117244
0.23952379
0.28644784
0.31519436
0.32145125
0.28044846
0.22999096
0.16692433
0.097083159
0.023641269
-0.040446442
-0.082997635
-0.09163545
-0.059591397
0.011099774
0.11053572
0.22410258
0.33788165
0.44173577
0.53057187
0.60287721
0.65960441
0.70222008
0.73246725
0.752877
0.76678135
0.77630627
0.78000715
0.78171044
0.78189814
0.78140856
0.78056532
0.78013075
0.7799226
0.78134611
0.78311503
-0.013486404
-0.045736269
0.016704997
0.1667851
0.28954384
0.31880798
0.30824453
0.29281724
0.32013512
0.36170146
0.45882047
0.50823631
0.53183555
0.55655303
0.58835846
0.62683196
0.65484897
0.61171002
0.48322028
0.28304827
0.11612461
0.055781986
0.046732115
0.078288435
0.1095188
0.1607487
0.20527074
0.24700089
0.28472909
0.27280376
0.21101686
0.14359157
0.065196082
-0.017515543
-0.099206984
-0.16304577
-0.19449508
-0.1815707
-0.12077058
-0.020234465
0.10445915
0.23569065
0.3595171
0.46721582
0.55670604
0.62762622
0.68157128
0.72036637
0.74702213
0.76569126
0.77908945
0.78487133
0.78787352
0.78872181
0.78830762
0.78731996
0.78606231
0.78528319
0.78477247
0.78596863
0.7875298
0.062368148
0.038646766
0.03223406
0.10237104
0.23726709
0.34003876
0.36048174
0.3461651
0.33469287
0.35737575
0.38810705
0.46882504
0.51710928
0.54174128
0.56828098
0.60091976
0.64250176
0.67466416
0.65229198
0.55683035
0.40897056
0.24845402
0.072753375
0.065116619
0.058320737
0.079088251
0.10610852
0.15708032
0.22219529
0.25098812
0.21209863
0.12761458
0.039312214
-0.057416913
-0.15380203
-0.24178697
-0.30023354
-0.31257779
-0.26933845
-0.1730254
-0.039708589
0.10965227
0.25603402
0.38713809
0.49683423
0.58533152
0.65330988
0.7027705
0.73725774
0.76195511
0.78039596
0.7889454
0.79383012
0.79570478
0.79578074
0.79473147
0.79322856
0.79153409
0.7903916
0.78956442
0.79052327
0.79187093
0.064512416
0.091614663
0.098105562
0.11013292
0.18267568
0.29989775
0.38747607
0.39995498
0.3819954
0.37263405
0.39343836
0.41134808
0.48152298
0.52603071
0.55191341
0.58038893
0.61507601
0.6593071
0.69747454
0.69558125
0.63490825
0.52852316
0.35794625
0.086198802
0.020962219
-0.0014905519
-0.0066602984
0.039497651
0.13479918
0.20780717
0.20179139
0.13852686
0.025218202
-0.088536277
-0.2062733
-0.31606143
-0.40618667
-0.45128427
-0.43352416
-0.34960931
-0.21204022
-0.044959245
0.12656493
0.28468738
0.42006875
0.53002501
0.61547001
0.67819847
0.72248563
0.75478003
0.77971023
0.79189461
0.79929822
0.80269953
0.80358284
0.8028535
0.80115794
0.79911812
0.79696792
0.7954481
0.79428957
0.79500136
0.79613494
0.002845024
0.077901679
0.13016024
0.16036633
0.18486495
0.25558217
0.35425777
0.42882156
0.43577245
0.41439887
0.40818154
0.4191795
0.43661775
0.49406934
0.53508886
0.56234639
0.59281308
0.63030389
0.67735163
0.7223849
0.73979259
0.71092186
0.6364142
0.44521506
0.098276159
-0.074778672
-0.1260574
-0.099498836
0.023720269
0.1432131
0.17500417
0.13915698
0.047529418
-0.10266245
-0.2467406
-0.38754447
-0.50920719
-0.59402437
-0.61358708
-0.55123666
-0.41655008
-0.23388605
-0.034542879
0.1549571
0.32122602
0.45837668
0.56551793
0.64482335
0.70133357
0.74317685
0.77641634
0.79329339
0.80401655
0.80947414
0.81160444
0.81146552
0.80992938
0.80756869
0.80497435
0.80235543
0.80044094
0.79893716
0.79940061
0.80031859
-0.12892081
0.0064240814
0.10312744
0.17297927
0.22055114
0.25390199
0.31908387
0.40074157
0.46117237
0.46560589
0.43901749
0.43126411
0.4435603
0.45907429
0.50649481
0.54425745
0.57289662
0.60545232
0.64575546
0.69607322
0.74810568
0.78250506
0.77933305
0.7249779
0.50641867
0.1095996
-0.24185725
-0.25680463
-0.11300378
0.057653964
0.13335528
0.12502568
0.060559019
-0.067348417
-0.26400529
-0.44399349
-0.60881402
-0.73854822
-0.80477655
-0.77992639
-0.65751647
-0.46425949
-0.23535948
-0.0079187237
0.19440691
0.36569244
0.50024097
0.60029251
0.67211245
0.72591274
0.76975547
0.79263881
0.8076546
0.81582718
0.81965895
0.82049197
0.81934458
0.81698813
0.81394821
0.81078915
0.80768187
0.8053535
0.80350546
0.80371567
0.80441926
-0.34278243
-0.15510614
0.024532435
0.13445792
0.2149776
0.2727134
0.31299935
0.37011829
0.43728509
0.48516063
0.48708889
0.45519984
0.45227194
0.46221569
0.47920572
0.5182173
0.55345293
0.58344685
0.6181033
0.66113466
0.71473525
0.77298732
0.82074296
0.83537573
0.78743879
0.54461978
0.11786479
-0.42039546
-0.27176869
-0.054530654
0.077868081
0.10018984
0.059289007
-0.040197414
-0.21427483
-0.46869998
-0.69253983
-0.87912467
-1.0068637
-1.0312787
-0.93829609
-0.74308678
-0.48604052
-0.21459813
0.035458022
0.24642785
0.41545158
0.54159425
0.63266035
0.70147671
0.75879578
0.78931791
0.809829
0.82150352
0.82759874
0.8297861
0.82935844
0.82719827
0.8240135
0.82028933
0.81654435
0.81292449
0.81018793
0.807987
0.80794215
0.80843446
-0.56733391
-0.42113326
-0.16131628
0.04932607
0.16780414
0.25267598
0.31423017
0.35952999
0.40974113
0.4638139
0.50089227
0.50245768
0.46986425
0.46818907
0.47828403
0.49572906
0.52929088
0.56253151
0.59382664
0.63049292
0.67598817
0.7323547
0.795093
0.85124351
0.87433644
0.82225922
0.56610465
0.12251363
-0.44017567
-0.1834
0.0084279876
0.066789592
0.049509856
-0.027505758
-0.17091576
-0.40426706
-0.72902645
-1.0084683
-1.204804
-1.3076346
-1.2596442
-1.0793193
-0.7981342
-0.47728301
-0.17099416
0.094045151
0.30612362
0.46492589
0.58016881
0.667954
0.74241338
0.7825826
0.81007926
0.8262121
0.83523498
0.83924673
0.83985959
0.83818127
0.83501041
0.83100007
0.82657044
0.82220973
0.81809066
0.81493483
0.81237644
0.81207588
0.81236135
-0.59130351
-0.6762897
-0.46296074
-0.14974739
0.077104578
0.20026798
0.28461514
0.34700017
0.39347195
0.43724579
0.47877374
0.51547094
0.50888415
0.48336635
0.48176834
0.49174443
0.50954348
0.53947793
0.57134879
0.6038194
0.64225593
0.68969602
0.74775832
0.81233222
0.87081692
0.89211719
0.82864761
0.56559671
0.13705931
-0.31583662
-0.071281726
0.02584247
0.034528655
-0.021863466
-0.14237773
-0.34292027
-0.65213603
-1.0588581
-1.4036285
-1.5789683
-1.6188692
-1.4772533
-1.1911438
-0.81467848
-0.43761953
-0.10462821
0.16564575
0.36587789
0.51099489
0.62281254
0.71920542
0.77153477
0.80785193
0.82960668
0.84235673
0.84874107
0.85078739
0.84985711
0.84694544
0.84277836
0.8379224
0.83275288
0.82779995
0.82316906
0.81958819
0.81666895
0.8161118
0.81619689
-0.43091725
-0.69768898
-0.72417111
-0.46807107
-0.12079413
0.10751065
0.22990249
0.31017059
0.3700766
0.41431522
0.453288
0.50172842
0.5198387
0.51327718
0.49435599
0.49295816
0.50294086
0.52102643
0.54871981
0.57970515
0.61315728
0.6529491
0.70150368
0.75963371
0.82259768
0.87667476
0.88680278
0.80661527
0.53729419
0.16632359
-0.14803081
-0.019731554
0.015477311
-0.018945411
-0.11992439
-0.29574664
-0.572592
-0.97669112
-1.4664172
-1.8653859
-1.9710262
-1.9077196
-1.6519871
-1.2442002
-0.7861004
-0.36691125
-0.018250511
0.23920324
0.42104929
0.56267812
0.6872935
0.75508901
0.80249271
0.83127489
0.84871534
0.85812441
0.86205705
0.86220022
0.85976646
0.85565235
0.85047274
0.84473214
0.83886067
0.83330215
0.82815336
0.8241426
0.82085789
0.82004356
0.8199399
-0.21012025
-0.50748941
-0.73405969
-0.71040952
-0.43763771
-0.086481463
0.13771063
0.25535129
0.32913536
0.38396213
0.42533342
0.46834705
0.50331437
0.52178374
0.5153183
0.50210159
0.50172915
0.51216781
0.53058211
0.55693568
0.58738457
0.62151941
0.66204711
0.71055207
0.7666082
0.82406677
0.86708338
0.85878408
0.75889448
0.48664848
0.18823488
-0.063175091
-0.0049032758
-0.017731072
-0.098198327
-0.2537497
-0.50346366
-0.8818334
-1.3959131
-1.9360025
-2.3387185
-2.3250575
-2.1342294
-1.7275977
-1.2143455
-0.71223933
-0.26604062
0.075189713
0.30656341
0.4839745
0.64433542
0.73182698
0.79322682
0.83073405
0.8540174
0.86722663
0.8735794
0.87516666
0.87347834
0.86959482
0.86426833
0.85803438
0.85146549
0.84487956
0.83871022
0.8330378
0.82858891
0.82493362
0.82386763
0.82359268
-0.096340796
-0.2557329
-0.52591086
-0.69915278
-0.64310536
-0.37615788
-0.047744544
0.16526897
0.27553225
0.34228535
0.39220963
0.43817221
0.47645778
0.50746976
0.52026397
0.51552877
0.50665498
0.50848616
0.51971996
0.53847616
0.56406853
0.59413984
0.62853496
0.66895654
0.71592916
0.76742012
0.81538581
0.84179145
0.8107856
0.69220856
0.42217637
0.18742454
-0.020898804
-0.015826977
-0.076347935
-0.21074924
-0.43798672
-0.78661676
-1.2952996
-1.9076768
-2.4125356
-2.7307808
-2.5762825
-2.2481642
-1.7196433
-1.1387095
-0.60271388
-0.14637212
0.16115222
0.38357395
0.58883168
0.69980081
0.7790715
0.82741832
0.85792269
0.87584756
0.88524869
0.88871337
0.8880719
0.88463683
0.87930389
0.87272243
0.86551462
0.85810752
0.85080369
0.84401825
0.83781144
0.83291217
0.82889027
0.82758957
0.82704899
-0.026160838
-0.10544763
-0.27419267
-0.48198599
-0.60769197
-0.53777822
-0.29278797
-0.0066493244
0.18822371
0.2914067
0.35215248
0.40478822
0.44711336
0.48215881
0.50698893
0.51721843
0.51445686
0.50985809
0.51361202
0.52580837
0.54491151
0.57003828
0.5997026
0.63378735
0.67304524
0.71674052
0.76111502
0.79586839
0.80233275
0.74781317
0.61493446
0.35457759
0.17199999
-0.0090946862
-0.052659837
-0.16585108
-0.3696506
-0.69224949
-1.1702203
-1.8254492
-2.4559668
-2.8144622
-2.961436
-2.6796608
-2.2222382
-1.6604485
-1.0422939
-0.45498286
-0.030521605
0.25433123
0.51938221
0.65735355
0.75873888
0.82061187
0.86003333
0.88375578
0.89693941
0.90278673
0.90354237
0.90079863
0.8956324
0.88881013
0.88108486
0.87289837
0.86465325
0.85662672
0.84921315
0.84245505
0.83710452
0.83273796
0.8311133