/*--------------------------------*- C++ -*----------------------------------*\
| =========                 |                                                 |
| \\      /  F ield         | OpenFOAM: The Open Source CFD Toolbox           |
|  \\    /   O peration     | Version:  v2012                                 |
|   \\  /    A nd           | Website:  www.openfoam.com                      |
|    \\/     M anipulation  |                                                 |
\*---------------------------------------------------------------------------*/
FoamFile
{
    version     2.0;
    format      ascii;
    class       surfaceScalarField;
    location    "98.904147998564369";
    object      phi;
}
// * * * * * * * * * * * * * * * * * * * * * * * * * * * * * * * * * * * * * //

dimensions      [0 3 -1 0 0 0 0];
oriented        oriented;


internalField   nonuniform List<scalar> 
18180
(
0.0024483709
-3.4422811
0.0048487664
-3.222422
0.0020006272
-3.3856973
0.0072089361
-3.0174664
0.0040095813
-3.1709408
0.0016034153
-3.3305998
0.0096338968
-2.825252
0.0060834535
-2.9708946
0.0032454292
-3.1188655
0.0011311538
-3.2765889
0.012127787
-2.6442073
0.008344888
-2.7827034
0.0049929034
-2.9220363
0.00231011
-3.0676664
0.00063726116
-3.2250124
0.014725781
-2.4740927
0.010853923
-2.6055202
0.0069556476
-2.7378242
0.0036159221
-2.8734242
0.0013110576
-3.0184035
0.00012570615
-3.1753348
0.017413848
-2.3145215
0.013685496
-2.4387098
0.0092229218
-2.5646455
0.0051440633
-2.692272
0.0021042164
-2.8263269
0.00029773897
-2.9711834
-0.00034214786
-3.1282299
0.020179894
-2.164929
0.016895532
-2.2817508
0.011889638
-2.4018133
0.006992691
-2.5229331
0.0030899894
-2.6477266
0.00054273096
-2.7812005
-0.00064859827
-2.9264521
-0.00073470322
-3.0835742
0.022978894
-2.02474
0.020536683
-2.1344694
0.015050029
-2.2484754
0.0092710476
-2.3642526
0.0043543718
-2.4815144
0.00092176587
-2.6048149
-0.00094041956
-2.7385566
-0.0014705223
-2.8841951
-0.0010427926
-3.0418759
0.025751125
-1.8932921
0.024644607
-1.9963791
0.018800463
-2.104235
0.012096473
-2.2148807
0.0060047875
-2.3263168
0.0014890725
-2.4407556
-0.0011717409
-2.5639452
-0.0022302959
-2.6982492
-0.0021191308
-2.8446057
-0.0012611493
-3.0028557
0.02840284
-1.7699431
0.029241093
-1.8669815
0.02323152
-1.9688452
0.015597897
-2.074142
0.0081602512
-2.1806095
0.0023343278
-2.2881308
-0.0013391854
-2.4015444
-0.003026612
-2.5254255
-0.0032516792
-2.6604894
-0.0025677658
-2.8075355
-0.0013841403
-2.9668697
0.030833629
-1.6541124
0.03433405
-1.7456593
0.028434442
-1.8419674
0.019910264
-1.941816
0.010961589
-2.0435536
0.0035540297
-2.1455599
-0.0013827483
-2.2506683
-0.0038824016
-2.3644411
-0.0045092255
-2.4892356
-0.0039604258
-2.6250744
-0.0028145829
-2.7733161
-0.0014157696
-2.9336372
0.032904699
-1.5452576
0.039925176
-1.6318438
0.034492129
-1.7231239
0.025174513
-1.8177626
0.014565744
-1.9145375
0.0052758417
-2.0116587
-0.0012546097
-2.1099781
-0.0047951611
-2.2146048
-0.0059367324
-2.3294791
-0.0055421099
-2.455312
-0.0043496773
-2.5923366
-0.0028755346
-2.7417446
-0.0013709937
-2.9033911
0.034470774
-1.4428877
0.045978722
-1.5249471
0.041467562
-1.6117732
0.03152732
-1.7016465
0.019143841
-1.7934708
0.0076481062
-1.8857433
-0.00086626666
-1.9784916
-0.0057665305
-2.075144
-0.0075910989
-2.1806012
-0.0073790722
-2.2967985
-0.0061081448
-2.4237833
-0.0044427697
-2.5620696
-0.0027786424
-2.7129299
-0.0012673461
-2.875701
0.035378776
-1.3465788
0.052467226
-1.4244784
0.049417098
-1.5073357
0.039091584
-1.5930155
0.02487947
-1.6802575
0.010845978
-1.7676499
-0.00011745476
-1.8552438
-0.006780017
-1.9454043
-0.0095232558
-2.0421273
-0.0095696825
-2.1488236
-0.0081710322
-2.2663304
-0.0062393103
-2.3946503
-0.0042837326
-2.5343744
-0.0025577047
-2.6865534
-0.0011207895
-2.8507581
0.035477056
-1.2559276
0.059351346
-1.3299869
0.058392354
-1.4093069
0.04799121
-1.4913262
0.0319493
-1.574547
0.015070414
-1.6572647
0.0011273559
-1.7397564
-0.0078100473
-1.8242257
-0.011793749
-1.9134776
-0.012204674
-2.0108765
-0.010655837
-2.1190559
-0.0083515893
-2.2381341
-0.006001355
-2.3678625
-0.003927517
-2.5090395
-0.0022482921
-2.6627802
-0.00094701661
-2.828132
0.034629098
-1.1705822
0.066589223
-1.2410604
0.068429463
-1.3172228
0.058319495
-1.3960576
0.040532835
-1.4758704
0.020541794
-1.554423
0.0030335976
-1.6318836
-0.0088115984
-1.7108216
-0.014464007
-1.7936548
-0.015405278
-1.882789
-0.013677405
-1.9814817
-0.010897182
-2.0915018
-0.0080135099
-2.2121705
-0.0054770513
-2.3434264
-0.0034323514
-2.4861696
-0.0018857519
-2.6412655
-0.0007630257
-2.8079601
0.032742916
-1.0902442
0.07413422
-1.1573372
0.079559861
-1.2306685
0.070144115
-1.306722
0.050786535
-1.3836981
0.027500142
-1.4587341
0.0058049602
-1.5314925
-0.0097208258
-1.6048719
-0.017602844
-1.6817501
-0.019304049
-1.763758
-0.017382979
-1.8535345
-0.013993134
-1.954205
-0.010425288
-2.0661878
-0.0072770545
-2.1885075
-0.0047532828
-2.3212765
-0.0028550185
-2.4654991
-0.0015041953
-2.6220353
-0.00058513705
-2.7897535
0.029857995
-1.0141923
0.081937612
-1.07851
0.091809338
-1.1492804
0.083502283
-1.2228749
0.062837326
-1.2975111
0.036193142
-1.3697137
0.0096845556
-1.4383179
-0.010440016
-1.5062245
-0.021280591
-1.5770215
-0.024064504
-1.6525414
-0.021940037
-1.7345255
-0.01778085
-1.826177
-0.013338617
-1.9292786
-0.0094142174
-2.043188
-0.0062681401
-2.1670668
-0.0039129762
-2.3013414
-0.0022476748
-2.4469725
-0.0011333402
-2.6047258
-0.00042526503
-2.773637
0.026255602
-0.94105254
0.090119512
-1.0040215
0.10519734
-1.072743
0.098391425
-1.1441203
0.076771907
-1.2168278
0.046866112
-1.2868529
0.014959765
-1.351978
-0.010839822
-1.414714
-0.025569177
-1.4792549
-0.029876541
-1.5483298
-0.027554366
-1.6234947
-0.022418857
-1.7070317
-0.016866767
-1.8013786
-0.01196687
-1.906813
-0.0080443252
-2.0224069
-0.0051042564
-2.1477897
-0.0030303994
-2.2834038
-0.0016551946
-2.4303595
-0.00079612921
-2.5893921
-0.00029262024
-2.7591556
0.021621464
-0.87288023
0.099181352
-0.93287692
0.11993861
-1.0006972
0.11476097
-1.0701089
0.092626585
-1.1412015
0.059748381
-1.2096605
0.021962678
-1.2720433
-0.010743382
-1.3300776
-0.030536421
-1.3883873
-0.036965327
-1.4507626
-0.034471289
-1.5194339
-0.028094456
-1.5960294
-0.021127565
-1.6822848
-0.015011536
-1.7792595
-0.010136649
-1.8865967
-0.0064792365
-2.0037169
-0.0038872024
-2.1304352
-0.0021686467
-2.2673826
-0.0011138145
-2.415604
-0.00051002085
-2.5756888
-0.00019530022
-2.7464075
0.015739785
-0.81667721
0.1078078
-0.86531605
0.13668413
-0.93258556
0.13259119
-1.0005213
0.11037672
-1.0702234
0.075036245
-1.1376603
0.031070543
-1.1980833
-0.0099273312
-1.2519822
-0.036243953
-1.3042263
-0.045592045
-1.3596521
-0.042989071
-1.4216857
-0.035026833
-1.4920761
-0.026246881
-1.5713613
-0.01861397
-1.6602898
-0.012588355
-1.7594619
-0.0080747584
-1.8684631
-0.0048549847
-1.9869227
-0.0027003753
-2.1149187
-0.0013781185
-2.253079
-0.00065108956
-2.4024716
-0.00028727612
-2.563604
-0.0001295238
-2.7349369
0.0064788101
-0.77402336
0.11263845
-0.80630049
0.15524998
-0.86781448
0.15204932
-0.93499624
0.12994113
-1.0035179
0.092871166
-1.0703877
0.042707781
-1.1296874
-0.0081148235
-1.1800727
-0.042733915
-1.2265059
-0.056049178
-1.2748657
-0.053461334
-1.3299245
-0.04347598
-1.3942248
-0.032358562
-1.4676313
-0.022825859
-1.5495721
-0.015419661
-1.6408054
-0.0099113457
-1.7418482
-0.0059599799
-1.8522276
-0.0032775169
-1.9719046
-0.0016085278
-2.101065
-0.00069620759
-2.2404133
-0.0002855673
-2.3908449
-0.00013425387
-2.5528162
-9.7836346e-05
-2.7248512
-0.0058225437
-0.74379987
0.11005437
-0.75715814
0.1717858
-0.80768698
0.17358799
-0.87323405
0.15126091
-0.9407513
0.11331685
-1.0073895
0.057328959
-1.0664274
-0.0049960094
-1.1139768
-0.050032788
-1.1548978
-0.068666336
-1.1961255
-0.066309253
-1.2439111
-0.053748495
-1.3019407
-0.03960509
-1.3700742
-0.027679133
-1.446313
-0.018619986
-1.5303367
-0.011980482
-1.6235486
-0.0072126659
-1.7261494
-0.0039223149
-1.837729
-0.0018247906
-1.9585102
-0.00065842178
-2.0887865
-0.00014778029
-2.229157
-2.7853839e-05
-2.3805453
-5.4585631e-05
-2.543328
-8.7600341e-05
-2.7157773
-0.020373161
-0.71957467
0.098149213
-0.71848694
0.18336024
-0.75445466
0.19590727
-0.81478553
0.17434543
-0.88169342
0.13637997
-0.94827084
0.075422502
-1.0078937
-0.00017753006
-1.0533579
-0.058138797
-1.0890491
-0.083798752
-1.123098
-0.082020813
-1.1633518
-0.066206474
-1.2148703
-0.048138617
-1.2778276
-0.033180873
-1.3493346
-0.022139012
-1.4274644
-0.014235446
-1.5133847
-0.008595759
-1.6083682
-0.0046460479
-1.7122097
-0.002050034
-1.8248102
-0.00055085175
-1.9466242
0.00011726382
-2.0778766
0.00025499053
-2.2192486
0.00012102527
-2.3714662
-3.432429e-05
-2.534863
-0.00010288397
-2.7078123
-0.036166424
-0.69709894
0.077472514
-0.68631382
0.18666191
-0.70833772
0.21640336
-0.76059713
0.19938392
-0.8260826
0.16199882
-0.89273583
0.097547864
-0.95376734
0.0069544526
-0.99803544
-0.066975386
-1.0287053
-0.10182332
-1.0554126
-0.10115382
-1.0878732
-0.081271257
-1.1326919
-0.058120428
-1.1904432
-0.039307777
-1.2577493
-0.025878328
-1.3313057
-0.016580359
-1.4109954
-0.01005487
-1.4986857
-0.0054395842
-1.5950289
-0.0023028211
-1.6998407
-0.00039932757
-1.8133834
0.00051003017
-1.9361067
0.00070929065
-2.068257
0.00050668831
-2.2104807
0.0001687689
-2.3634338
-7.4493715e-05
-2.5273853
-0.00016296761
-2.7005607
-0.052192274
-0.67454059
0.049798455
-0.65761851
0.18118621
-0.66817146
0.23244622
-0.71086349
0.22539296
-0.77369952
0.18998087
-0.84039538
0.12391595
-0.90341064
0.016911527
-0.94760102
-0.076299424
-0.9738492
-0.12307855
-0.99284729
-0.1243297
-1.0170627
-0.099426081
-1.0550174
-0.06971961
-1.1076374
-0.045999928
-1.1709932
-0.029683247
-1.2408247
-0.018861088
-1.3156082
-0.011488135
-1.3968217
-0.0062652077
-1.4859666
-0.0025931521
-1.583271
-0.00023174341
-1.6889456
0.00099670311
-1.8033251
0.0013408929
-1.9268465
0.0011079168
-2.0597702
0.00061535072
-2.2027867
0.00012128973
-2.3563233
-0.00018698402
-2.5206636
-0.00024119881
-2.6941051
-0.067547027
-0.65139372
0.017329343
-0.63099814
0.16801546
-0.63252606
0.24243774
-0.66545194
0.25031523
-0.72366857
0.21860234
-0.78950198
0.1533381
-0.85502963
0.029082798
-0.90029411
-0.086251816
-0.92368886
-0.14779785
-0.93548998
-0.1522277
-0.95064226
-0.12121308
-0.9814087
-0.083106953
-1.029065
-0.053154628
-1.0887338
-0.033338021
-1.155353
-0.020858538
-1.2263246
-0.01273769
-1.3021686
-0.007048195
-1.38472
-0.0029153359
-1.4748584
-8.0925612e-05
-1.5729529
0.0015439288
-1.6794096
0.0021230781
-1.7945255
0.0019363996
-1.9187205
0.0013205453
-2.0523234
0.00059231004
-2.19597
-1.124774e-05
-2.3500329
-0.00033367145
-2.5146782
-0.00034092138
-2.6881504
-0.081633822
-0.62756386
-0.018051281
-0.60563066
0.14854193
-0.6003138
0.24585468
-0.62400634
0.2722933
-0.67605875
0.24601568
-0.73905673
0.18195734
-0.80420584
0.041540777
-0.85301176
-0.098884733
-0.87454889
-0.17674294
-0.88201475
-0.18561873
-0.88861644
-0.14729237
-0.91148485
-0.098444739
-0.95433865
-0.060617068
-1.0107543
-0.036561463
-1.0745538
-0.022285125
-1.1424178
-0.013583567
-1.2139645
-0.0076696739
-1.2907472
-0.0032430515
-1.3742422
2.1801693e-05
-1.4651317
0.0020991271
-1.5639414
0.0030160092
-1.6711265
0.0029739316
-1.7868645
0.0023024458
-1.9116077
0.0013602474
-2.0457482
0.00045364012
-2.1899824
-0.00020851468
-2.344448
-0.00051097642
-2.5092539
-0.00044712695
-2.6827267
-0.093907716
-0.60326543
-0.054725277
-0.58115705
0.12369256
-0.57024689
0.24259044
-0.58585254
0.28985908
-0.63090561
0.27118538
-0.68994466
0.20859535
-0.75261742
0.053797248
-0.80277808
-0.11645122
-0.82312883
-0.21222394
-0.82719797
-0.22534458
-0.82958649
-0.17853608
-0.8450385
-0.11593047
-0.88306157
-0.068170393
-0.93675681
-0.039005207
-0.99822219
-0.022785581
-1.0634831
-0.013741239
-1.1315516
-0.0079613915
-1.2033871
-0.0035244841
-1.2807898
4.715416e-05
-1.3650237
0.0025975775
-1.456613
0.0039557762
-1.5561644
0.0041815048
-1.6640041
0.0035533671
-1.7802433
0.002452108
-1.9053811
0.0012456307
-2.0399591
0.00021830772
-2.1846521
-0.00045880982
-2.3394432
-0.00071061013
-2.5043022
-0.00055356415
-2.6775649
-0.11032202
-0.6826725
-0.091887372
-0.55698211
0.094713341
-0.54228597
0.23348832
-0.55065318
0.30204291
-0.58803404
0.29309108
-0.64221929
0.23277033
-0.70184259
0.063856415
-0.74976313
-0.13686288
-0.77079474
-0.2566287
-0.76765221
-0.27205952
-0.76852111
-0.21534123
-0.78114927
-0.1358812
-0.81490619
-0.075537352
-0.86643744
-0.040258308
-0.92618445
-0.021943564
-0.98932053
-0.012862645
-1.0544715
-0.007702923
-1.1221324
-0.0036784989
-1.1939747
-2.9994146e-05
-1.2719489
0.0029598394
-1.3569415
0.0048545784
-1.4492868
0.0054929577
-1.5495445
0.0050422814
-1.6579566
0.0038726736
-1.7745403
0.0024044801
-1.8999268
0.00099854963
-2.0348266
-9.1555561e-05
-2.1799196
-0.00074769966
-2.3349012
-0.0009225895
-2.4996657
-0.00066017349
-2.6727251
-0.12148226
-0.70404587
-0.14031216
-0.62426513
0.062120277
-0.51510994
0.21913542
-0.51811369
0.30857264
-0.54780723
0.3107577
-0.59575703
0.25323395
-0.6511654
0.068432747
-0.69425243
-0.16009092
-0.7156672
-0.30901524
-0.70807578
-0.32597459
-0.70247894
-0.25619828
-0.71669308
-0.15811374
-0.74945551
-0.082421812
-0.79949801
-0.03984206
-0.85822656
-0.019300274
-0.9197864
-0.010545635
-0.98249585
-0.0066214912
-1.0465931
-0.0035918862
-1.1134596
-0.0002295759
-1.1853599
0.0030910573
-1.2641048
0.0055973653
-1.3499594
0.0068109779
-1.4430833
0.0067094543
-1.544032
0.0056042233
-1.6528728
0.0039486995
-1.7696357
0.0021823705
-1.8951386
0.00064192682
-2.0302603
-0.00046787862
-2.1756341
-0.0010614649
-2.3307118
-0.0011396435
-2.4953041
-0.00076581138
-2.6680426
-0.12622037
-0.72394695
-0.18768342
-0.64668711
0.013499422
-0.56556237
0.20075094
-0.48754897
0.30894027
-0.50969627
0.32315209
-0.55086617
0.26873238
-0.60046029
0.067128503
-0.63841937
-0.18699359
-0.65715516
-0.36364107
-0.65139561
-0.38575485
-0.63770946
-0.29889531
-0.64943779
-0.18044885
-0.68557803
-0.088336251
-0.73571219
-0.037236349
-0.79411552
-0.01435795
-0.85473873
-0.0063475757
-0.91548497
-0.0044005283
-0.97644237
-0.0031194499
-1.0388622
-0.00056494796
-1.1050194
0.0028803017
-1.1774857
0.0060387767
-1.2572812
0.0080033754
-1.3440813
0.0084613349
-1.4380035
0.0076011499
-1.5395257
0.0058776614
-1.6486348
0.0038028795
-1.76542
0.0018107602
-1.8909048
0.00019801413
-2.0261467
-0.00088238044
-2.1717231
-0.0013884802
-2.326791
-0.0013561807
-2.4911265
-0.00086841446
-2.6635856
-0.12323125
-0.74087342
-0.23231368
-0.66933052
-0.039817944
-0.58325232
0.16554611
-0.52050195
0.30421935
-0.4745984
0.33004324
-0.50782326
0.27877741
-0.55080153
0.061582999
-0.58417547
-0.21615744
-0.59970379
-0.41515534
-0.59663443
-0.44607073
-0.5811283
-0.34342703
-0.58342335
-0.19979566
-0.62195284
-0.091870308
-0.67487133
-0.031903941
-0.73364723
-0.0066202362
-0.79396616
0.00019773477
-0.85333654
-0.0006663372
-0.91154662
-0.0020819742
-0.96988367
-0.0010421371
-1.0307312
0.002198943
-1.0969447
0.0060012645
-1.1705346
0.0088993336
-1.2515593
0.01016667
-1.3393212
0.009784794
-1.4339737
0.0081653768
-1.5359392
0.0058780304
-1.64514
0.0034600255
-1.7617887
0.0013159015
-1.8871293
-0.00031014732
-2.022403
-0.0013220738
-2.1680705
-0.0017188903
-2.3230601
-0.0015674223
-2.4871087
-0.00096613941
-2.6592047
-0.11140559
-0.75359179
-0.272294
-0.69090953
-0.097396694
-0.60160884
0.1231916
-0.53101588
0.28498571
-0.49246464
0.33111066
-0.46743563
0.28342582
-0.50301143
0.052428611
-0.53158482
-0.24579389
-0.5455954
-0.46227013
-0.54417452
-0.50171464
-0.53163494
-0.39034604
-0.52501112
-0.21624089
-0.55944068
-0.090643672
-0.61662011
-0.023217627
-0.67670969
0.0043890843
-0.73726129
0.0095481378
-0.79585461
0.0049802512
-0.85184682
-0.00025845171
-0.90636626
-0.0016557331
-0.96216999
0.00089750106
-1.0223938
0.0052722857
-1.0895751
0.0092874439
-1.1646697
0.011653291
-1.2469726
0.01203989
-1.3356805
0.010756128
-1.4309465
0.0084047068
-1.5331592
0.0056259345
-1.642279
0.0029473891
-1.7586393
0.00072370659
-1.8837195
-0.00086489956
-2.018935
-0.00177346
-2.1646258
-0.0020445427
-2.3194702
-0.0017693838
-2.4831874
-0.0010575124
-2.655018
-0.090552998
-0.76163227
-0.30585475
-0.7100518
-0.15822031
-0.61992596
0.073284116
-0.5418024
0.25921635
-0.49635867
0.32152698
-0.47411013
0.28233532
-0.45749826
0.040364517
-0.48153668
-0.2747896
-0.49421774
-0.50536479
-0.49463239
-0.55109054
-0.4860055
-0.43770288
-0.47560368
-0.23284692
-0.50142796
-0.083391574
-0.56070581
-0.010240571
-0.62325797
0.019021903
-0.6843951
0.022131534
-0.74281881
0.01295421
-0.79717675
0.0025551977
-0.84817812
-0.0024045608
-0.89908332
-0.0011956001
-0.95353527
0.0036028587
-1.014372
0.0089140354
-1.0831826
0.012707025
-1.1599878
0.014211977
-1.24359
0.013561187
-1.3331225
0.011354937
-1.4288092
0.0083292079
-1.5310827
0.0051467813
-1.6399394
0.002293774
-1.7558671
6.0125614e-05
-1.8806048
-0.0014449179
-2.0156806
-0.0022247328
-2.1613174
-0.0023588534
-2.315989
-0.0019589694
-2.4794014
-0.0011414037
-2.6509436
-0.061581053
-0.76518482
-0.3323529
-0.7251608
-0.22071778
-0.63738554
0.0157825
-0.55251081
0.22604415
-0.4996674
0.30747805
-0.47339802
0.27704819
-0.45950485
0.026695015
-0.43504693
-0.30212662
-0.44636471
-0.54365973
-0.44856092
-0.5937493
-0.44371733
-0.48227415
-0.43325695
-0.25123288
-0.45075977
-0.071619515
-0.50774076
0.0081055088
-0.57318362
0.037477143
-0.63518007
0.038314762
-0.69394659
0.023691709
-0.747351
0.0066818855
-0.79529321
-0.0032490369
-0.84132341
-0.004265096
-0.89001709
0.00070727491
-0.94467492
0.0074836913
-1.0071379
0.013072461
-1.0780609
0.016107898
-1.1566505
0.01645696
-1.2414159
0.014672764
-1.3315794
0.011571588
-1.4274619
0.0079573198
-1.5295789
0.004469765
-1.6380059
0.001528434
-1.7533947
-0.00065483043
-1.8777044
-0.0020351265
-2.0125775
-0.0026660977
-2.1581272
-0.0026566812
-2.3125985
-0.0021339333
-2.4757248
-0.0012169487
-2.6471243
-0.02645756
-0.76490006
-0.35258656
-0.7349856
-0.28262487
-0.65308381
-0.048839541
-0.56283731
0.18489024
-0.50232507
0.28812308
-0.47126882
0.2661062
-0.45301163
0.023128624
-0.44678932
-0.32694938
-0.40289915
-0.5766418
-0.40648836
-0.62946916
-0.40509762
-0.52197697
-0.39631122
-0.27050316
-0.40800777
-0.058235638
-0.45916833
0.032059429
-0.52626163
0.059911768
-0.58946909
0.058340176
-0.64893253
0.037626953
-0.70209554
0.012429788
-0.7475187
-0.004174852
-0.78880859
-0.0085134752
-0.83159197
-0.003748099
-0.88009104
0.0046584583
-0.93634856
0.012456001
-1.0011923
0.017498568
-1.0744439
0.019286169
-1.1546952
0.018272733
-1.2404048
0.015332401
-1.3309287
0.011410149
-1.4267655
0.007315354
-1.5285335
0.0036267736
-1.636393
0.00067922544
-1.7511449
-0.0013980497
-1.8749673
-0.0026216991
-2.009591
-0.0030896621
-2.1550061
-0.002934188
-2.3093066
-0.0022927826
-2.4722278
-0.0012837007
-2.6434667
0.013098729
-0.76005976
-0.36829605
-0.73923455
-0.34152523
-0.66592106
-0.11934883
-0.57263759
0.1355466
-0.50439881
0.26261502
-0.46765674
0.24916807
-0.44477578
0.016493641
-0.43713273
-0.33304945
-0.43308585
-0.60453152
-0.36854196
-0.65859827
-0.37010654
-0.55595056
-0.36387229
-0.28933853
-0.37193237
-0.045535398
-0.41617091
0.060414785
-0.48249209
0.086468967
-0.54702896
0.082253441
-0.60743836
0.055183834
-0.66109634
0.020148446
-0.70463161
-0.0051306811
-0.74139973
-0.014169898
-0.77811914
-0.010124231
-0.82023948
5.8087258e-05
-0.87035942
0.01052959
-0.92924637
0.018125393
-0.996962
0.021862321
-1.0724834
0.022041106
-1.1541005
0.019567236
-1.2404362
0.015519632
-1.3310525
0.010888529
-1.4265955
0.0064359831
-1.5278353
0.0026514501
-1.635011
-0.00022077461
-1.7490656
-0.0021502327
-1.872341
-0.0031929782
-2.0066923
-0.0034892581
-2.1519715
-0.0031886503
-2.3061208
-0.0024346428
-2.4688861
-0.00134175
-2.6400737
-0.74961625
0.05740573
-0.38000495
-0.73840614
-0.39571065
-0.67489724
-0.19357704
-0.58174755
0.078110718
-0.50605111
0.23024721
-0.46277031
0.22607633
-0.43492068
0.0060182534
-0.42498589
-0.33840262
-0.42404591
-0.61563248
-0.41527866
-0.68196819
-0.33838728
-0.58396464
-0.33527455
-0.30690518
-0.34115596
-0.03440369
-0.37892165
0.091121469
-0.44221416
0.11703995
-0.50760897
0.11000631
-0.56914109
0.076760588
-0.62399268
0.030234953
-0.66637281
-0.0060285503
-0.69892124
-0.02147052
-0.72945445
-0.018834846
-0.76487358
-0.0067383799
-0.80874518
0.0069382479
-0.86187177
0.017708579
-0.92411514
0.023977492
-0.99473204
0.025840255
-1.0721577
0.02420809
-1.1547577
0.020281967
-1.2413974
0.015236491
-1.3317914
0.010036879
-1.4268181
0.0053564397
-1.5273834
0.0015774084
-1.6337814
-0.0011642706
-1.7470759
-0.0028952646
-1.8698045
-0.0037395754
-2.0038615
-0.003860272
-2.1489986
-0.0034183411
-2.3030822
-0.0025591687
-2.4657516
-0.0013912494
-2.6368683
-0.73345859
-0.38623099
-0.73301619
0.10614605
-0.44440603
-0.6795775
-0.26874444
-0.58977787
0.013062758
-0.50750184
0.19049185
-0.45695037
0.19700018
-0.42397973
-0.0086129416
-0.41092141
-0.34321452
-0.41232739
-0.62234871
-0.41044902
-0.69786763
-0.39241292
-0.60648384
-0.30948051
-0.32294372
-0.31443792
-0.025002187
-0.34676717
0.12232672
-0.40580475
0.15100339
-0.47104053
0.1415507
-0.53379498
0.10275425
-0.59046057
0.043206857
-0.63250432
-0.0067779631
-0.66112577
-0.030670716
-0.6854196
-0.030326527
-0.71382197
-0.016191946
-0.7511609
0.0013036935
-0.79857705
0.015958679
-0.85558139
0.025413786
-0.92135573
0.02951658
-0.99450961
0.029166648
-1.0733511
0.025673949
-1.1565351
0.020393662
-1.2431123
0.014505684
-1.333005
0.0088949332
-1.4273108
0.0041166934
-1.5270812
0.00043600129
-1.6326363
-0.0021112778
-1.7451526
-0.0036193331
-1.8673175
-0.0042541049
-2.0010882
-0.0041994848
-2.1461415
-0.003622329
-2.3001863
-0.002666422
-2.4627913
-0.0014324334
-2.6339344
-0.67967589
-0.48807973
-0.7235212
-0.38580894
-0.7108519
0.15872624
-0.34245866
-0.59590618
-0.058667781
-0.50881152
0.14303406
-0.45063031
0.16238296
-0.41256565
-0.027253883
-0.39593197
-0.34747763
-0.39870541
-0.62425046
-0.40337662
-0.70792386
-0.39326278
-0.63670269
-0.35569877
-0.33682879
-0.29112902
-0.017924775
-0.31803226
0.1527082
-0.37314123
0.18738955
-0.43735015
0.17671283
-0.50111065
0.13342335
-0.56011752
0.059793192
-0.60291398
-0.007095011
-0.62797227
-0.042016077
-0.64578472
-0.045096333
-0.66685784
-0.028804787
-0.69733699
-0.0067635275
-0.73895373
0.012589057
-0.79093235
0.0259571
-0.85207068
0.032911671
-0.92103564
0.034340455
-0.99613946
0.031654086
-1.0759054
0.026378761
-1.1592489
0.019911291
-1.2454113
0.013366711
-1.3345266
0.0075090479
-1.4279588
0.0027579463
-1.5268433
-0.00074029561
-1.6315315
-0.0030475361
-1.7432533
-0.0043110433
-1.8648759
-0.0047310191
-1.9983778
-0.0045048679
-2.1433772
-0.0038003809
-2.2974476
-0.0027567906
-2.4600383
-0.0014656223
-2.6311753
-0.59924352
-0.41293092
-0.67511238
-0.52640842
-0.70833079
-0.37842945
-0.68396795
0.21442568
-0.13536887
-0.50994023
0.088024717
-0.4443376
0.1229039
-0.40134466
-0.049406055
-0.38098074
-0.35116691
-0.38419309
-0.6208943
-0.39485779
-0.71242924
-0.39160225
-0.65959344
-0.36375855
-0.37703863
-0.31099227
-0.011448408
-0.29438548
0.18154643
-0.34315492
0.224859
-0.40605358
0.21436114
-0.47015792
0.16787533
-0.53152227
0.080136151
-0.5766318
-0.0066298799
-0.59942081
-0.055590826
-0.61067426
-0.063660631
-0.62374157
-0.045113269
-0.64702134
-0.01766077
-0.68268127
0.007332638
-0.72975126
0.025413658
-0.78650414
0.035875962
-0.85144232
0.039621619
-0.92296502
0.03816584
-0.99941619
0.033193696
-1.0796033
0.026310662
-1.1626878
0.018870603
-1.248098
0.011871752
-1.3362331
0.0059294802
-1.4286556
0.0013197075
-1.5266057
-0.0019297126
-1.6304125
-0.0039563541
-1.7413649
-0.0049614199
-1.862453
-0.0051664611
-1.9957379
-0.0047754143
-2.1407339
-0.0039527666
-2.2948521
-0.0028308955
-2.4574567
-0.0014912378
-2.628645
-0.51095128
-0.21437695
-0.59973254
-0.47834862
-0.66493653
-0.55975665
-0.68848286
-0.36403307
-0.65315423
0.27259168
0.0262586
-0.43867692
0.079485707
-0.39108727
-0.074159513
-0.36714439
-0.35404245
-0.36997579
-0.61222345
-0.38552193
-0.71105299
-0.38885364
-0.67506339
-0.36942956
-0.41361042
-0.32260939
-0.037923856
-0.28129609
0.20874263
-0.31813097
0.2628346
-0.37685226
0.2528268
-0.4399242
0.20287489
-0.50140455
0.10203841
-0.54987978
-0.0066334189
-0.57290421
-0.071600859
-0.57993229
-0.08654143
-0.58459918
-0.065699454
-0.59992951
-0.031774422
-0.62947935
-4.5010889e-05
-0.67170199
0.023627448
-0.72431777
0.038284642
-0.78541023
0.044907849
-0.85347739
0.045142554
-0.92687259
0.040823297
-1.0040825
0.033745673
-1.0842153
0.025497501
-1.1666392
0.017327976
-1.2510182
0.010081137
-1.3379805
0.0042082964
-1.4293208
-0.00014678817
-1.5263271
-0.003102254
-1.6292565
-0.0048234877
-1.7394502
-0.0055637041
-1.8600642
-0.0055580022
-1.993161
-0.0050109361
-2.1381863
-0.0040802053
-2.2924242
-0.0028895396
-2.4550673
-0.0015097517
-2.6262783
-0.43458056
-0.040600202
-0.51205925
-0.29275518
-0.59594008
-0.53738043
-0.64961001
-0.58862331
-0.66463174
-0.34269615
-0.61893863
0.33254765
0.032979197
-0.38232589
-0.099992519
-0.35580389
-0.35580099
-0.35720015
-0.59850719
-0.37623002
-0.70366943
-0.38543626
-0.68287797
-0.37426413
-0.4456588
-0.33274648
-0.066727306
-0.29050954
0.21190297
-0.28099162
0.29934903
-0.35062684
0.29111463
-0.41079081
0.23641036
-0.46996943
0.12216268
-0.51824869
-0.010104829
-0.54290062
-0.092348669
-0.5489007
-0.11444332
-0.54909381
-0.09135499
-0.55598696
-0.049488274
-0.57907277
-0.0097265664
-0.61651517
0.020499911
-0.66520611
0.040055626
-0.72270706
0.05011572
-0.78739666
0.052514269
-0.85788333
0.04923572
-0.93247979
0.042239149
-1.0098886
0.033325725
-1.0894936
0.023997841
-1.1709025
0.015354235
-1.2540019
0.0080598063
-1.3396719
0.0023965747
-1.4298647
-0.0016450262
-1.5259432
-0.0042376588
-1.6280237
-0.0056378405
-1.7375176
-0.0061131398
-1.8576877
-0.0059044753
-1.9906504
-0.0052119331
-2.1357723
-0.0041837035
-2.2901428
-0.0029336481
-2.4528331
-0.0015216784
-2.6241201
-0.37583361
-0.015923219
-0.43295823
-0.11018852
-0.51225996
-0.36713908
-0.5876828
-0.58933934
-0.62995934
-0.61333394
-0.63727865
-0.31452041
-0.58175247
0.3934817
-0.12522074
-0.34765374
-0.3560332
-0.34735465
-0.58035266
-0.36779512
-0.6902721
-0.38208603
-0.6831316
-0.37835233
-0.47265715
-0.34257335
-0.095720257
-0.3003803
0.21123378
-0.28623779
0.32299118
-0.30060372
0.3268736
-0.38229053
0.26716803
-0.43829125
0.13883682
-0.4836066
-0.017980712
-0.50706394
-0.12158037
-0.51061647
-0.14868748
-0.51195418
-0.1228128
-0.51492137
-0.071340695
-0.53123691
-0.021824113
-0.56397018
0.016005594
-0.60893596
0.041164304
-0.66312766
0.055195101
-0.72461
0.060216994
-0.79214178
0.058384181
-0.86432553
0.0517913
-0.93947176
0.042414119
-1.0165372
0.031992418
-1.0951973
0.021892526
-1.1752789
0.013029229
-1.2569127
0.0058739136
-1.3411957
0.00054018524
-1.4302623
-0.003107985
-1.5254231
-0.0053188585
-1.6267156
-0.006391053
-1.7355498
-0.0066067773
-1.8553407
-0.0062057165
-1.9882091
-0.0053794336
-2.1334652
-0.0042645427
-2.288004
-0.0029642166
-2.4507642
-0.0015275199
-2.6221037
-0.34206094
-0.14956491
-0.37270237
-0.066342821
-0.43391841
-0.17903051
-0.51053204
-0.43500568
-0.57507855
-0.63424702
-0.60692121
-0.63377883
-0.60694993
-0.27951435
-0.54220551
0.45441619
-0.35464875
-0.34081572
-0.55885624
-0.36122006
-0.67091403
-0.37954896
-0.67614651
-0.38220177
-0.49402285
-0.35224095
-0.12381548
-0.31102974
0.20693732
-0.29234815
0.34628898
-0.30533751
0.35674177
-0.32640296
0.29425092
-0.40633218
0.14979284
-0.44643199
-0.030982675
-0.46748569
-0.15816638
-0.46761016
-0.1905244
-0.4662882
-0.15911209
-0.47315848
-0.09774136
-0.48583795
-0.036432951
-0.51386469
0.010211193
-0.55535619
0.041657522
-0.60647628
0.06013971
-0.66499566
0.06820273
-0.72961535
0.068212739
-0.7992784
0.062376668
-0.87243975
0.052795488
-0.94751088
0.041405048
-1.0237453
0.029835574
-1.1010813
0.019277406
-1.1795839
0.010437034
-1.2596173
0.0035879701
-1.3424961
-0.0013146759
-1.430451
-0.0045203254
-1.5247578
-0.0063321125
-1.6253151
-0.0070772779
-1.7335604
-0.0070431755
-1.8530042
-0.006462457
-1.9858506
-0.0055148897
-2.1312736
-0.0043241143
-2.2859854
-0.0029822387
-2.4488328
-0.0015277831
-2.6202638
-0.33679456
-0.35170894
-0.33963499
-0.17322396
-0.37312037
-0.11731957
-0.43664895
-0.24344445
-0.50601443
-0.49481022
-0.55863919
-0.67255026
-0.58128318
-0.64958769
-0.57415919
-0.23778286
-0.50094169
0.51426093
-0.53521423
-0.35678261
-0.64629608
-0.3781791
-0.66267821
-0.38612249
-0.50928751
-0.36214684
-0.1499579
-0.32257956
0.19939901
-0.29963991
0.36731231
-0.30901187
0.38672706
-0.33110943
0.32833342
-0.35748138
0.15717627
-0.41109397
-0.046866105
-0.42761694
-0.19609772
-0.42685611
-0.23734496
-0.41849126
-0.19750886
-0.42559046
-0.1268513
-0.44155409
-0.053629173
-0.46608875
0.0032833548
-0.50435608
0.041664082
-0.55264084
0.064997452
-0.60841788
0.076446387
-0.67029721
0.078660759
-0.73734613
0.073944972
-0.80840996
0.064468394
-0.88184934
0.052302804
-0.95626493
0.039309372
-1.0312264
0.026967137
-1.1069285
0.016256919
-1.1836616
0.0076620817
-1.2620273
0.0012617378
-1.3434987
-0.0031374084
-1.4304093
-0.0058612881
-1.5239298
-0.0072672137
-1.623832
-0.0076928871
-1.7315277
-0.0074222561
-1.8507102
-0.0066760793
-1.9835614
-0.0056200149
-2.1291725
-0.0043638758
-2.2840991
-0.0029887181
-2.4470507
-0.0015229585
-2.6185427
-0.35481212
-0.50950672
-0.3369528
-0.34621569
-0.34018834
-0.1967709
-0.37788008
-0.16629157
-0.43989758
-0.30013959
-0.49794821
-0.54627711
-0.53910038
-0.70474508
-0.55369788
-0.66025488
-0.53936942
-0.18961399
-0.45872019
0.57193723
-0.6171843
-0.37818875
-0.6438706
-0.39007551
-0.5185683
-0.37201935
-0.17359197
-0.33492959
0.18924312
-0.30847247
0.3849807
-0.31280955
0.41574029
-0.33368683
0.36188017
-0.36153808
0.19057114
-0.38829724
-0.062788016
-0.39242402
-0.22946574
-0.39170667
-0.28115069
-0.38092227
-0.23672132
-0.37715312
-0.15467034
-0.39544523
-0.072348006
-0.42046733
-0.0045939852
-0.45584427
0.041405622
-0.50159376
0.069874515
-0.55478836
0.084951695
-0.61408301
0.089666336
-0.67859659
0.086421454
-0.74739652
0.077393512
-0.81910995
0.064714468
-0.89215771
0.050416738
-0.96541947
0.036253884
-1.0387299
0.023512983
-1.1125401
0.012938607