/*--------------------------------*- C++ -*----------------------------------*\
| =========                 |                                                 |
| \\      /  F ield         | OpenFOAM: The Open Source CFD Toolbox           |
|  \\    /   O peration     | Version:  v2012                                 |
|   \\  /    A nd           | Website:  www.openfoam.com                      |
|    \\/     M anipulation  |                                                 |
\*---------------------------------------------------------------------------*/
FoamFile
{
    version     2.0;
    format      ascii;
    class       pointVectorField;
    location    "98.904147998564369";
    object      pointDisplacement;
}
// * * * * * * * * * * * * * * * * * * * * * * * * * * * * * * * * * * * * * //

dimensions      [0 1 0 0 0 0 0];


internalField   nonuniform List<vector> 
18840
(
(1.0016808 0 0)
(1.0015088 0 0)
(1.000998 0 0)
(1.0001576 0 0)
(0.99899488 0 0)
(0.99751551 0 0)
(0.9957239 0 0)
(0.99362345 0 0)
(0.99121671 0 0)
(0.98850544 0 0)
(0.98549075 0 0)
(0.98217323 0 0)
(0.97855301 0 0)
(0.97462985 0 0)
(0.97040306 0 0)
(0.96587177 0 0)
(0.96103487 0 0)
(0.95589137 0 0)
(0.9504405 0 0)
(0.94468744 0 0)
(0.93744165 0 0)
(1.0016808 0 0)
(1.0015089 0 0)
(1.000998 0 0)
(1.0001571 0 0)
(0.99899371 0 0)
(0.99751315 0 0)
(0.99571983 0 0)
(0.99361719 0 0)
(0.99120773 0 0)
(0.98849331 0 0)
(0.98547507 0 0)
(0.98215375 0 0)
(0.97852951 0 0)
(0.9746023 0 0)
(0.97037154 0 0)
(0.96583657 0 0)
(0.96099638 0 0)
(0.95585005 0 0)
(0.95039655 0 0)
(0.94463775 0 0)
(0.93857668 0 0)
(1.0016808 0 0)
(1.0015086 0 0)
(1.000997 0 0)
(1.0001548 0 0)
(0.99898918 0 0)
(0.99750566 0 0)
(0.99570854 0 0)
(0.99360128 0 0)
(0.99118644 0 0)
(0.98846595 0 0)
(0.98544106 0 0)
(0.98211264 0 0)
(0.97848099 0 0)
(0.97454621 0 0)
(0.97030792 0 0)
(0.96576561 0 0)
(0.9609184 0 0)
(0.95576537 0 0)
(0.9503052 0 0)
(0.94453664 0 0)
(0.93838116 0 0)
(1.0016808 0 0)
(1.0015085 0 0)
(1.0009965 0 0)
(1.0001534 0 0)
(0.99898628 0 0)
(0.99750056 0 0)
(0.99570052 0 0)
(0.99358963 0 0)
(0.9911705 0 0)
(0.98844515 0 0)
(0.98541492 0 0)
(0.98208083 0 0)
(0.97844335 0 0)
(0.97450276 0 0)
(0.97025891 0 0)
(0.96571154 0 0)
(0.96086003 0 0)
(0.95570376 0 0)
(0.9502418 0 0)
(0.94447393 0 0)
(0.93825037 0 0)
(1.0016808 0 0)
(1.0015086 0 0)
(1.0009964 0 0)
(1.0001528 0 0)
(0.99898479 0 0)
(0.99749754 0 0)
(0.99569532 0 0)
(0.99358162 0 0)
(0.99115906 0 0)
(0.98842976 0 0)
(0.98539517 0 0)
(0.98205645 0 0)
(0.97841425 0 0)
(0.97446907 0 0)
(0.970221 0 0)
(0.9656701 0 0)
(0.96081611 0 0)
(0.95565882 0 0)
(0.95019787 0 0)
(0.94443397 0 0)
(0.93815337 0 0)
(1.0016808 0 0)
(1.0015087 0 0)
(1.0009967 0 0)
(1.0001531 0 0)
(0.99898457 0 0)
(0.99749632 0 0)
(0.99569255 0 0)
(0.99357666 0 0)
(0.99115134 0 0)
(0.98841874 0 0)
(0.98538045 0 0)
(0.98203774 0 0)
(0.97839145 0 0)
(0.97444231 0 0)
(0.97019066 0 0)
(0.96563688 0 0)
(0.96078105 0 0)
(0.95562345 0 0)
(0.9501642 0 0)
(0.94440473 0 0)
(0.93807562 0 0)
(1.0016808 0 0)
(1.0015089 0 0)
(1.0009973 0 0)
(1.000154 0 0)
(0.99898547 0 0)
(0.99749677 0 0)
(0.9956919 0 0)
(0.99357437 0 0)
(0.99114674 0 0)
(0.98841131 0 0)
(0.98536965 0 0)
(0.98202327 0 0)
(0.97837307 0 0)
(0.97442007 0 0)
(0.97016479 0 0)
(0.96560795 0 0)
(0.96074993 0 0)
(0.95559139 0 0)
(0.95013299 0 0)
(0.94437652 0 0)
(0.9380062 0 0)
(1.0016808 0 0)
(1.0015092 0 0)
(1.0009983 0 0)
(1.0001557 0 0)
(0.99898752 0 0)
(0.99749878 0 0)
(0.99569334 0 0)
(0.99357462 0 0)
(0.99114514 0 0)
(0.98840722 0 0)
(0.98536248 0 0)
(0.98201251 0 0)
(0.97835838 0 0)
(0.97440123 0 0)
(0.97014188 0 0)
(0.96558118 0 0)
(0.9607199 0 0)
(0.95555896 0 0)
(0.95009946 0 0)
(0.94434338 0 0)
(0.93793825 0 0)
(1.0016808 0 0)
(1.0015095 0 0)
(1.0009996 0 0)
(1.000158 0 0)
(0.99899072 0 0)
(0.9975024 0 0)
(0.99569699 0 0)
(0.99357759 0 0)
(0.99114683 0 0)
(0.98840681 0 0)
(0.98535935 0 0)
(0.98200591 0 0)
(0.97834781 0 0)
(0.97438617 0 0)
(0.97012212 0 0)
(0.96555657 0 0)
(0.96069059 0 0)
(0.95552532 0 0)
(0.95006215 0 0)
(0.9443032 0 0)
(0.93786916 0 0)
(1.0016808 0 0)
(1.00151 0 0)
(1.0010012 0 0)
(1.000161 0 0)
(0.99899503 0 0)
(0.99750776 0 0)
(0.99570294 0 0)
(0.99358356 0 0)
(0.99115213 0 0)
(0.98841063 0 0)
(0.98536086 0 0)
(0.98200426 0 0)
(0.97834221 0 0)
(0.97437587 0 0)
(0.97010645 0 0)
(0.96553502 0 0)
(0.96066281 0 0)
(0.95549109 0 0)
(0.95002145 0 0)
(0.94425593 0 0)
(0.93779871 0 0)
(1.0016808 0 0)
(1.0015102 0 0)
(1.0010017 0 0)
(1.0001618 0 0)
(0.99899548 0 0)
(0.99750722 0 0)
(0.99570055 0 0)
(0.99357833 0 0)
(0.99114293 0 0)
(0.98839624 0 0)
(0.98533998 0 0)
(0.98197554 0 0)
(0.9783043 0 0)
(0.97432742 0 0)
(0.97004616 0 0)
(0.96546166 0 0)
(0.96057525 0 0)
(0.95538833 0 0)
(0.94990259 0 0)
(0.94411985 0 0)
(0.93764037 0 0)
(1.0016808 0 0)
(1.0015088 0 0)
(1.000998 0 0)
(1.0001576 0 0)
(0.99899488 0 0)
(0.99751551 0 0)
(0.9957239 0 0)
(0.99362345 0 0)
(0.99121671 0 0)
(0.98850544 0 0)
(0.98549075 0 0)
(0.98217323 0 0)
(0.97855301 0 0)
(0.97462985 0 0)
(0.97040306 0 0)
(0.96587177 0 0)
(0.96103487 0 0)
(0.95589137 0 0)
(0.9504405 0 0)
(0.94468744 0 0)
(0.93744165 0 0)
(1.0016808 0 0)
(1.0015089 0 0)
(1.000998 0 0)
(1.0001571 0 0)
(0.99899371 0 0)
(0.99751315 0 0)
(0.99571983 0 0)
(0.99361719 0 0)
(0.99120773 0 0)
(0.98849331 0 0)
(0.98547507 0 0)
(0.98215375 0 0)
(0.97852951 0 0)
(0.9746023 0 0)
(0.97037154 0 0)
(0.96583657 0 0)
(0.96099638 0 0)
(0.95585005 0 0)
(0.95039655 0 0)
(0.94463775 0 0)
(0.93857668 0 0)
(1.0016808 0 0)
(1.0015086 0 0)
(1.000997 0 0)
(1.0001548 0 0)
(0.99898918 0 0)
(0.99750566 0 0)
(0.99570854 0 0)
(0.99360128 0 0)
(0.99118644 0 0)
(0.98846595 0 0)
(0.98544106 0 0)
(0.98211264 0 0)
(0.97848099 0 0)
(0.97454621 0 0)
(0.97030792 0 0)
(0.96576561 0 0)
(0.9609184 0 0)
(0.95576537 0 0)
(0.9503052 0 0)
(0.94453664 0 0)
(0.93838116 0 0)
(1.0016808 0 0)
(1.0015085 0 0)
(1.0009965 0 0)
(1.0001534 0 0)
(0.99898628 0 0)
(0.99750056 0 0)
(0.99570052 0 0)
(0.99358963 0 0)
(0.9911705 0 0)
(0.98844515 0 0)
(0.98541492 0 0)
(0.98208083 0 0)
(0.97844335 0 0)
(0.97450276 0 0)
(0.97025891 0 0)
(0.96571154 0 0)
(0.96086003 0 0)
(0.95570376 0 0)
(0.9502418 0 0)
(0.94447393 0 0)
(0.93825037 0 0)
(1.0016808 0 0)
(1.0015086 0 0)
(1.0009964 0 0)
(1.0001528 0 0)
(0.99898479 0 0)
(0.99749754 0 0)
(0.99569532 0 0)
(0.99358162 0 0)
(0.99115906 0 0)
(0.98842976 0 0)
(0.98539517 0 0)
(0.98205645 0 0)
(0.97841425 0 0)
(0.97446907 0 0)
(0.970221 0 0)
(0.9656701 0 0)
(0.96081611 0 0)
(0.95565882 0 0)
(0.95019787 0 0)
(0.94443397 0 0)
(0.93815337 0 0)
(1.0016808 0 0)
(1.0015087 0 0)
(1.0009967 0 0)
(1.0001531 0 0)
(0.99898457 0 0)
(0.99749632 0 0)
(0.99569255 0 0)
(0.99357666 0 0)
(0.99115134 0 0)
(0.98841874 0 0)
(0.98538045 0 0)
(0.98203774 0 0)
(0.97839145 0 0)
(0.97444231 0 0)
(0.97019066 0 0)
(0.96563688 0 0)
(0.96078105 0 0)
(0.95562345 0 0)
(0.9501642 0 0)
(0.94440473 0 0)
(0.93807562 0 0)
(1.0016808 0 0)
(1.0015089 0 0)
(1.0009973 0 0)
(1.000154 0 0)
(0.99898547 0 0)
(0.99749677 0 0)
(0.9956919 0 0)
(0.99357437 0 0)
(0.99114674 0 0)
(0.98841131 0 0)
(0.98536965 0 0)
(0.98202327 0 0)
(0.97837307 0 0)
(0.97442007 0 0)
(0.97016479 0 0)
(0.96560795 0 0)
(0.96074993 0 0)
(0.95559139 0 0)
(0.95013299 0 0)
(0.94437652 0 0)
(0.9380062 0 0)
(1.0016808 0 0)
(1.0015092 0 0)
(1.0009983 0 0)
(1.0001557 0 0)
(0.99898752 0 0)
(0.99749878 0 0)
(0.99569334 0 0)
(0.99357462 0 0)
(0.99114514 0 0)
(0.98840722 0 0)
(0.98536248 0 0)
(0.98201251 0 0)
(0.97835838 0 0)
(0.97440123 0 0)
(0.97014188 0 0)
(0.96558118 0 0)
(0.9607199 0 0)
(0.95555896 0 0)
(0.95009946 0 0)
(0.94434338 0 0)
(0.93793825 0 0)
(1.0016808 0 0)
(1.0015095 0 0)
(1.0009996 0 0)
(1.000158 0 0)
(0.99899072 0 0)
(0.9975024 0 0)
(0.99569699 0 0)
(0.99357759 0 0)
(0.99114683 0 0)
(0.98840681 0 0)
(0.98535935 0 0)
(0.98200591 0 0)
(0.97834781 0 0)
(0.97438617 0 0)
(0.97012212 0 0)
(0.96555657 0 0)
(0.96069059 0 0)
(0.95552532 0 0)
(0.95006215 0 0)
(0.9443032 0 0)
(0.93786916 0 0)
(1.0016808 0 0)
(1.00151 0 0)
(1.0010012 0 0)
(1.000161 0 0)
(0.99899503 0 0)
(0.99750776 0 0)
(0.99570294 0 0)
(0.99358356 0 0)
(0.99115213 0 0)
(0.98841063 0 0)
(0.98536086 0 0)
(0.98200426 0 0)
(0.97834221 0 0)
(0.97437587 0 0)
(0.97010645 0 0)
(0.96553502 0 0)
(0.96066281 0 0)
(0.95549109 0 0)
(0.95002145 0 0)
(0.94425593 0 0)
(0.93779871 0 0)
(1.0016808 0 0)
(1.0015102 0 0)
(1.0010017 0 0)
(1.0001618 0 0)
(0.99899548 0 0)
(0.99750722 0 0)
(0.99570055 0 0)
(0.99357833 0 0)
(0.99114293 0 0)
(0.98839624 0 0)
(0.98533998 0 0)
(0.98197554 0 0)
(0.9783043 0 0)
(0.97432742 0 0)
(0.97004616 0 0)
(0.96546166 0 0)
(0.96057525 0 0)
(0.95538833 0 0)
(0.94990259 0 0)
(0.94411985 0 0)
(0.93764037 0 0)
(1.0016808 0 0)
(1.0015051 0 0)
(1.000984 0 0)
(1.000128 0 0)
(0.99894525 0 0)
(0.99744256 0 0)
(0.99562522 0 0)
(0.99349739 0 0)
(0.99106231 0 0)
(0.98832235 0 0)
(0.98527933 0 0)
(0.98193441 0 0)
(0.97828841 0 0)
(0.97434159 0 0)
(0.97009403 0 0)
(0.96554533 0 0)
(0.96069499 0 0)
(0.95554215 0 0)
(0.95008585 0 0)
(0.94433075 0 0)
(0.93775482 0 0)
(1.0016808 0 0)
(1.0015054 0 0)
(1.0009851 0 0)
(1.0001303 0 0)
(0.99894937 0 0)
(0.99744896 0 0)
(0.99563433 0 0)
(0.99350956 0 0)
(0.99107782 0 0)
(0.9883414 0 0)
(0.98530201 0 0)
(0.98196071 0 0)
(0.9783182 0 0)
(0.97437468 0 0)
(0.9701301 0 0)
(0.96558399 0 0)
(0.96073576 0 0)
(0.95558451 0 0)
(0.95012919 0 0)
(0.94437429 0 0)
(0.93780285 0 0)
(1.0016808 0 0)
(1.0015054 0 0)
(1.0009852 0 0)
(1.0001306 0 0)
(0.99895003 0 0)
(0.99745001 0 0)
(0.99563584 0 0)
(0.99351154 0 0)
(0.99108021 0 0)
(0.98834406 0 0)
(0.98530475 0 0)
(0.98196323 0 0)
(0.97832013 0 0)
(0.97437553 0 0)
(0.9701293 0 0)
(0.9655809 0 0)
(0.9607296 0 0)
(0.95557436 0 0)
(0.95011398 0 0)
(0.94435254 0 0)
(0.93779179 0 0)
(1.0016808 0 0)
(1.0015056 0 0)
(1.0009857 0 0)
(1.0001318 0 0)
(0.99895218 0 0)
(0.99745328 0 0)
(0.99564037 0 0)
(0.99351738 0 0)
(0.99108737 0 0)
(0.98835248 0 0)
(0.98531429 0 0)
(0.98197366 0 0)
(0.9783311 0 0)
(0.97438662 0 0)
(0.97013997 0 0)
(0.96559046 0 0)
(0.96073716 0 0)
(0.95557889 0 0)
(0.95011417 0 0)
(0.9443464 0 0)
(0.93780754 0 0)
(1.0016808 0 0)
(1.0015058 0 0)
(1.0009866 0 0)
(1.0001338 0 0)
(0.99895554 0 0)
(0.99745842 0 0)
(0.99564736 0 0)
(0.99352642 0 0)
(0.99109842 0 0)
(0.98836564 0 0)
(0.98532936 0 0)
(0.98199052 0 0)
(0.97834939 0 0)
(0.97440602 0 0)
(0.9701599 0 0)
(0.96561022 0 0)
(0.96075584 0 0)
(0.9555953 0 0)
(0.9501269 0 0)
(0.94435299 0 0)
(0.93784734 0 0)
(1.0016808 0 0)
(1.0015061 0 0)
(1.0009879 0 0)
(1.0001364 0 0)
(0.99895998 0 0)
(0.99746501 0 0)
(0.99565631 0 0)
(0.99353788 0 0)
(0.99111246 0 0)
(0.98838224 0 0)
(0.98534841 0 0)
(0.98201189 0 0)
(0.97837279 0 0)
(0.97443107 0 0)
(0.97018603 0 0)
(0.96563676 0 0)
(0.96078184 0 0)
(0.95561961 0 0)
(0.95014804 0 0)
(0.94436854 0 0)
(0.93790762 0 0)
(1.0016808 0 0)
(1.0015065 0 0)
(1.0009894 0 0)
(1.0001396 0 0)
(0.99896537 0 0)
(0.99747284 0 0)
(0.9956669 0 0)
(0.99355129 0 0)
(0.9911288 0 0)
(0.98840144 0 0)
(0.98537043 0 0)
(0.98203651 0 0)
(0.97839978 0 0)
(0.97446004 0 0)
(0.97021649 0 0)
(0.96566805 0 0)
(0.96081313 0 0)
(0.95564994 0 0)
(0.9501761 0 0)
(0.94439215 0 0)
(0.93798792 0 0)
(1.0016808 0 0)
(1.001507 0 0)
(1.0009912 0 0)
(1.0001435 0 0)
(0.99897174 0 0)
(0.99748211 0 0)
(0.99567929 0 0)
(0.99356698 0 0)
(0.99114787 0 0)
(0.9884239 0 0)
(0.98539622 0 0)
(0.9820655 0 0)
(0.97843179 0 0)
(0.97449481 0 0)
(0.97025364 0 0)
(0.96570715 0 0)
(0.96085367 0 0)
(0.95569124 0 0)
(0.95021737 0 0)
(0.94443153 0 0)
(0.93809665 0 0)
(1.0016808 0 0)
(1.0015076 0 0)
(1.0009934 0 0)
(1.0001481 0 0)
(0.99897934 0 0)
(0.99749313 0 0)
(0.99569405 0 0)
(0.9935857 0 0)
(0.9911707 0 0)
(0.98845092 0 0)
(0.98542746 0 0)
(0.98210095 0 0)
(0.97847139 0 0)
(0.97453847 0 0)
(0.9703013 0 0)
(0.96575872 0 0)
(0.96090909 0 0)
(0.95575053 0 0)
(0.95028063 0 0)
(0.94449801 0 0)
(0.93824691 0 0)
(1.0016808 0 0)
(1.0015083 0 0)
(1.0009961 0 0)
(1.0001536 0 0)
(0.9989884 0 0)
(0.99750626 0 0)
(0.99571169 0 0)
(0.99360815 0 0)
(0.99119824 0 0)
(0.98848373 0 0)
(0.98546571 0 0)
(0.98214474 0 0)
(0.9785209 0 0)
(0.97459388 0 0)
(0.97036284 0 0)
(0.96582672 0 0)
(0.96098415 0 0)
(0.95583366 0 0)
(0.95037364 0 0)
(0.94460553 0 0)
(0.93846768 0 0)
(1.0016808 0 0)
(1.0015051 0 0)
(1.000984 0 0)
(1.000128 0 0)
(0.99894525 0 0)
(0.99744256 0 0)
(0.99562522 0 0)
(0.99349739 0 0)
(0.99106231 0 0)
(0.98832235 0 0)
(0.98527933 0 0)
(0.98193441 0 0)
(0.97828841 0 0)
(0.97434159 0 0)
(0.97009403 0 0)
(0.96554533 0 0)
(0.96069499 0 0)
(0.95554215 0 0)
(0.95008585 0 0)
(0.94433075 0 0)
(0.93775482 0 0)
(1.0016808 0 0)
(1.0015054 0 0)
(1.0009851 0 0)
(1.0001303 0 0)
(0.99894937 0 0)
(0.99744896 0 0)
(0.99563433 0 0)
(0.99350956 0 0)
(0.99107782 0 0)
(0.9883414 0 0)
(0.98530201 0 0)
(0.98196071 0 0)
(0.9783182 0 0)
(0.97437468 0 0)
(0.9701301 0 0)
(0.96558399 0 0)
(0.96073576 0 0)
(0.95558451 0 0)
(0.95012919 0 0)
(0.94437429 0 0)
(0.93780285 0 0)
(1.0016808 0 0)
(1.0015054 0 0)
(1.0009852 0 0)
(1.0001306 0 0)
(0.99895003 0 0)
(0.99745001 0 0)
(0.99563584 0 0)
(0.99351154 0 0)
(0.99108021 0 0)
(0.98834406 0 0)
(0.98530475 0 0)
(0.98196323 0 0)
(0.97832013 0 0)
(0.97437553 0 0)
(0.9701293 0 0)
(0.9655809 0 0)
(0.9607296 0 0)
(0.95557436 0 0)
(0.95011398 0 0)
(0.94435254 0 0)
(0.93779179 0 0)
(1.0016808 0 0)
(1.0015056 0 0)
(1.0009857 0 0)
(1.0001318 0 0)
(0.99895218 0 0)
(0.99745328 0 0)
(0.99564037 0 0)
(0.99351738 0 0)
(0.99108737 0 0)
(0.98835248 0 0)
(0.98531429 0 0)
(0.98197366 0 0)
(0.9783311 0 0)
(0.97438662 0 0)
(0.97013997 0 0)
(0.96559046 0 0)
(0.96073716 0 0)
(0.95557889 0 0)
(0.95011417 0 0)
(0.9443464 0 0)
(0.93780754 0 0)
(1.0016808 0 0)
(1.0015058 0 0)
(1.0009866 0 0)
(1.0001338 0 0)
(0.99895554 0 0)
(0.99745842 0 0)
(0.99564736 0 0)
(0.99352642 0 0)
(0.99109842 0 0)
(0.98836564 0 0)
(0.98532936 0 0)
(0.98199052 0 0)
(0.97834939 0 0)
(0.97440602 0 0)
(0.9701599 0 0)
(0.96561022 0 0)
(0.96075584 0 0)
(0.9555953 0 0)
(0.9501269 0 0)
(0.94435299 0 0)
(0.93784734 0 0)
(1.0016808 0 0)
(1.0015061 0 0)
(1.0009879 0 0)
(1.0001364 0 0)
(0.99895998 0 0)
(0.99746501 0 0)
(0.99565631 0 0)
(0.99353788 0 0)
(0.99111246 0 0)
(0.98838224 0 0)
(0.98534841 0 0)
(0.98201189 0 0)
(0.97837279 0 0)
(0.97443107 0 0)
(0.97018603 0 0)
(0.96563676 0 0)
(0.96078184 0 0)
(0.95561961 0 0)
(0.95014804 0 0)
(0.94436854 0 0)
(0.93790762 0 0)
(1.0016808 0 0)
(1.0015065 0 0)
(1.0009894 0 0)
(1.0001396 0 0)
(0.99896537 0 0)
(0.99747284 0 0)
(0.9956669 0 0)
(0.99355129 0 0)
(0.9911288 0 0)
(0.98840144 0 0)
(0.98537043 0 0)
(0.98203651 0 0)
(0.97839978 0 0)
(0.97446004 0 0)
(0.97021649 0 0)
(0.96566805 0 0)
(0.96081313 0 0)
(0.95564994 0 0)
(0.9501761 0 0)
(0.94439215 0 0)
(0.93798792 0 0)
(1.0016808 0 0)
(1.001507 0 0)
(1.0009912 0 0)
(1.0001435 0 0)
(0.99897174 0 0)
(0.99748211 0 0)
(0.99567929 0 0)
(0.99356698 0 0)
(0.99114787 0 0)
(0.9884239 0 0)
(0.98539622 0 0)
(0.9820655 0 0)
(0.97843179 0 0)
(0.97449481 0 0)
(0.97025364 0 0)
(0.96570715 0 0)
(0.96085367 0 0)
(0.95569124 0 0)
(0.95021737 0 0)
(0.94443153 0 0)
(0.93809665 0 0)
(1.0016808 0 0)
(1.0015076 0 0)
(1.0009934 0 0)
(1.0001481 0 0)
(0.99897934 0 0)
(0.99749313 0 0)
(0.99569405 0 0)
(0.9935857 0 0)
(0.9911707 0 0)
(0.98845092 0 0)
(0.98542746 0 0)
(0.98210095 0 0)
(0.97847139 0 0)
(0.97453847 0 0)
(0.9703013 0 0)
(0.96575872 0 0)
(0.96090909 0 0)
(0.95575053 0 0)
(0.95028063 0 0)
(0.94449801 0 0)
(0.93824691 0 0)
(1.0016808 0 0)
(1.0015083 0 0)
(1.0009961 0 0)
(1.0001536 0 0)
(0.9989884 0 0)
(0.99750626 0 0)
(0.99571169 0 0)
(0.99360815 0 0)
(0.99119824 0 0)
(0.98848373 0 0)
(0.98546571 0 0)
(0.98214474 0 0)
(0.9785209 0 0)
(0.97459388 0 0)
(0.97036284 0 0)
(0.96582672 0 0)
(0.96098415 0 0)
(0.95583366 0 0)
(0.95037364 0 0)
(0.94460553 0 0)
(0.93846768 0 0)
(0.92969244 0 0)
(0.92063996 0 0)
(0.91112591 0 0)
(0.90115375 0 0)
(0.89073335 0 0)
(0.87987521 0 0)
(0.8685906 0 0)
(0.85689307 0 0)
(0.84480081 0 0)
(0.83233402 0 0)
(0.81951213 0 0)
(0.80635459 0 0)
(0.79288082 0 0)
(0.77910505 0 0)
(0.76503979 0 0)
(0.75070085 0 0)
(0.73609911 0 0)
(0.72124639 0 0)
(0.70615313 0 0)
(0.69082421 0 0)
(0.67525496 0 0)
(0.65944304 0 0)
(0.64339455 0 0)
(0.62711653 0 0)
(0.61059582 0 0)
(0.59379112 0 0)
(0.5766921 0 0)
(0.55930484 0 0)
(0.54162068 0 0)
(0.52359543 0 0)
(0.5051851 0 0)
(0.48637998 0 0)
(0.46714992 0 0)
(0.44743345 0 0)
(0.4271972 0 0)
(0.40640426 0 0)
(0.38501057 0 0)
(0.36293662 0 0)
(0.34002293 0 0)
(0.31620491 0 0)
(0.29159218 0 0)
(0.26598949 0 0)
(0.23903303 0 0)
(0.21064873 0 0)
(0.18078818 0 0)
(0.14927601 0 0)
(0.11578987 0 0)
(0.079995064 0 0)
(0.041486281 0 0)
(0 0 0)
(0.92975528 0 0)
(0.92072187 0 0)
(0.91122436 0 0)
(0.90126598 0 0)
(0.89085633 0 0)
(0.88000571 0 0)
(0.8687254 0 0)
(0.85702885 0 0)
(0.84493408 0 0)
(0.83246185 0 0)
(0.81963265 0 0)
(0.80646722 0 0)
(0.79298496 0 0)
(0.77919954 0 0)
(0.76512318 0 0)
(0.75077214 0 0)
(0.73615902 0 0)
(0.72129577 0 0)
(0.70619274 0 0)
(0.69085458 0 0)
(0.67527629 0 0)
(0.65945496 0 0)
(0.64339748 0 0)
(0.62711093 0 0)
(0.61058074 0 0)
(0.59376881 0 0)
(0.57666455 0 0)
(0.5592726 0 0)
(0.5415836 0 0)
(0.5235538 0 0)
(0.50513921 0 0)
(0.48633047 0 0)
(0.46709766 0 0)
(0.44737742 0 0)
(0.4271397 0 0)
(0.40634626 0 0)
(0.38495329 0 0)
(0.36288193 0 0)
(0.33997155 0 0)
(0.31615526 0 0)
(0.29154456 0 0)
(0.26594628 0 0)
(0.23899482 0 0)
(0.21061595 0 0)
(0.18076041 0 0)
(0.14925266 0 0)
(0.11577114 0 0)
(0.079982322 0 0)
(0.041480595 0 0)
(0 0 0)
(0.9297908 0 0)
(0.92081867 0 0)
(0.9113774 0 0)
(0.9014698 0 0)
(0.89110505 0 0)
(0.88029326 0 0)
(0.8690458 0 0)
(0.85737634 0 0)
(0.84530286 0 0)
(0.83284669 0 0)
(0.82002974 0 0)
(0.80687326 0 0)
(0.79339626 0 0)
(0.77961244 0 0)
(0.76553418 0 0)
(0.75117759 0 0)
(0.73655739 0 0)
(0.72168667 0 0)
(0.7065752 0 0)
(0.69122722 0 0)
(0.6756381 0 0)
(0.65980512 0 0)
(0.64373541 0 0)
(0.62743549 0 0)
(0.61089054 0 0)
(0.59406566 0 0)
(0.57694871 0 0)
(0.55954432 0 0)
(0.54184349 0 0)
(0.52380173 0 0)
(0.50537397 0 0)
(0.48655245 0 0)
(0.46730844 0 0)
(0.44757488 0 0)
(0.42732514 0 0)
(0.40652127 0 0)
(0.3851187 0 0)
(0.36303868 0 0)
(0.34012013 0 0)
(0.31629457 0 0)
(0.29167293 0 0)
(0.26606329 0 0)
(0.23910059 0 0)
(0.21071123 0 0)
(0.18084437 0 0)
(0.14932258 0 0)
(0.11582494 0 0)
(0.080020311 0 0)
(0.041501627 0 0)
(0 0 0)
(0.92988667 0 0)
(0.92101872 0 0)
(0.91167369 0 0)
(0.90185384 0 0)
(0.89156768 0 0)
(0.88082503 0 0)
(0.86963762 0 0)
(0.85801956 0 0)
(0.84598927 0 0)
(0.83356905 0 0)
(0.82078181 0 0)
(0.80764893 0 0)
(0.79418901 0 0)
(0.78041577 0 0)
(0.766342 0 0)
(0.75198438 0 0)
(0.73735897 0 0)
(0.72248039 0 0)
(0.70735896 0 0)
(0.69199829 0 0)
(0.67639394 0 0)
(0.66054369 0 0)
(0.64445541 0 0)
(0.6281352 0 0)
(0.6115676 0 0)
(0.59472094 0 0)
(0.57758207 0 0)
(0.56015541 0 0)
(0.54243268 0 0)
(0.52436875 0 0)
(0.50591752 0 0)
(0.48707238 0 0)
(0.46780578 0 0)
(0.44804775 0 0)
(0.42777449 0 0)
(0.40694765 0 0)
(0.38552287 0 0)
(0.36342197 0 0)
(0.34048267 0 0)
(0.31663431 0 0)
(0.29198687 0 0)
(0.26634961 0 0)
(0.23935863 0 0)
(0.21094137 0 0)
(0.18104548 0 0)
(0.1494903 0 0)
(0.11595478 0 0)
(0.080111126 0 0)
(0.041550408 0 0)
(0 0 0)
(0.93003995 0 0)
(0.92131917 0 0)
(0.91211044 0 0)
(0.90241549 0 0)
(0.89224185 0 0)
(0.88159916 0 0)
(0.8704991 0 0)
(0.85895654 0 0)
(0.84699149 0 0)
(0.83462731 0 0)
(0.82188746 0 0)
(0.8087931 0 0)
(0.79536212 0 0)
(0.78160872 0 0)
(0.76754635 0 0)
(0.75319185 0 0)
(0.73856331 0 0)
(0.72367696 0 0)
(0.70854375 0 0)
(0.693167 0 0)
(0.67754303 0 0)
(0.66167023 0 0)
(0.64555662 0 0)
(0.62920842 0 0)
(0.61261073 0 0)
(0.59573363 0 0)
(0.57856279 0 0)
(0.56110393 0 0)
(0.54334955 0 0)
(0.5252532 0 0)
(0.50676744 0 0)
(0.48788761 0 0)
(0.46858756 0 0)
(0.44879363 0 0)
(0.42848483 0 0)
(0.4076234 0 0)
(0.3861641 0 0)
(0.36402928 0 0)
(0.34105627 0 0)
(0.31717239 0 0)
(0.29248474 0 0)
(0.266803 0 0)
(0.23976669 0 0)
(0.21130486 0 0)
(0.18136271 0 0)
(0.14975472 0 0)
(0.11615966 0 0)
(0.080254233 0 0)
(0.04162659 0 0)
(0 0 0)
(0.9302473 0 0)
(0.92171648 0 0)
(0.91268424 0 0)
(0.90315148 0 0)
(0.893125 0 0)
(0.88261376 0 0)
(0.87162933 0 0)
(0.86018767 0 0)
(0.84831031 0 0)
(0.83602233 0 0)
(0.82334799 0 0)
(0.81030745 0 0)
(0.79691738 0 0)
(0.78319285 0 0)
(0.76914861 0 0)
(0.75480167 0 0)
(0.74017173 0 0)
(0.72527734 0 0)
(0.7101304 0 0)
(0.69473419 0 0)
(0.67908567 0 0)
(0.66318415 0 0)
(0.64703824 0 0)
(0.63065447 0 0)
(0.61401836 0 0)
(0.59710159 0 0)
(0.57988946 0 0)
(0.56238817 0 0)
(0.5445913 0 0)
(0.52645188 0 0)
(0.5079212 0 0)
(0.48899565 0 0)
(0.46965031 0 0)
(0.44980944 0 0)
(0.42945372 0 0)
(0.40854522 0 0)
(0.38703867 0 0)
(0.36485751 0 0)
(0.34183807 0 0)
(0.3179054 0 0)
(0.29316281 0 0)
(0.26742046 0 0)
(0.24032257 0 0)
(0.21179951 0 0)
(0.18179376 0 0)
(0.15011412 0 0)
(0.11643833 0 0)
(0.080448483 0 0)
(0.041729562 0 0)
(0 0 0)
(0.93050779 0 0)
(0.92220887 0 0)
(0.91339288 0 0)
(0.90405954 0 0)
(0.89421504 0 0)
(0.88386772 0 0)
(0.87302905 0 0)
(0.86171512 0 0)
(0.84994865 0 0)
(0.83775705 0 0)
(0.82516633 0 0)
(0.81219533 0 0)
(0.79885827 0 0)
(0.78517148 0 0)
(0.77115164 0 0)
(0.75681632 0 0)
(0.74218685 0 0)
(0.72728392 0 0)
(0.71212067 0 0)
(0.69670079 0 0)
(0.68102259 0 0)
(0.66508606 0 0)
(0.64890013 0 0)
(0.63247247 0 0)
(0.61578948 0 0)
(0.59882337 0 0)
(0.58155962 0 0)
(0.5640056 0 0)
(0.5461556 0 0)
(0.52796192 0 0)
(0.50937511 0 0)
(0.49039284 0 0)
(0.47099068 0 0)
(0.45109108 0 0)
(0.43067694 0 0)
(0.4097098 0 0)
(0.38814327 0 0)
(0.36590228 0 0)
(0.34282363 0 0)
(0.31882971 0 0)
(0.29401765 0 0)
(0.26819828 0 0)
(0.24102289 0 0)
(0.21242271 0 0)
(0.18233662 0 0)
(0.15056647 0 0)
(0.11678909 0 0)
(0.080692871 0 0)
(0.041858724 0 0)
(0 0 0)
(0.93082828 0 0)
(0.92280182 0 0)
(0.91424069 0 0)
(0.90514325 0 0)
(0.89551499 0 0)
(0.88536418 0 0)
(0.87470214 0 0)
(0.86354415 0 0)
(0.85191199 0 0)
(0.83983652 0 0)
(0.82734875 0 0)
(0.8144634 0 0)
(0.80118983 0 0)
(0.78754847 0 0)
(0.77355917 0 0)
(0.75923938 0 0)
(0.74461154 0 0)
(0.72969909 0 0)
(0.71451689 0 0)
(0.69906868 0 0)
(0.68335457 0 0)
(0.667376 0 0)
(0.6511421 0 0)
(0.63466186 0 0)
(0.61792241 0 0)
(0.60089692 0 0)
(0.58357144 0 0)
(0.56595365 0 0)
(0.5480388 0 0)
(0.52977955 0 0)
(0.51112571 0 0)
(0.49207531 0 0)
(0.47260421 0 0)
(0.45263434 0 0)
(0.43215044 0 0)
(0.41111247 0 0)
(0.38947305 0 0)
(0.36715912 0 0)
(0.34400833 0 0)
(0.31994037 0 0)
(0.29504423 0 0)
(0.26913229 0 0)
(0.24186433 0 0)
(0.21317133 0 0)
(0.18298827 0 0)
(0.15110941 0 0)
(0.11721007 0 0)
(0.080985819 0 0)
(0.042013254 0 0)
(0 0 0)
(0.93122155 0 0)
(0.92350635 0 0)
(0.91523735 0 0)
(0.90641117 0 0)
(0.89703205 0 0)
(0.88711015 0 0)
(0.87665779 0 0)
(0.86568614 0 0)
(0.85421505 0 0)
(0.84227688 0 0)
(0.82990434 0 0)
(0.81711411 0 0)
(0.80391608 0 0)
(0.7903303 0 0)
(0.7763779 0 0)
(0.76207723 0 0)
(0.7474514 0 0)
(0.73252776 0 0)
(0.71732264 0 0)
(0.70183936 0 0)
(0.68608216 0 0)
(0.6700542 0 0)
(0.65376363 0 0)
(0.6372211 0 0)
(0.62041543 0 0)
(0.60332021 0 0)
(0.58592195 0 0)
(0.56822885 0 0)
(0.55023726 0 0)
(0.53190059 0 0)
(0.51316817 0 0)
(0.49403801 0 0)
(0.47448598 0 0)
(0.45443362 0 0)
(0.43386855 0 0)
(0.41274848 0 0)
(0.39102333 0 0)
(0.36862241 0 0)
(0.3453863 0 0)
(0.32123207 0 0)
(0.29623761 0 0)
(0.27021762 0 0)
(0.24284262 0 0)
(0.21404192 0 0)
(0.18374589 0 0)
(0.15174027 0 0)
(0.11769903 0 0)
(0.081325872 0 0)
(0.042192321 0 0)
(0 0 0)
(0.93172678 0 0)
(0.92436208 0 0)
(0.91642187 0 0)
(0.90790158 0 0)
(0.89880733 0 0)
(0.88915114 0 0)
(0.87893953 0 0)
(0.86817998 0 0)
(0.85689457 0 0)
(0.84511259 0 0)
(0.8328656 0 0)
(0.82018003 0 0)
(0.80706906 0 0)
(0.7935474 0 0)
(0.77963676 0 0)
(0.76535662 0 0)
(0.75072966 0 0)
(0.73578799 0 0)
(0.72055194 0 0)
(0.70502656 0 0)
(0.68921905 0 0)
(0.673132 0 0)
(0.65677333 0 0)
(0.64015715 0 0)
(0.62327371 0 0)
(0.60609716 0 0)
(0.58861426 0 0)
(0.57083285 0 0)
(0.55275072 0 0)
(0.5343237 0 0)
(0.51550087 0 0)
(0.49627863 0 0)
(0.47663245 0 0)
(0.45648536 0 0)
(0.43582756 0 0)
(0.41461348 0 0)
(0.39278943 0 0)
(0.37028735 0 0)
(0.34695252 0 0)
(0.3226995 0 0)
(0.29759254 0 0)
(0.27144984 0 0)
(0.24395407 0 0)
(0.21503111 0 0)
(0.1846061 0 0)
(0.1524563 0 0)
(0.1182539 0 0)
(0.081711305 0 0)
(0.042394954 0 0)
(0 0 0)
(0.93066901 0 0)
(0.92364888 0 0)
(0.91604082 0 0)
(0.90783969 0 0)
(0.89905509 0 0)
(0.88969255 0 0)
(0.87974892 0 0)
(0.86923586 0 0)
(0.85817907 0 0)
(0.84660208 0 0)
(0.83453401 0 0)
(0.82200606 0 0)
(0.80903302 0 0)
(0.79562804 0 0)
(0.78181285 0 0)
(0.76760741 0 0)
(0.75303591 0 0)
(0.7381324 0 0)
(0.72292016 0 0)
(0.70740781 0 0)
(0.69160168 0 0)
(0.6755035 0 0)
(0.65912523 0 0)
(0.64248359 0 0)
(0.62556841 0 0)
(0.60835435 0 0)
(0.59082826 0 0)
(0.572998 0 0)
(0.55486334 0 0)
(0.53638216 0 0)
(0.51750323 0 0)
(0.49822128 0 0)
(0.47851244 0 0)
(0.45830004 0 0)
(0.4375756 0 0)
(0.41629333 0 0)
(0.39439397 0 0)
(0.37181314 0 0)
(0.34840022 0 0)
(0.32406791 0 0)
(0.29886432 0 0)
(0.27261533 0 0)
(0.24501383 0 0)
(0.21598139 0 0)
(0.18543823 0 0)
(0.15315403 0 0)
(0.11879858 0 0)
(0.082093246 0 0)
(0.042600287 0 0)
(0 0 0)
(0.92969244 0 0)
(0.92063996 0 0)
(0.91112591 0 0)
(0.90115375 0 0)
(0.89073335 0 0)
(0.87987521 0 0)
(0.8685906 0 0)
(0.85689307 0 0)
(0.84480081 0 0)
(0.83233402 0 0)
(0.81951213 0 0)
(0.80635459 0 0)
(0.79288082 0 0)
(0.77910505 0 0)
(0.76503979 0 0)
(0.75070085 0 0)
(0.73609911 0 0)
(0.72124639 0 0)
(0.70615313 0 0)
(0.69082421 0 0)
(0.67525496 0 0)
(0.65944304 0 0)
(0.64339455 0 0)
(0.62711653 0 0)
(0.61059582 0 0)
(0.59379112 0 0)
(0.5766921 0 0)
(0.55930484 0 0)
(0.54162068 0 0)
(0.52359543 0 0)
(0.5051851 0 0)
(0.48637998 0 0)
(0.46714992 0 0)
(0.44743345 0 0)
(0.4271972 0 0)
(0.40640426 0 0)
(0.38501057 0 0)
(0.36293662 0 0)
(0.34002293 0 0)
(0.31620491 0 0)
(0.29159218 0 0)
(0.26598949 0 0)
(0.23903303 0 0)
(0.21064873 0 0)
(0.18078818 0 0)
(0.14927601 0 0)
(0.11578987 0 0)
(0.079995064 0 0)
(0.041486281 0 0)
(0 0 0)
(0.92975528 0 0)
(0.92072187 0 0)
(0.91122436 0 0)
(0.90126598 0 0)
(0.89085633 0 0)
(0.88000571 0 0)
(0.8687254 0 0)
(0.85702885 0 0)
(0.84493408 0 0)
(0.83246185 0 0)
(0.81963265 0 0)
(0.80646722 0 0)
(0.79298496 0 0)
(0.77919954 0 0)
(0.76512318 0 0)
(0.75077214 0 0)
(0.73615902 0 0)
(0.72129577 0 0)
(0.70619274 0 0)
(0.69085458 0 0)
(0.67527629 0 0)
(0.65945496 0 0)
(0.64339748 0 0)
(0.62711093 0 0)
(0.61058074 0 0)
(0.59376881 0 0)
(0.57666455 0 0)
(0.5592726 0 0)
(0.5415836 0 0)
(0.5235538 0 0)
(0.50513921 0 0)
(0.48633047 0 0)
(0.46709766 0 0)
(0.44737742 0 0)
(0.4271397 0 0)
(0.40634626 0 0)
(0.38495329 0 0)
(0.36288193 0 0)
(0.33997155 0 0)
(0.31615526 0 0)
(0.29154456 0 0)
(0.26594628 0 0)
(0.23899482 0 0)
(0.21061595 0 0)
(0.18076041 0 0)
(0.14925266 0 0)
(0.11577114 0 0)
(0.079982322 0 0)
(0.041480595 0 0)
(0 0 0)
(0.9297908 0 0)
(0.92081867 0 0)
(0.9113774 0 0)
(0.9014698 0 0)
(0.89110505 0 0)
(0.88029326 0 0)
(0.8690458 0 0)
(0.85737634 0 0)
(0.84530286 0 0)
(0.83284669 0 0)
(0.82002974 0 0)
(0.80687326 0 0)
(0.79339626 0 0)
(0.77961244 0 0)
(0.76553418 0 0)
(0.75117759 0 0)
(0.73655739 0 0)
(0.72168667 0 0)
(0.7065752 0 0)
(0.69122722 0 0)
(0.6756381 0 0)
(0.65980512 0 0)
(0.64373541 0 0)
(0.62743549 0 0)
(0.61089054 0 0)
(0.59406566 0 0)
(0.57694871 0 0)
(0.55954432 0 0)
(0.54184349 0 0)
(0.52380173 0 0)
(0.50537397 0 0)
(0.48655245 0 0)
(0.46730844 0 0)
(0.44757488 0 0)
(0.42732514 0 0)
(0.40652127 0 0)
(0.3851187 0 0)
(0.36303868 0 0)
(0.34012013 0 0)
(0.31629457 0 0)
(0.29167293 0 0)
(0.26606329 0 0)
(0.23910059 0 0)
(0.21071123 0 0)
(0.18084437 0 0)
(0.14932258 0 0)
(0.11582494 0 0)
(0.080020311 0 0)
(0.041501627 0 0)
(0 0 0)
(0.92988667 0 0)
(0.92101872 0 0)
(0.91167369 0 0)
(0.90185384 0 0)
(0.89156768 0 0)
(0.88082503 0 0)
(0.86963762 0 0)
(0.85801956 0 0)
(0.84598927 0 0)
(0.83356905 0 0)
(0.82078181 0 0)
(0.80764893 0 0)
(0.79418901 0 0)
(0.78041577 0 0)
(0.766342 0 0)
(0.75198438 0 0)
(0.73735897 0 0)
(0.72248039 0 0)
(0.70735896 0 0)
(0.69199829 0 0)
(0.67639394 0 0)
(0.66054369 0 0)
(0.64445541 0 0)
(0.6281352 0 0)
(0.6115676 0 0)
(0.59472094 0 0)
(0.57758207 0 0)
(0.56015541 0 0)
(0.54243268 0 0)
(0.52436875 0 0)
(0.50591752 0 0)
(0.48707238 0 0)
(0.46780578 0 0)
(0.44804775 0 0)
(0.42777449 0 0)
(0.40694765 0 0)
(0.38552287 0 0)
(0.36342197 0 0)
(0.34048267 0 0)
(0.31663431 0 0)
(0.29198687 0 0)
(0.26634961 0 0)
(0.23935863 0 0)
(0.21094137 0 0)
(0.18104548 0 0)
(0.1494903 0 0)
(0.11595478 0 0)
(0.080111126 0 0)
(0.041550408 0 0)
(0 0 0)
(0.93003995 0 0)
(0.92131917 0 0)
(0.91211044 0 0)
(0.90241549 0 0)
(0.89224185 0 0)
(0.88159916 0 0)
(0.8704991 0 0)
(0.85895654 0 0)
(0.84699149 0 0)
(0.83462731 0 0)
(0.82188746 0 0)
(0.8087931 0 0)
(0.79536212 0 0)
(0.78160872 0 0)
(0.76754635 0 0)
(0.75319185 0 0)
(0.73856331 0 0)
(0.72367696 0 0)
(0.70854375 0 0)
(0.693167 0 0)
(0.67754303 0 0)
(0.66167023 0 0)
(0.64555662 0 0)
(0.62920842 0 0)
(0.61261073 0 0)
(0.59573363 0 0)
(0.57856279 0 0)
(0.56110393 0 0)
(0.54334955 0 0)
(0.5252532 0 0)
(0.50676744 0 0)
(0.48788761 0 0)
(0.46858756 0 0)
(0.44879363 0 0)
(0.42848483 0 0)
(0.4076234 0 0)
(0.3861641 0 0)
(0.36402928 0 0)
(0.34105627 0 0)
(0.31717239 0 0)
(0.29248474 0 0)
(0.266803 0 0)
(0.23976669 0 0)
(0.21130486 0 0)
(0.18136271 0 0)
(0.14975472 0 0)
(0.11615966 0 0)
(0.080254233 0 0)
(0.04162659 0 0)
(0 0 0)
(0.9302473 0 0)
(0.92171648 0 0)
(0.91268424 0 0)
(0.90315148 0 0)
(0.893125 0 0)
(0.88261376 0 0)
(0.87162933 0 0)
(0.86018767 0 0)
(0.84831031 0 0)
(0.83602233 0 0)
(0.82334799 0 0)
(0.81030745 0 0)
(0.79691738 0 0)
(0.78319285 0 0)
(0.76914861 0 0)
(0.75480167 0 0)
(0.74017173 0 0)
(0.72527734 0 0)
(0.7101304 0 0)
(0.69473419 0 0)
(0.67908567 0 0)
(0.66318415 0 0)
(0.64703824 0 0)
(0.63065447 0 0)
(0.61401836 0 0)
(0.59710159 0 0)
(0.57988946 0 0)
(0.56238817 0 0)
(0.5445913 0 0)
(0.52645188 0 0)
(0.5079212 0 0)
(0.48899565 0 0)
(0.46965031 0 0)
(0.44980944 0 0)
(0.42945372 0 0)
(0.40854522 0 0)
(0.38703867 0 0)
(0.36485751 0 0)
(0.34183807 0 0)
(0.3179054 0 0)
(0.29316281 0 0)
(0.26742046 0 0)
(0.24032257 0 0)
(0.21179951 0 0)
(0.18179376 0 0)
(0.15011412 0 0)
(0.11643833 0 0)
(0.080448483 0 0)
(0.041729562 0 0)
(0 0 0)
(0.93050779 0 0)
(0.92220887 0 0)
(0.91339288 0 0)
(0.90405954 0 0)
(0.89421504 0 0)
(0.88386772 0 0)
(0.87302905 0 0)
(0.86171512 0 0)
(0.84994865 0 0)