/*--------------------------------*- C++ -*----------------------------------*\
| =========                 |                                                 |
| \\      /  F ield         | OpenFOAM: The Open Source CFD Toolbox           |
|  \\    /   O peration     | Version:  v2012                                 |
|   \\  /    A nd           | Website:  www.openfoam.com                      |
|    \\/     M anipulation  |                                                 |
\*---------------------------------------------------------------------------*/
FoamFile
{
    version     2.0;
    format      ascii;
    class       surfaceVectorField;
    location    "98.904147998564369";
    object      Uf;
}
// * * * * * * * * * * * * * * * * * * * * * * * * * * * * * * * * * * * * * //

dimensions      [0 1 -1 0 0 0 0];


internalField   nonuniform List<vector> 
18180
(
(2.612402 -0.0021232599 -2.4449759e-21)
(2.6136487 -0.00076611244 -2.2621194e-21)
(2.6134852 -0.0042058431 -1.2534253e-22)
(2.6145524 -0.0030514929 -1.2654512e-23)
(2.6152531 -0.0017980127 1.9545579e-22)
(2.6151426 -0.00058922864 2.7939545e-21)
(2.615035 -0.0062547907 -1.4095186e-21)
(2.6159788 -0.0047212333 1.9583207e-21)
(2.6165023 -0.0036041432 2.0947815e-21)
(2.6161569 -0.0026057583 9.1993715e-21)
(2.6162818 -0.0014930512 1.1804487e-20)
(2.6163399 -0.00042620995 6.6509033e-21)
(2.6169117 -0.0083612173 3.245003e-21)
(2.6179284 -0.0068944532 5.9953401e-22)
(2.6183251 -0.0054696587 3.8285078e-21)
(2.6177506 -0.0040018172 -2.0334681e-21)
(2.617667 -0.0030225213 4.6464569e-21)
(2.6174682 -0.0020786834 6.4778035e-21)
(2.6174769 -0.0010913357 1.501126e-21)
(2.6171846 -0.00025080882 -6.9574924e-21)
(2.6189654 -0.010528601 -7.1306655e-22)
(2.6201343 -0.0089093235 5.1808636e-21)
(2.6205868 -0.0075049176 2.6989002e-21)
(2.6199949 -0.0060094433 5.3803018e-21)
(2.619713 -0.0046509771 -1.5894023e-22)
(2.6192431 -0.0031588478 -1.9719386e-21)
(2.6190128 -0.0022290841 -3.3587438e-22)
(2.6184095 -0.0014269317 -2.7503565e-21)
(2.6181528 -0.00063705047 -1.0848595e-20)
(2.6176604 -3.9761796e-05 -8.1367605e-21)
(2.6210429 -0.012787281 -7.6237946e-21)
(2.622524 -0.011282512 -1.3170355e-20)
(2.6231128 -0.0097638549 -7.7671981e-21)
(2.6225865 -0.0079230925 1.9577458e-21)
(2.6223101 -0.0064808888 4.4918098e-21)
(2.6217879 -0.0048746292 -1.5550241e-21)
(2.6213063 -0.0034897776 -3.2984229e-21)
(2.6203578 -0.0021007757 2.7822314e-21)
(2.6198105 -0.0013107777 5.3794854e-22)
(2.6189472 -0.00070577649 -2.2943434e-21)
(2.6184743 -0.00013021067 4.1381314e-22)
(2.6177542 0.00019793517 4.1975542e-21)
(2.6229838 -0.015124971 5.5236683e-21)
(2.6248584 -0.013743938 -9.1929546e-22)
(2.625746 -0.012313949 -6.0819019e-21)
(2.6254837 -0.01032971 -1.3029629e-22)
(2.6252943 -0.0085955671 9.2205199e-21)
(2.6248016 -0.0065204304 7.1593781e-21)
(2.6242754 -0.0049657808 1.4588738e-21)
(2.623183 -0.0033968329 2.3236899e-21)
(2.6223168 -0.0021041484 8.1852833e-21)
(2.6210342 -0.00090459522 -3.05681e-22)
(2.6202155 -0.00030844394 -3.0074334e-21)
(2.6190841 3.8015407e-05 -6.0357532e-21)
(2.6183993 0.00036724353 -2.5425269e-21)
(2.6174987 0.00040705993 2.2160634e-21)
(2.6246445 -0.017531007 1.005147e-20)
(2.6270174 -0.016500562 1.1857543e-20)
(2.6283027 -0.015205442 5.8356658e-21)
(2.6284468 -0.012982893 1.6491845e-21)
(2.628532 -0.011083441 7.423965e-21)
(2.6282701 -0.0087153732 1.1776105e-20)
(2.6277784 -0.006751986 9.8586808e-21)
(2.6266065 -0.0046137864 -4.7863852e-21)
(2.6256101 -0.0030905765 -4.0622955e-21)
(2.6240818 -0.0016815801 4.4644969e-21)
(2.622871 -0.00056234136 -3.6561419e-21)
(2.6212421 0.00035228902 -8.7058429e-21)
(2.6201713 0.00069625184 -1.1669815e-20)
(2.6188387 0.00075344287 -8.9172874e-21)
(2.617979 0.00081717491 -4.4971819e-21)
(2.61695 0.00057978187 1.0172593e-20)
(2.6258736 -0.019966126 3.3864467e-21)
(2.6287989 -0.019449735 5.496841e-21)
(2.630613 -0.018485737 7.1389396e-21)
(2.6313701 -0.016142122 7.9644795e-21)
(2.6318629 -0.014032449 4.0242918e-21)
(2.6319783 -0.011227864 5.6256405e-21)
(2.6317129 -0.0089540485 9.7304202e-21)
(2.6306493 -0.0063853159 1.5312234e-22)
(2.6295847 -0.0043562879 -1.3904637e-20)
(2.6278394 -0.0023281742 -1.3515221e-20)
(2.6263998 -0.0009552852 -5.565967e-21)
(2.6244256 0.00015401512 -9.5556794e-21)
(2.6228887 0.0010096934 -1.4442344e-20)
(2.6209912 0.0015704663 -2.3801091e-21)
(2.6197257 0.0016357998 3.7754611e-22)
(2.6182505 0.0013934004 1.1600822e-20)
(2.6172684 0.001201925 2.5779164e-20)
(2.6161712 0.00072881952 1.1916054e-20)
(2.6265307 -0.022378272 -1.486406e-21)
(2.6300383 -0.02264933 -7.8617452e-22)
(2.6324784 -0.022186876 1.1529631e-21)
(2.6340503 -0.019766779 6.2373116e-22)
(2.6351395 -0.017532491 1.306071e-21)
(2.635852 -0.014357445 4.9891278e-21)
(2.6359541 -0.011685452 6.5248128e-21)
(2.6351339 -0.0084812834 9.9783205e-22)
(2.6341787 -0.0060089701 -8.2325014e-21)
(2.6323707 -0.0034725343 -4.4531167e-21)
(2.6307307 -0.0015436241 -3.9373237e-21)
(2.62839 0.00017145529 -4.4040355e-23)
(2.6265292 0.0012583483 -3.7473004e-21)
(2.6242114 0.0019607943 -9.6972414e-21)
(2.6224142 0.0024814443 1.829488e-21)
(2.6203406 0.0026607467 1.0143039e-21)
(2.6189384 0.0024428583 1.1680838e-20)
(2.6173903 0.0019178997 1.6266059e-20)
(2.6163432 0.001506374 2.9558492e-21)
(2.6152295 0.00084605605 -1.9600436e-20)
(2.6264839 -0.024685805 -2.4752443e-21)
(2.6305381 -0.026037479 1.0725078e-21)
(2.6336982 -0.026328422 1.7772671e-21)
(2.6363219 -0.023970619 5.9370796e-22)
(2.6381881 -0.021668084 8.2408681e-23)
(2.6397131 -0.018107812 -1.6332594e-21)
(2.6403929 -0.015070839 1.8184237e-21)
(2.6400344 -0.011229005 5.1807419e-22)
(2.6393171 -0.0081678732 -4.823586e-21)
(2.6375387 -0.0048682891 -6.033647e-21)
(2.635845 -0.0024204927 -2.411567e-21)
(2.6332491 -0.00019540355 8.2848375e-21)
(2.6310442 0.0014385528 1.2170623e-20)
(2.6282219 0.0026692166 1.1057506e-20)
(2.6260271 0.0033682457 5.6372939e-21)
(2.6234808 0.0035959939 3.5864431e-21)
(2.6215147 0.0037492142 2.8403436e-21)
(2.6193716 0.0035524568 1.8306459e-21)
(2.6178994 0.0030675511 6.032481e-21)
(2.6163462 0.0023012711 -1.1362371e-20)
(2.6152836 0.0017133367 -3.3000871e-20)
(2.6141958 0.00091631104 -1.6987044e-20)
(2.6256214 -0.026801301 -1.8974175e-21)
(2.6301446 -0.029584844 -2.1059033e-21)
(2.6340822 -0.030917394 1.2688431e-21)
(2.6379831 -0.028767945 4.0606811e-21)
(2.6408356 -0.026524322 2.9708879e-21)
(2.6434324 -0.022637941 2.1517683e-21)
(2.6448967 -0.019240746 5.5476408e-22)
(2.645222 -0.014657349 -5.1722631e-21)
(2.6449492 -0.010974199 -6.5158093e-21)
(2.6433776 -0.0068472637 -2.0950658e-21)
(2.6417199 -0.0036861796 -3.2022932e-21)
(2.6388956 -0.00066810836 -1.5655714e-21)
(2.6364523 0.0014857782 8.602969e-21)
(2.6331972 0.0031490344 3.7764236e-21)
(2.6305259 0.0043218754 2.5896343e-21)
(2.6273807 0.0049523151 1.0843329e-21)
(2.6249662 0.0052005654 -9.3139989e-22)
(2.6223288 0.0049412899 7.8694661e-21)
(2.6202952 0.0047323904 6.9883426e-21)
(2.6181805 0.0041995123 1.5880681e-20)
(2.6167039 0.0034846059 -4.8380143e-22)
(2.6152034 0.002533628 -1.2432281e-20)
(2.6141663 0.0018161818 3.0901778e-21)
(2.6131386 0.00093884436 1.7199978e-20)
(2.6238142 -0.028603971 -5.4278882e-21)
(2.6286638 -0.033241356 2.8886435e-22)
(2.6334204 -0.035955204 1.2491911e-22)
(2.6388845 -0.034220272 2.445232e-21)
(2.6429121 -0.032178516 5.1134858e-21)
(2.6468361 -0.028038838 6.2912185e-21)
(2.6493307 -0.02433146 5.5656594e-21)
(2.6506245 -0.018967563 3.7737436e-21)
(2.6510055 -0.014585269 -1.6146559e-21)
(2.649823 -0.009440529 -2.3528975e-21)
(2.6483718 -0.0054733501 1.9080409e-21)
(2.645428 -0.0015523285 -1.5972053e-21)
(2.6427736 0.0013484864 -1.9099825e-23)
(2.6390306 0.0037193751 4.3226376e-21)
(2.6359493 0.0053396436 -3.2735389e-22)
(2.6322362 0.0062517922 -9.5409142e-21)
(2.6292531 0.0068490696 -1.1155101e-20)
(2.6259808 0.0068403251 -8.32375e-21)
(2.6234771 0.0066243321 -8.2569337e-23)
(2.6208811 0.0059189153 4.7114592e-21)
(2.618874 0.005386565 1.3119405e-20)
(2.6168681 0.0045821372 5.9410742e-21)
(2.6154422 0.0036895381 -5.3042681e-21)
(2.6140373 0.0026173198 8.1600887e-21)
(2.6130585 0.0018226908 2.1635346e-20)
(2.6121148 0.00092318634 7.6101363e-21)
(2.6209377 -0.029967403 -4.0446963e-21)
(2.6258911 -0.036919463 -4.2612623e-21)
(2.6314753 -0.041409526 1.185794e-21)
(2.6387824 -0.040331356 6.7286631e-22)
(2.6442198 -0.03868933 2.8845533e-21)
(2.6497857 -0.034417811 2.1139021e-21)
(2.6535525 -0.030475139 3.1863077e-21)
(2.6561181 -0.024300612 4.1435996e-21)
(2.6574192 -0.019172643 2.4200498e-21)
(2.6568756 -0.012869543 3.7914935e-21)
(2.6558081 -0.0079361515 3.173658e-21)
(2.6528462 -0.002852356 9.4416576e-21)
(2.6500873 0.00093133824 6.230565e-21)
(2.6458818 0.0041343455 -3.2976523e-21)
(2.6423391 0.0064233407 7.7435858e-22)
(2.6379353 0.0078554244 4.0295103e-21)
(2.6344097 0.0087606307 -4.649484e-21)
(2.6304999 0.0088405007 -3.3864602e-21)
(2.6273913 0.0088229954 -5.7838083e-22)
(2.6241814 0.0082108852 -2.5958845e-22)
(2.6217158 0.0075667175 4.2897027e-21)
(2.6192723 0.0064951751 -8.868648e-22)
(2.6173688 0.0057021025 -7.918583e-21)
(2.6155286 0.0047052992 -1.4834784e-20)
(2.6141946 0.0036949235 -2.1981368e-21)
(2.612913 0.0025643113 6.9938033e-21)
(2.6120155 0.0017461814 -6.5486385e-21)
(2.6111685 0.00087696333 -1.2020715e-20)
(2.6168781 -0.03075842 8.2039376e-22)
(2.6216588 -0.040542596 -9.2012508e-22)
(2.6280334 -0.047255493 -1.0736965e-21)
(2.6374884 -0.047123106 7.4233624e-22)
(2.6445576 -0.04610925 2.4800988e-22)
(2.6520675 -0.041853749 -2.2010523e-21)
(2.6574038 -0.037790599 -3.0122619e-21)
(2.661605 -0.030812728 3.6574271e-22)
(2.6641066 -0.024920331 1.2310236e-21)
(2.6644946 -0.017300337 -4.0979969e-21)
(2.6640532 -0.011256624 -2.896571e-21)
(2.6612364 -0.0047699432 2.461643e-21)
(2.6584752 0.00012630925 8.4025417e-21)
(2.6537909 0.0044449753 7.7293899e-21)
(2.6498124 0.0075545696 -1.291129e-21)
(2.6446581 0.009600292 -5.8036877e-21)
(2.6404726 0.010994323 -2.8146674e-21)
(2.6357657 0.011337934 1.4040202e-21)
(2.6320459 0.01144653 2.6965838e-21)
(2.6282039 0.010724037 6.1999207e-21)
(2.6251525 0.010126008 6.607174e-21)
(2.622162 0.0090087277 4.3722668e-21)
(2.6198415 0.0080107995 -5.4118293e-22)
(2.6176295 0.0066758811 -1.8934071e-21)
(2.6158843 0.0056981931 -8.3669142e-21)
(2.6142426 0.0045926456 -1.5495642e-20)
(2.6130272 0.0035249257 -6.9737273e-21)
(2.6118825 0.0023937527 -1.5606383e-22)
(2.6110786 0.0016004354 -5.2529757e-21)
(2.6103315 0.00080518373 -1.1737134e-21)
(2.6115208 -0.030845129 5.4041623e-21)
(2.6157747 -0.04402898 4.2699444e-22)
(2.6228754 -0.053457561 -1.2288448e-21)
(2.634816 -0.054594439 -3.9061344e-21)
(2.6437545 -0.054486291 -2.2256535e-21)
(2.6535276 -0.050436332 -1.6377219e-21)
(2.6607156 -0.046397555 -3.9930011e-21)
(2.6669382 -0.038656481 1.0582799e-21)
(2.6709716 -0.032005397 4.3280963e-21)
(2.6726478 -0.022939232 4.760834e-21)
(2.6731171 -0.015643593 -2.4457363e-22)
(2.6706578 -0.0074623747 -1.2317897e-22)
(2.6680597 -0.0012126153 5.0069929e-21)
(2.6629233 0.0045197506 3.2169809e-21)
(2.6584981 0.0087047652 2.4993933e-21)
(2.652459 0.011610164 4.7293955e-21)
(2.6475553 0.013620293 5.3785829e-22)
(2.6419311 0.014253742 3.7366494e-21)
(2.6374456 0.014604055 7.8426838e-21)
(2.6328112 0.013874547 7.3912562e-22)
(2.6291522 0.013210774 4.0349816e-21)
(2.6256016 0.011812067 1.8556704e-21)
(2.6227586 0.010727278 -3.3862205e-22)
(2.6200955 0.0092404063 3.3176132e-21)
(2.6179961 0.0079861884 2.0933606e-21)
(2.6160596 0.00649713 6.6735896e-21)
(2.6145043 0.0054146732 1.375943e-22)
(2.6130726 0.0042803175 -3.5872017e-21)
(2.6119889 0.0032112977 2.9380731e-21)
(2.6109823 0.0021298695 -5.0825285e-21)
(2.6102746 0.0014015114 -1.2067638e-21)
(2.6096244 0.00071429574 4.0974525e-21)
(2.6047613 -0.030108806 3.6017693e-21)
(2.6080872 -0.047300083 8.6978527e-21)
(2.6157899 -0.059977911 4.0225157e-21)
(2.6305666 -0.062748284 2.7979917e-23)
(2.6416338 -0.063854006 -2.4949551e-21)
(2.6539962 -0.060220929 1.3878033e-21)
(2.6633306 -0.056386115 2.0021282e-21)
(2.6719829 -0.047972982 1.2103291e-21)
(2.6778926 -0.04060767 6.0865136e-21)
(2.681277 -0.029997099 2.6026951e-21)
(2.6830033 -0.021326046 2.9869788e-21)
(2.6811874 -0.011140455 8.452928e-22)
(2.6789691 -0.003263671 9.7740935e-22)
(2.6734275 0.0042641908 -1.3798648e-22)
(2.6685876 0.0098236069 -1.9166283e-21)
(2.6615359 0.013862913 -1.9646966e-22)
(2.6557857 0.016709531 1.8765808e-21)
(2.6490293 0.017783918 6.4321429e-21)
(2.6436588 0.018441053 9.5597469e-21)
(2.6380929 0.017647355 1.0054008e-20)
(2.6336702 0.016964128 3.3442115e-21)
(2.6294263 0.015322142 -1.2722389e-21)
(2.6260442 0.014003305 -3.4211498e-21)
(2.6229376 0.012110513 -1.4168689e-21)
(2.6204072 0.010668707 2.0376212e-21)
(2.6181283 0.0089598535 1.566176e-21)
(2.6162923 0.0075542771 5.9065135e-21)
(2.6146442 0.0060154092 6.3164673e-21)
(2.6132899 0.004904435 2.8759181e-21)
(2.6120618 0.0038129356 1.8582246e-20)
(2.6111108 0.0027915587 1.1208645e-20)
(2.610233 0.0018022175 -6.728832e-21)
(2.6096182 0.0011703209 -1.7780558e-21)
(2.6090547 0.00061353414 -6.0540936e-24)
(2.5958172 -0.028469477 -1.6184559e-21)
(2.5984896 -0.050262843 -1.5638334e-21)
(2.6066101 -0.066774475 3.1952533e-21)
(2.6245753 -0.071575335 1.9534946e-21)
(2.6380413 -0.07424155 -1.8713625e-21)
(2.6533104 -0.071250528 6.5224539e-22)
(2.66509 -0.06782155 4.3877806e-21)
(2.6765909 -0.058875295 7.1627853e-21)
(2.6847323 -0.050883868 6.490733e-21)
(2.6903015 -0.038686742 4.6711927e-21)
(2.6936901 -0.028553357 1.3415536e-21)
(2.6928945 -0.016046924 1.729118e-21)
(2.6913495 -0.0062462958 -3.2424536e-22)
(2.6855007 0.0035385362 -2.7636105e-21)
(2.6803031 0.010839785 -3.8801406e-21)
(2.6720769 0.016379091 -7.3578935e-21)
(2.6653598 0.020341779 -5.8092271e-21)
(2.6572251 0.022021239 -6.2191125e-21)
(2.6507599 0.023116717 -2.0153826e-21)
(2.6440298 0.022288717 -4.6464338e-21)
(2.6387043 0.021569554 -4.3954946e-21)
(2.6336533 0.019555964 -6.1992668e-21)
(2.6296017 0.017990256 -1.0725776e-20)
(2.6259608 0.01568607 -5.441062e-21)
(2.623003 0.013886467 -3.5693775e-21)
(2.6204157 0.011699273 -2.100923e-21)
(2.6182525 0.010041983 -2.6122646e-21)
(2.61637 0.0082514668 -5.2410488e-21)
(2.6148098 0.0067951713 -5.0235683e-21)
(2.6134387 0.0052991989 -8.7295037e-21)
(2.6122793 0.0042281786 6.0024438e-21)
(2.6112349 0.0032403902 1.47964e-20)
(2.6104079 0.0023078192 -2.1780525e-21)
(2.6096416 0.0014438642 -5.0617739e-21)
(2.609112 0.00093015168 -3.4298604e-21)
(2.6086178 0.00051454056 2.8435435e-21)
(2.5820107 -0.025961498 -2.0207418e-21)
(2.5857765 -0.052920455 -4.765807e-21)
(2.5946913 -0.073803322 -4.7630922e-21)
(2.6167241 -0.081060967 -6.6130265e-22)
(2.6328681 -0.085672811 -1.8998456e-21)
(2.6513408 -0.083546773 -3.7949393e-21)
(2.6658511 -0.080739692 -1.4286335e-21)
(2.6806058 -0.071443248 -2.1105365e-21)
(2.6913317 -0.062961026 4.2309551e-22)
(2.6996149 -0.049213838 2.1960519e-21)
(2.7051211 -0.037582785 4.0236583e-22)
(2.7058257 -0.022448487 1.1368917e-21)
(2.7053453 -0.010422387 1.5012013e-21)
(2.6993591 0.0021569878 1.5621616e-21)
(2.6939171 0.011644158 -7.2479372e-22)
(2.6843518 0.019163895 -2.5656769e-21)
(2.6765168 0.02459843 -5.8456074e-21)
(2.6666768 0.027117728 -5.7847779e-21)
(2.6588758 0.028827405 -6.1659553e-21)
(2.6506981 0.02797424 -8.135539e-21)
(2.6442402 0.027235725 -1.0727228e-20)
(2.6381913 0.024772858 -9.3453493e-21)
(2.6333557 0.02287096 -1.1132209e-20)
(2.6291189 0.019984956 -8.5116473e-21)
(2.6256446 0.017776191 -3.4607608e-21)
(2.6227027 0.015086079 -1.0693541e-21)
(2.6202418 0.01299817 3.6312362e-22)
(2.6181832 0.010703644 1.6391225e-21)
(2.616399 0.0089656601 -7.9156657e-22)
(2.614892 0.0072155426 -1.0365004e-20)
(2.6135968 0.0057979913 -1.3966222e-20)
(2.6124743 0.0044228015 -5.8063149e-21)
(2.6114912 0.0034500678 2.3604566e-21)
(2.6106013 0.0026139177 -7.6763453e-21)
(2.609882 0.0018021755 -1.0498845e-20)
(2.6092044 0.0010851721 -8.3170729e-21)
(2.6087439 0.0007006299 -2.4361713e-21)
(2.6083003 0.00043286555 8.7255124e-21)
(2.5652517 -0.022829471 -2.1493662e-21)
(2.5666419 -0.055407201 -5.0444088e-21)
(2.5779715 -0.081172649 -7.6986672e-21)
(2.6062206 -0.091236548 7.7778876e-23)
(2.6258503 -0.09816581 4.0485255e-21)
(2.6480052 -0.097114503 1.5024392e-21)
(2.6655033 -0.095137818 -2.4441269e-22)
(2.6838744 -0.085721036 -5.9348502e-21)
(2.6975133 -0.076925832 -6.652817e-21)
(2.7090767 -0.061756709 -4.6486159e-21)
(2.7171963 -0.048669121 -3.0432497e-21)
(2.720001 -0.030644396 -6.35273e-21)
(2.7210887 -0.016101493 -5.7590019e-21)
(2.7152336 -0.00010251089 -2.1240683e-21)
(2.7097367 0.012092235 -2.1217807e-21)
(2.6986633 0.022188756 9.2894388e-22)
(2.6895603 0.029562803 -7.9339956e-22)
(2.6776198 0.033246934 3.9774127e-22)
(2.6681643 0.035801062 5.5530885e-22)
(2.6581572 0.034951528 -1.8066409e-21)
(2.6502851 0.034218642 -3.6096462e-21)
(2.6430074 0.03117472 -5.7567218e-21)
(2.6371985 0.028850185 -4.3708142e-21)
(2.6322541 0.025241789 -4.5580205e-21)
(2.6282001 0.022489859 -1.9680156e-21)
(2.6248993 0.019117655 5.1511247e-21)
(2.622095 0.016531864 7.5537475e-21)
(2.6198513 0.013708504 5.4243898e-21)
(2.6178963 0.011512998 6.7132112e-21)
(2.6163305 0.0092689338 7.7345298e-21)
(2.6149053 0.0075676376 -1.2232431e-21)
(2.6137317 0.0059577996 -2.7732466e-22)
(2.6126747 0.0046541228 7.6805986e-21)
(2.6117622 0.0034616248 -7.3579476e-22)
(2.6109276 0.0026332635 -1.031233e-20)
(2.6101572 0.0019822519 -1.0028649e-20)
(2.6095235 0.0013120813 -7.9502215e-21)
(2.6089089 0.00075129867 3.6821194e-21)
(2.608493 0.00049965371 1.4373755e-20)
(2.6080818 0.00038115716 2.4143889e-21)
(2.5607333 -0.018800186 7.989521e-23)
(2.5466833 -0.057888481 -3.7374257e-21)
(2.5569508 -0.089334119 -6.5117327e-21)
(2.5908544 -0.10236299 -6.4383317e-21)
(2.6160476 -0.11192078 9.6636106e-22)
(2.6430514 -0.11192919 4.920249e-21)
(2.6639507 -0.11096681 2.5160051e-21)
(2.6862538 -0.10170452 2.9825361e-21)
(2.703088 -0.092814441 -2.3709104e-21)
(2.7185164 -0.076463689 -5.0372502e-21)
(2.7297613 -0.062050431 -3.1095151e-21)
(2.7353935 -0.040946758 -3.2774254e-21)
(2.7386891 -0.023641298 -6.4214776e-21)
(2.7333648 -0.0035132406 -6.7055403e-21)
(2.7281055 0.011986493 -3.2680773e-21)
(2.7153761 0.025414015 1.1437534e-21)
(2.7048525 0.035313366 4.0886385e-21)
(2.6903279 0.040584182 4.292499e-21)
(2.6788315 0.044308134 5.4963865e-21)
(2.6665109 0.043517654 4.4615264e-21)
(2.6568439 0.042824037 2.2790682e-21)
(2.6480268 0.039031571 2.8133855e-22)
(2.6410131 0.036169965 -1.6993021e-21)
(2.6352387 0.031628048 -5.3707978e-21)
(2.6304935 0.028185683 -5.5616861e-21)
(2.6268047 0.02397897 -2.900391e-21)
(2.6236503 0.020749828 3.8434206e-21)
(2.6212623 0.017235105 4.2128357e-21)
(2.619127 0.014516389 2.1401378e-21)
(2.6175178 0.011763058 -1.3345358e-21)
(2.6160341 0.0096123405 -4.8966968e-22)
(2.6148993 0.0075423809 3.2864258e-21)
(2.6137932 0.0059738245 4.2540697e-21)
(2.6128995 0.0045822393 1.3277366e-20)
(2.6120439 0.0034521893 5.3736601e-21)
(2.6112966 0.0024881995 -8.0424479e-21)
(2.6105773 0.0018365891 -7.7387473e-21)
(2.6098877 0.0013895885 2.0434315e-21)
(2.6093146 0.00087118077 1.3240993e-20)
(2.608736 0.00046592953 1.0075588e-20)
(2.6083506 0.00034562465 -1.3457845e-21)
(2.607936 0.00034741606 -1.284082e-20)
(2.5883744 -0.013686047 2.3477052e-22)
(2.5482912 -0.059405966 5.0839498e-21)
(2.5445779 -0.097103051 1.5368185e-21)
(2.5713305 -0.11501011 -3.3738815e-21)
(2.6016318 -0.12754512 -3.2554599e-21)
(2.6355939 -0.12815835 -4.0883008e-21)
(2.6609214 -0.12820739 -4.1183351e-22)
(2.6876018 -0.11932083 4.9784869e-21)
(2.7078711 -0.11060193 5.4595814e-21)
(2.7277282 -0.093431688 3.6666901e-21)
(2.742593 -0.077930489 1.227856e-21)
(2.7519175 -0.053693126 -2.9107845e-21)
(2.7582181 -0.033448082 -3.0656426e-21)
(2.7539886 -0.008389975 -3.5193987e-21)
(2.7493927 0.011077447 -3.7436884e-21)
(2.7348933 0.028766206 -9.6633653e-22)
(2.7228236 0.041921456 3.2559886e-21)
(2.7051379 0.049342025 -9.8173032e-22)
(2.691134 0.054662286 -8.697625e-22)
(2.6758753 0.054009321 -6.7466029e-21)
(2.6639294 0.053423339 -7.9212797e-21)
(2.6531735 0.048668667 2.2812651e-22)
(2.644643 0.045113569 -1.7049949e-21)
(2.6378811 0.039360054 4.6998382e-21)
(2.6323213 0.035032666 1.311915e-21)
(2.6282375 0.02977534 -1.4599172e-21)
(2.624703 0.025744008 1.1291785e-21)
(2.6222029 0.021411809 1.2435007e-21)
(2.619925 0.018038633 1.5551562e-21)
(2.6183387 0.014642445 1.6577474e-21)
(2.6168108 0.011987351 -1.6481728e-21)
(2.6157429 0.0094529941 8.5280213e-22)
(2.6146714 0.0074662565 4.4565482e-21)
(2.6138958 0.0056624544 -4.1699745e-22)
(2.6130578 0.0043015753 8.0768758e-21)
(2.612386 0.0031860372 8.0680487e-21)
(2.6116894 0.0022738546 -4.6273426e-21)
(2.6110589 0.0015688339 5.4762815e-21)
(2.610418 0.0011127395 1.4966829e-20)
(2.609769 0.00087474547 7.5977673e-21)
(2.6092316 0.00050858521 4.5049781e-21)
(2.608663 0.00025063921 2.2083688e-21)
(2.6082793 0.00023757066 -8.6511118e-21)
(2.6078393 0.0003208607 -8.9191954e-21)
(2.6546318 -0.0056334716 3.5002715e-22)
(2.5822882 -0.05707465 8.0350887e-21)
(2.5533616 -0.10145279 1.276263e-20)
(2.5630485 -0.12705263 1.1905456e-20)
(2.5865074 -0.14486708 7.4032859e-21)
(2.6243736 -0.14645021 -4.016333e-21)
(2.65602 -0.14702104 -4.8187465e-21)
(2.6875831 -0.13857729 1.569379e-21)
(2.7116706 -0.13020673 6.7177906e-21)
(2.7364866 -0.112693 4.7550751e-21)
(2.7553888 -0.096456007 3.0420107e-21)
(2.7694003 -0.069209775 -2.3703057e-21)
(2.7796765 -0.045978886 -6.3544924e-21)
(2.7773335 -0.015136715 3.4815644e-22)
(2.7739755 0.0090559318 -3.047014e-23)
(2.7576615 0.032137782 -3.5750042e-21)
(2.7439596 0.049435782 -9.3581617e-22)
(2.7224491 0.059737999 -2.2859951e-21)
(2.7053847 0.067214672 -6.3931902e-21)
(2.6864092 0.066839248 -5.1641833e-21)
(2.6715579 0.066457137 -1.0804937e-20)
(2.6583441 0.060459763 -1.0426833e-20)
(2.6478933 0.056016869 -2.738682e-21)
(2.6399529 0.048688363 -2.0697961e-21)
(2.6334193 0.043210047 4.0052748e-21)
(2.6289444 0.036622325 6.2890369e-21)
(2.6250209 0.031586589 3.733822e-21)
(2.6224844 0.026270542 5.2348645e-21)
(2.6200946 0.022109501 5.4088183e-21)
(2.6185928 0.017987612 5.0113377e-21)
(2.6170834 0.014723769 5.1603657e-21)
(2.6161547 0.011619878 -2.0703381e-21)
(2.6151443 0.0091721585 2.9604541e-22)
(2.6145191 0.0069591013 3.8910957e-21)
(2.6137912 0.0052248061 -7.4393187e-22)
(2.6133021 0.0037534019 6.5972973e-23)
(2.6126771 0.0026559577 -6.6129389e-23)
(2.6121675 0.0018557372 -2.9565941e-21)
(2.6115843 0.0011906477 6.6610147e-21)
(2.6110215 0.00076049993 1.2778635e-20)
(2.6104204 0.00050584403 5.7489598e-21)
(2.609772 0.0004701552 -9.3184023e-21)
(2.609245 0.00024634181 -1.1712567e-20)
(2.6086596 0.00012358749 -1.7578641e-21)
(2.6082515 0.00018598907 -1.9062087e-21)
(2.6077662 0.00030818163 1.2039855e-20)
(2.7483045 0.0050628492 7.2287971e-21)
(2.6523488 -0.049323274 1.6090441e-22)
(2.5911335 -0.09912407 7.4567658e-21)
(2.5738387 -0.13505294 8.9062607e-21)
(2.5811756 -0.16029382 8.0324783e-21)
(2.6135666 -0.16574677 8.3039354e-21)
(2.6485386 -0.16784523 -2.5259134e-21)
(2.6859126 -0.15954863 -5.5175523e-21)
(2.7143235 -0.15156962 5.3688787e-22)
(2.7445491 -0.13422437 2.0032922e-21)
(2.7677962 -0.11769299 6.8112338e-23)
(2.7875756 -0.08780993 5.1052543e-21)
(2.8029609 -0.061723186 -5.4951441e-25)
(2.8035572 -0.024217982 -7.8144161e-21)
(2.8022282 0.0055759099 -1.4734905e-21)
(2.7841199 0.035354009 4.7566411e-21)
(2.7687837 0.057886959 1.4647101e-21)
(2.7427018 0.071997317 -2.7833885e-21)
(2.7219469 0.082361153 -4.0955864e-21)
(2.6982915 0.082470821 -6.5802589e-21)
(2.6797506 0.082449962 -5.4083563e-21)
(2.6634144 0.074862629 1.0116263e-20)
(2.650515 0.069276084 1.0782622e-20)
(2.6411587 0.059883035 3.9274137e-21)
(2.6334576 0.052909157 4.6659641e-21)
(2.6286236 0.044632805 -5.1944667e-21)
(2.6243126 0.038322401 -3.1672934e-21)
(2.6218564 0.031819367 1.2309047e-22)
(2.6194278 0.026714537 1.494267e-21)
(2.6181212 0.021773317 5.6441939e-21)
(2.6166905 0.01780964 5.271478e-21)
(2.6159623 0.014094288 2.5564583e-21)
(2.6150819 0.011108101 -4.3471953e-21)
(2.6146724 0.0083996135 -1.4631249e-21)
(2.614085 0.0062575381 1.9223055e-21)
(2.613812 0.0044339834 -1.0107359e-20)
(2.6133586 0.0030154318 -9.4828418e-21)
(2.6130866 0.0019225154 1.1841648e-21)
(2.6126182 0.0011268971 -1.5404606e-21)
(2.6122112 0.00066483066 -2.7235317e-21)
(2.6116936 0.00026195747 2.9389397e-21)
(2.6111508 0.00010808051 -1.9142869e-21)
(2.6105522 5.1138562e-05 -1.6337035e-20)
(2.609864 0.00020070195 -6.9953887e-21)
(2.6093232 0.00010380986 2.5289191e-21)
(2.6086943 7.3819008e-05 -1.8963569e-21)
(2.6082442 0.00017260037 1.134415e-20)
(2.6077008 0.00031264953 4.0273278e-21)
(2.8532118 0.017715034 -7.4062024e-21)
(2.7423089 -0.036097843 1.1717719e-21)
(2.6561723 -0.088400222 -5.6362754e-21)
(2.6107391 -0.13589281 -3.6138457e-21)
(2.5927115 -0.17109036 -2.4095146e-21)
(2.6116472 -0.18350348 3.9466663e-21)
(2.6410679 -0.18942298 4.1412209e-21)
(2.6817584 -0.18233129 6.0022734e-21)
(2.715412 -0.17469991 3.2915002e-21)
(2.7518725 -0.15793544 -5.9500187e-22)
(2.779573 -0.1416482 7.8048129e-22)
(2.8061784 -0.10977271 2.8681145e-21)
(2.8279603 -0.081206862 7.6947977e-21)
(2.8327846 -0.03612673 4.7923445e-21)
(2.8345898 0.00019815087 -2.5526126e-21)
(2.8147918 0.038197397 -1.2385005e-21)
(2.7978974 0.06727285 4.6800818e-21)
(2.7663611 0.086350297 4.1543782e-21)
(2.7412205 0.10052812 1.6043809e-22)
(2.7117275 0.10143586 -2.9016204e-21)
(2.6885267 0.10200969 -5.2420349e-21)
(2.6682272 0.092402948 -2.1889548e-21)
(2.6521982 0.085359133 1.2589907e-20)
(2.6411313 0.073266582 1.6181081e-20)
(2.6320214 0.064334012 9.7562083e-21)
(2.6268945 0.053890857 6.7093404e-21)
(2.6222252 0.045961695 -2.6179713e-21)
(2.6200327 0.038028381 -8.4509964e-21)
(2.6176789 0.031781773 -5.4061357e-21)
(2.6167268 0.025925715 -2.6818597e-21)
(2.6154831 0.021175778 1.1918197e-21)
(2.6150566 0.016822936 -3.3040137e-22)
(2.6143665 0.013247805 -2.9933812e-21)
(2.6142136 0.010027444 -3.0666543e-21)
(2.6138286 0.0074179835 -3.0926798e-22)
(2.6138256 0.0051618129 6.3375072e-21)
(2.6135749 0.0033904487 -5.0136691e-21)
(2.6135755 0.0020024447 -8.7284278e-21)
(2.6133308 0.00094358253 1.4089636e-21)
(2.6132099 0.00025882606 -1.5577182e-21)
(2.6128418 -0.00020803228 -2.6810188e-21)
(2.6124765 -0.00032760429 9.5745127e-24)
(2.611981 -0.00046849657 -4.6430371e-21)
(2.6114119 -0.00035613988 -8.1998132e-21)
(2.6107787 -0.00023030197 7.9513894e-22)
(2.6100145 7.8589912e-05 1.5802911e-20)
(2.6094325 6.7657278e-05 1.1805787e-20)
(2.6087367 9.4582522e-05 6.1857163e-21)
(2.6082326 0.00021010446 -8.4036352e-22)
(2.6076239 0.00033809555 -1.476762e-20)
(2.958517 0.03144783 -3.2475197e-20)
(2.8391881 -0.018342663 -1.1566354e-20)
(2.7358734 -0.069776544 -3.4848564e-21)
(2.6650314 -0.12824728 -2.7640128e-21)
(2.6207053 -0.17416746 -7.9872347e-22)
(2.6222598 -0.19654075 -1.5841321e-21)
(2.6384963 -0.20923673 4.4624428e-21)
(2.67861 -0.20598288 2.3691996e-21)
(2.7151391 -0.19978706 4.1074349e-21)
(2.7582639 -0.1840977 5.8191044e-21)
(2.7907546 -0.16825742 2.167881e-21)
(2.8250818 -0.13545222 4.2740247e-21)
(2.8546278 -0.10503231 6.3073809e-21)
(2.8653037 -0.051469672 1.4419926e-20)
(2.8715834 -0.007762691 1.1766617e-20)
(2.8505875 0.040318884 -2.4883423e-21)
(2.8322379 0.077504724 -1.2397118e-21)
(2.7940985 0.10304424 1.5797142e-22)
(2.7637621 0.12216821 -4.0962079e-22)
(2.7269182 0.1243248 4.6082908e-21)
(2.6978881 0.125831 1.7691248e-21)
(2.6725846 0.11369754 -4.5942046e-21)
(2.6525574 0.10481028 -1.6863087e-21)
(2.6394173 0.089192331 -4.8357137e-21)
(2.6285992 0.077701024 -1.6915544e-21)
(2.623292 0.064477651 7.2278156e-21)
(2.6183277 0.054472305 4.2995224e-21)
(2.6166664 0.044794127 5.6005334e-21)
(2.6145669 0.037169549 1.9486463e-22)
(2.6142061 0.03031043 -1.8609582e-21)
(2.6133067 0.024679528 7.754474e-22)
(2.6133205 0.019692761 4.096612e-22)
(2.6129207 0.015507682 -1.05095e-21)
(2.6130852 0.011792939 -3.0692845e-21)
(2.6129431 0.0086917655 -3.1400381e-21)
(2.6132224 0.0059908691 -4.0560851e-21)
(2.6132246 0.0038117317 2.1977561e-21)
(2.6135442 0.0020415451 4.4574015e-21)
(2.6135556 0.00068463178 1.0788319e-21)
(2.613761 -0.00023565309 5.3908142e-21)
(2.6136633 -0.00090562278 2.6360815e-21)
(2.613631 -0.0011665922 -3.9100761e-21)
(2.6133051 -0.0013042931 -1.3739039e-21)
(2.6129258 -0.0010789698 -3.8116915e-21)
(2.6124076 -0.00096492312 -7.1753012e-21)
(2.6117659 -0.00061225833 9.4760328e-22)
(2.6110611 -0.00033286836 1.5196429e-20)
(2.6101878 0.00010632681 6.6204483e-21)
(2.609541 0.00015219053 1.2051677e-21)
(2.6087589 0.00024058768 5.7460499e-21)
(2.6081892 0.00034494342 -7.3750349e-21)
(2.6075021 0.00039780058 9.3547743e-21)
(3.0589649 0.045382998 8.8093128e-21)
(2.9361905 0.0026038257 -2.1103307e-20)
(2.821715 -0.044851166 -1.0665229e-21)
(2.7285839 -0.11296401 1.1142894e-21)
(2.6607079 -0.16905495 1.8704189e-21)
(2.6445492 -0.20271246 1.0751465e-21)
(2.6436553 -0.22474381 3.5659933e-22)
(2.6783041 -0.2282535 -3.7640185e-21)
(2.7140359 -0.22584575 -5.8784501e-21)
(2.7635938 -0.2119897 -2.5367354e-21)
(2.8008833 -0.19732057 -1.0059149e-21)
(2.8437745 -0.16472839 -1.0297163e-21)
(2.8824047 -0.13342649 9.2675644e-22)
(2.9004391 -0.07079081 1.6353883e-20)
(2.912817 -0.018877845 2.4207581e-20)
(2.8919007 0.041213198 2.9794063e-21)
(2.8725422 0.088301104 -1.0686888e-20)
(2.8272478 0.12211421 -5.0883834e-21)
(2.7906972 0.14768764 -3.8209135e-21)
(2.744372 0.15177426 -2.4629369e-21)
(2.7079972 0.1546879 2.2690243e-21)
(2.6762241 0.13944064 4.8591457e-21)
(2.6511122 0.12825398 -1.120242e-21)
(2.6354621 0.10806429 -3.9102456e-21)
(2.6225677 0.093236848 -6.9334059e-21)
(2.6172532 0.076439398 -7.5030064e-21)
(2.6121044 0.063771367 8.7584377e-22)
(2.6113485 0.051961585 3.4688964e-21)
(2.6097653 0.042655635 4.6946508e-21)
(2.6103295 0.034691252 5.3000334e-21)
(2.6100081 0.028091139 3.4312507e-21)
(2.6106662 0.022524013 3.3703646e-21)
(2.6106955 0.017730466 3.0593414e-21)
(2.6112523 0.013589799 4.3773376e-21)
(2.6114142 0.010018717 2.5416704e-21)
(2.6119844 0.0069012891 1.6934291e-21)
(2.6122518 0.0042959194 9.0010954e-22)
(2.6128777 0.0021156513 1.1857146e-21)
(2.6131874 0.00039767338 3.3164165e-21)
(2.6137668 -0.00086000698 -1.0660666e-21)
(2.6139755 -0.0017714221 2.9939848e-21)
(2.6143211 -0.0022022477 1.5894738e-22)