/*--------------------------------*- C++ -*----------------------------------*\
| =========                 |                                                 |
| \\      /  F ield         | OpenFOAM: The Open Source CFD Toolbox           |
|  \\    /   O peration     | Version:  v2012                                 |
|   \\  /    A nd           | Website:  www.openfoam.com                      |
|    \\/     M anipulation  |                                                 |
\*---------------------------------------------------------------------------*/
FoamFile
{
    version     2.0;
    format      ascii;
    class       volVectorField;
    location    "7.493965366";
    object      cellDisplacement;
}
// * * * * * * * * * * * * * * * * * * * * * * * * * * * * * * * * * * * * * //

dimensions      [0 1 0 0 0 0 0];


internalField   nonuniform List<vector> 
9200
(
(-0.0063894273 0 0)
(-0.0064117624 0 0)
(-0.018533117 0 0)
(-0.006450448 0 0)
(-0.018604171 0 0)
(-0.02984432 0 0)
(-0.0064862289 0 0)
(-0.018708325 0 0)
(-0.029954986 0 0)
(-0.040393185 0 0)
(-0.0065115534 0 0)
(-0.018794732 0 0)
(-0.030107125 0 0)
(-0.040531926 0 0)
(-0.050224088 0 0)
(-0.0065268947 0 0)
(-0.018856674 0 0)
(-0.030243013 0 0)
(-0.040720783 0 0)
(-0.050376197 0 0)
(-0.059410844 0 0)
(-0.0065369485 0 0)
(-0.018899331 0 0)
(-0.030357839 0 0)
(-0.040938831 0 0)
(-0.050637502 0 0)
(-0.059592706 0 0)
(-0.067998399 0 0)
(-0.0065386004 0 0)
(-0.018917211 0 0)
(-0.030419559 0 0)
(-0.041071706 0 0)
(-0.050856421 0 0)
(-0.059850178 0 0)
(-0.068187676 0 0)
(-0.07604873 0 0)
(-0.0065362148 0 0)
(-0.018919572 0 0)
(-0.030447887 0 0)
(-0.041169982 0 0)
(-0.051080677 0 0)
(-0.060178121 0 0)
(-0.068517987 0 0)
(-0.076270232 0 0)
(-0.083588919 0 0)
(-0.0065274167 0 0)
(-0.018902979 0 0)
(-0.030445343 0 0)
(-0.041214381 0 0)
(-0.051216529 0 0)
(-0.060425489 0 0)
(-0.068848569 0 0)
(-0.076610004 0 0)
(-0.083829617 0 0)
(-0.090669294 0 0)
(-0.0065158373 0 0)
(-0.018875361 0 0)
(-0.03041634 0 0)
(-0.041215266 0 0)
(-0.05129362 0 0)
(-0.06062558 0 0)
(-0.069196415 0 0)
(-0.077049674 0 0)
(-0.084252498 0 0)
(-0.090953639 0 0)
(-0.097304411 0 0)
(-0.0064997416 0 0)
(-0.018833556 0 0)
(-0.030365281 0 0)
(-0.041183267 0 0)
(-0.051318961 0 0)
(-0.06076123 0 0)
(-0.069486393 0 0)
(-0.07746154 0 0)
(-0.084724308 0 0)
(-0.09141267 0 0)
(-0.097623394 0 0)
(-0.10353667 0 0)
(-0.006482243 0 0)
(-0.018785678 0 0)
(-0.030295243 0 0)
(-0.041115355 0 0)
(-0.051295414 0 0)
(-0.060829783 0 0)
(-0.069693982 0 0)
(-0.077839583 0 0)
(-0.085256887 0 0)
(-0.092013786 0 0)
(-0.098182072 0 0)
(-0.10391026 0 0)
(-0.10937113 0 0)
(-0.0064619329 0 0)
(-0.018728083 0 0)
(-0.030209503 0 0)
(-0.041024436 0 0)
(-0.051233873 0 0)
(-0.060838705 0 0)
(-0.06982566 0 0)
(-0.07814566 0 0)
(-0.085746889 0 0)
(-0.09262573 0 0)
(-0.098846046 0 0)
(-0.10453413 0 0)
(-0.10979355 0 0)
(-0.11484497 0 0)
(-0.0064414856 0 0)
(-0.018669189 0 0)
(-0.030113361 0 0)
(-0.040905972 0 0)
(-0.05113213 0 0)
(-0.060796374 0 0)
(-0.069889635 0 0)
(-0.078369665 0 0)
(-0.086175719 0 0)
(-0.093247797 0 0)
(-0.099608985 0 0)
(-0.10534886 0 0)
(-0.11053413 0 0)
(-0.11533274 0 0)
(-0.11995777 0 0)
(-0.0064196936 0 0)
(-0.018604651 0 0)
(-0.030007542 0 0)
(-0.04077303 0 0)
(-0.051003324 0 0)
(-0.060706631 0 0)
(-0.069886243 0 0)
(-0.078509148 0 0)
(-0.086505768 0 0)
(-0.093802634 0 0)
(-0.10036644 0 0)
(-0.10622171 0 0)
(-0.11144546 0 0)
(-0.11616413 0 0)
(-0.12050649 0 0)
(-0.12474289 0 0)
(-0.0063985103 0 0)
(-0.018541588 0 0)
(-0.029898698 0 0)
(-0.040621876 0 0)
(-0.050844299 0 0)
(-0.060576364 0 0)
(-0.069828215 0 0)
(-0.078570219 0 0)
(-0.086739601 0 0)
(-0.094262063 0 0)
(-0.10106983 0 0)
(-0.1071328 0 0)
(-0.11249695 0 0)
(-0.11724844 0 0)
(-0.12146986 0 0)
(-0.12536586 0 0)
(-0.12919716 0 0)
(-0.0063770944 0 0)
(-0.018476466 0 0)
(-0.029785953 0 0)
(-0.040465667 0 0)
(-0.05066938 0 0)
(-0.060412094 0 0)
(-0.069715347 0 0)
(-0.07856355 0 0)
(-0.086887369 0 0)
(-0.094618454 0 0)
(-0.10168713 0 0)
(-0.10801068 0 0)
(-0.11357914 0 0)
(-0.11844179 0 0)
(-0.1226819 0 0)
(-0.12644158 0 0)
(-0.12989051 0 0)
(-0.13335129 0 0)
(-0.006356927 0 0)
(-0.018414658 0 0)
(-0.029676422 0 0)
(-0.04029971 0 0)
(-0.050475417 0 0)
(-0.060218739 0 0)
(-0.069561007 0 0)
(-0.078492897 0 0)
(-0.086950446 0 0)
(-0.094870471 0 0)
(-0.10218071 0 0)
(-0.10878815 0 0)
(-0.11463142 0 0)
(-0.11970807 0 0)
(-0.12408077 0 0)
(-0.12784408 0 0)
(-0.13110983 0 0)
(-0.13412521 0 0)
(-0.13720148 0 0)
(-0.0063373366 0 0)
(-0.018353555 0 0)
(-0.029566858 0 0)
(-0.040136238 0 0)
(-0.050275736 0 0)
(-0.060005227 0 0)
(-0.069366887 0 0)
(-0.07836942 0 0)
(-0.086943426 0 0)
(-0.095025338 0 0)
(-0.10255717 0 0)
(-0.10944757 0 0)
(-0.11559944 0 0)
(-0.12095852 0 0)
(-0.12554587 0 0)
(-0.12941338 0 0)
(-0.13266543 0 0)
(-0.13547282 0 0)
(-0.13805204 0 0)
(-0.14077653 0 0)
(-0.0063194266 0 0)
(-0.018296245 0 0)
(-0.029463874 0 0)
(-0.03996997 0 0)
(-0.050067478 0 0)
(-0.059775233 0 0)
(-0.069146351 0 0)
(-0.078198932 0 0)
(-0.086867835 0 0)
(-0.095095543 0 0)
(-0.10282612 0 0)
(-0.10997623 0 0)
(-0.1164452 0 0)
(-0.12213029 0 0)
(-0.12700372 0 0)
(-0.13109178 0 0)
(-0.13446243 0 0)
(-0.13723165 0 0)
(-0.13955092 0 0)
(-0.14171127 0 0)
(-0.14407346 0 0)
(-0.0063027035 0 0)
(-0.018241862 0 0)
(-0.029363912 0 0)
(-0.03981253 0 0)
(-0.049861828 0 0)
(-0.059537952 0 0)
(-0.068901885 0 0)
(-0.077992425 0 0)
(-0.086740659 0 0)
(-0.095087054 0 0)
(-0.10299129 0 0)
(-0.1103801 0 0)
(-0.11714614 0 0)
(-0.12317589 0 0)
(-0.12839269 0 0)
(-0.13277656 0 0)
(-0.13636646 0 0)
(-0.13922302 0 0)
(-0.14148229 0 0)
(-0.14334908 0 0)
(-0.14508821 0 0)
(-0.14711951 0 0)
(-0.0062879642 0 0)
(-0.018191613 0 0)
(-0.029271595 0 0)
(-0.039657047 0 0)
(-0.049656278 0 0)
(-0.059295343 0 0)
(-0.068645269 0 0)
(-0.077757358 0 0)
(-0.086564316 0 0)
(-0.095013179 0 0)
(-0.1030694 0 0)
(-0.11066467 0 0)
(-0.11770221 0 0)
(-0.12406951 0 0)
(-0.12965484 0 0)
(-0.1343912 0 0)
(-0.13828585 0 0)
(-0.14136631 0 0)
(-0.14371795 0 0)
(-0.14549155 0 0)
(-0.14688105 0 0)
(-0.14821949 0 0)
(-0.14991311 0 0)
(-0.0062747586 0 0)
(-0.018145781 0 0)
(-0.029184111 0 0)
(-0.03951439 0 0)
(-0.049459316 0 0)
(-0.059055157 0 0)
(-0.068379458 0 0)
(-0.077503014 0 0)
(-0.08635627 0 0)
(-0.094882828 0 0)
(-0.10306402 0 0)
(-0.11084669 0 0)
(-0.11812974 0 0)
(-0.12480807 0 0)
(-0.13077131 0 0)
(-0.13589887 0 0)
(-0.14015037 0 0)
(-0.14354005 0 0)
(-0.14610962 0 0)
(-0.14794017 0 0)
(-0.14920913 0 0)
(-0.15015679 0 0)
(-0.15109378 0 0)
(-0.15248013 0 0)
(-0.0062636112 0 0)
(-0.018104545 0 0)
(-0.029105582 0 0)
(-0.039377082 0 0)
(-0.049269046 0 0)
(-0.05881933 0 0)
(-0.068114119 0 0)
(-0.07723681 0 0)
(-0.08611849 0 0)
(-0.094707622 0 0)
(-0.10299414 0 0)
(-0.11093306 0 0)
(-0.11843207 0 0)
(-0.12539364 0 0)
(-0.13170048 0 0)
(-0.13722219 0 0)
(-0.14188478 0 0)
(-0.14565619 0 0)
(-0.14854597 0 0)
(-0.15059204 0 0)
(-0.15191269 0 0)
(-0.15269887 0 0)
(-0.15318598 0 0)
(-0.15374463 0 0)
(-0.15482044 0 0)
(-0.0062540941 0 0)
(-0.018068403 0 0)
(-0.029033123 0 0)
(-0.039253778 0 0)
(-0.049091062 0 0)
(-0.058592565 0 0)
(-0.067851288 0 0)
(-0.076965758 0 0)
(-0.085866951 0 0)
(-0.09449852 0 0)
(-0.10286432 0 0)
(-0.11093987 0 0)
(-0.11863056 0 0)
(-0.12583869 0 0)
(-0.13246435 0 0)
(-0.13838356 0 0)
(-0.14347765 0 0)
(-0.14766659 0 0)
(-0.15093959 0 0)
(-0.15330697 0 0)
(-0.15483018 0 0)
(-0.15562781 0 0)
(-0.15592034 0 0)
(-0.15598205 0 0)
(-0.15616391 0 0)
(-0.15695894 0 0)
(-0.0062464547 0 0)
(-0.018037139 0 0)
(-0.028969818 0 0)
(-0.039138292 0 0)
(-0.048924387 0 0)
(-0.058377383 0 0)
(-0.067598704 0 0)
(-0.076696781 0 0)
(-0.085603155 0 0)
(-0.094264908 0 0)
(-0.1026941 0 0)
(-0.1108775 0 0)
(-0.11872949 0 0)
(-0.1261622 0 0)
(-0.13307625 0 0)
(-0.13935111 0 0)
(-0.14485783 0 0)
(-0.149491 0 0)
(-0.15320844 0 0)
(-0.15598179 0 0)
(-0.15783037 0 0)
(-0.15881984 0 0)
(-0.15910857 0 0)
(-0.15892826 0 0)
(-0.15855234 0 0)
(-0.1583826 0 0)
(-0.15889636 0 0)
(-0.0062403062 0 0)
(-0.018010882 0 0)
(-0.028913379 0 0)
(-0.039037758 0 0)
(-0.048772777 0 0)
(-0.058176124 0 0)
(-0.067357592 0 0)
(-0.076434355 0 0)
(-0.085340404 0 0)
(-0.094017652 0 0)
(-0.10248718 0 0)
(-0.11076016 0 0)
(-0.11875146 0 0)
(-0.12637329 0 0)
(-0.13354081 0 0)
(-0.14014381 0 0)
(-0.146051 0 0)
(-0.1511397 0 0)
(-0.15532819 0 0)
(-0.15855474 0 0)
(-0.16080862 0 0)
(-0.16211678 0 0)
(-0.16257667 0 0)
(-0.16234768 0 0)
(-0.16169134 0 0)
(-0.16091256 0 0)
(-0.16039515 0 0)
(-0.16065737 0 0)
(-0.0062358929 0 0)
(-0.017989323 0 0)
(-0.028865712 0 0)
(-0.038947302 0 0)
(-0.048635936 0 0)
(-0.057991653 0 0)
(-0.067132903 0 0)
(-0.076184025 0 0)
(-0.085079143 0 0)
(-0.093762718 0 0)
(-0.10226124 0 0)
(-0.11060028 0 0)
(-0.11870177 0 0)
(-0.12649059 0 0)
(-0.13388623 0 0)
(-0.14078117 0 0)
(-0.14705401 0 0)
(-0.15258153 0 0)
(-0.15723778 0 0)
(-0.16094251 0 0)
(-0.16367275 0 0)
(-0.16540112 0 0)
(-0.16617478 0 0)
(-0.16609736 0 0)
(-0.16536801 0 0)
(-0.16425637 0 0)
(-0.16306874 0 0)
(-0.16223078 0 0)
(-0.16224238 0 0)
(-0.0062327819 0 0)
(-0.017972997 0 0)
(-0.028826026 0 0)
(-0.038871564 0 0)
(-0.048515762 0 0)
(-0.05782427 0 0)
(-0.066925865 0 0)
(-0.075948474 0 0)
(-0.084829787 0 0)
(-0.093510014 0 0)
(-0.10201903 0 0)
(-0.11040851 0 0)
(-0.11860204 0 0)
(-0.1265255 0 0)
(-0.13411411 0 0)
(-0.14127232 0 0)
(-0.14788139 0 0)
(-0.15381588 0 0)
(-0.15894156 0 0)
(-0.16315113 0 0)
(-0.16638596 0 0)
(-0.1685946 0 0)
(-0.16978127 0 0)
(-0.17000291 0 0)
(-0.1693969 0 0)
(-0.16816348 0 0)
(-0.16660025 0 0)
(-0.16503815 0 0)
(-0.16388533 0 0)
(-0.16367662 0 0)
(-0.0062059036 0 0)
(-0.017960676 0 0)
(-0.028794094 0 0)
(-0.038808512 0 0)
(-0.048412775 0 0)
(-0.057677492 0 0)
(-0.066739943 0 0)
(-0.075732485 0 0)
(-0.084592336 0 0)
(-0.093262828 0 0)
(-0.10177503 0 0)
(-0.110197 0 0)
(-0.11845708 0 0)
(-0.12649434 0 0)
(-0.13425238 0 0)
(-0.14164063 0 0)
(-0.14854514 0 0)
(-0.15485165 0 0)
(-0.16042795 0 0)
(-0.16513791 0 0)
(-0.16888199 0 0)
(-0.17160748 0 0)
(-0.17329358 0 0)
(-0.1739324 0 0)
(-0.17361136 0 0)
(-0.1724734 0 0)
(-0.17075655 0 0)
(-0.16876305 0 0)
(-0.16682589 0 0)
(-0.16538762 0 0)
(-0.16495886 0 0)
(-0.0061752568 0 0)
(-0.017898071 0 0)
(-0.028770533 0 0)
(-0.038759639 0 0)
(-0.048327037 0 0)
(-0.05755005 0 0)
(-0.06657604 0 0)
(-0.075536964 0 0)
(-0.084374255 0 0)
(-0.093029011 0 0)
(-0.10153085 0 0)
(-0.10997311 0 0)
(-0.11828603 0 0)
(-0.12640996 0 0)
(-0.1343047 0 0)
(-0.14189361 0 0)
(-0.14906659 0 0)
(-0.15571088 0 0)
(-0.16169883 0 0)
(-0.1668973 0 0)
(-0.17117077 0 0)
(-0.17443558 0 0)
(-0.17665755 0 0)
(-0.17779305 0 0)
(-0.17787424 0 0)
(-0.17699806 0 0)
(-0.17534153 0 0)
(-0.17314289 0 0)
(-0.17072859 0 0)
(-0.16845059 0 0)
(-0.16673297 0 0)
(-0.16611372 0 0)
(-0.0061485478 0 0)
(-0.017804377 0 0)
(-0.028671513 0 0)
(-0.038725647 0 0)
(-0.048261515 0 0)
(-0.057446864 0 0)
(-0.066436246 0 0)
(-0.07536581 0 0)
(-0.084175599 0 0)
(-0.092810184 0 0)
(-0.10129769 0 0)
(-0.10974807 0 0)
(-0.11809301 0 0)
(-0.12628537 0 0)
(-0.13429563 0 0)
(-0.14205611 0 0)
(-0.14945877 0 0)
(-0.15640322 0 0)
(-0.1627712 0 0)
(-0.16842189 0 0)
(-0.17321397 0 0)
(-0.17703228 0 0)
(-0.17980146 0 0)
(-0.18148432 0 0)
(-0.18207288 0 0)
(-0.18159224 0 0)
(-0.18017467 0 0)
(-0.17800121 0 0)
(-0.17534434 0 0)
(-0.17253161 0 0)
(-0.16991611 0 0)
(-0.16794876 0 0)
(-0.16713836 0 0)
(-0.0061258139 0 0)
(-0.017722641 0 0)
(-0.028519377 0 0)
(-0.038596351 0 0)
(-0.048212645 0 0)
(-0.057363787 0 0)
(-0.066322479 0 0)
(-0.075219033 0 0)
(-0.084001593 0 0)
(-0.092613057 0 0)
(-0.1010763 0 0)
(-0.10952589 0 0)
(-0.1178934 0 0)
(-0.12613321 0 0)
(-0.13423109 0 0)
(-0.14213533 0 0)
(-0.14974131 0 0)
(-0.15695416 0 0)
(-0.1636575 0 0)
(-0.16972241 0 0)
(-0.17501045 0 0)
(-0.17938195 0 0)
(-0.18272656 0 0)
(-0.18498637 0 0)
(-0.18613451 0 0)
(-0.18614965 0 0)
(-0.18510475 0 0)
(-0.18313943 0 0)
(-0.1804669 0 0)
(-0.17735852 0 0)
(-0.1741612 0 0)
(-0.17124193 0 0)
(-0.16902997 0 0)
(-0.16805655 0 0)
(-0.0061070011 0 0)
(-0.017652239 0 0)
(-0.028384878 0 0)
(-0.038393261 0 0)
(-0.048051296 0 0)
(-0.057307459 0 0)
(-0.066234012 0 0)
(-0.075099323 0 0)
(-0.083852313 0 0)
(-0.09243695 0 0)
(-0.10087246 0 0)
(-0.10931523 0 0)
(-0.11769037 0 0)
(-0.12596317 0 0)
(-0.13413064 0 0)
(-0.14215478 0 0)
(-0.14992974 0 0)
(-0.15737326 0 0)
(-0.16438287 0 0)
(-0.1708249 0 0)
(-0.17656506 0 0)
(-0.18146971 0 0)
(-0.18539619 0 0)
(-0.1882491 0 0)
(-0.18997767 0 0)
(-0.19055874 0 0)
(-0.19000979 0 0)
(-0.18839988 0 0)
(-0.18590533 0 0)
(-0.18274045 0 0)
(-0.17920648 0 0)
(-0.17564864 0 0)
(-0.17243031 0 0)
(-0.17000281 0 0)
(-0.16886476 0 0)
(-0.0060923293 0 0)
(-0.017594069 0 0)
(-0.028270152 0 0)
(-0.038214556 0 0)
(-0.047791794 0 0)
(-0.057111526 0 0)
(-0.066174932 0 0)
(-0.075008443 0 0)
(-0.083729692 0 0)
(-0.092286411 0 0)
(-0.10068908 0 0)
(-0.10911845 0 0)
(-0.1174958 0 0)
(-0.12578647 0 0)
(-0.1340016 0 0)
(-0.14212129 0 0)
(-0.15004045 0 0)
(-0.157686 0 0)
(-0.16495992 0 0)
(-0.17173887 0 0)
(-0.17789742 0 0)
(-0.18329668 0 0)
(-0.18778946 0 0)
(-0.19125115 0 0)
(-0.19359466 0 0)
(-0.19477982 0 0)
(-0.19479875 0 0)
(-0.19366488 0 0)
(-0.19149547 0 0)
(-0.18847159 0 0)
(-0.18483617 0 0)
(-0.18088771 0 0)
(-0.17698567 0 0)
(-0.1735006 0 0)
(-0.17086163 0 0)
(-0.16958412 0 0)
(-0.0060816023 0 0)
(-0.017547856 0 0)
(-0.028174058 0 0)
(-0.03806292 0 0)
(-0.047567393 0 0)
(-0.056802079 0 0)
(-0.065953524 0 0)
(-0.074945254 0 0)
(-0.083637376 0 0)
(-0.092162482 0 0)
(-0.10052772 0 0)
(-0.10894223 0 0)
(-0.11731174 0 0)
(-0.12560993 0 0)
(-0.13385813 0 0)
(-0.14205547 0 0)
(-0.1500905 0 0)
(-0.15790301 0 0)
(-0.16541226 0 0)
(-0.17249365 0 0)
(-0.17902282 0 0)
(-0.18487557 0 0)
(-0.18990673 0 0)
(-0.19396708 0 0)
(-0.1969394 0 0)
(-0.19875707 0 0)
(-0.19937934 0 0)
(-0.19881149 0 0)
(-0.19710774 0 0)
(-0.19438268 0 0)
(-0.19085243 0 0)
(-0.18675768 0 0)
(-0.18242263 0 0)
(-0.17820038 0 0)
(-0.17445372 0 0)
(-0.17162993 0 0)
(-0.17021178 0 0)
(-0.006075248 0 0)
(-0.017514122 0 0)
(-0.028098393 0 0)
(-0.03793641 0 0)
(-0.047374182 0 0)
(-0.056530069 0 0)
(-0.065594958 0 0)
(-0.074697531 0 0)
(-0.083571197 0 0)
(-0.09206478 0 0)
(-0.10039474 0 0)
(-0.1087883 0 0)
(-0.11714666 0 0)
(-0.12544255 0 0)
(-0.13370815 0 0)
(-0.1419632 0 0)
(-0.15009259 0 0)
(-0.15804732 0 0)
(-0.16575454 0 0)
(-0.17309799 0 0)
(-0.17996577 0 0)
(-0.18623249 0 0)
(-0.19175673 0 0)
(-0.19639304 0 0)
(-0.19999508 0 0)
(-0.20246125 0 0)
(-0.20373075 0 0)
(-0.20378057 0 0)
(-0.20263386 0 0)
(-0.2003469 0 0)
(-0.19707919 0 0)
(-0.19304839 0 0)
(-0.18851934 0 0)
(-0.18381159 0 0)
(-0.1792863 0 0)
(-0.17530803 0 0)
(-0.17230287 0 0)
(-0.17076583 0 0)
(-0.0060728684 0 0)
(-0.017492908 0 0)
(-0.028042173 0 0)
(-0.037837374 0 0)
(-0.04721636 0 0)
(-0.056301275 0 0)
(-0.065281696 0 0)
(-0.074284744 0 0)
(-0.083294873 0 0)
(-0.091997332 0 0)
(-0.10028645 0 0)
(-0.10866013 0 0)
(-0.11700249 0 0)
(-0.12528913 0 0)
(-0.13356079 0 0)
(-0.14186059 0 0)
(-0.15006289 0 0)
(-0.15813 0 0)
(-0.166008 0 0)
(-0.17358205 0 0)
(-0.18074273 0 0)
(-0.18738011 0 0)
(-0.19336077 0 0)
(-0.19853144 0 0)
(-0.20274045 0 0)
(-0.20586092 0 0)
(-0.2077999 0 0)
(-0.20850932 0 0)
(-0.20797124 0 0)
(-0.20623069 0 0)
(-0.20338124 0 0)
(-0.19957941 0 0)
(-0.19507454 0 0)
(-0.19012596 0 0)
(-0.1850743 0 0)
(-0.18026913 0 0)
(-0.17606389 0 0)
(-0.17290035 0 0)
(-0.17124532 0 0)
(-0.0060750183 0 0)
(-0.017484358 0 0)
(-0.028006927 0 0)
(-0.037764491 0 0)
(-0.047090938 0 0)
(-0.056111501 0 0)
(-0.065017709 0 0)
(-0.073926189 0 0)
(-0.082826156 0 0)
(-0.091684922 0 0)
(-0.10021334 0 0)
(-0.10856289 0 0)
(-0.11688407 0 0)
(-0.12515607 0 0)
(-0.13342446 0 0)
(-0.14175337 0 0)
(-0.15001062 0 0)
(-0.15816984 0 0)
(-0.16618823 0 0)
(-0.17395525 0 0)
(-0.18137667 0 0)
(-0.18834707 0 0)
(-0.19473441 0 0)
(-0.20039588 0 0)
(-0.20518131 0 0)
(-0.20894353 0 0)
(-0.21156058 0 0)
(-0.21295645 0 0)
(-0.21308628 0 0)
(-0.21195797 0 0)
(-0.20963591 0 0)
(-0.20621837 0 0)
(-0.20190108 0 0)
(-0.19693288 0 0)
(-0.19159212 0 0)
(-0.18621147 0 0)
(-0.18114321 0 0)
(-0.17673762 0 0)
(-0.17341979 0 0)
(-0.1716656 0 0)
(-0.01748889 0 0)
(-0.0060803522 0 0)
(-0.027992056 0 0)
(-0.037719539 0 0)
(-0.047000986 0 0)
(-0.055964628 0 0)
(-0.064800036 0 0)
(-0.073620606 0 0)
(-0.082418841 0 0)
(-0.091160163 0 0)
(-0.099866436 0 0)
(-0.10849417 0 0)
(-0.11679742 0 0)
(-0.12504905 0 0)
(-0.13330427 0 0)
(-0.1416529 0 0)
(-0.14994954 0 0)
(-0.15817751 0 0)
(-0.16631259 0 0)
(-0.17424529 0 0)
(-0.18188658 0 0)
(-0.18914667 0 0)
(-0.19590538 0 0)
(-0.20201583 0 0)
(-0.20733048 0 0)
(-0.21170542 0 0)
(-0.21499317 0 0)
(-0.21708522 0 0)
(-0.21791468 0 0)
(-0.21745766 0 0)
(-0.21573061 0 0)
(-0.21282177 0 0)
(-0.20886135 0 0)
(-0.20404153 0 0)
(-0.19863892 0 0)
(-0.19292292 0 0)
(-0.18724228 0 0)
(-0.18193147 0 0)
(-0.1773301 0 0)
(-0.17387817 0 0)
(-0.17202724 0 0)
(-0.027998482 0 0)
(-0.017503785 0 0)
(-0.0060895133 0 0)
(-0.03770174 0 0)
(-0.04694507 0 0)
(-0.055857925 0 0)
(-0.064631089 0 0)
(-0.07336934 0 0)
(-0.082067859 0 0)
(-0.090695538 0 0)
(-0.099283754 0 0)
(-0.10812724 0 0)
(-0.11673923 0 0)
(-0.12496932 0 0)
(-0.13320986 0 0)
(-0.14156528 0 0)
(-0.14988675 0 0)
(-0.15816687 0 0)
(-0.1663949 0 0)
(-0.17446157 0 0)
(-0.18229229 0 0)
(-0.18980734 0 0)
(-0.1968903 0 0)
(-0.20340367 0 0)
(-0.20920729 0 0)
(-0.21415273 0 0)
(-0.21808801 0 0)
(-0.22087856 0 0)
(-0.22242467 0 0)
(-0.22267659 0 0)
(-0.22161901 0 0)
(-0.21929847 0 0)
(-0.21581905 0 0)
(-0.21131735 0 0)
(-0.20601817 0 0)
(-0.2001959 0 0)
(-0.19413424 0 0)
(-0.18816715 0 0)
(-0.18262931 0 0)
(-0.17785524 0 0)
(-0.17427464 0 0)
(-0.17234255 0 0)
(-0.037712126 0 0)
(-0.028022134 0 0)
(-0.017529796 0 0)
(-0.0061025911 0 0)
(-0.046924681 0 0)
(-0.055793873 0 0)
(-0.064509353 0 0)
(-0.073171548 0 0)
(-0.081779011 0 0)
(-0.090298852 0 0)
(-0.09876605 0 0)
(-0.10748639 0 0)
(-0.1163479 0 0)
(-0.12492416 0 0)
(-0.13314079 0 0)
(-0.14149601 0 0)
(-0.14983232 0 0)
(-0.1581481 0 0)
(-0.1664495 0 0)
(-0.1746274 0 0)
(-0.18261349 0 0)
(-0.19034356 0 0)
(-0.19771549 0 0)
(-0.2045916 0 0)
(-0.21083337 0 0)
(-0.21630285 0 0)
(-0.22084896 0 0)
(-0.2243197 0 0)
(-0.22658644 0 0)
(-0.22756974 0 0)
(-0.22722688 0 0)
(-0.2255697 0 0)
(-0.22265382 0 0)
(-0.21860714 0 0)
(-0.2135929 0 0)
(-0.20783108 0 0)
(-0.20161967 0 0)
(-0.19522963 0 0)
(-0.18900396 0 0)
(-0.18325604 0 0)
(-0.17831505 0 0)
(-0.17462272 0 0)
(-0.17261361 0 0)
(-0.046939652 0 0)
(-0.037745358 0 0)
(-0.028063388 0 0)
(-0.017568328 0 0)
(-0.0061203374 0 0)
(-0.055771794 0 0)
(-0.064436024 0 0)
(-0.073028104 0 0)
(-0.081548016 0 0)
(-0.089964918 0 0)
(-0.098325376 0 0)
(-0.10692566 0 0)
(-0.11564817 0 0)
(-0.12450167 0 0)
(-0.13310853 0 0)
(-0.14145464 0 0)
(-0.1497943 0 0)
(-0.158131 0 0)
(-0.16648798 0 0)
(-0.17475189 0 0)
(-0.18286649 0 0)
(-0.1907809 0 0)
(-0.1983996 0 0)
(-0.20559281 0 0)
(-0.21223327 0 0)
(-0.21818271 0 0)
(-0.22329432 0 0)
(-0.2274167 0 0)
(-0.23039412 0 0)
(-0.23211451 0 0)
(-0.23251311 0 0)
(-0.23157006 0 0)
(-0.22930643 0 0)
(-0.22580796 0 0)
(-0.22121418 0 0)
(-0.21569549 0 0)
(-0.2094972 0 0)
(-0.20291398 0 0)
(-0.1962252 0 0)
(-0.18975246 0 0)
(-0.18380917 0 0)
(-0.17872122 0 0)
(-0.17492361 0 0)
(-0.17285022 0 0)
(-0.055792115 0 0)
(-0.046983613 0 0)
(-0.037801697 0 0)
(-0.028126379 0 0)
(-0.017620718 0 0)
(-0.0061419489 0 0)
(-0.064411193 0 0)
(-0.072939001 0 0)
(-0.081379252 0 0)
(-0.089700181 0 0)
(-0.097953184 0 0)
(-0.10644175 0 0)
(-0.11503762 0 0)
(-0.12374432 0 0)
(-0.13265994 0 0)
(-0.14143719 0 0)
(-0.14977618 0 0)
(-0.15812617 0 0)
(-0.1665213 0 0)
(-0.17485229 0 0)
(-0.18306903 0 0)
(-0.19113406 0 0)
(-0.19896658 0 0)
(-0.20643962 0 0)
(-0.21342966 0 0)
(-0.21981092 0 0)
(-0.22544191 0 0)
(-0.23016436 0 0)
(-0.23381956 0 0)
(-0.23628 0 0)
(-0.23744092 0 0)
(-0.23724763 0 0)
(-0.23569355 0 0)
(-0.23283235 0 0)
(-0.22875594 0 0)
(-0.2236258 0 0)
(-0.2176337 0 0)
(-0.21101865 0 0)
(-0.20409448 0 0)
(-0.19712287 0 0)
(-0.19042902 0 0)
(-0.18430491 0 0)
(-0.1790768 0 0)
(-0.17518811 0 0)
(-0.17305534 0 0)
(-0.06443444 0 0)
(-0.055848051 0 0)
(-0.047057426 0 0)
(-0.037885655 0 0)
(-0.02821035 0 0)
(-0.017685265 0 0)
(-0.0061681356 0 0)
(-0.072904517 0 0)
(-0.081270334 0 0)
(-0.089500358 0 0)
(-0.097658877 0 0)
(-0.10604019 0 0)
(-0.11451108 0 0)
(-0.12307794 0 0)
(-0.13184306 0 0)
(-0.1409675 0 0)
(-0.14978691 0 0)
(-0.15813728 0 0)
(-0.16655767 0 0)
(-0.17493836 0 0)
(-0.18323457 0 0)
(-0.19142417 0 0)
(-0.19943552 0 0)
(-0.20714619 0 0)
(-0.2144468 0 0)
(-0.2212164 0 0)
(-0.2273166 0 0)
(-0.23259666 0 0)
(-0.23689837 0 0)
(-0.24007468 0 0)
(-0.24199335 0 0)
(-0.24256954 0 0)
(-0.24176655 0 0)
(-0.23960451 0 0)
(-0.2361461 0 0)
(-0.23151113 0 0)
(-0.22586751 0 0)
(-0.21941541 0 0)
(-0.21241205 0 0)
(-0.20516461 0 0)
(-0.19793902 0 0)
(-0.19103347 0 0)
(-0.18474262 0 0)
(-0.17939103 0 0)
(-0.17541868 0 0)
(-0.17323628 0 0)
(-0.072925264 0 0)
(-0.064498029 0 0)
(-0.055937982 0 0)
(-0.047165891 0 0)
(-0.037997496 0 0)
(-0.028316374 0 0)
(-0.017763796 0 0)
(-0.0061980986 0 0)
(-0.081223759 0 0)
(-0.089370892 0 0)
(-0.097435848 0 0)
(-0.10571732 0 0)
(-0.1140754 0 0)
(-0.12250934 0 0)
(-0.13112336 0 0)
(-0.14008068 0 0)
(-0.1492883 0 0)
(-0.1581767 0 0)
(-0.16660879 0 0)
(-0.17502023 0 0)
(-0.18337702 0 0)
(-0.19166508 0 0)
(-0.19982622 0 0)
(-0.20774182 0 0)
(-0.21530874 0 0)
(-0.22241956 0 0)
(-0.22894562 0 0)
(-0.23473623 0 0)
(-0.23963284 0 0)
(-0.24347976 0 0)
(-0.24613637 0 0)
(-0.2474972 0 0)
(-0.24747965 0 0)
(-0.24606676 0 0)
(-0.24329333 0 0)
(-0.23925403 0 0)
(-0.23407078 0 0)
(-0.22793046 0 0)
(-0.22105062 0 0)
(-0.21368015 0 0)
(-0.20613925 0 0)
(-0.19867367 0 0)
(-0.1915798 0 0)
(-0.18513479 0 0)
(-0.17966797 0 0)
(-0.17562311 0 0)
(-0.17339663 0 0)
(-0.08123925 0 0)
(-0.072990369 0 0)
(-0.06460004 0 0)
(-0.056072402 0 0)
(-0.04731116 0 0)
(-0.038137031 0 0)
(-0.028442799 0 0)
(-0.017853954 0 0)
(-0.006232489 0 0)
(-0.089308958 0 0)
(-0.097291509 0 0)
(-0.10547815 0 0)
(-0.11372563 0 0)
(-0.12203462 0 0)
(-0.13051122 0 0)
(-0.13930741 0 0)
(-0.14833566 0 0)
(-0.15765433 0 0)
(-0.16667534 0 0)
(-0.17511165 0 0)
(-0.18350993 0 0)
(-0.19187271 0 0)
(-0.20015563 0 0)
(-0.20824063 0 0)
(-0.21603767 0 0)
(-0.22344902 0 0)
(-0.23035167 0 0)
(-0.2366037 0 0)
(-0.24205031 0 0)
(-0.24653133 0 0)
(-0.24989839 0 0)
(-0.25202796 0 0)
(-0.2528065 0 0)
(-0.25217702 0 0)
(-0.25014365 0 0)
(-0.24676979 0 0)
(-0.24215635 0 0)
(-0.23644948 0 0)
(-0.22983747 0 0)
(-0.22254742 0 0)
(-0.21483848 0 0)
(-0.20702122 0 0)
(-0.19934233 0 0)
(-0.1920685 0 0)
(-0.18548311 0 0)
(-0.17991505 0 0)
(-0.17580525 0 0)
(-0.17354155 0 0)
(-0.08931807 0 0)
(-0.081304986 0 0)
(-0.073101144 0 0)
(-0.064751408 0 0)
(-0.056247247 0 0)
(-0.047490464 0 0)
(-0.038304336 0 0)
(-0.028592191 0 0)
(-0.017958172 0 0)
(-0.0062708189 0 0)
(-0.09722143 0 0)
(-0.10531899 0 0)
(-0.11346692 0 0)
(-0.12165756 0 0)
(-0.12999891 0 0)
(-0.13864144 0 0)
(-0.14749865 0 0)
(-0.15663317 0 0)
(-0.16613382 0 0)
(-0.17521064 0 0)
(-0.18364082 0 0)
(-0.19206202 0 0)
(-0.20044043 0 0)
(-0.20866672 0 0)
(-0.21665656 0 0)
(-0.22432541 0 0)
(-0.23156259 0 0)
(-0.23823065 0 0)
(-0.24417796 0 0)
(-0.2492485 0 0)
(-0.25328761 0 0)
(-0.25614595 0 0)
(-0.2577055 0 0)
(-0.25788939 0 0)
(-0.25664416 0 0)
(-0.25399814 0 0)
(-0.25002733 0 0)
(-0.24486236 0 0)
(-0.23864691 0 0)
(-0.2315845 0 0)
(-0.22391635 0 0)
(-0.2158902 0 0)
(-0.20782376 0 0)
(-0.19994413 0 0)
(-0.19251097 0 0)
(-0.18579723 0 0)
(-0.18013675 0 0)
(-0.1759702 0 0)
(-0.17367507 0 0)
(-0.09723036 0 0)
(-0.089384053 0 0)
(-0.081422718 0 0)
(-0.073266131 0 0)
(-0.064949238 0 0)
(-0.056467197 0 0)
(-0.047706518 0 0)
(-0.038497687 0 0)
(-0.028761501 0 0)
(-0.018074101 0 0)
(-0.0063134233 0 0)
(-0.10524508 0 0)
(-0.11329676 0 0)
(-0.12137552 0 0)
(-0.12959328 0 0)
(-0.13809084 0 0)
(-0.14678461 0 0)
(-0.15573475 0 0)
(-0.16503887 0 0)
(-0.17464754 0 0)
(-0.18378205 0 0)
(-0.19224161 0 0)
(-0.20069448 0 0)
(-0.20903425 0 0)
(-0.21718495 0 0)
(-0.22507499 0 0)
(-0.2326016 0 0)
(-0.23963707 0 0)
(-0.2460378 0 0)
(-0.25164999 0 0)
(-0.25631671 0 0)
(-0.25987936 0 0)
(-0.26220274 0 0)
(-0.26319027 0 0)
(-0.26275813 0 0)
(-0.26088833 0 0)
(-0.25762748 0 0)
(-0.25307803 0 0)
(-0.24737413 0 0)
(-0.24067867 0 0)
(-0.23319165 0 0)
(-0.22516529 0 0)
(-0.21684855 0 0)
(-0.20854945 0 0)
(-0.20049219 0 0)
(-0.1929092 0 0)
(-0.18608046 0 0)
(-0.18033816 0 0)
(-0.1761227 0 0)
(-0.17380079 0 0)
(-0.10525327 0 0)
(-0.097302217 0 0)
(-0.089507783 0 0)
(-0.081601393 0 0)
(-0.073487564 0 0)
(-0.065196772 0 0)
(-0.056726097 0 0)
(-0.047955945 0 0)
(-0.038719622 0 0)
(-0.028952807 0 0)
(-0.018203483 0 0)
(-0.0063516601 0 0)
(-0.11321787 0 0)
(-0.12119151 0 0)
(-0.12928924 0 0)
(-0.13764886 0 0)
(-0.14618909 0 0)
(-0.15497075 0 0)
(-0.16408183 0 0)
(-0.17347801 0 0)
(-0.18319035 0 0)
(-0.19242681 0 0)
(-0.20093367 0 0)
(-0.20936015 0 0)
(-0.2176426 0 0)
(-0.22571742 0 0)
(-0.23349459 0 0)
(-0.24085454 0 0)
(-0.24765994 0 0)
(-0.25376259 0 0)
(-0.25900893 0 0)
(-0.2632373 0 0)
(-0.26629481 0 0)
(-0.26805683 0 0)
(-0.26843726 0 0)
(-0.2673884 0 0)
(-0.26489669 0 0)
(-0.26103652 0 0)
(-0.25591847 0 0)
(-0.24970318 0 0)
(-0.24254629 0 0)
(-0.23465881 0 0)
(-0.22630471 0 0)
(-0.21771771 0 0)
(-0.20920908 0 0)
(-0.2009868 0 0)
(-0.1932724 0 0)
(-0.1863391 0 0)
(-0.1805243 0 0)
(-0.1762658 0 0)
(-0.17392375 0 0)
(-0.11322966 0 0)
(-0.10533121 0 0)
(-0.097437674 0 0)
(-0.0897034 0 0)
(-0.081845082 0 0)
(-0.073762457 0 0)
(-0.065489705 0 0)
(-0.057030764 0 0)
(-0.048241644 0 0)
(-0.038966148 0 0)
(-0.029163696 0 0)
(-0.018300036 0 0)
(-0.0063653172 0 0)
(-0.12110437 0 0)
(-0.12909137 0 0)
(-0.13732158 0 0)
(-0.14571568 0 0)
(-0.15433183 0 0)
(-0.16326085 0 0)
(-0.17245819 0 0)
(-0.18194553 0 0)
(-0.19181164 0 0)
(-0.20116318 0 0)
(-0.20966262 0 0)
(-0.21804841 0 0)
(-0.22627484 0 0)
(-0.234264 0 0)
(-0.2419038 0 0)
(-0.24906733 0 0)
(-0.25561269 0 0)
(-0.26138956 0 0)
(-0.26623719 0 0)
(-0.26999706 0 0)
(-0.27251942 0 0)
(-0.27369811 0 0)
(-0.27347278 0 0)
(-0.27179121 0 0)
(-0.26867906 0 0)
(-0.26422482 0 0)
(-0.25856253 0 0)
(-0.25185305 0 0)
(-0.24426538 0 0)
(-0.23600323 0 0)
(-0.2273423 0 0)
(-0.21850855 0 0)
(-0.20980676 0 0)
(-0.20143954 0 0)
(-0.19360375 0 0)
(-0.18657813 0 0)
(-0.18069931 0 0)
(-0.17638011 0 0)
(-0.17404089 0 0)
(-0.1211156 0 0)
(-0.11331424 0 0)
(-0.10547682 0 0)
(-0.097652433 0 0)
(-0.089968584 0 0)
(-0.082148428 0 0)
(-0.07409341 0 0)
(-0.065830908 0 0)
(-0.057373665 0 0)
(-0.048561829 0 0)
(-0.039242756 0 0)
(-0.029317369 0 0)
(-0.018344374 0 0)
(-0.0063806355 0 0)
(-0.12899757 0 0)
(-0.13710426 0 0)
(-0.14536094 0 0)
(-0.15382586 0 0)
(-0.16257959 0 0)
(-0.1715804 0 0)
(-0.18085341 0 0)
(-0.19048709 0 0)
(-0.20053093 0 0)
(-0.20994396 0 0)
(-0.21841626 0 0)
(-0.22676776 0 0)
(-0.23493244 0 0)
(-0.24281312 0 0)
(-0.25028973 0 0)
(-0.25722768 0 0)
(-0.26348398 0 0)
(-0.26890107 0 0)
(-0.27331619 0 0)
(-0.27657148 0 0)
(-0.27853396 0 0)
(-0.2791112 0 0)
(-0.27825412 0 0)
(-0.27594975 0 0)
(-0.27222655 0 0)
(-0.26720085 0 0)
(-0.26100976 0 0)
(-0.25383687 0 0)
(-0.2458394 0 0)
(-0.23722809 0 0)
(-0.22828793 0 0)
(-0.21922683 0 0)
(-0.21035084 0 0)
(-0.20185163 0 0)
(-0.19390921 0 0)
(-0.18680182 0 0)
(-0.18080188 0 0)
(-0.17647133 0 0)
(-0.17415041 0 0)
(-0.12900927 0 0)
(-0.12120521 0 0)
(-0.11347255 0 0)
(-0.10570805 0 0)
(-0.097943401 0 0)
(-0.090306675 0 0)
(-0.082517472 0 0)
(-0.074476954 0 0)
(-0.066217783 0 0)
(-0.057761446 0 0)
(-0.048915917 0 0)
(-0.039438724 0 0)
(-0.029393595 0 0)
(-0.018393864 0 0)
(-0.0063980261 0 0)
(-0.13700114 0 0)
(-0.14512779 0 0)
(-0.15344519 0 0)
(-0.16203397 0 0)
(-0.17085413 0 0)
(-0.17992104 0 0)
(-0.189323 0 0)
(-0.19912197 0 0)
(-0.20929478 0 0)
(-0.21876101 0 0)
(-0.22721046 0 0)
(-0.2355202 0 0)
(-0.24360375 0 0)
(-0.2513503 0 0)
(-0.25863467 0 0)
(-0.26532121 0 0)
(-0.27125507 0 0)
(-0.27627553 0 0)
(-0.28022293 0 0)
(-0.28294735 0 0)
(-0.28432654 0 0)
(-0.2842901 0 0)
(-0.28281031 0 0)
(-0.27987381 0 0)
(-0.27555116 0 0)
(-0.26996623 0 0)
(-0.26327521 0 0)
(-0.2556596 0 0)
(-0.24728363 0 0)
(-0.23834804 0 0)
(-0.22914954 0 0)
(-0.21988074 0 0)
(-0.21084737 0 0)
(-0.20223124 0 0)
(-0.19419493 0 0)
(-0.18689427 0 0)
(-0.18084713 0 0)
(-0.17656006 0 0)
(-0.17424829 0 0)
(-0.13701007 0 0)
(-0.12910485 0 0)
(-0.12137254 0 0)
(-0.11372083 0 0)
(-0.10602368 0 0)
(-0.098313602 0 0)
(-0.090712172 0 0)
(-0.08294494 0 0)
(-0.0749159 0 0)
(-0.066652102 0 0)
(-0.058187051 0 0)
(-0.049171019 0 0)
(-0.039541526 0 0)
(-0.029477613 0 0)
(-0.018449324 0 0)
(-0.0064172713 0 0)
(-0.14501434 0 0)
(-0.1531963 0 0)
(-0.16162725 0 0)
(-0.17026971 0 0)
(-0.17914291 0 0)
(-0.18833147 0 0)
(-0.19788914 0 0)
(-0.20780199 0 0)
(-0.21809118 0 0)
(-0.22762287 0 0)
(-0.23604966 0 0)
(-0.24429824 0 0)
(-0.25227556 0 0)
(-0.25986084 0 0)
(-0.2669278 0 0)
(-0.27332901 0 0)
(-0.27890413 0 0)
(-0.28349524 0 0)
(-0.28694728 0 0)
(-0.28911131 0 0)
(-0.28988732 0 0)
(-0.28922248 0 0)
(-0.28710317 0 0)
(-0.2835551 0 0)
(-0.27864827 0 0)
(-0.27253244 0 0)
(-0.26536118 0 0)
(-0.25733505 0 0)
(-0.24860315 0 0)
(-0.23936925 0 0)
(-0.22993617 0 0)
(-0.22047841 0 0)
(-0.21130137 0 0)
(-0.20258321 0 0)
(-0.19427475 0 0)
(-0.18687855 0 0)
(-0.1808964 0 0)
(-0.17664062 0 0)
(-0.17433719 0 0)
(-0.14502237 0 0)
(-0.13710817 0 0)
(-0.12928241 0 0)
(-0.12163916 0 0)
(-0.11406204 0 0)
(-0.10642289 0 0)
(-0.098757428 0 0)
(-0.091189482 0 0)
(-0.08343706 0 0)
(-0.075408815 0 0)
(-0.067133078 0 0)
(-0.058491864 0 0)
(-0.049305179 0 0)
(-0.039657535 0 0)
(-0.029571849 0 0)
(-0.018510368 0 0)
(-0.0064388091 0 0)
(-0.15307391 0 0)
(-0.16135522 0 0)
(-0.16983473 0 0)
(-0.1785218 0 0)
(-0.18750116 0 0)
(-0.19683197 0 0)
(-0.20649833 0 0)
(-0.21651641 0 0)
(-0.22693725 0 0)
(-0.23653093 0 0)
(-0.24492186 0 0)
(-0.25308987 0 0)
(-0.26093226 0 0)
(-0.2683329 0 0)
(-0.27514963 0 0)
(-0.28122693 0 0)
(-0.28640988 0 0)
(-0.29054082 0 0)
(-0.29346142 0 0)
(-0.29504272 0 0)
(-0.29520116 0 0)
(-0.29390536 0 0)
(-0.29116384 0 0)
(-0.28700301 0 0)
(-0.28153221 0 0)
(-0.27490305 0 0)
(-0.26728314 0 0)
(-0.25886936 0 0)
(-0.24981143 0 0)
(-0.24030348 0 0)
(-0.2306558 0 0)
(-0.22102459 0 0)
(-0.21172304 0 0)
(-0.20264725 0 0)
(-0.19418613 0 0)
(-0.18687665 0 0)
(-0.18094537 0 0)
(-0.17671685 0 0)