/*--------------------------------*- C++ -*----------------------------------*\
| =========                 |                                                 |
| \\      /  F ield         | OpenFOAM: The Open Source CFD Toolbox           |
|  \\    /   O peration     | Version:  v2012                                 |
|   \\  /    A nd           | Website:  www.openfoam.com                      |
|    \\/     M anipulation  |                                                 |
\*---------------------------------------------------------------------------*/
FoamFile
{
    version     2.0;
    format      ascii;
    class       volScalarField;
    location    "7.493965366";
    object      p;
}
// * * * * * * * * * * * * * * * * * * * * * * * * * * * * * * * * * * * * * //

dimensions      [0 2 -2 0 0 0 0];


internalField   nonuniform List<scalar> 
9200
(
-0.0011573296
-0.0011112424
-0.0028884765
-0.0010428994
-0.0027773813
-0.0051269133
-0.00095700625
-0.0026070485
-0.0049391424
-0.0073140224
-0.00083873503
-0.0023863101
-0.0046446253
-0.0070587146
-0.0096061477
-0.00071850089
-0.0020948718
-0.0042566796
-0.006649038
-0.0092882405
-0.011987293
-0.00057907183
-0.0017868625
-0.0037549367
-0.0061064287
-0.0087666859
-0.011614758
-0.014483724
-0.00043929968
-0.0014390049
-0.0032120299
-0.0054084828
-0.0080751874
-0.010988583
-0.014065769
-0.017100789
-0.00029385645
-0.0010843036
-0.0026054265
-0.0046441225
-0.0071845482
-0.010158973
-0.013344053
-0.016648964
-0.019841235
-0.0001505453
-0.00071822158
-0.0019796928
-0.0037912071
-0.0062005826
-0.0090848872
-0.012389732
-0.015843972
-0.01936896
-0.022699887
-9.3860021e-06
-0.00035545337
-0.0013345881
-0.0029048147
-0.0050998066
-0.0078889186
-0.011143989
-0.014782646
-0.018496279
-0.022222784
-0.025666558
0.00012634551
1.2746855e-06
-0.00069205959
-0.0019888457
-0.0039477266
-0.0065442053
-0.00974594
-0.013381976
-0.017350171
-0.021301706
-0.025202067
-0.028724843
0.00025544938
0.00034503445
-5.9512424e-05
-0.0010721202
-0.00275201
-0.0051260696
-0.0081628979
-0.011796733
-0.015816775
-0.020098462
-0.024255759
-0.02829272
-0.031854293
0.00037660536
0.00067230287
0.00055171713
-0.00016667629
-0.0015485528
-0.0036454379
-0.0064790849
-0.0099858199
-0.014065408
-0.018461188
-0.023028445
-0.027348054
-0.031475987
-0.035030112
0.00048924489
0.00097987383
0.001135078
0.00071150825
-0.00035436202
-0.0021452667
-0.0047080699
-0.0080410027
-0.012043244
-0.016571972
-0.021323157
-0.026135287
-0.030563198
-0.034728467
-0.038225031
0.00059302373
0.0012661107
0.0016849098
0.0015523899
0.00080939937
-0.00064785231
-0.0028996269
-0.005977276
-0.0098477392
-0.014362981
-0.019332792
-0.024405379
-0.029408558
-0.033880697
-0.038023317
-0.041409199
0.00068803028
0.0015300735
0.0021978078
0.002347439
0.0019285316
0.00081991485
-0.0010816228
-0.003850858
-0.0074938632
-0.011934954
-0.016970661
-0.022359418
-0.0277046
-0.03283218
-0.037275826
-0.041330733
-0.044552047
0.0007745843
0.0017715552
0.0026718096
0.0030911602
0.002990992
0.0022389248
0.00071275451
-0.0016952886
-0.0050434688
-0.0093007851
-0.014337728
-0.019888131
-0.025657893
-0.031211492
-0.036384665
-0.040720048
-0.044619241
-0.047622412
0.00085294665
0.0019909282
0.0031062638
0.0037802087
0.0039885419
0.0035928301
0.0024586658
0.0004494852
-0.0025354538
-0.0065264285
-0.011442427
-0.017089276
-0.023132709
-0.029227864
-0.034910281
-0.040039646
-0.044182045
-0.047856349
-0.050590129
0.00092351249
0.0021889045
0.0035015974
0.0044131082
0.0049159141
0.0048698228
0.0041345054
0.0025520566
-1.6861161e-05
-0.0036556309
-0.0083527579
-0.013963624
-0.020219654
-0.026715621
-0.033061728
-0.038778889
-0.043766322
-0.047628432
-0.0510097
-0.053426238
0.00098684657
0.0023665248
0.0038589428
0.0049900743
0.0057702899
0.0060619738
0.0057238808
0.0045845187
0.0024735451
-0.00074245033
-0.0051160751
-0.010578616
-0.016908303
-0.023753826
-0.030640248
-0.037144253
-0.042789158
-0.047530424
-0.051024806
-0.054047836
-0.056104288
0.0010435661
0.0025249773
0.0041801191
0.0055123648
0.0065513118
0.0071644119
0.0072152341
0.0065247146
0.0049004642
0.0021664072
-0.0017928695
-0.0069831416
-0.013261937
-0.020316943
-0.02770933
-0.034901697
-0.041452411
-0.046907398
-0.051294869
-0.054336705
-0.056941163
-0.058600479
0.0010942152
0.0026656726
0.0044672152
0.0059823796
0.0072599893
0.0081756774
0.0086006972
0.0083562792
0.0072346354
0.0050272255
0.0015620439
-0.0032429066
-0.0093282106
-0.016460066
-0.02422409
-0.03209484
-0.03948538
-0.045955431
-0.051095049
-0.055021115
-0.057530565
-0.059662601
-0.060894476
0.0011393721
0.0027899692
0.0047227244
0.0064028896
0.0078991158
0.0090960139
0.0098769589
0.010067166
0.0094534871
0.0078022648
0.0048956973
0.0005795554
-0.0051760169
-0.012225768
-0.020226411
-0.028655587
-0.036908649
-0.044367019
-0.050615065
-0.055309807
-0.058669958
-0.060574642
-0.062188199
-0.062969363
0.0011794986
0.0028993669
0.0049490604
0.0067773958
0.0084719276
0.0099283266
0.011042751
0.011651219
0.011539362
0.010461152
0.0081606223
0.004421607
-0.0008742806
-0.007682767
-0.015749575
-0.024607714
-0.033626927
-0.042137062
-0.049511805
-0.055386604
-0.059506736
-0.062202952
-0.063439738
-0.064497573
-0.064812186
0.0012150911
0.0029951786
0.005148899
0.0071092588
0.0089829
0.010675997
0.012100653
0.013104678
0.013481976
0.012978971
0.011316915
0.008225
0.0035048845
-0.0029044198
-0.010857824
-0.019969633
-0.029640776
-0.039140293
-0.047753191
-0.05487527
-0.060219881
-0.063639675
-0.06558319
-0.066100002
-0.066574235
-0.066413896
0.0012464183
0.0030788959
0.0053245803
0.0074023354
0.0094362442
0.011344398
0.013053675
0.014429151
0.015273842
0.015339679
0.014330596
0.011938593
0.0078918436
0.0020290678
-0.0056252377
-0.014796081
-0.024948451
-0.035349253
-0.045182035
-0.053716707
-0.060403899
-0.065060903
-0.067662566
-0.068776614
-0.068533319
-0.068405773
-0.067769315
0.0012738581
0.0031516709
0.0054786937
0.0076599656
0.0098370528
0.011938432
0.013907934
0.015626557
0.016914693
0.017530538
0.017177906
0.015517355
0.012222792
0.0070368882
-0.00013773309
-0.0091570154
-0.019588897
-0.030736446
-0.041739136
-0.0517215
-0.059974158
-0.066036843
-0.06985338
-0.071530929
-0.071752566
-0.070721759
-0.069983804
-0.068876198
0.0012974069
0.0032149784
0.005613251
0.0078859333
0.010189649
0.012464496
0.014668719
0.016703485
0.018404427
0.019548124
0.019839046
0.018927518
0.016439645
0.012041725
0.0055142209
-0.0031400648
-0.013622041
-0.025318604
-0.037366156
-0.048796015
-0.058710189
-0.066460251
-0.071707569
-0.074540731
-0.075203085
-0.074484696
-0.072651633
-0.071303721
-0.069735244
0.0013173054
0.0032696478
0.0057306905
0.0080831762
0.010499118
0.01292786
0.015343788
0.017665118
0.019749678
0.021389083
0.0223058
0.022139933
0.020496113
0.016970911
0.011239883
0.0031576783
-0.0071315079
-0.019138559
-0.032050985
-0.044847314
-0.056483397
-0.066082709
-0.073099535
-0.077346301
-0.079067743
-0.078641291
-0.076951207
-0.07431365
-0.072364507
-0.07035128
0.001329748
0.0033172334
0.0058324436
0.0082552968
0.010769345
0.013335064
0.015939201
0.018520622
0.020954881
0.023059329
0.024570065
0.02513944
0.024350992
0.021763127
0.016951329
0.0096335696
-0.00021632569
-0.012268742
-0.025812047
-0.039828688
-0.053163713
-0.064741766
-0.073757618
-0.07980901
-0.082882227
-0.083382381
-0.081812639
-0.079135346
-0.075702767
-0.073168748
-0.070734174
0.0013395091
0.0033498506
0.0059209506
0.008404443
0.011005242
0.013690954
0.016463158
0.019276492
0.022030651
0.024561583
0.026636035
0.0279111
0.027979408
0.026362393
0.022570068
0.016184877
0.0070122993
-0.0048037468
-0.018702297
-0.033726417
-0.048665279
-0.062270226
-0.073488981
-0.081640249
-0.086500928
-0.088246037
-0.087437199
-0.084689733
-0.081025313
-0.07681798
-0.073722442
-0.070893713
0.0013479863
0.003372151
0.0059811913
0.0085342697
0.011209701
0.014001953
0.016921358
0.019942859
0.02298346
0.025907652
0.028503619
0.030455889
0.031356779
0.030730896
0.028022907
0.022714676
0.014438956
0.0031422625
-0.01080343
-0.0265654
-0.04293602
-0.058540556
-0.07209141
-0.082622037
-0.08962568
-0.093086072
-0.093372129
-0.091190669
-0.08725107
-0.082614291
-0.077661781
-0.074033754
-0.07083177
0.0013553505
0.0033914486
0.0060199539
0.0086222848
0.011387783
0.014271687
0.017322067
0.020525876
0.023825845
0.027103173
0.030185514
0.032769284
0.034478563
0.034831209
0.033255635
0.029130679
0.021948362
0.01144546
-0.002225047
-0.018404981
-0.035963993
-0.053457453
-0.069395857
-0.082521923
-0.09202045
-0.097602907
-0.099476949
-0.098200654
-0.094607984
-0.089481174
-0.083900034
-0.078239756
-0.074111774
-0.070552233
0.0013615403
0.0034082136
0.0060535868
0.0086772939
0.011506484
0.014506942
0.017669472
0.021036144
0.024563946
0.028163335
0.031685706
0.034864284
0.03733328
0.038650368
0.038214476
0.035358882
0.029428495
0.019974315
0.0069073203
-0.009340298
-0.027776346
-0.046964958
-0.06526145
-0.08113225
-0.093429471
-0.10155069
-0.10545901
-0.10559084
-0.1026791
-0.097661648
-0.091370534
-0.084884567
-0.078560545
-0.073967685
-0.070092471
0.0013667721
0.0034222471
0.0060827284
0.0087252864
0.01157733
0.014661143
0.017972705
0.021477738
0.025211716
0.029093393
0.033022344
0.03674212
0.039932789
0.042166762
0.042874552
0.041325554
0.036782502
0.028598379
0.016450721
0.00051051237
-0.018442257
-0.039048434
-0.059583266
-0.078267753
-0.093612655
-0.10465935
-0.11107167
-0.11308356
-0.11135243
-0.10676351
-0.10033165
-0.092915311
-0.085573771
-0.078635716
-0.073617051
-0.06951091
0.0013711077
0.003433742
0.0061071106
0.0087671004
0.011639312
0.014749499
0.018167039
0.021863239
0.025772181
0.029911656
0.034198963
0.038424194
0.04227343
0.045389271
0.047200137
0.046989782
0.043913663
0.037196113
0.026259982
0.011001042
-0.0080612329
-0.029739265
-0.052297465
-0.073772995
-0.092344659
-0.10666506
-0.11604071
-0.12044036
-0.12037257
-0.11669595
-0.1104192
-0.10260541
-0.094116922
-0.08597697
-0.078478424
-0.073076781
-0.06879233
0.0013746314
0.0034426597
0.0061270082
0.0088023764
0.011693365
0.014827509
0.018272923
0.02210301
0.026263594
0.030618496
0.035239236
0.039911679
0.04437934
0.048306481
0.051194792
0.052296971
0.050760236
0.045646106
0.036189254
0.021977996
0.003227974
-0.019105843
-0.04338666
-0.067529831
-0.089421947
-0.10731058
-0.12008939
-0.12739367
-0.12951777
-0.127232
-0.12156672
-0.11362103
-0.10447744
-0.094981433
-0.086106237
-0.078101978
-0.072358209
-0.067884789
0.0013772852
0.0034490616
0.0061423823
0.0088314232
0.011739022
0.014896256
0.018367366
0.022224161
0.026563154
0.031240914
0.036139116
0.041234797
0.046247615
0.050944833
0.05483519
0.057242134
0.057243863
0.053860994
0.046092647
0.033274646
0.015273961
-0.007265255
-0.032875099
-0.059464237
-0.084671962
-0.10635096
-0.12293973
-0.13366583
-0.13853746
-0.13817402
-0.13358053
-0.12592199
-0.11635328
-0.10594873
-0.095518888
-0.085975852
-0.077520576
-0.071471156
-0.066793773
0.001378892
0.0034529242
0.0061533187
0.0088540682
0.011776632
0.014954976
0.01845253
0.022329645
0.026709625
0.031610722
0.036937915
0.04238431
0.04791523
0.053294798
0.058149794
0.061784278
0.063346582
0.061734247
0.055853292
0.044723628
0.027896381
0.0056461427
-0.020843067
-0.049545234
-0.077959758
-0.10356364
-0.12431625
-0.13897133
-0.14716526
-0.14929783
-0.14629309
-0.13935137
-0.1297313
-0.11860904
-0.10702598
-0.095742673
-0.085601746
-0.076750443
-0.070437633
-0.065538647
0.0034542325
0.0013789863
0.0061600073
0.0088704272
0.011805974
0.015003856
0.018527922
0.022422196
0.026837472
0.031781612
0.037407532
0.043415235
0.049366329
0.055400985
0.06111795
0.065953171
0.069003114
0.069229373
0.065333273
0.056176443
0.040913417
0.019446065
-0.0073963354
-0.037800929
-0.06919158
-0.098754323
-0.12395573
-0.14301799
-0.15512225
-0.16035974
-0.15951432
-0.15377599
-0.14449336
-0.13297601
-0.12038951
-0.10772093
-0.095669155
-0.085000802
-0.07580775
-0.069288703
-0.064159934
0.0061625281
0.0034524441
0.0013775309
0.0088806976
0.011827672
0.015042437
0.018595111
0.022499274
0.026952003
0.031924517
0.037621682
0.044028277
0.050672367
0.057238597
0.063794573
0.069709498
0.074243018
0.076249837
0.074471367
0.067462852
0.054145887
0.033949858
0.0072968284
-0.024290243
-0.058330592
-0.09176406
-0.12161239
-0.14551654
-0.16211558
-0.17110108
-0.1730329
-0.16904565
-0.16054323
-0.14897098
-0.13564867
-0.12170319
-0.1080496
-0.095317093
-0.084190749
-0.074706083
-0.068034172
-0.062723681
0.0088847682
0.0061602484
0.0034475342
0.0013749555
0.01184075
0.015070554
0.018655152
0.022562741
0.027048017
0.032052917
0.037792627
0.044329217
0.051448078
0.05889686
0.066140279
0.073122693
0.078998712
0.082821789
0.083133266
0.078490619
0.067393998
0.048953182
0.023064933
-0.0091482848
-0.045374058
-0.08248379
-0.1170671
-0.14618312
-0.16784682
-0.18124452
-0.18662265
-0.18498883
-0.17777414
-0.1665355
-0.15276381
-0.13775196
-0.1225649
-0.10803154
-0.09470601
-0.083190851
-0.073460872
-0.066651725
-0.061231643
0.011846074
0.0088815059
0.0061528551
0.0034401357
0.0013714853
0.015083764
0.018708301
0.022611369
0.027129996
0.03215829
0.037940226
0.044582198
0.05183355
0.059885337
0.06826819
0.076126539
0.083359873
0.088838328
0.091336521
0.089082691
0.080529544
0.064234531
0.039689374
0.0074862537
-0.030403687
-0.070838726
-0.11013798
-0.14474988
-0.17201306
-0.19050142
-0.20003663
-0.20142142
-0.1960592
-0.18560776
-0.17171366
-0.15586543
-0.13929781
-0.12299465
-0.10768805
-0.093855405
-0.082020625
-0.07210053
-0.06517748
-0.059692063
0.0150884
0.011841489
0.0088707292
0.006141468
0.0034301751
0.001367167
0.018754996
0.022642969
0.027192092
0.032249408
0.038047765
0.044821755
0.052158354
0.060374726
0.069558111
0.078871802
0.08721489
0.094414815
0.098923694
0.099240956
0.093330534
0.079627961
0.056941007
0.025396755
-0.013504059
-0.056838511
-0.10067495
-0.14097258
-0.17431677
-0.19857097
-0.21301389
-0.21813897
-0.21526283
-0.20610765
-0.19248095
-0.17605764
-0.15828249
-0.14030571
-0.1230166
-0.10704125
-0.092786622
-0.080696807
-0.070636922
-0.063624574
-0.058107382
0.018800441
0.015082065
0.011828734
0.0088538183
0.0061256367
0.0034177117
0.0013618831
0.022668802
0.027235511
0.032319595
0.038118893
0.045029302
0.052468962
0.060780013
0.070217698
0.080569399
0.090776463
0.099370567
0.10603903
0.10874765
0.10577521
0.094868776
0.074618731
0.044367568
0.0051313924
-0.040494432
-0.088603738
-0.13463144
-0.17446891
-0.20514901
-0.22527734
-0.2349234
-0.23523146
-0.22795127
-0.21503204
-0.19835388
-0.17956546
-0.16003265
-0.14080056
-0.12265675
-0.10611703
-0.091524124
-0.079237329
-0.069083279
-0.062006327
-0.056479512
0.022662953
0.018788107
0.015068637
0.011806215
0.0088309164
0.0061053128
0.0034026562
0.0013555191
0.027265183
0.03239378
0.038136603
0.045215066
0.052742682
0.061157934
0.070765373
0.081483989
0.093027366
0.10401334
0.11240672
0.11777539
0.11757783
0.1099047
0.092423987
0.064169874
0.025328145
-0.021952296
-0.07384898
-0.12556539
-0.17219667
-0.20992841
-0.23654124
-0.25154018
-0.25580067
-0.2510402
-0.23933492
-0.22276464
-0.20321127
-0.18225068
-0.16114139
-0.14081068
-0.12194126
-0.10494391
-0.090090377
-0.077659976
-0.067450032
-0.060332963
-0.054818805
0.027235079
0.022655615
0.01873119
0.015041419
0.011776414
0.0088014661
0.0060804423
0.0033850186
0.0013478537
0.032461143
0.038109854
0.045374395
0.052995545
0.061474009
0.071280239
0.082235861
0.09433087
0.10702199
0.11846626
0.12592887
0.12893487
0.12437739
0.11026931
0.084489728
0.046842523
-0.0013143516
-0.056485052
-0.11361033
-0.16726295
-0.21260843
-0.24651003
-0.26774537
-0.27679247
-0.2752692
-0.26534643
-0.2493074
-0.22927089
-0.20705971
-0.18413824
-0.16163947
-0.14036707
-0.12090156
-0.10354691
-0.088505193
-0.075976859
-0.065746498
-0.058617208
-0.053148242
0.032525445
0.027263806
0.022646189
0.018672097
0.015001741
0.011738489
0.0087657627
0.0060509747
0.0033646693
0.0013387978
0.037934644
0.045515353
0.053229506
0.061744588
0.071713794
0.082946122
0.095382019
0.10892401
0.12251357
0.13381287
0.13931072
0.13850077
0.12772443
0.10520211
0.069375917
0.021179195
-0.036513127
-0.098750811
-0.15942587
-0.21289996
-0.25488631
-0.28328349
-0.29802223
-0.30052441
-0.29302106
-0.27799093
-0.25780688
-0.23454622
-0.20992234
-0.18526113
-0.16156355
-0.13950679
-0.11956733
-0.10195082
-0.086780624
-0.074197348
-0.063988132
-0.056876611
-0.051484641
0.037685825
0.032575771
0.027226131
0.022628742
0.018604707
0.014953347
0.011692398
0.0087237406
0.0060167817
0.0033416631
0.0013282022
0.045660243
0.053441605
0.061957008
0.072093884
0.083536973
0.096379835
0.11042808
0.12532356
0.13927546
0.14950105
0.15158162
0.14501365
0.12581574
0.092766301
0.045288276
-0.014147681
-0.08086872
-0.14857267
-0.21050943
-0.2613652
-0.29789315
-0.31929844
-0.32669103
-0.32230994
-0.30882549
-0.28887423
-0.26481236
-0.23860933
-0.21183357
-0.18566161
-0.16095972
-0.13828067
-0.11797765
-0.10016932
-0.084925441
-0.072343004
-0.062200536
-0.055123458
-0.049809605
0.045939016
0.037675217
0.032390596
0.027151258
0.022583847
0.018536267
0.014894309
0.011638582
0.0086752544
0.0059779332
0.0033157474
0.0013149288
0.053672387
0.062089677
0.072401904
0.084044796
0.09719997
0.1118595
0.12751925
0.14342923
0.15687594
0.16462466
0.16127326
0.14655628
0.11648886
0.070816887
0.010482367
-0.06013016
-0.13446592
-0.20523611
-0.26564014
-0.31129621
-0.34042389
-0.35365543
-0.35316971
-0.34182225
-0.32253167
-0.29795229
-0.27033602
-0.24149555
-0.21284061
-0.18539489
-0.15988347
-0.13672016
-0.11614532
-0.098211246
-0.08296856
-0.070455649
-0.060400706
-0.053346817
-0.048005866
0.053955425
0.045783343
0.037977819
0.032168701
0.027105542
0.022518219
0.018460829
0.014826586
0.011576534
0.008620446
0.0059341129
0.0032796389
0.0012943608
0.062164755
0.07264614
0.084442211
0.097884083
0.11303422
0.12960044
0.14667818
0.1629686
0.17455209
0.17772824
0.16638675
0.14075919
0.097255036
0.037151157
-0.036500471
-0.11720406
-0.196747
-0.267452
-0.32321659
-0.36118546
-0.38130259
-0.38556754
-0.37700295
-0.35884088
-0.33406385
-0.3052267
-0.27441409
-0.24325863
-0.21300934
-0.18452703
-0.15837778
-0.1348407
-0.1140778
-0.096115815
-0.080971837
-0.068560887
-0.058562578
-0.051414684
-0.046057096
0.062029159
0.053823919
0.045573197
0.038253413
0.032125981
0.027031787
0.02244323
0.018376748
0.014749401
0.011506523
0.0085589339
0.0058690404
0.0032286812
0.0012701086
0.072835394
0.084750078
0.098402974
0.11399154
0.13132341
0.14973136
0.16779677
0.18338809
0.19097056
0.18675192
0.16438646
0.12479155
0.06543742
-0.010234107
-0.096551239
-0.18506079
-0.26642206
-0.33338432
-0.38137924
-0.40951349
-0.41947686
-0.41440776
-0.39787626
-0.37324694
-0.34340898
-0.31073299
-0.27710596
-0.24397732
-0.21242003
-0.18311115
-0.15645923
-0.13265002
-0.11182687
-0.093971738
-0.078971729
-0.06660102
-0.056487054
-0.049354859
-0.044031313
0.072907631
0.062029854
0.053503516
0.045440174
0.038245332
0.032100679
0.026943547
0.022352426
0.01828335
0.014662912
0.011428235
0.0084646027
0.0057759803
0.0031703034
0.0012419783
0.084956492
0.098772314
0.11471693
0.13270648
0.15231271
0.17229364
0.19054901
0.20357505
0.20414864
0.1890193
0.15213217
0.095477693
0.018436243
-0.072795965
-0.16973351
-0.26249322
-0.34144398
-0.40078013
-0.43818505
-0.45488309
-0.45409151
-0.43973504
-0.41561323
-0.38500859
-0.35060159
-0.31453934
-0.27850334
-0.24374811
-0.21113753
-0.18116561
-0.15413514
-0.13021633
-0.10951444
-0.091829105
-0.076872561
-0.064250853
-0.054285119
-0.047209119
-0.041930739
0.085072521
0.07285775
0.062011565
0.053230106
0.045257398
0.038162184
0.03203417
0.026841185
0.022247274
0.018179931
0.014566891
0.011302268
0.0083288909
0.005669193
0.0031031207
0.0012099016
0.098976987
0.11521358
0.13377837
0.15437836
0.17620509
0.19717831
0.21408207
0.22172792
0.21146789
0.18108794
0.12596832
0.049552277
-0.045869207
-0.15109464
-0.2550556
-0.34728973
-0.41912557
-0.46718725
-0.49179425
-0.49613407
-0.48453417
-0.46129559
-0.43015692
-0.39416226
-0.3557218
-0.31675607
-0.27872419
-0.24264965
-0.20918248
-0.17869769
-0.15149356
-0.12770328
-0.10720778
-0.08953991
-0.074186363
-0.061760336
-0.0519851
-0.044985284
-0.039757559
0.099083347
0.085004994
0.072663265
0.061865579
0.052967337
0.045077556
0.038034233
0.031938636
0.026720342
0.022129649
0.018065485
0.014404964
0.011117518
0.0081732139
0.0055464888
0.0030261678
0.0011735357
0.11550492
0.1345455
0.15604278
0.17937072
0.20309701
0.22381569
0.23678419
0.23545916
0.20941378
0.1588054
0.081957067
-0.015899467
-0.12866938
-0.24448332
-0.35024721
-0.43630563
-0.49640392
-0.53020841
-0.5406462
-0.53242312
-0.51044644
-0.47900061
-0.4415458
-0.4008033
-0.35890358
-0.31752598
-0.27786551
-0.24070545
-0.20656222
-0.17581979
-0.14874896
-0.12519933
-0.104695
-0.086395152
-0.071344165
-0.059160365
-0.049605437
-0.042683879
-0.037513858
0.11562905
0.099013587
0.084795704
0.072407275
0.061680031
0.052714199
0.044859651
0.037883606
0.031807903
0.026586983
0.021996664
0.017862315
0.014162608
0.01090552
0.0079942857
0.0054062693
0.0029380034
0.0011325878
0.13505541
0.15734481
0.18207385
0.20803158
0.23280788
0.25073404
0.25659441
0.24138499
0.19358392
0.11750436
0.016330018
-0.10286825
-0.229837
-0.35074394
-0.45171798
-0.52577196
-0.57017815
-0.58775731
-0.5835889
-0.56325097
-0.53169981
-0.492895
-0.44989939
-0.40509123
-0.36032008
-0.31696803
-0.27595587
-0.23792388
-0.20341872
-0.1728081
-0.14601562
-0.122413
-0.10098706
-0.083070478
-0.068375103
-0.056485447
-0.047143305
-0.040308027
-0.035201981
0.13531115
0.11554919
0.098815865
0.084520939
0.072112894
0.061426809
0.05244034
0.044624714
0.037696837
0.031657765
0.026431888
0.021746078
0.017550618
0.013884578
0.010661756
0.0077897086
0.0052461497
0.0028374197
0.0010865666
0.15834596
0.18438902
0.21245894
0.2407742
0.26391051
0.27629908
0.27037091
0.23507036
0.15882116
0.052423954
-0.073807564
-0.21192875
-0.34742808
-0.46585153
-0.55488897
-0.61173317
-0.63767051
-0.63826173
-0.61993282
-0.58843874
-0.54835392
-0.5031343
-0.45541819
-0.40723968
-0.36011889
-0.31511694
-0.27300463
-0.2344825
-0.20010223
-0.16980808
-0.14290534
-0.11800247
-0.097069532
-0.079600429
-0.065337385
-0.053727488
-0.044603292
-0.037860614
-0.032824585
0.15898418
0.13523476
0.11530274
0.098531127
0.084169729
0.071762212
0.061127642
0.052148186
0.044360364
0.037493274
0.031472188
0.026124022
0.021349796
0.017193364
0.013564821
0.010382938
0.0075559586
0.0050640463
0.0027229168
0.0010349972
0.1863518
0.21655122
0.24774454
0.2758896
0.29528333
0.29771458
0.27375629
0.21110798
0.099501163
-0.040462454
-0.1898683
-0.34161957
-0.4771325
-0.58429533
-0.65476165
-0.6905356
-0.69674606
-0.68077057
-0.64943237
-0.60806988
-0.56061521
-0.50997587
-0.45836772
-0.40743654
-0.35834418
-0.31198504
-0.26923126
-0.23081953
-0.19679557
-0.16631454
-0.1376395
-0.11334613
-0.092982691
-0.076074828
-0.062215361
-0.050892537
-0.04198874
-0.035345202
-0.030384372
0.18777613
0.15899573
0.13486038
0.1149092
0.098124779
0.083733245
0.071356476
0.060791236
0.051826168
0.044085204
0.037246467
0.031090753
0.025621624
0.020896565
0.016782074
0.013199214
0.010064261
0.0072899851
0.0048573598
0.0025931469
0.00097728681
0.2201977
0.25454172
0.28724683
0.31310124
0.32461621
0.31075773
0.26134039
0.1631368
0.010409009
-0.16367422
-0.3311416
-0.48746286
-0.61244827
-0.69983987
-0.74655559
-0.75930751
-0.74610509
-0.71494719
-0.67220713
-0.62242541
-0.56881803
-0.51375574
-0.45898738
-0.40574469
-0.35501407
-0.30784122
-0.26517706
-0.22716213
-0.19285354
-0.1600142
-0.13208523
-0.10849299
-0.088858494
-0.072467257
-0.059017535
-0.047983732
-0.039304386
-0.032765485
-0.027883941
0.22295562
0.18804467
0.15841436
0.13421004
0.11435087
0.097570509
0.08320268
0.070904664
0.060405714
0.051488497
0.043763287
0.036756872
0.030452087
0.025050115
0.0203735
0.016312214
0.012781463
0.0097016669
0.0069879862
0.0046236996
0.002446588
0.00091286561
0.260806
0.298349
0.33050714
0.35079431
0.34773564
0.31024076
0.22636104
0.084644927
-0.11231563
-0.31758069
-0.49337471
-0.64175888
-0.74570836
-0.80631782
-0.82639305
-0.81627172
-0.78529318
-0.74096593
-0.68864924
-0.63195211
-0.57339717
-0.51478267
-0.45736452
-0.40218898
-0.35045495
-0.3033467
-0.26112114
-0.22269995
-0.18531535
-0.15337731
-0.12630153
-0.10362912
-0.084656205
-0.068788838
-0.055746907
-0.045006614
-0.036554926
-0.03012465
-0.025326279
0.26557702
0.2236748
0.18710603
0.15731322
0.13334547
0.1135908
0.096867106
0.082595313
0.070388851
0.059988193
0.051099284
0.043139412
0.035936574
0.029731055
0.024389015
0.019776735
0.015775563
0.012306537
0.0092900504
0.0066465455
0.0043603532
0.0022818601
0.00084112235
0.30852463
0.3476776
0.37624389
0.38450959
0.35975229
0.28913715
0.16106282
-0.030020601
-0.27072759
-0.498575
-0.66772405
-0.79508212
-0.86904998
-0.89855189
-0.8918167
-0.86079719
-0.81456384
-0.75938053
-0.69936536
-0.63722025
-0.57475688
-0.51318122
-0.45353808
-0.39716164
-0.34546599
-0.29884122
-0.2560605
-0.2136965
-0.17738708
-0.14647301
-0.1205435
-0.09869476
-0.080390404
-0.065041665
-0.052410207
-0.041966398
-0.033743813
-0.02742448
-0.02271571
0.31621567
0.26687952
0.22196665
0.18527693
0.15589563
0.13223635
0.11262988
0.096041693
0.081890959
0.069830724
0.059511147
0.050318161
0.042098676
0.03502002
0.028896181
0.023636633
0.019095372
0.015166359
0.011767858
0.008825004
0.0062617522
0.0040648602
0.0020975439
0.00076150338
0.36324264
0.40130155
0.42097741
0.40981922
0.35336262
0.23844428
0.057609352
-0.18531365
-0.46339494
-0.6964504
-0.84286015
-0.93757039
-0.97557722
-0.9732129
-0.94195554
-0.89324426
-0.83469906
-0.77102121
-0.705106
-0.63876152
-0.57307844
-0.50901231
-0.44797618
-0.39161878
-0.34045736
-0.29309919
-0.245339
-0.20424323
-0.16914734
-0.13964312
-0.11472655
-0.093708474
-0.076061797
-0.06123332
-0.049013447
-0.038865757
-0.030871125
-0.02467074
-0.020055292
0.37484533
0.31836348
0.26393354
0.21898989
0.1829326
0.15417294
0.1308823
0.11149099
0.09506964
0.081131018
0.0692048
0.058514956
0.049015192
0.040941474
0.033962384
0.027949467
0.022778266
0.018323444
0.014476297
0.011160094
0.0083013755
0.0058301849
0.0037346831
0.0018924268
0.00067350328
0.42389421
0.45636086
0.45984319
0.41925259
0.31902817
0.14905901
-0.089908186
-0.38343288
-0.68059698
-0.89717758
-1.006807
-1.060155
-1.060735
-1.0291462
-0.97735686
-0.91471134
-0.84684787
-0.77687767
-0.70657366
-0.63683922
-0.5684556
-0.50283048
-0.44181192
-0.38605214
-0.33394935
-0.28038627
-0.2341002
-0.19442785
-0.16104581
-0.13277116
-0.10887406
-0.088668712
-0.071678797
-0.05737011
-0.045558557
-0.035700409
-0.027947183
-0.02186835
-0.017348442
0.44047648
0.37830969
0.31387733
0.25921774
0.21519352
0.18017209
0.1521672
0.12927967
0.11013969
0.094025727
0.080280621
0.067903973
0.056870858
0.047563802
0.039611064
0.032769425
0.02687149
0.021808387
0.017450559
0.013699339
0.01047675
0.0077149131
0.0053482812
0.0033676974
0.0016654466
0.00057674637
0.48778804
0.5079221
0.48553931
0.40304973
0.24709765
0.014257006
-0.28623117
-0.6193373
-0.90592074
-1.0862974
-1.1477287
-1.1566429
-1.1229031
-1.0671375
-0.99953689
-0.92677881
-0.85229817
-0.77788511
-0.70415013
-0.63159727
-0.56154052
-0.49596649
-0.43563152
-0.37869526
-0.31895598
-0.26707967
-0.22244253
-0.18483234
-0.1529254
-0.12588616
-0.10298109
-0.083584457
-0.067247836
-0.053452329
-0.042035846
-0.032485692
-0.024977714
-0.019022545
-0.014598372
0.5107018
0.44606313
0.37259294
0.30668487
0.25323993
0.21081649
0.17707675
0.14982985
0.12737947
0.10869327
0.092846443
0.078572225
0.065804615
0.055036473
0.045899831
0.038115844
0.031416513
0.025657742
0.020714065
0.016470394
0.012827555
0.0097129184
0.007061073
0.0048132264
0.002962048
0.0014159084
0.00047114741
0.55020532
0.54881116
0.48830541
0.34969651
0.12501257
-0.17760981
-0.53936127
-0.87205147
-1.1237714
-1.2484289
-1.2570913
-1.2248502
-1.1631106
-1.0892688
-1.0105399
-0.93108202
-0.85230531
-0.77459032
-0.69805315
-0.62379738
-0.55388226
-0.48911611
-0.42734994
-0.36112564
-0.30328165
-0.25329049
-0.21110733
-0.17524863
-0.14482175
-0.11897832
-0.097056729
-0.078461765
-0.062767226
-0.049463078
-0.03846662
-0.029228685
-0.021968987
-0.016137788
-0.011808632
0.58113484
0.52011382
0.44022742
0.36207604
0.29754874
0.24645006
0.20600998
0.1735546
0.1470966
0.12534726
0.1070368
0.090597278
0.07587814
0.063467212
0.052943111
0.044033219
0.036426347
0.029900216
0.024292483
0.019489191
0.01537352
0.011855708
0.0088631161
0.0063365963
0.0042225769
0.0025165843
0.0011435253
0.00035682222
0.60484029
0.56984838
0.45571904
0.24222869
-0.066622108
-0.43894717
-0.81592591
-1.1268645
-1.3149336
-1.3719803
-1.3319468
-1.266146
-1.1842614
-1.0982826
-1.0128562
-0.92936735
-0.84763906
-0.76731399
-0.68916689
-0.61522604
-0.54630431
-0.47984588
-0.40691583
-0.3427734
-0.28705352
-0.23994995
-0.19982359
-0.16572008
-0.13671837
-0.11205628
-0.091105955
-0.073296094
-0.058211112
-0.04543134
-0.034859139
-0.025937329
-0.018925484
-0.013218741
-0.0089839046
0.64612044
0.59671609
0.51582006
0.42522181
0.34834746
0.28717658
0.2390852
0.20065523
0.16953499
0.14418269
0.12299148
0.10406175
0.087129869
0.072893818
0.060814987
0.050603045
0.041930271
0.034540442
0.028201833
0.022770361
0.018122792
0.014154884
0.010777499
0.0079239769
0.0055386285
0.0035750538
0.0020308893
0.00084852216
0.00023395829
0.64288921
0.55926406
0.37131279
0.064153821
-0.31993067
-0.73946655
-1.1081058
-1.3601417
-1.4628284
-1.4529196
-1.3740275
-1.284586
-1.1899031
-1.0973497
-1.0085287
-0.92268364
-0.83875476
-0.757078
-0.6795312
-0.60685705
-0.5359994
-0.45628198
-0.38557688
-0.32378823
-0.27142602
-0.22671038
-0.18864336
-0.15622122
-0.12862258
-0.10512316
-0.085120504
-0.068050765
-0.053616539
-0.0413665
-0.031222636
-0.022616086
-0.015851746
-0.010271998
-0.0061295444
0.69736086
0.67143139
0.59457237
0.49368068
0.4049505
0.33266378
0.2760549
0.23100337
0.19470117
0.16528263
0.14078301
0.11902281
0.099587051
0.083318347
0.069523836
0.057867377
0.04797758
0.039591288
0.032436699
0.026317269
0.021079006
0.016610622
0.012807628
0.009589953
0.0068924993
0.0046661462
0.002870431
0.0015056447
0.00053181813
0.00010302689
0.65269706
0.50058161
0.22060466
-0.17439244
-0.63724582
-1.0695306