/*--------------------------------*- C++ -*----------------------------------*\
| =========                 |                                                 |
| \\      /  F ield         | OpenFOAM: The Open Source CFD Toolbox           |
|  \\    /   O peration     | Version:  v2012                                 |
|   \\  /    A nd           | Website:  www.openfoam.com                      |
|    \\/     M anipulation  |                                                 |
\*---------------------------------------------------------------------------*/
FoamFile
{
    version     2.0;
    format      ascii;
    class       surfaceScalarField;
    location    "7.493965366";
    object      phi;
}
// * * * * * * * * * * * * * * * * * * * * * * * * * * * * * * * * * * * * * //

dimensions      [0 3 -1 0 0 0 0];
oriented        oriented;


internalField   nonuniform List<scalar> 
18180
(
0.0013392869
-3.4106596
0.0025453275
-3.1880736
0.0015109738
-3.4706957
0.0036128301
-2.9801157
0.0028747364
-3.2435797
0.0016015592
-3.5324483
0.0045351651
-2.7863626
0.0040873381
-3.0312284
0.0030511999
-3.3009854
0.0017272741
-3.5932484
0.0053038975
-2.6058235
0.0051339988
-2.8333334
0.0043428302
-3.0843154
0.0032958378
-3.3583004
0.0018583825
-3.6519556
0.005929962
-2.4372958
0.006013515
-2.6495643
0.0054616025
-2.8826499
0.0046976168
-3.1383015
0.0035519094
-3.4135244
0.0019964934
-3.706708
0.0064163009
-2.2797962
0.0067302206
-2.478433
0.0064070227
-2.6950866
0.0059191021
-2.9327492
0.0050711809
-3.1902243
0.00382295
-3.4651744
0.0021362305
-3.757997
0.0067763477
-2.1324114
0.0072915844
-2.3185732
0.0071814937
-2.520474
0.0069580283
-2.7414295
0.0064044685
-2.9812625
0.0054688659
-3.23869
0.0040988262
-3.5132439
0.0022736574
-3.8051509
0.0070208229
-1.9944767
0.0077090317
-2.1690619
0.007792848
-2.357733
0.0078166372
-2.5633458
0.0075475313
-2.7862866
0.0069248323
-3.0263242
0.0058765768
-3.2836979
0.0043721953
-3.5576237
0.0024047747
-3.8487974
0.0071637799
-1.8653865
0.0079954136
-2.0291084
0.0082515707
-2.2056438
0.0085013326
-2.3974037
0.0085021392
-2.6047084
0.0081846361
-2.8279387
0.0074627807
-3.0681582
0.006284139
-3.3253615
0.0046353761
-3.5986387
0.0025261704
-3.8886353
0.0072187113
-1.7446037
0.0081651823
-1.8980897
0.0085706694
-2.0633702
0.0090221454
-2.2425844
0.0092729558
-2.4357796
0.0092492797
-2.6432472
0.008849381
-2.8668166
0.0080056194
-3.1073459
0.0066805173
-3.3641187
0.0048814328
-3.63633
0.0026348622
-3.9254451
0.0071992492
-1.6316079
0.0082333399
-1.7754607
0.0087644423
-1.9302048
0.0093913814
-2.0979233
0.0098688682
-2.278411
0.010121204
-2.4716419
0.010036325
-2.6795326
0.0095271497
-2.9036718
0.0085393314
-3.1439449
0.0070553059
-3.3998487
0.005104043
-3.671083
0.0027280097
-3.9589981
0.0071179164
-1.5259102
0.0082148073
-1.6607111
0.0088479896
-1.8055624
0.0096231881
-1.9625993
0.010301032
-2.1315047
0.01080771
-2.311882
0.011023641
-2.5053574
0.010847553
-2.7139654
0.010201623
-2.9382193
0.0090506054
-3.1778851
0.0073987236
-3.4328852
0.0052973036
-3.70294
0.0028029499
-3.9899128
0.0069862769
-1.4270467
0.008123718
-1.5533567
0.0088365185
-1.6889065
0.0097327002
-1.8359569
0.010582902
-1.9941497
0.011318189
-2.1627938
0.011816391
-2.3431956
0.011964128
-2.5375079
0.011664903
-2.7466491
0.010856844
-2.9704936
0.00952653
-3.2093034
0.0077016549
-3.4632659
0.0054558226
-3.7322448
0.0028573296
-4.0180418
0.0068149468
-1.3345735
0.0079732773
-1.452936
0.0087448613
-1.5797467
0.0097355546
-1.7174168
0.010729262
-1.8656226
0.011664877
-2.0234272
0.012421627
-2.1919472
0.012879122
-2.3731199
0.012923563
-2.568177
0.012470338
-2.7771846
0.011477051
-3.0003268
0.0099549354
-3.2383397
0.0079559364
-3.4913271
0.0055749373
-3.7591078
0.0028893713
-4.0439427
0.0066133635
-1.2480766
0.0077756933
-1.3590058
0.0085870932
-1.4776229
0.0096472816
-1.6064645
0.010755827
-1.7453171
0.011861737
-1.893004
0.012849727
-2.0505382
0.01359675
-2.2196329
0.013976773
-2.4015627
0.013882755
-2.5968758
0.01324587
-2.8055073
0.012047071
-3.0279915
0.01032452
-3.2652204
0.0081545563
-3.5171716
0.0056511221
-3.7838036
0.0028981136
-4.0674658
0.00638969
-1.1671655
0.0075419302
-1.2711513
0.0083762355
-1.3821003
0.0094828698
-1.5026322
0.010678535
-1.6327008
0.011924134
-1.7708959
0.013113233
-1.9181984
0.014124827
-2.0761631
0.014825285
-2.2459896
0.015089773
-2.4284987
0.014821938
-2.6236747
0.013973455
-2.8317508
0.012552313
-3.0536655
0.010625261
-3.2901516
0.0082919392
-3.5410094
0.0056821597
-3.8063725
0.0028834292
-4.0890248
0.0061508431
-1.0914785
0.0072816331
-1.1889765
0.0081241405
-1.2927631
0.0092564085
-1.4054773
0.010513098
-1.527288
0.011868069
-1.6565643
0.013226577
-1.7942811
0.014473737
-1.9419512
0.015473625
-2.100611
0.016088129
-2.2711177
0.01619727
-2.4536529
0.015720633
-2.6484401
0.014635268
-2.8561382
0.012979363
-3.0775719
0.010848654
-3.3131952
0.0083641082
-3.5628819
0.0056672809
-3.8270131
0.0028458936
-4.1085218
0.00590261
-1.0206753
0.0070031751
-1.1121083
0.0078413418
-1.2092184
0.0089809246
-1.3145837
0.01027456
-1.4286283
0.011709714
-1.5495209
0.013205346
-1.6782411
0.014656299
-1.8163144
0.015929239
-1.964603
0.016878492
-2.1239384
0.017364444
-2.2946063
0.017277238
-2.4768607
0.016558125
-2.6714154
0.015214298
-2.8789343
0.013316322
-3.0997979
0.010988186
-3.3344913
0.0083689252
-3.5829504
0.0056069964
-3.8458146
0.0027866066
-4.1263254
0.0056498169
-0.95444089
0.0067135907
-1.0401986
0.0075371155
-1.1310932
0.0086681526
-1.2295568
0.0099770793
-1.3362989
0.011464931
-1.4493167
0.013065795
-1.5695881
0.01468709
-1.6986934
0.016202568
-1.8373246
0.017464552
-1.9862798
0.01831954
-2.145866
0.018631371
-2.3163143
0.018306392
-2.4985129
0.01731362
-2.6931377
0.015694594
-2.9002962
0.013553293
-3.1204227
0.011039569
-3.3540674
0.0083061404
-3.6013043
0.0055029849
-3.8629342
0.0027071338
-4.1423646
0.0053963473
-0.89248245
0.0064187491
-0.9729194
0.0072193751
-1.0580354
0.008328597
-1.1500261
0.0096336131
-1.2498992
0.011148936
-1.3555248
0.012824344
-1.4678704
0.014581982
-1.5885858
0.016306507
-1.7181941
0.017853568
-1.8574751
0.01906178
-2.0067736
0.019773998
-2.1662046
0.019863699
-2.3367226
0.019260376
-2.5191387
0.017966804
-2.7135693
0.016062087
-2.9202249
0.013682974
-3.1394969
0.011001085
-3.3720852
0.0081773137
-3.6180478
0.0053579591
-3.8784521
0.0026093775
-4.1569254
0.0051452897
-0.83452676
0.0061233797
-0.90996703
0.006894852
-0.98970869
0.0079713281
-1.0756388
0.0092559522
-1.1690489
0.010775935
-1.2677451
0.012497095
-1.3726644
0.014357569
-1.4855309
0.016255962
-1.606703
0.018055986
-1.7369313
0.019594405
-1.8766439
0.020699331
-2.0258138
0.021215914
-2.1853
0.021034369
-2.3562905
0.020114648
-2.5388106
0.018498913
-2.7328305
0.016305436
-2.9387652
0.013701041
-3.1571169
0.010873405
-3.3885481
0.0079857672
-3.6332829
0.0051754539
-3.8924989
0.0024955599
-4.1699814
0.0048990428
-0.78032067
0.0058312757
-0.85106354
0.0065690227
-0.9258
0.0076042614
-1.006065
0.0088544383
-1.0933936
0.010359057
-1.1855997
0.012099438
-1.2835688
0.014030575
-1.3890997
0.016067213
-1.5023752
0.018085026
-1.6241167
0.019924536
-1.7548615
0.021405722
-1.8944684
0.022351573
-2.0436496
0.022616278
-2.2038708
0.022114548
-2.37524
0.020844968
-2.5573739
0.018893524
-2.7507993
0.01641661
-2.9560036
0.013606268
-3.1733276
0.010659725
-3.4036287
0.0077361665
-3.6471128
0.0049596944
-3.9051933
0.0023681011
-4.1818021
0.0046594305
-0.72962544
0.0055453254
-0.79595294
0.0062463896
-0.86601812
0.0072339057
-0.94099291
0.0084382766
-1.0226002
0.0099100266
-1.1087344
0.011645824
-1.2002079
0.013617408
-1.298882
0.015757234
-1.4047712
0.017956057
-1.5185456
0.020062832
-1.6408726
0.021895942
-1.7715549
0.023263309
-1.9110998
0.023988605
-2.0610031
0.023942667
-2.2218595
0.02307479
-2.3931143
0.021429396
-2.5747691
0.019137789
-2.7676265
0.016391221
-2.9719655
0.013400616
-3.1882231
0.010365167
-3.4173496
0.0074343969
-3.6596659
0.0047153879
-3.9166414
0.0022295636
-4.1923759
0.0044277752
-0.68221907
0.005267698
-0.74439183
0.0059303965
-0.81009135
0.0068657968
-0.8801276
0.0080151599
-0.95635497
0.0094394394
-1.0368133
0.01114944
-1.1222248
0.013133747
-1.2144937
0.015343187
-1.313474
0.017685818
-1.4197724
0.020022989
-1.534185
0.022177052
-1.6564907
0.023948491
-1.7869979
0.025137856
-1.9271387
0.02557598
-2.0779135
0.02516093
-2.2389637
0.023886862
-2.4098456
0.021849015
-2.5910886
0.019222795
-2.783301
0.016228833
-2.9867296
0.01308881
-3.2018723
0.0099967361
-3.4298778
0.0070871594
-3.6710015
0.0044475676
-3.9269465
0.0020825132
-4.2019235
0.0042050103
-0.63789273
0.0049998684
-0.69615495
0.005623763
-0.75776591
0.0065042106
-0.82319432
0.007591841
-0.8943682
0.0089563276
-0.96952139
0.010622332
-1.0492855
0.012594243
-1.1355688
0.014841815
-1.228094
0.01729188
-1.3273811
0.019820876
-1.4343535
0.022260052
-1.5487776
0.024409364
-1.670816
0.026054872
-1.8018057
0.02699406
-1.9428768
0.027075096
-2.094044
0.026236209
-2.2549333
0.02452493
-2.4255959
0.022088971
-2.6064183
0.019144232
-2.7979254
0.015932573
-3.0003448
0.012678156
-3.2143722
0.0095627526
-3.4412131
0.006701826
-3.6812435
0.0041613572
-3.9362068
0.0019294641
-4.210456
0.0039917576
-0.59644851
0.004742826
-0.65103118
0.0053284362
-0.70880667
0.00615274
-0.7699365
0.0071736368
-0.83636934
0.0084688023
-0.90656604
0.010075018
-0.98107131
0.012012394
-1.061765
0.01426913
-1.1482576
0.016791805
-1.2409767
0.019474011
-1.3409621
0.022159102
-1.4479694
0.024652948
-1.5620387
0.02673581
-1.6844496
0.028180748
-1.8163331
0.028790619
-1.9579406
0.0284453
-2.1091878
0.027135269
-2.2700328
0.024966938
-2.4404838
0.02213953
-2.6208296
0.0189022
-2.8115123
0.01550909
-3.012903
0.012178081
-3.2257718
0.009072705
-3.4515148
0.006286
-3.6904586
0.0038618227
-3.9445421
0.001772831
-4.2182232
0.003788501
-0.55770334
0.0044971176
-0.60882165
0.0050459728
-0.66299441
0.0058140908
-0.7201147
0.0067652649
-0.78210766
0.007983411
-0.84767026
0.0095170944
-0.9172846
0.011400287
-0.99275475
0.013640014
-1.0736125
0.016202832
-1.1601834
0.019000488
-1.2536157
0.021890982
-1.3536507
0.024690485
-1.4602176
0.027182235
-1.5745797
0.029124915
-1.6978541
0.030283883
-1.8303567
0.030481865
-1.9722362
0.029645507
-2.1236568
0.027827556
-2.2845061
0.025195954
-2.4546618
0.021995999
-2.6343558
0.018501329
-2.8241485
0.014968049
-3.0244327
0.011599769
-3.2361509
0.0085366233
-3.4607982
0.0058473486
-3.6987731
0.0035538743
-3.9520605
0.0016148565
-4.2252359
0.0035956905
-0.52148383
0.0042631167
-0.56934241
0.0047774942
-0.62012596
0.0054907599
-0.67350703
0.0063703861
-0.73134674
0.0075060972
-0.79258119
0.0089565236
-0.85764144
0.010769064
-0.92823332
0.012968095
-1.0038243
0.015541153
-1.0846441
0.018418624
-1.1719352
0.021473897
-1.2654295
0.024536952
-1.3649327
0.027400831
-1.47173
0.02982116
-1.586953
0.031535745
-1.7108933
0.032315087
-1.8438053
0.032019113
-1.9861192
0.030635806
-2.1377459
0.028287277
-2.2984039
0.025200626
-2.4680823
0.021659399
-2.6470377
0.017950409
-2.8358406
0.014321802
-3.0350045
0.010955565
-3.2455716
0.0079648391
-3.4692003
0.0053933524
-3.7062359
0.0032420817
-3.9588562
0.00145757
-4.2317297
0.0034133472
-0.48762293
0.0040410305
-0.53241804
0.0045238318
-0.5800123
0.0051848157
-0.62990415
0.0059925831
-0.68386806
0.0070413142
-0.74105864
0.0084004472
-0.801879
0.010128227
-0.86790955
0.012265984
-0.93857987
0.014821868
-1.0140202
0.017745928
-1.0955619
0.020927054
-1.1829256
0.024209827
-1.2757914
0.027403224
-1.3754736
0.030269836
-1.4831498
0.032532588
-1.5990665
0.033917899
-1.7234793
0.034219518
-1.8569931
0.033353057
-1.999768
0.031380324
-2.1513907
0.02849464
-2.3117167
0.024976374
-2.4808109
0.021136061
-2.6588921
0.017262047
-2.8466562
0.013584621
-3.0446597
0.010258447
-3.2541028
0.0073676093
-3.4767248
0.0049310739
-3.7129583
0.0029306129
-3.9650664
0.0013027096
-4.2377171
-0.0012686346
-0.536119
0.0038308708
-0.49787863
0.0042851167
-0.54247396
0.0048980036
-0.58911448
0.0056349898
-0.63945993
0.006593151
-0.69288096
0.0078536893
-0.74974684
0.0094860332
-0.81151431
0.011544687
-0.87758179
0.014058977
-0.94799539
0.016999018
-1.0241548
0.020269332
-1.1057819
0.023728742
-1.1924193
0.027204663
-1.2854105
0.03047717
-1.3860041
0.033266846
-1.4943968
0.035267802
-1.6107928
0.036212196
-1.7358903
0.035938673
-1.8701344
0.034436448
-2.0131521
0.031848485
-2.1645475
0.028436971
-2.3244367
0.024525183
-2.492818
0.02043765
-2.6699491
0.01645186
-2.8566128
0.012772087
-3.0534604
0.009521682
-3.2617904
0.0067547642
-3.4835002
0.0044670004
-3.719028
0.002623111
-3.9707843
0.0011517217
-4.2433733
-0.0045706465
-0.53745303
-0.00081147408
-0.54293242
0.0040604025
-0.50733544
0.0046306616
-0.55095557
0.0053008901
-0.59793156
0.0061649623
-0.64783429
0.007319777
-0.70101513
0.0088473852
-0.75879077
0.010813499
-0.82055672
0.013264872
-0.8862712
0.016193354
-0.95739829
0.019519132
-1.0336566
0.023113722
-1.1144614
0.026824035
-1.2011681
0.030454181
-1.2951089
0.033737216
-1.396433
0.036348146
-1.5052856
0.037965985
-1.6224052
0.038351956
-1.7483641
0.037413089
-1.8830749
0.035226008
-2.0260728
0.032017309
-2.1771928
0.028109738
-2.3365749
0.023856005
-2.5041437
0.019580116
-2.680223
0.015537716
-2.865757
0.011900566
-3.0614358
0.0087581549
-3.2686938
0.0061354705
-3.4895612
0.0040069117
-3.7245461
0.0023226637
-3.9760958
0.0010058406
-4.248667
-0.0066248434
-0.53866155
-0.0040959178
-0.5456278
-0.00052858544
-0.54888296
0.0043809871
-0.51524297
0.0049921896
-0.55909706
0.0057616788
-0.60572458
0.0068007185
-0.6554631
0.0082145236
-0.70950277
0.010077532
-0.76724117
0.012449921
-0.82856531
0.015342711
-0.89499026
0.018693721
-0.96623179
0.022385229
-1.0415786
0.026281541
-1.12239
0.030216925
-1.2100856
0.033948272
-1.3047665
0.037148476
-1.4065047
0.03945481
-1.5160778
0.040554356
-1.6340923
0.040265965
-1.7606826
0.038585627
-1.8956406
0.035686097
-2.0385722
0.031873018
-2.1893719
0.027516894
-2.3481314
0.022983787
-2.5147612
0.01858308
-2.6897265
0.014539099
-2.8741085
0.01098636
-3.0686363
0.0079801589
-3.2748781
0.0055180097
-3.4950152
0.0035557396
-3.7295794
0.0020317873
-3.9810421
0.00086611862
-4.2536801
-0.0075733337
-0.5397356
-0.0061527384
-0.54806071
-0.0037830121
-0.55297131
-0.00015463257
-0.55310568
0.0047076788
-0.52276344
0.0053888836
-0.566362
0.0063023979
-0.61289327
0.0075869509
-0.66341888
0.0093381088
-0.71739006
0.011620064
-0.77460729
0.014458833
-0.83664421
0.017808703
-0.90320295
0.021562757
-0.97345126
0.025599314
-1.0487394
0.029783983
-1.1305761
0.033910636
-1.2190174
0.037664829
-1.3140383
0.040658212
-1.4164865
0.042510934
-1.5269737
0.042950795
-1.6456985
0.041881951
-1.772753
0.039405216
-1.9079302
0.03579045
-2.0507528
0.031411858
-2.2010902
0.026670513
-2.3590934
0.021928827
-2.5246747
0.017468872
-2.6984767
0.013475984
-2.8817043
0.010045329
-3.0751068
0.007198932
-3.2803998
0.004909555
-3.4999079
0.0031175413
-3.7341975
0.0017523938
-3.9856694
0.00073322184
-4.2583864
-0.007565108
-0.54066697
-0.0071211947
-0.55021635
-0.0058308179
-0.55665319
-0.0033826999
-0.55852906
0.0002259113
-0.55685981
0.005049607
-0.52954328
0.0058358051
-0.57311591
0.0069702225
-0.62034716
0.0085925366
-0.67076527
0.010777236
-0.72414679
0.013549312
-0.78208487
0.016877808
-0.8442864
0.020664619
-0.90977635
0.024798882
-0.97989766
0.029177575
-1.056244
0.033638846
-1.1388273
0.03789996
-1.2275118
0.041562378
-1.3232202
0.044191319
-1.4266026
0.045425262
-1.5378379
0.045067351
-1.6571704
0.043130937
-1.7847395
0.039829856
-1.9200553
0.035524476
-2.0625563
0.030640425
-2.2123119
0.025590009
-2.3694155
0.020715835
-2.5338636
0.016261315
-2.7064824
0.012368288
-2.8885781
0.0090922716
-3.0809002
0.006424431
-3.2853232
0.0043161122
-3.504336
0.0026954842
-3.7384503
0.0014857902
-3.9900133
0.0006072487
-4.2627877
-0.0067561196
-0.54144855
-0.0071484708
-0.55207895
-0.006807967
-0.55991164
-0.0054264794
-0.56341386
-0.0029727355
-0.56353154
0.00060831166
-0.5599438
0.0054127
-0.53592522
0.0063805993
-0.58010712
0.0078448727
-0.62718025
0.0099184306
-0.67695042
0.012618661
-0.73106182
0.015911186
-0.78920215
0.0197074
-0.85026993
0.02390177
-0.91556254
0.02842004
-0.98677059
0.033152706
-1.0638637
0.037861775
-1.1465677
0.042160271
-1.235905
0.045571484
-1.3325741
0.047650195
-1.4367237
0.048094566
-1.5486423
0.046815683
-1.6686826
0.043952309
-1.7966769
0.039830695
-1.9319043
0.034886336
-2.0739651
0.02957527
-2.2229865
0.024301502
-2.3790806
0.019372297
-2.5423293
0.014984786
-2.7137704
0.011235009
-2.894761
0.0081405413
-3.0860584
0.0056651336
-3.2897083
0.003742508
-3.5083381
0.0022919386
-3.7423865
0.0012329515
-3.9940421
0.00048830103
-4.2668461
-0.0053074306
-0.54207521
-0.0063883561
-0.55363499
-0.006859868
-0.56272187
-0.0064187225
-0.56773725
-0.005010029
-0.56954131
-0.0025692438
-0.56793971
0.00098560225
-0.56273766
0.0058410824
-0.54249572
0.0071140296
-0.5864677
0.0090459302
-0.63283215
0.011666019
-0.68333617
0.014917505
-0.73769562
0.018704937
-0.79464839
0.022927895
-0.85544859
0.027535439
-0.92185203
0.032473159
-0.99380676
0.037564856
-1.0708797
0.042451187
-1.154186
0.046633617
-1.2445105
0.049591891
-1.3419597
0.050917592
-1.4468318
0.050409863
-1.559578
0.048113294
-1.6803155
0.044298767
-1.8084884
0.039393424
-1.9434194
0.033886717
-2.0849114
0.02824222
-2.2330786
0.022835678
-2.3880388
0.017927451
-2.5500669
0.013663197
-2.7203478
0.010093666
-2.9003001
0.0072017618
-3.0906369
0.0049280393
-3.2936203
0.0031924957
-3.5119802
0.001908648
-3.7459985
0.00099488407
-3.9977675
0.0003773909
-4.270491
-0.0033843629
-0.54254255
-0.0049987082
-0.55487566
-0.0061368165
-0.56506672
-0.0065010877
-0.57146717
-0.0060126614
-0.57486637
-0.0046025893
-0.57515033
-0.0021931977
-0.57213287
0.0013857757
-0.56573274
0.0064326223
-0.5484313
0.0081772478
-0.59163852
0.010692724
-0.63872128
0.013900019
-0.68951596
0.017671229
-0.74265354
0.021895605
-0.79927212
0.026546385
-0.86119991
0.031624924
-0.92835372
0.037026077
-1.0001294
0.042441872
-1.0777428
0.047367257
-1.1620611
0.051221898
-1.2531655
0.053494392
-1.3513628
0.053863279
-1.4571558
0.052263847
-1.5707572
0.048889972
-1.691893
0.044139159
-1.8199937
0.03851951
-1.9545483
0.03254899
-2.0953583
0.026674346
-2.2425216
0.021226751
-2.396298
0.016410722
-2.557088
0.012319043
-2.7262713
0.0089598189
-2.90523
0.0062857502
-3.0946839
0.0042187193
-3.2971133
0.0026689046
-3.5152781
0.0015469041
-3.749319
0.00077234502
-4.0011058
0.0002753204
-4.2737228
-0.0011554084
-0.54284746
-0.003141587
-0.55579261
-0.0047947698
-0.56693146
-0.0058225791
-0.57457934
-0.006119263
-0.57946434
-0.0056148384
-0.58155348
-0.0042406055
-0.58062096
-0.0018353452
-0.57648539
0.0019027975
-0.56804536
0.007349347
-0.5531961
0.0097113549
-0.59707164
0.012860591
-0.64447569
0.016615051
-0.69402786
0.020824723
-0.74677769
0.025475581
-0.80452851
0.030631456
-0.86720999
0.036268149
-0.93402156
0.042142816
-1.0062614
0.047769444
-1.0849063
0.052519547
-1.1699929
0.055786955
-1.2618543
0.057127714
-1.3610438
0.056352934
-1.4677833
0.053559871
-1.5819424
0.049093561
-1.7032444
0.043461683
-1.8311932
0.037226894
-1.9652645
0.030907027
-2.1052415
0.024910481
-2.2513109
0.019510227
-2.4038377
0.014850562
-2.5634298
0.010972794
-2.7315582
0.0078469087
-2.9096039
0.0054005181
-3.0982636
0.0035415074
-3.3002345
0.0021738103
-3.5182893
0.0012075734
-3.7523033
0.0005653367
-4.0040932
0.00018075527
-4.2765251
-0.54298806
0.0012089936
-0.00098206543
-0.55637998
-0.0029918569
-0.56830547
-0.0045366654
-0.57705533
-0.0054774109
-0.58330154
-0.0057401724
-0.58709371
-0.0052781725
-0.58816977
-0.0039377223
-0.58619573
-0.0014154269
-0.58008142
0.002715102
-0.56913275
0.0087572375
-0.55824598
0.011804991
-0.6024303
0.015540918
-0.64858218
0.019730258
-0.69770802
0.024348075
-0.7515865
0.029518678
-0.81008907
0.035312824
-0.87226127
0.041571802
-0.93945206
0.047842597
-1.0127359
0.05347131
-1.0921263
0.057764621
-1.1779589
0.060157375
-1.2708815
0.060328935
-1.3711109
0.058259649
-1.4785087
0.054219531
-1.5930025
0.048693687
-1.7144197
0.042274716
-1.8421317
0.035547852
-1.9755314
0.029003595
-2.1145352
0.022992717
-2.259415
0.017721483
-2.4107012
0.013273388
-2.5691159
0.0096424615
-2.7362675
0.0067661454
-2.9134557
0.0045524551
-3.1014101
0.0028996865
-3.3030438
0.0017086853
-3.5210122
0.00089114081
-3.7549897
0.00037352528
-4.0066751
8.9701966e-05
-4.2789221
-0.55663404
0.0013122727
-0.54299908
0.0035735674
-0.00088864264
-0.5691808
-0.0027997043
-0.57888223
-0.0042414436
-0.58635273
-0.0051244636
-0.59172388
-0.0054353933
-0.59471263
-0.0050413669
-0.59482686
-0.0036338727
-0.59093365
-0.00074561547
-0.58241341
0.0040108243
-0.57055159
0.010762645
-0.56324125
0.014448153
-0.60616807
0.018621862
-0.65186405
0.023185131
-0.70210651
0.028315159
-0.75673799
0.03418726
-0.81456842
0.040746514
-0.87702297
0.04759724
-0.94526701
0.054070366
-1.0192578
0.059403196
-1.0993663
0.06291263
-1.1863212
0.064140628
-1.280383
0.062937551
-1.3813563
0.059473669
-1.4891976
0.054188021
-1.6040426
0.04768416
-1.7254964
0.040605727
-1.8527247
0.033527692
-1.9852912
0.026887407
-2.1232035
0.020964233
-2.2668538
0.015894128
-2.4168869
0.011703012
-2.5741867
0.008343427
-2.7404102
0.0057266854
-2.9168352
0.0037465264
-3.1042024
0.002295666
-3.3055833
0.0012745524
-3.5234853
0.00059789803
-3.757315
0.0001968011
-4.0089038
5.2494086e-06
-4.280879
-0.56954985
0.0013500058
-0.55662292
0.0036066698
-0.54288137
0.0058038083
-0.00076935896
-0.58005154
-0.0025718348
-0.58860054
-0.0039248667
-0.59540586
-0.0048532911
-0.60019015
-0.0052728511
-0.60230763
-0.0048722605
-0.60056438
-0.0031380302
-0.59438816
0.00038687226
-0.58510649
0.0059189516
-0.57189482
0.013359253
-0.56665534
0.017494517
-0.60908345
0.02200378
-0.65588472
0.027048164
-0.70687948
0.03292111
-0.7606942
0.039692886
-0.81870504
0.047045151
-0.88220804
0.054318435
-0.95111369
0.060685871
-1.025773
0.06535891
-1.1070521
0.067741207
-1.1952531
0.067540051
-1.2901485
0.064807879
-1.3916382
0.0599104
-1.4999591
0.053439608
-1.6151434
0.046083899
-1.7364113
0.038500572
-1.8629328
0.0312214
-1.9944938
0.02461032
-2.1312289
0.018867249
-2.2736186
0.014059154
-2.4224408
0.010160114
-2.578661
0.0070884787
-2.7440509
0.0047357815
-2.9197881
0.002986472
-3.1066726
0.0017311446
-3.3078896
0.00087205162
-3.5256656
0.00032812444
-3.7593258
3.6631875e-05
-4.0107296
-6.2832422e-05
-4.2824539
-0.58054995
0.0013921178
-0.5695105
0.003588772
-0.55634942
0.0057672644
-0.54259959
0.0077291853
-0.00063179932
-0.5900343
-0.0023114869
-0.5981075
-0.0036863454
-0.60454904
-0.0047645927
-0.60857347
-0.0052545296
-0.60889936
-0.004578432
-0.60501258
-0.0022107667
-0.59826027
0.0021393528
-0.58769048
0.0084632828
-0.57153936
0.016365831
-0.56926577
0.020798203
-0.61273421
0.025743494
-0.66030795
0.031546638
-0.71037002
0.038439065
-0.76425464
0.046208868
-0.82329786
0.054219954
-0.88740295
0.061604366
-0.95691329
0.067469201
-1.0327758
0.071086614
-1.1154045
0.072015594
-1.2045365
0.070169993
-1.3000204
0.065819659
-1.4020772
0.059517768
-1.5109847
0.051978483
-1.6262854
0.043935381
-1.7470271
0.036019254
-1.8726473
0.028690093
-2.0030926
0.022224567
-2.1385927
0.016741505
-2.279739
0.012243984
-2.4273657
0.00866225
-2.5825927
0.0058879549
-2.7472069
0.0037990351
-2.9223517
0.0022749992
-3.1088786
0.0012072284
-3.3099649
0.00050147212
-3.5275869
8.1849957e-05
-3.7609813
-0.00011182871
-4.012215
-0.00012752975
-4.2836643
-0.59064522
0.0014204866
-0.58050706
0.0035543263
-0.56906385
0.0056923173
-0.55574519
0.007626609
-0.54215554
0.0091811651
-0.00046370626
-0.59980784
-0.0021053377
-0.60773826
-0.0036506257
-0.61357111
-0.0048998316
-0.61588042
-0.0051892618
-0.61420446
-0.0038888387
-0.60994309
-0.00066419442
-0.60197395
0.0045775652
-0.58843007
0.011441938
-0.57036203
0.019585754
-0.57259255
0.024399669
-0.61680398
0.030098343
-0.6633933
0.037020271
-0.71341235
0.045112853
-0.76829247
0.053792423
-0.82787562
0.062154493
-0.89250066
0.069224068
-0.96323308
0.074140038
-1.0405419
0.076312621
-1.124193
0.075506854
-1.2140046
0.071868822
-1.3101395
0.065887405
-1.4128866
0.05827889
-1.5221515
0.049840136
-1.6372217
0.041302369
-1.7572241
0.033232416
-1.8817999
0.025997429
-2.0110414
0.019780519
-2.1453019
0.014622941
-2.2852192
0.010472303
-2.4317207
0.0072238054
-2.5860032
0.0047499667
-2.7499195
0.0029205719
-2.924563
0.0016139363
-3.1108286
0.00072451797
-3.3118263
0.00016297546
-3.5292317
-0.00014146339
-3.7623489
-0.00024564472
-4.0133442
-0.00018571338
-4.2845623
-0.60053023
0.001471082
-0.5906112
0.0034734835
-0.57992169
0.0055862209
-0.56811079
0.0074963863
-0.55481498
0.0090197187
-0.54155224
0.0099943744
-0.00029715749
-0.60971876
-0.0020682038
-0.61724707
-0.0039054195
-0.6214784
-0.0050814067
-0.6219174
-0.0047646306
-0.62006228
-0.0025850769
-0.6146819
0.0016134211
-0.60370387
0.0074833594
-0.58832003
0.014584675
-0.56992041
0.023040153
-0.57631885
0.028583828
-0.61952165
0.035477612
-0.6659824
0.043793011
-0.71693807
0.053054895
-0.77228559
0.062347023
-0.83230182
0.07060946
-0.8981429
0.076869983
-0.97040583
0.080385572
-1.0488222
0.080762524
-1.1332436
0.078007147
-1.2237993
0.072511198
-1.3206999
0.064967065
-1.4239835
0.056216968
-1.5332794
0.04708851
-1.6478165
0.038264279
-1.7669002
0.030216414
-1.8903188
0.023206466
-2.0183289
0.017324662
-2.151359
0.012543024
-2.290099
0.008763804
-2.4355163
0.0058562658
-2.5889314
0.0036806053
-2.7522074
0.0021032401
-2.9264546
0.0010043301
-3.1125626
0.00028321427
-3.3134872
-0.00014375336
-3.5306317
-0.00034235448
-3.7633885
-0.00036403989
-4.0141851
-0.00023705893
-4.2851347
-0.61057216
0.0016100362
-0.6005132
0.003403127
-0.58993812
0.0054211414
-0.57866238
0.0073263544
-0.56666055
0.0088408483
-0.55356517
0.0097846424
-0.5407939
0.010007687
-0.00016909785
-0.61954948
-0.0023266655
-0.62568549
-0.0043169816
-0.62816972
-0.0049497115
-0.62857631
-0.0037341849
-0.62570361
-0.0005101939
-0.61732072
0.004389116
-0.60455478
0.010509592
-0.58896862
0.017855962
-0.56981162
0.027038623
-0.57872534
0.033829392
-0.62170439
0.042293137
-0.66904677
0.052041896
-0.72039186
0.062193954
-0.77607158
0.071627191
-0.83728608
0.079251562
-0.90471894
0.084191007
-0.97816154
0.085884806
-1.0574366
0.084178358
-1.1427165
0.079344623
-1.2341518
0.072017223
-1.3317029
0.063061019
-1.4351696
0.05339107
-1.5441495
0.043810502
-1.6579579
0.034911115
-1.7759688
0.027049176
-1.8981715
0.020376674
-2.024941
0.014898364
-2.1567804
0.010528342
-2.2943958
0.007134396
-2.4388028
0.0045683547
-2.5913918
0.0026841676
-2.7541185
0.0013487596
-2.9280561
0.00044652138
-3.1140931
-0.00011633252
-3.3149489
-0.00042125004
-3.531752
-0.00052146297
-3.7641601
-0.00046824544
-4.0147123
-0.00028223328
-4.28543
-0.62053688
0.0018723467
-0.61056017
0.0035078807
-0.59978564
0.0052661161
-0.58843861
0.0071023287
-0.57674241
0.0086172857
-0.56472271
0.0095681175
-0.55200603
0.0097635837
-0.53988578
0.0090650985
-0.0002181985
-0.6284529
-0.0028568012
-0.63305447
-0.0045022753
-0.63555462
-0.0042333037
-0.63498524
-0.0018907368
-0.62915152
0.0020806805
-0.61904625
0.0072293594
-0.60615657
0.013561257
-0.58990885
0.021548027
-0.5682301
0.032125572
-0.58058823
0.040640105
-0.62433848
0.05079543
-0.67201412
0.061726253
-0.723592
0.072280311
-0.78041994
0.08127539
-0.84327437
0.087692909
-0.9119364
0.090819745
-0.98631509
0.090327022
-1.0665729
0.086335996
-1.1528708
0.079395624
-1.245073
0.070361074
-1.3429182
0.06021855
-1.446243
0.049893296
-1.5546749
0.040110171
-1.6675333
0.031337966
-1.784379
0.023805989
-1.9053305
0.017561888
-2.0308813
0.012537039
-2.1615862
0.008600551
-2.2981472
0.0055963151
-2.4415844
0.0033663541
-2.5934327
0.0017633593
-2.7556755
0.0006578954
-2.9294047
-5.7332307e-05
-3.1154356
-0.00047792732
-3.3162088
-0.00066794867
-3.5326238
-0.00067962371
-3.7646492
-0.00055909766
-4.0149955
-0.00032120875
-4.285474
-0.62962431
0.0021470561
-0.62049514
0.0039025457
-0.60974846
0.0053242241
-0.5980639
0.0069002782
-0.58612341
0.0083530121
-0.57417141
0.009303
-0.56230671
0.0095225624
-0.55014889
0.0088027348
-0.5388355
0.0070175251
-0.00060229183
-0.63658069
-0.0033419684
-0.64122498
-0.0041823036
-0.64261771
-0.0026539658
-0.63911081
0.00047860121
-0.63166087
0.0046416039
-0.62147153
0.0099799708
-0.60794154
0.016914783
-0.58930344
0.026229883
-0.56584606
0.038895326
-0.58285556
0.049346127
-0.62685777
0.060980353
-0.67468705
0.072593799
-0.7273497
0.082933383
-0.78582835
0.090869045
-0.84995043
0.095521265
-0.91960715
0.096391521
-0.99508737
0.093430978
-1.0765302
0.087060102
-1.1637451
0.078096855
-1.2563638
0.067573809
-1.3541866
0.056531743
-1.4571161
0.045840846
-1.5647421
0.036101728
-1.6764888
0.027639037
-1.7920785
0.020556237
-1.9117812
0.014808779
-2.0361617
0.010269813
-2.1658051
0.0067765146
-2.3013738
0.004158498
-2.4439191
0.0022543102
-2.5950817
0.00091949325
-2.7569279
3.1560718e-05
-2.9304968
-0.00051618567
-3.1165975
-0.00079981377
-3.3172392
-0.00088582182
-3.533246
-0.0008178328
-3.7649167
-0.00063741212
-4.0150238
-0.00035447414
-4.2853156
-0.63820567
0.0021568811
-0.62951522
0.0045201127
-0.61949373
0.0057701577
-0.60777985
0.0069155356
-0.59533687
0.0081240704
-0.58300371
0.0090111596
-0.57096025
0.0092301667
-0.5594293
0.0085541575
-0.54800692
0.0067547266
-0.53765047
0.0037226825
-0.0012350305
-0.64574652
-0.0035788529
-0.64893103
-0.0029609959
-0.64725369
-0.00052221498
-0.64228794
0.0026779216
-0.63481768
0.0069565357
-0.62392147
0.012910582
-0.60806
0.021158527
-0.58786695
0.032561153
-0.56344768
0.047760304
-0.58499031
0.059984903
-0.62905484
0.072595306
-0.67789933
0.084242479
-0.73220381
0.093698542
-0.79195812
0.099953441
-0.85712509
0.10231849
-0.92799137
0.10056499
-1.0048233
0.09496233
-1.0873699
0.08623993
-1.1751442
0.075451341
-1.2678385
0.063740795
-1.3653936
0.052128871
-1.4676433
0.041368626
-1.5742094
0.031901834
-1.6847185
0.023903108
-1.7990442
0.01736095
-1.9175287
0.012156114
-2.0408105
0.0081195364
-2.1694672
0.0050686188
-2.3041179
0.0028268301
-2.4458261
0.0012343744
-2.5963834
0.00015304134
-2.757866
-0.00053529191
-2.9313772
-0.00092367054
-3.1175353
-0.0010844017
-3.318055
-0.0010763513
-3.5336496
-0.0009372151
-3.7649396
-0.00070405545
-4.0148593
-0.00038239972
-4.2849438