/*--------------------------------*- C++ -*----------------------------------*\
| =========                 |                                                 |
| \\      /  F ield         | OpenFOAM: The Open Source CFD Toolbox           |
|  \\    /   O peration     | Version:  v2012                                 |
|   \\  /    A nd           | Website:  www.openfoam.com                      |
|    \\/     M anipulation  |                                                 |
\*---------------------------------------------------------------------------*/
FoamFile
{
    version     2.0;
    format      ascii;
    class       pointVectorField;
    location    "7.493965366";
    object      pointDisplacement;
}
// * * * * * * * * * * * * * * * * * * * * * * * * * * * * * * * * * * * * * //

dimensions      [0 1 0 0 0 0 0];


internalField   nonuniform List<vector> 
18840
(
(-0.45730203 -0 -0)
(-0.4571935 0 0)
(-0.45686953 0 0)
(-0.45633313 0 0)
(-0.45558675 0 0)
(-0.45463215 0 0)
(-0.45347082 0 0)
(-0.45210391 0 0)
(-0.4505323 0 0)
(-0.44875659 0 0)
(-0.44677717 0 0)
(-0.44459424 0 0)
(-0.44220784 0 0)
(-0.43961787 0 0)
(-0.4368241 0 0)
(-0.43382627 0 0)
(-0.43062407 0 0)
(-0.42721735 0 0)
(-0.42360632 0 0)
(-0.41978995 0 0)
(-0.41498002 0 0)
(-0.45730203 -0 -0)
(-0.45719348 0 0)
(-0.45686951 0 0)
(-0.45633326 0 0)
(-0.45558731 0 0)
(-0.45463355 0 0)
(-0.45347355 0 0)
(-0.4521086 0 0)
(-0.45053967 0 0)
(-0.4487675 0 0)
(-0.44679259 0 0)
(-0.4446153 0 0)
(-0.44223575 0 0)
(-0.43965401 0 0)
(-0.43686994 0 0)
(-0.43388344 0 0)
(-0.43069426 0 0)
(-0.42730234 0 0)
(-0.42370768 0 0)
(-0.41990984 0 0)
(-0.41593433 0 0)
(-0.45730203 -0 -0)
(-0.45719331 0 0)
(-0.45686891 0 0)
(-0.45633216 0 0)
(-0.45558575 0 0)
(-0.45463174 0 0)
(-0.45347181 0 0)
(-0.45210738 0 0)
(-0.45053957 0 0)
(-0.44876928 0 0)
(-0.44679713 0 0)
(-0.44462366 0 0)
(-0.44224914 0 0)
(-0.43967379 0 0)
(-0.43689763 0 0)
(-0.43392069 0 0)
(-0.43074279 0 0)
(-0.42736383 0 0)
(-0.42378353 0 0)
(-0.42000153 0 0)
(-0.41598927 0 0)
(-0.45730203 -0 -0)
(-0.45719321 0 0)
(-0.45686861 0 0)
(-0.45633168 0 0)
(-0.45558528 0 0)
(-0.45463158 0 0)
(-0.45347239 0 0)
(-0.45210927 0 0)
(-0.45054346 0 0)
(-0.44877603 0 0)
(-0.44680776 0 0)
(-0.44463933 0 0)
(-0.44227118 0 0)
(-0.43970375 0 0)
(-0.43693721 0 0)
(-0.43397178 0 0)
(-0.43080747 0 0)
(-0.42744439 0 0)
(-0.42388243 0 0)
(-0.4201214 0 0)
(-0.41608543 0 0)
(-0.45730203 -0 -0)
(-0.45719319 0 0)
(-0.45686858 0 0)
(-0.4563318 0 0)
(-0.45558583 0 0)
(-0.45463297 0 0)
(-0.45347515 0 0)
(-0.45211404 0 0)
(-0.45055103 0 0)
(-0.44878731 0 0)
(-0.44682382 0 0)
(-0.44466142 0 0)
(-0.44230072 0 0)
(-0.43974236 0 0)
(-0.43698673 0 0)
(-0.43403428 0 0)
(-0.43088528 0 0)
(-0.42754011 0 0)
(-0.42399906 0 0)
(-0.42026228 0 0)
(-0.4162112 0 0)
(-0.45730203 -0 -0)
(-0.45719323 0 0)
(-0.4568688 0 0)
(-0.45633247 0 0)
(-0.45558734 0 0)
(-0.45463582 0 0)
(-0.45347993 0 0)
(-0.45212148 0 0)
(-0.45056194 0 0)
(-0.44880265 0 0)
(-0.44684468 0 0)
(-0.44468905 0 0)
(-0.44233657 0 0)
(-0.43978806 0 0)
(-0.43704413 0 0)
(-0.43410548 0 0)
(-0.43097265 0 0)
(-0.42764634 0 0)
(-0.42412719 0 0)
(-0.4204157 0 0)
(-0.41635591 0 0)
(-0.45730203 -0 -0)
(-0.45719334 0 0)
(-0.45686929 0 0)
(-0.45633367 0 0)
(-0.45558976 0 0)
(-0.45464 0 0)
(-0.45348658 0 0)
(-0.45213133 0 0)
(-0.45057587 0 0)
(-0.44882159 0 0)
(-0.44686971 0 0)
(-0.44472139 0 0)
(-0.44237759 0 0)
(-0.43983933 0 0)
(-0.43710742 0 0)
(-0.4341828 0 0)
(-0.43106625 0 0)
(-0.42775876 0 0)
(-0.42426127 0 0)
(-0.42057463 0 0)
(-0.41651138 0 0)
(-0.45730203 -0 -0)
(-0.45719351 0 0)
(-0.45687003 0 0)
(-0.45633544 0 0)
(-0.45559303 0 0)
(-0.4546455 0 0)
(-0.45349497 0 0)
(-0.45214346 0 0)
(-0.45059256 0 0)
(-0.44884381 0 0)
(-0.44689845 0 0)
(-0.4447578 0 0)
(-0.44242292 0 0)
(-0.43989503 0 0)
(-0.43717508 0 0)
(-0.43426423 0 0)
(-0.43116347 0 0)
(-0.42787404 0 0)
(-0.42439713 0 0)
(-0.42073392 0 0)
(-0.4166717 0 0)
(-0.45730203 -0 -0)
(-0.45719375 0 0)
(-0.456871 0 0)
(-0.45633773 0 0)
(-0.45559721 0 0)
(-0.45465227 0 0)
(-0.45350509 0 0)
(-0.45215778 0 0)
(-0.45061193 0 0)
(-0.44886915 0 0)
(-0.44693071 0 0)
(-0.444798 0 0)
(-0.4424722 0 0)
(-0.4399546 0 0)
(-0.43724635 0 0)
(-0.43434872 0 0)
(-0.43126292 0 0)
(-0.42799033 0 0)
(-0.42453242 0 0)
(-0.42089059 0 0)
(-0.41683332 0 0)
(-0.45730203 -0 -0)
(-0.45719404 0 0)
(-0.45687221 0 0)
(-0.45634051 0 0)
(-0.45560228 0 0)
(-0.4546603 0 0)
(-0.45351698 0 0)
(-0.45217428 0 0)
(-0.45063399 0 0)
(-0.44889757 0 0)
(-0.44696646 0 0)
(-0.44484194 0 0)
(-0.44252535 0 0)
(-0.44001794 0 0)
(-0.43732106 0 0)
(-0.434436 0 0)
(-0.43136417 0 0)
(-0.42810704 0 0)
(-0.42466626 0 0)
(-0.42104348 0 0)
(-0.4169948 0 0)
(-0.45730203 -0 -0)
(-0.45719418 0 0)
(-0.45687282 0 0)
(-0.45634196 0 0)
(-0.45560498 0 0)
(-0.45466476 0 0)
(-0.45352374 0 0)
(-0.45218392 0 0)
(-0.4506471 0 0)
(-0.44891476 0 0)
(-0.44698835 0 0)
(-0.44486914 0 0)
(-0.4425585 0 0)
(-0.44005771 0 0)
(-0.43736816 0 0)
(-0.43449121 0 0)
(-0.43142839 0 0)
(-0.42818124 0 0)
(-0.42475152 0 0)
(-0.42114112 0 0)
(-0.41710169 0 0)
(-0.45730203 -0 -0)
(-0.4571935 0 0)
(-0.45686953 0 0)
(-0.45633313 0 0)
(-0.45558675 0 0)
(-0.45463215 0 0)
(-0.45347082 0 0)
(-0.45210391 0 0)
(-0.4505323 0 0)
(-0.44875659 0 0)
(-0.44677717 0 0)
(-0.44459424 0 0)
(-0.44220784 0 0)
(-0.43961787 0 0)
(-0.4368241 0 0)
(-0.43382627 0 0)
(-0.43062407 0 0)
(-0.42721735 0 0)
(-0.42360632 0 0)
(-0.41978995 0 0)
(-0.41498002 0 0)
(-0.45730203 -0 -0)
(-0.45719348 0 0)
(-0.45686951 0 0)
(-0.45633326 0 0)
(-0.45558731 0 0)
(-0.45463355 0 0)
(-0.45347355 0 0)
(-0.4521086 0 0)
(-0.45053967 0 0)
(-0.4487675 0 0)
(-0.44679259 0 0)
(-0.4446153 0 0)
(-0.44223575 0 0)
(-0.43965401 0 0)
(-0.43686994 0 0)
(-0.43388344 0 0)
(-0.43069426 0 0)
(-0.42730234 0 0)
(-0.42370768 0 0)
(-0.41990984 0 0)
(-0.41593433 0 0)
(-0.45730203 -0 -0)
(-0.45719331 0 0)
(-0.45686891 0 0)
(-0.45633216 0 0)
(-0.45558575 0 0)
(-0.45463174 0 0)
(-0.45347181 0 0)
(-0.45210738 0 0)
(-0.45053957 0 0)
(-0.44876928 0 0)
(-0.44679713 0 0)
(-0.44462366 0 0)
(-0.44224914 0 0)
(-0.43967379 0 0)
(-0.43689763 0 0)
(-0.43392069 0 0)
(-0.43074279 0 0)
(-0.42736383 0 0)
(-0.42378353 0 0)
(-0.42000153 0 0)
(-0.41598927 0 0)
(-0.45730203 -0 -0)
(-0.45719321 0 0)
(-0.45686861 0 0)
(-0.45633168 0 0)
(-0.45558528 0 0)
(-0.45463158 0 0)
(-0.45347239 0 0)
(-0.45210927 0 0)
(-0.45054346 0 0)
(-0.44877603 0 0)
(-0.44680776 0 0)
(-0.44463933 0 0)
(-0.44227118 0 0)
(-0.43970375 0 0)
(-0.43693721 0 0)
(-0.43397178 0 0)
(-0.43080747 0 0)
(-0.42744439 0 0)
(-0.42388243 0 0)
(-0.4201214 0 0)
(-0.41608543 0 0)
(-0.45730203 -0 -0)
(-0.45719319 0 0)
(-0.45686858 0 0)
(-0.4563318 0 0)
(-0.45558583 0 0)
(-0.45463297 0 0)
(-0.45347515 0 0)
(-0.45211404 0 0)
(-0.45055103 0 0)
(-0.44878731 0 0)
(-0.44682382 0 0)
(-0.44466142 0 0)
(-0.44230072 0 0)
(-0.43974236 0 0)
(-0.43698673 0 0)
(-0.43403428 0 0)
(-0.43088528 0 0)
(-0.42754011 0 0)
(-0.42399906 0 0)
(-0.42026228 0 0)
(-0.4162112 0 0)
(-0.45730203 -0 -0)
(-0.45719323 0 0)
(-0.4568688 0 0)
(-0.45633247 0 0)
(-0.45558734 0 0)
(-0.45463582 0 0)
(-0.45347993 0 0)
(-0.45212148 0 0)
(-0.45056194 0 0)
(-0.44880265 0 0)
(-0.44684468 0 0)
(-0.44468905 0 0)
(-0.44233657 0 0)
(-0.43978806 0 0)
(-0.43704413 0 0)
(-0.43410548 0 0)
(-0.43097265 0 0)
(-0.42764634 0 0)
(-0.42412719 0 0)
(-0.4204157 0 0)
(-0.41635591 0 0)
(-0.45730203 -0 -0)
(-0.45719334 0 0)
(-0.45686929 0 0)
(-0.45633367 0 0)
(-0.45558976 0 0)
(-0.45464 0 0)
(-0.45348658 0 0)
(-0.45213133 0 0)
(-0.45057587 0 0)
(-0.44882159 0 0)
(-0.44686971 0 0)
(-0.44472139 0 0)
(-0.44237759 0 0)
(-0.43983933 0 0)
(-0.43710742 0 0)
(-0.4341828 0 0)
(-0.43106625 0 0)
(-0.42775876 0 0)
(-0.42426127 0 0)
(-0.42057463 0 0)
(-0.41651138 0 0)
(-0.45730203 -0 -0)
(-0.45719351 0 0)
(-0.45687003 0 0)
(-0.45633544 0 0)
(-0.45559303 0 0)
(-0.4546455 0 0)
(-0.45349497 0 0)
(-0.45214346 0 0)
(-0.45059256 0 0)
(-0.44884381 0 0)
(-0.44689845 0 0)
(-0.4447578 0 0)
(-0.44242292 0 0)
(-0.43989503 0 0)
(-0.43717508 0 0)
(-0.43426423 0 0)
(-0.43116347 0 0)
(-0.42787404 0 0)
(-0.42439713 0 0)
(-0.42073392 0 0)
(-0.4166717 0 0)
(-0.45730203 -0 -0)
(-0.45719375 0 0)
(-0.456871 0 0)
(-0.45633773 0 0)
(-0.45559721 0 0)
(-0.45465227 0 0)
(-0.45350509 0 0)
(-0.45215778 0 0)
(-0.45061193 0 0)
(-0.44886915 0 0)
(-0.44693071 0 0)
(-0.444798 0 0)
(-0.4424722 0 0)
(-0.4399546 0 0)
(-0.43724635 0 0)
(-0.43434872 0 0)
(-0.43126292 0 0)
(-0.42799033 0 0)
(-0.42453242 0 0)
(-0.42089059 0 0)
(-0.41683332 0 0)
(-0.45730203 -0 -0)
(-0.45719404 0 0)
(-0.45687221 0 0)
(-0.45634051 0 0)
(-0.45560228 0 0)
(-0.4546603 0 0)
(-0.45351698 0 0)
(-0.45217428 0 0)
(-0.45063399 0 0)
(-0.44889757 0 0)
(-0.44696646 0 0)
(-0.44484194 0 0)
(-0.44252535 0 0)
(-0.44001794 0 0)
(-0.43732106 0 0)
(-0.434436 0 0)
(-0.43136417 0 0)
(-0.42810704 0 0)
(-0.42466626 0 0)
(-0.42104348 0 0)
(-0.4169948 0 0)
(-0.45730203 -0 -0)
(-0.45719418 0 0)
(-0.45687282 0 0)
(-0.45634196 0 0)
(-0.45560498 0 0)
(-0.45466476 0 0)
(-0.45352374 0 0)
(-0.45218392 0 0)
(-0.4506471 0 0)
(-0.44891476 0 0)
(-0.44698835 0 0)
(-0.44486914 0 0)
(-0.4425585 0 0)
(-0.44005771 0 0)
(-0.43736816 0 0)
(-0.43449121 0 0)
(-0.43142839 0 0)
(-0.42818124 0 0)
(-0.42475152 0 0)
(-0.42114112 0 0)
(-0.41710169 0 0)
(-0.45730203 -0 -0)
(-0.45719126 0 0)
(-0.4568603 0 0)
(-0.45631162 0 0)
(-0.45554716 0 0)
(-0.45456846 0 0)
(-0.45337677 0 0)
(-0.45197304 0 0)
(-0.45035801 0 0)
(-0.4485322 0 0)
(-0.44649606 0 0)
(-0.44424988 0 0)
(-0.44179394 0 0)
(-0.43912846 0 0)
(-0.43625365 0 0)
(-0.43316975 0 0)
(-0.42987707 0 0)
(-0.426376 0 0)
(-0.42266703 0 0)
(-0.41874838 0 0)
(-0.41427341 0 0)
(-0.45730203 -0 -0)
(-0.45719143 0 0)
(-0.456861 0 0)
(-0.45631325 0 0)
(-0.45555015 0 0)
(-0.45457327 0 0)
(-0.45338387 0 0)
(-0.45198292 0 0)
(-0.45037117 0 0)
(-0.44854913 0 0)
(-0.44651724 0 0)
(-0.44427578 0 0)
(-0.44182499 0 0)
(-0.43916505 0 0)
(-0.43629613 0 0)
(-0.43321841 0 0)
(-0.42993211 0 0)
(-0.42643753 0 0)
(-0.42273507 0 0)
(-0.41882286 0 0)
(-0.41435749 0 0)
(-0.45730203 -0 -0)
(-0.45719144 0 0)
(-0.45686111 0 0)
(-0.45631362 0 0)
(-0.45555098 0 0)
(-0.45457482 0 0)
(-0.45338642 0 0)
(-0.45198678 0 0)
(-0.45037665 0 0)
(-0.44855657 0 0)
(-0.44652694 0 0)
(-0.44428803 0 0)
(-0.44184005 0 0)
(-0.43918312 0 0)
(-0.43631738 0 0)
(-0.43324291 0 0)
(-0.42995984 0 0)
(-0.42646837 0 0)
(-0.42276876 0 0)
(-0.41885911 0 0)
(-0.41440824 0 0)
(-0.45730203 -0 -0)
(-0.45719153 0 0)
(-0.45686151 0 0)
(-0.45631459 0 0)
(-0.45555289 0 0)
(-0.45457802 0 0)
(-0.45339132 0 0)
(-0.45199377 0 0)
(-0.45038615 0 0)
(-0.44856897 0 0)
(-0.44654262 0 0)
(-0.44430734 0 0)
(-0.44186327 0 0)
(-0.43921048 0 0)
(-0.43634903 0 0)
(-0.4332789 0 0)
(-0.4300001 0 0)
(-0.42651268 0 0)
(-0.42281671 0 0)
(-0.41891027 0 0)
(-0.41448186 0 0)
(-0.45730203 -0 -0)
(-0.45719168 0 0)
(-0.45686213 0 0)
(-0.4563161 0 0)
(-0.4555557 0 0)
(-0.45458267 0 0)
(-0.45339825 0 0)
(-0.45200351 0 0)
(-0.45039914 0 0)
(-0.44858573 0 0)
(-0.44656356 0 0)
(-0.44433287 0 0)
(-0.44189373 0 0)
(-0.43924614 0 0)
(-0.43639004 0 0)
(-0.43332532 0 0)
(-0.43005185 0 0)
(-0.42656944 0 0)
(-0.42287804 0 0)
(-0.41897556 0 0)
(-0.41457749 0 0)
(-0.45730203 -0 -0)
(-0.45719188 0 0)
(-0.45686296 0 0)
(-0.45631802 0 0)
(-0.45555929 0 0)
(-0.45458848 0 0)
(-0.45340684 0 0)
(-0.45201544 0 0)
(-0.45041497 0 0)
(-0.448606 0 0)
(-0.44658876 0 0)
(-0.44436348 0 0)
(-0.44193012 0 0)
(-0.43928865 0 0)
(-0.43643888 0 0)
(-0.43338058 0 0)
(-0.43011344 0 0)
(-0.42663712 0 0)
(-0.42295129 0 0)
(-0.41905383 0 0)
(-0.41469397 0 0)
(-0.45730203 -0 -0)
(-0.45719213 0 0)
(-0.45686395 0 0)
(-0.45632033 0 0)
(-0.45556357 0 0)
(-0.4545953 0 0)
(-0.45341686 0 0)
(-0.45202927 0 0)
(-0.45043325 0 0)
(-0.44862931 0 0)
(-0.44661772 0 0)
(-0.44439861 0 0)
(-0.44197192 0 0)
(-0.43933755 0 0)
(-0.43649517 0 0)
(-0.43344449 0 0)
(-0.43018499 0 0)
(-0.42671621 0 0)
(-0.42303747 0 0)
(-0.41914679 0 0)
(-0.41483358 0 0)
(-0.45730203 -0 -0)
(-0.45719242 0 0)
(-0.45686514 0 0)
(-0.45632309 0 0)
(-0.45556855 0 0)
(-0.45460324 0 0)
(-0.45342845 0 0)
(-0.45204524 0 0)
(-0.45045434 0 0)
(-0.44865625 0 0)
(-0.44665121 0 0)
(-0.44443936 0 0)
(-0.44202058 0 0)
(-0.43939472 0 0)
(-0.4365614 0 0)
(-0.43352022 0 0)
(-0.43027057 0 0)
(-0.42681179 0 0)
(-0.42314306 0 0)
(-0.41926232 0 0)
(-0.41500497 0 0)
(-0.45730203 -0 -0)
(-0.45719277 0 0)
(-0.45686657 0 0)
(-0.45632634 0 0)
(-0.45557443 0 0)
(-0.45461255 0 0)
(-0.45344203 0 0)
(-0.45206395 0 0)
(-0.45047906 0 0)
(-0.44868787 0 0)
(-0.44669064 0 0)
(-0.4444875 0 0)
(-0.44207834 0 0)
(-0.43946297 0 0)
(-0.436641 0 0)
(-0.43361202 0 0)
(-0.43037539 0 0)
(-0.42693044 0 0)
(-0.42327628 0 0)
(-0.41941098 0 0)
(-0.41522051 0 0)
(-0.45730203 -0 -0)
(-0.45719319 0 0)
(-0.45686826 0 0)
(-0.45633019 0 0)
(-0.45558136 0 0)
(-0.45462347 0 0)
(-0.45345794 0 0)
(-0.45208586 0 0)
(-0.45050804 0 0)
(-0.44872499 0 0)
(-0.44673704 0 0)
(-0.44454431 0 0)
(-0.44214676 0 0)
(-0.4395442 0 0)
(-0.43673632 0 0)
(-0.43372271 0 0)
(-0.4305029 0 0)
(-0.42707642 0 0)
(-0.42344286 0 0)
(-0.41960067 0 0)
(-0.41549188 0 0)
(-0.45730203 -0 -0)
(-0.45719126 0 0)
(-0.4568603 0 0)
(-0.45631162 0 0)
(-0.45554716 0 0)
(-0.45456846 0 0)
(-0.45337677 0 0)
(-0.45197304 0 0)
(-0.45035801 0 0)
(-0.4485322 0 0)
(-0.44649606 0 0)
(-0.44424988 0 0)
(-0.44179394 0 0)
(-0.43912846 0 0)
(-0.43625365 0 0)
(-0.43316975 0 0)
(-0.42987707 0 0)
(-0.426376 0 0)
(-0.42266703 0 0)
(-0.41874838 0 0)
(-0.41427341 0 0)
(-0.45730203 -0 -0)
(-0.45719143 0 0)
(-0.456861 0 0)
(-0.45631325 0 0)
(-0.45555015 0 0)
(-0.45457327 0 0)
(-0.45338387 0 0)
(-0.45198292 0 0)
(-0.45037117 0 0)
(-0.44854913 0 0)
(-0.44651724 0 0)
(-0.44427578 0 0)
(-0.44182499 0 0)
(-0.43916505 0 0)
(-0.43629613 0 0)
(-0.43321841 0 0)
(-0.42993211 0 0)
(-0.42643753 0 0)
(-0.42273507 0 0)
(-0.41882286 0 0)
(-0.41435749 0 0)
(-0.45730203 -0 -0)
(-0.45719144 0 0)
(-0.45686111 0 0)
(-0.45631362 0 0)
(-0.45555098 0 0)
(-0.45457482 0 0)
(-0.45338642 0 0)
(-0.45198678 0 0)
(-0.45037665 0 0)
(-0.44855657 0 0)
(-0.44652694 0 0)
(-0.44428803 0 0)
(-0.44184005 0 0)
(-0.43918312 0 0)
(-0.43631738 0 0)
(-0.43324291 0 0)
(-0.42995984 0 0)
(-0.42646837 0 0)
(-0.42276876 0 0)
(-0.41885911 0 0)
(-0.41440824 0 0)
(-0.45730203 -0 -0)
(-0.45719153 0 0)
(-0.45686151 0 0)
(-0.45631459 0 0)
(-0.45555289 0 0)
(-0.45457802 0 0)
(-0.45339132 0 0)
(-0.45199377 0 0)
(-0.45038615 0 0)
(-0.44856897 0 0)
(-0.44654262 0 0)
(-0.44430734 0 0)
(-0.44186327 0 0)
(-0.43921048 0 0)
(-0.43634903 0 0)
(-0.4332789 0 0)
(-0.4300001 0 0)
(-0.42651268 0 0)
(-0.42281671 0 0)
(-0.41891027 0 0)
(-0.41448186 0 0)
(-0.45730203 -0 -0)
(-0.45719168 0 0)
(-0.45686213 0 0)
(-0.4563161 0 0)
(-0.4555557 0 0)
(-0.45458267 0 0)
(-0.45339825 0 0)
(-0.45200351 0 0)
(-0.45039914 0 0)
(-0.44858573 0 0)
(-0.44656356 0 0)
(-0.44433287 0 0)
(-0.44189373 0 0)
(-0.43924614 0 0)
(-0.43639004 0 0)
(-0.43332532 0 0)
(-0.43005185 0 0)
(-0.42656944 0 0)
(-0.42287804 0 0)
(-0.41897556 0 0)
(-0.41457749 0 0)
(-0.45730203 -0 -0)
(-0.45719188 0 0)
(-0.45686296 0 0)
(-0.45631802 0 0)
(-0.45555929 0 0)
(-0.45458848 0 0)
(-0.45340684 0 0)
(-0.45201544 0 0)
(-0.45041497 0 0)
(-0.448606 0 0)
(-0.44658876 0 0)
(-0.44436348 0 0)
(-0.44193012 0 0)
(-0.43928865 0 0)
(-0.43643888 0 0)
(-0.43338058 0 0)
(-0.43011344 0 0)
(-0.42663712 0 0)
(-0.42295129 0 0)
(-0.41905383 0 0)
(-0.41469397 0 0)
(-0.45730203 -0 -0)
(-0.45719213 0 0)
(-0.45686395 0 0)
(-0.45632033 0 0)
(-0.45556357 0 0)
(-0.4545953 0 0)
(-0.45341686 0 0)
(-0.45202927 0 0)
(-0.45043325 0 0)
(-0.44862931 0 0)
(-0.44661772 0 0)
(-0.44439861 0 0)
(-0.44197192 0 0)
(-0.43933755 0 0)
(-0.43649517 0 0)
(-0.43344449 0 0)
(-0.43018499 0 0)
(-0.42671621 0 0)
(-0.42303747 0 0)
(-0.41914679 0 0)
(-0.41483358 0 0)
(-0.45730203 -0 -0)
(-0.45719242 0 0)
(-0.45686514 0 0)
(-0.45632309 0 0)
(-0.45556855 0 0)
(-0.45460324 0 0)
(-0.45342845 0 0)
(-0.45204524 0 0)
(-0.45045434 0 0)
(-0.44865625 0 0)
(-0.44665121 0 0)
(-0.44443936 0 0)
(-0.44202058 0 0)
(-0.43939472 0 0)
(-0.4365614 0 0)
(-0.43352022 0 0)
(-0.43027057 0 0)
(-0.42681179 0 0)
(-0.42314306 0 0)
(-0.41926232 0 0)
(-0.41500497 0 0)
(-0.45730203 -0 -0)
(-0.45719277 0 0)
(-0.45686657 0 0)
(-0.45632634 0 0)
(-0.45557443 0 0)
(-0.45461255 0 0)
(-0.45344203 0 0)
(-0.45206395 0 0)
(-0.45047906 0 0)
(-0.44868787 0 0)
(-0.44669064 0 0)
(-0.4444875 0 0)
(-0.44207834 0 0)
(-0.43946297 0 0)
(-0.436641 0 0)
(-0.43361202 0 0)
(-0.43037539 0 0)
(-0.42693044 0 0)
(-0.42327628 0 0)
(-0.41941098 0 0)
(-0.41522051 0 0)
(-0.45730203 -0 -0)
(-0.45719319 0 0)
(-0.45686826 0 0)
(-0.45633019 0 0)
(-0.45558136 0 0)
(-0.45462347 0 0)
(-0.45345794 0 0)
(-0.45208586 0 0)
(-0.45050804 0 0)
(-0.44872499 0 0)
(-0.44673704 0 0)
(-0.44454431 0 0)
(-0.44214676 0 0)
(-0.4395442 0 0)
(-0.43673632 0 0)
(-0.43372271 0 0)
(-0.4305029 0 0)
(-0.42707642 0 0)
(-0.42344286 0 0)
(-0.41960067 0 0)
(-0.41549188 0 0)
(-0.40880392 0 0)
(-0.40267042 0 0)
(-0.3962289 0 0)
(-0.38949344 0 0)
(-0.38247518 0 0)
(-0.37518724 0 0)
(-0.36764837 0 0)
(-0.3598825 0 0)
(-0.35191553 0 0)
(-0.34377375 0 0)
(-0.3354841 0 0)
(-0.32707234 0 0)
(-0.31856234 0 0)
(-0.30997564 0 0)
(-0.3013337 0 0)
(-0.29265677 0 0)
(-0.28396345 0 0)
(-0.27526732 0 0)
(-0.26657975 0 0)
(-0.25791062 0 0)
(-0.24927169 0 0)
(-0.24067425 0 0)
(-0.23211569 0 0)
(-0.22360299 0 0)
(-0.21514374 0 0)
(-0.20673658 0 0)
(-0.19836695 0 0)
(-0.19003189 0 0)
(-0.18175657 0 0)
(-0.17354989 0 0)
(-0.16537698 0 0)
(-0.15722015 0 0)
(-0.14911891 0 0)
(-0.14108169 0 0)
(-0.13307463 0 0)
(-0.12512637 0 0)
(-0.11723511 0 0)
(-0.10930257 0 0)
(-0.10130133 0 0)
(-0.093332011 0 0)
(-0.085336974 0 0)
(-0.077142677 0 0)
(-0.068742021 0 0)
(-0.060175469 0 0)
(-0.051425853 0 0)
(-0.042383652 0 0)
(-0.03291218 0 0)
(-0.022801999 0 0)
(-0.011842381 0 0)
(0 0 0)
(-0.40890429 0 0)
(-0.40278975 0 0)
(-0.39636509 0 0)
(-0.3896435 0 0)
(-0.38263534 0 0)
(-0.3753529 0 0)
(-0.36781493 0 0)
(-0.36004615 0 0)
(-0.35207359 0 0)
(-0.34392444 0 0)
(-0.33562564 0 0)
(-0.32720322 0 0)
(-0.3186815 0 0)
(-0.31008253 0 0)
(-0.3014279 0 0)
(-0.29273791 0 0)
(-0.2840312 0 0)
(-0.27532181 0 0)
(-0.26662126 0 0)
(-0.25793947 0 0)
(-0.24928776 0 0)
(-0.24067724 0 0)
(-0.23210729 0 0)
(-0.22358441 0 0)
(-0.21511643 0 0)
(-0.20670191 0 0)
(-0.19832563 0 0)
(-0.18998399 0 0)
(-0.1817031 0 0)
(-0.17349284 0 0)
(-0.16531787 0 0)
(-0.15715957 0 0)
(-0.1490584 0 0)
(-0.1410234 0 0)
(-0.13301735 0 0)
(-0.12507083 0 0)
(-0.11718245 0 0)
(-0.10925373 0 0)
(-0.10125656 0 0)
(-0.093290248 0 0)
(-0.085295282 0 0)
(-0.077098471 0 0)
(-0.068696619 0 0)
(-0.060132698 0 0)
(-0.051390313 0 0)
(-0.042356548 0 0)
(-0.032892593 0 0)
(-0.022788794 0 0)
(-0.011835229 0 0)
(0 0 0)
(-0.40899302 0 0)
(-0.40292593 0 0)
(-0.39654467 0 0)
(-0.38986134 0 0)
(-0.38288547 0 0)
(-0.37562876 0 0)
(-0.36810971 0 0)
(-0.3603545 0 0)
(-0.35239116 0 0)
(-0.34424684 0 0)
(-0.33594884 0 0)
(-0.32752392 0 0)
(-0.31899707 0 0)
(-0.31039046 0 0)
(-0.30172569 0 0)
(-0.29302373 0 0)
(-0.2843038 0 0)
(-0.27557984 0 0)
(-0.26686321 0 0)
(-0.25816497 0 0)
(-0.24949672 0 0)
(-0.24086814 0 0)
(-0.23228084 0 0)
(-0.22374214 0 0)
(-0.21525938 0 0)
(-0.20683053 0 0)
(-0.19844046 0 0)
(-0.1900856 0 0)
(-0.18179248 0 0)
(-0.17357146 0 0)
(-0.16538731 0 0)
(-0.15722104 0 0)
(-0.14911339 0 0)
(-0.14107342 0 0)
(-0.13306155 0 0)
(-0.12511047 0 0)
(-0.11721835 0 0)
(-0.10928708 0 0)
(-0.10128844 0 0)
(-0.0933189 0 0)
(-0.085316442 0 0)
(-0.077109872 0 0)
(-0.06870065 0 0)
(-0.060133727 0 0)
(-0.051392303 0 0)
(-0.042359974 0 0)
(-0.032896792 0 0)
(-0.022792184 0 0)
(-0.011836595 0 0)
(0 0 0)
(-0.40912686 0 0)
(-0.40313538 0 0)
(-0.39682359 0 0)
(-0.39020229 0 0)
(-0.38328008 0 0)
(-0.37606812 0 0)
(-0.36858584 0 0)
(-0.36085997 0 0)
(-0.35291922 0 0)
(-0.34479107 0 0)
(-0.33650274 0 0)
(-0.32808177 0 0)
(-0.31955423 0 0)
(-0.31094281 0 0)
(-0.3022689 0 0)
(-0.29355404 0 0)
(-0.28481842 0 0)
(-0.27607643 0 0)
(-0.26733919 0 0)
(-0.25861878 0 0)
(-0.24992749 0 0)
(-0.24127436 0 0)
(-0.23266239 0 0)
(-0.22409957 0 0)
(-0.21559387 0 0)
(-0.20714258 0 0)
(-0.19873017 0 0)
(-0.1903532 0 0)
(-0.18203935 0 0)
(-0.17379956 0 0)
(-0.16559812 0 0)
(-0.1574154 0 0)
(-0.14929309 0 0)
(-0.14124042 0 0)
(-0.13321482 0 0)
(-0.12525142 0 0)
(-0.11734867 0 0)
(-0.10940788 0 0)
(-0.10140059 0 0)
(-0.093420655 0 0)
(-0.0854035 0 0)
(-0.077179996 0 0)
(-0.068756448 0 0)
(-0.060180156 0 0)
(-0.051433291 0 0)
(-0.04239515 0 0)
(-0.032925457 0 0)
(-0.022812671 0 0)
(-0.011846789 0 0)
(0 0 0)
(-0.40930443 0 0)
(-0.40341644 0 0)
(-0.39719995 0 0)
(-0.39066422 0 0)
(-0.38381681 0 0)
(-0.37666922 0 0)
(-0.36924177 0 0)
(-0.36156171 0 0)
(-0.35365771 0 0)
(-0.3455572 0 0)
(-0.33728787 0 0)
(-0.32887791 0 0)
(-0.3203545 0 0)
(-0.31174095 0 0)
(-0.30305859 0 0)
(-0.29433015 0 0)
(-0.28557688 0 0)
(-0.27681322 0 0)
(-0.26805042 0 0)
(-0.2593022 0 0)
(-0.25058181 0 0)
(-0.24189706 0 0)
(-0.23325287 0 0)
(-0.22465827 0 0)
(-0.21612122 0 0)
(-0.20763865 0 0)
(-0.19919522 0 0)
(-0.19078772 0 0)
(-0.1824445 0 0)
(-0.17417717 0 0)
(-0.16594994 0 0)
(-0.15774281 0 0)
(-0.14959777 0 0)
(-0.14152387 0 0)
(-0.13347682 0 0)
(-0.12549377 0 0)
(-0.11757276 0 0)
(-0.10961508 0 0)
(-0.10159245 0 0)
(-0.093595246 0 0)
(-0.085555709 0 0)
(-0.077308058 0 0)
(-0.068863877 0 0)
(-0.060272135 0 0)
(-0.051513002 0 0)
(-0.042461686 0 0)
(-0.03297844 0 0)
(-0.022850024 0 0)
(-0.011865634 0 0)
(0 0 0)
(-0.40952465 0 0)
(-0.40376761 0 0)
(-0.39767223 0 0)
(-0.39124564 0 0)
(-0.38449496 0 0)
(-0.37743238 0 0)
(-0.37007869 0 0)
(-0.36246087 0 0)
(-0.35460786 0 0)
(-0.34654741 0 0)
(-0.33830691 0 0)
(-0.329915 0 0)
(-0.3214004 0 0)
(-0.3127874 0 0)
(-0.30409758 0 0)
(-0.29535473 0 0)
(-0.28658145 0 0)
(-0.27779263 0 0)
(-0.26899967 0 0)
(-0.26021767 0 0)
(-0.25146134 0 0)
(-0.24273839 0 0)
(-0.23405432 0 0)
(-0.22541944 0 0)
(-0.21684251 0 0)
(-0.20832016 0 0)
(-0.1998368 0 0)
(-0.19138953 0 0)
(-0.1830081 0 0)
(-0.17470486 0 0)
(-0.16644326 0 0)
(-0.15820293 0 0)
(-0.15002689 0 0)
(-0.14192369 0 0)
(-0.13384699 0 0)
(-0.12583644 0 0)
(-0.11789017 0 0)
(-0.10990823 0 0)
(-0.10186282 0 0)
(-0.093841297 0 0)
(-0.085772423 0 0)
(-0.077493965 0 0)
(-0.069022538 0 0)
(-0.060408895 0 0)
(-0.051630983 0 0)
(-0.042559316 0 0)
(-0.033055258 0 0)
(-0.02290397 0 0)
(-0.011893072 0 0)
(0 0 0)
(-0.40978921 0 0)
(-0.40419007 0 0)
(-0.3982413 0 0)
(-0.39194806 0 0)
(-0.38531715 0 0)
(-0.37836098 0 0)
(-0.37110007 0 0)
(-0.36356145 0 0)
(-0.35577342 0 0)
(-0.34776521 0 0)
(-0.33956398 0 0)
(-0.33119758 0 0)
(-0.32269635 0 0)
(-0.31408632 0 0)
(-0.30538988 0 0)
(-0.29663204 0 0)
(-0.28783649 0 0)
(-0.27901849 0 0)
(-0.27019024 0 0)
(-0.26136867 0 0)
(-0.25256959 0 0)
(-0.24380077 0 0)
(-0.23506913 0 0)
(-0.22638583 0 0)
(-0.21775983 0 0)
(-0.20918829 0 0)
(-0.20065602 0 0)
(-0.19216012 0 0)
(-0.18373122 0 0)
(-0.17538276 0 0)
(-0.16707816 0 0)
(-0.15879643 0 0)
(-0.15058086 0 0)
(-0.14243959 0 0)
(-0.13432523 0 0)
(-0.12627945 0 0)
(-0.11830007 0 0)
(-0.11028635 0 0)
(-0.10221127 0 0)
(-0.094158292 0 0)
(-0.086052809 0 0)
(-0.077737016 0 0)
(-0.069232314 0 0)
(-0.060590578 0 0)
(-0.051786871 0 0)
(-0.042687524 0 0)
(-0.03315566 0 0)
(-0.022974229 0 0)
(-0.0119289 0 0)
(0 0 0)
(-0.41010591 0 0)
(-0.40469055 0 0)
(-0.39891319 0 0)
(-0.39277717 0 0)
(-0.38628865 0 0)
(-0.37946043 0 0)
(-0.37231241 0 0)
(-0.36486868 0 0)
(-0.35715962 0 0)
(-0.34921704 0 0)
(-0.34106573 0 0)
(-0.33273144 0 0)
(-0.32424784 0 0)
(-0.31564349 0 0)
(-0.3069412 0 0)
(-0.29816728 0 0)
(-0.2893469 0 0)
(-0.28049571 0 0)
(-0.27162696 0 0)
(-0.26275951 0 0)
(-0.25391034 0 0)
(-0.24508814 0 0)
(-0.23630056 0 0)
(-0.22755982 0 0)
(-0.21887552 0 0)
(-0.21024538 0 0)
(-0.20165457 0 0)
(-0.19310049 0 0)
(-0.18461487 0 0)
(-0.17621202 0 0)
(-0.1678553 0 0)
(-0.1595233 0 0)
(-0.15125964 0 0)
(-0.14307183 0 0)
(-0.13491114 0 0)
(-0.12682213 0 0)
(-0.11880224 0 0)
(-0.11074905 0 0)
(-0.10263664 0 0)
(-0.094545031 0 0)
(-0.086396375 0 0)
(-0.078037159 0 0)
(-0.069492956 0 0)
(-0.060816675 0 0)
(-0.051980386 0 0)
(-0.042846016 0 0)
(-0.033279193 0 0)
(-0.023060538 0 0)
(-0.011973046 0 0)
(0 0 0)
(-0.41048695 0 0)
(-0.40527949 0 0)
(-0.39969705 0 0)
(-0.3937404 0 0)
(-0.38741675 0 0)
(-0.38073931 0 0)
(-0.37372442 0 0)
(-0.36639451 0 0)
(-0.35877945 0 0)
(-0.35091166 0 0)
(-0.3428173 0 0)
(-0.33452309 0 0)
(-0.32606307 0 0)
(-0.31746717 0 0)
(-0.30875954 0 0)
(-0.29996818 0 0)
(-0.2911196 0 0)
(-0.28223001 0 0)
(-0.27331488 0 0)
(-0.26439515 0 0)
(-0.25548849 0 0)
(-0.24660424 0 0)
(-0.23775211 0 0)
(-0.228945 0 0)
(-0.22019241 0 0)
(-0.21149319 0 0)
(-0.20283408 0 0)
(-0.19421257 0 0)
(-0.18566051 0 0)
(-0.17719314 0 0)
(-0.16877494 0 0)
(-0.1603842 0 0)
(-0.15206374 0 0)
(-0.14382013 0 0)
(-0.13560481 0 0)
(-0.12746466 0 0)
(-0.1193961 0 0)
(-0.11129542 0 0)
(-0.10313841 0 0)
(-0.09500095 0 0)
(-0.086802336 0 0)
(-0.078393927 0 0)
(-0.069804507 0 0)
(-0.061087407 0 0)
(-0.052211275 0 0)
(-0.04303442 0 0)
(-0.033425581 0 0)
(-0.023162565 0 0)
(-0.012025312 0 0)
(0 0 0)
(-0.4109454 0 0)
(-0.40596779 0 0)
(-0.40060132 0 0)
(-0.39484675 0 0)
(-0.38871237 0 0)
(-0.3822074 0 0)
(-0.37534455 0 0)
(-0.36814625 0 0)
(-0.36063969 0 0)
(-0.35285547 0 0)
(-0.34482596 0 0)
(-0.33658034 0 0)
(-0.32814977 0 0)
(-0.31956505 0 0)
(-0.31085187 0 0)
(-0.30203912 0 0)
(-0.29315688 0 0)
(-0.2842246 0 0)
(-0.2752582 0 0)
(-0.26627946 0 0)
(-0.25730701 0 0)
(-0.24835175 0 0)
(-0.23942565 0 0)
(-0.23054247 0 0)
(-0.22171129 0 0)
(-0.21293235 0 0)
(-0.20419465 0 0)
(-0.19549616 0 0)
(-0.18686796 0 0)
(-0.17832581 0 0)
(-0.16983631 0 0)
(-0.16137811 0 0)
(-0.15299214 0 0)
(-0.14468372 0 0)
(-0.13640502 0 0)
(-0.12820587 0 0)
(-0.12008079 0 0)
(-0.11192456 0 0)
(-0.10371507 0 0)
(-0.095524661 0 0)
(-0.087270058 0 0)
(-0.078807141 0 0)
(-0.070166707 0 0)
(-0.06140217 0 0)
(-0.052479161 0 0)
(-0.043252471 0 0)
(-0.033594422 0 0)
(-0.023280022 0 0)
(-0.012085635 0 0)
(0 0 0)
(-0.41037187 0 0)
(-0.40561986 0 0)
(-0.40047234 0 0)
(-0.3949325 0 0)
(-0.38900498 0 0)
(-0.38269165 0 0)
(-0.3760059 0 0)
(-0.36897087 0 0)
(-0.36160917 0 0)
(-0.35394949 0 0)
(-0.34602653 0 0)
(-0.33787055 0 0)
(-0.3295119 0 0)
(-0.32098134 0 0)
(-0.31230528 0 0)
(-0.30351423 0 0)
(-0.29464179 0 0)
(-0.28570977 0 0)
(-0.27673308 0 0)
(-0.26773352 0 0)
(-0.2587317 0 0)
(-0.24974063 0 0)
(-0.24077473 0 0)
(-0.23184765 0 0)
(-0.22296806 0 0)
(-0.21413762 0 0)
(-0.20534807 0 0)
(-0.19659758 0 0)
(-0.18791578 0 0)
(-0.1793194 0 0)
(-0.17077773 0 0)
(-0.16226975 0 0)
(-0.15383372 0 0)
(-0.14547528 0 0)
(-0.13714693 0 0)
(-0.12889858 0 0)
(-0.12072612 0 0)
(-0.11252339 0 0)
(-0.10426936 0 0)
(-0.096030843 0 0)
(-0.08772643 0 0)
(-0.079215044 0 0)
(-0.070528046 0 0)
(-0.061718609 0 0)
(-0.052749808 0 0)
(-0.043473813 0 0)
(-0.033766431 0 0)
(-0.023400716 0 0)
(-0.012148835 0 0)
(0 0 0)
(-0.40880392 0 0)
(-0.40267042 0 0)
(-0.3962289 0 0)
(-0.38949344 0 0)
(-0.38247518 0 0)
(-0.37518724 0 0)
(-0.36764837 0 0)
(-0.3598825 0 0)
(-0.35191553 0 0)
(-0.34377375 0 0)
(-0.3354841 0 0)
(-0.32707234 0 0)
(-0.31856234 0 0)
(-0.30997564 0 0)
(-0.3013337 0 0)
(-0.29265677 0 0)
(-0.28396345 0 0)
(-0.27526732 0 0)
(-0.26657975 0 0)
(-0.25791062 0 0)
(-0.24927169 0 0)
(-0.24067425 0 0)
(-0.23211569 0 0)
(-0.22360299 0 0)
(-0.21514374 0 0)
(-0.20673658 0 0)
(-0.19836695 0 0)
(-0.19003189 0 0)
(-0.18175657 0 0)
(-0.17354989 0 0)
(-0.16537698 0 0)
(-0.15722015 0 0)
(-0.14911891 0 0)
(-0.14108169 0 0)
(-0.13307463 0 0)
(-0.12512637 0 0)
(-0.11723511 0 0)
(-0.10930257 0 0)
(-0.10130133 0 0)
(-0.093332011 0 0)
(-0.085336974 0 0)
(-0.077142677 0 0)
(-0.068742021 0 0)
(-0.060175469 0 0)
(-0.051425853 0 0)
(-0.042383652 0 0)
(-0.03291218 0 0)
(-0.022801999 0 0)
(-0.011842381 0 0)
(0 0 0)
(-0.40890429 0 0)
(-0.40278975 0 0)
(-0.39636509 0 0)
(-0.3896435 0 0)
(-0.38263534 0 0)
(-0.3753529 0 0)
(-0.36781493 0 0)
(-0.36004615 0 0)
(-0.35207359 0 0)
(-0.34392444 0 0)
(-0.33562564 0 0)
(-0.32720322 0 0)
(-0.3186815 0 0)
(-0.31008253 0 0)
(-0.3014279 0 0)
(-0.29273791 0 0)
(-0.2840312 0 0)
(-0.27532181 0 0)
(-0.26662126 0 0)
(-0.25793947 0 0)
(-0.24928776 0 0)
(-0.24067724 0 0)
(-0.23210729 0 0)
(-0.22358441 0 0)
(-0.21511643 0 0)
(-0.20670191 0 0)
(-0.19832563 0 0)
(-0.18998399 0 0)
(-0.1817031 0 0)
(-0.17349284 0 0)
(-0.16531787 0 0)
(-0.15715957 0 0)
(-0.1490584 0 0)
(-0.1410234 0 0)
(-0.13301735 0 0)
(-0.12507083 0 0)
(-0.11718245 0 0)
(-0.10925373 0 0)
(-0.10125656 0 0)
(-0.093290248 0 0)
(-0.085295282 0 0)
(-0.077098471 0 0)
(-0.068696619 0 0)
(-0.060132698 0 0)
(-0.051390313 0 0)
(-0.042356548 0 0)
(-0.032892593 0 0)
(-0.022788794 0 0)
(-0.011835229 0 0)
(0 0 0)
(-0.40899302 0 0)
(-0.40292593 0 0)
(-0.39654467 0 0)
(-0.38986134 0 0)
(-0.38288547 0 0)
(-0.37562876 0 0)
(-0.36810971 0 0)
(-0.3603545 0 0)
(-0.35239116 0 0)
(-0.34424684 0 0)
(-0.33594884 0 0)
(-0.32752392 0 0)
(-0.31899707 0 0)
(-0.31039046 0 0)
(-0.30172569 0 0)
(-0.29302373 0 0)
(-0.2843038 0 0)
(-0.27557984 0 0)
(-0.26686321 0 0)
(-0.25816497 0 0)
(-0.24949672 0 0)
(-0.24086814 0 0)
(-0.23228084 0 0)
(-0.22374214 0 0)
(-0.21525938 0 0)
(-0.20683053 0 0)
(-0.19844046 0 0)
(-0.1900856 0 0)
(-0.18179248 0 0)
(-0.17357146 0 0)
(-0.16538731 0 0)
(-0.15722104 0 0)
(-0.14911339 0 0)
(-0.14107342 0 0)
(-0.13306155 0 0)
(-0.12511047 0 0)
(-0.11721835 0 0)
(-0.10928708 0 0)
(-0.10128844 0 0)
(-0.0933189 0 0)
(-0.085316442 0 0)
(-0.077109872 0 0)
(-0.06870065 0 0)
(-0.060133727 0 0)
(-0.051392303 0 0)
(-0.042359974 0 0)
(-0.032896792 0 0)
(-0.022792184 0 0)
(-0.011836595 0 0)
(0 0 0)
(-0.40912686 0 0)
(-0.40313538 0 0)
(-0.39682359 0 0)
(-0.39020229 0 0)
(-0.38328008 0 0)
(-0.37606812 0 0)
(-0.36858584 0 0)
(-0.36085997 0 0)
(-0.35291922 0 0)
(-0.34479107 0 0)
(-0.33650274 0 0)
(-0.32808177 0 0)
(-0.31955423 0 0)
(-0.31094281 0 0)
(-0.3022689 0 0)
(-0.29355404 0 0)
(-0.28481842 0 0)
(-0.27607643 0 0)
(-0.26733919 0 0)
(-0.25861878 0 0)
(-0.24992749 0 0)
(-0.24127436 0 0)
(-0.23266239 0 0)
(-0.22409957 0 0)
(-0.21559387 0 0)
(-0.20714258 0 0)
(-0.19873017 0 0)
(-0.1903532 0 0)
(-0.18203935 0 0)
(-0.17379956 0 0)
(-0.16559812 0 0)
(-0.1574154 0 0)
(-0.14929309 0 0)
(-0.14124042 0 0)
(-0.13321482 0 0)
(-0.12525142 0 0)
(-0.11734867 0 0)
(-0.10940788 0 0)
(-0.10140059 0 0)
(-0.093420655 0 0)
(-0.0854035 0 0)