/*--------------------------------*- C++ -*----------------------------------*\
| =========                 |                                                 |
| \\      /  F ield         | OpenFOAM: The Open Source CFD Toolbox           |
|  \\    /   O peration     | Version:  v2012                                 |
|   \\  /    A nd           | Website:  www.openfoam.com                      |
|    \\/     M anipulation  |                                                 |
\*---------------------------------------------------------------------------*/
FoamFile
{
    version     2.0;
    format      ascii;
    class       volVectorField;
    location    "7.493965366";
    object      U;
}
// * * * * * * * * * * * * * * * * * * * * * * * * * * * * * * * * * * * * * //

dimensions      [0 1 -1 0 0 0 0];


internalField   nonuniform List<vector> 
9200
(
(2.5033511 -0.00052965214 -3.0983864e-22)
(2.5031942 -0.0016587648 -5.9696763e-22)
(2.5049553 -0.0006231059 -6.2687985e-22)
(2.5030387 -0.0025363654 -2.748773e-22)
(2.5047398 -0.0019422005 -5.6638828e-22)
(2.5059417 -0.00068726311 2.345492e-22)
(2.5027565 -0.0034237677 1.152563e-23)
(2.5045039 -0.0029731588 1.7206934e-23)
(2.5056934 -0.0021375399 4.0748923e-22)
(2.5072231 -0.0007678787 6.1930925e-22)
(2.5024711 -0.0040842859 1.1529812e-22)
(2.504108 -0.0040205589 -3.3461787e-22)
(2.5054121 -0.0032744432 -2.3399875e-24)
(2.5069352 -0.0023942174 2.9072222e-22)
(2.5085481 -0.00085401786 -2.6011861e-22)
(2.5021314 -0.004690837 -1.666809e-23)
(2.5036792 -0.0047997268 -2.3084684e-23)
(2.5049473 -0.0044344987 6.5322782e-23)
(2.5065962 -0.0036708214 8.9607503e-23)
(2.508224 -0.0026754982 -3.5428407e-22)
(2.5099891 -0.00094652588 -9.2451477e-22)
(2.5017908 -0.0051363421 -1.3566069e-23)
(2.5031821 -0.005521169 1.1415966e-22)
(2.5044364 -0.0053012566 -1.8004546e-22)
(2.5060465 -0.004980364 2.5415676e-22)
(2.5078298 -0.0041063425 6.2391577e-22)
(2.5096306 -0.0029857917 -2.9319205e-22)
(2.5115309 -0.0010434787 -3.5238898e-22)
(2.5014387 -0.0054953362 -1.8494729e-22)
(2.5026658 -0.0060519425 1.7879205e-22)
(2.5038433 -0.0061075044 -7.4791863e-23)
(2.5054317 -0.0059664864 1.687921e-22)
(2.5071996 -0.0055824375 2.567301e-22)
(2.5091817 -0.0045881414 -3.4751185e-22)
(2.5111416 -0.0033187723 -5.7841833e-22)
(2.5131779 -0.0011432623 1.010944e-21)
(2.5010953 -0.0057408208 -6.9995128e-23)
(2.5021314 -0.0064833074 -6.3920438e-23)
(2.5032222 -0.0067054522 2.2365973e-22)
(2.5047181 -0.0068882942 1.0005204e-22)
(2.506484 -0.0067056276 -1.9214438e-22)
(2.5084724 -0.0062511535 3.0776348e-23)
(2.5106409 -0.0051073433 5.9654856e-22)
(2.512763 -0.00366936 -7.8322094e-22)
(2.5149257 -0.0012439797 1.4853304e-21)
(2.5007613 -0.0059022253 -4.1781116e-23)
(2.5015992 -0.0067800013 -1.5288558e-22)
(2.5025757 -0.0071947237 3.3590448e-22)
(2.5039632 -0.007580579 -6.9982917e-23)
(2.5056524 -0.0077608999 9.9302204e-23)
(2.5076554 -0.0075323277 1.2246792e-22)
(2.5098579 -0.006975106 -4.0340348e-22)
(2.5122153 -0.0056570655 2.503112e-22)
(2.5144919 -0.004031526 5.3672064e-22)
(2.5167685 -0.0013436884 -3.1410127e-22)
(2.5004437 -0.0059819675 3.9598129e-23)
(2.5010769 -0.0069775566 -1.2103509e-22)
(2.5019276 -0.0075354888 9.182992e-23)
(2.5031733 -0.00815208 -2.2267911e-23)
(2.5047642 -0.0085659292 5.8722603e-22)
(2.5067036 -0.0087426277 -7.3034445e-22)
(2.5089428 -0.0084340411 -1.6727419e-22)
(2.511366 -0.0077455434 2.7878625e-22)
(2.5139043 -0.006228465 -1.7632391e-21)
(2.5163241 -0.0043993641 1.5910377e-21)
(2.5186978 -0.0014404558 -1.8950396e-21)
(2.5001448 -0.0059955243 -1.3238485e-23)
(2.5005742 -0.0070773379 -4.1914889e-23)
(2.5012875 -0.0077661725 1.177169e-22)
(2.5023751 -0.0085575016 -4.1129463e-22)
(2.5038294 -0.0092373434 2.4155531e-22)
(2.5056773 -0.0096826298 4.0433433e-22)
(2.5078735 -0.0098205606 -3.4477907e-22)
(2.5103592 -0.0094013315 -1.0168979e-22)
(2.5129988 -0.008550964 0)
(2.5157058 -0.0068119006 -5.5295571e-22)
(2.5182522 -0.0047668578 8.5415718e-24)
(2.5207031 -0.0015323901 4.635556e-23)
(2.4998679 -0.0059521035 -6.7924777e-23)
(2.5000971 -0.0070975473 -1.9185994e-22)
(2.5006677 -0.0078873248 -2.4444417e-22)
(2.5015816 -0.0088381025 -6.6940838e-23)
(2.5028774 -0.0097243545 -3.4869191e-22)
(2.50459 -0.010475704 1.1743563e-22)
(2.5067088 -0.010918568 1.5521449e-22)
(2.5091776 -0.010985343 -5.2641082e-22)
(2.5119102 -0.010421201 2.1195132e-22)
(2.5147573 -0.0093787204 -1.8168115e-22)
(2.5176146 -0.0073968437 -2.7460527e-23)
(2.5202663 -0.0051273987 -6.9119835e-22)
(2.5227717 -0.0016176216 7.8499104e-22)
(2.4996142 -0.0058623927 1.7003811e-22)
(2.4996501 -0.0070485034 2.0974221e-22)
(2.500076 -0.007918421 -4.31551e-22)
(2.5008081 -0.0089934643 5.3057208e-22)
(2.5019245 -0.010070196 -6.2770463e-22)
(2.5034735 -0.011065411 4.292974e-22)
(2.5054658 -0.011856757 9.6068244e-22)
(2.5078769 -0.012265546 -5.5229307e-22)
(2.5106257 -0.012223348 -2.5367698e-22)
(2.5136006 -0.01147891 6.8208676e-22)
(2.516639 -0.010214859 -2.8307246e-22)
(2.5196224 -0.0079720692 -4.1726211e-23)
(2.5223544 -0.0054734633 -4.3095955e-22)
(2.5248891 -0.0016943298 3.1985321e-24)
(2.4993834 -0.0057353465 1.9104353e-22)
(2.4992359 -0.0069429768 2.1223349e-22)
(2.4995187 -0.0078704219 1.2023168e-22)
(2.5000648 -0.0090444892 3.5492695e-24)
(2.5009887 -0.010273251 4.4723635e-22)
(2.5023475 -0.011496013 -2.3633753e-22)
(2.5041779 -0.012572913 -4.1080456e-22)
(2.5064777 -0.013374425 8.4273361e-22)
(2.5091961 -0.013710494 -7.7011218e-22)
(2.512227 -0.013518704 2.7916927e-22)
(2.5154321 -0.012557741 -1.1803475e-21)
(2.5186391 -0.011044256 9.2969203e-22)
(2.5217184 -0.0085259307 1.1835741e-21)
(2.5245021 -0.0057969602 3.4526487e-23)
(2.5270392 -0.0017608237 0)
(2.4991749 -0.0055793796 -2.4468517e-22)
(2.4988561 -0.0067915828 -6.6048615e-22)
(2.4990001 -0.0077573922 -5.9674772e-22)
(2.4993607 -0.0090028464 7.0835707e-23)
(2.5000835 -0.010355425 2.3576717e-22)
(2.5012329 -0.011764382 -1.1005736e-21)
(2.5028681 -0.013111204 1.8357556e-22)
(2.5050137 -0.014243873 1.431443e-21)
(2.5076443 -0.015017351 -4.1776072e-22)
(2.5106801 -0.015237605 -4.0154068e-22)
(2.5139879 -0.014852933 -1.382726e-22)
(2.5174036 -0.013639169 -4.0922784e-22)
(2.5207496 -0.011850785 -1.6494217e-21)
(2.5238896 -0.0090467478 1.0203204e-21)
(2.5266937 -0.0060900378 -8.0214269e-23)
(2.5292046 -0.0018156341 7.7949229e-25)
(2.4989877 -0.0054018629 3.7795409e-23)
(2.4985108 -0.0066044592 2.8031968e-22)
(2.4985224 -0.0075910403 -8.6873371e-22)
(2.4987016 -0.0088840174 3.7542408e-22)
(2.4992202 -0.010328875 1.6163284e-22)
(2.5001466 -0.011892883 -8.8085397e-23)
(2.5015606 -0.013466523 2.4863736e-22)
(2.5035114 -0.014916731 -1.2579297e-22)
(2.5060036 -0.016069834 5.1965569e-22)
(2.5089844 -0.016771098 -5.0347271e-22)
(2.5123412 -0.01682779 -4.5999298e-22)
(2.5159124 -0.016204992 5.3054464e-23)
(2.519511 -0.014703072 8.6978459e-22)
(2.5229599 -0.012617735 -2.9128899e-22)
(2.5261213 -0.0095231773 -6.6199808e-22)
(2.528912 -0.0063458049 1.4035776e-21)
(2.5313679 -0.001857577 -1.3897406e-21)
(2.4988206 -0.0052091144 9.2435025e-23)
(2.4981992 -0.0063904209 1.4921274e-22)
(2.4980868 -0.0073827015 7.536167e-22)
(2.4980915 -0.0087009805 -7.1316457e-22)
(2.498407 -0.010210349 5.3217229e-22)
(2.4991029 -0.011893853 2.4420573e-21)
(2.5002757 -0.013660909 -5.1386498e-22)
(2.5019977 -0.015385284 -5.805081e-23)
(2.5043033 -0.016908151 8.0421351e-22)
(2.5071716 -0.018039054 1.1096507e-21)
(2.5105162 -0.018617349 -5.1029516e-22)
(2.514189 -0.018458524 -4.1772812e-22)
(2.5180012 -0.017551344 1.8316711e-21)
(2.5217468 -0.015728189 7.1422897e-22)
(2.5252566 -0.013328357 2.8047927e-21)
(2.528397 -0.0099445568 -3.4014413e-23)
(2.5311394 -0.0065586425 5.4169447e-22)
(2.5335116 -0.0018857637 -2.8487921e-21)
(2.498672 -0.0050061689 6.4288972e-23)
(2.4979201 -0.0061573278 -4.4226322e-22)
(2.4976929 -0.0071422986 3.2989716e-22)
(2.4975325 -0.008466655 -1.8377111e-23)
(2.4976496 -0.010013994 -1.0989861e-21)
(2.4981126 -0.011785053 1.6926736e-21)
(2.4990308 -0.013706396 -5.1797723e-22)
(2.5004965 -0.015670229 -1.3735867e-22)
(2.5025729 -0.017521205 5.8993053e-22)
(2.5052727 -0.019077721 6.4463201e-22)
(2.5085419 -0.02013543 -1.1541233e-21)
(2.5122562 -0.02053346 -5.5844937e-22)
(2.5162306 -0.020103692 1.1080811e-21)
(2.5202516 -0.018866308 4.7860306e-22)
(2.5241002 -0.016692701 1.7604957e-21)
(2.5276237 -0.013966509 -1.5895597e-21)
(2.530699 -0.010301273 7.2305439e-22)
(2.5333575 -0.0067241677 -1.3965217e-21)
(2.535619 -0.0018995928 1.6238394e-21)
(2.4985404 -0.0047975814 0)
(2.4976713 -0.0059117265 8.4009932e-23)
(2.4973396 -0.0068787744 -3.1995205e-23)
(2.4970252 -0.0081923077 2.4003099e-22)
(2.496952 -0.0097544175 1.1019203e-22)
(2.4971837 -0.011581633 -1.7684616e-21)
(2.4978399 -0.013621339 -1.994123e-21)
(2.4990287 -0.015782667 -1.0645716e-21)
(2.5008396 -0.017927165 -5.8574067e-22)
(2.5033191 -0.01987175 -2.7251617e-21)
(2.5064499 -0.021413028 2.2754378e-21)
(2.5101383 -0.022337705 2.2806345e-23)
(2.5142185 -0.02249197 9.6524093e-22)
(2.5184691 -0.021733778 -4.2565994e-22)
(2.5226568 -0.020122659 1.6190696e-21)
(2.5265571 -0.017574961 -9.0671628e-22)
(2.5300433 -0.014517363 -3.0398787e-21)
(2.5330084 -0.010585152 8.7140818e-22)
(2.5355487 -0.0068391088 8.9565593e-22)
(2.5376744 -0.0018987438 5.3750832e-21)
(2.4984241 -0.0045869176 -8.6873657e-23)
(2.4974508 -0.0056592418 -8.1966154e-23)
(2.497025 -0.0065997125 6.0848738e-22)
(2.4965691 -0.0078885324 1.2131136e-21)
(2.4963155 -0.0094441814 1.5479106e-21)
(2.4963223 -0.011299981 -7.4827586e-22)
(2.496714 -0.013421609 1.92335e-21)
(2.4976118 -0.015740942 -1.230631e-21)
(2.4991281 -0.018135406 -5.5981476e-22)
(2.5013414 -0.020435506 2.5844712e-22)
(2.5042725 -0.022429634 8.1028285e-22)
(2.5078661 -0.023895852 -8.8435884e-22)
(2.5119829 -0.024618592 1.0377902e-21)
(2.5164138 -0.024460518 5.8389125e-22)
(2.5209031 -0.0233164 -2.1956714e-22)
(2.5252055 -0.021292511 2.3037592e-23)
(2.5291004 -0.018354393 -5.0519973e-21)
(2.5324954 -0.014968054 9.6007926e-22)
(2.5353063 -0.010789768 -6.4920661e-23)
(2.5376957 -0.0069012568 -6.522117e-23)
(2.5396632 -0.0018831869 -1.098525e-21)
(2.4983215 -0.0043771194 4.2593355e-23)
(2.4972561 -0.0054043263 -2.1069877e-23)
(2.4967469 -0.0063118108 -2.4193263e-22)
(2.4961622 -0.0075640695 5.804e-22)
(2.4957409 -0.0090958749 1.164433e-22)
(2.4955311 -0.010953855 -3.9419594e-23)
(2.4956613 -0.013125323 1.0704358e-21)
(2.4962603 -0.015561256 2.8273434e-22)
(2.4974599 -0.018163466 7.757327e-22)
(2.4993677 -0.020775669 1.3854533e-21)
(2.5020428 -0.023194482 -1.5052643e-21)
(2.5054714 -0.025181344 6.5100571e-22)
(2.5095519 -0.026500892 -8.7836456e-23)
(2.514095 -0.026944288 8.3441252e-22)
(2.5188479 -0.026402183 5.1611389e-23)
(2.5235263 -0.024817275 1.9036572e-21)
(2.5278825 -0.022348508 -3.1780371e-21)
(2.53171 -0.019012413 -7.4609484e-22)
(2.5349594 -0.015308145 1.7499792e-21)
(2.5375736 -0.010910602 -2.0042175e-21)
(2.5397823 -0.0069095032 -8.0741376e-24)
(2.5415727 -0.0018531821 -3.9880816e-21)
(2.498231 -0.0041703033 4.5742619e-23)
(2.4970848 -0.0051508245 1.4114061e-22)
(2.4965021 -0.0060202794 -5.8648169e-23)
(2.4958025 -0.0072272567 -5.374491e-22)
(2.4952264 -0.0087192831 -1.5095504e-21)
(2.4948125 -0.010558267 -3.8767824e-23)
(2.4946871 -0.012747264 -1.4001477e-21)
(2.4949855 -0.015263207 1.0994448e-21)
(2.4958533 -0.018027348 7.5067443e-22)
(2.4974242 -0.020907942 1.7332519e-21)
(2.499793 -0.023710371 -3.002926e-23)
(2.5029893 -0.026196907 -9.0828835e-22)
(2.5069554 -0.028105488 -2.3645049e-21)
(2.5115364 -0.029194783 4.3062779e-21)
(2.5164897 -0.029274464 -7.0260881e-22)
(2.5215211 -0.028276426 -9.4268026e-22)
(2.5263266 -0.026201643 -4.2435572e-22)
(2.530668 -0.023265105 -2.7521309e-21)
(2.5343636 -0.019533185 3.0151907e-21)
(2.5374139 -0.015529863 2.261285e-21)
(2.5397923 -0.010945089 1.6402364e-22)
(2.5417942 -0.0068638737 9.1145262e-22)
(2.5433917 -0.0018092667 -8.2409478e-22)
(2.4981513 -0.0039684579 -1.230591e-22)
(2.4969344 -0.0049012885 -4.3857706e-22)
(2.4962879 -0.0057299459 2.9192198e-22)
(2.4954865 -0.0068841478 6.6279338e-22)
(2.4947708 -0.0083249772 -7.8516537e-23)
(2.4941653 -0.010123813 1.0076277e-21)
(2.4937952 -0.012305226 7.9609467e-22)
(2.4937952 -0.014862395 3.1433852e-21)
(2.4943233 -0.017747653 -3.2602478e-23)
(2.4955334 -0.020847417 4.9642241e-22)
(2.4975534 -0.023989847 3.7896163e-22)
(2.5004552 -0.026940039 -1.0630783e-21)
(2.504229 -0.029427222 1.2191206e-23)
(2.5087639 -0.031171288 -5.2468794e-22)
(2.5138453 -0.031935509 -3.0339291e-22)
(2.5191758 -0.031563003 1.4261123e-21)
(2.5244269 -0.030040691 -3.4994126e-22)
(2.5292865 -0.027435875 -3.053926e-21)
(2.5335389 -0.024019637 -3.0673878e-21)
(2.5370376 -0.019904102 2.5958787e-21)
(2.5398378 -0.015628202 -1.9070297e-21)
(2.5419454 -0.010892591 9.5592574e-22)
(2.5437183 -0.0067654935 1.2844867e-22)
(2.5451109 -0.0017522152 -7.7775712e-23)
(2.498081 -0.00377249 -2.0582299e-22)
(2.4968025 -0.0046583938 -1.7839295e-22)
(2.4961011 -0.0054437702 -8.3706989e-23)
(2.4952112 -0.0065411956 -8.3253588e-22)
(2.49437 -0.0079195606 1.5061711e-21)
(2.4935892 -0.0096640919 -7.3661225e-22)
(2.4929857 -0.011810324 -1.7886197e-21)
(2.4926958 -0.014379557 -5.0853511e-22)
(2.4928812 -0.017340567 -3.8333052e-22)
(2.4937148 -0.020614979 5.0356666e-22)
(2.4953517 -0.024046112 5.9942832e-22)
(2.4979038 -0.027418486 3.8702161e-21)
(2.5014103 -0.030456702 -1.1191723e-22)
(2.5058118 -0.032859543 -3.1611995e-21)
(2.5109344 -0.034337263 3.8897485e-21)
(2.5164983 -0.034672701 -1.1939801e-21)
(2.5221548 -0.033759641 -2.0107932e-21)
(2.5275516 -0.031652312 -4.6813561e-22)
(2.5323832 -0.028488896 1.3531159e-21)
(2.5364693 -0.024593094 2.1492881e-21)
(2.5397073 -0.0201161 3.2574698e-22)
(2.5422107 -0.015600957 -2.1275007e-21)
(2.5440176 -0.01075431 -5.4563467e-23)
(2.5455437 -0.0066164707 -2.9934392e-22)
(2.546723 -0.0016829947 3.0162105e-21)
(2.4980185 -0.0035839488 1.5722673e-22)
(2.4966865 -0.004422893 3.3921351e-22)
(2.4959388 -0.0051653728 2.5081325e-22)
(2.4949723 -0.0062017265 4.9516163e-22)
(2.4940217 -0.0075119582 1.4033376e-21)
(2.4930802 -0.0091857063 -1.8342526e-21)
(2.4922599 -0.011280044 -1.2669552e-21)
(2.4916889 -0.013826087 -4.1094585e-21)
(2.4915361 -0.016829647 -2.1062617e-21)
(2.4919835 -0.020227121 -9.8443104e-22)
(2.4932121 -0.023899325 -6.7845551e-22)
(2.4953682 -0.027642197 9.6441823e-22)
(2.498538 -0.031194944 3.4277702e-21)
(2.5027181 -0.03424171 4.7009355e-23)
(2.5077875 -0.036455565 -5.8301627e-22)
(2.5134996 -0.037550801 -1.8580795e-21)
(2.5195077 -0.037349118 -6.7208756e-22)
(2.5254198 -0.035812113 -4.5361908e-22)
(2.5308747 -0.033070315 -1.2036005e-21)
(2.5355892 -0.029333338 1.3407616e-21)
(2.5394309 -0.024970698 3.4169595e-21)
(2.5423482 -0.020163844 -9.5583604e-22)
(2.5445136 -0.015448672 2.6158684e-21)
(2.5459954 -0.010533137 -2.3644585e-23)
(2.5472617 -0.0064197461 -2.3570178e-21)
(2.5482227 -0.0016027185 1.2974854e-21)
(2.4979622 -0.0034024763 7.1050065e-23)
(2.4965842 -0.0041970712 3.0199269e-22)
(2.4957975 -0.0048954904 7.5070238e-23)
(2.4947669 -0.0058710366 4.0652713e-22)
(2.4937203 -0.0071054062 -9.2139857e-22)
(2.4926368 -0.0087012636 9.963699e-22)
(2.4916137 -0.010720283 1.7090073e-23)
(2.4907777 -0.013224038 -9.3751949e-22)
(2.4902921 -0.016226444 1.31366e-21)
(2.4903522 -0.019709842 -1.1878084e-21)
(2.4911547 -0.023565865 9.0162584e-22)
(2.4928777 -0.027629185 -4.5325746e-21)
(2.4956503 -0.031646842 -1.4510066e-21)
(2.4995245 -0.035309987 9.3952169e-24)
(2.5044412 -0.038262858 -1.0400114e-21)
(2.5102036 -0.040163142 1.5745709e-21)
(2.516485 -0.040749197 -2.3832989e-22)
(2.5228759 -0.039902893 -5.1748349e-21)
(2.5289545 -0.037668285 3.2959704e-21)
(2.5343685 -0.034257003 7.6875846e-22)
(2.5388731 -0.02994651 -9.7628834e-22)
(2.5423944 -0.025142334 -4.4373091e-21)
(2.5449365 -0.020045782 -3.7360987e-21)
(2.546729 -0.015174475 -3.4185402e-22)
(2.5478675 -0.010233437 -4.5617102e-23)
(2.5488651 -0.0061789554 1.0026034e-22)
(2.5496064 -0.0015126101 1.7137603e-22)
(2.4979115 -0.0032300574 -2.0240345e-22)
(2.4964927 -0.0039796653 -1.6999719e-22)
(2.4956744 -0.0046376161 1.4594576e-22)
(2.4945905 -0.0055496723 2.4858691e-22)
(2.4934638 -0.0067079711 -1.8185805e-21)
(2.4922526 -0.0082130139 -7.3494981e-22)
(2.4910473 -0.01014879 -3.3165926e-22)
(2.4899587 -0.012577939 1.2815494e-21)
(2.4891543 -0.015557891 3.7795759e-21)
(2.4888281 -0.019074881 5.9800155e-23)
(2.4891961 -0.023073569 -1.2307291e-21)
(2.4904587 -0.027394961 3.3043572e-23)
(2.4927828 -0.031826265 -2.4357627e-21)
(2.4962738 -0.03606207 3.0655336e-21)
(2.5009376 -0.039740594 -3.1776728e-21)
(2.5066423 -0.042471765 -3.4599306e-22)
(2.5131014 -0.043916518 -2.6264132e-21)
(2.519906 -0.043861765 -1.4458223e-21)
(2.5265945 -0.042269917 6.3246747e-21)
(2.5327337 -0.03927818 4.1836043e-21)
(2.5379995 -0.035179417 -1.1359749e-21)
(2.5422007 -0.030311219 -1.0550679e-21)
(2.5453304 -0.025102807 -9.3271146e-22)
(2.5474496 -0.01976403 -1.4737933e-21)
(2.5488416 -0.014783811 -6.1632028e-22)
(2.5496247 -0.0098608172 1.5471099e-22)
(2.5503494 -0.0058983102 1.2028007e-21)
(2.5508722 -0.001413958 -1.0571148e-22)
(2.4978676 -0.0030647177 -1.428518e-22)
(2.4964118 -0.003773976 3.5995477e-22)
(2.4955661 -0.0043900245 1.4972815e-22)
(2.4944409 -0.0052432311 -4.0010509e-22)
(2.4932468 -0.0063194113 0)
(2.4919269 -0.0077333939 -2.6727729e-22)
(2.4905537 -0.0095655891 2.3921418e-21)
(2.4892343 -0.011912078 6.6951347e-22)
(2.4881206 -0.014826711 2.3689107e-21)
(2.4874183 -0.018354036 -3.2124836e-21)
(2.4873477 -0.02243448 -2.2626961e-21)
(2.4881326 -0.026968278 1.0059354e-21)
(2.4899685 -0.031746552 1.0926323e-21)
(2.4930077 -0.036505035 1.0964193e-21)
(2.4973232 -0.040877005 1.9238486e-21)
(2.502856 -0.044445952 1.2286518e-21)
(2.5093809 -0.04680288 -5.6909607e-22)
(2.5165128 -0.047637923 1.9213763e-22)
(2.5237658 -0.04681227 -3.5954012e-21)
(2.5306434 -0.044386259 8.4727862e-21)
(2.536723 -0.040596026 -1.7774398e-21)
(2.5417288 -0.035810707 8.0712568e-23)
(2.5455363 -0.030416377 -5.7797222e-21)
(2.54821 -0.024851857 5.6980751e-21)
(2.5498669 -0.019324084 3.4458387e-21)
(2.5508385 -0.014284108 -3.0170953e-21)
(2.5512598 -0.009421874 -3.6182493e-22)
(2.5517115 -0.0055824392 3.9856277e-22)
(2.5520198 -0.0013080621 -7.2939076e-22)
(2.4978313 -0.002909873 1.3831296e-22)
(2.4963433 -0.0035756628 2.2091441e-22)
(2.4954724 -0.0041580063 4.172303e-22)
(2.4943147 -0.0049492532 -7.8933581e-22)
(2.4930696 -0.005948632 -2.3368776e-22)
(2.4916537 -0.0072599903 1.062109e-22)
(2.4901338 -0.0089895699 1.3265122e-21)
(2.4885971 -0.01122287 2.988073e-21)
(2.4871959 -0.014064698 1.3045598e-21)
(2.486123 -0.017548146 -1.5191027e-21)
(2.485619 -0.02168511 -7.6990444e-23)
(2.4859158 -0.026361516 -6.7905758e-22)
(2.4872351 -0.031435756 -1.455853e-21)
(2.4897666 -0.03664807 -2.9028365e-21)
(2.4936444 -0.041669313 7.251018e-21)
(2.4988917 -0.046062463 3.6180557e-21)
(2.5053587 -0.049364846 1.8929428e-21)
(2.5127089 -0.051174127 -1.950663e-21)
(2.5204565 -0.051239753 -8.8347599e-22)
(2.5280531 -0.049521615 2.7187898e-21)
(2.5349902 -0.046190824 -1.9377689e-21)
(2.5408803 -0.041582317 3.5391619e-22)
(2.5455142 -0.036131241 1.3204054e-21)
(2.5488437 -0.030257271 1.8948931e-21)
(2.551006 -0.024393925 -2.6464812e-21)
(2.5521705 -0.018734427 -4.3154897e-22)
(2.5527092 -0.013684421 2.6217339e-22)
(2.5527682 -0.0089239257 2.1932455e-21)
(2.5529503 -0.0052361498 1.6345181e-21)
(2.5530504 -0.0011961991 5.5956284e-23)
(2.4977942 -0.0027480856 6.8677085e-23)
(2.4962877 -0.0033915532 -3.2340857e-22)
(2.4953943 -0.0039353597 -1.0423002e-22)
(2.4942115 -0.0046762514 1.8610967e-21)
(2.4929297 -0.0055915209 4.0882252e-23)
(2.4914361 -0.0068063966 2.6514351e-22)
(2.4897794 -0.0084139303 3.6336907e-22)
(2.4880492 -0.010537962 2.6984375e-22)
(2.4863728 -0.013263362 -6.155149e-21)
(2.4849493 -0.016697039 3.6561409e-22)
(2.4840126 -0.020824695 3.8528976e-21)
(2.4838213 -0.025615668 1.1573518e-22)
(2.4846057 -0.03090624 0)
(2.4865854 -0.036515803 -1.6407408e-21)
(2.4899493 -0.042120016 -2.2035571e-21)
(2.494799 -0.047305677 -4.5346127e-21)
(2.5010786 -0.05156635 -4.6709117e-22)
(2.5085204 -0.05441483 2.6475398e-22)
(2.5166652 -0.055488393 -4.3282278e-22)
(2.5249351 -0.054627286 -1.2103589e-21)
(2.5327412 -0.051911094 1.8444898e-21)
(2.5395913 -0.047628245 -2.9376021e-21)
(2.5451571 -0.04220564 2.7904433e-21)
(2.5493113 -0.036129304 6.9724777e-22)
(2.5520877 -0.029835488 7.1085432e-21)
(2.5536937 -0.02373773 -5.9970195e-22)
(2.554345 -0.018006048 6.8518145e-22)
(2.5544458 -0.012995026 2.5259416e-21)
(2.5541469 -0.0083746967 -8.4859897e-22)
(2.5540663 -0.0048641892 4.9383703e-22)
(2.5539672 -0.0010796484 -2.0722595e-22)
(2.4977563 -0.0025742111 -7.6988864e-23)
(2.4962271 -0.0031991578 -4.7581235e-23)
(2.4953311 -0.0037319242 -3.9508617e-22)
(2.4941289 -0.0044155484 -7.1529147e-22)
(2.4928284 -0.0052612395 1.4577389e-21)
(2.4912733 -0.0063643103 -1.8561689e-22)
(2.4894942 -0.007858752 2.6793157e-23)
(2.4875768 -0.0098434023 -8.0502367e-22)
(2.4856537 -0.012461186 -5.2084759e-21)
(2.4838903 -0.01578637 2.165189e-22)
(2.4825378 -0.019901517 -9.5172298e-22)
(2.4818546 -0.024728902 -6.2167144e-21)
(2.4820977 -0.030202749 -3.5230585e-21)
(2.4834963 -0.036119502 2.9077253e-22)
(2.4862802 -0.042246417 1.1953624e-21)
(2.490632 -0.048168672 -5.907974e-22)
(2.4965905 -0.053376648 -3.2540524e-23)
(2.5039841 -0.057310803 3.1344724e-23)
(2.512405 -0.059492435 -1.1244357e-21)
(2.5212713 -0.059635877 3.7544811e-22)
(2.5299319 -0.057702385 -1.9256024e-21)
(2.537788 -0.053906187 2.7773449e-21)
(2.5443931 -0.048651634 1.7688286e-22)
(2.5495004 -0.042444009 -3.0761622e-21)
(2.5530754 -0.035801328 7.0522685e-21)
(2.555235 -0.029158555 1.4831078e-21)
(2.5562514 -0.022895704 -2.0006467e-21)
(2.5563781 -0.017151907 2.1485444e-22)
(2.5560428 -0.012226981 -2.4050791e-21)
(2.5553953 -0.0077819833 -2.0732912e-21)
(2.5550616 -0.004471142 -3.9736866e-22)
(2.5547735 -0.0009597217 8.7926292e-23)
(2.4977288 -0.0023990466 3.1922842e-22)
(2.4961729 -0.0029907498 2.4887252e-22)
(2.4952579 -0.0035174655 5.0483124e-23)
(2.49406 -0.004181505 -1.8005688e-21)
(2.4927577 -0.0049463244 -1.3130626e-21)
(2.4911727 -0.0059527693 -8.0409106e-22)
(2.4892767 -0.0073072709 -7.0595403e-22)
(2.4871791 -0.0091685632 3.4633793e-22)
(2.4850152 -0.011634251 2.1557462e-21)
(2.4829477 -0.014867107 3.2097664e-22)
(2.4811887 -0.018894912 -9.8094988e-21)
(2.4800275 -0.023758638 4.9469549e-22)
(2.4797217 -0.029322833 3.875957e-22)
(2.4805224 -0.03550555 -1.7841862e-21)
(2.4826798 -0.042056855 -6.5969296e-21)
(2.4864397 -0.048656839 3.0824854e-21)
(2.491951 -0.054776918 1.6701071e-21)
(2.4991458 -0.059815163 6.4677758e-21)
(2.5077013 -0.063190413 3.2097322e-21)
(2.5170588 -0.064474581 1.6333026e-21)
(2.5265266 -0.063497986 -1.1007184e-21)
(2.5354107 -0.060368232 -2.2683854e-21)
(2.5431369 -0.055440438 4.6361029e-23)
(2.5493341 -0.049224804 -6.2049659e-21)
(2.5538547 -0.042285621 -2.1054535e-21)
(2.556763 -0.035151729 -2.5640036e-21)
(2.5582556 -0.028239334 -5.1832235e-22)
(2.5586606 -0.021883301 -6.5299598e-22)
(2.5582604 -0.016186313 1.8054664e-21)
(2.5574971 -0.01139163 6.4623715e-22)
(2.5565141 -0.0071533419 -3.7908148e-22)
(2.5559393 -0.0040614033 -3.6124886e-22)
(2.5554718 -0.00083766172 1.2432844e-22)
(2.4977045 -0.0022211627 -1.7721907e-22)
(2.4961379 -0.0027822113 2.521326e-24)
(2.4951878 -0.0032836056 3.7960824e-23)
(2.493966 -0.0039342706 5.8135933e-22)
(2.4926988 -0.0046689107 -1.6059724e-21)
(2.4911262 -0.0055563605 1.2731328e-21)
(2.4891494 -0.0067859569 9.8811528e-23)
(2.4868481 -0.0084830453 -5.2497296e-22)
(2.4844459 -0.010825358 1.1365745e-21)
(2.4820864 -0.013903025 1.1575172e-21)
(2.4799653 -0.017869813 1.413091e-21)
(2.4783348 -0.022677955 1.0174024e-20)
(2.4774926 -0.028333816 1.2769297e-21)
(2.4776826 -0.034670774 5.4941148e-22)
(2.4791785 -0.041595216 -4.4297773e-21)
(2.4822754 -0.04877331 -3.0152724e-21)
(2.4872142 -0.055756259 -3.5273469e-21)
(2.4940605 -0.061895384 -2.8279748e-22)
(2.5025915 -0.066519911 -5.3104421e-21)
(2.5123078 -0.069071999 1.6259303e-21)
(2.522504 -0.069222228 -5.6356579e-21)
(2.5324059 -0.066952904 -5.3847481e-21)
(2.541315 -0.062534485 5.9483697e-21)
(2.5487188 -0.056458853 -2.1045565e-21)
(2.5543472 -0.049323823 -1.7902927e-21)
(2.5581644 -0.041729071 1.2512616e-21)
(2.5603335 -0.034192361 -2.459999e-21)
(2.561123 -0.027095199 3.4686055e-21)
(2.5609067 -0.020718202 -3.1851038e-21)
(2.5599856 -0.015124252 -1.9483142e-21)
(2.5588079 -0.010500118 1.4508711e-21)
(2.5575056 -0.0064958337 -6.3304961e-22)
(2.5567031 -0.0036389168 -1.4355942e-22)
(2.556065 -0.00071437282 2.1464032e-22)
(2.4976798 -0.0020424645 -2.0899932e-22)
(2.4961087 -0.0025698954 -4.3955438e-22)
(2.4951462 -0.0030492766 -1.6526462e-22)
(2.4938695 -0.0036637667 -6.4302524e-23)
(2.4925909 -0.004378029 1.4651903e-23)
(2.4911025 -0.005210987 1.113869e-21)
(2.4891206 -0.0062719377 2.3297762e-22)
(2.4866304 -0.0078242699 -8.1095467e-22)
(2.4839238 -0.0099856065 -8.0178604e-23)
(2.481281 -0.01295548 8.8964229e-22)
(2.4788215 -0.016776017 6.1985459e-21)
(2.4767756 -0.021567727 2.5135908e-22)
(2.4754066 -0.027202851 4.1589369e-22)
(2.4749957 -0.033692009 8.5082457e-22)
(2.4758067 -0.040856848 1.919838e-22)
(2.4781773 -0.048553462 3.92404e-22)
(2.482442 -0.056310277 4.7402469e-21)
(2.4887842 -0.063521072 -5.4767799e-21)
(2.4971239 -0.069433912 1.1834806e-21)
(2.5070426 -0.073352455 9.3792191e-21)
(2.5178557 -0.074797401 -1.4044267e-21)
(2.5287329 -0.073586544 -4.2909174e-21)
(2.5388576 -0.069882121 -7.1978029e-21)
(2.5475702 -0.064122155 5.7608631e-22)
(2.5544547 -0.056920583 -2.6086064e-21)
(2.559363 -0.048937884 7.1386254e-21)
(2.562376 -0.040783035 5.6798366e-21)
(2.5637501 -0.032941623 -1.816237e-21)
(2.5638153 -0.025747036 -2.7845182e-21)
(2.5629786 -0.019419415 -1.0003799e-22)
(2.5615501 -0.013980711 -1.4467636e-21)
(2.5599761 -0.0095629731 5.8902696e-22)
(2.5583732 -0.0058158276 3.0305513e-23)
(2.5573574 -0.0032067036 -3.3447964e-22)
(2.5565633 -0.0005904641 -9.8020272e-22)
(2.497655 -0.0018619712 6.3023355e-25)
(2.4960784 -0.0023570142 4.0974206e-23)
(2.495114 -0.0028099871 1.2481981e-23)
(2.4938166 -0.0033928678 -3.0505723e-22)
(2.4924653 -0.0040633303 -3.4350049e-22)
(2.4910069 -0.0048542967 -9.4831921e-23)
(2.4891613 -0.0058234109 1.4398251e-21)
(2.4865787 -0.0071542334 1.1202392e-21)
(2.4835245 -0.009170459 -3.8359103e-23)
(2.4804891 -0.011953341 -4.846262e-22)
(2.4777197 -0.015698703 -5.4716766e-21)
(2.475295 -0.020362594 -2.2897015e-21)
(2.4734636 -0.026029647 6.1875806e-22)
(2.4724629 -0.032530422 2.5228839e-21)
(2.4725886 -0.039925147 3.8886227e-21)
(2.4741897 -0.047990222 8.9330103e-21)
(2.4776796 -0.056458943 -4.3293387e-21)
(2.4833835 -0.064678267 -7.7417051e-22)
(2.4913521 -0.071881204 7.259137e-21)
(2.5012998 -0.077254926 -7.0698127e-21)
(2.5125892 -0.080138345 2.107824e-21)
(2.5243633 -0.080189871 -3.8944561e-21)
(2.5357053 -0.077416814 3.0556908e-21)
(2.545805 -0.072177028 9.8137539e-21)
(2.5540862 -0.065067768 -3.707553e-23)
(2.5602598 -0.056800793 2.4160093e-22)
(2.5643122 -0.048069458 1.3012004e-20)
(2.5664396 -0.039465407 1.4086107e-21)
(2.5669813 -0.031423244 -9.8096949e-22)
(2.566315 -0.024218088 4.7200033e-21)
(2.564869 -0.018006385 7.2186295e-21)
(2.562953 -0.012770117 3.0857989e-21)
(2.5610044 -0.008589859 1.0800473e-21)
(2.5591215 -0.005118924 -1.9868163e-23)
(2.5579078 -0.002767225 -3.1965547e-22)
(2.5569803 -0.00046709339 2.2128506e-21)
(2.4976311 -0.0016802802 9.6233395e-23)
(2.4960475 -0.002141833 2.00554e-22)
(2.4950797 -0.0025705552 4.2504673e-22)
(2.4937825 -0.0031165797 1.7293983e-22)
(2.492404 -0.0037510115 2.8073443e-22)
(2.4908736 -0.0044792886 1.1288985e-22)
(2.4891297 -0.0053650298 5.8667128e-22)
(2.4866968 -0.006563876 8.7696307e-22)
(2.4833706 -0.0083141738 0)
(2.4798122 -0.010980736 -2.5527464e-22)
(2.4765948 -0.014541817 -2.2712604e-21)
(2.4738494 -0.019176622 -2.2728032e-22)
(2.4716035 -0.02473257 2.6066969e-22)
(2.4700866 -0.031307321 1.8155483e-22)
(2.4695351 -0.038754644 1.1044283e-20)
(2.4703433 -0.04716743 2.383357e-21)
(2.4729862 -0.05619213 4.8026212e-21)
(2.477909 -0.065365174 -4.1901353e-21)
(2.4853422 -0.073836686 5.9425513e-21)
(2.4951258 -0.080708175 -9.0929986e-21)
(2.5067247 -0.085171944 1.030028e-20)
(2.5192844 -0.086673215 4.8344639e-21)
(2.5318092 -0.085063199 -3.0572984e-21)
(2.5433473 -0.080568975 2.3416895e-23)
(2.5531487 -0.073745005 -1.4241387e-21)
(2.5607619 -0.065326701 -2.127073e-22)
(2.5660469 -0.056091629 -1.1963272e-21)
(2.5691289 -0.046733653 -1.2448097e-20)
(2.5703111 -0.037801923 -5.6351333e-21)
(2.5700007 -0.029664836 8.5300982e-21)
(2.5686093 -0.022532789 2.1982396e-21)
(2.5665739 -0.016498215 -7.3557512e-24)
(2.5641954 -0.011505954 -5.3044313e-22)
(2.5618969 -0.0075895175 -4.436313e-24)
(2.5597558 -0.0044101023 -8.9430712e-22)
(2.5583605 -0.0023240931 1.0535507e-21)
(2.5573053 -0.0003464182 -1.4489167e-22)
(2.4976083 -0.0014973728 -9.7963715e-23)
(2.4960177 -0.0019254849 -2.9049121e-23)
(2.4950446 -0.0023284677 2.4438128e-23)
(2.493747 -0.0028426209 1.0265878e-22)
(2.4923818 -0.0034358372 3.5321971e-23)
(2.490829 -0.0041163141 -3.5755041e-22)
(2.4890464 -0.0048983476 -5.5812072e-22)
(2.4867851 -0.0059561151 -1.0333807e-21)
(2.4835401 -0.0075527587 -6.5037651e-23)
(2.4794527 -0.0099281149 2.2564326e-21)
(2.4755627 -0.01343008 7.1880719e-21)
(2.472353 -0.017886272 1.2183445e-21)
(2.4697856 -0.023460295 2.0080105e-21)
(2.4678063 -0.029922642 3.0571842e-21)
(2.4666524 -0.037488961 -8.8582634e-21)
(2.4666634 -0.046032459 -1.1167263e-20)
(2.4683981 -0.055585357 -5.144852e-21)
(2.4724323 -0.065568505 -3.1678297e-21)
(2.4791478 -0.07527225 -7.1307625e-21)
(2.4885805 -0.083674989 -4.6497381e-21)
(2.5002966 -0.089809732 -2.1163965e-21)
(2.5134964 -0.092954755 4.6995399e-21)
(2.5271346 -0.092732897 3.276789e-22)
(2.5401288 -0.089232273 -7.5063949e-21)
(2.5515532 -0.082914022 5.6107444e-21)
(2.560771 -0.074514693 3.3131867e-21)
(2.5674893 -0.06487541 -4.0362809e-21)
(2.5717302 -0.054802104 -8.8711266e-21)
(2.5737528 -0.044956789 -1.4970681e-20)
(2.5739526 -0.035824405 -7.6661333e-21)
(2.5727884 -0.027696388 -4.6076045e-21)
(2.5706901 -0.020715708 -2.8704976e-21)
(2.5680923 -0.014913114 -1.3015767e-21)