/*--------------------------------*- C++ -*----------------------------------*\
| =========                 |                                                 |
| \\      /  F ield         | OpenFOAM: The Open Source CFD Toolbox           |
|  \\    /   O peration     | Version:  v2012                                 |
|   \\  /    A nd           | Website:  www.openfoam.com                      |
|    \\/     M anipulation  |                                                 |
\*---------------------------------------------------------------------------*/
FoamFile
{
    version     2.0;
    format      ascii;
    class       surfaceVectorField;
    location    "7.493965366";
    object      Uf;
}
// * * * * * * * * * * * * * * * * * * * * * * * * * * * * * * * * * * * * * //

dimensions      [0 1 -1 0 0 0 0];


internalField   nonuniform List<vector> 
18180
(
(2.50327 -0.0011112805 -4.5821735e-22)
(2.5042842 -0.00057723986 -4.7128056e-22)
(2.5031138 -0.0021118915 -4.305229e-22)
(2.5040932 -0.0018030993 -5.8139625e-22)
(2.5048439 -0.0013008002 -5.9561986e-22)
(2.5054125 -0.00065577564 -1.8821875e-22)
(2.5028929 -0.0029974421 -1.2687431e-22)
(2.5038904 -0.0027587932 -1.2614372e-22)
(2.5046179 -0.002474759 -2.6480675e-22)
(2.5051822 -0.0020416687 -7.0463999e-23)
(2.5058134 -0.001430621 3.2391884e-22)
(2.5066084 -0.00072831475 4.3047737e-22)
(2.502609 -0.0037625023 6.5151653e-23)
(2.5035429 -0.0037276686 -1.6458443e-22)
(2.5042993 -0.003518484 -1.6460401e-22)
(2.5049257 -0.0031265768 7.2531059e-24)
(2.5055481 -0.0027254459 1.9570375e-22)
(2.5063397 -0.0022682475 3.4795364e-22)
(2.5070743 -0.0016009052 4.4950638e-22)
(2.5078982 -0.00081174218 1.7149105e-22)
(2.5022956 -0.0044001252 4.7102388e-23)
(2.5031735 -0.0044486042 4.4686949e-23)
(2.5038864 -0.0044192964 -1.7362823e-22)
(2.5044986 -0.0042313447 -1.3084355e-22)
(2.5051719 -0.003878991 3.2625783e-23)
(2.5060285 -0.00347629 4.4559674e-23)
(2.50676 -0.0030546046 1.867931e-22)
(2.5075921 -0.0025374505 -3.7729592e-23)
(2.5083806 -0.0017871111 -3.0878022e-22)
(2.5092858 -0.0009011241 -5.9843611e-22)
(2.5019554 -0.0049194148 -1.5065065e-23)
(2.5027429 -0.0051136593 5.0019463e-23)
(2.5034223 -0.0051762253 4.7838661e-23)
(2.5040322 -0.0050551166 -1.0290553e-22)
(2.5046833 -0.0048780529 -6.1475051e-23)
(2.50552 -0.0047124678 1.6148142e-22)
(2.5063121 -0.0043535904 1.7464088e-22)
(2.5072254 -0.003892597 3.6168715e-22)
(2.5080203 -0.0034155979 1.5121608e-22)
(2.5089444 -0.0028335037 -3.2317536e-22)
(2.5098039 -0.0019919877 -5.9826791e-22)
(2.5107766 -0.00099589489 -6.3317938e-22)
(2.5016089 -0.0053228324 -1.0213051e-22)
(2.5022998 -0.0056025847 8.4386513e-23)
(2.5029153 -0.0057930613 1.4755963e-22)
(2.5034913 -0.0058197449 1.7989415e-23)
(2.5041299 -0.0057222983 -1.2565389e-22)
(2.5049553 -0.0056400071 -2.40989e-24)
(2.5057288 -0.0054853771 2.100433e-22)
(2.5066352 -0.0052869506 2.5546715e-22)
(2.5075041 -0.004876355 4.3416702e-22)
(2.5085225 -0.0043516805 1.292547e-22)
(2.5093986 -0.0038142213 -3.2126266e-22)
(2.5104027 -0.0031553473 -4.3843045e-22)
(2.5113297 -0.0022113577 -4.6919347e-22)
(2.5123718 -0.0010942887 3.4182076e-22)
(2.5012612 -0.0056215304 -1.2554356e-22)
(2.501842 -0.0059984319 -1.2331786e-22)
(2.5023896 -0.0062762392 5.3365747e-23)
(2.5029268 -0.0063847256 2.0163979e-22)
(2.5035224 -0.0064138843 7.9438353e-23)
(2.5042999 -0.0065050976 1.4222153e-23)
(2.505063 -0.0064479021 1.3326959e-22)
(2.5059696 -0.0063428686 -1.4988863e-23)
(2.5068298 -0.0061580885 2.4767877e-23)
(2.5078524 -0.0059229552 1.4161469e-22)
(2.5088151 -0.0054561337 -1.520258e-22)
(2.5099278 -0.0048525213 1.3317085e-22)
(2.5108829 -0.0042428403 2.8763698e-23)
(2.5119698 -0.0034972918 -6.8267617e-22)
(2.5129635 -0.0024418543 8.3779669e-23)
(2.5140695 -0.0011945475 1.2524919e-21)
(2.5009227 -0.0058244028 -5.5414969e-23)
(2.5013888 -0.0062699941 -1.1222479e-22)
(2.5018564 -0.0066356024 -1.0989491e-22)
(2.5023407 -0.006845578 1.3968006e-22)
(2.5028881 -0.0069598549 2.8166432e-22)
(2.5036095 -0.0071510807 7.413231e-23)
(2.504328 -0.0072433573 1.2183583e-23)
(2.5051964 -0.0073326355 9.9661336e-23)
(2.5060543 -0.0072568023 -4.1535087e-23)
(2.5070854 -0.0071265899 -3.1941656e-23)
(2.5080502 -0.0069083062 7.8159179e-23)
(2.5091815 -0.0066197916 -1.9035251e-22)
(2.5102363 -0.0060827474 7.9809252e-23)
(2.5114455 -0.0053872609 4.2024566e-22)
(2.51248 -0.0046954523 -2.4912833e-22)
(2.5136454 -0.0038537737 -1.1111284e-22)
(2.5147015 -0.0026794612 9.9512131e-22)
(2.5158652 -0.001294751 5.6906344e-22)
(2.5005972 -0.0059431032 2.7326745e-25)
(2.5009456 -0.0064498085 -8.2139093e-23)
(2.5013293 -0.0068822105 -1.3642618e-22)
(2.5017548 -0.0071647137 -2.8270706e-23)
(2.5022408 -0.0073695723 2.0977424e-22)
(2.5028886 -0.0076822215 1.5351857e-22)
(2.503555 -0.0078776974 -4.5325336e-23)
(2.504374 -0.0080823262 2.6467242e-22)
(2.5051934 -0.0081742603 3.5144436e-22)
(2.5061929 -0.0082607979 -3.2311845e-22)
(2.5071635 -0.0081645373 -3.1823387e-22)
(2.508315 -0.0079914782 -2.5067753e-23)
(2.509385 -0.0077240479 -2.8138087e-22)
(2.5106294 -0.0073674086 -5.6081135e-23)
(2.5117764 -0.0067483312 2.6502605e-22)
(2.5130778 -0.0059480184 -7.7497232e-22)
(2.5141882 -0.0051645915 -6.5181406e-22)
(2.5154263 -0.0042188269 1.0735712e-21)
(2.5165388 -0.0029201785 6.7040815e-22)
(2.5177515 -0.0013929618 -1.1191043e-21)
(2.5002892 -0.005988815 1.2293701e-23)
(2.5005205 -0.0065397565 -1.9102941e-24)
(2.5008171 -0.0070284954 -8.0148084e-23)
(2.5011777 -0.0073791383 5.4290185e-25)
(2.5015969 -0.007654659 1.0520754e-22)
(2.5021626 -0.0080559073 -1.6438134e-22)
(2.5027608 -0.0083602409 -2.2330461e-22)
(2.5035106 -0.0087046983 1.1207142e-22)
(2.5042811 -0.0089150113 4.0859507e-22)
(2.5052345 -0.009134549 4.9409833e-22)
(2.5061733 -0.009225913 -1.4398384e-22)
(2.5073039 -0.0092915032 -5.3401774e-22)
(2.5083903 -0.0091583823 -2.5900184e-22)
(2.5096682 -0.0089265764 -1.3387932e-22)
(2.5108457 -0.0085962209 8.2171235e-23)
(2.5122006 -0.0081556555 1.3683155e-22)
(2.5134364 -0.0074426416 -8.5206467e-22)
(2.5148237 -0.006525545 -1.1469758e-21)
(2.5160046 -0.0056424421 4.8310317e-22)
(2.5173068 -0.0045864888 7.8526606e-22)
(2.5184675 -0.0031599174 -9.1133666e-22)
(2.5197189 -0.0014872681 -9.064957e-22)
(2.5000017 -0.0059728364 -4.1498791e-23)
(2.500118 -0.0065567026 -1.0419708e-22)
(2.5003276 -0.0070873607 -1.1940219e-22)
(2.5006204 -0.0074898017 -1.4504738e-22)
(2.5009672 -0.0078278787 -6.9437302e-23)
(2.5014427 -0.0083120064 2.3687868e-23)
(2.5019651 -0.0087023987 -2.3334312e-22)
(2.5026343 -0.0091516601 -3.7941748e-22)
(2.5033374 -0.0094876742 -6.346491e-23)
(2.504222 -0.0098679052 1.7834937e-22)
(2.5051155 -0.01009504 2.5607528e-22)
(2.5062075 -0.010311953 2.774479e-22)
(2.5072716 -0.010385837 -8.6401558e-23)
(2.5085424 -0.010413651 -4.3719461e-22)
(2.5097486 -0.010228943 -3.2116852e-22)
(2.5111529 -0.0099206346 5.8011281e-23)
(2.5124362 -0.0095125539 1.0952779e-22)
(2.513897 -0.0089724462 -9.2579065e-23)
(2.5152157 -0.0081544459 -3.6109582e-22)
(2.5166793 -0.0071097466 -2.8538054e-22)
(2.5179227 -0.00612067 -1.0062899e-23)
(2.5192782 -0.0049504419 -3.4775009e-22)
(2.5204774 -0.0033941684 -3.3478547e-22)
(2.5217559 -0.0015757893 4.2246328e-22)
(2.4997368 -0.0059055438 5.5047651e-23)
(2.4997424 -0.0065104203 7.3449954e-23)
(2.4998661 -0.0070716339 1.5676652e-23)
(2.5000896 -0.0075155544 -3.1391604e-22)
(2.5003619 -0.0079027099 -3.4113561e-22)
(2.5007429 -0.0084505757 1.5019771e-22)
(2.5011819 -0.0089172869 2.418358e-22)
(2.5017596 -0.0094654761 -3.5247809e-22)
(2.502385 -0.0099029873 -4.9287677e-22)
(2.5031861 -0.0104072 4.7448712e-23)
(2.5040131 -0.010779251 2.7859492e-22)
(2.5050413 -0.011178909 5.467999e-22)
(2.5060665 -0.011406576 5.7144997e-22)
(2.507309 -0.011604421 -2.0499179e-22)
(2.5085054 -0.011645294 -5.3978572e-22)
(2.5099197 -0.01161571 -3.875406e-22)
(2.5112464 -0.011362891 -2.8665778e-23)
(2.5127746 -0.010959766 4.5133458e-22)
(2.5141595 -0.010459315 2.6467735e-22)
(2.5157178 -0.0098044686 -2.3330776e-22)
(2.5171105 -0.0088713991 -1.5955017e-22)
(2.518638 -0.0076897411 -3.4724416e-23)
(2.5199336 -0.0065902768 -3.5557755e-22)
(2.5213294 -0.0053036114 -5.5868733e-22)
(2.5225561 -0.003618035 1.5663301e-22)
(2.5238489 -0.0016566807 3.8691819e-22)
(2.4994949 -0.0057965201 1.8089312e-22)
(2.4993956 -0.0064126577 1.9152516e-22)
(2.4994361 -0.0069934681 2.1102963e-22)
(2.4995908 -0.0074670421 1.6418291e-22)
(2.499788 -0.0078927219 -1.4640531e-22)
(2.5000722 -0.0084918174 -2.0999687e-22)
(2.500424 -0.0090189223 2.5822221e-22)
(2.5009033 -0.009645118 4.8815452e-22)
(2.5014409 -0.010173901 -7.2208977e-23)
(2.5021447 -0.010796193 -4.2842823e-22)
(2.5028916 -0.011287977 8.5319628e-23)
(2.5038376 -0.011832991 1.5396556e-24)
(2.5048003 -0.01222596 2.5194864e-22)
(2.5059869 -0.012629511 9.0060242e-22)
(2.5071539 -0.012842539 1.6860108e-22)
(2.5085542 -0.013001276 -6.6320063e-22)
(2.5098869 -0.012990958 -5.2054881e-22)
(2.5114458 -0.012882913 1.7500676e-23)
(2.5128908 -0.012544886 4.7387663e-22)
(2.5145366 -0.012028228 -2.6622143e-22)
(2.5160153 -0.011421108 -7.467445e-22)
(2.5176593 -0.010637174 3.3449075e-22)
(2.5191143 -0.009580205 4.6026063e-22)
(2.5206901 -0.0082540878 5.8217915e-22)
(2.5220257 -0.0070416176 4.0336342e-22)
(2.5234473 -0.0056381845 -1.9392402e-22)
(2.5246891 -0.0038263772 1.9387629e-23)
(2.5259824 -0.0017281878 1.5698607e-24)
(2.4992756 -0.0056545637 -3.4128716e-23)
(2.4990783 -0.006273215 -2.4257964e-22)
(2.4990397 -0.0068642155 -2.3876359e-22)
(2.4991275 -0.0073576946 -1.9971887e-22)
(2.4992507 -0.0078111471 -2.5028322e-22)
(2.4994384 -0.0084470531 9.5080021e-23)
(2.499701 -0.0090217889 3.8320956e-23)
(2.5000773 -0.0097119985 1.2179137e-22)
(2.5005209 -0.010314631 3.3795556e-22)
(2.5011173 -0.011032498 -3.4089229e-22)
(2.5017715 -0.011633445 -6.829462e-22)
(2.502618 -0.012318416 -2.2543804e-23)
(2.5035011 -0.012851398 -1.0365005e-22)
(2.5046097 -0.013423709 5.2720371e-22)
(2.5057212 -0.013823349 1.1469556e-21)
(2.507078 -0.01421095 2.0093197e-22)
(2.5083942 -0.014390764 -5.8803172e-22)
(2.5099575 -0.014488054 -5.8253406e-22)
(2.5114276 -0.014406995 -7.259146e-23)
(2.5131281 -0.014198058 6.6620079e-23)
(2.5146858 -0.013757271 -6.4185088e-22)
(2.516439 -0.013108379 -7.8771319e-22)
(2.5180007 -0.012381031 2.3780032e-22)
(2.5197151 -0.011454926 -3.8347418e-22)
(2.5212178 -0.010266834 -2.8039016e-22)
(2.5228238 -0.0087911234 1.1004476e-21)
(2.5241856 -0.0074647707 5.4394184e-22)
(2.5256169 -0.005946192 -2.3924035e-23)
(2.5268606 -0.0040142284 -4.1451621e-23)
(2.5281399 -0.0017887325 3.9691332e-25)
(2.4990782 -0.0054874965 -9.8707187e-23)
(2.4987904 -0.0061013843 2.2662748e-23)
(2.4986776 -0.0066943737 -1.7430406e-22)
(2.4987015 -0.0071986838 -7.6648139e-22)
(2.4987532 -0.0076705397 -7.3730257e-22)
(2.4988465 -0.008331069 -1.0171877e-22)
(2.4990201 -0.0089402609 2.282383e-22)
(2.4992917 -0.0096780363 1.1708267e-22)
(2.4996373 -0.010340277 1.9745677e-22)
(2.5001193 -0.011138254 7.0870639e-23)
(2.5006715 -0.011829598 -5.7735211e-22)
(2.5014049 -0.012631047 -4.1363186e-22)
(2.5021925 -0.013293669 2.1719723e-22)
(2.5032019 -0.014030504 2.6057827e-23)
(2.5042374 -0.014592334 6.2672206e-22)
(2.5055246 -0.01517358 9.6719753e-22)
(2.5067964 -0.015561587 6.6657343e-23)
(2.5083333 -0.015910293 -4.615101e-22)
(2.5098039 -0.016036161 -4.5421462e-22)
(2.5115317 -0.016047273 -4.3130247e-22)
(2.5131369 -0.015874601 -3.0452267e-22)
(2.5149721 -0.015541362 -4.0733745e-23)
(2.516633 -0.01498018 -1.7034249e-22)
(2.5184792 -0.014180883 2.4201177e-22)
(2.5201096 -0.013320864 -3.4761804e-22)
(2.5218758 -0.012241301 -9.5788755e-22)
(2.5234092 -0.010916932 3.4254254e-22)
(2.5250253 -0.0092893387 1.6370653e-22)
(2.5263979 -0.0078501138 -3.8085395e-22)
(2.5278216 -0.0062202714 6.7532133e-22)
(2.5290534 -0.0041772221 7.2569009e-22)
(2.5303039 -0.0018369907 -7.0729043e-22)
(2.4989013 -0.0053020859 6.6031612e-23)
(2.498531 -0.0059052716 9.4634672e-23)
(2.4983498 -0.0064933696 2.1256728e-22)
(2.4983135 -0.0070007572 5.2133487e-22)
(2.4982973 -0.0074825136 -3.0347722e-23)
(2.4982996 -0.0081562204 -7.895403e-22)
(2.4983863 -0.0087882122 -1.8712803e-22)
(2.4985537 -0.0095593577 4.5523706e-22)
(2.4987999 -0.010266153 3.5311669e-22)
(2.4991633 -0.011125711 1.3227354e-21)
(2.4996072 -0.011891766 1.2194133e-21)
(2.500217 -0.012793084 -3.0487395e-22)
(2.5008967 -0.013565778 -1.4539807e-22)
(2.5017893 -0.014443465 9.2486228e-23)
(2.5027291 -0.015157972 -9.0786322e-23)
(2.5039218 -0.01593067 3.4773946e-22)
(2.505125 -0.016504438 6.6670384e-22)
(2.5066058 -0.017072472 8.2011861e-22)
(2.5080476 -0.017427654 3.3011881e-22)
(2.5097713 -0.017711133 -5.069464e-22)
(2.5113981 -0.017760042 -4.8598679e-22)
(2.5132877 -0.017658102 -4.3847335e-22)
(2.5150218 -0.017371946 -1.9022299e-22)
(2.5169798 -0.016890514 9.586678e-22)
(2.5187308 -0.016191672 1.3668394e-21)
(2.5206513 -0.015225036 7.9057979e-22)
(2.522333 -0.014221509 2.2831172e-22)
(2.5241295 -0.01297957 1.2851769e-21)
(2.5256745 -0.011516285 1.1294695e-21)
(2.5272789 -0.0097377376 -3.4229049e-22)
(2.5286459 -0.008188845 6.6069677e-22)
(2.5300441 -0.006454179 9.6462257e-22)
(2.5312498 -0.0043117863 -3.916528e-22)
(2.5324569 -0.0018719289 -2.1326852e-21)
(2.4987438 -0.0051040662 7.7889945e-23)
(2.4982987 -0.0056919802 -1.7984993e-22)
(2.498055 -0.0062695003 -1.5644541e-22)
(2.497963 -0.0067732938 2.4122227e-22)
(2.4978832 -0.0072576431 5.3465005e-22)
(2.4977994 -0.007934649 3.6048431e-22)
(2.4978026 -0.0085786818 -3.5411772e-22)
(2.497868 -0.0093695361 -9.096159e-22)
(2.4980156 -0.010107346 -3.1076312e-22)
(2.4982591 -0.011012132 1.1230584e-21)
(2.4985911 -0.011835896 2.0547987e-21)
(2.4990702 -0.012816711 9.3492793e-22)
(2.4996324 -0.013682679 -5.1599006e-22)
(2.5003939 -0.014683947 -3.2216798e-22)
(2.5012219 -0.015531456 -9.9034274e-23)
(2.5022978 -0.016472782 2.7186823e-22)
(2.5034091 -0.017224523 6.934804e-22)
(2.504805 -0.018012783 7.2296309e-22)
(2.5061903 -0.01857807 8.6934861e-22)
(2.5078773 -0.019106425 -4.2947299e-23)
(2.509496 -0.019404396 -8.4299573e-22)
(2.5114093 -0.01959295 -5.345824e-22)
(2.5131902 -0.01953981 -4.9044594e-22)
(2.5152339 -0.019296184 3.5915347e-22)
(2.5170862 -0.018874123 1.4577568e-21)
(2.5191504 -0.018220884 1.1429245e-21)
(2.5209742 -0.017368141 5.9246985e-22)
(2.5229464 -0.016219295 1.2470296e-21)
(2.524659 -0.015063555 2.2651553e-21)
(2.5264615 -0.013653292 5.6726571e-22)
(2.5279974 -0.012051328 -8.3784092e-22)
(2.5295675 -0.010126191 3.5139974e-22)
(2.5309118 -0.0084733225 6.3541262e-22)
(2.5322664 -0.0066429251 -4.4513032e-22)
(2.533432 -0.0044151368 -2.0983182e-21)
(2.534582 -0.0018928046 -5.7133204e-22)
(2.498604 -0.0048982379 3.1066269e-23)
(2.4980918 -0.0054673146 7.4331511e-23)
(2.4977915 -0.0060299696 -1.703001e-22)
(2.4976488 -0.0065247051 -2.3334255e-22)
(2.4975103 -0.0070053246 1.4288113e-22)
(2.4973462 -0.007676962 2.8413759e-22)
(2.4972703 -0.0083237257 1.1516109e-22)
(2.4972378 -0.00912235 4.708697e-23)
(2.4972891 -0.0098783024 -4.7411747e-22)
(2.4974134 -0.010812176 -1.4398507e-21)
(2.4976326 -0.011678102 -9.5937412e-23)
(2.497977 -0.012719991 -1.8444688e-22)
(2.4984154 -0.013660491 -1.2808017e-21)
(2.4990349 -0.01476351 -7.9624132e-22)
(2.499738 -0.015726582 -6.1650999e-22)
(2.5006783 -0.016819329 -3.6562986e-22)
(2.5016772 -0.017730201 -1.7612087e-23)
(2.5029613 -0.018717963 -1.0978956e-21)
(2.5042632 -0.019488314 -1.096739e-21)
(2.5058811 -0.020266724 1.4749418e-21)
(2.5074609 -0.020799067 6.1812027e-22)
(2.5093632 -0.021256714 -5.5489479e-22)
(2.5111618 -0.021469891 -2.5808501e-22)
(2.5132625 -0.021530647 2.171109e-22)
(2.5151909 -0.021348626 1.0342687e-21)
(2.5173754 -0.020933671 3.2685739e-22)
(2.5193305 -0.02035342 1.1328352e-23)
(2.521479 -0.019506004 1.0592909e-21)
(2.5233543 -0.018484901 1.6874144e-21)
(2.5253518 -0.017141927 4.0241626e-22)
(2.5270726 -0.01582797 -1.2367039e-21)
(2.5288547 -0.014246994 -2.3280392e-21)
(2.5303601 -0.01250969 -1.221431e-21)
(2.5318728 -0.010445819 7.9859482e-22)
(2.5331771 -0.0086972486 -2.2456677e-22)
(2.5344706 -0.0067826929 -2.2935141e-22)
(2.5355827 -0.0044852088 1.2475445e-21)
(2.5366627 -0.0018991595 3.5339128e-21)
(2.4984803 -0.0046886034 -4.4893813e-23)
(2.4979083 -0.0052363744 -4.1652421e-23)
(2.4975574 -0.005780831 -1.761801e-24)
(2.4973689 -0.0062620655 3.5097738e-22)
(2.4971771 -0.0067338364 2.9898857e-22)
(2.496939 -0.0073929427 6.020105e-22)
(2.4967895 -0.0080342039 7.428934e-22)
(2.4966641 -0.0088297264 9.0596638e-22)
(2.4966231 -0.0095926127 8.5316432e-22)
(2.4966313 -0.010541355 -3.2690456e-22)
(2.4967385 -0.011434184 -1.2412597e-21)
(2.4969469 -0.012518441 1.1119494e-22)
(2.4972581 -0.013516025 3.0303597e-23)
(2.4977282 -0.014700503 -1.6054021e-21)
(2.4982965 -0.015759006 -1.1503854e-21)
(2.4990859 -0.016980531 -8.075815e-22)
(2.4999552 -0.01803315 -5.7234311e-22)
(2.5011036 -0.019204247 -1.559357e-22)
(2.5022971 -0.020162795 -1.1833509e-21)
(2.5038142 -0.021174056 -9.2510204e-22)
(2.5053247 -0.021939627 1.5183097e-21)
(2.5071807 -0.022677131 6.6666858e-22)
(2.5089641 -0.023147768 -4.4597338e-22)
(2.5110862 -0.023499014 5.3988518e-22)
(2.5130633 -0.023596761 1.0027306e-21)
(2.5153432 -0.023494269 7.7129983e-22)
(2.517407 -0.023155459 9.6021359e-23)
(2.5197128 -0.022539592 -3.2072579e-22)
(2.5217506 -0.021779877 6.6896498e-22)
(2.5239565 -0.020718314 8.0642057e-22)
(2.5258587 -0.019517004 -4.2627274e-22)
(2.527852 -0.01797183 -3.0173936e-21)
(2.529556 -0.01649691 -4.0796261e-21)
(2.5312902 -0.014746846 -1.0031577e-21)
(2.5327433 -0.012880726 9.1722855e-22)
(2.534176 -0.010689338 3.9463563e-22)
(2.5354234 -0.0088557664 3.9927823e-22)
(2.536639 -0.0068707515 4.0637914e-22)
(2.5376854 -0.0045206346 2.5637635e-21)
(2.5386841 -0.0018908211 2.0786528e-21)
(2.4983711 -0.0044783855 -1.9968846e-23)
(2.4977462 -0.0050031773 -5.326363e-23)
(2.4973502 -0.0055271378 -5.0496692e-23)
(2.4971212 -0.0059915462 -1.634265e-22)
(2.4968813 -0.0064502404 1.6901385e-22)
(2.4965761 -0.0070907638 5.9418536e-22)
(2.4963588 -0.0077198368 8.8614455e-22)
(2.496147 -0.0085032747 6.5472534e-22)
(2.4960186 -0.0092627161 8.0816858e-22)
(2.4959151 -0.010212842 7.3971102e-22)
(2.4959134 -0.011119294 -3.8195955e-22)
(2.4959871 -0.01222933 1.7769856e-22)
(2.49617 -0.013266246 1.4825904e-21)
(2.4964865 -0.014510966 1.0880632e-21)
(2.4969134 -0.01564576 -4.485742e-22)
(2.4975404 -0.016974324 -2.0912761e-22)
(2.498266 -0.018147764 1.303485e-22)
(2.4992584 -0.01947964 4.3060074e-22)
(2.5003215 -0.020609977 8.4084063e-22)
(2.5017085 -0.021840174 -6.3950428e-22)
(2.5031203 -0.022825376 -3.8629466e-22)
(2.5048937 -0.023830614 7.2929744e-22)
(2.5066286 -0.024562717 -9.0953559e-23)
(2.5087348 -0.025222179 -4.7882063e-22)
(2.5107267 -0.025597924 4.5612314e-22)
(2.5130672 -0.025802716 9.3393316e-22)
(2.5152156 -0.025751871 7.1334697e-22)
(2.5176596 -0.02544913 3.128799e-22)
(2.5198411 -0.024925514 -7.9437483e-23)
(2.5222424 -0.024080593 8.6149475e-22)
(2.5243378 -0.023122223 9.9483166e-22)
(2.5265697 -0.021830195 -1.6069182e-21)
(2.528471 -0.020440295 -4.0836468e-21)
(2.5304283 -0.018689441 -2.8595221e-21)
(2.5320895 -0.017054517 7.8430132e-23)
(2.5337479 -0.015141221 1.362502e-21)
(2.535127 -0.0131559 8.7291752e-22)
(2.536458 -0.010851291 -1.0524004e-21)
(2.5376326 -0.008945521 -1.0671948e-21)
(2.5387551 -0.0069054526 -3.6121923e-23)
(2.5397248 -0.0045207652 -5.3502663e-22)
(2.5406325 -0.0018679072 -2.5698311e-21)
(2.4982747 -0.0042701471 4.4220803e-23)
(2.4976034 -0.0047711247 9.2662665e-23)
(2.4971676 -0.0052729624 6.2755854e-23)
(2.4969029 -0.0057179855 -4.0206093e-23)
(2.4966204 -0.0061605482 -1.4721632e-22)
(2.4962551 -0.0067779578 -3.924091e-22)
(2.4959763 -0.0073890231 2.7262335e-24)
(2.4956847 -0.0081522675 -4.8373553e-22)
(2.495475 -0.0088999355 -7.2382476e-22)
(2.4952661 -0.0098404593 3.7416877e-23)
(2.4951598 -0.010747576 -3.9082778e-23)
(2.4951017 -0.011866939 -7.3221161e-22)
(2.4951579 -0.012927794 -2.0628646e-22)
(2.4953196 -0.014213772 1.085205e-21)
(2.4956015 -0.015404642 7.0478356e-22)
(2.4960581 -0.016816809 5.2097547e-22)
(2.4966297 -0.018090643 7.6278346e-22)
(2.4974494 -0.019560743 1.2632288e-21)
(2.4983634 -0.02084199 1.5651826e-21)
(2.4995943 -0.022269783 6.6480446e-22)
(2.5008802 -0.023460322 -7.4292271e-22)
(2.5025363 -0.024723084 -1.2013312e-21)
(2.5041887 -0.025707756 -1.5476797e-22)
(2.5062388 -0.026670113 -8.8427307e-22)
(2.5082101 -0.027334338 -1.2643067e-21)
(2.5105732 -0.027872456 2.1493599e-21)
(2.5127729 -0.028115955 2.6284866e-21)
(2.515323 -0.028130695 5.2150135e-23)
(2.5176293 -0.027896487 -3.3812641e-22)
(2.5202148 -0.02735647 -4.5425707e-22)
(2.5224901 -0.026621191 4.328388e-22)
(2.5249549 -0.025522148 7.1815009e-22)
(2.5270785 -0.024349186 -1.7551033e-21)
(2.529301 -0.022815214 -2.9611625e-21)
(2.5311715 -0.021232522 -1.7826891e-21)
(2.5330596 -0.019277577 1.168919e-21)
(2.5346515 -0.017487531 2.4037624e-21)
(2.5362065 -0.015421036 2.0103309e-21)
(2.5374911 -0.013328997 1.9994732e-22)
(2.5387003 -0.010928157 -9.0044064e-22)
(2.5397875 -0.008964698 8.0856973e-23)
(2.5408036 -0.006886265 4.6014936e-22)
(2.5416871 -0.0044856922 -1.456214e-21)
(2.5424959 -0.001830819 -2.3770301e-21)
(2.4981898 -0.0040658798 -4.1489161e-23)
(2.4974778 -0.0045425548 -2.0088964e-22)
(2.4970071 -0.0050215714 -1.5844069e-22)
(2.4967115 -0.0054457286 2.179242e-22)
(2.4963914 -0.0058696502 1.2251666e-22)
(2.4959728 -0.0064601645 3.0870931e-22)
(2.4956392 -0.0070490889 8.2803241e-23)
(2.4952756 -0.0077861797 -3.0379062e-22)
(2.494991 -0.0085141988 -7.7003209e-22)
(2.494683 -0.0094344042 -2.2789708e-22)
(2.494478 -0.010332104 5.019794e-22)
(2.4942937 -0.011447695 3.8628509e-22)
(2.4942262 -0.012516563 -2.6519602e-22)
(2.4942342 -0.013824119 9.1305548e-22)
(2.4943704 -0.015053578 2.1556875e-21)
(2.4946523 -0.016528095 5.2306564e-22)
(2.4950627 -0.017879915 3.4590358e-22)
(2.4956973 -0.019463099 6.2122966e-22)
(2.4964471 -0.020874136 1.0941031e-21)
(2.4974997 -0.02247698 1.0437646e-21)
(2.4986357 -0.023853085 1.8132115e-22)
(2.5001421 -0.025354642 -5.5596899e-22)
(2.5016798 -0.026581054 -9.8827716e-22)
(2.5036336 -0.027841529 -4.3965451e-22)
(2.5055465 -0.028791617 -1.1363407e-21)
(2.507889 -0.029666377 -1.4278063e-21)
(2.5101038 -0.030222486 1.8098866e-21)
(2.5127231 -0.030590199 1.9593285e-21)
(2.5151232 -0.030660628 -4.9631646e-22)
(2.5178656 -0.030439677 3.8064692e-22)
(2.5203092 -0.029987107 2.8137023e-22)
(2.5230055 -0.029174718 -6.4088515e-22)
(2.5253449 -0.028203599 -3.8590294e-22)
(2.5278355 -0.026830073 -1.7632353e-21)
(2.5299541 -0.025430948 -2.9080793e-21)
(2.5321292 -0.023649292 -2.91258e-21)
(2.5339375 -0.02187426 -1.2789069e-22)
(2.5357229 -0.019722044 2.8016839e-21)
(2.5372194 -0.017785665 2.4341817e-21)
(2.5386451 -0.01557993 1.3881171e-22)
(2.5398158 -0.013396191 -9.0617384e-22)
(2.5408854 -0.010918351 5.6695896e-22)
(2.5418723 -0.0089130257 9.3443396e-22)
(2.5427707 -0.0068137743 5.1274539e-22)
(2.5435605 -0.0044162211 -3.3186186e-22)
(2.5442642 -0.0017802145 -4.4400718e-22)
(2.498115 -0.0038670987 -1.6582904e-22)
(2.4973676 -0.0043198061 -1.5123704e-22)
(2.4968662 -0.0047754535 -3.0412148e-22)
(2.496544 -0.0051775352 -2.5776919e-22)
(2.4961914 -0.0055815719 9.7807572e-23)
(2.4957265 -0.0061430388 -2.8065235e-22)
(2.4953442 -0.0067060649 -1.0995144e-22)
(2.4949158 -0.0074113447 1.0922118e-21)
(2.4945637 -0.0081143491 7.404058e-22)
(2.4941652 -0.0090067903 -4.1354953e-22)
(2.4938676 -0.0098845506 1.0625435e-22)
(2.4935628 -0.01098246 -4.1602905e-22)
(2.4933769 -0.01204748 -5.3960834e-22)
(2.4932354 -0.0133613 1.3188778e-22)
(2.4932271 -0.014610155 1.2561889e-21)
(2.4933325 -0.016124081 1.3478827e-21)
(2.4935781 -0.017534451 -2.1384706e-22)
(2.4940192 -0.019207453 2.4040972e-22)
(2.4945936 -0.020724173 5.0011431e-22)
(2.4954499 -0.022475896 5.4886352e-22)
(2.4964157 -0.024016511 4.9289044e-22)
(2.4977437 -0.025735392 2.1563866e-21)
(2.4991368 -0.027186185 1.4862431e-21)
(2.5009554 -0.028730418 -5.788309e-22)
(2.5027724 -0.02996061 -5.1942396e-23)
(2.5050494 -0.031174687 -1.6031302e-21)
(2.5072384 -0.032048758 -1.8871053e-21)
(2.5098825 -0.032783186 1.7228199e-21)
(2.5123411 -0.033185416 1.8633911e-21)
(2.515207 -0.033329131 -7.5682368e-22)
(2.5177922 -0.033183566 7.220333e-23)
(2.5207 -0.032681426 -3.2429127e-22)
(2.5232528 -0.031977086 -1.2081657e-21)
(2.5260217 -0.030861263 -4.1012037e-22)
(2.52839 -0.029634325 -1.7177578e-21)
(2.5308639 -0.027972039 -8.1001159e-22)
(2.5329417 -0.026340409 -7.8316766e-22)
(2.5350295 -0.024311623 -4.1100748e-22)
(2.5367439 -0.022349552 2.3651107e-21)
(2.5383942 -0.020012041 1.4399587e-21)
(2.5397704 -0.017941811 -7.5327746e-22)
(2.5410427 -0.015614321 -2.0192921e-21)
(2.5420825 -0.01335605 -6.3740178e-22)
(2.5429972 -0.010822172 4.416928e-22)
(2.5438729 -0.0087917117 3.3877901e-23)
(2.5446447 -0.0066896065 -8.9384347e-23)
(2.5453346 -0.0043137963 -1.9227243e-22)
(2.545929 -0.0017169665 1.4976364e-21)
(2.4980487 -0.0036749029 -1.820975e-23)
(2.4972706 -0.0041037068 7.1729179e-23)
(2.4967425 -0.0045364788 8.9090933e-23)
(2.4963979 -0.0049165621 4.022886e-23)
(2.4960172 -0.0052993907 8.9163544e-23)
(2.4955122 -0.0058297272 2.1105379e-22)
(2.4950878 -0.0063650793 -1.4641891e-22)
(2.4946029 -0.0070354741 3.0590391e-22)
(2.49419 -0.0077077749 1.4530296e-21)
(2.4937083 -0.0085642197 -1.9460067e-22)
(2.4933262 -0.0094154737 -1.3038414e-21)
(2.4929095 -0.01048681 -1.0066214e-21)
(2.4926106 -0.011534165 -1.519039e-21)
(2.4923242 -0.012836572 -2.970173e-21)
(2.4921755 -0.014091174 -2.3693793e-21)
(2.4921067 -0.015626939 -1.3219652e-21)
(2.4921861 -0.017073336 -1.2736849e-21)
(2.4924286 -0.018810149 -6.8939155e-22)
(2.4928201 -0.020411416 -2.6537957e-22)
(2.4934668 -0.022287046 -9.8204046e-23)
(2.494246 -0.023967024 -6.0934893e-23)
(2.4953715 -0.02587688 7.8520802e-22)
(2.4965935 -0.027532031 2.3686164e-21)
(2.498241 -0.029341102 3.6449647e-21)
(2.499926 -0.030838087 1.717238e-21)
(2.502092 -0.032383694 -3.1006188e-23)
(2.5042131 -0.033576918 -1.5033517e-21)
(2.5068335 -0.034690354 -1.8486028e-21)
(2.5093083 -0.035439373 1.578462e-21)
(2.5122542 -0.035973383 9.6282402e-22)
(2.5149487 -0.036171566 -1.5371479e-21)
(2.5180409 -0.036035382 -9.2749135e-22)
(2.5207869 -0.035630799 -1.319033e-21)
(2.5238236 -0.034804661 -1.2179662e-21)
(2.52645 -0.033818668 -4.6063442e-22)
(2.5292462 -0.032374304 -8.4260214e-22)
(2.5316037 -0.030877063 3.197925e-23)
(2.5340151 -0.028918857 1.3467756e-21)
(2.5360145 -0.027054165 1.7314981e-21)
(2.5379749 -0.024785355 2.7944918e-21)
(2.5395645 -0.02264636 1.9230697e-21)
(2.5410487 -0.020140401 -3.2682001e-22)
(2.5422818 -0.017952158 -1.5220635e-21)
(2.5433798 -0.015523405 2.8745286e-22)
(2.5442739 -0.01320947 1.3253504e-21)
(2.5450214 -0.010641682 -3.881956e-23)
(2.5457772 -0.008603307 -1.5687761e-22)
(2.5464155 -0.0065162936 -1.3471173e-21)
(2.5470014 -0.0041803955 2.395634e-22)
(2.547484 -0.0016421164 2.1409754e-21)
(2.4979894 -0.0034900694 1.1269321e-22)
(2.4971851 -0.0038961809 2.3085969e-22)
(2.4966336 -0.0043059191 3.1997889e-22)
(2.4962702 -0.0046635537 2.0470032e-22)
(2.4958658 -0.0050255396 1.599943e-22)
(2.4953271 -0.0055247033 3.3010317e-22)
(2.4948662 -0.0060300971 4.4935781e-22)
(2.4943318 -0.0066618482 -2.2611556e-22)
(2.4938659 -0.0073009637 2.0197963e-22)
(2.4933108 -0.0081174924 1.1961314e-21)
(2.492851 -0.0089338675 -3.7146791e-22)
(2.4923295 -0.0099669901 -8.9169999e-22)
(2.4919259 -0.010989064 -6.0339872e-22)
(2.4915028 -0.012269746 -1.0992373e-21)
(2.491218 -0.013512335 -2.4702992e-21)
(2.4909777 -0.015048144 -1.3484701e-21)
(2.4908932 -0.016515168 -3.3895659e-22)
(2.4909363 -0.018295985 -1.6386669e-21)
(2.4911405 -0.019956122 -1.0895296e-21)
(2.4915682 -0.021926866 -2.4194013e-23)
(2.4921489 -0.023723648 1.3807401e-22)
(2.4930524 -0.025798175 -2.6405674e-21)
(2.4940812 -0.027632324 -1.8762139e-21)
(2.495526 -0.029680957 -2.6526015e-22)
(2.4970458 -0.031427083 9.066243e-22)
(2.4990571 -0.033289927 1.6874685e-21)
(2.5010678 -0.034795104 2.7572112e-23)
(2.5036131 -0.036288921 -5.0640131e-22)
(2.5060583 -0.037394893 -8.1916796e-22)
(2.5090343 -0.038343178 5.1474198e-22)
(2.5117964 -0.038911087 -8.4280048e-23)
(2.5150332 -0.039179214 -1.0334214e-21)
(2.5179457 -0.039120792 -4.479483e-22)
(2.5212321 -0.038649355 -2.9638894e-21)
(2.5241052 -0.03794497 -2.8932361e-21)
(2.5272246 -0.036757189 1.4554705e-21)
(2.5298825 -0.035464968 1.1214678e-21)
(2.5326548 -0.033674531 -1.9935829e-22)
(2.5349584 -0.031899 1.0451912e-21)
(2.5372597 -0.029645543 1.609879e-22)
(2.5391427 -0.027553288 1.1468483e-21)
(2.5409368 -0.025058082 -5.8193503e-22)
(2.5423721 -0.022756877 -2.7548105e-21)
(2.5436624 -0.020103717 -2.3715213e-21)
(2.5447321 -0.017816194 -6.6638887e-22)
(2.545638 -0.015309041 1.1098045e-21)
(2.5463745 -0.012959508 -1.8807519e-22)
(2.5469454 -0.010380522 -3.4833021e-23)
(2.5475747 -0.0083515223 -1.1626137e-21)
(2.5480753 -0.0062971302 -1.1057633e-21)
(2.5485547 -0.0040184329 6.7881252e-22)
(2.5489248 -0.0015568337 7.2396612e-22)
(2.497936 -0.0033131161 -7.0262397e-23)
(2.4971087 -0.0036964095 -5.1700253e-23)
(2.4965369 -0.0040846291 5.8082314e-23)
(2.4961582 -0.0044214103 2.2252661e-22)
(2.4957339 -0.0047617597 1.1169665e-22)
(2.4951672 -0.0052286068 1.6342557e-22)
(2.4946758 -0.0057044481 3.249081e-22)
(2.4940999 -0.0062971736 -7.2643428e-22)
(2.4935877 -0.0068990264 -1.3850368e-21)
(2.4929665 -0.0076693428 -8.2643295e-22)
(2.4924382 -0.0084478197 1.0167383e-22)
(2.4918226 -0.0094382246 3.2030121e-22)
(2.491321 -0.010423044 -1.6313323e-22)
(2.4907673 -0.011666024 6.6083026e-22)
(2.4903545 -0.012888099 2.0922675e-22)
(2.4899496 -0.014412232 1.4640111e-21)
(2.4897041 -0.015877749 2.5879666e-21)
(2.4895481 -0.017676609 6.753083e-22)
(2.4895646 -0.019378537 -5.4308532e-22)
(2.4897686 -0.021422293 -1.209699e-21)
(2.4901425 -0.023307329 -2.0030078e-22)
(2.4908096 -0.025515213 4.5943996e-22)
(2.4916277 -0.027504688 -2.1732349e-21)
(2.492843 -0.029765888 -3.4651024e-21)
(2.4941685 -0.031736778 -1.9598884e-21)
(2.495985 -0.033894616 8.4834138e-22)
(2.4978447 -0.03569836 1.5886713e-21)
(2.5002633 -0.037565615 -1.6131373e-21)
(2.5026307 -0.039029877 -2.1446494e-21)
(2.5055812 -0.040405663 -6.8668178e-22)
(2.5083633 -0.041364375 5.821285e-22)
(2.5116961 -0.042074071 -5.6421649e-22)