/*--------------------------------*- C++ -*----------------------------------*\
| =========                 |                                                 |
| \\      /  F ield         | OpenFOAM: The Open Source CFD Toolbox           |
|  \\    /   O peration     | Version:  v2012                                 |
|   \\  /    A nd           | Website:  www.openfoam.com                      |
|    \\/     M anipulation  |                                                 |
\*---------------------------------------------------------------------------*/
FoamFile
{
    version     2.0;
    format      ascii;
    class       volVectorField;
    location    "103.560800180950793";
    object      cellDisplacement;
}
// * * * * * * * * * * * * * * * * * * * * * * * * * * * * * * * * * * * * * //

dimensions      [0 1 0 0 0 0 0];


internalField   nonuniform List<vector> 
9200
(
(0.034046293 0 0)
(0.034198773 0 0)
(0.099010804 0 0)
(0.034450961 0 0)
(0.099418523 0 0)
(0.1597931 0 0)
(0.034758157 0 0)
(0.10008725 0 0)
(0.16041595 0 0)
(0.21655224 0 0)
(0.035106327 0 0)
(0.10091826 0 0)
(0.16142627 0 0)
(0.21734933 0 0)
(0.26946465 0 0)
(0.035470047 0 0)
(0.10186721 0 0)
(0.16271833 0 0)
(0.2186787 0 0)
(0.27042366 0 0)
(0.31868956 0 0)
(0.035841134 0 0)
(0.10287618 0 0)
(0.1641842 0 0)
(0.22036373 0 0)
(0.27202539 0 0)
(0.31979402 0 0)
(0.36443521 0 0)
(0.036200361 0 0)
(0.10389233 0 0)
(0.16574177 0 0)
(0.22227557 0 0)
(0.27406021 0 0)
(0.32165481 0 0)
(0.36568045 0 0)
(0.40687141 0 0)
(0.036547504 0 0)
(0.10489428 0 0)
(0.16732883 0 0)
(0.22432648 0 0)
(0.2763844 0 0)
(0.3240165 0 0)
(0.36776842 0 0)
(0.40823845 0 0)
(0.44620592 0 0)
(0.036874633 0 0)
(0.10585744 0 0)
(0.16889864 0 0)
(0.22642592 0 0)
(0.27887447 0 0)
(0.32671257 0 0)
(0.37043703 0 0)
(0.4105547 0 0)
(0.44769299 0 0)
(0.48259447 0 0)
(0.037182749 0 0)
(0.10677507 0 0)
(0.17041491 0 0)
(0.228506 0 0)
(0.28143153 0 0)
(0.32959604 0 0)
(0.37346756 0 0)
(0.41350357 0 0)
(0.45021 0 0)
(0.48419304 0 0)
(0.51625107 0 0)
(0.03746821 0 0)
(0.10763546 0 0)
(0.17186183 0 0)
(0.23052762 0 0)
(0.28397714 0 0)
(0.33257051 0 0)
(0.37672089 0 0)
(0.41686027 0 0)
(0.45343105 0 0)
(0.48691546 0 0)
(0.51795979 0 0)
(0.54732081 0 0)
(0.03773236 0 0)
(0.10843856 0 0)
(0.17322187 0 0)
(0.23245459 0 0)
(0.28646021 0 0)
(0.33554826 0 0)
(0.3800789 0 0)
(0.42045809 0 0)
(0.45709566 0 0)
(0.49039292 0 0)
(0.52086417 0 0)
(0.54913122 0 0)
(0.57600598 0 0)
(0.037973698 0 0)
(0.10917859 0 0)
(0.17449186 0 0)
(0.23427653 0 0)
(0.28883361 0 0)
(0.33844925 0 0)
(0.3834364 0 0)
(0.42415223 0 0)
(0.4610023 0 0)
(0.49434969 0 0)
(0.52459053 0 0)
(0.55222382 0 0)
(0.57791702 0 0)
(0.6024367 0 0)
(0.03819402 0 0)
(0.10985931 0 0)
(0.17566518 0 0)
(0.23597365 0 0)
(0.29108103 0 0)
(0.34124065 0 0)
(0.38672812 0 0)
(0.42787171 0 0)
(0.46503682 0 0)
(0.49857496 0 0)
(0.52882911 0 0)
(0.55618329 0 0)
(0.58117539 0 0)
(0.6044402 0 0)
(0.62679773 0 0)
(0.038393153 0 0)
(0.1104786 0 0)
(0.17674374 0 0)
(0.23754996 0 0)
(0.29318109 0 0)
(0.34387852 0 0)
(0.38989776 0 0)
(0.43152302 0 0)
(0.46907966 0 0)
(0.50291335 0 0)
(0.53334972 0 0)
(0.56069472 0 0)
(0.58536186 0 0)
(0.6078689 0 0)
(0.62889217 0 0)
(0.64920345 0 0)
(0.038572885 0 0)
(0.11104164 0 0)
(0.17772787 0 0)
(0.23899514 0 0)
(0.29513158 0 0)
(0.34635802 0 0)
(0.39290291 0 0)
(0.43503945 0 0)
(0.47305654 0 0)
(0.50726017 0 0)
(0.53798647 0 0)
(0.56550933 0 0)
(0.59013194 0 0)
(0.61226663 0 0)
(0.63247032 0 0)
(0.65138057 0 0)
(0.66981879 0 0)
(0.038733828 0 0)
(0.11154881 0 0)
(0.17862196 0 0)
(0.24032066 0 0)
(0.29692774 0 0)
(0.34865714 0 0)
(0.39572787 0 0)
(0.43838883 0 0)
(0.47690112 0 0)
(0.5115538 0 0)
(0.54265343 0 0)
(0.57045736 0 0)
(0.59522822 0 0)
(0.61728637 0 0)
(0.637073 0 0)
(0.65511111 0 0)
(0.67207716 0 0)
(0.68874375 0 0)
(0.038877773 0 0)
(0.11200544 0 0)
(0.17943002 0 0)
(0.24152153 0 0)
(0.29857256 0 0)
(0.35078492 0 0)
(0.39835495 0 0)
(0.44153103 0 0)
(0.48056495 0 0)
(0.51570621 0 0)
(0.54722561 0 0)
(0.57539166 0 0)
(0.60045423 0 0)
(0.62265251 0 0)
(0.64232562 0 0)
(0.65990282 0 0)
(0.6759409 0 0)
(0.69107527 0 0)
(0.70612397 0 0)
(0.039005604 0 0)
(0.11241352 0 0)
(0.1801571 0 0)
(0.24261231 0 0)
(0.30007109 0 0)
(0.35273183 0 0)
(0.40078448 0 0)
(0.44446656 0 0)
(0.48401166 0 0)
(0.51966229 0 0)
(0.55166366 0 0)
(0.58026375 0 0)
(0.60569763 0 0)
(0.62816667 0 0)
(0.64794579 0 0)
(0.66537932 0 0)
(0.68091551 0 0)
(0.69507404 0 0)
(0.70852756 0 0)
(0.72204653 0 0)
(0.039118984 0 0)
(0.11277774 0 0)
(0.18080914 0 0)
(0.24359167 0 0)
(0.30142886 0 0)
(0.3545134 0 0)
(0.40301466 0 0)
(0.44717425 0 0)
(0.48722891 0 0)
(0.52339831 0 0)
(0.55590411 0 0)
(0.58497568 0 0)
(0.610832 0 0)
(0.63367033 0 0)
(0.65371953 0 0)
(0.67124269 0 0)
(0.68659902 0 0)
(0.70021619 0 0)
(0.71264426 0 0)
(0.72451461 0 0)
(0.73663921 0 0)
(0.039218877 0 0)
(0.11310113 0 0)
(0.18139129 0 0)
(0.24447427 0 0)
(0.30265534 0 0)
(0.35612706 0 0)
(0.40505212 0 0)
(0.44966998 0 0)
(0.49020556 0 0)
(0.52687876 0 0)
(0.55990165 0 0)
(0.58947359 0 0)
(0.61579481 0 0)
(0.63907394 0 0)
(0.65950296 0 0)
(0.67727432 0 0)
(0.69268908 0 0)
(0.70609889 0 0)
(0.71794846 0 0)
(0.72875038 0 0)
(0.73917117 0 0)
(0.74997755 0 0)
(0.039306865 0 0)
(0.11338735 0 0)
(0.18190976 0 0)
(0.24526053 0 0)
(0.30375632 0 0)
(0.35759049 0 0)
(0.40690472 0 0)
(0.45194454 0 0)
(0.49294433 0 0)
(0.53011099 0 0)
(0.56364122 0 0)
(0.59372375 0 0)
(0.62054412 0 0)
(0.64429588 0 0)
(0.6651563 0 0)
(0.68329483 0 0)
(0.6989506 0 0)
(0.71240322 0 0)
(0.72401371 0 0)
(0.73420243 0 0)
(0.74351117 0 0)
(0.75256657 0 0)
(0.76217304 0 0)
(0.039383763 0 0)
(0.11363987 0 0)
(0.18236916 0 0)
(0.24596417 0 0)
(0.30474356 0 0)
(0.35890448 0 0)
(0.40858072 0 0)
(0.45402027 0 0)
(0.49544921 0 0)
(0.53307835 0 0)
(0.56710471 0 0)
(0.5977003 0 0)
(0.62503195 0 0)
(0.64927777 0 0)
(0.67061338 0 0)
(0.68920434 0 0)
(0.70522507 0 0)
(0.71889166 0 0)
(0.73051747 0 0)
(0.74044345 0 0)
(0.74910642 0 0)
(0.75701167 0 0)
(0.76481898 0 0)
(0.77329067 0 0)
(0.039451046 0 0)
(0.11386149 0 0)
(0.18277551 0 0)
(0.24658683 0 0)
(0.30562277 0 0)
(0.36008659 0 0)
(0.41009265 0 0)
(0.45589421 0 0)
(0.4977294 0 0)
(0.53580194 0 0)
(0.57029906 0 0)
(0.60138959 0 0)
(0.62923069 0 0)
(0.65398687 0 0)
(0.67581844 0 0)
(0.69489137 0 0)
(0.71135618 0 0)
(0.72537754 0 0)
(0.73721079 0 0)
(0.74713615 0 0)
(0.75550795 0 0)
(0.76273746 0 0)
(0.76935662 0 0)
(0.77598764 0 0)
(0.78342752 0 0)
(0.039509393 0 0)
(0.11405581 0 0)
(0.18313301 0 0)
(0.24714011 0 0)
(0.30640542 0 0)
(0.36113897 0 0)
(0.41144839 0 0)
(0.45758997 0 0)
(0.49979679 0 0)
(0.53827619 0 0)
(0.57322097 0 0)
(0.60479177 0 0)
(0.63313233 0 0)
(0.65839557 0 0)
(0.68073835 0 0)
(0.70031231 0 0)
(0.71726193 0 0)
(0.73173744 0 0)
(0.74391759 0 0)
(0.75402755 0 0)
(0.76237631 0 0)
(0.7692941 0 0)
(0.7752093 0 0)
(0.78061871 0 0)
(0.78617578 0 0)
(0.79263855 0 0)
(0.039560167 0 0)
(0.11422478 0 0)
(0.18344673 0 0)
(0.24762604 0 0)
(0.30709728 0 0)
(0.36207839 0 0)
(0.41266218 0 0)
(0.45910859 0 0)
(0.50166208 0 0)
(0.5405266 0 0)
(0.57588822 0 0)
(0.60790939 0 0)
(0.63672794 0 0)
(0.66249282 0 0)
(0.68534876 0 0)
(0.70543425 0 0)
(0.72289057 0 0)
(0.7378583 0 0)
(0.75047585 0 0)
(0.76091908 0 0)
(0.76944617 0 0)
(0.77632768 0 0)
(0.78190734 0 0)
(0.78658741 0 0)
(0.7908899 0 0)
(0.7954333 0 0)
(0.80100872 0 0)
(0.039603692 0 0)
(0.11437184 0 0)
(0.18372038 0 0)
(0.24805428 0 0)
(0.30770838 0 0)
(0.36290706 0 0)
(0.41374125 0 0)
(0.46047201 0 0)
(0.50334036 0 0)
(0.54255364 0 0)
(0.57830506 0 0)
(0.6107539 0 0)
(0.64002939 0 0)
(0.66627142 0 0)
(0.68962849 0 0)
(0.71022921 0 0)
(0.72819666 0 0)
(0.74367354 0 0)
(0.75678837 0 0)
(0.76768018 0 0)
(0.77653087 0 0)
(0.78356956 0 0)
(0.78909507 0 0)
(0.79342269 0 0)
(0.79697192 0 0)
(0.80023179 0 0)
(0.80385046 0 0)
(0.80858321 0 0)
(0.039641382 0 0)
(0.11449807 0 0)
(0.18395807 0 0)
(0.24842707 0 0)
(0.30824353 0 0)
(0.3636404 0 0)
(0.41469953 0 0)
(0.46168325 0 0)
(0.50484265 0 0)
(0.54438316 0 0)
(0.58049314 0 0)
(0.61333709 0 0)
(0.64303953 0 0)
(0.66973982 0 0)
(0.69358177 0 0)
(0.7146854 0 0)
(0.73317023 0 0)
(0.74916526 0 0)
(0.76279385 0 0)
(0.77418064 0 0)
(0.78346181 0 0)
(0.7908156 0 0)
(0.79649419 0 0)
(0.80075587 0 0)
(0.80393263 0 0)
(0.80641824 0 0)
(0.80872488 0 0)
(0.81146797 0 0)
(0.81543738 0 0)
(0.039674372 0 0)
(0.11460702 0 0)
(0.18416354 0 0)
(0.24875197 0 0)
(0.30871163 0 0)
(0.36428109 0 0)
(0.41554326 0 0)
(0.46276153 0 0)
(0.50618419 0 0)
(0.54601852 0 0)
(0.58245976 0 0)
(0.61567358 0 0)
(0.64577845 0 0)
(0.67290513 0 0)
(0.69720552 0 0)
(0.71880135 0 0)
(0.73779506 0 0)
(0.75430378 0 0)
(0.76845208 0 0)
(0.78035755 0 0)
(0.79013181 0 0)
(0.79792162 0 0)
(0.80390587 0 0)
(0.80830471 0 0)
(0.81140228 0 0)
(0.81350152 0 0)
(0.81501394 0 0)
(0.81642079 0 0)
(0.81836584 0 0)
(0.8216088 0 0)
(0.039534226 0 0)
(0.11470161 0 0)
(0.18433883 0 0)
(0.24903168 0 0)
(0.30911703 0 0)
(0.36484205 0 0)
(0.41628542 0 0)
(0.46371122 0 0)
(0.50737503 0 0)
(0.5474835 0 0)
(0.58422693 0 0)
(0.61777921 0 0)
(0.64825461 0 0)
(0.6757831 0 0)
(0.7005188 0 0)
(0.72257693 0 0)
(0.74206191 0 0)
(0.75908217 0 0)
(0.77374631 0 0)
(0.78617546 0 0)
(0.79647455 0 0)
(0.80475591 0 0)
(0.81115852 0 0)
(0.815856 0 0)
(0.81908842 0 0)
(0.82109986 0 0)
(0.82220987 0 0)
(0.82280563 0 0)
(0.82339009 0 0)
(0.82457781 0 0)
(0.82716442 0 0)
(0.03935698 0 0)
(0.11441011 0 0)
(0.18449266 0 0)
(0.24927037 0 0)
(0.30946613 0 0)
(0.36532563 0 0)
(0.41693136 0 0)
(0.46454825 0 0)
(0.5084294 0 0)
(0.54878266 0 0)
(0.58580284 0 0)
(0.61966873 0 0)
(0.65049046 0 0)
(0.67838832 0 0)
(0.70352669 0 0)
(0.72602799 0 0)
(0.74598396 0 0)
(0.76349421 0 0)
(0.7786689 0 0)
(0.79161754 0 0)
(0.8024431 0 0)
(0.81124697 0 0)
(0.8181374 0 0)
(0.82326103 0 0)
(0.8267832 0 0)
(0.82891682 0 0)
(0.82993004 0 0)
(0.83011254 0 0)
(0.82986957 0 0)
(0.82967575 0 0)
(0.83017428 0 0)
(0.83213509 0 0)
(0.03919667 0 0)
(0.11387376 0 0)
(0.18406475 0 0)
(0.24947828 0 0)
(0.30976377 0 0)
(0.36574183 0 0)
(0.41749224 0 0)
(0.46527737 0 0)
(0.50935667 0 0)
(0.54993709 0 0)
(0.587208 0 0)
(0.62135905 0 0)
(0.65249695 0 0)
(0.68073744 0 0)
(0.70625419 0 0)
(0.72916431 0 0)
(0.74956209 0 0)
(0.76754854 0 0)
(0.78322066 0 0)
(0.79667722 0 0)
(0.80802417 0 0)
(0.81735985 0 0)
(0.82477202 0 0)
(0.8303783 0 0)
(0.83431237 0 0)
(0.83673368 0 0)
(0.83786897 0 0)
(0.83794837 0 0)
(0.83727939 0 0)
(0.83624472 0 0)
(0.83533998 0 0)
(0.83518264 0 0)
(0.83657972 0 0)
(0.039053508 0 0)
(0.1133896 0 0)
(0.18320748 0 0)
(0.24893062 0 0)
(0.31002038 0 0)
(0.36609405 0 0)
(0.41797272 0 0)
(0.4659113 0 0)
(0.51016877 0 0)
(0.55095096 0 0)
(0.58844969 0 0)
(0.62286309 0 0)
(0.65429513 0 0)
(0.68284857 0 0)
(0.70870991 0 0)
(0.7320064 0 0)
(0.75282236 0 0)
(0.77125097 0 0)
(0.78739724 0 0)
(0.8013528 0 0)
(0.81320619 0 0)
(0.82306397 0 0)
(0.83101286 0 0)
(0.8371396 0 0)
(0.8415529 0 0)
(0.84439316 0 0)
(0.84580958 0 0)
(0.84600324 0 0)
(0.84522584 0 0)
(0.8437568 0 0)
(0.8419974 0 0)
(0.84041788 0 0)
(0.83966493 0 0)
(0.84052505 0 0)
(0.038929183 0 0)
(0.11295764 0 0)
(0.18243146 0 0)
(0.24778641 0 0)
(0.30936792 0 0)
(0.366396 0 0)
(0.41838013 0 0)
(0.4664556 0 0)
(0.51087386 0 0)
(0.55184258 0 0)
(0.58954682 0 0)
(0.62419728 0 0)
(0.65589647 0 0)
(0.68473699 0 0)
(0.71092029 0 0)
(0.73456994 0 0)
(0.75577136 0 0)
(0.77462124 0 0)
(0.79121886 0 0)
(0.80564814 0 0)
(0.81799849 0 0)
(0.82836667 0 0)
(0.83684097 0 0)
(0.8435029 0 0)
(0.84843507 0 0)
(0.85175244 0 0)
(0.85357585 0 0)
(0.85405089 0 0)
(0.85338975 0 0)
(0.85180895 0 0)
(0.84960525 0 0)
(0.8471597 0 0)
(0.84496439 0 0)
(0.8436445 0 0)
(0.84402182 0 0)
(0.038824424 0 0)
(0.11258316 0 0)
(0.18174108 0 0)
(0.24675037 0 0)
(0.30796748 0 0)
(0.36564818 0 0)
(0.41872881 0 0)
(0.4669174 0 0)
(0.51148101 0 0)
(0.55261571 0 0)
(0.59050548 0 0)
(0.62537253 0 0)
(0.65731932 0 0)
(0.68642124 0 0)
(0.71289426 0 0)
(0.73687428 0 0)
(0.75843828 0 0)
(0.77767407 0 0)
(0.79469138 0 0)
(0.80957783 0 0)
(0.82240632 0 0)
(0.83326474 0 0)
(0.84224789 0 0)
(0.84943875 0 0)
(0.854906 0 0)
(0.85873922 0 0)
(0.86103894 0 0)
(0.86193066 0 0)
(0.8615462 0 0)
(0.86007718 0 0)
(0.85775953 0 0)
(0.8548635 0 0)
(0.8517896 0 0)
(0.84900785 0 0)
(0.84717503 0 0)
(0.84709358 0 0)
(0.038740462 0 0)
(0.11226777 0 0)
(0.18114038 0 0)
(0.24582761 0 0)
(0.3067005 0 0)
(0.36401924 0 0)
(0.41790552 0 0)
(0.46731424 0 0)
(0.51199857 0 0)
(0.55328368 0 0)
(0.59134211 0 0)
(0.62640381 0 0)
(0.65857444 0 0)
(0.6879138 0 0)
(0.71465692 0 0)
(0.7389374 0 0)
(0.76083193 0 0)
(0.78043084 0 0)
(0.79784385 0 0)
(0.81315175 0 0)
(0.82643298 0 0)
(0.83776946 0 0)
(0.84724208 0 0)
(0.85494271 0 0)
(0.8609434 0 0)
(0.86531124 0 0)
(0.86812631 0 0)
(0.86949328 0 0)
(0.86951738 0 0)
(0.86832944 0 0)
(0.8661275 0 0)
(0.86311633 0 0)
(0.85958403 0 0)
(0.85591226 0 0)
(0.8525974 0 0)
(0.85027702 0 0)
(0.84978285 0 0)
(0.038677782 0 0)
(0.11201527 0 0)
(0.18063588 0 0)
(0.24502416 0 0)
(0.3055697 0 0)
(0.36254414 0 0)
(0.41608446 0 0)
(0.46643342 0 0)
(0.51244209 0 0)
(0.55385228 0 0)
(0.59206198 0 0)
(0.62730029 0 0)
(0.65967722 0 0)
(0.6892327 0 0)
(0.71621687 0 0)
(0.74077617 0 0)
(0.76298057 0 0)
(0.78291009 0 0)
(0.80068507 0 0)
(0.81639426 0 0)
(0.83010368 0 0)
(0.84188873 0 0)
(0.85183449 0 0)
(0.86002491 0 0)
(0.86653605 0 0)
(0.87143569 0 0)
(0.87478559 0 0)
(0.87666864 0 0)
(0.87716899 0 0)
(0.87639924 0 0)
(0.8744766 0 0)
(0.87158033 0 0)
(0.86793293 0 0)
(0.8637984 0 0)
(0.85957973 0 0)
(0.85575613 0 0)
(0.85299599 0 0)
(0.85211036 0 0)
(0.038636974 0 0)
(0.11182669 0 0)
(0.18023025 0 0)
(0.24434811 0 0)
(0.30458543 0 0)
(0.36122743 0 0)
(0.41443457 0 0)
(0.464454 0 0)
(0.5115185 0 0)
(0.55433883 0 0)
(0.59267515 0 0)
(0.62807355 0 0)
(0.660637 0 0)
(0.69038835 0 0)
(0.71759665 0 0)
(0.74240878 0 0)
(0.76489385 0 0)
(0.78513054 0 0)
(0.80324561 0 0)
(0.81932068 0 0)
(0.83342651 0 0)
(0.84564166 0 0)
(0.85603968 0 0)
(0.86469684 0 0)
(0.87169602 0 0)
(0.87710953 0 0)
(0.88099155 0 0)
(0.88340866 0 0)
(0.8844282 0 0)
(0.88413714 0 0)
(0.88262696 0 0)
(0.88001676 0 0)
(0.87648969 0 0)
(0.87224092 0 0)
(0.86755291 0 0)
(0.86281209 0 0)
(0.85852785 0 0)
(0.85534991 0 0)
(0.8541118 0 0)
(0.038618377 0 0)
(0.11170424 0 0)
(0.17992801 0 0)
(0.24380376 0 0)
(0.30375528 0 0)
(0.3600798 0 0)
(0.41296077 0 0)
(0.46265961 0 0)
(0.50940468 0 0)
(0.55338018 0 0)
(0.59320136 0 0)
(0.6287332 0 0)
(0.66146553 0 0)
(0.6913963 0 0)
(0.7188039 0 0)
(0.74384927 0 0)
(0.7665967 0 0)
(0.78711246 0 0)
(0.805535 0 0)
(0.82195529 0 0)
(0.83643391 0 0)
(0.84904296 0 0)
(0.85986539 0 0)
(0.86897272 0 0)
(0.876434 0 0)
(0.88233315 0 0)
(0.8867323 0 0)
(0.88968234 0 0)
(0.89123867 0 0)
(0.89146959 0 0)
(0.89044147 0 0)
(0.88825518 0 0)
(0.88501475 0 0)
(0.88088812 0 0)
(0.8760872 0 0)
(0.87087252 0 0)
(0.86565588 0 0)
(0.86093129 0 0)
(0.85737738 0 0)
(0.8558056 0 0)
(0.11164849 0 0)
(0.038616569 0 0)
(0.17973041 0 0)
(0.24339631 0 0)
(0.30308608 0 0)
(0.3591117 0 0)
(0.41167614 0 0)
(0.46105743 0 0)
(0.50749035 0 0)
(0.55115553 0 0)
(0.59221599 0 0)
(0.62929727 0 0)
(0.66217221 0 0)
(0.69226566 0 0)
(0.71985779 0 0)
(0.74511442 0 0)
(0.76809889 0 0)
(0.78887181 0 0)
(0.80758246 0 0)
(0.82431629 0 0)
(0.83913568 0 0)
(0.85211734 0 0)
(0.86333879 0 0)
(0.87286616 0 0)
(0.88077128 0 0)
(0.88713202 0 0)
(0.89201759 0 0)
(0.89548375 0 0)
(0.89757433 0 0)
(0.89834568 0 0)
(0.89784548 0 0)
(0.8961448 0 0)
(0.89332535 0 0)
(0.88949518 0 0)
(0.88482274 0 0)
(0.87949633 0 0)
(0.87379907 0 0)
(0.86812641 0 0)
(0.8630052 0 0)
(0.8590946 0 0)
(0.85722155 0 0)
(0.17964002 0 0)
(0.11164343 0 0)
(0.038631663 0 0)
(0.24312835 0 0)
(0.30258354 0 0)
(0.35832981 0 0)
(0.41059086 0 0)
(0.45965993 0 0)
(0.50577991 0 0)
(0.54914081 0 0)
(0.58990548 0 0)
(0.6282969 0 0)
(0.66277468 0 0)
(0.6930065 0 0)
(0.7207663 0 0)
(0.74621614 0 0)
(0.76942098 0 0)
(0.79042783 0 0)
(0.80939681 0 0)
(0.82642433 0 0)
(0.8415638 0 0)
(0.85488413 0 0)
(0.86647296 0 0)
(0.8764004 0 0)
(0.88472549 0 0)
(0.89152003 0 0)
(0.8968622 0 0)
(0.90081667 0 0)
(0.90342482 0 0)
(0.90473198 0 0)
(0.90477848 0 0)
(0.9036123 0 0)
(0.9012834 0 0)
(0.89788573 0 0)
(0.89351298 0 0)
(0.88831952 0 0)
(0.8825107 0 0)
(0.87635233 0 0)
(0.87026597 0 0)
(0.86476573 0 0)
(0.86053392 0 0)
(0.85837596 0 0)
(0.24300255 0 0)
(0.1796304 0 0)
(0.11168916 0 0)
(0.038668732 0 0)
(0.30225097 0 0)
(0.35774217 0 0)
(0.40971492 0 0)
(0.45847954 0 0)
(0.50428868 0 0)
(0.54733996 0 0)
(0.5878103 0 0)
(0.62591376 0 0)
(0.66176372 0 0)
(0.69364075 0 0)
(0.72154085 0 0)
(0.74716755 0 0)
(0.77057229 0 0)
(0.79179324 0 0)
(0.81100416 0 0)
(0.82829813 0 0)
(0.84372811 0 0)
(0.85736637 0 0)
(0.86929934 0 0)
(0.87959165 0 0)
(0.88830865 0 0)
(0.89551834 0 0)
(0.9012886 0 0)
(0.90569764 0 0)
(0.90879832 0 0)
(0.91062552 0 0)
(0.91121249 0 0)
(0.91059947 0 0)
(0.90881379 0 0)
(0.90591219 0 0)
(0.90197053 0 0)
(0.89708864 0 0)
(0.89141966 0 0)
(0.88514965 0 0)
(0.87857036 0 0)
(0.87208711 0 0)
(0.86624629 0 0)
(0.86170966 0 0)
(0.85929385 0 0)
(0.30209214 0 0)
(0.24298447 0 0)
(0.17970181 0 0)
(0.11180109 0 0)
(0.038727676 0 0)
(0.35735109 0 0)
(0.4090542 0 0)
(0.45752626 0 0)
(0.50302903 0 0)
(0.54576966 0 0)
(0.58593859 0 0)
(0.62375448 0 0)
(0.65932357 0 0)
(0.69262694 0 0)
(0.72220477 0 0)
(0.74798076 0 0)
(0.77156793 0 0)
(0.79298546 0 0)
(0.81241293 0 0)
(0.82995476 0 0)
(0.84565731 0 0)
(0.85958406 0 0)
(0.87183046 0 0)
(0.88246768 0 0)
(0.89155125 0 0)
(0.89914526 0 0)
(0.90532142 0 0)
(0.91015392 0 0)
(0.91370842 0 0)
(0.91602866 0 0)
(0.91713893 0 0)
(0.91707204 0 0)
(0.91584912 0 0)
(0.91349942 0 0)
(0.91006033 0 0)
(0.90562161 0 0)
(0.90026911 0 0)
(0.89414405 0 0)
(0.88745146 0 0)
(0.88046874 0 0)
(0.87362697 0 0)
(0.8674611 0 0)
(0.86264898 0 0)
(0.85998991 0 0)
(0.3571627 0 0)
(0.30206339 0 0)
(0.24307364 0 0)
(0.17987963 0 0)
(0.11197881 0 0)
(0.038807544 0 0)
(0.40861557 0 0)
(0.45680697 0 0)
(0.50201144 0 0)
(0.54444283 0 0)
(0.58430511 0 0)
(0.62182343 0 0)
(0.65711253 0 0)
(0.69015355 0 0)
(0.7211974 0 0)
(0.7486749 0 0)
(0.77241877 0 0)
(0.79401576 0 0)
(0.81364481 0 0)
(0.83141184 0 0)
(0.84736091 0 0)
(0.86155615 0 0)
(0.87409647 0 0)
(0.88504666 0 0)
(0.89446668 0 0)
(0.9024242 0 0)
(0.90898252 0 0)
(0.91421002 0 0)
(0.91818327 0 0)
(0.92096097 0 0)
(0.92256778 0 0)
(0.92302779 0 0)
(0.92235879 0 0)
(0.92058152 0 0)
(0.91770504 0 0)
(0.91377528 0 0)
(0.90886608 0 0)
(0.90307077 0 0)
(0.89652932 0 0)
(0.88943082 0 0)
(0.88208179 0 0)
(0.8748967 0 0)
(0.8684381 0 0)
(0.86336503 0 0)
(0.86048495 0 0)
(0.40840102 0 0)
(0.3571257 0 0)
(0.30216671 0 0)
(0.24330479 0 0)
(0.18016166 0 0)
(0.11221947 0 0)
(0.038908022 0 0)
(0.45632913 0 0)
(0.50124473 0 0)
(0.54337075 0 0)
(0.58292532 0 0)
(0.62013878 0 0)
(0.65513479 0 0)
(0.68791001 0 0)
(0.71870737 0 0)
(0.74768295 0 0)
(0.77314342 0 0)
(0.79489546 0 0)
(0.81470869 0 0)
(0.8326834 0 0)
(0.84886304 0 0)
(0.8633025 0 0)
(0.87610862 0 0)
(0.88735323 0 0)
(0.89708796 0 0)
(0.90537609 0 0)
(0.91228906 0 0)
(0.91789079 0 0)
(0.92224919 0 0)
(0.92544271 0 0)
(0.92751216 0 0)
(0.9284724 0 0)
(0.92833654 0 0)
(0.92712187 0 0)
(0.9248301 0 0)
(0.92147366 0 0)
(0.91708068 0 0)
(0.91174071 0 0)
(0.90553446 0 0)
(0.89859225 0 0)
(0.89112271 0 0)
(0.88342249 0 0)
(0.8759276 0 0)
(0.86918976 0 0)
(0.86388009 0 0)
(0.86079183 0 0)
(0.45609474 0 0)
(0.40835815 0 0)
(0.35724296 0 0)
(0.30244122 0 0)
(0.24367421 0 0)
(0.18054567 0 0)
(0.11252232 0 0)
(0.039027655 0 0)
(0.50073448 0 0)
(0.54256266 0 0)
(0.58181032 0 0)
(0.61871483 0 0)
(0.65340904 0 0)
(0.68590389 0 0)
(0.7164466 0 0)
(0.74518483 0 0)
(0.7721695 0 0)
(0.7956477 0 0)
(0.81561775 0 0)
(0.8337835 0 0)
(0.85017306 0 0)
(0.86483874 0 0)
(0.87789398 0 0)
(0.8894059 0 0)
(0.89942734 0 0)
(0.90802572 0 0)
(0.91526894 0 0)
(0.92121754 0 0)
(0.92594298 0 0)
(0.9295235 0 0)
(0.93200853 0 0)
(0.9334279 0 0)
(0.93379473 0 0)
(0.93311977 0 0)
(0.93140106 0 0)
(0.92864143 0 0)
(0.92483431 0 0)
(0.9200177 0 0)
(0.91426734 0 0)
(0.90767345 0 0)
(0.9003653 0 0)
(0.89253898 0 0)
(0.88452081 0 0)
(0.87672924 0 0)
(0.86973933 0 0)
(0.8642058 0 0)
(0.8609279 0 0)
(0.50048621 0 0)
(0.45604712 0 0)
(0.40848455 0 0)
(0.35756012 0 0)
(0.3028869 0 0)
(0.24417995 0 0)
(0.18102742 0 0)
(0.11288293 0 0)
(0.039165838 0 0)
(0.54202399 0 0)
(0.58096969 0 0)
(0.61756433 0 0)
(0.65195056 0 0)
(0.68415254 0 0)
(0.71442524 0 0)
(0.74291933 0 0)
(0.76967593 0 0)
(0.79469832 0 0)
(0.81639557 0 0)
(0.83472538 0 0)
(0.85130833 0 0)
(0.86618219 0 0)
(0.87946244 0 0)
(0.89122465 0 0)
(0.90151485 0 0)
(0.91039491 0 0)
(0.91794062 0 0)
(0.92421557 0 0)
(0.92928162 0 0)
(0.93321255 0 0)
(0.93607493 0 0)
(0.93791544 0 0)
(0.93874986 0 0)
(0.9385838 0 0)
(0.93741414 0 0)
(0.93523878 0 0)
(0.93204279 0 0)
(0.92782394 0 0)
(0.9226049 0 0)
(0.91647829 0 0)
(0.90952333 0 0)
(0.90186272 0 0)
(0.8937107 0 0)
(0.88538795 0 0)
(0.87732782 0 0)
(0.87009806 0 0)
(0.86436039 0 0)
(0.86090506 0 0)
(0.54176127 0 0)
(0.50043391 0 0)
(0.45618259 0 0)
(0.40883787 0 0)
(0.35807685 0 0)
(0.3034953 0 0)
(0.24481523 0 0)
(0.18160347 0 0)
(0.11329965 0 0)
(0.039320745 0 0)
(0.58041061 0 0)
(0.61669715 0 0)
(0.65077139 0 0)
(0.68267239 0 0)
(0.71265893 0 0)
(0.7408905 0 0)
(0.76741459 0 0)
(0.79222976 0 0)
(0.81547842 0 0)
(0.83552815 0 0)
(0.85228037 0 0)
(0.86734587 0 0)
(0.88083655 0 0)
(0.89282692 0 0)
(0.90336148 0 0)
(0.912505 0 0)
(0.92033231 0 0)
(0.92690406 0 0)
(0.93228535 0 0)
(0.93654931 0 0)
(0.93976623 0 0)
(0.94198804 0 0)
(0.94323863 0 0)
(0.94353789 0 0)
(0.94288322 0 0)
(0.94126672 0 0)
(0.93866756 0 0)
(0.93507383 0 0)
(0.93046601 0 0)
(0.92487767 0 0)
(0.91839054 0 0)
(0.91109572 0 0)
(0.90311287 0 0)
(0.89464831 0 0)
(0.88604915 0 0)
(0.87773247 0 0)
(0.87028467 0 0)
(0.86435506 0 0)
(0.86073791 0 0)
(0.58013729 0 0)
(0.54170438 0 0)
(0.50058001 0 0)
(0.45656588 0 0)
(0.40941069 0 0)
(0.35878629 0 0)
(0.30426581 0 0)
(0.2455768 0 0)
(0.1822676 0 0)
(0.11376715 0 0)
(0.039492044 0 0)
(0.61611999 0 0)
(0.6498833 0 0)
(0.68147638 0 0)
(0.71116607 0 0)
(0.73911908 0 0)
(0.76538814 0 0)
(0.78998671 0 0)
(0.81304729 0 0)
(0.83465032 0 0)
(0.85310752 0 0)
(0.86834183 0 0)
(0.88202639 0 0)
(0.89422864 0 0)
(0.90499226 0 0)
(0.91437595 0 0)
(0.92246016 0 0)
(0.92930982 0 0)
(0.93498407 0 0)
(0.9395537 0 0)
(0.94309203 0 0)
(0.94565829 0 0)
(0.94728789 0 0)
(0.94800939 0 0)
(0.94782873 0 0)
(0.9467357 0 0)
(0.9447075 0 0)
(0.94172369 0 0)
(0.93775673 0 0)
(0.93279224 0 0)
(0.9268511 0 0)
(0.92003283 0 0)
(0.91242057 0 0)
(0.90412849 0 0)
(0.89537782 0 0)
(0.88651392 0 0)
(0.87796373 0 0)
(0.8703094 0 0)
(0.86420477 0 0)
(0.86043667 0 0)
(0.61583891 0 0)
(0.58008005 0 0)
(0.54185626 0 0)
(0.50098622 0 0)
(0.45718737 0 0)
(0.41020181 0 0)
(0.35968387 0 0)
(0.30518643 0 0)
(0.24645528 0 0)
(0.18301431 0 0)
(0.11428494 0 0)
(0.039626259 0 0)
(0.64929111 0 0)
(0.68057509 0 0)
(0.70995883 0 0)
(0.73762023 0 0)
(0.76361868 0 0)
(0.7879777 0 0)
(0.81083495 0 0)
(0.8322622 0 0)
(0.85227138 0 0)
(0.86919247 0 0)
(0.88304561 0 0)
(0.89544398 0 0)
(0.9064174 0 0)
(0.91602477 0 0)
(0.92434905 0 0)
(0.93145147 0 0)
(0.93739317 0 0)
(0.9422465 0 0)
(0.94608255 0 0)
(0.94896277 0 0)
(0.95094127 0 0)
(0.95204828 0 0)
(0.95228919 0 0)
(0.95167271 0 0)
(0.95017722 0 0)
(0.94777669 0 0)
(0.9444335 0 0)
(0.94012495 0 0)
(0.93482142 0 0)
(0.92855557 0 0)
(0.92141934 0 0)
(0.91350893 0 0)
(0.90493285 0 0)
(0.89590812 0 0)
(0.88680269 0 0)
(0.87803029 0 0)
(0.87018798 0 0)
(0.86391959 0 0)
(0.85999083 0 0)
(0.64900372 0 0)
(0.61577847 0 0)
(0.58023684 0 0)
(0.54228205 0 0)
(0.5016517 0 0)
(0.45804751 0 0)
(0.4112005 0 0)
(0.36076037 0 0)
(0.30625382 0 0)
(0.24744438 0 0)
(0.18384062 0 0)
(0.11455784 0 0)
(0.039587147 0 0)
(0.6799764 0 0)
(0.70904829 0 0)
(0.73640885 0 0)
(0.76212086 0 0)
(0.78622082 0 0)
(0.80885294 0 0)
(0.83009091 0 0)
(0.84993727 0 0)
(0.86840254 0 0)
(0.88391703 0 0)
(0.89648704 0 0)
(0.90765489 0 0)
(0.91746909 0 0)
(0.92601275 0 0)
(0.93335171 0 0)
(0.93954237 0 0)
(0.94465507 0 0)
(0.94876374 0 0)
(0.95193262 0 0)
(0.95422066 0 0)
(0.9556692 0 0)
(0.95629249 0 0)
(0.95610593 0 0)
(0.95509993 0 0)
(0.9532441 0 0)
(0.95049851 0 0)
(0.94682779 0 0)
(0.94219652 0 0)
(0.93658056 0 0)
(0.93000306 0 0)
(0.9225745 0 0)
(0.91438481 0 0)
(0.90553774 0 0)
(0.89625997 0 0)
(0.88692411 0 0)
(0.8779491 0 0)
(0.86992996 0 0)
(0.86345555 0 0)
(0.85938644 0 0)
(0.67968512 0 0)
(0.64894073 0 0)
(0.61594081 0 0)
(0.58068234 0 0)
(0.54298154 0 0)
(0.50256628 0 0)
(0.45913147 0 0)
(0.41240155 0 0)
(0.36200613 0 0)
(0.30745533 0 0)
(0.2485403 0 0)
(0.18423603 0 0)
(0.11444386 0 0)
(0.039542789 0 0)
(0.708443 0 0)
(0.73549507 0 0)
(0.76090965 0 0)
(0.78473412 0 0)
(0.80711728 0 0)
(0.82814167 0 0)
(0.84781501 0 0)
(0.86613908 0 0)
(0.88317874 0 0)
(0.89737548 0 0)
(0.90871728 0 0)
(0.91872304 0 0)
(0.92747162 0 0)
(0.93502739 0 0)
(0.94144555 0 0)
(0.94679761 0 0)
(0.95115827 0 0)
(0.95459256 0 0)
(0.95716045 0 0)
(0.95891415 0 0)
(0.95988733 0 0)
(0.96008846 0 0)
(0.95951351 0 0)
(0.95815423 0 0)
(0.95596567 0 0)
(0.95290689 0 0)
(0.94892762 0 0)
(0.94399935 0 0)
(0.93808474 0 0)
(0.9312194 0 0)
(0.9235099 0 0)
(0.91505917 0 0)
(0.90596036 0 0)
(0.89644192 0 0)
(0.88689543 0 0)
(0.87772922 0 0)
(0.86944043 0 0)
(0.86281398 0 0)
(0.85863686 0 0)
(0.70814699 0 0)
(0.67962443 0 0)
(0.64910719 0 0)
(0.61639748 0 0)
(0.58140739 0 0)
(0.54394269 0 0)
(0.50372598 0 0)
(0.46043675 0 0)
(0.41379046 0 0)
(0.36340998 0 0)
(0.30878959 0 0)
(0.24903909 0 0)
(0.18405029 0 0)
(0.11431402 0 0)
(0.039491662 0 0)
(0.73488725 0 0)
(0.75999607 0 0)
(0.7835311 0 0)
(0.80564851 0 0)
(0.82643604 0 0)
(0.84590732 0 0)
(0.86407567 0 0)
(0.88099519 0 0)
(0.89669376 0 0)
(0.90962059 0 0)
(0.91979872 0 0)
(0.92873846 0 0)
(0.93649629 0 0)
(0.94312686 0 0)
(0.94869921 0 0)
(0.95328966 0 0)
(0.95696577 0 0)
(0.95978901 0 0)
(0.9618129 0 0)
(0.96308718 0 0)
(0.96363565 0 0)
(0.96345232 0 0)
(0.96253766 0 0)
(0.9608609 0 0)
(0.95837289 0 0)
(0.95502128 0 0)
(0.95075902 0 0)
(0.94554817 0 0)
(0.93935692 0 0)
(0.93221497 0 0)
(0.92424625 0 0)
(0.91554903 0 0)
(0.90621169 0 0)
(0.89647121 0 0)
(0.88672485 0 0)
(0.87721165 0 0)
(0.86873224 0 0)
(0.86203211 0 0)
(0.85774159 0 0)
(0.73459119 0 0)
(0.70808393 0 0)
(0.6797923 0 0)
(0.64957407 0 0)
(0.61714672 0 0)
(0.5824107 0 0)
(0.54516328 0 0)
(0.5051153 0 0)
(0.46194424 0 0)
(0.41535585 0 0)
(0.36496584 0 0)
(0.30938024 0 0)
(0.24878545 0 0)
(0.18383947 0 0)
(0.1141648 0 0)
(0.039432592 0 0)
(0.75938731 0 0)
(0.78262413 0 0)
(0.80445856 0 0)
(0.82499024 0 0)
(0.84423802 0 0)
(0.86222135 0 0)
(0.87899987 0 0)
(0.89459371 0 0)
(0.90899702 0 0)
(0.92071637 0 0)
(0.92982527 0 0)
(0.93777208 0 0)
(0.94459942 0 0)
(0.95037545 0 0)
(0.95517855 0 0)
(0.9590765 0 0)
(0.96213264 0 0)
(0.96440386 0 0)
(0.96594247 0 0)
(0.96678932 0 0)
(0.96696096 0 0)
(0.96644609 0 0)
(0.96522109 0 0)
(0.96325614 0 0)
(0.96048917 0 0)
(0.95686994 0 0)
(0.95233871 0 0)
(0.94686611 0 0)
(0.94040943 0 0)
(0.93301086 0 0)
(0.92479271 0 0)
(0.91586488 0 0)
(0.90630614 0 0)
(0.8963563 0 0)
(0.88618362 0 0)
(0.87642038 0 0)
(0.86789314 0 0)
(0.86110904 0 0)
(0.85669907 0 0)
(0.75909112 0 0)
(0.73452591 0 0)
(0.70825018 0 0)
(0.68026931 0 0)
(0.65034213 0 0)
(0.61817748 0 0)
(0.58367672 0 0)
(0.54662489 0 0)
(0.50672555 0 0)
(0.46364473 0 0)
(0.41709302 0 0)
(0.36564471 0 0)
(0.30906445 0 0)
(0.24849757 0 0)
(0.18359638 0 0)
(0.11399288 0 0)
(0.039365182 0 0)
(0.78202052 0 0)
(0.80356044 0 0)
(0.82382027 0 0)
(0.84282176 0 0)
(0.8605956 0 0)
(0.87720657 0 0)
(0.89267579 0 0)
(0.9069893 0 0)
(0.92015226 0 0)
(0.93075391 0 0)
(0.93886935 0 0)
(0.94587932 0 0)
(0.95184592 0 0)
(0.95684519 0 0)
(0.96094607 0 0)
(0.96421489 0 0)
(0.96671072 0 0)
(0.96848628 0 0)
(0.96959089 0 0)
(0.9700616 0 0)
(0.96990095 0 0)
(0.96908277 0 0)
(0.96758633 0 0)
(0.96536004 0 0)
(0.96234046 0 0)
(0.95846842 0 0)
(0.95368855 0 0)
(0.94796535 0 0)
(0.94126137 0 0)
(0.93361484 0 0)
(0.9251651 0 0)
(0.91602106 0 0)
(0.90625413 0 0)
(0.89579654 0 0)
(0.8853052 0 0)
(0.87550987 0 0)
(0.8669206 0 0)
(0.86004205 0 0)
(0.85550966 0 0)
(0.78172636 0 0)
(0.75902375 0 0)
(0.73469294 0 0)
(0.7087295 0 0)
(0.68104637 0 0)
(0.65139708 0 0)
(0.6194846 0 0)
(0.58520104 0 0)
(0.54832027 0 0)
(0.50853871 0 0)
(0.46552987 0 0)
(0.41783439 0 0)
(0.36527481 0 0)
(0.30871009 0 0)
(0.24816874 0 0)
(0.18331833 0 0)
(0.11379739 0 0)
(0.039288284 0 0)
(0.80296214 0 0)
(0.82293652 0 0)
(0.84167538 0 0)
(0.85921703 0 0)
(0.87563091 0 0)
(0.89094713 0 0)
(0.90515528 0 0)
(0.91824916 0 0)
(0.93025178 0 0)
(0.93980366 0 0)
(0.94698171 0 0)
(0.95312492 0 0)
(0.95830638 0 0)
(0.96259463 0 0)
(0.96605688 0 0)
(0.96875573 0 0)
(0.97074482 0 0)
(0.97207493 0 0)
(0.97279978 0 0)
(0.97294359 0 0)
(0.9724945 0 0)
(0.97141628 0 0)
(0.96966813 0 0)
(0.96720292 0 0)
(0.96394516 0 0)
(0.95984006 0 0)
(0.95482193 0 0)
(0.94886469 0 0)
(0.94192128 0 0)
(0.93404298 0 0)
(0.92537487 0 0)
(0.91602741 0 0)
(0.90568311 0 0)
(0.8948348 0 0)
(0.88432082 0 0)
(0.87447713 0 0)
(0.8658127 0 0)
(0.85883202 0 0)
(0.85417096 0 0)
(0.80266916 0 0)
(0.78166126 0 0)
(0.75918954 0 0)
(0.73517011 0 0)
(0.70951039 0 0)
(0.68211985 0 0)
(0.65273591 0 0)
(0.62105105 0 0)
(0.58696143 0 0)
(0.55022779 0 0)
(0.51055178 0 0)
(0.46631882 0 0)
(0.41741051 0 0)
(0.36485379 0 0)
(0.30830268 0 0)
(0.24779224 0 0)
(0.18300169 0 0)
(0.11357505 0 0)
(0.039201159 0 0)
(0.82234828 0 0)
(0.84080942 0 0)
(0.85809992 0 0)
(0.87429529 0 0)
(0.8894296 0 0)
(0.90349825 0 0)
(0.91650437 0 0)
(0.9284591 0 0)
(0.93936787 0 0)
(0.94791842 0 0)
(0.95422381 0 0)
(0.95957716 0 0)
(0.96404008 0 0)
(0.9676802 0 0)
(0.97056363 0 0)
(0.97274571 0 0)
(0.97427947 0 0)
(0.97522252 0 0)
(0.97561764 0 0)
(0.9754759 0 0)
(0.97477159 0 0)
(0.97345474 0 0)
(0.97148648 0 0)
(0.96880089 0 0)
(0.96532496 0 0)
(0.96099737 0 0)
(0.95575691 0 0)
(0.94957248 0 0)
(0.94240412 0 0)
(0.93430711 0 0)
(0.92543378 0 0)
(0.91544669 0 0)
(0.90464603 0 0)
(0.89377991 0 0)
(0.88322527 0 0)
(0.87331964 0 0)
(0.86456894 0 0)
(0.85747542 0 0)
(0.85268392 0 0)
(0.8220608 0 0)
(0.80260262 0 0)
(0.78182385 0 0)
(0.75966393 0 0)
(0.73595457 0 0)
(0.71059173 0 0)
(0.6834753 0 0)
(0.65433828 0 0)
(0.62286598 0 0)
(0.58894619 0 0)