/*--------------------------------*- C++ -*----------------------------------*\
| =========                 |                                                 |
| \\      /  F ield         | OpenFOAM: The Open Source CFD Toolbox           |
|  \\    /   O peration     | Version:  v2012                                 |
|   \\  /    A nd           | Website:  www.openfoam.com                      |
|    \\/     M anipulation  |                                                 |
\*---------------------------------------------------------------------------*/
FoamFile
{
    version     2.0;
    format      ascii;
    class       volScalarField;
    location    "103.560800180950793";
    object      p;
}
// * * * * * * * * * * * * * * * * * * * * * * * * * * * * * * * * * * * * * //

dimensions      [0 2 -2 0 0 0 0];


internalField   nonuniform List<scalar> 
9200
(
0.00035950456
0.00042667219
-0.0014588277
0.0005152626
-0.0015997618
-0.0020044271
0.00071614492
-0.0018204991
-0.0021745822
-0.0025540208
0.0010699277
-0.0020708021
-0.0024118495
-0.0028219184
-0.0028404515
0.001636635
-0.0022586454
-0.0026519417
-0.0032132286
-0.0032607138
-0.0029086961
0.0025446205
-0.0023571371
-0.0027640216
-0.0036659113
-0.0038306157
-0.003592581
-0.0027128374
0.0038821435
-0.0022460204
-0.0027191569
-0.0039812375
-0.0045647366
-0.0043872723
-0.0036776018
-0.0021958357
0.0057763115
-0.0018979162
-0.0024027568
-0.0041289363
-0.00515129
-0.0055181771
-0.0047770451
-0.003459582
-0.0012915244
0.0082858602
-0.0012416941
-0.0017997603
-0.0039643514
-0.0055781586
-0.0065243945
-0.0064054718
-0.0049387023
-0.0028618553
7.9099824e-05
0.011381557
-0.00028721458
-0.00083663948
-0.0034652933
-0.0056512051
-0.0074104081
-0.0079764418
-0.0071634351
-0.004780465
-0.0018123263
0.0019649986
0.014740373
0.0008937936
0.00053604426
-0.0025693932
-0.0053478269
-0.0079215887
-0.0094903928
-0.009452061
-0.0076882867
-0.0042099334
-0.00023223914
0.0043471913
0.019127691
0.0020792409
0.0024700095
-0.0012762009
-0.0046037477
-0.0080132597
-0.010634529
-0.011786461
-0.010837087
-0.0078632799
-0.0031323392
0.0019612009
0.0073143172
0.025397543
0.003670288
0.0053285311
0.00043597385
-0.0034730615
-0.0075947265
-0.011312192
-0.013805973
-0.014192858
-0.01199342
-0.0075583028
-0.0014529413
0.0047842358
0.011041177
0.033877071
0.0061217958
0.0090260058
0.0025313495
-0.0019681226
-0.0066867524
-0.011379196
-0.015344531
-0.017361108
-0.016559645
-0.012751363
-0.0066446963
0.00090341239
0.0081841666
0.015262296
0.044163002
0.0096197485
0.013390326
0.0048760474
-0.00023931754
-0.0053410467
-0.010790454
-0.016185351
-0.020108995
-0.021159371
-0.018679573
-0.012922483
-0.0050053538
0.0039912162
0.012202269
0.019983882
0.055435451
0.014210622
0.01839412
0.0072941028
0.001531817
-0.0036902309
-0.0095447002
-0.016186377
-0.022146154
-0.025511516
-0.024966296
-0.020299414
-0.012318219
-0.0025346552
0.0078536639
0.016899753
0.025259976
0.066451412
0.020014328
0.024227412
0.0096639934
0.0031122063
-0.001919555
-0.007710733
-0.015243706
-0.023223079
-0.029271831
-0.031316885
-0.028462276
-0.021139952
-0.010764013
0.0008307522
0.012378362
0.022179135
0.030950452
0.075211828
0.027028159
0.03080451
0.011833983
0.0042797415
-0.00024370764
-0.0054145846
-0.013311344
-0.023119316
-0.032097068
-0.037368646
-0.03714795
-0.03125902
-0.020925391
-0.0081064339
0.0050736691
0.017622883
0.027967951
0.036985122
0.080336623
0.034780098
0.037992434
0.013522328
0.0047133135
0.0010844732
-0.0028250494
-0.010397015
-0.021655125
-0.033659337
-0.042717744
-0.046029887
-0.042497844
-0.032940189
-0.019403248
-0.0042399593
0.010308492
0.023496075
0.034171378
0.043285967
0.081667288
0.042204432
0.045223766
0.014971325
0.0041231505
0.0017792361
-0.00017873032
-0.0065613711
-0.018704132
-0.033653936
-0.046957358
-0.054696114
-0.054635634
-0.046772133
-0.033098462
-0.016378562
0.00071122551
0.01635505
0.029901764
0.040693655
0.049764775
0.07907392
0.048131287
0.05205719
0.015983521
0.002150682
0.0018698756
0.0023448439
-0.0019188642
-0.014197584
-0.031833508
-0.049676137
-0.062707854
-0.067328854
-0.062388162
-0.049358639
-0.031367343
-0.011803303
0.0068359182
0.023122897
0.036727528
0.047438801
0.056339881
0.072951797
0.051171587
0.0581974
0.016366725
-0.0013501601
0.00027525625
0.0043157948
0.003387602
-0.0081244734
-0.028021298
-0.050514723
-0.069581558
-0.080188128
-0.079613266
-0.068396171
-0.049667138
-0.027516277
-0.005612065
0.013995279
0.030476793
0.04385332
0.054311989
0.062938376
0.064044605
0.05050085
0.063484252
0.015767193
-0.0070890157
-0.0029817822
0.0055958437
0.0090135097
-0.00055641776
-0.02213704
-0.049193326
-0.074857499
-0.092726181
-0.098228132
-0.090330286
-0.071731568
-0.047219683
-0.021567603
0.0020259824
0.022011252
0.038262438
0.051159728
0.061222927
0.069494281
0.053024274
0.047006847
0.067623789
0.013940945
-0.01574541
-0.008318845
0.0056128621
0.014805935
0.0084005884
-0.014221337
-0.045558205
-0.078136692
-0.10442827
-0.11787163
-0.11525107
-0.098125345
-0.071495019
-0.041864999
-0.013482577
0.010917214
0.030673426
0.046319958
0.058534132
0.068092691
0.075951474
0.041318121
0.041172698
0.068890615
0.0078062216
-0.028329088
-0.015956935
0.0039323939
0.021524368
0.018529397
-0.0044249344
-0.039620901
-0.07914684
-0.11477785
-0.13810494
-0.1431288
-0.1293876
-0.10156412
-0.06709137
-0.03332689
-0.0035397536
0.020781276
0.039758179
0.054495465
0.065875951
0.074854442
0.082263935
0.030090738
0.033273399
0.066530343
-0.0021333439
-0.042652142
-0.026129227
7.0873787e-05
0.026371841
0.029620243
0.0069418937
-0.031579425
-0.077800825
-0.12333663
-0.15839317
-0.17383439
-0.16606005
-0.13852402
-0.099520078
-0.05872319
-0.022148807
0.0078753705
0.031301752
0.049046457
0.06265022
0.073099639
0.081454185
0.088396028
0.020100748
0.024068505
0.061101175
-0.012026051
-0.058744662
-0.039850935
-0.0066433244
0.029990213
0.041103304
0.019450677
-0.021837591
-0.074224812
-0.12980059
-0.17818021
-0.20704987
-0.20865435
-0.18357444
-0.14054942
-0.091619998
-0.046297914
-0.0087511331
0.020312032
0.042160855
0.05833847
0.070665992
0.080136267
0.087850422
0.094321273
0.010898769
0.014579314
0.052999188
-0.021757077
-0.078211574
-0.053570521
-0.016254762
0.031504749
0.052625922
0.032483565
-0.01100067
-0.068805267
-0.13405967
-0.19689617
-0.24239671
-0.25746172
-0.23841005
-0.19206429
-0.13420966
-0.077807895
-0.030435781
0.0062385227
0.033303668
0.053064701
0.067463892
0.078448115
0.086933343
0.094013233
0.10002181
0.0024065005
0.0050266856
0.042294554
-0.032011732
-0.09986693
-0.074744359
-0.029404119
0.02982014
0.063631899
0.045326812
0.00015804049
-0.06217912
-0.13628787
-0.21413384
-0.27924747
-0.31284409
-0.30461961
-0.25738335
-0.18889501
-0.1190983
-0.058847712
-0.012082327
0.022126277
0.046412045
0.06376199
0.076286791
0.085925497
0.093453769
0.099922892
0.10548684
-0.0066495526
-0.004038644
0.029578724
-0.042483338
-0.12332352
-0.10468114
-0.047829299
0.023237189
0.073364298
0.057149216
0.010763695
-0.055148842
-0.13687994
-0.22964479
-0.31718472
-0.37472242
-0.38393924
-0.3402702
-0.26052631
-0.17353008
-0.096424272
-0.036058912
0.0077091014
0.0382513
0.059260742
0.074053159
0.084706717
0.093049315
0.099673964
0.10556846
0.11071173
-0.016008834
-0.013888044
0.015613896
-0.052141137
-0.14696307
-0.1344272
-0.07041604
0.012695862
0.081085666
0.066906164
0.019888019
-0.048616193
-0.13639917
-0.24332431
-0.35547729
-0.44361163
-0.47835387
-0.44472338
-0.35497667
-0.24611034
-0.14661407
-0.067859551
-0.011004836
0.027932774
0.054044732
0.071553013
0.083792941
0.092656316
0.099790091
0.10558193
0.11094609
0.11569649
-0.024602495
-0.024474238
0.00096538564
-0.060749345
-0.16889623
-0.16187111
-0.093151975
0.00055208304
0.085854625
0.074181612
0.026541852
-0.043519296
-0.1355663
-0.25517081
-0.39337227
-0.5186975
-0.59086913
-0.57685322
-0.47928367
-0.34383708
-0.21435239
-0.11049197
-0.03571975
0.014785296
0.047725856
0.069062402
0.08307576
0.092886611
0.10009735
0.10613485
0.11117493
0.11605757
0.12044486
-0.032324929
-0.034938265
-0.013195837
-0.067288551
-0.18905029
-0.18800281
-0.11507298
-0.013709784
0.085670834
0.076651008
0.02972379
-0.040738847
-0.13521456
-0.26524623
-0.42933462
-0.59749738
-0.72050774
-0.74351229
-0.64452491
-0.47598709
-0.3061784
-0.16827632
-0.068774407
-0.0023728882
0.040002355
0.066422847
0.082991098
0.093694447
0.1012836
0.10701566
0.11208356
0.11645747
0.12090886
0.12496335
-0.039844857
-0.04418711
-0.026551101
-0.073309756
-0.20597193
-0.21266095
-0.13587588
-0.029366401
0.079166309
0.074505596
0.02853652
-0.040967151
-0.13610292
-0.27368987
-0.4620129
-0.67415937
-0.85940004
-0.94214561
-0.85975605
-0.65857021
-0.43301745
-0.24679389
-0.11351286
-0.025160492
0.030182372
0.063651648
0.08356527
0.095639928
0.10334182
0.10896949
0.11341608
0.11764612
0.1214393
0.12550909
0.12926034
-0.047025448
-0.050940614
-0.038679284
-0.078636356
-0.22111238
-0.23348957
-0.15488976
-0.045905265
0.066543401
0.067041463
0.022665438
-0.044744362
-0.13876516
-0.28051485
-0.49035173
-0.7450012
-0.99945192
-1.1578666
-1.1200278
-0.89865483
-0.61461612
-0.35725621
-0.17410968
-0.055874843
0.017305557
0.060465969
0.085068057
0.098884787
0.10692083
0.11200542
0.11595772
0.11931731
0.12283944
0.1261339
0.12986929
0.13334551
-0.053370009
-0.055404558
-0.049005669
-0.083097572
-0.23021509
-0.25442664
-0.17218453
-0.063098192
0.049725515
0.053912851
0.011861373
-0.052304537
-0.14350096
-0.28610847
-0.51289185
-0.80618021
-1.1377667
-1.394711
-1.4183004
-1.1835403
-0.85039738
-0.51821467
-0.26075602
-0.097370708
-1.738379e-05
0.056442446
0.087527179
0.10388188
0.11227027
0.11682799
0.11971345
0.12228177
0.12474781
0.12768506
0.13055699
0.13400189
0.13722923
-0.058942528
-0.058289402
-0.058119539
-0.086075011
-0.2333864
-0.26995709
-0.18995629
-0.084883563
0.030147921
0.035398252
-0.0037615963
-0.063673034
-0.15026363
-0.29066654
-0.52870483
-0.85366059
-1.2620061
-1.6492348
-1.7820495
-1.5262129
-1.1216822
-0.72064538
-0.38707932
-0.15773596
-0.023579019
0.05087765
0.090917595
0.11087347
0.11996158
0.12373242
0.12541512
0.12652315
0.12798838
0.12974186
0.13220719
0.13472564
0.13791981
0.14092221
-0.063682199
-0.059472092
-0.06497828
-0.087247392
-0.23020696
-0.28023351
-0.20355363
-0.11059788
0.00087495921
0.013651426
-0.024797464
-0.078454263
-0.15885626
-0.2942934
-0.53625006
-0.888392
-1.356464
-1.908601
-2.1814117
-1.96327
-1.4660142
-0.94870391
-0.53910087
-0.24559016
-0.059102575
0.042759453
0.094999461
0.12010278
0.13036738
0.13335354
0.13336794
0.13277688
0.13250961
0.13313207
0.13433699
0.13643117
0.13865724
0.14163621
0.14443509
-0.067434662
-0.059012744
-0.068445867
-0.086679875
-0.21986427
-0.28390371
-0.21419521
-0.13822684
-0.03050398
-0.017711825
-0.048741943
-0.096796592
-0.16866562
-0.29705289
-0.53405955
-0.912007
-1.4279162
-2.150664
-2.5805938
-2.4970978
-1.9287494
-1.2525665
-0.70658175
-0.34827653
-0.11194671
0.028383887
0.099280085
0.13161496
0.14388999
0.14612596
0.14422546
0.14132989
0.13903207
0.1377581
0.13777072
0.13857144
0.14038239
0.14236911
0.14516389
0.14777833
-0.057152103
-0.070030388
-0.068878874
-0.08341815
-0.20276655
-0.2800997
-0.22216084
-0.16221785
-0.065645595
-0.051746671
-0.079117066
-0.11690223
-0.1798255
-0.29834002
-0.52483067
-0.91582878
-1.4782038
-2.3193931
-2.9468984
-3.0537391
-2.5078692
-1.6872895
-0.93316067
-0.45857548
-0.17340009
0.0042647329
0.10152202
0.14522587
0.16072949
0.16252584
0.15843172
0.1528201
0.14780275
0.14431164
0.1423569
0.14196236
0.1424828
0.14408543
0.1458778
0.14851527
0.15096198
-0.066299148
-0.054044618
-0.071426937
-0.076845015
-0.18028263
-0.26822321
-0.22644177
-0.17776668
-0.10157327
-0.093387348
-0.1114713
-0.14063992
-0.19025662
-0.29881852
-0.51137218
-0.90217951
-1.5010301
-2.3959869
-3.2309019
-3.5396794
-3.1001421
-2.1969142
-1.2554102
-0.60476187
-0.23761132
-0.024960922
0.099265924
0.15964181
0.18085779
0.18281747
0.17647455
0.16766298
0.15941891
0.15298431
0.14874864
0.14639317
0.14576284
0.14610676
0.14756343
0.14919901
0.151702
0.15399559
-0.067130443
-0.061107001
-0.049289362
-0.071746978
-0.15368947
-0.24849032
-0.22570145
-0.18341889
-0.13615418
-0.13956149
-0.15366586
-0.16282158
-0.20117783
-0.2961333
-0.49531824
-0.87420536
-1.49275
-2.4013551
-3.3998117
-3.9078717
-3.605335
-2.6867391
-1.6323642
-0.81177493
-0.32018231
-0.055080447
0.09402228
0.17303826
0.20351113
0.20703126
0.19862035
0.18631533
0.17424136
0.16431553
0.15707176
0.15247203
0.14994934
0.14922448
0.14947635
0.15083768
0.1523472
0.15473518
0.15688813
-0.1243676
-0.05480946
-0.054327093
-0.042829764
-0.071121849
-0.22210874
-0.21694702
-0.17885941
-0.16770501
-0.19043955
-0.20386044
-0.19398728
-0.20595505
-0.2908132
-0.47361487
-0.83218068
-1.4474794
-2.3417903
-3.4470871
-4.1227137
-3.9744479
-3.1050467
-2.001042
-1.0630595
-0.43842895
-0.093471364
0.087761985
0.18503564
0.22731265
0.23465358
0.22490057
0.20900507
0.19266863
0.17859499
0.16779704
0.16025294
0.15560219
0.15310159
0.15239475
0.15262128
0.15392749
0.15533599
0.15762518
0.15964801
-0.19085273
-0.093831228
-0.040815316
-0.046878904
-0.035246701
-0.069697486
-0.199038
-0.16702242
-0.19477433
-0.24378726
-0.25974944
-0.23437391
-0.21652953
-0.27452488
-0.44232683
-0.78413263
-1.3694622
-2.2322143
-3.381976
-4.1797589
-4.1834496
-3.4047889
-2.3149408
-1.3179139
-0.59081247
-0.15148755
0.076988032
0.19539922
0.25099966
0.2645989
0.25489313
0.23573108
0.214866
0.19614712
0.18113382
0.17013216
0.16270068
0.15824854
0.15591784
0.15531562
0.155568
0.15685084
0.15817808
0.16038159
0.16228311
-0.17489143
-0.15711584
-0.065143766
-0.026111846
-0.038971107
-0.027051054
-0.067610403
-0.14999838
-0.21673557
-0.29605034
-0.31904761
-0.2790804
-0.23381513
-0.26281081
-0.39636902
-0.70843928
-1.2725697
-2.0856083
-3.2256947
-4.096122
-4.2322684
-3.5774586
-2.5559619
-1.5457801
-0.75825107
-0.23633562
0.05488786
0.2017054
0.27289712
0.29535199
0.28766444
0.26608874
0.24078123
0.21706244
0.19732489
0.182235
0.17156459
0.16456979
0.16050743
0.15845729
0.1580238
0.15834083
0.15962445
0.16088481
0.16301254
0.16480084
-0.12921346
-0.14835712
-0.12292121
-0.038936013
-0.011629913
-0.030877468
-0.018664692
-0.065018842
-0.23383401
-0.34308876
-0.3800242
-0.3264596
-0.25566559
-0.25596516
-0.35694546
-0.61195105
-1.121525
-1.9212858
-3.0006031
-3.8994292
-4.1336404
-3.6228062
-2.7022784
-1.7329311
-0.92321065
-0.34438298
0.013385332
0.19958622
0.29019865
0.32468891
0.32171911
0.29920975
0.26999653
0.2412295
0.21638181
0.19672054
0.18223532
0.17230947
0.16599482
0.16246141
0.16077079
0.16055262
0.16096223
0.16226256
0.16346492
0.16552507
0.16720786
-0.24589993
-0.10814341
-0.12041715
-0.089482004
-0.015301361
0.0018274441
-0.022863906
-0.010476815
-0.062085863
-0.38173095
-0.43767949
-0.3760415
-0.27945897
-0.25038793
-0.3241789
-0.52677101
-0.95518898
-1.6705038
-2.7439965
-3.5940175
-3.9194613
-3.5477823
-2.7425891
-1.8662865
-1.0786172
-0.4678081
-0.052499862
0.18337266
0.29939427
0.34929554
0.35483269
0.33367511
0.30167512
0.2682065
0.23813299
0.21352228
0.19478988
0.18142793
0.17255144
0.16708947
0.16418056
0.162904
0.16293253
0.16345049
0.16477435
0.16592544
0.16792696
0.16950999
-0.40919544
-0.24993332
-0.089118571
-0.091840419
-0.057915306
0.0061013498
0.014081175
-0.015175995
-0.0027954542
-0.058998386
-0.48634526
-0.42325664
-0.30175021
-0.24509233
-0.29392785
-0.452036
-0.80219436
-1.4163564
-2.385978
-3.2810842
-3.6456026
-3.3872992
-2.7001895
-1.9445784
-1.2167791
-0.60025436
-0.14207088
0.14604949
0.29679116
0.36550711
0.38374686
0.36744095
0.33447747
0.29717999
0.26211162
0.23241151
0.20908746
0.19192391
0.18006109
0.17244442
0.16794898
0.1657267
0.164898
0.16518728
0.16581561
0.16716612
0.16827592
0.1702286
0.17171255
-0.52151112
-0.42436115
-0.24525799
-0.072796923
-0.064206815
-0.029394888
0.02473748
0.024894702
-0.0078354646
0.0041887096
-0.055974716
-0.46093059
-0.31929127
-0.24085881
-0.26491323
-0.38507683
-0.66035428
-1.1767944
-2.0310525
-2.8908639
-3.3393867
-3.1893362
-2.6139877
-1.9715398
-1.3322032
-0.73613639
-0.25219445
0.08376161
0.27716472
0.37022339
0.40449914
0.3976857
0.36653828
0.32689823
0.28752791
0.25289993
0.22484721
0.20358762
0.18844952
0.17833937
0.17211578
0.16865597
0.16715469
0.16678371
0.16732761
0.16806316
0.16945143
0.17053191
0.17243894
0.17382179
-0.4858729
-0.54100511
-0.4264162
-0.23329904
-0.058639467
-0.039698005
-0.0049889102
0.040081911
0.033821193
-0.00084925458
0.010540629
-0.052966457
-0.33262582
-0.23996705
-0.23774454
-0.32340007
-0.53225758
-0.94978332
-1.6785633
-2.5154518
-2.9794556
-2.9628781
-2.5129882
-1.97252
-1.4272834
-0.87245664
-0.37955069
-0.0034145947
0.23523363
0.36024223
0.41362349
0.4207178
0.39546062
0.35566163
0.31322234
0.2742248
0.24156394
0.21609157
0.19744392
0.18463301
0.17642986
0.17167412
0.16928251
0.16850436
0.1685728
0.16935774
0.17021167
0.17165806
0.17270532
0.17455545
0.17593992
-0.34284163
-0.49754383
-0.54349582
-0.4171863
-0.21568511
-0.044941587
-0.018685739
0.014954389
0.051748208
0.040490979
0.0057932123
0.015630771
-0.049397295
-0.23953071
-0.21209603
-0.26543514
-0.41897771
-0.74656268
-1.3476588
-2.0746986
-2.6382772
-2.7033509
-2.3949996
-1.9672477
-1.5054211
-1.0069195
-0.52258754
-0.1142968
0.16870812
0.33122998
0.40853742
0.43267097
0.418217
0.38136627
0.33766872
0.29531801
0.25850504
0.22891779
0.20667546
0.19099575
0.18068927
0.17447252
0.1712122
0.16987927
0.16978858
0.17026785
0.1713035
0.17230374
0.173804
0.17478407
0.17664194
0.17810902
-0.23374186
-0.34790058
-0.49491026
-0.53050181
-0.39845719
-0.19661129
-0.032330272
-0.00058180174
0.030655359
0.059950539
0.044991894
0.011120625
0.019824914
-0.045438199
-0.18603241
-0.21077132
-0.31923061
-0.57001252
-1.0490082
-1.6803934
-2.2533437
-2.4645663
-2.2742603
-1.9458023
-1.5704471
-1.135416
-0.67861047
-0.249955
0.076903259
0.27970789
0.3863773
0.43046214
0.43122833
0.40153795
0.35900507
0.31482291
0.27469196
0.24136491
0.21561653
0.1970223
0.18451389
0.17679506
0.17258417
0.17079354
0.17046081
0.17100788
0.17190365
0.17322893
0.17436486
0.17584958
0.17679684
0.17876931
0.1802713
-0.15745789
-0.21987493
-0.34362615
-0.47873482
-0.50407682
-0.37257637
-0.17784272
-0.022013399
0.014198245
0.042275288
0.064692502
0.047523452
0.015315549
0.023440215
-0.041102433
-0.1597403
-0.23170248
-0.41766965
-0.78975817
-1.3185261
-1.8646822
-2.1748506
-2.1515152
-1.9339408
-1.6283624
-1.2586883
-0.8397882
-0.41099378
-0.04372453
0.20355394
0.34375627
0.41174484
0.43098117
0.41330749
0.37509956
0.33111527
0.28892165
0.25253956
0.22359597
0.20217764
0.18746636
0.17821699
0.17309416
0.17084308
0.17043517
0.17102559
0.17220795
0.17357023
0.17516908
0.17632395
0.17775925
0.17887274
0.18089965
0.18242584
-0.11203962
-0.12596905
-0.1990364
-0.32768767
-0.45082526
-0.46706705
-0.34192883
-0.15994714
-0.014289254
0.025120676
0.049975002
0.067348052
0.047997417
0.018993948
0.026472549
-0.036648318
-0.15504006
-0.28787114
-0.5700863
-1.0007758
-1.4899409
-1.8557489
-1.9712465
-1.904592
-1.7020932
-1.3860504
-1.0028294
-0.58882619
-0.19838652
0.098215569
0.27752018
0.37396185
0.41475146
0.41353676
0.38367247
0.34236576
0.29979978
0.26137704
0.2297983
0.20581779
0.18900573
0.17827271
0.17227822
0.16968126
0.16927017
0.170134
0.17163137
0.17350962
0.17531414
0.17700428
0.17808227
0.17976585
0.18095917
0.18303304
0.18457241
-0.087951424
-0.066732696
-0.093541276
-0.17375946
-0.30127343
-0.41339645
-0.42271884
-0.30905797
-0.14360255
-0.008881875
0.032521862
0.055588347
0.068426434
0.047495754
0.022235159
0.028701545
-0.032402974
-0.1790639
-0.38776396
-0.72889525
-1.1522126
-1.5309251
-1.7487628
-1.8205486
-1.7405264
-1.5428434
-1.1851715
-0.77562742
-0.38115733
-0.044053317
0.18326466
0.31358335
0.3805029
0.3992282
0.38225773
0.34664987
0.30579437
0.26669551
0.23328324
0.20719674
0.18851079
0.17641564
0.16964539
0.16680994
0.16658337
0.16786214
0.16996018
0.17243221
0.17497189
0.1769573
0.17855419
0.18001043
0.18179054
0.18306258
0.18516832
0.18671054
-0.088840202
-0.028823267
-0.024480734
-0.060619367
-0.14428031
-0.2666861
-0.36908299
-0.37428984
-0.27608811
-0.1281115
-0.0045728854
0.038615553
0.058214552
0.068854014
0.046395452
0.024770579
0.030071329
-0.028746687
-0.23957788
-0.50355821
-0.8588506
-1.2250828
-1.5091016
-1.6869077
-1.7400398
-1.6570887
-1.4294365
-0.99889703
-0.58030246
-0.22272905
0.054090517
0.22636655
0.32519642
0.36800184
0.36817762
0.34189239
0.30521244
0.26719241
0.23305026
0.20548138
0.18529767
0.17204183
0.16464256
0.16171553
0.16184857
0.16379955
0.16670027
0.17010017
0.17349964
0.17634511
0.17824182
0.18038629
0.18195862
0.18385134
0.18517761
0.18730439
0.18883977
-0.12125718
-0.013806111
0.022566827
0.014852824
-0.027575513
-0.11179276
-0.22693938
-0.32055735
-0.32457539
-0.24342876
-0.11252299
0.00092985046
0.042307173
0.059622319
0.067778869
0.045327825
0.02672783
0.030503385
-0.025676141
-0.32201152
-0.61316996
-0.94982668
-1.2657415
-1.5230978
-1.691518
-1.7397852
-1.6292582
-1.3297126
-0.83088351
-0.42712759
-0.11360427
0.1048283
0.2465517
0.31734148
0.33921343
0.32620565
0.29638125
0.26145322
0.22798037
0.19981696
0.1786226
0.16452213
0.15667784
0.15383724
0.15453371
0.15739966
0.16141923
0.16599709
0.1706359
0.1745059
0.17729981
0.17997661
0.18223857
0.18396451
0.18593796
0.1873025
0.18944002
0.19095955
-0.17886986
-0.026971714
0.04779422
0.067383988
0.050991133
0.0046847611
-0.077912403
-0.18517046
-0.27018618
-0.27588163
-0.2104442
-0.097519994
0.0070990882
0.044744665
0.059485656
0.06569242
0.044394628
0.028202107
0.030137459
-0.023174456
-0.41377274
-0.71214079
-1.0333701
-1.3414341
-1.6021446
-1.7750838
-1.8070985
-1.6141536
-1.2404041
-0.68590839
-0.32058226
-0.058617071
0.14003536
0.24607795
0.29304702
0.29775751
0.27788235
0.24817869
0.21696595
0.18928142
0.16774893
0.15318217
0.14516435
0.14259122
0.14407167
0.1481183
0.15355578
0.159668
0.16584028
0.17116149
0.175083
0.17893457
0.18172439
0.18417782
0.18600993
0.18804873
0.18943458
0.1915741
0.19306913
-0.25547922
-0.066420605
0.04725222
0.098724548
0.10609874
0.083543555
0.035205121
-0.044234544
-0.14451123
-0.2198003
-0.22688326
-0.18249975
-0.079781099
0.012316511
0.04595714
0.058441275
0.062547224
0.043359312
0.029366635
0.029166164
-0.021307967
-0.51387572
-0.82224248
-1.1548679
-1.4818144
-1.7644192
-1.940012
-1.9138451
-1.6216201
-1.1349265
-0.55871419
-0.28520928
0.0051676394
0.15148781
0.22874519
0.25479679
0.24835342
0.22629589
0.19900982
0.17298293
0.15190581
0.13736943
0.12947767
0.12742111
0.12988508
0.13538623
0.14255745
0.15053426
0.15863105
0.16575861
0.17132693
0.17663893
0.18057105
0.18359262
0.18617479
0.18809407
0.19017962
0.19157154
0.19370559
0.19516765
-0.35228336
-0.13013423
0.020509323
0.10601997
0.140549
0.1390073
0.11221217
0.0633593
-0.012309675
-0.10724011
-0.16930659
-0.18541801
-0.15169049
-0.063040721
0.016792902
0.046384447
0.05681071
0.059267928
0.042253945
0.030217964
0.027857029
-0.019738958
-0.6378548
-0.97424781
-1.3420245
-1.7123869
-2.0299985
-2.1913679
-2.0673717
-1.6109506
-0.98611514
-0.40204954
-0.16534543
0.034367507
0.14454475
0.1963603
0.20657964
0.19464505
0.17323587
0.15015025
0.13042299
0.11647509
0.10905292
0.1077482
0.11143657
0.11863347
0.12785411
0.13802931
0.14840592
0.15779956
0.16551739
0.17283514
0.17817923
0.18236871
0.18553767
0.18823022
0.19021146
0.19232794
0.19371055
0.19583306
0.19725479
-0.48100412
-0.22092981
-0.033198419
0.087768194
0.1521894
0.1745066
0.1665205
0.13703228
0.088401666
0.017321267
-0.076331416
-0.12929427
-0.14600808
-0.12143436
-0.046533153
0.020412171
0.046246392
0.054862373
0.055883056
0.041060234
0.030808453
0.026532673
-0.017972604
-0.80748498
-1.1937586
-1.6273444
-2.0726204
-2.4408656
-2.5424985
-2.2120299
-1.5136467
-0.79228776
-0.35168412
-0.1108675
0.041333577
0.12115101
0.15179213
0.15249769
0.13873426
0.1201028
0.10264738
0.08995374
0.083377007
0.08303948
0.08818431
0.097337072
0.10888205
0.12157209
0.1345739
0.14667212
0.15719824
0.16703841
0.17431008
0.17992532
0.18426573
0.18756324
0.19033663
0.19235889
0.19449058
0.19584779
0.19795382
0.19933117
-0.65839835
-0.34810926
-0.11739626
0.041614971
0.13918561
0.18808148
0.20167272
0.18905822
0.15766449
0.11066392
0.043160461
-0.053340113
-0.096119767
-0.11229036
-0.092123259
-0.031566694
0.023630404
0.045764177
0.052767537
0.052765499
0.039821191
0.03083907
0.025330047
-0.015718709
-1.0466133
-1.518127
-2.0684111
-2.6469868
-3.0348494
-2.9187405
-2.2316749
-1.2913667
-0.63480915
-0.27590977
-0.08352764
0.029818543
0.083320578
0.099265956
0.095140816
0.08213046
0.068084938
0.057279497
0.052012606
0.052904506
0.05963803
0.070992855
0.085132622
0.10059444
0.11652933
0.13177474
0.14581954
0.15881733
0.16851124
0.17603909
0.1817949
0.18626967
0.18965984
0.19249046
0.19453216
0.19666224
0.19797989
0.20006555
0.20139645
-0.90650068
-0.52562571
-0.23977306
-0.03617392
0.098428902
0.17788374
0.2151535
0.22273634
0.20667962
0.17525305
0.12856437
0.062418135
-0.029851632
-0.068518809
-0.082874252
-0.065500688
-0.017620663
0.026439733
0.045105816
0.050649784
0.04988881
0.038425165
0.030339869
0.024410657
-0.013175229
-1.3947531
-2.0213645
-2.8019467
-3.5187128
-3.7128595
-3.1543793
-2.0135957
-1.0390793
-0.49947711
-0.22455038
-0.078354812
0.0015589351
0.034871216
0.041873582
0.036143708
0.026171052
0.018075759
0.014539665
0.01695442
0.025458343
0.039131503
0.056124405
0.07458762
0.093683652
0.11249211
0.13084897
0.14765736
0.16038502
0.17028458
0.17791851
0.18380095
0.18836848
0.19182386
0.19468672
0.19672375
0.1988354
0.20011032
0.20216579
0.20344995
-1.2661219
-0.77342476
-0.41294981
-0.15253978
0.026103102
0.14061838
0.20603354
0.23491401
0.23642762
0.22119941
0.18819863
0.1422967
0.073313834
-0.0051720415
-0.04430901
-0.056550155
-0.042326735
-0.0054035524
0.02903023
0.044360762
0.048614279
0.047545195
0.037093157
0.029835456
0.02367178
-0.01055793
-1.94362
-2.9012432
-3.9855347
-4.5745374
-4.2865798
-3.0035829
-1.6467494
-0.80307282
-0.40229802
-0.2000827
-0.093322249
-0.040479788
-0.020649385
-0.018523299
-0.023009718
-0.028085557
-0.029341613
-0.025145085
-0.0146823
0.001460794
0.021383544
0.043058386
0.065498671
0.088226728
0.11175033
0.13305918
0.14946204
0.16229294
0.17223667
0.1799673
0.18592887
0.19055841
0.19404951
0.19691543
0.19892475
0.20101212
0.20223641
0.20425286
0.20549105
-1.8501273
-1.1339447
-0.6557619
-0.31939929
-0.08450712
0.072473075
0.1710374
0.2264727
0.24969795
0.24840092
0.23069272
0.19809249
0.14657775
0.083953504
0.015829863
-0.022720493
-0.033485919
-0.022540013
0.005061119
0.031424652
0.043640487
0.046707341
0.045488564
0.036190356
0.029068464
0.022920505
-0.0080137685
-2.9402702
-4.3886678
-5.4777741
-5.6122283
-4.291618
-2.5299584
-1.2560664
-0.63254277
-0.34381399
-0.19926754
-0.12596056
-0.092626584
-0.080995741
-0.080250355
-0.081050257
-0.079934536
-0.073632584
-0.061057063
-0.042302352
-0.019311977
0.0055336454
0.031450732
0.058411523
0.088008966
0.11452194
0.13529036
0.15163174
0.16440919
0.17439302
0.18216832
0.18817508
0.19283272
0.19632457
0.19916413
0.20114301
0.20318606
0.20435556
0.20632482
0.20751944
-2.9132662
-1.7373587
-1.0123607
-0.5549704
-0.24475352
-0.033289023
0.10599283
0.19303246
0.24104145
0.25843365
0.25391039
0.23888155
0.19913141
0.15074918
0.092830282
0.032583145
-0.0030972884
-0.013651308
-0.0061730254
0.013975201
0.033629988
0.042991386
0.044947801
0.042873923
0.03539301
0.02800747
0.022090765
-0.0056393153
-4.6506836
-6.3153669
-7.0186451
-5.8661013
-3.7284778
-1.9318495
-0.95758068
-0.52572985
-0.31617859
-0.22043983
-0.17238664
-0.15214852
-0.14424786
-0.14173423
-0.13710696
-0.12870846
-0.11384697
-0.092377699
-0.066225475
-0.038187928
-0.0089140581
0.022526453
0.059134434
0.091564088
0.11742126
0.13788754
0.1540395
0.1667651
0.17673461
0.18451804
0.19053205
0.1951767
0.19863501
0.20144308
0.2033702
0.20535465
0.20646361
0.20838
0.20953495
-4.7090946
-2.821937
-1.6127233
-0.90364664
-0.47262863
-0.18737893
0.004114062
0.12993453
0.20742055
0.24702768
0.26000745
0.25990392
0.23409222
0.20020867
0.15349327
0.099554863
0.04638809
0.013710026
0.0028774017
0.007198577
0.021464247
0.03563526
0.042414582
0.043293126
0.040300203
0.034260297
0.026842345
0.021072819
-0.0035110776
-6.9509657
-8.3590664
-7.6317297
-5.2469452
-2.8708824
-1.4264868
-0.77218189
-0.46114245
-0.31709696
-0.26043541
-0.22920215
-0.21675906
-0.20847673
-0.20180438
-0.19033063
-0.17317455
-0.14888447
-0.11953347
-0.088351562
-0.055897607
-0.01984909
0.024686964
0.063725134
0.095424434
0.1206531
0.14075268
0.15672106
0.16934122
0.17925813
0.18700799
0.19298312
0.19757503
0.2009957
0.20374
0.20560291
0.20751246
0.20855649
0.21041727
0.21153653
-7.3547757
-4.641609
-2.677804
-1.4832751
-0.81105868
-0.40762444
-0.14457581
0.030801225
0.14446574
0.21101164
0.24546238
0.26636175
0.25808116
0.23441169
0.19913721
0.15433319
0.10432707
0.057360236
0.027480042
0.016275104
0.018048065
0.02765351
0.037395642
0.041890436
0.041730827
0.038308244
0.032898184
0.025550957
0.019852296
-0.0016166087
-9.4773006
-9.365348
-7.0139498
-4.0917371
-2.0783036
-1.1126392
-0.65524762
-0.43229926
-0.34246206
-0.31521329
-0.29366029
-0.2840571
-0.27213043
-0.25932244
-0.23909964
-0.21188236
-0.17929385
-0.14511071
-0.10971503
-0.069170661
-0.015690784
0.030592339
0.06889162
0.099537012
0.12418195
0.14392198
0.15965958
0.17213462
0.18195464
0.1896201
0.19551406
0.2000458
0.20338954
0.20605191
0.2078327
0.20965336
0.21063379
0.21243588
0.21352115
-10.19567
-7.5088386
-4.5071639
-2.5016427
-1.3631008
-0.73408229
-0.35774356
-0.11379181
0.046412984
0.1463835
0.20685821
0.25298569
0.26434287
0.25631521
0.23126046
0.1964139
0.15329958
0.10719343
0.065514767
0.038373016
0.027016611
0.026733712
0.032662141
0.038867653
0.041372664
0.040304684
0.036549466
0.031420998
0.024159928
0.018335007
0.00038883749
-10.793515
-8.8096747
-5.5438042
-2.9251426
-1.5686271
-0.91448239
-0.58700074
-0.43558127
-0.38696745
-0.38120416
-0.36287572
-0.35188461
-0.33375172
-0.31218832
-0.28146116
-0.24551379
-0.20848747
-0.17052077
-0.12561075
-0.062373335
-0.008192929
0.037457346
0.07417128
0.1039768
0.12803909
0.1473843
0.16285024
0.17513583
0.18480603
0.19234367