/*--------------------------------*- C++ -*----------------------------------*\
| =========                 |                                                 |
| \\      /  F ield         | OpenFOAM: The Open Source CFD Toolbox           |
|  \\    /   O peration     | Version:  v2012                                 |
|   \\  /    A nd           | Website:  www.openfoam.com                      |
|    \\/     M anipulation  |                                                 |
\*---------------------------------------------------------------------------*/
FoamFile
{
    version     2.0;
    format      ascii;
    class       surfaceScalarField;
    location    "103.560800180950793";
    object      phi;
}
// * * * * * * * * * * * * * * * * * * * * * * * * * * * * * * * * * * * * * //

dimensions      [0 3 -1 0 0 0 0];
oriented        oriented;


internalField   nonuniform List<scalar> 
18180
(
-0.0033852964
-3.6089012
-0.0070259106
-3.3734126
-0.0024050517
-3.6495142
-0.011110977
-3.1531913
-0.005034005
-3.4099884
-0.0014036362
-3.691474
-0.015989997
-2.9486093
-0.0080549039
-3.1865531
-0.0029977362
-3.4490606
-0.0003350886
-3.7332146
-0.021905867
-2.7590398
-0.011741407
-2.9796891
-0.0048905461
-3.2231622
-0.00082777294
-3.4887163
0.00065078949
-3.7747432
-0.029128686
-2.5825813
-0.016270792
-2.7884434
-0.0072709723
-3.0140428
-0.0015089237
-3.2606846
0.001221802
-3.5279739
0.0014485077
-3.8150486
-0.037940088
-2.4173961
-0.021827033
-2.6105398
-0.010268325
-2.8205146
-0.0024913291
-3.0489397
0.0017014393
-3.2976744
0.0029691266
-3.5664389
0.0020533186
-3.8546229
-0.048628596
-2.261922
-0.028551345
-2.4434936
-0.013989407
-2.6399115
-0.0038740457
-2.8522073
0.0020762102
-3.0829617
0.0044766603
-3.3339337
0.0043027652
-3.6043146
0.002445858
-3.8929855
-0.061502571
-2.1151357
-0.036545413
-2.2853571
-0.018495556
-2.4695752
-0.0057148983
-2.667732
0.0022496021
-2.8823418
0.0060648419
-3.1164843
0.0066487814
-3.3702001
0.0051708191
-3.6415033
0.0026111478
-3.9307223
-0.076864288
-1.97663
-0.045852319
-2.1355656
-0.023784392
-2.3083667
-0.0080499771
-2.4938875
0.0021922466
-2.6944371
0.0076564331
-2.9132095
0.0092665558
-3.1511882
0.008137675
-3.4064271
0.0055665351
-3.6780017
0.0025572517
-3.9671162
-0.09499497
-1.8460687
-0.056444352
-1.9941725
-0.029781316
-2.1561878
-0.010849556
-2.3302335
0.0018459423
-2.5180026
0.0092174875
-2.7228926
0.012105626
-2.9462334
0.011574268
-3.1866719
0.0089235534
-3.4422329
0.0055126443
-3.7133025
0.0023049575
-4.0021561
-0.11624184
-1.7229443
-0.068213827
-1.8609353
-0.03632999
-2.0128978
-0.014014647
-2.1763463
0.0012122512
-2.352309
0.010657736
-2.5443024
0.015126571
-2.7545186
0.015469408
-2.9810985
0.012950594
-3.2221762
0.0090247535
-3.4769385
0.0050475843
-3.7470916
0.0018765738
-4.0350639
-0.14107808
-1.6066533
-0.081021288
-1.7353642
-0.043200941
-1.878139
-0.017357036
-2.0318539
0.00031706041
-2.196993
0.011896476
-2.3769255
0.018213987
-2.5746872
0.019802795
-2.7889104
0.017693218
-3.0164435
0.013399753
-3.2567335
0.0084831897
-3.5101127
0.0042205637
-3.77884
0.0012973142
-4.0656709
-0.16996057
-1.4966056
-0.094710951
-1.6168591
-0.050044192
-1.7514599
-0.020588344
-1.8962953
-0.00074322438
-2.0514945
0.01285323
-2.2200692
0.021216029
-2.4057261
0.024452552
-2.6084095
0.023173288
-2.8242001
0.018751535
-3.0509579
0.012951802
-3.2897268
0.0073566411
-3.5412511
0.0030874756
-3.8082293
0.00056732046
-4.093411
-0.20324636
-1.3922957
-0.10906038
-1.5048842
-0.056343032
-1.6324048
-0.023303603
-1.7692248
-0.0018053473
-1.9151745
0.013460115
-2.0731586
0.023939141
-2.2470108
0.029232152
-2.4382505
0.029298485
-2.6434998
0.025165808
-2.858798
0.018638906
-3.0839471
0.011658488
-3.3207347
0.0057173473
-3.5700446
0.0017030728
-3.8349808
-0.00022922638
-4.118351
-0.24105528
-1.2931162
-0.12380549
-1.3989671
-0.061462548
-1.5205517
-0.024984445
-1.6502698
-0.0026295338
-1.7875699
0.01367087
-1.9355846
0.026157754
-2.0981101
0.033877574
-2.2777244
0.035896309
-2.4727706
0.032615495
-2.6781885
0.0257089
-2.8918296
0.017374689
-3.1149569
0.0095960069
-3.3494054
0.0036547913
-3.596171
0.00014716596
-3.8589613
-0.0010249916
-4.1403023
-0.28261543
-1.1979536
-0.13857128
-1.2986048
-0.064678504
-1.4155171
-0.025014921
-1.539112
-0.0029006349
-1.668327
0.013464528
-1.806741
0.027620858
-1.9584601
0.038056871
-2.1265563
0.042693746
-2.310854
0.040991116
-2.507144
0.034227574
-2.7112554
0.024753596
-2.9228856
0.015015289
-3.1437028
0.0068693034
-3.37543
0.0012749261
-3.6195009
-0.0015304074
-3.8800397
-0.0018480372
-4.1594123
-0.32594993
-1.1054188
-0.15234366
-1.2033195
-0.065114718
-1.3169524
-0.022709704
-1.4354567
-0.002235581
-1.5572025
0.012846254
-1.6862631
0.028059724
-1.827463
0.041376612
-1.9843082
0.049327239
-2.1575201
0.050074161
-2.3443955
0.044188483
-2.5403627
0.033968107
-2.7425651
0.022300443
-2.951889
0.011665072
-3.1698817
0.0036110096
-3.3986268
-0.0013122646
-3.639982
-0.0032415088
-3.8982593
-0.002648966
-4.1756742
-0.36839516
-1.0153333
-0.16330094
-1.1125297
-0.061691501
-1.2245823
-0.017362276
-1.3389898
-0.00020130482
-1.4539758
0.011840078
-1.5739008
0.027194455
-1.7046385
0.043394466
-1.8504521
0.055346977
-2.0126825
0.059542838
-2.1896191
0.0554798
-2.3775176
0.045140844
-2.5721798
0.031731484
-2.7720138
0.018423847
-2.9784279
0.0074804641
-3.1932788
-1.3212505e-05
-3.4189629
-0.0039934511
-3.6576395
-0.0049137264
-3.9137574
-0.0034030738
-4.1893986
-0.40760327
-0.92948447
-0.16960941
-1.0260676
-0.05293465
-1.1382198
-0.0085539723
-1.2491599
0.0037019075
-1.3584229
0.010484393
-1.4694614
0.024736909
-1.5897021
0.043633598
-1.7244806
0.060233591
-1.8759158
0.068974477
-2.0427533
0.067884853
-2.222195
0.058306678
-2.4100806
0.043570308
-2.6025618
0.027517231
-2.7992463
0.013285657
-3.0023249
0.00266716
-3.2137708
-0.0038482873
-3.4363848
-0.0066536179
-3.6725542
-0.00649305
-3.9266993
-0.0040880806
-4.2006922
-0.44139977
-0.84932698
-0.17064321
-0.94451186
-0.037601308
-1.0574658
0.0047802499
-1.1664366
0.0098492939
-1.2698921
0.0088452606
-1.3727665
0.020402497
-1.4824466
0.041601117
-1.6060422
0.063417913
-1.7467166
0.077860559
-1.9036596
0.081074711
-2.0744719
0.073403949
-2.2555443
0.058021695
-2.4419855
0.039337455
-2.6311101
0.021459355
-2.8240159
0.007133552
-3.0233106
-0.002526486
-3.2312909
-0.0077085657
-3.4509605
-0.0091892885
-3.6848887
-0.0079316645
-3.9373086
-0.0046866816
-4.2098599
-0.46846122
-0.77584911
-0.16624212
-0.86885152
-0.015246492
-0.98210142
0.023248229
-1.0899723
0.018735852
-1.1889884
0.0075400766
-1.2837258
0.013880442
-1.3826656
0.0368049
-1.4948892
0.064308434
-1.6246616
0.085630721
-1.7718479
0.094615948
-1.9341407
0.090254059
-2.1082547
0.075217898
-2.2892455
0.054261853
-2.4725446
0.032492952
-2.6573576
0.01383323
-2.845936
0.00029563605
-3.0412549
-0.0078654699
-3.2457931
-0.011427058
-3.4628194
-0.011514289
-3.6948618
-0.0091940776
-3.9457762
-0.0051888527
-4.2170679
-0.48840297
-0.70965807
-0.15651989
-0.79980199
0.013580528
-0.91211882
0.047344841
-1.0194351
0.030772739
-1.1147891
0.0057767124
-1.2015399
0.0050857952
-1.2904888
0.028759348
-1.3907982
0.062313229
-1.5094419
0.091684711
-1.6467753
0.10798915
-1.8007139
0.10855491
-1.967983
0.095186511
-2.1436735
0.072640182
-2.3223395
0.046913894
-2.5010525
0.023302922
-2.6808241
0.0050432758
-2.8646814
-0.0068711651
-3.0559429
-0.01307868
-3.2574035
-0.01486398
-3.4722123
-0.013564017
-3.7026803
-0.010258106
-3.952379
-0.0055927505
-4.2226526
-0.50157888
-0.65072024
-0.14193264
-0.73762758
0.047694308
-0.84759489
0.077132309
-0.95438459
0.046369272
-1.0469665
0.003762534
-1.1262861
-0.006510786
-1.2046714
0.016694358
-1.2936042
0.056878629
-1.4008333
0.095431647
-1.5280925
0.12061739
-1.6736458
0.1278806
-1.8342753
0.11782352
-2.0048955
0.094753702
-2.1796388
0.065282248
-2.3540078
0.036169512
-2.5269214
0.012245705
-2.7009564
-0.0043823795
-2.8799268
-0.013999199
-3.0674796
-0.017945551
-3.2663209
-0.017911237
-3.4793291
-0.015296947
-3.7086059
-0.011114061
-3.9573427
-0.0058993195
-4.2267787
-0.50929216
-0.59850104
-0.12352701
-0.68170299
0.085605057
-0.78848805
0.1117832
-0.89400439
0.065872628
-0.98502518
0.0016128291
-1.0575509
-0.021150162
-1.1255759
0.00064703076
-1.2028593
0.047427248
-1.2986316
0.096338856
-1.4155912
0.13191394
-1.5525028
0.14769498
-1.706523
0.14286887
-1.8724526
0.12077578
-2.0438175
0.088154038
-2.2150815
0.053151207
-2.3832251
0.022544226
-2.5492392
3.7685117e-06
-2.7172309
-0.013971115
-2.8916246
-0.020729821
-3.0759954
-0.022289229
-3.2727828
-0.020496297
-3.4844522
-0.016693407
-3.7128806
-0.01176312
-3.9609276
-0.0061127589
-4.229743
-0.51328331
-0.55234575
-0.10301009
-0.63083216
0.12512322
-0.73347216
0.14968791
-0.83746851
0.088940841
-0.92746281
-0.00063351028
-0.99476097
-0.039106971
-1.052753
-0.019898403
-1.1183724
0.033646588
-1.2026429
0.093964133
-1.309141
0.14132289
-1.4370842
0.16738284
-1.5842295
0.16989442
-1.7456766
0.15072537
-1.9142854
0.11604288
-2.0834428
0.075052511
-2.2486384
0.036718773
-2.4087645
0.0068688655
-2.5672391
-0.012691282
-2.7294593
-0.023138125
-2.8998879
-0.026780888
-3.0817826
-0.025987256
-3.2770507
-0.022582173
-3.487837
-0.017752918
-3.7157732
-0.012214936
-3.9633345
-0.0062404109
-4.2316977
-0.5149522
-0.5115797
-0.082033169
-0.58441539
0.16429124
-0.68158113
0.18865684
-0.7828693
0.11425857
-0.87248171
-0.0030242928
-0.93633091
-0.060684759
-0.98559778
-0.04531578
-1.03983
0.01514717
-1.1125922
0.087948775
-1.2086245
0.14834851
-1.327295
0.18625108
-1.4670698
0.19827672
-1.623894
0.18442117
-1.7903829
0.14936535
-1.9585368
0.10272581
-2.1222603
0.055727068
-2.2786014
0.016947165
-2.4294104
-0.0097550345
-2.5804942
-0.025051511
-2.7376537
-0.031448052
-2.9049642
-0.031950687
-3.0850793
-0.028973374
-3.2794614
-0.024163705
-3.4898003
-0.018490195
-3.7174932
-0.012485348
-3.9648072
-0.0062915213
-4.2329635
-0.51509094
-0.47539191
-0.06180156
-0.54222077
0.20203001
-0.633092
0.2273101
-0.73004907
0.14046129
-0.81812288
-0.0055471888
-0.88052399
-0.086116521
-0.9225938
-0.075926537
-0.96667886
-0.0084225131
-1.0281955
0.07807747
-1.1139013
0.15260695
-1.2231212
0.20358038
-1.3548955
0.22716023
-1.5065133
0.22136075
-1.6711497
0.18835725
-1.8395309
0.1370361
-2.0033471
0.080665976
-2.157799
0.031197832
-2.3030534
-0.0046200517
-2.4443701
-0.02629335
-2.5888631
-0.036359498
-2.7420249
-0.038574069
-2.9071771
-0.036124898
-3.0863189
-0.03123257
-3.2803375
-0.025261165
-3.4905563
-0.018931047
-3.718276
-0.012594239
-3.9655617
-0.0062762
-4.2336526
-0.51421209
-0.44295112
-0.043100524
-0.50385615
0.23757281
-0.58808322
0.26475363
-0.67976757
0.16696751
-0.76500773
-0.0059716359
-0.82759999
-0.11492818
-0.86270993
-0.11187908
-0.89757229
-0.037195824
-0.94911057
0.064302869
-1.0248529
0.15396557
-1.1246716
0.21883858
-1.2478651
0.25566737
-1.393322
0.26078978
-1.5556774
0.23292965
-1.7251927
0.17876566
-1.8910483
0.11276717
-2.0455679
0.050727066
-2.1872225
0.00332483
-2.3204659
-0.026609957
-2.4532438
-0.041577425
-2.5925416
-0.046090719
-2.7430045
-0.044322073
-2.9070145
-0.039270109
-3.085868
-0.03279126
-3.2799721
-0.025913412
-3.4903661
-0.019108503
-3.7183243
-0.012563416
-3.9657819
-0.0062048043
-4.2339474
-0.51256323
-0.41400484
-0.026441636
-0.4687624
0.27004416
-0.5460529
0.29997344
-0.63198308
0.19305635
-0.71375367
-0.005895735
-0.7743528
-0.14525594
-0.80759696
-0.15311788
-0.83168385
-0.070753
-0.87453895
0.04678392
-0.94133812
0.15258194
-1.0321177
0.23183438
-1.146422
0.28320974
-1.284742
0.30212068
-1.4438814
0.28306623
-1.6147172
0.22870327
-1.7842425
0.15340893
-1.9411896
0.076916533
-2.0812977
0.015105806
-2.2082473
-0.025580824
-2.3303732
-0.047150421
-2.4562334
-0.054776105
-2.5920673
-0.053923701
-2.7411664
-0.048626421
-2.9049755
-0.041419612
-3.0841127
-0.03370607
-3.278626
-0.026171323
-3.489426
-0.019059072
-3.7178262
-0.012415194
-3.9655769
-0.0060874003
-4.2338936
-0.51167937
-0.45818375
-0.012189465
-0.43683052
0.29890323
-0.50677483
0.33194519
-0.58618203
0.21708291
-0.66339559
-0.0090104991
-0.71930986
-0.17653887
-0.7527502
-0.2001359
-0.77011453
-0.10865184
-0.8036727
0.026205904
-0.86308043
0.14883993
-0.94554321
0.24260532
-1.0509592
0.30930741
-1.1813146
0.34473838
-1.3361261
0.33881846
-1.5080297
0.28818771
-1.6827128
0.2046934
-1.8443857
0.11169127
-1.9850142
0.031868288
-2.1070399
-0.022773031
-2.2196983
-0.053111332
-2.3326817
-0.064966597
-2.4539886
-0.065368017
-2.5881724
-0.059739685
-2.7371754
-0.051528173
-2.9015016
-0.042655136
-3.081345
-0.034053077
-3.2765604
-0.026091576
-3.4879566
-0.018820151
-3.7169056
-0.012171187
-3.9650721
-0.0059333628
-4.2336263
-0.5103594
-0.46215975
-0.0063226797
-0.47343149
0.32364251
-0.47016797
0.36016954
-0.5426621
0.23838403
-0.61439861
-0.015378668
-0.66513616
-0.20946734
-0.69544903
-0.24943016
-0.7123568
-0.15087845
-0.73718363
0.0036011857
-0.78961554
0.14337093
-0.86491593
0.25128936
-0.96165869
0.33325122
-1.0831983
0.38709881
-1.2320117
0.39862278
-1.4038591
0.35697
-1.5848075
0.26891131
-1.7552109
0.15836405
-1.8994993
0.05584809
-2.0175511
-0.017421978
-2.1208531
-0.059547374
-2.2213347
-0.077075345
-2.3282798
-0.079203536
-2.4475185
-0.073146156
-2.5817365
-0.063589258
-2.7315994
-0.053145819
-2.8970139
-0.043089414
-3.0778935
-0.033917618
-3.2739916
-0.025732212
-3.4860821
-0.018427891
-3.7156865
-0.011851473
-3.9643464
-0.005751186
-4.2331731
-0.5085217
-0.46698762
-0.0029901811
-0.47487846
0.3377998
-0.49694097
0.38447704
-0.50166663
0.25653739
-0.56729896
-0.023686174
-0.61367376
-0.24315684
-0.63992848
-0.29653738
-0.65665063
-0.19583448
-0.67614605
-0.020672667
-0.72093786
0.13712362
-0.79008666
0.258138
-0.8785997
0.35426667
-0.99050505
0.42684611
-1.1308808
0.45853434
-1.2994036
0.43054983
-1.4849661
0.3428575
-1.6665426
0.21813209
-1.822853
0.090553201
-1.9422623
-0.0075873425
-2.035631
-0.06636491
-2.122004
-0.091659771
-2.2142654
-0.096117231
-2.3185361
-0.089514345
-2.4379797
-0.078174256
-2.5735361
-0.065645831
-2.7250088
-0.053646102
-2.8918848
-0.042849471
-3.074006
-0.033387029
-3.2710887
-0.025149161
-3.4839457
-0.017915738
-3.7142688
-0.011474138
-3.9634872
-0.0055483362
-4.2325437
-0.5063598
-0.47225121
-0.0023910792
-0.47697449
0.34927741
-0.49575474
0.40211555
-0.52233902
0.2715138
-0.52273179
-0.033482911
-0.56459512
-0.27688801
-0.58786937
-0.34100541
-0.60322211
-0.24073143
-0.61998624
-0.046692266
-0.65767993
0.13082397
-0.72082236
0.26361158
-0.80183788
0.37184754
-0.90357817
0.46190164
-1.0331201
0.51453826
-1.1939286
0.50266351
-1.3786016
0.41855965
-1.5680343
0.28291097
-1.7387223
0.13332337
-1.8731392
0.0081242901
-1.965824
-0.07234505
-2.0374888
-0.10923368
-2.1118211
-0.11697802
-2.2003717
-0.10967015
-2.3050456
-0.095983786
-2.4264553
-0.080709569
-2.5643208
-0.066157065
-2.7178642
-0.053217532
-2.8864487
-0.042064911
-3.0698855
-0.032544964
-3.2679809
-0.024393829
-3.4816473
-0.017313636
-3.712744
-0.011055022
-3.9624897
-0.0053312629
-4.2317451
-0.50425279
-0.47753059
-0.0043175736
-0.47971123
0.35718557
-0.49431987
0.41756103
-0.51902046
0.28658336
-0.54394655
-0.044154516
-0.51869904
-0.30980636
-0.53908065
-0.3834173
-0.55271174
-0.28408528
-0.5676301
-0.073809081
-0.59998395
0.12448808
-0.65704088
0.26837155
-0.73133805
0.38593155
-0.82291435
0.49099414
-0.93987987
0.56409982
-1.0893011
0.57034073
-1.2682629
0.49213173
-1.459158
0.34527402
-1.6373911
0.17352354
-1.7859209
0.023444469
-1.8957975
-0.077925183
-1.9678046
-0.12994794
-2.0240517
-0.14283913
-2.0927733
-0.13461027
-2.1819133
-0.11786255
-2.2893267
-0.099000247
-2.4139402
-0.081122599
-2.5546965
-0.065402605
-2.7105847
-0.05205108
-2.8809087
-0.040858872
-3.065673
-0.031467722
-3.2647977
-0.023511882
-3.4792966
-0.016647646
-3.7111718
-0.01060768
-3.9614179
-0.0051053718
-4.2307624
-0.50216148
-0.48314733
-0.0082701156
-0.48296036
0.3610017
-0.49299876
0.43002528
-0.51465811
0.30051705
-0.53958368
-0.048551696
-0.54659133
-0.34131677
-0.49409208
-0.42345011
-0.50582907
-0.32509165
-0.51902902
-0.10077223
-0.5473692
0.11801173
-0.59875883
0.27299995
-0.66693865
0.39686199
-0.74888129
0.51368064
-0.85248174
0.60580505
-0.98779381
0.63213592
-1.1573392
0.56603948
-1.3487978
0.41107439
-1.5315903
0.21121554
-1.681633
0.029845594
-1.799133
-0.091678858
-1.8891678
-0.15579991
-1.9490478
-0.17517123
-1.9984582
-0.16568718
-2.0680299
-0.14478404
-2.1610014
-0.12129374
-2.2727154
-0.099121485
-2.4012458
-0.079827949
-2.5451787
-0.063662739
-2.7034197
-0.050326509
-2.875465
-0.039342558
-3.0614999
-0.030222345
-3.261628
-0.022542661
-3.4769752
-0.015939826
-3.70961
-0.010143438
-3.9602394
-0.004875168
-4.2296196
-0.49957353
-0.48956918
-0.014240756
-0.48655191
0.36056976
-0.49203019
0.43863304
-0.50953393
0.31235608
-0.5332148
-0.052382936
-0.54286753
-0.36656197
-0.52858733
-0.46108573
-0.46279907
-0.36330382
-0.4745278
-0.12660109
-0.49951587
0.11169227
-0.54588684
0.2778323
-0.6084113
0.40529522
-0.68162439
0.53011838
-0.77188951
0.6387651
-0.8912528
0.68642212
-1.0479178
0.63879449
-1.2363834
0.48710646
-1.4311283
0.26348648
-1.5900045
0.037231116
-1.6953418
-0.11725522
-1.7801875
-0.19238017
-1.85936
-0.2159318
-1.9149087
-0.20508544
-1.9652875
-0.17808264
-2.0405819
-0.14844133
-2.1394087
-0.12080647
-2.2562601
-0.096962943
-2.3889934
-0.077235844
-2.5360874
-0.0611979
-2.6965994
-0.048203841
-2.8702266
-0.03761238
-3.0574659
-0.028865866
-3.2585678
-0.021519085
-3.4747447
-0.01520847
-3.7080749
-0.0096716255
-3.9590054
-0.004644268
-4.2283076
-0.49633252
-0.49594298
-0.022660552
-0.49051477
0.35591567
-0.49142637
0.44254401
-0.50392149
0.3212028
-0.52518368
-0.055991191
-0.53679276
-0.38990857
-0.52682299
-0.49842142
-0.49789231
-0.39861623
-0.43400698
-0.15087499
-0.45620622
0.10592646
-0.49820437
0.28303435
-0.55549998
0.4119863
-0.62101108
0.54084287
-0.69862235
0.66249847
-0.80104767
0.73099178
-0.94126571
0.70524978
-1.1203423
0.56784093
-1.3231037
0.3306056
-1.5040165
0.064345677
-1.6230159
-0.14113328
-1.6776258
-0.2410153
-1.7378746
-0.26643434
-1.8152205
-0.25411443
-1.872036
-0.22006225
-1.9290566
-0.18153048
-2.0129073
-0.14685815
-2.1184831
-0.11731126
-2.2407312
-0.093122221
-2.3775863
-0.073720667
-2.527675
-0.058236185
-2.6902409
-0.045819804
-2.8653182
-0.035749094
-3.0536361
-0.027445333
-3.2556526
-0.02046809
-3.4726494
-0.014468421
-3.7066051
-0.0091997055
-3.9576845
-0.004415566
-4.2268621
-0.492176
-0.50234319
-0.033015563
-0.49494043
0.34654238
-0.49069313
0.44157613
-0.49849123
0.32630826
-0.51591109
-0.059683455
-0.5287455
-0.41095864
-0.52309498
-0.53296489
-0.49903844
-0.44376268
-0.45955786
-0.17311493
-0.41735595
0.1009456
-0.45532707
0.28871246
-0.50792061
0.41758849
-0.56668225
0.54662525
-0.632779
0.67701748
-0.71819493
0.76370922
-0.83882575
0.75874382
-1.0004234
0.64308056
-1.2012739
0.39983275
-1.3977441
0.10286614
-1.5480464
-0.15549886
-1.6144002
-0.29422753
-1.6302817
-0.32799411
-1.6823181
-0.31047938
-1.764897
-0.27172809
-1.8260871
-0.22257114
-1.8933223
-0.17803105
-1.9867445
-0.14136885
-2.0991624
-0.11167247
-2.2266092
-0.088133146
-2.3672941
-0.069604337
-2.5200692
-0.054968933
-2.6844515
-0.043286689
-2.8607523
-0.033818157
-3.0500532
-0.025998601
-3.2529634
-0.019411161
-3.4707267
-0.013731444
-3.7051961
-0.0087335708
-3.9563319
-0.0041912795
-4.2252881
-0.50863161
-0.48689871
-0.044893079
-0.49980209
0.33259666
-0.49056566
0.43612341
-0.49332508
0.32666356
-0.50580674
-0.063724475
-0.5191875
-0.42908888
-0.51801241
-0.56401734
-0.49891146
-0.48669788
-0.46306178
-0.21505499
-0.42339146
0.097193024
-0.41738085
0.29486655
-0.46518295
0.42259867
-0.5181953
0.54833202
-0.57408709
0.68292744
-0.64338858
0.78327183
-0.74245017
0.79482477
-0.88027807
0.70356297
-1.0663201
0.45768759
-1.2641977
0.13589747
-1.4359226
-0.1677353
-1.5412003
-0.35293489
-1.5611623
-0.40313364
-1.5607222
-0.37483338
-1.6237352
-0.32832081
-1.7139694
-0.27273655
-1.7811765
-0.21577189
-1.8604777
-0.16958411
-1.9631761
-0.13320294
-2.0819956
-0.10464386
-2.2141778
-0.082444187
-2.358251
-0.06515075
-2.51335
-0.051549896
-2.679231
-0.040693756
-2.8565895
-0.031871114
-3.0467679
-0.024555201
-3.2505152
-0.018365023
-3.4689914
-0.01300663
-3.7038771
-0.0082776999
-3.9549086
-0.0039731035
-4.22362
-0.5049362
-0.057906398
-0.51478778
-0.48026494
0.31430565
-0.49109743
0.42595508
-0.48853331
0.32182004
-0.49551156
-0.068251913
-0.50865399
-0.44375327
-0.51195907
-0.5906598
-0.49833814
-0.52659297
-0.46610857
-0.25660102
-0.42739294
0.072130991
-0.40216823
0.30165701
-0.42758757
0.42736448
-0.47490847
0.54684238
-0.52211619
0.68124668
-0.57677024
0.78952315
-0.65398204
0.81312926
-0.76584714
0.74418576
-0.92605401
0.49476081
-1.1081304
0.14667801
-1.2797812
-0.19443436
-1.4142902
-0.42174825
-1.4775069
-0.49311069
-1.4763462
-0.45652842
-1.4844155
-0.38742643
-1.5701252
-0.32652277
-1.6654086
-0.26148402
-1.7402924
-0.20276041
-1.8318541
-0.15792695
-1.9427534
-0.12340603
-2.0672592
-0.096841873
-2.2035402
-0.076413791
-2.3504909
-0.060567066
-2.5075007
-0.048098289
-2.6746049
-0.038109372
-2.8528223
-0.029947206
-3.0438141
-0.023137587
-3.2483409
-0.01734228
-3.4674506
-0.012300788
-3.7026005
-0.0078354606
-3.9534541
-0.0037622505
-4.2218623
-0.4922711
0.29204333
-0.51018191
-0.071809829
-0.52044651
-0.4723436
0.41103912
-0.48436765
0.31187414
-0.48568033
-0.073410356
-0.49777712
-0.454417
-0.50545761
-0.61214407
-0.49752887
-0.56221016
-0.46993376
-0.29698311
-0.43167914
0.047491065
-0.40665808
0.29049977
-0.39448176
0.43199689
-0.4368885
0.54311933
-0.47630571
0.67319247
-0.51810968
0.78392655
-0.57519124
0.81591985
-0.66159944
0.76289741
-0.78946421
0.51071911
-0.94643203
0.13963981
-1.1055675
-0.23750063
-1.241483
-0.50078867
-1.3400587
-0.59404271
-1.3813647
-0.55677909
-1.3810732
-0.46028326
-1.4167486
-0.37736364
-1.5244327
-0.3107809
-1.6209503
-0.24218806
-1.7053647
-0.18611345
-1.8079084
-0.14446004
-1.9256853
-0.11281264
-2.0549997
-0.088744657
-2.1946756
-0.070315453
-2.3439637
-0.056009014
-2.5024989
-0.044702676
-2.670543
-0.035584136
-2.8494891
-0.028075297
-3.0411843
-0.021762148
-3.2464183
-0.016352136
-3.466068
-0.011618889
-3.7013848
-0.007409216
-3.9519297
-0.0035595775
-4.2200479
-0.48107278
0.39160591
-0.49372674
0.26598416
-0.5154756
-0.086056651
-0.52544283
-0.46321472
0.29723674
-0.476879
-0.079181787
-0.48737304
-0.46065504
-0.49902992
-0.6279221
-0.49680446
-0.59217615
-0.47488178
-0.33530521
-0.43763106
0.023187639
-0.41133802
0.28209114
-0.40182153
0.42053816
-0.38775741
0.53774124
-0.43631871
0.66036942
-0.46723494
0.76903066
-0.50693183
0.80591605
-0.56975961
0.76058011
-0.66394945
0.50813158
-0.79099292
0.11888845
-0.92984154
-0.28655591
-1.0610038
-0.57864814
-1.1681495
-0.6934763
-1.2450803
-0.66211263
-1.2806246
-0.55275357
-1.2934256
-0.43396251
-1.365104
-0.3543318
-1.4857184
-0.28554942
-1.5820915
-0.2185503
-1.6771199
-0.16773767
-1.788583
-0.13026449
-1.9119208
-0.10205044
-2.0451139
-0.080704799
-2.18747
-0.064347846
-2.3385876
-0.051588366
-2.4982814
-0.041426155
-2.6670324
-0.033153675
-2.8465411
-0.026275617
-3.038877
-0.020440398
-3.2447448
-0.015401008
-3.4648449
-0.0109643
-3.7001589
-0.0070005922
-3.9503821
-0.0033656135
-4.2181818
-0.46970515
0.27867309
-0.47830529
0.36790157
-0.49611488
0.23701702
-0.52049825
-0.10025473
-0.52962544
-0.45301283
-0.085311466
-0.47824376
-0.46230215
-0.49323153
-0.63757556
-0.49655595
-0.61572599
-0.48066352
-0.37087466
-0.44538943
-0.0011488246
-0.41730685
0.27530683
-0.40822834
0.41358875
-0.39971412
0.51413542
-0.36899035
0.64389634
-0.42332478
0.74759811
-0.44924713
0.78531882
-0.49066101
0.74069659
-0.55430769
0.49038548
-0.65002938
0.088565582
-0.76453249
-0.33704599
-0.883587
-0.65261183
-0.99130562
-0.78278138
-1.0829957
-0.75998346
-1.1514651
-0.65058631
-1.1872533
-0.50789339
-1.2241351
-0.39459358
-1.329561
-0.32372201
-1.4520951
-0.25463531
-1.5502148
-0.19341679
-1.655368
-0.14895782
-1.7735685
-0.11613741
-1.9012414
-0.091563646
-2.0373932
-0.072968185
-2.1817727
-0.058647343
-2.3342571
-0.047380752
-2.4947859
-0.038310795
-2.664019
-0.030841625
-2.843988
-0.02456152
-3.0368629
-0.019179837
-3.2433005
-0.014493015
-3.4637006
-0.010339227
-3.6989465
-0.0066105346
-3.9487785
-0.0031806671
-4.2162879
-0.47101576
-0.09151435
-0.4649613
0.25809537
-0.47729491
0.34075251
-0.49896826
0.20588314
-0.52511939
-0.11399185
-0.53286859
-0.44190426
-0.45944759
-0.48860883
-0.6408425
-0.49718099
-0.632272
-0.48748912
-0.40299622
-0.45466774
-0.025110715
-0.42548359
0.26894047
-0.41470639
0.41071609
-0.41029809
0.49468285
-0.38521374
0.60677106
-0.33534
0.72123113
-0.40016689
0.75675147
-0.42476843
0.70801305
-0.46217687
0.46063423
-0.52810697
0.052315972
-0.61736051
-0.38545533
-0.7201189
-0.71817159
-0.82205234
-0.86034937
-0.9176052
-0.84376861
-1.0031614
-0.73851279
-1.0676742
-0.59021045
-1.1092286
-0.44549117
-1.1777275
-0.35241587
-1.3054152
-0.28798434
-1.4229996
-0.2215612
-1.525974
-0.1686386
-1.6393484
-0.13068268
-1.7624377
-0.10262649
-1.8933084
-0.081645901
-2.0315897
-0.06569453
-2.1774079
-0.05330047
-2.3308474
-0.043433144
-2.4919267
-0.035382279
-2.6614702
-0.028662131
-2.8417688
-0.022940891
-3.0351433
-0.017984841
-3.2420268
-0.013630575
-3.4626312
-0.0097448123
-3.6976989
-0.0062395403
-3.9471566
-0.0030048367
-4.21437
-0.48535079
-0.45261824
-0.46721426
-0.096783952
-0.46233048
0.23587057
-0.47735518
0.31076836
-0.50217546
0.17334253
-0.52921198
-0.1268572
-0.53512172
-0.43014885
-0.6377398
-0.49894495
-0.64142402
-0.49555609
-0.43030036
-0.46634911
-0.048385241
-0.43548718
0.26227568
-0.42266548
0.41112264
-0.42014177
0.47979923
-0.40044997
0.57184814
-0.35387413
0.67725824
-0.29457136
0.72190638
-0.36917861
0.66698726
-0.38771179
0.42199798
-0.42683331
0.013158719
-0.49227067
-0.42946157
-0.577124
-0.77174611
-0.6703448
-0.92218818
-0.76381236
-0.91009384
-0.85495012
-0.81058896
-0.93493373
-0.66496444
-0.99688825
-0.50741421
-1.0514741
-0.38204353
-1.1524815
-0.31068596
-1.286966
-0.24907024
-1.3993863
-0.18923187
-1.5090079
-0.14524558
-1.6281975
-0.11352439
-1.7546852
-0.090072344
-1.8877491
-0.072474187
-2.0274373
-0.058976593
-2.1741833
-0.048355418
-2.3282297
-0.039770509
-2.4896305
-0.032653644
-2.6593263
-0.026622151
-2.8398855
-0.021417429
-3.033642
-0.016857419
-3.2408933
-0.012814633
-3.461577
-0.0091815011
-3.6964515
-0.0058876871
-3.9454935
-0.002838087
-4.2124481
-0.50179496
-0.62852644
-0.48508711
-0.44224103
-0.46450936
-0.10212747
-0.4608141
0.2120554
-0.47828997
0.27847324
-0.50559544
0.14014107
-0.53264583
-0.1385209
-0.53634926
-0.41810281
-0.64286665
-0.50505488
-0.4510163
-0.48103221
-0.070847256
-0.44801493
0.25547721
-0.43260697
0.4131854
-0.42982909
0.46960255
-0.41504954
0.5399186
-0.37219813
0.63245068
-0.31239316
0.68005345
-0.2565505
0.61996676
-0.32588323
0.37724067
-0.34600819
-0.027005586
-0.38974983
-0.46766092
-0.45762905
-0.81114392
-0.54131654
-0.96637353
-0.62950463
-0.95789281
-0.71942088
-0.86578514
-0.80334376
-0.72539777
-0.87817422
-0.56717239
-0.94094747
-0.42138076
-1.0162314
-0.32568665
-1.1416484
-0.26868821
-1.2712382
-0.20971118
-1.3824914
-0.15942791
-1.4982137
-0.12377726
-1.6211048
-0.097855279
-1.749791
-0.078657968
-1.8841842
-0.064138231
-2.024665
-0.052857167
-2.1719154
-0.043831774
-2.3262834
-0.036401577
-2.4878189
-0.03012866
-2.6575477
-0.024723175
-2.8382413
-0.019991759
-3.0323416
-0.015797678
-3.2398347
-0.01204518
-3.460561
-0.0086490945
-3.695156
-0.0055548036
-3.943827
-0.0026802612
-4.2105226
-0.51565769
-0.63655887
-0.50774817
-0.6130772
-0.48481027
-0.42942197
-0.4630399
-0.10741361
-0.46010155
0.18659494
-0.47989536
0.24432768
-0.50907554
0.1070017
-0.53526042
-0.14877756
-0.53655824
-0.40619165
-0.46390047
-0.49838138
-0.091154495
-0.46488501
0.24829653
-0.4448154
0.41582195
-0.44040228
0.46383312
-0.42921839
0.51181734
-0.39070589
0.58769839
-0.33088767
0.63412341
-0.27041689
0.58824708
-0.22850224
0.32919625
-0.28067423
-0.06750506
-0.30836968
-0.4988586
-0.36190897
-0.83590599
-0.43625491
-0.99292205
-0.51787565
-0.98830609
-0.60225266
-0.90526844
-0.68328892
-0.77111618
-0.76103473
-0.61642916
-0.83241105
-0.46426058
-0.90182207
-0.34405995
-1.0018149
-0.27687874
-1.137287
-0.22583593
-1.2586454
-0.17281489
-1.3724324
-0.13283423
-1.4923006
-0.10452413
-1.6173455
-0.083851094
-1.7472399
-0.068454609
-1.8822485
-0.056664845
-2.0230211
-0.047343069
-2.1704326
-0.039728809
-2.3249034
-0.033323368
-2.4864203
-0.027804313
-2.6560494
-0.022962941
-2.8368249
-0.018662137
-3.0311455
-0.014804508
-3.2388504
-0.011321364
-3.4595203
-0.0081470545
-3.6938457
-0.0052404531
-3.9421332
-0.0025310809
-4.2086105
-0.51726534
-0.4685113
-0.52885764
-0.62298533
-0.51289111
-0.59217358
-0.4858679
-0.41405708
-0.46288189
-0.11212419
-0.4603865
0.15983498
-0.48206088
0.20883677
-0.51245225
0.074645294
-0.53691615
-0.15756985
-0.53581378
-0.39484848
-0.10809945
-0.48562698
0.24008149
-0.46070647
0.41883876
-0.45303564
0.46119657
-0.44296426
0.48815807
-0.40938218
0.54427693
-0.35082655
0.58522126
-0.28604847
0.54838634
-0.23434584
0.33075092
-0.2328384
-0.10214675
-0.24870193
-0.52121795
-0.28917394
-0.84654837
-0.35445911
-1.0030859
-0.4289751
-1.0041131
-0.50499842
-0.93098878
-0.57966355
-0.8040026
-0.65357087
-0.65425205
-0.72640971
-0.50181688
-0.79826862
-0.36857112
-0.88097632
-0.28022102
-1.0021638
-0.23205526
-1.1345456
-0.18377213
-1.250939
-0.14021529
-1.368135
-0.10953618
-1.4901933
-0.087605981
-1.616258
-0.071544832
-1.7465546
-0.059457337
-1.8816075
-0.050037365
-2.0222764
-0.042416683
-2.1695899
-0.03603176
-2.3239811
-0.030525006
-2.4853527
-0.025673092
-2.6547881
-0.02133633
-2.8355309
-0.017425383
-3.0300604
-0.013875791
-3.2378864
-0.010641905
-3.4584759
-0.0076744679
-3.6924884
-0.0049439287
-3.9404482
-0.0023900047
-4.2067104
-0.50875969
-0.12082528
-0.53783029
-0.46575703
-0.54023422
-0.60313835
-0.51841747
-0.56675104
-0.48820161
-0.396181
-0.46403874
-0.11593036
-0.46186274
0.13242804
-0.48473997
0.17262261
-0.51554312
0.043749023
-0.53750924
-0.16500926
-0.53423617
-0.38443609
0.23049787
-0.48012755
0.4206102
-0.46771212
0.45956296
-0.45662611
0.46928967
-0.42797008
0.50326451
-0.37199641
0.53504807
-0.3048117
0.50274695
-0.2442939
0.31690099