/*--------------------------------*- C++ -*----------------------------------*\
| =========                 |                                                 |
| \\      /  F ield         | OpenFOAM: The Open Source CFD Toolbox           |
|  \\    /   O peration     | Version:  v2012                                 |
|   \\  /    A nd           | Website:  www.openfoam.com                      |
|    \\/     M anipulation  |                                                 |
\*---------------------------------------------------------------------------*/
FoamFile
{
    version     2.0;
    format      ascii;
    class       pointVectorField;
    location    "103.560800180950793";
    object      pointDisplacement;
}
// * * * * * * * * * * * * * * * * * * * * * * * * * * * * * * * * * * * * * //

dimensions      [0 1 0 0 0 0 0];


internalField   nonuniform List<vector> 
18840
(
(0.99641416 0 0)
(0.99642047 0 0)
(0.99643925 0 0)
(0.99647015 0 0)
(0.99651272 0 0)
(0.99656608 0 0)
(0.9966292 0 0)
(0.99670075 0 0)
(0.99677927 0 0)
(0.99686298 0 0)
(0.99694998 0 0)
(0.99703821 0 0)
(0.99712538 0 0)
(0.99720897 0 0)
(0.99728628 0 0)
(0.99735453 0 0)
(0.99741062 0 0)
(0.99745125 0 0)
(0.99747261 0 0)
(0.99747021 0 0)
(0.997416 0 0)
(0.99641416 0 0)
(0.99641991 0 0)
(0.99643705 0 0)
(0.9964652 0 0)
(0.99650392 0 0)
(0.99655245 0 0)
(0.99660972 0 0)
(0.99667454 0 0)
(0.99674536 0 0)
(0.9968206 0 0)
(0.99689832 0 0)
(0.99697654 0 0)
(0.99705296 0 0)
(0.99712522 0 0)
(0.99719061 0 0)
(0.9972464 0 0)
(0.99728955 0 0)
(0.99731687 0 0)
(0.99732469 0 0)
(0.99730892 0 0)
(0.99723783 0 0)
(0.99641416 0 0)
(0.99641933 0 0)
(0.99643471 0 0)
(0.99645999 0 0)
(0.99649464 0 0)
(0.99653801 0 0)
(0.99658904 0 0)
(0.99664654 0 0)
(0.99670901 0 0)
(0.99677487 0 0)
(0.99684219 0 0)
(0.99690901 0 0)
(0.99697303 0 0)
(0.99703188 0 0)
(0.9970829 0 0)
(0.99712333 0 0)
(0.99715019 0 0)
(0.99716033 0 0)
(0.99715045 0 0)
(0.9971171 0 0)
(0.99702646 0 0)
(0.99641416 0 0)
(0.99641869 0 0)
(0.99643218 0 0)
(0.99645431 0 0)
(0.99648459 0 0)
(0.9965223 0 0)
(0.9965665 0 0)
(0.99661593 0 0)
(0.99666916 0 0)
(0.9967245 0 0)
(0.99678012 0 0)
(0.99683391 0 0)
(0.99688364 0 0)
(0.99692681 0 0)
(0.99696077 0 0)
(0.99698265 0 0)
(0.99698944 0 0)
(0.99697789 0 0)
(0.99694468 0 0)
(0.99688629 0 0)
(0.99676664 0 0)
(0.99641416 0 0)
(0.996418 0 0)
(0.99642943 0 0)
(0.99644817 0 0)
(0.99647369 0 0)
(0.99650534 0 0)
(0.99654211 0 0)
(0.99658277 0 0)
(0.99662584 0 0)
(0.99666961 0 0)
(0.99671219 0 0)
(0.99675143 0 0)
(0.996785 0 0)
(0.99681031 0 0)
(0.99682462 0 0)
(0.9968249 0 0)
(0.99680801 0 0)
(0.99677052 0 0)
(0.99670893 0 0)
(0.99661949 0 0)
(0.99646465 0 0)
(0.99641416 0 0)
(0.99641726 0 0)
(0.99642647 0 0)
(0.99644156 0 0)
(0.99646203 0 0)
(0.99648717 0 0)
(0.99651601 0 0)
(0.99654725 0 0)
(0.9965794 0 0)
(0.99661066 0 0)
(0.9966391 0 0)
(0.99666243 0 0)
(0.99667826 0 0)
(0.99668384 0 0)
(0.9966763 0 0)
(0.99665242 0 0)
(0.99660886 0 0)
(0.99654197 0 0)
(0.99644796 0 0)
(0.99632288 0 0)
(0.99612832 0 0)
(0.99641416 0 0)
(0.99641647 0 0)
(0.99642333 0 0)
(0.99643452 0 0)
(0.99644961 0 0)
(0.99646785 0 0)
(0.99648828 0 0)
(0.99650953 0 0)
(0.99653008 0 0)
(0.99654805 0 0)
(0.99656141 0 0)
(0.99656777 0 0)
(0.9965646 0 0)
(0.99654899 0 0)
(0.99651789 0 0)
(0.99646791 0 0)
(0.99639542 0 0)
(0.99629657 0 0)
(0.99616722 0 0)
(0.99600314 0 0)
(0.99576569 0 0)
(0.99641416 0 0)
(0.99641562 0 0)
(0.99641999 0 0)
(0.99642705 0 0)
(0.99643641 0 0)
(0.99644736 0 0)
(0.99645885 0 0)
(0.99646956 0 0)
(0.99647783 0 0)
(0.99648178 0 0)
(0.99647921 0 0)
(0.99646768 0 0)
(0.99644443 0 0)
(0.99640646 0 0)
(0.99635045 0 0)
(0.99627286 0 0)
(0.99616978 0 0)
(0.99603707 0 0)
(0.99587031 0 0)
(0.99566485 0 0)
(0.99538248 0 0)
(0.99641416 0 0)
(0.99641474 0 0)
(0.99641645 0 0)
(0.99641914 0 0)
(0.99642243 0 0)
(0.99642561 0 0)
(0.99642763 0 0)
(0.99642712 0 0)
(0.99642241 0 0)
(0.99641153 0 0)
(0.99639217 0 0)
(0.99636178 0 0)
(0.99631744 0 0)
(0.99625597 0 0)
(0.99617387 0 0)
(0.99606736 0 0)
(0.99593229 0 0)
(0.99576424 0 0)
(0.99555846 0 0)
(0.99530995 0 0)
(0.99498134 0 0)
(0.99641416 0 0)
(0.9964138 0 0)
(0.99641273 0 0)
(0.9964108 0 0)
(0.99640767 0 0)
(0.99640261 0 0)
(0.99639458 0 0)
(0.99638219 0 0)
(0.99636372 0 0)
(0.99633714 0 0)
(0.99630008 0 0)
(0.99624982 0 0)
(0.99618334 0 0)
(0.99609727 0 0)
(0.99598792 0 0)
(0.99585128 0 0)
(0.99568298 0 0)
(0.9954783 0 0)
(0.99523222 0 0)
(0.99493936 0 0)
(0.99456389 0 0)
(0.99641416 0 0)
(0.99641282 0 0)
(0.99640882 0 0)
(0.99640205 0 0)
(0.99639215 0 0)
(0.9963784 0 0)
(0.99635975 0 0)
(0.99633477 0 0)
(0.99630171 0 0)
(0.99625848 0 0)
(0.99620262 0 0)
(0.99613133 0 0)
(0.99604143 0 0)
(0.99592939 0 0)
(0.99579134 0 0)
(0.99562303 0 0)
(0.99541985 0 0)
(0.99517683 0 0)
(0.99488863 0 0)
(0.99454955 0 0)
(0.99412625 0 0)
(0.99641416 0 0)
(0.99642047 0 0)
(0.99643925 0 0)
(0.99647015 0 0)
(0.99651272 0 0)
(0.99656608 0 0)
(0.9966292 0 0)
(0.99670075 0 0)
(0.99677927 0 0)
(0.99686298 0 0)
(0.99694998 0 0)
(0.99703821 0 0)
(0.99712538 0 0)
(0.99720897 0 0)
(0.99728628 0 0)
(0.99735453 0 0)
(0.99741062 0 0)
(0.99745125 0 0)
(0.99747261 0 0)
(0.99747021 0 0)
(0.997416 0 0)
(0.99641416 0 0)
(0.99641991 0 0)
(0.99643705 0 0)
(0.9964652 0 0)
(0.99650392 0 0)
(0.99655245 0 0)
(0.99660972 0 0)
(0.99667454 0 0)
(0.99674536 0 0)
(0.9968206 0 0)
(0.99689832 0 0)
(0.99697654 0 0)
(0.99705296 0 0)
(0.99712522 0 0)
(0.99719061 0 0)
(0.9972464 0 0)
(0.99728955 0 0)
(0.99731687 0 0)
(0.99732469 0 0)
(0.99730892 0 0)
(0.99723783 0 0)
(0.99641416 0 0)
(0.99641933 0 0)
(0.99643471 0 0)
(0.99645999 0 0)
(0.99649464 0 0)
(0.99653801 0 0)
(0.99658904 0 0)
(0.99664654 0 0)
(0.99670901 0 0)
(0.99677487 0 0)
(0.99684219 0 0)
(0.99690901 0 0)
(0.99697303 0 0)
(0.99703188 0 0)
(0.9970829 0 0)
(0.99712333 0 0)
(0.99715019 0 0)
(0.99716033 0 0)
(0.99715045 0 0)
(0.9971171 0 0)
(0.99702646 0 0)
(0.99641416 0 0)
(0.99641869 0 0)
(0.99643218 0 0)
(0.99645431 0 0)
(0.99648459 0 0)
(0.9965223 0 0)
(0.9965665 0 0)
(0.99661593 0 0)
(0.99666916 0 0)
(0.9967245 0 0)
(0.99678012 0 0)
(0.99683391 0 0)
(0.99688364 0 0)
(0.99692681 0 0)
(0.99696077 0 0)
(0.99698265 0 0)
(0.99698944 0 0)
(0.99697789 0 0)
(0.99694468 0 0)
(0.99688629 0 0)
(0.99676664 0 0)
(0.99641416 0 0)
(0.996418 0 0)
(0.99642943 0 0)
(0.99644817 0 0)
(0.99647369 0 0)
(0.99650534 0 0)
(0.99654211 0 0)
(0.99658277 0 0)
(0.99662584 0 0)
(0.99666961 0 0)
(0.99671219 0 0)
(0.99675143 0 0)
(0.996785 0 0)
(0.99681031 0 0)
(0.99682462 0 0)
(0.9968249 0 0)
(0.99680801 0 0)
(0.99677052 0 0)
(0.99670893 0 0)
(0.99661949 0 0)
(0.99646465 0 0)
(0.99641416 0 0)
(0.99641726 0 0)
(0.99642647 0 0)
(0.99644156 0 0)
(0.99646203 0 0)
(0.99648717 0 0)
(0.99651601 0 0)
(0.99654725 0 0)
(0.9965794 0 0)
(0.99661066 0 0)
(0.9966391 0 0)
(0.99666243 0 0)
(0.99667826 0 0)
(0.99668384 0 0)
(0.9966763 0 0)
(0.99665242 0 0)
(0.99660886 0 0)
(0.99654197 0 0)
(0.99644796 0 0)
(0.99632288 0 0)
(0.99612832 0 0)
(0.99641416 0 0)
(0.99641647 0 0)
(0.99642333 0 0)
(0.99643452 0 0)
(0.99644961 0 0)
(0.99646785 0 0)
(0.99648828 0 0)
(0.99650953 0 0)
(0.99653008 0 0)
(0.99654805 0 0)
(0.99656141 0 0)
(0.99656777 0 0)
(0.9965646 0 0)
(0.99654899 0 0)
(0.99651789 0 0)
(0.99646791 0 0)
(0.99639542 0 0)
(0.99629657 0 0)
(0.99616722 0 0)
(0.99600314 0 0)
(0.99576569 0 0)
(0.99641416 0 0)
(0.99641562 0 0)
(0.99641999 0 0)
(0.99642705 0 0)
(0.99643641 0 0)
(0.99644736 0 0)
(0.99645885 0 0)
(0.99646956 0 0)
(0.99647783 0 0)
(0.99648178 0 0)
(0.99647921 0 0)
(0.99646768 0 0)
(0.99644443 0 0)
(0.99640646 0 0)
(0.99635045 0 0)
(0.99627286 0 0)
(0.99616978 0 0)
(0.99603707 0 0)
(0.99587031 0 0)
(0.99566485 0 0)
(0.99538248 0 0)
(0.99641416 0 0)
(0.99641474 0 0)
(0.99641645 0 0)
(0.99641914 0 0)
(0.99642243 0 0)
(0.99642561 0 0)
(0.99642763 0 0)
(0.99642712 0 0)
(0.99642241 0 0)
(0.99641153 0 0)
(0.99639217 0 0)
(0.99636178 0 0)
(0.99631744 0 0)
(0.99625597 0 0)
(0.99617387 0 0)
(0.99606736 0 0)
(0.99593229 0 0)
(0.99576424 0 0)
(0.99555846 0 0)
(0.99530995 0 0)
(0.99498134 0 0)
(0.99641416 0 0)
(0.9964138 0 0)
(0.99641273 0 0)
(0.9964108 0 0)
(0.99640767 0 0)
(0.99640261 0 0)
(0.99639458 0 0)
(0.99638219 0 0)
(0.99636372 0 0)
(0.99633714 0 0)
(0.99630008 0 0)
(0.99624982 0 0)
(0.99618334 0 0)
(0.99609727 0 0)
(0.99598792 0 0)
(0.99585128 0 0)
(0.99568298 0 0)
(0.9954783 0 0)
(0.99523222 0 0)
(0.99493936 0 0)
(0.99456389 0 0)
(0.99641416 0 0)
(0.99641282 0 0)
(0.99640882 0 0)
(0.99640205 0 0)
(0.99639215 0 0)
(0.9963784 0 0)
(0.99635975 0 0)
(0.99633477 0 0)
(0.99630171 0 0)
(0.99625848 0 0)
(0.99620262 0 0)
(0.99613133 0 0)
(0.99604143 0 0)
(0.99592939 0 0)
(0.99579134 0 0)
(0.99562303 0 0)
(0.99541985 0 0)
(0.99517683 0 0)
(0.99488863 0 0)
(0.99454955 0 0)
(0.99412625 0 0)
(0.99641416 0 0)
(0.99642639 0 0)
(0.99646275 0 0)
(0.9965223 0 0)
(0.9966039 0 0)
(0.99670591 0 0)
(0.99682622 0 0)
(0.99696239 0 0)
(0.99711159 0 0)
(0.99727075 0 0)
(0.99743642 0 0)
(0.9976049 0 0)
(0.99777216 0 0)
(0.99793396 0 0)
(0.99808568 0 0)
(0.99822252 0 0)
(0.99833924 0 0)
(0.99843054 0 0)
(0.99849061 0 0)
(0.99851354 0 0)
(0.99848878 0 0)
(0.99641416 0 0)
(0.99642561 0 0)
(0.99645961 0 0)
(0.99651533 0 0)
(0.99659166 0 0)
(0.99668698 0 0)
(0.99679937 0 0)
(0.99692649 0 0)
(0.99706568 0 0)
(0.99721399 0 0)
(0.99736815 0 0)
(0.99752457 0 0)
(0.99767935 0 0)
(0.99782835 0 0)
(0.99796714 0 0)
(0.99809095 0 0)
(0.9981948 0 0)
(0.99827345 0 0)
(0.99832131 0 0)
(0.99833239 0 0)
(0.9982979 0 0)
(0.99641416 0 0)
(0.99642489 0 0)
(0.99645678 0 0)
(0.99650905 0 0)
(0.9965806 0 0)
(0.99666997 0 0)
(0.99677531 0 0)
(0.9968944 0 0)
(0.99702473 0 0)
(0.99716345 0 0)
(0.99730745 0 0)
(0.99745324 0 0)
(0.99759712 0 0)
(0.99773504 0 0)
(0.99786276 0 0)
(0.99797568 0 0)
(0.99806904 0 0)
(0.99813764 0 0)
(0.99817618 0 0)
(0.99817875 0 0)
(0.99813787 0 0)
(0.99641416 0 0)
(0.99642424 0 0)
(0.99645418 0 0)
(0.99650325 0 0)
(0.99657043 0 0)
(0.99665435 0 0)
(0.99675325 0 0)
(0.99686506 0 0)
(0.99698736 0 0)
(0.99711747 0 0)
(0.99725241 0 0)
(0.99738888 0 0)
(0.99752333 0 0)
(0.99765191 0 0)
(0.99777057 0 0)
(0.9978749 0 0)
(0.99796033 0 0)
(0.99802188 0 0)
(0.99805447 0 0)
(0.99805245 0 0)
(0.99800916 0 0)
(0.99641416 0 0)
(0.99642363 0 0)
(0.99645177 0 0)
(0.99649791 0 0)
(0.99656109 0 0)
(0.99664005 0 0)
(0.99673312 0 0)
(0.99683835 0 0)
(0.99695347 0 0)
(0.99707596 0 0)
(0.99720299 0 0)
(0.99733148 0 0)
(0.99745804 0 0)
(0.99757907 0 0)
(0.99769066 0 0)
(0.9977887 0 0)
(0.99786878 0 0)
(0.99792624 0 0)
(0.99795615 0 0)
(0.9979533 0 0)
(0.99791142 0 0)
(0.99641416 0 0)
(0.99642307 0 0)
(0.99644954 0 0)
(0.99649296 0 0)
(0.99655246 0 0)
(0.99662686 0 0)
(0.9967146 0 0)
(0.99681386 0 0)
(0.99692252 0 0)
(0.99703822 0 0)
(0.99715831 0 0)
(0.99727991 0 0)
(0.99739983 0 0)
(0.9975147 0 0)
(0.99762084 0 0)
(0.99771437 0 0)
(0.99779117 0 0)
(0.99784683 0 0)
(0.99787679 0 0)
(0.99787609 0 0)
(0.99783902 0 0)
(0.99641416 0 0)
(0.99642253 0 0)
(0.99644742 0 0)
(0.99648828 0 0)
(0.99654431 0 0)
(0.99661443 0 0)
(0.9966972 0 0)
(0.9967909 0 0)
(0.99689357 0 0)
(0.99700303 0 0)
(0.99711679 0 0)
(0.99723218 0 0)
(0.99734622 0 0)
(0.99745576 0 0)
(0.99755737 0 0)
(0.99764743 0 0)
(0.99772212 0 0)
(0.99777735 0 0)
(0.99780887 0 0)
(0.99781217 0 0)
(0.99778218 0 0)
(0.99641416 0 0)
(0.99642202 0 0)
(0.99644538 0 0)
(0.99648376 0 0)
(0.99653647 0 0)
(0.99660247 0 0)
(0.99668044 0 0)
(0.99676882 0 0)
(0.99686575 0 0)
(0.9969692 0 0)
(0.99707688 0 0)
(0.99718629 0 0)
(0.99729468 0 0)
(0.99739909 0 0)
(0.99749635 0 0)
(0.99758312 0 0)
(0.99765583 0 0)
(0.99771074 0 0)
(0.99774396 0 0)
(0.9977514 0 0)
(0.99772919 0 0)
(0.99641416 0 0)
(0.99642151 0 0)
(0.99644338 0 0)
(0.99647933 0 0)
(0.99652874 0 0)
(0.99659068 0 0)
(0.99666392 0 0)
(0.99674699 0 0)
(0.99683818 0 0)
(0.9969356 0 0)
(0.99703709 0 0)
(0.99714033 0 0)
(0.99724276 0 0)
(0.99734164 0 0)
(0.99743398 0 0)
(0.99751668 0 0)
(0.99758643 0 0)
(0.9976398 0 0)
(0.99767315 0 0)
(0.99768278 0 0)
(0.99766692 0 0)
(0.99641416 0 0)
(0.996421 0 0)
(0.99644136 0 0)
(0.99647487 0 0)
(0.99652098 0 0)
(0.99657881 0 0)
(0.99664722 0 0)
(0.99672485 0 0)
(0.99681011 0 0)
(0.99690118 0 0)
(0.99699604 0 0)
(0.99709254 0 0)
(0.99718829 0 0)
(0.99728066 0 0)
(0.99736682 0 0)
(0.9974439 0 0)
(0.99750876 0 0)
(0.99755805 0 0)
(0.99758818 0 0)
(0.99759526 0 0)
(0.99758074 0 0)
(0.99641416 0 0)
(0.99642639 0 0)
(0.99646275 0 0)
(0.9965223 0 0)
(0.9966039 0 0)
(0.99670591 0 0)
(0.99682622 0 0)
(0.99696239 0 0)
(0.99711159 0 0)
(0.99727075 0 0)
(0.99743642 0 0)
(0.9976049 0 0)
(0.99777216 0 0)
(0.99793396 0 0)
(0.99808568 0 0)
(0.99822252 0 0)
(0.99833924 0 0)
(0.99843054 0 0)
(0.99849061 0 0)
(0.99851354 0 0)
(0.99848878 0 0)
(0.99641416 0 0)
(0.99642561 0 0)
(0.99645961 0 0)
(0.99651533 0 0)
(0.99659166 0 0)
(0.99668698 0 0)
(0.99679937 0 0)
(0.99692649 0 0)
(0.99706568 0 0)
(0.99721399 0 0)
(0.99736815 0 0)
(0.99752457 0 0)
(0.99767935 0 0)
(0.99782835 0 0)
(0.99796714 0 0)
(0.99809095 0 0)
(0.9981948 0 0)
(0.99827345 0 0)
(0.99832131 0 0)
(0.99833239 0 0)
(0.9982979 0 0)
(0.99641416 0 0)
(0.99642489 0 0)
(0.99645678 0 0)
(0.99650905 0 0)
(0.9965806 0 0)
(0.99666997 0 0)
(0.99677531 0 0)
(0.9968944 0 0)
(0.99702473 0 0)
(0.99716345 0 0)
(0.99730745 0 0)
(0.99745324 0 0)
(0.99759712 0 0)
(0.99773504 0 0)
(0.99786276 0 0)
(0.99797568 0 0)
(0.99806904 0 0)
(0.99813764 0 0)
(0.99817618 0 0)
(0.99817875 0 0)
(0.99813787 0 0)
(0.99641416 0 0)
(0.99642424 0 0)
(0.99645418 0 0)
(0.99650325 0 0)
(0.99657043 0 0)
(0.99665435 0 0)
(0.99675325 0 0)
(0.99686506 0 0)
(0.99698736 0 0)
(0.99711747 0 0)
(0.99725241 0 0)
(0.99738888 0 0)
(0.99752333 0 0)
(0.99765191 0 0)
(0.99777057 0 0)
(0.9978749 0 0)
(0.99796033 0 0)
(0.99802188 0 0)
(0.99805447 0 0)
(0.99805245 0 0)
(0.99800916 0 0)
(0.99641416 0 0)
(0.99642363 0 0)
(0.99645177 0 0)
(0.99649791 0 0)
(0.99656109 0 0)
(0.99664005 0 0)
(0.99673312 0 0)
(0.99683835 0 0)
(0.99695347 0 0)
(0.99707596 0 0)
(0.99720299 0 0)
(0.99733148 0 0)
(0.99745804 0 0)
(0.99757907 0 0)
(0.99769066 0 0)
(0.9977887 0 0)
(0.99786878 0 0)
(0.99792624 0 0)
(0.99795615 0 0)
(0.9979533 0 0)
(0.99791142 0 0)
(0.99641416 0 0)
(0.99642307 0 0)
(0.99644954 0 0)
(0.99649296 0 0)
(0.99655246 0 0)
(0.99662686 0 0)
(0.9967146 0 0)
(0.99681386 0 0)
(0.99692252 0 0)
(0.99703822 0 0)
(0.99715831 0 0)
(0.99727991 0 0)
(0.99739983 0 0)
(0.9975147 0 0)
(0.99762084 0 0)
(0.99771437 0 0)
(0.99779117 0 0)
(0.99784683 0 0)
(0.99787679 0 0)
(0.99787609 0 0)
(0.99783902 0 0)
(0.99641416 0 0)
(0.99642253 0 0)
(0.99644742 0 0)
(0.99648828 0 0)
(0.99654431 0 0)
(0.99661443 0 0)
(0.9966972 0 0)
(0.9967909 0 0)
(0.99689357 0 0)
(0.99700303 0 0)
(0.99711679 0 0)
(0.99723218 0 0)
(0.99734622 0 0)
(0.99745576 0 0)
(0.99755737 0 0)
(0.99764743 0 0)
(0.99772212 0 0)
(0.99777735 0 0)
(0.99780887 0 0)
(0.99781217 0 0)
(0.99778218 0 0)
(0.99641416 0 0)
(0.99642202 0 0)
(0.99644538 0 0)
(0.99648376 0 0)
(0.99653647 0 0)
(0.99660247 0 0)
(0.99668044 0 0)
(0.99676882 0 0)
(0.99686575 0 0)
(0.9969692 0 0)
(0.99707688 0 0)
(0.99718629 0 0)
(0.99729468 0 0)
(0.99739909 0 0)
(0.99749635 0 0)
(0.99758312 0 0)
(0.99765583 0 0)
(0.99771074 0 0)
(0.99774396 0 0)
(0.9977514 0 0)
(0.99772919 0 0)
(0.99641416 0 0)
(0.99642151 0 0)
(0.99644338 0 0)
(0.99647933 0 0)
(0.99652874 0 0)
(0.99659068 0 0)
(0.99666392 0 0)
(0.99674699 0 0)
(0.99683818 0 0)
(0.9969356 0 0)
(0.99703709 0 0)
(0.99714033 0 0)
(0.99724276 0 0)
(0.99734164 0 0)
(0.99743398 0 0)
(0.99751668 0 0)
(0.99758643 0 0)
(0.9976398 0 0)
(0.99767315 0 0)
(0.99768278 0 0)
(0.99766692 0 0)
(0.99641416 0 0)
(0.996421 0 0)
(0.99644136 0 0)
(0.99647487 0 0)
(0.99652098 0 0)
(0.99657881 0 0)
(0.99664722 0 0)
(0.99672485 0 0)
(0.99681011 0 0)
(0.99690118 0 0)
(0.99699604 0 0)
(0.99709254 0 0)
(0.99718829 0 0)
(0.99728066 0 0)
(0.99736682 0 0)
(0.9974439 0 0)
(0.99750876 0 0)
(0.99755805 0 0)
(0.99758818 0 0)
(0.99759526 0 0)
(0.99758074 0 0)
(0.99839246 0 0)
(0.99820753 0 0)
(0.99792475 0 0)
(0.9975287 0 0)
(0.99700302 0 0)
(0.99632976 0 0)
(0.99548501 0 0)
(0.9944326 0 0)
(0.99312837 0 0)
(0.99153015 0 0)
(0.98960016 0 0)
(0.98730226 0 0)
(0.98459916 0 0)
(0.98144914 0 0)
(0.97780483 0 0)
(0.97361731 0 0)
(0.96884493 0 0)
(0.96344982 0 0)
(0.95738932 0 0)
(0.95061272 0 0)
(0.94306734 0 0)
(0.93470451 0 0)
(0.92546392 0 0)
(0.9152896 0 0)
(0.90412463 0 0)
(0.89189845 0 0)
(0.87853904 0 0)
(0.86398769 0 0)
(0.84817341 0 0)
(0.83099459 0 0)
(0.8123575 0 0)
(0.7921951 0 0)
(0.77041115 0 0)
(0.74684978 0 0)
(0.72138576 0 0)
(0.6939414 0 0)
(0.66437866 0 0)
(0.63246618 0 0)
(0.59804575 0 0)
(0.56101997 0 0)
(0.52121 0 0)
(0.47839563 0 0)
(0.43237307 0 0)
(0.38292947 0 0)
(0.32980097 0 0)
(0.27274966 0 0)
(0.21155483 0 0)
(0.14591102 0 0)
(0.075437214 0 0)
(0 0 0)
(0.99819607 0 0)
(0.99800862 0 0)
(0.9977252 0 0)
(0.99733065 0 0)
(0.99680912 0 0)
(0.99614375 0 0)
(0.99531122 0 0)
(0.9942747 0 0)
(0.99298893 0 0)
(0.99140976 0 0)
(0.98949931 0 0)
(0.98722173 0 0)
(0.98454005 0 0)
(0.98141211 0 0)
(0.97778928 0 0)
(0.97362191 0 0)
(0.96886838 0 0)
(0.96349095 0 0)
(0.95744677 0 0)
(0.95068564 0 0)
(0.94315627 0 0)
(0.93480792 0 0)
(0.92557939 0 0)
(0.91541561 0 0)
(0.90426054 0 0)
(0.89204327 0 0)
(0.87869095 0 0)
(0.86414492 0 0)
(0.84833547 0 0)
(0.83116087 0 0)
(0.81252626 0 0)
(0.79236467 0 0)
(0.77058118 0 0)
(0.74701979 0 0)
(0.72155415 0 0)
(0.69410705 0 0)
(0.66454179 0 0)
(0.6326264 0 0)
(0.59820086 0 0)
(0.56116957 0 0)
(0.52135225 0 0)
(0.47852879 0 0)
(0.43249594 0 0)
(0.38303899 0 0)
(0.32989408 0 0)
(0.27282377 0 0)
(0.21160877 0 0)
(0.1459463 0 0)
(0.075455161 0 0)
(0 0 0)
(0.99803337 0 0)
(0.99784592 0 0)
(0.99756473 0 0)
(0.99717487 0 0)
(0.99666138 0 0)
(0.99600845 0 0)
(0.99519316 0 0)
(0.99417758 0 0)
(0.99291463 0 0)
(0.99136004 0 0)
(0.98947623 0 0)
(0.98722724 0 0)
(0.98457585 0 0)
(0.98147921 0 0)
(0.97788782 0 0)
(0.97375143 0 0)
(0.96902785 0 0)
(0.96367912 0 0)
(0.95766263 0 0)
(0.95092899 0 0)
(0.94342705 0 0)
(0.93510436 0 0)
(0.92589963 0 0)
(0.91575755 0 0)
(0.90462247 0 0)
(0.89242371 0 0)
(0.87908804 0 0)
(0.86455605 0 0)
(0.84875872 0 0)
(0.83159468 0 0)
(0.81296837 0 0)
(0.79281232 0 0)
(0.7710323 0 0)
(0.74747247 0 0)
(0.72200597 0 0)
(0.69455546 0 0)
(0.66498482 0 0)
(0.63306156 0 0)
(0.5986243 0 0)
(0.56157887 0 0)
(0.52174316 0 0)
(0.4788975 0 0)
(0.43283843 0 0)
(0.38334843 0 0)
(0.3301632 0 0)
(0.27304661 0 0)
(0.2117809 0 0)
(0.14606469 0 0)
(0.075516602 0 0)
(0 0 0)
(0.99790569 0 0)
(0.99772206 0 0)
(0.99744733 0 0)
(0.9970667 0 0)
(0.99656662 0 0)
(0.99593218 0 0)
(0.99513939 0 0)
(0.9941493 0 0)
(0.99291475 0 0)
(0.99139187 0 0)
(0.98954281 0 0)
(0.98733157 0 0)
(0.98472068 0 0)
(0.98166612 0 0)
(0.97811721 0 0)
(0.97402339 0 0)
(0.9693421 0 0)
(0.96403493 0 0)
(0.95805883 0 0)
(0.95136515 0 0)
(0.94390329 0 0)
(0.93561862 0 0)
(0.92644954 0 0)
(0.91634095 0 0)
(0.90523715 0 0)
(0.8930672 0 0)
(0.87975745 0 0)
(0.86524821 0 0)
(0.84947091 0 0)
(0.83232391 0 0)
(0.81371101 0 0)
(0.79356466 0 0)
(0.77179117 0 0)
(0.74823418 0 0)
(0.72276612 0 0)
(0.69531028 0 0)
(0.66573085 0 0)
(0.63379381 0 0)
(0.59933651 0 0)
(0.56226682 0 0)
(0.52240059 0 0)
(0.4795177 0 0)
(0.43341437 0 0)
(0.38387001 0 0)
(0.330619 0 0)
(0.27342683 0 0)
(0.2120776 0 0)
(0.14627063 0 0)
(0.075623794 0 0)
(0 0 0)
(0.99781245 0 0)
(0.99763653 0 0)
(0.99737241 0 0)
(0.99700589 0 0)
(0.99652415 0 0)
(0.99591237 0 0)
(0.99514597 0 0)
(0.99418572 0 0)
(0.99298475 0 0)
(0.99150039 0 0)
(0.98969414 0 0)
(0.98752967 0 0)
(0.98496878 0 0)
(0.98196644 0 0)
(0.97847105 0 0)
(0.97443152 0 0)
(0.9698045 0 0)
(0.96455109 0 0)
(0.95862827 0 0)
(0.95198745 0 0)
(0.94457769 0 0)
(0.93634312 0 0)
(0.92722208 0 0)
(0.91715868 0 0)
(0.90609701 0 0)
(0.89396613 0 0)
(0.88069205 0 0)
(0.8662144 0 0)
(0.85046465 0 0)
(0.83334113 0 0)
(0.81474723 0 0)
(0.79461502 0 0)
(0.77285079 0 0)
(0.74929769 0 0)
(0.72382798 0 0)
(0.6963653 0 0)
(0.66677338 0 0)
(0.6348166 0 0)
(0.60033157 0 0)
(0.56322768 0 0)
(0.52331886 0 0)
(0.4803843 0 0)
(0.43421934 0 0)
(0.38459952 0 0)
(0.33125766 0 0)
(0.27396143 0 0)
(0.21249665 0 0)
(0.14656244 0 0)
(0.07577584 0 0)
(0 0 0)
(0.99774804 0 0)
(0.99758367 0 0)
(0.99733413 0 0)
(0.99698578 0 0)
(0.99652614 0 0)
(0.99594051 0 0)
(0.99520404 0 0)
(0.99427765 0 0)
(0.99311634 0 0)
(0.99167717 0 0)
(0.98992134 0 0)
(0.98781222 0 0)
(0.98531066 0 0)
(0.9823706 0 0)
(0.97893944 0 0)
(0.97496541 0 0)
(0.97040461 0 0)
(0.96521745 0 0)
(0.95936044 0 0)
(0.95278505 0 0)
(0.94543993 0 0)
(0.93726763 0 0)
(0.92820636 0 0)
(0.91819996 0 0)
(0.90719182 0 0)
(0.89511032 0 0)
(0.88188121 0 0)
(0.86744407 0 0)
(0.85173007 0 0)
(0.83463664 0 0)
(0.81606684 0 0)
(0.79595322 0 0)
(0.77420169 0 0)
(0.75065384 0 0)
(0.72518205 0 0)
(0.69771101 0 0)
(0.66810366 0 0)
(0.63612168 0 0)
(0.60160114 0 0)
(0.56445363 0 0)
(0.52449071 0 0)
(0.48149016 0 0)
(0.43524651 0 0)
(0.38553121 0 0)
(0.33207437 0 0)
(0.27464622 0 0)
(0.21303465 0 0)
(0.1469379 0 0)
(0.075971649 0 0)
(0 0 0)
(0.99770228 0 0)
(0.99755256 0 0)
(0.99732098 0 0)
(0.99699421 0 0)
(0.99656004 0 0)
(0.99600386 0 0)
(0.99530126 0 0)
(0.99441398 0 0)
(0.99329774 0 0)
(0.99191013 0 0)
(0.9902122 0 0)
(0.98816661 0 0)
(0.9857333 0 0)
(0.98286527 0 0)
(0.97950895 0 0)
(0.97561154 0 0)
(0.97112843 0 0)
(0.96601965 0 0)
(0.96024121 0 0)
(0.95374391 0 0)
(0.9464756 0 0)
(0.93837808 0 0)
(0.92938875 0 0)
(0.91945084 0 0)
(0.90850735 0 0)
(0.8964859 0 0)
(0.88331163 0 0)
(0.8689239 0 0)
(0.85325356 0 0)
(0.83619701 0 0)
(0.81765705 0 0)
(0.79756657 0 0)
(0.77583089 0 0)
(0.75228989 0 0)
(0.72681624 0 0)
(0.6993357 0 0)
(0.66970985 0 0)
(0.63769742 0 0)
(0.60313444 0 0)
(0.56593435 0 0)
(0.52590622 0 0)
(0.48282623 0 0)
(0.43648774 0 0)
(0.38665742 0 0)
(0.33306229 0 0)
(0.27547568 0 0)
(0.21368743 0 0)
(0.14739399 0 0)
(0.076209552 0 0)
(0 0 0)
(0.99766234 0 0)
(0.99753 0 0)
(0.99731926 0 0)
(0.99701715 0 0)
(0.9966118 0 0)
(0.99608905 0 0)
(0.99542463 0 0)
(0.9945812 0 0)
(0.99351521 0 0)
(0.99218504 0 0)
(0.99055193 0 0)
(0.9885777 0 0)
(0.98622111 0 0)
(0.98343438 0 0)
(0.98016296 0 0)
(0.97635286 0 0)
(0.97195903 0 0)
(0.96694098 0 0)
(0.96125342 0 0)
(0.95484654 0 0)
(0.94766781 0 0)
(0.93965741 0 0)
(0.93075186 0 0)
(0.92089425 0 0)
(0.910027 0 0)
(0.89807623 0 0)
(0.88496641 0 0)
(0.87063728 0 0)
(0.85501905 0 0)
(0.8380063 0 0)
(0.81950163 0 0)
(0.79943909 0 0)
(0.77772313 0 0)
(0.75419091 0 0)
(0.72871541 0 0)
(0.70122442 0 0)
(0.6715778 0 0)
(0.63953024 0 0)
(0.60491801 0 0)
(0.56765718 0 0)
(0.5275536 0 0)
(0.4843812 0 0)
(0.4379324 0 0)
(0.38796885 0 0)
(0.33421355 0 0)
(0.27644309 0 0)
(0.21444962 0 0)
(0.14792707 0 0)
(0.076487674 0 0)
(0 0 0)
(0.99761399 0 0)
(0.99750159 0 0)
(0.99731482 0 0)
(0.99704075 0 0)
(0.9966678 0 0)
(0.99618216 0 0)
(0.99556027 0 0)
(0.99476498 0 0)
(0.99375396 0 0)
(0.99248625 0 0)
(0.99092347 0 0)
(0.98902737 0 0)
(0.98675584 0 0)
(0.98405979 0 0)
(0.9808832 0 0)
(0.97717091 0 0)
(0.97287773 0 0)
(0.96796228 0 0)
(0.96237757 0 0)
(0.95607339 0 0)
(0.94899649 0 0)
(0.94108574 0 0)
(0.93227612 0 0)
(0.92251056 0 0)
(0.91173101 0 0)
(0.89986173 0 0)
(0.88682641 0 0)
(0.87256513 0 0)
(0.85700735 0 0)
(0.84004547 0 0)
(0.82158208 0 0)
(0.80155256 0 0)
(0.77986016 0 0)
(0.75633876 0 0)
(0.73086212 0 0)
(0.70336022 0 0)
(0.67369058 0 0)
(0.64160359 0 0)
(0.60693628 0 0)
(0.56960717 0 0)
(0.52941858 0 0)
(0.48614196 0 0)
(0.43956844 0 0)
(0.3894544 0 0)
(0.33551843 0 0)
(0.27754049 0 0)
(0.21531501 0 0)
(0.1485327 0 0)
(0.076803673 0 0)
(0 0 0)
(0.99754178 0 0)
(0.99745369 0 0)
(0.99729537 0 0)
(0.99705317 0 0)
(0.99671631 0 0)
(0.9962716 0 0)
(0.99569529 0 0)
(0.99495165 0 0)
(0.99399938 0 0)
(0.99279843 0 0)
(0.99131153 0 0)
(0.98950048 0 0)
(0.98732208 0 0)
(0.98472595 0 0)
(0.98165401 0 0)
(0.97804964 0 0)
(0.97386768 0 0)
(0.96906626 0 0)
(0.96359698 0 0)
(0.95740847 0 0)
(0.95044635 0 0)
(0.94264734 0 0)
(0.93394521 0 0)
(0.92428365 0 0)
(0.9136039 0 0)
(0.90182709 0 0)
(0.88887605 0 0)
(0.87469208 0 0)
(0.85920371 0 0)
(0.84229997 0 0)
(0.8238834 0 0)
(0.80389207 0 0)
(0.78222765 0 0)
(0.75871937 0 0)
(0.73324187 0 0)
(0.70572856 0 0)
(0.67603429 0 0)
(0.64390402 0 0)
(0.60917574 0 0)
(0.57177136 0 0)
(0.53148895 0 0)
(0.48809656 0 0)
(0.44138446 0 0)
(0.39110389 0 0)
(0.3369681 0 0)
(0.2787603 0 0)
(0.21627755 0 0)
(0.14920672 0 0)
(0.077155323 0 0)
(0 0 0)
(0.99741845 0 0)
(0.99734544 0 0)
(0.99720243 0 0)
(0.99697729 0 0)
(0.99666129 0 0)
(0.99624044 0 0)
(0.99569012 0 0)
(0.99497643 0 0)
(0.99405994 0 0)
(0.99290173 0 0)
(0.99146583 0 0)
(0.98971456 0 0)
(0.98760426 0 0)
(0.98508318 0 0)
(0.98209181 0 0)
(0.97857307 0 0)
(0.97448153 0 0)
(0.96977505 0 0)
(0.9644049 0 0)
(0.95831739 0 0)
(0.95145605 0 0)
(0.94375735 0 0)
(0.93515481 0 0)
(0.92559194 0 0)
(0.91500865 0 0)
(0.9033236 0 0)
(0.89045857 0 0)
(0.87635577 0 0)
(0.86094313 0 0)
(0.84410681 0 0)
(0.82574847 0 0)
(0.80580804 0 0)
(0.78418625 0 0)
(0.76070915 0 0)
(0.73525031 0 0)
(0.70774562 0 0)
(0.67804817 0 0)
(0.64589973 0 0)
(0.61113637 0 0)
(0.5736824 0 0)
(0.53333298 0 0)
(0.48985323 0 0)
(0.44303147 0 0)
(0.39261348 0 0)
(0.33830718 0 0)
(0.27989777 0 0)
(0.21718477 0 0)
(0.14985094 0 0)
(0.077500827 0 0)
(0 0 0)
(0.99839246 0 0)
(0.99820753 0 0)
(0.99792475 0 0)
(0.9975287 0 0)
(0.99700302 0 0)
(0.99632976 0 0)
(0.99548501 0 0)
(0.9944326 0 0)
(0.99312837 0 0)
(0.99153015 0 0)
(0.98960016 0 0)
(0.98730226 0 0)
(0.98459916 0 0)
(0.98144914 0 0)
(0.97780483 0 0)
(0.97361731 0 0)
(0.96884493 0 0)
(0.96344982 0 0)
(0.95738932 0 0)
(0.95061272 0 0)
(0.94306734 0 0)
(0.93470451 0 0)
(0.92546392 0 0)
(0.9152896 0 0)
(0.90412463 0 0)
(0.89189845 0 0)
(0.87853904 0 0)
(0.86398769 0 0)
(0.84817341 0 0)
(0.83099459 0 0)
(0.8123575 0 0)
(0.7921951 0 0)
(0.77041115 0 0)
(0.74684978 0 0)
(0.72138576 0 0)
(0.6939414 0 0)
(0.66437866 0 0)
(0.63246618 0 0)
(0.59804575 0 0)
(0.56101997 0 0)
(0.52121 0 0)
(0.47839563 0 0)
(0.43237307 0 0)
(0.38292947 0 0)
(0.32980097 0 0)
(0.27274966 0 0)
(0.21155483 0 0)
(0.14591102 0 0)
(0.075437214 0 0)
(0 0 0)
(0.99819607 0 0)
(0.99800862 0 0)
(0.9977252 0 0)
(0.99733065 0 0)
(0.99680912 0 0)
(0.99614375 0 0)
(0.99531122 0 0)
(0.9942747 0 0)
(0.99298893 0 0)
(0.99140976 0 0)
(0.98949931 0 0)
(0.98722173 0 0)
(0.98454005 0 0)
(0.98141211 0 0)
(0.97778928 0 0)
(0.97362191 0 0)
(0.96886838 0 0)
(0.96349095 0 0)
(0.95744677 0 0)
(0.95068564 0 0)
(0.94315627 0 0)
(0.93480792 0 0)
(0.92557939 0 0)
(0.91541561 0 0)
(0.90426054 0 0)
(0.89204327 0 0)
(0.87869095 0 0)
(0.86414492 0 0)
(0.84833547 0 0)
(0.83116087 0 0)
(0.81252626 0 0)
(0.79236467 0 0)
(0.77058118 0 0)
(0.74701979 0 0)
(0.72155415 0 0)
(0.69410705 0 0)
(0.66454179 0 0)
(0.6326264 0 0)
(0.59820086 0 0)
(0.56116957 0 0)
(0.52135225 0 0)
(0.47852879 0 0)
(0.43249594 0 0)
(0.38303899 0 0)
(0.32989408 0 0)
(0.27282377 0 0)
(0.21160877 0 0)
(0.1459463 0 0)
(0.075455161 0 0)
(0 0 0)
(0.99803337 0 0)
(0.99784592 0 0)
(0.99756473 0 0)
(0.99717487 0 0)
(0.99666138 0 0)
(0.99600845 0 0)
(0.99519316 0 0)
(0.99417758 0 0)
(0.99291463 0 0)
(0.99136004 0 0)
(0.98947623 0 0)
(0.98722724 0 0)
(0.98457585 0 0)
(0.98147921 0 0)
(0.97788782 0 0)
(0.97375143 0 0)
(0.96902785 0 0)
(0.96367912 0 0)
(0.95766263 0 0)
(0.95092899 0 0)
(0.94342705 0 0)
(0.93510436 0 0)
(0.92589963 0 0)
(0.91575755 0 0)
(0.90462247 0 0)
(0.89242371 0 0)
(0.87908804 0 0)
(0.86455605 0 0)
(0.84875872 0 0)
(0.83159468 0 0)
(0.81296837 0 0)
(0.79281232 0 0)
(0.7710323 0 0)
(0.74747247 0 0)
(0.72200597 0 0)
(0.69455546 0 0)
(0.66498482 0 0)
(0.63306156 0 0)
(0.5986243 0 0)
(0.56157887 0 0)
(0.52174316 0 0)
(0.4788975 0 0)
(0.43283843 0 0)
(0.38334843 0 0)
(0.3301632 0 0)
(0.27304661 0 0)
(0.2117809 0 0)
(0.14606469 0 0)
(0.075516602 0 0)
(0 0 0)
(0.99790569 0 0)
(0.99772206 0 0)
(0.99744733 0 0)
(0.9970667 0 0)
(0.99656662 0 0)
(0.99593218 0 0)
(0.99513939 0 0)
(0.9941493 0 0)
(0.99291475 0 0)
(0.99139187 0 0)
(0.98954281 0 0)
(0.98733157 0 0)
(0.98472068 0 0)
(0.98166612 0 0)
(0.97811721 0 0)
(0.97402339 0 0)
(0.9693421 0 0)
(0.96403493 0 0)
(0.95805883 0 0)
(0.95136515 0 0)
(0.94390329 0 0)
(0.93561862 0 0)
(0.92644954 0 0)
(0.91634095 0 0)
(0.90523715 0 0)
(0.8930672 0 0)
(0.87975745 0 0)
(0.86524821 0 0)
(0.84947091 0 0)
(0.83232391 0 0)
(0.81371101 0 0)
(0.79356466 0 0)
(0.77179117 0 0)
(0.74823418 0 0)
(0.72276612 0 0)
(0.69531028 0 0)
(0.66573085 0 0)
(0.63379381 0 0)
(0.59933651 0 0)
(0.56226682 0 0)
(0.52240059 0 0)
(0.4795177 0 0)
(0.43341437 0 0)
(0.38387001 0 0)
(0.330619 0 0)
(0.27342683 0 0)
(0.2120776 0 0)
(0.14627063 0 0)
(0.075623794 0 0)
(0 0 0)
(0.99781245 0 0)
(0.99763653 0 0)
(0.99737241 0 0)
(0.99700589 0 0)
(0.99652415 0 0)
(0.99591237 0 0)
(0.99514597 0 0)
(0.99418572 0 0)
(0.99298475 0 0)
(0.99150039 0 0)
(0.98969414 0 0)
(0.98752967 0 0)
(0.98496878 0 0)
(0.98196644 0 0)
(0.97847105 0 0)
(0.97443152 0 0)
(0.9698045 0 0)
(0.96455109 0 0)
(0.95862827 0 0)
(0.95198745 0 0)
(0.94457769 0 0)
(0.93634312 0 0)
(0.92722208 0 0)
(0.91715868 0 0)
(0.90609701 0 0)
(0.89396613 0 0)
(0.88069205 0 0)
(0.8662144 0 0)
(0.85046465 0 0)
(0.83334113 0 0)
(0.81474723 0 0)
(0.79461502 0 0)
(0.77285079 0 0)
(0.74929769 0 0)
(0.72382798 0 0)
(0.6963653 0 0)
(0.66677338 0 0)
(0.6348166 0 0)
(0.60033157 0 0)
(0.56322768 0 0)
(0.52331886 0 0)
(0.4803843 0 0)
(0.43421934 0 0)
(0.38459952 0 0)
(0.33125766 0 0)
(0.27396143 0 0)
(0.21249665 0 0)
(0.14656244 0 0)
(0.07577584 0 0)
(0 0 0)
(0.99774804 0 0)
(0.99758367 0 0)
(0.99733413 0 0)
(0.99698578 0 0)
(0.99652614 0 0)
(0.99594051 0 0)
(0.99520404 0 0)
(0.99427765 0 0)
(0.99311634 0 0)
(0.99167717 0 0)
(0.98992134 0 0)
(0.98781222 0 0)
(0.98531066 0 0)
(0.9823706 0 0)
(0.97893944 0 0)
(0.97496541 0 0)
(0.97040461 0 0)
(0.96521745 0 0)
(0.95936044 0 0)
(0.95278505 0 0)
(0.94543993 0 0)
(0.93726763 0 0)
(0.92820636 0 0)
(0.91819996 0 0)
(0.90719182 0 0)
(0.89511032 0 0)
(0.88188121 0 0)
(0.86744407 0 0)
(0.85173007 0 0)
(0.83463664 0 0)
(0.81606684 0 0)
(0.79595322 0 0)
(0.77420169 0 0)
(0.75065384 0 0)
(0.72518205 0 0)
(0.69771101 0 0)
(0.66810366 0 0)
(0.63612168 0 0)
(0.60160114 0 0)
(0.56445363 0 0)
(0.52449071 0 0)
(0.48149016 0 0)
(0.43524651 0 0)
(0.38553121 0 0)
(0.33207437 0 0)
(0.27464622 0 0)
(0.21303465 0 0)
(0.1469379 0 0)