/*--------------------------------*- C++ -*----------------------------------*\
| =========                 |                                                 |
| \\      /  F ield         | OpenFOAM: The Open Source CFD Toolbox           |
|  \\    /   O peration     | Version:  v2012                                 |
|   \\  /    A nd           | Website:  www.openfoam.com                      |
|    \\/     M anipulation  |                                                 |
\*---------------------------------------------------------------------------*/
FoamFile
{
    version     2.0;
    format      ascii;
    class       surfaceVectorField;
    location    "103.560800180950793";
    object      Uf;
}
// * * * * * * * * * * * * * * * * * * * * * * * * * * * * * * * * * * * * * //

dimensions      [0 1 -1 0 0 0 0];


internalField   nonuniform List<vector> 
18180
(
(2.6660204 0.0030070163 3.4944672e-25)
(2.6634978 0.0012109123 1.533498e-24)
(2.6667605 0.0062429375 1.4829803e-23)
(2.6636651 0.0038953796 1.3737276e-22)
(2.6620341 0.0022128548 1.4064968e-22)
(2.6617019 0.00084219326 -9.3122603e-23)
(2.6678769 0.0098773789 6.6718101e-23)
(2.6640919 0.0068703765 5.0383054e-23)
(2.662038 0.0046330257 1.6732268e-22)
(2.6615656 0.002630871 1.1388722e-22)
(2.6609458 0.0013371915 -1.1213533e-22)
(2.6606538 0.0004158717 -4.9522207e-23)
(2.6692664 0.014222542 -1.2964293e-22)
(2.6644814 0.010277123 3.3112316e-22)
(2.6619637 0.007416267 3.0376539e-22)
(2.6615114 0.0047728951 9.5476769e-24)
(2.6607011 0.0028565449 -4.7029254e-23)
(2.6602931 0.0012116338 -5.5768794e-23)
(2.6600728 0.00033051639 3.0262906e-24)
(2.6604036 -1.2768925e-05 6.7981722e-23)
(2.6708705 0.019496257 -1.5404778e-22)
(2.6647946 0.014570161 -2.2617689e-23)
(2.6616138 0.010815708 4.0170931e-22)
(2.6611131 0.0071956029 2.0586799e-22)
(2.6602243 0.0046618843 -7.5176361e-23)
(2.6598962 0.0024021427 -3.76539e-23)
(2.6595734 0.00081666493 -4.7283181e-23)
(2.6599009 -0.0003167571 -5.9801608e-23)
(2.6601995 -0.00066459208 8.6961676e-25)
(2.6608897 -0.00034032583 3.2331935e-23)
(2.6726058 0.025940738 2.8425799e-22)
(2.6649041 0.01970327 -2.5065007e-22)
(2.6608906 0.014995958 -1.273626e-22)
(2.6603681 0.010394098 1.0550071e-22)
(2.6592952 0.0069340079 -1.0305561e-22)
(2.6589414 0.0036775163 -6.7642701e-23)
(2.6587037 0.0014891644 -3.1878952e-23)
(2.6593175 -0.00014862475 -1.5491415e-22)
(2.6596037 -0.0012479825 -1.6744353e-22)
(2.6603586 -0.0017930536 -1.0593792e-22)
(2.6610334 -0.0015314791 -7.8180413e-23)
(2.6619714 -0.00057351993 1.6906159e-23)
(2.6743736 0.033808761 4.8642582e-22)
(2.664629 0.026079805 3.2632932e-23)
(2.6596045 0.02012801 -4.7943437e-22)
(2.6590963 0.014218547 -1.7756378e-22)
(2.6578198 0.0097971251 2.621466e-23)
(2.657444 0.0055913704 -6.5153061e-23)
(2.6571985 0.0024596753 -2.7208617e-23)
(2.6580499 -0.00012998056 -1.1096912e-22)
(2.6585959 -0.0017384329 -2.2964251e-22)
(2.6597312 -0.0026075799 -1.1084443e-22)
(2.6604685 -0.0031398411 -5.2729319e-23)
(2.6615748 -0.0030784313 -3.0301033e-23)
(2.6624875 -0.0022476164 6.0789618e-23)
(2.6635048 -0.00077043301 -2.1365254e-22)
(2.6760535 0.043359547 4.0370911e-23)
(2.6638124 0.03374003 4.443471e-22)
(2.6575637 0.026343603 1.2652097e-23)
(2.6571114 0.019014577 -2.3131833e-22)
(2.6556154 0.013354208 2.5258266e-23)
(2.6552143 0.0078927315 1.1137746e-22)
(2.6549711 0.0038265121 2.940583e-23)
(2.6561024 0.00038301391 1.6612895e-22)
(2.6568561 -0.002122143 8.821132e-23)
(2.6584002 -0.0038423161 2.2354115e-22)
(2.659492 -0.0047354535 3.4286975e-22)
(2.6610234 -0.0047694925 1.5828335e-22)
(2.6620958 -0.0047108461 1.8242019e-22)
(2.6633729 -0.0040676792 5.2627276e-23)
(2.6643702 -0.0027718988 -2.0820858e-22)
(2.6653312 -0.00091590661 -2.2873e-22)
(2.6774739 0.054870269 -3.8018351e-22)
(2.6622145 0.042942534 3.2413501e-22)
(2.6545543 0.033738011 7.1239726e-22)
(2.6542542 0.024703207 1.5954085e-23)
(2.6525238 0.017664849 -2.0110152e-22)
(2.6520839 0.010903452 1.8115059e-23)
(2.6518494 0.0056474266 1.0700753e-22)
(2.6533043 0.0010501137 4.0630879e-22)
(2.6543011 -0.0023003197 5.4222446e-22)
(2.6562846 -0.0047361729 3.445606e-22)
(2.6577583 -0.0064177174 4.7721264e-22)
(2.6598599 -0.0071618162 2.1120478e-22)
(2.6613309 -0.0072814378 3.3756897e-23)
(2.6630315 -0.0064910871 1.4395264e-22)
(2.6642771 -0.0058612211 2.0044359e-23)
(2.6655504 -0.0046991088 -3.8391609e-22)
(2.6665007 -0.0030638328 -4.0602508e-22)
(2.6672811 -0.00097734761 2.9557069e-22)
(2.6784107 0.068612848 -1.3379369e-21)
(2.6595768 0.053775344 -2.6637473e-22)
(2.6503315 0.042352294 4.044683e-22)
(2.6503136 0.031398089 5.5133261e-22)
(2.6483818 0.022727714 -3.7956324e-23)
(2.6479436 0.014478799 -1.2100886e-22)
(2.6477178 0.0079587551 1.0525865e-22)
(2.6494926 0.0022008607 6.0242809e-23)
(2.6507707 -0.0022426481 3.43812e-22)
(2.6532632 -0.0057034014 3.1086485e-22)
(2.6551475 -0.0081050585 1.1939132e-22)
(2.6578542 -0.0093949657 -2.3977623e-23)
(2.6598603 -0.010151765 -2.8457172e-22)
(2.66226 -0.0098784139 -6.2825033e-23)
(2.6639075 -0.0092267721 4.1186851e-23)
(2.6655693 -0.0076730762 1.3380542e-23)
(2.6668187 -0.0065328085 -3.6950784e-22)
(2.6679114 -0.0049481422 -2.087025e-22)
(2.6686956 -0.0031067517 4.6162663e-22)
(2.6691907 -0.00094008706 2.7219651e-22)
(2.6786668 0.084840506 -5.0980603e-22)
(2.6555811 0.066361507 -1.1881001e-21)
(2.6446268 0.052161917 -2.5233819e-22)
(2.6450924 0.03899752 2.7610453e-22)
(2.6430183 0.028472247 4.4286927e-22)
(2.6426614 0.018674428 1.6134871e-22)
(2.6424962 0.010731751 9.500596e-23)
(2.644621 0.0036826536 -1.65697e-23)
(2.6461771 -0.0018892368 -6.1288387e-23)
(2.6491313 -0.0063905609 3.1780473e-23)
(2.6514912 -0.0097616157 -4.5152106e-24)
(2.6549162 -0.011937971 -5.7894958e-22)
(2.6574871 -0.013267031 -7.2663097e-22)
(2.6606428 -0.013337054 -2.9994481e-22)
(2.6629506 -0.013127706 -8.8729657e-23)
(2.665407 -0.011847949 -1.4348683e-22)
(2.6670296 -0.01047543 -1.7195694e-22)
(2.668439 -0.0082562683 -6.6370847e-24)
(2.6695243 -0.0066984375 1.5168567e-22)
(2.6702718 -0.0048107237 8.7683074e-22)
(2.6707856 -0.0028994117 7.042589e-22)
(2.6709118 -0.00080341912 -2.5535511e-22)
(2.6781176 0.1038654 4.6924575e-21)
(2.6498552 0.080769347 5.0458231e-22)
(2.63702 0.063068058 -2.0254743e-22)
(2.6383698 0.047405659 5.8310783e-23)
(2.636261 0.034749404 5.1003988e-22)
(2.6361565 0.023314065 -4.6537996e-23)
(2.6361436 0.013868955 -3.2185859e-22)
(2.6386444 0.0055655893 2.6473227e-22)
(2.6405094 -0.0012412464 1.6146511e-22)
(2.6438967 -0.0069067669 -1.5728052e-22)
(2.6466864 -0.011291696 -7.040886e-23)
(2.6507712 -0.014419927 3.8610187e-23)
(2.6540096 -0.016584305 -5.0682606e-22)
(2.6580955 -0.017371351 -7.0378719e-22)
(2.6611149 -0.017552024 -2.9810214e-22)
(2.6644618 -0.01637547 -4.4385878e-22)
(2.6668392 -0.015207834 -5.0153952e-22)
(2.6690913 -0.01297694 -5.513899e-22)
(2.6704867 -0.010968989 -3.9883501e-22)
(2.6714397 -0.0082116843 1.9141365e-22)
(2.6722039 -0.0063505335 8.8183214e-22)
(2.6724614 -0.0042935699 6.70064e-23)
(2.6726252 -0.0024442402 -8.5463594e-22)
(2.6723129 -0.00056099667 -1.3110507e-21)
(2.6765148 0.1261123 5.6234187e-21)
(2.6419077 0.097117197 3.0109084e-21)
(2.6268281 0.074942119 -9.9443301e-22)
(2.6298271 0.056417686 -3.9908428e-22)
(2.6279306 0.041339732 -2.0615292e-22)
(2.6283444 0.028218399 -1.0181662e-22)
(2.6286702 0.017184292 -6.4042001e-22)
(2.6316214 0.0076952009 -2.5929923e-22)
(2.6338272 -0.00032478866 2.9896041e-22)
(2.6375407 -0.007115272 1.1708891e-22)
(2.6407368 -0.012609521 -1.841944e-22)
(2.6454169 -0.016879561 -4.3808962e-22)
(2.6492643 -0.019977238 -3.4085459e-22)
(2.6542538 -0.021621249 6.6860246e-23)
(2.658144 -0.022477269 -1.1106717e-22)
(2.6626448 -0.021785833 5.6129142e-22)
(2.665866 -0.020784555 4.3747765e-22)
(2.669106 -0.018369512 -1.4366601e-22)
(2.6713073 -0.016291847 -1.8292004e-22)
(2.6730907 -0.013205848 -3.0167605e-22)
(2.6740637 -0.010675844 2.6054006e-22)
(2.6743731 -0.0075317721 3.4226958e-22)
(2.6746749 -0.0054982888 -4.4028559e-22)
(2.6743319 -0.0034173075 -2.1684752e-21)
(2.6740837 -0.0017497399 -2.6228264e-21)
(2.6732813 -0.00014889686 -6.2109742e-22)
(2.6734271 0.15199155 4.1370034e-21)
(2.6311735 0.11550509 8.7056653e-22)
(2.6133078 0.087639952 -1.687576e-21)
(2.6190166 0.065762824 -6.1583886e-22)
(2.6178489 0.047907953 -4.4098917e-23)
(2.6191516 0.033068705 -7.5619362e-22)
(2.6201248 0.020392093 -6.6592667e-22)
(2.6236594 0.0099191466 -7.8066482e-23)
(2.6262943 0.00076166729 2.9630348e-22)
(2.6302194 -0.0070540769 1.686957e-22)
(2.633729 -0.013629405 -2.2503243e-24)
(2.6388129 -0.019096845 8.5023909e-23)
(2.6432032 -0.023279405 -1.5184923e-22)
(2.6490485 -0.026063186 -5.4283268e-22)
(2.6537781 -0.027765707 -1.5785698e-22)
(2.6594818 -0.02777166 4.0808447e-22)
(2.6637899 -0.027232246 1.0559178e-21)
(2.6683891 -0.024989637 1.6137944e-21)
(2.6715332 -0.022806934 1.0835526e-21)
(2.6743414 -0.019206035 -2.5545841e-22)
(2.6761145 -0.016304772 -3.6941778e-22)
(2.6771721 -0.012502078 -4.5675017e-22)
(2.6775428 -0.0095863175 -3.9358367e-22)
(2.6770484 -0.00622624 3.7558711e-22)
(2.6767767 -0.0041649478 -1.2507747e-21)
(2.6757592 -0.0022130899 -6.1843713e-22)
(2.675038 -0.00079236539 1.3146268e-21)
(2.6737046 0.00037491444 1.9905171e-21)
(2.668086 0.18182424 8.2536016e-21)
(2.6171073 0.13598838 4.2275227e-21)
(2.5958255 0.1009554 1.1258495e-21)
(2.6055176 0.075062638 -2.8136007e-21)
(2.6058206 0.053958549 -1.8135535e-21)
(2.6085131 0.037430063 8.668876e-22)
(2.6105988 0.023090642 2.322948e-22)
(2.6149499 0.011955609 -9.1724554e-22)
(2.6181646 0.0018509029 -3.597621e-22)
(2.6221598 -0.0067321787 5.4453245e-22)
(2.6258844 -0.014278808 4.3209531e-22)
(2.6311072 -0.020949867 6.7859523e-23)
(2.6358553 -0.026277967 1.5189093e-22)
(2.6423493 -0.030413039 1.8384003e-22)
(2.6478637 -0.033205801 -1.8135463e-22)
(2.6548056 -0.034282289 2.8330093e-22)
(2.6602393 -0.03444315 8.2794551e-22)
(2.6663554 -0.032629347 4.2771866e-22)
(2.6707884 -0.030619723 9.5176935e-22)
(2.6751044 -0.026795022 1.1850173e-21)
(2.6778635 -0.023472595 -8.5263093e-23)
(2.679899 -0.018795911 -3.5876962e-22)
(2.6809978 -0.015196888 -4.4441952e-22)
(2.6810969 -0.01085971 -5.3077048e-22)
(2.6807111 -0.0077146113 1.9974321e-22)
(2.679289 -0.0043265568 8.3686598e-22)
(2.678382 -0.0023790676 1.4683287e-21)
(2.676663 -0.00070832023 1.7700213e-21)
(2.6754302 0.00033155057 2.4191994e-21)
(2.673533 0.00090612903 2.0964588e-21)
(2.6580277 0.21571901 -7.1319639e-21)
(2.5988054 0.15860658 5.1999226e-21)
(2.5735823 0.11464334 1.1354759e-21)
(2.5889198 0.083888677 7.7297624e-22)
(2.5916307 0.058882101 -2.9755877e-21)
(2.596397 0.040745924 -1.7599452e-21)
(2.6002304 0.024765277 7.710918e-22)
(2.6057499 0.013434605 3.850635e-24)
(2.6097948 0.002696925 -1.0919108e-21)
(2.6137183 -0.0062385128 7.0507882e-23)
(2.6175381 -0.014508074 9.3436782e-22)
(2.6225335 -0.02225914 4.9193034e-22)
(2.6273853 -0.028724637 1.4687291e-22)
(2.6342079 -0.034408123 4.3027873e-23)
(2.6402999 -0.038497535 6.6639473e-23)
(2.6483468 -0.041018009 1.0018377e-21)
(2.6549276 -0.04221524 1.4621315e-21)
(2.6627336 -0.041257473 7.0261494e-22)
(2.668598 -0.039698684 3.2166988e-22)
(2.6747033 -0.035906766 -6.2718003e-22)
(2.678902 -0.03238828 -4.3076783e-22)
(2.6824977 -0.027023058 8.4226268e-22)
(2.6845471 -0.022656142 5.9181344e-22)
(2.6854785 -0.01708239 -6.3083843e-22)
(2.6856798 -0.012952351 -7.1581978e-22)
(2.6846306 -0.0083039874 -7.9951494e-23)
(2.6833689 -0.005106788 5.218e-22)
(2.6809481 -0.0018950462 1.2992815e-21)
(2.6793753 -0.00021289598 1.5831625e-21)
(2.6769596 0.0010543881 3.8808429e-22)
(2.6751924 0.0015353712 4.9500404e-23)
(2.6727671 0.001479079 5.2489391e-22)
(2.6382017 0.25298584 -7.6226853e-21)
(2.5740311 0.18306911 -9.9628007e-21)
(2.5454565 0.12835566 1.7689112e-21)
(2.5686268 0.091687497 2.7266117e-21)
(2.575091 0.061982957 2.4079196e-21)
(2.5828099 0.042367659 -2.1901691e-21)
(2.5892137 0.024803943 -1.1243544e-21)
(2.5963922 0.013905757 8.8516063e-23)
(2.6016383 0.0029760445 -6.5404919e-22)
(2.6053546 -0.0057064661 -9.6203231e-22)
(2.6091522 -0.014294399 1.3966997e-22)
(2.6134659 -0.022862998 1.3182295e-21)
(2.618072 -0.03034274 9.0772326e-22)
(2.6247514 -0.037700974 3.1448262e-22)
(2.6311038 -0.043263131 2.2255751e-22)
(2.6399971 -0.047634554 9.5296542e-24)
(2.6475835 -0.050228091 8.9155221e-22)
(2.6570956 -0.050624195 6.2616883e-22)
(2.6645434 -0.049911739 -1.0948503e-22)
(2.6727807 -0.046576177 -7.3061958e-22)
(2.6786811 -0.043136401 -1.6486615e-21)
(2.684237 -0.037290208 -1.3738752e-21)
(2.6877872 -0.032290285 -1.914272e-22)
(2.6902044 -0.0255254 5.0542614e-23)
(2.6912261 -0.020274348 -1.1131758e-21)
(2.6907605 -0.014055534 -1.3129934e-21)
(2.6898806 -0.0096013923 -7.1560074e-22)
(2.6875529 -0.0048972242 8.6952058e-22)
(2.6853394 -0.001844822 1.6134871e-21)
(2.6819011 0.00098239163 -1.0459093e-21)
(2.6796565 0.0022928386 -2.2225127e-21)
(2.6765512 0.0030043478 2.1652034e-22)
(2.6742763 0.0028670234 6.7067798e-22)
(2.6713866 0.0020913967 -7.244048e-22)
(2.6037933 0.29185461 2.1238649e-21)
(2.5393251 0.20797001 3.2600213e-21)
(2.5101114 0.14115171 1.1472153e-21)
(2.5439389 0.097789368 3.4990222e-21)
(2.5561395 0.062419228 4.4368987e-21)
(2.5677813 0.041489097 2.1312525e-21)
(2.5777568 0.022525222 -2.2100451e-21)
(2.5872685 0.012804775 -1.1312122e-21)
(2.5942337 0.0022944668 1.8436946e-23)
(2.5976369 -0.0053162705 -6.1764827e-22)
(2.601302 -0.013642752 -9.0965553e-22)
(2.6043919 -0.022599784 -4.7323067e-22)
(2.6083202 -0.030835834 6.3997092e-22)
(2.6142398 -0.039905525 9.0307626e-22)
(2.6203893 -0.047054108 3.4758233e-22)
(2.6296976 -0.053683523 -4.3757887e-22)
(2.6380245 -0.058053399 -6.6578042e-22)
(2.6491461 -0.06038122 -1.1138083e-21)
(2.658177 -0.060993494 -1.3986888e-21)
(2.6687612 -0.058670898 -1.1759369e-21)
(2.676678 -0.055710382 -1.7829168e-21)
(2.684712 -0.049735773 -7.4393633e-22)
(2.6901407 -0.044327145 -4.6710927e-22)
(2.6945359 -0.036483519 -4.0081179e-22)
(2.6969995 -0.030122452 -1.6850282e-22)
(2.6978021 -0.02221443 -4.0679745e-22)
(2.6975135 -0.016310283 -5.8537988e-22)
(2.6954252 -0.009764832 -1.9547022e-22)
(2.6933341 -0.0052267496 1.3183302e-21)
(2.6896681 -0.00074237045 7.7260136e-22)
(2.6864889 0.0019665042 -1.7688409e-21)
(2.6820753 0.0042126006 -6.2264315e-22)
(2.6791718 0.0050296664 1.7191342e-21)
(2.675433 0.0050733284 5.8819957e-22)
(2.6727068 0.004256404 -7.3822782e-22)
(2.669408 0.0027071827 2.9211886e-22)
(2.5550048 0.32993818 -5.32895e-21)
(2.4933975 0.23134464 -4.511557e-21)
(2.4668982 0.15134161 -3.6435544e-21)
(2.513735 0.10088164 -7.9896322e-22)
(2.5345396 0.059153377 1.4041155e-21)
(2.5514783 0.037471739 2.0800614e-21)
(2.5660911 0.017226156 -1.2638472e-22)
(2.578766 0.00957394 -1.1712241e-21)
(2.5881756 0.00020667087 -1.2958298e-22)
(2.5912072 -0.0053236381 -1.7144584e-22)
(2.5946554 -0.012578253 -7.7880007e-22)
(2.5959048 -0.021322785 -1.2938413e-21)
(2.5986408 -0.029894928 -8.9152336e-22)
(2.6030384 -0.040604261 1.0396574e-21)
(2.6083818 -0.049365818 1.3066907e-21)
(2.617504 -0.058632761 7.0085863e-22)
(2.6261377 -0.065161022 -4.8887633e-23)
(2.6386029 -0.070067705 2.4601583e-22)
(2.6491046 -0.072552744 -1.6501817e-22)
(2.6621699 -0.071917586 -1.4008502e-21)
(2.6722929 -0.069970898 -1.1888052e-21)
(2.6832387 -0.064404736 -2.8885248e-21)
(2.6910303 -0.058929008 -1.9120393e-21)
(2.6980764 -0.050219998 -7.3899179e-22)
(2.7024516 -0.042877896 -6.8033929e-22)
(2.7050614 -0.033261793 1.080307e-21)
(2.7060184 -0.025770146 8.7379085e-22)
(2.7048372 -0.01709156 -1.5320773e-21)
(2.7030183 -0.01083132 -1.1834365e-21)
(2.6991769 -0.004327343 7.0651304e-22)
(2.6958125 1.9805655e-05 1.7637987e-22)
(2.6908318 0.0040155966 -7.2133886e-22)
(2.6867202 0.0061979015 3.8381759e-22)
(2.6814192 0.0076892862 -1.7964781e-21)
(2.6779066 0.0078967277 -2.9260642e-21)
(2.6736186 0.0072015219 -9.4238011e-22)
(2.670499 0.0056637527 3.2987202e-23)
(2.6668662 0.0033151852 8.8634968e-22)
(2.4953114 0.36513038 -2.2670602e-21)
(2.4400441 0.25150861 -1.3391316e-21)
(2.4175385 0.15722308 -1.6615063e-22)
(2.477663 0.099210805 -8.9900018e-21)
(2.5098182 0.050768921 -6.2606152e-21)
(2.5342722 0.029370835 8.4832826e-22)
(2.5548553 0.0084891152 1.4233265e-21)
(2.5707876 0.0036546432 4.2754516e-22)
(2.5835527 -0.003801662 -5.3113882e-22)
(2.5867844 -0.0058607023 3.7524263e-23)
(2.5899734 -0.011141368 -9.9767265e-24)
(2.5886719 -0.018878559 -5.768912e-22)
(2.5896328 -0.027201765 -1.0613367e-21)
(2.5916048 -0.039363176 -4.0408661e-22)
(2.5953999 -0.049653886 1.4483124e-21)
(2.6035625 -0.061896951 9.9894529e-22)
(2.6119025 -0.070937852 4.185096e-22)
(2.6252744 -0.079103614 -1.000191e-21)
(2.6369696 -0.084073982 -7.3524339e-22)
(2.652501 -0.085932889 1.5524186e-21)
(2.6649384 -0.085645781 4.0251794e-22)
(2.6791977 -0.08117005 -1.8511256e-22)
(2.6897527 -0.076143262 -1.7836458e-21)
(2.7000937 -0.06700281 -1.6633492e-21)
(2.7070172 -0.058897234 -5.4518683e-22)
(2.7122162 -0.047585738 -1.5617409e-21)
(2.7149382 -0.038504034 9.6574162e-23)
(2.7151914 -0.027522942 -1.5009275e-22)
(2.7142845 -0.019243994 -2.4576924e-21)
(2.7108631 -0.010265972 -7.3440407e-22)
(2.7073775 -0.0039994437 1.0677549e-21)
(2.7017594 0.0020693247 -3.1263923e-22)
(2.697144 0.0059743583 -1.1729891e-21)
(2.690938 0.0092031339 -6.2597373e-22)
(2.6859758 0.01069537 -2.7133902e-21)
(2.6799182 0.011293235 -4.3224849e-21)
(2.6758766 0.010808102 -2.4604497e-21)
(2.671145 0.0093255832 -6.5627879e-22)
(2.6677016 0.007047517 1.4344047e-22)
(2.6638129 0.0038998367 -2.3819462e-21)
(2.4288443 0.3954792 -2.1338561e-21)
(2.3833841 0.26716039 -1.0397973e-21)
(2.3661895 0.15821286 -1.5354469e-22)
(2.4373298 0.091763871 2.8850987e-21)
(2.4818216 0.036070658 -5.2223129e-21)
(2.5160713 0.015895695 -6.5462001e-21)
(2.5445559 -0.0047451204 2.0331274e-22)
(2.5654963 -0.005479049 -5.1725681e-23)
(2.5818302 -0.010117312 -1.018018e-21)
(2.5842513 -0.0075788184 -2.39349e-22)
(2.587679 -0.0094021005 2.9585947e-22)
(2.583473 -0.015087679 1.4706229e-21)
(2.5819738 -0.022441874 9.677829e-22)
(2.5804734 -0.035712479 -6.5755713e-22)
(2.5818441 -0.047355172 -5.3044848e-24)
(2.588107 -0.062846811 -1.0729669e-21)
(2.5953817 -0.074711549 -1.5401731e-21)
(2.609044 -0.086837022 -5.6190212e-22)
(2.6214892 -0.094936341 -1.9371287e-21)
(2.6393116 -0.10018208 -1.6568707e-21)
(2.6540257 -0.10232055 4.9791771e-22)
(2.6718868 -0.099810066 2.1839993e-22)
(2.6855695 -0.095891232 -3.4152392e-22)
(2.6998851 -0.08691077 2.9750874e-21)
(2.7099622 -0.078459816 3.164944e-21)
(2.7185658 -0.065701245 1.4406429e-21)
(2.7237996 -0.055064077 5.0660761e-22)
(2.7263088 -0.041547058 1.1250819e-21)
(2.7268261 -0.031095047 9.2196148e-22)
(2.7242742 -0.019325362 -1.3529929e-21)
(2.7212458 -0.010700697 3.0125221e-22)
(2.7154777 -0.0019615754 1.3827691e-21)
(2.7103011 0.0039235876 7.2639132e-23)
(2.7030083 0.0091819731 2.3473507e-21)
(2.6972167 0.012394689 2.9216854e-21)
(2.6899453 0.014632335 -3.426324e-21)
(2.684255 0.015299651 -4.9657588e-21)
(2.6775996 0.014907044 2.0047357e-21)
(2.6731292 0.013675623 3.7879281e-21)
(2.6680695 0.011385401 2.7471043e-21)
(2.6643771 0.0083692143 3.8995449e-22)
(2.6603127 0.0044446301 -7.5048501e-22)
(2.3608249 0.4197947 -2.9954349e-21)
(2.3273484 0.27752469 -3.084712e-21)
(2.3171611 0.15415965 -2.230198e-21)
(2.3960298 0.078459793 5.6641549e-21)
(2.4514348 0.014628658 8.7590061e-21)
(2.4971788 -0.0035892951 -6.2383114e-22)
(2.5353836 -0.023082267 -1.8585057e-21)
(2.5622881 -0.01855172 -1.9775699e-22)
(2.5840207 -0.01925021 -4.9779564e-22)
(2.5862775 -0.010585536 2.1715847e-22)
(2.5890473 -0.0080167584 9.6166686e-22)
(2.5814129 -0.010139961 5.1236434e-22)
(2.5771281 -0.015271896 1.6366891e-21)
(2.5702155 -0.029281258 9.7296055e-22)
(2.5681589 -0.041907186 -5.5103421e-22)
(2.5714474 -0.060838715 -8.906161e-22)
(2.5767153 -0.075782846 -1.9511035e-21)
(2.5898839 -0.09255384 -2.8164407e-21)
(2.6024614 -0.10444266 -1.91867e-21)
(2.6222188 -0.11403572 1.6860039e-21)
(2.6390169 -0.11944831 2.0267201e-21)
(2.6606268 -0.11991991 1.1116633e-21)
(2.6776883 -0.11794178 8.5977903e-22)
(2.6966032 -0.1099642 -2.0232257e-21)
(2.7104659 -0.10174749 1.1003449e-21)
(2.7234102 -0.087934461 1.6739592e-22)
(2.7319322 -0.075981946 -1.5179645e-21)
(2.7376094 -0.059919025 2.0674131e-21)
(2.7403424 -0.047100376 2.693483e-21)
(2.7394335 -0.032044139 4.0586725e-21)
(2.7373061 -0.020758168 1.9476094e-21)
(2.7316907 -0.0089069372 8.3085204e-22)
(2.7264231 -0.00045927739 1.8556359e-21)
(2.7183635 0.0074924297 1.3034312e-21)
(2.7115856 0.012651019 3.483256e-21)
(2.7028076 0.01673324 2.9197065e-21)
(2.6959923 0.019030705 -3.109228e-21)
(2.6878706 0.020111256 -2.6335611e-21)
(2.6816024 0.019857122 4.0227174e-21)
(2.6745238 0.018422523 4.7838176e-21)
(2.6697345 0.016420702 3.8113865e-21)
(2.664464 0.013330991 2.3536564e-21)
(2.6605993 0.0095986465 1.3008018e-21)
(2.6564375 0.0049428065 1.1163373e-21)
(2.2961148 0.43772841 0)
(2.2756839 0.28232106 -1.276304e-21)
(2.2736454 0.14516681 -1.3334648e-21)
(2.357149 0.059867332 2.6206914e-21)
(2.4208383 -0.013032441 1.0199968e-20)
(2.47854 -0.029293615 6.7220621e-21)
(2.5275829 -0.047015786 -2.2729027e-21)
(2.5616402 -0.036019622 7.8582998e-22)
(2.5900025 -0.031624258 2.3756244e-21)
(2.5923623 -0.01475852 1.0786903e-22)
(2.5951501 -0.0061433172 7.8270884e-22)
(2.582139 -0.0037604895 7.0624559e-22)
(2.5745703 -0.0055969652 2.821927e-22)
(2.5622413 -0.019499565 5.900395e-22)
(2.554948 -0.032754605 -7.2339214e-23)
(2.553913 -0.055292129 5.0480815e-21)
(2.5560919 -0.073451529 4.7376762e-21)
(2.5678437 -0.09553602 -6.3200028e-22)
(2.5797738 -0.11185872 -1.4329633e-21)
(2.6009345 -0.12677702 -6.6574552e-22)
(2.619451 -0.13637231 2.7940003e-21)
(2.6447715 -0.14096893 3.1052382e-21)
(2.665324 -0.14190081 2.2557745e-21)
(2.689365 -0.13597693 -1.0478049e-21)
(2.7075855 -0.12880009 -3.8212258e-21)
(2.7258418 -0.11462079 -3.2248938e-21)
(2.7385357 -0.10175057 -4.1664117e-21)
(2.7485085 -0.08322328 -2.4676711e-21)
(2.7543349 -0.068028238 9.2272592e-22)
(2.7559711 -0.049371308 -3.2953705e-22)
(2.7554972 -0.034981095 9.192412e-22)
(2.7506606 -0.019287115 1.2394081e-21)
(2.7456175 -0.0078376471 1.7446997e-22)
(2.7369084 0.003313902 3.6787773e-21)
(2.729462 0.011055508 3.1831019e-21)
(2.7193311 0.017697024 1.1313461e-21)
(2.7111234 0.021788096 5.5907649e-22)
(2.7011436 0.024429512 -1.4350649e-21)
(2.6935066 0.025640811 -9.5700136e-22)
(2.6847798 0.02546045 3.0263927e-21)
(2.6780992 0.024230686 3.7326578e-21)
(2.6707758 0.021746778 1.3722921e-21)
(2.6657792 0.018978797 -5.0846887e-23)
(2.66041 0.015122935 -1.5374776e-21)
(2.6564482 0.010717708 -1.7564569e-21)
(2.6522608 0.0053919507 -1.733868e-21)
(2.2389931 0.44959454 5.3708194e-21)
(2.2307922 0.28168086 -1.6350465e-22)
(2.2375164 0.1316559 -1.301595e-21)
(2.3234653 0.036578172 -6.8992557e-21)
(2.3926566 -0.045776433 -3.2320922e-21)
(2.4615531 -0.060724278 5.1209602e-21)
(2.5213002 -0.076609218 1.6951969e-21)
(2.563733 -0.058295072 7.4622742e-21)
(2.6003067 -0.047661473 1.0524633e-20)
(2.6032899 -0.020586316 6.7110891e-21)
(2.6062966 -0.0040021417 4.6262566e-21)
(2.5872721 0.0045201903 -1.0390426e-22)
(2.5745688 0.0071667403 -1.8432854e-22)
(2.5550545 -0.0059511577 -1.9497417e-21)
(2.5424418 -0.019017971 -1.7071336e-21)
(2.5360078 -0.045430132 3.4744277e-22)
(2.5337109 -0.06706223 5.1741598e-21)
(2.5430369 -0.095081968 1.1549243e-21)
(2.5534053 -0.11646106 -4.0031387e-21)
(2.5752794 -0.1376628 6.0334541e-22)
(2.5949838 -0.1523625 1.3645683e-21)
(2.6237628 -0.16228784 4.9157045e-21)
(2.6477403 -0.16721191 5.2450998e-21)
(2.6772638 -0.16460967 2.7589862e-21)
(2.7003118 -0.15947897 -3.7476289e-22)
(2.7248425 -0.1458921 -1.5311995e-21)
(2.7426162 -0.13276724 -9.1605049e-22)
(2.7581627 -0.11215836 -4.7899238e-21)
(2.76816 -0.094694538 -3.1863071e-21)
(2.7735414 -0.072113681 -2.0746447e-21)
(2.7755975 -0.054314575 -3.3115094e-21)
(2.772305 -0.034156338 -3.711246e-23)
(2.7681075 -0.01903755 2.644565e-22)
(2.7591514 -0.0037728519 8.6974445e-22)
(2.7511539 0.0070535715 4.2089653e-21)
(2.7395882 0.016777759 -6.8554002e-22)
(2.7301393 0.023329291 -2.6930904e-21)
(2.7182925 0.02821535 -3.1568027e-21)
(2.7089228 0.030965968 -5.1091279e-21)
(2.6980816 0.031987504 -2.7274325e-21)
(2.6898551 0.032004959 1.0269178e-21)
(2.6807783 0.030524459 1.3353876e-21)
(2.6738551 0.02830726 -9.4255395e-22)
(2.6664573 0.024806526 1.8553436e-22)
(2.6613606 0.021301525 -1.2219619e-21)
(2.6559955 0.016733018 5.1232292e-22)
(2.6520052 0.011712019 5.6917749e-22)
(2.6478551 0.0057872063 2.7960633e-22)
(2.1929529 0.45655922 1.2470023e-20)
(2.1936108 0.27688178 -8.2424987e-21)
(2.2082144 0.11459693 -1.3647691e-20)
(2.2952443 0.0097726031 -1.6999612e-21)
(2.3677654 -0.082173846 -7.0251206e-21)
(2.4475324 -0.096539406 9.6392312e-22)
(2.5166763 -0.11104188 8.9082431e-21)
(2.5675168 -0.085382521 1.2800312e-20)
(2.6140094 -0.067719909 1.8457751e-20)
(2.6194123 -0.02826889 7.3091782e-21)
(2.6229935 -0.0017158584 3.6343334e-21)
(2.5974424 0.014617092 3.3933303e-21)
(2.5789696 0.023285612 -1.1204578e-21)
(2.5506653 0.011533326 -5.2325963e-22)
(2.5309748 -0.00073724423 -2.1759744e-21)
(2.5176721 -0.030767418 3.233608e-21)
(2.509804 -0.055931421 5.2644374e-21)
(2.5156012 -0.090557038 4.7501368e-21)
(2.5234104 -0.11759698 8.7322632e-22)
(2.5452098 -0.14596684 -3.1815139e-21)
(2.5654258 -0.16667571 1.2073455e-21)
(2.5971896 -0.18312103 2.5964177e-21)
(2.6243237 -0.19317336 5.9892044e-21)
(2.6594362 -0.19531462 2.3029354e-21)
(2.6876108 -0.19343376 -1.1479352e-22)
(2.7192788 -0.18173179 5.6107513e-21)
(2.743018 -0.16927886 4.6185089e-21)
(2.7655496 -0.14726644 6.3472537e-21)
(2.78093 -0.12791043 2.7828671e-21)
(2.7915252 -0.10132743 -3.3093077e-21)
(2.7972717 -0.079841524 -2.2553889e-21)
(2.796622 -0.054449948 -2.3529401e-21)
(2.7940277 -0.035059975 7.3548041e-22)
(2.7853173 -0.014807304 2.6285892e-21)
(2.7771703 -6.0676276e-06 3.256294e-21)
(2.7642545 0.013746676 1.3366879e-21)
(2.7535118 0.023290323 -3.3551676e-21)
(2.739509 0.030851001 2.7716172e-22)
(2.7284028 0.035781793 -1.1658771e-22)
(2.7153045 0.038612711 -6.0982371e-21)
(2.7050947 0.039839514 -3.8518909e-21)
(2.6937539 0.0391589 -8.3449684e-21)
(2.6851805 0.03793847 -8.1978288e-21)
(2.6759998 0.035179508 -5.2378382e-22)
(2.6689965 0.032001644 5.5407058e-22)
(2.6616782 0.027549342 -2.8286909e-21)
(2.6565796 0.023356769 -1.2068211e-21)
(2.6513079 0.018144167 7.7143294e-21)
(2.6473496 0.012572927 7.5499599e-21)
(2.6432902 0.0061256064 2.5347863e-21)
(2.1591574 0.46018168 9.402543e-22)
(2.1645374 0.26944003 9.3321979e-21)
(2.1838861 0.09557345 -1.0397646e-20)
(2.2704317 -0.018545441 -1.1725371e-20)
(2.3447965 -0.12012239 -3.4190007e-22)
(2.4335433 -0.13460325 1.343252e-21)
(2.5113551 -0.14871511 9.047168e-21)
(2.5714796 -0.11607486 -1.6629787e-20)
(2.6284464 -0.091448932 -1.3445509e-20)
(2.6379287 -0.037802161 -6.2955658e-21)
(2.6435294 0.0006740925 -1.7285449e-20)
(2.6128377 0.026671722 3.2820185e-21)
(2.5880421 0.043063114 3.0390052e-21)
(2.5493866 0.033416289 6.3249179e-22)
(2.5211546 0.022677135 1.2559102e-21)
(2.4994211 -0.011079409 -1.170764e-21)
(2.4845275 -0.039688019 3.9156704e-21)
(2.4857302 -0.081446301 5.8421677e-21)
(2.4898897 -0.11472399 5.3141135e-21)
(2.5107736 -0.15106176 2.3989321e-21)
(2.5307429 -0.17860715 -1.4284545e-21)
(2.5648241 -0.20267633 5.285899e-21)
(2.5946414 -0.21897933 6.6931129e-21)
(2.6351537 -0.2273707 -8.5945315e-22)
(2.66851 -0.23008531 -4.4915651e-21)
(2.7079666 -0.22186117 -1.1348136e-20)
(2.7384456 -0.21131445 -6.0774716e-21)
(2.7694226 -0.18900396 7.555542e-21)
(2.7915106 -0.16842552 9.2441024e-21)
(2.8090903 -0.13800805 1.0239957e-20)
(2.8199398 -0.11277497 4.57159e-21)
(2.8233913 -0.081498604 -3.9318623e-21)
(2.8234881 -0.057122076 -4.0853593e-21)
(2.8158085 -0.03070278 3.029841e-21)
(2.8080323 -0.01106317 4.8785843e-21)
(2.7939076 0.0077134599 3.7701902e-21)
(2.7819839 0.021163904 1.9700123e-21)
(2.7656302 0.032367647 2.6715687e-21)
(2.752525 0.039951762 6.216865e-21)
(2.7367033 0.044883611 1.4720799e-21)
(2.7243759 0.047882631 -4.1837174e-21)
(2.7105337 0.048502297 1.7645303e-21)
(2.6998281 0.048115891 -2.4114717e-21)
(2.6883413 0.045744297 -6.8957768e-21)
(2.6796557 0.043301368 4.123336e-22)
(2.6705937 0.039336929 3.2568244e-21)
(2.6636572 0.035257184 8.6653288e-23)
(2.6565498 0.029943048 -2.6005212e-21)
(2.6515349 0.025127533 5.8489816e-21)
(2.6464305 0.019349178 6.5707398e-21)
(2.6425554 0.013298338 1.7934187e-21)
(2.63863 0.0064071031 8.4889429e-22)
(2.1360936 0.46171658 -1.1464887e-20)
(2.1436659 0.26085873 -5.3783226e-21)
(2.1640752 0.076118017 2.4673918e-21)
(2.2485286 -0.047064254 2.1046737e-20)
(2.3230748 -0.15774151 2.0293134e-20)
(2.4170191 -0.17300848 2.4543673e-20)
(2.5016291 -0.18745287 2.6544899e-20)
(2.5698072 -0.14842952 1.0287802e-20)
(2.63825 -0.11749638 -1.4183967e-20)
(2.6541055 -0.048553391 -1.1921119e-20)
(2.6630478 0.0032185079 -5.0946049e-21)
(2.6304096 0.041028551 -1.6337206e-20)
(2.6005069 0.066834462 3.210936e-21)
(2.5510525 0.060099206 5.4758754e-21)
(2.5129299 0.051652927 3.2286558e-21)
(2.4815355 0.01412592 -4.7817421e-21)
(2.457962 -0.017870307 -7.150415e-21)
(2.453463 -0.067347942 -1.1961225e-20)
(2.4529082 -0.10740164 -1.0338027e-20)
(2.4720759 -0.15240221 4.4007403e-21)
(2.4909992 -0.18752788 1.6169951e-21)
(2.5265779 -0.22013639 3.2512098e-22)
(2.5584306 -0.24372127 6.7833941e-21)
(2.6038056 -0.25985607 2.8334078e-21)
(2.6421147 -0.26858901 -4.4136034e-21)
(2.6897144 -0.26574415 -1.7736171e-20)
(2.727486 -0.25862197 -2.4452909e-20)
(2.7683484 -0.23758355 -1.8717765e-20)
(2.7984953 -0.21684855 -5.945884e-21)
(2.825103 -0.18318851 5.1072072e-21)
(2.8427417 -0.15440064 5.9875924e-21)
(2.852191 -0.11669378 1.2292861e-20)
(2.8564108 -0.086718319 4.3384146e-21)
(2.8509477 -0.052905817 -1.2809589e-21)
(2.844361 -0.027304135 5.4927401e-21)
(2.8293455 -0.002036645 7.1779374e-21)
(2.8164082 0.016272723 6.2023968e-21)
(2.7974524 0.032136874 -1.0161941e-21)
(2.7821764 0.043269531 -3.9618404e-22)
(2.7631828 0.05112407 8.3606218e-21)
(2.7483012 0.056244938 3.8882074e-21)
(2.7313748 0.058275483 -7.1829371e-21)
(2.7183093 0.059175042 -1.578436e-21)
(2.704229 0.057570156 1.7503488e-21)
(2.6933651 0.055571905 -2.4464077e-21)
(2.6820531 0.051600359 4.4743856e-21)
(2.6734679 0.048000695 7.2391475e-21)