/*--------------------------------*- C++ -*----------------------------------*\
| =========                 |                                                 |
| \\      /  F ield         | OpenFOAM: The Open Source CFD Toolbox           |
|  \\    /   O peration     | Version:  v2012                                 |
|   \\  /    A nd           | Website:  www.openfoam.com                      |
|    \\/     M anipulation  |                                                 |
\*---------------------------------------------------------------------------*/
FoamFile
{
    version     2.0;
    format      ascii;
    class       surfaceScalarField;
    location    "25.623820540314586";
    object      meshPhi;
}
// * * * * * * * * * * * * * * * * * * * * * * * * * * * * * * * * * * * * * //

dimensions      [0 3 -1 0 0 0 0];
oriented        oriented;


internalField   nonuniform List<scalar> 
18180
(
5.7680183e-14
-0.018555934
5.7706044e-14
-0.017240125
0
-0.035537308
0
-0.016160806
0
-0.033099246
1.4196464e-17
-0.051721528
2.8892125e-14
-0.01527603
0
-0.030859654
0
-0.048086879
-5.1201183e-14
-0.067209346
2.8914772e-14
-0.014538794
0
-0.029017496
1.4104951e-17
-0.044829374
0
-0.062666636
0
-0.082025808
-2.8937925e-14
-0.013887953
0
-0.027479013
-2.6683735e-14
-0.04193515
0
-0.058362621
0
-0.076563994
4.7295575e-14
-0.096075594
0
-0.01326168
0
-0.02609181
6.8765597e-18
-0.039406236
2.563879e-14
-0.054444461
0
-0.071349723
0
-0.089662176
1.1641427e-17
-0.10921536
0
-0.012644073
2.7830463e-14
-0.024797724
0
-0.037182364
-2.5646617e-14
-0.050947059
2.4629727e-14
-0.066437149
0
-0.083517176
0
-0.10197926
0
-0.12159239
0
-0.012031105
2.7849324e-14
-0.023545902
0
-0.035128074
-2.5668369e-14
-0.047814212
-2.4636648e-14
-0.061966776
0
-0.077682587
0
-0.09499632
0
-0.11355925
0
-0.13307789
2.9023767e-14
-0.011424654
-2.7859492e-14
-0.022325089
2.674378e-14
-0.033183771
-2.5677148e-14
-0.044976482
0
-0.057994899
-4.7366922e-14
-0.072361323
0
-0.088385189
0
-0.1059279
0
-0.1244316
0
-0.14376609
-2.904206e-14
-0.010828077
2.7884231e-14
-0.021133537
2.6766477e-14
-0.031314888
2.5698616e-14
-0.042341858
-4.9348074e-14
-0.054437877
-5.9552296e-18
-0.067648865
2.2763261e-14
-0.082370871
-2.1861243e-14
-0.098727384
4.2016529e-14
-0.11625766
0
-0.13452107
0
-0.15357124
0
-0.010243847
0
-0.019975537
8.0337619e-14
-0.029510381
-2.5706569e-14
-0.03984835
2.469099e-14
-0.051170953
-2.3706574e-14
-0.063429776
2.276974e-14
-0.076967366
-2.1872387e-14
-0.092094311
0
-0.1085706
0
-0.12590145
0
-0.14384205
3.7302576e-14
-0.16259005
0
-0.0096743991
2.7914448e-14
-0.01885462
0
-0.02776812
-2.572021e-14
-0.037467338
-2.469808e-14
-0.048111558
0
-0.059565979
0
-0.072113616
2.1884134e-14
-0.086104602
0
-0.10145426
-2.0209064e-14
-0.11780139
-3.8817941e-14
-0.13481724
0
-0.15238134
7.289772e-18
-0.17078264
4.8406331e-18
-0.0091201064
-4.0161353e-18
-0.01777304
0
-0.026091409
0
-0.035187354
0
-0.045213269
-2.3732146e-14
-0.055961594
-2.2800355e-14
-0.06768083
0
-0.080659201
2.1035035e-14
-0.094889758
-2.0214706e-14
-0.11020714
3.8846206e-14
-0.12633548
0
-0.14300538
0
-0.16017244
3.448634e-14
-0.17824142
-1.4545415e-14
-0.0085820029
-1.396583e-14
-0.016732512
-3.3036778e-18
-0.024483918
0
-0.033006009
0
-0.042458411
0
-0.052554608
2.2806652e-14
-0.063536606
4.3821917e-14
-0.075642522
0
-0.088846416
0
-0.103117
0
-0.11833664
-4.3090481e-18
-0.13420387
0
-0.15047372
3.4490022e-14
-0.1672384
-3.3156928e-14
-0.18497272
0
-0.0080614839
-1.3971248e-14
-0.015734714
-1.3412167e-14
-0.022949524
0
-0.030926205
0
-0.039839877
0
-0.049321189
-2.2818135e-14
-0.059622968
0
-0.07097716
-4.2127606e-14
-0.083292101
0
-0.096540983
1.9439946e-14
-0.11079298
1.868443e-14
-0.12587336
0
-0.1414052
0
-0.15726805
0
-0.17364532
5.4076694e-18
-0.19107867
0
-0.0075598422
0
-0.014780573
-1.3417068e-14
-0.021491564
0
-0.028950305
-1.2375037e-14
-0.03735612
0
-0.046251952
0
-0.055907093
0
-0.066585781
0
-0.078140153
0
-0.090468374
-3.8907227e-14
-0.10371965
4.4408626e-18
-0.11794716
1.7965573e-14
-0.13280493
-3.6133164e-18
-0.14797562
6.3262684e-18
-0.16342564
0
-0.17943639
-3.0668418e-14
-0.19656814
-4.8975378e-18
-0.0070784879
-1.3980483e-14
-0.01386973
-2.6846188e-14
-0.02011261
1.2890405e-14
-0.027081176
-1.2376465e-14
-0.03500693
1.1887744e-14
-0.04334353
0
-0.052376978
0
-0.062425554
0
-0.073308296
0
-0.084851321
0
-0.097165914
-1.8702157e-14
-0.11046647
0
-0.12460328
0
-0.13917332
0
-0.1539452
0
-0.16901296
0
-0.18466486
-2.949833e-14
-0.20151033
0
-0.0066184227
-4.1052861e-18
-0.013002065
3.1850242e-18
-0.018813573
0
-0.025319338
1.2383901e-14
-0.032789675
0
-0.04059456
0
-0.049027685
0
-0.058477305
0
-0.068747312
2.0270845e-14
-0.079617846
0
-0.091138568
-1.8717819e-14
-0.10353263
0
-0.11683114
-1.7286777e-14
-0.13076792
1.6613742e-14
-0.14499477
3.0092839e-18
-0.1593888
5.2176565e-18
-0.17406682
0
-0.18937059
3.9404633e-18
-0.20593423
4.8849132e-18
-0.0061809171
0
-0.01217648
-1.3432178e-14
-0.017593099
-1.2894949e-14
-0.023664009
1.2384448e-14
-0.030700616
1.1899133e-14
-0.038000461
0
-0.0458573
0
-0.054732441
0
-0.064424498
0
-0.074693998
-1.9484238e-14
-0.085547391
0
-0.097136132
0
-0.10958541
0
-0.12278554
1.6621106e-14
-0.13645384
0
-0.15034116
0
-0.16434632
0
-0.1786497
0
-0.19360409
0
-0.20990757
0
-0.0057665269
0
-0.011393004
0
-0.016448858
0
-0.022112496
0
-0.028734409
2.9323089e-18
-0.035556912
1.1435083e-14
-0.042864141
-1.0984365e-14
-0.051187524
0
-0.060326645
0
-0.070032
0
-0.080299489
0
-0.091221764
0
-0.10291463
0
-0.11532912
1.6635852e-14
-0.1283233
-1.5989151e-14
-0.14171419
2.909101e-18
-0.15523658
0
-0.16886735
0
-0.18278259
0
-0.19740344
-2.6259756e-14
-0.21344836
0
-0.0053761151
1.3997772e-14
-0.010652538
0
-0.015377567
2.5805366e-14
-0.020661478
0
-0.026886397
0
-0.033258256
-1.143588e-14
-0.040045292
2.8119206e-18
-0.047840342
0
-0.056447167
-2.6204212e-18
-0.065608492
0
-0.075338624
0
-0.085694738
0
-0.096727755
0
-0.10841507
0
-0.12069592
0
-0.13348226
0
-0.14655898
-1.4779851e-14
-0.15972989
0
-0.17297539
0
-0.18652386
0
-0.2008026
-2.5264532e-14
-0.21659598
-2.4189558e-18
-0.005009695
0
-0.0099554521
1.34375e-14
-0.014376304
3.1040862e-18
-0.019306494
0
-0.02514975
-1.1908969e-14
-0.031099028
0
-0.03739652
0
-0.044688473
1.0565612e-14
-0.052782649
1.0154024e-14
-0.061413496
9.7564263e-15
-0.070626134
0
-0.080464592
0
-0.090919548
-1.7326165e-14
-0.10196847
0
-0.11359282
0
-0.12574204
0
-0.13828191
1.4790399e-14
-0.15104323
2.4698503e-18
-0.16385106
-1.3668084e-14
-0.17672552
0
-0.1898876
0
-0.20383344
0
-0.2193832
0
-0.0046669959
-7.0011511e-15
-0.0093007034
1.344287e-14
-0.013441089
0
-0.018041548
0
-0.023518392
0
-0.029071884
0
-0.034913209
0
-0.041728696
-2.1132506e-14
-0.049330558
1.0157812e-14
-0.057442694
2.5140172e-18
-0.066147913
-2.4275337e-18
-0.075496025
0
-0.085429636
0
-0.09590866
1.6668239e-14
-0.10693519
0
-0.11850171
3.4506876e-18
-0.1304902
-1.4801248e-14
-0.14275356
1.4228063e-14
-0.15518664
2.7357672e-14
-0.1676482
0
-0.18013877
-2.5286871e-14
-0.19292265
0
-0.20652689
-2.3389945e-14
-0.22184856
-7.2922394e-15
-0.0043471992
-7.0000006e-15
-0.0086869434
-6.7224171e-15
-0.012567837
0
-0.016860746
0
-0.021985976
0
-0.027170005
0
-0.032589986
0
-0.038956061
-1.056937e-14
-0.046086347
1.0158622e-14
-0.053693453
0
-0.061898744
9.388217e-15
-0.070770264
0
-0.080215245
0
-0.09017402
0
-0.10064646
-1.6028706e-14
-0.11167504
0
-0.12317465
1.4815331e-14
-0.13494378
0
-0.14691947
0
-0.15903237
2.6320305e-14
-0.17113064
0
-0.18324697
2.8720558e-18
-0.19563224
0
-0.20891314
0
-0.22401362
-2.3909336e-18
-0.0040492627
7.0028969e-15
-0.0081129279
6.7232833e-15
-0.011752298
-6.4564641e-15
-0.015757956
1.2403432e-14
-0.020546971
0
-0.02538685
0
-0.03041952
0
-0.036363138
0
-0.043044499
-1.0161752e-14
-0.050162415
2.5335927e-18
-0.057876493
2.4962221e-18
-0.066281831
-9.0263323e-15
-0.075255907
-8.6795789e-15
-0.084724798
0
-0.094683081
0
-0.10518964
0
-0.11622458
0
-0.12760312
0
-0.13914235
1.3701332e-14
-0.15080981
0
-0.16257856
1.9367711e-18
-0.17432901
0
-0.18605983
0
-0.19806419
0
-0.21101427
2.1660952e-14
-0.22589946
0
-0.0037719302
7.001519e-15
-0.0075768095
0
-0.010990714
-6.4557118e-15
-0.014727933
-1.6608401e-18
-0.019196875
0
-0.023716225
0
-0.028394629
0
-0.033941762
0
-0.040197063
-1.0167203e-14
-0.046845081
9.7733867e-15
-0.054080271
-9.3929612e-15
-0.062029013
9.0325604e-15
-0.070543687
0
-0.079542243
0
-0.089013309
1.6048091e-14
-0.099019351
0
-0.10957094
1.4836403e-14
-0.12058271
0
-0.13182878
0
-0.14309193
0
-0.15442305
0
-0.16585913
1.7827073e-18
-0.17725907
-1.1716438e-14
-0.18861423
0
-0.20022287
0
-0.21285618
0
-0.22753765
0
-0.003513899
2.0925376e-18
-0.0070764078
-1.6025857e-18
-0.010279562
0
-0.013765886
-6.2016159e-15
-0.017931684
-1.4283287e-18
-0.022152782
0
-0.026507692
-1.1007048e-14
-0.031683613
0
-0.037535774
0
-0.04373583
-9.7761975e-15
-0.050507094
0
-0.058010394
0
-0.066076022
0
-0.074616188
8.3526495e-15
-0.083616398
8.0285122e-15
-0.093146628
0
-0.10321273
0
-0.11379065
0
-0.12477409
0
-0.13583149
0
-0.14678274
0
-0.15777308
1.2192135e-14
-0.16888541
-1.1724074e-14
-0.17994914
0
-0.19092453
0
-0.20214759
0
-0.21445991
0
-0.22894857
0
-0.0032736785
0
-0.006609457
1.6096016e-18
-0.0096150015
6.4570071e-15
-0.012867552
0
-0.016747488
-5.9589518e-15
-0.020690857
0
-0.024750124
0
-0.02957953
1.0578963e-14
-0.035050763
-1.0169403e-14
-0.040827252
9.7761974e-15
-0.04715256
0
-0.054223977
0
-0.061851031
-8.6887991e-15
-0.069943646
2.201324e-18
-0.07848146
8.0347814e-15
-0.087552439
-7.7253676e-15
-0.097157722
0
-0.10726639
0
-0.11790297
1.3736717e-14
-0.12882065
0
-0.13961078
1.2694294e-14
-0.15021001
0
-0.1608839
1.1732073e-14
-0.17168162
1.5073604e-18
-0.18240883
-1.2176749e-18
-0.19301362
0
-0.20383796
0
-0.21584964
1.0829001e-18
-0.23015798
0
-0.0030495828
0
-0.0061732963
0
-0.0089943862
-6.4575308e-15
-0.012028962
-6.2044466e-15
-0.015640299
0
-0.019325168
-5.7267171e-15
-0.02311315
-1.3877908e-18
-0.027619971
0
-0.03273218
0
-0.03810992
-9.7784657e-15
-0.044010357
0
-0.0506657
0
-0.057866226
0
-0.065522447
0
-0.073604657
8.0386672e-15
-0.0822247
-7.7275258e-15
-0.091397667
-1.9634782e-18
-0.10106366
0
-0.11128743
0
-0.12195483
1.3214041e-14
-0.13267971
0
-0.14315041
1.2212624e-14
-0.15342422
0
-0.16377262
-1.6743887e-18
-0.17425419
1.3844391e-18
-0.18465876
1.0439289e-14
-0.19489024
0
-0.20533361
0
-0.21704824
0
-0.23117773
-1.3933848e-05
-0.003333255
7.003115e-15
-0.0057640648
0
-0.0084149458
0
-0.011246398
1.626311e-18
-0.014606914
5.9600816e-15
-0.018050326
-1.252746e-18
-0.02158899
0
-0.025795447
5.2911599e-15
-0.030569292
0
-0.03557376
0
-0.041072776
9.4063396e-15
-0.047329827
0
-0.054117348
8.6948678e-15
-0.06134985
0
-0.068983273
0
-0.077155335
2.1122847e-18
-0.085912974
-7.4344933e-15
-0.095166793
-7.1508841e-15
-0.10495988
0
-0.11530128
0
-0.12589026
1.2715079e-14
-0.1363482
-1.2225431e-14
-0.14649759
2.3508883e-14
-0.15642612
0
-0.16644916
-1.5468739e-18
-0.17662427
1.2705504e-18
-0.18671287
-1.0048118e-14
-0.19658025
-1.9326512e-14
-0.20664221
0
-0.21807632
0
-0.2320395
-2.3373086e-05
-0.0033155251
-3.8916763e-05
-0.0062638737
-6.726216e-15
-0.0078711816
6.4583667e-15
-0.010516449
0
-0.013643042
5.9619598e-15
-0.016861346
-5.7290767e-15
-0.02017007
5.5050636e-15
-0.024096628
0
-0.028551673
-1.2724292e-18
-0.03320845
0
-0.038330446
0
-0.044208096
-9.0445174e-15
-0.050598147
0
-0.057421261
-8.3661977e-15
-0.064614653
8.0454712e-15
-0.072341037
-7.734936e-15
-0.080687916
-1.4876708e-14
-0.08954687
0
-0.098934588
0
-0.10892814
0
-0.11929535
0
-0.12967191
2.9710747e-18
-0.13983614
0
-0.14963966
0
-0.15922345
1.7219625e-18
-0.16892061
-1.0458027e-14
-0.17880428
0
-0.1885877
9.6701094e-15
-0.19809874
0
-0.20779541
0
-0.21895951
-1.7218739e-14
-0.23275353
-2.8844163e-05
-0.0032984079
-6.5382541e-05
-0.0062618986
-5.821492e-05
-0.0085024836
0
-0.0098332004
0
-0.012744442
5.9623469e-15
-0.015753483
1.2597839e-18
-0.018849082
0
-0.022514628
-5.2924625e-15
-0.0266704
0
-0.031003696
-1.2383583e-18
-0.035773979
0
-0.041291183
0
-0.047299195
0
-0.053729504
0
-0.060494574
8.046209e-15
-0.067779051
7.7403822e-15
-0.075715683
0
-0.084189071
2.0920803e-18
-0.093190657
0
-0.1028107
-6.62088e-15
-0.11291109
0
-0.12315815
0
-0.13328881
0
-0.1431272
-1.1319538e-14
-0.15257671
-1.0886305e-14
-0.16181413
-1.0465986e-14
-0.17121124
1.0063981e-14
-0.18080542
1.0651799e-18
-0.19029628
9.3076602e-15
-0.19946327
0
-0.20880675
0
-0.21971638
1.6575812e-14
-0.23334484
-3.0879974e-05
-0.0032824673
-8.0816047e-05
-0.0062588077
-9.7977242e-05
-0.0085363976
-7.2935689e-05
-0.010536844
0
-0.011903755
0
-0.014721651
0
-0.017619607
-5.504644e-15
-0.021042386
-5.2944139e-15
-0.02491678
1.2571055e-18
-0.028949439
0
-0.033393125
9.4091275e-15
-0.038567629
0
-0.044209874
0
-0.050265213
-8.3688888e-15
-0.05661631
8.0510423e-15
-0.063465954
7.7411181e-15
-0.070993854
-7.4451676e-15
-0.079079436
-7.1626007e-15
-0.087695872
0
-0.096932185
0
-0.10671891
6.3692915e-15
-0.11679845
0
-0.12687109
0
-0.13671605
1.1331751e-14
-0.14621783
0
-0.15532362
1.0475504e-14
-0.16423999
-1.0074618e-14
-0.17332444
-9.6877198e-15
-0.1826403
-9.3152938e-15
-0.19185249
8.9591648e-15
-0.20068961
0
-0.20970799
0
-0.22037006
1.59569e-14
-0.23381799
-3.000314e-05
-0.003267867
-8.6653776e-05
-0.0062560192
-0.00012132489
-0.0085655062
-0.00012282319
-0.01060007
-8.6222836e-05
-0.012645466
0
-0.013754571
0
-0.016475322
0
-0.01967172
-5.2934577e-15
-0.023283285
-1.2501095e-18
-0.027035754
0
-0.031176335
-9.4119096e-15
-0.036025833
9.0514439e-15
-0.041317614
0
-0.047016615
0
-0.052971952
0
-0.059396857
0
-0.066520584
7.448128e-15
-0.074215777
7.1659228e-15
-0.082444531
0
-0.091296252
6.6288155e-15
-0.10072977
6.3752894e-15
-0.11056308
0
-0.12057455
0
-0.13044256
0
-0.1399623
-1.0903431e-14
-0.14912765
0
-0.15791049
0
-0.16649408
1.3758073e-18
-0.17527509
0
-0.18432106
0
-0.19327108
-1.7248792e-14
-0.20179834
0
-0.21051159
0
-0.22093189
0
-0.23419528
-2.6739598e-05
-0.0032548097
-8.4319591e-05
-0.0062535555
-0.00013030726
-0.0085919906
-0.00015215789
-0.010654658
-0.00014507155
-0.012735624
-9.8078965e-05
-0.014511584
0
-0.015404551
0
-0.01839468
0
-0.021761221
-5.0897718e-15
-0.02525305
-1.2269522e-18
-0.029112333
9.4131653e-15
-0.033654182
4.5257908e-15
-0.038610852
-1.2913658e-18
-0.043972216
0
-0.049551082
0
-0.055565376
-7.7461642e-15
-0.062293017
0
-0.069597807
-2.2471711e-18
-0.077432611
0
-0.085896809
0
-0.094964812
2.1655951e-18
-0.10448466
0
-0.11435277
-1.9082112e-18
-0.12426708
0
-0.13383949
0
-0.14303045
-1.0494216e-14
-0.15188059
0
-0.16033048
-9.7060808e-15
-0.1685881
0
-0.17706464
-8.9756374e-15
-0.18586231
8.1407771e-19
-0.19456291
1.660422e-14
-0.20280496
0
-0.21123622
0
-0.22141566
-1.478896e-14
-0.23447881
-2.1601321e-05
-0.0032434517
-7.5255302e-05
-0.0062514317
-0.00012701265
-0.0086157479
-0.00016349684
-0.010703623
-0.00017959346
-0.012813975
-0.00016496019
-0.014655293
-0.00010755202
-0.016151548
-5.5081187e-15
-0.017199446
0
-0.020342534
0
-0.023592976
-4.8942892e-15
-0.027190727
0
-0.031441635
0
-0.036077709
1.3042403e-18
-0.04111959
0
-0.046343493
0
-0.051963617
-7.7483041e-15
-0.058306653
-7.4532159e-15
-0.065224246
0
-0.072661229
-6.8986284e-15
-0.08073136
-6.6334334e-15
-0.089430792
0
-0.098601224
0
-0.10820118
-5.902774e-15
-0.11811397
5.6774851e-15
-0.12784512
0
-0.13708163
1.0505811e-14
-0.14594113
-1.0100765e-14
-0.15446441
0
-0.16258387
0
-0.17051987
1.1705663e-18
-0.1787165
-8.639961e-15
-0.18726888
-8.3087311e-15
-0.19574257
0
-0.20371963
-1.5376389e-14
-0.21188781
0
-0.2218304
2.2564875e-19
-0.23468233
-1.5099197e-05
-0.0032338973
-6.0871108e-05
-0.0062494438
-0.00011352025
-0.0086364316
-0.00015942746
-0.010746858
-0.00019285885
-0.012884218
-0.00020416208
-0.014781227
-0.00018101123
-0.016361446
-0.00011600341
-0.017910487
0
-0.019013343
0
-0.022047271
0
-0.025402333
-4.7069225e-15
-0.029377406
-1.3399071e-18
-0.033707764
4.3541087e-15
-0.038447113
0
-0.043337313
-1.0786327e-18
-0.048582763
-7.7525688e-15
-0.054555261
0
-0.06109254
0
-0.068131348
0
-0.075801398
6.6364366e-15
-0.084126748
0
-0.092935596
0
-0.10220353
-1.1812634e-14
-0.11197887
2.0579803e-18
-0.12183786
-5.4663258e-15
-0.13124701
-1.0511647e-14
-0.14013969
0
-0.14867596
9.7245127e-15
-0.1568794
0
-0.16468581
0
-0.17231952
8.6482735e-15
-0.18022981
0
-0.18855674
6.8063545e-19
-0.19681865
-5.139968e-19
-0.20455285
1.4804093e-14
-0.21248285
0
-0.22218025
-2.7417885e-14
-0.23480511
-7.7327585e-06
-0.0032262092
-4.2594353e-05
-0.0062474066
-9.1946561e-05
-0.008653635
-0.00014254976
-0.010783928
-0.00018795637
-0.012946272
-0.00021921125
-0.014895062
-0.00022416209
-0.016548268
-0.00019530906
-0.018182586
-0.00012416295
-0.019658862
5.0905565e-15
-0.020598443
0
-0.023737804
0
-0.027451287
-4.5275247e-15
-0.031489463
-4.3560063e-15
-0.035943164
4.1897629e-15
-0.040521709
0
-0.045413139
-3.8771442e-15
-0.051031173
0
-0.057197951
0
-0.06384229
-6.9015292e-15
-0.071109344
-6.6391779e-15
-0.079053525
-6.3890189e-15
-0.087498412
0
-0.09640618
0
-0.10589251
5.6869075e-15
-0.11574038
0
-0.12537582
-5.2614745e-15
-0.1344431
0
-0.14301275
0
-0.15123609
0
-0.15914025
0
-0.16665128
0
-0.17398192
0
-0.18162118
0
-0.18973403
-1.5400493e-14
-0.19780425
0
-0.20531313
1.4252873e-14
-0.21302093
0
-0.2224703
1.3199549e-14
-0.23486437
-0.0032204487
0
-2.1833582e-05
-0.0062453461
-6.4411934e-05
-0.0086672205
-0.00011550448
-0.010814528
-0.00016800083
-0.012999865
-0.00021363156
-0.014996419
-0.00024084046
-0.016717174
-0.00024195702
-0.018424614
-0.00020898113
-0.019988938
-0.00013086103
-0.021153638
0
-0.022180163
0
-0.025654039
0
-0.029414543
-4.3551717e-15
-0.033595752
-4.1903206e-15
-0.037885416
0
-0.042444765
1.2021308e-18
-0.047725457
-1.2180181e-18
-0.053534088
0
-0.059791214
0
-0.066655536
6.6441424e-15
-0.07421574
0
-0.082287267
0
-0.090815305
0
-0.099947269
0
-0.10962766
5.4738045e-15
-0.11937576
0
-0.12869175
5.0628916e-15
-0.13744207
0
-0.1457057
0
-0.15364117
0
-0.16126116
0
-0.16848079
0
-0.17551889
8.0144307e-15
-0.18289275
-7.7080075e-15
-0.19081559
5.7306116e-19
-0.19870392
-7.1312924e-15
-0.20600949
0
-0.21350983
0
-0.222699
-1.2709367e-14
-0.2348599
-0.0062431902
0
-0.0032165627
7.7141115e-06
-3.3051113e-05
-0.008677254
-8.094768e-05
-0.010838832
-0.00013609128
-0.013044747
-0.00019096106
-0.015085105
-0.00023486341
-0.016867631
-0.00026003124
-0.018641567
-0.0002587957
-0.020280306
-0.00022011895
-0.021544284
-0.000136228
-0.022639044
0
-0.023968272
0
-0.027476146
0
-0.031396388
1.1561373e-18
-0.035418193
4.030371e-15
-0.039667935
0
-0.044628524
-3.7302686e-15
-0.050092883
-1.1830169e-18
-0.055973508
6.9081557e-15
-0.062439023
0
-0.069616229
0
-0.077309349
2.3594639e-18
-0.085448627
-2.3641284e-18
-0.094202118
5.6934332e-15
-0.10359362
-5.4748251e-15
-0.11328261
5.2708698e-15
-0.12278539
-5.0665348e-15
-0.13180238
-4.8749794e-15
-0.14025483
0
-0.14824313
0
-0.15589986
0
-0.16323765
0
-0.17017381
-8.0213374e-15
-0.17693217
-7.7146784e-15
-0.18406444
0
-0.19180656
7.1377746e-15
-0.19953137
0
-0.20664367
0
-0.21393793
0
-0.22287238
-5.7574047e-22
-0.23480697
-0.0086834054
0
-0.0062411753
2.1806326e-05
-0.0032145121
1.5026165e-05
-4.1553077e-05
-0.010856794
-9.536828e-05
-0.013080739
-0.00015471703
-0.015160339
-0.00021005556
-0.016998792
-0.00025362696
-0.018832709
-0.00027802366
-0.020538983
-0.00027242493
-0.021884542
-0.00022909455
-0.023105973
-0.00014166845
-0.024311949
0
-0.025656369
0
-0.029336603
0
-0.033110687
4.0319071e-15
-0.037073163
-3.8791725e-15
-0.041730309
0
-0.046865448
1.1864155e-18
-0.052383017
-3.4537702e-15
-0.058456901
0
-0.065255209
0
-0.07257075
-6.1518026e-15
-0.080311926
-5.9185062e-15
-0.088670082
5.6963716e-15
-0.097715278
-5.47778e-15
-0.10721193
5.2720889e-15
-0.11676718
-5.0698257e-15
-0.12600274
4.8771084e-15
-0.13471427
4.691366e-15
-0.14290206
9.0271746e-15
-0.15062419
0
-0.15800522
8.3500285e-15
-0.16507092
0
-0.17174594
7.7222334e-15
-0.17824213
-7.4271974e-15
-0.18513974
-6.0263379e-19
-0.19272235
4.8936804e-19
-0.20028982
-6.6107494e-15
-0.20721698
0
-0.21431483
0
-0.22299436
-1.1784225e-14
-0.23470503
-0.010867832
0
-0.0086862175
3.3054597e-05
-0.0062392449
4.2487267e-05
-0.0032143576
2.1444853e-05
-4.8955118e-05
-0.013107631
-0.00010844349
-0.015221375
-0.00017028277
-0.017109517
-0.00022689023
-0.018997223
-0.00027106715
-0.0207642
-0.00029246266
-0.022183327
-0.00028345577
-0.023514667
-0.00023824666
-0.024857794
-0.00014680813
-0.025861104
0
-0.027399013
0
-0.030953086
0
-0.034652031
1.2376967e-18
-0.039020377
-1.2546902e-18
-0.043841759
3.5902898e-15
-0.049011941
0
-0.05470513
-3.326459e-15
-0.061130429
0
-0.068073468
0
-0.07541408
-5.920983e-15
-0.083368178
-5.6965656e-15
-0.092041659
0
-0.10126341
-5.2750715e-15
-0.11074255
0
-0.12011607
4.8821826e-15
-0.12905073
-9.3913418e-15
-0.13746468
0
-0.14538558
8.6901057e-15
-0.15284585
8.3580824e-15
-0.15995737
0
-0.16677308
0
-0.17320358
0
-0.17944975
0
-0.18613199
0
-0.19357329
6.6166509e-15
-0.20099108
6.3651932e-15
-0.20773059
-1.2249233e-14
-0.21463782
0
-0.22307126
1.1347649e-14
-0.2345727
-0.013124971
0
-0.010873168
4.1587702e-05
-0.0086855367
6.442372e-05
-0.0062372239
6.0642125e-05
-0.003216048
2.6481581e-05
-5.5683351e-05
-0.015267833
-0.00011941229
-0.017198919
-0.00018395307
-0.019134025
-0.00024239105
-0.020955456
-0.00028495836
-0.022440382
-0.00030422094
-0.023872593
-0.00029476049
-0.025336173
-0.00024680283
-0.026484047
-0.00015127011
-0.027460371
0
-0.028919818
0
-0.03239615
0
-0.036489354
1.2647897e-18
-0.041011524
-1.1887678e-18
-0.045850936
0
-0.05117773
3.3259734e-15
-0.057239403
-3.200268e-15
-0.063817242
-6.1560795e-15
-0.070759774
0
-0.078304823
0
-0.086595595
0
-0.095492664
-5.2778716e-15
-0.10479171
2.3632728e-18
-0.11422272
0
-0.12334099
4.6998378e-15
-0.13191551
-4.5196551e-15
-0.1400369
0
-0.14771066
0
-0.15490906
0
-0.16177331
0
-0.1683528
0
-0.17455425
0
-0.18056353
6.558238e-19
-0.18705356
-5.3067159e-19
-0.19437277
6.370805e-15
-0.20163246
0
-0.20819036
0
-0.21491456
0
-0.22310661
-1.0927701e-14
-0.23440834
-0.015299315
0
-0.013135232
4.901875e-05
-0.010872536
8.1079252e-05
-0.0086806174
9.1968839e-05
-0.0062352732
7.4878748e-05
-0.0032195277
2.9642362e-05
-6.1344747e-05
-0.017266551
-0.00012901396
-0.019242224
-0.00019643733
-0.021111729
-0.00025465062
-0.022655494
-0.00029631587
-0.024179479
-0.00031632341
-0.025755336
-0.00030526945
-0.027027989
-0.00025424377
-0.02817019
-0.00015483506
-0.028832326
-4.0317859e-15
-0.030277717
0
-0.034127288
-3.7337485e-15
-0.038364649
1.188616e-18
-0.042890372
-3.4570791e-15
-0.047868139
0
-0.053577242
6.4021743e-15
-0.05979903
-1.2296736e-18
-0.066349688
0
-0.073485582
0
-0.081387203
0
-0.089933069
5.2778468e-15
-0.098968268
0
-0.1083331
4.888169e-15
-0.11761772
0
-0.12637206
0
-0.13459168
-4.3510624e-15
-0.14244802
-4.186639e-15
-0.149873
0
-0.15683289
0
-0.16345769
0
-0.1698133
0
-0.17579616
6.8921187e-15
-0.18159277
6.6291309e-15
-0.18792003
-6.3766027e-15
-0.19512243
-1.226773e-14
-0.20222459
-5.9018604e-15
-0.20859563
1.1358262e-14
-0.2151397
0
-0.22310643
0
-0.2342287
-0.017311657
0
-0.015319388
5.580219e-05
-0.013138184
9.5612614e-05
-0.010864124
0.00011577474
-0.0086716585
0.00011355074
-0.0062337007
8.3800674e-05
-0.0032247847
3.0437287e-05
-6.6280299e-05
-0.019321221
-0.00013771292
-0.021231874
-0.00020625183
-0.022828784
-0.00026469304
-0.024435165
-0.00030807838
-0.026115008
-0.00032753124
-0.027503022
-0.00031441591
-0.028791749
-0.00026021885
-0.029636213
-0.00015693807
-0.030031611
0
-0.031904203
0
-0.035890353
0
-0.040119829
-3.4564341e-15
-0.044765313
0
-0.050137314
0
-0.056013645
3.0809882e-15
-0.062180807
-1.2399747e-18
-0.068910205
0
-0.076421188
0
-0.084601839
-5.280162e-15
-0.093316973
0
-0.10249602
4.8882361e-15
-0.11185671
-4.7035047e-15
-0.12084472
-4.5256725e-15
-0.12918077
4.3556884e-15
-0.13707889
-4.188883e-15
-0.14468481
-1.0501863e-18
-0.15188787
0
-0.15861601
0
-0.16501233
1.1589586e-18
-0.17115596
0
-0.17694496
6.6350426e-15
-0.18255216
-6.3821685e-15
-0.18873643
0
-0.19583132
0
-0.20276299
0
-0.2089496
-1.0937377e-14
-0.21532378
-1.0527217e-14
-0.22308102
0
-0.2340311
-0.019370237
0
-0.017339086
6.1523536e-05
-0.015327627
0.00010890231
-0.013131129
0.00013660339
-0.010847822
0.00014296749
-0.0086585248
0.00012705236
-0.0062327119
8.6023543e-05
-0.0032317841
2.8367133e-05
-7.0720513e-05
-0.021315706
-0.00014451753
-0.022960302
-0.00021432325
-0.024640157
-0.00027520157
-0.026415045
-0.00031894701
-0.027909983
-0.00033724401
-0.029334687
-0.00032178587
-0.030338005
-0.00026379309
-0.030924593
-0.00015897901
-0.031484953
0
-0.033555651
0
-0.037529494
-3.4580804e-15
-0.041861606
-3.3265293e-15
-0.046907856
0
-0.052452975
3.0817085e-15
-0.058248408
-5.9299663e-15
-0.06457802
0
-0.071699067
0
-0.079506083
-5.2850979e-15
-0.087869741
0
-0.096778239
0
-0.10605115
0
-0.11521729
0
-0.1238023
0
-0.13176216
1.3663573e-18
-0.1393831
0
-0.14676801
0
-0.15375453
0
-0.16026154
0
-0.16643846
0
-0.17239186
6.642555e-15
-0.17800403
-6.3884424e-15
-0.18344712
0
-0.1895077
5.9114746e-15
-0.19649469
0
-0.2032564
5.47237e-15
-0.20925285
0
-0.2154712
-1.0137975e-14
-0.22303472
0
-0.23383344
-0.021362928
0
-0.01939572
6.6471659e-05
-0.017348167
0.00012010223
-0.015319809
0.00015568881
-0.013114221
0.00016881525
-0.010823457
0.0001599718
-0.0086413744
0.00013035019
-0.0062323791
8.0145163e-05
-0.0032405259
2.2939481e-05
-7.4183796e-05
-0.023050658
-0.00015013446
-0.02479565
-0.00022281847
-0.026655475
-0.00028484239
-0.028248943
-0.00032833538
-0.029799611
-0.00034517646
-0.030954901
-0.00032623298
-0.031708815
-0.00026718622
-0.03247773
-0.00016133449
-0.032946112
-3.5924392e-15
-0.035083664
0
-0.039149345
0
-0.043881193
1.4029116e-18
-0.049107476
-1.2387098e-18
-0.054546199
0
-0.060485784
-5.7066507e-15
-0.06722045
-2.7471649e-15
-0.074650836
5.2842401e-15
-0.082640692
0
-0.091221132
4.8954628e-15
-0.10027731
4.7079594e-15
-0.1094552
0
-0.11829884
4.3613564e-15
-0.12649574
0
-0.13413804
-4.0359089e-15
-0.14151826
0
-0.14869813
0
-0.15548131
0
-0.16177269
-6.9118987e-15
-0.16775138
0
-0.17352815
0
-0.17898498
0
-0.18427856
5.9175261e-15
-0.19023081
-5.6926504e-15
-0.19712018
5.4768824e-15
-0.20369352
5.2698042e-15
-0.20951387
1.0143354e-14
-0.2155892
-9.763474e-15
-0.22297266
-1.5038449e-19
-0.23363152
-0.023099975
0
-0.021382068
7.0875579e-05
-0.019396931
0.00012975128
-0.017332741
0.00017173831
-0.015296085
0.00019253936
-0.01308743
0.0001890533
-0.010790863
0.00016411444
-0.0086200459
0.00012135762
-0.0062330257
6.4782065e-05
-0.0032509234
1.3649451e-05
-7.7058541e-05
-0.02490258
-0.00015608128
-0.02683697
-0.00023059734
-0.028520389
-0.00029318428
-0.030186524
-0.00033609214
-0.031486104
-0.00035005034
-0.032402157
-0.00033048571
-0.033349894
-0.0002711319
-0.034035061
-0.00016305306
-0.034272867
0
-0.036593439
0
-0.041047992
0
-0.045966771
0
-0.051066195
0
-0.056630133
1.389141e-18
-0.062984264
0
-0.070037857
-1.4583209e-18
-0.07764007
0
-0.085857592
0
-0.094622035
2.7294562e-18
-0.10364824
0
-0.11258876
0
-0.12108876
4.1989637e-15
-0.12895409
0
-0.13632953
3.8868922e-15
-0.14350158
3.7392406e-15
-0.15048663
0
-0.1570698
0
-0.16316631
0
-0.16895613
8.9329513e-19
-0.17457215
1.231532e-14
-0.17988282
-5.9227859e-15
-0.18505048
5.6979845e-15
-0.19091513
0
-0.19769287
0
-0.20408504
0
-0.20973343
9.7684967e-15
-0.21567661
0
-0.22289791
-9.0531791e-15
-0.23344177
-0.02496138
0
-0.02311869
7.431016e-05
-0.021372634
0.00013831026
-0.019366541
0.00018550828
-0.017292726
0.00021241174
-0.015256373
0.00021580238
-0.013050514
0.00019414636
-0.010750287
0.00015276161
-0.0085955139
9.800783e-05
-0.0062354158
3.8535529e-05
-0.0032627723
0
-8.0108367e-05
-0.026960256
-0.00016150952
-0.028724526
-0.00023732013
-0.030495274
-0.00030013825
-0.031930417
-0.00034092222
-0.033002789
-0.00035464092
-0.034120589
-0.00033530725
-0.034989545
-0.00027395594
-0.035455907
-0.00016417802
-0.035584011
0
-0.038375227
0
-0.043019262
0
-0.047798653
2.9675315e-15
-0.053001854
-1.3994384e-18
-0.058986902
0
-0.06566716
2.6452782e-15
-0.072875223
-2.5456443e-15
-0.080706066
0
-0.089135427
0
-0.097909358
-4.5343699e-15
-0.10675674
0
-0.11542636
0
-0.12363191
1.5422326e-18
-0.13122006
0
-0.13837037
-3.7411968e-15
-0.14534044
-3.5992366e-15
-0.15213231
0
-0.15853374
0
-0.16444451
0
-0.17005821
6.1642885e-15
-0.17552416
0
-0.18071162
0
-0.18576883
-5.4862596e-15
-0.19155173
0
-0.19822347
5.078863e-15
-0.20442496
0
-0.20991977
0
-0.21573936
0
-0.22281919
0
-0.23325883
-0.027025437
0
-0.024984478
7.7192645e-05
-0.023106438
0.00014500566
-0.021326007
0.00019770621
-0.01930472
0.00022940327
-0.017228164
0.00023809373
-0.015200552
0.0002218214
-0.013004404
0.00018093553
-0.010702083
0.00012332566
-0.0085683633
5.8241094e-05
-0.0062387794
0
-0.0029812362
0
-8.2885623e-05
-0.028862216
-0.00016619235
-0.030726227
-0.00024296248
-0.032286675
-0.000304552
-0.033508767
-0.0003454556
-0.03478819
-0.00035977913
-0.035831492
-0.00033871804
-0.036491221
-0.00027582403
-0.036879751
-0.00016556363
-0.037153358
0
-0.040227165
0
-0.044734395
5.9348325e-15
-0.049596312
2.8566604e-15
-0.055222502
-1.5183133e-18
-0.061535488
0
-0.068349926
2.5464411e-15
-0.075781178
-2.4505903e-15
-0.083848493
0
-0.092317304
0
-0.10094538
0
-0.10958386
4.2033641e-15
-0.11803612
-4.0450438e-15
-0.12599757
0
-0.13334509
0
-0.14027324
0
-0.1470411
-3.4646153e-15
-0.1536481
0
-0.15987612
0
-0.16561153
0
-0.17105981
-5.9346118e-15
-0.17639396
0
-0.18147058
-5.4915123e-15
-0.18643795
0
-0.19214775
0
-0.19869183
4.8910056e-15
-0.20472925
-9.4134457e-15
-0.21006723
9.060373e-15
-0.21578055
8.7194452e-15
-0.22274902
-0.0021364938
-0.23094367
-0.028933345
0
-0.027047881
8.0248771e-05
-0.024971432
0.00015065347
-0.023051175
0.00020728207
-0.021242783
0.00024446053
-0.019211611
0.00025707122
-0.017139023
0.00024471559
-0.015128831
0.000206934
-0.012949564
0.00014625118
-0.010646405
7.3234288e-05
-0.0085365485
0
-0.0057433835
0
-0.0031977424
1.4585311e-14
-8.5282832e-05
-0.030880181
-0.00017015802
-0.032554457
-0.00024661278
-0.03391813
-0.00030866709
-0.035350798
-0.00035041953
-0.036559238
-0.00036337219
-0.037404318
-0.00034101353
-0.038015326
-0.00027824095
-0.0385716
-0.00016738012
-0.038770393
0