/*--------------------------------*- C++ -*----------------------------------*\
| =========                 |                                                 |
| \\      /  F ield         | OpenFOAM: The Open Source CFD Toolbox           |
|  \\    /   O peration     | Version:  v2012                                 |
|   \\  /    A nd           | Website:  www.openfoam.com                      |
|    \\/     M anipulation  |                                                 |
\*---------------------------------------------------------------------------*/
FoamFile
{
    version     2.0;
    format      ascii;
    class       pointVectorField;
    location    "25.623820540314586";
    object      pointDisplacement;
}
// * * * * * * * * * * * * * * * * * * * * * * * * * * * * * * * * * * * * * //

dimensions      [0 1 0 0 0 0 0];


internalField   nonuniform List<vector> 
18840
(
(-1.7203894 -0 -0)
(-1.7203281 0 0)
(-1.7201453 0 0)
(-1.7198431 0 0)
(-1.7194232 0 0)
(-1.718886 0 0)
(-1.718232 0 0)
(-1.7174607 0 0)
(-1.7165715 0 0)
(-1.7155633 0 0)
(-1.7144348 0 0)
(-1.7131842 0 0)
(-1.7118095 0 0)
(-1.7103083 0 0)
(-1.7086785 0 0)
(-1.7069171 0 0)
(-1.7050214 0 0)
(-1.7029885 0 0)
(-1.7008156 0 0)
(-1.6984989 0 0)
(-1.6955291 0 0)
(-1.7203894 -0 -0)
(-1.7203268 0 0)
(-1.7201401 0 0)
(-1.7198316 0 0)
(-1.7194028 0 0)
(-1.7188546 0 0)
(-1.7181871 0 0)
(-1.7174003 0 0)
(-1.7164933 0 0)
(-1.7154653 0 0)
(-1.7143146 0 0)
(-1.7130397 0 0)
(-1.7116385 0 0)
(-1.7101087 0 0)
(-1.7084478 0 0)
(-1.7066532 0 0)
(-1.7047218 0 0)
(-1.702651 0 0)
(-1.7004375 0 0)
(-1.6980779 0 0)
(-1.6955032 0 0)
(-1.7203894 -0 -0)
(-1.7203253 0 0)
(-1.7201341 0 0)
(-1.7198182 0 0)
(-1.7193793 0 0)
(-1.7188182 0 0)
(-1.7181353 0 0)
(-1.7173303 0 0)
(-1.7164025 0 0)
(-1.7153508 0 0)
(-1.7141739 0 0)
(-1.7128698 0 0)
(-1.7114364 0 0)
(-1.7098713 0 0)
(-1.7081718 0 0)
(-1.7063351 0 0)
(-1.704358 0 0)
(-1.7022375 0 0)
(-1.6999698 0 0)
(-1.6975513 0 0)
(-1.6948757 0 0)
(-1.7203894 -0 -0)
(-1.7203237 0 0)
(-1.7201278 0 0)
(-1.7198041 0 0)
(-1.7193545 0 0)
(-1.7187798 0 0)
(-1.7180804 0 0)
(-1.7172559 0 0)
(-1.7163056 0 0)
(-1.7152285 0 0)
(-1.7140228 0 0)
(-1.7126867 0 0)
(-1.7112177 0 0)
(-1.7096134 0 0)
(-1.7078707 0 0)
(-1.7059865 0 0)
(-1.7039573 0 0)
(-1.7017796 0 0)
(-1.6994494 0 0)
(-1.6969628 0 0)
(-1.6941822 0 0)
(-1.7203894 -0 -0)
(-1.720322 0 0)
(-1.7201212 0 0)
(-1.7197894 0 0)
(-1.7193285 0 0)
(-1.7187394 0 0)
(-1.7180224 0 0)
(-1.7171772 0 0)
(-1.7162031 0 0)
(-1.7150986 0 0)
(-1.7138621 0 0)
(-1.7124915 0 0)
(-1.7109841 0 0)
(-1.7093371 0 0)
(-1.7075471 0 0)
(-1.7056109 0 0)
(-1.7035244 0 0)
(-1.7012838 0 0)
(-1.6988847 0 0)
(-1.6963229 0 0)
(-1.6934341 0 0)
(-1.7203894 -0 -0)
(-1.7203203 0 0)
(-1.7201142 0 0)
(-1.7197739 0 0)
(-1.7193012 0 0)
(-1.7186971 0 0)
(-1.7179617 0 0)
(-1.7170948 0 0)
(-1.7160954 0 0)
(-1.7149621 0 0)
(-1.7136929 0 0)
(-1.7122856 0 0)
(-1.7107373 0 0)
(-1.7090448 0 0)
(-1.7072045 0 0)
(-1.7052126 0 0)
(-1.7030648 0 0)
(-1.7007568 0 0)
(-1.6982838 0 0)
(-1.6956413 0 0)
(-1.6926425 0 0)
(-1.7203894 -0 -0)
(-1.7203185 0 0)
(-1.7201071 0 0)
(-1.7197579 0 0)
(-1.719273 0 0)
(-1.7186531 0 0)
(-1.7178986 0 0)
(-1.717009 0 0)
(-1.7159832 0 0)
(-1.7148198 0 0)
(-1.7135165 0 0)
(-1.7120708 0 0)
(-1.7104795 0 0)
(-1.7087393 0 0)
(-1.7068461 0 0)
(-1.7047958 0 0)
(-1.7025836 0 0)
(-1.7002049 0 0)
(-1.6976544 0 0)
(-1.6949269 0 0)
(-1.6918181 0 0)
(-1.7203894 -0 -0)
(-1.7203166 0 0)
(-1.7200998 0 0)
(-1.7197415 0 0)
(-1.7192438 0 0)
(-1.7186077 0 0)
(-1.7178334 0 0)
(-1.7169204 0 0)
(-1.7158673 0 0)
(-1.7146727 0 0)
(-1.713334 0 0)
(-1.7118485 0 0)
(-1.7102128 0 0)
(-1.7084232 0 0)
(-1.7064752 0 0)
(-1.7043644 0 0)
(-1.7020856 0 0)
(-1.6996338 0 0)
(-1.6970029 0 0)
(-1.6941877 0 0)
(-1.6909695 0 0)
(-1.7203894 -0 -0)
(-1.7203148 0 0)
(-1.7200923 0 0)
(-1.7197248 0 0)
(-1.719214 0 0)
(-1.7185613 0 0)
(-1.7177666 0 0)
(-1.7168295 0 0)
(-1.7157484 0 0)
(-1.7145218 0 0)
(-1.7131467 0 0)
(-1.7116204 0 0)
(-1.7099391 0 0)
(-1.7080987 0 0)
(-1.7060945 0 0)
(-1.7039217 0 0)
(-1.7015747 0 0)
(-1.6990478 0 0)
(-1.6963346 0 0)
(-1.6934292 0 0)
(-1.690104 0 0)
(-1.7203894 -0 -0)
(-1.7203129 0 0)
(-1.7200848 0 0)
(-1.7197079 0 0)
(-1.7191839 0 0)
(-1.7185141 0 0)
(-1.7176986 0 0)
(-1.7167368 0 0)
(-1.7156273 0 0)
(-1.7143678 0 0)
(-1.7129557 0 0)
(-1.7113877 0 0)
(-1.7096599 0 0)
(-1.7077678 0 0)
(-1.7057064 0 0)
(-1.7034704 0 0)
(-1.7010539 0 0)
(-1.6984504 0 0)
(-1.6956534 0 0)
(-1.6926561 0 0)
(-1.689227 0 0)
(-1.7203894 -0 -0)
(-1.7203109 0 0)
(-1.7200767 0 0)
(-1.7196895 0 0)
(-1.7191512 0 0)
(-1.7184628 0 0)
(-1.7176248 0 0)
(-1.7166362 0 0)
(-1.7154957 0 0)
(-1.7142008 0 0)
(-1.7127487 0 0)
(-1.7111357 0 0)
(-1.7093578 0 0)
(-1.7074101 0 0)
(-1.7052874 0 0)
(-1.7029837 0 0)
(-1.7004929 0 0)
(-1.6978077 0 0)
(-1.6949215 0 0)
(-1.6918263 0 0)
(-1.688294 0 0)
(-1.7203894 -0 -0)
(-1.7203281 0 0)
(-1.7201453 0 0)
(-1.7198431 0 0)
(-1.7194232 0 0)
(-1.718886 0 0)
(-1.718232 0 0)
(-1.7174607 0 0)
(-1.7165715 0 0)
(-1.7155633 0 0)
(-1.7144348 0 0)
(-1.7131842 0 0)
(-1.7118095 0 0)
(-1.7103083 0 0)
(-1.7086785 0 0)
(-1.7069171 0 0)
(-1.7050214 0 0)
(-1.7029885 0 0)
(-1.7008156 0 0)
(-1.6984989 0 0)
(-1.6955291 0 0)
(-1.7203894 -0 -0)
(-1.7203268 0 0)
(-1.7201401 0 0)
(-1.7198316 0 0)
(-1.7194028 0 0)
(-1.7188546 0 0)
(-1.7181871 0 0)
(-1.7174003 0 0)
(-1.7164933 0 0)
(-1.7154653 0 0)
(-1.7143146 0 0)
(-1.7130397 0 0)
(-1.7116385 0 0)
(-1.7101087 0 0)
(-1.7084478 0 0)
(-1.7066532 0 0)
(-1.7047218 0 0)
(-1.702651 0 0)
(-1.7004375 0 0)
(-1.6980779 0 0)
(-1.6955032 0 0)
(-1.7203894 -0 -0)
(-1.7203253 0 0)
(-1.7201341 0 0)
(-1.7198182 0 0)
(-1.7193793 0 0)
(-1.7188182 0 0)
(-1.7181353 0 0)
(-1.7173303 0 0)
(-1.7164025 0 0)
(-1.7153508 0 0)
(-1.7141739 0 0)
(-1.7128698 0 0)
(-1.7114364 0 0)
(-1.7098713 0 0)
(-1.7081718 0 0)
(-1.7063351 0 0)
(-1.704358 0 0)
(-1.7022375 0 0)
(-1.6999698 0 0)
(-1.6975513 0 0)
(-1.6948757 0 0)
(-1.7203894 -0 -0)
(-1.7203237 0 0)
(-1.7201278 0 0)
(-1.7198041 0 0)
(-1.7193545 0 0)
(-1.7187798 0 0)
(-1.7180804 0 0)
(-1.7172559 0 0)
(-1.7163056 0 0)
(-1.7152285 0 0)
(-1.7140228 0 0)
(-1.7126867 0 0)
(-1.7112177 0 0)
(-1.7096134 0 0)
(-1.7078707 0 0)
(-1.7059865 0 0)
(-1.7039573 0 0)
(-1.7017796 0 0)
(-1.6994494 0 0)
(-1.6969628 0 0)
(-1.6941822 0 0)
(-1.7203894 -0 -0)
(-1.720322 0 0)
(-1.7201212 0 0)
(-1.7197894 0 0)
(-1.7193285 0 0)
(-1.7187394 0 0)
(-1.7180224 0 0)
(-1.7171772 0 0)
(-1.7162031 0 0)
(-1.7150986 0 0)
(-1.7138621 0 0)
(-1.7124915 0 0)
(-1.7109841 0 0)
(-1.7093371 0 0)
(-1.7075471 0 0)
(-1.7056109 0 0)
(-1.7035244 0 0)
(-1.7012838 0 0)
(-1.6988847 0 0)
(-1.6963229 0 0)
(-1.6934341 0 0)
(-1.7203894 -0 -0)
(-1.7203203 0 0)
(-1.7201142 0 0)
(-1.7197739 0 0)
(-1.7193012 0 0)
(-1.7186971 0 0)
(-1.7179617 0 0)
(-1.7170948 0 0)
(-1.7160954 0 0)
(-1.7149621 0 0)
(-1.7136929 0 0)
(-1.7122856 0 0)
(-1.7107373 0 0)
(-1.7090448 0 0)
(-1.7072045 0 0)
(-1.7052126 0 0)
(-1.7030648 0 0)
(-1.7007568 0 0)
(-1.6982838 0 0)
(-1.6956413 0 0)
(-1.6926425 0 0)
(-1.7203894 -0 -0)
(-1.7203185 0 0)
(-1.7201071 0 0)
(-1.7197579 0 0)
(-1.719273 0 0)
(-1.7186531 0 0)
(-1.7178986 0 0)
(-1.717009 0 0)
(-1.7159832 0 0)
(-1.7148198 0 0)
(-1.7135165 0 0)
(-1.7120708 0 0)
(-1.7104795 0 0)
(-1.7087393 0 0)
(-1.7068461 0 0)
(-1.7047958 0 0)
(-1.7025836 0 0)
(-1.7002049 0 0)
(-1.6976544 0 0)
(-1.6949269 0 0)
(-1.6918181 0 0)
(-1.7203894 -0 -0)
(-1.7203166 0 0)
(-1.7200998 0 0)
(-1.7197415 0 0)
(-1.7192438 0 0)
(-1.7186077 0 0)
(-1.7178334 0 0)
(-1.7169204 0 0)
(-1.7158673 0 0)
(-1.7146727 0 0)
(-1.713334 0 0)
(-1.7118485 0 0)
(-1.7102128 0 0)
(-1.7084232 0 0)
(-1.7064752 0 0)
(-1.7043644 0 0)
(-1.7020856 0 0)
(-1.6996338 0 0)
(-1.6970029 0 0)
(-1.6941877 0 0)
(-1.6909695 0 0)
(-1.7203894 -0 -0)
(-1.7203148 0 0)
(-1.7200923 0 0)
(-1.7197248 0 0)
(-1.719214 0 0)
(-1.7185613 0 0)
(-1.7177666 0 0)
(-1.7168295 0 0)
(-1.7157484 0 0)
(-1.7145218 0 0)
(-1.7131467 0 0)
(-1.7116204 0 0)
(-1.7099391 0 0)
(-1.7080987 0 0)
(-1.7060945 0 0)
(-1.7039217 0 0)
(-1.7015747 0 0)
(-1.6990478 0 0)
(-1.6963346 0 0)
(-1.6934292 0 0)
(-1.690104 0 0)
(-1.7203894 -0 -0)
(-1.7203129 0 0)
(-1.7200848 0 0)
(-1.7197079 0 0)
(-1.7191839 0 0)
(-1.7185141 0 0)
(-1.7176986 0 0)
(-1.7167368 0 0)
(-1.7156273 0 0)
(-1.7143678 0 0)
(-1.7129557 0 0)
(-1.7113877 0 0)
(-1.7096599 0 0)
(-1.7077678 0 0)
(-1.7057064 0 0)
(-1.7034704 0 0)
(-1.7010539 0 0)
(-1.6984504 0 0)
(-1.6956534 0 0)
(-1.6926561 0 0)
(-1.689227 0 0)
(-1.7203894 -0 -0)
(-1.7203109 0 0)
(-1.7200767 0 0)
(-1.7196895 0 0)
(-1.7191512 0 0)
(-1.7184628 0 0)
(-1.7176248 0 0)
(-1.7166362 0 0)
(-1.7154957 0 0)
(-1.7142008 0 0)
(-1.7127487 0 0)
(-1.7111357 0 0)
(-1.7093578 0 0)
(-1.7074101 0 0)
(-1.7052874 0 0)
(-1.7029837 0 0)
(-1.7004929 0 0)
(-1.6978077 0 0)
(-1.6949215 0 0)
(-1.6918263 0 0)
(-1.688294 0 0)
(-1.7203894 -0 -0)
(-1.7203377 0 0)
(-1.7201831 0 0)
(-1.7199267 0 0)
(-1.7195687 0 0)
(-1.7191085 0 0)
(-1.7185444 0 0)
(-1.7178742 0 0)
(-1.7170949 0 0)
(-1.7162033 0 0)
(-1.715196 0 0)
(-1.714069 0 0)
(-1.7128181 0 0)
(-1.7114388 0 0)
(-1.7099264 0 0)
(-1.7082754 0 0)
(-1.7064805 0 0)
(-1.7045355 0 0)
(-1.7024342 0 0)
(-1.7001692 0 0)
(-1.6975262 0 0)
(-1.7203894 -0 -0)
(-1.7203367 0 0)
(-1.7201792 0 0)
(-1.719918 0 0)
(-1.7195533 0 0)
(-1.7190845 0 0)
(-1.7185104 0 0)
(-1.7178286 0 0)
(-1.7170369 0 0)
(-1.7161321 0 0)
(-1.715111 0 0)
(-1.71397 0 0)
(-1.7127051 0 0)
(-1.7113118 0 0)
(-1.7097855 0 0)
(-1.7081208 0 0)
(-1.7063123 0 0)
(-1.704354 0 0)
(-1.7022397 0 0)
(-1.699962 0 0)
(-1.6973109 0 0)
(-1.7203894 -0 -0)
(-1.7203356 0 0)
(-1.7201749 0 0)
(-1.7199085 0 0)
(-1.7195364 0 0)
(-1.7190586 0 0)
(-1.7184737 0 0)
(-1.71778 0 0)
(-1.7169753 0 0)
(-1.7160568 0 0)
(-1.7150216 0 0)
(-1.7138663 0 0)
(-1.712587 0 0)
(-1.7111794 0 0)
(-1.709639 0 0)
(-1.7079605 0 0)
(-1.7061387 0 0)
(-1.7041676 0 0)
(-1.7020413 0 0)
(-1.6997525 0 0)
(-1.6971005 0 0)
(-1.7203894 -0 -0)
(-1.7203346 0 0)
(-1.7201708 0 0)
(-1.7198992 0 0)
(-1.7195202 0 0)
(-1.7190338 0 0)
(-1.7184389 0 0)
(-1.7177342 0 0)
(-1.7169175 0 0)
(-1.7159866 0 0)
(-1.7149386 0 0)
(-1.7137704 0 0)
(-1.7124783 0 0)
(-1.7110582 0 0)
(-1.7095058 0 0)
(-1.707816 0 0)
(-1.7059838 0 0)
(-1.7040035 0 0)
(-1.7018693 0 0)
(-1.6995742 0 0)
(-1.6969308 0 0)
(-1.7203894 -0 -0)
(-1.7203336 0 0)
(-1.7201668 0 0)
(-1.7198905 0 0)
(-1.719505 0 0)
(-1.7190106 0 0)
(-1.7184065 0 0)
(-1.7176915 0 0)
(-1.716864 0 0)
(-1.7159217 0 0)
(-1.7148622 0 0)
(-1.7136824 0 0)
(-1.7123789 0 0)
(-1.710948 0 0)
(-1.7093855 0 0)
(-1.7076868 0 0)
(-1.7058469 0 0)
(-1.7038604 0 0)
(-1.7017218 0 0)
(-1.6994247 0 0)
(-1.6967991 0 0)
(-1.7203894 -0 -0)
(-1.7203326 0 0)
(-1.7201631 0 0)
(-1.7198822 0 0)
(-1.7194907 0 0)
(-1.7189889 0 0)
(-1.7183763 0 0)
(-1.717652 0 0)
(-1.7168144 0 0)
(-1.7158616 0 0)
(-1.7147914 0 0)
(-1.7136011 0 0)
(-1.7122875 0 0)
(-1.710847 0 0)
(-1.709276 0 0)
(-1.7075699 0 0)
(-1.7057242 0 0)
(-1.703734 0 0)
(-1.701594 0 0)
(-1.699298 0 0)
(-1.6966983 0 0)
(-1.7203894 -0 -0)
(-1.7203317 0 0)
(-1.7201596 0 0)
(-1.7198744 0 0)
(-1.7194773 0 0)
(-1.7189685 0 0)
(-1.7183479 0 0)
(-1.7176147 0 0)
(-1.7167676 0 0)
(-1.7158049 0 0)
(-1.7147246 0 0)
(-1.7135243 0 0)
(-1.712201 0 0)
(-1.7107517 0 0)
(-1.7091728 0 0)
(-1.7074602 0 0)
(-1.7056099 0 0)
(-1.7036171 0 0)
(-1.7014772 0 0)
(-1.6991842 0 0)
(-1.6966176 0 0)
(-1.7203894 -0 -0)
(-1.7203309 0 0)
(-1.7201561 0 0)
(-1.7198669 0 0)
(-1.7194643 0 0)
(-1.7189489 0 0)
(-1.7183205 0 0)
(-1.7175787 0 0)
(-1.7167222 0 0)
(-1.7157497 0 0)
(-1.7146594 0 0)
(-1.713449 0 0)
(-1.7121159 0 0)
(-1.7106574 0 0)
(-1.7090703 0 0)
(-1.7073509 0 0)
(-1.7054955 0 0)
(-1.7034999 0 0)
(-1.7013598 0 0)
(-1.6990699 0 0)
(-1.6965418 0 0)
(-1.7203894 -0 -0)
(-1.72033 0 0)
(-1.7201528 0 0)
(-1.7198595 0 0)
(-1.7194515 0 0)
(-1.7189295 0 0)
(-1.7182934 0 0)
(-1.7175428 0 0)
(-1.7166767 0 0)
(-1.715694 0 0)
(-1.714593 0 0)
(-1.7133718 0 0)
(-1.7120278 0 0)
(-1.7105589 0 0)
(-1.7089619 0 0)
(-1.7072337 0 0)
(-1.7053709 0 0)
(-1.7033702 0 0)
(-1.7012274 0 0)
(-1.6989381 0 0)
(-1.6964519 0 0)
(-1.7203894 -0 -0)
(-1.7203291 0 0)
(-1.7201494 0 0)
(-1.719852 0 0)
(-1.7194386 0 0)
(-1.7189098 0 0)
(-1.7182657 0 0)
(-1.7175059 0 0)
(-1.7166297 0 0)
(-1.715636 0 0)
(-1.7145232 0 0)
(-1.7132896 0 0)
(-1.7119329 0 0)
(-1.7104511 0 0)
(-1.7088412 0 0)
(-1.7071007 0 0)
(-1.7052264 0 0)
(-1.7032154 0 0)
(-1.7010641 0 0)
(-1.6987688 0 0)
(-1.6963265 0 0)
(-1.7203894 -0 -0)
(-1.7203377 0 0)
(-1.7201831 0 0)
(-1.7199267 0 0)
(-1.7195687 0 0)
(-1.7191085 0 0)
(-1.7185444 0 0)
(-1.7178742 0 0)
(-1.7170949 0 0)
(-1.7162033 0 0)
(-1.715196 0 0)
(-1.714069 0 0)
(-1.7128181 0 0)
(-1.7114388 0 0)
(-1.7099264 0 0)
(-1.7082754 0 0)
(-1.7064805 0 0)
(-1.7045355 0 0)
(-1.7024342 0 0)
(-1.7001692 0 0)
(-1.6975262 0 0)
(-1.7203894 -0 -0)
(-1.7203367 0 0)
(-1.7201792 0 0)
(-1.719918 0 0)
(-1.7195533 0 0)
(-1.7190845 0 0)
(-1.7185104 0 0)
(-1.7178286 0 0)
(-1.7170369 0 0)
(-1.7161321 0 0)
(-1.715111 0 0)
(-1.71397 0 0)
(-1.7127051 0 0)
(-1.7113118 0 0)
(-1.7097855 0 0)
(-1.7081208 0 0)
(-1.7063123 0 0)
(-1.704354 0 0)
(-1.7022397 0 0)
(-1.699962 0 0)
(-1.6973109 0 0)
(-1.7203894 -0 -0)
(-1.7203356 0 0)
(-1.7201749 0 0)
(-1.7199085 0 0)
(-1.7195364 0 0)
(-1.7190586 0 0)
(-1.7184737 0 0)
(-1.71778 0 0)
(-1.7169753 0 0)
(-1.7160568 0 0)
(-1.7150216 0 0)
(-1.7138663 0 0)
(-1.712587 0 0)
(-1.7111794 0 0)
(-1.709639 0 0)
(-1.7079605 0 0)
(-1.7061387 0 0)
(-1.7041676 0 0)
(-1.7020413 0 0)
(-1.6997525 0 0)
(-1.6971005 0 0)
(-1.7203894 -0 -0)
(-1.7203346 0 0)
(-1.7201708 0 0)
(-1.7198992 0 0)
(-1.7195202 0 0)
(-1.7190338 0 0)
(-1.7184389 0 0)
(-1.7177342 0 0)
(-1.7169175 0 0)
(-1.7159866 0 0)
(-1.7149386 0 0)
(-1.7137704 0 0)
(-1.7124783 0 0)
(-1.7110582 0 0)
(-1.7095058 0 0)
(-1.707816 0 0)
(-1.7059838 0 0)
(-1.7040035 0 0)
(-1.7018693 0 0)
(-1.6995742 0 0)
(-1.6969308 0 0)
(-1.7203894 -0 -0)
(-1.7203336 0 0)
(-1.7201668 0 0)
(-1.7198905 0 0)
(-1.719505 0 0)
(-1.7190106 0 0)
(-1.7184065 0 0)
(-1.7176915 0 0)
(-1.716864 0 0)
(-1.7159217 0 0)
(-1.7148622 0 0)
(-1.7136824 0 0)
(-1.7123789 0 0)
(-1.710948 0 0)
(-1.7093855 0 0)
(-1.7076868 0 0)
(-1.7058469 0 0)
(-1.7038604 0 0)
(-1.7017218 0 0)
(-1.6994247 0 0)
(-1.6967991 0 0)
(-1.7203894 -0 -0)
(-1.7203326 0 0)
(-1.7201631 0 0)
(-1.7198822 0 0)
(-1.7194907 0 0)
(-1.7189889 0 0)
(-1.7183763 0 0)
(-1.717652 0 0)
(-1.7168144 0 0)
(-1.7158616 0 0)
(-1.7147914 0 0)
(-1.7136011 0 0)
(-1.7122875 0 0)
(-1.710847 0 0)
(-1.709276 0 0)
(-1.7075699 0 0)
(-1.7057242 0 0)
(-1.703734 0 0)
(-1.701594 0 0)
(-1.699298 0 0)
(-1.6966983 0 0)
(-1.7203894 -0 -0)
(-1.7203317 0 0)
(-1.7201596 0 0)
(-1.7198744 0 0)
(-1.7194773 0 0)
(-1.7189685 0 0)
(-1.7183479 0 0)
(-1.7176147 0 0)
(-1.7167676 0 0)
(-1.7158049 0 0)
(-1.7147246 0 0)
(-1.7135243 0 0)
(-1.712201 0 0)
(-1.7107517 0 0)
(-1.7091728 0 0)
(-1.7074602 0 0)
(-1.7056099 0 0)
(-1.7036171 0 0)
(-1.7014772 0 0)
(-1.6991842 0 0)
(-1.6966176 0 0)
(-1.7203894 -0 -0)
(-1.7203309 0 0)
(-1.7201561 0 0)
(-1.7198669 0 0)
(-1.7194643 0 0)
(-1.7189489 0 0)
(-1.7183205 0 0)
(-1.7175787 0 0)
(-1.7167222 0 0)
(-1.7157497 0 0)
(-1.7146594 0 0)
(-1.713449 0 0)
(-1.7121159 0 0)
(-1.7106574 0 0)
(-1.7090703 0 0)
(-1.7073509 0 0)
(-1.7054955 0 0)
(-1.7034999 0 0)
(-1.7013598 0 0)
(-1.6990699 0 0)
(-1.6965418 0 0)
(-1.7203894 -0 -0)
(-1.72033 0 0)
(-1.7201528 0 0)
(-1.7198595 0 0)
(-1.7194515 0 0)
(-1.7189295 0 0)
(-1.7182934 0 0)
(-1.7175428 0 0)
(-1.7166767 0 0)
(-1.715694 0 0)
(-1.714593 0 0)
(-1.7133718 0 0)
(-1.7120278 0 0)
(-1.7105589 0 0)
(-1.7089619 0 0)
(-1.7072337 0 0)
(-1.7053709 0 0)
(-1.7033702 0 0)
(-1.7012274 0 0)
(-1.6989381 0 0)
(-1.6964519 0 0)
(-1.7203894 -0 -0)
(-1.7203291 0 0)
(-1.7201494 0 0)
(-1.719852 0 0)
(-1.7194386 0 0)
(-1.7189098 0 0)
(-1.7182657 0 0)
(-1.7175059 0 0)
(-1.7166297 0 0)
(-1.715636 0 0)
(-1.7145232 0 0)
(-1.7132896 0 0)
(-1.7119329 0 0)
(-1.7104511 0 0)
(-1.7088412 0 0)
(-1.7071007 0 0)
(-1.7052264 0 0)
(-1.7032154 0 0)
(-1.7010641 0 0)
(-1.6987688 0 0)
(-1.6963265 0 0)
(-1.694227 0 0)
(-1.6904537 0 0)
(-1.6864083 0 0)
(-1.6820848 0 0)
(-1.6774783 0 0)
(-1.6725768 0 0)
(-1.6673505 0 0)
(-1.6617469 0 0)
(-1.6557088 0 0)
(-1.6491863 0 0)
(-1.642129 0 0)
(-1.6344869 0 0)
(-1.6262146 0 0)
(-1.617266 0 0)
(-1.6075848 0 0)
(-1.597108 0 0)
(-1.5857753 0 0)
(-1.5735341 0 0)
(-1.5603393 0 0)
(-1.5461317 0 0)
(-1.5308387 0 0)
(-1.5143797 0 0)
(-1.4966751 0 0)
(-1.4776531 0 0)
(-1.4572398 0 0)
(-1.4353487 0 0)
(-1.4118803 0 0)
(-1.3867457 0 0)
(-1.3598339 0 0)
(-1.3309966 0 0)
(-1.3001006 0 0)
(-1.2670155 0 0)
(-1.2315576 0 0)
(-1.1935416 0 0)
(-1.152771 0 0)
(-1.1090227 0 0)
(-1.0620442 0 0)
(-1.0116014 0 0)
(-0.95745992 0 0)
(-0.89925067 0 0)
(-0.83663558 0 0)
(-0.76931429 0 0)
(-0.6968777 0 0)
(-0.61883953 0 0)
(-0.53467638 0 0)
(-0.44380708 0 0)
(-0.34556294 0 0)
(-0.23926585 0 0)
(-0.12420801 0 0)
(0 0 0)
(-1.6940133 0 0)
(-1.6902462 0 0)
(-1.6862072 0 0)
(-1.6818905 0 0)
(-1.6772924 0 0)
(-1.6724026 0 0)
(-1.6671917 0 0)
(-1.6616075 0 0)
(-1.6555928 0 0)
(-1.6490957 0 0)
(-1.6420641 0 0)
(-1.634447 0 0)
(-1.6261985 0 0)
(-1.6172723 0 0)
(-1.6076125 0 0)
(-1.5971562 0 0)
(-1.585843 0 0)
(-1.5736197 0 0)
(-1.5604409 0 0)
(-1.5462481 0 0)
(-1.5309686 0 0)
(-1.514522 0 0)
(-1.4968286 0 0)
(-1.4778171 0 0)
(-1.457414 0 0)
(-1.4355319 0 0)
(-1.4120712 0 0)
(-1.3869425 0 0)
(-1.3600352 0 0)
(-1.3312014 0 0)
(-1.3003075 0 0)
(-1.267224 0 0)
(-1.2317664 0 0)
(-1.1937502 0 0)
(-1.1529785 0 0)
(-1.1092278 0 0)
(-1.0622444 0 0)
(-1.0117941 0 0)
(-0.95764495 0 0)
(-0.8994271 0 0)
(-0.83680277 0 0)
(-0.76947127 0 0)
(-0.69702261 0 0)
(-0.61897038 0 0)
(-0.53479044 0 0)
(-0.44390241 0 0)
(-0.34563795 0 0)
(-0.23931785 0 0)
(-0.1242346 0 0)
(0 0 0)
(-1.6938212 0 0)
(-1.6900812 0 0)
(-1.6860686 0 0)
(-1.6817779 0 0)
(-1.6772062 0 0)
(-1.6723446 0 0)
(-1.6671648 0 0)
(-1.6616151 0 0)
(-1.6556381 0 0)
(-1.6491815 0 0)
(-1.6421915 0 0)
(-1.634615 0 0)
(-1.626406 0 0)
(-1.6175185 0 0)
(-1.6078968 0 0)
(-1.5974776 0 0)
(-1.5861997 0 0)
(-1.574011 0 0)
(-1.5608647 0 0)
(-1.5467018 0 0)
(-1.5314506 0 0)
(-1.5150312 0 0)
(-1.497363 0 0)
(-1.4783743 0 0)
(-1.4579941 0 0)
(-1.436133 0 0)
(-1.4126901 0 0)
(-1.3875765 0 0)
(-1.3606824 0 0)
(-1.3318591 0 0)
(-1.3009723 0 0)
(-1.2678947 0 0)
(-1.2324403 0 0)
(-1.1944242 0 0)
(-1.15365 0 0)
(-1.1098939 0 0)
(-1.0629004 0 0)
(-1.0124345 0 0)
(-0.95826687 0 0)
(-0.90002694 0 0)
(-0.83737572 0 0)
(-0.77001189 0 0)
(-0.69752475 0 0)
(-0.6194268 0 0)
(-0.53519272 0 0)
(-0.44424307 0 0)
(-0.34590896 0 0)
(-0.23950885 0 0)
(-0.12433477 0 0)
(0 0 0)
(-1.6936882 0 0)
(-1.6899975 0 0)
(-1.6860327 0 0)
(-1.6817882 0 0)
(-1.6772619 0 0)
(-1.6724459 0 0)
(-1.6673129 0 0)
(-1.6618125 0 0)
(-1.6558887 0 0)
(-1.6494879 0 0)
(-1.6425544 0 0)
(-1.6350347 0 0)
(-1.6268819 0 0)
(-1.6180499 0 0)
(-1.6084832 0 0)
(-1.5981183 0 0)
(-1.5868932 0 0)
(-1.5747555 0 0)
(-1.5616581 0 0)
(-1.5475416 0 0)
(-1.532334 0 0)
(-1.5159558 0 0)
(-1.4983265 0 0)
(-1.4793742 0 0)
(-1.4590285 0 0)
(-1.4371991 0 0)
(-1.4137844 0 0)
(-1.3886947 0 0)
(-1.361821 0 0)
(-1.333014 0 0)
(-1.3021391 0 0)
(-1.2690701 0 0)
(-1.2336198 0 0)
(-1.1956034 0 0)
(-1.1548241 0 0)
(-1.1110571 0 0)
(-1.0640458 0 0)
(-1.0135548 0 0)
(-0.95935583 0 0)
(-0.90107762 0 0)
(-0.83837997 0 0)
(-0.77095942 0 0)
(-0.6984044 0 0)
(-0.62022617 0 0)
(-0.53589813 0 0)
(-0.44484112 0 0)
(-0.34638497 0 0)
(-0.23984495 0 0)
(-0.1245115 0 0)
(0 0 0)
(-1.6936111 0 0)
(-1.6899918 0 0)
(-1.6860963 0 0)
(-1.6819186 0 0)
(-1.6774566 0 0)
(-1.6727033 0 0)
(-1.6676328 0 0)
(-1.6621966 0 0)
(-1.6563402 0 0)
(-1.6500097 0 0)
(-1.6431475 0 0)
(-1.6356995 0 0)
(-1.6276187 0 0)
(-1.618859 0 0)
(-1.6093647 0 0)
(-1.5990708 0 0)
(-1.5879149 0 0)
(-1.5758453 0 0)
(-1.5628131 0 0)
(-1.5487584 0 0)
(-1.5336095 0 0)
(-1.5172875 0 0)
(-1.4997108 0 0)
(-1.4808071 0 0)
(-1.4605081 0 0)
(-1.4387214 0 0)
(-1.4153442 0 0)
(-1.3902873 0 0)
(-1.3634418 0 0)
(-1.3346572 0 0)
(-1.3037982 0 0)
(-1.2707409 0 0)
(-1.2352961 0 0)
(-1.1972782 0 0)
(-1.1564909 0 0)
(-1.1127086 0 0)
(-1.0656726 0 0)
(-1.0151466 0 0)
(-0.96090365 0 0)
(-0.90257164 0 0)
(-0.8398079 0 0)
(-0.77230638 0 0)
(-0.699655 0 0)
(-0.62136277 0 0)
(-0.53690142 0 0)
(-0.44569213 0 0)
(-0.34706254 0 0)
(-0.24032352 0 0)
(-0.12476349 0 0)
(0 0 0)
(-1.6935825 0 0)
(-1.6900565 0 0)
(-1.6862513 0 0)
(-1.6821602 0 0)
(-1.6777813 0 0)
(-1.6731081 0 0)
(-1.6681157 0 0)
(-1.6627581 0 0)
(-1.6569829 0 0)
(-1.6507359 0 0)
(-1.6439591 0 0)
(-1.6365978 0 0)
(-1.6286049 0 0)
(-1.6199336 0 0)
(-1.6105279 0 0)
(-1.600322 0 0)
(-1.5892522 0 0)
(-1.5772666 0 0)
(-1.564316 0 0)
(-1.5503392 0 0)
(-1.535264 0 0)
(-1.519012 0 0)
(-1.5015016 0 0)
(-1.4826598 0 0)
(-1.4624187 0 0)
(-1.4406853 0 0)
(-1.4173557 0 0)
(-1.3923405 0 0)
(-1.3655304 0 0)
(-1.3367739 0 0)
(-1.3059357 0 0)
(-1.2728929 0 0)
(-1.2374546 0 0)
(-1.199435 0 0)
(-1.1586374 0 0)
(-1.1148348 0 0)
(-1.0677671 0 0)
(-1.0171973 0 0)
(-0.96289807 0 0)
(-0.90449683 0 0)
(-0.84164822 0 0)
(-0.77404246 0 0)
(-0.70126666 0 0)
(-0.62282756 0 0)
(-0.5381949 0 0)
(-0.44678964 0 0)
(-0.34793633 0 0)
(-0.240941 0 0)
(-0.12508884 0 0)
(0 0 0)
(-1.6935909 0 0)
(-1.6901792 0 0)
(-1.6864846 0 0)
(-1.6824998 0 0)
(-1.6782227 0 0)
(-1.6736468 0 0)
(-1.6687479 0 0)
(-1.6634826 0 0)
(-1.6578013 0 0)
(-1.6516509 0 0)
(-1.6449733 0 0)
(-1.6377134 0 0)
(-1.6298233 0 0)
(-1.6212565 0 0)
(-1.6119561 0 0)
(-1.6018542 0 0)
(-1.5908869 0 0)
(-1.5790021 0 0)
(-1.5661489 0 0)
(-1.5522654 0 0)
(-1.5372793 0 0)
(-1.5211118 0 0)
(-1.5036808 0 0)
(-1.4849135 0 0)
(-1.4647422 0 0)
(-1.4430725 0 0)
(-1.4197997 0 0)
(-1.3948351 0 0)
(-1.3680684 0 0)
(-1.3393459 0 0)
(-1.3085327 0 0)
(-1.2755077 0 0)
(-1.2400774 0 0)
(-1.2020552 0 0)
(-1.161245 0 0)
(-1.1174185 0 0)
(-1.0703128 0 0)
(-1.0196903 0 0)
(-0.9653233 0 0)
(-0.90683815 0 0)
(-0.84388623 0 0)
(-0.77615359 0 0)
(-0.70322674 0 0)
(-0.62460919 0 0)
(-0.53976839 0 0)
(-0.44812504 0 0)
(-0.34899974 0 0)
(-0.2416926 0 0)
(-0.12548494 0 0)
(0 0 0)
(-1.6936206 0 0)
(-1.6903441 0 0)
(-1.6867797 0 0)
(-1.6829201 0 0)
(-1.6787628 0 0)
(-1.6743014 0 0)
(-1.6695117 0 0)
(-1.664352 0 0)
(-1.6587767 0 0)
(-1.6527359 0 0)
(-1.6461717 0 0)
(-1.6390273 0 0)
(-1.631254 0 0)
(-1.6228063 0 0)
(-1.6136268 0 0)
(-1.6036454 0 0)
(-1.592797 0 0)
(-1.5810291 0 0)
(-1.5682895 0 0)
(-1.5545153 0 0)
(-1.5396331 0 0)
(-1.5235638 0 0)
(-1.5062257 0 0)
(-1.4875458 0 0)
(-1.4674557 0 0)
(-1.44586 0 0)
(-1.4226537 0 0)
(-1.3977484 0 0)
(-1.3710325 0 0)
(-1.3423501 0 0)
(-1.3115667 0 0)
(-1.2785625 0 0)
(-1.2431418 0 0)
(-1.205117 0 0)
(-1.1642923 0 0)
(-1.120438 0 0)
(-1.0732886 0 0)
(-1.0226053 0 0)
(-0.96815966 0 0)
(-0.90957658 0 0)
(-0.84650401 0 0)
(-0.77862321 0 0)
(-0.70551969 0 0)
(-0.62669351 0 0)
(-0.5416096 0 0)
(-0.44968799 0 0)
(-0.35024447 0 0)
(-0.24257253 0 0)
(-0.12594874 0 0)
(0 0 0)
(-1.6936517 0 0)
(-1.6905309 0 0)
(-1.6871165 0 0)
(-1.6834005 0 0)
(-1.6793815 0 0)
(-1.6750526 0 0)
(-1.6703875 0 0)
(-1.6653481 0 0)
(-1.6598922 0 0)
(-1.6539718 0 0)
(-1.6475313 0 0)
(-1.6405144 0 0)
(-1.6328722 0 0)
(-1.6245597 0 0)
(-1.6155173 0 0)
(-1.6056716 0 0)
(-1.5949578 0 0)
(-1.583323 0 0)
(-1.5707121 0 0)
(-1.5570622 0 0)
(-1.5422993 0 0)
(-1.5263425 0 0)
(-1.5091104 0 0)
(-1.4905303 0 0)
(-1.4705333 0 0)
(-1.4490218 0 0)
(-1.4258909 0 0)
(-1.4010535 0 0)
(-1.3743966 0 0)
(-1.3457603 0 0)
(-1.3150109 0 0)
(-1.2820312 0 0)
(-1.2466222 0 0)
(-1.2085943 0 0)
(-1.1677534 0 0)
(-1.1238685 0 0)
(-1.0766705 0 0)
(-1.0259189 0 0)
(-0.97138449 0 0)
(-0.91269044 0 0)
(-0.84948061 0 0)
(-0.78143139 0 0)
(-0.70812731 0 0)
(-0.62906429 0 0)
(-0.54370422 0 0)
(-0.45146631 0 0)
(-0.35166084 0 0)
(-0.24357385 0 0)
(-0.1264766 0 0)
(0 0 0)
(-1.6936639 0 0)
(-1.6907216 0 0)
(-1.6874779 0 0)
(-1.6839264 0 0)
(-1.6800647 0 0)
(-1.6758834 0 0)
(-1.6713571 0 0)
(-1.6664516 0 0)
(-1.6611267 0 0)
(-1.6553362 0 0)
(-1.6490295 0 0)
(-1.6421522 0 0)
(-1.6346559 0 0)
(-1.6264941 0 0)
(-1.6176033 0 0)
(-1.6079068 0 0)
(-1.5973402 0 0)
(-1.5858517 0 0)
(-1.5733855 0 0)
(-1.5598769 0 0)
(-1.5452476 0 0)
(-1.5294155 0 0)
(-1.5123019 0 0)
(-1.4938341 0 0)
(-1.4739409 0 0)
(-1.4525232 0 0)
(-1.4294766 0 0)
(-1.4047155 0 0)
(-1.3781247 0 0)
(-1.3495405 0 0)
(-1.3188295 0 0)
(-1.2858776 0 0)
(-1.2504825 0 0)
(-1.212452 0 0)
(-1.1715933 0 0)
(-1.1276751 0 0)
(-1.0804244 0 0)
(-1.0295981 0 0)
(-0.97496576 0 0)
(-0.91614887 0 0)
(-0.85278698 0 0)
(-0.78455116 0 0)
(-0.71102448 0 0)
(-0.63169875 0 0)
(-0.54603251 0 0)
(-0.45344339 0 0)
(-0.35323574 0 0)
(-0.24468765 0 0)
(-0.1270639 0 0)
(0 0 0)
(-1.6929617 0 0)
(-1.6901844 0 0)
(-1.6871015 0 0)
(-1.6837066 0 0)
(-1.6799958 0 0)
(-1.6759534 0 0)
(-1.6715572 0 0)
(-1.6667778 0 0)
(-1.6615767 0 0)
(-1.6559077 0 0)
(-1.6497249 0 0)
(-1.642977 0 0)
(-1.6356152 0 0)
(-1.6275922 0 0)
(-1.6188426 0 0)
(-1.6092876 0 0)
(-1.5988626 0 0)
(-1.5875175 0 0)
(-1.5751968 0 0)
(-1.561831 0 0)
(-1.5473381 0 0)
(-1.5316387 0 0)
(-1.514655 0 0)
(-1.4963123 0 0)
(-1.4765388 0 0)
(-1.4552332 0 0)
(-1.4322906 0 0)
(-1.4076273 0 0)
(-1.3811271 0 0)
(-1.3526223 0 0)
(-1.3219783 0 0)
(-1.2890844 0 0)
(-1.253736 0 0)
(-1.2157365 0 0)
(-1.1748956 0 0)
(-1.1309807 0 0)
(-1.0837168 0 0)
(-1.0328557 0 0)
(-0.97816639 0 0)
(-0.91926857 0 0)
(-0.85579608 0 0)
(-0.78741533 0 0)
(-0.71370757 0 0)
(-0.63415985 0 0)
(-0.54822647 0 0)
(-0.45532378 0 0)
(-0.35474938 0 0)
(-0.24577259 0 0)
(-0.12765091 0 0)
(0 0 0)
(-1.694227 0 0)
(-1.6904537 0 0)
(-1.6864083 0 0)
(-1.6820848 0 0)
(-1.6774783 0 0)
(-1.6725768 0 0)
(-1.6673505 0 0)
(-1.6617469 0 0)
(-1.6557088 0 0)
(-1.6491863 0 0)
(-1.642129 0 0)
(-1.6344869 0 0)
(-1.6262146 0 0)
(-1.617266 0 0)
(-1.6075848 0 0)
(-1.597108 0 0)
(-1.5857753 0 0)
(-1.5735341 0 0)
(-1.5603393 0 0)
(-1.5461317 0 0)
(-1.5308387 0 0)
(-1.5143797 0 0)
(-1.4966751 0 0)
(-1.4776531 0 0)
(-1.4572398 0 0)
(-1.4353487 0 0)
(-1.4118803 0 0)
(-1.3867457 0 0)
(-1.3598339 0 0)
(-1.3309966 0 0)
(-1.3001006 0 0)
(-1.2670155 0 0)
(-1.2315576 0 0)
(-1.1935416 0 0)
(-1.152771 0 0)
(-1.1090227 0 0)
(-1.0620442 0 0)
(-1.0116014 0 0)
(-0.95745992 0 0)
(-0.89925067 0 0)
(-0.83663558 0 0)
(-0.76931429 0 0)
(-0.6968777 0 0)
(-0.61883953 0 0)
(-0.53467638 0 0)
(-0.44380708 0 0)
(-0.34556294 0 0)
(-0.23926585 0 0)
(-0.12420801 0 0)
(0 0 0)
(-1.6940133 0 0)
(-1.6902462 0 0)
(-1.6862072 0 0)
(-1.6818905 0 0)
(-1.6772924 0 0)
(-1.6724026 0 0)
(-1.6671917 0 0)
(-1.6616075 0 0)
(-1.6555928 0 0)
(-1.6490957 0 0)
(-1.6420641 0 0)
(-1.634447 0 0)
(-1.6261985 0 0)
(-1.6172723 0 0)
(-1.6076125 0 0)
(-1.5971562 0 0)
(-1.585843 0 0)
(-1.5736197 0 0)
(-1.5604409 0 0)
(-1.5462481 0 0)
(-1.5309686 0 0)
(-1.514522 0 0)
(-1.4968286 0 0)
(-1.4778171 0 0)
(-1.457414 0 0)
(-1.4355319 0 0)
(-1.4120712 0 0)
(-1.3869425 0 0)
(-1.3600352 0 0)
(-1.3312014 0 0)
(-1.3003075 0 0)
(-1.267224 0 0)
(-1.2317664 0 0)
(-1.1937502 0 0)
(-1.1529785 0 0)
(-1.1092278 0 0)
(-1.0622444 0 0)
(-1.0117941 0 0)
(-0.95764495 0 0)
(-0.8994271 0 0)
(-0.83680277 0 0)
(-0.76947127 0 0)
(-0.69702261 0 0)
(-0.61897038 0 0)
(-0.53479044 0 0)
(-0.44390241 0 0)
(-0.34563795 0 0)
(-0.23931785 0 0)
(-0.1242346 0 0)
(0 0 0)
(-1.6938212 0 0)
(-1.6900812 0 0)
(-1.6860686 0 0)
(-1.6817779 0 0)
(-1.6772062 0 0)
(-1.6723446 0 0)
(-1.6671648 0 0)
(-1.6616151 0 0)
(-1.6556381 0 0)
(-1.6491815 0 0)
(-1.6421915 0 0)
(-1.634615 0 0)
(-1.626406 0 0)
(-1.6175185 0 0)
(-1.6078968 0 0)
(-1.5974776 0 0)
(-1.5861997 0 0)
(-1.574011 0 0)
(-1.5608647 0 0)
(-1.5467018 0 0)
(-1.5314506 0 0)
(-1.5150312 0 0)
(-1.497363 0 0)
(-1.4783743 0 0)
(-1.4579941 0 0)
(-1.436133 0 0)
(-1.4126901 0 0)
(-1.3875765 0 0)
(-1.3606824 0 0)
(-1.3318591 0 0)
(-1.3009723 0 0)
(-1.2678947 0 0)
(-1.2324403 0 0)
(-1.1944242 0 0)
(-1.15365 0 0)
(-1.1098939 0 0)
(-1.0629004 0 0)
(-1.0124345 0 0)
(-0.95826687 0 0)
(-0.90002694 0 0)
(-0.83737572 0 0)
(-0.77001189 0 0)
(-0.69752475 0 0)
(-0.6194268 0 0)
(-0.53519272 0 0)
(-0.44424307 0 0)
(-0.34590896 0 0)
(-0.23950885 0 0)
(-0.12433477 0 0)
(0 0 0)
(-1.6936882 0 0)
(-1.6899975 0 0)
(-1.6860327 0 0)
(-1.6817882 0 0)
(-1.6772619 0 0)
(-1.6724459 0 0)
(-1.6673129 0 0)
(-1.6618125 0 0)
(-1.6558887 0 0)
(-1.6494879 0 0)
(-1.6425544 0 0)
(-1.6350347 0 0)
(-1.6268819 0 0)
(-1.6180499 0 0)
(-1.6084832 0 0)
(-1.5981183 0 0)
(-1.5868932 0 0)
(-1.5747555 0 0)
(-1.5616581 0 0)
(-1.5475416 0 0)
(-1.532334 0 0)
(-1.5159558 0 0)
(-1.4983265 0 0)
(-1.4793742 0 0)
(-1.4590285 0 0)
(-1.4371991 0 0)
(-1.4137844 0 0)
(-1.3886947 0 0)
(-1.361821 0 0)
(-1.333014 0 0)
(-1.3021391 0 0)
(-1.2690701 0 0)
(-1.2336198 0 0)
(-1.1956034 0 0)
(-1.1548241 0 0)
(-1.1110571 0 0)
(-1.0640458 0 0)
(-1.0135548 0 0)
(-0.95935583 0 0)
(-0.90107762 0 0)
(-0.83837997 0 0)
(-0.77095942 0 0)
(-0.6984044 0 0)
(-0.62022617 0 0)
(-0.53589813 0 0)
(-0.44484112 0 0)
(-0.34638497 0 0)
(-0.23984495 0 0)
(-0.1245115 0 0)
(0 0 0)
(-1.6936111 0 0)
(-1.6899918 0 0)
(-1.6860963 0 0)
(-1.6819186 0 0)
(-1.6774566 0 0)
(-1.6727033 0 0)
(-1.6676328 0 0)
(-1.6621966 0 0)
(-1.6563402 0 0)
(-1.6500097 0 0)
(-1.6431475 0 0)
(-1.6356995 0 0)
(-1.6276187 0 0)
(-1.618859 0 0)
(-1.6093647 0 0)
(-1.5990708 0 0)
(-1.5879149 0 0)
(-1.5758453 0 0)
(-1.5628131 0 0)
(-1.5487584 0 0)
(-1.5336095 0 0)
(-1.5172875 0 0)
(-1.4997108 0 0)
(-1.4808071 0 0)
(-1.4605081 0 0)
(-1.4387214 0 0)
(-1.4153442 0 0)
(-1.3902873 0 0)
(-1.3634418 0 0)
(-1.3346572 0 0)
(-1.3037982 0 0)
(-1.2707409 0 0)
(-1.2352961 0 0)
(-1.1972782 0 0)
(-1.1564909 0 0)
(-1.1127086 0 0)
(-1.0656726 0 0)
(-1.0151466 0 0)
(-0.96090365 0 0)
(-0.90257164 0 0)
(-0.8398079 0 0)
(-0.77230638 0 0)
(-0.699655 0 0)
(-0.62136277 0 0)
(-0.53690142 0 0)
(-0.44569213 0 0)
(-0.34706254 0 0)
(-0.24032352 0 0)
(-0.12476349 0 0)
(0 0 0)
(-1.6935825 0 0)
(-1.6900565 0 0)
(-1.6862513 0 0)
(-1.6821602 0 0)
(-1.6777813 0 0)
(-1.6731081 0 0)
(-1.6681157 0 0)
(-1.6627581 0 0)
(-1.6569829 0 0)
(-1.6507359 0 0)
(-1.6439591 0 0)
(-1.6365978 0 0)
(-1.6286049 0 0)
(-1.6199336 0 0)
(-1.6105279 0 0)
(-1.600322 0 0)
(-1.5892522 0 0)
(-1.5772666 0 0)
(-1.564316 0 0)
(-1.5503392 0 0)
(-1.535264 0 0)
(-1.519012 0 0)
(-1.5015016 0 0)
(-1.4826598 0 0)
(-1.4624187 0 0)
(-1.4406853 0 0)
(-1.4173557 0 0)
(-1.3923405 0 0)
(-1.3655304 0 0)
(-1.3367739 0 0)
(-1.3059357 0 0)
(-1.2728929 0 0)
(-1.2374546 0 0)