/*--------------------------------*- C++ -*----------------------------------*\
| =========                 |                                                 |
| \\      /  F ield         | OpenFOAM: The Open Source CFD Toolbox           |
|  \\    /   O peration     | Version:  v2012                                 |
|   \\  /    A nd           | Website:  www.openfoam.com                      |
|    \\/     M anipulation  |                                                 |
\*---------------------------------------------------------------------------*/
FoamFile
{
    version     2.0;
    format      ascii;
    class       volVectorField;
    location    "25.623820540314586";
    object      U;
}
// * * * * * * * * * * * * * * * * * * * * * * * * * * * * * * * * * * * * * //

dimensions      [0 1 -1 0 0 0 0];


internalField   nonuniform List<vector> 
9200
(
(2.6832741 -0.0019092875 -5.44192e-21)
(2.6857923 -0.0087182044 2.5570956e-22)
(2.6905748 -0.00019348261 2.4262189e-21)
(2.6893112 -0.015234254 5.8444415e-22)
(2.6953962 -0.0034896643 -4.1307344e-22)
(2.6897242 0.001509626 -3.1002656e-21)
(2.69417 -0.0247018 1.3265631e-21)
(2.7026631 -0.0070244645 1.339518e-21)
(2.6957222 0.001813745 2.1127434e-22)
(2.6867302 0.0034319596 -4.0812257e-21)
(2.6991174 -0.036657449 -1.3483207e-21)
(2.7137157 -0.013914596 -1.2574627e-21)
(2.7047945 0.0019141705 5.4010454e-21)
(2.6935789 0.0086434708 -4.6789729e-21)
(2.6794834 0.0053075375 1.0550246e-20)
(2.7037488 -0.052311218 2.950734e-21)
(2.7271293 -0.024235816 9.3520533e-21)
(2.7191568 -0.00073898408 -1.1518855e-20)
(2.7040599 0.013555719 5.5795797e-21)
(2.6862275 0.01568689 -5.0438078e-22)
(2.6690064 0.0069032935 -3.4715865e-21)
(2.7069728 -0.07204296 0)
(2.7431173 -0.039546702 -5.5801803e-22)
(2.7376269 -0.0064053422 -1.0609199e-20)
(2.7209309 0.017084281 6.3928226e-21)
(2.6968569 0.025763375 -3.8997242e-21)
(2.6749248 0.022062823 3.2793727e-21)
(2.6559867 0.0081198187 3.0229117e-22)
(2.7079102 -0.09635156 9.2932203e-21)
(2.7607997 -0.061067728 -1.9695692e-21)
(2.7611193 -0.016423476 7.341993e-21)
(2.7433984 0.018767694 -2.8222951e-20)
(2.7138857 0.036181862 1.6765479e-20)
(2.6844445 0.036834062 -7.5870821e-21)
(2.6605461 0.027013934 8.1802941e-21)
(2.6414974 0.0089064418 3.3082348e-21)
(2.7053967 -0.12551769 -1.6187905e-20)
(2.7795547 -0.090209995 -5.9661546e-21)
(2.7896055 -0.032289214 1.4456207e-20)
(2.7729638 0.018057159 2.6457682e-21)
(2.736953 0.046588993 -5.1595183e-21)
(2.699453 0.053572424 -2.4983354e-22)
(2.6679815 0.045357296 0)
(2.6444573 0.030182786 -6.7773738e-22)
(2.6265188 0.0092402561 0)
(2.6981544 -0.15957851 1.3905573e-20)
(2.7981568 -0.12849709 -7.0279165e-21)
(2.8235403 -0.055785183 2.4845249e-20)
(2.8104836 0.013814181 4.1782629e-20)
(2.7676995 0.057534115 -1.0351838e-20)
(2.7197458 0.072125042 1.2952334e-20)
(2.6793563 0.06680733 -4.2038941e-21)
(2.6493192 0.050670796 -9.1664454e-22)
(2.6278828 0.031561229 -2.5417828e-21)
(2.6118832 0.009167119 1.5692803e-22)
(2.6847073 -0.19847669 9.8338943e-21)
(2.8150752 -0.17733097 5.6274601e-20)
(2.8628424 -0.089132104 -2.4968548e-22)
(2.8575309 0.0046641296 -9.6823165e-21)
(2.8074817 0.068760446 5.2702794e-20)
(2.7465739 0.094112054 -3.8429149e-20)
(2.6943578 0.091305373 -1.0400882e-20)
(2.6563356 0.0747642 -7.0006302e-21)
(2.6301359 0.052787679 -5.3844375e-21)
(2.6118183 0.031380953 -1.0103751e-21)
(2.598191 0.008771866 0)
(2.6637731 -0.2417062 -9.7285559e-21)
(2.8284857 -0.23812871 -5.1667027e-20)
(2.9075189 -0.13481449 -7.4609805e-20)
(2.9157167 -0.011242967 -3.223961e-20)
(2.8583926 0.080361504 3.1858168e-20)
(2.7810743 0.12032737 -3.5634996e-21)
(2.7134993 0.12114777 -2.0830873e-20)
(2.6649966 0.10228949 -1.9571065e-20)
(2.6328639 0.077551512 3.0301186e-21)
(2.61175 0.052175542 -3.1052643e-21)
(2.5969524 0.029985863 -3.2850996e-21)
(2.5858219 0.0081471605 -1.148859e-21)
(2.6350742 -0.28967213 -1.6081606e-22)
(2.8368989 -0.31231184 -5.2284339e-20)
(2.9579066 -0.19606939 5.6111074e-20)
(2.9875687 -0.036117233 1.3474682e-19)
(2.9231404 0.092069101 -7.4510096e-20)
(2.8249286 0.15240449 4.3143151e-20)
(2.7370929 0.15778783 -2.8647524e-20)
(2.6750374 0.13567444 1.0199389e-20)
(2.6354355 0.10539795 6.6888464e-21)
(2.6107789 0.076055691 -1.6388651e-21)
(2.5950136 0.049496267 -2.0021832e-21)
(2.5836928 0.027738226 2.6166686e-21)
(2.5749679 0.00737798 3.9053504e-22)
(2.5998918 -0.34098402 -1.5891954e-20)
(2.838824 -0.4014736 -1.3642979e-20)
(3.0129506 -0.27765824 1.738353e-19)
(3.0768327 -0.073857076 3.4497304e-20)
(3.006417 0.10339072 -8.464936e-20)
(2.8804775 0.19194007 3.4582841e-20)
(2.7655978 0.2037851 -1.4188309e-20)
(2.685845 0.1763344 3.9231825e-21)
(2.6370335 0.13846749 1.6584767e-20)
(2.6082995 0.10223481 9.9040606e-21)
(2.5911638 0.071445257 2.0010165e-21)
(2.5803747 0.045421969 8.5316638e-23)
(2.5722192 0.024963433 -3.0410827e-21)
(2.5656797 0.0065345379 -3.0493538e-22)
(2.5560348 -0.39182647 1.033727e-20)
(2.8234508 -0.49891361 -1.2462261e-20)
(3.0644865 -0.37769354 -1.6574196e-19)
(3.1814068 -0.12897688 -2.1225724e-19)
(3.1139074 0.11280737 -2.6644174e-20)
(2.9527472 0.24081873 0)
(2.7997281 0.26191286 -8.1674392e-22)
(2.6965516 0.22672548 3.600789e-21)
(2.6364565 0.17762583 1.0652745e-20)
(2.6032434 0.13238648 1.0855879e-21)
(2.584952 0.094762365 -5.2069293e-21)
(2.5744905 0.06484706 3.4203756e-21)
(2.5679779 0.040535295 1.9539018e-21)
(2.5625479 0.021926374 -8.4624625e-22)
(2.55791 0.0056705027 8.0790977e-23)
(2.5016593 -0.43819085 -1.625012e-20)
(2.7823954 -0.59534835 -1.2818187e-19)
(3.0750556 -0.48585421 -7.4686457e-19)
(3.2692395 -0.19514957 -6.7448981e-19)
(3.2374354 0.12037027 7.0368949e-20)
(3.0462862 0.30122387 1.2423651e-19)
(2.8422364 0.33593848 0)
(2.7059054 0.28937317 1.7984866e-20)
(2.6320742 0.22448503 1.2769962e-20)
(2.5942646 0.16670071 6.5835621e-21)
(2.5753001 0.12065177 2.5074395e-22)
(2.5658159 0.084758368 -6.7288215e-22)
(2.5608093 0.057191842 1.1645613e-21)
(2.5577683 0.035293348 2.6164043e-21)
(2.5545889 0.018827631 9.159398e-22)
(2.5515501 0.0048245651 2.4003441e-22)
(2.4378987 -0.47898343 -7.0912659e-23)
(2.7072717 -0.68112501 1.4633171e-20)
(3.0383023 -0.58686139 1.6239083e-19)
(3.2814882 -0.2648433 -4.2116319e-19)
(3.3278916 0.1333388 -1.9841817e-19)
(3.1440146 0.37706933 -4.369457e-20)
(2.8945033 0.4310076 1.9792984e-20)
(2.7130998 0.36770207 -7.4559571e-21)
(2.6215924 0.28027293 -1.5384939e-20)
(2.5796383 0.20584627 -1.5586398e-21)
(2.5610335 0.14875105 3.3197416e-21)
(2.5534083 0.10597226 7.7864043e-21)
(2.5507343 0.073603296 -4.3328926e-21)
(2.5499234 0.049174858 -1.3366076e-21)
(2.5495745 0.030029002 1.5198282e-22)
(2.5481903 0.015809915 4.0089648e-22)
(2.5464574 0.0040230454 -1.6637569e-21)
(2.3656363 -0.50449542 2.4465598e-20)
(2.6015439 -0.74245946 2.2248458e-19)
(2.9390362 -0.6698434 8.6284626e-19)
(3.229132 -0.31496563 1.1427186e-18)
(3.3284524 0.16339065 2.2345702e-20)
(3.1943415 0.47913355 -3.5335054e-19)
(2.9342441 0.55367173 1.5834185e-19)
(2.7163525 0.46692642 4.7106348e-21)
(2.6021788 0.34637714 -1.2914141e-20)
(2.5571706 0.24976192 -8.9462264e-21)
(2.5407399 0.1790395 -1.3726994e-20)
(2.536413 0.12777723 -5.2858211e-22)
(2.5370064 0.09029947 2.7416272e-21)
(2.5392594 0.06226248 1.651951e-22)
(2.541515 0.041276561 -1.4303741e-21)
(2.5431682 0.024969094 2.6831832e-21)
(2.5431708 0.012968308 -1.1199756e-21)
(2.5424749 0.0032818114 -3.6265572e-21)
(2.2868666 -0.51472447 5.9450433e-21)
(2.4719691 -0.7802314 1.4801072e-20)
(2.7854266 -0.73088833 -2.0459943e-20)
(3.0783527 -0.32726032 2.6420423e-19)
(3.1703833 0.22577016 -1.3638134e-20)
(3.1140525 0.61880905 -6.5978019e-20)
(2.9011246 0.70929203 -4.2578946e-20)
(2.7009197 0.59257102 -2.9164823e-21)
(2.5707715 0.4247171 1.7361131e-21)
(2.5241943 0.29803084 1.2087567e-20)
(2.5128497 0.2106554 5.5420671e-21)
(2.5138721 0.1497766 9.5984168e-21)
(2.5191155 0.10640831 -4.3446231e-21)
(2.5252313 0.074887633 -3.2123817e-21)
(2.5308407 0.051354944 -1.2593912e-21)
(2.5352263 0.033805238 2.8218178e-21)
(2.5383028 0.020257117 9.0989282e-22)
(2.5393407 0.010360866 -2.4454378e-21)
(2.5394446 0.0026080402 1.7303546e-21)
(2.204806 -0.51112655 -4.211875e-20)
(2.3282789 -0.79992497 -1.7245748e-19)
(2.5955285 -0.76231306 -1.5440659e-20)
(2.8516438 -0.3054324 3.6770033e-20)
(2.9183393 0.32710871 6.7412945e-20)
(2.8549309 0.77743634 7.4741877e-20)
(2.7440901 0.88686433 -1.9691833e-19)
(2.6275842 0.73842571 -4.9394341e-20)
(2.5210218 0.51683764 -6.5155853e-20)
(2.4779834 0.34963622 0)
(2.4757101 0.24234348 7.2760054e-21)
(2.4848998 0.17078337 -1.7576619e-21)
(2.4965379 0.12140399 -3.716253e-22)
(2.5076301 0.0861552 1.4069828e-21)
(2.5171845 0.060461864 0)
(2.5249304 0.041242727 -6.1745509e-23)
(2.5307056 0.026941208 -8.341698e-23)
(2.5347371 0.015974339 -1.8344305e-21)
(2.5365151 0.0080179922 -4.2288702e-22)
(2.5372175 0.0020048913 5.2859766e-21)
(2.1213759 -0.49490618 -7.6496658e-20)
(2.1805577 -0.8026053 -5.1297152e-20)
(2.3878846 -0.7639127 -1.2781059e-19)
(2.581671 -0.25802546 -4.6004828e-19)
(2.6096359 0.45061755 2.8999319e-19)
(2.5371352 0.94628467 3.7852807e-20)
(2.4752827 1.0621834 7.4971673e-20)
(2.4553646 0.88203995 -2.5023544e-20)
(2.4346161 0.61573856 2.0727921e-20)
(2.4158883 0.40320286 4.0804791e-21)
(2.4277767 0.27203613 1.3196865e-20)
(2.4487938 0.18939324 -1.4105136e-20)
(2.4689495 0.13409466 1.9862117e-20)
(2.4862736 0.095561417 -2.0624197e-21)
(2.5005698 0.067763763 -9.3238036e-21)
(2.5120568 0.047387733 -1.3867785e-21)
(2.5210327 0.032110704 3.1046981e-21)
(2.5276305 0.020774584 -3.8978714e-21)
(2.5322473 0.012157485 -1.164141e-21)
(2.5345228 0.0059501105 -2.8703539e-21)
(2.5356587 0.0014816904 4.5826398e-21)
(2.0368502 -0.46950896 -4.5588227e-20)
(2.0375359 -0.79228814 -2.2151141e-20)
(2.1797371 -0.74018706 5.890806e-20)
(2.2966098 -0.19118844 6.8721915e-21)
(2.2752062 0.58150527 2.9772363e-19)
(2.1864669 1.1185807 -2.2958265e-19)
(2.1411248 1.2274966 -5.0246893e-20)
(2.185804 1.0067607 -5.4872854e-20)
(2.2844218 0.70139686 3.238286e-20)
(2.3327747 0.45418791 6.1836669e-21)
(2.3680332 0.29720681 -1.7512211e-20)
(2.405186 0.20361631 3.0017179e-21)
(2.4363062 0.14326926 -9.0124168e-21)
(2.461227 0.10207487 -7.6462305e-21)
(2.4810491 0.072851315 5.035969e-21)
(2.4967912 0.051512179 -6.805602e-21)
(2.5091692 0.035804631 4.7969227e-21)
(2.5187216 0.024027961 -2.0302101e-21)
(2.5257174 0.015334892 -2.9395673e-23)
(2.5306334 0.0088129604 2.7393371e-22)
(2.533211 0.0041528526 2.2492767e-21)
(2.5346361 0.0010415331 -3.5874234e-21)
(1.9526743 -0.44004319 -5.6024115e-21)
(1.90627 -0.77136977 -1.1782389e-19)
(1.9850652 -0.69882092 1.4137323e-19)
(2.0196306 -0.11276161 -3.8352266e-19)
(1.9468957 0.7135347 -9.0407968e-20)
(1.8372785 1.2818107 -1.346731e-20)
(1.7985825 1.3791833 8.562961e-21)
(1.8669133 1.1096946 4.7844757e-20)
(2.0617247 0.75345206 -1.8678338e-20)
(2.2191817 0.49029476 7.157835e-22)
(2.2962338 0.31452701 -1.1275121e-20)
(2.3542107 0.21116175 5.9818344e-21)
(2.3989696 0.14739051 -1.2967982e-20)
(2.4328309 0.104805 9.0830924e-21)
(2.4589196 0.074909774 6.0079388e-21)
(2.4793297 0.053321598 -9.5353025e-21)
(2.4954034 0.037417971 -1.3701236e-21)
(2.5079735 0.02571862 -6.812535e-22)
(2.5176417 0.016991366 3.5956103e-21)
(2.5247233 0.010613105 7.8789507e-21)
(2.5297202 0.0059278566 -2.0381577e-22)
(2.5324462 0.0026126636 -2.6615038e-22)
(2.5340313 0.00067905178 -3.7377116e-21)
(1.8718632 -0.4100009 3.1715641e-20)
(1.7916655 -0.7432347 6.8070471e-20)
(1.8129804 -0.64722122 -2.4283977e-19)
(1.7688179 -0.028900704 2.5113838e-19)
(1.6484755 0.83722145 1.3504971e-19)
(1.5217856 1.4253939 2.0880977e-19)
(1.4836365 1.5091759 1.5736536e-19)
(1.5536714 1.1907271 -6.0813345e-20)
(1.7930203 0.76554141 1.397128e-20)
(2.0679705 0.49432159 3.2060728e-21)
(2.212425 0.31850126 1.1731874e-20)
(2.2968188 0.2095238 -6.3657935e-21)
(2.3577821 0.14492693 9.6372192e-21)
(2.401778 0.10270917 9.8096668e-21)
(2.4347017 0.073370119 -7.1058828e-21)
(2.4600838 0.052213122 4.8304176e-21)
(2.4800069 0.036762308 -7.7196468e-21)
(2.4957311 0.025366518 9.7349497e-21)
(2.5080365 0.017061893 -5.2856259e-21)
(2.5175017 0.010954718 -6.666421e-22)
(2.5244432 0.006576699 2.2002316e-21)
(2.5293567 0.0034781557 -5.0184833e-21)
(2.5321128 0.0013171934 2.876512e-21)
(2.5337975 0.00037748787 -1.1804301e-23)
(1.7971461 -0.38158371 -1.5166611e-21)
(1.6959749 -0.71150185 1.1601599e-19)
(1.6681467 -0.59034192 3.0048427e-19)
(1.5560051 0.05526199 -7.6657574e-20)
(1.396639 0.94672601 -4.148041e-19)
(1.2610847 1.5445639 -6.6190023e-20)
(1.2212262 1.6141227 2.0343018e-19)
(1.2809105 1.2490713 -3.3143095e-19)
(1.5228569 0.74415489 -2.8265994e-20)
(1.8853763 0.45544215 -3.0191807e-22)
(2.1167945 0.30077575 -1.8086142e-21)
(2.2351675 0.1962895 1.4107482e-21)
(2.3141122 0.13435817 1.2632696e-20)
(2.3691318 0.094959731 3.3690867e-22)
(2.4091745 0.067609921 -1.2761038e-20)
(2.4396214 0.047880421 8.1646492e-21)
(2.4634299 0.033414155 -1.2148817e-20)
(2.482297 0.022867673 -2.0347684e-21)
(2.4972695 0.015183905 2.5669888e-21)
(2.5090197 0.009728546 6.929436e-21)
(2.5180663 0.0058476254 -5.5481922e-21)
(2.5247075 0.003178957 -1.3209564e-20)
(2.5294159 0.0014342555 7.5239679e-22)
(2.5321124 0.00025538654 5.3898663e-21)
(2.5337872 0.00011344873 -9.2970026e-25)
(1.7306458 -0.35606578 2.0859119e-21)
(1.6192063 -0.67909242 -1.6932735e-19)
(1.5518359 -0.53245098 7.6805912e-19)
(1.3864797 0.1348328 -2.1290359e-19)
(1.2007031 1.0393465 1.3069006e-21)
(1.0659736 1.6367104 7.3811053e-20)
(1.023964 1.6951271 1.6887358e-19)
(1.0647739 1.2855981 1.0075506e-19)
(1.2876679 0.69912106 -8.9078046e-20)
(1.6927945 0.37522587 -4.2508755e-20)
(2.0117175 0.25323723 -4.7681142e-21)
(2.1724329 0.1689849 -1.7235958e-21)
(2.2699615 0.11456651 -1.5653663e-20)
(2.3362946 0.080901392 6.3988353e-21)
(2.3833468 0.057305909 5.3040983e-21)
(2.4186763 0.04001129 -1.173489e-23)
(2.4462148 0.027257663 -2.5468915e-21)
(2.4681164 0.017939289 1.2206795e-21)
(2.485649 0.011315171 -2.7772854e-21)
(2.4996439 0.0066760485 -4.475862e-21)
(2.5106609 0.0035955063 7.8384925e-21)
(2.5191478 0.0015877573 -6.1103704e-21)
(2.5253782 0.00036426683 7.8938595e-22)
(2.529793 -0.0002381888 1.0279574e-20)
(2.5323589 -0.00060251181 -5.6062066e-21)
(2.5339723 -5.9031213e-05 2.7434427e-21)
(1.6737548 -0.33401448 -1.2261578e-20)
(1.5598964 -0.6482122 -1.7534316e-19)
(1.4629727 -0.47698496 -1.6680679e-19)
(1.2600746 0.20684865 -4.2464593e-20)
(1.0611522 1.1137853 -8.1433796e-19)
(0.93878097 1.7047172 -3.9825949e-20)
(0.89164002 1.7515327 1.5873474e-19)
(0.91330392 1.3020487 1.0889556e-18)
(1.1052351 0.63788272 6.5842661e-19)
(1.5166399 0.26384348 -7.2601509e-20)
(1.9042738 0.17289579 -1.8572524e-20)
(2.1121506 0.12510126 4.3284483e-22)
(2.2280038 0.085087227 1.0153123e-20)
(2.3049315 0.060280002 1.4482077e-21)
(2.3583951 0.042349459 7.8460368e-21)
(2.3980961 0.028605066 -1.5309414e-20)
(2.428996 0.018189389 3.8193172e-21)
(2.4536749 0.010595147 -3.1024821e-21)
(2.4735919 0.0052804124 1.0012814e-20)
(2.4896741 0.0017989225 -1.0656297e-20)
(2.5025763 -0.00035106549 2.1299838e-21)
(2.512758 -0.0014652187 3.8265964e-21)
(2.5205969 -0.0019110798 1.2616384e-21)
(2.5263434 -0.0019276555 3.8177764e-21)
(2.5304019 -0.0015787416 -3.3381941e-22)
(2.5327844 -0.0012871507 -8.6049819e-21)
(2.5342971 -0.00016319628 4.3906991e-21)
(1.6273779 -0.3155782 -9.0502959e-21)
(1.5157845 -0.62017418 -1.398086e-21)
(1.3985797 -0.42595087 -9.4230939e-20)
(1.1730642 0.26998064 -5.6176173e-19)
(0.97252177 1.1707184 -6.536688e-19)
(0.87300268 1.7518718 -4.7559339e-19)
(0.81908732 1.7909673 -4.4033347e-19)
(0.82111678 1.3015895 -1.3682846e-18)
(0.98613119 0.56443538 1.3955639e-19)
(1.378284 0.13316826 5.8020004e-19)
(1.8058042 0.064253451 2.139252e-20)
(2.0581333 0.06338667 7.2692753e-21)
(2.1912818 0.046220346 -1.8832748e-20)
(2.2768694 0.033345809 -1.2261743e-20)
(2.335582 0.023024444 -3.8984491e-21)
(2.3787632 0.013848842 4.2664002e-21)
(2.4124354 0.0063869648 8.922971e-23)
(2.4394977 0.00085903657 -3.8070888e-21)
(2.4615179 -0.0028243961 4.2745505e-22)
(2.4794857 -0.0049972993 1.6065202e-20)
(2.4940942 -0.0059602845 3.1135003e-21)
(2.50586 -0.006082287 5.9729845e-21)
(2.5151555 -0.0055783123 -8.9974293e-21)
(2.5222963 -0.0047333652 1.0250329e-20)
(2.5275128 -0.0037560036 5.7398734e-22)
(2.5311728 -0.002628288 2.4977262e-21)
(2.5333389 -0.0018121544 2.8832819e-22)
(2.5347027 -0.00026262997 -3.0110638e-21)
(1.5928994 -0.30052123 1.5623585e-20)
(1.4845982 -0.59531104 1.8896053e-21)
(1.3553118 -0.38027774 -1.4488205e-18)
(1.1192417 0.323165 1.5816279e-18)
(0.93195307 1.2123503 1.037683e-18)
(0.85326041 1.7805396 3.6174995e-20)
(0.79605253 1.8177196 -6.6110117e-19)
(0.78393653 1.2905274 -2.6439695e-19)
(0.92846166 0.48071199 -4.3279106e-19)
(1.2896698 -0.0071206025 -2.9811466e-19)
(1.7281178 -0.064812536 -1.6635913e-20)
(2.0146892 -0.014742065 4.3410676e-20)
(2.1626613 -0.0010166835 8.0419609e-21)
(2.2539751 0.0010114433 -3.802711e-21)
(2.3161285 -3.3832327e-05 -5.5872486e-21)
(2.361527 -0.0037511377 8.4540495e-21)
(2.3971396 -0.0078441595 -7.8715205e-21)
(2.4260668 -0.011028094 6.0115918e-21)
(2.4498509 -0.012915572 -6.5624969e-22)
(2.4694376 -0.013569426 3.7450949e-21)
(2.4855457 -0.013262774 -6.1105908e-21)
(2.4987117 -0.01220878 9.0011559e-21)
(2.5093421 -0.010685545 1.7338924e-22)
(2.5177344 -0.0088592452 -4.5779255e-21)
(2.5241527 -0.0069582032 -9.7256512e-21)
(2.5288131 -0.0051749823 7.1961697e-21)
(2.5320483 -0.0034258051 -5.1314796e-22)
(2.5339752 -0.0021938298 2.8509066e-21)
(2.5351652 -0.00034679523 -9.281242e-21)
(1.5691614 -0.28881179 9.3246949e-22)
(1.4645037 -0.5738089 0)
(1.3299587 -0.34042686 -3.5079107e-19)
(1.0941127 0.36631854 -1.9569914e-18)
(0.93216911 1.2405765 8.0106595e-19)
(0.86345269 1.7932739 3.2586741e-19)
(0.81584323 1.830492 2.8169837e-19)
(0.78031743 1.2707234 3.6130748e-18)
(0.91770926 0.39069229 -1.6729151e-19)
(1.2548929 -0.150212 3.0055591e-19)
(1.6801784 -0.20475638 -1.1617609e-19)
(1.9856138 -0.10611112 -7.3587152e-20)
(2.1442975 -0.05532689 -2.4010409e-20)
(2.2378844 -0.035383286 -9.0269683e-22)
(2.3010636 -0.025899826 1.4779817e-20)
(2.347109 -0.023484687 1.7308457e-20)
(2.383631 -0.023965773 1.4735986e-20)
(2.4137968 -0.024735468 -5.4482684e-22)
(2.4389434 -0.024727335 -7.3463991e-21)
(2.4598743 -0.023797447 2.7850757e-22)
(2.4772374 -0.022086096 8.3783793e-21)
(2.4916009 -0.019825685 -1.6895399e-20)
(2.5033877 -0.017162336 -1.8102052e-20)
(2.5129104 -0.01431137 -4.9393839e-21)
(2.5204041 -0.011413243 -2.5221805e-23)
(2.5260923 -0.008658959 -3.7463735e-21)
(2.5301848 -0.0062336419 -1.9896962e-22)
(2.5329821 -0.0040041481 -8.8541757e-21)
(2.5346523 -0.0024531728 -3.8859829e-23)
(2.5356569 -0.00040813695 -3.0465835e-21)
(1.5543719 -0.27653199 -2.9040056e-21)
(1.4534415 -0.55525844 2.4723551e-21)
(1.3187629 -0.30679486 1.0956878e-18)
(1.0933184 0.4006251 -2.7095684e-18)
(0.94780613 1.2562683 -1.1286372e-18)
(0.91496281 1.7929907 0)
(0.8881033 1.8285049 4.1843931e-19)
(0.87037085 1.2369951 1.2348658e-18)
(0.95632873 0.2974803 -2.8296668e-19)
(1.2687271 -0.29147207 6.2924506e-19)
(1.6664538 -0.3458169 -9.1791153e-20)
(1.9744647 -0.20520859 -1.7506155e-19)
(2.1375398 -0.11467843 -2.1468846e-20)
(2.2297744 -0.074199758 -1.0466584e-20)
(2.2911603 -0.053336363 -3.3865529e-21)
(2.3360237 -0.044415155 3.1875677e-21)
(2.3722703 -0.041309422 -1.0510271e-21)
(2.4029787 -0.039764999 -5.9545816e-21)
(2.4290878 -0.037955497 3.7603962e-21)
(2.4510713 -0.035421134 -2.923643e-21)
(2.4694558 -0.032290422 3.014846e-22)
(2.4847879 -0.028743662 7.2358861e-21)
(2.4975362 -0.024952478 -7.9324523e-22)
(2.5080249 -0.021009855 -6.2270014e-21)
(2.516483 -0.017093733 6.2044146e-21)
(2.5230961 -0.01333573 9.3319675e-21)
(2.5280585 -0.0099040003 9.4328077e-21)
(2.531581 -0.0069781523 0)
(2.5339376 -0.0043904744 -4.0262341e-21)
(2.5353401 -0.0026094918 -6.0519999e-21)
(2.5361557 -0.00044559196 4.6859201e-21)
(1.5491604 -0.26669223 -2.7813403e-21)
(1.451181 -0.53862028 -1.2495752e-19)
(1.3174801 -0.27763392 6.1231638e-19)
(1.1084507 0.42780899 1.7657232e-18)
(0.98713394 1.2624747 -2.9109724e-19)
(0.98521026 1.7816896 -1.717572e-20)
(0.98425746 1.8138928 -1.3891304e-19)
(0.99524637 1.1922403 3.6150228e-19)
(1.0650603 0.20099825 5.1238338e-19)
(1.3217069 -0.42709519 -8.464525e-19)
(1.6870811 -0.48142622 7.451782e-19)
(1.9827322 -0.30583023 -5.5275337e-20)
(2.1433083 -0.17607658 7.0822525e-20)
(2.2303417 -0.11353651 1.1863678e-20)
(2.2869158 -0.080902642 -1.2804291e-21)
(2.328575 -0.065488777 -1.520722e-20)
(2.3632317 -0.059078431 -1.3586081e-20)
(2.3937478 -0.055585413 -2.7615859e-21)
(2.4204307 -0.05220553 -3.017718e-21)
(2.4432348 -0.048184698 -4.4972848e-21)
(2.4624257 -0.043630365 2.7636517e-21)
(2.4785137 -0.038807226 3.8244767e-21)
(2.4920066 -0.033854818 -3.8576227e-21)
(2.5032791 -0.02887169 7.4684541e-21)
(2.5125585 -0.023915871 2.7481299e-20)
(2.5200017 -0.019151531 3.2493061e-21)
(2.5257597 -0.01471358 -5.7523076e-22)
(2.5300086 -0.010756981 0)
(2.5329663 -0.0074538117 7.3730928e-21)
(2.5348869 -0.0046117729 -1.0692267e-20)
(2.5360166 -0.0026802615 -1.8047328e-21)
(2.5366453 -0.00046132248 3.0218026e-21)
(1.5548168 -0.25846001 1.8360871e-21)
(1.4565044 -0.52343311 -1.6130999e-21)
(1.3267352 -0.2558233 5.8218773e-20)
(1.1349765 0.4490136 4.4683108e-19)
(1.0398382 1.2620342 1.4581088e-19)
(1.0689884 1.7614121 4.9183585e-19)
(1.1035488 1.7880782 2.6968276e-19)
(1.1466753 1.1409906 4.6927434e-19)
(1.221288 0.10681039 3.7070275e-20)
(1.4107939 -0.55207792 -2.9396244e-19)
(1.7384609 -0.60716929 1.913159e-19)
(2.0098736 -0.40305677 3.3652431e-19)
(2.1613913 -0.23657243 7.8858175e-20)
(2.2396484 -0.15154811 -1.2832228e-20)
(2.2884839 -0.10710285 1.2462743e-21)
(2.324773 -0.085608761 1.3353136e-22)
(2.3564769 -0.076453007 -5.9158867e-22)
(2.3860595 -0.07161006 -2.9350607e-21)
(2.4129874 -0.067092068 -5.469187e-21)
(2.4364539 -0.061791905 1.7784958e-22)
(2.4563124 -0.055888236 -6.7263219e-21)
(2.4729713 -0.049779304 -3.6334325e-21)
(2.4870008 -0.043698748 -3.5284105e-21)
(2.4988522 -0.037686864 -1.4979944e-20)
(2.5087896 -0.031778843 -4.5558832e-22)
(2.5169473 -0.026022996 4.7071581e-21)
(2.5234258 -0.020590058 6.0246608e-23)
(2.5283575 -0.015625653 -8.1515352e-21)
(2.531911 -0.011276499 5.8190315e-21)
(2.534315 -0.0077039598 -2.4966111e-21)
(2.535809 -0.0046961333 9.3474058e-21)
(2.5366663 -0.0026810793 5.6385752e-21)
(2.5371135 -0.00045872346 0)
(1.5731 -0.25179161 1.7247895e-20)
(1.4699726 -0.50969123 3.2487893e-19)
(1.3445094 -0.24157195 2.3363551e-19)
(1.1686435 0.45902918 6.8674968e-19)
(1.1002433 1.2543288 2.2917534e-18)
(1.1613639 1.7340212 -3.7974636e-19)
(1.2375168 1.7528326 2.8354294e-20)
(1.3199599 1.0839894 -2.1409854e-18)
(1.3903154 0.020799858 -1.1117409e-18)
(1.5356187 -0.66230832 5.8398832e-20)
(1.8142466 -0.72011551 -3.3840931e-19)
(2.0539423 -0.49326813 1.0876093e-19)
(2.1908204 -0.29362386 -3.2370945e-19)
(2.2571346 -0.1866915 -2.7120896e-20)
(2.2956427 -0.13068062 -8.17638e-21)
(2.3244269 -0.10368729 1.0771068e-20)
(2.3517727 -0.09261043 1.092921e-20)
(2.3796955 -0.087272009 6.4294916e-21)
(2.4066276 -0.082233339 -9.0462183e-22)
(2.4307123 -0.07598601 -1.0720227e-21)
(2.4511985 -0.068838707 -3.7056646e-21)
(2.4683112 -0.061461462 1.0080662e-20)
(2.4826861 -0.054245098 -8.2534148e-22)
(2.4949066 -0.047270095 3.8488294e-22)
(2.5053149 -0.0404671 -4.3402227e-21)
(2.51405 -0.033839778 -8.272554e-21)
(2.521166 -0.027454088 -6.9245711e-21)
(2.526727 -0.021502136 -8.987159e-23)
(2.5308621 -0.016142834 7.1657759e-21)
(2.533742 -0.011515642 -3.455958e-21)
(2.5356082 -0.0077678461 -8.4533215e-21)
(2.536689 -0.0046700253 6.7970782e-21)
(2.537279 -0.0026255909 1.5905792e-21)
(2.5375518 -0.00044142217 0)
(1.6037252 -0.24620051 1.1409338e-22)
(1.4922997 -0.49684822 1.1586233e-21)
(1.3700272 -0.22924367 8.4978564e-21)
(1.2119937 0.44943685 7.1498658e-19)
(1.1689781 1.2337121 9.9572416e-19)
(1.2570816 1.6996197 -8.4261998e-19)
(1.3789344 1.7087079 3.3580773e-20)
(1.5019738 1.0228923 -1.2497316e-18)
(1.5751615 -0.059861631 5.6997844e-19)
(1.6818187 -0.75488315 2.3406207e-19)
(1.9064028 -0.8182731 -1.0788494e-19)
(2.1121585 -0.57400418 7.2817617e-20)
(2.2300297 -0.34535855 -6.3861004e-20)
(2.2820174 -0.21758298 1.9785954e-20)
(2.3078323 -0.15047332 8.3261108e-22)
(2.3270955 -0.11890873 -2.0071269e-20)
(2.3487226 -0.10683424 0)
(2.374292 -0.10203813 -2.1964538e-21)
(2.4010838 -0.097302987 -1.9785005e-21)
(2.4258839 -0.090553073 1.0952901e-20)
(2.4470911 -0.082316084 -7.8913802e-21)
(2.4646323 -0.073663637 4.9250378e-21)
(2.4792052 -0.065293898 9.5984189e-21)
(2.4915821 -0.057372041 4.180083e-21)
(2.5022549 -0.049783736 -6.2498911e-22)
(2.5114082 -0.042385679 -5.7721218e-22)
(2.5190579 -0.035193588 1.6586325e-22)
(2.5252007 -0.028314372 2.4498736e-21)
(2.529886 -0.021969162 -3.5164012e-21)
(2.5332541 -0.016328221 1.0359808e-20)
(2.5354844 -0.011521861 -4.0754192e-21)
(2.5368323 -0.0076795906 2.097741e-21)
(2.5375163 -0.0045558785 -3.4803238e-21)
(2.5378476 -0.002525548 0)
(2.5379542 -0.00041274777 -1.6874894e-21)
(1.6451844 -0.24137764 2.2992709e-20)
(1.5236952 -0.48465831 -4.7308074e-19)
(1.4023319 -0.2186795 -6.5459689e-19)
(1.2647684 0.44314164 -2.1527859e-18)
(1.2442441 1.1915623 -6.8831062e-19)
(1.358165 1.6564279 -1.2442512e-18)
(1.5211827 1.659663 -1.8912913e-20)
(1.6852303 0.95767854 1.4005973e-19)
(1.7627568 -0.13335063 4.5599871e-19)
(1.8380338 -0.83096641 -2.903642e-19)
(2.0098003 -0.90041954 -1.8576545e-19)
(2.1812943 -0.64419915 4.809486e-20)
(2.2772426 -0.39048885 2.3591777e-19)
(2.3133306 -0.24327528 2.4924534e-20)
(2.3245856 -0.16552932 2.0188852e-20)
(2.3323119 -0.13011294 1.1515511e-21)
(2.3467774 -0.11846175 -3.7578592e-21)
(2.3693531 -0.11548919 -1.1595227e-20)
(2.3959771 -0.11204082 -2.4942148e-21)
(2.4217451 -0.10535656 -2.5732157e-21)
(2.4439256 -0.096217321 2.2910735e-21)
(2.4619914 -0.086262379 -7.9243266e-22)
(2.476676 -0.076655799 3.5144382e-21)
(2.489007 -0.067775676 -6.9108416e-21)
(2.4997149 -0.059466548 1.5005611e-20)
(2.5090971 -0.051458074 1.1040707e-21)
(2.5171601 -0.043597815 1.5587797e-20)
(2.5238194 -0.035955564 9.3379311e-22)
(2.5290437 -0.028693531 4.5945401e-23)
(2.5328899 -0.022062229 -4.8301855e-21)
(2.5355196 -0.016237593 -3.2304674e-21)
(2.537126 -0.01133713 1.2937709e-20)
(2.5379777 -0.0074685841 6.1108804e-21)
(2.5382841 -0.0043720531 -2.8841738e-21)
(2.5383681 -0.0023909258 -4.1231359e-21)
(2.5383174 -0.00037548767 8.9974502e-23)
(1.6962195 -0.23698046 -2.18229e-20)
(1.5635846 -0.47262984 -1.839111e-19)
(1.4408643 -0.210043 -3.9031037e-19)
(1.3233566 0.43263001 -2.0005191e-20)
(1.3266815 1.1522816 -2.9357942e-19)
(1.4611455 1.601088 2.6960225e-19)
(1.6657285 1.611223 -2.0999128e-20)
(1.864694 0.89402484 4.1491667e-20)
(1.9450779 -0.19784685 -4.1531403e-19)
(1.9966961 -0.89282032 5.0603199e-19)
(2.1204203 -0.96701646 2.5524976e-19)
(2.2574327 -0.70335928 -4.6060838e-19)
(2.3306398 -0.42826922 -2.0457012e-20)
(2.3498663 -0.26349515 -2.4472131e-20)
(2.3454873 -0.17519371 -6.8581776e-23)
(2.3394869 -0.13724832 1.2541208e-20)
(2.3454736 -0.12680212 2.6811692e-20)
(2.3643225 -0.12716549 -6.8376488e-22)
(2.3908357 -0.12627761 1.742299e-21)
(2.4179948 -0.12033904 -6.2187624e-21)
(2.4415777 -0.11052759 8.352198e-22)
(2.4604107 -0.09920254 -7.9722116e-21)
(2.4752044 -0.088202685 1.2924377e-20)
(2.4873048 -0.078266631 -4.040625e-21)
(2.4977953 -0.069275226 -1.4236383e-21)
(2.5071797 -0.060785699 -5.0454109e-22)
(2.5155014 -0.052466563 5.7008719e-21)
(2.5226045 -0.044226848 1.3300762e-20)
(2.5283438 -0.036220321 1.4487953e-21)
(2.5326915 -0.028667829 1.4653513e-20)
(2.5357297 -0.021843217 5.0386719e-21)
(2.5376495 -0.015919929 -9.5307394e-21)
(2.5386591 -0.01099816 -8.2091439e-22)
(2.5390388 -0.0071601833 2.4959587e-21)
(2.5389885 -0.0041338886 5.0102211e-21)
(2.5388382 -0.0022300078 2.3872605e-21)
(2.53864 -0.00033187846 -1.6677326e-21)
(1.7554271 -0.2327059 -9.5184024e-20)
(1.6110476 -0.460409 2.3275543e-19)
(1.485298 -0.2031202 3.4719717e-19)
(1.3868404 0.41968882 1.4477294e-18)
(1.4129528 1.10697 -1.9912e-18)
(1.5704714 1.5420774 3.7425475e-19)
(1.8067398 1.5659576 5.9890825e-19)
(2.0473363 0.8507305 0)
(2.113912 -0.2649011 6.0791708e-20)
(2.1522195 -0.94090496 1.0895644e-19)
(2.2336956 -1.0183272 8.3267523e-20)
(2.3368434 -0.75326353 -8.6509713e-20)
(2.3886324 -0.45842487 5.921783e-20)
(2.390468 -0.27788625 3.1469912e-21)
(2.3696123 -0.17967276 -3.5680194e-22)
(2.3480815 -0.13949538 1.5797746e-21)
(2.3439244 -0.13183366 -2.7089378e-20)
(2.358591 -0.13696728 2.0297043e-20)
(2.3851535 -0.13989258 5.40792e-21)
(2.4142747 -0.13553158 -2.4838206e-21)
(2.439877 -0.12531653 9.3091767e-21)
(2.459888 -0.11251822 -1.2544006e-20)
(2.4748946 -0.099867448 -6.2680965e-21)
(2.4866091 -0.088676597 4.9132247e-21)
(2.4966025 -0.078958373 -3.3103447e-21)
(2.5057141 -0.070108528 8.5727582e-21)
(2.5140966 -0.061528426 -2.9879495e-20)
(2.5215399 -0.05293952 -2.7820104e-21)
(2.5277744 -0.044368372 -1.1436251e-20)
(2.5326402 -0.036065078 9.0355188e-21)
(2.536142 -0.028302114 1.2748569e-22)
(2.5384 -0.021365823 3.624687e-21)
(2.539638 -0.015417877 -8.2226259e-21)
(2.5400793 -0.010536623 -2.4236272e-21)
(2.5400126 -0.0067760707 -6.8836713e-21)
(2.5396278 -0.0038543509 7.3192576e-21)
(2.5392575 -0.0020495462 4.7626104e-21)
(2.5389231 -0.00028373781 3.0865195e-21)
(1.8212614 -0.22828758 3.0998322e-20)
(1.6651815 -0.44771895 1.5503654e-19)
(1.5353699 -0.19743065 7.1998762e-19)
(1.4545505 0.40387838 -2.0933599e-19)
(1.5026554 1.0589315 -1.7182557e-20)
(1.6827036 1.4762849 -3.0540698e-20)
(1.9487765 1.5030121 -2.3670769e-19)
(2.2283422 0.83795321 2.0242876e-19)
(2.2831634 -0.28677415 -1.1255635e-19)
(2.2979574 -0.98164598 1.1984391e-19)
(2.3456747 -1.0584604 1.4805954e-19)
(2.41678 -0.7920739 5.0672208e-19)
(2.4495825 -0.48163426 3.2410158e-20)
(2.4342288 -0.28662181 -6.7710535e-21)
(2.3959839 -0.17871827 -3.54763e-20)
(2.3575734 -0.13617397 1.5372039e-20)
(2.3412422 -0.1330458 -2.2180089e-20)
(2.3514227 -0.14460629 5.250273e-21)
(2.3783324 -0.15299008 4.1801464e-21)
(2.4101935 -0.15104571 1.0728392e-20)
(2.4386194 -0.14074569 5.7484272e-21)
(2.4604058 -0.12632896 7.3021949e-21)
(2.4758587 -0.11166258 -7.8557412e-21)
(2.4870757 -0.098879971 3.7285216e-21)