/*--------------------------------*- C++ -*----------------------------------*\
| =========                 |                                                 |
| \\      /  F ield         | OpenFOAM: The Open Source CFD Toolbox           |
|  \\    /   O peration     | Version:  v2012                                 |
|   \\  /    A nd           | Website:  www.openfoam.com                      |
|    \\/     M anipulation  |                                                 |
\*---------------------------------------------------------------------------*/
FoamFile
{
    version     2.0;
    format      ascii;
    class       surfaceVectorField;
    location    "25.623820540314586";
    object      Uf;
}
// * * * * * * * * * * * * * * * * * * * * * * * * * * * * * * * * * * * * * //

dimensions      [0 1 -1 0 0 0 0];


internalField   nonuniform List<vector> 
18180
(
(2.6845754 -0.0054804181 -2.4976599e-21)
(2.6878753 -0.0010344933 -1.4305524e-21)
(2.6876106 -0.012016829 4.2557461e-22)
(2.6917382 -0.0060531294 -8.5243255e-23)
(2.6930662 -0.0019562916 9.5902221e-22)
(2.6897085 0.00067506403 -3.9202265e-22)
(2.6918218 -0.020129056 9.6790668e-22)
(2.6973501 -0.011049481 9.6940639e-22)
(2.6991512 -0.0052104533 4.9254607e-22)
(2.6950031 -0.00078467301 -7.0470079e-23)
(2.6928236 0.001608343 -1.3890278e-21)
(2.6882607 0.0024899198 -3.5998721e-21)
(2.6967264 -0.030837703 -5.5565297e-23)
(2.7056955 -0.019203192 8.6298203e-23)
(2.7083742 -0.010537737 -2.3979714e-24)
(2.7030714 -0.0024651489 3.410788e-21)
(2.7004102 0.0019187849 2.8930169e-21)
(2.6947103 0.005296556 -2.2860792e-21)
(2.6902693 0.0060476017 -4.3901125e-21)
(2.6830287 0.0043884207 3.3801577e-21)
(2.7015105 -0.044736475 8.7301513e-22)
(2.7153527 -0.030325782 4.1076411e-21)
(2.7206467 -0.019135366 4.2246278e-21)
(2.7155758 -0.0071937409 -6.4906555e-21)
(2.7122159 0.00057203846 -3.3419191e-21)
(2.7044751 0.0078509195 5.4920926e-21)
(2.6989949 0.011342889 6.2201952e-22)
(2.6898186 0.012235324 -2.550113e-21)
(2.6829685 0.010613433 4.8377428e-21)
(2.6742049 0.0061212573 3.3985895e-21)
(2.7054146 -0.062501222 1.4260804e-21)
(2.7262423 -0.045805094 1.0246254e-21)
(2.7353905 -0.032044122 4.2314054e-21)
(2.7312255 -0.0151399 -7.6169388e-22)
(2.7287006 -0.0034868455 -1.1048818e-20)
(2.7200809 0.0083504939 -2.3842459e-21)
(2.7127777 0.015513869 5.9998068e-21)
(2.7003689 0.01978119 7.4714427e-22)
(2.6917202 0.021050353 -2.2588922e-21)
(2.680547 0.018938133 1.4179224e-21)
(2.6720647 0.014728038 1.698969e-23)
(2.6624376 0.0075236013 -1.5471679e-21)
(2.7074571 -0.084623711 4.8018498e-21)
(2.7373404 -0.066449681 -1.0043485e-21)
(2.752254 -0.050548109 -1.287382e-21)
(2.7505865 -0.027749959 3.4711476e-21)
(2.7497658 -0.011340427 -1.3335173e-21)
(2.740539 0.0064327844 -1.9592072e-20)
(2.7325404 0.018168074 -1.1493963e-20)
(2.7173154 0.026823494 1.1680299e-20)
(2.7056562 0.031313072 6.7786536e-21)
(2.6906323 0.031408585 -5.7703579e-21)
(2.679844 0.029790877 -2.3357726e-21)
(2.6676836 0.024587381 5.7863885e-21)
(2.6583428 0.017928034 4.3732718e-21)
(2.6486712 0.0085208856 1.8321211e-21)
(2.7066114 -0.11147032 -3.8730564e-21)
(2.74788 -0.093223721 1.4004437e-21)
(2.7704906 -0.076014122 -4.0346524e-21)
(2.7731866 -0.046384773 6.4081541e-21)
(2.7758386 -0.024296004 1.1018021e-20)
(2.767013 0.0011621617 4.9469045e-21)
(2.7586754 0.018655616 -1.2272454e-20)
(2.7400633 0.032956011 -1.646118e-20)
(2.7258052 0.041819011 5.4362648e-21)
(2.706676 0.045049723 8.1033724e-21)
(2.6921999 0.045635704 -3.79568e-21)
(2.6761721 0.041179988 -3.7408919e-21)
(2.6643882 0.03650778 3.9531954e-21)
(2.6524312 0.028629593 3.671155e-21)
(2.6430269 0.01998834 1.248472e-21)
(2.6339195 0.0090766116 1.6213734e-21)
(2.7016545 -0.14318927 -6.3827876e-22)
(2.756651 -0.12704189 -1.1516538e-20)
(2.7891667 -0.10990931 -6.5147816e-21)
(2.7989262 -0.072644899 9.7491735e-21)
(2.8071401 -0.044012161 1.9824397e-20)
(2.7999195 -0.0087748664 2.8393048e-20)
(2.792351 0.016133425 2.2868544e-20)
(2.7701907 0.038190024 -3.9727684e-21)
(2.7528404 0.052619059 -7.8425088e-21)
(2.7283938 0.059610451 4.0767375e-21)
(2.7099388 0.063363836 6.5720892e-21)
(2.6893878 0.060320693 -2.2299524e-21)
(2.6738592 0.056547833 -2.1722955e-21)
(2.6585847 0.048066349 -4.6741157e-22)
(2.6469696 0.040712645 -8.0119068e-22)
(2.6360762 0.030885488 -1.6282097e-21)
(2.6272236 0.020891312 -1.3134736e-21)
(2.6190996 0.0092029316 8.0014199e-23)
(2.6912061 -0.17972003 1.1801678e-20)
(2.7622676 -0.16863759 3.5513513e-20)
(2.8068989 -0.15368004 2.5681572e-20)
(2.8271756 -0.10840959 -3.5705995e-21)
(2.8438484 -0.072507402 1.1878244e-20)
(2.8402477 -0.024952687 7.3167968e-21)
(2.8347939 0.0094597516 1.5189675e-20)
(2.8087535 0.041836945 4.7351798e-20)
(2.7882558 0.063862749 2.2229863e-20)
(2.7572345 0.076186149 -2.4635275e-20)
(2.7336085 0.08381507 -1.3597734e-20)
(2.7070799 0.081904593 1.0436637e-21)
(2.687108 0.079567845 -7.4060521e-21)
(2.6677889 0.070863959 -5.6638908e-21)
(2.6529448 0.063174512 -4.0604475e-21)
(2.6396283 0.051749866 -3.1779659e-21)
(2.6290471 0.042422564 -4.0107003e-21)
(2.6197406 0.031469188 -1.769393e-21)
(2.6118496 0.020780608 -4.4627892e-22)
(2.6049292 0.0089655729 7.6917015e-23)
(2.6738902 -0.22085496 -2.7439168e-22)
(2.7631499 -0.21870579 -2.132975e-20)
(2.8220047 -0.20873289 4.9899128e-22)
(2.8571652 -0.15563304 -1.0111151e-20)
(2.8859277 -0.11212589 -3.8673112e-20)
(2.8886227 -0.0494024 -1.6483363e-20)
(2.8875967 -0.0028191188 -2.1338143e-20)
(2.8575418 0.043271144 1.1503153e-20)
(2.8337885 0.075506017 4.1931921e-20)
(2.7944543 0.095055807 2.4062163e-20)
(2.7644011 0.10813165 -2.0413264e-20)
(2.7301459 0.10789652 -2.9355902e-20)
(2.7042487 0.10691709 -1.579032e-20)
(2.6796405 0.096905118 -1.5076903e-20)
(2.660811 0.088987229 -1.3496127e-20)
(2.6444903 0.07618488 -1.8859967e-21)
(2.6315455 0.065596736 -1.0363528e-21)
(2.6208204 0.052475337 -4.2332786e-21)
(2.611783 0.041992166 -2.0928903e-21)
(2.6042676 0.030669578 -2.1701601e-21)
(2.597551 0.019876964 -1.6975831e-21)
(2.5918989 0.0084533541 -5.8573217e-22)
(2.6489437 -0.26643315 -4.7846842e-21)
(2.758101 -0.27772402 -3.1305462e-20)
(2.832833 -0.2765528 -5.1986007e-20)
(2.8882147 -0.21666086 3.3088383e-21)
(2.9335554 -0.1658291 -7.063246e-21)
(2.9462512 -0.084468279 3.2170437e-20)
(2.9528443 -0.022863165 5.4046211e-20)
(2.9187366 0.041449386 -5.3797613e-20)
(2.8918492 0.087440246 -2.3104742e-20)
(2.8419354 0.11709831 3.7613153e-20)
(2.8037348 0.13761804 2.0570901e-20)
(2.7593354 0.13942645 -1.6354867e-20)
(2.7256907 0.14034946 -2.4869922e-20)
(2.6942713 0.12855308 -4.9210091e-21)
(2.6701849 0.11958911 -4.1879216e-21)
(2.6500935 0.10387357 -6.1812841e-21)
(2.6341927 0.09187051 4.9206848e-21)
(2.6216766 0.076788469 6.3501375e-22)
(2.6112482 0.064504242 -2.3475273e-21)
(2.6032485 0.050809367 -2.5369873e-21)
(2.5959505 0.039924947 -2.6221648e-21)
(2.5902057 0.028839895 -2.7615912e-22)
(2.5847217 0.018414211 7.9698509e-22)
(2.580293 0.0077550133 -3.640474e-22)
(2.6168945 -0.31623888 -8.2895225e-21)
(2.7466499 -0.34670411 -7.2105645e-21)
(2.8378936 -0.35825013 -3.2317283e-20)
(2.9192652 -0.2946189 6.305771e-20)
(2.9863493 -0.23729687 1.1694235e-19)
(3.0150143 -0.13372412 4.5087032e-20)
(3.0336938 -0.053827353 8.2945293e-20)
(2.9959195 0.035037769 2.2853404e-20)
(2.9661715 0.099347198 -7.9749309e-20)
(2.9021834 0.1429966 -1.8875842e-20)
(2.853632 0.17387508 3.8719835e-20)
(2.7957572 0.17859981 1.3907423e-20)
(2.751822 0.18198062 -2.1176109e-20)
(2.7115476 0.16724164 -1.2181324e-20)
(2.6806219 0.1567394 6.9563244e-21)
(2.655894 0.1370972 1.3402127e-20)
(2.6362612 0.12243981 1.1802313e-20)
(2.6216893 0.10378463 8.3281932e-21)
(2.6094977 0.089480032 4.3256744e-21)
(2.6008115 0.07370487 2.1693825e-22)
(2.5930243 0.0608182 6.639877e-23)
(2.5875621 0.047418994 -9.4011539e-22)
(2.5819782 0.036737611 1.3086185e-21)
(2.5778464 0.026323579 -2.677513e-22)
(2.5735475 0.016603307 -1.3827591e-21)
(2.5702313 0.0069479959 3.5985147e-23)
(2.5772295 -0.36745267 -2.3384941e-21)
(2.7238649 -0.42154736 -1.4142634e-20)
(2.8308802 -0.45239901 -1.3032865e-20)
(2.9453284 -0.38932486 -9.083915e-20)
(3.0395808 -0.32886085 -1.6345514e-21)
(3.0930204 -0.20180455 -2.3588115e-20)
(3.1308692 -0.099831841 -9.3007947e-20)
(3.0938407 0.021351373 3.4650024e-21)
(3.0619602 0.11016181 -5.4676491e-20)
(2.9800123 0.17347071 -4.1337455e-20)
(2.9178211 0.21880251 1.671299e-20)
(2.8409829 0.22761295 1.6531072e-20)
(2.7832337 0.23447094 -7.2789001e-21)
(2.7312922 0.21547731 -5.1173714e-21)
(2.6913773 0.20248323 3.7565943e-21)
(2.6609808 0.17699086 7.2773701e-21)
(2.6367354 0.15862429 1.3519554e-20)
(2.6199095 0.13536629 8.7058779e-21)
(2.6056869 0.11772802 5.3473459e-21)
(2.5964267 0.098424792 2.1997289e-21)
(2.587954 0.083385191 -1.7235151e-21)
(2.5826702 0.068081245 2.7246511e-21)
(2.5773341 0.055440272 1.8086454e-21)
(2.574054 0.042930673 1.037949e-21)
(2.5700276 0.032883495 -4.5998002e-22)
(2.5672853 0.02341516 -1.9221612e-21)
(2.5640613 0.014616704 -5.8465841e-22)
(2.5617138 0.0060940768 -1.083002e-22)
(2.5279371 -0.41665504 -3.4013646e-21)
(2.6845006 -0.49564929 -6.0316112e-20)
(2.8022361 -0.54895929 -7.2258613e-20)
(2.941838 -0.49223112 -3.8660467e-19)
(3.0699479 -0.43441892 -4.660275e-19)
(3.1596093 -0.28455691 -4.2439011e-19)
(3.2267928 -0.16218074 -4.5110769e-19)
(3.2072209 -0.001795345 -6.8113831e-20)
(3.1777381 0.11889865 2.3485451e-20)
(3.0803883 0.20889047 5.0454201e-20)
(3.0010814 0.27443614 6.4196477e-20)
(2.8989499 0.28931023 0)
(2.8216932 0.30121155 -3.9471105e-22)
(2.7532763 0.27590667 8.7704734e-21)
(2.7013849 0.25928207 1.1033383e-20)
(2.6640953 0.22558029 8.2760537e-21)
(2.6341921 0.20176732 1.1746759e-20)
(2.6150536 0.17205471 8.5515368e-21)
(2.5986039 0.14999191 3.9265144e-21)
(2.5890152 0.12640345 6.5573174e-22)
(2.5799646 0.10804955 -2.3868259e-21)
(2.5751917 0.089662077 -2.8953459e-21)
(2.5700081 0.075037671 1.3052893e-21)
(2.5675076 0.060944392 2.2719197e-21)
(2.5642736 0.049127988 1.5460259e-21)
(2.5627656 0.037863016 2.2916421e-21)
(2.5600781 0.028723014 9.4303704e-22)
(2.5584836 0.020346728 5.2076963e-23)
(2.5561938 0.012585445 5.1235477e-22)
(2.5546611 0.0052392855 1.6141005e-22)
(2.4687117 -0.45963881 -7.8896985e-21)
(2.6230422 -0.56212169 -4.041585e-23)
(2.7435761 -0.63884876 -5.4383898e-20)
(2.9015574 -0.59099612 2.0632682e-20)
(3.0560638 -0.53831692 -2.770188e-19)
(3.1675009 -0.37308637 -5.8073591e-19)
(3.2755688 -0.23157068 -5.4358702e-19)
(3.2956383 -0.027601094 -4.3168486e-19)
(3.2841772 0.12904425 -6.8522303e-20)
(3.1905812 0.251277 1.219925e-20)
(3.0967855 0.34351458 3.7461352e-20)
(2.9727186 0.36738502 7.1583264e-20)
(2.8692442 0.38683441 1.0227589e-20)
(2.7785401 0.3521217 -3.8018937e-21)
(2.7096229 0.3302242 4.8389392e-21)
(2.6634447 0.28472944 9.70025e-22)
(2.626658 0.25324451 -1.7783243e-21)
(2.6054279 0.21498114 5.4413187e-21)
(2.5867069 0.18679955 2.376309e-21)
(2.5773095 0.15754931 4.9195287e-21)
(2.5679282 0.13504982 1.8365597e-21)
(2.5641126 0.11316802 4.0865767e-21)
(2.5594046 0.095644972 3.6982095e-21)
(2.5581058 0.079071589 -2.538781e-21)
(2.5556033 0.065591578 -1.6760994e-21)
(2.5552447 0.053104951 -1.1051268e-22)
(2.5537146 0.042458131 5.737692e-22)
(2.5535806 0.032609773 1.3601035e-21)
(2.5519978 0.024522506 5.2117483e-22)
(2.5513187 0.017289353 6.5339169e-22)
(2.5498139 0.010603189 3.2315994e-22)
(2.5489466 0.0044160066 -7.3040808e-22)
(2.4005577 -0.49181222 1.2608129e-20)
(2.5386133 -0.61339419 1.1319485e-19)
(2.6526378 -0.71167017 1.2203859e-19)
(2.8111274 -0.67534226 4.473232e-19)
(2.9870075 -0.63200239 5.2434406e-19)
(3.1193132 -0.44812913 6.6242549e-19)
(3.2544337 -0.29470091 3.869545e-19)
(3.3001444 -0.046415234 -1.9547745e-19)
(3.3281814 0.14881853 -8.4341483e-20)
(3.2600843 0.30968486 -2.7743015e-19)
(3.1700202 0.4322704 -2.0370421e-19)
(3.0425482 0.46709642 5.9332541e-20)
(2.9150386 0.49698233 9.1385439e-20)
(2.8069595 0.44930244 1.1580078e-20)
(2.7147806 0.419774 -1.169144e-21)
(2.6571655 0.35682449 -1.0239002e-20)
(2.6115609 0.31444623 -1.4108216e-20)
(2.5887628 0.26471643 -1.2102091e-20)
(2.5680287 0.22840512 -5.3759682e-21)
(2.5597305 0.19217974 -7.7822009e-21)
(2.5505474 0.16428638 -5.4886591e-21)
(2.5484149 0.13805875 1.3577939e-21)
(2.5446265 0.11714506 3.4898875e-21)
(2.5450026 0.097982594 5.2245247e-21)
(2.5436408 0.082176886 -6.7735074e-22)
(2.5448573 0.067822105 -2.0398265e-21)
(2.5444131 0.055875998 -5.6059382e-22)
(2.54562 0.045148648 -1.3776416e-21)
(2.5454099 0.035837972 -6.6566474e-22)
(2.5462973 0.027449744 1.4422794e-21)
(2.5455952 0.020466529 1.580237e-21)
(2.5456228 0.014361466 -3.7282124e-22)
(2.5447591 0.0087327489 -1.382758e-21)
(2.5444198 0.003645231 -2.6636248e-21)
(2.3249324 -0.50966848 1.4895195e-20)
(2.4330077 -0.64515698 1.9743771e-20)
(2.5345869 -0.76250039 1.1516533e-19)
(2.6790235 -0.73652658 9.8552761e-20)
(2.8596595 -0.70436205 4.0640412e-19)
(2.9912066 -0.49504913 5.5749524e-19)
(3.1512181 -0.32510806 6.8875407e-19)
(3.1884535 -0.039138874 5.5294988e-19)
(3.2467719 0.190641 3.7514437e-21)
(3.2182814 0.39564764 -2.2697428e-20)
(3.1528532 0.54880065 -2.0485471e-19)
(3.0520401 0.59646249 -1.9552884e-19)
(2.9171302 0.63502284 5.4519355e-20)
(2.8202674 0.573476 7.6114493e-20)
(2.7083779 0.53293888 7.6947293e-22)
(2.6427824 0.44540007 3.0896101e-21)
(2.5859498 0.38707372 -5.3439646e-21)
(2.5622672 0.32172855 -1.2221545e-22)
(2.540131 0.27461943 1.9224335e-21)
(2.5343832 0.22982558 -1.5066747e-21)
(2.5263285 0.19526813 -3.7702673e-21)
(2.5269093 0.16412198 -1.8009074e-21)
(2.5247657 0.1390682 4.7042334e-21)
(2.5275154 0.11688412 -2.4547519e-21)
(2.5277619 0.098560843 -9.1996515e-22)
(2.5309579 0.082443187 -2.9361826e-22)
(2.5320108 0.068752776 -1.5800588e-21)
(2.5349411 0.056702391 -5.7233233e-22)
(2.5359994 0.046439954 -1.3420238e-21)
(2.5382928 0.037468149 7.30653e-22)
(2.5390644 0.029535665 2.7548194e-21)
(2.5406769 0.022567285 1.7834092e-21)
(2.5406554 0.016674279 -7.1070519e-23)
(2.5412099 0.01163927 -1.7940985e-21)
(2.5408553 0.0070125496 -3.0162143e-21)
(2.5409232 0.0029383956 -8.9610097e-22)
(2.244462 -0.51254944 -1.8891809e-20)
(2.3137624 -0.66020827 -8.4959047e-20)
(2.3977177 -0.79205396 -8.1964203e-20)
(2.5202986 -0.77106487 -1.091597e-21)
(2.6872976 -0.74885484 -1.7866251e-20)
(2.7977296 -0.51381681 8.7317101e-21)
(2.9612023 -0.32038264 1.4667898e-19)
(2.9815684 0.0065376568 1.6383567e-19)
(3.0401416 0.27462103 2.8244357e-20)
(3.010852 0.50710189 3.1294691e-20)
(2.9801542 0.69662469 6.7374775e-21)
(2.9357506 0.75544769 -1.3375311e-19)
(2.8199792 0.79897811 -1.2233169e-19)
(2.7695302 0.72409971 -4.6054179e-20)
(2.6630248 0.6684496 -2.6933123e-20)
(2.6098352 0.55395174 -3.4651035e-20)
(2.5450644 0.4726778 -3.2828922e-20)
(2.5229979 0.38644036 9.2462434e-22)
(2.500316 0.32472116 5.8416136e-21)
(2.4990911 0.26964283 9.6344792e-21)
(2.4936588 0.22697156 6.438032e-21)
(2.498364 0.1903303 1.7550576e-21)
(2.4989016 0.16057464 3.730509e-21)
(2.5049033 0.13531368 4.5157711e-21)
(2.5074493 0.11411993 -2.2917051e-21)
(2.5131881 0.096084423 -1.4301339e-21)
(2.5161365 0.080675145 -8.2548171e-22)
(2.521089 0.067534284 -1.5565458e-21)
(2.5237844 0.056043435 -6.0864349e-22)
(2.5278044 0.046200451 -6.4889229e-22)
(2.5299062 0.037618281 1.3318267e-21)
(2.5329072 0.030306515 1.3409182e-21)
(2.5343772 0.02371363 3.9662446e-22)
(2.5364751 0.018074161 -4.8894482e-22)
(2.5369618 0.013215352 -2.1297091e-21)
(2.5378925 0.0091667225 -1.4131481e-21)
(2.5379308 0.0054623657 6.1766893e-22)
(2.5383031 0.0023006307 3.5426199e-21)
(2.1616934 -0.50199704 -5.9883541e-20)
(2.189824 -0.65980698 -4.6776976e-20)
(2.2519441 -0.80294447 -1.0984796e-19)
(2.34812 -0.78153634 -1.4968172e-19)
(2.4882289 -0.76385888 -7.3507594e-20)
(2.5635678 -0.50502384 -2.4222582e-19)
(2.7121363 -0.28520355 -2.1995907e-19)
(2.7098606 0.080235402 1.6483397e-19)
(2.7588185 0.38665201 1.8243009e-19)
(2.7274464 0.64286004 5.2337926e-20)
(2.6907125 0.8607375 5.5679748e-20)
(2.6751742 0.92257073 7.485906e-20)
(2.6051868 0.97672723 -5.6422141e-20)
(2.6079591 0.88433873 -1.1034208e-19)
(2.5385922 0.81274928 -3.680108e-20)
(2.5296321 0.67586751 -1.35614e-20)
(2.4763732 0.56835529 -2.0776961e-20)
(2.4664249 0.45890842 -3.0024121e-20)
(2.4458971 0.37746783 2.1084979e-21)
(2.4516931 0.31007928 6.8379761e-21)
(2.4509418 0.25771471 1.0335456e-20)
(2.4615986 0.21535258 -3.7395831e-21)
(2.4662431 0.18039726 -8.1378631e-21)
(2.476563 0.15208187 9.2638309e-21)
(2.4822825 0.12795098 1.0083516e-20)
(2.4911969 0.10823125 -1.2335436e-21)
(2.4965949 0.091009216 -3.8571258e-22)
(2.5039727 0.076780608 -4.0913881e-21)
(2.5085995 0.064220837 -4.8177427e-21)
(2.514538 0.053797714 -7.0690241e-22)
(2.5182784 0.044412076 -7.4640923e-22)
(2.5229241 0.03658803 1.544025e-21)
(2.5257074 0.029593466 1.5639372e-21)
(2.5291255 0.023798076 -2.0226769e-21)
(2.5310649 0.018457964 -2.9006604e-21)
(2.5334589 0.014028934 -1.496162e-21)
(2.5343098 0.010123196 -8.0591811e-22)
(2.5354926 0.0069640464 -1.6703338e-21)
(2.535825 0.0040895892 1.0712032e-21)
(2.5364159 0.0017382405 4.9269276e-21)
(2.077697 -0.48115015 -6.0524651e-20)
(2.0687632 -0.64659348 -4.8774912e-20)
(2.1066509 -0.79830784 -3.6235904e-20)
(2.1740633 -0.77075405 4.922231e-21)
(2.2803243 -0.752133 -3.1323687e-20)
(2.313221 -0.47170922 -6.0063061e-20)
(2.434366 -0.22654774 -2.1876765e-19)
(2.4055573 0.17022322 -7.3562426e-20)
(2.4368204 0.51417215 2.9398787e-19)
(2.4000753 0.79123877 2.5021023e-20)
(2.3559293 1.0324672 -1.0034302e-19)
(2.3515219 1.0896066 -7.0728585e-21)
(2.3026094 1.1461749 1.0266015e-20)
(2.3407451 1.0338481 8.7631284e-21)
(2.3160722 0.94742412 -4.0447834e-20)
(2.3681457 0.78993528 4.2464402e-21)
(2.3570055 0.66095753 2.6750433e-20)
(2.3808352 0.5333863 1.364899e-20)
(2.3729409 0.42994049 5.1672609e-21)
(2.390313 0.34917323 -6.927995e-21)
(2.3969057 0.28519425 -2.6713353e-21)
(2.4156543 0.23716098 8.1911736e-21)
(2.4262607 0.19681886 -5.265635e-21)
(2.4421249 0.16588293 -1.1508954e-20)
(2.452082 0.13887753 4.9420766e-21)
(2.4648585 0.11777362 5.8393005e-21)
(2.4733316 0.098947732 -4.9476659e-21)
(2.4835298 0.08398575 1.5559919e-21)
(2.4904832 0.070405943 -1.9039094e-21)
(2.4985999 0.059480159 -8.0401793e-21)
(2.5041689 0.049518418 -4.1867516e-21)
(2.5105597 0.041483784 1.7652121e-21)
(2.5149027 0.0340206 3.9790922e-21)
(2.519839 0.027990974 4.8072049e-22)
(2.5230271 0.022445091 -2.9328211e-21)
(2.5266447 0.01800206 -1.9261075e-21)
(2.5288732 0.013802075 -5.7779178e-22)
(2.5314167 0.010452879 -4.3117333e-22)
(2.532513 0.0074061397 -1.245596e-21)
(2.5338477 0.0050341265 -2.598961e-22)
(2.5343939 0.0028966519 3.3768783e-21)
(2.5351298 0.0012573732 4.1932958e-22)
(1.9933519 -0.45405373 -2.4925381e-20)
(1.9556153 -0.6234789 -8.2436016e-20)
(1.9697037 -0.78156156 -7.159038e-20)
(2.0081045 -0.74460318 6.1268506e-20)
(2.07914 -0.71934795 1.0152213e-19)
(2.0682993 -0.42007972 -1.6676897e-19)
(2.1534805 -0.1523296 -1.9486475e-19)
(2.0987415 0.27030772 -4.2743693e-20)
(2.105552 0.64687206 9.7156858e-20)
(2.060507 0.93861214 1.3847641e-19)
(2.0060249 1.2005694 -1.179057e-19)
(2.0063128 1.25139 -1.0814254e-19)
(1.964118 1.3051099 -1.985723e-20)
(2.0157567 1.1673489 1.3713043e-21)
(2.02102 1.061997 -1.7944262e-21)
(2.1220724 0.87760914 -3.6369953e-20)
(2.1693458 0.73044513 5.9976184e-21)
(2.2481485 0.59378977 1.623762e-20)
(2.2740774 0.47388423 3.3582284e-21)
(2.3122517 0.38300132 -2.7171764e-21)
(2.3309324 0.30653037 -1.4289323e-20)
(2.3600779 0.25334932 -5.5349933e-21)
(2.3788458 0.20770328 4.5416193e-21)
(2.4015913 0.17495774 -5.27413e-21)
(2.4170136 0.14550649 -1.1056341e-20)
(2.4343257 0.12366384 2.1196073e-22)
(2.4465542 0.1035522 9.9811087e-22)
(2.4599448 0.088228721 -6.8608113e-22)
(2.4696145 0.073952254 5.5381998e-21)
(2.4801167 0.062896995 -2.3769728e-21)
(2.4877686 0.052470852 -8.2160708e-21)
(2.4960525 0.044328419 -4.0350291e-21)
(2.5020563 0.036645622 1.6103447e-21)
(2.5085408 0.03066391 1.996081e-21)
(2.5131679 0.024906472 -1.3331891e-21)
(2.5181587 0.020441557 8.4253838e-22)
(2.5215446 0.016186335 1.8436978e-21)
(2.5252017 0.012928353 4.0013597e-21)
(2.5275795 0.0097447578 4.2036145e-21)
(2.5301609 0.0073425575 3.043886e-23)
(2.5314072 0.0050557464 9.8168411e-22)
(2.5328152 0.0033679126 9.6727165e-22)
(2.5335045 0.0018771159 -1.8711622e-21)
(2.5343277 0.00085679724 -3.6640168e-21)
(1.9109147 -0.42451981 1.3681927e-20)
(1.853571 -0.59469183 3.2166616e-20)
(1.8470475 -0.75635958 -2.1761996e-20)
(1.8580257 -0.70803599 -1.8159921e-19)
(1.8961397 -0.67229629 -5.7170461e-20)
(1.8453658 -0.35704073 1.9736296e-19)
(1.8900224 -0.06966482 -5.5559628e-20)
(1.8123994 0.37181224 -1.1903401e-19)
(1.7926866 0.77577128 2.6097625e-20)
(1.7401135 1.0765301 6.15081e-20)
(1.6742478 1.3542895 1.0139422e-19)
(1.6752848 1.3976713 7.3647095e-20)
(1.6358352 1.4460766 8.5456122e-20)
(1.6875114 1.2830155 -2.6812265e-20)
(1.7050474 1.153667 -8.3036609e-21)
(1.8280301 0.93422962 3.057378e-20)
(1.9228743 0.76307068 -1.806965e-21)
(2.0607628 0.62136632 -7.5208006e-21)
(2.1410454 0.49446023 2.0026067e-21)
(2.2129343 0.40273381 6.3319683e-21)
(2.2529271 0.31739029 6.133355e-22)
(2.2952085 0.26100867 -8.5326616e-21)
(2.3245547 0.21066191 -3.9853034e-22)
(2.3554568 0.17740253 7.8452512e-21)
(2.377687 0.14631217 -1.2873415e-21)
(2.4001314 0.12461673 -1.2715063e-21)
(2.4167853 0.1038382 9.4585276e-21)
(2.4336521 0.088782817 8.3091971e-22)
(2.4464058 0.074188318 -7.6818596e-22)
(2.4594449 0.06334145 5.4265943e-21)
(2.4693851 0.052791694 -2.1123545e-21)
(2.4796377 0.044881518 -8.6098368e-21)
(2.4874479 0.03710645 -4.6509856e-21)
(2.4955486 0.031275565 4.2901613e-21)
(2.5016478 0.025547713 4.7008895e-21)
(2.5079916 0.021306513 -3.0216929e-21)
(2.5126786 0.017034113 -9.9341003e-22)
(2.5175604 0.013914711 1.4232258e-21)
(2.5209918 0.01078953 3.463329e-21)
(2.5245729 0.0085559484 4.9877261e-21)
(2.5269935 0.0062631682 1.0384065e-21)
(2.5295288 0.0046793987 -2.6598976e-21)
(2.5308497 0.0030536791 -2.7218322e-21)
(2.5322712 0.001952462 1.3354831e-21)
(2.5330399 0.0010205418 -3.1982703e-22)
(2.533908 0.00052537338 -1.8388826e-21)
(1.8332525 -0.39539259 1.4542584e-20)
(1.7645984 -0.56378824 7.4718098e-20)
(1.7422167 -0.72627259 9.2846655e-20)
(1.7289862 -0.66523852 1.8662652e-19)
(1.7381368 -0.61737347 3.7926084e-20)
(1.6546541 -0.28883771 -1.5807215e-19)
(1.6588459 0.015355496 8.1748234e-20)
(1.563611 0.46874372 -8.7918909e-20)
(1.5183381 0.89366796 -1.4908916e-19)
(1.4615221 1.1979131 3.2422034e-20)
(1.387068 1.4860542 6.6703235e-20)
(1.3869144 1.5215558 2.0731237e-19)
(1.3480362 1.5634759 1.8116932e-19)
(1.3910283 1.3764934 -9.2554573e-20)
(1.4127232 1.2224777 -2.0065401e-19)
(1.5360594 0.96304711 -4.421861e-20)
(1.6534153 0.75831603 -7.8545354e-21)
(1.8352077 0.60747496 6.6942894e-21)
(1.9736169 0.47736013 1.3933567e-21)
(2.0891411 0.39567805 6.4952025e-22)
(2.1630093 0.31077559 4.7350266e-21)
(2.2221737 0.25621486 6.4702743e-21)
(2.2649617 0.20326435 -2.3474146e-21)
(2.3048887 0.17121381 3.3190289e-21)
(2.3352167 0.13976325 1.1185061e-20)
(2.3632343 0.11945955 4.8963826e-21)
(2.384909 0.098880186 4.9148857e-21)
(2.4053914 0.084819568 -1.6457228e-21)
(2.4215114 0.070502265 -1.0028002e-20)
(2.4371313 0.060378373 6.7783581e-22)
(2.4495106 0.050045038 6.5532632e-21)
(2.461748 0.042631626 -3.8354823e-21)
(2.4714414 0.035073708 -1.0008246e-20)
(2.4811504 0.029680548 -4.8220845e-21)
(2.4887896 0.024101846 3.653443e-21)
(2.4965003 0.020176758 6.0887806e-21)
(2.5024731 0.01610353 -1.2281254e-21)
(2.5085271 0.013324388 9.4009017e-22)
(2.513119 0.01032735 3.2583131e-21)
(2.5177814 0.0083519034 -3.1545927e-21)
(2.5211482 0.0062030738 -1.8034727e-21)
(2.5245714 0.0048450937 -5.6534052e-21)
(2.5269544 0.0033218069 -9.2509807e-21)
(2.5293813 0.0024365435 -2.0774102e-21)
(2.5307192 0.0013793284 1.7789154e-21)
(2.5321078 0.00077609165 4.1573869e-21)
(2.5329267 0.00031777875 2.7794947e-21)
(2.5337819 0.0002429482 -6.2624478e-24)
(1.7627815 -0.36848955 3.450018e-22)
(1.6893588 -0.53333618 -8.7226603e-20)
(1.6563041 -0.69434965 -3.1437614e-20)
(1.6232352 -0.62016172 4.4864962e-19)
(1.6080423 -0.5597521 5.4210705e-19)
(1.5006726 -0.22039234 3.9137179e-20)
(1.4684018 0.097667597 -1.4706357e-19)
(1.3627466 0.55721034 -3.6892982e-20)
(1.2953881 0.9957803 -1.9977656e-19)
(1.2386147 1.2985674 -1.6603235e-19)
(1.1602603 1.5921184 6.1560155e-21)
(1.1574812 1.6212719 5.367804e-20)
(1.1192907 1.6558704 1.8557301e-19)
(1.1473501 1.4465791 1.5107603e-19)
(1.1692222 1.2685578 -1.0809939e-19)
(1.2816204 0.96868832 -2.0821099e-19)
(1.4013241 0.72429732 -5.9690344e-20)
(1.6046393 0.55609458 -3.5527419e-20)
(1.7858612 0.41771703 -2.2111958e-20)
(1.9454522 0.35238835 -2.5788286e-21)
(2.0624972 0.27828211 -3.3379005e-21)
(2.1427149 0.23361111 -1.7652731e-21)
(2.2027504 0.18304244 -2.0887366e-22)
(2.2519636 0.15463885 -7.288057e-21)
(2.2912982 0.12454241 -1.9836904e-21)
(2.325028 0.1071128 9.4550164e-21)
(2.352164 0.087928559 3.4692548e-21)
(2.376202 0.075768371 2.8688341e-21)
(2.3958288 0.062431418 -3.4264192e-21)
(2.4139346 0.053543413 -6.2888302e-21)
(2.4287987 0.04390746 3.9397802e-21)
(2.44294 0.037369454 2.7049455e-21)
(2.4545346 0.03029507 -7.1873804e-21)
(2.4657951 0.025527056 -5.3345104e-21)
(2.4749697 0.020357622 -3.5265053e-22)
(2.4839908 0.01697977 -2.4056699e-21)
(2.4912651 0.013208279 -1.9442987e-22)
(2.4984694 0.010847834 -1.0225417e-21)
(2.5041752 0.0081627238 1.0362593e-21)
(2.5098481 0.0066028802 7.3963853e-21)
(2.5142399 0.0046892065 1.3687967e-21)
(2.5186107 0.003676664 -5.8347056e-21)
(2.5218347 0.0023621981 -9.5413328e-21)
(2.5250435 0.0017445411 -6.0751694e-21)
(2.5273295 0.00087798273 7.7150981e-22)
(2.5296029 0.00058197468 5.6076939e-21)
(2.5309139 7.3239718e-06 7.9165282e-21)
(2.5322341 -0.00018178994 -2.152253e-22)
(2.5330491 -0.00025802682 -2.8974401e-21)
(2.5338796 2.555609e-05 1.3974563e-21)
(1.7012468 -0.34477975 -5.3283074e-21)
(1.627688 -0.50508465 -8.8422972e-20)
(1.5885574 -0.66293533 -1.7243608e-19)
(1.540588 -0.57599026 -1.6805522e-19)
(1.5059151 -0.50316603 2.8495887e-19)
(1.3833686 -0.15530551 3.5415259e-19)
(1.3211588 0.17367549 -1.2482789e-19)
(1.212293 0.63415375 -5.1947384e-19)
(1.1285892 1.0796628 -4.2018309e-19)
(1.0773271 1.3786386 -1.9247564e-20)
(1.0002461 1.6724911 1.5088537e-20)
(0.99229282 1.6952045 1.171169e-19)
(0.95558515 1.7241132 1.636343e-19)
(0.96792627 1.4946947 6.3805134e-19)
(0.98650166 1.2940849 6.1140852e-19)
(1.0812828 0.95537693 3.8536792e-19)
(1.1933962 0.6696683 2.9719336e-19)
(1.4008472 0.47722598 -8.0677821e-20)
(1.6017676 0.32135107 -5.8059016e-20)
(1.7963733 0.27210691 -3.0807475e-20)
(1.9561969 0.21425226 -1.1901418e-20)
(2.0598438 0.18794069 -2.1167612e-21)
(2.1412828 0.14745169 -6.0928354e-22)
(2.1995767 0.12622804 4.5758926e-21)
(2.2482806 0.099854215 -2.3184639e-21)
(2.2873506 0.086898845 -7.0207107e-21)
(2.3200884 0.070531873 3.8407102e-21)
(2.3473743 0.061252521 7.1029278e-21)
(2.3704537 0.049752303 6.6175758e-21)
(2.3907836 0.042677696 -5.2028493e-21)
(2.4080421 0.034232438 -7.916329e-21)
(2.4238976 0.028889177 1.9409463e-21)
(2.4373176 0.022647405 7.4262124e-22)
(2.4499964 0.018765293 -2.8300677e-21)
(2.4606543 0.014195571 -1.0131447e-21)
(2.4708942 0.011487554 5.7018046e-21)
(2.479419 0.0082267912 3.8314413e-21)
(2.4876911 0.006465203 -6.7929363e-21)
(2.4944925 0.0041747083 -7.6693179e-21)
(2.5011311 0.0030947425 -1.109161e-21)
(2.5064835 0.0015659836 4.8888856e-21)
(2.5117232 0.0010164151 5.7938508e-21)
(2.5158461 1.4122694e-05 -9.7588709e-22)
(2.5198806 -0.00019530576 -2.3509359e-21)
(2.5229077 -0.00080503202 1.0334034e-21)
(2.525865 -0.00080369919 2.3327251e-21)
(2.5280105 -0.0011156264 6.9406427e-21)
(2.530099 -0.00092131636 4.8708631e-21)
(2.5313476 -0.0010987448 -2.8818056e-21)
(2.5325721 -0.00095138523 -7.1356276e-21)
(2.5333584 -0.00070294255 -3.1208192e-21)
(2.5341367 -0.00011211033 3.5828645e-21)
(1.649789 -0.32461228 -1.0602111e-20)
(1.5788747 -0.4799812 -6.7717165e-21)
(1.5371011 -0.63358604 -8.5455121e-20)
(1.4790451 -0.53482883 -1.3396438e-19)
(1.429697 -0.45008177 -1.293025e-19)
(1.2998853 -0.095937764 -3.6827056e-19)
(1.2151112 0.24131295 -3.1081623e-19)
(1.1088693 0.69846822 -3.5420133e-19)
(1.0153517 1.1450074 -7.3131084e-19)
(0.97468546 1.4391672 -6.4200604e-19)
(0.90478959 1.7295474 -2.6501173e-19)
(0.89045364 1.7486536 -2.4458623e-19)
(0.85414804 1.7717505 -1.508368e-19)
(0.85044564 1.52213 -6.2029578e-19)
(0.86566595 1.3020169 -1.8083036e-19)
(0.94400711 0.9260049 6.0443287e-19)
(1.0436882 0.60042909 3.9030043e-19)
(1.2436274 0.38057078 6.1848943e-19)
(1.4451449 0.19931636 2.6473161e-19)
(1.6611462 0.16211159 -2.4682947e-20)
(1.8533903 0.11911446 2.0791526e-21)
(1.9790612 0.11709879 -5.3989396e-21)
(2.0842377 0.094513466 3.9655004e-21)
(2.1509376 0.084904957 -9.3878564e-21)
(2.2090282 0.065606673 -4.8248987e-21)
(2.2524274 0.058717504 -1.2725168e-21)
(2.2904309 0.046678646 -5.6361438e-21)
(2.3203683 0.041292089 -1.277088e-21)
(2.346607 0.032556474 1.777359e-21)
(2.3687028 0.027823354 6.0214721e-21)
(2.3881064 0.021106596 -5.1941776e-21)
(2.4053713 0.017281052 -7.4608236e-21)
(2.4204388 0.012174219 1.8919179e-21)
(2.4343324 0.0093566752 -6.7703986e-23)
(2.4463493 0.0056187224 -3.4665613e-21)
(2.4576631 0.0037557601 -1.3033866e-21)
(2.4673531 0.0011297593 5.0599762e-21)
(2.4765898 4.2374228e-05 1.3100707e-20)
(2.4844097 -0.0016928267 3.1508186e-21)
(2.4919218 -0.0021554831 -3.6411248e-21)
(2.4981936 -0.0032358993 2.638169e-21)
(2.5042445 -0.0032718535 4.0885306e-21)
(2.5091938 -0.0038431368 4.9356394e-21)
(2.5139746 -0.0035613091 -2.7089227e-21)
(2.5177853 -0.0038034754 -4.0392631e-21)
(2.5214578 -0.0033493131 5.8446348e-21)
(2.5242522 -0.0033690384 7.1415337e-21)
(2.5269348 -0.0028593515 2.1628804e-21)
(2.5289091 -0.0027096084 1.3526065e-22)
(2.5307906 -0.0021135555 1.1075986e-21)
(2.5319516 -0.0019643355 -2.8678842e-21)
(2.5330627 -0.0015546626 -4.0716017e-21)
(2.533802 -0.0010328577 2.2708131e-21)
(2.5345003 -0.0002138585 6.1893922e-22)
(1.6095607 -0.30790981 3.7002469e-21)
(1.5420355 -0.45826814 -3.421264e-21)
(1.4996686 -0.60718573 3.0086746e-22)
(1.4358831 -0.49779463 -7.3979047e-19)
(1.3762205 -0.40184503 -7.9423036e-19)
(1.2451001 -0.043814173 7.6046624e-19)
(1.1452509 0.29918072 5.4585708e-19)
(1.0487251 0.75062791 2.5401588e-19)