/*--------------------------------*- C++ -*----------------------------------*\
| =========                 |                                                 |
| \\      /  F ield         | OpenFOAM: The Open Source CFD Toolbox           |
|  \\    /   O peration     | Version:  v2012                                 |
|   \\  /    A nd           | Website:  www.openfoam.com                      |
|    \\/     M anipulation  |                                                 |
\*---------------------------------------------------------------------------*/
FoamFile
{
    version     2.0;
    format      ascii;
    class       volVectorField;
    location    "55.9286885804231488";
    object      cellDisplacement;
}
// * * * * * * * * * * * * * * * * * * * * * * * * * * * * * * * * * * * * * //

dimensions      [0 1 0 0 0 0 0];


internalField   nonuniform List<vector> 
9200
(
(-0.0070292331 0 0)
(-0.007071827 0 0)
(-0.02042211 0 0)
(-0.0071390233 0 0)
(-0.020518705 0 0)
(-0.032907385 0 0)
(-0.0072262735 0 0)
(-0.020679479 0 0)
(-0.033036022 0 0)
(-0.044482568 0 0)
(-0.0073419769 0 0)
(-0.02093475 0 0)
(-0.033289408 0 0)
(-0.044650424 0 0)
(-0.05520177 0 0)
(-0.0074688106 0 0)
(-0.021245355 0 0)
(-0.033658939 0 0)
(-0.044969583 0 0)
(-0.055403537 0 0)
(-0.065068182 0 0)
(-0.0076032778 0 0)
(-0.021594895 0 0)
(-0.034109138 0 0)
(-0.045393753 0 0)
(-0.055747191 0 0)
(-0.065296267 0 0)
(-0.07414041 0 0)
(-0.0077406828 0 0)
(-0.021969855 0 0)
(-0.03464841 0 0)
(-0.045996453 0 0)
(-0.05630081 0 0)
(-0.065733472 0 0)
(-0.074409717 0 0)
(-0.082434524 0 0)
(-0.007878106 0 0)
(-0.022355034 0 0)
(-0.035226381 0 0)
(-0.046672179 0 0)
(-0.056947441 0 0)
(-0.066287699 0 0)
(-0.074856715 0 0)
(-0.082718337 0 0)
(-0.090006725 0 0)
(-0.0080134796 0 0)
(-0.022744399 0 0)
(-0.035830227 0 0)
(-0.047423894 0 0)
(-0.05774609 0 0)
(-0.067044542 0 0)
(-0.075515574 0 0)
(-0.083230861 0 0)
(-0.090308775 0 0)
(-0.096871882 0 0)
(-0.0081450653 0 0)
(-0.023128247 0 0)
(-0.036439507 0 0)
(-0.048208263 0 0)
(-0.058626737 0 0)
(-0.06792333 0 0)
(-0.076297174 0 0)
(-0.083883607 0 0)
(-0.090815957 0 0)
(-0.097174363 0 0)
(-0.10310131 0 0)
(-0.0082711694 0 0)
(-0.023504839 0 0)
(-0.037045361 0 0)
(-0.049006261 0 0)
(-0.059557118 0 0)
(-0.068894096 0 0)
(-0.077208857 0 0)
(-0.084706697 0 0)
(-0.091525946 0 0)
(-0.097712928 0 0)
(-0.10340853 0 0)
(-0.10871761 0 0)
(-0.0083916287 0 0)
(-0.023867205 0 0)
(-0.037638028 0 0)
(-0.049804188 0 0)
(-0.06050991 0 0)
(-0.06993379 0 0)
(-0.078250553 0 0)
(-0.085664486 0 0)
(-0.092346565 0 0)
(-0.098389809 0 0)
(-0.10391659 0 0)
(-0.10900993 0 0)
(-0.113791 0 0)
(-0.0085050439 0 0)
(-0.024215868 0 0)
(-0.038212653 0 0)
(-0.05058512 0 0)
(-0.061462171 0 0)
(-0.071007911 0 0)
(-0.079369141 0 0)
(-0.086732974 0 0)
(-0.093300796 0 0)
(-0.099229029 0 0)
(-0.10461453 0 0)
(-0.10951574 0 0)
(-0.11406862 0 0)
(-0.11833757 0 0)
(-0.0086113355 0 0)
(-0.024544663 0 0)
(-0.0387624 0 0)
(-0.051348579 0 0)
(-0.062405137 0 0)
(-0.072088911 0 0)
(-0.080530696 0 0)
(-0.087892823 0 0)
(-0.094368747 0 0)
(-0.10016759 0 0)
(-0.1054092 0 0)
(-0.11015131 0 0)
(-0.11452394 0 0)
(-0.11858782 0 0)
(-0.12243099 0 0)
(-0.0087092565 0 0)
(-0.024856368 0 0)
(-0.039286663 0 0)
(-0.052079638 0 0)
(-0.063319946 0 0)
(-0.073163001 0 0)
(-0.081713985 0 0)
(-0.089110101 0 0)
(-0.095544025 0 0)
(-0.10122294 0 0)
(-0.10631301 0 0)
(-0.11092579 0 0)
(-0.11513938 0 0)
(-0.1190127 0 0)
(-0.12265563 0 0)
(-0.12608684 0 0)
(-0.0088000494 0 0)
(-0.025146627 0 0)
(-0.039779561 0 0)
(-0.052783075 0 0)
(-0.064208712 0 0)
(-0.074213456 0 0)
(-0.082889847 0 0)
(-0.090360804 0 0)
(-0.096794476 0 0)
(-0.10238397 0 0)
(-0.10732934 0 0)
(-0.11178761 0 0)
(-0.11583612 0 0)
(-0.11953812 0 0)
(-0.12300909 0 0)
(-0.1262727 0 0)
(-0.12937358 0 0)
(-0.0088828521 0 0)
(-0.025417805 0 0)
(-0.040242896 0 0)
(-0.053444728 0 0)
(-0.065053539 0 0)
(-0.075232543 0 0)
(-0.084054155 0 0)
(-0.091611906 0 0)
(-0.098077297 0 0)
(-0.10362632 0 0)
(-0.10844023 0 0)
(-0.11272854 0 0)
(-0.11661681 0 0)
(-0.12017638 0 0)
(-0.123479 0 0)
(-0.12657008 0 0)
(-0.12951997 0 0)
(-0.13229835 0 0)
(-0.0089584122 0 0)
(-0.025666811 0 0)
(-0.040671186 0 0)
(-0.054073393 0 0)
(-0.065862805 0 0)
(-0.076212541 0 0)
(-0.085183586 0 0)
(-0.092854999 0 0)
(-0.099380707 0 0)
(-0.10491846 0 0)
(-0.10964944 0 0)
(-0.11378212 0 0)
(-0.11748701 0 0)
(-0.12087458 0 0)
(-0.12400133 0 0)
(-0.12692377 0 0)
(-0.12972965 0 0)
(-0.13239691 0 0)
(-0.13492651 0 0)
(-0.0090272979 0 0)
(-0.025896637 0 0)
(-0.041069275 0 0)
(-0.054656641 0 0)
(-0.066620135 0 0)
(-0.077146362 0 0)
(-0.086281428 0 0)
(-0.094069493 0 0)
(-0.10066979 0 0)
(-0.10623973 0 0)
(-0.11092587 0 0)
(-0.11492359 0 0)
(-0.11844258 0 0)
(-0.12163757 0 0)
(-0.12458308 0 0)
(-0.12735204 0 0)
(-0.12999605 0 0)
(-0.13253131 0 0)
(-0.13497905 0 0)
(-0.13726214 0 0)
(-0.0090893013 0 0)
(-0.026105234 0 0)
(-0.041432501 0 0)
(-0.055204396 0 0)
(-0.067336974 0 0)
(-0.078032011 0 0)
(-0.087327249 0 0)
(-0.095250498 0 0)
(-0.10194738 0 0)
(-0.10755801 0 0)
(-0.11222998 0 0)
(-0.11614221 0 0)
(-0.11948975 0 0)
(-0.12247969 0 0)
(-0.12523162 0 0)
(-0.1278131 0 0)
(-0.13027724 0 0)
(-0.13266145 0 0)
(-0.1350127 0 0)
(-0.13726123 0 0)
(-0.13936351 0 0)
(-0.0091447354 0 0)
(-0.026295025 0 0)
(-0.041766063 0 0)
(-0.055705141 0 0)
(-0.067998822 0 0)
(-0.07886285 0 0)
(-0.088328847 0 0)
(-0.096385934 0 0)
(-0.10318278 0 0)
(-0.10886664 0 0)
(-0.11355425 0 0)
(-0.11740402 0 0)
(-0.12062037 0 0)
(-0.12341165 0 0)
(-0.12594266 0 0)
(-0.12831658 0 0)
(-0.13058604 0 0)
(-0.13281821 0 0)
(-0.1350311 0 0)
(-0.13720534 0 0)
(-0.13931006 0 0)
(-0.14122722 0 0)
(-0.0091938656 0 0)
(-0.026466242 0 0)
(-0.042067949 0 0)
(-0.056170531 0 0)
(-0.068618312 0 0)
(-0.079642027 0 0)
(-0.089269269 0 0)
(-0.097470182 0 0)
(-0.10438534 0 0)
(-0.11014425 0 0)
(-0.11486273 0 0)
(-0.11869576 0 0)
(-0.12181886 0 0)
(-0.12442967 0 0)
(-0.12673621 0 0)
(-0.12888621 0 0)
(-0.13094149 0 0)
(-0.13297185 0 0)
(-0.13501566 0 0)
(-0.13707352 0 0)
(-0.13914697 0 0)
(-0.14111788 0 0)
(-0.14290618 0 0)
(-0.0092374017 0 0)
(-0.026619812 0 0)
(-0.042342217 0 0)
(-0.056590002 0 0)
(-0.069183332 0 0)
(-0.080363482 0 0)
(-0.090157331 0 0)
(-0.098498447 0 0)
(-0.10552782 0 0)
(-0.11138598 0 0)
(-0.11616147 0 0)
(-0.11998463 0 0)
(-0.12304397 0 0)
(-0.12552211 0 0)
(-0.12760718 0 0)
(-0.12950993 0 0)
(-0.13133982 0 0)
(-0.13314805 0 0)
(-0.13498812 0 0)
(-0.13690984 0 0)
(-0.13888593 0 0)
(-0.14085832 0 0)
(-0.14274389 0 0)
(-0.1443942 0 0)
(-0.0092752948 0 0)
(-0.026756738 0 0)
(-0.042587091 0 0)
(-0.056975271 0 0)
(-0.069705934 0 0)
(-0.081032139 0 0)
(-0.090979383 0 0)
(-0.09946495 0 0)
(-0.10662323 0 0)
(-0.11257988 0 0)
(-0.11741843 0 0)
(-0.12126649 0 0)
(-0.12429363 0 0)
(-0.12666472 0 0)
(-0.12857662 0 0)
(-0.1302463 0 0)
(-0.13181611 0 0)
(-0.13337504 0 0)
(-0.13498164 0 0)
(-0.13669929 0 0)
(-0.13853267 0 0)
(-0.14043957 0 0)
(-0.14237469 0 0)
(-0.14417663 0 0)
(-0.14573715 0 0)
(-0.0093085096 0 0)
(-0.026877425 0 0)
(-0.042806597 0 0)
(-0.057318572 0 0)
(-0.070177378 0 0)
(-0.081644269 0 0)
(-0.091745193 0 0)
(-0.10036972 0 0)
(-0.10764826 0 0)
(-0.11371941 0 0)
(-0.11864461 0 0)
(-0.12252038 0 0)
(-0.12553002 0 0)
(-0.12784272 0 0)
(-0.12961731 0 0)
(-0.13105341 0 0)
(-0.13235127 0 0)
(-0.13365006 0 0)
(-0.13500694 0 0)
(-0.13648399 0 0)
(-0.13811865 0 0)
(-0.13992134 0 0)
(-0.14181692 0 0)
(-0.14370867 0 0)
(-0.14546663 0 0)
(-0.14692391 0 0)
(-0.0093367108 0 0)
(-0.026983062 0 0)
(-0.042999921 0 0)
(-0.057629414 0 0)
(-0.070607521 0 0)
(-0.082204757 0 0)
(-0.092444199 0 0)
(-0.1012065 0 0)
(-0.108616 0 0)
(-0.11479875 0 0)
(-0.11981001 0 0)
(-0.12374145 0 0)
(-0.12676202 0 0)
(-0.12902342 0 0)
(-0.13068958 0 0)
(-0.13195027 0 0)
(-0.13300745 0 0)
(-0.13402935 0 0)
(-0.13510129 0 0)
(-0.13630446 0 0)
(-0.13769307 0 0)
(-0.13930416 0 0)
(-0.14109953 0 0)
(-0.14299211 0 0)
(-0.14489218 0 0)
(-0.14660121 0 0)
(-0.14799511 0 0)
(-0.0093615398 0 0)
(-0.027074236 0 0)
(-0.043170126 0 0)
(-0.05790167 0 0)
(-0.0709899 0 0)
(-0.082710976 0 0)
(-0.093085633 0 0)
(-0.1019789 0 0)
(-0.10950832 0 0)
(-0.11581112 0 0)
(-0.12092892 0 0)
(-0.12491749 0 0)
(-0.12795508 0 0)
(-0.13020356 0 0)
(-0.13179979 0 0)
(-0.13291157 0 0)
(-0.13374121 0 0)
(-0.13447916 0 0)
(-0.13525328 0 0)
(-0.13616588 0 0)
(-0.13728071 0 0)
(-0.13864681 0 0)
(-0.14026438 0 0)
(-0.14210051 0 0)
(-0.14403357 0 0)
(-0.14593131 0 0)
(-0.14762359 0 0)
(-0.1489386 0 0)
(-0.0093819216 0 0)
(-0.02715169 0 0)
(-0.043317097 0 0)
(-0.058142942 0 0)
(-0.071332434 0 0)
(-0.083167466 0 0)
(-0.093663287 0 0)
(-0.1026825 0 0)
(-0.1103377 0 0)
(-0.11675637 0 0)
(-0.12197535 0 0)
(-0.12604024 0 0)
(-0.12912176 0 0)
(-0.13136145 0 0)
(-0.1329 0 0)
(-0.13390336 0 0)
(-0.13455128 0 0)
(-0.1350268 0 0)
(-0.13551135 0 0)
(-0.136124 0 0)
(-0.13692424 0 0)
(-0.13799948 0 0)
(-0.13937591 0 0)
(-0.14105017 0 0)
(-0.14294071 0 0)
(-0.14491832 0 0)
(-0.14685338 0 0)
(-0.1485195 0 0)
(-0.14978886 0 0)
(-0.009400008 0 0)
(-0.027215352 0 0)
(-0.043442262 0 0)
(-0.058349427 0 0)
(-0.071631406 0 0)
(-0.083573188 0 0)
(-0.094184221 0 0)
(-0.1033217 0 0)
(-0.11109099 0 0)
(-0.11762783 0 0)
(-0.12296368 0 0)
(-0.1271058 0 0)
(-0.1302313 0 0)
(-0.13249282 0 0)
(-0.13400738 0 0)
(-0.13492128 0 0)
(-0.13541092 0 0)
(-0.13565976 0 0)
(-0.1358555 0 0)
(-0.13614634 0 0)
(-0.13662348 0 0)
(-0.13738175 0 0)
(-0.13847301 0 0)
(-0.13991508 0 0)
(-0.14166602 0 0)
(-0.14364909 0 0)
(-0.14570159 0 0)
(-0.14766013 0 0)
(-0.14932473 0 0)
(-0.15053163 0 0)
(-0.009373869 0 0)
(-0.027266369 0 0)
(-0.043547462 0 0)
(-0.058525435 0 0)
(-0.071892205 0 0)
(-0.083931219 0 0)
(-0.094644734 0 0)
(-0.10389306 0 0)
(-0.11177875 0 0)
(-0.11842865 0 0)
(-0.1238734 0 0)
(-0.12810493 0 0)
(-0.131298 0 0)
(-0.13358453 0 0)
(-0.13508117 0 0)
(-0.13593456 0 0)
(-0.13630929 0 0)
(-0.13636785 0 0)
(-0.13629143 0 0)
(-0.13626525 0 0)
(-0.13642422 0 0)
(-0.13685003 0 0)
(-0.13760469 0 0)
(-0.13875626 0 0)
(-0.14028801 0 0)
(-0.14215547 0 0)
(-0.14423601 0 0)
(-0.1463633 0 0)
(-0.14837453 0 0)
(-0.15002547 0 0)
(-0.15119689 0 0)
(-0.0093383276 0 0)
(-0.027215763 0 0)
(-0.043632145 0 0)
(-0.058670108 0 0)
(-0.072113902 0 0)
(-0.084242197 0 0)
(-0.095050225 0 0)
(-0.10440168 0 0)
(-0.11239274 0 0)
(-0.11915408 0 0)
(-0.12471775 0 0)
(-0.1290389 0 0)
(-0.1322954 0 0)
(-0.13462992 0 0)
(-0.13613821 0 0)
(-0.13694781 0 0)
(-0.13722123 0 0)
(-0.13711985 0 0)
(-0.13681631 0 0)
(-0.13648351 0 0)
(-0.13629933 0 0)
(-0.13637902 0 0)
(-0.13678316 0 0)
(-0.13760204 0 0)
(-0.13885807 0 0)
(-0.14052474 0 0)
(-0.14251964 0 0)
(-0.14472586 0 0)
(-0.1469469 0 0)
(-0.14899479 0 0)
(-0.1506512 0 0)
(-0.15177108 0 0)
(-0.009304207 0 0)
(-0.027101904 0 0)
(-0.043567745 0 0)
(-0.058783987 0 0)
(-0.072297041 0 0)
(-0.084506262 0 0)
(-0.09539964 0 0)
(-0.10484597 0 0)
(-0.11294129 0 0)
(-0.11980846 0 0)
(-0.12548186 0 0)
(-0.12989762 0 0)
(-0.13323714 0 0)
(-0.13562274 0 0)
(-0.13714582 0 0)
(-0.13793211 0 0)
(-0.13813962 0 0)
(-0.13791135 0 0)
(-0.13740421 0 0)
(-0.13680113 0 0)
(-0.13628375 0 0)
(-0.13600194 0 0)
(-0.13605834 0 0)
(-0.13651712 0 0)
(-0.13742938 0 0)
(-0.13882662 0 0)
(-0.14064282 0 0)
(-0.14279468 0 0)
(-0.14512421 0 0)
(-0.14743488 0 0)
(-0.14953968 0 0)
(-0.15118845 0 0)
(-0.15227929 0 0)
(-0.0092733001 0 0)
(-0.026994594 0 0)
(-0.04339074 0 0)
(-0.058702792 0 0)
(-0.072445631 0 0)
(-0.084727641 0 0)
(-0.095695078 0 0)
(-0.10522994 0 0)
(-0.1134191 0 0)
(-0.12038758 0 0)
(-0.12617671 0 0)
(-0.13068665 0 0)
(-0.1341025 0 0)
(-0.13655491 0 0)
(-0.13811719 0 0)
(-0.13889553 0 0)
(-0.13904788 0 0)
(-0.13871346 0 0)
(-0.13804786 0 0)
(-0.13721063 0 0)
(-0.13637654 0 0)
(-0.13572746 0 0)
(-0.1354054 0 0)
(-0.13548875 0 0)
(-0.13603121 0 0)
(-0.13709896 0 0)
(-0.13866832 0 0)
(-0.14066763 0 0)
(-0.14297923 0 0)
(-0.14545068 0 0)
(-0.14786058 0 0)
(-0.15000488 0 0)
(-0.1516611 0 0)
(-0.15270793 0 0)
(-0.0092449441 0 0)
(-0.02689625 0 0)
(-0.043225552 0 0)
(-0.058466892 0 0)
(-0.072360719 0 0)
(-0.084902552 0 0)
(-0.095939244 0 0)
(-0.10555395 0 0)
(-0.11383308 0 0)
(-0.12089781 0 0)
(-0.12679626 0 0)
(-0.13139833 0 0)
(-0.13490372 0 0)
(-0.13742479 0 0)
(-0.13902774 0 0)
(-0.13981222 0 0)
(-0.13993779 0 0)
(-0.13952828 0 0)
(-0.13871975 0 0)
(-0.13767971 0 0)
(-0.13657472 0 0)
(-0.13557299 0 0)
(-0.13485713 0 0)
(-0.13454895 0 0)
(-0.13471741 0 0)
(-0.13541165 0 0)
(-0.13665281 0 0)
(-0.138423 0 0)
(-0.14061141 0 0)
(-0.1431021 0 0)
(-0.14570744 0 0)
(-0.14820806 0 0)
(-0.15040637 0 0)
(-0.15205745 0 0)
(-0.15307862 0 0)
(-0.0092204447 0 0)
(-0.026807543 0 0)
(-0.04307291 0 0)
(-0.058245834 0 0)
(-0.07209046 0 0)
(-0.084819303 0 0)
(-0.09612949 0 0)
(-0.10581753 0 0)
(-0.11418187 0 0)
(-0.12133708 0 0)
(-0.12734488 0 0)
(-0.13203878 0 0)
(-0.13562512 0 0)
(-0.13822443 0 0)
(-0.1398867 0 0)
(-0.14069073 0 0)
(-0.14079958 0 0)
(-0.14032954 0 0)
(-0.13941582 0 0)
(-0.13820762 0 0)
(-0.13685724 0 0)
(-0.13554239 0 0)
(-0.13445076 0 0)
(-0.13372428 0 0)
(-0.1334744 0 0)
(-0.13376957 0 0)
(-0.13463782 0 0)
(-0.13610337 0 0)
(-0.13809382 0 0)
(-0.14049445 0 0)
(-0.14316044 0 0)
(-0.14590938 0 0)
(-0.14850356 0 0)
(-0.15073863 0 0)
(-0.15239703 0 0)
(-0.15337967 0 0)
(-0.0091993691 0 0)
(-0.026729908 0 0)
(-0.042935972 0 0)
(-0.058041185 0 0)
(-0.071833227 0 0)
(-0.084516266 0 0)
(-0.096036336 0 0)
(-0.10602593 0 0)
(-0.1144655 0 0)
(-0.12170847 0 0)
(-0.1278233 0 0)
(-0.13260215 0 0)
(-0.13627732 0 0)
(-0.13895509 0 0)
(-0.14067711 0 0)
(-0.14150892 0 0)
(-0.14162258 0 0)
(-0.14112076 0 0)
(-0.14011611 0 0)
(-0.13876326 0 0)
(-0.13721392 0 0)
(-0.13562191 0 0)
(-0.13416521 0 0)
(-0.1330226 0 0)
(-0.13234202 0 0)
(-0.13221099 0 0)
(-0.13268768 0 0)
(-0.13378524 0 0)
(-0.13548306 0 0)
(-0.13771341 0 0)
(-0.14032468 0 0)
(-0.14317604 0 0)
(-0.14605627 0 0)
(-0.14873337 0 0)
(-0.1510156 0 0)
(-0.1526697 0 0)
(-0.1536288 0 0)
(-0.0091825047 0 0)
(-0.026664064 0 0)
(-0.042815365 0 0)
(-0.057857437 0 0)
(-0.071597754 0 0)
(-0.084232109 0 0)
(-0.095700247 0 0)
(-0.10592923 0 0)
(-0.11469046 0 0)
(-0.12201575 0 0)
(-0.12822868 0 0)
(-0.13309375 0 0)
(-0.13684996 0 0)
(-0.13961024 0 0)
(-0.14140466 0 0)
(-0.14227516 0 0)
(-0.14240231 0 0)
(-0.14187873 0 0)
(-0.14081457 0 0)
(-0.13935035 0 0)
(-0.13762042 0 0)
(-0.13578084 0 0)
(-0.13400703 0 0)
(-0.13248034 0 0)
(-0.13136412 0 0)
(-0.13077081 0 0)
(-0.13079848 0 0)
(-0.13149043 0 0)
(-0.13283374 0 0)
(-0.13480414 0 0)
(-0.13728287 0 0)
(-0.14011752 0 0)
(-0.14314529 0 0)
(-0.14615939 0 0)
(-0.14891814 0 0)
(-0.15123142 0 0)
(-0.15289119 0 0)
(-0.15381536 0 0)
(-0.0091696233 0 0)
(-0.026610441 0 0)
(-0.042713248 0 0)
(-0.057695452 0 0)
(-0.071382948 0 0)
(-0.083965972 0 0)
(-0.095383675 0 0)
(-0.10557979 0 0)
(-0.11460401 0 0)
(-0.12225643 0 0)
(-0.12856903 0 0)
(-0.1335119 0 0)
(-0.13735033 0 0)
(-0.14019229 0 0)
(-0.14205901 0 0)
(-0.14297247 0 0)
(-0.14312782 0 0)
(-0.14260701 0 0)
(-0.14149657 0 0)
(-0.13993951 0 0)
(-0.13806944 0 0)
(-0.13602277 0 0)
(-0.13396109 0 0)
(-0.13206841 0 0)
(-0.13052482 0 0)
(-0.12946911 0 0)
(-0.12902336 0 0)
(-0.12926311 0 0)
(-0.13021636 0 0)
(-0.13184716 0 0)
(-0.13408907 0 0)
(-0.13682717 0 0)
(-0.13987754 0 0)
(-0.14308379 0 0)
(-0.14621713 0 0)
(-0.14904583 0 0)
(-0.15139817 0 0)
(-0.1530536 0 0)
(-0.15395417 0 0)
(-0.0091610842 0 0)
(-0.026569944 0 0)
(-0.042630077 0 0)
(-0.057558119 0 0)
(-0.071195483 0 0)
(-0.08372628 0 0)
(-0.095086152 0 0)
(-0.10524328 0 0)
(-0.11425915 0 0)
(-0.12219502 0 0)
(-0.12883333 0 0)
(-0.1338547 0 0)
(-0.13777377 0 0)
(-0.14069701 0 0)
(-0.14264231 0 0)
(-0.14360736 0 0)
(-0.14379847 0 0)
(-0.1432868 0 0)
(-0.14215373 0 0)
(-0.14053476 0 0)
(-0.1385429 0 0)
(-0.13631197 0 0)
(-0.1340028 0 0)
(-0.13178595 0 0)
(-0.12983678 0 0)
(-0.12833348 0 0)
(-0.12741088 0 0)
(-0.12715264 0 0)
(-0.12764151 0 0)
(-0.12888012 0 0)
(-0.1308065 0 0)
(-0.1333479 0 0)
(-0.13634543 0 0)
(-0.13961554 0 0)
(-0.14298757 0 0)
(-0.14623791 0 0)
(-0.14913333 0 0)
(-0.15151088 0 0)
(-0.15316921 0 0)
(-0.15403665 0 0)
(-0.026542055 0 0)
(-0.0091555213 0 0)
(-0.042566457 0 0)
(-0.057446094 0 0)
(-0.07103419 0 0)
(-0.083512256 0 0)
(-0.094817326 0 0)
(-0.10493024 0 0)
(-0.11392279 0 0)
(-0.12186604 0 0)
(-0.12880101 0 0)
(-0.13412808 0 0)
(-0.13811879 0 0)
(-0.14112411 0 0)
(-0.14314963 0 0)
(-0.14416816 0 0)
(-0.14440437 0 0)
(-0.14392111 0 0)
(-0.14277679 0 0)
(-0.14110985 0 0)
(-0.13903046 0 0)
(-0.13665332 0 0)
(-0.13412479 0 0)
(-0.13161238 0 0)
(-0.12929389 0 0)
(-0.12735433 0 0)
(-0.12594952 0 0)
(-0.12518827 0 0)
(-0.12517506 0 0)
(-0.12595512 0 0)
(-0.12751402 0 0)
(-0.12976383 0 0)
(-0.13259629 0 0)
(-0.1358559 0 0)
(-0.13933344 0 0)
(-0.14286747 0 0)
(-0.14621883 0 0)
(-0.14917057 0 0)
(-0.15157932 0 0)
(-0.15323166 0 0)
(-0.15407447 0 0)
(-0.04252327 0 0)
(-0.026523965 0 0)
(-0.009152664 0 0)
(-0.057360833 0 0)
(-0.070903387 0 0)
(-0.083330226 0 0)
(-0.09457634 0 0)
(-0.10464136 0 0)
(-0.11360937 0 0)
(-0.12155157 0 0)
(-0.1284998 0 0)
(-0.13411023 0 0)
(-0.13839198 0 0)
(-0.14147533 0 0)
(-0.14357866 0 0)
(-0.14465855 0 0)
(-0.14494651 0 0)
(-0.14449591 0 0)
(-0.14335767 0 0)
(-0.14166889 0 0)
(-0.13951934 0 0)
(-0.13701596 0 0)
(-0.13430317 0 0)
(-0.1315398 0 0)
(-0.12888995 0 0)
(-0.12653453 0 0)
(-0.12465651 0 0)
(-0.12340279 0 0)
(-0.12287295 0 0)
(-0.12313425 0 0)
(-0.12423422 0 0)
(-0.12612626 0 0)
(-0.12870156 0 0)
(-0.13184186 0 0)
(-0.13535648 0 0)
(-0.13903831 0 0)
(-0.14271792 0 0)
(-0.14616682 0 0)
(-0.14917134 0 0)
(-0.15159986 0 0)
(-0.15325029 0 0)
(-0.1540603 0 0)
(-0.057302743 0 0)
(-0.042493487 0 0)
(-0.02651437 0 0)
(-0.009154213 0 0)
(-0.070802213 0 0)
(-0.083179131 0 0)
(-0.094370197 0 0)
(-0.10438496 0 0)
(-0.11331657 0 0)
(-0.12124945 0 0)
(-0.1282115 0 0)
(-0.13384842 0 0)
(-0.13839935 0 0)
(-0.14174596 0 0)
(-0.14393194 0 0)
(-0.14507401 0 0)
(-0.14541786 0 0)
(-0.14501331 0 0)
(-0.14389043 0 0)
(-0.14218958 0 0)
(-0.13999721 0 0)
(-0.13740158 0 0)
(-0.13453215 0 0)
(-0.13154301 0 0)
(-0.12859649 0 0)
(-0.12586956 0 0)
(-0.12353816 0 0)
(-0.1217821 0 0)
(-0.12073104 0 0)
(-0.12045884 0 0)
(-0.12104667 0 0)
(-0.12249496 0 0)
(-0.12474408 0 0)
(-0.12765989 0 0)
(-0.13109396 0 0)
(-0.13485928 0 0)
(-0.13872943 0 0)
(-0.14254782 0 0)
(-0.14607829 0 0)
(-0.14912801 0 0)
(-0.1515795 0 0)
(-0.1532208 0 0)
(-0.15400352 0 0)
(-0.070732825 0 0)
(-0.057263616 0 0)
(-0.042478359 0 0)
(-0.026518674 0 0)
(-0.0091593588 0 0)
(-0.083062523 0 0)
(-0.094197822 0 0)
(-0.10416091 0 0)
(-0.11305601 0 0)
(-0.12097216 0 0)
(-0.12792756 0 0)
(-0.13358236 0 0)
(-0.13818707 0 0)
(-0.14178917 0 0)
(-0.14420159 0 0)
(-0.14541169 0 0)
(-0.14581697 0 0)
(-0.14546327 0 0)
(-0.14436733 0 0)
(-0.14267539 0 0)
(-0.14045562 0 0)
(-0.13778471 0 0)
(-0.13478863 0 0)
(-0.13161417 0 0)
(-0.12840934 0 0)
(-0.12534123 0 0)
(-0.12259382 0 0)
(-0.12034969 0 0)
(-0.11876829 0 0)
(-0.11796713 0 0)
(-0.11801453 0 0)
(-0.11894613 0 0)
(-0.1207628 0 0)
(-0.12337164 0 0)
(-0.12662306 0 0)
(-0.13035712 0 0)
(-0.13436097 0 0)
(-0.13841154 0 0)
(-0.14235076 0 0)
(-0.1459598 0 0)
(-0.14905069 0 0)
(-0.15151558 0 0)
(-0.15314948 0 0)
(-0.15389908 0 0)
(-0.08297971 0 0)
(-0.07068476 0 0)
(-0.057243821 0 0)
(-0.042481493 0 0)
(-0.026534456 0 0)
(-0.0091688001 0 0)
(-0.094063503 0 0)
(-0.10397467 0 0)
(-0.1128252 0 0)
(-0.12071774 0 0)
(-0.12766603 0 0)
(-0.13332541 0 0)
(-0.13796108 0 0)
(-0.14162883 0 0)
(-0.14427524 0 0)
(-0.14567742 0 0)
(-0.14614347 0 0)
(-0.14584478 0 0)
(-0.1447859 0 0)
(-0.14310971 0 0)
(-0.14088251 0 0)
(-0.13816453 0 0)
(-0.13506708 0 0)
(-0.13173182 0 0)
(-0.12829942 0 0)
(-0.12493644 0 0)
(-0.12181356 0 0)
(-0.11910841 0 0)
(-0.11700308 0 0)
(-0.11565121 0 0)
(-0.11514467 0 0)
(-0.11553025 0 0)
(-0.11684857 0 0)
(-0.11904794 0 0)
(-0.12202988 0 0)
(-0.12562059 0 0)
(-0.1296363 0 0)
(-0.13386902 0 0)
(-0.13808173 0 0)
(-0.14213467 0 0)
(-0.14580712 0 0)
(-0.14893327 0 0)
(-0.15141266 0 0)
(-0.15303339 0 0)
(-0.15375359 0 0)
(-0.093966157 0 0)
(-0.082920653 0 0)
(-0.070658254 0 0)
(-0.057251539 0 0)
(-0.042505421 0 0)
(-0.026563622 0 0)
(-0.009180592 0 0)
(-0.10382567 0 0)
(-0.11263192 0 0)
(-0.12049533 0 0)
(-0.12742055 0 0)
(-0.13307627 0 0)
(-0.13773779 0 0)
(-0.14145581 0 0)
(-0.14417191 0 0)
(-0.14577832 0 0)
(-0.14639213 0 0)
(-0.14615519 0 0)
(-0.14514049 0 0)
(-0.14349382 0 0)
(-0.14127221 0 0)
(-0.13852123 0 0)
(-0.13534708 0 0)
(-0.1318858 0 0)
(-0.1282634 0 0)
(-0.1246327 0 0)
(-0.12117059 0 0)
(-0.11804963 0 0)
(-0.115442 0 0)
(-0.11353335 0 0)
(-0.11245838 0 0)
(-0.1122927 0 0)
(-0.11306795 0 0)
(-0.11477679 0 0)
(-0.11736976 0 0)
(-0.1207179 0 0)
(-0.12463834 0 0)
(-0.12893354 0 0)
(-0.13337838 0 0)
(-0.13774377 0 0)
(-0.14189198 0 0)
(-0.14562609 0 0)
(-0.14878295 0 0)
(-0.15126934 0 0)
(-0.15287662 0 0)
(-0.15356344 0 0)
(-0.10371691 0 0)
(-0.093895536 0 0)
(-0.082885138 0 0)
(-0.0706633 0 0)
(-0.057285985 0 0)
(-0.042545563 0 0)
(-0.026603253 0 0)
(-0.0091963396 0 0)
(-0.11247423 0 0)
(-0.12030311 0 0)
(-0.12720443 0 0)
(-0.1328469 0 0)
(-0.13751388 0 0)
(-0.14126987 0 0)
(-0.14405058 0 0)
(-0.14574574 0 0)
(-0.14652984 0 0)
(-0.14638647 0 0)
(-0.14542502 0 0)
(-0.14381824 0 0)
(-0.14161482 0 0)
(-0.13885226 0 0)
(-0.1356231 0 0)
(-0.13205882 0 0)
(-0.12827363 0 0)
(-0.12441723 0 0)
(-0.12065612 0 0)
(-0.11715331 0 0)
(-0.1140848 0 0)
(-0.11163871 0 0)
(-0.10998229 0 0)
(-0.10923278 0 0)
(-0.10944128 0 0)
(-0.11061431 0 0)
(-0.11274504 0 0)
(-0.11573332 0 0)
(-0.11945173 0 0)
(-0.12369652 0 0)
(-0.12824985 0 0)
(-0.13289428 0 0)
(-0.13739312 0 0)
(-0.14163057 0 0)
(-0.14541253 0 0)
(-0.14859585 0 0)
(-0.1510881 0 0)
(-0.15267822 0 0)
(-0.15333352 0 0)
(-0.11235553 0 0)
(-0.10363462 0 0)
(-0.093850669 0 0)
(-0.082882793 0 0)
(-0.070697655 0 0)
(-0.057345919 0 0)
(-0.042605172 0 0)
(-0.026654963 0 0)
(-0.0092136228 0 0)
(-0.12014598 0 0)
(-0.12701303 0 0)
(-0.13263528 0 0)
(-0.13730441 0 0)
(-0.14108351 0 0)
(-0.14390812 0 0)
(-0.14567942 0 0)
(-0.14656757 0 0)
(-0.14655798 0 0)
(-0.14564102 0 0)
(-0.14407612 0 0)
(-0.14190318 0 0)
(-0.13914301 0 0)
(-0.13587829 0 0)
(-0.1322394 0 0)
(-0.12832576 0 0)
(-0.12427089 0 0)
(-0.12024348 0 0)
(-0.11640625 0 0)
(-0.11291947 0 0)
(-0.1099659 0 0)
(-0.10773525 0 0)
(-0.10638322 0 0)
(-0.10599617 0 0)
(-0.10661428 0 0)
(-0.10822212 0 0)
(-0.11076694 0 0)
(-0.1141534 0 0)
(-0.11822762 0 0)
(-0.12278259 0 0)
(-0.12758546 0 0)
(-0.13241056 0 0)
(-0.13703351 0 0)
(-0.1413426 0 0)
(-0.14517138 0 0)
(-0.14837584 0 0)
(-0.15086821 0 0)
(-0.15243994 0 0)
(-0.15306239 0 0)
(-0.1200233 0 0)
(-0.11226236 0 0)
(-0.10357903 0 0)
(-0.093844208 0 0)
(-0.082914487 0 0)
(-0.07076188 0 0)
(-0.057429654 0 0)
(-0.042676638 0 0)
(-0.026714516 0 0)
(-0.0092338635 0 0)
(-0.12685404 0 0)
(-0.1324512 0 0)
(-0.13710557 0 0)
(-0.14089791 0 0)
(-0.14375967 0 0)
(-0.14559312 0 0)
(-0.14656966 0 0)
(-0.14667239 0 0)
(-0.14584425 0 0)
(-0.14427092 0 0)
(-0.14213317 0 0)
(-0.13938703 0 0)
(-0.13610709 0 0)
(-0.13241396 0 0)
(-0.12839571 0 0)
(-0.12417907 0 0)
(-0.11992475 0 0)
(-0.11578346 0 0)
(-0.11191688 0 0)
(-0.10850124 0 0)
(-0.10572202 0 0)
(-0.10376876 0 0)
(-0.10276814 0 0)
(-0.10278517 0 0)
(-0.10383361 0 0)
(-0.10587535 0 0)
(-0.10885465 0 0)
(-0.11263001 0 0)
(-0.11705656 0 0)
(-0.1219094 0 0)
(-0.12693861 0 0)
(-0.1319312 0 0)
(-0.13666003 0 0)
(-0.14103553 0 0)
(-0.14489937 0 0)
(-0.14812089 0 0)
(-0.15061108 0 0)
(-0.15216214 0 0)
(-0.15275228 0 0)
(-0.12672519 0 0)
(-0.11992251 0 0)
(-0.11219402 0 0)
(-0.10356318 0 0)
(-0.093874509 0 0)
(-0.082975636 0 0)
(-0.070851814 0 0)
(-0.05753737 0 0)
(-0.042764632 0 0)
(-0.026783342 0 0)
(-0.0092533404 0 0)
(-0.13229089 0 0)
(-0.1369281 0 0)
(-0.14072269 0 0)
(-0.14360442 0 0)
(-0.14548572 0 0)
(-0.14653611 0 0)
(-0.14674354 0 0)
(-0.1460451 0 0)
(-0.14451045 0 0)
(-0.14229513 0 0)
(-0.13957858 0 0)
(-0.13629768 0 0)
(-0.13257156 0 0)
(-0.12847717 0 0)
(-0.12412517 0 0)
(-0.11967377 0 0)
(-0.11527284 0 0)
(-0.11106898 0 0)
(-0.10723044 0 0)
(-0.10395083 0 0)
(-0.10142321 0 0)
(-0.099793383 0 0)
(-0.099173305 0 0)
(-0.099615435 0 0)
(-0.10111894 0 0)
(-0.10361717 0 0)
(-0.10701343 0 0)
(-0.11117323 0 0)
(-0.11593156 0 0)
(-0.12106556 0 0)
(-0.12630892 0 0)
(-0.13145069 0 0)
(-0.13627613 0 0)
(-0.14070343 0 0)
(-0.1445998 0 0)
(-0.14783236 0 0)
(-0.1503165 0 0)
(-0.1518444 0 0)
(-0.15240323 0 0)
(-0.13216076 0 0)
(-0.12661486 0 0)
(-0.1198448 0 0)
(-0.11216544 0 0)
(-0.10358402 0 0)
(-0.093939646 0 0)
(-0.083067701 0 0)
(-0.070967851 0 0)
(-0.057663099 0 0)
(-0.042861339 0 0)
(-0.026858978 0 0)
(-0.0092643788 0 0)
(-0.13676865 0 0)
(-0.14055753 0 0)
(-0.14345292 0 0)
(-0.14537009 0 0)
(-0.1464783 0 0)
(-0.14676722 0 0)
(-0.14618603 0 0)
(-0.14480306 0 0)
(-0.14257902 0 0)
(-0.13970387 0 0)
(-0.13643838 0 0)
(-0.13269929 0 0)
(-0.12855118 0 0)
(-0.12409367 0 0)
(-0.11948188 0 0)
(-0.11485174 0 0)
(-0.11034643 0 0)
(-0.10613236 0 0)
(-0.1023917 0 0)
(-0.099314355 0 0)
(-0.09707249 0 0)
(-0.095811631 0 0)
(-0.095616426 0 0)
(-0.096518055 0 0)
(-0.098484804 0 0)
(-0.10142986 0 0)
(-0.1052527 0 0)
(-0.10977936 0 0)
(-0.11486004 0 0)
(-0.12025839 0 0)
(-0.12569269 0 0)
(-0.13097095 0 0)
(-0.13587817 0 0)
(-0.14035126 0 0)
(-0.14427016 0 0)
(-0.14750994 0 0)
(-0.14998399 0 0)
(-0.15148923 0 0)
(-0.15200191 0 0)
(-0.13663399 0 0)
(-0.13204537 0 0)
(-0.1265248 0 0)
(-0.11979975 0 0)
(-0.11217128 0 0)
(-0.10364259 0 0)
(-0.094037412 0 0)
(-0.08318245 0 0)
(-0.071104131 0 0)
(-0.057808724 0 0)
(-0.042970115 0 0)
(-0.026873324 0 0)
(-0.0092310685 0 0)
(-0.14040872 0 0)
(-0.14330483 0 0)
(-0.14524551 0 0)
(-0.14639872 0 0)
(-0.14675934 0 0)
(-0.14627625 0 0)
(-0.14502134 0 0)
(-0.14296826 0 0)
(-0.14002867 0 0)
(-0.13652935 0 0)
(-0.13279013 0 0)
(-0.12860698 0 0)
(-0.1240707 0 0)
(-0.11932554 0 0)
(-0.11450573 0 0)
(-0.10974052 0 0)
(-0.10518542 0 0)
(-0.10102436 0 0)
(-0.097447328 0 0)
(-0.094634648 0 0)
(-0.092742454 0 0)
(-0.091880075 0 0)
(-0.092130689 0 0)
(-0.093501771 0 0)
(-0.095945558 0 0)
(-0.099346915 0 0)
(-0.10357148 0 0)
(-0.10845481 0 0)
(-0.11383375 0 0)
(-0.11947786 0 0)
(-0.12508917 0 0)
(-0.13048808 0 0)
(-0.13546766 0 0)
(-0.13997464 0 0)
(-0.14391072 0 0)
(-0.14715154 0 0)
(-0.14961442 0 0)
(-0.15109373 0 0)
(-0.15154365 0 0)
(-0.14027511 0 0)
(-0.13651064 0 0)
(-0.13194699 0 0)
(-0.12646365 0 0)
(-0.11979064 0 0)
(-0.11221527 0 0)
(-0.10373281 0 0)
(-0.094165683 0 0)
(-0.083321604 0 0)
(-0.071257802 0 0)
(-0.057963886 0 0)
(-0.042971117 0 0)
(-0.026789749 0 0)
(-0.0091952798 0 0)
(-0.14316549 0 0)
(-0.14512086 0 0)
(-0.1463062 0 0)
(-0.14671869 0 0)
(-0.14631986 0 0)
(-0.14518112 0 0)
(-0.14327706 0 0)
(-0.14052134 0 0)
(-0.1368855 0 0)
(-0.1328305 0 0)
(-0.12863565 0 0)
(-0.12404274 0 0)
(-0.11919454 0 0)
(-0.11421496 0 0)
(-0.10922347 0 0)
(-0.10437198 0 0)
(-0.099835757 0 0)
(-0.09579808 0 0)
(-0.092443881 0 0)
(-0.089940686 0 0)
(-0.088420537 0 0)
(-0.088000147 0 0)
(-0.088729354 0 0)
(-0.090591822 0 0)
(-0.093508396 0 0)
(-0.097349579 0 0)
(-0.1019763 0 0)
(-0.1071925 0 0)
(-0.11285647 0 0)
(-0.11872711 0 0)
(-0.12449397 0 0)
(-0.1300015 0 0)
(-0.13504283 0 0)
(-0.13957382 0 0)
(-0.14352106 0 0)
(-0.14675985 0 0)
(-0.14922702 0 0)
(-0.15065188 0 0)
(-0.15103868 0 0)
(-0.14303576 0 0)
(-0.14015038 0 0)
(-0.13640154 0 0)
(-0.13187638 0 0)
(-0.1264362 0 0)
(-0.11980935 0 0)
(-0.11228703 0 0)
(-0.1038557 0 0)
(-0.094318338 0 0)
(-0.08347654 0 0)
(-0.071426074 0 0)
(-0.05797193 0 0)
(-0.042827732 0 0)
(-0.026693172 0 0)
(-0.0091551923 0 0)
(-0.14499523 0 0)
(-0.14620179 0 0)
(-0.14665731 0 0)
(-0.14632635 0 0)
(-0.1452808 0 0)
(-0.14350772 0 0)
(-0.14092401 0 0)
(-0.13749092 0 0)
(-0.13322595 0 0)
(-0.1286185 0 0)
(-0.12399378 0 0)
(-0.11907111 0 0)
(-0.11396403 0 0)
(-0.10878445 0 0)
(-0.10367132 0 0)
(-0.098797202 0 0)
(-0.094344552 0 0)
(-0.090490647 0 0)
(-0.087407317 0 0)
(-0.085260117 0 0)
(-0.084173534 0 0)
(-0.084217658 0 0)
(-0.085438258 0 0)
(-0.087790434 0 0)
(-0.091183519 0 0)
(-0.095462467 0 0)
(-0.10046097 0 0)
(-0.10599576 0 0)
(-0.1119187 0 0)
(-0.1179972 0 0)
(-0.1239062 0 0)
(-0.12951043 0 0)
(-0.13459978 0 0)
(-0.13914834 0 0)
(-0.14309895 0 0)
(-0.14638085 0 0)
(-0.1488108 0 0)
(-0.15015887 0 0)
(-0.15049081 0 0)
(-0.14487265 0 0)
(-0.14290863 0 0)
(-0.14003379 0 0)
(-0.13631582 0 0)
(-0.13183196 0 0)
(-0.12643395 0 0)
(-0.11986065 0 0)
(-0.11239196 0 0)
(-0.10400265 0 0)
(-0.094494066 0 0)
(-0.083646625 0 0)
(-0.071408438 0 0)
(-0.057783488 0 0)
(-0.042666549 0 0)
(-0.02658283 0 0)
(-0.0091121887 0 0)
(-0.14609072 0 0)
(-0.14657384 0 0)
(-0.14629836 0 0)
(-0.14533532 0 0)
(-0.14367236 0 0)
(-0.14123162 0 0)
(-0.13798196 0 0)
(-0.13393511 0 0)
(-0.12904943 0 0)
(-0.12391572 0 0)
(-0.11893811 0 0)
(-0.11373407 0 0)
(-0.10839965 0 0)
(-0.10306523 0 0)
(-0.097897502 0 0)
(-0.093070143 0 0)
(-0.088757782 0 0)
(-0.085135071 0 0)
(-0.08237803 0 0)
(-0.080631949 0 0)
(-0.079990939 0 0)
(-0.080534549 0 0)
(-0.082265194 0 0)
(-0.085117264 0 0)
(-0.08897197 0 0)
(-0.093666106 0 0)
(-0.099029408 0 0)
(-0.10485575 0 0)
(-0.11102181 0 0)
(-0.11728892 0 0)
(-0.12332188 0 0)
(-0.12900707 0 0)
(-0.1341399 0 0)
(-0.13869438 0 0)
(-0.14273543 0 0)
(-0.14600211 0 0)
(-0.14834039 0 0)
(-0.14962128 0 0)
(-0.14989693 0 0)
(-0.14597303 0 0)
(-0.14474741 0 0)
(-0.14278641 0 0)
(-0.13993432 0 0)
(-0.13625138 0 0)
(-0.13181366 0 0)
(-0.12646217 0 0)
(-0.11993391 0 0)
(-0.11251665 0 0)
(-0.10417024 0 0)
(-0.094683087 0 0)
(-0.083606141 0 0)
(-0.071167486 0 0)
(-0.057566807 0 0)
(-0.042484852 0 0)
(-0.02645796 0 0)
(-0.0090654017 0 0)
(-0.14647552 0 0)
(-0.14624359 0 0)
(-0.14534361 0 0)
(-0.14377542 0 0)
(-0.14146434 0 0)
(-0.13837645 0 0)
(-0.13452404 0 0)
(-0.12986889 0 0)
(-0.12437608 0 0)
(-0.11878862 0 0)
(-0.11351156 0 0)
(-0.10805252 0 0)
(-0.10253338 0 0)
(-0.097108458 0 0)
(-0.091950589 0 0)
(-0.087228103 0 0)
(-0.083109913 0 0)
(-0.07977367 0 0)
(-0.077386914 0 0)
(-0.07608096 0 0)
(-0.075936527 0 0)
(-0.076986795 0 0)
(-0.079229839 0 0)
(-0.082568618 0 0)
(-0.086879459 0 0)
(-0.091977484 0 0)
(-0.097672302 0 0)
(-0.10377356 0 0)
(-0.11015899 0 0)
(-0.11659538 0 0)
(-0.12273535 0 0)
(-0.12849465 0 0)
(-0.13365531 0 0)
(-0.13835129 0 0)
(-0.1424041 0 0)
(-0.1455625 0 0)
(-0.14781978 0 0)
(-0.14903351 0 0)
(-0.14926255 0 0)
(-0.1463614 0 0)
(-0.14584637 0 0)