/*--------------------------------*- C++ -*----------------------------------*\
| =========                 |                                                 |
| \\      /  F ield         | OpenFOAM: The Open Source CFD Toolbox           |
|  \\    /   O peration     | Version:  v2012                                 |
|   \\  /    A nd           | Website:  www.openfoam.com                      |
|    \\/     M anipulation  |                                                 |
\*---------------------------------------------------------------------------*/
FoamFile
{
    version     2.0;
    format      ascii;
    class       surfaceScalarField;
    location    "55.9286885804231488";
    object      meshPhi;
}
// * * * * * * * * * * * * * * * * * * * * * * * * * * * * * * * * * * * * * //

dimensions      [0 3 -1 0 0 0 0];
oriented        oriented;


internalField   nonuniform List<scalar> 
18180
(
7.5822491e-14
-0.059524201
0
-0.05428592
0
-0.11995471
0
-0.049364942
0
-0.11024177
0
-0.1808129
-3.789883e-14
-0.045455784
7.309096e-14
-0.10098776
0
-0.16712701
6.7873814e-14
-0.23902287
3.7930479e-14
-0.042325253
-3.6524433e-14
-0.092875465
7.0439338e-14
-0.1538079
0
-0.22199545
-6.5358264e-14
-0.29330126
0
-0.039664336
0
-0.086091361
0
-0.14181685
0
-0.20531091
0
-0.27287235
0
-0.34220165
0
-0.037288322
-2.502928e-17
-0.080286494
3.5227298e-14
-0.13113358
-3.394291e-14
-0.18932808
0
-0.25262224
0
-0.31872353
-6.0693546e-14
-0.38649509
0
-0.035072763
-3.6544128e-14
-0.075074965
3.5207041e-14
-0.1216596
-3.3921092e-14
-0.17465867
-3.2684699e-14
-0.23309222
4.3445649e-17
-0.2955522
0
-0.36024476
0
-0.42614099
0
-0.032993004
0
-0.070328079
3.5238328e-14
-0.1133407
-3.3950234e-14
-0.16183485
3.2710853e-14
-0.21521971
3.1518058e-14
-0.27315874
0
-0.33460625
0
-0.39774722
0
-0.46233319
-3.7946813e-14
-0.031036001
0
-0.065949276
3.5219451e-14
-0.10592268
0
-0.15066779
0
-0.1994836
-6.3018443e-14
-0.25264818
-3.0350442e-14
-0.3100316
-5.8489644e-14
-0.37017081
0
-0.43187936
0
-0.49499296
-3.7980047e-14
-0.029196311
2.4985437e-17
-0.061895418
3.525104e-14
-0.099191331
3.3960375e-14
-0.14080093
0
-0.18593682
-3.1522536e-14
-0.23480554
3.0371929e-14
-0.28759266
-5.8509475e-14
-0.34381419
0
-0.40265924
0
-0.46289152
0
-0.52490381
0
-0.027465903
0
-0.058127096
0
-0.093024223
0
-0.13194866
3.2722345e-14
-0.17409806
3.1525466e-14
-0.21936208
-2.0545295e-17
-0.26787045
1.8701945e-17
-0.3196944
0
-0.3748028
0
-0.43227971
0
-0.49117884
-5.0432451e-14
-0.55192963
1.8984769e-14
-0.025834542
0
-0.054616326
0
-0.087338015
2.5033098e-17
-0.12386167
0
-0.16343281
0
-0.20572693
-3.0354664e-14
-0.25064374
0
-0.29828661
2.8197783e-14
-0.34914529
5.4324347e-14
-0.40316444
0
-0.45938722
0
-0.51692093
2.2065819e-17
-0.57683402
1.9001065e-14
-0.024295799
0
-0.051336278
0
-0.082064573
0
-0.11640948
3.2731841e-14
-0.1536747
-3.1509816e-14
-0.19345438
0
-0.23544124
0
-0.27949375
2.818037e-14
-0.3263632
2.7169846e-14
-0.3764465
0
-0.42927404
5.0454316e-14
-0.48407652
0
-0.54048451
4.685484e-14
-0.59949358
-1.8991376e-14
-0.022841567
0
-0.048264793
0
-0.077152484
0
-0.10949035
0
-0.14463922
-3.1513449e-14
-0.18218456
0
-0.22176371
2.9248473e-14
-0.26290847
-2.8180272e-14
-0.3063248
0
-0.35261893
-2.6179275e-14
-0.40157932
0
-0.45308376
0
-0.50668981
0
-0.56202358
-4.5134638e-14
-0.62040961
1.9007365e-14
-0.021465964
1.278539e-17
-0.04538155
0
-0.072562917
0
-0.10303372
0
-0.13621752
0
-0.17169107
0
-0.20917932
0
-0.24794519
0
-0.28838679
2.7168841e-14
-0.33141912
0
-0.37689539
-2.5211342e-14
-0.42462943
1.1960341e-17
-0.47488607
0
-0.52732833
0
-0.58177014
0
-0.63942931
1.9010169e-14
-0.020162247
0
-0.042672498
1.7643884e-14
-0.068269602
1.6996694e-14
-0.096991793
1.6360526e-14
-0.12832451
0
-0.16183455
0
-0.19741806
-2.9251721e-14
-0.23415101
0
-0.27211869
0
-0.31234976
2.617696e-14
-0.35482859
0
-0.39914982
-2.4293142e-14
-0.44565954
-2.3411657e-14
-0.49479993
0
-0.54626383
0
-0.59983954
-4.1920043e-14
-0.65703324
3.7999252e-14
-0.01892577
0
-0.04012567
0
-0.064245687
-3.398531e-14
-0.09132466
-1.6362677e-14
-0.12090404
1.5762468e-14
-0.15252631
0
-0.18630815
0
-0.22124322
1.8720111e-17
-0.25712622
0
-0.29486081
0
-0.33465632
2.5206854e-14
-0.37618366
2.4290457e-14
-0.41945053
-2.3408721e-14
-0.46492931
-2.2570455e-14
-0.51305367
4.3505918e-14
-0.56356065
0
-0.61643443
-4.0401075e-14
-0.67311422
-1.9015084e-14
-0.017750647
-1.30514e-17
-0.037725821
1.764905e-14
-0.0604689
-1.7001599e-14
-0.085995971
1.2835646e-17
-0.11391125
1.2100599e-17
-0.14370858
-1.5197034e-14
-0.17575902
0
-0.2090213
0
-0.24304241
0
-0.27859007
0
-0.3159439
0
-0.35495195
2.4300367e-14
-0.39562875
0
-0.43803143
2.2567275e-14
-0.48252714
0
-0.52973525
0
-0.57943718
0
-0.63164851
0
-0.68798829
0
-0.016633341
0
-0.035462024
-1.333696e-17
-0.056918964
0
-0.080975979
-1.637968e-14
-0.10731317
-1.5766271e-14
-0.13534638
-1.5187038e-14
-0.16571996
-1.4639824e-14
-0.19738703
0
-0.22969287
0
-0.26332237
0
-0.29849896
0
-0.33511452
0
-0.37348006
0
-0.41354482
0
-0.45505341
0
-0.498646
-2.0959475e-14
-0.54500318
0
-0.59394055
0
-0.64559365
-3.7528797e-14
-0.70154091
1.9019109e-14
-0.015572086
1.3250709e-17
-0.033321249
0
-0.053580197
-1.7006006e-14
-0.076244418
-1.6368606e-14
-0.10107872
0
-0.12741055
1.1838105e-17
-0.1561638
0
-0.18629522
-9.7414499e-18
-0.21696666
0
-0.24886106
0
-0.28215511
-2.5199963e-14
-0.31660082
0
-0.35270684
0
-0.39067513
0
-0.42997587
0
-0.47061711
0
-0.51334264
0
-0.55894746
1.35925e-17
-0.60720953
0
-0.65835027
3.6182419e-14
-0.71407314
0
-0.01456487
0
-0.031290269
0
-0.050432309
0
-0.071781052
-1.3145811e-17
-0.095182553
1.5782028e-14
-0.11988236
1.5202098e-14
-0.1470685
1.1151044e-17
-0.17572189
0
-0.20481941
-1.3585176e-14
-0.23508296
0
-0.26670888
0
-0.29924587
2.4291335e-14
-0.33313768
0
-0.36911707
2.254429e-14
-0.40661791
0
-0.44506219
-8.9332559e-18
-0.48482099
7.8745832e-18
-0.52677526
-1.9465517e-14
-0.57165351
0
-0.61928705
0
-0.67002141
-3.4863781e-14
-0.72552239
-6.5805969e-18
-0.013611019
0
-0.029362539
0
-0.047458278
0
-0.067567495
0
-0.089602921
-1.5783682e-14
-0.11274302
-1.5191663e-14
-0.13841616
0
-0.16565142
1.4104486e-14
-0.19322186
0
-0.22192026
1.3078023e-14
-0.25201817
0
-0.28287426
0
-0.31476657
0
-0.34877368
0
-0.38457021
2.1722413e-14
-0.42122633
-2.0936321e-14
-0.45879622
-2.0188464e-14
-0.49776221
7.1457954e-18
-0.53895895
-1.875341e-14
-0.58321425
0
-0.63029547
0
-0.68069755
3.3613359e-14
-0.73609853
-9.4986793e-15
-0.012709651
9.1648337e-15
-0.027536114
0
-0.04464446
0
-0.063584635
0
-0.084318498
0
-0.1059756
0
-0.13019295
1.149735e-17
-0.15606076
0
-0.18215633
0
-0.20933666
1.3086641e-14
-0.23798685
-7.6360858e-18
-0.26734503
0
-0.29745556
0
-0.32942817
0
-0.36349294
0
-0.39867278
0
-0.43447163
2.0182938e-14
-0.47127604
-7.3699274e-18
-0.50949872
1.8754208e-14
-0.5500524
0
-0.59369964
0
-0.64029785
0
-0.69043828
-3.2390453e-14
-0.74574111
9.5123929e-15
-0.011861543
9.1655202e-15
-0.025806663
8.8234007e-15
-0.04197995
0
-0.059813206
0
-0.079307325
0
-0.099560968
1.216777e-17
-0.1223833
0
-0.1469343
0
-0.1716097
-1.3586963e-14
-0.19731498
-1.3078237e-14
-0.22457007
1.2605478e-14
-0.25252759
-1.2142641e-14
-0.28100993
0
-0.31105984
0
-0.34329315
0
-0.3769784
0
-0.41132746
0
-0.44643645
0
-0.48257417
0
-0.5201451
5.87246e-18
-0.56007856
0
-0.60321816
0
-0.64937347
0
-0.69932793
3.1228951e-14
-0.75463317
-9.5128891e-15
-0.011066378
0
-0.024172203
0
-0.039455498
8.5003858e-15
-0.056238289
0
-0.074552928
0
-0.0934863
1.5207995e-14
-0.11497375
0
-0.13825565
0
-0.16157084
0
-0.18585117
1.308727e-14
-0.21174992
1.2605358e-14
-0.23836138
0
-0.2653436
1.169075e-14
-0.29364307
0
-0.32398483
2.1718296e-14
-0.3559824
9.7300695e-18
-0.38895236
0
-0.42270141
0
-0.45725564
6.8651585e-18
-0.49281448
0
-0.52977921
1.7419395e-14
-0.56917907
-1.6794954e-14
-0.61180341
3.2385828e-14
-0.65758348
0
-0.70741137
3.0101545e-14
-0.76275021
9.5133127e-15
-0.010323143
9.159801e-15
-0.022630766
-8.8317704e-15
-0.037064056
0
-0.052850043
8.1887853e-15
-0.070043524
0
-0.087736543
0
-0.10795001
1.1970356e-17
-0.13000989
-2.8206202e-14
-0.15202459
-1.3588344e-14
-0.17493472
-1.3078796e-14
-0.19952276
0
-0.224826
-1.2134647e-14
-0.25037117
1.1695907e-14
-0.2770567
-5.8893374e-18
-0.30560688
0
-0.33582152
0
-0.36724262
2.0165177e-14
-0.39966857
0
-0.43297799
-1.8727696e-14
-0.46708578
0
-0.5020895
0
-0.53848683
4.7903829e-18
-0.57736473
-1.6191945e-14
-0.61956487
0
-0.66499328
0
-0.71478234
2.9015302e-14
-0.7702202
9.507159e-15
-0.009630637
6.8823808e-18
-0.021180607
-7.2316896e-18
-0.034799863
8.5015421e-15
-0.049639246
0
-0.065767792
-5.9107688e-18
-0.082298056
0
-0.10129665
0
-0.12217652
0
-0.14295219
1.358905e-14
-0.16455293
0
-0.18787938
0
-0.21191183
0
-0.23606538
0
-0.26123665
0
-0.28814387
0
-0.31662944
0
-0.34637483
2.0150317e-14
-0.37734314
0
-0.40943226
0
-0.44238303
1.8053496e-14
-0.47600486
-1.7399657e-14
-0.51046742
-4.920494e-18
-0.54633844
4.3185696e-18
-0.58477101
-3.1201669e-14
-0.6265236
-3.0082034e-14
-0.67167663
0
-0.7214597
5.9411865e-18
-0.77701903
-9.513961e-15
-0.0089882143
-9.1605936e-15
-0.019819475
7.2928308e-18
-0.032659346
0
-0.046597443
0
-0.061715363
0
-0.077158676
0
-0.094999169
0
-0.114739
0
-0.13433636
1.3589748e-14
-0.15468576
1.3088704e-14
-0.17680172
1.2597384e-14
-0.19961175
0
-0.22240872
0
-0.2461341
0
-0.27153356
-1.0847639e-14
-0.29842506
0
-0.32652755
0
-0.35595445
1.9422756e-14
-0.38665437
7.300862e-18
-0.41838885
0
-0.45093951
-1.739179e-14
-0.48409098
1.6774104e-14
-0.51802773
0
-0.55341524
1.5596373e-14
-0.59140338
-1.5035781e-14
-0.63279152
-2.8996834e-14
-0.677672
0
-0.72752577
-2.6954279e-14
-0.78324387
0
-0.0083892622
0
-0.018544385
0
-0.030636957
7.0051006e-18
-0.043719783
-8.1969248e-15
-0.05787665
7.8901087e-15
-0.072307061
7.6060879e-15
-0.089046444
-7.3258844e-15
-0.10768469
1.4110647e-14
-0.12615919
0
-0.14531548
-1.3080045e-14
-0.1662703
1.2605758e-14
-0.18790557
1.2133722e-14
-0.20938991
1.16936e-14
-0.23172528
0
-0.2557136
1.0851517e-14
-0.28114482
1.0454798e-14
-0.30770775
0
-0.33556144
0
-0.36482499
1.8713736e-14
-0.39523633
0
-0.42660855
0
-0.45876112
-1.6766081e-14
-0.49141629
0
-0.52485261
0
-0.55977899
3.4774219e-18
-0.59737435
0
-0.6383691
-2.7951065e-14
-0.68304326
0
-0.73298611
0
-0.78889656
-3.8425617e-05
-0.0091850506
0
-0.017348336
0
-0.028726613
-1.7012561e-14
-0.040999206
6.6488988e-18
-0.054243924
-5.8159226e-18
-0.067731425
0
-0.083428652
0
-0.10100183
-1.4106154e-14
-0.11840636
0
-0.13642351
0
-0.15626607
0
-0.1767782
1.2140317e-14
-0.19699591
1.1687168e-14
-0.21798984
0
-0.24064585
1.0844702e-14
-0.2647208
1.04529e-14
-0.28984974
0
-0.31619292
-9.7050601e-15
-0.34400908
0
-0.37308663
0
-0.40313671
0
-0.43415906
-1.6752247e-14
-0.46590132
0
-0.49807371
0
-0.53100357
0
-0.56547477
3.1090308e-18
-0.60268629
2.794111e-14
-0.64336057
0
-0.68782757
0
-0.7379326
2.5050324e-14
-0.79404811
-6.4531762e-05
-0.0091486083
-0.00011389655
-0.018880931
0
-0.026917631
0
-0.038429168
0
-0.05080978
7.9024082e-15
-0.063423771
-7.6067753e-15
-0.078135298
0
-0.094682533
0
-0.11106655
-4.6353006e-18
-0.12799439
0
-0.14677184
0
-0.1662108
-1.2133584e-14
-0.18521382
0
-0.20491587
0
-0.22630403
0
-0.24910103
1.0451223e-14
-0.27289241
1.0069098e-14
-0.29782798
4.21933e-18
-0.32416663
0
-0.35187604
0
-0.380676
0
-0.41042224
-1.6743533e-14
-0.44113015
0
-0.47245348
0
-0.50409494
-1.5013805e-14
-0.5365112
-1.4482811e-14
-0.57056487
0
-0.60743909
-2.3996011e-18
-0.64776871
4.1888741e-18
-0.69209503
-2.5046221e-14
-0.74236793
0
-0.79870663
-7.9752855e-05
-0.0091133116
-0.00019154523
-0.018892261
-0.00018931266
-0.029107486
0
-0.035995533
0
-0.047567066
0
-0.059372335
-7.6008792e-15
-0.073158263
-6.2762739e-18
-0.088717017
-1.4107328e-14
-0.10412839
6.7961173e-15
-0.12000868
6.5407319e-15
-0.13776871
0
-0.15618613
1.2133619e-14
-0.17402889
0
-0.19248846
0
-0.21266734
0
-0.23425598
-1.0444775e-14
-0.25677247
0
-0.28038004
4.2330466e-18
-0.30529998
-9.3427929e-15
-0.3315764
0
-0.35913082
0
-0.38771465
0
-0.41721146
0
-0.44758043
0
-0.4784244
0
-0.50951776
3.3282572e-18
-0.54143671
-1.3959987e-14
-0.57508686
2.4535766e-18
-0.6116354
2.1455101e-18
-0.65168922
-2.5036124e-14
-0.69588594
0
-0.74637544
0
-0.80292422
-8.5510945e-05
-0.0090827214
-0.00023701636
-0.018898903
-0.00031884174
-0.029240082
-0.00025952047
-0.03861016
0
-0.044496309
0
-0.055565482
0
-0.068484178
-7.3208908e-15
-0.083093782
7.0512844e-15
-0.097577341
0
-0.11245114
-6.5361714e-15
-0.12923292
0
-0.1466836
0
-0.16342288
0
-0.18069405
-1.1255733e-14
-0.19971884
0
-0.2201591
0
-0.24145222
-1.0060756e-14
-0.26379811
9.6972672e-15
-0.28739115
9.3437737e-15
-0.31224206
0
-0.33841811
0
-0.36587374
0
-0.39431514
0
-0.42355237
1.5554459e-14
-0.4535357
0
-0.48385573
0
-0.51438773
2.9655218e-18
-0.54581708
0
-0.57909553
2.1523877e-18
-0.61535159
-1.8708749e-18
-0.65513552
0
-0.69926083
0
-0.74995007
0
-0.80672875
-8.3223344e-05
-0.0090568061
-0.00025439261
-0.018904944
-0.00039503384
-0.029351294
-0.00043722656
-0.038860737
-0.00031973034
-0.04731853
0
-0.051979715
0
-0.064098934
0
-0.077800703
5.25866e-18
-0.091398076
-6.7965988e-15
-0.10530736
1.3087205e-14
-0.12114765
0
-0.13768398
-3.2217653e-18
-0.15337937
0
-0.16951543
0
-0.18744068
0
-0.20679019
0
-0.22690586
-4.5567499e-18
-0.2480367
9.6951962e-15
-0.27038353
0
-0.29388587
3.5879507e-18
-0.31861388
0
-0.34476845
-8.3618741e-15
-0.37222994
0
-0.40052042
0
-0.42946758
1.4990227e-14
-0.45900466
0
-0.48877702
0
-0.51875077
0
-0.54970095
-1.2971092e-14
-0.58260299
1.8887585e-18
-0.61860236
-1.2064524e-14
-0.65818439
0
-0.70224523
0
-0.75317145
0
-0.81014816
-7.4290457e-05
-0.0090355202
-0.00024780076
-0.018910487
-0.00042445156
-0.02944805
-0.00054174724
-0.03907118
-0.00053816577
-0.047687187
-0.00036933126
-0.054897168
0
-0.05997589
0
-0.072823463
0
-0.085574973
6.7967994e-15
-0.098567143
6.5413938e-15
-0.11350009
6.2993963e-15
-0.1291694
6.0701644e-15
-0.14388024
-5.845841e-15
-0.15893755
0
-0.17581588
0
-0.19412958
0
-0.21311038
0
-0.23306707
0
-0.25422702
-9.3348194e-15
-0.27646615
0
-0.29979866
0
-0.32450677
0
-0.35079214
0
-0.37826752
0
-0.40636985
0
-0.43495919
0
-0.4640271
0
-0.493228
0
-0.52263082
0
-0.55309475
0
-0.58567011
-1.2057693e-14
-0.62144082
0
-0.6608338
0
-0.7048896
0
-0.75602663
0
-0.81321344
-6.011687e-05
-0.009018907
-0.00022136187
-0.01891525
-0.00041382838
-0.029530406
-0.00058212389
-0.039251504
-0.00066629028
-0.047991965
-0.00062151927
-0.055483956
-0.00041333973
-0.062909793
0
-0.068125428
0
-0.080090018
0
-0.092213315
4.8956733e-18
-0.10628042
-4.5481131e-18
-0.12112262
-6.0702007e-15
-0.13490791
0
-0.14894331
1.1257567e-14
-0.16482473
0
-0.18215686
0
-0.2000463
0
-0.21886535
-9.6874337e-15
-0.23888625
9.332697e-15
-0.25993386
3.5510197e-18
-0.28196667
-8.6678792e-15
-0.30524586
0
-0.33014225
3.0818519e-18
-0.35658283
7.7602966e-15
-0.38399792
0
-0.41185439
0
-0.44006392
1.3924126e-14
-0.46861139
0
-0.49722135
0
-0.52604288
1.2496136e-14
-0.55605474
1.205144e-14
-0.5883043
1.3913696e-18
-0.62387225
1.1210683e-14
-0.66314953
0
-0.70721011
-2.0843242e-14
-0.75858404
0
-0.8159416
-4.2087528e-05
-0.0090070712
-0.00017922258
-0.018919171
-0.00036993186
-0.029598667
-0.00056749879
-0.039401543
-0.00071535503
-0.048249516
-0.00076931908
-0.055984119
-0.00069589073
-0.063734447
-0.00045592088
-0.070952095
0
-0.074902836
0
-0.086229036
0
-0.099471224
0
-0.11352543
-3.1330834e-18
-0.12644141
0
-0.1395155
2.8485626e-18
-0.1544482
-5.4224838e-15
-0.17084821
0
-0.18769029
-2.0115657e-14
-0.20541224
9.6903415e-15
-0.22433622
0
-0.24424304
-8.9929992e-15
-0.26506196
0
-0.28701156
-8.3500765e-15
-0.31045796
3.0975899e-18
-0.33560495
0
-0.3621357
0
-0.38941973
0
-0.41700511
-1.3909621e-14
-0.44478318
3.5696802e-18
-0.47278711
0
-0.50077209
0
-0.52903083
0
-0.55859789
0
-0.59055469
1.1623444e-18
-0.62594777
0
-0.66513528
-2.0838847e-14
-0.70925635
0
-0.76082378
1.9372087e-14
-0.81837497
-2.1589721e-05
-0.0090001201
-0.00012551704
-0.018922543
-0.00029965393
-0.02965212
-0.00050726609
-0.039521559
-0.00069684499
-0.048461049
-0.00082581625
-0.056414089
-0.00086167003
-0.064450729
-0.0007674778
-0.072017432
-0.00049063834
-0.077483536
0
-0.080584174
0
-0.093054848
0
-0.10635846
3.1109803e-18
-0.11846012
-2.445515e-18
-0.13063389
0
-0.14466528
-2.9912348e-18
-0.16017825
-5.2221358e-15
-0.17601891
0
-0.19268593
0
-0.21055506
3.9869325e-18
-0.22936502
8.9873143e-15
-0.24902737
0
-0.26974679
-8.3435871e-15
-0.29183793
-3.1170962e-18
-0.31559528
7.754103e-15
-0.34093355
-7.4756369e-15
-0.36742365
-7.2083551e-15
-0.39455309
0
-0.42181694
0
-0.44913398
0
-0.47654463
0
-0.5039174
0
-0.53161843
0
-0.5607705
0
-0.59243093
9.7246891e-19
-0.62768905
0
-0.66686397
0
-0.71102827
0
-0.76280976
0
-0.8205143
-0.0089979079
0
-6.4398697e-05
-0.018925796
-0.00020992603
-0.02969041
-0.00041081841
-0.03961146
-0.00062241597
-0.048625768
-0.00080430843
-0.056773358
-0.00092531039
-0.065070319
-0.00095025168
-0.072937271
-0.00082569446
-0.078810807
-0.00051406672
-0.082791793
0
-0.087005754
0
-0.099599544
0
-0.11094405
5.8456761e-15
-0.12228267
-5.6299577e-15
-0.13545599
0
-0.15012176
-5.2193936e-15
-0.16500526
5.0269619e-15
-0.18066193
0
-0.19752249
0
-0.21527641
3.5205404e-18
-0.23382435
0
-0.25339104
8.3405374e-15
-0.27424855
0
-0.29664149
0
-0.32063536
-7.4679769e-15
-0.3460318
7.2033184e-15
-0.37246226
6.94399e-15
-0.3993875
0
-0.42630392
0
-0.45311157
1.2469008e-14
-0.4799328
0
-0.50667384
0
-0.53384009
0
-0.56258169
-1.0797324e-14
-0.59399325
8.0865407e-19
-0.62916933
0
-0.66832887
-1.9363953e-14
-0.71257562
0
-0.76451992
0
-0.82240019
-0.018929367
0
-0.0090001374
2.160042e-05
-0.00010771289
-0.029713688
-0.00028773996
-0.039670996
-0.00050372881
-0.048743523
-0.00071825127
-0.057060983
-0.00090148982
-0.065590727
-0.0010202811
-0.073730696
-0.0010220031
-0.079949993
-0.0008649911
-0.084374215
-0.00053417449
-0.088863231
0
-0.093193177
0
-0.1038695
0
-0.11443636
2.8551314e-18
-0.12679642
5.4190123e-15
-0.14065338
0
-0.15462408
2.2206258e-18
-0.16931531
4.8413831e-15
-0.18521383
0
-0.20195553
0
-0.21942713
3.2068256e-18
-0.23788832
0
-0.25759931
0
-0.27872714
3.0545571e-18
-0.30136411
0
-0.32550191
2.8116241e-18
-0.35092293
6.9412113e-15
-0.37725119
-2.3432131e-18
-0.40395225
0
-0.43046813
0
-0.45675163
-1.2016796e-14
-0.4829481
0
-0.50907297
0
-0.5357076
1.0791266e-14
-0.56408675
0
-0.59529342
6.8136419e-19
-0.63040801
9.6801055e-15
-0.66960679
0
-0.71387941
0
-0.76600728
0
-0.8240283
-0.02972233
0
-0.018933994
6.4430319e-05
-0.0090071032
4.2131972e-05
-0.00014759114
-0.039700307
-0.00035258977
-0.048815454
-0.00058117493
-0.057274795
-0.00080522884
-0.066010391
-0.00099385412
-0.074395097
-0.001096918
-0.080924709
-0.0010704185
-0.08573486
-0.0008989407
-0.09076715
-0.00055410075
-0.094664151
0
-0.097168852
0
-0.10706992
0
-0.11865818
3.1509373e-18
-0.13173944
-5.221502e-15
-0.14484876
5.02637e-15
-0.15862183
-4.8409855e-15
-0.17360469
4.6647575e-15
-0.18937837
0
-0.20581285
0
-0.22320702
8.338447e-15
-0.2418335
0
-0.26180042
0
-0.28314584
0
-0.30595355
-1.438412e-14
-0.33022322
6.9360676e-15
-0.3556509
0
-0.38183007
6.4495992e-15
-0.40823914
0
-0.43433072
0
-0.46005828
1.1584076e-14
-0.48563191
0
-0.51112159
-1.0783108e-14
-0.53727019
-1.0402155e-14
-0.56533242
1.0033337e-14
-0.59638575
0
-0.63147861
0
-0.67066797
1.7994286e-14
-0.71498605
0
-0.76725167
1.6724597e-14
-0.82544519
-0.039699194
0
-0.029718843
0.00010771802
-0.018940827
0.00012565327
-0.0090195606
6.022007e-05
-0.0001807561
-0.04884291
-0.00040670817
-0.057414495
-0.00065167138
-0.066327267
-0.00088764069
-0.074928739
-0.001068152
-0.081734721
-0.0011485321
-0.086895919
-0.0011124802
-0.092424621
-0.00093282127
-0.096930841
-0.00056459903
-0.098121204
0
-0.10012484
0
-0.11101312
5.4187715e-15
-0.12335101
2.4747638e-18
-0.13565228
-2.1837897e-18
-0.14855593
-4.842895e-15
-0.16266727
-4.66229e-15
-0.17751989
4.4905471e-15
-0.19295788
0
-0.20932321
0
-0.22690938
0
-0.24579484
0
-0.26594822
-2.9620893e-18
-0.28743491
0
-0.31045886
-6.9281507e-15
-0.33485965
-6.6809965e-15
-0.36020571
0
-0.38618717
-6.218334e-15
-0.41226818
1.1998362e-14
-0.43788773
0
-0.46305301
1.116938e-14
-0.48797418
0
-0.51286678
0
-0.53856048
1.0028769e-14
-0.56636787
-5.7212053e-19
-0.59731695
5.0632899e-19
-0.63238604
0
-0.67159098
0
-0.71588899
-1.6722723e-14
-0.76831061
0
-0.82663573
-0.048825418
0
-0.039673041
0.00014746531
-0.029702698
0.0002099514
-0.018950635
0.00017954875
-0.009037758
7.4473413e-05
-0.00020845512
-0.057480911
-0.00045610242
-0.066539756
-0.00071829086
-0.075331117
-0.0009536347
-0.082381379
-0.0011180617
-0.087858513
-0.0011938073
-0.093846972
-0.0011547957
-0.098902815
-0.00095058209
-0.10067342
-0.00056416789
-0.10052965
5.6298625e-15
-0.10381476
0
-0.11545556
0
-0.12700724
2.1673136e-18
-0.13909096
-2.2707295e-18
-0.15237438
4.6639544e-15
-0.16635019
0
-0.1808355
-1.5652857e-18
-0.19621044
0
-0.21279757
8.028928e-15
-0.23065728
3.11876e-18
-0.24971153
0
-0.26994944
0
-0.29164067
0
-0.31492496
-6.6755792e-15
-0.33939277
-6.4381838e-15
-0.36461093
0
-0.390327
5.9916442e-15
-0.41601494
0
-0.44115491
0
-0.46573719
1.0767605e-14
-0.49002742
0
-0.51432775
0
-0.53962261
0
-0.5672391
-9.3246797e-15
-0.59813017
4.6381281e-19
-0.63320899
-8.6707761e-15
-0.67235956
-1.6719269e-14
-0.7166371
0
-0.76916591
8.258793e-19
-0.827641
-0.057473309
0
-0.048773094
0.00018043593
-0.03962024
0.00028723143
-0.029671203
0.00029972835
-0.018963823
0.00022196502
-0.009061771
8.3501838e-05
-0.00023377819
-0.066647829
-0.00050268372
-0.075602429
-0.0007714758
-0.0828671
-0.00099793748
-0.08862673
-0.0011621394
-0.095033831
-0.0012395921
-0.10060769
-0.0011771283
-0.10290118
-0.00095006492
-0.10336715
-0.00056235461
-0.10368304
0
-0.10799601
0
-0.11888676
0
-0.13020253
2.2841091e-18
-0.14269065
-2.0559945e-18
-0.15583899
0
-0.16941712
0
-0.18384141
-1.5764699e-18
-0.19946747
0
-0.21634745
0
-0.23437544
2.971095e-18
-0.25345876
7.1804615e-15
-0.27384156
6.9185095e-15
-0.29587742
0
-0.31940017
6.4325559e-15
-0.34383254
6.2070587e-15
-0.36883704
5.9879059e-15
-0.3942266
-5.7772759e-15
-0.41949457
0
-0.44413569
0
-0.4681443
1.0380514e-14
-0.49179605
0
-0.51554731
9.6622932e-15
-0.54049628
-9.3197682e-15
-0.56798795
-4.6177401e-19
-0.59887854
-1.7335858e-14
-0.63394831
8.3582228e-15
-0.67302934
1.611688e-14
-0.71720889
0
-0.76986069
0
-0.82844009
-0.066650829
0
-0.057405697
0.00020798506
-0.048686709
0.00035133388
-0.039534375
0.00040970082
-0.029624759
0.00037010494
-0.018979834
0.00024873571
-0.0090918558
8.5886462e-05
-0.00025764095
-0.075744353
-0.00053977188
-0.083195034
-0.00080708928
-0.089203081
-0.0010372677
-0.095985919
-0.001207085
-0.10204152
-0.0012640032
-0.10484305
-0.0011768917
-0.10586627
-0.00094745001
-0.10684655
-0.00056320436
-0.10730264
0
-0.11121959
-5.0256303e-15
-0.12186938
0
-0.13359167
4.6633784e-15
-0.1459489
-8.9816799e-15
-0.15867256
-4.3233714e-15
-0.17218846
-8.329537e-15
-0.18689002
4.0107949e-15
-0.20283035
0
-0.21988657
0
-0.23790315
7.1767648e-15
-0.25706657
0
-0.27778322
0
-0.3001714
-6.4270754e-15
-0.32381569
0
-0.34812673
5.9821738e-15
-0.3728597
5.7715635e-15
-0.39787159
0
-0.42269945
0
-0.4468501
0
-0.47028722
-1.0006102e-14
-0.49332433
0
-0.51654928
0
-0.54122461
-8.984561e-15
-0.56866275
0
-0.5995881
8.3560483e-15
-0.63463772
-8.0565409e-15
-0.67355934
1.5535428e-14
-0.71764395
0
-0.77037795
5.060394e-19
-0.82907561
-0.075757565
0
-0.06657029
0.0002332205
-0.057277519
0.00040487532
-0.048557175
0.00050102939
-0.039416411
0.00050539151
-0.029564158
0.0004141493
-0.019000279
0.00025570332
-0.0091287132
8.0210037e-05
-0.00027661911
-0.083368909
-0.00056458268
-0.089591473
-0.000838854
-0.096703001
-0.001077735
-0.1032011
-0.0012313643
-0.10649186
-0.0012641391
-0.10805929
-0.0011740847
-0.109652
-0.0009492532
-0.11078456
-0.00056210535
-0.1099334
0
-0.11401467
4.8420286e-15
-0.12505267
4.6610745e-15
-0.13665228
1.6518979e-18
-0.14857044
0
-0.16122473
-4.1649017e-15
-0.17503765
4.0099433e-15
-0.19007222
0
-0.20620314
0
-0.2232168
0
-0.24124886
-6.9102315e-15
-0.26069051
-6.6607148e-15
-0.28180089
-3.0141625e-18
-0.30446768
0
-0.32812817
0
-0.35223746
-5.7635218e-15
-0.37664514
0
-0.4012658
-5.3685077e-15
-0.42564209
0
-0.4493055
0
-0.47219112
-9.6468603e-15
-0.49461743
0
-0.51737882
0
-0.54184952
0
-0.56928869
-8.3533885e-15
-0.60026424
1.6109838e-14
-0.63525707
-7.7660346e-15
-0.67399466
-1.4974562e-14
-0.71793677
0
-0.77076057
0
-0.82952204
-0.083391526
0
-0.075673332
0.0002570451
-0.066406278
0.00045392164
-0.057074617
0.00057725115
-0.048386529
0.00061797704
-0.039266797
0.00056484904
-0.02948888
0.00042496852
-0.01902763
0.00023865148
-0.0091729769
6.5006517e-05
-0.00028927504
-0.089794905
-0.00058674555
-0.097185082
-0.00087176555
-0.10408342
-0.0010997043
-0.10784044
-0.0012319519
-0.10993444
-0.0012616545
-0.11211115
-0.001176491
-0.11386458
-0.00094709383
-0.11367653
-0.00055670946
-0.11212651
0
-0.11699118
0
-0.12791908
4.4885455e-15
-0.13907969
-8.6449372e-15
-0.15092021
4.1627586e-15
-0.16388357
1.6716309e-18
-0.17804443
3.8632146e-15
-0.1932873
0
-0.20935068
0
-0.22632642
0
-0.24458483
0
-0.26440659
6.416859e-15
-0.28586338
6.1876174e-15
-0.30868071
0
-0.3322659
-5.7575129e-15
-0.35613004
5.5575273e-15
-0.38020107
0
-0.40439689
0
-0.42832222
0
-0.4515221
0
-0.47386817
9.3016721e-15
-0.49572301
0
-0.51806769
0
-0.54239802
8.3500885e-15
-0.56986449
0
-0.60091533
3.6423432e-19
-0.63580969
-2.134119e-19
-0.67431095
0
-0.71812434
0
-0.77098983
1.3412841e-14
-0.82981692
-0.089817062
0
-0.08330257
0.00027601744
-0.075494601
0.00050037814
-0.066139073
0.00064700217
-0.056799262
0.00071182315
-0.048174572
0.00069065627
-0.03908243
0.00057875237
-0.029399948
0.00039576909
-0.019060817
0.00019325377
-0.0092237146
3.8773624e-05
-0.00030057684
-0.097433493
-0.00060982125
-0.1046856
-0.000889849
-0.10888303
-0.0011007588
-0.11148343
-0.0012300359
-0.11421503
-0.0012644236
-0.11655738
-0.0011737699
-0.11697713
-0.00093786377
-0.11611999
-0.00055041023
-0.11449446
0
-0.11966344
0
-0.13016941
4.3221014e-15
-0.14124468
8.3276666e-15
-0.15339826
-1.682958e-18
-0.1667187
-3.8623824e-15
-0.18110867
-3.7186656e-15
-0.19626507
-1.3948909e-18
-0.21224231
0
-0.22940368
6.6525097e-15
-0.24800358
-6.4122982e-15
-0.26815011
0
-0.28983228
-2.8310098e-18
-0.31272395
0
-0.33618986
0
-0.35980281
5.3571111e-15
-0.38350754
0
-0.40727495
0
-0.4307566
0
-0.45351419
9.2922512e-15
-0.4753491
8.9677584e-15
-0.49665934
8.651511e-15
-0.51864785
-8.345715e-15
-0.54286833
0
-0.57040183
-3.5764805e-19
-0.601499
3.2656777e-19
-0.63627659
7.2158606e-15
-0.67454105
3.1374765e-20
-0.71818497
0
-0.77110868
0
-0.82992927
-0.097450213
0
-0.089705515
0.00028860587
-0.083105738
0.00053746679
-0.075196145
0.0007134306
-0.065770988
0.00079755687
-0.056452435
0.00079538033
-0.04792239
0.0007077431
-0.038863028
0.00053799764
-0.02929441
0.00031963096
-0.019095354
0.00011514073
-0.0092771917
0
-0.0003124021
-0.10500775
-0.00062265726
-0.10961565
-0.00089109856
-0.1126977
-0.0010994626
-0.11595666
-0.001232827
-0.11885629
-0.0012612716
-0.1198694
-0.0011621044
-0.11964563
-0.00092721637
-0.11876884
-0.00054369998
-0.11655509
0
-0.1217528
0
-0.13216846
0
-0.14355293
-4.0079848e-15
-0.15607072
3.8599122e-15
-0.16963668
7.436937e-15
-0.18392546
0
-0.1989542
0
-0.21508691
0
-0.23255429
0
-0.25142939
-6.177583e-15
-0.27179157
0
-0.29365413
0
-0.31658923
-5.5433364e-15
-0.33991743
0
-0.3632463
1.8399013e-18
-0.38657054
0
-0.40989688
-1.1707342e-18
-0.43295915
0
-0.45530113
0
-0.47665536
0
-0.49746002
0
-0.51912238
-8.0459042e-15
-0.54327662
0
-0.57085949
0
-0.60201923
7.2146697e-15
-0.63665102
-6.9555333e-15
-0.67464158
-1.3410547e-14
-0.71816556
0
-0.77109367
-1.2460218e-14
-0.82986682
-0.10504893
0
-0.097290644
0.00029970743
-0.089463279
0.00056201192
-0.082768507
0.00076667991
-0.074780914
0.00087978154
-0.065305334
0.00089083771
-0.056033869
0.0008149261
-0.047630559
0.00065803863
-0.03860771
0.0004335969
-0.029171411
0.00018989486
-0.019119964
0
-0.0084900762
0
-0.00031906503
-0.11003668
-0.0006238226
-0.11357181
-0.00089037768
-0.11732913
-0.0011019954
-0.12075486
-0.0012296447
-0.12234222
-0.0012486886
-0.12274262
-0.0011488649
-0.12254502
-0.00091585096
-0.12110137
-0.00053460495
-0.11804016
0
-0.12360572
0
-0.13431605
0
-0.14606764
-3.8574824e-15
-0.15884552
-3.718401e-15
-0.17230039
1.3775315e-18
-0.18642438
3.45019e-15
-0.20158718
-3.3256514e-15
-0.2180045
0
-0.23570234
0
-0.25474566
0
-0.27531048
0
-0.29733805
0
-0.32027802
0
-0.34343101
0
-0.36645783
1.6995369e-18
-0.38938476
0
-0.41229102
4.6368031e-15
-0.43494214
0
-0.45690252
0
-0.47780876
8.3355178e-15
-0.49812851
0
-0.51951528
0
-0.54360215
-7.4803941e-15
-0.5712508
0
-0.60242907
0
-0.63691832
-6.704314e-15
-0.67466547
-1.2926018e-14
-0.71805533
0
-0.77091799
-0.0075466065
-0.82206141
-0.11014436
0
-0.10487314
0.00031136829
-0.096958791
0.0005833918
-0.089049715
0.00080172174
-0.082293773
0.00094601951
-0.074252577
0.00098317549
-0.064743284
0.00091224679
-0.055548032
0.00075763519
-0.047300291
0.00053054992
-0.038318135
0.00025700885
-0.029021946
0
-0.017592985
0
-0.009115049
9.5047895e-15
-0.00031981247
-0.11410131
-0.00062355359
-0.11832523
-0.00089249162
-0.12224581
-0.001099021
-0.12438449
-0.0012173048
-0.12539543
-0.0012344755
-0.12585957
-0.0011347542
-0.12511666
-0.0009006023
-0.12282899
-0.00052384917
-0.11929989
0
-0.12560356
0
-0.13667616
0
-0.14869849
1.5944042e-18
-0.16135812
-1.3678146e-18
-0.17462062
3.4489855e-15
-0.18886384
6.644148e-15
-0.20429759
-3.2017432e-15
-0.2209142
0
-0.23873241
0
-0.25793299
2.67833e-18
-0.27872266
5.5317163e-15
-0.30089943
0
-0.32378709
-5.1502556e-15
-0.34673714
-1.910079e-18
-0.36944168
-4.7981702e-15
-0.39197906
0
-0.41445508
0
-0.43672628
0
-0.45834062
0
-0.47882273
5.9101482e-19
-0.49869472
0
-0.51982501
0
-0.54386364
-7.2108297e-15
-0.57151882
-1.8728332e-19
-0.60275523
-6.7031712e-15
-0.63707192
0
-0.67458418
-2.5198683e-19
-0.71781149
-0.014471255
-0.76354977
-0.0068703472
-0.81479146
-0.11428257
0
-0.11000794
0.00031813973
-0.10448524
0.00060583373
-0.096409713
0.00083182294
-0.088464262
0.00098935899
-0.081682013
0.001058004
-0.073614335
0.0010075121
-0.06408977
0.00084764318
-0.054995922