/*--------------------------------*- C++ -*----------------------------------*\
| =========                 |                                                 |
| \\      /  F ield         | OpenFOAM: The Open Source CFD Toolbox           |
|  \\    /   O peration     | Version:  v2012                                 |
|   \\  /    A nd           | Website:  www.openfoam.com                      |
|    \\/     M anipulation  |                                                 |
\*---------------------------------------------------------------------------*/
FoamFile
{
    version     2.0;
    format      ascii;
    class       volScalarField;
    location    "55.9286885804231488";
    object      p;
}
// * * * * * * * * * * * * * * * * * * * * * * * * * * * * * * * * * * * * * //

dimensions      [0 2 -2 0 0 0 0];


internalField   nonuniform List<scalar> 
9200
(
0.034558138
0.03662025
0.090828043
0.039609744
0.096113733
0.15070621
0.044159917
0.10365689
0.15893821
0.20027635
0.049501848
0.1153397
0.17120004
0.21036251
0.24106639
0.054965886
0.12972923
0.18999228
0.22567882
0.25204514
0.27292973
0.058680794
0.14622888
0.21368981
0.24898305
0.26887644
0.28404131
0.29690767
0.057373114
0.16257573
0.24209464
0.27863166
0.29417462
0.30113302
0.30761099
0.31414829
0.045222683
0.17464572
0.27355956
0.31478324
0.32616137
0.32649412
0.32407064
0.32410913
0.32583783
0.016511091
0.17507231
0.30579642
0.35661074
0.36488862
0.35819946
0.34816528
0.33939372
0.33488208
0.33306869
-0.040420686
0.14739652
0.33456087
0.40324026
0.40955555
0.39603256
0.37786499
0.36147279
0.34871484
0.34113389
0.33678227
-0.11447532
0.057908088
0.34815731
0.45223455
0.45941954
0.43899883
0.41266496
0.38829142
0.36844253
0.3534256
0.34387923
0.33776615
-0.2024579
-0.055729863
0.34078711
0.4987994
0.5128454
0.48613318
0.45134922
0.41912114
0.39206424
0.37074526
0.35465909
0.34394597
0.33665212
-0.28421189
-0.16914906
0.31771478
0.5390467
0.56745583
0.53585183
0.49271325
0.4526223
0.41871345
0.39120823
0.36967817
0.35330952
0.34199171
0.33394914
-0.34515406
-0.26972149
0.28578427
0.56855767
0.62096204
0.58618085
0.53511139
0.48748883
0.44703687
0.41389052
0.38721181
0.36622032
0.3500656
0.33853235
0.33007908
-0.37413161
-0.34862129
0.24938431
0.5837178
0.66890653
0.63475173
0.5766199
0.52212045
0.47574788
0.43750575
0.4063361
0.38113734
0.36109258
0.34545383
0.33396746
0.32535181
-0.36598151
-0.39889869
0.2014834
0.57474627
0.7028211
0.67776035
0.61495182
0.55476706
0.50339095
0.46086127
0.42588057
0.39717541
0.37372546
0.35482192
0.3398721
0.32861178
0.31995607
-0.32398963
-0.41652554
0.1384941
0.53228678
0.71195733
0.70920661
0.64728331
0.58347932
0.52849781
0.48270058
0.44478874
0.41330621
0.38714143
0.36548499
0.3477899
0.33361778
0.32272258
0.31417664
-0.2598428
-0.41155529
0.058949899
0.45079115
0.68663325
0.72180097
0.67018678
0.60621749
0.54958978
0.50184818
0.46201368
0.42862211
0.40045466
0.37669349
0.35675818
0.34026944
0.3269189
0.31647185
0.30819229
-0.18742606
-0.40131513
-0.042960314
0.32910131
0.62136019
0.709504
0.68005886
0.62104902
0.56530553
0.51723639
0.47661311
0.44227416
0.41288358
0.38768803
0.36610966
0.34777585
0.33246172
0.3199591
0.30998368
0.30204595
-0.11604345
-0.39827021
-0.16757946
0.16982859
0.51568861
0.66923173
0.6739917
0.62639426
0.57450368
0.52799871
0.48772074
0.45353815
0.42377707
0.39779624
0.37521163
0.35557388
0.3387211
0.32450669
0.31286099
0.30339751
0.2958571
-0.050299263
-0.40312881
-0.31080739
-0.020355824
0.37318365
0.60169745
0.65064172
0.62131688
0.57638628
0.53375514
0.49457839
0.461874
0.43258424
0.40662723
0.38352486
0.36311237
0.34517012
0.32967919
0.31651838
0.30572227
0.29681303
0.28970513
0.0085136286
-0.41274171
-0.46501447
-0.23310682
0.20356383
0.51124969
0.61339113
0.60609635
0.5709522
0.53379528
0.49968654
0.46706361
0.43893489
0.41359391
0.39067857
0.36998171
0.35142122
0.3349741
0.32072439
0.30857671
0.29862217
0.29030108
0.28365178
0.054243451
-0.42776643
-0.62034203
-0.4593834
0.017691446
0.40316725
0.56074645
0.58174506
0.5586114
0.52830778
0.49816781
0.46928687
0.44271364
0.41855132
0.39632813
0.37586237
0.35710917
0.34012752
0.32500903
0.31190896
0.30074149
0.29162381
0.28391538
0.27774823
0.084916124
-0.44766881
-0.77302668
-0.68381439
-0.17579075
0.28505728
0.49916686
0.55018175
0.54056422
0.51803039
0.49296712
0.46789019
0.4438949
0.42138805
0.40031067
0.38052079
0.36199674
0.34483343
0.32920834
0.31528844
0.30327028
0.29305923
0.28477684
0.27769881
0.27203314
0.10402243
-0.47109885
-0.91582424
-0.8896534
-0.37995665
0.16581867
0.4329103
0.5140441
0.51820921
0.50376915
0.48435759
0.46341262
0.44245679
0.42210804
0.40257199
0.38383773
0.36591665
0.3489247
0.33307569
0.31863625
0.30581898
0.294836
0.28556655
0.27812025
0.27168585
0.26653622
0.11475956
-0.49721689
-1.0379898
-1.0682499
-0.54938262
0.052934603
0.36599301
0.47597191
0.49319564
0.48653068
0.4728997
0.45631057
0.43866276
0.42080867
0.40314546
0.38578962
0.36879141
0.35228267
0.33650222
0.32176042
0.30838373
0.29660427
0.28662775
0.27829292
0.27168479
0.26590364
0.26127977
0.12030132
-0.52645068
-1.1355594
-1.214761
-0.69192162
-0.04587589
0.3017278
0.43832539
0.46716747
0.46738395
0.45928938
0.44706893
0.43285533
0.41768905
0.4021377
0.38642011
0.37061783
0.35486368
0.33941018
0.32460324
0.31082258
0.29842761
0.28764751
0.27866349
0.27126211
0.26549463
0.26037291
0.25627994
0.12069252
-0.55349675
-1.2105345
-1.3266284
-0.80439149
-0.12707837
0.24240965
0.40310872
0.44157484
0.44733275
0.44424477
0.43619186
0.42540094
0.41299789
0.39970576
0.38582605
0.37144541
0.35668196
0.34178402
0.32712176
0.31312324
0.30020991
0.28875043
0.2789527
0.27095855
0.26449355
0.25956848
0.25510903
0.25154781
0.11507509
-0.57100827
-1.2640486
-1.4048402
-0.88642687
-0.19404164
0.18884497
0.37187438
0.41760569
0.42720724
0.42843739
0.42417211
0.41666525
0.40699716
0.39602827
0.38413132
0.37136174
0.35779186
0.34365202
0.32932413
0.31527356
0.30198007
0.28988272
0.27934065
0.27052515
0.26352656
0.25800288
0.25392049
0.25012266
0.24709007
0.10375525
-0.57941296
-1.2961149
-1.4529257
-0.93972184
-0.25167974
0.14874621
0.34566875
0.39598702
0.40762133
0.4124444
0.41145637
0.40699233
0.39993759
0.39127908
0.38146385
0.37046898
0.35827665
0.34507355
0.33124976
0.31730137
0.30375372
0.29111153
0.27981302
0.27019232
0.26237155
0.25637959
0.25180268
0.24856086
0.2454205
0.24290976
0.086416459
-0.57728318
-1.3096486
-1.4755748
-0.96738196
-0.29911253
0.12458664
0.32505707
0.37696908
0.38915938
0.3967453
0.39842916
0.3966895
0.39204479
0.38560763
0.37793538
0.36886585
0.35822889
0.34613023
0.33296032
0.31925393
0.30557595
0.29247874
0.28047312
0.26998282
0.26130442
0.25449985
0.24952844
0.24590261
0.24349634
0.24100575
0.23900683
0.064611571
-0.56311967
-1.3073437
-1.4749212
-0.97352459
-0.33430534
0.10979135
0.30967567
0.36036328
0.37241301
0.38170931
0.38540279
0.38602337
0.38351472
0.37912717
0.37362402
0.36663141
0.35773817
0.34691254
0.33453469
0.32119181
0.30749926
0.29404547
0.28138877
0.27003487
0.26038284
0.25268013
0.24691878
0.2429825
0.24030982
0.23873062
0.23687868
0.23537859
0.038730724
-0.54175525
-1.2826378
-1.4591069
-0.96540134
-0.3579482
0.10095587
0.29857327
0.34548597
0.35779829
0.36754963
0.37260718
0.37520945
0.37451338
0.37191112
0.36856241
0.36380809
0.35687602
0.34751233
0.33606094
0.32318612
0.30957918
0.29586831
0.28263769
0.27044303
0.25977898
0.25101085
0.24432591
0.23963763
0.23674981
0.23502896
0.23426467
0.23303692
0.23202014
0.010673823
-0.51206397
-1.2425811
-1.4093468
-0.9574212
-0.37140558
0.097356645
0.29066178
0.33156614
0.34572676
0.35437917
0.36018484
0.36441388
0.36517508
0.36399057
0.36273275
0.36039352
0.35567961
0.34800869
0.33763095
0.32531441
0.31187327
0.29799565
0.28428147
0.27130366
0.2596157
0.24969737
0.24187048
0.23625083
0.23266571
0.23083681
0.23006249
0.23009707
0.229476
0.22892477
-0.014988459
-0.47633235
-1.1879038
-1.3576171
-0.94147079
-0.38424589
0.096991623
0.2849585
0.32081064
0.33714295
0.34241615
0.34822945
0.35376679
0.35561868
0.35535934
0.35605575
0.35633477
0.35414978
0.34846635
0.33933351
0.32765754
0.31443854
0.30046713
0.28636178
0.2726866
0.26001149
0.24889268
0.23978991
0.23297004
0.22846573
0.22601201
0.22524833
0.22541061
0.22622424
0.22618951
0.22608429
-0.036485943
-0.43842715
-1.1213554
-1.2908061
-0.9138973
-0.3939254
0.095286708
0.27987424
0.31432495
0.33036371
0.33138055
0.33679574
0.34336239
0.34594025
0.34598841
0.3483951
0.35151478
0.35223328
0.3489145
0.34125556
0.33030012
0.31733137
0.3033119
0.28889911
0.27463001
0.26104969
0.24874171
0.23826907
0.23006312
0.22432164
0.22098268
0.21968473
0.2199874
0.22107158
0.22264074
0.22316956
0.22348934
-0.054327768
-0.39936604
-1.0454846
-1.2109177
-0.87589573
-0.38937021
0.088054461
0.27476461
0.31045678
0.32363038
0.32000275
0.32533163
0.33322901
0.33622899
0.33581957
0.33954599
0.34576781
0.34980855
0.34934306
0.34346345
0.33332187
0.3206095
0.30655107
0.29189151
0.27713805
0.2627713
0.24934821
0.23748392
0.22774791
0.22052916
0.21594029
0.21381412
0.21369098
0.21505528
0.2170417
0.21933951
0.22040692
0.2211296
-0.067968922
-0.3598136
-0.96291272
-1.1203351
-0.82682339
-0.37235764
0.084580421
0.2651283
0.30781125
0.31646812
0.30848164
0.31424709
0.3233819
0.32652908
0.32481876
0.32922599
0.33885514
0.34669403
0.34968642
0.34600074
0.33680227
0.32432553
0.31019947
0.29531854
0.28017896
0.26517066
0.25076496
0.23756639
0.22623538
0.21733908
0.21120499
0.20784303
0.2069724
0.2080364
0.21045135
0.21331558
0.21631203
0.21789139
0.21899397
-0.077064531
-0.32085987
-0.87641076
-1.0210599
-0.7688318
-0.34818768
0.083908491
0.25600202
0.30457019
0.30897539
0.29885949
0.30364661
0.31375061
0.31691678
0.31290972
0.3170919
0.33049497
0.34260308
0.3498174
0.34887879
0.34080357
0.32852894
0.31426316
0.29914356
0.28368933
0.26819212
0.25298687
0.23859193
0.22569353
0.21500036
0.20705907
0.20211149
0.20004815
0.20046907
0.20272503
0.20617315
0.20988616
0.21354864
0.21561196
0.21707102
-0.28393371
-0.081249551
-0.78893478
-0.9143012
-0.70580958
-0.32073949
0.084439974
0.24995746
0.30215824
0.30235943
0.28950244
0.29387519
0.30401688
0.30737875
0.30021515
0.3026455
0.32036961
0.33719723
0.34949779
0.35205983
0.34536751
0.33325407
0.31873992
0.30331541
0.2875787
0.27173388
0.25594511
0.24056964
0.22623233
0.2137239
0.20379057
0.19693027
0.19327274
0.19257436
0.19431456
0.19775895
0.20221631
0.20674496
0.21103872
0.21355712
0.21534913
-0.70342542
-0.25254846
-0.08232351
-0.80086669
-0.64227345
-0.29207319
0.085930901
0.24692141
0.29898565
0.29575238
0.28037635
0.28282703
0.29465749
0.29793099
0.28659721
0.28548239
0.30808726
0.33001991
0.34840954
0.35541247
0.35049925
0.33851065
0.32360886
0.3077702
0.29173372
0.27565338
0.25950926
0.24343288
0.22789071
0.21366551
0.20165825
0.19262548
0.18698074
0.184715
0.18544011
0.18851748
0.19313816
0.19857471
0.20388232
0.20877106
0.21171499
0.21381674
-0.68965634
-0.62244859
-0.22704416
-0.086485437
-0.58333506
-0.26423167
0.087627535
0.24348533
0.29293918
0.28850182
0.26976583
0.27177494
0.28427727
0.28865123
0.27265479
0.26446232
0.29335114
0.32042202
0.34604995
0.35874617
0.35614213
0.34426746
0.32882217
0.31242384
0.29602421
0.27977444
0.26349199
0.247038
0.23062329
0.21491053
0.20087344
0.18950588
0.18153288
0.17724329
0.17646593
0.17866263
0.18308429
0.18886049
0.19524067
0.20128773
0.20673382
0.21007338
0.21246378
-0.526377
-0.59290348
-0.54754165
-0.19904772
-0.093222471
-0.2392487
0.087981045
0.23747937
0.2837244
0.2791809
0.25648447
0.25886818
0.27404567
0.27918683
0.25768971
0.23974919
0.27540481
0.30770943
0.34180534
0.36223123
0.36221041
0.35043486
0.3342881
0.31716929
0.30030044
0.28389753
0.26765779
0.25116682
0.23429483
0.21745636
0.20158313
0.18784498
0.17728699
0.17054882
0.16775473
0.1685532
0.17225722
0.17801893
0.18492183
0.19220535
0.19894979
0.20491456
0.20861992
0.21127856
-0.21782739
-0.46760323
-0.51289862
-0.47851424
-0.16725969
-0.097648598
0.085650145
0.22766638
0.2696921
0.2658757
0.23858035
0.24260824
0.26251104
0.2698876
0.24505278
0.21038072
0.25529092
0.2912851
0.33476483
0.36450626
0.3684304
0.35685494
0.33985637
0.32186104
0.3043975
0.28780266
0.27173647
0.25553478
0.238678
0.22120202
0.20384913
0.1878638
0.17458139
0.16503414
0.15971716
0.15855423
0.16100343
0.16623659
0.173323
0.18131648
0.18945863
0.19685598
0.20330024
0.20734246
0.21024067
0.079771731
-0.19821179
-0.41388788
-0.44454061
-0.41150484
-0.13771136
-0.10025872
0.21307651
0.25016323
0.24720163
0.21371401
0.22105874
0.24855953
0.25962147
0.23098927
0.18337828
0.22824331
0.27124658
0.32399379
0.36552984
0.37448765
0.36320706
0.34529879
0.32630612
0.30812355
0.29126124
0.27543109
0.25980401
0.24345789
0.2259403
0.20763299
0.18970756
0.17371878
0.16110056
0.15279295
0.149088
0.14968182
0.15384102
0.16061082
0.16899601
0.17803686
0.18698846
0.19499258
0.20187819
0.20622956
0.20933028
0.1936798
0.070126939
-0.17741363
-0.36835915
-0.38903758
-0.34299025
-0.11099117
-0.10123966
0.22418884
0.22186377
0.18043562
0.19169105
0.23096737
0.24769554
0.21633335
0.15233415
0.19902136
0.24446056
0.30832945
0.36421634
0.37971795
0.36916872
0.35027637
0.33025126
0.31126243
0.29402875
0.27843553
0.26359494
0.2482429
0.23135684
0.21278233
0.19342719
0.17494198
0.15913458
0.14744014
0.14062116
0.13871573
0.14117661
0.14708792
0.1553875
0.16503491
0.17507247
0.18478082
0.19334643
0.20063748
0.20527023
0.20854369
0.19424608
0.17031142
0.056908598
-0.16027604
-0.3309932
-0.35207128
-0.28152463
-0.089080806
-0.099739323
0.18986304
0.13733147
0.15270092
0.20786454
0.23346007
0.20178536
0.1251143
0.15328829
0.23715931
0.29097035
0.36058135
0.38353746
0.37394094
0.35439921
0.33336448
0.31356237
0.29586154
0.28043371
0.26650654
0.25257434
0.23703486
0.21902317
0.1989606
0.17841324
0.15948391
0.14412504
0.13365809
0.12858649
0.1286568
0.13307619
0.14076334
0.1505708
0.16143238
0.17240968
0.18282229
0.19190733
0.19956809
0.20445165
0.20788119
0.15043471
0.1630101
0.14432532
0.041260786
-0.15068584
-0.3016786
-0.32504314
-0.23752072
-0.073320463
-0.095575415
0.087605652
0.10481959
0.17753866
0.21607426
0.18587819
0.097841291
0.10689363
0.1852121
0.27060662
0.35493765
0.38436829
0.37786066
0.35697749
0.33526494
0.31473373
0.29649797
0.28112822
0.26812259
0.25594437
0.24245914
0.225958
0.20611871
0.18419176
0.16243638
0.14330013
0.12873528
0.11983107
0.11676392
0.11896826
0.12541581
0.13488238
0.14615907
0.15817651
0.17003551
0.181104
0.1906664
0.1986559
0.20375798
0.20733841
0.032523744
0.10446894
0.13160083
0.11741625
0.020853698
-0.14561977
-0.27812338
-0.29728803
-0.20610527
-0.061974963
-0.08822174
0.050163848
0.13965013
0.1944302
0.16748952
0.068570945
0.057229436
0.13515391
0.23785649
0.33743575
0.38278448
0.37750369
0.35772684
0.33541612
0.31447351
0.29568828
0.28021186
0.26804594
0.25780747
0.24702785
0.23306183
0.21457675
0.19221483
0.16819506
0.14538385
0.12640223
0.1130415
0.10605143
0.10523344
0.10970649
0.11822618
0.12945249
0.14214422
0.155256
0.16794352
0.17961886
0.18960626
0.19787968
0.20317712
0.20690843
-0.0088582305
-0.02657857
0.054730716
0.10032492
0.091037993
0.0039603636
-0.1429406
-0.25665275
-0.27029688
-0.18126589
-0.04975898
-0.079375335
0.093555183
0.16799938
0.1451614
0.038592025
0.0064802472
0.077730358
0.19640395
0.31073992
0.36665429
0.37582044
0.35467524
0.33346098
0.31239794
0.29317753
0.27744246
0.26587015
0.25760673
0.25006101
0.23968586
0.22386262
0.20228276
0.17685535
0.15073469
0.1272035
0.10884972
0.097148426
0.092424195
0.094077854
0.10092358
0.11152852
0.12447243
0.13851854
0.15266831
0.16612953
0.17834596
0.18869507
0.19722326
0.20271293
0.20657161
0.042657473
-0.071725222
-0.094663741
0.0049175917
0.070096421
0.066738242
-0.011272513
-0.14076568
-0.23799316
-0.24732556
-0.16607077
-0.037937349
-0.070777057
0.13747048
0.11687032
0.010989514
-0.04181599
0.018549501
0.14843435
0.27345547
0.34551571
0.36128875
0.34966189
0.32827663
0.3083251
0.28871563
0.27254039
0.26129597
0.25476246
0.25080544
0.24505654
0.23335408
0.21404113
0.1883846
0.15962528
0.13165325
0.10791316
0.090748946
0.08118552
0.079063645
0.083377479
0.092660615
0.10533278
0.11994105
0.13528575
0.15041371
0.16456839
0.17724083
0.1879103
0.19669864
0.20240712
0.20631399
0.10528407
-0.0099281053
-0.13521576
-0.15420233
-0.041807702
0.043174501
0.045599488
-0.023838193
-0.13796579
-0.22304033
-0.22938416
-0.15828298
-0.031489138
-0.061882802
0.084707081
-0.01106771
-0.085504328
-0.038280144
0.097565403
0.2278586
0.3133256
0.34351369
0.33637701
0.32146116
0.30149107
0.2822032
0.26537398
0.25392665
0.24879382
0.24845292
0.248257
0.24226526
0.22697391
0.20259925
0.1722166
0.14020688
0.11089096
0.087602401
0.072249136
0.065302384
0.066085774
0.073200789
0.084944684
0.099648615
0.11587155
0.13245275
0.14846265
0.1631994
0.17627332
0.1872856
0.19642588
0.20220166
0.20614613
0.052783251
0.075435834
-0.060326922
-0.19488984
-0.20823074
-0.083800171
0.021107335
0.028990241
-0.033783555
-0.13414035
-0.20948454
-0.2143587
-0.15118644
-0.030072366
-0.049811749
-0.02886041
-0.12237607
-0.090146073
0.047245323
0.17442018
0.2710856
0.31306776
0.32129952
0.30923283
0.29329296
0.27317423
0.25576466
0.24372594
0.23905498
0.24219115
0.24827949
0.24961469
0.24037827
0.21915337
0.18852913
0.15322985
0.11841425
0.088492714
0.06642942
0.053536344
0.049658215
0.053595571
0.063599864
0.077802242
0.094503328
0.11228072
0.1299857
0.14673525
0.16198297
0.17550209
0.18707724
0.19628585
0.20208642
0.2060699
-0.044249236
0.023829595
0.050879002
-0.10482135
-0.24612685
-0.25322669
-0.11958033
0.0042699904
0.017749898
-0.041650073
-0.13029694
-0.19720313
-0.1987401
-0.14231855
-0.033195515
-0.03523586
-0.15022069
-0.13355715
-0.0012635598
0.11675552
0.21941751
0.27153146
0.29074852
0.2990173
0.28182231
0.26275292
0.24359962
0.23020789
0.22546794
0.23098294
0.2439282
0.25429991
0.25333485
0.23750586
0.20842524
0.17096167
0.13104995
0.094208631
0.064606918
0.044613657
0.034819632
0.034404856
0.041679977
0.05462611
0.071281204
0.089928089
0.10913122
0.12778212
0.14518061
0.16101203
0.17535408
0.18706349
0.19623682
0.20205971
0.20608635
-0.16725255
-0.053566704
-0.00031310854
0.030689059
-0.14108719
-0.28495477
-0.2864918
-0.14835021
-0.0079737982
0.011103837
-0.047134475
-0.12618092
-0.18647134
-0.18277672
-0.13198564
-0.041501371
-0.023623766
-0.16475664
-0.046770571
0.062834861
0.16275822
0.22030041
0.24583196
0.27492041
0.27493112
0.25069526
0.22949782
0.21385205
0.20694392
0.21437898
0.23380996
0.25483235
0.2647767
0.2569041
0.2315683
0.19348915
0.14925694
0.10550379
0.067700386
0.039477275
0.022418281
0.016308536
0.019676154
0.030426041
0.046357062
0.065433551
0.085883807
0.10629495
0.12577801
0.14393314
0.16094081
0.17548064
0.18714304
0.19627117
0.20212343
0.20619747
-0.18094828
-0.17060107
-0.05690246
-0.012641699
0.011883865
-0.16565415
-0.30846414
-0.30645174
-0.1692133
-0.018018856
0.0085494587
-0.049228776
-0.12242145
-0.17366863
-0.1688524
-0.1206777
-0.04932356
-0.017377249
-0.082115452
0.022009663
0.10309154
0.15856804
0.18661278
0.23252979
0.25990014
0.24397506
0.21523657
0.19408317
0.18481191
0.1903554
0.21685629
0.24971748
0.27312861
0.27643468
0.25741547
0.2206943
0.17334803
0.12304559
0.076625189
0.039140445
0.013421117
0.000120871
-0.0018021789
0.0056083438
0.019952967
0.038874518
0.060221653
0.082214018
0.10369304
0.12415913
0.14393065
0.16125392
0.17570644
0.18729877
0.1963939
0.20227705
0.20640431
-0.10156173
-0.18036777
-0.16168622
-0.053496497
-0.0099385107
-0.0050764225
-0.17420877
-0.31549657
-0.31262881
-0.17962916
-0.024694019
0.0095622732
-0.050814824
-0.11596557
-0.1599301
-0.15376581
-0.10690258
-0.050229874
-0.013927978
-0.0073089289
0.043771993
0.090835236
0.110856
0.17237866
0.2310053
0.23257109
0.20621164
0.17576173
0.15606911
0.16071068
0.19008487
0.23715772
0.27703637
0.29463301
0.2852408
0.25224365
0.20342319
0.14736519
0.092236908
0.044646135
0.0088943836
-0.013207533
-0.022007743
-0.01931053
-0.0076220176
0.010384804
0.032147656
0.055458475
0.078823481
0.10157292
0.12421806
0.14445397
0.16167375
0.17600066
0.18753948
0.19660538
0.20252055
0.20670585
-0.026745696
-0.10489246
-0.1648602
-0.14032227
-0.040930496
0.0031279086
-0.018309596
-0.16744641
-0.30701466
-0.30644406
-0.17843318
-0.02600557
0.011745153
-0.048367306
-0.10696194
-0.14506263
-0.13684429
-0.092752417
-0.046281384
-0.011394162
-0.008714703
0.020963132
0.024746898
0.096493537
0.18622476
0.21276878
0.19435024
0.161415
0.13060237
0.1187059
0.1549561
0.21375404
0.27385565
0.31038826
0.3137274
0.28756011
0.23934442
0.17877673
0.11527085
0.057008566
0.0099667355
-0.022603101
-0.040046844
-0.043680436
-0.035962739
-0.01983201
0.0017056378
0.025957402
0.051031314
0.076033763
0.10166429
0.12498618
0.14509601
0.16215146
0.17637725
0.18786537
0.19690642
0.20285391
0.20709669
-0.04688927
-0.032286099
-0.093951206
-0.1354015
-0.10802074
-0.017626015
0.024352059
-0.023735057
-0.15078746
-0.28617006
-0.28594162
-0.17159704
-0.020486776
0.014438033
-0.042135219
-0.09497339
-0.12834205
-0.11875917
-0.079108898
-0.041320468
-0.0095082287
-0.049528394
-0.069747488
0.0045447362
0.12549165
0.18287673
0.17686765
0.14633749
0.1058211
0.079559397
0.10110701
0.18055939
0.26055334
0.32105496
0.34218768
0.32553402
0.28066102
0.21733461
0.1462499
0.077145412
0.017772188
-0.026899975
-0.054886193
-0.066703242
-0.064541942
-0.051495309
-0.031010688
-0.0063359487
0.020173123
0.047350404
0.076110312
0.10270118
0.12588891
0.14578451
0.16270785
0.17683561
0.18827802
0.19729673
0.20327789
0.20757271
-0.11673811
-0.067743264
-0.025331731
-0.068368427
-0.095450834
-0.068224428
0.015465077
0.053739092
-0.015261284
-0.12792476
-0.25323969
-0.2635579
-0.1535446
-0.012328694
0.018024705
-0.033387978
-0.08134755
-0.1097228
-0.099991634
-0.066663335
-0.035688888
-0.0079241395
-0.17067086
-0.10057954
0.046206475
0.14201246
0.15266975
0.12771156
0.084129729
0.030674301
0.04238637
0.12530692
0.23686364
0.32493863
0.36796387
0.36548157
0.32641224
0.26273489
0.18542202
0.10577795
0.0333796
-0.024891684
-0.065375898
-0.087433607
-0.09269162
-0.084220362
-0.065853373
-0.04144006
-0.013888192
0.015312154
0.047335923
0.077436636
0.10389492
0.12682498
0.14654895
0.1633415
0.17737791
0.18877707
0.19777604
0.20379308
0.20813657
-0.27074548
-0.17540311
-0.073499612
-0.0083364974
-0.031179765
-0.047610795
-0.022435212
0.056313176
0.092164444
0.011224872
-0.097339057
-0.22488432
-0.22887361
-0.13282363
-0.0020350439
0.022442274
-0.023439754
-0.065894484
-0.090275625
-0.081129641
-0.055264321
-0.029944948
-0.0058344782
-0.21184159
-0.045715268
0.090336344
0.12155176
0.10365204
0.06169176
-0.010861642
-0.052137795
0.053742153
0.18754697
0.31828791
0.39031473
0.40509793
0.37617238
0.31421399
0.23264271
0.14335145
0.05769032
-0.015399961
-0.070292579
-0.10479357
-0.11959875
-0.11749709
-0.10259367
-0.079344547
-0.05128399
-0.020303059
0.015093061
0.048962617
0.078949701
0.1051089
0.12783477
0.14738657
0.16405553
0.17800341
0.18936211
0.19834497
0.20439763
0.20878248
-0.32176752
-0.35975436
-0.21775275
-0.068083723
0.017310367
0.013690268
0.0034870135
0.026195287
0.099243875
0.13841563
0.048630909
-0.070873487
-0.18631159
-0.18858288
-0.10902314
0.009331355
0.027668535
-0.013387495
-0.049938648
-0.070795485
-0.064601696
-0.044598758
-0.024201643
-0.0043120549
-0.14332308
0.029347046
0.083805764
0.07496813
0.033818374
-0.048422368
-0.14124426
-0.073607171
0.12026404
0.29113464
0.40407581
0.44312093
0.42684872
0.37116911
0.28728325
0.1898921
0.09134498
0.0026264576
-0.068401497
-0.11760461
-0.1443126
-0.15068288
-0.1409001
-0.11998597
-0.092144233
-0.059735057
-0.020889939
0.017016536
0.050816637
0.08047108
0.10639672
0.12891401
0.1483016
0.16484888
0.17871152
0.19003489
0.19900828
0.20509267
0.20950994
-0.23662825
-0.41995489
-0.4256555
-0.24262034
-0.05182013
0.048439562
0.060991177
0.054753022
0.07570823
0.14220884
0.18197929
0.086416436
-0.039897846
-0.14178037
-0.14219878
-0.084375351
0.021848269
0.032914087
-0.0038733329
-0.035898578
-0.053392042
-0.049814584
-0.034608914
-0.018555755
-0.002827555
-0.036544055
0.040992299
0.042632867
0.002701659
-0.088589031
-0.22328339
-0.20759273
-0.026474657
0.2344335
0.40610998
0.47505717
0.47749544
0.43023239
0.34853083
0.24490167
0.13455704
0.030009351
-0.058546304
-0.12464
-0.16576493
-0.18300402
-0.18033
-0.1632273
-0.13657761
-0.10325055
-0.060920427
-0.018693712
0.01922314
0.052670619
0.082070199
0.10775219
0.1300684
0.14929244
0.16572083
0.1795053
0.19080727
0.19975949
0.20587426
0.21031787
-0.098235846
-0.31821597
-0.49205645
-0.46466324
-0.25094501
-0.028079023
0.082438306
0.10822566
0.10528113
0.12337682
0.17891478
0.22947111
0.11679458
-0.004720365
-0.093168554
-0.091035017
-0.058376314
0.034007471
0.037675817
0.0053361397
-0.022820336
-0.03801557
-0.03639195
-0.025218475
-0.013093785
-0.0013836106
-0.0037270792
0.0085318283
-0.0289739
-0.12960711
-0.30742745
-0.36793538
-0.18906508
0.098375012
0.37778721
0.50295754
0.52403269
0.49172199
0.41330677
0.30758498
0.18702436
0.067164152
-0.039755359
-0.12470084
-0.18281064
-0.21356498
-0.22032797
-0.20885002
-0.18465433
-0.15112818
-0.10535408
-0.058502492
-0.016137744
0.02142859
0.054612556
0.083738521
0.10918278
0.13129576
0.15035817
0.16667636
0.18040457
0.19166937
0.20059424
0.20673971
0.2112049
-0.044898304
-0.15444676
-0.37684283
-0.53041144
-0.47380555
-0.24492822
-0.0018841338
0.11571541
0.15084818
0.15087233
0.16273765
0.22782716
0.25516752
0.14812683
0.0313154
-0.039667083
-0.040066876
-0.028026278
0.044123779
0.042483446
0.014186636
-0.010726616
-0.024144342
-0.024160612
-0.016440015
-0.0078781329
-3.7153877e-06
-0.023997765
-0.059902496
-0.16223397
-0.39140693
-0.52827371
-0.38530483
-0.06432342
0.28177444
0.49750714
0.57138375
0.54932321
0.48375174
0.37553189
0.24811758
0.11403768
-0.011415615
-0.11671798
-0.19428799
-0.24137859
-0.26022609
-0.25655181
-0.23640086
-0.20364689
-0.15458369
-0.10280219
-0.055620764
-0.013571732
0.023742197
0.056631009
0.085485661
0.11068562
0.13259501
0.15150597
0.16774614
0.18139416
0.19261363
0.20150975
0.20768686
0.21216934
-0.04935743
-0.07653187
-0.19687986
-0.40321723
-0.53085451
-0.45453163
-0.22367687
0.023700401
0.14492622
0.18528033
0.19108027
0.22181003
0.25873582
0.27872366
0.18061318
0.067344865
0.014308359
0.0052547954
0.0072607719
0.052419062
0.04770936
0.022680283
0.00057392449
-0.011564977
-0.013013747
-0.0082947109
-0.0029716758
0.0012848355
-0.087109111
-0.18921407
-0.46863756
-0.67664376
-0.58829268
-0.23821307
0.15599455
0.44352112
0.58381119
0.61055865
0.54826268
0.44982724
0.31564115
0.17020006
0.026686419
-0.09991155
-0.19910914
-0.26541026
-0.2992654
-0.30594087
-0.29180047
-0.26108646
-0.2090332
-0.15203528
-0.099646065
-0.05269832
-0.01086254
0.026148675
0.058738
0.087307929
0.11225943
0.13397606
0.15277997
0.16890845
0.18246297
0.19363596
0.20250487
0.20871325
0.21320889
-0.1037962
-0.063758039
-0.092371392
-0.21290044
-0.39297195
-0.49533929
-0.41137953
-0.19065631
0.047370181
0.16892158
0.21287283
0.22933172
0.24890613
0.28910975
0.30165405
0.21102734
0.10242305
0.060175139
0.042292852
0.039530415
0.061159102
0.053318993
0.030870957
0.01112597
-0.00012954086
-0.0028688775
-0.00080141944
0.0015580987
0.0024110829
-0.2170405
-0.5141222
-0.79980233
-0.77752668
-0.42754927
0.011071589
0.3558307
0.56383733
0.63996554
0.62009816
0.51861012
0.38979336
0.23371917
0.074332256
-0.073816135
-0.19639038
-0.28465069
-0.33662387
-0.35655153
-0.35078581
-0.32373446
-0.26916493
-0.20669018
-0.14869364
-0.096388932
-0.049576279
-0.0080305159
0.028662532
0.060928729
0.089203765
0.11391739
0.1354997
0.15415035
0.17014722
0.18360595
0.1947357
0.20357839
0.20981441
0.21432088
-0.23887708
-0.10535259
-0.063158011
-0.088238983
-0.19945492
-0.34982218
-0.43152032
-0.35068042
-0.15302629
0.070653984
0.18908649
0.23946053
0.25975312
0.28182375
0.31618069
0.3190737
0.23596906
0.13556346
0.094643974
0.073487502
0.064794346
0.070274398
0.059260959
0.038770709
0.020954746
0.010271436
0.0063267394
0.0060316316
0.005743974
0.0034246436
-0.51630943
-0.87544554
-0.93384649
-0.6112337
-0.15183885
0.24063997
0.50516207
0.64963066
0.66722934
0.59906026
0.46098097
0.30494822
0.12998932
-0.038439897
-0.18547184
-0.29821301
-0.37146856
-0.40785222
-0.41324941
-0.39188312
-0.33549436
-0.26730849
-0.20330123
-0.14514714
-0.092845723
-0.046281792
-0.0050588606
0.03127731
0.063201224
0.091190229
0.1157407
0.13712628
0.15559484
0.17145586
0.18482381
0.19591306
0.20472443
0.21098339
0.21550274
-0.48769028
-0.22939893
-0.087365137
-0.044078784
-0.06814948
-0.15991251
-0.28203324
-0.34796001
-0.27830893
-0.10777983
0.095574847
0.21166155
0.26154052
0.2867206
0.30986332
0.33705428
0.32972
0.25360567
0.16526073
0.12253224
0.098119617
0.084071816
0.079058083
0.065407053
0.046371294
0.030078905
0.019714726
0.0146224
0.01219838
0.0095076462
0.0043903082
-0.88728356
-1.0353066
-0.7678685
-0.31958265
0.10173428
0.41186429
0.61750924
0.70526265
0.66216006
0.54245432
0.3751728
0.19424951
0.0051820374
-0.16616824
-0.30536099
-0.40303453
-0.45927891
-0.47903277
-0.46583603
-0.40859659
-0.33450187
-0.2640729
-0.1995414
-0.1411864
-0.089052727
-0.042796391
-0.0019565346
0.033990319
0.065577118
0.093373292
0.11767786
0.13882585
0.15710501
0.17283653
0.18611936
0.19716052
0.20592938
0.21221658
0.21675347
-0.82960307
-0.41742181
-0.17852356
-0.046296014
-0.0054508789
-0.027828215
-0.099165311
-0.19568972
-0.25127629
-0.19848645
-0.048914288
0.12456861
0.23514453
0.28138983
0.30864914
0.33175541
0.35024702
0.33414308
0.26396107
0.187942
0.14452239
0.11677085
0.098823387
0.087152566
0.071590122
0.053644682
0.038513197
0.028254597
0.022060755
0.017691509
0.012750603
0.0052243575
-1.0583269
-0.87622387
-0.46940569
-0.044585817
0.2908061
0.54401583
0.70132439
0.73133315
0.61562365
0.45720572
0.25869704
0.057769428
-0.13896208
-0.30577613
-0.43067656
-0.51032307
-0.54796004
-0.54589025
-0.48910796
-0.40896215
-0.33169734
-0.26021458
-0.19518259
-0.13686018
-0.084991194
-0.039132874
0.0012724712
0.036828482
0.068192404
0.095687139
0.1196892
0.14058769
0.15868483
0.17429532
0.18748358
0.19845542
0.20718532
0.21352174
0.2180388