/*--------------------------------*- C++ -*----------------------------------*\
| =========                 |                                                 |
| \\      /  F ield         | OpenFOAM: The Open Source CFD Toolbox           |
|  \\    /   O peration     | Version:  v2012                                 |
|   \\  /    A nd           | Website:  www.openfoam.com                      |
|    \\/     M anipulation  |                                                 |
\*---------------------------------------------------------------------------*/
FoamFile
{
    version     2.0;
    format      ascii;
    class       surfaceScalarField;
    location    "55.9286885804231488";
    object      phi;
}
// * * * * * * * * * * * * * * * * * * * * * * * * * * * * * * * * * * * * * //

dimensions      [0 3 -1 0 0 0 0];
oriented        oriented;


internalField   nonuniform List<scalar> 
18180
(
-0.024353382
-3.6083109
-0.048607187
-3.3861043
-0.0355125
-3.5123679
-0.073446703
-3.1835511
-0.072214914
-3.293446
-0.037622606
-3.4138871
-0.09977343
-3.0006068
-0.11152206
-3.0926211
-0.076397675
-3.1977857
-0.038160874
-3.3175163
-0.12790038
-2.834616
-0.1561009
-2.9086083
-0.11812347
-2.9980752
-0.077243678
-3.1038345
-0.03616921
-3.2270687
-0.15790105
-2.6850503
-0.20795999
-2.7389908
-0.16553332
-2.8122571
-0.11902024
-2.9047956
-0.072767856
-3.0163589
-0.03274937
-3.1454189
-0.18912178
-2.5511863
-0.26950659
-2.5828815
-0.22099028
-2.6384916
-0.16593893
-2.7178272
-0.11122637
-2.8190257
-0.065410279
-2.9378468
-0.028534124
-3.0725913
-0.2196873
-2.4346442
-0.34310917
-2.4397971
-0.28729433
-2.4752043
-0.22008124
-2.5408242
-0.15331233
-2.6319771
-0.098968119
-2.7425379
-0.056533724
-2.868326
-0.024084513
-3.0088609
-0.24751895
-2.3360505
-0.43117407
-2.3113239
-0.36780654
-2.3210192
-0.2837851
-2.3713252
-0.20029219
-2.4532833
-0.13449914
-2.5563795
-0.084569854
-2.6754477
-0.047312007
-2.8075961
-0.019767757
-2.952901
-0.2713883
-2.2370178
-0.53694008
-2.1973282
-0.46758166
-2.1759542
-0.3597996
-2.2076776
-0.25331298
-2.2806557
-0.17250092
-2.377853
-0.11315136
-2.4909251
-0.069929877
-2.6172653
-0.038483649
-2.754748
-0.015806061
-2.9044351
-0.29025125
-2.0938091
-0.66394001
-2.0791585
-0.59277956
-2.0388882
-0.45229057
-2.048585
-0.31330767
-2.1124139
-0.21313512
-2.2046996
-0.14224547
-2.3138145
-0.092047132
-2.4350253
-0.056171992
-2.5670885
-0.030475546
-2.7090664
-0.01230839
-2.8622159
-0.32880786
-1.8581585
-0.80832169
-1.9204967
-0.74450412
-1.8963051
-0.56551192
-1.8929096
-0.38132163
-1.9472739
-0.2560102
-2.0361135
-0.17144571
-2.1424344
-0.11334256
-2.2604173
-0.072689586
-2.3875191
-0.043895063
-2.5240486
-0.023479737
-2.6696077
-0.0093079071
-2.8258822
-0.36880732
-1.5737796
-0.96048491
-1.6788449
-0.91604933
-1.7197406
-0.69544616
-1.7355334
-0.45820994
-1.7845371
-0.30008729
-1.871568
-0.19981754
-1.97646
-0.13318063
-2.0921802
-0.087599299
-2.2160567
-0.055780175
-2.3472724
-0.033325883
-2.4870949
-0.017537951
-2.6356356
-0.0067914738
-2.7941863
-0.40515875
-1.2840966
-1.1028328
-1.40593
-1.0714394
-1.4960066
-0.82419705
-1.5619182
-0.54070049
-1.6232298
-0.34384261
-1.7107602
-0.22582795
-1.8158432
-0.15054911
-1.9302415
-0.10024598
-2.0514569
-0.065683935
-2.1788517
-0.041497433
-2.3129912
-0.024467505
-2.4554761
-0.012602697
-2.6062608
-0.0047204777
-2.7668063
-0.43576938
-1.0148713
-1.2277195
-1.1352408
-1.2060584
-1.2454948
-0.93202286
-1.360755
-0.6153344
-1.4590546
-0.38469974
-1.5538628
-0.24738526
-1.6608936
-0.16409177
-1.7748334
-0.10975136
-1.8939051
-0.073031188
-2.0178539
-0.047590416
-2.1476259
-0.029730474
-2.2839185
-0.017198946
-2.4282665
-0.0085805634
-2.5808616
-0.0030444469
-2.7428458
-0.46205976
-0.78201752
-1.3306328
-0.88941797
-1.3152336
-1.0017675
-1.0089877
-1.1426488
-0.66318997
-1.2861723
-0.4156797
-1.4010227
-0.26207135
-1.512182
-0.17213375
-1.6266701
-0.11509055
-1.7440159
-0.077147108
-1.8646949
-0.051142388
-1.9900255
-0.032986656
-2.1213196
-0.020225998
-2.2590892
-0.011341921
-2.4048666
-0.0053592169
-2.5588003
-0.0017132442
-2.7221128
-0.48768412
-0.59350429
-1.4100309
-0.68141296
-1.3952526
-0.78651089
-1.0538194
-0.93250687
-0.67386799
-1.1066799
-0.42440529
-1.2518296
-0.26671396
-1.3706531
-0.17283189
-1.4865122
-0.11517392
-1.6024132
-0.077335084
-1.7198649
-0.051678219
-1.8407496
-0.033886035
-1.9668717
-0.021410825
-2.0991047
-0.012678089
-2.2378391
-0.0067001684
-2.3845902
-0.0028231619
-2.539621
-0.00068142689
-2.7038275
-0.51601575
-0.45144636
-1.4670078
-0.51656396
-1.4455869
-0.6095055
-1.0672651
-0.75001014
-0.64909352
-0.93336909
-0.40023409
-1.1066493
-0.25642806
-1.237642
-0.16448315
-1.3551767
-0.10895262
-1.4697582
-0.072960697
-1.5840455
-0.048768602
-1.700468
-0.032118565
-1.821162
-0.020501179
-1.9474806
-0.012378862
-2.0801342
-0.0067785332
-2.219507
-0.0030813964
-2.3670351
-0.00085938031
-2.5228481
0.00011106614
-2.6878576
-0.54823057
-0.35429968
-1.504823
-0.39483113
-1.4690918
-0.47271582
-1.0525399
-0.60248047
-0.59597081
-0.78054627
-0.3416964
-0.96910225
-0.22545797
-1.1143867
-0.14574691
-1.233665
-0.095576681
-1.3467535
-0.063550147
-1.4577049
-0.04209494
-1.5696361
-0.027448375
-1.6848425
-0.017312844
-1.8049052
-0.010271567
-1.931007
-0.0054391887
-2.0638757
-0.0022411619
-2.2036657
-0.00030734755
-2.3517106
0.00063344201
-2.5081564
0.00065759704
-2.6736411
-0.58367647
-0.29486612
-1.527886
-0.31352529
-1.471671
-0.37305877
-1.0150138
-0.48973483
-0.52098106
-0.65615302
-0.2552135
-0.84559403
-0.17059336
-1.0019555
-0.11549226
-1.1230134
-0.074690458
-1.2338797
-0.048877443
-1.3411462
-0.031515467
-1.4483755
-0.019763012
-1.5581508
-0.011743762
-1.6718835
-0.0062648304
-1.7909959
-0.0025670604
-1.9168572
-0.00018939902
-2.0498086
0.0011918711
-2.189897
0.0017758438
-2.3383497
0.0017475397
-2.4953012
0.001078445
-2.6611669
-0.62451071
-0.25977468
-1.5421602
-0.26390401
-1.4602519
-0.30682625
-0.96008646
-0.40866065
-0.4289547
-0.56165844
-0.14954319
-0.74172595
-0.093637264
-0.90173271
-0.072965165
-1.0239073
-0.046647101
-1.1314771
-0.029053256
-1.2345357
-0.017111807
-1.3367171
-0.009099339
-1.4409373
-0.0037971096
-1.5485051
-0.00033353332
-1.6606197
0.0018728119
-1.7790047
0.0031391369
-1.904622
0.0037051528
-2.0376252
0.0037281273
-2.177905
0.0033074066
-2.3266406
0.0025513351
-2.4840175
0.0014039566
-2.6500387
-0.6740064
-0.23897263
-1.5507109
-0.23550581
-1.441482
-0.26556284
-0.89248882
-0.35622304
-0.32366217
-0.49501505
-0.03240628
-0.65999172
-0.00036348196
-0.81534178
-0.018683
-0.93645679
-0.012380617
-1.0396496
-0.0045680408
-1.137846
0.00081360359
-1.2346133
0.0043611772
-1.3330869
0.0064090456
-1.4346066
0.0074287442
-1.5398572
0.0078031294
-1.6506073
0.007715578
-1.7684948
0.007273103
-1.8939861
0.0065326439
-2.0269971
0.0055624424
-2.167454
0.0044043704
-2.3164161
0.0031167591
-2.4740592
0.0016313824
-2.6402208
-0.72838626
-0.23168028
-1.5531376
-0.22174823
-1.4154339
-0.24538585
-0.81508071
-0.32583576
-0.20989884
-0.4521645
0.089840253
-0.59970112
0.10188739
-0.74370879
0.044945533
-0.8603874
0.02683672
-0.95817415
0.02357238
-1.0506892
0.021612141
-1.1417093
0.020190382
-1.2342771
0.018592001
-1.3297492
0.016847517
-1.4283894
0.015129375
-1.5317303
0.013473975
-1.6417572
0.011845464
-1.7593332
0.010203926
-1.8847161
0.0085307673
-2.0177817
0.0068470016
-2.1583359
0.0051613229
-2.3074522
0.0034979246
-2.4652496
0.0017776137
-2.6314223
-0.78002199
-0.23924888
-1.5495809
-0.22131185
-1.3758422
-0.2460581
-0.73008573
-0.31425447
-0.090963089
-0.42802051
0.2117844
-0.55773596
0.20615139
-0.68651518
0.11391734
-0.795036
0.069295848
-0.88634162
0.05401427
-0.97250125
0.044558286
-1.0575687
0.037929895
-1.144122
0.032460032
-1.2335638
0.027712862
-1.3259529
0.023672279
-1.4222131
0.020263601
-1.5244174
0.017321603
-1.6339881
0.014673615
-1.751323
0.01221176
-1.8766606
0.0098896507
-2.0097309
0.0077074324
-2.1503966
0.005656397
-2.2996083
0.0037376028
-2.4574688
0.0018628865
-2.6236426
-0.82698163
-0.24898351
-1.5414222
-0.23431061
-1.3212806
-0.26142953
-0.64010902
-0.32086606
0.028922059
-0.41841693
0.32893768
-0.52993132
0.3067737
-0.64195058
0.18373252
-0.73958901
0.11308634
-0.82327755
0.08539526
-0.90256396
0.068783117
-0.98149266
0.056985712
-1.0620838
0.047621963
-1.145619
0.039737711
-1.2319844
0.033209847
-1.3216255
0.02790238
-1.4163664
0.023543774
-1.5179849
0.019828419
-1.6271781
0.016527988
-1.7443411
0.013521778
-1.8696464
0.010762742
-2.0027601
0.0082454247
-2.1434671
0.005952763
-2.2927478
0.0038699633
-2.4505862
0.001902899
-2.6166534
-0.86690941
-0.25964774
-1.5272536
-0.25084137
-1.2596017
-0.28234073
-0.54790999
-0.33937023
0.14302448
-0.42022876
0.43703112
-0.51233139
0.39965878
-0.60740362
0.25033564
-0.69268136
0.15598727
-0.76785339
0.1163312
-0.83997202
0.093324972
-0.91267087
0.07675096
-0.98746661
0.06365923
-1.0653051
0.05262493
-1.1458731
0.04349994
-1.2293495
0.036174794
-1.3172087
0.030323522
-1.4111722
0.02550897
-1.5122914
0.021363826
-1.6211947
0.017664351
-1.7382434
0.014311101
-1.8635606
0.01127129
-1.9966855
0.0085411565
-2.1374702
0.006099809
-2.2867677
0.0039214892
-2.4445214
0.001909125
-2.6104455
-0.89850163
-0.26988872
-1.5058836
-0.26945339
-1.1912533
-0.30629793
-0.45577505
-0.36108112
0.24647789
-0.42901841
0.53170588
-0.50171991
0.48220787
-0.58041677
0.31067771
-0.65270954
0.19593322
-0.71885837
0.1455786
-0.78373692
0.11726407
-0.85023953
0.096643219
-0.91948705
0.080170744
-0.99196833
0.066091483
-1.0670585
0.054308434
-1.1447178
0.044863354
-1.2262014
0.037452178
-1.3130771
0.031528098
-1.4064751
0.026563802
-1.5072148
0.022205775
-1.615906
0.018277119
-1.7329344
0.014716076
-1.8582978
0.011509029
-1.9914677
0.0086563736
-2.1322653
0.0061352364
-2.2815716
0.003912278
-2.4391536
0.0018900758
-2.6048656
-0.92144616
-0.27869289
-1.4770533
-0.28786156
-1.1179805
-0.33055712
-0.36629882
-0.38319897
0.33821816
-0.43990364
0.61028802
-0.49534601
0.55280094
-0.55875287
0.36265373
-0.61816629
0.23129178
-0.67512581
0.1721304
-0.73288183
0.13982473
-0.79335292
0.11614659
-0.85735383
0.096814829
-0.92489175
0.079898431
-0.99490979
0.06543455
-1.0670975
0.053764831
-1.1425967
0.044719612
-1.2229155
0.037682095
-1.3091306
0.031949152
-1.4020967
0.027001056
-1.5026051
0.02255803
-1.6112678
0.018511297
-1.7283517
0.014839627
-1.8537768
0.011547171
-1.9869522
0.0086378535
-2.1278092
0.0060873911
-2.2770634
0.0038575195
-2.4344437
0.001852049
-2.5999188
-0.93607781
-0.2855201
-1.4412002
-0.3043572
-1.0422433
-0.35211999
-0.28153128
-0.40352707
0.41730802
-0.45021272
0.67264197
-0.49086671
0.61065617
-0.54050012
0.40505829
-0.58771507
0.26088962
-0.6356043
0.19524469
-0.68650652
0.16041469
-0.741223
0.13484126
-0.80031522
0.11332698
-0.86336909
0.093869528
-0.92879413
0.076730371
-0.9959087
0.062711719
-1.0657632
0.051929408
-1.1399084
0.043763804
-1.2194176
0.037325634
-1.3051958
0.031886231
-1.3980253
0.027024034
-1.4985146
0.022565899
-1.6072363
0.018472918
-1.7244247
0.014758293
-1.8499111
0.01143891
-1.9831209
0.0085204975
-2.1239744
0.0059775862
-2.2731881
0.0037686029
-2.4302942
0.0017997837
-2.5954937
-0.94311538
-0.29011226
-1.3993572
-0.31780686
-0.96625589
-0.36952713
-0.20286137
-0.41972946
0.48308506
-0.4580249
0.71960864
-0.48658768
0.65583937
-0.52416215
0.43745424
-0.56021055
0.28400714
-0.5994124
0.21445515
-0.64383564
0.17863996
-0.69314725
0.15242025
-0.74769814
0.12952549
-0.80673558
0.10790093
-0.86808393
0.088113002
-0.93059726
0.071585373
-0.9951711
0.058911466
-1.0634625
0.049572599
-1.1366833
0.042493225
-1.2157147
0.036684058
-1.3014117
0.031531275
-1.3943129
0.026767988
-1.4948951
0.022330819
-1.6037689
0.018238611
-1.7210801
0.014528223
-1.8466367
0.01122357
-1.979853
0.0083303388
-2.1207496
0.0058216635
-2.2698699
0.0036541493
-2.4266882
0.0017368684
-2.5915779
-0.94048354
-0.35216291
-1.3528054
-0.32770504
-0.89186506
-0.38201546
-0.1311552
-0.43087105
0.53609983
-0.46222008
0.7529502
-0.48151169
0.68894049
-0.50856721
0.45995573
-0.53470826
0.30034323
-0.56582497
0.22954379
-0.60423673
0.19428194
-0.64852703
0.16869041
-0.69890951
0.14530871
-0.75439102
0.12196074
-0.81219545
0.099568973
-0.87061933
0.080325298
-0.93032999
0.065532057
-0.99308677
0.054921767
-1.0603265
0.047251636
-1.1329941
0.041211503
-1.2119805
0.035927039
-1.2979071
0.030997085
-1.3909915
0.026319871
-1.4917439
0.021922778
-1.6007956
0.017863235
-1.7182642
0.014190342
-1.8439076
0.010930119
-1.9771408
0.008086526
-2.118023
0.0056315544
-2.267063
0.0035206935
-2.4235255
0.0016660841
-2.5880925
-0.93027169
-0.38101441
-1.2909345
-0.40422405
-0.82036629
-0.38963451
-0.066729022
-0.43673908
0.57745928
-0.46241993
0.77486633
-0.47495636
0.71068877
-0.4928561
0.47315801
-0.5105156
0.31000762
-0.53430793
0.24050781
-0.56720097
0.20726328
-0.60686973
0.18355728
-0.65344918
0.16064227
-0.70580744
0.13607998
-0.76059031
0.11115208
-0.81546437
0.088932855
-0.87077171
0.071699474
-0.9283258
0.059643658
-0.98983043
0.051403964
-1.0565052
0.045282483
-1.1291981
0.040055241
-1.2085193
0.035129066
-1.2947535
0.030343272
-1.3880438
0.025734653
-1.4890037
0.021390176
-1.5983014
0.017386104
-1.7159523
0.013774519
-1.8416619
0.01057975
-1.9748812
0.0078033581
-2.1157866
0.0054162238
-2.2646911
0.0033732797
-2.4207974
0.0015896106
-2.5850235
-0.91236787
-0.41058519
-1.2220622
-0.4400654
-0.7506264
-0.46354808
-0.0097002857
-0.43758534
0.60864974
-0.45879164
0.78749012
-0.46648116
0.72205517
-0.47658828
0.47805039
-0.48716676
0.31351371
-0.50457583
0.24748605
-0.53234404
0.21762936
-0.56779272
0.19700386
-0.61090203
0.17554263
-0.66053145
0.15033868
-0.71279151
0.12297486
-0.76466161
0.097470994
-0.81605056
0.077366517
-0.86876732
0.06359162
-0.92478613
0.054756623
-0.98571108
0.048708514
-1.0525214
0.043758594
-1.1256467
0.039041397
-1.205393
0.034306077
-1.2919271
0.029599
-1.3854578
0.025047745
-1.4866903
0.020766892
-1.5962593
0.016835694
-1.714088
0.01330244
-1.8398626
0.010188089
-1.9730697
0.0074914942
-2.1139414
0.0051825645
-2.2627094
0.0032158495
-2.4184161
0.0015092115
-2.5823152
-0.88685703
-0.4403964
-1.1469775
-0.47583882
-0.67853354
-0.50168091
0.0284597
-0.49194587
0.63108508
-0.45151991
0.79274302
-0.45604613
0.72433517
-0.45964931
0.47565124
-0.46425362
0.31179605
-0.47658877
0.25064303
-0.49941006
0.22550281
-0.53099324
0.20907089
-0.57094487
0.19006229
-0.61818494
0.16484751
-0.66837511
0.13519666
-0.71778293
0.10605973
-0.76575859
0.082532218
-0.81402002
0.066641453
-0.8647915
0.057118764
-0.92013716
0.051296795
-0.98135729
0.046878512
-1.0487996
0.042615878
-1.1224782
0.038120999
-1.2026074
0.033447144
-1.2894343
0.028778514
-1.3832333
0.024283349
-1.4847754
0.020077673
-1.5946313
0.016232669
-1.7126378
0.012790029
-1.8384559
0.0097667712
-1.9716287
0.0071590629
-2.1124716
0.0049359193
-2.2610546
0.0030515706
-2.4163838
0.0014263063
-2.5799369
-0.85402627
-0.47006026
-1.0665527
-0.5109816
-0.60497093
-0.53887285
0.065054885
-0.52847773
0.63009439
-0.48192708
0.79218738
-0.44348087
0.71895104
-0.44212856
0.46711991
-0.44180146
0.30550709
-0.44966037
0.25007138
-0.46828711
0.23095113
-0.49616188
0.21984812
-0.53331942
0.20426808
-0.57845488
0.17973246
-0.62697735
0.14800913
-0.67444096
0.11486791
-0.71951975
0.087239038
-0.76371865
0.06869089
-0.80948498
0.05830186
-0.85938919
0.052848009
-0.91519366
0.049253165
-0.97736011
0.045738206
-1.0455716
0.041710789
-1.1197118
0.037223159
-1.2001781
0.032534827
-1.2872754
0.027891293
-1.3813723
0.023459953
-1.4832364
0.019340771
-1.5933764
0.015592298
-1.7115562
0.012249091
-1.8374308
0.0093245147
-1.9705434
0.0068123292
-2.1112991
0.004680572
-2.2596992
0.0028829954
-2.4146192
0.0013420636
-2.5778596
-0.81449544
-0.49919323
-0.98184416
-0.54492168
-0.53074085
-0.57463915
0.10037071
-0.56436427
0.62519144
-0.51452989
0.77666299
-0.45845471
0.70727645
-0.4238101
0.45356415
-0.41984827
0.29533357
-0.42385367
0.24634217
-0.43876209
0.23380948
-0.46295271
0.22947335
-0.49776535
0.21822417
-0.54107926
0.19511259
-0.58827683
0.16162007
-0.63428782
0.12410701
-0.67699117
0.091568888
-0.71752941
0.069659164
-0.75852572
0.058115335
-0.80310813
0.053153299
-0.85361185
0.05071472
-0.91074242
0.048297346
-0.97402636
0.045010069
-1.0428472
0.04088722
-1.1173383
0.036285106
-1.198079
0.031557479
-1.28545
0.026947036
-1.379837
0.022592485
-1.4820372
0.018570236
-1.5924743
0.014925974
-1.7108393
0.011688417
-1.8367276
0.0088680578
-1.9697607
0.0064562908
-2.1104254
0.004419965
-2.2585918
0.0027122393
-2.4131342
0.0012574328
-2.5760517
-0.76905075
-0.52723729
-0.89403379
-0.57715031
-0.45660113
-0.60845211
0.13413448
-0.59855909
0.61695675
-0.54708067
0.75783512
-0.48765307
0.6880286
-0.43078089
0.43611257
-0.39820898
0.28182504
-0.39907319
0.23953561
-0.41040877
0.23457164
-0.43181097
0.23818336
-0.4640402
0.23204167
-0.50584434
0.21109294
-0.55199655
0.17623561
-0.5970052
0.13402
-0.63785984
0.095641997
-0.67514755
0.069486793
-0.71160208
0.056367612
-0.75095881
0.051989785
-0.79623778
0.051086313
-0.84848293
0.050184804
-0.90718268
0.047965454
-0.97134627
0.044417995
-1.0405873
0.040018287
-1.1153411
0.035266297
-1.1963033
0.030513777
-1.283912
0.025957019
-1.3786172
0.021693676
-1.4811673
0.017776808
-1.5919131
0.014242186
-1.7104331
0.011114761
-1.8363401
0.0084026876
-1.9692757
0.0060949722
-2.1097847
0.0041569767
-2.257716
0.0025410577
-2.4118604
0.0011732144
-2.5744968
-0.71819865
-0.5532461
-0.80423818
-0.60717478
-0.38323772
-0.6398742
0.16611596
-0.63057707
0.60607044
-0.5786257
0.73558478
-0.51669038
0.66299933
-0.45409076
0.41754017
-0.40371026
0.26559139
-0.37519792
0.22999772
-0.38339629
0.23375147
-0.40233069
0.24586233
-0.43224494
0.24591671
-0.47259644
0.22776481
-0.51790861
0.19205258
-0.56230862
0.14487199
-0.6018337
0.099609831
-0.63629425
0.068135712
-0.66843053
0.052867886
-0.70263148
0.049120448
-0.74273269
0.05018128
-0.79020465
0.051291443
-0.84454468
0.050534928
-0.90454005
0.047813796
-0.96927937
0.04374657
-1.0387627
0.039024444
-1.1136774
0.034151796
-1.1947906
0.02941175
-1.2826475
0.024933658
-1.3776815
0.020774253
-1.480614
0.016968725
-1.5916517
0.013547438
-1.7103226
0.010533389
-1.8362204
0.0079327286
-1.9690379
0.0057317527
-2.1093737
0.0038940185
-2.2570228
0.0023709557
-2.4108184
0.00109007
-2.5731535
-0.66285567
-0.57682346
-0.71317134
-0.63445117
-0.31127835
-0.66847148
0.19606604
-0.65996162
0.59302125
-0.60848689
0.70991332
-0.54473317
0.6319059
-0.47696457
0.39361174
-0.42156779
0.24601793
-0.37711473
0.21829598
-0.35781485
0.23161242
-0.37443143
0.25281355
-0.40239467
0.25980537
-0.44119891
0.24516916
-0.48580832
0.20922592
-0.52993218
0.15694057
-0.56864716
0.10365085
-0.60070401
0.065586875
-0.62874977
0.047424674
-0.6578445
0.044294287
-0.69277651
0.047800932
-0.73556801
0.051510414
-0.78573879
0.05268772
-0.8418711
0.051092566
-0.90268151
0.047507432
-0.96771164
0.042864622
-1.0373149
0.037874639
-1.1122669
0.03294822
-1.1935152
0.028266103
-1.2816292
0.023889391
-1.3770391
0.019842852
-1.4803428
0.016152262
-1.5916689
0.012846746
-1.7104634
0.0099486094
-1.83636
0.0074617909
-1.9690266
0.0053695083
-2.1091206
0.0036331831
-2.2565131
0.0022032017
-2.4099455
0.0010085637
-2.5720227
-0.59743518
-0.60440509
-0.62183311
-0.65829713
-0.24137284
-0.69367855
0.22361802
-0.68616057
0.57794884
-0.63585943
0.68061222
-0.57089498
0.59414135
-0.49824875
0.36277927
-0.43746278
0.22154798
-0.38996941
0.19952421
-0.35252064
0.22846029
-0.34824114
0.25908934
-0.37416253
0.27355506
-0.41155877
0.26331614
-0.45552335
0.22787695
-0.49963724
0.17049864
-0.53803376
0.10796042
-0.56812973
0.061843105
-0.59231723
0.039848936
-0.61633747
0.03724434
-0.6460732
0.043734157
-0.6842504
0.050734869
-0.73042879
0.054404112
-0.78295342
0.054291857
-0.84026683
0.051363872
-0.90149786
0.046847753
-0.96659652
0.041721875
-1.0361236
0.036576929
-1.1110612
0.03167672
-1.1924388
0.027094213
-1.2808564
0.022835082
-1.3766431
0.018906237
-1.4803403
0.015332209
-1.5919327
0.012144178
-1.7108477
0.009364044
-1.8367
0.0069930342
-1.9691699
0.0050107668
-2.1090332
0.0033762539
-2.2561388
0.0020388921
-2.4092657
0.00092916442
-2.571066
-0.67782371
-0.53157752
-0.6146419
-0.54456757
-0.17424277
-0.71474152
0.24824044
-0.70844345
0.56065354
-0.65985189
0.64725465
-0.59415269
0.54901944
-0.51697953
0.32310695
-0.44984602
0.18994645
-0.39865222
0.17684191
-0.36137278
0.21696437
-0.3344191
0.26493115
-0.34789552
0.28717764
-0.38351515
0.28215556
-0.42690587
0.24807618
-0.47120882
0.18582514
-0.50976636
0.11274573
-0.53831675
0.056917875
-0.55889445
0.02996134
-0.57787773
0.027691627
-0.60235172
0.037759418
-0.63594774
0.048859809
-0.67831138
0.055675911
-0.72749232
0.057465099
-0.78164807
0.055402383
-0.83958272
0.051063375
-0.90084694
0.045761544
-0.96574506
0.040331834
-1.0350895
0.035165587
-1.1099853
0.030365471
-1.1915459
0.025912816
-1.2802941
0.021779552
-1.3765012
0.017969301
-1.4805783
0.014512258
-1.5924333
0.011443123
-1.7114218
0.008782914
-1.8371897
0.0065292685
-1.9694497
0.0046577306
-2.1090368
0.003124797
-2.2559209
0.0018789365
-2.4087281
0.00085227766
-2.5702902
-0.73015491
-0.11122631
-0.69147614
-0.44487386
-0.62854257
-0.48502219
0.26927321
-0.72592783
0.54072231
-0.67951891
0.60925125
-0.61345429
0.49620482
-0.53248492
0.27362817
-0.45872281
0.14890382
-0.40153447
0.14908241
-0.36490242
0.2037631
-0.3414138
0.26254152
-0.32567446
0.30085459
-0.3575968
0.30166045
-0.39981962
0.26987357
-0.44448145
0.20319251
-0.48363317
0.11824065
-0.5110659
0.050845871
-0.528247
0.017588325
-0.54223205
0.015349793
-0.56137136
0.029648361
-0.59038334
0.045787882
-0.62909592
0.056508652
-0.67519894
0.060681764
-0.72650788
0.059729004
-0.78155599
0.055627298
-0.83955721
0.050091578
-0.90045566
0.044273548
-0.9649588
0.038751303
-1.0340964
0.033688035
-1.109021
0.029042691
-1.1908132
0.024735644
-1.2799435
0.020728898
-1.3765769
0.01703555
-1.4810529
0.013695389
-1.5931229
0.010746654
-1.7121398
0.0082081564
-1.8377762
0.0060730243
-1.9697944
0.0043123565
-2.1091632
0.0028801229
-2.2558154
0.0017241063
-2.4083556
0.00077823164
-2.5696515
-0.7376177
0.28656527
-0.73859277
-0.053432546
-0.7002526
-0.36329132
-0.64031151
-0.42632786
0.51778415
-0.6940189
0.56590816
-0.62775124
0.43574786
-0.54409842
0.21486675
-0.46491137
0.09816882
-0.40067695
0.11491952
-0.36132226
0.18945423
-0.34369026
0.26059735
-0.33292721
0.30725539
-0.3280536
0.32203039
-0.37501075
0.29314179
-0.41914464
0.22283427
-0.45943039
0.12471136
-0.48619103
0.043719347
-0.50023221
0.0025949111
-0.50920814
-7.1493504e-05
-0.52289557
0.019167381
-0.54731086
0.04143411
-0.58251921
0.056925286
-0.6258102
0.06402632
-0.67458216
0.064465034
-0.72709611
0.060677379
-0.782317
0.054838318
-0.83979863
0.048491373
-0.90003706
0.042474558
-0.96412725
0.037058585
-1.0331098
0.032192801
-1.1081421
0.027732167
-1.1902527
0.023572212
-1.2797921
0.019686909
-1.376886
0.016107349
-1.4817197
0.012884233
-1.5939702
0.010057611
-1.7129538
0.0076424894
-1.8384145
0.0056265789
-1.9702012
0.0039763181
-2.1093364
0.0026433599
-2.2558317
0.0015750205
-2.4080934
0.00070730538
-2.5691683
-0.70308124
0.49219315
-0.74375179
0.30153103
-0.7424158
-0.00060970848
-0.70663926
-0.28708639
-0.64971542
-0.36894481
0.51658371
-0.63625471
0.36809387
-0.55116756
0.14841357
-0.46881074
0.03964701
-0.39905144
0.073877831
-0.35354194
0.17439688
-0.33923253
0.26074343
-0.33713617
0.31495783
-0.33650109
0.33754054
-0.34059114
0.31771306
-0.3958921
0.24414475
-0.43601267
0.13205949
-0.46312228
0.035715213
-0.47474822
-0.015094312
-0.47872454
-0.018869291
-0.48672743
0.0060828993
-0.50649547
0.035729445
-0.53835364
0.056970303
-0.57908986
0.067596331
-0.62563231
0.069741348
-0.67594178
0.066365469
-0.72878298
0.060151717
-0.78342464
0.053103314
-0.83994448
0.046400909
-0.89943028
0.040489041
-0.96315249
0.035335122
-1.0321123
0.030721368
-1.1073845
0.026450244
-1.1898635
0.022427552
-1.2798486
0.018655305
-1.3773808
0.015186589
-1.4825611
0.01208126
-1.5949317
0.0093787349
-1.7138188
0.0070884423
-1.8390631
0.0051919483
-1.9705939
0.0036510688
-2.1095755
0.0024154239
-2.255924
0.0014321915
-2.407963
0.00063968396
-2.5688027
-0.63862677
0.46056868
-0.70640685
0.46376782
-0.74475635
0.31364936
-0.74342377
0.046805589
-0.71038685
-0.21653131
-0.65665426
-0.31311665
0.29441717
-0.55363341
0.076690121
-0.47059705
-0.023817572
-0.39799233
0.027264134
-0.34631251
0.15764095
-0.32964237
0.26504288
-0.33668647
0.32523161
-0.34318503
0.35486753
-0.35074845
0.34213095
-0.36129328
0.26536861
-0.41293471
0.13926793
-0.43978991
0.02598832
-0.45020011
-0.03556588
-0.45067696
-0.041333239
-0.45279598
-0.0098269484
-0.46775065
0.028632133
-0.49639225
0.056715442
-0.53484175
0.071502384
-0.57944604
0.075691542
-0.62786435
0.072849342
-0.67867842
0.066198264
-0.73093741
0.058253604
-0.78433818
0.050623215
-0.83969157
0.044010042
-0.89851152
0.038448365
-0.96203962
0.033651464
-1.0311428
0.029302902
-1.1067575
0.025205421
-1.1896606
0.021302985
-1.2800891
0.017634727
-1.3780603
0.014274837
-1.4835351
0.011288921
-1.5959683
0.0087126705
-1.7146942
0.0065483197
-1.8396711
0.0047709082
-1.9709744
0.003337819
-2.1098281
0.0021970699
-2.2561171
0.0012960073
-2.4079245
0.00057541894
-2.568579
-0.55192662
0.21666075
-0.63468172
0.39726817
-0.70379351
0.43170056
-0.7404651
0.3204314
-0.74162465
0.088633949
-0.71164492
-0.15164935
-0.660418
-0.25953187
0.0027058778
-0.47079769
-0.088138254
-0.39891546
-0.022223822
-0.34235924
0.1380271
-0.31946434
0.27379262
-0.33141692
0.34024345
-0.34737607
0.37418517
-0.35931076
0.36854862
-0.37330163
0.29402622
-0.38576809
0.14432699
-0.41477019
0.012033782
-0.42285276
-0.059898831
-0.42247801
-0.067724814
-0.42102713
-0.028845879
-0.43094347
0.020134149
-0.45648133
0.056268845
-0.49289704
0.075869015
-0.5358455
0.082445969
-0.58266135
0.080282067
-0.63176936
0.073151907
-0.68202425
0.064108333
-0.73285047
0.055262015
-0.784683
0.047674623
-0.83894063
0.041521454
-0.89729041
0.036468311
-0.96083381
0.032058645
-1.0302536
0.027952725
-1.1063
0.023998961
-1.1896422
0.020197181
-1.2805087
0.016625126
-1.3788823
0.013373795
-1.484618
0.010509725
-1.597037
0.0080619331
-1.715533
0.0060242249
-1.8402149
0.0043649874
-1.9713122
0.0030375679
-2.1101386
0.0019888641
-2.2563749
0.0011667843
-2.4079986
0.00051460067
-2.5684581
-0.47012157
-0.07025007
-0.54695815
0.13786856
-0.6263538
0.32822238
-0.69426282
0.39437138
-0.73107757
0.31958028
-0.73541283
0.12294213
-0.70862879
-0.093537116
-0.65978435
-0.20984939
-0.15029558
-0.40127896
-0.071983038
-0.34300232
0.11578391
-0.31281455
0.28495083
-0.32353672
0.36171886
-0.34847462
0.39627936
-0.36616678
0.39653328
-0.38328306
0.32405361
-0.39900497
0.16507579
-0.40332403
-0.0077965957
-0.39214474
-0.090899342
-0.38866896
-0.098095274
-0.38904694
-0.051222472
-0.396029
0.010200431
-0.41845758
0.055769863
-0.45313316
0.080834645
-0.49468047
0.090124647
-0.54015139
0.088801462
-0.58785051
0.081182166
-0.63645391
0.070846777
-0.68513876
0.060463659
-0.73403445
0.051560918
-0.78427301
0.044557188
-0.83766389
0.039117743
-0.89582912
0.034634816
-0.95962453
0.030584405
-1.029491
0.026673296
-1.1060317
0.022826911
-1.1898165
0.019107383
-1.281087
0.015626521
-1.3798419
0.012485288
-1.485764
0.0097461939
-1.5980963
0.0074289075
-1.7163118
0.00551802
-1.8406918
0.0039754589
-1.9716307
0.002751092
-2.1104655
0.0017912478
-2.2567065
0.0010448002
-2.4081462
0.00045754685
-2.5684692
-0.40527098
-0.20778883
-0.46966705
-0.13869518
-0.53968627
0.060109089
-0.61340906
0.25571368
-0.67821401
0.35036099
-0.71556266
0.30937329
-0.72283712
0.14762825
-0.70065067
-0.042754822
-0.65568574
-0.16514494
-0.12054206
-0.34656925
0.091163801
-0.31104071
0.29562163
-0.31631091
0.38948996
-0.34680014
0.42229912
-0.37108399
0.42585941
-0.39135348
0.35527294
-0.41006258
0.18628653
-0.41693874
-0.012972238
-0.39539856
-0.12915373
-0.35091383
-0.13190491
-0.35199291
-0.075794654
-0.36204735
-0.0011780517
-0.38230075
0.055402826
-0.41543171
0.086549013
-0.45584075
0.098830929
-0.50017168
0.098517343
-0.54671974
0.090441908
-0.59400064
0.078652885
-0.64092405
0.066397259
-0.68735628
0.055774952
-0.734186
0.047577611
-0.78308041
0.041549468
-0.83595788
0.036938902
-0.89424062
0.03299712
-0.95848131
0.029234723
-1.0289214
0.025457041
-1.1059816
0.021681968
-1.1901745
0.018030412
-1.2818139
0.014639197
-1.3808902
0.011611459
-1.4869404
0.0090008732
-1.5991198
0.0068158093
-1.7170338
0.0050313115
-1.8410965
0.0036033655
-1.9719304
0.0024789978
-2.110837
0.0016045375
-2.2570787
0.00093018314
-2.4083896
0.00040433013
-2.5685787
-0.35251926
-0.16715752
-0.4111316
-0.25897106
-0.46879586
-0.2007406
-0.5302796
-0.01414899
-0.59681196
0.1825898
-0.65673814
0.30037157
-0.69455483
0.29067065
-0.70535507
0.16273416
-0.68808265
-0.00042466939
-0.64851639
-0.12637128
0.066360202
-0.31441324
0.30326947
-0.31144997
0.42132732
-0.34355852
0.45298406
-0.37397328
0.45638288
-0.39735848
0.38723862
-0.418785
0.2080209
-0.42845772
-0.016289324
-0.41079705
-0.160701
-0.36093294
-0.16867639
-0.3114701
-0.099249422
-0.32628781
-0.013170454
-0.34788996
0.055356674
-0.37977655
0.093185418
-0.41923299
0.10864847
-0.46259404
0.1095029
-0.50817946
0.101052
-0.5544382
0.087703621
-0.59997411
0.073250021
-0.64435806
0.060451858
-0.68828967
0.050627613
-0.7332671
0.043720945
-0.78120864
0.038870776
-0.8339658
0.035068899
-0.89263963
0.031568584
-0.95750871
0.02799758
-1.0285838
0.024289922
-1.1061552
0.020555681
-1.1907077
0.016963593
-1.2826573
0.013664095
-1.3820065
0.010754668
-1.4881141
0.0082762649
-1.6001099
0.0062246166
-1.7176897
0.0045654618
-1.841475
0.0032495131
-1.972234
0.0022217408
-2.1112241
0.0014289292
-2.2575168
0.00082280944
-2.4086892
0.00035474719
-2.5688211
-0.31998478
0.041158299
-0.36090934
-0.21126544
-0.41722128
-0.30319595
-0.46736193
-0.25481425
-0.5196461
-0.082493675
-0.57772977
0.11177573
-0.63179851
0.24643812
-0.66959378
0.26441319
-0.68385959
0.16882083
-0.67199555
0.033004246
-0.63889946
-0.093776873
0.30805987
-0.31192681
0.45438644
-0.33984623
0.48806941
-0.37503886
0.48796661
-0.40121436
0.41924854
-0.42475874
0.22884321
-0.43620779
-0.018108065
-0.42374624
-0.19046108
-0.37801131
-0.21048179
-0.3165232
-0.1203987
-0.28823145