/*--------------------------------*- C++ -*----------------------------------*\
| =========                 |                                                 |
| \\      /  F ield         | OpenFOAM: The Open Source CFD Toolbox           |
|  \\    /   O peration     | Version:  v2012                                 |
|   \\  /    A nd           | Website:  www.openfoam.com                      |
|    \\/     M anipulation  |                                                 |
\*---------------------------------------------------------------------------*/
FoamFile
{
    version     2.0;
    format      ascii;
    class       volVectorField;
    location    "55.9286885804231488";
    object      U;
}
// * * * * * * * * * * * * * * * * * * * * * * * * * * * * * * * * * * * * * //

dimensions      [0 1 -1 0 0 0 0];


internalField   nonuniform List<vector> 
9200
(
(2.7562335 0.0094475046 -1.7707778e-22)
(2.7659241 0.030110777 1.3283956e-20)
(2.7242149 0.013433821 -1.660678e-22)
(2.7813096 0.049834333 8.9063918e-21)
(2.7313469 0.046156305 2.8237008e-20)
(2.6990375 0.014605292 2.5750366e-22)
(2.8052697 0.071080337 -2.2705123e-20)
(2.7429073 0.077257727 -1.8958494e-21)
(2.7032739 0.050754156 1.5135911e-20)
(2.6698403 0.015276084 6.7243664e-21)
(2.8369231 0.093331504 -2.596223e-20)
(2.7606649 0.11320371 -1.0037741e-20)
(2.7102083 0.084865957 -1.7120518e-20)
(2.6712201 0.05342924 -7.3673619e-21)
(2.6418877 0.015015331 5.0655877e-21)
(2.8774773 0.11735938 2.7102984e-20)
(2.7843065 0.15371766 -3.7222777e-21)
(2.7201944 0.1245077 2.6227601e-21)
(2.6734511 0.088983447 -1.106162e-20)
(2.6407486 0.052498625 -1.5711483e-20)
(2.6159554 0.014124919 -1.0342164e-20)
(2.927613 0.14262162 3.0190958e-20)
(2.8147702 0.20170939 4.9678653e-20)
(2.7326522 0.16934854 3.4522664e-20)
(2.6758137 0.13003847 4.2401596e-21)
(2.6388349 0.086797748 6.6645032e-21)
(2.6128939 0.049263269 -3.914751e-21)
(2.5929896 0.012802329 3.041135e-21)
(2.9902661 0.16840378 2.3372798e-20)
(2.8534538 0.25865519 3.9799524e-21)
(2.7472695 0.22276607 -5.231914e-21)
(2.6775042 0.17589031 1.5867955e-20)
(2.6346542 0.12567208 5.8043942e-21)
(2.6078848 0.0807202 2.4324357e-21)
(2.5885993 0.044470415 6.9706516e-21)
(2.5733266 0.011250204 2.0070652e-21)
(3.0690805 0.19283586 -1.3146372e-21)
(2.9052371 0.32679765 9.2833043e-21)
(2.7639 0.28682013 -4.205712e-20)
(2.6772763 0.22975322 -6.473742e-21)
(2.6273789 0.16780322 3.1717319e-21)
(2.599042 0.11550684 -5.6446837e-21)
(2.5815361 0.072141566 -3.0428909e-22)
(2.5681496 0.038880281 1.3790839e-21)
(2.5569809 0.0096204052 -3.1135941e-21)
(3.1433237 0.2141212 1.3919362e-20)
(2.9738409 0.40768054 1.6443759e-21)
(2.7844357 0.36507579 -2.1103326e-20)
(2.6736025 0.29330607 -5.2072413e-21)
(2.6152806 0.21556599 7.713342e-21)
(2.5858057 0.15176905 6.0020995e-21)
(2.5697767 0.10188181 -8.3370646e-21)
(2.5599547 0.062411304 -8.0920669e-21)
(2.551451 0.033045819 -3.5810118e-21)
(2.543752 0.0080201295 6.1629365e-22)
(3.1472665 0.22978339 -1.1222313e-21)
(3.0380775 0.50458283 2.3104728e-20)
(2.8088109 0.46215425 2.4124857e-21)
(2.6651822 0.36952847 3.006063e-20)
(2.5962368 0.26940136 -5.4519852e-21)
(2.5665314 0.19102827 1.2708246e-20)
(2.5531727 0.13151353 2.2717912e-20)
(2.5467535 0.086921639 3.3717515e-21)
(2.5428333 0.052467669 7.4066994e-22)
(2.538193 0.027352746 1.1922554e-22)
(2.5333199 0.0065164807 2.385874e-22)
(3.0353478 0.25514622 -2.2458559e-20)
(3.0388536 0.62797159 2.6266835e-20)
(2.8121521 0.58619602 -7.6740931e-21)
(2.6500933 0.46291362 4.4376599e-21)
(2.5674373 0.33029617 5.1679199e-21)
(2.5394929 0.23268044 -8.1865309e-21)
(2.5304226 0.1619167 -1.9512903e-22)
(2.5288288 0.11014041 2.5245794e-21)
(2.5292698 0.072011695 -6.6418641e-22)
(2.5296566 0.042932769 -5.5023777e-22)
(2.5279555 0.022039299 7.5242298e-22)
(2.5253161 0.0051459036 2.5854444e-22)
(2.7785396 0.28930773 4.2671152e-20)
(2.8354387 0.76132337 9.3933017e-20)
(2.7386727 0.7379349 -2.0837678e-20)
(2.6160235 0.57776918 -2.4347545e-20)
(2.5262491 0.39929694 -1.4738904e-20)
(2.5024484 0.27624586 -2.4262627e-21)
(2.5004738 0.19191617 -2.4931824e-20)
(2.5052908 0.13254075 -4.4753283e-21)
(2.5114113 0.08950032 -4.072204e-21)
(2.5164609 0.058008476 2.8439025e-22)
(2.5198278 0.034166085 -2.4836406e-21)
(2.5202885 0.017234882 7.7305493e-22)
(2.5193703 0.0039231032 -5.274504e-22)
(2.4502415 0.32261513 -7.8615801e-20)
(2.5430407 0.88929807 -1.4737644e-20)
(2.5614366 0.88860956 -3.7047534e-22)
(2.5288046 0.70353078 1.4048215e-20)
(2.4685803 0.47733976 1.7568854e-20)
(2.4532181 0.32025544 1.9451782e-21)
(2.4621024 0.22050065 -7.4591097e-21)
(2.4757194 0.1527736 -1.4501277e-20)
(2.4887357 0.10517113 2.4194988e-21)
(2.49953 0.070622699 -4.0512273e-22)
(2.5074467 0.045360228 -6.1052e-22)
(2.512762 0.02634274 -2.0568998e-22)
(2.5147562 0.012993559 -2.9887425e-22)
(2.5151346 0.0028494321 4.6545396e-22)
(2.0945982 0.35077016 8.2301352e-20)
(2.1989861 1.0049373 -1.1899289e-19)
(2.2911964 1.018957 9.055318e-20)
(2.3562601 0.8164681 -1.0355566e-20)
(2.3806929 0.55721238 8.2666876e-21)
(2.3901895 0.36320308 1.1780171e-20)
(2.4142805 0.24563984 1.8633325e-20)
(2.4396896 0.16979864 -1.3897997e-21)
(2.4613117 0.11774608 4.5157103e-21)
(2.4786255 0.080879282 -2.5721718e-21)
(2.4919119 0.05395642 2.0775084e-21)
(2.5014352 0.034247269 -6.0138469e-21)
(2.5079263 0.019515936 3.3272844e-21)
(2.5109611 0.0093202368 -2.2375592e-21)
(2.5122877 0.0019218153 1.955233e-21)
(1.7502505 0.3733531 5.5239844e-20)
(1.8417158 1.1029247 5.8755118e-20)
(1.9820253 1.127908 0)
(2.1137042 0.90233302 0)
(2.2426394 0.61997076 -1.1789113e-20)
(2.3106917 0.40129918 -1.2607645e-20)
(2.3564518 0.26502183 -5.4086847e-21)
(2.3971739 0.18185315 2.5244686e-20)
(2.4292315 0.12636412 1.6268231e-20)
(2.4541452 0.087690867 8.1904751e-22)
(2.4731833 0.059976434 -1.2948133e-20)
(2.4875003 0.03960243 6.2995743e-22)
(2.4977516 0.02468302 7.1935661e-21)
(2.5048578 0.013664806 -6.5806402e-21)
(2.5085543 0.0061895943 -3.5744708e-21)
(2.5105505 0.0011407801 5.5322344e-21)
(1.4482805 0.39326979 8.2957091e-20)
(1.5038784 1.1810806 5.5535084e-20)
(1.6735258 1.2120052 1.814287e-20)
(1.8427383 0.95894709 0)
(2.0529219 0.64867093 4.7710818e-21)
(2.2091909 0.42428381 2.5513377e-21)
(2.2891409 0.27588399 -1.6052019e-20)
(2.3485486 0.18706565 1.0814178e-20)
(2.3930052 0.12969591 5.8887682e-21)
(2.4264801 0.090438644 -4.7137856e-21)
(2.4518516 0.062563165 3.815374e-21)
(2.4710434 0.042371394 -5.533003e-21)
(2.4854506 0.027464569 2.2051258e-21)
(2.4958416 0.016585675 2.4624793e-22)
(2.5031669 0.0087261696 -4.6221216e-21)
(2.5072368 0.0035613845 8.3108244e-21)
(2.5097099 0.00051175044 1.3669157e-21)
(1.2091092 0.41339016 1.4625214e-19)
(1.2092937 1.2376912 6.1492942e-20)
(1.3946105 1.2701517 -1.6449645e-19)
(1.5821734 0.98583295 -5.3172029e-20)
(1.8386308 0.64049837 2.2019981e-20)
(2.0821714 0.41824842 9.3558062e-21)
(2.2138796 0.27432416 9.3619143e-21)
(2.2948549 0.18336762 -2.4147104e-20)
(2.353517 0.12659897 3.0918762e-21)
(2.3963716 0.088205685 1.2304031e-20)
(2.4284492 0.0613203 -3.0486146e-21)
(2.4527479 0.041922964 -6.505601e-21)
(2.4711823 0.027775055 6.1119958e-21)
(2.4851091 0.017347914 1.4431549e-21)
(2.4952611 0.0098247233 -1.3357454e-21)
(2.5025345 0.0046145719 -8.3181873e-22)
(2.5067571 0.0013842152 3.2344618e-21)
(2.5095418 4.2163473e-05 -1.3371926e-20)
(1.0431667 0.436381 -3.3934329e-19)
(0.9769888 1.2762933 -2.6114948e-21)
(1.1647862 1.3017394 1.7079222e-19)
(1.3534718 0.98447379 5.1833344e-20)
(1.6328131 0.60182089 4.1692813e-21)
(1.9371178 0.3763556 -3.315649e-22)
(2.1321766 0.25438316 -5.4163671e-21)
(2.2383028 0.16914206 9.1807578e-21)
(2.3120684 0.1159092 -5.4744108e-21)
(2.3648041 0.080401183 8.4835705e-21)
(2.403778 0.055669287 -2.2517202e-21)
(2.4331913 0.038032778 5.393707e-21)
(2.4556552 0.025186224 -4.8549032e-21)
(2.4728542 0.015822371 3.0089217e-21)
(2.4859795 0.0090196689 -6.3751728e-21)
(2.4956618 0.0042497 -2.4580735e-21)
(2.5027029 0.0012363033 4.8782216e-21)
(2.5069217 -0.0004081087 -5.3555165e-21)
(2.5098362 -0.00026796483 -1.4689543e-21)
(0.94644182 0.46411068 -4.5238871e-22)
(0.82440912 1.3009586 2.4901799e-21)
(0.99173103 1.3117614 3.7284973e-19)
(1.1668034 0.95948588 -1.3335058e-19)
(1.4569704 0.5396744 -1.7176611e-19)
(1.7924206 0.30239759 1.7939718e-20)
(2.0464165 0.21046485 4.4954561e-21)
(2.1821994 0.14317271 9.8232682e-21)
(2.2703882 0.096894489 -2.308525e-20)
(2.3330273 0.0665437 2.0623604e-20)
(2.3787549 0.045387796 -6.4074955e-21)
(2.4131463 0.030376749 1.2302149e-21)
(2.4394445 0.019597342 2.5724128e-21)
(2.4597717 0.011759805 2.3156343e-21)
(2.4755265 0.0061419875 -2.5134904e-22)
(2.4876892 0.002243069 3.6540117e-21)
(2.4967725 -0.00029457287 4.3082159e-21)
(2.5034601 -0.0015020141 1.6012792e-21)
(2.5075986 -0.0018710336 1.8751164e-21)
(2.5105112 -0.00054016791 6.4757248e-21)
(0.90479519 0.49591501 1.7935867e-19)
(0.74628582 1.3166641 -2.4378914e-21)
(0.87531012 1.3065196 -2.4488911e-19)
(1.0267889 0.91607985 -1.6748059e-19)
(1.3213331 0.45932656 -7.7055e-22)
(1.6669932 0.20520224 9.6640493e-20)
(1.9624101 0.14158356 6.0731302e-23)
(2.1298822 0.10436017 -1.1904826e-20)
(2.2307112 0.06951982 1.453345e-20)
(2.3024586 0.046585937 6.1198399e-22)
(2.3544248 0.030381729 7.5927285e-21)
(2.3934157 0.018976166 7.1569427e-22)
(2.42325 0.010871787 1.6219315e-21)
(2.4464027 0.0051386012 -6.5698948e-21)
(2.4645571 0.0010918461 1.0004287e-20)
(2.4788158 -0.0016171415 -7.7143679e-21)
(2.4899582 -0.0032128494 5.2568099e-21)
(2.4983817 -0.0039585327 4.1641571e-21)
(2.5046397 -0.0036949532 2.2802113e-21)
(2.5086509 -0.0030371002 0)
(2.5114518 -0.00083999989 3.2075599e-21)
(0.9065839 0.53333765 8.6873484e-20)
(0.71139904 1.3267348 -9.5876378e-21)
(0.80714206 1.2932637 -2.7121381e-19)
(0.94203507 0.85898014 1.4777217e-19)
(1.2308814 0.36470699 -1.304787e-19)
(1.5734928 0.093417779 1.2380148e-19)
(1.8890819 0.052553185 -8.5128328e-21)
(2.0841337 0.052361999 1.104887e-20)
(2.195611 0.034644899 -1.1855179e-20)
(2.2745635 0.020866211 -3.6707559e-21)
(2.3318557 0.010995104 2.0557741e-20)
(2.374834 0.0039452378 -1.1810926e-20)
(2.4077458 -0.00083770893 -3.9201458e-21)
(2.4333509 -0.0040545014 -6.767571e-22)
(2.4535394 -0.0061152866 -4.1967375e-21)
(2.469634 -0.0073206354 5.7225234e-21)
(2.4824526 -0.0077820849 -5.558578e-21)
(2.4925859 -0.0075592441 -4.7761375e-23)
(2.5003294 -0.0068760758 -5.4262717e-21)
(2.5061188 -0.0054390331 0)
(2.5099407 -0.0039530716 6.157556e-21)
(2.5126008 -0.0010802604 2.5547097e-21)
(0.94870163 0.57623704 -8.5353773e-20)
(0.69616451 1.3315532 2.4955996e-20)
(0.78731154 1.2748379 -1.4268731e-19)
(0.90362239 0.79244014 9.9194799e-19)
(1.1867832 0.25952383 1.7456975e-20)
(1.5178276 -0.026314308 -1.3851909e-19)
(1.8348022 -0.049619796 2.1279199e-20)
(2.0476575 -0.01125133 6.8192541e-21)
(2.1673365 -0.0063855266 8.686376e-21)
(2.2506144 -0.0097354128 7.1640794e-21)
(2.3119752 -0.012336673 3.5180947e-21)
(2.3581164 -0.014361901 1.0062054e-20)
(2.393564 -0.015366254 4.6723316e-21)
(2.4211781 -0.015615789 -8.6057765e-21)
(2.4430197 -0.015399288 2.5392169e-22)
(2.460552 -0.014808696 1.3428425e-20)
(2.4747723 -0.013889058 -1.8225454e-20)
(2.4862601 -0.012627077 3.6672292e-21)
(2.4954293 -0.010982853 -3.0421954e-21)
(2.5024956 -0.0091705852 2.2207985e-22)
(2.5078007 -0.0068115824 -3.2505602e-21)
(2.511382 -0.0046680538 6.4378916e-21)
(2.513885 -0.0012582901 3.8937547e-21)
(1.0240006 0.62180797 6.4384023e-20)
(0.71580686 1.3310321 1.0721734e-21)
(0.8202939 1.2461951 3.3613232e-19)
(0.91339159 0.7186947 -6.5926163e-19)
(1.1870514 0.14807194 -2.1789132e-19)
(1.5013998 -0.14819714 -2.8429844e-19)
(1.8049432 -0.1575738 -8.3443158e-21)
(2.0229412 -0.083175763 -1.6272365e-20)
(2.1472475 -0.052156242 2.9189212e-21)
(2.2317355 -0.043922924 6.7178625e-21)
(2.2955124 -0.038835949 1.4349014e-20)
(2.3438379 -0.035438049 -2.3554899e-21)
(2.3812293 -0.032319259 -1.0963729e-20)
(2.4103932 -0.029307501 -7.8554439e-21)
(2.4334604 -0.026501267 1.2188366e-20)
(2.4520525 -0.023928795 2.4741735e-21)
(2.4672805 -0.021458169 2.5941992e-21)
(2.4798422 -0.018969859 2.6850911e-21)
(2.4901199 -0.016396052 -3.1415796e-22)
(2.4983834 -0.013650326 -9.2650283e-21)
(2.50479 -0.010954581 4.2927044e-21)
(2.509609 -0.0078777455 4.5733019e-22)
(2.5129198 -0.0052198909 -1.1092819e-21)
(2.5152529 -0.0013888125 -4.3244755e-21)
(1.1098792 0.6637622 3.7654792e-20)
(0.80353846 1.3261036 -7.7208012e-20)
(0.89982617 1.2036049 2.0401386e-19)
(0.98776808 0.63776698 -2.5676534e-19)
(1.2320382 0.033250007 5.9135737e-19)
(1.521627 -0.26758101 1.0529356e-19)
(1.8014129 -0.26429517 -4.9809164e-20)
(2.0122304 -0.15859242 3.8474496e-21)
(2.1359375 -0.10068263 3.7290146e-20)
(2.2186723 -0.080025599 1.2219343e-20)
(2.2829174 -0.067414526 -1.1130052e-20)
(2.3324636 -0.058530938 -1.6612062e-21)
(2.3711564 -0.051211777 -9.5263001e-21)
(2.4014126 -0.044748042 -9.2174289e-21)
(2.4252885 -0.039167773 -7.5354623e-21)
(2.4445134 -0.03441627 -1.5952005e-21)
(2.4603677 -0.030290854 6.3635298e-21)
(2.4736386 -0.02650566 -8.8922926e-21)
(2.4847622 -0.022865288 9.2900031e-21)
(2.4939543 -0.019297635 1.1094242e-20)
(2.5013762 -0.015705446 1.1711136e-20)
(2.507148 -0.012325766 9.5270528e-21)
(2.5114872 -0.0086954071 3.2730782e-21)
(2.5145117 -0.0056402875 -7.3264186e-21)
(2.5166655 -0.0014828693 9.5554793e-21)
(1.1995272 0.70039288 -5.1433753e-20)
(0.90828034 1.3166951 5.1323332e-20)
(1.0125378 1.1516632 5.3751145e-19)
(1.1173991 0.55226975 4.5172247e-19)
(1.3232468 -0.080845216 9.9982636e-20)
(1.5734419 -0.3803432 -1.6308034e-19)
(1.8229916 -0.36490379 -5.8523328e-20)
(2.0162154 -0.23259301 -5.9809244e-20)
(2.1334825 -0.14944557 -3.0933918e-20)
(2.2116921 -0.11635139 -1.1662038e-20)
(2.2743507 -0.09692455 1.5602646e-20)
(2.324144 -0.082877067 2.2091031e-21)
(2.3635557 -0.071497885 -4.2080916e-21)
(2.3945116 -0.061555251 5.2858539e-21)
(2.4188167 -0.053052928 -3.5725044e-21)
(2.4382776 -0.045996087 -1.9719661e-21)
(2.4543465 -0.040112905 -7.7485924e-21)
(2.467964 -0.035005433 -4.9147169e-21)
(2.479609 -0.030310482 3.0376865e-21)
(2.4894961 -0.025825403 -1.5457664e-20)
(2.4977166 -0.021507715 -7.2837944e-21)
(2.504358 -0.017269889 7.5541137e-21)
(2.5095227 -0.013366198 -4.7491636e-21)
(2.5133937 -0.0093132862 -1.6767989e-22)
(2.5161253 -0.0059547006 -3.7101703e-21)
(2.5180938 -0.0015485156 2.5495211e-21)
(1.2904773 0.73035757 3.63145e-21)
(1.0323179 1.3015751 1.7204061e-19)
(1.1539345 1.0936617 -6.5232897e-20)
(1.2719422 0.46669826 -5.2555311e-19)
(1.4518999 -0.18644551 -3.7105672e-19)
(1.652648 -0.48188681 6.6928531e-20)
(1.866429 -0.45608772 8.8364671e-20)
(2.034051 -0.30132719 -4.728257e-20)
(2.1393094 -0.19603967 -4.6242411e-20)
(2.2103983 -0.15140698 -3.5475237e-20)
(2.2696454 -0.12623728 -6.4850558e-21)
(2.3187637 -0.10773052 1.0663146e-20)
(2.358437 -0.092650725 4.3858894e-21)
(2.3898157 -0.079322441 1.4751994e-21)
(2.4142688 -0.067827055 5.4935805e-21)
(2.4336071 -0.058336805 -6.1396816e-21)
(2.449493 -0.050634362 -2.9003152e-21)
(2.4630647 -0.044191401 9.5229939e-21)
(2.4749037 -0.038487197 -1.2041695e-20)
(2.4852115 -0.03316148 -3.8086375e-21)
(2.494033 -0.028054312 -4.1280175e-22)
(2.5013793 -0.023171234 -1.2858105e-20)
(2.5072953 -0.018443912 -5.7886477e-21)
(2.5118808 -0.014142372 -1.0245094e-20)
(2.5152978 -0.0097704044 -7.1445512e-21)
(2.517736 -0.0061830116 -7.4061631e-21)
(2.5195162 -0.0015916461 -9.0259406e-21)
(1.3812316 0.75283813 1.8925522e-21)
(1.1706926 1.2803773 4.9997426e-20)
(1.3164577 1.0297657 -7.8741989e-19)
(1.4477437 0.38212603 8.10509e-21)
(1.6029585 -0.280144 2.1674799e-19)
(1.7545981 -0.56900526 6.071936e-20)
(1.9271844 -0.53571566 9.6473741e-20)
(2.0639637 -0.36208732 1.5850188e-19)
(2.1523655 -0.23837771 -4.5953023e-20)
(2.2140038 -0.18390542 3.5737902e-20)
(2.2683592 -0.15432678 -9.809948e-21)
(2.3159979 -0.13240378 -9.4959306e-21)
(2.3556382 -0.11418167 -3.1886103e-22)
(2.3873128 -0.097696577 2.2304196e-21)
(2.4117607 -0.083173899 -2.7359906e-22)
(2.4306963 -0.071134216 -1.0606273e-20)
(2.4460187 -0.061525515 -3.9922261e-22)
(2.4591501 -0.053765124 1.0575193e-20)
(2.4708276 -0.047122808 5.797559e-21)
(2.4812787 -0.041059119 -1.9671475e-21)
(2.4904833 -0.035285619 1.0647921e-20)
(2.4983757 -0.029714481 8.0465007e-21)
(2.5049273 -0.0244044 1.0053814e-20)
(2.5101652 -0.019307862 -1.848609e-22)
(2.5141982 -0.014706747 -7.7863671e-21)
(2.5171773 -0.010097162 -9.5681796e-21)
(2.5193253 -0.0063405639 -1.6090092e-21)
(2.5209164 -0.0016165678 -5.2701986e-22)
(1.470967 0.76816214 1.0068579e-21)
(1.3174654 1.25306 -8.7569377e-20)
(1.4906239 0.9630093 3.7369444e-19)
(1.6381337 0.3006013 -1.5807971e-19)
(1.7671728 -0.36240525 -4.0712039e-19)
(1.8723848 -0.64039409 2.4837847e-19)
(2.0001436 -0.60256251 0)
(2.1036319 -0.4131145 4.5520871e-20)
(2.1712662 -0.27487884 -6.6928795e-21)
(2.2214869 -0.21282847 -2.1713444e-20)
(2.2698304 -0.1803749 1.6414446e-20)
(2.3153592 -0.15631106 -4.7497197e-21)
(2.354845 -0.13569316 9.0525998e-21)
(2.386867 -0.11639266 3.913331e-21)
(2.4113155 -0.098846847 -1.4595959e-21)
(2.4296711 -0.084109968 -3.5638281e-22)
(2.4440893 -0.072481774 2.5923869e-22)
(2.4563762 -0.063394436 6.38871e-21)
(2.4675236 -0.055919902 3.5096352e-22)
(2.477819 -0.049260359 -5.1773138e-21)
(2.4871886 -0.042963188 6.9681295e-21)
(2.4954664 -0.036856062 -1.5264056e-21)
(2.5025332 -0.030932111 -2.5338609e-21)
(2.5083527 -0.025298167 1.9883604e-21)
(2.5129526 -0.019924569 -5.2560057e-21)
(2.5164582 -0.015099974 -1.075315e-20)
(2.5190157 -0.010316975 7.6900698e-21)
(2.5208793 -0.0064391034 1.2328034e-20)
(2.5222823 -0.0016264614 -6.6840579e-21)
(1.5589375 0.77732754 1.5643259e-20)
(1.4675444 1.2190078 -1.9389367e-19)
(1.6690449 0.89491762 1.6374871e-19)
(1.8310255 0.2244957 -1.1534252e-19)
(1.9369849 -0.43243822 3.4730712e-20)
(1.9990279 -0.69521151 1.4066948e-19)
(2.0807969 -0.65537469 -2.2405405e-19)
(2.1504828 -0.45343809 2.4433205e-20)
(2.1945004 -0.30449582 3.5637183e-20)
(2.2317434 -0.23745055 1.3983742e-20)
(2.2732681 -0.2037946 -7.7787043e-21)
(2.3162544 -0.17899952 8.3138707e-21)
(2.3556281 -0.15689758 -1.6094142e-21)
(2.3882399 -0.13521999 -7.9535443e-21)
(2.4128785 -0.11467989 -1.0716497e-20)
(2.4306059 -0.097053956 -3.9383545e-21)
(2.443831 -0.08321947 3.3075708e-22)
(2.4548658 -0.072762867 5.5534426e-21)
(2.4650858 -0.064550402 -4.2276254e-22)
(2.4749119 -0.057481697 1.0030168e-21)
(2.4842182 -0.050852707 2.4300325e-21)
(2.4927251 -0.044373377 -5.7963685e-21)
(2.5001996 -0.038001327 -1.2570438e-20)
(2.5065155 -0.031803034 1.5552573e-20)
(2.5116518 -0.02592225 9.8360319e-21)
(2.5156476 -0.020342173 -1.1718191e-20)
(2.5186488 -0.015353126 8.4646972e-21)
(2.5208013 -0.01044777 9.7383121e-21)
(2.5223875 -0.0064876228 -4.0166365e-22)
(2.5236047 -0.0016237316 0)
(1.6522645 0.78078557 -1.2044009e-21)
(1.6166446 1.1809503 -5.6852046e-20)
(1.8455359 0.82679554 -1.4996011e-19)
(2.0195033 0.1544699 1.0204625e-19)
(2.10497 -0.48975991 -2.2213982e-19)
(2.1284896 -0.73489872 -1.3127554e-19)
(2.1656514 -0.69632904 3.3398404e-20)
(2.201876 -0.48299183 -1.0577596e-20)
(2.2205383 -0.32671077 1.4585918e-20)
(2.243686 -0.25738442 1.2390484e-20)
(2.2778559 -0.22419711 -5.3415772e-20)
(2.3180448 -0.20015333 1.3515556e-20)
(2.3574912 -0.17761316 -8.0046487e-21)
(2.3911201 -0.15408731 -5.1741167e-21)
(2.4163354 -0.13060495 -4.0169613e-21)
(2.43354 -0.10983114 5.2660131e-21)
(2.4453488 -0.093508319 2.5486132e-21)
(2.4547166 -0.081562357 0)
(2.463577 -0.072692838 8.0013158e-24)
(2.472588 -0.065413452 2.9427264e-22)
(2.4815963 -0.058697147 2.9454917e-21)
(2.4901793 -0.05206207 3.0998813e-21)
(2.4979627 -0.045409684 2.7071816e-22)
(2.5047142 -0.038814607 2.3021805e-21)
(2.5103318 -0.032398742 -1.1645952e-21)
(2.514823 -0.026329205 1.2091786e-20)
(2.5182435 -0.020596981 -2.3432909e-21)
(2.5207618 -0.015489702 1.579784e-21)
(2.5225252 -0.010503223 -9.2880206e-21)
(2.5238421 -0.0064930616 6.5586426e-22)
(2.5248767 -0.001610245 2.7383395e-23)
(1.7540087 0.77715553 8.1654516e-20)
(1.7731984 1.1360341 -5.9733369e-20)
(2.0158944 0.76094408 5.0965489e-20)
(2.1981621 0.091012051 1.5022097e-20)
(2.2657953 -0.53541644 9.2610569e-20)
(2.2562316 -0.7619142 -8.55876e-20)
(2.2518519 -0.72506081 8.852897e-20)
(2.2551803 -0.50230204 -8.4545504e-20)
(2.2480134 -0.34135437 5.3535342e-20)
(2.2562667 -0.27248124 -5.1470048e-20)
(2.2828137 -0.24144538 5.747148e-20)
(2.3200957 -0.21959289 -3.7483603e-21)
(2.359912 -0.19775064 -3.8599113e-22)
(2.3951498 -0.17299544 -9.5609573e-21)
(2.421529 -0.14664888 -6.7650009e-22)
(2.4384924 -0.12239886 6.6002442e-21)
(2.4487442 -0.10317442 5.5757051e-21)
(2.45602 -0.089515023 4.6664326e-23)
(2.4630366 -0.080020982 -1.1492742e-23)
(2.4708427 -0.072748269 -4.495337e-22)
(2.4792975 -0.066221186 8.4499463e-21)
(2.4878108 -0.059700873 -3.053765e-21)
(2.4958201 -0.052985526 -3.6366847e-21)
(2.5029563 -0.04615232 9.1788347e-21)
(2.5090331 -0.039362572 7.414443e-21)
(2.5139896 -0.032771906 -1.5766371e-20)
(2.5178659 -0.026558147 -1.2699162e-20)
(2.5207364 -0.020716073 1.2548204e-20)
(2.5227916 -0.015527388 -5.803356e-21)
(2.5241815 -0.010493795 3.7354904e-21)
(2.5252377 -0.0064608706 2.7308168e-21)
(2.5260935 -0.0015875076 2.962839e-21)
(1.8592529 0.76773441 4.9692441e-20)
(1.9383974 1.0838293 -9.853644e-20)
(2.1897071 0.69780126 -3.9956385e-20)
(2.3631448 0.031925897 3.6877985e-21)
(2.4163527 -0.56973419 -9.2345383e-21)
(2.3787927 -0.77883048 -9.3620259e-20)
(2.3369575 -0.74234721 -8.3939408e-21)
(2.3080085 -0.51188361 4.1240769e-20)
(2.2760449 -0.34872562 -5.2806889e-21)
(2.2686176 -0.2829497 1.8630642e-20)
(2.287453 -0.2554338 3.9240465e-20)
(2.3218061 -0.23727334 6.0185317e-22)
(2.3623747 -0.21731105 -2.4901026e-20)
(2.3999464 -0.19202276 1.017662e-20)
(2.4282754 -0.16292957 9.5448443e-21)
(2.445474 -0.13479987 -3.8836689e-21)
(2.4541277 -0.11211451 -6.3358853e-21)
(2.4588777 -0.096373936 -2.5598929e-21)
(2.4634969 -0.086218171 4.3719254e-21)
(2.4696409 -0.079167401 -8.6971347e-22)
(2.4772547 -0.073154192 -5.75627e-21)
(2.485552 -0.067060985 8.7294508e-22)
(2.4937255 -0.06054753 -2.998507e-21)
(2.5012207 -0.05367633 -1.0974205e-20)
(2.5077423 -0.046654329 4.1997701e-21)
(2.5131722 -0.039692814 3.005795e-21)
(2.5174947 -0.03296106 -1.9885753e-23)
(2.520781 -0.026637931 -1.7269223e-20)
(2.5231237 -0.020719553 1.4022922e-20)
(2.5247343 -0.015479547 6.7377367e-21)
(2.5257655 -0.010427599 1.4522845e-20)
(2.52657 -0.0063954596 -5.7166159e-21)
(2.5272514 -0.0015567677 -2.2267288e-22)
(1.966621 0.7518508 -1.7852185e-19)
(2.1056374 1.0244755 1.6125321e-19)
(2.3666724 0.63714381 5.530814e-20)
(2.5278944 -0.012922557 2.3269473e-19)
(2.5525436 -0.59786388 8.0222328e-20)
(2.4942225 -0.78737945 3.4857313e-20)
(2.4188685 -0.74886167 1.3296509e-20)
(2.3587365 -0.51325473 1.4124491e-20)
(2.3040616 -0.34929409 -3.5751106e-20)
(2.2803993 -0.28874144 2.8476271e-20)
(2.2911588 -0.26636065 -4.0982731e-20)
(2.3226775 -0.2531793 2.1230026e-20)
(2.3643988 -0.23633787 1.4449498e-20)
(2.4051203 -0.21130754 9.7574382e-21)
(2.4363741 -0.17964055 9.8927504e-21)
(2.4544962 -0.14716963 -6.4441009e-21)
(2.4616358 -0.12028636 -2.1523872e-21)
(2.4634139 -0.10192752 -1.2600718e-21)
(2.4649941 -0.090974026 3.1427714e-21)
(2.4689274 -0.084351364 -2.2535103e-23)
(2.4753615 -0.079216897 -4.5459772e-21)
(2.4832908 -0.073926276 6.3462074e-21)
(2.4915877 -0.06791868 -3.8105554e-21)
(2.4994473 -0.061244142 0)
(2.5064283 -0.054162129 4.8987517e-21)
(2.5123422 -0.046951521 8.2739654e-21)
(2.5171419 -0.039839571 -1.1188444e-20)
(2.5208512 -0.032994268 4.1286011e-21)
(2.5235689 -0.026589705 7.8026984e-22)
(2.525404 -0.020622389 -8.2178914e-21)
(2.5265874 -0.015356413 -4.8285158e-21)
(2.5272742 -0.010311075 -7.3751099e-21)
(2.5278362 -0.0063005152 -6.3294252e-21)
(2.5283481 -0.0015190809 -2.7177521e-21)
(2.0751845 0.72982844 -2.8586778e-19)
(2.2718683 0.95956853 8.6846682e-21)
(2.539023 0.57141119 1.1110422e-19)
(2.6965762 -0.048755059 -2.3844968e-19)
(2.6830867 -0.61082888 -5.9559075e-20)
(2.5996181 -0.78945066 -1.8732908e-19)
(2.4965412 -0.74770739 -2.4349222e-22)
(2.4067099 -0.50701132 -2.5670812e-20)
(2.3303127 -0.34473791 2.2137315e-21)
(2.2924389 -0.29010127 -4.5844977e-20)
(2.293264 -0.27435689 1.2619843e-20)
(2.3222772 -0.26736716 1.1258273e-20)
(2.3655702 -0.25489777 7.9151721e-20)
(2.4102977 -0.23099965 -1.537699e-20)
(2.4456084 -0.1970299 -1.028635e-21)
(2.4655743 -0.15971887 1.5896032e-21)
(2.4714323 -0.12772553 4.4027875e-21)
(2.4697963 -0.10599614 2.7083554e-21)
(2.4675852 -0.093978062 0)
(2.4686348 -0.087970292 3.1865938e-21)
(2.4734764 -0.084130607 -5.4307187e-21)
(2.480869 -0.080082274 -5.5759969e-21)
(2.4892716 -0.074945479 1.0371531e-20)
(2.4975386 -0.068728322 5.6512237e-21)
(2.5050287 -0.061776814 -5.2360312e-22)
(2.5114652 -0.05445834 7.3499922e-21)
(2.5167678 -0.047069362 -4.9834878e-21)
(2.5209487 -0.039827754 3.1598961e-22)
(2.5240627 -0.032891915 1.4145278e-20)
(2.5262307 -0.026428947 1.6616724e-20)
(2.5275767 -0.020435845 -6.0319334e-21)
(2.5283491 -0.01516602 7.5756628e-21)
(2.5287055 -0.010149492 -5.6520084e-21)
(2.5290344 -0.0061791983 7.0720043e-21)
(2.5293823 -0.0014753315 3.846359e-23)
(2.184531 0.70138377 8.318805e-21)
(2.4344832 0.88997815 -2.494112e-19)
(2.7050136 0.505463 2.7992878e-19)
(2.8564395 -0.086289312 -4.1124912e-19)
(2.8180121 -0.61404819 -1.7478599e-20)
(2.7031267 -0.78575721 7.2274122e-20)
(2.566905 -0.7368052 -7.0107777e-21)
(2.451751 -0.49573248 8.5928015e-21)
(2.354773 -0.33541286 -7.0590584e-22)
(2.3013272 -0.28798553 2.1439903e-20)
(2.2928381 -0.27981829 -6.9472493e-22)
(2.3199005 -0.28008907 -6.878371e-20)
(2.3655226 -0.27309781 -3.4136047e-20)
(2.41512 -0.25128325 -8.7017856e-21)
(2.4557573 -0.21537468 -4.9834221e-22)
(2.478722 -0.17272047 9.1245353e-21)
(2.4837084 -0.13452541 1.4608516e-21)
(2.4782317 -0.10843908 1.5481263e-21)
(2.4713552 -0.094928168 4.0421639e-21)
(2.4686965 -0.089678748 3.4104734e-21)
(2.4714281 -0.08760446 -9.2879327e-21)
(2.478084 -0.085324991 -1.0364711e-21)
(2.4865965 -0.081489905 -1.2787822e-21)
(2.4953603 -0.076035733 -4.408081e-21)
(2.503455 -0.06941217 -4.0683089e-22)
(2.5104839 -0.062129123 9.0776825e-23)
(2.5163379 -0.054576429 -2.2350215e-20)
(2.5210247 -0.047027126 -9.4010451e-21)
(2.5245976 -0.039675615 -1.1335532e-21)
(2.5271321 -0.03266875 4.4393819e-21)
(2.5287675 -0.026167031 4.9485669e-21)
(2.5296415 -0.020168586 -4.4779193e-21)
(2.5300188 -0.014914883 1.7532718e-20)
(2.5300584 -0.0099473117 7.2716652e-21)
(2.5301638 -0.0060342708 2.6103587e-21)
(2.5303532 -0.0014262605 3.2404198e-21)
(2.2926026 0.66766325 1.6458532e-19)
(2.5908175 0.81688401 2.5782635e-20)
(2.8623679 0.43901253 1.4259687e-19)
(3.0065146 -0.12094535 8.147893e-19)
(2.949885 -0.6123529 -6.1958333e-20)
(2.8085308 -0.7763669 7.4611079e-20)
(2.6396528 -0.72573796 -3.2200803e-20)
(2.491581 -0.47623525 -7.1410424e-21)
(2.3770601 -0.32264541 6.3546594e-22)
(2.3079468 -0.28191714 3.2158755e-21)
(2.2925071 -0.28166705 2.3474566e-20)
(2.314409 -0.29173748 1.1360975e-20)
(2.3638788 -0.29108209 -6.0184761e-20)
(2.4192415 -0.27231108 7.5613874e-21)
(2.4665749 -0.23498869 1.7898467e-20)
(2.4939549 -0.18651268 1.2446782e-20)
(2.4986871 -0.1408298 3.1097921e-21)
(2.4889674 -0.10914762 -6.055352e-22)
(2.4764259 -0.093510033 -2.8234548e-21)
(2.4690431 -0.089120638 4.8061614e-21)
(2.4690204 -0.08934028 4.2418068e-22)
(2.4746919 -0.089451498 -2.5227417e-21)
(2.4833359 -0.087439025 -4.4960665e-21)
(2.4927384 -0.083102367 6.9406429e-21)
(2.5015921 -0.077024657 -3.4535667e-21)
(2.5093284 -0.069906567 -6.4925608e-21)
(2.5158038 -0.062292191 5.5405709e-21)
(2.5210448 -0.054527872 -6.8829937e-21)
(2.5251159 -0.046840025 -3.9721931e-22)
(2.5280921 -0.039396483 -3.6615035e-22)
(2.530062 -0.032335419 -1.5568572e-20)
(2.5311806 -0.025812478 -8.9167017e-21)
(2.5315988 -0.019827506 7.9830454e-22)
(2.531596 -0.014608521 -8.3524387e-21)
(2.5313324 -0.0097084645 -6.2693442e-22)
(2.5312238 -0.0058682172 -6.1613353e-21)
(2.531261 -0.0013724892 -6.8052731e-21)
(2.393471 0.62908037 -1.0220201e-19)
(2.7382667 0.74133918 1.0658332e-19)
(3.0092802 0.37314809 -5.070392e-19)
(3.1455366 -0.15312002 -5.630491e-19)
(3.0752344 -0.60733649 -8.1166022e-20)
(2.9114165 -0.76192121 -2.1665423e-20)
(2.7154304 -0.71006216 3.8541716e-20)
(2.5359626 -0.46129527 -4.0841897e-20)
(2.3957847 -0.30484706 -3.7560343e-22)
(2.3123166 -0.27238333 3.1085046e-21)
(2.2882318 -0.28169441 -3.0744309e-20)
(2.307254 -0.30156056 4.5099818e-20)
(2.3605333 -0.30894699 9.085512e-22)
(2.4224308 -0.29422302 2.1367048e-20)
(2.4778174 -0.25611718 -5.9556855e-22)
(2.5112587 -0.20146709 2.8602943e-20)
(2.5166115 -0.14686475 -9.3864482e-21)
(2.5023083 -0.10803403 -3.2602308e-21)
(2.4829545 -0.089418545 -7.3836187e-22)
(2.4696178 -0.085902418 1.4197178e-21)
(2.4660269 -0.089018273 4.6124521e-21)
(2.4704056 -0.092267944 -9.4760194e-21)
(2.4792189 -0.092700182 5.9355571e-21)
(2.4894597 -0.089904509 -5.6162357e-21)
(2.4992975 -0.084610855 8.5547894e-21)
(2.5079158 -0.077780535 0)
(2.5151181 -0.070174391 0)
(2.5209696 -0.062267982 -2.9625699e-22)
(2.5255824 -0.05432508 7.0807637e-21)
(2.5290438 -0.046520111 -6.8143449e-21)
(2.5314354 -0.038999937 4.0772642e-21)
(2.5328546 -0.031899651 -1.7384719e-21)
(2.5334711 -0.025371911 -3.1371633e-21)
(2.5334491 -0.019418379 1.6007392e-20)
(2.5330811 -0.014251822 -7.0375332e-21)
(2.5325275 -0.0094365503 4.1581929e-21)
(2.5322148 -0.0056833544 -3.4919065e-21)
(2.5321061 -0.0013145662 1.4138279e-20)
(2.4870973 0.58607719 2.9133181e-20)
(2.8742488 0.66421233 8.6390068e-20)
(3.1441638 0.30845814 -2.7315134e-21)
(3.2724898 -0.18260456 -8.304173e-19)
(3.19207 -0.59878039 6.7657565e-19)
(3.0108226 -0.74274119 8.3678069e-20)
(2.7904437 -0.68711089 1.4300675e-20)
(2.5821663 -0.44450767 -1.113799e-20)
(2.4192481 -0.28796223 1.4468163e-20)
(2.3144067 -0.25985499 6.1790233e-20)
(2.2813327 -0.27911743 2.5163505e-20)
(2.299405 -0.31093407 -1.9372402e-20)
(2.3553033 -0.32687931 2.9117352e-23)
(2.424396 -0.31706741 1.335412e-20)
(2.4892127 -0.2790912 -2.3173109e-20)
(2.530623 -0.2179577 -4.6679613e-20)
(2.5377162 -0.15285067 -3.4099844e-21)
(2.5185878 -0.10508518 1.1123567e-21)
(2.4911483 -0.082334459 1.1657958e-22)
(2.4703785 -0.079618565 -6.605422e-21)
(2.462206 -0.086304463 2.9300748e-21)