/*--------------------------------*- C++ -*----------------------------------*\
| =========                 |                                                 |
| \\      /  F ield         | OpenFOAM: The Open Source CFD Toolbox           |
|  \\    /   O peration     | Version:  v2012                                 |
|   \\  /    A nd           | Website:  www.openfoam.com                      |
|    \\/     M anipulation  |                                                 |
\*---------------------------------------------------------------------------*/
FoamFile
{
    version     2.0;
    format      ascii;
    class       surfaceVectorField;
    location    "55.9286885804231488";
    object      Uf;
}
// * * * * * * * * * * * * * * * * * * * * * * * * * * * * * * * * * * * * * //

dimensions      [0 1 -1 0 0 0 0];


internalField   nonuniform List<vector> 
18180
(
(2.7612413 0.020185912 6.7791171e-21)
(2.7388255 0.011477414 -1.714713e-22)
(2.7738747 0.040286127 1.1021804e-20)
(2.7472864 0.03828154 2.0898331e-20)
(2.7279005 0.030540948 1.4511661e-20)
(2.7123081 0.01403036 5.0788501e-23)
(2.7936911 0.060866022 -7.4290925e-21)
(2.7607842 0.063799098 3.4112469e-21)
(2.7373209 0.062101591 1.2665492e-20)
(2.7179816 0.048497599 2.1565392e-20)
(2.7012267 0.033574049 7.9461568e-21)
(2.684215 0.014946888 3.5507193e-21)
(2.8216267 0.082669868 -2.4388246e-20)
(2.7817631 0.092530964 -1.6254513e-20)
(2.7520837 0.095894322 -6.103249e-21)
(2.7272278 0.081131966 -9.6376896e-21)
(2.7068573 0.06817305 -1.5330331e-21)
(2.687021 0.05211642 3.6769654e-21)
(2.6705534 0.03533739 -5.5776503e-22)
(2.65572 0.01514329 5.8799229e-21)
(2.8578796 0.10595511 1.4593388e-21)
(2.8096668 0.12408249 -1.4639874e-20)
(2.7728818 0.13420851 -6.7741855e-21)
(2.7410739 0.11895997 -3.5903477e-21)
(2.7153687 0.10539918 -6.9179451e-21)
(2.6916031 0.086962752 -1.4036341e-20)
(2.672373 0.071525804 -9.2764229e-21)
(2.6558138 0.052955301 -1.1616604e-20)
(2.641299 0.034755749 -5.6713016e-21)
(2.6287121 0.014561884 -2.7808599e-21)
(2.903385 0.13078121 2.8698699e-20)
(2.8456937 0.16031406 3.8599504e-20)
(2.8000487 0.17876596 2.387289e-20)
(2.7590588 0.1616774 1.5754308e-20)
(2.7266321 0.14768684 1.9107307e-20)
(2.697794 0.12732417 3.4464242e-21)
(2.674672 0.11020289 -3.1542286e-21)
(2.6559331 0.087870342 -2.0345979e-21)
(2.6397596 0.069921151 -4.1483707e-21)
(2.6265897 0.050851004 -9.7039618e-21)
(2.6143733 0.03265626 -7.0206942e-21)
(2.6042578 0.013451382 -3.5266351e-21)
(2.959989 0.15660587 2.6667669e-20)
(2.8910464 0.20171128 1.6843022e-20)
(2.8347601 0.23162994 2.6063705e-20)
(2.7814763 0.2124323 2.1729917e-20)
(2.7402058 0.19713772 1.3979228e-20)
(2.7049296 0.17267979 2.5022604e-20)
(2.6766873 0.15363222 1.0248945e-20)
(2.6549579 0.12781482 5.0341561e-21)
(2.6366745 0.10686881 6.22003e-21)
(2.623094 0.083702724 4.5097832e-21)
(2.6103054 0.065221541 -6.3474894e-22)
(2.6005094 0.046822475 1.6287234e-21)
(2.5907209 0.029526378 5.0717781e-21)
(2.5829509 0.012011898 2.5143987e-21)
(3.0309935 0.18187629 1.0615556e-20)
(2.9498681 0.2490656 1.6221162e-20)
(2.880213 0.29483081 6.7204722e-21)
(2.808932 0.2729982 -1.9465419e-20)
(2.7558634 0.25624516 -2.4261532e-20)
(2.7122775 0.22632395 -5.864334e-21)
(2.6773864 0.20373767 4.3226832e-21)
(2.6520725 0.17177183 9.4023075e-21)
(2.6308946 0.14729593 4.4439341e-21)
(2.6165279 0.12049536 -2.588361e-23)
(2.6033152 0.098677433 -1.7415329e-21)
(2.5944374 0.076351461 1.0380607e-21)
(2.5849493 0.058497664 3.2112143e-21)
(2.5781502 0.041623591 4.1230864e-21)
(2.5706513 0.025862512 1.682545e-21)
(2.5649666 0.010420215 -6.0068577e-22)
(3.1074457 0.20487292 6.5575458e-21)
(3.026025 0.30224552 1.9226567e-22)
(2.9406883 0.3704297 5.3358739e-21)
(2.8448125 0.34629117 -6.2096623e-21)
(2.7745119 0.32799941 -3.1229158e-20)
(2.7190824 0.29012235 -2.3290502e-20)
(2.6753778 0.26267668 -5.8192683e-21)
(2.6457762 0.22252812 7.4918257e-22)
(2.621127 0.19241567 5.5186587e-21)
(2.6061975 0.15963766 4.613125e-21)
(2.592202 0.13409607 3.7394834e-22)
(2.5840791 0.10856816 -7.0143483e-21)
(2.5754593 0.087503826 -4.4553506e-21)
(2.5704941 0.067186322 -4.2703211e-21)
(2.5639147 0.050803475 -3.5152882e-21)
(2.5596011 0.035909021 -1.1469083e-21)
(2.5541232 0.022028275 -3.3551406e-21)
(2.5502056 0.0088054528 -1.2143051e-21)
(3.1453611 0.22458149 6.1466024e-21)
(3.0981168 0.36203946 1.8597125e-20)
(3.0070353 0.46120207 1.2734061e-20)
(2.8911083 0.43542219 2.0355605e-21)
(2.7970317 0.41690109 -8.9514472e-21)
(2.7257437 0.36734173 5.0194715e-21)
(2.6692513 0.33298871 1.3017657e-20)
(2.6342266 0.28113207 -5.3326147e-21)
(2.6054395 0.24332681 9.1002755e-22)
(2.5904086 0.20306978 1.025579e-20)
(2.5758454 0.17197341 9.4675905e-21)
(2.5690795 0.14145365 1.4514926e-20)
(2.5611964 0.11707196 7.7110664e-21)
(2.5579722 0.09426313 -2.3761098e-21)
(2.5531327 0.07508824 -2.1679447e-21)
(2.5511759 0.057347376 -3.5938513e-21)
(2.5469977 0.04288387 -1.3477069e-21)
(2.5446542 0.030146569 -1.6975966e-21)
(2.5408793 0.018278299 3.5942449e-22)
(2.5384029 0.0072543886 4.2394382e-22)
(3.0894323 0.24014109 -1.2147817e-20)
(3.1012797 0.43256376 1.273479e-20)
(3.0384785 0.57017417 2.4738754e-20)
(2.9248833 0.54614609 7.4294841e-21)
(2.8105375 0.52843222 -2.799792e-21)
(2.7313346 0.46253796 3.3276835e-21)
(2.6573849 0.41852285 1.6819818e-20)
(2.6153289 0.34954838 1.7383308e-20)
(2.5813544 0.30092218 3.5944972e-23)
(2.567225 0.25070045 -6.8446201e-21)
(2.5525589 0.21246888 1.9106095e-21)
(2.5479586 0.1762027 6.1317007e-21)
(2.5414163 0.14716865 1.0877248e-20)
(2.5406533 0.1206289 1.2434012e-20)
(2.5374906 0.098834594 2.9339612e-21)
(2.5377658 0.07932851 1.3163695e-21)
(2.5358241 0.062593837 1.4684951e-23)
(2.5360664 0.047611904 8.3255325e-23)
(2.5337817 0.035242196 -2.2673215e-22)
(2.5329382 0.024646833 4.4257975e-22)
(2.5305477 0.014770614 5.0412187e-22)
(2.5292119 0.0058185109 2.4858853e-22)
(2.9026415 0.27198671 1.1197386e-20)
(2.9457281 0.51292209 3.6687085e-20)
(2.9337384 0.69403004 6.1233529e-20)
(2.8906974 0.6839716 2.1834341e-21)
(2.7741814 0.663566 -1.4476423e-20)
(2.7178255 0.58189903 -1.6165723e-20)
(2.6324875 0.52320786 -1.0437257e-20)
(2.5867855 0.43051486 -5.3368433e-21)
(2.546153 0.36620082 -5.119086e-21)
(2.5340936 0.30276963 1.3083075e-21)
(2.5203497 0.25518777 -5.2098479e-21)
(2.5193183 0.21192035 -1.6714579e-20)
(2.5149461 0.17737144 -1.297818e-20)
(2.51744 0.14695638 -2.374938e-21)
(2.5166651 0.12169769 -1.0927425e-21)
(2.5198401 0.099629041 -8.3499379e-22)
(2.5200411 0.080998912 -2.4253412e-21)
(2.5226721 0.064880324 -1.8294707e-22)
(2.5228375 0.05076082 -1.1892724e-22)
(2.5246018 0.038468235 -1.5348509e-21)
(2.5237554 0.028177096 -9.1987796e-22)
(2.5240156 0.019592625 7.6369526e-22)
(2.522718 0.011591246 5.244281e-22)
(2.5222614 0.0045231927 -1.4172505e-22)
(2.6088905 0.30501581 -2.0004288e-20)
(2.6724072 0.59486075 1.3590675e-20)
(2.684341 0.82452322 3.7777073e-20)
(2.708435 0.8261405 4.590476e-20)
(2.6470852 0.81631556 -1.0261167e-20)
(2.6403546 0.72040453 -3.070447e-21)
(2.5709527 0.64331869 -4.5063309e-21)
(2.5404177 0.52662199 -2.9808558e-21)
(2.4964483 0.43998129 1.9563769e-21)
(2.4885618 0.35904267 -6.2248108e-21)
(2.4770082 0.29909376 -1.6727701e-22)
(2.4814123 0.24785613 -4.9894314e-21)
(2.4806449 0.2067123 -1.5902559e-20)
(2.4875945 0.17198177 -1.9619702e-20)
(2.4900093 0.14299555 -9.6564103e-21)
(2.496694 0.1186021 -9.6392598e-22)
(2.4996932 0.097613099 -7.1749218e-22)
(2.505262 0.079886491 -2.2046485e-21)
(2.5077115 0.064505636 -7.1929306e-23)
(2.5118086 0.051567154 -1.713601e-22)
(2.5134296 0.039993959 -1.5156654e-21)
(2.5161888 0.030181978 -1.3235682e-21)
(2.516399 0.02184078 2.6726749e-22)
(2.5174419 0.015074978 2.2748629e-22)
(2.5169858 0.0087764197 -4.0932889e-22)
(2.5171899 0.0033763412 -2.1816465e-23)
(2.2664613 0.33501946 4.5388385e-21)
(2.3376408 0.67009841 -9.9178823e-20)
(2.365249 0.94655058 -6.8611977e-20)
(2.4350863 0.95531815 3.8426939e-20)
(2.4217888 0.95462138 4.6614737e-20)
(2.4659788 0.85185863 -5.2645317e-21)
(2.4396412 0.76229753 1.437423e-21)
(2.4523529 0.6290126 1.1103703e-20)
(2.4231639 0.51911852 1.2761893e-20)
(2.4276966 0.41921194 1.4656244e-20)
(2.4206475 0.34266676 7.0275054e-21)
(2.432614 0.28225517 1.04176e-20)
(2.4373899 0.23360436 6.024481e-21)
(2.4502913 0.19467903 -4.3680527e-21)
(2.4571004 0.16164045 -7.7257065e-21)
(2.4681539 0.13493482 -4.829962e-21)
(2.4745638 0.1117065 3.5027569e-21)
(2.4834578 0.092799889 -1.2266391e-22)
(2.4887271 0.075960301 -1.5249906e-21)
(2.4955733 0.062135054 8.5921792e-22)
(2.4994188 0.049802129 7.7857676e-22)
(2.504337 0.039700797 -3.36345e-21)
(2.5069086 0.030471748 -3.2071902e-21)
(2.5102669 0.022866147 1.5935077e-21)
(2.5112267 0.016286742 1.5750262e-21)
(2.5127999 0.011122928 -1.2861485e-21)
(2.5129778 0.0063300395 -9.3138649e-22)
(2.513665 0.0023770525 1.2241119e-21)
(1.9166547 0.36027027 6.8317176e-20)
(1.9827709 0.73381819 7.0309809e-20)
(2.0143649 1.0535597 -2.7140716e-20)
(2.1150704 1.0675465 -5.8389761e-20)
(2.1314307 1.0743821 4.3759368e-20)
(2.2105094 0.95954969 4.4434042e-20)
(2.2309179 0.86189022 -5.0042654e-21)
(2.2975948 0.71639276 -1.1085673e-20)
(2.3093528 0.59069135 -2.0972936e-21)
(2.3432463 0.47780849 -2.3645977e-21)
(2.3491083 0.38333997 -8.2244973e-22)
(2.3717915 0.31320102 2.9808544e-21)
(2.3843968 0.25588335 6.2093307e-21)
(2.4050012 0.21315413 2.2000494e-20)
(2.417719 0.17617397 1.2373968e-20)
(2.4340572 0.14767812 7.5835179e-21)
(2.4447336 0.122299 1.0589046e-20)
(2.4574967 0.10243955 2.6330469e-21)
(2.4659748 0.084459551 -8.1968604e-22)
(2.4757589 0.070233966 -7.8564464e-21)
(2.4822335 0.057116904 -5.687336e-21)
(2.4896081 0.046646363 1.3403093e-21)
(2.494234 0.037028318 -2.5805034e-21)
(2.4995227 0.029376564 7.1311995e-22)
(2.5026683 0.022227954 5.3252824e-21)
(2.5063383 0.016536238 -1.7189511e-21)
(2.5078071 0.011506917 -4.4819517e-21)
(2.5097163 0.0077259795 -2.9183739e-21)
(2.5103584 0.0042362988 -9.0236546e-22)
(2.5113915 0.0015240844 3.7767735e-21)
(1.5942056 0.38194591 6.9562906e-20)
(1.6418421 0.78470445 5.5390203e-20)
(1.6671364 1.1416902 5.7091147e-20)
(1.7867421 1.1584568 3.8071193e-20)
(1.8226064 1.1714489 9.3754328e-21)
(1.9203517 1.0418449 0)
(1.9736809 0.93292167 0)
(2.0819552 0.77314247 2.4299402e-21)
(2.1446015 0.63654271 -3.2315088e-21)
(2.2227033 0.52031105 -4.4854672e-21)
(2.2582403 0.41416076 -4.7741082e-21)
(2.2978481 0.3374272 -1.4361894e-20)
(2.3216681 0.27104971 -1.0908745e-20)
(2.3516225 0.22531948 2.8239715e-21)
(2.3720461 0.18479879 1.7787514e-20)
(2.3946497 0.15528998 1.538667e-20)
(2.4105109 0.12824768 1.0904461e-20)
(2.4276242 0.10806772 5.5955193e-21)
(2.4398487 0.089222569 -2.0401634e-21)
(2.4528629 0.074893766 2.3415844e-21)
(2.4621596 0.061383435 -4.2851866e-21)
(2.4720271 0.051010605 -9.1736361e-21)
(2.4789958 0.041086624 -2.5549071e-21)
(2.4864155 0.033421007 1.4321441e-21)
(2.4913948 0.02614221 4.6156605e-21)
(2.4967516 0.020559384 3.6555766e-21)
(2.5001984 0.015211286 -3.0526608e-21)
(2.5039772 0.011149818 -5.5832668e-21)
(2.5057702 0.0074577648 -4.1158714e-21)
(2.507867 0.0048512104 2.4779871e-21)
(2.5088381 0.0024736966 6.9681354e-21)
(2.5101122 0.00082045914 3.4111497e-21)
(1.324687 0.40306905 1.1566526e-19)
(1.3410655 0.82331077 7.202584e-20)
(1.3516497 1.209632 5.8613847e-20)
(1.4802404 1.226421 -5.6527938e-20)
(1.5293945 1.2425298 -7.623716e-20)
(1.6341848 1.0968054 -1.8178633e-20)
(1.7080896 0.97423045 -2.7477011e-20)
(1.8402266 0.79675855 1.1214996e-20)
(1.9421853 0.64670423 1.3684582e-20)
(2.063922 0.53132114 7.1061155e-21)
(2.1435525 0.42280295 6.0676055e-21)
(2.2088784 0.34791181 6.0200623e-21)
(2.2502488 0.27582508 -2.9190974e-21)
(2.2909201 0.22876603 -2.0219747e-20)
(2.3208017 0.18553702 -7.2525311e-21)
(2.3505663 0.15627024 6.8811309e-21)
(2.372599 0.12833824 4.4434269e-21)
(2.3944708 0.10856515 9.1560907e-21)
(2.4109209 0.089442713 4.0805197e-21)
(2.4273504 0.075608969 -3.8657203e-21)
(2.4397579 0.062030702 2.6824125e-22)
(2.4522335 0.052051472 -1.4409607e-21)
(2.4615887 0.042210396 -6.0356186e-21)
(2.4710697 0.034937851 3.9752971e-22)
(2.4780771 0.02767629 4.2241078e-21)
(2.4852483 0.022312513 1.8170793e-21)
(2.4902953 0.017005123 8.6478335e-22)
(2.4955262 0.013142638 -5.5890111e-22)
(2.4990813 0.0093247761 -2.9237913e-21)
(2.50283 0.0066323698 -2.6917626e-21)
(2.5048068 0.0040765987 3.5861148e-21)
(2.50698 0.0024526989 5.7257701e-21)
(2.508184 0.0010209058 2.3320149e-21)
(2.5096033 0.00027262575 -6.1384764e-21)
(1.123357 0.42642833 -1.0468329e-19)
(1.0993222 0.85284681 7.0505487e-20)
(1.0892484 1.2583352 2.8366489e-20)
(1.2172046 1.2702887 1.1715968e-19)
(1.2758472 1.2871683 8.7663751e-21)
(1.3777035 1.1246474 -5.4428584e-20)
(1.4639902 0.98652177 1.0902653e-21)
(1.6083977 0.79024978 -2.3978523e-20)
(1.7322728 0.62284656 1.2795487e-20)
(1.8842161 0.50597509 1.0636113e-20)
(2.0072137 0.39867409 4.349774e-21)
(2.1040625 0.33479494 1.9940368e-21)
(2.1716588 0.26516127 1.7250838e-21)
(2.2247626 0.22075553 9.2696474e-21)
(2.2656308 0.17656264 -6.9244993e-21)
(2.3029881 0.14901106 -1.4636778e-20)
(2.3320978 0.12140209 -1.3348872e-21)
(2.3589755 0.10307036 5.8379344e-21)
(2.3800585 0.084384642 1.0329733e-20)
(2.3999972 0.071634969 4.8805686e-21)
(2.4156998 0.05854188 -2.6368007e-21)
(2.4307856 0.049460197 1.2484662e-21)
(2.4426415 0.040012495 -3.5631309e-22)
(2.4541833 0.03339925 -5.6649261e-21)
(2.4631582 0.026503382 4.4453514e-22)
(2.4720058 0.021687885 4.5324724e-21)
(2.478776 0.016605853 2.2523116e-21)
(2.485533 0.013106669 -2.53842e-21)
(2.4904645 0.0094350935 -3.9400233e-21)
(2.495451 0.0069856504 -1.9072906e-21)
(2.4989828 0.0044500444 -1.6722364e-21)
(2.5026081 0.002894233 2.07609e-21)
(2.504662 0.0012876349 4.0839217e-21)
(2.5068376 0.0004715154 -1.1398074e-21)
(2.5081878 -0.0001726541 -9.2292488e-21)
(2.5096862 -0.00011575991 -7.3106951e-21)
(0.99318322 0.45299513 -1.6421832e-19)
(0.92993016 0.87669506 -1.6525382e-19)
(0.89814195 1.2906048 2.483904e-23)
(1.01159 1.2943377 1.8904225e-19)
(1.0753586 1.3079197 2.7520702e-19)
(1.1661209 1.1274236 1.5887205e-20)
(1.2570094 0.97277984 -4.3861918e-20)
(1.4076176 0.75792788 -6.2049683e-20)
(1.5419449 0.57179947 -8.6746821e-20)
(1.7095328 0.44932835 1.10644e-20)
(1.8623442 0.34032315 9.1102815e-21)
(1.988513 0.29187114 1.920034e-21)
(2.0878592 0.23311261 -2.9433155e-22)
(2.155589 0.19774453 2.2520804e-21)
(2.2093106 0.15643901 9.5127832e-21)
(2.2538804 0.13234614 -7.2530927e-21)
(2.2905295 0.10649347 -1.4575079e-20)
(2.3224231 0.090766949 7.8305147e-21)
(2.3483828 0.073500755 1.4757155e-20)
(2.3717575 0.062568623 8.9933289e-22)
(2.3908468 0.050533461 -4.3993119e-21)
(2.4084727 0.0427878 -4.7835468e-22)
(2.4228325 0.034197876 3.2421111e-21)
(2.4363328 0.02864379 3.956841e-21)
(2.4472778 0.022384409 -1.0166162e-21)
(2.4577262 0.018348418 -1.2030791e-21)
(2.4660934 0.013780929 2.6506438e-21)
(2.4741967 0.01089246 1.3490875e-21)
(2.4805775 0.0075720283 -3.2104883e-21)
(2.4868359 0.0055686458 -1.2677417e-21)
(2.4915417 0.0032371277 7.0054781e-22)
(2.4962161 0.001935563 9.8761388e-22)
(2.4996381 0.00046057478 4.5836524e-21)
(2.5030788 -0.00015813179 3.2095003e-21)
(2.5051328 -0.00098479967 -1.7603843e-21)
(2.5072546 -0.0011530614 -1.6735196e-21)
(2.5086798 -0.0010606557 2.5917884e-22)
(2.5101773 -0.00040657439 2.5765856e-21)
(0.9249205 0.48223032 9.2466787e-20)
(0.83265286 0.89830525 -1.4099162e-21)
(0.78403817 1.3102297 -5.644708e-23)
(0.87291096 1.3037748 -1.2369291e-19)
(0.93156952 1.3100499 5.3627841e-20)
(1.005799 1.1102374 9.7649424e-20)
(1.0944497 0.93797796 -1.5098755e-19)
(1.2478676 0.70474131 -6.5755016e-20)
(1.3868786 0.49979075 -8.340261e-20)
(1.5603846 0.36932895 -3.5062954e-20)
(1.7276049 0.25415744 5.8609048e-20)
(1.874433 0.22049883 8.8334366e-21)
(2.0030053 0.17636695 2.2037668e-21)
(2.0863084 0.15642729 -3.7309096e-21)
(2.1551638 0.12395538 -1.4049919e-21)
(2.2059646 0.10566101 1.2222306e-20)
(2.2498845 0.083217705 -3.6452351e-21)
(2.2863916 0.071271618 -1.101559e-20)
(2.3172304 0.056530038 1.0282247e-20)
(2.343775 0.048125833 1.3980707e-20)
(2.3661818 0.037834701 8.2742014e-22)
(2.3861525 0.031936082 -2.7795495e-21)
(2.40295 0.024625062 9.6432287e-22)
(2.4182524 0.020442882 1.4310915e-21)
(2.4310755 0.015186007 2.0812232e-21)
(2.4429623 0.012233687 -2.0845063e-21)
(2.4528628 0.0084065747 -2.2762505e-21)
(2.4621888 0.0063268753 6.2312883e-21)
(2.4698577 0.0035742861 5.0485978e-21)
(2.4771899 0.0021905446 -4.0520002e-21)
(2.4831036 0.00027361825 -2.2209962e-21)
(2.4888368 -0.00053535616 4.4702372e-21)
(2.493251 -0.0017864067 4.7984353e-21)
(2.4975842 -0.0021603952 4.2348559e-21)
(2.5008356 -0.0027613251 2.9257357e-21)
(2.5040542 -0.0026187145 1.9470088e-21)
(2.5060695 -0.0028189843 2.0844618e-21)
(2.508125 -0.0024648129 9.2027777e-22)
(2.5095499 -0.0018047684 3.1292263e-21)
(2.5109826 -0.00069284506 4.8115467e-21)
(0.90571953 0.51591586 1.3156594e-19)
(0.78711061 0.91904383 8.3131575e-20)
(0.72825772 1.3223277 -6.1325961e-21)
(0.79509622 1.3047338 -1.3932732e-19)
(0.84008363 1.2997323 -2.5849265e-19)
(0.90163788 1.0785867 -4.4769192e-20)
(0.98299159 0.88711303 -4.5708472e-21)
(1.1338231 0.63524854 -1.4863466e-19)
(1.2745913 0.41146026 -6.7798466e-20)
(1.448407 0.27296608 6.2715923e-20)
(1.618676 0.14890707 1.1067619e-19)
(1.7759077 0.12746097 4.3198842e-20)
(1.924517 0.09679635 -4.3697455e-21)
(2.0212413 0.096145844 5.6574378e-21)
(2.1062411 0.078305794 -4.3222646e-23)
(2.1621156 0.068854327 -1.1879539e-20)
(2.2125727 0.05196995 8.9675134e-22)
(2.25269 0.044739617 5.2775684e-21)
(2.2880433 0.033601404 -1.6011942e-21)
(2.3172728 0.028458693 1.0771007e-20)
(2.3427618 0.020543465 1.4292664e-20)
(2.3647542 0.016917104 -2.290025e-21)
(2.3838131 0.011338826 -5.7577448e-21)
(2.4006777 0.008884779 -1.6453954e-21)
(2.4152377 0.0049107417 -1.2421003e-21)
(2.4283772 0.0032698766 4.5180893e-22)
(2.4396578 0.0004476325 -3.5244228e-21)
(2.4500322 -0.00059283012 -5.3614465e-21)
(2.4588633 -0.0026081217 2.66541e-21)
(2.4671402 -0.0031923997 7.8237014e-21)
(2.4740708 -0.0045359307 -7.7036312e-22)
(2.4806629 -0.0047566884 -6.6165139e-21)
(2.4860794 -0.0055545828 -3.3244928e-22)
(2.4912903 -0.0054262231 2.5555296e-21)
(2.4953865 -0.0057982321 1.9874899e-21)
(2.4993672 -0.0054442349 -7.1958411e-22)
(2.5024122 -0.0053362062 -1.7023955e-21)
(2.5053866 -0.004583072 1.1190844e-21)
(2.5073423 -0.0042701811 0)
(2.5093014 -0.0035035225 3.1354902e-21)
(2.5106709 -0.0024376805 4.7320482e-21)
(2.5120309 -0.00096234161 2.8751188e-21)
(0.92834873 0.55675499 -2.1269602e-21)
(0.77506613 0.93986337 5.5339957e-20)
(0.70352643 1.3295289 8.263166e-21)
(0.76323446 1.3002945 -7.7248673e-20)
(0.79689444 1.2828869 -2.0479642e-19)
(0.84540204 1.0381947 3.721413e-19)
(0.92218494 0.82456057 5.8400827e-19)
(1.0701594 0.55365665 8.1457935e-20)
(1.2080932 0.31042835 -5.4031449e-20)
(1.3792373 0.16555031 -1.3464377e-19)
(1.5447273 0.032264823 -1.1755212e-20)
(1.7039224 0.020568617 7.1583204e-20)
(1.8610323 0.00037570657 6.8825115e-21)
(1.9662717 0.020061996 -9.0174243e-22)
(2.0652842 0.020048892 8.8631647e-21)
(2.1247968 0.022443208 9.9343861e-21)
(2.1809998 0.013792579 -1.2400428e-21)
(2.2232114 0.012041125 -2.1678992e-21)
(2.2621874 0.0052830026 1.928321e-21)
(2.2935062 0.0039548763 -1.4279915e-23)
(2.3215821 -0.00097678013 1.175217e-20)
(2.3452117 -0.0019200283 1.5211113e-20)
(2.3661948 -0.0054348773 -5.0754899e-22)
(2.3843735 -0.0058905335 -3.4156369e-21)
(2.400417 -0.0082897093 5.2025698e-22)
(2.4145912 -0.0083643214 -6.3064211e-21)
(2.4270602 -0.0099717785 -4.7743393e-21)
(2.4382761 -0.0098323286 -2.0280094e-22)
(2.448103 -0.01086902 -1.8967009e-21)
(2.4571074 -0.010542664 4.7794072e-21)
(2.4649405 -0.011151151 9.7048372e-21)
(2.4722482 -0.010665712 -6.4733425e-21)
(2.4784835 -0.010906073 -1.2104684e-20)
(2.4843885 -0.010249405 -8.6031924e-22)
(2.4893168 -0.010162506 1.8721097e-21)
(2.4940298 -0.0093026737 -1.5726529e-21)
(2.4977971 -0.0089766172 -4.1942054e-21)
(2.5014274 -0.0080444955 -2.5499953e-21)
(2.5042463 -0.0073730876 1.1476825e-22)
(2.5069696 -0.0061379538 -1.6552276e-21)
(2.5088347 -0.0054123451 1.2955997e-21)
(2.5106694 -0.0043171445 6.3002763e-21)
(2.511971 -0.0029387958 4.5614478e-21)
(2.5132491 -0.0011709132 3.2365501e-21)
(0.98761331 0.60162674 -7.9748891e-21)
(0.80188098 0.96065039 -4.1338492e-20)
(0.70631492 1.3314913 1.2613751e-20)
(0.76817333 1.2880741 1.8334916e-19)
(0.80435554 1.2595804 1.0474799e-19)
(0.83777248 0.99159553 -4.0578998e-19)
(0.90867073 0.75296557 1.3866811e-19)
(1.0517933 0.46423984 3.75673e-19)
(1.1869218 0.20129611 -1.0416175e-19)
(1.3537477 0.051854363 -1.3623175e-19)
(1.5093384 -0.089438557 -2.1385206e-19)
(1.6644161 -0.093170522 -7.2216021e-20)
(1.8193722 -0.10530362 5.9709322e-21)
(1.927144 -0.066704309 2.2554861e-21)
(2.034885 -0.048227628 -5.1136241e-21)
(2.0961537 -0.032081121 4.8326358e-21)
(2.1569552 -0.029895553 5.7059646e-21)
(2.1996119 -0.025503845 7.6837218e-21)
(2.2408585 -0.027260863 6.9334898e-21)
(2.2734006 -0.024557534 1.0827708e-20)
(2.3034678 -0.025946802 9.1151752e-21)
(2.3281898 -0.024103144 5.2643122e-22)
(2.3507377 -0.025162394 3.6450095e-21)
(2.3698961 -0.023508163 -6.4703853e-22)
(2.3871897 -0.024050098 -3.4080188e-21)
(2.4021419 -0.022466804 -1.7082997e-21)
(2.4156047 -0.022618528 -8.2180187e-21)
(2.4274407 -0.021159793 1.9844522e-21)
(2.4380796 -0.021078113 6.4214723e-21)
(2.447626 -0.019743262 1.3846673e-21)
(2.4561596 -0.019478066 7.7674002e-21)
(2.4639824 -0.018195106 7.9108297e-21)
(2.4709006 -0.017766826 -7.4660624e-21)
(2.477355 -0.016476509 -7.5765428e-21)
(2.4829434 -0.015878049 3.159668e-21)
(2.4882243 -0.01454641 1.6397216e-21)
(2.4926855 -0.013770677 -1.6323649e-21)
(2.4969305 -0.012341212 -6.2110508e-21)
(2.5003705 -0.011465113 -4.6807808e-21)
(2.5036597 -0.010079027 2.2949652e-21)
(2.5062448 -0.0089647056 6.4772089e-22)
(2.5087165 -0.0073544814 -1.3624759e-21)
(2.5104657 -0.0063021109 3.347233e-21)
(2.5121603 -0.0049490501 2.5948708e-21)
(2.5133862 -0.0033222597 1.3083001e-21)
(2.5145766 -0.0013247518 -2.909239e-22)
(1.0683795 0.64423086 5.0571336e-20)
(0.88080205 0.98050316 -7.7264218e-21)
(0.76114326 1.3283366 -3.9380094e-20)
(0.81398422 1.2661299 1.0443165e-19)
(0.86139312 1.2242381 2.6785857e-19)
(0.88921815 0.93632461 3.4325723e-20)
(0.95182647 0.67438285 -4.5126719e-19)
(1.0801373 0.36957075 -2.2368779e-20)
(1.2102989 0.087226685 2.0029702e-19)
(1.3688781 -0.063644794 -5.3288136e-20)
(1.5118524 -0.21081633 -8.2972602e-20)
(1.6579688 -0.20733768 -1.6486334e-19)
(1.8031189 -0.21304316 -2.9771735e-20)
(1.9078679 -0.15808707 -2.134353e-21)
(2.0174062 -0.12222648 -5.8752022e-21)
(2.0777673 -0.092086753 1.1009702e-20)
(2.1414029 -0.07718941 2.0680722e-20)
(2.1828152 -0.066349617 7.6560961e-21)
(2.2249849 -0.062463657 9.5608365e-21)
(2.2576962 -0.055888243 -2.3674202e-21)
(2.2890037 -0.053494912 1.1822441e-21)
(2.3143374 -0.048867604 6.1940173e-21)
(2.33796 -0.04727217 -1.9967038e-21)
(2.3577842 -0.043472302 -6.009312e-21)
(2.3760239 -0.041992932 -1.0220901e-20)
(2.3915333 -0.03864963 -1.007429e-20)
(2.4057522 -0.037210893 -8.55929e-21)
(2.4179982 -0.034329483 -7.6932129e-21)
(2.4292373 -0.032986527 1.9953954e-21)
(2.4391029 -0.030532358 5.1684566e-21)
(2.4481564 -0.02930011 3.7116754e-22)
(2.4562968 -0.027168885 4.4547889e-21)
(2.463708 -0.025987138 4.5421532e-21)
(2.4705243 -0.024028702 -3.2555148e-21)
(2.4766362 -0.022839738 -3.29802e-21)
(2.48235 -0.020953622 6.0486608e-21)
(2.4873511 -0.019718686 4.6492248e-21)
(2.492072 -0.017873648 5.4954307e-21)
(2.4960945 -0.01656497 1.2565494e-21)
(2.4999048 -0.014696842 1.4165215e-21)
(2.5030258 -0.01339078 8.1265045e-21)
(2.5059869 -0.011652805 6.9580935e-21)
(2.5083372 -0.010193284 5.1444814e-21)
(2.5105609 -0.008294102 1.8911148e-21)
(2.5121794 -0.0069864079 1.1554547e-21)
(2.5137259 -0.005433956 -4.2750192e-21)
(2.5148698 -0.0036120813 -5.8758115e-21)
(2.5159676 -0.0014367058 2.7430683e-21)
(1.1562061 0.68297311 -8.3829504e-21)
(0.97510908 0.99629893 4.4615949e-20)
(0.85766522 1.321249 -1.0787728e-20)
(0.90974863 1.2372602 2.3587227e-19)
(0.95807131 1.1755936 3.7635289e-19)
(0.99229835 0.87188187 3.301775e-19)
(1.0547564 0.59121891 1.0935403e-19)
(1.1636111 0.27174793 -7.5061855e-20)
(1.2791713 -0.027731612 3.3743369e-19)
(1.421954 -0.17742458 2.0710999e-19)
(1.548403 -0.3274034 -3.3391698e-20)
(1.6814324 -0.31716334 2.1854448e-20)
(1.8125639 -0.31700063 -5.4312309e-20)
(1.9092541 -0.24814403 -5.4902823e-20)
(2.0142897 -0.19711906 -2.904795e-20)
(2.070971 -0.15392662 -1.3868573e-20)
(2.1346689 -0.12596029 2.0344312e-21)
(2.1733911 -0.1086609 1.2356128e-20)
(2.2150652 -0.098749169 -1.2171944e-22)
(2.2468684 -0.088632888 1.3942669e-20)
(2.2784904 -0.082577324 2.6845375e-21)
(2.3039292 -0.075290524 -4.3356477e-21)
(2.3281642 -0.071023445 3.388564e-22)
(2.3483453 -0.065135716 -2.9562756e-21)
(2.3672285 -0.061611868 -6.7779884e-21)
(2.38309 -0.056480165 -1.98021e-21)
(2.3978463 -0.053363505 -1.7224497e-21)
(2.410305 -0.048977956 -6.3423416e-21)
(2.4219439 -0.046285373 -5.4874722e-21)
(2.4319253 -0.042645497 -4.7019453e-21)
(2.4412908 -0.040354852 -1.7899083e-21)
(2.4495373 -0.037317523 -4.7290604e-21)
(2.457256 -0.035331446 -9.2948996e-22)
(2.4642474 -0.032691889 6.1977325e-22)
(2.470706 -0.030872348 -6.8367083e-21)
(2.4766857 -0.028443317 -2.8167929e-21)
(2.4820991 -0.026696823 6.0588303e-21)
(2.4871756 -0.024372716 -3.3126581e-21)
(2.4916503 -0.022656355 -2.6277274e-21)
(2.4958699 -0.020423076 1.7355884e-21)
(2.4994849 -0.018705217 1.8945966e-21)
(2.5028922 -0.016502088 9.5943113e-21)
(2.5057062 -0.014863352 8.5074464e-21)
(2.5083536 -0.012855561 2.2575276e-21)
(2.510472 -0.011129673 -8.7275305e-22)
(2.5124538 -0.0090100312 1.5210545e-21)
(2.5139339 -0.0075048901 -3.6268881e-21)
(2.5153291 -0.0058003852 -5.4850573e-21)
(2.5163863 -0.0038278474 2.7000909e-21)
(2.5173886 -0.0015162961 5.9881494e-21)
(1.246527 0.71590941 -2.2977998e-20)
(1.0821896 1.0065731 6.2377923e-20)
(0.97237845 1.3090223 1.1370565e-19)
(1.028446 1.2031057 -8.0707308e-21)
(1.0856064 1.1206344 2.2603535e-19)
(1.1252681 0.80281179 -3.9317045e-21)
(1.1972612 0.50602122 -5.3296877e-20)
(1.293004 0.17601022 3.2652548e-20)
(1.3897299 -0.13712641 -1.4343273e-19)
(1.5115146 -0.28513328 8.3147627e-20)
(1.6143726 -0.43495521 -4.4220508e-20)
(1.7303492 -0.41893716 -3.4859236e-20)
(1.8454384 -0.41294725 1.7382816e-20)
(1.929522 -0.33251802 -5.2797668e-20)
(2.0254322 -0.26855525 -5.3335924e-20)
(2.075704 -0.21396708 -5.289888e-20)
(2.1364937 -0.17373449 -3.8844793e-20)
(2.1711955 -0.15044113 -3.3247075e-20)
(2.2110235 -0.13451644 -2.3967859e-20)
(2.2409395 -0.12138628 -9.0250477e-21)
(2.2719192 -0.11203884 4.1884493e-21)
(2.2969715 -0.10242873 1.3086636e-20)
(2.3213636 -0.095659369 6.5778983e-21)
(2.3416622 -0.087855439 3.3178581e-21)
(2.3609105 -0.082365071 2.3304609e-22)
(2.3769779 -0.075483382 -1.3133378e-21)
(2.3920849 -0.070676869 3.3165968e-21)
(2.4046098 -0.064749751 5.3916558e-21)
(2.4164664 -0.060636697 1.1126797e-21)
(2.4263775 -0.055744132 -4.8800078e-21)
(2.4358639 -0.052330869 -4.1257861e-21)
(2.4440122 -0.048358382 -2.4447735e-21)
(2.4518383 -0.045517809 -5.243047e-21)
(2.4588037 -0.042190038 1.0475865e-21)
(2.4654321 -0.039728653 2.5466059e-21)
(2.4715098 -0.036778604 -8.5442933e-21)
(2.4771773 -0.034519338 -4.7552844e-21)
(2.4824688 -0.03176237 -4.4884619e-22)
(2.4872818 -0.02960805 -9.4374549e-21)
(2.4918091 -0.026960449 -7.7962721e-21)
(2.4958129 -0.024881299 -3.7328603e-21)
(2.4995813 -0.022354818 -1.0122363e-20)
(2.5028186 -0.020325029 -2.9949227e-21)
(2.5058514 -0.017867715 7.5990575e-22)
(2.5083716 -0.01597412 -5.2863662e-21)
(2.51072 -0.013761428 -7.5477772e-21)
(2.5126118 -0.011832067 -5.3756176e-21)
(2.5143593 -0.0095460494 -3.7201549e-21)
(2.5156977 -0.0078896431 -5.4850087e-21)
(2.5169414 -0.0060709553 -5.5920393e-21)
(2.5179089 -0.0039841575 -2.595352e-21)
(2.5188142 -0.0015704775 -3.34454e-21)
(1.337376 0.74196453 2.7328483e-21)
(1.1978512 1.0104807 2.7244841e-20)
(1.1038251 1.2906352 1.08973e-19)
(1.1679341 1.1631458 -3.1655612e-19)
(1.2379206 1.0597589 -4.3843294e-19)
(1.2838125 0.73127647 -2.7755038e-20)
(1.3627899 0.4208999 -2.4977818e-19)
(1.4466463 0.086297582 -1.474724e-19)
(1.5299614 -0.23629615 -6.7301025e-20)
(1.63031 -0.38132503 -1.5168245e-19)
(1.705332 -0.52913852 6.3719865e-20)
(1.8003589 -0.50931818 8.197732e-20)
(1.8978251 -0.4982021 9.2555135e-20)
(1.9661613 -0.40820498 1.2405613e-19)
(2.0495088 -0.33326614 5.9059277e-20)
(2.0908409 -0.2692555 -4.6731183e-20)
(2.1460563 -0.21821213 -4.6092866e-20)
(2.1755419 -0.18985464 -4.4234543e-21)
(2.2122615 -0.16832752 1.325195e-21)
(2.2395094 -0.15289322 -2.2402013e-20)
(2.2689807 -0.14077494 -8.2032489e-21)
(2.2932168 -0.12937823 -8.0210341e-21)
(2.3173344 -0.12045351 2.4555271e-22)
(2.3375927 -0.1110166 5.0719264e-21)
(2.3569907 -0.10373299 1.9546058e-21)
(2.3731955 -0.095220955 3.2879966e-21)
(2.3885223 -0.088770556 1.8654787e-21)
(2.4010321 -0.081284229 5.8258083e-22)
(2.4129727 -0.07571389 2.513219e-21)
(2.4226683 -0.069511536 -2.7050327e-21)
(2.4321028 -0.064913197 -8.4479492e-21)
(2.4399567 -0.059960885 -3.2160067e-21)
(2.4476975 -0.056233349 -1.6077745e-21)
(2.4544343 -0.052228866 3.9622494e-21)
(2.4610416 -0.049118018 1.0066764e-20)
(2.4670351 -0.045684323 7.6256949e-21)
(2.4727972 -0.042935853 -2.8224173e-21)
(2.4781614 -0.039796991 -6.9110656e-21)
(2.483179 -0.037234003 -2.8569557e-21)
(2.4879022 -0.034243193 3.5533441e-21)
(2.4921985 -0.031789194 5.3034074e-21)
(2.4962466 -0.02889972 3.894907e-21)
(2.499827 -0.026547444 -2.0545335e-21)
(2.5031853 -0.023799183 -1.1909584e-21)
(2.5060715 -0.021532917 2.3987711e-21)
(2.5087542 -0.018883841 -2.9351118e-21)
(2.5109942 -0.016796663 -5.045979e-21)
(2.5130574 -0.014429751 -8.9931246e-21)
(2.5147296 -0.012346585 -7.4762376e-21)
(2.516251 -0.0099367882 -8.3787243e-21)
(2.5174473 -0.0081658141 -8.5234625e-21)
(2.5185415 -0.0062632363 -4.4543447e-21)
(2.5194176 -0.0040920179 -5.1930379e-21)
(2.5202256 -0.0016043363 -4.6984772e-21)
(1.4276038 0.76088209 1.4348556e-21)
(1.3180178 1.007599 -4.3668848e-20)
(1.2465397 1.2658665 -2.109229e-20)
(1.3213578 1.118746 2.1481352e-19)
(1.4064606 0.99451865 -1.873971e-19)
(1.4606787 0.65840061 -4.6688251e-19)