/*--------------------------------*- C++ -*----------------------------------*\
| =========                 |                                                 |
| \\      /  F ield         | OpenFOAM: The Open Source CFD Toolbox           |
|  \\    /   O peration     | Version:  v2012                                 |
|   \\  /    A nd           | Website:  www.openfoam.com                      |
|    \\/     M anipulation  |                                                 |
\*---------------------------------------------------------------------------*/
FoamFile
{
    version     2.0;
    format      ascii;
    class       surfaceScalarField;
    location    "31.4558248775613549";
    object      meshPhi;
}
// * * * * * * * * * * * * * * * * * * * * * * * * * * * * * * * * * * * * * //

dimensions      [0 3 -1 0 0 0 0];
oriented        oriented;


internalField   nonuniform List<scalar> 
18180
(
0
-0.0063515375
0
-0.0059571305
0
-0.012527176
8.7202801e-14
-0.0055109411
0
-0.011591807
8.1576707e-14
-0.018252061
-4.3558117e-14
-0.0050444909
-8.426679e-14
-0.010590862
0
-0.016799445
0
-0.023500146
4.3520173e-14
-0.004606374
0
-0.0096117918
8.148757e-14
-0.015283971
0
-0.021688936
0
-0.02846539
4.3470959e-14
-0.0042495047
8.4126745e-14
-0.008815869
0
-0.013911495
7.8795725e-14
-0.019830274
0
-0.026366769
-7.3738313e-14
-0.033079512
0
-0.0039725727
-4.2024887e-14
-0.0081970691
0
-0.012801232
0
-0.018140413
0
-0.024280945
0
-0.030801418
3.9026034e-18
-0.037461783
0
-0.0037418466
-8.3971179e-14
-0.0076932562
0
-0.011938248
0
-0.016751142
-3.8069937e-14
-0.022362414
-7.3668934e-14
-0.028573891
0
-0.034997911
6.8938717e-14
-0.041527238
4.3349294e-14
-0.0035453298
0
-0.0072706753
-4.0609756e-14
-0.011249963
0
-0.015651564
0
-0.020737442
-7.3621735e-14
-0.02650693
4.1926712e-18
-0.032641455
0
-0.038890392
6.6652093e-14
-0.045323964
0
-0.0033697618
4.1915252e-14
-0.0068958332
-4.0576402e-14
-0.010665746
-3.9272657e-14
-0.014769389
0
-0.019411616
-3.6782518e-14
-0.024693906
-3.5594087e-14
-0.030440037
0
-0.036412811
0
-0.042495534
0
-0.048791804
0
-0.0032082699
-4.1880121e-14
-0.0065494745
0
-0.010139267
0
-0.014019793
0
-0.018304595
3.6754181e-14
-0.023142035
-3.5563625e-14
-0.028468688
0
-0.034093712
0
-0.039882026
0
-0.045804431
0
-0.052019505
0
-0.0030560805
0
-0.0062206621
-4.0512528e-14
-0.0096434441
0
-0.013345858
0
-0.017359423
-3.6725758e-14
-0.021817167
3.5538577e-14
-0.02672743
3.4389567e-14
-0.031971278
3.3272893e-14
-0.037437447
0
-0.043061855
0
-0.048855363
0
-0.054970779
0
-0.0029111726
0
-0.0059043149
0
-0.0091639789
-3.9184769e-14
-0.012713163
0
-0.016519187
0
-0.020655447
2.2089967e-18
-0.0251703
0
-0.030035164
1.8678929e-18
-0.035171777
-1.6734255e-18
-0.040492617
0
-0.045965389
0
-0.05164377
5.8212435e-14
-0.057705856
-2.1597242e-14
-0.0027720327
-2.0900117e-14
-0.0055975322
0
-0.0086958569
0
-0.012100372
0
-0.015732955
0
-0.019607022
0
-0.023765181
0
-0.02824769
-1.8664084e-18
-0.033054487
1.7008556e-18
-0.038089357
3.1096487e-14
-0.043264162
6.0162216e-14
-0.048612056
0
-0.054203834
0
-0.060195987
-2.1584425e-14
-0.0026382497
0
-0.0052994237
2.021853e-14
-0.0082373761
0
-0.011500946
0
-0.014979205
3.664894e-14
-0.01864084
0
-0.022496237
0
-0.026604665
0
-0.031064789
0
-0.035826161
3.1072457e-14
-0.040737387
-3.0058384e-14
-0.045778872
0
-0.051021236
0
-0.05654572
5.4385198e-14
-0.062503692
0
-0.0025096108
1.3427422e-18
-0.0050097402
0
-0.0077883912
0
-0.010913381
0
-0.014246321
0
-0.01772786
0
-0.021338497
0
-0.02511625
0
-0.029212251
3.2091279e-14
-0.033670781
0
-0.038343402
1.391036e-18
-0.043125023
0
-0.048050353
0
-0.053217825
0
-0.058692712
0
-0.064608916
0
-0.0023854847
0
-0.00472944
-2.0198995e-14
-0.0073499675
0
-0.010337849
-1.8916213e-14
-0.013530788
0
-0.016850023
0
-0.020260049
0
-0.023762174
0
-0.027504924
0
-0.031637452
3.1021285e-14
-0.036061994
3.0009276e-14
-0.040612541
1.2452398e-18
-0.045268203
0
-0.050102835
0
-0.055207339
0
-0.060650066
0
-0.066555611
2.1557401e-14
-0.0022652094
2.0861847e-14
-0.0044587497
-2.0192087e-14
-0.006923938
1.3840027e-18
-0.0097761568
-1.8905773e-14
-0.012831841
-1.8292521e-14
-0.015999536
0
-0.019237238
0
-0.022514992
0
-0.025954586
0
-0.029754814
-3.0995706e-14
-0.033895473
1.4259586e-18
-0.038210272
2.9005836e-14
-0.042632686
-2.8059388e-14
-0.047184693
0
-0.051942824
0
-0.057012026
0
-0.062438686
0
-0.068328084
2.1551999e-14
-0.0021486284
-2.0854791e-14
-0.0041982334
-2.0183444e-14
-0.0065125382
0
-0.0092309438
-1.8898922e-14
-0.012151119
-1.8282486e-14
-0.015172946
0
-0.018255753
0
-0.021348061
0
-0.024537187
0
-0.028017317
0
-0.031851902
0
-0.035916346
0
-0.040106743
0
-0.044421583
9.8027993e-19
-0.048888043
-2.6232457e-14
-0.053596073
0
-0.058643349
0
-0.064072483
0
-0.069968311
0
-0.0020358287
0
-0.0039484119
2.0176973e-14
-0.0061173892
1.4291834e-18
-0.0087047465
1.8890234e-14
-0.011491058
3.6551664e-14
-0.014370082
3.5357088e-14
-0.017309229
1.7098787e-14
-0.020239032
0
-0.02321809
0
-0.026421972
-3.0945671e-14
-0.02995105
0
-0.03373628
0
-0.037681794
-2.8008599e-14
-0.041768651
0
-0.045996478
2.6209124e-14
-0.050399413
-2.5350084e-14
-0.055075173
0
-0.060123716
0
-0.065565205
0
-0.071467888
0
-0.0019265382
0
-0.0037100507
0
-0.0057397057
-1.9519799e-14
-0.0081990151
0
-0.010853705
1.8267487e-14
-0.013592169
1.1535223e-18
-0.016395297
1.7091251e-14
-0.019178377
1.652924e-14
-0.021977412
0
-0.024951364
0
-0.028200366
1.3972639e-18
-0.031691391
0
-0.035367106
0
-0.03921343
0
-0.043217658
-2.618417e-14
-0.047378988
2.5327702e-14
-0.051737862
2.4497626e-14
-0.056399788
0
-0.061457069
0
-0.066927947
-4.4288017e-14
-0.072857281
0
-0.0018205584
2.0838293e-14
-0.0034833025
0
-0.0053804964
0
-0.0077148874
0
-0.010240533
0
-0.012841256
-1.7662702e-14
-0.015514138
1.7082564e-14
-0.018161565
3.3042291e-14
-0.020799264
-7.8754975e-19
-0.023577382
0
-0.026588026
0
-0.029804543
0
-0.033192018
0
-0.036766541
0
-0.040536208
0
-0.044479328
0
-0.048590163
0
-0.052918774
-2.3671797e-14
-0.057577728
0
-0.062664555
0
-0.068173975
0
-0.074130253
-8.3433806e-19
-0.0017177383
0
-0.0032681099
0
-0.0050407398
0
-0.0072533161
0
-0.0096531315
1.8255597e-14
-0.012119313
-1.765651e-14
-0.014666705
0
-0.01718672
-1.6513015e-14
-0.019676751
0
-0.022282478
-1.5442629e-14
-0.025091916
0
-0.028073136
0
-0.031186205
0
-0.034471481
0
-0.037973094
0
-0.041681801
2.5277135e-14
-0.045572046
-2.4449945e-14
-0.049644426
0
-0.053956701
0
-0.058630139
0
-0.063754778
0
-0.069317783
-4.1339979e-14
-0.075313146
0
-0.0016181088
-6.4971744e-19
-0.0030642894
0
-0.0047206118
0
-0.0068150629
0
-0.0090925323
0
-0.011427676
-1.7652225e-14
-0.013854015
1.0330697e-18
-0.01625262
0
-0.018604702
-1.595993e-14
-0.021055326
-1.5433194e-14
-0.02369138
0
-0.026474491
0
-0.029351189
0
-0.032362531
-2.6992672e-14
-0.035572288
0
-0.039006123
2.5250551e-14
-0.042662841
-2.4424296e-14
-0.046512847
-2.3624548e-14
-0.050558319
-2.2849735e-14
-0.05486826
0
-0.059568059
0
-0.064746101
0
-0.070366992
3.9938166e-14
-0.076403704
0
-0.0015220136
1.0413606e-14
-0.0028717779
1.0076661e-14
-0.0044198372
0
-0.0064000261
0
-0.0085589962
-1.8246316e-14
-0.010767169
0
-0.013076436
0
-0.015359014
0
-0.017580554
-1.5953719e-14
-0.019888591
-1.5425314e-14
-0.022370525
6.8499855e-19
-0.024984419
1.4421053e-14
-0.027661241
0
-0.030428963
0
-0.03336443
2.6082531e-14
-0.036507502
0
-0.039884438
0
-0.043497774
2.3599012e-14
-0.047315925
0
-0.051348111
4.4204988e-19
-0.055669228
4.2702065e-14
-0.060406137
-4.1290869e-14
-0.065641703
0
-0.071332642
0
-0.07741959
-8.474457e-19
-0.0014296992
-1.041221e-14
-0.0026903748
0
-0.0041380208
-7.7215301e-19
-0.0060076974
0
-0.0080523317
0
-0.01013809
1.7643124e-14
-0.01233426
0
-0.014505677
0
-0.016602763
-1.5947464e-14
-0.018777134
0
-0.021119444
6.8850576e-19
-0.023584719
-1.4412059e-14
-0.026089797
-4.8429337e-19
-0.028648678
-2.6948467e-14
-0.031342101
0
-0.034215429
-2.5200229e-14
-0.037291553
0
-0.040617224
0
-0.044199313
4.3345698e-19
-0.047998895
-2.2053328e-14
-0.052029798
-2.132916e-14
-0.056370256
-2.062737e-14
-0.061151699
7.7490555e-19
-0.066457775
0
-0.072221334
0
-0.078359229
-1.0759069e-14
-0.0013412412
1.0410352e-14
-0.0025196912
0
-0.0038744668
-9.7473018e-15
-0.0056374281
-7.6101666e-19
-0.0075717261
0
-0.0095406962
0
-0.011627267
0
-0.013691795
1.6489543e-14
-0.015670357
0
-0.017718359
1.5412592e-14
-0.019930849
0
-0.022262284
0
-0.024617258
1.3925932e-14
-0.026997095
0
-0.029476007
0
-0.032110867
0
-0.034916965
2.4347716e-14
-0.037932544
2.3547391e-14
-0.041222832
-2.2774381e-14
-0.044784243
0
-0.048575315
-3.3970794e-19
-0.052613731
-2.0606103e-14
-0.05698379
0
-0.061819465
0
-0.067199468
0
-0.073044943
-3.5996973e-14
-0.07923686
0
-0.0012566685
-1.0409297e-14
-0.0023590475
-6.5630712e-19
-0.0036281953
0
-0.0052886563
-9.4276431e-15
-0.007116324
-1.8236912e-14
-0.0089740513
0
-0.010955025
0
-0.012916282
-1.6485243e-14
-0.014781746
0
-0.016709905
1.5406164e-14
-0.018800883
1.4893433e-14
-0.021009162
0
-0.023228095
0
-0.025451005
1.3454304e-14
-0.027743177
-1.3008076e-14
-0.030164968
0
-0.03274034
0
-0.03548134
-2.3521867e-14
-0.038447851
0
-0.041712911
-2.2002512e-14
-0.045265924
0
-0.049057367
-2.8626581e-19
-0.053113213
-1.9906037e-14
-0.057520857
-1.9249425e-14
-0.062417438
0
-0.067879675
0
-0.07380593
0
-0.080052834
0
-0.0011759194
0
-0.0022082194
6.5858092e-19
-0.0033982044
-9.7458481e-15
-0.0049606075
9.426496e-15
-0.0066855749
0
-0.0084374495
-8.817268e-15
-0.010316463
-1.7048976e-14
-0.012177385
0
-0.013935321
0
-0.015749905
0
-0.017726223
0
-0.019819996
5.8543446e-19
-0.021913251
0
-0.023995057
3.7404279e-19
-0.026124405
0
-0.028357205
-2.6997951e-19
-0.03072573
0
-0.033240581
0
-0.035921393
0
-0.038849421
0
-0.042103486
-2.1255328e-14
-0.045654989
0
-0.04945675
-1.9883554e-14
-0.053539401
0
-0.057993162
0
-0.062954915
0
-0.06849955
0
-0.074513034
3.3580842e-14
-0.08081544
0
-0.0010980408
0
-0.0020672027
0
-0.0031835174
7.9609044e-19
-0.0046524887
-7.832787e-19
-0.0062788617
-9.1157262e-15
-0.0079296025
8.815361e-15
-0.0097100515
0
-0.011473426
0
-0.01312908
0
-0.014835832
0
-0.016703824
-1.488246e-14
-0.018691223
1.4383828e-14
-0.020666831
0
-0.0226186
-1.3437963e-14
-0.024604039
3.0155132e-19
-0.02667099
0
-0.028851772
-2.1252821e-19
-0.031168692
0
-0.033622397
0
-0.036248018
0
-0.03915059
0
-0.042401117
0
-0.045963231
0
-0.049785411
-2.0160212e-19
-0.053903839
-1.8574556e-14
-0.058407016
-1.7960749e-14
-0.063436886
-3.4726882e-14
-0.069070093
0
-0.075168106
-3.2430997e-14
-0.081525488
-5.0163198e-06
-0.0012003918
0
-0.0019339626
0
-0.0029834565
0
-0.0043630509
7.8883164e-19
-0.0058949285
0
-0.007449248
-8.8142683e-15
-0.0091335763
8.5218014e-15
-0.010802075
-4.2879669e-19
-0.012361075
0
-0.013966147
0
-0.015730959
0
-0.017618886
-1.4379101e-14
-0.019484379
1.3896533e-14
-0.021315185
1.3431291e-14
-0.023170622
0
-0.025091777
1.2548031e-14
-0.02710441
0
-0.029237277
-1.1726667e-14
-0.031500626
0
-0.033892941
0
-0.036472352
0
-0.039359484
-2.050778e-14
-0.042619738
0
-0.046201541
1.538435e-19
-0.050054151
-1.8553074e-14
-0.054213307
-1.7941469e-14
-0.058771217
-1.734784e-14
-0.063872578
0
-0.069593665
0
-0.075780495
0
-0.082189264
-8.4002427e-06
-0.0011926112
-1.3398635e-05
-0.002104025
0
-0.0027960708
0
-0.0040911369
0
-0.0055325105
-9.1139171e-15
-0.0069944484
-8.813317e-15
-0.0085854783
1.7040849e-14
-0.010161538
4.2746137e-19
-0.011629676
7.9612046e-15
-0.013138939
0
-0.014805657
0
-0.016600082
5.8809825e-19
-0.018361814
0
-0.020079233
0
-0.021816156
2.775119e-19
-0.023608125
0
-0.025471515
0
-0.027434188
-1.1716401e-14
-0.029521631
1.1327006e-14
-0.03172896
0
-0.034060332
0
-0.03660337
0
-0.039487596
0
-0.042767599
0
-0.046381904
0
-0.050270977
1.7920423e-14
-0.05447702
-1.7329213e-14
-0.059092109
1.6754922e-14
-0.064267201
3.2393198e-14
-0.070079431
0
-0.076349189
5.3589179e-19
-0.082808298
-1.0350793e-05
-0.0011845446
-2.2492549e-05
-0.0021037706
-2.0232767e-05
-0.0030250502
-9.742801e-15
-0.003834988
0
-0.0051906192
0
-0.006564182
8.8124888e-15
-0.0080640406
-5.7151654e-19
-0.0095505064
0
-0.010933131
0
-0.012352746
-3.8129915e-19
-0.013926188
1.4869539e-14
-0.015632106
0
-0.017295704
1.3886636e-14
-0.018906356
0
-0.020534119
-2.6779739e-19
-0.02221032
0
-0.023942004
0
-0.025751214
-1.1706927e-14
-0.027670422
1.131683e-14
-0.029711627
-5.7503153e-20
-0.031856826
0
-0.034131736
0
-0.036649349
0
-0.039543666
0
-0.042857675
-1.8505896e-14
-0.046511047
1.7898027e-14
-0.050444679
0
-0.054701589
-1.6737157e-14
-0.059377708
-1.6181936e-14
-0.064627257
3.12835e-14
-0.070527101
0
-0.076880907
-2.92059e-14
-0.083384654
-1.1065483e-05
-0.0011770803
-2.778884e-05
-0.0021026729
-3.4073011e-05
-0.0030405873
-2.7389262e-05
-0.0041180344
0
-0.0048669269
0
-0.0061575024
0
-0.0075682455
5.7201424e-19
-0.0089677738
-4.2494264e-19
-0.010269895
0
-0.011605499
3.819284e-19
-0.01309043
-1.4867175e-14
-0.014712982
1.4365955e-14
-0.016283356
0
-0.017792847
1.3414308e-14
-0.019319309
2.6004349e-19
-0.020890895
0
-0.022505253
0
-0.024178376
0
-0.025941915
7.7175503e-20
-0.02782169
4.6674859e-20
-0.029810113
0
-0.031888603
0
-0.034113314
0
-0.036620808
0
-0.039538743
0
-0.04289556
0
-0.046598748
0
-0.050582175
-9.6065359e-20
-0.054894372
3.2329597e-14
-0.059631978
-1.5627548e-14
-0.064955699
3.0210475e-14
-0.070945442
0
-0.077375054
-2.8201239e-14
-0.08392071
-1.0739191e-05
-0.0011703461
-2.9785143e-05
-0.0021022157
-4.2231136e-05
-0.0030548141
-4.6198786e-05
-0.0041506464
-3.4661278e-05
-0.0051880608
0
-0.0057710587
0
-0.0070967086
0
-0.0084124065
-8.2334527e-15
-0.0096385493
-7.9581765e-15
-0.010895968
0
-0.012296608
-7.4318315e-15
-0.013840183
-7.1819536e-15
-0.015322317
1.3878526e-14
-0.016735991
0
-0.018167976
1.295699e-14
-0.019643857
0
-0.021152826
-1.3147626e-19
-0.022705258
-1.1690652e-14
-0.024328984
0
-0.026054078
1.0920577e-14
-0.027891283
1.0556549e-14
-0.029814811
0
-0.03182468
0
-0.034015047
0
-0.036526671
-8.7852763e-20
-0.039480493
0
-0.042892022
0
-0.046651488
0
-0.050690696
0
-0.055059144
3.1222396e-14
-0.059860254
0
-0.065261228
0
-0.071336079
0
-0.077839483
0
-0.084417861
-9.5615058e-06
-0.0011644326
-2.8983545e-05
-0.0021024343
-4.5408881e-05
-0.003068936
-5.7334488e-05
-0.004180558
-5.8467651e-05
-0.0052416196
-4.0840495e-05
-0.0061042693
0
-0.0066467411
0
-0.0078834171
0
-0.0090382866
3.6884782e-19
-0.010222456
-7.6900061e-15
-0.011543366
7.4310319e-15
-0.013011453
0
-0.014410293
6.9373955e-15
-0.015733225
-1.3405625e-14
-0.017076782
1.2952138e-14
-0.018465032
0
-0.019878144
0
-0.02132249
1.168357e-14
-0.022822515
-1.1290422e-14
-0.0244047
1.0911595e-14
-0.026091548
1.0546691e-14
-0.027872829
-5.6258481e-20
-0.029722204
-9.8567535e-15
-0.031675614
0
-0.03384717
0
-0.036377522
0
-0.039378136
0
-0.042853443
0
-0.046677747
0
-0.050774142
0
-0.055201046
9.7944499e-20
-0.060067927
0
-0.065547593
-2.8169632e-14
-0.071705921
-2.7218399e-14
-0.078270748
2.629137e-14
-0.084878494
-7.7197266e-06
-0.0011594559
-2.5870468e-05
-0.0021032714
-4.4323369e-05
-0.0030828418
-6.1729768e-05
-0.0042088459
-7.256173e-05
-0.005289354
-6.8846639e-05
-0.0061767033
-4.5911684e-05
-0.0069755749
0
-0.007378193
0
-0.0084684764
0
-0.0095840893
3.8472139e-19
-0.010829407
-4.0666382e-19
-0.012224697
0
-0.013544738
6.9361243e-15
-0.014782137
-1.4772445e-19
-0.016042956
0
-0.017350385
0
-0.01867594
0
-0.020022706
0
-0.021413073
1.1283146e-14
-0.022867124
1.0903386e-14
-0.024410215
0
-0.026049322
-7.0021426e-20
-0.027761196
0
-0.029540752
0
-0.03145234
0
-0.033621344
1.780266e-14
-0.036180955
-1.7217023e-14
-0.039240209
0
-0.042789231
0
-0.046681474
1.5573082e-14
-0.050838001
-1.5058451e-14
-0.055324052
8.9231006e-20
-0.060260456
0
-0.065819018
2.7200262e-14
-0.072052318
0
-0.078674061
0
-0.085301531
-5.3946129e-06
-0.0011555543
-2.0938185e-05
-0.0021047569
-3.9677964e-05
-0.0030963884
-6.0320222e-05
-0.0042354546
-7.8108289e-05
-0.005332693
-8.5362903e-05
-0.0062378725
-7.7326867e-05
-0.0070681702
-4.9950757e-05
-0.007687068
0
-0.0079258692
0
-0.008980152
0
-0.010153185
4.1453779e-19
-0.011478403
0
-0.012723547
0
-0.01388045
6.6997177e-15
-0.015063552
-6.4723674e-15
-0.016296381
0
-0.01754151
0
-0.018799336
1.167153e-14
-0.020092286
7.265997e-21
-0.021433038
1.0895925e-14
-0.022844201
1.0529156e-14
-0.024342157
-1.0175953e-14
-0.025918776
-1.218084e-19
-0.027560129
-1.4926685e-19
-0.029280977
1.5895081e-19
-0.031166484
0
-0.033345502
0
-0.035947975
-1.662797e-14
-0.039075091
0
-0.042704475
0
-0.046669096
0
-0.050885606
-1.4541794e-14
-0.05543238
1.4058447e-14
-0.060439332
0
-0.066075203
0
-0.072380009
2.5372964e-14
-0.079045578
0
-0.08569014
-2.7633807e-06
-0.0011527863
-1.4663329e-05
-0.0021069437
-3.2197599e-05
-0.00310932
-5.4057995e-05
-0.0042601143
-7.6298271e-05
-0.0053714094
-9.1781558e-05
-0.0062901242
-9.5762426e-05
-0.007145802
-8.4089251e-05
-0.0078055956
-5.2537733e-05
-0.0082034209
0
-0.0084063066
0
-0.009513384
0
-0.010770073
2.9472274e-19
-0.011944688
6.9335445e-15
-0.013026315
6.6983898e-15
-0.014136343
-6.4706717e-15
-0.015299602
6.250729e-15
-0.01647057
0
-0.017646827
0
-0.018852558
0
-0.020093334
-1.0889125e-14
-0.021386499
-1.0521484e-14
-0.022751269
-1.064004e-19
-0.024191964
0
-0.025705109
0
-0.027280967
0
-0.028953189
0
-0.030826367
0
-0.033030869
0
-0.035685279
1.6058507e-14
-0.038889835
0
-0.042605386
0
-0.046643764
1.8429055e-21
-0.050920833
1.4042316e-14
-0.055527877
0
-0.06060657
0
-0.066318609
0
-0.072685895
0
-0.079391801
3.0791693e-19
-0.0860429
-0.0011511135
0
-7.526357e-06
-0.0021098388
-2.260155e-05
-0.0031214434
-4.3903157e-05
-0.0042824551
-6.8346117e-05
-0.0054052882
-8.9535527e-05
-0.0063338199
-0.00010282361
-0.0072104146
-0.00010409467
-0.0079059746
-8.8439872e-05
-0.0083477687
-5.4082073e-05
-0.0086496767
0
-0.0089076718
0
-0.010097236
0
-0.011205844
-6.9325746e-15
-0.012217869
0
-0.013259229
0
-0.014357342
6.2491761e-15
-0.015459417
6.0363638e-15
-0.016560254
0
-0.017687281
0
-0.018839624
1.0883031e-14
-0.020028323
-1.0514524e-14
-0.021273191
0
-0.022583076
0
-0.023966866
-9.4889502e-15
-0.025418115
9.1720765e-15
-0.026930225
-2.2309873e-19
-0.028564534
8.5739195e-15
-0.030443831
0
-0.032684768
0
-0.035401895
-1.5508583e-14
-0.038689966
0
-0.042496382
0
-0.046609959
0
-0.05094564
1.3559543e-14
-0.055612689
6.8256749e-20
-0.06076314
0
-0.066549335
0
-0.072973577
0
-0.079706408
0
-0.086362532
-0.0021133416
0
-0.0011505505
2.7606795e-06
-1.1623603e-05
-0.0031326467
-3.0840135e-05
-0.0043020877
-5.5474295e-05
-0.0054339031
-8.0085085e-05
-0.0063692764
-0.00010016105
-0.0072626283
-0.0001117146
-0.0079910467
-0.00010948396
-0.0084712837
-9.1075359e-05
-0.0088272527
-5.5327937e-05
-0.0091139077
0
-0.0094578212
0
-0.010504593
0
-0.011453028
6.6962216e-15
-0.012430465
6.4680889e-15
-0.013467044
0
-0.01450476
3.7529847e-20
-0.015535597
-1.3348117e-20
-0.016591018
1.1260707e-14
-0.01766445
0
-0.018760713
0
-0.01989941
0
-0.021089222
-9.8097517e-15
-0.022344973
0
-0.023674289
-9.1626742e-15
-0.025056737
8.8569263e-15
-0.026508196
8.562838e-15
-0.028126421
2.2910704e-19
-0.030027142
0
-0.032317064
0
-0.035103135
-1.497697e-14
-0.038481817
0
-0.042382153
1.4006223e-14
-0.046569643
0
-0.050962777
0
-0.055690205
6.4761624e-20
-0.06091245
0
-0.066766281
0
-0.073237484
0
-0.079994204
0
-0.08664686
-0.0031427911
0
-0.0021174025
7.5424531e-06
-0.0011511899
5.3849496e-06
-1.5867228e-05
-0.0043187738
-3.8940889e-05
-0.0054568655
-6.4907827e-05
-0.0063968886
-8.9445786e-05
-0.0073031302
-0.00010876389
-0.0080609282
-0.00011751607
-0.0085772641
-0.00011279874
-0.0089811307
-9.3258969e-05
-0.0093281824
-5.6623307e-05
-0.0096217909
0
-0.0098374593
0
-0.010729718
0
-0.01164761
1.245563e-19
-0.01262639
6.246407e-15
-0.013603696
0
-0.014569216
5.8271717e-15
-0.015558993
1.5761325e-20
-0.016561789
0
-0.017575646
0
-0.01862071
-1.0146108e-14
-0.019703774
0
-0.020838247
-9.4717609e-15
-0.02204375
-9.153726e-15
-0.023307413
-8.8474915e-15
-0.024617496
8.5524831e-15
-0.026030324
0
-0.027651186
0
-0.029587768
0
-0.031933959
0
-0.034796971
0
-0.038270036
0
-0.042266034
0
-0.046525774
1.3077008e-14
-0.050975285
1.2641855e-14
-0.055762716
0
-0.06105203
1.1807811e-14
-0.066967699
-2.2815949e-14
-0.073479166
0
-0.080249369
-2.128113e-14
-0.086899905
-0.0043322976
0
-0.0031519122
1.1681948e-05
-0.0021218977
1.47258e-05
-0.0011531003
7.7007768e-06
-2.0019201e-05
-0.0054741557
-4.549761e-05
-0.0064170678
-7.238739e-05
-0.0073327918
-9.7081013e-05
-0.0081159343
-0.00011443494
-0.0086657402
-0.00012112641
-0.0091144246
-0.00011559859
-0.009516784
-9.5519208e-05
-0.0098723061
-5.7374383e-05
-0.0099494754
0
-0.010044188
0
-0.010908383
0
-0.011832333
7.9916639e-20
-0.012753283
-6.0319093e-15
-0.01365787
5.8256244e-15
-0.014587079
-5.6264609e-15
-0.015526055
0
-0.016466224
0
-0.017428513
0
-0.018417964
-9.7960248e-15
-0.019442557
0
-0.020527505
-9.1451868e-15
-0.021674084
0
-0.022862768
-8.5427105e-15
-0.02411558
8.2584252e-15
-0.025510489
0
-0.027151391
0
-0.029132685
0
-0.031544043
0
-0.034487771
0
-0.038059417
0
-0.042150636
-5.3360995e-20
-0.046480219
-1.2626775e-14
-0.050984939
0
-0.05583069
5.6560861e-20
-0.06118264
1.1399289e-14
-0.06714928
0
-0.073693614
0
-0.080479097
1.9253156e-19
-0.087119368
-0.0054857059
0
-0.0043431422
1.5952112e-05
-0.0031597158
2.282544e-05
-0.0021266879
2.1070459e-05
-0.0011562415
9.5319762e-06
-2.3359549e-05
-0.0064302702
-5.0668383e-05
-0.0073522363
-7.8520605e-05
-0.008156348
-0.00010216177
-0.0087367633
-0.00011800534
-0.0092268695
-0.00012423029
-0.0096804376
-0.00011846999
-0.010093173
-9.6807367e-05
-0.010229956
-5.6995568e-05
-0.010099745
0
-0.010209597
0
-0.011082108
0
-0.011950513
0
-0.012798475
-7.1308904e-21
-0.013671425
-5.624831e-15
-0.014552385
-5.4163741e-20
-0.015426259
7.6232825e-20
-0.016315042
0
-0.017222908
0
-0.018150531
9.4574888e-15
-0.019123787
0
-0.020153326
-8.8297365e-15
-0.02122527
8.5335624e-15
-0.022349259
0
-0.023568145
7.9744256e-15
-0.024963473
-7.7107132e-15
-0.026635195
0
-0.028671468
0
-0.031152086
0
-0.034181508
1.3487034e-14
-0.037852551
0
-0.042038381
0
-0.046434562
1.2191611e-14
-0.05099248
0
-0.055894207
0
-0.061298793
-1.1004566e-14
-0.067310612
2.1261446e-14
-0.073884045
0
-0.080676519
0
-0.08730841
-0.0064365238
0
-0.0054926288
2.009177e-05
-0.0043511438
3.1167407e-05
-0.0031657423
3.2667226e-05
-0.0021318027
2.6084171e-05
-0.0011607745
1.0704886e-05
-2.5980576e-05
-0.0073617257
-5.4926279e-05
-0.0081823852
-8.2638269e-05
-0.0087901203
-0.00010539899
-0.0093183276
-0.00012110523
-0.0098186783
-0.00012737218
-0.010284512
-0.00012009462
-0.010477052
-9.617766e-05
-0.010404672
-5.5978371e-05
-0.01020975
0
-0.01037277
6.2436134e-15
-0.011192577
0
-0.011988246
0
-0.012808663
1.124688e-14
-0.013636353
5.4306831e-15
-0.01445032
0
-0.015273485
-5.0650629e-15
-0.016110137
0
-0.016953244
-2.8507457e-19
-0.017826309
0
-0.018744668
0
-0.019702074
0
-0.020709664
0
-0.021790824
0
-0.022990807
-3.4251383e-19
-0.024398262
0
-0.026112775
-7.2001568e-15
-0.028208975
0
-0.030764738
0
-0.033880919
0
-0.037652673
0
-0.041930277
1.2176286e-14
-0.046388925
0
-0.050998303
0
-0.055951755
0
-0.061402933
0
-0.067448754
2.0523127e-14
-0.074046066
0
-0.080847151
1.9136828e-14
-0.087465026
-0.0073614621
0
-0.0064375883
2.3390906e-05
-0.0054948958
3.9222473e-05
-0.0043555018
4.4593333e-05
-0.0031699586
4.04334e-05
-0.0021371402
2.9279473e-05
-0.0011669234
1.1036086e-05
-2.8142453e-05
-0.0081941579
-5.7809083e-05
-0.0088258671
-8.5291722e-05
-0.009388578
-0.00010822108
-0.0099312685
-0.00012420822
-0.010445813
-0.00012914732
-0.010691648
-0.00011933204
-0.010674168
-9.4473858e-05
-0.010538928
-5.4847283e-05
-0.01031896
0
-0.010475927
0
-0.011224647
0
-0.01199563
-2.2210031e-20
-0.012774176
6.2721071e-20
-0.01353368
-5.2428507e-15
-0.014297874
-5.0631177e-15
-0.015072083
-4.889846e-15
-0.015841783
-9.4458201e-15
-0.016627084
0
-0.017445982
0
-0.018293912
0
-0.019187476
0
-0.020151313
0
-0.02120069
0
-0.022391387
-7.4356462e-15
-0.02382552
0
-0.025589616
6.9525892e-15
-0.02775268
0
-0.030385426
0
-0.033589988
0
-0.037460871
1.2160096e-14
-0.041827219
0
-0.046343662
-1.592161e-20
-0.051001873
-1.0983933e-14
-0.056004169
-2.1227827e-14
-0.061490236
-1.0254314e-14
-0.067564601
0
-0.074182466
0
-0.080985882
0
-0.087593511
-0.0081920179
0
-0.0073539556
2.5956383e-05
-0.0064332011
4.5617752e-05
-0.005491632
5.6076322e-05
-0.0043562205
5.5174347e-05
-0.0031721874
4.5348793e-05
-0.0021427013
3.01514e-05
-0.0011746694
1.0335839e-05
-2.9618018e-05
-0.0088442599
-5.9687088e-05
-0.0094373238
-8.7615687e-05
-0.010017953
-0.00011102746
-0.010576804
-0.00012595794
-0.010873012
-0.0001283364
-0.010909101
-0.00011723149
-0.01083079
-9.259699e-05
-0.010673073
-5.3583278e-05
-0.010369151
6.0285684e-15
-0.010504495
0
-0.011229527
5.6211321e-15
-0.011962146
5.4278673e-15
-0.01267222
9.1261382e-20
-0.013383157
-1.1011471e-19
-0.014102148
-1.3977649e-19
-0.014807967
-4.7202791e-15
-0.015516936
0
-0.016249103
0
-0.016997576
0
-0.017780018
0
-0.018631889
0
-0.01955844
0
-0.020579962
0
-0.021779112
0
-0.02325106
6.9424794e-15
-0.025073451
6.7139572e-15
-0.027306243
0
-0.030018415
0
-0.033310013
-1.2143242e-14
-0.037278741
0
-0.041728979
0
-0.046298131
1.0971896e-14
-0.051003459
-1.0603675e-14
-0.056048355
0
-0.061563196
-9.8980969e-15
-0.067655747
0
-0.074290438
0
-0.08109973
-1.7825477e-14
-0.087691878
-0.0088455091
0
-0.0081796
2.807043e-05
-0.0073394689
5.0573913e-05
-0.0064210985
6.5161175e-05
-0.0054831854
6.933625e-05
-0.0043534685
6.1848714e-05
-0.003172102
4.6626757e-05
-0.0021481768
2.8185474e-05
-0.0011840792
8.4057015e-06
-3.0589413e-05
-0.0094646036
-6.1333749e-05
-0.01007865
-8.9898365e-05
-0.01067713
-0.00011259209
-0.011020661
-0.00012517925
-0.011108435
-0.00012609842
-0.011085579
-0.00011491802
-0.010987554
-9.0469746e-05
-0.010746393
-5.1996904e-05
-0.010346868
0
-0.010507953
0
-0.011196917
-1.085363e-14
-0.011862082
-9.5250777e-20
-0.012524819
-5.059722e-15
-0.013194655
0
-0.013844658
-4.7184137e-15
-0.014487227
1.8411322e-19
-0.015144905
0
-0.015806508
8.5038012e-15
-0.016484626
-4.5330852e-19
-0.017225413
7.9386577e-15
-0.018041055
0
-0.0189295
0
-0.019941712
-7.1698687e-15
-0.02116371
0
-0.022683821
-6.7041291e-15
-0.024568629
0
-0.026874623
0
-0.029665312
0
-0.03304306
0
-0.037106024
-1.1336275e-14
-0.041635645
1.0958962e-14
-0.046252402
0
-0.051000776
0
-0.056085497
9.8901982e-15
-0.061615124
9.5539658e-15
-0.067723889
0
-0.074373543
0
-0.081183068
-1.7203018e-14
-0.087763577
-0.0094703557
0
-0.0088339672
2.9534771e-05
-0.0081572929
5.464962e-05
-0.0073151819
7.217585e-05
-0.0064010486
8.0496825e-05
-0.0054695055
7.7681281e-05
-0.004347075
6.3554414e-05
-0.0031695255
4.3492291e-05
-0.0021539557
2.2867624e-05
-0.0011949636
5.0327869e-06
-3.1441412e-05
-0.01011323
-6.2934697e-05
-0.010746592
-9.1164297e-05
-0.01113412
-0.00011191373
-0.011271352
-0.00012302167
-0.011302165
-0.00012363383
-0.011261989
-0.00011230886
-0.011081747
-8.7826132e-05
-0.010745123
-5.0219818e-05
-0.010301642
0
-0.01047649
0
-0.011099755
0
-0.011718735
-1.1563101e-19
-0.012344191
1.4973247e-19
-0.01294546
-4.7162971e-15
-0.013530263
-4.5546841e-15
-0.014124091
4.398883e-15
-0.014711928
0
-0.015296892
0
-0.015930826
-4.7526646e-19
-0.016640582
0
-0.01741118
-7.4075226e-15
-0.018272514
0
-0.019295107
0
-0.020554507
-3.3775692e-19
-0.022128664
-6.4736578e-15
-0.024080473
6.2603661e-15
-0.026459265
0
-0.029328482
1.170829e-14
-0.032789159
1.1321141e-14
-0.036943226
0
-0.041546615
1.0580197e-14
-0.046205275
-1.022564e-14
-0.05099486
-9.8811714e-15
-0.056107951
9.5465741e-15
-0.061648989
-9.2215354e-15
-0.067767426
0
-0.074429541
0
-0.081242025
-1.660174e-14
-0.087805423
-0.010121752
0
-0.0094594322
3.0514419e-05
-0.0088097173
5.7487126e-05
-0.0081221033
7.793265e-05
-0.0072802747
8.907809e-05
-0.0063723658
9.0099546e-05
-0.0054504673
7.9793168e-05
-0.0043370305
5.9244157e-05
-0.0031643676
3.5181089e-05
-0.0021601191
1.3653151e-05
-0.0012063058
0
-3.225987e-05
-0.0107852
-6.3817456e-05
-0.011212941
-9.0625123e-05
-0.011397203
-0.00011000008
-0.011479756
-0.00012062946
-0.011495274
-0.00012084044
-0.01137482
-0.00010905435
-0.011100285
-8.4861869e-05
-0.010719858
-4.8375778e-05
-0.010224184
0
-0.010383915
0
-0.010961388
0
-0.011546258
-4.8828985e-15
-0.012104381
1.8476699e-19
-0.012639075
-4.552476e-15
-0.013178267
0
-0.013704337
2.4933998e-19
-0.014209139
8.2026574e-15
-0.014744525
7.924379e-15
-0.01534975
0
-0.016010018
0
-0.016744004
0
-0.017607709
-6.9142793e-15
-0.018655479
0
-0.019957787
0
-0.021591783
-6.2510838e-15
-0.023610635
0
-0.026063094
0
-0.029008455
0
-0.032548865
0
-0.036789564
1.0567148e-14
-0.041461838
-1.0214152e-14
-0.046157409
9.8712435e-15
-0.050981163
0
-0.056117027
-1.8664203e-21
-0.061659408
-8.9003111e-15
-0.067788104
-1.718995e-14
-0.074462003
0
-0.081271529
0
-0.087820528
-0.010793136
0
-0.010109759
3.136791e-05
-0.0094320685
5.9396158e-05
-0.0087687943
8.1958295e-05
-0.0080736617
9.6113833e-05
-0.0072337893
9.9603091e-05
-0.0063346318
9.2456066e-05
-0.0054256151
7.4358775e-05
-0.0043226766
4.7873696e-05
-0.0031569431
2.0933802e-05
-0.0021654888
0
-0.0011070798
0
-3.2707627e-05
-0.011257109
-6.3444802e-05
-0.011485484
-8.9089257e-05
-0.011617542
-0.00010787257
-0.011686608
-0.00011791882
-0.011624178
-0.00011737301
-0.011411257
-0.00010541275
-0.011093921
-8.1775845e-05
-0.010660676
-4.6375116e-05
-0.010090147
0
-0.010252686
0
-0.010797043
0
-0.011316564
-1.9073078e-19
-0.011807625
-4.5506934e-15
-0.012299817
0
-0.012774422
-2.5976544e-19
-0.01321227
-4.0985587e-15
-0.013660001
0
-0.014166758
0
-0.014727738
0
-0.015346044
-7.143662e-15
-0.016070827
6.9055875e-15
-0.016950535
6.6756314e-15
-0.01802872
-6.4550224e-15
-0.019380345
6.2415873e-15
-0.02107492
-2.5783837e-19
-0.023162298
-5.836973e-15
-0.025686699
0
-0.028705751
0
-0.032321679
0
-0.036645172
0
-0.041380748
0
-0.046107927
0
-0.050960222
0
-0.056105803
0
-0.061648997
2.5769873e-14
-0.067786236
0
-0.074469386
0
-0.081276091
-0.00079821597
-0.087010684
-0.011266709
0
-0.010777195
3.2173773e-05
-0.010077332
6.1048479e-05
-0.0093837076
8.4673721e-05
-0.0087111926
0.00010105408
-0.0080114638
0.00010739615
-0.007175353
0.00010208912
-0.006286973
8.6053264e-05
-0.0053944415
6.0070829e-05
-0.0043038392
2.8449369e-05