/*--------------------------------*- C++ -*----------------------------------*\
| =========                 |                                                 |
| \\      /  F ield         | OpenFOAM: The Open Source CFD Toolbox           |
|  \\    /   O peration     | Version:  v2012                                 |
|   \\  /    A nd           | Website:  www.openfoam.com                      |
|    \\/     M anipulation  |                                                 |
\*---------------------------------------------------------------------------*/
FoamFile
{
    version     2.0;
    format      ascii;
    class       volScalarField;
    location    "31.4558248775613549";
    object      p;
}
// * * * * * * * * * * * * * * * * * * * * * * * * * * * * * * * * * * * * * //

dimensions      [0 2 -2 0 0 0 0];


internalField   nonuniform List<scalar> 
9200
(
0.015383443
0.017255013
0.020507538
0.018446657
0.022244396
0.040249306
0.021789024
0.023086512
0.042606089
0.053976413
0.026038383
0.026190095
0.044906881
0.056436877
0.067048849
0.031844737
0.030141427
0.049756703
0.058905684
0.069483067
0.078168892
0.038682704
0.035953855
0.055713736
0.063754354
0.072047906
0.080406113
0.088080556
0.043427306
0.043878104
0.063617835
0.069591161
0.076808898
0.082842865
0.090069914
0.096892487
0.0445432
0.055218389
0.073164031
0.076997538
0.082438836
0.087162358
0.092296404
0.09861155
0.10485037
0.044400904
0.06973006
0.084109826
0.085639118
0.089309485
0.092171507
0.096099909
0.10057581
0.10629305
0.11210713
0.042328565
0.086600527
0.095652362
0.095411139
0.097012345
0.098086499
0.10043541
0.10382236
0.10799218
0.11327183
0.11873275
0.037457358
0.10450442
0.10726065
0.10594952
0.10526539
0.10451049
0.1054039
0.10746211
0.11069788
0.11472445
0.11970576
0.1248969
0.028301804
0.11802652
0.11823373
0.11665923
0.11361504
0.11117203
0.11064184
0.11150903
0.11369008
0.1169288
0.12091348
0.12569008
0.13070494
0.017803038
0.12825652
0.12767027
0.12670895
0.12159465
0.11772013
0.11587421
0.11564784
0.11690553
0.11933261
0.12267858
0.12667633
0.13127816
0.1361424
0.0083063818
0.13746384
0.13601962
0.13527156
0.12868328
0.12375138
0.1207865
0.11961983
0.12008295
0.12181808
0.1245657
0.12804891
0.13208932
0.13654108
0.14128194
-0.0015476493
0.15001232
0.14255192
0.14194129
0.13442289
0.1288657
0.12506886
0.12318749
0.12300999
0.1241895
0.12642906
0.12950373
0.13312471
0.13721706
0.14152885
0.14616323
-0.012132475
0.15157096
0.14665267
0.14654972
0.13861954
0.13280652
0.12849878
0.1261285
0.12548422
0.12623869
0.12812944
0.13084691
0.13422518
0.13796278
0.14209897
0.14627742
0.15081496
-0.022721364
0.15038747
0.14728697
0.14890526
0.14112528
0.13545247
0.13093845
0.1283096
0.12736562
0.12784229
0.12946649
0.13199523
0.13513879
0.1387769
0.14260325
0.14676426
0.15081265
0.1552594
-0.030523734
0.14616751
0.14526227
0.14876596
0.1417849
0.13667459
0.13227594
0.12962619
0.12855768
0.12887752
0.13035848
0.13275123
0.13584072
0.13934604
0.14318974
0.14707165
0.15123526
0.15515477
0.15951436
-0.033613755
0.13944231
0.14081495
0.14632185
0.14061813
0.13643153
0.13247185
0.13003059
0.12900689
0.12929427
0.13071041
0.13306632
0.13613272
0.1396976
0.14349187
0.14748187
0.15138335
0.15552813
0.15931959
0.16359453
-0.03184047
0.13064166
0.13413576
0.14183196
0.13776959
0.13478699
0.13155625
0.12954789
0.12872509
0.1290812
0.13050545
0.1328634
0.13598691
0.13963096
0.14358041
0.14758494
0.15166128
0.15554711
0.15965447
0.16331956
0.16751242
-0.02532891
0.12005122
0.12553772
0.13558882
0.13345125
0.13184779
0.12958671
0.12823061
0.12776399
0.12827839
0.12975789
0.13214215
0.13533384
0.13912938
0.14325213
0.14748946
0.15162321
0.15572861
0.15956731
0.16362289
0.16716501
0.17127894
-0.015163103
0.10825097
0.11547016
0.12794512
0.12790831
0.127743
0.12666257
0.12615854
0.12620264
0.12695052
0.12852708
0.13092865
0.13417774
0.13812312
0.14249612
0.1469901
0.15141351
0.15559675
0.15967965
0.16344581
0.16744016
0.17086504
0.17490394
-0.005468561
0.097186549
0.10433241
0.11929064
0.1214059
0.12260348
0.12285847
0.12343801
0.12418141
0.12519468
0.12689956
0.12928832
0.13254317
0.136611
0.14123654
0.14607989
0.15082627
0.1553317
0.15949018
0.16350751
0.16718329
0.17111221
0.17442798
0.17839652
0.0015431836
0.090323406
0.092756905
0.11004234
0.11422141
0.11655208
0.11823767
0.12005745
0.12177574
0.12310867
0.12499992
0.1273162
0.13048971
0.13460485
0.13945955
0.14467453
0.14985971
0.15472977
0.15921597
0.16328513
0.16720449
0.17078042
0.17464476
0.17786177
0.18176527
0.0077937374
0.087936291
0.081408175
0.1005229
0.10663067
0.10970204
0.11283752
0.11607933
0.11885039
0.12065916
0.12292513
0.12513119
0.12810408
0.13214734
0.13715599
0.14274461
0.14842252
0.1537979
0.15865911
0.1630339
0.16696263
0.17076359
0.17423856
0.17804377
0.18117417
0.18501832
0.015817282
0.086038717
0.070579309
0.09099535
0.098901975
0.10215215
0.10663584
0.11164523
0.11528371
0.11839954
0.12088084
0.12284916
0.12548871
0.12930268
0.13434095
0.14025586
0.14647149
0.15244251
0.15784025
0.16256544
0.16675183
0.17050509
0.17417963
0.1775603
0.18131561
0.18437278
0.18816344
0.026760523
0.082142104
0.061258926
0.081666501
0.091251085
0.093990868
0.09957546
0.10674743
0.11163211
0.11646296
0.11890476
0.1206639
0.12276594
0.1261507
0.13104415
0.13718952
0.14394898
0.15061253
0.15667022
0.16191939
0.16639663
0.17033783
0.17389801
0.17744995
0.18074965
0.18446714
0.18746509
0.19120797
0.041371586
0.074917798
0.054123903
0.072643148
0.083847206
0.085308076
0.091536887
0.10130984
0.10790695
0.11413599
0.11715788
0.11861604
0.12005484
0.12278879
0.12730916
0.13353282
0.14080343
0.14823413
0.15509877
0.16101838
0.16596044
0.17010173
0.17376422
0.17713102
0.18057474
0.18381206
0.18750565
0.19045839
0.19415881
0.057539188
0.063552951
0.048936831
0.063938552
0.076810865
0.07623237
0.082342778
0.09524746
0.10365547
0.11149216
0.11572574
0.11683856
0.11748338
0.1193107
0.12319168
0.12927958
0.13697957
0.14523142
0.15304663
0.15982247
0.16538444
0.16988756
0.17363488
0.17700937
0.1801985
0.18355705
0.18675428
0.19043871
0.19335969
0.19702241
0.074165829
0.05148477
0.045541444
0.055573481
0.070240366
0.066869423
0.071766346
0.088455841
0.0988159
0.10876399
0.11454187
0.11548206
0.1151395
0.11581414
0.11875236
0.12442816
0.13241825
0.14151617
0.15042677
0.15825894
0.16464785
0.16966049
0.17363023
0.17695839
0.18005882
0.18309968
0.18640259
0.18958409
0.19327398
0.19617563
0.19980466
0.091997782
0.041436088
0.042212955
0.047370177
0.064131392
0.057351378
0.059494979
0.080784042
0.093254027
0.1057462
0.11366857
0.11452203
0.11308016
0.11238274
0.11405728
0.11897905
0.1270538
0.13698704
0.14713369
0.15624406
0.16369539
0.16942587
0.17374287
0.17712816
0.18004471
0.18290562
0.18583837
0.1891193
0.19230999
0.19601906
0.19891239
0.20251094
0.10986751
0.033090972
0.036519806
0.039657
0.058384175
0.047809906
0.045955969
0.07208753
0.086810498
0.10215096
0.11304587
0.11396738
0.11134616
0.10907059
0.1091677
0.11293466
0.12080991
0.1315263
0.14304277
0.15367241
0.16245959
0.16915444
0.17400909
0.17754018
0.18033475
0.18287728
0.18555012
0.1884224
0.19171686
0.19494086
0.19868129
0.20157565
0.20514603
0.12688051
0.025680459
0.028380066
0.032015441
0.052507156
0.038832037
0.031010832
0.061643015
0.079335961
0.097591449
0.11254483
0.11375331
0.10990615
0.10590274
0.10413006
0.10629452
0.11359614
0.12499362
0.13800629
0.15041657
0.16085023
0.1688048
0.17443144
0.17826406
0.18097889
0.1832189
0.18545054
0.18799922
0.19086285
0.19420613
0.19748566
0.20126759
0.2041705
0.20771418
0.14225374
0.019969275
0.019534187
0.02421574
0.04607008
0.0300229
0.01537021
0.049294781
0.070207871
0.091960543
0.11195741
0.11374211
0.10866491
0.10284238
0.098971192
0.099053693
0.10530033
0.11722203
0.13184798
0.14632245
0.15875401
0.16831242
0.17500092
0.17933725
0.18208009
0.18400655
0.18576538
0.18776909
0.1902654
0.19317323
0.1965986
0.19995311
0.20378438
0.20670148
0.21021917
0.15478239
0.014234319
0.0087877262
0.016276775
0.039033517
0.022028939
-0.0012376466
0.035480961
0.05982898
0.08495175
0.11108625
0.11368774
0.10745502
0.099800927
0.093671396
0.091203301
0.095782495
0.10800416
0.12435957
0.14120712
0.15603084
0.16758876
0.17568475
0.18078655
0.18371138
0.18537456
0.18659299
0.18797405
0.18984635
0.19236541
0.1953686
0.19890591
0.20235147
0.20623745
0.20917253
0.21266423
0.16428434
0.0068294937
-0.0023267074
0.0079198453
0.031701947
0.013555247
-0.017583351
0.019352718
0.048716521
0.076965369
0.10948843
0.11332558
0.10599924
0.09662319
0.088175929
0.082717435
0.084864606
0.097078863
0.11528165
0.1348486
0.15251394
0.16651897
0.17642419
0.18261389
0.18593629
0.18742994
0.18809515
0.18872963
0.18985818
0.19170287
0.19431909
0.19746475
0.20113939
0.20468833
0.20863194
0.21158702
0.21505165
0.1692718
-0.0009077396
-0.013037239
-0.001104684
0.024257507
0.004335526
-0.036770256
0.00132363
0.035326207
0.06737792
0.10667488
0.11195879
0.10395581
0.093076606
0.082349436
0.073577272
0.072326176
0.084109122
0.10430254
0.12696813
0.14799157
0.16495975
0.1771318
0.18479211
0.18879241
0.19027182
0.19040931
0.19021962
0.19042757
0.19144223
0.19336448
0.19614798
0.19947749
0.20330969
0.20697053
0.21097227
0.21394771
0.21738373
0.16811846
-0.010246233
-0.026757188
-0.011393
0.016650256
-0.0065055259
-0.054833203
-0.022196666
0.020887991
0.055941342
0.10168859
0.10919053
0.10067468
0.088893693
0.076034521
0.06370461
0.057920628
0.068668581
0.091039271
0.11724827
0.14221099
0.1627233
0.17768436
0.18725938
0.19228442
0.19397274
0.19366714
0.19260655
0.19175362
0.19171473
0.19275924
0.19486039
0.19787426
0.20142203
0.20542659
0.20920406
0.21326219
0.2162569
0.21966388
0.15906654
-0.024230008
-0.044655747
-0.023997178
0.0086865417
-0.018939048
-0.07162325
-0.04621763
0.0028180848
0.041093444
0.095684121
0.10289608
0.095489397
0.083616928
0.068989604
0.05308191
0.041346049
0.050192883
0.075023852
0.10526825
0.13487726
0.15959845
0.17791739
0.18990886
0.19637478
0.19856876
0.19797384
0.19604973
0.19401711
0.19272723
0.19263237
0.19384819
0.19622146
0.19951973
0.20331257
0.20749877
0.21139391
0.21550474
0.21851651
0.22189293
-0.041934974
0.14209268
-0.066958598
-0.040081697
0.00017785914
-0.032318701
-0.087368911
-0.070839414
-0.016817565
0.021563138
0.08423535
0.095516699
0.086951679
0.076932223
0.060959945
0.041464285
0.022426389
0.027902577
0.05567087
0.090435056
0.12552454
0.15530485
0.17763234
0.19258908
0.20097189
0.20404679
0.2033956
0.200683
0.19739836
0.19467078
0.19319049
0.19323148
0.19475141
0.1974787
0.2011051
0.20516188
0.2095336
0.21354415
0.21770239
0.22072814
0.22406662
-0.093359732
-0.061706739
0.11987044
-0.06064769
-0.0085535875
-0.046024462
-0.10138274
-0.095304888
-0.039311443
-3.5213402e-05
0.069741141
0.0822531
0.076331799
0.067889832
0.051955751
0.028952467
0.0008161215
0.00080880229
0.032285736
0.072071506
0.11360131
0.14944534
0.1765516
0.19508815
0.20592654
0.21033074
0.2099443
0.20660018
0.20205403
0.19773857
0.19462616
0.19320859
0.1935691
0.19551239
0.19866207
0.20264931
0.20698098
0.21153708
0.21565808
0.21985717
0.22289268
0.22619027
-0.085612366
-0.12149631
-0.085355938
0.093893938
-0.017314069
-0.060266939
-0.11325189
-0.11892174
-0.064138709
-0.021786351
0.049675944
0.067211853
0.060028516
0.057392996
0.041422889
0.015095058
-0.02323801
-0.032615649
0.0039906534
0.049483402
0.098549899
0.14164438
0.17433587
0.1971314
0.21100746
0.21727129
0.217561
0.2138377
0.20810116
0.20210243
0.19713618
0.1939645
0.19285684
0.19370511
0.19617384
0.19979939
0.20416889
0.20877892
0.21351417
0.21773859
0.22197079
0.22501081
0.22828355
-0.02540309
-0.1130476
-0.14995891
-0.11203095
0.065955875
-0.074256184
-0.12344137
-0.14081112
-0.090122126
-0.042993798
0.026093805
0.045193514
0.042182705
0.042295942
0.030219928
-0.00049305114
-0.05035431
-0.073385515
-0.030150746
0.021685895
0.079348965
0.13136981
0.17062573
0.1983374
0.21591966
0.22462574
0.22610179
0.22235571
0.21559847
0.20789614
0.20089828
0.19568967
0.19278308
0.19221614
0.19369941
0.19677608
0.20091535
0.20567773
0.21056328
0.21546926
0.21978793
0.22404412
0.22708329
0.23032539
-0.087242356
-0.033682693
-0.13941188
-0.1788971
-0.1392277
0.03753702
-0.13203554
-0.1593657
-0.11428797
-0.062670283
-0.00051008514
0.017906975
0.01742296
0.027162757
0.016572232
-0.017904998
-0.078163786
-0.12050026
-0.069696072
-0.011957918
0.054691833
0.11795936
0.16497281
0.19830762
0.22024879
0.23207355
0.23532286
0.23202253
0.2245258
0.21519594
0.20605429
0.19855721
0.19352176
0.19118902
0.19136888
0.19360934
0.19735537
0.20203096
0.20718752
0.21234082
0.21740582
0.22180671
0.22607654
0.22911032
0.23224438
-0.13929342
-0.098298629
-0.043569474
-0.1638266
-0.2081462
-0.16426209
0.010329954
-0.17395906
-0.13424193
-0.082002168
-0.029242123
-0.013902772
-0.014980636
0.0050204459
0.0048088278
-0.033481622
-0.10946327
-0.16812323
-0.11695653
-0.050126474
0.023381735
0.10026118
0.15679544
0.19659581
0.22355173
0.23917219
0.24488618
0.2426006
0.23476788
0.22399925
0.21269052
0.20270644
0.19523018
0.19077127
0.18929349
0.1903952
0.1934873
0.19794306
0.20316417
0.20870876
0.21411694
0.21932467
0.22379343
0.22806764
0.23109238
0.23408989
-0.18402896
-0.14523003
-0.10572086
-0.056196422
-0.18727024
-0.23644181
-0.18543478
-0.015020997
-0.14963892
-0.10178701
-0.058345072
-0.049616377
-0.054431284
-0.02560359
-0.011615242
-0.04574133
-0.13252592
-0.21946975
-0.1694898
-0.093158514
-0.013740068
0.077884312
0.14522769
0.19264004
0.2252508
0.24545384
0.25433091
0.25374611
0.24609893
0.23420774
0.22081648
0.20822366
0.19803313
0.19109309
0.18758529
0.18720637
0.18936933
0.19337915
0.19856622
0.20433111
0.21024993
0.21589297
0.22122323
0.22574769
0.23002111
0.23303212
0.23593973
-0.16002975
-0.18888288
-0.14896786
-0.10903725
-0.070864767
-0.21015672
-0.26219842
-0.20178011
-0.037683801
-0.12070565
-0.086087519
-0.090321645
-0.099843045
-0.063819206
-0.034535008
-0.060515535
-0.15255486
-0.26040515
-0.23161772
-0.14290658
-0.05380568
0.0522234
0.13007463
0.18573097
0.22482558
0.25021855
0.26315769
0.26499894
0.25818203
0.24561085
0.23034738
0.21512145
0.20200462
0.19225203
0.18633663
0.18411171
0.18503096
0.18835721
0.19332501
0.19924929
0.20554498
0.21181361
0.21766509
0.22310075
0.22767569
0.23194292
0.23492863
0.23776323
-0.13603389
-0.16484319
-0.18867243
-0.14778846
-0.10912218
-0.086261148
-0.23060078
-0.28340307
-0.21324121
-0.056262121
-0.11180671
-0.13600555
-0.14955448
-0.10891439
-0.063236079
-0.07966244
-0.17049475
-0.30934194
-0.291524
-0.2042939
-0.09936324
0.023086416
0.11156224
0.17553294
0.22160041
0.25299453
0.2706705
0.27583446
0.2705647
0.25788593
0.24108747
0.22332109
0.20714803
0.19429584
0.18560515
0.18115619
0.18049177
0.18286034
0.18741708
0.19336117
0.20001244
0.20681054
0.2133948
0.2194322
0.22496721
0.22958682
0.23382902
0.23677199
0.23954485
-0.13564169
-0.14466499
-0.16424674
-0.18288687
-0.14069142
-0.10539204
-0.10150659
-0.24674728
-0.29856763
-0.22054564
-0.070434936
-0.18453701
-0.20282152
-0.1581061
-0.097353939
-0.10348009
-0.1908821
-0.35191954
-0.37066389
-0.26621475
-0.14992224
-0.011336641
0.089148113
0.16156699
0.21513437
0.25296966
0.27635887
0.28559739
0.28271427
0.27059187
0.25272954
0.23263635
0.21337928
0.19720385
0.18539759
0.17834571
0.17574154
0.17685456
0.18077758
0.18660192
0.19351793
0.20086412
0.20812184
0.2149923
0.22120948
0.22683768
0.23147182
0.23565739
0.23855636
0.24129396
-0.23119425
-0.15697519
-0.14521941
-0.15808122
-0.17186062
-0.12818316
-0.096723675
-0.11592707
-0.25681114
-0.30710734
-0.22354495
-0.080502878
-0.25806699
-0.20876564
-0.1373211
-0.13108444
-0.2152891
-0.39067536
-0.44443447
-0.35293862
-0.20146118
-0.048550457
0.064050121
0.14338782
0.20477538
0.24983035
0.27933406
0.2937586
0.2939937
0.283204
0.2648468
0.24277187
0.22051133
0.20087108
0.18565241
0.17563155
0.1707243
0.17026881
0.17331663
0.17885862
0.18595628
0.19380944
0.2017978
0.20947791
0.21662817
0.22301968
0.22869691
0.23328758
0.23741459
0.24030651
0.24310181
-0.31247678
-0.27320183
-0.17406708
-0.13741953
-0.14676456
-0.15605251
-0.11058167
-0.082793254
-0.12801979
-0.25952222
-0.30823037
-0.22268721
-0.087089942
-0.259611
-0.18125548
-0.16161454
-0.24080267
-0.42870167
-0.51927969
-0.44250399
-0.27258419
-0.096291983
0.03838417
0.12328489
0.18994815
0.24274213
0.27954125
0.2994835
0.30381902
0.29509853
0.27693007
0.253314
0.22825175
0.20509477
0.18622507
0.17289361
0.16532274
0.16297752
0.16489908
0.16998516
0.17716792
0.18550289
0.19422935
0.20281344
0.21091003
0.21833526
0.2248393
0.23047492
0.23500864
0.23915091
0.24214429
0.24498563
-0.30986623
-0.36205564
-0.30738132
-0.18754344
-0.1237861
-0.13100264
-0.13600425
-0.08935813
-0.065222648
-0.13650165
-0.25512402
-0.30365738
-0.21749331
-0.091295973
-0.22577743
-0.19356809
-0.26703573
-0.46415537
-0.59122999
-0.54596024
-0.35627284
-0.16120133
-0.00079951989
0.1028832
0.17263129
0.23124288
0.27547352
0.30271312
0.31139476
0.30567302
0.28836595
0.26376824
0.23619421
0.20957099
0.18687704
0.16992678
0.15934108
0.15478401
0.15532487
0.15978163
0.16695194
0.17574054
0.18523661
0.1947794
0.20395439
0.21246421
0.2200798
0.22656177
0.23213054
0.2367344
0.24103457
0.24403019
0.24689497
-0.26654976
-0.35560656
-0.40195727
-0.33267171
-0.19725874
-0.10705619
-0.11315395
-0.11232255
-0.065612244
-0.04521284
-0.14049621
-0.24782532
-0.29265281
-0.20855904
-0.093227158
-0.22393356
-0.2936593
-0.49106908
-0.6563142
-0.64198771
-0.45096476
-0.23008176
-0.049695453
0.067749096
0.15495386
0.21619133
0.26769397
0.30219074
0.31641212
0.31417662
0.29856102
0.27353151
0.24385316
0.21388846
0.18727245
0.16643255
0.15249177
0.14540177
0.14431059
0.14797184
0.15504542
0.16426957
0.17457411
0.18516222
0.19551897
0.20528388
0.21409352
0.22170869
0.22812517
0.23382423
0.23873097
0.24291341
0.24595308
0.24883044
-0.24820672
-0.29946099
-0.39083335
-0.42992923
-0.34749467
-0.20099192
-0.087727939
-0.093659247
-0.086171711
-0.040073181
-0.024388953
-0.14093528
-0.23625382
-0.27548782
-0.19554164
-0.093255874
-0.3173781
-0.50580256
-0.7084561
-0.73146136
-0.54693378
-0.30220215
-0.1059323
0.027583898
0.12169962
0.20094378
0.25451432
0.29978984
0.31757988
0.32021124
0.30678075
0.28202493
0.2506344
0.21756084
0.1869761
0.1620159
0.14438887
0.13443991
0.13146753
0.13418256
0.14109796
0.15076773
0.16194061
0.17367821
0.18536021
0.19653364
0.2067384
0.21558485
0.22313331
0.22977498
0.23595055
0.24065796
0.24484826
0.24790464
0.25079712
-0.3336364
-0.2669068
-0.32020389
-0.41296852
-0.44438646
-0.3516954
-0.19734977
-0.066303623
-0.072650333
-0.059308937
-0.01524098
-0.0011788255
-0.13887119
-0.21952791
-0.25184335
-0.17870626
-0.09217064
-0.50775064
-0.74166286
-0.80626548
-0.63716064
-0.38134452
-0.16699712
-0.019425371
0.084870901
0.1692256
0.24189685
0.28229337
0.31577546
0.32267872
0.31262179
0.28851445
0.25597147
0.21999748
0.18548342
0.15619062
0.13454514
0.12139651
0.11628386
0.11791663
0.12464803
0.13481502
0.1469592
0.15998185
0.17316094
0.1859451
0.19773894
0.20802846
0.2168155
0.22470658
0.23209496
0.2379154
0.24266528
0.24681363
0.24988245
0.25279241
-0.49566883
-0.3406431
-0.279877
-0.32637224
-0.42099408
-0.44536949
-0.3462134
-0.18849212
-0.045875879
-0.05075559
-0.034354312
0.012779897
0.017939615
-0.13197892
-0.19766813
-0.22178869
-0.1587614
-0.090211406
-0.75052257
-0.85744162
-0.71420547
-0.46005238
-0.23208785
-0.070222422
0.041306993
0.13409392
0.21263043
0.27518074
0.306855
0.32230922
0.31503126
0.29261766
0.25912853
0.22064219
0.18219626
0.14840551
0.12238652
0.10565399
0.098114569
0.098529577
0.10509018
0.11586733
0.12914648
0.14364701
0.15853735
0.17317427
0.18680588
0.19874784
0.20898797
0.21827784
0.2272624
0.23414011
0.23999568
0.24470245
0.24881515
0.25188258
0.25480202
-0.73189923
-0.46624852
-0.33489825
-0.28470277
-0.32053426
-0.41580951
-0.43411799
-0.33287659
-0.17655054
-0.029800226
-0.02835074
-0.0079499533
0.034468062
0.03699861
-0.11861271
-0.17091293
-0.18649239
-0.13599198
-0.08596481
-0.87685996
-0.77013234
-0.53007958
-0.29794848
-0.12480257
-0.0057341617
0.091359887
0.17939249
0.25003642
0.29916772
0.31591145
0.31475124
0.29324545
0.25975095
0.21876051
0.17656238
0.13803348
0.10727199
0.086504523
0.076173019
0.075211836
0.081643872
0.093217355
0.10788412
0.12413434
0.14102195
0.15780747
0.17357353
0.18743111
0.19933926
0.21028693
0.22114437
0.22939878
0.23634409
0.24210436
0.24678264
0.25084827
0.25390717
0.25682069
-0.85948828
-0.68328882
-0.42339704
-0.31068989
-0.27671354
-0.30747335
-0.39931733
-0.41279149
-0.31361452
-0.16166082
-0.017671654
-0.0034848647
0.014013263
0.056607451
0.055738626
-0.097560766
-0.14117858
-0.14820773
-0.10836961
-0.079423867
-0.79875009
-0.58236131
-0.36068243
-0.18092602
-0.056845557
0.044700968
0.13696236
0.22056236
0.27603188
0.31059756
0.30842944
0.29124407
0.25669782
0.21403597
0.16785162
0.12450694
0.088510284
0.063156799
0.0495634
0.046973257
0.053323753
0.065954262
0.082373976
0.10076172
0.12002978
0.13934647
0.15760459
0.1736886
0.18753006
0.20041104
0.21354492
0.22341125
0.23175233
0.23856943
0.24426581
0.2488992
0.2529106
0.25595263
0.2588481
-0.79425864
-0.80416478
-0.61198873
-0.37150994
-0.27211301
-0.24994718
-0.28549583
-0.37361763
-0.3835668
-0.28940201
-0.14348981
-0.0052183313
0.018416774
0.036906836
0.077914745
0.072258851
-0.0681087
-0.11016879
-0.10920013
-0.080789996
-0.068425882
-0.61007158
-0.41546559
-0.23624259
-0.11078941
-0.0066901432
0.089643769
0.17929286
0.2559164
0.2896862
0.30372738
0.28290522
0.25096095
0.20528421
0.15580049
0.10709667
0.06547459
0.034799954
0.017267578
0.01267369
0.018912682
0.032918677
0.051588533
0.072655031
0.09482947
0.11717458
0.1383777
0.15705578
0.1731405
0.18829207
0.20417275
0.21597692
0.2259691
0.23411648
0.24085644
0.24646976
0.25104992
0.25499805
0.25801617
0.26088339
-0.61206302
-0.75390532
-0.72059575
-0.52513434
-0.31481559
-0.22647001
-0.2125374
-0.25317454
-0.33922542
-0.35025712
-0.25818332
-0.12618296
0.0091457222
0.038519629
0.058039279
0.096454302
0.084980364
-0.035023773
-0.077958184
-0.072552999
-0.054715042
-0.054932274
-0.45033191
-0.2879357
-0.16611988
-0.061843592
0.036041586
0.1321247
0.21696154
0.27459257
0.28320895
0.2767501
0.23845074
0.193684
0.1391967
0.085597758
0.037419531
0.00066806348
-0.02172339
-0.029015384
-0.023023888
-0.0073411846
0.014209154
0.038690696
0.064492029
0.090530604
0.11525484
0.13698352
0.15567039
0.1734916
0.1927001
0.20682196
0.21879607
0.22851869
0.23655323
0.24319054
0.24871405
0.25322921
0.25710712
0.26009661
0.26292497
-0.45962203
-0.59159622
-0.68507575
-0.61953761
-0.431636
-0.25547364
-0.17801589
-0.17344488
-0.21547789
-0.29637141
-0.29724366
-0.23044008
-0.1023888
0.022645125
0.056330642
0.076890247
0.11102119
0.093902742
-0.0059204006
-0.045113485
-0.044934892
-0.032578763
-0.040458447
-0.3321986
-0.22054816
-0.12005454
-0.022597936
0.076270904
0.17055011
0.24271478
0.27681683
0.2551157
0.22868419
0.17475711
0.11946136
0.058787677
0.0041740489
-0.04003662
-0.068446701
-0.079402336
-0.074199413
-0.056586617
-0.031439536
-0.0025819265
0.027827873
0.058458258
0.087459743
0.11280724
0.13453211
0.15548868
0.17873488
0.19563098
0.20998232
0.22157904
0.23115176
0.23904193
0.24557041
0.25099102
0.25543235
0.25923707
0.26219508
0.26496934
-0.36712696
-0.454858
-0.55343459
-0.59941508
-0.50905623
-0.34283151
-0.19533859
-0.12879835
-0.13263873
-0.17739136
-0.24520176
-0.26712352
-0.19404525
-0.078005191
0.035658676
0.071547126
0.092485552
0.12096322
0.099951853
0.017334024
-0.018638506
-0.023361903
-0.015140558
-0.028489124
-0.27183112
-0.17982249
-0.08602785
0.013090058
0.11380821
0.19893764
0.25251837
0.25668604
0.20443837
0.15913481
0.091724683
0.028389081
-0.035478998
-0.087535312
-0.12381469
-0.13998454
-0.13634265
-0.11696842
-0.087449689
-0.05302939
-0.016702107
0.019741691
0.054029819
0.0837293
0.10902063
0.13367494
0.16181677
0.18203293
0.1992333
0.21306475
0.22445762
0.23384002
0.24158245
0.24798619
0.25329454
0.25766025
0.2613891
0.26430719
0.26701399
-0.31847877
-0.39405554
-0.44592383
-0.50284666
-0.51192427
-0.41370026
-0.26387055
-0.1383462
-0.082398075
-0.090958634
-0.14494274
-0.20418363
-0.20325283
-0.1583085
-0.053922177
0.047291995
0.083610445
0.10446206
0.12593202
0.10347726
0.036638314
0.0015035198
-0.0071756369
-0.0027981572
-0.019269349
-0.23960874
-0.15330496
-0.057111065
0.046471121
0.1435946
0.21189558
0.24093584
0.21245576
0.13069525
0.067870573
-0.010862717
-0.079485944
-0.14302218
-0.18828596
-0.21188568
-0.21162909
-0.19077064
-0.15643027
-0.11504005
-0.071096074
-0.027187457
0.013755637
0.048774681
0.078299021
0.10732692
0.14141864
0.16559343
0.18620953
0.20269721
0.21625528
0.22739326
0.23658553
0.24416218
0.25043035
0.25562738
0.25991927
0.26355035
0.26643159
0.26905903
-0.29817275
-0.35985807
-0.41026108
-0.43350505
-0.44894488
-0.42962224
-0.32855599
-0.19567183
-0.088798802
-0.040708016
-0.053937737
-0.11880268
-0.16457755
-0.16540552
-0.12103146
-0.031511269
0.056771869
0.09232635
0.11251822
0.12671296
0.10370342
0.048958394
0.016955854
0.0048874074
0.005375335
-0.012339945
-0.22338041
-0.13383038
-0.031118203
0.07416856
0.15893478
0.20470781
0.20434983
0.14378523
0.033488528
-0.045645667
-0.13349215
-0.2041795
-0.26299268
-0.2961569
-0.3015196
-0.28103921
-0.24135267
-0.19165883
-0.13795825
-0.084373428
-0.034907639
0.0067394476
0.041359264
0.075595678
0.11692676
0.14581908
0.1705161
0.19016077
0.20628205
0.21950185
0.23039124
0.23937264
0.24677201
0.25290883
0.25800101
0.26218906
0.26572061
0.26856473
0.27110819
-0.29536189
-0.3547923
-0.39555984
-0.41879051
-0.41699988
-0.39913292
-0.35674753
-0.25782474
-0.13953669
-0.046909696
-0.0082907209
-0.019686167
-0.08771753
-0.12828571
-0.12514002
-0.086553196
-0.0098905895
0.063561188
0.09763171
0.11579732
0.12361018
0.10074522
0.056004766
0.027619358
0.013407311
0.01051864
-0.0072643618
-0.21649288
-0.11881893
-0.0099676958
0.089439356
0.15385067
0.1729761
0.14163316
0.050515037
-0.088009013
-0.18255002
-0.27695382
-0.34562309
-0.3937949
-0.40823784
-0.38974645
-0.34624519
-0.28660977
-0.22068384
-0.1545156
-0.09396924
-0.043888261
-0.0030179145
0.037475672
0.087639494
0.12214164
0.15171121
0.17508981
0.19424527
0.2099178
0.22281466
0.23343244
0.24219074
0.24942175
0.25544119
0.26038315
0.26447145
0.26789568
0.27070487
0.27315642
-0.30471374
-0.36854276
-0.40846629
-0.4268628
-0.42490795
-0.39964294
-0.35805117
-0.29779113
-0.20256968
-0.095782972
-0.018488017
0.026030869
0.0029711382
-0.054551947
-0.093948935
-0.085640963
-0.054500525
0.0088303402
0.068274575
0.099513025
0.1147309
0.11722949
0.095428939
0.059329982
0.034022612
0.019014295
0.013505935
-0.0036551871
-0.21659915
-0.1092191
0.00058167785
0.085072098
0.12423112
0.11430352
0.052814867
-0.068088482
-0.23546448
-0.3447029
-0.44215698
-0.50315058
-0.53254243
-0.52104894
-0.47391675
-0.40489365
-0.32365821
-0.24120356
-0.1661008
-0.10505338
-0.056330026
-0.0082221053
0.052751692
0.093916728
0.12929355
0.15707927
0.17980756
0.19836913
0.21362191
0.22617068
0.23650471
0.24505478
0.25214107
0.25798105
0.26277834
0.26675949
0.2700755
0.27285021
0.27519162
-0.32481335
-0.39814191
-0.44186469
-0.45958244
-0.45418213
-0.42999737
-0.38479101
-0.3253798
-0.25388663
-0.1649507
-0.074656608
0.012941516
0.043733616
0.024585888
-0.025971801
-0.059830133
-0.053998293
-0.026779693
0.023284438
0.071049225
0.097831937
0.11013819
0.10874701
0.088969153
0.059569291
0.03731188
0.02234005
0.014961369
-0.0011566946
-0.22416389
-0.10948843
-0.0070274087
0.055986551
0.067493629
0.028086136
-0.062400086
-0.21383832
-0.41162147
-0.53457193
-0.62950634
-0.67475502
-0.67529156
-0.63120661
-0.55071393
-0.45269486
-0.34922596
-0.254901
-0.17932605
-0.12046102
-0.062919459
0.011350357
0.060414415
0.10270404
0.13567416
0.16259864
0.1845437
0.20256039
0.21736701
0.22955639
0.23962951
0.24800754
0.25486579
0.2605364
0.26517738
0.26905423
0.27226039
0.27499546
0.27722986
-0.35612465
-0.44401119
-0.49577065
-0.515563
-0.50928707
-0.48116642
-0.43616065
-0.3737309
-0.30202411
-0.22656296
-0.14206851
-0.042958045
0.031167725
0.059764645
0.043533231
-0.0025505153
-0.031387478
-0.028571138
-0.0049619158
0.03415998
0.072138513
0.094511843
0.10336984
0.099553253
0.081979325
0.057799705
0.038375371
0.023931533
0.015385997
0.00051591078
-0.24261708
-0.12644849
-0.038613852
-0.00037396645
-0.017606739
-0.085677735
-0.20554341
-0.39007754
-0.62028966
-0.754749
-0.83796655
-0.85692548
-0.817771
-0.73398591
-0.61393512
-0.48494677
-0.36526998
-0.27017035
-0.19783388
-0.12834466
-0.037603506
0.020820033
0.071323385
0.11037194
0.14220678
0.1681012
0.18934149
0.20678697
0.2211386
0.2330014
0.2428661
0.2509634
0.25760838
0.2630947
0.26758413
0.27135873
0.27444229
0.27713113
0.2793003
-0.40137076
-0.50740814
-0.57373472
-0.59873042
-0.59100543
-0.55964584
-0.50908603
-0.44393796
-0.36846303
-0.29083185
-0.21179121
-0.11223058
-0.020245769
0.048761752
0.072906188
0.057174813
0.017306706
-0.0094199278
-0.0076147836
0.011366491
0.04211986
0.071990124
0.089870555
0.095696664
0.090471295
0.074903145
0.054849617
0.037890777
0.02426051
0.014996059
0.0016106163
-0.27723546
-0.16577125
-0.097046081
-0.085094729
-0.13136349
-0.22794622
-0.37996632
-0.60205225
-0.86588774
-1.0073913
-1.0646393
-1.0451148
-0.95381115
-0.81994794
-0.65644508
-0.50389724
-0.38239893
-0.29166113
-0.20661988
-0.095290367
-0.025777642
0.034480035
0.080623285
0.11818191
0.14866712
0.17365249
0.19416414
0.21103408
0.2249764
0.2365855
0.24610296
0.25394015
0.26035258
0.26566312
0.27000667
0.27366147
0.27659941
0.27925457
0.28139877
-0.46387246
-0.59056806
-0.67870373
-0.71712712
-0.70913589
-0.67012995
-0.61109287
-0.53681405
-0.45557368
-0.37316557
-0.2891479
-0.18819652
-0.087719823
0.0016964882
0.061147972
0.081029553
0.065602088
0.030899653
0.0076882878
0.0081846177
0.023446275
0.047665595
0.070879287
0.084573371
0.087890031
0.081842838
0.068086884
0.051249653
0.036395892
0.023715003
0.014343857
0.0022890573
-0.33221548
-0.2300422
-0.18295512
-0.19892478
-0.27427019
-0.40159632
-0.59149032
-0.85696043
-1.1527112
-1.293948
-1.3049152
-1.2320849
-1.0709457
-0.87753098
-0.6801295
-0.52282387
-0.40643788
-0.30046577