/*--------------------------------*- C++ -*----------------------------------*\
| =========                 |                                                 |
| \\      /  F ield         | OpenFOAM: The Open Source CFD Toolbox           |
|  \\    /   O peration     | Version:  v2012                                 |
|   \\  /    A nd           | Website:  www.openfoam.com                      |
|    \\/     M anipulation  |                                                 |
\*---------------------------------------------------------------------------*/
FoamFile
{
    version     2.0;
    format      ascii;
    class       surfaceScalarField;
    location    "31.4558248775613549";
    object      phi;
}
// * * * * * * * * * * * * * * * * * * * * * * * * * * * * * * * * * * * * * //

dimensions      [0 3 -1 0 0 0 0];
oriented        oriented;


internalField   nonuniform List<scalar> 
18180
(
-0.043295602
-3.4907682
-0.08695083
-3.2568953
-0.034156768
-3.4504358
-0.13126126
-3.0342482
-0.067116843
-3.2183006
-0.02824003
-3.4164709
-0.17859978
-2.8199097
-0.098856046
-2.9974291
-0.054978298
-3.1863547
-0.022237994
-3.3889848
-0.22930597
-2.6137644
-0.12956833
-2.7846301
-0.080234068
-2.9674802
-0.042789474
-3.1609137
-0.017116381
-3.3669032
-0.2837489
-2.4143988
-0.15828971
-2.5808335
-0.10363227
-2.7569322
-0.061405936
-2.9443174
-0.032577743
-3.1407745
-0.012789799
-3.3494993
-0.34109572
-2.2211942
-0.18363691
-2.3851041
-0.1244997
-2.5559807
-0.077553362
-2.7365558
-0.046055359
-2.9263891
-0.024051365
-3.1250783
-0.0092551938
-3.3358618
-0.39669472
-2.0342222
-0.20369253
-2.1974179
-0.14168879
-2.3641738
-0.090524858
-2.5390593
-0.056990403
-2.7213988
-0.033424273
-2.9127233
-0.017154818
-3.1129822
-0.0064154105
-3.325381
-0.43979274
-1.8539092
-0.21671443
-2.0176715
-0.15355094
-2.1819991
-0.099426286
-2.3515591
-0.06479933
-2.5272641
-0.040379354
-2.7102992
-0.023364563
-2.902446
-0.011659631
-3.1038455
-0.0041598022
-3.3174244
-0.45990274
-1.6797681
-0.22079089
-1.8464822
-0.15802576
-2.0098016
-0.10332442
-2.1745815
-0.068821626
-2.3437767
-0.044473227
-2.5192137
-0.027413081
-2.7023176
-0.015453643
-2.8948806
-0.0073348842
-3.0970652
-0.0023725392
-3.311584
-0.45057641
-1.5128958
-0.21210639
-1.6852729
-0.15315642
-1.8481082
-0.10129838
-2.0084736
-0.068414959
-2.171453
-0.045276172
-2.3392433
-0.02898402
-2.513868
-0.017386351
-2.6967312
-0.0093016596
-2.8894446
-0.0039526458
-3.0921762
-0.00095650733
-3.3073998
-0.40990688
-1.3577571
-0.18601416
-1.5359757
-0.13766893
-1.6976664
-0.09243216
-1.8537678
-0.063056792
-2.0104921
-0.042466152
-2.1707504
-0.027810253
-2.3368317
-0.017244937
-2.5105068
-0.0097098254
-2.6929793
-0.0045393924
-2.8856781
-0.0013098901
-3.0887719
0.00017360827
-3.3046222
-0.34199932
-1.2189428
-0.14006524
-1.4008578
-0.11114425
-1.559557
-0.076150552
-1.7108783
-0.052509619
-1.8611416
-0.035870695
-2.0137916
-0.023755955
-2.1714516
-0.014881313
-2.3358876
-0.0084227512
-2.5085934
-0.0038509415
-2.6906126
-0.00085334946
-2.8832311
0.00075810093
-3.086568
0.0010206925
-3.3029078
-0.25376179
-1.1002193
-0.075565108
-1.2807566
-0.074514532
-1.434696
-0.052713785
-1.5800574
-0.036884715
-1.7234834
-0.025520423
-1.8684041
-0.016829028
-2.0176088
-0.010285778
-2.1729697
-0.0053726987
-2.3359183
-0.0017985815
-2.5077282
0.00062916816
-2.6893236
0.002011949
-2.8818382
0.0023978385
-3.0853851
0.0017009423
-3.3021186
-0.15452949
-1.0049276
0.0020905772
-1.1753476
-0.02949219
-1.3231391
-0.023278227
-1.4613264
-0.016627643
-1.5974356
-0.011682862
-1.7344131
-0.0072105993
-1.8751333
-0.0035702153
-2.0214848
-0.00061757325
-2.1749078
0.0016384076
-2.3365837
0.0031953221
-2.5076463
0.004075819
-2.6888727
0.0042501539
-2.8812814
0.0036925094
-3.0850348
0.0022628145
-3.3020737
-0.050813023
-0.92841585
0.084209698
-1.0846752
0.021909842
-1.2242607
0.010626662
-1.354368
0.0074389809
-1.4826477
0.0051456445
-1.6115155
0.0047583604
-1.7436844
0.0050241241
-1.8811076
0.0056831257
-2.025178
0.0063574505
-2.1770208
0.0068297069
-2.3377008
0.0069874855
-2.5081704
0.0067525808
-2.6891037
0.0060190631
-2.8814113
0.0047199337
-3.0853449
0.0027110754
-3.3026796
0.05342602
-0.86688985
0.16595158
-1.0079379
0.076520575
-1.1369457
0.047262475
-1.258347
0.03409559
-1.3784072
0.024226252
-1.4991246
0.0185592
-1.6227842
0.015126245
-1.7513629
0.013255683
-1.8862915
0.012184086
-2.0285794
0.011429358
-2.1792293
0.01072454
-2.3391687
0.0099057663
-2.5091804
0.0088514179
-2.6898835
0.0074232201
-2.8821251
0.0055339784
-3.0862104
0.003057936
-3.3037908
0.15363964
-0.81754323
0.24373626
-0.94260127
0.13074718
-1.05997
0.084987939
-1.172245
0.06216488
-1.2839223
0.044856254
-1.3965685
0.033651429
-1.5118296
0.026312443
-1.6317154
0.021769409
-1.7576842
0.018873345
-1.8907309
0.016831915
-2.0317239
0.015184415
-2.1815409
0.013689028
-2.3409318
0.01217883
-2.5105913
0.010508372
-2.6911287
0.0085348322
-2.8833213
0.0061718796
-3.0875358
0.0033217593
-3.3053401
0.24465018
-0.77757116
0.31431138
-0.88618532
0.18179015
-0.99159046
0.12210234
-1.0947774
0.090536371
-1.1982415
0.066289379
-1.3030143
0.049469114
-1.4101299
0.038118869
-1.5215252
0.030836379
-1.6387602
0.026123645
-1.7628717
0.022817083
-1.8946189
0.020226686
-2.0347453
0.018010993
-2.1839664
0.015978194
-2.3429423
0.01396489
-2.5123445
0.011817555
-2.6927582
0.0094053381
-2.8849234
0.0066604683
-3.0892407
0.0035156483
-3.3072155
0.32268023
-0.74398517
0.37496255
-0.83642255
0.22772795
-0.93020397
0.15734268
-1.0246386
0.11832729
-1.1203082
0.087839046
-1.2175722
0.065500946
-1.3169099
0.05007912
-1.4201069
0.040052286
-1.5288711
0.033601235
-1.644353
0.029135623
-1.7672565
0.025675179
-1.898183
0.022757023
-2.0377259
0.020172121
-2.1864984
0.017765344
-2.3451679
0.015372315
-2.5143878
0.012843618
-2.6947173
0.01007248
-2.8868551
0.007020295
-3.0912526
0.003648611
-3.3093645
0.38600019
-0.71418911
0.4240845
-0.7914329
0.2675212
-0.87442451
0.18985353
-0.9606332
0.14492133
-1.0490837
0.10899258
-1.1393606
0.081337322
-1.2313834
0.061779486
-1.3267411
0.049019521
-1.4273358
0.040959617
-1.5344962
0.035518085
-1.6489571
0.031338009
-1.771179
0.027794823
-1.90159
0.02466937
-2.0406915
0.021842813
-2.1891268
0.019167526
-2.3475806
0.016475325
-2.5166811
0.013632229
-2.6969525
0.010564646
-2.8890661
0.0072678978
-3.0935091
0.0037285336
-3.3117037
0.43676606
-0.6856909
0.46126635
-0.74981419
0.30089308
-0.82313433
0.21913021
-0.901726
0.16994825
-0.9836186
0.12944019
-1.0675437
0.096692028
-1.1527934
0.072890074
-1.2407277
0.057375476
-1.3334762
0.047857332
-1.4326335
0.041689972
-1.5390314
0.037019734
-1.6530346
0.032991813
-1.7748754
0.029375415
-1.9048966
0.0261232
-2.0436491
0.023141209
-2.1918389
0.020264819
-2.3501589
0.017325726
-2.5191937
0.014216917
-2.6994268
0.010904282
-2.891495
0.0074171712
-3.0959518
0.0037623474
-3.3141931
0.47588991
-0.65799997
0.48827068
-0.71124768
0.32804817
-0.77541185
0.24493028
-0.84706158
0.19325926
-0.92309877
0.14905906
-1.0013587
0.11141293
-1.0804392
0.083172302
-1.161403
0.064803858
-1.2466409
0.053971941
-1.3381076
0.047380605
-1.4368096
0.042529297
-1.5430559
0.038225651
-1.6568868
0.034207909
-1.7784284
0.030538262
-1.9081051
0.027227803
-2.0465901
0.02414988
-2.1946312
0.021113274
-2.3528922
0.017960804
-2.5218996
0.014623626
-2.7020937
0.011109902
-2.8940975
0.0074802888
-3.0985259
0.0037561778
-3.3167663
0.50374944
-0.63072499
0.50617844
-0.67456118
0.34864842
-0.73039542
0.2672597
-0.79596695
0.21488232
-0.86684542
0.16787931
-0.94014448
0.12548426
-1.0136953
0.092480118
-1.0881611
0.071038165
-1.1662193
0.058999097
-1.2502895
0.052327578
-1.3416456
0.047685187
-1.4405829
0.043391197
-1.5469434
0.039106671
-1.6606092
0.035040332
-1.7818297
0.031371703
-1.911216
0.028065065
-2.0495243
0.02492881
-2.1975059
0.021753123
-2.3557706
0.018408555
-2.524773
0.014873167
-2.7049191
0.011197423
-2.8968233
0.0074681498
-3.1011887
0.0037156531
-3.3193914
0.52131732
-0.60329183
0.51534388
-0.63863676
0.36301172
-0.68756893
0.28649445
-0.74795076
0.23495995
-0.81430064
0.1860435
-0.88333499
0.1389942
-0.95200566
0.10077101
-1.0204812
0.075869554
-1.0916645
0.062657988
-1.1685943
0.05627508
-1.2529218
0.052313354
-1.3449808
0.048403119
-1.4444081
0.044040634
-1.5507996
0.039612319
-1.6641793
0.035541468
-1.7850642
0.031954434
-1.9142271
0.028700582
-2.0524611
0.025522424
-2.2004722
0.022213851
-2.3587861
0.018690425
-2.5277893
0.014982969
-2.7078666
0.0111809
-2.8996404
0.0073907563
-3.1038981
0.0036459365
-3.3220215
0.5300122
-0.57525311
0.51631874
-0.60309833
0.37233982
-0.64669861
0.30314144
-0.70262807
0.25367897
-0.76501747
0.20376447
-0.83044251
0.15211699
-0.89489068
0.1080592
-0.9578646
0.079153248
-1.0225212
0.064708206
-1.0925182
0.05898882
-1.1700772
0.056248118
-1.2556423
0.053194277
-1.3486665
0.049009698
-1.4483897
0.044275003
-1.5545491
0.039740002
-1.6675268
0.035785034
-1.7881108
0.032362301
-1.917156
0.02918719
-2.0554243
0.02596318
-2.2035385
0.022516661
-2.3619306
0.01882338
-2.5309287
0.014968035
-2.7109081
0.011073126
-2.9025067
0.0072573286
-3.1066208
0.0035517569
-3.3246336
0.53117472
-0.54693911
0.51048138
-0.56832576
0.37805655
-0.60763097
0.31765096
-0.65970872
0.27126827
-0.71865333
0.22129302
-0.78105767
0.16509777
-0.84193411
0.1144078
-0.89988175
0.080787533
-0.95833421
0.064875236
-1.0215726
0.060227718
-1.0926033
0.059326888
-1.1720132
0.057717076
-1.2591326
0.05404449
-1.352794
0.049089664
-1.452377
0.0440124
-1.5580527
0.039556906
-1.6705972
0.035865443
-1.7909729
0.032665073
-1.9200283
0.029564999
-2.0584412
0.026272857
-2.2067183
0.022676579
-2.3651999
0.018821139
-2.5341683
0.014841842
-2.7140091
0.010885881
-2.9053936
0.0070763883
-3.1093218
0.0034374496
-3.3271934
0.52615909
-0.51869085
0.49943935
-0.53487928
0.38108944
-0.57025013
0.33039269
-0.61895851
0.28798429
-0.67494585
0.23887782
-0.7348358
0.1782239
-0.79276947
0.11993806
-0.84617536
0.080685152
-0.89868941
0.062927133
-0.95534656
0.05968514
-1.0199475
0.061358691
-1.0935568
0.06192997
-1.1752602
0.059202709
-1.2634571
0.054158062
-1.3571164
0.048449869
-1.4561256
0.043311317
-1.5611777
0.039188584
-1.6733559
0.035883619
-1.7936762
0.032919751
-1.922893
0.029859867
-2.0615466
0.026464176
-2.2100238
0.022703923
-2.3685832
0.018695455
-2.5374848
0.014616743
-2.717142
0.010630124
-2.9082671
0.0068558604
-3.1119792
0.0033068965
-3.3296843
0.51592277
-0.49039859
0.48496336
-0.5032633
0.38183752
-0.5345882
0.34163993
-0.58016496
0.30408579
-0.6336631
0.25673292
-0.69147983
0.19180355
-0.74707304
0.12480003
-0.79640908
0.078784533
-0.84325571
0.058691851
-0.89348597
0.057119492
-0.95176459
0.06227813
-1.0198478
0.0658131
-1.0965359
0.064560535
-1.1798511
0.05961683
-1.2682424
0.053190251
-1.3612427
0.047135605
-1.4593891
0.042345227
-1.5638341
0.038788313
-1.6758206
0.03592881
-1.7962837
0.033163677
-1.9258062
0.030083705
-2.064777
0.026542426
-2.213463
0.022606093
-2.3720677
0.018456824
-2.5408526
0.014304343
-2.7202787
0.010316195
-2.9111076
0.0066029402
-3.1145682
0.0031636003
-3.3320853
0.50114676
-0.46222434
0.46871697
-0.47326092
0.38038682
-0.5008373
0.35150059
-0.54319458
0.31981665
-0.59457757
0.27504921
-0.65073536
0.20614952
-0.70455319
0.12915716
-0.75027321
0.075057433
-0.79173029
0.051999828
-0.83566317
0.052345222
-0.88775778
0.061938163
-0.95045962
0.069337567
-1.0225254
0.070218343
-1.1014883
0.065632618
-1.1852579
0.058414407
-1.27292
0.051165029
-1.3647776
0.045388798
-1.4619897
0.04134933
-1.5660133
0.038500975
-1.6780661
0.036062601
-1.7988814
0.033412118
-1.928837
0.030236029
-2.0681624
0.02650795
-2.2170361
0.022388805
-2.3756352
0.018115156
-2.5442495
0.013915824
-2.7233964
0.0099536349
-2.9138877
0.0063242131
-3.1170737
0.003010689
-3.334386
0.47161658
-0.50888481
0.45139506
-0.44406651
0.37710463
-0.46906248
0.35984408
-0.50800126
0.33543412
-0.5575696
0.29399332
-0.6123513
0.22156404
-0.66494591
0.13317596
-0.70747997
0.069493093
-0.74382122
0.042698896
-0.78159228
0.045131737
-0.82755456
0.060106165
-0.88501072
0.072480765
-0.95280966
0.076262448
-1.0279212
0.072390673
-1.1076944
0.064341133
-1.1906969
0.055581922
-1.2769035
0.048415409
-1.3674187
0.043565883
-1.4638743
0.040557812
-1.5677996
0.038432253
-1.6802114
0.036311469
-1.8015719
0.033659428
-1.9320417
0.030307484
-2.0717236
0.026358263
-2.2207369
0.022057294
-2.3792679
0.017680354
-2.5476499
0.013461762
-2.7264688
0.0095513549
-2.9165913
0.0060256251
-3.1194763
0.0028509483
-3.3365732
0.43751708
-0.51369911
0.42324763
-0.47982035
0.37301549
-0.43911526
0.36658486
-0.47469557
0.35110185
-0.52249953
0.31352964
-0.57600641
0.2381307
-0.62778173
0.13698926
-0.66773124
0.062088661
-0.69924794
0.030658852
-0.73100331
0.035247684
-0.77086872
0.056632652
-0.82321192
0.075231347
-0.88701837
0.082790123
-0.95874249
0.080082699
-1.0351123
0.071215533
-1.1141313
0.060611999
-1.1953472
0.051564584
-1.2797229
0.045468834
-1.3690373
0.04203702
-1.4651252
0.040149721
-1.5693496
0.0386327
-1.6824017
0.036667129
-1.8044515
0.033884101
-1.9354705
0.030283387
-2.0754684
0.026090175
-2.2245529
0.02161736
-2.3829412
0.017162205
-2.5510294
0.012952349
-2.7294752
0.0091175687
-2.9191975
0.0057125238
-3.1217692
0.0026868438
-3.338641
0.39906211
-0.51699835
0.39309833
-0.48262956
0.36169379
-0.4675574
0.37241498
-0.44390647
0.36675727
-0.4892515
0.33337115
-0.54130936
0.25532073
-0.59212684
0.14049053
-0.63031797
0.052787512
-0.6576585
0.015783931
-0.68364995
0.022487954
-0.71745633
0.051382318
-0.76479194
0.077575553
-0.82486051
0.089910378
-0.89359409
0.088900039
-0.96710494
0.079300802
-1.0428034
0.066518658
-1.119704
0.055017766
-1.1985207
0.047121527
-1.2811393
0.042894315
-1.3697046
0.041096138
-1.4659437
0.040219032
-1.5708646
0.03909632
-1.6847849
0.037093752
-1.8076051
0.034054623
-1.9391517
0.030147433
-2.0793965
0.025701665
-2.2284635
0.02107548
-2.3866299
0.016570714
-2.5543622
0.01239731
-2.7323949
0.0086598213
-2.9216971
0.0053896908
-3.1239403
0.002520544
-3.3405852
0.35627102
-0.51773163
0.36102874
-0.48400534
0.35059077
-0.47057588
0.37231384
-0.46633588
0.38195568
-0.45807293
0.35328612
-0.50819959
0.27238573
-0.5573703
0.14321652
-0.5939491
0.041142511
-0.61795358
-0.0020229774
-0.63917922
0.0066764885
-0.6671008
0.0442354
-0.70952262
0.079514306
-0.76607944
0.097711497
-0.83216448
0.099022481
-0.90330358
0.088863539
-0.9763109
0.073595462
-1.0495852
0.058996334
-1.1234462
0.048619102
-1.1998276
0.043103705
-1.2811975
0.041158143
-1.3696681
0.040908407
-1.4666013
0.04076999
-1.5725567
0.039771144
-1.6874908
0.037537561
-1.8110929
0.03413569
-1.943102
0.029884902
-2.083492
0.02519248
-2.232443
0.020439379
-2.3903058
0.015916008
-2.5576266
0.01180589
-2.7352125
0.0081850133
-2.9240741
0.0050613903
-3.125987
0.0023539252
-3.342403
0.30894503
-0.51442927
0.32726341
-0.48303917
0.33978513
-0.47223939
0.37377979
-0.47091296
0.39187758
-0.4751531
0.37272691
-0.47660959
0.28882512
-0.52369977
0.14479744
-0.55810706
0.026227421
-0.57836323
-0.023224982
-0.59612551
-0.012308526
-0.6195031
0.035088624
-0.65720427
0.081065844
-0.71046482
0.10627248
-0.77418779
0.11060303
-0.84336991
0.10015872
-0.91427421
0.082157059
-0.98461056
0.063757215
-1.0541461
0.050086932
-1.1247635
0.042656612
-1.1992683
0.040227984
-1.2801977
0.040535295
-1.3692903
0.04149975
-1.467395
0.041732767
-1.5746166
0.04057458
-1.690622
0.03793692
-1.8149524
0.03409361
-1.9473143
0.029484222
-2.087731
0.024565129
-2.2364603
0.019717962
-2.3939429
0.015208289
-2.5608007
0.011186854
-2.7379088
0.0076994462
-2.9263215
0.0047313774
-3.1279
0.0021886021
-3.3440945
0.25634881
-0.50640422
0.29184245
-0.47807702
0.32971431
-0.47199845
0.37690916
-0.47423188
0.40318494
-0.48110554
0.38878521
-0.49025435
0.30424095
-0.49114974
0.14516282
-0.52327845
0.0079722991
-0.53922606
-0.048693476
-0.55231083
-0.034286007
-0.57350063
0.023926611
-0.60762624
0.082266592
-0.65783491
0.11566228
-0.71944372
0.12376079
-0.78700475
0.11341497
-0.8563291
0.092528508
-0.92441137
0.069590532
-0.99027422
0.051677241
-1.0556192
0.041559156
-1.1235903
0.038202576
-1.1972055
0.038931751
-1.2786126
0.041088762
-1.3689719
0.042780305
-1.4685916
0.042987785
-1.5771976
0.041409525
-1.6942437
0.03823117
-1.8191923
0.033899425
-1.9517681
0.028938643
-2.0920783
0.023824958
-2.2404838
0.018921248
-2.397514
0.014457773
-2.563864
0.010548482
-2.7404715
0.0072088049
-2.9284291
0.0044029452
-3.1296831
0.0020259429
-3.3456598
0.19888476
-0.49461447
0.25441633
-0.46804238
0.32128522
-0.4686686
0.38200491
-0.4759499
0.41593885
-0.4858629
0.40608874
-0.49744598
0.32030144
-0.50539762
0.14507433
-0.49032979
-0.012560477
-0.50216061
-0.078342975
-0.50903076
-0.058670266
-0.52731962
0.011369133
-0.56026182
0.083222584
-0.60804895
0.12593933
-0.66774011
0.13856922
-0.73394242
0.12882198
-0.80213816
0.10503275
-0.86862243
0.076813793
-0.93149007
0.053568599
-0.99207499
0.039829439
-1.0538448
0.03498037
-1.1203626
0.035927518
-1.1942435
0.039334719
-1.2769702
0.042704922
-1.369078
0.044582799
-1.4704099
0.044390969
-1.5804049
0.042178268
-1.6983874
0.038366133
-1.823797
0.033531712
-1.9564253
0.028246651
-2.0964962
0.022980094
-2.2444788
0.018060218
-2.4009934
0.01367459
-2.5667976
0.009898486
-2.7428897
0.0067181903
-2.9303979
0.0040789412
-3.1313328
0.0018670879
-3.3471038
0.1381209
-0.48191689
0.21514818
-0.45440595
0.3155804
-0.46134909
0.38997198
-0.47548446
0.43040808
-0.48928974
0.42441907
-0.50322818
0.33772414
-0.5139458
0.14871478
-0.50827663
-0.034299123
-0.46804347
-0.11069387
-0.46929804
-0.085134796
-0.48199714
-0.0011105707
-0.51419093
0.084400072
-0.56094046
0.13716093
-0.61893484
0.15505182
-0.68394129
0.14651028
-0.7513773
0.11997826
-0.81689254
0.085769577
-0.87745482
0.055958195
-0.93381009
0.037495031
-0.98972062
0.030460138
-1.0493475
0.031348998
-1.1158521
0.036032459
-1.1910717
0.041292296
-1.2757587
0.04515397
-1.3699089
0.04670152
-1.4730063
0.045795005
-1.5842975
0.042791559
-1.7030458
0.03829866
-1.828729
0.032977575
-1.961241
0.02741199
-2.1009405
0.022041196
-2.2484122
0.017146583
-2.4043571
0.012868595
-2.5695888
0.0092439912
-2.7451593
0.006232112
-2.9322234
0.0037617971
-3.132856
0.0017129664
-3.3484282
0.075757437
-0.47171757
0.17469063
-0.44051423
0.31272311
-0.45055158
0.40212637
-0.47234601
0.44714858
-0.49109081
0.44372209
-0.50762891
0.3559871
-0.52056478
0.15188943
-0.51634888
-0.053369392
-0.48863747
-0.14496912
-0.43328778
-0.11346084
-0.44043877
-0.012923058
-0.46956776
0.086930174
-0.51625474
0.14943385
-0.57291061
0.17317504
-0.63680217
0.16654804
-0.703743
0.13763825
-0.7688631
0.096819776
-0.82783743
0.059064091
-0.8805075
0.034584148
-0.93089816
0.024533812
-0.98384083
0.025019167
-1.0431106
0.030977075
-1.1109469
0.038328397
-1.1883215
0.044490947
-1.2753748
0.048149665
-1.3716848
0.048924093
-1.4764755
0.047063447
-1.588884
0.043175571
-1.7081854
0.037998475
-1.8339352
0.032232873
-1.966161
0.026443315
-2.105368
0.021021031
-2.2522514
0.01619241
-2.4075854
0.012049233
-2.5722268
0.0085914708
-2.7472753
0.0057544999
-2.9339102
0.0034535393
-3.1342503
0.0015643146
-3.3496397
-0.46621587
0.013928598
0.13389371
-0.42997073
0.31175915
-0.43854537
0.41926315
-0.46652538
0.46698344
-0.49104366
0.46399737
-0.51040593
0.37437899
-0.52509345
0.15436915
-0.52226433
-0.0730152
-0.496125
-0.18099929
-0.45210696
-0.14284867
-0.40339858
-0.024778143
-0.42799983
0.091617329
-0.47381915
0.16311175
-0.52965946
0.192877
-0.59237966
0.18894736
-0.6589805
0.15825298
-0.72419791
0.1103451
-0.78229873
0.063114575
-0.83184746
0.031127689
-0.87706397
0.017084719
-0.92351408
0.016749422
-0.9756844
0.023965259
-1.036267
0.03360636
-1.10645
0.042386769
-1.1865043
0.04853929
-1.2761152
0.051395744
-1.3745451
0.051052332
-1.4808469
0.048080849
-1.5941354
0.043275018
-1.7137453
0.03744881
-1.839351
0.031301782
-1.9711285
0.025353527
-2.1097343
0.01993384
-2.255968
0.015209809
-2.4106612
0.011225366
-2.5747041
0.0079467022
-2.7492368
0.0052887043
-2.9354577
0.0031558105
-3.1355272
0.0014216474
-3.3507418
-0.42555284
0.094185377
-0.4650325
-0.045345558
0.31113021
-0.42832997
0.44082411
-0.45893875
0.49058028
-0.48898364
0.48535399
-0.51144574
0.39234151
-0.5274423
0.15576141
-0.52569746
-0.093229487
-0.50146368
-0.2169202
-0.45968762
-0.18138933
-0.41304674
-0.036718234
-0.39090834
0.097996552
-0.4339717
0.17869513
-0.48915534
0.21412943
-0.55069929
0.21372057
-0.61694505
0.18203196
-0.68261205
0.12678522
-0.74056186
0.068367215
-0.78752061
0.027139823
-0.82788242
0.0079896084
-0.86804777
0.0063487807
-0.91324235
0.014795868
-0.96669897
0.026931126
-1.0298299
0.038646808
-1.1030026
0.047678463
-1.1860049
0.053034382
-1.2781758
0.054615315
-1.3785462
0.052916291
-1.4860991
0.048757561
-1.5999856
0.043054346
-1.7196496
0.036645894
-1.8449032
0.030195849
-1.976085
0.02415878
-2.1139995
0.018794757
-2.2595358
0.014210582
-2.4135689
0.010405135
-2.5770132
0.0073147336
-2.7510459
0.0048375331
-2.9368755
0.00286988
-3.1366876
0.0012852933
-3.3517427
-0.4214328
0.30802799
-0.4255103
0.055622481
-0.46718329
-0.10087729
0.46462297
-0.45095767
0.51792716
-0.48514738
0.50807944
-0.51076129
0.40944155
-0.52762263
0.15601114
-0.52689667
-0.11369448
-0.50463821
-0.25225951
-0.4655928
-0.22116818
-0.41936992
-0.064511675
-0.3846888
0.10558238
-0.39811453
0.19619057
-0.45124202
0.23689906
-0.51173039
0.24079027
-0.57757307
0.20896834
-0.64374478
0.14654021
-0.70230258
0.075171204
-0.74734245
0.022698252
-0.78310827
-0.0028835626
-0.81709806
-0.006394297
-0.8554447
0.0032801232
-0.90192224
0.018130331
-0.95814915
0.033097799
-1.0245821
0.045389142
-1.1010801
0.053666874
-1.1870766
0.05760146
-1.2816398
0.057569356
-1.3836745
0.054380994
-1.4921619
0.049031611
-1.606346
0.042497204
-1.7258071
0.035597688
-1.8505169
0.028932533
-1.9809749
0.022877524
-2.1181262
0.017619175
-2.2629319
0.013205916
-2.4162972
0.00959584
-2.5791548
0.0066998916
-2.7527068
0.0044032666
-2.9381672
0.0025967298
-3.1377439
0.0011555583
-3.3526452
-0.44296828
0.48733209
-0.41905796
0.30259848
-0.4278986
0.017301312
-0.47175472
-0.15196791
0.54799832
-0.47989237
0.53222005
-0.5083472
0.42542186
-0.52582276
0.15509372
-0.5259041
-0.13410324
-0.50588618
-0.28658342
-0.46976881
-0.26134295
-0.42486003
-0.095236925
-0.38806165
0.097587172
-0.37630854
0.21545182
-0.41716905
0.26095768
-0.47512197
0.26955329
-0.54030868
0.23837589
-0.60685373
0.1692448
-0.6663952
0.083510753
-0.71062426
0.017915778
-0.74259292
-0.01568944
-0.77039796
-0.021722066
-0.80191742
-0.010781719
-0.8415856
0.0070555441
-0.89110867
0.025601662
-0.95096376
0.041518316
-1.0210809
0.053131922
-1.1009898
0.059858689
-1.1898358
0.061916773
-1.2865071
0.060065351
-1.3898587
0.055349032
-1.4989344
0.048868169
-1.6131069
0.041604804
-1.7321234
0.034321836
-1.8561168
0.027533742
-1.9857465
0.021529468
-2.122082
0.016422184
-2.2661385
0.012206119
-2.4188395
0.0088038946
-2.5811282
0.0061057877
-2.7542277
0.0039877065
-2.9393437
0.0023370882
-3.1386957
0.0010327303
-3.3534585
-0.47376028
0.5799237
-0.43729039
0.50673981
-0.41976124
0.29548779
-0.4324663
-0.021019863
-0.47838176
-0.19782417
0.55763847
-0.50437681
0.44007924
-0.52209113
0.152961
-0.52288504
-0.15417457
-0.50522422
-0.31950672
-0.47240487
-0.30074641
-0.42979071
-0.12850588
-0.39099174
0.088503095
-0.37858049
0.22262807
-0.38327752
0.28598816
-0.44203412
0.29907026
-0.50446522
0.26876221
-0.57057682
0.19286378
-0.63042751
0.091863149
-0.67473404
0.012096828
-0.70484001
-0.03050805
-0.7278741
-0.039835235
-0.75243597
-0.027553783
-0.78535096
-0.0064065243
-0.82839097
0.016056122
-0.8818819
0.035948375
-0.945768
0.051290388
-1.0196882
0.061241701
-1.1028864
0.065829425
-1.1942958
0.065717356
-1.2927061
0.061960338
-1.3969862
0.055759949
-1.5062874
0.048257461
-1.6201515
0.040393166
-1.738501
0.032843552
-1.8616335
0.026024239
-1.9903535
0.020134647
-2.1258401
0.015218092
-2.269143
0.01122048
-2.4211925
0.0080347848
-2.582941
0.005535346
-2.755614
0.0035921994
-2.9404084
0.0020913562
-3.1395569
0.00091671677
-3.3541862
-0.49916733
0.58397299
-0.46663734
0.61040005
-0.4351267
0.52328148
-0.4223741
0.28642481
-0.43977714
-0.058653935
-0.48658046
-0.23754294
0.45326447
-0.51665527
0.1497056
-0.51802917
-0.17365319
-0.50279217
-0.35050218
-0.4736598
-0.33836135
-0.43420125
-0.16318736
-0.39449626
0.077626996
-0.37970847
0.23217673
-0.38791525
0.30064705
-0.39777042
0.32837876
-0.47117945
0.29889569
-0.53448823
0.21555391
-0.59322921
0.098558753
-0.63711293
0.0029443615
-0.66561665
-0.048230689
-0.68721943
-0.061042308
-0.70681981
-0.047257451
-0.73293721
-0.022312001
-0.76971515
0.0044226767
-0.81708174
0.028603184
-0.87491583
0.048033436
-0.9429623
0.061620403
-1.0205825
0.069178319
-1.1067937
0.071233059
-1.2003889
0.068804064
-1.3001151
0.063160057
-1.4049087
0.055587629
-1.51408
0.047211209
-1.6273569
0.038890206
-1.7448482
0.031193304
-1.8670024
0.024430189
-1.9947572
0.018712597
-2.1293803
0.014020096
-2.2719367
0.010257129
-2.4233573
0.0072930741
-2.5845946
0.0049908283
-2.7568745
0.0032176576
-2.9413727
0.001859699
-3.1403293
0.00080731146
-3.3548369
-0.50985989
0.46485598
-0.49205978
0.610317
-0.46152212
0.63792009
-0.43505324
0.53713695
-0.42722089
0.27489895
-0.44986078
-0.094400443
-0.49588038
-0.27085981
0.14541828
-0.5115623
-0.19228944
-0.49877427
-0.37905941
-0.47365659
-0.37335957
-0.43806152
-0.19775673
-0.39900791
0.064614021
-0.38106709
0.24281394
-0.39012542
0.31845292
-0.40554837
0.34970723
-0.41893483
0.32777493
-0.49995554
0.23691524
-0.55581749
0.10420622
-0.5988693
-0.010217596
-0.62398546
-0.070347378
-0.64360263
-0.085691627
-0.66272256
-0.070129424
-0.68414924
-0.040747909
-0.71476965
-0.0093103458
-0.75630829
0.019464726
-0.80832361
0.043292823
-0.87062597
0.060887406
-0.9427439
0.071840985
-1.0238035
0.076501551
-1.1126523
0.075803874
-1.2079881
0.071040011
-1.3085677
0.063615624
-1.4134599
0.054835807
-1.5221609
0.045758765
-1.6346048
0.037132508
-1.7510784
0.029404661
-1.8721687
0.022777854
-1.9989255
0.017281772
-2.1326872
0.012840015
-2.2745161
0.0093230013
-2.4253348
0.0065824054
-2.5860989
0.0044738551
-2.7580149
0.0028646013
-2.9422412
0.0016425273
-3.1410257
0.00070543729
-3.3554138
-0.5037915
0.1401523
-0.5014866
0.47517321
-0.48569363
0.63540458
-0.45780803
0.66179415
-0.43681593
0.54790768
-0.43487883
0.26094713
-0.46200558
-0.12730033
-0.50585469
-0.29799244
-0.20981786
-0.49341196
-0.40462816
-0.47261968
-0.40503284
-0.44137455
-0.23101394
-0.40417196
0.049491867
-0.38346174
0.25328039
-0.39130709
0.33893296
-0.41042609
0.37296097
-0.42863022
0.35625306
-0.44730918
0.25669633
-0.51970806
0.10952215
-0.56112855
-0.02486387
-0.58425651
-0.096699105
-0.59773569
-0.11355784
-0.61588694
-0.095683419
-0.63736429
-0.061762418
-0.66339884
-0.025057486
-0.69934736
0.0085759645
-0.74579751
0.037046235
-0.80252543
0.058966684
-0.86921914
0.073708123
-0.94516662
0.081409246
-1.0293041
0.082869797
-1.120339
0.07935345
-1.2169138
0.072346298
-1.3178729
0.063318032
-1.4224583
0.053533148
-1.5303818
0.043942818
-1.6417821
0.035162302
-1.757116
0.027512341
-1.8770853
0.021092619
-2.0028346
0.015859044
-2.1357518
0.011688147
-2.2768796
0.0084237875
-2.427132
0.0059055158
-2.5874576
0.0039854801
-2.7590446
0.0025332726
-2.943024
0.0014403585
-3.1416468
0.00061204559
-3.3559275
-0.48701521
-0.22597028
-0.49543565
0.13489893
-0.49332374
0.48368497
-0.47925597
0.65776245
-0.45562963
0.68172155
-0.44070705
0.5549105
-0.4451454
0.24511506
-0.47549909
-0.15668046
-0.51614746
-0.31938545
-0.4266953
-0.47075358
-0.4327589
-0.44427857
-0.26237221
-0.40937824
0.032978048
-0.38722765
0.26222821
-0.3921773
0.36130746
-0.41349624
0.39784184
-0.43512787
0.38606496
-0.45833191
0.28886524
-0.47944838
0.11403045
-0.5242129
-0.039325133
-0.5466999
-0.12508641
-0.55596926
-0.14341071
-0.56803022
-0.12225044
-0.58950843
-0.084534606
-0.61484959
-0.042755045
-0.64602202
-0.0039636737
-0.68717976
0.029321407
-0.73851527
0.055813744
-0.79988544
0.07468961
-0.87075524
0.085845119
-0.95019333
0.08990046
-1.0369637
0.088034918
-1.1296587
0.081765195
-1.2269481
0.072695377
-1.3278175
0.062292071
-1.431722
0.051727742
-1.5385983
0.0418153
-1.6487882
0.033024645
-1.7628952
0.025550676
-1.8817161
0.01939815
-2.006467
0.014459399
-2.1385688
0.010573143
-2.2790317
0.0075639276
-2.4287533
0.0052643188
-2.5886845
0.0035263165
-2.7599695
0.0022236945
-2.9437242
0.0012529823
-3.1422044
0.00052654368
-3.3563823
-0.46829375
-0.4448225
-0.48134054
-0.23944056
-0.48644609
0.12881252
-0.48458981
0.48989129
-0.47319239
0.67622773
-0.45493999
0.69706218
-0.446658
0.55759637
-0.45734857
0.22798902
-0.48970659
-0.18214613
-0.52649478
-0.33582252
-0.45588272
-0.44701103
-0.29125263
-0.41475717
0.016560814
-0.39252545
0.2688172
-0.3935792
0.38470991
-0.4153891
0.42397639
-0.43944566
0.41666422
-0.46561111
0.32299487
-0.49242697
0.14183943
-0.50725237
-0.053014808
-0.51055469
-0.15282719
-0.51905628
-0.17378049
-0.52574283
-0.14881054
-0.54165074
-0.10704371
-0.56724852
-0.061820614
-0.59609842
-0.018035986
-0.63231285
0.020197732
-0.67848906
0.051424174
-0.73463532
0.074716987
-0.80046662
0.089705449
-0.8752004
0.096786506
-0.95770925
0.096999995
-1.0465858
0.091835162
-1.1403753
0.082986453
-1.2378484
0.072103812
-1.3381844
0.06058957
-1.441072
0.049481808
-1.5466802
0.03943352
-1.6555339
0.030765159
-1.7683636
0.023552298
-1.886033
0.01771585
-2.0098125
0.013095688
-2.1411384
0.0095019583
-2.2809756
0.0067467032
-2.4302132
0.0046600814
-2.5897844
0.0030966112
-2.7607989
0.0019356338
-2.9443509
0.0010795605
-3.1426985
0.0004480643
-3.3567886
-0.44968211
-0.47387441
-0.46760159
-0.4579665
-0.47435809
-0.25090408
-0.4768086
0.12181495
-0.4756801
0.49324133
-0.4677673
0.68994831
-0.45565054
0.707156
-0.45423942
0.55565904
-0.47060259
0.20990374
-0.50399755
-0.20366899
-0.53649472
-0.34812159
-0.31666313
-0.42095923
0.0012297474
-0.3989871
0.27333782
-0.39680427
0.40796352
-0.41663743
0.45069169
-0.4419143
0.44727174
-0.46993182
0.35911606
-0.50169253
0.17035083
-0.52092899
-0.042026113
-0.51827015
-0.17965396
-0.48382049
-0.20331302
-0.48966212
-0.1755555
-0.49917035
-0.1285895
-0.52034476
-0.080642651
-0.54873287
-0.03338163
-0.58110478
0.0097606694
-0.62229554
0.045825799
-0.67339347
0.073751072