/*--------------------------------*- C++ -*----------------------------------*\
| =========                 |                                                 |
| \\      /  F ield         | OpenFOAM: The Open Source CFD Toolbox           |
|  \\    /   O peration     | Version:  v2012                                 |
|   \\  /    A nd           | Website:  www.openfoam.com                      |
|    \\/     M anipulation  |                                                 |
\*---------------------------------------------------------------------------*/
FoamFile
{
    version     2.0;
    format      ascii;
    class       pointVectorField;
    location    "31.4558248775613549";
    object      pointDisplacement;
}
// * * * * * * * * * * * * * * * * * * * * * * * * * * * * * * * * * * * * * //

dimensions      [0 1 0 0 0 0 0];


internalField   nonuniform List<vector> 
18840
(
(1.9996777 0 0)
(1.9995408 0 0)
(1.9991339 0 0)
(1.9984638 0 0)
(1.9975354 0 0)
(1.9963522 0 0)
(1.9949164 0 0)
(1.9932292 0 0)
(1.9912908 0 0)
(1.9891005 0 0)
(1.986657 0 0)
(1.9839581 0 0)
(1.9810012 0 0)
(1.9777831 0 0)
(1.9742999 0 0)
(1.9705474 0 0)
(1.966521 0 0)
(1.9622157 0 0)
(1.9576261 0 0)
(1.9527504 0 0)
(1.9465488 0 0)
(1.9996777 0 0)
(1.9995403 0 0)
(1.999132 0 0)
(1.9984593 0 0)
(1.9975273 0 0)
(1.9963394 0 0)
(1.9948977 0 0)
(1.9932036 0 0)
(1.9912572 0 0)
(1.9890579 0 0)
(1.9866045 0 0)
(1.9838949 0 0)
(1.9809266 0 0)
(1.9776964 0 0)
(1.9742007 0 0)
(1.9704355 0 0)
(1.9663962 0 0)
(1.9620781 0 0)
(1.9574758 0 0)
(1.9525856 0 0)
(1.9473821 0 0)
(1.9996777 0 0)
(1.9995396 0 0)
(1.9991291 0 0)
(1.9984528 0 0)
(1.9975156 0 0)
(1.9963209 0 0)
(1.994871 0 0)
(1.9931671 0 0)
(1.9912094 0 0)
(1.9889975 0 0)
(1.98653 0 0)
(1.9838051 0 0)
(1.9808203 0 0)
(1.9775726 0 0)
(1.9740584 0 0)
(1.9702739 0 0)
(1.9662145 0 0)
(1.9618757 0 0)
(1.957252 0 0)
(1.9523381 0 0)
(1.9470364 0 0)
(1.9996777 0 0)
(1.9995389 0 0)
(1.9991263 0 0)
(1.9984465 0 0)
(1.9975041 0 0)
(1.9963028 0 0)
(1.9948446 0 0)
(1.9931308 0 0)
(1.9911617 0 0)
(1.9889368 0 0)
(1.9864548 0 0)
(1.983714 0 0)
(1.980712 0 0)
(1.9774457 0 0)
(1.9739118 0 0)
(1.9701065 0 0)
(1.9660255 0 0)
(1.9616642 0 0)
(1.9570177 0 0)
(1.9520811 0 0)
(1.9466941 0 0)
(1.9996777 0 0)
(1.9995383 0 0)
(1.9991237 0 0)
(1.9984403 0 0)
(1.9974929 0 0)
(1.9962849 0 0)
(1.9948183 0 0)
(1.9930945 0 0)
(1.9911137 0 0)
(1.9888754 0 0)
(1.9863784 0 0)
(1.9836209 0 0)
(1.9806006 0 0)
(1.9773146 0 0)
(1.9737596 0 0)
(1.9699317 0 0)
(1.965827 0 0)
(1.961441 0 0)
(1.956769 0 0)
(1.9518068 0 0)
(1.9463378 0 0)
(1.9996777 0 0)
(1.9995376 0 0)
(1.9991211 0 0)
(1.9984342 0 0)
(1.9974818 0 0)
(1.9962671 0 0)
(1.9947921 0 0)
(1.993058 0 0)
(1.9910651 0 0)
(1.9888129 0 0)
(1.9863001 0 0)
(1.9835251 0 0)
(1.9804854 0 0)
(1.9771783 0 0)
(1.9736004 0 0)
(1.969748 0 0)
(1.9656172 0 0)
(1.9612036 0 0)
(1.9565027 0 0)
(1.9515105 0 0)
(1.9459622 0 0)
(1.9996777 0 0)
(1.999537 0 0)
(1.9991186 0 0)
(1.9984283 0 0)
(1.9974708 0 0)
(1.9962493 0 0)
(1.9947657 0 0)
(1.9930212 0 0)
(1.9910158 0 0)
(1.9887491 0 0)
(1.9862199 0 0)
(1.9834263 0 0)
(1.980366 0 0)
(1.9770361 0 0)
(1.9734334 0 0)
(1.9695542 0 0)
(1.9653944 0 0)
(1.96095 0 0)
(1.9562163 0 0)
(1.9511894 0 0)
(1.9455644 0 0)
(1.9996777 0 0)
(1.9995364 0 0)
(1.9991161 0 0)
(1.9984225 0 0)
(1.9974599 0 0)
(1.9962316 0 0)
(1.9947392 0 0)
(1.9929839 0 0)
(1.9909657 0 0)
(1.9886839 0 0)
(1.9861374 0 0)
(1.9833242 0 0)
(1.9802418 0 0)
(1.9768875 0 0)
(1.9732579 0 0)
(1.9693494 0 0)
(1.9651578 0 0)
(1.9606789 0 0)
(1.9559082 0 0)
(1.9508417 0 0)
(1.9451428 0 0)
(1.9996777 0 0)
(1.9995359 0 0)
(1.9991137 0 0)
(1.9984167 0 0)
(1.997449 0 0)
(1.9962137 0 0)
(1.9947125 0 0)
(1.9929461 0 0)
(1.9909146 0 0)
(1.9886171 0 0)
(1.9860525 0 0)
(1.9832185 0 0)
(1.9801128 0 0)
(1.9767324 0 0)
(1.9730738 0 0)
(1.9691333 0 0)
(1.9649068 0 0)
(1.9603898 0 0)
(1.9555779 0 0)
(1.9504666 0 0)
(1.9446972 0 0)
(1.9996777 0 0)
(1.9995353 0 0)
(1.9991113 0 0)
(1.9984109 0 0)
(1.9974381 0 0)
(1.9961957 0 0)
(1.9946853 0 0)
(1.9929076 0 0)
(1.9908624 0 0)
(1.9885487 0 0)
(1.9859651 0 0)
(1.9831094 0 0)
(1.979979 0 0)
(1.9765707 0 0)
(1.9728811 0 0)
(1.9689061 0 0)
(1.9646416 0 0)
(1.9600831 0 0)
(1.9552257 0 0)
(1.9500647 0 0)
(1.9442284 0 0)
(1.9996777 0 0)
(1.9995345 0 0)
(1.9991078 0 0)
(1.9984027 0 0)
(1.997423 0 0)
(1.9961712 0 0)
(1.9946489 0 0)
(1.9928565 0 0)
(1.9907938 0 0)
(1.9884595 0 0)
(1.9858521 0 0)
(1.9829692 0 0)
(1.979808 0 0)
(1.9763652 0 0)
(1.9726372 0 0)
(1.9686197 0 0)
(1.9643084 0 0)
(1.9596984 0 0)
(1.954785 0 0)
(1.9495627 0 0)
(1.9436586 0 0)
(1.9996777 0 0)
(1.9995408 0 0)
(1.9991339 0 0)
(1.9984638 0 0)
(1.9975354 0 0)
(1.9963522 0 0)
(1.9949164 0 0)
(1.9932292 0 0)
(1.9912908 0 0)
(1.9891005 0 0)
(1.986657 0 0)
(1.9839581 0 0)
(1.9810012 0 0)
(1.9777831 0 0)
(1.9742999 0 0)
(1.9705474 0 0)
(1.966521 0 0)
(1.9622157 0 0)
(1.9576261 0 0)
(1.9527504 0 0)
(1.9465488 0 0)
(1.9996777 0 0)
(1.9995403 0 0)
(1.999132 0 0)
(1.9984593 0 0)
(1.9975273 0 0)
(1.9963394 0 0)
(1.9948977 0 0)
(1.9932036 0 0)
(1.9912572 0 0)
(1.9890579 0 0)
(1.9866045 0 0)
(1.9838949 0 0)
(1.9809266 0 0)
(1.9776964 0 0)
(1.9742007 0 0)
(1.9704355 0 0)
(1.9663962 0 0)
(1.9620781 0 0)
(1.9574758 0 0)
(1.9525856 0 0)
(1.9473821 0 0)
(1.9996777 0 0)
(1.9995396 0 0)
(1.9991291 0 0)
(1.9984528 0 0)
(1.9975156 0 0)
(1.9963209 0 0)
(1.994871 0 0)
(1.9931671 0 0)
(1.9912094 0 0)
(1.9889975 0 0)
(1.98653 0 0)
(1.9838051 0 0)
(1.9808203 0 0)
(1.9775726 0 0)
(1.9740584 0 0)
(1.9702739 0 0)
(1.9662145 0 0)
(1.9618757 0 0)
(1.957252 0 0)
(1.9523381 0 0)
(1.9470364 0 0)
(1.9996777 0 0)
(1.9995389 0 0)
(1.9991263 0 0)
(1.9984465 0 0)
(1.9975041 0 0)
(1.9963028 0 0)
(1.9948446 0 0)
(1.9931308 0 0)
(1.9911617 0 0)
(1.9889368 0 0)
(1.9864548 0 0)
(1.983714 0 0)
(1.980712 0 0)
(1.9774457 0 0)
(1.9739118 0 0)
(1.9701065 0 0)
(1.9660255 0 0)
(1.9616642 0 0)
(1.9570177 0 0)
(1.9520811 0 0)
(1.9466941 0 0)
(1.9996777 0 0)
(1.9995383 0 0)
(1.9991237 0 0)
(1.9984403 0 0)
(1.9974929 0 0)
(1.9962849 0 0)
(1.9948183 0 0)
(1.9930945 0 0)
(1.9911137 0 0)
(1.9888754 0 0)
(1.9863784 0 0)
(1.9836209 0 0)
(1.9806006 0 0)
(1.9773146 0 0)
(1.9737596 0 0)
(1.9699317 0 0)
(1.965827 0 0)
(1.961441 0 0)
(1.956769 0 0)
(1.9518068 0 0)
(1.9463378 0 0)
(1.9996777 0 0)
(1.9995376 0 0)
(1.9991211 0 0)
(1.9984342 0 0)
(1.9974818 0 0)
(1.9962671 0 0)
(1.9947921 0 0)
(1.993058 0 0)
(1.9910651 0 0)
(1.9888129 0 0)
(1.9863001 0 0)
(1.9835251 0 0)
(1.9804854 0 0)
(1.9771783 0 0)
(1.9736004 0 0)
(1.969748 0 0)
(1.9656172 0 0)
(1.9612036 0 0)
(1.9565027 0 0)
(1.9515105 0 0)
(1.9459622 0 0)
(1.9996777 0 0)
(1.999537 0 0)
(1.9991186 0 0)
(1.9984283 0 0)
(1.9974708 0 0)
(1.9962493 0 0)
(1.9947657 0 0)
(1.9930212 0 0)
(1.9910158 0 0)
(1.9887491 0 0)
(1.9862199 0 0)
(1.9834263 0 0)
(1.980366 0 0)
(1.9770361 0 0)
(1.9734334 0 0)
(1.9695542 0 0)
(1.9653944 0 0)
(1.96095 0 0)
(1.9562163 0 0)
(1.9511894 0 0)
(1.9455644 0 0)
(1.9996777 0 0)
(1.9995364 0 0)
(1.9991161 0 0)
(1.9984225 0 0)
(1.9974599 0 0)
(1.9962316 0 0)
(1.9947392 0 0)
(1.9929839 0 0)
(1.9909657 0 0)
(1.9886839 0 0)
(1.9861374 0 0)
(1.9833242 0 0)
(1.9802418 0 0)
(1.9768875 0 0)
(1.9732579 0 0)
(1.9693494 0 0)
(1.9651578 0 0)
(1.9606789 0 0)
(1.9559082 0 0)
(1.9508417 0 0)
(1.9451428 0 0)
(1.9996777 0 0)
(1.9995359 0 0)
(1.9991137 0 0)
(1.9984167 0 0)
(1.997449 0 0)
(1.9962137 0 0)
(1.9947125 0 0)
(1.9929461 0 0)
(1.9909146 0 0)
(1.9886171 0 0)
(1.9860525 0 0)
(1.9832185 0 0)
(1.9801128 0 0)
(1.9767324 0 0)
(1.9730738 0 0)
(1.9691333 0 0)
(1.9649068 0 0)
(1.9603898 0 0)
(1.9555779 0 0)
(1.9504666 0 0)
(1.9446972 0 0)
(1.9996777 0 0)
(1.9995353 0 0)
(1.9991113 0 0)
(1.9984109 0 0)
(1.9974381 0 0)
(1.9961957 0 0)
(1.9946853 0 0)
(1.9929076 0 0)
(1.9908624 0 0)
(1.9885487 0 0)
(1.9859651 0 0)
(1.9831094 0 0)
(1.979979 0 0)
(1.9765707 0 0)
(1.9728811 0 0)
(1.9689061 0 0)
(1.9646416 0 0)
(1.9600831 0 0)
(1.9552257 0 0)
(1.9500647 0 0)
(1.9442284 0 0)
(1.9996777 0 0)
(1.9995345 0 0)
(1.9991078 0 0)
(1.9984027 0 0)
(1.997423 0 0)
(1.9961712 0 0)
(1.9946489 0 0)
(1.9928565 0 0)
(1.9907938 0 0)
(1.9884595 0 0)
(1.9858521 0 0)
(1.9829692 0 0)
(1.979808 0 0)
(1.9763652 0 0)
(1.9726372 0 0)
(1.9686197 0 0)
(1.9643084 0 0)
(1.9596984 0 0)
(1.954785 0 0)
(1.9495627 0 0)
(1.9436586 0 0)
(1.9996777 0 0)
(1.9995415 0 0)
(1.9991372 0 0)
(1.9984717 0 0)
(1.9975502 0 0)
(1.9963763 0 0)
(1.9949523 0 0)
(1.9932789 0 0)
(1.9913561 0 0)
(1.9891826 0 0)
(1.9867564 0 0)
(1.9840746 0 0)
(1.9811336 0 0)
(1.9779291 0 0)
(1.9744561 0 0)
(1.9707089 0 0)
(1.9666812 0 0)
(1.9623658 0 0)
(1.9577553 0 0)
(1.9528454 0 0)
(1.9471771 0 0)
(1.9996777 0 0)
(1.9995413 0 0)
(1.9991362 0 0)
(1.9984696 0 0)
(1.9975466 0 0)
(1.9963709 0 0)
(1.9949447 0 0)
(1.9932688 0 0)
(1.991343 0 0)
(1.9891663 0 0)
(1.9867366 0 0)
(1.984051 0 0)
(1.981106 0 0)
(1.9778972 0 0)
(1.9744197 0 0)
(1.9706676 0 0)
(1.9666348 0 0)
(1.9623141 0 0)
(1.9576979 0 0)
(1.9527821 0 0)
(1.9471132 0 0)
(1.9996777 0 0)
(1.9995409 0 0)
(1.9991346 0 0)
(1.9984661 0 0)
(1.9975405 0 0)
(1.9963616 0 0)
(1.9949315 0 0)
(1.9932513 0 0)
(1.9913206 0 0)
(1.9891385 0 0)
(1.986703 0 0)
(1.9840112 0 0)
(1.9810595 0 0)
(1.9778438 0 0)
(1.9743589 0 0)
(1.9705994 0 0)
(1.9665588 0 0)
(1.9622302 0 0)
(1.9576061 0 0)
(1.9526823 0 0)
(1.9470222 0 0)
(1.9996777 0 0)
(1.9995406 0 0)
(1.9991334 0 0)
(1.9984634 0 0)
(1.9975359 0 0)
(1.9963545 0 0)
(1.9949215 0 0)
(1.9932379 0 0)
(1.9913035 0 0)
(1.9891173 0 0)
(1.9866774 0 0)
(1.9839811 0 0)
(1.9810247 0 0)
(1.9778041 0 0)
(1.9743144 0 0)
(1.9705501 0 0)
(1.9665049 0 0)
(1.9621719 0 0)
(1.9575438 0 0)
(1.9526162 0 0)
(1.946979 0 0)
(1.9996777 0 0)
(1.9995404 0 0)
(1.9991326 0 0)
(1.9984616 0 0)
(1.9975327 0 0)
(1.9963496 0 0)
(1.9949146 0 0)
(1.9932286 0 0)
(1.9912916 0 0)
(1.9891026 0 0)
(1.9866598 0 0)
(1.9839605 0 0)
(1.9810011 0 0)
(1.9777778 0 0)
(1.9742855 0 0)
(1.9705189 0 0)
(1.9664718 0 0)
(1.9621377 0 0)
(1.9575092 0 0)
(1.9525818 0 0)
(1.9469813 0 0)
(1.9996777 0 0)
(1.9995403 0 0)
(1.9991322 0 0)
(1.9984606 0 0)
(1.997531 0 0)
(1.9963469 0 0)
(1.9949106 0 0)
(1.9932232 0 0)
(1.9912847 0 0)
(1.9890941 0 0)
(1.9866497 0 0)
(1.9839488 0 0)
(1.9809882 0 0)
(1.9777638 0 0)
(1.974271 0 0)
(1.9705044 0 0)
(1.9664581 0 0)
(1.9621257 0 0)
(1.9574999 0 0)
(1.9525762 0 0)
(1.9470253 0 0)
(1.9996777 0 0)
(1.9995403 0 0)
(1.9991321 0 0)
(1.9984604 0 0)
(1.9975306 0 0)
(1.9963461 0 0)
(1.9949093 0 0)
(1.9932214 0 0)
(1.9912822 0 0)
(1.9890911 0 0)
(1.9866462 0 0)
(1.9839451 0 0)
(1.9809846 0 0)
(1.9777608 0 0)
(1.9742691 0 0)
(1.9705045 0 0)
(1.9664611 0 0)
(1.9621327 0 0)
(1.9575125 0 0)
(1.9525952 0 0)
(1.947106 0 0)
(1.9996777 0 0)
(1.9995403 0 0)
(1.9991324 0 0)
(1.998461 0 0)
(1.9975313 0 0)
(1.9963471 0 0)
(1.9949105 0 0)
(1.9932227 0 0)
(1.9912837 0 0)
(1.9890929 0 0)
(1.9866485 0 0)
(1.9839482 0 0)
(1.9809889 0 0)
(1.9777668 0 0)
(1.9742777 0 0)
(1.9705165 0 0)
(1.9664778 0 0)
(1.9621554 0 0)
(1.9575427 0 0)
(1.9526342 0 0)
(1.9472178 0 0)
(1.9996777 0 0)
(1.9995405 0 0)
(1.999133 0 0)
(1.9984622 0 0)
(1.9975332 0 0)
(1.9963496 0 0)
(1.9949137 0 0)
(1.9932266 0 0)
(1.9912885 0 0)
(1.9890986 0 0)
(1.9866554 0 0)
(1.9839566 0 0)
(1.9809993 0 0)
(1.9777799 0 0)
(1.9742942 0 0)
(1.9705375 0 0)
(1.9665046 0 0)
(1.9621896 0 0)
(1.9575861 0 0)
(1.9526882 0 0)
(1.947355 0 0)
(1.9996777 0 0)
(1.9995408 0 0)
(1.9991339 0 0)
(1.9984639 0 0)
(1.9975359 0 0)
(1.9963534 0 0)
(1.9949186 0 0)
(1.9932327 0 0)
(1.9912959 0 0)
(1.9891075 0 0)
(1.9866659 0 0)
(1.9839691 0 0)
(1.9810142 0 0)
(1.9777978 0 0)
(1.9743159 0 0)
(1.9705642 0 0)
(1.9665375 0 0)
(1.9622306 0 0)
(1.9576376 0 0)
(1.9527542 0 0)
(1.9475222 0 0)
(1.9996777 0 0)
(1.9995415 0 0)
(1.9991372 0 0)
(1.9984717 0 0)
(1.9975502 0 0)
(1.9963763 0 0)
(1.9949523 0 0)
(1.9932789 0 0)
(1.9913561 0 0)
(1.9891826 0 0)
(1.9867564 0 0)
(1.9840746 0 0)
(1.9811336 0 0)
(1.9779291 0 0)
(1.9744561 0 0)
(1.9707089 0 0)
(1.9666812 0 0)
(1.9623658 0 0)
(1.9577553 0 0)
(1.9528454 0 0)
(1.9471771 0 0)
(1.9996777 0 0)
(1.9995413 0 0)
(1.9991362 0 0)
(1.9984696 0 0)
(1.9975466 0 0)
(1.9963709 0 0)
(1.9949447 0 0)
(1.9932688 0 0)
(1.991343 0 0)
(1.9891663 0 0)
(1.9867366 0 0)
(1.984051 0 0)
(1.981106 0 0)
(1.9778972 0 0)
(1.9744197 0 0)
(1.9706676 0 0)
(1.9666348 0 0)
(1.9623141 0 0)
(1.9576979 0 0)
(1.9527821 0 0)
(1.9471132 0 0)
(1.9996777 0 0)
(1.9995409 0 0)
(1.9991346 0 0)
(1.9984661 0 0)
(1.9975405 0 0)
(1.9963616 0 0)
(1.9949315 0 0)
(1.9932513 0 0)
(1.9913206 0 0)
(1.9891385 0 0)
(1.986703 0 0)
(1.9840112 0 0)
(1.9810595 0 0)
(1.9778438 0 0)
(1.9743589 0 0)
(1.9705994 0 0)
(1.9665588 0 0)
(1.9622302 0 0)
(1.9576061 0 0)
(1.9526823 0 0)
(1.9470222 0 0)
(1.9996777 0 0)
(1.9995406 0 0)
(1.9991334 0 0)
(1.9984634 0 0)
(1.9975359 0 0)
(1.9963545 0 0)
(1.9949215 0 0)
(1.9932379 0 0)
(1.9913035 0 0)
(1.9891173 0 0)
(1.9866774 0 0)
(1.9839811 0 0)
(1.9810247 0 0)
(1.9778041 0 0)
(1.9743144 0 0)
(1.9705501 0 0)
(1.9665049 0 0)
(1.9621719 0 0)
(1.9575438 0 0)
(1.9526162 0 0)
(1.946979 0 0)
(1.9996777 0 0)
(1.9995404 0 0)
(1.9991326 0 0)
(1.9984616 0 0)
(1.9975327 0 0)
(1.9963496 0 0)
(1.9949146 0 0)
(1.9932286 0 0)
(1.9912916 0 0)
(1.9891026 0 0)
(1.9866598 0 0)
(1.9839605 0 0)
(1.9810011 0 0)
(1.9777778 0 0)
(1.9742855 0 0)
(1.9705189 0 0)
(1.9664718 0 0)
(1.9621377 0 0)
(1.9575092 0 0)
(1.9525818 0 0)
(1.9469813 0 0)
(1.9996777 0 0)
(1.9995403 0 0)
(1.9991322 0 0)
(1.9984606 0 0)
(1.997531 0 0)
(1.9963469 0 0)
(1.9949106 0 0)
(1.9932232 0 0)
(1.9912847 0 0)
(1.9890941 0 0)
(1.9866497 0 0)
(1.9839488 0 0)
(1.9809882 0 0)
(1.9777638 0 0)
(1.974271 0 0)
(1.9705044 0 0)
(1.9664581 0 0)
(1.9621257 0 0)
(1.9574999 0 0)
(1.9525762 0 0)
(1.9470253 0 0)
(1.9996777 0 0)
(1.9995403 0 0)
(1.9991321 0 0)
(1.9984604 0 0)
(1.9975306 0 0)
(1.9963461 0 0)
(1.9949093 0 0)
(1.9932214 0 0)
(1.9912822 0 0)
(1.9890911 0 0)
(1.9866462 0 0)
(1.9839451 0 0)
(1.9809846 0 0)
(1.9777608 0 0)
(1.9742691 0 0)
(1.9705045 0 0)
(1.9664611 0 0)
(1.9621327 0 0)
(1.9575125 0 0)
(1.9525952 0 0)
(1.947106 0 0)
(1.9996777 0 0)
(1.9995403 0 0)
(1.9991324 0 0)
(1.998461 0 0)
(1.9975313 0 0)
(1.9963471 0 0)
(1.9949105 0 0)
(1.9932227 0 0)
(1.9912837 0 0)
(1.9890929 0 0)
(1.9866485 0 0)
(1.9839482 0 0)
(1.9809889 0 0)
(1.9777668 0 0)
(1.9742777 0 0)
(1.9705165 0 0)
(1.9664778 0 0)
(1.9621554 0 0)
(1.9575427 0 0)
(1.9526342 0 0)
(1.9472178 0 0)
(1.9996777 0 0)
(1.9995405 0 0)
(1.999133 0 0)
(1.9984622 0 0)
(1.9975332 0 0)
(1.9963496 0 0)
(1.9949137 0 0)
(1.9932266 0 0)
(1.9912885 0 0)
(1.9890986 0 0)
(1.9866554 0 0)
(1.9839566 0 0)
(1.9809993 0 0)
(1.9777799 0 0)
(1.9742942 0 0)
(1.9705375 0 0)
(1.9665046 0 0)
(1.9621896 0 0)
(1.9575861 0 0)
(1.9526882 0 0)
(1.947355 0 0)
(1.9996777 0 0)
(1.9995408 0 0)
(1.9991339 0 0)
(1.9984639 0 0)
(1.9975359 0 0)
(1.9963534 0 0)
(1.9949186 0 0)
(1.9932327 0 0)
(1.9912959 0 0)
(1.9891075 0 0)
(1.9866659 0 0)
(1.9839691 0 0)
(1.9810142 0 0)
(1.9777978 0 0)
(1.9743159 0 0)
(1.9705642 0 0)
(1.9665375 0 0)
(1.9622306 0 0)
(1.9576376 0 0)
(1.9527542 0 0)
(1.9475222 0 0)
(1.9401536 0 0)
(1.9321809 0 0)
(1.9237007 0 0)
(1.9146963 0 0)
(1.905154 0 0)
(1.8950588 0 0)
(1.8843943 0 0)
(1.8731423 0 0)
(1.8612807 0 0)
(1.8487829 0 0)
(1.8356194 0 0)
(1.8217597 0 0)
(1.8071722 0 0)
(1.7918234 0 0)
(1.7756771 0 0)
(1.7586936 0 0)
(1.7408298 0 0)
(1.7220395 0 0)
(1.7022729 0 0)
(1.6814762 0 0)
(1.6595915 0 0)
(1.6365559 0 0)
(1.6123009 0 0)
(1.5867539 0 0)
(1.5598373 0 0)
(1.531466 0 0)
(1.501547 0 0)
(1.4699809 0 0)
(1.4366599 0 0)
(1.4014664 0 0)
(1.3642738 0 0)
(1.3249457 0 0)
(1.2833328 0 0)
(1.2392729 0 0)
(1.1925939 0 0)
(1.1431085 0 0)
(1.0906087 0 0)
(1.0348687 0 0)
(0.97565008 0 0)
(0.91270029 0 0)
(0.84573358 0 0)
(0.774439 0 0)
(0.69847434 0 0)
(0.61746906 0 0)
(0.53101364 0 0)
(0.43865231 0 0)
(0.33990374 0 0)
(0.234231 0 0)
(0.12101297 0 0)
(0 0 0)
(1.9401013 0 0)
(1.932146 0 0)
(1.9236823 0 0)
(1.9146933 0 0)
(1.9051656 0 0)
(1.8950842 0 0)
(1.884433 0 0)
(1.873194 0 0)
(1.8613454 0 0)
(1.84886 0 0)
(1.8357082 0 0)
(1.8218594 0 0)
(1.807282 0 0)
(1.7919425 0 0)
(1.7758049 0 0)
(1.7588294 0 0)
(1.7409729 0 0)
(1.7221894 0 0)
(1.7024289 0 0)
(1.681638 0 0)
(1.6597585 0 0)
(1.6367275 0 0)
(1.6124766 0 0)
(1.5869331 0 0)
(1.5600194 0 0)
(1.5316506 0 0)
(1.5017335 0 0)
(1.4701686 0 0)
(1.4368483 0 0)
(1.401655 0 0)
(1.3644618 0 0)
(1.3251326 0 0)
(1.283518 0 0)
(1.2394556 0 0)
(1.1927732 0 0)
(1.1432838 0 0)
(1.0907792 0 0)
(1.0350335 0 0)
(0.97580811 0 0)
(0.91285052 0 0)
(0.84587491 0 0)
(0.77457046 0 0)
(0.69859481 0 0)
(0.6175773 0 0)
(0.53110829 0 0)
(0.4387318 0 0)
(0.33996631 0 0)
(0.23427473 0 0)
(0.12103577 0 0)
(0 0 0)
(1.9400529 0 0)
(1.9321552 0 0)
(1.9237462 0 0)
(1.9148092 0 0)
(1.9053307 0 0)
(1.895296 0 0)
(1.8846894 0 0)
(1.8734932 0 0)
(1.8616851 0 0)
(1.8492381 0 0)
(1.8361225 0 0)
(1.8223076 0 0)
(1.8077618 0 0)
(1.7924519 0 0)
(1.7763419 0 0)
(1.7593922 0 0)
(1.7415597 0 0)
(1.7227981 0 0)
(1.703058 0 0)
(1.6822857 0 0)
(1.6604231 0 0)
(1.6374073 0 0)
(1.6131698 0 0)
(1.5876381 0 0)
(1.5607346 0 0)
(1.5323742 0 0)
(1.5024638 0 0)
(1.4709038 0 0)
(1.4375866 0 0)
(1.4023943 0 0)
(1.3652 0 0)
(1.3258674 0 0)
(1.2842471 0 0)
(1.2401764 0 0)
(1.193483 0 0)
(1.1439796 0 0)
(1.0914578 0 0)
(1.0356914 0 0)
(0.97644146 0 0)
(0.91345526 0 0)
(0.84644668 0 0)
(0.77510457 0 0)
(0.69908609 0 0)
(0.61801991 0 0)
(0.53149613 0 0)
(0.43905816 0 0)
(0.34022368 0 0)
(0.23445497 0 0)
(0.12112996 0 0)
(0 0 0)
(1.9400855 0 0)
(1.9322865 0 0)
(1.9239716 0 0)
(1.9151237 0 0)
(1.9057298 0 0)
(1.8957753 0 0)
(1.8852447 0 0)
(1.8741206 0 0)
(1.8623808 0 0)
(1.8499978 0 0)
(1.8369424 0 0)
(1.8231841 0 0)
(1.8086911 0 0)
(1.7934303 0 0)
(1.7773664 0 0)
(1.7604596 0 0)
(1.7426667 0 0)
(1.7239417 0 0)
(1.7042351 0 0)
(1.6834932 0 0)
(1.661658 0 0)
(1.6386666 0 0)
(1.6144507 0 0)
(1.5889376 0 0)
(1.5620499 0 0)
(1.5337024 0 0)
(1.5038019 0 0)
(1.4722485 0 0)
(1.4389347 0 0)
(1.4037424 0 0)
(1.3665443 0 0)
(1.3272039 0 0)
(1.2855717 0 0)
(1.2414846 0 0)
(1.1947699 0 0)
(1.14524 0 0)
(1.092686 0 0)
(1.0368813 0 0)
(0.97758621 0 0)
(0.91454776 0 0)
(0.84747909 0 0)
(0.77606843 0 0)
(0.69997203 0 0)
(0.61881755 0 0)
(0.53219452 0 0)
(0.43964531 0 0)
(0.3406864 0 0)
(0.23477879 0 0)
(0.12129899 0 0)
(0 0 0)
(1.9401959 0 0)
(1.9325362 0 0)
(1.924354 0 0)
(1.9156322 0 0)
(1.9063578 0 0)
(1.8965164 0 0)
(1.8860929 0 0)
(1.8750701 0 0)
(1.8634252 0 0)
(1.8511316 0 0)
(1.8381605 0 0)
(1.8244812 0 0)
(1.8100619 0 0)
(1.7948699 0 0)
(1.7788701 0 0)
(1.7620229 0 0)
(1.7442853 0 0)
(1.7256112 0 0)
(1.7059511 0 0)
(1.6852512 0 0)
(1.6634538 0 0)
(1.640496 0 0)
(1.6163095 0 0)
(1.5908216 0 0)
(1.5639551 0 0)
(1.5356249 0 0)
(1.5057373 0 0)
(1.4741923 0 0)
(1.4408822 0 0)
(1.4056887 0 0)
(1.368484 0 0)
(1.3291315 0 0)
(1.2874813 0 0)
(1.2433699 0 0)
(1.1966238 0 0)
(1.147055 0 0)
(1.094454 0 0)
(1.0385937 0 0)
(0.97923321 0 0)
(0.91611919 0 0)
(0.84896383 0 0)
(0.77745423 0 0)
(0.70124555 0 0)
(0.61996378 0 0)
(0.53319781 0 0)
(0.44048863 0 0)
(0.34135073 0 0)
(0.23524344 0 0)
(0.1215415 0 0)
(0 0 0)
(1.9403793 0 0)
(1.9328988 0 0)
(1.9248874 0 0)
(1.9163281 0 0)
(1.9072074 0 0)
(1.8975116 0 0)
(1.8872258 0 0)
(1.8763325 0 0)
(1.8648092 0 0)
(1.8526299 0 0)
(1.839767 0 0)
(1.8261894 0 0)
(1.8118644 0 0)
(1.7967603 0 0)
(1.7808426 0 0)
(1.7640717 0 0)
(1.7464045 0 0)
(1.7277954 0 0)
(1.7081946 0 0)
(1.6875482 0 0)
(1.6657986 0 0)
(1.6428832 0 0)
(1.6187334 0 0)
(1.5932771 0 0)
(1.5664372 0 0)
(1.5381282 0 0)
(1.5082563 0 0)
(1.4767212 0 0)
(1.443415 0 0)
(1.4082191 0 0)
(1.3710052 0 0)
(1.3316364 0 0)
(1.2899621 0 0)
(1.2458183 0 0)
(1.199031 0 0)
(1.1494112 0 0)
(1.0967489 0 0)
(1.0408159 0 0)
(0.98137026 0 0)
(0.91815795 0 0)
(0.85088978 0 0)
(0.77925163 0 0)
(0.702897 0 0)
(0.62145004 0 0)
(0.53449851 0 0)
(0.44158176 0 0)
(0.3422116 0 0)
(0.23584547 0 0)
(0.12185563 0 0)
(0 0 0)
(1.94063 0 0)
(1.9333673 0 0)
(1.925564 0 0)
(1.9172022 0 0)
(1.9082687 0 0)
(1.8987502 0 0)
(1.8886324 0 0)
(1.8778967 0 0)
(1.8665208 0 0)
(1.8544801 0 0)
(1.8417492 0 0)
(1.8282962 0 0)
(1.8140862 0 0)
(1.7990887 0 0)
(1.7832705 0 0)
(1.766592 0 0)
(1.7490102 0 0)
(1.7304797 0 0)
(1.7109509 0 0)
(1.690369 0 0)
(1.6686769 0 0)
(1.6458122 0 0)
(1.6217064 0 0)
(1.5962876 0 0)
(1.569479 0 0)
(1.5411951 0 0)
(1.5113415 0 0)
(1.4798177 0 0)
(1.4465155 0 0)
(1.4113158 0 0)
(1.3740899 0 0)
(1.3347003 0 0)
(1.2929961 0 0)
(1.2488121 0 0)
(1.2019738 0 0)
(1.1522915 0 0)
(1.0995537 0 0)
(1.0435314 0 0)
(0.98398155 0 0)
(0.92064884 0 0)
(0.8532427 0 0)
(0.78144716 0 0)
(0.704914 0 0)
(0.62326507 0 0)
(0.53608683 0 0)
(0.44291643 0 0)
(0.34326255 0 0)
(0.23658027 0 0)
(0.12223891 0 0)
(0 0 0)
(1.9409408 0 0)
(1.9339333 0 0)
(1.9263741 0 0)
(1.9182442 0 0)
(1.9095302 0 0)
(1.9002196 0 0)
(1.8902992 0 0)
(1.8797497 0 0)
(1.8685463 0 0)
(1.856668 0 0)
(1.8440942 0 0)
(1.830789 0 0)
(1.816713 0 0)
(1.8018394 0 0)
(1.7861378 0 0)
(1.7695674 0 0)
(1.752085 0 0)
(1.7336467 0 0)
(1.7142022 0 0)
(1.6936953 0 0)
(1.6720699 0 0)
(1.6492642 0 0)
(1.6252088 0 0)
(1.5998328 0 0)
(1.5730602 0 0)
(1.5448047 0 0)
(1.5149717 0 0)
(1.4834602 0 0)
(1.4501619 0 0)
(1.4149569 0 0)
(1.3777162 0 0)
(1.3383016 0 0)
(1.2965614 0 0)
(1.2523298 0 0)
(1.2054311 0 0)
(1.1556748 0 0)
(1.102848 0 0)
(1.0467205 0 0)
(0.98704787 0 0)
(0.92357358 0 0)
(0.85600509 0 0)
(0.78402452 0 0)
(0.70728156 0 0)
(0.62539545 0 0)
(0.53795092 0 0)
(0.44448267 0 0)
(0.34449572 0 0)
(0.2374423 0 0)
(0.12268838 0 0)
(0 0 0)
(1.9413042 0 0)
(1.9345879 0 0)
(1.9273077 0 0)
(1.9194427 0 0)
(1.9109786 0 0)
(1.9019061 0 0)
(1.8922143 0 0)
(1.8818809 0 0)
(1.8708787 0 0)
(1.8591877 0 0)
(1.8467888 0 0)
(1.8336481 0 0)
(1.8197267 0 0)
(1.8049969 0 0)
(1.7894287 0 0)
(1.7729817 0 0)
(1.755612 0 0)
(1.7372781 0 0)
(1.7179293 0 0)
(1.6975063 0 0)
(1.6759558 0 0)
(1.6532169 0 0)
(1.6292177 0 0)
(1.6038892 0 0)
(1.5771565 0 0)
(1.5489326 0 0)
(1.5191219 0 0)
(1.4876236 0 0)
(1.4543287 0 0)
(1.4191169 0 0)
(1.3818584 0 0)
(1.3424145 0 0)
(1.3006327 0 0)
(1.2563459 0 0)
(1.2093778 0 0)
(1.1595366 0 0)
(1.1066078 0 0)
(1.0503598 0 0)
(0.9905468 0 0)
(0.92691063 0 0)
(0.85915665 0 0)
(0.78696462 0 0)
(0.70998198 0 0)
(0.62782522 0 0)
(0.54007699 0 0)
(0.44626883 0 0)
(0.34590179 0 0)
(0.23842497 0 0)
(0.12320062 0 0)
(0 0 0)
(1.9417314 0 0)
(1.9353434 0 0)
(1.9283777 0 0)
(1.9208108 0 0)
(1.9126305 0 0)
(1.9038305 0 0)
(1.8943967 0 0)
(1.8843058 0 0)
(1.873532 0 0)
(1.8620515 0 0)
(1.8498445 0 0)
(1.8368861 0 0)
(1.8231404 0 0)
(1.8085735 0 0)
(1.7931553 0 0)
(1.7768454 0 0)
(1.7595984 0 0)
(1.7413766 0 0)
(1.7221311 0 0)
(1.7018018 0 0)
(1.6803366 0 0)
(1.6576711 0 0)
(1.6337317 0 0)
(1.6084537 0 0)
(1.5817637 0 0)
(1.5535731 0 0)
(1.5237857 0 0)
(1.4923003 0 0)
(1.4590076 0 0)
(1.4237863 0 0)
(1.3865062 0 0)
(1.3470279 0 0)
(1.3051979 0 0)
(1.260848 0 0)
(1.2138009 0 0)
(1.1638633 0 0)
(1.1108192 0 0)
(1.0544353 0 0)
(0.99446433 0 0)
(0.93064616 0 0)
(0.86268375 0 0)
(0.7902543 0 0)
(0.71300272 0 0)
(0.63054277 0 0)
(0.54245449 0 0)
(0.44826571 0 0)
(0.34747335 0 0)
(0.239523 0 0)
(0.12377268 0 0)
(0 0 0)
(1.9407632 0 0)
(1.9346847 0 0)
(1.9280196 0 0)
(1.9207446 0 0)
(1.9128509 0 0)
(1.904327 0 0)
(1.8951533 0 0)
(1.8853113 0 0)
(1.874776 0 0)
(1.8635195 0 0)
(1.8515226 0 0)
(1.8387645 0 0)
(1.8252105 0 0)
(1.8108242 0 0)
(1.7955751 0 0)
(1.7794225 0 0)
(1.7623223 0 0)
(1.7442377 0 0)
(1.7251216 0 0)
(1.7049158 0 0)
(1.6835646 0 0)
(1.6609996 0 0)
(1.6371512 0 0)
(1.6119578 0 0)
(1.5853445 0 0)
(1.5572223 0 0)
(1.5274943 0 0)
(1.4960591 0 0)
(1.4628069 0 0)
(1.4276158 0 0)
(1.3903548 0 0)
(1.3508839 0 0)
(1.3090485 0 0)
(1.2646793 0 0)
(1.2175979 0 0)
(1.1676094 0 0)
(1.1144962 0 0)
(1.0580232 0 0)
(0.9979413 0 0)
(0.93398808 0 0)
(0.86586434 0 0)
(0.79324405 0 0)
(0.71576967 0 0)
(0.63305175 0 0)
(0.54466745 0 0)
(0.45014051 0 0)
(0.34896312 0 0)
(0.24057725 0 0)
(0.1243366 0 0)
(0 0 0)
(1.9401536 0 0)
(1.9321809 0 0)
(1.9237007 0 0)
(1.9146963 0 0)
(1.905154 0 0)
(1.8950588 0 0)
(1.8843943 0 0)
(1.8731423 0 0)
(1.8612807 0 0)
(1.8487829 0 0)
(1.8356194 0 0)
(1.8217597 0 0)
(1.8071722 0 0)
(1.7918234 0 0)
(1.7756771 0 0)
(1.7586936 0 0)
(1.7408298 0 0)
(1.7220395 0 0)
(1.7022729 0 0)
(1.6814762 0 0)
(1.6595915 0 0)
(1.6365559 0 0)
(1.6123009 0 0)
(1.5867539 0 0)
(1.5598373 0 0)
(1.531466 0 0)
(1.501547 0 0)
(1.4699809 0 0)
(1.4366599 0 0)
(1.4014664 0 0)
(1.3642738 0 0)
(1.3249457 0 0)
(1.2833328 0 0)
(1.2392729 0 0)
(1.1925939 0 0)
(1.1431085 0 0)
(1.0906087 0 0)
(1.0348687 0 0)
(0.97565008 0 0)
(0.91270029 0 0)
(0.84573358 0 0)
(0.774439 0 0)
(0.69847434 0 0)
(0.61746906 0 0)
(0.53101364 0 0)
(0.43865231 0 0)
(0.33990374 0 0)
(0.234231 0 0)
(0.12101297 0 0)
(0 0 0)
(1.9401013 0 0)
(1.932146 0 0)
(1.9236823 0 0)
(1.9146933 0 0)
(1.9051656 0 0)
(1.8950842 0 0)
(1.884433 0 0)
(1.873194 0 0)
(1.8613454 0 0)
(1.84886 0 0)
(1.8357082 0 0)
(1.8218594 0 0)
(1.807282 0 0)
(1.7919425 0 0)
(1.7758049 0 0)
(1.7588294 0 0)
(1.7409729 0 0)
(1.7221894 0 0)
(1.7024289 0 0)
(1.681638 0 0)
(1.6597585 0 0)
(1.6367275 0 0)
(1.6124766 0 0)
(1.5869331 0 0)
(1.5600194 0 0)
(1.5316506 0 0)
(1.5017335 0 0)
(1.4701686 0 0)
(1.4368483 0 0)
(1.401655 0 0)
(1.3644618 0 0)
(1.3251326 0 0)
(1.283518 0 0)
(1.2394556 0 0)
(1.1927732 0 0)
(1.1432838 0 0)
(1.0907792 0 0)
(1.0350335 0 0)
(0.97580811 0 0)
(0.91285052 0 0)
(0.84587491 0 0)
(0.77457046 0 0)
(0.69859481 0 0)
(0.6175773 0 0)
(0.53110829 0 0)
(0.4387318 0 0)
(0.33996631 0 0)
(0.23427473 0 0)
(0.12103577 0 0)
(0 0 0)
(1.9400529 0 0)
(1.9321552 0 0)
(1.9237462 0 0)
(1.9148092 0 0)
(1.9053307 0 0)
(1.895296 0 0)
(1.8846894 0 0)
(1.8734932 0 0)
(1.8616851 0 0)
(1.8492381 0 0)
(1.8361225 0 0)
(1.8223076 0 0)
(1.8077618 0 0)
(1.7924519 0 0)
(1.7763419 0 0)
(1.7593922 0 0)
(1.7415597 0 0)
(1.7227981 0 0)
(1.703058 0 0)
(1.6822857 0 0)
(1.6604231 0 0)
(1.6374073 0 0)
(1.6131698 0 0)
(1.5876381 0 0)
(1.5607346 0 0)
(1.5323742 0 0)
(1.5024638 0 0)
(1.4709038 0 0)
(1.4375866 0 0)
(1.4023943 0 0)
(1.3652 0 0)
(1.3258674 0 0)
(1.2842471 0 0)
(1.2401764 0 0)
(1.193483 0 0)
(1.1439796 0 0)
(1.0914578 0 0)
(1.0356914 0 0)
(0.97644146 0 0)
(0.91345526 0 0)
(0.84644668 0 0)
(0.77510457 0 0)
(0.69908609 0 0)
(0.61801991 0 0)
(0.53149613 0 0)
(0.43905816 0 0)
(0.34022368 0 0)
(0.23445497 0 0)
(0.12112996 0 0)
(0 0 0)
(1.9400855 0 0)
(1.9322865 0 0)
(1.9239716 0 0)
(1.9151237 0 0)
(1.9057298 0 0)
(1.8957753 0 0)
(1.8852447 0 0)
(1.8741206 0 0)
(1.8623808 0 0)
(1.8499978 0 0)
(1.8369424 0 0)
(1.8231841 0 0)
(1.8086911 0 0)
(1.7934303 0 0)
(1.7773664 0 0)
(1.7604596 0 0)
(1.7426667 0 0)
(1.7239417 0 0)
(1.7042351 0 0)
(1.6834932 0 0)
(1.661658 0 0)
(1.6386666 0 0)
(1.6144507 0 0)
(1.5889376 0 0)
(1.5620499 0 0)
(1.5337024 0 0)
(1.5038019 0 0)
(1.4722485 0 0)
(1.4389347 0 0)
(1.4037424 0 0)
(1.3665443 0 0)
(1.3272039 0 0)
(1.2855717 0 0)
(1.2414846 0 0)
(1.1947699 0 0)
(1.14524 0 0)
(1.092686 0 0)
(1.0368813 0 0)
(0.97758621 0 0)
(0.91454776 0 0)
(0.84747909 0 0)
(0.77606843 0 0)
(0.69997203 0 0)
(0.61881755 0 0)
(0.53219452 0 0)
(0.43964531 0 0)
(0.3406864 0 0)
(0.23477879 0 0)
(0.12129899 0 0)
(0 0 0)
(1.9401959 0 0)
(1.9325362 0 0)
(1.924354 0 0)
(1.9156322 0 0)
(1.9063578 0 0)
(1.8965164 0 0)
(1.8860929 0 0)
(1.8750701 0 0)
(1.8634252 0 0)
(1.8511316 0 0)
(1.8381605 0 0)
(1.8244812 0 0)
(1.8100619 0 0)
(1.7948699 0 0)
(1.7788701 0 0)
(1.7620229 0 0)
(1.7442853 0 0)
(1.7256112 0 0)
(1.7059511 0 0)
(1.6852512 0 0)
(1.6634538 0 0)
(1.640496 0 0)
(1.6163095 0 0)
(1.5908216 0 0)
(1.5639551 0 0)
(1.5356249 0 0)
(1.5057373 0 0)
(1.4741923 0 0)
(1.4408822 0 0)
(1.4056887 0 0)
(1.368484 0 0)
(1.3291315 0 0)
(1.2874813 0 0)
(1.2433699 0 0)
(1.1966238 0 0)
(1.147055 0 0)
(1.094454 0 0)
(1.0385937 0 0)
(0.97923321 0 0)
(0.91611919 0 0)
(0.84896383 0 0)
(0.77745423 0 0)
(0.70124555 0 0)
(0.61996378 0 0)
(0.53319781 0 0)
(0.44048863 0 0)
(0.34135073 0 0)
(0.23524344 0 0)
(0.1215415 0 0)
(0 0 0)
(1.9403793 0 0)
(1.9328988 0 0)
(1.9248874 0 0)
(1.9163281 0 0)
(1.9072074 0 0)
(1.8975116 0 0)
(1.8872258 0 0)
(1.8763325 0 0)
(1.8648092 0 0)
(1.8526299 0 0)
(1.839767 0 0)
(1.8261894 0 0)
(1.8118644 0 0)
(1.7967603 0 0)
(1.7808426 0 0)
(1.7640717 0 0)
(1.7464045 0 0)
(1.7277954 0 0)
(1.7081946 0 0)
(1.6875482 0 0)
(1.6657986 0 0)
(1.6428832 0 0)
(1.6187334 0 0)
(1.5932771 0 0)
(1.5664372 0 0)
(1.5381282 0 0)
(1.5082563 0 0)
(1.4767212 0 0)
(1.443415 0 0)
(1.4082191 0 0)
(1.3710052 0 0)
(1.3316364 0 0)
(1.2899621 0 0)
(1.2458183 0 0)
(1.199031 0 0)
(1.1494112 0 0)
(1.0967489 0 0)
(1.0408159 0 0)
(0.98137026 0 0)
(0.91815795 0 0)
(0.85088978 0 0)
(0.77925163 0 0)
(0.702897 0 0)
(0.62145004 0 0)
(0.53449851 0 0)
(0.44158176 0 0)
(0.3422116 0 0)
(0.23584547 0 0)
(0.12185563 0 0)
(0 0 0)
(1.94063 0 0)
(1.9333673 0 0)
(1.925564 0 0)
(1.9172022 0 0)
(1.9082687 0 0)
(1.8987502 0 0)
(1.8886324 0 0)
(1.8778967 0 0)
(1.8665208 0 0)
(1.8544801 0 0)
(1.8417492 0 0)
(1.8282962 0 0)
(1.8140862 0 0)
(1.7990887 0 0)
(1.7832705 0 0)
(1.766592 0 0)
(1.7490102 0 0)
(1.7304797 0 0)
(1.7109509 0 0)
(1.690369 0 0)
(1.6686769 0 0)
(1.6458122 0 0)
(1.6217064 0 0)
(1.5962876 0 0)
(1.569479 0 0)
(1.5411951 0 0)
(1.5113415 0 0)
(1.4798177 0 0)
(1.4465155 0 0)
(1.4113158 0 0)
(1.3740899 0 0)
(1.3347003 0 0)
(1.2929961 0 0)
(1.2488121 0 0)
(1.2019738 0 0)
(1.1522915 0 0)
(1.0995537 0 0)
(1.0435314 0 0)
(0.98398155 0 0)
(0.92064884 0 0)
(0.8532427 0 0)
(0.78144716 0 0)
(0.704914 0 0)
(0.62326507 0 0)
(0.53608683 0 0)
(0.44291643 0 0)
(0.34326255 0 0)
(0.23658027 0 0)
(0.12223891 0 0)
(0 0 0)
(1.9409408 0 0)
(1.9339333 0 0)
(1.9263741 0 0)
(1.9182442 0 0)
(1.9095302 0 0)
(1.9002196 0 0)
(1.8902992 0 0)
(1.8797497 0 0)
(1.8685463 0 0)
(1.856668 0 0)
(1.8440942 0 0)
(1.830789 0 0)
(1.816713 0 0)
(1.8018394 0 0)
(1.7861378 0 0)
(1.7695674 0 0)
(1.752085 0 0)
(1.7336467 0 0)
(1.7142022 0 0)
(1.6936953 0 0)
(1.6720699 0 0)
(1.6492642 0 0)
(1.6252088 0 0)
(1.5998328 0 0)
(1.5730602 0 0)
(1.5448047 0 0)
(1.5149717 0 0)
(1.4834602 0 0)
(1.4501619 0 0)
(1.4149569 0 0)
(1.3777162 0 0)
(1.3383016 0 0)
(1.2965614 0 0)
(1.2523298 0 0)
(1.2054311 0 0)
(1.1556748 0 0)
(1.102848 0 0)
(1.0467205 0 0)
(0.98704787 0 0)
(0.92357358 0 0)
(0.85600509 0 0)
(0.78402452 0 0)
(0.70728156 0 0)
(0.62539545 0 0)
(0.53795092 0 0)