/*--------------------------------*- C++ -*----------------------------------*\
| =========                 |                                                 |
| \\      /  F ield         | OpenFOAM: The Open Source CFD Toolbox           |
|  \\    /   O peration     | Version:  v2012                                 |
|   \\  /    A nd           | Website:  www.openfoam.com                      |
|    \\/     M anipulation  |                                                 |
\*---------------------------------------------------------------------------*/
FoamFile
{
    version     2.0;
    format      ascii;
    class       volVectorField;
    location    "31.4558248775613549";
    object      U;
}
// * * * * * * * * * * * * * * * * * * * * * * * * * * * * * * * * * * * * * //

dimensions      [0 1 -1 0 0 0 0];


internalField   nonuniform List<vector> 
9200
(
(2.6404098 0.017416066 -7.3163942e-21)
(2.6366453 0.060651838 8.2637192e-21)
(2.5922203 0.014354317 -8.5496852e-22)
(2.629438 0.098986021 -3.4031945e-21)
(2.5853232 0.049273309 -3.7576988e-22)
(2.5757147 0.012221409 5.3146483e-21)
(2.6178876 0.14209408 4.1437259e-21)
(2.5744166 0.078461631 -3.150061e-22)
(2.5689104 0.042075463 -8.9027419e-21)
(2.5551234 0.0099549093 1.9734178e-21)
(2.6002206 0.18703562 -4.0398723e-21)
(2.5561925 0.10939888 1.9490598e-21)
(2.5582277 0.066318904 2.3162997e-21)
(2.5481367 0.034217344 -4.2680007e-21)
(2.5411216 0.0079199276 -1.1817578e-21)
(2.5747347 0.23599208 -1.1354685e-20)
(2.5313941 0.13790675 -2.5218387e-21)
(2.5414641 0.091351033 -5.2708606e-21)
(2.5374706 0.053078905 7.6679841e-22)
(2.53455 0.027199898 2.0162106e-21)
(2.5299234 0.0061268333 -3.5961467e-21)
(2.5391545 0.28769948 -7.3112089e-21)
(2.4985121 0.16459102 -5.9689631e-21)
(2.5194382 0.11329811 -5.2727356e-22)
(2.5209585 0.071731081 2.6113308e-21)
(2.5247026 0.0415826 8.3980319e-22)
(2.5238531 0.020982478 -2.6655643e-21)
(2.5218553 0.0046042389 1.9116073e-22)
(2.4890712 0.34195681 -3.8562578e-21)
(2.4568208 0.18720247 -8.255862e-22)
(2.4915625 0.13276541 -6.7415271e-22)
(2.49989 0.086703232 1.4860554e-21)
(2.5097797 0.05522837 1.1185928e-21)
(2.5149341 0.03156868 -1.2745554e-21)
(2.5163904 0.015659241 4.2326389e-22)
(2.5160931 0.0033332348 -3.9694494e-21)
(2.4167616 0.39284867 1.5846052e-20)
(2.4068243 0.20382383 9.3425535e-21)
(2.4581032 0.14775443 5.9103667e-21)
(2.4740594 0.098384834 -3.0929248e-21)
(2.4912917 0.065210713 -4.5560788e-21)
(2.5016064 0.041089174 -2.073468e-21)
(2.5085095 0.023136327 2.6293395e-21)
(2.5112423 0.01117182 3.0972017e-21)
(2.5122315 0.0022748681 2.4585569e-21)
(2.31773 0.42401742 -1.2894794e-20)
(2.3520095 0.21253917 3.6036732e-21)
(2.418926 0.15660078 3.805548e-21)
(2.4441499 0.10530401 -1.0184302e-21)
(2.4693501 0.071830149 -1.7408838e-21)
(2.485458 0.047190999 1.2659889e-21)
(2.4968658 0.029387996 2.622918e-21)
(2.5043582 0.016128462 -1.708276e-23)
(2.507981 0.0074317071 -1.625322e-21)
(2.5098515 0.0013777045 3.0436478e-21)
(2.1945474 0.43063546 -6.388675e-21)
(2.2952845 0.21143715 -1.096702e-20)
(2.3736925 0.15710298 -4.9134431e-21)
(2.411046 0.10666272 -3.0933032e-21)
(2.4448694 0.073993687 1.2345167e-21)
(2.4667432 0.050106501 1.3427681e-21)
(2.4830389 0.032621078 -2.0872058e-21)
(2.4942759 0.019799029 -1.0217623e-21)
(2.5020137 0.010361047 -4.2212149e-21)
(2.5061623 0.0043273052 1.5473721e-21)
(2.5086626 0.00059935979 -3.5006098e-21)
(2.0586046 0.40826799 9.1190795e-23)
(2.2377942 0.19560676 -4.2789792e-21)
(2.3238185 0.14734053 -3.8413044e-21)
(2.376444 0.10137739 -1.2633819e-21)
(2.4186783 0.071158541 2.072259e-21)
(2.4464389 0.049150296 4.3775311e-22)
(2.4673493 0.032988337 -1.0045628e-21)
(2.4824966 0.020903524 -9.399594e-22)
(2.4933423 0.012005283 -2.4348465e-21)
(2.5010076 0.0056221423 -7.7428319e-22)
(2.50545 0.0017478053 -1.2219648e-21)
(2.5084216 -5.5706341e-05 -1.0182789e-21)
(1.9275083 0.35675031 3.0737399e-21)
(2.1813593 0.1619635 6.9387574e-21)
(2.2735382 0.12647474 -3.5690846e-21)
(2.3420879 0.088617595 -4.678151e-21)
(2.3918821 0.062829495 3.0703836e-21)
(2.4254009 0.044096524 2.7134453e-21)
(2.4507401 0.030109488 2.0767822e-21)
(2.4693518 0.019505516 3.0330855e-21)
(2.4833429 0.011536235 2.7979471e-21)
(2.493569 0.0056708725 5.9356999e-22)
(2.5010223 0.0017107062 -1.2446627e-21)
(2.5055798 -0.0004156016 -2.9643332e-21)
(2.5088949 -0.00055426248 6.3976424e-21)
(1.8169952 0.28270564 1.0375445e-21)
(2.1286889 0.10920156 -5.852317e-21)
(2.2275151 0.095043218 2.7904704e-21)
(2.3094813 0.068132277 3.9111143e-22)
(2.3657705 0.048943218 -7.1638744e-22)
(2.4047176 0.034821959 5.5031747e-23)
(2.4339664 0.023908195 1.6981381e-21)
(2.4557027 0.015469183 1.1957775e-21)
(2.4723342 0.0089227877 5.5764142e-22)
(2.4850793 0.0040266488 1.9791002e-22)
(2.4946384 0.00049209718 -1.9202172e-21)
(2.50181 -0.0015458305 1.1988878e-22)
(2.5063983 -0.002258609 4.0118689e-21)
(2.5099331 -0.00096239079 -2.7978683e-21)
(1.7449104 0.19343406 -3.7135954e-21)
(2.0843303 0.038033809 -1.1885045e-20)
(2.1889867 0.054022842 -4.8162006e-22)
(2.2805718 0.040709097 6.9381303e-21)
(2.3418809 0.029788188 2.5283394e-22)
(2.3854519 0.021489398 -1.5020107e-21)
(2.417905 0.014493807 8.1807063e-22)
(2.4422007 0.0088141233 5.9065139e-22)
(2.4610733 0.0042130475 -1.2928084e-22)
(2.4758266 0.00056652823 -1.6778257e-22)
(2.4874202 -0.0020463165 -3.1184868e-21)
(2.4963192 -0.0037965843 1.2059483e-21)
(2.503179 -0.0042869916 3.782596e-21)
(2.5077791 -0.0038423314 2.6880296e-21)
(2.5114312 -0.0013714078 -6.9706857e-21)
(1.7050962 0.097826622 0)
(2.0533292 -0.039654476 -9.0516679e-22)
(2.1592891 0.0057597465 -4.03046e-21)
(2.2571796 0.0079400981 -3.6206212e-22)
(2.3215424 0.0061006596 2.2420347e-21)
(2.3685951 0.0045809104 -1.6768072e-21)
(2.4033465 0.0021783911 -4.829455e-22)
(2.4295615 -0.00021130034 7.2882072e-22)
(2.4500962 -0.0025392506 3.4261263e-22)
(2.4664546 -0.0045353324 -3.5649631e-22)
(2.4796029 -0.0061187562 5.6555775e-22)
(2.4901618 -0.0070352295 6.0612633e-22)
(2.4984567 -0.0074083869 3.3281524e-21)
(2.5049971 -0.0066361091 -2.2357064e-22)
(2.5095817 -0.0052121509 2.4242251e-21)
(2.5133061 -0.0017310081 5.6964267e-21)
(1.6917019 0.00028800502 0)
(2.0381952 -0.1200141 4.9562367e-21)
(2.1393175 -0.047856392 1.3608084e-21)
(2.240303 -0.028735707 -1.9777566e-22)
(2.3055989 -0.021146687 2.5421685e-22)
(2.3548818 -0.015301231 3.3502458e-22)
(2.3909935 -0.012578 -1.5102705e-21)
(2.4183734 -0.011284003 -1.7399343e-21)
(2.4399548 -0.01102893 5.9080246e-23)
(2.4573981 -0.011226228 -6.976846e-22)
(2.4717307 -0.011460459 -1.9161907e-22)
(2.4835196 -0.011572462 9.6000651e-22)
(2.4931795 -0.011213065 1.4461838e-21)
(2.5009374 -0.010498415 -9.4408408e-22)
(2.5071754 -0.0086783729 6.852076e-21)
(2.5117091 -0.0064069631 -4.984368e-21)
(2.5154747 -0.0020280302 9.6614554e-22)
(1.7053814 -0.095996903 4.5415779e-21)
(2.0389949 -0.19794604 5.1526195e-21)
(2.1298521 -0.10294502 -8.8824102e-22)
(2.2301933 -0.067546552 -2.4378009e-22)
(2.294556 -0.050639937 -5.4311471e-22)
(2.3447907 -0.03739389 1.4079886e-21)
(2.3813519 -0.029182542 -9.2188691e-22)
(2.4091246 -0.02393649 -1.0790261e-22)
(2.43108 -0.020917615 -5.9310974e-22)
(2.4490786 -0.019167339 -1.2780798e-21)
(2.4641569 -0.018035061 -1.0838769e-21)
(2.4768512 -0.017072543 4.1217495e-22)
(2.4875062 -0.016123407 -7.8848869e-22)
(2.4963941 -0.014784816 -1.0059869e-21)
(2.5036782 -0.013180515 -1.1579584e-21)
(2.5096389 -0.010466378 5.2584996e-22)
(2.5140972 -0.007451582 8.6733518e-22)
(2.517869 -0.0022805562 -2.386523e-21)
(1.7464578 -0.18657268 -3.7567712e-22)
(2.0531557 -0.270325 -7.5186514e-24)
(2.1295824 -0.15611101 4.0134784e-21)
(2.226504 -0.10649566 1.9182036e-21)
(2.2886103 -0.080977086 7.6124656e-22)
(2.338583 -0.0607646 -9.3855815e-23)
(2.3748218 -0.046943275 2.2518092e-22)
(2.4021792 -0.037612296 2.5182676e-22)
(2.4238236 -0.031740091 2.4630239e-22)
(2.4418077 -0.028041753 1.1316336e-22)
(2.4571949 -0.025508568 -5.4238145e-22)
(2.4704433 -0.023536729 1.7342735e-21)
(2.4818136 -0.021747902 1.1863427e-21)
(2.4915203 -0.020012138 -6.9723302e-22)
(2.4997527 -0.01789384 9.8530855e-22)
(2.5066212 -0.015533441 -1.1760229e-21)
(2.5123262 -0.012035494 -6.6069325e-21)
(2.5166903 -0.0083615608 1.6422947e-21)
(2.520433 -0.0024978183 5.9779686e-24)
(1.8101205 -0.2669683 1.8629882e-21)
(2.0768915 -0.33421189 -2.2363549e-20)
(2.1371545 -0.204986 4.081975e-21)
(2.2283648 -0.14410796 5.3549623e-22)
(2.287333 -0.111113 3.3583381e-21)
(2.3362063 -0.084617461 5.0906141e-22)
(2.3715237 -0.065226789 -1.4030298e-22)
(2.3977622 -0.051750339 -1.7045774e-22)
(2.4184088 -0.043005768 3.1212216e-23)
(2.4357966 -0.03743064 1.4431277e-25)
(2.451052 -0.033613474 7.7640645e-22)
(2.4645258 -0.030655402 1.4037517e-21)
(2.4763414 -0.028129121 -8.2088498e-23)
(2.4866258 -0.02575033 -1.7657827e-21)
(2.4955406 -0.02340599 -1.8340778e-23)
(2.5032195 -0.020636187 1.0963981e-21)
(2.5097234 -0.017608842 2.5154558e-21)
(2.5151872 -0.013409986 -1.3657754e-21)
(2.5194379 -0.0091481987 -2.0911629e-21)
(2.5231178 -0.0026813965 1.5249518e-21)
(1.888752 -0.3334188 7.3092397e-22)
(2.1065013 -0.38779237 3.4869573e-21)
(2.1509368 -0.24808408 -1.3463011e-20)
(2.2346599 -0.17929475 -1.6187299e-21)
(2.2900005 -0.14026981 -1.2440445e-21)
(2.3373954 -0.10828968 -1.3229053e-21)
(2.3714063 -0.083506917 -1.4160188e-21)
(2.3959586 -0.065827596 -4.0885076e-22)
(2.414953 -0.054223644 -5.8509985e-23)
(2.4311512 -0.046904382 1.5812454e-22)
(2.4458372 -0.041990571 -4.0038312e-22)
(2.4592352 -0.038221613 -4.077459e-22)
(2.4712665 -0.034991183 -1.718649e-22)
(2.4819188 -0.032077066 -9.1698926e-22)
(2.4913014 -0.029258785 -1.1234026e-21)
(2.4995571 -0.026416883 1.6294449e-21)
(2.5067701 -0.023074369 -1.2981917e-21)
(2.5129505 -0.019440007 1.054439e-21)
(2.5181793 -0.014606053 1.0107289e-22)
(2.5222964 -0.0098197854 5.7492552e-21)
(2.5258811 -0.0028335518 1.5141193e-21)
(1.9662464 -0.38672843 7.0620347e-21)
(2.1394119 -0.42990389 3.9149515e-20)
(2.1691449 -0.28477345 8.9129041e-21)
(2.2441295 -0.21136509 -4.6720302e-21)
(2.2957569 -0.16792288 -2.8424494e-22)
(2.3417243 -0.13131945 -4.4075877e-21)
(2.3743075 -0.10138277 1.1032694e-21)
(2.3967776 -0.079389393 7.280187e-22)
(2.4134887 -0.064921639 -3.2806324e-22)
(2.4278912 -0.056027988 6.2106469e-22)
(2.4415621 -0.050287763 3.0757433e-22)
(2.4546129 -0.045953026 -6.8659014e-23)
(2.4666852 -0.04219145 -3.0578567e-22)
(2.4775473 -0.038749808 -2.8539793e-21)
(2.487222 -0.035554918 2.5947252e-21)
(2.4958539 -0.032392821 6.5897496e-22)
(2.5035668 -0.029117903 -1.5237535e-22)
(2.5103871 -0.02524834 8.8819938e-23)
(2.5162741 -0.021048554 -1.2877388e-21)
(2.5212659 -0.015635155 1.3321371e-21)
(2.5252272 -0.010382774 -1.7191027e-21)
(2.5286859 -0.0029563899 -1.6131357e-21)
(2.0448374 -0.42958056 -1.092653e-21)
(2.1788208 -0.46104935 2.5287115e-20)
(2.1897545 -0.31505584 1.426719e-20)
(2.2555066 -0.23991547 2.4894551e-21)
(2.3037331 -0.19379034 -8.9541754e-21)
(2.3486568 -0.15347728 1.8362764e-21)
(2.3799947 -0.11860448 -2.5088215e-21)
(2.4001601 -0.092102032 3.6595239e-22)
(2.4140031 -0.074673894 -1.6641849e-22)
(2.4259695 -0.064369588 1.4432458e-22)
(2.4381526 -0.058147094 -6.5905518e-23)
(2.4506043 -0.053592841 3.4923933e-23)
(2.4626064 -0.049530497 -2.2182006e-23)
(2.4735959 -0.045683382 6.184693e-22)
(2.4834403 -0.04207629 2.0265453e-21)
(2.4922818 -0.038680165 -2.9329672e-22)
(2.5002985 -0.03523252 1.2160134e-22)
(2.5075717 -0.031556163 8.3073914e-22)
(2.5140579 -0.027183435 1.3161261e-21)
(2.5196692 -0.022448916 -2.2713009e-21)
(2.5244146 -0.016506131 1.5418702e-21)
(2.5281963 -0.010842761 -3.9002607e-22)
(2.5315002 -0.0030516494 2.9557364e-21)
(2.1257254 -0.46053426 2.008252e-20)
(2.2194991 -0.48144604 -5.1713077e-21)
(2.2099182 -0.339039 9.5251775e-21)
(2.2677092 -0.2648358 5.6117755e-21)
(2.313103 -0.2178133 -1.0379984e-20)
(2.3576475 -0.17470814 1.6061834e-21)
(2.3881938 -0.13506348 -2.3594473e-22)
(2.4060184 -0.10375893 7.3495077e-22)
(2.4164408 -0.083146527 1.0717664e-21)
(2.4252954 -0.07154066 -9.9768654e-22)
(2.4354715 -0.065210847 9.0637806e-22)
(2.4470713 -0.060884975 5.9623902e-22)
(2.4589507 -0.056853092 5.6285328e-22)
(2.4700752 -0.05275255 -2.1810803e-21)
(2.4800499 -0.048778846 -1.0758763e-22)
(2.4889782 -0.045071075 2.3188446e-21)
(2.4971233 -0.041536683 2.4990643e-22)
(2.504654 -0.037832329 1.0462734e-21)
(2.5115774 -0.033761736 -1.1393634e-22)
(2.5177723 -0.028895682 -2.2409755e-21)
(2.5231138 -0.023651219 -2.2513509e-21)
(2.5275964 -0.01722634 3.3446637e-21)
(2.5311736 -0.011205003 -1.8913885e-22)
(2.5342963 -0.0031211368 -2.9896367e-22)
(2.2050545 -0.48103348 -5.4784452e-21)
(2.2553891 -0.49602688 3.3777679e-21)
(2.2286194 -0.35661521 -2.6491778e-21)
(2.2799774 -0.28627108 -8.4438386e-21)
(2.3230999 -0.24008836 9.7379259e-21)
(2.3681638 -0.19511664 -1.3003764e-20)
(2.3986609 -0.1508218 6.6195132e-21)
(2.414304 -0.1141729 -2.4348771e-21)
(2.4207605 -0.090032431 -2.2967323e-22)
(2.4257416 -0.077193968 3.7348605e-23)
(2.4333223 -0.071161429 -1.8941434e-22)
(2.4438032 -0.067588114 0)
(2.4555593 -0.064021498 0)
(2.4669222 -0.059893996 3.7273513e-22)
(2.47709 -0.055590839 -1.7207017e-22)
(2.4860578 -0.051540722 1.0559073e-22)
(2.4941796 -0.047817494 -1.937671e-21)
(2.5017756 -0.044188564 -1.3721308e-22)
(2.5089444 -0.040229418 6.8775133e-23)
(2.5155918 -0.035753149 -2.5555243e-21)
(2.5215216 -0.030395044 1.4164448e-22)
(2.5265872 -0.024663026 1.457331e-21)
(2.5307853 -0.017802427 -1.7442603e-21)
(2.5341328 -0.011474763 -4.7748948e-21)
(2.5370504 -0.0031666591 -4.5239832e-21)
(2.2779073 -0.49329083 -1.0330178e-20)
(2.2839292 -0.50107702 -5.0328551e-21)
(2.2454452 -0.36831912 -4.8952496e-20)
(2.2914006 -0.30479114 -1.3080126e-20)
(2.3330449 -0.26082002 -1.2910233e-20)
(2.3796992 -0.21490586 1.9347626e-21)
(2.4111831 -0.16601177 8.6657597e-21)
(2.4249467 -0.12344205 -3.8813338e-21)
(2.4270527 -0.095049737 -7.199588e-21)
(2.4272383 -0.080857398 0)
(2.4314914 -0.075634224 -1.5368111e-21)
(2.4405218 -0.073481176 1.2467658e-21)
(2.4521964 -0.070931399 -9.4326893e-23)
(2.4640042 -0.067081606 2.2856306e-21)
(2.4745463 -0.062516976 -2.2830147e-21)
(2.483603 -0.058042736 2.2981081e-21)
(2.4916044 -0.05404625 -1.6358125e-21)
(2.4990697 -0.050393872 2.2909383e-21)
(2.506277 -0.046685911 -2.5180464e-21)
(2.5131977 -0.042447843 0)
(2.5196235 -0.037540505 -2.2275123e-23)
(2.5252969 -0.031687426 4.6868342e-22)
(2.53007 -0.025490481 2.4766571e-21)
(2.533958 -0.01824084 -1.3673577e-21)
(2.5370507 -0.011657481 1.1401256e-21)
(2.5397426 -0.0031900056 -3.7990618e-24)
(2.34366 -0.49827226 2.2369028e-20)
(2.3060283 -0.49838209 8.7069522e-21)
(2.2598828 -0.37559792 -1.7403837e-20)
(2.3011905 -0.32088578 2.0843121e-21)
(2.34245 -0.28021707 -8.7672064e-21)
(2.3918057 -0.23433503 2.2455117e-20)
(2.4255491 -0.18088963 -1.0185618e-21)
(2.4379253 -0.13151719 5.023323e-21)
(2.4352651 -0.098165007 5.1408888e-22)
(2.4297028 -0.082542387 -2.8116953e-24)
(2.4297843 -0.078290335 0)
(2.4369295 -0.078298379 -1.7065656e-22)
(2.4485627 -0.077497529 5.1565184e-23)
(2.4611197 -0.074337775 -7.3463123e-22)
(2.472352 -0.069615044 -3.1072751e-22)
(2.4816671 -0.064615608 8.6984759e-22)
(2.4895247 -0.06017169 3.2226076e-22)
(2.4966875 -0.056395705 -1.4814997e-21)
(2.5036934 -0.052873797 8.3667978e-22)
(2.5106766 -0.049065428 1.4778642e-21)
(2.517444 -0.044500306 -1.6100474e-21)
(2.5236799 -0.039127391 1.8458218e-23)
(2.5290883 -0.032776085 1.9458786e-21)
(2.5335433 -0.026139142 3.8084871e-21)
(2.5370932 -0.018548151 4.1548354e-21)
(2.5399074 -0.011758772 2.0559065e-21)
(2.5423564 -0.0031929012 -2.4442745e-21)
(2.4019038 -0.49588119 2.5408558e-20)
(2.3240277 -0.490012 -3.3810537e-20)
(2.2717614 -0.37987839 2.5712928e-20)
(2.3087903 -0.3349179 4.8424378e-21)
(2.3509826 -0.29851083 1.6052916e-20)
(2.4040868 -0.25368767 -1.1683473e-21)
(2.4415814 -0.19575796 -1.2873212e-20)
(2.4532872 -0.13855313 4.9610507e-21)
(2.4453646 -0.099215256 9.7001932e-21)
(2.4330607 -0.081472842 3.5233961e-22)
(2.4277956 -0.079107317 -8.1010957e-24)
(2.4326555 -0.081979063 -3.0605487e-22)
(2.4443124 -0.083658496 1.7958547e-21)
(2.4580114 -0.081722956 -1.4294835e-21)
(2.470389 -0.077005601 2.1411567e-22)
(2.4802751 -0.071360293 -3.6079326e-23)
(2.4880651 -0.066227699 1.7509786e-21)
(2.4947904 -0.062111073 -1.495697e-21)
(2.5013437 -0.058703219 1.5221591e-21)
(2.5081192 -0.055319624 -3.0279853e-21)
(2.515031 -0.051348828 -8.9175139e-22)
(2.5217126 -0.046389173 -6.9071466e-22)
(2.5277652 -0.040512455 -1.7530805e-21)
(2.5328846 -0.033662834 -3.4751935e-22)
(2.536989 -0.026614583 -3.3789136e-21)
(2.5401719 -0.018731218 -4.5704322e-21)
(2.542686 -0.011784361 3.8098486e-21)
(2.544878 -0.0031769983 1.4323793e-22)
(2.4522448 -0.48924344 3.8895456e-20)
(2.339602 -0.47734003 -1.9645819e-20)
(2.2817737 -0.38169092 1.3752617e-20)
(2.3137666 -0.34717592 7.2910895e-22)
(2.3582216 -0.3159958 2.5804122e-20)
(2.4161944 -0.27321174 -1.8793186e-20)
(2.4591313 -0.21096411 1.1658763e-20)
(2.4710764 -0.14470295 5.8467989e-21)
(2.457498 -0.098079259 2.9155431e-21)
(2.4372718 -0.077741247 -2.3543107e-22)
(2.4254024 -0.077065236 0)
(2.4272947 -0.083843131 -1.2072364e-22)
(2.4390208 -0.089396081 -1.2418111e-22)
(2.4543639 -0.089343759 3.2674557e-21)
(2.4684922 -0.084867996 -3.7176996e-22)
(2.4794234 -0.078452107 2.4908006e-22)
(2.4873487 -0.072311737 9.4901948e-22)
(2.4935615 -0.06753383 -3.1377714e-22)
(2.4994042 -0.064040556 -1.9506956e-21)
(2.5056569 -0.061077879 2.6128687e-21)
(2.5124352 -0.057774195 -6.58862e-22)
(2.5193984 -0.053541504 3.1323884e-22)
(2.5260281 -0.048107805 1.5769841e-21)
(2.5318797 -0.04169101 1.0821502e-21)
(2.5366726 -0.03434905 -1.6458743e-21)
(2.5403894 -0.026922795 -1.4725129e-21)
(2.5431771 -0.01879721 -1.6891991e-21)
(2.5453722 -0.01173999 -3.5267917e-22)
(2.5472968 -0.0031438813 -3.5681828e-22)
(2.4954057 -0.47729233 -6.0981108e-20)
(2.3505653 -0.46133776 6.6234993e-20)
(2.2922796 -0.3813574 3.7934865e-22)
(2.3158674 -0.35829595 -1.6163227e-20)
(2.3635159 -0.33301268 6.6335464e-21)
(2.427827 -0.29317905 1.4295222e-21)
(2.4780606 -0.22685924 1.4792814e-20)
(2.4913534 -0.15015349 -3.4944219e-21)
(2.471788 -0.094713798 -1.5100058e-22)
(2.4423338 -0.070964526 2.9121049e-21)
(2.4225396 -0.07243604 -4.3696334e-22)
(2.4205192 -0.084540622 -7.5599124e-22)
(2.4323567 -0.094591525 -1.9860358e-21)
(2.4498259 -0.097314523 6.1668465e-22)
(2.4664481 -0.093432487 -2.9223568e-22)
(2.4790785 -0.08613889 2.170315e-21)
(2.4874966 -0.078599414 -9.1598647e-22)
(2.4932076 -0.072713258 3.0562913e-21)
(2.4980911 -0.068813747 2.350471e-22)
(2.5034563 -0.066147539 -1.0945769e-21)
(2.5097519 -0.063603713 -1.5169289e-22)
(2.5167387 -0.060254807 3.4844995e-21)
(2.5238328 -0.05563292 -1.1843397e-21)
(2.5304082 -0.049642585 7.7513204e-22)
(2.5360184 -0.042656653 1.5992179e-21)
(2.5404372 -0.034836453 5.0006117e-21)
(2.5437276 -0.027070375 1.8493095e-21)
(2.5460938 -0.018753545 -1.7516727e-21)
(2.5479545 -0.011631357 -4.7764341e-21)
(2.5496045 -0.0030951002 1.8646922e-22)
(2.5367734 -0.46031256 -1.4268383e-19)
(2.354615 -0.44505115 -4.6769962e-20)
(2.3037898 -0.37942831 2.9823016e-22)
(2.314922 -0.3678984 6.4566166e-20)
(2.3665283 -0.34977517 -4.390403e-20)
(2.4387101 -0.31372872 -1.3876661e-20)
(2.4982435 -0.24384071 -9.255036e-21)
(2.5141763 -0.15510664 -1.0885024e-20)
(2.4883317 -0.089115746 2.1065217e-20)
(2.44829 -0.060997247 3.7271162e-21)
(2.4189149 -0.064777083 1.3823634e-21)
(2.4119878 -0.083149427 4.6172937e-22)
(2.4238519 -0.09934548 6.3033484e-22)
(2.4440329 -0.10579859 -2.6137732e-21)
(2.4640125 -0.10296484 -5.1821493e-23)
(2.4791761 -0.094731882 -3.5155085e-21)
(2.4886256 -0.085344659 4.7603281e-22)
(2.4939607 -0.077769724 -5.1978123e-23)
(2.4976641 -0.07299001 -2.8929861e-24)
(2.5017348 -0.070378242 -2.837378e-22)
(2.507114 -0.068587819 1.0170259e-21)
(2.5137781 -0.066325199 -1.9344216e-21)
(2.5211253 -0.062751447 8.472555e-22)
(2.5283782 -0.057598975 -1.4998567e-21)
(2.5348614 -0.050975402 -1.8986727e-21)
(2.5401715 -0.043402713 -9.5007895e-22)
(2.5441622 -0.035127631 -5.7039376e-21)
(2.5469874 -0.027064564 3.5769238e-22)
(2.5489093 -0.018607806 -2.1835662e-21)
(2.5504235 -0.01146408 -4.5019129e-21)
(2.551795 -0.0030321804 2.8369215e-21)
(2.577225 -0.43670948 2.4373455e-21)
(2.3566116 -0.42716333 2.0877933e-20)
(2.3106735 -0.37581228 6.5639145e-22)
(2.3121355 -0.37570133 1.9073621e-20)
(2.367367 -0.36657263 1.7318156e-20)
(2.4488774 -0.33520437 -1.0219132e-20)
(2.5193157 -0.26206871 3.6778298e-20)
(2.5395765 -0.15976249 -6.122601e-21)
(2.5072014 -0.081264087 -3.2261263e-21)
(2.4551463 -0.047659188 -5.9543799e-21)
(2.4143378 -0.053759371 4.4474003e-22)
(2.4013103 -0.079671726 3.2081139e-22)
(2.413 -0.10352304 2.7293895e-21)
(2.4365755 -0.11490121 -6.5619852e-22)
(2.4608978 -0.11375545 -4.4303766e-21)
(2.4796197 -0.10459618 2.3705351e-22)
(2.4908447 -0.092875843 2.3606136e-22)
(2.4960761 -0.082896801 6.7280397e-22)
(2.498429 -0.076590805 3.5874082e-22)
(2.5007647 -0.073638284 -1.6886071e-21)
(2.5047084 -0.072499404 -3.2356536e-21)
(2.5105955 -0.071456934 3.0389038e-23)
(2.5178895 -0.069241527 -1.0319056e-21)
(2.5256782 -0.0652294 -1.8202453e-21)
(2.5330649 -0.059405758 1.718298e-21)
(2.539387 -0.052086179 3.1547968e-21)
(2.5443243 -0.0439234 3.1671907e-21)
(2.54783 -0.035226334 -2.7759931e-21)
(2.5501538 -0.026913222 3.6055398e-21)
(2.5516126 -0.018367676 -1.9763736e-21)
(2.5527722 -0.011243688 -1.2961302e-21)
(2.5538641 -0.0029566262 -3.4057271e-21)
(2.6094155 -0.40690298 3.7474752e-20)
(2.3557938 -0.40479293 -5.7499661e-20)
(2.3099118 -0.37056586 1.3245296e-20)
(2.3113417 -0.38214696 -4.3858227e-20)
(2.3662322 -0.38326218 2.597619e-20)
(2.457767 -0.3570299 1.143031e-20)
(2.5396904 -0.28153429 -2.6986529e-20)
(2.5659974 -0.16415628 2.3588962e-20)
(2.5282465 -0.071140943 -3.252929e-20)
(2.4628988 -0.030765562 -4.5480404e-21)
(2.4086326 -0.039120497 -1.9741776e-21)
(2.3881066 -0.073894573 -3.819112e-22)
(2.3994372 -0.10714077 -1.0932207e-21)
(2.4270446 -0.1247969 -4.6061536e-22)
(2.4567946 -0.12609514 -7.9532714e-22)
(2.4802776 -0.11612946 1.8839921e-21)
(2.494248 -0.10158737 -6.7085462e-21)
(2.4998285 -0.08836074 1.6823842e-21)
(2.5007374 -0.079694405 5.0007564e-21)
(2.5008756 -0.07582803 -9.7408239e-22)
(2.5027793 -0.075109151 6.4587588e-23)
(2.5073213 -0.075358995 -3.1969383e-21)
(2.5141369 -0.074777558 -7.0794322e-23)
(2.5222268 -0.072309269 3.1043819e-21)
(2.5304608 -0.067634885 -7.5602345e-22)
(2.5379072 -0.061013807 -3.6874492e-23)
(2.5439747 -0.052955124 1.5530096e-21)
(2.5484585 -0.044214651 -1.5871206e-22)
(2.5514229 -0.035137641 2.8616025e-21)
(2.5532132 -0.02662479 -7.0505146e-21)
(2.5541946 -0.018040893 4.3159557e-22)
(2.5549953 -0.010975596 6.4142513e-21)
(2.5558095 -0.0028698938 -3.4526474e-21)
(2.6293916 -0.37133936 -5.1714916e-21)
(2.3498122 -0.37807852 2.5377956e-20)
(2.3040661 -0.36419817 3.0382885e-20)
(2.3090047 -0.38766691 -1.3095343e-20)
(2.3653387 -0.40000384 -5.0840371e-20)
(2.4649813 -0.37917564 -2.4581388e-20)
(2.5569684 -0.30083763 -1.1375597e-19)
(2.5885141 -0.16819237 1.4446103e-20)
(2.5493824 -0.058617117 -2.0948801e-20)
(2.4710804 -0.010194917 4.4348067e-22)
(2.4016358 -0.020562766 -4.4790847e-23)
(2.3720311 -0.065614639 -7.3123357e-23)
(2.3827658 -0.11020362 -1.434725e-21)
(2.4150736 -0.13562476 2.9910222e-21)
(2.4513894 -0.14026792 5.626281e-21)
(2.4809807 -0.12975401 -6.1477834e-21)
(2.4989089 -0.11193208 6.5324299e-21)
(2.5055064 -0.094495618 5.1851693e-21)
(2.5049829 -0.082435287 -2.3628162e-21)
(2.5024546 -0.076881767 5.8960268e-22)
(2.50163 -0.076197766 -2.3102972e-21)
(2.5041382 -0.077720347 1.4342934e-21)
(2.5099225 -0.07902455 1.4561265e-21)
(2.5179605 -0.078502071 8.2911336e-23)
(2.5269033 -0.075450876 7.8408093e-22)
(2.5355126 -0.069902019 -3.9496705e-24)
(2.5429036 -0.062382166 1.0301676e-21)
(2.548606 -0.053564543 -2.7530318e-21)
(2.5525527 -0.044274719 -3.0270012e-21)
(2.5549232 -0.034868063 4.2289245e-21)
(2.5561533 -0.02620826 5.7882332e-22)
(2.5566484 -0.017635236 7.5452587e-21)
(2.5570896 -0.010665078 1.5127794e-21)
(2.5576302 -0.0027733721 7.738591e-21)
(2.6313066 -0.33023879 -7.1974501e-20)
(2.332804 -0.3484649 4.2030825e-20)
(2.2932705 -0.35735968 8.7055737e-22)
(2.3029405 -0.39401675 4.135139e-20)
(2.3624505 -0.41665159 -2.8011219e-20)
(2.4700361 -0.40065769 1.6709586e-20)
(2.5708043 -0.32124606 7.8381233e-20)
(2.6042034 -0.17029486 -3.9337799e-20)
(2.5657053 -0.042842584 1.82857e-20)
(2.4748415 0.014238846 1.5263285e-20)
(2.3926786 0.0021292103 3.838522e-21)
(2.3527421 -0.054695221 3.1153199e-22)
(2.3626292 -0.11269382 -8.4004244e-22)
(2.4003253 -0.14750668 -6.7946327e-22)
(2.444361 -0.15653848 1.3898507e-21)
(2.4815281 -0.1458782 -1.6786446e-21)
(2.5048672 -0.1244024 1.2426236e-20)
(2.5134039 -0.10170424 -6.8790479e-21)
(2.5115987 -0.085001815 -1.6713198e-21)
(2.5059416 -0.076765265 5.6071774e-21)
(2.5016208 -0.07555733 -2.2941511e-21)
(2.5012828 -0.078222194 3.7593231e-21)
(2.5053457 -0.081614235 3.7000673e-21)
(2.5128498 -0.083451735 3.3851008e-21)
(2.5222526 -0.082525434 1.5576655e-21)
(2.5319969 -0.078565792 -1.5942351e-21)
(2.5408476 -0.071959735 8.6550421e-22)
(2.5480381 -0.063471844 -6.7388882e-23)
(2.5532558 -0.053900241 -1.0803998e-21)
(2.5565837 -0.044104587 -8.75253e-23)
(2.558314 -0.034425593 2.1090097e-21)
(2.5589638 -0.02567316 5.5002637e-21)
(2.5589685 -0.017158502 -1.9442421e-21)
(2.5590532 -0.010317244 -9.886599e-21)
(2.5593266 -0.0026683583 3.4756919e-21)
(2.6145212 -0.28274215 1.4365587e-20)
(2.2969228 -0.31611688 -5.8104782e-20)
(2.2741842 -0.34947418 -3.952268e-20)
(2.2923173 -0.40059944 3.1009446e-20)
(2.3585822 -0.43377455 4.0928546e-20)
(2.4686891 -0.42384027 2.5973588e-20)
(2.5793935 -0.3377421 6.9585685e-20)
(2.6145498 -0.17258056 -2.498178e-20)
(2.5745662 -0.022142674 2.9404307e-20)
(2.4643931 0.043486087 -1.5440281e-20)
(2.3762095 0.028966987 8.3197593e-22)
(2.3296349 -0.040940184 7.2172326e-22)
(2.3386891 -0.11469178 3.9037267e-21)
(2.3825281 -0.16055259 -4.792595e-21)
(2.4354109 -0.17509928 -2.2337592e-21)
(2.4816775 -0.16489621 1.0254751e-22)
(2.5121264 -0.13952062 -5.6256733e-21)
(2.52381 -0.11044013 -6.2117993e-21)
(2.5210467 -0.087637592 8.3223555e-21)
(2.511826 -0.075476305 -8.12307e-21)
(2.5031633 -0.072988461 3.4098763e-21)
(2.4990409 -0.076540386 -2.1639467e-21)
(2.500551 -0.082158511 1.330802e-21)
(2.5068995 -0.086760079 4.7293513e-21)
(2.5163925 -0.088504187 8.5243215e-22)
(2.5271487 -0.0867027 2.0616717e-21)
(2.5375479 -0.081541769 2.1416801e-21)
(2.5464563 -0.073737858 -1.4510951e-23)
(2.5532821 -0.064248592 -8.9847717e-22)
(2.5578941 -0.053952542 6.7393021e-23)
(2.5605279 -0.043708233 1.1114154e-22)
(2.5615795 -0.033819731 -3.9156334e-21)
(2.5616359 -0.025029518 -2.9346412e-21)
(2.5611514 -0.016618486 -1.6079591e-21)
(2.5608857 -0.0099370202 4.8765097e-21)
(2.5609003 -0.00255605 -6.4607413e-21)
(2.578315 -0.22888768 5.0002782e-20)
(2.236704 -0.27999257 -1.8475977e-21)
(2.2396027 -0.34079666 -1.1554002e-21)
(2.275111 -0.40762635 -3.2682436e-20)
(2.3522002 -0.45110567 2.5840082e-20)
(2.4638551 -0.4485694 -3.2375924e-20)
(2.5809927 -0.35889411 -1.1461013e-19)
(2.6195684 -0.1699428 1.0157126e-21)
(2.577448 0.00073444812 -2.1530241e-20)
(2.4424152 0.078387516 -2.3315405e-20)
(2.3424482 0.059550528 -3.5966111e-21)
(2.2997131 -0.024759483 -1.2410098e-21)
(2.3106418 -0.11618232 2.4429602e-21)
(2.3614476 -0.17486752 1.3188074e-21)
(2.4242835 -0.19612905 3.841702e-21)
(2.4811653 -0.1871202 4.3976912e-21)
(2.5206283 -0.15781646 -8.6245478e-21)
(2.5370044 -0.12121986 -7.6545e-21)
(2.5338178 -0.09062178 -3.7779783e-21)
(2.5206346 -0.073037366 6.6951593e-21)
(2.5067109 -0.068303688 4.7361923e-22)
(2.497739 -0.072345774 -2.442221e-21)
(2.495722 -0.080254917 -3.0207612e-21)
(2.5001505 -0.088001888 -4.5573306e-21)
(2.5092316 -0.092985293 -3.2250287e-21)
(2.5207692 -0.093980823 -2.8724724e-21)
(2.5327291 -0.090866893 -1.9387688e-21)
(2.5435593 -0.084264919 1.0908208e-21)
(2.552308 -0.075172071 -1.9805114e-21)
(2.5585975 -0.064684994 2.1929094e-23)
(2.5624882 -0.053716977 -1.2885291e-21)
(2.564362 -0.043092746 -1.1811482e-21)
(2.5647058 -0.03306142 4.7901128e-23)
(2.5641627 -0.024287787 -5.9166798e-21)
(2.563195 -0.016022929 -4.4254331e-21)
(2.5625879 -0.0095291349 7.9685128e-21)
(2.5623538 -0.0024375433 -2.2952086e-21)
(2.5309501 -0.16948573 -6.7770647e-21)
(2.1617466 -0.24121366 2.2518218e-20)
(2.1851243 -0.33448926 -8.433375e-20)
(2.2478789 -0.41603966 -4.8743815e-20)
(2.3411445 -0.46901305 -5.3498528e-20)
(2.4559142 -0.47307838 1.5230338e-20)
(2.577416 -0.3850658 -1.0562979e-19)
(2.6206512 -0.17460686 -2.6160392e-21)
(2.5825221 0.029700098 4.6717826e-20)
(2.4205592 0.11800856 1.7292335e-20)
(2.2959265 0.09245951 8.7271075e-21)
(2.2567617 -0.0070257501 -7.7840854e-21)
(2.2778046 -0.11766194 -1.0896643e-20)
(2.3369883 -0.1904843 1.7283412e-21)
(2.4107404 -0.21966515 -1.6753135e-21)
(2.4796906 -0.21285517 -4.5733154e-21)
(2.5302677 -0.17979423 -2.7679342e-20)
(2.5532299 -0.13458821 9.783234e-22)
(2.5504177 -0.094293811 -3.264631e-21)
(2.5329391 -0.069482348 1.6254741e-20)
(2.5127483 -0.061307526 -9.0072893e-21)
(2.4977291 -0.065308439 1.5244308e-21)
(2.4910715 -0.075492643 -1.1495425e-21)
(2.492675 -0.086734343 5.9402959e-21)
(2.500706 -0.095535724 1.0313178e-21)
(2.5126746 -0.10001792 -4.9718958e-21)
(2.5261186 -0.099643417 1.9819006e-22)
(2.5390195 -0.094844862 -1.5601586e-21)
(2.5500019 -0.086627965 -2.1479813e-21)
(2.5583557 -0.076207718 -1.5079865e-21)
(2.5639395 -0.064761903 9.7636072e-23)
(2.567004 -0.053194635 1.3841186e-22)
(2.568064 -0.042268273 -1.3790562e-21)
(2.5676809 -0.032162905 5.723479e-23)
(2.5665393 -0.023458725 3.9778232e-22)
(2.5650988 -0.015379448 4.7614392e-22)
(2.564162 -0.0090980904 7.9072476e-22)
(2.5636903 -0.0023138501 2.5444698e-21)
(2.4881757 -0.1069732 2.2932263e-20)
(2.0899065 -0.1999403 1.8914004e-21)
(2.1153278 -0.32950154 -2.6258454e-20)
(2.2074547 -0.42714088 -2.1113552e-20)
(2.3237796 -0.48796972 2.557266e-20)
(2.4445453 -0.49754321 5.8175307e-20)
(2.5693079 -0.41050234 -2.8261137e-20)
(2.6175131 -0.18554281 5.9281211e-22)
(2.5745253 0.053346231 -6.158134e-20)
(2.4014864 0.16160471 0)
(2.2516721 0.12920177 -1.4682758e-21)
(2.2017991 0.008634371 8.5395749e-21)
(2.2383197 -0.11960742 -1.8165361e-20)