/*--------------------------------*- C++ -*----------------------------------*\
| =========                 |                                                 |
| \\      /  F ield         | OpenFOAM: The Open Source CFD Toolbox           |
|  \\    /   O peration     | Version:  v2012                                 |
|   \\  /    A nd           | Website:  www.openfoam.com                      |
|    \\/     M anipulation  |                                                 |
\*---------------------------------------------------------------------------*/
FoamFile
{
    version     2.0;
    format      ascii;
    class       surfaceVectorField;
    location    "31.4558248775613549";
    object      Uf;
}
// * * * * * * * * * * * * * * * * * * * * * * * * * * * * * * * * * * * * * //

dimensions      [0 1 -1 0 0 0 0];


internalField   nonuniform List<vector> 
18180
(
(2.6384644 0.039941999 7.3532873e-22)
(2.6113494 0.015858809 -4.0302882e-21)
(2.6329204 0.080263236 2.2339464e-21)
(2.6054847 0.054862325 3.8698244e-21)
(2.5886559 0.032613263 -6.0731955e-22)
(2.585842 0.013270273 2.302219e-21)
(2.6234683 0.12126314 4.9736594e-22)
(2.5957625 0.088543937 -1.8326708e-21)
(2.5796865 0.064115836 -3.4436603e-22)
(2.5791506 0.045615801 -4.6170263e-21)
(2.5721983 0.027888232 -2.0328289e-21)
(2.5647536 0.011068918 3.6059489e-21)
(2.6087564 0.16514941 -8.5954681e-23)
(2.5797091 0.12546125 2.6908023e-21)
(2.5649978 0.094502212 8.5513751e-22)
(2.5686253 0.072291546 1.1356813e-21)
(2.5633895 0.054317731 -3.1045847e-21)
(2.5577923 0.038079585 -6.5463855e-21)
(2.5515127 0.022712882 -1.2521046e-21)
(2.5481478 0.0089203656 3.6928874e-22)
(2.5870481 0.21224746 -7.8205485e-21)
(2.5569478 0.16204455 -3.2679407e-21)
(2.5433757 0.12396441 -3.6168001e-22)
(2.5516058 0.1002285 -1.7214743e-21)
(2.5495638 0.079320886 -1.6049542e-21)
(2.5470423 0.059586438 1.4699742e-21)
(2.5426243 0.043721417 -1.6659616e-21)
(2.5413807 0.03064986 -1.086185e-21)
(2.5377255 0.018080116 4.7092665e-22)
(2.5353668 0.0070082625 -2.4092611e-21)
(2.556345 0.26290579 -9.2648044e-21)
(2.5257733 0.1996742 -8.6161349e-21)
(2.5143993 0.15157897 -4.3034644e-21)
(2.5288224 0.12540323 -1.5078542e-21)
(2.5300803 0.10253099 -2.8192098e-21)
(2.5302128 0.081374418 -1.181802e-21)
(2.5289367 0.062780987 1.720097e-21)
(2.5311447 0.047234555 8.0391423e-22)
(2.5294608 0.034425658 1.4082327e-21)
(2.5290377 0.024038761 -3.5765592e-22)
(2.5267863 0.01397223 -3.1152298e-21)
(2.5258168 0.0053527192 -1.6708067e-21)
(2.5132689 0.31635515 -5.5255163e-21)
(2.4849363 0.2365859 -4.0135269e-21)
(2.4769642 0.17601264 -3.3106356e-21)
(2.4992113 0.14842126 -2.7980923e-21)
(2.505031 0.12327886 -6.031864e-22)
(2.5084117 0.099774769 4.9626366e-22)
(2.5100696 0.079346942 2.0297535e-21)
(2.5154695 0.06334177 1.8331922e-21)
(2.5169901 0.048695651 9.838877e-22)
(2.5196446 0.036491197 -2.3514956e-22)
(2.5192437 0.026285038 -1.9466801e-21)
(2.5200508 0.018276048 -1.0951588e-21)
(2.5190311 0.01045702 3.1110954e-22)
(2.5189064 0.0039580169 -1.9249654e-21)
(2.4516982 0.36827476 6.3268102e-21)
(2.433775 0.271708 2.8545294e-21)
(2.4309804 0.19541273 4.4297469e-21)
(2.4624436 0.16716055 2.5985896e-21)
(2.4742694 0.1404193 2.7289893e-21)
(2.4812263 0.115283 -1.9037832e-21)
(2.4865399 0.092691156 -8.8052278e-22)
(2.4957535 0.075777514 -1.5856952e-21)
(2.5002245 0.060299111 -1.8142401e-21)
(2.5055015 0.048039527 -5.2858437e-22)
(2.508046 0.03654877 -1.6874497e-21)
(2.5116552 0.027281521 7.1023529e-22)
(2.5123175 0.019389777 1.5633797e-21)
(2.5137499 0.01337768 1.7807489e-21)
(2.5135862 0.0074968575 -3.1746919e-22)
(2.5141166 0.0027951162 -7.0124818e-22)
(2.3655779 0.40865639 9.9157219e-22)
(2.3721061 0.30116129 9.6217979e-21)
(2.3784938 0.20808761 6.3764722e-21)
(2.4181392 0.17983098 6.5279312e-21)
(2.4378549 0.15230448 4.8225153e-21)
(2.4491669 0.12616844 2.3880469e-21)
(2.4586011 0.10188833 -2.0207504e-21)
(2.4719518 0.084886035 -2.4055724e-21)
(2.4799516 0.068613274 -3.1010935e-21)
(2.4881577 0.056048821 -1.5961527e-21)
(2.4932604 0.044183684 -3.4754568e-22)
(2.4991773 0.035140087 3.1422633e-22)
(2.5024918 0.026423051 2.6260208e-21)
(2.5063699 0.019573267 1.2838408e-21)
(2.5076846 0.013630232 1.4877173e-21)
(2.5095699 0.009270189 6.9612041e-22)
(2.5100349 0.005027777 3.4804553e-22)
(2.5110111 0.0018187025 2.7560416e-21)
(2.2540647 0.42770538 -9.5321939e-21)
(2.2986441 0.31593201 -1.1630573e-20)
(2.322692 0.21217818 -3.9269847e-21)
(2.3668415 0.18436902 -7.2571766e-22)
(2.3955477 0.15687203 -7.0073575e-22)
(2.4127777 0.13120766 2.9851666e-22)
(2.4270407 0.10596877 -2.0907979e-21)
(2.4448525 0.089388009 1.2691145e-22)
(2.4566977 0.072929544 -2.0309482e-22)
(2.4677971 0.060784923 -1.7317411e-22)
(2.4757856 0.048699262 1.3056708e-21)
(2.4842021 0.039783389 -4.3880635e-22)
(2.4897197 0.031022122 1.8860042e-22)
(2.4955117 0.02451258 7.6988362e-22)
(2.4991475 0.01807538 -5.3632084e-22)
(2.5031485 0.013196047 -2.1578743e-21)
(2.5048971 0.0088687229 -2.9668986e-21)
(2.5070423 0.0058532555 -1.2189358e-23)
(2.507945 0.0029660829 2.2703858e-21)
(2.5092402 0.00098194521 -2.8407774e-22)
(2.1242879 0.41936031 -3.039678e-21)
(2.2142239 0.31114797 -5.3161411e-21)
(2.2655718 0.20399101 -7.5104335e-21)
(2.3104798 0.17885815 -7.3449844e-21)
(2.347916 0.15215727 -4.3593275e-21)
(2.3730623 0.12876853 -3.0579658e-21)
(2.3931626 0.10397266 -2.1475403e-21)
(2.4152577 0.088614895 -4.2434343e-22)
(2.431333 0.07255556 1.6674899e-21)
(2.4453707 0.06136208 7.5761309e-22)
(2.4562492 0.04961673 8.7502632e-22)
(2.4670181 0.04140331 1.5689757e-22)
(2.4749301 0.032823948 -1.5276621e-21)
(2.4827151 0.026663352 -1.5039206e-21)
(2.4881881 0.020349486 -9.7948436e-22)
(2.4937797 0.015836312 -1.7402219e-21)
(2.4975321 0.011252991 -3.2979839e-21)
(2.5014876 0.0079515127 -2.4686429e-21)
(2.5034983 0.0049433836 3.4752237e-22)
(2.5057882 0.0030157087 1.3722335e-22)
(2.5070024 0.0012369299 -2.3230256e-21)
(2.5085267 0.0002662655 -2.238429e-21)
(1.9908507 0.38178174 1.6326488e-21)
(2.1253864 0.28305997 3.5722733e-21)
(2.2086272 0.17902568 1.5186397e-21)
(2.2523476 0.16045896 -4.2044075e-21)
(2.2978323 0.13687111 -3.7006138e-21)
(2.3316604 0.11748483 -4.2667017e-21)
(2.3586877 0.094943533 -3.0282352e-21)
(2.3844686 0.081781788 9.3974841e-22)
(2.4048292 0.066924296 2.5881206e-21)
(2.4217401 0.057398726 2.444317e-21)
(2.4355658 0.046573334 1.6139048e-21)
(2.4485858 0.039469584 1.2807022e-21)
(2.4587651 0.03151883 5.8797781e-22)
(2.4683076 0.026133003 1.0618206e-21)
(2.475703 0.020198815 1.1134349e-21)
(2.4829014 0.016140705 9.6052493e-22)
(2.4881743 0.011754658 2.6960428e-22)
(2.4934396 0.0087844714 -8.9505929e-22)
(2.4971632 0.0056803769 -6.7348251e-23)
(2.5010047 0.0036332962 -1.015379e-21)
(2.5031618 0.0016945753 -1.2336953e-21)
(2.5055135 0.0006477751 -2.1079019e-21)
(2.506953 -0.00023223943 -2.0239839e-21)
(2.508657 -0.00030921829 2.7525631e-21)
(1.8703929 0.31874065 2.021393e-21)
(2.0408557 0.23092085 -1.2130895e-21)
(2.1541381 0.13489173 3.2806119e-22)
(2.1972131 0.12793169 5.1523087e-21)
(2.2497524 0.11057513 -2.8232084e-22)
(2.291144 0.096815498 -1.556011e-21)
(2.325236 0.078274618 -2.0582289e-21)
(2.3540006 0.068448205 -2.645397e-21)
(2.3783869 0.055770954 1.1132744e-21)
(2.3980401 0.048588967 1.5882899e-21)
(2.4147112 0.0393697 1.3394971e-21)
(2.4297098 0.033832366 2.1972561e-21)
(2.4420709 0.026944653 1.8810866e-21)
(2.4531927 0.022665552 1.6288584e-21)
(2.4622974 0.017443758 2.0835034e-21)
(2.4708394 0.014124662 1.774476e-21)
(2.4776533 0.010204115 1.640085e-21)
(2.4842054 0.0077178538 1.4759601e-21)
(2.4891813 0.0048221631 3.8908171e-22)
(2.4941 0.0030375948 -6.8458894e-22)
(2.497723 0.001104588 -1.593804e-21)
(2.5014121 5.4799356e-05 -5.5082966e-22)
(2.5036315 -0.0010145305 -1.3703783e-21)
(2.5059875 -0.0013527667 5.8293024e-22)
(2.5076047 -0.0014125127 5.164693e-21)
(2.5094198 -0.00076179664 1.7217947e-21)
(1.7797407 0.23664257 -1.4179162e-21)
(1.9702638 0.15834835 -5.5315411e-21)
(2.1057637 0.072817456 -8.9701271e-21)
(2.1486946 0.081132114 -3.1225199e-21)
(2.2076029 0.074179062 1.0993946e-21)
(2.2545039 0.067424125 4.8971997e-21)
(2.2945402 0.054219486 3.7747475e-21)
(2.3254934 0.0486379 3.9342408e-22)
(2.3534238 0.039202517 -2.1547076e-22)
(2.3754558 0.03498448 -1.1157856e-21)
(2.3947606 0.028030059 -7.4969043e-22)
(2.4113644 0.024486633 4.429662e-22)
(2.4256654 0.019102364 1.2432926e-21)
(2.4380745 0.016233454 1.114734e-21)
(2.4487244 0.012066289 8.8302832e-22)
(2.4584017 0.0097458752 5.2972393e-22)
(2.4665142 0.0065140805 2.0261638e-22)
(2.4740857 0.0046738419 1.8879741e-22)
(2.4802972 0.0022538954 8.907867e-24)
(2.4862548 0.00093866019 -1.4883563e-21)
(2.4909078 -0.00081497026 -2.5395185e-21)
(2.4954843 -0.0016886422 -3.3064566e-22)
(2.4989722 -0.0026940634 6.8118926e-22)
(2.5024998 -0.0029397009 1.9834836e-21)
(2.5047345 -0.0033196598 3.8933783e-21)
(2.5070942 -0.0030639467 3.3376247e-21)
(2.5088199 -0.0024352407 3.7204162e-23)
(2.5106906 -0.0011703845 -4.919771e-21)
(1.724334 0.14418036 -1.7943717e-21)
(1.9248109 0.07497303 -2.2859869e-21)
(2.0683086 -0.0020156455 -6.2105195e-21)
(2.109124 0.021601708 -7.8928064e-21)
(2.1736386 0.029375999 -2.3157083e-21)
(2.2239873 0.030599341 -4.2084694e-22)
(2.2684823 0.023957476 3.1652712e-21)
(2.300608 0.023112535 4.5508597e-21)
(2.3313696 0.017683784 1.2808922e-21)
(2.3552028 0.016971923 -7.2816183e-22)
(2.3767399 0.012840473 -1.5923496e-21)
(2.3944677 0.011671037 -9.8390998e-22)
(2.4103808 0.0081905694 1.456696e-22)
(2.4237492 0.0070167554 7.7269347e-22)
(2.4356684 0.0041914355 6.6206158e-22)
(2.4461816 0.003041312 4.6453746e-22)
(2.4553999 0.00074936378 1.1460987e-22)
(2.4637847 -0.00023532699 -2.4481021e-22)
(2.4709828 -0.0020548109 -2.6531659e-22)
(2.477733 -0.002832837 2.0509756e-22)
(2.48338 -0.0041421505 -1.2144437e-21)
(2.488804 -0.0045831493 -1.2246036e-21)
(2.4931369 -0.0054615316 8.959416e-22)
(2.4973984 -0.0056331953 2.2880892e-21)
(2.5007384 -0.0058875806 3.5477285e-21)
(2.504098 -0.0054815436 1.7434315e-21)
(2.5063413 -0.0052887625 1.1832818e-21)
(2.5086914 -0.0045389129 2.5538831e-21)
(2.5104754 -0.0033518124 -2.1154592e-21)
(2.5123809 -0.0015542773 -5.2890606e-22)
(1.6981739 0.047432192 0)
(1.901919 -0.012877949 2.5193538e-21)
(2.0455078 -0.081230588 2.1240461e-21)
(2.0818641 -0.043854011 2.4654176e-22)
(2.1489676 -0.021834647 -1.2442036e-21)
(2.2010328 -0.011772947 -2.0549811e-21)
(2.2484576 -0.010942702 -2.7715692e-22)
(2.2807499 -0.0068503574 -1.4328741e-22)
(2.3133026 -0.0079161227 1.2146997e-21)
(2.3383224 -0.0047805139 1.272546e-21)
(2.3615078 -0.0056590894 -6.3705344e-22)
(2.3798962 -0.0041433453 -1.5784447e-21)
(2.3969622 -0.005408752 -1.0138914e-21)
(2.4109186 -0.0046667691 -1.1119618e-21)
(2.4237792 -0.0059026588 -5.4710213e-22)
(2.434818 -0.0057117207 3.8829221e-22)
(2.4448548 -0.0069012829 1.9607393e-22)
(2.4537873 -0.0069564293 -1.9195226e-22)
(2.4617739 -0.0079796606 -5.3283467e-22)
(2.4691231 -0.0080566987 -2.7266061e-22)
(2.4755343 -0.0088607043 1.742203e-22)
(2.4815836 -0.0088919694 7.6120751e-22)
(2.4867289 -0.0093705571 7.8902463e-22)
(2.491689 -0.0091596885 1.0332891e-21)
(2.4957292 -0.0093609217 2.3554893e-21)
(2.4997123 -0.0089797142 1.155716e-21)
(2.5028989 -0.0086263308 -5.9595048e-22)
(2.5061008 -0.0076746472 3.3744689e-21)
(2.5083381 -0.0069944032 4.7125926e-21)
(2.5106601 -0.0058197535 -1.3426203e-21)
(2.5124808 -0.0041550412 1.7665896e-22)
(2.514406 -0.0018820585 3.2911561e-21)
(1.6987715 -0.04989209 2.3470939e-21)
(1.8993072 -0.10044627 2.6191326e-21)
(2.0386085 -0.16014956 5.0577279e-21)
(2.0691224 -0.11136896 1.9857471e-21)
(2.1344257 -0.076292819 1.9848894e-22)
(2.1862736 -0.057862808 5.4518569e-22)
(2.2350782 -0.048692024 -2.215511e-22)
(2.2666002 -0.039875638 -2.4916058e-22)
(2.2998918 -0.036301889 -1.5785294e-22)
(2.3253957 -0.029407074 8.4077227e-22)
(2.3496665 -0.026659139 8.895487e-22)
(2.3682349 -0.022359237 -2.86291e-22)
(2.3860105 -0.021109395 -1.2061822e-21)
(2.4001551 -0.018353423 -7.9725963e-22)
(2.4135934 -0.017783624 -8.9646015e-22)
(2.4248093 -0.016182431 -1.1568281e-21)
(2.435368 -0.01610909 -2.7799105e-22)
(2.4445743 -0.015167213 -6.2082243e-22)
(2.4530983 -0.015305302 -9.9765265e-22)
(2.4608215 -0.014688499 -8.9749238e-22)
(2.4678163 -0.014840536 -6.5277171e-22)
(2.4743248 -0.014314235 1.154038e-22)
(2.4800731 -0.014394228 6.7686544e-22)
(2.4855394 -0.013886679 7.0899624e-23)
(2.4902473 -0.013743316 2.912184e-22)
(2.4948087 -0.013029371 1.9923954e-22)
(2.4985892 -0.012695066 -9.7607758e-22)
(2.5023268 -0.011862338 -1.051115e-21)
(2.505368 -0.011007232 2.7122732e-21)
(2.5084249 -0.0095876388 3.635035e-21)
(2.5106392 -0.0084851417 -2.1366146e-21)
(2.5129208 -0.0069382012 -2.0085706e-21)
(2.5147628 -0.004849411 9.1508092e-22)
(2.51669 -0.0021564556 -7.3884603e-22)
(1.7266096 -0.14352981 2.0003521e-21)
(1.9156125 -0.18457756 2.7589552e-21)
(2.0463132 -0.23530463 2.4858666e-21)
(2.0694797 -0.17671197 4.5736505e-21)
(2.1297127 -0.1304112 1.6449719e-21)
(2.1799835 -0.10474704 5.3828296e-22)
(2.2282867 -0.087597268 8.7354081e-22)
(2.2584547 -0.07437924 2.6711997e-22)
(2.2914832 -0.066219495 1.3098833e-22)
(2.3168517 -0.055787524 -3.1472032e-22)
(2.3415825 -0.049387135 6.31819e-22)
(2.3599551 -0.042249493 8.0663597e-22)
(2.377977 -0.03829793 -3.2906433e-22)
(2.3919023 -0.033468795 -3.2512807e-22)
(2.4055351 -0.030955097 7.8013007e-23)
(2.4165823 -0.02790441 7.2195496e-23)
(2.4273297 -0.026474335 -1.5927965e-22)
(2.436522 -0.024540158 -2.3777143e-22)
(2.4453208 -0.023726518 -5.5904108e-22)
(2.4531968 -0.022391845 -9.0398761e-22)
(2.4605587 -0.021873565 -8.0401239e-22)
(2.4673454 -0.020832717 3.5122974e-22)
(2.4735394 -0.020397664 1.0954885e-21)
(2.4793679 -0.019450054 8.0584321e-22)
(2.484564 -0.019008699 2.3218693e-22)
(2.4895421 -0.018100929 -7.4447179e-22)
(2.4938751 -0.017482058 -8.4641024e-22)
(2.4980979 -0.016365856 6.6269483e-24)
(2.5016494 -0.015593897 -5.0239921e-23)
(2.5051716 -0.014377073 -1.1684103e-21)
(2.5080793 -0.013094651 -3.5372641e-22)
(2.5110028 -0.011264352 -3.1014414e-21)
(2.5131819 -0.0097919603 -2.9954721e-21)
(2.5154137 -0.0079143617 1.26144e-21)
(2.5172599 -0.0054510406 -3.044517e-22)
(2.519171 -0.002391051 -1.1697875e-21)
(1.7793583 -0.2286259 7.8125213e-22)
(1.9484411 -0.2615875 -1.155202e-20)
(2.0654223 -0.30354093 -1.156101e-20)
(2.0807503 -0.23714298 2.0709495e-21)
(2.1334956 -0.18138872 4.0488772e-21)
(2.1810693 -0.1500065 2.2456206e-21)
(2.2274657 -0.12590085 1.2036206e-21)
(2.2559057 -0.10884826 2.7344744e-21)
(2.2879502 -0.096483355 2.1034312e-21)
(2.3127526 -0.082828026 6.3868639e-22)
(2.3373547 -0.073020347 2.1773597e-22)
(2.3552243 -0.063033815 -1.0718156e-22)
(2.3731173 -0.056329929 3.6294678e-23)
(2.3864582 -0.049387553 2.4022613e-23)
(2.3998964 -0.044871588 3.3583113e-23)
(2.4104231 -0.040354731 1.3825283e-22)
(2.4210251 -0.037525928 1.35139e-22)
(2.4299054 -0.034633669 1.2113613e-22)
(2.438701 -0.032865357 5.4751951e-23)
(2.4465035 -0.030874977 4.5041757e-22)
(2.45402 -0.029675204 1.3921306e-22)
(2.4609164 -0.028125813 4.4723386e-22)
(2.4673849 -0.02719428 1.5634471e-21)
(2.4734367 -0.02587208 8.1063067e-22)
(2.4789853 -0.025032405 5.3076344e-22)
(2.4842557 -0.023783271 -3.1487216e-22)
(2.4889906 -0.02295636 -1.2495069e-21)
(2.4935609 -0.021738043 -3.5026672e-22)
(2.4975757 -0.020741122 4.6657929e-22)
(2.5015127 -0.019288448 1.0418014e-21)
(2.5048631 -0.01814548 -1.5486851e-24)
(2.5081964 -0.016588892 7.0031374e-22)
(2.510981 -0.014931723 -1.8922097e-21)
(2.513779 -0.01273451 -3.9415339e-21)
(2.5159135 -0.010934807 8.7678874e-23)
(2.5180858 -0.0087616254 -2.5575563e-22)
(2.5199187 -0.0059702508 -1.0778139e-21)
(2.5217967 -0.0025911848 7.7849088e-22)
(1.8507565 -0.30163128 1.2779474e-21)
(1.9936497 -0.32835504 2.6884346e-21)
(2.0921936 -0.36222177 -9.0042116e-21)
(2.1002337 -0.29046158 -1.7356005e-20)
(2.1442771 -0.22729795 -4.9851673e-21)
(2.1881472 -0.19192365 1.1390108e-21)
(2.2316181 -0.16229444 -5.7779991e-22)
(2.2581482 -0.1421621 -4.6082717e-22)
(2.2887116 -0.12614871 9.7982969e-22)
(2.3127678 -0.10967775 9.7673139e-22)
(2.3368208 -0.096800071 -4.3770431e-22)
(2.3539906 -0.084053433 -4.8126037e-22)
(2.371463 -0.074621542 -7.9960233e-22)
(2.3839281 -0.065532386 -2.7684406e-22)
(2.3968301 -0.058982964 -2.936622e-22)
(2.4065026 -0.053007934 -1.1353609e-22)
(2.4166228 -0.048771213 -1.5157841e-23)
(2.4248894 -0.044988144 9.5745231e-23)
(2.4333958 -0.042301881 8.1792321e-23)
(2.4409028 -0.039749358 -2.0352373e-22)
(2.4483568 -0.037921857 1.6820588e-22)
(2.45521 -0.035956796 1.7425191e-22)
(2.4617914 -0.03454832 4.6750343e-22)
(2.4679489 -0.032860286 6.0251846e-22)
(2.4737185 -0.031656593 -1.2848865e-22)
(2.4791731 -0.030136813 -5.066589e-22)
(2.484193 -0.029008508 -1.3270879e-21)
(2.4889999 -0.027534542 -1.4391104e-21)
(2.4933496 -0.026410044 -5.8948852e-22)
(2.4975805 -0.024937183 8.1962573e-22)
(2.5013266 -0.023624699 1.3719009e-21)
(2.505023 -0.021876142 -1.2136482e-22)
(2.508197 -0.020406718 5.444099e-22)
(2.5113628 -0.018540108 1.7731503e-21)
(2.5140312 -0.016547478 -1.1493314e-22)
(2.5167071 -0.014018278 -6.1914002e-22)
(2.5187875 -0.011927262 -9.5818076e-22)
(2.5208901 -0.0094897601 1.8957479e-21)
(2.5226933 -0.0064122979 3.7080521e-21)
(2.5245217 -0.0027587839 1.5193211e-21)
(1.9288002 -0.36091128 4.0027685e-21)
(2.0465676 -0.38243731 2.0552883e-20)
(2.1235091 -0.40978205 2.1916986e-20)
(2.1251535 -0.33545456 6.2446306e-21)
(2.1603466 -0.2670916 -1.8993417e-21)
(2.1997237 -0.22941667 -8.9946e-21)
(2.2395537 -0.19588935 -3.1966546e-21)
(2.2641836 -0.17351887 -9.403576e-22)
(2.2929754 -0.15455397 -7.4802406e-22)
(2.3163256 -0.13571951 -2.8523258e-21)
(2.3396326 -0.12015817 -2.9170671e-21)
(2.3560393 -0.10477872 -1.0300093e-22)
(2.3729056 -0.092703714 -1.1404212e-22)
(2.384291 -0.081413472 -3.2746249e-22)
(2.3963819 -0.072799915 1.7869286e-22)
(2.4048787 -0.065366897 -3.6904347e-22)
(2.4141962 -0.059724343 -1.9781883e-22)
(2.4215408 -0.055141065 2.854454e-22)
(2.4294664 -0.051598673 3.9738126e-22)
(2.4364525 -0.048624788 2.3412074e-22)
(2.4436277 -0.046262258 -3.4491925e-23)
(2.4503004 -0.044005548 -2.3169514e-22)
(2.4568462 -0.042201711 -2.3249461e-22)
(2.4630206 -0.040240424 -3.5589619e-22)
(2.4688987 -0.038697902 -2.4108043e-22)
(2.4744563 -0.03690263 -1.5358179e-21)
(2.4796594 -0.03550831 -1.9181112e-21)
(2.4846122 -0.033845745 8.6704021e-22)
(2.489193 -0.032502479 7.9830445e-22)
(2.4936141 -0.030852625 -2.1817796e-22)
(2.4976431 -0.029485362 1.1278581e-21)
(2.5015946 -0.027790519 7.2329264e-22)
(2.5051145 -0.026200915 -7.0597929e-22)
(2.5086081 -0.024179982 -5.9342399e-22)
(2.5116257 -0.022414055 5.5536669e-22)
(2.5146394 -0.020258079 -1.367209e-22)
(2.5171946 -0.017961169 -6.1671e-22)
(2.5197477 -0.015129444 7.2769642e-22)
(2.5217638 -0.012778974 3.4664154e-21)
(2.5237856 -0.010106123 1.9509223e-21)
(2.5255431 -0.0067818318 -1.5679563e-22)
(2.5273063 -0.0028960302 -7.6518458e-23)
(2.0068611 -0.4084672 2.8478075e-21)
(2.1011883 -0.4244849 1.604701e-20)
(2.1597779 -0.44581246 3.198561e-20)
(2.1530578 -0.37155136 2.6272254e-20)
(2.1797957 -0.30048463 1.1679936e-20)
(2.2143848 -0.26196949 5.696539e-21)
(2.2500091 -0.22615885 -9.710444e-22)
(2.2729458 -0.20243562 -6.8488118e-21)
(2.299879 -0.18129987 -4.7648025e-21)
(2.3227241 -0.16057874 7.9846549e-22)
(2.345307 -0.14274976 -1.1807846e-21)
(2.3610409 -0.12485561 -3.4422231e-21)
(2.3772467 -0.1102475 -7.6345849e-22)
(2.3874368 -0.096664084 7.2838196e-22)
(2.3985257 -0.085931134 5.4090127e-22)
(2.4055468 -0.076991611 2.7430924e-22)
(2.4137545 -0.069941123 -2.4452367e-22)
(2.41985 -0.064640807 -8.7855845e-23)
(2.426898 -0.060323555 3.7467795e-22)
(2.4331239 -0.057105453 2.6908179e-22)
(2.4398 -0.054337435 1.1455163e-22)
(2.4461654 -0.051968433 1.689243e-22)
(2.4525411 -0.049890484 -1.5124327e-23)
(2.4586763 -0.04777232 -4.5023721e-23)
(2.4645771 -0.045971598 -1.5920913e-22)
(2.4701955 -0.043967304 1.642399e-22)
(2.475505 -0.042320022 -1.0592708e-21)
(2.4805404 -0.040441543 -3.7198016e-22)
(2.4852675 -0.038908781 2.301063e-21)
(2.4897927 -0.037144317 1.1260005e-21)
(2.4940077 -0.035633068 1.6679248e-22)
(2.4981128 -0.033837003 3.8568716e-22)
(2.5018776 -0.032259018 -1.0769942e-23)
(2.5056026 -0.030357933 3.4718096e-22)
(2.508932 -0.028513586 4.7228067e-22)
(2.5122531 -0.026232491 7.1299629e-22)
(2.5151286 -0.024190829 5.8051724e-23)
(2.5179998 -0.021760764 -1.7879608e-21)
(2.5204407 -0.019185949 -5.3024038e-22)
(2.5228661 -0.016078137 1.4388057e-21)
(2.5248072 -0.013497417 -3.3775884e-23)
(2.5267361 -0.010616732 -1.0431299e-21)
(2.5284329 -0.0070829441 -9.8103774e-22)
(2.5301161 -0.0030048429 7.1057102e-22)
(2.086639 -0.44514155 9.8503325e-21)
(2.1561698 -0.45592736 -3.1657305e-21)
(2.1998428 -0.47200712 9.5466765e-21)
(2.1839434 -0.39905422 1.727639e-20)
(2.2001748 -0.32767436 1.1816585e-20)
(2.2307146 -0.28952666 9.8159646e-21)
(2.2618127 -0.25284752 4.1030319e-21)
(2.2833925 -0.22868404 -4.0525712e-21)
(2.3085754 -0.20622367 -9.6910189e-21)
(2.3312522 -0.18408894 -3.5855035e-21)
(2.3533031 -0.16443623 1.717366e-21)
(2.3685924 -0.14411612 7.8272156e-22)
(2.384232 -0.12707669 -1.3342072e-21)
(2.3932122 -0.11105633 -8.595232e-22)
(2.4031876 -0.098092627 5.56651e-22)
(2.4084528 -0.087548259 7.2325938e-22)
(2.4152629 -0.079033221 4.7348241e-22)
(2.4197654 -0.07308049 -5.8911944e-22)
(2.4256211 -0.068067495 -4.4587983e-22)
(2.430824 -0.064797192 5.3184396e-22)
(2.436767 -0.061792469 4.3658795e-22)
(2.4426986 -0.0595393 2.7081785e-22)
(2.4487783 -0.057355698 3.2502551e-22)
(2.454849 -0.055250827 3.0334672e-22)
(2.460717 -0.05330638 2.8018297e-22)
(2.4664003 -0.051169137 -1.121481e-21)
(2.4717762 -0.049324659 -8.2844676e-22)
(2.4768734 -0.047257673 2.4783797e-22)
(2.481688 -0.045527258 9.235284e-22)
(2.4862537 -0.043599378 2.175199e-21)
(2.4905744 -0.041967077 1.0567891e-21)
(2.4947427 -0.040132925 -1.6333795e-23)
(2.4986574 -0.038482608 1.8791631e-22)
(2.5025131 -0.036554724 5.9186621e-22)
(2.5060637 -0.034781972 9.4213902e-22)
(2.5096086 -0.032677878 3.5015664e-22)
(2.5127758 -0.030590569 5.7699577e-22)
(2.5159464 -0.028054268 -4.927328e-22)
(2.5186888 -0.025752162 -2.2556273e-21)
(2.5214203 -0.02306041 -2.2608267e-21)
(2.5237423 -0.02023139 -4.1859726e-22)
(2.5260318 -0.016872442 2.4587798e-21)
(2.5278862 -0.014088953 1.5401277e-21)
(2.5297096 -0.01102701 -2.8785141e-22)
(2.5313314 -0.0073193258 1.3304774e-21)
(2.5329213 -0.003086995 1.3003e-21)
(2.1667212 -0.47127988 6.8730757e-21)
(2.2101216 -0.47856257 1.1482502e-20)
(2.2380465 -0.48940453 -7.5329476e-22)
(2.2149131 -0.41801496 -3.9915833e-21)
(2.2195827 -0.34831768 3.2336701e-21)
(2.2469581 -0.31221483 3.9170891e-22)
(2.2740492 -0.27595722 -1.6519602e-21)
(2.294591 -0.25225915 7.7092516e-21)
(2.3182693 -0.22935186 1.6699169e-23)
(2.3412292 -0.20627431 -1.1718728e-20)
(2.3630822 -0.18524809 -5.9440906e-21)
(2.3782977 -0.16256472 4.1550577e-21)
(2.3936031 -0.1431709 3.3069094e-21)
(2.4014599 -0.12444165 -1.3539988e-21)
(2.4103004 -0.10910953 -9.0320718e-22)
(2.4135351 -0.096779127 2.4690715e-22)
(2.4186732 -0.086672741 3.9917997e-22)
(2.4211982 -0.080119415 5.4575847e-22)
(2.425526 -0.074443777 -4.6277288e-22)
(2.4294091 -0.071347551 -5.8006574e-22)
(2.4343608 -0.068282595 3.4005774e-22)
(2.4397265 -0.066419619 4.4544676e-22)
(2.4453823 -0.064350588 2.880906e-22)
(2.4513898 -0.062480048 2.92679e-22)
(2.457198 -0.060554257 2.7195514e-22)
(2.4629996 -0.058399644 4.6790625e-22)
(2.4684456 -0.056434566 -8.6117891e-22)
(2.4736363 -0.054196101 -1.1593568e-21)
(2.4785201 -0.052286253 -1.4091492e-22)
(2.483101 -0.05018353 -4.757933e-25)
(2.4874688 -0.048401256 1.1749273e-21)
(2.4916218 -0.046467874 1.5406529e-22)
(2.4956019 -0.044767246 -8.8075032e-22)
(2.4994892 -0.042885388 5.2955821e-23)
(2.5031663 -0.041110758 4.3458053e-22)
(2.5068364 -0.039051454 5.4912972e-22)
(2.5102165 -0.037087997 -1.9500635e-23)
(2.5136192 -0.034774551 -1.355641e-21)
(2.5166453 -0.03244918 -2.4035512e-21)
(2.5196789 -0.02965826 -1.0291773e-21)
(2.5222909 -0.027108 -1.01454e-21)
(2.5248797 -0.024165839 -3.6480736e-22)
(2.5270748 -0.021104985 2.3692235e-21)
(2.5292174 -0.017519357 7.5634426e-22)
(2.530973 -0.014559446 -9.9285377e-22)
(2.5326778 -0.011342217 -2.5219292e-21)
(2.5342118 -0.007494671 -2.6121075e-21)
(2.5356961 -0.0031442936 -2.4479878e-21)
(2.2427034 -0.4877865 -7.9857239e-21)
(2.2605947 -0.49121197 -5.2519661e-21)
(2.2701381 -0.49834278 -9.686809e-22)
(2.2423613 -0.43113167 -2.3312337e-20)
(2.2373147 -0.36272791 -2.6577891e-20)
(2.2619197 -0.33027111 -7.9511099e-21)
(2.2858807 -0.29587285 -1.0839794e-20)
(2.30581 -0.27333622 -1.071427e-20)
(2.3282393 -0.25083388 -1.966306e-21)
(2.3520228 -0.22728561 5.7767252e-21)
(2.3741251 -0.20534045 -5.283721e-21)
(2.3897792 -0.18032015 -1.9679572e-21)
(2.4051323 -0.15862869 7.6769936e-21)
(2.4120269 -0.13690041 1.2803603e-21)
(2.4198041 -0.11892939 -3.1823972e-21)
(2.4207945 -0.10444901 -4.8576627e-21)
(2.4240123 -0.092602144 -3.8317129e-21)
(2.4240784 -0.085366666 -1.1005386e-22)
(2.4265151 -0.079095122 1.8046719e-23)
(2.4287011 -0.07640051 -7.6316197e-22)
(2.4323761 -0.073471227 -8.8576136e-22)
(2.4370128 -0.072340874 5.3491085e-22)
(2.4421073 -0.070638044 6.4434835e-22)
(2.4480755 -0.069288345 -4.7971125e-23)
(2.4538213 -0.067594533 -4.8750308e-23)
(2.4598478 -0.065577857 1.1647117e-21)
(2.4654141 -0.063603733 1.3613782e-21)
(2.4707904 -0.061228106 -9.7479955e-22)
(2.4757753 -0.059159321 -1.2630872e-21)
(2.4803955 -0.056837933 1.0864322e-21)
(2.4847891 -0.054886213 1.2387832e-21)
(2.4888757 -0.052815052 -7.7915893e-22)
(2.4928486 -0.05102287 -1.7816548e-21)
(2.4966665 -0.049127824 2.1296936e-22)
(2.500377 -0.047381114 1.1177928e-21)
(2.504066 -0.04545869 -1.3480959e-21)
(2.5075657 -0.043561493 -1.2682481e-21)
(2.5111086 -0.041357691 3.379615e-23)
(2.5143544 -0.039198457 -1.2346777e-21)
(2.5176428 -0.0366622 -1.2671028e-21)
(2.5205406 -0.034099402 5.6921738e-23)
(2.5234415 -0.031052367 3.0798007e-22)
(2.5259203 -0.028264972 9.4635094e-22)
(2.5283579 -0.025083894 1.9757809e-21)
(2.5304156 -0.021813127 4.3726175e-22)
(2.5323982 -0.018025426 -1.5525561e-21)
(2.5340425 -0.014914689 -3.0138169e-21)
(2.5356161 -0.011567707 -1.7662638e-21)
(2.5370506 -0.0076127465 -1.5967935e-21)
(2.5384189 -0.0031785366 -2.2247651e-21)
(2.3118869 -0.49598501 6.5680772e-21)
(2.3050204 -0.4958716 -6.5426827e-22)
(2.2953496 -0.49935232 2.0675905e-21)
(2.2644327 -0.4373133 -1.1227985e-20)
(2.2529063 -0.37210292 -3.2648773e-20)
(2.2750326 -0.34420723 -2.298146e-20)
(2.2964598 -0.31311558 -5.2434259e-21)
(2.3164009 -0.29230146 -1.0908749e-20)
(2.3379053 -0.27086717 -1.0769187e-20)
(2.3630763 -0.24735511 5.0622296e-21)
(2.3859557 -0.22494653 1.2539377e-20)
(2.4026714 -0.19761255 4.2010425e-22)
(2.4186073 -0.17364736 3.6610204e-21)
(2.4248003 -0.14847265 6.8151815e-21)
(2.4316539 -0.12756708 7.2051285e-22)
(2.4301758 -0.11058906 -1.6463126e-21)
(2.4312968 -0.096642247 -3.2131986e-21)
(2.4284321 -0.088689357 -3.5358872e-21)
(2.428512 -0.081715214 -1.4530831e-24)
(2.4285723 -0.079551657 0)
(2.4306091 -0.077049694 -7.4257913e-22)
(2.4343054 -0.076988681 -8.5277817e-22)
(2.4386653 -0.075991997 5.1422575e-22)
(2.4446158 -0.075523729 6.39891e-22)
(2.4503184 -0.074331701 -1.8927175e-23)
(2.4567266 -0.072663906 -4.1841621e-22)
(2.4625134 -0.070830748 7.2468095e-22)
(2.4682366 -0.068370246 9.6993916e-22)
(2.4734122 -0.066176404 -1.2636698e-21)
(2.4781568 -0.063584478 -6.7948019e-22)
(2.4826024 -0.061425257 1.5599235e-21)
(2.4866092 -0.059125602 1.291413e-21)
(2.4905295 -0.057195538 -6.2378466e-22)
(2.4941888 -0.055241203 -1.5573286e-21)
(2.4978384 -0.053482338 3.4113357e-22)
(2.5014229 -0.051655151 1.5521677e-21)
(2.5049416 -0.049871141 -7.8412383e-22)
(2.5085167 -0.047896118 -4.8569667e-22)
(2.5118946 -0.045865409 7.6385215e-22)
(2.5153589 -0.043491725 -8.1888758e-22)
(2.518497 -0.041124719 -8.4293352e-22)
(2.5216872 -0.038347612 -1.5575053e-24)
(2.5244611 -0.035545863 2.3598135e-22)
(2.5272251 -0.032241146 1.2201119e-21)
(2.5295626 -0.029227663 2.202325e-21)
(2.531836 -0.025820419 3.1540688e-21)
(2.5337437 -0.02236181 1.3077079e-21)
(2.5355518 -0.018397161 1.4414675e-21)
(2.5370727 -0.015160638 2.6981836e-21)
(2.5385029 -0.011709009 1.6056448e-21)
(2.5398278 -0.0076773913 1.0606489e-21)
(2.5410713 -0.0031914805 -1.2451902e-21)
(2.3737591 -0.49712763 2.3939788e-20)
(2.3435672 -0.49406891 -6.1491661e-21)
(2.31533 -0.49376432 -1.326515e-20)
(2.2818708 -0.43816254 1.7349801e-20)
(2.2660214 -0.37786398 4.8779838e-21)
(2.2858752 -0.35491903 -6.0963566e-21)
(2.3051179 -0.3281489 3.509656e-21)
(2.3258278 -0.30951326 9.1690956e-21)
(2.3468595 -0.2896946 4.0593685e-21)
(2.3739515 -0.26672959 -4.9114749e-21)
(2.3981524 -0.24434204 1.0246912e-20)
(2.4166503 -0.2147232 4.5125439e-21)
(2.4338344 -0.18850564 -7.1448727e-21)
(2.4397048 -0.15936302 2.0218277e-21)
(2.4458641 -0.13509562 4.9911414e-21)
(2.4416765 -0.11509211 7.3991777e-21)
(2.4404844 -0.098666775 5.2613935e-21)
(2.4341993 -0.089676392 4.2810198e-22)
(2.4314381 -0.081954777 1.8072917e-22)
(2.4288239 -0.080794865 -1.7031691e-23)
(2.4287565 -0.078700407 -4.1866568e-24)
(2.4313391 -0.080165511 -1.5564785e-22)
(2.4347207 -0.080190445 -2.4063139e-22)
(2.4406895 -0.081024366 8.2946707e-22)
(2.4463661 -0.080697554 9.5303814e-22)
(2.4533582 -0.079646643 -7.0168128e-22)
(2.4595133 -0.078158674 -1.0937457e-21)
(2.4658155 -0.075694846 -2.5209913e-22)
(2.4713374 -0.073428045 -3.9473298e-23)
(2.4763645 -0.07050291 -1.6482214e-22)
(2.4809477 -0.06808688 4.0163081e-22)
(2.4849113 -0.065435674 1.3180004e-21)
(2.4887703 -0.063283766 1.0606867e-21)
(2.4922002 -0.061158126 -6.023769e-22)
(2.4957069 -0.059332427 -1.4888376e-21)
(2.4990574 -0.057569316 4.6208328e-23)
(2.5024789 -0.055874558 1.1909758e-21)
(2.5059476 -0.054117733 -1.1289527e-21)
(2.5093548 -0.052287331 -8.5104118e-22)
(2.5128941 -0.050226762 2.7263379e-22)
(2.5161968 -0.048039769 -1.2387855e-21)
(2.5196167 -0.045460998 -1.1424548e-21)
(2.5226631 -0.042869625 -3.4808736e-22)
(2.5257583 -0.039831864 -8.8259509e-22)
(2.5284045 -0.036789359 3.404038e-23)
(2.531019 -0.033227121 7.7949827e-22)
(2.5332029 -0.02999964 1.6604578e-21)
(2.5352953 -0.026380981 1.526577e-22)
(2.5370394 -0.022757103 2.6111601e-22)