/*--------------------------------*- C++ -*----------------------------------*\
| =========                 |                                                 |
| \\      /  F ield         | OpenFOAM: The Open Source CFD Toolbox           |
|  \\    /   O peration     | Version:  v2012                                 |
|   \\  /    A nd           | Website:  www.openfoam.com                      |
|    \\/     M anipulation  |                                                 |
\*---------------------------------------------------------------------------*/
FoamFile
{
    version     2.0;
    format      ascii;
    class       volScalarField;
    location    "30.0070385386842844";
    object      p;
}
// * * * * * * * * * * * * * * * * * * * * * * * * * * * * * * * * * * * * * //

dimensions      [0 2 -2 0 0 0 0];


internalField   nonuniform List<scalar> 
9200
(
0.029573941
0.033222055
0.060297796
0.037873316
0.065586379
0.10424784
0.047065229
0.071803016
0.1122557
0.1371697
0.060852147
0.083496859
0.12284686
0.14609194
0.16465081
0.08265021
0.099580573
0.14104685
0.15831103
0.17387542
0.18585901
0.11026711
0.12239033
0.16537153
0.17830401
0.18677673
0.19481929
0.20209417
0.14563419
0.15108973
0.19691004
0.2043013
0.20716666
0.20746427
0.21049801
0.21411651
0.17827709
0.1896942
0.23843587
0.2372646
0.23308667
0.22691358
0.22240155
0.22179987
0.222734
0.20328948
0.2407041
0.28931576
0.27745157
0.26489973
0.25111466
0.24031555
0.23269396
0.22963487
0.22860469
0.21160662
0.31481307
0.34819816
0.32416358
0.30196939
0.27996224
0.26219843
0.2487939
0.23942134
0.23472319
0.23228261
0.21932618
0.39661413
0.4138077
0.37624855
0.34329878
0.3124289
0.28763413
0.26814881
0.25366432
0.24340023
0.2376575
0.2342352
0.22526167
0.46916342
0.4813408
0.43170898
0.38715814
0.34730587
0.31547041
0.29016989
0.2705581
0.25586335
0.24528026
0.23890947
0.23484495
0.21682794
0.51829496
0.54311069
0.48632638
0.43109517
0.38293416
0.34449492
0.31372685
0.28943838
0.27048523
0.25610219
0.24556367
0.23885965
0.23438484
0.19546399
0.53591349
0.58963967
0.534688
0.47213695
0.41735861
0.37325551
0.33770433
0.3092709
0.28658782
0.26869417
0.25490416
0.24463717
0.23782913
0.23303581
0.16181694
0.52292166
0.61421394
0.57159636
0.50729767
0.4484663
0.4002409
0.36090881
0.3290737
0.3032617
0.28239247
0.26570908
0.25265423
0.24279413
0.23606496
0.23113102
0.1122905
0.48008408
0.61016857
0.5931953
0.53391194
0.47426534
0.42397821
0.38217573
0.34787218
0.31964476
0.29641099
0.27733761
0.261892
0.24963951
0.240269
0.2336895
0.22883217
0.052351943
0.41207697
0.58134766
0.59814356
0.55011879
0.493244
0.44321065
0.4004597
0.3647695
0.33495699
0.31001476
0.28914638
0.271739
0.25751967
0.24607991
0.23727084
0.23088184
0.22617398
-0.013637688
0.33582212
0.53728117
0.5879511
0.55683182
0.50496123
0.45726614
0.41508323
0.37911058
0.34856449
0.32261874
0.30052657
0.28176815
0.26587924
0.25277607
0.24213895
0.23392309
0.2277986
0.22330474
-0.080944655
0.26032153
0.48389487
0.56638735
0.55293294
0.50932221
0.46579223
0.42564318
0.39044542
0.35998991
0.33371029
0.31097894
0.29129547
0.27433428
0.2598428
0.24779288
0.23794009
0.23033518
0.22453413
0.22030477
-0.13998753
0.18100595
0.42758589
0.53749531
0.54162836
0.50709404
0.46904439
0.43209724
0.39859663
0.36897534
0.34297866
0.32014273
0.30004087
0.28237241
0.2669759
0.25372633
0.2426633
0.23358182
0.22659805
0.22117023
0.21724493
-0.18773328
0.12944927
0.3749667
0.50554074
0.52521659
0.49961154
0.46758359
0.43463527
0.40357063
0.37540587
0.35023843
0.32778122
0.30769776
0.2897389
0.27376169
0.25972709
0.24759573
0.23746162
0.22913951
0.22278739
0.21777294
0.21418393
-0.22517661
0.099283201
0.33222812
0.47387859
0.50611268
0.48834011
0.46228314
0.43371737
0.40558451
0.37935418
0.35545703
0.33378818
0.31410419
0.29620635
0.27999684
0.2654483
0.25260879
0.24149636
0.23224463
0.224673
0.21896411
0.21439484
0.21116984
-0.24678045
0.087389556
0.29497446
0.44420442
0.48643865
0.47468567
0.4540893
0.42994012
0.40498591
0.38100894
0.35872307
0.3381701
0.31919933
0.30166353
0.28550371
0.27073387
0.25740701
0.24563021
0.23545984
0.22705628
0.22023065
0.21517735
0.21107869
0.2082413
-0.25108645
0.086742452
0.26388802
0.42530679
0.46791059
0.45984648
0.44390054
0.42393449
0.40218355
0.3806239
0.36018912
0.34101509
0.32301215
0.30607901
0.29020517
0.27544161
0.26187621
0.2496119
0.23879525
0.22950952
0.22193119
0.215852
0.2114669
0.20785978
0.20542912
-0.24333172
0.090128789
0.24260692
0.41372729
0.45167606
0.44474287
0.43249267
0.41630157
0.39760008
0.37847616
0.36005503
0.34245585
0.32563011
0.30949454
0.29408863
0.27951724
0.26590031
0.25336313
0.2420389
0.23210456
0.223663
0.2168974
0.21156956
0.20786529
0.20476691
0.20275759
-0.22836071
0.093579556
0.22961535
0.40282176
0.4378457
0.42999432
0.42049632
0.4075707
0.39163395
0.37482946
0.35851387
0.34266888
0.32718778
0.31200105
0.29720097
0.2829557
0.26943768
0.25678761
0.24514477
0.23466617
0.22555699
0.21793426
0.21197813
0.2074105
0.20439905
0.20182334
0.2002456
-0.20868647
0.095852687
0.22387494
0.39421692
0.42590954
0.41579651
0.40839336
0.39818185
0.38464218
0.36991146
0.35573215
0.34178517
0.32783416
0.31373758
0.29963601
0.28580123
0.27248201
0.25984985
0.2480328
0.237179
0.22747357
0.2191506
0.21233499
0.20719324
0.20339752
0.20108988
0.19904739
0.19790734
-0.18469279
0.097544283
0.2258833
0.38767447
0.41500168
0.40258663
0.39650449
0.3884736
0.37693504
0.36390209
0.35183569
0.33993319
0.32767499
0.31481867
0.30151866
0.28813943
0.27506602
0.26253578
0.25067035
0.23957892
0.22942869
0.22044258
0.21288354
0.20687576
0.2025601
0.19954988
0.19795526
0.19645321
0.19575304
-0.15640842
0.097539598
0.23245849
0.38329098
0.40444759
0.39128718
0.38503728
0.37871072
0.3687783
0.35693313
0.3468894
0.33721022
0.326834
0.31541583
0.30296716
0.29007701
0.27725291
0.26485921
0.25303228
0.24183584
0.23137602
0.22185947
0.21355634
0.20675488
0.20156678
0.19809431
0.19588376
0.1950091
0.19405117
0.19378945
-0.12517973
0.093932261
0.23985552
0.38039022
0.39369869
0.38243476
0.37417827
0.36906285
0.36039835
0.34909285
0.34090065
0.3336333
0.32539645
0.31567185
0.30415081
0.29175031
0.27912451
0.26685326
0.2551082
0.2439132
0.2332913
0.22337695
0.21443894
0.20680033
0.20076541
0.1964185
0.19381006
0.19241283
0.19226211
0.19184847
0.19202033
-0.095300588
0.088053832
0.24747502
0.37882516
0.38464391
0.37628307
0.36406593
0.35965581
0.3519791
0.34044175
0.33380394
0.32918764
0.32335853
0.31561599
0.30528473
0.29331434
0.28078721
0.26856704
0.25689699
0.24577605
0.23513026
0.22498241
0.21553443
0.20713686
0.20016316
0.19491828
0.19144197
0.1897204
0.18914835
0.18972218
0.18984934
0.19044683
-0.069586915
0.086524411
0.25487481
0.3779125
0.37893399
0.37162366
0.35497669
0.35057132
0.34367899
0.33102543
0.32546128
0.32379746
0.32066725
0.31530053
0.30639543
0.29478368
0.28234165
0.27006348
0.25840611
0.24738668
0.23683653
0.22663119
0.21684992
0.20780105
0.19992646
0.19363769
0.18921944
0.18664888
0.18583724
0.18609944
0.18739455
0.18805555
0.18906787
-0.048936669
0.092339833
0.26172391
0.37611753
0.37492585
0.36577097
0.34554373
0.34137651
0.33557491
0.32091112
0.31566076
0.31733056
0.31721392
0.31471993
0.30754293
0.29638969
0.28388804
0.27140751
0.25964913
0.24870548
0.23833787
0.22825365
0.21835063
0.20882853
0.20013086
0.19278618
0.18722177
0.18367775
0.18205156
0.18217136
0.18327308
0.18528219
0.18646656
0.18788046
-0.032226301
0.10617109
0.26901096
0.3732189
0.37196736
0.35833582
0.33579661
0.33236625
0.32773738
0.31014875
0.30411258
0.30961168
0.31282515
0.31378365
0.30885058
0.29830674
0.28554133
0.27266634
0.26064403
0.24969194
0.23954752
0.22975066
0.21996578
0.21020642
0.2008492
0.19248258
0.18570136
0.18091879
0.17830497
0.17766262
0.1787322
0.18067425
0.18338584
0.18507994
0.18687996
-0.018683582
0.12345352
0.2759247
0.3713905
0.36894233
0.35042028
0.3273224
0.3238453
0.32012222
0.29887574
0.2904078
0.30038393
0.30725322
0.31230534
0.31031869
0.30050136
0.28737753
0.27390282
0.26140965
0.250306
0.24036703
0.23099459
0.22158269
0.21187742
0.20210238
0.19284421
0.18482281
0.1786656
0.1747378
0.1731152
0.17349467
0.17552778
0.17830591
0.18170433
0.18389151
0.18606039
-0.0068542983
0.13593029
0.28177632
0.36954431
0.36499452
0.34261316
0.31920898
0.31605632
0.31249282
0.28700039
0.27416583
0.28934056
0.3001561
0.30997361
0.31186597
0.30300593
0.28942692
0.27515314
0.26195944
0.25050745
0.24068917
0.23183207
0.22304673
0.21373267
0.20386206
0.1939365
0.18475318
0.17712902
0.17168155
0.16869309
0.16812443
0.16955978
0.17256448
0.17616911
0.18023469
0.18289569
0.18541464
0.0056404257
0.14170688
0.28698186
0.36703625
0.36047837
0.33431894
0.31095443
0.30799019
0.30470594
0.27546843
0.25564514
0.27628779
0.2912399
0.306504
0.31335178
0.30576696
0.29166443
0.27641487
0.26228906
0.25025427
0.24040078
0.23208671
0.22416307
0.21561035
0.2060418
0.19577401
0.18561069
0.1765285
0.16939149
0.16476076
0.16280348
0.16334968
0.16586914
0.16984691
0.17426305
0.17897241
0.18208562
0.18493476
0.01920524
0.14256303
0.28980003
0.36254
0.35563973
0.32494223
0.30125145
0.29998239
0.29704885
0.26374068
0.23577803
0.26014975
0.28026214
0.301065
0.31450166
0.30866659
0.29398958
0.27763204
0.26236666
0.24949519
0.2393841
0.2315622
0.22469759
0.21729572
0.20849436
0.19831021
0.18746426
0.17704046
0.16813951
0.1616141
0.15792307
0.15709123
0.15880828
0.16243254
0.16737781
0.17258518
0.17791155
0.18145348
0.18461213
0.032092868
0.13963432
0.28795091
0.35420941
0.34828392
0.31206265
0.28925195
0.2910255
0.28948578
0.25414505
0.21385097
0.24157199
0.2670053
0.2931746
0.31496587
0.31144441
0.29622542
0.27867871
0.26211651
0.24816679
0.23751618
0.23004176
0.22437846
0.21852084
0.21101075
0.20143293
0.19032153
0.1787962
0.16816242
0.15957481
0.15381403
0.1511953
0.15158096
0.15451702
0.15925807
0.16515804
0.17113128
0.17704501
0.18099064
0.18443764
0.13301365
0.043081394
0.2802748
0.34143255
0.33607862
0.29496606
0.27359672
0.28038188
0.2811024
0.24424629
0.19332005
0.21934356
0.25364142
0.28372865
0.31436225
0.3138305
0.29805492
0.27935113
0.26141439
0.24617475
0.23467204
0.22729098
0.22289224
0.21896442
0.21331862
0.2049628
0.19412222
0.181868
0.1696584
0.15893916
0.15084279
0.14602045
0.14460975
0.14629823
0.15049146
0.1563518
0.16318644
0.16989566
0.17636466
0.18068795
0.18440177
0.26715942
0.12287897
0.051571936
0.32323764
0.31814382
0.27307097
0.25242534
0.26708828
0.27151825
0.23313837
0.16916365
0.19526432
0.23562304
0.27217094
0.31192076
0.31511009
0.29909925
0.27933731
0.26007564
0.24340537
0.23071267
0.22305493
0.21988495
0.21824567
0.21508127
0.20865041
0.19873511
0.18625955
0.17277093
0.15997318
0.14936125
0.14197066
0.13827262
0.13820228
0.14126849
0.14674527
0.15371752
0.16145994
0.16887129
0.17586174
0.18053577
0.18449488
0.29947655
0.24960327
0.11018689
0.05746793
0.29500873
0.24364187
0.22418618
0.2496695
0.26044414
0.21994052
0.1476516
0.16227563
0.21542166
0.25748432
0.30667386
0.31421693
0.29861495
0.27826226
0.2578507
0.23968995
0.22551452
0.21705466
0.21494098
0.21592283
0.21588995
0.21217548
0.20395415
0.19190075
0.17757548
0.16289446
0.1497009
0.13944695
0.13300226
0.13061745
0.13201057
0.13651578
0.14328961
0.15135659
0.15997381
0.16805027
0.1755268
0.1805241
0.18470733
0.26781829
0.27090031
0.22915789
0.096227134
0.06093402
0.20802612
0.18912185
0.22667158
0.24747485
0.20425425
0.12765204
0.12888051
0.18405636
0.23880989
0.29961338
0.30937572
0.29587266
0.27555422
0.25446046
0.23484744
0.21890557
0.20901479
0.20758461
0.21146237
0.21526199
0.21513889
0.20949625
0.1986416
0.18407136
0.16785461
0.15215296
0.13884086
0.12924002
0.12399502
0.12310692
0.12607218
0.13206174
0.14013277
0.14926818
0.15872196
0.1674237
0.17534973
0.18064258
0.18502966
0.16855649
0.23799101
0.24049444
0.20760423
0.082159271
0.062314941
0.14764784
0.1974596
0.23195116
0.18638788
0.10807112
0.095529994
0.14743929
0.21765237
0.2844755
0.30277124
0.28859661
0.27074337
0.24951803
0.22866216
0.21079838
0.19860376
0.19726209
0.2042549
0.21260817
0.21707165
0.2149937
0.20624792
0.19217162
0.17492748
0.15694655
0.14051352
0.12742929
0.11880609
0.11501652
0.11579531
0.12042289
0.12792478
0.13728022
0.14744965
0.15769693
0.1669814
0.17531965
0.18088118
0.18545257
0.10163531
0.12525536
0.20508944
0.21096336
0.18640502
0.069026415
0.062159606
0.16210197
0.21409947
0.16710115
0.089424759
0.063233876
0.11067767
0.19519455
0.26519519
0.28816681
0.27884018
0.26257884
0.24283916
0.22089699
0.20097745
0.18564909
0.18330249
0.19353796
0.207246
0.21737509
0.21999633
0.21439697
0.20169387
0.1840938
0.16423298
0.14477004
0.12799442
0.11553539
0.10822834
0.10614067
0.10873659
0.11509515
0.12411987
0.13473496
0.14589628
0.15688912
0.16671182
0.17542604
0.18123084
0.18596663
0.12152272
0.052961716
0.072000613
0.16937014
0.18328241
0.16667459
0.057633453
0.061126826
0.19472418
0.14657062
0.072456571
0.032961892
0.076506451
0.16780264
0.23923464
0.27215815
0.26187067
0.25187114
0.23370441
0.21147751
0.18942005
0.16970555
0.16502801
0.17839804
0.19828372
0.21536542
0.22388705
0.22268331
0.21235396
0.1952259
0.17406481
0.15183999
0.13131201
0.11466093
0.10325601
0.097602388
0.097443824
0.10198201
0.11011763
0.12065886
0.13249712
0.14460014
0.15628664
0.16660382
0.1756601
0.18168298
0.18656212
0.17531926
0.079801616
0.0029767212
0.024639894
0.13281718
0.15862928
0.149215
0.048637125
0.059607272
0.12578207
0.057055224
0.0055542451
0.045737651
0.13617027
0.20748681
0.24899634
0.2445472
0.23549941
0.22317091
0.19994476
0.17591944
0.15104859
0.14128712
0.15771348
0.18464741
0.20998613
0.22664598
0.23060797
0.22376695
0.20807754
0.18637421
0.16185135
0.13768822
0.11662331
0.10061919
0.090709199
0.087030949
0.089001297
0.095579003
0.10551511
0.11754963
0.13056213
0.14354971
0.15587801
0.16664955
0.176014
0.18222657
0.18723056
0.10593204
0.15713129
0.039499624
-0.04619883
-0.021209453
0.096983298
0.13765062
0.13447259
0.042202934
0.056661521
0.043364315
-0.017427471
0.018923199
0.10327406
0.17055469
0.22082142
0.21639673
0.21889733
0.20926337
0.18758976
0.16053692
0.12900214
0.1117196
0.13010778
0.1648474
0.20081902
0.22633951
0.23761902
0.2354305
0.22227913
0.20095654
0.17480226
0.14732829
0.12180077
0.10081211
0.086008394
0.078027226
0.076618901
0.080885279
0.0895706
0.1013073
0.11479361
0.12892016
0.14273382
0.15565685
0.16684274
0.17647514
0.18284669
0.18796661
0.031261178
0.088636013
0.13932528
0.0016993791
-0.092275152
-0.063150484
0.063499428
0.11990131
0.12178638
0.037296381
0.052218025
-0.034950491
-0.003174645
0.07227561
0.13079346
0.1863394
0.18070462
0.19241263
0.19731978
0.17350568
0.14353922
0.10484563
0.073469133
0.094300228
0.13750986
0.18528699
0.22270327
0.24279087
0.24672042
0.23729421
0.21745607
0.19053892
0.1603025
0.13047502
0.10427729
0.084034785
0.070992013
0.065349789
0.066469902
0.073163584
0.083993612
0.097505202
0.11238468
0.12756151
0.14214862
0.15561908
0.16716757
0.17702253
0.18353218
0.18876486
-0.046170444
0.021292093
0.075288929
0.11951414
-0.032915093
-0.13244097
-0.099173728
0.034117893
0.10653454
0.11084862
0.033393976
0.047678164
-0.01934967
0.045920685
0.092030188
0.14570513
0.1356626
0.15463405
0.17782439
0.16350368
0.12676902
0.075611846
0.028502854
0.047722144
0.10025727
0.16210517
0.21441009
0.24537938
0.2568421
0.25247907
0.2353359
0.20873538
0.17651893
0.14279245
0.11136897
0.085284208
0.066485359
0.055748897
0.052819074
0.05668418
0.065896793
0.078873558
0.094109485
0.11031641
0.12648625
0.14179342
0.15574532
0.16759112
0.17764033
0.18428984
0.18965809
-0.028993747
-0.049843225
0.015714178
0.067351509
0.098423938
-0.062231639
-0.16436703
-0.12777387
0.0095858279
0.099085386
0.10284662
0.03148054
0.043190783
0.025612242
0.05729725
0.098876892
0.082124373
0.10764814
0.14819195
0.14894537
0.11471947
0.052805269
-0.025427165
-0.0060641694
0.051570504
0.12814733
0.19937946
0.24429146
0.26496487
0.26700129
0.25394396
0.22887575
0.19570046
0.15873254
0.1223102
0.090175746
0.065042442
0.048384465
0.040466527
0.040576208
0.04735427
0.059131405
0.074222179
0.091119701
0.10859504
0.12569873
0.14164452
0.15598842
0.16809007
0.17834556
0.18521378
0.1906505
0.01302201
-0.032054825
-0.046331636
0.017917816
0.064951296
0.077806405
-0.083551483
-0.18637604
-0.14806974
-0.0097765659
0.094814586
0.098997395
0.031017711
0.038914409
0.027888823
0.048181435
0.022733609
0.051694662
0.10935315
0.12725611
0.099760404
0.034309352
-0.064201017
-0.074136667
-0.0029568053
0.084272262
0.17558665
0.23784752
0.26994856
0.27996944
0.272336
0.25028813
0.21736601
0.17808163
0.13715807
0.099005961
0.067135817
0.04381433
0.029970461
0.025335776
0.028755252
0.038555777
0.052896029
0.070048908
0.088551324
0.10723225
0.12517077
0.14163636
0.15631581
0.16870618
0.17930729
0.18626862
0.19172924
0.0041797944
0.0082838154
-0.028868846
-0.034855269
0.027683206
0.069227199
0.059116599
-0.094214338
-0.19769316
-0.15981241
-0.023238799
0.091662265
0.097514694
0.032006935
0.033971594
-0.0029381769
-0.04202808
-0.012412466
0.061557644
0.098457565
0.079944457
0.015654212
-0.10515416
-0.13586025
-0.073802818
0.031342672
0.14531985
0.22481549
0.27051858
0.29018918
0.28961251
0.27203434
0.24084999
0.20040833
0.15577231
0.11191125
0.073128258
0.042549598
0.021892574
0.011492467
0.010542793
0.017470792
0.030341732
0.047215397
0.066382814
0.08642666
0.10619544
0.12481496
0.14172465
0.15679756
0.16974558
0.18042296
0.18742144
0.19290099
-0.050441779
-0.00831048
0.0094363807
-0.018369354
-0.016708492
0.044521999
0.080874623
0.043985991
-0.09485063
-0.19912933
-0.16201487
-0.031237225
0.090990958
0.097097606
0.034543272
0.028748605
-0.10947186
-0.081520147
0.0053372343
0.063381477
0.054767014
-0.0048788233
-0.13739684
-0.22031235
-0.14201851
-0.032573325
0.10759418
0.20541805
0.2654948
0.29657239
0.30452295
0.2931639
0.26523678
0.22508039
0.17778575
0.1288309
0.083232657
0.045007656
0.016764409
-0.00040843647
-0.0068004129
-0.0037474227
0.0068097235
0.022759359
0.042138188
0.06326142
0.084709447
0.10537105
0.1245726
0.14201824
0.15791336
0.17099166
0.18164413
0.18866893
0.19416847
-0.17407475
-0.091373439
-0.0052476429
0.017314603
0.000432249
0.0074568632
0.067651739
0.098044718
0.035766334
-0.088310461
-0.19048345
-0.15855084
-0.032638297
0.092638677
0.097525175
0.039376524
0.025359141
-0.15251102
-0.055084564
0.022887619
0.025231971
-0.029157282
-0.16744761
-0.29218239
-0.24890697
-0.093496581
0.06360693
0.18023303
0.25383996
0.29781053
0.31604299
0.31231897
0.28963151
0.2512407
0.20262571
0.1494742
0.097470345
0.051470702
0.015042279
-0.0098357649
-0.022766334
-0.024680226
-0.017402766
-0.0031489875
0.015885034
0.037723522
0.060646282
0.083255647
0.10468295
0.12459907
0.1432332
0.15930456
0.17235195
0.18296033
0.19001271
0.19553443
-0.22095457
-0.23018845
-0.12257986
0.0055263514
0.03434175
0.026008692
0.036082582
0.094994717
0.11934403
0.037068529
-0.075786586
-0.17907901
-0.14596024
-0.03125792
0.095548334
0.098245606
0.046506778
0.022665563
-0.11638705
-0.022130724
-0.0072527364
-0.055982439
-0.19842645
-0.36208161
-0.35215133
-0.1896483
0.011446463
0.15134746
0.23714865
0.29241903
0.32280034
0.32860786
0.31253315
0.27796328
0.22948384
0.1733396
0.11563465
0.062040355
0.017065858
-0.016313783
-0.036846784
-0.044877466
-0.041956779
-0.030301117
-0.012290723
0.009808174
0.033933448
0.058358018
0.081968228
0.1043444
0.12590793
0.14482257
0.1608225
0.17380417
0.18437585
0.19145275
0.19699641
-0.17486563
-0.28090054
-0.27181427
-0.14376908
0.015115424
0.058854976
0.055630589
0.06807946
0.12445668
0.14533461
0.04739251
-0.065152797
-0.15955601
-0.12745385
-0.025820936
0.097885783
0.097784574
0.053856843
0.019931619
-0.067766997
-0.040826237
-0.083728634
-0.22744353
-0.43263031
-0.46256783
-0.296728
-0.071063935
0.10638189
0.21724267
0.28209164
0.32323536
0.34055716
0.33325836
0.30386652
0.25744109
0.1996756
0.13730336
0.076597465
0.02301037
-0.019461968
-0.048569301
-0.063877464
-0.066479719
-0.058451318
-0.042276252
-0.020484157
0.0044955491
0.030547978
0.056274819
0.081130459
0.10574687
0.1277208
0.1465527
0.16242845
0.17535638
0.18588978
0.19298896
0.19855557
-0.10917825
-0.22647056
-0.32537861
-0.2974072
-0.15324216
0.025564273
0.087216928
0.087981217
0.10209817
0.1551837
0.17315837
0.062379738
-0.05085408
-0.13358421
-0.10254764
-0.015906787
0.099376675
0.096266177
0.059548886
0.017729449
-0.072533893
-0.10991197
-0.25427636
-0.49626197
-0.57292152
-0.4172897
-0.16647651
0.042270261
0.17816087
0.26816431
0.31867285
0.34677534
0.34989155
0.32833399
0.28527956
0.22761248
0.16179473
0.09480634
0.032843962
-0.019043165
-0.057533844
-0.081236177
-0.090580088
-0.087322739
-0.07392975
-0.053139715
-0.027751488
-0.00031929401
0.027415948
0.054765461
0.08260527
0.10782437
0.12969366
0.1483634
0.16413579
0.17700674
0.18750164
0.19462004
0.20021128
-0.098589018
-0.14275318
-0.26419947
-0.3513022
-0.3060925
-0.15155347
0.040134723
0.11670535
0.12095372
0.1358795
0.18307573
0.20605074
0.077874877
-0.031835446
-0.1015018
-0.072532075
-0.00247021
0.099839442
0.094587232
0.063033844
0.016629579
-0.13351598
-0.27853219
-0.54107705
-0.67494148
-0.54505108
-0.27364241
-0.035425403
0.12852299
0.23355636
0.3104412
0.34784705
0.36203808
0.3489485
0.31220451
0.2559819
0.18829809
0.11606718
0.046322349
-0.015007692
-0.063458678
-0.09655929
-0.11386909
-0.11661716
-0.10708546
-0.088127068
-0.062893596
-0.034411934
-0.0048221158
0.025010656
0.056279914
0.084976983
0.11008492
0.13173855
0.15027541
0.16594131
0.17875495
0.18920969
0.19634365
0.2019635
-0.15190057
-0.11389692
-0.16323557
-0.28338654
-0.35666107
-0.29885827
-0.14012566
0.05706911
0.14495379
0.15037975
0.16577414
0.21826595
0.22996901
0.095910775
-0.0079559565
-0.063363365
-0.038914769
0.013957731
0.099276935
0.092696207
0.064309215
0.016712523
-0.28993545
-0.56089072
-0.75711812
-0.67052349
-0.38852606
-0.12459357
0.067557977
0.19181133
0.2803668
0.346009
0.3683718
0.36704039
0.33615522
0.28387469
0.21566785
0.13963484
0.062939165
-0.0075074686
-0.066224153
-0.1095433
-0.13598703
-0.14602895
-0.1415594
-0.12540242
-0.1010126
-0.071916416
-0.040691846
-0.0084109845
0.026510902
0.058976583
0.087561795
0.11240621
0.1338855
0.1522841
0.16784478
0.18059835
0.19101225
0.19815849
0.20380862
-0.28801163
-0.15899751
-0.11633059
-0.16636272
-0.28162166
-0.34216632
-0.27781424
-0.12169666
0.07406803
0.16978183
0.17688439
0.20116756
0.24289424
0.25443888
0.11684359
0.021220099
-0.020992569
-0.0023331066
0.034431066
0.098806066
0.090577902
0.063387488
0.01711176
-0.55351379
-0.80692302
-0.77886569
-0.50655779
-0.22426124
-0.0010902864
0.14000651
0.2439137
0.32110624
0.37288829
0.37750507
0.3584839
0.3095327
0.24300921
0.16440339
0.082027593
0.0030550782
-0.065894567
-0.12001693
-0.15663723
-0.17526522
-0.17715629
-0.16491229
-0.14219301
-0.11303092
-0.080482198
-0.04583046
-0.0070033758
0.029558046
0.061924557
0.090194925
0.11483026
0.13612793
0.15438981
0.16984245
0.18253428
0.1929088
0.20006906
0.20574377
-0.51804742
-0.27107845
-0.14783412
-0.10969755
-0.15442047
-0.26078485
-0.31085487
-0.24602438
-0.099260044
0.090672688
0.18987829
0.20596334
0.22599887
0.26800213
0.27896543
0.14196723
0.054088754
0.022972556
0.032433958
0.056985685
0.098297433
0.088524892
0.061443398
0.017101851
-0.81361621
-0.85273346
-0.61447744
-0.32086095
-0.076557454
0.082384458
0.19683861
0.29001475
0.35459514
0.38759698
0.37261004
0.33330319
0.26857269
0.18952132
0.10254398
0.016106253
-0.062762695
-0.12796769
-0.17562217
-0.20407113
-0.21368404
-0.2065948
-0.18652303
-0.15797462
-0.12451246
-0.087633643
-0.044625181
-0.0035852252
0.032906091
0.064907326
0.092933234
0.11734841
0.1384669
0.15658777
0.17193081
0.18456314
0.19490261
0.20207191
0.20776873
-0.77198504
-0.45455898
-0.22952371
-0.11978253
-0.090190087
-0.13014331
-0.22447817
-0.26642661
-0.2063624
-0.070830035
0.10686084
0.20926834
0.23116029
0.25275197
0.29209366
0.29876503
0.17094309
0.087678267
0.063579173
0.061984115
0.077366933
0.098946051
0.086443089
0.059428538
0.016842841
-0.87715178
-0.69285913
-0.40357034
-0.15342505
0.019325576
0.14377005
0.24671485
0.33032417
0.37732531
0.38973671
0.35017436
0.29252833
0.21318788
0.12368905
0.030691205
-0.05729663
-0.13357979
-0.19287089
-0.23225783
-0.25096969
-0.25038965
-0.23409139
-0.20698814
-0.1731445
-0.13425605
-0.086779811
-0.040822113
0.00019830487
0.036275508
0.068000248
0.095765489
0.11996285
0.14089624
0.15887363
0.1741114
0.18669623
0.19698483
0.20416194
0.20988401
-0.84255541
-0.68201062
-0.37412685
-0.1701513
-0.079200773
-0.056460214
-0.094088952
-0.1755141
-0.21244449
-0.161472
-0.033216114
0.12483078
0.22860609
0.25454495
0.2764779
0.3121431
0.31077179
0.1995912
0.12091188
0.096043117
0.087967607
0.092826691
0.10006803
0.084459584
0.057389066
0.01645717
-0.72740371
-0.46652605
-0.22517252
-0.046184543
0.085221838
0.19591034
0.29138548
0.36266108
0.38349123
0.36893496
0.31028954
0.23564368
0.14363827
0.046084523
-0.050332744
-0.13720953
-0.20846806
-0.25972546
-0.28887746
-0.2962452
-0.28499425
-0.26032715
-0.22678459
-0.18619989
-0.1339505
-0.08258659
-0.036569798
0.0039911843
0.039764422
0.071189025
0.098695358
0.12266598
0.14341065
0.16125102
0.17640368
0.18891933
0.19915012
0.20633346
0.21208526
-0.70867302
-0.75022062
-0.5607333
-0.28200028
-0.10430202
-0.028852969
-0.013822613
-0.051061852
-0.11740401
-0.15405727
-0.10676866
0.0015502939
0.15203255
0.24705767
0.27501238
0.29716248
0.32622094
0.31586838
0.22231894
0.15017631
0.12107408
0.10845355
0.10443108
0.10117403
0.082619983
0.055373372
0.016033178
-0.49551192
-0.28154738
-0.109652
0.023689056
0.13802601
0.2432206
0.32942221
0.38234236
0.37369307
0.33001564
0.2521386
0.16273527
0.060476411
-0.04249494
-0.13954664
-0.22265875
-0.28648316
-0.32732515
-0.34412682
-0.33933447
-0.31826775
-0.28587592
-0.24403906
-0.18670019
-0.12937088
-0.077834919
-0.032316994
0.0079195301
0.043354832
0.074479314
0.10171355
0.12545151
0.1460163
0.16375132
0.17878597
0.19122388
0.20139366
0.20858486
0.21436362
-0.48660839
-0.63785235
-0.62084941
-0.42374843
-0.18476517
-0.036168917
0.025900405
0.034592268
-0.0058981461
-0.057053569
-0.090550359
-0.061283987
0.044131023
0.17888617
0.2634264
0.29224651
0.31388166
0.3345345
0.3164733
0.23753456
0.17221125
0.14124
0.12373963
0.11288861
0.10202583
0.08091167
0.053428182
0.015619383
-0.31420806
-0.16493933
-0.037888414
0.076158563
0.18473979
0.28552135
0.3578795
0.38570885
0.33896522
0.27108879
0.17593
0.074328262
-0.035526691
-0.1410931
-0.23596209
-0.31267418
-0.36629549
-0.39402812
-0.3972217
-0.38109937
-0.35090409
-0.30841351
-0.24567913
-0.18174743
-0.12409217
-0.073085975
-0.027903363
0.011960674
0.047054863
0.077859836
0.10481265
0.12832904
0.14875941
0.16634345
0.18124647
0.19360307
0.20371303
0.2109147
0.21671229
-0.32489533
-0.44522466
-0.53362625
-0.47500172
-0.28873831
-0.090704071
0.031112183
0.082007948
0.085129742
0.044461851
0.00088881471
-0.041446196
-0.0059218057
0.080444253
0.20583483
0.27693585
0.30543933
0.32526287
0.33738913
0.31346896
0.24579868
0.1882918
0.1559442
0.13469983
0.11875674
0.10249669
0.079305648
0.051585034
0.015238149
-0.20787124
-0.095237408
0.012429366
0.11979812
0.2277603
0.31965929
0.37272119
0.36613707
0.28206504
0.19221771
0.082312942
-0.028822851
-0.14346168
-0.24875111
-0.33862877
-0.40586223
-0.44597517
-0.4587791
-0.44911867
-0.42238761
-0.38003846
-0.3116215
-0.24037759
-0.17591731
-0.1188106
-0.068137658
-0.023357317
0.016125766
0.050850861
0.081321858
0.10800655
0.13136354
0.15159716
0.16901095
0.18377659
0.19605514
0.20610606
0.21331671
0.21912814
-0.23496825
-0.31531563
-0.3801104
-0.41670856
-0.33426914
-0.16759581
-0.0046856265
0.094731907
0.13578596
0.13679492
0.098800541
0.043095085
0.015221707
0.047596703
0.11532934
0.22793979
0.2867956
0.31424177
0.33080623
0.33496346
0.30713817
0.24916997
0.19879629
0.16580083
0.14214374
0.12255535
0.10253478
0.077773351
0.049864304
0.014904099
-0.14453753
-0.05017566
0.050830119
0.15897655
0.26509463
0.34158619
0.36831209
0.32230819
0.2037639
0.094037587
-0.027909756
-0.14587564
-0.26243413
-0.36459143
-0.44617403
-0.5000349
-0.52413749
-0.52262528
-0.50086739
-0.45969842
-0.38536157
-0.30600614
-0.23397591
-0.17006595
-0.1132736
-0.063025726
-0.018664092
0.020398187
0.054732532
0.084884662
0.11138358
0.13449771
0.15450757
0.17174251
0.18637629
0.19857985
0.20856399
0.21577998
0.22160724
-0.18360786
-0.24517812
-0.28708716
-0.30478549
-0.30166624
-0.20750637
-0.063502676
0.069436331
0.15094652
0.18585236
0.18265011
0.14535971
0.087804134
0.070594235
0.1004929
0.15120295
0.24397479
0.2938079
0.31860847
0.33091959
0.32796926
0.2985347
0.24914703
0.20439214
0.17194877
0.14681622
0.12473231
0.10215384
0.076291192
0.048276648
0.014620168
-0.10878629
-0.019845246
0.082582322
0.19398451
0.29159619
0.34652099
0.33908522
0.25488616
0.10503468
-0.022591081
-0.15394283
-0.27605746
-0.39167438
-0.48735586
-0.55625022
-0.59342841
-0.60189703
-0.58688332
-0.5482346
-0.46783678
-0.37947748
-0.29901876
-0.22751666
-0.16388039
-0.1075261
-0.057731169
-0.013844015
0.024765791
0.058725854
0.088665361
0.11486857
0.1377027
0.15747625
0.17454011
0.18904902
0.20116602
0.21106734
0.21830107
0.22415595
-0.16125458
-0.21282246
-0.24198544
-0.24916695
-0.23095087
-0.19599376
-0.10247568
0.019988337
0.12908218
0.19893569
0.22482676
0.22765796
0.18202783
0.13003867
0.12252702
0.14595664
0.18985603
0.25709325
0.29829836
0.31908234
0.32654328
0.31814033
0.28909562
0.24645731
0.20660339
0.17527316
0.14939506
0.12564264
0.10140459
0.074846409
0.046826856
0.014380165
-0.089914877
0.0010981809
0.10929107
0.22079997
0.30192015
0.32852772
0.28466783
0.16529382
-0.013105388
-0.15691156
-0.29515009
-0.41879755
-0.53011228
-0.61468707
-0.66673445
-0.68719814
-0.68093708
-0.64650661
-0.56007904
-0.4617377
-0.37189765
-0.29191251
-0.22061554
-0.15741679
-0.10154423
-0.052279014
-0.0089115677
0.029262786
0.062983337
0.092566872
0.11842415
0.14096015
0.16050795
0.17741219
0.19178094
0.20378082
0.21360505
0.22088782
0.22670409
-0.15736277
-0.20622822
-0.23118039
-0.23131114
-0.20892563
-0.1660543
-0.10989968
-0.020925581
0.083772687
0.17571006
0.23253199
0.26828901
0.25486171
0.21703838
0.16667233
0.16635493