/*--------------------------------*- C++ -*----------------------------------*\
| =========                 |                                                 |
| \\      /  F ield         | OpenFOAM: The Open Source CFD Toolbox           |
|  \\    /   O peration     | Version:  v2012                                 |
|   \\  /    A nd           | Website:  www.openfoam.com                      |
|    \\/     M anipulation  |                                                 |
\*---------------------------------------------------------------------------*/
FoamFile
{
    version     2.0;
    format      ascii;
    class       surfaceScalarField;
    location    "30.0070385386842844";
    object      phi;
}
// * * * * * * * * * * * * * * * * * * * * * * * * * * * * * * * * * * * * * //

dimensions      [0 3 -1 0 0 0 0];
oriented        oriented;


internalField   nonuniform List<scalar> 
18180
(
-0.047492864
-3.5505109
-0.097299274
-3.3212188
-0.04626954
-3.4572986
-0.15151651
-3.1063472
-0.093530954
-3.2307176
-0.041458452
-3.3688832
-0.21472291
-2.9026859
-0.14335954
-3.0166102
-0.082808808
-3.1458101
-0.035918477
-3.2876592
-0.29062719
-2.7090207
-0.1982787
-2.8112232
-0.12533654
-2.9340225
-0.07100427
-3.0680848
-0.030025199
-3.2140153
-0.38324001
-2.5225418
-0.25983684
-2.6132583
-0.17019268
-2.7290457
-0.10591251
-2.8591125
-0.058735782
-2.9982467
-0.024427976
-3.1487826
-0.49665684
-2.3405851
-0.32929966
-2.4198843
-0.21763162
-2.5302748
-0.14097934
-2.6564039
-0.086356137
-2.7926468
-0.047301065
-2.9366765
-0.019390188
-3.0910982
-0.63439785
-2.1604173
-0.40844351
-2.2288633
-0.26737852
-2.3359439
-0.17581474
-2.4598492
-0.1127163
-2.5936068
-0.068554072
-2.7348836
-0.037162229
-2.8827528
-0.015037352
-3.0407394
-0.78937293
-1.9792011
-0.49937763
-2.0374623
-0.31821424
-2.1451451
-0.20940018
-2.2686035
-0.13712257
-2.4014459
-0.087762901
-2.5402613
-0.053088592
-2.6847138
-0.028517624
-2.8356972
-0.011384166
-2.9962952
-0.92514941
-1.7704107
-0.60143751
-1.8459984
-0.36662034
-1.957902
-0.23977638
-2.0833211
-0.15840056
-2.2158875
-0.10419543
-2.3535946
-0.066644685
-2.4948438
-0.040132688
-2.6412396
-0.021346342
-2.794454
-0.0083876627
-2.9574436
-1.0111266
-1.5288456
-0.6910287
-1.651209
-0.40815904
-1.7756842
-0.2640755
-1.9051229
-0.17485441
-2.0384657
-0.11682719
-2.1749513
-0.077177276
-2.3139168
-0.04934941
-2.4555922
-0.029549746
-2.6032344
-0.015521909
-2.7584148
-0.0059739956
-2.9230973
-1.0462572
-1.2747452
-0.7437794
-1.4483316
-0.43396841
-1.5989451
-0.27915157
-1.7349149
-0.18430995
-1.8700451
-0.1244085
-2.0050594
-0.083892865
-2.1412947
-0.055637139
-2.2794436
-0.035500831
-2.4213089
-0.021072136
-2.5700998
-0.010868064
-2.7267378
-0.0040556985
-2.8930226
-1.0441182
-1.0368587
-0.75016726
-1.2423702
-0.43003069
-1.4276726
-0.2808012
-1.5736666
-0.18436542
-1.7111858
-0.1256067
-1.844663
-0.08595598
-1.9776993
-0.058429536
-2.1119691
-0.038793219
-2.2492107
-0.024603702
-2.3913402
-0.014382853
-2.5410177
-0.0071969595
-2.6989124
-0.0025449297
-2.866253
-1.0147845
-0.83748721
-0.71146816
-1.0512183
-0.38603625
-1.2633374
-0.26320024
-1.4231949
-0.17301457
-1.5627328
-0.11916411
-1.6946774
-0.082613794
-1.8239596
-0.057219854
-1.9536484
-0.039047449
-2.0861118
-0.025820409
-2.2227779
-0.016144647
-2.3651092
-0.0091671362
-2.5154858
-0.0043295486
-2.6742734
-0.0013623567
-2.8426515
-0.96561815
-0.68492181
-0.63474653
-0.89138673
-0.30417724
-1.1114427
-0.22046744
-1.2852884
-0.14914883
-1.4258667
-0.10412201
-1.5557428
-0.073338987
-1.6808505
-0.05163897
-1.8053371
-0.035991332
-1.9323905
-0.024484841
-2.0635338
-0.015948367
-2.1995708
-0.0096491011
-2.3420113
-0.005137038
-2.492904
-0.002103659
-2.6524912
-0.00043511799
-2.8215702
-0.90214778
-0.57858578
-0.52874333
-0.76950424
-0.19506561
-0.98014506
-0.15088298
-1.1614307
-0.11225524
-1.3019582
-0.080247888
-1.4284903
-0.057948001
-1.5489482
-0.041544738
-1.6678784
-0.029501474
-1.7887752
-0.020483029
-1.9139429
-0.013658468
-2.0437493
-0.0085086192
-2.1790696
-0.0047025029
-2.3216102
-0.0020425043
-2.4729442
-0.00038242759
-2.6331261
0.00028399385
-2.8029711
-0.8294869
-0.51425949
-0.4022781
-0.68493338
-0.070087404
-0.87531916
-0.05929267
-1.0532617
-0.06248687
-1.1919162
-0.048352357
-1.3133683
-0.036675949
-1.4285358
-0.027090864
-1.5416339
-0.01964556
-1.656142
-0.013835765
-1.7746454
-0.0092617915
-1.8978066
-0.0056803886
-2.0260103
-0.002940769
-2.1608391
-0.00095402928
-2.3035151
0.00033607581
-2.4552191
0.00095506156
-2.6159585
0.00081897974
-2.7862891
-0.74666988
-0.48029503
-0.26496909
-0.6326696
0.06088569
-0.7978521
0.045161146
-0.96237194
-0.0016275057
-1.095776
-0.010069757
-1.2104787
-0.010268481
-1.3194696
-0.0087335759
-1.4264141
-0.0066910723
-1.5344043
-0.0047100386
-1.6458035
-0.0028573328
-1.7617759
-0.0012048115
-1.8828444
0.0001809938
-2.0099939
0.001209434
-2.1445679
0.001881698
-2.287449
0.0021451832
-2.4394815
0.0019922805
-2.6007094
0.0012679502
-2.7715419
-0.64865642
-0.46939897
-0.12187486
-0.60563583
0.1897589
-0.74452403
0.15255277
-0.88886572
0.066178829
-1.0127671
0.032542629
-1.1194422
0.019980685
-1.2212934
0.012813053
-1.321697
0.0089079958
-1.4229984
0.0065892337
-1.5272092
0.0053363422
-1.6357264
0.004761721
-1.7493772
0.0045405898
-1.8689676
0.0044280797
-1.9955134
0.0042873646
-2.1300762
0.0040250828
-2.2731684
0.0035472036
-2.4255229
0.0027971409
-2.5871935
0.0016225522
-2.758364
-0.54132384
-0.48252938
0.023140661
-0.59774271
0.30967612
-0.70950685
0.25440512
-0.83096986
0.13559952
-0.94180124
0.077201043
-1.0392613
0.052349822
-1.1332018
0.036583708
-1.2267913
0.02647618
-1.3213159
0.01959431
-1.4184408
0.014979264
-1.5194677
0.011973453
-1.6254695
0.010001182
-1.7375598
0.0086167021
-1.8563215
0.0075368414
-1.9825596
0.0065894552
-2.1171776
0.0056596647
-2.2605651
0.0046343101
-2.4132089
0.0034267613
-2.5752114
0.0018958458
-2.7467587
-0.43454251
-0.50877951
0.15812067
-0.6018622
0.41346971
-0.68640486
0.34456085
-0.78517123
0.20136379
-0.88115841
0.12144635
-0.96866633
0.085219595
-1.0543136
0.061636252
-1.1409547
0.04539712
-1.2287548
0.033873323
-1.3189005
0.025729822
-1.4126159
0.020152745
-1.5110049
0.016334061
-1.6154933
0.013608163
-1.7266883
0.011523194
-1.8448672
0.009814696
-1.9709825
0.0083185923
-2.1057979
0.0069132264
-2.2494526
0.0054787005
-2.4023728
0.0039190124
-2.5646294
0.0021081378
-2.7364046
-0.32803918
-0.53063163
0.2727604
-0.60874298
0.49583547
-0.66996003
0.4196689
-0.74787691
0.25965167
-0.82876754
0.16295334
-0.90607145
0.11708361
-0.98348004
0.086938102
-1.063236
0.065001983
-1.1445455
0.048920938
-1.2279408
0.037182362
-1.3146303
0.028955758
-1.4056971
0.023258868
-1.5025729
0.01918817
-1.6062879
0.01609688
-1.7168121
0.013603238
-1.8345796
0.011494639
-1.9607339
0.0096268107
-2.0957899
0.0078792235
-2.2397576
0.006133976
-2.3928602
0.0042999464
-2.5552866
0.002268815
-2.727278
-0.22575377
-0.55019396
0.36920561
-0.61332038
0.5567871
-0.65624613
0.47864888
-0.71610077
0.30822354
-0.78260843
0.19992385
-0.84992884
0.1468064
-0.91948838
0.11160244
-0.99264194
0.08471879
-1.06785
0.064292608
-1.1448748
0.048956457
-1.2248872
0.038035544
-1.3090277
0.030468876
-1.3986262
0.025107979
-1.4948913
0.021068688
-1.5979221
0.017824569
-1.7077752
0.015102052
-1.8253911
0.012743685
-1.9517248
0.010622739
-2.0870875
0.0086236497
-2.2312754
0.0066379586
-2.384532
0.0045883441
-2.5470482
0.0023853947
-2.7191504
-0.13034809
-0.56459079
0.4459312
-0.61403239
0.59914027
-0.64300469
0.52204464
-0.6875434
0.34607369
-0.74092216
0.23121654
-0.79887519
0.17363654
-0.86117882
0.13498116
-0.92819752
0.10410801
-0.99781089
0.079644087
-1.068953
0.060731481
-1.1426816
0.047067816
-1.2202784
0.037654458
-1.302997
0.03109937
-1.3919776
0.026227642
-1.4876326
0.022321807
-1.5900132
0.019031877
-1.699589
0.016189909
-1.81727
0.013678549
-1.9438747
0.011381914
-2.0795061
0.0091924179
-2.2239135
0.0070172476
-2.3772408
0.0047981242
-2.5397982
0.0024647087
-2.7120084
-0.043772747
-0.57248633
0.50344571
-0.61003843
0.62589334
-0.6288581
0.55081008
-0.66036174
0.37310262
-0.70231218
0.25633638
-0.75179536
0.19716869
-0.80753983
0.15668767
-0.86901242
0.12287616
-0.9335977
0.094754837
-0.99943782
0.072271972
-1.0673309
0.055774806
-1.1386989
0.044518426
-1.2148503
0.03688918
-1.2969136
0.031350961
-1.3854526
0.026926681
-1.4806338
0.023160375
-1.5827158
0.019876785
-1.6922732
0.016982586
-1.8101659
0.014379157
-1.9370565
0.011955955
-2.0729496
0.0096173895
-2.2174976
0.0072911125
-2.3708839
0.0049401714
-2.533417
0.002512022
-2.7056634
0.032742605
-0.57360256
0.54359907
-0.60134473
0.63996392
-0.61288683
0.56603861
-0.63332345
0.39001841
-0.66574286
0.27532235
-0.70782599
0.21728558
-0.75775033
0.17656322
-0.81430379
0.14088306
-0.87446915
0.10953031
-0.9356262
0.083437161
-0.99818934
0.063941022
-1.0636695
0.050791308
-1.1335348
0.042208181
-1.2090484
0.03621242
-1.2908255
0.031468306
-1.3790726
0.027362903
-1.4741074
0.023710557
-1.5761754
0.020462599
-1.6858514
0.017558314
-1.8039966
0.014899486
-1.9311696
0.012380059
-2.0672749
0.0099211423
-2.2119723
0.0074740991
-2.3653359
0.0050233478
-2.5278269
0.0025316615
-2.7000822
0.098610138
-0.56834182
0.56907723
-0.58851055
0.64383175
-0.59466087
0.56926209
-0.60595247
0.39804056
-0.6304939
0.28861855
-0.66632842
0.23409144
-0.71116809
0.19461978
-0.76342335
0.1581247
-0.81977755
0.12399418
-0.87689053
0.094191096
-0.93466847
0.071413321
-0.99463002
0.056235162
-1.0584717
0.046797522
-1.1277137
0.040587295
-1.2031284
0.035778752
-1.2848603
0.031522107
-1.3732039
0.027605862
-1.4682957
0.024048379
-1.5703899
0.020858299
-1.6802554
0.017969855
-1.798682
0.015275964
-1.9261105
0.012678504
-2.0624206
0.010120282
-2.2071887
0.0075778091
-2.3605364
0.0050551789
-2.5229186
0.0025273905
-2.6951412
0.15389537
-0.55767187
0.58297779
-0.57235292
0.63940642
-0.57417024
0.56252045
-0.57833118
0.3985139
-0.59621431
0.29695484
-0.62686269
0.2478479
-0.6673148
0.21098641
-0.71584548
0.17469545
-0.76897006
0.13826819
-0.82268215
0.10459212
-0.8762411
0.078118532
-0.93108452
0.060647757
-0.98914791
0.05040455
-1.0523451
0.044251655
-1.1217585
0.039694921
-1.1974654
0.035532799
-1.2795296
0.031493635
-1.3681036
0.027685072
-1.4632033
0.024224298
-1.5653418
0.021111658
-1.6754379
0.018253244
-1.7941322
0.015533362
-1.9218035
0.012868676
-2.0582686
0.010227745
-2.2031118
0.0076119379
-2.356375
0.0050423384
-2.5186393
0.0025025204
-2.6908135
0.19924407
-0.5428095
0.58813792
-0.55358031
0.62799083
-0.55162502
0.54802236
-0.55062235
0.3928954
-0.56310067
0.30116644
-0.58917694
0.25893302
-0.62586772
0.22586062
-0.67116532
0.19075154
-0.72158137
0.15254425
-0.77251481
0.11477825
-0.82244004
0.0840415
-0.87257317
0.063872209
-0.92512244
0.052796874
-0.98245999
0.046983019
-1.0461445
0.043055651
-1.1162952
0.039302412
-1.1926464
0.035326244
-1.2751493
0.031340892
-1.3637246
0.027620616
-1.4586975
0.024276995
-1.5609615
0.021257413
-1.6713163
0.018433364
-1.7902816
0.015688994
-1.918169
0.012963574
-2.0547645
0.010254097
-2.1996226
0.007585095
-2.352805
0.0049907884
-2.5148927
0.0024600874
-2.6870009
0.23547371
-0.52488862
0.58679095
-0.5328076
0.6107255
-0.52757342
0.52764893
-0.52270983
0.38264104
-0.53131715
0.30179872
-0.55317236
0.26769741
-0.58654481
0.23945025
-0.629073
0.20647633
-0.67722843
0.1670593
-0.72597063
0.12495581
-0.7728496
0.089215265
-0.81867918
0.065776331
-0.86596318
0.053739235
-0.91760611
0.048564035
-0.97576389
0.045704233
-1.0407196
0.042750289
-1.1119039
0.039078692
-1.1888499
0.035013298
-1.2713972
0.031038742
-1.3597751
0.027437728
-1.4547348
0.024240089
-1.5571923
0.021321519
-1.6678353
0.018527641
-1.7870696
0.015755224
-1.9151389
0.012973474
-2.0518258
0.010208615
-2.1967
0.0075049444
-2.3497276
0.004906024
-2.5116501
0.0024028725
-2.6836621
0.26154668
-0.59311642
0.58058414
-0.51058872
0.58880661
-0.50268799
0.50301534
-0.49487839
0.36899069
-0.50053613
0.29929641
-0.51890927
0.27417593
-0.5489275
0.25197295
-0.58930453
0.22204902
-0.63559926
0.18206912
-0.68268459
0.13538208
-0.72710496
0.093726666
-0.76904612
0.066249685
-0.81127404
0.053004937
-0.85735543
0.04873765
-0.91011263
0.047471545
-0.97014517
0.045805587
-1.0366113
0.042748881
-1.1086163
0.038731362
-1.1857145
0.034504189
-1.2680095
0.030593635
-1.3562081
0.027170352
-1.451259
0.024143524
-1.5539877
0.021323329
-1.6649494
0.018548057
-1.7844369
0.015741186
-1.9126623
0.012907062
-2.049416
0.010099481
-2.1942371
0.0073786083
-2.3471168
0.0047931024
-2.5088203
0.0023334591
-2.6807379
0.28135245
-0.61262047
0.559011
-0.56270071
0.56334622
-0.47744066
0.4755001
-0.46756495
0.35266269
-0.47052048
0.29444358
-0.48640225
0.27824407
-0.51291346
0.26374149
-0.55154264
0.23764725
-0.59643289
0.19782393
-0.64234051
0.14634987
-0.68488149
0.097699988
-0.72334735
0.065212529
-0.76072838
0.050376093
-0.8013196
0.047247723
-0.84876119
0.048193276
-0.9040713
0.048397514
-0.9661995
0.046352145
-1.0338154
0.042555344
-1.1060724
0.038079952
-1.1828461
0.033779837
-1.2648159
0.030042741
-1.3529885
0.026857973
-1.4482512
0.024012825
-1.5513161
0.021276293
-1.6626138
0.018502558
-1.7823392
0.015653994
-1.910689
0.012771837
-2.0474639
0.0099343224
-2.1922127
0.0072126522
-2.3448832
0.0046567231
-2.5063767
0.0022542097
-2.6781892
0.29495027
-0.63049652
0.53409753
-0.57886949
0.52431834
-0.5153221
0.4461605
-0.44092463
0.33421379
-0.44154586
0.28761923
-0.45500733
0.28028837
-0.47902483
0.27493292
-0.51554993
0.25353399
-0.55950028
0.2145571
-0.6046552
0.15817187
-0.64588178
0.10128567
-0.6812869
0.062608156
-0.71402353
0.045634299
-0.74916797
0.043861689
-0.79134831
0.047707187
-0.84207861
0.050475847
-0.90017111
0.04992158
-0.96384787
0.046572893
-1.0318568
0.041866791
-1.1037662
0.037071484
-1.1800815
0.032885053
-1.2618525
0.02944379
-1.3501196
0.026539795
-1.4456909
0.023867179
-1.5491488
0.021188493
-1.6607886
0.018396224
-1.7807329
0.015499238
-1.9091768
0.012574659
-2.0459222
0.009720229
-2.1905382
0.0070132454
-2.3429878
0.004501226
-2.5042385
0.0021672955
-2.6759716
0.30298362
-0.64670522
0.50569085
-0.59325849
0.4818559
-0.52802267
0.40660929
-0.46798795
0.31413326
-0.41370616
0.27900036
-0.42479789
0.28127066
-0.44719298
0.28539528
-0.48151507
0.2700477
-0.52464126
0.23248722
-0.56938558
0.17116958
-0.60983324
0.10464975
-0.64258334
0.058396299
-0.67087963
0.038571967
-0.70060845
0.038321176
-0.73751978
0.045822663
-0.7837842
0.051980707
-0.83810958
0.053501818
-0.89826921
0.050897303
-0.96257164
0.046000932
-1.0302552
0.040584946
-1.1015744
0.035763139
-1.1774648
0.031907513
-1.2591317
0.0288612
-1.3476003
0.026248317
-1.4435713
0.023718164
-1.5474577
0.021063458
-1.659442
0.018231801
-1.7795888
0.015281719
-1.9080678
0.012321995
-2.0447387
0.009463964
-2.1891871
0.006786134
-2.3413512
0.0043306243
-2.5023892
0.0020746508
-2.6740383
0.30711589
-0.66111648
0.47318814
-0.60537567
0.43543646
-0.53842478
0.36378529
-0.47731745
0.286019
-0.43219471
0.26903272
-0.39614087
0.28170634
-0.417046
0.29530829
-0.44969843
0.28724315
-0.4917635
0.25178288
-0.53632312
0.18566126
-0.57649059
0.1079646
-0.60697379
0.052549014
-0.63102829
0.028991209
-0.65537028
0.030349899
-0.68696787
0.042343398
-0.72883696
0.052846944
-0.77963943
0.057144568
-0.83667925
0.055655126
-0.89779392
0.050648147
-0.96184614
0.044476626
-1.0288201
0.038784055
-1.0994705
0.034288388
-1.1749601
0.030953553
-1.2566125
0.028352669
-1.345424
0.026004792
-1.441878
0.023569685
-1.5462268
0.020900669
-1.6585564
0.018010713
-1.778856
0.015005864
-1.9073318
0.012020078
-2.0438743
0.0091719596
-2.1880779
0.0065367109
-2.3399277
0.004148554
-2.5007534
0.0019780029
-2.6723716
0.30780341
-0.67284762
0.43584971
-0.61495421
0.38386671
-0.54536235
0.31638992
-0.48305787
0.25453053
-0.43804308
0.25138904
-0.40650659
0.28195575
-0.38879247
0.30494885
-0.41982209
0.30490149
-0.46085346
0.27240645
-0.50517652
0.20192539
-0.54561049
0.11141722
-0.57422686
0.045052659
-0.59422078
0.016711811
-0.61320714
0.019671734
-0.63942395
0.037079809
-0.67693992
0.053027059
-0.72443138
0.060909594
-0.77870589
0.060984693
-0.83713228
0.055995684
-0.89813825
0.048938466
-0.96136935
0.04209628
-1.0274107
0.036662026
-1.0973147
0.03281762
-1.1724832
0.030123573
-1.2543151
0.027959198
-1.3436042
0.025817483
-1.4406159
0.023418326
-1.5454522
0.02069695
-1.6580931
0.017733755
-1.7785065
0.014676036
-1.9069211
0.011675086
-2.043278
0.0088504006
-2.1871561
0.0062699483
-2.3386489
0.0039582985
-2.4993222
0.0018788471
-2.6709314
0.30376813
-0.68105524
0.39269451
-0.62087025
0.3255372
-0.54815255
0.2627547
-0.48367026
0.2186771
-0.43931821
0.23209981
-0.41064555
0.27544402
-0.39207071
0.31463795
-0.39213761
0.3228482
-0.43167453
0.29385574
-0.47547226
0.21967624
-0.51634093
0.11501487
-0.54391993
0.035929399
-0.56026402
0.0015846942
-0.5739026
0.0060193415
-0.5946535
0.029843986
-0.62783119
0.052481284
-0.67220129
0.064863312
-0.7240324
0.067030032
-0.78021734
0.062243218
-0.83875148
0.054191007
-0.89884949
0.045887675
-0.9608539
0.039142282
-1.0257672
0.034481835
-1.0949536
0.0315183
-1.1700198
0.029493397
-1.2522535
0.027700225
-1.3421665
0.02568163
-1.4397999
0.023255301
-1.5451111
0.020447645
-1.6580258
0.017401709
-1.7784952
0.01429686
-1.9068028
0.011293157
-2.0428897
0.0085051273
-2.1863521
0.0059904108
-2.3374878
0.0037627604
-2.4980419
0.0017784868
-2.6697118
0.29409034
-0.68520549
0.342718
-0.62225658
0.26019914
-0.54703276
0.20220766
-0.4794698
0.17746718
-0.4344798
0.21138183
-0.41044331
0.2695414
-0.39680323
0.31821353
-0.38909479
0.34083334
-0.40440292
0.31561842
-0.44696943
0.2378193
-0.48740401
0.11824485
-0.51467566
0.024862097
-0.52839528
-0.016501332
-0.53730605
-0.010870918
-0.55244806
0.020458572
-0.58128782
0.051187358
-0.62270759
0.069079744
-0.67238143
0.073929122
-0.72671153
0.0695914
-0.7832924
0.060473389
-0.84086715
0.050381229
-0.89940368
0.041881557
-0.95981359
0.036004945
-1.0235489
0.032511086
-1.0922967
0.030523199
-1.1676154
0.029104503
-1.2504945
0.027572919
-1.3411527
0.025582213
-1.4394301
0.023068456
-1.5451854
0.020147819
-1.6583158
0.017015957
-1.7787963
0.013873307
-1.9069204
0.010880349
-2.0426535
0.0081416427
-2.1856395
0.0057022085
-2.3364028
0.0035644926
-2.4969329
0.0016780219
-2.6686743
0.27841547
-0.68486929
0.28589192
-0.61955528
0.18935706
-0.54288953
0.13583193
-0.47245013
0.13074112
-0.42467744
0.18947783
-0.40438415
0.26531877
-0.39829118
0.32350879
-0.39553034
0.35380498
-0.39610809
0.33705031
-0.41971966
0.25544134
-0.45874732
0.12043136
-0.4850535
0.010549427
-0.49625257
-0.037917734
-0.50239788
-0.031260741
-0.51266095
0.0087505444
-0.537108
0.049147301
-0.57575268
0.073643059
-0.6235221
0.081809673
-0.67632406
0.078229098
-0.73139418
0.06803084
-0.7870115
0.055828526
-0.84267525
0.04506994
-0.89908852
0.037477514
-0.95780747
0.033095222
-1.0206979
0.030970257
-1.0894603
0.029911747
-1.1653822
0.028961466
-1.2491088
0.02755596
-1.3405903
0.025497276
-1.4395018
0.022844439
-1.5456466
0.019793357
-1.6589424
0.016578751
-1.779356
0.013410709
-1.9072302
0.010442582
-2.042532
0.007765022
-2.1849679
0.00540901
-2.335395
0.0033656804
-2.4959482
0.0015783943
-2.6678293
-0.67975446
0.25651615
0.22339499
-0.61354428
0.11544327
-0.53709244
0.065956952
-0.46474514
0.079703511
-0.41326963
0.16635847
-0.39334442
0.26427321
-0.39544181
0.33157414
-0.39979662
0.36844417
-0.4040947
0.35672302
-0.40939683
0.27194833
-0.43074373
0.12103523
-0.45513605
-0.0080482037
-0.46265637
-0.063904542
-0.46595851
-0.055204178
-0.47448317
-0.0054599148
-0.49513765
0.046393321
-0.53116481
0.07865188
-0.57727347
0.090784067
-0.62880983
0.088319192
-0.68274189
0.077101591
-0.7369199
0.062501566
-0.79030974
0.048932363
-0.84328717
0.039022418
-0.89740221
0.033284364
-0.95475941
0.030763345
-1.0173487
0.029999695
-1.0866113
0.029704626
-1.1634456
0.029037483
-1.2481724
0.027615018
-1.3405012
0.025401673
-1.4400024
0.022570677
-1.5464787
0.019381649
-1.6598566
0.016093347
-1.7801385
0.012914667
-1.9076869
0.0099855503
-2.0424645
0.0073799162
-2.1843144
0.0051140263
-2.3344306
0.0031682042
-2.4951197
0.0014803768
-2.6671423
-0.60504288
0.15751764
-0.67064867
0.22886963
0.0412268
-0.53075639
-0.0037820198
-0.45903176
0.026766213
-0.40359955
0.14185655
-0.38054373
0.26698638
-0.38821054
0.34410413
-0.40143296
0.38517391
-0.41033898
0.37787487
-0.41865642
0.29322621
-0.42502761
0.12077627
-0.42656417
-0.030056883
-0.42960012
-0.095390829
-0.42712382
-0.082178937
-0.43527602
-0.021892619
-0.45502997
0.042987659
-0.4888214
0.084225536
-0.5334861
0.10094487
-0.58397234
0.099988702
-0.63705988
0.087899747
-0.69025958
0.070682247
-0.74196538
0.053726386
-0.79208206
0.040794973
-0.84205456
0.033113245
-0.89419171
0.029839395
-0.95083402
0.029243309
-1.0137418
0.029648954
-1.0839457
0.029871144
-1.1619369
0.029282775
-1.2477367
0.027708873
-1.340892
0.025270458
-1.440923
0.022236749
-1.5476385
0.01891195
-1.6610233
0.015563934
-1.781095
0.012390959
-1.908227
0.0095146732
-2.0424117
0.0069904978
-2.1836442
0.0048200623
-2.333546
0.0029736226
-2.4944116
0.0013846164
-2.6666251
-0.52502302
-0.030201568
-0.59530245
0.091014079
-0.6587561
0.19675055
-0.070323201
-0.45585224
-0.025691285
-0.39831369
0.11638057
-0.36989934
0.2725551
-0.37832785
0.36242645
-0.40002441
0.40486032
-0.414827
0.4004522
-0.42613249
0.31585774
-0.43548022
0.13110706
-0.43137464
-0.053416549
-0.3999135
-0.13054186
-0.39065678
-0.11147432
-0.39436927
-0.038841571
-0.41556793
0.039224784
-0.44860912
0.090506097
-0.49206432
0.11236191
-0.54164467
0.11331363
-0.59410529
0.10060257
-0.64672422
0.080650692
-0.6973132
0.059737822
-0.74516219
0.042983111
-0.7914828
0.032637894
-0.83875498
0.028143169
-0.88964853
0.027515483
-0.94633974
0.028631391
-1.0101728
0.029886168
-1.0816679
0.03034258
-1.1609529
0.029634731
-1.247842
0.027795131
-1.3417684
0.025081438
-1.442229
0.021835215
-1.5490923
0.018385436
-1.6623954
0.014995554
-1.7821789
0.011845415
-1.9088071
0.0090349879
-2.0423338
0.0066004964
-2.1829846
0.0045294837
-2.3327196
0.0027832466
-2.4938715
0.0012916277
-2.6662394
-0.45519413
-0.13175982
-0.52069582
-0.096198756
-0.58518483
0.026296273
-0.64485801
0.16160442
-0.075808205
-0.39743695
0.090205631
-0.36392379
0.27913137
-0.36876148
0.38649164
-0.39592033
0.42849853
-0.41727602
0.42453604
-0.4319522
0.33949269
-0.44381571
0.1415288
-0.44182691
-0.06648257
-0.41498465
-0.16762392
-0.35928871
-0.1428241
-0.35608725
-0.054658818
-0.37602456
0.036393737
-0.41030484
0.097671303
-0.45293242
0.12508558
-0.50171557
0.12831293
-0.55366015
0.11532851
-0.60601662
0.09267292
-0.65603543
0.067278197
-0.70222898
0.045807327
-0.74540475
0.03193526
-0.78817897
0.025626206
-0.8335824
0.024686464
-0.88416658
0.026480468
-0.94167928
0.028898372
-1.0069229
0.03061904
-1.0799414
0.031027923
-1.1605756
0.03002686
-1.2485095
0.027834556
-1.3431052
0.024816771
-1.4438878
0.021361929
-1.5507932
0.01780515
-1.6639373
0.014393869
-1.7833415
0.011283757
-1.9093826
0.0085511461
-2.0422327
0.0062131504
-2.1823197
0.0042443162
-2.3320223
0.0025981184
-2.4934564
0.0012018254
-2.6660052
-0.39957822
-0.12310301
-0.45707207
-0.18697338
-0.51748263
-0.15527511
-0.57501728
-0.034677657
-0.62980845
0.12489259
0.064233345
-0.36326767
0.28427341
-0.36142543
0.41461246
-0.39044805
0.45663826
-0.41759234
0.45020617
-0.43583408
0.36339568
-0.44977764
0.15152172
-0.44965632
-0.078568359
-0.42634864
-0.20126882
-0.37776758
-0.17568881
-0.32343309
-0.070164898
-0.33825575
0.036096397
-0.3734942
0.10613059
-0.41610458
0.13912885
-0.46407544
0.14494198
-0.51555229
0.13213506
-0.56785971
0.10698092
-0.6178032
0.07667831
-0.66298575
0.049521913
-0.70354784
0.031104158
-0.74219061
0.022245383
-0.78235696
0.020622569
-0.82700536
0.023017051
-0.878232
0.02671259
-0.93723785
0.029921831
-1.0042451
0.031719066
-1.0788835
0.031828156
-1.1608494
0.030396078
-1.2497342
0.027793961
-1.3448737
0.02446378
-1.4458523
0.020816089
-1.5527082
0.017175696
-1.6656015
0.013764955
-1.7845356
0.010711526
-1.9099345
0.0080673421
-2.0420903
0.0058312839
-2.1817064
0.0039661951
-2.3314235
0.0024190789
-2.4931978
0.0011155107
-2.6658868
-0.36564114
0.038466724
-0.40430187
-0.16754362
-0.460614
-0.235427
-0.51498788
-0.20666381
-0.56514824
-0.090454697
-0.61435735
0.087954733
0.28659665
-0.35802431
0.44399767
-0.3844146
0.48874009
-0.41601702
0.47755282
-0.43769873
0.38693489
-0.45318791
0.16027921
-0.45430872
-0.09057944
-0.43418432
-0.23395716
-0.38997506
-0.21673243
-0.33372578
-0.086402206
-0.30504433
0.038324307
-0.33842053
0.11667141
-0.38154456
0.15445626
-0.42869405
0.16307825
-0.47959771
0.15099467
-0.53199803
0.12377133
-0.58230533
0.088283135
-0.62711951
0.054413599
-0.66564892
0.030263815
-0.70052584
0.017960611
-0.73568109
0.015183971
-0.77458269
0.018054391
-0.81966724
0.023125616
-0.8724029
0.028049658
-0.93337303
0.031523757
-1.0023073
0.033043767
-1.0785831
0.032647456
-1.1617925
0.03068732
-1.2514894
0.027647774
-1.3470268
0.024015188
-1.4480875
0.020199875
-1.5547869
0.01650295
-1.667338
0.013115128
-1.7857287
0.010133943
-1.910436
0.0075873307
-2.04192
0.0054572704
-2.1811355
0.0036964771
-2.3309666
0.0022467553
-2.4930533
0.0010329017
-2.6659016
-0.35851436
0.28696538
-0.36955314
0.011855856
-0.41107137
-0.20876381
-0.46507914
-0.27693153
-0.51300783
-0.2501502
-0.55583398
-0.14007561
-0.59907743
0.051890275
0.47173981
-0.37940621
0.52394081
-0.4130365
0.50649215
-0.43761551
0.40954021
-0.45402979
0.16757981
-0.45619396
-0.10288854
-0.43846918
-0.26549552
-0.39885901
-0.25885817
-0.34473787
-0.12178056
-0.29621195
0.041796774
-0.30659602
0.12968226
-0.34909866
0.17104318
-0.39554903
0.18253993
-0.44570613
0.17179862
-0.49816694
0.14316633
-0.54921333
0.10244966
-0.59433419
0.060805556
-0.63143393
0.02955424
-0.66294052
0.012731066
-0.69328264
0.0082199911
-0.72658847
0.011397018
-0.76570272
0.017928885
-0.81227288
0.024795055
-0.86712261
0.030247394
-0.93033047
0.033503933
-1.0012488
0.034453419
-1.0790781
0.033400695
-1.1633905
0.030856449
-1.2537347
0.027378654
-1.3495247
0.023468767
-1.4505377
0.019518065
-1.5569857
0.015793722
-1.6691094
0.012450698
-1.7868925
0.0095558804
-1.9108753
0.0071144146
-2.0417368
0.0050930999
-2.1806521
0.0034361962
-2.3306099
0.0020816368
-2.4930545
0.00095413797
-2.6660154
-0.37723851
0.49679152
-0.36049475
0.28533872
-0.37598593
-0.015128858
-0.41934813
-0.2461969
-0.47003506
-0.31152644
-0.51144213
-0.28587624
-0.54726138
-0.18296605
-0.58449516
0.017475331
0.56048344
-0.40934471
0.53668155
-0.43581481
0.43071356
-0.45244536
0.17320696
-0.45530321
-0.11568143
-0.4398039
-0.29549607
-0.40459472
-0.30041642
-0.35408895
-0.16199367
-0.30231872
0.025589022
-0.27810747
0.14528776
-0.32001653
0.18884625
-0.3644723
0.20304723
-0.41376153
0.19438546
-0.46622322
0.16525594
-0.51823018
0.11953285
-0.56429902
0.069054222
-0.60064223
0.029127642
-0.62917333
0.0065247392
-0.65491674
-0.00042916458
-0.68271192
0.0028389306
-0.71598554
0.010911218
-0.75657769
0.019950159
-0.8053809
0.02769163
-0.86273345
0.03302963
-0.92830239
0.035664904
-1.0011418
0.035822515
-1.0803815
0.034017808
-1.1656083
0.030871265
-1.2564216
0.026977176
-1.352306
0.022826799
-1.4531589
0.018777463
-1.5592591
0.0150554
-1.6708862
0.011777839
-1.7880051
0.0089817825
-1.9112717
0.0066514103
-2.0415634
0.0047403808
-2.1802408
0.003186196
-2.3304069
0.0019240654
-2.4931623
0.00087932057
-2.6662441
-0.40586814
0.59572062
-0.3763662
0.51896417
-0.36565943
0.28238841
-0.38487443
-0.04154451
-0.42877083
-0.27920457
-0.47519907
-0.33943323
-0.51022505
-0.31423532
-0.53950956
-0.21899936
-0.57121924
-0.014090389
0.56743593
-0.43265033
0.4499407
-0.44864845
0.17693671
-0.45177383
-0.12895094
-0.4383741
-0.32396863
-0.40738265
-0.34015875
-0.36155837
-0.20520697
-0.30860702
0.0043786701
-0.27915724
0.14711663
-0.27777392
0.2081606
-0.33705174
0.22433222
-0.38361043
0.21854727
-0.43600519
0.1900734
-0.48915596
0.13995145
-0.536782
0.079601183
-0.57302937
0.029166422
-0.59899447
-0.00070028796
-0.62030943
-0.010962287
-0.64265404
-0.0078388931
-0.67017405
0.0018618617
-0.70496121
0.01331297
-0.74791153
0.023661929
-0.7994369
0.031439552
-0.85951614
0.036124021
-0.92742129
0.037828168
-1.0020203
0.037046114
-1.0824566
0.034445766
-1.1683944
0.030711447
-1.2594858
0.026441131
-1.3553179
0.022095274
-1.4558972
0.017986395
-1.5615768
0.014295643
-1.6726395
0.011102433
-1.7890767
0.0084155882
-1.9116288
0.006200731
-2.0414378
0.0044004394
-2.1799534
0.0029470862
-2.3303192
0.0017742612
-2.4933912
0.00080847211
-2.6665546
-0.42858951
0.59760961
-0.40145771
0.62740372
-0.37952112
0.5391056
-0.37337382
0.27821374
-0.3965763
-0.065727931
-0.43897658
-0.30722882
-0.48025407
-0.36112703
-0.50924174
-0.33581237
-0.532958
-0.2482762
-0.55952169
-0.042290238
0.46668534
-0.44297122
0.1785098
-0.44578608
-0.14257326
-0.43443709
-0.35080671
-0.4075229
-0.37691673
-0.3672642
-0.24930555
-0.31513322
-0.02191141
-0.28031171
0.14934397
-0.27913441
0.21732188
-0.2846886
0.24641732
-0.35713156
0.24415928
-0.40744284
0.21753377
-0.46171135
0.16399709
-0.5114544
0.093004237
-0.54848166
0.030006952
-0.57231611
-0.0089837772
-0.58923249
-0.023602189
-0.60611205
-0.020881776
-0.62792576
-0.0094296424
-0.65705978
0.0046944866
-0.69438625
0.017976334
-0.74025908
0.028558115
-0.79481851
0.035670826
-0.85766238
0.039284313
-0.9277352
0.039843378
-1.0038568
0.038042955
-1.0852574
0.034648505
-1.1716764
0.030367539
-1.26286
0.025774426
-1.3584976
0.021283104
-1.4587169
0.017154147
-1.5639001
0.013522108
-1.6743658
0.010429894
-1.7901002
0.0078607875
-1.9120078
0.0057643736
-2.041374
0.004074318
-2.1797727
0.0027193143
-2.3303701
0.0016322147
-2.4936925
0.00074145962
-2.6669627
-0.43587571
0.48040495
-0.42215081
0.62572757
-0.40055923
0.65499929
-0.384736
0.55672705
-0.38424758
0.27316623
-0.40998159
-0.086762677
-0.44947612
-0.3298855
-0.48491344
-0.37725559
-0.50831472
-0.35175081
-0.5272502
-0.27152636
-0.54907782
-0.068073881
0.17768752
-0.43769296
-0.15634965
-0.42825117
-0.37572985
-0.40544427
-0.41010589
-0.3709214
-0.29260676
-0.32158444
-0.052145282
-0.28283895
0.14956509
-0.27820136
0.23053373
-0.29000163
0.25887455
-0.29518545
0.2708388
-0.38215556
0.24721886
-0.4354956
0.19123415
-0.48731268
0.10931686