/*--------------------------------*- C++ -*----------------------------------*\
| =========                 |                                                 |
| \\      /  F ield         | OpenFOAM: The Open Source CFD Toolbox           |
|  \\    /   O peration     | Version:  v2012                                 |
|   \\  /    A nd           | Website:  www.openfoam.com                      |
|    \\/     M anipulation  |                                                 |
\*---------------------------------------------------------------------------*/
FoamFile
{
    version     2.0;
    format      ascii;
    class       pointVectorField;
    location    "30.0070385386842844";
    object      pointDisplacement;
}
// * * * * * * * * * * * * * * * * * * * * * * * * * * * * * * * * * * * * * //

dimensions      [0 1 0 0 0 0 0];


internalField   nonuniform List<vector> 
18840
(
(1.6113294 0 0)
(1.6111489 0 0)
(1.6106127 0 0)
(1.6097308 0 0)
(1.6085112 0 0)
(1.6069595 0 0)
(1.6050802 0 0)
(1.6028763 0 0)
(1.60035 0 0)
(1.5975026 0 0)
(1.5943344 0 0)
(1.590845 0 0)
(1.5870337 0 0)
(1.5828992 0 0)
(1.5784393 0 0)
(1.573652 0 0)
(1.5685345 0 0)
(1.5630844 0 0)
(1.5572991 0 0)
(1.5511823 0 0)
(1.543457 0 0)
(1.6113294 0 0)
(1.6111487 0 0)
(1.610612 0 0)
(1.609729 0 0)
(1.6085075 0 0)
(1.6069531 0 0)
(1.6050701 0 0)
(1.6028617 0 0)
(1.6003301 0 0)
(1.5974763 0 0)
(1.594301 0 0)
(1.5908038 0 0)
(1.586984 0 0)
(1.5828404 0 0)
(1.578371 0 0)
(1.5735739 0 0)
(1.5684465 0 0)
(1.5629861 0 0)
(1.5571899 0 0)
(1.5510581 0 0)
(1.5445782 0 0)
(1.6113294 0 0)
(1.6111483 0 0)
(1.6106102 0 0)
(1.6097247 0 0)
(1.6084995 0 0)
(1.6069402 0 0)
(1.6050508 0 0)
(1.6028347 0 0)
(1.600294 0 0)
(1.5974298 0 0)
(1.5942428 0 0)
(1.5907329 0 0)
(1.5868993 0 0)
(1.5827409 0 0)
(1.5782559 0 0)
(1.5734425 0 0)
(1.568298 0 0)
(1.5628198 0 0)
(1.5570046 0 0)
(1.5508491 0 0)
(1.5442512 0 0)
(1.6113294 0 0)
(1.611148 0 0)
(1.6106088 0 0)
(1.6097212 0 0)
(1.6084927 0 0)
(1.6069288 0 0)
(1.6050335 0 0)
(1.6028101 0 0)
(1.6002606 0 0)
(1.5973864 0 0)
(1.594188 0 0)
(1.5906656 0 0)
(1.5868183 0 0)
(1.5826453 0 0)
(1.5781448 0 0)
(1.5733153 0 0)
(1.5681543 0 0)
(1.5626592 0 0)
(1.5568272 0 0)
(1.5506559 0 0)
(1.5439659 0 0)
(1.6113294 0 0)
(1.6111477 0 0)
(1.6106076 0 0)
(1.6097182 0 0)
(1.6084868 0 0)
(1.6069187 0 0)
(1.6050178 0 0)
(1.6027874 0 0)
(1.6002294 0 0)
(1.5973453 0 0)
(1.5941357 0 0)
(1.5906007 0 0)
(1.5867396 0 0)
(1.5825519 0 0)
(1.5780358 0 0)
(1.57319 0 0)
(1.5680123 0 0)
(1.5625005 0 0)
(1.5566522 0 0)
(1.5504659 0 0)
(1.5436932 0 0)
(1.6113294 0 0)
(1.6111476 0 0)
(1.6106068 0 0)
(1.6097157 0 0)
(1.6084817 0 0)
(1.6069097 0 0)
(1.6050036 0 0)
(1.6027664 0 0)
(1.6002001 0 0)
(1.5973062 0 0)
(1.5940852 0 0)
(1.5905374 0 0)
(1.5866623 0 0)
(1.5824593 0 0)
(1.577927 0 0)
(1.5730642 0 0)
(1.5678689 0 0)
(1.5623395 0 0)
(1.5564737 0 0)
(1.5502708 0 0)
(1.5434225 0 0)
(1.6113294 0 0)
(1.6111475 0 0)
(1.6106062 0 0)
(1.609714 0 0)
(1.6084775 0 0)
(1.6069019 0 0)
(1.6049908 0 0)
(1.602747 0 0)
(1.6001725 0 0)
(1.5972688 0 0)
(1.5940363 0 0)
(1.5904754 0 0)
(1.5865857 0 0)
(1.5823667 0 0)
(1.5778171 0 0)
(1.5729361 0 0)
(1.5677216 0 0)
(1.5621725 0 0)
(1.5562869 0 0)
(1.5500643 0 0)
(1.5431466 0 0)
(1.6113294 0 0)
(1.6111474 0 0)
(1.6106059 0 0)
(1.6097126 0 0)
(1.608474 0 0)
(1.606895 0 0)
(1.6049791 0 0)
(1.6027291 0 0)
(1.6001465 0 0)
(1.597233 0 0)
(1.5939889 0 0)
(1.5904146 0 0)
(1.5865097 0 0)
(1.5822738 0 0)
(1.5777059 0 0)
(1.5728049 0 0)
(1.5675693 0 0)
(1.561998 0 0)
(1.5560893 0 0)
(1.5498429 0 0)
(1.5428614 0 0)
(1.6113294 0 0)
(1.6111475 0 0)
(1.6106056 0 0)
(1.6097115 0 0)
(1.608471 0 0)
(1.6068887 0 0)
(1.6049683 0 0)
(1.6027121 0 0)
(1.6001219 0 0)
(1.5971986 0 0)
(1.593943 0 0)
(1.5903549 0 0)
(1.5864344 0 0)
(1.5821807 0 0)
(1.5775932 0 0)
(1.5726706 0 0)
(1.5674118 0 0)
(1.5618153 0 0)
(1.55588 0 0)
(1.5496052 0 0)
(1.5425657 0 0)
(1.6113294 0 0)
(1.6111475 0 0)
(1.6106055 0 0)
(1.6097106 0 0)
(1.6084682 0 0)
(1.6068829 0 0)
(1.6049582 0 0)
(1.6026961 0 0)
(1.6000982 0 0)
(1.5971654 0 0)
(1.5938981 0 0)
(1.5902963 0 0)
(1.5863596 0 0)
(1.5820874 0 0)
(1.577479 0 0)
(1.5725331 0 0)
(1.5672487 0 0)
(1.5616242 0 0)
(1.5556586 0 0)
(1.5493509 0 0)
(1.542259 0 0)
(1.6113294 0 0)
(1.6111472 0 0)
(1.6106041 0 0)
(1.6097067 0 0)
(1.6084605 0 0)
(1.6068695 0 0)
(1.6049371 0 0)
(1.6026654 0 0)
(1.6000557 0 0)
(1.5971086 0 0)
(1.5938245 0 0)
(1.590203 0 0)
(1.5862439 0 0)
(1.5819461 0 0)
(1.577309 0 0)
(1.5723313 0 0)
(1.5670117 0 0)
(1.561349 0 0)
(1.5553418 0 0)
(1.5489887 0 0)
(1.5418448 0 0)
(1.6113294 0 0)
(1.6111489 0 0)
(1.6106127 0 0)
(1.6097308 0 0)
(1.6085112 0 0)
(1.6069595 0 0)
(1.6050802 0 0)
(1.6028763 0 0)
(1.60035 0 0)
(1.5975026 0 0)
(1.5943344 0 0)
(1.590845 0 0)
(1.5870337 0 0)
(1.5828992 0 0)
(1.5784393 0 0)
(1.573652 0 0)
(1.5685345 0 0)
(1.5630844 0 0)
(1.5572991 0 0)
(1.5511823 0 0)
(1.543457 0 0)
(1.6113294 0 0)
(1.6111487 0 0)
(1.610612 0 0)
(1.609729 0 0)
(1.6085075 0 0)
(1.6069531 0 0)
(1.6050701 0 0)
(1.6028617 0 0)
(1.6003301 0 0)
(1.5974763 0 0)
(1.594301 0 0)
(1.5908038 0 0)
(1.586984 0 0)
(1.5828404 0 0)
(1.578371 0 0)
(1.5735739 0 0)
(1.5684465 0 0)
(1.5629861 0 0)
(1.5571899 0 0)
(1.5510581 0 0)
(1.5445782 0 0)
(1.6113294 0 0)
(1.6111483 0 0)
(1.6106102 0 0)
(1.6097247 0 0)
(1.6084995 0 0)
(1.6069402 0 0)
(1.6050508 0 0)
(1.6028347 0 0)
(1.600294 0 0)
(1.5974298 0 0)
(1.5942428 0 0)
(1.5907329 0 0)
(1.5868993 0 0)
(1.5827409 0 0)
(1.5782559 0 0)
(1.5734425 0 0)
(1.568298 0 0)
(1.5628198 0 0)
(1.5570046 0 0)
(1.5508491 0 0)
(1.5442512 0 0)
(1.6113294 0 0)
(1.611148 0 0)
(1.6106088 0 0)
(1.6097212 0 0)
(1.6084927 0 0)
(1.6069288 0 0)
(1.6050335 0 0)
(1.6028101 0 0)
(1.6002606 0 0)
(1.5973864 0 0)
(1.594188 0 0)
(1.5906656 0 0)
(1.5868183 0 0)
(1.5826453 0 0)
(1.5781448 0 0)
(1.5733153 0 0)
(1.5681543 0 0)
(1.5626592 0 0)
(1.5568272 0 0)
(1.5506559 0 0)
(1.5439659 0 0)
(1.6113294 0 0)
(1.6111477 0 0)
(1.6106076 0 0)
(1.6097182 0 0)
(1.6084868 0 0)
(1.6069187 0 0)
(1.6050178 0 0)
(1.6027874 0 0)
(1.6002294 0 0)
(1.5973453 0 0)
(1.5941357 0 0)
(1.5906007 0 0)
(1.5867396 0 0)
(1.5825519 0 0)
(1.5780358 0 0)
(1.57319 0 0)
(1.5680123 0 0)
(1.5625005 0 0)
(1.5566522 0 0)
(1.5504659 0 0)
(1.5436932 0 0)
(1.6113294 0 0)
(1.6111476 0 0)
(1.6106068 0 0)
(1.6097157 0 0)
(1.6084817 0 0)
(1.6069097 0 0)
(1.6050036 0 0)
(1.6027664 0 0)
(1.6002001 0 0)
(1.5973062 0 0)
(1.5940852 0 0)
(1.5905374 0 0)
(1.5866623 0 0)
(1.5824593 0 0)
(1.577927 0 0)
(1.5730642 0 0)
(1.5678689 0 0)
(1.5623395 0 0)
(1.5564737 0 0)
(1.5502708 0 0)
(1.5434225 0 0)
(1.6113294 0 0)
(1.6111475 0 0)
(1.6106062 0 0)
(1.609714 0 0)
(1.6084775 0 0)
(1.6069019 0 0)
(1.6049908 0 0)
(1.602747 0 0)
(1.6001725 0 0)
(1.5972688 0 0)
(1.5940363 0 0)
(1.5904754 0 0)
(1.5865857 0 0)
(1.5823667 0 0)
(1.5778171 0 0)
(1.5729361 0 0)
(1.5677216 0 0)
(1.5621725 0 0)
(1.5562869 0 0)
(1.5500643 0 0)
(1.5431466 0 0)
(1.6113294 0 0)
(1.6111474 0 0)
(1.6106059 0 0)
(1.6097126 0 0)
(1.608474 0 0)
(1.606895 0 0)
(1.6049791 0 0)
(1.6027291 0 0)
(1.6001465 0 0)
(1.597233 0 0)
(1.5939889 0 0)
(1.5904146 0 0)
(1.5865097 0 0)
(1.5822738 0 0)
(1.5777059 0 0)
(1.5728049 0 0)
(1.5675693 0 0)
(1.561998 0 0)
(1.5560893 0 0)
(1.5498429 0 0)
(1.5428614 0 0)
(1.6113294 0 0)
(1.6111475 0 0)
(1.6106056 0 0)
(1.6097115 0 0)
(1.608471 0 0)
(1.6068887 0 0)
(1.6049683 0 0)
(1.6027121 0 0)
(1.6001219 0 0)
(1.5971986 0 0)
(1.593943 0 0)
(1.5903549 0 0)
(1.5864344 0 0)
(1.5821807 0 0)
(1.5775932 0 0)
(1.5726706 0 0)
(1.5674118 0 0)
(1.5618153 0 0)
(1.55588 0 0)
(1.5496052 0 0)
(1.5425657 0 0)
(1.6113294 0 0)
(1.6111475 0 0)
(1.6106055 0 0)
(1.6097106 0 0)
(1.6084682 0 0)
(1.6068829 0 0)
(1.6049582 0 0)
(1.6026961 0 0)
(1.6000982 0 0)
(1.5971654 0 0)
(1.5938981 0 0)
(1.5902963 0 0)
(1.5863596 0 0)
(1.5820874 0 0)
(1.577479 0 0)
(1.5725331 0 0)
(1.5672487 0 0)
(1.5616242 0 0)
(1.5556586 0 0)
(1.5493509 0 0)
(1.542259 0 0)
(1.6113294 0 0)
(1.6111472 0 0)
(1.6106041 0 0)
(1.6097067 0 0)
(1.6084605 0 0)
(1.6068695 0 0)
(1.6049371 0 0)
(1.6026654 0 0)
(1.6000557 0 0)
(1.5971086 0 0)
(1.5938245 0 0)
(1.590203 0 0)
(1.5862439 0 0)
(1.5819461 0 0)
(1.577309 0 0)
(1.5723313 0 0)
(1.5670117 0 0)
(1.561349 0 0)
(1.5553418 0 0)
(1.5489887 0 0)
(1.5418448 0 0)
(1.6113294 0 0)
(1.6111463 0 0)
(1.6106031 0 0)
(1.6097105 0 0)
(1.608477 0 0)
(1.6069092 0 0)
(1.605012 0 0)
(1.6027889 0 0)
(1.6002421 0 0)
(1.5973728 0 0)
(1.5941816 0 0)
(1.590668 0 0)
(1.5868312 0 0)
(1.5826693 0 0)
(1.5781804 0 0)
(1.5733616 0 0)
(1.56821 0 0)
(1.5627216 0 0)
(1.5568925 0 0)
(1.5507248 0 0)
(1.5436525 0 0)
(1.6113294 0 0)
(1.6111463 0 0)
(1.6106031 0 0)
(1.6097107 0 0)
(1.6084774 0 0)
(1.6069098 0 0)
(1.6050131 0 0)
(1.6027905 0 0)
(1.6002444 0 0)
(1.597376 0 0)
(1.5941858 0 0)
(1.5906733 0 0)
(1.5868377 0 0)
(1.5826771 0 0)
(1.5781894 0 0)
(1.5733718 0 0)
(1.568221 0 0)
(1.5627333 0 0)
(1.5569046 0 0)
(1.5507369 0 0)
(1.5436697 0 0)
(1.6113294 0 0)
(1.6111461 0 0)
(1.6106024 0 0)
(1.6097091 0 0)
(1.6084746 0 0)
(1.6069057 0 0)
(1.6050073 0 0)
(1.602783 0 0)
(1.600235 0 0)
(1.5973646 0 0)
(1.5941723 0 0)
(1.5906576 0 0)
(1.5868196 0 0)
(1.5826565 0 0)
(1.578166 0 0)
(1.5733453 0 0)
(1.5681912 0 0)
(1.5626997 0 0)
(1.5568666 0 0)
(1.5506936 0 0)
(1.5436405 0 0)
(1.6113294 0 0)
(1.6111461 0 0)
(1.6106022 0 0)
(1.6097087 0 0)
(1.608474 0 0)
(1.6069048 0 0)
(1.6050061 0 0)
(1.6027814 0 0)
(1.6002331 0 0)
(1.5973624 0 0)
(1.5941698 0 0)
(1.5906547 0 0)
(1.5868163 0 0)
(1.5826527 0 0)
(1.5781617 0 0)
(1.5733403 0 0)
(1.5681852 0 0)
(1.5626925 0 0)
(1.5568577 0 0)
(1.5506819 0 0)
(1.5436573 0 0)
(1.6113294 0 0)
(1.6111462 0 0)
(1.6106026 0 0)
(1.6097096 0 0)
(1.6084755 0 0)
(1.606907 0 0)
(1.6050091 0 0)
(1.6027853 0 0)
(1.600238 0 0)
(1.5973683 0 0)
(1.5941769 0 0)
(1.5906631 0 0)
(1.586826 0 0)
(1.5826637 0 0)
(1.5781741 0 0)
(1.573354 0 0)
(1.5682002 0 0)
(1.5627084 0 0)
(1.5568742 0 0)
(1.5506979 0 0)
(1.5437162 0 0)
(1.6113294 0 0)
(1.6111464 0 0)
(1.6106035 0 0)
(1.6097114 0 0)
(1.6084787 0 0)
(1.6069118 0 0)
(1.6050158 0 0)
(1.6027941 0 0)
(1.600249 0 0)
(1.5973817 0 0)
(1.5941928 0 0)
(1.5906818 0 0)
(1.5868475 0 0)
(1.5826882 0 0)
(1.5782017 0 0)
(1.5733848 0 0)
(1.5682341 0 0)
(1.5627453 0 0)
(1.5569142 0 0)
(1.5507398 0 0)
(1.543815 0 0)
(1.6113294 0 0)
(1.6111468 0 0)
(1.6106048 0 0)
(1.6097142 0 0)
(1.6084835 0 0)
(1.6069192 0 0)
(1.6050259 0 0)
(1.6028073 0 0)
(1.6002654 0 0)
(1.5974018 0 0)
(1.5942166 0 0)
(1.5907095 0 0)
(1.5868793 0 0)
(1.5827246 0 0)
(1.5782427 0 0)
(1.5734307 0 0)
(1.5682849 0 0)
(1.5628016 0 0)
(1.5569758 0 0)
(1.5508058 0 0)
(1.5439522 0 0)
(1.6113294 0 0)
(1.6111472 0 0)
(1.6106065 0 0)
(1.6097179 0 0)
(1.6084898 0 0)
(1.6069287 0 0)
(1.6050388 0 0)
(1.602824 0 0)
(1.6002862 0 0)
(1.5974269 0 0)
(1.5942462 0 0)
(1.5907441 0 0)
(1.586919 0 0)
(1.5827697 0 0)
(1.5782936 0 0)
(1.5734879 0 0)
(1.5683489 0 0)
(1.5628729 0 0)
(1.5570549 0 0)
(1.5508924 0 0)
(1.5441243 0 0)
(1.6113294 0 0)
(1.6111478 0 0)
(1.6106086 0 0)
(1.6097223 0 0)
(1.6084974 0 0)
(1.6069397 0 0)
(1.6050539 0 0)
(1.6028433 0 0)
(1.6003101 0 0)
(1.5974556 0 0)
(1.59428 0 0)
(1.5907831 0 0)
(1.5869637 0 0)
(1.5828205 0 0)
(1.578351 0 0)
(1.5735525 0 0)
(1.5684217 0 0)
(1.562955 0 0)
(1.5571478 0 0)
(1.5509967 0 0)
(1.544329 0 0)
(1.6113294 0 0)
(1.6111484 0 0)
(1.610611 0 0)
(1.6097275 0 0)
(1.608506 0 0)
(1.6069523 0 0)
(1.6050709 0 0)
(1.602865 0 0)
(1.6003368 0 0)
(1.5974875 0 0)
(1.5943175 0 0)
(1.5908263 0 0)
(1.5870131 0 0)
(1.5828765 0 0)
(1.5784143 0 0)
(1.5736239 0 0)
(1.5685025 0 0)
(1.5630471 0 0)
(1.557254 0 0)
(1.551123 0 0)
(1.5445854 0 0)
(1.6113294 0 0)
(1.6111463 0 0)
(1.6106031 0 0)
(1.6097105 0 0)
(1.608477 0 0)
(1.6069092 0 0)
(1.605012 0 0)
(1.6027889 0 0)
(1.6002421 0 0)
(1.5973728 0 0)
(1.5941816 0 0)
(1.590668 0 0)
(1.5868312 0 0)
(1.5826693 0 0)
(1.5781804 0 0)
(1.5733616 0 0)
(1.56821 0 0)
(1.5627216 0 0)
(1.5568925 0 0)
(1.5507248 0 0)
(1.5436525 0 0)
(1.6113294 0 0)
(1.6111463 0 0)
(1.6106031 0 0)
(1.6097107 0 0)
(1.6084774 0 0)
(1.6069098 0 0)
(1.6050131 0 0)
(1.6027905 0 0)
(1.6002444 0 0)
(1.597376 0 0)
(1.5941858 0 0)
(1.5906733 0 0)
(1.5868377 0 0)
(1.5826771 0 0)
(1.5781894 0 0)
(1.5733718 0 0)
(1.568221 0 0)
(1.5627333 0 0)
(1.5569046 0 0)
(1.5507369 0 0)
(1.5436697 0 0)
(1.6113294 0 0)
(1.6111461 0 0)
(1.6106024 0 0)
(1.6097091 0 0)
(1.6084746 0 0)
(1.6069057 0 0)
(1.6050073 0 0)
(1.602783 0 0)
(1.600235 0 0)
(1.5973646 0 0)
(1.5941723 0 0)
(1.5906576 0 0)
(1.5868196 0 0)
(1.5826565 0 0)
(1.578166 0 0)
(1.5733453 0 0)
(1.5681912 0 0)
(1.5626997 0 0)
(1.5568666 0 0)
(1.5506936 0 0)
(1.5436405 0 0)
(1.6113294 0 0)
(1.6111461 0 0)
(1.6106022 0 0)
(1.6097087 0 0)
(1.608474 0 0)
(1.6069048 0 0)
(1.6050061 0 0)
(1.6027814 0 0)
(1.6002331 0 0)
(1.5973624 0 0)
(1.5941698 0 0)
(1.5906547 0 0)
(1.5868163 0 0)
(1.5826527 0 0)
(1.5781617 0 0)
(1.5733403 0 0)
(1.5681852 0 0)
(1.5626925 0 0)
(1.5568577 0 0)
(1.5506819 0 0)
(1.5436573 0 0)
(1.6113294 0 0)
(1.6111462 0 0)
(1.6106026 0 0)
(1.6097096 0 0)
(1.6084755 0 0)
(1.606907 0 0)
(1.6050091 0 0)
(1.6027853 0 0)
(1.600238 0 0)
(1.5973683 0 0)
(1.5941769 0 0)
(1.5906631 0 0)
(1.586826 0 0)
(1.5826637 0 0)
(1.5781741 0 0)
(1.573354 0 0)
(1.5682002 0 0)
(1.5627084 0 0)
(1.5568742 0 0)
(1.5506979 0 0)
(1.5437162 0 0)
(1.6113294 0 0)
(1.6111464 0 0)
(1.6106035 0 0)
(1.6097114 0 0)
(1.6084787 0 0)
(1.6069118 0 0)
(1.6050158 0 0)
(1.6027941 0 0)
(1.600249 0 0)
(1.5973817 0 0)
(1.5941928 0 0)
(1.5906818 0 0)
(1.5868475 0 0)
(1.5826882 0 0)
(1.5782017 0 0)
(1.5733848 0 0)
(1.5682341 0 0)
(1.5627453 0 0)
(1.5569142 0 0)
(1.5507398 0 0)
(1.543815 0 0)
(1.6113294 0 0)
(1.6111468 0 0)
(1.6106048 0 0)
(1.6097142 0 0)
(1.6084835 0 0)
(1.6069192 0 0)
(1.6050259 0 0)
(1.6028073 0 0)
(1.6002654 0 0)
(1.5974018 0 0)
(1.5942166 0 0)
(1.5907095 0 0)
(1.5868793 0 0)
(1.5827246 0 0)
(1.5782427 0 0)
(1.5734307 0 0)
(1.5682849 0 0)
(1.5628016 0 0)
(1.5569758 0 0)
(1.5508058 0 0)
(1.5439522 0 0)
(1.6113294 0 0)
(1.6111472 0 0)
(1.6106065 0 0)
(1.6097179 0 0)
(1.6084898 0 0)
(1.6069287 0 0)
(1.6050388 0 0)
(1.602824 0 0)
(1.6002862 0 0)
(1.5974269 0 0)
(1.5942462 0 0)
(1.5907441 0 0)
(1.586919 0 0)
(1.5827697 0 0)
(1.5782936 0 0)
(1.5734879 0 0)
(1.5683489 0 0)
(1.5628729 0 0)
(1.5570549 0 0)
(1.5508924 0 0)
(1.5441243 0 0)
(1.6113294 0 0)
(1.6111478 0 0)
(1.6106086 0 0)
(1.6097223 0 0)
(1.6084974 0 0)
(1.6069397 0 0)
(1.6050539 0 0)
(1.6028433 0 0)
(1.6003101 0 0)
(1.5974556 0 0)
(1.59428 0 0)
(1.5907831 0 0)
(1.5869637 0 0)
(1.5828205 0 0)
(1.578351 0 0)
(1.5735525 0 0)
(1.5684217 0 0)
(1.562955 0 0)
(1.5571478 0 0)
(1.5509967 0 0)
(1.544329 0 0)
(1.6113294 0 0)
(1.6111484 0 0)
(1.610611 0 0)
(1.6097275 0 0)
(1.608506 0 0)
(1.6069523 0 0)
(1.6050709 0 0)
(1.602865 0 0)
(1.6003368 0 0)
(1.5974875 0 0)
(1.5943175 0 0)
(1.5908263 0 0)
(1.5870131 0 0)
(1.5828765 0 0)
(1.5784143 0 0)
(1.5736239 0 0)
(1.5685025 0 0)
(1.5630471 0 0)
(1.557254 0 0)
(1.551123 0 0)
(1.5445854 0 0)
(1.5349491 0 0)
(1.5251412 0 0)
(1.5147928 0 0)
(1.5038986 0 0)
(1.4924611 0 0)
(1.4804824 0 0)
(1.4679651 0 0)
(1.4549122 0 0)
(1.4413249 0 0)
(1.4271991 0 0)
(1.4125269 0 0)
(1.3973014 0 0)
(1.3815179 0 0)
(1.3651702 0 0)
(1.3482509 0 0)
(1.3307525 0 0)
(1.3126679 0 0)
(1.2939841 0 0)
(1.2746773 0 0)
(1.2547269 0 0)
(1.2341073 0 0)
(1.2127861 0 0)
(1.1907297 0 0)
(1.1679031 0 0)
(1.1442574 0 0)
(1.1197374 0 0)
(1.0942897 0 0)
(1.0678573 0 0)
(1.040373 0 0)
(1.0117623 0 0)
(0.9819633 0 0)
(0.95089851 0 0)
(0.91847241 0 0)
(0.88458984 0 0)
(0.84913619 0 0)
(0.81194815 0 0)
(0.77288124 0 0)
(0.73186175 0 0)
(0.68872762 0 0)
(0.64320899 0 0)
(0.59510093 0 0)
(0.54430292 0 0)
(0.490514 0 0)
(0.43330445 0 0)
(0.37241747 0 0)
(0.30760616 0 0)
(0.23847083 0 0)
(0.16450365 0 0)
(0.085113307 0 0)
(0 0 0)
(1.5349837 0 0)
(1.5251986 0 0)
(1.5148706 0 0)
(1.5039941 0 0)
(1.4925718 0 0)
(1.480606 0 0)
(1.4680994 0 0)
(1.4550553 0 0)
(1.4414743 0 0)
(1.427352 0 0)
(1.4126805 0 0)
(1.3974536 0 0)
(1.381667 0 0)
(1.3653146 0 0)
(1.3483893 0 0)
(1.3308846 0 0)
(1.3127929 0 0)
(1.2941006 0 0)
(1.2747857 0 0)
(1.2548283 0 0)
(1.2342024 0 0)
(1.2128745 0 0)
(1.1908115 0 0)
(1.1679788 0 0)
(1.1443282 0 0)
(1.1198033 0 0)
(1.0943507 0 0)
(1.067914 0 0)
(1.0404249 0 0)
(1.0118109 0 0)
(0.98200936 0 0)
(0.95094193 0 0)
(0.91851284 0 0)
(0.88462739 0 0)
(0.84917143 0 0)
(0.81198151 0 0)
(0.77291247 0 0)
(0.7318909 0 0)
(0.68875598 0 0)
(0.64323704 0 0)
(0.59512708 0 0)
(0.54432877 0 0)
(0.49053994 0 0)
(0.43332717 0 0)
(0.37243755 0 0)
(0.30762422 0 0)
(0.23848515 0 0)
(0.16451247 0 0)
(0.085116851 0 0)
(0 0 0)
(1.5350079 0 0)
(1.5252925 0 0)
(1.5150294 0 0)
(1.5042126 0 0)
(1.4928446 0 0)
(1.4809277 0 0)
(1.4684654 0 0)
(1.4554609 0 0)
(1.4419144 0 0)
(1.4278209 0 0)
(1.4131732 0 0)
(1.3979658 0 0)
(1.3821943 0 0)
(1.3658533 0 0)
(1.3489366 0 0)
(1.3314381 0 0)
(1.31335 0 0)
(1.2946583 0 0)
(1.2753428 0 0)
(1.2553841 0 0)
(1.234756 0 0)
(1.2134248 0 0)
(1.1913574 0 0)
(1.1685195 0 0)
(1.1448637 0 0)
(1.1203332 0 0)
(1.0948742 0 0)
(1.0684302 0 0)
(1.0409325 0 0)
(1.0123108 0 0)
(0.98250068 0 0)
(0.9514235 0 0)
(0.91898384 0 0)
(0.88508671 0 0)
(0.84961801 0 0)
(0.8124145 0 0)
(0.77333055 0 0)
(0.73229275 0 0)
(0.68914085 0 0)
(0.64360355 0 0)
(0.59547239 0 0)
(0.5446516 0 0)
(0.49083702 0 0)
(0.4335929 0 0)
(0.37267014 0 0)
(0.30782116 0 0)
(0.23864057 0 0)
(0.16461979 0 0)
(0.085171723 0 0)
(0 0 0)
(1.5351162 0 0)
(1.5255187 0 0)
(1.5153656 0 0)
(1.5046505 0 0)
(1.4933757 0 0)
(1.4815439 0 0)
(1.4691586 0 0)
(1.4562234 0 0)
(1.442738 0 0)
(1.4286972 0 0)
(1.4140948 0 0)
(1.3989259 0 0)
(1.3831864 0 0)
(1.3668714 0 0)
(1.3499758 0 0)
(1.3324941 0 0)
(1.314418 0 0)
(1.2957339 0 0)
(1.2764231 0 0)
(1.2564666 0 0)
(1.2358381 0 0)
(1.2145043 0 0)
(1.1924322 0 0)
(1.1695877 0 0)
(1.1459241 0 0)
(1.1213845 0 0)
(1.0959148 0 0)
(1.0694584 0 0)
(1.0419459 0 0)
(1.0133092 0 0)
(0.98348243 0 0)
(0.95238637 0 0)
(0.91992569 0 0)
(0.88600541 0 0)
(0.85051155 0 0)
(0.81328054 0 0)
(0.77416618 0 0)
(0.73309538 0 0)
(0.68990814 0 0)
(0.64433227 0 0)
(0.59615777 0 0)
(0.54528961 0 0)
(0.49142145 0 0)
(0.43411581 0 0)
(0.37312706 0 0)
(0.30820636 0 0)
(0.23894428 0 0)
(0.16483051 0 0)
(0.0852802 0 0)
(0 0 0)
(1.5353046 0 0)
(1.5258728 0 0)
(1.5158746 0 0)
(1.5053033 0 0)
(1.4941608 0 0)
(1.4824498 0 0)
(1.4701743 0 0)
(1.4573378 0 0)
(1.44394 0 0)
(1.4299758 0 0)
(1.4154402 0 0)
(1.4003293 0 0)
(1.384639 0 0)
(1.3683648 0 0)
(1.3515027 0 0)
(1.334048 0 0)
(1.3159926 0 0)
(1.2973231 0 0)
(1.2780221 0 0)
(1.258071 0 0)
(1.2374439 0 0)
(1.2161081 0 0)
(1.1940307 0 0)
(1.1711778 0 0)
(1.1475036 0 0)
(1.1229513 0 0)
(1.0974665 0 0)
(1.0709922 0 0)
(1.0434591 0 0)
(1.0148001 0 0)
(0.98494807 0 0)
(0.95382393 0 0)
(0.92133226 0 0)
(0.88737747 0 0)
(0.85184564 0 0)
(0.8145732 0 0)
(0.77541336 0 0)
(0.73429298 0 0)
(0.69105187 0 0)
(0.64541719 0 0)
(0.59717808 0 0)
(0.54623824 0 0)
(0.49228852 0 0)
(0.43489156 0 0)
(0.37380469 0 0)
(0.30877699 0 0)
(0.23939389 0 0)
(0.16514281 0 0)
(0.085441545 0 0)
(0 0 0)
(1.5355704 0 0)
(1.5263518 0 0)
(1.5165532 0 0)
(1.5061674 0 0)
(1.495196 0 0)
(1.4836417 0 0)
(1.4715086 0 0)
(1.4588001 0 0)
(1.4455158 0 0)
(1.4316516 0 0)
(1.4172048 0 0)
(1.402172 0 0)
(1.3865484 0 0)
(1.3703301 0 0)
(1.3535139 0 0)
(1.3360962 0 0)
(1.3180694 0 0)
(1.2994211 0 0)
(1.2801352 0 0)
(1.2601925 0 0)
(1.2395682 0 0)
(1.2182305 0 0)
(1.1961467 0 0)
(1.1732834 0 0)
(1.1495954 0 0)
(1.1250263 0 0)
(1.0995216 0 0)
(1.0730241 0 0)
(1.0454639 0 0)
(1.016775 0 0)
(0.98688939 0 0)
(0.95572797 0 0)
(0.92319493 0 0)
(0.88919424 0 0)
(0.85361209 0 0)
(0.81628443 0 0)
(0.77706376 0 0)
(0.73587731 0 0)
(0.69256429 0 0)
(0.64685097 0 0)
(0.59852564 0 0)
(0.54748992 0 0)
(0.49343166 0 0)
(0.43591461 0 0)
(0.37469816 0 0)
(0.30952873 0 0)
(0.23998603 0 0)
(0.16555449 0 0)
(0.085654453 0 0)
(0 0 0)
(1.5359113 0 0)
(1.5269527 0 0)
(1.5173977 0 0)
(1.507239 0 0)
(1.4964773 0 0)
(1.4851154 0 0)
(1.4731572 0 0)
(1.460606 0 0)
(1.4474606 0 0)
(1.4337199 0 0)
(1.4193837 0 0)
(1.4044496 0 0)
(1.3889113 0 0)
(1.3727636 0 0)
(1.356005 0 0)
(1.338634 0 0)
(1.3206437 0 0)
(1.302023 0 0)
(1.2827563 0 0)
(1.2628248 0 0)
(1.2422045 0 0)
(1.2208645 0 0)
(1.1987725 0 0)
(1.1758961 0 0)
(1.152191 0 0)
(1.1276006 0 0)
(1.1020706 0 0)
(1.075544 0 0)
(1.0479503 0 0)
(1.0192235 0 0)
(0.98929551 0 0)
(0.95808765 0 0)
(0.92550327 0 0)
(0.89144524 0 0)
(0.85579992 0 0)
(0.81840334 0 0)
(0.77910716 0 0)
(0.73783828 0 0)
(0.69443517 0 0)
(0.64862357 0 0)
(0.6001916 0 0)
(0.5490363 0 0)
(0.49484276 0 0)
(0.43717762 0 0)
(0.37580122 0 0)
(0.31045642 0 0)
(0.24071647 0 0)
(0.16606247 0 0)
(0.085917434 0 0)
(0 0 0)
(1.536323 0 0)
(1.5276708 0 0)
(1.5184031 0 0)
(1.5085124 0 0)
(1.4979981 0 0)
(1.4868637 0 0)
(1.4751138 0 0)
(1.4627504 0 0)
(1.4497703 0 0)
(1.4361762 0 0)
(1.421974 0 0)
(1.4071606 0 0)
(1.3917253 0 0)
(1.3756611 0 0)
(1.3589709 0 0)
(1.341656 0 0)
(1.3237094 0 0)
(1.305122 0 0)
(1.285879 0 0)
(1.2659606 0 0)
(1.2453447 0 0)
(1.2240015 0 0)
(1.2018989 0 0)
(1.1790061 0 0)
(1.1552797 0 0)
(1.1306628 0 0)
(1.1051019 0 0)
(1.0785401 0 0)
(1.0509059 0 0)
(1.0221331 0 0)
(0.99215389 0 0)
(0.96089007 0 0)
(0.92824407 0 0)
(0.89411744 0 0)
(0.85839653 0 0)
(0.82091733 0 0)
(0.78153088 0 0)
(0.74016353 0 0)
(0.69665259 0 0)
(0.65072357 0 0)
(0.60216415 0 0)
(0.55086618 0 0)
(0.49651217 0 0)
(0.43867216 0 0)
(0.37710634 0 0)
(0.31155353 0 0)
(0.24158019 0 0)
(0.16666323 0 0)
(0.086228479 0 0)
(0 0 0)
(1.5368033 0 0)
(1.5285014 0 0)
(1.519564 0 0)
(1.5099806 0 0)
(1.4997503 0 0)
(1.4888793 0 0)
(1.4773744 0 0)
(1.4652323 0 0)
(1.4524487 0 0)
(1.439028 0 0)
(1.4249784 0 0)
(1.4102996 0 0)
(1.3949813 0 0)
(1.3790158 0 0)
(1.3624077 0 0)
(1.3451586 0 0)
(1.327262 0 0)
(1.3087127 0 0)
(1.2894963 0 0)
(1.2695913 0 0)
(1.2489792 0 0)
(1.2276315 0 0)
(1.205515 0 0)
(1.1826017 0 0)
(1.158849 0 0)
(1.1342 0 0)
(1.1086019 0 0)
(1.0819982 0 0)
(1.0543163 0 0)
(1.0254891 0 0)
(0.99544925 0 0)
(0.96411974 0 0)
(0.93140218 0 0)
(0.89719578 0 0)
(0.86138657 0 0)
(0.82381132 0 0)
(0.78432048 0 0)
(0.74283896 0 0)
(0.69920253 0 0)
(0.65313724 0 0)
(0.60443075 0 0)
(0.5529677 0 0)
(0.49842859 0 0)
(0.44038812 0 0)
(0.37860491 0 0)
(0.3128129 0 0)
(0.24257122 0 0)
(0.1673525 0 0)
(0.086585512 0 0)
(0 0 0)
(1.5373808 0 0)
(1.529474 0 0)
(1.5209084 0 0)
(1.511672 0 0)
(1.5017663 0 0)
(1.4912004 0 0)
(1.4799755 0 0)
(1.4680852 0 0)
(1.4555274 0 0)
(1.4423047 0 0)
(1.4284247 0 0)
(1.4138946 0 0)
(1.3987073 0 0)
(1.3828553 0 0)
(1.3663422 0 0)
(1.3491666 0 0)
(1.3313227 0 0)
(1.3128105 0 0)
(1.2936193 0 0)
(1.273728 0 0)
(1.2531201 0 0)
(1.2317646 0 0)
(1.209628 0 0)
(1.1866873 0 0)
(1.1629016 0 0)
(1.1382128 0 0)
(1.1125696 0 0)
(1.0859161 0 0)
(1.0581778 0 0)
(1.0292867 0 0)
(0.99917576 0 0)
(0.96776971 0 0)
(0.93496959 0 0)
(0.90067171 0 0)
(0.8647612 0 0)
(0.82707591 0 0)
(0.78746609 0 0)
(0.74585444 0 0)
(0.7020748 0 0)
(0.65585447 0 0)
(0.60698098 0 0)
(0.5553307 0 0)
(0.50058282 0 0)
(0.44231732 0 0)
(0.38028951 0 0)
(0.31422778 0 0)
(0.24368427 0 0)
(0.1681266 0 0)
(0.086986397 0 0)
(0 0 0)
(1.5362446 0 0)
(1.5287174 0 0)
(1.520519 0 0)
(1.5116359 0 0)
(1.502074 0 0)
(1.4918359 0 0)
(1.4809124 0 0)
(1.4693009 0 0)
(1.4570045 0 0)
(1.4440206 0 0)
(1.4303547 0 0)
(1.4160184 0 0)
(1.4010069 0 0)
(1.3853127 0 0)
(1.3689386 0 0)
(1.3518828 0 0)
(1.3341411 0 0)
(1.3157151 0 0)
(1.2965972 0 0)
(1.2767704 0 0)
(1.2562148 0 0)
(1.2348963 0 0)
(1.2127866 0 0)
(1.1898665 0 0)
(1.166094 0 0)
(1.1414112 0 0)
(1.1157675 0 0)
(1.0891079 0 0)
(1.0613569 0 0)
(1.0324451 0 0)
(1.0023054 0 0)
(0.97086388 0 0)
(0.93802184 0 0)
(0.90367243 0 0)
(0.86770027 0 0)
(0.82994392 0 0)
(0.79025338 0 0)
(0.74854803 0 0)
(0.70466151 0 0)
(0.65832132 0 0)
(0.60931449 0 0)
(0.55750764 0 0)
(0.50258247 0 0)
(0.44412253 0 0)
(0.38187842 0 0)
(0.31557319 0 0)
(0.24475239 0 0)
(0.16887832 0 0)
(0.087385658 0 0)
(0 0 0)
(1.5349491 0 0)
(1.5251412 0 0)
(1.5147928 0 0)
(1.5038986 0 0)
(1.4924611 0 0)
(1.4804824 0 0)
(1.4679651 0 0)
(1.4549122 0 0)
(1.4413249 0 0)
(1.4271991 0 0)
(1.4125269 0 0)
(1.3973014 0 0)
(1.3815179 0 0)
(1.3651702 0 0)
(1.3482509 0 0)
(1.3307525 0 0)
(1.3126679 0 0)
(1.2939841 0 0)
(1.2746773 0 0)
(1.2547269 0 0)
(1.2341073 0 0)
(1.2127861 0 0)
(1.1907297 0 0)
(1.1679031 0 0)
(1.1442574 0 0)
(1.1197374 0 0)
(1.0942897 0 0)
(1.0678573 0 0)
(1.040373 0 0)
(1.0117623 0 0)
(0.9819633 0 0)
(0.95089851 0 0)
(0.91847241 0 0)
(0.88458984 0 0)
(0.84913619 0 0)
(0.81194815 0 0)
(0.77288124 0 0)
(0.73186175 0 0)
(0.68872762 0 0)
(0.64320899 0 0)
(0.59510093 0 0)
(0.54430292 0 0)
(0.490514 0 0)
(0.43330445 0 0)
(0.37241747 0 0)
(0.30760616 0 0)
(0.23847083 0 0)
(0.16450365 0 0)
(0.085113307 0 0)
(0 0 0)
(1.5349837 0 0)
(1.5251986 0 0)
(1.5148706 0 0)
(1.5039941 0 0)
(1.4925718 0 0)
(1.480606 0 0)
(1.4680994 0 0)
(1.4550553 0 0)
(1.4414743 0 0)
(1.427352 0 0)
(1.4126805 0 0)
(1.3974536 0 0)
(1.381667 0 0)
(1.3653146 0 0)
(1.3483893 0 0)
(1.3308846 0 0)
(1.3127929 0 0)
(1.2941006 0 0)
(1.2747857 0 0)
(1.2548283 0 0)
(1.2342024 0 0)
(1.2128745 0 0)
(1.1908115 0 0)
(1.1679788 0 0)
(1.1443282 0 0)
(1.1198033 0 0)
(1.0943507 0 0)
(1.067914 0 0)
(1.0404249 0 0)
(1.0118109 0 0)
(0.98200936 0 0)
(0.95094193 0 0)
(0.91851284 0 0)
(0.88462739 0 0)
(0.84917143 0 0)
(0.81198151 0 0)
(0.77291247 0 0)
(0.7318909 0 0)
(0.68875598 0 0)
(0.64323704 0 0)
(0.59512708 0 0)
(0.54432877 0 0)
(0.49053994 0 0)
(0.43332717 0 0)
(0.37243755 0 0)
(0.30762422 0 0)
(0.23848515 0 0)
(0.16451247 0 0)
(0.085116851 0 0)
(0 0 0)
(1.5350079 0 0)
(1.5252925 0 0)
(1.5150294 0 0)
(1.5042126 0 0)
(1.4928446 0 0)
(1.4809277 0 0)
(1.4684654 0 0)
(1.4554609 0 0)
(1.4419144 0 0)
(1.4278209 0 0)
(1.4131732 0 0)
(1.3979658 0 0)
(1.3821943 0 0)
(1.3658533 0 0)
(1.3489366 0 0)
(1.3314381 0 0)
(1.31335 0 0)
(1.2946583 0 0)
(1.2753428 0 0)
(1.2553841 0 0)
(1.234756 0 0)
(1.2134248 0 0)
(1.1913574 0 0)
(1.1685195 0 0)
(1.1448637 0 0)
(1.1203332 0 0)
(1.0948742 0 0)
(1.0684302 0 0)
(1.0409325 0 0)
(1.0123108 0 0)
(0.98250068 0 0)
(0.9514235 0 0)
(0.91898384 0 0)
(0.88508671 0 0)
(0.84961801 0 0)
(0.8124145 0 0)
(0.77333055 0 0)
(0.73229275 0 0)
(0.68914085 0 0)
(0.64360355 0 0)
(0.59547239 0 0)
(0.5446516 0 0)
(0.49083702 0 0)
(0.4335929 0 0)
(0.37267014 0 0)
(0.30782116 0 0)
(0.23864057 0 0)
(0.16461979 0 0)
(0.085171723 0 0)
(0 0 0)
(1.5351162 0 0)
(1.5255187 0 0)
(1.5153656 0 0)
(1.5046505 0 0)
(1.4933757 0 0)
(1.4815439 0 0)
(1.4691586 0 0)
(1.4562234 0 0)
(1.442738 0 0)
(1.4286972 0 0)
(1.4140948 0 0)
(1.3989259 0 0)
(1.3831864 0 0)
(1.3668714 0 0)
(1.3499758 0 0)
(1.3324941 0 0)
(1.314418 0 0)
(1.2957339 0 0)
(1.2764231 0 0)
(1.2564666 0 0)
(1.2358381 0 0)
(1.2145043 0 0)
(1.1924322 0 0)
(1.1695877 0 0)
(1.1459241 0 0)
(1.1213845 0 0)
(1.0959148 0 0)
(1.0694584 0 0)
(1.0419459 0 0)
(1.0133092 0 0)
(0.98348243 0 0)
(0.95238637 0 0)
(0.91992569 0 0)
(0.88600541 0 0)
(0.85051155 0 0)
(0.81328054 0 0)
(0.77416618 0 0)
(0.73309538 0 0)
(0.68990814 0 0)
(0.64433227 0 0)
(0.59615777 0 0)
(0.54528961 0 0)
(0.49142145 0 0)
(0.43411581 0 0)
(0.37312706 0 0)
(0.30820636 0 0)
(0.23894428 0 0)
(0.16483051 0 0)
(0.0852802 0 0)
(0 0 0)
(1.5353046 0 0)
(1.5258728 0 0)
(1.5158746 0 0)
(1.5053033 0 0)
(1.4941608 0 0)
(1.4824498 0 0)
(1.4701743 0 0)
(1.4573378 0 0)
(1.44394 0 0)
(1.4299758 0 0)
(1.4154402 0 0)
(1.4003293 0 0)
(1.384639 0 0)
(1.3683648 0 0)
(1.3515027 0 0)
(1.334048 0 0)
(1.3159926 0 0)
(1.2973231 0 0)
(1.2780221 0 0)
(1.258071 0 0)
(1.2374439 0 0)
(1.2161081 0 0)
(1.1940307 0 0)
(1.1711778 0 0)
(1.1475036 0 0)
(1.1229513 0 0)
(1.0974665 0 0)
(1.0709922 0 0)
(1.0434591 0 0)
(1.0148001 0 0)
(0.98494807 0 0)
(0.95382393 0 0)
(0.92133226 0 0)
(0.88737747 0 0)
(0.85184564 0 0)
(0.8145732 0 0)
(0.77541336 0 0)
(0.73429298 0 0)
(0.69105187 0 0)
(0.64541719 0 0)
(0.59717808 0 0)
(0.54623824 0 0)
(0.49228852 0 0)
(0.43489156 0 0)
(0.37380469 0 0)
(0.30877699 0 0)
(0.23939389 0 0)
(0.16514281 0 0)
(0.085441545 0 0)
(0 0 0)
(1.5355704 0 0)
(1.5263518 0 0)
(1.5165532 0 0)
(1.5061674 0 0)
(1.495196 0 0)
(1.4836417 0 0)
(1.4715086 0 0)
(1.4588001 0 0)
(1.4455158 0 0)
(1.4316516 0 0)
(1.4172048 0 0)
(1.402172 0 0)
(1.3865484 0 0)
(1.3703301 0 0)
(1.3535139 0 0)
(1.3360962 0 0)
(1.3180694 0 0)
(1.2994211 0 0)
(1.2801352 0 0)
(1.2601925 0 0)
(1.2395682 0 0)
(1.2182305 0 0)
(1.1961467 0 0)
(1.1732834 0 0)
(1.1495954 0 0)
(1.1250263 0 0)
(1.0995216 0 0)
(1.0730241 0 0)
(1.0454639 0 0)
(1.016775 0 0)
(0.98688939 0 0)
(0.95572797 0 0)
(0.92319493 0 0)
(0.88919424 0 0)
(0.85361209 0 0)
(0.81628443 0 0)
(0.77706376 0 0)
(0.73587731 0 0)
(0.69256429 0 0)
(0.64685097 0 0)
(0.59852564 0 0)
(0.54748992 0 0)
(0.49343166 0 0)
(0.43591461 0 0)
(0.37469816 0 0)
(0.30952873 0 0)
(0.23998603 0 0)
(0.16555449 0 0)
(0.085654453 0 0)
(0 0 0)
(1.5359113 0 0)
(1.5269527 0 0)
(1.5173977 0 0)
(1.507239 0 0)
(1.4964773 0 0)
(1.4851154 0 0)
(1.4731572 0 0)
(1.460606 0 0)
(1.4474606 0 0)
(1.4337199 0 0)
(1.4193837 0 0)
(1.4044496 0 0)
(1.3889113 0 0)
(1.3727636 0 0)
(1.356005 0 0)
(1.338634 0 0)
(1.3206437 0 0)
(1.302023 0 0)
(1.2827563 0 0)
(1.2628248 0 0)
(1.2422045 0 0)
(1.2208645 0 0)
(1.1987725 0 0)
(1.1758961 0 0)
(1.152191 0 0)
(1.1276006 0 0)
(1.1020706 0 0)
(1.075544 0 0)
(1.0479503 0 0)
(1.0192235 0 0)
(0.98929551 0 0)
(0.95808765 0 0)
(0.92550327 0 0)
(0.89144524 0 0)
(0.85579992 0 0)
(0.81840334 0 0)
(0.77910716 0 0)
(0.73783828 0 0)
(0.69443517 0 0)
(0.64862357 0 0)
(0.6001916 0 0)
(0.5490363 0 0)
(0.49484276 0 0)
(0.43717762 0 0)
(0.37580122 0 0)
(0.31045642 0 0)
(0.24071647 0 0)
(0.16606247 0 0)
(0.085917434 0 0)
(0 0 0)
(1.536323 0 0)
(1.5276708 0 0)
(1.5184031 0 0)
(1.5085124 0 0)
(1.4979981 0 0)
(1.4868637 0 0)
(1.4751138 0 0)
(1.4627504 0 0)
(1.4497703 0 0)
(1.4361762 0 0)
(1.421974 0 0)
(1.4071606 0 0)
(1.3917253 0 0)
(1.3756611 0 0)
(1.3589709 0 0)
(1.341656 0 0)
(1.3237094 0 0)
(1.305122 0 0)
(1.285879 0 0)
(1.2659606 0 0)
(1.2453447 0 0)
(1.2240015 0 0)
(1.2018989 0 0)
(1.1790061 0 0)
(1.1552797 0 0)
(1.1306628 0 0)
(1.1051019 0 0)
(1.0785401 0 0)
(1.0509059 0 0)
(1.0221331 0 0)
(0.99215389 0 0)
(0.96089007 0 0)
(0.92824407 0 0)
(0.89411744 0 0)
(0.85839653 0 0)
(0.82091733 0 0)
(0.78153088 0 0)