/*--------------------------------*- C++ -*----------------------------------*\
| =========                 |                                                 |
| \\      /  F ield         | OpenFOAM: The Open Source CFD Toolbox           |
|  \\    /   O peration     | Version:  v2012                                 |
|   \\  /    A nd           | Website:  www.openfoam.com                      |
|    \\/     M anipulation  |                                                 |
\*---------------------------------------------------------------------------*/
FoamFile
{
    version     2.0;
    format      ascii;
    class       volVectorField;
    location    "30.0070385386842844";
    object      U;
}
// * * * * * * * * * * * * * * * * * * * * * * * * * * * * * * * * * * * * * //

dimensions      [0 1 -1 0 0 0 0];


internalField   nonuniform List<vector> 
9200
(
(2.7181577 0.018303226 -5.2438335e-21)
(2.7221728 0.064896265 -1.583832e-22)
(2.6623779 0.018355461 -8.9008327e-21)
(2.7279365 0.10886823 -9.4456653e-21)
(2.6600499 0.065318704 1.7430864e-20)
(2.6361614 0.017030135 6.472455e-21)
(2.7360448 0.16163711 -1.7537212e-21)
(2.6560648 0.10789607 -1.4341325e-20)
(2.6321163 0.060383154 5.1791559e-21)
(2.6054959 0.015259164 -8.3499448e-21)
(2.7449695 0.22286407 -5.3110929e-21)
(2.6476749 0.15710028 1.8040207e-20)
(2.6254661 0.09858506 1.6395916e-20)
(2.5996184 0.054055581 -5.9626917e-21)
(2.5813781 0.013210304 1.7174624e-21)
(2.7530612 0.29774846 4.2025855e-20)
(2.6332705 0.21066077 8.5324429e-21)
(2.6134969 0.14134527 -5.5589098e-21)
(2.590121 0.087105913 9.6193877e-21)
(2.5747571 0.046678413 8.4178315e-21)
(2.5609927 0.011128275 4.1248887e-21)
(2.7593864 0.38870049 2.9443818e-20)
(2.6104293 0.27157846 -6.8487721e-21)
(2.5953562 0.18553542 -1.8954069e-20)
(2.5742084 0.12277111 -2.0309455e-21)
(2.5642268 0.074240514 1.0745415e-20)
(2.5541306 0.039235533 1.1298815e-21)
(2.5447641 0.0091444187 7.6977908e-22)
(2.7611598 0.49997806 -1.2398135e-20)
(2.5756168 0.34017658 -2.7123276e-20)
(2.5685503 0.23280203 -2.134118e-21)
(2.5516539 0.15756951 1.0981786e-20)
(2.5473052 0.10288619 -6.0833566e-22)
(2.5433755 0.061592588 -1.0972812e-20)
(2.5380733 0.032175491 -4.0702093e-21)
(2.5320064 0.0073367857 -5.5515961e-21)
(2.7424932 0.63668191 1.9206462e-20)
(2.5208539 0.41901722 -2.1501661e-20)
(2.5303396 0.28184827 7.2156407e-21)
(2.5207761 0.19227607 4.4454054e-21)
(2.5244019 0.12913959 -1.5794069e-20)
(2.526588 0.083937433 -1.7101059e-20)
(2.5277397 0.049849728 -7.5785537e-21)
(2.525719 0.025779482 -1.2471267e-21)
(2.5222453 0.0057425554 -2.7405921e-21)
(2.6236313 0.77885085 3.9249436e-20)
(2.4439639 0.51145553 2.2283744e-20)
(2.4781872 0.33061041 -3.0700715e-20)
(2.4802934 0.22483242 -2.8396955e-20)
(2.4945628 0.15328186 -1.6161879e-20)
(2.5046505 0.10306462 7.4710515e-22)
(2.5119705 0.066789005 4.3261288e-21)
(2.5161477 0.039402874 3.2074064e-21)
(2.5164851 0.020161905 1.5878131e-21)
(2.5149557 0.0043740104 2.4836032e-21)
(2.3854596 0.88703881 -2.3398e-20)
(2.3388436 0.60619327 -2.3902801e-20)
(2.4100967 0.37532021 -2.0651505e-21)
(2.4286994 0.25298807 -2.2371785e-20)
(2.4575205 0.17329904 -8.7392721e-21)
(2.4771656 0.11906141 -7.5973842e-21)
(2.4919618 0.080202371 8.6524877e-22)
(2.5018019 0.051854897 3.1630311e-21)
(2.5078457 0.030371196 4.1481549e-21)
(2.5097666 0.01533963 8.8219012e-22)
(2.5096768 0.0032259541 5.1110794e-22)
(2.0798332 0.9369694 -4.4216188e-21)
(2.1863582 0.67678275 -4.4153946e-20)
(2.3206332 0.41058608 2.533859e-20)
(2.3655237 0.27353846 2.4721873e-20)
(2.4132174 0.18738459 2.2190684e-20)
(2.4445247 0.13025487 -3.2067527e-21)
(2.4676996 0.090103172 1.0241715e-21)
(2.484049 0.060818654 -3.1121983e-21)
(2.4950819 0.039175719 -7.9419565e-22)
(2.5021058 0.022725724 -3.0677599e-21)
(2.5050559 0.011267899 -1.1685935e-21)
(2.5060003 0.0022791577 -1.0600799e-23)
(1.7667278 0.94918883 3.4086563e-20)
(1.9836879 0.70628293 6.7721209e-21)
(2.2058944 0.42474995 -4.3107727e-21)
(2.2923782 0.2830087 4.1546174e-20)
(2.3622994 0.19297679 2.6979042e-20)
(2.4073096 0.13539796 7.2643608e-21)
(2.4399341 0.095230362 -1.0364211e-20)
(2.4631037 0.066279272 1.850184e-21)
(2.4796258 0.04473731 -8.4639826e-21)
(2.4909154 0.028609114 -8.9127591e-22)
(2.4983457 0.016352248 1.0684083e-21)
(2.501925 0.007869016 7.690097e-23)
(2.5035847 0.0015035453 -6.1774859e-23)
(1.4848593 0.93494222 -2.2788144e-20)
(1.7648135 0.69134631 1.4756832e-20)
(2.0680223 0.40295595 1.325708e-21)
(2.2125211 0.27660845 -1.2621449e-21)
(2.3061641 0.18762756 -5.0857509e-22)
(2.3667354 0.1329743 6.0626003e-21)
(2.4094945 0.094801075 -3.3638623e-21)
(2.4398749 0.067364549 2.2527305e-21)
(2.4618099 0.047017984 -1.2107187e-21)
(2.477617 0.03160464 2.2154503e-21)
(2.4886302 0.019919672 1.0392681e-21)
(2.4960932 0.011096083 6.4863847e-22)
(2.500024 0.0050536034 -1.2804064e-22)
(2.5021685 0.00086149459 -3.2865016e-23)
(1.2579922 0.89816154 -8.0556074e-21)
(1.5683655 0.63727721 1.4211025e-20)
(1.9207789 0.34082018 1.572688e-20)
(2.1288224 0.24791119 -2.2686469e-20)
(2.2478684 0.16965144 -5.7779675e-21)
(2.3244863 0.12177073 1.0538185e-20)
(2.3776515 0.08799298 1.1199534e-20)
(2.4152493 0.06363711 -3.4857376e-21)
(2.4425755 0.045470369 6.0563165e-21)
(2.4625877 0.031641426 -9.1745972e-22)
(2.477268 0.020997642 -2.3346147e-21)
(2.4877098 0.012839502 3.978608e-22)
(2.4949787 0.0067889972 5.6365013e-22)
(2.499065 0.002731584 -2.337976e-22)
(2.5015568 0.00032200602 -3.7577462e-22)
(1.0978549 0.84610264 7.6868537e-21)
(1.4175936 0.55044696 7.6986408e-21)
(1.7878646 0.24614005 1.1527619e-21)
(2.0452717 0.1918401 -2.9701515e-20)
(2.191994 0.13840263 -8.4426185e-21)
(2.2826882 0.10097416 -5.22113e-21)
(2.3459429 0.074417962 1.562163e-20)
(2.390387 0.054720471 1.1111469e-21)
(2.422762 0.039886027 -3.4922602e-21)
(2.4467328 0.028431798 -3.1129601e-21)
(2.4646394 0.019471264 7.7512722e-22)
(2.4780357 0.012493158 -1.5692696e-21)
(2.4877711 0.0071015207 1.6074265e-21)
(2.4947195 0.0032675376 -5.7214051e-22)
(2.4988216 0.00081214537 1.6899224e-21)
(2.501505 -0.00011801737 5.1248225e-22)
(1.013323 0.78492978 -2.3835612e-21)
(1.3254972 0.44074923 2.2863299e-20)
(1.6889652 0.13195134 -1.5152938e-20)
(1.9695471 0.10995769 -4.3017574e-21)
(2.1428698 0.0936253 4.5975725e-21)
(2.2439857 0.070877757 -2.5583978e-21)
(2.3160858 0.054057866 5.4597023e-21)
(2.3665138 0.040629385 -5.4206417e-21)
(2.4033794 0.030190487 -4.2996497e-21)
(2.4308063 0.02191359 8.1148315e-23)
(2.4515803 0.01525857 -2.6891286e-21)
(2.4674332 0.0098933504 -1.9508162e-21)
(2.4795442 0.0056997303 8.4864444e-22)
(2.4885323 0.0024567257 -9.818228e-23)
(2.4951 0.00038346815 1.022074e-21)
(2.4991426 -0.00079122585 -2.310722e-21)
(2.5019421 -0.00045524001 7.6201508e-22)
(0.98199285 0.71678418 -1.2914045e-19)
(1.294593 0.31757236 1.31467e-20)
(1.6333641 0.0074410956 1.40674e-20)
(1.9121744 0.01026999 -2.3531535e-21)
(2.1036671 0.036210867 -8.3428367e-23)
(2.2113791 0.032999187 -3.5220188e-21)
(2.2897289 0.027496204 -4.9788417e-21)
(2.3449028 0.021731143 8.8719803e-22)
(2.3854021 0.016618472 4.582542e-21)
(2.4156619 0.012205865 -4.0867089e-21)
(2.4387419 0.0083834537 1.0974685e-21)
(2.4566498 0.0051107214 -1.0340555e-21)
(2.4706316 0.002367874 7.6318758e-23)
(2.4815307 0.00026994038 1.6677966e-21)
(2.4897869 -0.0013217783 0)
(2.4959488 -0.0019947947 -8.9752751e-22)
(2.4999121 -0.0021413034 2.9436649e-22)
(2.5027364 -0.00081734486 -9.6186753e-22)
(0.98741219 0.63603068 4.5653421e-20)
(1.3227957 0.18625379 -3.2768391e-20)
(1.6233128 -0.11966923 2.9293491e-20)
(1.8809567 -0.097416946 -7.4503879e-21)
(2.0766239 -0.031258036 2.1945795e-22)
(2.1872372 -0.01064589 6.3705368e-21)
(2.2682192 -0.0041680201 -9.0127062e-21)
(2.32665 -0.0012739603 6.6395444e-21)
(2.369724 -0.00040805087 -7.8508521e-22)
(2.4020457 -0.00038860292 4.8171354e-21)
(2.4268192 -0.00093708862 -6.8095768e-21)
(2.4462192 -0.0017985008 -4.1339298e-21)
(2.4616624 -0.0027227834 4.7084823e-21)
(2.4740095 -0.0035763117 8.0151088e-22)
(2.4838156 -0.0041043363 -8.5396616e-22)
(2.4913938 -0.0044279382 -1.2115947e-21)
(2.4971487 -0.0039830078 -1.4086695e-21)
(2.5010107 -0.0032851752 3.8185561e-21)
(2.503829 -0.0011191935 3.3441032e-21)
(1.0690754 0.54173351 -3.7271718e-20)
(1.4118586 0.049436714 -2.1038836e-20)
(1.6553054 -0.24125671 6.2264093e-20)
(1.8786173 -0.20348326 -4.6097926e-23)
(2.063553 -0.10356674 2.3462249e-22)
(2.1724979 -0.057918949 1.8781531e-21)
(2.2525449 -0.03932142 1.3465529e-22)
(2.3124853 -0.027534828 -1.0403008e-21)
(2.3569998 -0.020282962 4.453065e-22)
(2.3905907 -0.015458667 -4.1669795e-21)
(2.4163809 -0.012384235 1.7617016e-22)
(2.4367074 -0.010553967 3.6004505e-21)
(2.4531006 -0.0094983704 -7.1119998e-23)
(2.4664951 -0.0088145563 -7.9682145e-22)
(2.4774424 -0.0083089859 -1.6962933e-21)
(2.4862887 -0.0076672966 -4.1112415e-22)
(2.4932521 -0.0070127128 -1.2274747e-21)
(2.4986223 -0.005674292 6.0733796e-23)
(2.5023552 -0.0042695536 -1.1813233e-21)
(2.505154 -0.0013557472 9.228213e-22)
(1.222792 0.44326232 -1.3226902e-19)
(1.551285 -0.084777833 1.6749575e-20)
(1.7210026 -0.35088538 1.6305336e-19)
(1.9022072 -0.30073212 -1.8668423e-20)
(2.0651732 -0.17455993 1.5697734e-21)
(2.1671781 -0.10613364 6.0576256e-21)
(2.2433081 -0.075948953 -5.6033687e-21)
(2.3028118 -0.055869939 -1.7243874e-20)
(2.3477288 -0.042194213 7.822677e-21)
(2.3817817 -0.032408245 0)
(2.4079248 -0.025506306 4.571051e-22)
(2.4285672 -0.020807388 -3.7893257e-21)
(2.4453903 -0.017627569 -2.5990577e-22)
(2.4593882 -0.015372442 4.8297352e-21)
(2.4711103 -0.01360569 4.5713074e-22)
(2.4808703 -0.012132566 -3.7267791e-21)
(2.4888786 -0.010620451 3.1645364e-21)
(2.4952869 -0.009199206 3.8546257e-21)
(2.5003042 -0.0071306111 1.0888762e-21)
(2.5038967 -0.005123724 2.0561439e-22)
(2.5066578 -0.001558846 -8.1809619e-22)
(1.3773279 0.3471223 1.4559271e-19)
(1.7120516 -0.20369062 -4.4024925e-20)
(1.8106423 -0.44232059 -1.0971322e-19)
(1.9464218 -0.38435079 -3.7043427e-20)
(2.080172 -0.23962056 -4.9833483e-21)
(2.1702511 -0.15261738 1.9805743e-20)
(2.2403326 -0.1121873 3.0424394e-21)
(2.2976487 -0.085051366 2.2046183e-23)
(2.3421081 -0.065278338 -6.7187926e-21)
(2.3759353 -0.050608617 7.7603861e-21)
(2.4018087 -0.039781235 -3.4250265e-21)
(2.4221698 -0.032129339 7.2959587e-22)
(2.438875 -0.026784296 -9.7356095e-22)
(2.4530175 -0.022924112 1.289593e-21)
(2.465137 -0.019944107 0)
(2.475495 -0.017450534 -1.1323383e-21)
(2.4842539 -0.015285682 -8.0791965e-22)
(2.4915366 -0.01311568 -3.7575128e-21)
(2.4974501 -0.011079167 -8.6068532e-22)
(2.5021446 -0.0083981095 1.570165e-21)
(2.5055913 -0.0058685478 1.3069342e-21)
(2.5082998 -0.0017324172 -1.9825371e-22)
(1.551624 0.25171124 9.9568832e-20)
(1.8766769 -0.3025063 -1.8229807e-20)
(1.91441 -0.51325037 -8.2818364e-20)
(2.0052264 -0.45221406 3.0898388e-20)
(2.1058126 -0.29561446 2.1594698e-21)
(2.1801899 -0.19514583 -9.1287372e-21)
(2.2427097 -0.14663855 -9.0324433e-21)
(2.2966186 -0.11398151 -2.7817283e-21)
(2.3399913 -0.088823224 4.0996191e-21)
(2.373117 -0.069476482 5.9635768e-21)
(2.3982283 -0.054715854 8.6193735e-22)
(2.417753 -0.044057716 3.8977893e-23)
(2.4338046 -0.03656285 1.7045785e-21)
(2.4476286 -0.031161769 1.489737e-23)
(2.4597715 -0.027009775 0)
(2.4704233 -0.023595602 6.4697083e-22)
(2.4796651 -0.020612152 -2.2394531e-21)
(2.4875779 -0.017945992 -2.4347759e-21)
(2.4942332 -0.015264516 -2.2659904e-21)
(2.4997074 -0.012717494 -3.125479e-21)
(2.5041053 -0.009508744 -5.5662572e-24)
(2.5074029 -0.0065188562 3.3476827e-23)
(2.5100442 -0.0018806698 -2.9450916e-21)
(1.7331847 0.16158113 6.7707985e-21)
(2.0398606 -0.38461847 -4.1207205e-21)
(2.0244096 -0.56311335 1.6623831e-19)
(2.0724714 -0.50295814 1.4156969e-20)
(2.1386646 -0.34085508 -2.0142083e-20)
(2.1951718 -0.23211461 -1.8107808e-20)
(2.2492015 -0.17825602 -4.3429025e-21)
(2.2990776 -0.14176688 5.2492274e-22)
(2.3410177 -0.11221932 -1.85682e-21)
(2.3732383 -0.088513062 -6.879981e-22)
(2.3972546 -0.069852501 6.3832051e-21)
(2.4154685 -0.056145087 -6.6652485e-21)
(2.4303395 -0.046532749 2.5057613e-21)
(2.4433808 -0.039710617 -3.4012947e-21)
(2.4551817 -0.034531085 7.5137598e-23)
(2.4658397 -0.030278814 1.3521117e-21)
(2.4753275 -0.0266012 2.5665101e-21)
(2.4836437 -0.023282835 -1.2477805e-21)
(2.4908376 -0.020242095 3.4647193e-21)
(2.4969498 -0.017145475 5.5693682e-21)
(2.5020334 -0.014158235 6.8793282e-21)
(2.5061562 -0.010483535 -1.6565787e-22)
(2.5093021 -0.0070844607 -2.8636753e-21)
(2.511861 -0.0020064789 7.1261278e-21)
(1.9137161 0.078247317 6.8371103e-21)
(2.1956731 -0.44796633 -1.7904643e-20)
(2.1341711 -0.59575717 5.765651e-20)
(2.1429183 -0.54001681 2.5100793e-20)
(2.1754361 -0.37463224 3.0879169e-20)
(2.2133261 -0.2626113 -1.6105585e-20)
(2.2584499 -0.20638895 -1.9900596e-20)
(2.3041842 -0.1678145 -1.0759978e-20)
(2.3446617 -0.13502896 2.2912247e-21)
(2.3760731 -0.10736653 -1.7302183e-21)
(2.398859 -0.084822849 -6.2640612e-21)
(2.4153817 -0.067985506 3.9766958e-21)
(2.4285644 -0.056278361 -1.1453537e-22)
(2.4403485 -0.048182503 1.7456792e-21)
(2.4514468 -0.042180699 -5.3585586e-21)
(2.461852 -0.03727667 1.2396602e-22)
(2.4713784 -0.032995428 3.9134157e-22)
(2.4799159 -0.029152596 -1.1203339e-22)
(2.4874532 -0.025598461 -6.0051621e-22)
(2.4940341 -0.02226304 4.3479446e-21)
(2.4996752 -0.018811222 -2.481387e-21)
(2.5044089 -0.015430096 -3.635608e-21)
(2.5082723 -0.011336452 -4.1765512e-21)
(2.5112627 -0.007572272 1.8646768e-22)
(2.5137244 -0.0021117179 -5.2273706e-22)
(2.0869444 0.0036986554 -3.0909774e-20)
(2.3393246 -0.49385592 1.9302786e-20)
(2.2390146 -0.61497927 -1.1681883e-19)
(2.2127192 -0.5624655 6.059409e-20)
(2.2131147 -0.39753191 -3.0273567e-20)
(2.2329081 -0.28641212 -7.7082459e-21)
(2.2691496 -0.23074017 1.2071915e-21)
(2.31102 -0.19181469 -1.9218858e-21)
(2.3503172 -0.15698863 -3.5555758e-21)
(2.3812867 -0.1258421 -1.5599384e-21)
(2.4029499 -0.099393953 0)
(2.4175147 -0.079239006 1.9129959e-21)
(2.4285112 -0.065400051 -7.5846252e-21)
(2.4385398 -0.056192175 4.6012914e-21)
(2.4485646 -0.049626817 -6.5624783e-21)
(2.4584825 -0.044321381 2.9135344e-21)
(2.4678887 -0.039623823 4.2874767e-21)
(2.4765029 -0.035329431 5.0792449e-22)
(2.4842392 -0.031380558 -4.0728608e-21)
(2.4911143 -0.027652117 1.5913206e-22)
(2.4971717 -0.024068047 5.4195837e-21)
(2.5024021 -0.020295574 1.2479421e-22)
(2.5068181 -0.016551335 -3.9842949e-21)
(2.5104323 -0.012076909 3.1095776e-22)
(2.513262 -0.0079874066 -1.4920178e-21)
(2.5156122 -0.0021978045 -7.8613041e-21)
(2.2480116 -0.060924872 1.8782965e-20)
(2.4681975 -0.52411256 -2.4673536e-20)
(2.3360898 -0.6231527 -1.018874e-20)
(2.2791114 -0.57183549 8.6667931e-21)
(2.2491075 -0.410603 -1.5596109e-20)
(2.2523323 -0.30380677 4.8217396e-20)
(2.2801413 -0.25131959 3.2541614e-20)
(2.318696 -0.21368229 2.0583591e-20)
(2.3573525 -0.17801612 -5.7892556e-22)
(2.388509 -0.14389496 -6.8792642e-21)
(2.409386 -0.1134323 -2.4500018e-21)
(2.4218539 -0.089686735 2.1262237e-22)
(2.4301894 -0.073551239 -1.1176622e-22)
(2.4379183 -0.06335405 -1.0654634e-22)
(2.4464657 -0.056535947 -7.7212834e-22)
(2.4556715 -0.051154026 2.8355612e-21)
(2.4648485 -0.046284764 2.0143169e-21)
(2.4734592 -0.04169218 1.3927811e-21)
(2.4812887 -0.037388993 -1.4914857e-21)
(2.4883341 -0.033373508 -2.8236189e-21)
(2.4946457 -0.029505731 1.8018512e-21)
(2.5002563 -0.025694819 8.4246043e-21)
(2.5051255 -0.021619388 2.4043964e-21)
(2.5092475 -0.017533542 8.6659667e-21)
(2.5126179 -0.012711613 1.7399415e-21)
(2.5152798 -0.008333986 -4.1939616e-21)
(2.5175053 -0.0022659221 4.3491232e-23)
(2.3943416 -0.115554 6.1078302e-20)
(2.5820147 -0.54151025 1.9803008e-20)
(2.4239136 -0.6224489 2.6110346e-21)
(2.3403816 -0.56950004 -2.6927854e-20)
(2.2818224 -0.41504824 1.5273459e-20)
(2.2702281 -0.31540453 1.9103e-20)
(2.2904866 -0.26836957 -1.8946168e-21)
(2.3264147 -0.2335181 0)
(2.365149 -0.19816806 1.5730198e-21)
(2.397363 -0.16161722 7.121352e-21)
(2.4180419 -0.12697038 1.5428624e-21)
(2.4284051 -0.099119753 -2.8443591e-21)
(2.4335842 -0.080446115 2.1824011e-22)
(2.4384146 -0.069326112 -3.6753192e-21)
(2.4450276 -0.062575636 5.65878e-21)
(2.4532888 -0.057520267 1.3360099e-21)
(2.4621695 -0.052801481 -1.7357991e-21)
(2.4707682 -0.048102609 2.6382466e-21)
(2.4786572 -0.043542974 -1.9458563e-23)
(2.4857809 -0.03924561 -1.6987146e-21)
(2.4922288 -0.035191395 1.8295518e-21)
(2.4980647 -0.031199287 1.2400336e-22)
(2.5032945 -0.02716625 -1.0969184e-20)
(2.5078414 -0.022795115 -1.4678304e-21)
(2.5116852 -0.018384343 -4.0203096e-22)
(2.5148123 -0.013245824 7.9018265e-21)
(2.5172984 -0.0086156127 2.0991506e-21)
(2.519387 -0.0023171636 -3.4236674e-21)
(2.5256354 -0.16085284 -1.9303849e-19)
(2.6816715 -0.5501078 6.4462608e-21)
(2.502074 -0.61573726 1.6242111e-20)
(2.3954252 -0.55823596 8.1661935e-21)
(2.3113711 -0.41210336 4.3470523e-21)
(2.2857577 -0.32194401 -3.7971329e-20)
(2.2995323 -0.28198667 -3.3970436e-20)
(2.333508 -0.25149271 -1.1124775e-21)
(2.3731346 -0.21760291 0)
(2.4074704 -0.17920694 3.1563837e-21)
(2.4288069 -0.14011987 3.4595057e-21)
(2.4372017 -0.10755078 -1.539619e-21)
(2.4387704 -0.08576179 -2.3976587e-22)
(2.4399574 -0.073724413 -4.57307e-22)
(2.4440807 -0.067428649 2.6715854e-21)
(2.4511376 -0.063175201 -5.6169038e-22)
(2.4596911 -0.059016676 1.257045e-21)
(2.468344 -0.05446379 -5.3384306e-21)
(2.4763429 -0.049756101 1.5153932e-23)
(2.4835227 -0.045213874 -1.8513662e-22)
(2.4900071 -0.040950997 -2.2568041e-21)
(2.4959476 -0.036875386 5.2941306e-21)
(2.5013891 -0.032757705 -5.0451952e-21)
(2.5062931 -0.028495446 -8.7416844e-21)
(2.5105461 -0.023830076 6.5142788e-21)
(2.5141201 -0.019109205 -4.8234401e-21)
(2.5170008 -0.013684144 1.962114e-21)
(2.5193022 -0.0088356745 4.3257599e-21)
(2.5212431 -0.002352622 3.2509934e-22)
(2.6433228 -0.19886855 -2.4840829e-19)
(2.7683647 -0.55165434 1.7890437e-20)
(2.5707157 -0.6017672 -2.3684105e-20)
(2.4430196 -0.54058637 -1.3334773e-20)
(2.3380492 -0.40329988 2.1496224e-20)
(2.2996109 -0.32442204 -1.6345659e-20)
(2.3067553 -0.29300714 7.9045634e-22)
(2.3394864 -0.26786097 -1.4472131e-20)
(2.3808075 -0.23652341 -1.2867311e-21)
(2.4184781 -0.19693322 -1.3797313e-20)
(2.4415738 -0.15311293 -1.9946818e-21)
(2.448306 -0.1149323 -2.4762059e-22)
(2.4457951 -0.089420333 -1.3341861e-21)
(2.4425384 -0.076241014 -2.222434e-22)
(2.4434627 -0.070710205 2.8776679e-21)
(2.4489698 -0.06786779 -5.3335732e-22)
(2.4571816 -0.064793062 1.0776676e-21)
(2.4660332 -0.06071527 7.3063553e-22)
(2.4742892 -0.055997238 4.0758177e-21)
(2.4815868 -0.051225591 -1.0490917e-22)
(2.4880661 -0.046739941 -1.534682e-22)
(2.4939893 -0.042546703 -1.4924525e-22)
(2.4995156 -0.038453931 -6.7896905e-23)
(2.5046363 -0.03419558 2.5799084e-22)
(2.5092584 -0.02968923 1.2215475e-21)
(2.5132358 -0.024728658 -4.3535164e-21)
(2.5165419 -0.019712565 -5.1084122e-22)
(2.5191701 -0.01403096 -7.1082262e-21)
(2.5212777 -0.0089975525 7.1930196e-21)
(2.5230616 -0.0023734317 3.8559431e-21)
(2.7576645 -0.22990864 1.8549905e-19)
(2.8429379 -0.54748435 -3.0315765e-20)
(2.6305023 -0.58253509 2.2130881e-21)
(2.4833392 -0.51773476 -9.2537768e-21)
(2.3602082 -0.39060444 1.6014901e-21)
(2.312152 -0.32333975 0)
(2.3109961 -0.30170952 1.8531993e-20)
(2.343833 -0.28287628 2.4928262e-21)
(2.3877431 -0.25516359 -8.5215942e-21)
(2.4300609 -0.21510392 -1.4521467e-20)
(2.456265 -0.16624397 4.0801142e-22)
(2.4618277 -0.12137493 -1.0123529e-21)
(2.4547311 -0.091151442 -1.7524659e-21)
(2.4461058 -0.076553628 -9.4771606e-23)
(2.4429511 -0.072224023 1.111628e-21)
(2.4465094 -0.071350915 3.1392247e-21)
(2.4543532 -0.07000263 -1.0097987e-21)
(2.4636163 -0.06683135 -4.1782811e-22)
(2.4723847 -0.062286916 1.456806e-21)
(2.4799653 -0.057292814 3.9073535e-21)
(2.4864684 -0.052517842 -4.9160712e-22)
(2.4922906 -0.048162771 -2.5683942e-22)
(2.497752 -0.044068134 3.8984709e-21)
(2.5029594 -0.039946111 -1.9457302e-21)
(2.5078238 -0.035520282 3.6348088e-21)
(2.5121957 -0.030750486 3.8281467e-23)
(2.5159062 -0.02549371 -5.3970877e-22)
(2.5189407 -0.020198501 -4.6235795e-21)
(2.5213085 -0.014290682 5.3867878e-21)
(2.5232134 -0.0091047562 -3.9053219e-21)
(2.5248324 -0.0023807808 2.0406704e-21)
(2.8732796 -0.25628511 2.1307995e-19)
(2.9128804 -0.53774531 -6.3254923e-21)
(2.6814807 -0.5589387 2.0771666e-20)
(2.5174623 -0.49152871 4.6622973e-21)
(2.3779539 -0.3748541 5.4962535e-20)
(2.3220068 -0.31944038 9.8909322e-21)
(2.3128692 -0.30795332 2.6214556e-20)
(2.3453755 -0.29686209 5.1184213e-21)
(2.3935233 -0.2737049 1.3389667e-22)
(2.4419115 -0.23403811 -4.6247686e-21)
(2.4728269 -0.17986848 2.8182898e-20)
(2.4779085 -0.12700973 -3.5818214e-21)
(2.4657668 -0.090865583 2.279738e-21)
(2.450639 -0.074325414 5.2430757e-22)
(2.4423596 -0.07138877 -1.3932644e-21)
(2.44339 -0.073402393 4.8885807e-21)
(2.450855 -0.0745516 -5.4665298e-21)
(2.4608149 -0.072822409 2.6165868e-21)
(2.4704633 -0.068697319 -1.031186e-21)
(2.4786135 -0.063490611 -7.5663791e-21)
(2.4852636 -0.058312882 3.7674512e-22)
(2.4909478 -0.05367444 0)
(2.4962081 -0.049530892 -4.6037824e-21)
(2.5013274 -0.045544859 -7.5006431e-23)
(2.5063084 -0.04136323 -2.4265208e-21)
(2.5109684 -0.036733889 4.1512479e-23)
(2.515109 -0.031679654 3.9276081e-21)
(2.5185524 -0.026127388 4.6150402e-21)
(2.5213072 -0.020571114 -1.3589951e-21)
(2.5234054 -0.014467895 -7.1962471e-22)
(2.5250994 -0.0091609815 -4.0145039e-21)
(2.5265473 -0.002375893 2.9779188e-21)
(2.9809712 -0.2757176 8.688248e-20)
(2.9783599 -0.52324243 -3.1043714e-21)
(2.7306376 -0.53147207 -9.3289644e-21)
(2.5453497 -0.46227659 8.937713e-22)
(2.3924546 -0.35723546 8.5157463e-21)
(2.3267067 -0.31362541 -1.2363469e-21)
(2.31467 -0.31114214 -3.7661387e-21)
(2.342837 -0.31015377 -2.2613235e-22)
(2.3976506 -0.29244874 -2.9527271e-20)
(2.4537359 -0.25402929 2.4403363e-20)
(2.4912054 -0.19438274 -9.8818299e-21)
(2.4967237 -0.13202413 0)
(2.4791062 -0.088462955 3.0255878e-21)
(2.4562137 -0.06924924 -7.6891179e-23)
(2.4415384 -0.067960112 5.8888769e-21)
(2.4392832 -0.073667978 1.4019402e-21)
(2.4462992 -0.078308586 1.0688311e-21)
(2.4572884 -0.078731362 -1.2009255e-21)
(2.4683057 -0.075355605 -2.4737077e-21)
(2.4774493 -0.0699596 3.7255686e-22)
(2.4844867 -0.064221903 6.8629323e-22)
(2.4900662 -0.059098538 6.8995186e-22)
(2.495004 -0.054766568 -5.0734989e-22)
(2.4998479 -0.050894763 -4.9064882e-21)
(2.5047558 -0.046999047 2.7782966e-21)
(2.5095928 -0.042709534 -2.1996954e-21)
(2.5140846 -0.037834504 -1.1783686e-22)
(2.5180002 -0.032475733 -3.3383066e-22)
(2.5211687 -0.026631713 -4.951199e-21)
(2.5236325 -0.020834775 6.0809925e-21)
(2.5254516 -0.014567437 -4.7118219e-21)
(2.5269276 -0.0091701024 6.1285663e-22)
(2.5281998 -0.0023599938 -3.9783757e-21)
(3.0783844 -0.28811651 3.6069025e-20)
(3.0361443 -0.50350976 7.6054796e-20)
(2.7773436 -0.49853152 2.3145899e-21)
(2.5732652 -0.43129751 -8.0658164e-21)
(2.403052 -0.3367946 -7.8325738e-21)
(2.3276299 -0.30517291 5.7711486e-21)
(2.3138046 -0.31256555 -9.4014699e-21)
(2.3381056 -0.32254072 -3.8526581e-21)
(2.3999274 -0.31171703 1.8313163e-20)
(2.4653012 -0.27540948 6.2455183e-20)
(2.5113553 -0.21018951 -2.5114148e-20)
(2.5184517 -0.13662819 -1.5572587e-21)
(2.4949772 -0.083877979 -2.320733e-21)
(2.4629284 -0.061019631 -3.4502149e-22)
(2.4403057 -0.061578731 -3.0245714e-21)
(2.4338712 -0.072033588 5.6916451e-22)
(2.4402723 -0.081228736 6.806344e-21)
(2.4526707 -0.0846143 -1.6081437e-21)
(2.4656449 -0.082430614 4.7126634e-22)
(2.4763523 -0.076908546 6.7223173e-21)
(2.4841572 -0.070415295 -3.7390286e-21)
(2.48976 -0.064519113 8.1583659e-22)
(2.4942897 -0.059756471 1.2347444e-22)
(2.4986512 -0.055881474 -2.3344475e-22)
(2.5032595 -0.052299476 7.8543281e-21)
(2.5080835 -0.048443505 2.2488068e-21)
(2.5128416 -0.043982731 -2.8510948e-21)
(2.5171844 -0.03881725 2.3645626e-21)
(2.5208691 -0.033137023 -4.5756115e-21)
(2.5237488 -0.027008973 -2.3421093e-21)
(2.5259082 -0.020994296 -4.0201833e-21)
(2.5274393 -0.014594444 -2.9128922e-22)
(2.5286913 -0.0091361132 1.2615331e-21)
(2.5297849 -0.0023342653 -3.2685539e-21)
(3.1603825 -0.29479344 -5.6486507e-20)
(3.0870771 -0.47891739 3.6813384e-22)
(2.8170226 -0.46033274 2.3309944e-20)
(2.597071 -0.39583749 -7.1818359e-21)
(2.4134172 -0.31493631 5.6427666e-21)
(2.3255528 -0.29474385 5.8573265e-22)
(2.3088551 -0.31263656 -3.6040458e-21)
(2.3336828 -0.33431291 -1.5000602e-20)
(2.4004639 -0.33181326 6.374162e-20)
(2.4764043 -0.29828844 -7.5912398e-22)
(2.5332129 -0.2277359 3.9048012e-20)
(2.543266 -0.14105815 1.6384861e-20)
(2.5136031 -0.077063877 -3.8057465e-21)
(2.4708891 -0.049359896 -5.1510027e-21)
(2.4385077 -0.051808186 -5.5852146e-21)
(2.4267515 -0.06807442 7.3705993e-21)
(2.432319 -0.083181542 -3.9196838e-21)
(2.4465453 -0.090562645 2.6344955e-22)
(2.4621748 -0.090133307 3.1276791e-22)
(2.4751657 -0.084603811 -6.2313716e-21)
(2.4842761 -0.077141344 4.450649e-21)
(2.4901526 -0.070094467 -2.2853376e-22)
(2.4942455 -0.064540445 5.5580501e-21)
(2.4979126 -0.060433168 -5.1749905e-21)
(2.5019428 -0.057105787 7.1484474e-21)
(2.5065084 -0.053777751 6.0679412e-22)
(2.5113596 -0.049880355 -2.8325701e-21)
(2.5160813 -0.045174701 -1.1917907e-22)
(2.5202762 -0.039675236 2.2905374e-21)
(2.5237136 -0.033661786 5.9048573e-21)
(2.5262857 -0.027262067 -6.1084435e-21)
(2.5281267 -0.021055032 -1.5429602e-21)
(2.5293616 -0.014554315 1.7593133e-22)
(2.5303852 -0.0090630503 2.0536237e-21)
(2.5312991 -0.0022998151 1.5874364e-21)
(3.2284145 -0.29767055 -9.5889094e-20)
(3.1345787 -0.44904694 -8.5211499e-20)
(2.8453765 -0.4157734 2.9707989e-21)
(2.6092932 -0.3549996 1.6231999e-21)
(2.4164934 -0.2889326 -1.8940869e-22)
(2.3211022 -0.28249345 -2.3249102e-20)
(2.3007619 -0.31396601 -2.2963131e-21)
(2.3283771 -0.34526572 5.8099411e-20)
(2.4000604 -0.35279981 -1.4314896e-20)
(2.4869243 -0.3232068 -4.4714431e-20)
(2.5567806 -0.24729472 -2.2014587e-20)
(2.5713597 -0.14553554 -2.9049041e-21)
(2.535207 -0.068003514 5.0252594e-21)
(2.4801998 -0.033986137 -3.8426944e-21)
(2.4359949 -0.038275966 -1.1648822e-22)
(2.4175351 -0.061542482 -8.5344843e-23)
(2.4219721 -0.084086958 -7.8103013e-22)
(2.4384656 -0.096659218 4.1760131e-21)
(2.4575541 -0.098685681 -4.1577736e-21)
(2.4736947 -0.093361795 4.2930023e-21)
(2.4848235 -0.084718555 2.7699729e-23)
(2.4913729 -0.076064336 -4.8497567e-21)
(2.4950852 -0.06922496 1.5577364e-21)
(2.4978557 -0.064521661 3.2534558e-21)
(2.5009839 -0.061283933 1.4168718e-21)
(2.5049667 -0.058510042 -4.7437152e-22)
(2.5096701 -0.055345021 -7.8755252e-21)
(2.5146309 -0.05130083 -3.7738614e-24)
(2.519333 -0.046272585 5.7238674e-21)
(2.5233641 -0.040400574 -8.6583722e-21)
(2.5265293 -0.034048867 3.8376822e-21)
(2.5287722 -0.027394745 3.0009145e-21)
(2.5302809 -0.021022888 1.1336885e-21)
(2.531213 -0.014452638 -3.2178618e-22)
(2.5320055 -0.008954908 -9.0321632e-22)
(2.5327399 -0.0022576613 1.4756326e-21)
(3.2864279 -0.29554538 2.6295619e-20)
(3.1700764 -0.41103609 1.6820333e-21)
(2.8578465 -0.36346175 -3.2230252e-20)
(2.6031766 -0.30655438 1.1483131e-20)
(2.401568 -0.25733328 -1.693692e-20)
(2.307284 -0.26702652 -5.5930475e-22)
(2.2883519 -0.31298229 1.9654549e-20)
(2.323109 -0.35719163 3.8370431e-20)
(2.398764 -0.37384752 -2.8641768e-20)
(2.4969246 -0.34926433 -9.0209062e-22)
(2.5810789 -0.26934872 -1.5777139e-20)
(2.6027078 -0.15026944 -2.6528637e-20)
(2.560124 -0.056624538 7.5524914e-21)
(2.4910083 -0.014636872 4.0565741e-21)
(2.4326176 -0.020530403 -4.4449928e-22)
(2.4058262 -0.052158483 3.7187363e-21)
(2.4087659 -0.083872607 5.3608805e-21)
(2.4280002 -0.1030118 -2.8170695e-21)
(2.4514208 -0.10833922 1.0352504e-21)
(2.471714 -0.10352671 8.1858276e-23)
(2.4857531 -0.09352665 8.4504883e-22)
(2.4935505 -0.082745748 7.2589907e-21)
(2.4970532 -0.073992578 -5.0864058e-21)
(2.4987572 -0.068169991 -3.9680131e-21)
(2.5006204 -0.064724586 1.5463675e-21)
(2.5036164 -0.062443924 -3.6068713e-21)
(2.5078338 -0.060137553 -5.754802e-22)
(2.5128215 -0.05699741 1.6999845e-21)
(2.5179385 -0.052686377 -6.4203428e-23)
(2.5226117 -0.047260296 2.9288902e-21)
(2.5264483 -0.040985432 7.5842333e-22)
(2.52931 -0.034298185 -9.7259584e-21)
(2.5312011 -0.027411715 5.4517612e-21)
(2.5323645 -0.020904245 -3.4821834e-21)
(2.5329891 -0.014295075 -4.2806544e-21)
(2.5335494 -0.0088155708 2.7240185e-21)
(2.5341059 -0.0022087429 6.6727228e-22)
(3.329971 -0.28773671 9.8909567e-20)
(3.1835094 -0.36553612 1.8515778e-20)
(2.8524217 -0.30248651 -7.6816603e-21)
(2.5778006 -0.24940837 -6.8120685e-21)
(2.3615727 -0.21897635 -1.9413456e-20)
(2.2734935 -0.24852295 -1.4245407e-21)
(2.2681666 -0.31021021 -1.6889139e-20)
(2.3130844 -0.36732306 -6.2502623e-21)
(2.3977286 -0.39589213 -3.5881429e-20)
(2.5055027 -0.37637739 -2.1910419e-21)
(2.6027303 -0.29171683 -6.4152293e-20)
(2.6328883 -0.15523749 -1.3743275e-22)
(2.5872737 -0.043056541 1.3442073e-20)
(2.5036342 0.0089212642 7.1058964e-21)
(2.4282635 0.0017973237 -7.5140461e-22)
(2.3912231 -0.039593173 -1.063607e-20)
(2.3922299 -0.082493158 8.6727304e-21)
(2.4147265 -0.10973948 -3.8365649e-22)
(2.4434137 -0.1193328 5.8133307e-21)
(2.4689712 -0.11546217 4.8275741e-22)
(2.4869885 -0.10399193 2.7560192e-21)
(2.4968076 -0.090529425 -3.6708715e-21)
(2.5004205 -0.079101513 2.9320723e-21)
(2.5009466 -0.071462685 -1.1465426e-21)
(2.5011555 -0.067348818 4.5393905e-21)
(2.5026782 -0.065387419 -8.4156813e-22)
(2.5059678 -0.064006671 4.4321122e-21)
(2.5106637 -0.061999042 -5.4137254e-22)
(2.5160334 -0.05871264 5.9666964e-21)
(2.5213145 -0.054010894 -4.3682913e-21)
(2.5259254 -0.048120303 2.0239754e-21)
(2.5295252 -0.041423 6.3864714e-22)
(2.5320482 -0.034411051 1.138004e-22)
(2.533565 -0.027318595 2.7621876e-21)
(2.5343722 -0.020705828 3.5224258e-21)
(2.5346865 -0.014087263 2.9677813e-22)
(2.5350151 -0.0086487586 -2.594972e-22)
(2.5353968 -0.0021539316 -5.1366845e-22)
(3.3541524 -0.27354401 -2.7228345e-20)
(3.1753868 -0.31211763 3.0963426e-21)
(2.8306959 -0.2335274 -3.6896355e-21)
(2.5387878 -0.18380033 -3.8121858e-20)
(2.3018791 -0.17334067 -1.8154311e-21)
(2.2131923 -0.2274037 -9.0876132e-22)
(2.2334589 -0.30740777 -4.1983854e-20)
(2.2971576 -0.3770121 -1.8974722e-20)
(2.3892511 -0.41719662 -7.4299195e-21)
(2.5123916 -0.40251946 0)
(2.6199854 -0.31677233 -2.8315832e-20)
(2.6545054 -0.15840227 1.0815583e-19)
(2.611198 -0.026245718 3.7976277e-20)
(2.5152313 0.036694561 2.5905762e-20)
(2.4230025 0.029077881 -1.9003644e-21)