/*--------------------------------*- C++ -*----------------------------------*\
| =========                 |                                                 |
| \\      /  F ield         | OpenFOAM: The Open Source CFD Toolbox           |
|  \\    /   O peration     | Version:  v2012                                 |
|   \\  /    A nd           | Website:  www.openfoam.com                      |
|    \\/     M anipulation  |                                                 |
\*---------------------------------------------------------------------------*/
FoamFile
{
    version     2.0;
    format      ascii;
    class       surfaceVectorField;
    location    "30.0070385386842844";
    object      Uf;
}
// * * * * * * * * * * * * * * * * * * * * * * * * * * * * * * * * * * * * * //

dimensions      [0 1 -1 0 0 0 0];


internalField   nonuniform List<vector> 
18180
(
(2.7202327 0.042599761 -2.6157397e-21)
(2.6857063 0.01832972 -7.1042159e-21)
(2.7251516 0.087310669 -4.9581333e-21)
(2.6859243 0.065109467 8.7897038e-21)
(2.6611748 0.042978009 4.7070994e-21)
(2.6511542 0.017681656 -1.0817052e-21)
(2.7321271 0.13603761 -5.4703282e-21)
(2.6858488 0.10837076 -1.1808212e-20)
(2.6579904 0.086907449 1.0109029e-21)
(2.6481664 0.062809976 1.1199516e-20)
(2.6340709 0.039859627 5.8040953e-21)
(2.6201951 0.016129309 -1.0664287e-21)
(2.7406573 0.19290717 -3.5922456e-21)
(2.6839338 0.15932474 8.1380194e-21)
(2.6517288 0.13327109 2.3938351e-21)
(2.6432547 0.10316316 1.1642079e-21)
(2.6286795 0.079639474 1.0975969e-20)
(2.6151359 0.057164472 -4.8770135e-22)
(2.6024585 0.035743891 -7.1162475e-21)
(2.5933735 0.014217123 -3.2294792e-21)
(2.7491515 0.26126608 1.9153662e-20)
(2.6785642 0.21664997 1.7307142e-21)
(2.6402305 0.18442651 1.3126448e-20)
(2.6337064 0.14909145 6.2069677e-21)
(2.6192803 0.12059181 5.0494761e-21)
(2.6069122 0.092745942 1.2949348e-20)
(2.5947102 0.070678998 2.0900826e-21)
(2.5871135 0.050303597 1.3514693e-21)
(2.5779565 0.030927238 5.1801093e-21)
(2.5709529 0.012151313 2.9419354e-21)
(2.7563302 0.34474019 3.5523198e-20)
(2.6673169 0.28442723 1.753892e-20)
(2.6214658 0.24182424 5.831719e-22)
(2.6183387 0.19788817 -5.4466545e-21)
(2.6041216 0.16383354 -1.2481694e-20)
(2.5926988 0.13189716 -3.7645983e-21)
(2.5818973 0.10546998 3.5984239e-21)
(2.5770905 0.08056265 1.0192099e-20)
(2.5693151 0.060516607 9.6207172e-21)
(2.5641866 0.04289269 4.7178969e-21)
(2.5574465 0.026044967 2.5771162e-21)
(2.5527123 0.010119213 2.4183782e-21)
(2.7603029 0.44703635 7.8191185e-21)
(2.6480228 0.36400554 1.2129138e-21)
(2.5924376 0.30664828 -1.7326964e-20)
(2.5946321 0.25186542 -4.4510279e-21)
(2.5815025 0.20961399 -1.0261277e-20)
(2.5719496 0.17131 -3.666465e-21)
(2.562552 0.14045829 4.6941737e-21)
(2.5606567 0.11265773 -1.2943682e-21)
(2.5554816 0.089009021 4.8777381e-21)
(2.5535037 0.067807266 -2.9005169e-22)
(2.5485724 0.050445444 -5.1247391e-21)
(2.5459243 0.035644516 -1.5150457e-21)
(2.5413064 0.021399932 -1.7314516e-21)
(2.5382336 0.0082249645 -2.4438366e-21)
(2.7515126 0.5713487 3.9356166e-21)
(2.6163673 0.4587814 -1.6297946e-20)
(2.5473145 0.38056124 -2.4217944e-20)
(2.5594614 0.31052257 -9.6596441e-21)
(2.5488025 0.25767009 2.6979706e-21)
(2.5426052 0.2121877 1.1188725e-21)
(2.5356958 0.17525789 7.6036961e-21)
(2.5379069 0.1431101 -2.6366233e-21)
(2.5354685 0.11623422 -8.4564786e-21)
(2.5365854 0.093247985 -8.9968897e-21)
(2.5346996 0.073139601 -1.4139921e-20)
(2.5353619 0.055619648 -9.2520035e-21)
(2.5327329 0.041025017 -5.8833084e-21)
(2.5317374 0.028922135 -2.6342771e-21)
(2.5287572 0.017179503 -3.3271113e-21)
(2.5270055 0.0065258611 -4.1217842e-21)
(2.6810638 0.71131134 2.9564929e-20)
(2.5664253 0.57297052 2.0771628e-20)
(2.4811162 0.46553645 1.1271499e-21)
(2.5075665 0.37406922 -2.6179942e-20)
(2.5033866 0.30682506 -1.2380008e-20)
(2.5026094 0.25284605 -1.0896475e-20)
(2.4998541 0.20885065 -1.2527973e-20)
(2.5075092 0.1724435 -6.0356065e-21)
(2.5089806 0.14147685 -1.5984158e-20)
(2.5140784 0.1158765 -7.3808722e-21)
(2.5152505 0.09367787 -7.8769446e-21)
(2.5190582 0.075214893 -6.1930887e-21)
(2.5195901 0.058629906 -1.426149e-21)
(2.5217737 0.044535837 -2.0859037e-21)
(2.5207725 0.032589095 1.054962e-21)
(2.5209789 0.022922019 1.948647e-22)
(2.5192685 0.013463743 -5.0373534e-22)
(2.5185053 0.0050464135 -8.4569905e-23)
(2.500542 0.83408374 6.8726738e-21)
(2.4587043 0.6910204 7.1297072e-21)
(2.3896368 0.56096113 -1.5858813e-21)
(2.4358646 0.44223659 9.5851128e-21)
(2.4429974 0.35367928 -1.5901578e-20)
(2.4496878 0.29112589 -2.6680404e-20)
(2.453629 0.23927359 -2.5283076e-20)
(2.468677 0.19862208 -1.8398917e-20)
(2.4754188 0.16351912 -1.2325775e-20)
(2.4853054 0.13587531 -1.1805785e-20)
(2.4904459 0.11127653 -3.56544e-21)
(2.4980564 0.091435615 8.2203968e-22)
(2.5016298 0.073636159 2.5375088e-21)
(2.506702 0.059192528 3.7345252e-21)
(2.5087337 0.045880916 3.184473e-21)
(2.5118701 0.034808724 3.6960551e-21)
(2.5120203 0.025252962 2.9109924e-21)
(2.5130304 0.017708934 1.228892e-21)
(2.5122741 0.010269424 1.6560153e-21)
(2.5122427 0.0037900128 1.4813892e-21)
(2.2275102 0.91202019 -1.3590902e-20)
(2.274896 0.78009621 -3.3954413e-20)
(2.2600383 0.64482086 -3.4368703e-20)
(2.3361283 0.50672693 1.1388474e-21)
(2.3638614 0.39393914 1.2097294e-20)
(2.3827781 0.32354606 1.155826e-20)
(2.3960497 0.26365381 1.9666356e-21)
(2.4206831 0.21962123 2.9304716e-22)
(2.4346241 0.1806006 7.2457022e-21)
(2.4503381 0.15140385 -5.9252935e-21)
(2.4602963 0.12483534 -5.328242e-21)
(2.4721546 0.10433144 -3.2121337e-21)
(2.4794228 0.085319488 9.4738237e-22)
(2.4878076 0.070342378 -1.1852714e-21)
(2.492627 0.056445573 -8.0082511e-23)
(2.498313 0.045405283 1.1641667e-21)
(2.5012493 0.034972279 1.5939098e-21)
(2.5048812 0.026482088 4.6939955e-22)
(2.5058075 0.019009874 -1.1591408e-21)
(2.5073403 0.013268402 -1.6097732e-22)
(2.5072888 0.0075722588 -3.5693974e-22)
(2.5077824 0.002744323 2.4670872e-22)
(1.9180198 0.9441018 1.5479476e-20)
(2.0335845 0.81964717 1.2713721e-21)
(2.0816178 0.69433664 -1.7835246e-20)
(2.1976538 0.54861521 -2.3891989e-20)
(2.2613358 0.41903279 1.0015697e-20)
(2.3008932 0.34569169 3.3581443e-20)
(2.3277217 0.27883573 3.3416776e-20)
(2.3635736 0.23256321 2.5848413e-20)
(2.3869025 0.19046319 2.4665351e-20)
(2.4094533 0.16094023 1.4500414e-20)
(2.4252915 0.13300891 2.2048567e-21)
(2.4419321 0.11243897 -6.8473344e-21)
(2.45335 0.092795954 -4.8615242e-21)
(2.4651951 0.077984397 1.4443246e-21)
(2.4732241 0.063672528 -5.4756052e-22)
(2.48171 0.052638312 -5.8344444e-21)
(2.487094 0.042036845 -4.7580449e-21)
(2.4929082 0.033800603 -8.5434359e-22)
(2.4963225 0.025818586 -1.942932e-21)
(2.5001583 0.019483589 -9.5735388e-22)
(2.5015881 0.013779982 -1.2509228e-23)
(2.503439 0.0095389046 -5.3503935e-22)
(2.5038942 0.0053222778 3.4619048e-23)
(2.5047546 0.001884601 -3.6632196e-23)
(1.6210587 0.94252329 4.6938255e-21)
(1.7747474 0.81806204 2.4255889e-20)
(1.8705739 0.70056559 1.0898609e-20)
(2.0234493 0.55202569 4.0024183e-21)
(2.1346421 0.41539566 -1.3978382e-21)
(2.2034765 0.34939689 -2.989476e-21)
(2.2511078 0.28060345 1.9422724e-20)
(2.2987325 0.23449513 2.0108017e-20)
(2.3332883 0.19061011 1.2773262e-20)
(2.3635969 0.16245448 1.6340275e-20)
(2.3863405 0.13435948 6.6432785e-21)
(2.4081071 0.1147473 1.8583549e-21)
(2.4242025 0.095131345 -6.746328e-21)
(2.4397009 0.081055323 -3.9465097e-21)
(2.4510987 0.066907042 2.0582271e-21)
(2.4623384 0.056481183 2.9320306e-22)
(2.4704182 0.045961612 -4.7153668e-21)
(2.4785394 0.038056747 -3.0316274e-21)
(2.4840425 0.030161759 7.1432891e-22)
(2.4897129 0.0241888 9.0750652e-23)
(2.4933246 0.018244882 1.0533483e-21)
(2.4971732 0.013678429 8.5487903e-22)
(2.4989111 0.0094476448 3.7237631e-22)
(2.5009371 0.0064367975 -3.0967949e-23)
(2.5017446 0.003457761 -9.6020268e-23)
(2.5028548 0.00117693 -4.7068662e-23)
(1.3676156 0.91634656 -1.5174448e-20)
(1.5390474 0.78356649 -3.9714908e-21)
(1.6632901 0.66465016 1.4474761e-20)
(1.839295 0.51308642 1.5250132e-20)
(1.9919273 0.37303168 8.7681888e-21)
(2.0922954 0.32409122 -1.0886281e-20)
(2.1692656 0.26311675 -1.2334222e-20)
(2.2293166 0.22220585 -3.4653034e-21)
(2.2760367 0.17895206 -3.2318127e-21)
(2.3143619 0.15412683 5.027151e-21)
(2.3449007 0.12752974 8.3756169e-21)
(2.3719334 0.1100931 8.675511e-21)
(2.3930377 0.091481743 4.1626785e-21)
(2.412191 0.07894804 -3.425856e-21)
(2.427148 0.065560314 -7.1300811e-22)
(2.441128 0.056226939 4.2167412e-21)
(2.4518692 0.046290947 2.5450305e-21)
(2.4621331 0.039195831 -1.0615432e-21)
(2.4698496 0.031672276 5.9629915e-22)
(2.4773952 0.026208775 -9.9104521e-23)
(2.482758 0.020491253 -7.044158e-22)
(2.4881329 0.016317924 7.1299125e-22)
(2.4917605 0.012039777 5.1903304e-22)
(2.4955063 0.0089050213 6.090981e-22)
(2.4974166 0.0058845342 2.2942808e-22)
(2.4995182 0.0038723526 -1.8183861e-22)
(2.5005647 0.001916513 -1.367049e-22)
(2.501838 0.00058703653 -2.0652135e-22)
(1.1752346 0.87220298 7.9961612e-23)
(1.3516275 0.72133471 1.1781409e-22)
(1.4904477 0.5931546 1.0845475e-20)
(1.676082 0.43836875 7.57055e-21)
(1.8520896 0.29402364 8.1950685e-21)
(1.9762176 0.26503852 -7.3767407e-21)
(2.0856437 0.22047396 -2.6311817e-20)
(2.1591994 0.19220942 -1.5441867e-20)
(2.2189925 0.15432778 -7.1550585e-21)
(2.2643287 0.13471558 -5.5937571e-21)
(2.3028849 0.1114814 2.3937047e-21)
(2.3350343 0.097683004 1.3069715e-20)
(2.3612642 0.081252586 1.3484915e-20)
(2.3838885 0.071067106 6.0344541e-21)
(2.4024001 0.059199792 -1.11e-21)
(2.4189474 0.051554722 -3.4890555e-21)
(2.4323355 0.04269433 1.1214228e-21)
(2.4446155 0.036802619 1.3920036e-21)
(2.4543935 0.030053173 -2.0521438e-21)
(2.463586 0.025450274 -4.6172917e-23)
(2.4707412 0.020254908 -7.2742903e-22)
(2.4776288 0.016671263 -1.9389913e-21)
(2.48271 0.012680306 -6.1879337e-22)
(2.4877201 0.0099204869 1.0131653e-21)
(2.4912537 0.0069855952 1.1030909e-21)
(2.4948314 0.0049975622 -1.127101e-23)
(2.4968192 0.002960421 -4.0865526e-22)
(2.498932 0.0017551321 7.4480359e-22)
(2.5001433 0.00063378696 6.9175825e-22)
(2.5015136 9.8143546e-05 7.6088653e-23)
(1.0541698 0.81507987 2.4825779e-21)
(1.2253737 0.63996469 1.524225e-20)
(1.3699992 0.49422695 1.5535572e-20)
(1.5541948 0.33763108 -3.8857141e-21)
(1.7367543 0.18860704 -7.273872e-21)
(1.8712337 0.17686609 -1.6212415e-21)
(2.0061378 0.15093381 -1.6575103e-20)
(2.0926138 0.14188128 -1.2360558e-20)
(2.1666068 0.11619395 -1.7034941e-21)
(2.2169941 0.10405224 -5.5720252e-21)
(2.2626867 0.085954835 -3.8450273e-21)
(2.2993396 0.077108352 1.8514716e-22)
(2.3305126 0.064230905 1.0369885e-20)
(2.3561776 0.057229405 4.9178582e-21)
(2.378049 0.047653122 -2.2645596e-21)
(2.3968843 0.042241714 -1.6412793e-21)
(2.4127447 0.035016958 -3.9095333e-21)
(2.4267848 0.030743093 -1.6565251e-21)
(2.4385016 0.025157622 -1.4621723e-21)
(2.4491553 0.021730275 -2.9078752e-21)
(2.4578901 0.017358275 -1.0152883e-21)
(2.4660322 0.014598737 -6.0514063e-22)
(2.472556 0.011188989 -1.7664628e-21)
(2.4787819 0.0090371578 -3.3925839e-22)
(2.4835193 0.0063986966 1.2152698e-21)
(2.4881426 0.0047385868 7.3977017e-22)
(2.4915219 0.0028759026 -3.2718987e-22)
(2.4948974 0.0018003125 2.3595225e-22)
(2.4968982 0.00055725082 1.344773e-21)
(2.4989796 -3.5245573e-06 -3.4524868e-22)
(2.5002842 -0.00042832687 -9.4652605e-22)
(2.5017262 -0.00028956934 6.3942357e-22)
(0.99713201 0.74959743 -6.788974e-20)
(1.1670182 0.54726113 5.4354674e-21)
(1.3095263 0.37610337 1.7841891e-20)
(1.4838764 0.22040621 1.8390426e-20)
(1.6602312 0.067783432 -5.2222893e-23)
(1.7932319 0.070053057 -8.8828847e-21)
(1.9398975 0.059328669 -3.2947386e-21)
(2.0350025 0.072442803 -2.2898962e-21)
(2.1226101 0.064699569 2.1784631e-21)
(2.1759075 0.062782841 4.6756818e-22)
(2.2271347 0.051810017 -3.0563949e-21)
(2.2669582 0.048809913 -3.7895995e-21)
(2.3024645 0.040669855 6.5034424e-23)
(2.3305365 0.037612816 3.1337312e-21)
(2.355345 0.031089522 -2.1606979e-21)
(2.3760295 0.028414552 -3.3201341e-22)
(2.3940884 0.023331791 2.9080094e-22)
(2.4095667 0.021041212 -4.1913249e-21)
(2.4229794 0.017004264 -2.0728885e-21)
(2.4348034 0.015030385 5.9816356e-22)
(2.4449451 0.011778733 -7.3211637e-22)
(2.4541307 0.010096001 -1.8471657e-21)
(2.46186 0.0074751092 -1.4770079e-21)
(2.4690365 0.0060648426 -9.2496461e-22)
(2.4749379 0.0040043262 4.4948388e-22)
(2.4805389 0.0029373959 1.2653613e-21)
(2.4849137 0.0013441889 8.1452341e-22)
(2.4891605 0.00053447896 -4.6252007e-23)
(2.492354 -0.00048998583 4.9384407e-22)
(2.4955239 -0.00082643344 4.5541368e-23)
(2.497492 -0.0014410208 -1.5803693e-21)
(2.4995207 -0.0014780827 -9.8546495e-22)
(2.500893 -0.0012790375 5.2033779e-22)
(2.5023382 -0.00063946156 -1.1496467e-22)
(0.98479348 0.67488619 -3.8809823e-20)
(1.1657543 0.44699139 -8.0131028e-20)
(1.3091677 0.2477776 -1.0581489e-20)
(1.4672112 0.095234194 2.1357575e-20)
(1.6281698 -0.058896759 2.1936021e-20)
(1.7517648 -0.045897492 3.3323185e-21)
(1.8960415 -0.045199212 -4.9873383e-21)
(1.9929216 -0.010857875 -1.0446814e-21)
(2.0896914 0.0016856002 7.3100342e-23)
(2.1438527 0.012370873 3.1993858e-21)
(2.1989027 0.010793383 1.5903996e-21)
(2.2399913 0.014092234 -6.3422222e-21)
(2.2786127 0.011391097 -7.0635402e-21)
(2.3083297 0.012860281 9.160454e-22)
(2.3354697 0.010027223 3.860039e-21)
(2.3574607 0.010468379 3.6490618e-23)
(2.3772995 0.0079508134 1.8084913e-21)
(2.3938208 0.0079663739 4.6947408e-21)
(2.4086248 0.0057922579 5.149643e-22)
(2.4213069 0.0055195382 -5.4718963e-21)
(2.43258 0.0036363224 -2.9890879e-21)
(2.4425248 0.0032034778 -1.5584556e-21)
(2.451259 0.0015866271 -2.6361619e-21)
(2.4591888 0.0011255133 1.8900196e-21)
(2.4659961 -0.00024663706 2.4703704e-21)
(2.4723435 -0.00065614796 4.4672857e-22)
(2.4776435 -0.0017053142 1.2200717e-21)
(2.4826857 -0.0019554187 3.8335503e-22)
(2.4867007 -0.002745355 -4.4135555e-22)
(2.4905945 -0.0029020221 -6.1636755e-22)
(2.4935947 -0.0032386196 -1.059845e-21)
(2.4965524 -0.0030062831 -1.1575576e-21)
(2.4984839 -0.0031127223 -5.8578204e-22)
(2.5004626 -0.0027232519 2.0872129e-21)
(2.5018446 -0.0020505447 1.5086232e-21)
(2.5032855 -0.00097091407 1.228716e-21)
(1.0296142 0.58639309 2.7992273e-21)
(1.2164936 0.33773102 1.1737827e-20)
(1.3688218 0.11398694 -2.6706768e-20)
(1.5003375 -0.031132224 1.5422785e-20)
(1.6398461 -0.18359393 4.6332138e-20)
(1.7491003 -0.16229965 1.4372469e-20)
(1.8797478 -0.15271252 -3.6239645e-21)
(1.971294 -0.10054976 -3.5416574e-21)
(2.069869 -0.068557596 2.2729479e-22)
(2.1225521 -0.04482641 1.0631609e-21)
(2.17962 -0.034891324 4.0489108e-21)
(2.2200915 -0.025233642 3.1630221e-21)
(2.2601188 -0.022172786 -4.2853861e-21)
(2.290633 -0.016055108 -4.947704e-21)
(2.3193297 -0.014717044 2.6705893e-21)
(2.3420911 -0.010944192 3.4884182e-21)
(2.363148 -0.010590319 -1.492091e-22)
(2.3803409 -0.0080647412 -2.5055559e-21)
(2.3961256 -0.0081079015 1.7401154e-22)
(2.4093395 -0.006491194 2.4561142e-21)
(2.4214244 -0.0067956719 -3.1991859e-21)
(2.4318477 -0.0058295733 -1.513601e-21)
(2.4413032 -0.0062753178 -1.3658173e-22)
(2.4497165 -0.0057157583 -2.0670163e-21)
(2.4572374 -0.006192155 2.2382247e-21)
(2.4641125 -0.0058219773 1.9056451e-21)
(2.4701258 -0.0062486075 -2.4565073e-23)
(2.4757483 -0.005984058 -4.6921349e-22)
(2.4805217 -0.0062600965 -1.2893116e-21)
(2.4850669 -0.0059169874 -6.2867746e-22)
(2.4887553 -0.0060811851 -7.9788474e-22)
(2.4923326 -0.0057429393 -1.2196733e-21)
(2.4951348 -0.0055455321 -1.3150232e-21)
(2.497892 -0.0048434532 -6.6113897e-22)
(2.4997763 -0.0045255059 1.8764644e-21)
(2.5016886 -0.0037859864 1.2749479e-21)
(2.5030674 -0.0027172934 1.0053898e-21)
(2.5044975 -0.0012395456 2.1118489e-21)
(1.1485131 0.48943357 -8.6364426e-20)
(1.3330271 0.22313927 -9.884854e-21)
(1.4839114 -0.021646128 -1.5105384e-21)
(1.5791167 -0.15412178 7.2573546e-20)
(1.6892565 -0.29966267 1.1435007e-19)
(1.7808438 -0.2715036 2.1104992e-20)
(1.8908081 -0.25471627 -9.669787e-21)
(1.9717391 -0.18877549 8.2799505e-22)
(2.0643903 -0.14050287 9.2460843e-22)
(2.1131738 -0.10487968 3.3675951e-21)
(2.1697487 -0.082794039 4.0380573e-21)
(2.2079561 -0.067092153 -1.8984733e-21)
(2.2477714 -0.058111113 -2.8307154e-21)
(2.2780128 -0.047740116 -8.7158761e-21)
(2.307486 -0.042035559 -9.4142744e-21)
(2.3304349 -0.034992369 3.468539e-21)
(2.3522085 -0.031490432 4.257963e-21)
(2.369622 -0.026451504 2.1876119e-22)
(2.3860381 -0.024123208 -2.0134374e-21)
(2.3994186 -0.020570315 -1.8159554e-21)
(2.4120106 -0.019087546 3.2136261e-22)
(2.4225853 -0.016669489 -1.8412793e-21)
(2.4325004 -0.015790639 -2.187836e-22)
(2.4411267 -0.014152666 1.6364844e-21)
(2.4491157 -0.013649539 -1.6869066e-22)
(2.4562983 -0.012486824 2.4219041e-21)
(2.462822 -0.01216928 2.1111933e-21)
(2.4688411 -0.011252056 -1.5839696e-22)
(2.4741697 -0.011014021 -5.8331716e-22)
(2.4791825 -0.010254246 -2.7310122e-21)
(2.4834883 -0.0099637478 -2.1247882e-21)
(2.4876015 -0.0091697253 1.4079586e-21)
(2.4909917 -0.0088548253 1.0424773e-21)
(2.4942822 -0.0081251031 1.3559603e-21)
(2.4968985 -0.0075026705 2.0215272e-21)
(2.4994721 -0.0064152131 5.8593448e-22)
(2.5012952 -0.0057413453 -8.0511329e-24)
(2.5031339 -0.0047041281 -4.7668797e-22)
(2.5045043 -0.0032879439 5.5217256e-22)
(2.5059136 -0.0014590813 3.7577704e-23)
(1.3026528 0.39293707 1.132395e-20)
(1.4975373 0.11427812 -8.7394328e-20)
(1.6343657 -0.14792696 -1.4657377e-20)
(1.6939994 -0.26658185 -4.7557459e-20)
(1.7673265 -0.40015422 2.2093265e-20)
(1.8387665 -0.36790076 6.1239435e-20)
(1.9250564 -0.34503423 -2.8164266e-20)
(1.9915806 -0.26965148 -1.1707927e-20)
(2.0729243 -0.20868275 -1.8167664e-21)
(2.1154385 -0.16340552 1.0751448e-20)
(2.1687662 -0.13027392 1.3162463e-20)
(2.2036249 -0.10921518 4.5662512e-21)
(2.2417704 -0.09462405 -1.1353015e-21)
(2.2708297 -0.080579866 -2.7353414e-21)
(2.3001435 -0.070844955 -8.3209373e-21)
(2.3228467 -0.060656143 -1.1889392e-20)
(2.344824 -0.054016606 3.0763606e-22)
(2.3621199 -0.046474836 7.7909865e-21)
(2.3787603 -0.041722919 4.0106263e-21)
(2.3920005 -0.036159138 -1.7425101e-21)
(2.4047639 -0.032805619 -1.5492391e-21)
(2.4151918 -0.028875734 5.9884353e-22)
(2.4252609 -0.026595555 -1.4538427e-21)
(2.4338238 -0.02384814 -2.3567612e-21)
(2.442023 -0.022309622 -6.2874499e-22)
(2.4492772 -0.020322206 5.2842377e-22)
(2.4560956 -0.019234537 3.0000593e-21)
(2.4623154 -0.017698307 2.3731686e-21)
(2.4680231 -0.016854169 2.2086658e-22)
(2.4733408 -0.015561785 -3.5152318e-22)
(2.4780921 -0.014853774 -2.3858571e-21)
(2.4825895 -0.013736739 -2.2418047e-21)
(2.4864884 -0.013026188 1.1113962e-21)
(2.4902273 -0.011889923 -3.585508e-22)
(2.4933486 -0.011201035 -7.9628855e-23)
(2.4963832 -0.01015566 1.4574255e-21)
(2.4988291 -0.0091853293 8.1282068e-23)
(2.5012354 -0.0077754774 1.3356039e-21)
(2.5029912 -0.0067997839 9.1083586e-22)
(2.504754 -0.0055026731 7.6590915e-22)
(2.5061066 -0.0037863192 2.801095e-22)
(2.5074882 -0.0016471591 -5.0234336e-22)
(1.4674001 0.29666303 1.2180862e-19)
(1.6652045 0.016782599 6.2460661e-20)
(1.7971262 -0.2552032 -3.0694602e-20)
(1.8254205 -0.36109525 -6.3751515e-20)
(1.8642671 -0.47992268 -9.5814556e-20)
(1.9143656 -0.44734675 -3.8204135e-20)
(1.9768107 -0.42029957 -1.9325439e-21)
(2.0265066 -0.33921918 -1.7104034e-20)
(2.0934226 -0.26913074 -1.2920776e-21)
(2.1277557 -0.21700439 -6.9877261e-21)
(2.1753873 -0.17483187 4.8528711e-21)
(2.2061529 -0.14957848 5.1360794e-21)
(2.241561 -0.13003545 -3.1977079e-21)
(2.2687844 -0.11310063 7.959753e-23)
(2.2971164 -0.099956169 -1.4269208e-21)
(2.3192315 -0.08697011 2.1007634e-21)
(2.3410141 -0.077371802 -1.1278668e-21)
(2.3579348 -0.067413944 -2.665147e-22)
(2.3744788 -0.060284307 6.8317882e-21)
(2.38732 -0.052698011 4.250671e-21)
(2.3999583 -0.047432878 -1.209476e-21)
(2.4099518 -0.041956804 -1.6626238e-21)
(2.4198871 -0.038236943 3.7267126e-22)
(2.4281115 -0.034384852 1.2256468e-21)
(2.4362545 -0.031790984 4.1057546e-22)
(2.4433429 -0.029011337 -4.7488182e-22)
(2.4502323 -0.027143705 6.3078499e-22)
(2.4564619 -0.025002718 6.357364e-22)
(2.4623639 -0.02356439 0)
(2.4678304 -0.021801843 3.2816502e-22)
(2.4728737 -0.02060641 -2.1270956e-22)
(2.4776175 -0.019059044 -1.6955987e-21)
(2.4818822 -0.018016495 -1.5478056e-21)
(2.4859438 -0.016639147 -1.6355954e-21)
(2.4894906 -0.015611872 -3.0738593e-21)
(2.4929057 -0.014208934 -2.9986956e-21)
(2.4957874 -0.013220871 -1.5870067e-21)
(2.4985947 -0.0119127 -2.0129019e-21)
(2.5008849 -0.010650179 -8.5669984e-22)
(2.5031376 -0.0089631777 7.6684397e-22)
(2.5048233 -0.0077265049 6.2861152e-22)
(2.5065086 -0.0061994161 6.5905538e-22)
(2.5078363 -0.0042201459 -7.8496362e-23)
(2.5091827 -0.0018078502 -1.5957416e-21)
(1.6454503 0.2041802 5.1613021e-20)
(1.8416415 -0.071861003 4.684061e-20)
(1.9610063 -0.3454715 -1.0938575e-20)
(1.9602131 -0.43501974 7.5572444e-20)
(1.9712552 -0.53897068 4.5888219e-20)
(1.9998391 -0.50801112 -3.3403244e-20)
(2.0399771 -0.47942077 2.2246803e-20)
(2.07202 -0.39557602 4.9576029e-21)
(2.1227898 -0.319518 -9.3655038e-21)
(2.147837 -0.26332037 -8.1498626e-21)
(2.1879322 -0.21453339 -1.3768957e-20)
(2.2141427 -0.18655685 -6.6942211e-21)
(2.2460645 -0.16308004 -6.6089594e-21)
(2.2711367 -0.14416098 -4.1851368e-21)
(2.2978894 -0.12834658 -1.0728882e-21)
(2.3192257 -0.11308492 -2.3111809e-21)
(2.3405217 -0.10087316 1.0213674e-21)
(2.3569517 -0.088665221 1.6685309e-21)
(2.3731797 -0.079258151 2.5260408e-21)
(2.3854466 -0.069667532 6.1770747e-21)
(2.3977251 -0.062483122 3.7153679e-21)
(2.4070393 -0.055442784 -2.9678029e-21)
(2.4165723 -0.050256229 -3.4258668e-21)
(2.4241883 -0.045316769 1.2887385e-21)
(2.4320137 -0.041674405 2.1186488e-21)
(2.4386993 -0.038164226 -8.9324936e-22)
(2.4454332 -0.035545849 -1.7507016e-21)
(2.451486 -0.032875906 4.5546895e-23)
(2.4573993 -0.030869458 3.8834134e-23)
(2.4628673 -0.028672927 6.8793302e-22)
(2.4680543 -0.02702608 1.0114198e-21)
(2.4729228 -0.025124739 1.6235899e-21)
(2.4774232 -0.023693771 2.4451139e-22)
(2.4816907 -0.021970901 -1.7349194e-21)
(2.4855445 -0.020686912 -1.8212741e-21)
(2.4892357 -0.019114175 5.6635824e-22)
(2.4924782 -0.017841263 6.9593384e-22)
(2.4956129 -0.016221495 1.7213087e-21)
(2.4982821 -0.014985738 1.3684109e-21)
(2.5008874 -0.013450512 1.9645407e-21)
(2.5030345 -0.011935991 3.5527884e-21)
(2.5051446 -0.010004707 -8.701429e-23)
(2.5067586 -0.0085386597 -6.9439596e-23)
(2.508365 -0.0068066352 -1.4404887e-21)
(2.5096607 -0.0045952847 -2.9030159e-21)
(2.5109643 -0.0019446851 2.1788445e-21)
(1.8264789 0.11790143 6.8050668e-21)
(2.0166986 -0.14836795 -5.7770512e-21)
(2.1203806 -0.41729675 -1.1243903e-20)
(2.0926443 -0.49197941 2.7292955e-20)
(2.0811316 -0.58001624 1.1012595e-19)
(2.0898548 -0.55136272 9.4462058e-20)
(2.1088767 -0.52293535 1.9812474e-20)
(2.1238868 -0.43768999 2.264376e-20)
(2.1576672 -0.35879555 6.224553e-21)
(2.1731121 -0.30106061 -1.8152757e-20)
(2.2045536 -0.24814868 -1.7073099e-20)
(2.2260175 -0.21903102 -1.8974294e-20)
(2.2539809 -0.19291912 -1.2382851e-20)
(2.2768634 -0.17294503 -7.6074145e-21)
(2.3017166 -0.15526754 -5.3069569e-21)
(2.3222563 -0.13833896 1.4235409e-21)
(2.3429009 -0.12399467 2.8685198e-22)
(2.3588794 -0.10975022 -1.7894879e-21)
(2.3747033 -0.098218104 -1.2266142e-21)
(2.3863187 -0.086635301 -3.5250315e-21)
(2.3980838 -0.07754554 -1.5294497e-22)
(2.4065203 -0.068902323 5.1546461e-21)
(2.4154236 -0.062223451 -1.1653772e-21)
(2.4221703 -0.056212632 -3.3322048e-21)
(2.4294221 -0.051535318 1.1515411e-21)
(2.435462 -0.047371918 2.1190264e-21)
(2.4418136 -0.044060847 -7.4119124e-22)
(2.4475055 -0.040967217 -4.3971557e-21)
(2.4532513 -0.038460719 -2.7331989e-21)
(2.4585887 -0.035927903 9.6083175e-23)
(2.4637787 -0.033876134 7.1735098e-22)
(2.4686656 -0.031660921 8.6545826e-22)
(2.4732864 -0.029888772 1.4422734e-21)
(2.4776663 -0.027899262 1.202603e-21)
(2.481717 -0.02630822 -6.6076381e-22)
(2.4855835 -0.024460953 -9.1846763e-22)
(2.4890884 -0.022997319 1.3635745e-21)
(2.4924634 -0.021270295 3.9140772e-21)
(2.4954428 -0.019798405 4.9380699e-21)
(2.4983343 -0.017992971 1.4734262e-21)
(2.5008146 -0.01654387 2.0412641e-21)
(2.5032388 -0.014805342 1.5297081e-21)
(2.5052531 -0.013068077 -1.9590554e-21)
(2.5072289 -0.010917499 -2.2062647e-21)
(2.5087698 -0.0092476712 -3.5421944e-21)
(2.5102956 -0.0073326648 -1.3118508e-21)
(2.5115518 -0.0049176219 3.5397363e-21)
(2.512805 -0.0020600293 3.2342302e-21)
(2.003236 0.039595851 -1.2669513e-20)
(2.1830948 -0.21265787 1.3008428e-20)
(2.2699084 -0.47114874 1.3231851e-21)
(2.217944 -0.53289186 -6.8202258e-20)
(2.1883515 -0.60595728 -3.250783e-20)
(2.1802574 -0.57882137 5.9150431e-20)
(2.1789897 -0.55179361 4.3442835e-20)
(2.1777916 -0.46754674 -3.0810458e-21)
(2.1949075 -0.38685527 -7.2311127e-22)
(2.2010711 -0.32976244 1.1181034e-20)
(2.2234457 -0.27514225 -1.1766021e-20)
(2.240217 -0.24640153 -7.2986169e-21)
(2.2639793 -0.21909865 -8.9924959e-21)
(2.2848411 -0.19897554 -1.0742427e-20)
(2.3077168 -0.1802711 -6.1925955e-21)
(2.3276139 -0.16230683 -7.0946461e-21)
(2.3475844 -0.14638425 -7.3033208e-22)
(2.3632935 -0.13035483 3.3165949e-22)
(2.3787675 -0.1168899 -1.6422188e-21)
(2.3897786 -0.10330997 -8.4988944e-22)
(2.4009732 -0.092317331 -3.0267965e-21)
(2.4083909 -0.081981518 -2.1035018e-21)
(2.416484 -0.073769472 2.9101617e-21)
(2.4221049 -0.066669697 -1.9059209e-21)
(2.4285369 -0.060965019 -3.9751893e-21)
(2.4336767 -0.05623423 2.284975e-21)
(2.4394137 -0.052299831 3.2215283e-21)
(2.4445558 -0.048917162 -2.4816547e-21)
(2.4499572 -0.046010585 -5.9807846e-21)
(2.4550444 -0.043269732 -1.155245e-21)
(2.4601105 -0.040901386 1.5657323e-21)
(2.4649348 -0.038470796 2.2423866e-21)
(2.4695747 -0.036408008 2.4050575e-21)
(2.4739928 -0.034182886 4.5065882e-22)
(2.4781519 -0.032333021 2.0839511e-22)
(2.4821196 -0.030286113 -2.1251667e-21)
(2.485792 -0.02858316 -2.3952312e-21)
(2.4893176 -0.026643303 -2.1402154e-22)
(2.492525 -0.025038913 2.1829117e-21)
(2.49563 -0.023181386 4.8933583e-21)
(2.4983812 -0.021539446 1.6022902e-21)
(2.5010605 -0.019566439 -1.1563034e-21)
(2.5033717 -0.017926508 -1.6920444e-21)
(2.5056315 -0.016000579 -3.8130095e-21)
(2.5075207 -0.014062787 -4.0771858e-21)
(2.5093676 -0.011713206 -1.8947963e-21)
(2.5108336 -0.009861489 2.508066e-22)
(2.5122761 -0.0077835032 -6.6750963e-22)
(2.5134854 -0.0051911497 -1.023658e-21)
(2.5146811 -0.0021555246 -4.256809e-21)
(2.1701797 -0.029620128 -5.2298609e-21)
(2.3359911 -0.2646816 -2.7738601e-20)
(2.4059227 -0.50875448 -3.4229908e-21)
(2.333384 -0.55960503 4.3064689e-21)
(2.2891805 -0.61961572 -6.1715244e-20)
(2.2672741 -0.59303224 -5.3002548e-20)
(2.247029 -0.56708756 3.3759413e-20)
(2.23005 -0.48522596 2.1841987e-20)
(2.2317149 -0.40442767 -2.2688623e-20)
(2.2294303 -0.34986118 9.6529847e-21)
(2.2429461 -0.29555254 2.1192842e-20)
(2.2553048 -0.26856352 1.2766857e-20)
(2.2748299 -0.24148542 1.740017e-20)
(2.2939929 -0.22206318 1.1051386e-20)
(2.3149868 -0.20317199 9.7085312e-21)
(2.3345333 -0.18479458 -1.2406356e-21)
(2.3539529 -0.16787234 -2.017286e-21)
(2.3697121 -0.15032679 -5.2489764e-21)
(2.3850191 -0.13515472 -4.3089159e-21)
(2.3955925 -0.1195279 -2.0128064e-21)
(2.406276 -0.10661661 -1.2661517e-21)
(2.4126007 -0.094454575 1.1174614e-22)
(2.4197572 -0.084606878 1.0342381e-21)
(2.424008 -0.076344623 8.8273519e-22)
(2.4293785 -0.069592064 -3.7225717e-21)
(2.4333403 -0.064358668 -3.7877277e-21)
(2.4382186 -0.059878974 2.1681894e-21)
(2.4426054 -0.056366824 1.8671234e-21)
(2.4474798 -0.053185182 -3.5698577e-21)
(2.452203 -0.050403693 -1.7804947e-21)
(2.4570297 -0.047841353 2.8732349e-21)
(2.461736 -0.045320241 2.4514379e-21)
(2.4663174 -0.04305564 3.1126006e-21)
(2.4707325 -0.040676122 2.8146156e-21)
(2.4749298 -0.038609382 9.6526669e-22)
(2.4789443 -0.03637727 -5.1113089e-22)
(2.4827142 -0.034478252 -2.7386508e-21)
(2.4863265 -0.032394512 -3.4372534e-21)
(2.4896774 -0.03060949 -1.382545e-21)
(2.4929125 -0.028595189 9.9492386e-22)
(2.4958661 -0.026872407 3.5497062e-21)
(2.4987406 -0.02489572 6.9484752e-21)
(2.501293 -0.02310027 4.4146381e-21)
(2.5037856 -0.020969124 1.2837192e-21)
(2.5059433 -0.019153207 -6.8228762e-22)
(2.5080511 -0.01705109 2.4518618e-21)
(2.50982 -0.014930721 4.6291541e-21)
(2.5115407 -0.012399863 1.0366694e-21)
(2.5129291 -0.010385941 1.783237e-22)
(2.514285 -0.0081637612 -2.8667317e-21)
(2.5154404 -0.0054189071 -5.966034e-21)
(2.5165718 -0.0022324692 -3.839392e-21)
(2.323631 -0.089211341 4.064006e-20)
(2.4725634 -0.30528942 1.930166e-20)
(2.5270151 -0.53262506 -1.6892747e-21)
(2.4380215 -0.57411976 -1.0747643e-20)
(2.3814747 -0.62339118 -3.5741686e-21)
(2.3479707 -0.59586051 -1.8762891e-20)
(2.3107742 -0.57034974 -9.7275707e-21)
(2.2785597 -0.49209163 1.2027101e-20)
(2.2660137 -0.4127751 3.5648817e-22)
(2.2562147 -0.36218217 2.0546103e-21)
(2.2615804 -0.30985406 3.3171781e-20)
(2.2700451 -0.28578261 2.2725309e-20)
(2.2854875 -0.26019305 1.4745736e-20)
(2.303351 -0.24226414 1.5986722e-20)
(2.3226849 -0.22398165 9.9464058e-21)
(2.3422708 -0.20578922 1.0911527e-20)
(2.3613816 -0.18845215 5.3316368e-22)
(2.3776361 -0.1696726 3.3339786e-21)
(2.3930846 -0.15303984 3.5608421e-22)
(2.4035153 -0.13528363 -2.5939915e-21)
(2.4138593 -0.12039521 -3.865179e-22)
(2.4190857 -0.10614958 -2.6506614e-21)
(2.4252395 -0.094530664 -1.3672229e-21)
(2.4278678 -0.084984461 2.1548091e-22)
(2.4319439 -0.077087827 5.8783186e-23)
(2.4344249 -0.07140095 -1.9250694e-21)
(2.4381748 -0.066428254 -1.9509415e-21)
(2.4415747 -0.062957646 2.819584e-21)
(2.4457225 -0.059651966 2.5515202e-21)
(2.4499643 -0.057036567 2.9573997e-22)
(2.45444 -0.054438879 2.060542e-21)
(2.4589949 -0.051992136 5.0948392e-22)
(2.4634639 -0.049646088 7.6092651e-23)
(2.4678719 -0.047209607 2.3317903e-21)
(2.4720684 -0.044998178 2.0365026e-21)
(2.4761122 -0.042633802 6.7180964e-22)
(2.4799286 -0.040564643 -7.3065428e-22)
(2.4835802 -0.038333581 -1.5969257e-21)
(2.4870145 -0.036404487 -2.2421952e-21)
(2.4903193 -0.034298398 -4.5423867e-22)
(2.4933964 -0.032448305 1.8161688e-21)
(2.4963866 -0.030367376 9.481799e-22)
(2.4991235 -0.028536747 4.1342896e-21)
(2.5018014 -0.026443469 -1.4429547e-21)
(2.5041791 -0.024502809 -4.5079137e-21)
(2.5065051 -0.022217603 4.3427894e-22)
(2.5085207 -0.020235977 3.4282776e-21)
(2.5104847 -0.017966447 4.0523295e-21)
(2.5121358 -0.015679087 6.328843e-22)
(2.5137309 -0.012983442 4.8750334e-21)
(2.5150382 -0.010825688 2.0573879e-21)
(2.5163034 -0.0084772952 -9.9206463e-22)
(2.5173984 -0.0056034627 1.105849e-21)