/*--------------------------------*- C++ -*----------------------------------*\
| =========                 |                                                 |
| \\      /  F ield         | OpenFOAM: The Open Source CFD Toolbox           |
|  \\    /   O peration     | Version:  v2012                                 |
|   \\  /    A nd           | Website:  www.openfoam.com                      |
|    \\/     M anipulation  |                                                 |
\*---------------------------------------------------------------------------*/
FoamFile
{
    version     2.0;
    format      ascii;
    class       surfaceScalarField;
    location    "94.5973634040841915";
    object      meshPhi;
}
// * * * * * * * * * * * * * * * * * * * * * * * * * * * * * * * * * * * * * //

dimensions      [0 3 -1 0 0 0 0];
oriented        oriented;


internalField   nonuniform List<scalar> 
18180
(
0
0.004066184
0
0.0038161755
-6.3211672e-14
0.0080037204
0
0.0036209481
0
0.0075224996
6.0732299e-14
0.011672539
0
0.0034738877
-3.5426264e-18
0.0071091013
0
0.011002055
0
0.014990964
3.2954306e-14
0.0033893714
3.1650718e-14
0.0067828567
0
0.010424588
0
0.014172098
-2.6020233e-18
0.017906538
3.2981396e-14
0.0033443922
-1.8462778e-18
0.0065484147
1.6943443e-18
0.0099122338
0
0.01346558
0
0.016962279
0
0.020451834
-3.3006064e-14
0.0033032886
3.1694227e-14
0.0063825836
3.0424278e-14
0.0094875941
2.9212578e-14
0.012794761
0
0.016144853
0
0.019371251
5.1777133e-14
0.022617187
0
0.0032503276
-1.9837642e-18
0.0062482524
0
0.0091527473
2.9228882e-14
0.012184901
2.8068066e-14
0.015354333
0
0.018461977
0
0.021421136
4.9761082e-14
0.024454911
0
0.0031791673
0
0.0061091522
3.0461246e-14
0.008874905
1.5538724e-18
0.01166825
-1.3838558e-18
0.014588638
0
0.017567961
5.1812326e-14
0.020413212
0
0.023134278
-4.7828592e-14
0.025968022
-2.5458054e-18
0.0030915155
0
0.0059523585
0
0.0086164984
0
0.011233659
1.3720693e-18
0.01389652
-1.2093353e-18
0.01667509
-2.5918812e-14
0.019442836
4.9795522e-14
0.02203084
0
0.024544645
4.5972294e-14
0.027201646
0
0.0029906858
6.3542049e-14
0.0057759782
0
0.0083537717
0
0.010849961
2.8114755e-14
0.013311702
0
0.015846188
2.5932826e-14
0.018469288
2.4910174e-14
0.020991592
-4.7862686e-14
0.02334172
0
0.02567489
4.4192811e-14
0.028161941
3.3107051e-14
0.0028794896
-3.1786273e-14
0.0055831573
0
0.0080775343
0
0.010484986
-2.8130086e-14
0.01281013
2.7015463e-14
0.01512111
0
0.017533377
4.9848765e-14
0.019962954
0
0.022229052
-1.0347871e-18
0.024375501
0
0.026554213
-6.321196e-19
0.02888823
0
0.002760221
-3.1803549e-14
0.0053769096
0
0.0077872108
-5.8619453e-14
0.010120089
0
0.012352442
0
0.014500594
-2.5963308e-14
0.016691211
2.4939307e-14
0.018963049
-2.3957385e-14
0.021153082
4.6031481e-14
0.023182775
0
0.02516198
0
0.027205109
0
0.029398082
0
0.002634745
0
0.0051600939
0
0.0074846266
0
0.009748258
2.8158426e-14
0.011911447
-2.7044335e-14
0.01395231
0
0.015958283
2.4953049e-14
0.018031661
7.2226154e-19
0.020112725
-5.2464542e-19
0.022051182
0
0.02388075
-5.5081394e-19
0.025730435
0
0.027656321
0
0.029725143
-1.657635e-14
0.0025049501
-1.2313761e-18
0.0049355385
-1.5275932e-14
0.0071721371
0
0.0093687257
0
0.011472307
0
0.013437627
0
0.015314679
-7.4903178e-14
0.017199009
-2.3986452e-14
0.019122922
5.3515231e-19
0.020969611
4.4279376e-14
0.022679057
0
0.024363245
-3.4984649e-19
0.026104699
-3.9289338e-14
0.027929314
0
0.029891561
1.6582046e-14
0.0023730535
-1.259291e-18
0.0047067299
-1.5282407e-14
0.0068534367
1.4673801e-14
0.008983097
0
0.011030214
0
0.012935068
0
0.014725936
0
0.016462137
2.4000165e-14
0.018210855
0
0.019939592
2.2154664e-14
0.021554468
2.1286178e-14
0.023081897
2.0453707e-14
0.024651544
-1.7681989e-19
0.026309758
0
0.028051116
-3.631804e-14
0.029925336
0
0.0022407733
-1.5923755e-14
0.0044764881
0
0.0065322696
1.4677921e-14
0.0085941181
0
0.010584833
0
0.012433919
0
0.014161626
0
0.015794952
0
0.017392262
0
0.018977758
-2.2169567e-14
0.020495453
-2.1301191e-14
0.021899042
0
0.023287174
-1.9667769e-14
0.024777724
0
0.026366714
0
0.028044696
0
0.02984904
1.6591569e-14
0.0021100149
0
0.0042467751
0
0.0062118494
-9.5810569e-19
0.008204273
-1.4102321e-14
0.010137823
0
0.011931443
0
0.013606835
0
0.015166737
-2.4028014e-14
0.016651253
0
0.018096771
0
0.019499235
-2.1316498e-14
0.020803372
0
0.022036237
-1.9682058e-14
0.023329407
1.8913542e-14
0.024760025
-3.6353168e-14
0.026303663
-3.4941725e-14
0.02793328
3.3592604e-14
0.029682941
0
0.0019821818
0
0.0040195996
1.5294457e-14
0.005894703
0
0.0078164505
0
0.0096914899
-1.3551188e-14
0.01142873
0
0.013055224
0
0.01455788
0
0.015961065
0
0.017293163
0
0.018575711
2.1331532e-14
0.019781587
2.0498037e-14
0.020892442
1.9697211e-14
0.021997876
1.8928015e-14
0.023228249
0
0.024626239
-3.4962706e-14
0.026135089
3.3606865e-14
0.027734527
-3.2310387e-14
0.029447216
-1.6598974e-14
0.0018588289
1.59352e-14
0.0037966738
1.0898369e-18
0.0055835571
0
0.0074333863
0
0.0092481265
1.3554696e-14
0.010928002
0
0.012506413
4.5047687e-19
0.013958728
0
0.015300928
0
0.016549154
0
0.017725178
0
0.018830163
0
0.019836765
0
0.020786468
0
0.021811319
-1.8203976e-14
0.023008458
-1.7494293e-14
0.024387179
-3.3627638e-14
0.025882712
0
0.027467033
3.1079498e-14
0.029157609
0
0.0017409457
-1.5939509e-14
0.0035800896
0
0.0052804241
-1.4693128e-14
0.0070571607
-9.0243959e-19
0.0088098811
0
0.010431333
1.3027553e-14
0.011961835
1.2518802e-14
0.013366936
0
0.014659027
0
0.015844672
0
0.016935577
-1.6430037e-19
0.017941802
0
0.018851949
0
0.019677315
2.0972696e-19
0.02051807
1.8219484e-14
0.021499028
-3.5017819e-14
0.022687726
0
0.024066568
-3.2345476e-14
0.025559863
0
0.027147788
3.0330356e-19
0.028830467
0
0.0016292643
1.59421e-14
0.0033715161
0
0.004987024
-1.4695894e-14
0.0066892612
0
0.0083784694
-7.3882747e-19
0.0099403358
-1.3031297e-14
0.01142338
0
0.012782853
1.203562e-14
0.014029735
0
0.015166245
0
0.016193449
2.1373452e-14
0.017113444
-2.0542655e-14
0.01792998
0
0.018655595
0
0.019343047
0
0.020117698
1.7524564e-14
0.021090456
2.6607661e-19
0.022285174
0
0.02367627
3.1114538e-14
0.025188263
0
0.026790357
0
0.028475506
7.372479e-19
0.0015240347
0
0.0031720589
0
0.0047045546
-1.4699396e-14
0.0063311462
1.4119587e-14
0.0079554906
-1.3564729e-14
0.0094572554
1.303463e-14
0.010892092
0
0.01220684
1.2039939e-14
0.013411841
2.3145753e-14
0.014505794
0
0.015485196
0
0.016339892
0
0.017070244
1.9761106e-19
0.017706799
0
0.018278506
0
0.0188681
1.7541107e-14
0.019618613
-3.4513057e-19
0.020596272
0
0.021812865
-3.1140226e-14
0.023236315
2.9931802e-14
0.024775732
0
0.026406039
2.7670127e-14
0.028104775
0
0.0014254875
7.0898987e-19
0.0029821628
0
0.0044336761
0
0.0059835784
-9.6793595e-19
0.007541999
1.3567328e-14
0.0089839707
0
0.010369415
1.2530199e-14
0.011639784
1.2044181e-14
0.012804986
1.1577198e-14
0.013860212
0
0.014801165
0
0.01560976
0
0.016270062
0
0.016822139
3.4747286e-19
0.017302006
0
0.017747105
0
0.018281126
0
0.019030981
0
0.020032882
1.558501e-14
0.021285698
0
0.022754946
0
0.02433706
0
0.026004375
-2.6621496e-14
0.027725381
0
0.0013336314
0
0.0028022492
7.6553488e-15
0.0041747968
-1.4703417e-14
0.0056474868
0
0.0071389539
1.3569612e-14
0.0085219593
0
0.0098570555
1.2533697e-14
0.011082494
1.204728e-14
0.012209512
-1.1581201e-14
0.013228592
2.2267652e-14
0.014135968
-1.070388e-14
0.014911749
-4.7461723e-20
0.015522778
1.978554e-14
0.01600078
0
0.01640106
4.7441998e-19
0.01674064
0
0.017091534
5.2221503e-19
0.017606432
0
0.0183749
0
0.019409876
-1.4992776e-14
0.020719252
0
0.022246589
0
0.023879413
0
0.025595041
0
0.027344371
7.3890402e-19
0.0012481839
0
0.0026323589
-1.531165e-14
0.0039281739
-7.3519683e-15
0.0053237208
-1.4124769e-14
0.0067475675
0
0.0080721055
0
0.0093563717
0
0.010536607
-1.205036e-14
0.011625581
0
0.012610556
0
0.013487048
1.0708595e-14
0.014238078
1.0295886e-14
0.014815681
-9.8988785e-15
0.015237573
0
0.015570311
0
0.015829824
1.7589257e-14
0.016037645
0
0.016335153
0
0.01685851
3.123458e-14
0.017657122
1.5008971e-14
0.01874821
1.4425203e-14
0.020122964
2.7728941e-14
0.02171982
0
0.023415197
0
0.025182913
2.4646745e-14
0.026965405
-8.3068516e-15
0.0011687441
7.2674556e-19
0.0024721777
7.6561978e-15
0.0036936402
0
0.0050128671
-7.0631597e-15
0.006368832
-1.3573362e-14
0.0076351729
0
0.008868074
0
0.010002913
1.2053088e-14
0.011054474
-1.1587976e-14
0.012006111
1.1141624e-14
0.0128535
1.0712908e-14
0.013584263
-1.0300783e-14
0.014139909
0
0.01452088
9.522845e-15
0.014796351
0
0.014994575
0
0.015100731
1.6922173e-14
0.015217498
1.6265805e-14
0.015505937
-1.563378e-14
0.016052673
0
0.016898443
0
0.018051383
1.3879091e-14
0.019507155
0
0.02118527
2.564727e-14
0.022947369
0
0.024773509
3.463341e-19
0.026590069
0
0.0010948917
-7.3151732e-19
0.0023212102
5.926151e-19
0.003470985
7.353295e-15
0.0047151552
-2.1192538e-14
0.0060035368
-6.7870327e-15
0.0072121332
0
0.0083928507
1.2540248e-14
0.0094826321
0
0.010497062
0
0.011415956
0
0.012235217
-1.0716846e-14
0.012948363
0
0.013489341
1.745587e-19
0.013841489
9.5286477e-15
0.014070388
-2.9301201e-19
0.014221434
0
0.014266695
-1.6937406e-14
0.014247186
7.7198716e-19
0.014322785
0
0.014622953
0
0.015202248
-1.4457071e-14
0.016102798
-1.3894821e-14
0.017333445
-1.3353883e-14
0.018879557
0
0.020648822
0
0.022483083
0
0.024368659
-2.2822464e-14
0.026220869
8.3079376e-15
0.0010263412
0
0.0021789579
-5.9489568e-19
0.0032597008
7.3544025e-15
0.0044308209
0
0.0056522592
4.1702603e-19
0.0068039107
3.5065468e-19
0.007931845
0
0.0089762249
0
0.0099541947
-1.1593585e-14
0.010840953
-1.1148061e-14
0.011632539
0
0.012329241
0
0.012860244
0
0.013193457
2.6759889e-19
0.013385876
3.1390115e-19
0.013496634
0
0.013504137
0
0.013394143
0
0.013290026
0
0.013363536
0
0.013686987
-1.4473896e-14
0.01431262
5.954648e-19
0.015281293
-1.3369856e-14
0.016599363
1.2849908e-14
0.018251962
-3.1876353e-19
0.020115987
0
0.022025112
0
0.023972423
0
0.025856038
0
0.00096242211
0
0.0020448453
0
0.003059566
-7.3548736e-15
0.0041597752
-7.0649363e-15
0.0053155543
0
0.0064110181
-6.5249219e-15
0.0074862215
-6.2715434e-15
0.0084847615
0
0.0094260624
0
0.01028153
-1.1150677e-14
0.011045712
0
0.011726614
1.0312928e-14
0.012250436
0
0.012571267
0
0.012737136
0
0.012813425
-8.8216882e-15
0.01279215
0
0.012633176
0
0.012401483
0
0.012270855
8.7159682e-19
0.012352808
-1.4491506e-14
0.012706849
0
0.013389018
-1.3385638e-14
0.014440125
1.2864763e-14
0.015864344
0
0.017626833
-1.188526e-14
0.019592243
0
0.021578306
0
0.023582221
-2.113754e-14
0.025495798
4.4420836e-06
0.0010590794
0
0.0019177399
7.6587027e-15
0.0028702884
0
0.0039020521
-5.2953349e-19
0.0049936643
4.2737694e-19
0.0060338191
-6.5255079e-15
0.0070567818
1.2545544e-14
0.0080094077
2.0941062e-19
0.0089135698
0
0.0097381708
0
0.010475336
0
0.011140202
1.0316155e-14
0.011658315
0
0.011971626
0
0.012118966
9.1785081e-15
0.012169334
0
0.012125696
0
0.01194501
-8.1635088e-15
0.01164346
-1.5698393e-14
0.011344511
0
0.0111926
0
0.011288965
0
0.011685881
1.3402345e-14
0.012444581
6.1385148e-19
0.013595072
-5.0517601e-19
0.015129063
3.98786e-19
0.01701142
1.143759e-14
0.019080878
0
0.021141503
0
0.02319953
0
0.025142328
7.5045892e-06
0.0010607483
1.2808482e-05
0.0020920643
0
0.0026904004
0
0.0036575225
-7.0663029e-15
0.0046866708
6.7896233e-15
0.0056726489
6.526017e-15
0.0066438961
-6.2730988e-15
0.0075513751
6.031266e-15
0.0084176316
0
0.0092113385
0
0.009921815
-1.0728471e-14
0.010569785
-1.031902e-14
0.011083049
0
0.011391745
-9.5471098e-15
0.011526434
0
0.011559227
8.832976e-15
0.011499073
4.6907718e-19
0.011308099
5.233162e-19
0.010975063
7.8557603e-15
0.010559481
0
0.010200964
0
0.010048177
0
0.010176024
0
0.010642619
-1.2898177e-14
0.011493071
1.2396183e-14
0.012750985
0
0.014403222
-1.1450673e-14
0.016408152
-1.1007246e-14
0.018585116
0
0.020716543
-2.0354619e-14
0.022826176
3.1511803e-19
0.02479717
9.3298684e-06
0.0010629571
2.1618039e-05
0.002098467
1.9741591e-05
0.0029101524
0
0.0034250157
0
0.0043943895
0
0.005327677
-3.6534104e-19
0.0062479763
0
0.0071111253
-6.0321035e-15
0.0079393195
0
0.0087015952
5.5783971e-15
0.0093854934
0
0.010015297
0
0.010523231
-9.9284902e-15
0.010830168
-9.5506285e-15
0.010956124
0
0.010977809
0
0.010908496
0
0.01071298
8.1760585e-15
0.010367449
-7.8623992e-15
0.0098887872
7.5604498e-15
0.0093723203
0
0.0089808824
0
0.0088471367
0
0.0090346762
-1.2914153e-14
0.0095852878
-1.2412698e-14
0.010543258
1.1929617e-14
0.011913594
1.1465065e-14
0.013689058
3.8021603e-19
0.015823812
-2.1187056e-14
0.018104729
-2.0370943e-14
0.020304982
-1.9591452e-14
0.022463963
0
0.024459428
1.0064812e-05
0.0010657891
2.6845404e-05
0.0021042717
3.3280995e-05
0.002923895
2.5224736e-05
0.0036725764
0
0.0041155139
0
0.0049987824
0
0.0058693174
-6.2743518e-15
0.0066890814
6.0326477e-15
0.0074791681
5.8011172e-15
0.0082095204
5.5790892e-15
0.0088667236
5.3662729e-15
0.0094770162
0
0.0099787492
0
0.010285317
-9.5537623e-15
0.010405936
0
0.010420929
8.8415353e-15
0.010348735
0
0.010153349
0
0.0098062887
6.1702441e-19
0.0093003855
0
0.0086808443
-6.6998187e-19
0.0080888982
0
0.0077083294
0
0.0076214775
-1.2930728e-14
0.0078737966
0
0.0085286827
1.1945176e-14
0.0095976261
1.1480379e-14
0.011088133
0
0.01299428
3.6911774e-19
0.015257014
2.751748e-19
0.01764223
-1.9606799e-14
0.019907934
0
0.022112067
0
0.024127186
9.854902e-06
0.0010692268
2.8918781e-05
0.0021100293
4.1271309e-05
0.0029348217
4.2481422e-05
0.0036945285
2.9970106e-05
0.0043808588
0
0.0046845752
0
0.005507902
0
0.0062853475
0
0.0070376499
0
0.0077355652
-5.5797676e-15
0.0083658805
-4.6492659e-20
0.0089553751
-5.1628856e-15
0.0094493965
0
0.0097566826
0
0.0098744931
0
0.0098857152
0
0.0098151614
0
0.0096246332
0
0.0092816387
-7.8749013e-15
0.0087639242
7.5742284e-15
0.0080864937
0
0.0073558843
-7.0043301e-15
0.0067628812
0
0.006415362
0
0.006369177
0
0.0067141763
0
0.0074778989
0
0.0086662876
5.8748904e-19
0.010281735
1.0619525e-14
0.012318024
-1.0207724e-14
0.014710968
1.9626917e-14
0.017196782
0
0.019526098
0
0.021769919
1.7463607e-14
0.023808179
8.8503637e-06
0.0010731748
2.8270624e-05
0.0021157174
4.4382281e-05
0.0029439729
5.2609933e-05
0.0037117497
5.0448955e-05
0.0044186486
3.3747266e-05
0.0049541901
0
0.00516217
0
0.0058998363
0
0.0066147843
-5.8021756e-15
0.0072800965
5.5804456e-15
0.00788335
-5.3677533e-15
0.0084507302
8.5482442e-21
0.0089356416
-4.9679763e-15
0.0092437052
0
0.0093605104
0
0.0093703031
8.8492406e-15
0.0093045184
0
0.0091223086
0
0.008788483
7.8801288e-15
0.008269215
7.5793539e-15
0.0075638031
7.2914344e-15
0.0067523241
0
0.0059992472
-6.7980818e-19
0.0054358661
0
0.0051081651
0
0.0051157836
0
0.0055599832
0
0.0064453177
0
0.0077549346
1.0634688e-14
0.0094981159
0
0.011664538
-9.8248667e-15
0.014184813
0
0.016771454
-1.8165676e-14
0.019159388
0
0.021442698
0
0.023502146
7.2037635e-06
0.0010775804
2.5344619e-05
0.0021212384
4.3305512e-05
0.0029513827
5.6491589e-05
0.0037253329
6.2448421e-05
0.0044491746
5.6833762e-05
0.0050123695
3.6430439e-05
0.0054222985
0
0.0055312124
0
0.0062104826
0
0.0068432725
-5.5809595e-15
0.0074194304
5.3684202e-15
0.0079636118
0
0.0084375732
4.9687815e-15
0.0087463693
4.7805838e-15
0.0088633239
0
0.0088731079
0
0.008814153
8.5176493e-15
0.0086431456
0
0.0083232826
-6.8462431e-19
0.007812356
-7.5847092e-15
0.0070982494
7.2966608e-15
0.0062505762
7.8224162e-19
0.0054021418
7.1920311e-19
0.0046766707
-6.8167505e-19
0.0041085857
0
0.0037786414
0
0.0038629972
-1.1528686e-14
0.0044260687
0
0.0054316101
0
0.0068691702
-1.0235141e-14
0.008737343
0
0.011034325
9.4570431e-15
0.013681663
9.0919974e-15
0.016364237
1.7486759e-14
0.018810211
-1.6819926e-14
0.021130056
-1.6183956e-14
0.02320913
5.0718637e-06
0.0010823628
2.0590251e-05
0.0021265103
3.8739079e-05
0.0029570806
5.5030458e-05
0.0037354726
6.7017245e-05
0.0044739847
7.0377354e-05
0.0050608205
6.1387789e-05
0.0055003646
3.8168214e-05
0.0057734159
0
0.0058237693
0
0.0064251306
0
0.0069743563
5.3689107e-15
0.0074946412
-3.4586325e-21
0.0079556101
-9.9390504e-15
0.0082645869
0
0.0083825145
9.2018432e-15
0.0083931826
-8.8549964e-15
0.0083426551
0
0.0081843457
0
0.0078819738
0
0.0073885052
0
0.0066788169
0
0.0058221721
0
0.0049279646
6.7556679e-15
0.0040875758
0
0.0033416955
0
0.0027357717
1.3117913e-18
0.002442121
0
0.0026273484
1.1097456e-14
0.0033096009
0
0.0044455489
0
0.0060074983
-9.8514158e-15
0.0080032688
0
0.010429254
0
0.013199353
0
0.015976881
-1.6833143e-14
0.018477516
-1.6192641e-14
0.020832365
-1.5580801e-14
0.022925025
2.6155884e-06
0.0010874708
1.4467552e-05
0.0021314595
3.1400479e-05
0.002961125
4.9144557e-05
0.0037422979
6.5242555e-05
0.0044932654
7.5551328e-05
0.005101071
7.6049356e-05
0.00556625
6.4348813e-05
0.0058737377
3.9105945e-05
0.0060412878
0
0.0060248161
0
0.0065481558
0
0.0070443363
1.7657463e-21
0.0074905124
4.9701707e-15
0.007798371
0
0.0079179612
0
0.007930003
0
0.0078886736
0
0.0077440791
0
0.0074614034
7.8930278e-15
0.0069926516
0
0.006297361
0
0.0054448662
0
0.0045365277
0
0.0036337763
6.5034191e-15
0.0027636014
6.2539595e-15
0.0019542992
0
0.0013336431
0
0.0011075835
0
0.0014102692
-1.0680698e-14
0.002225962
0
0.0034867322
0
0.0051761107
9.4828689e-15
0.0072968956
0
0.0098484726
-8.7618911e-15
0.012738998
8.4249476e-15
0.015606907
1.6205279e-14
0.018162669
1.5588784e-14
0.020547045
0
0.022651907
0.0010927955
0
7.4452894e-06
0.0021360277
2.2010531e-05
0.0029635581
3.9764489e-05
0.0037459266
5.8226894e-05
0.0045071427
7.356812e-05
0.0051332639
8.1675411e-05
0.0056216533
7.9761147e-05
0.0059597438
6.5973975e-05
0.0061632965
3.936743e-05
0.0062116108
0
0.0061406283
0
0.006612923
0
0.0070429159
8.8707947e-20
0.0073480218
4.7830983e-15
0.0074694607
0
0.0074834238
0
0.0074514859
-8.5258664e-15
0.0073209621
8.2053451e-15
0.0070586073
0
0.0066198468
8.3580524e-19
0.0059474122
1.4622771e-14
0.0051071608
-7.0349293e-15
0.0042029344
6.7676992e-15
0.0032762032
-1.3018712e-14
0.0023186855
0
0.0013534234
8.1024053e-19
0.00049725436
-5.7884818e-15
-8.6362224e-05
0
-0.00020836905
0
0.00022538397
1.0280672e-14
0.0011714743
0
0.0025627871
0
0.0043764999
-9.1273769e-15
0.0066209159
8.7735996e-15
0.0092926443
2.8842635e-19
0.012298897
8.1104543e-15
0.015256673
0
0.017864091
-1.5008571e-14
0.020274439
2.3825627e-19
0.022387344
0.0021400961
0
0.0010982204
-2.6416205e-06
1.1299223e-05
0.0029644084
2.7823947e-05
0.0037465455
4.7079774e-05
0.0045157027
6.5667339e-05
0.0051575138
7.9559999e-05
0.005666674
8.5697242e-05
0.0060329774
8.1821264e-05
0.0062685523
6.6450535e-05
0.0063536745
3.8998961e-05
0.0062948414
0
0.0062010477
0
0.0066131927
0
0.0069139499
1.9749756e-19
0.007037107
-4.6038064e-15
0.0070534103
0
0.0070306075
-4.2638902e-15
0.0069141118
4.1036572e-15
0.0066720368
0
0.00626621
0
0.0056231851
0
0.0048016714
7.0396661e-15
0.0039066716
-6.7730395e-15
0.0029704347
-6.5148012e-15
0.0019594035
0
0.00087661218
0
-0.00014639208
0
-0.0009819457
0
-0.0014920903
1.071302e-14
-0.0014976141
0
-0.00092432941
9.8966803e-15
0.00015474579
0
0.0016721667
0
0.0036113593
8.7864023e-15
0.0059723936
8.4456618e-15
0.0087618912
2.756847e-19
0.011879775
0
0.014923425
0
0.017580465
0
0.020012141
0
0.022126716
0.0029636252
0
0.002143632
-7.4866693e-06
0.0011036439
-5.1723562e-06
1.4258464e-05
0.0037442936
3.2919061e-05
0.0045191125
5.3100532e-05
0.0051739156
7.1032203e-05
0.0057013567
8.3507371e-05
0.0060933069
8.7951316e-05
0.0063581307
8.2445013e-05
0.0064764799
6.5874321e-05
0.0064575623
3.8176051e-05
0.0063210741
0
0.006202563
0
0.0064963519
0
0.0066210792
2.5363293e-19
0.0066399414
-2.5398608e-19
0.006625817
4.2651341e-15
0.0065228796
3.1939735e-19
0.0063003448
0
0.0059288648
0
0.0053198251
0
0.0045228112
0
0.0036422393
-6.7779175e-15
0.0027036013
-9.264617e-19
0.0016647771
0
0.00050558848
6.0328906e-15
-0.00064990223
-5.801809e-15
-0.0016560151
0
-0.0024444008
-5.3640794e-15
-0.002874303
1.0312503e-14
-0.0027466944
0
-0.002037738
1.9051817e-14
-0.00082797367
0
0.00081974072
-8.7989573e-15
0.0028779053
0
0.0053539163
8.1302354e-15
0.0082548344
2.6329217e-19
0.011479349
0
0.014606936
1.4461056e-14
0.017309271
0
0.019755548
0
0.021865754
0.0037391925
0
0.002961419
-1.1305169e-05
0.0021465233
-1.4626904e-05
0.0011090325
-7.4161696e-06
1.6856663e-05
0.0045175244
3.7128343e-05
0.0051825383
5.7449906e-05
0.0057257247
7.4583516e-05
0.0061407003
8.5736225e-05
0.0064318696
8.864113e-05
0.0065808484
8.177567e-05
0.0065997146
6.4547662e-05
0.0065030868
3.7021567e-05
0.0062888071
4.9718432e-15
0.006096027
0
0.0062215515
0
0.006243266
2.5559757e-19
0.0062372171
-2.8454748e-19
0.0061467602
0
0.0059428108
3.5902631e-19
0.0056056502
-3.8046709e-15
0.0050332821
0
0.0042657649
0
0.0034075195
0
0.0024729018
0
0.0014208756
0
0.00022230959
6.0399064e-15
-0.0010314788
5.8091999e-15
-0.0021707056
8.692789e-19
-0.0031388557
0
-0.0038932746
-7.1343002e-19
-0.0042232255
0
-0.0039618967
0
-0.0031123063
0
-0.0017672951
0
3.4031299e-06
0
0.0021788011
0
0.0047633161
-3.3572703e-19
0.0077705048
0
0.011097252
1.8231317e-19
0.014303969
0
0.017046825
0
0.019501949
0
0.021605052
0.0045109992
0
0.0037317763
-1.4217594e-05
0.002957741
-2.203231e-05
0.0021486588
-2.0926265e-05
0.0011143112
-9.1928924e-06
1.9010018e-05
0.0051834861
4.017395e-05
0.0057398518
6.0338085e-05
0.0061751133
7.6592605e-05
0.0064897387
8.6418468e-05
0.006666681
8.7965298e-05
0.0067212665
8.0195506e-05
0.0066636816
6.2648514e-05
0.0064875551
3.5428221e-05
0.0061503839
4.784887e-15
0.0058393054
0
0.0058635368
0
0.0058642285
-4.2664258e-15
0.0057854141
-3.2582179e-19
0.0055989073
0
0.0052948927
4.3885314e-19
0.0047605365
-4.9223431e-19
0.0040260258
0
0.0031975517
0
0.0022770764
-6.5296994e-15
0.0012225874
-6.2838891e-15
1.1543209e-05
-6.0455289e-15
-0.0012954141
0
-0.0025445971
0
-0.0036442738
8.580124e-19
-0.0046094889
5.1709991e-15
-0.00532172
0
-0.0055420311
0
-0.0051349328
0
-0.0041440987
-8.8263183e-15
-0.0026668863
0
-0.0007733008
8.1540843e-15
0.00151339
0
0.0042017154
-3.2084463e-19
0.0073073863
2.4105753e-19
0.010731184
0
0.014013168
1.340628e-14
0.016791766
0
0.019249658
-1.2415589e-14
0.02134315
0.0051767974
0
0.0045005832
-1.6783888e-05
0.0037221432
-2.7664939e-05
0.0029523843
-3.1444343e-05
0.0021500764
-2.5885788e-05
0.0011194233
-1.0323001e-05
2.0570156e-05
0.0057438162
4.2202777e-05
0.006196597
6.1974199e-05
0.0065317564
7.7203885e-05
0.0067338508
8.578787e-05
0.0068218779
8.6325201e-05
0.0068018004
7.7897793e-05
0.0066638604
6.0006828e-05
0.006363212
3.3194486e-05
0.0058637632
0
0.0055030201
0
0.0055065835
2.8901978e-19
0.0054384416
-4.1074481e-15
0.0052679371
-3.5635256e-19
0.0049952977
0
0.0044992239
3.6643034e-15
0.0037999673
-4.9688517e-19
0.0030076296
-6.7899173e-15
0.0021135082
0
0.0010694833
6.2885419e-15
-0.00013439672
0
-0.0014528405
0
-0.00277151
0
-0.003991791
0
-0.0051133216
8.7872856e-19
-0.0060913559
7.9588161e-19
-0.0067352942
0
-0.0068204275
0
-0.0062645587
0
-0.0051275214
-8.4964164e-15
-0.0035231702
-8.1660952e-15
-0.0015126345
0
0.00088149393
0
0.003664835
7.2542414e-15
0.0068649646
2.3166355e-19
0.010379984
0
0.013732072
0
0.016539811
0
0.018997368
1.1956222e-14
0.021076217
0.0057376793
0
0.0051640033
-1.8919048e-05
0.0044863398
-3.2636408e-05
0.0037098735
-3.9425208e-05
0.0029454943
-3.8806689e-05
0.0021507828
-2.900925e-05
0.0011242906
-1.0623465e-05
2.1612007e-05
0.0062051604
4.3350231e-05
0.0065579858
6.2463721e-05
0.0067825332
7.6654237e-05
0.0069012933
8.4239337e-05
0.006916893
8.3913881e-05
0.0068159166
7.4672175e-05
0.0065523787
5.6285497e-05
0.0060859448
3.0461287e-05
0.0055022637
0
0.0051683713
0
0.0051057092
0
0.0049502879
3.9551164e-15
0.0047066774
-4.4352584e-19
0.0042473173
0
0.0035848256
3.5285231e-15
0.0028328947
6.7921013e-15
0.0019750554
0
0.00095450288
0
-0.00022874023
6.0554495e-15
-0.0015325933
0
-0.0028803056
0
-0.0042080825
0
-0.0054755415
0
-0.0066345772
-4.983245e-15
-0.0075827535
-9.5833152e-15
-0.0081145698
-6.5555591e-19
-0.0080522074
0
-0.0073397987
0
-0.0060675211
0
-0.0043384763
0
-0.0022136646
7.5567172e-15
0.00027995314
0
0.0031538336
-6.9844674e-15
0.0064407282
0
0.010041211
6.4600336e-15
0.013457578
0
0.016289763
0
0.018740861
-1.1513776e-14
0.020801464
0.0062008557
0
0.0057235009
-2.0468616e-05
0.0051450867
-3.6773663e-05
0.0044673649
-4.6477203e-05
0.0036950819
-4.8590438e-05
0.0029369586
-4.3391401e-05
0.0021506835
-2.9798335e-05
0.0011288208
-9.9155975e-06
2.2200009e-05
0.0065685973
4.3686232e-05
0.0068129153
6.2026833e-05
0.006959473
7.5313599e-05
0.0070085453
8.1935777e-05
0.0069430108
8.0487225e-05
0.0067160607
7.0110167e-05
0.0062845901
5.1741547e-05
0.0057316388
2.7685858e-05
0.0051461986
-4.2678339e-15
0.0047916042
0
0.0046459003
0
0.0044281058
4.450356e-19
0.0040044467
3.6659554e-15
0.0033785169
0
0.0026693489
0
0.0018547539
-5.4106169e-19
0.00086758878
0
-0.00028617476
0
-0.0015647763
0
-0.0029165362
0
-0.0043113482
0
-0.0057115618
0
-0.0070313738
0
-0.0081844882
8.7984882e-19
-0.0090493388
4.6144217e-15
-0.0094492784
-8.8687239e-15
-0.0092288325
0
-0.008368295
0
-0.0069593872
0
-0.0051100682
0
-0.0028790916
-7.2744816e-15
-0.00029151928
-6.9934705e-15
0.0026657393
0
0.0060333765
-6.4668108e-15
0.0097132883
-6.2205622e-15
0.013187268
0
0.016037277
-1.1519129e-14
0.018478762
0
0.020519484
0.0065636753
0
0.0061862938
-2.1508074e-05
0.0057013125
-3.9777653e-05
0.0051187407
-5.2343408e-05
0.0044437696
-5.724208e-05
0.0036776195
-5.4258513e-05
0.0029266802
-4.4474261e-05
0.0021496387
-2.7763522e-05
0.0011329316
-8.0215091e-06
2.2367813e-05
0.0068253869
4.3381295e-05
0.0069966322
6.0963416e-05
0.0070763262
7.3285584e-05
0.0070447207
7.8626482e-05
0.0068532662
7.5638538e-05
0.0064576339
6.4545303e-05
0.0059389707
4.7117158e-05
0.0053802916
2.4960956e-05
0.0047525648
0
0.004360605
0
0.0041586653
0
0.0037695273
3.6673608e-15
0.00318005
3.5302639e-15
0.0025141927
0
0.0017467594
3.2718424e-15
0.00079998781
-5.7931593e-19
-0.00031753666
0
-0.0015650092
0
-0.0029053698
0
-0.0043277742
0
-0.0058258725
0
-0.0073041474
0
-0.0086213248
0
-0.0097142223
4.6204434e-15
-0.010475792
4.4415499e-15
-0.0107272
-5.9992652e-19
-0.010353798
0
-0.0093444172
0
-0.0078064247
7.5802286e-15
-0.0058408524
-7.2854291e-15
-0.0035092557
0
-0.00083410848
6.7335059e-15
0.0022004238
-6.4746953e-15
0.0056409672
2.0862278e-19
0.0093936852
-5.9900168e-15
0.01291838
-1.1526469e-14
0.015782432
0
0.018210278
-1.0679003e-14
0.020229529
0.0068202547
0
0.006546536
-2.2089887e-05
0.0061614421
-4.1796913e-05
0.0056692953
-5.6603672e-05
0.0050852238
-6.4427113e-05
0.0044155862
-6.3875439e-05
0.0036575351
-5.5550174e-05
0.0029144584
-4.1349921e-05
0.002147653
-2.2424648e-05
0.0011364979
-4.7705353e-06
2.2211038e-05
0.0070130448
4.2646277e-05
0.0071200104
5.9342001e-05
0.0071206889
7.0357887e-05
0.0069633319
7.3949416e-05
0.0066036365
6.9730162e-05
0.0061205053
5.8885472e-05
0.0055939612
4.2579391e-05
0.0049885079
2.2171745e-05
0.0043117006
0
0.0039058112
0
0.0035418326
3.6681341e-15
0.0029890989
-7.0623695e-15
0.0023655164
3.399809e-15
0.0016464494
0
0.00074493948
-3.150929e-15
-0.00033107835
0
-0.0015416157
0
-0.002860942
-5.6195919e-15
-0.0042899857
0
-0.0058421209
0
-0.0074448447
0
-0.0089206656
0
-0.010189593
0
-0.011213043
0
-0.011848302
4.2758404e-15
-0.01195161
-5.7005299e-19
-0.011422918
0
-0.010270079
0
-0.0086031353
7.2973628e-15
-0.0065323543
0
-0.0041061982
6.7425737e-15
-0.0013493882
6.4830626e-15
0.0017537896
0
0.0052625326
2.0383013e-19
0.0090801517
-5.7681998e-15
0.012649951
2.7002496e-19
0.015522073
0
0.017934366
0
0.019928698
0.0070091174
0
0.0068013379
-2.2247466e-05
0.0065173585
-4.2921087e-05
0.0061237941
-5.9469353e-05
0.005627786
-6.9646514e-05
0.0050445728
-7.1844941e-05
0.004382857
-6.5354218e-05
0.0036348155
-5.1592745e-05
0.0029005151
-3.3335806e-05
0.0021448632
-1.3319412e-05
0.0011392825
0
2.1835102e-05
0.0071397095
4.152172e-05
0.0071705845
5.6988405e-05
0.0070458385
6.6209982e-05
0.0067214421
6.8251796e-05
0.0062745949
6.3710075e-05
0.0057814013
5.3308634e-05
0.0052050636
3.7922538e-05
0.0045465717
1.9368923e-05
0.0038502311
3.8096834e-15
0.0033282584
0
0.0028058889
0
0.0022228487
3.4012898e-15
0.0015518457
3.2742871e-15
0.00069709902
3.1528744e-15
-0.00033310581
0
-0.0015013937
-6.1249006e-19
-0.0027904473
0
-0.004212073
0
-0.0057849282
0
-0.0074592994
-5.0077645e-15
-0.0090752305
0
-0.010497473
4.6330803e-15
-0.011719214
4.4537376e-15
-0.012664272
0
-0.013166982
0
-0.013113774
0
-0.012434078
7.6039499e-15
-0.01114007
0
-0.0093585076
-7.024607e-15
-0.007185617
0
-0.0046708864
6.4916355e-15
-0.0018400427
1.2484225e-14
0.0013260992
0
0.0048946222
1.9932421e-19
0.0087712711
-1.1109428e-14
0.012379441
1.0690443e-14
0.015255071
0
0.017648151
9.9040039e-15
0.019610542
0.0071356639
0
0.0069891278
-2.2086243e-05
0.0067689311
-4.3219113e-05
0.006473196
-6.1056741e-05
0.0060735816
-7.31576e-05
0.0055769072
-7.7634063e-05
0.0049966798
-7.3444698e-05
0.0043455881
-6.066377e-05
0.003609518
-4.1556579e-05
0.0028848175
-1.9764782e-05
0.0021406294
0
0.0010383154
0
2.1259656e-05
0.0071943131
3.988386e-05
0.0071004864
5.3650859e-05
0.0068101201
6.1164747e-05
0.0063998097
6.2436672e-05
0.005940654
5.776309e-05
0.0053948285
4.7582489e-05
0.0047634746
3.3224134e-05
0.0040776165
1.6401174e-05
0.0032746344
0
0.0026387508
0
0.0020857176
3.4021333e-15
0.0014607113
5.7051576e-19
0.00065438922
-6.1136824e-19
-0.00032826906
3.0365682e-15
-0.0014497928
-2.922553e-15
-0.002699868
-6.4330481e-19
-0.0040994028
-5.4146011e-15
-0.0056717214
1.0421806e-14
-0.0073715932
5.014065e-15
-0.009074062
0
-0.010634083
0
-0.012025536
4.4607938e-15
-0.013223679
-4.2878643e-15
-0.014066516
0
-0.014417845
0
-0.014214093
0
-0.013386316
0
-0.011961648
0
-0.010068742
-6.7627265e-15
-0.0078020869
0
-0.0052055281
1.2500755e-14
-0.0023081949
-6.0099991e-15
0.0009135739
-5.7802701e-15
0.0045367632
5.5601199e-15
0.0084643814
0
0.012104578
0
0.014978182
0
0.017351454
0.00017438595
0.019096962
0.0071918883
0
0.0071129415
-2.1703441e-05
0.0069532372
-4.2896457e-05
0.0067195645
-6.1467738e-05
0.0064141605
-7.508546e-05
0.0060111446
-8.1522056e-05
0.0055166659
-7.931844e-05
0.0049415291
-6.8107462e-05
0.0043035185
-4.8825907e-05
0.0035812954
-2.4611886e-05
0.0028660316
0
0.0019634915
0
0.0011091663
0
2.0423168e-05
0.007127046
3.7556673e-05
0.0068691373
4.9598052e-05
0.0064948991
5.6012829e-05
0.0060704166