/*--------------------------------*- C++ -*----------------------------------*\
| =========                 |                                                 |
| \\      /  F ield         | OpenFOAM: The Open Source CFD Toolbox           |
|  \\    /   O peration     | Version:  v2012                                 |
|   \\  /    A nd           | Website:  www.openfoam.com                      |
|    \\/     M anipulation  |                                                 |
\*---------------------------------------------------------------------------*/
FoamFile
{
    version     2.0;
    format      ascii;
    class       volScalarField;
    location    "94.5973634040841915";
    object      p;
}
// * * * * * * * * * * * * * * * * * * * * * * * * * * * * * * * * * * * * * //

dimensions      [0 2 -2 0 0 0 0];


internalField   nonuniform List<scalar> 
9200
(
-9.3967883e-05
5.9968196e-05
0.0022534555
0.00021768238
0.0027801229
0.0020899962
0.00052328754
0.0034622967
0.002792032
0.0018356674
0.00095385718
0.004569713
0.0037740703
0.0026577992
0.0009063044
0.0015057422
0.0060356649
0.0053320505
0.0038593782
0.0017585294
-0.0004838361
0.0022403044
0.007850632
0.0074246346
0.0057323895
0.0030415798
0.00032888845
-0.0023006416
0.0031418521
0.010090809
0.010049858
0.0082514176
0.0050142386
0.0015822579
-0.0015873091
-0.0044309147
0.0042552553
0.012733747
0.013315891
0.011415817
0.0076721139
0.0034780567
-0.00045901568
-0.0038592566
-0.0067730484
0.0055744368
0.015826557
0.01722192
0.015347575
0.01100529
0.0060337467
0.0012095359
-0.002923761
-0.0063671155
-0.0092252075
0.0071359991
0.019370348
0.021850555
0.020059121
0.015141795
0.0092179526
0.0034600402
-0.0015877236
-0.0056650693
-0.0089941654
-0.011691801
0.0088672794
0.023379672
0.027237018
0.025650232
0.020097305
0.013153166
0.0062298657
0.00021653174
-0.0047225591
-0.0085401161
-0.01163646
-0.014108274
0.010666498
0.027714797
0.033423359
0.032166711
0.025977139
0.017843807
0.0096278654
0.0023891159
-0.0034446269
-0.0080104704
-0.011426687
-0.014205693
-0.016451008
0.013079217
0.032555597
0.040437571
0.039669283
0.032832221
0.023382855
0.013635788
0.0050209418
-0.0019703181
-0.0072818708
-0.011295852
-0.014228121
-0.016648013
-0.018651074
0.015761823
0.038125501
0.048438264
0.048234421
0.040736126
0.029809754
0.018321841
0.0080647934
-0.00022777468
-0.0065309543
-0.011092208
-0.014457737
-0.016877919
-0.018944565
-0.020603786
0.01840319
0.043909501
0.056958066
0.0578752
0.049744898
0.037188704
0.023700806
0.01155975
0.001705395
-0.0057024165
-0.011025909
-0.01471982
-0.017411956
-0.019331583
-0.021061884
-0.022363302
0.021106866
0.049972899
0.06628167
0.068496997
0.059876877
0.045560748
0.029806172
0.015490717
0.0038398473
-0.0049033514
-0.011052541
-0.015250002
-0.018060442
-0.020111426
-0.021554428
-0.022987252
-0.024024619
0.023811535
0.056303346
0.076703189
0.080244026
0.07116269
0.054961493
0.036647366
0.019857569
0.0061300918
-0.0041531183
-0.011309402
-0.016013967
-0.019072054
-0.02105619
-0.022543249
-0.023550548
-0.024711953
-0.025516261
0.026418364
0.062869113
0.08785106
0.093035203
0.083617382
0.065413584
0.044224052
0.02463527
0.0085475999
-0.0035264104
-0.011845214
-0.017174561
-0.020419724
-0.022431376
-0.023687653
-0.024699063
-0.025334979
-0.026233695
-0.026812183
0.028824556
0.069543967
0.09966915
0.10683534
0.097219454
0.076925819
0.052518182
0.029783877
0.01104781
-0.00307789
-0.012751832
-0.018786035
-0.022271958
-0.024182829
-0.025311631
-0.025976586
-0.026595066
-0.026923441
-0.027573571
-0.027930471
0.030906328
0.076197011
0.11208621
0.12153593
0.11191715
0.089485212
0.061486604
0.03523222
0.013571545
-0.0028699796
-0.014106221
-0.020961726
-0.024672374
-0.026481643
-0.027287425
-0.027729556
-0.02795541
-0.028258577
-0.028317614
-0.028747822
-0.028874916
0.032534172
0.082695866
0.12498852
0.13702879
0.12761074
0.10304999
0.071059354
0.040871842
0.016028614
-0.0029646123
-0.016002406
-0.023808666
-0.027778142
-0.029383697
-0.029817331
-0.029798511
-0.029751554
-0.029669387
-0.02972237
-0.029541819
-0.029764294
-0.029665346
0.033652189
0.088869513
0.13824734
0.15316985
0.14416149
0.11754446
0.081140198
0.046546412
0.018305762
-0.0034808108
-0.018534128
-0.027436548
-0.031691483
-0.033037866
-0.032937281
-0.032365608
-0.031804066
-0.031454652
-0.031167092
-0.031017076
-0.030621499
-0.030628328
-0.030306884
0.034252053
0.094464829
0.15171223
0.16978011
0.16139372
0.13284764
0.09159813
0.052038302
0.020242523
-0.0045078578
-0.021808911
-0.031957522
-0.036538637
-0.037544485
-0.036776897
-0.035454015
-0.034254021
-0.033414087
-0.032917106
-0.032496174
-0.032169045
-0.031557794
-0.031346636
-0.030804509
0.034265738
0.099264094
0.16515101
0.1866496
0.17909359
0.14879574
0.10227286
0.05704793
0.021605086
-0.006182385
-0.025947564
-0.037483693
-0.042439842
-0.043024804
-0.041428527
-0.039182515
-0.037107673
-0.035641999
-0.034745015
-0.034212067
-0.033697454
-0.033197982
-0.032363298
-0.031925334
-0.031162274
0.033671914
0.10315207
0.17900479
0.20361571
0.19702981
0.16515818
0.11296675
0.061201904
0.022064329
-0.0086931908
-0.031108492
-0.044142131
-0.049511166
-0.049613399
-0.046947988
-0.043657436
-0.040455386
-0.038117094
-0.036698695
-0.035906573
-0.035402338
-0.034802994
-0.034118438
-0.033044292
-0.032369012
-0.031384064
0.032375986
0.10603375
0.19187923
0.2205015
0.21492543
0.18168919
0.12342548
0.06400637
0.021201434
-0.012283577
-0.037505213
-0.052084936
-0.057875833
-0.057414041
-0.053568473
-0.048545461
-0.044219942
-0.040882333
-0.038723265
-0.037581783
-0.036993026
-0.036537181
-0.035835469
-0.034939462
-0.03360531
-0.032681192
-0.031473596
0.030687709
0.10763287
0.20434834
0.23692223
0.23249339
0.19784139
0.13346122
0.064931438
0.018401684
-0.01725035
-0.045425171
-0.061507755
-0.067672315
-0.066534869
-0.061326541
-0.054729275
-0.048647135
-0.043920373
-0.040822376
-0.03914572
-0.038427546
-0.038078901
-0.03765116
-0.03680828
-0.035665419
-0.034048593
-0.032864699
-0.031434647
0.029057781
0.10799405
0.21629188
0.25256556
0.24943133
0.21342252
0.14312355
0.063475101
0.013033546
-0.024085963
-0.055272704
-0.072675265
-0.079072428
-0.07708421
-0.07030459
-0.061804874
-0.053828564
-0.047399485
-0.04300249
-0.040562494
-0.039574158
-0.039344848
-0.039216878
-0.038764454
-0.037726676
-0.036296845
-0.034374977
-0.032922062
-0.031271223
0.027332624
0.10733386
0.2273888
0.26715954
0.26545933
0.22808715
0.15210773
0.059674865
0.0053290088
-0.033211282
-0.067684191
-0.085966061
-0.09227931
-0.089277513
-0.080321435
-0.069852143
-0.059761301
-0.051359672
-0.045330382
-0.04181296
-0.040352154
-0.040163642
-0.040412076
-0.040437974
-0.039884305
-0.038589247
-0.036831513
-0.034584475
-0.032855854
-0.030987689
0.025242075
0.10593245
0.23690429
0.28063463
0.28039245
0.24145786
0.15987412
0.052120668
-0.0059332603
-0.044131299
-0.083310531
-0.10187548
-0.10755961
-0.10328688
-0.091948934
-0.078892823
-0.066489193
-0.055862831
-0.047869497
-0.042910471
-0.040699807
-0.040407492
-0.041028955
-0.041676503
-0.04175348
-0.041007139
-0.039389657
-0.03726546
-0.034676839
-0.032668946
-0.030588852
0.022880246
0.10321452
0.24480569
0.29285256
0.29407067
0.25305915
0.16562101
0.038719157
-0.023677963
-0.057892892
-0.10274803
-0.1211315
-0.12520755
-0.11939115
-0.10505565
-0.089019268
-0.074051757
-0.060989337
-0.050698489
-0.043899576
-0.040580458
-0.039966281
-0.040894671
-0.042241747
-0.04315641
-0.043157599
-0.042121195
-0.040118283
-0.037593912
-0.034652016
-0.032364688
-0.03008
0.020401566
0.099293653
0.25004848
0.30429475
0.30625708
0.26251001
0.1692017
0.017583508
-0.051255203
-0.07825405
-0.12727427
-0.14506276
-0.14580358
-0.13796098
-0.11982083
-0.100238
-0.082477733
-0.066826733
-0.053934376
-0.044861114
-0.040000621
-0.038748461
-0.03985142
-0.041921542
-0.043832077
-0.044845233
-0.044632666
-0.043209097
-0.040763733
-0.037812072
-0.034510483
-0.031947021
-0.029466897
0.01757105
0.094463067
0.2528097
0.31407505
0.31753418
0.26921374
0.16896891
-0.012037443
-0.097850165
-0.11035177
-0.15781941
-0.17453017
-0.17046666
-0.15963576
-0.13650986
-0.1125589
-0.091778223
-0.073467545
-0.057727147
-0.045919683
-0.039005595
-0.036702112
-0.037751509
-0.040516195
-0.043537341
-0.045794052
-0.046716655
-0.046151123
-0.04425034
-0.041314176
-0.037915722
-0.034253484
-0.031420516
-0.028755743
0.014234205
0.088886191
0.25317683
0.32282839
0.32722865
0.2735432
0.16140605
-0.049077002
-0.16184122
-0.15760997
-0.19782923
-0.21171492
-0.19990199
-0.18551071
-0.15546824
-0.12601835
-0.10193826
-0.081020221
-0.062269299
-0.047255898
-0.037703415
-0.03380776
-0.034480302
-0.037828084
-0.042039802
-0.045738815
-0.048091615
-0.048730401
-0.047678031
-0.04522368
-0.041758369
-0.037901674
-0.033883158
-0.030790363
-0.02795312
0.010566733
0.082748977
0.25134851
0.32924252
0.33715977
0.27671253
0.14545676
-0.086353601
-0.243278
-0.22180482
-0.2505922
-0.25546842
-0.23400497
-0.21668627
-0.17721596
-0.14063902
-0.11293885
-0.089587473
-0.067815902
-0.049103427
-0.036277902
-0.03009688
-0.029945551
-0.033686772
-0.039103133
-0.044426193
-0.048480272
-0.050668655
-0.05083796
-0.049182731
-0.046107774
-0.042086424
-0.037768037
-0.033402575
-0.030062326
-0.027065912
0.0067778544
0.07579225
0.24713083
0.33298657
0.3450133
0.2807952
0.13210214
-0.12502838
-0.34037097
-0.30990555
-0.31654537
-0.30319856
-0.26946717
-0.25086916
-0.20247368
-0.15642139
-0.12473999
-0.099285711
-0.074673005
-0.051840552
-0.034768824
-0.025653286
-0.024092715
-0.027934707
-0.03451468
-0.041593366
-0.047617651
-0.051685356
-0.053457997
-0.052986661
-0.050627344
-0.046883054
-0.042290289
-0.037514353
-0.032815724
-0.02924267
-0.026101217
0.0030414425
0.067740485
0.24043999
0.33365418
0.34997041
0.28254487
0.12381384
-0.16555343
-0.45181829
-0.42723667
-0.38729189
-0.35491043
-0.30582017
-0.28683769
-0.23197444
-0.17338086
-0.13729602
-0.11020977
-0.083226223
-0.055921449
-0.033775599
-0.020610875
-0.016906661
-0.020440985
-0.028070098
-0.037002052
-0.045226787
-0.051512285
-0.055258036
-0.056379316
-0.055123496
-0.051979768
-0.047532544
-0.042364047
-0.037141628
-0.032127447
-0.028338064
-0.025066255
-0.00049311163
0.058438218
0.23114374
0.33059165
0.35180013
0.28074187
0.11382628
-0.2164505
-0.56590271
-0.56175665
-0.45777289
-0.41168975
-0.34473188
-0.32277041
-0.2656588
-0.19143136
-0.15050139
-0.12245871
-0.093923524
-0.061914653
-0.033764586
-0.015286219
-0.0084252746
-0.011100783
-0.019587055
-0.030423857
-0.041061863
-0.049870368
-0.055981444
-0.059092273
-0.059359252
-0.057197675
-0.053210774
-0.048042375
-0.042304037
-0.036652296
-0.031343354
-0.027355487
-0.023968269
-0.0036901504
0.047869011
0.21906604
0.32325412
0.3498751
0.27481037
0.099483032
-0.26972934
-0.69359737
-0.69885287
-0.53569932
-0.47252888
-0.3848922
-0.35589648
-0.29969928
-0.21031416
-0.16426823
-0.13604844
-0.10731043
-0.070509005
-0.035321866
-0.010079255
0.0012242102
0.00015747868
-0.0089045827
-0.021651201
-0.034885112
-0.046515526
-0.055353183
-0.06088082
-0.06308173
-0.06232365
-0.059163579
-0.054295347
-0.048401991
-0.042108851
-0.036050137
-0.030469695
-0.026302077
-0.022814436
0.036129285
-0.0064298455
0.20401763
0.31112549
0.34307412
0.26739059
0.079527172
-0.32513815
-0.82545802
-0.85723296
-0.63006181
-0.53805522
-0.42040325
-0.38574363
-0.33075085
-0.23089698
-0.17849193
-0.15097493
-0.12397332
-0.082592106
-0.039197882
-0.0055349588
0.011837034
0.013357704
0.0041163505
-0.010504715
-0.026487112
-0.041205626
-0.053122621
-0.061477219
-0.066061491
-0.067123317
-0.065205041
-0.060981208
-0.055213195
-0.048604222
-0.041779271
-0.03534012
-0.029513156
-0.025185009
-0.021611824
0.18580961
0.023354713
-0.0086172503
0.29370816
0.33028165
0.2573783
0.053569091
-0.38515017
-0.96435286
-1.0314007
-0.7583422
-0.61935725
-0.45028885
-0.41176983
-0.35621471
-0.25403174
-0.19317919
-0.16703194
-0.14458201
-0.099226326
-0.046437561
-0.0024002256
0.02307854
0.028477584
0.019576231
0.0031732277
-0.015697771
-0.033758035
-0.049067042
-0.060634857
-0.068045945
-0.071384826
-0.071122383
-0.067943771
-0.062616952
-0.055948907
-0.048645249
-0.041318066
-0.034528096
-0.028480652
-0.024011451
-0.020367365
0.27064651
0.1641569
0.0097716368
-0.010168742
0.31076697
0.23844214
0.018158598
-0.44973292
-1.1113258
-1.2288104
-0.91144235
-0.71392355
-0.49712526
-0.43051418
-0.37899993
-0.27940753
-0.20807135
-0.18427589
-0.16974137
-0.12171628
-0.058329883
-0.0017175107
0.034445168
0.045403698
0.037539948
0.019489082
-0.0023754743
-0.024037546
-0.043029221
-0.05817584
-0.068806134
-0.074877299
-0.076725428
-0.074994733
-0.0704888
-0.06404401
-0.056491948
-0.048524365
-0.040729559
-0.033620479
-0.027379315
-0.022788652
-0.019087764
0.2839219
0.24151893
0.13897251
-0.0043930633
-0.011028954
0.21015941
-0.026412868
-0.51794288
-1.2685697
-1.4492959
-1.0943009
-0.83077427
-0.54673891
-0.45835329
-0.39836532
-0.30510776
-0.22267675
-0.20180152
-0.20012178
-0.15155731
-0.076429085
-0.0048842844
0.045177913
0.063925867
0.057994312
0.038498007
0.013550587
-0.01190571
-0.034988336
-0.053950531
-0.068178836
-0.077396515
-0.081808937
-0.081969181
-0.078667331
-0.072798223
-0.065242427
-0.056836375
-0.048243366
-0.040019147
-0.032624267
-0.026216743
-0.021523873
-0.017779278
0.17434276
0.24894731
0.20615227
0.1101526
-0.018952488
-0.011147875
-0.075880663
-0.58792926
-1.4375018
-1.6897429
-1.3179109
-0.95981632
-0.61090073
-0.48317664
-0.42026838
-0.32671953
-0.23677532
-0.21993842
-0.23608413
-0.19064644
-0.1024394
-0.013590776
0.054205427
0.083647809
0.080855249
0.060172131
0.032069655
0.0026388515
-0.024669053
-0.047881209
-0.066023103
-0.078768476
-0.086178599
-0.088686034
-0.087016651
-0.082078711
-0.0748394
-0.066198756
-0.056980043
-0.047805868
-0.03919337
-0.031547557
-0.025000979
-0.020223818
-0.01644756
-0.13149481
0.13023987
0.2055278
0.16427242
0.077568038
-0.033761387
-0.010439502
-0.6623943
-1.6160836
-1.9431657
-1.5729287
-1.0880148
-0.67956146
-0.51229579
-0.43513213
-0.35006095
-0.25019446
-0.237842
-0.28006159
-0.24151296
-0.1391893
-0.03005647
0.060141659
0.10399031
0.10587111
0.084394453
0.053084602
0.019516876
-0.01223104
-0.039881659
-0.062258716
-0.078866603
-0.089665714
-0.094960172
-0.095372754
-0.091779703
-0.08517979
-0.07658854
-0.066905022
-0.056923665
-0.047217437
-0.038260764
-0.030399553
-0.023739334
-0.018893885
-0.015098037
-0.74583989
-0.1952473
0.077563091
0.15298491
0.11565124
0.041002627
-0.04869584
-0.0088760137
-1.7946011
-2.2053432
-1.8375671
-1.2211013
-0.75062161
-0.54016382
-0.45510678
-0.36844411
-0.26847005
-0.25640723
-0.32514828
-0.30239873
-0.18981193
-0.05801871
0.060888232
0.12406768
0.13264977
0.11086599
0.076382627
0.0385537
0.0022122301
-0.030053408
-0.056864137
-0.077613247
-0.092142819
-0.10063242
-0.10357615
-0.10175974
-0.096189698
-0.087933184
-0.078029411
-0.067357502
-0.056671013
-0.046486861
-0.037231911
-0.029188452
-0.0224367
-0.017538883
-0.013736755
-1.9636829
-0.8366127
-0.26650168
0.015350264
0.090811349
0.059978213
0.000227437
-0.063629008
-0.006529177
-2.4701748
-2.1006874
-1.3748134
-0.82482396
-0.56738355
-0.46486256
-0.38288
-0.28823918
-0.27123726
-0.37098749
-0.36826578
-0.25377831
-0.10054165
0.052841346
0.14235509
0.16044746
0.13914275
0.10155408
0.059453831
0.018427601
-0.018557529
-0.049938102
-0.075003457
-0.09352565
-0.10556489
-0.11146519
-0.11188434
-0.10775464
-0.10019277
-0.090311525
-0.079151803
-0.067556998
-0.056230712
-0.045626241
-0.036116062
-0.027918304
-0.0210969
-0.016166178
-0.012370236
-2.7303614
-2.1179467
-0.93239146
-0.34521496
-0.056875788
0.018540148
-0.0031337775
-0.044947362
-0.078414153
-0.0035004647
-2.3595555
-1.5453391
-0.90276637
-0.5919248
-0.47094428
-0.39253176
-0.30615279
-0.2796102
-0.40161174
-0.44658731
-0.32695064
-0.15566169
0.032675388
0.15668513
0.18811387
0.1684208
0.1280658
0.081715629
0.036081142
-0.005671517
-0.041668846
-0.071130401
-0.09379731
-0.1096553
-0.11889284
-0.12199125
-0.11976383
-0.11328347
-0.10374713
-0.092295504
-0.079951915
-0.067511284
-0.055616373
-0.044646008
-0.034916126
-0.026591457
-0.019729501
-0.014787262
-0.011002621
-2.6074838
-2.975409
-2.2561119
-1.0314382
-0.43052695
-0.13928196
-0.064302368
-0.07399597
-0.094549124
-0.092865029
-1.2187734e-05
-1.7180586
-0.98075031
-0.61379964
-0.47467116
-0.39130048
-0.32142417
-0.28242079
-0.429668
-0.50979719
-0.41253945
-0.21658797
0.0054617308
0.16459444
0.21444665
0.19762294
0.15505655
0.10472678
0.054664122
0.0082466546
-0.032353474
-0.066186318
-0.093026821
-0.11285403
-0.12573018
-0.13192661
-0.13206479
-0.12711443
-0.11828702
-0.10682025
-0.093874494
-0.080435596
-0.067235292
-0.054839621
-0.04354752
-0.033632543
-0.025221158
-0.018353774
-0.013409672
-0.0096328082
-1.8794862
-2.8356275
-3.1972145
-2.3752076
-1.1308339
-0.52120994
-0.23182366
-0.15804614
-0.15258572
-0.14824828
-0.10657079
0.0028246889
-1.0522666
-0.63107712
-0.47221017
-0.38200049
-0.32486537
-0.28028417
-0.44310288
-0.59139327
-0.48274541
-0.27585718
-0.024569592
0.16439419
0.23672272
0.22564568
0.18136223
0.12746801
0.073630007
0.022697617
-0.022371694
-0.060469667
-0.091379895
-0.11518088
-0.13187978
-0.14153214
-0.14449814
-0.14156263
-0.13385396
-0.1227087
-0.10939198
-0.095050834
-0.080618616
-0.066741697
-0.053899726
-0.042328795
-0.032283407
-0.02383906
-0.016982105
-0.012022649
-0.0081904205
-1.1107439
-2.020042
-3.0356266
-3.3841632
-2.4714637
-1.2276695
-0.61562989
-0.33424375
-0.2625655
-0.23854628
-0.20542044
-0.1197621
0.0047297966
-0.64108998
-0.45913752
-0.36546268
-0.31403802
-0.27793709
-0.45066689
-0.65226801
-0.62237331
-0.33708378
-0.061338097
0.15658393
0.25042041
0.249848
0.20599746
0.14871392
0.092149613
0.037167144
-0.012218953
-0.054372273
-0.089128132
-0.11674005
-0.13728999
-0.15065583
-0.15688089
-0.15646382
-0.15037974
-0.13992829
-0.12652298
-0.11145912
-0.095840242
-0.080514276
-0.066026901
-0.052791614
-0.041014179
-0.030916459
-0.022464599
-0.015588668
-0.010524824
-0.0066591143
-0.641415
-1.1538023
-2.1285236
-3.1932977
-3.5252549
-2.5415077
-1.3184268
-0.71117541
-0.44576362
-0.37793478
-0.33096549
-0.26270175
-0.13372718
0.0059458185
-0.43466364
-0.34152067
-0.29491648
-0.27721687
-0.45496418
-0.69655979
-0.7198585
-0.45527304
-0.12500601
0.13814693
0.25513864
0.26675575
0.22591352
0.17154736
0.10959099
0.050926366
-0.0024064292
-0.04839772
-0.086646344
-0.11773336
-0.14196976
-0.159161
-0.16900989
-0.17161965
-0.16769601
-0.15842444
-0.14528216
-0.12971621
-0.11303592
-0.096255808
-0.080114971
-0.065081865
-0.051547353
-0.039671937
-0.029560255
-0.021046538
-0.014019272
-0.0089407742
-0.0050759949
-0.40024958
-0.63034721
-1.1721112
-2.1899309
-3.2963202
-3.6110904
-2.5823888
-1.3986489
-0.80555412
-0.56600013
-0.50212014
-0.42739268
-0.31748664
-0.15030836
0.005729733
-0.30853121
-0.26743023
-0.27394431
-0.44470743
-0.72046913
-0.80394205
-0.57763806
-0.20861243
0.072362296
0.24699571
0.27281493
0.24043968
0.1862388
0.12511741
0.063441556
0.0063909597
-0.043083109
-0.084434202
-0.118467
-0.14600246
-0.16693804
-0.18066301
-0.18678958
-0.18560244
-0.17807549
-0.16562197
-0.14987766
-0.13229836
-0.11413378
-0.096284226
-0.079406457
-0.063948064
-0.05026062
-0.03834203
-0.028130939
-0.019338439
-0.012368414
-0.0072959908
-0.0034430685
-0.26679889
-0.35887658
-0.60388427
-1.1616382
-2.2019444
-3.3360595
-3.6350884
-2.5915435
-1.4676047
-0.89807599
-0.69177612
-0.63321061
-0.52580464
-0.37506258
-0.16891368
0.0030943834
-0.22960603
-0.25986219
-0.41902111
-0.72127035
-0.86363933
-0.67923629
-0.29399362
-0.0046933572
0.18767746
0.26708077
0.24336024
0.19698951
0.13691821
0.073781188
0.013698039
-0.039114564
-0.083054703
-0.11938151
-0.14956071
-0.17391408
-0.1916064
-0.20168034
-0.20384094
-0.19868426
-0.18749842
-0.17194364
-0.15372519
-0.13427672
-0.11473117
-0.095904276
-0.078441458
-0.062750345
-0.048985572
-0.036898672
-0.026257959
-0.01754498
-0.01064589
-0.0055968793
-0.0017608909
-0.1814479
-0.22035785
-0.31016726
-0.5672394
-1.1294403
-2.1634188
-3.3080983
-3.5940019
-2.5681822
-1.5248954
-0.98714855
-0.82175179
-0.76750699
-0.63533977
-0.4349962
-0.18831977
-0.002762516
-0.2316898
-0.38490164
-0.69646655
-0.89269233
-0.7560402
-0.39125318
-0.097903601
0.12826243
0.2210158
0.23854872
0.1988005
0.14476394
0.081371881
0.018637547
-0.037016176
-0.083243203
-0.1210071
-0.15293911
-0.18006931
-0.20159603
-0.21594736
-0.22207356
-0.21999602
-0.21072703
-0.19589913
-0.1773685
-0.15682424
-0.13561784
-0.11479733
-0.095181948
-0.077382717
-0.061560185
-0.047544744
-0.034804174
-0.024291286
-0.015666581
-0.0088667329
-0.0038431768
-3.0663451e-05
-0.19099419
-0.12730377
-0.16969188
-0.25772298
-0.51547594
-1.0693245
-2.0721921
-3.2112707
-3.4888214
-2.5117386
-1.5668047
-1.0658514
-0.9469927
-0.91981576
-0.75448053
-0.49673557
-0.20682487
-0.010811976
-0.3394876
-0.64634481
-0.88585489
-0.80620077
-0.47721247
-0.19721758
0.042937927
0.16963423
0.20661127
0.19673751
0.14636672
0.085548354
0.021057565
-0.037711246
-0.085660822
-0.12408671
-0.15652309
-0.18546482
-0.21038939
-0.22918932
-0.23987635
-0.24165906
-0.23507911
-0.22162657
-0.20325116
-0.18187953
-0.15912421
-0.13627768
-0.11441356
-0.094325794
-0.076322745
-0.060136566
-0.045184065
-0.032597689
-0.022222613
-0.013731549
-0.0070281016
-0.0020370027
0.0017462897
-0.28315803
-0.14333332
-0.072206931
-0.11455481
-0.20134888
-0.4517131
-0.98057386
-1.931144
-3.0521801
-3.3244263
-2.4296358
-1.5682941
-1.1279873
-1.0862511
-1.0900412
-0.88033823
-0.55945985
-0.22463106
-0.019521579
-0.57817623
-0.84119021
-0.81981235
-0.54115443
-0.29032897
-0.051903341
0.092242512
0.16221203
0.18169974
0.14572048
0.085345969
0.019909161
-0.041278804
-0.091358392
-0.1293783
-0.16093426
-0.19021992
-0.21776147
-0.24095132
-0.25672944
-0.26321432
-0.26022024
-0.24893851
-0.23132471
-0.20951907
-0.18540262
-0.16056229
-0.13635477
-0.11384352
-0.093453622
-0.074942907
-0.057448854
-0.042681414
-0.030269029
-0.020098729
-0.011732907
-0.0051332717
-0.00018019924
0.0035683731
-0.49697581
-0.22074564
-0.091163442
-0.020835068
-0.060807395
-0.14281561
-0.3785972
-0.87064361
-1.7511729
-2.8461179
-3.1143685
-2.2806435
-1.5423956
-1.1935334
-1.2432765
-1.2760927
-1.0095035
-0.61958187
-0.24134512
-0.028782829
-0.76289876
-0.78966657
-0.57755205
-0.3460879
-0.1515814
0.002643951
0.090685198
0.15870718
0.14012689
0.082887508
0.015443545
-0.049317023
-0.10068711
-0.13803166
-0.16684022
-0.19466878
-0.22348438
-0.2507266
-0.27201236
-0.28407888
-0.28569955
-0.27754895
-0.26146784
-0.23975458
-0.21458503
-0.18784922
-0.16125564
-0.13617851
-0.11323516
-0.092151951
-0.071861871
-0.05457385
-0.040032009
-0.027889184
-0.017906876
-0.0096753119
-0.0031844621
0.0017248059
0.0054339823
-0.66028128
-0.40268108
-0.15605103
-0.036380369
0.024073004
-0.010129527
-0.087347032
-0.30095658
-0.74563166
-1.5494578
-2.5982909
-2.8526967
-2.1176521
-1.5059429
-1.2669848
-1.4146958
-1.4751345
-1.139637
-0.67204091
-0.2538622
-0.038426689
-0.71978906
-0.57356822
-0.35955651
-0.24341481
-0.098786645
-0.0060018152
0.10040705
0.13914987
0.081189559
0.0075555253
-0.060506315
-0.11579733
-0.15084407
-0.1753231
-0.19914242
-0.22747446
-0.2579347
-0.28499603
-0.30353525
-0.31093625
-0.30704806
-0.29346993
-0.2725486
-0.24675563
-0.2183248
-0.18935592
-0.16161154
-0.13593254
-0.11205906
-0.088599035
-0.068528773
-0.051522723
-0.037338119
-0.025437449
-0.015653619
-0.0075610354
-0.0011850763
0.0036755212
0.0073416373
-0.62062265
-0.54114185
-0.30378038
-0.08996198
0.018093325
0.061854817
0.033575607
-0.036428576
-0.22218214
-0.61313155
-1.3390507
-2.3386852
-2.5868454
-1.9409969
-1.4609979
-1.3451016
-1.5938896
-1.6803011
-1.2658456
-0.71196995
-0.2590396
-0.047901785
-0.5275906
-0.3557747
-0.30507171
-0.19794892
-0.12634434
0.0056342553
0.11298392
0.090529513
0.0060548882
-0.077899165
-0.1348833
-0.17022244
-0.18743863
-0.20441813
-0.22953762
-0.26203538
-0.29482434
-0.3207247
-0.33519111
-0.3369163
-0.32699715
-0.30778128
-0.28195033
-0.25214188
-0.22089302
-0.19042142
-0.16185532
-0.13494564
-0.10794278
-0.084705729
-0.064984455
-0.048437462
-0.034568632
-0.022922575
-0.013341224
-0.0053943755
0.00086156753
0.0056699694
0.009289553
-0.45178281
-0.50527343
-0.4205052
-0.20686951
-0.025931909
0.066824238
0.094041801
0.069069319
0.011103888
-0.1425654
-0.48145144
-1.1632684
-2.0928148
-2.2903212
-1.7453028
-1.4088791
-1.4242899
-1.7763229
-1.8778481
-1.3771436
-0.73218254
-0.25517479
-0.054873982
-0.33579327
-0.32830588
-0.28891325
-0.252185
-0.11551933
0.051896283
0.086987656
0.017425578
-0.084080483
-0.1643172
-0.19483261
-0.20532127
-0.21133828
-0.22998714
-0.26224404
-0.30061216
-0.33462434
-0.35758059
-0.36646802
-0.36162166
-0.34523555
-0.32015303
-0.28942052
-0.25608431
-0.22289422
-0.1913194
-0.16114264
-0.13016168
-0.10336856
-0.080558843
-0.061421095
-0.045273387
-0.031734955
-0.020346427
-0.010975102
-0.0031793094
0.0029534297
0.0077073232
0.011274714
-0.29683284
-0.3604036
-0.38885535
-0.3053239
-0.12009938
0.031832775
0.10377073
0.11874069
0.099047233
0.056419374
-0.068183558
-0.38829516
-1.0210647
-1.8155943
-1.9661844
-1.5347594
-1.3500729
-1.5031796
-1.9525928
-2.050656
-1.4611575
-0.72707234
-0.24458013
-0.056488696
-0.31406114
-0.36535961
-0.38096353
-0.26368136
-0.043182808
0.061140187
0.023232929
-0.078932603
-0.18084308
-0.23337016
-0.22876904
-0.22126803
-0.22892393
-0.25844841
-0.30119701
-0.34411277
-0.37704602
-0.39488733
-0.39678331
-0.38458232
-0.3612744
-0.33023988
-0.29512899
-0.25930852
-0.22465719
-0.19099418
-0.15557247
-0.1247666
-0.098489824
-0.076413776
-0.057776415
-0.042045019
-0.028838192
-0.017715448
-0.0085600798
-0.00091731349
0.005091292
0.0097831962
0.01329518
-0.27683883
-0.24352755
-0.26567423
-0.27694178
-0.19794524
-0.045095492
0.079898712
0.13053427
0.13631404
0.12638634
0.096892922
-0.025234304
-0.31152319
-0.86583547
-1.5205081
-1.6319148
-1.3244008
-1.2833211
-1.5809022
-2.1062979
-2.1750587
-1.5057477
-0.69842422
-0.2286073
-0.054728926
-0.418641
-0.49877048
-0.4235473
-0.17458263
0.010165847
0.015346414
-0.072994734
-0.19488959
-0.26242515
-0.26641972
-0.23507316
-0.22666255
-0.24971173
-0.29548327
-0.34771917
-0.39240338
-0.42120103
-0.43179776
-0.4254377
-0.40511481
-0.37461433
-0.33819965
-0.29993861
-0.26220562
-0.22486889
-0.18450682
-0.1491941
-0.11900494
-0.09364127
-0.072185666
-0.054068581
-0.03875221
-0.02588581
-0.015035052
-0.0060969478
0.0013959161
0.0072668566
0.011894429
0.015348739
-0.44598728
-0.2369396
-0.18297968
-0.17238784
-0.17060132
-0.099226414
0.021631239
0.114406
0.14712847
0.15194738
0.15100614
0.1176826
0.013797102
-0.23409042
-0.7020313
-1.2217942
-1.3055961
-1.121359
-1.2110816
-1.6505194
-2.2166382
-2.2309642
-1.4992027
-0.64788357
-0.20732595
-0.052530891
-0.5844781
-0.57810592
-0.32521954
-0.065180234
-0.0096255876
-0.074117968
-0.20421302
-0.3070222
-0.30178174
-0.25884555
-0.22450279
-0.23534815
-0.28214152
-0.34430084
-0.40215046
-0.44431267
-0.46587468
-0.46728717
-0.45146641
-0.42251627
-0.38542391
-0.3450455
-0.30431065
-0.26315061
-0.21732182
-0.1769598
-0.14237342
-0.11331075
-0.088709019
-0.067897061
-0.050295484
-0.035403451
-0.022883772
-0.012304723
-0.0035765869
0.0037473696
0.0094763346
0.014037367
0.017433392
-0.62939747
-0.42374282
-0.19128742
-0.12191263
-0.090103135
-0.075317834
-0.018636872
0.0725142
0.13801535
0.15926871
0.16673646
0.16391117
0.1385845
0.051050268
-0.15364241
-0.53472444
-0.93065591
-0.99726123
-0.92532433
-1.1362891
-1.6976743
-2.2625515
-2.2011712
-1.4366228
-0.57772234
-0.18434295
-0.049667732
-0.71290974
-0.47826636
-0.17099052
-0.051836574
-0.087698481
-0.21548252
-0.35118386
-0.37405154
-0.28649041
-0.22451955
-0.21635789
-0.26036701
-0.33179726
-0.40514169
-0.46288627
-0.4981094
-0.50958449
-0.50001854
-0.47388967
-0.43688811
-0.39486409
-0.35131842
-0.30624316
-0.25439328
-0.20839636
-0.16887736
-0.13566826
-0.10753318
-0.083720798
-0.063542964
-0.046466422
-0.032005014
-0.019830019
-0.0095091605
-0.0010171864
0.0061322891
0.011715117
0.016209128
0.019546797
-0.81422531
-0.63903047
-0.35396516
-0.13959212
-0.067741052
-0.027547994
-0.0027409258
0.043572714
0.1080607
0.15234384
0.16856619
0.1757229
0.17746417
0.15729241
0.089460329
-0.072643354
-0.3685369
-0.65451556
-0.71404996
-0.74050066
-1.0577979
-1.7076045
-2.2288366
-2.0781834
-1.3242689
-0.50576813
-0.16225296
-0.046360705
-0.62424951
-0.29381425
-0.11032433
-0.11285431
-0.2374238
-0.4025305
-0.46268909
-0.36559799
-0.22851349
-0.19038214
-0.22999739
-0.3091903
-0.39909855
-0.47594595
-0.52747934
-0.55167846
-0.55046569
-0.52864751
-0.49272187
-0.44961781
-0.40356698
-0.35456212
-0.29611896
-0.2438546
-0.1988204
-0.16097088
-0.128881
-0.10170626
-0.078667513
-0.059133246
-0.042587611
-0.028552523
-0.016701166
-0.0066738491
0.0015755428
0.0085445973
0.013980478
0.018406656
0.021685491
-0.73783798
-0.863274
-0.61320567
-0.27653202
-0.094155835
-0.023908446
0.019171263
0.047980706
0.084308459
0.12824886
0.15899697
0.17575146
0.1847753
0.18877828
0.17649216
0.12750723
0.007135229
-0.20866958
-0.40440427
-0.46336876
-0.57211344
-0.97588712
-1.6645172
-2.1086801
-1.8671576
-1.1635187
-0.44414369
-0.14178256
-0.04268469
-0.41433721
-0.17908542
-0.14624553
-0.26558082
-0.46932328
-0.57963032
-0.48165839
-0.28604025
-0.1611476
-0.18634413
-0.27542006
-0.38330634
-0.48133052
-0.55328546
-0.59294796
-0.60245089
-0.58666767
-0.55300763
-0.50954891
-0.46139785
-0.4085286
-0.34291012
-0.28370648
-0.23252297
-0.18949507
-0.15298414
-0.12205332
-0.095815359
-0.073559249
-0.054673728
-0.038651633
-0.025012583
-0.013529913
-0.0038056304
0.0041941547
0.010981832
0.016269845
0.020624962
0.02384539
-0.50342125
-0.80117862
-0.84711635
-0.56761092
-0.21143384
-0.057612539
0.0095199505
0.051351703
0.079368649
0.10662925
0.13739587
0.1661676
0.18189383
0.19231197
0.20013153
0.1954583
0.16493517
0.083325214
-0.061284623
-0.18814287
-0.25140792
-0.4237312
-0.88867828
-1.5571833
-1.8991486
-1.5904274
-0.96387666
-0.38362633
-0.12250066
-0.038571249
-0.24211063
-0.18545725
-0.28977098
-0.54692649
-0.72065861
-0.64337655
-0.39578263
-0.16813319
-0.13116473
-0.2245903
-0.35590027
-0.47898098
-0.57371168
-0.63298161
-0.65573889