/*--------------------------------*- C++ -*----------------------------------*\
| =========                 |                                                 |
| \\      /  F ield         | OpenFOAM: The Open Source CFD Toolbox           |
|  \\    /   O peration     | Version:  v2012                                 |
|   \\  /    A nd           | Website:  www.openfoam.com                      |
|    \\/     M anipulation  |                                                 |
\*---------------------------------------------------------------------------*/
FoamFile
{
    version     2.0;
    format      ascii;
    class       surfaceScalarField;
    location    "94.5973634040841915";
    object      phi;
}
// * * * * * * * * * * * * * * * * * * * * * * * * * * * * * * * * * * * * * //

dimensions      [0 3 -1 0 0 0 0];
oriented        oriented;


internalField   nonuniform List<scalar> 
18180
(
0.0054252574
-3.4236369
0.010776622
-3.2019772
0.0051359716
-3.4327104
0.016139144
-2.9952159
0.010153531
-3.2107011
0.00459263
-3.4409718
0.021624478
-2.8021236
0.015054637
-3.0036052
0.0090729622
-3.218661
0.004080917
-3.4483712
0.027193707
-2.6218759
0.019964481
-2.8103425
0.01345402
-3.0113017
0.0080668027
-3.2258169
0.0035393186
-3.4548261
0.032829071
-2.4534939
0.024828185
-2.6298987
0.017854381
-2.8178722
0.011970229
-3.0182462
0.0070089579
-3.2320767
0.0030160123
-3.4603874
0.03842049
-2.2961283
0.02962838
-2.4613323
0.022252746
-2.6372362
0.015907483
-2.824692
0.010420273
-3.0243367
0.0059789639
-3.2374486
0.0025223323
-3.4650751
0.043867159
-2.1489888
0.034268957
-2.3037138
0.026657883
-2.4685076
0.019889249
-2.6439153
0.013877408
-2.8307087
0.008893145
-3.029568
0.0049882263
-3.2419644
0.0020722995
-3.4689851
0.049025092
-2.0113595
0.038644102
-2.1562228
0.031024626
-2.3107072
0.023964868
-2.4750987
0.017421637
-2.6498632
0.011841537
-2.8358707
0.00739742
-3.0339285
0.0040653162
-3.2456706
0.0016697726
-3.472168
0.053740487
-1.882526
0.042619648
-2.0181082
0.035301083
-2.1630066
0.028147377
-2.3172485
0.02113122
-2.4810365
0.014879809
-2.654988
0.0098069853
-2.8401551
0.0059803614
-3.0374611
0.0032295923
-3.2486408
0.001313621
-3.4747152
0.057824274
-1.7618932
0.046079965
-1.8886708
0.039404636
-2.0246132
0.032463406
-2.1695561
0.025068862
-2.3232641
0.01809308
-2.4861995
0.012265161
-2.6592403
0.0078492228
-2.8435728
0.0046880665
-3.0402305
0.0024927604
-3.2509501
0.0010013952
-3.4766769
0.0610705
-1.6489432
0.048884526
-1.7672903
0.043250077
-1.8948178
0.036929648
-2.0312107
0.029324368
-2.1757717
0.021566608
-2.3285471
0.014838644
-2.4904602
0.0096939474
-2.6625787
0.0060536485
-2.8461758
0.0035568573
-3.0423284
0.0018579059
-3.252686
0.00072922919
-3.4781324
0.063452227
-1.5434011
0.050893686
-1.6534498
0.04673561
-1.7729799
0.041559087
-1.9014898
0.033994353
-2.0377481
0.025419736
-2.1813153
0.017600204
-2.3328787
0.011543991
-2.4937399
0.0073151107
-2.6650303
0.004491446
-2.8480641
0.0026018872
-3.0438588
0.0013212813
-3.2539289
0.00049033094
-3.4791326
0.064956778
-1.4445304
0.051705135
-1.5466124
0.04969721
-1.6585191
0.046363047
-1.7797449
0.039200022
-1.9084868
0.029792063
-2.0437203
0.02065314
-2.185826
0.013430209
-2.3361054
0.0084586922
-2.4960331
0.0052587255
-2.6666957
0.003196283
-2.8493565
0.0018159558
-3.044922
0.00087370044
-3.2547635
0.00027205796
-3.4797317
0.065447873
-1.3519265
0.051076525
-1.4462026
0.05184105
-1.5507683
0.051326906
-1.665367
0.045072318
-1.7873412
0.03485829
-1.9150792
0.024123756
-2.0485533
0.015399995
-2.1890365
0.0094612542
-2.3381992
0.0058093788
-2.4974407
0.0035919214
-2.6677192
0.0021611093
-2.8501841
0.0011753517
-3.0455979
0.00050178244
-3.2552662
9.4821487e-05
-3.479993
0.064648819
-1.2651908
0.048753974
-1.3518057
0.053300577
-1.44958
0.05656163
-1.557814
0.051755549
-1.6737118
0.040819289
-1.794765
0.028176298
-1.9204201
0.017512704
-2.0518135
0.010296372
-2.1908834
0.0060752802
-2.3392818
0.003720681
-2.4981543
0.002309866
-2.6682708
0.0013491008
-2.8506462
0.00065097532
-3.0459521
0.00018953521
-3.2554827
-4.9792863e-05
-3.479977
0.06249997
-1.1840096
0.044602858
-1.2631432
0.053972974
-1.3543036
0.061861428
-1.4566205
0.059405191
-1.5670653
0.04791252
-1.6822087
0.03301123
-1.8008265
0.019851747
-1.9238281
0.010929549
-2.0533768
0.0059676106
-2.1915427
0.0034926956
-2.3396097
0.0021951407
-2.4983841
0.0013535771
-2.6684806
0.00070937749
-2.8508308
0.00021664078
-3.0460362
-7.4345599e-05
-3.2554518
-0.00016528468
-3.4797354
0.058969531
-1.1080378
0.038478222
-1.179891
0.053549391
-1.2644549
0.067205183
-1.3613194
0.068127426
-1.4668864
0.056388795
-1.5768882
0.038871228
-1.6892416
0.022525886
-1.8045057
0.011322879
-1.9250777
0.0053705004
-2.0534842
0.002789827
-2.1913613
0.0017304968
-2.339453
0.0011412168
-2.498309
0.00063991446
-2.6684533
0.000192136
-2.8507886
-0.00015474661
-3.0458927
-0.00032034873
-3.2551853
-0.00026938521
-3.4792999
0.054041473
-1.036952
0.030227199
-1.1016963
0.051772828
-1.1797624
0.072600737
-1.2714551
0.078025947
-1.3727051
0.06652388
-1.4783124
0.046035077
-1.5851759
0.025675636
-1.6933424
0.011434943
-1.8054121
0.0041380486
-1.9244872
0.0014574538
-2.0526307
0.00080629074
-2.1907194
0.00064683969
-2.3390476
0.0004246006
-2.4980553
8.8286807e-05
-2.6682483
-0.00024339107
-2.8505661
-0.00047163748
-3.0455729
-0.00052671326
-3.2547292
-0.00036006731
-3.4787041
0.047721785
-0.97044913
0.019722404
-1.0282617
0.048436922
-1.0999244
0.077963255
-1.1866636
0.089241435
-1.2841023
0.078602029
-1.3860198
0.054826419
-1.4881814
0.029478816
-1.5898826
0.011223411
-1.6938739
0.0020923284
-1.8039545
-0.0006967817
-1.922765
-0.00071734392
-2.0513615
-0.00019777133
-2.18993
3.2175996e-05
-2.3385492
-8.6560359e-05
-2.4976939
-0.0003679747
-2.667904
-0.00062724708
-2.8501715
-0.00075219738
-3.045095
-0.00070013976
-3.2541216
-0.0004367235
-3.4779778
0.040039732
-0.90824037
0.0068821598
-0.95933015
0.043361314
-1.0246698
0.083197234
-1.106632
0.10187435
-1.200673
0.092896406
-1.2995798
0.065599061
-1.3978263
0.034153164
-1.4937163
0.010650901
-1.5900103
-0.00098323237
-1.6913421
-0.0039209307
-1.8011168
-0.003021301
-1.9206776
-0.0014977982
-2.0500833
-0.00057893276
-2.1891594
-0.00034686023
-2.3380205
-0.00050608488
-2.4972435
-0.00076925895
-2.6674412
-0.00096365444
-2.8496394
-0.00099678514
-3.0444755
-0.00084484391
-3.2533943
-0.00051165689
-3.477139
0.031056401
-0.85004495
-0.0083304927
-0.89465829
0.036383223
-0.95375899
0.088192318
-1.0310737
0.1159798
-1.1220587
0.10966931
-1.2185763
0.078727025
-1.3136998
0.039959646
-1.4044538
0.009686046
-1.4934142
-0.0053413861
-1.5861594
-0.0085061823
-1.6871056
-0.0063180986
-1.7979978
-0.0033506613
-1.918813
-0.0014227258
-2.0490431
-0.00066471518
-2.1885073
-0.00063303377
-2.3374932
-0.00088319451
-2.496721
-0.0011338627
-2.6668684
-0.0012596127
-2.8489863
-0.0012059915
-3.0437428
-0.00097685194
-3.2525716
-0.0005637405
-3.4762203
0.020902293
-0.7955481
-0.025905864
-0.83401237
0.027364371
-0.88697247
0.092822861
-0.95973365
0.13156848
-1.0479286
0.12915061
-1.1426188
0.094594324
-1.2353954
0.047202165
-1.3217258
0.0083125699
-1.4037093
-0.011272779
-1.4879589
-0.014802901
-1.5801816
-0.010864676
-1.6827055
-0.0058839647
-1.7954213
-0.0025268881
-1.9174856
-0.0010158883
-2.0483149
-0.00070688328
-2.1879585
-0.00092686346
-2.3369505
-0.0012477393
-2.4961129
-0.0014652213
-2.6661905
-0.0015157176
-2.8482366
-0.0013809391
-3.0429262
-0.0010767429
-3.2516743
-0.00060500867
-3.4752445
0.0097893667
-0.74436211
-0.045772858
-0.77713924
0.016207821
-0.82411744
0.096968359
-0.89239699
0.14860796
-0.97798399
0.15152291
-1.0713294
0.11357994
-1.1625166
0.056221104
-1.245162
0.0065304325
-1.3205418
-0.019103183
-1.3963272
-0.023222402
-1.4798348
-0.016964922
-1.574206
-0.0092377431
-1.6792819
-0.0039037154
-1.7937964
-0.0013508239
-1.9167459
-0.00065879203
-2.0478316
-0.00084622462
-2.1874522
-0.0012625057
-2.3363481
-0.0016005935
-2.4954141
-0.0017588044
-2.6654203
-0.0017301749
-2.847406
-0.0015214064
-3.0420428
-0.0011555241
-3.2507221
-0.00063668448
-3.4742284
-0.0020110561
-0.69628712
-0.067702914
-0.72380882
0.0028796747
-0.76500372
0.10055367
-0.82891656
0.16707112
-0.91201553
0.17694089
-1.0043819
0.13605131
-1.0946739
0.067394436
-1.174403
0.0043609351
-1.2435622
-0.0291959
-1.3108727
-0.034229858
-1.3855955
-0.024963305
-1.471947
-0.013567437
-1.5697893
-0.0055602307
-1.6773561
-0.0015929163
-1.7931332
-0.0003915092
-1.9164518
-0.00055570789
-2.0474665
-0.0011249805
-2.186915
-0.0016313493
-2.3356612
-0.0019283777
-2.4946216
-0.0020080174
-2.664576
-0.0019023696
-2.8465167
-0.0016301457
-3.0411106
-0.0012147638
-3.2497347
-0.00065991822
-3.4731875
-0.014341046
-0.65142728
-0.091358506
-0.67393026
-0.012564183
-0.70949088
0.10357159
-0.76917057
0.18692387
-0.84986939
0.20553781
-0.94154559
0.16236335
-1.0315284
0.081175832
-1.1091348
0.0018764045
-1.1724616
-0.041942381
-1.2312168
-0.048343484
-1.2970175
-0.03524517
-1.3754158
-0.019036192
-1.4663822
-0.0074815017
-1.5675828
-0.0016310932
-1.6768874
0.00023183226
-1.7931853
5.974112e-05
-1.9163643
-0.00075480839
-2.0470803
-0.0015167075
-2.1862817
-0.0020027716
-2.3348691
-0.0022144001
-2.4937535
-0.002208312
-2.6636738
-0.0020340967
-2.8455859
-0.0017106913
-3.0401504
-0.0012574562
-3.2487251
-0.00067625033
-3.4721323
-0.026705237
-0.60951046
-0.11655218
-0.6274576
-0.030041493
-0.65751423
0.10597734
-0.71298132
0.20796168
-0.7912535
0.23726955
-0.88248874
0.19254798
-0.97252619
0.097908345
-1.0489074
-0.00072743833
-1.1070489
-0.057711049
-1.1570734
-0.066128967
-1.2136743
-0.048228912
-1.284131
-0.025811044
-1.3685428
-0.0096312753
-1.4639376
-0.0013290781
-1.5674436
0.0013692629
-1.6774491
0.0011459557
-1.7935424
-4.6783275e-05
-1.9162521
-0.001196783
-2.046571
-0.0019602339
-2.1855184
-0.0023414114
-2.3339834
-0.002445687
-2.4928193
-0.0023590384
-2.662733
-0.0021292254
-2.8446328
-0.001767376
-3.0391727
-0.0012866877
-3.2477052
-0.00068701372
-3.4710699
-0.039156391
-0.56806727
-0.14310439
-0.58411072
-0.049557737
-0.60894016
0.10759385
-0.66015226
0.22971842
-0.73572874
0.27163306
-0.8264603
0.22622575
-0.91692419
0.11703722
-0.99226963
-0.0036884108
-1.0464406
-0.076835108
-1.0882863
-0.088181475
-1.13525
-0.064353987
-1.197644
-0.034053204
-1.2757939
-0.011944944
-1.3659307
-0.00050579538
-1.4643104
0.0032402871
-1.5687397
0.002898629
-1.6784739
0.0011356428
-1.7938713
-0.00059500583
-1.9159592
-0.0017695902
-2.0458787
-0.002387809
-2.1846216
-0.0026187284
-2.3330147
-0.0026162193
-2.4918442
-0.0024635113
-2.6617711
-0.0021931679
-2.8436706
-0.0018047329
-3.0381903
-0.0013052704
-3.2466821
-0.00069338656
-3.4700074
-0.05191214
-0.52681022
-0.16977612
-0.54247961
-0.071159935
-0.56344701
0.10822094
-0.61052709
0.25167304
-0.68304398
0.30804898
-0.77294503
0.26307403
-0.8640283
0.13786697
-0.93833731
-0.0084134847
-0.98801611
-0.10032348
-1.0232961
-0.11512841
-1.0615559
-0.084096404
-1.1156016
-0.043905363
-1.1877038
-0.014316785
-1.2731262
0.0010599483
-1.3670408
0.0060884787
-1.4665848
0.0055389121
-1.5706627
0.0029623144
-1.679428
0.00038841073
-1.7938976
-0.0013938075
-1.9153757
-0.0023527408
-2.0449778
-0.0027441362
-2.1836066
-0.0028185519
-2.3319908
-0.0027272266
-2.4908464
-0.0025280412
-2.6608086
-0.0022320066
-2.8427105
-0.0018270621
-3.0372106
-0.0013156243
-3.2456636
-0.00069633217
-3.4689462
-0.064463839
-0.48744366
-0.19534927
-0.50225557
-0.093404203
-0.52111595
0.10793632
-0.56406246
0.27344273
-0.63318151
0.34620457
-0.72195833
0.303824
-0.81437731
0.16211223
-0.88882648
-0.015322851
-0.93187778
-0.13006293
-0.95860399
-0.14780979
-0.99081951
-0.10798386
-1.0377626
-0.055525901
-1.1039023
-0.016594255
-1.1851373
0.0036185981
-1.2752285
0.010181897
-1.3705618
0.0093235896
-1.469665
0.0056319443
-1.5724614
0.0018700582
-1.679917
-0.00078769246
-1.7934845
-0.0022411054
-1.9144766
-0.0028471763
-2.0438946
-0.0029955544
-2.182506
-0.0029378335
-2.3309391
-0.002785691
-2.4898537
-0.0025605703
-2.659855
-0.0022517494
-2.8417621
-0.0018380991
-3.0362413
-0.0013197093
-3.24465
-0.00069660808
-3.4678893
-0.082352987
-0.52936016
-0.21952977
-0.46421848
-0.11462006
-0.48186516
0.10674366
-0.52076577
0.29473528
-0.58618891
0.38594115
-0.67363635
0.34958575
-0.76836584
0.193898
-0.84668626
-0.01892634
-0.88565179
-0.16540278
-0.89685004
-0.187098
-0.91950959
-0.13600426
-0.96289361
-0.069105109
-1.024115
-0.018595347
-1.1016224
0.0074622506
-1.1885287
0.015828971
-1.2803078
0.014536223
-1.3750867
0.009373635
-1.4725595
0.0039949464
-1.5735965
0.00010191598
-1.6797497
-0.0020633696
-1.792584
-0.0029684579
-1.9132915
-0.0031906594
-2.0426785
-0.0031314805
-2.1813679
-0.0029841754
-2.3298955
-0.0028020936
-2.4888769
-0.0025694004
-2.6589219
-0.00225775
-2.8408311
-0.0018409006
-3.0352833
-0.0013190435
-3.2436449
-0.00069479826
-3.4668411
-0.099108687
-0.52128179
-0.2487784
-0.50115732
-0.13459287
-0.44501832
0.10457421
-0.48048294
0.31530813
-0.54212324
0.42694937
-0.62787611
0.40058186
-0.72524254
0.23584629
-0.81080873
-0.012332563
-0.85368826
-0.20062889
-0.85072346
-0.23263232
-0.85149938
-0.16724192
-0.88836637
-0.084151024
-0.94779054
-0.02012983
-1.022314
0.012935198
-1.1066501
0.023338985
-1.1954789
0.021463757
-1.2865651
0.014439326
-1.3793348
0.0069269339
-1.4745216
0.0013362317
-1.5737469
-0.0018358184
-1.6788337
-0.0031653574
-1.7912427
-0.0034688233
-1.9119004
-0.0033604688
-2.0414063
-0.0031603461
-2.1802402
-0.0029720927
-2.3288814
-0.0027882113
-2.4879323
-0.0025621796
-2.6580142
-0.00225446
-2.8399217
-0.0018378375
-3.0343395
-0.0013147747
-3.2426516
-0.0006913563
-3.4658046
-0.11478631
-0.51139573
-0.27632405
-0.49478268
-0.16177067
-0.47481736
0.10210434
-0.44328307
0.33485048
-0.50076215
0.46869274
-0.58450762
0.45604358
-0.68391315
0.28746792
-0.7773314
0.0066115982
-0.83014084
-0.23042298
-0.82417813
-0.28392604
-0.79960389
-0.20268212
-0.81615266
-0.098943204
-0.87352764
-0.02068622
-0.94698127
0.020392167
-1.0293353
0.03300721
-1.1157697
0.030388649
-1.2037531
0.021091424
-1.2924311
0.010852723
-1.3823199
0.00298784
-1.4750869
-0.0015851987
-1.5728103
-0.0035161493
-1.6772628
-0.0039191137
-1.7895913
-0.0037008891
-1.9104186
-0.0033667106
-2.0401426
-0.0031031375
-2.1791593
-0.0029191468
-2.3279131
-0.0027552707
-2.487025
-0.0025454104
-2.6571389
-0.0022453533
-2.8390338
-0.0018306854
-3.0334121
-0.0013077748
-3.241673
-0.00068664647
-3.4647802
-0.12943895
-0.4998173
-0.30221514
-0.48655118
-0.18704905
-0.47034325
0.089338208
-0.46283888
0.35345011
-0.4625732
0.51058764
-0.54326144
0.51475654
-0.64376223
0.34672247
-0.74360881
0.036292508
-0.80738036
-0.2536002
-0.80723382
-0.33991312
-0.76835617
-0.24657328
-0.75580425
-0.11391394
-0.80114537
-0.018790185
-0.87518576
0.030236755
-0.95640162
0.045119464
-1.0409124
0.041568773
-1.1263208
0.029596039
-1.2115026
0.015979598
-1.2966513
0.0051427286
-1.3834077
-0.0013436506
-1.4741205
-0.0041229257
-1.5709201
-0.0046602418
-1.6752491
-0.0042552781
-1.7878113
-0.0036783192
-1.9089461
-0.0032411963
-2.0389479
-0.0029866876
-2.1781462
-0.0028418309
-2.3270011
-0.0027130372
-2.4861626
-0.0025242227
-2.6562932
-0.0022330067
-2.838169
-0.0018207574
-3.032502
-0.0012987297
-3.240709
-0.00068097398
-3.463767
-0.14313377
-0.48683605
-0.32653166
-0.4765471
-0.21016337
-0.46427541
0.077565602
-0.45935854
0.36062608
-0.4707531
0.55206356
-0.50461818
0.57547889
-0.60449291
0.41122747
-0.70868326
0.074499567
-0.78216444
-0.27051059
-0.79072636
-0.39827712
-0.74902619
-0.30258823
-0.71242988
-0.13440188
-0.73528869
-0.01340034
-0.80631315
0.043186131
-0.8877243
0.059885311
-0.97064725
0.055205011
-1.0539429
0.040205679
-1.1362063
0.022535138
-1.2171864
0.0079020954
-1.2983683
-0.0011501311
-1.3823873
-0.0051129506
-1.4718055
-0.00584408
-1.5684103
-0.0051578252
-1.6730536
-0.0041945125
-1.7860428
-0.0034511973
-1.9075765
-0.0030259893
-2.0378578
-0.0028373257
-2.1772193
-0.0027555352
-2.3261522
-0.0026692502
-2.4853413
-0.0025023786
-2.6554778
-0.0022192629
-2.837325
-0.0018090399
-3.0316099
-0.0012882044
-3.2397596
-0.00067460563
-3.4627733
-0.15593136
-0.47283522
-0.34941008
-0.46500348
-0.23099009
-0.45655742
0.067056116
-0.45455298
0.3686668
-0.46814386
0.58453632
-0.50383294
0.63715843
-0.56677532
0.47836171
-0.67201908
0.11908611
-0.75359923
-0.28126041
-0.77165706
-0.45598575
-0.73316551
-0.36884553
-0.68285373
-0.16549757
-0.68131444
-0.0075131949
-0.74097015
0.060293861
-0.82302471
0.077455389
-0.90479019
0.07144298
-0.98630402
0.053145497
-1.0661898
0.030761761
-1.1435968
0.01139327
-1.2196652
-0.0010408896
-1.2972774
-0.0066382747
-1.3795279
-0.007659783
-1.4686332
-0.0065777886
-1.5656633
-0.0050425683
-1.6708984
-0.0038169318
-1.7844237
-0.0030866819
-1.9063616
-0.0027640387
-2.0368985
-0.0026792139
-2.1763843
-0.0026720294
-2.3253658
-0.0026296418
-2.4845606
-0.002482454
-2.6546885
-0.0022054158
-2.8365033
-0.0017962921
-3.0307351
-0.0012766872
-3.2388303
-0.00066777962
-3.4617995
-0.16786007
-0.45820691
-0.37100945
-0.45228098
-0.24958248
-0.44724568
0.058039648
-0.4483262
0.37751215
-0.46414775
0.61890267
-0.50312702
0.69716721
-0.56434626
0.54573821
-0.63452086
0.16761554
-0.72085916
-0.28598623
-0.74910189
-0.51109215
-0.71669
-0.4405108
-0.66158051
-0.20827926
-0.64005889
-0.006044192
-0.68259417
0.081716521
-0.76201242
0.098086149
-0.84316806
0.090296686
-0.92308775
0.068598295
-1.0010954
0.040918903
-1.0755479
0.01577014
-1.1469975
-0.0010531314
-1.2184819
-0.0088762153
-1.2937262
-0.010336248
-1.3755012
-0.0087234689
-1.4651649
-0.0063794719
-1.5629991
-0.0044428343
-1.6689429
-0.0032298867
-1.7830277
-0.0026533598
-1.9053384
-0.0024933066
-2.0360707
-0.0025310891
-2.1756395
-0.0026012296
-2.3246334
-0.0025979202
-2.4838149
-0.0024661112
-2.6539246
-0.0021923583
-2.8357001
-0.0017831225
-3.0298795
-0.0012646101
-3.2379208
-0.00066070666
-3.4608458
-0.17890766
-0.44333858
-0.3914593
-0.43880124
-0.26619942
-0.43649532
0.050630848
-0.4406195
0.38709356
-0.45866084
0.65461952
-0.50048979
0.76023047
-0.56670324
0.62287497
-0.6418723
0.21660339
-0.68380126
-0.28481356
-0.72224649
-0.56259807
-0.69772705
-0.51377834
-0.64349766
-0.26188872
-0.60796304
-0.013509595
-0.6324205
0.10434114
-0.70485494
0.12209222
-0.78554835
0.11165283
-0.86399376
0.086685564
-0.94054521
0.053277365
-1.0126927
0.021224988
-1.080068
-0.0012032842
-1.1457138
-0.012024844
-1.2140572
-0.014145394
-1.2885945
-0.011845272
-1.3710648
-0.0083938975
-1.4618155
-0.0054532507
-1.5606159
-0.003528838
-1.6673075
-0.0025420328
-1.7819034
-0.0022111984
-1.904504
-0.0022435773
-2.0353722
-0.0024075356
-2.1749715
-0.0025479203
-2.3239494
-0.0025762495
-2.4830997
-0.0024543173
-2.6531804
-0.0021807022
-2.8349151
-0.0017700266
-3.0290414
-0.001252351
-3.2370315
-0.00065356766
-3.4599081
-0.18903817
-0.42861652
-0.41083222
-0.42500865
-0.28126996
-0.42455797
0.044766086
-0.43140989
0.39738144
-0.4516634
0.69109082
-0.49576439
0.82514257
-0.56592198
0.70408319
-0.64831101
0.28933959
-0.71491548
-0.27847711
-0.69033875
-0.60928407
-0.67568353
-0.58589839
-0.62567699
-0.32398248
-0.58139978
-0.031339869
-0.58997553
0.12427925
-0.65201198
0.14921549
-0.7315257
0.13535429
-0.8087453
0.10744519
-0.88415481
0.068118907
-0.95466381
0.027995247
-1.0185737
-0.0014829223
-1.0786972
-0.016298866
-1.1402059
-0.019400558
-1.2075164
-0.016238174
-1.2829074
-0.011306705
-1.3668281
-0.0069917221
-1.4588897
-0.0040660162
-1.5586766
-0.0024703075
-1.6660446
-0.0018466784
-1.7810508
-0.0018064895
-1.9038575
-0.0020356446
-2.0347852
-0.0023161409
-2.1743719
-0.0025148339
-2.3233044
-0.0025656135
-2.4824076
-0.0024475316
-2.6524532
-0.0021708518
-2.8341443
-0.0017574036
-3.0282215
-0.0012402276
-3.2361595
-0.00064650966
-3.4589885
-0.41443087
-0.19822275
-0.42915879
-0.41133149
-0.29533436
-0.41176696
0.040165926
-0.42073323
0.40835463
-0.44314091
0.72776885
-0.48897944
0.89111859
-0.56226662
0.78801954
-0.65026724
0.36751196
-0.72679981
-0.239683
-0.75391928
-0.64915559
-0.65058305
-0.65509596
-0.60655072
-0.39135601
-0.55830204
-0.058469463
-0.55412769
0.13902611
-0.60439348
0.17858168
-0.68094363
0.16133451
-0.75702741
0.13079787
-0.83153028
0.085728179
-0.9010786
0.036373099
-0.9622001
-0.0018540118
-1.0171573
-0.021927419
-1.0718785
-0.026460359
-1.1319041
-0.022244214
-1.2002501
-0.015371323
-1.2775277
-0.0092176468
-1.363192
-0.0049295497
-1.4565691
-0.002479315
-1.5572476
-0.0014103457
-1.665165
-0.0012141312
-1.7804583
-0.001470414
-1.9033682
-0.0018818666
-2.0342956
-0.0022607801
-2.1738263
-0.0025030143
-2.322691
-0.0025661288
-2.4817332
-0.0024458477
-2.6517381
-0.0021630458
-2.8333884
-0.0017455541
-3.0274176
-0.00122849
-3.2353049
-0.00063964199
-3.4580843
-0.39814777
-0.44648174
-0.40128935
-0.20635835
-0.30898919
-0.39849433
0.036336294
-0.40870838
0.41996813
-0.43310536
0.76419724
-0.48021177
0.95741837
-0.55581052
0.87405519
-0.64871953
0.45153917
-0.73461909
-0.19129563
-0.77540464
-0.6665199
-0.73667719
-0.71982964
-0.58590979
-0.46100956
-0.53689745
-0.093529156
-0.52311338
0.14749669
-0.56228737
0.20799848
-0.63339422
0.18931093
-0.70846723
0.1566111
-0.78230326
0.10637756
-0.85153073
0.046704098
-0.91061721
-0.0022403856
-0.96081707
-0.029139338
-1.0087997
-0.035724352
-1.061414
-0.03025472
-1.1226611
-0.020872382
-1.1934322
-0.012303554
-1.2729997
-0.0062069401
-1.3604147
-0.0026030974
-1.4549661
-0.00090783082
-1.5563443
-0.00045406677
-1.6646358
-0.00069148891
-1.7800875
-0.001220901
-1.9030125
-0.0017877675
-2.033878
-0.0022423255
-2.1733219
-0.0025120259
-2.3220966
-0.0025772847
-2.481071
-0.0024490883
-2.6510329
-0.0021573777
-2.8326434
-0.0017346807
-3.0266277
-0.0012173116
-3.2344649
-0.00063303404
-3.4571906
-0.38509703
-0.32285215
-0.38603112
-0.4627779
-0.38935224
-0.2136275
0.032598896
-0.39552325
0.43210172
-0.42160038
0.80010627
-0.46966003
1.0235159
-0.54684459
0.96165059
-0.64383036
0.5408257
-0.73833735
-0.13513821
-0.79100043
-0.67215005
-0.76990526
-0.78519985
-0.67137139
-0.53068549
-0.51623537
-0.13454087
-0.49576889
0.14923052
-0.52455434
0.23522344
-0.58911516
0.21911872
-0.66277442
0.18477149
-0.73611988
0.13031904
-0.80563096
0.059400906
-0.86348437
-0.0025244833
-0.90938672
-0.038153689
-0.95070234
-0.047632747
-0.99573185
-0.040710532
-1.0497551
-0.028125487
-1.1141024
-0.016428907
-1.187853
-0.0079803207
-1.2696998
-0.0028630922
-1.3586451
-0.00033118779
-1.4540803
0.0004915837
-1.5559078
0.00032642291
-1.6644047
-0.00030225335
-1.7798927
-0.001065288
-1.9027522
-0.0017536027
-2.0335143
-0.0022592526
-2.1728412
-0.0025403313
-2.3215151
-0.0025981336
-2.4804149
-0.0024568668
-2.650333
-0.0021538117
-2.8319078
-0.0017248803
-3.025849
-0.0012067868
-3.2336346
-0.00062671816
-3.456303
-0.38141929
0.028159845
-0.37205215
-0.33763761
-0.37472711
-0.47843877
-0.37901775
-0.22024201
0.44455927
-0.40873797
0.83538233
-0.45752389
1.0888625
-0.53554486
1.0501809
-0.63580534
0.63534727
-0.73868827
-0.072766085
-0.80093839
-0.66846683
-0.79482278
-0.84179585
-0.71338116
-0.62701611
-0.57504552
-0.17988838
-0.47078131
0.14450958
-0.49077315
0.25925648
-0.54820956
0.25006648
-0.6196602
0.21512221
-0.69264609
0.1577864
-0.76300718
0.074974469
-0.82050983
-0.0025411059
-0.86257216
-0.049189176
-0.89729717
-0.062661422
-0.93455837
-0.054102299
-0.98117075
-0.037472328
-1.0391255
-0.021775004
-1.1073138
-0.0103181
-1.1839782
-0.0032643416
-1.2677777
0.00034722326
-1.3578407
0.0016728863
-1.4538127
0.0016375226
-1.55587
0.00091427798
-1.664406
-5.5886553e-05
-1.7798276
-0.0010024819
-1.902564
-0.0017759131
-2.0331813
-0.0023083437
-2.1723741
-0.0025857085
-2.3209369
-0.0026274352
-2.47976
-0.0024686382
-2.6496361
-0.0021521874
-2.8311775
-0.0017161477
-3.0250772
-0.0011969373
-3.2328108
-0.00062069416
-3.4554216
-0.39466542
0.45705046
-0.36639687
0.021748427
-0.35929658
-0.35386864
-0.36456479
-0.49392505
-0.3705807
-0.22651753
0.86996751
-0.44397099
1.1527997
-0.52200116
1.1382964
-0.62409547
0.73439113
-0.73518909
-0.005606097
-0.80608085
-0.65696608
-0.81258575
-0.8897196
-0.74697864
-0.72083516
-0.61957221
-0.26788646
-0.48694445
0.1343191
-0.46033411
0.27929859
-0.51045725
0.28142003
-0.57918407
0.247614
-0.65170018
0.18907305
-0.72338488
0.094136336
-0.78152113
-0.0019976944
-0.82020813
-0.062445091
-0.84830899
-0.081314998
-0.87757538
-0.07097295
-0.91655728
-0.049279652
-0.96811311
-0.028515762
-1.0309755
-0.01326513
-1.1028491
-0.0037827942
-1.1819466
0.0011879059
-1.2671449
0.0031454637
-1.3578426
0.0032866183
-1.4540334
0.0024789356
-1.5561158
0.0012864007
-1.6645752
5.1619406e-05
-1.7798499
-0.0010258594
-1.9024145
-0.0018488351
-2.0328641
-0.0023854
-2.171909
-0.0026455437
-2.3203572
-0.002663764
-2.4791018
-0.0024837284
-2.6489385
-0.0021522336
-2.8304506
-0.0017083858
-3.0243107
-0.0011877237
-3.2319915
-0.00061493757
-3.4545447
-0.4291675
0.9038228
-0.37851315
0.46841472
-0.35130691
0.013007804
-0.34699631
-0.37223143
-0.3556561
-0.50988045
-0.36413487
-0.23296102
1.2146336
-0.50634558
1.224593
-0.60873635
0.83587777
-0.72592413
0.064491859
-0.80552195
-0.64025632
-0.82294363
-0.92929108
-0.77310094
-0.80885341
-0.65897582
-0.36385978
-0.52349912
0.086107638
-0.43847956
0.2954813
-0.47618053
0.31248202
-0.54116229
0.28186205
-0.61300633
0.22399854
-0.68610819
0.11767386
-0.7463188
-0.000242715
-0.78248044
-0.077973806
-0.80371885
-0.10411586
-0.82448973
-0.091909392
-0.8555549
-0.063931992
-0.90069735
-0.036809439
-0.95846245
-0.016836823
-1.0259394
-0.004360549
-1.1007952
0.0022700341
-1.1815816
0.0049933162
-1.2675237
0.0053530584
-1.3584272
0.004455411
-1.4545963
0.0030128534
-1.5565639
0.0014555592
-1.6648496
3.2315425e-05
-1.7799246
-0.0011254731
-1.9022816
-0.0019651759
-2.032545
-0.0024857183
-2.1714369
-0.0027170263
-2.3197671
-0.0027055852
-2.4784375
-0.0025013683
-2.6482381
-0.0021535891
-2.8297243
-0.0017014275
-3.023545
-0.0011790604
-3.231175
-0.00060939926
-3.4536684
-0.48884964
1.2737754
-0.41121204
0.93587718
-0.36269972
0.47905917
-0.33593055
0.0011963175
-0.33518142
-0.39349417
-0.3478862
-0.52715736
-0.35953222
-0.24031685
1.3078904
-0.59008376
0.93760625
-0.7108076
0.13676082
-0.79842913
-0.6208021
-0.82513447
-0.96206116
-0.79026647
-0.88862054
-0.69335394
-0.46292681
-0.55981198
0.026411499
-0.46354881
0.2878614
-0.43052863
0.34264198
-0.50600584
0.31679231
-0.57569167
0.26045916
-0.6489788
0.14464782
-0.71252089
0.0030326014
-0.74884613
-0.095432238
-0.76410761
-0.13154378
-0.77532386
-0.11754405
-0.7978225
-0.081820886
-0.836507
-0.046786176
-0.88942239
-0.021004023
-0.95289705
-0.0049009257
-1.0239715
0.0037178787
-1.1008065
0.0073342331
-1.1824387
0.0079340363
-1.2685834
0.0069219152
-1.3594023
0.0051871043
-1.4553913
0.0032599497
-1.5571365
0.00144365
-1.6651857
-9.7824613e-05
-1.7800123
-0.001289633
-1.9021418
-0.0021171702
-2.0322125
-0.0026044265
-2.170948
-0.002797292
-2.3191644
-0.0027513151
-2.4777633
-0.0025207284
-2.6475322
-0.0021558356
-2.8289954
-0.0016950578
-3.022779
-0.0011708125
-3.2303571
-0.00060400428
-3.4527896
-0.56850367
1.3871029
-0.46671924
1.3287436
-0.39472386
0.96726043
-0.34623912
0.48862409
-0.32039289
-0.014332635
-0.32381363
-0.41834833
-0.34095846
-0.54675672
-0.35670865
-0.24948793
1.0373941
-0.69021387
0.20972208
-0.78400501
-0.59972854
-0.81966501
-0.98907177
-0.79822219
-0.95793689
-0.72097427
-0.56163091
-0.59455579
-0.041973385
-0.49117313
0.27163114
-0.44698552
0.36067663
-0.44823491
0.35122522
-0.54006198
0.29573034
-0.61050305
0.170302
-0.6741108
0.0056661732
-0.71445223
-0.11550501
-0.72790456
-0.16392815
-0.73080777
-0.14863498
-0.74325479
-0.10333992
-0.775196
-0.058530131
-0.82352237
-0.025687911
-0.88340246
-0.0052569321
-0.9511571
0.0056860085
-1.0245086
0.010312703
-1.1022815
0.011152879
-1.1841017
0.0099720129
-1.2700836
0.0078802313
-1.3606289
0.0055215292
-1.4563181
0.0032556518
-1.5577719
0.0012767153
-1.6655317
-0.00032028255
-1.7800897
-0.0015061935
-1.9019812
-0.0022969792
-2.0318545
-0.0027367137
-2.1704371
-0.0028835261
-2.318544
-0.0027993821
-2.4770773
-0.0025409678
-2.6468192
-0.0021585279
-2.8282616
-0.0016890121
-3.0220083
-0.0011627952
-3.2295362
-0.00059866176
-3.451909
-0.66442005
1.1329698
-0.5407681
1.4607104
-0.44669917
1.380182
-0.37772685
0.99811236
-0.32935915
0.49685242
-0.3048525
-0.034028759
-0.31291035
-0.44717135
-0.33485415
-0.56963407
-0.3555903
-0.26127132
0.28173604
-0.7624633
-0.57829264
-0.80560598
-1.0117436
-0.79709573
-1.0159505
-0.74023612
-0.65633523
-0.62617834
-0.11673882
-0.51953745
0.24566832
-0.46487749
0.37527642
-0.46125339
0.37924473
-0.47588575
0.32731069
-0.57121134
0.19180065
-0.63151446
0.0028157214
-0.67060177
-0.14308821
-0.68604463
-0.20226143
-0.68870695
-0.18621493
-0.69230522
-0.12900847
-0.71653148
-0.072073767
-0.76046723
-0.030739719
-0.81719173
-0.0052368808
-0.88208192
0.0083679754
-0.95242783
0.014106874
-1.0267883
0.015153131
-1.1046891
0.01371557
-1.1862553
0.011170841
-1.2718444
0.008298839
-1.3619797
0.0055157581
-1.4573003
0.0030402664
-1.5584104
0.00098208843
-1.6658579
-0.00061659752
-1.7801323
-0.0017631655
-1.9017842
-0.0024970537
-2.031464
-0.0028779926
-2.1699
-0.0029730514
-2.3179051
-0.0028482891
-2.4763776
-0.0025612718
-2.6460968
-0.0021611896
-2.8275205
-0.0016829667
-3.0212333
-0.0011548085
-3.2287116
-0.00059328403
-3.4510258
-0.73382814
0.35090992
-0.6315153
1.2233789
-0.51430154
1.527873
-0.42600467
1.4279261
-0.36049761
1.0286214
-0.31232205
0.50359064
-0.28964592
-0.058022758
-0.30271894
-0.48007451
-0.3298415
-0.59640293
-0.3560794
-0.27643515
-0.55774887
-0.78317355
-1.030955
-0.7864996
-1.0631311
-0.74994552
-0.7432514
-0.65323029
-0.19561987
-0.54704598
0.21075229
-0.48428948
0.38435837
-0.4736262
0.40662801
-0.4882625
0.36236371
-0.51052008
0.20525366
-0.58420956
-0.012672971
-0.61540893
-0.18395905
-0.6289505
-0.24996513
-0.6375264
-0.23056029
-0.64349384
-0.1597223
-0.66058957
-0.087434081
-0.7000401
-0.035945183
-0.75403769
-0.0045914211
-0.81654125
0.011993802
-0.88432313
0.018919497
-0.95572611
0.020102507
-1.0301187
0.018275291
-1.1076323
0.015144023
-1.1886603
0.011650031
-1.2736968
0.0082683608
-1.3633598
0.0052316695
-1.4582673
0.0026549114
-1.5590141
0.00058784605
-1.6661367
-0.0009694696
-1.7801293
-0.0020492896
-1.9015405