/*--------------------------------*- C++ -*----------------------------------*\
| =========                 |                                                 |
| \\      /  F ield         | OpenFOAM: The Open Source CFD Toolbox           |
|  \\    /   O peration     | Version:  v2012                                 |
|   \\  /    A nd           | Website:  www.openfoam.com                      |
|    \\/     M anipulation  |                                                 |
\*---------------------------------------------------------------------------*/
FoamFile
{
    version     2.0;
    format      ascii;
    class       volVectorField;
    location    "94.5973634040841915";
    object      U;
}
// * * * * * * * * * * * * * * * * * * * * * * * * * * * * * * * * * * * * * //

dimensions      [0 1 -1 0 0 0 0];


internalField   nonuniform List<vector> 
9200
(
(2.549698 -0.0019819212 -2.1307109e-22)
(2.5499019 -0.0061889412 1.0855273e-22)
(2.5559991 -0.0020046627 -1.7847932e-23)
(2.5504765 -0.010093572 2.7115148e-22)
(2.5565397 -0.0060849966 1.0665763e-23)
(2.5588945 -0.0018837447 -1.0029856e-22)
(2.5511913 -0.014370046 -2.1432141e-22)
(2.5575219 -0.0098428763 -6.6960146e-22)
(2.5595363 -0.0056586232 -5.2455482e-24)
(2.5623321 -0.0017481079 1.019001e-22)
(2.5522338 -0.018440832 8.6683936e-23)
(2.5588485 -0.013892492 -6.5386523e-23)
(2.5606162 -0.0091419561 2.8240185e-22)
(2.5631282 -0.005236109 -1.3351472e-22)
(2.565134 -0.001574625 4.2024007e-22)
(2.5535059 -0.022797633 2.0943273e-23)
(2.5604787 -0.017617795 5.9487998e-22)
(2.5621211 -0.012921604 4.1256404e-22)
(2.5643828 -0.0084515623 -5.2193935e-23)
(2.5660572 -0.0047331863 7.8962896e-22)
(2.5675984 -0.0013856002 -5.8139709e-22)
(2.5550747 -0.027008489 5.6283819e-22)
(2.5623473 -0.021545442 5.4831308e-22)
(2.563906 -0.016398544 -1.5226755e-22)
(2.5661853 -0.01196901 -4.4008201e-22)
(2.5674537 -0.0076404579 0)
(2.5686475 -0.0042082118 6.6563044e-22)
(2.5696624 -0.0011898772 -7.557246e-22)
(2.5569064 -0.031242512 4.3481078e-22)
(2.5643656 -0.025224531 6.1048406e-22)
(2.5659257 -0.020117794 1.6399423e-23)
(2.5682839 -0.015210785 -1.0259627e-21)
(2.5695049 -0.010851357 -1.1427514e-21)
(2.5701831 -0.0067776365 9.6859281e-22)
(2.5708157 -0.0036749269 -2.9260138e-23)
(2.5713751 -0.00099673285 4.4893583e-22)
(2.5590251 -0.035265751 -1.0479503e-22)
(2.5664598 -0.028839855 -3.7628036e-22)
(2.5680339 -0.023664382 -5.307118e-24)
(2.5706726 -0.018744556 2.1903378e-21)
(2.5719 -0.013820451 1.4266667e-21)
(2.5724687 -0.0096396705 7.4683232e-22)
(2.572461 -0.005868729 -7.0162181e-22)
(2.572597 -0.003155757 -7.4388386e-22)
(2.5727672 -0.00081107823 6.1408451e-22)
(2.5613687 -0.039014061 -5.6863866e-23)
(2.5685422 -0.032136024 -5.3002955e-21)
(2.5701264 -0.027254926 -6.2261354e-21)
(2.5731565 -0.022204459 -6.6407676e-22)
(2.5746817 -0.017122621 1.619077e-21)
(2.5751704 -0.012268858 8.1994013e-22)
(2.5749257 -0.0083373927 9.6310327e-23)
(2.5743116 -0.0049479292 -6.2517286e-22)
(2.5740109 -0.0026613152 -1.7498041e-21)
(2.5738766 -0.00063552399 -1.3941845e-21)
(2.5639649 -0.04238227 4.817041e-22)
(2.5704402 -0.035083078 1.7139993e-21)
(2.5720598 -0.030683384 9.2382308e-22)
(2.5756344 -0.025856648 -1.7586031e-22)
(2.5776446 -0.020443106 -1.4287111e-21)
(2.5783795 -0.015228831 1.0690805e-21)
(2.5778772 -0.01054888 -3.5165905e-22)
(2.5768872 -0.0069990986 -1.1387025e-21)
(2.5757476 -0.0040511242 -8.2922318e-22)
(2.5750974 -0.0021953954 -3.2843339e-22)
(2.5747342 -0.00047121587 -6.4818313e-22)
(2.5668812 -0.045228611 1.2498868e-21)
(2.5720526 -0.03762319 1.7800471e-21)
(2.5737141 -0.033971481 1.961515e-21)
(2.5779326 -0.029575945 2.4738955e-21)
(2.5807264 -0.02408782 -3.7907751e-22)
(2.5819057 -0.01823951 -2.2751118e-21)
(2.5814453 -0.013036874 1.8927998e-22)
(2.5799949 -0.0087395637 6.977813e-22)
(2.5783599 -0.0056904352 0)
(2.5768151 -0.0032119601 1.0983605e-22)
(2.575902 -0.0017595143 2.2108213e-23)
(2.575372 -0.00031743408 2.5371488e-21)
(2.5703033 -0.047248735 3.103981e-21)
(2.5734183 -0.039409154 -5.6317534e-21)
(2.5749198 -0.037003109 -7.261792e-21)
(2.5798666 -0.033458403 -1.3420305e-21)
(2.5837718 -0.028002368 -1.4147613e-21)
(2.5857488 -0.021620183 2.4074283e-21)
(2.5854664 -0.015529745 1.0111544e-21)
(2.583786 -0.010661267 -2.8768754e-21)
(2.5815086 -0.0069527835 1.3610703e-21)
(2.5793985 -0.0044745453 -1.1620237e-21)
(2.5775753 -0.0024525296 2.603997e-21)
(2.5764702 -0.0013558113 4.6621658e-22)
(2.5758281 -0.00016914208 8.1239871e-22)
(2.5738632 -0.048798881 1.4381419e-21)
(2.5749039 -0.040605744 -3.108439e-21)
(2.5755201 -0.039610366 9.7104741e-21)
(2.5812448 -0.03745691 6.0014179e-21)
(2.5866489 -0.032355467 -2.2534137e-21)
(2.5898075 -0.02536008 -3.0858659e-21)
(2.5900064 -0.018321951 -1.4628516e-21)
(2.5881162 -0.012474869 -3.0417131e-23)
(2.5853481 -0.0082864947 1.9615079e-21)
(2.582483 -0.0053014202 1.0905334e-21)
(2.5800814 -0.0033931681 -5.1498809e-22)
(2.5780935 -0.0017792471 -8.8345921e-23)
(2.5768487 -0.00098855223 4.8142424e-22)
(2.5761196 1.0850897e-05 -2.2018294e-21)
(2.5777676 -0.049595305 -2.406076e-21)
(2.5756543 -0.0410707 -3.6468622e-21)
(2.5749054 -0.042035334 6.8312304e-21)
(2.5818558 -0.04162124 -3.6835402e-22)
(2.589196 -0.037221132 -6.5397604e-21)
(2.594032 -0.029671028 -6.2970274e-22)
(2.5950322 -0.021401561 1.1615802e-21)
(2.5930981 -0.014414483 -7.4954667e-22)
(2.5897323 -0.0093696915 -3.3329124e-21)
(2.5862088 -0.0061050091 2.8453189e-21)
(2.583028 -0.0038625072 -7.685169e-22)
(2.5804957 -0.0024599791 9.6888828e-22)
(2.5784265 -0.0011840663 -2.5513501e-21)
(2.5770868 -0.00066321474 -1.3874252e-22)
(2.5762283 0.00016578395 6.5601264e-22)
(2.5823565 -0.049493936 -5.6247206e-21)
(2.5758846 -0.039697816 7.3000465e-21)
(2.5737561 -0.042975107 1.1419118e-20)
(2.5814779 -0.045981185 -4.5525895e-21)
(2.5912176 -0.042758817 4.7115711e-21)
(2.5983442 -0.03469628 2.8909295e-21)
(2.6005973 -0.024970504 3.8624824e-21)
(2.5987494 -0.016422025 -1.4906243e-21)
(2.5947835 -0.010358029 1.0976175e-21)
(2.5904037 -0.00653323 1.2217367e-21)
(2.5865275 -0.0042516603 -7.421688e-22)
(2.5832717 -0.002662298 9.4745614e-22)
(2.5807207 -0.0016638467 6.9580596e-22)
(2.578616 -0.00065301388 -1.5687993e-21)
(2.5772178 -0.00037310521 5.648684e-22)
(2.5762408 0.00026912263 -2.069469e-22)
(2.587443 -0.048407534 8.2176425e-21)
(2.5754703 -0.037179094 5.9790297e-21)
(2.5713057 -0.044266642 -2.7325543e-21)
(2.5799551 -0.050440378 -4.0982096e-21)
(2.5925223 -0.04904872 6.3464072e-22)
(2.6026666 -0.040650168 -1.3077219e-20)
(2.6067408 -0.029172686 1.5065915e-21)
(2.6052047 -0.018625691 0)
(2.600526 -0.011121016 -2.4892504e-21)
(2.5951602 -0.006670406 6.5598582e-22)
(2.5903665 -0.0041948143 2.8537101e-21)
(2.586499 -0.0027743703 -1.401779e-21)
(2.5833304 -0.0016816332 9.8068363e-22)
(2.5808192 -0.00097836729 -9.7812476e-22)
(2.5786863 -0.00017401325 -2.1210572e-22)
(2.5772483 -9.5971551e-05 -1.4005707e-21)
(2.5761729 0.00034842976 -4.4176452e-21)
(2.5930669 -0.04626504 1.2930578e-21)
(2.574664 -0.033225079 -1.4769748e-21)
(2.567453 -0.04434438 1.6843009e-20)
(2.5770704 -0.054987213 3.7212598e-20)
(2.5929021 -0.056293784 1.495359e-21)
(2.6069157 -0.047758621 1.2469368e-21)
(2.6135347 -0.034234066 -5.5465175e-21)
(2.612604 -0.021091705 2.2216833e-21)
(2.6071163 -0.011671856 1.2679574e-21)
(2.6004598 -0.0063198409 -4.9225682e-23)
(2.5945817 -0.003731796 -2.2602554e-21)
(2.5899219 -0.0024372043 -2.7029078e-21)
(2.5863013 -0.0016407879 3.4717278e-22)
(2.58329 -0.00087261904 -2.3542298e-21)
(2.5808343 -0.00037190484 -1.0027312e-21)
(2.5786593 0.00026564437 7.8637427e-22)
(2.5771731 0.00017586586 -8.7662189e-22)
(2.5760046 0.00042686819 1.2555947e-21)
(2.5992818 -0.043083752 6.3829643e-21)
(2.5733963 -0.027632661 3.4668775e-20)
(2.5621516 -0.043495578 3.0580712e-20)
(2.5723809 -0.059587325 -5.7817296e-22)
(2.5920943 -0.064494323 7.7456053e-21)
(2.6109582 -0.056259044 1.0761528e-20)
(2.6210463 -0.040399951 -2.5463888e-21)
(2.621152 -0.023958351 -1.8309615e-21)
(2.6147232 -0.011944531 2.3192792e-21)
(2.6064075 -0.0053837777 2.8982297e-21)
(2.5990788 -0.0026349811 2.5122919e-21)
(2.5935183 -0.0016806367 1.2608211e-21)
(2.5893456 -0.001204403 5.9219314e-22)
(2.5860653 -0.00076785024 4.3039449e-22)
(2.583202 -0.00017869329 -2.5636192e-22)
(2.5807852 0.00018529219 1.4269912e-21)
(2.5785632 0.00067605965 1.612759e-21)
(2.5770047 0.00042908597 1.133521e-21)
(2.575764 0.00051663312 2.5058378e-21)
(2.6061131 -0.038848428 -9.9918844e-21)
(2.5716557 -0.020306561 -3.3806005e-20)
(2.5552713 -0.041467607 -3.2594873e-20)
(2.5656974 -0.064176937 -4.9427587e-20)
(2.5898591 -0.073825082 3.1104485e-20)
(2.6146594 -0.066427103 -4.9435193e-21)
(2.6293572 -0.047961205 0)
(2.631082 -0.027374936 2.3834779e-22)
(2.6235953 -0.011910016 0)
(2.6131074 -0.0036704028 -7.0043133e-23)
(2.6038594 -0.00074375485 -1.685676e-21)
(2.5971065 -0.00029459607 2.5823361e-21)
(2.5923952 -0.0004291965 5.9930206e-22)
(2.5888287 -0.00035878969 1.35468e-21)
(2.5858601 -5.8677145e-05 1.5562428e-21)
(2.5830928 0.0004463124 1.1755573e-21)
(2.5806753 0.00071311304 5.2698334e-22)
(2.5784058 0.0010646998 4.0997785e-22)
(2.5767649 0.00065406053 -1.0769614e-21)
(2.5754674 0.00061055467 -1.8785673e-21)
(2.6135662 -0.033574287 -1.9213335e-21)
(2.5694828 -0.011177866 -3.1851628e-20)
(2.5467235 -0.038067071 -4.2320962e-20)
(2.5568436 -0.068719066 3.5502522e-20)
(2.5859225 -0.084371585 2.3181166e-21)
(2.6178744 -0.078513093 1.9698186e-20)
(2.6385279 -0.057247161 8.2357589e-21)
(2.6426744 -0.031546565 8.9386199e-22)
(2.6340326 -0.011516738 -4.5275826e-22)
(2.6207278 -0.00097994597 -9.2812254e-22)
(2.6088939 0.0021950999 -3.0024289e-22)
(2.6005808 0.0018752284 1.4084188e-21)
(2.5951959 0.00084176835 6.1569566e-22)
(2.5914912 0.00024834062 8.5696384e-22)
(2.5884599 0.0002552998 -7.5625364e-22)
(2.5857019 0.00056858824 7.2356961e-22)
(2.58297 0.0010342292 9.7078674e-22)
(2.5805111 0.0012166836 1.8465523e-22)
(2.5781832 0.0014327906 -1.1454537e-21)
(2.576466 0.00085433574 -1.6737541e-23)
(2.57511 0.00069095124 1.4043594e-22)
(2.6215819 -0.027271567 -5.5058267e-21)
(2.5669259 -0.00016967897 2.3990806e-20)
(2.5364676 -0.033196597 1.0789301e-20)
(2.5456498 -0.073109631 4.0682009e-20)
(2.5800404 -0.096210426 -2.6688343e-20)
(2.6204126 -0.092772776 2.4567906e-20)
(2.6486055 -0.068608468 -7.3006877e-21)
(2.6562277 -0.03670409 1.4051783e-21)
(2.6464055 -0.010737334 4.1289199e-21)
(2.629481 0.0029502946 3.6127336e-22)
(2.6141885 0.0064741021 3.2121532e-21)
(2.6037694 0.0050667046 1.3984579e-21)
(2.5975777 0.0027103212 -1.670922e-21)
(2.5937767 0.0011510359 4.8849409e-23)
(2.5909341 0.0006233075 1.0618084e-21)
(2.5882553 0.00078258127 -1.2471668e-21)
(2.5855813 0.0011729383 -3.5641788e-24)
(2.5828258 0.0016037891 4.3486192e-22)
(2.580299 0.0016966098 -6.9619045e-22)
(2.577903 0.0017774181 8.3970261e-23)
(2.5761171 0.0010829135 4.5652162e-22)
(2.5747069 0.00075671158 1.0534725e-21)
(2.629777 -0.020042689 3.0588898e-21)
(2.5640296 0.012701211 4.3693594e-20)
(2.5244682 -0.026693423 1.6939568e-20)
(2.5319751 -0.077251383 -1.2611383e-20)
(2.5719736 -0.10937766 3.0694135e-20)
(2.6220663 -0.10943484 -5.5113e-20)
(2.6596043 -0.082414791 8.0790783e-21)
(2.6720647 -0.043138404 -1.8967051e-21)
(2.6611347 -0.0095394839 -4.9872071e-21)
(2.6396312 0.0084027641 1.1198344e-21)
(2.6197494 0.012463358 2.8901348e-21)
(2.6065061 0.0095522814 -8.7118223e-22)
(2.5992624 0.0053238106 -5.0016326e-21)
(2.5954849 0.0023700238 2.9547583e-22)
(2.5930131 0.0010729222 7.2650078e-22)
(2.5907193 0.00092843982 1.0139852e-21)
(2.588179 0.0013184058 1.8902371e-21)
(2.5854756 0.0017792136 -1.5629999e-21)
(2.5826503 0.0021563174 -6.9880366e-22)
(2.5800419 0.0021500891 3.3136268e-22)
(2.5775784 0.00209481 4.0864719e-22)
(2.575726 0.0012680643 -1.6502368e-23)
(2.5742692 0.00081213293 -3.5849588e-22)
(2.6373046 -0.011962544 4.2387488e-21)
(2.5608257 0.027415756 1.4682654e-20)
(2.5106949 -0.018479401 3.0983694e-20)
(2.5157236 -0.081029919 -3.5822039e-20)
(2.5614831 -0.12385517 1.2835782e-22)
(2.6225952 -0.12869654 -1.8399688e-20)
(2.6715005 -0.099033805 7.4524379e-21)
(2.6904946 -0.051170045 -1.2464688e-21)
(2.6786966 -0.0079267632 -1.0217297e-21)
(2.6514893 0.015713812 -5.0388358e-21)
(2.6255867 0.02057865 -6.0986628e-21)
(2.6085736 0.015656402 1.8052011e-21)
(2.5999696 0.00884372 3.4921601e-21)
(2.5963032 0.0039244291 -9.0461209e-22)
(2.5945067 0.0015420621 -1.2567126e-21)
(2.592852 0.0009704291 -3.6705869e-22)
(2.5907535 0.0013116277 3.9484318e-22)
(2.5881672 0.001904956 -6.6233673e-22)
(2.5853585 0.0023890681 -9.161411e-22)
(2.5824389 0.0026843187 2.8122778e-22)
(2.5797451 0.0025714238 1.8877304e-21)
(2.5772175 0.002382561 -5.4085734e-22)
(2.5753007 0.001440204 2.758241e-22)
(2.5738042 0.00086191049 -5.8820131e-22)
(2.6438166 -0.0032569897 7.5824623e-22)
(2.5570755 0.043889243 -2.7554701e-20)
(2.4949399 -0.0084466735 2.1718167e-20)
(2.4969029 -0.084349404 -1.7777434e-20)
(2.5484058 -0.13959954 3.3627419e-20)
(2.6217585 -0.15070185 -2.7103107e-20)
(2.6841964 -0.11882569 -8.2935015e-21)
(2.7118125 -0.061152849 2.2140386e-21)
(2.6995911 -0.0058979749 -1.0704939e-21)
(2.6654024 0.025244894 4.4728649e-21)
(2.6317197 0.031309917 7.7799041e-21)
(2.609718 0.023754903 4.845943e-21)
(2.5993324 0.013444269 2.4912007e-21)
(2.5959186 0.0058359438 2.0147561e-21)
(2.5951429 0.001944407 -3.7807701e-23)
(2.5945153 0.0007961772 8.9917481e-22)
(2.5931168 0.001078632 9.1789715e-22)
(2.5909165 0.0018371332 -1.8051665e-21)
(2.5881614 0.0025414235 3.5780453e-23)
(2.585211 0.00298794 2.6734858e-22)
(2.5821914 0.0031768668 -8.2077042e-22)
(2.5794156 0.0029544324 1.0184655e-21)
(2.5768264 0.0026404141 7.0263427e-22)
(2.5748498 0.0015960126 4.8623034e-23)
(2.573319 0.00090570795 2.6704377e-22)
(2.6507147 0.0058899277 3.5092059e-21)
(2.552963 0.061797021 1.3898034e-20)
(2.4772998 0.0032698439 -3.8906757e-20)
(2.4756855 -0.087178295 -1.0272253e-19)
(2.5328033 -0.15660739 2.9921411e-20)
(2.6195861 -0.17558553 -3.9441964e-20)
(2.6976664 -0.14214515 -1.3072769e-21)
(2.7363104 -0.073496609 2.2350605e-21)
(2.724372 -0.0034903967 5.1398563e-21)
(2.6817377 0.03741919 3.3249881e-21)
(2.6381463 0.045207799 -4.8052372e-21)
(2.6096482 0.034272627 -1.216011e-20)
(2.5969384 0.019322957 -1.7065984e-20)
(2.5939346 0.0080906692 -6.4219453e-22)
(2.5946373 0.0021692222 1.1557329e-21)
(2.5955078 0.00024790937 1.400395e-21)
(2.5951957 0.00049077599 -2.003081e-21)
(2.5935897 0.0014903874 -8.1868365e-22)
(2.5910966 0.0024973103 8.7926718e-22)
(2.5881193 0.0031994295 4.4777148e-22)
(2.5850246 0.0035549535 7.3158475e-23)
(2.5819125 0.0036241882 5.0974845e-22)
(2.5790609 0.0032973952 6.1920871e-22)
(2.5764135 0.0028698003 8.2478957e-22)
(2.5743803 0.0017369259 7.3343943e-22)
(2.5728192 0.00094443088 2.8654736e-22)
(2.6562212 0.015260527 -1.5274099e-20)
(2.5493597 0.080938706 -1.4311059e-20)
(2.4584778 0.016766035 -2.8981772e-20)
(2.4522683 -0.089551499 2.5732386e-20)
(2.5147553 -0.17482511 -9.3377258e-20)
(2.6161681 -0.20349388 1.317815e-19)
(2.7120116 -0.16929423 1.0490456e-20)
(2.7643343 -0.088679226 2.3630558e-21)
(2.7538102 -0.00084509014 7.6741347e-21)
(2.7010043 0.052660377 7.6380121e-21)
(2.6448358 0.062890859 -1.0229166e-20)
(2.608003 0.047679171 -1.8626526e-20)
(2.5923118 0.026676431 -8.3459629e-21)
(2.5899204 0.010666635 1.2871565e-21)
(2.5926709 0.0020423135 -3.9832152e-21)
(2.595642 -0.00088043313 3.5297546e-21)
(2.5968782 -0.00065601544 -3.565596e-21)
(2.5961785 0.00074628524 -1.1436572e-22)
(2.5940746 0.0021822075 4.0825432e-22)
(2.5912138 0.0032387511 -1.5682513e-22)
(2.5880198 0.0038394651 -2.6889966e-22)
(2.5848012 0.0040707951 1.5532171e-21)
(2.5816101 0.0040206743 -2.6295352e-22)
(2.5786889 0.0036011408 -1.2728923e-21)
(2.5759857 0.0030736284 3.9398855e-22)
(2.5738981 0.0018651425 2.39816e-23)
(2.5723094 0.0009787854 0)
(2.6521271 0.024856855 -1.2176895e-20)
(2.547628 0.10165667 1.6396101e-20)
(2.4389024 0.031678573 9.1487167e-20)
(2.4267879 -0.091318555 -3.3511332e-20)
(2.4940005 -0.19395132 -1.1598543e-19)
(2.6107254 -0.23413465 -1.9034804e-20)
(2.7266365 -0.20011031 -8.8647388e-21)
(2.7947984 -0.10685093 3.3586427e-21)
(2.7879455 0.0018256418 -1.2821884e-21)
(2.7241023 0.071300489 -1.8547256e-20)
(2.6519498 0.085005178 2.0549069e-21)
(2.6043523 0.064472056 1.9747795e-20)
(2.5848976 0.035707626 1.1965773e-20)
(2.583395 0.013493202 -7.0823962e-22)
(2.5889038 0.0013729834 -7.9761216e-21)
(2.5947149 -0.0028614184 -6.6185548e-22)
(2.5980854 -0.0025909253 8.3259553e-22)
(2.5986567 -0.00059246934 2.2749568e-21)
(2.5971397 0.0015140646 -1.2929468e-22)
(2.5944336 0.0030572052 -2.0301117e-22)
(2.591228 0.0039892311 -2.1873718e-21)
(2.587862 0.0044242113 -1.5889619e-21)
(2.58455 0.0045225925 -6.0194943e-22)
(2.5812935 0.004365661 -8.6287292e-22)
(2.5783071 0.0038692429 -4.2428068e-22)
(2.5755487 0.0032557281 -1.1605173e-22)
(2.5734078 0.0019828428 -2.7900363e-22)
(2.5717935 0.001009512 9.9673005e-23)
(2.6366011 0.034152243 3.5870067e-20)
(2.535001 0.12292799 -4.7186462e-21)
(2.4169012 0.048685958 2.2541679e-20)
(2.3993648 -0.092370258 1.1033034e-19)
(2.4701723 -0.21344281 6.6045686e-21)
(2.6015643 -0.26690426 -5.2435724e-20)
(2.7388918 -0.23393401 -2.1421601e-20)
(2.825653 -0.12682859 1.1848081e-20)
(2.8224026 0.0052604513 2.6826838e-21)
(2.7492049 0.093793968 -1.8515878e-20)
(2.6599679 0.11217347 3.133583e-20)
(2.598394 0.08516738 1.432016e-20)
(2.5740696 0.046599762 3.7016431e-21)
(2.5738252 0.0164697 -3.1845507e-21)
(2.582978 -0.00011140906 8.2688189e-21)
(2.5925308 -0.005973167 -1.0739377e-20)
(2.5987586 -0.0056196903 -3.366789e-21)
(2.6010625 -0.0027365992 -2.7813845e-21)
(2.600339 0.00033766104 0)
(2.5978544 0.0026271961 -8.1766348e-24)
(2.5945984 0.0039878922 1.9720581e-22)
(2.5911359 0.0046798742 2.9376355e-22)
(2.5876598 0.0049269744 -3.6951235e-22)
(2.5842844 0.0049057449 -1.1429513e-22)
(2.580972 0.0046629776 -6.8224536e-22)
(2.5779214 0.0041070305 -1.4149307e-21)
(2.5751067 0.003420245 -4.4380154e-22)
(2.572913 0.0020921587 5.8717392e-24)
(2.5712741 0.0010372821 -5.6424629e-22)
(2.6132495 0.04398778 -9.5694927e-21)
(2.507922 0.14330125 9.0649305e-21)
(2.3941282 0.066823734 -7.4393068e-20)
(2.3705651 -0.092422938 -5.2368817e-20)
(2.4431175 -0.23296045 4.7435303e-20)
(2.5878788 -0.30136222 6.5292281e-20)
(2.7475443 -0.27086055 -1.1315007e-20)
(2.8561931 -0.1486015 -1.3587099e-20)
(2.8554266 0.011651099 -8.6664588e-21)
(2.7682336 0.12202377 4.2859726e-20)
(2.6648125 0.14528183 1.3499311e-20)
(2.5900185 0.11034688 -2.9697021e-21)
(2.5592078 0.059509936 -2.3803228e-20)
(2.5606488 0.019433784 -9.8378108e-21)
(2.57452 -0.0027141105 -4.2817212e-21)
(2.5888945 -0.010602038 -3.5289161e-21)
(2.598853 -0.010066084 -1.0219054e-21)
(2.6034614 -0.0059714222 -1.9365391e-21)
(2.6037953 -0.0014960602 -6.6283039e-22)
(2.6015676 0.0018568908 1.1618167e-22)
(2.5982135 0.0038680748 2.6060343e-22)
(2.5945651 0.0048520968 3.5416568e-22)
(2.5909615 0.0052596296 1.7502764e-21)
(2.5874351 0.0053351619 1.1994783e-21)
(2.5840182 0.0052234327 -5.0178283e-23)
(2.5806534 0.0049196758 -1.7568543e-23)
(2.5775363 0.0043206278 -1.0619747e-21)
(2.5746629 0.0035711536 -1.7005481e-22)
(2.5724162 0.0021949129 -7.9969644e-24)
(2.5707537 0.0010626788 -1.3723743e-21)
(2.5803513 0.053772537 -5.3753544e-20)
(2.4773328 0.16305201 2.6986286e-20)
(2.3709158 0.085458634 -2.6552142e-20)
(2.3409515 -0.092013035 -1.2549996e-19)
(2.4132114 -0.25204706 1.0132058e-19)
(2.5701767 -0.33740413 9.0498152e-20)
(2.7535577 -0.31222252 3.3233282e-20)
(2.8917467 -0.1755393 -3.4562042e-21)
(2.8993397 0.018872109 -1.4243871e-20)
(2.7831379 0.15767105 -2.8212085e-20)
(2.6556664 0.18556645 -6.301653e-20)
(2.5752424 0.14067684 3.0436864e-20)
(2.5398318 0.074662343 3.6963972e-22)
(2.5432705 0.02215794 -3.1355569e-20)
(2.5631828 -0.0068087621 9.5086324e-21)
(2.5836363 -0.017132669 1.3272432e-20)
(2.5983409 -0.016325651 8.9537587e-21)
(2.6059594 -0.010594334 1.5966886e-21)
(2.607686 -0.0042033283 -1.9612352e-21)
(2.6057472 0.00069054862 4.3714626e-23)
(2.6021737 0.0036118438 2.8177018e-22)
(2.598215 0.0050289352 1.1348461e-22)
(2.5943772 0.0055577434 -1.5857919e-21)
(2.5907437 0.0057015687 -7.7980528e-22)
(2.5872121 0.0056497912 1.4672533e-21)
(2.5837637 0.0054847465 9.918211e-22)
(2.5803434 0.005144534 1.8107164e-21)
(2.5771549 0.0045161371 6.5581881e-22)
(2.5742195 0.0037119382 -1.0036841e-22)
(2.5719194 0.0022925751 -5.4079538e-23)
(2.5702338 0.0010862009 1.6746637e-22)
(2.5375131 0.064398522 1.1418919e-20)
(2.4387398 0.18322243 -2.1663937e-21)
(2.3437106 0.10149492 -4.2860497e-20)
(2.3113022 -0.089891302 1.2819262e-19)
(2.381468 -0.27088937 -1.3717893e-20)
(2.5492049 -0.37462808 -1.4739449e-20)
(2.7578253 -0.35871848 3.7455976e-20)
(2.9357795 -0.21199802 1.783075e-19)
(2.9723706 0.01875751 -3.7886206e-22)
(2.8308028 0.1970018 -4.2084029e-20)
(2.6436205 0.23295239 9.5062202e-22)
(2.5444725 0.17552124 -8.7941571e-22)
(2.5138527 0.092243717 7.4714908e-20)
(2.5211708 0.024411249 -1.3189735e-20)
(2.5486407 -0.012820754 1.2897949e-20)
(2.5766112 -0.02597732 1.7006741e-20)
(2.5972295 -0.024799031 -2.2838601e-21)
(2.6086917 -0.016970468 2.1872461e-21)
(2.6122389 -0.0080010765 -1.1352435e-21)
(2.6106369 -0.00098090878 1.2650969e-21)
(2.6066647 0.0032658295 2.0521697e-21)
(2.6021638 0.0052616348 6.7873875e-23)
(2.5979376 0.0059517847 -6.7716198e-23)
(2.5941044 0.0060538605 1.3671701e-23)
(2.5905253 0.0060024873 -4.3301339e-23)
(2.5870117 0.00588255 1.0965662e-21)
(2.5835297 0.0057022602 8.5313175e-22)
(2.5800454 0.0053467203 1.7114886e-21)
(2.5767787 0.0046990812 8.5049574e-22)
(2.5737778 0.0038454657 1.5827192e-22)
(2.5714241 0.0023862845 -6.2088281e-22)
(2.569716 0.0011082693 8.0285383e-22)
(2.4863916 0.075496689 2.7956827e-20)
(2.3918107 0.20397595 -1.8779053e-20)
(2.3102625 0.11972685 8.3671849e-21)
(2.2806067 -0.089376825 1.3588382e-19)
(2.3475377 -0.28811626 -9.4234682e-20)
(2.5254648 -0.41320731 -6.7440035e-20)
(2.759619 -0.41020745 -8.8857183e-22)
(2.9839751 -0.2586343 -1.6179644e-19)
(3.0709765 0.0054567339 9.9348676e-21)
(2.9341314 0.23274913 1.0589544e-19)
(2.6749005 0.28681208 8.6566224e-20)
(2.5061341 0.21336706 1.2037626e-20)
(2.4751584 0.11087008 -1.1590711e-20)
(2.4937263 0.025888964 3.5109632e-20)
(2.5306204 -0.021182147 -7.0649728e-21)
(2.5677285 -0.037561481 -3.6047928e-21)
(2.5955276 -0.035905063 3.7385202e-21)
(2.6118187 -0.025476165 -6.9051727e-22)
(2.6177335 -0.013167187 -1.5477267e-21)
(2.6165449 -0.0032482283 1.2564728e-22)
(2.611938 0.0028468187 -1.7215259e-22)
(2.6065647 0.0056898977 5.0197084e-22)
(2.6016742 0.0065445529 8.747625e-22)
(2.5975033 0.0065472224 -5.9335809e-22)
(2.5938227 0.0063301773 1.2311734e-21)
(2.5903443 0.006178584 1.9258492e-21)
(2.5868494 0.0060519297 -3.4326969e-21)
(2.5833214 0.0058897524 -2.1900222e-21)
(2.5797607 0.0055348423 -1.0672468e-22)
(2.5764083 0.0048741352 6.949429e-22)
(2.5733384 0.0039740125 -5.2371642e-22)
(2.5709312 0.0024769405 -2.458666e-23)
(2.5692013 0.0011292456 1.0512578e-21)
(2.4275598 0.086735899 2.370057e-20)
(2.3379237 0.22467491 5.2155252e-20)
(2.2698644 0.14029357 -2.3456992e-20)
(2.2452442 -0.084185033 -9.5172292e-20)
(2.3163126 -0.30681483 3.4634532e-20)
(2.4985911 -0.45133047 -3.9547319e-20)
(2.7578961 -0.46524388 2.1991562e-20)
(3.029434 -0.31494215 -1.8568101e-19)
(3.1764769 -0.02027336 -3.5485875e-19)
(3.0718698 0.26148495 -2.6814748e-21)
(2.7715459 0.34717181 -1.3092129e-19)
(2.4979436 0.2576489 -1.1968407e-19)
(2.4238625 0.12812591 -7.1581314e-20)
(2.4587887 0.025574888 5.5555207e-20)
(2.50902 -0.032400492 1.6423423e-20)
(2.5569572 -0.052285914 -1.7862399e-20)
(2.5932713 -0.050019248 -5.8912671e-21)
(2.6155019 -0.036507866 -2.8193105e-21)
(2.6244838 -0.019997394 1.7454667e-21)
(2.6238506 -0.0062442062 -3.8510548e-22)
(2.6183207 0.0024170578 6.0417294e-22)
(2.6116248 0.0064480619 -2.2290991e-21)
(2.6056747 0.0075440034 -7.024421e-22)
(2.6009122 0.0073117695 8.2176909e-22)
(2.5970437 0.0067944165 -1.8137369e-21)
(2.5935992 0.0064091494 2.7738374e-21)
(2.590229 0.0062587171 -9.6786895e-23)
(2.5867343 0.006179451 -1.4656693e-21)
(2.5831403 0.0060607635 1.6726233e-21)
(2.5794887 0.0057164093 2.0337692e-22)
(2.576043 0.0050450874 4.0763846e-22)
(2.5729015 0.0040993862 -3.1321461e-22)
(2.5704415 0.0025653022 -2.6382564e-22)
(2.5686905 0.001149448 1.5023407e-21)
(2.3624162 0.098057947 -2.0071886e-20)
(2.277578 0.24502628 2.798387e-20)
(2.2233661 0.15923995 1.1756906e-20)
(2.2049289 -0.075780838 -6.869219e-20)
(2.2791727 -0.32016918 3.3187125e-21)
(2.4721428 -0.4914284 2.4451242e-20)
(2.7515032 -0.5223218 7.093468e-20)
(3.0677194 -0.37587355 3.3981096e-19)
(3.2753798 -0.055713806 -6.3813419e-20)
(3.2139278 0.28332899 -2.377159e-21)
(2.9063323 0.41273056 -1.0406202e-19)
(2.5472261 0.31560179 -6.7115653e-20)
(2.3834295 0.14739798 -3.7088488e-20)
(2.4134651 0.021073277 -3.5282121e-20)
(2.4838639 -0.047005976 -3.858126e-20)
(2.5443196 -0.070497956 4.0277426e-21)
(2.5905088 -0.067497808 -6.0961078e-21)
(2.6198952 -0.05044269 7.9379634e-21)
(2.6328241 -0.028827053 -1.1925772e-21)
(2.6329877 -0.010108842 -2.2032481e-21)
(2.6262152 0.0020244308 -2.1314914e-21)
(2.6176176 0.0077434437 -1.2334046e-21)
(2.6100601 0.0091698976 -1.4913366e-21)
(2.6043365 0.0085896795 1.5905871e-21)
(2.6000987 0.0075276629 -2.2617345e-21)
(2.5966737 0.0067277481 1.6539106e-22)
(2.5934838 0.0063346909 7.1287212e-22)
(2.5901957 0.0062736359 -1.7066934e-21)
(2.5866696 0.0062865823 2.0231419e-21)
(2.5829848 0.0062274852 -7.3658647e-22)
(2.5792276 0.0058976419 -4.4659535e-22)
(2.575682 0.005214966 1.7183035e-22)
(2.5724671 0.0042230854 1.545832e-22)
(2.5699555 0.0026520842 -1.2971413e-21)
(2.5681843 0.0011691652 8.9592567e-22)
(2.2926908 0.10930822 -6.2805103e-20)
(2.2121913 0.26497369 -4.8625435e-20)
(2.170787 0.17770575 -2.6072746e-20)
(2.1610408 -0.06812944 7.7549213e-20)
(2.2357076 -0.3309184 -2.8106372e-20)
(2.4347558 -0.52837202 2.5712058e-22)
(2.7449009 -0.58139157 -7.3698158e-20)
(3.0957451 -0.44552811 -1.0975867e-19)
(3.3610145 -0.098623403 5.9462751e-19)
(3.3472321 0.2987041 1.5257877e-20)
(3.049965 0.47920909 4.1356213e-19)
(2.6419188 0.38828803 9.7301653e-20)
(2.3736531 0.17743828 5.1204815e-20)
(2.3629345 0.012634603 4.7865745e-20)
(2.4542325 -0.066340424 -5.5934782e-20)
(2.5301266 -0.092511576 3.0635384e-20)
(2.5872804 -0.088551359 2.1745e-20)
(2.625109 -0.067652634 5.9133375e-21)
(2.6430755 -0.040006888 2.9823432e-21)
(2.6444473 -0.015027509 6.3244008e-21)
(2.6360983 0.0017455953 1.8283891e-21)
(2.6248812 0.0098049665 3.5057294e-22)
(2.6149929 0.011735436 5.2491304e-22)
(2.6077901 0.010640649 -2.4989609e-21)
(2.6029109 0.0087718591 2.4820646e-21)
(2.5994248 0.0072476275 -4.1551067e-21)
(2.5964776 0.0064175455 1.1389734e-21)
(2.5935054 0.0061610272 -1.3725713e-21)
(2.5902497 0.0062588649 1.6263178e-21)
(2.5866526 0.0063928314 -1.7641754e-21)
(2.5828509 0.0064002094 -6.650916e-22)
(2.5789744 0.0060835199 2.3172087e-22)
(2.5753238 0.0053862301 -4.4726593e-22)
(2.5720348 0.0043464432 2.7301942e-22)
(2.5694736 0.0027380124 -2.6427929e-22)
(2.567683 0.0011886653 1.2859314e-21)
(2.2200368 0.12036047 -2.1302934e-21)
(2.1437395 0.28441113 -4.8709301e-20)
(2.1130818 0.19488027 2.3796366e-20)
(2.1126841 -0.060670752 7.6241623e-21)
(2.1883659 -0.34141333 1.4987111e-21)
(2.3901318 -0.56520665 -2.5642033e-20)
(2.7189147 -0.64440227 -2.9596125e-20)
(3.1192508 -0.50898094 9.3575837e-20)
(3.4270489 -0.14919041 -1.5124021e-20)
(3.4652565 0.30694032 -5.9087937e-19)
(3.1899373 0.54233657 -6.6386488e-19)
(2.7604386 0.46970355 1.115112e-20)
(2.4034615 0.22236208 3.9317126e-20)
(2.328974 0.0062849279 3.7781376e-19)
(2.4189169 -0.091783632 1.1584397e-19)
(2.5147509 -0.11840443 -1.6322949e-20)
(2.5836435 -0.11337108 1.0311247e-20)
(2.6312076 -0.088408993 -1.3208719e-20)
(2.6555265 -0.053934138 7.7470478e-21)
(2.6587343 -0.021213441 -5.477366e-21)
(2.6485192 0.0016280547 -1.0028199e-20)
(2.6338234 0.012922526 -1.3371352e-21)
(2.6206736 0.01559973 9.9723625e-22)
(2.6112973 0.013823292 -4.9828367e-21)
(2.6053889 0.010780337 -2.0018881e-21)
(2.6017061 0.0081823008 -6.1556242e-21)
(2.599028 0.0065853849 -3.6157141e-21)
(2.5965038 0.0059508818 1.86815e-21)
(2.5936729 0.0059437216 -4.3678304e-21)
(2.5903867 0.0062448866 -1.0166225e-21)
(2.5866761 0.0065147125 -2.7849294e-21)
(2.582733 0.0065869921 -4.0184112e-22)
(2.5787256 0.0062779844 -7.7598746e-23)
(2.5749669 0.0055609611 3.5919843e-22)
(2.5716042 0.0044707282 -9.7275001e-22)
(2.5689958 0.0028238547 1.5038447e-22)
(2.567187 0.0012081991 -9.1164372e-23)
(2.1460513 0.13101102 7.136454e-21)
(2.0742752 0.30325098 1.3881735e-19)
(2.0516172 0.21085223 2.8064878e-21)
(2.0597006 -0.053686556 2.7323301e-21)
(2.1375557 -0.35211841 5.1946502e-22)
(2.3398927 -0.60229711 -2.2661083e-21)
(2.6797406 -0.71121843 6.9753484e-20)
(3.1159536 -0.58404566 1.2622355e-19)
(3.4748638 -0.19442417 1.0629466e-18)
(3.5587966 0.30995128 -7.8108725e-19)
(3.3196983 0.60178721 -3.4450002e-19)
(2.8866651 0.55516358 9.3367824e-20)
(2.4694395 0.28101973 -5.1941941e-20)
(2.3216609 0.0092215091 -1.4280509e-19)
(2.3812912 -0.12155687 -1.0845401e-19)
(2.4982012 -0.14859536 -1.9505153e-20)
(2.5797355 -0.14182714 -4.7741316e-20)
(2.6381428 -0.1129945 -7.6263402e-21)
(2.6704043 -0.070987557 -3.976999e-21)
(2.6763766 -0.028946442 1.3114495e-20)
(2.664089 0.0017219144 -4.4458903e-21)
(2.6449157 0.017405807 -6.2436329e-21)
(2.6273392 0.021211043 -3.0158531e-21)
(2.6148839 0.01854781 1.567753e-22)
(2.6074232 0.01389565 5.8714033e-23)
(2.6033399 0.0097420624 -1.0275016e-21)
(2.6009384 0.0070048558 -1.9380687e-21)
(2.598985 0.0056806756 5.9245428e-21)
(2.5967676 0.0054164769 6.647697e-21)
(2.5939794 0.0057334558 2.3968234e-21)
(2.5905953 0.0062643439 2.8857234e-21)
(2.58673 0.0066654434 2.4665689e-21)
(2.5826246 0.0067940772 -1.4063939e-21)
(2.5784778 0.0064841737 -6.8068163e-22)
(2.5746095 0.005740997 1.2806696e-21)
(2.5711747 0.00459719 1.5973568e-22)
(2.5685223 0.002910408 1.2528835e-21)
(2.5666963 0.001228 -3.3621888e-21)
(2.0724067 0.14105946 1.8990736e-20)
(2.0057871 0.32136291 -1.3705418e-19)
(1.9881553 0.22568968 -8.3018302e-20)
(2.0022577 -0.04747763 1.7228352e-20)
(2.0829437 -0.36255722 1.1389918e-21)
(2.2842179 -0.63971477 -1.9237192e-20)