/*--------------------------------*- C++ -*----------------------------------*\
| =========                 |                                                 |
| \\      /  F ield         | OpenFOAM: The Open Source CFD Toolbox           |
|  \\    /   O peration     | Version:  v2012                                 |
|   \\  /    A nd           | Website:  www.openfoam.com                      |
|    \\/     M anipulation  |                                                 |
\*---------------------------------------------------------------------------*/
FoamFile
{
    version     2.0;
    format      ascii;
    class       surfaceVectorField;
    location    "94.5973634040841915";
    object      Uf;
}
// * * * * * * * * * * * * * * * * * * * * * * * * * * * * * * * * * * * * * //

dimensions      [0 1 -1 0 0 0 0];


internalField   nonuniform List<vector> 
18180
(
(2.5498033 -0.0041406079 -4.6871275e-23)
(2.553443 -0.0019934903 -1.1353546e-22)
(2.5501988 -0.0082211428 1.925715e-22)
(2.5538514 -0.0061362105 5.8645875e-23)
(2.5562785 -0.0040770546 -3.1135505e-24)
(2.5572778 -0.001942978 -6.0898157e-23)
(2.5508459 -0.012304516 2.0300647e-23)
(2.5546913 -0.0099661772 -1.9409318e-22)
(2.5570472 -0.008057203 -3.4085029e-22)
(2.5578561 -0.0058673727 2.5510925e-24)
(2.5592261 -0.0037943698 -5.1179928e-23)
(2.560707 -0.0018145842 2.8202807e-24)
(2.55173 -0.016474935 -5.8789546e-23)
(2.5557906 -0.014127132 -1.3838102e-22)
(2.5582074 -0.011940298 -3.5738986e-22)
(2.5588718 -0.009485121 -1.8407429e-22)
(2.5600943 -0.0074935692 1.433923e-22)
(2.5614325 -0.0054432177 -7.0661772e-23)
(2.5627435 -0.003509058 -1.975079e-23)
(2.5637541 -0.0016596331 2.6424673e-22)
(2.5528911 -0.020702411 5.2715349e-23)
(2.5572133 -0.018021898 3.8686538e-22)
(2.5596909 -0.015824896 2.7578395e-22)
(2.5602657 -0.013396932 1.9084828e-22)
(2.5613938 -0.011106897 3.4966022e-22)
(2.5626097 -0.0087899801 1.1847486e-22)
(2.5637765 -0.0069343552 -9.149313e-23)
(2.5646145 -0.0049796175 3.3727105e-22)
(2.565611 -0.0031673112 6.111225e-22)
(2.5663969 -0.0014782317 -9.0559313e-23)
(2.5543165 -0.024973577 3.0094371e-22)
(2.558877 -0.022159992 3.1428728e-22)
(2.5614443 -0.019667323 5.7081822e-22)
(2.5619506 -0.016995448 2.2842901e-22)
(2.5630434 -0.01473156 1.2070361e-22)
(2.5642782 -0.012435955 -2.2291579e-23)
(2.5653142 -0.010285424 -2.5262741e-22)
(2.565941 -0.0080378944 -2.5575823e-23)
(2.5667788 -0.0062704988 3.8159619e-22)
(2.5673848 -0.0044654785 7.2639401e-22)
(2.5681405 -0.0028087757 6.3007182e-23)
(2.5686489 -0.0012857907 -6.7033598e-22)
(2.5560212 -0.029205212 4.9668542e-22)
(2.5607569 -0.026099775 5.5855205e-22)
(2.5633902 -0.023454109 5.8043768e-22)
(2.5638734 -0.020816697 2.7701129e-22)
(2.5649496 -0.018349752 -6.5114172e-23)
(2.5662371 -0.01579301 -5.9786593e-22)
(2.5672697 -0.013661537 -7.4282063e-22)
(2.5678698 -0.011398997 -7.9843574e-22)
(2.5685136 -0.0093185875 -5.904958e-22)
(2.5688531 -0.0072004663 4.9463772e-22)
(2.569441 -0.0055665948 8.2218332e-22)
(2.5697507 -0.0039362598 3.1148352e-22)
(2.5702584 -0.0024443835 -3.8032247e-22)
(2.5705324 -0.0010913853 -1.4143347e-22)
(2.5580012 -0.033321544 1.5599077e-22)
(2.5628008 -0.03001835 2.1167572e-23)
(2.5654477 -0.027109778 1.0060801e-22)
(2.565919 -0.024428114 2.963923e-22)
(2.5670151 -0.021968849 5.1832555e-24)
(2.5684618 -0.019417719 1.1381854e-21)
(2.5695182 -0.0170716 6.3596902e-22)
(2.5701197 -0.014501698 2.2486251e-22)
(2.5707425 -0.012404105 1.8493257e-22)
(2.571025 -0.010233463 -1.7826803e-22)
(2.5713642 -0.0082764525 8.5400203e-22)
(2.5713416 -0.0063141323 1.1687112e-22)
(2.5716659 -0.0048327337 -3.7669651e-22)
(2.5717201 -0.003410179 -3.9401438e-22)
(2.5720065 -0.0020896318 -1.6745613e-22)
(2.5720798 -0.00090206222 5.3314672e-22)
(2.560236 -0.037214291 -8.0028302e-23)
(2.5649626 -0.033670814 -2.754519e-21)
(2.5675358 -0.030551499 -2.9206036e-21)
(2.5680018 -0.028030737 -3.3601439e-21)
(2.5691151 -0.025552011 -3.2197291e-21)
(2.5707803 -0.022920155 -3.4130102e-22)
(2.5719561 -0.020557981 7.1540184e-22)
(2.5727097 -0.017917347 1.8981501e-21)
(2.5733374 -0.015563654 1.5260895e-21)
(2.5735779 -0.013029223 1.1172545e-21)
(2.5738647 -0.011015032 7.8460903e-22)
(2.5737173 -0.008975562 4.142378e-22)
(2.5737346 -0.0071639352 -2.8930475e-22)
(2.5733996 -0.0053991721 -6.6263845e-22)
(2.573483 -0.0040981637 -6.8254116e-22)
(2.573312 -0.002903623 -1.2568108e-21)
(2.5734099 -0.0017518258 -6.0745857e-22)
(2.5733268 -0.00072156016 -4.0966393e-22)
(2.5627102 -0.040767962 2.2142404e-22)
(2.5671221 -0.037010453 8.4631523e-22)
(2.5695229 -0.033674268 -1.6758646e-21)
(2.5700126 -0.031394368 -2.1254568e-21)
(2.5711254 -0.029057081 -2.5316011e-21)
(2.5730901 -0.026542202 -3.1402539e-21)
(2.5744368 -0.024132022 -4.118047e-22)
(2.5754402 -0.021306147 -1.0546695e-21)
(2.5762127 -0.018867035 4.4217063e-23)
(2.5765794 -0.016156892 1.338595e-21)
(2.5768286 -0.013833827 9.4867674e-22)
(2.5765447 -0.011391737 2.2248798e-22)
(2.5764508 -0.0094928009 -1.3516693e-22)
(2.575919 -0.0076549354 -5.3481376e-22)
(2.5756425 -0.0060262054 -8.9052969e-22)
(2.5750364 -0.0044906165 -7.2921928e-22)
(2.5749083 -0.0033873141 -1.2741041e-21)
(2.5745582 -0.0024237311 -1.0250647e-21)
(2.5745074 -0.0014337878 -8.4345658e-22)
(2.5743077 -0.00055174292 -1.0138211e-21)
(2.5654718 -0.043840497 8.7864149e-22)
(2.5692228 -0.039956222 1.1887642e-21)
(2.5712734 -0.036387903 1.7481278e-21)
(2.571818 -0.034515441 1.8618887e-21)
(2.5729146 -0.032416767 1.4600236e-21)
(2.5752307 -0.03011906 1.7022832e-21)
(2.5768219 -0.027816825 1.1933303e-21)
(2.5782303 -0.024954533 -2.7950206e-22)
(2.579237 -0.022370219 -8.8634142e-22)
(2.5798317 -0.019319396 -1.8603509e-21)
(2.5802016 -0.016811839 -6.5893862e-22)
(2.5799347 -0.014111016 6.2043126e-22)
(2.5797209 -0.011865803 -7.2143581e-23)
(2.5789476 -0.0096262253 1.8147661e-22)
(2.578493 -0.0079054443 -1.8974601e-22)
(2.5776283 -0.0063317632 -5.561326e-22)
(2.5770974 -0.0049149362 -4.0073858e-22)
(2.5762837 -0.0036232155 -3.5191816e-22)
(2.575985 -0.0027199753 -1.0196298e-22)
(2.5755005 -0.0019731339 -1.4846627e-22)
(2.5753377 -0.0011370164 -3.0180991e-22)
(2.5750556 -0.00039280658 9.7585827e-22)
(2.5686495 -0.046277167 2.207947e-21)
(2.5712703 -0.042261525 -2.2601206e-21)
(2.5727583 -0.038582635 -2.0498353e-21)
(2.5732868 -0.037306409 -2.8232156e-21)
(2.5743371 -0.035561778 -2.8044173e-21)
(2.5770432 -0.033710351 2.6238925e-22)
(2.578932 -0.03162701 5.021066e-22)
(2.5809165 -0.028773431 4.90651e-22)
(2.5823 -0.026153345 -9.1424041e-22)
(2.5833042 -0.02282947 1.0441056e-21)
(2.5838915 -0.02002818 1.4446374e-22)
(2.5837104 -0.016857631 -6.0198549e-22)
(2.5835231 -0.014347378 6.1396035e-22)
(2.5826259 -0.01182544 -1.3742084e-21)
(2.5819538 -0.0097579772 -1.1493207e-21)
(2.5807536 -0.0078284182 1.035991e-21)
(2.5799869 -0.0063433357 7.0329666e-22)
(2.5788789 -0.0050704244 -5.945821e-22)
(2.57815 -0.0038793612 -5.4737028e-22)
(2.5771946 -0.0028247196 1.3815175e-21)
(2.5767666 -0.0021088659 1.3562645e-21)
(2.5761853 -0.001553668 2.4853581e-22)
(2.5759395 -0.00086126672 1.4669957e-21)
(2.5756003 -0.00024182574 1.6578177e-21)
(2.5721428 -0.048058916 2.2431905e-21)
(2.5736164 -0.043861382 -6.4773345e-23)
(2.5741859 -0.040149442 -4.3278776e-21)
(2.5743749 -0.039511561 2.1945549e-21)
(2.57523 -0.038409271 1.5082969e-21)
(2.5783466 -0.037235162 -4.9678621e-22)
(2.5805788 -0.035574028 2.4525411e-21)
(2.583343 -0.03289596 -1.806845e-21)
(2.5852585 -0.030302555 -1.8481156e-21)
(2.5868695 -0.026654967 -2.2669758e-21)
(2.587846 -0.023593554 -4.3108941e-22)
(2.5879052 -0.019938208 4.3381915e-22)
(2.5878123 -0.017007829 -2.6721899e-22)
(2.5867998 -0.013971921 4.7575076e-22)
(2.5860235 -0.011613491 -1.4060525e-21)
(2.5845649 -0.0094502837 -4.0583526e-22)
(2.5834926 -0.0076607747 1.6713283e-21)
(2.5819915 -0.0061107138 1.2231305e-21)
(2.5809924 -0.0048960696 1.9208006e-24)
(2.5797364 -0.0039231401 -8.3416239e-22)
(2.5788703 -0.0029519899 9.9233369e-22)
(2.5778323 -0.0021092277 1.2299883e-21)
(2.577309 -0.0015600079 1.7965469e-22)
(2.5766589 -0.0011685586 4.7396988e-22)
(2.5763555 -0.00060234085 6.413681e-22)
(2.5759666 -7.7367975e-05 -7.2511217e-22)
(2.5758807 -0.049177258 -5.4829936e-22)
(2.5758324 -0.044857964 -1.1556169e-21)
(2.5752916 -0.040772158 -3.3866611e-21)
(2.5749372 -0.041335075 1.9605438e-21)
(2.5752025 -0.040825323 8.222671e-21)
(2.578965 -0.040636647 4.5696399e-21)
(2.5815606 -0.039667909 2.7099519e-21)
(2.5853343 -0.037336788 -3.9201827e-22)
(2.587965 -0.034925809 -4.4682953e-21)
(2.5904375 -0.030986589 -1.4253696e-21)
(2.5919904 -0.027637317 -1.8167007e-21)
(2.5924523 -0.023341384 -9.1993669e-22)
(2.5926033 -0.019946895 -1.0674681e-22)
(2.5915589 -0.016329355 -1.0991306e-21)
(2.5906905 -0.013503147 -4.0200613e-22)
(2.5889168 -0.010891431 -1.7143173e-21)
(2.5876135 -0.0088530589 -7.7421682e-22)
(2.5857684 -0.0071741042 2.4121349e-21)
(2.5844082 -0.005729054 1.9972622e-21)
(2.5827474 -0.004567702 1.4269356e-22)
(2.581604 -0.0036243397 -6.4599131e-22)
(2.5802834 -0.0029173392 2.4154722e-22)
(2.5793348 -0.0021430318 4.5795324e-22)
(2.5782571 -0.0014757793 -1.3451784e-21)
(2.577664 -0.0010729186 -1.0857118e-21)
(2.576966 -0.00082267811 1.6595687e-22)
(2.5766194 -0.00034758492 -1.1357339e-21)
(2.5761699 8.9841028e-05 -7.4491915e-22)
(2.5801389 -0.049529944 -4.0692733e-21)
(2.5779421 -0.04454779 2.5743175e-21)
(2.5757733 -0.040260986 2.0098271e-21)
(2.5746756 -0.042042176 4.0387519e-21)
(2.5743115 -0.042569516 9.2019633e-21)
(2.5784776 -0.044048591 1.0048207e-21)
(2.5816606 -0.043896469 -2.5304966e-21)
(2.5866822 -0.042201607 2.2224752e-21)
(2.5902406 -0.040139618 -7.2583001e-22)
(2.5938906 -0.035933666 -1.7350329e-21)
(2.5962602 -0.032321216 1.1895106e-21)
(2.5973546 -0.027273939 1.6610144e-21)
(2.5979078 -0.023286381 2.5572059e-21)
(2.5968953 -0.01886228 -1.9079166e-22)
(2.5960182 -0.015474716 -1.1324775e-21)
(2.5939264 -0.012345971 1.9228745e-22)
(2.5923424 -0.0098963239 -1.0435757e-21)
(2.59005 -0.0079233189 -1.0106738e-21)
(2.5883764 -0.0063249774 2.0063877e-21)
(2.5863534 -0.0051599631 1.0162588e-21)
(2.5848363 -0.0040704224 -7.5490243e-22)
(2.5831405 -0.003250523 1.0633755e-22)
(2.5819301 -0.0025488582 9.5781393e-22)
(2.5806028 -0.0020540488 8.296662e-22)
(2.579612 -0.0014426266 -8.7347096e-22)
(2.5785172 -0.00091330202 -2.0504413e-21)
(2.577877 -0.0006408543 -8.7769836e-22)
(2.5771504 -0.00051530787 2.1940679e-22)
(2.5767396 -0.00012598561 6.0891414e-22)
(2.5762409 0.00021845546 2.1660056e-22)
(2.5849849 -0.048908427 1.5282078e-21)
(2.5799307 -0.043213132 2.9436305e-22)
(2.5756705 -0.038417021 6.617422e-21)
(2.5734725 -0.042028404 2.1780974e-21)
(2.5724899 -0.043752348 4.1063745e-21)
(2.5772376 -0.046783774 3.5196622e-21)
(2.580691 -0.0483549 -4.3177939e-21)
(2.5871771 -0.047545905 -1.9130355e-21)
(2.5918918 -0.046072285 2.6048753e-21)
(2.5970935 -0.041683636 -4.3633007e-21)
(2.6005778 -0.037831056 -5.3603282e-21)
(2.602593 -0.031879459 2.1798045e-21)
(2.6037718 -0.027184537 2.6451273e-21)
(2.6029035 -0.021735028 1.8930029e-21)
(2.602085 -0.017587931 -7.2038281e-22)
(2.5996147 -0.013718905 -1.9997985e-21)
(2.5977508 -0.010763372 -7.5578702e-22)
(2.5949432 -0.0084776479 8.7244995e-22)
(2.5928615 -0.0066102505 9.2940416e-22)
(2.5903613 -0.0053408432 2.053776e-21)
(2.5885112 -0.0042135531 1.1158703e-21)
(2.5864976 -0.0034983868 -1.0784525e-21)
(2.5849393 -0.0027225216 -2.6642326e-22)
(2.5832922 -0.0021622751 9.6439583e-22)
(2.5820691 -0.0016548687 8.4300632e-22)
(2.5807656 -0.0013143548 -1.5546975e-22)
(2.5797544 -0.00083095938 -1.2635857e-21)
(2.5786472 -0.00040879969 -8.7717586e-22)
(2.5779766 -0.0002517337 1.6338248e-22)
(2.577227 -0.00023180504 -4.3706103e-22)
(2.5767614 6.8796427e-05 -8.237472e-22)
(2.5762038 0.00030955344 -2.35339e-21)
(2.5903491 -0.047268363 4.6393989e-21)
(2.5819154 -0.040663689 3.2723239e-21)
(2.5750536 -0.035135275 2.1261782e-21)
(2.5714196 -0.040834477 1.1522293e-20)
(2.5693149 -0.044290103 7.3829921e-21)
(2.574706 -0.049736098 1.7618604e-20)
(2.5784645 -0.052867525 1.7248806e-20)
(2.5866493 -0.053426013 -1.236589e-21)
(2.5927186 -0.05286194 1.0794073e-21)
(2.5999186 -0.048391049 9.4689144e-22)
(2.6048623 -0.044386358 -5.6754207e-21)
(2.6081662 -0.037378206 -9.2371067e-21)
(2.6102514 -0.031834326 -2.1379702e-21)
(2.609673 -0.025051896 1.8712132e-21)
(2.6090281 -0.019926573 1.1480026e-21)
(2.6061273 -0.015079804 6.387841e-22)
(2.6039314 -0.011418643 -5.4781871e-22)
(2.6004509 -0.0086728523 -1.2452138e-21)
(2.5978986 -0.0064889996 2.9159112e-22)
(2.5948349 -0.0051719811 -8.3079494e-22)
(2.5925446 -0.0039527079 2.1125682e-22)
(2.59012 -0.003298598 2.0873803e-23)
(2.5882677 -0.0025855055 -2.074086e-21)
(2.5863864 -0.0021963713 -5.1016226e-22)
(2.5848655 -0.0016592168 6.5334245e-22)
(2.5833025 -0.0012691482 -7.1942006e-22)
(2.5820959 -0.00090492469 -1.6891741e-21)
(2.580823 -0.00066917741 -9.9066862e-22)
(2.5797962 -0.00028757586 -6.206362e-22)
(2.5786729 5.0108014e-05 2.9673917e-22)
(2.5779774 0.00010267962 -2.7051413e-22)
(2.5772085 4.2605483e-05 -1.1334842e-21)
(2.5766898 0.0002374577 -2.5878388e-21)
(2.5760806 0.00038842286 -1.5257524e-21)
(2.5962784 -0.044586299 3.9232553e-21)
(2.5839158 -0.036761071 1.8318597e-20)
(2.5740089 -0.030302449 1.720125e-20)
(2.5685071 -0.038464915 1.4877163e-20)
(2.5647135 -0.04392998 2.3941918e-20)
(2.5704978 -0.05212074 7.9568734e-21)
(2.5746471 -0.057416656 1.7684425e-20)
(2.5848479 -0.059836365 2.2178001e-20)
(2.5924847 -0.060602783 4.7251232e-21)
(2.602183 -0.056276364 6.2207869e-21)
(2.6090046 -0.052218813 6.1634917e-21)
(2.6140665 -0.044005986 -6.8241241e-22)
(2.6174162 -0.037469178 -3.996248e-21)
(2.6173422 -0.028994139 -3.6519919e-21)
(2.617021 -0.02259973 1.2756162e-22)
(2.6136183 -0.016427474 2.2609555e-21)
(2.611047 -0.011823067 1.811201e-21)
(2.6067025 -0.0084655676 2.0836191e-21)
(2.6035331 -0.0058361507 1.4737815e-21)
(2.5997161 -0.0044409099 1.267655e-21)
(2.5969054 -0.0031551628 2.0578645e-22)
(2.5940132 -0.0026858803 -4.6519749e-22)
(2.5917802 -0.0020367894 -6.5480922e-22)
(2.5896122 -0.0018085906 -1.0230945e-21)
(2.5878743 -0.0013978834 4.7377661e-22)
(2.5861722 -0.0011957033 3.8959756e-22)
(2.584724 -0.0008157228 -9.1539609e-22)
(2.5832404 -0.00051883567 -1.2828031e-21)
(2.5820577 -0.00025487491 -6.1707571e-22)
(2.5808049 -8.7832849e-05 2.3584802e-22)
(2.5797578 0.00021359942 1.1173911e-21)
(2.578607 0.00047487542 1.2076253e-21)
(2.5778914 0.00046004452 4.0970768e-22)
(2.5770858 0.00030494844 1.4802869e-22)
(2.5765214 0.00040239571 1.1925138e-21)
(2.5758796 0.00047262759 1.8926829e-21)
(2.6028119 -0.04085054 -2.0787422e-21)
(2.5859588 -0.031465152 -1.4131447e-20)
(2.5724969 -0.023798876 -7.1556955e-22)
(2.5646147 -0.034691298 3.5411946e-22)
(2.5585962 -0.042461814 -2.0652049e-21)
(2.5645638 -0.054046096 -1.0211967e-20)
(2.5689272 -0.062009301 -2.5820974e-20)
(2.5814413 -0.06684927 1.558051e-20)
(2.5909393 -0.06938679 1.9816182e-20)
(2.6036971 -0.065480344 1.2844786e-21)
(2.6128708 -0.061583078 2.6460788e-21)
(2.6202714 -0.052027472 5.2673213e-21)
(2.6253409 -0.044357094 -1.2305745e-21)
(2.6260611 -0.03375811 -1.1450247e-21)
(2.6262832 -0.025748165 -7.6168153e-22)
(2.6223144 -0.017814903 -8.9743581e-22)
(2.6193077 -0.011933933 1.1208438e-21)
(2.6138338 -0.0077256498 1.1011304e-21)
(2.6098695 -0.0044942241 1.3644586e-21)
(2.6050571 -0.0030178311 5.7651607e-22)
(2.601549 -0.0016472453 3.4313331e-22)
(2.5980374 -0.001441551 2.5380629e-21)
(2.5953723 -0.00094833292 1.9436621e-21)
(2.5929227 -0.0010424614 9.2359113e-22)
(2.5909213 -0.00079172535 5.9586637e-22)
(2.5890687 -0.00077320599 9.808862e-22)
(2.5874932 -0.00054083784 9.0797654e-22)
(2.5859542 -0.00040627884 1.0013433e-21)
(2.5845755 -0.00011702641 6.8021706e-22)
(2.5831447 0.00013992018 4.7287215e-22)
(2.5819776 0.00033571902 1.2970738e-21)
(2.5807283 0.00045435307 9.6821699e-22)
(2.5796545 0.00067689991 1.0517242e-21)
(2.5784807 0.0008741786 9.9965911e-22)
(2.5777287 0.00078644841 7.5964815e-22)
(2.5768815 0.00054376542 6.782911e-24)
(2.5762812 0.00055919429 6.5444991e-22)
(2.5756109 0.00056450917 2.7105562e-22)
(2.6099645 -0.036065888 -5.8214069e-21)
(2.5880723 -0.024733301 -2.1143211e-20)
(2.5705329 -0.015524823 -3.2796076e-20)
(2.5596934 -0.029368284 -3.8149957e-20)
(2.5508542 -0.039716978 -3.7620842e-20)
(2.5567534 -0.055369545 2.1618569e-21)
(2.5611222 -0.066573277 -5.5399817e-21)
(2.5761863 -0.074477062 -2.3036393e-20)
(2.5878249 -0.079338837 1.6229204e-20)
(2.6042782 -0.076216286 2.5280368e-20)
(2.6163207 -0.072741542 7.7899404e-21)
(2.6267465 -0.061745701 1.7768376e-21)
(2.6340961 -0.052809069 4.2557503e-21)
(2.6360093 -0.039590943 4.5576338e-22)
(2.6370722 -0.029549867 5.7707552e-22)
(2.6324821 -0.019288987 -1.140122e-22)
(2.6289886 -0.011707588 -2.3395413e-22)
(2.6220537 -0.0063370465 -4.5968016e-22)
(2.617045 -0.0022711815 -5.1343421e-22)
(2.6108967 -0.0006796581 -1.8739922e-22)
(2.6064608 0.00078703127 -9.6979672e-22)
(2.6021443 0.00059174888 -1.2130354e-22)
(2.5989017 0.00084313785 1.9757577e-21)
(2.5961067 0.00028493572 1.5798e-21)
(2.5938423 0.00024188979 6.0777275e-22)
(2.5919228 -8.3699222e-05 7.3364095e-22)
(2.5902044 -4.0952057e-05 1.0975084e-21)
(2.5886374 -4.5723127e-05 2.7702407e-22)
(2.5872034 0.00011464505 3.6137456e-22)
(2.5857781 0.00026108131 1.1311644e-21)
(2.584441 0.00050715755 9.4201519e-22)
(2.583029 0.00074600624 1.0711783e-21)
(2.581861 0.00089956687 7.5629787e-22)
(2.5805909 0.00096980312 3.5248902e-22)
(2.5794936 0.0011224232 2.9355116e-22)
(2.5782911 0.0012523317 -3.8285702e-22)
(2.5774978 0.0010868601 -1.1123529e-21)
(2.5766111 0.00075614977 -5.3655548e-22)
(2.5759834 0.00070511106 -9.1648051e-22)
(2.575285 0.00065153298 -8.4948786e-22)
(2.6177083 -0.03025461 -3.7736366e-21)
(2.5902778 -0.016533737 1.1297387e-20)
(2.5681615 -0.0054164035 -2.9948072e-21)
(2.5537505 -0.022412437 -1.0097978e-20)
(2.5414237 -0.035548125 -1.4876052e-20)
(2.5469392 -0.055943253 1.7440499e-23)
(2.5510592 -0.071027305 3.8179032e-20)
(2.5688739 -0.082740692 3.7840965e-21)
(2.5828829 -0.090548016 -1.2670965e-20)
(2.6036926 -0.088656512 1.366466e-20)
(2.619186 -0.085946266 2.2214599e-20)
(2.6334471 -0.073462147 5.9310373e-21)
(2.6437355 -0.063164963 2.0740366e-22)
(2.6473651 -0.04677175 4.7530029e-21)
(2.6496779 -0.034222632 1.1580791e-21)
(2.6444466 -0.020936321 2.5558323e-21)
(2.6404261 -0.011105523 1.9147507e-21)
(2.6316181 -0.0041405659 -5.4783121e-23)
(2.6252508 0.0010667388 -2.6185514e-22)
(2.6173172 0.0028206796 1.1825586e-21)
(2.6116297 0.0044262095 1.5146898e-21)
(2.6062248 0.0036594706 5.4773394e-22)
(2.6022284 0.0035487866 1.4032718e-21)
(2.5990142 0.0023012697 -1.7189405e-22)
(2.5964266 0.0018305914 -5.6582161e-22)
(2.5944538 0.00099960946 3.2674643e-22)
(2.5926721 0.00073625718 4.3940812e-22)
(2.5911985 0.0004395702 9.6364142e-22)
(2.5897383 0.00045901762 1.8313825e-22)
(2.5883529 0.0005241022 -1.006488e-21)
(2.5870213 0.00069691286 -2.9470396e-22)
(2.5856407 0.00087663831 3.5280873e-22)
(2.5843192 0.0011023123 4.6734275e-22)
(2.5828967 0.0013245428 6.9770904e-22)
(2.5817071 0.0014368495 3.1393706e-22)
(2.5804028 0.0014613104 -2.6440635e-22)
(2.5792764 0.001546355 -9.1331537e-22)
(2.5780409 0.0016084448 -5.1881055e-22)
(2.5772085 0.0013634243 3.5300389e-23)
(2.5762864 0.00097084948 2.2448008e-22)
(2.5756305 0.00085876835 3.0377065e-22)
(2.5749031 0.00072447071 6.0579437e-22)
(2.6258168 -0.023462909 -1.0799563e-21)
(2.5925671 -0.006880035 1.9592819e-20)
(2.5654292 0.0065552064 3.4172343e-20)
(2.546802 -0.013703054 2.0393533e-20)
(2.5302668 -0.029822254 1.3967484e-20)
(2.5350281 -0.055669909 -1.1470273e-21)
(2.5385833 -0.075277437 1.3142438e-20)
(2.5592958 -0.091607546 3.5588016e-20)
(2.5758719 -0.10306317 2.9641697e-21)
(2.6017166 -0.10295517 -4.1168305e-20)
(2.6212671 -0.10143924 -1.6607154e-20)
(2.6402915 -0.087490671 1.6160037e-20)
(2.6542891 -0.075783934 6.4674697e-22)
(2.6603111 -0.055620703 -4.545342e-21)
(2.6644114 -0.040027377 -3.0104368e-22)
(2.6585672 -0.022853589 -1.8370945e-21)
(2.6540167 -0.01009547 -5.8172323e-22)
(2.6428435 -0.00097881959 2.594863e-21)
(2.634726 0.0057923336 7.532459e-22)
(2.6244269 0.0078006207 1.6504465e-21)
(2.617062 0.0095971545 3.045758e-21)
(2.6102019 0.0080438593 1.1306121e-21)
(2.6051835 0.0074165671 2.256919e-22)
(2.6014266 0.0051981983 -1.8496422e-21)
(2.5984482 0.0040922782 -3.3919403e-21)
(2.5964876 0.0025371018 -6.6857465e-22)
(2.5946594 0.0018079541 1.7628274e-22)
(2.5933781 0.0011113232 3.9426736e-22)
(2.5920083 0.00087891836 8.8855498e-22)
(2.5908231 0.00077885774 1.0374319e-21)
(2.5895285 0.00087096587 -7.8839068e-23)
(2.5882177 0.001055684 3.5201533e-22)
(2.5869235 0.0012644461 9.7495033e-22)
(2.5855293 0.001481942 -7.9924703e-22)
(2.584195 0.0016891634 -5.9742032e-22)
(2.5827373 0.0018854051 -1.4338551e-22)
(2.5815139 0.0019525254 -6.9754069e-22)
(2.580168 0.0019277472 -1.7245886e-22)
(2.5790081 0.0019449476 2.1179959e-22)
(2.5777356 0.0019392046 2.4945494e-22)
(2.5768722 0.0016387915 4.3178392e-22)
(2.5759163 0.0011772891 2.1543071e-22)
(2.5752335 0.0009835519 5.005724e-22)
(2.5744823 0.00078496086 3.337173e-22)
(2.6336669 -0.015789332 3.6685912e-21)
(2.5947609 0.0041679213 8.9886997e-21)
(2.562374 0.020382247 2.8701969e-20)
(2.5388613 -0.0032084834 3.7209453e-20)
(2.5173507 -0.022426377 2.4196969e-20)
(2.5209501 -0.054411414 -9.9916369e-21)
(2.523577 -0.079216685 -2.4605625e-20)
(2.5472608 -0.10102073 -6.1053364e-21)
(2.5665525 -0.11689368 1.4899146e-20)
(2.5981105 -0.11923052 5.6364629e-21)
(2.6223396 -0.11943247 -3.6141334e-20)
(2.6471723 -0.10413085 -2.3210215e-20)
(2.6657516 -0.09103467 7.7552628e-21)
(2.6750062 -0.066482411 3.3242652e-21)
(2.6815883 -0.047267833 -1.5606988e-21)
(2.6752426 -0.025185208 -1.4731322e-21)
(2.6702097 -0.0086608257 -2.9380847e-21)
(2.656098 0.0033354667 -5.0011587e-21)
(2.6457587 0.012219295 -2.062567e-21)
(2.6323629 0.01461055 -2.5810522e-21)
(2.6227657 0.016693142 -1.7546379e-21)
(2.613967 0.014091752 2.3370837e-21)
(2.6075744 0.012746236 5.1176514e-22)
(2.6031168 0.0091916416 1.3529867e-21)
(2.5996278 0.0071815335 -6.1275842e-22)
(2.5977242 0.0046108175 -2.9038276e-21)
(2.5959077 0.0032087026 -3.2461964e-22)
(2.5949748 0.0019481272 -4.9570042e-22)
(2.5937848 0.0013421586 -2.9822971e-22)
(2.5929293 0.0010206997 1.6910335e-22)
(2.5918212 0.00097171715 3.0040535e-22)
(2.5907397 0.0011237157 6.9840636e-22)
(2.5895092 0.0013257424 1.1175791e-21)
(2.5881767 0.0016173238 5.8739771e-22)
(2.5868663 0.0018570724 -1.0976365e-21)
(2.5854187 0.0020900205 -1.2332988e-21)
(2.5840496 0.0022691773 -8.110998e-22)
(2.5825438 0.0024254204 -1.9929109e-22)
(2.5812804 0.0024424263 3.0545824e-22)
(2.5798904 0.0023648385 1.1246188e-21)
(2.578698 0.002315099 1.1728965e-21)
(2.5773937 0.0022414761 -7.5009054e-23)
(2.5764967 0.0018776836 -2.8744664e-22)
(2.5755078 0.0013558058 1.3248671e-22)
(2.5748022 0.0010971778 -3.0716995e-23)
(2.5740307 0.0008375052 -4.756868e-22)
(2.6406697 -0.0073938604 2.4401666e-21)
(2.5963182 0.016530234 -1.1980314e-20)
(2.5588878 0.036008759 -7.1438857e-21)
(2.529846 0.0091169768 1.827194e-20)
(2.5025534 -0.01328131 2.6195655e-20)
(2.504685 -0.052080584 6.1112658e-21)
(2.5059979 -0.08274245 -2.6497355e-20)
(2.5326393 -0.11090206 -4.0155407e-22)
(2.5547253 -0.13201075 1.7439195e-20)
(2.5926325 -0.13754708 -1.3758564e-20)
(2.6221628 -0.14009434 -2.2897212e-20)
(2.6539318 -0.12366304 -1.3251494e-20)
(2.6780611 -0.10928095 -6.8429133e-22)
(2.691582 -0.079717484 4.7815543e-21)
(2.7015106 -0.056284092 5.4173979e-22)
(2.6948745 -0.028087685 -1.1567517e-21)
(2.6894937 -0.0068018317 -1.0469283e-21)
(2.6717973 0.0089847609 1.7793911e-21)
(2.6586787 0.020699216 -1.2377518e-22)
(2.6412864 0.023665111 1.4957545e-21)
(2.6287558 0.02617583 1.0728459e-21)
(2.6173944 0.022198579 -5.3968269e-22)
(2.6091649 0.019892285 3.3764318e-21)
(2.6037912 0.014529473 2.1548755e-21)
(2.5996403 0.011267926 2.9749452e-21)
(2.5978659 0.0073110064 2.7391038e-21)
(2.5961045 0.0049535331 6.0386006e-22)
(2.5956978 0.0029153581 -4.672259e-22)
(2.5948355 0.0017832564 -6.2689892e-22)
(2.5945094 0.0011619069 -1.5786252e-22)
(2.5937114 0.00090482548 2.8720176e-22)
(2.5929916 0.0010255195 2.8917653e-22)
(2.5919746 0.0012092786 6.6510097e-22)
(2.5908428 0.0015793893 -7.2647366e-22)
(2.5895877 0.0018772318 -1.2528231e-21)
(2.5881694 0.0022292858 -3.0401526e-22)
(2.5868068 0.0024764074 -4.2429646e-22)
(2.5852864 0.002694262 -3.1153659e-22)
(2.5838712 0.002831465 2.7405658e-22)
(2.5823139 0.0029353451 -2.7994656e-22)
(2.5810091 0.0028980948 4.8826921e-22)
(2.5795769 0.002766635 1.4446918e-21)
(2.5783533 0.0026512292 2.6484924e-22)
(2.5770171 0.0025139883 9.2904421e-23)
(2.576089 0.0020945071 4.9636458e-22)
(2.5750695 0.0015196205 1.6052821e-22)
(2.5743445 0.0012000877 -2.5912867e-22)
(2.5735555 0.00088423444 -1.5233306e-22)
(2.6473813 0.0015187786 2.1798332e-21)
(2.5971941 0.029930626 7.4615428e-21)
(2.5549503 0.053255018 -6.1335671e-21)
(2.519695 0.023163012 -3.3346168e-20)
(2.4858242 -0.0023594439 -9.6103585e-21)
(2.4862044 -0.048608468 -4.1733527e-20)
(2.4859386 -0.085790824 -6.1673559e-20)
(2.5154685 -0.12120285 6.5498511e-21)
(2.5403431 -0.14839031 3.1712312e-20)
(2.5852151 -0.15795229 -3.6348848e-21)
(2.6206359 -0.16356747 -3.3479281e-20)
(2.6604522 -0.14633869 -1.3950089e-20)
(2.6911571 -0.13087546 -4.6833487e-21)
(2.7101313 -0.095711391 -2.9684556e-21)
(2.7244718 -0.067453742 2.2249017e-21)
(2.717883 -0.031753459 3.705692e-21)
(2.7123965 -0.0045408632 2.1386804e-21)
(2.6903782 0.016185343 1.1702794e-21)
(2.6738435 0.031624219 3.8797093e-21)
(2.6513644 0.0354222 -2.5675477e-22)
(2.6350405 0.038567264 1.2767081e-21)
(2.6203459 0.032821092 -2.3588013e-21)
(2.6096819 0.029256479 -3.9415929e-21)
(2.603116 0.021496636 -6.323009e-21)
(2.5980954 0.016539659 -7.6144448e-21)
(2.5965317 0.010716004 8.9409244e-22)
(2.5948935 0.0070508575 6.4186823e-22)
(2.5952473 0.0039672413 1.5769174e-21)
(2.5948817 0.002101268 5.7890435e-22)
(2.5953246 0.0010797792 6.9522308e-22)
(2.5950282 0.00053727258 1.1581555e-21)
(2.5948688 0.00064043459 -5.8004446e-22)
(2.5941909 0.00079339623 -5.9135481e-22)
(2.5933671 0.0012883679 3.2805336e-23)
(2.5922977 0.0016711124 -1.2954627e-21)
(2.5910166 0.0021734931 -4.3270343e-22)
(2.589678 0.0025214357 4.7159664e-22)
(2.5881457 0.0028767103 2.4576012e-22)
(2.5867137 0.0031013031 3.6056995e-22)
(2.585119 0.0032768883 1.6837617e-22)
(2.5836553 0.0033602069 -3.588915e-22)
(2.5820501 0.0034048393 -1.426537e-22)
(2.5807057 0.0033121755 7.556166e-22)
(2.5792342 0.003129232 8.1476821e-22)
(2.5779809 0.0029526581 6.5952819e-22)
(2.5766148 0.002757331 7.6489069e-22)
(2.5756578 0.0022885664 4.4968138e-22)
(2.574609 0.0016678364 3.9814427e-22)
(2.5738674 0.0012927932 5.0804885e-22)
(2.5730628 0.00092544529 2.7698336e-22)
(2.6535602 0.010829557 -6.1972864e-21)
(2.5985065 0.044176724 -5.581901e-21)
(2.5511009 0.071855708 -6.7933585e-22)
(2.5088106 0.038819575 -7.9779903e-21)
(2.4675733 0.010293353 -3.3777911e-20)
(2.4656348 -0.044078947 -5.9219662e-21)
(2.4635844 -0.088355834 -3.6342151e-20)
(2.4958787 -0.13188033 -9.7950361e-20)
(2.5234769 -0.16600217 -3.3794263e-20)
(2.5759277 -0.18051907 8.1865682e-20)
(2.6178198 -0.18997479 4.9038998e-20)
(2.6668108 -0.17237788 -1.3984924e-20)
(2.7050794 -0.15615886 4.7892609e-21)
(2.7308102 -0.11488164 5.640815e-22)
(2.7507918 -0.081230005 2.3012023e-21)
(2.7447941 -0.036455302 5.0376786e-21)
(2.7395841 -0.0019533227 6.4494413e-21)
(2.7123768 0.025134884 6.4029145e-21)
(2.6916936 0.045416802 5.5537191e-21)
(2.6627624 0.050404573 -3.5648445e-21)
(2.641603 0.054448977 -7.6079951e-21)
(2.6226369 0.046468619 -1.1850373e-20)
(2.608798 0.0412882 -1.5501524e-20)
(2.6007061 0.030401667 -1.0194153e-20)
(2.5945477 0.023194223 -1.2560115e-20)
(2.5932991 0.014911476 -7.6994095e-21)
(2.5918604 0.0094813574 3.5473881e-22)
(2.5932692 0.0050081586 -2.3489148e-21)
(2.5936213 0.0021501053 -1.4996227e-21)
(2.5951511 0.00061487324 2.3657088e-21)
(2.5955772 -0.0003178917 2.5006438e-21)
(2.5962194 -0.00021295984 -1.1306063e-21)
(2.596065 -8.5218128e-05 -2.8104269e-21)
(2.5957097 0.00062081982 -1.0404737e-21)
(2.5949273 0.001120157 -4.5476972e-22)
(2.5938489 0.0018428076 -2.0006485e-22)
(2.5926353 0.0023418445 6.3590247e-22)
(2.5911655 0.0028750581 3.5121346e-22)
(2.5897182 0.0032175419 1.3538834e-22)
(2.5880742 0.0035255469 8.2514664e-23)
(2.5865722 0.0037016587 -1.0357585e-22)
(2.5849132 0.0038178193 8.2747762e-22)
(2.583405 0.003840973 1.0488893e-21)
(2.5817588 0.0038262525 1.1611267e-22)
(2.580378 0.0036809883 1.6340642e-22)
(2.5788705 0.003452207 -3.4509118e-22)
(2.5775892 0.0032204776 -2.5908171e-22)
(2.5761942 0.0029736906 6.0523743e-22)
(2.5752099 0.0024621295 5.5803976e-22)
(2.574133 0.0018022778 3.7188004e-22)
(2.5733767 0.001376814 1.5086936e-22)
(2.572558 0.00096194151 1.4063102e-22)
(2.6541055 0.020164673 -1.3673581e-20)
(2.6000448 0.059336577 8.8552157e-22)
(2.5484648 0.091663635 1.5572504e-21)
(2.4978473 0.055803149 3.9631503e-20)
(2.448362 0.02460969 3.3271986e-20)
(2.4434038 -0.03836833 -3.1292255e-20)
(2.439101 -0.090399381 -4.8824756e-21)
(2.4738397 -0.14279789 -4.6546334e-20)
(2.50403 -0.18466482 -1.0506026e-19)
(2.5643966 -0.20507209 -5.5465847e-20)
(2.6133555 -0.21927538 5.3845877e-20)
(2.6727514 -0.20176935 6.0076114e-20)
(2.7195691 -0.18516128 4.885296e-22)
(2.7531115 -0.13745291 6.8542424e-21)
(2.7800768 -0.097955344 2.8775295e-21)
(2.7757829 -0.042535683 5.0464775e-22)
(2.7714496 0.00075708582 3.0459458e-21)
(2.7386489 0.035933394 -5.6930142e-21)
(2.7129401 0.062474478 -5.8931505e-21)
(2.6758206 0.069149212 4.8145968e-21)
(2.6485119 0.074455761 -3.8814645e-21)
(2.6240322 0.063698037 5.0507963e-21)
(2.6061165 0.056475343 1.2029058e-21)
(2.5961032 0.041578252 -3.033547e-21)
(2.5884806 0.031433773 2.1497333e-21)
(2.5876885 0.019957863 -4.4531259e-21)
(2.5865486 0.01219886 2.560881e-22)
(2.5893763 0.0059301965 -3.4340745e-21)
(2.5907244 0.0017508341 -6.0464136e-21)
(2.5937143 -0.00045695027 -2.2910352e-21)
(2.595163 -0.0018761354 1.3639161e-21)
(2.5968983 -0.0017523336 2.1551351e-21)
(2.597502 -0.0016332689 -1.2930505e-21)
(2.5978002 -0.00062384305 -5.8895966e-22)
(2.597459 6.9362651e-05 1.1201786e-21)
(2.5966849 0.0011373426 -1.2197424e-22)
(2.5956583 0.0018459973 1.3051048e-22)