/*--------------------------------*- C++ -*----------------------------------*\
| =========                 |                                                 |
| \\      /  F ield         | OpenFOAM: The Open Source CFD Toolbox           |
|  \\    /   O peration     | Version:  v2012                                 |
|   \\  /    A nd           | Website:  www.openfoam.com                      |
|    \\/     M anipulation  |                                                 |
\*---------------------------------------------------------------------------*/
FoamFile
{
    version     2.0;
    format      ascii;
    class       volVectorField;
    location    "51.4666819687525106";
    object      cellDisplacement;
}
// * * * * * * * * * * * * * * * * * * * * * * * * * * * * * * * * * * * * * //

dimensions      [0 1 0 0 0 0 0];


internalField   nonuniform List<vector> 
9200
(
(-0.050324964 0 0)
(-0.050518352 0 0)
(-0.14589259 0 0)
(-0.050824829 0 0)
(-0.14638306 0 0)
(-0.23462076 0 0)
(-0.051188584 0 0)
(-0.14717809 0 0)
(-0.23535889 0 0)
(-0.31687806 0 0)
(-0.051582069 0 0)
(-0.1481484 0 0)
(-0.23657093 0 0)
(-0.31782338 0 0)
(-0.39301436 0 0)
(-0.051986802 0 0)
(-0.14921461 0 0)
(-0.23807578 0 0)
(-0.31943013 0 0)
(-0.39418628 0 0)
(-0.46347488 0 0)
(-0.052385232 0 0)
(-0.15031043 0 0)
(-0.23971728 0 0)
(-0.32138353 0 0)
(-0.39610041 0 0)
(-0.46480133 0 0)
(-0.52858695 0 0)
(-0.052770226 0 0)
(-0.15140049 0 0)
(-0.24141743 0 0)
(-0.3235554 0 0)
(-0.39852317 0 0)
(-0.4670802 0 0)
(-0.53012106 0 0)
(-0.5887758 0 0)
(-0.053131826 0 0)
(-0.1524488 0 0)
(-0.24310577 0 0)
(-0.32580059 0 0)
(-0.40118323 0 0)
(-0.46989827 0 0)
(-0.5326807 0 0)
(-0.59046228 0 0)
(-0.64433397 0 0)
(-0.053468797 0 0)
(-0.15344232 0 0)
(-0.24473714 0 0)
(-0.32803497 0 0)
(-0.40394658 0 0)
(-0.47304066 0 0)
(-0.53593327 0 0)
(-0.59336524 0 0)
(-0.64622182 0 0)
(-0.69563108 0 0)
(-0.053776495 0 0)
(-0.1543624 0 0)
(-0.24627975 0 0)
(-0.33019803 0 0)
(-0.40670075 0 0)
(-0.47631296 0 0)
(-0.53955978 0 0)
(-0.5970167 0 0)
(-0.64941104 0 0)
(-0.69768056 0 0)
(-0.74292438 0 0)
(-0.054056708 0 0)
(-0.15520957 0 0)
(-0.24771405 0 0)
(-0.33224193 0 0)
(-0.40936547 0 0)
(-0.47957443 0 0)
(-0.54333405 0 0)
(-0.60111754 0 0)
(-0.65349659 0 0)
(-0.70121581 0 0)
(-0.74517636 0 0)
(-0.78653196 0 0)
(-0.054307894 0 0)
(-0.15597516 0 0)
(-0.24902926 0 0)
(-0.33414616 0 0)
(-0.4118911 0 0)
(-0.48273296 0 0)
(-0.54710173 0 0)
(-0.60540234 0 0)
(-0.6580784 0 0)
(-0.70569882 0 0)
(-0.74901028 0 0)
(-0.78895798 0 0)
(-0.82667707 0 0)
(-0.054533127 0 0)
(-0.15666717 0 0)
(-0.25022316 0 0)
(-0.33588964 0 0)
(-0.41423926 0 0)
(-0.48572619 0 0)
(-0.55075496 0 0)
(-0.60969041 0 0)
(-0.66289368 0 0)
(-0.71078014 0 0)
(-0.7539395 0 0)
(-0.7931445 0 0)
(-0.8293088 0 0)
(-0.86363173 0 0)
(-0.054732699 0 0)
(-0.15728237 0 0)
(-0.25129556 0 0)
(-0.33747368 0 0)
(-0.41639724 0 0)
(-0.4885131 0 0)
(-0.55421618 0 0)
(-0.61384496 0 0)
(-0.6676979 0 0)
(-0.71609861 0 0)
(-0.75949702 0 0)
(-0.79848414 0 0)
(-0.83381288 0 0)
(-0.86644937 0 0)
(-0.89759033 0 0)
(-0.054909761 0 0)
(-0.15783171 0 0)
(-0.25225399 0 0)
(-0.33889372 0 0)
(-0.41835209 0 0)
(-0.49107218 0 0)
(-0.55744319 0 0)
(-0.61778571 0 0)
(-0.67236876 0 0)
(-0.72145711 0 0)
(-0.7653746 0 0)
(-0.80455785 0 0)
(-0.83961414 0 0)
(-0.87131649 0 0)
(-0.90061766 0 0)
(-0.92878706 0 0)
(-0.055065546 0 0)
(-0.15831471 0 0)
(-0.25310252 0 0)
(-0.3401614 0 0)
(-0.42011162 0 0)
(-0.4933952 0 0)
(-0.56040568 0 0)
(-0.62146231 0 0)
(-0.67680621 0 0)
(-0.72665979 0 0)
(-0.77126984 0 0)
(-0.81095812 0 0)
(-0.84618809 0 0)
(-0.87755122 0 0)
(-0.9058209 0 0)
(-0.93200979 0 0)
(-0.95739051 0 0)
(-0.055202635 0 0)
(-0.15874195 0 0)
(-0.25385229 0 0)
(-0.34128099 0 0)
(-0.42167677 0 0)
(-0.49548247 0 0)
(-0.56309785 0 0)
(-0.62484162 0 0)
(-0.6809458 0 0)
(-0.731608 0 0)
(-0.77702532 0 0)
(-0.81743532 0 0)
(-0.85316831 0 0)
(-0.88466453 0 0)
(-0.91253558 0 0)
(-0.93758511 0 0)
(-0.96082557 0 0)
(-0.98360256 0 0)
(-0.055322892 0 0)
(-0.15911504 0 0)
(-0.25450981 0 0)
(-0.34226907 0 0)
(-0.42306512 0 0)
(-0.49734405 0 0)
(-0.56551604 0 0)
(-0.62791448 0 0)
(-0.6847619 0 0)
(-0.73623674 0 0)
(-0.78251107 0 0)
(-0.82376704 0 0)
(-0.86022204 0 0)
(-0.89220143 0 0)
(-0.92017863 0 0)
(-0.94475546 0 0)
(-0.96675189 0 0)
(-0.98723926 0 0)
(-1.0075706 0 0)
(-0.05542817 0 0)
(-0.15944281 0 0)
(-0.2550865 0 0)
(-0.34313215 0 0)
(-0.42428408 0 0)
(-0.4989904 0 0)
(-0.56767361 0 0)
(-0.63067838 0 0)
(-0.68823003 0 0)
(-0.740502 0 0)
(-0.78764757 0 0)
(-0.82981099 0 0)
(-0.86714413 0 0)
(-0.89986812 0 0)
(-0.92832197 0 0)
(-0.95295926 0 0)
(-0.97441645 0 0)
(-0.99354361 0 0)
(-1.0114204 0 0)
(-1.02947 0 0)
(-0.055520446 0 0)
(-0.15972794 0 0)
(-0.25558883 0 0)
(-0.34388797 0 0)
(-0.42535422 0 0)
(-0.50044013 0 0)
(-0.56958114 0 0)
(-0.63314523 0 0)
(-0.69135925 0 0)
(-0.74439179 0 0)
(-0.79238894 0 0)
(-0.83547871 0 0)
(-0.87377165 0 0)
(-0.9074036 0 0)
(-0.93659621 0 0)
(-0.96169221 0 0)
(-0.98317543 0 0)
(-1.0016804 0 0)
(-1.018085 0 0)
(-1.0335238 0 0)
(-1.0494294 0 0)
(-0.055600992 0 0)
(-0.15997706 0 0)
(-0.25602636 0 0)
(-0.34454289 0 0)
(-0.42628503 0 0)
(-0.50170771 0 0)
(-0.5712606 0 0)
(-0.63532933 0 0)
(-0.6941501 0 0)
(-0.74789763 0 0)
(-0.79671623 0 0)
(-0.84072164 0 0)
(-0.87999964 0 0)
(-0.91463806 0 0)
(-0.94476404 0 0)
(-0.97061176 0 0)
(-0.99253997 0 0)
(-1.0110187 0 0)
(-1.0267249 0 0)
(-1.0405675 0 0)
(-1.0536941 0 0)
(-1.0676014 0 0)
(-0.055671788 0 0)
(-0.16019367 0 0)
(-0.25640619 0 0)
(-0.34511486 0 0)
(-0.42709654 0 0)
(-0.50281393 0 0)
(-0.57272825 0 0)
(-0.63725186 0 0)
(-0.69662843 0 0)
(-0.75103652 0 0)
(-0.80062455 0 0)
(-0.84551054 0 0)
(-0.88576905 0 0)
(-0.92144976 0 0)
(-0.95262269 0 0)
(-0.97942589 0 0)
(-1.0020979 0 0)
(-1.021 0 0)
(-1.0366366 0 0)
(-1.0496891 0 0)
(-1.0611012 0 0)
(-1.0720688 0 0)
(-1.0840992 0 0)
(-0.05573355 0 0)
(-0.16038241 0 0)
(-0.25673494 0 0)
(-0.34560759 0 0)
(-0.42779796 0 0)
(-0.50377338 0 0)
(-0.57400786 0 0)
(-0.63893473 0 0)
(-0.69880836 0 0)
(-0.75381955 0 0)
(-0.80412469 0 0)
(-0.84984531 0 0)
(-0.89104818 0 0)
(-0.92776924 0 0)
(-0.96004188 0 0)
(-0.98793106 0 0)
(-1.0115773 0 0)
(-1.0312323 0 0)
(-1.0472685 0 0)
(-1.0601899 0 0)
(-1.0707274 0 0)
(-1.079851 0 0)
(-1.0887725 0 0)
(-1.0990561 0 0)
(-0.055788033 0 0)
(-0.16054699 0 0)
(-0.25702012 0 0)
(-0.34603843 0 0)
(-0.42840718 0 0)
(-0.50460539 0 0)
(-0.57511705 0 0)
(-0.64040107 0 0)
(-0.70072147 0 0)
(-0.75627729 0 0)
(-0.80723549 0 0)
(-0.85372985 0 0)
(-0.89583345 0 0)
(-0.93356622 0 0)
(-0.96694004 0 0)
(-0.99598192 0 0)
(-1.0207497 0 0)
(-1.0413921 0 0)
(-1.0581677 0 0)
(-1.0714592 0 0)
(-1.0818104 0 0)
(-1.0899603 0 0)
(-1.0969147 0 0)
(-1.1039272 0 0)
(-1.1125714 0 0)
(-0.055835625 0 0)
(-0.1606906 0 0)
(-0.25726673 0 0)
(-0.34640864 0 0)
(-0.42893208 0 0)
(-0.50532372 0 0)
(-0.57607811 0 0)
(-0.64167424 0 0)
(-0.70238715 0 0)
(-0.75842994 0 0)
(-0.80998151 0 0)
(-0.8571891 0 0)
(-0.90013028 0 0)
(-0.9388262 0 0)
(-0.97327841 0 0)
(-1.0034829 0 0)
(-1.0294498 0 0)
(-1.0512443 0 0)
(-1.0690216 0 0)
(-1.0830535 0 0)
(-1.093741 0 0)
(-1.1016343 0 0)
(-1.1075228 0 0)
(-1.112435 0 0)
(-1.1176405 0 0)
(-1.1247619 0 0)
(-0.055877773 0 0)
(-0.16081672 0 0)
(-0.25748142 0 0)
(-0.34673334 0 0)
(-0.42938751 0 0)
(-0.50594435 0 0)
(-0.57690708 0 0)
(-0.64277588 0 0)
(-0.70383654 0 0)
(-0.7603118 0 0)
(-0.81239309 0 0)
(-0.86024467 0 0)
(-0.90396116 0 0)
(-0.94356142 0 0)
(-0.97904009 0 0)
(-1.0103855 0 0)
(-1.0375787 0 0)
(-1.060619 0 0)
(-1.0795736 0 0)
(-1.0946147 0 0)
(-1.1060202 0 0)
(-1.1142112 0 0)
(-1.1197781 0 0)
(-1.1235197 0 0)
(-1.1264994 0 0)
(-1.1300209 0 0)
(-1.135715 0 0)
(-0.055914808 0 0)
(-0.16092725 0 0)
(-0.2576676 0 0)
(-0.34701288 0 0)
(-0.42978014 0 0)
(-0.50647968 0 0)
(-0.57762353 0 0)
(-0.64372794 0 0)
(-0.70508978 0 0)
(-0.76194575 0 0)
(-0.81449942 0 0)
(-0.86293275 0 0)
(-0.90735225 0 0)
(-0.94778676 0 0)
(-0.98423594 0 0)
(-1.0166772 0 0)
(-1.0450751 0 0)
(-1.0693977 0 0)
(-1.0896381 0 0)
(-1.1058777 0 0)
(-1.1182992 0 0)
(-1.127198 0 0)
(-1.1330164 0 0)
(-1.136358 0 0)
(-1.1380695 0 0)
(-1.1392312 0 0)
(-1.1411619 0 0)
(-1.145533 0 0)
(-0.055947676 0 0)
(-0.16102577 0 0)
(-0.25783116 0 0)
(-0.34726024 0 0)
(-0.43012214 0 0)
(-0.50694241 0 0)
(-0.57824092 0 0)
(-0.64454885 0 0)
(-0.70617444 0 0)
(-0.76336417 0 0)
(-0.8163336 0 0)
(-0.86528173 0 0)
(-0.91033763 0 0)
(-0.95153635 0 0)
(-0.98888128 0 0)
(-1.0223564 0 0)
(-1.0519204 0 0)
(-1.0775123 0 0)
(-1.0990815 0 0)
(-1.1166423 0 0)
(-1.1302856 0 0)
(-1.1402013 0 0)
(-1.1466969 0 0)
(-1.1502416 0 0)
(-1.1514785 0 0)
(-1.1512641 0 0)
(-1.150709 0 0)
(-1.1511597 0 0)
(-1.1542929 0 0)
(-0.055975061 0 0)
(-0.16111243 0 0)
(-0.25797448 0 0)
(-0.34747536 0 0)
(-0.43041905 0 0)
(-0.50734312 0 0)
(-0.57877486 0 0)
(-0.64525735 0 0)
(-0.70710893 0 0)
(-0.76458908 0 0)
(-0.81792374 0 0)
(-0.86732987 0 0)
(-0.91295258 0 0)
(-0.95483976 0 0)
(-0.99300938 0 0)
(-1.0274485 0 0)
(-1.0581113 0 0)
(-1.0849321 0 0)
(-1.1078375 0 0)
(-1.1267787 0 0)
(-1.1417707 0 0)
(-1.1529209 0 0)
(-1.1604298 0 0)
(-1.1646299 0 0)
(-1.1660138 0 0)
(-1.1652397 0 0)
(-1.1632077 0 0)
(-1.1610401 0 0)
(-1.1600955 0 0)
(-1.1620842 0 0)
(-0.055766326 0 0)
(-0.1611867 0 0)
(-0.25810317 0 0)
(-0.34766786 0 0)
(-0.43068011 0 0)
(-0.5076914 0 0)
(-0.5792367 0 0)
(-0.64586863 0 0)
(-0.70791654 0 0)
(-0.76564843 0 0)
(-0.81930096 0 0)
(-0.86910624 0 0)
(-0.91523322 0 0)
(-0.95773948 0 0)
(-0.99665325 0 0)
(-1.0319772 0 0)
(-1.0636731 0 0)
(-1.0916659 0 0)
(-1.1158648 0 0)
(-1.1361889 0 0)
(-1.1526001 0 0)
(-1.1651323 0 0)
(-1.1738911 0 0)
(-1.1790943 0 0)
(-1.1810923 0 0)
(-1.1804081 0 0)
(-1.1777346 0 0)
(-1.173981 0 0)
(-1.1702945 0 0)
(-1.1680551 0 0)
(-1.1689743 0 0)
(-0.055512721 0 0)
(-0.16074247 0 0)
(-0.25821144 0 0)
(-0.34783906 0 0)
(-0.4309107 0 0)
(-0.50799649 0 0)
(-0.57963899 0 0)
(-0.64639842 0 0)
(-0.70861278 0 0)
(-0.76656173 0 0)
(-0.82049024 0 0)
(-0.87064614 0 0)
(-0.91721604 0 0)
(-0.96026979 0 0)
(-0.99985466 0 0)
(-1.0359858 0 0)
(-1.0686304 0 0)
(-1.097718 0 0)
(-1.1231566 0 0)
(-1.1448428 0 0)
(-1.1626933 0 0)
(-1.1766821 0 0)
(-1.1868439 0 0)
(-1.1933015 0 0)
(-1.1962885 0 0)
(-1.1961845 0 0)
(-1.1935352 0 0)
(-1.1890502 0 0)
(-1.1836763 0 0)
(-1.1785662 0 0)
(-1.1751088 0 0)
(-1.1750422 0 0)
(-0.055283044 0 0)
(-0.15998019 0 0)
(-0.25755513 0 0)
(-0.34798659 0 0)
(-0.43111647 0 0)
(-0.50826475 0 0)
(-0.57999089 0 0)
(-0.64685854 0 0)
(-0.70921638 0 0)
(-0.76735162 0 0)
(-0.82151812 0 0)
(-0.87197595 0 0)
(-0.91893453 0 0)
(-0.96247357 0 0)
(-1.0026535 0 0)
(-1.0395098 0 0)
(-1.0730259 0 0)
(-1.1031331 0 0)
(-1.1297344 0 0)
(-1.1527219 0 0)
(-1.1719932 0 0)
(-1.1874655 0 0)
(-1.1991163 0 0)
(-1.2070001 0 0)
(-1.211244 0 0)
(-1.2121075 0 0)
(-1.2099886 0 0)
(-1.2054626 0 0)
(-1.1992699 0 0)
(-1.1923644 0 0)
(-1.1859172 0 0)
(-1.1813333 0 0)
(-1.1803465 0 0)
(-0.055079835 0 0)
(-0.15928884 0 0)
(-0.2563358 0 0)
(-0.34714679 0 0)
(-0.4312932 0 0)
(-0.5085057 0 0)
(-0.58030162 0 0)
(-0.64726162 0 0)
(-0.70974034 0 0)
(-0.76803479 0 0)
(-0.82240582 0 0)
(-0.8731261 0 0)
(-0.92042256 0 0)
(-0.96438422 0 0)
(-1.0050918 0 0)
(-1.0425984 0 0)
(-1.0768995 0 0)
(-1.1079361 0 0)
(-1.1356215 0 0)
(-1.1598439 0 0)
(-1.1804836 0 0)
(-1.1974288 0 0)
(-1.2106084 0 0)
(-1.2200142 0 0)
(-1.225697 0 0)
(-1.2278101 0 0)
(-1.2266325 0 0)
(-1.2225931 0 0)
(-1.2162867 0 0)
(-1.2084695 0 0)
(-1.200127 0 0)
(-1.1924308 0 0)
(-1.1867886 0 0)
(-1.184956 0 0)
(-0.054904732 0 0)
(-0.15867844 0 0)
(-0.2552324 0 0)
(-0.34552925 0 0)
(-0.43028416 0 0)
(-0.50871009 0 0)
(-0.58058068 0 0)
(-0.64761792 0 0)
(-0.71019918 0 0)
(-0.76862901 0 0)
(-0.82317492 0 0)
(-0.87411891 0 0)
(-0.92170856 0 0)
(-0.96604068 0 0)
(-1.0072094 0 0)
(-1.0452901 0 0)
(-1.0802989 0 0)
(-1.1121849 0 0)
(-1.1408652 0 0)
(-1.166232 0 0)
(-1.1881683 0 0)
(-1.2065484 0 0)
(-1.2212551 0 0)
(-1.2322225 0 0)
(-1.2394529 0 0)
(-1.2430171 0 0)
(-1.2430791 0 0)
(-1.2399483 0 0)
(-1.2340703 0 0)
(-1.2260684 0 0)
(-1.2167238 0 0)
(-1.2070264 0 0)
(-1.1981605 0 0)
(-1.1915431 0 0)
(-1.188922 0 0)
(-0.05475898 0 0)
(-0.15815175 0 0)
(-0.25425634 0 0)
(-0.34406395 0 0)
(-0.42830571 0 0)
(-0.50755529 0 0)
(-0.58081955 0 0)
(-0.64793578 0 0)
(-0.71060467 0 0)
(-0.76914815 0 0)
(-0.82384251 0 0)
(-0.87497775 0 0)
(-0.92282125 0 0)
(-0.96747233 0 0)
(-1.0090444 0 0)
(-1.0476324 0 0)
(-1.0832697 0 0)
(-1.1159149 0 0)
(-1.145503 0 0)
(-1.1719325 0 0)
(-1.1950834 0 0)
(-1.2148221 0 0)
(-1.2310202 0 0)
(-1.2435631 0 0)
(-1.2523937 0 0)
(-1.2575281 0 0)
(-1.2590416 0 0)
(-1.2571314 0 0)
(-1.252126 0 0)
(-1.2444999 0 0)
(-1.2348922 0 0)
(-1.2240991 0 0)
(-1.2131353 0 0)
(-1.20318 0 0)
(-1.1956477 0 0)
(-1.1923044 0 0)
(-0.054643829 0 0)
(-0.15771397 0 0)
(-0.25341603 0 0)
(-0.34276874 0 0)
(-0.42651232 0 0)
(-0.50525603 0 0)
(-0.57954039 0 0)
(-0.64821075 0 0)
(-0.71096555 0 0)
(-0.76960475 0 0)
(-0.82442484 0 0)
(-0.87572246 0 0)
(-0.92378401 0 0)
(-0.96871252 0 0)
(-1.0106332 0 0)
(-1.0496623 0 0)
(-1.0858573 0 0)
(-1.1191859 0 0)
(-1.1495929 0 0)
(-1.1769865 0 0)
(-1.2012591 0 0)
(-1.222281 0 0)
(-1.2399046 0 0)
(-1.2539923 0 0)
(-1.2644414 0 0)
(-1.2712041 0 0)
(-1.274304 0 0)
(-1.2738439 0 0)
(-1.270036 0 0)
(-1.2632407 0 0)
(-1.2539455 0 0)
(-1.2428138 0 0)
(-1.2306624 0 0)
(-1.218508 0 0)
(-1.2075353 0 0)
(-1.1991632 0 0)
(-1.1951477 0 0)
(-0.054560111 0 0)
(-0.15736731 0 0)
(-0.25271659 0 0)
(-0.34165277 0 0)
(-0.42492795 0 0)
(-0.50317486 0 0)
(-0.57696243 0 0)
(-0.64682003 0 0)
(-0.71127816 0 0)
(-0.77001265 0 0)
(-0.82493774 0 0)
(-0.87637011 0 0)
(-0.92462038 0 0)
(-0.96978565 0 0)
(-1.0120076 0 0)
(-1.0514219 0 0)
(-1.0881066 0 0)
(-1.1220363 0 0)
(-1.1531774 0 0)
(-1.1814493 0 0)
(-1.206753 0 0)
(-1.2289589 0 0)
(-1.2479255 0 0)
(-1.2635031 0 0)
(-1.2755499 0 0)
(-1.2839681 0 0)
(-1.288726 0 0)
(-1.289863 0 0)
(-1.287493 0 0)
(-1.2818652 0 0)
(-1.2733555 0 0)
(-1.2624778 0 0)
(-1.2499069 0 0)
(-1.2364722 0 0)
(-1.2232087 0 0)
(-1.2112915 0 0)
(-1.2021328 0 0)
(-1.1975034 0 0)
(-0.054508558 0 0)
(-0.15711511 0 0)
(-0.25216359 0 0)
(-0.3407238 0 0)
(-0.423562 0 0)
(-0.50133393 0 0)
(-0.57462943 0 0)
(-0.64399343 0 0)
(-0.7097922 0 0)
(-0.77036072 0 0)
(-0.8253905 0 0)
(-0.87693971 0 0)
(-0.9253492 0 0)
(-0.97071871 0 0)
(-1.0131989 0 0)
(-1.0529435 0 0)
(-1.090057 0 0)
(-1.124521 0 0)
(-1.1563154 0 0)
(-1.1853709 0 0)
(-1.2116067 0 0)
(-1.234909 0 0)
(-1.2551287 0 0)
(-1.2721101 0 0)
(-1.2857031 0 0)
(-1.2957685 0 0)
(-1.3022175 0 0)
(-1.3050295 0 0)
(-1.3042605 0 0)
(-1.3000556 0 0)
(-1.2926797 0 0)
(-1.2825384 0 0)
(-1.2701542 0 0)
(-1.2562226 0 0)
(-1.2415883 0 0)
(-1.2272849 0 0)
(-1.2144884 0 0)
(-1.2046098 0 0)
(-1.1994106 0 0)
(-0.054489441 0 0)
(-0.15695891 0 0)
(-0.25176085 0 0)
(-0.33998867 0 0)
(-0.42242556 0 0)
(-0.49974936 0 0)
(-0.57256709 0 0)
(-0.64143324 0 0)
(-0.70674365 0 0)
(-0.76879446 0 0)
(-0.82578128 0 0)
(-0.87744101 0 0)
(-0.92598829 0 0)
(-0.97153172 0 0)
(-1.0142326 0 0)
(-1.0542626 0 0)
(-1.0917491 0 0)
(-1.1266767 0 0)
(-1.1590484 0 0)
(-1.1888065 0 0)
(-1.2158859 0 0)
(-1.2401799 0 0)
(-1.2615533 0 0)
(-1.2798543 0 0)
(-1.2949163 0 0)
(-1.3065802 0 0)
(-1.314718 0 0)
(-1.319252 0 0)
(-1.3201766 0 0)
(-1.3175693 0 0)
(-1.311592 0 0)
(-1.302545 0 0)
(-1.2908458 0 0)
(-1.2770384 0 0)
(-1.2618256 0 0)
(-1.2460621 0 0)
(-1.2307934 0 0)
(-1.2171826 0 0)
(-1.2066313 0 0)
(-1.2009138 0 0)
(-0.15689984 0 0)
(-0.054495643 0 0)
(-0.25151126 0 0)
(-0.3394528 0 0)
(-0.42152563 0 0)
(-0.49842974 0 0)
(-0.57079239 0 0)
(-0.63917292 0 0)
(-0.70398193 0 0)
(-0.76554411 0 0)
(-0.82413895 0 0)
(-0.87787496 0 0)
(-0.92655505 0 0)
(-0.97224507 0 0)
(-1.0151344 0 0)
(-1.0554065 0 0)
(-1.0932154 0 0)
(-1.1285504 0 0)
(-1.16143 0 0)
(-1.1918067 0 0)
(-1.2196353 0 0)
(-1.2448315 0 0)
(-1.2672628 0 0)
(-1.286778 0 0)
(-1.3032182 0 0)
(-1.3164137 0 0)
(-1.3262029 0 0)
(-1.3324641 0 0)
(-1.3351359 0 0)
(-1.3342274 0 0)
(-1.3298389 0 0)
(-1.322163 0 0)
(-1.3115152 0 0)
(-1.2983386 0 0)
(-1.2831816 0 0)
(-1.2667624 0 0)
(-1.2499474 0 0)
(-1.2337758 0 0)
(-1.2194088 0 0)
(-1.2082433 0 0)
(-1.2020471 0 0)
(-0.25141733 0 0)
(-0.15691684 0 0)
(-0.054527141 0 0)
(-0.33912022 0 0)
(-0.42086978 0 0)
(-0.49738667 0 0)
(-0.56931577 0 0)
(-0.63722682 0 0)
(-0.70154453 0 0)
(-0.76260327 0 0)
(-0.82071037 0 0)
(-0.8761702 0 0)
(-0.92704031 0 0)
(-0.97287706 0 0)
(-1.0159251 0 0)
(-1.0564037 0 0)
(-1.0944904 0 0)
(-1.1301748 0 0)
(-1.1634977 0 0)
(-1.1944211 0 0)
(-1.2229191 0 0)
(-1.2489194 0 0)
(-1.2723054 0 0)
(-1.2929414 0 0)
(-1.3106634 0 0)
(-1.3252965 0 0)
(-1.3366712 0 0)
(-1.3446312 0 0)
(-1.3490642 0 0)
(-1.3499223 0 0)
(-1.3472373 0 0)
(-1.3411339 0 0)
(-1.3318223 0 0)
(-1.3196501 0 0)
(-1.3050679 0 0)
(-1.2886407 0 0)
(-1.2710905 0 0)
(-1.2532887 0 0)
(-1.2362813 0 0)
(-1.2212154 0 0)
(-1.2094787 0 0)
(-1.2028481 0 0)
(-0.33899306 0 0)
(-0.25144388 0 0)
(-0.15700928 0 0)
(-0.05459102 0 0)
(-0.42046245 0 0)
(-0.49662608 0 0)
(-0.56814918 0 0)
(-0.63560928 0 0)
(-0.69944559 0 0)
(-0.76000363 0 0)
(-0.81760242 0 0)
(-0.87258 0 0)
(-0.9252948 0 0)
(-0.97341906 0 0)
(-1.0166234 0 0)
(-1.0572776 0 0)
(-1.0956004 0 0)
(-1.1315883 0 0)
(-1.1652973 0 0)
(-1.1966967 0 0)
(-1.2257803 0 0)
(-1.2525009 0 0)
(-1.2767499 0 0)
(-1.2983983 0 0)
(-1.3172979 0 0)
(-1.3332774 0 0)
(-1.346152 0 0)
(-1.3557472 0 0)
(-1.3619211 0 0)
(-1.364572 0 0)
(-1.3636672 0 0)
(-1.3592595 0 0)
(-1.3514998 0 0)
(-1.3406258 0 0)
(-1.3269986 0 0)
(-1.3110889 0 0)
(-1.2934619 0 0)
(-1.2748513 0 0)
(-1.2561341 0 0)
(-1.2383468 0 0)
(-1.2226339 0 0)
(-1.2103769 0 0)
(-1.2033474 0 0)
(-0.42030655 0 0)
(-0.33902639 0 0)
(-0.25159261 0 0)
(-0.15719925 0 0)
(-0.054686957 0 0)
(-0.49615481 0 0)
(-0.56730019 0 0)
(-0.63433118 0 0)
(-0.69770149 0 0)
(-0.75776772 0 0)
(-0.81486012 0 0)
(-0.86932585 0 0)
(-0.92156401 0 0)
(-0.97163891 0 0)
(-1.0172253 0 0)
(-1.0580486 0 0)
(-1.0965726 0 0)
(-1.1328186 0 0)
(-1.1668609 0 0)
(-1.1986755 0 0)
(-1.228276 0 0)
(-1.2556309 0 0)
(-1.2806459 0 0)
(-1.3032132 0 0)
(-1.3231903 0 0)
(-1.3404072 0 0)
(-1.3546844 0 0)
(-1.3658385 0 0)
(-1.3736996 0 0)
(-1.3781284 0 0)
(-1.3790382 0 0)
(-1.3764171 0 0)
(-1.3703444 0 0)
(-1.3609946 0 0)
(-1.348622 0 0)
(-1.333615 0 0)
(-1.3164476 0 0)
(-1.2976965 0 0)
(-1.2780957 0 0)
(-1.2585219 0 0)
(-1.2400149 0 0)
(-1.2237056 0 0)
(-1.2109669 0 0)
(-1.2035766 0 0)
(-0.4959756 0 0)
(-0.42034734 0 0)
(-0.33922024 0 0)
(-0.25189513 0 0)
(-0.15748446 0 0)
(-0.054814077 0 0)
(-0.56677545 0 0)
(-0.63340195 0 0)
(-0.69632376 0 0)
(-0.75590739 0 0)
(-0.81249736 0 0)
(-0.86645646 0 0)
(-0.91818914 0 0)
(-0.96778673 0 0)
(-1.0154151 0 0)
(-1.058715 0 0)
(-1.0974304 0 0)
(-1.1338959 0 0)
(-1.168225 0 0)
(-1.200398 0 0)
(-1.2304455 0 0)
(-1.2583606 0 0)
(-1.2840597 0 0)
(-1.3074446 0 0)
(-1.3283932 0 0)
(-1.3467495 0 0)
(-1.3623302 0 0)
(-1.3749456 0 0)
(-1.3844134 0 0)
(-1.3905723 0 0)
(-1.3932959 0 0)
(-1.3925088 0 0)
(-1.3882226 0 0)
(-1.3805402 0 0)
(-1.3696609 0 0)
(-1.3558625 0 0)
(-1.339544 0 0)
(-1.3211938 0 0)
(-1.3013856 0 0)
(-1.2808601 0 0)
(-1.2604948 0 0)
(-1.2413181 0 0)
(-1.2244587 0 0)
(-1.2112821 0 0)
(-1.2035627 0 0)
(-0.56657863 0 0)
(-0.49602434 0 0)
(-0.42058424 0 0)
(-0.33961961 0 0)
(-0.25235274 0 0)
(-0.1578645 0 0)
(-0.05497169 0 0)
(-0.63282873 0 0)
(-0.69532238 0 0)
(-0.75443882 0 0)
(-0.81053507 0 0)
(-0.86398472 0 0)
(-0.91520934 0 0)
(-0.96430295 0 0)
(-1.0114537 0 0)
(-1.056884 0 0)
(-1.0981682 0 0)
(-1.1348452 0 0)
(-1.1694179 0 0)
(-1.2018991 0 0)
(-1.2323364 0 0)
(-1.2607402 0 0)
(-1.2870379 0 0)
(-1.3111539 0 0)
(-1.3329789 0 0)
(-1.352364 0 0)
(-1.3691387 0 0)
(-1.3831178 0 0)
(-1.3941073 0 0)
(-1.4019247 0 0)
(-1.4064186 0 0)
(-1.4074714 0 0)
(-1.4050287 0 0)
(-1.3991261 0 0)
(-1.3898937 0 0)
(-1.3775515 0 0)
(-1.3623915 0 0)
(-1.3448351 0 0)
(-1.3253693 0 0)
(-1.3045745 0 0)
(-1.2831896 0 0)
(-1.2620859 0 0)
(-1.2422925 0 0)
(-1.2249274 0 0)
(-1.2113483 0 0)
(-1.2033318 0 0)
(-0.63261469 0 0)
(-0.56663688 0 0)
(-0.49630186 0 0)
(-0.4210732 0 0)
(-0.34022214 0 0)
(-0.25295881 0 0)
(-0.15833484 0 0)
(-0.055158276 0 0)
(-0.69470563 0 0)
(-0.7533707 0 0)
(-0.80898375 0 0)
(-0.86193336 0 0)
(-0.91264739 0 0)
(-0.9612284 0 0)
(-1.0078704 0 0)
(-1.0528223 0 0)
(-1.0963245 0 0)
(-1.1356622 0 0)
(-1.1704657 0 0)
(-1.2032112 0 0)
(-1.2339833 0 0)
(-1.2628128 0 0)
(-1.289639 0 0)
(-1.3143975 0 0)
(-1.3370002 0 0)
(-1.3573175 0 0)
(-1.3751844 0 0)
(-1.390418 0 0)
(-1.4028268 0 0)
(-1.4122189 0 0)
(-1.4184156 0 0)
(-1.4212734 0 0)
(-1.4206936 0 0)
(-1.4166397 0 0)
(-1.4091741 0 0)
(-1.398449 0 0)
(-1.3847066 0 0)
(-1.3682569 0 0)
(-1.3495292 0 0)
(-1.3290188 0 0)
(-1.3073005 0 0)
(-1.2851161 0 0)
(-1.2633324 0 0)
(-1.2429673 0 0)
(-1.225138 0 0)
(-1.2111937 0 0)
(-1.2029079 0 0)
(-0.69447593 0 0)
(-0.63268144 0 0)
(-0.56695142 0 0)
(-0.49687061 0 0)
(-0.42181038 0 0)
(-0.34102421 0 0)
(-0.25371328 0 0)
(-0.15889436 0 0)
(-0.05537294 0 0)
(-0.75271212 0 0)
(-0.80785759 0 0)
(-0.86031336 0 0)
(-0.91051862 0 0)
(-0.95858583 0 0)
(-1.0047112 0 0)
(-1.0491493 0 0)
(-1.0921666 0 0)
(-1.1338145 0 0)
(-1.1713687 0 0)
(-1.2043639 0 0)
(-1.2354232 0 0)
(-1.2646208 0 0)
(-1.2919044 0 0)
(-1.3172297 0 0)
(-1.3405253 0 0)
(-1.3616728 0 0)
(-1.3805224 0 0)
(-1.3969055 0 0)
(-1.410632 0 0)
(-1.4215023 0 0)
(-1.4293226 0 0)
(-1.4339251 0 0)
(-1.4351814 0 0)
(-1.433004 0 0)
(-1.4273828 0 0)
(-1.418406 0 0)
(-1.4062503 0 0)
(-1.3911743 0 0)
(-1.3734992 0 0)
(-1.3536711 0 0)
(-1.3321802 0 0)
(-1.3096035 0 0)
(-1.286679 0 0)
(-1.2642631 0 0)
(-1.2433733 0 0)
(-1.2251188 0 0)
(-1.2108412 0 0)
(-1.2023133 0 0)
(-0.7524673 0 0)
(-0.69454959 0 0)
(-0.63302758 0 0)
(-0.56759237 0 0)
(-0.49773001 0 0)
(-0.42279255 0 0)
(-0.34202019 0 0)
(-0.25460662 0 0)
(-0.15953696 0 0)
(-0.055613528 0 0)
(-0.80716317 0 0)
(-0.85913853 0 0)
(-0.90883952 0 0)
(-0.95639143 0 0)
(-1.001996 0 0)
(-1.0459134 0 0)
(-1.0884108 0 0)
(-1.1295739 0 0)
(-1.169521 0 0)
(-1.2053542 0 0)
(-1.2366876 0 0)
(-1.2662013 0 0)
(-1.2938828 0 0)
(-1.319701 0 0)
(-1.3436034 0 0)
(-1.3654922 0 0)
(-1.3852283 0 0)
(-1.4026516 0 0)
(-1.417583 0 0)
(-1.4298269 0 0)
(-1.4391815 0 0)
(-1.4454558 0 0)
(-1.4484909 0 0)
(-1.4481733 0 0)
(-1.4444381 0 0)
(-1.4372971 0 0)
(-1.4268653 0 0)
(-1.4133387 0 0)
(-1.396993 0 0)
(-1.3781625 0 0)
(-1.3572983 0 0)
(-1.3348933 0 0)
(-1.3115169 0 0)
(-1.2879067 0 0)
(-1.26491 0 0)
(-1.2435367 0 0)
(-1.2248936 0 0)
(-1.2103146 0 0)
(-1.2015693 0 0)
(-0.80690593 0 0)
(-0.75254342 0 0)
(-0.6949234 0 0)
(-0.63373407 0 0)
(-0.56855853 0 0)
(-0.49887114 0 0)
(-0.42401154 0 0)
(-0.34320405 0 0)
(-0.25563797 0 0)
(-0.16026072 0 0)
(-0.055878244 0 0)
(-0.85841692 0 0)
(-0.90762062 0 0)
(-0.95466096 0 0)
(-0.99974296 0 0)
(-1.0431327 0 0)
(-1.0851013 0 0)
(-1.1257456 0 0)
(-1.165211 0 0)
(-1.2035189 0 0)
(-1.2377745 0 0)
(-1.2675866 0 0)
(-1.295611 0 0)
(-1.3218574 0 0)
(-1.3462939 0 0)
(-1.368835 0 0)
(-1.389357 0 0)
(-1.4077182 0 0)
(-1.4237501 0 0)
(-1.4372601 0 0)
(-1.4480437 0 0)
(-1.4559025 0 0)
(-1.4606521 0 0)
(-1.4621458 0 0)
(-1.4602888 0 0)
(-1.4550335 0 0)
(-1.4464209 0 0)
(-1.4345895 0 0)
(-1.4197558 0 0)
(-1.4022067 0 0)
(-1.3822844 0 0)
(-1.3604516 0 0)
(-1.3371924 0 0)
(-1.3130752 0 0)
(-1.2888324 0 0)
(-1.2652989 0 0)
(-1.2434826 0 0)
(-1.2244856 0 0)
(-1.2096342 0 0)
(-1.2006925 0 0)
(-0.85815209 0 0)
(-0.80698851 0 0)
(-0.7529422 0 0)
(-0.69568714 0 0)
(-0.63479512 0 0)
(-0.56984081 0 0)
(-0.50029047 0 0)
(-0.42546089 0 0)
(-0.3445664 0 0)
(-0.25679568 0 0)
(-0.1610553 0 0)
(-0.056096646 0 0)
(-0.90687178 0 0)
(-0.95340684 0 0)
(-0.99796697 0 0)
(-1.040827 0 0)
(-1.0822603 0 0)
(-1.1223725 0 0)
(-1.1613162 0 0)
(-1.199145 0 0)
(-1.235957 0 0)
(-1.2687801 0 0)
(-1.2971253 0 0)
(-1.3237419 0 0)
(-1.3486409 0 0)
(-1.3717564 0 0)
(-1.3929784 0 0)
(-1.4121768 0 0)
(-1.4291987 0 0)
(-1.4438639 0 0)
(-1.4559722 0 0)
(-1.4653158 0 0)
(-1.471697 0 0)
(-1.4749431 0 0)
(-1.4749219 0 0)
(-1.4715559 0 0)
(-1.4648246 0 0)
(-1.4547916 0 0)
(-1.4416198 0 0)
(-1.4255404 0 0)
(-1.4068521 0 0)
(-1.3859051 0 0)
(-1.3631651 0 0)
(-1.3391129 0 0)
(-1.314309 0 0)
(-1.2894825 0 0)
(-1.2654572 0 0)
(-1.243236 0 0)
(-1.223917 0 0)
(-1.2088186 0 0)
(-1.1996429 0 0)
(-0.90659741 0 0)
(-0.85824345 0 0)
(-0.80740967 0 0)
(-0.75375287 0 0)
(-0.69683226 0 0)
(-0.6362063 0 0)
(-0.57143414 0 0)
(-0.50197381 0 0)
(-0.42713 0 0)
(-0.3461012 0 0)
(-0.25807067 0 0)
(-0.16152932 0 0)
(-0.056078273 0 0)
(-0.95263694 0 0)
(-0.99668029 0 0)
(-1.0390105 0 0)
(-1.0799045 0 0)
(-1.1194791 0 0)
(-1.1578895 0 0)
(-1.1951973 0 0)
(-1.2315268 0 0)
(-1.2669827 0 0)
(-1.2984301 0 0)
(-1.325393 0 0)
(-1.3506933 0 0)
(-1.3743091 0 0)
(-1.3961437 0 0)
(-1.4160862 0 0)
(-1.4339989 0 0)
(-1.4497129 0 0)
(-1.463032 0 0)
(-1.4737532 0 0)
(-1.481672 0 0)
(-1.4865942 0 0)
(-1.4883574 0 0)
(-1.4868483 0 0)
(-1.4820114 0 0)
(-1.4738466 0 0)
(-1.4624461 0 0)
(-1.4479924 0 0)
(-1.4307319 0 0)
(-1.4109693 0 0)
(-1.3890598 0 0)
(-1.365475 0 0)
(-1.340686 0 0)
(-1.315248 0 0)
(-1.2898851 0 0)
(-1.2654085 0 0)
(-1.2428168 0 0)
(-1.2232048 0 0)
(-1.2077508 0 0)
(-1.1983863 0 0)
(-0.95235788 0 0)
(-0.90668945 0 0)
(-0.85868696 0 0)
(-0.80826839 0 0)
(-0.75497451 0 0)
(-0.69835615 0 0)
(-0.63795549 0 0)
(-0.57332418 0 0)
(-0.50391552 0 0)
(-0.42900837 0 0)
(-0.3477863 0 0)
(-0.2587788 0 0)
(-0.16148283 0 0)
(-0.056053979 0 0)
(-0.99589243 0 0)
(-1.0376957 0 0)
(-1.0780499 0 0)
(-1.1170799 0 0)
(-1.1549469 0 0)
(-1.1917217 0 0)
(-1.2275315 0 0)
(-1.2625024 0 0)
(-1.2966617 0 0)
(-1.326814 0 0)
(-1.3524906 0 0)
(-1.3765407 0 0)
(-1.3989133 0 0)
(-1.4195119 0 0)
(-1.4382152 0 0)
(-1.4548707 0 0)
(-1.4692948 0 0)
(-1.4812846 0 0)
(-1.4906336 0 0)
(-1.4971409 0 0)
(-1.5006204 0 0)
(-1.5009233 0 0)
(-1.4979549 0 0)
(-1.4916826 0 0)
(-1.4821335 0 0)
(-1.4694206 0 0)
(-1.4537462 0 0)
(-1.4353668 0 0)
(-1.4145932 0 0)
(-1.3917844 0 0)
(-1.367413 0 0)
(-1.3419421 0 0)
(-1.3159201 0 0)
(-1.2900651 0 0)
(-1.2651751 0 0)
(-1.2422472 0 0)
(-1.2221117 0 0)
(-1.2064302 0 0)
(-1.1969565 0 0)
(-0.9956075 0 0)
(-0.9524548 0 0)
(-0.90714903 0 0)
(-0.85958948 0 0)
(-0.80955728 0 0)
(-0.75659514 0 0)
(-0.70024372 0 0)
(-0.64003395 0 0)
(-0.57550185 0 0)
(-0.50609817 0 0)
(-0.43107396 0 0)
(-0.34869318 0 0)
(-0.25871823 0 0)
(-0.16142405 0 0)
(-0.056025861 0 0)
(-1.0368923 0 0)
(-1.0767078 0 0)
(-1.1151931 0 0)
(-1.1525111 0 0)
(-1.1887415 0 0)
(-1.2240145 0 0)
(-1.2584606 0 0)
(-1.2921378 0 0)
(-1.3250846 0 0)
(-1.3540377 0 0)
(-1.378494 0 0)
(-1.4013335 0 0)
(-1.4225068 0 0)
(-1.4419117 0 0)
(-1.4594106 0 0)
(-1.4748293 0 0)
(-1.487976 0 0)
(-1.4986489 0 0)
(-1.5066389 0 0)
(-1.5117469 0 0)
(-1.5137998 0 0)
(-1.5126654 0 0)
(-1.5082696 0 0)
(-1.5006049 0 0)
(-1.4897194 0 0)
(-1.4757508 0 0)
(-1.4589163 0 0)
(-1.4394823 0 0)
(-1.4177602 0 0)
(-1.3941119 0 0)
(-1.3690109 0 0)
(-1.34291 0 0)
(-1.3163497 0 0)
(-1.2900441 0 0)
(-1.2647783 0 0)
(-1.2411223 0 0)
(-1.2206623 0 0)
(-1.2049457 0 0)
(-1.1953477 0 0)
(-1.0366038 0 0)
(-0.9957103 0 0)
(-0.95293071 0 0)
(-0.90808148 0 0)
(-0.86094042 0 0)
(-0.81127138 0 0)
(-0.75860884 0 0)
(-0.70248797 0 0)
(-0.64242597 0 0)
(-0.57795107 0 0)
(-0.50849977 0 0)
(-0.43216466 0 0)
(-0.34860741 0 0)
(-0.25863719 0 0)
(-0.16135388 0 0)
(-0.055992383 0 0)
(-1.0758881 0 0)
(-1.1138285 0 0)
(-1.1505924 0 0)
(-1.186272 0 0)
(-1.2210014 0 0)
(-1.2549085 0 0)
(-1.2880578 0 0)
(-1.3205237 0 0)
(-1.3523531 0 0)
(-1.3801773 0 0)
(-1.4034521 0 0)
(-1.4251274 0 0)
(-1.4451479 0 0)
(-1.4633933 0 0)
(-1.4797062 0 0)
(-1.4939026 0 0)
(-1.5057851 0 0)
(-1.5151494 0 0)
(-1.5217893 0 0)
(-1.5255119 0 0)
(-1.5261563 0 0)
(-1.5236102 0 0)
(-1.517821 0 0)
(-1.5088061 0 0)
(-1.4966381 0 0)
(-1.481472 0 0)
(-1.4635395 0 0)
(-1.4431126 0 0)
(-1.4205035 0 0)
(-1.3960742 0 0)
(-1.3702982 0 0)
(-1.3436153 0 0)
(-1.3165631 0 0)
(-1.2898462 0 0)
(-1.2636262 0 0)
(-1.239501 0 0)
(-1.2190691 0 0)
(-1.2032915 0 0)
(-1.1935615 0 0)
(-1.0755952 0 0)
(-1.0367116 0 0)
(-0.99619897 0 0)
(-0.95389363 0 0)
(-0.9094841 0 0)
(-0.86273547 0 0)
(-0.81339475 0 0)
(-0.76099738 0 0)
(-0.70507004 0 0)
(-0.64511756 0 0)
(-0.5806437 0 0)
(-0.50975359 0 0)
(-0.43206795 0 0)
(-0.34850138 0 0)
(-0.25854055 0 0)
(-0.16127153 0 0)
(-0.055953604 0 0)
(-1.1129967 0 0)
(-1.1492075 0 0)
(-1.1843308 0 0)
(-1.2185047 0 0)
(-1.2518634 0 0)
(-1.2844751 0 0)
(-1.316415 0 0)
(-1.3477619 0 0)
(-1.3785419 0 0)
(-1.4052783 0 0)
(-1.4274208 0 0)
(-1.44798 0 0)
(-1.466885 0 0)
(-1.4839921 0 0)
(-1.4991308 0 0)
(-1.5121163 0 0)
(-1.5227452 0 0)
(-1.530809 0 0)
(-1.5361076 0 0)
(-1.5384571 0 0)
(-1.5377123 0 0)
(-1.5337816 0 0)
(-1.5266371 0 0)
(-1.5163206 0 0)
(-1.5029231 0 0)
(-1.4866189 0 0)
(-1.4676499 0 0)
(-1.4462923 0 0)
(-1.4228554 0 0)
(-1.3977021 0 0)
(-1.3713004 0 0)
(-1.344084 0 0)
(-1.31658 0 0)
(-1.2886685 0 0)
(-1.261801 0 0)
(-1.2377573 0 0)
(-1.2173224 0 0)
(-1.2014674 0 0)
(-1.191592 0 0)
(-1.1127016 0 0)
(-1.0757041 0 0)
(-1.0372127 0 0)
(-0.99719195 0 0)
(-0.95534328 0 0)
(-0.91134476 0 0)
(-0.86495749 0 0)
(-0.81591802 0 0)
(-0.76374992 0 0)
(-0.7079762 0 0)
(-0.64807609 0 0)
(-0.58203466 0 0)
(-0.50964265 0 0)
(-0.4319424 0 0)
(-0.34837423 0 0)
(-0.25842358 0 0)
(-0.16117408 0 0)
(-0.055908436 0 0)
(-1.1483619 0 0)
(-1.1829273 0 0)
(-1.2165438 0 0)
(-1.2493446 0 0)
(-1.2814044 0 0)
(-1.3128059 0 0)
(-1.3436291 0 0)
(-1.3739274 0 0)
(-1.4037013 0 0)
(-1.4293967 0 0)
(-1.4504589 0 0)
(-1.4699415 0 0)
(-1.4877521 0 0)
(-1.5037344 0 0)
(-1.5177122 0 0)
(-1.5294938 0 0)
(-1.5388739 0 0)
(-1.5456452 0 0)
(-1.5496111 0 0)
(-1.5506013 0 0)
(-1.5484891 0 0)
(-1.543206 0 0)
(-1.5347469 0 0)
(-1.5231775 0 0)
(-1.5086081 0 0)
(-1.4912259 0 0)
(-1.4712817 0 0)
(-1.4490535 0 0)
(-1.4248474 0 0)
(-1.3990218 0 0)
(-1.3720454 0 0)
(-1.3443379 0 0)
(-1.3153836 0 0)
(-1.2866208 0 0)
(-1.2598857 0 0)
(-1.2358903 0 0)
(-1.215425 0 0)
(-1.199468 0 0)
(-1.1894418 0 0)
(-1.1480629 0 0)
(-1.1128142 0 0)
(-1.0762157 0 0)
(-1.0382306 0 0)
(-0.99868157 0 0)
(-0.95726531 0 0)
(-0.91365438 0 0)
(-0.86759697 0 0)
(-0.8188205 0 0)
(-0.76684548 0 0)
(-0.71117044 0 0)
(-0.649591 0 0)
(-0.58190042 0 0)
(-0.50949888 0 0)
(-0.43179489 0 0)
(-0.34822602 0 0)
(-0.25828227 0 0)
(-0.16105914 0 0)
(-0.055855822 0 0)
(-1.182073 0 0)
(-1.2151267 0 0)
(-1.2473638 0 0)
(-1.2788665 0 0)