/*--------------------------------*- C++ -*----------------------------------*\
| =========                 |                                                 |
| \\      /  F ield         | OpenFOAM: The Open Source CFD Toolbox           |
|  \\    /   O peration     | Version:  v2012                                 |
|   \\  /    A nd           | Website:  www.openfoam.com                      |
|    \\/     M anipulation  |                                                 |
\*---------------------------------------------------------------------------*/
FoamFile
{
    version     2.0;
    format      ascii;
    class       surfaceScalarField;
    location    "51.4666819687525106";
    object      meshPhi;
}
// * * * * * * * * * * * * * * * * * * * * * * * * * * * * * * * * * * * * * //

dimensions      [0 3 -1 0 0 0 0];
oriented        oriented;


internalField   nonuniform List<scalar> 
18180
(
-3.1886945e-17
0.03631056
7.7972769e-14
0.033533941
7.4974583e-14
0.070356671
0
0.031170837
0
0.065135331
0
0.10342633
0
0.029262904
0
0.060187619
0
0.095553795
6.9296548e-14
0.13500815
3.9049636e-14
0.027759568
3.7546692e-14
0.056157608
0
0.088239906
0
0.12501968
0
0.16430073
0
0.026522892
0
0.052924944
0
0.081816136
6.9339108e-14
0.11525892
0
0.15228433
0
0.19093529
0
0.025399435
0
0.050169339
-1.349091e-17
0.07641051
0
0.10648918
0
0.14043819
0
0.17697417
0
0.2148826
-3.9133173e-14
0.024335232
-1.4843529e-17
0.047727047
-3.6113845e-14
0.071869794
3.4700401e-14
0.098957205
0
0.1294878
-6.4120899e-14
0.16316555
0
0.19932052
0
0.23657669
0
0.023302008
-3.7607585e-14
0.045452574
0
0.067859451
1.2660143e-17
0.092514031
0
0.11991445
0
0.15025625
-2.0642233e-17
0.18378622
0
0.21952728
0
0.25595238
3.9135585e-14
0.022290857
0
0.043291096
0
0.064195474
3.473255e-14
0.086910876
1.1839484e-17
0.11177298
3.2077977e-14
0.13891171
-6.1673224e-14
0.16925457
-5.9291634e-14
0.20273654
0
0.23782771
5.4789679e-14
0.27341406
0
0.021297694
7.5295759e-14
0.041211009
0
0.060760602
3.4747789e-14
0.081876133
-3.3404278e-14
0.10476929
0
0.12930713
0
0.15647961
2.9649701e-14
0.18702286
0
0.22006007
0
0.25430591
-5.2712512e-14
0.28911364
0
0.020322387
0
0.039202983
-7.2379853e-14
0.057494243
0
0.077221379
3.3418914e-14
0.098540353
-3.2119177e-14
0.12106822
0
0.14552485
-9.6276886e-18
0.17309616
2.8524496e-14
0.2035633
-5.4842805e-14
0.23583434
0
0.26921935
0
0.30327123
0
0.019365347
0
0.037261156
3.6189743e-14
0.054366124
-3.4787749e-14
0.072845593
-3.34327e-14
0.092836469
3.213366e-14
0.11378079
-3.0877163e-14
0.13615476
-2.9680304e-14
0.16112984
-2.8539668e-14
0.18888038
0
0.218692
0
0.25006826
0
0.28258856
4.8761469e-14
0.31588018
0
0.018425924
1.8847381e-14
0.035384811
0
0.051365585
0
0.068692544
-1.1889179e-17
0.087508778
0
0.10714051
-3.0891805e-14
0.12789886
2.9695893e-14
0.15069068
9.1536998e-18
0.17595472
-8.4083647e-18
0.2033008
2.6389335e-14
0.23229737
0
0.2628393
0
0.29454779
-4.6918585e-14
0.3271566
-1.9620761e-14
0.01750469
-1.8852577e-14
0.033573722
0
0.048487108
0
0.064735389
0
0.082484244
0
0.10094185
0
0.1203534
0
0.14140846
0
0.16453486
2.7466697e-14
0.18956203
2.6397477e-14
0.21620676
2.5378607e-14
0.244484
4.880104e-14
0.27423766
0
0.30521104
0
0.33725231
1.9625582e-14
0.016601879
0
0.031824732
0
0.045729431
-1.7404064e-14
0.060960311
0
0.07772346
0
0.095094563
3.091847e-14
0.11332418
0
0.1329875
0
0.15431295
0
0.17720776
7.4727145e-18
0.20166073
5.0795751e-14
0.22774531
2.4415004e-14
0.25535792
0
0.2844302
0
0.31477666
0
0.34629353
1.9619598e-14
0.015718075
-1.885298e-14
0.030134011
-1.8121066e-14
0.043093762
0
0.057360261
-1.6732543e-14
0.073205317
0
0.089554308
0
0.10668541
0
0.12515759
0
0.14501003
0
0.16606617
2.6431089e-14
0.18845162
-2.541827e-14
0.21246163
2.4431354e-14
0.23805574
0
0.26509627
0
0.29353044
0
0.32329185
-4.1781379e-14
0.35432643
1.9633544e-14
0.01485571
-8.309778e-18
0.028500953
0
0.040583655
-6.1245528e-18
0.053937698
-1.6742843e-14
0.068915997
0
0.084295325
0
0.10038773
0
0.11778949
-2.8615566e-14
0.13641994
0
0.15596357
0
0.17649945
-6.6705559e-18
0.19852966
0
0.2222226
2.3506131e-14
0.24733023
4.5204924e-14
0.27376877
0
0.30164082
4.1791493e-14
0.33086823
4.0194651e-14
0.36146834
0
0.014016736
8.3865123e-18
0.026924238
0
0.038200343
0
0.050693755
-1.6746562e-14
0.064844732
0
0.079301577
0
0.094400915
0
0.11081148
0
0.1283839
-2.7529045e-14
0.14668696
0
0.16569332
0
0.18593554
0
0.20774802
0
0.23101036
2.2617256e-14
0.25558584
0
0.28150284
0
0.30883181
0
0.33759806
-3.8681934e-14
0.36785108
1.9629166e-14
0.01320365
-1.8870517e-14
0.025399907
-1.8124128e-14
0.035942023
0
0.0476262
0
0.060984525
-5.4935502e-18
0.074559256
0
0.088709727
0
0.10418786
0
0.1208018
0
0.13804714
2.647916e-14
0.15579328
0
0.17448539
0
0.19457972
0
0.21607611
0
0.2388664
2.1763086e-14
0.26295193
0
0.28836612
-4.0244324e-14
0.31524782
0
0.34360862
-3.7221952e-14
0.37354326
0
0.012419117
-8.5149426e-18
0.023929243
0
0.033805946
6.072082e-18
0.044731793
0
0.057328326
-1.6106862e-14
0.070060618
-4.9290111e-18
0.083304079
0
0.097896039
1.4325395e-14
0.1136213
0
0.12992036
0
0.1465883
-6.6243019e-18
0.16398269
0
0.18258555
0
0.20248826
0
0.22355186
4.3542744e-18
0.24586139
-3.827084e-18
0.26950284
0
0.29449854
0
0.32094835
0
0.34894383
0
0.37859871
1.9633719e-14
0.011666342
0
0.02251412
0
0.031789103
-1.742919e-14
0.042008843
0
0.053869102
0
0.065796468
0
0.078177683
-1.4899366e-14
0.091924747
0
0.10681038
-1.3778742e-14
0.12223487
-2.6506255e-14
0.13794485
0
0.15424599
0
0.17155484
0
0.19003766
0
0.20957666
2.1801423e-14
0.23018094
0
0.25209964
2.0153063e-14
0.27536042
0
0.29994365
0
0.32602308
0
0.35367559
0
0.38307268
0
0.010947277
0
0.02115535
0
0.029886717
0
0.039452745
1.6757248e-14
0.05059788
1.6112104e-14
0.061759131
-4.8463636e-18
0.073322859
-1.490293e-14
0.086265525
-4.7918577e-18
0.10035071
1.3783748e-14
0.11495289
0
0.12977291
0
0.14510487
0
0.16129846
0
0.17850339
0
0.19672497
0
0.21587697
0
0.23609727
-2.0172684e-14
0.25767433
0
0.28057852
0
0.30479704
3.5857511e-14
0.33050836
0
0.35786767
-3.3172456e-14
0.38707195
1.9642523e-14
0.010263354
4.3160062e-18
0.019854899
0
0.028093041
0
0.037056368
0
0.047506756
-1.6108786e-14
0.057939463
1.5497272e-14
0.068731926
0
0.080910946
1.4338242e-14
0.094229336
-4.3786788e-18
0.10804999
0
0.12202856
3.3108026e-18
0.13646791
0
0.15168528
0
0.16778415
2.2710878e-14
0.18481062
0
0.20270372
2.1001657e-14
0.22147995
-2.0196636e-14
0.2413907
-1.9414324e-14
0.26267234
-1.8670474e-14
0.28523556
0
0.30910235
0
0.33450804
0
0.36159853
3.1922427e-14
0.39062948
5.3235187e-18
0.009615365
0
0.018614899
3.1829573e-18
0.026401399
0
0.034811286
0
0.044587575
0
0.05432941
0
0.064398415
1.4903867e-14
0.075851249
0
0.088434302
-2.7588783e-14
0.10150992
1.3269182e-14
0.114686
-3.3053434e-18
0.12828324
3.0463576e-18
0.14262368
0
0.15776412
0
0.17371256
0
0.19045304
0
0.20801033
0
0.22649122
-1.9438286e-14
0.24614509
0
0.26713837
-1.7968532e-14
0.28938759
0
0.31294847
0
0.33804857
0
0.36490307
0
0.39379935
9.8252789e-15
0.0090031029
0
0.017437001
0
0.024805024
0
0.032705244
0
0.041831047
-1.6112217e-14
0.050920808
1.5496652e-14
0.060314679
0
0.07107798
-1.4339566e-14
0.082954864
-4.4775181e-18
0.095318791
-1.3277211e-14
0.10772797
-1.2777813e-14
0.12052181
-1.2290576e-14
0.13404625
2.8253121e-18
0.14832413
2.2749356e-14
0.16332884
0
0.17903362
-4.0872573e-18
0.19547645
0
0.21275339
0
0.23100977
1.8706238e-14
0.25042339
0
0.27115005
-2.1811108e-18
0.2930986
0
0.31636138
-3.1967805e-14
0.34119814
0
0.36783011
2.9571495e-14
0.39660369
0
0.0084259631
4.3293703e-18
0.016321056
-9.0673453e-15
0.02329826
0
0.030726945
-8.3784127e-15
0.039229917
0
0.047705257
0
0.056473188
0
0.066582357
0
0.077779668
0
0.089463537
0
0.10114136
1.2775831e-14
0.11316431
1.2293025e-14
0.12591822
1.1827862e-14
0.13940229
1.1382125e-14
0.15356708
0
0.16836025
0
0.18379635
0
0.19998412
0
0.21705649
-1.8730666e-14
0.23509999
-1.8007837e-14
0.25428274
1.7311808e-14
0.27474236
1.6640511e-14
0.29640861
0
0.31940132
3.0765337e-14
0.34397638
0
0.3704227
-2.8465614e-14
0.39913012
0
0.007882554
9.4368456e-15
0.015266893
-9.067723e-15
0.021876421
-8.7154773e-15
0.028866978
-8.3820454e-15
0.036777228
2.6219113e-18
0.0446751
-1.5499755e-14
0.05286369
0
0.062353842
0
0.072896901
0
0.083930099
0
0.094912186
-1.2783192e-14
0.10619833
0
0.11821594
-1.1836551e-14
0.13095287
-1.1388951e-14
0.14435348
-1.0957351e-14
0.15834013
-2.1081807e-14
0.17288486
0
0.18808839
-3.8999307e-14
0.20407803
0
0.22095157
0
0.2388082
1.7330999e-14
0.25776506
0
0.27796934
-1.7386404e-18
0.29935638
-3.0796737e-14
0.32209834
0
0.34645504
0
0.3727376
0
0.40139162
-9.8214425e-15
0.0073707379
0
0.014273703
9.0680513e-15
0.020533158
3.1107197e-18
0.027117069
0
0.034466149
8.0579067e-15
0.041821944
-7.7504934e-15
0.049474217
0
0.058380348
0
0.068294173
1.3803731e-14
0.078703701
0
0.089027092
0
0.099611674
0
0.11092431
0
0.12294942
-2.6631052e-18
0.13563524
1.0962135e-14
0.14889288
1.0549133e-14
0.16264967
-2.0296104e-14
0.17697319
0
0.1919973
0
0.20780507
1.8048877e-14
0.22450282
0
0.24216175
-2.1104045e-18
0.2609009
-1.6036896e-14
0.28084633
-1.5418137e-14
0.30198475
0
0.324506
0
0.34865317
0
0.37480035
2.6373224e-14
0.40344022
0
0.0068868932
0
0.013339258
0
0.01926454
-3.1338268e-18
0.025468228
3.040035e-18
0.032289455
0
0.039138402
7.7510227e-15
0.046293497
2.5086535e-18
0.054650259
0
0.06396127
0
0.073771126
0
0.083470991
0
0.093391686
-1.2306249e-14
0.1040313
-1.1846505e-14
0.11537126
0
0.12737807
-2.4728905e-18
0.13996301
0
0.15301337
1.0156658e-14
0.16655672
0
0.18072774
0
0.1955802
-2.7591567e-18
0.21118725
0
0.22770761
0
0.24520063
0
0.26371994
1.5438305e-14
0.28342838
-1.3807513e-18
0.30432467
2.8534303e-14
0.3266466
2.7436335e-14
0.35061914
-2.6389804e-14
0.3766588
2.5387886e-14
0.40528191
3.1578592e-05
0.0075457527
0
0.012456799
0
0.018066564
0
0.023911895
-8.3831352e-15
0.030241646
8.0612974e-15
0.036617041
-7.7537862e-15
0.043311987
-2.518234e-18
0.051152147
-7.1746232e-15
0.059887407
0
0.069119845
0
0.078230205
0
0.087524291
-1.2309678e-14
0.097523922
-1.1847777e-14
0.10820488
0
0.1195584
0
0.13150856
-2.2640616e-18
0.14391384
0
0.15676028
9.7791722e-15
0.17015457
-1.8810331e-14
0.18417489
0
0.19882662
1.7397074e-14
0.21424228
-1.6726938e-14
0.23062417
1.608063e-14
0.24794605
-1.5459781e-14
0.26625896
-1.4859196e-14
0.28573081
2.8569543e-14
0.30641059
-1.0487231e-18
0.32855652
-1.8246952e-18
0.35237897
0
0.3783403
2.4440243e-14
0.40699509
5.3073972e-05
0.0075213275
8.5490997e-05
0.013533415
0
0.016930926
0
0.022440629
0
0.02831433
8.059095e-15
0.034250618
7.7541812e-15
0.040519293
-7.4574874e-15
0.047874083
7.1727013e-15
0.056061436
2.3513912e-18
0.064737454
0
0.073290068
0
0.081995987
-3.0572885e-18
0.091388673
0
0.10143609
0
0.11215904
0
0.12350319
0
0.13530401
-1.0171976e-14
0.14751338
0
0.16020586
9.4161012e-15
0.17348276
0
0.1873115
0
0.20173379
0
0.21700354
0
0.23326026
0
0.25043373
0
0.26854456
-2.8608672e-14
0.28779419
1.3750062e-14
0.30825933
0
0.33026329
-1.6546266e-18
0.35398023
0
0.3799096
-2.3530279e-14
0.40858188
6.5615613e-05
0.0074965339
0.00014365549
0.013521201
0.000125602
0.018316546
-8.7165246e-15
0.021045007
0
0.026499671
8.0594028e-15
0.032031305
-1.5509063e-14
0.037905108
2.5397877e-18
0.044803533
-7.1757829e-15
0.052471885
0
0.060612775
1.8868273e-18
0.068637308
0
0.07679302
0
0.085610959
0
0.095051819
0
0.10516481
0
0.11592588
0
0.12715024
-1.0176552e-14
0.13877025
-1.8972654e-18
0.15082387
0
0.16339728
0
0.17649702
0
0.19008956
0
0.20433725
0
0.21949768
0
0.23565435
-1.4900892e-14
0.2526768
0
0.27059896
0
0.28962208
-1.3237244e-14
0.3099052
-1.2725762e-14
0.33180025
0
0.35546186
2.3542111e-14
0.38138022
0
0.41008147
7.0361934e-05
0.0074731625
0.00017758443
0.013504091
0.0002114591
0.018412107
0.00015695573
0.022612343
0
0.024786365
0
0.029951334
0
0.035460105
-2.5537602e-18
0.041930542
2.5471506e-18
0.049107043
6.9057715e-15
0.056734418
0
0.064256937
0
0.071901026
1.2317602e-14
0.080177635
1.1857478e-14
0.089037767
0
0.098561539
1.0991541e-14
0.10876061
0
0.11942901
-2.191337e-18
0.13048947
-9.8022804e-15
0.1419523
-1.7365618e-18
0.15386357
9.0743018e-15
0.16627063
0
0.17915375
0
0.19254689
0
0.20667216
0
0.22175347
0
0.23781345
-1.4346514e-14
0.2547082
1.3789794e-14
0.27244015
1.3256018e-14
0.29125506
0
0.31136381
-7.4698962e-19
0.33319556
2.3562194e-14
0.35685241
0
0.38278768
-2.1810612e-14
0.41148021
6.8469153e-05
0.0074517464
0.00019041511
0.01348712
0.0002618824
0.018492456
0.00026480468
0.022807491
0.00018235068
0.026366271
0
0.027992178
0
0.033174908
0
0.039242313
-2.544219e-18
0.045954255
2.3553408e-18
0.053091083
0
0.060134567
-6.4003193e-15
0.067303283
1.5367272e-18
0.075073407
0
0.083380738
-1.1420672e-14
0.092335849
0
0.10199261
0
0.1121222
0
0.12264333
-9.8087012e-15
0.13355592
-9.4402343e-15
0.14485403
9.0826677e-15
0.15658324
8.738727e-15
0.16879014
0
0.18148814
0
0.19474211
0
0.20877745
-1.4949503e-14
0.22379141
0
0.23977463
0
0.25653991
-1.327629e-14
0.27409345
1.2761145e-14
0.29269944
-7.5680748e-19
0.31266407
1.1793946e-14
0.33447151
-2.2685629e-14
0.35817276
0
0.38413262
0
0.41281249
6.1101265e-05
0.0074325316
0.00018529597
0.013471314
0.00028125734
0.01856183
0.00032852649
0.02297598
0.00030735348
0.026590238
0.00020198507
0.029539477
0
0.031027712
0
0.036726911
0
0.04300122
0
0.049668913
6.6496206e-15
0.056256987
0
0.062983105
0
0.07028229
1.446369e-18
0.078065895
0
0.086473525
0
0.095608086
-1.0589612e-14
0.10521464
0
0.1152111
0
0.12559992
-1.8191158e-18
0.13633315
0
0.14742549
-1.3401617e-18
0.15895175
8.4157183e-15
0.17101287
-8.0949504e-15
0.18357563
0
0.19670373
0
0.21067535
-1.4393238e-14
0.22563504
0
0.24154315
0
0.25819755
-1.2780945e-14
0.27557614
-1.2284185e-14
0.29398537
-6.5910102e-19
0.31381442
0
0.33564768
-1.2618505e-18
0.35943768
0
0.3854338
2.0218576e-14
0.41406273
4.9416808e-05
0.0074156945
0.00016537719
0.013457355
0.00027410811
0.018620619
0.00035338738
0.023121953
0.00038099588
0.026779424
0.00033990906
0.029836278
0.00021774034
0.032535201
-7.4587455e-15
0.034361419
0
0.040235692
0
0.04645734
-1.856343e-18
0.052611829
1.5805297e-18
0.058925113
0
0.065786228
5.9319558e-15
0.073077773
-5.710007e-15
0.080960242
0
0.089592534
0
0.09869188
-2.3693322e-18
0.108175
0
0.11806013
0
0.12826415
-9.0990027e-15
0.13877093
-1.3386017e-18
0.14963987
-8.4258976e-15
0.16103238
-8.1058437e-15
0.17299675
7.7963084e-15
0.18543494
0
0.1984704
0
0.21238599
0
0.22729504
0
0.24314298
0
0.25968955
-1.2304279e-14
0.27690303
-1.1826172e-14
0.29511206
-5.8117356e-19
0.31483957
0
0.33673761
0
0.36065462
0
0.3866843
0
0.41522285
3.4573973e-05
0.0074015188
0.0001337772
0.013445322
0.00024494045
0.018669207
0.00034483533
0.023245127
0.00040949896
0.026940661
0.00042075262
0.030087462
0.0003664128
0.032954298
0.00023271606
0.035793649
0
0.037632245
0
0.043444332
0
0.049187938
-1.5860063e-18
0.055114345
-6.1620542e-15
0.061569622
-5.9327593e-15
0.068399268
1.3964579e-18
0.075780803
1.4505758e-18
0.083931134
1.0596453e-14
0.092539304
0
0.10152038
9.8221813e-15
0.11091713
0
0.12061762
0
0.13058387
8.7628519e-15
0.14083979
0
0.15155675
-1.0533287e-18
0.16289648
0
0.1747739
0
0.18709133
0
0.2000518
0
0.2139224
1.3340861e-14
0.22878481
0
0.24458261
0
0.26103788
1.1844758e-14
0.27808534
-1.1385503e-14
0.29610932
1.0945716e-14
0.31575114
0
0.33775347
2.0246258e-14
0.36182668
0
0.38786821
0
0.41627417
1.772065e-05
0.0073903103
9.3616454e-05
0.013435234
0.00019835298
0.018707768
0.00030846217
0.02334532
0.00039928337
0.02707476
0.00045168728
0.030304371
0.00045358451
0.033319574
0.00039175889
0.036340875
0.00024701927
0.038933802
-6.9096665e-15
0.040602637
0
0.045973647
0
0.051537725
-6.1642101e-15
0.05761434
1.4471945e-18
0.064014164
0
0.070920607
0
0.078608263
1.3720033e-18
0.086741647
0
0.095231944
0
0.10415458
-9.4635143e-15
0.11337229
0
0.12282913
0
0.13252173
8.4408151e-15
0.14259962
8.1237648e-15
0.15326769
-7.8159161e-15
0.16456215
0
0.17634185
0
0.18856782
0
0.20146878
-1.3364581e-14
0.21529254
1.2844543e-14
0.23012252
0
0.24588347
0
0.26225069
-7.4118713e-19
0.27913886
5.7582634e-19
0.29698438
-1.0538888e-14
0.31656823
0
0.33870221
0
0.3629395
1.8757657e-14
0.3889781
-1.8053341e-14
0.41721644
0.0073821017
0
4.7997149e-05
0.013427701
0.00013892406
0.01873629
0.00024998056
0.023422762
0.00035693823
0.027182183
0.00043998322
0.030487807
0.00048703791
0.033642811
0.00048519925
0.03682158
0.00041583737
0.039607979
0.00025862443
0.04170702
0
0.04294055
0
0.048182653
0
0.053906029
0
0.059903952
5.715408e-15
0.066363299
0
0.073607463
0
0.081282917
5.1049762e-15
0.089295064
0
0.097756492
0
0.10650755
9.1147569e-15
0.11548271
0
0.12464933
8.4489802e-15
0.13413602
-8.1317579e-15
0.14414441
7.8239322e-15
0.15478884
0
0.1660319
-7.3718692e-19
0.17773143
0
0.18988181
0
0.20272745
0
0.21651673
0
0.23131884
0
0.24705424
0
0.26334198
0
0.2800773
0
0.29775892
1.0146623e-14
0.31730407
9.7579615e-15
0.33958849
0
0.36399408
0
0.38998499
0
0.41804208
0.013423035
0
0.007376669
-1.7694581e-05
7.127323e-05
0.018755007
0.00017517678
0.023478043
0.00028908968
0.027263357
0.00039300549
0.030638261
0.00047457178
0.033923295
0.00052123668
0.037248565
0.00051497284
0.04019609
0.00043511951
0.04248442
0.0002660188
0.043809642
6.4013305e-15
0.045022056
6.1651779e-15
0.050430121
0
0.056054144
-1.3858706e-18
0.062094811
5.5050121e-15
0.068912843
1.060251e-14
0.076146875
5.1050611e-15
0.083694139
-4.9165469e-15
0.091707526
0
0.10000708
0
0.10852293
8.7811775e-15
0.11719452
-8.4553835e-15
0.12613686
0
0.13553354
-7.8331173e-15
0.14550829
7.5369464e-15
0.15612561
-7.2502544e-15
0.16732631
0
0.17896499
0
0.19104987
0
0.20384841
0
0.21760198
1.1906542e-14
0.23239002
0
0.24810614
1.0998003e-14
0.26431947
1.0570172e-14
0.28090969
4.509636e-19
0.29844448
-3.5988581e-19
0.31797549
-9.3955039e-15
0.34041504
1.8076047e-14
0.36495847
-1.7394322e-14
0.39088874
0
0.41873766
0.018764051
0
0.013422015
-4.7967317e-05
0.007373913
-3.4471458e-05
8.989334e-05
0.023511011
0.00020248512
0.027318691
0.00031811508
0.030755526
0.00042403016
0.034159519
0.0005081305
0.03761966
0.00055315026
0.040710352
0.00053849752
0.043152061
0.00044723371
0.044695359
0.00027005104
0.045682173
0
0.047155695
5.9365164e-15
0.052449359
0
0.058097892
0
0.064509852
1.4313534e-18
0.071317952
5.1062287e-15
0.078415503
0
0.085993605
4.7376036e-15
0.093854332
0
0.10193112
0
0.11013533
8.4600839e-15
0.11856849
0
0.1274081
7.8407494e-15
0.13675075
-7.3910651e-19
0.14669091
-6.9283431e-19
0.15729935
-6.4827254e-19
0.16847878
-6.7145222e-15
0.18005994
0
0.1920872
-1.2411781e-14
0.20483849
0
0.21856439
0
0.23334096
0
0.24905024
0
0.26519451
0
0.28164961
9.7838442e-15
0.29906347
-9.4073503e-15
0.31859351
0
0.3411766
0
0.3658349
0
0.39167046
0
0.419305
0.023521288
0
0.018765682
-7.1275908e-05
0.013424703
-9.3499871e-05
0.0073740235
-4.9196276e-05
0.00010386141
0.027348733
0.000222718
0.03083902
0.00034336095
0.034349693
0.00045426349
0.037932878
0.00053915213
0.041150002
0.00057792645
0.043725126
0.00055304621
0.045451631
0.0004541163
0.046733312
0.00027315989
0.047612062
0
0.049056756
0
0.0543561
0
0.060379782
5.302292e-15
0.066780353
5.1085105e-15
0.073444702
4.9191865e-15
0.080600399
0
0.088035839
-4.5635499e-15
0.095690346
0
0.10345005
0
0.11140478
-9.1300743e-19
0.11973299
7.8469408e-15
0.12850062
6.9180898e-19
0.13778505
-7.2684544e-15
0.14772019
6.991885e-15
0.15834881
-6.7253504e-15
0.16950981
0
0.18103726
-6.216391e-15
0.19300516
0
0.20570943
0
0.21940887
-1.1037651e-14
0.23419068
0
0.24989386
1.0194002e-14
0.26597522
0
0.28230803
0
0.29962691
9.0581187e-15
0.31916734
8.7121281e-15
0.34186931
0
0.36660724
0
0.39234361
0
0.41975223
0.027353458
0
0.023513194
-8.9865948e-05
0.018760129
-0.00013893703
0.01343079
-0.00013353297
0.0073770048
-6.0736522e-05
0.00011421541
0.030889242
0.00024048645
0.034492759
0.00036801337
0.038186291
0.00048189393
0.04151448
0.00056282888
0.044204873
0.00059310405
0.04609981
0.00056166003
0.047648757
0.00045979679
0.048858379
0.00027517247
0.049271161
0
0.050841083
0
0.056504454
0
0.062517168
-5.1094062e-15
0.068766972
4.9214974e-15
0.075514112
0
0.082537249
-4.5660591e-15
0.089786329
6.9613594e-19
0.097122435
8.4699395e-15
0.10462342
0
0.1124775
0
0.12072439
0
0.1294071
0
0.13867022
-7.0015376e-15
0.14865127
-5.6985991e-19
0.15930394
6.476654e-15
0.17043101
-6.2275873e-15
0.18190209
0
0.19381
0
0.20646791
0
0.22015406
0
0.23493941
0
0.25064853
0
0.26666686
0
0.28289802
3.328255e-19
0.30014534
-2.8490625e-19
0.31969406
0
0.34249419
0
0.36728761
-1.5536483e-14
0.39289112
0
0.42008759
0.030906125
0
0.027339384
-0.00010377096
0.02348678
-0.00017507222
0.018745407
-0.00019839177
0.013440807
-0.00016499312
0.0073827783
-6.7961403e-05
0.00012337991
0.034588411
0.00025787962
0.038378904
0.00039032519
0.041803936
0.00050262671
0.04459336
0.00057714663
0.046641421
0.00060247451
0.048444369
0.00056932954
0.049959376
0.00046359432
0.050682811
0.00027558835
0.050790073
0
0.052858376
0
0.058511466
0
0.064367564
-1.2401828e-18
0.070720024
1.0899444e-18
0.077346176
-4.5674755e-15
0.084205922
4.398906e-15
0.091136943
5.2159927e-19
0.098206735
0
0.10561754
0
0.11338596
-7.5673133e-15
0.12152393
0
0.13016481
-7.0094382e-15
0.13947467
0
0.14951296
0
0.16016675
0
0.17125094
5.9966489e-15
0.18266433
0
0.1945113
0
0.20713025
0
0.22080246
-1.0231473e-14
0.23560444
0
0.25131433
9.4500357e-15
0.26727851
-9.0845556e-15
0.28342188
-8.7341636e-15
0.30061818
-2.6873373e-19
0.3201831
0
0.34304446
1.5547769e-14
0.36785365
0
0.39332783
0
0.42030557
0.034635783
0
0.030898375
-0.00011412982
0.027306589
-0.00020213323
0.023437439
-0.00024975784
0.018721498
-0.00024503254
0.013455025
-0.00018480142
0.0073912461
-6.9741407e-05
0.00013235738
0.03850969
0.00027346361
0.042017844
0.00040679091
0.044892406
0.00051502565
0.047079523
0.00058640321
0.049120111
0.00061139754
0.050927752
0.00057457756
0.05193697
0.00046448961
0.052354919
0.00027581378
0.052525333
-5.3038115e-15
0.054733919
0
0.060231801
0
0.066202954
0
0.072447322
-4.5677669e-15
0.078935055
0
0.08548031
-4.2393823e-15
0.092138013
4.4576955e-19
0.099130938
0
0.106458
0
0.11409714
-7.291086e-15
0.12217164
0
0.13085118
6.7530182e-15
0.14024386
6.4959851e-15
0.15031535
0
0.16093923
-4.1387261e-19
0.17197687
5.7745505e-15
0.18333077
0
0.19511944
0
0.2077017
0
0.22136807
1.9701149e-14
0.23618253
0
0.25190462
-9.099331e-15
0.26781323
0
0.28388666
8.4108145e-15
0.3010555
-8.0890005e-15
0.32062351
0
0.34351842
-4.5801808e-19
0.36831626
-1.4412699e-14
0.39364735
-1.4874841e-19
0.42041618
0.038576815
0
0.034645482
-0.00012338712
0.030866063
-0.00022238507
0.027249704
-0.00028834524
0.023364948
-0.00030809286
0.018688616
-0.0002742961
0.013473457
-0.00018986095
0.0074023251
-6.4950564e-05
0.00014033234
0.042155598
0.00028478173
0.045103746
0.00041654623
0.047416807
0.00052347758
0.049677126
0.00059577688
0.051761515
0.00061754279
0.053045458
0.00057588918
0.053748121
0.00046500067
0.054238878
0.00027594503
0.054109314
0
0.056336569
0
0.061948323
-4.7434477e-15
0.067826944
-4.5698002e-15
0.073957589
-4.4017458e-15
0.08013745
0
0.086402518
0
0.092999956
3.9348004e-15
0.099916204
0
0.10709459
0
0.11465287
0
0.12275932
0
0.13152714
0
0.14097876
-4.7338851e-19
0.15104266
0
0.16162785
-5.7857184e-15
0.17261707
-1.1121043e-14
0.18391115
-5.3439101e-15
0.19564263
0
0.20819156
0
0.22185157
0
0.23669174
0
0.25241672
0
0.26827937
0
0.28429225
8.0994118e-15
0.30145359
-7.7900102e-15
0.32102374
-7.4940206e-15
0.34390388
-1.4423016e-14
0.36867052
0
0.39386979
-2.6732889e-14
0.42043246
0.042215443
0
0.038593694
-0.00013245345
0.034617047
-0.0002405118
0.030801363
-0.00031742348
0.027169805
-0.00035572621
0.023270112
-0.00034433355
0.018647665
-0.00028157583
0.013496282
-0.00017705728
0.0074163136
-5.2476179e-05
0.00014604206
0.045228305
0.00029144773
0.047655772
0.00042349873
0.050115736
0.00053235117
0.052458876
0.00060226855
0.054004088
0.00061919596
0.054979104
0.00057654533
0.055765461
0.00046513211
0.055974135
0.00027464237
0.055416671
0
0.057935465
0
0.063471916
0
0.069260568
-4.4036289e-15
0.075094027
4.2423975e-15
0.080986718
-4.0869165e-15
0.087207758
0
0.093739408
-3.7915314e-15
0.10049066
0
0.10757119
-7.0314955e-15
0.11515581
-6.7685053e-15
0.12334651
0
0.13218895
-6.2661749e-15
0.14166569
6.0268616e-15
0.15169945
0
0.16223915
-5.5712184e-15
0.17318037
-5.3545402e-15
0.18441134
-5.145369e-15
0.1960854
0
0.20860502
0
0.22226794
0
0.23712524
8.7759831e-15
0.25286448
8.435959e-15
0.26867208
-2.2319915e-19
0.28464655
0
0.30181564
-1.9200103e-19
0.32135218
0
0.34420722
0
0.36893248
-1.3372165e-14
0.39398531
-1.2875728e-14
0.42036267
0.045265891
0
0.042214484
-0.00014038775
0.038559636
-0.00025824666
0.034538624
-0.00034340965
0.030705144
-0.00039190934
0.027067416
-0.00039763733
0.023153792
-0.00035281667
0.01859759
-0.00026231995
0.013524296
-0.00014326342
0.0074336644
-3.1198232e-05
0.00014939343
0.047798115
0.00029639918
0.05043578
0.00043109055
0.053017963
0.00053858392
0.054808058
0.00060409561
0.056042174
0.00061996124
0.057110341
0.0005767012
0.057628121
0.00046298771
0.057429235
0.00027241
0.056710587
-4.7445226e-15
0.059361103
0
0.06483025
0
0.070336522
-4.9239303e-19
0.075877247
4.0884138e-15
0.081740061
-3.9382717e-15
0.087908189
0
0.094261081
-3.6538807e-15
0.10089779
0
0.10800337
0
0.11566963
6.5208803e-15
0.12393521
-6.2746795e-15
0.1328273
-6.036047e-15
0.14230192
-3.9296454e-19
0.15229111
0
0.16278368
-2.8578436e-19
0.1736718
5.1555234e-15
0.18483598
-4.9541118e-15
0.19645699
0
0.20895385
0
0.2226159
-2.729161e-19
0.23749969
0
0.25323997
8.1231188e-15
0.26900169
0
0.28494454
0
0.3021158
-7.2254952e-15
0.32162057
-6.9519945e-15
0.34442139
0
0.36908906
-1.2881224e-14
0.39401116
-1.2403398e-14
0.42020776
0.047843839
0
0.045238202
-0.00014594658
0.042152647
-0.00027367485
0.038460396
-0.00036877539
0.034410499
-0.00042410402
0.030577892
-0.00043854454
0.026942516
-0.00040754854
0.023015615
-0.00032794329
0.018538959
-0.00021198751
0.013557557
-8.531041e-05
0.0074529455
-9.8230318e-15
0.00015196921
0.050637311
0.00030195022
0.05343584
0.00043644519
0.055453755
0.00054035246
0.056932027
0.00060481376
0.058267876
0.00062000146
0.059080529
0.00057398202
0.059213299
0.00045928055
0.05887032
0.00026963707
0.057836996
0
0.060642675
0
0.065850813
-4.2442146e-15
0.071061481
4.0892763e-15
0.076581308
3.9780358e-19
0.082406137
0
0.088385757
0
0.09460836
7.0425885e-15
0.10126968
0
0.10845856
6.5279569e-15
0.11619294
6.2825962e-15
0.12451244
-6.0447117e-15
0.13343981
0
0.14288841
0
0.15281916
0
0.16326755
-5.1658797e-15
0.17409699
0
0.18519195
-4.7698815e-15
0.19676459
0
0.2092422
-8.8083863e-15
0.22290622
0
0.23780721
-8.1366673e-15
0.25355835
0
0.26926436
-7.5215978e-15
0.28518526
1.420274e-19
0.30236031
-6.9591215e-15
0.32181202
0
0.34455521
0
0.36915177
0
0.39394231
-1.1946734e-14
0.41996796
0.050719362
0
0.047818916
-0.00014922465
0.045144937
-0.00028440621
0.042011927
-0.00039075873
0.038296035
-0.00045545828
0.03423328
-0.00047468375
0.030419998
-0.00045002473
0.026797352
-0.00037901076
0.022854481
-0.0002643138
0.01847099
-0.00012603725
0.013590679
0
0.0067997812
0
0.00015491522
0.053710253
0.00030587216
0.055938064
0.00043794938
0.057643283
0.00054097266
0.059233341
0.00060473867
0.060325584
0.00061699718
0.060773575
0.00056937371
0.060783439
0.00045461257
0.060142517
0.00026595285
0.058824045
0
0.06160813
0
0.066527144
4.0908663e-15
0.071719838
0
0.077216589
2.5845694e-19
0.082846271
0
0.088681784
-3.5237692e-15
0.094929206
1.9435396e-19
0.10167854
0
0.10892871
0
0.11670665
0
0.12507715
0
0.13401618
-5.600168e-15
0.14341855
0
0.15329711
0
0.16369607
-2.166137e-19
0.1744598
4.7795057e-15
0.18548657
0
0.19701682
0
0.20947532
0
0.22313687
8.150811e-15
0.23806512
-7.8348064e-15
0.25380897
0
0.26947032
-9.0846057e-20
0.28536132
-6.9670494e-15
0.3025413
0
0.32194708
0
0.34459473
0
0.36911549
0
0.39378655
0.0038297153
0.41581822
0.053838686
0
0.050711584
-0.00015186832
0.047721698
-0.00029077597
0.044963777
-0.0004059669
0.041792869
-0.00048254924
0.038066841
-0.00050972147
0.034007143
-0.00048716512
0.030231967
-0.00041913115
0.0266312
-0.00030562264
0.022670195
-0.0001566458
0.018387807
0
0.012529127
0
0.0072778374
0
0.00015700725
0.056258655
0.00030696654
0.05817309
0.00043840564
0.060002091
0.00054078593
0.061358323
0.00060167668
0.062104592
0.00061198752
0.062451463
0.00056358132
0.06218508
0.00044848191
0.061267874
0.00026128854
0.059503615
0
0.062244573
0
0.067143651
0
0.072326116
3.7988131e-15
0.077626407
-3.6598644e-15
0.083098674
-3.5258935e-15
0.088958682
0
0.095300118
-3.2701289e-15
0.10210808
0
0.10938617
0
0.11720949
0
0.12562594
0
0.13455437
0
0.14390128
0
0.15372764
0
0.16407327
-1.8504302e-19
0.17476589
0
0.18572675
4.4216439e-15
0.19721569
0
0.20965701
0
0.22332035
0
0.23826143
0
0.25400842
0
0.26960661
0
0.28548083
6.6221778e-20
0.30266785
-6.4561897e-15
0.32199283
0
0.34455175
1.1955849e-14
0.36896816
0.0074387605
0.38992969
0.0034852311
0.41193986
0.056413386
0
0.053853622
-0.00015493633
0.050613567
-0.00029599243
0.047525765
-0.00041508201
0.044694658
-0.00050122635
0.041495063
-0.00053997508
0.037771983
-0.00052304561
0.033731144
-0.00045369328
0.030014004
-0.00033857046
0.026442908
-0.00018127648
0.02245829
0
0.017008279
0
0.013437705
9.4434525e-15
0.0077872539
9.8279547e-15
0.00015757466
0.058519151
0.00030724585
0.060570274
0.00043813787
0.062173968
0.00053788837
0.063201241
0.00059668758
0.063868749
0.00060571564
0.063964313
0.00055605315
0.063433032
0.00044056228
0.06207362
0.00025523729
0.059870555
0
0.062823249
0
0.067720649
0
0.072710816
-3.6617173e-15
0.077842003
-3.5275028e-15
0.083338041
0
0.089298303
0
0.095697704
1.9620372e-19
0.10251985
0
0.1098303
0
0.11770839
5.6174951e-15
0.12614991
5.4027778e-15
0.13504849
5.1950553e-15
0.14434213
0
0.15411663
0
0.16440027
-1.5670668e-19
0.1750209
0
0.18591671
-4.2569863e-15
0.19736944
0
0.20979572
0
0.22345416
-7.5568912e-15
0.23841277
0
0.25414022
0
0.26968573
-1.3437103e-14
0.28553449
2.1392631e-20
0.30271586
0
0.32197006
-5.9810643e-15
0.34437015
0.010802567
0.36532306
0.0067699484
0.3863181
0.0031172193
0.40835812
0.058679783
0
0.05643831
-0.00015712075
0.053755346
-0.00030203206
0.050395328