/*--------------------------------*- C++ -*----------------------------------*\
| =========                 |                                                 |
| \\      /  F ield         | OpenFOAM: The Open Source CFD Toolbox           |
|  \\    /   O peration     | Version:  v2012                                 |
|   \\  /    A nd           | Website:  www.openfoam.com                      |
|    \\/     M anipulation  |                                                 |
\*---------------------------------------------------------------------------*/
FoamFile
{
    version     2.0;
    format      ascii;
    class       volVectorField;
    location    "51.4666819687525106";
    object      U;
}
// * * * * * * * * * * * * * * * * * * * * * * * * * * * * * * * * * * * * * //

dimensions      [0 1 -1 0 0 0 0];


internalField   nonuniform List<vector> 
9200
(
(2.6599387 -0.0027271391 7.6744738e-22)
(2.659284 -0.011195031 1.720616e-21)
(2.6711435 -0.0030325898 8.376761e-22)
(2.658055 -0.018053595 -1.2571531e-21)
(2.6719532 -0.012925384 -3.7429554e-22)
(2.6775336 -0.0028395057 2.4510072e-22)
(2.6558969 -0.026601507 0)
(2.6723896 -0.02133635 -9.7151708e-23)
(2.679449 -0.012292976 -1.0652292e-21)
(2.684366 -0.0023174293 -1.0990229e-22)
(2.6524535 -0.035309658 2.7198894e-22)
(2.6729187 -0.032245133 8.448097e-22)
(2.6816109 -0.020648239 1.4929526e-21)
(2.6875329 -0.010487529 5.4820837e-22)
(2.6891858 -0.0013816418 6.487168e-22)
(2.6475372 -0.044931351 -4.0709552e-21)
(2.6724153 -0.044300202 -1.6252067e-21)
(2.6847439 -0.031867666 1.2657076e-22)
(2.6918708 -0.018020564 1.2605156e-21)
(2.693517 -0.0071933156 -1.124058e-21)
(2.6916841 0.00018341565 -9.3847535e-22)
(2.6407607 -0.054898865 -7.9781481e-22)
(2.6706572 -0.058428775 -2.2694426e-21)
(2.6875732 -0.04495592 -1.6445205e-21)
(2.6983108 -0.028670019 -8.4538323e-22)
(2.7000642 -0.012750204 1.1747868e-21)
(2.6971562 -0.0026618865 8.9441054e-22)
(2.6913917 0.0017977209 -2.8952471e-21)
(2.6319571 -0.065004598 3.5963869e-21)
(2.6667697 -0.074331461 2.8627296e-21)
(2.6898431 -0.060973801 -1.0217889e-22)
(2.705522 -0.041857001 -6.5598368e-21)
(2.7099655 -0.02142383 -2.0831573e-22)
(2.7055638 -0.0051871972 -4.2561312e-21)
(2.6977646 0.002791523 7.7719004e-21)
(2.6883032 0.0034327416 2.8946199e-21)
(2.6209344 -0.074726721 -1.5272581e-23)
(2.660185 -0.091892093 2.8019778e-21)
(2.6905419 -0.079970568 2.381021e-21)
(2.7133385 -0.058812387 1.6947854e-21)
(2.7219891 -0.0329524 -3.700506e-21)
(2.7186477 -0.010486261 1.4930097e-21)
(2.7074308 0.004056009 -1.2336118e-21)
(2.6950115 0.0086657006 2.1336201e-21)
(2.6825586 0.0050093845 -1.5261314e-21)
(2.6076423 -0.083503321 3.0421105e-21)
(2.6501644 -0.11070752 7.6284564e-22)
(2.688917 -0.10209576 6.8671654e-22)
(2.720712 -0.080015435 7.3337683e-21)
(2.7362493 -0.048709772 2.0881284e-21)
(2.7352592 -0.018467385 -2.8767055e-21)
(2.7228839 0.0033951527 -3.561344e-21)
(2.705273 0.014134132 1.1802614e-20)
(2.6890441 0.014420472 -6.7133492e-21)
(2.6745376 0.006364334 1.7413241e-22)
(2.5921138 -0.090651185 -2.9549716e-21)
(2.6360858 -0.13018506 2.3563933e-21)
(2.6839421 -0.1272879 -6.3406666e-21)
(2.72684 -0.10601529 -9.7427723e-21)
(2.7519175 -0.069590901 1.5491955e-21)
(2.7559825 -0.030472628 -2.9510732e-21)
(2.7429751 0.00072740975 8.1927507e-21)
(2.7217928 0.018817476 -5.9545369e-21)
(2.6991195 0.02406259 -1.5994965e-21)
(2.6803643 0.019573357 -8.7771603e-21)
(2.6647852 0.0074378227 2.6663099e-21)
(2.5745171 -0.095510831 3.1796728e-21)
(2.6173908 -0.14958244 -1.4107212e-21)
(2.6746234 -0.15522795 -9.5738733e-21)
(2.7305052 -0.13728617 -8.7712645e-21)
(2.7684422 -0.096616993 1.2317796e-21)
(2.7804892 -0.047649857 4.4961035e-21)
(2.7689416 -0.0048817492 -6.1091131e-21)
(2.7436218 0.022644917 -4.2781693e-21)
(2.7152286 0.034170906 4.848574e-21)
(2.6894833 0.032935476 -6.2319865e-21)
(2.6696216 0.023775801 1.7495424e-21)
(2.6538881 0.0082278204 -6.3620704e-21)
(2.5550996 -0.097376261 1.3270033e-21)
(2.5936121 -0.16797935 3.7750463e-21)
(2.6599047 -0.18541497 5.3971397e-21)
(2.7304084 -0.17403189 1.388978e-20)
(2.7847309 -0.13094516 6.1614885e-21)
(2.8088668 -0.071394538 3.5858389e-21)
(2.8010352 -0.014486286 -3.2401456e-21)
(2.7723695 0.025424148 -2.5684755e-21)
(2.7367195 0.044778946 -2.9054778e-21)
(2.7038911 0.047899393 1.078491e-20)
(2.6772141 0.040110698 -8.4412422e-22)
(2.6575518 0.0268462 -6.2020534e-21)
(2.6424116 0.0087204306 4.1064959e-22)
(2.5342048 -0.095592568 -5.0592905e-21)
(2.5643898 -0.18429833 -1.4194242e-21)
(2.6386895 -0.21700365 -3.7697194e-21)
(2.7249624 -0.21629307 1.3192463e-20)
(2.7994715 -0.17354975 -5.2058534e-22)
(2.8406844 -0.10351334 -2.5055211e-20)
(2.8402233 -0.029416293 2.9575792e-20)
(2.8088072 0.026478383 1.9395814e-21)
(2.7650897 0.056541069 2.6025886e-21)
(2.7230305 0.064594642 4.2943495e-21)
(2.6889781 0.058893079 -7.4819813e-22)
(2.6632853 0.045262617 6.243192e-21)
(2.6448558 0.028757749 -5.9484713e-21)
(2.630851 0.0089293607 8.4890609e-21)
(2.5123497 -0.089637872 -4.527235e-22)
(2.5297765 -0.19758384 3.5640835e-21)
(2.6102068 -0.24904343 -9.7441047e-21)
(2.7125245 -0.26372544 -7.6412092e-21)
(2.8108419 -0.22536971 -5.3820726e-21)
(2.8753051 -0.14586825 -1.2058643e-20)
(2.8872224 -0.051591833 7.003276e-21)
(2.8545974 0.025235813 2.0663073e-20)
(2.8013477 0.069463818 -5.9143411e-21)
(2.7480421 0.084423054 -2.2569281e-21)
(2.7043186 0.080264974 1.8018361e-21)
(2.6718976 0.066608413 4.3410851e-21)
(2.6486268 0.048353326 1.3249748e-21)
(2.6321269 0.029596525 9.6530648e-21)
(2.6196017 0.0088924801 1.2184001e-21)
(2.4904475 -0.079158416 -6.8777071e-21)
(2.4904093 -0.20702544 -4.5693375e-21)
(2.5744957 -0.28056982 1.112158e-20)
(2.6920906 -0.3161101 3.3751623e-20)
(2.8171683 -0.28728489 0)
(2.9117568 -0.20070816 3.737175e-20)
(2.9429287 -0.083237572 -2.9877606e-20)
(2.9115149 0.020576036 -3.7057107e-21)
(2.8473128 0.084077814 6.0535658e-21)
(2.7796902 0.10806515 5.2947682e-21)
(2.723856 0.10612184 -1.0508868e-20)
(2.6827054 0.09092916 0)
(2.6539841 0.071016095 -4.5363958e-21)
(2.6340181 0.04955657 -4.521855e-21)
(2.6198263 0.029516133 3.6215985e-22)
(2.608953 0.0086567018 -5.340935e-21)
(2.4689362 -0.063931739 1.2551292e-20)
(2.4471681 -0.21204455 3.5403403e-21)
(2.5319607 -0.31060366 1.7144001e-21)
(2.6630252 -0.37246384 -6.8207535e-21)
(2.8169459 -0.36011752 8.1203894e-21)
(2.9493314 -0.27086172 2.5896137e-20)
(3.0088581 -0.12766068 4.1920792e-21)
(2.9820814 0.011220163 6.0733088e-21)
(2.9051084 0.10056222 2.1672428e-20)
(2.8193366 0.13707699 4.1707893e-22)
(2.747807 0.13753933 1.3819734e-21)
(2.6957873 0.12031288 7.8037151e-21)
(2.6601743 0.096600934 -1.8183377e-21)
(2.6363219 0.072447779 -1.1681841e-20)
(2.6200437 0.049168509 0)
(2.6082806 0.028699267 -2.7323299e-21)
(2.5990965 0.0082699543 -3.2221986e-21)
(2.4479048 -0.0440499 6.8807825e-21)
(2.4010507 -0.2121694 -5.0595596e-21)
(2.4834642 -0.33788453 -1.0694114e-20)
(2.624296 -0.43131577 -1.8215889e-20)
(2.8063874 -0.44326472 -3.3515781e-20)
(2.9847158 -0.35814633 -8.612597e-20)
(3.0858489 -0.18918185 -6.8381578e-20)
(3.0704509 -0.0058362699 8.5946103e-20)
(2.9781153 0.11927025 1.6005469e-20)
(2.8685676 0.17294603 2.1706014e-20)
(2.7766758 0.17665156 -2.1035328e-20)
(2.7107598 0.1558614 -6.9600453e-22)
(2.6668292 0.12714013 6.7408348e-22)
(2.6382779 0.097881629 3.6581846e-21)
(2.6196857 0.071428123 4.5621095e-21)
(2.6070951 0.047531974 1.3437514e-21)
(2.5976957 0.027329857 2.5657106e-21)
(2.5901414 0.0077768634 1.8569872e-21)
(2.4278487 -0.019757173 -1.2507721e-20)
(2.3529493 -0.20712556 -1.0892517e-20)
(2.429774 -0.36113848 2.1534542e-20)
(2.5750773 -0.48954567 2.9592505e-20)
(2.7818724 -0.53353207 3.5208334e-20)
(3.008654 -0.46245096 7.3652377e-20)
(3.1676594 -0.27025505 -1.1254399e-19)
(3.1781244 -0.033391578 -7.54035e-20)
(3.071378 0.13971973 8.6449504e-20)
(2.9302618 0.2176915 -3.7866032e-21)
(2.8109038 0.22563377 -8.2190686e-21)
(2.7272445 0.1997228 -6.7621015e-21)
(2.6731015 0.16347607 -1.5077039e-20)
(2.6392168 0.12768008 -6.5183094e-21)
(2.618058 0.095656223 1.0339475e-21)
(2.6045564 0.068540496 5.7661141e-21)
(2.5953981 0.044983931 2.0244662e-21)
(2.5881782 0.025576017 1.1782264e-21)
(2.5821321 0.0072162069 1.2577104e-21)
(2.4084601 0.0084373477 -5.8124514e-20)
(2.3036725 -0.1969578 0)
(2.3721615 -0.37939311 2.1433714e-21)
(2.515354 -0.54354716 -5.4446748e-21)
(2.7370315 -0.62547029 -7.501732e-20)
(3.0100438 -0.57654608 -4.3981434e-20)
(3.2419047 -0.3698545 9.1451857e-20)
(3.2951898 -0.071140138 -9.2589885e-20)
(3.1848591 0.16286257 -2.3353109e-20)
(3.0082722 0.27364521 9.7659635e-20)
(2.8516172 0.28743425 3.6212257e-22)
(2.7444919 0.25394422 -1.5110688e-20)
(2.6779825 0.20736491 -7.6250396e-21)
(2.6380399 0.16228542 -7.5629317e-21)
(2.6143361 0.12339665 1.9371162e-21)
(2.600097 0.09086453 -5.7283759e-21)
(2.5911748 0.064339145 -3.2549327e-21)
(2.5850491 0.04182506 -1.6921766e-21)
(2.5797597 0.023581625 2.8412429e-22)
(2.5750645 0.0066199678 0)
(2.3882911 0.039741115 5.8848449e-20)
(2.2543715 -0.18182682 -2.1111358e-21)
(2.3120927 -0.39202152 -1.2938566e-20)
(2.4462249 -0.5900409 1.7250745e-20)
(2.6700871 -0.71166753 8.71149e-20)
(2.9739925 -0.69109057 1.509207e-19)
(3.2754249 -0.47952818 1.9745787e-19)
(3.4021845 -0.11600377 -2.004735e-20)
(3.3053909 0.19146964 -2.5264454e-19)
(3.1001725 0.3452652 7.7386418e-20)
(2.9001983 0.36612293 -2.6127233e-20)
(2.7617313 0.32124607 0)
(2.6799518 0.26019085 9.976506e-21)
(2.6334367 0.2029022 8.7455535e-21)
(2.6073686 0.15467415 6.8877805e-21)
(2.592855 0.11576363 -4.6840309e-21)
(2.5846234 0.084363315 -5.9927372e-21)
(2.5796047 0.059302875 -2.7364886e-21)
(2.5760515 0.038306389 -1.3364734e-21)
(2.5724177 0.021463844 -2.1119286e-23)
(2.5689009 0.0060133848 0)
(2.3653009 0.073297694 4.6788818e-21)
(2.2058228 -0.16214217 -1.1055121e-20)
(2.250976 -0.3989975 -2.5304484e-20)
(2.3698595 -0.62664035 1.7754941e-21)
(2.5822187 -0.78496979 2.0765325e-20)
(2.894122 -0.79424303 1.4863806e-19)
(3.2530235 -0.58944001 2.9326227e-19)
(3.4370188 -0.16763919 -2.028764e-19)
(3.4110878 0.22788235 -2.1636485e-19)
(3.1902656 0.43520953 -1.7756093e-19)
(2.9523923 0.46726348 6.1893893e-20)
(2.7779516 0.4052698 1.1197011e-20)
(2.6770904 0.3236728 -1.0848721e-21)
(2.6236325 0.25011336 1.5531719e-21)
(2.5958196 0.19016168 6.3861982e-21)
(2.5817723 0.14290327 -2.7932428e-21)
(2.5749267 0.10606047 2.5626192e-21)
(2.5716246 0.076862883 1.3693182e-21)
(2.5697921 0.053818612 1.2066068e-21)
(2.5683469 0.034627086 7.4646525e-22)
(2.5660942 0.019314197 -3.786681e-22)
(2.5635814 0.0054154838 -7.366891e-23)
(2.3344231 0.10833015 -3.6816392e-20)
(2.1568746 -0.13885454 9.692827e-21)
(2.1900683 -0.4005677 3.6701985e-20)
(2.2891692 -0.65226439 -4.0338752e-21)
(2.4764684 -0.84116966 -1.098742e-19)
(2.7728055 -0.8770286 -3.7932245e-19)
(3.1560061 -0.68674895 -1.1852714e-19)
(3.4092084 -0.2081644 0)
(3.4615663 0.28001175 2.1951679e-19)
(3.2499569 0.54830423 -3.8872141e-20)
(2.991383 0.59384467 8.0702188e-20)
(2.7878229 0.51034228 7.3076447e-21)
(2.6670964 0.39974341 2.5672644e-20)
(2.6064347 0.30454448 8.4583328e-21)
(2.5780331 0.22974728 -3.7671419e-21)
(2.5656679 0.17253638 -9.2615898e-21)
(2.5612044 0.12882789 -3.0205532e-24)
(2.5603829 0.095296683 1.2313617e-21)
(2.5609411 0.068913174 1.0319164e-21)
(2.5616119 0.048183159 9.5444388e-22)
(2.5618391 0.0309385 -5.3700235e-22)
(2.5607095 0.017201454 2.0938663e-23)
(2.5590339 0.0048397362 8.3641835e-23)
(2.2882806 0.14296747 1.4513783e-20)
(2.1053729 -0.11294686 -1.3374367e-20)
(2.1304459 -0.39751879 2.4331769e-20)
(2.2072761 -0.66627156 -2.5288426e-20)
(2.3592086 -0.87725924 2.8246188e-20)
(2.6155812 -0.93343582 5.8421578e-20)
(2.9851523 -0.75516576 -8.6085921e-20)
(3.267872 -0.21391788 -7.2136895e-21)
(3.3465223 0.35788689 3.0298393e-19)
(3.2268591 0.70019903 4.9330813e-19)
(2.9851877 0.75033028 -9.9026847e-21)
(2.7774513 0.63836824 3.2883093e-20)
(2.6453455 0.49034282 -1.1765687e-20)
(2.5793567 0.36644313 -2.3791695e-20)
(2.5521039 0.27323039 3.7811414e-21)
(2.5432016 0.20405883 1.1980012e-21)
(2.54252 0.15263534 2.7756626e-21)
(2.545212 0.11382789 0)
(2.5488844 0.084213516 -1.531558e-22)
(2.5523377 0.060916948 -8.6287942e-22)
(2.5549018 0.042614056 -1.120711e-21)
(2.5564122 0.027350955 1.1396977e-21)
(2.5561725 0.015175147 -5.9614966e-22)
(2.55518 0.0042948965 -1.4201934e-24)
(2.2290332 0.17534934 -1.1517988e-20)
(2.0506352 -0.086218182 -9.4386768e-21)
(2.0730638 -0.3910244 -2.9950411e-21)
(2.1275027 -0.67044421 -6.9623412e-20)
(2.2377918 -0.89220324 -7.9260519e-21)
(2.435939 -0.96379599 1.4521746e-19)
(2.7564642 -0.78807716 4.8745426e-19)
(3.0238412 -0.1826533 -1.1558647e-20)
(3.0980057 0.46247589 0)
(3.0450635 0.873771 -5.9489047e-20)
(2.8916634 0.93446465 -2.7598839e-19)
(2.7271797 0.78771912 4.456379e-20)
(2.6024349 0.59468655 -2.7993275e-21)
(2.5392023 0.43576324 -2.3035083e-20)
(2.5159752 0.31975332 1.3300531e-21)
(2.5129836 0.23677768 -2.7891814e-21)
(2.5179157 0.17659527 -1.2007633e-20)
(2.5254412 0.13226708 4.0161584e-21)
(2.5331665 0.098851831 3.3646649e-21)
(2.5400241 0.073322477 1.7797475e-21)
(2.5455502 0.053154472 1.1222286e-21)
(2.5494859 0.037263624 5.2587892e-22)
(2.5519432 0.023941189 -5.2370243e-22)
(2.5523882 0.013269097 -5.4245318e-23)
(2.5519407 0.0037862047 -1.4073761e-21)
(2.1632192 0.20508574 7.8271073e-21)
(1.9932233 -0.06154052 -7.3747196e-21)
(2.0193474 -0.3828005 -2.4108742e-20)
(2.0529622 -0.66633094 8.0232582e-20)
(2.1191294 -0.89040355 3.0303845e-20)
(2.2501101 -0.96433453 1.5920157e-20)
(2.4935967 -0.78778688 9.1417331e-21)
(2.7161537 -0.12939533 1.7453747e-19)
(2.7840005 0.5885581 3.8756891e-19)
(2.7572904 1.044223 -1.0142715e-18)
(2.6954266 1.120766 4.9217686e-19)
(2.611395 0.94664928 -1.549632e-20)
(2.5266854 0.70832728 -6.182589e-21)
(2.4805705 0.51042598 1.8938407e-21)
(2.4676259 0.36809174 3.1877675e-21)
(2.4736475 0.26932065 -7.2145847e-21)
(2.4865334 0.19980145 -3.3094652e-21)
(2.5004806 0.14961373 -7.164992e-21)
(2.513362 0.11257472 -3.0510616e-21)
(2.5244066 0.084504201 4.8344813e-21)
(2.5333895 0.062955097 -1.41786e-21)
(2.5403151 0.045810242 -3.5383136e-21)
(2.5451892 0.032232822 2.2951342e-21)
(2.5483096 0.020759305 0)
(2.5492627 0.011504613 -7.3161003e-23)
(2.5492395 0.0033170485 5.9685125e-23)
(2.095868 0.23189359 1.8455209e-20)
(1.9348829 -0.04017947 -4.7755913e-20)
(1.9698539 -0.37426964 -5.9006189e-21)
(1.9855555 -0.65647552 2.7044591e-20)
(2.009309 -0.87419585 -7.7372758e-20)
(2.0714546 -0.94709967 -9.6062544e-20)
(2.2213141 -0.75592475 3.3616564e-19)
(2.3768205 -0.057964853 6.9699509e-20)
(2.4233692 0.71841538 -5.1297458e-20)
(2.4179998 1.2104242 2.435586e-20)
(2.4154956 1.2914279 3.4425946e-19)
(2.4130354 1.095994 -4.5900235e-20)
(2.4050567 0.8218123 -1.4398524e-20)
(2.3966395 0.58538319 -1.7393607e-21)
(2.4046533 0.4159576 -3.5659747e-21)
(2.4240654 0.29996373 -1.1659096e-20)
(2.4476958 0.2207701 1.4650801e-20)
(2.4699259 0.16494676 -1.0977771e-20)
(2.4891915 0.12438775 -8.0344727e-21)
(2.5052639 0.094209029 5.6381492e-21)
(2.5183151 0.071137468 2.590708e-21)
(2.5285969 0.053310333 0)
(2.5363858 0.038997043 -8.940209e-22)
(2.5418464 0.027583384 -1.4964882e-21)
(2.5453951 0.017834832 -1.0421245e-21)
(2.5467066 0.0098932489 -1.4089535e-21)
(2.5470041 0.0028911534 -2.0106164e-22)
(2.0326017 0.25556069 -5.8207014e-21)
(1.879202 -0.022272482 1.6099208e-19)
(1.9239988 -0.36670379 7.109865e-21)
(1.9263785 -0.64186632 -5.6614971e-20)
(1.9123485 -0.84701747 -1.5665431e-19)
(1.9090148 -0.91312525 1.6391686e-19)
(1.9612252 -0.69824338 1.770177e-19)
(2.0343378 0.024212302 5.4721057e-20)
(2.0506036 0.84533791 -4.0219907e-20)
(2.0557231 1.3629892 3.4351512e-19)
(2.0966159 1.4419178 -2.7707489e-19)
(2.1515084 1.2242998 9.4282392e-20)
(2.2264453 0.9196537 -1.8028938e-20)
(2.2820422 0.65342824 9.4819289e-21)
(2.3238866 0.45904415 8.7464364e-21)
(2.3635329 0.32648507 5.6576898e-21)
(2.4010341 0.23778977 5.5479905e-21)
(2.4336382 0.17689398 8.2974877e-21)
(2.4605972 0.13347689 1.1612757e-21)
(2.4825546 0.10152067 -8.0819473e-21)
(2.5002631 0.077486395 1.5949702e-21)
(2.5143531 0.058931056 4.5242341e-22)
(2.5253062 0.044493783 -1.2329589e-21)
(2.5335396 0.032775569 6.1975766e-21)
(2.5393061 0.023347774 -6.1553669e-22)
(2.543092 0.015181793 -2.1567847e-21)
(2.5446372 0.0084391023 8.9868809e-23)
(2.5451671 0.0025127056 1.0857157e-22)
(1.977592 0.27621467 5.3360096e-20)
(1.8298693 -0.0076812376 1.6636421e-20)
(1.8814756 -0.36087212 2.2509612e-20)
(1.8760623 -0.62484221 -5.1825058e-20)
(1.8301677 -0.81466969 1.104682e-20)
(1.768594 -0.864984 1.4248047e-20)
(1.7291131 -0.62413431 -3.6201332e-19)
(1.7144739 0.11038887 1.2518087e-19)
(1.6958533 0.96022562 3.1293683e-21)
(1.7070027 1.4908573 -5.0277299e-20)
(1.7783331 1.5646662 -7.4194329e-20)
(1.8662116 1.3300983 -6.6218566e-20)
(1.9959311 0.9902393 1.6941815e-20)
(2.132682 0.70444504 2.050083e-20)
(2.2231868 0.4915785 1.9030406e-20)
(2.2915353 0.34586299 1.7298169e-22)
(2.3466711 0.24885018 2.5123282e-20)
(2.39183 0.18403532 -2.0622629e-20)
(2.4278052 0.13869008 1.7402699e-21)
(2.4564589 0.10579081 -1.2501517e-20)
(2.4793588 0.081199257 9.9528546e-21)
(2.4976328 0.062512437 -1.949557e-21)
(2.5120677 0.047951742 -3.7329462e-21)
(2.5232247 0.036547586 3.4954242e-21)
(2.531581 0.027169585 -3.4870153e-21)
(2.537433 0.019537061 2.7972207e-22)
(2.541303 0.012802797 4.3288671e-21)
(2.5429805 0.0071408436 -9.2104034e-22)
(2.5436678 0.0021777094 4.1033867e-21)
(1.9331355 0.2946068 3.1526777e-21)
(1.789328 0.0043985888 -3.7325351e-19)
(1.8420738 -0.35712886 -9.1491566e-20)
(1.8343994 -0.60726237 -1.1828178e-20)
(1.7630879 -0.77903421 3.4304136e-19)
(1.652845 -0.80900593 -2.1549681e-19)
(1.5346816 -0.54163006 -1.3009056e-19)
(1.4381221 0.19718784 1.150821e-18)
(1.3839125 1.0560601 4.8938545e-19)
(1.4006929 1.590692 8.2568893e-20)
(1.4886739 1.6587345 -6.4982795e-20)
(1.5897901 1.4137199 2.3824644e-19)
(1.7388338 1.0345395 -9.1044194e-20)
(1.9470895 0.72782128 -8.382664e-21)
(2.1029754 0.50765076 -6.7020724e-21)
(2.2077804 0.35401931 1.8075856e-22)
(2.2853518 0.25187572 -7.0952807e-22)
(2.3451244 0.18478207 1.8742381e-21)
(2.3913788 0.1389775 -9.8904376e-21)
(2.4274216 0.10612544 2.0152656e-20)
(2.4559263 0.08180794 -8.236587e-21)
(2.4786677 0.063375769 4.0009125e-22)
(2.4967948 0.049269594 5.7953743e-21)
(2.5110868 0.038196373 -1.92501e-21)
(2.5221047 0.029471942 7.816989e-22)
(2.5303407 0.02217725 -4.6891366e-21)
(2.536108 0.01614694 -1.9413404e-22)
(2.5399418 0.010692157 4.8295234e-22)
(2.5416701 0.00599342 1.7552906e-21)
(2.5424524 0.0018822432 -2.2358134e-21)
(1.8959763 0.31225755 -4.8344898e-20)
(1.7585522 0.013801491 -5.3534426e-21)
(1.8064925 -0.35480452 -4.3228966e-20)
(1.8006748 -0.59017019 5.3801439e-20)
(1.7102714 -0.74144718 -9.7789399e-20)
(1.5615464 -0.75002547 -3.2298556e-19)
(1.3811593 -0.45625892 5.5598592e-19)
(1.2171896 0.27988633 5.1034175e-19)
(1.1321037 1.1311104 5.0418013e-19)
(1.1556419 1.6622099 6.1365586e-20)
(1.2466528 1.727165 9.7539029e-20)
(1.3401834 1.4771744 -9.3628209e-20)
(1.4827537 1.0606123 5.335857e-20)
(1.7325744 0.72021264 -2.9227061e-20)
(1.9641764 0.50076968 5.267861e-21)
(2.1134882 0.34704208 8.3500786e-22)
(2.2182271 0.24452761 -3.0203533e-21)
(2.2946458 0.17767797 1.6889443e-20)
(2.3522324 0.13325379 -1.8147024e-20)
(2.3961698 0.10183318 5.2325791e-21)
(2.4305153 0.078668357 -1.0571444e-20)
(2.4578525 0.061220924 9.1475383e-21)
(2.4797787 0.047887107 -1.68847e-21)
(2.4972974 0.037674358 -7.559642e-21)
(2.5111086 0.029620308 1.3297355e-21)
(2.5217394 0.023240017 -9.3040487e-21)
(2.5296741 0.017779395 5.9947826e-21)
(2.5352278 0.013162347 4.2785514e-21)
(2.5389327 0.0088383834 -6.0065411e-21)
(2.5406471 0.0049892915 7.1181368e-22)
(2.5414739 0.0016237851 -2.3105243e-21)
(1.8688459 0.32988567 4.8242097e-22)
(1.7364447 0.025169294 5.2721242e-19)
(1.7770288 -0.35519006 3.3235963e-20)
(1.7742077 -0.57403978 1.6096242e-21)
(1.6702733 -0.70442899 -2.196897e-19)
(1.4928724 -0.69119442 -3.1004338e-19)
(1.2663391 -0.37308893 0)
(1.0536435 0.35436432 -1.629514e-18)
(0.94791139 1.1859812 -7.4548002e-19)
(0.97957475 1.7087559 -1.5503379e-19)
(1.0597096 1.7753258 1.2349785e-19)
(1.1263616 1.5266032 -2.8599528e-19)
(1.2440448 1.076459 1.8661862e-19)
(1.5047378 0.68721127 4.6515927e-20)
(1.807768 0.46528816 -4.0124738e-21)
(2.0116809 0.32193333 0)
(2.1467978 0.22438281 2.5520095e-21)
(2.2420372 0.16148568 -8.3243991e-21)
(2.311612 0.12063735 4.8209526e-21)
(2.3637045 0.092273183 -6.7971212e-21)
(2.4038907 0.071400858 2.1083938e-20)
(2.4357599 0.055620045 -2.8775331e-21)
(2.4614325 0.043646336 -4.9494133e-21)
(2.4821724 0.034526226 1.7505175e-21)
(2.4987897 0.027612098 -2.4537986e-21)
(2.5118898 0.022155516 -1.0001479e-20)
(2.5219572 0.017807856 -3.3081782e-21)
(2.529459 0.013945503 5.7312481e-21)
(2.5347038 0.010561162 1.1145061e-21)
(2.5382101 0.0072262969 -3.6097673e-21)
(2.5398603 0.004119365 1.5908171e-22)
(2.540691 0.0013998024 -1.0965084e-21)
(1.8570684 0.34606203 -2.4975692e-19)
(1.7247079 0.03770004 1.1866319e-19)
(1.7519629 -0.35283392 6.1531547e-22)
(1.7536964 -0.56038885 -5.8419891e-20)
(1.641807 -0.6693844 8.0248035e-20)
(1.4441201 -0.63448336 -5.1982337e-19)
(1.1862718 -0.2956871 1.7304391e-18)
(0.94251812 0.41792002 4.6473258e-19)
(0.83724799 1.2231181 -9.9235646e-19)
(0.8681517 1.7358213 -9.8867719e-20)
(0.92589613 1.8104195 -4.1692133e-20)
(0.95134714 1.5697728 7.4152228e-19)
(1.0289009 1.0885492 -4.0767512e-19)
(1.2789383 0.63761865 2.6102317e-19)
(1.6377116 0.39976789 -8.4429041e-20)
(1.9052898 0.27578197 5.5647093e-22)
(2.0734542 0.18974196 -5.7289454e-21)
(2.1892151 0.13517899 1.2283074e-20)
(2.2710766 0.10050761 -9.5350194e-21)
(2.3312556 0.077072888 8.0256787e-21)
(2.3770064 0.059714393 -9.2321043e-21)
(2.413111 0.046440404 -5.5579511e-21)
(2.4422991 0.036291466 8.1834026e-22)
(2.4661103 0.028705406 1.1614262e-21)
(2.4854658 0.02308046 -2.0985362e-21)
(2.5009995 0.018956814 1.656588e-20)
(2.5132347 0.01572179 1.6404414e-21)
(2.5226168 0.013121033 6.6637541e-21)
(2.5295928 0.010637963 -3.856777e-22)
(2.5344605 0.0083173349 -2.7574279e-21)
(2.5377177 0.0058385295 7.3557072e-21)
(2.5392653 0.0033737053 5.7188852e-21)
(2.5400681 0.0012076407 2.8116626e-22)
(1.8576721 0.36109179 2.777743e-21)
(1.7234038 0.049285807 -4.1547843e-19)
(1.7336505 -0.34953764 -9.6777473e-20)
(1.7383786 -0.5452213 -3.9192527e-22)
(1.6220856 -0.63678839 -1.7994874e-19)
(1.4121949 -0.58145557 5.0197445e-19)
(1.1356989 -0.22538838 -2.6741998e-19)
(0.87662169 0.46975292 1.2693827e-18)
(0.78547963 1.2456541 7.2638399e-20)
(0.80849939 1.7497161 -3.6313794e-19)
(0.83937738 1.8391114 7.8006375e-20)
(0.81487488 1.6135473 3.6430409e-19)
(0.83969021 1.1021965 -7.4679225e-21)
(1.0654763 0.57867113 -2.255909e-19)
(1.461807 0.30729909 -3.3776868e-20)
(1.7963763 0.20586124 0)
(2.0014703 0.13990638 0)
(2.1381529 0.097977428 5.572157e-21)
(2.2324217 0.072638732 -9.724773e-21)
(2.3002031 0.056086816 2.1364618e-20)
(2.3509533 0.043609308 -1.521215e-20)
(2.3907428 0.03364991 2.7589173e-21)
(2.4230108 0.025868892 -5.218006e-21)
(2.4495957 0.020083352 -8.2539148e-21)
(2.4715025 0.016060059 -5.4478228e-23)
(2.4893743 0.013349345 -6.7403662e-21)
(2.5037139 0.011581724 2.8858105e-21)
(2.5149852 0.010233995 1.4076274e-20)
(2.523602 0.0091196625 4.3994527e-21)
(2.5299904 0.0078151036 2.8635682e-21)
(2.5344346 0.0064031494 4.3834976e-22)
(2.5374074 0.0046566464 5.1301625e-21)
(2.5388246 0.0027420543 -2.0384818e-21)
(2.5395748 0.0010446471 2.6621692e-21)
(1.8700941 0.3744597 5.4380558e-19)
(1.7350873 0.060828958 -1.2021573e-19)
(1.7254658 -0.34692814 -6.2403076e-20)
(1.7267452 -0.53000883 -9.7097655e-20)
(1.6156467 -0.60554776 -1.0236774e-19)
(1.3921396 -0.53093421 8.4920607e-19)
(1.1079102 -0.16391562 -1.7021873e-18)
(0.84817918 0.51186077 -9.1605109e-19)
(0.76527027 1.2561216 1.9222305e-19)
(0.7880892 1.7551414 5.9842698e-20)
(0.79422239 1.8654618 -8.9241951e-20)
(0.71475231 1.6612831 -3.3509976e-19)
(0.67932989 1.1207948 -5.5815126e-19)
(0.87192123 0.51510789 -7.922009e-19)
(1.2899244 0.19350005 1.2913634e-19)
(1.6876295 0.11150815 5.0410846e-21)
(1.9340731 0.074620129 -1.6742189e-20)
(2.0910486 0.049839005 7.504733e-21)
(2.1974928 0.037150011 6.1335128e-21)
(2.2719963 0.02951574 -3.9749586e-21)
(2.3268893 0.023303031 1.648699e-20)
(2.3695508 0.017502076 7.1353153e-22)
(2.4042565 0.012521787 1.2074835e-20)
(2.4331548 0.0088248402 1.8337027e-21)
(2.4573159 0.0065096755 4.2789201e-21)
(2.4773404 0.0054221035 -9.0996815e-21)
(2.4936836 0.0051504113 5.4117166e-21)
(2.5067662 0.0053645906 -6.91973e-21)
(2.517014 0.0056068755 -1.1410306e-21)
(2.5248174 0.0057430302 -1.2092222e-22)
(2.5305811 0.0054337865 -7.1689977e-22)
(2.5345732 0.0047899808 -1.6993398e-21)
(2.5372389 0.003662232 -3.5798501e-21)
(2.538506 0.0022142305 -3.0913887e-21)
(2.5391849 0.00090810299 7.7229184e-22)
(1.8931705 0.38543225 -1.2021567e-20)
(1.7633459 0.072248215 -2.2089113e-19)
(1.7279728 -0.34482642 8.8703147e-20)
(1.7206324 -0.51654499 1.0805499e-19)
(1.6170154 -0.57556781 1.7646025e-19)
(1.3914788 -0.48773463 -4.1673147e-19)
(1.0986235 -0.10750191 -1.1661185e-18)
(0.85168495 0.5473836 -6.4551228e-19)
(0.76410357 1.2589247 -1.2040782e-18)
(0.79902121 1.754328 4.166568e-19)
(0.78337463 1.8913614 -2.8982529e-19)
(0.64830673 1.7115084 -1.0277372e-23)
(0.55596414 1.1435947 4.8661233e-19)
(0.7072723 0.4497085 3.3209634e-19)
(1.1324471 0.063643882 9.3861189e-20)
(1.5837169 -0.0047076476 -5.262556e-20)
(1.8738934 -0.0057123369 3.681892e-21)
(2.0503429 -0.0085173369 -6.6501741e-22)
(2.1679986 -0.0054887013 7.4579793e-21)
(2.2481028 -0.0020912856 -7.0248405e-21)
(2.305948 -0.00070271534 5.4265359e-21)
(2.350426 -0.0015685227 -1.9782544e-20)
(2.3867188 -0.003347595 7.1109581e-21)
(2.4173194 -0.0048272559 -3.7698035e-22)
(2.4433251 -0.0053410478 0)
(2.4652453 -0.0048123765 -1.376611e-20)
(2.483429 -0.0034517823 1.0535084e-20)
(2.4982295 -0.001681379 -5.8757665e-21)
(2.5100248 0.00018949176 -8.2970165e-21)
(2.5192193 0.0017576188 4.6224818e-21)
(2.5261855 0.0029333184 -1.1909524e-22)
(2.5313063 0.0034520935 -8.0197719e-21)
(2.5348321 0.0034483738 -6.8377108e-21)
(2.5371785 0.002837906 -1.9121461e-22)
(2.5382825 0.0017803952 -1.5004817e-22)
(2.5388765 0.00079483764 -6.0192455e-23)
(1.927115 0.39364627 -3.1332547e-19)
(1.8102109 0.083339851 -3.9136897e-21)
(1.7414749 -0.3419064 5.4406679e-20)
(1.7217573 -0.50456576 7.114208e-20)
(1.6250488 -0.54780015 7.4525239e-20)
(1.3997824 -0.4499963 -1.2627397e-20)
(1.1118239 -0.068813839 -9.6736432e-20)
(0.87660901 0.57558134 1.4273245e-18)
(0.80197315 1.2577137 5.3256356e-20)
(0.8415247 1.7498951 6.5178003e-22)
(0.79616986 1.916804 1.8812107e-19)
(0.61651137 1.7630775 1.0341327e-18)
(0.48577399 1.1666919 6.1186327e-19)
(0.58373581 0.382977 1.9420795e-18)
(0.9983393 -0.077832575 -1.4262332e-19)
(1.4900938 -0.14107245 -2.2132849e-19)
(1.8229835 -0.10106652 6.368707e-20)
(2.0182628 -0.076026653 3.3284527e-20)
(2.1453637 -0.054652615 -7.607721e-21)
(2.2298406 -0.037978166 -8.0321437e-21)
(2.2891798 -0.027710377 8.7509403e-21)
(2.3341892 -0.02289555 -6.8047332e-21)
(2.3710185 -0.021199527 -1.5973251e-21)
(2.4025685 -0.020411081 -1.5329799e-20)
(2.4299145 -0.019206252 -7.3188645e-21)
(2.4534109 -0.017098797 0)
(2.4732372 -0.014182815 6.3467026e-22)
(2.4896218 -0.010768152 9.0626417e-21)
(2.5028837 -0.0072955188 -1.1118703e-20)
(2.5133849 -0.0040530598 -4.2609103e-21)
(2.5215192 -0.0013932602 5.4133389e-21)
(2.5276442 0.00063624875 -3.2147017e-21)
(2.5321182 0.0018313591 -2.4151581e-21)
(2.5351747 0.0023504936 -8.7835764e-21)
(2.5371983 0.0021677353 -5.0292775e-22)
(2.538131 0.001431079 -2.6442503e-21)
(2.5386313 0.00070222398 7.9151622e-23)
(1.9708054 0.39901554 9.1429082e-21)
(1.8706394 0.094066592 2.861923e-19)
(1.7677531 -0.33694971 -2.934346e-21)
(1.7278376 -0.4933864 -5.2256365e-20)
(1.6386993 -0.52212671 2.4048331e-21)
(1.4173992 -0.41298892 2.3228236e-20)
(1.1351026 -0.048085782 9.4490871e-19)
(0.91207535 0.5828908 -4.1512169e-19)
(0.85448142 1.2498151 2.0131095e-18)
(0.8988826 1.7444916 -1.8835408e-20)
(0.83328757 1.9409922 1.3832636e-19)
(0.62464811 1.8149174 -9.5763394e-20)
(0.45874916 1.1897199 2.6053861e-19)
(0.51282671 0.31414663 -1.1850261e-19)
(0.89804278 -0.22681939 2.0085433e-20)
(1.4136206 -0.2932835 1.2796454e-19)
(1.7830518 -0.2100685 -2.222773e-20)
(1.9963559 -0.15157733 7.3326325e-20)
(2.1309019 -0.10921279 1.7755367e-20)
(2.2182528 -0.077247789 -2.8001287e-21)
(2.2774891 -0.056819878 -1.5743609e-20)
(2.3215556 -0.045655961 6.7860558e-21)
(2.3576962 -0.040298926 8.5414247e-21)
(2.3892939 -0.037344789 4.514549e-21)
(2.417395 -0.034616211 -4.4153981e-22)
(2.4421024 -0.031143646 7.0268148e-21)
(2.4633485 -0.026783992 1.2721062e-20)
(2.4811818 -0.021838989 9.3737009e-22)
(2.4958059 -0.016705145 -1.1285687e-20)
(2.5075458 -0.011827385 9.8834009e-21)
(2.516765 -0.0074655785 -7.2687089e-21)
(2.5238487 -0.0039212235 -1.1598206e-20)
(2.5291432 -0.0012005091 1.4615036e-23)
(2.532978 0.0005357746 8.1567823e-21)
(2.5355708 0.0014748612 2.0111345e-21)
(2.5372741 0.0016363449 -1.802981e-22)
(2.5380326 0.0011569888 6.968639e-23)
(2.5384339 0.00063142267 -1.2031447e-21)
(2.0220862 0.40160986 3.0770864e-20)
(1.9413035 0.10421335 2.9657461e-20)
(1.8071344 -0.32931566 2.266028e-20)
(1.7435223 -0.4824607 1.3999628e-20)
(1.656238 -0.49896319 -8.9255133e-22)
(1.4436193 -0.376503 -7.295712e-19)
(1.1722161 -0.023890922 5.2637344e-19)
(0.95824111 0.55858931 -7.9822794e-19)
(0.91862677 1.2243684 5.2273055e-19)
(0.96355219 1.7358245 -2.610778e-19)
(0.88860434 1.9626164 4.5050025e-21)
(0.67105602 1.8619152 -9.8984683e-19)
(0.46210617 1.2129443 4.7072296e-19)
(0.48667259 0.24503815 -2.4296797e-18)
(0.84185166 -0.37770886 1.6153523e-19)
(1.3605829 -0.45380916 4.3252282e-20)
(1.7572164 -0.32943145 -4.8097762e-20)
(1.986034 -0.23346198 -9.9041743e-20)
(2.1256418 -0.16770465 7.6832251e-21)
(2.2141906 -0.11881369 3.9545674e-21)
(2.2716259 -0.087002768 3.0160523e-21)
(2.3130945 -0.068903885 5.1598174e-22)
(2.3471598 -0.059795314 5.919441e-22)
(2.3777868 -0.054913902 3.5390383e-21)
(2.4059736 -0.051020968 -9.3474258e-22)
(2.4314975 -0.046512358 1.3565163e-20)
(2.4539388 -0.04098239 -1.5204123e-20)
(2.473085 -0.034647144 -8.8355783e-21)