/*--------------------------------*- C++ -*----------------------------------*\
| =========                 |                                                 |
| \\      /  F ield         | OpenFOAM: The Open Source CFD Toolbox           |
|  \\    /   O peration     | Version:  v2012                                 |
|   \\  /    A nd           | Website:  www.openfoam.com                      |
|    \\/     M anipulation  |                                                 |
\*---------------------------------------------------------------------------*/
FoamFile
{
    version     2.0;
    format      ascii;
    class       surfaceVectorField;
    location    "51.4666819687525106";
    object      Uf;
}
// * * * * * * * * * * * * * * * * * * * * * * * * * * * * * * * * * * * * * //

dimensions      [0 1 -1 0 0 0 0];


internalField   nonuniform List<vector> 
18180
(
(2.6596004 -0.0071661315 1.2600024e-21)
(2.6663524 -0.0028828079 8.0146846e-22)
(2.6586489 -0.014683215 1.8190381e-22)
(2.6665002 -0.012077311 6.6921523e-22)
(2.6715619 -0.0082542206 2.1138792e-22)
(2.6740077 -0.0029341189 5.3555616e-22)
(2.6569398 -0.02251366 -6.075498e-22)
(2.6661637 -0.019727374 -6.4729534e-22)
(2.6721787 -0.017170981 -2.310844e-22)
(2.6753454 -0.012602667 -7.2656612e-22)
(2.6785234 -0.0078631816 -4.3201641e-22)
(2.6810187 -0.0025733297 6.4105439e-23)
(2.6541176 -0.031088376 1.4054237e-22)
(2.6654595 -0.029478972 4.306485e-22)
(2.672663 -0.027024841 3.8959002e-22)
(2.6766205 -0.020985055 6.9178606e-22)
(2.6805661 -0.016483661 2.5669088e-22)
(2.6835675 -0.011372477 -2.4249808e-22)
(2.6860025 -0.0066713974 2.3017898e-22)
(2.6867377 -0.0018403123 2.759993e-22)
(2.6499131 -0.040309588 -1.9720956e-21)
(2.6635674 -0.039893531 -6.9515862e-22)
(2.6726586 -0.038446654 -4.315154e-22)
(2.6784261 -0.032052049 4.7860475e-22)
(2.6832298 -0.026488706 7.8689465e-22)
(2.68683 -0.019308506 1.3744449e-21)
(2.6897745 -0.014248419 9.1628869e-22)
(2.6905172 -0.0088079505 -3.0148705e-22)
(2.691424 -0.004486537 -2.6737278e-22)
(2.6904356 -0.00058373979 -1.604616e-22)
(2.6440356 -0.050100827 -2.3796574e-21)
(2.660295 -0.051813069 -3.1525503e-21)
(2.6715068 -0.051624608 -1.9581001e-21)
(2.6795722 -0.044633758 -1.6350544e-21)
(2.6862059 -0.038592616 -7.886067e-22)
(2.69164 -0.030237299 -3.6898354e-22)
(2.6951986 -0.023536897 1.723197e-22)
(2.6959464 -0.015333374 1.216808e-21)
(2.6969002 -0.009941853 6.3856921e-23)
(2.6953309 -0.0048830566 -9.8592589e-23)
(2.6945118 -0.0013750916 8.6770531e-24)
(2.6915259 0.0010063933 -1.9362232e-21)
(2.6362117 -0.060156409 1.4727654e-21)
(2.6549628 -0.064806677 1.0683847e-21)
(2.6686484 -0.066664034 3.824856e-22)
(2.6798356 -0.059725556 -1.1643866e-21)
(2.6887461 -0.053248346 -8.4754741e-22)
(2.6966889 -0.043375844 -4.1506334e-21)
(2.702037 -0.03542163 -3.7982256e-21)
(2.7041207 -0.024975364 -5.0750835e-22)
(2.7051806 -0.017205359 4.600859e-22)
(2.7028079 -0.0088943256 -1.599561e-21)
(2.7015008 -0.0038376057 -1.7671028e-21)
(2.6974252 0.00011832424 4.4005532e-21)
(2.6946849 0.0022370007 2.6170487e-21)
(2.6898223 0.0026312236 5.6327077e-23)
(2.6262614 -0.070071138 1.7301551e-21)
(2.6471835 -0.078713411 3.1913719e-21)
(2.6633672 -0.083444016 2.8313375e-21)
(2.6782861 -0.07720588 2.6171088e-21)
(2.6902042 -0.070808025 1.1809637e-21)
(2.7017747 -0.059871678 8.1402541e-22)
(2.709561 -0.050600515 -2.2944197e-21)
(2.7137424 -0.037316675 -5.1020416e-21)
(2.7161785 -0.027278352 -2.012844e-21)
(2.7143039 -0.015847448 6.5904895e-22)
(2.7123247 -0.0078705849 -1.2853364e-21)
(2.706483 -0.00047495231 -2.7182746e-21)
(2.7027595 0.0035377322 3.118358e-21)
(2.6963746 0.0057860452 4.8976107e-21)
(2.6917697 0.0060369681 2.5013702e-21)
(2.6854 0.0042364454 6.4107225e-22)
(2.614066 -0.079309347 1.5645618e-21)
(2.6364544 -0.093071974 4.0281487e-22)
(2.655007 -0.101667 1.7482981e-21)
(2.6742786 -0.097094105 1.7233977e-21)
(2.6897023 -0.091448046 1.5055221e-21)
(2.7058716 -0.079993329 4.9030501e-21)
(2.7171486 -0.069754867 4.6086216e-21)
(2.7247956 -0.053661106 1.8953265e-21)
(2.7293578 -0.041019366 -7.0934087e-22)
(2.7286047 -0.025567296 -3.2963703e-21)
(2.7272314 -0.014458151 -7.649604e-22)
(2.7207279 -0.0034093541 -1.0915315e-21)
(2.7154159 0.0037416301 -2.4364351e-21)
(2.7063296 0.0091936188 5.4119711e-21)
(2.700314 0.011635318 7.1300025e-21)
(2.691998 0.011599217 -2.3762411e-21)
(2.68591 0.0097861187 -4.2066426e-21)
(2.6785056 0.0057000445 -6.6086901e-22)
(2.5996182 -0.087248248 -5.6766242e-23)
(2.6224059 -0.1073048 2.6924892e-21)
(2.6428895 -0.12083764 1.5862835e-21)
(2.6669445 -0.11916136 -2.859323e-21)
(2.6863463 -0.11518279 -2.9445591e-21)
(2.7082104 -0.10409411 -4.6309664e-21)
(2.7238785 -0.093462235 -1.4902234e-21)
(2.7363499 -0.074699868 4.3845766e-21)
(2.7443455 -0.059417434 1.8096452e-21)
(2.7460823 -0.039411553 -4.5518715e-22)
(2.7459676 -0.024520999 -2.9151335e-21)
(2.7391009 -0.008681745 2.7664011e-21)
(2.7332656 0.0020767528 2.5123525e-21)
(2.7223272 0.011257055 -4.7813318e-21)
(2.7138094 0.016632755 2.6268768e-21)
(2.7021683 0.019195166 4.9648139e-21)
(2.6942504 0.019532533 -4.0708091e-21)
(2.6846637 0.017047041 -7.7653692e-21)
(2.6775486 0.013134097 -4.4514696e-21)
(2.669606 0.0069114968 1.4444759e-21)
(2.583021 -0.093220204 2.1501003e-22)
(2.604753 -0.12069859 -2.1626682e-21)
(2.6264254 -0.14028437 4.0979264e-22)
(2.6554877 -0.14295454 -3.7363146e-21)
(2.6791268 -0.14181869 -8.0113779e-21)
(2.7076748 -0.13238573 -7.5799635e-21)
(2.7287339 -0.12221437 -9.2407618e-21)
(2.7477475 -0.10122283 -4.1475386e-21)
(2.7604563 -0.083489976 1.3851766e-21)
(2.7661405 -0.05840404 3.0515531e-21)
(2.7686459 -0.039155705 8.9710371e-22)
(2.762407 -0.017426091 -4.5609971e-21)
(2.7563927 -0.0020041209 8.0257711e-22)
(2.7432483 0.011900489 1.8354649e-21)
(2.7330725 0.020977938 -5.08831e-21)
(2.7184849 0.026643818 -4.55165e-22)
(2.7074436 0.029375704 1.7324351e-21)
(2.6942617 0.028585292 -3.9608698e-21)
(2.6850765 0.026566544 -7.4619671e-21)
(2.6749379 0.021715351 -3.4113904e-21)
(2.6672844 0.015859925 2.192569e-21)
(2.6592695 0.0078404663 -1.9356087e-21)
(2.5644833 -0.09653778 2.2223284e-21)
(2.5833324 -0.13246092 3.4832465e-21)
(2.6051034 -0.15916878 1.2689642e-21)
(2.6391106 -0.16785448 2.0624059e-21)
(2.6670177 -0.17094212 -1.8377884e-21)
(2.7031199 -0.16481575 2.3896858e-21)
(2.7304552 -0.15633919 2.9385146e-21)
(2.7578642 -0.13405247 -1.1579994e-21)
(2.7768591 -0.11431596 3.779124e-21)
(2.7885479 -0.083756754 2.4970214e-21)
(2.7951528 -0.059701136 4.0257419e-21)
(2.7906471 -0.030742508 5.523186e-22)
(2.7855252 -0.009562526 -4.6266382e-21)
(2.7705882 0.010567467 -4.2928127e-21)
(2.7584765 0.024296857 -3.3947266e-21)
(2.7401541 0.033927489 -3.5784416e-21)
(2.7263335 0.039829995 8.4185035e-22)
(2.7095249 0.041168499 7.8894791e-21)
(2.6969282 0.04074813 2.5611765e-21)
(2.6832924 0.036592636 -3.4856607e-21)
(2.6735449 0.03225565 4.0929524e-22)
(2.6635162 0.025340708 -2.3034975e-21)
(2.6557813 0.017860998 -6.2793815e-21)
(2.6480724 0.0084788748 -2.9099961e-21)
(2.5443024 -0.096517131 -1.9730567e-21)
(2.558064 -0.14169638 -1.1353035e-22)
(2.5785117 -0.17649352 1.0908479e-21)
(2.6170376 -0.19297914 -7.2283919e-23)
(2.6489419 -0.20187235 6.6025135e-22)
(2.6932139 -0.20115936 9.3718095e-21)
(2.7275943 -0.19595882 1.3529449e-20)
(2.765442 -0.17378558 6.5428547e-21)
(2.7923479 -0.15295121 2.7086211e-21)
(2.8125533 -0.11695797 -9.6555134e-21)
(2.825308 -0.087749759 -1.1213913e-20)
(2.8243219 -0.049993011 1.6834845e-20)
(2.8212848 -0.021817558 1.371679e-20)
(2.8048018 0.0063965129 -5.997554e-22)
(2.7911978 0.026254027 -2.3904835e-22)
(2.768717 0.041285476 8.0627013e-23)
(2.7513791 0.051098758 -5.933042e-23)
(2.7298503 0.054879079 7.8746229e-22)
(2.7137809 0.056659179 7.4310787e-21)
(2.6963787 0.053502667 4.9062737e-21)
(2.6832929 0.049874329 -7.9455641e-22)
(2.6701748 0.042736438 2.7795005e-21)
(2.6605145 0.036355521 2.2885926e-22)
(2.6511205 0.027820406 -6.0728028e-21)
(2.6436746 0.019112948 -2.8754218e-21)
(2.6365464 0.0088268934 4.5281243e-21)
(2.5229113 -0.092566159 -2.6788738e-21)
(2.5291279 -0.14759678 -6.6215459e-22)
(2.5465036 -0.1912324 1.1557754e-21)
(2.5887184 -0.21731579 -5.6208286e-21)
(2.6239712 -0.23369296 -6.8569442e-21)
(2.6765632 -0.24082668 -5.7437186e-21)
(2.7185352 -0.2409112 2.4268429e-21)
(2.7688378 -0.22092091 3.7153021e-21)
(2.805347 -0.20035991 -3.0327015e-21)
(2.8372101 -0.15943465 -6.4708871e-21)
(2.8585741 -0.12514208 -1.8339431e-20)
(2.863547 -0.077041954 -8.8320476e-21)
(2.8645092 -0.040359841 1.7911889e-20)
(2.8471923 -0.0015559013 2.4986178e-20)
(2.8324682 0.026192509 1.16145e-20)
(2.8050685 0.048389196 -2.0638289e-21)
(2.783825 0.063561302 -1.7983012e-21)
(2.7565583 0.070752297 1.6139672e-22)
(2.7359545 0.075040426 9.0916773e-22)
(2.7136234 0.072581281 2.9962447e-21)
(2.6969049 0.070009091 5.6946035e-22)
(2.6803559 0.062825172 1.8458135e-21)
(2.6677355 0.056325169 5.2603226e-21)
(2.6558647 0.046837716 3.7364093e-21)
(2.6468044 0.038839777 -2.1900308e-21)
(2.6383992 0.029185168 2.0034033e-21)
(2.6315103 0.019665946 9.0905578e-21)
(2.6251375 0.0089105424 4.7833838e-21)
(2.5010318 -0.08426322 -3.7728142e-21)
(2.4970842 -0.1494931 -2.5518596e-21)
(2.5094336 -0.20252168 -6.3883921e-22)
(2.554216 -0.23990435 7.4179938e-21)
(2.5917532 -0.26545853 1.0381596e-21)
(2.6522621 -0.28324019 1.2419849e-20)
(2.7019654 -0.29088172 1.3748294e-20)
(2.7664675 -0.27573843 -3.6953248e-21)
(2.814111 -0.25740932 -2.6009345e-21)
(2.8611945 -0.21279375 1.6413644e-20)
(2.894141 -0.1739558 1.3483882e-20)
(2.9083889 -0.11393598 -2.1347671e-20)
(2.9160077 -0.067252148 -1.2054293e-20)
(2.898981 -0.014802166 1.544483e-21)
(2.8840083 0.023236301 8.0710477e-21)
(2.8509435 0.055228724 1.3216248e-20)
(2.8250989 0.077514069 2.6975288e-22)
(2.7905414 0.089138118 -2.5730056e-22)
(2.7643953 0.096923926 1.6451807e-21)
(2.7359101 0.095481818 -6.5072864e-21)
(2.7144139 0.093751974 -4.5593259e-21)
(2.6934232 0.08569972 8.8345453e-22)
(2.6774822 0.079190183 2.0979641e-21)
(2.6628357 0.068854572 -1.8363583e-22)
(2.6513951 0.060073831 -1.7037361e-21)
(2.6412196 0.048966418 -1.6621606e-21)
(2.6331041 0.039841937 2.3284251e-21)
(2.62588 0.029555479 4.9216312e-21)
(2.6197178 0.019618559 7.7594051e-22)
(2.614188 0.0087722971 -2.1246512e-21)
(2.4793315 -0.071315024 3.162221e-21)
(2.4628327 -0.14691695 -1.5652695e-21)
(2.4680644 -0.20967003 -3.7866382e-22)
(2.5140328 -0.25984832 -1.3649414e-21)
(2.5525158 -0.2961922 6.2604292e-21)
(2.6199536 -0.32742576 1.9730607e-21)
(2.6770711 -0.3453752 1.2785977e-20)
(2.7571095 -0.33855001 2.0683952e-20)
(2.8170533 -0.32499415 4.1961613e-21)
(2.8834711 -0.27890905 1.3110801e-20)
(2.9311731 -0.23671351 3.1441839e-20)
(2.9590409 -0.16346313 2.0633487e-20)
(2.9769968 -0.10525643 -1.2272592e-20)
(2.961894 -0.035084972 -1.1552284e-20)
(2.9479788 0.016150365 1.3474064e-21)
(2.9082657 0.061346136 9.2299157e-21)
(2.8771772 0.093306546 1.4124216e-20)
(2.8333927 0.1110897 3.1806318e-21)
(2.8001763 0.12349233 2.7743699e-21)
(2.7637376 0.12308605 3.3004487e-21)
(2.7362319 0.12252862 -4.3646785e-21)
(2.7097267 0.11335362 -1.1352342e-21)
(2.689465 0.10616377 4.0322938e-21)
(2.6713166 0.093819321 -9.2676191e-22)
(2.6571827 0.084205603 -3.1319326e-21)
(2.645032 0.071745489 -8.1880731e-21)
(2.6352085 0.061378849 -8.2215708e-21)
(2.6269224 0.049358657 -2.2172215e-21)
(2.6199386 0.039588155 1.7502092e-22)
(2.6139567 0.029099759 -1.2124278e-21)
(2.6086056 0.019088992 -3.992949e-21)
(2.6039378 0.0084595854 -4.2604515e-21)
(2.4580682 -0.053667823 9.6210457e-21)
(2.4271436 -0.13951875 3.46469e-21)
(2.4233368 -0.21214253 -9.0367621e-22)
(2.469023 -0.27622136 -3.7185988e-21)
(2.5069001 -0.32475242 -4.6977164e-21)
(2.5793444 -0.37215362 -8.4477754e-21)
(2.6430119 -0.40298428 -1.2709184e-20)
(2.7384853 -0.40856614 -2.0430756e-20)
(2.8114898 -0.40317553 -1.3394954e-20)
(2.9018476 -0.35911071 -3.9925523e-20)
(2.9676161 -0.31594066 -3.1990508e-20)
(3.015546 -0.22921264 -2.2447972e-20)
(3.0486422 -0.15824613 -3.330952e-20)
(3.0387595 -0.065557227 4.5627482e-20)
(3.0277448 0.0031264877 4.7346208e-20)
(2.9799109 0.066294709 1.1135791e-20)
(2.9428331 0.11125225 1.8744155e-20)
(2.8869741 0.13745283 2.1757434e-20)
(2.8447753 0.15624462 1.1417519e-20)
(2.7980517 0.15724443 -1.0516786e-20)
(2.762724 0.15802409 -1.0201402e-20)
(2.7291868 0.14687576 3.2288895e-22)
(2.7035238 0.13874245 3.4118051e-21)
(2.6811606 0.12379155 4.169997e-21)
(2.6636129 0.11237448 -5.3047643e-22)
(2.6490799 0.097253203 9.7282479e-22)
(2.6373326 0.085529801 -3.7554628e-21)
(2.6278757 0.071927899 -3.4030036e-21)
(2.6198587 0.060654836 2.3573247e-21)
(2.6134609 0.048334356 6.8791242e-22)
(2.607668 0.038341786 -6.2610454e-22)
(2.6028946 0.028001319 -3.2195137e-23)
(2.5983726 0.018196503 -2.3132676e-22)
(2.5945368 0.0080186503 -6.3364475e-22)
(2.4375407 -0.031500774 -3.1383045e-21)
(2.3905703 -0.12720369 -2.111991e-21)
(2.3761941 -0.20956807 -8.0737643e-21)
(2.4199849 -0.28814251 8.5023716e-21)
(2.4557196 -0.3498903 5.9601611e-21)
(2.5304712 -0.4152151 9.855676e-21)
(2.5988622 -0.46155723 6.4891829e-21)
(2.7082159 -0.48343701 9.0214812e-21)
(2.7937193 -0.48993419 1.9973442e-21)
(2.9102445 -0.4530478 2.1117314e-20)
(2.9970858 -0.41189639 -3.5611868e-21)
(3.0728924 -0.31332586 -9.959248e-20)
(3.1281238 -0.22967793 -9.1202122e-20)
(3.1304023 -0.10976233 -7.2170861e-20)
(3.1260896 -0.018425044 2.5709569e-21)
(3.0704208 0.068355711 8.6202685e-20)
(3.0263069 0.13136619 5.2406006e-20)
(2.9544384 0.16942962 6.0234265e-21)
(2.9004465 0.19702951 8.5333732e-21)
(2.8398924 0.19979468 6.2563412e-21)
(2.794362 0.20236011 -1.441295e-20)
(2.7518728 0.18840726 -1.3861888e-20)
(2.7192776 0.17863801 -3.8304283e-21)
(2.6917512 0.15974086 -8.0253329e-21)
(2.6700701 0.14589357 -7.4646535e-21)
(2.6528416 0.12741467 -2.972248e-21)
(2.638763 0.11323609 -1.6000824e-21)
(2.6280123 0.096747167 2.3207529e-21)
(2.6188446 0.083872082 2.7390778e-21)
(2.6119937 0.069956335 5.1757234e-21)
(2.6057833 0.05836771 3.628853e-21)
(2.6011426 0.046233337 1.6890479e-21)
(2.5965085 0.036363672 2.2860356e-21)
(2.5928491 0.026436022 1.8585983e-21)
(2.589127 0.017050483 1.5062419e-21)
(2.5860608 0.0074911349 1.5515783e-21)
(2.4178295 -0.0051313377 -3.6080466e-20)
(2.3538654 -0.11011434 -6.1294474e-21)
(2.3274852 -0.20185108 -5.2637425e-21)
(2.3678985 -0.2949813 -4.2446779e-21)
(2.4000024 -0.37048747 1.1514046e-20)
(2.4737876 -0.45414714 7.7781528e-21)
(2.5442151 -0.51759369 1.1486902e-20)
(2.6623018 -0.55885413 -2.3740808e-20)
(2.7587008 -0.58114118 -2.175093e-20)
(2.9013103 -0.55546857 -5.3230705e-21)
(3.0093722 -0.52184956 1.2865283e-20)
(3.1198324 -0.41522442 8.2725529e-20)
(3.2060252 -0.32032314 -7.1303178e-21)
(3.2287138 -0.16874808 -1.0273081e-19)
(3.2386166 -0.050544255 -8.4284375e-20)
(3.1806797 0.066641135 -4.8874024e-20)
(3.1300174 0.15370841 2.9710861e-20)
(3.0402256 0.20797197 9.2162984e-20)
(2.9705718 0.24814573 4.8633352e-20)
(2.8912981 0.25322914 -1.8377453e-21)
(2.8319412 0.2582055 -3.7849973e-21)
(2.777641 0.2400579 -1.1731352e-20)
(2.7361565 0.22790478 -1.1075922e-20)
(2.7023919 0.20361556 -7.201889e-21)
(2.6756236 0.18615229 -1.1226535e-20)
(2.655341 0.16286839 -1.124758e-20)
(2.6386087 0.14549098 -7.0580702e-21)
(2.6265828 0.12549672 -2.2091401e-21)
(2.6161349 0.10993023 1.5006175e-21)
(2.6089242 0.09321406 -2.4039988e-21)
(2.6022522 0.079996417 -1.7314572e-22)
(2.597745 0.066399291 1.1653907e-21)
(2.5932158 0.054965007 -7.034632e-22)
(2.5901271 0.043374057 1.3035398e-22)
(2.5865613 0.033888507 -3.0497903e-22)
(2.5838885 0.024559621 7.2266982e-22)
(2.5809062 0.01574488 7.5461696e-22)
(2.5785294 0.0069123541 6.1668164e-22)
(2.3980376 0.024823853 2.3221468e-21)
(2.3175839 -0.088582156 -2.9671689e-20)
(2.2781958 -0.18906679 -1.0909457e-21)
(2.313795 -0.29643985 -6.5982589e-21)
(2.3411205 -0.38577863 -5.6503312e-21)
(2.4105548 -0.48680111 9.846461e-21)
(2.4796311 -0.56768789 6.2833175e-21)
(2.5997891 -0.62927097 4.1744957e-20)
(2.7024378 -0.67017812 8.7651019e-21)
(2.863879 -0.65893806 4.049743e-20)
(2.9914143 -0.63577113 5.6734416e-20)
(3.1335425 -0.52705465 7.9089388e-20)
(3.2592262 -0.42781913 1.4623015e-19)
(3.317438 -0.24044207 3.4620417e-20)
(3.3504784 -0.092515063 -5.5104116e-20)
(3.298884 0.062713862 -1.7430285e-19)
(3.2471422 0.17982153 -1.4183631e-19)
(3.142969 0.25581918 2.7989933e-20)
(3.0557598 0.31267448 8.7183859e-20)
(2.9549264 0.32076505 3.4297813e-20)
(2.8767202 0.32912563 -1.3325525e-20)
(2.8066813 0.30465964 1.7757321e-22)
(2.7533998 0.28901276 -7.3027633e-21)
(2.7119419 0.25712499 -2.3256053e-21)
(2.679 0.23466948 1.4698209e-21)
(2.6554129 0.2050895 7.5196491e-22)
(2.6356614 0.18320882 8.6371235e-22)
(2.6224591 0.15840612 -1.9855163e-22)
(2.610736 0.13946822 4.495124e-21)
(2.6034073 0.11950654 -1.4288373e-21)
(2.5963551 0.10366699 -5.1887639e-21)
(2.5922175 0.087551319 -5.8631e-21)
(2.5877897 0.074609688 -4.6695597e-21)
(2.5852798 0.061772545 -2.9912872e-21)
(2.5822359 0.050837903 -2.2317822e-21)
(2.5804631 0.040031879 -1.5106841e-21)
(2.5778436 0.031113955 -5.5327378e-22)
(2.5760165 0.022502379 1.2856758e-22)
(2.5736968 0.01435645 -1.0913215e-23)
(2.5719212 0.0063108519 0)
(2.3764107 0.057400674 3.085584e-20)
(2.2816137 -0.063204413 2.3266548e-20)
(2.2292835 -0.17152965 -6.7330229e-21)
(2.2588579 -0.29258345 -1.4051676e-20)
(2.2805101 -0.39545953 -1.9328764e-20)
(2.3425885 -0.51165282 -5.4360089e-21)
(2.4067625 -0.60905847 9.2537899e-21)
(2.5217918 -0.68943282 1.9042579e-20)
(2.6246806 -0.74993553 5.2828387e-20)
(2.7928772 -0.75378376 1.184784e-19)
(2.9327192 -0.74463958 1.4974114e-19)
(3.1012326 -0.63923076 2.2264688e-19)
(3.263849 -0.53776739 2.4696475e-19)
(3.3497561 -0.32052996 -6.5909827e-21)
(3.420185 -0.14138389 -1.1452333e-19)
(3.4048264 0.059273923 -1.2028857e-19)
(3.3600086 0.21251878 -2.3389739e-19)
(3.2483135 0.31568383 -2.1452258e-19)
(3.1467266 0.39425815 -5.4353346e-20)
(3.0275538 0.40742312 6.9490911e-20)
(2.9271683 0.41973419 1.9355584e-20)
(2.8392095 0.38606379 -7.313614e-21)
(2.7701126 0.36515551 5.7856998e-21)
(2.7190419 0.32247928 -5.5286356e-22)
(2.6784733 0.29306069 4.2609739e-21)
(2.6514013 0.25505399 5.6839039e-21)
(2.6283708 0.22722691 5.0292254e-21)
(2.6143133 0.19640911 7.5432094e-21)
(2.6014013 0.17292511 6.6286136e-21)
(2.5943363 0.14867551 1.9514141e-21)
(2.5871286 0.12969608 -3.7070693e-21)
(2.5837195 0.11081881 -9.9107679e-22)
(2.5796132 0.09551607 -1.5722303e-21)
(2.5779969 0.08054104 -2.24096e-21)
(2.5754814 0.068307293 -6.150282e-22)
(2.5746012 0.056508055 -7.270419e-22)
(2.5728172 0.046306482 -2.244779e-23)
(2.5721222 0.036431402 -2.7498867e-22)
(2.5703142 0.028198344 3.7550686e-22)
(2.5691922 0.020368387 -2.0384397e-22)
(2.5674505 0.012945331 -1.9567324e-22)
(2.566187 0.0057087011 -3.7541479e-23)
(2.3493445 0.091633714 -1.6764221e-20)
(2.2444394 -0.034885585 7.2358055e-21)
(2.1805283 -0.14987021 -3.3339999e-22)
(2.2040869 -0.2837386 1.3238832e-20)
(2.2195013 -0.39963269 6.7379984e-21)
(2.2719901 -0.52813801 -1.4430909e-20)
(2.328162 -0.63980636 -1.2265509e-21)
(2.430934 -0.73602497 -5.5374278e-20)
(2.5275714 -0.81461365 -4.6743616e-20)
(2.6892149 -0.83192175 -1.8319245e-19)
(2.8314311 -0.83788295 -1.2418829e-19)
(3.0103036 -0.73940146 1.3480841e-20)
(3.2028895 -0.64229717 8.0469266e-20)
(3.3211778 -0.39506799 1.4378938e-19)
(3.4226478 -0.19211543 -9.8040519e-20)
(3.4469156 0.060523941 1.2402767e-20)
(3.4371722 0.25715302 8.8737269e-21)
(3.3307122 0.39117464 -1.2590679e-19)
(3.2211103 0.49679696 -1.0589536e-19)
(3.0930542 0.51602928 -4.669464e-20)
(2.9725399 0.53462745 7.1612698e-20)
(2.8704979 0.48920335 3.4076376e-20)
(2.7830523 0.46026311 9.1872902e-21)
(2.7220158 0.40244929 1.8485745e-20)
(2.6719263 0.36314111 1.2741101e-20)
(2.6412361 0.31392382 3.7782886e-21)
(2.6147463 0.27819817 5.1211092e-21)
(2.6004241 0.23973468 -1.1580212e-21)
(2.5866294 0.2105221 1.1399812e-21)
(2.5804503 0.18117999 -1.5878064e-21)
(2.5734512 0.15813123 -6.1353975e-21)
(2.571281 0.13573064 -1.3713611e-21)
(2.5678365 0.11774296 1.2369767e-21)
(2.5675063 0.10057537 1.8842139e-21)
(2.5658161 0.086338194 1.2980374e-21)
(2.5661734 0.072811773 1.197378e-21)
(2.5652189 0.061558191 1.1163453e-21)
(2.5656181 0.050946826 1.075982e-21)
(2.5648669 0.041619594 8.5392855e-22)
(2.5650262 0.032747414 9.2410533e-23)
(2.5638955 0.025263219 -4.6048226e-22)
(2.5633464 0.018237572 -1.7503056e-22)
(2.5620974 0.011556791 -2.47814e-23)
(2.5612606 0.0051220958 6.2119318e-24)
(2.3105784 0.1263306 -1.0290944e-20)
(2.2025117 -0.0045075993 -2.4861737e-20)
(2.1302605 -0.12506265 -2.2274127e-21)
(2.1495064 -0.27077238 1.7158362e-20)
(2.1592577 -0.39876422 3.0309534e-20)
(2.2008466 -0.53605034 5.0935684e-21)
(2.24685 -0.65934915 -1.5017389e-20)
(2.3319385 -0.76698417 1.2423382e-20)
(2.4158733 -0.86015236 -3.849925e-20)
(2.5569452 -0.88822508 -2.4080098e-20)
(2.6915587 -0.90750691 -1.5311512e-19)
(2.8628765 -0.81486438 -2.3042714e-19)
(3.0677167 -0.72527751 -1.0176301e-19)
(3.1972884 -0.44570345 -6.1792396e-20)
(3.3361728 -0.21599239 -3.7276751e-21)
(3.3711082 0.08035286 1.5441843e-19)
(3.4021178 0.31554064 2.6264805e-19)
(3.3429483 0.49414961 3.5905073e-19)
(3.2380213 0.62622314 2.3612666e-19)
(3.1209341 0.65122627 -2.4108925e-20)
(2.9881817 0.67668572 3.3883631e-20)
(2.8852154 0.61651503 5.6333831e-20)
(2.7824637 0.57747889 2.0523138e-20)
(2.7158707 0.50014598 -2.4118267e-21)
(2.6558573 0.44684271 6.3276052e-21)
(2.6225029 0.38277328 4.6663062e-22)
(2.5924433 0.3365375 -8.2055386e-21)
(2.5787345 0.28858766 6.0749413e-21)
(2.5646355 0.25214356 1.3306227e-22)
(2.5602484 0.21665737 -1.2370146e-21)
(2.5540597 0.18873645 -3.8571862e-21)
(2.5538428 0.16239553 -3.1276502e-21)
(2.5515504 0.14105934 1.4326942e-21)
(2.5530347 0.12118436 -1.48133e-24)
(2.5525443 0.10480379 5.9513422e-22)
(2.5545099 0.089648981 5.1971347e-22)
(2.5547116 0.076779403 4.1960594e-22)
(2.5565477 0.064838466 6.2459053e-23)
(2.55682 0.054712492 1.545008e-23)
(2.5581859 0.04534525 -1.0303833e-22)
(2.5582546 0.036962341 -8.3860518e-22)
(2.5590686 0.029110361 3.1742693e-22)
(2.558489 0.022398206 5.9901978e-22)
(2.5583934 0.016168898 -2.949414e-22)
(2.5575553 0.010223365 -2.6763308e-22)
(2.5570664 0.0045621046 4.029613e-23)
(2.2576637 0.15978438 1.0615447e-21)
(2.1517693 0.02609533 2.3894187e-21)
(2.0770865 -0.098700514 -1.1340549e-20)
(2.0946411 -0.2547651 -8.0811171e-21)
(2.100793 -0.39385308 1.0210302e-20)
(2.1312243 -0.53668398 -2.3575299e-20)
(2.1660523 -0.66832521 -4.8199049e-20)
(2.2301384 -0.78146839 -1.6436623e-20)
(2.2964652 -0.8853249 9.5538063e-21)
(2.4063403 -0.92138941 8.7875905e-20)
(2.5227496 -0.94994804 1.0327411e-19)
(2.6702132 -0.85930143 2.7710984e-19)
(2.8669763 -0.77529273 2.1029446e-19)
(2.9838564 -0.46330485 -4.8100906e-20)
(3.1417685 -0.20285145 -9.4589568e-21)
(3.1709593 0.13084624 -3.5372118e-21)
(3.2181018 0.40674694 1.4641754e-19)
(3.196418 0.62078071 1.1786645e-19)
(3.1329175 0.78654681 2.0765404e-19)
(3.0647686 0.81953547 1.0217515e-19)
(2.9368602 0.84460884 -1.47399e-19)
(2.8580028 0.76935625 1.7852524e-20)
(2.7514745 0.71642736 3.8918855e-20)
(2.688995 0.61610404 1.456868e-20)
(2.6231727 0.54470562 -7.1325768e-21)
(2.5912733 0.46253084 -1.750818e-20)
(2.5586084 0.40235547 -2.3400744e-20)
(2.5469606 0.34265269 -1.0990602e-20)
(2.5334361 0.29723444 2.5146551e-21)
(2.5320806 0.25465637 4.3315242e-22)
(2.5275881 0.2209004 -8.6215861e-22)
(2.5302558 0.19006505 -5.5142235e-21)
(2.5298072 0.16494636 -4.8626964e-21)
(2.5337789 0.14225676 3.4077799e-21)
(2.5349967 0.12330281 2.0750844e-21)
(2.5390504 0.10619676 1.7145456e-21)
(2.5407633 0.091723286 1.6644368e-21)
(2.5443545 0.078663848 8.250573e-22)
(2.5459755 0.067297048 5.0251871e-22)
(2.548869 0.056961438 1.5289089e-22)
(2.5500699 0.048019294 3.8187355e-23)
(2.5521349 0.039887636 -2.8163731e-22)
(2.5528334 0.032466537 8.2253839e-22)
(2.5541297 0.025613443 2.9206023e-22)
(2.5539872 0.019666483 -5.587151e-22)
(2.5542399 0.014203892 -3.2145845e-22)
(2.5537374 0.0089670831 -2.8716972e-23)
(2.5535258 0.0040356902 -7.175605e-22)
(2.1950229 0.19083745 -1.5211598e-21)
(2.0933843 0.054547055 -9.3563035e-21)
(2.0209668 -0.073149418 -8.372099e-21)
(2.0399608 -0.23747347 -1.6920148e-20)
(2.0453052 -0.38640354 -1.3905827e-20)
(2.0651497 -0.53140377 3.9468037e-20)
(2.088983 -0.66823319 7.8165595e-21)
(2.1305994 -0.78259541 -1.8677846e-20)
(2.1764717 -0.89148829 1.1829691e-20)
(2.24946 -0.92898391 4.3346117e-21)
(2.33991 -0.96541417 7.8401764e-20)
(2.4505716 -0.87404736 7.5856769e-20)
(2.6206254 -0.79008998 2.4028254e-19)
(2.7092749 -0.45228953 3.2887073e-19)
(2.8648423 -0.16092933 8.4607361e-20)
(2.8893249 0.21043479 1.9185573e-19)
(2.9357433 0.52314013 2.0027646e-19)
(2.9318632 0.75891626 -5.1689581e-19)
(2.8963579 0.957809 -5.528691e-19)
(2.8784581 0.99958091 2.2291894e-19)
(2.7902599 1.0293413 1.2095356e-19)
(2.7551835 0.94063613 -1.4324873e-19)
(2.6673499 0.87006698 1.3528724e-20)
(2.6257281 0.74725937 1.8705515e-20)
(2.5632932 0.65386354 -4.5475448e-21)
(2.5401529 0.55175292 -3.7427383e-22)
(2.5089063 0.47455876 -1.0153887e-20)
(2.5024798 0.40128368 -9.673301e-21)
(2.4909927 0.34476667 2.2899485e-21)
(2.4942315 0.29405731 -3.0238364e-21)
(2.4926587 0.25356295 -5.07578e-21)
(2.4993965 0.21793771 -3.0866929e-21)
(2.5017008 0.18854294 -7.5133742e-21)
(2.5089666 0.16284752 -9.5400526e-21)
(2.5125445 0.141182 -1.7609552e-21)
(2.5192479 0.12223313 4.3480367e-22)
(2.5229339 0.10590633 4.9794508e-23)
(2.5286797 0.091541074 4.1136315e-21)
(2.5319549 0.07905909 3.3580576e-21)
(2.5366287 0.068039749 1.4373555e-22)
(2.539267 0.058197112 -1.9017976e-22)
(2.5428728 0.04941216 -1.2485225e-21)
(2.5447475 0.04164711 -1.5740252e-21)
(2.5472895 0.034700125 1.4274466e-21)
(2.5484534 0.028221372 9.3278044e-22)
(2.5500865 0.022319833 -2.5683849e-22)
(2.5502807 0.017110033 -2.6216026e-23)
(2.5507915 0.012369998 -6.2462706e-23)
(2.5505569 0.0078017378 -7.1793645e-22)
(2.5505608 0.0035471488 -6.5982247e-22)
(2.1284146 0.21905479 1.3319326e-20)
(2.0314144 0.080011056 -2.0519008e-20)
(1.9630751 -0.050220483 -2.824227e-20)
(1.986077 -0.22103035 -6.6229521e-21)
(1.9937709 -0.37800341 -1.4699437e-20)
(2.0044575 -0.52234796 1.9740384e-21)
(2.0181289 -0.66102196 5.2746969e-20)
(2.0376635 -0.7723148 -1.1879026e-22)
(2.0623784 -0.8817513 -2.5339393e-20)
(2.0973683 -0.91931024 -3.4115143e-20)
(2.1577878 -0.95711886 -4.1948178e-20)
(2.2243109 -0.85808115 1.7915529e-19)
(2.3528921 -0.77217795 1.7813439e-19)
(2.4025793 -0.41573707 4.1146936e-20)
(2.5408011 -0.097030134 1.2036179e-19)
(2.5538627 0.30272679 5.9442343e-20)
(2.5976432 0.65099608 1.6078344e-19)
(2.6080342 0.90543074 2.0246933e-19)
(2.5819624 1.126478 -4.7756213e-19)
(2.5968216 1.1701317 -3.2197948e-19)
(2.5507741 1.2073575 4.1574149e-19)
(2.5591861 1.1081004 2.1884062e-19)
(2.5088953 1.0235768 -3.1207149e-20)
(2.506691 0.88303607 -1.4936941e-20)
(2.4638363 0.76740489 -1.0428006e-20)
(2.4598859 0.64568659 -3.9185919e-21)
(2.4372016 0.54949034 1.6488758e-23)
(2.4413894 0.4622956 -7.9777901e-22)
(2.4350872 0.39296986 -3.0197274e-22)
(2.4451222 0.33338149 -4.3771608e-21)
(2.4480283 0.28518831 -9.5110744e-21)
(2.4602446 0.24458458 3.9265213e-21)
(2.4664663 0.2106265 5.9704743e-21)
(2.4779687 0.18204294 -7.1863529e-21)
(2.4846935 0.15751573 -9.1349975e-21)
(2.4946699 0.13676074 -7.6242189e-21)
(2.5008736 0.11864891 -5.625881e-21)
(2.5092015 0.10321694 1.3588767e-21)
(2.5145161 0.089496343 5.2497155e-21)
(2.5212818 0.077693369 3.7012223e-21)
(2.525601 0.067152787 6.5325617e-22)
(2.5309339 0.058040662 -6.8928135e-22)
(2.5342606 0.049671309 -1.7101572e-21)
(2.5383037 0.042338579 -2.1869757e-21)
(2.5406406 0.035702838 6.4735721e-22)
(2.5434792 0.029863698 3.6305281e-22)
(2.5449701 0.02428298 -7.7322722e-22)
(2.5468196 0.019269144 -5.3284902e-22)
(2.5472643 0.014754264 -5.7383649e-22)
(2.5479564 0.010683553 -7.5382375e-22)
(2.5479307 0.006735138 -6.9921563e-22)
(2.5480971 0.0031000411 -7.3177934e-23)
(2.0631743 0.24424217 5.9102881e-21)
(1.9701566 0.10227854 9.1201399e-20)
(1.906109 -0.030666526 6.0117717e-20)
(1.9335364 -0.20670455 -1.9775176e-20)
(1.9461576 -0.37002308 8.2273789e-22)
(1.9500223 -0.51071778 -3.1759592e-20)
(1.954975 -0.64863137 -1.6187683e-20)
(1.9542068 -0.7536259 -6.6609987e-20)
(1.9592034 -0.86007705 -1.1834257e-19)
(1.9588592 -0.89404226 4.5646578e-20)
(1.9875118 -0.92957979 3.8285022e-20)
(2.0077162 -0.82023907 4.3130987e-20)
(2.0869104 -0.72641387 2.5392425e-19)
(2.0911839 -0.35823211 1.9137373e-19)
(2.1998398 -0.018477872 6.1959273e-20)
(2.1975258 0.40243127 1.3680354e-20)
(2.2307408 0.78038853 -4.5573079e-20)
(2.2491475 1.0468506 1.4901421e-19)
(2.2307929 1.2859401 1.892818e-19)
(2.2691171 1.3283243 -1.2924785e-19)
(2.2507157 1.3673661 2.31871e-20)
(2.2897112 1.2571769 2.168827e-19)
(2.2778938 1.1625214 2.6537817e-20)
(2.3183171 1.0061399 -3.165935e-20)
(2.3127622 0.8730886 -1.6274481e-20)
(2.3412568 0.73602426 -1.9986543e-21)
(2.3374241 0.62107845 4.0589662e-21)
(2.3586906 0.52101842 3.6033534e-21)
(2.3629198 0.43851542 2.796052e-21)
(2.3832024 0.3703748 1.1336193e-21)
(2.3927879 0.31379547 -2.7113932e-21)
(2.4120531 0.26828816 -2.8918277e-21)
(2.4235858 0.2296119 9.9474074e-21)
(2.44038 0.19841616 1.1413661e-20)
(2.4511765 0.17113033 -1.0184897e-21)
(2.4650878 0.14891309 -4.7925941e-21)
(2.4744174 0.12908153 -3.2832171e-21)
(2.4857616 0.11273685 -8.0586626e-21)
(2.4935306 0.097971537 -1.4506527e-21)
(2.5026872 0.085688547 3.5779798e-21)
(2.5089882 0.074406184 2.0762412e-21)
(2.5162783 0.064917951 1.5011461e-21)
(2.5212376 0.056193137 2.3375271e-22)
(2.5269081 0.048817975 -6.2826111e-22)
(2.5306613 0.041828753 -1.0691403e-21)
(2.5349271 0.035826947 2.7195612e-21)
(2.5375545 0.030247664 2.4788722e-21)
(2.5405458 0.025425165 -1.0475926e-21)
(2.542249 0.02068247 -8.2170966e-22)
(2.5442169 0.016483005 -1.6101045e-21)
(2.5448389 0.012611921 -1.7953664e-21)
(2.5456486 0.0091523134 -6.4645863e-22)
(2.5457811 0.0057712756 -5.0727039e-23)
(2.5460651 0.0026983259 -4.3534352e-23)
(2.0041746 0.26644115 2.4761856e-20)
(1.9142311 0.12131607 5.6320684e-21)
(1.8537086 -0.01456057 8.6394114e-20)
(1.8839249 -0.19495568 9.0367907e-20)
(1.9020243 -0.3634647 1.5067919e-20)
(1.9018355 -0.49832916 -2.2940761e-20)
(1.9003769 -0.63295345 -5.4139713e-20)