/*--------------------------------*- C++ -*----------------------------------*\
| =========                 |                                                 |
| \\      /  F ield         | OpenFOAM: The Open Source CFD Toolbox           |
|  \\    /   O peration     | Version:  v2012                                 |
|   \\  /    A nd           | Website:  www.openfoam.com                      |
|    \\/     M anipulation  |                                                 |
\*---------------------------------------------------------------------------*/
FoamFile
{
    version     2.0;
    format      ascii;
    class       volVectorField;
    location    "77.5099243080187534";
    object      cellDisplacement;
}
// * * * * * * * * * * * * * * * * * * * * * * * * * * * * * * * * * * * * * //

dimensions      [0 1 0 0 0 0 0];


internalField   nonuniform List<vector> 
9200
(
(-0.011883973 0 0)
(-0.011918863 0 0)
(-0.034450388 0 0)
(-0.011982051 0 0)
(-0.034557556 0 0)
(-0.055447022 0 0)
(-0.012053711 0 0)
(-0.034731417 0 0)
(-0.055619157 0 0)
(-0.074989387 0 0)
(-0.012120401 0 0)
(-0.034912044 0 0)
(-0.055876684 0 0)
(-0.075209678 0 0)
(-0.093164465 0 0)
(-0.01218368 0 0)
(-0.03509183 0 0)
(-0.056161589 0 0)
(-0.075544337 0 0)
(-0.09342194 0 0)
(-0.11007794 0 0)
(-0.012242576 0 0)
(-0.035263939 0 0)
(-0.056455405 0 0)
(-0.075952668 0 0)
(-0.093863966 0 0)
(-0.11039347 0 0)
(-0.12582 0 0)
(-0.01229459 0 0)
(-0.035420427 0 0)
(-0.056726226 0 0)
(-0.076348208 0 0)
(-0.094371523 0 0)
(-0.11091367 0 0)
(-0.12618386 0 0)
(-0.1404905 0 0)
(-0.01234116 0 0)
(-0.035561625 0 0)
(-0.056973029 0 0)
(-0.076723422 0 0)
(-0.09489499 0 0)
(-0.11154713 0 0)
(-0.12680209 0 0)
(-0.14090963 0 0)
(-0.15415014 0 0)
(-0.012379902 0 0)
(-0.035682077 0 0)
(-0.057190855 0 0)
(-0.077062725 0 0)
(-0.095393019 0 0)
(-0.11221803 0 0)
(-0.12756568 0 0)
(-0.14161123 0 0)
(-0.15461446 0 0)
(-0.16687799 0 0)
(-0.012413069 0 0)
(-0.035785789 0 0)
(-0.057376803 0 0)
(-0.07735839 0 0)
(-0.095835856 0 0)
(-0.11283147 0 0)
(-0.12834339 0 0)
(-0.1424762 0 0)
(-0.15541382 0 0)
(-0.1674033 0 0)
(-0.17872335 0 0)
(-0.012439045 0 0)
(-0.035868345 0 0)
(-0.057531438 0 0)
(-0.077611054 0 0)
(-0.096221135 0 0)
(-0.11339388 0 0)
(-0.12912203 0 0)
(-0.14342881 0 0)
(-0.15641542 0 0)
(-0.16829664 0 0)
(-0.17930834 0 0)
(-0.18976334 0 0)
(-0.012460288 0 0)
(-0.035936571 0 0)
(-0.057655182 0 0)
(-0.07781586 0 0)
(-0.096549181 0 0)
(-0.11388583 0 0)
(-0.12981665 0 0)
(-0.14433402 0 0)
(-0.15748145 0 0)
(-0.16941574 0 0)
(-0.18031331 0 0)
(-0.19041743 0 0)
(-0.20002806 0 0)
(-0.012475747 0 0)
(-0.035985955 0 0)
(-0.057749788 0 0)
(-0.077979012 0 0)
(-0.096816868 0 0)
(-0.11430132 0 0)
(-0.13042747 0 0)
(-0.14517907 0 0)
(-0.1585652 0 0)
(-0.17066129 0 0)
(-0.18158341 0 0)
(-0.19153242 0 0)
(-0.20074754 0 0)
(-0.20958059 0 0)
(-0.012487328 0 0)
(-0.036024203 0 0)
(-0.057818765 0 0)
(-0.0780981 0 0)
(-0.097028872 0 0)
(-0.11464937 0 0)
(-0.13095314 0 0)
(-0.14593414 0 0)
(-0.15958745 0 0)
(-0.17191049 0 0)
(-0.18297382 0 0)
(-0.19294722 0 0)
(-0.20199382 0 0)
(-0.21037828 0 0)
(-0.2184434 0 0)
(-0.012494799 0 0)
(-0.036047438 0 0)
(-0.057864397 0 0)
(-0.078183689 0 0)
(-0.097186837 0 0)
(-0.11492228 0 0)
(-0.13139014 0 0)
(-0.14658536 0 0)
(-0.16049913 0 0)
(-0.17310536 0 0)
(-0.18441938 0 0)
(-0.19453861 0 0)
(-0.20358145 0 0)
(-0.21175379 0 0)
(-0.21932016 0 0)
(-0.22667917 0 0)
(-0.01249953 0 0)
(-0.036063306 0 0)
(-0.057891689 0 0)
(-0.078232988 0 0)
(-0.097296607 0 0)
(-0.11513469 0 0)
(-0.13174594 0 0)
(-0.14713257 0 0)
(-0.16129427 0 0)
(-0.17419979 0 0)
(-0.18581766 0 0)
(-0.19616882 0 0)
(-0.2053468 0 0)
(-0.2135131 0 0)
(-0.22084201 0 0)
(-0.22764205 0 0)
(-0.23430061 0 0)
(-0.012501683 0 0)
(-0.036067999 0 0)
(-0.057901351 0 0)
(-0.078258584 0 0)
(-0.097364634 0 0)
(-0.11528218 0 0)
(-0.13201992 0 0)
(-0.14758211 0 0)
(-0.16197291 0 0)
(-0.17516496 0 0)
(-0.18711442 0 0)
(-0.1977809 0 0)
(-0.20720559 0 0)
(-0.21550491 0 0)
(-0.22279541 0 0)
(-0.22930814 0 0)
(-0.23534745 0 0)
(-0.24136231 0 0)
(-0.01250211 0 0)
(-0.036068138 0 0)
(-0.057898994 0 0)
(-0.078257261 0 0)
(-0.097395256 0 0)
(-0.11538153 0 0)
(-0.13222423 0 0)
(-0.1479361 0 0)
(-0.16253318 0 0)
(-0.17599501 0 0)
(-0.18826724 0 0)
(-0.19929081 0 0)
(-0.20904709 0 0)
(-0.21757983 0 0)
(-0.22499402 0 0)
(-0.23145761 0 0)
(-0.23717499 0 0)
(-0.24250135 0 0)
(-0.24787367 0 0)
(-0.012501412 0 0)
(-0.036060962 0 0)
(-0.05788486 0 0)
(-0.078242712 0 0)
(-0.097397716 0 0)
(-0.11543018 0 0)
(-0.13236095 0 0)
(-0.14820421 0 0)
(-0.16298581 0 0)
(-0.17668991 0 0)
(-0.18926683 0 0)
(-0.20065345 0 0)
(-0.21078993 0 0)
(-0.21965942 0 0)
(-0.22732631 0 0)
(-0.23390688 0 0)
(-0.23953637 0 0)
(-0.24448663 0 0)
(-0.24910502 0 0)
(-0.25388927 0 0)
(-0.012499975 0 0)
(-0.036051863 0 0)
(-0.057863341 0 0)
(-0.078209704 0 0)
(-0.097374049 0 0)
(-0.11544501 0 0)
(-0.13244429 0 0)
(-0.14839385 0 0)
(-0.16333321 0 0)
(-0.17726001 0 0)
(-0.19011935 0 0)
(-0.20185049 0 0)
(-0.21238912 0 0)
(-0.22166275 0 0)
(-0.22967243 0 0)
(-0.23648646 0 0)
(-0.24222035 0 0)
(-0.24706281 0 0)
(-0.25126008 0 0)
(-0.25521649 0 0)
(-0.25941411 0 0)
(-0.012498472 0 0)
(-0.036038765 0 0)
(-0.05783458 0 0)
(-0.078171695 0 0)
(-0.097335167 0 0)
(-0.11542463 0 0)
(-0.13247742 0 0)
(-0.14851539 0 0)
(-0.16359033 0 0)
(-0.17770975 0 0)
(-0.19082443 0 0)
(-0.20287872 0 0)
(-0.21380186 0 0)
(-0.22350591 0 0)
(-0.23193702 0 0)
(-0.2391038 0 0)
(-0.2450874 0 0)
(-0.25001782 0 0)
(-0.25406223 0 0)
(-0.25753711 0 0)
(-0.2608346 0 0)
(-0.2644974 0 0)
(-0.012496944 0 0)
(-0.036026174 0 0)
(-0.05780325 0 0)
(-0.078122652 0 0)
(-0.097280435 0 0)
(-0.11538426 0 0)
(-0.13247426 0 0)
(-0.14857915 0 0)
(-0.163763 0 0)
(-0.17805271 0 0)
(-0.19139778 0 0)
(-0.20374187 0 0)
(-0.21502593 0 0)
(-0.22516034 0 0)
(-0.23405263 0 0)
(-0.24165568 0 0)
(-0.24799997 0 0)
(-0.25315933 0 0)
(-0.25727428 0 0)
(-0.26056715 0 0)
(-0.26333102 0 0)
(-0.26601478 0 0)
(-0.26914333 0 0)
(-0.012496037 0 0)
(-0.036012226 0 0)
(-0.057768549 0 0)
(-0.078074112 0 0)
(-0.09722011 0 0)
(-0.11532233 0 0)
(-0.13243803 0 0)
(-0.14859425 0 0)
(-0.16386682 0 0)
(-0.17829865 0 0)
(-0.19184372 0 0)
(-0.20445443 0 0)
(-0.21607179 0 0)
(-0.22660997 0 0)
(-0.23597118 0 0)
(-0.2440591 0 0)
(-0.25084776 0 0)
(-0.25637232 0 0)
(-0.26072542 0 0)
(-0.26406317 0 0)
(-0.26659394 0 0)
(-0.26868061 0 0)
(-0.27075593 0 0)
(-0.27340036 0 0)
(-0.012495504 0 0)
(-0.036000496 0 0)
(-0.05773458 0 0)
(-0.078020477 0 0)
(-0.097152182 0 0)
(-0.11525177 0 0)
(-0.13238065 0 0)
(-0.14857156 0 0)
(-0.16390961 0 0)
(-0.17846138 0 0)
(-0.19218189 0 0)
(-0.20502371 0 0)
(-0.21694228 0 0)
(-0.22785861 0 0)
(-0.23766606 0 0)
(-0.24625518 0 0)
(-0.25355194 0 0)
(-0.25953764 0 0)
(-0.26426035 0 0)
(-0.26780927 0 0)
(-0.27036162 0 0)
(-0.27217688 0 0)
(-0.27359655 0 0)
(-0.27510821 0 0)
(-0.27727095 0 0)
(-0.012495733 0 0)
(-0.035989146 0 0)
(-0.057700342 0 0)
(-0.077971519 0 0)
(-0.097086349 0 0)
(-0.11517108 0 0)
(-0.13230511 0 0)
(-0.14851896 0 0)
(-0.16390626 0 0)
(-0.17855315 0 0)
(-0.19241918 0 0)
(-0.2054667 0 0)
(-0.21765699 0 0)
(-0.22891407 0 0)
(-0.23913785 0 0)
(-0.24821762 0 0)
(-0.25604624 0 0)
(-0.26255522 0 0)
(-0.2677485 0 0)
(-0.27166885 0 0)
(-0.27443271 0 0)
(-0.27623467 0 0)
(-0.27732728 0 0)
(-0.27811657 0 0)
(-0.27907047 0 0)
(-0.28079898 0 0)
(-0.012496416 0 0)
(-0.035980886 0 0)
(-0.057669593 0 0)
(-0.077922279 0 0)
(-0.097019504 0 0)
(-0.11509069 0 0)
(-0.13222085 0 0)
(-0.14844629 0 0)
(-0.16386397 0 0)
(-0.17858668 0 0)
(-0.1925765 0 0)
(-0.20579606 0 0)
(-0.21822279 0 0)
(-0.22979312 0 0)
(-0.24040179 0 0)
(-0.24994158 0 0)
(-0.25830344 0 0)
(-0.26537178 0 0)
(-0.27110009 0 0)
(-0.27550074 0 0)
(-0.27863353 0 0)
(-0.28061404 0 0)
(-0.28166357 0 0)
(-0.28207993 0 0)
(-0.28225 0 0)
(-0.28269019 0 0)
(-0.28398736 0 0)
(-0.012497711 0 0)
(-0.03597399 0 0)
(-0.057641137 0 0)
(-0.077880216 0 0)
(-0.096959515 0 0)
(-0.11500883 0 0)
(-0.13213024 0 0)
(-0.148359 0 0)
(-0.16379569 0 0)
(-0.17857463 0 0)
(-0.19266141 0 0)
(-0.2060285 0 0)
(-0.21866276 0 0)
(-0.23050751 0 0)
(-0.24146449 0 0)
(-0.25143137 0 0)
(-0.26029095 0 0)
(-0.26791737 0 0)
(-0.27423126 0 0)
(-0.27919206 0 0)
(-0.28281324 0 0)
(-0.28515661 0 0)
(-0.28637506 0 0)
(-0.28670533 0 0)
(-0.28644292 0 0)
(-0.28603223 0 0)
(-0.28596717 0 0)
(-0.28687803 0 0)
(-0.012499468 0 0)
(-0.035970139 0 0)
(-0.057618025 0 0)
(-0.077841622 0 0)
(-0.096903383 0 0)
(-0.11493405 0 0)
(-0.13204038 0 0)
(-0.14826499 0 0)
(-0.16370726 0 0)
(-0.17852705 0 0)
(-0.19269341 0 0)
(-0.20617888 0 0)
(-0.21898633 0 0)
(-0.23107616 0 0)
(-0.24234854 0 0)
(-0.25270072 0 0)
(-0.26202744 0 0)
(-0.2702053 0 0)
(-0.27711633 0 0)
(-0.28267566 0 0)
(-0.28686416 0 0)
(-0.28970053 0 0)
(-0.29127087 0 0)
(-0.29173083 0 0)
(-0.2913463 0 0)
(-0.29045088 0 0)
(-0.28947175 0 0)
(-0.28894401 0 0)
(-0.28947336 0 0)
(-0.012501357 0 0)
(-0.03596867 0 0)
(-0.057599857 0 0)
(-0.077812181 0 0)
(-0.096857631 0 0)
(-0.11486415 0 0)
(-0.13195308 0 0)
(-0.14816839 0 0)
(-0.16360971 0 0)
(-0.17845521 0 0)
(-0.19267907 0 0)
(-0.20626185 0 0)
(-0.21921682 0 0)
(-0.23151539 0 0)
(-0.24306465 0 0)
(-0.25377015 0 0)
(-0.26352714 0 0)
(-0.27221339 0 0)
(-0.27969975 0 0)
(-0.28587748 0 0)
(-0.29069329 0 0)
(-0.29411675 0 0)
(-0.29618008 0 0)
(-0.29697742 0 0)
(-0.29670325 0 0)
(-0.29563618 0 0)
(-0.29411077 0 0)
(-0.29260238 0 0)
(-0.29162147 0 0)
(-0.29181081 0 0)
(-0.01245218 0 0)
(-0.035969256 0 0)
(-0.057588113 0 0)
(-0.077789719 0 0)
(-0.096819517 0 0)
(-0.11480581 0 0)
(-0.13187345 0 0)
(-0.14807473 0 0)
(-0.16350641 0 0)
(-0.17836676 0 0)
(-0.19263536 0 0)
(-0.20629235 0 0)
(-0.2193639 0 0)
(-0.23184316 0 0)
(-0.24363753 0 0)
(-0.25465379 0 0)
(-0.26479917 0 0)
(-0.27395895 0 0)
(-0.28200022 0 0)
(-0.28879665 0 0)
(-0.29426018 0 0)
(-0.29832443 0 0)
(-0.30097784 0 0)
(-0.30226372 0 0)
(-0.30230698 0 0)
(-0.30130543 0 0)
(-0.29956665 0 0)
(-0.29745581 0 0)
(-0.29543235 0 0)
(-0.29403881 0 0)
(-0.29389355 0 0)
(-0.012393839 0 0)
(-0.035859655 0 0)
(-0.05758319 0 0)
(-0.077777048 0 0)
(-0.096793209 0 0)
(-0.11475689 0 0)
(-0.13180264 0 0)
(-0.14798701 0 0)
(-0.16340688 0 0)
(-0.17827133 0 0)
(-0.19256715 0 0)
(-0.20628159 0 0)
(-0.21944929 0 0)
(-0.23207757 0 0)
(-0.24407977 0 0)
(-0.25537408 0 0)
(-0.26587219 0 0)
(-0.27546206 0 0)
(-0.2840185 0 0)
(-0.2914128 0 0)
(-0.29751628 0 0)
(-0.30224264 0 0)
(-0.30555919 0 0)
(-0.3074458 0 0)
(-0.30796822 0 0)
(-0.3072608 0 0)
(-0.30555937 0 0)
(-0.30318082 0 0)
(-0.3004926 0 0)
(-0.29799265 0 0)
(-0.29619789 0 0)
(-0.29575621 0 0)
(-0.01234201 0 0)
(-0.035682415 0 0)
(-0.0574162 0 0)
(-0.077773861 0 0)
(-0.096778565 0 0)
(-0.11472212 0 0)
(-0.13174443 0 0)
(-0.14790934 0 0)
(-0.16331231 0 0)
(-0.1781738 0 0)
(-0.19248798 0 0)
(-0.20624315 0 0)
(-0.21948095 0 0)
(-0.23223379 0 0)
(-0.24441587 0 0)
(-0.25594811 0 0)
(-0.2667561 0 0)
(-0.27673758 0 0)
(-0.28577055 0 0)
(-0.29372407 0 0)
(-0.30045892 0 0)
(-0.30586259 0 0)
(-0.30986959 0 0)
(-0.31242704 0 0)
(-0.3135453 0 0)
(-0.31330356 0 0)
(-0.31186774 0 0)
(-0.30947717 0 0)
(-0.30647521 0 0)
(-0.30325247 0 0)
(-0.30029157 0 0)
(-0.29813306 0 0)
(-0.29740185 0 0)
(-0.012296953 0 0)
(-0.03552497 0 0)
(-0.057130999 0 0)
(-0.077561201 0 0)
(-0.09677571 0 0)
(-0.11470193 0 0)
(-0.13170054 0 0)
(-0.1478436 0 0)
(-0.16322986 0 0)
(-0.17808135 0 0)
(-0.19240131 0 0)
(-0.20618439 0 0)
(-0.21947676 0 0)
(-0.23232967 0 0)
(-0.24465842 0 0)
(-0.25639726 0 0)
(-0.26748035 0 0)
(-0.27781105 0 0)
(-0.28727196 0 0)
(-0.29574215 0 0)
(-0.30308319 0 0)
(-0.30915524 0 0)
(-0.31385316 0 0)
(-0.31711638 0 0)
(-0.31892154 0 0)
(-0.31927523 0 0)
(-0.3182864 0 0)
(-0.31613003 0 0)
(-0.31308066 0 0)
(-0.30948722 0 0)
(-0.30574258 0 0)
(-0.30235773 0 0)
(-0.29984743 0 0)
(-0.2988606 0 0)
(-0.012258931 0 0)
(-0.035387783 0 0)
(-0.056877109 0 0)
(-0.077183387 0 0)
(-0.096519904 0 0)
(-0.1146961 0 0)
(-0.13167163 0 0)
(-0.14779207 0 0)
(-0.16315996 0 0)
(-0.17799746 0 0)
(-0.19231733 0 0)
(-0.20611635 0 0)
(-0.21944348 0 0)
(-0.23237648 0 0)
(-0.24482937 0 0)
(-0.25673983 0 0)
(-0.26805788 0 0)
(-0.27869851 0 0)
(-0.28854956 0 0)
(-0.29749276 0 0)
(-0.30539326 0 0)
(-0.31211181 0 0)
(-0.3175087 0 0)
(-0.3214934 0 0)
(-0.32402529 0 0)
(-0.32506554 0 0)
(-0.32465829 0 0)
(-0.32292618 0 0)
(-0.3200748 0 0)
(-0.31638152 0 0)
(-0.31221749 0 0)
(-0.30799193 0 0)
(-0.30419956 0 0)
(-0.30137161 0 0)
(-0.30013644 0 0)
(-0.012228202 0 0)
(-0.035272032 0 0)
(-0.056656801 0 0)
(-0.076847285 0 0)
(-0.096054533 0 0)
(-0.11439489 0 0)
(-0.13166079 0 0)
(-0.14775893 0 0)
(-0.16310764 0 0)
(-0.17792751 0 0)
(-0.1922387 0 0)
(-0.20604417 0 0)
(-0.21939435 0 0)
(-0.23238978 0 0)
(-0.24493969 0 0)
(-0.25699457 0 0)
(-0.26851566 0 0)
(-0.27942723 0 0)
(-0.28962061 0 0)
(-0.2989899 0 0)
(-0.3074089 0 0)
(-0.31473173 0 0)
(-0.32081145 0 0)
(-0.32552544 0 0)
(-0.32879164 0 0)
(-0.33056978 0 0)
(-0.3308559 0 0)
(-0.32969404 0 0)
(-0.32723948 0 0)
(-0.3237058 0 0)
(-0.31940125 0 0)
(-0.31469883 0 0)
(-0.31000797 0 0)
(-0.30584236 0 0)
(-0.30270955 0 0)
(-0.30125619 0 0)
(-0.012204868 0 0)
(-0.035177909 0 0)
(-0.056470273 0 0)
(-0.076555769 0 0)
(-0.095642385 0 0)
(-0.11384241 0 0)
(-0.13131041 0 0)
(-0.14774205 0 0)
(-0.16307545 0 0)
(-0.1778749 0 0)
(-0.19217227 0 0)
(-0.20597632 0 0)
(-0.21933605 0 0)
(-0.23237812 0 0)
(-0.24500814 0 0)
(-0.25717876 0 0)
(-0.26886818 0 0)
(-0.28001371 0 0)
(-0.2905119 0 0)
(-0.30026491 0 0)
(-0.30914952 0 0)
(-0.31702968 0 0)
(-0.32375992 0 0)
(-0.32919271 0 0)
(-0.33321117 0 0)
(-0.3357525 0 0)
(-0.33678948 0 0)
(-0.33631061 0 0)
(-0.33440367 0 0)
(-0.33123593 0 0)
(-0.32704845 0 0)
(-0.32215146 0 0)
(-0.31693464 0 0)
(-0.31181747 0 0)
(-0.30729482 0 0)
(-0.30388723 0 0)
(-0.30222395 0 0)
(-0.012189195 0 0)
(-0.035106351 0 0)
(-0.056319237 0 0)
(-0.076309143 0 0)
(-0.095284441 0 0)
(-0.11335363 0 0)
(-0.13067248 0 0)
(-0.14735217 0 0)
(-0.16306276 0 0)
(-0.17784146 0 0)
(-0.19212226 0 0)
(-0.20591669 0 0)
(-0.21927686 0 0)
(-0.23235457 0 0)
(-0.24504349 0 0)
(-0.25730773 0 0)
(-0.26913791 0 0)
(-0.2804843 0 0)
(-0.29124377 0 0)
(-0.30133293 0 0)
(-0.3106428 0 0)
(-0.31903355 0 0)
(-0.32636363 0 0)
(-0.33248913 0 0)
(-0.3372602 0 0)
(-0.34057562 0 0)
(-0.34238165 0 0)
(-0.34265791 0 0)
(-0.34143021 0 0)
(-0.33878832 0 0)
(-0.33493205 0 0)
(-0.33010835 0 0)
(-0.32465321 0 0)
(-0.3189551 0 0)
(-0.31342797 0 0)
(-0.30857937 0 0)
(-0.30490971 0 0)
(-0.30306244 0 0)
(-0.012181143 0 0)
(-0.035057492 0 0)
(-0.056203899 0 0)
(-0.076109559 0 0)
(-0.094983281 0 0)
(-0.1129297 0 0)
(-0.13010504 0 0)
(-0.14663463 0 0)
(-0.16264084 0 0)
(-0.17783082 0 0)
(-0.19209014 0 0)
(-0.20587053 0 0)
(-0.2192245 0 0)
(-0.23232532 0 0)
(-0.2450605 0 0)
(-0.25739642 0 0)
(-0.26933932 0 0)
(-0.28085435 0 0)
(-0.2918406 0 0)
(-0.30222679 0 0)
(-0.31191011 0 0)
(-0.3207611 0 0)
(-0.32864642 0 0)
(-0.33541727 0 0)
(-0.34091644 0 0)
(-0.34501183 0 0)
(-0.34761375 0 0)
(-0.3486814 0 0)
(-0.34821115 0 0)
(-0.34622908 0 0)
(-0.34286815 0 0)
(-0.33833823 0 0)
(-0.33290926 0 0)
(-0.32691795 0 0)
(-0.32076394 0 0)
(-0.31486351 0 0)
(-0.30970453 0 0)
(-0.30579926 0 0)
(-0.30377647 0 0)
(-0.012180936 0 0)
(-0.035031895 0 0)
(-0.05612546 0 0)
(-0.075957242 0 0)
(-0.094739493 0 0)
(-0.11257311 0 0)
(-0.12961386 0 0)
(-0.1459988 0 0)
(-0.16185616 0 0)
(-0.17736811 0 0)
(-0.19208212 0 0)
(-0.20584484 0 0)
(-0.21918251 0 0)
(-0.23229978 0 0)
(-0.24506627 0 0)
(-0.25745671 0 0)
(-0.26948962 0 0)
(-0.28114674 0 0)
(-0.29232306 0 0)
(-0.30296194 0 0)
(-0.31297906 0 0)
(-0.32224515 0 0)
(-0.33062896 0 0)
(-0.33799489 0 0)
(-0.34418625 0 0)
(-0.34904593 0 0)
(-0.35245205 0 0)
(-0.35433475 0 0)
(-0.35465581 0 0)
(-0.35342666 0 0)
(-0.35071174 0 0)
(-0.34664656 0 0)
(-0.34147104 0 0)
(-0.33545854 0 0)
(-0.3289667 0 0)
(-0.32238896 0 0)
(-0.31613097 0 0)
(-0.3106892 0 0)
(-0.30656146 0 0)
(-0.30438558 0 0)
(-0.035029428 0 0)
(-0.012186746 0 0)
(-0.056083967 0 0)
(-0.075853845 0 0)
(-0.094554918 0 0)
(-0.11228504 0 0)
(-0.12919885 0 0)
(-0.14544625 0 0)
(-0.16116112 0 0)
(-0.17650908 0 0)
(-0.19157895 0 0)
(-0.20583706 0 0)
(-0.21916244 0 0)
(-0.23228503 0 0)
(-0.24507175 0 0)
(-0.25750066 0 0)
(-0.26960256 0 0)
(-0.28137508 0 0)
(-0.29271152 0 0)
(-0.30356905 0 0)
(-0.3138737 0 0)
(-0.32350444 0 0)
(-0.33234318 0 0)
(-0.3402541 0 0)
(-0.34708341 0 0)
(-0.35267466 0 0)
(-0.35687567 0 0)
(-0.35958201 0 0)
(-0.36073289 0 0)
(-0.3603078 0 0)
(-0.35833704 0 0)
(-0.35489049 0 0)
(-0.35014286 0 0)
(-0.34434177 0 0)
(-0.33777862 0 0)
(-0.3308097 0 0)
(-0.32383335 0 0)
(-0.3172516 0 0)
(-0.31154205 0 0)
(-0.30721457 0 0)
(-0.30489463 0 0)
(-0.056080148 0 0)
(-0.035045562 0 0)
(-0.012198689 0 0)
(-0.075799468 0 0)
(-0.094430107 0 0)
(-0.11206668 0 0)
(-0.1288631 0 0)
(-0.14498058 0 0)
(-0.16055738 0 0)
(-0.17574592 0 0)
(-0.19064282 0 0)
(-0.20529892 0 0)
(-0.21916071 0 0)
(-0.23228521 0 0)
(-0.24508455 0 0)
(-0.25753756 0 0)
(-0.26969052 0 0)
(-0.28155789 0 0)
(-0.29302508 0 0)
(-0.30406293 0 0)
(-0.31461851 0 0)
(-0.32457265 0 0)
(-0.33381114 0 0)
(-0.34221382 0 0)
(-0.34963366 0 0)
(-0.35590697 0 0)
(-0.36087412 0 0)
(-0.36440304 0 0)
(-0.36639987 0 0)
(-0.36681687 0 0)
(-0.36564116 0 0)
(-0.36292532 0 0)
(-0.35877379 0 0)
(-0.35336299 0 0)
(-0.34696705 0 0)
(-0.33987785 0 0)
(-0.33246759 0 0)
(-0.3251233 0 0)
(-0.31823208 0 0)
(-0.31227905 0 0)
(-0.30776494 0 0)
(-0.30531949 0 0)
(-0.075795039 0 0)
(-0.056106256 0 0)
(-0.035080075 0 0)
(-0.012218168 0 0)
(-0.094366218 0 0)
(-0.11192013 0 0)
(-0.12860786 0 0)
(-0.14460299 0 0)
(-0.16004884 0 0)
(-0.17508537 0 0)
(-0.18980958 0 0)
(-0.20428265 0 0)
(-0.21858956 0 0)
(-0.23230703 0 0)
(-0.24510892 0 0)
(-0.25757596 0 0)
(-0.269766 0 0)
(-0.28170681 0 0)
(-0.29328005 0 0)
(-0.30446967 0 0)
(-0.31523724 0 0)
(-0.32546831 0 0)
(-0.33506382 0 0)
(-0.34390982 0 0)
(-0.35186205 0 0)
(-0.35876455 0 0)
(-0.36445732 0 0)
(-0.36878622 0 0)
(-0.37162767 0 0)
(-0.37290671 0 0)
(-0.3725808 0 0)
(-0.37066163 0 0)
(-0.36722198 0 0)
(-0.36237347 0 0)
(-0.35632567 0 0)
(-0.34935876 0 0)
(-0.34177816 0 0)
(-0.33394925 0 0)
(-0.32626062 0 0)
(-0.3190903 0 0)
(-0.31290875 0 0)
(-0.30822766 0 0)
(-0.30566563 0 0)
(-0.09436367 0 0)
(-0.075829925 0 0)
(-0.056162346 0 0)
(-0.035137777 0 0)
(-0.012245283 0 0)
(-0.11184481 0 0)
(-0.12843406 0 0)
(-0.14431545 0 0)
(-0.15963671 0 0)
(-0.17452757 0 0)
(-0.18908989 0 0)
(-0.2033834 0 0)
(-0.21749983 0 0)
(-0.23170257 0 0)
(-0.24515359 0 0)
(-0.25762664 0 0)
(-0.26983681 0 0)
(-0.28183512 0 0)
(-0.29349244 0 0)
(-0.30480325 0 0)
(-0.31575081 0 0)
(-0.32622325 0 0)
(-0.33612569 0 0)
(-0.34536202 0 0)
(-0.3537998 0 0)
(-0.3612794 0 0)
(-0.3676426 0 0)
(-0.37273653 0 0)
(-0.3764094 0 0)
(-0.37855248 0 0)
(-0.37910156 0 0)
(-0.37803434 0 0)
(-0.37537354 0 0)
(-0.37121539 0 0)
(-0.36570056 0 0)
(-0.35903893 0 0)
(-0.35153365 0 0)
(-0.34348716 0 0)
(-0.33527454 0 0)
(-0.32726919 0 0)
(-0.319833 0 0)
(-0.31344415 0 0)
(-0.30860932 0 0)
(-0.30594611 0 0)
(-0.1118432 0 0)
(-0.0944097 0 0)
(-0.075904472 0 0)
(-0.056256218 0 0)
(-0.035218473 0 0)
(-0.012279718 0 0)
(-0.12834419 0 0)
(-0.14411996 0 0)
(-0.1593231 0 0)
(-0.17407647 0 0)
(-0.18848137 0 0)
(-0.20260209 0 0)
(-0.21653728 0 0)
(-0.23054123 0 0)
(-0.2445193 0 0)
(-0.25768936 0 0)
(-0.26991698 0 0)
(-0.28195442 0 0)
(-0.29367534 0 0)
(-0.3050843 0 0)
(-0.31618099 0 0)
(-0.32685453 0 0)
(-0.33702473 0 0)
(-0.3466064 0 0)
(-0.35547337 0 0)
(-0.36347481 0 0)
(-0.3704583 0 0)
(-0.37626577 0 0)
(-0.38073794 0 0)
(-0.38373792 0 0)
(-0.38516957 0 0)
(-0.38498561 0 0)
(-0.38317389 0 0)
(-0.37978556 0 0)
(-0.37493372 0 0)
(-0.36876664 0 0)
(-0.36152064 0 0)
(-0.35350341 0 0)
(-0.34502576 0 0)
(-0.33645036 0 0)
(-0.3281502 0 0)
(-0.3204748 0 0)
(-0.31389392 0 0)
(-0.30892163 0 0)
(-0.30616643 0 0)
(-0.1283367 0 0)
(-0.11189797 0 0)
(-0.094504837 0 0)
(-0.076028658 0 0)
(-0.056387232 0 0)
(-0.035321682 0 0)
(-0.01232138 0 0)
(-0.14401669 0 0)
(-0.15911019 0 0)
(-0.17373272 0 0)
(-0.18799041 0 0)
(-0.20194501 0 0)
(-0.21570032 0 0)
(-0.22950967 0 0)
(-0.24328327 0 0)
(-0.25703105 0 0)
(-0.27000516 0 0)
(-0.28207097 0 0)
(-0.29384028 0 0)
(-0.30532577 0 0)
(-0.31654451 0 0)
(-0.32738939 0 0)
(-0.33778499 0 0)
(-0.34766329 0 0)
(-0.35691352 0 0)
(-0.36538592 0 0)
(-0.37292972 0 0)
(-0.37939603 0 0)
(-0.38462519 0 0)
(-0.38845902 0 0)
(-0.39076966 0 0)
(-0.39148212 0 0)
(-0.39055803 0 0)
(-0.38801076 0 0)
(-0.383903 0 0)
(-0.37837036 0 0)
(-0.37158482 0 0)
(-0.36378045 0 0)
(-0.35528466 0 0)
(-0.34640065 0 0)
(-0.33749522 0 0)
(-0.32892405 0 0)
(-0.32102314 0 0)
(-0.3142687 0 0)
(-0.30917188 0 0)
(-0.30633668 0 0)
(-0.1440077 0 0)
(-0.1283975 0 0)
(-0.11201182 0 0)
(-0.094660697 0 0)
(-0.076202152 0 0)
(-0.056555858 0 0)
(-0.035447402 0 0)
(-0.012370037 0 0)
(-0.15899799 0 0)
(-0.17349879 0 0)
(-0.18761597 0 0)
(-0.20141214 0 0)
(-0.21499768 0 0)
(-0.2286178 0 0)
(-0.2421843 0 0)
(-0.25571885 0 0)
(-0.26932355 0 0)
(-0.28219544 0 0)
(-0.29400021 0 0)
(-0.30554194 0 0)
(-0.31685902 0 0)
(-0.32784303 0 0)
(-0.33843003 0 0)
(-0.3485656 0 0)
(-0.35814857 0 0)
(-0.36703718 0 0)
(-0.37509143 0 0)
(-0.38216249 0 0)
(-0.38809331 0 0)
(-0.39272398 0 0)
(-0.39589687 0 0)
(-0.39750291 0 0)
(-0.39748371 0 0)
(-0.39582224 0 0)
(-0.39254302 0 0)
(-0.38773678 0 0)
(-0.38155166 0 0)
(-0.37416674 0 0)
(-0.36583537 0 0)
(-0.35688816 0 0)
(-0.34763142 0 0)
(-0.33841487 0 0)
(-0.32959306 0 0)
(-0.32148987 0 0)
(-0.31457702 0 0)
(-0.30936921 0 0)
(-0.30646273 0 0)
(-0.15898894 0 0)
(-0.14407204 0 0)
(-0.12852282 0 0)
(-0.11219623 0 0)
(-0.094877774 0 0)
(-0.076423843 0 0)
(-0.056760282 0 0)
(-0.035594538 0 0)
(-0.012425396 0 0)
(-0.17337551 0 0)
(-0.18736178 0 0)
(-0.20100744 0 0)
(-0.21442714 0 0)
(-0.22786476 0 0)
(-0.24123553 0 0)
(-0.25455806 0 0)
(-0.26794002 0 0)
(-0.28148608 0 0)
(-0.29415727 0 0)
(-0.30574772 0 0)
(-0.31714012 0 0)
(-0.32823699 0 0)
(-0.33898149 0 0)
(-0.34933276 0 0)
(-0.35920615 0 0)
(-0.36846385 0 0)
(-0.37697021 0 0)
(-0.38458843 0 0)
(-0.39116689 0 0)
(-0.396538 0 0)
(-0.40053606 0 0)
(-0.40303194 0 0)
(-0.40392864 0 0)
(-0.40317852 0 0)
(-0.40077896 0 0)
(-0.39678412 0 0)
(-0.39129351 0 0)
(-0.38447519 0 0)
(-0.37652671 0 0)
(-0.36769593 0 0)
(-0.35833018 0 0)
(-0.34872386 0 0)
(-0.33922571 0 0)
(-0.33017465 0 0)
(-0.32188306 0 0)
(-0.31482734 0 0)
(-0.309521 0 0)
(-0.30655212 0 0)
(-0.1733637 0 0)
(-0.15905963 0 0)
(-0.14421235 0 0)
(-0.12873414 0 0)
(-0.1124546 0 0)
(-0.095153735 0 0)
(-0.076693412 0 0)
(-0.057001128 0 0)
(-0.035763118 0 0)
(-0.012487587 0 0)
(-0.18722862 0 0)
(-0.20073178 0 0)
(-0.21399424 0 0)
(-0.22725596 0 0)
(-0.24043346 0 0)
(-0.25355136 0 0)
(-0.26671784 0 0)
(-0.2800342 0 0)
(-0.29343076 0 0)
(-0.30594529 0 0)
(-0.31739921 0 0)
(-0.32858664 0 0)
(-0.33945866 0 0)
(-0.34999227 0 0)
(-0.36011305 0 0)
(-0.36969001 0 0)
(-0.3785999 0 0)
(-0.38671199 0 0)
(-0.39387781 0 0)
(-0.39993608 0 0)
(-0.4047195 0 0)
(-0.40807502 0 0)
(-0.40987669 0 0)
(-0.41004896 0 0)
(-0.40856105 0 0)
(-0.40543431 0 0)
(-0.40073451 0 0)
(-0.39458645 0 0)
(-0.3871655 0 0)
(-0.37867616 0 0)
(-0.36937804 0 0)
(-0.35962054 0 0)
(-0.34969586 0 0)
(-0.33993339 0 0)
(-0.33067218 0 0)
(-0.32221189 0 0)
(-0.31502794 0 0)
(-0.30963327 0 0)
(-0.30661081 0 0)
(-0.18721657 0 0)
(-0.17344094 0 0)
(-0.15921236 0 0)
(-0.14444435 0 0)
(-0.12902551 0 0)
(-0.11278145 0 0)
(-0.095489307 0 0)
(-0.077009204 0 0)
(-0.057276362 0 0)
(-0.035952487 0 0)
(-0.012555883 0 0)
(-0.20058677 0 0)
(-0.21369907 0 0)
(-0.22679034 0 0)
(-0.23978576 0 0)
(-0.25270419 0 0)
(-0.26565645 0 0)
(-0.27874406 0 0)
(-0.29190494 0 0)
(-0.30520166 0 0)
(-0.31764734 0 0)
(-0.32890464 0 0)
(-0.33987949 0 0)
(-0.35056262 0 0)
(-0.36089359 0 0)
(-0.37074815 0 0)
(-0.38000865 0 0)
(-0.38855819 0 0)
(-0.39625837 0 0)
(-0.40294794 0 0)
(-0.40845773 0 0)
(-0.4126245 0 0)
(-0.41530824 0 0)
(-0.4164095 0 0)
(-0.41585669 0 0)
(-0.41363813 0 0)
(-0.40979105 0 0)
(-0.4044094 0 0)
(-0.39762303 0 0)
(-0.38962374 0 0)
(-0.38063022 0 0)
(-0.3708927 0 0)
(-0.36077477 0 0)
(-0.3505529 0 0)
(-0.3405518 0 0)
(-0.33109923 0 0)
(-0.32248488 0 0)
(-0.31518533 0 0)
(-0.30971424 0 0)
(-0.30664406 0 0)
(-0.20057395 0 0)
(-0.18730213 0 0)
(-0.17360581 0 0)
(-0.15946525 0 0)
(-0.14477128 0 0)
(-0.12940161 0 0)
(-0.11318017 0 0)
(-0.095880982 0 0)
(-0.07737152 0 0)
(-0.057586907 0 0)
(-0.036161704 0 0)
(-0.012614595 0 0)
(-0.21354329 0 0)
(-0.22647228 0 0)
(-0.23929037 0 0)
(-0.25201677 0 0)
(-0.26476444 0 0)
(-0.27762981 0 0)
(-0.29055474 0 0)
(-0.30360261 0 0)
(-0.31688124 0 0)
(-0.32920503 0 0)
(-0.34026258 0 0)
(-0.35106484 0 0)
(-0.36157129 0 0)
(-0.37166058 0 0)
(-0.38122719 0 0)
(-0.39016433 0 0)
(-0.39834034 0 0)
(-0.40560177 0 0)
(-0.41178333 0 0)
(-0.41671632 0 0)
(-0.42024734 0 0)
(-0.42225609 0 0)
(-0.42264209 0 0)
(-0.42135624 0 0)
(-0.41840725 0 0)
(-0.41385803 0 0)
(-0.40781133 0 0)
(-0.40041812 0 0)
(-0.3918726 0 0)
(-0.38240002 0 0)
(-0.37225469 0 0)
(-0.36180177 0 0)
(-0.35130882 0 0)
(-0.34108701 0 0)
(-0.331461 0 0)
(-0.32270866 0 0)
(-0.31530754 0 0)
(-0.30976782 0 0)
(-0.30665281 0 0)
(-0.21352968 0 0)
(-0.20066443 0 0)
(-0.18748214 0 0)
(-0.1738833 0 0)
(-0.15982103 0 0)
(-0.14518743 0 0)
(-0.12985466 0 0)
(-0.11364425 0 0)
(-0.096329037 0 0)
(-0.077776137 0 0)
(-0.057929618 0 0)
(-0.036301971 0 0)
(-0.012620865 0 0)
(-0.22630164 0 0)
(-0.23895188 0 0)
(-0.25149267 0 0)
(-0.26403922 0 0)
(-0.27668742 0 0)
(-0.28938379 0 0)
(-0.30219009 0 0)
(-0.31520685 0 0)
(-0.3284206 0 0)
(-0.34061426 0 0)
(-0.35151946 0 0)
(-0.36216808 0 0)
(-0.37245469 0 0)
(-0.38228249 0 0)
(-0.39155582 0 0)
(-0.40015634 0 0)
(-0.40793519 0 0)
(-0.4147289 0 0)
(-0.42037233 0 0)
(-0.42470593 0 0)
(-0.42758216 0 0)
(-0.42888956 0 0)
(-0.42855712 0 0)
(-0.42654255 0 0)
(-0.42287797 0 0)
(-0.41764022 0 0)
(-0.41095705 0 0)
(-0.40298021 0 0)
(-0.3939162 0 0)
(-0.38400083 0 0)
(-0.37347514 0 0)
(-0.36271585 0 0)
(-0.35197158 0 0)
(-0.34155007 0 0)
(-0.33176755 0 0)
(-0.3228921 0 0)
(-0.31539956 0 0)
(-0.30976444 0 0)
(-0.30663072 0 0)
(-0.22628014 0 0)
(-0.21362504 0 0)
(-0.20086059 0 0)
(-0.18778538 0 0)
(-0.17426987 0 0)
(-0.16027469 0 0)
(-0.14569666 0 0)
(-0.13038993 0 0)
(-0.11417711 0 0)
(-0.096831655 0 0)
(-0.078225093 0 0)
(-0.058151317 0 0)
(-0.036329761 0 0)
(-0.012627984 0 0)
(-0.23876996 0 0)
(-0.25113221 0 0)
(-0.26348633 0 0)
(-0.27592515 0 0)
(-0.28839773 0 0)
(-0.30096385 0 0)
(-0.31372343 0 0)
(-0.32666992 0 0)
(-0.33981991 0 0)
(-0.35193195 0 0)
(-0.36270149 0 0)
(-0.3731528 0 0)
(-0.38320103 0 0)
(-0.39276626 0 0)
(-0.40173791 0 0)
(-0.4099764 0 0)
(-0.41732589 0 0)
(-0.42362342 0 0)
(-0.42870614 0 0)
(-0.4324152 0 0)
(-0.43461855 0 0)
(-0.43522476 0 0)
(-0.43416287 0 0)
(-0.43142149 0 0)
(-0.42705023 0 0)
(-0.42114889 0 0)
(-0.41385139 0 0)
(-0.4053256 0 0)
(-0.39577541 0 0)
(-0.38544339 0 0)
(-0.37456752 0 0)
(-0.3635255 0 0)
(-0.35255133 0 0)
(-0.34194859 0 0)
(-0.33202582 0 0)
(-0.32303998 0 0)
(-0.31537986 0 0)
(-0.30970825 0 0)
(-0.30657952 0 0)
(-0.23874555 0 0)
(-0.22637635 0 0)
(-0.21383391 0 0)
(-0.20118568 0 0)
(-0.18820589 0 0)
(-0.17476711 0 0)
(-0.16082746 0 0)
(-0.14629091 0 0)
(-0.13099929 0 0)
(-0.11477391 0 0)
(-0.097385519 0 0)
(-0.078501832 0 0)
(-0.058207621 0 0)
(-0.036361055 0 0)
(-0.012635766 0 0)
(-0.25093743 0 0)
(-0.26310517 0 0)
(-0.27533898 0 0)
(-0.28759595 0 0)
(-0.2999329 0 0)
(-0.31244116 0 0)
(-0.32511725 0 0)
(-0.33799165 0 0)
(-0.35112848 0 0)
(-0.3631862 0 0)
(-0.37377342 0 0)
(-0.38400669 0 0)
(-0.39382021 0 0)
(-0.40311567 0 0)
(-0.41176251 0 0)
(-0.4196097 0 0)
(-0.42649954 0 0)
(-0.43227361 0 0)
(-0.4367695 0 0)
(-0.43983528 0 0)
(-0.44135032 0 0)
(-0.44123522 0 0)
(-0.43945003 0 0)
(-0.43599239 0 0)
(-0.43093629 0 0)
(-0.42439121 0 0)
(-0.41651207 0 0)
(-0.40746327 0 0)
(-0.39745661 0 0)
(-0.3867425 0 0)
(-0.37554309 0 0)
(-0.36424353 0 0)
(-0.35305859 0 0)
(-0.34228979 0 0)
(-0.33224245 0 0)
(-0.32300435 0 0)
(-0.31526498 0 0)
(-0.30962936 0 0)
(-0.30649468 0 0)
(-0.25090859 0 0)
(-0.23884508 0 0)
(-0.22658847 0 0)
(-0.21417882 0 0)
(-0.20164305 0 0)
(-0.18874815 0 0)
(-0.17536961 0 0)
(-0.16147462 0 0)
(-0.14697401 0 0)
(-0.13168601 0 0)
(-0.11543312 0 0)
(-0.097726674 0 0)
(-0.078568276 0 0)
(-0.058270224 0 0)
(-0.03639579 0 0)
(-0.012644803 0 0)
(-0.26289772 0 0)
(-0.27493555 0 0)
(-0.28698272 0 0)
(-0.29909319 0 0)
(-0.31135884 0 0)
(-0.32377772 0 0)
(-0.33637601 0 0)
(-0.34922381 0 0)
(-0.36237034 0 0)
(-0.37433473 0 0)
(-0.38472424 0 0)
(-0.39474507 0 0)
(-0.40431873 0 0)
(-0.41332134 0 0)
(-0.4216116 0 0)
(-0.42903823 0 0)
(-0.43544546 0 0)
(-0.44067108 0 0)
(-0.44455754 0 0)
(-0.44695831 0 0)
(-0.4477703 0 0)
(-0.44693934 0 0)
(-0.44442738 0 0)
(-0.44026429 0 0)
(-0.43453906 0 0)
(-0.42738045 0 0)
(-0.41894576 0 0)
(-0.4094098 0 0)
(-0.3989784 0 0)
(-0.38790874 0 0)
(-0.37641387 0 0)
(-0.36487822 0 0)
(-0.35349871 0 0)
(-0.34258482 0 0)
(-0.33218746 0 0)
(-0.32281187 0 0)
(-0.31513504 0 0)
(-0.30952085 0 0)
(-0.3063791 0 0)
(-0.2628652 0 0)
(-0.25100822 0 0)
(-0.23906568 0 0)
(-0.22695031 0 0)
(-0.21466532 0 0)
(-0.20222526 0 0)
(-0.18940329 0 0)
(-0.17607909 0 0)
(-0.16221608 0 0)
(-0.14773963 0 0)
(-0.13244309 0 0)
(-0.11583706 0 0)
(-0.097806873 0 0)
(-0.078642946 0 0)
(-0.058338667 0 0)
(-0.036433915 0 0)
(-0.012654867 0 0)
(-0.27471254 0 0)
(-0.28655684 0 0)
(-0.29845139 0 0)
(-0.31048062 0 0)
(-0.32264497 0 0)
(-0.33497725 0 0)
(-0.34754373 0 0)
(-0.36039032 0 0)
(-0.37351228 0 0)
(-0.3853646 0 0)
(-0.39556756 0 0)
(-0.4053759 0 0)
(-0.41468662 0 0)
(-0.4233667 0 0)
(-0.43127039 0 0)
(-0.43825033 0 0)
(-0.4441485 0 0)
(-0.44880144 0 0)
(-0.45205285 0 0)
(-0.45377222 0 0)
(-0.4538723 0 0)
(-0.45231357 0 0)
(-0.44909019 0 0)
(-0.44423926 0 0)
(-0.4378732 0 0)
(-0.43012576 0 0)
(-0.4211703 0 0)
(-0.41117485 0 0)
(-0.40034949 0 0)
(-0.38895567 0 0)
(-0.37719014 0 0)
(-0.3654391 0 0)
(-0.35388675 0 0)
(-0.34250431 0 0)
(-0.33189898 0 0)
(-0.32261591 0 0)
(-0.31498463 0 0)
(-0.30938709 0 0)
(-0.30622741 0 0)
(-0.27467288 0 0)
(-0.26296589 0 0)
(-0.25123735 0 0)
(-0.23944506 0 0)
(-0.2274572 0 0)
(-0.21528357 0 0)
(-0.20293541 0 0)
(-0.19017591 0 0)
(-0.17689021 0 0)
(-0.16304995 0 0)
(-0.14858559 0 0)
(-0.13290593 0 0)
(-0.11593734 0 0)
(-0.09790104 0 0)
(-0.078729792 0 0)
(-0.058411308 0 0)