/*--------------------------------*- C++ -*----------------------------------*\
| =========                 |                                                 |
| \\      /  F ield         | OpenFOAM: The Open Source CFD Toolbox           |
|  \\    /   O peration     | Version:  v2012                                 |
|   \\  /    A nd           | Website:  www.openfoam.com                      |
|    \\/     M anipulation  |                                                 |
\*---------------------------------------------------------------------------*/
FoamFile
{
    version     2.0;
    format      ascii;
    class       surfaceScalarField;
    location    "77.5099243080187534";
    object      meshPhi;
}
// * * * * * * * * * * * * * * * * * * * * * * * * * * * * * * * * * * * * * //

dimensions      [0 3 -1 0 0 0 0];
oriented        oriented;


internalField   nonuniform List<scalar> 
18180
(
0
0.057648764
0
0.05213035
-4.9970063e-17
0.11452425
0
0.047038528
0
0.10452661
0
0.17146315
0
0.043315074
0
0.095037703
0
0.15749531
0
0.22626055
-2.3601765e-17
0.040624007
-1.0478191e-13
0.087231814
0
0.14387121
0
0.20900397
-9.3715902e-14
0.27784384
5.4372676e-14
0.038510322
-2.3539523e-17
0.081312299
0
0.1324483
9.7230941e-14
0.19239524
0
0.25772502
0
0.32499042
-5.4401427e-14
0.036686842
0
0.076666566
0
0.12328086
0
0.17781834
9.3684299e-14
0.23859835
0
0.30281191
8.6969691e-14
0.36897702
0
0.034968974
5.2392016e-14
0.072618361
0
0.1157001
9.7275977e-14
0.16556585
4.6871261e-14
0.22147088
0
0.28174178
0
0.34464429
0
0.40929357
0
0.033314307
0
0.068894162
0
0.10915446
2.4506374e-17
0.1552722
-2.3786872e-17
0.20661559
9.0303976e-14
0.26240908
-8.7024383e-14
0.32172339
0
0.38303331
-8.0788872e-14
0.44647556
1.0877267e-13
0.031710724
0
0.065356901
-5.0479576e-14
0.10319585
9.7293325e-14
0.14629706
0
0.19376187
4.5146867e-14
0.24506556
4.3517925e-14
0.30028869
0
0.35840981
0
0.41825882
0
0.48021231
0
0.030164407
5.2399824e-14
0.061969078
0
0.097591326
0
0.1381305
4.6862849e-14
0.18241476
0
0.22967719
0
0.28065043
4.1914841e-14
0.33525784
-8.0805508e-14
0.39216793
0
0.45052282
-7.5018814e-14
0.51159447
0
0.028679192
0
0.058720737
0
0.092248925
0
0.13050066
4.6866652e-14
0.17214125
0
0.21604423
4.3530731e-14
0.26298297
-8.386195e-14
0.31370742
0
0.36752966
0
0.42313812
0
0.48031181
0
0.54038664
0
0.027251809
0
0.055612611
0
0.087131756
-4.8667503e-14
0.12325392
0
0.16259517
2.2358983e-17
0.20369818
0
0.24707124
-4.1928432e-14
0.29397484
-4.0415983e-14
0.34437438
1.622524e-17
0.39719069
0
0.45166163
0
0.5076661
6.9640189e-14
0.56705257
2.7195791e-14
0.025878274
0
0.052642249
0
0.082237855
0
0.11633548
4.687239e-14
0.15357074
-4.5166649e-14
0.19225758
-4.3542387e-14
0.23267755
4.1935322e-14
0.27617407
-4.0405684e-14
0.32301504
3.8948121e-14
0.37264907
-1.4941116e-17
0.42451347
7.2285657e-14
0.47782663
0
0.53283954
-2.1649528e-17
0.59136271
-1.3989169e-17
0.024556601
-1.2711803e-17
0.049813352
-2.5243391e-14
0.077572652
0
0.10973262
0
0.14497903
0
0.1814942
0
0.21941761
4.1941751e-14
0.25993298
0
0.30344992
0
0.34976598
3.7519233e-14
0.39869053
1.3727671e-17
0.44959076
0
0.50190085
0
0.55597944
-6.4692621e-14
0.61401145
0
0.023286186
-1.2816445e-17
0.047123881
0
0.073140604
0
0.10345005
0
0.1367868
0
0.17125326
0
0.20692642
0
0.24485786
4.0420664e-14
0.2854422
0
0.32859499
-3.7528023e-14
0.37440937
0
0.42267128
6.9690393e-14
0.47269985
-6.7156073e-14
0.5240192
0
0.57737375
-1.8492952e-17
0.63483307
0
0.022061429
2.6214481e-14
0.044569419
2.5243366e-14
0.068946509
-1.2913436e-17
0.097487441
2.3451138e-14
0.12899117
0
0.16148398
0
0.19505878
-4.1971676e-14
0.23071865
0
0.26875979
0
0.30903612
3.7537086e-14
0.35191143
-3.6167943e-14
0.39737007
3.4847976e-14
0.44484463
3.3586969e-14
0.49390763
-6.4718086e-14
0.54441155
0
0.59706447
0
0.65415554
2.7210252e-14
0.020879874
2.6201299e-14
0.042142152
0
0.064988617
2.4322652e-14
0.091845626
0
0.12158787
2.2599858e-14
0.15216825
0
0.18373187
0
0.21731708
0
0.25317117
0
0.29095241
0
0.33111763
-3.6192265e-14
0.37386804
0
0.41865068
-3.3597101e-14
0.46525894
3.2357803e-14
0.51345945
0
0.56314059
0
0.61521669
5.7878252e-14
0.67181992
0
0.019740379
-2.6200961e-14
0.039829967
-1.237591e-17
0.061259721
-2.4322423e-14
0.086521457
0
0.11456633
0
0.14329781
2.178013e-14
0.17291924
0
0.20454013
0
0.23845163
-3.8987575e-14
0.27407882
0
0.31172444
0
0.3519942
-3.488189e-14
0.39437434
0
0.43836087
-1.1039018e-17
0.48407086
0
0.53140479
6.0086918e-14
0.58040048
0
0.63193927
0
0.68826846
0
0.018643305
0
0.037622431
0
0.057740345
-1.3129781e-17
0.081503009
0
0.10791663
-1.1472239e-17
0.13486317
0
0.16261172
0
0.1923441
0
0.2244551
0
0.25818699
-3.7578054e-14
0.29359831
0
0.33153815
0
0.37174144
-3.3619495e-14
0.41341097
0
0.45652318
-1.0182648e-17
0.50138456
0
0.54794522
-5.7922662e-14
0.59627941
0
0.64738989
-5.376339e-14
0.70339789
-2.7194978e-14
0.017589629
-2.6213521e-14
0.035515387
-2.5242008e-14
0.054416774
2.4334898e-14
0.076772817
0
0.10162451
2.2589846e-14
0.12685634
2.1771606e-14
0.15280766
9.5528777e-18
0.18071363
0
0.21110846
0
0.2431218
0
0.27656248
0
0.3122548
0
0.35031039
0
0.39004198
-3.2403052e-14
0.43098528
3.1217992e-14
0.47329789
-3.0074645e-14
0.51732346
2.8963828e-14
0.56314404
0
0.61091254
0
0.66161613
-1.2357867e-17
0.71741683
0
0.016580726
0
0.033507693
2.5241539e-14
0.051275529
-4.8655797e-14
0.072310226
-2.3438467e-14
0.095674674
2.2590032e-14
0.11926511
-4.3554356e-14
0.14350192
-9.4932519e-18
0.16964467
-9.3804271e-18
0.19838696
8.7918854e-18
0.22877619
0
0.26040966
0
0.29401715
3.4898741e-14
0.32991598
0
0.36773545
-3.2415438e-14
0.40695118
-1.092705e-17
0.44723415
0
0.48874289
-2.8984597e-14
0.53201205
-2.7921042e-14
0.57712871
5.3779604e-14
0.62433949
0
0.67470034
4.9916318e-14
0.73023374
1.3604814e-14
0.015617297
0
0.031594312
0
0.048305823
2.4320815e-14
0.068093913
0
0.090041856
0
0.11207343
-2.1782486e-14
0.13468532
-2.0993955e-14
0.15913451
2.0216217e-14
0.18628276
0
0.21511721
8.0777984e-18
0.24505294
0
0.27676137
0
0.31058606
-3.3653412e-14
0.34636703
0
0.38391834
0
0.42270336
-1.0138803e-17
0.46225879
8.9871391e-18
0.50300225
-7.9275227e-18
0.54549233
2.6908005e-14
0.58993759
0
0.63666458
0
0.68673476
0
0.74212698
0
0.014699485
-1.3106213e-14
0.02977163
0
0.045495294
0
0.064104276
0
0.084706644
0
0.10526381
0
0.12634545
2.0985061e-14
0.14917986
0
0.17479227
-1.9505462e-14
0.20213096
-8.1273914e-18
0.23043703
-1.8113402e-14
0.2603827
0
0.29230887
3.365001e-14
0.32606076
0
0.36175397
0
0.39909527
-1.0483072e-17
0.43728296
0
0.47612663
8.2602729e-18
0.51609069
-7.2734527e-18
0.55785015
0
0.60165699
-1.143808e-17
0.64795078
0
0.69779393
-4.6365884e-14
0.75304924
1.36047e-14
0.013826692
0
0.028036091
6.3338611e-18
0.042832685
0
0.060326994
0
0.079651915
2.2590022e-14
0.098821079
-2.1782676e-14
0.11847102
0
0.13977557
-2.0236821e-14
0.16391185
0
0.18981045
1.8794583e-14
0.21653869
-1.8123767e-14
0.24480604
1.7468744e-14
0.27499445
0
0.30683492
0
0.34049451
-1.1756124e-17
0.37619491
0
0.41321129
0
0.45077475
-8.6105398e-18
0.48888205
0
0.52808878
-6.6107963e-18
0.56910368
-2.4990559e-14
0.61234514
4.8133434e-14
0.65826214
0
0.70794181
4.4672784e-14
0.76311637
7.7094359e-18
0.01299823
1.3105868e-14
0.026385361
0
0.040307643
6.7422093e-18
0.056749012
2.3450348e-14
0.074863965
0
0.09273145
-2.1782626e-14
0.11104768
0
0.13091107
-2.0227747e-14
0.15363399
1.9498711e-14
0.1781459
8.2041491e-18
0.20334659
-1.812617e-14
0.22999651
-7.295613e-18
0.25855496
0
0.28863997
1.2459262e-17
0.32030561
0
0.35409848
-3.0142028e-14
0.38972676
0
0.42625762
2.797747e-14
0.46318543
-7.896557e-18
0.50057258
2.5959669e-14
0.53900742
-6.0339038e-18
0.57937044
5.2855257e-18
0.62205215
-4.6395648e-14
0.66765744
0
0.7172104
-4.3058666e-14
0.77229458
0
0.01221261
7.0122121e-18
0.024816191
-1.2626024e-14
0.037913444
0
0.053359191
6.5666718e-18
0.070331786
0
0.086980412
2.1772976e-14
0.1040564
0
0.12257018
0
0.14394286
-1.9499493e-14
0.16712471
0
0.19085135
0
0.21593481
1.7467502e-14
0.2429347
0
0.27139697
-1.6234963e-14
0.30121208
0
0.33293686
3.015484e-14
0.36676651
-1.0098892e-17
0.40215553
0
0.43824956
0
0.47457275
-7.2011055e-18
0.51122892
2.5019001e-14
0.5489553
-2.4091635e-14
0.58864623
0
0.63085366
0
0.67619172
0
0.72569605
0
0.78075237
0
0.011468491
-1.3105598e-14
0.023325726
6.4193612e-18
0.035644084
0
0.050148896
0
0.066045771
5.4032084e-18
0.081554571
0
0.097477998
2.0985748e-14
0.11473249
0
0.13481741
0
0.1567273
-1.8798841e-14
0.17903916
-7.5971602e-18
0.20260772
0
0.2281063
-6.8624751e-18
0.25502564
3.2472055e-14
0.28312123
5.7249045e-18
0.3128584
0
0.34463076
0
0.37844161
0
0.41363577
0
0.44928455
0
0.48496648
2.5028362e-14
0.52092626
5.6726826e-18
0.55794213
2.3217979e-14
0.59703925
0
0.63878799
0
0.68394373
0
0.7334234
0
0.78848407
0
0.010764229
-1.3098423e-14
0.021911815
-1.2625762e-14
0.033495877
6.7917998e-18
0.04711128
0
0.061996486
2.2594723e-14
0.076441732
0
0.091292367
0
0.10737918
0
0.1262353
0
0.1469291
0
0.16789288
-1.812386e-14
0.19000191
-7.4242488e-18
0.2140543
0
0.23949569
-1.6242868e-14
0.26597372
-1.5656044e-14
0.29389989
-1.5083693e-14
0.32367123
0
0.355519
0
0.38929687
-8.6700992e-18
0.42423901
0
0.45939041
0
0.49444302
2.4122391e-14
0.52970464
2.3238028e-14
0.56604736
-4.3961574e-18
0.60455406
0
0.64594249
0
0.69093604
0
0.74046935
3.8530358e-14
0.79554144
0
0.0100935
0
0.020571736
0
0.031462699
0
0.044240596
-1.1718076e-14
0.058174522
0
0.071629228
-1.0890981e-14
0.085480383
-1.0492806e-14
0.10048784
0
0.11817623
0
0.13770438
1.8800553e-14
0.15739073
0
0.17810441
-1.7473851e-14
0.20076562
1.6846013e-14
0.2247861
0
0.2497218
-5.6481342e-18
0.275985
0
0.30394161
1.4546878e-14
0.33379246
0
0.36572306
0
0.39943103
0
0.43401126
-2.5068157e-14
0.46864067
4.8290359e-14
0.50304547
0
0.53760933
0
0.57330309
2.1564164e-14
0.61131401
-2.0768884e-14
0.65233168
0
0.69724672
0
0.74683198
0
0.801931
4.6503066e-05
0.011094952
0
0.019294668
0
0.029539623
-2.433219e-14
0.041527001
1.1717999e-14
0.054569486
1.1299776e-14
0.067104192
1.0890877e-14
0.080024265
-4.4170897e-18
0.094035807
-1.0114141e-14
0.11061724
0
0.12902514
0
0.14750744
0
0.16689589
0
0.18822245
-1.6848198e-14
0.21087758
1.6242973e-14
0.2343337
0
0.25903765
1.5093412e-14
0.28535195
1.4547429e-14
0.31340964
1.4024281e-14
0.34344606
0
0.37540155
0
0.40883332
-2.5084864e-14
0.44302681
0
0.47708736
2.3265817e-14
0.51081207
2.2406969e-14
0.54470227
-2.157901e-14
0.57980529
0
0.61731305
-3.0679895e-18
0.65805279
0
0.70289442
0
0.75260901
-3.5790195e-14
0.80774908
7.8381591e-05
0.011091845
0.00013056762
0.021042234
0
0.027714711
0
0.038961929
0
0.051170822
0
0.062853345
0
0.074906472
1.0492684e-14
0.087998144
-1.0119024e-14
0.10353225
4.979418e-18
0.12086385
0
0.13821208
0
0.15634655
1.7476625e-14
0.17640365
0
0.19774668
0
0.21977849
0
0.24300483
0
0.26781792
-5.0646106e-18
0.29427247
-1.4030316e-14
0.32253683
0
0.35265798
0
0.38443423
0
0.4175678
0
0.4513061
0
0.48475614
-2.2429048e-14
0.51779921
-4.2998319e-18
0.55104595
0
0.58558124
2.0024751e-14
0.62265834
-1.9291522e-14
0.66311834
-3.71628e-14
0.7079677
-3.5794892e-14
0.75779556
0
0.81301968
9.71751e-05
0.011086627
0.0002200722
0.021092481
0.00020150208
0.030005207
0
0.036532191
0
0.047967285
0
0.058863996
1.0886104e-14
0.070108353
4.4022865e-18
0.082350349
2.0228143e-14
0.096891929
0
0.11319073
-9.4009875e-15
0.12947149
0
0.14642586
1.7485238e-14
0.16527917
1.6851692e-14
0.18537075
0
0.20602985
5.5606251e-18
0.22784296
0
0.25125233
0
0.2762404
-4.895474e-18
0.302881
-4.6486513e-18
0.33127072
0
0.3613211
0
0.39285876
0
0.42564811
0
0.45891048
0
0.49170367
2.1612217e-14
0.5240682
0
0.55669635
2.0045497e-14
0.59069711
-1.9303913e-14
0.62735813
-2.3956009e-18
0.66762266
0
0.71246672
0
0.76247365
-3.3240908e-14
0.81775366
0.00010447872
0.011082107
0.0002728394
0.021130368
0.00033975974
0.030173518
0.00026547637
0.03922852
0
0.044931972
0
0.055122835
0
0.065612424
-4.3989346e-18
0.077063964
0
0.090672819
-1.9511287e-14
0.1059786
0
0.12125529
-9.0640579e-15
0.13709781
0
0.15481572
0
0.17372139
0
0.19306215
0
0.21351669
-1.5104527e-14
0.23559969
0
0.25923034
0
0.28438541
1.3528286e-14
0.31114857
-1.3041748e-14
0.33954325
0
0.36947825
0
0.40076361
0
0.43315445
0
0.46585385
0
0.49798258
0
0.52967212
2.0058114e-14
0.56168561
-1.9315272e-14
0.59519692
1.8600847e-14
0.63151673
3.5830953e-14
0.67157467
-3.8720882e-18
0.71647863
0
0.76662527
-3.6926693e-18
0.82198462
0.00010191046
0.011078072
0.00029331811
0.021162612
0.0004213698
0.030314047
0.00044772058
0.039527231
0.00032421106
0.047848643
1.1294181e-14
0.051591386
0
0.061403669
0
0.072119354
1.0114026e-14
0.084847587
5.0545741e-18
0.099204489
9.4053959e-15
0.11353452
-9.0679093e-15
0.12833128
-8.7395984e-15
0.14497711
0
0.16276518
0
0.18084709
0
0.19999779
0
0.22081674
5.2775329e-18
0.24317079
1.4040362e-14
0.26695587
0
0.29221248
0
0.31899918
-1.2573819e-14
0.34742088
1.2114809e-14
0.37721514
0
0.40812749
0
0.44007896
0
0.47221883
0
0.50364108
0
0.53463894
-1.9333813e-14
0.56608385
1.861703e-14
0.59915236
-1.7928051e-14
0.63514667
1.8454321e-18
0.67507125
0
0.72001083
0
0.77034425
3.0871395e-14
0.82576041
9.1138217e-05
0.011074477
0.00028607718
0.021188591
0.00045311221
0.030435885
0.00055527346
0.039784423
0.00054642668
0.048291759
0.00036996649
0.054504688
0
0.057439476
0
0.067498847
0
0.079395373
0
0.09284533
9.4054696e-15
0.10628078
-9.0644249e-15
0.1200929
-8.7437118e-15
0.13573202
-8.4276001e-15
0.15246818
0
0.16935484
0
0.18725747
-1.5115404e-14
0.20687052
1.4567861e-14
0.22801402
0
0.25051222
0
0.27437888
0
0.29963157
-2.5161339e-14
0.32649448
1.2118505e-14
0.35494516
0
0.38448872
0
0.41500639
0
0.44649774
-2.0870486e-14
0.47801138
0
0.50870257
0
0.53903018
-1.8632366e-14
0.56993115
-1.7939204e-14
0.60260348
1.727557e-14
0.63833351
1.6639947e-14
0.67814537
-3.2056389e-14
0.72315462
0
0.77361481
-2.975607e-14
0.82912417
7.3843749e-05
0.011071235
0.00025580298
0.021208187
0.0004420212
0.030537412
0.00059715877
0.040008729
0.00067741958
0.048674202
0.00062308919
0.055100793
0.00040255577
0.060232579
0
0.063156636
0
0.074294769
0
0.086878158
-4.1907041e-18
0.099467508
3.5764272e-18
0.11235467
0
0.12704737
0
0.14279551
8.1271575e-15
0.15855354
0
0.175265
0
0.19372838
0
0.21372005
0
0.23499577
0
0.2575667
0
0.28138587
-1.2582692e-14
0.30669773
-1.2129856e-14
0.33375088
-1.168739e-14
0.36213295
0
0.3913088
0
0.42140334
2.0889296e-14
0.4524121
2.0111046e-14
0.48326827
0
0.51321194
-1.8646193e-14
0.54287983
-1.7956261e-14
0.57328629
0
0.60560013
1.6648866e-14
0.64113075
0
0.68088412
-3.089423e-14
0.72590526
-2.9763317e-14
0.77651511
-2.8678363e-14
0.83207084
5.173921e-05
0.011068158
0.0002072332
0.021221521
0.00039527082
0.030618002
0.00058255741
0.040199147
0.00072826709
0.049012742
0.00077202271
0.055617349
0.00067768689
0.061008187
0.00042936059
0.065814362
0
0.069504327
0
0.081279314
0
0.093070951
-3.5316992e-18
0.10508507
3.8762487e-18
0.11889057
0
0.13371305
0
0.14840776
2.6036652e-18
0.16398634
1.5119601e-14
0.1813551
0
0.2002516
1.405097e-14
0.22036036
0
0.24170371
2.6123921e-14
0.26419067
0
0.28802637
0
0.31357944
1.1691069e-14
0.34072557
-1.1267624e-14
0.3688645
-1.0850761e-14
0.39765422
0
0.42734622
0
0.45783004
-4.051199e-18
0.48799514
0
0.51719888
-1.7970052e-14
0.54624013
0
0.57617276
1.6128371e-18
0.60820462
-1.429429e-18
0.6436232
-1.5454917e-14
0.68330865
-2.9774591e-14
0.72833877
2.8682981e-14
0.77902278
-2.2300461e-18
0.83464828
2.6545032e-05
0.011064953
0.00014517225
0.021228308
0.00032022648
0.030677669
0.00052100199
0.040354702
0.00071033302
0.049306609
0.00082966224
0.056079022
0.00083935242
0.061685634
0.00072298946
0.066859396
0.00045552281
0.071945302
0
0.07600513
9.401398e-15
0.087068159
0
0.098263292
-3.89383e-18
0.11122576
3.7418617e-18
0.12518486
0
0.13888404
0
0.15339097
7.5606474e-15
0.16971582
0
0.18757054
1.405369e-14
0.20656154
0
0.22673839
0
0.24796665
-1.2593666e-14
0.27041339
1.2138583e-14
0.2944739
-1.1702216e-14
0.32022401
-3.7803864e-18
0.34729318
-1.0862685e-14
0.37512537
-1.0460159e-14
0.40354278
0
0.43281239
0
0.46276156
0
0.49223012
0
0.52070097
0
0.54912907
1.6674863e-14
0.57865842
0
0.6104905
1.5463105e-14
0.64584938
0
0.68548552
2.8693818e-14
0.73044466
0
0.78121801
-1.9075969e-18
0.83687752
0.011061162
0
7.4469604e-05
0.02122818
0.00022432268
0.030716606
0.00042211261
0.040475165
0.00063526079
0.049555106
0.00080907068
0.056484065
0.00090183797
0.06229245
0.00089575067
0.06778298
0.00076735739
0.073242882
0.0004814537
0.078123381
-9.4054227e-15
0.081403807
0
0.091872722
0
0.10402886
-3.7894368e-18
0.11717775
-8.1286158e-15
0.12994993
0
0.1434484
0
0.15877905
-7.2885423e-15
0.17564015
0
0.19356029
-1.3558514e-14
0.21262431
0
0.2326576
1.26027e-14
0.25379779
0
0.27644579
0
0.30073935
-3.8483347e-18
0.32653023
0
0.35342617
1.046891e-14
0.38094498
0
0.40898349
-1.942569e-14
0.43782964
0
0.467212
0
0.49598345
0
0.52373697
0
0.55160881
0
0.5807934
0
0.61250643
1.4902456e-14
0.6478637
0
0.68742561
-2.7656613e-14
0.73229101
0
0.78307838
0
0.83880697
0.021220971
0
0.011056404
-2.6522202e-05
0.00011506189
0.030734182
0.00029573227
0.040560802
0.00051474351
0.049757384
0.00072351885
0.056830996
0.00087936034
0.062825668
0.00096262238
0.068607023
0.00095100103
0.074392266
0.00081072995
0.079644774
0.0005018152
0.083129321
0
0.085858338
0
0.097277924
0
0.10966016
-8.1317374e-15
0.12157375
-7.8389998e-15
0.13412791
0
0.1485128
-2.9476434e-18
0.16442514
-1.4060879e-14
0.18131693
0
0.19931952
0
0.2182172
0
0.238115
-1.2149304e-14
0.25944114
1.1710789e-14
0.28232713
-1.1290228e-14
0.30670454
1.0875325e-14
0.33245087
0
0.35913169
-1.0095213e-14
0.38630433
0
0.41398463
0
0.44238382
0
0.47120807
1.7352513e-14
0.49928979
0
0.52636139
0
0.55371814
1.5486763e-14
0.58263634
-1.4912933e-14
0.61430886
-1.4363332e-14
0.64970304
0
0.68917969
2.6653786e-14
0.73385149
0
0.78466816
0
0.84041681
0.030729566
0
0.021207724
-7.4386592e-05
0.011050939
-5.1652665e-05
0.00015170794
0.040611148
0.00036071772
0.049912939
0.00058633332
0.057118504
0.00078631949
0.063282932
0.00093880448
0.069327334
0.0010221632
0.07540603
0.0010043002
0.080977141
0.00084450516
0.084890454
0.00051396686
0.087141113
0
0.090930196
8.4332663e-15
0.10260088
8.1320269e-15
0.11372415
-2.3865052e-18
0.12539242
-7.5597455e-15
0.13888419
0
0.15388956
7.0299467e-15
0.16979616
2.663513e-18
0.18678371
-1.3074277e-14
0.20460068
0
0.22331464
0
0.24339419
1.1716265e-14
0.26496339
3.8752152e-18
0.28792461
-1.0886323e-14
0.31229856
-1.0488911e-14
0.33796044
-1.0107138e-14
0.36439866
-9.7316447e-15
0.39125227
-9.3690595e-15
0.41856244
0
0.44651183
0
0.47476513
-1.6725927e-14
0.50218701
0
0.52861061
0
0.55551298
-1.4925928e-14
0.58424049
-1.4372149e-14
0.61594419
-1.3842805e-14
0.65141405
-1.3332989e-14
0.6907276
0
0.73518012
0
0.78596446
0
0.8417584
0.040624669
0
0.030705443
-0.00011489645
0.02118905
-0.0001448565
0.011045576
-7.366597e-05
0.00018511907
0.050021288
0.00041099099
0.057345634
0.00063724443
0.063661166
0.0008396368
0.06994043
0.00099697414
0.076280204
0.001078874
0.082141671
0.001045482
0.086424302
0.00086485641
0.089175199
0.00052385172
0.091777948
0
0.095939649
0
0.10637306
0
0.11721562
-2.8250601e-18
0.12985339
0
0.14399776
0
0.1589616
6.7828838e-15
0.17498106
6.5408951e-15
0.19176984
0
0.20935289
0
0.22824936
0
0.2485883
0
0.27021015
0
0.29315192
-1.0496674e-14
0.31754989
1.010944e-14
0.34311589
-9.7407332e-15
0.3692837
0
0.39580523
2.137269e-18
0.42273335
0
0.45021508
0
0.47793543
-1.6119019e-14
0.50471912
0
0.53053308
0
0.55703405
-1.4384357e-14
0.58565871
-1.3851089e-14
0.61746388
0
0.65299167
0
0.69211018
-2.4761273e-14
0.73625524
0
0.7870359
2.2990611e-14
0.84284003
0.050081062
0
0.040607081
-0.00015153052
0.030662628
-0.00022368993
0.021164937
-0.00020658133
0.011040495
-9.0851569e-05
0.00021101178
0.057511976
0.00044672409
0.06395844
0.00068055334
0.070443335
0.00089160719
0.077012283
0.0010516914
0.08313639
0.0011225534
0.087765066
0.0010705277
0.090954105
0.00088172442
0.094138628
0.00053404016
0.096303318
8.1322661e-15
0.099445677
0
0.10957366
0
0.12139135
-3.0990073e-18
0.13471224
-7.0313751e-15
0.14878052
-6.7837958e-15
0.16387735
-1.3081724e-14
0.17968762
2.1333083e-18
0.19619211
0
0.21396105
0
0.23313857
0
0.25351325
1.0895823e-14
0.27507992
0
0.29806669
-3.211422e-18
0.32248989
9.7495205e-15
0.34791045
9.3901248e-15
0.37379928
-1.8082512e-14
0.39998467
-8.7042604e-15
0.42651433
0
0.45355239
0
0.48074231
-1.5533938e-14
0.50692103
0
0.53215869
0
0.5583339
1.3861735e-14
0.58693955
-1.3349054e-14
0.6188838
1.2857261e-14
0.65445938
0
0.69328564
0
0.73712729
0
0.78786046
2.2160568e-14
0.84370838
0.057614982
0
0.050101866
-0.00018513188
0.040559233
-0.00029505408
0.030598939
-0.00031889838
0.021136724
-0.00025477779
0.011036209
-0.00010152674
0.00022939525
0.064172753
0.0004771168
0.070832358
0.00072261732
0.077600501
0.00094003042
0.083959134
0.0010936877
0.088911273
0.001149254
0.09250972
0.0010917153
0.096217571
0.00089912526
0.098979498
0.00053834677
0.099254431
0
0.10239712
0
0.11346948
7.2915994e-15
0.125995
7.0319479e-15
0.13921395
6.7845859e-15
0.1534373
0
0.16831982
6.3076656e-15
0.18379475
0
0.20048776
0
0.21856536
0
0.23776554
-3.5749173e-18
0.25804249
0
0.27962501
-1.0125071e-14
0.30270079
9.7548829e-15
0.32714001
-9.3963711e-15
0.35238844
-2.438564e-18
0.37797383
-8.7158205e-15
0.40380524
0
0.42994146
0
0.45653481
0
0.48323461
-1.4969921e-14
0.50882771
0
0.53353799
-2.7748148e-14
0.55945809
0
0.58811407
7.7713884e-19
0.62021461
1.2391013e-14
0.65577797
0
0.69428956
2.3002523e-14
0.73777308
0
0.78849013
0
0.84433626
0.064300369
0
0.057668348
-0.00021130229
0.050083545
-0.00036077333
0.040476072
-0.00042068237
0.030514687
-0.00039313701
0.021105672
-0.00028472907
0.011033394
-0.00010402943
0.00024500496
0.071103476
0.00050649332
0.078041491
0.00076139793
0.084607618
0.00097709315
0.089860794
0.0011195947
0.093840548
0.0011722453
0.098029368
0.0011134984
0.10132801
0.00090627193
0.10217924
0.00053605369
0.10165012
7.5610505e-15
0.1060359
-7.2919922e-15
0.11781179
0
0.13022817
0
0.14362055
-6.5415478e-15
0.15762891
-2.0959206e-18
0.17212661
6.0817766e-15
0.18779381
5.8686658e-15
0.20482665
1.1313147e-14
0.22291577
0
0.24198276
0
0.26224407
0
0.28392572
1.9528681e-14
0.30711455
-9.4078204e-15
0.33152053
0
0.35655387
1.7448405e-14
0.38182132
0
0.40729676
8.0871718e-15
0.43303547
0
0.4592134
0
0.4854294
0
0.51047786
0
0.53470823
0
0.56044018
-6.5227122e-19
0.5891948
0
0.62145282
-2.3888208e-14
0.65696584
-1.1506359e-14
0.69508832
0
0.73823869
0
0.78890906
-2.0590743e-14
0.84476939
0.071251946
0
0.064360254
-0.00022982159
0.057670451
-0.00041211127
0.050016205
-0.00051487145
0.040357236
-0.00051865219
0.030410623
-0.00043912243
0.021072648
-0.00029178035
0.011032441
-9.6722015e-05
0.00026002296
0.078331758
0.0005333819
0.08508093
0.0007910753
0.090610404
0.0010002356
0.094944792
0.0011421829
0.099572481
0.0011957096
0.1033757
0.0011222332
0.10474815
0.00090250863
0.10484977
0.00053383052
0.10473564
7.2952214e-15
0.11011324
0
0.12179208
0
0.1343954
-6.5448368e-15
0.14757862
-6.3098115e-15
0.161154
0
0.17584436
-2.1245364e-18
0.1918841
-5.6584983e-15
0.20892057
0
0.22684246
0
0.24587092
-1.0141712e-14
0.26621175
0
0.28801548
-9.4131373e-15
0.31127767
0
0.33560941
0
0.36040279
0
0.38535948
-1.6193429e-14
0.41047292
0
0.43582294
0
0.46159807
0
0.48737768
-2.7803269e-14
0.51190715
0
0.53570485
0
0.56130043
0
0.59020045
0
0.62259194
0
0.65799236
1.1090469e-14
0.69573185
0
0.73851999
0
0.78916746
0
0.84500615
0.0784687
0
0.071301642
-0.00024540132
0.064351229
-0.00044836788
0.057605305
-0.00058870054
0.049901021
-0.00063546001
0.040202944
-0.00057928817
0.030287662
-0.00044967755
0.021038241
-0.00027132444
0.011034203
-7.8005799e-05
0.00027367297
0.085378863
0.00055397902
0.091159678
0.00080981987
0.095821286
0.0010203824
0.1008441
0.0011650295
0.10511805
0.0012051251
0.10700074
0.0011176019
0.10767225
0.00089889987
0.10825392
0.00053380457
0.10823209
0
0.1138519
0
0.12572869
0
0.13813421
-1.2625463e-14
0.15084389
2.0365961e-18
0.16460739
0
0.17969991
0
0.19573785
5.4595621e-15
0.21257461
0
0.23044456
0
0.24953405
-2.9476486e-18
0.26996978
0
0.29187218
9.0783129e-15
0.3151825
-2.5175893e-18
0.33941007
0
0.36396388
-1.9090513e-18
0.38859921
7.8018193e-15
0.41334931
7.5112267e-15
0.43832817
0
0.4637422
0
0.48909329
1.3396163e-14
0.51314418
-1.2897669e-14
0.53654652
-1.2418438e-14
0.56206275
-5.5071376e-19
0.59112991
0
0.62363248
1.1095114e-14
0.65887948
0
0.6961896
-2.0599894e-14
0.73865427
0
0.7892462
-1.9132852e-14
0.84508898
0.085500717
0
0.078483843
-0.00026024843
0.071250569
-0.00047864215
0.064251469
-0.00064070625
0.05747317
-0.00072734093
0.049737597
-0.00071059153
0.040014077
-0.00059316862
0.030148327
-0.00041783539
0.021004675
-0.00021886035
0.011039659
-4.6288424e-05
0.00028416563
0.09150866
0.00056711455
0.096467832
0.00082613538
0.1018417
0.0010407955
0.10655024
0.0011742688
0.10892864
0.0012003533
0.11015183
0.0011135113
0.11137004
0.00089921675
0.11207817
0.0005333623
0.1113858
0
0.11756079
0
0.12926035
6.3134683e-15
0.1411627
0
0.15404634
2.1584218e-18
0.16824136
0
0.18332933
1.0921074e-14
0.19913668
-5.2641529e-15
0.21591456
0
0.23383822
-9.7833469e-15
0.25299425
0
0.27350746
0
0.29550689
-8.7497635e-15
0.31883293
8.4264731e-15
0.34293307
8.1156815e-15
0.36724013
-1.7483455e-18
0.3915544
0
0.41594668
0
0.4405822
0
0.46565165
0
0.49061671
-1.2910683e-14
0.51420913
0
0.53726437
0
0.56274489
-1.1525872e-14
0.59199667
1.1101655e-14
0.62453042
-4.7086884e-19
0.65958893
0
0.69650178
-1.9856655e-14
0.73862974
0
0.78919617
0
0.84498222
0.091655502
0
0.085487471
-0.00027367946
0.078375896
-0.00050735167
0.071071336
-0.0006837508
0.064060921
-0.00079187015
0.057273019
-0.00081429216
0.049525884
-0.00072855745
0.03979453
-0.00055107548
0.029991135
-0.00033668185
0.020974748
-0.00012990755
0.011046782
0
0.00029093217
0.096884934
0.0005785093
0.10256593
0.0008425348
0.10766792
0.001049116
0.11052646
0.0011698188
0.11228158
0.0011961068
0.11409828
0.0011140568
0.11548431
0.000898668
0.11555549
0.00053150579
0.11448694
0
0.12088227
0
0.13207992
0
0.14413265
-1.1747705e-14
0.15746971
2.0290128e-18
0.17165954
-5.4630522e-15
0.18649084
-5.267755e-15
0.20223524
1.5200739e-18
0.21906556
0
0.23703807
0
0.25624124
-9.0937721e-15
0.27683148
0
0.29891902
0
0.32224781
8.1227431e-15
0.34620205
0
0.37025721
7.5282246e-15
0.39424204
0
0.41829109
-6.9745123e-15
0.44260582
0
0.46736514
0
0.49195024
-1.2441769e-14
0.51512688
-1.1978478e-14
0.53787705
0
0.56336145
0
0.59273869
0
0.62528485
-3.6852699e-19
0.66013955
-1.9863442e-14
0.69664164
1.3069088e-19
0.73849551
0
0.78899707
0
0.8446978
0.097070678
0
0.091648621
-0.00028410103
0.085338897
-0.0005333973
0.078112209
-0.00072440156
0.070766099
-0.00084474052
0.063779651
-0.00088689687
0.057004637
-0.00083591068
0.049267475
-0.00067777045
0.039541936
-0.00044388662
0.029818229
-0.00019960586
0.020941331
0
0.010057614
0
0.00029675436
0.10301934
0.00058988363
0.10847114
0.00084930905
0.11178699
0.001045383
0.11405527
0.0011658737
0.11643174
0.0011968302
0.11845986
0.0011134911
0.11924845
0.00089551273
0.1189596
0.00052790496
0.11717985
0
0.12351448
0
0.13483759
0
0.14735449
5.6641789e-15
0.16069195
-5.4627592e-15
0.17459905
5.2679352e-15
0.1893654
-1.0162022e-14
0.20516693
-4.8971143e-15
0.22203539
0
0.24003391
-9.1007081e-15
0.25928987
8.7658435e-15
0.27999718
-8.4436898e-15
0.30217374
0
0.32545519
-2.0266797e-18
0.34923847
0
0.37301628
-7.2567209e-15
0.39668006
0
0.42040127
0
0.44441662
0
0.46888499
0
0.49313128
1.198918e-14
0.51591783
0
0.53840677
1.1116659e-14
0.56388485
0
0.59336975
0
0.62585454
9.9356188e-15
0.66050917
9.5734041e-15
0.69667065
0
0.73824967
1.7781183e-14
0.78864074
0.0076943047
0.83652157
0.10320382
0
0.097079153
-0.00029093701
0.09148822
-0.00055372645
0.085015059
-0.00076142294
0.077694169
-0.00089442478
0.070333601
-0.00094564045
0.063408172
-0.00091078321
0.056668943
-0.00077861959
0.048963957
-0.00054673736
0.039255374
-0.00026297599
0.029621362
0
0.019224541
1.3101022e-14
0.010739901
0
0.00030251013
0.10896127
0.00059466176
0.11270507
0.0008465394
0.11546574
0.0010419479
0.11836276
0.001166536
0.12099575
0.0011963208
0.12247289
0.0011096076
0.12291813
0.00088939166
0.12192209
0.00052169656
0.11920094
0
0.12608361
0
0.13786166
0
0.15039042
-1.7255807e-18
0.16342577
0
0.1772677
5.0814168e-15
0.19209717
-1.4272475e-18
0.20793029
4.7258375e-15
0.2248164
0
0.24285415
-8.7755803e-15
0.26221345
-8.4541525e-15
0.2830446
-8.1425377e-15
0.30526245
-7.8385244e-15
0.32845637
-1.8702592e-18
0.35202963
0
0.37553546
-1.3179136e-18
0.39888596
-6.7304605e-15
0.42229232
-6.476739e-15
0.44603666
0
0.47024887
0
0.49416268
0
0.51660276
0
0.53884606
0
0.56432847
-2.8479051e-19
0.59383916
2.4571354e-19
0.62626697
-9.5772194e-15
0.66073058
0
0.6965637
1.7783967e-14
0.73788314
0.014849926
0.7808971
0.0070028282
0.82889012
0.10914087
0
0.10318271
-0.00029671703
0.096910319
-0.00056713448
0.091126351
-0.00079054513
0.084516524
-0.00094003173
0.077119277
-0.0010006127
0.069774118
-0.00097060736
0.062946438
-0.00084866619
0.056266764
-0.00062899128
0.048614653
-0.00032441461
0.038929658
0
0.027338515
0
0.020527513
0
0.011464842
1.3607685e-14
0.00030495288
0.11327785
0.00059288119
0.11650518
0.00084380933
0.11988395
0.0010424181
0.12308357
0.0011660432
0.12521968
0.0011921119
0.1263735
0.0011019719
0.12611239
0.00087866086
0.12420739
0.00051365164
0.12117054
0
0.12891483
0
0.14071749
0
0.15293454
-5.2724372e-15
0.16590186
-5.0831143e-15
0.17981772
-9.804456e-15
0.19467444
4.7256401e-15
0.21051938
1.2670209e-18
0.22743834
0
0.24555749
0
0.26503909
-8.1508077e-15
0.28598035
0
0.30819368
0
0.33124356
0
0.35460289
0
0.37783365
-6.7391311e-15
0.40087698
0
0.42398625
7.5238737e-19
0.44748524
0
0.47145846
0
0.49507504
-1.1135259e-14
0.51717864
0
0.53921698
1.032571e-14
0.56467348
0
0.59418747
1.0225005e-19
0.62647849
-5.6572644e-20
0.660784
0
0.69634636
0.021641088
0.7305597
0.013513183
0.77366165
0.0062639284
0.82183164
0.11350289
0
0.10908448
-0.00030228951
0.10295568
-0.00057836128
0.096506714
-0.00080983855
0.090564934
-0.00097622454
0.083843426
-0.0010515781
0.076389385
-0.0010262389
0.069084226