/*--------------------------------*- C++ -*----------------------------------*\
| =========                 |                                                 |
| \\      /  F ield         | OpenFOAM: The Open Source CFD Toolbox           |
|  \\    /   O peration     | Version:  v2012                                 |
|   \\  /    A nd           | Website:  www.openfoam.com                      |
|    \\/     M anipulation  |                                                 |
\*---------------------------------------------------------------------------*/
FoamFile
{
    version     2.0;
    format      ascii;
    class       volScalarField;
    location    "77.5099243080187534";
    object      p;
}
// * * * * * * * * * * * * * * * * * * * * * * * * * * * * * * * * * * * * * //

dimensions      [0 2 -2 0 0 0 0];


internalField   nonuniform List<scalar> 
9200
(
-0.0021021177
-0.0022512409
-0.005569672
-0.0023600148
-0.0062178468
-0.0095442166
-0.002588588
-0.0067904232
-0.010623383
-0.012814798
-0.0027213477
-0.0077980426
-0.011710379
-0.014370183
-0.015266258
-0.0028357985
-0.0087487105
-0.013478796
-0.016096261
-0.017308886
-0.016697297
-0.0028432159
-0.0097250995
-0.015229525
-0.01881553
-0.019753443
-0.019239037
-0.016994178
-0.0027817869
-0.010505728
-0.017004847
-0.02167802
-0.023557558
-0.022463259
-0.019931477
-0.016063366
-0.0026526583
-0.011050361
-0.018465414
-0.024676349
-0.027778119
-0.027462549
-0.023961962
-0.019213438
-0.013680044
-0.0025209522
-0.01125637
-0.019477973
-0.027375813
-0.032377865
-0.033285367
-0.03017721
-0.024011724
-0.017158478
-0.0098945266
-0.0024416462
-0.011089137
-0.019852081
-0.029528295
-0.036865493
-0.03989855
-0.037728005
-0.031358702
-0.022429089
-0.013739255
-0.0050558792
-0.0025108666
-0.010529012
-0.019478601
-0.030826024
-0.040899677
-0.04681693
-0.046643638
-0.040597895
-0.030666746
-0.019093531
-0.0087247535
0.00084381159
-0.002896016
-0.0096010429
-0.018292719
-0.031020458
-0.044069164
-0.053657351
-0.05652411
-0.051902972
-0.041351936
-0.027867264
-0.014105277
-0.0025193665
0.0075804691
-0.0036968725
-0.0083464958
-0.0162975
-0.029909579
-0.045987662
-0.059948781
-0.067037135
-0.065047148
-0.054839844
-0.039510129
-0.022921927
-0.0075767587
0.0046768797
0.014896353
-0.0050854162
-0.0068096397
-0.013561458
-0.0273554
-0.046312191
-0.06519194
-0.077746368
-0.079867876
-0.071188583
-0.05460756
-0.034832768
-0.015894804
0.00021711836
0.012568537
0.022525692
-0.0073109831
-0.0050048894
-0.010228199
-0.02329749
-0.044762976
-0.068902688
-0.088129341
-0.096101183
-0.09054244
-0.07361116
-0.050614414
-0.027294816
-0.0070941897
0.0089331429
0.020854947
0.030229369
-0.011644794
-0.0030570207
-0.0065169028
-0.017756323
-0.041160846
-0.070629497
-0.097631756
-0.11335581
-0.1129822
-0.097095107
-0.071175343
-0.042756192
-0.017262287
0.0030233455
0.018187543
0.029238794
0.037798867
-0.016992166
-0.001821131
-0.0027184716
-0.010839785
-0.035442954
-0.070024408
-0.10566562
-0.13115413
-0.13850004
-0.12564577
-0.097512031
-0.063379139
-0.031198569
-0.005287227
0.013927707
0.027603422
0.037463729
0.045063501
-0.023141649
-0.0013814163
0.0015390432
-0.002716275
-0.027663868
-0.066875462
-0.11168921
-0.14891703
-0.1669221
-0.16008061
-0.1306205
-0.090721079
-0.050022881
-0.016712821
0.0078929393
0.025093128
0.036849446
0.045326189
0.051898313
-0.030085424
-0.00096023019
0.0055901832
0.0063513255
-0.018022061
-0.061173604
-0.11525338
-0.16603339
-0.19788463
-0.20104673
-0.17280425
-0.12487106
-0.075184621
-0.032293585
-0.00037304423
0.021513065
0.036054044
0.045659795
0.052678398
0.0582198
-0.037638105
-0.0015802303
0.008427128
0.016111816
-0.0068470695
-0.053140998
-0.11609955
-0.18193995
-0.23090492
-0.24898939
-0.22602825
-0.17147458
-0.10862143
-0.053348332
-0.011710372
0.016686079
0.034892774
0.046439474
0.053842386
0.059425153
0.063983708
-0.045514853
-0.0035842824
0.0098096914
0.02604991
0.0053736572
-0.043207433
-0.11416983
-0.1961103
-0.26543362
-0.30423052
-0.29271005
-0.23263598
-0.15411159
-0.081984321
-0.027114298
0.010032955
0.03345154
0.047495603
0.05598631
0.061275793
0.065517668
0.069176541
-0.053385191
-0.007209529
0.0091731548
0.035900446
0.018145464
-0.031971755
-0.10973435
-0.20827001
-0.30089547
-0.36688788
-0.37558163
-0.31335751
-0.21586709
-0.12131797
-0.048278543
0.00098284367
0.031409165
0.04913534
0.058948422
0.064533749
0.067900659
0.070944826
0.073809983
-0.062209293
-0.012663109
0.0059573669
0.044883155
0.03085648
-0.020151794
-0.10323211
-0.21811695
-0.33719926
-0.43719016
-0.47790653
-0.41966249
-0.30029117
-0.17562049
-0.077524707
-0.011568202
0.028601922
0.051250588
0.063205287
0.069033485
0.072009147
0.073707009
0.075724306
0.077912561
-0.071668231
-0.020800637
-0.00075879194
0.052547099
0.042841063
-0.0085917861
-0.095433222
-0.22528066
-0.37241881
-0.51379274
-0.60396353
-0.55967345
-0.41533029
-0.2507202
-0.11825766
-0.029062493
0.02447298
0.054003453
0.068798886
0.075367649
0.077662203
0.078408871
0.078721961
0.079894131
0.081525
-0.080060839
-0.030803484
-0.011196762
0.058246038
0.053332026
0.0018296979
-0.087264956
-0.22982882
-0.4054278
-0.59174459
-0.7510367
-0.74472918
-0.57062571
-0.35577657
-0.17502718
-0.053666031
0.018341959
0.057244917
0.076114347
0.083665176
0.085521261
0.084845288
0.083779384
0.082998128
0.083505449
0.084694493
-0.086985056
-0.042199238
-0.0249184
0.061515368
0.061866183
0.010250186
-0.079726554
-0.23187058
-0.43447119
-0.67028594
-0.91639301
-0.97806942
-0.78412293
-0.50611283
-0.25641415
-0.088258692
0.0091035799
0.060838536
0.085259435
0.094439311
0.095748756
0.093707229
0.090661669
0.088200461
0.086603909
0.086616734
0.087471505
-0.092295899
-0.055117034
-0.039866136
0.061960181
0.066860931
0.015819826
-0.073745578
-0.23162498
-0.458174
-0.74231981
-1.0954389
-1.2695595
-1.0553437
-0.7105732
-0.37569043
-0.1391119
-0.0047836105
0.064374852
0.096420266
0.10792416
0.10890997
0.10515067
0.10006004
0.095234179
0.091771065
0.089615856
0.089289022
0.089906261
-0.095759753
-0.068351899
-0.05423008
0.059583587
0.067688008
0.01775292
-0.070037071
-0.22878109
-0.47553599
-0.79852451
-1.2772794
-1.5857983
-1.3964759
-0.97190083
-0.53664773
-0.21401277
-0.02709675
0.067149902
0.10955183
0.1244516
0.12527022
0.11973938
0.11209693
0.10476973
0.098708227
0.094599035
0.09211273
0.091582845
0.09204722
-0.097400129
-0.080933374
-0.06681263
0.054504452
0.063912403
0.015553899
-0.069124953
-0.22419732
-0.4829114
-0.83297823
-1.4479534
-1.9065338
-1.8274406
-1.3115074
-0.74810196
-0.3134269
-0.06173789
0.067107256
0.12438447
0.14411257
0.14518788
0.13770906
0.12730088
0.1168802
0.1080517
0.10123795
0.09679301
0.094171679
0.093555713
0.093939506
-0.096814
-0.092168597
-0.076436009
0.0459189
0.055215986
0.0090122408
-0.071244457
-0.21873326
-0.48234858
-0.85976859
-1.5877043
-2.216279
-2.3035635
-1.7585109
-1.0446731
-0.44494656
-0.10912192
0.062171751
0.13981359
0.16679489
0.16875348
0.15937537
0.14584508
0.13204108
0.11981752
0.11012671
0.10297503
0.098457636
0.095865211
0.095260941
0.095624268
-0.094063301
-0.10221824
-0.084203406
0.033890902
0.041572431
-0.0020408679
-0.076209901
-0.21288245
-0.47244778
-0.88776295
-1.6663811
-2.4730977
-2.7307525
-2.2369452
-1.3970807
-0.62457981
-0.1734444
0.051437952
0.15448998
0.191805
0.19585849
0.18476111
0.16797051
0.15035016
0.13442137
0.12122268
0.11120708
0.10406293
0.099689815
0.09725982
0.096746504
0.097138111
-0.088960914
-0.11169715
-0.09203788
0.019631057
0.023529091
-0.017433601
-0.083807035
-0.20817771
-0.45384365
-0.90538168
-1.6798476
-2.6395881
-3.0746116
-2.6571036
-1.7380089
-0.83941368
-0.26092271
0.03226503
0.16702675
0.2180487
0.22592156
0.21369424
0.19360942
0.17196683
0.15188571
0.13488224
0.12138962
0.11148914
0.10463238
0.10057726
0.098414822
0.098054982
0.098513129
-0.081414008
-0.11980621
-0.098966062
0.0014676904
0.0023208621
-0.036995733
-0.093765884
-0.20478715
-0.4356198
-0.90063149
-1.6492459
-2.7030937
-3.2960207
-2.9801359
-2.04664
-1.0619466
-0.37027865
0.0010448164
0.1749616
0.24390626
0.25792748
0.24557854
0.22251132
0.1967358
0.17229544
0.15105973
0.13382425
0.12058374
0.11114891
0.10480002
0.1011973
0.099382374
0.099223279
0.099777028
-0.071351969
-0.12504347
-0.10209197
-0.018751705
-0.024743789
-0.05927305
-0.10596526
-0.20173827
-0.41710586
-0.86305101
-1.5833562
-2.6679042
-3.378818
-3.1802613
-2.2865331
-1.2670902
-0.49235077
-0.045259392
0.17517867
0.2667648
0.29026114
0.27940457
0.25403449
0.22433897
0.19542491
0.16977979
0.14840761
0.13159991
0.11903845
0.11034072
0.10466737
0.10161711
0.10020729
0.1002831
0.10095333
-0.058998917
-0.12566243
-0.1013951
-0.040745108
-0.05566477
-0.085900009
-0.11931064
-0.19884881
-0.39525557
-0.80624013
-1.4857488
-2.5474483
-3.3526244
-3.2536948
-2.4442777
-1.4399456
-0.61631396
-0.10838562
0.16357996
0.28332585
0.32041416
0.3136434
0.28717073
0.2541039
0.22091246
0.19076812
0.16512018
0.14438751
0.12851243
0.11695473
0.10919721
0.10432151
0.10189383
0.10092765
0.10126102
0.10206175
-0.044738082
-0.12155506
-0.098001843
-0.06293498
-0.090592263
-0.11568621
-0.13493667
-0.19537553
-0.37120224
-0.74640742
-1.3641893
-2.3670959
-3.1943065
-3.2140683
-2.5133695
-1.5644589
-0.74385059
-0.18847822
0.13509689
0.28976875
0.34503097
0.34612228
0.32048623
0.28505125
0.24808167
0.21364619
0.18366065
0.1588979
0.1393838
0.12481789
0.11450287
0.10783061
0.1038357
0.10207535
0.10157511
0.1021792
0.10311849
-0.02902593
-0.11302648
-0.09165045
-0.084378224
-0.12794788
-0.15039845
-0.15084922
-0.18977784
-0.34539263
-0.68318759
-1.2303584
-2.151556
-2.9592892
-3.0786489
-2.4954563
-1.6457766
-0.87242972
-0.28643009
0.085585752
0.28131186
0.36048672
0.37389348
0.35212764
0.31586645
0.27601093
0.23776198
0.20365778
0.1748212
0.15158725
0.13371433
0.12072975
0.11182495
0.10633433
0.10327064
0.10220108
0.1021757
0.10305561
0.10413677
-0.013366361
-0.10081617
-0.082049863
-0.10423785
-0.16682876
-0.18877657
-0.17110175
-0.1803902
-0.31454123
-0.61763699
-1.0940626
-1.9214434
-2.6794396
-2.8727593
-2.4106692
-1.6988586
-0.99512442
-0.40296816
0.011886928
0.252761
0.36303049
0.39356046
0.37976435
0.34494675
0.30353399
0.26227747
0.22450835
0.19181263
0.16481838
0.14357105
0.12763913
0.11642363
0.10903794
0.10478485
0.10267567
0.1023029
0.10275029
0.10390478
0.10512711
0.0013993818
-0.086296447
-0.06934317
-0.12182345
-0.20563429
-0.22907706
-0.19533203
-0.17378566
-0.27929906
-0.5367844
-0.96487522
-1.6918858
-2.3827372
-2.6231274
-2.2845628
-1.7196501
-1.1119861
-0.53820606
-0.089280422
0.19950341
0.34843003
0.40185069
0.40060671
0.37044336
0.32928493
0.28618159
0.24547701
0.20933588
0.17877236
0.15409865
0.13515618
0.12136907
0.11204243
0.10623655
0.10324368
0.10209018
0.10240603
0.10331543
0.10473798
0.10609774
-0.070556802
0.014908906
-0.054072266
-0.13656645
-0.24177216
-0.26963787
-0.22140622
-0.16939698
-0.24482527
-0.45308874
-0.81743692
-1.4747537
-2.0964628
-2.360788
-2.139442
-1.7119658
-1.2253844
-0.69206362
-0.22149791
0.11665877
0.31208921
0.39562405
0.41174059
0.39030929
0.35175995
0.30834153
0.26570849
0.22676908
0.19299056
0.16503976
0.14301139
0.12658743
0.1150737
0.1077008
0.10349626
0.10175932
0.10154486
0.10252999
0.10388372
0.10556393
0.10705491
-0.037932016
-0.05525519
0.02712158
-0.14818588
-0.27323387
-0.30781318
-0.2466361
-0.16513901
-0.2127881
-0.37481216
-0.67789454
-1.2420958
-1.8307398
-2.1134947
-1.997135
-1.6878366
-1.3347075
-0.86350559
-0.38798338
-0.0019351022
0.24885712
0.37149559
0.41047063
0.40239437
0.36944611
0.32757045
0.28429411
0.24341688
0.20696918
0.17601775
0.15099717
0.13183034
0.11805943
0.10888803
0.10348936
0.10087593
0.100369
0.10106297
0.10268928
0.10446456
0.10638899
0.10800326
-0.15601027
-0.022522387
-0.040918607
0.03824001
-0.29809579
-0.34085572
-0.26842031
-0.16157032
-0.18300751
-0.30227715
-0.54753899
-1.0231941
-1.5576508
-1.8809799
-1.8635757
-1.6568801
-1.4323442
-1.0505295
-0.59171176
-0.1635825
0.15227701
0.32557133
0.39401897
0.404571
0.38080657
0.34266097
0.30030718
0.25857745
0.22017209
0.18664737
0.15881778
0.13693749
0.12077037
0.10972611
0.10291809
0.099478218
0.098420203
0.099100344
0.10066129
0.10289421
0.10506457
0.10721781
0.10894608
-0.31498197
-0.158617
-0.0086344911
-0.027685431
0.047840198
-0.36624489
-0.28444398
-0.16035399
-0.15674677
-0.23604851
-0.42418484
-0.81591174
-1.2987981
-1.6326037
-1.7257741
-1.628565
-1.5187111
-1.2515185
-0.83710192
-0.37722059
0.014122872
0.25256177
0.35877354
0.39478005
0.38430947
0.35241851
0.31277814
0.27154421
0.23207658
0.19653973
0.16620059
0.1416884
0.12308763
0.1100009
0.10170822
0.097245716
0.095720108
0.096161633
0.097972767
0.10035122
0.10315162
0.10568829
0.10805349
0.10988555
-0.38222984
-0.32353965
-0.15636095
0.0030118701
-0.015841383
0.055564626
-0.29344215
-0.16066828
-0.13238549
-0.17447487
-0.31213535
-0.62727657
-1.0461026
-1.3984947
-1.5632593
-1.6010733
-1.6013822
-1.4668435
-1.1276196
-0.65487306
-0.17649265
0.1470402
0.29994121
0.37158701
0.37869491
0.35650961
0.32136643
0.28171258
0.24219133
0.20534033
0.17288975
0.14591305
0.12485648
0.10962612
0.099655233
0.094099032
0.091932245
0.092252953
0.094122539
0.096998757
0.1001397
0.10346582
0.10633852
0.10889785
0.11082291
-0.29650798
-0.38871886
-0.32376749
-0.15021265
0.011974262
-0.005515778
0.06117653
-0.16088856
-0.1078025
-0.11693714
-0.21219224
-0.45884599
-0.81726876
-1.1625664
-1.397324
-1.5481422
-1.683004
-1.6833452
-1.45387
-1.0081455
-0.43038234
-0.0045315749
0.25031513
0.33403539
0.36252074
0.3527821
0.32467352
0.28856147
0.25010952
0.21275566
0.17870283
0.14947934
0.12599546
0.10850039
0.096695006
0.089837558
0.086968883
0.087021554
0.089102241
0.092316641
0.096185243
0.10003051
0.10383903
0.10701639
0.10975127
0.11175866
-0.15868412
-0.29469266
-0.38562886
-0.31664698
-0.1399856
0.019023552
0.0031471812
0.064615391
-0.084021313
-0.065284798
-0.12395129
-0.31123339
-0.61134488
-0.93906425
-1.2184843
-1.4673907
-1.7387457
-1.9063625
-1.7968619
-1.4336085
-0.76101968
-0.17612778
0.14160858
0.28297466
0.3352649
0.3412467
0.32237923
0.29151303
0.25550303
0.2185626
0.1835019
0.15234314
0.12647811
0.10661752
0.092763032
0.084409811
0.080627367
0.080368534
0.082542854
0.086283134
0.090750697
0.095535011
0.10002474
0.10427113
0.10772114
0.1106132
0.11269273
-0.059951216
-0.15275872
-0.28714698
-0.37375302
-0.30326173
-0.12761485
0.024968998
0.010083008
0.065995974
-0.019299871
-0.047128351
-0.18428338
-0.43084885
-0.73231932
-1.0361933
-1.3572711
-1.740798
-2.1349577
-2.1706408
-1.9111326
-1.1692364
-0.43585773
0.0073666181
0.21081362
0.29612911
0.32117953
0.3140093
0.29020144
0.25804519
0.2226002
0.18724341
0.15452857
0.12638257
0.10402769
0.087924367
0.077782593
0.072858545
0.072083633
0.074332082
0.078513324
0.083802288
0.089426088
0.09504748
0.10012052
0.10475928
0.10845091
0.11148337
0.11362484
0.022220689
-0.034844076
-0.1431296
-0.27377183
-0.35426834
-0.28497706
-0.11557751
0.029513088
0.015320758
0.065515044
0.018803469
-0.077450968
-0.27632758
-0.54698597
-0.85711905
-1.2263039
-1.7083874
-2.2767141
-2.6093146
-2.4391979
-1.6485571
-0.75072304
-0.16068204
0.11902172
0.24385049
0.29204601
0.29919172
0.28429921
0.25752894
0.2247443
0.18993747
0.15614729
0.12586796
0.10091429
0.082258184
0.070025495
0.063644974
0.062107819
0.064248256
0.068879844
0.074939922
0.081659299
0.088339793
0.09471836
0.1003126
0.10529932
0.10920481
0.11236296
0.11455473
0.074662311
0.059655826
-0.0093611765
-0.12958241
-0.25509071
-0.32867075
-0.26327545
-0.10420653
0.032480182
0.018805847
0.063521747
0.010125265
-0.147164
-0.38503384
-0.68782064
-1.0837784
-1.6380452
-2.3873827
-2.9468704
-3.0921299
-2.1309852
-1.1229818
-0.36133428
0.0080853947
0.17840302
0.25360478
0.27758698
0.27360129
0.25374312
0.22493663
0.19163834
0.15737962
0.12519254
0.097546463
0.076042897
0.061297502
0.053053239
0.0504393
0.052225044
0.057146043
0.064020354
0.071820524
0.079847734
0.08748441
0.094539353
0.10059431
0.10588987
0.10998432
0.11325243
0.1154818
0.081437236
0.12155686
0.092677046
0.01580133
-0.11245433
-0.23200405
-0.29859437
-0.23970429
-0.093742046
0.033614246
0.020607576
0.060448839
-0.04164637
-0.24715313
-0.53300664
-0.93902845
-1.5405209
-2.4505535
-3.2840362
-3.7016998
-2.9632085
-1.5379388
-0.59208138
-0.12116999
0.10066477
0.20584498
0.24913433
0.25782531
0.24655557
0.22308007
0.19243585
0.1584507
0.12469235
0.094304584
0.069626284
0.051896547
0.041279304
0.037108871
0.03821677
0.043229582
0.050788964
0.059750509
0.069145197
0.078356584
0.08684817
0.094500917
0.10096222
0.10653421
0.11078941
0.11414597
0.11645031
0.042929679
0.13873433
0.1600704
0.12166018
0.039920264
-0.092343604
-0.20576907
-0.26572233
-0.21548844
-0.083404322
0.033614164
0.021346664
0.056406651
-0.1326345
-0.39596079
-0.79822894
-1.4337216
-2.4575806
-3.5700439
-4.3408464
-3.7126109
-2.0872493
-0.85029543
-0.2648737
0.01129403
0.14950247
0.21370248
0.23692409
0.23568061
0.2191082
0.19237019
0.15961613
0.1247589
0.091659249
0.063478609
0.042225849
0.028627663
0.022334825
0.022281644
0.027047484
0.035144377
0.045174931
0.056056504
0.066898906
0.077172504
0.086418551
0.094597361
0.10141797
0.10723155
0.11161079
0.11508491
0.11748328
-0.039319739
0.11019358
0.18363834
0.19140499
0.14668551
0.06244921
-0.06995552
-0.17785836
-0.23166531
-0.19070049
-0.073148012
0.03341522
0.021455234
0.051639781
-0.27807879
-0.66536051
-1.3166129
-2.3778318
-3.775116
-4.949652
-4.5668707
-2.7878164
-1.189089
-0.42424817
-0.086362006
0.084797992
0.17189609
0.21052477
0.22101242
0.21275921
0.19146671
0.1610835
0.1258233
0.090149796
0.058171705
0.032810229
0.015520074
0.006405334
0.0045905903
0.0086505614
0.01696472
0.027973763
0.040287789
0.052919598
0.065065818
0.076280218
0.086187958
0.094826351
0.10195864
0.10796171
0.11250442
0.11610026
0.11855291
-0.17882448
0.036300016
0.1621454
0.21833587
0.21628463
0.16781253
0.083005561
-0.046022547
-0.14955641
-0.19833164
-0.16594064
-0.063460774
0.032861558
0.021325006
0.046291908
-0.54550625
-1.1832014
-2.2310294
-3.8756573
-5.4778141
-5.4437864
-3.6049903
-1.659402
-0.62417594
-0.19441871
0.014460825
0.12330351
0.17910979
0.2019337
0.20385716
0.18956065
0.16302665
0.12828329
0.090372893
0.054360255
0.024281256
0.00249816
-0.010271445
-0.014593807
-0.011835951
-0.0037250568
0.0079786335
0.021701884
0.036106632
0.050324685
0.063629865
0.075658938
0.086142483
0.095179484
0.10256072
0.10880362
0.11351772
0.11715991
0.11965967
-0.43976771
-0.095715832
0.0954511
0.20162892
0.24433138
0.23545337
0.18519887
0.10141496
-0.021556082
-0.12150003
-0.16575911
-0.14401647
-0.053613559
0.031696794
0.020926999
0.040668875
-1.0563579
-2.059211
-3.8826258
-5.8718581
-6.2651595
-4.5098128
-2.2179822
-0.91658765
-0.32196511
-0.064274896
0.070497391
0.14149628
0.17875551
0.19167269
0.18644175
0.16545513
0.13252597
0.092913997
0.052773653
0.017363924
-0.0097914031
-0.02717318
-0.034901893
-0.034194931
-0.026847071
-0.014815471
7.5094302e-05
0.016305242
0.032620389
0.048256696
0.062561937
0.075283052
0.086248197
0.095633344
0.10336175
0.10982594
0.11457985
0.11826519
0.12080366
-0.93623279
-0.34538947
-0.029218074
0.14094598
0.23065435
0.2630676
0.24959118
0.19903891
0.11733978
0.001724427
-0.094015367
-0.13739898
-0.12238072
-0.044035422
0.030228985
0.020329225
0.03498695
-1.8949183
-3.8231057
-6.0917895
-6.9382353
-5.3914246
-2.8520551
-1.261946
-0.51338554
-0.15232745
0.0093011514
0.10051754
0.14952395
0.17626819
0.18147082
0.16820846
0.13877938
0.098387583
0.054150881
0.012868547
-0.020605819
-0.043680675
-0.055861232
-0.058114576
-0.052242781
-0.040381987
-0.024622855
-0.0067627961
0.011776205
0.029819205
0.046671774
0.061808294
0.075135082
0.086521387
0.096418358
0.10443102
0.1109052
0.11569595
0.11941551
0.12198492
-1.7538232
-0.81273506
-0.26653329
0.022976507
0.17461078
0.25097678
0.27562896
0.25925416
0.20946562
0.13116076
0.022601744
-0.071046049
-0.11029339
-0.10103224
-0.034604703
0.028622354
0.019944398
0.029530749
-3.6881958
-6.116613
-7.3810019
-6.1601757
-3.5402018
-1.6571567
-0.73888318
-0.28763921
-0.0548402
0.049757718
0.1173283
0.1552634
0.1743767
0.17091719
0.14709555
0.10723968
0.059286364
0.011634029
-0.029117644
-0.05908398
-0.076915866
-0.083195325
-0.079670963
-0.06862816
-0.052422184
-0.03315379
-0.012523846
0.0081144142
0.027641483
0.045478772
0.061328601
0.075213683
0.087347655
0.097579331
0.10556297
0.11205044
0.11686323
0.12061049
0.12320326
-3.4794798
-1.6126542
-0.70264933
-0.20261316
0.062113446
0.19822163
0.26409304
0.28319734
0.2652774
0.21733079
0.14205648
0.037380157
-0.050246658
-0.085479423
-0.080174202
-0.025998304
0.026746428
0.020009964
0.024433727
-5.9489478
-7.537653
-6.7248025
-4.2183327
-2.0897823
-0.99360087
-0.44637249
-0.15793183
0.00092238588
0.073200788
0.13158892
0.16297468
0.17295195
0.15747994
0.11992303
0.068805652
0.014594589
-0.034462754
-0.072599659
-0.097432778
-0.10897036
-0.10881915
-0.099390083
-0.083298184
-0.062954519
-0.040376653
-0.017197038
0.005243738
0.025942857
0.044616093
0.061172994
0.076099112
0.088659489
0.098810258
0.1067703
0.11325698
0.11808118
0.12184937
0.1244583
-5.614802
-3.2052916
-1.4655306
-0.60973724
-0.15290797
0.089988487
0.21362258
0.27181642
0.28711183
0.26887375
0.22187755
0.14931227
0.046381873
-0.030808374
-0.063773088
-0.060852972
-0.017887288
0.024509907
0.020011442
0.019823667
-7.3929295
-6.9990009
-4.7696227
-2.5179177
-1.2726431
-0.62369437
-0.2777585
-0.084632005
0.033975245
0.09463857
0.14939356
0.17290686
0.16913922
0.13674646
0.083583446
0.022551001
-0.035679165
-0.083407156
-0.11672411
-0.13491548
-0.13932491
-0.13244811
-0.11716575
-0.096208008
-0.071912877
-0.046255928
-0.020897275
0.0029488392
0.024629675
0.044201516
0.062264304
0.077637623
0.090053326
0.10012139
0.10804641
0.11452414
0.1193483
0.12313125
0.12574948
-6.9786187
-5.1534481
-2.884711
-1.3189951
-0.53259098
-0.11545727
0.1086353
0.22274987
0.27511135
0.28697431
0.26810814
0.22328928
0.15172885
0.055997592
-0.0137985
-0.044229085
-0.043571586
-0.010391103
0.022546228
0.019787372
0.015757927
-6.9404971
-5.0962749
-2.8799764
-1.557875
-0.81692694
-0.41156798
-0.18161809
-0.045477159
0.062763095
0.12343969
0.17130227
0.18189096
0.15702595
0.10406969
0.036209974
-0.031991524
-0.09060312
-0.13407282
-0.1604746
-0.17078981
-0.16754907
-0.15389687
-0.13290512
-0.10724297
-0.079226694
-0.050928452
-0.023923131
0.0010859601
0.0239191
0.045594087
0.064175182
0.079318549
0.091569066
0.10150681
0.10939127
0.11584964
0.12066299
0.12445503
0.12707615
-6.578072
-6.3666797
-4.6043324
-2.5669394
-1.1806398
-0.46905595
-0.088083292
0.11993601
0.22611337
0.27303817
0.28297167
0.26630851
0.2194492
0.15280574
0.065635344
0.0009251691
-0.02697411
-0.02829232
-0.0036562205
0.021091654
0.01940419
0.012397422
-5.1617154
-3.1195368
-1.8229022
-1.0155225
-0.55973785
-0.28953127
-0.13363318
-0.016099851
0.10024251
0.16033605
0.19421444
0.18187132
0.12985437
0.056387761
-0.022380883
-0.093475513
-0.14871283
-0.18507963
-0.20280668
-0.20442279
-0.19334432
-0.17300401
-0.14642697
-0.11628325
-0.085064435
-0.054801836
-0.02642998
1.6091337e-05
0.025752806
0.047987241
0.066197161
0.081088556
0.093152207
0.10297483
0.11080228
0.1172313
0.12202316
0.12581926
0.12843773
-4.9788391
-6.0047988
-5.6216529
-4.0368014
-2.2678949
-1.0554816
-0.41748764
-0.069287667
0.12432248
0.22288088
0.26698307
0.28055131
0.25994283
0.21506124
0.15143617
0.07282263
0.014036963
-0.012149153
-0.015209381
0.0022407311
0.020117229
0.019001945
0.0095295394
-3.2624857
-2.0389535
-1.2014033
-0.71474631
-0.41155115
-0.23212382
-0.10569101
0.026862963
0.14812404
0.20242099
0.20802335
0.16289303
0.083314975
-0.0062985684
-0.090969186
-0.16005984
-0.20816011
-0.23498151
-0.24281058
-0.23535707
-0.2164537
-0.18950046
-0.15754607
-0.12353109
-0.089969625
-0.058100169
-0.027864123
0.0024459763
0.028778666
0.05051821
0.068301974
0.082918752
0.094789115
0.10452378
0.11227653
0.11866658
0.12342669
0.12722271
0.12983347
-3.3053549
-4.5949098
-5.291294
-4.8292987
-3.4981832
-1.994638
-0.94659814
-0.37801279
-0.058533363
0.12169705
0.21561593
0.26530279
0.2736315
0.25306404
0.20893345
0.14878224
0.078067629
0.025313182
0.00035156894
-0.0042841566
0.0073684641
0.019452329
0.018519204
0.0071984635
-2.1459496
-1.3566155
-0.86388225
-0.54228846
-0.34685369
-0.21405413
-0.061895523
0.087922825
0.20686667
0.23728716
0.19901648
0.11868077
0.016783367
-0.082796444
-0.1671642
-0.22930929
-0.26696669
-0.28249271
-0.27980946
-0.26320577
-0.2364951
-0.20311643
-0.16650134
-0.12969418
-0.094238671
-0.060028116
-0.024630784
0.0062818826
0.031979846
0.053112922
0.070505215
0.084843771
0.096524406
0.1061442
0.11381073
0.12015266
0.1248738
0.12866322
0.13126223
-2.1420045
-3.1662251
-4.0813937
-4.5153285
-4.0547966
-2.9989295
-1.745135
-0.85641458
-0.34917821
-0.05404052
0.11554514
0.2158929
0.25924627
0.26605411
0.24423198
0.20157685
0.14495272
0.081668793
0.033302925
0.010683475
0.0047081286
0.011726028
0.019108096
0.017970055
0.0054029369
-1.4630177
-0.99335506
-0.6722511
-0.47502655
-0.35129602
-0.18099515
0.0069782173
0.16866245
0.26510229
0.24503523
0.15800498
0.048341929
-0.068074443
-0.17004708
-0.24780171
-0.29855784
-0.32333605
-0.3266352
-0.31324234
-0.28744415
-0.2530922
-0.21413094
-0.17419772
-0.13515502
-0.096768757
-0.05580006
-0.01978268
0.010345457
0.035214284
0.055803165
0.072804065
0.086856434
0.098345779
0.10783164
0.11540174
0.12169008
0.12636329
0.13013794
0.13272269
-1.5097768
-2.069017
-2.8596666
-3.5173151
-3.745764
-3.332809
-2.5215075
-1.5220335
-0.78177022
-0.32482983
-0.052104963
0.12042533
0.2126675
0.25265193
0.25636221
0.2340937
0.19289345
0.14011303
0.083593097
0.04057517
0.019022
0.011995583
0.015351467
0.018978467
0.017433872
0.0040285417
-1.0907831
-0.78566751
-0.61592919
-0.50583814
-0.33239166
-0.10370648
0.09874712
0.26382791
0.29304636
0.21077041
0.084329032
-0.046074108
-0.16752384
-0.26398716
-0.32934357
-0.36533483
-0.37587715
-0.36661398
-0.34240742
-0.30756642
-0.26656979
-0.22368618
-0.18112216
-0.13842879
-0.091326107
-0.049713971
-0.014638506
0.014396109
0.038542085
0.058585716
0.075192722
0.088955247
0.10024041
0.10958316
0.11705357
0.12327491
0.12789077
0.13164476
0.13421346
-1.145233
-1.4987364
-1.9287608
-2.4880844
-2.9564468
-3.0406767
-2.7088299
-2.089703
-1.3322218
-0.7112274
-0.30172386
-0.037249175
0.12449541
0.20918037
0.24373988
0.24519884
0.22255498
0.18320029
0.1343498
0.08412716
0.045969994
0.025607776
0.017775985
0.018283195
0.018953696
0.016894876
0.0030198712
-0.87508464
-0.75660679
-0.65108757
-0.510128
-0.26600295
-0.012154621
0.2263173
0.33694546
0.26962157
0.13523708
-0.019798229
-0.15988347
-0.27651841
-0.35998656
-0.40842347
-0.42769375
-0.42348163
-0.4015075
-0.36664643
-0.32395229
-0.2783561
-0.23239755
-0.18532238
-0.13152301
-0.083763926
-0.043238577
-0.0095720374
0.018534071
0.041956603
0.061463934
0.077670904
0.091135429
0.10220733
0.11140649
0.11876197
0.12489975
0.12945309
0.13318149
0.13573308
-0.93948447
-1.1562851
-1.4336176
-1.7356973
-2.1166336
-2.4436627
-2.4456681
-2.1934104
-1.7354182
-1.161263
-0.63830235
-0.26821987
-0.017040861
0.12826234
0.2033008
0.23334906
0.2325709
0.20994145
0.17264996
0.12786664
0.083392272
0.049695823
0.030633423
0.02222339
0.020553716
0.018954897
0.016323699
0.0023243775
-0.8814112
-0.8061005
-0.69427926
-0.46470065
-0.1770924
0.13940237
0.34905862
0.35671233
0.19883153
0.020368121
-0.14853344
-0.28684942
-0.38918049
-0.45350895
-0.48232757
-0.48411498
-0.46495786
-0.43048258
-0.38640889
-0.33837666
-0.28922687
-0.23774785
-0.1766871
-0.12221569
-0.075688129
-0.036926636
-0.0044276051
0.022748162
0.045466459
0.064434713
0.080234975
0.093395594
0.10426094
0.11329399
0.12051656
0.12656097
0.13104706
0.13474589
0.13727967
-0.96381816
-0.98310758
-1.1297673
-1.3195072
-1.5178372
-1.7626104
-1.9730725
-1.9632232
-1.7748379
-1.4506707
-0.99467673
-0.56707911
-0.21951769
0.0014537182
0.12960963
0.19600135
0.22145241
0.21882024
0.19648463
0.1615302
0.12085606
0.08168391
0.052001632
0.034245204
0.025495251
0.022189775
0.018896537
0.015713934
0.0018760991
-0.93948325
-0.86984349
-0.66456107
-0.33802431
0.020670395
0.32738863
0.41382731
0.30851346
0.08002778
-0.12632622
-0.29446613
-0.41956507
-0.49953227
-0.54079721
-0.54896819
-0.53307356
-0.49928093
-0.45408418
-0.4038898
-0.35181761
-0.29598949
-0.22709493
-0.16534685
-0.11223579
-0.067882284
-0.030550022
0.00077720048
0.02705429
0.049069369
0.067495389
0.082886306
0.095758876
0.1063896
0.11523177
0.12231242
0.12825501
0.13266953
0.13633513
0.13885085
-1.0373292
-0.98557489
-0.99617758
-1.0705566
-1.1746492
-1.2945882
-1.4418162
-1.5692824
-1.5713108
-1.4505254
-1.1982693
-0.85851929
-0.47421082
-0.17625707
0.017324315
0.12934307
0.18719267
0.20841525
0.20419841
0.18248399
0.15006606
0.11347787
0.079127858
0.05309788
0.036559855
0.027726893
0.023243842
0.018715581
0.015037288
0.0016225489
-1.0229991
-0.83534816
-0.48392587
-0.075127361
0.27760527
0.45531706
0.40370438
0.20265036
-0.07704066
-0.29611811
-0.44872639
-0.55018042
-0.6024197
-0.61900503
-0.60638568
-0.57332602
-0.52713783
-0.47501854
-0.42032538
-0.36028473
-0.28300352
-0.21341878
-0.15313036
-0.10265994
-0.060026037
-0.024135375
0.0060681889
0.031451534
0.05276456
0.070650851
0.085660177
0.098207652
0.10857509
0.11721442
0.12414511
0.12997841
0.13431704
0.13794575
0.14044455
-1.129706
-1.0836347
-0.96875304
-0.96108357
-0.9713456
-1.0118321
-1.0787484
-1.1634454
-1.2465006
-1.2625873
-1.1771842
-1.0060267
-0.71227678
-0.39417338
-0.1358483
0.030485599
0.1273921
0.17722944
0.19448267
0.18901977
0.16820925
0.13848861
0.10586576
0.075892814
0.053187024
0.03788974
0.029146784
0.023741573
0.018371272
0.014275662
0.00150499
-0.96751656
-0.62312254
-0.19466025
0.19339505
0.47480876
0.49453857
0.32078511
0.047677123
-0.26297697
-0.47832984
-0.60151036
-0.67158919
-0.69394157
-0.68566983
-0.65307203
-0.60576213
-0.55186646
-0.49485381
-0.43080079
-0.34461854
-0.26667712
-0.19860692
-0.14148326
-0.093049636
-0.052158913
-0.017643612
0.011446431
0.035941962
0.056562216
0.073952093
0.088530936
0.10071954
0.1108106
0.11923766
0.12601067
0.1317264
0.13598522
0.139575
0.14206063
-1.0535563
-1.1665814
-1.0804319
-0.90717986