/*--------------------------------*- C++ -*----------------------------------*\
| =========                 |                                                 |
| \\      /  F ield         | OpenFOAM: The Open Source CFD Toolbox           |
|  \\    /   O peration     | Version:  v2012                                 |
|   \\  /    A nd           | Website:  www.openfoam.com                      |
|    \\/     M anipulation  |                                                 |
\*---------------------------------------------------------------------------*/
FoamFile
{
    version     2.0;
    format      ascii;
    class       pointVectorField;
    location    "77.5099243080187534";
    object      pointDisplacement;
}
// * * * * * * * * * * * * * * * * * * * * * * * * * * * * * * * * * * * * * //

dimensions      [0 1 0 0 0 0 0];


internalField   nonuniform List<vector> 
18840
(
(-0.63282777 -0 -0)
(-0.63271078 0 0)
(-0.63236145 0 0)
(-0.63178283 0 0)
(-0.63097739 0 0)
(-0.62994707 0 0)
(-0.62869342 0 0)
(-0.62721763 0 0)
(-0.62552054 0 0)
(-0.6236027 0 0)
(-0.62146443 0 0)
(-0.6191058 0 0)
(-0.61652669 0 0)
(-0.61372681 0 0)
(-0.6107057 0 0)
(-0.60746278 0 0)
(-0.60399738 0 0)
(-0.60030885 0 0)
(-0.59639676 0 0)
(-0.59225878 0 0)
(-0.58703498 0 0)
(-0.63282777 -0 -0)
(-0.63271074 0 0)
(-0.63236136 0 0)
(-0.63178285 0 0)
(-0.63097782 0 0)
(-0.62994832 0 0)
(-0.62869603 0 0)
(-0.62722223 0 0)
(-0.62552791 0 0)
(-0.62361373 0 0)
(-0.6214801 0 0)
(-0.61912722 0 0)
(-0.61655506 0 0)
(-0.61376345 0 0)
(-0.61075202 0 0)
(-0.6075203 0 0)
(-0.60406768 0 0)
(-0.60039353 0 0)
(-0.59649725 0 0)
(-0.59237718 0 0)
(-0.58805832 0 0)
(-0.63282777 -0 -0)
(-0.63271052 0 0)
(-0.6323606 0 0)
(-0.63178141 0 0)
(-0.63097571 0 0)
(-0.62994572 0 0)
(-0.62869323 0 0)
(-0.62721968 0 0)
(-0.62552619 0 0)
(-0.62361357 0 0)
(-0.62148238 0 0)
(-0.61913295 0 0)
(-0.61656541 0 0)
(-0.61377972 0 0)
(-0.61077566 0 0)
(-0.60755289 0 0)
(-0.6041109 0 0)
(-0.60044911 0 0)
(-0.59656674 0 0)
(-0.59246275 0 0)
(-0.58810338 0 0)
(-0.63282777 -0 -0)
(-0.63271037 0 0)
(-0.63236009 0 0)
(-0.63178049 0 0)
(-0.63097449 0 0)
(-0.62994443 0 0)
(-0.62869226 0 0)
(-0.62721955 0 0)
(-0.62552755 0 0)
(-0.62361723 0 0)
(-0.62148929 0 0)
(-0.61914423 0 0)
(-0.61658233 0 0)
(-0.61380374 0 0)
(-0.6108084 0 0)
(-0.60759618 0 0)
(-0.60416678 0 0)
(-0.60051983 0 0)
(-0.59665488 0 0)
(-0.59257112 0 0)
(-0.58818264 0 0)
(-0.63282777 -0 -0)
(-0.63271028 0 0)
(-0.6323598 0 0)
(-0.63178005 0 0)
(-0.63097407 0 0)
(-0.62994435 0 0)
(-0.62869295 0 0)
(-0.62722157 0 0)
(-0.6255316 0 0)
(-0.62362414 0 0)
(-0.62150004 0 0)
(-0.61915998 0 0)
(-0.61660441 0 0)
(-0.61383364 0 0)
(-0.61084785 0 0)
(-0.60764711 0 0)
(-0.6042314 0 0)
(-0.60060067 0 0)
(-0.59675485 0 0)
(-0.59269348 0 0)
(-0.58828361 0 0)
(-0.63282777 -0 -0)
(-0.63271024 0 0)
(-0.63235971 0 0)
(-0.63178005 0 0)
(-0.63097441 0 0)
(-0.62994539 0 0)
(-0.62869516 0 0)
(-0.62722553 0 0)
(-0.62553801 0 0)
(-0.62363382 0 0)
(-0.62151397 0 0)
(-0.61917927 0 0)
(-0.61663034 0 0)
(-0.61386769 0 0)
(-0.61089169 0 0)
(-0.60770265 0 0)
(-0.6043008 0 0)
(-0.6006864 0 0)
(-0.59685973 0 0)
(-0.59282067 0 0)
(-0.58839518 0 0)
(-0.63282777 -0 -0)
(-0.63271025 0 0)
(-0.63235982 0 0)
(-0.63178047 0 0)
(-0.63097546 0 0)
(-0.62994749 0 0)
(-0.62869879 0 0)
(-0.62723127 0 0)
(-0.62554652 0 0)
(-0.62364589 0 0)
(-0.62153049 0 0)
(-0.61920128 0 0)
(-0.61665902 0 0)
(-0.61390439 0 0)
(-0.61093792 0 0)
(-0.60776015 0 0)
(-0.60437152 0 0)
(-0.60077257 0 0)
(-0.59696384 0 0)
(-0.59294558 0 0)
(-0.58850915 0 0)
(-0.63282777 -0 -0)
(-0.63271031 0 0)
(-0.63236012 0 0)
(-0.6317813 0 0)
(-0.63097721 0 0)
(-0.62995059 0 0)
(-0.62870375 0 0)
(-0.62723865 0 0)
(-0.62555695 0 0)
(-0.62366006 0 0)
(-0.62154921 0 0)
(-0.61922544 0 0)
(-0.61668964 0 0)
(-0.61394261 0 0)
(-0.61098504 0 0)
(-0.60781762 0 0)
(-0.60444101 0 0)
(-0.60085591 0 0)
(-0.59706315 0 0)
(-0.59306323 0 0)
(-0.58862 0 0)
(-0.63282777 -0 -0)
(-0.63271041 0 0)
(-0.63236059 0 0)
(-0.63178251 0 0)
(-0.6309796 0 0)
(-0.62995465 0 0)
(-0.62870999 0 0)
(-0.62724762 0 0)
(-0.62556922 0 0)
(-0.62367623 0 0)
(-0.62156995 0 0)
(-0.61925149 0 0)
(-0.61672182 0 0)
(-0.61398183 0 0)
(-0.61103233 0 0)
(-0.60787411 0 0)
(-0.604508 0 0)
(-0.60093482 0 0)
(-0.59715559 0 0)
(-0.59317111 0 0)
(-0.58872477 0 0)
(-0.63282777 -0 -0)
(-0.63271056 0 0)
(-0.63236125 0 0)
(-0.6317841 0 0)
(-0.63098262 0 0)
(-0.62995963 0 0)
(-0.62871747 0 0)
(-0.62725813 0 0)
(-0.62558329 0 0)
(-0.62369441 0 0)
(-0.62159276 0 0)
(-0.6192795 0 0)
(-0.61675565 0 0)
(-0.61402213 0 0)
(-0.61107983 0 0)
(-0.60792962 0 0)
(-0.60457239 0 0)
(-0.60100911 0 0)
(-0.59724083 0 0)
(-0.5932687 0 0)
(-0.58882274 0 0)
(-0.63282777 -0 -0)
(-0.63271052 0 0)
(-0.63236114 0 0)
(-0.63178403 0 0)
(-0.63098276 0 0)
(-0.62996019 0 0)
(-0.62871871 0 0)
(-0.6272603 0 0)
(-0.62558662 0 0)
(-0.62369911 0 0)
(-0.62159902 0 0)
(-0.6192875 0 0)
(-0.61676558 0 0)
(-0.61403422 0 0)
(-0.61109431 0 0)
(-0.60794678 0 0)
(-0.60459254 0 0)
(-0.60103264 0 0)
(-0.59726819 0 0)
(-0.59330054 0 0)
(-0.58885528 0 0)
(-0.63282777 -0 -0)
(-0.63271078 0 0)
(-0.63236145 0 0)
(-0.63178283 0 0)
(-0.63097739 0 0)
(-0.62994707 0 0)
(-0.62869342 0 0)
(-0.62721763 0 0)
(-0.62552054 0 0)
(-0.6236027 0 0)
(-0.62146443 0 0)
(-0.6191058 0 0)
(-0.61652669 0 0)
(-0.61372681 0 0)
(-0.6107057 0 0)
(-0.60746278 0 0)
(-0.60399738 0 0)
(-0.60030885 0 0)
(-0.59639676 0 0)
(-0.59225878 0 0)
(-0.58703498 0 0)
(-0.63282777 -0 -0)
(-0.63271074 0 0)
(-0.63236136 0 0)
(-0.63178285 0 0)
(-0.63097782 0 0)
(-0.62994832 0 0)
(-0.62869603 0 0)
(-0.62722223 0 0)
(-0.62552791 0 0)
(-0.62361373 0 0)
(-0.6214801 0 0)
(-0.61912722 0 0)
(-0.61655506 0 0)
(-0.61376345 0 0)
(-0.61075202 0 0)
(-0.6075203 0 0)
(-0.60406768 0 0)
(-0.60039353 0 0)
(-0.59649725 0 0)
(-0.59237718 0 0)
(-0.58805832 0 0)
(-0.63282777 -0 -0)
(-0.63271052 0 0)
(-0.6323606 0 0)
(-0.63178141 0 0)
(-0.63097571 0 0)
(-0.62994572 0 0)
(-0.62869323 0 0)
(-0.62721968 0 0)
(-0.62552619 0 0)
(-0.62361357 0 0)
(-0.62148238 0 0)
(-0.61913295 0 0)
(-0.61656541 0 0)
(-0.61377972 0 0)
(-0.61077566 0 0)
(-0.60755289 0 0)
(-0.6041109 0 0)
(-0.60044911 0 0)
(-0.59656674 0 0)
(-0.59246275 0 0)
(-0.58810338 0 0)
(-0.63282777 -0 -0)
(-0.63271037 0 0)
(-0.63236009 0 0)
(-0.63178049 0 0)
(-0.63097449 0 0)
(-0.62994443 0 0)
(-0.62869226 0 0)
(-0.62721955 0 0)
(-0.62552755 0 0)
(-0.62361723 0 0)
(-0.62148929 0 0)
(-0.61914423 0 0)
(-0.61658233 0 0)
(-0.61380374 0 0)
(-0.6108084 0 0)
(-0.60759618 0 0)
(-0.60416678 0 0)
(-0.60051983 0 0)
(-0.59665488 0 0)
(-0.59257112 0 0)
(-0.58818264 0 0)
(-0.63282777 -0 -0)
(-0.63271028 0 0)
(-0.6323598 0 0)
(-0.63178005 0 0)
(-0.63097407 0 0)
(-0.62994435 0 0)
(-0.62869295 0 0)
(-0.62722157 0 0)
(-0.6255316 0 0)
(-0.62362414 0 0)
(-0.62150004 0 0)
(-0.61915998 0 0)
(-0.61660441 0 0)
(-0.61383364 0 0)
(-0.61084785 0 0)
(-0.60764711 0 0)
(-0.6042314 0 0)
(-0.60060067 0 0)
(-0.59675485 0 0)
(-0.59269348 0 0)
(-0.58828361 0 0)
(-0.63282777 -0 -0)
(-0.63271024 0 0)
(-0.63235971 0 0)
(-0.63178005 0 0)
(-0.63097441 0 0)
(-0.62994539 0 0)
(-0.62869516 0 0)
(-0.62722553 0 0)
(-0.62553801 0 0)
(-0.62363382 0 0)
(-0.62151397 0 0)
(-0.61917927 0 0)
(-0.61663034 0 0)
(-0.61386769 0 0)
(-0.61089169 0 0)
(-0.60770265 0 0)
(-0.6043008 0 0)
(-0.6006864 0 0)
(-0.59685973 0 0)
(-0.59282067 0 0)
(-0.58839518 0 0)
(-0.63282777 -0 -0)
(-0.63271025 0 0)
(-0.63235982 0 0)
(-0.63178047 0 0)
(-0.63097546 0 0)
(-0.62994749 0 0)
(-0.62869879 0 0)
(-0.62723127 0 0)
(-0.62554652 0 0)
(-0.62364589 0 0)
(-0.62153049 0 0)
(-0.61920128 0 0)
(-0.61665902 0 0)
(-0.61390439 0 0)
(-0.61093792 0 0)
(-0.60776015 0 0)
(-0.60437152 0 0)
(-0.60077257 0 0)
(-0.59696384 0 0)
(-0.59294558 0 0)
(-0.58850915 0 0)
(-0.63282777 -0 -0)
(-0.63271031 0 0)
(-0.63236012 0 0)
(-0.6317813 0 0)
(-0.63097721 0 0)
(-0.62995059 0 0)
(-0.62870375 0 0)
(-0.62723865 0 0)
(-0.62555695 0 0)
(-0.62366006 0 0)
(-0.62154921 0 0)
(-0.61922544 0 0)
(-0.61668964 0 0)
(-0.61394261 0 0)
(-0.61098504 0 0)
(-0.60781762 0 0)
(-0.60444101 0 0)
(-0.60085591 0 0)
(-0.59706315 0 0)
(-0.59306323 0 0)
(-0.58862 0 0)
(-0.63282777 -0 -0)
(-0.63271041 0 0)
(-0.63236059 0 0)
(-0.63178251 0 0)
(-0.6309796 0 0)
(-0.62995465 0 0)
(-0.62870999 0 0)
(-0.62724762 0 0)
(-0.62556922 0 0)
(-0.62367623 0 0)
(-0.62156995 0 0)
(-0.61925149 0 0)
(-0.61672182 0 0)
(-0.61398183 0 0)
(-0.61103233 0 0)
(-0.60787411 0 0)
(-0.604508 0 0)
(-0.60093482 0 0)
(-0.59715559 0 0)
(-0.59317111 0 0)
(-0.58872477 0 0)
(-0.63282777 -0 -0)
(-0.63271056 0 0)
(-0.63236125 0 0)
(-0.6317841 0 0)
(-0.63098262 0 0)
(-0.62995963 0 0)
(-0.62871747 0 0)
(-0.62725813 0 0)
(-0.62558329 0 0)
(-0.62369441 0 0)
(-0.62159276 0 0)
(-0.6192795 0 0)
(-0.61675565 0 0)
(-0.61402213 0 0)
(-0.61107983 0 0)
(-0.60792962 0 0)
(-0.60457239 0 0)
(-0.60100911 0 0)
(-0.59724083 0 0)
(-0.5932687 0 0)
(-0.58882274 0 0)
(-0.63282777 -0 -0)
(-0.63271052 0 0)
(-0.63236114 0 0)
(-0.63178403 0 0)
(-0.63098276 0 0)
(-0.62996019 0 0)
(-0.62871871 0 0)
(-0.6272603 0 0)
(-0.62558662 0 0)
(-0.62369911 0 0)
(-0.62159902 0 0)
(-0.6192875 0 0)
(-0.61676558 0 0)
(-0.61403422 0 0)
(-0.61109431 0 0)
(-0.60794678 0 0)
(-0.60459254 0 0)
(-0.60103264 0 0)
(-0.59726819 0 0)
(-0.59330054 0 0)
(-0.58885528 0 0)
(-0.63282777 -0 -0)
(-0.63270849 0 0)
(-0.632352 0 0)
(-0.63176084 0 0)
(-0.63093694 0 0)
(-0.6298818 0 0)
(-0.62859656 0 0)
(-0.62708207 0 0)
(-0.62533899 0 0)
(-0.62336774 0 0)
(-0.62116865 0 0)
(-0.61874194 0 0)
(-0.61608777 0 0)
(-0.61320627 0 0)
(-0.61009756 0 0)
(-0.60676174 0 0)
(-0.60319894 0 0)
(-0.5994093 0 0)
(-0.59539301 0 0)
(-0.59114745 0 0)
(-0.58629646 0 0)
(-0.63282777 -0 -0)
(-0.63270864 0 0)
(-0.63235265 0 0)
(-0.63176236 0 0)
(-0.63093976 0 0)
(-0.62988635 0 0)
(-0.6286033 0 0)
(-0.62709149 0 0)
(-0.62535159 0 0)
(-0.62338404 0 0)
(-0.62118914 0 0)
(-0.61876712 0 0)
(-0.6161181 0 0)
(-0.61324217 0 0)
(-0.61013938 0 0)
(-0.60680978 0 0)
(-0.6032534 0 0)
(-0.59947032 0 0)
(-0.59546057 0 0)
(-0.59122151 0 0)
(-0.58638015 0 0)
(-0.63282777 -0 -0)
(-0.63270863 0 0)
(-0.63235265 0 0)
(-0.63176248 0 0)
(-0.63094015 0 0)
(-0.62988722 0 0)
(-0.6286049 0 0)
(-0.62709412 0 0)
(-0.62535555 0 0)
(-0.62338967 0 0)
(-0.62119678 0 0)
(-0.61877709 0 0)
(-0.6161307 0 0)
(-0.61325767 0 0)
(-0.61015798 0 0)
(-0.60683161 0 0)
(-0.60327849 0 0)
(-0.59949861 0 0)
(-0.59549186 0 0)
(-0.59125557 0 0)
(-0.58642976 0 0)
(-0.63282777 -0 -0)
(-0.63270869 0 0)
(-0.63235295 0 0)
(-0.63176324 0 0)
(-0.63094166 0 0)
(-0.62988981 0 0)
(-0.62860895 0 0)
(-0.62710004 0 0)
(-0.62536377 0 0)
(-0.62340062 0 0)
(-0.62121088 0 0)
(-0.61879475 0 0)
(-0.6161523 0 0)
(-0.61328351 0 0)
(-0.61018828 0 0)
(-0.60686653 0 0)
(-0.60331807 0 0)
(-0.59954271 0 0)
(-0.5955402 0 0)
(-0.59130792 0 0)
(-0.5865068 0 0)
(-0.63282777 -0 -0)
(-0.63270883 0 0)
(-0.63235352 0 0)
(-0.6317646 0 0)
(-0.63094423 0 0)
(-0.62989405 0 0)
(-0.62861536 0 0)
(-0.62710915 0 0)
(-0.62537611 0 0)
(-0.62341672 0 0)
(-0.62123128 0 0)
(-0.61881992 0 0)
(-0.61618269 0 0)
(-0.61331946 0 0)
(-0.61023011 0 0)
(-0.60691437 0 0)
(-0.60337201 0 0)
(-0.59960252 0 0)
(-0.59560564 0 0)
(-0.59137854 0 0)
(-0.58661106 0 0)
(-0.63282777 -0 -0)
(-0.63270903 0 0)
(-0.63235433 0 0)
(-0.63176651 0 0)
(-0.63094776 0 0)
(-0.62989979 0 0)
(-0.6286239 0 0)
(-0.62712112 0 0)
(-0.62539214 0 0)
(-0.62343745 0 0)
(-0.6212573 0 0)
(-0.6188518 0 0)
(-0.61622093 0 0)
(-0.6133645 0 0)
(-0.61028229 0 0)
(-0.6069739 0 0)
(-0.60343891 0 0)
(-0.59967669 0 0)
(-0.59568671 0 0)
(-0.59146617 0 0)
(-0.58674106 0 0)
(-0.63282777 -0 -0)
(-0.63270928 0 0)
(-0.63235538 0 0)
(-0.63176893 0 0)
(-0.63095219 0 0)
(-0.62990689 0 0)
(-0.62863439 0 0)
(-0.62713571 0 0)
(-0.62541155 0 0)
(-0.62346239 0 0)
(-0.62128847 0 0)
(-0.61888987 0 0)
(-0.61626648 0 0)
(-0.61341807 0 0)
(-0.61034426 0 0)
(-0.6070446 0 0)
(-0.60351844 0 0)
(-0.59976505 0 0)
(-0.59578355 0 0)
(-0.59157135 0 0)
(-0.58689767 0 0)
(-0.63282777 -0 -0)
(-0.6327096 0 0)
(-0.63235667 0 0)
(-0.63177189 0 0)
(-0.63095756 0 0)
(-0.62991545 0 0)
(-0.62864696 0 0)
(-0.62715311 0 0)
(-0.62543464 0 0)
(-0.62349202 0 0)
(-0.62132546 0 0)
(-0.61893502 0 0)
(-0.61632053 0 0)
(-0.61348171 0 0)
(-0.6104181 0 0)
(-0.60712909 0 0)
(-0.60361394 0 0)
(-0.59987172 0 0)
(-0.59590139 0 0)
(-0.59170033 0 0)
(-0.58708758 0 0)
(-0.63282777 -0 -0)
(-0.63270998 0 0)
(-0.63235822 0 0)
(-0.63177544 0 0)
(-0.63096399 0 0)
(-0.62992567 0 0)
(-0.62866191 0 0)
(-0.62717379 0 0)
(-0.62546205 0 0)
(-0.62352717 0 0)
(-0.62136936 0 0)
(-0.61898866 0 0)
(-0.61638488 0 0)
(-0.61355769 0 0)
(-0.61050657 0 0)
(-0.60723087 0 0)
(-0.60372976 0 0)
(-0.60000227 0 0)
(-0.59604721 0 0)
(-0.59186215 0 0)
(-0.58732115 0 0)
(-0.63282777 -0 -0)
(-0.63271044 0 0)
(-0.63236008 0 0)
(-0.63177965 0 0)
(-0.63097156 0 0)
(-0.62993766 0 0)
(-0.62867943 0 0)
(-0.62719798 0 0)
(-0.62549409 0 0)
(-0.62356825 0 0)
(-0.62142071 0 0)
(-0.6190515 0 0)
(-0.61646045 0 0)
(-0.6136472 0 0)
(-0.61061125 0 0)
(-0.60735195 0 0)
(-0.60386851 0 0)
(-0.60016009 0 0)
(-0.59622586 0 0)
(-0.59206349 0 0)
(-0.58760809 0 0)
(-0.63282777 -0 -0)
(-0.63270849 0 0)
(-0.632352 0 0)
(-0.63176084 0 0)
(-0.63093694 0 0)
(-0.6298818 0 0)
(-0.62859656 0 0)
(-0.62708207 0 0)
(-0.62533899 0 0)
(-0.62336774 0 0)
(-0.62116865 0 0)
(-0.61874194 0 0)
(-0.61608777 0 0)
(-0.61320627 0 0)
(-0.61009756 0 0)
(-0.60676174 0 0)
(-0.60319894 0 0)
(-0.5994093 0 0)
(-0.59539301 0 0)
(-0.59114745 0 0)
(-0.58629646 0 0)
(-0.63282777 -0 -0)
(-0.63270864 0 0)
(-0.63235265 0 0)
(-0.63176236 0 0)
(-0.63093976 0 0)
(-0.62988635 0 0)
(-0.6286033 0 0)
(-0.62709149 0 0)
(-0.62535159 0 0)
(-0.62338404 0 0)
(-0.62118914 0 0)
(-0.61876712 0 0)
(-0.6161181 0 0)
(-0.61324217 0 0)
(-0.61013938 0 0)
(-0.60680978 0 0)
(-0.6032534 0 0)
(-0.59947032 0 0)
(-0.59546057 0 0)
(-0.59122151 0 0)
(-0.58638015 0 0)
(-0.63282777 -0 -0)
(-0.63270863 0 0)
(-0.63235265 0 0)
(-0.63176248 0 0)
(-0.63094015 0 0)
(-0.62988722 0 0)
(-0.6286049 0 0)
(-0.62709412 0 0)
(-0.62535555 0 0)
(-0.62338967 0 0)
(-0.62119678 0 0)
(-0.61877709 0 0)
(-0.6161307 0 0)
(-0.61325767 0 0)
(-0.61015798 0 0)
(-0.60683161 0 0)
(-0.60327849 0 0)
(-0.59949861 0 0)
(-0.59549186 0 0)
(-0.59125557 0 0)
(-0.58642976 0 0)
(-0.63282777 -0 -0)
(-0.63270869 0 0)
(-0.63235295 0 0)
(-0.63176324 0 0)
(-0.63094166 0 0)
(-0.62988981 0 0)
(-0.62860895 0 0)
(-0.62710004 0 0)
(-0.62536377 0 0)
(-0.62340062 0 0)
(-0.62121088 0 0)
(-0.61879475 0 0)
(-0.6161523 0 0)
(-0.61328351 0 0)
(-0.61018828 0 0)
(-0.60686653 0 0)
(-0.60331807 0 0)
(-0.59954271 0 0)
(-0.5955402 0 0)
(-0.59130792 0 0)
(-0.5865068 0 0)
(-0.63282777 -0 -0)
(-0.63270883 0 0)
(-0.63235352 0 0)
(-0.6317646 0 0)
(-0.63094423 0 0)
(-0.62989405 0 0)
(-0.62861536 0 0)
(-0.62710915 0 0)
(-0.62537611 0 0)
(-0.62341672 0 0)
(-0.62123128 0 0)
(-0.61881992 0 0)
(-0.61618269 0 0)
(-0.61331946 0 0)
(-0.61023011 0 0)
(-0.60691437 0 0)
(-0.60337201 0 0)
(-0.59960252 0 0)
(-0.59560564 0 0)
(-0.59137854 0 0)
(-0.58661106 0 0)
(-0.63282777 -0 -0)
(-0.63270903 0 0)
(-0.63235433 0 0)
(-0.63176651 0 0)
(-0.63094776 0 0)
(-0.62989979 0 0)
(-0.6286239 0 0)
(-0.62712112 0 0)
(-0.62539214 0 0)
(-0.62343745 0 0)
(-0.6212573 0 0)
(-0.6188518 0 0)
(-0.61622093 0 0)
(-0.6133645 0 0)
(-0.61028229 0 0)
(-0.6069739 0 0)
(-0.60343891 0 0)
(-0.59967669 0 0)
(-0.59568671 0 0)
(-0.59146617 0 0)
(-0.58674106 0 0)
(-0.63282777 -0 -0)
(-0.63270928 0 0)
(-0.63235538 0 0)
(-0.63176893 0 0)
(-0.63095219 0 0)
(-0.62990689 0 0)
(-0.62863439 0 0)
(-0.62713571 0 0)
(-0.62541155 0 0)
(-0.62346239 0 0)
(-0.62128847 0 0)
(-0.61888987 0 0)
(-0.61626648 0 0)
(-0.61341807 0 0)
(-0.61034426 0 0)
(-0.6070446 0 0)
(-0.60351844 0 0)
(-0.59976505 0 0)
(-0.59578355 0 0)
(-0.59157135 0 0)
(-0.58689767 0 0)
(-0.63282777 -0 -0)
(-0.6327096 0 0)
(-0.63235667 0 0)
(-0.63177189 0 0)
(-0.63095756 0 0)
(-0.62991545 0 0)
(-0.62864696 0 0)
(-0.62715311 0 0)
(-0.62543464 0 0)
(-0.62349202 0 0)
(-0.62132546 0 0)
(-0.61893502 0 0)
(-0.61632053 0 0)
(-0.61348171 0 0)
(-0.6104181 0 0)
(-0.60712909 0 0)
(-0.60361394 0 0)
(-0.59987172 0 0)
(-0.59590139 0 0)
(-0.59170033 0 0)
(-0.58708758 0 0)
(-0.63282777 -0 -0)
(-0.63270998 0 0)
(-0.63235822 0 0)
(-0.63177544 0 0)
(-0.63096399 0 0)
(-0.62992567 0 0)
(-0.62866191 0 0)
(-0.62717379 0 0)
(-0.62546205 0 0)
(-0.62352717 0 0)
(-0.62136936 0 0)
(-0.61898866 0 0)
(-0.61638488 0 0)
(-0.61355769 0 0)
(-0.61050657 0 0)
(-0.60723087 0 0)
(-0.60372976 0 0)
(-0.60000227 0 0)
(-0.59604721 0 0)
(-0.59186215 0 0)
(-0.58732115 0 0)
(-0.63282777 -0 -0)
(-0.63271044 0 0)
(-0.63236008 0 0)
(-0.63177965 0 0)
(-0.63097156 0 0)
(-0.62993766 0 0)
(-0.62867943 0 0)
(-0.62719798 0 0)
(-0.62549409 0 0)
(-0.62356825 0 0)
(-0.62142071 0 0)
(-0.6190515 0 0)
(-0.61646045 0 0)
(-0.6136472 0 0)
(-0.61061125 0 0)
(-0.60735195 0 0)
(-0.60386851 0 0)
(-0.60016009 0 0)
(-0.59622586 0 0)
(-0.59206349 0 0)
(-0.58760809 0 0)
(-0.58036328 0 0)
(-0.57370388 0 0)
(-0.56670216 0 0)
(-0.55937193 0 0)
(-0.55172387 0 0)
(-0.54377165 0 0)
(-0.53553492 0 0)
(-0.52703618 0 0)
(-0.51829813 0 0)
(-0.50934048 0 0)
(-0.50018036 0 0)
(-0.49083339 0 0)
(-0.48131815 0 0)
(-0.47165642 0 0)
(-0.46186772 0 0)
(-0.45196124 0 0)
(-0.44194109 0 0)
(-0.43181325 0 0)
(-0.42158685 0 0)
(-0.41126853 0 0)
(-0.40085891 0 0)
(-0.3903723 0 0)
(-0.37981593 0 0)
(-0.36918217 0 0)
(-0.35845759 0 0)
(-0.34764084 0 0)
(-0.33674276 0 0)
(-0.32576 0 0)
(-0.31466154 0 0)
(-0.30342565 0 0)
(-0.29206006 0 0)
(-0.2805444 0 0)
(-0.26884061 0 0)
(-0.25696017 0 0)
(-0.24490238 0 0)
(-0.23258992 0 0)
(-0.21998376 0 0)
(-0.20713215 0 0)
(-0.19397668 0 0)
(-0.18037228 0 0)
(-0.16625918 0 0)
(-0.15158297 0 0)
(-0.13626001 0 0)
(-0.12018178 0 0)
(-0.10319901 0 0)
(-0.085178507 0 0)
(-0.066041072 0 0)
(-0.045664528 0 0)
(-0.023723535 0 0)
(0 0 0)
(-0.58046351 0 0)
(-0.57382308 0 0)
(-0.56683825 0 0)
(-0.55952205 0 0)
(-0.55188451 0 0)
(-0.54393844 0 0)
(-0.53570276 0 0)
(-0.52720176 0 0)
(-0.51845912 0 0)
(-0.50949508 0 0)
(-0.50032676 0 0)
(-0.49096984 0 0)
(-0.48144292 0 0)
(-0.47176865 0 0)
(-0.4619676 0 0)
(-0.45204938 0 0)
(-0.44201772 0 0)
(-0.43187875 0 0)
(-0.42164167 0 0)
(-0.41131221 0 0)
(-0.40089286 0 0)
(-0.39039788 0 0)
(-0.37983328 0 0)
(-0.36919145 0 0)
(-0.35845967 0 0)
(-0.34763589 0 0)
(-0.33673055 0 0)
(-0.32574095 0 0)
(-0.31463701 0 0)
(-0.30339655 0 0)
(-0.29202727 0 0)
(-0.28050921 0 0)
(-0.26880236 0 0)
(-0.25691968 0 0)
(-0.24486024 0 0)
(-0.23254688 0 0)
(-0.21993921 0 0)
(-0.20708706 0 0)
(-0.19393381 0 0)
(-0.18033262 0 0)
(-0.16622272 0 0)
(-0.15154929 0 0)
(-0.13622871 0 0)
(-0.12015137 0 0)
(-0.10317143 0 0)
(-0.085157085 0 0)
(-0.066025549 0 0)
(-0.045653895 0 0)
(-0.023717897 0 0)
(0 0 0)
(-0.58055349 0 0)
(-0.57396347 0 0)
(-0.56702483 0 0)
(-0.5597497 0 0)
(-0.5521473 0 0)
(-0.54422955 0 0)
(-0.53601551 0 0)
(-0.52753069 0 0)
(-0.51879978 0 0)
(-0.50984327 0 0)
(-0.50067844 0 0)
(-0.49132122 0 0)
(-0.48179073 0 0)
(-0.47211024 0 0)
(-0.46230112 0 0)
(-0.45237394 0 0)
(-0.44233257 0 0)
(-0.43218291 0 0)
(-0.42193382 0 0)
(-0.41159136 0 0)
(-0.40115972 0 0)
(-0.39065222 0 0)
(-0.38007476 0 0)
(-0.36942042 0 0)
(-0.35867645 0 0)
(-0.34783958 0 0)
(-0.33692077 0 0)
(-0.32591871 0 0)
(-0.31480335 0 0)
(-0.30355147 0 0)
(-0.29217168 0 0)
(-0.28064507 0 0)
(-0.26892819 0 0)
(-0.25703576 0 0)
(-0.24496793 0 0)
(-0.23264671 0 0)
(-0.22002982 0 0)
(-0.2071691 0 0)
(-0.19400982 0 0)
(-0.18040297 0 0)
(-0.16628711 0 0)
(-0.151608 0 0)
(-0.13628148 0 0)
(-0.12019535 0 0)
(-0.10320768 0 0)
(-0.08518885 0 0)
(-0.066052088 0 0)
(-0.045672807 0 0)
(-0.023727615 0 0)
(0 0 0)
(-0.5806955 0 0)
(-0.57418709 0 0)
(-0.56732378 0 0)
(-0.56011623 0 0)
(-0.55257278 0 0)
(-0.54470481 0 0)
(-0.53653206 0 0)
(-0.52808092 0 0)
(-0.51937693 0 0)
(-0.51044086 0 0)
(-0.50128988 0 0)
(-0.49194042 0 0)
(-0.48241253 0 0)
(-0.47273034 0 0)
(-0.46291587 0 0)
(-0.4529805 0 0)
(-0.44292861 0 0)
(-0.43276641 0 0)
(-0.42250249 0 0)
(-0.41214284 0 0)
(-0.40169383 0 0)
(-0.39116826 0 0)
(-0.38057151 0 0)
(-0.36989757 0 0)
(-0.35913415 0 0)
(-0.34827692 0 0)
(-0.33733713 0 0)
(-0.32631474 0 0)
(-0.31518 0 0)
(-0.30390886 0 0)
(-0.29251066 0 0)
(-0.28096718 0 0)
(-0.2692323 0 0)
(-0.25732209 0 0)
(-0.24523722 0 0)
(-0.23289938 0 0)
(-0.22026517 0 0)
(-0.20738746 0 0)
(-0.19421231 0 0)
(-0.18058963 0 0)
(-0.16645826 0 0)
(-0.15176458 0 0)
(-0.13642275 0 0)
(-0.12031746 0 0)
(-0.1033111 0 0)
(-0.085276312 0 0)
(-0.066122461 0 0)
(-0.04572246 0 0)
(-0.023753329 0 0)
(0 0 0)
(-0.58088876 0 0)
(-0.57449273 0 0)
(-0.56773349 0 0)
(-0.56061983 0 0)
(-0.55315899 0 0)
(-0.54536234 0 0)
(-0.53725094 0 0)
(-0.52885159 0 0)
(-0.52019029 0 0)
(-0.51128777 0 0)
(-0.50216143 0 0)
(-0.49282828 0 0)
(-0.48330942 0 0)
(-0.47363004 0 0)
(-0.46381275 0 0)
(-0.4538701 0 0)
(-0.44380716 0 0)
(-0.43363029 0 0)
(-0.42334824 0 0)
(-0.41296764 0 0)
(-0.40249614 0 0)
(-0.39194606 0 0)
(-0.38132353 0 0)
(-0.37062337 0 0)
(-0.35983297 0 0)
(-0.34894745 0 0)
(-0.33797908 0 0)
(-0.32692892 0 0)
(-0.31576674 0 0)
(-0.30446779 0 0)
(-0.29304295 0 0)
(-0.28147483 0 0)
(-0.2697137 0 0)
(-0.25777726 0 0)
(-0.24566738 0 0)
(-0.23330435 0 0)
(-0.22064373 0 0)
(-0.20774022 0 0)
(-0.19454026 0 0)
(-0.18089196 0 0)
(-0.16673513 0 0)
(-0.15201784 0 0)
(-0.13665173 0 0)
(-0.120517 0 0)
(-0.1034808 0 0)
(-0.085418819 0 0)
(-0.066236207 0 0)
(-0.045802525 0 0)
(-0.023794889 0 0)
(0 0 0)
(-0.58113172 0 0)
(-0.57487823 0 0)
(-0.56825161 0 0)
(-0.561258 0 0)
(-0.55390403 0 0)
(-0.5462016 0 0)
(-0.53817226 0 0)
(-0.52984316 0 0)
(-0.52124037 0 0)
(-0.51238519 0 0)
(-0.50329478 0 0)
(-0.49398655 0 0)
(-0.48448317 0 0)
(-0.47481116 0 0)
(-0.46499383 0 0)
(-0.45504464 0 0)
(-0.44496973 0 0)
(-0.43477608 0 0)
(-0.42447267 0 0)
(-0.41406669 0 0)
(-0.40356724 0 0)
(-0.3929866 0 0)
(-0.38233145 0 0)
(-0.37159752 0 0)
(-0.36077248 0 0)
(-0.34985107 0 0)
(-0.33884629 0 0)
(-0.32776016 0 0)
(-0.3165622 0 0)
(-0.30522729 0 0)
(-0.29376765 0 0)
(-0.28216628 0 0)
(-0.270371 0 0)
(-0.25840035 0 0)
(-0.24625674 0 0)
(-0.2338595 0 0)
(-0.22116403 0 0)
(-0.20822634 0 0)
(-0.19499192 0 0)
(-0.18130802 0 0)
(-0.16711634 0 0)
(-0.15236672 0 0)
(-0.13696702 0 0)
(-0.12079273 0 0)
(-0.10371599 0 0)
(-0.085615512 0 0)
(-0.06639257 0 0)
(-0.045912532 0 0)
(-0.023852058 0 0)
(0 0 0)
(-0.58142435 0 0)
(-0.57534305 0 0)
(-0.56887692 0 0)
(-0.56202999 0 0)
(-0.55480819 0 0)
(-0.54722388 0 0)
(-0.5392981 0 0)
(-0.53105796 0 0)
(-0.52252932 0 0)
(-0.51373516 0 0)
(-0.50469272 0 0)
(-0.49541852 0 0)
(-0.48593693 0 0)
(-0.47627665 0 0)
(-0.46646192 0 0)
(-0.45650719 0 0)
(-0.44641943 0 0)
(-0.4362063 0 0)
(-0.42587789 0 0)
(-0.41544231 0 0)
(-0.40490887 0 0)
(-0.39429072 0 0)
(-0.38359597 0 0)
(-0.37282091 0 0)
(-0.36195293 0 0)
(-0.35098714 0 0)
(-0.33993798 0 0)
(-0.328808 0 0)
(-0.31756555 0 0)
(-0.30618574 0 0)
(-0.294683 0 0)
(-0.28304019 0 0)
(-0.27120225 0 0)
(-0.25918916 0 0)
(-0.24700374 0 0)
(-0.23456334 0 0)
(-0.22182378 0 0)
(-0.2088432 0 0)
(-0.19556545 0 0)
(-0.18183634 0 0)
(-0.16760007 0 0)
(-0.15280913 0 0)
(-0.1373671 0 0)
(-0.1211433 0 0)
(-0.10401523 0 0)
(-0.085865314 0 0)
(-0.066590732 0 0)
(-0.046051854 0 0)
(-0.023924465 0 0)
(0 0 0)
(-0.58177233 0 0)
(-0.57589137 0 0)
(-0.56961282 0 0)
(-0.56293869 0 0)
(-0.55587439 0 0)
(-0.54843224 0 0)
(-0.54063259 0 0)
(-0.5324993 0 0)
(-0.5240604 0 0)
(-0.51534247 0 0)
(-0.50636047 0 0)
(-0.49712848 0 0)
(-0.48767458 0 0)
(-0.47803048 0 0)
(-0.46822099 0 0)
(-0.45826135 0 0)
(-0.44815959 0 0)
(-0.43792427 0 0)
(-0.42756694 0 0)
(-0.41709666 0 0)
(-0.40652319 0 0)
(-0.39586047 0 0)
(-0.38511827 0 0)
(-0.37429383 0 0)
(-0.36337453 0 0)
(-0.3523558 0 0)
(-0.34125363 0 0)
(-0.33007113 0 0)
(-0.31877555 0 0)
(-0.30734203 0 0)
(-0.29578739 0 0)
(-0.28409448 0 0)
(-0.27220577 0 0)
(-0.26014199 0 0)
(-0.24790597 0 0)
(-0.23541344 0 0)
(-0.22262117 0 0)
(-0.20958898 0 0)
(-0.19625847 0 0)
(-0.18247447 0 0)
(-0.16818433 0 0)
(-0.15334348 0 0)
(-0.13785007 0 0)
(-0.12156703 0 0)
(-0.10437734 0 0)
(-0.086167025 0 0)
(-0.066829625 0 0)
(-0.04621973 0 0)
(-0.024011728 0 0)
(0 0 0)
(-0.58218552 0 0)
(-0.57653126 0 0)
(-0.57046616 0 0)
(-0.56398947 0 0)
(-0.55710759 0 0)
(-0.54983327 0 0)
(-0.54218261 0 0)
(-0.53417719 0 0)
(-0.52584514 0 0)
(-0.51721417 0 0)
(-0.50830112 0 0)
(-0.49912108 0 0)
(-0.48970258 0 0)
(-0.48007918 0 0)
(-0.47027717 0 0)
(-0.46031296 0 0)
(-0.45019538 0 0)
(-0.43993388 0 0)
(-0.42954275 0 0)
(-0.41903275 0 0)
(-0.40841273 0 0)
(-0.3976975 0 0)
(-0.38689948 0 0)
(-0.37601732 0 0)
(-0.36503767 0 0)
(-0.35395651 0 0)
(-0.34279229 0 0)
(-0.3315487 0 0)
(-0.32019091 0 0)
(-0.30869405 0 0)
(-0.2970784 0 0)
(-0.28532698 0 0)
(-0.27337885 0 0)
(-0.26125596 0 0)
(-0.24896109 0 0)
(-0.23640758 0 0)
(-0.22355332 0 0)
(-0.21046053 0 0)
(-0.1970685 0 0)
(-0.18322037 0 0)
(-0.16886682 0 0)
(-0.15396727 0 0)
(-0.13841402 0 0)
(-0.12206224 0 0)
(-0.10480061 0 0)
(-0.08651925 0 0)
(-0.067108143 0 0)
(-0.04641532 0 0)
(-0.024113369 0 0)
(0 0 0)
(-0.58267453 0 0)
(-0.57727138 0 0)
(-0.57144329 0 0)
(-0.56518935 0 0)
(-0.55851712 0 0)
(-0.55143468 0 0)
(-0.54395393 0 0)
(-0.53609646 0 0)
(-0.52788757 0 0)
(-0.519354 0 0)
(-0.51051942 0 0)
(-0.50140157 0 0)
(-0.49202603 0 0)
(-0.48242785 0 0)
(-0.47263478 0 0)
(-0.46266334 0 0)
(-0.45252585 0 0)
(-0.44223514 0 0)
(-0.43180641 0 0)
(-0.42125109 0 0)
(-0.41057771 0 0)
(-0.39980132 0 0)
(-0.38893827 0 0)
(-0.37798922 0 0)
(-0.36694004 0 0)
(-0.35578685 0 0)
(-0.34455094 0 0)
(-0.333237 0 0)
(-0.32180779 0 0)
(-0.31023805 0 0)
(-0.29855191 0 0)
(-0.28673312 0 0)
(-0.2747176 0 0)
(-0.26252741 0 0)
(-0.25016488 0 0)
(-0.23754149 0 0)
(-0.22461665 0 0)
(-0.21145451 0 0)
(-0.19799184 0 0)
(-0.18407055 0 0)
(-0.16964471 0 0)
(-0.15467805 0 0)
(-0.1390564 0 0)
(-0.12262681 0 0)
(-0.10528339 0 0)
(-0.086920411 0 0)
(-0.067424977 0 0)
(-0.046637681 0 0)
(-0.02422887 0 0)
(0 0 0)
(-0.58203689 0 0)
(-0.57688124 0 0)
(-0.571293 0 0)
(-0.56527445 0 0)
(-0.55882891 0 0)
(-0.55195683 0 0)
(-0.54467059 0 0)
(-0.53699248 0 0)
(-0.52894331 0 0)
(-0.5205481 0 0)
(-0.51183345 0 0)
(-0.50281831 0 0)
(-0.49352782 0 0)
(-0.48399776 0 0)
(-0.47425644 0 0)
(-0.46432111 0 0)
(-0.45420742 0 0)
(-0.44393126 0 0)
(-0.43350719 0 0)
(-0.42294594 0 0)
(-0.41225648 0 0)
(-0.40145618 0 0)
(-0.39056436 0 0)
(-0.3795827 0 0)
(-0.36849661 0 0)
(-0.35730201 0 0)
(-0.3460228 0 0)
(-0.33466554 0 0)
(-0.32319091 0 0)
(-0.31157271 0 0)
(-0.2998381 0 0)
(-0.287973 0 0)
(-0.27590959 0 0)
(-0.26366911 0 0)
(-0.25125561 0 0)
(-0.23857886 0 0)
(-0.22559855 0 0)
(-0.21237857 0 0)
(-0.19885691 0 0)
(-0.18487317 0 0)
(-0.17038385 0 0)
(-0.1553573 0 0)
(-0.13967463 0 0)
(-0.123174 0 0)
(-0.1057545 0 0)
(-0.087314698 0 0)
(-0.067738859 0 0)
(-0.046860243 0 0)
(-0.024347024 0 0)
(0 0 0)
(-0.58036328 0 0)
(-0.57370388 0 0)
(-0.56670216 0 0)
(-0.55937193 0 0)
(-0.55172387 0 0)
(-0.54377165 0 0)
(-0.53553492 0 0)
(-0.52703618 0 0)
(-0.51829813 0 0)
(-0.50934048 0 0)
(-0.50018036 0 0)
(-0.49083339 0 0)
(-0.48131815 0 0)
(-0.47165642 0 0)
(-0.46186772 0 0)
(-0.45196124 0 0)
(-0.44194109 0 0)
(-0.43181325 0 0)
(-0.42158685 0 0)
(-0.41126853 0 0)
(-0.40085891 0 0)
(-0.3903723 0 0)
(-0.37981593 0 0)
(-0.36918217 0 0)
(-0.35845759 0 0)
(-0.34764084 0 0)
(-0.33674276 0 0)
(-0.32576 0 0)
(-0.31466154 0 0)
(-0.30342565 0 0)
(-0.29206006 0 0)
(-0.2805444 0 0)
(-0.26884061 0 0)
(-0.25696017 0 0)
(-0.24490238 0 0)
(-0.23258992 0 0)
(-0.21998376 0 0)
(-0.20713215 0 0)
(-0.19397668 0 0)
(-0.18037228 0 0)
(-0.16625918 0 0)
(-0.15158297 0 0)
(-0.13626001 0 0)
(-0.12018178 0 0)
(-0.10319901 0 0)
(-0.085178507 0 0)
(-0.066041072 0 0)
(-0.045664528 0 0)
(-0.023723535 0 0)
(0 0 0)
(-0.58046351 0 0)
(-0.57382308 0 0)
(-0.56683825 0 0)
(-0.55952205 0 0)
(-0.55188451 0 0)
(-0.54393844 0 0)
(-0.53570276 0 0)
(-0.52720176 0 0)
(-0.51845912 0 0)
(-0.50949508 0 0)
(-0.50032676 0 0)
(-0.49096984 0 0)
(-0.48144292 0 0)
(-0.47176865 0 0)
(-0.4619676 0 0)
(-0.45204938 0 0)
(-0.44201772 0 0)
(-0.43187875 0 0)
(-0.42164167 0 0)
(-0.41131221 0 0)
(-0.40089286 0 0)
(-0.39039788 0 0)
(-0.37983328 0 0)
(-0.36919145 0 0)
(-0.35845967 0 0)
(-0.34763589 0 0)
(-0.33673055 0 0)
(-0.32574095 0 0)
(-0.31463701 0 0)
(-0.30339655 0 0)
(-0.29202727 0 0)
(-0.28050921 0 0)
(-0.26880236 0 0)
(-0.25691968 0 0)
(-0.24486024 0 0)
(-0.23254688 0 0)
(-0.21993921 0 0)
(-0.20708706 0 0)
(-0.19393381 0 0)
(-0.18033262 0 0)
(-0.16622272 0 0)
(-0.15154929 0 0)
(-0.13622871 0 0)
(-0.12015137 0 0)
(-0.10317143 0 0)
(-0.085157085 0 0)
(-0.066025549 0 0)
(-0.045653895 0 0)
(-0.023717897 0 0)
(0 0 0)
(-0.58055349 0 0)
(-0.57396347 0 0)
(-0.56702483 0 0)
(-0.5597497 0 0)
(-0.5521473 0 0)
(-0.54422955 0 0)
(-0.53601551 0 0)
(-0.52753069 0 0)
(-0.51879978 0 0)
(-0.50984327 0 0)
(-0.50067844 0 0)
(-0.49132122 0 0)
(-0.48179073 0 0)
(-0.47211024 0 0)
(-0.46230112 0 0)
(-0.45237394 0 0)
(-0.44233257 0 0)
(-0.43218291 0 0)
(-0.42193382 0 0)
(-0.41159136 0 0)
(-0.40115972 0 0)
(-0.39065222 0 0)
(-0.38007476 0 0)
(-0.36942042 0 0)
(-0.35867645 0 0)
(-0.34783958 0 0)
(-0.33692077 0 0)
(-0.32591871 0 0)
(-0.31480335 0 0)
(-0.30355147 0 0)
(-0.29217168 0 0)
(-0.28064507 0 0)
(-0.26892819 0 0)
(-0.25703576 0 0)
(-0.24496793 0 0)
(-0.23264671 0 0)
(-0.22002982 0 0)
(-0.2071691 0 0)
(-0.19400982 0 0)
(-0.18040297 0 0)
(-0.16628711 0 0)
(-0.151608 0 0)
(-0.13628148 0 0)
(-0.12019535 0 0)
(-0.10320768 0 0)
(-0.08518885 0 0)
(-0.066052088 0 0)
(-0.045672807 0 0)
(-0.023727615 0 0)
(0 0 0)
(-0.5806955 0 0)
(-0.57418709 0 0)
(-0.56732378 0 0)
(-0.56011623 0 0)
(-0.55257278 0 0)
(-0.54470481 0 0)
(-0.53653206 0 0)
(-0.52808092 0 0)
(-0.51937693 0 0)
(-0.51044086 0 0)
(-0.50128988 0 0)
(-0.49194042 0 0)
(-0.48241253 0 0)
(-0.47273034 0 0)
(-0.46291587 0 0)
(-0.4529805 0 0)
(-0.44292861 0 0)
(-0.43276641 0 0)
(-0.42250249 0 0)
(-0.41214284 0 0)
(-0.40169383 0 0)
(-0.39116826 0 0)
(-0.38057151 0 0)
(-0.36989757 0 0)
(-0.35913415 0 0)
(-0.34827692 0 0)
(-0.33733713 0 0)
(-0.32631474 0 0)
(-0.31518 0 0)
(-0.30390886 0 0)
(-0.29251066 0 0)
(-0.28096718 0 0)
(-0.2692323 0 0)
(-0.25732209 0 0)
(-0.24523722 0 0)
(-0.23289938 0 0)
(-0.22026517 0 0)
(-0.20738746 0 0)
(-0.19421231 0 0)
(-0.18058963 0 0)
(-0.16645826 0 0)
(-0.15176458 0 0)
(-0.13642275 0 0)
(-0.12031746 0 0)
(-0.1033111 0 0)