/*--------------------------------*- C++ -*----------------------------------*\
| =========                 |                                                 |
| \\      /  F ield         | OpenFOAM: The Open Source CFD Toolbox           |
|  \\    /   O peration     | Version:  v2012                                 |
|   \\  /    A nd           | Website:  www.openfoam.com                      |
|    \\/     M anipulation  |                                                 |
\*---------------------------------------------------------------------------*/
FoamFile
{
    version     2.0;
    format      ascii;
    class       volVectorField;
    location    "77.5099243080187534";
    object      U;
}
// * * * * * * * * * * * * * * * * * * * * * * * * * * * * * * * * * * * * * //

dimensions      [0 1 -1 0 0 0 0];


internalField   nonuniform List<vector> 
9200
(
(2.6540837 -0.00065604186 -1.396965e-21)
(2.653181 -0.0026120188 -1.7925104e-23)
(2.6571145 -0.0013072227 -9.9016503e-22)
(2.6521472 -0.0037505747 -3.3055864e-22)
(2.6562735 -0.0057764316 3.3205699e-23)
(2.6605556 -0.0016066847 2.8542081e-22)
(2.6502168 -0.0051272581 7.6917549e-22)
(2.6551109 -0.0089433841 -1.8727888e-22)
(2.6600993 -0.0070843365 -3.8153661e-22)
(2.6646447 -0.0018616701 -3.262212e-23)
(2.6475751 -0.0058552852 0)
(2.6530566 -0.012869152 -8.8164518e-23)
(2.6592223 -0.011187244 8.6853259e-22)
(2.6646596 -0.0081773141 6.073304e-22)
(2.668993 -0.0019512852 -1.7826964e-22)
(2.6440822 -0.006363673 4.4459747e-24)
(2.6500102 -0.016357738 3.49322e-22)
(2.6576793 -0.016355764 -6.8772524e-22)
(2.6642651 -0.013164632 -7.8635884e-22)
(2.669619 -0.008613657 5.7637997e-22)
(2.6732307 -0.0018693403 2.4800945e-23)
(2.6396793 -0.0062371069 -2.1919622e-22)
(2.6459211 -0.019984859 0)
(2.6551018 -0.021328864 -7.2164003e-23)
(2.6634924 -0.019572795 5.7972244e-22)
(2.670006 -0.014122782 -1.6368695e-22)
(2.6745662 -0.0084059365 -3.2456066e-22)
(2.6770514 -0.0016094046 -3.166041e-23)
(2.6343837 -0.0056093925 2.5995872e-22)
(2.6405991 -0.023261105 -1.4953532e-21)
(2.6514266 -0.026717532 -7.2587791e-22)
(2.6616986 -0.026167552 -1.5732185e-21)
(2.6704381 -0.021392745 -6.3972095e-22)
(2.6759805 -0.014048183 -5.8318376e-22)
(2.6791421 -0.007489626 3.3256532e-22)
(2.6801495 -0.0011693462 -1.1282201e-21)
(2.6282162 -0.0043496263 2.1108503e-22)
(2.6341202 -0.026212336 1.1983628e-23)
(2.646323 -0.032022348 -1.0209446e-21)
(2.6587843 -0.033608827 1.3232563e-22)
(2.6700322 -0.029327281 -1.1474933e-22)
(2.6779871 -0.021753958 -1.4859006e-21)
(2.6817914 -0.012799816 -2.642345e-22)
(2.6829655 -0.0058623279 7.0544008e-23)
(2.6822139 -0.00042034985 -8.8653145e-22)
(2.6212824 -0.0025589235 4.8158487e-22)
(2.6265285 -0.028569957 -2.1472522e-23)
(2.6397576 -0.037175027 1.1595046e-21)
(2.6542373 -0.041454292 2.0452978e-21)
(2.668649 -0.038643969 7.4101867e-22)
(2.6795256 -0.030650623 3.7629792e-21)
(2.6856886 -0.020388199 2.6892849e-21)
(2.6869683 -0.010316709 -9.4486265e-22)
(2.6857485 -0.0035722147 1.7332437e-22)
(2.6829866 0.00056323762 1.2758651e-21)
(2.6137224 -0.00033614279 -2.2831401e-22)
(2.618061 -0.030202432 -2.3026591e-22)
(2.631643 -0.041809918 -3.7539907e-22)
(2.6478693 -0.049592899 2.8535038e-22)
(2.6655947 -0.049042767 1.4694704e-21)
(2.6804419 -0.041528021 -8.2340585e-22)
(2.689688 -0.029661793 1.9103432e-21)
(2.6929461 -0.017149738 1.5848304e-21)
(2.6910618 -0.006617293 1.3304655e-22)
(2.687269 -0.00070507082 -6.8847255e-23)
(2.6824168 0.0015237469 1.0572568e-21)
(2.6057299 0.0020927645 -9.7097704e-22)
(2.6090285 -0.030933078 1.0529111e-21)
(2.622076 -0.045610726 -1.3514853e-21)
(2.6393943 -0.057625032 -8.8279631e-22)
(2.6605051 -0.060449422 -1.1984873e-21)
(2.6799011 -0.054308456 1.2818873e-21)
(2.6936747 -0.041487511 -2.5157032e-21)
(2.6997589 -0.02603529 -4.9428255e-22)
(2.6991415 -0.012017185 -2.0784246e-22)
(2.6936741 -0.0018611718 1.3441865e-23)
(2.6872837 0.0025975894 -3.6882534e-22)
(2.6804764 0.0025368954 1.1900237e-21)
(2.5975329 0.0044621418 3.82935e-22)
(2.5998849 -0.03062117 -1.9334171e-21)
(2.6112284 -0.048193922 1.1128619e-21)
(2.6286981 -0.06511203 -2.7589721e-21)
(2.652853 -0.072533964 -3.9477979e-21)
(2.6773934 -0.06904171 -2.3167176e-21)
(2.6967507 -0.056066144 -2.6947629e-22)
(2.7074143 -0.037907824 -5.6301244e-21)
(2.7088824 -0.019625706 3.4117535e-22)
(2.7036758 -0.0051511029 -4.7814585e-23)
(2.6945266 0.0036805436 -6.2413246e-22)
(2.6856607 0.0061402298 -2.5246764e-21)
(2.6772079 0.0035582914 -3.6786743e-21)
(2.5894015 0.0063087772 -2.9555776e-22)
(2.591172 -0.029150026 6.8976855e-22)
(2.5993999 -0.049174754 8.8225723e-22)
(2.6157325 -0.071522415 -1.8387181e-21)
(2.6422519 -0.084850092 3.0740487e-22)
(2.6721655 -0.085583491 -1.313199e-21)
(2.6983396 -0.073647408 -4.5552752e-21)
(2.715056 -0.053262267 -1.1827929e-21)
(2.7205069 -0.030404932 -1.02441e-22)
(2.7161565 -0.010566085 1.541772e-21)
(2.7060676 0.0030952928 -1.6609524e-21)
(2.6934706 0.0097074193 3.6065926e-21)
(2.6824619 0.0097248526 -4.6817122e-22)
(2.6727271 0.0045188039 1.260449e-21)
(2.5816556 0.0070851671 1.1037052e-21)
(2.583506 -0.026499016 2.0790823e-21)
(2.5869768 -0.048183342 -4.0856376e-21)
(2.600578 -0.076260624 1.3150446e-21)
(2.6283496 -0.096837227 -1.5952394e-21)
(2.6635577 -0.1036062 4.3287891e-21)
(2.6975306 -0.094387553 2.4982143e-21)
(2.7221649 -0.072592487 3.9777599e-21)
(2.7333221 -0.045108696 1.0698271e-21)
(2.731636 -0.018989626 3.9256029e-21)
(2.7207799 0.00069446844 6.9996418e-22)
(2.7059812 0.012204946 -3.3765463e-21)
(2.6904809 0.015853869 2.9989832e-22)
(2.6778344 0.01316217 -1.0186047e-21)
(2.6672177 0.0053672617 -3.2761231e-21)
(2.5737763 0.0062316964 7.0312619e-21)
(2.5776527 -0.022413295 -1.1895999e-21)
(2.5744286 -0.044860536 2.8539962e-21)
(2.5834248 -0.078708678 4.1639021e-21)
(2.6109107 -0.10781706 -2.3935329e-22)
(2.6508919 -0.12265265 2.8941633e-21)
(2.6934426 -0.11821147 -5.7750943e-22)
(2.7278022 -0.096446771 -3.0894098e-21)
(2.7470205 -0.064464264 0)
(2.7496981 -0.031340314 -2.6395946e-22)
(2.7395373 -0.0041551138 3.7682254e-21)
(2.7221966 0.013428401 -3.726272e-21)
(2.7033082 0.021596758 1.4466737e-21)
(2.6856828 0.021763627 -2.1599047e-21)
(2.6719828 0.016290291 2.9694353e-21)
(2.6608947 0.006089072 5.200306e-22)
(2.5670001 0.0032114677 -1.6763213e-21)
(2.5755685 -0.016885797 -9.0605235e-22)
(2.5623495 -0.038952186 2.7913482e-24)
(2.564583 -0.078254326 -1.4169656e-21)
(2.5898182 -0.11705401 -1.6865615e-21)
(2.6335778 -0.14208662 -7.2644974e-23)
(2.6850942 -0.14492733 9.0970246e-21)
(2.730992 -0.12512926 4.129783e-21)
(2.7608209 -0.089444234 -9.6209869e-21)
(2.7704039 -0.048495491 -6.2334887e-21)
(2.7622416 -0.012393383 6.38941e-24)
(2.7432257 0.013125898 1.4978031e-21)
(2.7201345 0.026761961 -1.5540101e-21)
(2.698193 0.030674649 2.7786534e-22)
(2.6793264 0.027136841 1.3102216e-21)
(2.6651609 0.018990334 -1.1634255e-21)
(2.6539813 0.0066812578 6.4952064e-21)
(2.5630118 -0.0013978909 -3.3038636e-21)
(2.5757741 -0.010822383 -1.7745536e-21)
(2.5520318 -0.030043555 -5.2347468e-21)
(2.5444307 -0.074294249 -3.9369357e-21)
(2.5651025 -0.12377614 3.8746053e-21)
(2.6111459 -0.16115022 -3.1389417e-21)
(2.6715129 -0.17409684 -1.1958014e-21)
(2.7305518 -0.15890729 1.7899869e-20)
(2.7738683 -0.12081374 1.4833619e-20)
(2.7933537 -0.071781178 6.3972591e-22)
(2.7894316 -0.024877704 3.9790004e-22)
(2.7692968 0.010488668 3.6546859e-21)
(2.7421266 0.031543356 -3.1082839e-21)
(2.7146695 0.039750022 0)
(2.6909547 0.038928904 4.1576544e-22)
(2.6717344 0.031754546 -3.1405955e-21)
(2.6576427 0.021192003 8.1846235e-22)
(2.6466941 0.0071347751 1.7867247e-21)
(2.5605733 -0.0084215498 -2.1605617e-21)
(2.5793641 -0.0054057544 8.3752212e-22)
(2.5447261 -0.017348445 4.4265372e-21)
(2.5231621 -0.066287857 1.0061795e-20)
(2.5368408 -0.12721203 -5.5984306e-22)
(2.5832395 -0.17898197 -8.6472958e-21)
(2.6517681 -0.20507151 -4.0091488e-21)
(2.725165 -0.19775571 -1.4307069e-20)
(2.7849899 -0.15946654 -1.1636511e-20)
(2.8181116 -0.10240665 -5.1077863e-21)
(2.8213013 -0.043073621 4.1049269e-21)
(2.8013814 0.0049456542 4.4150425e-21)
(2.7697735 0.035419483 7.4687744e-21)
(2.7362269 0.049648149 1.3111024e-21)
(2.7062219 0.051566987 9.9871174e-22)
(2.6820373 0.045985583 7.217076e-23)
(2.6632612 0.035487434 2.5207417e-21)
(2.6496939 0.022870004 4.5906268e-21)
(2.6392316 0.0074498777 1.3674815e-21)
(2.5601153 -0.018869857 -3.9013427e-22)
(2.5875677 0.0020259136 6.6960423e-22)
(2.5365176 -0.00067426492 6.0253064e-21)
(2.5013535 -0.053462163 -4.4971008e-21)
(2.5051316 -0.1265781 -1.4986823e-20)
(2.5495284 -0.19457508 6.3440167e-21)
(2.6248728 -0.23693202 8.5263351e-21)
(2.7133326 -0.24138715 1.0174159e-21)
(2.7926775 -0.20601622 -1.0542211e-20)
(2.8438683 -0.14194735 -8.1759814e-21)
(2.8581166 -0.068416424 -1.7080256e-20)
(2.8403365 -0.0047876876 -5.1482793e-21)
(2.8043182 0.038317388 1.0707342e-20)
(2.7634334 0.060219806 -5.9253685e-21)
(2.726078 0.066126325 4.1314244e-21)
(2.6954238 0.061604207 -4.3071684e-22)
(2.6719407 0.05162636 7.1739538e-21)
(2.6542544 0.038289537 1.5410944e-21)
(2.6415542 0.024035538 -3.1846926e-21)
(2.6317648 0.0076360181 -1.5273078e-21)
(2.5614447 -0.032254617 -4.6308025e-23)
(2.6001332 0.010735583 3.2742158e-21)
(2.530751 0.019510263 5.1869492e-21)
(2.4791382 -0.035599638 1.2725306e-20)
(2.4702189 -0.12136622 1.3442282e-20)
(2.5101623 -0.2070744 -4.1163745e-21)
(2.59022 -0.26852794 -9.2509899e-21)
(2.6934372 -0.28908142 -1.2478116e-20)
(2.7949915 -0.26088966 -2.009861e-20)
(2.869308 -0.19181403 3.4623728e-20)
(2.8998876 -0.10295995 3.1580642e-20)
(2.8872721 -0.019923989 -1.5951832e-20)
(2.8470972 0.039528858 2.7433521e-21)
(2.7975813 0.07198856 1.1867585e-20)
(2.7509856 0.082812983 -1.2721562e-20)
(2.7125974 0.080007596 -2.6764628e-21)
(2.6830058 0.069510328 -3.7221007e-23)
(2.6611571 0.055778952 -5.2555973e-21)
(2.6450275 0.04018355 -1.4248156e-21)
(2.6334272 0.024726357 2.1488784e-21)
(2.6244335 0.007707388 1.6700946e-23)
(2.5633136 -0.047661551 -7.8573169e-21)
(2.615149 0.020337877 -1.0419021e-20)
(2.5282751 0.043546268 3.0082102e-21)
(2.4569145 -0.01302476 1.1541929e-20)
(2.4328594 -0.11135151 1.5348225e-21)
(2.466039 -0.21615985 -2.166907e-20)
(2.5484634 -0.29928904 1.9974058e-20)
(2.665138 -0.34028174 3.1670128e-21)
(2.7904134 -0.32429067 3.4819105e-21)
(2.8928554 -0.25358558 4.5869444e-20)
(2.9463035 -0.14884642 6.6694958e-20)
(2.9432415 -0.042356014 7.0752628e-21)
(2.8998503 0.038500978 -2.2435576e-20)
(2.840123 0.084998762 1.2241541e-20)
(2.7820296 0.10270107 -3.4733445e-21)
(2.7337857 0.10165828 1.0274451e-20)
(2.6968757 0.09074189 -3.4135366e-21)
(2.6696892 0.075177684 2.3197001e-21)
(2.6501264 0.058489085 -1.2918557e-21)
(2.6358441 0.041241736 1.7218585e-22)
(2.6254769 0.024997031 -2.0046198e-21)
(2.6173461 0.0076804779 -1.8088469e-23)
(2.561416 -0.064487774 -1.8479684e-20)
(2.6286452 0.030130212 -7.9919021e-22)
(2.5290081 0.071527578 8.478551e-21)
(2.4349808 0.014425067 -2.8408078e-20)
(2.3935714 -0.096572006 -1.8072977e-20)
(2.4182175 -0.2216349 8.0919085e-21)
(2.5006998 -0.32858985 3.5802474e-21)
(2.6290036 -0.39467226 6.9936234e-21)
(2.7788642 -0.39721306 4.9562098e-20)
(2.914165 -0.32948018 4.0830875e-20)
(2.997807 -0.20920346 -6.9552231e-20)
(3.0099135 -0.074401897 -5.5012986e-20)
(2.9645375 0.034242271 1.3035752e-20)
(2.8929032 0.09965566 6.3382918e-21)
(2.8203953 0.12653 8.0743249e-21)
(2.7596813 0.12801618 -4.41592e-21)
(2.7134824 0.11590468 7.3595131e-21)
(2.6799896 0.098179973 -1.0741728e-21)
(2.6561112 0.078692564 2.3952782e-21)
(2.6392113 0.059885359 3.6202257e-21)
(2.6269119 0.041566965 -7.8944801e-22)
(2.6178278 0.024910572 4.4117182e-21)
(2.6105814 0.0075725261 6.0464201e-23)
(2.5533013 -0.082395211 1.6098777e-20)
(2.6385878 0.039389294 6.5536318e-22)
(2.5317152 0.10293596 -8.4914596e-21)
(2.412599 0.046999044 -1.7875992e-20)
(2.3525868 -0.077132701 2.6314842e-20)
(2.3673638 -0.22322446 -3.2458179e-21)
(2.4473883 -0.35518893 -3.1716675e-21)
(2.5839422 -0.44985248 -4.3501059e-21)
(2.7575109 -0.47782194 7.5175915e-21)
(2.9304531 -0.42124298 -4.4806134e-20)
(3.0548755 -0.2885866 -5.8294503e-20)
(3.091054 -0.12043887 8.3417503e-21)
(3.0450935 0.025304139 -6.0865064e-20)
(2.958335 0.1162103 -1.6816451e-20)
(2.8675297 0.15562612 -1.8643993e-20)
(2.790944 0.16028612 -9.6456927e-21)
(2.7330556 0.14663356 -5.3695301e-21)
(2.691699 0.12535896 -4.3568446e-21)
(2.662874 0.10248504 -7.6644348e-22)
(2.6427847 0.080273126 -2.6872747e-22)
(2.6286896 0.060145234 -2.7941995e-21)
(2.6183837 0.041276614 1.3710566e-21)
(2.6105681 0.024531967 -1.5135363e-21)
(2.6041928 0.0074002419 -3.5393555e-21)
(2.5409409 -0.099935628 2.731334e-20)
(2.6395229 0.047758681 2.0269281e-20)
(2.5371366 0.13761899 -1.3635797e-20)
(2.3881128 0.08451898 2.1918694e-21)
(2.3096022 -0.053161438 2.7912847e-20)
(2.313909 -0.22083881 -1.2523288e-20)
(2.3889863 -0.3777097 2.8077145e-21)
(2.5285078 -0.5023472 -7.8843823e-21)
(2.7199814 -0.56088287 1.7805302e-21)
(2.9300667 -0.5228574 3.4927145e-20)
(3.1061562 -0.38623522 -1.8830684e-20)
(3.1843656 -0.1849782 1.110855e-19)
(3.1472544 0.0075702718 -1.0690569e-19)
(3.0419247 0.13457203 8.0580895e-20)
(2.9255835 0.19145598 1.3423685e-20)
(2.828302 0.20039014 -1.0430222e-20)
(2.7556485 0.18429534 -4.8505266e-21)
(2.7046122 0.15833101 -1.2722735e-20)
(2.6698135 0.13032642 -9.6981877e-22)
(2.6462595 0.10402353 -7.0647086e-21)
(2.6300882 0.080210596 -9.3114114e-21)
(2.6187566 0.059466851 -5.3363593e-21)
(2.6103628 0.040490312 -3.5136954e-21)
(2.603755 0.023923609 -1.026072e-21)
(2.5982118 0.0071789968 -1.3362071e-21)
(2.5229432 -0.11533012 -2.6220683e-21)
(2.62607 0.0571438 -3.3315305e-20)
(2.5271354 0.17575138 1.1758878e-20)
(2.3601234 0.12735898 1.5951531e-20)
(2.2633598 -0.025112269 1.6775994e-20)
(2.2583008 -0.21472077 2.5544626e-21)
(2.3266094 -0.39531595 -7.7572592e-21)
(2.4630957 -0.54929284 -2.9077594e-21)
(2.6639036 -0.64114936 -2.520751e-21)
(2.9033444 -0.62844452 -2.4534733e-20)
(3.1310668 -0.49373308 -3.5925104e-20)
(3.2669009 -0.26213303 -4.439623e-20)
(3.2612649 -0.019275943 1.5800575e-19)
(3.1480625 0.15348763 -4.8852407e-20)
(2.999928 0.23548713 3.9621373e-20)
(2.8729563 0.25049502 -3.121653e-20)
(2.7811949 0.23096779 1.4880863e-20)
(2.7182398 0.19835883 8.9896195e-21)
(2.6763798 0.16367455 -2.9074309e-21)
(2.648864 0.13141806 2.4113006e-22)
(2.6306613 0.10326513 2.854985e-21)
(2.6182737 0.078822072 -2.5114367e-21)
(2.609536 0.058048262 -4.9863709e-21)
(2.6029107 0.039321505 -2.5225019e-21)
(2.5974194 0.023142426 2.1417037e-21)
(2.5926526 0.0069223707 3.0225006e-21)
(2.4986304 -0.12844166 -3.8411489e-21)
(2.5985643 0.07044268 -8.2409755e-20)
(2.4854444 0.21497176 4.6232336e-21)
(2.3246451 0.17525957 1.6529436e-21)
(2.2127868 0.0061269118 1.8032282e-20)
(2.2008545 -0.20549425 5.6510949e-21)
(2.2619229 -0.40798617 3.674428e-22)
(2.3903472 -0.58906348 -5.7039926e-21)
(2.5909465 -0.71520745 -9.8502874e-21)
(2.8491508 -0.73370508 -9.4455997e-20)
(3.1275244 -0.60895492 -7.5831737e-20)
(3.3222201 -0.34815422 1.6101838e-19)
(3.3580755 -0.045734887 1.306241e-19)
(3.2583536 0.17802017 -3.8872162e-20)
(3.0919144 0.29017597 6.0378152e-20)
(2.9285307 0.31329789 -8.6178063e-21)
(2.809657 0.28888786 -3.314647e-20)
(2.7318513 0.24731291 -9.3311773e-22)
(2.6816837 0.20351275 -1.9339391e-21)
(2.649817 0.1636767 1.8370672e-21)
(2.6295427 0.12938207 3.1575357e-22)
(2.6163996 0.10070576 3.3126451e-21)
(2.6074866 0.076417167 4.5458239e-21)
(2.6010927 0.056073777 3.4657448e-21)
(2.5960558 0.037872338 -2.7148124e-22)
(2.5915722 0.022238343 -1.2127018e-21)
(2.5875159 0.0066419954 -1.9900444e-22)
(2.469286 -0.13913244 -1.1743112e-21)
(2.5622 0.08632364 3.0642602e-20)
(2.4306976 0.25463852 -7.6858493e-21)
(2.2767904 0.22357005 3.800211e-21)
(2.1589513 0.039872986 -9.2750341e-21)
(2.1416136 -0.1943031 9.3284411e-21)
(2.196815 -0.4161836 2.0127995e-20)
(2.3135272 -0.62079008 9.0571898e-21)
(2.5050026 -0.78040524 4.8319522e-20)
(2.7696261 -0.83458847 0)
(3.0885521 -0.73096579 -3.819467e-20)
(3.3598955 -0.44661802 -2.4741231e-19)
(3.440629 -0.075861484 8.0255989e-22)
(3.3481238 0.21417 -4.367439e-20)
(3.1788724 0.36239192 -8.4077325e-20)
(2.9942295 0.39380102 6.2496588e-20)
(2.8424533 0.36103497 -3.3880826e-20)
(2.7443821 0.3070278 6.1787256e-21)
(2.6845547 0.25129324 8.3974444e-22)
(2.6479941 0.20142195 2.6367223e-21)
(2.6258297 0.15951579 6.9147266e-21)
(2.6122409 0.12498089 -3.2988437e-21)
(2.603635 0.096816075 -6.0203424e-21)
(2.5977876 0.073277338 7.3978973e-22)
(2.5934459 0.053706204 1.1120853e-21)
(2.5898008 0.036231116 4.5558491e-21)
(2.5862086 0.021253748 1.3290657e-22)
(2.5827922 0.0063475556 1.2050951e-22)
(2.4363647 -0.14756862 -5.6024217e-21)
(2.5182046 0.10418575 -3.9699784e-20)
(2.3738536 0.29487001 3.8132529e-20)
(2.2198528 0.2692696 -8.7243582e-22)
(2.1032334 0.074284999 4.9788624e-21)
(2.081476 -0.18235436 4.5977621e-21)
(2.132873 -0.42079053 4.4711521e-21)
(2.2357112 -0.64452979 -4.2888566e-21)
(2.41008 -0.83358572 -4.0531381e-21)
(2.6656866 -0.92442261 0)
(3.0100756 -0.851109 2.7989748e-20)
(3.3489469 -0.55788254 -3.7651227e-19)
(3.4990545 -0.11856544 -2.0773293e-21)
(3.437267 0.2544144 -1.8677058e-19)
(3.2422958 0.45158922 7.7495803e-20)
(3.0477615 0.4969258 -2.0566957e-20)
(2.8781784 0.45269722 1.3966411e-20)
(2.755398 0.37985434 7.8880868e-21)
(2.6833528 0.30823307 8.1543966e-21)
(2.6420107 0.24561472 1.3865108e-20)
(2.6183124 0.19391954 1.115523e-20)
(2.6048661 0.15234525 3.9314159e-21)
(2.5971151 0.11891471 3.3316722e-21)
(2.592408 0.092012078 1.1808178e-21)
(2.5891756 0.069645295 0)
(2.5865823 0.051083556 -1.2142464e-21)
(2.5841302 0.034471639 -3.4866046e-21)
(2.5813128 0.020223633 -4.32204e-21)
(2.5784651 0.0060469275 2.8516366e-21)
(2.4013179 -0.15336375 -2.3180997e-21)
(2.4695043 0.12244527 -1.3263776e-20)
(2.3151478 0.33451695 4.0664778e-20)
(2.1583842 0.31273818 -1.4239823e-20)
(2.0440563 0.10701487 -8.0797728e-21)
(2.022337 -0.17047568 1.0845086e-20)
(2.0712301 -0.42290141 2.0022724e-21)
(2.1594638 -0.66029723 3.0253917e-20)
(2.3097845 -0.87377405 -3.2286819e-20)
(2.5401105 -0.99596787 -2.1800336e-20)
(2.8840527 -0.9553312 1.1589002e-19)
(3.2721225 -0.6615704 8.4508239e-19)
(3.4914433 -0.16875379 3.0510659e-19)
(3.5212419 0.30104913 -4.1755858e-21)
(3.3015281 0.55682256 -1.5178723e-20)
(3.0697913 0.61880153 -2.389234e-20)
(2.8974305 0.56632698 -7.4044611e-21)
(2.7635727 0.46988157 9.9315815e-21)
(2.676464 0.3756791 8.8772359e-21)
(2.6300632 0.29683159 1.3365246e-20)
(2.6055762 0.23308617 2.6242748e-21)
(2.5930956 0.18272067 -8.658384e-21)
(2.5870353 0.14318531 -3.6941639e-21)
(2.584154 0.11178239 1.8638238e-21)
(2.5826754 0.086642245 4.0491275e-21)
(2.5816068 0.065721626 1.3657272e-21)
(2.5804658 0.048318803 -7.9919011e-23)
(2.5790159 0.032653773 -3.3095363e-21)
(2.5768616 0.019176157 2.1331933e-22)
(2.5745132 0.0057463529 -1.1932056e-22)
(2.3617148 -0.15840375 -1.0664904e-20)
(2.4187702 0.14182716 9.6975869e-20)
(2.2579887 0.37272522 -1.6173561e-20)
(2.0971762 0.35396778 3.6089134e-20)
(1.9823134 0.13741069 -1.3274065e-20)
(1.9647705 -0.15953491 3.3627874e-20)
(2.0127839 -0.42347932 -1.1257397e-20)
(2.086966 -0.66924726 1.4494255e-20)
(2.2079763 -0.89791968 -6.2086269e-21)
(2.3996829 -1.0432042 -5.2744784e-21)
(2.7126815 -1.0321258 0)
(3.1113062 -0.74197548 1.7990734e-19)
(3.39503 -0.19197087 2.3248839e-19)
(3.491625 0.36833951 2.4527556e-19)
(3.3270973 0.69686917 1.0115355e-19)
(3.0723037 0.76731699 -9.9086473e-20)
(2.8772472 0.69579549 4.7821587e-21)
(2.75503 0.57829035 2.968866e-21)
(2.6625043 0.45597779 -1.3378801e-20)
(2.6100898 0.35549823 1.3257702e-20)
(2.585917 0.27702999 1.8812558e-21)
(2.5756175 0.21620961 -1.0534738e-20)
(2.572325 0.16927944 -8.0615151e-21)
(2.5722195 0.13287629 -5.0834729e-21)
(2.5732368 0.10406868 -1.8842201e-21)
(2.5743404 0.080985836 -2.8693228e-21)
(2.5750105 0.0616661 -1.9291503e-21)
(2.5750465 0.045501563 -1.5287323e-22)
(2.5744221 0.030824758 2.1381979e-21)
(2.5728269 0.018133412 2.3510949e-21)
(2.5709124 0.0054506627 -1.3396477e-21)
(2.3183713 -0.16229754 -8.7526023e-21)
(2.3643348 0.16042102 -1.0607953e-20)
(2.2048915 0.40925624 -1.578607e-20)
(2.0406637 0.39243571 -6.7995519e-21)
(1.9220547 0.1652153 7.7607087e-20)
(1.9087249 -0.15019958 -5.8080063e-23)
(1.9583982 -0.42339353 2.3217648e-20)
(2.0200071 -0.67222119 -1.2507196e-20)
(2.1083563 -0.90975331 1.5044171e-20)
(2.2536357 -1.0665521 -7.8514856e-20)
(2.5101677 -1.0811724 -1.0650566e-19)
(2.8793395 -0.79211792 -3.3889836e-19)
(3.1694464 -0.1733594 -1.0175085e-19)
(3.2690419 0.46030189 2.7855002e-19)
(3.2234324 0.87080706 -5.0356855e-20)
(3.0299051 0.95493935 7.3744747e-20)
(2.8268522 0.84735078 -4.7452896e-20)
(2.7066987 0.69641202 4.5372258e-22)
(2.6338799 0.54998551 -1.6978674e-20)
(2.580387 0.42226867 -1.205662e-20)
(2.5573873 0.32551286 -5.7707006e-21)
(2.5509613 0.25238624 -8.7478227e-21)
(2.5518564 0.19700704 5.018212e-21)
(2.5556879 0.1547432 4.9948446e-21)
(2.5601654 0.12207174 1.6131203e-21)
(2.5641799 0.096147861 -1.4174903e-21)
(2.5672764 0.075257874 -2.7185281e-22)
(2.5693013 0.057601642 2.231403e-21)
(2.5702665 0.042700796 3.610621e-21)
(2.5703084 0.029020834 -3.0061967e-21)
(2.5691781 0.017112276 -1.4409073e-22)
(2.567637 0.0051634815 -2.300538e-21)
(2.2733094 -0.16369803 7.9931883e-20)
(2.3050273 0.17794526 -5.5167332e-22)
(2.1542409 0.44458473 -3.7491864e-20)
(1.9917453 0.42808447 -1.4690468e-19)
(1.8674234 0.19015785 1.4085748e-19)
(1.85533 -0.14334155 -1.3379161e-19)
(1.9086106 -0.42319718 -1.0331091e-21)
(1.9596198 -0.6706177 -1.0643689e-20)
(2.0145412 -0.90881276 1.5120802e-20)
(2.1098923 -1.0694297 2.6841891e-20)
(2.2938681 -1.1013493 1.009542e-19)
(2.601232 -0.80575036 2.9158537e-19)
(2.8678968 -0.13025114 1.3121592e-19)
(2.9785483 0.57637266 -1.6762616e-19)
(2.9709165 1.0439867 4.382096e-20)
(2.8866084 1.1562244 1.5883565e-19)
(2.7450186 1.0262981 2.2991368e-20)
(2.6202477 0.82269711 -3.9638091e-20)
(2.5725094 0.64936139 -3.7326891e-20)
(2.5376275 0.49759994 -6.0770401e-22)
(2.5181483 0.37798117 3.0988462e-21)
(2.5175616 0.29058533 -2.9755871e-21)
(2.5244526 0.22563809 4.9605827e-21)
(2.533654 0.17699634 5.6579538e-21)
(2.5427174 0.1399636 1.4018705e-21)
(2.5505525 0.11125419 1.3951651e-21)
(2.5567702 0.088296186 9.4904199e-22)
(2.5613439 0.069617497 6.4259781e-22)
(2.5643877 0.053619561 6.1781266e-22)
(2.5660652 0.039967891 4.8146448e-22)
(2.5666329 0.027268963 2.4642711e-22)
(2.5658836 0.016125253 -2.655714e-21)
(2.5646609 0.0048874403 1.5628203e-22)
(2.2276148 -0.1627156 -9.2814443e-22)
(2.2424906 0.19628706 -2.0312508e-20)
(2.1071219 0.47896384 3.0952805e-20)
(1.9497377 0.46458625 -8.4749413e-21)
(1.8217135 0.21140396 -8.5179371e-20)
(1.806522 -0.137436 1.3616432e-20)
(1.8636922 -0.42400902 -3.672681e-20)
(1.9063965 -0.66556335 -1.3877262e-20)
(1.9302171 -0.8967724 -5.1874112e-20)
(1.9745409 -1.0550058 3.5273954e-20)
(2.0807175 -1.0862436 -1.0763241e-19)
(2.3020007 -0.78931238 4.3290526e-20)
(2.5222716 -0.071211791 -1.6178875e-19)
(2.6308166 0.69855386 -1.7518171e-19)
(2.6574943 1.2091526 -5.9010911e-20)
(2.6475003 1.3416618 -5.6168538e-20)
(2.5947657 1.2068266 1.4369493e-19)
(2.5097318 0.96411332 -2.3005778e-20)
(2.4706249 0.74540718 1.5382279e-20)
(2.4716257 0.57617551 2.0019326e-20)
(2.4665612 0.43399556 -1.4665783e-21)
(2.4738746 0.32964095 -9.7151655e-21)
(2.4889795 0.2542538 1.2163471e-20)
(2.5052496 0.19872848 -1.8177978e-21)
(2.5202156 0.15724347 -1.6000469e-21)
(2.5328881 0.12553605 1.5821142e-21)
(2.5430402 0.10076138 5.6759205e-23)
(2.5507885 0.080707994 -3.6918391e-22)
(2.5564018 0.0641775 -1.0658106e-21)
(2.5601782 0.049785013 -7.6496083e-22)
(2.5623819 0.037339726 -6.6031319e-22)
(2.5633541 0.025588466 2.5565291e-21)
(2.5629122 0.01518124 9.0868637e-22)
(2.5619586 0.0046243494 2.0794665e-21)
(2.1831515 -0.15923815 -6.500824e-20)
(2.1795921 0.21340089 2.3941295e-20)
(2.0633434 0.51101816 3.2638125e-21)
(1.9189262 0.50320068 2.0937711e-19)
(1.7824554 0.23799186 -7.8955411e-20)
(1.766181 -0.13728475 1.3662491e-19)
(1.823613 -0.42472794 2.3890919e-20)
(1.8606243 -0.65870546 3.3430694e-21)
(1.8575299 -0.87804786 -1.8248949e-20)
(1.8529891 -1.029618 9.2757134e-22)
(1.8837824 -1.0537261 6.6028508e-20)
(2.0053032 -0.74702299 -8.0800465e-20)
(2.1609122 -0.00022032896 -1.0233992e-19)
(2.2551093 0.81629015 1.2108792e-19)
(2.3046607 1.362803 1.571124e-19)
(2.3503725 1.5043108 -3.0671011e-19)
(2.3718243 1.3663056 -3.8030319e-20)
(2.3619435 1.1065559 8.3909009e-20)
(2.3428015 0.84259975 -3.6084575e-20)
(2.3711944 0.64700275 3.5332131e-20)
(2.3988753 0.49101399 5.0642325e-21)
(2.418716 0.36824897 -6.5917128e-21)
(2.4444158 0.2814813 -4.0321623e-21)
(2.4697383 0.21890446 -7.819477e-21)
(2.4920845 0.17293009 3.1693671e-21)
(2.5107224 0.13844433 -3.1764675e-22)
(2.5256784 0.11184913 2.0230623e-21)
(2.5372973 0.090815107 -8.1630103e-22)
(2.5460242 0.073512222 2.116548e-21)
(2.552315 0.05901359 -8.8315271e-22)
(2.5565853 0.046142178 2.5028514e-22)
(2.5591583 0.034841498 -1.0489251e-22)
(2.5604315 0.023992493 8.676347e-23)
(2.5602334 0.014286218 4.3350315e-21)
(2.5595052 0.0043753657 -8.391415e-22)
(2.1420596 -0.15339236 2.0490836e-21)
(2.1191537 0.22919147 -1.9854107e-20)
(2.0252149 0.53930575 1.4512255e-20)
(1.8980353 0.53856623 2.0783297e-21)
(1.7572331 0.27138907 -1.6361871e-19)
(1.7273963 -0.12896625 0)
(1.7906485 -0.429909 -1.2338129e-21)
(1.8221159 -0.64986997 1.4237844e-20)
(1.7965971 -0.8550653 5.9939819e-20)
(1.7485015 -0.99332754 -2.0356851e-19)
(1.7102468 -1.0036058 1.1637568e-19)
(1.7319983 -0.68266913 -6.7066797e-19)
(1.8089361 0.076754289 -1.4256438e-19)
(1.8798455 0.92399715 1.9891611e-20)
(1.9451683 1.4953512 8.650986e-21)
(2.0344869 1.6382183 -3.5558456e-19)
(2.1107819 1.498314 3.7808671e-20)
(2.1659764 1.2273744 1.3208563e-19)
(2.1972218 0.94034573 -7.8524113e-21)
(2.240839 0.70703155 2.8988211e-20)
(2.307604 0.54100534 -4.6007264e-21)
(2.3511945 0.40479967 -6.0276621e-21)
(2.389983 0.30566749 -6.6224592e-21)
(2.4265937 0.23613635 1.9560714e-21)
(2.4579328 0.18598201 -6.1962643e-22)
(2.4837365 0.14899955 -5.0067888e-21)
(2.5044075 0.1210106 6.9915324e-21)
(2.5206061 0.099133443 2.0477489e-22)
(2.5330192 0.081548538 -6.1649977e-22)
(2.5422834 0.066787492 -8.3693421e-23)
(2.5489589 0.054172728 4.2750539e-22)
(2.5535275 0.042718821 -9.531941e-22)
(2.5563401 0.032489175 -3.3416495e-22)
(2.5578272 0.022489289 4.5992647e-22)
(2.5578186 0.013443836 -7.6792823e-22)
(2.5572775 0.00414112 6.1577768e-23)
(2.1064334 -0.14535152 -8.5741234e-22)
(2.0638526 0.24322037 6.060164e-20)
(1.994337 0.56269495 1.5559271e-21)
(1.8884736 0.57044748 -1.7302033e-19)
(1.7461591 0.30159986 -1.2295451e-19)
(1.6992338 -0.11324133 5.090763e-20)
(1.7584158 -0.42763857 -9.5862212e-22)
(1.7908055 -0.64354774 7.4437021e-21)
(1.7471549 -0.82884938 -5.2066081e-20)
(1.6617589 -0.94984602 2.1759358e-20)
(1.5636024 -0.94105045 -2.3437914e-19)
(1.4954819 -0.60529225 1.2733755e-18)
(1.489509 0.1553201 -5.7514516e-19)
(1.5298786 1.0161471 1.3947198e-20)
(1.6081119 1.6002307 2.8922839e-20)
(1.7287055 1.7380561 1.5267321e-19)
(1.8429239 1.6020188 -7.0630409e-21)
(1.939467 1.3204686 -8.1261013e-20)
(2.0263451 1.0236018 2.8806035e-20)
(2.095862 0.76149921 4.330426e-22)
(2.189149 0.57582267 -1.5210774e-21)
(2.2690566 0.4353708 -9.4595685e-23)
(2.3254777 0.32508279 3.6008045e-22)
(2.3755563 0.2488399 2.1655016e-20)
(2.4176221 0.19509408 -1.2315716e-20)
(2.4518221 0.15623104 4.1897973e-21)
(2.4791198 0.1273196 -6.7684816e-21)
(2.5005935 0.10514754 4.7562815e-21)
(2.5172455 0.087504499 3.1281e-21)
(2.5299359 0.073029659 -3.0392089e-21)
(2.5393927 0.060574987 -3.9675429e-21)
(2.5462209 0.049680175 2.1727016e-22)
(2.5509306 0.039530145 -9.0150598e-22)
(2.5538771 0.030291574 6.9951902e-23)
(2.5555059 0.02108327 1.3611615e-21)
(2.5556408 0.012655908 -1.9241257e-21)
(2.5552534 0.0039218369 -1.042066e-21)
(2.0768056 -0.13532297 4.8210168e-20)
(2.0158043 0.25479942 3.3709019e-20)
(1.9724535 0.58053138 1.2772255e-20)
(1.8893475 0.59749041 1.4801588e-21)
(1.7525889 0.33123655 3.7646325e-19)
(1.6870264 -0.099997587 2.4578507e-19)
(1.7281918 -0.42180659 2.88307e-20)
(1.7657971 -0.62946616 -1.4127848e-20)
(1.7067035 -0.80348357 -8.6136626e-20)
(1.5930917 -0.90390006 1.0505242e-19)
(1.4447574 -0.8725852 1.2416832e-20)
(1.3023973 -0.52162352 8.5601066e-19)
(1.2203844 0.23257408 1.5521176e-19)
(1.2260219 1.0888342 3.2531919e-19)
(1.3148046 1.6733194 1.297954e-19)
(1.4562952 1.8064508 -8.8676744e-20)
(1.5898583 1.6780562 -1.3363886e-19)
(1.7063449 1.3892302 -1.5834521e-20)
(1.8311435 1.0834864 1.0560711e-19)
(1.9408894 0.80808036 -1.3532056e-20)
(2.0518637 0.59639684 7.6720426e-21)
(2.1686412 0.45290433 1.527932e-20)
(2.2511842 0.33780973 -1.3768331e-20)
(2.3167415 0.25527043 1.0195808e-20)
(2.3713198 0.19889497 -2.339188e-21)
(2.4151335 0.15898197 4.9964996e-21)
(2.4499252 0.12992186 -8.0076707e-21)
(2.4773171 0.10801623 7.727179e-21)
(2.4987061 0.090918408 -3.0454941e-21)
(2.5152331 0.076997787 2.6187354e-21)
(2.5278143 0.0652804 -5.5469204e-22)
(2.537201 0.054888913 2.9634572e-21)
(2.5440018 0.045545239 -2.5994341e-22)
(2.5487284 0.036581947 3.8503442e-24)
(2.5517237 0.028252069 7.7186785e-23)
(2.5534353 0.019775893 -1.0537442e-21)
(2.5536753 0.011922824 3.3469345e-24)
(2.5534129 0.0037174229 1.0262874e-22)
(2.054394 -0.12394551 -1.281318e-21)
(1.9796919 0.26345018 8.4744307e-20)
(1.9609114 0.5922713 -1.0262265e-19)
(1.9004451 0.61909642 5.3519829e-20)
(1.7735001 0.35927402 -1.1607248e-19)
(1.6866991 -0.085738807 6.3211509e-21)
(1.706216 -0.41764983 2.8124513e-21)
(1.744488 -0.6130348 -1.296484e-20)
(1.6818897 -0.77114515 6.8938504e-21)
(1.5366082 -0.85733607 -2.9568133e-19)
(1.353497 -0.80376085 2.005622e-19)
(1.1529685 -0.43621543 -5.0135432e-19)
(1.0094787 0.30513706 3.5948662e-19)
(0.98195693 1.1422645 -2.3200126e-19)
(1.0786779 1.7167451 7.5255728e-20)
(1.2313915 1.8483585 3.2938341e-20)
(1.3665784 1.7298296 -1.3625609e-19)
(1.4830495 1.4394524 1.6333495e-19)
(1.6230002 1.1227562 -1.5621302e-19)
(1.7717268 0.83911179 9.2956103e-20)
(1.9070306 0.60744459 7.1277968e-21)
(2.0502914 0.452814 4.5708021e-21)
(2.1667097 0.3403885 1.5112497e-21)
(2.250879 0.25386879 -1.3132574e-20)
(2.3195139 0.19592581 8.9162522e-21)
(2.3741198 0.15612102 2.3015122e-21)