/*--------------------------------*- C++ -*----------------------------------*\
| =========                 |                                                 |
| \\      /  F ield         | OpenFOAM: The Open Source CFD Toolbox           |
|  \\    /   O peration     | Version:  v2012                                 |
|   \\  /    A nd           | Website:  www.openfoam.com                      |
|    \\/     M anipulation  |                                                 |
\*---------------------------------------------------------------------------*/
FoamFile
{
    version     2.0;
    format      ascii;
    class       volVectorField;
    location    "86.6716637397513807";
    object      cellDisplacement;
}
// * * * * * * * * * * * * * * * * * * * * * * * * * * * * * * * * * * * * * //

dimensions      [0 1 0 0 0 0 0];


internalField   nonuniform List<vector> 
9200
(
(0.052028687 0 0)
(0.052287695 0 0)
(0.15138024 0 0)
(0.052668701 0 0)
(0.15202876 0 0)
(0.24439699 0 0)
(0.053150914 0 0)
(0.15308672 0 0)
(0.24538794 0 0)
(0.33136458 0 0)
(0.053662483 0 0)
(0.1543689 0 0)
(0.24699352 0 0)
(0.33263925 0 0)
(0.41254645 0 0)
(0.054190583 0 0)
(0.15578278 0 0)
(0.24900104 0 0)
(0.33476164 0 0)
(0.41409364 0 0)
(0.48824643 0 0)
(0.054713218 0 0)
(0.15724411 0 0)
(0.25121843 0 0)
(0.33740452 0 0)
(0.41666137 0 0)
(0.49003428 0 0)
(0.55874673 0 0)
(0.055219982 0 0)
(0.15869813 0 0)
(0.2535134 0 0)
(0.34034255 0 0)
(0.41990147 0 0)
(0.49304119 0 0)
(0.56077254 0 0)
(0.62434885 0 0)
(0.055701937 0 0)
(0.16010808 0 0)
(0.25580203 0 0)
(0.34340028 0 0)
(0.42351096 0 0)
(0.49682481 0 0)
(0.56417502 0 0)
(0.62659527 0 0)
(0.68532589 0 0)
(0.056152995 0 0)
(0.16145051 0 0)
(0.25802671 0 0)
(0.34645889 0 0)
(0.42728152 0 0)
(0.50106473 0 0)
(0.56849123 0 0)
(0.6303982 0 0)
(0.68779452 0 0)
(0.74196203 0 0)
(0.056570673 0 0)
(0.1627085 0 0)
(0.26014503 0 0)
(0.34943159 0 0)
(0.43105408 0 0)
(0.50550329 0 0)
(0.57333322 0 0)
(0.6352123 0 0)
(0.69196876 0 0)
(0.74464223 0 0)
(0.79451008 0 0)
(0.05695287 0 0)
(0.16387254 0 0)
(0.26213112 0 0)
(0.35226544 0 0)
(0.43472884 0 0)
(0.50995759 0 0)
(0.57841422 0 0)
(0.64063424 0 0)
(0.69728468 0 0)
(0.749198 0 0)
(0.79740368 0 0)
(0.8432305 0 0)
(0.057300231 0 0)
(0.16493876 0 0)
(0.26396936 0 0)
(0.35492317 0 0)
(0.43823323 0 0)
(0.51430138 0 0)
(0.5835279 0 0)
(0.64634359 0 0)
(0.70327824 0 0)
(0.75499368 0 0)
(0.80232226 0 0)
(0.84633169 0 0)
(0.88835232 0 0)
(0.057613018 0 0)
(0.16590641 0 0)
(0.26565265 0 0)
(0.35738435 0 0)
(0.44152315 0 0)
(0.51844781 0 0)
(0.58851789 0 0)
(0.65209557 0 0)
(0.70959826 0 0)
(0.76154604 0 0)
(0.80860606 0 0)
(0.85162334 0 0)
(0.89166299 0 0)
(0.93011127 0 0)
(0.05789361 0 0)
(0.16677877 0 0)
(0.2671807 0 0)
(0.35963913 0 0)
(0.44457108 0 0)
(0.52234208 0 0)
(0.59328668 0 0)
(0.65772138 0 0)
(0.71598273 0 0)
(0.7684746 0 0)
(0.81571891 0 0)
(0.85837951 0 0)
(0.89731356 0 0)
(0.93362745 0 0)
(0.96871255 0 0)
(0.058143393 0 0)
(0.16755965 0 0)
(0.26855692 0 0)
(0.36168624 0 0)
(0.4473648 0 0)
(0.52595282 0 0)
(0.59777021 0 0)
(0.66310474 0 0)
(0.72223959 0 0)
(0.77548717 0 0)
(0.82324941 0 0)
(0.86604656 0 0)
(0.90455456 0 0)
(0.93964647 0 0)
(0.97243484 0 0)
(1.0043679 0 0)
(0.058365409 0 0)
(0.16825578 0 0)
(0.26978898 0 0)
(0.36353099 0 0)
(0.44990262 0 0)
(0.52926344 0 0)
(0.60192877 0 0)
(0.66816882 0 0)
(0.7282303 0 0)
(0.78236775 0 0)
(0.83088625 0 0)
(0.87418123 0 0)
(0.91277901 0 0)
(0.94735828 0 0)
(0.97881116 0 0)
(1.0082932 0 0)
(1.0372597 0 0)
(0.058561448 0 0)
(0.16887276 0 0)
(0.27088525 0 0)
(0.36518229 0 0)
(0.45218997 0 0)
(0.53227207 0 0)
(0.60574488 0 0)
(0.67286964 0 0)
(0.73387178 0 0)
(0.78896775 0 0)
(0.83839297 0 0)
(0.88244188 0 0)
(0.92151473 0 0)
(0.95613587 0 0)
(0.98700469 0 0)
(1.0150334 0 0)
(1.0413873 0 0)
(1.0675772 0 0)
(0.058734282 0 0)
(0.16941801 0 0)
(0.27185683 0 0)
(0.36665266 0 0)
(0.45423896 0 0)
(0.53498478 0 0)
(0.60921341 0 0)
(0.67718608 0 0)
(0.73911359 0 0)
(0.79518906 0 0)
(0.84560636 0 0)
(0.89057999 0 0)
(0.93040397 0 0)
(0.96547841 0 0)
(0.99634 0 0)
(1.0236951 0 0)
(1.048481 0 0)
(1.0719039 0 0)
(1.095482 0 0)
(0.058886054 0 0)
(0.16989792 0 0)
(0.2727137 0 0)
(0.36795528 0 0)
(0.45606332 0 0)
(0.53741488 0 0)
(0.61234267 0 0)
(0.6811122 0 0)
(0.74392965 0 0)
(0.80097445 0 0)
(0.8524118 0 0)
(0.8984079 0 0)
(0.93917213 0 0)
(0.97499593 0 0)
(1.0062865 0 0)
(1.0335838 0 0)
(1.0576206 0 0)
(1.0793547 0 0)
(1.1000056 0 0)
(1.121143 0 0)
(0.059019074 0 0)
(0.17031941 0 0)
(0.27346754 0 0)
(0.36910507 0 0)
(0.45768114 0 0)
(0.53957974 0 0)
(0.61514595 0 0)
(0.68465607 0 0)
(0.7483149 0 0)
(0.80629403 0 0)
(0.85874554 0 0)
(0.90580578 0 0)
(0.94762348 0 0)
(0.98440165 0 0)
(1.016438 0 0)
(1.0441389 0 0)
(1.0680645 0 0)
(1.0889577 0 0)
(1.1078035 0 0)
(1.1258597 0 0)
(1.1447028 0 0)
(0.059135457 0 0)
(0.17068863 0 0)
(0.27412812 0 0)
(0.37011604 0 0)
(0.45910864 0 0)
(0.54149869 0 0)
(0.61764392 0 0)
(0.68783288 0 0)
(0.75227486 0 0)
(0.81114192 0 0)
(0.86457703 0 0)
(0.91269933 0 0)
(0.95562319 0 0)
(0.99348255 0 0)
(1.0264831 0 0)
(1.0549241 0 0)
(1.0792243 0 0)
(1.0999507 0 0)
(1.1178759 0 0)
(1.1340048 0 0)
(1.1496091 0 0)
(1.1663114 0 0)
(0.05923684 0 0)
(0.17101113 0 0)
(0.27470631 0 0)
(0.37100267 0 0)
(0.46036522 0 0)
(0.54319328 0 0)
(0.61985793 0 0)
(0.6906646 0 0)
(0.75582832 0 0)
(0.81552318 0 0)
(0.86989383 0 0)
(0.91905087 0 0)
(0.96308481 0 0)
(1.0020897 0 0)
(1.0361983 0 0)
(1.0656155 0 0)
(1.0906476 0 0)
(1.1117178 0 0)
(1.1294174 0 0)
(1.1445309 0 0)
(1.1580912 0 0)
(1.1714031 0 0)
(1.1860947 0 0)
(0.059325349 0 0)
(0.17129281 0 0)
(0.27521084 0 0)
(0.37177807 0 0)
(0.4614666 0 0)
(0.54468384 0 0)
(0.62181323 0 0)
(0.69317602 0 0)
(0.75899659 0 0)
(0.81945698 0 0)
(0.874705 0 0)
(0.92484793 0 0)
(0.96996638 0 0)
(1.0101308 0 0)
(1.0454223 0 0)
(1.0759695 0 0)
(1.1019855 0 0)
(1.1237773 0 0)
(1.1417859 0 0)
(1.1566131 0 0)
(1.1690741 0 0)
(1.1802192 0 0)
(1.1913672 0 0)
(1.2041861 0 0)
(0.059402089 0 0)
(0.17153766 0 0)
(0.27565091 0 0)
(0.37245504 0 0)
(0.46243107 0 0)
(0.54599204 0 0)
(0.62353264 0 0)
(0.69539385 0 0)
(0.76180913 0 0)
(0.82296737 0 0)
(0.87902636 0 0)
(0.93009784 0 0)
(0.97625474 0 0)
(1.0175554 0 0)
(1.0540549 0 0)
(1.0858207 0 0)
(1.1129862 0 0)
(1.1357679 0 0)
(1.1544837 0 0)
(1.169582 0 0)
(1.1816928 0 0)
(1.191642 0 0)
(1.2005067 0 0)
(1.2096342 0 0)
(1.220696 0 0)
(0.059469016 0 0)
(0.17175119 0 0)
(0.27603416 0 0)
(0.37304495 0 0)
(0.46327231 0 0)
(0.54713618 0 0)
(0.62504131 0 0)
(0.69734549 0 0)
(0.76429317 0 0)
(0.82608449 0 0)
(0.88288689 0 0)
(0.93481831 0 0)
(0.9819535 0 0)
(1.0243459 0 0)
(1.0620319 0 0)
(1.0950456 0 0)
(1.1234622 0 0)
(1.1474161 0 0)
(1.1671254 0 0)
(1.1829138 0 0)
(1.1952538 0 0)
(1.2047868 0 0)
(1.2123689 0 0)
(1.2190916 0 0)
(1.2263144 0 0)
(1.2357425 0 0)
(0.05952673 0 0)
(0.17193632 0 0)
(0.27636794 0 0)
(0.37355855 0 0)
(0.4640064 0 0)
(0.54813613 0 0)
(0.62636045 0 0)
(0.69905712 0 0)
(0.7664807 0 0)
(0.82883989 0 0)
(0.88631579 0 0)
(0.93903821 0 0)
(0.98708419 0 0)
(1.0305055 0 0)
(1.0693354 0 0)
(1.1035916 0 0)
(1.1333016 0 0)
(1.1585339 0 0)
(1.1794292 0 0)
(1.1962105 0 0)
(1.2092182 0 0)
(1.2189358 0 0)
(1.2260328 0 0)
(1.2313752 0 0)
(1.2360787 0 0)
(1.2415254 0 0)
(1.2494227 0 0)
(0.059577119 0 0)
(0.1720977 0 0)
(0.27665834 0 0)
(0.37400529 0 0)
(0.46464472 0 0)
(0.5490073 0 0)
(0.62751296 0 0)
(0.70055484 0 0)
(0.76839909 0 0)
(0.83126616 0 0)
(0.88934936 0 0)
(0.94279034 0 0)
(0.99167352 0 0)
(1.0360566 0 0)
(1.0759707 0 0)
(1.1114239 0 0)
(1.1424189 0 0)
(1.1689802 0 0)
(1.1911849 0 0)
(1.2091694 0 0)
(1.2231658 0 0)
(1.2335256 0 0)
(1.2407585 0 0)
(1.2455455 0 0)
(1.2487804 0 0)
(1.2515889 0 0)
(1.2553644 0 0)
(1.2618411 0 0)
(0.059620205 0 0)
(0.17223713 0 0)
(0.27691124 0 0)
(0.3743939 0 0)
(0.46520066 0 0)
(0.54976665 0 0)
(0.62851676 0 0)
(0.70186194 0 0)
(0.77007859 0 0)
(0.83339581 0 0)
(0.89202105 0 0)
(0.94611171 0 0)
(0.99575925 0 0)
(1.0410269 0 0)
(1.0819529 0 0)
(1.1185449 0 0)
(1.1507922 0 0)
(1.1786889 0 0)
(1.2022608 0 0)
(1.2215774 0 0)
(1.2367844 0 0)
(1.2481239 0 0)
(1.2559686 0 0)
(1.2608401 0 0)
(1.263447 0 0)
(1.26469 0 0)
(1.2657157 0 0)
(1.2679353 0 0)
(1.2730829 0 0)
(0.059660159 0 0)
(0.17235887 0 0)
(0.27713143 0 0)
(0.37473193 0 0)
(0.46568345 0 0)
(0.55042667 0 0)
(0.62939167 0 0)
(0.70300153 0 0)
(0.77154398 0 0)
(0.83525942 0 0)
(0.8943673 0 0)
(0.94903995 0 0)
(0.99937762 0 0)
(1.0454554 0 0)
(1.0873184 0 0)
(1.1249764 0 0)
(1.1584162 0 0)
(1.1876168 0 0)
(1.2125632 0 0)
(1.2332771 0 0)
(1.2498406 0 0)
(1.2623993 0 0)
(1.2712105 0 0)
(1.2766601 0 0)
(1.2792965 0 0)
(1.2798381 0 0)
(1.2792101 0 0)
(1.2785653 0 0)
(1.2793234 0 0)
(1.2832401 0 0)
(0.059441534 0 0)
(0.17247017 0 0)
(0.27732389 0 0)
(0.3750266 0 0)
(0.46610395 0 0)
(0.55100165 0 0)
(0.6301521 0 0)
(0.70399299 0 0)
(0.77282169 0 0)
(0.83688688 0 0)
(0.89642061 0 0)
(0.95161266 0 0)
(1.0025715 0 0)
(1.0493812 0 0)
(1.0921 0 0)
(1.1307468 0 0)
(1.1653088 0 0)
(1.1957565 0 0)
(1.2220548 0 0)
(1.244188 0 0)
(1.2621825 0 0)
(1.2761136 0 0)
(1.286143 0 0)
(1.2925413 0 0)
(1.2957174 0 0)
(1.2962315 0 0)
(1.2948272 0 0)
(1.2924335 0 0)
(1.2902204 0 0)
(1.2896205 0 0)
(1.2923872 0 0)
(0.059168882 0 0)
(0.17200866 0 0)
(0.27750165 0 0)
(0.37528332 0 0)
(0.46646981 0 0)
(0.55150124 0 0)
(0.63081418 0 0)
(0.70485569 0 0)
(0.77393283 0 0)
(0.83830475 0 0)
(0.89821377 0 0)
(0.95386662 0 0)
(1.0053788 0 0)
(1.0528482 0 0)
(1.0963455 0 0)
(1.1358988 0 0)
(1.1715007 0 0)
(1.2031236 0 0)
(1.2307235 0 0)
(1.2542558 0 0)
(1.2737021 0 0)
(1.2890905 0 0)
(1.3005093 0 0)
(1.3081247 0 0)
(1.3122273 0 0)
(1.3132399 0 0)
(1.311748 0 0)
(1.3085032 0 0)
(1.3044546 0 0)
(1.3007744 0 0)
(1.2989015 0 0)
(1.3006055 0 0)
(0.058922828 0 0)
(0.17118478 0 0)
(0.27682152 0 0)
(0.37552095 0 0)
(0.4667888 0 0)
(0.55193678 0 0)
(0.63138957 0 0)
(0.7056053 0 0)
(0.77489948 0 0)
(0.8395388 0 0)
(0.89977603 0 0)
(0.95583595 0 0)
(1.0078409 0 0)
(1.0558985 0 0)
(1.1000952 0 0)
(1.1404735 0 0)
(1.1770339 0 0)
(1.2097513 0 0)
(1.2385799 0 0)
(1.2634649 0 0)
(1.2843551 0 0)
(1.3012339 0 0)
(1.3141356 0 0)
(1.3231477 0 0)
(1.3284575 0 0)
(1.3303702 0 0)
(1.3293314 0 0)
(1.3259376 0 0)
(1.3209621 0 0)
(1.3153548 0 0)
(1.3103004 0 0)
(1.3072474 0 0)
(1.3079599 0 0)
(0.058704646 0 0)
(0.17044467 0 0)
(0.27550376 0 0)
(0.37464219 0 0)
(0.46708309 0 0)
(0.55231642 0 0)
(0.63189101 0 0)
(0.70625769 0 0)
(0.77573898 0 0)
(0.84061115 0 0)
(0.901135 0 0)
(0.95755346 0 0)
(1.0099929 0 0)
(1.0585743 0 0)
(1.1033985 0 0)
(1.1445215 0 0)
(1.1819533 0 0)
(1.2156788 0 0)
(1.2456564 0 0)
(1.271824 0 0)
(1.294115 0 0)
(1.3124787 0 0)
(1.3268997 0 0)
(1.3374146 0 0)
(1.3441286 0 0)
(1.3472374 0 0)
(1.3470681 0 0)
(1.3440798 0 0)
(1.3388916 0 0)
(1.3322825 0 0)
(1.3252175 0 0)
(1.3188809 0 0)
(1.3147234 0 0)
(1.3145216 0 0)
(0.058515211 0 0)
(0.16978735 0 0)
(0.27432052 0 0)
(0.37287824 0 0)
(0.46602805 0 0)
(0.55266634 0 0)
(0.63232843 0 0)
(0.7068255 0 0)
(0.77646906 0 0)
(0.84154302 0 0)
(0.90231593 0 0)
(0.95904847 0 0)
(1.0118718 0 0)
(1.0609155 0 0)
(1.1062962 0 0)
(1.1480869 0 0)
(1.1863087 0 0)
(1.2209561 0 0)
(1.251993 0 0)
(1.2793611 0 0)
(1.302988 0 0)
(1.3228 0 0)
(1.3387443 0 0)
(1.350811 0 0)
(1.3590449 0 0)
(1.3635559 0 0)
(1.364564 0 0)
(1.3624109 0 0)
(1.3575772 0 0)
(1.3506911 0 0)
(1.3425493 0 0)
(1.3341144 0 0)
(1.3265796 0 0)
(1.3214008 0 0)
(1.3203473 0 0)
(0.058356863 0 0)
(0.16921905 0 0)
(0.27327076 0 0)
(0.3712944 0 0)
(0.46386314 0 0)
(0.55145663 0 0)
(0.63273057 0 0)
(0.70732059 0 0)
(0.77710431 0 0)
(0.84235242 0 0)
(0.90334125 0 0)
(0.96034892 0 0)
(1.013508 0 0)
(1.0629593 0 0)
(1.1088339 0 0)
(1.1512203 0 0)
(1.1901501 0 0)
(1.2256316 0 0)
(1.2576406 0 0)
(1.2861212 0 0)
(1.3110011 0 0)
(1.3321994 0 0)
(1.349636 0 0)
(1.3632607 0 0)
(1.3730681 0 0)
(1.3791107 0 0)
(1.3815186 0 0)
(1.3805223 0 0)
(1.3764858 0 0)
(1.3699016 0 0)
(1.3614172 0 0)
(1.351832 0 0)
(1.3421195 0 0)
(1.3334692 0 0)
(1.3273362 0 0)
(1.3254991 0 0)
(0.058230129 0 0)
(0.16874298 0 0)
(0.272363 0 0)
(0.36989031 0 0)
(0.46192008 0 0)
(0.54893377 0 0)
(0.6313836 0 0)
(0.70777554 0 0)
(0.7776574 0 0)
(0.84305596 0 0)
(0.90423205 0 0)
(0.96147892 0 0)
(1.0149324 0 0)
(1.0647408 0 0)
(1.111049 0 0)
(1.1539634 0 0)
(1.1935266 0 0)
(1.2297601 0 0)
(1.26265 0 0)
(1.292151 0 0)
(1.318196 0 0)
(1.3406998 0 0)
(1.3595705 0 0)
(1.3747291 0 0)
(1.3861278 0 0)
(1.3937682 0 0)
(1.3977148 0 0)
(1.398107 0 0)
(1.3952004 0 0)
(1.3893725 0 0)
(1.3811348 0 0)
(1.3711415 0 0)
(1.3602057 0 0)
(1.3492954 0 0)
(1.3396053 0 0)
(1.3325923 0 0)
(1.3300264 0 0)
(0.058136764 0 0)
(0.1683638 0 0)
(0.27160357 0 0)
(0.36867604 0 0)
(0.4601977 0 0)
(0.54667023 0 0)
(0.62853965 0 0)
(0.7063073 0 0)
(0.77816519 0 0)
(0.84366916 0 0)
(0.90500587 0 0)
(0.96246112 0 0)
(1.0161705 0 0)
(1.0662913 0 0)
(1.1129808 0 0)
(1.1563618 0 0)
(1.1964867 0 0)
(1.2333911 0 0)
(1.2670771 0 0)
(1.2975078 0 0)
(1.3246228 0 0)
(1.3483422 0 0)
(1.3685702 0 0)
(1.3852087 0 0)
(1.3981788 0 0)
(1.4074394 0 0)
(1.4129979 0 0)
(1.4149314 0 0)
(1.4134011 0 0)
(1.408674 0 0)
(1.4011488 0 0)
(1.3913462 0 0)
(1.3799362 0 0)
(1.3677319 0 0)
(1.3557074 0 0)
(1.3450517 0 0)
(1.3372179 0 0)
(1.3339832 0 0)
(0.058076923 0 0)
(0.16808368 0 0)
(0.27099849 0 0)
(0.36766079 0 0)
(0.45870846 0 0)
(0.54466384 0 0)
(0.62598902 0 0)
(0.70317627 0 0)
(0.77659091 0 0)
(0.84422914 0 0)
(0.90568067 0 0)
(0.96331561 0 0)
(1.0172475 0 0)
(1.0676402 0 0)
(1.1146619 0 0)
(1.1584527 0 0)
(1.1990746 0 0)
(1.2365771 0 0)
(1.2709751 0 0)
(1.3022447 0 0)
(1.3303375 0 0)
(1.3551786 0 0)
(1.3766733 0 0)
(1.394718 0 0)
(1.4092115 0 0)
(1.4200784 0 0)
(1.4272825 0 0)
(1.4308427 0 0)
(1.4308509 0 0)
(1.4274802 0 0)
(1.4210217 0 0)
(1.4118856 0 0)
(1.4006087 0 0)
(1.387865 0 0)
(1.3744767 0 0)
(1.3614102 0 0)
(1.3498566 0 0)
(1.3412678 0 0)
(1.3374125 0 0)
(0.058051695 0 0)
(0.16790537 0 0)
(0.27055216 0 0)
(0.36685196 0 0)
(0.45746338 0 0)
(0.54292929 0 0)
(0.62372823 0 0)
(0.70036848 0 0)
(0.77320282 0 0)
(0.84256528 0 0)
(0.90629621 0 0)
(0.9640592 0 0)
(1.0181845 0 0)
(1.068813 0 0)
(1.1161244 0 0)
(1.1602747 0 0)
(1.2013335 0 0)
(1.239364 0 0)
(1.2743974 0 0)
(1.3064212 0 0)
(1.3353978 0 0)
(1.3612643 0 0)
(1.3839314 0 0)
(1.4032933 0 0)
(1.4192391 0 0)
(1.4316693 0 0)
(1.4405118 0 0)
(1.4457386 0 0)
(1.4473785 0 0)
(1.4455395 0 0)
(1.4404163 0 0)
(1.4323109 0 0)
(1.4216525 0 0)
(1.4089842 0 0)
(1.3949919 0 0)
(1.3804947 0 0)
(1.3664614 0 0)
(1.3540761 0 0)
(1.3447846 0 0)
(1.3403614 0 0)
(0.16783017 0 0)
(0.058052618 0 0)
(0.27026807 0 0)
(0.36625565 0 0)
(0.45647163 0 0)
(0.54147938 0 0)
(0.62177425 0 0)
(0.69788027 0 0)
(0.7701645 0 0)
(0.83894784 0 0)
(0.90455829 0 0)
(0.96473724 0 0)
(1.0189998 0 0)
(1.0698331 0 0)
(1.1173961 0 0)
(1.1618596 0 0)
(1.2033014 0 0)
(1.2417979 0 0)
(1.2773939 0 0)
(1.3100896 0 0)
(1.3398623 0 0)
(1.36666 0 0)
(1.390401 0 0)
(1.4109842 0 0)
(1.4282967 0 0)
(1.4422238 0 0)
(1.4526668 0 0)
(1.4595605 0 0)
(1.4628838 0 0)
(1.4626813 0 0)
(1.4590775 0 0)
(1.4522797 0 0)
(1.442612 0 0)
(1.4305128 0 0)
(1.4165376 0 0)
(1.4013731 0 0)
(1.3858439 0 0)
(1.3709089 0 0)
(1.3577521 0 0)
(1.3478157 0 0)
(1.3428672 0 0)
(0.27014904 0 0)
(0.1678342 0 0)
(0.058080024 0 0)
(0.36587649 0 0)
(0.45574062 0 0)
(0.54032468 0 0)
(0.62014145 0 0)
(0.69572999 0 0)
(0.76747303 0 0)
(0.83570607 0 0)
(0.90074137 0 0)
(0.96293838 0 0)
(1.0197418 0 0)
(1.0707217 0 0)
(1.118502 0 0)
(1.1632385 0 0)
(1.2050148 0 0)
(1.2439192 0 0)
(1.2800121 0 0)
(1.3133052 0 0)
(1.3437885 0 0)
(1.3714247 0 0)
(1.396144 0 0)
(1.4178504 0 0)
(1.4364334 0 0)
(1.4517743 0 0)
(1.4637556 0 0)
(1.4722827 0 0)
(1.477297 0 0)
(1.4787898 0 0)
(1.4768181 0 0)
(1.4715243 0 0)
(1.4631356 0 0)
(1.4519857 0 0)
(1.4385288 0 0)
(1.4233241 0 0)
(1.407066 0 0)
(1.3905725 0 0)
(1.3748031 0 0)
(1.3609331 0 0)
(1.3503984 0 0)
(1.3449705 0 0)
(0.36571778 0 0)
(0.27015616 0 0)
(0.16791758 0 0)
(0.058141825 0 0)
(0.45527588 0 0)
(0.53947366 0 0)
(0.61884139 0 0)
(0.69393309 0 0)
(0.76514691 0 0)
(0.83283355 0 0)
(0.89732214 0 0)
(0.95894698 0 0)
(1.0178952 0 0)
(1.0715269 0 0)
(1.1194659 0 0)
(1.1644384 0 0)
(1.2065052 0 0)
(1.2457666 0 0)
(1.2822959 0 0)
(1.3161157 0 0)
(1.3472314 0 0)
(1.3756194 0 0)
(1.4012214 0 0)
(1.4239518 0 0)
(1.4437066 0 0)
(1.4603663 0 0)
(1.4738058 0 0)
(1.4839102 0 0)
(1.4905891 0 0)
(1.4937928 0 0)
(1.4935235 0 0)
(1.4898569 0 0)
(1.4829513 0 0)
(1.4730465 0 0)
(1.4604949 0 0)
(1.4457573 0 0)
(1.4294018 0 0)
(1.4121199 0 0)
(1.3947317 0 0)
(1.3781858 0 0)
(1.3636562 0 0)
(1.3525738 0 0)
(1.346704 0 0)
(0.45508165 0 0)
(0.36572824 0 0)
(0.27028965 0 0)
(0.16810411 0 0)
(0.058237469 0 0)
(0.53893287 0 0)
(0.61788486 0 0)
(0.69250314 0 0)
(0.76320374 0 0)
(0.83035208 0 0)
(0.89429258 0 0)
(0.95537066 0 0)
(1.013751 0 0)
(1.0696451 0 0)
(1.1203375 0 0)
(1.1654822 0 0)
(1.2078018 0 0)
(1.247374 0 0)
(1.2842854 0 0)
(1.318569 0 0)
(1.3502436 0 0)
(1.3793005 0 0)
(1.4056957 0 0)
(1.4293539 0 0)
(1.4501793 0 0)
(1.4680581 0 0)
(1.4828635 0 0)
(1.4944683 0 0)
(1.5027593 0 0)
(1.5076542 0 0)
(1.5091114 0 0)
(1.5071493 0 0)
(1.5018577 0 0)
(1.493413 0 0)
(1.4820718 0 0)
(1.4681945 0 0)
(1.4522541 0 0)
(1.4348195 0 0)
(1.4165857 0 0)
(1.3983636 0 0)
(1.3811012 0 0)
(1.3659634 0 0)
(1.3543746 0 0)
(1.3481026 0 0)
(0.53870763 0 0)
(0.4550948 0 0)
(0.36590733 0 0)
(0.27058782 0 0)
(0.16839265 0 0)
(0.058366312 0 0)
(0.61727763 0 0)
(0.69145038 0 0)
(0.76165742 0 0)
(0.82827892 0 0)
(0.89167606 0 0)
(0.95220357 0 0)
(1.0100382 0 0)
(1.0653676 0 0)
(1.1184304 0 0)
(1.1664262 0 0)
(1.2089312 0 0)
(1.2487725 0 0)
(1.286017 0 0)
(1.3207066 0 0)
(1.3528734 0 0)
(1.3825236 0 0)
(1.409626 0 0)
(1.4341183 0 0)
(1.4559163 0 0)
(1.4749131 0 0)
(1.4909846 0 0)
(1.5040001 0 0)
(1.5138314 0 0)
(1.5203702 0 0)
(1.5235413 0 0)
(1.5233161 0 0)
(1.5197267 0 0)
(1.5128821 0 0)
(1.5029731 0 0)
(1.4902677 0 0)
(1.4751408 0 0)
(1.4580698 0 0)
(1.4396289 0 0)
(1.4205063 0 0)
(1.4015129 0 0)
(1.3835859 0 0)
(1.3678874 0 0)
(1.355836 0 0)
(1.3491948 0 0)
(0.61702675 0 0)
(0.53872356 0 0)
(0.45531485 0 0)
(0.36630739 0 0)
(0.27104842 0 0)
(0.16878024 0 0)
(0.058527088 0 0)
(0.69078313 0 0)
(0.76051936 0 0)
(0.82662954 0 0)
(0.88949022 0 0)
(0.94946753 0 0)
(1.0067513 0 0)
(1.0615386 0 0)
(1.1140391 0 0)
(1.164501 0 0)
(1.2099487 0 0)
(1.2499909 0 0)
(1.2875245 0 0)
(1.322568 0 0)
(1.3551662 0 0)
(1.3853391 0 0)
(1.41307 0 0)
(1.4383085 0 0)
(1.4609827 0 0)
(1.4809967 0 0)
(1.4982328 0 0)
(1.51256 0 0)
(1.5238442 0 0)
(1.5319598 0 0)
(1.5368036 0 0)
(1.5383104 0 0)
(1.5364637 0 0)
(1.531314 0 0)
(1.5229843 0 0)
(1.5116818 0 0)
(1.497688 0 0)
(1.4813835 0 0)
(1.4632543 0 0)
(1.443873 0 0)
(1.4239271 0 0)
(1.4042168 0 0)
(1.385678 0 0)
(1.369464 0 0)
(1.3569869 0 0)
(1.3500093 0 0)
(0.69050724 0 0)
(0.61704671 0 0)
(0.53898109 0 0)
(0.45580618 0 0)
(0.36692417 0 0)
(0.27166752 0 0)
(0.16926543 0 0)
(0.058718987 0 0)
(0.75979849 0 0)
(0.82541594 0 0)
(0.88775155 0 0)
(0.94718271 0 0)
(1.0039117 0 0)
(1.0581476 0 0)
(1.1101105 0 0)
(1.1600125 0 0)
(1.2080177 0 0)
(1.2510866 0 0)
(1.2888361 0 0)
(1.3241885 0 0)
(1.3571629 0 0)
(1.387795 0 0)
(1.4160807 0 0)
(1.4419823 0 0)
(1.4654422 0 0)
(1.486376 0 0)
(1.5046742 0 0)
(1.5202108 0 0)
(1.5328511 0 0)
(1.54246 0 0)
(1.5489142 0 0)
(1.5521185 0 0)
(1.5520175 0 0)
(1.5486113 0 0)
(1.5419653 0 0)
(1.5322205 0 0)
(1.5195963 0 0)
(1.5043836 0 0)
(1.486973 0 0)
(1.4678529 0 0)
(1.4475978 0 0)
(1.4268855 0 0)
(1.4065141 0 0)
(1.3874098 0 0)
(1.3707221 0 0)
(1.357856 0 0)
(1.3505712 0 0)
(0.75950083 0 0)
(0.6905304 0 0)
(0.61733901 0 0)
(0.53955404 0 0)
(0.45656356 0 0)
(0.36775404 0 0)
(0.27244074 0 0)
(0.16984281 0 0)
(0.058939888 0 0)
(0.82464698 0 0)
(0.88647262 0 0)
(0.94536487 0 0)
(1.0015413 0 0)
(1.0552201 0 0)
(1.1066315 0 0)
(1.1559956 0 0)
(1.2034437 0 0)
(1.249158 0 0)
(1.2900149 0 0)
(1.3255981 0 0)
(1.3589008 0 0)
(1.3899344 0 0)
(1.4187082 0 0)
(1.4451969 0 0)
(1.4693564 0 0)
(1.4911161 0 0)
(1.5103773 0 0)
(1.5270207 0 0)
(1.5409151 0 0)
(1.551923 0 0)
(1.5599077 0 0)
(1.5647515 0 0)
(1.5663683 0 0)
(1.5647165 0 0)
(1.5598103 0 0)
(1.5517336 0 0)
(1.5406404 0 0)
(1.5267632 0 0)
(1.5104032 0 0)
(1.4919542 0 0)
(1.4719101 0 0)
(1.4508412 0 0)
(1.4294211 0 0)
(1.4084374 0 0)
(1.3888144 0 0)
(1.3716911 0 0)
(1.3584688 0 0)
(1.3509066 0 0)
(0.82433035 0 0)
(0.75952669 0 0)
(0.69085199 0 0)
(0.61798595 0 0)
(0.5404384 0 0)
(0.45758275 0 0)
(0.36879012 0 0)
(0.27336236 0 0)
(0.17050996 0 0)
(0.059188747 0 0)
(0.8856625 0 0)
(0.94402776 0 0)
(0.99965551 0 0)
(1.0527756 0 0)
(1.1036292 0 0)
(1.152442 0 0)
(1.1993546 0 0)
(1.2445139 0 0)
(1.2880956 0 0)
(1.3268631 0 0)
(1.3604141 0 0)
(1.3917967 0 0)
(1.420998 0 0)
(1.4480036 0 0)
(1.4727834 0 0)
(1.4952808 0 0)
(1.5154087 0 0)
(1.5330574 0 0)
(1.5481024 0 0)
(1.5604076 0 0)
(1.5698315 0 0)
(1.5762406 0 0)
(1.5795235 0 0)
(1.5796054 0 0)
(1.5764578 0 0)
(1.5701127 0 0)
(1.5606686 0 0)
(1.548295 0 0)
(1.5332336 0 0)
(1.5157927 0 0)
(1.4963721 0 0)
(1.475466 0 0)
(1.4536437 0 0)
(1.4315669 0 0)
(1.4100205 0 0)
(1.3899179 0 0)
(1.3723962 0 0)
(1.3588518 0 0)
(1.3510375 0 0)
(0.88532959 0 0)
(0.82435725 0 0)
(0.75987458 0 0)
(0.6915654 0 0)
(0.61898296 0 0)
(0.54162659 0 0)
(0.45885509 0 0)
(0.37002552 0 0)
(0.27442563 0 0)
(0.17126 0 0)
(0.059464478 0 0)
(0.943181 0 0)
(0.99826931 0 0)
(1.0508324 0 0)
(1.1011224 0 0)
(1.1493736 0 0)
(1.1957361 0 0)
(1.2403649 0 0)
(1.2833967 0 0)
(1.3249621 0 0)
(1.361768 0 0)
(1.3934188 0 0)
(1.4229924 0 0)
(1.4504508 0 0)
(1.4757776 0 0)
(1.4989302 0 0)
(1.5198342 0 0)
(1.5383907 0 0)
(1.5544835 0 0)
(1.5679821 0 0)
(1.5787454 0 0)
(1.5866313 0 0)
(1.5915102 0 0)
(1.5932803 0 0)
(1.5918778 0 0)
(1.5872906 0 0)
(1.5795659 0 0)
(1.5688191 0 0)
(1.5552301 0 0)
(1.5390508 0 0)
(1.5205964 0 0)
(1.5002672 0 0)
(1.4785602 0 0)
(1.4560386 0 0)
(1.4333571 0 0)
(1.4112896 0 0)
(1.3907489 0 0)
(1.3728652 0 0)
(1.3590274 0 0)
(1.3509849 0 0)
(0.94283252 0 0)
(0.88535799 0 0)
(0.82472875 0 0)
(0.7606468 0 0)
(0.69266342 0 0)
(0.62032183 0 0)
(0.5431114 0 0)
(0.46037269 0 0)
(0.37145094 0 0)
(0.27562314 0 0)
(0.17209405 0 0)
(0.059685922 0 0)
(0.99739195 0 0)
(1.0494036 0 0)
(1.0991306 0 0)
(1.1468142 0 0)
(1.1926144 0 0)
(1.2366937 0 0)
(1.2791982 0 0)
(1.32022 0 0)
(1.3598947 0 0)
(1.3948673 0 0)
(1.424728 0 0)
(1.4525828 0 0)
(1.4783895 0 0)
(1.502121 0 0)
(1.5237159 0 0)
(1.5430866 0 0)
(1.5601278 0 0)
(1.5747166 0 0)
(1.5867157 0 0)
(1.5959812 0 0)
(1.6023717 0 0)
(1.6057647 0 0)
(1.6060683 0 0)
(1.603233 0 0)
(1.5972613 0 0)
(1.5882179 0 0)
(1.5762308 0 0)
(1.5614926 0 0)
(1.5442609 0 0)
(1.5248556 0 0)
(1.5036797 0 0)
(1.4812284 0 0)
(1.4580612 0 0)
(1.4348182 0 0)
(1.4122739 0 0)
(1.3913336 0 0)
(1.3731201 0 0)
(1.3590171 0 0)
(1.3507468 0 0)
(0.99703211 0 0)
(0.94286208 0 0)
(0.88574921 0 0)
(0.82555129 0 0)
(0.76183457 0 0)
(0.69413883 0 0)
(0.62199366 0 0)
(0.54488052 0 0)
(0.46212352 0 0)
(0.37305614 0 0)
(0.276955 0 0)
(0.17256514 0 0)
(0.059648787 0 0)
(1.0485005 0 0)
(1.0976666 0 0)
(1.1447793 0 0)
(1.1900096 0 0)
(1.2335281 0 0)
(1.275486 0 0)
(1.315984 0 0)
(1.3551185 0 0)
(1.3930284 0 0)
(1.4262771 0 0)
(1.4544378 0 0)
(1.480665 0 0)
(1.5049061 0 0)
(1.527113 0 0)
(1.5472103 0 0)
(1.5651042 0 0)
(1.5806819 0 0)
(1.5938125 0 0)
(1.6043534 0 0)
(1.6121595 0 0)
(1.6170966 0 0)
(1.6190481 0 0)
(1.6179326 0 0)
(1.613715 0 0)
(1.6064154 0 0)
(1.5961125 0 0)
(1.5829488 0 0)
(1.5671245 0 0)
(1.5489036 0 0)
(1.5286103 0 0)
(1.5066459 0 0)
(1.4835057 0 0)
(1.4597379 0 0)
(1.4359794 0 0)
(1.4130006 0 0)
(1.3916965 0 0)
(1.3731834 0 0)
(1.358738 0 0)
(1.3503069 0 0)
(1.0481308 0 0)
(0.99706345 0 0)
(0.94326891 0 0)
(0.88661577 0 0)
(0.82681936 0 0)
(0.76343159 0 0)
(0.6959802 0 0)
(0.62398593 0 0)
(0.54692248 0 0)
(0.46409561 0 0)
(0.37484218 0 0)
(0.27764971 0 0)
(0.17246226 0 0)
(0.059608649 0 0)
(1.0967422 0 0)
(1.1432855 0 0)
(1.1879409 0 0)
(1.2308868 0 0)
(1.2722839 0 0)
(1.3122405 0 0)
(1.3508567 0 0)
(1.3882295 0 0)
(1.4244787 0 0)
(1.4560918 0 0)
(1.4826466 0 0)
(1.5073333 0 0)
(1.5300798 0 0)
(1.5508221 0 0)
(1.5694786 0 0)
(1.5859478 0 0)
(1.6001078 0 0)
(1.6118207 0 0)
(1.6209417 0 0)
(1.6273298 0 0)
(1.6308534 0 0)
(1.6314047 0 0)
(1.6289158 0 0)
(1.6233681 0 0)
(1.6147962 0 0)
(1.6032944 0 0)
(1.5890155 0 0)
(1.5721685 0 0)
(1.5530202 0 0)
(1.5318977 0 0)
(1.5092014 0 0)
(1.4854195 0 0)
(1.4610988 0 0)
(1.4368702 0 0)
(1.4134947 0 0)
(1.3918594 0 0)
(1.3728459 0 0)
(1.3582071 0 0)
(1.349672 0 0)
(1.0963653 0 0)
(1.0481636 0 0)
(0.99748551 0 0)
(0.94417456 0 0)
(0.88795229 0 0)
(0.8285218 0 0)
(0.76542394 0 0)
(0.6981752 0 0)
(0.62628497 0 0)
(0.549222 0 0)
(0.46629014 0 0)
(0.37574143 0 0)
(0.27748559 0 0)
(0.17234931 0 0)
(0.059561466 0 0)
(1.1423418 0 0)
(1.1864217 0 0)
(1.2287904 0 0)
(1.2696144 0 0)
(1.3090114 0 0)
(1.3470897 0 0)
(1.3839508 0 0)
(1.4196692 0 0)
(1.4543424 0 0)
(1.4844094 0 0)
(1.5094477 0 0)
(1.5326675 0 0)
(1.5539794 0 0)
(1.5733142 0 0)
(1.5905824 0 0)
(1.6056725 0 0)
(1.6184545 0 0)
(1.6287866 0 0)
(1.6365243 0 0)
(1.64153 0 0)
(1.6436797 0 0)
(1.6428741 0 0)
(1.6390597 0 0)
(1.6322333 0 0)
(1.6224463 0 0)
(1.6098045 0 0)
(1.5944724 0 0)
(1.5766634 0 0)
(1.5566474 0 0)
(1.5347536 0 0)
(1.5113738 0 0)
(1.4870005 0 0)
(1.462175 0 0)
(1.4375153 0 0)
(1.413779 0 0)
(1.3914521 0 0)
(1.3721538 0 0)
(1.357495 0 0)
(1.3488391 0 0)
(1.1419584 0 0)
(1.0964001 0 0)
(1.0485988 0 0)
(0.99842537 0 0)
(0.94556989 0 0)
(0.88974679 0 0)
(0.83064872 0 0)
(0.76779987 0 0)
(0.70070773 0 0)
(0.62887455 0 0)
(0.55178088 0 0)
(0.46737288 0 0)
(0.37552388 0 0)
(0.27730784 0 0)
(0.17221784 0 0)
(0.059506651 0 0)
(1.1854636 0 0)
(1.2272511 0 0)
(1.2674942 0 0)
(1.3063207 0 0)
(1.3438429 0 0)
(1.3801691 0 0)
(1.4153815 0 0)
(1.449532 0 0)
(1.4827181 0 0)
(1.5113259 0 0)
(1.5349212 0 0)
(1.5567352 0 0)
(1.5766701 0 0)
(1.5946501 0 0)
(1.6105758 0 0)
(1.6243265 0 0)
(1.6357666 0 0)
(1.6447526 0 0)
(1.6511427 0 0)
(1.6548043 0 0)
(1.6556177 0 0)
(1.6534968 0 0)
(1.6484038 0 0)
(1.6403521 0 0)
(1.629406 0 0)
(1.6156842 0 0)
(1.5993587 0 0)
(1.5806482 0 0)
(1.5598221 0 0)
(1.5372055 0 0)
(1.5131946 0 0)
(1.488281 0 0)
(1.4629917 0 0)
(1.4379395 0 0)
(1.4132969 0 0)
(1.3905483 0 0)
(1.3713022 0 0)
(1.3565967 0 0)
(1.3478068 0 0)
(1.1850749 0 0)
(1.1419943 0 0)
(1.0968467 0 0)
(1.0495675 0 0)
(0.99987351 0 0)
(0.94744649 0 0)
(0.89198933 0 0)
(0.83318243 0 0)
(0.77054035 0 0)
(0.7035597 0 0)
(0.63175681 0 0)
(0.55302538 0 0)
(0.46710553 0 0)
(0.37528693 0 0)
(0.27710292 0 0)
(0.17206473 0 0)
(0.059442971 0 0)
(1.2262817 0 0)
(1.2659393 0 0)
(1.304184 0 0)
(1.3411368 0 0)
(1.3769117 0 0)
(1.4115948 0 0)
(1.4452452 0 0)
(1.477915 0 0)
(1.5096997 0 0)
(1.5369222 0 0)
(1.5591364 0 0)
(1.5796014 0 0)
(1.5982125 0 0)
(1.6148844 0 0)
(1.6295072 0 0)
(1.6419541 0 0)
(1.6520864 0 0)
(1.6597606 0 0)
(1.6648367 0 0)
(1.6671866 0 0)
(1.6667024 0 0)
(1.66331 0 0)
(1.6569878 0 0)
(1.6477634 0 0)
(1.6357157 0 0)
(1.6209721 0 0)
(1.6037129 0 0)
(1.5841583 0 0)
(1.5625709 0 0)
(1.5392853 0 0)
(1.5146977 0 0)
(1.4892879 0 0)
(1.463575 0 0)
(1.4373823 0 0)
(1.4121491 0 0)
(1.3895132 0 0)
(1.3702853 0 0)
(1.35551 0 0)
(1.3465719 0 0)
(1.2258895 0 0)
(1.1851119 0 0)
(1.1424497 0 0)
(1.0978404 0 0)
(1.0510616 0 0)
(1.0018214 0 0)
(0.94978956 0 0)
(0.89466109 0 0)
(0.83610735 0 0)
(0.77362766 0 0)
(0.70673523 0 0)
(0.63314185 0 0)
(0.55270697 0 0)
(0.46681296 0 0)
(0.37501291 0 0)
(0.27686561 0 0)
(0.17188723 0 0)
(0.059369454 0 0)
(1.2649593 0 0)
(1.3026179 0 0)
(1.3389897 0 0)
(1.3741965 0 0)
(1.4083321 0 0)
(1.4414613 0 0)
(1.4736392 0 0)
(1.5049135 0 0)
(1.5353677 0 0)
(1.5612676 0 0)
(1.5821586 0 0)
(1.601326 0 0)
(1.6186612 0 0)
(1.6340646 0 0)
(1.6474201 0 0)
(1.6585966 0 0)
(1.6674533 0 0)
(1.6738468 0 0)
(1.6776412 0 0)
(1.6787161 0 0)
(1.6769722 0 0)
(1.6723518 0 0)
(1.664849 0 0)
(1.6545063 0 0)
(1.6414133 0 0)
(1.6257064 0 0)
(1.607571 0 0)
(1.5872208 0 0)
(1.5649263 0 0)
(1.5410286 0 0)
(1.5159108 0 0)
(1.4900473 0 0)
(1.4629513 0 0)
(1.4359716 0 0)
(1.4109021 0 0)
(1.3883402 0 0)
(1.3690996 0 0)
(1.3542305 0 0)
(1.3451337 0 0)
(1.2645642 0 0)
(1.2259278 0 0)
(1.1855743 0 0)
(1.1434646 0 0)
(1.0993734 0 0)
(1.05307 0 0)
(1.0042534 0 0)
(0.95258397 0 0)
(0.89774631 0 0)
(0.83940128 0 0)
(0.77706512 0 0)
(0.70824509 0 0)
(0.63277505 0 0)
(0.55235949 0 0)
(0.46647436 0 0)
(0.3746951 0 0)
(0.27659172 0 0)
(0.1716824 0 0)
(0.059284575 0 0)
(1.3016315 0 0)
(1.3374154 0 0)
(1.3720437 0 0)
(1.4056148 0 0)
(1.4382012 0 0)
(1.4698648 0 0)
(1.5006567 0 0)
(1.5306084 0 0)
(1.5597963 0 0)
(1.5844273 0 0)
(1.6040439 0 0)
(1.6219654 0 0)
(1.6380634 0 0)
(1.6522336 0 0)
(1.6643558 0 0)
(1.6742933 0 0)
(1.6819039 0 0)
(1.6870469 0 0)
(1.689591 0 0)
(1.6894236 0 0)
(1.6864604 0 0)
(1.6806577 0 0)
(1.6720254 0 0)
(1.6606179 0 0)
(1.6465365 0 0)
(1.6299231 0 0)
(1.610959 0 0)
(1.5898683 0 0)
(1.5669258 0 0)
(1.5424637 0 0)
(1.5168612 0 0)
(1.48937 0 0)
(1.4612736 0 0)
(1.4344964 0 0)
(1.4095488 0 0)
(1.3870245 0 0)
(1.3677409 0 0)
(1.3527571 0 0)
(1.3434888 0 0)
(1.301235 0 0)
(1.264602 0 0)
(1.2263954 0 0)
(1.186606 0 0)
(1.1450299 0 0)
(1.1014338 0 0)
(1.0555796 0 0)
(1.0071547 0 0)
(0.95580922 0 0)
(0.90122103 0 0)
(0.84306998 0 0)
(0.77868541 0 0)
(0.7078305 0 0)
(0.63237482 0 0)
(0.55195509 0 0)
(0.46607997 0 0)
(0.3743273 0 0)
(0.27627489 0 0)
(0.17144588 0 0)
(0.059186672 0 0)
(1.3364252 0 0)
(1.3704653 0 0)
(1.4034592 0 0)
(1.4354875 0 0)
(1.4666153 0 0)
(1.4968996 0 0)
(1.5263776 0 0)
(1.5550696 0 0)
(1.5830387 0 0)
(1.6064459 0 0)
(1.6248511 0 0)
(1.6415657 0 0)
(1.656461 0 0)
(1.6694333 0 0)
(1.6803523 0 0)
(1.6890796 0 0)
(1.6954728 0 0)
(1.6993938 0 0)
(1.7007183 0 0)
(1.6993454 0 0)
(1.6952027 0 0)
(1.6882639 0 0)
(1.6785526 0 0)
(1.6661353 0 0)
(1.6511213 0 0)
(1.633647 0 0)
(1.6139101 0 0)
(1.5921399 0 0)
(1.5685979 0 0)
(1.543619 0 0)
(1.5161434 0 0)
(1.4874314 0 0)
(1.4595682 0 0)
(1.4329493 0 0)
(1.4080837 0 0)
(1.385563 0 0)
(1.3662074 0 0)
(1.3510863 0 0)
(1.3416371 0 0)
(1.3360274 0 0)
(1.3012732 0 0)
(1.265073 0 0)
(1.2274406 0 0)
(1.1881985 0 0)
(1.1471354 0 0)
(1.1040089 0 0)
(1.0585717 0 0)
(1.0105032 0 0)
(0.95944328 0 0)
(0.90509304 0 0)
(0.84478416 0 0)
(0.77822259 0 0)
(0.70737539 0 0)
(0.63191056 0 0)